data_71526-ICSD
#?2014 by Fachinformationszentrum Karlsruhe, and the U.S. Secretary of 
#Commerce on behalf of the United States.  All rights reserved.
_database_code_ICSD                71526
_audit_creation_date               1993/01/06
_audit_update_record               2006/04/01
_chemical_name_systematic          'Dipotassium Sulfate(VI)'
_chemical_formula_structural       'K2 (S O4)'
_chemical_formula_sum              'K2 O4 S1'
_publ_section_title
;
Raman scattering and lattice-dynamical calculations of alkali- metal 
sulfates
;
loop_
_citation_id
_citation_journal_abbrev
_citation_year
_citation_journal_volume
_citation_journal_issue
_citation_page_first
_citation_page_last
_citation_journal_id_ASTM
primary 'Physical Review, Serie 3. B - Condensed Matter (18,1978-)'
 1991 44 14 7387 7393 PRBMDO
2 'Golden Book of Phase Transitions, Wroclaw' 2002 1- 1 123 GBOPT5
_publ_author_name
;
Liu, D.;Lu, H.M.;Hardy, J.R.;Ullman, F.G.
;
_cell_length_a                     7.0807
_cell_length_b                     9.6484
_cell_length_c                     5.572
_cell_angle_alpha                  90.
_cell_angle_beta                   90.
_cell_angle_gamma                  90.
_cell_volume                       380.66
_cell_formula_units_Z              4
_symmetry_space_group_name_H-M     'P n a m'
_symmetry_Int_Tables_number        62
loop_
_symmetry_equiv_pos_site_id
_symmetry_equiv_pos_as_xyz
  1	'x+.5, -y+.5, z'
  2	'x, y, -z+.5'
  3	'-x+.5, y+.5, z+.5'
  4	'-x, -y, -z'
  5	'-x+.5, y+.5, -z'
  6	'-x, -y, z+.5'
  7	'x+.5, -y+.5, -z+.5'
  8	'x, y, z'
loop_
_atom_type_symbol
_atom_type_oxidation_number
K1+	1
O2-	-2
S6+	6
loop_
_atom_site_label
_atom_site_type_symbol
_atom_site_symmetry_multiplicity
_atom_site_Wyckoff_symbol
_atom_site_fract_x
_atom_site_fract_y
_atom_site_fract_z
_atom_site_occupancy
_atom_site_attached_hydrogens
S1 S6+ 4 c 0.233 0.4195 0.25 1. 0 
K1 K1+ 4 c 0.1683 0.0882 0.25 1. 0 
K2 K1+ 4 c 0.9897 0.7008 0.25 1. 0 
O1 O2- 4 c 0.31 0.5613 0.25 1. 0 
O2 O2- 4 c 0.0258 0.4227 0.25 1. 0 
O3 O2- 8 d 0.301 0.3468 0.0348 1. 0 

#End of data_71526-ICSD


