data_404737-ICSD
#?2014 by Fachinformationszentrum Karlsruhe, and the U.S. Secretary of 
#Commerce on behalf of the United States.  All rights reserved.
_database_code_ICSD                404737
_audit_creation_date               1997/05/13
_audit_update_record               2000/07/15
_chemical_name_systematic
;
Dibarium Dieuropium Zinct Platinum Octaoxide
;
_chemical_formula_structural       'Ba2 Eu2 Zn Pt O8'
_chemical_formula_sum              'Ba2 Eu2 O8 Pt1 Zn1'
_publ_section_title
;
Zur Kenntnis eines Barium-Lanthanoid-Oxozinkat/Platinats(IV): Ba2 Eu2 
Zn Pt O8
;
loop_
_citation_id
_citation_journal_abbrev
_citation_year
_citation_journal_volume
_citation_page_first
_citation_page_last
_citation_journal_id_ASTM
primary 'Zeitschrift fuer Anorganische und Allgemeine Chemie (1950) (DE)'
 1996 622 1129 1133 ZAACAB
_publ_author_name
;
Mueller Buschbaum, H.;Rabbow, C.;Sfreddo, O.
;
_cell_length_a                     13.3899(10)
_cell_length_b                     5.7644(10)
_cell_length_c                     10.3873(10)
_cell_angle_alpha                  90.
_cell_angle_beta                   90.
_cell_angle_gamma                  90.
_cell_volume                       801.74
_cell_formula_units_Z              4
_symmetry_space_group_name_H-M     'P n m a'
_symmetry_Int_Tables_number        62
_refine_ls_R_factor_all            .0953
loop_
_symmetry_equiv_pos_site_id
_symmetry_equiv_pos_as_xyz
  1	'x+.5, y, -z+.5'
  2	'x, -y+.5, z'
  3	'-x+.5, y+.5, z+.5'
  4	'-x, -y, -z'
  5	'-x+.5, -y, z+.5'
  6	'-x, y+.5, -z'
  7	'x+.5, -y+.5, -z+.5'
  8	'x, y, z'
loop_
_atom_type_symbol
_atom_type_oxidation_number
Ba2+	2
Eu2+	2
O2-	-2
Pt6+	6
Zn2+	2
loop_
_atom_site_label
_atom_site_type_symbol
_atom_site_symmetry_multiplicity
_atom_site_Wyckoff_symbol
_atom_site_fract_x
_atom_site_fract_y
_atom_site_fract_z
_atom_site_occupancy
_atom_site_attached_hydrogens
Pt1 Pt6+ 4 c 0.307290(13) 0.25 0.02675(2) 1. 0 
Eu1 Eu2+ 4 c 0.08237(2) 0.25 0.01160(2) 1. 0 
Eu2 Eu2+ 4 c 0.36018(2) 0.25 0.30765(2) 1. 0 
Ba1 Ba2+ 4 c 0.08351(2) 0.25 0.40050(3) 1. 0 
Ba2 Ba2+ 4 c 0.28631(2) 0.25 0.67747(3) 1. 0 
Zn1 Zn2+ 4 c 0.02644(4) 0.25 -.28100(6) 1. 0 
O1 O2- 8 d 0.3873(2) 0.0075(5) 0.1268(3) 1. 0 
O2 O2- 8 d 0.2207(2) 0.0099(5) -.0618(3) 1. 0 
O3 O2- 8 d 0.0060(2) 0.0056(5) -.1403(3) 1. 0 
O4 O2- 4 c 0.2080(2) 0.25 0.1795(4) 1. 0 
O5 O2- 4 c -.0939(3) 0.25 -.3826(4) 1. 0 

loop_
_atom_site_aniso_label
_atom_site_aniso_type_symbol
_atom_site_aniso_U_11
_atom_site_aniso_U_22
_atom_site_aniso_U_33
_atom_site_aniso_U_12
_atom_site_aniso_U_13
_atom_site_aniso_U_23
Pt1 Pt6+ 0.00392(5) 0.00572(6) 0.00328(6) 0 -.00034(6) 0
Eu1 Eu2+ 0.00457(7) 0.00591(9) 0.00495(8) 0 0.00067(7) 0
Eu2 Eu2+ 0.00557(7) 0.00656(9) 0.00443(8) 0 0.00035(8) 0
Ba1 Ba2+ 0.01048(11) 0.00998(12) 0.00786(11) 0 -.00022(10) 0
Ba2 Ba2+ 0.00837(10) 0.00827(12) 0.00845(11) 0 -.00093(9) 0
Zn1 Zn2+ 0.0069(2) 0.0060(2) 0.0064(2) 0 -.0004(2) 0
O1 O2- 0.0264(10) 0.0190(11) 0.0301(13) 0.0064(10) -.0016(10) 0.0037(11)
O2 O2- 0.0232(9) 0.0225(12) 0.0292(11) -.0022(10) 0.0028(10) -.0055(11)
O3 O2- 0.0246(9) 0.0203(11) 0.0273(10) 0.0014(9) -.0059(9) 0.0064(10)
O4 O2- 0.0231(14) 0.024(2) 0.0195(14) 0 0.0038(12) 0
O5 O2- 0.036(2) 0.0133(15) 0.030(2) 0 -.009(2) 0
#End of data_404737-ICSD


