data_416547-ICSD
#?2014 by Fachinformationszentrum Karlsruhe, and the U.S. Secretary of 
#Commerce on behalf of the United States.  All rights reserved.
_database_code_ICSD                416547
_audit_creation_date               2007/08/01
_chemical_name_systematic
;
Rubidium Lithium Praseodymium(III) Oxoselenate(IV)
;
_chemical_formula_structural       'Rb6 Li Pr11 Cl16 (Se O3)12'
_chemical_formula_sum              'Cl16 Li1 O36 Pr11 Rb6 Se12'
_publ_section_title
;
Rb6 Li Pr11 Cl16 (Se O3)12: ein chloridisch derivatisiertes Rubidium-
Lithium-Praseodym(III)-Oxoselenat(IV)
;
loop_
_citation_id
_citation_journal_abbrev
_citation_year
_citation_journal_volume
_citation_journal_issue
_citation_page_first
_citation_page_last
_citation_journal_id_ASTM
primary 'Zeitschrift fuer Anorganische und Allgemeine Chemie (1950) (DE)'
 2006 632 14 2226 2231 ZAACAB
_publ_author_name                  'Lipp, C.;Schleid, T.'
_cell_length_a                     15.9058(6)
_cell_length_b                     15.9058(6)
_cell_length_c                     24.7897(9)
_cell_angle_alpha                  90.00
_cell_angle_beta                   90.00
_cell_angle_gamma                  90.00
_cell_volume                       6271.66
_cell_formula_units_Z              4
_symmetry_space_group_name_H-M     'I 4/m c m'
_symmetry_Int_Tables_number        140
_refine_ls_R_factor_all            .0409
loop_
_symmetry_equiv_pos_site_id
_symmetry_equiv_pos_as_xyz
  1	'y, x, -z+.5'
  2	'-y, -x, -z+.5'
  3	'-y, x, -z'
  4	'y, -x, -z'
  5	'x, -y, -z+.5'
  6	'-x, y, -z+.5'
  7	'x, y, -z'
  8	'-x, -y, -z'
  9	'-y, -x, z+.5'
 10	'y, x, z+.5'
 11	'y, -x, z'
 12	'-y, x, z'
 13	'-x, y, z+.5'
 14	'x, -y, z+.5'
 15	'-x, -y, z'
 16	'x, y, z'
 17	'y+.5, x+.5, -z'
 18	'-y+.5, -x+.5, -z'
 19	'-y+.5, x+.5, -z+.5'
 20	'y+.5, -x+.5, -z+.5'
 21	'x+.5, -y+.5, -z'
 22	'-x+.5, y+.5, -z'
 23	'x+.5, y+.5, -z+.5'
 24	'-x+.5, -y+.5, -z+.5'
 25	'-y+.5, -x+.5, z'
 26	'y+.5, x+.5, z'
 27	'y+.5, -x+.5, z+.5'
 28	'-y+.5, x+.5, z+.5'
 29	'-x+.5, y+.5, z'
 30	'x+.5, -y+.5, z'
 31	'-x+.5, -y+.5, z+.5'
 32	'x+.5, y+.5, z+.5'
loop_
_atom_type_symbol
_atom_type_oxidation_number
Cl1-	-1
Li1+	1
O2-	-2
Pr3+	3
Rb1+	1
Se4+	4
loop_
_atom_site_label
_atom_site_type_symbol
_atom_site_symmetry_multiplicity
_atom_site_Wyckoff_symbol
_atom_site_fract_x
_atom_site_fract_y
_atom_site_fract_z
_atom_site_occupancy
_atom_site_attached_hydrogens
_atom_site_U_iso_or_equiv
Rb1 Rb1+ 8 h 0.37605(4) 0.87605(4) 0.0000 1 0 0.0245(2) 
Rb2 Rb1+ 16 k 0.12920(5) 0.12049(5) 0.0000 1 0 0.02936(18) 
Li1 Li1+ 4 b 0.0000 0.5000 0.2500 1 0 0.054(9) 
Pr1 Pr3+ 4 a 0.0000 0.0000 0.2500 1 0 0.00736(13) 
Pr2 Pr3+ 8 e 0.2500 0.2500 0.2500 1 0 0.00744(11) 
Pr3 Pr3+ 16 j 0.256917(18) 0.0000 0.2500 1 0 0.00710(9) 
Pr4 Pr3+ 16 l 0.121109(13) 0.621109(13) 0.123815(15) 1 0 0.00809(9) 
Cl1 Cl1- 8 f 0.0000 0.0000 0.07768(9) 1 0 0.0343(6) 
Cl2 Cl1- 8 g 0.0000 0.5000 0.07613(9) 1 0 0.0163(4) 
Cl3 Cl1- 16 l 0.23944(8) 0.73944(8) 0.07658(8) 1 0 0.0230(4) 
Cl4 Cl1- 32 m 0.49357(7) 0.23523(7) 0.07542(5) 1 0 0.0232(3) 
Se1 Se4+ 16 l 0.10745(3) 0.60745(3) 0.32835(3) 1 0 0.00797(13) 
Se2 Se4+ 32 m 0.14976(2) 0.12171(2) 0.160234(18) 1 0 0.00713(10) 
O1 O2- 16 l 0.13965(18) 0.63965(18) 0.26576(17) 1 0 0.0106(9) 
O2 O2- 32 m 0.12440(17) 0.03866(17) 0.19931(12) 1 0 0.0098(6) 
O3 O2- 32 m 0.12086(17) 0.20640(17) 0.19779(12) 1 0 0.0104(6) 
O4 O2- 32 m 0.25326(17) 0.12350(17) 0.18212(12) 1 0 0.0092(6) 
O5 O2- 32 m 0.37881(17) 0.00339(17) 0.31500(12) 1 0 0.0127(6) 

loop_
_atom_site_aniso_label
_atom_site_aniso_type_symbol
_atom_site_aniso_U_11
_atom_site_aniso_U_22
_atom_site_aniso_U_33
_atom_site_aniso_U_12
_atom_site_aniso_U_13
_atom_site_aniso_U_23
Rb1 Rb1+ 0.0242(3) 0.0242(3) 0.0251(6) 0.0051(4) 0.000 0.000
Rb2 Rb1+ 0.0304(4) 0.0286(4) 0.0291(4) -0.0020(3) 0.000 0.000
Pr1 Pr3+ 0.00452(17) 0.00452(17) 0.0131(3) 0.000 0.000 0.000
Pr2 Pr3+ 0.00517(14) 0.00517(14) 0.0120(3) 0.00029(14) -0.00048(13) 
0.00048(13)
Pr3 Pr3+ 0.00581(15) 0.00531(15) 0.01019(18) 0.000 0.000 0.00041(13)
Pr4 Pr3+ 0.00687(10) 0.00687(10) 0.01054(18) -0.00017(11) -0.00018(9) 
-0.00018(9)
Cl1 Cl1- 0.0347(9) 0.0347(9) 0.0335(16) 0.000 0.000 0.000
Cl2 Cl1- 0.0171(6) 0.0171(6) 0.0147(11) -0.0039(8) 0.000 0.000
Cl3 Cl1- 0.0216(5) 0.0216(5) 0.0260(10) 0.0020(6) 0.0082(5) 0.0082(5)
Cl4 Cl1- 0.0220(6) 0.0210(5) 0.0266(7) 0.0004(5) 0.0112(5) 0.0073(5)
Se1 Se4+ 0.00696(17) 0.00696(17) 0.0100(3) 0.0016(2) -0.00023(16) 
-0.00023(16)
Se2 Se4+ 0.00626(18) 0.00672(19) 0.0084(2) -0.00007(14) -0.00090(16) 
0.00001(16)
O1 O2- 0.0107(12) 0.0107(12) 0.010(2) -0.0014(15) 0.0023(12) 0.0023(12)
O2 O2- 0.0092(14) 0.0081(14) 0.0121(16) -0.0011(10) 0.0000(12) 0.0037(12)
O3 O2- 0.0084(14) 0.0081(13) 0.0146(17) 0.0025(10) 0.0014(13) -0.0014(12)
O4 O2- 0.0063(13) 0.0097(14) 0.0117(16) -0.0007(11) -0.0010(12) 0.0010(13)
O5 O2- 0.0131(14) 0.0080(13) 0.0169(17) -0.0031(12) -0.0051(13) 0.0005(13)
#End of data_416547-ICSD


