data_65036-ICSD
#?2014 by Fachinformationszentrum Karlsruhe, and the U.S. Secretary of 
#Commerce on behalf of the United States.  All rights reserved.
_database_code_ICSD                65036
_audit_creation_date               1989/06/19
_chemical_name_systematic          'Dipotassium Tetrachloropalladate'
_chemical_formula_structural       'K2 (Pd Cl4)'
_chemical_formula_sum              'Cl4 K2 Pd1'
_publ_section_title
;
Electron-density distribution in crystals of dipotassium 
tetrachloropalladate(II) and dipotassium hexachloropalladate (IV), 
K2(PdCl4) and K2(PdCl6) at 120K
;
loop_
_citation_id
_citation_journal_abbrev
_citation_year
_citation_journal_volume
_citation_journal_issue
_citation_page_first
_citation_page_last
_citation_journal_id_ASTM
primary 'Acta Crystallographica, Section B: Structural Science'
 1988 44 6 580 585 ASBSDK
_publ_author_name                  'Takazawa, H.;Ohba, S.;Saito, Y.'
_cell_length_a                     7.0673(2)
_cell_length_b                     7.0673(2)
_cell_length_c                     4.1258(2)
_cell_angle_alpha                  90.
_cell_angle_beta                   90.
_cell_angle_gamma                  90.
_cell_volume                       206.07
_cell_formula_units_Z              1
_symmetry_space_group_name_H-M     'P 4/m m m'
_symmetry_Int_Tables_number        123
_refine_ls_R_factor_all            .02
loop_
_symmetry_equiv_pos_site_id
_symmetry_equiv_pos_as_xyz
  1	'y, x, -z'
  2	'-y, -x, -z'
  3	'-y, x, -z'
  4	'y, -x, -z'
  5	'-x, y, -z'
  6	'x, -y, -z'
  7	'x, y, -z'
  8	'-x, -y, -z'
  9	'-y, -x, z'
 10	'y, x, z'
 11	'y, -x, z'
 12	'-y, x, z'
 13	'x, -y, z'
 14	'-x, y, z'
 15	'-x, -y, z'
 16	'x, y, z'
loop_
_atom_type_symbol
_atom_type_oxidation_number
Cl1-	-1
K1+	1
Pd2+	2
loop_
_atom_site_label
_atom_site_type_symbol
_atom_site_symmetry_multiplicity
_atom_site_Wyckoff_symbol
_atom_site_fract_x
_atom_site_fract_y
_atom_site_fract_z
_atom_site_occupancy
_atom_site_attached_hydrogens
Pd1 Pd2+ 1 a 0 0 0 1. 0 
Cl1 Cl1- 4 j 0.23066(2) 0.23066(2) 0 1. 0 
K1 K1+ 2 e 0 0.5 0.5 1. 0 

loop_
_atom_site_aniso_label
_atom_site_aniso_type_symbol
_atom_site_aniso_U_11
_atom_site_aniso_U_22
_atom_site_aniso_U_33
_atom_site_aniso_U_12
_atom_site_aniso_U_13
_atom_site_aniso_U_23
Pd1 Pd2+ 0.1886(3) 0.1886(3) 0.2296(5) 0 0 0
Cl1 Cl1- 0.2498(5) 0.2498(5) 0.4232(10) -.0353(5) 0 0
K1 K1+ 0.5726(20) 0.2848(11) 0.2706(10) 0 0 0
#End of data_65036-ICSD


