data_2282-ICSD
#?2014 by Fachinformationszentrum Karlsruhe, and the U.S. Secretary of 
#Commerce on behalf of the United States.  All rights reserved.
_database_code_ICSD                2282
_audit_creation_date               1980/01/01
_audit_update_record               2013/08/01
_chemical_name_systematic          'Tricalcium Disilicate'
_chemical_formula_structural       'Ca3 (Si2 O7)'
_chemical_formula_sum              'Ca3 O7 Si2'
_chemical_name_mineral             Rankinite
_publ_section_title
;
Refinement of the structure of rankinite
;
loop_
_citation_id
_citation_journal_abbrev
_citation_year
_citation_journal_volume
_citation_page_first
_citation_page_last
_citation_journal_id_ASTM
primary 'Mineralogical Journal (Japan)' 1976 8 240 246 MJTOAS
2 'Mineralogical Journal (Japan)' 1976 8 38 47 MJTOAS
_publ_author_name
;
Saburi, S.;Kusachi, I.;Henmi, C.;Kawahara, A.;Henmi, K.;Kawada, I.
;
_cell_length_a                     10.557(1)
_cell_length_b                     8.885(3)
_cell_length_c                     7.858(1)
_cell_angle_alpha                  90.
_cell_angle_beta                   119.586(6)
_cell_angle_gamma                  90.
_cell_volume                       640.97
_cell_formula_units_Z              4
_symmetry_space_group_name_H-M     'P 1 21/a 1'
_symmetry_Int_Tables_number        14
_refine_ls_R_factor_all            .033
loop_
_symmetry_equiv_pos_site_id
_symmetry_equiv_pos_as_xyz
  1	'x+.5, -y+.5, z'
  2	'-x, -y, -z'
  3	'-x+.5, y+.5, -z'
  4	'x, y, z'
loop_
_atom_type_symbol
_atom_type_oxidation_number
Ca2+	2
O2-	-2
Si4+	4
loop_
_atom_site_label
_atom_site_type_symbol
_atom_site_symmetry_multiplicity
_atom_site_Wyckoff_symbol
_atom_site_fract_x
_atom_site_fract_y
_atom_site_fract_z
_atom_site_occupancy
_atom_site_attached_hydrogens
Ca1 Ca2+ 4 e 0.00867(11) 0.05871(13) 0.28957(16) 1. 0 
Ca2 Ca2+ 4 e 0.16829(11) 0.57424(12) 0.20934(15) 1. 0 
Ca3 Ca2+ 4 e 0.34078(11) 0.90736(12) 0.28490(16) 1. 0 
Si1 Si4+ 4 e 0.09055(15) 0.21502(16) 0.98429(21) 1. 0 
Si2 Si4+ 4 e 0.29602(15) 0.23395(16) 0.43206(21) 1. 0 
O1 O2- 4 e 0.35625(36) 0.39730(39) 0.42113(50) 1. 0 
O2 O2- 4 e 0.17948(36) 0.23873(42) 0.50723(52) 1. 0 
O3 O2- 4 e 0.40989(36) 0.10295(41) 0.54763(52) 1. 0 
O4 O2- 4 e 0.20191(37) 0.15519(39) 0.20980(52) 1. 0 
O5 O2- 4 e 0.09903(37) 0.39489(40) 0.97373(52) 1. 0 
O6 O2- 4 e 0.14429(36) 0.14102(41) 0.84624(51) 1. 0 
O7 O2- 4 e 0.92820(37) 0.16241(41) 0.93207(56) 1. 0 

#End of data_2282-ICSD


