data_1704-ICSD
#?2014 by Fachinformationszentrum Karlsruhe, and the U.S. Secretary of 
#Commerce on behalf of the United States.  All rights reserved.
_database_code_ICSD                1704
_audit_creation_date               1980/01/01
_audit_update_record               2012/08/01
_chemical_name_systematic          'Potassium Tetrachloroaluminate'
_chemical_formula_structural       'K (Al Cl4)'
_chemical_formula_sum              'Al1 Cl4 K1'
_publ_section_title                'Potassium tetrachloroaluminate'
loop_
_citation_id
_citation_journal_abbrev
_citation_year
_citation_journal_volume
_citation_page_first
_citation_page_last
_citation_journal_id_ASTM
primary 'Acta Crystallographica B (24,1968-38,1982)' 1978 34 1328 1330 ACBCAR
_publ_author_name
;
Mairesse, G.;Barbier, P.;Wignacourt, J.P.
;
_cell_length_a                     10.481(9)
_cell_length_b                     7.183(5)
_cell_length_c                     9.273(5)
_cell_angle_alpha                  93.10(3)
_cell_angle_beta                   90.
_cell_angle_gamma                  90.
_cell_volume                       697.1
_cell_formula_units_Z              4
_symmetry_space_group_name_H-M     'P 21 1 1'
_symmetry_Int_Tables_number        4
_refine_ls_R_factor_all            .035
loop_
_symmetry_equiv_pos_site_id
_symmetry_equiv_pos_as_xyz
  1	'x+.5, -y, -z'
  2	'x, y, z'
loop_
_atom_type_symbol
_atom_type_oxidation_number
Al3+	3
Cl1-	-1
K1+	1
loop_
_atom_site_label
_atom_site_type_symbol
_atom_site_symmetry_multiplicity
_atom_site_Wyckoff_symbol
_atom_site_fract_x
_atom_site_fract_y
_atom_site_fract_z
_atom_site_occupancy
_atom_site_attached_hydrogens
Al1 Al3+ 2 a 0.6648 0.0068(5) 0.9336(4) 1. 0 
Cl1 Cl1- 2 a 0.8263(5) 0.0263(6) 0.7977(5) 1. 0 
Cl2 Cl1- 2 a 0.4914(4) -.0553(4) 0.8200(3) 1. 0 
Cl3 Cl1- 2 a 0.6914(4) -.2121(4) 0.0782(4) 1. 0 
Cl4 Cl1- 2 a 0.6520(5) 0.2656(4) 0.0584(5) 1. 0 
Al2 Al3+ 2 a 0.5565(2) 0.4918(5) 0.5641(4) 1. 0 
Cl5 Cl1- 2 a 0.3928(5) 0.4697(5) 0.6996(5) 1. 0 
Cl6 Cl1- 2 a 0.7230(4) 0.5409(5) 0.6892(4) 1. 0 
Cl7 Cl1- 2 a 0.5321(5) 0.7149(4) 0.4255(4) 1. 0 
Cl8 Cl1- 2 a 0.5718(5) 0.2341(4) 0.4423(4) 1. 0 
K1 K1+ 2 a 0.9178(5) 0.4441(4) 0.9452(5) 1. 0 
K2 K1+ 2 a 0.3049(5) 0.0528(5) 0.5566(5) 1. 0 

#End of data_1704-ICSD


