data_94521-ICSD
#?2014 by Fachinformationszentrum Karlsruhe, and the U.S. Secretary of 
#Commerce on behalf of the United States.  All rights reserved.
_database_code_ICSD                94521
_audit_creation_date               2003/10/01
_chemical_name_systematic
;
Sodium Erbium Fluoride Phosphate(V)
;
_chemical_formula_structural       'Na Er F (P O4)'
_chemical_formula_sum              'Er1 F1 Na1 O4 P1'
_publ_section_title
;
Synthesis and properties of erbium sodium fluoride phosphates
;
loop_
_citation_id
_citation_journal_abbrev
_citation_year
_citation_journal_volume
_citation_journal_issue
_citation_page_first
_citation_page_last
_citation_journal_id_ASTM
primary 'Zhurnal Neorganicheskoi Khimii' 2001 46 10 1629 1634 ZNOKAQ
_publ_author_name
;
Strelkov, M.A.;Zhizhin, M.G.;Spiridonov, F.M.;Bobylev, 
A.P.;Komissarova, L.N.
;
_cell_length_a                     8.9214(2)
_cell_length_b                     6.9194(1)
_cell_length_c                     6.4517(1)
_cell_angle_alpha                  90
_cell_angle_beta                   106.166(2)
_cell_angle_gamma                  90
_cell_volume                       382.52
_cell_formula_units_Z              4
_symmetry_space_group_name_H-M     'C 1 2/m 1'
_symmetry_Int_Tables_number        12
_refine_ls_R_factor_all            .05
loop_
_symmetry_equiv_pos_site_id
_symmetry_equiv_pos_as_xyz
  1	'-x, y, -z'
  2	'-x, -y, -z'
  3	'x, -y, z'
  4	'x, y, z'
  5	'-x+.5, y+.5, -z'
  6	'-x+.5, -y+.5, -z'
  7	'x+.5, -y+.5, z'
  8	'x+.5, y+.5, z'
loop_
_atom_type_symbol
_atom_type_oxidation_number
Er3+	3
F1-	-1
Na1+	1
O2-	-2
P5+	5
loop_
_atom_site_label
_atom_site_type_symbol
_atom_site_symmetry_multiplicity
_atom_site_Wyckoff_symbol
_atom_site_fract_x
_atom_site_fract_y
_atom_site_fract_z
_atom_site_occupancy
_atom_site_attached_hydrogens
_atom_site_B_iso_or_equiv
Er1 Er3+ 4 i 0.7174(1) 0 0.1174(1) 1. 0 2.46(1) 
Na1 Na1+ 4 h 0.5 0.2071(1) 0.5 1. 0 2.12(3) 
P1 P5+ 4 i 0.6529(1) 0.5 0.2758(1) 1. 0 0.71(1) 
O1 O2- 8 j 0.6971(1) 0.3296(1) 0.1536(2) 1. 0 0.40(1) 
O2 O2- 4 i 0.7604(2) 0.5 0.5065(2) 1. 0 0.40(1) 
O3 O2- 4 i 0.4842(2) 0.5 0.2688(2) 1. 0 0.40(1) 
F1 F1- 4 i 0.4832(2) 0 0.1933(2) 1. 0 0.40(1) 

#End of data_94521-ICSD


