data_166815-ICSD
#?2014 by Fachinformationszentrum Karlsruhe, and the U.S. Secretary of 
#Commerce on behalf of the United States.  All rights reserved.
_database_code_ICSD                166815
_audit_creation_date               2010/08/01
_chemical_name_systematic          'Lithium Iron Phosphate(V)'
_chemical_formula_structural       'Li Fe (P O4)'
_chemical_formula_sum              'Fe1 Li1 O4 P1'
_publ_section_title
;
Effects of doping on the electronic properties of Li Fe P O4: a first-
principles investigation
;
loop_
_citation_id
_citation_journal_abbrev
_citation_year
_citation_journal_volume
_citation_page_first
_citation_page_last
_citation_journal_id_ASTM
primary 'Physica B, Condensed Matter' 2010 405 803 807 PHYBE3
_publ_author_name                  'Xu Jing;Chen Gang'
_cell_length_a                     10.638
_cell_length_b                     5.963
_cell_length_c                     4.528
_cell_angle_alpha                  90.
_cell_angle_beta                   90.
_cell_angle_gamma                  90.
_cell_volume                       287.23
_cell_formula_units_Z              4
_symmetry_space_group_name_H-M     'P n m a'
_symmetry_Int_Tables_number        62
loop_
_symmetry_equiv_pos_site_id
_symmetry_equiv_pos_as_xyz
  1	'x+.5, y, -z+.5'
  2	'x, -y+.5, z'
  3	'-x+.5, y+.5, z+.5'
  4	'-x, -y, -z'
  5	'-x+.5, -y, z+.5'
  6	'-x, y+.5, -z'
  7	'x+.5, -y+.5, -z+.5'
  8	'x, y, z'
loop_
_atom_type_symbol
_atom_type_oxidation_number
Fe2+	2
Li1+	1
O2-	-2
P5+	5
loop_
_atom_site_label
_atom_site_type_symbol
_atom_site_symmetry_multiplicity
_atom_site_Wyckoff_symbol
_atom_site_fract_x
_atom_site_fract_y
_atom_site_fract_z
_atom_site_occupancy
_atom_site_attached_hydrogens
Li1 Li1+ 4 a 0 0 0 1. 0 
Fe1 Fe2+ 4 c 0.270 0.250 0.979 1. 0 
P1 P5+ 4 c 0.104 0.250 0.415 1. 0 
O1 O2- 4 c 0.112 0.250 0.732 1. 0 
O2 O2- 4 c 0.463 0.250 0.186 1. 0 
O3 O2- 8 d 0.174 0.045 0.272 1. 0 

#End of data_166815-ICSD


