data_600292-ICSD
#?2014 by Fachinformationszentrum Karlsruhe, and the U.S. Secretary of 
#Commerce on behalf of the United States.  All rights reserved.
_database_code_ICSD                600292
_audit_creation_date               2011/02/01
_chemical_name_systematic
;
Potassium Iron(III) Sulfide (1/1/2)
;
_chemical_formula_structural       'K Fe S2'
_chemical_formula_sum              'Fe1 K1 S2'
_publ_section_title
;
Cristallochimie: Ln B N2 (Ln = Nd, Sm): premier exemple de nitrure 
double associant le bore et un element des lanthani
;
loop_
_citation_id
_citation_journal_abbrev
_citation_year
_citation_journal_volume
_citation_page_first
_citation_page_last
_citation_journal_id_ASTM
primary
;
Comptes Rendus Hebdomadaires des Seances de l`Academie des Sciences, 
Serie 2 (-1983)
;
 1983 297 717 719 CRSUDO
_publ_author_name                  'Gaude, J.'
_cell_length_a                     7.05
_cell_length_b                     11.28
_cell_length_c                     5.4
_cell_angle_alpha                  90.0
_cell_angle_beta                   112.83
_cell_angle_gamma                  90.0
_cell_volume                       395.79
_cell_formula_units_Z              4
_symmetry_space_group_name_H-M     'C 1 2/c 1'
_symmetry_Int_Tables_number        15
loop_
_symmetry_equiv_pos_site_id
_symmetry_equiv_pos_as_xyz
  1	'x, -y, z+.5'
  2	'-x, -y, -z'
  3	'-x, y, -z+.5'
  4	'x, y, z'
  5	'x+.5, -y+.5, z+.5'
  6	'-x+.5, -y+.5, -z'
  7	'-x+.5, y+.5, -z+.5'
  8	'x+.5, y+.5, z'
loop_
_atom_type_symbol
_atom_type_oxidation_number
Fe3+	3
K1+	1
S2-	-2
loop_
_atom_site_label
_atom_site_type_symbol
_atom_site_symmetry_multiplicity
_atom_site_Wyckoff_symbol
_atom_site_fract_x
_atom_site_fract_y
_atom_site_fract_z
_atom_site_occupancy
_atom_site_attached_hydrogens
K1 K1+ 4 e 0 0.143 0.25 1. 0 
Fe1 Fe3+ 4 e 0 0.503 0.25 1. 0 
S1 S2- 8 f 0.196 0.390 0.107 1. 0 

#End of data_600292-ICSD


