data_12166-ICSD
#?2014 by Fachinformationszentrum Karlsruhe, and the U.S. Secretary of 
#Commerce on behalf of the United States.  All rights reserved.
_database_code_ICSD                12166
_audit_creation_date               1980/01/01
_audit_update_record               1999/11/30
_chemical_name_systematic
;
Dipotassium Octacyanatotrimercurate
;
_chemical_formula_structural       'K2 Hg3 (N C O)8'
_chemical_formula_sum              'C8 Hg3 K2 N8 O8'
_publ_section_title
;
Ueber Cyanatomercurate M2 Hg3 (N C O)8 (M=K, Rb, Cs): Synthesen, 
Kristallstrukturen und Schwingungsspektren
;
loop_
_citation_id
_citation_journal_abbrev
_citation_year
_citation_journal_volume
_citation_page_first
_citation_page_last
_citation_journal_id_ASTM
primary
;
Zeitschrift fuer Naturforschung, Teil B. Anorganische Chemie, 
Organische Chemie (33,1978-41,1986)
;
 1978 33 597 602 ZNBAD2
_publ_author_name                  'Thiele, G.;Hilfrich, P.'
_cell_length_a                     10.832(5)
_cell_length_b                     10.528(5)
_cell_length_c                     3.954(3)
_cell_angle_alpha                  85.5(3)
_cell_angle_beta                   85.6(3)
_cell_angle_gamma                  92.1(3)
_cell_volume                       447.78
_cell_formula_units_Z              1
_symmetry_space_group_name_H-M     'P -1'
_symmetry_Int_Tables_number        2
_refine_ls_R_factor_all            .126
loop_
_symmetry_equiv_pos_site_id
_symmetry_equiv_pos_as_xyz
  1	'-x, -y, -z'
  2	'x, y, z'
loop_
_atom_type_symbol
_atom_type_oxidation_number
C4+	4
Hg2+	2
K1+	1
N3-	-3
O2-	-2
loop_
_atom_site_label
_atom_site_type_symbol
_atom_site_symmetry_multiplicity
_atom_site_Wyckoff_symbol
_atom_site_fract_x
_atom_site_fract_y
_atom_site_fract_z
_atom_site_occupancy
_atom_site_attached_hydrogens
Hg1 Hg2+ 1 a 0 0 0 1. 0 
Hg2 Hg2+ 2 i 0.3932(1) 0.1156(1) 0.2748(2) 1. 0 
K1 K1+ 2 i 0.2078(6) 0.5095(6) 0.212(1) 1. 0 
N1 N3- 2 i 0.403(2) 0.924(2) 0.290(6) 1. 0 
C1 C4+ 2 i 0.317(3) 0.845(3) 0.214(7) 1. 0 
O1 O2- 2 i 0.251(3) 0.772(2) 0.156(5) 1. 0 
N2 N3- 2 i 0.430(2) 0.308(2) 0.226(6) 1. 0 
C2 C4+ 2 i 0.522(3) 0.360(3) 0.299(7) 1. 0 
O2 O2- 2 i 0.610(2) 0.410(2) 0.370(6) 1. 0 
N3 N3- 2 i 0.762(2) 0.876(2) 0.194(7) 1. 0 
C3 C4+ 2 i 0.801(3) 0.768(3) 0.194(7) 1. 0 
O3 O2- 2 i 0.836(2) 0.664(2) 0.238(5) 1. 0 
N4 N3- 2 i 0.969(2) 0.140(2) 0.317(7) 1. 0 
C4 C4+ 2 i 0.951(3) 0.248(3) 0.288(8) 1. 0 
O4 O2- 2 i 0.930(2) 0.358(2) 0.289(5) 1. 0 

#End of data_12166-ICSD


