data_65416-ICSD
#?2014 by Fachinformationszentrum Karlsruhe, and the U.S. Secretary of 
#Commerce on behalf of the United States.  All rights reserved.
_database_code_ICSD                65416
_audit_creation_date               1989/12/04
_audit_update_record               2005/10/01
_chemical_name_systematic
;
Dipotassium Tricopper Dioxoarsenate(III)-mue-oxo-trioxoarsenate(V)
;
_chemical_formula_structural       'K2 Cu3 (O2 As O As O3)2'
_chemical_formula_sum              'As4 Cu3 K2 O12'
_publ_section_title
;
(As(V) As(III) O6)(4-): An uncommon anion group in the crystal 
structure of K2 Cu3 (As2 O6)2
;
loop_
_citation_id
_citation_journal_abbrev
_citation_year
_citation_journal_volume
_citation_page_first
_citation_page_last
_citation_journal_id_ASTM
primary 'Journal of Solid State Chemistry' 1987 70 219 224 JSSCBI
_publ_author_name                  'Effenberger, H.;Pertlik, F.'
_cell_length_a                     10.359(4)
_cell_length_b                     5.388(2)
_cell_length_c                     11.234(4)
_cell_angle_alpha                  90.
_cell_angle_beta                   110.48(2)
_cell_angle_gamma                  90.
_cell_volume                       587.39
_cell_formula_units_Z              2
_symmetry_space_group_name_H-M     'C 1 2/m 1'
_symmetry_Int_Tables_number        12
_refine_ls_R_factor_all            .029
loop_
_symmetry_equiv_pos_site_id
_symmetry_equiv_pos_as_xyz
  1	'-x, y, -z'
  2	'-x, -y, -z'
  3	'x, -y, z'
  4	'x, y, z'
  5	'-x+.5, y+.5, -z'
  6	'-x+.5, -y+.5, -z'
  7	'x+.5, -y+.5, z'
  8	'x+.5, y+.5, z'
loop_
_atom_type_symbol
_atom_type_oxidation_number
As3+	3
As5+	5
Cu2+	2
K1+	1
O2-	-2
loop_
_atom_site_label
_atom_site_type_symbol
_atom_site_symmetry_multiplicity
_atom_site_Wyckoff_symbol
_atom_site_fract_x
_atom_site_fract_y
_atom_site_fract_z
_atom_site_occupancy
_atom_site_attached_hydrogens
K1 K1+ 4 i 0.63843(9) 0 0.42405(10) 1. 0 
Cu1 Cu2+ 2 a 0 0 0 1. 0 
Cu2 Cu2+ 4 i 0.23475(4) 0 0.24068(5) 1. 0 
As1 As5+ 4 i 0.91910(3) 0 0.30660(4) 1. 0 
As2 As3+ 4 i 0.67330(4) 0 0.04389(4) 1. 0 
O1 O2- 4 i 0.8577(3) 0 0.1404(3) 1. 0 
O2 O2- 4 i 1.0894(2) 0 0.3545(3) 1. 0 
O3 O2- 8 j 0.8556(2) 0.2536(5) 0.3529(2) 1. 0 
O4 O2- 8 j 0.6221(2) 0.2548(4) 0.1156(2) 1. 0 

loop_
_atom_site_aniso_label
_atom_site_aniso_type_symbol
_atom_site_aniso_U_11
_atom_site_aniso_U_22
_atom_site_aniso_U_33
_atom_site_aniso_U_12
_atom_site_aniso_U_13
_atom_site_aniso_U_23
K1 K1+ 0.0217(4) 0.0147(4) 0.0269(5) 0 0.0094(4) 0
Cu1 Cu2+ 0.0092(2) 0.0072(3) 0.0177(3) 0 0.0002(2) 0
Cu2 Cu2+ 0.0106(2) 0.0084(2) 0.0134(2) 0 0.0008(2) 0
As1 As5+ 0.0084(1) 0.0081(2) 0.0130(2) 0 0.0022(1) 0
As2 As3+ 0.0102(1) 0.0089(2) 0.0131(2) 0 0.0024(1) 0
O1 O2- 0.010(1) 0.019(1) 0.016(1) 0 0.004(1) 0
O2 O2- 0.008(1) 0.021(2) 0.018(1) 0 0.004(1) 0
O3 O2- 0.019(1) 0.013(1) 0.015(1) 0.006(1) 0.001(1) 0.000(1)
O4 O2- 0.013(1) 0.010(1) 0.014(1) 0.001(1) 0.001(1) -.002(1)
#End of data_65416-ICSD


