data_170824-ICSD
#?2014 by Fachinformationszentrum Karlsruhe, and the U.S. Secretary of 
#Commerce on behalf of the United States.  All rights reserved.
_database_code_ICSD                170824
_audit_creation_date               2006/04/01
_chemical_name_systematic          'Calcium Copper Germanate'
_chemical_formula_structural       'Ca Cu Ge2 O6'
_chemical_formula_sum              'Ca1 Cu1 Ge2 O6'
_chemical_name_mineral             Clinopyroxene
_publ_section_title
;
Crystal structure of the clinopyroxene-type compound Ca Cu Ge2 O6 
between 15 K and 700 K
;
loop_
_citation_id
_citation_journal_abbrev
_citation_year
_citation_journal_volume
_citation_page_first
_citation_page_last
_citation_journal_id_ASTM
primary 'Acta Crystallographica, Section B: Structural Science'
 2005 61 367 380 ASBSDK
_publ_author_name
;
Redhammer, G.J.;Tippelt, G.;Merz, M.;Roth, G.;Treutmann, W.;Amthauer, 
G.
;
_cell_length_a                     10.2448(12)
_cell_length_b                     9.1898(9)
_cell_length_c                     5.4023(7)
_cell_angle_alpha                  90
_cell_angle_beta                   107.090(14)
_cell_angle_gamma                  90
_cell_volume                       486.16
_cell_formula_units_Z              4
_symmetry_space_group_name_H-M     'C 1 2/c 1'
_symmetry_Int_Tables_number        15
_refine_ls_R_factor_all            .031
loop_
_symmetry_equiv_pos_site_id
_symmetry_equiv_pos_as_xyz
  1	'x, -y, z+.5'
  2	'-x, -y, -z'
  3	'-x, y, -z+.5'
  4	'x, y, z'
  5	'x+.5, -y+.5, z+.5'
  6	'-x+.5, -y+.5, -z'
  7	'-x+.5, y+.5, -z+.5'
  8	'x+.5, y+.5, z'
loop_
_atom_type_symbol
_atom_type_oxidation_number
Ca2+	2
Cu2+	2
Ge4+	4
O2-	-2
loop_
_atom_site_label
_atom_site_type_symbol
_atom_site_symmetry_multiplicity
_atom_site_Wyckoff_symbol
_atom_site_fract_x
_atom_site_fract_y
_atom_site_fract_z
_atom_site_occupancy
_atom_site_attached_hydrogens
_atom_site_U_iso_or_equiv
Ca1 Ca2+ 4 e 0 0.3008(2) 0.25 1 0 0.0243(4) 
Cu1 Cu2+ 4 e 0 0.90668(13) 0.25 1 0 0.0180(3) 
Ge1 Ge4+ 8 f 0.28310(6) 0.09739(6) 0.21290(12) 1 0 0.0154(2) 
O1 O2- 8 f 0.1062(4) 0.0921(6) 0.1196(3) 1 0 0.0223(9) 
O2 O2- 8 f 0.3591(4) 0.2581(4) 0.3332(10) 1 0 0.0342(12) 
O3 O2- 8 f 0.3563(4) 0.0253(5) -0.0207(9) 1 0 0.0232(10) 

loop_
_atom_site_aniso_label
_atom_site_aniso_type_symbol
_atom_site_aniso_U_11
_atom_site_aniso_U_22
_atom_site_aniso_U_33
_atom_site_aniso_U_12
_atom_site_aniso_U_13
_atom_site_aniso_U_23
Ca1 Ca2+ 0.0292(9) 0.0212(9) 0.0201(10) 0 0.0037(8) 0
Cu1 Cu2+ 0.0171(4) 0.0220(5) 0.0128(5) 0 0.0012(4) 0
Ge1 Ge4+ 0.0126(3) 0.0196(3) 0.0136(3) 0.0003(3) 0.0030(2) -0.0019(3)
O1 O2- 0.0115(17) 0.037(2) 0.016(2) 0.0088(19) 0.0007(16) -0.001(2)
O2 O2- 0.041(3) 0.025(2) 0.034(3) -0.004(2) 0.006(2) -0.005(2)
O3 O2- 0.019(2) 0.034(3) 0.016(2) -0.0032(18) 0.0044(18) -0.0079(19)
#End of data_170824-ICSD


