data_190876-ICSD
#?2014 by Fachinformationszentrum Karlsruhe, and the U.S. Secretary of 
#Commerce on behalf of the United States.  All rights reserved.
_database_code_ICSD                190876
_audit_creation_date               2014/08/01
_chemical_name_systematic          'Dibarium Zinc Divanadate'
_chemical_formula_structural       'Ba2 Zn (V O4)2'
_chemical_formula_sum              'Ba2 O8 V2 Zn1'
_publ_section_title
;
Subsolidus phase relations in the Zn O - Ba O - V2 O5 system
;
loop_
_citation_id
_citation_journal_abbrev
_citation_year
_citation_journal_volume
_citation_journal_issue
_citation_page_first
_citation_page_last
_citation_journal_id_ASTM
primary 'Chinese Journal Struct. Chem.' 2013 32 1 106 112 CJSCBE
2 'Journal of Solid State Chemistry' 2004 177- 3927 3933 JSSCBI
_publ_author_name
;
Zheng, Meng;Lv, Pei-wen;Chen, Da-gui;Yan, Feng-bo;Huang, Feng
;
_cell_length_a                     7.9165
_cell_length_b                     16.1742
_cell_length_c                     6.1626
_cell_angle_alpha                  90.
_cell_angle_beta                   90.4973
_cell_angle_gamma                  90.
_cell_volume                       789.05
_cell_formula_units_Z              4
_symmetry_space_group_name_H-M     'P 1 21/c 1'
_symmetry_Int_Tables_number        14
_refine_ls_R_factor_all            .0585
loop_
_symmetry_equiv_pos_site_id
_symmetry_equiv_pos_as_xyz
  1	'x, -y+.5, z+.5'
  2	'-x, -y, -z'
  3	'-x, y+.5, -z+.5'
  4	'x, y, z'
loop_
_atom_type_symbol
_atom_type_oxidation_number
Ba2+	2
O2-	-2
V5+	5
Zn2+	2
loop_
_atom_site_label
_atom_site_type_symbol
_atom_site_symmetry_multiplicity
_atom_site_Wyckoff_symbol
_atom_site_fract_x
_atom_site_fract_y
_atom_site_fract_z
_atom_site_occupancy
_atom_site_attached_hydrogens
Ba1 Ba2+ 4 e 0.6385(3) 0.0436(2) 0.2362(2) 1 0 
Ba2 Ba2+ 4 e 0.1430(2) 0.1278(9) 0.2813(7) 1 0 
Zn1 Zn2+ 4 e 0.7225(1) 0.2481(0) -0.0112(7) 1 0 
V1 V5+ 4 e 0.8801(8) 0.0873(8) 0.7565(6) 1 0 
V2 V5+ 4 e 0.5924(4) 0.8307(6) 0.2464(8) 1 0 
O1 O2- 4 e 0.5698(2) 0.2683(3) 0.2621(6) 1 0 
O2 O2- 4 e 0.8247(4) 0.1578(5) 0.5177(2) 1 0 
O3 O2- 4 e 0.9865(4) 0.9637(8) 0.2781(2) 1 0 
O4 O2- 4 e 0.6102(9) 0.8855(8) 0.0793(5) 1 0 
O5 O2- 4 e 0.2685(7) 0.2873(2) 0.2096(4) 1 0 
O6 O2- 4 e 0.2684(9) 0.9686(1) 0.2145(6) 1 0 
O7 O2- 4 e 0.8674(6) 0.1481(0) 0.9440(3) 1 0 
O8 O2- 4 e 0.5001(1) 0.9087(4) 0.5239(3) 1 0 

#End of data_190876-ICSD


