data_407061-ICSD
#?2014 by Fachinformationszentrum Karlsruhe, and the U.S. Secretary of 
#Commerce on behalf of the United States.  All rights reserved.
_database_code_ICSD                407061
_audit_creation_date               1998/06/26
_audit_update_record               2013/02/01
_chemical_name_systematic
;
Barium Dysprosium Zinc Platinum Oxide (17/6/8/4/57)
;
_chemical_formula_structural       'Ba17 Dy16 Zn8 Pt4 O57'
_chemical_formula_sum              'Ba17 Dy16 O57 Pt4 Zn8'
_publ_section_title
;
Weitere Verbindungen des Ba17 Ln16 Zn8 Pt4 O57-Typs mit Ln= Dy, Ho, 
Er, Y
;
loop_
_citation_id
_citation_journal_abbrev
_citation_year
_citation_journal_volume
_citation_page_first
_citation_page_last
_citation_journal_id_ASTM
primary 'Zeitschrift fuer Naturforschung, B: Chemical Sciences'
 1997 52 1067 1071 ZNBSEN
_publ_author_name                  'Sfreddo, O.;Mueller Buschbaum, H.'
_cell_length_a                     22.905(1)
_cell_length_b                     22.905(1)
_cell_length_c                     5.728(1)
_cell_angle_alpha                  90.
_cell_angle_beta                   90.
_cell_angle_gamma                  90.
_cell_volume                       3005.13
_cell_formula_units_Z              2
_symmetry_space_group_name_H-M     'I 4/m'
_symmetry_Int_Tables_number        87
_refine_ls_R_factor_all            .073
loop_
_symmetry_equiv_pos_site_id
_symmetry_equiv_pos_as_xyz
  1	'-y, x, -z'
  2	'y, -x, -z'
  3	'x, y, -z'
  4	'-x, -y, -z'
  5	'y, -x, z'
  6	'-y, x, z'
  7	'-x, -y, z'
  8	'x, y, z'
  9	'-y+.5, x+.5, -z+.5'
 10	'y+.5, -x+.5, -z+.5'
 11	'x+.5, y+.5, -z+.5'
 12	'-x+.5, -y+.5, -z+.5'
 13	'y+.5, -x+.5, z+.5'
 14	'-y+.5, x+.5, z+.5'
 15	'-x+.5, -y+.5, z+.5'
 16	'x+.5, y+.5, z+.5'
loop_
_atom_type_symbol
_atom_type_oxidation_number
Ba2+	2
Dy3+	3
O2-	-2
Pt4+	4
Zn2+	2
loop_
_atom_site_label
_atom_site_type_symbol
_atom_site_symmetry_multiplicity
_atom_site_Wyckoff_symbol
_atom_site_fract_x
_atom_site_fract_y
_atom_site_fract_z
_atom_site_occupancy
_atom_site_attached_hydrogens
Pt1 Pt4+ 8 h 0.35607(5) 0.08318(5) 0.5 1. 0 
Dy1 Dy3+ 8 h 0.39985(6) 0.48787(6) 0 1. 0 
Dy2 Dy3+ 8 h 0.24999(6) 0.00678(6) 0.5 1. 0 
Dy3 Dy3+ 8 h 0.44705(6) 0.32743(6) 0.5 1. 0 
Dy4 Dy3+ 8 h 0.45043(6) 0.17345(7) 0.5 1. 0 
Ba1 Ba2+ 2 a 0 0 0 1. 0 
Ba2 Ba2+ 8 h 0.38761(9) -.22395(8) 0.5 1. 0 
Ba3 Ba2+ 8 h 0.34148(8) 0.34962(9) 0 1. 0 
Ba4 Ba2+ 8 h 0.18939(9) 0.26805(8) 0 1. 0 
Ba5 Ba2+ 8 h 0.44140(9) 0.06703(8) 0 1. 0 
Zn1 Zn2+ 8 h 0.28870(15) -.1214(2) -.5 1. 0 
Zn2 Zn2+ 8 h 0.3659(2) 0.4236(2) 0.5 1. 0 
O1 O2- 2 b 0 0 0.5 1. 0 
O2 O2- 8 h 0.4452(9) 0.0664(9) 0.5 1. 0 
O3 O2- 8 h 0.3396(9) 0.3408(9) 0.5 1. 0 
O4 O2- 8 h 0.2684(8) 0.1094(9) 0.5 1. 0 
O5 O2- 8 h 0.2606(9) -.2009(8) -.5 1. 0 
O6 O2- 16 i 0.3234(7) 0.4703(6) 0.2532(33) 1. 0 
O7 O2- 16 i 0.3757(6) 0.1419(6) 0.7494(29) 1. 0 
O8 O2- 16 i 0.3347(6) 0.0219(6) 0.7443(27) 1. 0 
O9 O2- 16 i 0.2483(6) -.0728(6) -.2564(36) 1. 0 
O10 O2- 16 i 0.4336(7) 0.4112(7) 0.2514(35) 1. 0 

loop_
_atom_site_aniso_label
_atom_site_aniso_type_symbol
_atom_site_aniso_U_11
_atom_site_aniso_U_22
_atom_site_aniso_U_33
_atom_site_aniso_U_12
_atom_site_aniso_U_13
_atom_site_aniso_U_23
Pt1 Pt4+ 0.0041(5) 0.0028(5) 0.0058(6) -.0007(4) 0 0
Dy1 Dy3+ 0.0026(6) 0.0050(6) 0.0065(7) -.0003(5) 0 0
Dy2 Dy3+ 0.0043(6) 0.0042(6) 0.0069(7) 0.0001(5) 0 0
Dy3 Dy3+ 0.0061(6) 0.0039(6) 0.0067(7) 0.0006(5) 0 0
Dy4 Dy3+ 0.0050(6) 0.0053(6) 0.0052(7) 0.0002(5) 0 0
Ba1 Ba2+ 0.0052(9) 0.0052(9) 0.010(2) 0 0 0
Ba2 Ba2+ 0.0093(8) 0.0068(8) 0.0068(9) -.0020(7) 0 0
Ba3 Ba2+ 0.0076(9) 0.0063(8) 0.012(1) -.0011(7) 0 0
Ba4 Ba2+ 0.0075(8) 0.0058(8) 0.0090(8) 0.0011(8) 0 0
Ba5 Ba2+ 0.0103(9) 0.0060(8) 0.0086(9) -.0001(7) 0 0
Zn1 Zn2+ 0.002(2) 0.009(2) 0.006(2) -.0010(13) 0 0
Zn2 Zn2+ 0.007(2) 0.007(2) 0.006(2) 0.0030(14) 0 0
O1 O2- 0.002(12) 0.002(12) 0.063(44) 0 0 0
O2 O2- 0.004(9) 0.012(10) 0.002(9) 0.006(8) 0 0
O3 O2- 0.004(9) 0.004(9) 0.035(16) 0.003(8) 0 0
O4 O2- 0.004(8) 0.003(8) 0.037(16) -.003(7) 0 0
O5 O2- 0.003(8) 0.003(8) 0.008(9) 0.002(6) 0 0
O6 O2- 0.026(9) 0.007(7) 0.005(8) -.009(7) 0.005(7) 0.005(7)
O7 O2- 0.003(6) 0.016(7) 0.014(8) -.006(6) 0.006(6) -.014(6)
O8 O2- 0.014(7) 0.003(5) 0.006(7) -.005(6) -.004(6) -.004(5)
O9 O2- 0.003(6) 0.005(7) 0.039(11) 0.002(5) 0.010(7) 0.012(7)
O10 O2- 0.016(8) 0.017(8) 0.027(11) -.003(7) -.002(8) -.020(8)
#End of data_407061-ICSD


