data_152115-ICSD
#?2014 by Fachinformationszentrum Karlsruhe, and the U.S. Secretary of 
#Commerce on behalf of the United States.  All rights reserved.
_database_code_ICSD                152115
_audit_creation_date               2006/10/01
_chemical_name_systematic
;
Calcium Tetramolybdo(III)molybdate(II)
;
_chemical_formula_structural       'Ca (Mo5 O8)'
_chemical_formula_sum              'Ca1 Mo5 O8'
_publ_section_title
;
Zum System Ca/Mo/O: Phasendiagramm, Synthese und Charakterisierung 
der ternaeren Verbindungen
;
loop_
_citation_id
_citation_journal_abbrev
_citation_year
_citation_journal_volume
_citation_page_first
_citation_page_last
_citation_journal_id_ASTM
primary 'Zeitschrift fuer Naturforschung, B: Chemical Sciences'
 1997 52 1169 1174 ZNBSEN
_publ_author_name                  'Steiner, U.;Reichelt, W.'
_cell_length_a                     7.5494(2)
_cell_length_b                     9.0641(3)
_cell_length_c                     9.9742(3)
_cell_angle_alpha                  90.
_cell_angle_beta                   110.037(2)
_cell_angle_gamma                  90.
_cell_volume                       641.21
_cell_formula_units_Z              4
_symmetry_space_group_name_H-M     'P 1 21/c 1'
_symmetry_Int_Tables_number        14
_refine_ls_R_factor_all            .036
loop_
_symmetry_equiv_pos_site_id
_symmetry_equiv_pos_as_xyz
  1	'x, -y+.5, z+.5'
  2	'-x, -y, -z'
  3	'-x, y+.5, -z+.5'
  4	'x, y, z'
loop_
_atom_type_symbol
_atom_type_oxidation_number
Ca2+	2
Mo2.8+	2.8
O2-	-2
loop_
_atom_site_label
_atom_site_type_symbol
_atom_site_symmetry_multiplicity
_atom_site_Wyckoff_symbol
_atom_site_fract_x
_atom_site_fract_y
_atom_site_fract_z
_atom_site_occupancy
_atom_site_attached_hydrogens
_atom_site_B_iso_or_equiv
Ca1 Ca2+ 4 e 0.2735(15) 0.5126(14) 0.5386(12) 1. 0 0.48(8) 
Mo1 Mo2.8+ 4 e 0.6097(9) -0.1195(7) 0.4843(7) 1. 0 0.48(8) 
Mo2 Mo2.8+ 4 e 0.3848(8) -0.1173(7) 0.6830(7) 1. 0 0.48(8) 
Mo3 Mo2.8+ 4 e 0.1761(8) -0.1294(7) 0.3808(6) 1. 0 0.48(8) 
Mo4 Mo2.8+ 4 e 0.8122(7) -0.1224(8) 0.3011(6) 1. 0 0.48(8) 
Mo5 Mo2.8+ 4 e 0.0019(7) -0.1275(6) 0.5848(6) 1. 0 0.48(8) 
O1 O2- 4 e 0.401(4) 0.033(3) 0.842(3) 1. 0 0.48(8) 
O2 O2- 4 e 0.027(4) -0.222(3) 0.968(4) 1. 0 0.48(8) 
O3 O2- 4 e -0.008(4) 0.012(3) 0.230(3) 1. 0 0.48(8) 
O4 O2- 4 e 0.395(6) -0.249(3) 0.025(6) 1. 0 0.48(8) 
O5 O2- 4 e 0.816(5) -0.220(3) 0.123(5) 1. 0 0.48(8) 
O6 O2- 4 e 0.185(5) -0.282(3) 0.184(4) 1. 0 0.48(8) 
O7 O2- 4 e 0.577(5) -0.218(3) 0.837(4) 1. 0 0.48(8) 
O8 O2- 4 e 0.371(5) -0.012(4) 0.324(4) 1. 0 0.48(8) 

#End of data_152115-ICSD


