data_247313-ICSD
#?2014 by Fachinformationszentrum Karlsruhe, and the U.S. Secretary of 
#Commerce on behalf of the United States.  All rights reserved.
_database_code_ICSD                247313
_audit_creation_date               2011/02/01
_audit_update_record               2013/02/01
_chemical_name_systematic          'Sodium Niobate(V)'
_chemical_formula_structural       'Na (Nb O3)'
_chemical_formula_sum              'Na1 Nb1 O3'
_publ_section_title
;
The polar phase of Na Nb O3: A combined study by powder diffraction, 
solid-state NMR, and first-principles calculations
;
loop_
_citation_id
_citation_journal_abbrev
_citation_year
_citation_journal_volume
_citation_journal_issue
_citation_page_first
_citation_page_last
_citation_journal_id_ASTM
primary 'Journal of the American Chemical Society' 2010 132 25 8732 8746 JACSAT
_publ_author_name
;
Johnston, K.E.;Tang, C.C.;Parker, J.E.;Knight, K.S.;Lightfoot, 
P.;Ashbrook, S.E.
;
_cell_length_a                     5.571(1)
_cell_length_b                     7.766(1)
_cell_length_c                     5.514(1)
_cell_angle_alpha                  90.
_cell_angle_beta                   90.
_cell_angle_gamma                  90.
_cell_volume                       238.56
_cell_formula_units_Z              4
_symmetry_space_group_name_H-M     'P n m a'
_symmetry_Int_Tables_number        62
_refine_ls_R_factor_all            .062
loop_
_symmetry_equiv_pos_site_id
_symmetry_equiv_pos_as_xyz
  1	'x+.5, y, -z+.5'
  2	'x, -y+.5, z'
  3	'-x+.5, y+.5, z+.5'
  4	'-x, -y, -z'
  5	'-x+.5, -y, z+.5'
  6	'-x, y+.5, -z'
  7	'x+.5, -y+.5, -z+.5'
  8	'x, y, z'
loop_
_atom_type_symbol
_atom_type_oxidation_number
Na1+	1
Nb5+	5
O2-	-2
loop_
_atom_site_label
_atom_site_type_symbol
_atom_site_symmetry_multiplicity
_atom_site_Wyckoff_symbol
_atom_site_fract_x
_atom_site_fract_y
_atom_site_fract_z
_atom_site_occupancy
_atom_site_attached_hydrogens
Nb1 Nb5+ 4 a 0 0 0 1. 0 
Na1 Na1+ 4 c 0.4973(9) 0.25 0.0025(7) 1. 0 
O1 O2- 4 c 0.5091(5) 0.25 0.5600(3) 1. 0 
O2 O2- 8 d 0.2172(2) 0.0301(1) 0.2838(2) 1. 0 

loop_
_atom_site_aniso_label
_atom_site_aniso_type_symbol
_atom_site_aniso_U_11
_atom_site_aniso_U_22
_atom_site_aniso_U_33
_atom_site_aniso_U_12
_atom_site_aniso_U_13
_atom_site_aniso_U_23
Nb1 Nb5+ 0.0090(5) 0.0039(6) 0.0048(6)   
Na1 Na1+ 0.0294(11) 0.0102(9) 0.0212(12)   
O1 O2- 0.0260(9) 0.0011(6) 0.0098(7)   
O2 O2- 0.0272(7) 0.0093(6) 0.0218(7)   
#End of data_247313-ICSD


