data_73082-ICSD
#?2014 by Fachinformationszentrum Karlsruhe, and the U.S. Secretary of 
#Commerce on behalf of the United States.  All rights reserved.
_database_code_ICSD                73082
_audit_creation_date               1994/06/30
_audit_update_record               2000/07/15
_chemical_name_systematic
;
Calcium Dibarium Tripalladium Oxide
;
_chemical_formula_structural       'Ca Ba2 Pd3 O6'
_chemical_formula_sum              'Ba2 Ca1 O6 Pd3'
_publ_section_title
;
Zur Kenntnis eines Erdalkalimetall-Oxopalladats(II) mit ringfoermigen 
Pd6 O12-Baugruppen: Ca Ba2 Pd3 O6
;
loop_
_citation_id
_citation_journal_abbrev
_citation_year
_citation_journal_volume
_citation_page_first
_citation_page_last
_citation_journal_id_ASTM
primary 'Zeitschrift fuer Anorganische und Allgemeine Chemie (1950) (DE)'
 1993 619 1004 1006 ZAACAB
_publ_author_name                  'Sonne, P.;Mueller Buschbaum, H.'
_cell_length_a                     8.717(2)
_cell_length_b                     11.47(3)
_cell_length_c                     14.933(7)
_cell_angle_alpha                  90.
_cell_angle_beta                   90.
_cell_angle_gamma                  90.
_cell_volume                       1493.06
_cell_formula_units_Z              8
_symmetry_space_group_name_H-M     'F m m m'
_symmetry_Int_Tables_number        69
_refine_ls_R_factor_all            .078
loop_
_symmetry_equiv_pos_site_id
_symmetry_equiv_pos_as_xyz
  1	'x, y, -z'
  2	'x, -y, z'
  3	'-x, y, z'
  4	'-x, -y, -z'
  5	'-x, -y, z'
  6	'-x, y, -z'
  7	'x, -y, -z'
  8	'x, y, z'
  9	'x, y+.5, -z+.5'
 10	'x+.5, y, -z+.5'
 11	'x+.5, y+.5, -z'
 12	'x, -y+.5, z+.5'
 13	'x+.5, -y, z+.5'
 14	'x+.5, -y+.5, z'
 15	'-x, y+.5, z+.5'
 16	'-x+.5, y, z+.5'
 17	'-x+.5, y+.5, z'
 18	'-x, -y+.5, -z+.5'
 19	'-x+.5, -y, -z+.5'
 20	'-x+.5, -y+.5, -z'
 21	'-x, -y+.5, z+.5'
 22	'-x+.5, -y, z+.5'
 23	'-x+.5, -y+.5, z'
 24	'-x, y+.5, -z+.5'
 25	'-x+.5, y, -z+.5'
 26	'-x+.5, y+.5, -z'
 27	'x, -y+.5, -z+.5'
 28	'x+.5, -y, -z+.5'
 29	'x+.5, -y+.5, -z'
 30	'x, y+.5, z+.5'
 31	'x+.5, y, z+.5'
 32	'x+.5, y+.5, z'
loop_
_atom_type_symbol
_atom_type_oxidation_number
Ba2+	2
Ca2+	2
O2-	-2
Pd2+	2
loop_
_atom_site_label
_atom_site_type_symbol
_atom_site_symmetry_multiplicity
_atom_site_Wyckoff_symbol
_atom_site_fract_x
_atom_site_fract_y
_atom_site_fract_z
_atom_site_occupancy
_atom_site_attached_hydrogens
_atom_site_B_iso_or_equiv
Ba1 Ba2+ 8 h 0 0.2304(3) 0 1. 0 1.72(5) 
Ba2 Ba2+ 8 f 0.25 0.25 0.25 1. 0 0.74(3) 
Pd1 Pd2+ 8 g 0.6769(4) 0 0 1. 0 0.81(5) 
Pd2 Pd2+ 16 n 0.3424(3) 0 0.3485(1) 1. 0 0.73(3) 
Ca1 Ca2+ 8 i 0 0 0.3288(6) 1. 0 0.9(1) 
O1 O2- 16 m 0 0.116(2) 0.197(1) 1. 0 1.5(3) 
O2 O2- 32 p 0.187(2) 0.882(1) 0.3998(7) 1. 0 0.8(2) 

#End of data_73082-ICSD


