data_74846-ICSD
#?2014 by Fachinformationszentrum Karlsruhe, and the U.S. Secretary of 
#Commerce on behalf of the United States.  All rights reserved.
_database_code_ICSD                74846
_audit_creation_date               1995/10/17
_audit_update_record               2012/02/01
_chemical_name_systematic
;
Dipotassium Manganese Hexathiodiphosphate(IV)
;
_chemical_formula_structural       'K2 Mn (P2 S6)'
_chemical_formula_sum              'K2 Mn1 P2 S6'
_publ_section_title
;
Crystal structure and vibrational spectrum of dipotassium 
manganese(II) hexathiodiphosphate(IV), K2 Mn (P2 S6)
;
loop_
_citation_id
_citation_journal_abbrev
_citation_year
_citation_journal_volume
_citation_page_first
_citation_page_last
_citation_journal_id_ASTM
primary 'Zeitschrift fuer Anorganische und Allgemeine Chemie (1950) (DE)'
 1994 620 1081 1086 ZAACAB
_publ_author_name
;
Menzel, F.;Brockner, W.;Carrillo Cabrera, W.;von Schnering, H.G.
;
_cell_length_a                     6.1966(9)
_cell_length_b                     12.133(2)
_cell_length_c                     7.424(1)
_cell_angle_alpha                  90.
_cell_angle_beta                   101.52(1)
_cell_angle_gamma                  90.
_cell_volume                       546.92
_cell_formula_units_Z              2
_symmetry_space_group_name_H-M     'P 1 21/n 1'
_symmetry_Int_Tables_number        14
_refine_ls_R_factor_all            .047
loop_
_symmetry_equiv_pos_site_id
_symmetry_equiv_pos_as_xyz
  1	'-x+.5, y+.5, -z+.5'
  2	'-x, -y, -z'
  3	'x+.5, -y+.5, z+.5'
  4	'x, y, z'
loop_
_atom_type_symbol
_atom_type_oxidation_number
K1+	1
Mn2+	2
P4+	4
S2-	-2
loop_
_atom_site_label
_atom_site_type_symbol
_atom_site_symmetry_multiplicity
_atom_site_Wyckoff_symbol
_atom_site_fract_x
_atom_site_fract_y
_atom_site_fract_z
_atom_site_occupancy
_atom_site_attached_hydrogens
K1 K1+ 4 e 0.2201(2) 0.31892(9) 0.5293(2) 1. 0 
Mn1 Mn2+ 2 c 0 0.5 0 1. 0 
P1 P4+ 4 e 0.5171(1) 0.53711(8) 0.8676(1) 1. 0 
S1 S2- 4 e 0.2034(1) 0.5686(1) 0.7432(1) 1. 0 
S2 S2- 4 e 0.3223(1) 0.57637(9) 0.2550(1) 1. 0 
S3 S2- 4 e 0.2850(2) 0.33085(8) 0.0650(2) 1. 0 

loop_
_atom_site_aniso_label
_atom_site_aniso_type_symbol
_atom_site_aniso_U_11
_atom_site_aniso_U_22
_atom_site_aniso_U_33
_atom_site_aniso_U_12
_atom_site_aniso_U_13
_atom_site_aniso_U_23
K1 K1+ 0.0427(5) 0.0452(6) 0.0550(6) -0.0101(4) -0.0068(4) 0.0034(5)
Mn1 Mn2+ 0.0194(3) 0.0361(4) 0.0309(4) 0.0002(3) 0.0054(3) 0.0013(3)
P1 P4+ 0.0190(3) 0.0276(4) 0.0239(4) 0.0014(3) 0.0051(3) 0.0030(3)
S1 S2- 0.0220(4) 0.0572(7) 0.0294(4) 0.0075(4) 0.0032(3) 0.0131(4)
S2 S2- 0.0240(4) 0.0470(6) 0.0323(4) 0.0011(4) 0.0070(3) -0.0143(4)
S3 S2- 0.0271(4) 0.0258(5) 0.0635(7) -0.0028(4) 0.0140(4) 0.0037(4)
#End of data_74846-ICSD


