data_202045-ICSD
#?2014 by Fachinformationszentrum Karlsruhe, and the U.S. Secretary of 
#Commerce on behalf of the United States.  All rights reserved.
_database_code_ICSD                202045
_audit_creation_date               1988/12/19
_audit_update_record               2012/02/01
_chemical_name_systematic
;
Silver Vanadium(III) Phosphorus Sulfide (.5/.5/1/3)
;
_chemical_formula_structural       'Ag.5 V.5 P S3'
_chemical_formula_sum              'Ag0.5 P1 S3 V0.5'
_publ_section_title
;
A new chain compound of vanadium(III): Ag.5 V.5 P S3 structure, metal 
ordering and magnetic properties
;
loop_
_citation_id
_citation_journal_abbrev
_citation_year
_citation_journal_volume
_citation_page_first
_citation_page_last
_citation_journal_id_ASTM
primary 'Materials Research Bulletin' 1986 21 917 928 MRBUAC
_publ_author_name
;
Lee, S.;Colombet, P.;Ouvrard, G.;Brec, R.
;
_cell_length_a                     5.921(1)
_cell_length_b                     10.684(2)
_cell_length_c                     6.755(1)
_cell_angle_alpha                  90.
_cell_angle_beta                   106.62(2)
_cell_angle_gamma                  90.
_cell_volume                       409.47
_cell_formula_units_Z              4
_symmetry_space_group_name_H-M     'P 1 2/a 1'
_symmetry_Int_Tables_number        13
_refine_ls_R_factor_all            .051
loop_
_symmetry_equiv_pos_site_id
_symmetry_equiv_pos_as_xyz
  1	'x+.5, -y, z'
  2	'-x, -y, -z'
  3	'-x+.5, y, -z'
  4	'x, y, z'
loop_
_atom_type_symbol
_atom_type_oxidation_number
Ag1+	1
P4+	4
S2-	-2
V3+	3
loop_
_atom_site_label
_atom_site_type_symbol
_atom_site_symmetry_multiplicity
_atom_site_Wyckoff_symbol
_atom_site_fract_x
_atom_site_fract_y
_atom_site_fract_z
_atom_site_occupancy
_atom_site_attached_hydrogens
Ag1 Ag1+ 2 e 0.75 0.4344(2) 0 1. 0 
V1 V3+ 2 e 0.25 0.9199(3) 0 1. 0 
S1 S2- 4 g -.0105(5) 0.2281(3) 0.2416(4) 1. 0 
S2 S2- 4 g -.0085(4) 0.9203(3) 0.2302(4) 1. 0 
S3 S2- 4 g 0.4844(5) 0.3966(3) 0.2848(5) 1. 0 
P1 P4+ 4 g 0.3009(4) 0.2466(3) 0.1698(4) 1. 0 

loop_
_atom_site_aniso_label
_atom_site_aniso_type_symbol
_atom_site_aniso_U_11
_atom_site_aniso_U_22
_atom_site_aniso_U_33
_atom_site_aniso_U_12
_atom_site_aniso_U_13
_atom_site_aniso_U_23
Ag1 Ag1+ 0.0341(8) 0.0270(8) 0.057(1) 0 0.0130(7) 0
V1 V3+ 0.0077(8) 0.0099(9) 0.0110(9) 0 0.0041(6) 0
S1 S2- 0.0071(8) 0.015(1) 0.013(1) -.0006(9) 0.0044(7) -.0035(9)
S2 S2- 0.0041(7) 0.0106(8) 0.0115(8) -.0005(9) 0.0030(6) 0.0002(9)
S3 S2- 0.011(1) 0.013(1) 0.020(1) -.0042(9) 0.0021(9) -.004(1)
P1 P4+ 0.0045(8) 0.0073(9) 0.0113(9) -.0010(9) 0.0022(7) -.0028(9)
#End of data_202045-ICSD


