data_77896-ICSD
#?2014 by Fachinformationszentrum Karlsruhe, and the U.S. Secretary of 
#Commerce on behalf of the United States.  All rights reserved.
_database_code_ICSD                77896
_audit_creation_date               2003/04/01
_chemical_name_systematic
;
Sodium Ammonium Sulfate(VI) Dihydrate
;
_chemical_formula_structural       'Na (N H4) (S O4) (H2 O)2'
_chemical_formula_sum              'H8 N1 Na1 O6 S1'
_chemical_name_mineral             Lecontite
_publ_section_title
;
The optical activity and absolute optical chirality of Na N H4 S O4*2 
H2 O
;
loop_
_citation_id
_citation_journal_abbrev
_citation_year
_citation_journal_volume
_citation_page_first
_citation_page_last
_citation_journal_id_ASTM
primary 'Acta Crystallographica, Section B: Structural Science'
 1994 50 425 431 ASBSDK
_publ_author_name                  'Arzt, S.;Glazer, A.M.'
_cell_length_a                     6.253(1)
_cell_length_b                     8.228(1)
_cell_length_c                     12.856(1)
_cell_angle_alpha                  90.
_cell_angle_beta                   90.
_cell_angle_gamma                  90.
_cell_volume                       661.44
_cell_formula_units_Z              4
_symmetry_space_group_name_H-M     'P 21 21 21'
_symmetry_Int_Tables_number        19
_refine_ls_R_factor_all            .0303
loop_
_symmetry_equiv_pos_site_id
_symmetry_equiv_pos_as_xyz
  1	'-x, y+.5, -z+.5'
  2	'x+.5, -y+.5, -z'
  3	'-x+.5, -y, z+.5'
  4	'x, y, z'
loop_
_atom_type_symbol
_atom_type_oxidation_number
H1+	1
N3-	-3
Na1+	1
O2-	-2
S6+	6
loop_
_atom_site_label
_atom_site_type_symbol
_atom_site_symmetry_multiplicity
_atom_site_Wyckoff_symbol
_atom_site_fract_x
_atom_site_fract_y
_atom_site_fract_z
_atom_site_occupancy
_atom_site_attached_hydrogens
_atom_site_U_iso_or_equiv
S1 S6+ 4 a 0.3729(2) 0.0841(1) 0.1283(1) 1. 0 0 
Na1 Na1+ 4 a 0.9112(3) 0.2652(2) 0.4848(1) 1. 0 0 
O1 O2- 4 a 0.1884(5) 0.0674(5) 0.1990(3) 1. 0 0 
O2 O2- 4 a 0.5732(6) 0.0652(5) 0.1882(3) 1. 0 0 
O3 O2- 4 a 0.3674(7) 0.2453(4) 0.0805(2) 1. 0 0 
O4 O2- 4 a 0.1399(6) 0.0402(3) 0.5468(2) 1. 0 0 
O5 O2- 4 a 0.6896(5) 0.2118(5) 0.6352(3) 1. 0 0 
O6 O2- 4 a 0.6590(7) 0.0791(5) 0.4040(2) 1. 0 0 
N1 N3- 4 a 0.3696(9) 0.1729(6) 0.8553(4) 1. 0 0 
H1 H1+ 4 a 0.789(9) 0.889(7) 0.160(3) 1. 0 0.045(6) 
H2 H1+ 4 a 0.85(1) 0.729(7) 0.172(4) 1. 0 0.045(6) 
H3 H1+ 4 a 0.392(9) 0.600(8) 0.142(3) 1. 0 0.045(6) 
H4 H1+ 4 a 0.38(1) 0.486(6) 0.080(4) 1. 0 0.045(6) 
H5 H1+ 4 a 0.85(1) 0.38(1) 0.189(6) 1. 0 0.10(1) 
H6 H1+ 4 a 0.78(1) 0.329(9) 0.101(6) 1. 0 0.10(1) 
H7 H1+ 4 a 0.94(1) 0.24(1) 0.136(5) 1. 0 0.10(1) 
H8 H1+ 4 a 0.75(1) 0.26(1) 0.171(5) 1. 0 0.10(1) 

loop_
_atom_site_aniso_label
_atom_site_aniso_type_symbol
_atom_site_aniso_U_11
_atom_site_aniso_U_22
_atom_site_aniso_U_33
_atom_site_aniso_U_12
_atom_site_aniso_U_13
_atom_site_aniso_U_23
S1 S6+ 0.0297(6) 0.0199(4) 0.0215(5) 0.0008(6) 0.0007(6) -0.0031(6)
Na1 Na1+ 0.0229(9) 0.031(1) 0.0290(9) 0.0025(9) 0.0020(8) -0.0003(8)
O1 O2- 0.042(2) 0.050(3) 0.037(2) -0.005(2) 0.014(2) -0.005(2)
O2 O2- 0.041(2) 0.051(2) 0.038(2) 0.006(2) -0.016(2) -0.018(2)
O3 O2- 0.081(3) 0.021(2) 0.042(7) 0.000(3) 0.000(2) 0.001(2)
O4 O2- 0.035(2) 0.026(2) 0.031(2) -0.001(2) 0.009(2) 0.012(1)
O5 O2- 0.038(2) 0.035(2) 0.028(2) 0.003(2) -0.003(2) -0.004(2)
O6 O2- 0.055(3) 0.024(2) 0.031(2) -0.002(2) -0.010(2) 0.001(2)
N1 N3- 0.040(3) 0.044(2) 0.031(3) 0.002(3) -0.002(3) -0.003(2)
#End of data_77896-ICSD


