data_10391-ICSD
#?2014 by Fachinformationszentrum Karlsruhe, and the U.S. Secretary of 
#Commerce on behalf of the United States.  All rights reserved.
_database_code_ICSD                10391
_audit_creation_date               1980/01/01
_chemical_name_systematic          'Magnesium Phyllo-hexaoxodivanadate'
_chemical_formula_structural       'Mg V2 O6'
_chemical_formula_sum              'Mg1 O6 V2'
_publ_section_title
;
Crystal structure of and electron spin resonance of Mn2+ in Mg V2 O6
;
loop_
_citation_id
_citation_journal_abbrev
_citation_year
_citation_journal_volume
_citation_page_first
_citation_page_last
_citation_journal_id_ASTM
primary 'Canadian Journal of Chemistry' 1972 50 3619 3624 CJCHAG
_publ_author_name                  'Ng, H.N.;Calvo, C.'
_cell_length_a                     9.279(7)
_cell_length_b                     3.502(2)
_cell_length_c                     6.731(6)
_cell_angle_alpha                  90.
_cell_angle_beta                   111.77(6)
_cell_angle_gamma                  90.
_cell_volume                       203.12
_cell_formula_units_Z              2
_symmetry_space_group_name_H-M     'C 1 2/m 1'
_symmetry_Int_Tables_number        12
_refine_ls_R_factor_all            .032
loop_
_symmetry_equiv_pos_site_id
_symmetry_equiv_pos_as_xyz
  1	'-x, y, -z'
  2	'-x, -y, -z'
  3	'x, -y, z'
  4	'x, y, z'
  5	'-x+.5, y+.5, -z'
  6	'-x+.5, -y+.5, -z'
  7	'x+.5, -y+.5, z'
  8	'x+.5, y+.5, z'
loop_
_atom_type_symbol
_atom_type_oxidation_number
Mg2+	2
O2-	-2
V5+	5
loop_
_atom_site_label
_atom_site_type_symbol
_atom_site_symmetry_multiplicity
_atom_site_Wyckoff_symbol
_atom_site_fract_x
_atom_site_fract_y
_atom_site_fract_z
_atom_site_occupancy
_atom_site_attached_hydrogens
Mg1 Mg2+ 2 a 0 0 0 1. 0 
V1 V5+ 4 i 0.30514(4) 0.5 0.3436(1) 1. 0 
O1 O2- 4 i 0.1517(2) 0.5 0.1133(3) 1. 0 
O2 O2- 4 i 0.4607(2) 0.5 0.2764(3) 1. 0 
O3 O2- 4 i 0.1930(2) 0.5 0.5652(3) 1. 0 

loop_
_atom_site_aniso_label
_atom_site_aniso_type_symbol
_atom_site_aniso_U_11
_atom_site_aniso_U_22
_atom_site_aniso_U_33
_atom_site_aniso_U_12
_atom_site_aniso_U_13
_atom_site_aniso_U_23
Mg1 Mg2+ 0.0131(5) 0.0113(5) 0.0085(5) 0 0.0069(4) 0
V1 V5+ 0.0070(2) 0.0045(2) 0.0052(2) 0 0.0042(1) 0
O1 O2- 0.0100(6) 0.0115(7) 0.0081(6) 0 0.0028(5) 0
O2 O2- 0.0107(7) 0.0094(7) 0.0104(6) 0 0.0078(5) 0
O3 O2- 0.0122(6) 0.0047(6) 0.0095(6) 0 0.0071(5) 0
#End of data_10391-ICSD


