data_85569-ICSD
#?2014 by Fachinformationszentrum Karlsruhe, and the U.S. Secretary of 
#Commerce on behalf of the United States.  All rights reserved.
_database_code_ICSD                85569
_audit_creation_date               1999/11/30
_chemical_name_systematic          'Calcium Niobate'
_chemical_formula_structural       'Ca (Nb O3)'
_chemical_formula_sum              'Ca1 Nb1 O3'
_chemical_name_mineral             Latrappite
_publ_section_title                'Latrappite: a re-investigation'
loop_
_citation_id
_citation_journal_abbrev
_citation_year
_citation_journal_volume
_citation_page_first
_citation_page_last
_citation_journal_id_ASTM
primary 'Canadian Mineralogist' 1998 36 107 116 CAMIA6
_publ_author_name
;
Mitchell, R.H.;Choi, J.-B.;Hawthorne, F.C.;McCammon, C.A.;Burns, P.C.
;
_cell_length_a                     5.4479(3)
_cell_length_b                     5.5259(3)
_cell_length_c                     7.7575(5)
_cell_angle_alpha                  90.
_cell_angle_beta                   90.
_cell_angle_gamma                  90.
_cell_volume                       233.54
_cell_formula_units_Z              4
_symmetry_space_group_name_H-M     'P b n m'
_symmetry_Int_Tables_number        62
_refine_ls_R_factor_all            .049
loop_
_symmetry_equiv_pos_site_id
_symmetry_equiv_pos_as_xyz
  1	'-x+.5, y+.5, z'
  2	'x, y, -z+.5'
  3	'x+.5, -y+.5, z+.5'
  4	'-x, -y, -z'
  5	'x+.5, -y+.5, -z'
  6	'-x, -y, z+.5'
  7	'-x+.5, y+.5, -z+.5'
  8	'x, y, z'
loop_
_atom_type_symbol
_atom_type_oxidation_number
Ca2+	2
Nb4+	4
O2-	-2
loop_
_atom_site_label
_atom_site_type_symbol
_atom_site_symmetry_multiplicity
_atom_site_Wyckoff_symbol
_atom_site_fract_x
_atom_site_fract_y
_atom_site_fract_z
_atom_site_occupancy
_atom_site_attached_hydrogens
_atom_site_B_iso_or_equiv
Ca1 Ca2+ 4 c -.0076(3) 0.0359(5) 0.25 1. 0 0.61 
Nb1 Nb4+ 4 b 0 0.5 0 1. 0 0.4 
O1 O2- 4 c 0.0764(3) 0.4800(2) 0.25 1. 0 0.53 
O2 O2- 8 d 0.7087(1) 0.2871(1) 0.0364(1) 1. 0 0.5 

#End of data_85569-ICSD


