data_65945-ICSD
#?2014 by Fachinformationszentrum Karlsruhe, and the U.S. Secretary of 
#Commerce on behalf of the United States.  All rights reserved.
_database_code_ICSD                65945
_audit_creation_date               1990/12/27
_chemical_name_systematic          'Dipotassium Tetraoxolithiovanadate'
_chemical_formula_structural       'K2 (Li V O4)'
_chemical_formula_sum              'K2 Li1 O4 V1'
_publ_section_title
;
Das erste "Lithovanadate": K2 (Li V O4)
;
loop_
_citation_id
_citation_journal_abbrev
_citation_year
_citation_journal_volume
_citation_page_first
_citation_page_last
_citation_journal_id_ASTM
primary 'Zeitschrift fuer Anorganische und Allgemeine Chemie (1950) (DE)'
 1989 570 109 118 ZAACAB
_publ_author_name                  'Kissel, J.;Hoppe, R.'
_cell_length_a                     8.359
_cell_length_b                     7.747
_cell_length_c                     7.529
_cell_angle_alpha                  90.
_cell_angle_beta                   90.23
_cell_angle_gamma                  90.
_cell_volume                       487.55
_cell_formula_units_Z              4
_symmetry_space_group_name_H-M     'C 1 2/m 1'
_symmetry_Int_Tables_number        12
_refine_ls_R_factor_all            .0567
loop_
_symmetry_equiv_pos_site_id
_symmetry_equiv_pos_as_xyz
  1	'-x, y, -z'
  2	'-x, -y, -z'
  3	'x, -y, z'
  4	'x, y, z'
  5	'-x+.5, y+.5, -z'
  6	'-x+.5, -y+.5, -z'
  7	'x+.5, -y+.5, z'
  8	'x+.5, y+.5, z'
loop_
_atom_type_symbol
_atom_type_oxidation_number
K1+	1
Li1+	1
O2-	-2
V5+	5
loop_
_atom_site_label
_atom_site_type_symbol
_atom_site_symmetry_multiplicity
_atom_site_Wyckoff_symbol
_atom_site_fract_x
_atom_site_fract_y
_atom_site_fract_z
_atom_site_occupancy
_atom_site_attached_hydrogens
V1 V5+ 4 i 0.7146(2) 0 0.7557(2) 1. 0 
K1 K1+ 4 i 0.2966(3) 0 0.8218(4) 1. 0 
K2 K1+ 4 h 0 0.2178(3) 0.5 1. 0 
Li1 Li1+ 4 g 0 0.1751(32) 0 1. 0 
O1 O2- 4 i 0.2781(5) 0 0.4711(5) 1. 0 
O2 O2- 8 j 0.3853(4) 0.8213(8) 0.1717(8) 1. 0 
O3 O2- 4 i 0.0924(5) 0 0.1598(6) 1. 0 

loop_
_atom_site_aniso_label
_atom_site_aniso_type_symbol
_atom_site_aniso_U_11
_atom_site_aniso_U_22
_atom_site_aniso_U_33
_atom_site_aniso_U_12
_atom_site_aniso_U_13
_atom_site_aniso_U_23
V1 V5+ 0.0091(3) 0.0132(5) 0.0090(4) 0 0.0010(3) 0
K1 K1+ 0.0232(5) 0.0387(8) 0.0140(6) 0 0.0012(4) 0
K2 K1+ 0.0197(5) 0.0209(7) 0.0233(6) 0 -.0003(4) 0
Li1 Li1+ 0.0233(48) 0.0157(48) 0.0209(49) 0 0.0021(39) 0
O1 O2- 0.0178(16) 0.0247(21) 0.0113(16) 0 -.0011(13) 0
O2 O2- 0.0232(14) 0.0265(16) 0.0209(13) 0.0096(12) 0.0037(11) -.0044(14)
O3 O2- 0.0218(17) 0.0323(24) 0.0229(21) 0 -.0057(16) 0
#End of data_65945-ICSD


