data_423878-ICSD
#?2014 by Fachinformationszentrum Karlsruhe, and the U.S. Secretary of 
#Commerce on behalf of the United States.  All rights reserved.
_database_code_ICSD                423878
_audit_creation_date               2013/02/01
_chemical_name_systematic
;
Dipotassium Trioxidosulfidomolybdate Sesquihydrate
;
_chemical_formula_structural       'K2 (Mo S O3) (H2 O)1.5'
_chemical_formula_sum              'H3 K2 Mo1 O4.5 S1'
_publ_section_title
;
Hydrates of the alkali monothio-trioxo-molybdates and -tungstates: K2 
[(Mo, W) S O3] * 1.5 H2 O and (Rb/Cs)2 [(Mo, W) S O3] * H2 O
;
loop_
_citation_id
_citation_journal_abbrev
_citation_year
_citation_journal_volume
_citation_journal_issue
_citation_page_first
_citation_page_last
_citation_journal_id_ASTM
primary 'Zeitschrift fuer Kristallographie - Crystalline Materials'
 2012 227 8 557 568 ZKCMAJ
_publ_author_name
;
Lehner, A.J.;Braitsch, M.;Roehr, C.
;
_cell_length_a                     9.8699(19)
_cell_length_b                     8.3175(14)
_cell_length_c                     18.689(4)
_cell_angle_alpha                  90.00
_cell_angle_beta                   99.342(15)
_cell_angle_gamma                  90.00
_cell_volume                       1513.89
_cell_formula_units_Z              8
_symmetry_space_group_name_H-M     'C 1 2/c 1'
_symmetry_Int_Tables_number        15
_refine_ls_R_factor_all            .0352
loop_
_symmetry_equiv_pos_site_id
_symmetry_equiv_pos_as_xyz
  1	'x, -y, z+.5'
  2	'-x, -y, -z'
  3	'-x, y, -z+.5'
  4	'x, y, z'
  5	'x+.5, -y+.5, z+.5'
  6	'-x+.5, -y+.5, -z'
  7	'-x+.5, y+.5, -z+.5'
  8	'x+.5, y+.5, z'
loop_
_atom_type_symbol
_atom_type_oxidation_number
H1+	1
K1+	1
Mo6+	6
O2-	-2
S2-	-2
loop_
_atom_site_label
_atom_site_type_symbol
_atom_site_symmetry_multiplicity
_atom_site_Wyckoff_symbol
_atom_site_fract_x
_atom_site_fract_y
_atom_site_fract_z
_atom_site_occupancy
_atom_site_attached_hydrogens
_atom_site_U_iso_or_equiv
K1 K1+ 8 f 0.29195(9) 0.48518(11) 0.21505(5) 1 0 0.0380(2) 
K2 K1+ 8 f 0.06566(8) 0.19579(11) 0.06042(5) 1 0 0.03648(19) 
Mo1 Mo6+ 8 f 0.42417(3) 0.11631(3) 0.121197(16) 1 0 0.02465(10) 
S1 S2- 8 f 0.06246(10) 0.17241(11) 0.62448(6) 1 0 0.0373(2) 
O1 O2- 8 f 0.3003(3) 0.1568(3) 0.17532(15) 1 0 0.0376(6) 
O2 O2- 8 f 0.3396(3) 0.0897(3) 0.03217(15) 1 0 0.0415(6) 
O3 O2- 8 f 0.0193(3) 0.4437(3) 0.14969(16) 1 0 0.0385(6) 
O4 O2- 8 f 0.1957(3) 0.1169(4) 0.42958(19) 1 0 0.0502(8) 
H1 H1+ 8 f 0.247(6) 0.046(6) 0.466(3) 1 0 0.089(12) 
H2 H1+ 8 f 0.264(5) 0.200(6) 0.423(3) 1 0 0.089(12) 
O5 O2- 4 e 0.0000 0.2069(5) 0.2500 1 0 0.0426(9) 
H3 H1+ 8 f -0.008(6) 0.281(6) 0.290(2) 1 0 0.089(12) 

loop_
_atom_site_aniso_label
_atom_site_aniso_type_symbol
_atom_site_aniso_U_11
_atom_site_aniso_U_22
_atom_site_aniso_U_33
_atom_site_aniso_U_12
_atom_site_aniso_U_13
_atom_site_aniso_U_23
K1 K1+ 0.0367(4) 0.0365(4) 0.0401(5) -0.0004(3) 0.0036(3) -0.0077(3)
K2 K1+ 0.0339(4) 0.0395(5) 0.0358(4) -0.0032(3) 0.0050(3) 0.0000(3)
Mo1 Mo6+ 0.02551(14) 0.02225(14) 0.02645(14) 0.00089(11) 0.00497(10) 
0.00040(12)
S1 S2- 0.0372(5) 0.0284(4) 0.0469(6) 0.0067(4) 0.0085(4) 0.0018(4)
O1 O2- 0.0360(14) 0.0379(15) 0.0424(15) -0.0026(11) 0.0166(12) -0.0003(11)
O2 O2- 0.0433(15) 0.0449(17) 0.0344(14) -0.0061(12) 0.0008(12) 0.0010(12)
O3 O2- 0.0428(15) 0.0286(13) 0.0442(16) 0.0063(11) 0.0071(12) 0.0036(11)
O4 O2- 0.0346(15) 0.0551(19) 0.059(2) -0.0048(14) 0.0026(14) 0.0088(16)
O5 O2- 0.058(3) 0.031(2) 0.040(2) 0.000 0.013(2) 0.000
#End of data_423878-ICSD


