data_260876-ICSD
#?2014 by Fachinformationszentrum Karlsruhe, and the U.S. Secretary of 
#Commerce on behalf of the United States.  All rights reserved.
_database_code_ICSD                260876
_audit_creation_date               2011/02/01
_chemical_name_systematic
;
Dipotassium Heptafluorotantalate(V) - Beta
;
_chemical_formula_structural       'K2 Ta F7'
_chemical_formula_sum              'F7 K2 Ta1'
_publ_section_title
;
Dipotassium heptafluorotantalate(V), beta - K2 Ta F7, at 509 K
;
loop_
_citation_id
_citation_journal_abbrev
_citation_year
_citation_journal_volume
_citation_journal_issue
_citation_page_first
_citation_page_last
_citation_journal_id_ASTM
primary 'Acta Crystallographica, Section E. Structure Reports Online'
 2006 62 4 i91 i93 ACSEBH
_publ_author_name                  'Langer, V.;Smrcok, L.;Boca, M.'
_cell_length_a                     9.8155(15)
_cell_length_b                     5.8212(8)
_cell_length_c                     12.0041(18)
_cell_angle_alpha                  90.00
_cell_angle_beta                   90.00
_cell_angle_gamma                  90.00
_cell_volume                       685.89
_cell_formula_units_Z              4
_symmetry_space_group_name_H-M     'P n m a'
_symmetry_Int_Tables_number        62
_refine_ls_R_factor_all            .0711
loop_
_symmetry_equiv_pos_site_id
_symmetry_equiv_pos_as_xyz
  1	'x+.5, y, -z+.5'
  2	'x, -y+.5, z'
  3	'-x+.5, y+.5, z+.5'
  4	'-x, -y, -z'
  5	'-x+.5, -y, z+.5'
  6	'-x, y+.5, -z'
  7	'x+.5, -y+.5, -z+.5'
  8	'x, y, z'
loop_
_atom_type_symbol
_atom_type_oxidation_number
F1-	-1
K1+	1
Ta5+	5
loop_
_atom_site_label
_atom_site_type_symbol
_atom_site_symmetry_multiplicity
_atom_site_Wyckoff_symbol
_atom_site_fract_x
_atom_site_fract_y
_atom_site_fract_z
_atom_site_occupancy
_atom_site_attached_hydrogens
_atom_site_U_iso_or_equiv
Ta1 Ta5+ 4 c 0.24967(14) 0.2500 0.13166(7) 1 0 0.0307(5) 
K1 K1+ 4 c 0.1389(8) -0.2500 -0.0586(6) 1 0 0.049(2) 
K2 K1+ 4 c 0.4484(10) 0.2500 -0.1716(8) 1 0 0.071(3) 
F1 F1- 8 d 0.344(2) 0.032(4) 0.0459(18) 1 0 0.123(7) 
F2 F1- 8 d 0.0992(18) 0.028(3) 0.1227(11) 1 0 0.084(6) 
F3 F1- 8 d 0.294(3) 0.025(6) 0.245(2) 1 0 0.162(10) 
F4 F1- 4 c 0.185(5) 0.2500 -0.022(4) 1 0 0.173(15) 

loop_
_atom_site_aniso_label
_atom_site_aniso_type_symbol
_atom_site_aniso_U_11
_atom_site_aniso_U_22
_atom_site_aniso_U_33
_atom_site_aniso_U_12
_atom_site_aniso_U_13
_atom_site_aniso_U_23
Ta1 Ta5+ 0.0494(7) 0.0224(12) 0.0203(6) 0.000 -0.0049(6) 0.000
K1 K1+ 0.068(5) 0.046(6) 0.033(3) 0.000 -0.002(3) 0.000
K2 K1+ 0.086(7) 0.063(7) 0.063(5) 0.000 -0.004(5) 0.000
#End of data_260876-ICSD


