data_85412-ICSD
#?2014 by Fachinformationszentrum Karlsruhe, and the U.S. Secretary of 
#Commerce on behalf of the United States.  All rights reserved.
_database_code_ICSD                85412
_audit_creation_date               1999/06/02
_audit_update_record               2006/04/01
_chemical_name_systematic
;
Rubidium Dipotassium Triselenobismuthate(III)
;
_chemical_formula_structural       'Rb K2 (Bi Se3)'
_chemical_formula_sum              'Bi1 K2 Rb1 Se3'
_publ_section_title
;
Ueber Alkaliselenobismutate(III), mit einer Bemerkung zum (Th3 P4)-
Typ
;
loop_
_citation_id
_citation_journal_abbrev
_citation_year
_citation_journal_volume
_citation_page_first
_citation_page_last
_citation_journal_id_ASTM
primary 'Zeitschrift fuer Anorganische und Allgemeine Chemie (1950) (DE)'
 1997 623 1715 1718 ZAACAB
_publ_author_name                  'Bronger, W.;Donike, A.;Schmitz, D.'
_cell_length_a                     9.879(3)
_cell_length_b                     9.879(3)
_cell_length_c                     9.879(3)
_cell_angle_alpha                  90.
_cell_angle_beta                   90.
_cell_angle_gamma                  90.
_cell_volume                       964.14
_cell_formula_units_Z              4
_symmetry_space_group_name_H-M     'P 21 3'
_symmetry_Int_Tables_number        198
_refine_ls_R_factor_all            .028
loop_
_symmetry_equiv_pos_site_id
_symmetry_equiv_pos_as_xyz
  1	'-z+.5, -x, y+.5'
  2	'-y+.5, -z, x+.5'
  3	'-x+.5, -y, z+.5'
  4	'-z, x+.5, -y+.5'
  5	'-y, z+.5, -x+.5'
  6	'-x, y+.5, -z+.5'
  7	'z+.5, -x+.5, -y'
  8	'y+.5, -z+.5, -x'
  9	'x+.5, -y+.5, -z'
 10	'z, x, y'
 11	'y, z, x'
 12	'x, y, z'
loop_
_atom_type_symbol
_atom_type_oxidation_number
Bi3+	3
K1+	1
Rb1+	1
Se2-	-2
loop_
_atom_site_label
_atom_site_type_symbol
_atom_site_symmetry_multiplicity
_atom_site_Wyckoff_symbol
_atom_site_fract_x
_atom_site_fract_y
_atom_site_fract_z
_atom_site_occupancy
_atom_site_attached_hydrogens
_atom_site_B_iso_or_equiv
Se1 Se2- 12 b 0.2236(2) 0.6056(2) 0.4974(2) 1. 0 1.93(3) 
K1 K1+ 4 a 0.3192(4) 0.3192(4) 0.3192(4) 1. 0 1.71(3) 
Rb1 Rb1+ 4 a 0.5720(2) 0.5720(2) 0.5720(2) 1. 0 2.84(2) 
K2 K1+ 4 a 0.8135(4) 0.8135(4) 0.8135(4) 1. 0 1.90(4) 
Bi1 Bi3+ 4 a 0.03344(7) 0.03344(7) 0.03344(7) 1. 0 1.720(4) 

#End of data_85412-ICSD


