data_250370-ICSD
#?2014 by Fachinformationszentrum Karlsruhe, and the U.S. Secretary of 
#Commerce on behalf of the United States.  All rights reserved.
_database_code_ICSD                250370
_audit_creation_date               2007/04/01
_chemical_name_systematic
;
Bis(tetraaquamagnesium) Bis(selenate(VI)) Hydrate
;
_chemical_formula_structural       '(Mg (H2 O)4)2 (Se O4)2 (H2 O)'
_chemical_formula_sum              'H18 Mg2 O17 Se2'
_publ_section_title
;
Crystal chemistry of selenates with mineral-like structures. III. 
Heteropolyhedral chains in crystal structure of (Mg (H2 O)4 (Se O4))2 
(H2 O)
;
loop_
_citation_id
_citation_journal_abbrev
_citation_year
_citation_journal_volume
_citation_journal_issue
_citation_page_first
_citation_page_last
_citation_journal_id_ASTM
primary 'Zapiski Vserossijskogo Mineralogicheskogo Obshchestva'
 2006 2006 4 80 87 ZVMOEK
_publ_author_name                  'Krivovichev, S.V.'
_cell_length_a                     7.2549(12)
_cell_length_b                     20.059(5)
_cell_length_c                     10.3934(17)
_cell_angle_alpha                  90
_cell_angle_beta                   101.989(3)
_cell_angle_gamma                  90
_cell_volume                       1479.52
_cell_formula_units_Z              4
_symmetry_space_group_name_H-M     'P 1 21/a 1'
_symmetry_Int_Tables_number        14
_refine_ls_R_factor_all            .059
loop_
_symmetry_equiv_pos_site_id
_symmetry_equiv_pos_as_xyz
  1	'x+.5, -y+.5, z'
  2	'-x, -y, -z'
  3	'-x+.5, y+.5, -z'
  4	'x, y, z'
loop_
_atom_type_symbol
_atom_type_oxidation_number
H1+	1
Mg2+	2
O2-	-2
Se6+	6
loop_
_atom_site_label
_atom_site_type_symbol
_atom_site_symmetry_multiplicity
_atom_site_Wyckoff_symbol
_atom_site_fract_x
_atom_site_fract_y
_atom_site_fract_z
_atom_site_occupancy
_atom_site_attached_hydrogens
_atom_site_U_iso_or_equiv
Se1 Se6+ 4 e -0.42021(8) 0.13302(3) -0.19536(6) 1 0 0.0158(2) 
Se2 Se6+ 4 e -0.06366(8) 0.12863(3) 0.23518(6) 1 0 0.0159(2) 
Mg1 Mg2+ 4 e 0.2467(3) 0.14984(14) 0.5265(2) 1 0 0.0215(5) 
Mg2 Mg2+ 4 e 0.2574(3) 0.12068(12) 0.0157(2) 1 0 0.0162(5) 
O1 O2- 4 e -0.2865(6) 0.1854(3) -0.0953(5) 1 0 0.0246(11) 
O2 O2- 4 e -0.0165(7) 0.1154(3) 0.3919(5) 1 0 0.0277(12) 
O3 O2- 4 e -0.2934(6) 0.0691(3) -0.2242(5) 1 0 0.0246(11) 
O4 O2- 4 e -0.5078(7) 0.1727(3) -0.3332(5) 1 0 0.0287(12) 
O5 O2- 4 e -0.1887(7) 0.1969(3) 0.2215(5) 1 0 0.0267(11) 
O6 O2- 4 e -0.4218(7) -0.0533(3) -0.1387(6) 1 0 0.0336(14) 
O7 O2- 4 e -0.1939(7) 0.0664(3) 0.1733(6) 1 0 0.0309(3) 
O8 O2- 4 e -0.5937(7) 0.1054(3) -0.1321(5) 1 0 0.0253(11) 
O9 O2- 4 e 0.4276(8) 0.1284(4) 0.4046(6) 1 0 0.0428(18) 
O10 O2- 4 e 0.0843(7) 0.1909(3) -0.0953(5) 1 0 0.0223(10) 
O11 O2- 4 e 0.1164(7) 0.1387(4) 0.1672(6) 1 0 0.0343(14) 
O12 O2- 4 e -0.5646(6) 0.1963(3) 0.0943(6) 1 0 0.0258(1) 
O13 O2- 4 e 0.0765(7) 0.0512(3) -0.0812(7) 1 0 0.0338(14) 
O14 O2- 4 e 0.0671(9) 0.1834(4) 0.6399(6) 1 0 0.0395(15) 
O15 O2- 4 e -0.7603(10) 0.0575(3) -0.3900(6) 1 0 0.0393(15) 
O16 O2- 4 e -0.2550(8) 0.0607(4) 0.5132(6) 1 0 0.0342(13) 
O17 O2- 4 e 0.2342(8) 0.2485(4) 0.4513(7) 1 0 0.0400(15) 
H1 H1+ 4 e 0.523(14) 0.096(5) 0.434(14) 1 0 0.070 
H2 H1+ 4 e -0.047(5) 0.192(9) -0.094(13) 1 0 0.070 
H3 H1+ 4 e -0.434(6) 0.209(8) 0.109(14) 1 0 0.070 
H4 H1+ 4 e -0.602(17) 0.236(4) 0.135(13) 1 0 0.070 
H5 H1+ 4 e -0.547(8) -0.044(9) -0.128(13) 1 0 0.070 
H6 H1+ 4 e 0.107(18) 0.005(2) -0.093(14) 1 0 0.070 
H7 H1+ 4 e -0.147(12) 0.032(6) 0.524(13) 1 0 0.070 
H8 H1+ 4 e -0.264(16) 0.064(9) 0.604(3) 1 0 0.070 
H9 H1+ 4 e -0.055(6) 0.041(9) -0.111(13) 1 0 0.070 
H10 H1+ 4 e 0.012(16) 0.227(3) 0.639(13) 1 0 0.070 
H11 H1+ 4 e 0.093(17) 0.175(8) 0.733(3) 1 0 0.070 
H12 H1+ 4 e 0.111(18) 0.2378(14) -0.087(14) 1 0 0.070 
H13 H1+ 4 e -0.764(17) 0.0112(17) -0.414(11) 1 0 0.070 
H14 H1+ 4 e 0.288(13) 0.250(7) 0.374(6) 1 0 0.070 
H15 H1+ 4 e 0.384(17) 0.093(5) 0.343(12) 1 0 0.070 
H16 H1+ 4 e 0.123(11) 0.274(6) 0.450(11) 1 0 0.070 
H17 H1+ 4 e -0.759(17) 0.069(6) -0.301(4) 1 0 0.070 
H18 H1+ 4 e -0.377(17) -0.009(2) -0.147(14) 1 0 0.070 

loop_
_atom_site_aniso_label
_atom_site_aniso_type_symbol
_atom_site_aniso_U_11
_atom_site_aniso_U_22
_atom_site_aniso_U_33
_atom_site_aniso_U_12
_atom_site_aniso_U_13
_atom_site_aniso_U_23
Se1 Se6+ 0.0133(3) 0.0195(4) 0.0139(4) 0.00031(19) 0.0012(2) 0.0016(2)
Se2 Se6+ 0.0136(3) 0.0215(4) 0.0123(4) -0.0003(2) 0.0018(2) -0.0021(2)
Mg1 Mg2+ 0.020(1) 0.0255(13) 0.0172(12) -0.0002(8) 0.0006(8) 0.0013(8)
Mg2 Mg2+ 0.017(1) 0.0183(12) 0.0137(10) -0.0004(7) 0.0031(8) 0.0012(8)
O1 O2- 0.018(2) 0.028(3) 0.025(3) -0.0017(18) -0.0015(18) -0.011(2)
O2 O2- 0.023(2) 0.041(3) 0.017(2) -0.008(2) 0.0002(18) 0.007(2)
O3 O2- 0.021(2) 0.025(3) 0.029(3) 0.0025(18) 0.0075(19) -0.003(2)
O4 O2- 0.028(2) 0.031(3) 0.022(3) -0.001(2) -0.005(2) 0.001(2)
O5 O2- 0.021(2) 0.030(3) 0.029(3) 0.0026(18) 0.0041(19) 0.000(2)
O6 O2- 0.024(2) 0.032(3) 0.042(3) 0.004(2) 0.000(2) 0.017(3)
O7 O2- 0.019(2) 0.031(3) 0.039(3) -0.0052(19) 0.001(2) -0.012(2)
O8 O2- 0.024(2) 0.027(3) 0.028(3) -0.0056(19) 0.0144(19) -0.007(2)
O9 O2- 0.027(3) 0.077(6) 0.024(3) 0.009(3) 0.003(2) -0.001(3)
O10 O2- 0.023(2) 0.022(3) 0.020(2) 0.0016(17) 0.0014(18) 0.002(2)
O11 O2- 0.019(2) 0.064(5) 0.023(3) 0.001(2) 0.0110(19) 0.005(3)
O12 O2- 0.016(2) 0.025(3) 0.034(3) 0.0036(18) 0.0012(19) 0.012(2)
O13 O2- 0.019(2) 0.029(3) 0.050(4) 0.0024(19) 0.001(2) 0.010(3)
O14 O2- 0.043(3) 0.058(5) 0.020(3) 0.016(3) 0.014(2) 0.001(3)
O15 O2- 0.061(4) 0.029(3) 0.023(3) -0.010(3) -0.002(3) 0.007(2)
O16 O2- 0.040(3) 0.035(4) 0.031(3) 0.001(2) 0.015(2) 0.001(2)
O17 O2- 0.041(3) 0.041(4) 0.038(3) 0.001(3) 0.010(3) 0.012(3)
#End of data_250370-ICSD


