data_84375-ICSD
#?2014 by Fachinformationszentrum Karlsruhe, and the U.S. Secretary of 
#Commerce on behalf of the United States.  All rights reserved.
_database_code_ICSD                84375
_audit_creation_date               1999/01/19
_chemical_name_systematic          'Aluminium Oxide - Kappa'
_chemical_formula_structural       'Al2 O3'
_chemical_formula_sum              'Al2 O3'
_publ_section_title
;
Crystal structure of kappa-alumina: an X-ray powder diffraction, TEM 
and NMR study
;
loop_
_citation_id
_citation_journal_abbrev
_citation_year
_citation_journal_volume
_citation_journal_issue
_citation_page_first
_citation_page_last
_citation_journal_id_ASTM
primary 'Journal of Materials Chemistry' 1997 7 6 1049 1056 JMACEP
_publ_author_name
;
Ollivier, B.;Retoux, R.;Lacorre, P.;Massiot, D.;Ferey, G.
;
_cell_length_a                     4.8437(2)
_cell_length_b                     8.3300(3)
_cell_length_c                     8.9547(4)
_cell_angle_alpha                  90.
_cell_angle_beta                   90.
_cell_angle_gamma                  90.
_cell_volume                       361.3
_cell_formula_units_Z              8
_symmetry_space_group_name_H-M     'P n a 21'
_symmetry_Int_Tables_number        33
_refine_ls_R_factor_all            .033
loop_
_symmetry_equiv_pos_site_id
_symmetry_equiv_pos_as_xyz
  1	'x+.5, -y+.5, z'
  2	'-x+.5, y+.5, z+.5'
  3	'-x, -y, z+.5'
  4	'x, y, z'
loop_
_atom_type_symbol
_atom_type_oxidation_number
Al3+	3
O2-	-2
loop_
_atom_site_label
_atom_site_type_symbol
_atom_site_symmetry_multiplicity
_atom_site_Wyckoff_symbol
_atom_site_fract_x
_atom_site_fract_y
_atom_site_fract_z
_atom_site_occupancy
_atom_site_attached_hydrogens
_atom_site_B_iso_or_equiv
Al1 Al3+ 4 a 0.6787(6) 0.8416(4) 0 1. 0 0.41(1) 
Al2 Al3+ 4 a 0.1846(11) 0.3432(7) 0.7868(7) 1. 0 1.32(9) 
Al3 Al3+ 4 a 0.8115(8) 0.6489(5) 0.6972(7) 1. 0 0.16(6) 
Al4 Al3+ 4 a 0.6677(7) 0.4696(3) 0.9993(11) 1. 0 0.35(5) 
O1 O2- 4 a 0.3290(16) 0.8313(9) 0.8927(7) 1. 0 0.27(4) 
O2 O2- 4 a 0.0248(12) 0.4908(7) 0.6292(12) 1. 0 0.27(4) 
O3 O2- 4 a 0.4717(13) 0.6647(8) 0.6381(11) 1. 0 0.27(4) 
O4 O2- 4 a 0.5145(15) 0.6728(7) 0.1212(9) 1. 0 0.27(4) 
O5 O2- 4 a 0.8608(16) 0.3301(11) 0.8662(7) 1. 0 0.27(4) 
O6 O2- 4 a 0.3360(17) 0.4992(7) 0.9000(8) 1. 0 0.27(4) 

#End of data_84375-ICSD


