data_23416-ICSD
#?2014 by Fachinformationszentrum Karlsruhe, and the U.S. Secretary of 
#Commerce on behalf of the United States.  All rights reserved.
_database_code_ICSD                23416
_audit_creation_date               1980/01/01
_chemical_name_systematic          'Calcium Tetrathiogermanate'
_chemical_formula_structural       'Ca2 Ge S4'
_chemical_formula_sum              'Ca2 Ge1 S4'
_publ_section_title
;
Etude structurale des orthothiogermanates de calcium et de strontium 
Ca2 Ge S4, Sr2 Ge S4
;
loop_
_citation_id
_citation_journal_abbrev
_citation_year
_citation_journal_volume
_citation_page_first
_citation_page_last
_citation_journal_id_ASTM
primary
;
Comptes Rendus Hebdomadaires des Seances de l`Academie des Sciences, 
Serie C, Sciences Chimiques (1966-)
;
 1970 270 716 718 CHDCAQ
_publ_author_name                  'Ribes, M.;Philippot, E.;Maurin, M.'
_cell_length_a                     13.607(3)
_cell_length_b                     8.184(6)
_cell_length_c                     6.300(6)
_cell_angle_alpha                  90.
_cell_angle_beta                   90.
_cell_angle_gamma                  90.
_cell_volume                       701.57
_cell_formula_units_Z              4
_symmetry_space_group_name_H-M     'P n m a'
_symmetry_Int_Tables_number        62
_refine_ls_R_factor_all            .1
loop_
_symmetry_equiv_pos_site_id
_symmetry_equiv_pos_as_xyz
  1	'x+.5, y, -z+.5'
  2	'x, -y+.5, z'
  3	'-x+.5, y+.5, z+.5'
  4	'-x, -y, -z'
  5	'-x+.5, -y, z+.5'
  6	'-x, y+.5, -z'
  7	'x+.5, -y+.5, -z+.5'
  8	'x, y, z'
loop_
_atom_type_symbol
_atom_type_oxidation_number
Ca2+	2
Ge4+	4
S2-	-2
loop_
_atom_site_label
_atom_site_type_symbol
_atom_site_symmetry_multiplicity
_atom_site_Wyckoff_symbol
_atom_site_fract_x
_atom_site_fract_y
_atom_site_fract_z
_atom_site_occupancy
_atom_site_attached_hydrogens
Ca1 Ca2+ 4 a 0 0 0 1. 0 
Ca2 Ca2+ 4 c 0.226 0.25 0.516 1. 0 
Ge1 Ge4+ 4 c 0.408 0.25 0.096 1. 0 
S1 S2- 4 c 0.558 0.25 0.231 1. 0 
S2 S2- 4 c 0.404 0.25 0.749 1. 0 
S3 S2- 8 d 0.324 0.021 0.243 1. 0 

#End of data_23416-ICSD


