data_82144-ICSD
#?2014 by Fachinformationszentrum Karlsruhe, and the U.S. Secretary of 
#Commerce on behalf of the United States.  All rights reserved.
_database_code_ICSD                82144
_audit_creation_date               1999/11/30
_chemical_name_systematic
;
Dipotassium Tecto-tetrathioargentoantimonate
;
_chemical_formula_structural       'K2 (Ag Sb S4)'
_chemical_formula_sum              'Ag1 K2 S4 Sb1'
_publ_section_title
;
Supercritical ammonia synthesis and characterization of four new 
alkali metal silver antimony sulfides: M Ag2 Sb S4 and M2 Ag Sb S4 
(M=K, Rb)
;
loop_
_citation_id
_citation_journal_abbrev
_citation_year
_citation_journal_volume
_citation_page_first
_citation_page_last
_citation_journal_id_ASTM
primary 'Journal of Solid State Chemistry' 1996 123 277 284 JSSCBI
_publ_author_name
;
Schimek, G.L.;Pennington, W.T.;Wood, P.T.;Kolis, J.W.
;
_cell_length_a                     10.348(2)
_cell_length_b                     10.522(2)
_cell_length_c                     7.946(2)
_cell_angle_alpha                  90.
_cell_angle_beta                   90.
_cell_angle_gamma                  90.
_cell_volume                       865.17
_cell_formula_units_Z              4
_symmetry_space_group_name_H-M     'P n n 2'
_symmetry_Int_Tables_number        34
_refine_ls_R_factor_all            .038
loop_
_symmetry_equiv_pos_site_id
_symmetry_equiv_pos_as_xyz
  1	'x+.5, -y+.5, z+.5'
  2	'-x+.5, y+.5, z+.5'
  3	'-x, -y, z'
  4	'x, y, z'
loop_
_atom_type_symbol
_atom_type_oxidation_number
Ag1+	1
K1+	1
S2-	-2
Sb5+	5
loop_
_atom_site_label
_atom_site_type_symbol
_atom_site_symmetry_multiplicity
_atom_site_Wyckoff_symbol
_atom_site_fract_x
_atom_site_fract_y
_atom_site_fract_z
_atom_site_occupancy
_atom_site_attached_hydrogens
_atom_site_U_iso_or_equiv
K1 K1+ 2 b 0 0.5 0.758(1) 1. 0 0.050(7) 
K2 K1+ 2 a 0 0 0.448(1) 1. 0 0.032(4) 
K3 K1+ 4 c 0.2468(6) 0.2349(6) 0.948(2) 1. 0 0.054(4) 
Ag1 Ag1+ 2 a 0 0 0.9519(8) 1. 0 0.061(2) 
Ag2 Ag1+ 2 b 0 0.5 0.2249(6) 1. 0 0.049(3) 
Sb1 Sb5+ 4 c 0.7272(1) 0.7254(1) 0.4485 1. 0 0.0182(7) 
S1 S2- 4 c 0.5500(5) 0.7051(5) 0.2672(7) 1. 0 0.024(3) 
S2 S2- 4 c 0.7104(6) 0.5518(5) 0.6322(8) 1. 0 0.024(3) 
S3 S2- 4 c 0.9238(5) 0.7208(6) 0.3037(8) 1. 0 0.027(5) 
S4 S2- 4 c 0.7201(6) 0.9228(5) 0.5872(7) 1. 0 0.025(3) 

#End of data_82144-ICSD


