data_188422-ICSD
#?2014 by Fachinformationszentrum Karlsruhe, and the U.S. Secretary of 
#Commerce on behalf of the United States.  All rights reserved.
_database_code_ICSD                188422
_audit_creation_date               2014/02/01
_chemical_name_systematic          'Dysprosium Aluminate'
_chemical_formula_structural       'Dy Al O3'
_chemical_formula_sum              'Al1 Dy1 O3'
_publ_section_title
;
Glassy magnetic behavior in the metamagnetic Dy Al O3 doped with Cr
;
loop_
_citation_id
_citation_journal_abbrev
_citation_year
_citation_journal_volume
_citation_journal_issue
_citation_page_first
_citation_page_last
_citation_journal_id_ASTM
primary 'Journal of Materials Science' 2013 48 20 7238 7244 JMTSAS
_publ_author_name
;
Escudero, R.;Ruiz-Herrera, B.L.;Jimenez, M.P.;Morales, F.
;
_cell_length_a                     5.31986(3)
_cell_length_b                     7.40187(5)
_cell_length_c                     5.21007(3)
_cell_angle_alpha                  90.
_cell_angle_beta                   90.
_cell_angle_gamma                  90.
_cell_volume                       205.16
_cell_formula_units_Z              4
_symmetry_space_group_name_H-M     'P n m a'
_symmetry_Int_Tables_number        62
_refine_ls_R_factor_all            .22
loop_
_symmetry_equiv_pos_site_id
_symmetry_equiv_pos_as_xyz
  1	'x+.5, y, -z+.5'
  2	'x, -y+.5, z'
  3	'-x+.5, y+.5, z+.5'
  4	'-x, -y, -z'
  5	'-x+.5, -y, z+.5'
  6	'-x, y+.5, -z'
  7	'x+.5, -y+.5, -z+.5'
  8	'x, y, z'
loop_
_atom_type_symbol
_atom_type_oxidation_number
Al3+	3
Dy3+	3
O2-	-2
loop_
_atom_site_label
_atom_site_type_symbol
_atom_site_symmetry_multiplicity
_atom_site_Wyckoff_symbol
_atom_site_fract_x
_atom_site_fract_y
_atom_site_fract_z
_atom_site_occupancy
_atom_site_attached_hydrogens
Al1 Al3+ 4 a 0 0 0 1. 0 
Dy1 Dy3+ 4 c 0.45209(11) 0.250 -0.00953(20) 1. 0 
O1 O2- 4 c 0.00769(112) 0.250 0.06031(134) 1. 0 
O2 O2- 8 d 0.28016(115) -0.03580(74) 0.21425(106) 1. 0 

#End of data_188422-ICSD


