data_34475-ICSD
#?2014 by Fachinformationszentrum Karlsruhe, and the U.S. Secretary of 
#Commerce on behalf of the United States.  All rights reserved.
_database_code_ICSD                34475
_audit_creation_date               1980/01/01
_audit_update_record               1984/11/02
_chemical_name_systematic          'Aluminium Nitride'
_chemical_formula_structural       'Al N'
_chemical_formula_sum              'Al1 N1'
_publ_section_title
;
Crystal structure refinement of Al N and Ga N
;
loop_
_citation_id
_citation_journal_abbrev
_citation_year
_citation_journal_volume
_citation_page_first
_citation_page_last
_citation_journal_id_ASTM
primary 'Solid State Communications' 1977 23 815 819 SSCOA4
_publ_author_name                  'Schulz, H.;Thiemann, K.H.'
_cell_length_a                     3.110(1)
_cell_length_b                     3.110(1)
_cell_length_c                     4.980(1)
_cell_angle_alpha                  90.
_cell_angle_beta                   90.
_cell_angle_gamma                  120.
_cell_volume                       41.71
_cell_formula_units_Z              2
_symmetry_space_group_name_H-M     'P 63 m c'
_symmetry_Int_Tables_number        186
_refine_ls_R_factor_all            .015
loop_
_symmetry_equiv_pos_site_id
_symmetry_equiv_pos_as_xyz
  1	'-x, -x+y, z+.5'
  2	'x-y, -y, z+.5'
  3	'y, x, z+.5'
  4	'x-y, x, z+.5'
  5	'y, -x+y, z+.5'
  6	'-x, -y, z+.5'
  7	'x, x-y, z'
  8	'-x+y, y, z'
  9	'-y, -x, z'
 10	'-x+y, -x, z'
 11	'-y, x-y, z'
 12	'x, y, z'
loop_
_atom_type_symbol
_atom_type_oxidation_number
Al3+	3
N3-	-3
loop_
_atom_site_label
_atom_site_type_symbol
_atom_site_symmetry_multiplicity
_atom_site_Wyckoff_symbol
_atom_site_fract_x
_atom_site_fract_y
_atom_site_fract_z
_atom_site_occupancy
_atom_site_attached_hydrogens
Al1 Al3+ 2 b -.3333 -.6667 0 1. 0 
N1 N3- 2 b -.3333 -.6667 0.3821(3) 1. 0 

loop_
_atom_site_aniso_label
_atom_site_aniso_type_symbol
_atom_site_aniso_U_11
_atom_site_aniso_U_22
_atom_site_aniso_U_33
_atom_site_aniso_U_12
_atom_site_aniso_U_13
_atom_site_aniso_U_23
Al1 Al3+ 0.0037(2) 0.0037(2) 0.0040(2) 0.0019(1) 0 0
N1 N3- 0.0044(2) 0.0044(2) 0.0046(4) 0.0022(1) 0 0
#End of data_34475-ICSD


