data_411224-ICSD
#?2014 by Fachinformationszentrum Karlsruhe, and the U.S. Secretary of 
#Commerce on behalf of the United States.  All rights reserved.
_database_code_ICSD                411224
_audit_creation_date               2002/04/01
_audit_update_record               2005/10/01
_chemical_name_systematic
;
Dicalcium Cobalt Disilicate - Lt, Subcell
;
_chemical_formula_structural       'Ca2 Co (Si2 O7)'
_chemical_formula_sum              'Ca2 Co1 O7 Si2'
_chemical_name_mineral             'Akermanite (Co-exchanged)'
_publ_section_title
;
The commensurately modulated structure of the lock-in phase of 
synthetic Co-akermanite, Ca2 Co Si2 O7
;
loop_
_citation_id
_citation_journal_abbrev
_citation_year
_citation_journal_volume
_citation_page_first
_citation_page_last
_citation_journal_id_ASTM
primary 'Zeitschrift fuer Kristallographie (1979-2010)' 2000 215 102 109 ZEKRDZ
_publ_author_name                  'Riester, M.;Boehm, H.;Petricek, V.'
_cell_length_a                     7.820(4)
_cell_length_b                     7.820(4)
_cell_length_c                     5.014(2)
_cell_angle_alpha                  90.
_cell_angle_beta                   90.
_cell_angle_gamma                  90.
_cell_volume                       306.62
_cell_formula_units_Z              2
_symmetry_space_group_name_H-M     'P -4'
_symmetry_Int_Tables_number        81
_refine_ls_R_factor_all            .053
loop_
_symmetry_equiv_pos_site_id
_symmetry_equiv_pos_as_xyz
  1	'-y, x, -z'
  2	'y, -x, -z'
  3	'-x, -y, z'
  4	'x, y, z'
loop_
_atom_type_symbol
_atom_type_oxidation_number
Ca2+	2
Co2+	2
O2-	-2
Si4+	4
loop_
_atom_site_label
_atom_site_type_symbol
_atom_site_symmetry_multiplicity
_atom_site_Wyckoff_symbol
_atom_site_fract_x
_atom_site_fract_y
_atom_site_fract_z
_atom_site_occupancy
_atom_site_attached_hydrogens
Co1 Co2+ 1 a 0 0 0 1. 0 
Co2 Co2+ 1 c 0.5 0.5 0 1. 0 
Ca1 Ca2+ 4 h 0.3310(3) 0.1693(3) 0.5065(9) 1. 0 
Si1 Si4+ 4 h 0.1388(3) 0.3609(3) 0.9399(8) 1. 0 
O1 O2- 2 g 0 0.5 0.825(3) 1. 0 
O2 O2- 4 h 0.140(1) 0.358(1) 0.249(3) 1. 0 
O3 O2- 4 h 0.077(1) 0.191(1) 0.785(4) 1. 0 
O4 O2- 4 h 0.3106(8) 0.419(1) 0.778(3) 1. 0 

loop_
_atom_site_aniso_label
_atom_site_aniso_type_symbol
_atom_site_aniso_U_11
_atom_site_aniso_U_22
_atom_site_aniso_U_33
_atom_site_aniso_U_12
_atom_site_aniso_U_13
_atom_site_aniso_U_23
Co1 Co2+ 0.0113(6) 0.0113(6) 0.005(3) 0 0 0
Co2 Co2+ 0.0118(7) 0.0118(7) 0.008(3) 0 0 0
Ca1 Ca2+ 0.032(1) 0.034(1) 0.005(2) 0.0248(8) -.002(2) -.001(2)
Si1 Si4+ 0.012(1) 0.011(1) 0.006(4) 0.0033(8) 0.002(2) -.001(2)
O1 O2- 0.046(8) 0.064(9) 0.01(1) 0.039(6) 0 0
O2 O2- 0.034(5) 0.032(5) 0.008(9) 0.016(4) -.006(5) -.001(5)
O3 O2- 0.089(5) 0.015(3) 0.029(6) -.018(3) 0.010(5) -.024(3)
O4 O2- 0.015(3) 0.089(5) 0.029(6) -.018(3) 0.024(3) -.010(5)
#End of data_411224-ICSD


