data_75513-ICSD
#?2014 by Fachinformationszentrum Karlsruhe, and the U.S. Secretary of 
#Commerce on behalf of the United States.  All rights reserved.
_database_code_ICSD                75513
_audit_creation_date               1996/04/22
_chemical_name_systematic          'Trisodium Antimony Tritelluride'
_chemical_formula_structural       'Na3 Sb Te3'
_chemical_formula_sum              'Na3 Sb1 Te3'
_publ_section_title
;
The structure of Na3 Sb Te3: how ionic and covalent bonding forces 
work together
;
loop_
_citation_id
_citation_journal_abbrev
_citation_year
_citation_journal_volume
_citation_page_first
_citation_page_last
_citation_journal_id_ASTM
primary 'Journal of Solid State Chemistry' 1994 113 296 302 JSSCBI
_publ_author_name                  'Lin, J.-H.;Miller, G.J.'
_cell_length_a                     9.617(1)
_cell_length_b                     9.617(1)
_cell_length_c                     9.617(1)
_cell_angle_alpha                  90.
_cell_angle_beta                   90.
_cell_angle_gamma                  90.
_cell_volume                       889.44
_cell_formula_units_Z              4
_symmetry_space_group_name_H-M     'P 21 3'
_symmetry_Int_Tables_number        198
_refine_ls_R_factor_all            .032
loop_
_symmetry_equiv_pos_site_id
_symmetry_equiv_pos_as_xyz
  1	'-z+.5, -x, y+.5'
  2	'-y+.5, -z, x+.5'
  3	'-x+.5, -y, z+.5'
  4	'-z, x+.5, -y+.5'
  5	'-y, z+.5, -x+.5'
  6	'-x, y+.5, -z+.5'
  7	'z+.5, -x+.5, -y'
  8	'y+.5, -z+.5, -x'
  9	'x+.5, -y+.5, -z'
 10	'z, x, y'
 11	'y, z, x'
 12	'x, y, z'
loop_
_atom_type_symbol
_atom_type_oxidation_number
Na1+	1
Sb3+	3
Te2-	-2
loop_
_atom_site_label
_atom_site_type_symbol
_atom_site_symmetry_multiplicity
_atom_site_Wyckoff_symbol
_atom_site_fract_x
_atom_site_fract_y
_atom_site_fract_z
_atom_site_occupancy
_atom_site_attached_hydrogens
_atom_site_U_iso_or_equiv
Sb1 Sb3+ 4 a -.0373(1) -.0373(1) -.0373(1) 1. 0 0.021(1) 
Te1 Te2- 12 b 0.2378(1) 0.8813(1) 0.0030(1) 1. 0 0.025(1) 
Na1 Na1+ 4 a 0.1842(7) 0.1842(7) 0.1842(7) 1. 0 0.033(1) 
Na2 Na1+ 4 a 0.6723(7) 0.6723(7) 0.6723(7) 1. 0 0.030(1) 
Na3 Na1+ 4 a 0.4134(7) 0.4134(7) 0.4134(7) 1. 0 0.048(2) 

#End of data_75513-ICSD


