data_72816-ICSD
#?2014 by Fachinformationszentrum Karlsruhe, and the U.S. Secretary of 
#Commerce on behalf of the United States.  All rights reserved.
_database_code_ICSD                72816
_audit_creation_date               1994/01/19
_audit_update_record               2005/10/01
_chemical_name_systematic
;
Distrontium Calcium Molybdate - Alpha
;
_chemical_formula_structural       'Sr2 Ca (Mo O6)'
_chemical_formula_sum              'Ca1 Mo1 O6 Sr2'
_publ_section_title
;
Phase transition and crystal structure of a new compound Sr2CaMoO6
;
loop_
_citation_id
_citation_journal_abbrev
_citation_year
_citation_journal_volume
_citation_page_first
_citation_page_last
_citation_journal_id_ASTM
primary 'Wu Li Hsueh Pao (= Acta Physica Sinica)' 1992 41 938 947 WLHPAR
2 'Golden Book of Phase Transitions, Wroclaw' 2002 1 1 123 GBOPT5
_publ_author_name                  'Fu, Z.-M.;Li, Z.-W.;Li, W.-X.'
_cell_length_a                     8.1933(10)
_cell_length_b                     5.7611(10)
_cell_length_c                     5.841(1)
_cell_angle_alpha                  90.
_cell_angle_beta                   90.
_cell_angle_gamma                  90.
_cell_volume                       275.71
_cell_formula_units_Z              2
_symmetry_space_group_name_H-M     'P m m 2'
_symmetry_Int_Tables_number        25
_refine_ls_R_factor_all            .105
loop_
_symmetry_equiv_pos_site_id
_symmetry_equiv_pos_as_xyz
  1	'-x, y, z'
  2	'x, -y, z'
  3	'-x, -y, z'
  4	'x, y, z'
loop_
_atom_type_symbol
_atom_type_oxidation_number
Ca2+	2
Mo6+	6
O2-	-2
Sr2+	2
loop_
_atom_site_label
_atom_site_type_symbol
_atom_site_symmetry_multiplicity
_atom_site_Wyckoff_symbol
_atom_site_fract_x
_atom_site_fract_y
_atom_site_fract_z
_atom_site_occupancy
_atom_site_attached_hydrogens
_atom_site_B_iso_or_equiv
Sr1 Sr2+ 2 e 0.26 0 0.5 1. 0 0.6 
Sr2 Sr2+ 2 f 0.25 0.5 0.01 1. 0 0.6 
Mo1 Mo6+ 1 a 0 0 0.95 1. 0 0.6 
Mo2 Mo6+ 1 d 0.5 0.5 0.5 1. 0 0.6 
Ca1 Ca2+ 1 b 0 0.5 0.45 1. 0 0.6 
Ca2 Ca2+ 1 c 0.5 0 0 1. 0 0.6 
O1 O2- 2 g 0 0.23 0.18 1. 0 0.6 
O2 O2- 2 g 0 0.77 0.72 1. 0 0.6 
O3 O2- 2 h 0.5 0.27 0.73 1. 0 0.6 
O4 O2- 2 h 0.5 0.27 0.27 1. 0 0.6 
O5 O2- 2 e 0.23 0 0.95 1. 0 0.6 
O6 O2- 2 f 0.27 0.5 0.5 1. 0 0.6 

#End of data_72816-ICSD


