data_15314-ICSD
#?2014 by Fachinformationszentrum Karlsruhe, and the U.S. Secretary of 
#Commerce on behalf of the United States.  All rights reserved.
_database_code_ICSD                15314
_audit_creation_date               1986/08/07
_audit_update_record               2013/08/01
_chemical_name_systematic
;
Sodium Calcium Phyllo-beryllodisilicate Fluoride
;
_chemical_formula_structural       'Ca Na (Be Si2 O6) F'
_chemical_formula_sum              'Be1 Ca1 F1 Na1 O6 Si2'
_chemical_name_mineral             Leucophanite
_publ_section_title
;
The crystal structure of leucophanite
;
loop_
_citation_id
_citation_journal_abbrev
_citation_year
_citation_journal_volume
_citation_page_first
_citation_page_last
_citation_journal_id_ASTM
primary 'Acta Crystallographica (1,1948-23,1967)' 1967 23 255 259 ACCRA9
_publ_author_name
;
Cannillo, E.;Giuseppetti, G.;Tazzoli, V.
;
_cell_length_a                     7.401(8)
_cell_length_b                     7.420(8)
_cell_length_c                     9.939(5)
_cell_angle_alpha                  90.
_cell_angle_beta                   90.
_cell_angle_gamma                  90.
_cell_volume                       545.8
_cell_formula_units_Z              4
_symmetry_space_group_name_H-M     'P 21 21 21'
_symmetry_Int_Tables_number        19
_refine_ls_R_factor_all            .094
loop_
_symmetry_equiv_pos_site_id
_symmetry_equiv_pos_as_xyz
  1	'-x, y+.5, -z+.5'
  2	'x+.5, -y+.5, -z'
  3	'-x+.5, -y, z+.5'
  4	'x, y, z'
loop_
_atom_type_symbol
_atom_type_oxidation_number
Be2+	2
Ca2+	2
F1-	-1
Na1+	1
O2-	-2
Si4+	4
loop_
_atom_site_label
_atom_site_type_symbol
_atom_site_symmetry_multiplicity
_atom_site_Wyckoff_symbol
_atom_site_fract_x
_atom_site_fract_y
_atom_site_fract_z
_atom_site_occupancy
_atom_site_attached_hydrogens
_atom_site_B_iso_or_equiv
Ca1 Ca2+ 4 a 0.1050(4) 0.8265(5) 0.9894(3) 1. 0 1.23 
Na1 Na1+ 4 a 0.0670(11) 0.8535(13) 0.5059(8) 1. 0 2.33 
Si1 Si4+ 4 a 0.7406(5) 0.0132(7) 0.2507(4) 1. 0 0.85 
Si2 Si4+ 4 a 0.1080(5) 0.1508(7) 0.2265(4) 1. 0 0.71 
Be1 Be2+ 4 a 0.1091(24) 0.1268(50) 0.7174(32) 1. 0 1.84 
O1 O2- 4 a 0.2421(20) 0.0037(23) 0.1623(14) 1. 0 1.38 
O2 O2- 4 a 0.1052(20) 0.1607(29) 0.3829(22) 1. 0 1.46 
O3 O2- 4 a 0.8382(12) 0.8484(21) 0.3381(12) 1. 0 1.28 
O4 O2- 4 a 0.8383(14) 0.8308(20) 0.8476(12) 1. 0 1.33 
O5 O2- 4 a 0.9130(14) 0.0746(19) 0.6574(10) 1. 0 1.46 
O6 O2- 4 a 0.9087(17) 0.1000(18) 0.1627(13) 1. 0 1.35 
F1 F1- 4 a 0.1021(13) 0.1315(17) 0.8753(9) 1. 0 1.66 

#End of data_15314-ICSD


