data_153239-ICSD
#?2014 by Fachinformationszentrum Karlsruhe, and the U.S. Secretary of 
#Commerce on behalf of the United States.  All rights reserved.
_database_code_ICSD                153239
_audit_creation_date               2006/10/01
_chemical_name_systematic          'Calcium Manganese Oxide (1/1/2.98)'
_chemical_formula_structural       'Ca (Mn O2.98)'
_chemical_formula_sum              'Ca1 Mn1 O2.98'
_publ_section_title
;
Morphological and magnetic study of Ca Mn O3-x oxides obtained from 
different routes
;
loop_
_citation_id
_citation_journal_abbrev
_citation_year
_citation_journal_volume
_citation_page_first
_citation_page_last
_citation_journal_id_ASTM
primary 'Journal of Solid State Chemistry' 2005 178 928 936 JSSCBI
_publ_author_name
;
Gil de Muro, I.;Insausti, M.;Lezama, L.;Rojo, T.
;
_cell_length_a                     5.2715(1)
_cell_length_b                     7.4619(2)
_cell_length_c                     5.2859(1)
_cell_angle_alpha                  90.
_cell_angle_beta                   90.
_cell_angle_gamma                  90.
_cell_volume                       207.92
_cell_formula_units_Z              4
_symmetry_space_group_name_H-M     'P n m a'
_symmetry_Int_Tables_number        62
_refine_ls_R_factor_all            .082
loop_
_symmetry_equiv_pos_site_id
_symmetry_equiv_pos_as_xyz
  1	'x+.5, y, -z+.5'
  2	'x, -y+.5, z'
  3	'-x+.5, y+.5, z+.5'
  4	'-x, -y, -z'
  5	'-x+.5, -y, z+.5'
  6	'-x, y+.5, -z'
  7	'x+.5, -y+.5, -z+.5'
  8	'x, y, z'
loop_
_atom_type_symbol
_atom_type_oxidation_number
Ca2+	2
Mn4+	4
O2-	-2
loop_
_atom_site_label
_atom_site_type_symbol
_atom_site_symmetry_multiplicity
_atom_site_Wyckoff_symbol
_atom_site_fract_x
_atom_site_fract_y
_atom_site_fract_z
_atom_site_occupancy
_atom_site_attached_hydrogens
Ca1 Ca2+ 4 c 0.0248(1) 0.250 -0.001(2) 1. 0 
Mn1 Mn4+ 4 b 0 0 0.5 1. 0 
O1 O2- 4 c 0.477(3) 0.250 0.038(5) 1. 0 
O2 O2- 8 d 0.291(3) 0.047(2) 0.712(3) 1. 0 

#End of data_153239-ICSD


