data_170175-ICSD
#?2014 by Fachinformationszentrum Karlsruhe, and the U.S. Secretary of 
#Commerce on behalf of the United States.  All rights reserved.
_database_code_ICSD                170175
_audit_creation_date               2006/04/01
_chemical_name_systematic          'Dilanthanum Sodium Osmium Oxide'
_chemical_formula_structural       'La2 Na Os O6'
_chemical_formula_sum              'La2 Na1 O6 Os1'
_publ_section_title
;
Crystal growth and magnetic properties of lanthanide-containing 
osmium double perovskites, Ln2 Na Os O6 (Ln = La, Pr, Nd)
;
loop_
_citation_id
_citation_journal_abbrev
_citation_year
_citation_journal_volume
_citation_journal_issue
_citation_page_first
_citation_page_last
_citation_journal_id_ASTM
primary 'Inorganic Chemistry' 2005 44 8 2639 2646 INOCAJ
_publ_author_name
;
Gemmill, W.R.;Smith, M.D.;Prozorov, R.;zur Loye, H.C.
;
_cell_length_a                     5.6054(3)
_cell_length_b                     5.9445(3)
_cell_length_c                     8.0285(4)
_cell_angle_alpha                  90.00
_cell_angle_beta                   90.587(2)
_cell_angle_gamma                  90.00
_cell_volume                       267.51
_cell_formula_units_Z              2
_symmetry_space_group_name_H-M     'P 1 21/n 1'
_symmetry_Int_Tables_number        14
_refine_ls_R_factor_all            .0258
loop_
_symmetry_equiv_pos_site_id
_symmetry_equiv_pos_as_xyz
  1	'-x+.5, y+.5, -z+.5'
  2	'-x, -y, -z'
  3	'x+.5, -y+.5, z+.5'
  4	'x, y, z'
loop_
_atom_type_symbol
_atom_type_oxidation_number
La3+	3
Na1+	1
O2-	-2
Os5+	5
loop_
_atom_site_label
_atom_site_type_symbol
_atom_site_symmetry_multiplicity
_atom_site_Wyckoff_symbol
_atom_site_fract_x
_atom_site_fract_y
_atom_site_fract_z
_atom_site_occupancy
_atom_site_attached_hydrogens
_atom_site_U_iso_or_equiv
La1 La3+ 4 e 0.48392(5) 0.06436(6) 0.25187(3) 1 0 0.00639(10) 
Na1 Na1+ 2 a 0.0000 0.0000 0.0000 1 0 0.0081(6) 
Os1 Os5+ 2 b 0.5000 0.5000 0.0000 1 0 0.00405(10) 
O1 O2- 4 e 0.2126(7) 0.3237(7) 0.0479(4) 1 0 0.0074(7) 
O2 O2- 4 e 0.6050(7) 0.4587(7) 0.2306(5) 1 0 0.0085(7) 
O3 O2- 4 e 0.3309(7) 0.7788(7) 0.0598(5) 1 0 0.0090(7) 

loop_
_atom_site_aniso_label
_atom_site_aniso_type_symbol
_atom_site_aniso_U_11
_atom_site_aniso_U_22
_atom_site_aniso_U_33
_atom_site_aniso_U_12
_atom_site_aniso_U_13
_atom_site_aniso_U_23
La1 La3+ 0.00740(15) 0.00568(18) 0.00610(15) -0.00052(10) 0.00003(10) 
0.00036(9)
Na1 Na1+ 0.0103(16) 0.0075(17) 0.0064(14) 0.0006(10) -0.0022(12) 0.0011(11)
Os1 Os5+ 0.00452(14) 0.00409(17) 0.00353(13) -0.00007(8) 0.00019(9) 
-0.00009(8)
O1 O2- 0.0107(17) 0.0061(18) 0.0054(14) -0.0021(13) 0.0020(12) -0.0002(13)
O2 O2- 0.0120(19) 0.010(2) 0.0039(16) -0.0027(14) -0.0018(14) 0.0021(13)
O3 O2- 0.0109(17) 0.0079(19) 0.0080(16) 0.0027(14) -0.0013(13) -0.0038(14)
#End of data_170175-ICSD


