data_201603-ICSD
#?2014 by Fachinformationszentrum Karlsruhe, and the U.S. Secretary of 
#Commerce on behalf of the United States.  All rights reserved.
_database_code_ICSD                201603
_audit_creation_date               1985/07/17
_audit_update_record               2013/02/01
_chemical_name_systematic
;
Dipotassium Tellurium(IV) Pentafluoride Chloride
;
_chemical_formula_structural       'K2 Te F5 Cl'
_chemical_formula_sum              'Cl1 F5 K2 Te1'
_publ_section_title
;
Synthesis and structure of Te(IV) fluoride nitrates and chloride 
fluorides
;
loop_
_citation_id
_citation_journal_abbrev
_citation_year
_citation_journal_volume
_citation_page_first
_citation_page_last
_citation_journal_id_ASTM
primary 'Koordinatsionnaya Khimiya (= Coordination Chemistry (USSR))'
 1984 10 340 349 KOKHDC
_publ_author_name
;
Gorbunova, Yu.E.;Linde, S.A.;Pakhomov, V.I.;Kokunov, 
Yu.V.;Gustyakova, M.P.;Buslaev, Yu.A.
;
_cell_length_a                     4.590(1)
_cell_length_b                     10.490(2)
_cell_length_c                     14.925(3)
_cell_angle_alpha                  90.
_cell_angle_beta                   91.16(2)
_cell_angle_gamma                  90.
_cell_volume                       718.48
_cell_formula_units_Z              4
_symmetry_space_group_name_H-M     'P 1 21/n 1'
_symmetry_Int_Tables_number        14
_refine_ls_R_factor_all            .062
loop_
_symmetry_equiv_pos_site_id
_symmetry_equiv_pos_as_xyz
  1	'-x+.5, y+.5, -z+.5'
  2	'-x, -y, -z'
  3	'x+.5, -y+.5, z+.5'
  4	'x, y, z'
loop_
_atom_type_symbol
_atom_type_oxidation_number
Cl1-	-1
F1-	-1
K1+	1
Te4+	4
loop_
_atom_site_label
_atom_site_type_symbol
_atom_site_symmetry_multiplicity
_atom_site_Wyckoff_symbol
_atom_site_fract_x
_atom_site_fract_y
_atom_site_fract_z
_atom_site_occupancy
_atom_site_attached_hydrogens
Te1 Te4+ 4 e 0.1501(8) 0.1301(2) 0.3186(1) 1. 0 
Cl1 Cl1- 4 e 0.267(2) 0.129(1) 0.0954(4) 1. 0 
K1 K1+ 4 e 0.265(3) 0.5747(7) 0.6073(4) 1. 0 
K2 K1+ 4 e 0.267(3) 0.1606(7) 0.5791(5) 1. 0 
F1 F1- 4 e 0.270(6) 0.271(2) 0.399(1) 1. 0 
F2 F1- 4 e 0.114(8) 0.747(2) 0.740(1) 1. 0 
F3 F1- 4 e 0.125(8) 0.007(2) 0.729(1) 1. 0 
F4 F1- 4 e 0.279(6) 0.003(2) 0.412(1) 1. 0 
F5 F1- 4 e 0.163(4) 0.863(2) 0.598(1) 1. 0 

loop_
_atom_site_aniso_label
_atom_site_aniso_type_symbol
_atom_site_aniso_B_11
_atom_site_aniso_B_22
_atom_site_aniso_B_33
_atom_site_aniso_B_12
_atom_site_aniso_B_13
_atom_site_aniso_B_23
Te1 Te4+ 4.2(2) 2.15(9) 1.50(6) -.1(2) 0.8(1) -.19(9)
Cl1 Cl1- 2.8(7) 2.9(4) 2.0(3) -.1(5) 0.9(4) 0.0(3)
K1 K1+ 2.7(7) 2.4(4) 1.9(2) 0.5(4) 0.5(4) 0.5(2)
K2 K1+ 4.7(8) 3.1(5) 2.3(3) 0.0(5) 0.5(5) -.2(3)
F1 F1- 7.(2) 2.(1) 3.9(9) -.6(9) 1.(1) -1.1(7)
F2 F1- 5.(2) 9.(2) 1.6(7) 5.(2) -2.(1) -.4(9)
F3 F1- 6.(2) 3.(1) 2.2(7) -2.(1) -2.(1) -1.2(7)
F4 F1- 2.(2) 4.(1) 2.4(8) -2.(1) -1.0 0.5(7)
F5 F1- 0.4(1) 2.4(9) 3.9(8) 0.9(10) 1.0(9) 0.7(7)
#End of data_201603-ICSD


