data_16906-ICSD
#?2014 by Fachinformationszentrum Karlsruhe, and the U.S. Secretary of 
#Commerce on behalf of the United States.  All rights reserved.
_database_code_ICSD                16906
_audit_creation_date               1980/01/01
_audit_update_record               1998/06/26
_chemical_name_systematic          'Calcium Manganese Silicate *'
_chemical_formula_structural       'Ca4 Mn4 Si8 O24'
_chemical_formula_sum              'Ca4 Mn4 O24 Si8'
_chemical_name_mineral             Johannsenite
_publ_section_title
;
Refinement of the Crystal Structure of Johannsenite
;
loop_
_citation_id
_citation_journal_abbrev
_citation_year
_citation_journal_volume
_citation_page_first
_citation_page_last
_citation_journal_id_ASTM
primary 'American Mineralogist' 1967 52 709 720 AMMIAY
_publ_author_name                  'Freed, R.L.;Peacor, D.R.'
_cell_length_a                     9.978(9)
_cell_length_b                     9.156(9)
_cell_length_c                     5.293(5)
_cell_angle_alpha                  90.
_cell_angle_beta                   105.48(3)
_cell_angle_gamma                  90.
_cell_volume                       466.02
_cell_formula_units_Z              1
_symmetry_space_group_name_H-M     'C 1 2/c 1'
_symmetry_Int_Tables_number        15
_refine_ls_R_factor_all            .066
loop_
_symmetry_equiv_pos_site_id
_symmetry_equiv_pos_as_xyz
  1	'x, -y, z+.5'
  2	'-x, -y, -z'
  3	'-x, y, -z+.5'
  4	'x, y, z'
  5	'x+.5, -y+.5, z+.5'
  6	'-x+.5, -y+.5, -z'
  7	'-x+.5, y+.5, -z+.5'
  8	'x+.5, y+.5, z'
loop_
_atom_type_symbol
_atom_type_oxidation_number
Ca2+	2
Mn2+	2
O2-	-2
Si4+	4
loop_
_atom_site_label
_atom_site_type_symbol
_atom_site_symmetry_multiplicity
_atom_site_Wyckoff_symbol
_atom_site_fract_x
_atom_site_fract_y
_atom_site_fract_z
_atom_site_occupancy
_atom_site_attached_hydrogens
_atom_site_B_iso_or_equiv
Ca1 Ca2+ 4 e 0 0.6981(2) 0.75 1. 0 0.58 
Mn1 Mn2+ 4 e 0 0.0947(2) 0.75 1. 0 0.48 
Si1 Si4+ 8 f 0.2129(2) 0.4083(2) 0.7637(4) 1. 0 0.26 
O1 O2- 8 f 0.3797(6) 0.4070(5) 0.8459(11) 1. 0 0.39 
O2 O2- 8 f 0.1368(5) 0.2569(6) 0.6705(10) 1. 0 0.47 
O3 O2- 8 f 0.1518(7) 0.4794(6) 0.0043(12) 1. 0 0.4 

#End of data_16906-ICSD


