data_400816-ICSD
#?2014 by Fachinformationszentrum Karlsruhe, and the U.S. Secretary of 
#Commerce on behalf of the United States.  All rights reserved.
_database_code_ICSD                400816
_audit_creation_date               1995/10/17
_chemical_name_systematic          'Potassium Tetraiodogallate'
_chemical_formula_structural       'K (Ga I4)'
_chemical_formula_sum              'Ga1 I4 K1'
_publ_section_title
;
Crystal structure of potassium tetraiodogallate(III), K Ga I4
;
loop_
_citation_id
_citation_journal_abbrev
_citation_year
_citation_journal_volume
_citation_page_first
_citation_page_last
_citation_journal_id_ASTM
primary 'Zeitschrift fuer Kristallographie (1979-2010)' 1995 210 61 61 ZEKRDZ
_publ_author_name                  'Burnus, R.;Zajonc, A.;Meyer, G.'
_cell_length_a                     8.3474(8)
_cell_length_b                     7.8142(10)
_cell_length_c                     16.0780(30)
_cell_angle_alpha                  90.
_cell_angle_beta                   95.896(12)
_cell_angle_gamma                  90.
_cell_volume                       1043.19
_cell_formula_units_Z              4
_symmetry_space_group_name_H-M     'P 1 21/c 1'
_symmetry_Int_Tables_number        14
_refine_ls_R_factor_all            .039
loop_
_symmetry_equiv_pos_site_id
_symmetry_equiv_pos_as_xyz
  1	'x, -y+.5, z+.5'
  2	'-x, -y, -z'
  3	'-x, y+.5, -z+.5'
  4	'x, y, z'
loop_
_atom_type_symbol
_atom_type_oxidation_number
Ga3+	3
I1-	-1
K1+	1
loop_
_atom_site_label
_atom_site_type_symbol
_atom_site_symmetry_multiplicity
_atom_site_Wyckoff_symbol
_atom_site_fract_x
_atom_site_fract_y
_atom_site_fract_z
_atom_site_occupancy
_atom_site_attached_hydrogens
K1 K1+ 4 e 0.2573(3) 0.4932(4) 0.35908(15) 1. 0 
Ga1 Ga3+ 4 e 0.24299(11) 0.64281(13) 0.63866(5) 1. 0 
I1 I1- 4 e 0.14052(8) 0.14996(8) 0.09008(4) 1. 0 
I2 I1- 4 e 0.41506(8) 0.60781(9) 0.77850(3) 1. 0 
I3 I1- 4 e 0.98272(8) 0.35352(9) 0.84147(4) 1. 0 
I4 I1- 4 e 0.41598(9) 0.76584(10) 0.53121(4) 1. 0 

loop_
_atom_site_aniso_label
_atom_site_aniso_type_symbol
_atom_site_aniso_U_11
_atom_site_aniso_U_22
_atom_site_aniso_U_33
_atom_site_aniso_U_12
_atom_site_aniso_U_13
_atom_site_aniso_U_23
K1 K1+ 0.0746(15) 0.112(2) 0.098(2) -.010(2) 0.0090(12) 0.016(2)
Ga1 Ga3+ 0.0678(6) 0.0505(6) 0.0453(5) -.0050(5) 0.0105(4) -.0012(4)
I1 I1- 0.0804(4) 0.0536(4) 0.0701(4) 0.0078(4) 0.0071(3) 0.0093(3)
I2 I1- 0.0919(5) 0.0702(4) 0.0495(3) 0.0005(4) -.0019(3) 0.0008(3)
I3 I1- 0.0875(5) 0.0622(5) 0.0849(4) -.0124(4) 0.0121(3) 0.0117(4)
I4 I1- 0.1017(6) 0.0821(5) 0.0559(3) -.0255(4) 0.0244(3) 0.0042(3)
#End of data_400816-ICSD


