data_156766-ICSD
#?2014 by Fachinformationszentrum Karlsruhe, and the U.S. Secretary of 
#Commerce on behalf of the United States.  All rights reserved.
_database_code_ICSD                156766
_audit_creation_date               2008/02/01
_chemical_name_systematic
;
Tetrasilver Manganese Bis(trithioantimonate(III))
;
_chemical_formula_structural       'Ag4 Mn (Sb S3)2'
_chemical_formula_sum              'Ag4 Mn1 S6 Sb2'
_chemical_name_mineral             Samsonite
_publ_section_title
;
Gram-Charlier development of the atomic displacement factors into 
mineral structures: the case of samsonite, Ag4 Mn Sb2 S6
;
loop_
_citation_id
_citation_journal_abbrev
_citation_year
_citation_journal_volume
_citation_page_first
_citation_page_last
_citation_journal_id_ASTM
primary 'American Mineralogist' 2007 92 886 891 AMMIAY
_publ_author_name                  'Bindi, L.;Evain, M.'
_cell_length_a                     10.3838(9)
_cell_length_b                     8.1364(8)
_cell_length_c                     6.6737(7)
_cell_angle_alpha                  90.
_cell_angle_beta                   92.640(15)
_cell_angle_gamma                  90.
_cell_volume                       563.24
_cell_formula_units_Z              2
_symmetry_space_group_name_H-M     'P 1 21/n 1'
_symmetry_Int_Tables_number        14
_refine_ls_R_factor_all            .0553
loop_
_symmetry_equiv_pos_site_id
_symmetry_equiv_pos_as_xyz
  1	'-x+.5, y+.5, -z+.5'
  2	'-x, -y, -z'
  3	'x+.5, -y+.5, z+.5'
  4	'x, y, z'
loop_
_atom_type_symbol
_atom_type_oxidation_number
Ag1+	1
Mn2+	2
S2-	-2
Sb3+	3
loop_
_atom_site_label
_atom_site_type_symbol
_atom_site_symmetry_multiplicity
_atom_site_Wyckoff_symbol
_atom_site_fract_x
_atom_site_fract_y
_atom_site_fract_z
_atom_site_occupancy
_atom_site_attached_hydrogens
_atom_site_U_iso_or_equiv
Mn1 Mn2+ 2 b 0 0 0.5 1. 0 0.0220(3) 
Sb1 Sb3+ 4 e 0.18327(3) 0.16638(5) 0.03790(5) 1. 0 0.02142(10) 
Ag1 Ag1+ 4 e 0.30561(12) 0.2533(2) 0.57050(17) 1. 0 0.0597(3) 
Ag2 Ag1+ 4 e 0.4960(2) 0.97038(19) 0.7609(2) 1. 0 0.0822(3) 
S1 S2- 4 e 0.09021(13) 0.26934(18) 0.34277(19) 1. 0 0.0222(4) 
S2 S2- 4 e 0.51487(12) 0.67407(17) 0.67019(18) 1. 0 0.0214(3) 
S3 S2- 4 e 0.26330(13) 0.42261(18) -0.1099(2) 1. 0 0.0241(4) 

loop_
_atom_site_aniso_label
_atom_site_aniso_type_symbol
_atom_site_aniso_U_11
_atom_site_aniso_U_22
_atom_site_aniso_U_33
_atom_site_aniso_U_12
_atom_site_aniso_U_13
_atom_site_aniso_U_23
Mn1 Mn2+ 0.0208(5) 0.0239(6) 0.0214(5) 0.0000(5) 0.0006(4) 0.0002(4)
Sb1 Sb3+ 0.02068(18) 0.02229(19) 0.02127(17) 0.00301(14) 0.00091(11) 
0.00066(14)
Ag1 Ag1+ 0.0425(3) 0.0982(6) 0.0392(3) -0.0263(3) 0.0101(2) -0.0106(3)
Ag2 Ag1+ 0.1404(8) 0.0414(4) 0.0647(5) -0.0455(5) 0.0051(4) -0.0142(3)
S1 S2- 0.0264(7) 0.0211(7) 0.0192(6) 0.0012(5) 0.0026(5) 0.0021(5)
S2 S2- 0.0154(3) 0.0184(3) 0.0139(2) 0.0008(2) 0.00080(19) 0.0018(2)
S3 S2- 0.0157(3) 0.0167(3) 0.0219(3) -0.0029(2) 0.0008(2) 0.0019(2)
#End of data_156766-ICSD


