data_67952-ICSD
#?2014 by Fachinformationszentrum Karlsruhe, and the U.S. Secretary of 
#Commerce on behalf of the United States.  All rights reserved.
_database_code_ICSD                67952
_audit_creation_date               1995/01/10
_chemical_name_systematic
;
Heptasilver Copper Bis(diarsenate) Chloride
;
_chemical_formula_structural       'Ag7 Cu (As2 O7)2 Cl'
_chemical_formula_sum              'Ag7 As4 Cl1 Cu1 O14'
_publ_section_title
;
Crystal structure of Ag5Cu(AsO4)(As2O7) and Ag7Cu(As2O7)2Cl with a 
survey on pyroarsenate anions
;
loop_
_citation_id
_citation_journal_abbrev
_citation_year
_citation_journal_volume
_citation_page_first
_citation_page_last
_citation_journal_id_ASTM
primary 'Zeitschrift fuer Kristallographie (1979-2010)' 1993 207 223 236 ZEKRDZ
_publ_author_name                  'Effenberger, H.;Pertlik, F.'
_cell_length_a                     10.335(2)
_cell_length_b                     8.992(2)
_cell_length_c                     16.546(3)
_cell_angle_alpha                  90.
_cell_angle_beta                   95.21(2)
_cell_angle_gamma                  90.
_cell_volume                       1531.31
_cell_formula_units_Z              4
_symmetry_space_group_name_H-M     'C 1 c 1'
_symmetry_Int_Tables_number        9
_refine_ls_R_factor_all            .036
loop_
_symmetry_equiv_pos_site_id
_symmetry_equiv_pos_as_xyz
  1	'x, -y, z+.5'
  2	'x, y, z'
  3	'x+.5, -y+.5, z+.5'
  4	'x+.5, y+.5, z'
loop_
_atom_type_symbol
_atom_type_oxidation_number
Ag1+	1
As5+	5
Cl1-	-1
Cu2+	2
O2-	-2
loop_
_atom_site_label
_atom_site_type_symbol
_atom_site_symmetry_multiplicity
_atom_site_Wyckoff_symbol
_atom_site_fract_x
_atom_site_fract_y
_atom_site_fract_z
_atom_site_occupancy
_atom_site_attached_hydrogens
Ag1 Ag1+ 4 a 0 0.05742(11) 0 1. 0 
Ag2 Ag1+ 4 a 0.1445(1) 0.73900(14) -.01670(5) 1. 0 
Ag3 Ag1+ 4 a 0.24401(9) 0.26059(10) -.00888(5) 1. 0 
Ag4 Ag1+ 4 a 0.27567(14) 0.60680(9) 0.15673(11) 1. 0 
Ag5 Ag1+ 4 a 0.31705(10) 0.26644(11) 0.31980(6) 1. 0 
Ag6 Ag1+ 4 a 0.38076(10) 0.76630(12) 0.32199(6) 1. 0 
Ag7 Ag1+ 4 a 0.05882(10) 0.57260(12) 0.31468(5) 1. 0 
Cu1 Cu2+ 4 a 0.28160(15) 0.00516(13) 0.15882(10) 1. 0 
As1 As5+ 4 a -.07283(11) 0.45037(13) -.00281(7) 1. 0 
As2 As5+ 4 a 0.06980(12) 0.31751(13) 0.15469(7) 1. 0 
As3 As5+ 4 a -.01432(11) 0.82598(13) 0.15753(7) 1. 0 
As4 As5+ 4 a 0.11434(11) 0.98619(13) 0.31492(7) 1. 0 
O1 O2- 4 a 0.0678(7) 0.4236(9) 0.0634(4) 1. 0 
O2 O2- 4 a -.0187(7) 0.5628(9) -.0714(4) 1. 0 
O3 O2- 4 a -.1286(8) 0.2867(9) -.0356(4) 1. 0 
O4 O2- 4 a -.1826(7) 0.5382(9) 0.0488(4) 1. 0 
O5 O2- 4 a -.0866(7) 0.3207(8) 0.1744(4) 1. 0 
O6 O2- 4 a 0.1699(7) 0.4094(9) 0.2205(4) 1. 0 
O7 O2- 4 a 0.1210(8) 0.1510(9) 0.1298(5) 1. 0 
O8 O2- 4 a -.0115(6) 0.9572(9) 0.2379(4) 1. 0 
O9 O2- 4 a 0.1341(7) 0.8124(9) 0.1244(4) 1. 0 
O10 O2- 4 a -.1200(7) 0.9065(9) 0.0879(4) 1. 0 
O11 O2- 4 a -.0660(8) 0.6732(9) 0.2017(4) 1. 0 
O12 O2- 4 a 0.0925(8) 1.1569(9) 0.3484(5) 1. 0 
O13 O2- 4 a 0.1003(8) 0.8502(9) 0.3819(4) 1. 0 
O14 O2- 4 a 0.2550(6) 0.9734(9) 0.2724(4) 1. 0 
Cl1 Cl1- 4 a 0.2914(3) 0.5327(3) 0.3917(2) 1. 0 

loop_
_atom_site_aniso_label
_atom_site_aniso_type_symbol
_atom_site_aniso_U_11
_atom_site_aniso_U_22
_atom_site_aniso_U_33
_atom_site_aniso_U_12
_atom_site_aniso_U_13
_atom_site_aniso_U_23
Ag1 Ag1+ 0.0351(4) 0.0351(3) 0.0223(3) -.0060(4) 0.0020(3) 0.0041(3)
Ag2 Ag1+ 0.0396(5) 0.0602(8) 0.0242(4) -.0196(5) 0.0022(3) 0.0023(4)
Ag3 Ag1+ 0.0344(4) 0.0235(4) 0.0229(3) -.0013(4) -.0022(3) 0.0023(3)
Ag4 Ag1+ 0.0280(3) 0.0183(4) 0.0686(5) 0.0004(4) 0.0030(3) 0.0020(6)
Ag5 Ag1+ 0.0292(4) 0.0255(5) 0.0210(4) -.0008(4) 0.0035(3) -.0005(3)
Ag6 Ag1+ 0.0338(4) 0.0297(5) 0.0281(4) 0.0078(4) 0.0018(3) 0.0053(4)
Ag7 Ag1+ 0.0366(4) 0.0421(6) 0.0214(3) 0.0106(4) 0.0013(3) 0.0039(4)
Cu1 Cu2+ 0.0184(4) 0.0187(5) 0.0134(4) 0.0010(6) 0.0029(3) 0.0006(6)
As1 As5+ 0.0176(4) 0.0190(5) 0.0137(4) 0.0000(4) 0.0023(3) -.0016(4)
As2 As5+ 0.0170(4) 0.0185(5) 0.0151(4) -.0012(4) 0.0025(3) -.0010(4)
As3 As5+ 0.0179(4) 0.0189(6) 0.0137(4) 0.0018(4) 0.0017(3) 0.0015(4)
As4 As5+ 0.0176(4) 0.0196(5) 0.0136(4) 0.0010(4) 0.0023(3) 0.0007(4)
O1 O2- 0.017(3) 0.031(4) 0.021(3) -.002(3) 0.002(2) 0.007(3)
O2 O2- 0.028(3) 0.032(5) 0.017(3) 0.001(3) 0.005(3) 0.005(3)
O3 O2- 0.030(4) 0.025(4) 0.030(4) 0.001(3) -.002(3) -.011(3)
O4 O2- 0.033(4) 0.027(4) 0.020(3) 0.012(3) 0.012(3) -.001(3)
O5 O2- 0.021(3) 0.018(4) 0.029(3) -.004(3) 0.009(3) -.001(3)
O6 O2- 0.022(3) 0.028(4) 0.018(3) -.007(3) 0.002(2) -.004(3)
O7 O2- 0.024(3) 0.017(4) 0.028(4) 0.004(3) 0.003(3) -.004(3)
O8 O2- 0.016(3) 0.032(5) 0.016(3) 0.002(3) -.002(2) -.007(3)
O9 O2- 0.022(3) 0.035(5) 0.021(3) 0.005(3) 0.008(3) -.004(3)
O10 O2- 0.026(3) 0.028(5) 0.022(3) 0.001(3) -.006(3) 0.004(3)
O11 O2- 0.034(4) 0.019(4) 0.019(3) 0.000(3) 0.001(3) 0.007(3)
O12 O2- 0.028(4) 0.021(4) 0.031(3) 0.004(3) 0.002(3) -.010(3)
O13 O2- 0.031(4) 0.029(5) 0.024(3) 0.000(3) 0.004(3) 0.010(3)
O14 O2- 0.012(3) 0.035(5) 0.019(3) 0.004(3) -.001(2) 0.001(3)
Cl1 Cl1- 0.032(1) 0.027(2) 0.027(1) 0.003(1) -.001(1) -.007(1)
#End of data_67952-ICSD


