data_418991-ICSD
#?2014 by Fachinformationszentrum Karlsruhe, and the U.S. Secretary of 
#Commerce on behalf of the United States.  All rights reserved.
_database_code_ICSD                418991
_audit_creation_date               2009/02/01
_chemical_name_systematic          'Distrontium Lithium Rhenate(VII)'
_chemical_formula_structural       'Sr2 Li (Re O6)'
_chemical_formula_sum              'Li1 O6 Re1 Sr2'
_chemical_name_mineral             'Perovskite, double'
_publ_section_title
;
Crystal growth and structural investigation of A2 B Re O6 (A = Sr, 
Ba; B = Li, Na)
;
loop_
_citation_id
_citation_journal_abbrev
_citation_year
_citation_journal_volume
_citation_journal_issue
_citation_page_first
_citation_page_last
_citation_journal_id_ASTM
primary 'Journal of Solid State Chemistry' 2008 181 10 2789 2795 JSSCBI
_publ_author_name                  'Bharathy, M.;zur Loye, H.C.'
_cell_length_a                     5.5030(9)
_cell_length_b                     5.5030(9)
_cell_length_c                     7.757(2)
_cell_angle_alpha                  90
_cell_angle_beta                   90
_cell_angle_gamma                  90
_cell_volume                       234.91
_cell_formula_units_Z              2
_symmetry_space_group_name_H-M     'I 4/m'
_symmetry_Int_Tables_number        87
_refine_ls_R_factor_all            .0371
loop_
_symmetry_equiv_pos_site_id
_symmetry_equiv_pos_as_xyz
  1	'-y, x, -z'
  2	'y, -x, -z'
  3	'x, y, -z'
  4	'-x, -y, -z'
  5	'y, -x, z'
  6	'-y, x, z'
  7	'-x, -y, z'
  8	'x, y, z'
  9	'-y+.5, x+.5, -z+.5'
 10	'y+.5, -x+.5, -z+.5'
 11	'x+.5, y+.5, -z+.5'
 12	'-x+.5, -y+.5, -z+.5'
 13	'y+.5, -x+.5, z+.5'
 14	'-y+.5, x+.5, z+.5'
 15	'-x+.5, -y+.5, z+.5'
 16	'x+.5, y+.5, z+.5'
loop_
_atom_type_symbol
_atom_type_oxidation_number
Li1+	1
O2-	-2
Re7+	7
Sr2+	2
loop_
_atom_site_label
_atom_site_type_symbol
_atom_site_symmetry_multiplicity
_atom_site_Wyckoff_symbol
_atom_site_fract_x
_atom_site_fract_y
_atom_site_fract_z
_atom_site_occupancy
_atom_site_attached_hydrogens
_atom_site_U_iso_or_equiv
Re1 Re7+ 2 a 0.00000 0.00000 0.00000 1.000 0 0.0068(3) 
O1 O2- 8 h 0.237(3) 0.235(3) 0.00000 1.000 0 0.035(6) 
O2 O2- 4 e 0.00000 0.00000 0.234(6) 1.000 0 0.034(7) 
Sr1 Sr2+ 4 d 0.00000 0.50000 0.25000 1.000 0 0.0123(5) 
Li1 Li1+ 2 b 0.00000 0.00000 0.50000 1.000 0 0.020(16) 

loop_
_atom_site_aniso_label
_atom_site_aniso_type_symbol
_atom_site_aniso_U_11
_atom_site_aniso_U_22
_atom_site_aniso_U_33
_atom_site_aniso_U_12
_atom_site_aniso_U_13
_atom_site_aniso_U_23
Re1 Re7+ 0.0058(5) 0.0058(5) 0.0088(7) 0.0000 0.0000 0.0000
O1 O2- 0.008(5) 0.008(5) 0.0078(18) 0.000(4) 0.0000 0.0000
O2 O2- 0.031(8) 0.031(8) 0.041(18) 0.0000 0.0000 0.0000
Sr1 Sr2+ 0.0106(7) 0.0106(7) 0.0157(12) 0.0000 0.0000 0.0000
#End of data_418991-ICSD


