data_408970-ICSD
#?2014 by Fachinformationszentrum Karlsruhe, and the U.S. Secretary of 
#Commerce on behalf of the United States.  All rights reserved.
_database_code_ICSD                408970
_audit_creation_date               2002/04/01
_chemical_name_systematic
;
0ipotassium Titanium(III) Titanium Tris(phosphate(V))
;
_chemical_formula_structural       'K2 Ti2 (P O4)3'
_chemical_formula_sum              'K2 O12 P3 Ti2'
_publ_section_title
;
A novel convenient synthesis of mixed-valence Ti(III)/Ti(IV) double 
phosphates, starting with titanium nitride TiN
;
loop_
_citation_id
_citation_journal_abbrev
_citation_year
_citation_journal_volume
_citation_page_first
_citation_page_last
_citation_journal_id_ASTM
primary 'Zeitschrift fuer Naturforschung, B: Chemical Sciences'
 2000 55 291 298 ZNBSEN
_publ_author_name
;
Zatovsky, I.V.;Slobodyanik, N.S.;Stratiychuk, D.A.;Domasevitch, 
K.V.;Sieler, J.;Rusanov, E.B.
;
_cell_length_a                     9.8709(1)
_cell_length_b                     9.8709(1)
_cell_length_c                     9.8709(1)
_cell_angle_alpha                  90.
_cell_angle_beta                   90.
_cell_angle_gamma                  90.
_cell_volume                       961.77
_cell_formula_units_Z              4
_symmetry_space_group_name_H-M     'P 21 3'
_symmetry_Int_Tables_number        198
_refine_ls_R_factor_all            .0196
loop_
_symmetry_equiv_pos_site_id
_symmetry_equiv_pos_as_xyz
  1	'-z+.5, -x, y+.5'
  2	'-y+.5, -z, x+.5'
  3	'-x+.5, -y, z+.5'
  4	'-z, x+.5, -y+.5'
  5	'-y, z+.5, -x+.5'
  6	'-x, y+.5, -z+.5'
  7	'z+.5, -x+.5, -y'
  8	'y+.5, -z+.5, -x'
  9	'x+.5, -y+.5, -z'
 10	'z, x, y'
 11	'y, z, x'
 12	'x, y, z'
loop_
_atom_type_symbol
_atom_type_oxidation_number
K1+	1
O2-	-2
P5+	5
Ti3.5+	3.5
loop_
_atom_site_label
_atom_site_type_symbol
_atom_site_symmetry_multiplicity
_atom_site_Wyckoff_symbol
_atom_site_fract_x
_atom_site_fract_y
_atom_site_fract_z
_atom_site_occupancy
_atom_site_attached_hydrogens
Ti1 Ti3.5+ 4 a 0.14279(4) 0.14279(4) 0.14279(4) 1. 0 
Ti2 Ti3.5+ 4 a 0.08727(4) 0.58727(4) -.08727(4) 1. 0 
K1 K1+ 4 a 0.20602(6) 0.79398(6) 0.29398(6) 1. 0 
K2 K1+ 4 a 0.06622(5) 0.43378(5) 0.56622(5) 1. 0 
P1 P5+ 12 b 0.12775(6) 0.45900(5) 0.22576(5) 1. 0 
O1 O2- 12 b 0.0779(2) 0.3134(2) 0.2345(2) 1. 0 
O2 O2- 12 b 0.0293(2) 0.5531(2) 0.2979(2) 1. 0 
O3 O2- 12 b 0.1483(2) 0.5003(2) 0.07698(15) 1. 0 
O4 O2- 12 b 0.2656(2) 0.4774(2) 0.2971(2) 1. 0 

loop_
_atom_site_aniso_label
_atom_site_aniso_type_symbol
_atom_site_aniso_U_11
_atom_site_aniso_U_22
_atom_site_aniso_U_33
_atom_site_aniso_U_12
_atom_site_aniso_U_13
_atom_site_aniso_U_23
Ti1 Ti3.5+ 0.0076(2) 0.0076(2) 0.0076(2) -.00009(13) -.00009(13) 
-.00009(13)
Ti2 Ti3.5+ 0.0077(2) 0.0077(2) 0.0077(2) -.00013(14) 0.00013(14) 
0.00013(14)
K1 K1+ 0.0199(2) 0.0199(2) 0.0199(2) -.0006(2) -.0006(2) 0.0006(2)
K2 K1+ 0.0187(2) 0.0187(2) 0.0187(2) 0.0016(2) -.0016(2) 0.0016(2)
P1 P5+ 0.0067(3) 0.0064(3) 0.0068(3) 0.0007(2) -.0006(2) 0.0001(2)
O1 O2- 0.0138(8) 0.0094(8) 0.0147(8) -.0022(6) 0.0020(7) 0.0009(6)
O2 O2- 0.0161(8) 0.0137(8) 0.0152(7) 0.0051(7) 0.0019(6) 0.0006(7)
O3 O2- 0.0157(7) 0.0143(7) 0.0088(7) 0.0023(6) -.0003(6) 0.0049(7)
O4 O2- 0.0105(8) 0.0158(8) 0.0177(8) -.0005(7) -.0064(6) -.0006(7)
#End of data_408970-ICSD


