data_414552-ICSD
#?2014 by Fachinformationszentrum Karlsruhe, and the U.S. Secretary of 
#Commerce on behalf of the United States.  All rights reserved.
_database_code_ICSD                414552
_audit_creation_date               2005/10/01
_audit_update_record               2014/08/01
_chemical_name_systematic
;
Rubidium Trialuminiobis(triphosphate)
;
_chemical_formula_structural       'Rb Al3 (P3 O10)2'
_chemical_formula_sum              'Al3 O20 P6 Rb1'
_publ_section_title
;
Two aluminotriphosphates with closely related intersecting tunnel 
structures involving tetrahedral "AlP" chains and layers : A Al3 (P3 
O10)2, A = Rb, Cs
;
loop_
_citation_id
_citation_journal_abbrev
_citation_year
_citation_journal_volume
_citation_page_first
_citation_page_last
_citation_journal_id_ASTM
primary 'Journal of Solid State Chemistry' 2005 178 1212 1220 JSSCBI
_publ_author_name                  'Lesage, J.;Guesdon, A.;Raveau, B.'
_cell_length_a                     9.8757(7)
_cell_length_b                     12.8854(10)
_cell_length_c                     11.9192(7)
_cell_angle_alpha                  90
_cell_angle_beta                   90
_cell_angle_gamma                  90
_cell_volume                       1516.75
_cell_formula_units_Z              4
_symmetry_space_group_name_H-M     'C 2 2 21'
_symmetry_Int_Tables_number        20
_refine_ls_R_factor_all            .0689
loop_
_symmetry_equiv_pos_site_id
_symmetry_equiv_pos_as_xyz
  1	'-x, y, -z+.5'
  2	'-x, -y, z+.5'
  3	'x, -y, -z'
  4	'x, y, z'
  5	'-x+.5, y+.5, -z+.5'
  6	'-x+.5, -y+.5, z+.5'
  7	'x+.5, -y+.5, -z'
  8	'x+.5, y+.5, z'
loop_
_atom_type_symbol
_atom_type_oxidation_number
Al3+	3
O2-	-2
P5+	5
Rb1+	1
loop_
_atom_site_label
_atom_site_type_symbol
_atom_site_symmetry_multiplicity
_atom_site_Wyckoff_symbol
_atom_site_fract_x
_atom_site_fract_y
_atom_site_fract_z
_atom_site_occupancy
_atom_site_attached_hydrogens
_atom_site_U_iso_or_equiv
Rb1 Rb1+ 4 a -0.52329(5) 0 0 1 0 0.02464(17) 
Al1 Al3+ 4 a -0.13193(12) 0 0 1 0 0.0061(3) 
Al2 Al3+ 4 b -0.5 0.25240(11) 0.25 1 0 0.0045(3) 
Al3 Al3+ 4 b 0 0.29253(11) 0.25 1 0 0.0049(3) 
P1 P5+ 8 c -0.05324(7) 0.20594(7) 0.48905(7) 1 0 0.00509(18) 
P2 P5+ 8 c -0.22990(8) 0.13540(6) 0.31786(7) 1 0 0.00450(18) 
P3 P5+ 8 c -0.26395(8) 0.43193(7) 0.27694(7) 1 0 0.00445(18) 
O1 O2- 8 c -0.0344(2) 0.10908(18) 0.0163(2) 1 0 0.0105(6) 
O2 O2- 8 c -0.4267(2) 0.2522(2) 0.1043(2) 1 0 0.0082(6) 
O3 O2- 8 c -0.0109(2) 0.28865(18) 0.40741(18) 1 0 0.0070(5) 
O4 O2- 8 c -0.2010(2) 0.16449(19) 0.4452(2) 1 0 0.0074(6) 
O5 O2- 8 c -0.3788(2) 0.14527(18) 0.29718(19) 1 0 0.0072(6) 
O6 O2- 8 c -0.1359(2) 0.19081(18) 0.2423(2) 1 0 0.0078(6) 
O7 O2- 8 c -0.1912(2) 0.01525(18) 0.3169(2) 1 0 0.0080(6) 
O8 O2- 8 c -0.2549(2) 0.4923(2) 0.38780(19) 1 0 0.0087(6) 
O9 O2- 8 c -0.3730(2) 0.35317(19) 0.2858(2) 1 0 0.0085(6) 
O10 O2- 8 c -0.1278(2) 0.39658(18) 0.2386(2) 1 0 0.0093(6) 

loop_
_atom_site_aniso_label
_atom_site_aniso_type_symbol
_atom_site_aniso_U_11
_atom_site_aniso_U_22
_atom_site_aniso_U_33
_atom_site_aniso_U_12
_atom_site_aniso_U_13
_atom_site_aniso_U_23
Rb1 Rb1+ 0.0214(3) 0.0190(3) 0.0335(3) 0 0 0.0052(3)
Al1 Al3+ 0.0074(5) 0.0050(5) 0.0060(6) 0 0 0.0000(5)
Al2 Al3+ 0.0048(6) 0.0041(5) 0.0047(5) 0 -0.0010(4) 0
Al3 Al3+ 0.0049(6) 0.0047(6) 0.0051(5) 0 0.0012(4) 0
P1 P5+ 0.0061(3) 0.0053(3) 0.0039(3) -0.0003(3) -0.0002(3) -0.0005(3)
P2 P5+ 0.0044(3) 0.0035(3) 0.0056(3) -0.0005(3) -0.0002(3) 0.0000(3)
P3 P5+ 0.0042(3) 0.0037(3) 0.0054(3) 0.0002(3) 0.0003(3) 0.0006(3)
O1 O2- 0.0129(10) 0.0068(9) 0.0118(11) -0.0068(8) -0.0024(9) 0.0014(9)
O2 O2- 0.0093(10) 0.0093(11) 0.0060(10) 0.0015(8) 0.0004(8) 0.0006(9)
O3 O2- 0.0093(10) 0.0077(10) 0.0040(9) -0.0011(9) 0.0014(7) 0.0016(8)
O4 O2- 0.0068(10) 0.0100(10) 0.0053(10) -0.0010(8) 0.0002(7) -0.0016(8)
O5 O2- 0.0069(10) 0.0062(10) 0.0084(11) -0.0003(8) -0.0024(8) 0.0006(8)
O6 O2- 0.0073(11) 0.0096(10) 0.0065(10) -0.0038(8) 0.0017(7) -0.0015(9)
O7 O2- 0.0100(9) 0.0058(10) 0.0083(9) 0.0009(8) -0.0036(8) -0.0024(8)
O8 O2- 0.0105(10) 0.0088(10) 0.0067(9) -0.0013(9) 0.0022(7) -0.0025(9)
O9 O2- 0.0071(10) 0.0084(11) 0.0101(10) -0.0048(8) 0.0009(8) -0.0006(8)
O10 O2- 0.0050(10) 0.0087(10) 0.0141(12) 0.0028(8) 0.0018(8) 0.0015(9)
#End of data_414552-ICSD


