data_30611-ICSD
#?2014 by Fachinformationszentrum Karlsruhe, and the U.S. Secretary of 
#Commerce on behalf of the United States.  All rights reserved.
_database_code_ICSD                30611
_audit_creation_date               1986/10/14
_audit_update_record               2012/08/01
_chemical_name_systematic          'Sodium Tetrachloroaluminate'
_chemical_formula_structural       'Na (Al Cl4)'
_chemical_formula_sum              'Al1 Cl4 Na1'
_publ_section_title                'The crystal structure of Na Al Cl4'
loop_
_citation_id
_citation_journal_abbrev
_citation_year
_citation_journal_volume
_citation_page_first
_citation_page_last
_citation_journal_id_ASTM
primary 'Acta Crystallographica (1,1948-23,1967)' 1951 4 216 219 ACCRA9
_publ_author_name                  'Baenziger, N.C.'
_cell_length_a                     10.36
_cell_length_b                     9.92
_cell_length_c                     6.21
_cell_angle_alpha                  90.
_cell_angle_beta                   90.
_cell_angle_gamma                  90.
_cell_volume                       638.21
_cell_formula_units_Z              4
_symmetry_space_group_name_H-M     'P 21 21 21'
_symmetry_Int_Tables_number        19
_refine_ls_R_factor_all            .2
loop_
_symmetry_equiv_pos_site_id
_symmetry_equiv_pos_as_xyz
  1	'-x, y+.5, -z+.5'
  2	'x+.5, -y+.5, -z'
  3	'-x+.5, -y, z+.5'
  4	'x, y, z'
loop_
_atom_type_symbol
_atom_type_oxidation_number
Al3+	3
Cl1-	-1
Na1+	1
loop_
_atom_site_label
_atom_site_type_symbol
_atom_site_symmetry_multiplicity
_atom_site_Wyckoff_symbol
_atom_site_fract_x
_atom_site_fract_y
_atom_site_fract_z
_atom_site_occupancy
_atom_site_attached_hydrogens
_atom_site_B_iso_or_equiv
Cl1 Cl1- 4 a 0.031(20) 0.49 0.552 1. 0 2.67 
Cl2 Cl1- 4 a 0.149(10) 0.316(20) 0.105(10) 1. 0 2.67 
Cl3 Cl1- 4 a 0.348(10) 0.024 0.923(20) 1. 0 2.67 
Cl4 Cl1- 4 a 0.379(20) 0.336(20) 0.577(10) 1. 0 2.67 
Al1 Al3+ 4 a 0.039(30) 0.485(30) 0.204(40) 1. 0 2.67 
Na1 Na1+ 4 a 0.128(10) 0.207 0.677(40) 1. 0 2.67 

#End of data_30611-ICSD


