data_74640-ICSD
#?2014 by Fachinformationszentrum Karlsruhe, and the U.S. Secretary of 
#Commerce on behalf of the United States.  All rights reserved.
_database_code_ICSD                74640
_audit_creation_date               1995/10/17
_chemical_name_systematic          'Disodium Silicate'
_chemical_formula_structural       'Na2 (Si O3)'
_chemical_formula_sum              'Na2 O3 Si1'
_publ_section_title
;
Structural and electronic properties of sodium metasilicate
;
loop_
_citation_id
_citation_journal_abbrev
_citation_year
_citation_journal_volume
_citation_page_first
_citation_page_last
_citation_journal_id_ASTM
primary 'Chemical Physics Letters' 1993 215 401 404 CHPLBC
_publ_author_name
;
Liu, F.;Garofalini, S.H.;King-Smith, R.D.;Vanderbilt, D.
;
_cell_length_a                     10.466
_cell_length_b                     6.03
_cell_length_c                     4.71
_cell_angle_alpha                  90.
_cell_angle_beta                   90.
_cell_angle_gamma                  90.
_cell_volume                       297.25
_cell_formula_units_Z              4
_symmetry_space_group_name_H-M     'C m c 21'
_symmetry_Int_Tables_number        36
loop_
_symmetry_equiv_pos_site_id
_symmetry_equiv_pos_as_xyz
  1	'x, -y, z+.5'
  2	'-x, -y, z+.5'
  3	'-x, y, z'
  4	'x, y, z'
  5	'x+.5, -y+.5, z+.5'
  6	'-x+.5, -y+.5, z+.5'
  7	'-x+.5, y+.5, z'
  8	'x+.5, y+.5, z'
loop_
_atom_type_symbol
_atom_type_oxidation_number
Na1+	1
O2-	-2
Si4+	4
loop_
_atom_site_label
_atom_site_type_symbol
_atom_site_symmetry_multiplicity
_atom_site_Wyckoff_symbol
_atom_site_fract_x
_atom_site_fract_y
_atom_site_fract_z
_atom_site_occupancy
_atom_site_attached_hydrogens
Na1 Na1+ 8 b 0.1657 0.3409 0 1. 0 
Si1 Si4+ 4 a 0 0.1588 0.5396 1. 0 
O1 O2- 8 b 0.1307 0.2888 0.4811 1. 0 
O2 O2- 4 a 0 0.0899 0.8848 1. 0 

#End of data_74640-ICSD


