data_249953-ICSD
#?2014 by Fachinformationszentrum Karlsruhe, and the U.S. Secretary of 
#Commerce on behalf of the United States.  All rights reserved.
_database_code_ICSD                249953
_audit_creation_date               2010/08/01
_chemical_name_systematic
;
Dipotassium Tetracalcium Henicosaoxooctasilicate
;
_chemical_formula_structural       'K2 Ca4 Si8 O21'
_chemical_formula_sum              'Ca4 K2 O21 Si8'
_publ_section_title
;
Synthesis, crystal structure and vibrational spectroscopy of K2 Ca4 
Si8 O21 - An unusual single-layer silicate containing Q2 and Q3 units
;
loop_
_citation_id
_citation_journal_abbrev
_citation_year
_citation_journal_volume
_citation_journal_issue
_citation_page_first
_citation_page_last
_citation_journal_id_ASTM
primary 'Inorganic Chemistry' 2009 48 24 11929 11934 INOCAJ
_publ_author_name
;
Arroyabe, E.;Kaindl, R.;Toebbens, D.M.;Kahlenberg, V.
;
_cell_length_a                     6.714
_cell_length_b                     6.981
_cell_length_c                     11.111
_cell_angle_alpha                  96.49
_cell_angle_beta                   105.44
_cell_angle_gamma                  109.36
_cell_volume                       461.85
_cell_formula_units_Z              1
_symmetry_space_group_name_H-M     'P -1'
_symmetry_Int_Tables_number        2
loop_
_symmetry_equiv_pos_site_id
_symmetry_equiv_pos_as_xyz
  1	'-x, -y, -z'
  2	'x, y, z'
loop_
_atom_type_symbol
_atom_type_oxidation_number
Ca2+	2
K1+	1
O2-	-2
Si4+	4
loop_
_atom_site_label
_atom_site_type_symbol
_atom_site_symmetry_multiplicity
_atom_site_Wyckoff_symbol
_atom_site_fract_x
_atom_site_fract_y
_atom_site_fract_z
_atom_site_occupancy
_atom_site_attached_hydrogens
K1 K1+ 2 i 0.25971769 0.28463598 0.56548726 1. 0 
Ca1 Ca2+ 2 i 0.34782242 0.21820864 0.18640371 1. 0 
Ca2 Ca2+ 2 i 0.62663411 0.27100431 0.95771840 1. 0 
Si1 Si4+ 2 i 0.90251171 0.75447126 0.10816746 1. 0 
Si2 Si4+ 2 i 0.82677603 0.09304613 0.25349912 1. 0 
Si3 Si4+ 2 i 0.32888976 0.79547040 0.52715315 1. 0 
Si4 Si4+ 2 i 0.13490523 0.52739081 0.25644989 1. 0 
O1 O2- 1 f 0.50000000 0.00000000 0.50000000 1. 0 
O2 O2- 2 i 0.13780506 0.65106503 0.39147694 1. 0 
O3 O2- 2 i 0.61143575 0.08986698 0.14644881 1. 0 
O4 O2- 2 i 0.13205210 0.87993096 0.08590614 1. 0 
O5 O2- 2 i 0.33069472 0.32074884 0.00467246 1. 0 
O6 O2- 2 i 0.87451768 0.87868462 0.23534466 1. 0 
O7 O2- 2 i 0.91692894 0.53181601 0.14557723 1. 0 
O8 O2- 2 i 0.06147842 0.27688212 0.25938287 1. 0 
O9 O2- 2 i 0.54025450 0.32481548 0.39409727 1. 0 
O10 O2- 2 i 0.63792747 0.40449178 0.77527412 1. 0 
O11 O2- 2 i 0.82031335 0.11814301 0.40110826 1. 0 

#End of data_249953-ICSD


