data_64691-ICSD
#?2014 by Fachinformationszentrum Karlsruhe, and the U.S. Secretary of 
#Commerce on behalf of the United States.  All rights reserved.
_database_code_ICSD                64691
_audit_creation_date               1997/11/10
_audit_update_record               2012/02/01
_chemical_name_systematic
;
Potassium Magnesium Chloride Hexahydrate
;
_chemical_formula_structural       'K Mg Cl3 (H2 O)6'
_chemical_formula_sum              'H12 Cl3 K1 Mg1 O6'
_chemical_name_mineral             Carnallite
_publ_section_title
;
Refinement of the structure of carnallite, Mg (H2 O)6 K Cl3
;
loop_
_citation_id
_citation_journal_abbrev
_citation_year
_citation_journal_volume
_citation_page_first
_citation_page_last
_citation_journal_id_ASTM
primary 'American Mineralogist' 1985 70 1309 1313 AMMIAY
_publ_author_name
;
Schlemper, E.O.;Sen Gupta, P.K.;Zoltai, T.
;
_cell_length_a                     16.1190(30)
_cell_length_b                     22.4719(40)
_cell_length_c                     9.551(2)
_cell_angle_alpha                  90.
_cell_angle_beta                   90.
_cell_angle_gamma                  90.
_cell_volume                       3459.61
_cell_formula_units_Z              12
_symmetry_space_group_name_H-M     'P n n a'
_symmetry_Int_Tables_number        52
_refine_ls_R_factor_all            .0486
loop_
_symmetry_equiv_pos_site_id
_symmetry_equiv_pos_as_xyz
  1	'x+.5, -y+.5, z+.5'
  2	'-x, y+.5, z+.5'
  3	'x+.5, y, -z'
  4	'-x, -y, -z'
  5	'-x+.5, y+.5, -z+.5'
  6	'x, -y+.5, -z+.5'
  7	'-x+.5, -y, z'
  8	'x, y, z'
loop_
_atom_type_symbol
_atom_type_oxidation_number
Cl1-	-1
H1+	1
K1+	1
Mg2+	2
O2-	-2
loop_
_atom_site_label
_atom_site_type_symbol
_atom_site_symmetry_multiplicity
_atom_site_Wyckoff_symbol
_atom_site_fract_x
_atom_site_fract_y
_atom_site_fract_z
_atom_site_occupancy
_atom_site_attached_hydrogens
_atom_site_B_iso_or_equiv
K1 K1+ 4 c 0.25 0 0.2486(1) 1. 0 0 
K2 K1+ 8 e 0.08860(4) 0.15668(3) 0.74995(7) 1. 0 0 
Mg1 Mg2+ 4 d 0.25657(6) 0.25 0.25 1. 0 0 
Mg2 Mg2+ 8 e 0.42094(4) 0.08981(3) 0.74770(8) 1. 0 0 
Cl1 Cl1- 8 e 0.16583(4) 0.07525(3) 0.98526(6) 1. 0 0 
Cl2 Cl1- 4 d 0.23939(5) 0.25 0.75 1. 0 0 
Cl3 Cl1- 8 e 0.16928(4) 0.08113(3) 0.48834(6) 1. 0 0 
Cl4 Cl1- 8 e 0.41462(4) 0.08176(3) 0.25235(7) 1. 0 0 
Cl5 Cl1- 8 e 0.01987(4) 0.24957(3) 0.97686(6) 1. 0 0 
O1 O2- 4 d 0.1308(2) 0.25 0.25 1. 0 0 
O2 O2- 4 d 0.3834(1) 0.25 0.25 1. 0 0 
O3 O2- 8 e 0.2554(1) 0.20704(2) 0.4384(2) 1. 0 0 
O4 O2- 8 e 0.2673(1) 0.16936(8) 0.1506(2) 1. 0 0 
O5 O2- 8 e 0.4466(1) 0.01041(7) 0.6500(2) 1. 0 0 
O6 O2- 8 e 0.2967(1) 0.07117(9) 0.7349(2) 1. 0 0 
O7 O2- 8 e 0.4259(1) 0.04662(8) 0.9354(2) 1. 0 0 
O8 O2- 8 e 0.3956(1) 0.16912(8) 0.8444(2) 1. 0 0 
O9 O2- 8 e 0.5448(1) 0.10769(9) 0.7631(2) 1. 0 0 
O10 O2- 8 e 0.4179(1) 0.13155(8) 0.5580(2) 1. 0 0 
H1 H1+ 8 e 0.604(2) 0.250(1) 0.679(3) 1. 0 4.1(6) 
H2 H1+ 8 e 0.412(1) 0.251(1) 0.313(3) 1. 0 4.6(7) 
H3 H1+ 8 e 0.737(2) 0.173(1) 0.543(3) 1. 0 4.6(7) 
H4 H1+ 8 e 0.250(2) 0.222(1) 0.505(3) 1. 0 4.3(7) 
H5 H1+ 8 e 0.734(2) 0.348(1) 0.587(3) 1. 0 4.4(9) 
H6 H1+ 8 e 0.303(2) 0.345(1) 0.335(3) 1. 0 3.9(6) 
H7 H1+ 8 e 0.514(2) 0.009(1) 0.326(3) 1. 0 5.1(7) 
H8 H1+ 8 e 0.417(2) 0.994(1) 0.606(3) 1. 0 3.2(6) 
H9 H1+ 8 e 0.768(2) 0.072(1) 0.345(3) 1. 0 5.5(8) 
H10 H1+ 8 e 0.264(2) 0.434(2) 0.682(4) 1. 0 9.(1) 
H11 H1+ 8 e 0.399(2) 0.490(1) 0.568(3) 1. 0 7.2(9) 
H12 H1+ 8 e 0.422(1) 0.442(1) 0.500(3) 1. 0 2.9(6) 
H13 H1+ 8 e 0.359(2) 0.317(1) 0.673(3) 1. 0 3.5(6) 
H14 H1+ 8 e 0.429(2) 0.311(1) 0.623(3) 1. 0 4.3(7) 
H15 H1+ 8 e 0.565(1) 0.401(1) 0.679(3) 1. 0 2.9(5) 
H16 H1+ 8 e 0.573(2) 0.104(1) 0.695(3) 1. 0 5.3(7) 
H17 H1+ 8 e 0.438(2) 0.160(1) 0.561(3) 1. 0 4.7(7) 
H18 H1+ 8 e 0.411(2) 0.115(1) 0.475(4) 1. 0 8.(1) 

loop_
_atom_site_aniso_label
_atom_site_aniso_type_symbol
_atom_site_aniso_B_11
_atom_site_aniso_B_22
_atom_site_aniso_B_33
_atom_site_aniso_B_12
_atom_site_aniso_B_13
_atom_site_aniso_B_23
K1 K1+ 3.42(3) 3.67(4) 3.29(3) -.09(3) 0 0
K2 K1+ 3.64(3) 2.96(2) 3.26(2) 0.06(2) -.09(3) 0.11(2)
Mg1 Mg2+ 1.86(4) 2.18(4) 1.58(4) 0 0 -.08(4)
Mg2 Mg2+ 1.90(3) 2.24(3) 1.52(3) -.01(3) -.14(3) -.07(3)
Cl1 Cl1- 2.76(3) 3.36(4) 2.33(3) 0 0 -.45(4)
Cl2 Cl1- 2.94(3) 3.07(3) 2.57(2) -.50(2) 0.22(2) -.39(2)
Cl3 Cl1- 2.95(3) 3.21(3) 2.52(2) -.40(3) -.39(2) 0.39(2)
Cl4 Cl1- 3.61(3) 3.21(3) 2.29(2) 0.39(2) -.40(2) -.42(2)
Cl5 Cl1- 2.71(2) 3.91(3) 2.22(2) -.01(3) -.23(2) 0.22(2)
O1 O2- 1.91(8) 6.6(2) 2.1(1) 0 0 0.2(1)
O2 O2- 1.70(9) 5.4(1) 2.3(1) 0 0 -.3(1)
O3 O2- 4.61(9) 3.02(7) 1.75(6) -.55(8) 0.04(7) 0.15(7)
O4 O2- 3.34(8) 3.16(8) 4.22(9) 0.62(7) -1.29(8) -1.52(7)
O5 O2- 3.31(8) 2.93(8) 3.94(8) 0.68(7) -1.14(8) -1.43(7)
O6 O2- 2.08(7) 5.7(1) 2.48(7) -.60(7) -.13(7) -.12(8)
O7 O2- 4.88(9) 3.15(8) 1.75(7) -.84(7) -.33(7) 0.11(6)
O8 O2- 3.01(8) 3.23(8) 4.63(9) 0.65(7) -1.31(8) -1.50(7)
O9 O2- 2.14(7) 5.6(1) 2.27(7) -.07(7) -.19(7) 0.17(7)
O10 O2- 5.3(1) 3.07(8) 2.07(7) -.59(8) -.45(7) 0.30(7)
#End of data_64691-ICSD


