data_415240-ICSD
#?2014 by Fachinformationszentrum Karlsruhe, and the U.S. Secretary of 
#Commerce on behalf of the United States.  All rights reserved.
_database_code_ICSD                415240
_audit_creation_date               2008/02/01
_chemical_name_systematic
;
Tetrasodium Phyllo-hexaselenodiphosphate(V)
;
_chemical_formula_structural       'Na4 (P2 Se6)'
_chemical_formula_sum              'Na4 P2 Se6'
_publ_section_title
;
Synthesis and structures of Na4 P2 Se6, Cs3 P Se4, and Rb4 P2 Se9
;
loop_
_citation_id
_citation_journal_abbrev
_citation_year
_citation_journal_volume
_citation_journal_issue
_citation_page_first
_citation_page_last
_citation_journal_id_ASTM
primary 'Journal of Chemical Crystallography' 2006 36 3 217 223 JCCYEV
_publ_author_name                  'Knaust, J.M.;Dorhout, P.K.'
_cell_length_a                     11.836(3)
_cell_length_b                     13.311(4)
_cell_length_c                     8.061(2)
_cell_angle_alpha                  90.00
_cell_angle_beta                   90.00
_cell_angle_gamma                  90.00
_cell_volume                       1270
_cell_formula_units_Z              4
_symmetry_space_group_name_H-M     'C m c a'
_symmetry_Int_Tables_number        64
_refine_ls_R_factor_all            .0519
loop_
_symmetry_equiv_pos_site_id
_symmetry_equiv_pos_as_xyz
  1	'-x, -y+.5, z+.5'
  2	'-x, y+.5, -z+.5'
  3	'-x, y, z'
  4	'-x, -y, -z'
  5	'x, y+.5, -z+.5'
  6	'x, -y+.5, z+.5'
  7	'x, -y, -z'
  8	'x, y, z'
  9	'-x+.5, -y, z+.5'
 10	'-x+.5, y, -z+.5'
 11	'-x+.5, y+.5, z'
 12	'-x+.5, -y+.5, -z'
 13	'x+.5, y, -z+.5'
 14	'x+.5, -y, z+.5'
 15	'x+.5, -y+.5, -z'
 16	'x+.5, y+.5, z'
loop_
_atom_type_symbol
_atom_type_oxidation_number
Na1+	1
P4+	4
Se2-	-2
loop_
_atom_site_label
_atom_site_type_symbol
_atom_site_symmetry_multiplicity
_atom_site_Wyckoff_symbol
_atom_site_fract_x
_atom_site_fract_y
_atom_site_fract_z
_atom_site_occupancy
_atom_site_attached_hydrogens
_atom_site_U_iso_or_equiv
Se1 Se2- 16 g 0.34736(5) 0.65359(4) 0.46737(8) 1 0 0.02381(19) 
Se2 Se2- 8 f 0.5000 0.55251(7) 0.82168(9) 1 0 0.0259(2) 
P1 P4+ 8 f 0.5000 0.57761(13) 0.5538(2) 1 0 0.0116(4) 
Na1 Na1+ 8 e 0.2500 0.5282(3) 0.7500 1 0 0.0445(10) 
Na2 Na1+ 8 f 0.5000 0.6856(3) 0.1555(5) 1 0 0.0467(11) 

loop_
_atom_site_aniso_label
_atom_site_aniso_type_symbol
_atom_site_aniso_U_11
_atom_site_aniso_U_22
_atom_site_aniso_U_33
_atom_site_aniso_U_12
_atom_site_aniso_U_13
_atom_site_aniso_U_23
Se1 Se2- 0.0154(3) 0.0227(3) 0.0333(3) 0.0076(2) -0.0031(2) 0.0030(2)
Se2 Se2- 0.0317(5) 0.0361(5) 0.0098(4) 0.000 0.000 -0.0049(3)
P1 P4+ 0.0082(8) 0.0130(9) 0.0134(9) 0.000 0.000 -0.0002(6)
Na1 Na1+ 0.0246(19) 0.060(3) 0.049(2) 0.000 0.0178(18) 0.000
Na2 Na1+ 0.069(3) 0.031(2) 0.040(2) 0.000 0.000 0.0146(17)
#End of data_415240-ICSD


