data_39739-ICSD
#?2014 by Fachinformationszentrum Karlsruhe, and the U.S. Secretary of 
#Commerce on behalf of the United States.  All rights reserved.
_database_code_ICSD                39739
_audit_creation_date               1994/06/30
_chemical_name_systematic
;
Lithium Rubidium Dibismuth Molybdate
;
_chemical_formula_structural       'Li Rb Bi2 (Mo O4)4'
_chemical_formula_sum              'Bi2 Li1 Mo4 O16 Rb1'
_publ_section_title
;
Crystal structure study of a triple molybdate LiRbBi2(MoO4)4
;
loop_
_citation_id
_citation_journal_abbrev
_citation_year
_citation_journal_volume
_citation_journal_issue
_citation_page_first
_citation_page_last
_citation_journal_id_ASTM
primary 'Zhurnal Strukturnoi Khimii (Issue-No. from 1981)'
 1993 34 5 152 156 ZSTKAI
_publ_author_name
;
Klevtsova, R.F.;Glinskaya, L.A.;Alekseev, V.I.;Khal'baeva, 
K.M.;Khaikina, E.G.
;
_cell_length_a                     5.3056(5)
_cell_length_b                     12.976(1)
_cell_length_c                     19.578(1)
_cell_angle_alpha                  90.
_cell_angle_beta                   92.583(6)
_cell_angle_gamma                  90.
_cell_volume                       1346.49
_cell_formula_units_Z              4
_symmetry_space_group_name_H-M     'C 1 2/c 1'
_symmetry_Int_Tables_number        15
_refine_ls_R_factor_all            .029
loop_
_symmetry_equiv_pos_site_id
_symmetry_equiv_pos_as_xyz
  1	'x, -y, z+.5'
  2	'-x, -y, -z'
  3	'-x, y, -z+.5'
  4	'x, y, z'
  5	'x+.5, -y+.5, z+.5'
  6	'-x+.5, -y+.5, -z'
  7	'-x+.5, y+.5, -z+.5'
  8	'x+.5, y+.5, z'
loop_
_atom_type_symbol
_atom_type_oxidation_number
Bi3+	3
Li1+	1
Mo6+	6
O2-	-2
Rb1+	1
loop_
_atom_site_label
_atom_site_type_symbol
_atom_site_symmetry_multiplicity
_atom_site_Wyckoff_symbol
_atom_site_fract_x
_atom_site_fract_y
_atom_site_fract_z
_atom_site_occupancy
_atom_site_attached_hydrogens
_atom_site_U_iso_or_equiv
Bi1 Bi3+ 8 f 0.50469(4) 0.35104(2) 0.03575(1) 1. 0 0.0141(1) 
Mo1 Mo6+ 8 f 0.00812(9) 0.25745(3) 0.14961(3) 1. 0 0.0115(1) 
Mo2 Mo6+ 8 f 0.51721(9) 0.06216(3) 0.09249(3) 1. 0 0.0106(1) 
Rb1 Rb1+ 4 e 0.5 0.46904(6) 0.25 1. 0 0.0224(2) 
Li1 Li1+ 4 e 0.5 0.1850(17) 0.25 1. 0 0.041(5) 
O1 O2- 8 f -.2471(9) 0.3484(3) 0.1349(2) 1. 0 0.016(1) 
O2 O2- 8 f -.1270(9) 0.1431(3) 0.1735(3) 1. 0 0.023(1) 
O3 O2- 8 f 0.2285(8) 0.2933(3) 0.2130(2) 1. 0 0.018(1) 
O4 O2- 8 f 0.1732(8) 0.2411(3) 0.0699(2) 1. 0 0.016(1) 
O5 O2- 8 f 0.2541(8) 0.0190(3) 0.0397(2) 1. 0 0.016(1) 
O6 O2- 8 f 0.7303(9) -.0409(3) 0.1042(2) 1. 0 0.018(1) 
O7 O2- 8 f 0.3944(8) 0.0915(3) 0.1708(2) 1. 0 0.019(1) 
O8 O2- 8 f 0.6556(8) 0.1702(3) 0.0452(2) 1. 0 0.015(1) 

#End of data_39739-ICSD


