data_72692-ICSD
#?2014 by Fachinformationszentrum Karlsruhe, and the U.S. Secretary of 
#Commerce on behalf of the United States.  All rights reserved.
_database_code_ICSD                72692
_audit_creation_date               1994/01/19
_audit_update_record               2003/10/01
_chemical_name_systematic
;
Octastrontium Dodecaaluminate Bis(tungstate)
;
_chemical_formula_structural       'Sr8 (Al12 O24) (W O4)2'
_chemical_formula_sum              'Al12 O32 Sr8 W2'
_publ_section_title
;
Aluminate sodalites: Sr8(Al12O24)(MoO4)2 (SAM) at 293, 423, 523, 623 
and 723K and Sr8(Al12O24)(WO4)2 (SAW) at 293K
;
loop_
_citation_id
_citation_journal_abbrev
_citation_year
_citation_journal_volume
_citation_page_first
_citation_page_last
_citation_journal_id_ASTM
primary 'Acta Crystallographica, Section B: Structural Science'
 1991 47 197 206 ASBSDK
2 'Phase Transition' 1992 38 127 220 PHTRDP
_publ_author_name                  'Depmeier, W.;Buehrer, W.'
_cell_length_a                     18.8771(6)
_cell_length_b                     18.8771(6)
_cell_length_c                     18.7819(9)
_cell_angle_alpha                  90.
_cell_angle_beta                   90.
_cell_angle_gamma                  90.
_cell_volume                       6692.83
_cell_formula_units_Z              8
_symmetry_space_group_name_H-M     'I 41/a c d Z'
_symmetry_Int_Tables_number        142
_refine_ls_R_factor_all            .023
loop_
_symmetry_equiv_pos_site_id
_symmetry_equiv_pos_as_xyz
  1	'y+.25, x+.75, -z+.75'
  2	'-y+.75, x+.75, -z+.25'
  3	'x, y+.5, -z'
  4	'-x, y+.5, -z+.5'
  5	'-y+.75, -x+.25, z+.25'
  6	'y+.25, -x+.25, z+.75'
  7	'-x, -y+.5, z'
  8	'x, -y+.5, z+.5'
  9	'y+.25, -x+.75, -z+.25'
 10	'-y+.75, -x+.75, -z+.75'
 11	'x, -y, -z+.5'
 12	'-x, -y, -z'
 13	'-y+.75, x+.25, z+.75'
 14	'y+.25, x+.25, z+.25'
 15	'-x, y, z+.5'
 16	'x, y, z'
 17	'y+.75, x+.25, -z+.25'
 18	'-y+.25, x+.25, -z+.75'
 19	'x+.5, y, -z+.5'
 20	'-x+.5, y, -z'
 21	'-y+.25, -x+.75, z+.75'
 22	'y+.75, -x+.75, z+.25'
 23	'-x+.5, -y, z+.5'
 24	'x+.5, -y, z'
 25	'y+.75, -x+.25, -z+.75'
 26	'-y+.25, -x+.25, -z+.25'
 27	'x+.5, -y+.5, -z'
 28	'-x+.5, -y+.5, -z+.5'
 29	'-y+.25, x+.75, z+.25'
 30	'y+.75, x+.75, z+.75'
 31	'-x+.5, y+.5, z'
 32	'x+.5, y+.5, z+.5'
loop_
_atom_type_symbol
_atom_type_oxidation_number
Al3+	3
O2-	-2
Sr2+	2
W6+	6
loop_
_atom_site_label
_atom_site_type_symbol
_atom_site_symmetry_multiplicity
_atom_site_Wyckoff_symbol
_atom_site_fract_x
_atom_site_fract_y
_atom_site_fract_z
_atom_site_occupancy
_atom_site_attached_hydrogens
_atom_site_U_iso_or_equiv
Al1 Al3+ 32 g 0.624(1) 0.495(1) 0.001(1) 1. 0 0.002(1) 
Al2 Al3+ 32 g 0.497(1) 0.624(1) -.007(1) 1. 0 0.002(1) 
Al3 Al3+ 16 f 0.250(1) 0.500(1) 0.125 1. 0 0.002(1) 
Al4 Al3+ 8 b 0 0.25 0.125 1. 0 0.002(1) 
Al5 Al3+ 8 a 0 0.25 0.375 1. 0 0.002(1) 
O1 O2- 32 g 0.588(1) 0.412(1) 0.004(1) 1. 0 0.005(1) 
O2 O2- 32 g 0.570(1) 0.573(1) -.004(1) 1. 0 0.005(1) 
O3 O2- 32 g 0.663(1) 0.499(1) 0.088(1) 1. 0 0.005(1) 
O4 O2- 32 g 0.497(1) 0.670(1) 0.078(1) 1. 0 0.005(1) 
O5 O2- 32 g 0.497(1) 0.332(1) 0.083(1) 1. 0 0.005(1) 
O6 O2- 32 g 0.318(1) 0.501(1) 0.068(1) 1. 0 0.005(1) 
Sr1 Sr2+ 16 f 0.121(1) 0.371(1) 0.125 1. 0 0.012(1) 
Sr2 Sr2+ 16 f 0.371(1) 0.621(1) 0.125 1. 0 0.012(1) 
Sr3 Sr2+ 32 g 0.376(1) 0.378(1) 0.118(1) 1. 0 0.012(1) 
W1 W6+ 16 e 0.25 0.245(2) 0 1. 0 0.008(3) 
O7 O2- 32 g 0.248(1) 0.194(1) 0.077(1) 1. 0 0.024(3) 
O8 O2- 32 g 0.327(1) 0.303(1) -.002(1) 1. 0 0.024(3) 

#End of data_72692-ICSD


