data_35418-ICSD
#?2014 by Fachinformationszentrum Karlsruhe, and the U.S. Secretary of 
#Commerce on behalf of the United States.  All rights reserved.
_database_code_ICSD                35418
_audit_creation_date               1983/12/31
_chemical_name_systematic          'Potassium Tetrabromothallate'
_chemical_formula_structural       'K Tl Br4'
_chemical_formula_sum              'Br4 K1 Tl1'
_publ_section_title
;
Ueber Tetrabromothallate M Tl Br4 (M = K,Rb,Cs,NH4)
;
loop_
_citation_id
_citation_journal_abbrev
_citation_year
_citation_journal_volume
_citation_page_first
_citation_page_last
_citation_journal_id_ASTM
primary 'Zeitschrift fuer Anorganische und Allgemeine Chemie (1950) (DE)'
 1983 499 175 180 ZAACAB
_publ_author_name                  'Rotter, H.W.;Thiele, G.'
_cell_length_a                     7.952(3)
_cell_length_b                     10.360(4)
_cell_length_c                     10.421(5)
_cell_angle_alpha                  90.
_cell_angle_beta                   90.
_cell_angle_gamma                  90.
_cell_volume                       858.51
_cell_formula_units_Z              4
_symmetry_space_group_name_H-M     'P n n a'
_symmetry_Int_Tables_number        52
_refine_ls_R_factor_all            .076
loop_
_symmetry_equiv_pos_site_id
_symmetry_equiv_pos_as_xyz
  1	'x+.5, -y+.5, z+.5'
  2	'-x, y+.5, z+.5'
  3	'x+.5, y, -z'
  4	'-x, -y, -z'
  5	'-x+.5, y+.5, -z+.5'
  6	'x, -y+.5, -z+.5'
  7	'-x+.5, -y, z'
  8	'x, y, z'
loop_
_atom_type_symbol
_atom_type_oxidation_number
Br1-	-1
K1+	1
Tl3+	3
loop_
_atom_site_label
_atom_site_type_symbol
_atom_site_symmetry_multiplicity
_atom_site_Wyckoff_symbol
_atom_site_fract_x
_atom_site_fract_y
_atom_site_fract_z
_atom_site_occupancy
_atom_site_attached_hydrogens
Tl1 Tl3+ 4 c 0.25 0 0.1789(1) 1. 0 
Br1 Br1- 8 e 0.3499(3) 0.1914(2) 0.0455(2) 1. 0 
Br2 Br1- 8 e -.0049(2) 0.0448(2) 0.3217(2) 1. 0 
K1 K1+ 4 d 0.6813(9) 0.25 0.25 1. 0 

loop_
_atom_site_aniso_label
_atom_site_aniso_type_symbol
_atom_site_aniso_U_11
_atom_site_aniso_U_22
_atom_site_aniso_U_33
_atom_site_aniso_U_12
_atom_site_aniso_U_13
_atom_site_aniso_U_23
Tl1 Tl3+ 0.0301(5) 0.0339(5) 0.0426(6) -.0059(4) 0 0
Br1 Br1- 0.0490(11) 0.0546(13) 0.0573(12) -.0172(10) -.0090(11) 0.0215(11)
Br2 Br1- 0.0404(10) 0.0421(11) 0.0601(12) 0.0075(10) 0.0116(9) -.0002(9)
K1 K1+ 0.0406(32) 0.0384(34) 0.0644(40) 0 0 -.0063(31)
#End of data_35418-ICSD


