data_28423-ICSD
#?2014 by Fachinformationszentrum Karlsruhe, and the U.S. Secretary of 
#Commerce on behalf of the United States.  All rights reserved.
_database_code_ICSD                28423
_audit_creation_date               1980/01/01
_audit_update_record               1998/06/29
_chemical_name_systematic
;
Calcium Hexamanganese(III) Silicon Oxide
;
_chemical_formula_structural       'Ca Mn6 Si O12'
_chemical_formula_sum              'Ca1 Mn6 O12 Si1'
_chemical_name_mineral             Neltnerite
_publ_section_title
;
Etude structurale du compose Ca Mn6 Si O12
;
loop_
_citation_id
_citation_journal_abbrev
_citation_year
_citation_journal_volume
_citation_page_first
_citation_page_last
_citation_journal_id_ASTM
primary
;
Comptes Rendus Hebdomadaires des Seances de l`Academie des Sciences, 
Serie C, Sciences Chimiques (1966-)
;
 1966 262 1671 1674 CHDCAQ
_publ_author_name
;
Damon, J.L.;Permingeat, F.;Protas, J.
;
_cell_length_a                     9.45(1)
_cell_length_b                     9.45(1)
_cell_length_c                     18.84(1)
_cell_angle_alpha                  90.
_cell_angle_beta                   90.
_cell_angle_gamma                  90.
_cell_volume                       1682.46
_cell_formula_units_Z              8
_symmetry_space_group_name_H-M     'I 41/a c d Z'
_symmetry_Int_Tables_number        142
_refine_ls_R_factor_all            .114
loop_
_symmetry_equiv_pos_site_id
_symmetry_equiv_pos_as_xyz
  1	'y+.25, x+.75, -z+.75'
  2	'-y+.75, x+.75, -z+.25'
  3	'x, y+.5, -z'
  4	'-x, y+.5, -z+.5'
  5	'-y+.75, -x+.25, z+.25'
  6	'y+.25, -x+.25, z+.75'
  7	'-x, -y+.5, z'
  8	'x, -y+.5, z+.5'
  9	'y+.25, -x+.75, -z+.25'
 10	'-y+.75, -x+.75, -z+.75'
 11	'x, -y, -z+.5'
 12	'-x, -y, -z'
 13	'-y+.75, x+.25, z+.75'
 14	'y+.25, x+.25, z+.25'
 15	'-x, y, z+.5'
 16	'x, y, z'
 17	'y+.75, x+.25, -z+.25'
 18	'-y+.25, x+.25, -z+.75'
 19	'x+.5, y, -z+.5'
 20	'-x+.5, y, -z'
 21	'-y+.25, -x+.75, z+.75'
 22	'y+.75, -x+.75, z+.25'
 23	'-x+.5, -y, z+.5'
 24	'x+.5, -y, z'
 25	'y+.75, -x+.25, -z+.75'
 26	'-y+.25, -x+.25, -z+.25'
 27	'x+.5, -y+.5, -z'
 28	'-x+.5, -y+.5, -z+.5'
 29	'-y+.25, x+.75, z+.25'
 30	'y+.75, x+.75, z+.75'
 31	'-x+.5, y+.5, z'
 32	'x+.5, y+.5, z+.5'
loop_
_atom_type_symbol
_atom_type_oxidation_number
Ca2+	2
Mn3+	3
O2-	-2
Si4+	4
loop_
_atom_site_label
_atom_site_type_symbol
_atom_site_symmetry_multiplicity
_atom_site_Wyckoff_symbol
_atom_site_fract_x
_atom_site_fract_y
_atom_site_fract_z
_atom_site_occupancy
_atom_site_attached_hydrogens
_atom_site_B_iso_or_equiv
Ca1 Ca2+ 8 b 0 0.25 0.125 1. 0 0.68 
Mn1 Mn3+ 16 c 0 0.5 0 1. 0 0.68 
Mn2 Mn3+ 16 e 0.25 0.217 0 1. 0 0.68 
Mn3 Mn3+ 16 f 0.237 0.487 0.125 1. 0 0.68 
Si1 Si4+ 8 a 0 0.25 0.875 1. 0 0.68 
O1 O2- 32 g 0.158 0.367 0.05 1. 0 0.68 
O2 O2- 32 g 0.355 0.577 0.052 1. 0 0.68 
O3 O2- 32 g 0.076 0.638 0.071 1. 0 0.68 

#End of data_28423-ICSD


