data_415958-ICSD
#?2014 by Fachinformationszentrum Karlsruhe, and the U.S. Secretary of 
#Commerce on behalf of the United States.  All rights reserved.
_database_code_ICSD                415958
_audit_creation_date               2007/04/01
_audit_update_record               2008/02/01
_chemical_name_systematic          'Disilver Bismuth(III,V) Trioxide'
_chemical_formula_structural       'Ag2 Bi O3'
_chemical_formula_sum              'Ag2 Bi1 O3'
_publ_section_title                'Charge ordering in Ag2 Bi O3'
loop_
_citation_id
_citation_journal_abbrev
_citation_year
_citation_journal_volume
_citation_journal_issue
_citation_page_first
_citation_page_last
_citation_journal_id_ASTM
primary 'Solid State Sciences' 2006 8 3-4 267 276 SSSCFJ
_publ_author_name
;
Oberndorfer, C.P.M.;Dinnebier, R.E.;Ibberson, R.M.;Jansen, M.
;
_cell_length_a                     5.9802(13)
_cell_length_b                     6.3238(14)
_cell_length_c                     9.570(2)
_cell_angle_alpha                  90.00
_cell_angle_beta                   90.00
_cell_angle_gamma                  90.00
_cell_volume                       361.91
_cell_formula_units_Z              4
_symmetry_space_group_name_H-M     'P n n 2'
_symmetry_Int_Tables_number        34
_refine_ls_R_factor_all            .0326
loop_
_symmetry_equiv_pos_site_id
_symmetry_equiv_pos_as_xyz
  1	'x+.5, -y+.5, z+.5'
  2	'-x+.5, y+.5, z+.5'
  3	'-x, -y, z'
  4	'x, y, z'
loop_
_atom_type_symbol
_atom_type_oxidation_number
Ag1+	1
Bi3+	3
Bi5+	5
O2-	-2
loop_
_atom_site_label
_atom_site_type_symbol
_atom_site_symmetry_multiplicity
_atom_site_Wyckoff_symbol
_atom_site_fract_x
_atom_site_fract_y
_atom_site_fract_z
_atom_site_occupancy
_atom_site_attached_hydrogens
_atom_site_U_iso_or_equiv
Ag1 Ag1+ 4 c 0.2526(3) -0.00142(17) 0.4951(2) 1 0 0.02951(18) 
Ag2 Ag1+ 4 c 0.02552(10) 0.2513(3) 0.2502(2) 1 0 0.03195(15) 
Bi1 Bi5+ 2 a 0.0000 0.0000 0.89919(2) 1 0 0.01231(12) 
Bi2 Bi3+ 2 b 0.0000 0.5000 0.60727(3) 1 0 0.01396(14) 
O1 O2- 4 c 0.8309(12) 0.1797(12) 0.0552(10) 1 0 0.0177(15) 
O2 O2- 4 c 0.1974(13) 0.6777(12) 0.4350(9) 1 0 0.0175(14) 
O3 O2- 4 c 0.3917(10) 0.2912(12) 0.2462(15) 1 0 0.040(2) 

loop_
_atom_site_aniso_label
_atom_site_aniso_type_symbol
_atom_site_aniso_U_11
_atom_site_aniso_U_22
_atom_site_aniso_U_33
_atom_site_aniso_U_12
_atom_site_aniso_U_13
_atom_site_aniso_U_23
Ag1 Ag1+ 0.0279(3) 0.0134(2) 0.0472(5) -0.00135(15) -0.0067(3) -0.0009(2)
Ag2 Ag1+ 0.0280(2) 0.0412(3) 0.0267(3) 0.0005(5) 0.0017(9) -0.0095(2)
Bi1 Bi5+ 0.0144(3) 0.0098(2) 0.0128(2) 0.00052(17) 0.000 0.000
Bi2 Bi3+ 0.0148(3) 0.0134(3) 0.0136(3) -0.00051(18) 0.000 0.000
O1 O2- 0.013(3) 0.017(3) 0.023(3) 0.002(2) 0.002(2) -0.007(3)
O2 O2- 0.021(3) 0.014(3) 0.018(3) 0.001(2) 0.005(3) 0.005(2)
O3 O2- 0.026(3) 0.050(6) 0.045(4) 0.001(3) -0.009(4) -0.035(6)
#End of data_415958-ICSD


