data_164882-ICSD
#?2014 by Fachinformationszentrum Karlsruhe, and the U.S. Secretary of 
#Commerce on behalf of the United States.  All rights reserved.
_database_code_ICSD                164882
_audit_creation_date               2010/02/01
_chemical_name_systematic          'Tetraterbium Dialuminium Oxide'
_chemical_formula_structural       'Tb4 Al2 O9'
_chemical_formula_sum              'Al2 O9 Tb4'
_publ_section_title
;
Crystal, electronic structures, optical and magnetic properties of 
Tb4 Al2 O9
;
loop_
_citation_id
_citation_journal_abbrev
_citation_year
_citation_journal_volume
_citation_page_first
_citation_page_last
_citation_journal_id_ASTM
primary 'Journal of Alloys and Compounds' 2009 484 943 948 JALCEU
_publ_author_name
;
Li, Y.Q.;Hirosaki, N.;Xie, R.J.;Takeda, T.;Lofland, 
S.E.;Ramanujachary, K.V.
;
_cell_length_a                     7.4831(1)
_cell_length_b                     10.5569(1)
_cell_length_c                     11.1507(1)
_cell_angle_alpha                  90.
_cell_angle_beta                   108.96(1)
_cell_angle_gamma                  90.
_cell_volume                       833.09
_cell_formula_units_Z              4
_symmetry_space_group_name_H-M     'P 1 21/c 1'
_symmetry_Int_Tables_number        14
_refine_ls_R_factor_all            .089
loop_
_symmetry_equiv_pos_site_id
_symmetry_equiv_pos_as_xyz
  1	'x, -y+.5, z+.5'
  2	'-x, -y, -z'
  3	'-x, y+.5, -z+.5'
  4	'x, y, z'
loop_
_atom_type_symbol
_atom_type_oxidation_number
Al3+	3
O2-	-2
Tb3+	3
loop_
_atom_site_label
_atom_site_type_symbol
_atom_site_symmetry_multiplicity
_atom_site_Wyckoff_symbol
_atom_site_fract_x
_atom_site_fract_y
_atom_site_fract_z
_atom_site_occupancy
_atom_site_attached_hydrogens
_atom_site_U_iso_or_equiv
Tb1 Tb3+ 4 e 0.5251(1) 0.1019(1) 0.7908(1) 1. 0 0.0061 
Tb2 Tb3+ 4 e 0.0217(1) 0.0903(1) 0.8082(2) 1. 0 0.0100 
Tb3 Tb3+ 4 e 0.3383(1) 0.1251(1) 0.4318(1) 1. 0 0.0062 
Tb4 Tb3+ 4 e 0.8383(1) 0.1226(2) 0.4180(1) 1. 0 0.0081 
Al1 Al3+ 4 e 0.2194(2) 0.1763(1) 0.1285(1) 1. 0 0.0012 
Al2 Al3+ 4 e 0.6548(1) 0.1765(1) 0.1138(1) 1. 0 0.0088 
O1 O2- 4 e 0.7897(1) 0.2482(1) 0.7508(1) 1. 0 0.0035 
O2 O2- 4 e 0.2458(1) 0.2252(1) 0.7644(1) 1. 0 0.0012 
O3 O2- 4 e 0.1945(1) 0.0166(2) 0.1561(2) 1. 0 0.0092 
O4 O2- 4 e 0.0713(1) 0.2329(1) 0.9759(1) 1. 0 0.0010 
O5 O2- 4 e 0.4144(2) 0.2237(1) 0.1070(1) 1. 0 0.0011 
O6 O2- 4 e 0.6442(1) 0.2310(1) 0.9704(1) 1. 0 0.0011 
O7 O2- 4 e 0.6823(1) 0.0124(1) 0.1603(2) 1. 0 0.0014 
O8 O2- 4 e 0.0748(1) -0.0082(1) 0.3790(1) 1. 0 0.0044 
O9 O2- 4 e 0.5871(1) 0.0222(1) 0.3890(1) 1. 0 0.0010 

#End of data_164882-ICSD


