data_2060-ICSD
#?2014 by Fachinformationszentrum Karlsruhe, and the U.S. Secretary of 
#Commerce on behalf of the United States.  All rights reserved.
_database_code_ICSD                2060
_audit_creation_date               1980/01/01
_audit_update_record               2011/02/01
_chemical_name_systematic          'Tripotassium Tecto-pentaantimonate'
_chemical_formula_structural       'K3 (Sb5 O14)'
_chemical_formula_sum              'K3 O14 Sb5'
_publ_section_title
;
The two-dimensional tunnel structures of K3 Sb5 O14 and K2 Sb4 O11
;
loop_
_citation_id
_citation_journal_abbrev
_citation_year
_citation_journal_volume
_citation_page_first
_citation_page_last
_citation_journal_id_ASTM
primary 'Acta Crystallographica B (24,1968-38,1982)' 1974 30 945 952 ACBCAR
_publ_author_name                  'Hong, H.Y.-P.'
_cell_length_a                     24.247(4)
_cell_length_b                     7.157(2)
_cell_length_c                     7.334(2)
_cell_angle_alpha                  90.
_cell_angle_beta                   90.
_cell_angle_gamma                  90.
_cell_volume                       1272.71
_cell_formula_units_Z              4
_symmetry_space_group_name_H-M     'P b a m'
_symmetry_Int_Tables_number        55
_refine_ls_R_factor_all            .072
loop_
_symmetry_equiv_pos_site_id
_symmetry_equiv_pos_as_xyz
  1	'x+.5, -y+.5, z'
  2	'-x+.5, y+.5, z'
  3	'x, y, -z'
  4	'-x, -y, -z'
  5	'-x+.5, y+.5, -z'
  6	'x+.5, -y+.5, -z'
  7	'-x, -y, z'
  8	'x, y, z'
loop_
_atom_type_symbol
_atom_type_oxidation_number
K1+	1
O2-	-2
Sb5+	5
loop_
_atom_site_label
_atom_site_type_symbol
_atom_site_symmetry_multiplicity
_atom_site_Wyckoff_symbol
_atom_site_fract_x
_atom_site_fract_y
_atom_site_fract_z
_atom_site_occupancy
_atom_site_attached_hydrogens
_atom_site_B_iso_or_equiv
K1 K1+ 4 h 0.0152(6) 0.219(2) 0.5 1. 0 4.7 
K2 K1+ 4 g 0.2934(6) 0.111(2) 0 1. 0 5.6 
K3 K1+ 4 h 0.3839(6) 0.102(2) 0.5 1. 0 4.5 
Sb1 Sb5+ 4 g 0.0570(1) 0.4169(5) 0 1. 0 0.51 
Sb2 Sb5+ 4 g 0.4379(1) 0.4045(5) 0 1. 0 0.6 
Sb3 Sb5+ 4 h 0.2564(1) 0.3249(4) 0.5 1. 0 0.51 
Sb4 Sb5+ 8 i 0.14506(9) 0.1086(3) 0.2646(3) 1. 0 0.51 
O1 O2- 4 f 0 0.5 0.159(4) 1. 0 2.7 
O2 O2- 4 g 0.017(1) 0.156(4) 0 1. 0 1.6 
O3 O2- 4 h 0.117(1) 0.175(5) 0.5 1. 0 2.5 
O4 O2- 4 g 0.136(1) 0.024(5) 0 1. 0 2.8 
O5 O2- 4 h 0.279(1) 0.056(4) 0.5 1. 0 1.5 
O6 O2- 4 g 0.410(1) 0.154(5) 0 1. 0 2.9 
O7 O2- 8 i 0.2096(8) 0.254(3) 0.284(2) 1. 0 1.4 
O8 O2- 8 i 0.1046(9) 0.336(3) 0.188(3) 1. 0 2. 
O9 O2- 8 i 0.3150(8) 0.379(3) 0.316(2) 1. 0 1.6 
O10 O2- 8 i 0.4249(8) 0.460(3) 0.251(3) 1. 0 2.2 

#End of data_2060-ICSD


