data_420853-ICSD
#?2014 by Fachinformationszentrum Karlsruhe, and the U.S. Secretary of 
#Commerce on behalf of the United States.  All rights reserved.
_database_code_ICSD                420853
_audit_creation_date               2010/08/01
_chemical_name_systematic
;
Disilver Dioxomolybdenum Tetrakis(iodate(V))
;
_chemical_formula_structural       'Ag2 (Mo O2) (I O3)4'
_chemical_formula_sum              'Ag2 I4 Mo1 O14'
_publ_section_title
;
Syntheses and crystal structures of four new silver(I) iodates with 
d(0)-transition cations
;
loop_
_citation_id
_citation_journal_abbrev
_citation_year
_citation_journal_volume
_citation_page_first
_citation_page_last
_citation_journal_id_ASTM
primary 'Dalton Transactions' 2010 39 1473 1479 DTARAF
_publ_author_name
;
Sun Chuan Fu;Hu Chunli;Kong Fang;Yang Bingping;Mao Jiang Gao
;
_cell_length_a                     12.6289(14)
_cell_length_b                     5.7026(5)
_cell_length_c                     17.521(2)
_cell_angle_alpha                  90.00
_cell_angle_beta                   99.782(6)
_cell_angle_gamma                  90.00
_cell_volume                       1243.47
_cell_formula_units_Z              4
_symmetry_space_group_name_H-M     'C 1 2/c 1'
_symmetry_Int_Tables_number        15
_refine_ls_R_factor_all            .03
loop_
_symmetry_equiv_pos_site_id
_symmetry_equiv_pos_as_xyz
  1	'x, -y, z+.5'
  2	'-x, -y, -z'
  3	'-x, y, -z+.5'
  4	'x, y, z'
  5	'x+.5, -y+.5, z+.5'
  6	'-x+.5, -y+.5, -z'
  7	'-x+.5, y+.5, -z+.5'
  8	'x+.5, y+.5, z'
loop_
_atom_type_symbol
_atom_type_oxidation_number
Ag1+	1
I5+	5
Mo6+	6
O2-	-2
loop_
_atom_site_label
_atom_site_type_symbol
_atom_site_symmetry_multiplicity
_atom_site_Wyckoff_symbol
_atom_site_fract_x
_atom_site_fract_y
_atom_site_fract_z
_atom_site_occupancy
_atom_site_attached_hydrogens
_atom_site_U_iso_or_equiv
Ag1 Ag1+ 8 f 0.32315(5) 0.99638(10) 0.03896(3) 1 0 0.03037(19) 
Mo1 Mo6+ 4 e 0.5000 0.06592(13) 0.2500 1 0 0.01268(18) 
I1 I5+ 8 f 0.54132(3) 0.39623(7) 0.08855(2) 1 0 0.01363(15) 
I2 I5+ 8 f 0.28699(3) 0.49076(6) 0.17464(2) 1 0 0.01354(15) 
O1 O2- 8 f 0.6612(3) 0.2468(8) 0.0710(2) 1 0 0.0185(9) 
O2 O2- 8 f 0.4866(4) 0.1367(7) 0.1396(2) 1 0 0.0170(9) 
O3 O2- 8 f 0.4515(4) 0.3008(8) 0.0008(2) 1 0 0.0198(9) 
O4 O2- 8 f 0.3730(4) 0.5914(9) 0.1089(3) 1 0 0.0231(10) 
O5 O2- 8 f 0.3881(4) 0.3606(8) 0.2518(2) 1 0 0.0187(9) 
O6 O2- 8 f 0.2321(4) 0.2293(9) 0.1258(3) 1 0 0.0251(10) 
O7 O2- 8 f 0.6087(4) -0.1181(8) 0.2569(3) 1 0 0.0227(10) 

loop_
_atom_site_aniso_label
_atom_site_aniso_type_symbol
_atom_site_aniso_U_11
_atom_site_aniso_U_22
_atom_site_aniso_U_33
_atom_site_aniso_U_12
_atom_site_aniso_U_13
_atom_site_aniso_U_23
Ag1 Ag1+ 0.0388(4) 0.0301(3) 0.0249(3) -0.0120(2) 0.0130(3) -0.0099(2)
Mo1 Mo6+ 0.0180(4) 0.0102(3) 0.0103(3) 0.000 0.0039(3) 0.000
I1 I5+ 0.0150(2) 0.0168(2) 0.0094(2) 0.00122(13) 0.00284(15) 0.00063(13)
I2 I5+ 0.0152(2) 0.0145(2) 0.0113(2) 0.00147(13) 0.00324(16) -0.00037(13)
O1 O2- 0.014(2) 0.020(2) 0.021(2) 0.0060(17) 0.0040(17) -0.0008(18)
O2 O2- 0.027(2) 0.014(2) 0.009(2) -0.0073(18) 0.0029(17) 0.0009(16)
O3 O2- 0.024(2) 0.023(2) 0.0107(19) -0.0025(19) -0.0006(17) 0.0021(17)
O4 O2- 0.026(3) 0.027(3) 0.018(2) 0.007(2) 0.010(2) 0.0055(19)
O5 O2- 0.026(2) 0.018(2) 0.011(2) 0.0068(18) 0.0007(18) -0.0008(16)
O6 O2- 0.022(2) 0.024(2) 0.028(2) -0.0027(19) 0.0007(19) -0.011(2)
O7 O2- 0.035(3) 0.017(2) 0.017(2) 0.008(2) 0.008(2) 0.0039(17)
#End of data_420853-ICSD


