data_419935-ICSD
#?2014 by Fachinformationszentrum Karlsruhe, and the U.S. Secretary of 
#Commerce on behalf of the United States.  All rights reserved.
_database_code_ICSD                419935
_audit_creation_date               2009/08/01
_chemical_name_systematic
;
Tetrapotassium Diselenidoditelluridostannate
;
_chemical_formula_structural       'K4 (Sn Se2 Te2)'
_chemical_formula_sum              'K4 Se2 Sn1 Te2'
_publ_section_title
;
Synthesis, structures and comprehensive NMR spectroscopic 
investigations of hetero-chalcogenidometallates: The right mix toward 
multinary complexes
;
loop_
_citation_id
_citation_journal_abbrev
_citation_year
_citation_journal_volume
_citation_journal_issue
_citation_page_first
_citation_page_last
_citation_journal_id_ASTM
primary 'Chemistry - A European Journal' 2009 15 21 5230 5244 CEUJED
_publ_author_name
;
Ruzin, E.;Zent, E.;Matern, E.;Massa, W.;Dehnen, S.
;
_cell_length_a                     14.924(3)
_cell_length_b                     10.626(2)
_cell_length_c                     8.4103(17)
_cell_angle_alpha                  90.00
_cell_angle_beta                   90.00
_cell_angle_gamma                  90.00
_cell_volume                       1333.73
_cell_formula_units_Z              4
_symmetry_space_group_name_H-M     'P n m a'
_symmetry_Int_Tables_number        62
_refine_ls_R_factor_all            .0505
loop_
_symmetry_equiv_pos_site_id
_symmetry_equiv_pos_as_xyz
  1	'x+.5, y, -z+.5'
  2	'x, -y+.5, z'
  3	'-x+.5, y+.5, z+.5'
  4	'-x, -y, -z'
  5	'-x+.5, -y, z+.5'
  6	'-x, y+.5, -z'
  7	'x+.5, -y+.5, -z+.5'
  8	'x, y, z'
loop_
_atom_type_symbol
_atom_type_oxidation_number
K1+	1
Se2-	-2
Sn4+	4
Te2-	-2
loop_
_atom_site_label
_atom_site_type_symbol
_atom_site_symmetry_multiplicity
_atom_site_Wyckoff_symbol
_atom_site_fract_x
_atom_site_fract_y
_atom_site_fract_z
_atom_site_occupancy
_atom_site_attached_hydrogens
_atom_site_U_iso_or_equiv
Sn1 Sn4+ 4 c 0.16234(6) 0.2500 0.73864(8) 1 0 0.0128(2) 
Te1 Te2- 4 c 0.33549(6) 0.2500 0.62664(9) 1 0 0.0191(2) 
Te2 Te2- 4 c 0.16616(7) 0.2500 1.06384(8) 1 0 0.0225(3) 
Se1 Se2- 8 d 0.08423(6) 0.05420(8) 0.64460(9) 1 0 0.0151(2) 
K1 K1+ 8 d 0.22852(15) 0.0370(2) 0.3547(2) 1 0 0.0219(5) 
K2 K1+ 4 a 0.5000 0.0000 0.5000 1 0 0.0257(7) 
K3 K1+ 4 c -0.0651(2) 0.2500 0.4806(3) 1 0 0.0297(7) 

loop_
_atom_site_aniso_label
_atom_site_aniso_type_symbol
_atom_site_aniso_U_11
_atom_site_aniso_U_22
_atom_site_aniso_U_33
_atom_site_aniso_U_12
_atom_site_aniso_U_13
_atom_site_aniso_U_23
Sn1 Sn4+ 0.0189(5) 0.0111(4) 0.0085(3) 0.000 -0.0025(3) 0.000
Te1 Te2- 0.0191(5) 0.0182(5) 0.0199(4) 0.000 -0.0003(3) 0.000
Te2 Te2- 0.0405(6) 0.0178(5) 0.0093(4) 0.000 -0.0069(3) 0.000
Se1 Se2- 0.0219(5) 0.0125(4) 0.0108(4) -0.0015(4) 0.0004(3) -0.0026(3)
K1 K1+ 0.0319(12) 0.0211(10) 0.0127(8) 0.0039(9) 0.0034(7) -0.0012(7)
K2 K1+ 0.0283(18) 0.0292(16) 0.0197(12) -0.0049(14) -0.0043(11) -0.0012(11)
K3 K1+ 0.0342(19) 0.0269(16) 0.0279(14) 0.000 -0.0052(12) 0.000
#End of data_419935-ICSD


