data_417714-ICSD
#?2014 by Fachinformationszentrum Karlsruhe, and the U.S. Secretary of 
#Commerce on behalf of the United States.  All rights reserved.
_database_code_ICSD                417714
_audit_creation_date               2008/08/01
_audit_update_record               2012/02/01
_chemical_name_systematic
;
Disodium Potassium Cyclo-triimidotriphosphate(V) Dihydrate
;
_chemical_formula_structural       'Na2 K (P O2 N H)3 (H2 O)2'
_chemical_formula_sum              'H7 K1 N3 Na2 O8 P3'
_publ_section_title
;
Synthesis, crystal structures and properties of the 
trimetaphosphimates Na2 M (P O2 N H)3 * 2(H2 O) with M= K, Tl
;
loop_
_citation_id
_citation_journal_abbrev
_citation_year
_citation_journal_volume
_citation_journal_issue
_citation_page_first
_citation_page_last
_citation_journal_id_ASTM
primary 'Zeitschrift fuer Anorganische und Allgemeine Chemie (1950) (DE)'
 2007 633 13-14 2217 2222 ZAACAB
_publ_author_name
;
Sedlmaier, S.J.;Johrendt, D.;Oeckler, O.;Schnick, W.
;
_cell_length_a                     7.9475(16)
_cell_length_b                     8.0341(16)
_cell_length_c                     8.5153(17)
_cell_angle_alpha                  75.84(3)
_cell_angle_beta                   83.54(3)
_cell_angle_gamma                  77.37(3)
_cell_volume                       513.43
_cell_formula_units_Z              2
_symmetry_space_group_name_H-M     'P -1'
_symmetry_Int_Tables_number        2
_refine_ls_R_factor_all            .0451
loop_
_symmetry_equiv_pos_site_id
_symmetry_equiv_pos_as_xyz
  1	'-x, -y, -z'
  2	'x, y, z'
loop_
_atom_type_symbol
_atom_type_oxidation_number
H1+	1
K1+	1
N3-	-3
Na1+	1
O2-	-2
P5+	5
loop_
_atom_site_label
_atom_site_type_symbol
_atom_site_symmetry_multiplicity
_atom_site_Wyckoff_symbol
_atom_site_fract_x
_atom_site_fract_y
_atom_site_fract_z
_atom_site_occupancy
_atom_site_attached_hydrogens
_atom_site_U_iso_or_equiv
K1 K1+ 2 i 0.37916(15) 0.29181(15) 0.55173(12) 1 0 0.0315(3) 
Na1 Na1+ 2 i 0.0718(2) 0.0137(2) 0.6685(2) 1 0 0.0206(4) 
Na2 Na1+ 2 i 0.8505(2) 0.8472(2) 0.0054(2) 1 0 0.0208(4) 
P1 P5+ 2 i 0.7454(1) 0.2898(1) 0.8443(1) 1 0 0.0134(2) 
P2 P5+ 2 i 0.44533(14) 0.83933(13) 0.84860(12) 1 0 0.0144(2) 
P3 P5+ 2 i 0.21211(13) 0.59053(12) 0.86321(10) 1 0 0.0138(2) 
N1 N3- 2 i 0.5728(1) 0.2186(1) 0.9483(1) 1 0 0.0159(7) 
H1 H1+ 2 i 0.4759 0.2745 0.9201 1 0 0.019 
N2 N3- 2 i 0.7797(1) 0.4410(1) 0.9354(1) 1 0 0.0156(7) 
H2 H1+ 2 i 0.7621 0.5491 0.8898 1 0 0.019 
N3 N3- 2 i 0.38803(13) 0.67598(12) 0.78499(10) 1 0 0.0165(7) 
H3 H1+ 2 i 0.4734 0.5948 0.7683 1 0 0.020 
O1 O2- 2 i 0.8964(4) 0.1403(4) 0.8641(3) 1 0 0.0187(6) 
O2 O2- 2 i 0.3192(4) 0.0057(4) 0.7918(3) 1 0 0.0191(6) 
O3 O2- 2 i 0.6912(4) 0.3805(4) 0.6750(3) 1 0 0.0206(6) 
O4 O2- 2 i 0.0554(4) 0.7252(4) 0.8072(4) 1 0 0.0191(6) 
O5 O2- 2 i 0.2376(4) 0.4147(4) 0.8230(3) 1 0 0.0202(7) 
O6 O2- 2 i 0.6332(3) 0.8293(3) 0.8006(2) 1 0 0.0235(7) 
O7 O2- 2 i 0.0456(3) 0.3090(3) 0.4879(2) 1 0 0.0316(8) 
H4 H1+ 2 i 0.0112 0.3317 0.3897 1 0 0.038 
H5 H1+ 2 i 0.9366 0.3463 0.4584 1 0 0.038 
O8 O2- 2 i 0.7724(3) 0.0536(3) 0.5606(2) 1 0 0.0298(8) 
H6 H1+ 2 i 0.7407 0.1652 0.5875 1 0 0.036 
H7 H1+ 2 i 0.7379 0.9660 0.6488 1 0 0.036 

loop_
_atom_site_aniso_label
_atom_site_aniso_type_symbol
_atom_site_aniso_U_11
_atom_site_aniso_U_22
_atom_site_aniso_U_33
_atom_site_aniso_U_12
_atom_site_aniso_U_13
_atom_site_aniso_U_23
K1 K1+ 0.0333(6) 0.0301(6) 0.0279(5) -0.0094(5) 0.0016(4) 0.0008(4)
Na1 Na1+ 0.0201(9) 0.0207(9) 0.0185(8) -0.0036(8) 0.0013(6) -0.0013(6)
Na2 Na1+ 0.0213(9) 0.0178(8) 0.0229(8) -0.0075(8) 0.0035(6) -0.0029(6)
P1 P5+ 0.0137(5) 0.0119(5) 0.0128(5) -0.0022(4) 0.0012(3) -0.0005(3)
P2 P5+ 0.0126(5) 0.0117(5) 0.0163(5) -0.0035(4) 0.0023(4) 0.0015(3)
P3 P5+ 0.0140(5) 0.0105(5) 0.0158(5) -0.0019(4) 0.0001(3) -0.0016(4)
N1 N3- 0.0116(16) 0.0177(17) 0.0168(16) -0.0030(15) -0.0021(12) -0.0004(13)
N2 N3- 0.0214(19) 0.0071(14) 0.0163(16) -0.0036(15) 0.0018(13) 0.0006(11)
N3 N3- 0.0156(18) 0.0124(16) 0.0181(16) -0.0013(15) 0.0033(13) -0.0003(12)
O1 O2- 0.0195(16) 0.0161(14) 0.0190(14) -0.0024(14) 0.0024(11) -0.0038(11)
O2 O2- 0.0222(16) 0.0132(14) 0.0202(14) -0.0049(13) 0.0001(11) -0.0001(10)
O3 O2- 0.0255(17) 0.0166(14) 0.0155(14) -0.0012(14) -0.0024(11) 0.0021(11)
O4 O2- 0.0168(16) 0.0142(14) 0.0234(15) 0.0031(13) -0.0040(11) -0.0032(11)
O5 O2- 0.0232(17) 0.0184(15) 0.0208(15) -0.0065(14) -0.0001(12) -0.0061(11)
O6 O2- 0.0133(15) 0.0229(17) 0.0282(16) -0.0025(14) 0.0054(12) 0.0017(12)
O7 O2- 0.033(2) 0.034(2) 0.0272(17) -0.0106(18) -0.0037(14) -0.0008(14)
O8 O2- 0.044(2) 0.0275(18) 0.0187(15) -0.0151(18) 0.0078(14) -0.0038(12)
#End of data_417714-ICSD


