data_63025-ICSD
#?2014 by Fachinformationszentrum Karlsruhe, and the U.S. Secretary of 
#Commerce on behalf of the United States.  All rights reserved.
_database_code_ICSD                63025
_audit_creation_date               1989/06/19
_audit_update_record               1998/06/26
_chemical_name_systematic
;
Diammonium Hexaaquamagnesium Bis(sulfate)
;
_chemical_formula_structural       '(N H4)2 (Mg (H2 O)6) (S O4)2'
_chemical_formula_sum              'H20 Mg1 N2 O14 S2'
_chemical_name_mineral             Boussingaultite
_publ_section_title
;
The structures of Tuttons's salts. I. Diammonium hexaaqua 
magnesium(II) sulfate.
;
loop_
_citation_id
_citation_journal_abbrev
_citation_year
_citation_journal_volume
_citation_page_first
_citation_page_last
_citation_journal_id_ASTM
primary 'Acta Crystallographica, Section C: Crystal Structure Communications'
 1988 44 409 412 ACSCEE
_publ_author_name
;
Maslen, E.N.;Ridout, S.C.;Watson, K.J.;Moore, F.H.
;
_cell_length_a                     9.316(2)
_cell_length_b                     12.580(4)
_cell_length_c                     6.202(1)
_cell_angle_alpha                  90.
_cell_angle_beta                   107.094(5)
_cell_angle_gamma                  90.
_cell_volume                       694.74
_cell_formula_units_Z              2
_symmetry_space_group_name_H-M     'P 1 21/a 1'
_symmetry_Int_Tables_number        14
_refine_ls_R_factor_all            .041
loop_
_symmetry_equiv_pos_site_id
_symmetry_equiv_pos_as_xyz
  1	'x+.5, -y+.5, z'
  2	'-x, -y, -z'
  3	'-x+.5, y+.5, -z'
  4	'x, y, z'
loop_
_atom_type_symbol
_atom_type_oxidation_number
H1+	1
Mg2+	2
N3-	-3
O2-	-2
S6+	6
loop_
_atom_site_label
_atom_site_type_symbol
_atom_site_symmetry_multiplicity
_atom_site_Wyckoff_symbol
_atom_site_fract_x
_atom_site_fract_y
_atom_site_fract_z
_atom_site_occupancy
_atom_site_attached_hydrogens
_atom_site_B_iso_or_equiv
Mg1 Mg2+ 2 a 0 0 0 1. 0 1.26 
S1 S6+ 4 e 0.4046(2) 0.1396(2) 0.7430(3) 1. 0 1.53 
O1 O2- 4 e 0.4039(2) 0.2295(1) 0.5898(2) 1. 0 2.53 
O2 O2- 4 e 0.5463(2) 0.0825(1) 0.7873(3) 1. 0 3.15 
O3 O2- 4 e 0.2807(1) 0.0674(1) 0.6282(2) 1. 0 2. 
O4 O2- 4 e 0.3821(2) 0.1785(1) 0.9546(2) 1. 0 2.27 
O5 O2- 4 e 0.1694(1) 0.1045(1) 0.1669(2) 1. 0 2.11 
O6 O2- 4 e -.1607(1) 0.1096(1) 0.0303(2) 1. 0 1.94 
O7 O2- 4 e -.0020(2) -.0691(1) 0.2982(2) 1. 0 1.91 
N1 N3- 4 e 0.1316(1) 0.3510(1) 0.3611(1) 1. 0 2.45 
H1 H1+ 4 e 0.0584(4) 0.3360(3) 0.2086(5) 1. 0 4.95 
H2 H1+ 4 e 0.2201(4) 0.3014(3) 0.4046(6) 1. 0 4.43 
H3 H1+ 4 e 0.0766(5) 0.3421(4) 0.4752(6) 1. 0 6.81 
H4 H1+ 4 e 0.1677(4) 0.4263(3) 0.3606(5) 1. 0 4.74 
H5 H1+ 4 e 0.2182(3) 0.0918(2) 0.3257(4) 1. 0 3.14 
H6 H1+ 4 e 0.2450(3) 0.1251(2) 0.0973(4) 1. 0 3.18 
H7 H1+ 4 e -.2652(2) 0.0973(2) -.0523(4) 1. 0 2.94 
H8 H1+ 4 e -.1419(3) 0.1839(2) 0.0055(4) 1. 0 2.98 
H9 H1+ 4 e -.0942(3) -.0614(2) 0.3389(4) 1. 0 3.5 
H10 H1+ 4 e 0.0284(3) -.1427(2) 0.3290(4) 1. 0 2.86 

#End of data_63025-ICSD


