data_9329-ICSD
#?2014 by Fachinformationszentrum Karlsruhe, and the U.S. Secretary of 
#Commerce on behalf of the United States.  All rights reserved.
_database_code_ICSD                9329
_audit_creation_date               1980/01/01
_audit_update_record               2007/08/01
_chemical_name_systematic          'Potassium Iodate(V)'
_chemical_formula_structural       'K (I O3)'
_chemical_formula_sum              'I1 K1 O3'
_publ_section_title
;
Symmetrie von K I O3 und die Struktur der Zimmertemperaturphase
;
loop_
_citation_id
_citation_journal_abbrev
_citation_year
_citation_journal_volume
_citation_page_first
_citation_page_last
_citation_journal_id_ASTM
primary
;
Zeitschrift fuer Kristallographie, Kristallgeometrie, Kristallphysik, 
Kristallchemie (-144,1977)
;
 1973 137 412 421 ZEKGAX
2 'Phase Transition' 1992 38 127 220 PHTRDP
_publ_author_name                  'Hamid, S.A.'
_cell_length_a                     8.923(5)
_cell_length_b                     8.942(7)
_cell_length_c                     7.709(6)
_cell_angle_alpha                  54.4(7)
_cell_angle_beta                   125.3(3)
_cell_angle_gamma                  90.6(1)
_cell_volume                       355.56
_cell_formula_units_Z              4
_symmetry_space_group_name_H-M     'P 1'
_symmetry_Int_Tables_number        1
_refine_ls_R_factor_all            .087
loop_
_symmetry_equiv_pos_site_id
_symmetry_equiv_pos_as_xyz
  1	'x, y, z'
loop_
_atom_type_symbol
_atom_type_oxidation_number
I5+	5
K1+	1
O2-	-2
loop_
_atom_site_label
_atom_site_type_symbol
_atom_site_symmetry_multiplicity
_atom_site_Wyckoff_symbol
_atom_site_fract_x
_atom_site_fract_y
_atom_site_fract_z
_atom_site_occupancy
_atom_site_attached_hydrogens
_atom_site_B_iso_or_equiv
K1 K1+ 1 a 0.023(4) 0.004(5) 0.020(7) 1. 0 0.19(1) 
K2 K1+ 1 a 0.008(6) 0.495(6) 0.009(7) 1. 0 0.19(1) 
K3 K1+ 1 a 0.484(3) -.0110(5) 0.012(3) 1. 0 0.19(1) 
K4 K1+ 1 a 0.494(2) 0.495(3) -.010(2) 1. 0 0.19(1) 
I1 I5+ 1 a 0.506(5) 0.504(2) 0.494(3) 1. 0 0.19(1) 
I2 I5+ 1 a 0.498(2) 0.007(2) 0.499(2) 1. 0 0.19(1) 
I3 I5+ 1 a 0.010(2) 0.492(3) 0.510(1) 1. 0 0.19(1) 
I4 I5+ 1 a 0.011(2) 0.013(1) 0.480(1) 1. 0 0.19(1) 
O1 O2- 1 a 0.266(3) 0.267(3) 0.020(2) 1. 0 0.19(1) 
O2 O2- 1 a 0.779(9) 0.211(9) 0.026(13) 1. 0 0.19(1) 
O3 O2- 1 a 0.733(2) 0.741(5) -.020(4) 1. 0 0.19(1) 
O4 O2- 1 a 0.231(1) 0.768(3) 0.018(3) 1. 0 0.19(1) 
O5 O2- 1 a 0.034(9) 0.219(10) 0.44(1) 1. 0 0.19(1) 
O6 O2- 1 a 0.001(10) 0.730(11) 0.475(14) 1. 0 0.19(1) 
O7 O2- 1 a 0.284(10) 0.016(10) 0.449(10) 1. 0 0.19(1) 
O8 O2- 1 a 0.764(3) 0.018(5) 0.462(2) 1. 0 0.19(1) 
O9 O2- 1 a 0.267(2) 0.550(4) 0.520(3) 1. 0 0.19(1) 
O10 O2- 1 a 0.757(11) 0.532(10) 0.554(2) 1. 0 0.19(1) 
O11 O2- 1 a 0.540(3) 0.266(6) 0.534(4) 1. 0 0.19(1) 
O12 O2- 1 a 0.433(2) 0.756(5) 0.564(7) 1. 0 0.19(1) 

#End of data_9329-ICSD


