data_20772-ICSD
#?2014 by Fachinformationszentrum Karlsruhe, and the U.S. Secretary of 
#Commerce on behalf of the United States.  All rights reserved.
_database_code_ICSD                20772
_audit_creation_date               1984/11/20
_chemical_name_systematic
;
Oxonium Trihydrate Pentafluoroaluminate
;
_chemical_formula_structural       '(H3 O)2 Al F5 (H2 O)3'
_chemical_formula_sum              'H12 Al1 F5 O5'
_publ_section_title
;
The crystal structure of oxonium triaquapolypentafluoro aluminate
;
loop_
_citation_id
_citation_journal_abbrev
_citation_year
_citation_journal_volume
_citation_page_first
_citation_page_last
_citation_journal_id_ASTM
primary 'Doklady Akademii Nauk SSSR' 1980 253 108 110 DANKAS
_publ_author_name
;
Trunov, V.K.;Efremov, V.A.;Konstantinova, L.I.;Welikodny, 
Yu.A.;Golota, A.F.
;
_cell_length_a                     7.926(2)
_cell_length_b                     3.651(2)
_cell_length_c                     13.776(5)
_cell_angle_alpha                  90.
_cell_angle_beta                   108.27(3)
_cell_angle_gamma                  90.
_cell_volume                       378.55
_cell_formula_units_Z              2
_symmetry_space_group_name_H-M     'P 1 c 1'
_symmetry_Int_Tables_number        7
_refine_ls_R_factor_all            .027
loop_
_symmetry_equiv_pos_site_id
_symmetry_equiv_pos_as_xyz
  1	'x, -y, z+.5'
  2	'x, y, z'
loop_
_atom_type_symbol
_atom_type_oxidation_number
Al3+	3
F1-	-1
H1+	1
O2-	-2
loop_
_atom_site_label
_atom_site_type_symbol
_atom_site_symmetry_multiplicity
_atom_site_Wyckoff_symbol
_atom_site_fract_x
_atom_site_fract_y
_atom_site_fract_z
_atom_site_occupancy
_atom_site_attached_hydrogens
Al1 Al3+ 2 a 0 -.0182(1) 0 1. 0 
F1 F1- 2 a 0.1550(2) -.0267(6) 0.1282(1) 1. 0 
F2 F1- 2 a -.1845(2) -.0170(5) 0.0502(1) 1. 0 
F3 F1- 2 a -.1544(2) -.0232(6) -.1263(1) 1. 0 
F4 F1- 2 a 0.1817(2) -.0268(6) -.0510(1) 1. 0 
F5 F1- 2 a 0.0006(10) 0.4804(3) 0.0001(6) 1. 0 
O1 O2- 2 a 0.4552(4) -.3313(10) 0.1683(2) 1. 0 
H1 H1+ 2 a 0.361(6) -.23(2) 0.141(3) 1. 0 
H2 H1+ 2 a 0.468(6) -.48(1) 0.110(4) 1. 0 
H3 H1+ 2 a 0.490(7) -.44(1) 0.222(4) 1. 0 
O2 O2- 2 a -.1484(3) 0.3630(7) -.2822(2) 1. 0 
H4 H1+ 2 a -.186(6) 0.21(2) -.256(3) 1. 0 
H5 H1+ 2 a -.184(6) 0.24(2) -.348(3) 1. 0 
H6 H1+ 2 a -.034(6) 0.43(1) -.256(4) 1. 0 
O3 O2- 2 a -.4642(3) -.3261(8) -.1703(2) 1. 0 
H7 H1+ 2 a -.343(6) -.33(2) -.184(4) 1. 0 
H8 H1+ 2 a -.476(6) -.39(1) -.125(3) 1. 0 
O4 O2- 2 a 0.1458(3) 0.3682(8) 0.2814(1) 1. 0 
H9 H1+ 2 a 0.148(6) 0.21(2) 0.230(4) 1. 0 
H10 H1+ 2 a 0.142(6) 0.27(2) 0.324(4) 1. 0 
O5 O2- 2 a -.5020(9) 0.3379(5) -.0005(6) 1. 0 
H11 H1+ 2 a -.421(5) 0.20(1) 0.006(4) 1. 0 
H12 H1+ 2 a -.588(7) 0.23(2) -.023(4) 1. 0 

#End of data_20772-ICSD


