data_83535-ICSD
#?2014 by Fachinformationszentrum Karlsruhe, and the U.S. Secretary of 
#Commerce on behalf of the United States.  All rights reserved.
_database_code_ICSD                83535
_audit_creation_date               1998/06/26
_chemical_name_systematic          'Potassium Tecto-alumotrisilicate'
_chemical_formula_structural       'K (Al Si3 O8)'
_chemical_formula_sum              'Al1 K1 O8 Si3'
_chemical_name_mineral             'Microcline (ordered)'
_publ_section_title
;
A high-pressure structural study of microcline (K Al Si3 O8) to 7 GPa
;
loop_
_citation_id
_citation_journal_abbrev
_citation_year
_citation_journal_volume
_citation_page_first
_citation_page_last
_citation_journal_id_ASTM
primary 'European Journal of Mineralogy' 1997 9 263 275 EJMIER
_publ_author_name                  'Allan, D.R.;Angel, R.J.'
_cell_length_a                     8.1578(13)
_cell_length_b                     12.8558(18)
_cell_length_c                     7.0406(11)
_cell_angle_alpha                  90.49(2)
_cell_angle_beta                   116.616(10)
_cell_angle_gamma                  87.86(2)
_cell_volume                       659.65
_cell_formula_units_Z              4
_symmetry_space_group_name_H-M     'C -1'
_symmetry_Int_Tables_number        2
_refine_ls_R_factor_all            .086
loop_
_symmetry_equiv_pos_site_id
_symmetry_equiv_pos_as_xyz
  1	'-x, -y, -z'
  2	'x, y, z'
  3	'-x+.5, -y+.5, -z'
  4	'x+.5, y+.5, z'
loop_
_atom_type_symbol
_atom_type_oxidation_number
Al3+	3
K1+	1
O2-	-2
Si4+	4
loop_
_atom_site_label
_atom_site_type_symbol
_atom_site_symmetry_multiplicity
_atom_site_Wyckoff_symbol
_atom_site_fract_x
_atom_site_fract_y
_atom_site_fract_z
_atom_site_occupancy
_atom_site_attached_hydrogens
_atom_site_B_iso_or_equiv
K1 K1+ 4 i 0.2652(6) -.0056(9) 0.1412(5) 1. 0 2.18(11) 
Al1 Al3+ 4 i -.0065(8) 0.1907(12) 0.2149(7) 1. 0 1.32(10) 
Si2 Si4+ 4 i -.0063(8) 0.8196(13) 0.2295(7) 1. 0 1.49(9) 
Si3 Si4+ 4 i 0.6955(8) 0.1177(12) 0.3369(7) 1. 0 1.57(9) 
Si4 Si4+ 4 i 0.6890(8) 0.8853(12) 0.3459(7) 1. 0 1.54(9) 
O1 O2- 4 i 0.0051(18) 0.1470(25) -.0111(16) 1. 0 1.76(21) 
O2 O2- 4 i 0.6072(22) 0.0073(30) 0.2928(17) 1. 0 2.20(25) 
O3 O2- 4 i 0.7916(20) 0.1474(27) 0.1924(17) 1. 0 1.91(23) 
O4 O2- 4 i 0.7979(19) 0.8639(24) 0.2063(16) 1. 0 1.75(23) 
O5 O2- 4 i 0.0111(21) 0.3195(28) 0.2661(17) 1. 0 2.12(26) 
O6 O2- 4 i 0.0147(22) 0.6992(31) 0.2820(18) 1. 0 2.19(25) 
O7 O2- 4 i 0.1731(18) 0.1252(26) 0.4064(16) 1. 0 1.83(23) 
O8 O2- 4 i 0.163(2) 0.8775(26) 0.4134(18) 1. 0 2.17(24) 

#End of data_83535-ICSD


