data_75906-ICSD
#?2014 by Fachinformationszentrum Karlsruhe, and the U.S. Secretary of 
#Commerce on behalf of the United States.  All rights reserved.
_database_code_ICSD                75906
_audit_creation_date               1996/04/22
_audit_update_record               2007/08/01
_chemical_name_systematic          'Aluminium Phosphate(V) - 41'
_chemical_formula_structural       'Al (P O4)'
_chemical_formula_sum              'Al1 O4 P1'
_chemical_name_mineral             AlPO-41
_publ_section_title
;
The structure of calcined Al P O4 - 41: a new framework topology 
containing one-dimensional 10-ring pores
;
loop_
_citation_id
_citation_journal_abbrev
_citation_year
_citation_journal_volume
_citation_page_first
_citation_page_last
_citation_journal_id_ASTM
primary Zeolites 1994 14 523 528 ZEOLD3
_publ_author_name                  'Kirchner, R.M.;Bennett, J.M.'
_cell_length_a                     9.7179(1)
_cell_length_b                     13.7915(1)
_cell_length_c                     8.3591(1)
_cell_angle_alpha                  90.
_cell_angle_beta                   90.
_cell_angle_gamma                  110.6(1)
_cell_volume                       1048.69
_cell_formula_units_Z              10
_symmetry_space_group_name_H-M     'P 1 1 21'
_symmetry_Int_Tables_number        4
_refine_ls_R_factor_all            .074
loop_
_symmetry_equiv_pos_site_id
_symmetry_equiv_pos_as_xyz
  1	'-x, -y, z+.5'
  2	'x, y, z'
loop_
_atom_type_symbol
_atom_type_oxidation_number
Al3+	3
O2-	-2
P5+	5
loop_
_atom_site_label
_atom_site_type_symbol
_atom_site_symmetry_multiplicity
_atom_site_Wyckoff_symbol
_atom_site_fract_x
_atom_site_fract_y
_atom_site_fract_z
_atom_site_occupancy
_atom_site_attached_hydrogens
_atom_site_B_iso_or_equiv
P1 P5+ 2 a 0.548(12) 0.096(6) 0.022(26) 1. 0 2.5(1) 
P2 P5+ 2 a 0.859(11) 0.284(7) 0.499(26) 1. 0 2.5(1) 
P3 P5+ 2 a 0.713(12) 0.440(6) 0.008(24) 1. 0 2.5(1) 
P4 P5+ 2 a 0.828(11) 0.671(6) 0.518(25) 1. 0 2.5(1) 
P5 P5+ 2 a 0.561(11) 0.716(7) 0.016(22) 1. 0 2.5(1) 
Al1 Al3+ 2 a 0.562(14) 0.122(7) 0.638(25) 1. 0 2.5(1) 
Al2 Al3+ 2 a 0.852(14) 0.278(8) 0.124(24) 1. 0 2.5(1) 
Al3 Al3+ 2 a 0.725(13) 0.443(7) 0.627(25) 1. 0 2.5(1) 
Al4 Al3+ 2 a 0.826(14) 0.666(7) 0.142(24) 1. 0 2.5(1) 
Al5 Al3+ 2 a 0.580(13) 0.743(7) 0.672(23) 1. 0 2.5(1) 
O1 O2- 2 a 0.449(21) 0.138(13) 0.146(27) 1. 0 3.8(1) 
O2 O2- 2 a 0.543(18) 0.127(9) 0.839(33) 1. 0 3.8(1) 
O3 O2- 2 a 0.708(19) 0.156(14) 0.042(32) 1. 0 3.8(1) 
O4 O2- 2 a 0.518(17) 0.976(13) 0.048(32) 1. 0 3.8(1) 
O5 O2- 2 a 0.835(19) 0.385(15) 0.548(31) 1. 0 3.8(1) 
O6 O2- 2 a -.006(24) 0.294(13) 0.559(30) 1. 0 3.8(1) 
O7 O2- 2 a 0.743(20) 0.158(14) 0.549(32) 1. 0 3.8(1) 
O8 O2- 2 a 0.855(16) 0.258(10) 0.313(35) 1. 0 3.8(1) 
O9 O2- 2 a 0.825(20) 0.393(14) 0.057(32) 1. 0 3.8(1) 
O10 O2- 2 a 0.752(19) 0.551(11) 0.11(3) 1. 0 3.8(1) 
O11 O2- 2 a 0.545(17) 0.342(12) 0.019 1. 0 3.8(1) 
O12 O2- 2 a 0.751(15) 0.448(9) 0.827(41) 1. 0 3.8(1) 
O13 O2- 2 a 0.754(23) 0.745(13) 0.620(27) 1. 0 3.8(1) 
O14 O2- 2 a 0.775(20) 0.554(12) 0.572(32) 1. 0 3.8(1) 
O15 O2- 2 a 0.801(13) 0.683(9) 0.327(36) 1. 0 3.8(1) 
O16 O2- 2 a -.022(24) 0.730(14) 0.555(31) 1. 0 3.8(1) 
O17 O2- 2 a 0.744(22) 0.742(12) 0.061(29) 1. 0 3.8(1) 
O18 O2- 2 a 0.534(15) 0.679(9) 0.834(30) 1. 0 3.8(1) 
O19 O2- 2 a 0.546(24) 0.806(15) 0.089(27) 1. 0 3.8(1) 
O20 O2- 2 a 0.464(23) 0.605(16) 0.089(29) 1. 0 3.8(1) 

#End of data_75906-ICSD


