data_91682-ICSD
#?2014 by Fachinformationszentrum Karlsruhe, and the U.S. Secretary of 
#Commerce on behalf of the United States.  All rights reserved.
_database_code_ICSD                91682
_audit_creation_date               2002/10/01
_audit_update_record               2007/08/01
_chemical_name_systematic          'Aluminium Phosphate(V)'
_chemical_formula_structural       'Al (P O4)'
_chemical_formula_sum              'Al1 O4 P1'
_chemical_name_mineral             'Zeolite AlPO-53'
_publ_section_title
;
Synthesis, crystal structure and thermal properties of the Al P O4 
material UiO-12
;
loop_
_citation_id
_citation_journal_abbrev
_citation_year
_citation_journal_volume
_citation_page_first
_citation_page_last
_citation_journal_id_ASTM
primary 'Microporous and Mesoporous Materials' 2000 39 333 339 MIMMFJ
_publ_author_name
;
Kongshaug, K.O.;Fjellvag, H.;Klewe, B.;Lillerud, K.P.
;
_cell_length_a                     13.918(2)
_cell_length_b                     9.663(1)
_cell_length_c                     18.0310(30)
_cell_angle_alpha                  90.
_cell_angle_beta                   90.
_cell_angle_gamma                  90.
_cell_volume                       2424.98
_cell_formula_units_Z              24
_symmetry_space_group_name_H-M     'P b c a'
_symmetry_Int_Tables_number        61
_refine_ls_R_factor_all            .071
loop_
_symmetry_equiv_pos_site_id
_symmetry_equiv_pos_as_xyz
  1	'x+.5, y, -z+.5'
  2	'x, -y+.5, z+.5'
  3	'-x+.5, y+.5, z'
  4	'-x, -y, -z'
  5	'-x+.5, -y, z+.5'
  6	'-x, y+.5, -z+.5'
  7	'x+.5, -y+.5, -z'
  8	'x, y, z'
loop_
_atom_type_symbol
_atom_type_oxidation_number
Al3+	3
O2-	-2
P5+	5
loop_
_atom_site_label
_atom_site_type_symbol
_atom_site_symmetry_multiplicity
_atom_site_Wyckoff_symbol
_atom_site_fract_x
_atom_site_fract_y
_atom_site_fract_z
_atom_site_occupancy
_atom_site_attached_hydrogens
_atom_site_B_iso_or_equiv
P1 P5+ 8 c 0.5733(5) 0.1323(6) 0.4169(7) 1. 0 1.1(2) 
P2 P5+ 8 c 0.5365(5) 0.6488(5) 0.3238(8) 1. 0 1.1(2) 
P3 P5+ 8 c 0.7476(4) 0.4117(5) 0.1986(7) 1. 0 1.1(2) 
Al1 Al3+ 8 c 0.5663(6) 0.3708(6) 0.0900(8) 1. 0 3.6(2) 
Al2 Al3+ 8 c 0.5355(6) 0.8341(6) 0.1780(8) 1. 0 3.6(2) 
Al3 Al3+ 8 c 0.7429(4) 0.1636(5) 0.3006(7) 1. 0 3.6(2) 
O1 O2- 8 c 0.6578(8) 0.1055(9) 0.3642(13) 1. 0 1.8(1) 
O2 O2- 8 c 0.6056(6) 0.1317(5) 0.4981(12) 1. 0 1.8(1) 
O3 O2- 8 c 0.5210(6) 0.2694(10) 0.4012(9) 1. 0 1.8(1) 
O4 O2- 8 c 0.5159(5) 0.0034(11) 0.3940(13) 1. 0 1.8(1) 
O5 O2- 8 c 0.4915(5) 0.7132(11) 0.3935(10) 1. 0 1.8(1) 
O6 O2- 8 c 0.5097(8) 0.7479(6) 0.2607(16) 1. 0 1.8(1) 
O7 O2- 8 c 0.6434(7) 0.6707(5) 0.3410(15) 1. 0 1.8(1) 
O8 O2- 8 c 0.4968(5) 0.5053(13) 0.3059(9) 1. 0 1.8(1) 
O9 O2- 8 c 0.8404(7) 0.3498(6) 0.1666(14) 1. 0 1.8(1) 
O10 O2- 8 c 0.7604(5) 0.5648(12) 0.2198(8) 1. 0 1.8(1) 
O11 O2- 8 c 0.6757(6) 0.4003(8) 0.1344(15) 1. 0 1.8(1) 
O12 O2- 8 c 0.7119(6) 0.3251(7) 0.2642(10) 1. 0 1.8(1) 

#End of data_91682-ICSD


