data_81117-ICSD
#?2014 by Fachinformationszentrum Karlsruhe, and the U.S. Secretary of 
#Commerce on behalf of the United States.  All rights reserved.
_database_code_ICSD                81117
_audit_creation_date               1997/05/13
_audit_update_record               2007/08/01
_chemical_name_systematic          'Dibarium Magnesium Disilicate'
_chemical_formula_structural       'Ba2 Mg (Si2 O7)'
_chemical_formula_sum              'Ba2 Mg1 O7 Si2'
_publ_section_title
;
Crystal structure of Ba2 Mg Si2 O7 melilite: the longest tetrahedral 
Mg - O distance
;
loop_
_citation_id
_citation_journal_abbrev
_citation_year
_citation_journal_volume
_citation_journal_issue
_citation_page_first
_citation_page_last
_citation_journal_id_ASTM
primary 'Neues Jahrbuch fuer Mineralogie. Monatshefte (Band=Jahr) (1950-)'
 1995 1995 1 39 47 NJMMAW
2 'Powder Diffraction' 1986 1- 334 345 PODIE2
_publ_author_name                  'Shimizu, M.;Kimata, M.;Iida, I.'
_cell_length_a                     8.2036(4)
_cell_length_b                     8.2036(4)
_cell_length_c                     5.4058(4)
_cell_angle_alpha                  90.
_cell_angle_beta                   90.
_cell_angle_gamma                  90.
_cell_volume                       363.81
_cell_formula_units_Z              2
_symmetry_space_group_name_H-M     'P -4 21 m'
_symmetry_Int_Tables_number        113
_refine_ls_R_factor_all            .024
loop_
_symmetry_equiv_pos_site_id
_symmetry_equiv_pos_as_xyz
  1	'-y+.5, -x+.5, z'
  2	'y, -x, -z'
  3	'y+.5, x+.5, z'
  4	'-y, x, -z'
  5	'x+.5, -y+.5, -z'
  6	'-x, -y, z'
  7	'-x+.5, y+.5, -z'
  8	'x, y, z'
loop_
_atom_type_symbol
_atom_type_oxidation_number
Ba2+	2
Mg2+	2
O2-	-2
Si4+	4
loop_
_atom_site_label
_atom_site_type_symbol
_atom_site_symmetry_multiplicity
_atom_site_Wyckoff_symbol
_atom_site_fract_x
_atom_site_fract_y
_atom_site_fract_z
_atom_site_occupancy
_atom_site_attached_hydrogens
Ba1 Ba2+ 4 e 0.33505(3) 0.16495(3) 0.50954(7) 1. 0 
Mg1 Mg2+ 2 a 0 0 0 1. 0 
Si1 Si4+ 4 e 0.1366(2) 0.3634(2) 0.9559(4) 1. 0 
O1 O2- 2 c 0.5 0 0.1386(13) 1. 0 
O2 O2- 4 e 0.1410(5) 0.3590(5) 0.2518(10) 1. 0 
O3 O2- 8 f 0.0772(5) 0.1944(5) 0.8224(7) 1. 0 

loop_
_atom_site_aniso_label
_atom_site_aniso_type_symbol
_atom_site_aniso_U_11
_atom_site_aniso_U_22
_atom_site_aniso_U_33
_atom_site_aniso_U_12
_atom_site_aniso_U_13
_atom_site_aniso_U_23
Ba1 Ba2+ 0.00783(21) 0.00783(21) 0.00775(24) 0.00164(9) 0.00087(9) 
-0.00087(9)
Mg1 Mg2+ 0.00238(65) 0.00238(65) 0.00556(120) 0 0 0
Si1 Si4+ 0.00521(41) 0.00521(41) 0.00595(76) 0.00097(62) -0.00021(45) 
0.00021(45)
O1 O2- 0.00872(182) 0.00872(182) 0.00666(290) -0.00169(282 0 0
O2 O2- 0.01366(149) 0.01366(149) 0.00505(193) 0.00732(199) -0.00022(127 
0.00022(127)
O3 O2- 0.01201(170) 0.00556(154) 0.01021(151) -0.00008(137 0.00105(127) 
0.00160(142)
#End of data_81117-ICSD


