data_163287-ICSD
#?2014 by Fachinformationszentrum Karlsruhe, and the U.S. Secretary of 
#Commerce on behalf of the United States.  All rights reserved.
_database_code_ICSD                163287
_audit_creation_date               2009/08/01
_audit_update_record               2010/02/01
_chemical_name_systematic
;
Dicalcium Magnesium Disilicate - Hp
;
_chemical_formula_structural       'Ca2 Mg (Si2 O7)'
_chemical_formula_sum              'Ca2 Mg1 O7 Si2'
_chemical_name_mineral             Akermanite
_publ_section_title
;
High-pressure behavior of akermanite and gehlenite and phase 
stability of the normal structure in melilites
;
loop_
_citation_id
_citation_journal_abbrev
_citation_year
_citation_journal_volume
_citation_page_first
_citation_page_last
_citation_journal_id_ASTM
primary 'American Mineralogist' 2009 94 704 709 AMMIAY
_publ_author_name
;
Merlini, M.;Gemmi, M.;Hanfland, M.;Crichton, W.
;
_cell_length_a                     8.82(1)
_cell_length_b                     7.34(1)
_cell_length_c                     9.13(1)
_cell_angle_alpha                  90.
_cell_angle_beta                   115.1(2)
_cell_angle_gamma                  90.
_cell_volume                       535.25
_cell_formula_units_Z              4
_symmetry_space_group_name_H-M     'P 1 21/n 1'
_symmetry_Int_Tables_number        14
_refine_ls_R_factor_all            .15
loop_
_symmetry_equiv_pos_site_id
_symmetry_equiv_pos_as_xyz
  1	'-x+.5, y+.5, -z+.5'
  2	'-x, -y, -z'
  3	'x+.5, -y+.5, z+.5'
  4	'x, y, z'
loop_
_atom_type_symbol
_atom_type_oxidation_number
Ca2+	2
Mg2+	2
O2-	-2
Si4+	4
loop_
_atom_site_label
_atom_site_type_symbol
_atom_site_symmetry_multiplicity
_atom_site_Wyckoff_symbol
_atom_site_fract_x
_atom_site_fract_y
_atom_site_fract_z
_atom_site_occupancy
_atom_site_attached_hydrogens
Mg1 Mg2+ 4 e 0.8107(11) 0.0997(7) 0.0926(11) 1. 0 
Si1 Si4+ 4 e 0.8648(7) 0.4512(5) 0.2150(8) 1. 0 
Si2 Si4+ 4 e 0.9575(6) 0.7554(3) 0.0731(5) 1. 0 
Ca1 Ca2+ 4 e 0.4593(5) 0.2794(3) 0.0294(5) 1. 0 
Ca2 Ca2+ 4 e 0.3028(4) 0.5638(3) 0.2121(4) 1. 0 
O1 O2- 4 e 0.9975(2) 0.5618(7) 0.1593(12) 1. 0 
O2 O2- 4 e 0.8801(16) 0.5221(11) 0.3791(16) 1. 0 
O3 O2- 4 e 0.698(3) 0.4728(19) 0.041(3) 1. 0 
O4 O2- 4 e 0.0049(19) 0.8800(12) 0.2257(19) 1. 0 
O5 O2- 4 e 0.1263(9) 0.8208(6) 0.0662(9) 1. 0 
O6 O2- 4 e 0.9530(12) 0.2625(6) 0.2856(11) 1. 0 
O7 O2- 4 e 0.783(2) 0.7583(10) -0.097(2) 1. 0 

#End of data_163287-ICSD


