data_2488-ICSD
#?2014 by Fachinformationszentrum Karlsruhe, and the U.S. Secretary of 
#Commerce on behalf of the United States.  All rights reserved.
_database_code_ICSD                2488
_audit_creation_date               1980/01/01
_audit_update_record               2012/02/01
_chemical_name_systematic          'Hexapotassium Dimanganate(III)'
_chemical_formula_structural       'K6 (Mn2 O6)'
_chemical_formula_sum              'K6 Mn2 O6'
_publ_section_title
;
K6 Mn2 O6  und  K6 Fe O6  - ein Vergleich
;
loop_
_citation_id
_citation_journal_abbrev
_citation_year
_citation_journal_volume
_citation_page_first
_citation_page_last
_citation_journal_id_ASTM
primary 'Zeitschrift fuer Anorganische und Allgemeine Chemie (1950) (DE)'
 1978 446 64 76 ZAACAB
_publ_author_name                  'Brachtel, G.;Hoppe, R.'
_cell_length_a                     8.886(2)
_cell_length_b                     6.760(2)
_cell_length_c                     11.394(1)
_cell_angle_alpha                  90.
_cell_angle_beta                   90.
_cell_angle_gamma                  132.13(2)
_cell_volume                       507.59
_cell_formula_units_Z              2
_symmetry_space_group_name_H-M     'P 1 1 21/b'
_symmetry_Int_Tables_number        14
loop_
_symmetry_equiv_pos_site_id
_symmetry_equiv_pos_as_xyz
  1	'x, y+.5, -z+.5'
  2	'-x, -y, -z'
  3	'-x, -y+.5, z+.5'
  4	'x, y, z'
loop_
_atom_type_symbol
_atom_type_oxidation_number
K1+	1
Mn3+	3
O2-	-2
loop_
_atom_site_label
_atom_site_type_symbol
_atom_site_symmetry_multiplicity
_atom_site_Wyckoff_symbol
_atom_site_fract_x
_atom_site_fract_y
_atom_site_fract_z
_atom_site_occupancy
_atom_site_attached_hydrogens
K1 K1+ 4 e 0.3479(2) 0.2071(3) 0.0131(2) 1. 0 
K2 K1+ 4 e 0.4692(2) 0.9724(3) 0.7907(1) 1. 0 
K3 K1+ 4 e 0.9828(2) 0.5549(3) 0.2742(2) 1. 0 
Mn1 Mn3+ 4 e 0.1564(1) 0.4980(2) 0.0050(1) 1. 0 
O1 O2- 4 e 0.8856(6) 0.2841(8) 0.0704(4) 1. 0 
O2 O2- 4 e 0.2987(6) 0.5222(9) 0.1317(5) 1. 0 
O3 O2- 4 e 0.7284(6) 0.5365(9) 0.1190(5) 1. 0 

loop_
_atom_site_aniso_label
_atom_site_aniso_type_symbol
_atom_site_aniso_U_11
_atom_site_aniso_U_22
_atom_site_aniso_U_33
_atom_site_aniso_U_12
_atom_site_aniso_U_13
_atom_site_aniso_U_23
K1 K1+ 0.0139(5) 0.0191(6) 0.0174(5) 0.0107(4) -.0033(5) -.0024(6)
K2 K1+ 0.0119(5) 0.0178(6) 0.0149(5) 0.0093(4) -.0004(5) 0.0006(5)
K3 K1+ 0.0153(5) 0.0194(6) 0.0169(5) 0.0098(5) -.0044(5) -.0037(6)
Mn1 Mn3+ 0.0046(3) 0.0127(4) 0.0082(5) 0.0055(3) 0.0007(3) 0.0007(3)
O1 O2- 0.0077(14) 0.0172(16) 0.0125(11) 0.0076(13) 0.0046(15) 0.0053(17)
O2 O2- 0.0107(15) 0.0223(18) 0.0165(12) 0.0104(14) -.0030(17) 0.0003(19)
O3 O2- 0.0134(16) 0.0251(19) 0.0182(13) 0.0149(15) 0.0024(17) -.0002(20)
#End of data_2488-ICSD


