data_28569-ICSD
#?2014 by Fachinformationszentrum Karlsruhe, and the U.S. Secretary of 
#Commerce on behalf of the United States.  All rights reserved.
_database_code_ICSD                28569
_audit_creation_date               1980/01/01
_audit_update_record               2009/02/01
_chemical_name_systematic          'Sodium Niobate'
_chemical_formula_structural       'Na (Nb O3)'
_chemical_formula_sum              'Na1 Nb1 O3'
_chemical_name_mineral             'Lueshite low'
_publ_section_title
;
An X-ray study of phase transitions in Na Nb O3
;
loop_
_citation_id
_citation_journal_abbrev
_citation_year
_citation_journal_volume
_citation_page_first
_citation_page_last
_citation_journal_id_ASTM
primary Kristallografiya 1961 6 218 224 KRISAJ
2 'Soviet Physics, Crystallography (= Kristallografiya)'
 1961 6 171 175 SPHCA6
_publ_author_name
;
Solov'ev, S.P.;Venevtsev, Yu.N.;Zhdanov, G.S.
;
_cell_length_a                     3.9181
_cell_length_b                     3.9115
_cell_length_c                     3.9181
_cell_angle_alpha                  90.
_cell_angle_beta                   90.4
_cell_angle_gamma                  90.
_cell_volume                       60.05
_cell_formula_units_Z              1
_symmetry_space_group_name_H-M     'P 1 2/m 1'
_symmetry_Int_Tables_number        10
loop_
_symmetry_equiv_pos_site_id
_symmetry_equiv_pos_as_xyz
  1	'-x, y, -z'
  2	'-x, -y, -z'
  3	'x, -y, z'
  4	'x, y, z'
loop_
_atom_type_symbol
_atom_type_oxidation_number
Na1+	1
Nb5+	5
O2-	-2
loop_
_atom_site_label
_atom_site_type_symbol
_atom_site_symmetry_multiplicity
_atom_site_Wyckoff_symbol
_atom_site_fract_x
_atom_site_fract_y
_atom_site_fract_z
_atom_site_occupancy
_atom_site_attached_hydrogens
Na1 Na1+ 1 a 0 0 0 1. 0 
Nb1 Nb5+ 1 h 0.5 0.5 0.5 1. 0 
O1 O2- 1 g 0.5 0 0.5 1. 0 
O2 O2- 1 f 0 0.5 0.5 1. 0 
O3 O2- 1 e 0.5 0.5 0 1. 0 

#End of data_28569-ICSD


