data_187277-ICSD
#?2014 by Fachinformationszentrum Karlsruhe, and the U.S. Secretary of 
#Commerce on behalf of the United States.  All rights reserved.
_database_code_ICSD                187277
_audit_creation_date               2013/08/01
_chemical_name_systematic          'Dipotassium Zinc Tetrahydride'
_chemical_formula_structural       'K2 Zn H4'
_chemical_formula_sum              'H4 K2 Zn1'
_publ_section_title
;
Structure, electronic characteristic and thermodynamic properties of 
K2 Zn H4 hydride crystal: A first - principles study
;
loop_
_citation_id
_citation_journal_abbrev
_citation_year
_citation_journal_volume
_citation_page_first
_citation_page_last
_citation_journal_id_ASTM
primary 'Journal of Alloys and Compounds' 2013 549 30 37 JALCEU
_publ_author_name
;
Liu, Chuan;Zhang, Shengli;Huang, Shiping;Wang, Peng;Tian, Huiping
;
_cell_length_a                     7.7756
_cell_length_b                     5.8753
_cell_length_c                     10.3038
_cell_angle_alpha                  90.
_cell_angle_beta                   90.
_cell_angle_gamma                  90.
_cell_volume                       470.72
_cell_formula_units_Z              4
_symmetry_space_group_name_H-M     'P n m a'
_symmetry_Int_Tables_number        62
loop_
_symmetry_equiv_pos_site_id
_symmetry_equiv_pos_as_xyz
  1	'x+.5, y, -z+.5'
  2	'x, -y+.5, z'
  3	'-x+.5, y+.5, z+.5'
  4	'-x, -y, -z'
  5	'-x+.5, -y, z+.5'
  6	'-x, y+.5, -z'
  7	'x+.5, -y+.5, -z+.5'
  8	'x, y, z'
loop_
_atom_type_symbol
_atom_type_oxidation_number
H1-	-1
K1+	1
Zn2+	2
loop_
_atom_site_label
_atom_site_type_symbol
_atom_site_symmetry_multiplicity
_atom_site_Wyckoff_symbol
_atom_site_fract_x
_atom_site_fract_y
_atom_site_fract_z
_atom_site_occupancy
_atom_site_attached_hydrogens
K1 K1+ 4 c 0.161 0.250 0.409 1. 0 
K2 K1+ 4 c 0.487 0.250 0.688 1. 0 
Zn1 Zn2+ 4 c 0.235 0.250 0.082 1. 0 
H1 H1- 8 d 0.312 0.019 0.154 1. 0 
H2 H1- 4 c 0.024 0.250 0.087 1. 0 
H3 H1- 4 c 0.807 0.250 0.571 1. 0 

#End of data_187277-ICSD


