data_67523-ICSD
#?2014 by Fachinformationszentrum Karlsruhe, and the U.S. Secretary of 
#Commerce on behalf of the United States.  All rights reserved.
_database_code_ICSD                67523
_audit_creation_date               1993/08/22
_chemical_name_systematic          'Lithium Magnesium Arsenate'
_chemical_formula_structural       'Li Mg (As O4)'
_chemical_formula_sum              'As1 Li1 Mg1 O4'
_publ_section_title
;
Structural Refinement of Olivine-Type LiMgAsO4
;
loop_
_citation_id
_citation_journal_abbrev
_citation_year
_citation_journal_volume
_citation_page_first
_citation_page_last
_citation_journal_id_ASTM
primary 'Australian Journal of Chemistry' 1992 45 1355 1362 AJCHAS
_publ_author_name                  'Barbier, J.'
_cell_length_a                     10.4183(15)
_cell_length_b                     5.9660(8)
_cell_length_c                     4.8692(5)
_cell_angle_alpha                  90.
_cell_angle_beta                   90.
_cell_angle_gamma                  90.
_cell_volume                       302.65
_cell_formula_units_Z              4
_symmetry_space_group_name_H-M     'P n m a'
_symmetry_Int_Tables_number        62
_refine_ls_R_factor_all            .027
loop_
_symmetry_equiv_pos_site_id
_symmetry_equiv_pos_as_xyz
  1	'x+.5, y, -z+.5'
  2	'x, -y+.5, z'
  3	'-x+.5, y+.5, z+.5'
  4	'-x, -y, -z'
  5	'-x+.5, -y, z+.5'
  6	'-x, y+.5, -z'
  7	'x+.5, -y+.5, -z+.5'
  8	'x, y, z'
loop_
_atom_type_symbol
_atom_type_oxidation_number
As5+	5
Li1+	1
Mg2+	2
O2-	-2
loop_
_atom_site_label
_atom_site_type_symbol
_atom_site_symmetry_multiplicity
_atom_site_Wyckoff_symbol
_atom_site_fract_x
_atom_site_fract_y
_atom_site_fract_z
_atom_site_occupancy
_atom_site_attached_hydrogens
_atom_site_B_iso_or_equiv
Li1 Li1+ 4 a 0 0 0 1. 0 0.7(3) 
Mg1 Mg2+ 4 c 0.2738(5) 0.25 0.9972(12) 1. 0 0.5(1) 
As1 As5+ 4 c 0.0928(5) 0.25 0.4298(8) 1. 0 0.9(1) 
O1 O2- 4 c 0.1007(5) 0.25 0.7738(10) 1. 0 0.4(1) 
O2 O2- 4 c 0.4489(5) 0.25 0.1975(10) 1. 0 0.5(1) 
O3 O2- 8 d 0.1723(4) 0.0339(5) 0.2810(8) 1. 0 0.52(7) 

#End of data_67523-ICSD


