data_90735-ICSD
#?2014 by Fachinformationszentrum Karlsruhe, and the U.S. Secretary of 
#Commerce on behalf of the United States.  All rights reserved.
_database_code_ICSD                90735
_audit_creation_date               2002/04/01
_chemical_name_systematic
;
Lanthanum Potassium Oxide Carbonate
;
_chemical_formula_structural       'La K O (C O3)'
_chemical_formula_sum              'C1 K1 La1 O4'
_publ_section_title
;
Stacking disorder in a layered carbonate phase: the structure of LaK 
O C O3
;
loop_
_citation_id
_citation_journal_abbrev
_citation_year
_citation_journal_volume
_citation_page_first
_citation_page_last
_citation_journal_id_ASTM
primary 'Journal of Physics and Chemistry of Solids' 2000 61 1945 1953 JPCSAW
_publ_author_name
;
Guenther, W.;Paulus, W.;Schoellhorn, R.
;
_cell_length_a                     5.6793(3)
_cell_length_b                     12.3841(3)
_cell_length_c                     5.6793(3)
_cell_angle_alpha                  90.
_cell_angle_beta                   90.
_cell_angle_gamma                  90.
_cell_volume                       399.44
_cell_formula_units_Z              4
_symmetry_space_group_name_H-M     'P c c a'
_symmetry_Int_Tables_number        54
_refine_ls_R_factor_all            .058
loop_
_symmetry_equiv_pos_site_id
_symmetry_equiv_pos_as_xyz
  1	'x, -y, z+.5'
  2	'-x+.5, y, z+.5'
  3	'x+.5, y, -z'
  4	'-x, -y, -z'
  5	'-x, y, -z+.5'
  6	'x+.5, -y, -z+.5'
  7	'-x+.5, -y, z'
  8	'x, y, z'
loop_
_atom_type_symbol
_atom_type_oxidation_number
C4+	4
K1+	1
La3+	3
O2-	-2
loop_
_atom_site_label
_atom_site_type_symbol
_atom_site_symmetry_multiplicity
_atom_site_Wyckoff_symbol
_atom_site_fract_x
_atom_site_fract_y
_atom_site_fract_z
_atom_site_occupancy
_atom_site_attached_hydrogens
La1 La3+ 4 c 0 0.1007(4) 0.25 1. 0 
K1 K1+ 4 c 0 0.3941(8) 0.25 1. 0 
C1 C4+ 4 c 0 0.7126(4) 0.75 1. 0 
O1 O2- 8 f 0.140(2) 0.7633(5) 0.112(2) 1. 0 
O2 O2- 4 d 0.25 0 0 1. 0 
O3 O2- 4 c 0 0.6109(5) 0.25 1. 0 

loop_
_atom_site_aniso_label
_atom_site_aniso_type_symbol
_atom_site_aniso_B_11
_atom_site_aniso_B_22
_atom_site_aniso_B_33
_atom_site_aniso_B_12
_atom_site_aniso_B_13
_atom_site_aniso_B_23
La1 La3+ 0.32(3) 0.47(3) 0.32(3) 0 0 0
K1 K1+ 0.32(3) 0.47(3) 0.32(3) 0 0 0
C1 C4+ 0.32(3) 0.47(3) 0.32(3) 0 0 0
O1 O2- 1.15(6) 1.7(1) 1.15(6) 0 0 0
O2 O2- 0.32(3) 0.47(3) 0.32(3) 0 0 0
O3 O2- 0.43(5) 0.6(1) 0.43(5) 0 0 0
#End of data_90735-ICSD


