data_418944-ICSD
#?2014 by Fachinformationszentrum Karlsruhe, and the U.S. Secretary of 
#Commerce on behalf of the United States.  All rights reserved.
_database_code_ICSD                418944
_audit_creation_date               2008/08/01
_chemical_name_systematic
;
Undecacalcium Hexanitrido Bis(nitridocarbonate)
;
_chemical_formula_structural       'Ca11 N6 (C N2)2'
_chemical_formula_sum              'C2 Ca11 N10'
_publ_section_title
;
Calcium carbodiimide compounds revisited - Syntheses, single crystal 
structure determination and vibrational spectra of Ca11 N6 [C N2]2, 
Ca4 N2 [C N2] and Ca [C N2]
;
loop_
_citation_id
_citation_journal_abbrev
_citation_year
_citation_journal_volume
_citation_journal_issue
_citation_page_first
_citation_page_last
_citation_journal_id_ASTM
primary 'Zeitschrift fuer Naturforschung, B: Chemical Sciences'
 2008 63 5 530 536 ZNBSEN
_publ_author_name                  'Reckeweg, O.;DiSalvo, F.J.'
_cell_length_a                     14.5622(5)
_cell_length_b                     14.5622(5)
_cell_length_c                     3.6186(2)
_cell_angle_alpha                  90.00
_cell_angle_beta                   90.00
_cell_angle_gamma                  90.00
_cell_volume                       767.35
_cell_formula_units_Z              2
_symmetry_space_group_name_H-M     'P 42/m n m'
_symmetry_Int_Tables_number        136
_refine_ls_R_factor_all            .0558
loop_
_symmetry_equiv_pos_site_id
_symmetry_equiv_pos_as_xyz
  1	'-y+.5, x+.5, -z+.5'
  2	'y+.5, -x+.5, -z+.5'
  3	'y, x, -z'
  4	'-y, -x, -z'
  5	'y+.5, -x+.5, z+.5'
  6	'-y+.5, x+.5, z+.5'
  7	'-y, -x, z'
  8	'y, x, z'
  9	'x+.5, -y+.5, -z+.5'
 10	'-x+.5, y+.5, -z+.5'
 11	'x, y, -z'
 12	'-x, -y, -z'
 13	'-x+.5, y+.5, z+.5'
 14	'x+.5, -y+.5, z+.5'
 15	'-x, -y, z'
 16	'x, y, z'
loop_
_atom_type_symbol
_atom_type_oxidation_number
C4+	4
Ca2+	2
N3-	-3
loop_
_atom_site_label
_atom_site_type_symbol
_atom_site_symmetry_multiplicity
_atom_site_Wyckoff_symbol
_atom_site_fract_x
_atom_site_fract_y
_atom_site_fract_z
_atom_site_occupancy
_atom_site_attached_hydrogens
_atom_site_U_iso_or_equiv
Ca1 Ca2+ 2 a 0.0000 0.0000 0.0000 1 0 0.0118(6) 
Ca2 Ca2+ 8 i 0.29520(9) 0.52018(9) 0.0000 1 0 0.0103(4) 
Ca3 Ca2+ 4 g 0.16733(10) -0.16733(10) 0.0000 1 0 0.0133(5) 
Ca4 Ca2+ 8 i 0.39460(10) 0.11703(11) 0.0000 1 0 0.0141(4) 
N1 N3- 4 f 0.4104(4) 0.4104(4) 0.0000 1 0 0.0102(17) 
N2 N3- 8 i 0.6897(4) 0.0283(4) 0.0000 1 0 0.0135(12) 
N3 N3- 4 f 0.2437(5) 0.2437(5) 0.0000 1 0 0.033(3) 
N4 N3- 4 f 0.1245(4) 0.1245(4) 0.0000 1 0 0.019(2) 
C1 C4+ 4 f 0.1846(5) 0.1846(5) 0.0000 1 0 0.013(2) 

loop_
_atom_site_aniso_label
_atom_site_aniso_type_symbol
_atom_site_aniso_U_11
_atom_site_aniso_U_22
_atom_site_aniso_U_33
_atom_site_aniso_U_12
_atom_site_aniso_U_13
_atom_site_aniso_U_23
Ca1 Ca2+ 0.0108(9) 0.0108(9) 0.0139(16) 0.0004(10) 0.000 0.000
Ca2 Ca2+ 0.0110(7) 0.0113(7) 0.0086(7) -0.0012(5) 0.000 0.000
Ca3 Ca2+ 0.0157(7) 0.0157(7) 0.0084(11) 0.0062(8) 0.000 0.000
Ca4 Ca2+ 0.0161(7) 0.0159(7) 0.0103(7) -0.0058(5) 0.000 0.000
N1 N3- 0.013(2) 0.013(2) 0.004(4) -0.002(3) 0.000 0.000
N2 N3- 0.012(3) 0.015(3) 0.013(3) 0.000(2) 0.000 0.000
N3 N3- 0.034(4) 0.034(4) 0.030(6) -0.016(5) 0.000 0.000
N4 N3- 0.019(3) 0.019(3) 0.020(5) -0.005(4) 0.000 0.000
C1 C4+ 0.0108(9) 0.0108(9) 0.0139(16) 0.0004(10) 0.000 0.000
#End of data_418944-ICSD


