data_47104-ICSD
#?2014 by Fachinformationszentrum Karlsruhe, and the U.S. Secretary of 
#Commerce on behalf of the United States.  All rights reserved.
_database_code_ICSD                47104
_audit_creation_date               1985/02/12
_audit_update_record               1999/11/30
_chemical_name_systematic          'Octalithium Hexaoxoplumbate'
_chemical_formula_structural       'Li8 (Pb O6)'
_chemical_formula_sum              'Li8 O6 Pb1'
_publ_section_title                'Zur Kristallstruktur von Li8 Pb O6'
loop_
_citation_id
_citation_journal_abbrev
_citation_year
_citation_journal_volume
_citation_page_first
_citation_page_last
_citation_journal_id_ASTM
primary 'Zeitschrift fuer Anorganische und Allgemeine Chemie (1950) (DE)'
 1984 515 81 86 ZAACAB
_publ_author_name                  'Barzel, B.;Hoppe, R.'
_cell_length_a                     5.5509(4)
_cell_length_b                     5.5509(4)
_cell_length_c                     15.6413(17)
_cell_angle_alpha                  90.
_cell_angle_beta                   90.
_cell_angle_gamma                  120.
_cell_volume                       417.38
_cell_formula_units_Z              3
_symmetry_space_group_name_H-M     'R -3 H'
_symmetry_Int_Tables_number        148
_refine_ls_R_factor_all            .0307
loop_
_symmetry_equiv_pos_site_id
_symmetry_equiv_pos_as_xyz
  1	'x-y, x, -z'
  2	'y, -x+y, -z'
  3	'-x, -y, -z'
  4	'-x+y, -x, z'
  5	'-y, x-y, z'
  6	'x, y, z'
  7	'x-y+.6666, x+.3333, -z+.3333'
  8	'x-y+.3333, x+.6666, -z+.6666'
  9	'y+.6666, -x+y+.3333, -z+.3333'
 10	'y+.3333, -x+y+.6666, -z+.6666'
 11	'-x+.6666, -y+.3333, -z+.3333'
 12	'-x+.3333, -y+.6666, -z+.6666'
 13	'-x+y+.6666, -x+.3333, z+.3333'
 14	'-x+y+.3333, -x+.6666, z+.6666'
 15	'-y+.6666, x-y+.3333, z+.3333'
 16	'-y+.3333, x-y+.6666, z+.6666'
 17	'x+.6666, y+.3333, z+.3333'
 18	'x+.3333, y+.6666, z+.6666'
loop_
_atom_type_symbol
_atom_type_oxidation_number
Li1+	1
O2-	-2
Pb4+	4
loop_
_atom_site_label
_atom_site_type_symbol
_atom_site_symmetry_multiplicity
_atom_site_Wyckoff_symbol
_atom_site_fract_x
_atom_site_fract_y
_atom_site_fract_z
_atom_site_occupancy
_atom_site_attached_hydrogens
Pb1 Pb4+ 3 a 0 0 0 1. 0 
Li1 Li1+ 18 f 0.3707(26) 0.3551(28) 0.1215(7) 1. 0 
Li2 Li1+ 6 c 0 0 0.3455(17) 1. 0 
O1 O2- 18 f 0.011(1) 0.3218(9) 0.0828(3) 1. 0 

loop_
_atom_site_aniso_label
_atom_site_aniso_type_symbol
_atom_site_aniso_U_11
_atom_site_aniso_U_22
_atom_site_aniso_U_33
_atom_site_aniso_U_12
_atom_site_aniso_U_13
_atom_site_aniso_U_23
Pb1 Pb4+ 0.0036(2) 0.0036(2) 0.0038(3) 0.0018 0 0
Li1 Li1+ 0.010(5) 0.0163(54) 0.0098(41) 0.0047(44) -.0018(38) -.0054(43)
Li2 Li1+ 0.0132(57) 0.0132(57) 0.0243(99) 0.0066(29) 0 0
O1 O2- 0.0082(17) 0.0052(16) 0.0082(14) 0.0037(15) 0.0014(14) -.0001(14)
#End of data_47104-ICSD


