data_92342-ICSD
#?2014 by Fachinformationszentrum Karlsruhe, and the U.S. Secretary of 
#Commerce on behalf of the United States.  All rights reserved.
_database_code_ICSD                92342
_audit_creation_date               2002/10/01
_chemical_name_systematic          'Calcium Ferrate(IV)'
_chemical_formula_structural       'Ca (Fe O3)'
_chemical_formula_sum              'Ca1 Fe1 O3'
_publ_section_title
;
Metal-semiconductor transition, charge disproportionation, and low-
temperature structure of Ca1-x Srx Fe O3 synthesized under high-
oxygen pressure
;
loop_
_citation_id
_citation_journal_abbrev
_citation_year
_citation_journal_volume
_citation_page_first
_citation_page_last
_citation_journal_id_ASTM
primary 'Solid State Sciences' 2000 2 673 687 SSSCFJ
_publ_author_name
;
Takeda, T.;Kanno, R.;Kawamoto, Y.;Takano, M.;Kawasaki, S.;Kamiyama, 
T.;Izumi, F.
;
_cell_length_a                     5.32113(9)
_cell_length_b                     5.34893(9)
_cell_length_c                     7.53413(11)
_cell_angle_alpha                  90.
_cell_angle_beta                   90.037(6)
_cell_angle_gamma                  90.
_cell_volume                       214.44
_cell_formula_units_Z              4
_symmetry_space_group_name_H-M     'P 1 21/n 1'
_symmetry_Int_Tables_number        14
_refine_ls_R_factor_all            .014
loop_
_symmetry_equiv_pos_site_id
_symmetry_equiv_pos_as_xyz
  1	'-x+.5, y+.5, -z+.5'
  2	'-x, -y, -z'
  3	'x+.5, -y+.5, z+.5'
  4	'x, y, z'
loop_
_atom_type_symbol
_atom_type_oxidation_number
Ca2+	2
Fe4+	4
O2-	-2
loop_
_atom_site_label
_atom_site_type_symbol
_atom_site_symmetry_multiplicity
_atom_site_Wyckoff_symbol
_atom_site_fract_x
_atom_site_fract_y
_atom_site_fract_z
_atom_site_occupancy
_atom_site_attached_hydrogens
_atom_site_B_iso_or_equiv
Ca1 Ca2+ 4 e -.0087(19) 0.0344(8) 0.750(7) 1. 0 0.75(7) 
Fe1 Fe4+ 2 d 0.5 0 0 1. 0 0.249(18) 
Fe2 Fe4+ 2 c 0 0.5 0 1. 0 0.249(18) 
O1 O2- 4 e 0.716(3) 0.286(7) 0.964(3) 1. 0 0.5(4) 
O2 O2- 4 e 0.710(3) 0.288(7) 0.532(2) 1. 0 0.5(4) 
O3 O2- 4 e 0.0656(11) 0.4902(9) 0.752(4) 1. 0 0.53(8) 

#End of data_92342-ICSD


