data_182823-ICSD
#?2014 by Fachinformationszentrum Karlsruhe, and the U.S. Secretary of 
#Commerce on behalf of the United States.  All rights reserved.
_database_code_ICSD                182823
_audit_creation_date               2012/08/01
_chemical_name_systematic          'Calcium Manganate'
_chemical_formula_structural       'Ca (Mn O3)'
_chemical_formula_sum              'Ca1 Mn1 O3'
_publ_section_title
;
Thermoelectric properties of n-type  Ca1-x Dyx Mn1-y Nby O3-d 
compounds (x=0, 0.02, 0.1 and y=0, 0.02) prepared by spray-drying 
method
;
loop_
_citation_id
_citation_journal_abbrev
_citation_year
_citation_journal_volume
_citation_page_first
_citation_page_last
_citation_journal_id_ASTM
primary 'Journal of Alloys and Compounds' 2011 509 7710 7716 JALCEU
_publ_author_name
;
Muguerra, H.;Rivas Murias, B.;Traianidis, M.;Marchal, 
C.;Vanderbemden, P.;Vertruyen, B.;Henrist, C.;Cloots, R.
;
_cell_length_a                     5.2805(4)
_cell_length_b                     7.4538(6)
_cell_length_c                     5.2670(4)
_cell_angle_alpha                  90.
_cell_angle_beta                   90.
_cell_angle_gamma                  90.
_cell_volume                       207.31
_cell_formula_units_Z              4
_symmetry_space_group_name_H-M     'P n m a'
_symmetry_Int_Tables_number        62
_refine_ls_R_factor_all            .057
loop_
_symmetry_equiv_pos_site_id
_symmetry_equiv_pos_as_xyz
  1	'x+.5, y, -z+.5'
  2	'x, -y+.5, z'
  3	'-x+.5, y+.5, z+.5'
  4	'-x, -y, -z'
  5	'-x+.5, -y, z+.5'
  6	'-x, y+.5, -z'
  7	'x+.5, -y+.5, -z+.5'
  8	'x, y, z'
loop_
_atom_type_symbol
_atom_type_oxidation_number
Ca2+	2
Mn4+	4
O2-	-2
loop_
_atom_site_label
_atom_site_type_symbol
_atom_site_symmetry_multiplicity
_atom_site_Wyckoff_symbol
_atom_site_fract_x
_atom_site_fract_y
_atom_site_fract_z
_atom_site_occupancy
_atom_site_attached_hydrogens
Ca1 Ca2+ 4 c 0.028(2) 0.25 -0.0019(4) 1. 0 
Mn1 Mn4+ 4 b 0 0 0.5 1. 0 
O1 O2- 4 c 0.47(8) 0.25 0.095(8) 1. 0 
O2 O2- 8 d 0.29(6) 0.028(4) 0.71(6) 1. 0 

#End of data_182823-ICSD


