data_107344-ICSD
#?2014 by Fachinformationszentrum Karlsruhe, and the U.S. Secretary of 
#Commerce on behalf of the United States.  All rights reserved.
_database_code_ICSD                107344
_audit_creation_date               2013/08/01
_audit_update_record               2014/02/01
_chemical_name_systematic
;
Sodium Calcium Pentacopper Tetraarsenate Monochloride Pentahydrate
;
_chemical_formula_structural       'Na Ca Cu5 (As O4)4 Cl (H2 O)5'
_chemical_formula_sum              'H10 As4 Ca1 Cl1 Cu5 Na1 O21'
_chemical_name_mineral             Lavendulan
_publ_section_title
;
The crystal structures of lavendulan, sampleite, and a new polymorph 
of sampleite
;
loop_
_citation_id
_citation_journal_abbrev
_citation_year
_citation_journal_volume
_citation_page_first
_citation_page_last
_citation_journal_id_ASTM
primary 'European Journal of Mineralogy' 2007 19 75 93 EJMIER
_publ_author_name
;
Giester, G.;Kolitsch, U.;Leverett, P.;Turner, P.;Williams, P.A.
;
_cell_length_a                     10.011(1)
_cell_length_b                     19.478(2)
_cell_length_c                     10.056(1)
_cell_angle_alpha                  90
_cell_angle_beta                   90.37(1)
_cell_angle_gamma                  90
_cell_volume                       1960.82
_cell_formula_units_Z              4
_symmetry_space_group_name_H-M     'P 1 21/n 1'
_symmetry_Int_Tables_number        14
_refine_ls_R_factor_all            .0535
loop_
_symmetry_equiv_pos_site_id
_symmetry_equiv_pos_as_xyz
  1	'-x+.5, y+.5, -z+.5'
  2	'-x, -y, -z'
  3	'x+.5, -y+.5, z+.5'
  4	'x, y, z'
loop_
_atom_type_symbol
_atom_type_oxidation_number
As5+	5
Ca2+	2
Cl1-	-1
Cu2+	2
H1+	1
Na1+	1
O2-	-2
loop_
_atom_site_label
_atom_site_type_symbol
_atom_site_symmetry_multiplicity
_atom_site_Wyckoff_symbol
_atom_site_fract_x
_atom_site_fract_y
_atom_site_fract_z
_atom_site_occupancy
_atom_site_attached_hydrogens
_atom_site_U_iso_or_equiv
Na1 Na1+ 4 e 0.2902(3) 0.1083(2) 0.6475(3) 1. 0 0.0309(3) 
Ca1 Ca2+ 4 e 0.78303(15) 0.09544(8) 0.13674(16) 1. 0 0.0207(3) 
Cu1 Cu2+ 4 e 0.05806(9) 0.21004(5) 0.13981(9) 1. 0 0.0175(2) 
Cu2 Cu2+ 4 e 0.52395(9) 0.21604(5) 0.14172(9) 1. 0 0.0178(2) 
Cu3 Cu2+ 4 e 0.29061(8) 0.21147(5) 0.36580(9) 1. 0 0.0172(2) 
Cu4 Cu2+ 4 e 0.29423(9) 0.21174(5) -0.08393(9) 1. 0 0.0175(2) 
Cu5 Cu2+ 4 e 0.79415(9) 0.09098(5) 0.64051(9) 1. 0 0.0165(2) 
As1 As5+ 4 e -0.00500(7) 0.15757(4) 0.43069(7) 1. 0 0.01576(17) 
As2 As5+ 4 e 0.00026(7) 0.15848(4) 0.84746(7) 1. 0 0.01530(16) 
As3 As5+ 4 e 0.58430(7) 0.16290(4) 0.43480(7) 1. 0 0.01555(16) 
As4 As5+ 4 e 0.58955(7) 0.16303(4) 0.84879(7) 1. 0 0.01553(16) 
O1 O2- 4 e -0.0729(5) 0.0882(3) 0.4986(5) 1. 0 0.0216(11) 
O2 O2- 4 e -0.0455(5) 0.1587(3) 0.2685(5) 1. 0 0.0207(11) 
O3 O2- 4 e 0.1605(5) 0.1539(3) 0.4595(5) 1. 0 0.0224(12) 
O4 O2- 4 e -0.0663(5) 0.2307(3) 0.5016(5) 1. 0 0.0178(10) 
O5 O2- 4 e -0.0622(5) 0.0883(3) 0.7728(5) 1. 0 0.0210(11) 
O6 O2- 4 e 0.1646(5) 0.1601(3) 0.8155(5) 1. 0 0.0221(12) 
O7 O2- 4 e -0.0405(5) 0.1570(3) 1.0086(6) 1. 0 0.0219(11) 
O8 O2- 4 e -0.0697(5) 0.2312(3) 0.7804(5) 1. 0 0.0191(11) 
O9 O2- 4 e 0.6513(5) 0.0936(3) 0.5050(5) 1. 0 0.0227(11) 
O10 O2- 4 e 0.4212(5) 0.1617(3) 0.4674(5) 1. 0 0.0234(12) 
O11 O2- 4 e 0.6239(5) 0.1627(3) 0.2722(6) 1. 0 0.0201(11) 
O12 O2- 4 e 0.6494(5) 0.2361(3) 0.5021(5) 1. 0 0.0171(10) 
O13 O2- 4 e 0.6656(5) 0.0954(3) 0.7840(5) 1. 0 0.0229(11) 
O14 O2- 4 e 0.4250(5) 0.1604(3) 0.8191(5) 1. 0 0.0201(11) 
O15 O2- 4 e 0.6482(5) 0.2374(3) 0.7790(5) 1. 0 0.0179(10) 
O16 O2- 4 e 0.6329(5) 0.1680(3) 1.0119(5) 1. 0 0.0204(11) 
Cl1 Cl1- 4 e 0.30063(19) 0.13529(10) 0.1362(2) 1. 0 0.0244(4) 
O17 O2- 4 e 0.8525(7) 0.0042(4) 0.2943(7) 1. 0 0.0320(14) 
O18 O2- 4 e 0.2341(10) 0.0227(4) 0.3557(9) 1. 0 0.046(2) 
O19 O2- 4 e 0.4415(7) 0.0202(4) 0.6420(7) 1. 0 0.0361(15) 
O20 O2- 4 e 0.8513(8) 0.0069(4) -.0096(7) 1. 0 0.0383(17) 
O21 O2- 4 e 0.5882(9) 0.0224(5) 0.1097(9) 1. 0 0.054(2) 
H1 H1+ 4 e 0.919(11) -.019(6) 0.263(11) 1. 0 0.038 
H2 H1+ 4 e 0.875(11) 0.026(6) 0.363(11) 1. 0 0.038 
H3 H1+ 4 e 0.270(14) 0.042(8) 0.326(14) 1. 0 0.055 
H4 H1+ 4 e 0.216(13) 0.051(7) 0.400(13) 1. 0 0.055 
H5 H1+ 4 e 0.414(14) -.008(6) 0.547(11) 1. 0 0.043 
H6 H1+ 4 e 0.516(11) 0.041(6) 0.619(11) 1. 0 0.043 
H7 H1+ 4 e 0.757(12) -.009(6) -.008(11) 1. 0 0.046 
H8 H1+ 4 e 0.889(13) 0.022(7) -.054(12) 1. 0 0.046 
H9 H1+ 4 e 0.555(15) 0.001(8) 0.068(14) 1. 0 0.064 
H10 H1+ 4 e 0.562(14) 0.017(17) 0.187(14) 1. 0 0.064 

loop_
_atom_site_aniso_label
_atom_site_aniso_type_symbol
_atom_site_aniso_U_11
_atom_site_aniso_U_22
_atom_site_aniso_U_33
_atom_site_aniso_U_12
_atom_site_aniso_U_13
_atom_site_aniso_U_23
Na1 Na1+ 0.02590 0.04200 0.02480 0.00360 0.00080 -0.00160
Ca1 Ca2+ 0.01720 0.02600 0.01880 0.00120 0.00000 0.00010
Cu1 Cu2+ 0.01670 0.02530 0.01050 -0.00320 -0.00020 -0.00010
Cu2 Cu2+ 0.01580 0.02640 0.01130 0.00250 0.00050 0.00020
Cu3 Cu2+ 0.01130 0.02420 0.01600 -0.00010 -0.00060 0.00270
Cu4 Cu2+ 0.01160 0.02620 0.01470 -0.00020 0.00030 -0.00260
Cu5 Cu2+ 0.01300 0.02420 0.01250 -0.00010 0.00020 -0.00060
As1 As5+ 0.01250 0.02360 0.01120 -0.00050 0.00090 0.00020
As2 As5+ 0.01180 0.02300 0.01110 -0.00030 -0.00050 -0.00070
As3 As5+ 0.01230 0.02240 0.01190 0.00030 -0.00060 0.00040
As4 As5+ 0.01190 0.02300 0.01170 0.00050 0.00120 -0.00040
O1 O2- 0.02100 0.02700 0.01700 -0.00400 0.00800 0.00100
O2 O2- 0.02700 0.02500 0.01000 -0.00900 0.00100 0.00100
O3 O2- 0.00800 0.03200 0.02600 -0.00100 0.00100 0.00700
O4 O2- 0.01400 0.02600 0.01400 0.00100 -0.00300 -0.00200
O5 O2- 0.01700 0.02500 0.02100 -0.00200 -0.00400 -0.00200
O6 O2- 0.00800 0.03600 0.02300 0.00200 -0.00300 -0.00900
O7 O2- 0.01800 0.03300 0.01600 -0.00600 -0.00100 -0.00100
O8 O2- 0.02000 0.02600 0.01200 -0.00100 -0.00100 0.00300
O9 O2- 0.02300 0.02700 0.01800 0.00100 -0.00800 0.00300
O10 O2- 0.01300 0.03600 0.02100 0.00200 0.00100 0.01000
O11 O2- 0.02500 0.02800 0.00800 0.00700 -0.00400 0.00100
O12 O2- 0.01500 0.02500 0.01100 -0.00300 0.00360 -0.00260
O13 O2- 0.02200 0.02900 0.01700 0.00200 0.00800 -0.00200
O14 O2- 0.00900 0.03100 0.02000 0.00200 0.00000 -0.00700
O15 O2- 0.01900 0.02200 0.01300 0.00100 0.00200 0.00440
O16 O2- 0.01800 0.03200 0.01100 0.00400 0.00100 -0.00200
Cl1 Cl1- 0.02460 0.02760 0.02090 -0.00160 0.00040 0.00180
O17 O2- 0.033 0.038 0.024 0.002 -.005 -0.006
O18 O2- 0.070 0.027 0.040 -.002 0.017 0.002
O19 O2- 0.032 0.043 0.033 -.008 0.009 -0.002
O20 O2- 0.043 0.044 0.028 -.004 0.006 -0.005
O21 O2- 0.053 0.065 0.042 -.030 -.006 0.011
#End of data_107344-ICSD


