data_10320-ICSD
#?2014 by Fachinformationszentrum Karlsruhe, and the U.S. Secretary of 
#Commerce on behalf of the United States.  All rights reserved.
_database_code_ICSD                10320
_audit_creation_date               1980/01/01
_chemical_name_systematic          'Sodium Antimonate'
_chemical_formula_structural       'Na3 Sb O4'
_chemical_formula_sum              'Na3 O4 Sb1'
_publ_section_title
;
Zur Kenntnis von Na3 Bi O4 und Na3 Sb O4
;
loop_
_citation_id
_citation_journal_abbrev
_citation_year
_citation_journal_volume
_citation_page_first
_citation_page_last
_citation_journal_id_ASTM
primary 'Zeitschrift fuer Anorganische und Allgemeine Chemie (1950) (DE)'
 1972 393 136 148 ZAACAB
_publ_author_name                  'Schwedes, B.;Hoppe, R.'
_cell_length_a                     5.795
_cell_length_b                     6.595
_cell_length_c                     5.418
_cell_angle_alpha                  90.
_cell_angle_beta                   109.4
_cell_angle_gamma                  90.
_cell_volume                       195.31
_cell_formula_units_Z              2
_symmetry_space_group_name_H-M     'P 1 2/c 1'
_symmetry_Int_Tables_number        13
loop_
_symmetry_equiv_pos_site_id
_symmetry_equiv_pos_as_xyz
  1	'x, -y, z+.5'
  2	'-x, -y, -z'
  3	'-x, y, -z+.5'
  4	'x, y, z'
loop_
_atom_type_symbol
_atom_type_oxidation_number
Na1+	1
O2-	-2
Sb5+	5
loop_
_atom_site_label
_atom_site_type_symbol
_atom_site_symmetry_multiplicity
_atom_site_Wyckoff_symbol
_atom_site_fract_x
_atom_site_fract_y
_atom_site_fract_z
_atom_site_occupancy
_atom_site_attached_hydrogens
Sb1 Sb5+ 2 e 0 0.1360(1) 0.25 1. 0 
Na1 Na1+ 2 e 0 0.619(1) 0.25 1. 0 
Na2 Na1+ 2 f 0.5 0.874(1) 0.25 1. 0 
Na3 Na1+ 2 f 0.5 0.394(1) 0.25 1. 0 
O1 O2- 4 g 0.203(2) 0.103(2) 0 1. 0 
O2 O2- 4 g 0.232(2) 0.342(1) 0.471(4) 1. 0 

#End of data_10320-ICSD


