data_170896-ICSD
#?2014 by Fachinformationszentrum Karlsruhe, and the U.S. Secretary of 
#Commerce on behalf of the United States.  All rights reserved.
_database_code_ICSD                170896
_audit_creation_date               2006/04/01
_chemical_name_systematic          'Potassium Uranyl(V) Silicate'
_chemical_formula_structural       'K (U O) Si2 O6'
_chemical_formula_sum              'K1 O7 Si2 U1'
_publ_section_title
;
K (U O) Si2 O6: A pentavalent-uranium silicate
;
loop_
_citation_id
_citation_journal_abbrev
_citation_year
_citation_journal_volume
_citation_journal_issue
_citation_page_first
_citation_page_last
_citation_journal_id_ASTM
primary 'Journal of the American Chemical Society' 2005 127 35 12208 12209 JACSAT
_publ_author_name                  'Chen, C.-S.;Lee, S.F.;Li, K.-H.'
_cell_length_a                     9.1428(3)
_cell_length_b                     9.1428(3)
_cell_length_c                     8.2587(6)
_cell_angle_alpha                  90.00
_cell_angle_beta                   90.00
_cell_angle_gamma                  90.00
_cell_volume                       690.35
_cell_formula_units_Z              4
_symmetry_space_group_name_H-M     'P 4/m b m'
_symmetry_Int_Tables_number        127
_refine_ls_R_factor_all            .0177
loop_
_symmetry_equiv_pos_site_id
_symmetry_equiv_pos_as_xyz
  1	'y+.5, x+.5, -z'
  2	'-y+.5, -x+.5, -z'
  3	'-y, x, -z'
  4	'y, -x, -z'
  5	'x+.5, -y+.5, -z'
  6	'-x+.5, y+.5, -z'
  7	'x, y, -z'
  8	'-x, -y, -z'
  9	'-y+.5, -x+.5, z'
 10	'y+.5, x+.5, z'
 11	'y, -x, z'
 12	'-y, x, z'
 13	'-x+.5, y+.5, z'
 14	'x+.5, -y+.5, z'
 15	'-x, -y, z'
 16	'x, y, z'
loop_
_atom_type_symbol
_atom_type_oxidation_number
K1+	1
O2-	-2
Si4+	4
U5+	5
loop_
_atom_site_label
_atom_site_type_symbol
_atom_site_symmetry_multiplicity
_atom_site_Wyckoff_symbol
_atom_site_fract_x
_atom_site_fract_y
_atom_site_fract_z
_atom_site_occupancy
_atom_site_attached_hydrogens
_atom_site_U_iso_or_equiv
K1 K1+ 4 h 0.32149(10) 0.17851(10) 0.5000 1 0 0.0231(3) 
U1 U5+ 4 e 0.0000 0.0000 0.249372(17) 1 0 0.00543(12) 
Si1 Si4+ 8 k 0.11963(7) 0.38037(7) 0.19423(12) 1 0 0.0086(2) 
O1 O2- 16 l 0.0734(2) 0.2245(2) 0.26708(19) 1 0 0.0175(5) 
O2 O2- 4 g 0.1218(3) 0.3782(3) 0.0000 1 0 0.0202(8) 
O3 O2- 4 f 0.0000 0.5000 0.2571(3) 1 0 0.0173(15) 
O4 O2- 2 b 0.0000 0.0000 0.5000 1 0 0.0157(17) 
O5 O2- 2 a 0.0000 0.0000 0.0000 1 0 0.0186(18) 

loop_
_atom_site_aniso_label
_atom_site_aniso_type_symbol
_atom_site_aniso_U_11
_atom_site_aniso_U_22
_atom_site_aniso_U_33
_atom_site_aniso_U_12
_atom_site_aniso_U_13
_atom_site_aniso_U_23
K1 K1+ 0.0251(5) 0.0251(5) 0.0192(6) 0.0011(5) 0.000 0.000
U1 U5+ 0.00671(13) 0.00671(13) 0.00286(16) 0.000 0.000 0.000
Si1 Si4+ 0.0092(3) 0.0092(3) 0.0075(4) -0.0004(4) 0.0000(3) 0.0000(3)
O1 O2- 0.0215(13) 0.0106(10) 0.0203(11) -0.0037(9) 0.0000(7) 0.0028(7)
O2 O2- 0.0270(13) 0.0270(13) 0.0067(17) 0.0078(18) 0.000 0.000
O3 O2- 0.020(2) 0.020(2) 0.013(3) 0.0099(15) 0.000 0.000
O4 O2- 0.022(3) 0.022(3) 0.003(3) 0.000 0.000 0.000
O5 O2- 0.027(3) 0.027(3) 0.002(3) 0.000 0.000 0.000
#End of data_170896-ICSD


