data_85042-ICSD
#?2014 by Fachinformationszentrum Karlsruhe, and the U.S. Secretary of 
#Commerce on behalf of the United States.  All rights reserved.
_database_code_ICSD                85042
_audit_creation_date               1999/06/02
_audit_update_record               2006/04/01
_chemical_name_systematic          'Manganese Dizinc Ditantalum Oxide'
_chemical_formula_structural       'Mn Zn2 Ta2 O8'
_chemical_formula_sum              'Mn1 O8 Ta2 Zn2'
_publ_section_title
;
Geordnete und ungeordnete Metallverteilung in Mn Zn2 Ta2 O8 und 
Mn0.33 Zn0.67 Ta2 O6
;
loop_
_citation_id
_citation_journal_abbrev
_citation_year
_citation_journal_volume
_citation_page_first
_citation_page_last
_citation_journal_id_ASTM
primary 'Zeitschrift fuer Anorganische und Allgemeine Chemie (1950) (DE)'
 1989 572 102 108 ZAACAB
_publ_author_name                  'Rohweder, U.;Mueller Buschbaum, H.'
_cell_length_a                     19.286(5)
_cell_length_b                     5.922(1)
_cell_length_c                     5.228(1)
_cell_angle_alpha                  90.
_cell_angle_beta                   90.31(2)
_cell_angle_gamma                  90.
_cell_volume                       597.09
_cell_formula_units_Z              4
_symmetry_space_group_name_H-M     'C 1 2/c 1'
_symmetry_Int_Tables_number        15
_refine_ls_R_factor_all            .042
loop_
_symmetry_equiv_pos_site_id
_symmetry_equiv_pos_as_xyz
  1	'x, -y, z+.5'
  2	'-x, -y, -z'
  3	'-x, y, -z+.5'
  4	'x, y, z'
  5	'x+.5, -y+.5, z+.5'
  6	'-x+.5, -y+.5, -z'
  7	'-x+.5, y+.5, -z+.5'
  8	'x+.5, y+.5, z'
loop_
_atom_type_symbol
_atom_type_oxidation_number
Mn2+	2
O2-	-2
Ta5+	5
Zn2+	2
loop_
_atom_site_label
_atom_site_type_symbol
_atom_site_symmetry_multiplicity
_atom_site_Wyckoff_symbol
_atom_site_fract_x
_atom_site_fract_y
_atom_site_fract_z
_atom_site_occupancy
_atom_site_attached_hydrogens
_atom_site_B_iso_or_equiv
Ta1 Ta5+ 8 f 0.1168 0.1597(1) 0.2374(1) 1. 0 0.75(1) 
Zn1 Zn2+ 8 f 0.2797(1) 0.1521(4) 0.2629(3) 1. 0 0.69(2) 
Mn1 Mn2+ 4 e 0 0.6560(7) 0.25 1. 0 0.44(4) 
O1 O2- 8 f 0.193(1) 0.356(2) 0.369(2) 1. 0 0.66(13) 
O2 O2- 8 f 0.181(1) 0.102(2) 0.940(2) 1. 0 0.49(13) 
O3 O2- 8 f 0.060(1) 0.375(2) 0.094(2) 1. 0 0.73(15) 
O4 O2- 8 f 0.071(1) 0.111(2) 0.567(2) 1. 0 0.67(14) 

#End of data_85042-ICSD


