data_421883-ICSD
#?2014 by Fachinformationszentrum Karlsruhe, and the U.S. Secretary of 
#Commerce on behalf of the United States.  All rights reserved.
_database_code_ICSD                421883
_audit_creation_date               2011/02/01
_audit_update_record               2012/02/01
_chemical_name_systematic
;
Tetratellurium Bis(tetrachloroaluminate)
;
_chemical_formula_structural       'Te4 (Al Cl4)2'
_chemical_formula_sum              'Al2 Cl8 Te4'
_publ_section_title
;
A facile route for the synthesis of polycationic tellurium cluster 
compounds: synthesis in ionic liquid media and characterization by 
single-crystal x-ray crystallography and magnetic susceptibility
;
loop_
_citation_id
_citation_journal_abbrev
_citation_year
_citation_journal_volume
_citation_journal_issue
_citation_page_first
_citation_page_last
_citation_journal_id_ASTM
primary 'Zeitschrift fuer Anorganische und Allgemeine Chemie (1950) (DE)'
 2010 636 15 2602 2606 ZAACAB
_publ_author_name
;
Ahmed, E.;Ahrens, E.;Heise, M.;Ruck, M.
;
_cell_length_a                     10.7210(10)
_cell_length_b                     14.1280(10)
_cell_length_c                     11.832(2)
_cell_angle_alpha                  90.00
_cell_angle_beta                   90.00
_cell_angle_gamma                  90.00
_cell_volume                       1792.15
_cell_formula_units_Z              4
_symmetry_space_group_name_H-M     'P b c a'
_symmetry_Int_Tables_number        61
_refine_ls_R_factor_all            .0334
loop_
_symmetry_equiv_pos_site_id
_symmetry_equiv_pos_as_xyz
  1	'x+.5, y, -z+.5'
  2	'x, -y+.5, z+.5'
  3	'-x+.5, y+.5, z'
  4	'-x, -y, -z'
  5	'-x+.5, -y, z+.5'
  6	'-x, y+.5, -z+.5'
  7	'x+.5, -y+.5, -z'
  8	'x, y, z'
loop_
_atom_type_symbol
_atom_type_oxidation_number
Al3+	3
Cl1-	-1
Te.5+	.5
loop_
_atom_site_label
_atom_site_type_symbol
_atom_site_symmetry_multiplicity
_atom_site_Wyckoff_symbol
_atom_site_fract_x
_atom_site_fract_y
_atom_site_fract_z
_atom_site_occupancy
_atom_site_attached_hydrogens
_atom_site_U_iso_or_equiv
Te1 Te.5+ 8 c 0.01047(6) 0.07424(4) 0.36773(4) 1 0 0.0578(2) 
Te2 Te.5+ 8 c 0.39219(6) 0.40979(4) 0.43419(5) 1 0 0.0600(2) 
Al1 Al3+ 8 c 0.3885(3) 0.35895(18) 0.08459(19) 1 0 0.0490(7) 
Cl1 Cl1- 8 c 0.3823(4) 0.1221(3) 0.4090(2) 1 0 0.1037(11) 
Cl2 Cl1- 8 c 0.0701(3) 0.3304(2) 0.3535(3) 1 0 0.0861(9) 
Cl3 Cl1- 8 c 0.3128(2) 0.47854(16) 0.1715(2) 1 0 0.0663(7) 
Cl4 Cl1- 8 c 0.2755(3) 0.23905(17) 0.1256(2) 1 0 0.0782(7) 

loop_
_atom_site_aniso_label
_atom_site_aniso_type_symbol
_atom_site_aniso_U_11
_atom_site_aniso_U_22
_atom_site_aniso_U_33
_atom_site_aniso_U_12
_atom_site_aniso_U_13
_atom_site_aniso_U_23
Te1 Te.5+ 0.0764(5) 0.0521(4) 0.0449(3) 0.0125(3) 0.0003(3) 0.0060(3)
Te2 Te.5+ 0.0761(5) 0.0533(4) 0.0505(4) -0.0204(3) -0.0038(3) 0.0002(3)
Al1 Al3+ 0.0557(18) 0.0505(14) 0.0408(13) 0.0049(13) -0.0004(11) 
-0.0030(11)
Cl1 Cl1- 0.129(3) 0.143(3) 0.0394(13) -0.018(2) 0.0073(14) -0.0105(15)
Cl2 Cl1- 0.0587(18) 0.094(2) 0.106(2) 0.0181(15) 0.0172(14) 0.0069(17)
Cl3 Cl1- 0.0734(17) 0.0564(14) 0.0690(14) 0.0191(13) -0.0146(12) 
-0.0150(12)
Cl4 Cl1- 0.0859(19) 0.0512(14) 0.0975(18) -0.0033(13) 0.0272(15) 
-0.0063(13)
#End of data_421883-ICSD


