data_59846-ICSD
#?2014 by Fachinformationszentrum Karlsruhe, and the U.S. Secretary of 
#Commerce on behalf of the United States.  All rights reserved.
_database_code_ICSD                59846
_audit_creation_date               2005/10/01
_chemical_name_systematic          'Zinc Catena-polyphosphate'
_chemical_formula_structural       'Zn (P O3)2'
_chemical_formula_sum              'O6 P2 Zn1'
_publ_section_title
;
The high-temperature modification of zinc catena-polyphosphate, beta-
Zn (P O3)2
;
loop_
_citation_id
_citation_journal_abbrev
_citation_year
_citation_journal_volume
_citation_page_first
_citation_page_last
_citation_journal_id_ASTM
primary 'Acta Crystallographica, Section C: Crystal Structure Communications'
 2004 60 i20 i22 ACSCEE
_publ_author_name                  'Weil, M.'
_cell_length_a                     7.6353(8)
_cell_length_b                     7.6077(8)
_cell_length_c                     16.335(2)
_cell_angle_alpha                  90.00
_cell_angle_beta                   92.190(9)
_cell_angle_gamma                  90.00
_cell_volume                       948.16
_cell_formula_units_Z              8
_symmetry_space_group_name_H-M     'C 1 c 1'
_symmetry_Int_Tables_number        9
_refine_ls_R_factor_all            .0228
loop_
_symmetry_equiv_pos_site_id
_symmetry_equiv_pos_as_xyz
  1	'x, -y, z+.5'
  2	'x, y, z'
  3	'x+.5, -y+.5, z+.5'
  4	'x+.5, y+.5, z'
loop_
_atom_type_symbol
_atom_type_oxidation_number
O2-	-2
P5+	5
Zn2+	2
loop_
_atom_site_label
_atom_site_type_symbol
_atom_site_symmetry_multiplicity
_atom_site_Wyckoff_symbol
_atom_site_fract_x
_atom_site_fract_y
_atom_site_fract_z
_atom_site_occupancy
_atom_site_attached_hydrogens
_atom_site_U_iso_or_equiv
Zn1 Zn2+ 4 a 0.54201(3) 0.59896(3) 0.402327(16) 1 0 0.01320(6) 
Zn2 Zn2+ 4 a 0.63572(3) 0.30933(4) 0.119393(16) 1 0 0.01399(6) 
P1 P5+ 4 a 0.22087(7) 0.21549(7) 0.14693(3) 1 0 0.01053(9) 
P2 P5+ 4 a 0.23113(7) 0.52016(7) 0.25942(3) 1 0 0.01064(9) 
P3 P5+ 4 a -0.04783(7) 0.51759(7) 0.37625(3) 1 0 0.01099(10) 
P4 P5+ 4 a -0.03902(7) 0.76957(7) 0.51140(3) 1 0 0.01011(9) 
O1 O2- 4 a -0.0001(2) 0.9594(2) 0.50005(10) 1 0 0.0168(3) 
O2 O2- 4 a 0.0132(3) 0.3472(2) 0.40846(13) 1 0 0.0281(4) 
O3 O2- 4 a 0.0805(2) 0.3043(2) 0.08498(11) 1 0 0.0201(3) 
O4 O2- 4 a 0.1673(3) 0.0356(2) 0.16829(11) 1 0 0.0184(3) 
O5 O2- 4 a 0.1938(3) 0.3280(2) 0.22632(11) 1 0 0.0219(4) 
O6 O2- 4 a 0.2611(2) 0.6424(2) 0.19131(11) 1 0 0.0208(3) 
O7 O2- 4 a -0.2358(2) 0.5431(3) 0.35899(11) 1 0 0.0223(4) 
O8 O2- 4 a -0.2220(2) 0.7130(2) 0.52380(10) 1 0 0.0167(3) 
O9 O2- 4 a 0.3634(2) 0.5038(3) 0.32699(11) 1 0 0.0259(4) 
O10 O2- 4 a 0.3945(2) 0.2413(3) 0.11371(13) 1 0 0.0278(4) 
O11 O2- 4 a 0.0322(2) 0.6663(2) 0.43542(10) 1 0 0.0184(3) 
O12 O2- 4 a 0.0455(2) 0.5675(3) 0.29458(10) 1 0 0.0182(3) 

loop_
_atom_site_aniso_label
_atom_site_aniso_type_symbol
_atom_site_aniso_U_11
_atom_site_aniso_U_22
_atom_site_aniso_U_33
_atom_site_aniso_U_12
_atom_site_aniso_U_13
_atom_site_aniso_U_23
Zn1 Zn2+ 0.01138(10) 0.01338(11) 0.01484(11) 0.00002(9) 0.00051(8) 
0.00254(10)
Zn2 Zn2+ 0.01241(11) 0.01345(11) 0.01644(12) -0.00139(9) 0.00473(9) 
-0.00234(9)
P1 P5+ 0.0108(2) 0.0103(2) 0.0104(2) 0.00002(19) -0.00077(17) -0.00152(18)
P2 P5+ 0.0104(2) 0.0115(2) 0.0100(2) -0.00009(19) 0.00035(17) -0.00128(18)
P3 P5+ 0.0105(2) 0.0119(2) 0.0106(2) 0.00111(19) 0.00066(17) -0.00079(19)
P4 P5+ 0.0095(2) 0.0112(2) 0.0096(2) -0.00171(18) 0.00031(16) -0.00040(18)
O1 O2- 0.0235(8) 0.0124(7) 0.0144(7) -0.0049(6) 0.0001(6) 0.0016(6)
O2 O2- 0.0384(12) 0.0148(8) 0.0309(10) 0.0044(8) 0.0009(9) 0.0044(7)
O3 O2- 0.0242(8) 0.0139(8) 0.0212(8) 0.0008(7) -0.0107(7) -0.0026(6)
O4 O2- 0.0286(9) 0.0106(7) 0.0158(7) -0.0014(7) -0.0009(6) -0.0007(6)
O5 O2- 0.0388(11) 0.0145(8) 0.0125(8) -0.0028(8) 0.0020(7) -0.0051(6)
O6 O2- 0.0207(8) 0.0190(8) 0.0233(8) 0.0026(7) 0.0071(7) 0.0074(7)
O7 O2- 0.0107(7) 0.0378(11) 0.0183(8) 0.0003(7) 0.0003(6) -0.0052(7)
O8 O2- 0.0114(6) 0.0257(9) 0.0133(7) -0.0048(6) 0.0019(5) -0.0016(6)
O9 O2- 0.0179(8) 0.0376(12) 0.0215(8) -0.0037(8) -0.0093(7) -0.0008(8)
O10 O2- 0.0114(8) 0.0380(11) 0.0343(10) -0.0055(7) 0.0052(7) -0.0031(9)
O11 O2- 0.0139(7) 0.0220(8) 0.0198(8) -0.0038(6) 0.0049(6) -0.0108(6)
O12 O2- 0.0146(7) 0.0257(9) 0.0145(7) 0.0057(7) 0.0048(6) 0.0026(7)
#End of data_59846-ICSD


