data_96244-ICSD
#?2014 by Fachinformationszentrum Karlsruhe, and the U.S. Secretary of 
#Commerce on behalf of the United States.  All rights reserved.
_database_code_ICSD                96244
_audit_creation_date               2004/04/01
_audit_update_record               2012/02/01
_chemical_name_systematic          'Calcium Dimanganese(III) Oxide'
_chemical_formula_structural       'Ca Mn2 O4'
_chemical_formula_sum              'Ca1 Mn2 O4'
_chemical_name_mineral             Marokite
_publ_section_title
;
New model for the magnetic structure of the marokite-type oxide Ca 
Mn2 O4
;
loop_
_citation_id
_citation_journal_abbrev
_citation_year
_citation_journal_volume
_citation_page_first
_citation_page_last
_citation_journal_id_ASTM
primary 'Journal of Alloys and Compounds' 2003 353 5 11 JALCEU
_publ_author_name
;
Zouari, S.;Ranno, L.;Cheikhrouhou, A.;Isnard, O.;Pernet, M.;Wolfers, 
P.;Strobel, P.
;
_cell_length_a                     6.2545(12)
_cell_length_b                     9.8995(20)
_cell_length_c                     9.627(2)
_cell_angle_alpha                  90
_cell_angle_beta                   90
_cell_angle_gamma                  90
_cell_volume                       596.07
_cell_formula_units_Z              8
_symmetry_space_group_name_H-M     'P b c a'
_symmetry_Int_Tables_number        61
_refine_ls_R_factor_all            .0343
loop_
_symmetry_equiv_pos_site_id
_symmetry_equiv_pos_as_xyz
  1	'x+.5, y, -z+.5'
  2	'x, -y+.5, z+.5'
  3	'-x+.5, y+.5, z'
  4	'-x, -y, -z'
  5	'-x+.5, -y, z+.5'
  6	'-x, y+.5, -z+.5'
  7	'x+.5, -y+.5, -z'
  8	'x, y, z'
loop_
_atom_type_symbol
_atom_type_oxidation_number
Ca2+	2
Mn3+	3
O2-	-2
loop_
_atom_site_label
_atom_site_type_symbol
_atom_site_symmetry_multiplicity
_atom_site_Wyckoff_symbol
_atom_site_fract_x
_atom_site_fract_y
_atom_site_fract_z
_atom_site_occupancy
_atom_site_attached_hydrogens
Ca1 Ca2+ 8 c 0.416(4) 0.160(3) 0.750 1. 0 
Mn1 Mn3+ 8 c 0.150(2) 0.115(2) 0.067(2) 1. 0 
Mn2 Mn3+ 8 c 0.650(2) 0.115(2) 0.067(2) 1. 0 
O1 O2- 8 c 0.283(4) 0.250 0 1. 0 
O2 O2- 8 c 0.149(4) 0.188(2) 0.250(7) 1. 0 
O3 O2- 8 c 0.381(3) 0.970(1) 0.110(1) 1. 0 
O4 O2- 8 c 0.881(3) 0.970(1) 0.110(1) 1. 0 

#End of data_96244-ICSD


