data_51183-ICSD
#?2014 by Fachinformationszentrum Karlsruhe, and the U.S. Secretary of 
#Commerce on behalf of the United States.  All rights reserved.
_database_code_ICSD                51183
_audit_creation_date               2002/04/01
_audit_update_record               2011/02/01
_chemical_name_systematic          'Calcium Dititanate(III)'
_chemical_formula_structural       'Ca (Ti2 O4)'
_chemical_formula_sum              'Ca1 O4 Ti2'
_publ_section_title
;
A new synthetic route to pseudo-brookite-type Ca Ti2 O4
;
loop_
_citation_id
_citation_journal_abbrev
_citation_year
_citation_journal_volume
_citation_page_first
_citation_page_last
_citation_journal_id_ASTM
primary 'Journal of Solid State Chemistry' 1998 141 338 342 JSSCBI
_publ_author_name
;
Rogge, M.P.;Caldwell, J.H.;Ingram, D.R.;Green, C.E.;Geselbracht, 
M.J.;Siegrist, T.
;
_cell_length_a                     9.718(4)
_cell_length_b                     9.960(4)
_cell_length_c                     3.140(2)
_cell_angle_alpha                  90.
_cell_angle_beta                   90.
_cell_angle_gamma                  90.
_cell_volume                       303.92
_cell_formula_units_Z              4
_symmetry_space_group_name_H-M     'B b m m'
_symmetry_Int_Tables_number        63
_refine_ls_R_factor_all            .016
loop_
_symmetry_equiv_pos_site_id
_symmetry_equiv_pos_as_xyz
  1	'x, -y+.5, -z'
  2	'-x, y+.5, -z'
  3	'x, y, -z'
  4	'-x, -y, -z'
  5	'-x, y+.5, z'
  6	'x, -y+.5, z'
  7	'-x, -y, z'
  8	'x, y, z'
  9	'x+.5, -y+.5, -z+.5'
 10	'-x+.5, y+.5, -z+.5'
 11	'x+.5, y, -z+.5'
 12	'-x+.5, -y, -z+.5'
 13	'-x+.5, y+.5, z+.5'
 14	'x+.5, -y+.5, z+.5'
 15	'-x+.5, -y, z+.5'
 16	'x+.5, y, z+.5'
loop_
_atom_type_symbol
_atom_type_oxidation_number
Ca2+	2
O2-	-2
Ti3+	3
loop_
_atom_site_label
_atom_site_type_symbol
_atom_site_symmetry_multiplicity
_atom_site_Wyckoff_symbol
_atom_site_fract_x
_atom_site_fract_y
_atom_site_fract_z
_atom_site_occupancy
_atom_site_attached_hydrogens
Ca1 Ca2+ 4 c 0.38164(7) 0.25 0 1. 0 
Ti1 Ti3+ 8 f 0.12705(5) 0.06454(4) 0 1. 0 
O1 O2- 4 b 0.5 0 0 1. 0 
O2 O2- 4 c 0.0593(3) 0.25 0 1. 0 
O3 O2- 8 f 0.23025(18) -.10611(18) 0 1. 0 

loop_
_atom_site_aniso_label
_atom_site_aniso_type_symbol
_atom_site_aniso_U_11
_atom_site_aniso_U_22
_atom_site_aniso_U_33
_atom_site_aniso_U_12
_atom_site_aniso_U_13
_atom_site_aniso_U_23
Ca1 Ca2+ 0.0065(3) 0.0066(3) 0.0042(3) 0 0 0
Ti1 Ti3+ 0.00437(16) 0.00445(17) 0.00363(18) 0.00082(17) 0 0
O1 O2- 0.0058(9) 0.0100(11) 0.0039(11) -.0024(9) 0 0
O2 O2- 0.0054(9) 0.0047(10) 0.0065(11) 0 0 0
O3 O2- 0.0051(6) 0.0043(7) 0.0045(8) -.0004(6) 0 0
#End of data_51183-ICSD


