data_20737-ICSD
#?2014 by Fachinformationszentrum Karlsruhe, and the U.S. Secretary of 
#Commerce on behalf of the United States.  All rights reserved.
_database_code_ICSD                20737
_audit_creation_date               1984/09/06
_audit_update_record               2012/02/01
_chemical_name_systematic
;
Potassium Cerium Tetrakis(catena-phosphate(V))
;
_chemical_formula_structural       'K Ce (P O3)4'
_chemical_formula_sum              'Ce1 K1 O12 P4'
_publ_section_title
;
The crystal structure of cerium and potassium mixed polyphosphate K 
Ce (P O3)4
;
loop_
_citation_id
_citation_journal_abbrev
_citation_year
_citation_journal_volume
_citation_page_first
_citation_page_last
_citation_journal_id_ASTM
primary 'Zhurnal Neorganicheskoi Khimii' 1983 28 1426 1430 ZNOKAQ
_publ_author_name
;
Linde, S.A.;Gorbunova, Yu.E.;Lavrov, A.V.
;
_cell_length_a                     7.236(1)
_cell_length_b                     13.168(4)
_cell_length_c                     9.990(3)
_cell_angle_alpha                  90.
_cell_angle_beta                   90.46(2)
_cell_angle_gamma                  90.
_cell_volume                       951.85
_cell_formula_units_Z              4
_symmetry_space_group_name_H-M     'P 1 21/n 1'
_symmetry_Int_Tables_number        14
_refine_ls_R_factor_all            .044
loop_
_symmetry_equiv_pos_site_id
_symmetry_equiv_pos_as_xyz
  1	'-x+.5, y+.5, -z+.5'
  2	'-x, -y, -z'
  3	'x+.5, -y+.5, z+.5'
  4	'x, y, z'
loop_
_atom_type_symbol
_atom_type_oxidation_number
Ce3+	3
K1+	1
O2-	-2
P5+	5
loop_
_atom_site_label
_atom_site_type_symbol
_atom_site_symmetry_multiplicity
_atom_site_Wyckoff_symbol
_atom_site_fract_x
_atom_site_fract_y
_atom_site_fract_z
_atom_site_occupancy
_atom_site_attached_hydrogens
Ce1 Ce3+ 4 e 0.48656(7) 0.21701(4) 0.02411(5) 1. 0 
P1 P5+ 4 e 0.2517(3) 0.4007(2) 0.2560(2) 1. 0 
P2 P5+ 4 e 0.1180(3) 0.1143(2) 0.2357(2) 1. 0 
P3 P5+ 4 e 0.8557(3) 0.3728(2) 0.1935(2) 1. 0 
P4 P5+ 4 e 0.7706(3) 0.5893(2) 0.1956(2) 1. 0 
K1 K1+ 4 e 0.9991(6) 0.7796(4) 0.0665(4) 1. 0 
O1 O2- 4 e 0.7878(9) 0.2910(5) 0.1040(6) 1. 0 
O2 O2- 4 e 0.9092(9) 0.0808(5) 0.2141(6) 1. 0 
O3 O2- 4 e 0.3676(9) 0.6899(5) 0.1549(7) 1. 0 
O4 O2- 4 e 0.1898(9) 0.1441(5) 0.1023(6) 1. 0 
O5 O2- 4 e 0.0731(9) 0.3781(5) 0.1676(6) 1. 0 
O6 O2- 4 e 0.4058(9) 0.3371(5) 0.2053(6) 1. 0 
O7 O2- 4 e 0.7845(9) 0.4776(5) 0.1334(6) 1. 0 
O8 O2- 4 e 0.2872(9) 0.5146(5) 0.2102(7) 1. 0 
O9 O2- 4 e 0.7405(9) 0.6605(5) 0.0813(7) 1. 0 
O10 O2- 4 e 0.2857(9) 0.8951(5) 0.0979(6) 1. 0 
O11 O2- 4 e 0.6826(9) 0.8677(5) 0.1616(6) 1. 0 
O12 O2- 4 e 0.5693(9) 0.1088(5) 0.2142(7) 1. 0 

loop_
_atom_site_aniso_label
_atom_site_aniso_type_symbol
_atom_site_aniso_B_11
_atom_site_aniso_B_22
_atom_site_aniso_B_33
_atom_site_aniso_B_12
_atom_site_aniso_B_13
_atom_site_aniso_B_23
Ce1 Ce3+ 0.5(2) 0.5(2) 0.5(2) 0.0(2) 0.0(1) 0.0(2)
P1 P5+ 0.68(8) 0.39(8) 0.74(8) -.02(7) 0.00(7) -.02(7)
P2 P5+ 0.69(8) 0.37(8) 0.67(8) -.02(7) 0.12(7) 0.01(7)
P3 P5+ 0.68(8) 0.34(8) 0.66(8) -.01(7) -.07(7) 0.05(7)
P4 P5+ 0.64(8) 0.47(8) 0.79(8) 0.01(7) 0.00(7) -.05(7)
K1 K1+ 5.3(2) 6.5(2) 6.0(2) -1.0 -.7(1) -.4(2)
O1 O2- 0.9(2) 0.7(2) 1.3(2) 0.0(2) -.2(2) 0.0(2)
O2 O2- 0.8(3) 1.0(3) 0.7(2) -.1(2) 0.0(2) -.3(2)
O3 O2- 1.1(3) 0.6(2) 1.4(3) 0.1(2) 0.1(2) 0.5(2)
O4 O2- 0.8(2) 0.1(3) 0.8(3) 0.0(2) 0.2(2) 0.1(2)
O5 O2- 0.9(2) 0.8(2) 0.7(2) -.1(2) -.2(2) -.1(2)
O6 O2- 1.1(3) 0.8(3) 1.1(3) 0.3(2) 0.0(2) -.3(2)
O7 O2- 1.3(3) 0.5(3) 0.9(3) 0.2(2) -.1(2) 0.1(2)
O8 O2- 1.5(3) 0.5(3) 1.2(3) -.2(2) -.2(2) 0.1(2)
O9 O2- 1.3(3) 0.8(3) 1.3(3) 0.3(2) 0.4(2) 0.5(2)
O10 O2- 1.3(3) 0.8(3) 0.7(2) -.1(2) -.1(2) -.1(2)
O11 O2- 1.1(3) 1.1(3) 1.0(3) -.1(2) 0.1(2) -.2(2)
O12 O2- 0.7(2) 1.2(3) 1.5(3) -.1(2) -.2(2) 0.6(2)
#End of data_20737-ICSD


