data_109770-ICSD
#?2014 by Fachinformationszentrum Karlsruhe, and the U.S. Secretary of 
#Commerce on behalf of the United States.  All rights reserved.
_database_code_ICSD                109770
_audit_creation_date               2008/02/01
_chemical_name_systematic          'Disilver Squarate'
_chemical_formula_structural       'Ag2 (C4 O4)'
_chemical_formula_sum              'C4 Ag2 O4'
_publ_section_title
;
Darstellung und Struktur von Ag2 C4 O4
;
loop_
_citation_id
_citation_journal_abbrev
_citation_year
_citation_journal_volume
_citation_page_first
_citation_page_last
_citation_journal_id_ASTM
primary 'Zeitschrift fuer Anorganische und Allgemeine Chemie (1950) (DE)'
 1987 546 161 168 ZAACAB
_publ_author_name                  'Robl, C.;Weiss, A.'
_cell_length_a                     19.824(2)
_cell_length_b                     7.0417(3)
_cell_length_c                     7.511(1)
_cell_angle_alpha                  90
_cell_angle_beta                   102.116(9)
_cell_angle_gamma                  90
_cell_volume                       1025.14
_cell_formula_units_Z              8
_symmetry_space_group_name_H-M     'C 1 2/c 1'
_symmetry_Int_Tables_number        15
_refine_ls_R_factor_all            .0581
loop_
_symmetry_equiv_pos_site_id
_symmetry_equiv_pos_as_xyz
  1	'x, -y, z+.5'
  2	'-x, -y, -z'
  3	'-x, y, -z+.5'
  4	'x, y, z'
  5	'x+.5, -y+.5, z+.5'
  6	'-x+.5, -y+.5, -z'
  7	'-x+.5, y+.5, -z+.5'
  8	'x+.5, y+.5, z'
loop_
_atom_type_symbol
_atom_type_oxidation_number
Ag1+	1
C1.5+	1.5
O2-	-2
loop_
_atom_site_label
_atom_site_type_symbol
_atom_site_symmetry_multiplicity
_atom_site_Wyckoff_symbol
_atom_site_fract_x
_atom_site_fract_y
_atom_site_fract_z
_atom_site_occupancy
_atom_site_attached_hydrogens
_atom_site_B_iso_or_equiv
Ag1 Ag1+ 8 f 0.08432(5) 0.0048(1) 0.1920(1) 1. 0 2.742 
Ag2 Ag1+ 8 f 0.65822(5) 0.1878(1) 0.9427(1) 1. 0 3.061 
O1 O2- 8 f 0.8560(4) 0.1085(10) 0.5413(7) 1. 0 2.577 
O2 O2- 8 f 0.7447(4) 0.2575(11) 0.1930(8) 1. 0 2.812 
O3 O2- 8 f 0.1078(5) 0.5061(10) 0.6848(10) 1. 0 2.896 
O4 O2- 8 f 0.9834(4) 0.8153(9) 0.5479(9) 1. 0 2.924 
C1 C1.5+ 8 f 0.7982(6) 0.1847(12) 0.5189(10) 1. 0 1.881 
C2 C1.5+ 8 f 0.7477(5) 0.2530(12) 0.3606(10) 1. 0 1.727 
C3 C1.5+ 8 f 0.0487(6) 0.5071(12) 0.5853(11) 1. 0 1.689 
C4 C1.5+ 8 f 0.9931(6) 0.6453(12) 0.5217(10) 1. 0 1.950 

loop_
_atom_site_aniso_label
_atom_site_aniso_type_symbol
_atom_site_aniso_U_11
_atom_site_aniso_U_22
_atom_site_aniso_U_33
_atom_site_aniso_U_12
_atom_site_aniso_U_13
_atom_site_aniso_U_23
Ag1 Ag1+ 0.0316(9) 0.0494(4) 0.0194(4) 0.0017(3) -.0033(3) 0.0059(2)
Ag2 Ag1+ 0.0225(9) 0.0720(6) 0.0210(4) -.0160(4) 0.0027(3) -.0034(3)
O1 O2- 0.0222(56) 0.0576(43) 0.0174(26) 0.0172(36) 0.0025(25) 0.0032(24)
O2 O2- 0.0267(57) 0.0700(47) 0.0105(26) -.0031(36) 0.0047(26) -.0006(24)
O3 O2- 0.0275(63) 0.0446(39) 0.0336(36) 0.0023(31) -.0035(33) -.0092(25)
O4 O2- 0.0342(59) 0.0325(33) 0.0358(34) 0.0058(30) -.0022(31) -.0043(24)
C1 C1.5+ 0.0245(84) 0.0323(39) 0.0129(32) 0.0056(39) -.0001(32) 0.0021(24)
C2 C1.5+ 0.0113(73) 0.0372(41) 0.0156(34) -.0015(37) -.0006(30) 0.0023(26)
C3 C1.5+ 0.0053(75) 0.0378(42) 0.0202(38) 0.0042(34) 0.0007(34) -.0021(26)
C4 C1.5+ 0.0242(80) 0.0313(38) 0.0190(34) 0.0008(35) 0.0005(35) -.0008(25)
#End of data_109770-ICSD


