data_159243-ICSD
#?2014 by Fachinformationszentrum Karlsruhe, and the U.S. Secretary of 
#Commerce on behalf of the United States.  All rights reserved.
_database_code_ICSD                159243
_audit_creation_date               2008/08/01
_chemical_name_systematic          'Sodium Tetrahydridoborate - Gamma'
_chemical_formula_structural       'Na (B H4)'
_chemical_formula_sum              'H4 B1 Na1'
_publ_section_title
;
Pressure-driven phase transitions in Na B H4: theory and experiments
;
loop_
_citation_id
_citation_journal_abbrev
_citation_year
_citation_journal_volume
_citation_page_first
_citation_page_last
_citation_journal_id_ASTM
primary 'Journal of Physical Chemistry B' 2007 111 13873 13876 JPCBFK
_publ_author_name
;
Kim Eun-Ja;Kumar, R.;Weck, P.F.;Cornelius, A.L.;Nicol, M.;Vogel, 
S.C.;Zhang Jian Zhong;Hartl, M.;Stowe, A.C.;Daemen, L.;Zhao Yu Sheng
;
_cell_length_a                     7.40
_cell_length_b                     4.17
_cell_length_c                     5.63
_cell_angle_alpha                  90.
_cell_angle_beta                   90.
_cell_angle_gamma                  90.
_cell_volume                       173.73
_cell_formula_units_Z              4
_symmetry_space_group_name_H-M     'P n m a'
_symmetry_Int_Tables_number        62
loop_
_symmetry_equiv_pos_site_id
_symmetry_equiv_pos_as_xyz
  1	'x+.5, y, -z+.5'
  2	'x, -y+.5, z'
  3	'-x+.5, y+.5, z+.5'
  4	'-x, -y, -z'
  5	'-x+.5, -y, z+.5'
  6	'-x, y+.5, -z'
  7	'x+.5, -y+.5, -z+.5'
  8	'x, y, z'
loop_
_atom_type_symbol
_atom_type_oxidation_number
B3+	3
H1-	-1
Na1+	1
loop_
_atom_site_label
_atom_site_type_symbol
_atom_site_symmetry_multiplicity
_atom_site_Wyckoff_symbol
_atom_site_fract_x
_atom_site_fract_y
_atom_site_fract_z
_atom_site_occupancy
_atom_site_attached_hydrogens
Na1 Na1+ 4 c 0.0150 0.250 0.2677 1. 0 
B1 B3+ 4 c 0.2863 0.250 0.5924 1. 0 
H1 H1- 4 c 0.3618 0.250 0.7814 1. 0 
H2 H1- 4 c 0.3757 0.750 0.1297 1. 0 
H3 H1- 8 d 0.8305 0.0123 0.0037 1. 0 

#End of data_159243-ICSD


