data_639900-ICSD
#?2014 by Fachinformationszentrum Karlsruhe, and the U.S. Secretary of 
#Commerce on behalf of the United States.  All rights reserved.
_database_code_ICSD                639900
_audit_creation_date               2012/08/01
_chemical_name_systematic          'Lithium Indium Selenide (1/1/2)'
_chemical_formula_structural       'Li In Se2'
_chemical_formula_sum              'In1 Li1 Se2'
_publ_section_title
;
Pressure-induced phase transformation in Li In Se2
;
loop_
_citation_id
_citation_journal_abbrev
_citation_year
_citation_journal_volume
_citation_journal_issue
_citation_page_first
_citation_page_last
_citation_journal_id_ASTM
primary 'Crystal Research and Technology' 1987 22 2 K27 K29 CRTEDF
_publ_author_name                  'Greuling, B.'
_cell_length_a                     7.207(6)
_cell_length_b                     8.426(1)
_cell_length_c                     6.808(6)
_cell_angle_alpha                  90.0
_cell_angle_beta                   90.0
_cell_angle_gamma                  90.0
_cell_volume                       413.42
_cell_formula_units_Z              4
_symmetry_space_group_name_H-M     'P n a 21'
_symmetry_Int_Tables_number        33
loop_
_symmetry_equiv_pos_site_id
_symmetry_equiv_pos_as_xyz
  1	'x+.5, -y+.5, z'
  2	'-x+.5, y+.5, z+.5'
  3	'-x, -y, z+.5'
  4	'x, y, z'
loop_
_atom_type_symbol
_atom_type_oxidation_number
In3+	3
Li1+	1
Se2-	-2
loop_
_atom_site_label
_atom_site_type_symbol
_atom_site_symmetry_multiplicity
_atom_site_Wyckoff_symbol
_atom_site_fract_x
_atom_site_fract_y
_atom_site_fract_z
_atom_site_occupancy
_atom_site_attached_hydrogens
Li1 Li1+ 4 a 0.409 0.128 0.113 1. 0 
In1 In3+ 4 a 0.067 0.129 0.618 1. 0 
Se1 Se2- 4 a 0.078 0.108 0.965 1. 0 
Se2 Se2- 4 a 0.096 0.620 0.019 1. 0 

#End of data_639900-ICSD


