data_26152-ICSD
#?2014 by Fachinformationszentrum Karlsruhe, and the U.S. Secretary of 
#Commerce on behalf of the United States.  All rights reserved.
_database_code_ICSD                26152
_audit_creation_date               1986/10/09
_audit_update_record               2007/04/01
_chemical_name_systematic          'Zinc Chloride - Gamma'
_chemical_formula_structural       'Zn Cl2'
_chemical_formula_sum              'Cl2 Zn1'
_publ_section_title
;
Kristallstrukturuntersuchungen an Zn Cl2
;
loop_
_citation_id
_citation_journal_abbrev
_citation_year
_citation_journal_volume
_citation_page_first
_citation_page_last
_citation_journal_id_ASTM
primary
;
Zeitschrift fuer Kristallographie, Kristallgeometrie, Kristallphysik, 
Kristallchemie (-144,1977)
;
 1961 115 373 402 ZEKGAX
2 Naturwissenschaften 1959 46 106 107 NATWAY
3 'Phase Transition' 1992 38 127 220 PHTRDP
4 'Helvetica Chimica Acta' 1960 43 72 77 HCACAV
_publ_author_name                  'Brehler, B.'
_cell_length_a                     3.70(2)
_cell_length_b                     3.70(2)
_cell_length_c                     10.67(6)
_cell_angle_alpha                  90.
_cell_angle_beta                   90.
_cell_angle_gamma                  90.
_cell_volume                       146.07
_cell_formula_units_Z              2
_symmetry_space_group_name_H-M     'P 42/n m c S'
_symmetry_Int_Tables_number        137
loop_
_symmetry_equiv_pos_site_id
_symmetry_equiv_pos_as_xyz
  1	'-y+.5, -x+.5, z+.5'
  2	'y+.5, x+.5, z+.5'
  3	'-y, -x, -z'
  4	'y, x, -z'
  5	'y+.5, -x+.5, z+.5'
  6	'-y+.5, x+.5, z+.5'
  7	'y, -x, -z'
  8	'-y, x, -z'
  9	'x+.5, -y+.5, -z+.5'
 10	'-x+.5, y+.5, -z+.5'
 11	'x, -y, z'
 12	'-x, y, z'
 13	'-x+.5, -y+.5, -z+.5'
 14	'x+.5, y+.5, -z+.5'
 15	'-x, -y, z'
 16	'x, y, z'
loop_
_atom_type_symbol
_atom_type_oxidation_number
Cl1-	-1
Zn2+	2
loop_
_atom_site_label
_atom_site_type_symbol
_atom_site_symmetry_multiplicity
_atom_site_Wyckoff_symbol
_atom_site_fract_x
_atom_site_fract_y
_atom_site_fract_z
_atom_site_occupancy
_atom_site_attached_hydrogens
Zn1 Zn2+ 2 a 0 0 0 1. 0 
Cl1 Cl1- 4 d 0 0.5 0.125 1. 0 

#End of data_26152-ICSD


