data_60111-ICSD
#?2014 by Fachinformationszentrum Karlsruhe, and the U.S. Secretary of 
#Commerce on behalf of the United States.  All rights reserved.
_database_code_ICSD                60111
_audit_creation_date               1986/04/14
_audit_update_record               2012/08/01
_chemical_name_systematic
;
Trisodium Cadmium Triphosphate Decahydrate
;
_chemical_formula_structural       'Na3 Cd P3 O10 (H2 O)12'
_chemical_formula_sum              'H24 Cd1 Na3 O22 P3'
_publ_section_title
;
The crystal structure of trisodium cadmium triphosphate Na3 Cd P3 O10 
(H2 O)12
;
loop_
_citation_id
_citation_journal_abbrev
_citation_year
_citation_journal_volume
_citation_page_first
_citation_page_last
_citation_journal_id_ASTM
primary 'Acta Chemica Scandinavica, Series A: (28,1974-)'
 1984 38 415 417 ACAPCT
_publ_author_name                  'Lutsko, V.;Johansson, G.'
_cell_length_a                     14.835(12)
_cell_length_b                     9.397(10)
_cell_length_c                     15.244(9)
_cell_angle_alpha                  90.
_cell_angle_beta                   90.20(6)
_cell_angle_gamma                  90.
_cell_volume                       2125.07
_cell_formula_units_Z              4
_symmetry_space_group_name_H-M     'P 1 21/n 1'
_symmetry_Int_Tables_number        14
_refine_ls_R_factor_all            .087
loop_
_symmetry_equiv_pos_site_id
_symmetry_equiv_pos_as_xyz
  1	'-x+.5, y+.5, -z+.5'
  2	'-x, -y, -z'
  3	'x+.5, -y+.5, z+.5'
  4	'x, y, z'
loop_
_atom_type_symbol
_atom_type_oxidation_number
Cd2+	2
H1+	1
Na1+	1
O2-	-2
P5+	5
loop_
_atom_site_label
_atom_site_type_symbol
_atom_site_symmetry_multiplicity
_atom_site_Wyckoff_symbol
_atom_site_fract_x
_atom_site_fract_y
_atom_site_fract_z
_atom_site_occupancy
_atom_site_attached_hydrogens
Cd1 Cd2+ 4 e 0.24777(3) 0.04015(4) 0.31438(3) 1. 0 
P1 P5+ 4 e 0.75859(10) 0.34541(16) 0.01724(9) 1. 0 
P2 P5+ 4 e 0.40667(10) 0.26906(16) 0.40513(10) 1. 0 
P3 P5+ 4 e 0.10655(10) 0.27635(16) 0.41165(10) 1. 0 
Na1 Na1+ 4 e 0.6447(2) 0.4638(3) 0.2096(2) 1. 0 
Na2 Na1+ 4 e 0.8863(2) 0.3052(4) 0.1995(2) 1. 0 
Na3 Na1+ 4 e 0.2536(2) 0.2616(3) 0.0616(2) 1. 0 
O1 O2- 4 e 0.2484(3) 0.0176(5) 0.4669(3) 1. 0 
O2 O2- 4 e 0.2502(4) 0.0471(5) 0.1653(3) 1. 0 
O3 O2- 4 e 0.1539(3) 0.3505(5) 0.1759(3) 1. 0 
O4 O2- 4 e 0.3577(3) 0.2014(5) 0.3286(3) 1. 0 
O5 O2- 4 e 0.3565(3) 0.3534(5) 0.1764(3) 1. 0 
O6 O2- 4 e 0.1361(3) 0.1991(5) 0.3282(3) 1. 0 
O7 O2- 4 e 0.3715(4) 0.1500(6) 0.9822(3) 1. 0 
O8 O2- 4 e 0.3529(3) 0.2271(5) 0.4953(3) 1. 0 
O9 O2- 4 e 0.1904(3) 0.2719(5) 0.4800(3) 1. 0 
O10 O2- 4 e 0.4994(3) 0.2077(5) 0.4222(3) 1. 0 
O11 O2- 4 e 0.4054(3) 0.4296(5) 0.3998(3) 1. 0 
O12 O2- 4 e 0.0280(3) 0.2050(5) 0.4542(3) 1. 0 
O13 O2- 4 e 0.0959(3) 0.4347(4) 0.3950(3) 1. 0 
O14 O2- 4 e 0.6188(4) 0.2366(7) 0.2779(3) 1. 0 
O15 O2- 4 e 0.7747(4) 0.0285(6) 0.1570(4) 1. 0 
O16 O2- 4 e 0.8041(4) 0.2036(6) 0.3229(3) 1. 0 
O17 O2- 4 e 0.5198(3) 0.4405(5) 0.1099(3) 1. 0 
O18 O2- 4 e 0.7535(3) 0.3483(5) 0.1152(3) 1. 0 
O19 O2- 4 e -.0069(3) 0.4171(5) 0.1045(3) 1. 0 
O20 O2- 4 e 0.9847(3) 0.1037(6) 0.2132(4) 1. 0 
O21 O2- 4 e 0.9325(6) 0.4828(7) 0.3096(6) 1. 0 
O22 O2- 4 e 0.1435(3) 0.1308(5) 0.9809(3) 1. 0 
H1 H1+ 4 e 0.288(6) 0.521(11) 0.348(8) 1. 0 
H2 H1+ 4 e 0.251(7) 0.544(11) 0.378(7) 1. 0 
H3 H1+ 4 e 0.140(6) 0.316(10) 0.215(6) 1. 0 
H4 H1+ 4 e 0.088(6) 0.413(9) 0.160(6) 1. 0 
H5 H1+ 4 e 0.412(6) 0.368(10) 0.163(6) 1. 0 
H6 H1+ 4 e 0.376(6) 0.308(10) 0.216(6) 1. 0 
H7 H1+ 4 e 0.395(6) 0.075(11) 0.011(6) 1. 0 
H8 H1+ 4 e 0.388(6) 0.214(10) 0.967(6) 1. 0 
H9 H1+ 4 e 0.100(6) 0.346(10) 0.747(6) 1. 0 
H10 H1+ 4 e 0.107(7) 0.269(11) 0.815(6) 1. 0 
H11 H1+ 4 e 0.246(6) 0.475(9) 0.581(6) 1. 0 
H12 H1+ 4 e 0.257(6) 0.403(11) 0.637(6) 1. 0 
H13 H1+ 4 e 0.230(6) 0.307(10) 0.823(5) 1. 0 
H14 H1+ 4 e 0.305(6) 0.234(10) 0.854(6) 1. 0 
H15 H1+ 4 e 0.430(6) 0.524(8) 0.830(6) 1. 0 
H16 H1+ 4 e 0.031(6) 0.119(10) 0.573(6) 1. 0 
H17 H1+ 4 e 0.488(5) 0.099(9) 0.533(6) 1. 0 
H18 H1+ 4 e 0.490(6) -.014(11) 0.382(7) 1. 0 
H19 H1+ 4 e -.005(6) 0.052(9) 0.166(7) 1. 0 
H20 H1+ 4 e 0.022(6) 0.11(1) 0.272(6) 1. 0 
H21 H1+ 4 e 0.010(6) 0.431(9) 0.326(6) 1. 0 
H22 H1+ 4 e 0.410(12) -.025(19) 0.802(14) 1. 0 
H23 H1+ 4 e 0.092(6) 0.183(9) 0.963(6) 1. 0 
H24 H1+ 4 e 0.140(6) 0.067(9) 0.028(6) 1. 0 

#End of data_60111-ICSD


