data_98573-ICSD
#?2014 by Fachinformationszentrum Karlsruhe, and the U.S. Secretary of 
#Commerce on behalf of the United States.  All rights reserved.
_database_code_ICSD                98573
_audit_creation_date               2005/04/01
_chemical_name_systematic          'Lead Alumoborate - Beta'
_chemical_formula_structural       'Pb (Al B O4)'
_chemical_formula_sum              'Al1 B1 O4 Pb1'
_publ_section_title
;
Crystal structure and polymorphism of Pb Al B O4
;
loop_
_citation_id
_citation_journal_abbrev
_citation_year
_citation_journal_volume
_citation_page_first
_citation_page_last
_citation_journal_id_ASTM
primary 'Solid State Sciences' 2003 5 565 571 SSSCFJ
_publ_author_name
;
Park Hyun-Soo;Barbier, J.;Hammond, R.P.
;
_cell_length_a                     7.0423(3)
_cell_length_b                     9.8989(3)
_cell_length_c                     9.4281(3)
_cell_angle_alpha                  90
_cell_angle_beta                   90
_cell_angle_gamma                  90
_cell_volume                       657.24
_cell_formula_units_Z              8
_symmetry_space_group_name_H-M     'P b c n'
_symmetry_Int_Tables_number        60
_refine_ls_R_factor_all            .0356
loop_
_symmetry_equiv_pos_site_id
_symmetry_equiv_pos_as_xyz
  1	'x, -y, z+.5'
  2	'-x+.5, y+.5, z'
  3	'x+.5, y+.5, -z+.5'
  4	'-x, -y, -z'
  5	'-x, y, -z+.5'
  6	'x+.5, -y+.5, -z'
  7	'-x+.5, -y+.5, z+.5'
  8	'x, y, z'
loop_
_atom_type_symbol
_atom_type_oxidation_number
Al3+	3
B3+	3
O2-	-2
Pb2+	2
loop_
_atom_site_label
_atom_site_type_symbol
_atom_site_symmetry_multiplicity
_atom_site_Wyckoff_symbol
_atom_site_fract_x
_atom_site_fract_y
_atom_site_fract_z
_atom_site_occupancy
_atom_site_attached_hydrogens
_atom_site_B_iso_or_equiv
Pb1 Pb2+ 8 d 0.9300(3) 0.6705(3) 0.0485(2) 1. 0 0.51(4) 
Al1 Al3+ 4 c 0.5 0.332(1) 0.75 1. 0 0.9(2) 
Al2 Al3+ 4 a 0.5 0.5 0.5 1. 0 0.4(1) 
B1 B3+ 8 d 0.2783(4) 0.4068(4) 0.2472(3) 1. 0 0.56(6) 
O1 O2- 8 d 0.6003(5) 0.3428(4) 0.5708(4) 1. 0 0.29(6) 
O2 O2- 8 d 0.3316(5) 0.3906(4) 0.3873(4) 1. 0 0.56(7) 
O3 O2- 8 d 0.3331(6) 0.5176(4) 0.1700(5) 1. 0 0.44(8) 
O4 O2- 8 d 0.1722(6) 0.3049(4) 0.1845(4) 1. 0 0.64(7) 

#End of data_98573-ICSD


