data_250163-ICSD
#?2014 by Fachinformationszentrum Karlsruhe, and the U.S. Secretary of 
#Commerce on behalf of the United States.  All rights reserved.
_database_code_ICSD                250163
_audit_creation_date               2005/04/01
_chemical_name_systematic
;
Praseodymium Dipotassium Zirconium Tris(phosphate(V))
;
_chemical_formula_structural       'Pr K2 Zr (P O4)3'
_chemical_formula_sum              'K2 O12 P3 Pr1 Zr1'
_chemical_name_mineral             Unnamed_Langbeinite
_publ_section_title
;
Synthesis and investigation of new phosphates K2 Ln Zr (P O4)3 (Ln= 
Ce- Yb, Y) with langbeinite structure
;
loop_
_citation_id
_citation_journal_abbrev
_citation_year
_citation_journal_volume
_citation_page_first
_citation_page_last
_citation_journal_id_ASTM
primary Kristallografiya 2004 49 692 696 KRISAJ
2 'Soviet Physics, Crystallography (= Kristallografiya)'
 2004 49 614 618 SPHCA6
_publ_author_name
;
Trubach, I.G.;Beskrovnyi, A.I.;Orlova, A.I.;Orlova, 
V.A.;Kurazhkovskaya, V.S.
;
_cell_length_a                     10.3528(10)
_cell_length_b                     10.3528(10)
_cell_length_c                     10.3528(10)
_cell_angle_alpha                  90
_cell_angle_beta                   90
_cell_angle_gamma                  90
_cell_volume                       1109.62
_cell_formula_units_Z              4
_symmetry_space_group_name_H-M     'P 21 3'
_symmetry_Int_Tables_number        198
_refine_ls_R_factor_all            .0245
loop_
_symmetry_equiv_pos_site_id
_symmetry_equiv_pos_as_xyz
  1	'-z+.5, -x, y+.5'
  2	'-y+.5, -z, x+.5'
  3	'-x+.5, -y, z+.5'
  4	'-z, x+.5, -y+.5'
  5	'-y, z+.5, -x+.5'
  6	'-x, y+.5, -z+.5'
  7	'z+.5, -x+.5, -y'
  8	'y+.5, -z+.5, -x'
  9	'x+.5, -y+.5, -z'
 10	'z, x, y'
 11	'y, z, x'
 12	'x, y, z'
loop_
_atom_type_symbol
_atom_type_oxidation_number
K1+	1
O2-	-2
P5+	5
Pr3+	3
Zr4+	4
loop_
_atom_site_label
_atom_site_type_symbol
_atom_site_symmetry_multiplicity
_atom_site_Wyckoff_symbol
_atom_site_fract_x
_atom_site_fract_y
_atom_site_fract_z
_atom_site_occupancy
_atom_site_attached_hydrogens
_atom_site_B_iso_or_equiv
Pr1 Pr3+ 4 a 0.5705(12) 0.5705(12) 0.5705(12) 1. 0 2.6 
K1 K1+ 4 a 0.0416(16) 0.0416(16) 0.0416(16) 1. 0 3.5 
K2 K1+ 4 a 0.2907(14) 0.2907(14) 0.2907(14) 1. 0 3.5 
Zr1 Zr4+ 4 a 0.8547(7) 0.8547(7) 0.8547(7) 1. 0 2.5 
P1 P5+ 12 b 0.6243(9) 0.4658(6) 0.2582(10) 1. 0 0.2 
O1 O2- 12 b 0.6682(10) 0.5180(7) 0.3801(11) 1. 0 2.7 
O2 O2- 12 b 0.7352(10) 0.4658(7) 0.1629(9) 1. 0 2.8 
O3 O2- 12 b 0.5883(9) 0.3281(6) 0.2615(7) 1. 0 1.7 
O4 O2- 12 b 0.5217(7) 0.5566(8) 0.1975(9) 1. 0 2.0 

#End of data_250163-ICSD


