data_417103-ICSD
#?2014 by Fachinformationszentrum Karlsruhe, and the U.S. Secretary of 
#Commerce on behalf of the United States.  All rights reserved.
_database_code_ICSD                417103
_audit_creation_date               2008/08/01
_chemical_name_systematic          'Europium Potassium Palladate(II)'
_chemical_formula_structural       'Eu K Pd O3'
_chemical_formula_sum              'Eu1 K1 O3 Pd1'
_publ_section_title
;
Crystal growth and structural characterization of the new ordered 
palladates, Ln K Pd O3 (Ln = La, Pr, Nd, Sm - Gd) and the 
isostructural, partially Cu-substituted palladate, Pr K (Cu0.14 
Pd0.86) O3
;
loop_
_citation_id
_citation_journal_abbrev
_citation_year
_citation_journal_volume
_citation_journal_issue
_citation_page_first
_citation_page_last
_citation_journal_id_ASTM
primary 'Inorganic Chemistry' 2007 46 8 3116 3122 INOCAJ
_publ_author_name
;
Mugavero, S.J.;Smith, M.D.;zur Loye, H.C.
;
_cell_length_a                     13.0582(5)
_cell_length_b                     3.9198(2)
_cell_length_c                     7.3298(3)
_cell_angle_alpha                  90.00
_cell_angle_beta                   104.5620(10)
_cell_angle_gamma                  90.00
_cell_volume                       363.13
_cell_formula_units_Z              4
_symmetry_space_group_name_H-M     'C 1 2/m 1'
_symmetry_Int_Tables_number        12
_refine_ls_R_factor_all            .0248
loop_
_symmetry_equiv_pos_site_id
_symmetry_equiv_pos_as_xyz
  1	'-x, y, -z'
  2	'-x, -y, -z'
  3	'x, -y, z'
  4	'x, y, z'
  5	'-x+.5, y+.5, -z'
  6	'-x+.5, -y+.5, -z'
  7	'x+.5, -y+.5, z'
  8	'x+.5, y+.5, z'
loop_
_atom_type_symbol
_atom_type_oxidation_number
Eu3+	3
K1+	1
O2-	-2
Pd2+	2
loop_
_atom_site_label
_atom_site_type_symbol
_atom_site_symmetry_multiplicity
_atom_site_Wyckoff_symbol
_atom_site_fract_x
_atom_site_fract_y
_atom_site_fract_z
_atom_site_occupancy
_atom_site_attached_hydrogens
_atom_site_U_iso_or_equiv
Eu1 Eu3+ 4 i 0.650419(19) 0.0000 0.07738(3) 1 0 0.00924(12) 
Pd1 Pd2+ 4 i 0.00700(3) 0.0000 0.77922(6) 1 0 0.00811(12) 
K1 K1+ 4 i 0.35653(10) 0.0000 0.43613(17) 1 0 0.0153(2) 
O1 O2- 4 i 0.8305(3) 0.0000 0.1310(6) 1 0 0.0119(7) 
O2 O2- 4 i 0.4938(3) 0.0000 0.1946(6) 1 0 0.0135(7) 
O3 O2- 4 i 0.1523(3) 0.0000 0.2740(6) 1 0 0.0115(7) 

loop_
_atom_site_aniso_label
_atom_site_aniso_type_symbol
_atom_site_aniso_U_11
_atom_site_aniso_U_22
_atom_site_aniso_U_33
_atom_site_aniso_U_12
_atom_site_aniso_U_13
_atom_site_aniso_U_23
Eu1 Eu3+ 0.00550(15) 0.00903(16) 0.01349(17) 0.000 0.00295(10) 0.000
Pd1 Pd2+ 0.00573(19) 0.00668(19) 0.0120(2) 0.000 0.00230(14) 0.000
K1 K1+ 0.0116(5) 0.0188(6) 0.0156(5) 0.000 0.0034(4) 0.000
O1 O2- 0.0064(15) 0.0145(18) 0.0148(17) 0.000 0.0026(13) 0.000
O2 O2- 0.0153(17) 0.0040(15) 0.023(2) 0.000 0.0084(15) 0.000
O3 O2- 0.0057(14) 0.0149(17) 0.0141(17) 0.000 0.0026(14) 0.000
#End of data_417103-ICSD


