data_9005-ICSD
#?2014 by Fachinformationszentrum Karlsruhe, and the U.S. Secretary of 
#Commerce on behalf of the United States.  All rights reserved.
_database_code_ICSD                9005
_audit_creation_date               1980/01/01
_audit_update_record               2012/08/01
_chemical_name_systematic          'Dicesium Magnesium Chloride'
_chemical_formula_structural       'Cs2 Mg Cl4'
_chemical_formula_sum              'Cl4 Cs2 Mg1'
_publ_section_title
;
Crystal Structures of K2 Mg Cl4 and Cs2 Mg Cl4
;
loop_
_citation_id
_citation_journal_abbrev
_citation_year
_citation_journal_volume
_citation_page_first
_citation_page_last
_citation_journal_id_ASTM
primary 'Canadian Journal of Chemistry' 1975 53 114 118 CJCHAG
_publ_author_name
;
Gibbons, C.S.;Reinsborough, V.C.;Whitla, W.A.
;
_cell_length_a                     9.777(4)
_cell_length_b                     7.514(3)
_cell_length_c                     13.234(6)
_cell_angle_alpha                  90.
_cell_angle_beta                   90.
_cell_angle_gamma                  90.
_cell_volume                       972.23
_cell_formula_units_Z              4
_symmetry_space_group_name_H-M     'P n m a'
_symmetry_Int_Tables_number        62
_refine_ls_R_factor_all            .074
loop_
_symmetry_equiv_pos_site_id
_symmetry_equiv_pos_as_xyz
  1	'x+.5, y, -z+.5'
  2	'x, -y+.5, z'
  3	'-x+.5, y+.5, z+.5'
  4	'-x, -y, -z'
  5	'-x+.5, -y, z+.5'
  6	'-x, y+.5, -z'
  7	'x+.5, -y+.5, -z+.5'
  8	'x, y, z'
loop_
_atom_type_symbol
_atom_type_oxidation_number
Cl1-	-1
Cs1+	1
Mg2+	2
loop_
_atom_site_label
_atom_site_type_symbol
_atom_site_symmetry_multiplicity
_atom_site_Wyckoff_symbol
_atom_site_fract_x
_atom_site_fract_y
_atom_site_fract_z
_atom_site_occupancy
_atom_site_attached_hydrogens
Cs1 Cs1+ 4 c 0.6385(1) 0.25 0.4049(1) 1. 0 
Cs2 Cs1+ 4 c -.0181(1) 0.25 -.3178(1) 1. 0 
Mg1 Mg2+ 4 c 0.2287(5) 0.25 0.4230(3) 1. 0 
Cl1 Cl1- 4 c -.0055(4) 0.25 0.4108(4) 1. 0 
Cl2 Cl1- 4 c 0.3142(4) 0.25 0.5856(3) 1. 0 
Cl3 Cl1- 8 d 0.3194(3) 0.0025(5) 0.3451(3) 1. 0 

loop_
_atom_site_aniso_label
_atom_site_aniso_type_symbol
_atom_site_aniso_U_11
_atom_site_aniso_U_22
_atom_site_aniso_U_33
_atom_site_aniso_U_12
_atom_site_aniso_U_13
_atom_site_aniso_U_23
Cs1 Cs1+ 0.0277(5) 0.0506(7) 0.0856(10) 0 -.0067(5) 0
Cs2 Cs1+ 0.0230(4) 0.0466(6) 0.0285(4) 0 0.0012(3) 0
Mg1 Mg2+ 0.0189(20) 0.0238(22) 0.0212(20) 0 -.0014(16) 0
Cl1 Cl1- 0.0202(17) 0.0814(37) 0.0552(26) 0 -.0094(16) 0
Cl2 Cl1- 0.0363(21) 0.0827(36) 0.0248(17) 0 -.0103(15) 0
Cl3 Cl1- 0.0439(17) 0.0429(18) 0.0914(27) -.0031(10) 0.0213(17) -.0328(19)
#End of data_9005-ICSD


