data_60860-ICSD
#?2014 by Fachinformationszentrum Karlsruhe, and the U.S. Secretary of 
#Commerce on behalf of the United States.  All rights reserved.
_database_code_ICSD                60860
_audit_creation_date               1988/02/22
_audit_update_record               1989/07/13
_chemical_name_systematic          'Sodium Tricopper(I) Telluride'
_chemical_formula_structural       'Na Cu3 Te2'
_chemical_formula_sum              'Cu3 Na1 Te2'
_publ_section_title
;
Darstellung und Kristallstruktur von NaCu3Te2
;
loop_
_citation_id
_citation_journal_abbrev
_citation_year
_citation_journal_volume
_citation_page_first
_citation_page_last
_citation_journal_id_ASTM
primary 'Zeitschrift fuer Naturforschung, B: Chemical Sciences'
 1987 42 130 134 ZNBSEN
_publ_author_name                  'Klepp, K.O.'
_cell_length_a                     4.276(3)
_cell_length_b                     4.276(3)
_cell_length_c                     23.78(1)
_cell_angle_alpha                  90.
_cell_angle_beta                   90.
_cell_angle_gamma                  120.
_cell_volume                       376.55
_cell_formula_units_Z              3
_symmetry_space_group_name_H-M     'R 3 m H'
_symmetry_Int_Tables_number        160
_refine_ls_R_factor_all            .05
loop_
_symmetry_equiv_pos_site_id
_symmetry_equiv_pos_as_xyz
  1	'-x+y, y, z'
  2	'x, x-y, z'
  3	'-y, -x, z'
  4	'-x+y, -x, z'
  5	'-y, x-y, z'
  6	'x, y, z'
  7	'-x+y+.6666, y+.3333, z+.3333'
  8	'-x+y+.3333, y+.6666, z+.6666'
  9	'x+.6666, x-y+.3333, z+.3333'
 10	'x+.3333, x-y+.6666, z+.6666'
 11	'-y+.6666, -x+.3333, z+.3333'
 12	'-y+.3333, -x+.6666, z+.6666'
 13	'-x+y+.6666, -x+.3333, z+.3333'
 14	'-x+y+.3333, -x+.6666, z+.6666'
 15	'-y+.6666, x-y+.3333, z+.3333'
 16	'-y+.3333, x-y+.6666, z+.6666'
 17	'x+.6666, y+.3333, z+.3333'
 18	'x+.3333, y+.6666, z+.6666'
loop_
_atom_type_symbol
_atom_type_oxidation_number
Cu1+	1
Na1+	1
Te2-	-2
loop_
_atom_site_label
_atom_site_type_symbol
_atom_site_symmetry_multiplicity
_atom_site_Wyckoff_symbol
_atom_site_fract_x
_atom_site_fract_y
_atom_site_fract_z
_atom_site_occupancy
_atom_site_attached_hydrogens
Na1 Na1+ 3 a 0 0 0 1. 0 
Cu1 Cu1+ 3 a 0 0 -.1354(4) 1. 0 
Cu2 Cu1+ 3 a 0 0 0.1381(7) 1. 0 
Cu3 Cu1+ 3 a 0 0 0.5490(9) 1. 0 
Te1 Te2- 3 a 0 0 -.2463(2) 1. 0 
Te2 Te2- 3 a 0 0 0.2461(2) 1. 0 

loop_
_atom_site_aniso_label
_atom_site_aniso_type_symbol
_atom_site_aniso_U_11
_atom_site_aniso_U_22
_atom_site_aniso_U_33
_atom_site_aniso_U_12
_atom_site_aniso_U_13
_atom_site_aniso_U_23
Na1 Na1+ 4.0(9) 4.0(9) 2.0(9) 2.00(45) 0 0
Cu1 Cu1+ 2.9(5) 2.9(5) 0.7(3) 1.45(25) 0 0
Cu2 Cu1+ 3.8(7) 3.8(7) 6.4(8) 1.90(35) 0 0
Cu3 Cu1+ 2.3(6) 2.3(6) 15.(1) 1.15(30) 0 0
Te1 Te2- 0.7(2) 0.7(2) 1.2(2) 0.35(10) 0 0
Te2 Te2- 1.5(2) 1.5(2) 2.0(2) 0.75(10) 0 0
#End of data_60860-ICSD


