data_98727-ICSD
#?2014 by Fachinformationszentrum Karlsruhe, and the U.S. Secretary of 
#Commerce on behalf of the United States.  All rights reserved.
_database_code_ICSD                98727
_audit_creation_date               2005/04/01
_audit_update_record               2006/04/01
_chemical_name_systematic          'Calcium Catena-silicate'
_chemical_formula_structural       'Ca (Si O3)'
_chemical_formula_sum              'Ca1 O3 Si1'
_chemical_name_mineral             Walstromite
_publ_section_title
;
The crystal structure of Ca Si O3 - walstromite, a special isomorph 
of wollastonite-II
;
loop_
_citation_id
_citation_journal_abbrev
_citation_year
_citation_journal_volume
_citation_page_first
_citation_page_last
_citation_journal_id_ASTM
primary 'Zeitschrift fuer Kristallographie (1979-2010)' 2003 218 811 818 ZEKRDZ
_publ_author_name
;
Joswig, W.;Paulus, E.F.;Winkler, B.;Milman, V.
;
_cell_length_a                     6.596(1)
_cell_length_b                     9.223(1)
_cell_length_c                     6.554(1)
_cell_angle_alpha                  83.75(1)
_cell_angle_beta                   77.28(1)
_cell_angle_gamma                  70.07(1)
_cell_volume                       365.39
_cell_formula_units_Z              6
_symmetry_space_group_name_H-M     'P -1'
_symmetry_Int_Tables_number        2
_refine_ls_R_factor_all            .0346
loop_
_symmetry_equiv_pos_site_id
_symmetry_equiv_pos_as_xyz
  1	'-x, -y, -z'
  2	'x, y, z'
loop_
_atom_type_symbol
_atom_type_oxidation_number
Ca2+	2
O2-	-2
Si4+	4
loop_
_atom_site_label
_atom_site_type_symbol
_atom_site_symmetry_multiplicity
_atom_site_Wyckoff_symbol
_atom_site_fract_x
_atom_site_fract_y
_atom_site_fract_z
_atom_site_occupancy
_atom_site_attached_hydrogens
_atom_site_U_iso_or_equiv
Ca1 Ca2+ 2 i 0.7566(1) 0.0014(1) 0.7369(1) 1. 0 0.009(1) 
Ca2 Ca2+ 2 i 0.9256(1) 0.3345(1) 0.5716(1) 1. 0 0.008(1) 
Ca3 Ca2+ 2 i 0.2790(1) 0.3531(1) 0.9186(1) 1. 0 0.012(1) 
Si1 Si4+ 2 i 0.4771(2) 0.3027(1) 0.4540(2) 1. 0 0.008(1) 
Si2 Si4+ 2 i 0.7234(2) 0.0154(1) 0.2279(2) 1. 0 0.007(1) 
Si3 Si4+ 2 i 0.8382(2) 0.2941(1) 0.1024(2) 1. 0 0.008(1) 
O1 O2- 2 i 0.2315(4) 0.4054(3) 0.5401(4) 1. 0 0.010(1) 
O2 O2- 2 i 0.6143(5) 0.2649(3) 0.6385(4) 1. 0 0.010(1) 
O3 O2- 2 i 0.4918(4) 0.1381(3) 0.3597(4) 1. 0 0.011(1) 
O4 O2- 2 i 0.6535(5) -0.0976(3) 0.1129(4) 1. 0 0.010(1) 
O5 O2- 2 i 0.8990(5) -0.0589(3) 0.3728(4) 1. 0 0.010(1) 
O6 O2- 2 i 0.8069(5) 0.1344(3) 0.0418(4) 1. 0 0.010(1) 
O7 O2- 2 i 0.8815(5) 0.4069(3) -0.0914(4) 1. 0 0.011(1) 
O8 O2- 2 i 0.0301(5) 0.2567(3) 0.2317(4) 1. 0 0.012(1) 
O9 O2- 2 i 0.5951(5) 0.3870(3) 0.2463(4) 1. 0 0.012(1) 

loop_
_atom_site_aniso_label
_atom_site_aniso_type_symbol
_atom_site_aniso_U_11
_atom_site_aniso_U_22
_atom_site_aniso_U_33
_atom_site_aniso_U_12
_atom_site_aniso_U_13
_atom_site_aniso_U_23
Ca1 Ca2+ .008(1) .008(1) .008(1) -.003(1) .001(1) .000(1)
Ca2 Ca2+ .008(1) .009(1) .008(1) -.004(1) .000(1) .000(1)
Ca3 Ca2+ .012(1) .008(1) .013(1) -.004(1) .002(1) -.002(1)
Si1 Si4+ .006(1) .008(1) .009(1) -.003(1) .002(1) .000(1)
Si2 Si4+ .007(1) .008(1) .007(1) -.002(1) .001(1) .000(1)
Si3 Si4+ .009(1) .008(1) .007(1) -.004(1) .001(1) .000(1)
O1 O2- .005(2) .009(2) .013(2) -.001(1) .001(1) .001(1)
O2 O2- .010(2) .011(2) .010(1) -.004(1) .000(1) -.001(1)
O3 O2- .007(1) .012(2) .013(1) -.003(1) .001(1) .001(1)
O4 O2- .011(2) .009(1) .010(1) -.004(1) -.001(1) -.002(1)
O5 O2- .010(2) .010(2) .010(1) -.003(1) .000(1) .000(1)
O6 O2- .009(2) .009(1) .010(1) -.004(1) .001(1) -.001(1)
O7 O2- .012(2) .012(2) .007(1) -.005(1) -.001(1) .001(1)
O8 O2- .013(2) .012(2) .008(1) -.004(1) .001(1) -.001(1)
O9 O2- .011(2) .007(1) .014(2) -.003(1) .003(1) .001(1)
#End of data_98727-ICSD


