data_174294-ICSD
#?2014 by Fachinformationszentrum Karlsruhe, and the U.S. Secretary of 
#Commerce on behalf of the United States.  All rights reserved.
_database_code_ICSD                174294
_audit_creation_date               2010/08/01
_chemical_name_systematic
;
Potassium Zinc Tetrahydridoborate Chloride
;
_chemical_formula_structural       'K Zn (B H4) Cl2'
_chemical_formula_sum              'H4 B1 Cl2 K1 Zn1'
_publ_section_title
;
Mixed-anion and mixed-cation borohydride K Zn (B H4) Cl2: Synthesis, 
structure and thermal dcomposition
;
loop_
_citation_id
_citation_journal_abbrev
_citation_year
_citation_journal_volume
_citation_journal_issue
_citation_page_first
_citation_page_last
_citation_journal_id_ASTM
primary 'European Journal of Inorganic Chemistry  (online)'
 2010 2010 11 1608 1612 EJICFO
_publ_author_name
;
Ravnsbaek, D.B.;Sorensen, L.H.;Filinchuk, Y.;Reed, D.;Book, 
D.;Jakobsen, H.J.;Besenbacher, F.;Skibsted, J.;Jensen, T.R.
;
_cell_length_a                     7.6948(7)
_cell_length_b                     5.7668(4)
_cell_length_c                     6.8930(6)
_cell_angle_alpha                  90
_cell_angle_beta                   98.369(11)
_cell_angle_gamma                  90
_cell_volume                       302.62
_cell_formula_units_Z              2
_symmetry_space_group_name_H-M     'P 1 21/m 1'
_symmetry_Int_Tables_number        11
_refine_ls_R_factor_all            .0166
loop_
_symmetry_equiv_pos_site_id
_symmetry_equiv_pos_as_xyz
  1	'x, -y+.5, z'
  2	'-x, -y, -z'
  3	'-x, y+.5, -z'
  4	'x, y, z'
loop_
_atom_type_symbol
_atom_type_oxidation_number
B3+	3
Cl1-	-1
H1-	-1
K1+	1
Zn2+	2
loop_
_atom_site_label
_atom_site_type_symbol
_atom_site_symmetry_multiplicity
_atom_site_Wyckoff_symbol
_atom_site_fract_x
_atom_site_fract_y
_atom_site_fract_z
_atom_site_occupancy
_atom_site_attached_hydrogens
_atom_site_U_iso_or_equiv
Zn1 Zn2+ 2 e 0.3374(8) 0.25 0.0317(9) 1. 0 0.052(3) 
K1 K1+ 2 e 0.7503(12) 0.25 0.4875(16) 1. 0 0.067(4) 
Cl1 Cl1- 2 e 0.6320(14) 0.25 0.9836(15) 1. 0 0.049(3) 
Cl2 Cl1- 2 e 0.3398(14) 0.25 0.3540(14) 1. 0 0.049(3) 
B1 B3+ 2 e 0.1087(13) 0.25 0.8085(13) 1. 0 0.08(2) 
H1 H1- 2 e 0.098(3) 0.25 0.6451(12) 1. 0 0.08(2) 
H2 H1- 4 f 0.181(3) 0.410(5) 0.869(4) 1. 0 0.08(2) 
H3 H1- 2 e -0.0255(13) 0.25 0.853(3) 1. 0 0.08(2) 

#End of data_174294-ICSD


