data_260949-ICSD
#?2014 by Fachinformationszentrum Karlsruhe, and the U.S. Secretary of 
#Commerce on behalf of the United States.  All rights reserved.
_database_code_ICSD                260949
_audit_creation_date               2011/02/01
_chemical_name_systematic          'Manganese Sodium Vanadate'
_chemical_formula_structural       'Mn Na (V O4)'
_chemical_formula_sum              'Mn1 Na1 O4 V1'
_publ_section_title
;
Synthesis and characterization of the crystal structure and magnetic 
properties of the ternary manganese vanadate Na Mn V O4
;
loop_
_citation_id
_citation_journal_abbrev
_citation_year
_citation_journal_volume
_citation_journal_issue
_citation_page_first
_citation_page_last
_citation_journal_id_ASTM
primary 'Inorganic Chemistry' 2010 49 18 8578 8582 INOCAJ
_publ_author_name
;
Ben Yahia, H.;Gaudin, E.;Boulahya, K.;Darriet, J.;Son Wonjoon;Whangbo 
Myunghwan
;
_cell_length_a                     9.563(1)
_cell_length_b                     6.882(1)
_cell_length_c                     5.316(1)
_cell_angle_alpha                  90
_cell_angle_beta                   90
_cell_angle_gamma                  90
_cell_volume                       349.86
_cell_formula_units_Z              4
_symmetry_space_group_name_H-M     'P n m a'
_symmetry_Int_Tables_number        62
_refine_ls_R_factor_all            .0304
loop_
_symmetry_equiv_pos_site_id
_symmetry_equiv_pos_as_xyz
  1	'x+.5, y, -z+.5'
  2	'x, -y+.5, z'
  3	'-x+.5, y+.5, z+.5'
  4	'-x, -y, -z'
  5	'-x+.5, -y, z+.5'
  6	'-x, y+.5, -z'
  7	'x+.5, -y+.5, -z+.5'
  8	'x, y, z'
loop_
_atom_type_symbol
_atom_type_oxidation_number
Mn2+	2
Na1+	1
O2-	-2
V5+	5
loop_
_atom_site_label
_atom_site_type_symbol
_atom_site_symmetry_multiplicity
_atom_site_Wyckoff_symbol
_atom_site_fract_x
_atom_site_fract_y
_atom_site_fract_z
_atom_site_occupancy
_atom_site_attached_hydrogens
_atom_site_U_iso_or_equiv
Na1 Na1+ 4 c 0.14622(12) -0.25 0.51349(15) 1 0 0.0161(2) 
Mn1 Mn2+ 4 a 0.5 0 0.5 1 0 0.01109(8) 
V1 V5+ 4 c 0.18090(3) 0.25 0.52042(5) 1 0 0.00618(7) 
O1 O2- 4 c 0.36336(15) 0.25 0.5585(3) 1 0 0.0100(3) 
O2 O2- 4 c 0.12308(15) 0.25 0.2112(3) 1 0 0.0121(4) 
O3 O2- 8 d 0.11606(11) 0.44536(16) 0.67228(18) 1 0 0.0138(3) 

loop_
_atom_site_aniso_label
_atom_site_aniso_type_symbol
_atom_site_aniso_U_11
_atom_site_aniso_U_22
_atom_site_aniso_U_33
_atom_site_aniso_U_12
_atom_site_aniso_U_13
_atom_site_aniso_U_23
Na1 Na1+ 0.0203(5) 0.0147(4) 0.0133(4) 0 -0.0016(3) 0
Mn1 Mn2+ 0.01081(14) 0.01176(14) 0.01071(13) 0.00417(9) -0.00400(10) 
-0.00392(10)
V1 V5+ 0.00513(13) 0.00745(13) 0.00595(13) 0 0.00037(10) 0
O1 O2- 0.0070(6) 0.0099(6) 0.0132(6) 0 0.0001(5) 0
O2 O2- 0.0112(7) 0.0154(6) 0.0096(6) 0 -0.0017(5) 0
O3 O2- 0.0165(5) 0.0121(4) 0.0127(4) 0.0033(4) 0.0054(4) -0.0007(3)
#End of data_260949-ICSD


