data_20837-ICSD
#?2014 by Fachinformationszentrum Karlsruhe, and the U.S. Secretary of 
#Commerce on behalf of the United States.  All rights reserved.
_database_code_ICSD                20837
_audit_creation_date               1985/03/06
_audit_update_record               1999/11/30
_chemical_name_systematic          'Disodium Zinc Catena-disilicate'
_chemical_formula_structural       'Na2 Zn (Si2 O6)'
_chemical_formula_sum              'Na2 O6 Si2 Zn1'
_chemical_name_mineral             'Chkalovite, zincean'
_publ_section_title
;
Refined crystal structure determination of synthetic Zn chkalovite 
Na2 Zn (Si2 O6)
;
loop_
_citation_id
_citation_journal_abbrev
_citation_year
_citation_journal_volume
_citation_page_first
_citation_page_last
_citation_journal_id_ASTM
primary Kristallografiya 1980 25 1282 1284 KRISAJ
2 Kristallografiya 1969 14 1060 1060 KRISAJ
3 'Soviet Physics, Crystallography (= Kristallografiya)'
 1980 25 731 732 SPHCA6
_publ_author_name
;
Simonov, M.A.;Belokoneva, E.L.;Belov, N.V.
;
_cell_length_a                     21.53999
_cell_length_b                     7.139
_cell_length_c                     7.413
_cell_angle_alpha                  90.
_cell_angle_beta                   90.
_cell_angle_gamma                  90.
_cell_volume                       1139.93
_cell_formula_units_Z              8
_symmetry_space_group_name_H-M     'F d d 2'
_symmetry_Int_Tables_number        43
_refine_ls_R_factor_all            .04
loop_
_symmetry_equiv_pos_site_id
_symmetry_equiv_pos_as_xyz
  1	'x+.25, -y+.25, z+.25'
  2	'-x+.25, y+.25, z+.25'
  3	'-x, -y, z'
  4	'x, y, z'
  5	'x+.25, -y+.75, z+.75'
  6	'x+.75, -y+.25, z+.75'
  7	'x+.75, -y+.75, z+.25'
  8	'-x+.25, y+.75, z+.75'
  9	'-x+.75, y+.25, z+.75'
 10	'-x+.75, y+.75, z+.25'
 11	'-x, -y+.5, z+.5'
 12	'-x+.5, -y, z+.5'
 13	'-x+.5, -y+.5, z'
 14	'x, y+.5, z+.5'
 15	'x+.5, y, z+.5'
 16	'x+.5, y+.5, z'
loop_
_atom_type_symbol
_atom_type_oxidation_number
Na1+	1
O2-	-2
Si4+	4
Zn2+	2
loop_
_atom_site_label
_atom_site_type_symbol
_atom_site_symmetry_multiplicity
_atom_site_Wyckoff_symbol
_atom_site_fract_x
_atom_site_fract_y
_atom_site_fract_z
_atom_site_occupancy
_atom_site_attached_hydrogens
Zn1 Zn2+ 8 a 0 0 0 1. 0 
Si1 Si4+ 16 b 0.08330(3) 0.28672(8) 0.7731(1) 1. 0 
Na1 Na1+ 16 b 0.07715(4) 0.2694(2) 0.2273(2) 1. 0 
O1 O2- 16 b 0.07787(6) 0.4509(2) 0.6270(2) 1. 0 
O2 O2- 16 b 0.12035(7) 0.1004(2) 0.6911(2) 1. 0 
O3 O2- 16 b 0.01850(7) 0.2180(2) 0.8544(2) 1. 0 

loop_
_atom_site_aniso_label
_atom_site_aniso_type_symbol
_atom_site_aniso_B_11
_atom_site_aniso_B_22
_atom_site_aniso_B_33
_atom_site_aniso_B_12
_atom_site_aniso_B_13
_atom_site_aniso_B_23
Zn1 Zn2+ 0.45(1) 0.55(1) 0.61(1) -.02(1) 0 0
Si1 Si4+ 0.43(1) 0.36(2) 0.43(2) 0.00(1) 0.02(1) 0.06(1)
Na1 Na1+ 0.96(3) 1.08(4) 1.68(5) -.08(3) 0.35(3) 0.00(3)
O1 O2- 0.65(4) 0.72(4) 0.90(5) 0.02(3) -.14(4) 0.37(4)
O2 O2- 1.15(5) 0.62(4) 0.73(5) 0.26(3) 0.27(4) -.07(4)
O3 O2- 0.57(4) 1.09(5) 1.40(6) -.02(3) 0.19(4) 0.51(4)
#End of data_20837-ICSD


