data_61036-ICSD
#?2014 by Fachinformationszentrum Karlsruhe, and the U.S. Secretary of 
#Commerce on behalf of the United States.  All rights reserved.
_database_code_ICSD                61036
_audit_creation_date               1986/12/03
_audit_update_record               2000/07/15
_chemical_name_systematic
;
Silver Tetracopper Tris(arsenate(V))
;
_chemical_formula_structural       'Ag Cu4 (As O4)3'
_chemical_formula_sum              'Ag1 As3 Cu4 O12'
_publ_section_title
;
Die Kristallstruktur von Ag Cu3 Cu (As O4)3 und ihre strukturellen 
Beziehungen zu Ag Co3 H2 (As O4)3 bzw. Ag Zn3 H2 (As O4)3
;
loop_
_citation_id
_citation_journal_abbrev
_citation_year
_citation_journal_volume
_citation_page_first
_citation_page_last
_citation_journal_id_ASTM
primary 'Zeitschrift fuer Anorganische und Allgemeine Chemie (1950) (DE)'
 1985 530 60 68 ZAACAB
_publ_author_name                  'Riffel, H.;Keller, P.;Hess, H.'
_cell_length_a                     12.127(2)
_cell_length_b                     12.490(2)
_cell_length_c                     7.278(1)
_cell_angle_alpha                  90.
_cell_angle_beta                   117.94(1)
_cell_angle_gamma                  90.
_cell_volume                       973.88
_cell_formula_units_Z              4
_symmetry_space_group_name_H-M     'C 1 2/c 1'
_symmetry_Int_Tables_number        15
_refine_ls_R_factor_all            .041
loop_
_symmetry_equiv_pos_site_id
_symmetry_equiv_pos_as_xyz
  1	'x, -y, z+.5'
  2	'-x, -y, -z'
  3	'-x, y, -z+.5'
  4	'x, y, z'
  5	'x+.5, -y+.5, z+.5'
  6	'-x+.5, -y+.5, -z'
  7	'-x+.5, y+.5, -z+.5'
  8	'x+.5, y+.5, z'
loop_
_atom_type_symbol
_atom_type_oxidation_number
Ag1+	1
As5+	5
Cu2+	2
O2-	-2
loop_
_atom_site_label
_atom_site_type_symbol
_atom_site_symmetry_multiplicity
_atom_site_Wyckoff_symbol
_atom_site_fract_x
_atom_site_fract_y
_atom_site_fract_z
_atom_site_occupancy
_atom_site_attached_hydrogens
Ag1 Ag1+ 4 e 0 0.0115(1) 0.25 1. 0 
Cu1 Cu2+ 4 e 0.5 0.2351(1) 0.25 1. 0 
Cu2 Cu2+ 8 f 0.2793(1) 0.3433(1) 0.3612(1) 1. 0 
Cu3 Cu2+ 4 e 0 0.4961(1) 0.25 1. 0 
As1 As5+ 4 e 0 0.2778(1) 0.25 1. 0 
As2 As5+ 8 f 0.2286(1) 0.1179(1) 0.1221(1) 1. 0 
O1 O2- 8 f 0.3292(38) 0.4956(32) 0.3797(70) 1. 0 
O2 O2- 8 f 0.3821(36) 0.1112(34) 0.1779(70) 1. 0 
O3 O2- 8 f 0.1037(36) 0.3769(31) 0.258(7) 1. 0 
O4 O2- 8 f 0.3532(37) 0.3311(33) 0.1193(62) 1. 0 
O5 O2- 8 f 0.2209(37) 0.1930(32) 0.3077(64) 1. 0 
O6 O2- 8 f 0.0444(38) 0.2043(33) 0.4654(68) 1. 0 

loop_
_atom_site_aniso_label
_atom_site_aniso_type_symbol
_atom_site_aniso_U_11
_atom_site_aniso_U_22
_atom_site_aniso_U_33
_atom_site_aniso_U_12
_atom_site_aniso_U_13
_atom_site_aniso_U_23
Ag1 Ag1+ 0.0161(4) 0.0171(4) 0.0186(4) 0 0.0025(3) 0
Cu1 Cu2+ 0.0049(5) 0.0041(4) 0.0189(6) 0 0.0044(5) 0
Cu2 Cu2+ 0.0046(3) 0.0032(3) 0.0117(4) -.0001(3) 0.0030(3) -.0008(3)
Cu3 Cu2+ 0.0067(4) 0.0035(4) 0.0167(5) 0 0.0051(4) 0
As1 As5+ 0.0057(4) 0.0034(4) 0.0072(4) 0 0.0018(3) 0
As2 As5+ 0.0052(3) 0.0038(3) 0.0071(3) 0.0(3) 0.0023(3) -.0005(3)
O1 O2- 0.0095(18) 0.0057(18) 0.0219(22) 0.0000(15) 0.0079(16) -.0011(16)
O2 O2- 0.0052(17) 0.0048(17) 0.0270(24) 0.0010(15) 0.0067(16) 0
O3 O2- 0.0066(17) 0.0046(17) 0.0186(20) 0.0019(14) 0.0058(15) 0.0008(16)
O4 O2- 0.0105(18) 0.0085(18) 0.0084(18) 0.0034(15) 0.0043(15) 0.0020(15)
O5 O2- 0.0095(18) 0.0062(17) 0.0104(19) 0.0015(14) 0.0053(15) -.0005(14)
O6 O2- 0.0087(18) 0.0087(18) 0.0117(19) 0.0011(14) 0.0052(15) 0.0032(15)
#End of data_61036-ICSD


