data_22063-ICSD
#?2014 by Fachinformationszentrum Karlsruhe, and the U.S. Secretary of 
#Commerce on behalf of the United States.  All rights reserved.
_database_code_ICSD                22063
_audit_creation_date               1980/01/01
_chemical_name_systematic          'Potassium Trioxoplumbate'
_chemical_formula_structural       'K2 Pb O3'
_chemical_formula_sum              'K2 O3 Pb1'
_publ_section_title
;
Neue Plumbate und Stannate der Alkalimetalle
;
loop_
_citation_id
_citation_journal_abbrev
_citation_year
_citation_journal_volume
_citation_page_first
_citation_page_last
_citation_journal_id_ASTM
primary Naturwissenschaften 1964 51 86 86 NATWAY
_publ_author_name
;
Hoppe, R.;Roehrborn, H.J.;Walker, H.
;
_cell_length_a                     10.64
_cell_length_b                     7.09
_cell_length_c                     5.98
_cell_angle_alpha                  90.
_cell_angle_beta                   90.
_cell_angle_gamma                  90.
_cell_volume                       451.12
_cell_formula_units_Z              4
_symmetry_space_group_name_H-M     'C m c 21'
_symmetry_Int_Tables_number        36
_refine_ls_R_factor_all            .16
loop_
_symmetry_equiv_pos_site_id
_symmetry_equiv_pos_as_xyz
  1	'x, -y, z+.5'
  2	'-x, -y, z+.5'
  3	'-x, y, z'
  4	'x, y, z'
  5	'x+.5, -y+.5, z+.5'
  6	'-x+.5, -y+.5, z+.5'
  7	'-x+.5, y+.5, z'
  8	'x+.5, y+.5, z'
loop_
_atom_type_symbol
_atom_type_oxidation_number
K1+	1
O2-	-2
Pb4+	4
loop_
_atom_site_label
_atom_site_type_symbol
_atom_site_symmetry_multiplicity
_atom_site_Wyckoff_symbol
_atom_site_fract_x
_atom_site_fract_y
_atom_site_fract_z
_atom_site_occupancy
_atom_site_attached_hydrogens
Pb1 Pb4+ 4 a 0 0.097 0.25 1. 0 
K1 K1+ 8 b 0.335 0.139 0.25 1. 0 
O1 O2- 4 a 0 0.382 0.125 1. 0 
O2 O2- 8 b 0.136 0 0 1. 0 

#End of data_22063-ICSD


