data_30553-ICSD
#?2014 by Fachinformationszentrum Karlsruhe, and the U.S. Secretary of 
#Commerce on behalf of the United States.  All rights reserved.
_database_code_ICSD                30553
_audit_creation_date               1980/01/01
_audit_update_record               1999/01/19
_chemical_name_systematic
;
Calcium Decaantimony Decaoxide Sulfide
;
_chemical_formula_structural       'Ca Sb10 O10 S6'
_chemical_formula_sum              'Ca1 O10 S6 Sb10'
_chemical_name_mineral             Sarabauite
_publ_section_title
;
Crystal structure of oxide-chalcogenide. I.The crystal stucture of 
sarabauite Ca Sb10 O10 S6
;
loop_
_citation_id
_citation_journal_abbrev
_citation_year
_citation_journal_volume
_citation_page_first
_citation_page_last
_citation_journal_id_ASTM
primary 'Acta Crystallographica B (24,1968-38,1982)' 1978 34 3569 3572 ACBCAR
_publ_author_name
;
Nakai, I.;Nagashima, K.;Koto, K.;Morimoto, N.
;
_cell_length_a                     25.37(2)
_cell_length_b                     5.654(1)
_cell_length_c                     16.87(1)
_cell_angle_alpha                  90.
_cell_angle_beta                   117.58(4)
_cell_angle_gamma                  90.
_cell_volume                       2144.89
_cell_formula_units_Z              4
_symmetry_space_group_name_H-M     'C 1 2/c 1'
_symmetry_Int_Tables_number        15
_refine_ls_R_factor_all            .057
loop_
_symmetry_equiv_pos_site_id
_symmetry_equiv_pos_as_xyz
  1	'x, -y, z+.5'
  2	'-x, -y, -z'
  3	'-x, y, -z+.5'
  4	'x, y, z'
  5	'x+.5, -y+.5, z+.5'
  6	'-x+.5, -y+.5, -z'
  7	'-x+.5, y+.5, -z+.5'
  8	'x+.5, y+.5, z'
loop_
_atom_type_symbol
_atom_type_oxidation_number
Ca2+	2
O2-	-2
S2-	-2
Sb3+	3
loop_
_atom_site_label
_atom_site_type_symbol
_atom_site_symmetry_multiplicity
_atom_site_Wyckoff_symbol
_atom_site_fract_x
_atom_site_fract_y
_atom_site_fract_z
_atom_site_occupancy
_atom_site_attached_hydrogens
_atom_site_B_iso_or_equiv
Sb1 Sb3+ 8 f 0.45169(5) 0.4908(2) 0.08811(8) 1. 0 0 
Sb2 Sb3+ 8 f 0.06051(5) 0.4397(2) 0.08433(8) 1. 0 0 
Sb3 Sb3+ 8 f 0.40195(5) 0.3904(2) 0.24784(8) 1. 0 0 
Sb4 Sb3+ 8 f 0.16446(5) 0.3859(2) 0.45181(8) 1. 0 0 
Sb5 Sb3+ 8 f 0.22746(6) 0.1010(2) 0.13422(9) 1. 0 0 
Ca1 Ca2+ 4 e 0 0.4469(8) 0.25 1. 0 0 
S1 S2- 8 f 0.29545(21) 0.4799(8) 0.02610(32) 1. 0 0 
S2 S2- 8 f 0.17228(21) 0.4282(9) 0.31099(31) 1. 0 0 
S3 S2- 8 f 0.32441(32) 0.2627(13) 0.35632(49) 1. 0 0 
O1 O2- 8 f 0.02416(61) 0.3294(24) 0.48238(88) 1. 0 0 
O2 O2- 8 f 0.08414(58) 0.2501(22) 0.37423(85) 1. 0 0 
O3 O2- 8 f 0.45493(56) 0.1469(23) 0.33428(85) 1. 0 1.23 
O4 O2- 8 f 0.43880(54) 0.2796(24) 0.17364(83) 1. 0 1.16 
O5 O2- 8 f 0.03093(55) 0.1150(24) 0.17919(86) 1. 0 0 

#End of data_30553-ICSD


