data_67284-ICSD
#?2014 by Fachinformationszentrum Karlsruhe, and the U.S. Secretary of 
#Commerce on behalf of the United States.  All rights reserved.
_database_code_ICSD                67284
_audit_creation_date               1990/12/27
_audit_update_record               2012/02/01
_chemical_name_systematic          'Dipotassium Ditungstate'
_chemical_formula_structural       'K2 (W2 O7)'
_chemical_formula_sum              'K2 O7 W2'
_publ_section_title
;
Hochdrucksynthese und Kristallstruktur von Kalium- und 
Rubidiumdiwolframat(VI), K2 W2 O7 und Rb2 W2 O7
;
loop_
_citation_id
_citation_journal_abbrev
_citation_year
_citation_journal_volume
_citation_page_first
_citation_page_last
_citation_journal_id_ASTM
primary 'Zeitschrift fuer Naturforschung, B: Chemical Sciences'
 1990 45 107 110 ZNBSEN
_publ_author_name
;
Range, K.J.;Hegenbart, W.;Heyns, A.M.;Rau, F.;Klement, U.
;
_cell_length_a                     3.883(1)
_cell_length_b                     13.653(4)
_cell_length_c                     5.960(1)
_cell_angle_alpha                  90.
_cell_angle_beta                   90.40(3)
_cell_angle_gamma                  90.
_cell_volume                       315.96
_cell_formula_units_Z              2
_symmetry_space_group_name_H-M     'P 1 21/c 1'
_symmetry_Int_Tables_number        14
_refine_ls_R_factor_all            .054
loop_
_symmetry_equiv_pos_site_id
_symmetry_equiv_pos_as_xyz
  1	'x, -y+.5, z+.5'
  2	'-x, -y, -z'
  3	'-x, y+.5, -z+.5'
  4	'x, y, z'
loop_
_atom_type_symbol
_atom_type_oxidation_number
K1+	1
O2-	-2
W6+	6
loop_
_atom_site_label
_atom_site_type_symbol
_atom_site_symmetry_multiplicity
_atom_site_Wyckoff_symbol
_atom_site_fract_x
_atom_site_fract_y
_atom_site_fract_z
_atom_site_occupancy
_atom_site_attached_hydrogens
_atom_site_B_iso_or_equiv
W1 W6+ 4 e 0.5546(4) 0.0659(1) 0.2823(3) 1. 0 0 
K1 K1+ 4 e -.015(3) 0.6714(8) 0.675(2) 1. 0 0 
O1 O2- 2 b 0.5 0.5 0.5 1. 0 4.(1) 
O2 O2- 4 e 0.01(1) 0.453(3) 0.771(7) 1. 0 2.9(7) 
O3 O2- 4 e 0.500(7) 0.579(2) 0.906(5) 1. 0 1.1(4) 
O4 O2- 4 e 0.492(9) 0.315(3) 0.684(5) 1. 0 2.0(6) 

loop_
_atom_site_aniso_label
_atom_site_aniso_type_symbol
_atom_site_aniso_B_11
_atom_site_aniso_B_22
_atom_site_aniso_B_33
_atom_site_aniso_B_12
_atom_site_aniso_B_13
_atom_site_aniso_B_23
W1 W6+ 0.58(3) 0.81(3) 0.36(3) -.12(9) -.12(2) 0.04(8)
K1 K1+ 2.0(4) 2.2(4) 1.4(3) 0.3(3) -.7(3) -.6(3)
#End of data_67284-ICSD


