data_99999-ICSD
#?2014 by Fachinformationszentrum Karlsruhe, and the U.S. Secretary of 
#Commerce on behalf of the United States.  All rights reserved.
_database_code_ICSD                99999
_audit_creation_date               2005/04/01
_chemical_name_systematic          'Potassium Nitride'
_chemical_formula_structural       'K3 N'
_chemical_formula_sum              'K3 N1'
_publ_section_title                'Zur Synthese und Struktur von K3 N'
loop_
_citation_id
_citation_journal_abbrev
_citation_year
_citation_journal_volume
_citation_page_first
_citation_page_last
_citation_journal_id_ASTM
primary 'Zeitschrift fuer Anorganische und Allgemeine Chemie (1950) (DE)'
 2004 630 156 160 ZAACAB
_publ_author_name
;
Fischer, D.;Cancarevic, Z.;Schoen, J.C.;Jansen, M.
;
_cell_length_a                     7.798(2)
_cell_length_b                     7.798(2)
_cell_length_c                     7.592(9)
_cell_angle_alpha                  90
_cell_angle_beta                   90
_cell_angle_gamma                  120
_cell_volume                       399.81
_cell_formula_units_Z              2
_symmetry_space_group_name_H-M     'P 63/m c m'
_symmetry_Int_Tables_number        193
loop_
_symmetry_equiv_pos_site_id
_symmetry_equiv_pos_as_xyz
  1	'-x, -x+y, -z+.5'
  2	'x-y, -y, -z+.5'
  3	'y, x, -z+.5'
  4	'-x+y, -x, -z+.5'
  5	'-y, x-y, -z+.5'
  6	'x, y, -z+.5'
  7	'x, x-y, z+.5'
  8	'-x+y, y, z+.5'
  9	'-y, -x, z+.5'
 10	'x-y, x, z+.5'
 11	'y, -x+y, z+.5'
 12	'-x, -y, z+.5'
 13	'x, x-y, -z'
 14	'-x+y, y, -z'
 15	'-y, -x, -z'
 16	'x-y, x, -z'
 17	'y, -x+y, -z'
 18	'-x, -y, -z'
 19	'-x, -x+y, z'
 20	'x-y, -y, z'
 21	'y, x, z'
 22	'-x+y, -x, z'
 23	'-y, x-y, z'
 24	'x, y, z'
loop_
_atom_type_symbol
_atom_type_oxidation_number
K1+	1
N3-	-3
loop_
_atom_site_label
_atom_site_type_symbol
_atom_site_symmetry_multiplicity
_atom_site_Wyckoff_symbol
_atom_site_fract_x
_atom_site_fract_y
_atom_site_fract_z
_atom_site_occupancy
_atom_site_attached_hydrogens
K1 K1+ 6 g 0.26 0 0.250 1. 0 
N1 N3- 2 b 0 0 0 1. 0 

#End of data_99999-ICSD


