data_202996-ICSD
#?2014 by Fachinformationszentrum Karlsruhe, and the U.S. Secretary of 
#Commerce on behalf of the United States.  All rights reserved.
_database_code_ICSD                202996
_audit_creation_date               1990/06/08
_audit_update_record               2013/02/01
_chemical_name_systematic          'Dilithium Copper Oxide'
_chemical_formula_structural       'Li2 Cu O2'
_chemical_formula_sum              'Cu1 Li2 O2'
_publ_section_title
;
Structure and Oxidation State Relationships in Ternary Copper Oxides
;
loop_
_citation_id
_citation_journal_abbrev
_citation_year
_citation_journal_volume
_citation_page_first
_citation_page_last
_citation_journal_id_ASTM
primary 'Journal of Solid State Chemistry' 1989 82 21 29 JSSCBI
_publ_author_name                  'Weller, M.T.;Lines, D.R.'
_cell_length_a                     3.654(2)
_cell_length_b                     2.857(2)
_cell_length_c                     9.372(6)
_cell_angle_alpha                  90.
_cell_angle_beta                   90.
_cell_angle_gamma                  90.
_cell_volume                       97.84
_cell_formula_units_Z              2
_symmetry_space_group_name_H-M     'I m m m'
_symmetry_Int_Tables_number        71
_refine_ls_R_factor_all            .0666
loop_
_symmetry_equiv_pos_site_id
_symmetry_equiv_pos_as_xyz
  1	'x, y, -z'
  2	'x, -y, z'
  3	'-x, y, z'
  4	'-x, -y, -z'
  5	'-x, -y, z'
  6	'-x, y, -z'
  7	'x, -y, -z'
  8	'x, y, z'
  9	'x+.5, y+.5, -z+.5'
 10	'x+.5, -y+.5, z+.5'
 11	'-x+.5, y+.5, z+.5'
 12	'-x+.5, -y+.5, -z+.5'
 13	'-x+.5, -y+.5, z+.5'
 14	'-x+.5, y+.5, -z+.5'
 15	'x+.5, -y+.5, -z+.5'
 16	'x+.5, y+.5, z+.5'
loop_
_atom_type_symbol
_atom_type_oxidation_number
Cu2+	2
Li1+	1
O2-	-2
loop_
_atom_site_label
_atom_site_type_symbol
_atom_site_symmetry_multiplicity
_atom_site_Wyckoff_symbol
_atom_site_fract_x
_atom_site_fract_y
_atom_site_fract_z
_atom_site_occupancy
_atom_site_attached_hydrogens
_atom_site_B_iso_or_equiv
Cu1 Cu2+ 2 b 0 0.5 0.5 1. 0 0.10(4) 
Li1 Li1+ 4 j 0.5 0 0.2892(15) 1. 0 1.53(16) 
O1 O2- 4 i 0 0 0.3576(3) 1. 0 0.38(5) 

#End of data_202996-ICSD


