data_68569-ICSD
#?2014 by Fachinformationszentrum Karlsruhe, and the U.S. Secretary of 
#Commerce on behalf of the United States.  All rights reserved.
_database_code_ICSD                68569
_audit_creation_date               1991/07/10
_audit_update_record               2012/08/01
_chemical_name_systematic          'Dirubidium Tetrachlorozincate'
_chemical_formula_structural       'Rb2 (Zn Cl4)'
_chemical_formula_sum              'Cl4 Rb2 Zn1'
_publ_section_title
;
(3+1)-dimensional structure analysis of the commensurate phase of 
Rb2ZnCl4
;
loop_
_citation_id
_citation_journal_abbrev
_citation_year
_citation_journal_volume
_citation_page_first
_citation_page_last
_citation_journal_id_ASTM
primary 'Kyoto University, Research Reactor Institute: Annual Report'
 1989 22 27 31 KURAAV
2 'Phase Transition' 1992 38 127 220 PHTRDP
_publ_author_name                  'Machida, M.'
_cell_length_a                     9.186(7)
_cell_length_b                     12.642(8)
_cell_length_c                     7.241(3)
_cell_angle_alpha                  90.
_cell_angle_beta                   90.
_cell_angle_gamma                  90.
_cell_volume                       840.89
_cell_formula_units_Z              4
_symmetry_space_group_name_H-M     'P n a 21'
_symmetry_Int_Tables_number        33
_refine_ls_R_factor_all            .045
loop_
_symmetry_equiv_pos_site_id
_symmetry_equiv_pos_as_xyz
  1	'x+.5, -y+.5, z'
  2	'-x+.5, y+.5, z+.5'
  3	'-x, -y, z+.5'
  4	'x, y, z'
loop_
_atom_type_symbol
_atom_type_oxidation_number
Cl1-	-1
Rb1+	1
Zn2+	2
loop_
_atom_site_label
_atom_site_type_symbol
_atom_site_symmetry_multiplicity
_atom_site_Wyckoff_symbol
_atom_site_fract_x
_atom_site_fract_y
_atom_site_fract_z
_atom_site_occupancy
_atom_site_attached_hydrogens
Rb1 Rb1+ 4 a 0.6293(2) 0.4061(2) 0.248 1. 0 
Rb2 Rb1+ 4 a 0.4871(1) 0.8192(1) 0.2486(8) 1. 0 
Zn1 Zn2+ 4 a 0.2232(2) 0.4217(1) 0.2492(6) 1. 0 
Cl1 Cl1- 4 a -.0189(4) 0.4200(4) 0.2515(13) 1. 0 
Cl2 Cl1- 4 a 0.3224(5) 0.5840(3) 0.2431(14) 1. 0 
Cl3 Cl1- 4 a 0.3078(8) 0.3359(7) 0.0039(9) 1. 0 
Cl4 Cl1- 4 a 0.3159(7) 0.3421(6) 0.5011(9) 1. 0 

loop_
_atom_site_aniso_label
_atom_site_aniso_type_symbol
_atom_site_aniso_U_11
_atom_site_aniso_U_22
_atom_site_aniso_U_33
_atom_site_aniso_U_12
_atom_site_aniso_U_13
_atom_site_aniso_U_23
Rb1 Rb1+ 0.0034(1) 0.0138(3) 0.0090(2) -0.0005(2) -0.0022(8) 0.0019(13)
Rb2 Rb1+ 0.0035(1) 0.0037(1) 0.0071(2) -0.0002(1) 0.0012(7) -0.0012(7)
Zn1 Zn2+ 0.0036(1) 0.0040(1) 0.0048(2) -0.0001(2) -0.0004(9) -0.0012(8)
Cl1 Cl1- 0.0031(3) 0.0077(5) 0.0148(9) -0.0008(4) 0.0006(15) -0.0025(14)
Cl2 Cl1- 0.0052(4) 0.0048(4) 0.0154(9) -0.0014(4) -0.0005(14) 0.0025(13)
Cl3 Cl1- 0.0088(8) 0.014(1) 0.0063(7) 0.0047(8) -0.0010(8) -0.0054(7)
Cl4 Cl1- 0.0065(6) 0.0112(9) 0.0056(6) 0.0010(8) 0.0002(6) 0.0025(7)
#End of data_68569-ICSD


