data_68282-ICSD
#?2014 by Fachinformationszentrum Karlsruhe, and the U.S. Secretary of 
#Commerce on behalf of the United States.  All rights reserved.
_database_code_ICSD                68282
_audit_creation_date               1991/07/10
_audit_update_record               2010/02/01
_chemical_name_systematic
;
Potassium 1,1-dioxo-3,3,5,5-tetraamino-triazathiaphosphinine
;
_chemical_formula_structural       'K (N3 (P (N H2)2)2 (S O2))'
_chemical_formula_sum              'H8 K1 N7 O2 P2 S1'
_publ_section_title
;
Structure of the anion of tetraamidocyclonitridosulfodiphosphoric 
acid in its sodium and potassium salts, Na (P2 N3 S O2 (N H2)4) * 
4(H2 O) and K (P2 N3 S O2 (N H2)4)
;
loop_
_citation_id
_citation_journal_abbrev
_citation_year
_citation_journal_volume
_citation_page_first
_citation_page_last
_citation_journal_id_ASTM
primary 'Zhurnal Neorganicheskoi Khimii' 1988 33 1666 1672 ZNOKAQ
2 'Russian Journal of Inorganic Chemistry' 1988 33 947 951 RJICAQ
_publ_author_name
;
Sokol, V.I.;Medvedeva, L.Ya.;Porai Koshits, M.A.;Beresnev, 
E.N.;Rozanov, I.A.
;
_cell_length_a                     9.795(1)
_cell_length_b                     13.247(3)
_cell_length_c                     13.783(3)
_cell_angle_alpha                  90.
_cell_angle_beta                   90.
_cell_angle_gamma                  90.
_cell_volume                       1788.4
_cell_formula_units_Z              8
_symmetry_space_group_name_H-M     'P b c a'
_symmetry_Int_Tables_number        61
_refine_ls_R_factor_all            .035
loop_
_symmetry_equiv_pos_site_id
_symmetry_equiv_pos_as_xyz
  1	'x+.5, y, -z+.5'
  2	'x, -y+.5, z+.5'
  3	'-x+.5, y+.5, z'
  4	'-x, -y, -z'
  5	'-x+.5, -y, z+.5'
  6	'-x, y+.5, -z+.5'
  7	'x+.5, -y+.5, -z'
  8	'x, y, z'
loop_
_atom_type_symbol
_atom_type_oxidation_number
H1+	1
K1+	1
N3-	-3
O2-	-2
P5+	5
S6+	6
loop_
_atom_site_label
_atom_site_type_symbol
_atom_site_symmetry_multiplicity
_atom_site_Wyckoff_symbol
_atom_site_fract_x
_atom_site_fract_y
_atom_site_fract_z
_atom_site_occupancy
_atom_site_attached_hydrogens
K1 K1+ 8 c 0.0925(1) 0.1278(1) 0.1055(1) 1. 0 
S1 S6+ 8 c 0.7604(1) 0.1291(1) 0.0076(1) 1. 0 
P1 P5+ 8 c 0.7161(1) 0.2652(1) 0.1562(1) 1. 0 
P2 P5+ 8 c 0.5497(1) 0.0929(1) 0.1345(1) 1. 0 
O1 O2- 8 c 0.8767(2) 0.0735(2) -.0319(2) 1. 0 
O2 O2- 8 c 0.6777(3) 0.1761(2) -.0689(2) 1. 0 
N1 N3- 8 c 0.8192(3) 0.2127(2) 0.0792(2) 1. 0 
N2 N3- 8 c 0.6712(3) 0.0488(2) 0.0658(2) 1. 0 
N3 N3- 8 c 0.5909(3) 0.1947(2) 0.1898(2) 1. 0 
N4 N3- 8 c 0.6466(4) 0.3704(3) 0.1200(3) 1. 0 
N5 N3- 8 c 0.8202(3) 0.3021(2) 0.2426(2) 1. 0 
N6 N3- 8 c 0.4018(3) 0.1130(2) 0.0791(2) 1. 0 
N7 N3- 8 c 0.5143(4) 0.0024(3) 0.2114(3) 1. 0 
H1 H1+ 8 c 0.568 0.343 0.112 1. 0 
H2 H1+ 8 c 0.698 0.464 0.103 1. 0 
H3 H1+ 8 c 0.893 0.265 0.254 1. 0 
H4 H1+ 8 c 0.795 0.315 0.288 1. 0 
H5 H1+ 8 c 0.369 0.049 0.041 1. 0 
H6 H1+ 8 c 0.407 0.19 0.051 1. 0 
H7 H1+ 8 c 0.567 -.045 0.213 1. 0 
H8 H1+ 8 c 0.428 -.016 0.214 1. 0 

#End of data_68282-ICSD


