data_71175-ICSD
#?2014 by Fachinformationszentrum Karlsruhe, and the U.S. Secretary of 
#Commerce on behalf of the United States.  All rights reserved.
_database_code_ICSD                71175
_audit_creation_date               1993/01/06
_chemical_name_systematic
;
Carbonylsilver Tetrakis(pentafluorotellurato)borate
;
_chemical_formula_structural       '(Ag (C O)) (B (O Te F5)4)'
_chemical_formula_sum              'C1 Ag1 B1 F20 O5 Te4'
_publ_section_title
;
Ag(CO)B(OTeF5)4: the first isolable silver carbonyl
;
loop_
_citation_id
_citation_journal_abbrev
_citation_year
_citation_journal_volume
_citation_page_first
_citation_page_last
_citation_journal_id_ASTM
primary 'Journal of the American Chemical Society' 1991 113 6277 6278 JACSAT
_publ_author_name
;
Hurlburt, P.K.;Anderson, O.P.;Strauss, S.H.
;
_cell_length_a                     10.001(2)
_cell_length_b                     16.180(4)
_cell_length_c                     12.235(3)
_cell_angle_alpha                  90.
_cell_angle_beta                   100.48(2)
_cell_angle_gamma                  90.
_cell_volume                       1946.79
_cell_formula_units_Z              4
_symmetry_space_group_name_H-M     'P 1 21/n 1'
_symmetry_Int_Tables_number        14
_refine_ls_R_factor_all            .04
loop_
_symmetry_equiv_pos_site_id
_symmetry_equiv_pos_as_xyz
  1	'-x+.5, y+.5, -z+.5'
  2	'-x, -y, -z'
  3	'x+.5, -y+.5, z+.5'
  4	'x, y, z'
loop_
_atom_type_symbol
_atom_type_oxidation_number
Ag1+	1
B3+	3
C2+	2
F1-	-1
O2-	-2
Te6+	6
loop_
_atom_site_label
_atom_site_type_symbol
_atom_site_symmetry_multiplicity
_atom_site_Wyckoff_symbol
_atom_site_fract_x
_atom_site_fract_y
_atom_site_fract_z
_atom_site_occupancy
_atom_site_attached_hydrogens
Ag1 Ag1+ 4 e 0.3507(1) 0.6738(1) 0.0493(1) 1. 0 
B1 B3+ 4 e 0.6420(11) 0.7381(6) 0.0508(9) 1. 0 
C1 C2+ 4 e 0.1596(13) 0.6204(7) 0.0509(11) 1. 0 
O1 O2- 4 e 0.5232(7) 0.7706(4) 0.0962(6) 1. 0 
O2 O2- 4 e 0.5705(6) 0.6652(4) -.0090(5) 1. 0 
O3 O2- 4 e 0.6844(7) 0.7965(4) -.0252(5) 1. 0 
O4 O2- 4 e 0.7538(7) 0.7166(4) 0.1373(6) 1. 0 
O5 O2- 4 e 0.0654(9) 0.5896(6) 0.056(1) 1. 0 
Te1 Te6+ 4 e 0.4921(1) 0.8681(1) 0.1693(1) 1. 0 
Te2 Te6+ 4 e 0.6037(1) 0.6047(1) 0.8698(1) 1. 0 
Te3 Te6+ 4 e 0.8385(1) 0.8535(1) -.0403(1) 1. 0 
Te4 Te6+ 4 e 0.7660(1) 0.6373(1) 0.2465(1) 1. 0 
F1 F1- 4 e 0.4893(9) 0.9285(4) 0.0468(6) 1. 0 
F2 F1- 4 e 0.6693(7) 0.8879(4) 0.2145(7) 1. 0 
F3 F1- 4 e 0.4939(11) 0.8129(4) 0.2989(7) 1. 0 
F4 F1- 4 e 0.3111(7) 0.8499(5) 0.1326(9) 1. 0 
F5 F1- 4 e 0.4544(7) 0.9612(4) 0.2423(5) 1. 0 
F6 F1- 4 e 0.5884(7) 0.6928(4) 0.7770(5) 1. 0 
F7 F1- 4 e 0.4223(6) 0.5836(4) 0.8345(5) 1. 0 
F8 F1- 4 e 0.6222(6) 0.5091(3) -.0488(5) 1. 0 
F9 F1- 4 e 0.7877(6) 0.6193(4) -.0947(5) 1. 0 
F10 F1- 4 e 0.6301(6) 0.5400(4) 0.7534(5) 1. 0 
F11 F1- 4 e 0.7409(7) 0.9471(4) -.0732(6) 1. 0 
F12 F1- 4 e 0.8071(7) 0.8267(4) 0.8123(5) 1. 0 
F13 F1- 4 e 0.9484(6) 0.7632(4) -.0101(5) 1. 0 
F14 F1- 4 e 0.8798(7) 0.8841(4) 0.1046(5) 1. 0 
F15 F1- 4 e 0.9883(6) 0.9110(4) -.0631(5) 1. 0 
F16 F1- 4 e 0.5813(7) 0.6202(4) 0.2217(5) 1. 0 
F17 F1- 4 e 0.7865(6) 0.5529(3) 0.1503(5) 1. 0 
F18 F1- 4 e 0.9494(7) 0.6498(4) 0.2780(6) 1. 0 
F19 F1- 4 e 0.7502(9) 0.7158(4) 0.3516(5) 1. 0 
F20 F1- 4 e 0.7797(8) 0.5602(4) 0.3568(5) 1. 0 

loop_
_atom_site_aniso_label
_atom_site_aniso_type_symbol
_atom_site_aniso_U_11
_atom_site_aniso_U_22
_atom_site_aniso_U_33
_atom_site_aniso_U_12
_atom_site_aniso_U_13
_atom_site_aniso_U_23
Ag1 Ag1+ 0.035(1) 0.038(1) 0.069(1) -.010(1) 0.018(1) -.006(1)
B1 B3+ 0.032(6) 0.017(5) 0.024(6) -.003(4) 0.008(5) -.003(4)
C1 C2+ 0.049(7) 0.042(7) 0.071(9) -.001(6) 0.018(7) 0.021(6)
O1 O2- 0.033(4) 0.021(3) 0.043(4) -.002(3) 0.015(3) -.006(3)
O2 O2- 0.027(3) 0.026(3) 0.031(4) -.006(3) 0.011(3) -.006(3)
O3 O2- 0.031(4) 0.025(3) 0.030(4) 0.004(3) 0.007(3) 0.008(3)
O4 O2- 0.027(4) 0.031(3) 0.036(4) 0.000(3) 0.003(3) 0.007(3)
O5 O2- 0.039(5) 0.075(7) 0.122(9) -.017(5) 0.007(5) 0.035(7)
Te1 Te6+ 0.033(1) 0.021(1) 0.032(1) 0.001(1) 0.012(1) 0.000(1)
Te2 Te6+ 0.030(1) 0.023(1) 0.026(1) -.002(1) 0.008(1) -.003(1)
Te3 Te6+ 0.034(1) 0.025(1) 0.025(1) -.003(1) 0.010(1) 0.001(1)
Te4 Te6+ 0.044(1) 0.025(1) 0.025(1) 0.000(1) 0.002(1) 0.003(1)
F1 F1- 0.114(7) 0.038(4) 0.045(4) 0.014(4) 0.016(4) 0.014(3)
F2 F1- 0.040(4) 0.060(4) 0.081(6) 0.005(3) -.002(4) -.037(4)
F3 F1- 0.173(10) 0.044(4) 0.060(5) 0.033(5) 0.071(6) 0.018(4)
F4 F1- 0.042(4) 0.061(5) 0.154(9) -.009(4) 0.032(5) -.062(5)
F5 F1- 0.053(4) 0.035(3) 0.052(4) 0.002(3) 0.021(3) -.012(3)
F6 F1- 0.062(4) 0.033(3) 0.035(3) -.004(3) 0.011(3) 0.004(3)
F7 F1- 0.032(3) 0.045(3) 0.037(3) -.004(3) 0.002(3) -.003(3)
F8 F1- 0.049(4) 0.027(3) 0.038(3) 0.004(3) -.001(3) 0.002(3)
F9 F1- 0.035(3) 0.044(3) 0.050(4) -.004(3) 0.017(3) -.014(3)
F10 F1- 0.056(4) 0.039(3) 0.036(3) -.008(3) 0.021(3) -.015(3)
F11 F1- 0.066(5) 0.034(3) 0.066(5) 0.000(3) 0.019(4) 0.020(3)
F12 F1- 0.063(4) 0.065(4) 0.026(3) -.021(4) 0.009(3) -.006(3)
F13 F1- 0.037(3) 0.035(3) 0.053(4) 0.010(3) 0.013(3) 0.002(3)
F14 F1- 0.061(4) 0.049(4) 0.030(3) -.014(3) 0.013(3) -.011(3)
F15 F1- 0.046(4) 0.047(4) 0.050(4) -.017(3) 0.015(3) 0.003(3)
F16 F1- 0.049(4) 0.044(4) 0.046(4) 0.006(3) 0.016(3) 0.012(3)
F17 F1- 0.052(4) 0.025(3) 0.042(4) 0.007(3) 0.005(3) 0.001(3)
F18 F1- 0.044(4) 0.043(4) 0.061(4) -.002(3) -.018(3) 0.009(3)
F19 F1- 0.111(6) 0.039(4) 0.033(4) 0.004(4) 0.020(4) -.004(3)
F20 F1- 0.080(5) 0.045(4) 0.029(3) 0.004(3) -.008(3) 0.015(3)
#End of data_71175-ICSD


