data_280031-ICSD
#?2014 by Fachinformationszentrum Karlsruhe, and the U.S. Secretary of 
#Commerce on behalf of the United States.  All rights reserved.
_database_code_ICSD                280031
_audit_creation_date               2000/07/15
_chemical_name_systematic
;
Dirubidium Catena-poly(mue-chloro-dichloroargentate)
;
_chemical_formula_structural       'Rb2 (Ag Cl3)'
_chemical_formula_sum              'Ag1 Cl3 Rb2'
_publ_section_title
;
Dirubidium catena-poly(dichloroargentate(I)-mue-chloro)
;
loop_
_citation_id
_citation_journal_abbrev
_citation_year
_citation_journal_volume
_citation_page_first
_citation_page_last
_citation_journal_id_ASTM
primary 'Acta Crystallographica, Section C: Crystal Structure Communications'
 1999 55 1208 1210 ACSCEE
_publ_author_name                  'Hasselgren, C.;Jagner, S.'
_cell_length_a                     9.205(3)
_cell_length_b                     4.4822(10)
_cell_length_c                     17.8738(13)
_cell_angle_alpha                  90.
_cell_angle_beta                   90.
_cell_angle_gamma                  90.
_cell_volume                       737.45
_cell_formula_units_Z              4
_symmetry_space_group_name_H-M     'P n m a'
_symmetry_Int_Tables_number        62
_refine_ls_R_factor_all            .035
loop_
_symmetry_equiv_pos_site_id
_symmetry_equiv_pos_as_xyz
  1	'x+.5, y, -z+.5'
  2	'x, -y+.5, z'
  3	'-x+.5, y+.5, z+.5'
  4	'-x, -y, -z'
  5	'-x+.5, -y, z+.5'
  6	'-x, y+.5, -z'
  7	'x+.5, -y+.5, -z+.5'
  8	'x, y, z'
loop_
_atom_type_symbol
_atom_type_oxidation_number
Ag1+	1
Cl1-	-1
Rb1+	1
loop_
_atom_site_label
_atom_site_type_symbol
_atom_site_symmetry_multiplicity
_atom_site_Wyckoff_symbol
_atom_site_fract_x
_atom_site_fract_y
_atom_site_fract_z
_atom_site_occupancy
_atom_site_attached_hydrogens
Ag1 Ag1+ 4 c 0.37873(15) 0.25 0.63107(8) 1. 0 
Rb1 Rb1+ 4 c 0.07860(18) -.25 0.71280(9) 1. 0 
Rb2 Rb1+ 4 c 0.76095(19) 0.25 0.54384(9) 1. 0 
Cl1 Cl1- 4 c 0.1216(5) 0.25 0.5727(2) 1. 0 
Cl2 Cl1- 4 c 0.3153(5) 0.25 0.7729(2) 1. 0 
Cl3 Cl1- 4 c 0.5066(5) -.25 0.5974(2) 1. 0 

loop_
_atom_site_aniso_label
_atom_site_aniso_type_symbol
_atom_site_aniso_U_11
_atom_site_aniso_U_22
_atom_site_aniso_U_33
_atom_site_aniso_U_12
_atom_site_aniso_U_13
_atom_site_aniso_U_23
Ag1 Ag1+ 0.0286(9) 0.0335(8) 0.0361(8) 0 0.0024(7) 0
Rb1 Rb1+ 0.0257(10) 0.0203(8) 0.0314(9) 0 0.0007(8) 0
Rb2 Rb1+ 0.027(1) 0.0275(9) 0.0246(8) 0 0.0033(8) 0
Cl1 Cl1- 0.023(3) 0.029(2) 0.028(2) 0 0.000(2) 0
Cl2 Cl1- 0.026(2) 0.030(2) 0.022(2) 0 -.001(2) 0
Cl3 Cl1- 0.029(2) 0.020(2) 0.031(2) 0 0.0016(19) 0
#End of data_280031-ICSD


