data_411405-ICSD
#?2014 by Fachinformationszentrum Karlsruhe, and the U.S. Secretary of 
#Commerce on behalf of the United States.  All rights reserved.
_database_code_ICSD                411405
_audit_creation_date               2002/10/01
_chemical_name_systematic
;
Barium Disilver Tetraselenogermanate
;
_chemical_formula_structural       'Ba Ag2 (Ge Se4)'
_chemical_formula_sum              'Ag2 Ba1 Ge1 Se4'
_publ_section_title
;
Neue azentrische Selenogermanate. I. Kristallstrukturen und chemische 
Bindung von A M2 Ge Se4 (A=Sr, Ba; M=Cu, Ag)
;
loop_
_citation_id
_citation_journal_abbrev
_citation_year
_citation_journal_volume
_citation_page_first
_citation_page_last
_citation_journal_id_ASTM
primary 'Zeitschrift fuer Anorganische und Allgemeine Chemie (1950) (DE)'
 2001 627 312 320 ZAACAB
_publ_author_name                  'Tampier, M.;Johrendt, D.'
_cell_length_a                     7.058(1)
_cell_length_b                     7.263(1)
_cell_length_c                     8.253(2)
_cell_angle_alpha                  90.
_cell_angle_beta                   90.
_cell_angle_gamma                  90.
_cell_volume                       423.07
_cell_formula_units_Z              2
_symmetry_space_group_name_H-M     'I 2 2 2'
_symmetry_Int_Tables_number        23
_refine_ls_R_factor_all            .0522
loop_
_symmetry_equiv_pos_site_id
_symmetry_equiv_pos_as_xyz
  1	'-x, y, -z'
  2	'x, -y, -z'
  3	'-x, -y, z'
  4	'x, y, z'
  5	'-x+.5, y+.5, -z+.5'
  6	'x+.5, -y+.5, -z+.5'
  7	'-x+.5, -y+.5, z+.5'
  8	'x+.5, y+.5, z+.5'
loop_
_atom_type_symbol
_atom_type_oxidation_number
Ag1+	1
Ba2+	2
Ge4+	4
Se2-	-2
loop_
_atom_site_label
_atom_site_type_symbol
_atom_site_symmetry_multiplicity
_atom_site_Wyckoff_symbol
_atom_site_fract_x
_atom_site_fract_y
_atom_site_fract_z
_atom_site_occupancy
_atom_site_attached_hydrogens
Ba1 Ba2+ 2 a 0 0 0 1. 0 
Ag1 Ag1+ 4 j 0 0.5 0.2092(3) 1. 0 
Ge1 Ge4+ 2 c 0 0 0.5 1. 0 
Se1 Se2- 8 k 0.1930(2) 0.1910(2) 0.66025(17) 1. 0 

loop_
_atom_site_aniso_label
_atom_site_aniso_type_symbol
_atom_site_aniso_U_11
_atom_site_aniso_U_22
_atom_site_aniso_U_33
_atom_site_aniso_U_12
_atom_site_aniso_U_13
_atom_site_aniso_U_23
Ba1 Ba2+ 0.0094(8) 0.0137(7) 0.0106(7) 0 0 0
Ag1 Ag1+ 0.0116(9) 0.0352(10) 0.0720(16) 0.0081(10) 0 0
Ge1 Ge4+ 0.0024(10) 0.0096(11) 0.0101(10) 0 0 0
Se1 Se2- 0.0044(5) 0.0128(6) 0.0147(6) -.0024(6) -.0006(5) -.0015(5)
#End of data_411405-ICSD


