data_98454-ICSD
#?2014 by Fachinformationszentrum Karlsruhe, and the U.S. Secretary of 
#Commerce on behalf of the United States.  All rights reserved.
_database_code_ICSD                98454
_audit_creation_date               2005/04/01
_audit_update_record               2013/08/01
_chemical_name_systematic
;
Silver Sulfide - Alpha', T-type
;
_chemical_formula_structural       'Ag2 S'
_chemical_formula_sum              'Ag2 S1'
_publ_section_title
;
Electronic structure of Ag2 S, band calculation and photoelectron 
spectroscopy
;
loop_
_citation_id
_citation_journal_abbrev
_citation_year
_citation_journal_volume
_citation_page_first
_citation_page_last
_citation_journal_id_ASTM
primary 'Solid State Ionics' 2003 158 167 175 SSIOD3
_publ_author_name
;
Kashida, S.;Watanabe, N.;Hasegawa, T.;Iida, H.;Mori, M.;Savrasov, S.
;
_cell_length_a                     4.20
_cell_length_b                     6.86
_cell_length_c                     9.70
_cell_angle_alpha                  90
_cell_angle_beta                   125.26
_cell_angle_gamma                  90
_cell_volume                       228.2
_cell_formula_units_Z              2
_symmetry_space_group_name_H-M     'P 1 21 1'
_symmetry_Int_Tables_number        4
loop_
_symmetry_equiv_pos_site_id
_symmetry_equiv_pos_as_xyz
  1	'-x, y+.5, -z'
  2	'x, y, z'
loop_
_atom_type_symbol
_atom_type_oxidation_number
Ag1+	1
S2-	-2
loop_
_atom_site_label
_atom_site_type_symbol
_atom_site_symmetry_multiplicity
_atom_site_Wyckoff_symbol
_atom_site_fract_x
_atom_site_fract_y
_atom_site_fract_z
_atom_site_occupancy
_atom_site_attached_hydrogens
Ag1 Ag1+ 2 a 0.250 0.125 0.625 1. 0 
Ag2 Ag1+ 2 a 0.750 0.375 0.875 1. 0 
S1 S2- 2 a 0.5 0.250 0.125 1. 0 

#End of data_98454-ICSD


