data_249702-ICSD
#?2014 by Fachinformationszentrum Karlsruhe, and the U.S. Secretary of 
#Commerce on behalf of the United States.  All rights reserved.
_database_code_ICSD                249702
_audit_creation_date               2009/02/01
_chemical_name_systematic
;
Rubidium Silver Uranium(IV) Trisulfide
;
_chemical_formula_structural       'Rb Ag U S3'
_chemical_formula_sum              'Ag1 Rb1 S3 U1'
_publ_section_title
;
Syntheses, structures, physical properties, and electronic properties 
of some AMUQ3 compounds (A = alkali metal, M = Cu or Ag, Q = S or Se)
;
loop_
_citation_id
_citation_journal_abbrev
_citation_year
_citation_journal_volume
_citation_journal_issue
_citation_page_first
_citation_page_last
_citation_journal_id_ASTM
primary 'Inorganic Chemistry' 2008 47 15 6873 6879 INOCAJ
_publ_author_name
;
Yao Ji Yong;Wells, D.M.;Chan, G.-H.;Zeng Huiyi;Ellis, D.E.;van Duyne, 
R.P.;Ibers, J.A.
;
_cell_length_a                     4.0819(7)
_cell_length_b                     14.473(2)
_cell_length_c                     10.4646(17)
_cell_angle_alpha                  90.00
_cell_angle_beta                   90.00
_cell_angle_gamma                  90.00
_cell_volume                       618.22
_cell_formula_units_Z              4
_symmetry_space_group_name_H-M     'C m c m'
_symmetry_Int_Tables_number        63
_refine_ls_R_factor_all            .0408
loop_
_symmetry_equiv_pos_site_id
_symmetry_equiv_pos_as_xyz
  1	'-x, y, -z+.5'
  2	'-x, -y, z+.5'
  3	'-x, y, z'
  4	'-x, -y, -z'
  5	'x, -y, z+.5'
  6	'x, y, -z+.5'
  7	'x, -y, -z'
  8	'x, y, z'
  9	'-x+.5, y+.5, -z+.5'
 10	'-x+.5, -y+.5, z+.5'
 11	'-x+.5, y+.5, z'
 12	'-x+.5, -y+.5, -z'
 13	'x+.5, -y+.5, z+.5'
 14	'x+.5, y+.5, -z+.5'
 15	'x+.5, -y+.5, -z'
 16	'x+.5, y+.5, z'
loop_
_atom_type_symbol
_atom_type_oxidation_number
Ag1+	1
Rb1+	1
S2-	-2
U4+	4
loop_
_atom_site_label
_atom_site_type_symbol
_atom_site_symmetry_multiplicity
_atom_site_Wyckoff_symbol
_atom_site_fract_x
_atom_site_fract_y
_atom_site_fract_z
_atom_site_occupancy
_atom_site_attached_hydrogens
_atom_site_U_iso_or_equiv
Ag1 Ag1+ 4 c 0.0000 0.45505(10) 0.7500 1 0 0.0109(4) 
U1 U4+ 4 a -0.5000 0.5000 0.5000 1 0 0.0077(3) 
Rb1 Rb1+ 4 c 0.0000 0.74088(12) 0.7500 1 0 0.0112(4) 
S1 S2- 4 c -0.5000 0.5605(3) 0.7500 1 0 0.0089(9) 
S2 S2- 8 f 0.0000 0.3762(2) 0.5391(3) 1 0 0.0114(7) 

loop_
_atom_site_aniso_label
_atom_site_aniso_type_symbol
_atom_site_aniso_U_11
_atom_site_aniso_U_22
_atom_site_aniso_U_33
_atom_site_aniso_U_12
_atom_site_aniso_U_13
_atom_site_aniso_U_23
Ag1 Ag1+ 0.0140(7) 0.0137(8) 0.0049(7) 0.000 0.000 0.000
U1 U4+ 0.0084(5) 0.0121(5) 0.0027(5) 0.000 0.000 0.0000(2)
Rb1 Rb1+ 0.0111(9) 0.0113(9) 0.0113(9) 0.000 0.000 0.000
S1 S2- 0.009(2) 0.012(2) 0.0058(19) 0.000 0.000 0.000
S2 S2- 0.0155(16) 0.0114(16) 0.0073(16) 0.000 0.000 -0.0010(13)
#End of data_249702-ICSD


