data_28230-ICSD
#?2014 by Fachinformationszentrum Karlsruhe, and the U.S. Secretary of 
#Commerce on behalf of the United States.  All rights reserved.
_database_code_ICSD                28230
_audit_creation_date               1980/01/01
_audit_update_record               1985/01/15
_chemical_name_systematic          'Silver Iodide'
_chemical_formula_structural       'Ag I'
_chemical_formula_sum              'Ag1 I1'
_publ_section_title
;
Crystal Structure of Ag I at 3 kbar
;
loop_
_citation_id
_citation_journal_abbrev
_citation_year
_citation_journal_volume
_citation_page_first
_citation_page_last
_citation_journal_id_ASTM
primary 'Journal of Chemical Physics' 1968 48 2446 2450 JCPSA6
_publ_author_name                  'Moore, M.J.;Kasper, J.S.'
_cell_length_a                     4.58
_cell_length_b                     4.58
_cell_length_c                     6.
_cell_angle_alpha                  90.
_cell_angle_beta                   90.
_cell_angle_gamma                  90.
_cell_volume                       125.86
_cell_formula_units_Z              2
_symmetry_space_group_name_H-M     'P 4/n S'
_symmetry_Int_Tables_number        85
loop_
_symmetry_equiv_pos_site_id
_symmetry_equiv_pos_as_xyz
  1	'y+.5, -x+.5, z'
  2	'-y+.5, x+.5, z'
  3	'y, -x, -z'
  4	'-y, x, -z'
  5	'-x+.5, -y+.5, -z'
  6	'x+.5, y+.5, -z'
  7	'-x, -y, z'
  8	'x, y, z'
loop_
_atom_type_symbol
_atom_type_oxidation_number
Ag1+	1
I1-	-1
loop_
_atom_site_label
_atom_site_type_symbol
_atom_site_symmetry_multiplicity
_atom_site_Wyckoff_symbol
_atom_site_fract_x
_atom_site_fract_y
_atom_site_fract_z
_atom_site_occupancy
_atom_site_attached_hydrogens
_atom_site_B_iso_or_equiv
Ag1 Ag1+ 2 a 0 0 0 1. 0 1. 
I1 I1- 2 c 0.5 0 0.30(2) 1. 0 1. 

#End of data_28230-ICSD


