data_100520-ICSD
#?2014 by Fachinformationszentrum Karlsruhe, and the U.S. Secretary of 
#Commerce on behalf of the United States.  All rights reserved.
_database_code_ICSD                100520
_audit_creation_date               1980/01/01
_chemical_name_systematic          'Silver Cobalt Phosphate'
_chemical_formula_structural       'Ag Co P O4'
_chemical_formula_sum              'Ag1 Co1 O4 P1'
_publ_section_title
;
Structure cristalline du monophosphate Ag Co P O4100521-Syntheses of 
Hollandite type Rb2 Cr8 O16, K2 Cr2 V6 O16 and K2 V8 O16
;
loop_
_citation_id
_citation_journal_abbrev
_citation_year
_citation_journal_volume
_citation_page_first
_citation_page_last
_citation_journal_id_ASTM
primary 'Materials Research Bulletin' 1978 13 983 988 MRBUAC
_publ_author_name
;
Tordjman, I.;Guitel, J.C.;Durif, A.;Averbuch, M.T.;Masse, R.
;
_cell_length_a                     9.516(2)
_cell_length_b                     5.547(1)
_cell_length_c                     6.572(2)
_cell_angle_alpha                  102.33(17)
_cell_angle_beta                   106.27(17)
_cell_angle_gamma                  80.13(17)
_cell_volume                       323.02
_cell_formula_units_Z              4
_symmetry_space_group_name_H-M     'P -1'
_symmetry_Int_Tables_number        2
_refine_ls_R_factor_all            .038
loop_
_symmetry_equiv_pos_site_id
_symmetry_equiv_pos_as_xyz
  1	'-x, -y, -z'
  2	'x, y, z'
loop_
_atom_type_symbol
_atom_type_oxidation_number
Ag1+	1
Co2+	2
O2-	-2
P5+	5
loop_
_atom_site_label
_atom_site_type_symbol
_atom_site_symmetry_multiplicity
_atom_site_Wyckoff_symbol
_atom_site_fract_x
_atom_site_fract_y
_atom_site_fract_z
_atom_site_occupancy
_atom_site_attached_hydrogens
Ag1 Ag1+ 2 i 0.11878(4) 0.33457(7) 0.37342(5) 1. 0 
Ag2 Ag1+ 2 i 0.24864(4) 0.84128(7) 0.47953(5) 1. 0 
Co1 Co2+ 2 i 0.42991(5) 0.21377(8) 0.16703(7) 1. 0 
Co2 Co2+ 2 i 0.21209(5) 0.67798(9) 0.93963(7) 1. 0 
P1 P5+ 2 i 0.4643(1) 0.3216(1) 0.7139(1) 1. 0 
P2 P5+ 2 i 0.0931(1) 0.1809(1) 0.8534(1) 1. 0 
O1 O2- 2 i 0.4426(3) 0.1311(4) 0.8388(4) 1. 0 
O2 O2- 2 i 0.6305(3) 0.3602(5) 0.7769(4) 1. 0 
O3 O2- 2 i 0.4076(3) 0.2364(5) 0.4730(4) 1. 0 
O4 O2- 2 i 0.3879(3) 0.5838(4) 0.7845(4) 1. 0 
O5 O2- 2 i 0.2084(3) 0.1877(6) 0.0713(4) 1. 0 
O6 O2- 2 i -.0630(3) 0.2394(5) 0.8808(4) 1. 0 
O7 O2- 2 i 0.1144(3) -.0848(5) 0.7254(4) 1. 0 
O8 O2- 2 i 0.1211(3) 0.3741(4) 0.7339(4) 1. 0 

#End of data_100520-ICSD


