data_79735-ICSD
#?2014 by Fachinformationszentrum Karlsruhe, and the U.S. Secretary of 
#Commerce on behalf of the United States.  All rights reserved.
_database_code_ICSD                79735
_audit_creation_date               1996/10/14
_chemical_name_systematic
;
Calcium Divanadium(III) Oxide Diphosphate
;
_chemical_formula_structural       'Ca V2 O (P O4)2'
_chemical_formula_sum              'Ca1 O9 P2 V2'
_publ_section_title
;
Ca V2 O (P O4)2, isotypic with the Cd phase
;
loop_
_citation_id
_citation_journal_abbrev
_citation_year
_citation_journal_volume
_citation_page_first
_citation_page_last
_citation_journal_id_ASTM
primary 'Acta Crystallographica, Section C: Crystal Structure Communications'
 1995 51 796 798 ACSCEE
_publ_author_name
;
Boudin, S.;Grandin, A.;Leclaire, A.;Borel, M.M.;Raveau, B.
;
_cell_length_a                     14.192(1)
_cell_length_b                     6.424(1)
_cell_length_c                     7.317(1)
_cell_angle_alpha                  90.
_cell_angle_beta                   90.
_cell_angle_gamma                  90.
_cell_volume                       667.09
_cell_formula_units_Z              4
_symmetry_space_group_name_H-M     'P n m a'
_symmetry_Int_Tables_number        62
_refine_ls_R_factor_all            .03
loop_
_symmetry_equiv_pos_site_id
_symmetry_equiv_pos_as_xyz
  1	'x+.5, y, -z+.5'
  2	'x, -y+.5, z'
  3	'-x+.5, y+.5, z+.5'
  4	'-x, -y, -z'
  5	'-x+.5, -y, z+.5'
  6	'-x, y+.5, -z'
  7	'x+.5, -y+.5, -z+.5'
  8	'x, y, z'
loop_
_atom_type_symbol
_atom_type_oxidation_number
Ca2+	2
O2-	-2
P5+	5
V3+	3
loop_
_atom_site_label
_atom_site_type_symbol
_atom_site_symmetry_multiplicity
_atom_site_Wyckoff_symbol
_atom_site_fract_x
_atom_site_fract_y
_atom_site_fract_z
_atom_site_occupancy
_atom_site_attached_hydrogens
Ca1 Ca2+ 4 c 0.21979(7) 0.25 0.1149(2) 1. 0 
V1 V3+ 4 c 0.37954(5) 0.75 0.1489(1) 1. 0 
V2 V3+ 4 a 0 0.5 0 1. 0 
P1 P5+ 4 c 0.18974(8) 0.75 0.1134(2) 1. 0 
P2 P5+ 4 c 0.43270(8) 0.25 0.1366(2) 1. 0 
O1 O2- 8 d 0.3662(2) 0.4378(4) 0.1278(4) 1. 0 
O2 O2- 4 c 0.2632(3) 0.75 -.0424(6) 1. 0 
O3 O2- 4 c 0.4929(3) 0.75 0.0081(7) 1. 0 
O4 O2- 4 c 0.2514(3) 0.75 0.2875(5) 1. 0 
O5 O2- 4 c 0.4442(2) 0.75 0.3759(5) 1. 0 
O6 O2- 4 c -.0186(3) 0.25 0.1750(5) 1. 0 
O7 O2- 8 d 0.1283(2) 0.5533(4) 0.1084(4) 1. 0 

#End of data_79735-ICSD


