data_31679-ICSD
#?2014 by Fachinformationszentrum Karlsruhe, and the U.S. Secretary of 
#Commerce on behalf of the United States.  All rights reserved.
_database_code_ICSD                31679
_audit_creation_date               1980/01/01
_chemical_name_systematic          'Sodium Chromium Selenide'
_chemical_formula_structural       'Na Cr Se2'
_chemical_formula_sum              'Cr1 Na1 Se2'
_publ_section_title
;
The Crystal Structure of Sodium Selenochromite, NaCrSe2 and 
Preliminary Investigations on Related Compounds
;
loop_
_citation_id
_citation_journal_abbrev
_citation_year
_citation_journal_volume
_citation_page_first
_citation_page_last
_citation_journal_id_ASTM
primary 'Acta Crystallographica (1,1948-23,1967)' 1948 1 196 200 ACCRA9
_publ_author_name
;
Ruedorff, W.;Ruston, W.R.;Scherhaufer, A.
;
_cell_length_a                     3.708(6)
_cell_length_b                     3.708(6)
_cell_length_c                     20.290(50)
_cell_angle_alpha                  90.
_cell_angle_beta                   90.
_cell_angle_gamma                  120.
_cell_volume                       241.6
_cell_formula_units_Z              3
_symmetry_space_group_name_H-M     'R -3 m HR'
_symmetry_Int_Tables_number        166
loop_
_symmetry_equiv_pos_site_id
_symmetry_equiv_pos_as_xyz
  1	'x-y, -y, -z'
  2	'-x, -x+y, -z'
  3	'y, x, -z'
  4	'x-y, x, -z'
  5	'y, -x+y, -z'
  6	'-x, -y, -z'
  7	'-x+y, y, z'
  8	'x, x-y, z'
  9	'-y, -x, z'
 10	'-x+y, -x, z'
 11	'-y, x-y, z'
 12	'x, y, z'
 13	'x-y+.3333, -y+.6666, -z+.3333'
 14	'x-y+.6666, -y+.3333, -z+.6666'
 15	'-x+.3333, -x+y+.6666, -z+.3333'
 16	'-x+.6666, -x+y+.3333, -z+.6666'
 17	'y+.3333, x+.6666, -z+.3333'
 18	'y+.6666, x+.3333, -z+.6666'
 19	'x-y+.3333, x+.6666, -z+.3333'
 20	'x-y+.6666, x+.3333, -z+.6666'
 21	'y+.3333, -x+y+.6666, -z+.3333'
 22	'y+.6666, -x+y+.3333, -z+.6666'
 23	'-x+.3333, -y+.6666, -z+.3333'
 24	'-x+.6666, -y+.3333, -z+.6666'
 25	'-x+y+.3333, y+.6666, z+.3333'
 26	'-x+y+.6666, y+.3333, z+.6666'
 27	'x+.3333, x-y+.6666, z+.3333'
 28	'x+.6666, x-y+.3333, z+.6666'
 29	'-y+.3333, -x+.6666, z+.3333'
 30	'-y+.6666, -x+.3333, z+.6666'
 31	'-x+y+.3333, -x+.6666, z+.3333'
 32	'-x+y+.6666, -x+.3333, z+.6666'
 33	'-y+.3333, x-y+.6666, z+.3333'
 34	'-y+.6666, x-y+.3333, z+.6666'
 35	'x+.3333, y+.6666, z+.3333'
 36	'x+.6666, y+.3333, z+.6666'
loop_
_atom_type_symbol
_atom_type_oxidation_number
Cr3+	3
Na1+	1
Se2-	-2
loop_
_atom_site_label
_atom_site_type_symbol
_atom_site_symmetry_multiplicity
_atom_site_Wyckoff_symbol
_atom_site_fract_x
_atom_site_fract_y
_atom_site_fract_z
_atom_site_occupancy
_atom_site_attached_hydrogens
Cr1 Cr3+ 3 a 0 0 0 1. 0 
Na1 Na1+ 3 b 0 0 0.5 1. 0 
Se1 Se2- 6 c 0 0 0.2647(8) 1. 0 

#End of data_31679-ICSD


