data_424817-ICSD
#?2014 by Fachinformationszentrum Karlsruhe, and the U.S. Secretary of 
#Commerce on behalf of the United States.  All rights reserved.
_database_code_ICSD                424817
_audit_creation_date               2013/08/01
_chemical_name_systematic          'Calcium Copper Germanate Hydrate'
_chemical_formula_structural       'Ca Cu (Ge O4) (H2 O)'
_chemical_formula_sum              'H2 Ca1 Cu1 Ge1 O5'
_publ_section_title
;
Novel alkaline earth copper germanates with ferro and 
antiferromagnetic S = 1/2 chains
;
loop_
_citation_id
_citation_journal_abbrev
_citation_year
_citation_journal_volume
_citation_page_first
_citation_page_last
_citation_journal_id_ASTM
primary 'Journal of Solid State Chemistry' 2013 198 39 44 JSSCBI
_publ_author_name
;
Brandao, Paula;Reis, Mario S.;Gai, Zheng;dos Santos, Antonio M.
;
_cell_length_a                     5.1320(2)
_cell_length_b                     16.1637(5)
_cell_length_c                     5.4818(2)
_cell_angle_alpha                  90.00
_cell_angle_beta                   102.609(2)
_cell_angle_gamma                  90.00
_cell_volume                       443.76
_cell_formula_units_Z              4
_symmetry_space_group_name_H-M     'P 1 21/c 1'
_symmetry_Int_Tables_number        14
_refine_ls_R_factor_all            .0245
loop_
_symmetry_equiv_pos_site_id
_symmetry_equiv_pos_as_xyz
  1	'x, -y+.5, z+.5'
  2	'-x, -y, -z'
  3	'-x, y+.5, -z+.5'
  4	'x, y, z'
loop_
_atom_type_symbol
_atom_type_oxidation_number
Ca2+	2
Cu2+	2
Ge4+	4
H1+	1
O2-	-2
loop_
_atom_site_label
_atom_site_type_symbol
_atom_site_symmetry_multiplicity
_atom_site_Wyckoff_symbol
_atom_site_fract_x
_atom_site_fract_y
_atom_site_fract_z
_atom_site_occupancy
_atom_site_attached_hydrogens
_atom_site_U_iso_or_equiv
Ge1 Ge4+ 4 e 0.51648(6) 0.388473(18) 0.53277(5) 1 0 0.00325(9) 
Cu1 Cu2+ 2 a 1.0000 0.5000 0.5000 1 0 0.00407(11) 
Cu2 Cu2+ 2 d 0.5000 0.5000 1.0000 1 0 0.00396(11) 
Ca1 Ca2+ 4 e 0.85159(12) 0.32251(4) 0.15738(10) 1 0 0.00418(12) 
O1 O2- 4 e 0.6011(4) 0.28886(12) 0.4573(4) 1 0 0.0055(4) 
O2 O2- 4 e 0.6602(4) 0.45015(12) 0.3266(3) 1 0 0.0046(4) 
O3 O2- 4 e 0.1666(4) 0.39522(12) 0.4682(4) 1 0 0.0061(4) 
O4 O2- 4 e 0.6614(4) 0.41397(13) 0.8428(3) 1 0 0.0058(4) 
O5 O2- 4 e 1.1405(5) 0.29131(14) -0.1270(4) 1 0 0.0071(4) 
H1 H1+ 4 e 1.287(8) 0.267(2) -0.085(6) 1 0 0.009 
H2 H1+ 4 e 1.141(7) 0.331(2) -0.224(6) 1 0 0.009 

loop_
_atom_site_aniso_label
_atom_site_aniso_type_symbol
_atom_site_aniso_U_11
_atom_site_aniso_U_22
_atom_site_aniso_U_33
_atom_site_aniso_U_12
_atom_site_aniso_U_13
_atom_site_aniso_U_23
Ge1 Ge4+ 0.00296(15) 0.00374(15) 0.00301(14) 0.00025(12) 0.00059(11) 
-0.00018(11)
Cu1 Cu2+ 0.0026(2) 0.0039(2) 0.0055(2) 0.00033(19) 0.00020(18) -0.00092(18)
Cu2 Cu2+ 0.0048(2) 0.0044(2) 0.0025(2) 0.0011(2) 0.00038(18) -0.00011(17)
Ca1 Ca2+ 0.0040(3) 0.0043(3) 0.0043(3) -0.0000(2) 0.0010(2) 0.0001(2)
O1 O2- 0.0053(10) 0.0036(9) 0.0078(9) 0.0009(8) 0.0020(8) -0.0005(8)
O2 O2- 0.0040(10) 0.0056(9) 0.0039(9) -0.0008(8) 0.0003(8) 0.0014(7)
O3 O2- 0.0047(10) 0.0037(10) 0.0099(10) 0.0011(8) 0.0018(8) -0.0001(8)
O4 O2- 0.0068(10) 0.0063(9) 0.0039(9) 0.0022(8) 0.0002(8) -0.0019(8)
O5 O2- 0.0071(11) 0.0057(10) 0.0088(10) 0.0022(9) 0.0022(8) 0.0030(8)
#End of data_424817-ICSD


