data_66121-ICSD
#?2014 by Fachinformationszentrum Karlsruhe, and the U.S. Secretary of 
#Commerce on behalf of the United States.  All rights reserved.
_database_code_ICSD                66121
_audit_creation_date               1992/01/20
_audit_update_record               2012/08/01
_chemical_name_systematic          'Potassium 16-fluorotriiodate'
_chemical_formula_structural       'K (I3 F16)'
_chemical_formula_sum              'F16 I3 K1'
_publ_section_title
;
Die Struktur von Br F6(-) und verwandten Verbindungen
;
loop_
_citation_id
_citation_journal_abbrev
_citation_year
_citation_journal_volume
_citation_page_first
_citation_page_last
_citation_journal_id_ASTM
primary 'Angewandte Chemie (German Edition)' 1989 101 1528 1529 ANCEAD
_publ_author_name
;
Mahjoub, A.R.;Hoser, A.;Fuchs, J.;Seppelt, K.
;
_cell_length_a                     13.535(5)
_cell_length_b                     13.638(2)
_cell_length_c                     13.421(4)
_cell_angle_alpha                  90.
_cell_angle_beta                   90.49(3)
_cell_angle_gamma                  90.
_cell_volume                       2477.3
_cell_formula_units_Z              8
_symmetry_space_group_name_H-M     'P 1 21/a 1'
_symmetry_Int_Tables_number        14
_refine_ls_R_factor_all            .06
loop_
_symmetry_equiv_pos_site_id
_symmetry_equiv_pos_as_xyz
  1	'x+.5, -y+.5, z'
  2	'-x, -y, -z'
  3	'-x+.5, y+.5, -z'
  4	'x, y, z'
loop_
_atom_type_symbol
_atom_type_oxidation_number
F1-	-1
I5+	5
K1+	1
loop_
_atom_site_label
_atom_site_type_symbol
_atom_site_symmetry_multiplicity
_atom_site_Wyckoff_symbol
_atom_site_fract_x
_atom_site_fract_y
_atom_site_fract_z
_atom_site_occupancy
_atom_site_attached_hydrogens
I1 I5+ 4 e 0.5423(1) 0.2934(1) 0.4865(1) 1. 0 
I2 I5+ 4 e 0.7150(1) 0.0416(1) 0.5318(1) 1. 0 
I3 I5+ 4 e 0.7758(1) 0.2318(1) 0.2800(1) 1. 0 
I4 I5+ 4 e 0.7262(1) 0.7903(1) 0.2158(1) 1. 0 
I5 I5+ 4 e 0.5209(1) 0.7132(1) -.0164(1) 1. 0 
I6 I5+ 4 e 0.7810(1) 0.5407(1) 0.0293(1) 1. 0 
K1 K1+ 4 e 0.9816(2) 0.5410(3) 0.7496(3) 1. 0 
K2 K1+ 4 e 0.9790(3) 0.0139(3) 0.7529(3) 1. 0 
F1 F1- 4 e 0.5368(8) 0.3765(9) 0.5986(9) 1. 0 
F2 F1- 4 e 0.5455(8) 0.1868(9) 0.5737(8) 1. 0 
F3 F1- 4 e 0.5003(9) 0.2067(7) 0.3852(8) 1. 0 
F4 F1- 4 e 0.4894(8) 0.3999(8) 0.4046(9) 1. 0 
F5 F1- 4 e 0.4078(7) 0.2885(8) 0.5091(9) 1. 0 
F6 F1- 4 e 0.6058(8) 0.0173(8) 0.4463(9) 1. 0 
F7 F1- 4 e 0.8017(7) 0.0279(8) 0.4213(9) 1. 0 
F8 F1- 4 e 0.8328(9) 0.0178(9) 0.6140(11) 1. 0 
F9 F1- 4 e 0.6310(8) 0.0084(8) 0.6389(9) 1. 0 
F10 F1- 4 e 0.7178(8) -.0921(7) 0.5272(9) 1. 0 
F11 F1- 4 e 0.6947(8) 0.1223(8) 0.2626(8) 1. 0 
F12 F1- 4 e 0.6655(7) 0.3133(7) 0.2834(8) 1. 0 
F13 F1- 4 e 0.8478(7) 0.3464(7) 0.2474(8) 1. 0 
F14 F1- 4 e 0.8834(7) 0.1529(7) 0.2291(8) 1. 0 
F15 F1- 4 e 0.7469(9) 0.2388(8) 0.1483(8) 1. 0 
F16 F1- 4 e 0.6352(8) 0.6946(8) 0.2541(8) 1. 0 
F17 F1- 4 e 0.8232(8) 0.6919(9) 0.2075(8) 1. 0 
F18 F1- 4 e 0.8323(9) 0.8851(8) 0.2231(9) 1. 0 
F19 F1- 4 e 0.6395(8) 0.8889(8) 0.2677(8) 1. 0 
F20 F1- 4 e 0.7604(8) 0.7793(8) 0.3465(8) 1. 0 
F21 F1- 4 e 0.4958(7) 0.8064(8) -.1172(9) 1. 0 
F22 F1- 4 e 0.5351(7) 0.8159(7) 0.0758(8) 1. 0 
F23 F1- 4 e 0.5012(7) 0.6255(8) 0.0870(8) 1. 0 
F24 F1- 4 e 0.4595(7) 0.6165(9) -.0975(8) 1. 0 
F25 F1- 4 e 0.3904(5) 0.7362(5) 0.0112(6) 1. 0 
F26 F1- 4 e 0.6603(7) 0.5311(8) -.0462(8) 1. 0 
F27 F1- 4 e 0.7086(7) 0.5116(8) 0.1425(8) 1. 0 
F28 F1- 4 e 0.9008(7) 0.5035(8) 0.0997(9) 1. 0 
F29 F1- 4 e 0.8525(9) 0.5187(8) -.0895(9) 1. 0 
F30 F1- 4 e 0.7725(7) 0.4058(7) 0.0184(8) 1. 0 
F31 F1- 4 e 0.6949(7) 0.1995(7) 0.4417(8) 1. 0 
F32 F1- 4 e 0.6880(7) 0.6969(7) 0.0598(8) 1. 0 

loop_
_atom_site_aniso_label
_atom_site_aniso_type_symbol
_atom_site_aniso_U_11
_atom_site_aniso_U_22
_atom_site_aniso_U_33
_atom_site_aniso_U_12
_atom_site_aniso_U_13
_atom_site_aniso_U_23
I1 I5+ 0.0117(4) 0.0116(4) 0.0133(5) 0.0008(3) -.0007(7) -.0006(3)
I2 I5+ 0.0120(4) 0.0119(4) 0.0135(5) -.0004(3) 0.0000(3) 0.0022(3)
I3 I5+ 0.0116(4) 0.0123(4) 0.0090(4) -.0015(3) 0.0002(3) -.0004(3)
I4 I5+ 0.0140(4) 0.0120(4) 0.0106(5) -.0006(3) -.0009(3) -.0004(3)
I5 I5+ 0.0099(4) 0.0118(4) 0.0112(5) -.0002(3) -.0004(3) 0.0015(3)
I6 I5+ 0.0103(4) 0.0097(4) 0.0131(5) 0.0018(3) 0.0011(3) 0.0017(3)
K1 K1+ 0.0114(13) 0.0160(14) 0.0174(16) 0.0006(10) 0.0005(11) -.0032(12)
K2 K1+ 0.0239(16) 0.0203(16) 0.0118(15) -.0024(13) 0.0030(12) 0.0003(12)
F1 F1- 0.0160(46) 0.0331(58) 0.0291(59) 0.0064(40) -.0092(40) -.0141(47)
F2 F1- 0.0172(46) 0.0374(59) 0.0177(51) 0.0034(42) 0.0016(38) 0.0074(45)
F3 F1- 0.0325(54) 0.0102(41) 0.0182(50) 0.0086(36) -.0038(41) -.0062(36)
F4 F1- 0.0300(54) 0.0216(50) 0.0249(56) 0.0048(41) 0.0031(44) 0.0060(43)
F5 F1- 0.0095(41) 0.0369(60) 0.0221(53) -.0021(37) 0.0116(37) 0.0004(44)
F6 F1- 0.0168(45) 0.0218(49) 0.0359(63) -.0080(38) -.0187(43) 0.0045(45)
F7 F1- 0.0122(43) 0.0251(51) 0.0348(63) 0.0035(36) 0.0131(41) -.0074(45)
F8 F1- 0.0272(57) 0.0288(60) 0.0539(87) -.0106(47) -.0071(56) 0.0140(59)
F9 F1- 0.0234(49) 0.0232(51) 0.0295(59) 0.0021(41) 0.0074(43) 0.0118(45)
F10 F1- 0.0200(47) 0.0131(43) 0.0331(61) 0.0023(35) -.0043(42) -.0075(41)
F11 F1- 0.0269(51) 0.0256(51) 0.0181(51) 0.0016(41) 0.0095(41) -.0047(41)
F12 F1- 0.0108(39) 0.0195(44) 0.0205(49) 0.0025(33) 0.0033(35) 0.0044(38)
F13 F1- 0.0169(41) 0.0072(37) 0.0249(51) -.0041(31) 0.0016(36) 0.0060(35)
F14 F1- 0.0185(44) 0.0172(44) 0.0208(51) 0.0079(35) 0.0051(37) -.0028(38)
F15 F1- 0.0374(59) 0.0216(48) 0.0068(43) -.0032(42) -.0094(40) 0.0030(36)
F16 F1- 0.0238(50) 0.0177(46) 0.0247(55) 0.0003(37) 0.0037(42) 0.0000(41)
F17 F1- 0.0186(47) 0.0352(58) 0.0182(51) 0.0145(42) 0.0010(38) -.0006(44)
F18 F1- 0.0319(38) 0.0239(52) 0.0268(58) -.0123(44) -.0053(46) 0.0050(45)
F19 F1- 0.0177(45) 0.0239(51) 0.0296(59) 0.0064(37) 0.0049(41) -.0158(44)
F20 F1- 0.0224(48) 0.0320(56) 0.0092(44) -.0038(39) -.0095(37) 0.0023(39)
F21 F1- 0.0135(42) 0.0206(47) 0.0275(56) -.0085(35) 0.0007(38) 0.0135(42)
F22 F1- 0.0183(44) 0.0104(40) 0.0290(56) 0.0035(33) -.0008(39) -.0130(39)
F23 F1- 0.0091(38) 0.0241(47) 0.0197(48) 0.0036(33) 0.0036(33) 0.0147(39)
F24 F1- 0.0127(42) 0.0358(59) 0.0174(49) -.0092(39) -.0018(35) -.0101(43)
F25 F1- 0.0037(35) 0.0332(53) 0.0230(52) 0.0089(34) -.0072(34) 0.0084(42)
F26 F1- 0.0067(39) 0.0339(56) 0.0243(55) 0.0067(36) -.0082(36) -.0022(43)
F27 F1- 0.0164(42) 0.0257(50) 0.0170(48) -.0033(37) 0.0032(36) 0.0096(41)
F28 F1- 0.009(4) 0.0278(53) 0.0397(65) 0.0142(38) -.0033(40) 0.0070(48)
F29 F1- 0.0319(57) 0.0260(53) 0.0194(53) 0.0124(44) 0.0011(44) -.0032(43)
F30 F1- 0.0128(40) 0.0119(41) 0.0266(53) 0.0006(32) 0.0046(36) -.0070(37)
F31 F1- 0.0102(38) 0.0209(45) 0.0156(46) -.0048(32) 0.0016(33) 0.0077(36)
F32 F1- 0.0075(36) 0.0166(42) 0.0204(47) -.0044(31) 0.0000(33) 0.0001(36)
#End of data_66121-ICSD


