data_18003-ICSD
#?2014 by Fachinformationszentrum Karlsruhe, and the U.S. Secretary of 
#Commerce on behalf of the United States.  All rights reserved.
_database_code_ICSD                18003
_audit_creation_date               1986/09/30
_chemical_name_systematic          'Potassium Fluoride Tetrahydrate'
_chemical_formula_structural       'K F (H2 O)4'
_chemical_formula_sum              'H8 F1 K1 O4'
_publ_section_title
;
Crystal structure of potassium fluoride tetrahydrate
;
loop_
_citation_id
_citation_journal_abbrev
_citation_year
_citation_journal_volume
_citation_page_first
_citation_page_last
_citation_journal_id_ASTM
primary 'Journal of Chemical Physics' 1964 41 917 923 JCPSA6
_publ_author_name                  'Beurskens, G.;Jeffrey, G.A.'
_cell_length_a                     6.80(1)
_cell_length_b                     13.29(2)
_cell_length_c                     6.64(1)
_cell_angle_alpha                  90.
_cell_angle_beta                   90.7(2)
_cell_angle_gamma                  90.
_cell_volume                       600.03
_cell_formula_units_Z              4
_symmetry_space_group_name_H-M     'P 1 21/c 1'
_symmetry_Int_Tables_number        14
_refine_ls_R_factor_all            .073
loop_
_symmetry_equiv_pos_site_id
_symmetry_equiv_pos_as_xyz
  1	'x, -y+.5, z+.5'
  2	'-x, -y, -z'
  3	'-x, y+.5, -z+.5'
  4	'x, y, z'
loop_
_atom_type_symbol
_atom_type_oxidation_number
F1-	-1
H1+	1
K1+	1
O2-	-2
loop_
_atom_site_label
_atom_site_type_symbol
_atom_site_symmetry_multiplicity
_atom_site_Wyckoff_symbol
_atom_site_fract_x
_atom_site_fract_y
_atom_site_fract_z
_atom_site_occupancy
_atom_site_attached_hydrogens
_atom_site_B_iso_or_equiv
K1 K1+ 4 e 0.6668 0.131 0.4987 1. 0 0 
F1 F1- 4 e 0.1633 0.1309 0.9911 1. 0 0 
O1 O2- 4 e 0.5444 0.1754 0.1062 1. 0 0 
O2 O2- 4 e 0.0375 0.186 0.3644 1. 0 0 
O3 O2- 4 e 0.2907 0.4312 0.1153 1. 0 0 
O4 O2- 4 e 0.803 0.4382 0.3685 1. 0 0 
H1 H1+ 4 e 0.64 0.37 0.52 1. 0 2.9 
H2 H1+ 4 e 0.392 0.167 0.051 1. 0 2.9 
H3 H1+ 4 e 0.052 0.165 0.246 1. 0 2.9 
H4 H1+ 4 e 0.077 0.255 0.409 1. 0 2.9 
H5 H1+ 4 e 0.2 0.11 0.52 1. 0 2.9 
H6 H1+ 4 e 0.26 0.415 0.235 1. 0 2.9 
H7 H1+ 4 e 0.174 0.007 0.082 1. 0 2.9 
H8 H1+ 4 e 0.919 0.412 0.396 1. 0 2.9 

loop_
_atom_site_aniso_label
_atom_site_aniso_type_symbol
_atom_site_aniso_B_11
_atom_site_aniso_B_22
_atom_site_aniso_B_33
_atom_site_aniso_B_12
_atom_site_aniso_B_13
_atom_site_aniso_B_23
K1 K1+ 2.37 2.36 2.33 0.11 0.36 -.25
F1 F1- 2.67 2.47 2.29 -.06 -.11 -.51
O1 O2- 2.76 3.29 3.4 -.25 -.17 -.95
O2 O2- 3.33 2.96 2.75 -.74 -.48 0.21
O3 O2- 2.63 3.5 2.72 -.43 0.19 0.14
O4 O2- 2.54 2.54 3.28 -.11 -.32 -1.14
#End of data_18003-ICSD


