data_78916-ICSD
#?2014 by Fachinformationszentrum Karlsruhe, and the U.S. Secretary of 
#Commerce on behalf of the United States.  All rights reserved.
_database_code_ICSD                78916
_audit_creation_date               1998/06/26
_audit_update_record               2002/04/01
_chemical_name_systematic          'Zink Selenate(IV) Hydrate'
_chemical_formula_structural       'Zn (Se O3) (H2 O)'
_chemical_formula_sum              'H2 O4 Se1 Zn1'
_publ_section_title
;
Zur Polymorphie und Pseudosymmetrie der Hydrate M Se O3 . H2O (M = 
Mn, Co, Ni, Zn, Cd)
;
loop_
_citation_id
_citation_journal_abbrev
_citation_year
_citation_journal_volume
_citation_page_first
_citation_page_last
_citation_journal_id_ASTM
primary 'Zeitschrift fuer Anorganische und Allgemeine Chemie (1950) (DE)'
 1996 622 1886 1892 ZAACAB
_publ_author_name
;
Engelen, B.;Baeumer, U.;Hermann, B.;Mueller, H.;Unterweide, K.
;
_cell_length_a                     4.779(1)
_cell_length_b                     13.194(5)
_cell_length_c                     5.701(1)
_cell_angle_alpha                  90.
_cell_angle_beta                   90.84(2)
_cell_angle_gamma                  90.
_cell_volume                       359.43
_cell_formula_units_Z              4
_symmetry_space_group_name_H-M     'P 1 21/n 1'
_symmetry_Int_Tables_number        14
_refine_ls_R_factor_all            .035
loop_
_symmetry_equiv_pos_site_id
_symmetry_equiv_pos_as_xyz
  1	'-x+.5, y+.5, -z+.5'
  2	'-x, -y, -z'
  3	'x+.5, -y+.5, z+.5'
  4	'x, y, z'
loop_
_atom_type_symbol
_atom_type_oxidation_number
H1+	1
O2-	-2
Se4+	4
Zn2+	2
loop_
_atom_site_label
_atom_site_type_symbol
_atom_site_symmetry_multiplicity
_atom_site_Wyckoff_symbol
_atom_site_fract_x
_atom_site_fract_y
_atom_site_fract_z
_atom_site_occupancy
_atom_site_attached_hydrogens
_atom_site_U_iso_or_equiv
Zn1 Zn2+ 4 e 0.6868(1) 0.26840(6) 0.3842(1) 1. 0 0 
Se1 Se4+ 4 e 0.7636(1) 0.39647(5) 0.8865(1) 1. 0 0 
O1 O2- 4 e 0.9006(9) 0.3231(4) 0.6669(8) 1. 0 0 
O2 O2- 4 e 0.4065(9) 0.1738(4) 0.6100(8) 1. 0 0 
O3 O2- 4 e 0.9253(9) 0.1331(4) 0.3836(8) 1. 0 0 
O4 O2- 4 e 0.390(1) 0.3876(4) 0.3867(8) 1. 0 0 
H1 H1+ 4 e 0.31(2) 0.390(8) 0.27(2) 1. 0 0.025 
H2 H1+ 4 e 0.33(2) 0.389(8) 0.51(2) 1. 0 0.025 

loop_
_atom_site_aniso_label
_atom_site_aniso_type_symbol
_atom_site_aniso_U_11
_atom_site_aniso_U_22
_atom_site_aniso_U_33
_atom_site_aniso_U_12
_atom_site_aniso_U_13
_atom_site_aniso_U_23
Zn1 Zn2+ 0.0124(3) 0.0151(4) 0.0130(3) -0.0012(3) 0.0001(3) 0.0002(3)
Se1 Se4+ 0.0109(2) 0.0098(3) 0.0118(2) 0.0004(2) -0.0001(2) 0.0000(2)
O1 O2- 0.015(2) 0.018(2) 0.011(2) 0.000(2) 0.001(2) -0.004(2)
O2 O2- 0.012(2) 0.019(2) 0.012(2) -0.004(2) -0.001(2) -0.003(2)
O3 O2- 0.010(2) 0.017(2) 0.018(2) -0.001(2) 0.001(2) 0.004(2)
O4 O2- 0.019(2) 0.022(3) 0.015(2) 0.002(2) 0.001(2) 0.000(2)
#End of data_78916-ICSD


