data_82934-ICSD
#?2014 by Fachinformationszentrum Karlsruhe, and the U.S. Secretary of 
#Commerce on behalf of the United States.  All rights reserved.
_database_code_ICSD                82934
_audit_creation_date               1998/06/26
_audit_update_record               2004/04/01
_chemical_name_systematic          'Dicesium Tetraiodozincate'
_chemical_formula_structural       'Cs2 (Zn I4)'
_chemical_formula_sum              'Cs2 I4 Zn1'
_publ_section_title
;
Powder X-ray diffraction study on the phase transitions in Cs2 Zn I4
;
loop_
_citation_id
_citation_journal_abbrev
_citation_year
_citation_journal_volume
_citation_journal_issue
_citation_page_first
_citation_page_last
_citation_journal_id_ASTM
primary 'Chubu Daigaku Kogakubu Kiyo' 1996 32 12 103 111 CDKKER
_publ_author_name                  'Kitada, H.;Kurihama, T.;Izumi, T.'
_cell_length_a                     21.286
_cell_length_b                     8.2429
_cell_length_c                     14.3039
_cell_angle_alpha                  90.
_cell_angle_beta                   90.
_cell_angle_gamma                  90.
_cell_volume                       2509.74
_cell_formula_units_Z              8
_symmetry_space_group_name_H-M     'P n m a'
_symmetry_Int_Tables_number        62
_refine_ls_R_factor_all            .043
loop_
_symmetry_equiv_pos_site_id
_symmetry_equiv_pos_as_xyz
  1	'x+.5, y, -z+.5'
  2	'x, -y+.5, z'
  3	'-x+.5, y+.5, z+.5'
  4	'-x, -y, -z'
  5	'-x+.5, -y, z+.5'
  6	'-x, y+.5, -z'
  7	'x+.5, -y+.5, -z+.5'
  8	'x, y, z'
loop_
_atom_type_symbol
_atom_type_oxidation_number
Cs1+	1
I1-	-1
Zn2+	2
loop_
_atom_site_label
_atom_site_type_symbol
_atom_site_symmetry_multiplicity
_atom_site_Wyckoff_symbol
_atom_site_fract_x
_atom_site_fract_y
_atom_site_fract_z
_atom_site_occupancy
_atom_site_attached_hydrogens
_atom_site_B_iso_or_equiv
Cs1 Cs1+ 4 c 0.351 0.25 0.63023 1. 0 14.73 
Cs2 Cs1+ 4 c 0.5843 0.25 0.55366 1. 0 14.73 
Cs3 Cs1+ 4 c 0.47795 0.25 0.41767 1. 0 14.73 
Cs4 Cs1+ 4 c 0.63692 0.25 0.43278 1. 0 14.73 
Zn1 Zn2+ 4 c 0.22917 0.25 0.4005 1. 0 14.73 
Zn2 Zn2+ 4 c 0.56421 0.25 0.42913 1. 0 14.73 
I1 I1- 4 c 0.15895 0.25 0.14497 1. 0 14.73 
I2 I1- 4 c 0.41773 0.25 0.35027 1. 0 14.73 
I3 I1- 4 c 0.1276 0.25 0.62093 1. 0 14.73 
I4 I1- 4 c 0.74366 0.25 0.63051 1. 0 14.73 
I5 I1- 8 d 0.05332 0.47058 0.3656 1. 0 14.73 
I6 I1- 8 d 0.84837 0.50351 0.37742 1. 0 14.73 

#End of data_82934-ICSD


