data_27929-ICSD
#?2014 by Fachinformationszentrum Karlsruhe, and the U.S. Secretary of 
#Commerce on behalf of the United States.  All rights reserved.
_database_code_ICSD                27929
_audit_creation_date               1980/01/01
_audit_update_record               2011/02/01
_chemical_name_systematic          'Potassium Difluorodioxoiodate(V)'
_chemical_formula_structural       'K I O2 F2'
_chemical_formula_sum              'F2 I1 K1 O2'
_publ_section_title
;
Ferroelastic K I O2 F2: Crystal structure and ferroelastic 
transformation
;
loop_
_citation_id
_citation_journal_abbrev
_citation_year
_citation_journal_volume
_citation_page_first
_citation_page_last
_citation_journal_id_ASTM
primary 'Journal of Chemical Physics' 1976 64 3254 3260 JCPSA6
_publ_author_name                  'Abrahams, S.C.;Bernstein, J.L.'
_cell_length_a                     8.39430(4)
_cell_length_b                     5.97918(5)
_cell_length_c                     8.44680(3)
_cell_angle_alpha                  90.
_cell_angle_beta                   90.
_cell_angle_gamma                  90.
_cell_volume                       423.95
_cell_formula_units_Z              4
_symmetry_space_group_name_H-M     'P c a 21'
_symmetry_Int_Tables_number        29
_refine_ls_R_factor_all            .046
loop_
_symmetry_equiv_pos_site_id
_symmetry_equiv_pos_as_xyz
  1	'x+.5, -y, z'
  2	'-x+.5, y, z+.5'
  3	'-x, -y, z+.5'
  4	'x, y, z'
loop_
_atom_type_symbol
_atom_type_oxidation_number
F1-	-1
I5+	5
K1+	1
O2-	-2
loop_
_atom_site_label
_atom_site_type_symbol
_atom_site_symmetry_multiplicity
_atom_site_Wyckoff_symbol
_atom_site_fract_x
_atom_site_fract_y
_atom_site_fract_z
_atom_site_occupancy
_atom_site_attached_hydrogens
I1 I5+ 4 a 0.00215(9) 0.06378(7) 0 1. 0 
K1 K1+ 4 a 0.2168(4) 0.4690(4) 0.7178(6) 1. 0 
F1 F1- 4 a -.0756(13) 0.3628(14) -.0781(13) 1. 0 
F2 F1- 4 a 0.0773(15) -.2331(12) 0.0741(16) 1. 0 
O1 O2- 4 a 0.1991(10) 0.1570(13) -.0287(15) 1. 0 
O2 O2- 4 a -.0372(16) 0.1530(25) 0.1966(15) 1. 0 

#End of data_27929-ICSD


