data_281208-ICSD
#?2014 by Fachinformationszentrum Karlsruhe, and the U.S. Secretary of 
#Commerce on behalf of the United States.  All rights reserved.
_database_code_ICSD                281208
_audit_creation_date               2003/10/01
_chemical_name_systematic
;
Barium Calcium Hexafluoroaluminate Fluoride - Alpha
;
_chemical_formula_structural       'Ba Ca (Al F6) F'
_chemical_formula_sum              'Al1 Ba1 Ca1 F7'
_publ_section_title                'alpha-(Ba Ca Al F7)'
loop_
_citation_id
_citation_journal_abbrev
_citation_year
_citation_journal_volume
_citation_page_first
_citation_page_last
_citation_journal_id_ASTM
primary 'Acta Crystallographica, Section E. Structure Reports Online'
 2003 59 17 19 ACSEBH
_publ_author_name                  'Werner, F.;Weil, M.'
_cell_length_a                     5.3664(5)
_cell_length_b                     5.3846(6)
_cell_length_c                     18.8262(19)
_cell_angle_alpha                  90.
_cell_angle_beta                   92.319(2)
_cell_angle_gamma                  90.
_cell_volume                       543.55
_cell_formula_units_Z              4
_symmetry_space_group_name_H-M     'P 1 2/n 1'
_symmetry_Int_Tables_number        13
_refine_ls_R_factor_all            .019
loop_
_symmetry_equiv_pos_site_id
_symmetry_equiv_pos_as_xyz
  1	'x+.5, -y, z+.5'
  2	'-x+.5, y, -z+.5'
  3	'-x, -y, -z'
  4	'x, y, z'
loop_
_atom_type_symbol
_atom_type_oxidation_number
Al3+	3
Ba2+	2
Ca2+	2
F1-	-1
loop_
_atom_site_label
_atom_site_type_symbol
_atom_site_symmetry_multiplicity
_atom_site_Wyckoff_symbol
_atom_site_fract_x
_atom_site_fract_y
_atom_site_fract_z
_atom_site_occupancy
_atom_site_attached_hydrogens
_atom_site_U_iso_or_equiv
Ba1 Ba2+ 4 g 0.24906(3) 0.24041(3) -.067757(8) 1. 0 0.01162(7) 
Al1 Al3+ 4 g 0.20069(15) 0.22470(14) 0.38092(4) 1. 0 0.00837(15) 
Ca1 Ca2+ 2 e 0.75 0.20769(13) 0.75 1. 0 0.00786(13) 
Ca2 Ca2+ 2 f 0.25 0.68150(13) 0.75 1. 0 0.00703(13) 
F1 F1- 4 g 0.5997(3) 0.5949(3) 0.56404(9) 1. 0 0.0165(3) 
F2 F1- 4 g 0.5649(3) 0.8622(3) 0.68045(9) 1. 0 0.0141(3) 
F3 F1- 4 g 0.0901(3) 0.4812(3) 0.32626(9) 1. 0 0.0133(3) 
F4 F1- 4 g 0.4141(3) 0.3614(3) 0.69206(8) 1. 0 0.0133(3) 
F5 F1- 4 g 0.0530(3) 0.7185(3) 0.56042(9) 1. 0 0.0159(3) 
F6 F1- 4 g 0.0154(3) -.0288(3) 0.67494(8) 1. 0 0.0122(3) 
F7 F1- 4 g 0.2750(3) -.0454(3) 0.43446(9) 1. 0 0.0167(3) 

loop_
_atom_site_aniso_label
_atom_site_aniso_type_symbol
_atom_site_aniso_U_11
_atom_site_aniso_U_22
_atom_site_aniso_U_33
_atom_site_aniso_U_12
_atom_site_aniso_U_13
_atom_site_aniso_U_23
Ba1 Ba2+ 0.01257(9) 0.01309(10) 0.00916(9) 0.00207(6) -0.00020(5) 
0.00030(5)
Al1 Al3+ 0.0091(3) 0.0089(4) 0.0071(3) 0.0002(3) 0.0000(3) 0.0002(3)
Ca1 Ca2+ 0.0084(3) 0.0073(3) 0.0078(3) 0 -0.0005(2) 0
Ca2 Ca2+ 0.0064(3) 0.0077(3) 0.0070(3) 0 0.0004(2) 0
F1 F1- 0.0170(8) 0.0201(8) 0.0122(8) -0.0069(7) -0.0017(6) -0.0016(6)
F2 F1- 0.0139(8) 0.0135(8) 0.0153(8) -0.0004(6) 0.0054(6) -0.0031(6)
F3 F1- 0.0129(7) 0.0121(8) 0.0146(8) -0.0013(6) -0.0023(6) 0.0047(6)
F4 F1- 0.0136(8) 0.0140(8) 0.0121(7) 0.0027(6) -0.0017(6) -0.0031(6)
F5 F1- 0.0132(8) 0.0200(9) 0.0151(8) 0.0027(6) 0.0053(6) -0.0009(6)
F6 F1- 0.0107(7) 0.0138(8) 0.0120(7) -0.0022(6) -0.0002(6) -0.0012(6)
F7 F1- 0.0190(8) 0.0144(8) 0.0167(8) 0.0033(6) 0.0005(7) 0.0049(6)
#End of data_281208-ICSD


