data_82872-ICSD
#?2014 by Fachinformationszentrum Karlsruhe, and the U.S. Secretary of 
#Commerce on behalf of the United States.  All rights reserved.
_database_code_ICSD                82872
_audit_creation_date               1998/06/26
_audit_update_record               2003/04/01
_chemical_name_systematic
;
Dipotassium Dizinc Tris(sulfate(VI))
;
_chemical_formula_structural       'K2 Zn2 (S O4)3'
_chemical_formula_sum              'K2 O12 S3 Zn2'
_chemical_name_mineral             'Langbeinite (Zn)'
_publ_section_title
;
Structural study of phase transition mechanism of langbeinite-type K2 
Zn2 (S O4)3 crystals
;
loop_
_citation_id
_citation_journal_abbrev
_citation_year
_citation_journal_volume
_citation_journal_issue
_citation_page_first
_citation_page_last
_citation_journal_id_ASTM
primary 'Journal of the Physical Society of Japan' 1996 65 11 3537 3543 JUPSAU
2 'Phase Transition' 1992 38- 127 220 PHTRDP
_publ_author_name                  'Moriyoshi, C.;Itoh, K.'
_cell_length_a                     9.924(1)
_cell_length_b                     9.924(1)
_cell_length_c                     9.924(1)
_cell_angle_alpha                  90.
_cell_angle_beta                   90.
_cell_angle_gamma                  90.
_cell_volume                       977.37
_cell_formula_units_Z              4
_symmetry_space_group_name_H-M     'P 21 3'
_symmetry_Int_Tables_number        198
_refine_ls_R_factor_all            .031
loop_
_symmetry_equiv_pos_site_id
_symmetry_equiv_pos_as_xyz
  1	'-z+.5, -x, y+.5'
  2	'-y+.5, -z, x+.5'
  3	'-x+.5, -y, z+.5'
  4	'-z, x+.5, -y+.5'
  5	'-y, z+.5, -x+.5'
  6	'-x, y+.5, -z+.5'
  7	'z+.5, -x+.5, -y'
  8	'y+.5, -z+.5, -x'
  9	'x+.5, -y+.5, -z'
 10	'z, x, y'
 11	'y, z, x'
 12	'x, y, z'
loop_
_atom_type_symbol
_atom_type_oxidation_number
K1+	1
O2-	-2
S6+	6
Zn2+	2
loop_
_atom_site_label
_atom_site_type_symbol
_atom_site_symmetry_multiplicity
_atom_site_Wyckoff_symbol
_atom_site_fract_x
_atom_site_fract_y
_atom_site_fract_z
_atom_site_occupancy
_atom_site_attached_hydrogens
Zn1 Zn2+ 4 a 0.33454(8) 0.33454(8) 0.33454(8) 1. 0 
Zn2 Zn2+ 4 a 0.59348(9) 0.59348(9) 0.59348(9) 1. 0 
K1 K1+ 4 a 0.81468(19) 0.81468(19) 0.81468(19) 1. 0 
K2 K1+ 4 a 0.04927(21) 0.04927(21) 0.04927(21) 1. 0 
S1 S6+ 12 b 0.21836(6) 0.37586(5) 0.01777(5) 1. 0 
O1 O2- 12 b 0.30935(23) 0.27447(25) 0.96024(30) 1. 0 
O2 O2- 12 b 0.07825(21) 0.32922(23) 0.00347(25) 1. 0 
O3 O2- 12 b 0.24085(32) 0.50053(29) 0.94129(31) 1. 0 
O4 O2- 12 b 0.25100(27) 0.40568(30) 0.15880(22) 1. 0 

loop_
_atom_site_aniso_label
_atom_site_aniso_type_symbol
_atom_site_aniso_U_11
_atom_site_aniso_U_22
_atom_site_aniso_U_33
_atom_site_aniso_U_12
_atom_site_aniso_U_13
_atom_site_aniso_U_23
Zn1 Zn2+ 0.0114(3) 0.0114(3) 0.0114(3) -0.0013(2) -0.0013(2) -0.0013(2)
Zn2 Zn2+ 0.0118(3) 0.0118(3) 0.0118(3) -0.0002(2) -0.0002(2) -0.0002(2)
K1 K1+ 0.0204(6) 0.0204(6) 0.0204(6) -0.0015(5) -0.0015(5) -0.0015(5)
K2 K1+ 0.0220(6) 0.0220(6) 0.0220(6) 0.0002(6) 0.0002(6) 0.0002(6)
S1 S6+ 0.0083(2) 0.0082(2) 0.0087(2) 0.0013(1) 0.0001(1) 0.0007(1)
O1 O2- 0.0196(9) 0.0246(10) 0.0384(14) 0.0115(8) -0.0014(9) -0.0149(10)
O2 O2- 0.0106(6) 0.0256(10) 0.0314(11) -0.0046(7) 0.0002(7) -0.0116(8)
O3 O2- 0.0324(12) 0.0269(11) 0.0426(16) 0.0032(10) 0.0060(12) 0.0243(12)
O4 O2- 0.0285(10) 0.0383(13) 0.0139(8) 0.0064(10) -0.0101(8) -0.0070(9)
#End of data_82872-ICSD


