data_9009-ICSD
#?2014 by Fachinformationszentrum Karlsruhe, and the U.S. Secretary of 
#Commerce on behalf of the United States.  All rights reserved.
_database_code_ICSD                9009
_audit_creation_date               1980/01/01
_audit_update_record               2012/08/01
_chemical_name_systematic          'Potassium Gallium Oxide'
_chemical_formula_structural       'K Ga O2'
_chemical_formula_sum              'Ga1 K1 O2'
_publ_section_title                'Oxogallate der Alkalimetalle'
loop_
_citation_id
_citation_journal_abbrev
_citation_year
_citation_journal_volume
_citation_page_first
_citation_page_last
_citation_journal_id_ASTM
primary 'Zeitschrift fuer Anorganische und Allgemeine Chemie (1950) (DE)'
 1969 369 14 32 ZAACAB
_publ_author_name                  'Vielhaber, E.;Hoppe, R.'
_cell_length_a                     5.51(5)
_cell_length_b                     11.07(6)
_cell_length_c                     15.81(8)
_cell_angle_alpha                  90.
_cell_angle_beta                   90.
_cell_angle_gamma                  90.
_cell_volume                       964.34
_cell_formula_units_Z              16
_symmetry_space_group_name_H-M     'P b c a'
_symmetry_Int_Tables_number        61
_refine_ls_R_factor_all            .112
loop_
_symmetry_equiv_pos_site_id
_symmetry_equiv_pos_as_xyz
  1	'x+.5, y, -z+.5'
  2	'x, -y+.5, z+.5'
  3	'-x+.5, y+.5, z'
  4	'-x, -y, -z'
  5	'-x+.5, -y, z+.5'
  6	'-x, y+.5, -z+.5'
  7	'x+.5, -y+.5, -z'
  8	'x, y, z'
loop_
_atom_type_symbol
_atom_type_oxidation_number
Ga3+	3
K1+	1
O2-	-2
loop_
_atom_site_label
_atom_site_type_symbol
_atom_site_symmetry_multiplicity
_atom_site_Wyckoff_symbol
_atom_site_fract_x
_atom_site_fract_y
_atom_site_fract_z
_atom_site_occupancy
_atom_site_attached_hydrogens
_atom_site_B_iso_or_equiv
K1 K1+ 8 c 0.751 0.015 0.062 1. 0 2.66 
K2 K1+ 8 c 0.799 0.265 0.186 1. 0 1.66 
Ga1 Ga3+ 8 c 0.261 0.008 0.189 1. 0 0.95 
Ga2 Ga3+ 8 c 0.28 0.264 0.065 1. 0 0.87 
O1 O2- 8 c 0.574 0.296 0.013 1. 0 2.41 
O2 O2- 8 c 0.153 0.402 0.106 1. 0 1.3 
O3 O2- 8 c 0.306 0.174 0.155 1. 0 1.9 
O4 O2- 8 c 0.925 0.486 0.225 1. 0 3. 

#End of data_9009-ICSD


