data_97273-ICSD
#?2014 by Fachinformationszentrum Karlsruhe, and the U.S. Secretary of 
#Commerce on behalf of the United States.  All rights reserved.
_database_code_ICSD                97273
_audit_creation_date               2004/10/01
_chemical_name_systematic
;
Tetrasodium Dioxouranium(VI) Tricarbonate
;
_chemical_formula_structural       'Na4 (U O2) (C O3)3'
_chemical_formula_sum              'C3 Na4 O11 U1'
_chemical_name_mineral             Cejkaite
_publ_section_title
;
Cejkaite, the triclinic polymorph of Na4 (U O2) (C O3)3 - a new 
mineral from Jachymov, Czech Republic
;
loop_
_citation_id
_citation_journal_abbrev
_citation_year
_citation_journal_volume
_citation_page_first
_citation_page_last
_citation_journal_id_ASTM
primary 'American Mineralogist' 2003 88 686 693 AMMIAY
_publ_author_name
;
Ondrus, P.;Skala, R.;Veselovsky, F.;Sejkora, J.;Vitti, C.
;
_cell_length_a                     9.291(2)
_cell_length_b                     9.292(2)
_cell_length_c                     12.895(2)
_cell_angle_alpha                  90.73(2)
_cell_angle_beta                   90.82(2)
_cell_angle_gamma                  120.00(1)
_cell_volume                       963.75
_cell_formula_units_Z              4
_symmetry_space_group_name_H-M     'P -1'
_symmetry_Int_Tables_number        2
_refine_ls_R_factor_all            .071
loop_
_symmetry_equiv_pos_site_id
_symmetry_equiv_pos_as_xyz
  1	'-x, -y, -z'
  2	'x, y, z'
loop_
_atom_type_symbol
_atom_type_oxidation_number
C4+	4
Na1+	1
O2-	-2
U6+	6
loop_
_atom_site_label
_atom_site_type_symbol
_atom_site_symmetry_multiplicity
_atom_site_Wyckoff_symbol
_atom_site_fract_x
_atom_site_fract_y
_atom_site_fract_z
_atom_site_occupancy
_atom_site_attached_hydrogens
_atom_site_B_iso_or_equiv
U1 U6+ 2 i 0.3268(3) 0.6609(3) 0.1299(3) 1. 0 1.53(6) 
U2 U6+ 2 i 0.3240(3) 0.6583(3) 0.6279(3) 1. 0 1.53(6) 
Na1 Na1+ 1 a 0 0 0 1. 0 1.53(6) 
Na2 Na1+ 1 b 0 0 0.5 1. 0 1.53(6) 
Na3 Na1+ 2 i 0 0 0.2530(1) 1. 0 1.53(6) 
Na4 Na1+ 2 i 0.4318(3) 0.3056(4) 0.1222(3) 1. 0 1.53(6) 
Na5 Na1+ 2 i 0.1148(3) 0.6904(3) 0.3673(3) 1. 0 1.53(6) 
Na6 Na1+ 2 i 0.3176(3) 0.4385(3) 0.3777(3) 1. 0 1.53(6) 
Na7 Na1+ 2 i 0.4284(3) 0.1249(3) 0.6166(3) 1. 0 1.53(6) 
Na8 Na1+ 2 i 0.1251(3) 0.4345(3) 0.8714(3) 1. 0 1.53(6) 
Na9 Na1+ 2 i 0.3100(4) 0.8824(3) 0.8784(3) 1. 0 1.53(6) 
O1 O2- 2 i 0.3348(4) 0.6689(4) 0.2723(2) 1. 0 1.53(6) 
O2 O2- 2 i 0.3332(4) 0.6718(4) 0.7701(2) 1. 0 1.53(6) 
O3 O2- 2 i 0.3340(4) 0.6706(4) 0.9892(2) 1. 0 1.53(6) 
O4 O2- 2 i 0.3239(4) 0.6713(4) 0.4871(2) 1. 0 1.53(6) 
C1 C4+ 2 i 0.0786(9) 0.3229(6) 0.142(2) 1. 0 1.53(6) 
C2 C4+ 2 i 0.2549(8) 0.9295(8) 0.149(2) 1. 0 1.53(6) 
C3 C4+ 2 i 0.3340(8) 0.0751(7) 0.393(5) 1. 0 1.53(6) 
C4 C4+ 2 i 0.073(1) 0.7548(7) 0.637(6) 1. 0 1.53(6) 
C5 C4+ 2 i 0.2552(7) 0.3169(6) 0.6743(9) 1. 0 1.53(6) 
C6 C4+ 2 i 0.3219(7) 0.2568(7) 0.855(2) 1. 0 1.53(6) 
O5 O2- 2 i 0.0390(5) 0.4391(5) 0.134(2) 1. 0 1.53(6) 
O6 O2- 2 i 0.4007(6) 0.9506(5) 0.126(3) 1. 0 1.53(6) 
O7 O2- 2 i 0.4632(9) 0.0542(7) 0.394(3) 1. 0 1.53(6) 
O8 O2- 2 i 0.0394(7) 0.6003(3) 0.635(5) 1. 0 1.53(6) 
O9 O2- 2 i 0.397(2) 0.443(2) 0.647(5) 1. 0 1.53(6) 
O10 O2- 2 i 0.4520(8) 0.4058(7) 0.865(6) 1. 0 1.53(6) 
O11 O2- 2 i 0.1461(4) 0.7706(6) 0.153(2) 1. 0 1.53(6) 
O12 O2- 2 i 0.2357(7) 0.3768(6) 0.163(1) 1. 0 1.53(6) 
O13 O2- 2 i 0.3865(8) 0.2349(8) 0.395(3) 1. 0 1.53(6) 
O14 O2- 2 i 0.1526(4) 0.3747(8) 0.672(2) 1. 0 1.53(6) 
O15 O2- 2 i 0.2336(6) 0.8554(4) 0.650(1) 1. 0 1.53(6) 
O16 O2- 2 i 0.3803(5) 0.1545(7) 0.859(5) 1. 0 1.53(6) 
O17 O2- 2 i 0.2139(3) 0.0338(5) 0.1260(2) 1. 0 1.53(6) 
O18 O2- 2 i 0.0452(5) 0.2216(3) 0.3821(3) 1. 0 1.53(6) 
O19 O2- 2 i 0.1844(4) 0.9671(5) 0.3813(3) 1. 0 1.53(6) 
O20 O2- 2 i 0.2158(3) 0.1865(4) 0.6243(2) 1. 0 1.53(6) 
O21 O2- 2 i 0.0356(5) 0.8211(4) 0.8753(2) 1. 0 1.53(6) 
O22 O2- 2 i 0.1776(4) 0.2155(3) 0.8804(2) 1. 0 1.53(6) 

#End of data_97273-ICSD


