data_95960-ICSD
#?2014 by Fachinformationszentrum Karlsruhe, and the U.S. Secretary of 
#Commerce on behalf of the United States.  All rights reserved.
_database_code_ICSD                95960
_audit_creation_date               2004/04/01
_chemical_name_systematic
;
Lithium Potassium Zincodiphosphate(V)
;
_chemical_formula_structural       'Li K (Zn P2 O7)'
_chemical_formula_sum              'K1 Li1 O7 P2 Zn1'
_publ_section_title
;
Crystal structures of Na2 Zn P2 O7, K2 Zn P2 O7 and Li K Zn P2 O7 
phases in the (M2 O) - (Zn O) - (P2 O5) glass-forming system (M = Li, 
Na and K)
;
loop_
_citation_id
_citation_journal_abbrev
_citation_year
_citation_journal_volume
_citation_journal_issue
_citation_page_first
_citation_page_last
_citation_journal_id_ASTM
primary 'Glass Physics and Chemistry' 2002 28 5 317 321 GPHCEE
_publ_author_name
;
Shepelev, Yu.F.;Petrova, M.A.;Novikova, A.S.;Lapshin, A.E.
;
_cell_length_a                     12.36(2)
_cell_length_b                     5.09(1)
_cell_length_c                     10.26(1)
_cell_angle_alpha                  90
_cell_angle_beta                   90
_cell_angle_gamma                  90
_cell_volume                       645.48
_cell_formula_units_Z              4
_symmetry_space_group_name_H-M     'P m c 21'
_symmetry_Int_Tables_number        26
_refine_ls_R_factor_all            .07
loop_
_symmetry_equiv_pos_site_id
_symmetry_equiv_pos_as_xyz
  1	'x, -y, z+.5'
  2	'-x, -y, z+.5'
  3	'-x, y, z'
  4	'x, y, z'
loop_
_atom_type_symbol
_atom_type_oxidation_number
K1+	1
Li1+	1
O2-	-2
P5+	5
Zn2+	2
loop_
_atom_site_label
_atom_site_type_symbol
_atom_site_symmetry_multiplicity
_atom_site_Wyckoff_symbol
_atom_site_fract_x
_atom_site_fract_y
_atom_site_fract_z
_atom_site_occupancy
_atom_site_attached_hydrogens
_atom_site_B_iso_or_equiv
K1 K1+ 2 b 0.5 0.521(1) 0.4823(9) 1. 0 3.9(2) 
K2 K1+ 2 a 0 -0.016(2) 0.251(1) 1. 0 5.4(2) 
Li1 Li1+ 4 c 0.254(2) 0.057(6) 0.467(3) 1. 0 1.8(5) 
Zn1 Zn2+ 4 c 0.2502(1) 0.5304(2) 0.2695 1. 0 5.2(2) 
P1 P5+ 4 c 0.1170(5) 0.476(2) 0.0384(8) 1. 0 4.4(2) 
P2 P5+ 4 c 0.382(3) 0.018(1) 0.2309(9) 1. 0 3.6(2) 
O1 O2- 4 c 0.127(1) 0.547(5) 0.177(2) 1. 0 5.8(6) 
O2 O2- 4 c 0.131(2) 0.196(5) 0.004(3) 1. 0 6.2(6) 
O3 O2- 4 c 0.178(1) 0.620(4) -0.084(3) 1. 0 4.2(3) 
O4 O2- 2 a 0 0.531(8) -0.007(4) 1. 0 6.2(8) 
O5 O2- 4 c 0.371(2) 0.887(5) 0.085(4) 1. 0 6.7(8) 
O6 O2- 2 b 0.5 -0.058(4) 0.277(2) 1. 0 2.7(4) 
O7 O2- 4 c 0.377(1) 0.338(3) 0.235(3) 1. 0 4.3(4) 
O8 O2- 4 c 0.289(1) -0.098(3) 0.307(2) 1. 0 4.2(4) 

#End of data_95960-ICSD


