data_35534-ICSD
#?2014 by Fachinformationszentrum Karlsruhe, and the U.S. Secretary of 
#Commerce on behalf of the United States.  All rights reserved.
_database_code_ICSD                35534
_audit_creation_date               1983/12/31
_audit_update_record               2005/10/01
_chemical_name_systematic          'Magnesium Catena-germanate'
_chemical_formula_structural       'Mg (Ge O3)'
_chemical_formula_sum              'Ge1 Mg1 O3'
_publ_section_title
;
Structure of orthopyroxene-type and clinopyroxene-type magnesium 
germanium oxide Mg Ge O3
;
loop_
_citation_id
_citation_journal_abbrev
_citation_year
_citation_journal_volume
_citation_page_first
_citation_page_last
_citation_journal_id_ASTM
primary 'Acta Crystallographica, Section C: Crystal Structure Communications'
 1983 39 1169 1172 ACSCEE
2 'Golden Book of Phase Transitions, Wroclaw' 2002 1 1 123 GBOPT5
_publ_author_name                  'Ozima, M.'
_cell_length_a                     9.6010(8)
_cell_length_b                     8.9323(6)
_cell_length_c                     5.1592(5)
_cell_angle_alpha                  90.
_cell_angle_beta                   101.034(9)
_cell_angle_gamma                  90.
_cell_volume                       434.27
_cell_formula_units_Z              8
_symmetry_space_group_name_H-M     'C 1 2/c 1'
_symmetry_Int_Tables_number        15
_refine_ls_R_factor_all            .021
loop_
_symmetry_equiv_pos_site_id
_symmetry_equiv_pos_as_xyz
  1	'x, -y, z+.5'
  2	'-x, -y, -z'
  3	'-x, y, -z+.5'
  4	'x, y, z'
  5	'x+.5, -y+.5, z+.5'
  6	'-x+.5, -y+.5, -z'
  7	'-x+.5, y+.5, -z+.5'
  8	'x+.5, y+.5, z'
loop_
_atom_type_symbol
_atom_type_oxidation_number
Ge4+	4
Mg2+	2
O2-	-2
loop_
_atom_site_label
_atom_site_type_symbol
_atom_site_symmetry_multiplicity
_atom_site_Wyckoff_symbol
_atom_site_fract_x
_atom_site_fract_y
_atom_site_fract_z
_atom_site_occupancy
_atom_site_attached_hydrogens
Mg1 Mg2+ 4 e 0.5 0.09306(14) 0.75 1. 0 
Mg2 Mg2+ 4 e 0.5 0.26954(13) 0.25 1. 0 
Ge1 Ge4+ 8 f 0.30016(2) 0.40551(2) 0.71097(4) 1. 0 
O1 O2- 8 f 0.38248(18) 0.25687(18) 0.88126(30) 1. 0 
O2 O2- 8 f 0.36065(17) 0.43135(17) 0.40386(29) 1. 0 
O3 O2- 8 f 0.11635(15) 0.40942(18) 0.63144(28) 1. 0 

loop_
_atom_site_aniso_label
_atom_site_aniso_type_symbol
_atom_site_aniso_U_11
_atom_site_aniso_U_22
_atom_site_aniso_U_33
_atom_site_aniso_U_12
_atom_site_aniso_U_13
_atom_site_aniso_U_23
Mg1 Mg2+ 0.0078(4) 0.0065(4) 0.0072(4) 0 0.0016(3) 0
Mg2 Mg2+ 0.0087(4) 0.0072(4) 0.0077(4) 0 0.0018(3) 0
Ge1 Ge4+ 0.0050(1) 0.0054(1) 0.0058(1) 0.0002(1) 0.0009 0.0001(1)
O1 O2- 0.0092(5) 0.0072(5) 0.0073(5) 0.0022(4) 0.0014(4) 0.0004(4)
O2 O2- 0.0083(5) 0.0065(5) 0.0073(5) -.0011(4) 0.0031(4) -.0015(4)
O3 O2- 0.0051(5) 0.0071(5) 0.0081(5) -.0003(4) 0.0015(4) 0.0002(4)
#End of data_35534-ICSD


