data_24426-ICSD
#?2014 by Fachinformationszentrum Karlsruhe, and the U.S. Secretary of 
#Commerce on behalf of the United States.  All rights reserved.
_database_code_ICSD                24426
_audit_creation_date               1980/01/01
_audit_update_record               2007/08/01
_chemical_name_systematic          'Dicalcium Barium Cyclo-trisilicate'
_chemical_formula_structural       'Ca2 Ba (Si3 O9)'
_chemical_formula_sum              'Ba1 Ca2 O9 Si3'
_chemical_name_mineral             Walstromite
_publ_section_title
;
The crystal structure of walstromite
;
loop_
_citation_id
_citation_journal_abbrev
_citation_year
_citation_journal_volume
_citation_page_first
_citation_page_last
_citation_journal_id_ASTM
primary 'American Mineralogist' 1968 53 9 13 AMMIAY
_publ_author_name                  'Dent Glasser, L.S.;Glasser, F.P.'
_cell_length_a                     6.733
_cell_length_b                     9.616
_cell_length_c                     6.723
_cell_angle_alpha                  69.62
_cell_angle_beta                   102.33
_cell_angle_gamma                  96.9
_cell_volume                       398.12
_cell_formula_units_Z              2
_symmetry_space_group_name_H-M     'P -1'
_symmetry_Int_Tables_number        2
_refine_ls_R_factor_all            .16
loop_
_symmetry_equiv_pos_site_id
_symmetry_equiv_pos_as_xyz
  1	'-x, -y, -z'
  2	'x, y, z'
loop_
_atom_type_symbol
_atom_type_oxidation_number
Ba2+	2
Ca2+	2
O2-	-2
Si4+	4
loop_
_atom_site_label
_atom_site_type_symbol
_atom_site_symmetry_multiplicity
_atom_site_Wyckoff_symbol
_atom_site_fract_x
_atom_site_fract_y
_atom_site_fract_z
_atom_site_occupancy
_atom_site_attached_hydrogens
_atom_site_U_iso_or_equiv
Ca1 Ca2+ 2 i 0.272 0.507 0.763 1. 0 0.0152 
Ca2 Ca2+ 2 i 0.435 0.831 0.935 1. 0 0.0152 
Ba1 Ba2+ 2 i 0.049 0.848 0.323 1. 0 0.0152 
Si1 Si4+ 2 i 0.096 0.222 0.145 1. 0 0.0152 
Si2 Si4+ 2 i 0.235 0.484 0.284 1. 0 0.0152 
Si3 Si4+ 2 i 0.442 0.196 0.511 1. 0 0.0152 
O1 O2- 2 i 0.236 0.251 -.027 1. 0 0.0152 
O2 O2- 2 i -.098 0.114 0.102 1. 0 0.0152 
O3 O2- 2 i 0.042 0.366 0.212 1. 0 0.0152 
O4 O2- 2 i 0.366 0.556 0.089 1. 0 0.0152 
O5 O2- 2 i 0.125 0.58 0.389 1. 0 0.0152 
O6 O2- 2 i 0.352 0.365 0.494 1. 0 0.0152 
O7 O2- 2 i 0.613 0.238 0.368 1. 0 0.0152 
O8 O2- 2 i 0.517 0.084 0.765 1. 0 0.0152 
O9 O2- 2 i 0.238 0.13 0.389 1. 0 0.0152 

#End of data_24426-ICSD


