data_4136-ICSD
#?2014 by Fachinformationszentrum Karlsruhe, and the U.S. Secretary of 
#Commerce on behalf of the United States.  All rights reserved.
_database_code_ICSD                4136
_audit_creation_date               1980/01/01
_chemical_name_systematic          'Dicalcium Heptahafnium Oxide'
_chemical_formula_structural       'Ca2 Hf7 O16'
_chemical_formula_sum              'Ca2 Hf7 O16'
_publ_section_title
;
The structure of the fluorite-related phase  Ca2 Hf7 O16
;
loop_
_citation_id
_citation_journal_abbrev
_citation_year
_citation_journal_volume
_citation_page_first
_citation_page_last
_citation_journal_id_ASTM
primary 'Journal of Solid State Chemistry' 1975 13 345 350 JSSCBI
_publ_author_name                  'Rossell, H.J.;Scott, H.G.'
_cell_length_a                     6.3294(3)
_cell_length_b                     6.3294(3)
_cell_length_c                     26.396(2)
_cell_angle_alpha                  90.
_cell_angle_beta                   90.
_cell_angle_gamma                  120.
_cell_volume                       915.79
_cell_formula_units_Z              3
_symmetry_space_group_name_H-M     'R -3 H'
_symmetry_Int_Tables_number        148
_refine_ls_R_factor_all            .0218
loop_
_symmetry_equiv_pos_site_id
_symmetry_equiv_pos_as_xyz
  1	'x-y, x, -z'
  2	'y, -x+y, -z'
  3	'-x, -y, -z'
  4	'-x+y, -x, z'
  5	'-y, x-y, z'
  6	'x, y, z'
  7	'x-y+.6666, x+.3333, -z+.3333'
  8	'x-y+.3333, x+.6666, -z+.6666'
  9	'y+.6666, -x+y+.3333, -z+.3333'
 10	'y+.3333, -x+y+.6666, -z+.6666'
 11	'-x+.6666, -y+.3333, -z+.3333'
 12	'-x+.3333, -y+.6666, -z+.6666'
 13	'-x+y+.6666, -x+.3333, z+.3333'
 14	'-x+y+.3333, -x+.6666, z+.6666'
 15	'-y+.6666, x-y+.3333, z+.3333'
 16	'-y+.3333, x-y+.6666, z+.6666'
 17	'x+.6666, y+.3333, z+.3333'
 18	'x+.3333, y+.6666, z+.6666'
loop_
_atom_type_symbol
_atom_type_oxidation_number
Ca2+	2
Hf4+	4
O2-	-2
loop_
_atom_site_label
_atom_site_type_symbol
_atom_site_symmetry_multiplicity
_atom_site_Wyckoff_symbol
_atom_site_fract_x
_atom_site_fract_y
_atom_site_fract_z
_atom_site_occupancy
_atom_site_attached_hydrogens
Hf1 Hf4+ 3 a 0 0 0 1. 0 
Hf2 Hf4+ 18 f -.001(2) 0.361(2) 0.1133(4) 1. 0 
Ca1 Ca2+ 6 c 0 0 0.3348(25) 1. 0 
O1 O2- 6 c 0 0 0.2465(56) 1. 0 
O2 O2- 6 c 0 0 0.4068(53) 1. 0 
O3 O2- 18 f -.006(18) 0.340(18) 0.0335(27) 1. 0 
O4 O2- 18 f -.003(19) 0.374(16) 0.1976(29) 1. 0 

#End of data_4136-ICSD


