data_185581-ICSD
#?2014 by Fachinformationszentrum Karlsruhe, and the U.S. Secretary of 
#Commerce on behalf of the United States.  All rights reserved.
_database_code_ICSD                185581
_audit_creation_date               2013/02/01
_chemical_name_systematic          'Dilithium Iron Silicate'
_chemical_formula_structural       'Li2 Fe (Si O4)'
_chemical_formula_sum              'Fe1 Li2 O4 Si1'
_publ_section_title
;
Insights into changes in voltage and structure of Li2 Fe Si O4 
polymorphs for lithium-ion batteries
;
loop_
_citation_id
_citation_journal_abbrev
_citation_year
_citation_journal_volume
_citation_journal_issue
_citation_page_first
_citation_page_last
_citation_journal_id_ASTM
primary 'Chemistry of Materials' 2012 24 11 2155 2161 CMATEX
_publ_author_name
;
Eames, C.;Armstrong, A.R.;Bruce, P.G.;Islam, M.S.
;
_cell_length_a                     6.528
_cell_length_b                     5.455
_cell_length_c                     5.047
_cell_angle_alpha                  90.
_cell_angle_beta                   90.7
_cell_angle_gamma                  90.
_cell_volume                       179.71
_cell_formula_units_Z              2
_symmetry_space_group_name_H-M     'P 1'
_symmetry_Int_Tables_number        1
loop_
_symmetry_equiv_pos_site_id
_symmetry_equiv_pos_as_xyz
  1	'x, y, z'
loop_
_atom_type_symbol
_atom_type_oxidation_number
Fe2+	2
Li1+	1
O2-	-2
Si4+	4
loop_
_atom_site_label
_atom_site_type_symbol
_atom_site_symmetry_multiplicity
_atom_site_Wyckoff_symbol
_atom_site_fract_x
_atom_site_fract_y
_atom_site_fract_z
_atom_site_occupancy
_atom_site_attached_hydrogens
Li1 Li1+ 1 a 0.0008 0.1531 0.9851 1. 0 
Li2 Li1+ 1 a 0.5008 0.8468 0.4851 1. 0 
Li3 Li1+ 1 a 0.7525 0.3218 0.4869 1. 0 
Li4 Li1+ 1 a 0.2525 0.6781 0.9869 1. 0 
O1 O2- 1 a 0.0021 0.1084 0.3847 1. 0 
O2 O2- 1 a 0.4988 0.1786 0.3169 1. 0 
O3 O2- 1 a 0.7181 0.3167 0.8884 1. 0 
O4 O2- 1 a 0.2827 0.3195 0.8858 1. 0 
O5 O2- 1 a 0.2181 0.6832 0.3884 1. 0 
O6 O2- 1 a 0.7827 0.6804 0.3858 1. 0 
O7 O2- 1 a 0.5021 0.8915 0.8847 1. 0 
O8 O2- 1 a -0.0011 0.8213 0.8169 1. 0 
Si1 Si4+ 1 a 0.5002 0.1767 -0.0088 1. 0 
Si2 Si4+ 1 a 0.0002 0.8232 0.4913 1. 0 
Fe1 Fe2+ 1 a 0.2444 0.3301 0.4867 1. 0 
Fe2 Fe2+ 1 a 0.7444 0.6698 0.9867 1. 0 

#End of data_185581-ICSD


