data_12114-ICSD
#?2014 by Fachinformationszentrum Karlsruhe, and the U.S. Secretary of 
#Commerce on behalf of the United States.  All rights reserved.
_database_code_ICSD                12114
_audit_creation_date               1980/01/01
_audit_update_record               1996/10/15
_chemical_name_systematic
;
Potassium Tetrakis(nitrato(III))mercurate Nitrate
;
_chemical_formula_structural       'K3 Hg (N O2)4 N O3'
_chemical_formula_sum              'Hg1 K3 N5 O11'
_publ_section_title
;
Refinement of the crystal and molecular structure of 
potassiumnitritomercurate(II) nitrate by neutron diffraction
;
loop_
_citation_id
_citation_journal_abbrev
_citation_year
_citation_journal_volume
_citation_page_first
_citation_page_last
_citation_journal_id_ASTM
primary
;
Journal of the Chemical Society. Dalton Transactions, Inorganic 
Chemistry (1972-)
;
 1976 1976 93 96 JCDTBI
_publ_author_name                  'Power, L.F.;King, J.A.;Moore, F.H.'
_cell_length_a                     12.290(6)
_cell_length_b                     10.644(1)
_cell_length_c                     9.377(1)
_cell_angle_alpha                  90.
_cell_angle_beta                   90.
_cell_angle_gamma                  90.
_cell_volume                       1226.65
_cell_formula_units_Z              4
_symmetry_space_group_name_H-M     'P n m a'
_symmetry_Int_Tables_number        62
_refine_ls_R_factor_all            .034
loop_
_symmetry_equiv_pos_site_id
_symmetry_equiv_pos_as_xyz
  1	'x+.5, y, -z+.5'
  2	'x, -y+.5, z'
  3	'-x+.5, y+.5, z+.5'
  4	'-x, -y, -z'
  5	'-x+.5, -y, z+.5'
  6	'-x, y+.5, -z'
  7	'x+.5, -y+.5, -z+.5'
  8	'x, y, z'
loop_
_atom_type_symbol
_atom_type_oxidation_number
Hg2+	2
K1+	1
N3+	3
N5+	5
O2-	-2
loop_
_atom_site_label
_atom_site_type_symbol
_atom_site_symmetry_multiplicity
_atom_site_Wyckoff_symbol
_atom_site_fract_x
_atom_site_fract_y
_atom_site_fract_z
_atom_site_occupancy
_atom_site_attached_hydrogens
K1 K1+ 4 c 0.01275(23) 0.25 0.59945(24) 1. 0 
K2 K1+ 8 d 0.29992(18) 0.00642(15) 0.43734(17) 1. 0 
Hg1 Hg2+ 4 c 0.08864(7) 0.25 0.18818(6) 1. 0 
N1 N3+ 8 d 0.03750(7) 0.00473(6) 0.30330(7) 1. 0 
N2 N3+ 4 c 0.33102(10) 0.25 0.15836(11) 1. 0 
N3 N3+ 4 c -.03019(12) 0.25 -.08115(9) 1. 0 
N4 N5+ 4 c 0.24822(9) 0.25 0.73404(9) 1. 0 
O1 O2- 8 d 0.02218(14) 0.02882(11) 0.17639(13) 1. 0 
O2 O2- 8 d 0.07835(13) 0.09270(11) 0.37312(12) 1. 0 
O3 O2- 8 d 0.27716(13) 0.15226(10) 0.16651(13) 1. 0 
O4 O2- 4 c -.08229(16) 0.25 0.03104(18) 1. 0 
O5 O2- 4 c 0.07087(22) 0.25 -.06610(17) 1. 0 
O6 O2- 8 d 0.22128(12) 0.14921(10) 0.67886(12) 1. 0 
O7 O2- 4 c 0.29761(18) 0.25 0.84903(18) 1. 0 

#End of data_12114-ICSD


