data_245413-ICSD
#?2014 by Fachinformationszentrum Karlsruhe, and the U.S. Secretary of 
#Commerce on behalf of the United States.  All rights reserved.
_database_code_ICSD                245413
_audit_creation_date               2008/02/01
_chemical_name_systematic          'Tetrasodium Tetraoxocarbonate'
_chemical_formula_structural       'Na4 (C O4)'
_chemical_formula_sum              'C1 Na4 O4'
_publ_section_title
;
Possible existence of alkali metal orthocarbonates at high pressure
;
loop_
_citation_id
_citation_journal_abbrev
_citation_year
_citation_journal_volume
_citation_journal_issue
_citation_page_first
_citation_page_last
_citation_journal_id_ASTM
primary 'Chemistry - A European Journal' 2007 13 26 7330 7348 CEUJED
_publ_author_name
;
Cancarevic, Z.;Schoen, J.C.;Jansen, M.
;
_cell_length_a                     5.89419
_cell_length_b                     6.62708
_cell_length_c                     4.47056
_cell_angle_alpha                  90
_cell_angle_beta                   91.86530
_cell_angle_gamma                  90
_cell_volume                       174.53
_cell_formula_units_Z              2
_symmetry_space_group_name_H-M     'C 1 m 1'
_symmetry_Int_Tables_number        8
loop_
_symmetry_equiv_pos_site_id
_symmetry_equiv_pos_as_xyz
  1	'x, -y, z'
  2	'x, y, z'
  3	'x+.5, -y+.5, z'
  4	'x+.5, y+.5, z'
loop_
_atom_type_symbol
_atom_type_oxidation_number
C4+	4
Na1+	1
O2-	-2
loop_
_atom_site_label
_atom_site_type_symbol
_atom_site_symmetry_multiplicity
_atom_site_Wyckoff_symbol
_atom_site_fract_x
_atom_site_fract_y
_atom_site_fract_z
_atom_site_occupancy
_atom_site_attached_hydrogens
C1 C4+ 2 a 0.99963 0 0.43508 1. 0 
O1 O2- 2 a 0.16335 0 0.18105 1. 0 
O2 O2- 2 a 0.76084 0 0.30381 1. 0 
O3 O2- 4 b 0.03738 0.18733 0.62191 1. 0 
Na1 Na1+ 4 b 0.95459 0.72226 0.14556 1. 0 
Na2 Na1+ 2 a 0.74955 0 0.79700 1. 0 
Na3 Na1+ 2 a 0.34410 0 0.61765 1. 0 

#End of data_245413-ICSD


