data_65815-ICSD
#?2014 by Fachinformationszentrum Karlsruhe, and the U.S. Secretary of 
#Commerce on behalf of the United States.  All rights reserved.
_database_code_ICSD                65815
_audit_creation_date               1990/12/27
_chemical_name_systematic          'Potassium Erbium Tetraphosphate'
_chemical_formula_structural       'K Er (P4 O12)'
_chemical_formula_sum              'Er1 K1 O12 P4'
_publ_section_title
;
Crystal structure of a new polymorphic modification of K Er P4 O12
;
loop_
_citation_id
_citation_journal_abbrev
_citation_year
_citation_journal_volume
_citation_page_first
_citation_page_last
_citation_journal_id_ASTM
primary Kristallografiya 1989 34 1006 1008 KRISAJ
2 'Soviet Physics, Crystallography (= Kristallografiya)'
 1989 34 607 608 SPHCA6
_publ_author_name                  'Karpov, O.G.;Dorokhova, G.I.'
_cell_length_a                     11.75(1)
_cell_length_b                     10.325(2)
_cell_length_c                     17.31(1)
_cell_angle_alpha                  90.
_cell_angle_beta                   90.
_cell_angle_gamma                  90.
_cell_volume                       2100.03
_cell_formula_units_Z              8
_symmetry_space_group_name_H-M     'C 2 2 21'
_symmetry_Int_Tables_number        20
_refine_ls_R_factor_all            .054
loop_
_symmetry_equiv_pos_site_id
_symmetry_equiv_pos_as_xyz
  1	'-x, y, -z+.5'
  2	'-x, -y, z+.5'
  3	'x, -y, -z'
  4	'x, y, z'
  5	'-x+.5, y+.5, -z+.5'
  6	'-x+.5, -y+.5, z+.5'
  7	'x+.5, -y+.5, -z'
  8	'x+.5, y+.5, z'
loop_
_atom_type_symbol
_atom_type_oxidation_number
Er3+	3
K1+	1
O2-	-2
P5+	5
loop_
_atom_site_label
_atom_site_type_symbol
_atom_site_symmetry_multiplicity
_atom_site_Wyckoff_symbol
_atom_site_fract_x
_atom_site_fract_y
_atom_site_fract_z
_atom_site_occupancy
_atom_site_attached_hydrogens
_atom_site_B_iso_or_equiv
Er1 Er3+ 8 c 0.18645(7) 0.21563(8) 0.10754(5) 1. 0 0.56(1) 
K1 K1+ 8 c 0.1331(5) 0.1050(5) 0.3832(3) 1. 0 2.11(9) 
P1 P5+ 8 c 0.4824(4) 0.1964(5) 0.0556(3) 1. 0 0.61(8) 
P2 P5+ 8 c 0.3497(4) 0.3855(4) 0.4071(3) 1. 0 0.60(8) 
P3 P5+ 4 b 0 0.3532(7) 0.25 1. 0 0.5(1) 
P4 P5+ 4 a 0.3657(7) 0 0.5 1. 0 0.7(1) 
P5 P5+ 8 c 0.2306(4) 0.4513(5) 0.2642(3) 1. 0 0.56(7) 
O1 O2- 8 c 0.033(1) 0.274(1) 0.181(7) 1. 0 0.9(2) 
O2 O2- 8 c 0.095(1) 0.453(1) 0.274(8) 1. 0 0.9(2) 
O3 O2- 8 c 0.447(1) 0.285(2) 0.386(8) 1. 0 1.4(4) 
O4 O2- 8 c 0.449(1) 0.063(1) 0.438(8) 1. 0 1.1(2) 
O5 O2- 8 c 0.008(1) 0.248(1) 0.477(8) 1. 0 1.6(3) 
O6 O2- 8 c 0.370(1) 0.175(1) 0.094(9) 1. 0 1.7(3) 
O7 O2- 8 c 0.100(1) 0.017(1) 0.097(8) 1. 0 0.7(2) 
O8 O2- 8 c 0.287(1) 0.344(1) 0.478(8) 1. 0 1.3(3) 
O9 O2- 8 c 0.263(1) 0.363(1) 0.338(8) 1. 0 1.3(3) 
O10 O2- 8 c 0.206(1) 0.403(1) 0.041(8) 1. 0 1.1(2) 
O11 O2- 8 c 0.260(1) 0.382(1) 0.192(8) 1. 0 1.3(3) 
O12 O2- 8 c 0.227(1) 0.082(1) 0.223(8) 1. 0 1.0(2) 

#End of data_65815-ICSD


