data_20373-ICSD
#?2014 by Fachinformationszentrum Karlsruhe, and the U.S. Secretary of 
#Commerce on behalf of the United States.  All rights reserved.
_database_code_ICSD                20373
_audit_creation_date               1980/01/01
_audit_update_record               2010/02/01
_chemical_name_systematic
;
Calcium Diberyllium Bis(phosphate(V))
;
_chemical_formula_structural       'Ca Be2 (P O4)2'
_chemical_formula_sum              'Be2 Ca1 O8 P2'
_chemical_name_mineral             Hurlbutite
_publ_section_title
;
The crystal structure of hurlbutite
;
loop_
_citation_id
_citation_journal_abbrev
_citation_year
_citation_journal_volume
_citation_page_first
_citation_page_last
_citation_journal_id_ASTM
primary 'Doklady Akademii Nauk SSSR' 1960 135 587 590 DANKAS
_publ_author_name                  'Bakakin, V.V.;Belov, N.V.'
_cell_length_a                     8.29
_cell_length_b                     8.8
_cell_length_c                     7.81
_cell_angle_alpha                  90.
_cell_angle_beta                   90.
_cell_angle_gamma                  90.
_cell_volume                       569.76
_cell_formula_units_Z              4
_symmetry_space_group_name_H-M     'P 1 21/a 1'
_symmetry_Int_Tables_number        14
_refine_ls_R_factor_all            .14
loop_
_symmetry_equiv_pos_site_id
_symmetry_equiv_pos_as_xyz
  1	'x+.5, -y+.5, z'
  2	'-x, -y, -z'
  3	'-x+.5, y+.5, -z'
  4	'x, y, z'
loop_
_atom_type_symbol
_atom_type_oxidation_number
Be2+	2
Ca2+	2
O2-	-2
P5+	5
loop_
_atom_site_label
_atom_site_type_symbol
_atom_site_symmetry_multiplicity
_atom_site_Wyckoff_symbol
_atom_site_fract_x
_atom_site_fract_y
_atom_site_fract_z
_atom_site_occupancy
_atom_site_attached_hydrogens
Ca1 Ca2+ 4 e 0.386 0.085 0.753 1. 0 
Be1 Be2+ 4 e 0.059 0.196 0.435 1. 0 
Be2 Be2+ 4 e 0.265 0.421 0.933 1. 0 
P1 P5+ 4 e 0.264 0.418 0.56 1. 0 
P2 P5+ 4 e 0.059 0.197 0.06 1. 0 
O1 O2- 4 e 0.188 0.083 0.508 1. 0 
O2 O2- 4 e 0.189 0.085 0.993 1. 0 
O3 O2- 4 e 0.121 0.367 0.438 1. 0 
O4 O2- 4 e 0.126 0.364 0.055 1. 0 
O5 O2- 4 e 0.412 0.308 0.565 1. 0 
O6 O2- 4 e 0.415 0.309 0.931 1. 0 
O7 O2- 4 e 0.006 0.15 0.247 1. 0 
O8 O2- 4 e 0.184 0.421 0.745 1. 0 

#End of data_20373-ICSD


