data_63415-ICSD
#?2014 by Fachinformationszentrum Karlsruhe, and the U.S. Secretary of 
#Commerce on behalf of the United States.  All rights reserved.
_database_code_ICSD                63415
_audit_creation_date               1990/12/27
_audit_update_record               2003/04/01
_chemical_name_systematic          'Cesium Lithium Chromate(VI)'
_chemical_formula_structural       'Cs Li (Cr O4)'
_chemical_formula_sum              'Cr1 Cs1 Li1 O4'
_publ_section_title
;
X-ray structural and optical investigations of phase transition in 
the crystal of Cs Li Cr O4
;
loop_
_citation_id
_citation_journal_abbrev
_citation_year
_citation_journal_volume
_citation_page_first
_citation_page_last
_citation_journal_id_ASTM
primary Kristallografiya 1989 34 147 153 KRISAJ
2 'Soviet Physics, Crystallography (= Kristallografiya)'
 1989 34 85 89 SPHCA6
3 'Phase Transition' 1992 38 127 220 PHTRDP
_publ_author_name
;
Aleksandrov, K.S.;Mel'nikova, S.V.;Kruglik, A.I.;Tret'yak, 
S.M.;Mitkevich, V.V.
;
_cell_length_a                     9.744(2)
_cell_length_b                     5.636(1)
_cell_length_c                     8.956(3)
_cell_angle_alpha                  90.
_cell_angle_beta                   90.
_cell_angle_gamma                  90.43(2)
_cell_volume                       491.82
_cell_formula_units_Z              4
_symmetry_space_group_name_H-M     'P 1 1 21/n'
_symmetry_Int_Tables_number        14
_refine_ls_R_factor_all            .06
loop_
_symmetry_equiv_pos_site_id
_symmetry_equiv_pos_as_xyz
  1	'x+.5, y+.5, -z+.5'
  2	'-x, -y, -z'
  3	'-x+.5, -y+.5, z+.5'
  4	'x, y, z'
loop_
_atom_type_symbol
_atom_type_oxidation_number
Cr6+	6
Cs1+	1
Li1+	1
O2-	-2
loop_
_atom_site_label
_atom_site_type_symbol
_atom_site_symmetry_multiplicity
_atom_site_Wyckoff_symbol
_atom_site_fract_x
_atom_site_fract_y
_atom_site_fract_z
_atom_site_occupancy
_atom_site_attached_hydrogens
_atom_site_U_iso_or_equiv
Cs1 Cs1+ 4 e 0.2207(1) 0.2653(1) -.0021(1) 1. 0 0.0176(3) 
Cr1 Cr6+ 4 e 0.0749(1) 0.7598(2) 0.7091(1) 1. 0 0.0057(4) 
O1 O2- 4 e 0.0363(9) 0.4961(12) 0.7766(10) 1. 0 0.026(4) 
O2 O2- 4 e 0.0738(11) 0.7340(17) 0.5291(9) 1. 0 0.030(4) 
O3 O2- 4 e -.0418(8) 0.9505(14) 0.7651(10) 1. 0 0.026(4) 
O4 O2- 4 e 0.2259(7) 0.8442(7) 0.7715(11) 1. 0 0.030(4) 
Li1 Li1+ 4 e 0.091(5) 0.727(8) 0.320(3) 1. 0 0.019(9) 

#End of data_63415-ICSD


