data_87557-ICSD
#?2014 by Fachinformationszentrum Karlsruhe, and the U.S. Secretary of 
#Commerce on behalf of the United States.  All rights reserved.
_database_code_ICSD                87557
_audit_creation_date               2000/12/16
_audit_update_record               2006/04/01
_chemical_name_systematic          'Sodium Tecto-zincophosphate(V)'
_chemical_formula_structural       'Na (Zn P O4)'
_chemical_formula_sum              'Na1 O4 P1 Zn1'
_publ_section_title
;
Monoclinic Na Zn P O4 - ABW, a new modification of the zeolite ABW 
structure type containing elliptical eight-ring channels
;
loop_
_citation_id
_citation_journal_abbrev
_citation_year
_citation_journal_volume
_citation_page_first
_citation_page_last
_citation_journal_id_ASTM
primary 'Microporous and Mesoporous Materials' 1998 23 197 202 MIMMFJ
2 'Golden Book of Phase Transitions, Wroclaw' 2002 1 1 123 GBOPT5
_publ_author_name                  'Ng, H.Y.;Harrison, W.T.A.'
_cell_length_a                     5.2210(7)
_cell_length_b                     10.019(2)
_cell_length_c                     7.365(1)
_cell_angle_alpha                  90.
_cell_angle_beta                   90.25(1)
_cell_angle_gamma                  90.
_cell_volume                       385.25
_cell_formula_units_Z              4
_symmetry_space_group_name_H-M     'P 1 21/n 1'
_symmetry_Int_Tables_number        14
_refine_ls_R_factor_all            .02
loop_
_symmetry_equiv_pos_site_id
_symmetry_equiv_pos_as_xyz
  1	'-x+.5, y+.5, -z+.5'
  2	'-x, -y, -z'
  3	'x+.5, -y+.5, z+.5'
  4	'x, y, z'
loop_
_atom_type_symbol
_atom_type_oxidation_number
Na1+	1
O2-	-2
P5+	5
Zn2+	2
loop_
_atom_site_label
_atom_site_type_symbol
_atom_site_symmetry_multiplicity
_atom_site_Wyckoff_symbol
_atom_site_fract_x
_atom_site_fract_y
_atom_site_fract_z
_atom_site_occupancy
_atom_site_attached_hydrogens
_atom_site_U_iso_or_equiv
Na1 Na1+ 4 e 0.7175(2) 0.3832(1) 0.0174(1) 1. 0 0.0176 
Zn1 Zn2+ 4 e 0.20453(6) 0.16874(3) 0.00870(4) 1. 0 0.0104 
P1 P5+ 4 e 0.2018(1) 0.40108(6) 0.28126(8) 1. 0 0.0083 
O1 O2- 4 e 0.2405(4) 0.0505(2) 0.2146(3) 1. 0 0.0173 
O2 O2- 4 e 0.2805(3) 0.3539(2) 0.0890(2) 1. 0 0.0134 
O3 O2- 4 e 0.8477(3) 0.1735(2) -.0698(3) 1. 0 0.0157 
O4 O2- 4 e 0.4139(3) 0.1268(2) 0.8008(3) 1. 0 0.0158 

#End of data_87557-ICSD


