data_109093-ICSD
#?2014 by Fachinformationszentrum Karlsruhe, and the U.S. Secretary of 
#Commerce on behalf of the United States.  All rights reserved.
_database_code_ICSD                109093
_audit_creation_date               2007/04/01
_chemical_name_systematic          'Dizinc Titanate'
_chemical_formula_structural       'Zn2 (Ti O4)'
_chemical_formula_sum              'O4 Ti1 Zn2'
_chemical_name_mineral             Spinel-(Ti,Zn)
_publ_section_title
;
Etude structurale des formes ordonnees des orthotitanates de zind et 
de manganese
;
loop_
_citation_id
_citation_journal_abbrev
_citation_year
_citation_journal_volume
_citation_page_first
_citation_page_last
_citation_journal_id_ASTM
primary 'Bulletin de la Societe Chimique de France (Vol=Year)'
 1966 1966 246 250 BSCFAS
_publ_author_name
;
Vincent, H.;Joubert, J.C.;Durif, A.
;
_cell_length_a                     6.005(3)
_cell_length_b                     6.005(3)
_cell_length_c                     8.416(3)
_cell_angle_alpha                  90.
_cell_angle_beta                   90.
_cell_angle_gamma                  90.
_cell_volume                       303.48
_cell_formula_units_Z              4
_symmetry_space_group_name_H-M     'P 41 2 2'
_symmetry_Int_Tables_number        91
_refine_ls_R_factor_all            .13
loop_
_symmetry_equiv_pos_site_id
_symmetry_equiv_pos_as_xyz
  1	'y, x, -z+.75'
  2	'-y, -x, -z+.25'
  3	'x, -y, -z+.5'
  4	'-x, y, -z'
  5	'y, -x, z+.75'
  6	'-y, x, z+.25'
  7	'-x, -y, z+.5'
  8	'x, y, z'
loop_
_atom_type_symbol
_atom_type_oxidation_number
O2-	-2
Ti4+	4
Zn2+	2
loop_
_atom_site_label
_atom_site_type_symbol
_atom_site_symmetry_multiplicity
_atom_site_Wyckoff_symbol
_atom_site_fract_x
_atom_site_fract_y
_atom_site_fract_z
_atom_site_occupancy
_atom_site_attached_hydrogens
Zn1 Zn2+ 4 c 0.246(38) 0.246 0.375 1. 0 
Zn2 Zn2+ 4 a 0 0.233(12) 0 1. 0 
Ti1 Ti4+ 4 b 0.5 0.246(32) 0 1. 0 
O1 O2- 8 d -.025 0.730 0.250 1. 0 
O2 O2- 8 d 0.513 0.264 0.231 1. 0 

#End of data_109093-ICSD


