data_80978-ICSD
#?2014 by Fachinformationszentrum Karlsruhe, and the U.S. Secretary of 
#Commerce on behalf of the United States.  All rights reserved.
_database_code_ICSD                80978
_audit_creation_date               1997/05/13
_chemical_name_systematic          'Dipotassium Nickel Diphosphate'
_chemical_formula_structural       'K2 Ni (P2 O7)'
_chemical_formula_sum              'K2 Ni1 O7 P2'
_publ_section_title
;
Crystal structures of the new diphosphates, K2 Ni P2 O7 and K6 Sr2 
Ni5 (P2 O7)5
;
loop_
_citation_id
_citation_journal_abbrev
_citation_year
_citation_journal_volume
_citation_journal_issue
_citation_page_first
_citation_page_last
_citation_journal_id_ASTM
primary 'Journal of Chemical Crystallography' 1995 25 9 531 536 JCCYEV
_publ_author_name
;
ElMaadi, A.;Boukhari, A.;Holt, E.M.
;
_cell_length_a                     9.230(2)
_cell_length_b                     17.5400(80)
_cell_length_c                     8.319(3)
_cell_angle_alpha                  90.
_cell_angle_beta                   91.44(2)
_cell_angle_gamma                  90.
_cell_volume                       1346.37
_cell_formula_units_Z              8
_symmetry_space_group_name_H-M     'P 1 21 1'
_symmetry_Int_Tables_number        4
_refine_ls_R_factor_all            .065
loop_
_symmetry_equiv_pos_site_id
_symmetry_equiv_pos_as_xyz
  1	'-x, y+.5, -z'
  2	'x, y, z'
loop_
_atom_type_symbol
_atom_type_oxidation_number
K1+	1
Ni2+	2
O2-	-2
P5+	5
loop_
_atom_site_label
_atom_site_type_symbol
_atom_site_symmetry_multiplicity
_atom_site_Wyckoff_symbol
_atom_site_fract_x
_atom_site_fract_y
_atom_site_fract_z
_atom_site_occupancy
_atom_site_attached_hydrogens
Ni1 Ni2+ 2 a 0.5788(4) 0.2916(3) 0.3952(4) 1. 0 
Ni2 Ni2+ 2 a 0.5765(4) 0.5381(3) 0.5968(4) 1. 0 
Ni3 Ni2+ 2 a 0.4186(4) 0.5354(3) 0.8836(3) 1. 0 
Ni4 Ni2+ 2 a 0.4127(4) 0.2902(3) 0.0994(4) 1. 0 
K1 K1+ 2 a 0.2485(8) 0.9299(5) 0.0592(8) 1. 0 
K2 K1+ 2 a 0.0976(9) 0.7735(6) 0.3170(9) 1. 0 
K3 K1+ 2 a 0.1922(12) 0.5425(7) 0.1944(10) 1. 0 
K4 K1+ 2 a -.0019(7) 0.0358(5) 0.2762(8) 1. 0 
K5 K1+ 2 a 0.4981(8) 0.1756(5) 0.7523(8) 1. 0 
K6 K1+ 2 a 0.0021(7) 0.2985(5) 0.2119(7) 1. 0 
K7 K1+ 2 a 0.2454(8) 0.3941(5) 0.4476(9) 1. 0 
K8 K1+ 2 a 0.8760(9) 0.6052(5) 0.304(1) 1. 0 
P1 P5+ 2 a 0.4542(8) 0.3652(5) 0.7524(8) 1. 0 
P2 P5+ 2 a 0.1829(8) 0.3981(5) 0.9100(9) 1. 0 
P3 P5+ 2 a 0.7414(9) 0.6281(5) 0.9061(9) 1. 0 
P4 P5+ 2 a 0.7401(9) 0.7023(5) 0.5975(9) 1. 0 
P5 P5+ 2 a 0.8110(9) 0.4328(5) 0.4214(9) 1. 0 
P6 P5+ 2 a 0.5413(8) 0.4651(4) 0.2500(8) 1. 0 
P7 P5+ 2 a 0.7386(9) 0.1356(5) 0.4137(9) 1. 0 
P8 P5+ 2 a 0.7257(9) 0.2006(5) 0.0952(9) 1. 0 
O1 O2- 2 a 0.4974(21) 0.4540(11) 0.7446(24) 1. 0 
O2 O2- 2 a 0.5089(22) 0.3293(11) 0.8984(22) 1. 0 
O3 O2- 2 a 0.4820(23) 0.3310(12) 0.6019(24) 1. 0 
O4 O2- 2 a 0.2768(20) 0.3621(11) 0.7644(22) 1. 0 
O5 O2- 2 a 0.2238(20) 0.4823(11) 0.9175(22) 1. 0 
O6 O2- 2 a 0.2315(19) 0.3578(11) 0.0600(21) 1. 0 
O7 O2- 2 a 0.0303(21) 0.3835(12) 0.8641(23) 1. 0 
O8 O2- 2 a 0.6212(23) 0.5825(11) 0.8293(23) 1. 0 
O9 O2- 2 a 0.8612(22) 0.5861(12) 0.9981(25) 1. 0 
O10 O2- 2 a 0.6828(24) 0.6958(12) 0.0047(23) 1. 0 
O11 O2- 2 a 0.8264(21) 0.6660(17) 0.7517(23) 1. 0 
O12 O2- 2 a 0.6707(20) 0.6314(10) 0.5081(21) 1. 0 
O13 O2- 2 a 0.6320(19) 0.7529(10) 0.6673(20) 1. 0 
O14 O2- 2 a 0.8544(22) 0.7381(11) 0.5040(23) 1. 0 
O15 O2- 2 a 0.7737(19) 0.3482(11) 0.4275(23) 1. 0 
O16 O2- 2 a 0.7717(22) 0.4809(11) 0.5664(23) 1. 0 
O17 O2- 2 a 0.9667(20) 0.4518(11) 0.3748(23) 1. 0 
O18 O2- 2 a 0.7156(18) 0.4686(10) 0.2666(19) 1. 0 
O19 O2- 2 a 0.4940(22) 0.3773(13) 0.2636(24) 1. 0 
O20 O2- 2 a 0.4786(21) 0.5019(12) 0.3849(23) 1. 0 
O21 O2- 2 a 0.5104(23) 0.5024(13) 0.0923(25) 1. 0 
O22 O2- 2 a 0.8556(20) 0.1029(11) 0.5159(23) 1. 0 
O23 O2- 2 a 0.6679(21) 0.2043(12) 0.5004(24) 1. 0 
O24 O2- 2 a 0.6303(21) 0.0843(11) 0.3430(22) 1. 0 
O25 O2- 2 a 0.8186(21) 0.1706(15) 0.2576(24) 1. 0 
O26 O2- 2 a 0.6571(22) 0.1295(11) 0.0071(23) 1. 0 
O27 O2- 2 a 0.8324(22) 0.2366(12) -.0092(25) 1. 0 
O28 O2- 2 a 0.6071(25) 0.2448(13) 0.1747(28) 1. 0 

#End of data_80978-ICSD


