data_43485-ICSD
#?2014 by Fachinformationszentrum Karlsruhe, and the U.S. Secretary of 
#Commerce on behalf of the United States.  All rights reserved.
_database_code_ICSD                43485
_audit_creation_date               2000/07/15
_audit_update_record               2006/04/01
_chemical_name_systematic          'Sodium Nitrate(III)'
_chemical_formula_structural       'Na (N O2)'
_chemical_formula_sum              'N1 Na1 O2'
_publ_section_title
;
X-ray and neutron study of the phase transformation of Na N O2
;
loop_
_citation_id
_citation_journal_abbrev
_citation_year
_citation_journal_volume
_citation_page_first
_citation_page_last
_citation_journal_id_ASTM
primary 'Journal of the Physical Society of Japan, Supplement B2'
 1962 17 389 391 JUPJ2U
2 'Phase Transition' 1992 38 127 220 PHTRDP
_publ_author_name                  'Kay, M.I.;Frazer, B.C.;Ueda, R.'
_cell_length_a                     3.569
_cell_length_b                     5.563
_cell_length_c                     5.384
_cell_angle_alpha                  90.
_cell_angle_beta                   90.
_cell_angle_gamma                  90.
_cell_volume                       106.9
_cell_formula_units_Z              2
_symmetry_space_group_name_H-M     'I m 2 m'
_symmetry_Int_Tables_number        44
_refine_ls_R_factor_all            .027
loop_
_symmetry_equiv_pos_site_id
_symmetry_equiv_pos_as_xyz
  1	'x, y, -z'
  2	'-x, y, z'
  3	'-x, y, -z'
  4	'x, y, z'
  5	'x+.5, y+.5, -z+.5'
  6	'-x+.5, y+.5, z+.5'
  7	'-x+.5, y+.5, -z+.5'
  8	'x+.5, y+.5, z+.5'
loop_
_atom_type_symbol
_atom_type_oxidation_number
N3+	3
Na1+	1
O2-	-2
loop_
_atom_site_label
_atom_site_type_symbol
_atom_site_symmetry_multiplicity
_atom_site_Wyckoff_symbol
_atom_site_fract_x
_atom_site_fract_y
_atom_site_fract_z
_atom_site_occupancy
_atom_site_attached_hydrogens
Na1 Na1+ 2 a 0 0.5437 0 1. 0 
N1 N3+ 2 a 0 0.0783 0 1. 0 
O1 O2- 4 c 0 -.0416 0.1941 1. 0 

#End of data_43485-ICSD


