data_262588-ICSD
#?2014 by Fachinformationszentrum Karlsruhe, and the U.S. Secretary of 
#Commerce on behalf of the United States.  All rights reserved.
_database_code_ICSD                262588
_audit_creation_date               2012/08/01
_chemical_name_systematic          'Dipotassium Tricyanoborate'
_chemical_formula_structural       'K2 (B (C N)3)'
_chemical_formula_sum              'C3 B1 K2 N3'
_publ_section_title
;
"Umpolung" at boron by reduction of [B (C N)4]- and formation of the 
dianion [B (C N)3]2-
;
loop_
_citation_id
_citation_journal_abbrev
_citation_year
_citation_journal_volume
_citation_journal_issue
_citation_page_first
_citation_page_last
_citation_journal_id_ASTM
primary 'Angewandte Chemie. International Edition' 2011 50 50 12085 12088 ACIEF5
_publ_author_name
;
Bernhardt, E.;Bernhardt-Pitchougina, V.;Willner, H.;Ignatiev, N.
;
_cell_length_a                     13.4507(8)
_cell_length_b                     10.5300(6)
_cell_length_c                     8.9576(5)
_cell_angle_alpha                  90.00
_cell_angle_beta                   90.00
_cell_angle_gamma                  90.00
_cell_volume                       1268.72
_cell_formula_units_Z              8
_symmetry_space_group_name_H-M     'F d d 2'
_symmetry_Int_Tables_number        43
_refine_ls_R_factor_all            .0144
loop_
_symmetry_equiv_pos_site_id
_symmetry_equiv_pos_as_xyz
  1	'x+.25, -y+.25, z+.25'
  2	'-x+.25, y+.25, z+.25'
  3	'-x, -y, z'
  4	'x, y, z'
  5	'x+.25, -y+.75, z+.75'
  6	'x+.75, -y+.25, z+.75'
  7	'x+.75, -y+.75, z+.25'
  8	'-x+.25, y+.75, z+.75'
  9	'-x+.75, y+.25, z+.75'
 10	'-x+.75, y+.75, z+.25'
 11	'-x, -y+.5, z+.5'
 12	'-x+.5, -y, z+.5'
 13	'-x+.5, -y+.5, z'
 14	'x, y+.5, z+.5'
 15	'x+.5, y, z+.5'
 16	'x+.5, y+.5, z'
loop_
_atom_type_symbol
_atom_type_oxidation_number
B3+	3
C1.35+	1.35
K1+	1
N3-	-3
loop_
_atom_site_label
_atom_site_type_symbol
_atom_site_symmetry_multiplicity
_atom_site_Wyckoff_symbol
_atom_site_fract_x
_atom_site_fract_y
_atom_site_fract_z
_atom_site_occupancy
_atom_site_attached_hydrogens
_atom_site_U_iso_or_equiv
K1 K1+ 16 b 0.204729(16) 0.08235(2) 0.49623(3) 1 0 0.01748(9) 
B1 B3+ 8 a 0.0000 0.0000 0.78723(18) 1 0 0.0160(3) 
C1 C1.35+ 8 a 0.0000 0.0000 0.61880(19) 1 0 0.0145(3) 
N1 N3- 8 a 0.0000 0.0000 0.48857(17) 1 0 0.0203(3) 
C2 C1.35+ 16 b -0.05840(8) 0.10058(10) 0.87055(13) 1 0 0.0149(2) 
N2 N3- 16 b -0.10114(8) 0.18100(9) 0.93250(12) 1 0 0.0192(2) 

loop_
_atom_site_aniso_label
_atom_site_aniso_type_symbol
_atom_site_aniso_U_11
_atom_site_aniso_U_22
_atom_site_aniso_U_33
_atom_site_aniso_U_12
_atom_site_aniso_U_13
_atom_site_aniso_U_23
K1 K1+ 0.01630(12) 0.01723(12) 0.01890(12) 0.00002(8) -0.00419(10) 
0.00039(9)
B1 B3+ 0.0200(9) 0.0144(7) 0.0138(8) 0.0012(7) 0.000 0.000
C1 C1.35+ 0.0113(7) 0.0146(7) 0.0176(8) 0.0003(5) 0.000 0.000
N1 N3- 0.0172(6) 0.0265(6) 0.0173(7) 0.0010(5) 0.000 0.000
C2 C1.35+ 0.0162(5) 0.0164(5) 0.0122(5) -0.0025(4) -0.0004(4) 0.0033(4)
N2 N3- 0.0218(5) 0.0192(5) 0.0166(5) 0.0021(4) 0.0024(4) 0.0023(3)
#End of data_262588-ICSD


