data_202076-ICSD
#?2014 by Fachinformationszentrum Karlsruhe, and the U.S. Secretary of 
#Commerce on behalf of the United States.  All rights reserved.
_database_code_ICSD                202076
_audit_creation_date               1988/12/19
_audit_update_record               1993/07/07
_chemical_name_systematic
;
Dicesium Dipotassium Pentaoxotellurate(VI)
;
_chemical_formula_structural       'Cs2 K2 Te O5'
_chemical_formula_sum              'Cs2 K2 O5 Te1'
_publ_section_title
;
Die Koordinationszahl 5 bei Telluraten: Cs2 K2 [Te O5]
;
loop_
_citation_id
_citation_journal_abbrev
_citation_year
_citation_journal_volume
_citation_page_first
_citation_page_last
_citation_journal_id_ASTM
primary 'Journal of the Less-Common Metals' 1986 124 29 40 JCOMAH
_publ_author_name                  'Untenecker, H.;Hoppe, R.'
_cell_length_a                     9.162(1)
_cell_length_b                     9.162(1)
_cell_length_c                     9.592(1)
_cell_angle_alpha                  90.
_cell_angle_beta                   90.
_cell_angle_gamma                  90.
_cell_volume                       805.17
_cell_formula_units_Z              4
_symmetry_space_group_name_H-M     'P 42/m n m'
_symmetry_Int_Tables_number        136
_refine_ls_R_factor_all            .096
loop_
_symmetry_equiv_pos_site_id
_symmetry_equiv_pos_as_xyz
  1	'-y+.5, x+.5, -z+.5'
  2	'y+.5, -x+.5, -z+.5'
  3	'y, x, -z'
  4	'-y, -x, -z'
  5	'y+.5, -x+.5, z+.5'
  6	'-y+.5, x+.5, z+.5'
  7	'-y, -x, z'
  8	'y, x, z'
  9	'x+.5, -y+.5, -z+.5'
 10	'-x+.5, y+.5, -z+.5'
 11	'x, y, -z'
 12	'-x, -y, -z'
 13	'-x+.5, y+.5, z+.5'
 14	'x+.5, -y+.5, z+.5'
 15	'-x, -y, z'
 16	'x, y, z'
loop_
_atom_type_symbol
_atom_type_oxidation_number
Cs1+	1
K1+	1
O2-	-2
Te6+	6
loop_
_atom_site_label
_atom_site_type_symbol
_atom_site_symmetry_multiplicity
_atom_site_Wyckoff_symbol
_atom_site_fract_x
_atom_site_fract_y
_atom_site_fract_z
_atom_site_occupancy
_atom_site_attached_hydrogens
Cs1 Cs1+ 4 g 0.1662(1) 0.8338(1) 0 1. 0 
Cs2 Cs1+ 4 d 0 0.5 0.25 1. 0 
Te1 Te6+ 4 f 0.3082(1) 0.3082(1) 0 1. 0 
K1 K1+ 8 j 0.1231(3) 0.1231(3) 0.7164(4) 1. 0 
O1 O2- 8 i 0.7688(15) 0.5012(14) 0 1. 0 
O2 O2- 8 j 0.3188(8) 0.3188(8) 0.2022(14) 1. 0 
O3 O2- 4 f 0.8365(14) 0.8365(14) 0 1. 0 

loop_
_atom_site_aniso_label
_atom_site_aniso_type_symbol
_atom_site_aniso_U_11
_atom_site_aniso_U_22
_atom_site_aniso_U_33
_atom_site_aniso_U_12
_atom_site_aniso_U_13
_atom_site_aniso_U_23
Cs1 Cs1+ 0.0290(6) 0.0290(6) 0.0130(7) 0.0054(6) 0 0
Cs2 Cs1+ 0.0252 0.0252 0.0263 0 0 0
Te1 Te6+ 0.0136(4) 0.0136(4) 0.0078(6) -.0020(5) 0 0
K1 K1+ 0.0014(22) 0.0564(42) 0.0139(14) -.0027(14) 0 0
O1 O2- 0.0286(48) 0.0173(42) 0.0059(37) 0.0021(41) 0 0
O2 O2- 0.0125(58) 0.0125(58) 0.0169(41) -.0055(35) 0 0
O3 O2- 0.0296(46) 0.0296(46) 0.0154(55) -.0133(54) 0 0
#End of data_202076-ICSD


