data_151571-ICSD
#?2014 by Fachinformationszentrum Karlsruhe, and the U.S. Secretary of 
#Commerce on behalf of the United States.  All rights reserved.
_database_code_ICSD                151571
_audit_creation_date               2006/10/01
_chemical_name_systematic          'Calcium Digermanate'
_chemical_formula_structural       'Ca (Ge2 O5)'
_chemical_formula_sum              'Ca1 Ge2 O5'
_publ_section_title
;
Structure and phase transition of Ca Ge2 O5 revisited
;
loop_
_citation_id
_citation_journal_abbrev
_citation_year
_citation_journal_volume
_citation_page_first
_citation_page_last
_citation_journal_id_ASTM
primary 'Physics and Chemistry of Minerals' 2004 31 224 231 PCMIDU
_publ_author_name                  'Malcherek, T.;Bosenick, A.'
_cell_length_a                     6.5574(6)
_cell_length_b                     8.8117(8)
_cell_length_c                     6.8794(6)
_cell_angle_alpha                  88.942(2)
_cell_angle_beta                   112.989(1)
_cell_angle_gamma                  90.555(2)
_cell_volume                       365.87
_cell_formula_units_Z              4
_symmetry_space_group_name_H-M     'C -1'
_symmetry_Int_Tables_number        2
_refine_ls_R_factor_all            .1
loop_
_symmetry_equiv_pos_site_id
_symmetry_equiv_pos_as_xyz
  1	'-x, -y, -z'
  2	'x, y, z'
  3	'-x+.5, -y+.5, -z'
  4	'x+.5, y+.5, z'
loop_
_atom_type_symbol
_atom_type_oxidation_number
Ca2+	2
Ge4+	4
O2-	-2
loop_
_atom_site_label
_atom_site_type_symbol
_atom_site_symmetry_multiplicity
_atom_site_Wyckoff_symbol
_atom_site_fract_x
_atom_site_fract_y
_atom_site_fract_z
_atom_site_occupancy
_atom_site_attached_hydrogens
_atom_site_U_iso_or_equiv
Ca1 Ca2+ 4 i 0.9930(11) 0.6693(7) 0.2600(11) 1. 0 0.0039(22) 
Ge1 Ge4+ 4 i 0.9969(7) 0.3135(4) 0.2465(7) 1. 0 0.0048(14) 
Ge2 Ge4+ 2 a 0 0 0 1. 0 0.0051(20) 
Ge3 Ge4+ 2 b 0 0 0.5 1. 0 0.0056(20) 
O1 O2- 4 i 0.9979(32) 0.9266(17) 0.2499(28) 1. 0 0.0097(25) 
O2 O2- 4 i 0.4009(29) 0.2929(19) 0.9021(27) 1. 0 0.0097(25) 
O3 O2- 4 i 0.8169(27) 0.4452(20) 0.0841(26) 1. 0 0.0097(25) 
O4 O2- 4 i 0.1877(27) 0.4377(19) 0.4266(26) 1. 0 0.0097(25) 
O5 O2- 4 i 0.1211(29) 0.7973(20) 0.6139(28) 1. 0 0.0097(25) 

#End of data_151571-ICSD


