data_417872-ICSD
#?2014 by Fachinformationszentrum Karlsruhe, and the U.S. Secretary of 
#Commerce on behalf of the United States.  All rights reserved.
_database_code_ICSD                417872
_audit_creation_date               2008/02/01
_chemical_name_systematic
;
Nickel(II) Bis(tetrachloroaluminate)
;
_chemical_formula_structural       'Ni (Al Cl4)2'
_chemical_formula_sum              'Al2 Cl8 Ni1'
_publ_section_title
;
Die Kristallstrukturen von Ni (Al Cl4)2, Ni (Ga Cl4)2 und Na [Ni (Al 
Cl4)3]
;
loop_
_citation_id
_citation_journal_abbrev
_citation_year
_citation_journal_volume
_citation_journal_issue
_citation_page_first
_citation_page_last
_citation_journal_id_ASTM
primary 'Zeitschrift fuer Naturforschung, B: Chemical Sciences'
 2007 62 8 1052 1058 ZNBSEN
_publ_author_name                  'Kessler, U.;Mueller, R.'
_cell_length_a                     12.7640(9)
_cell_length_b                     7.7141(5)
_cell_length_c                     11.4547(8)
_cell_angle_alpha                  90.00
_cell_angle_beta                   92.067(3)
_cell_angle_gamma                  90.00
_cell_volume                       1127.13
_cell_formula_units_Z              4
_symmetry_space_group_name_H-M     'I 1 2/c 1'
_symmetry_Int_Tables_number        15
_refine_ls_R_factor_all            .068
loop_
_symmetry_equiv_pos_site_id
_symmetry_equiv_pos_as_xyz
  1	'-x, y, -z+.5'
  2	'-x, -y, -z'
  3	'x, -y, z+.5'
  4	'x, y, z'
  5	'-x+.5, y+.5, -z'
  6	'-x+.5, -y+.5, -z+.5'
  7	'x+.5, -y+.5, z'
  8	'x+.5, y+.5, z+.5'
loop_
_atom_type_symbol
_atom_type_oxidation_number
Al3+	3
Cl1-	-1
Ni2+	2
loop_
_atom_site_label
_atom_site_type_symbol
_atom_site_symmetry_multiplicity
_atom_site_Wyckoff_symbol
_atom_site_fract_x
_atom_site_fract_y
_atom_site_fract_z
_atom_site_occupancy
_atom_site_attached_hydrogens
_atom_site_U_iso_or_equiv
Ni1 Ni2+ 4 e 0.5000 0.50014(18) 0.7500 1 0 0.0322(3) 
Al1 Al3+ 8 f 0.58627(16) 0.7478(3) 0.55247(15) 1 0 0.0327(5) 
Cl1 Cl1- 8 f 0.65881(15) 0.9780(3) 0.60520(15) 1 0 0.0477(5) 
Cl2 Cl1- 8 f 0.58525(14) 0.7321(3) 0.36456(13) 1 0 0.0382(5) 
Cl3 Cl1- 8 f 0.43011(13) 0.7213(2) 0.61841(13) 1 0 0.0379(5) 
Cl4 Cl1- 8 f 0.65397(13) 0.5173(3) 0.63488(12) 1 0 0.0382(4) 

loop_
_atom_site_aniso_label
_atom_site_aniso_type_symbol
_atom_site_aniso_U_11
_atom_site_aniso_U_22
_atom_site_aniso_U_33
_atom_site_aniso_U_12
_atom_site_aniso_U_13
_atom_site_aniso_U_23
Ni1 Ni2+ 0.0369(7) 0.0401(7) 0.0195(6) 0.000 0.0014(5) 0.000
Al1 Al3+ 0.0380(12) 0.0379(11) 0.0221(10) -0.0025(11) 0.0016(8) -0.0004(10)
Cl1 Cl1- 0.0559(12) 0.0453(12) 0.0417(10) -0.0093(11) -0.0018(8) 
-0.0048(10)
Cl2 Cl1- 0.0496(11) 0.0431(11) 0.0218(8) -0.0043(9) -0.0003(7) -0.0001(8)
Cl3 Cl1- 0.0373(10) 0.0489(12) 0.0275(9) 0.0024(9) 0.0011(7) 0.0043(9)
Cl4 Cl1- 0.0390(9) 0.0484(11) 0.0272(8) 0.0051(10) 0.0026(7) 0.0054(9)
#End of data_417872-ICSD


