data_159344-ICSD
#?2014 by Fachinformationszentrum Karlsruhe, and the U.S. Secretary of 
#Commerce on behalf of the United States.  All rights reserved.
_database_code_ICSD                159344
_audit_creation_date               2008/08/01
_audit_update_record               2013/02/01
_chemical_name_systematic          'Calcium Oxotitanium Silicate'
_chemical_formula_structural       'Ca (Ti O) (Si O4)'
_chemical_formula_sum              'Ca1 O5 Si1 Ti1'
_chemical_name_mineral             Titanite
_publ_section_title                'Alpha-decay damage in titanite'
loop_
_citation_id
_citation_journal_abbrev
_citation_year
_citation_journal_volume
_citation_page_first
_citation_page_last
_citation_journal_id_ASTM
primary 'American Mineralogist' 1991 76 370 396 AMMIAY
_publ_author_name
;
Hawthorne, F.C.;Groat, L.A.;Raudsepp, M.;Ball, N.A.;Kimata, M.;Spike, 
F.D.;Gaba, R.;Halden, N.M.;Lumpkin, G.R.;Ewing, R.C.;Greegor, 
R.B.;Lytle, F.W.;Ercit, T.S.;Rossman, G.R.;Wicks, F.J.;Ramik, 
R.A.;Sherriff, B.L.;Fleet, M.E.;McCammon, C.
;
_cell_length_a                     6.530(2)
_cell_length_b                     8.677(2)
_cell_length_c                     7.048(2)
_cell_angle_alpha                  90.
_cell_angle_beta                   113.91(2)
_cell_angle_gamma                  90.
_cell_volume                       365.07
_cell_formula_units_Z              4
_symmetry_space_group_name_H-M     'C 1 2/c 1'
_symmetry_Int_Tables_number        15
_refine_ls_R_factor_all            .055
loop_
_symmetry_equiv_pos_site_id
_symmetry_equiv_pos_as_xyz
  1	'x, -y, z+.5'
  2	'-x, -y, -z'
  3	'-x, y, -z+.5'
  4	'x, y, z'
  5	'x+.5, -y+.5, z+.5'
  6	'-x+.5, -y+.5, -z'
  7	'-x+.5, y+.5, -z+.5'
  8	'x+.5, y+.5, z'
loop_
_atom_type_symbol
_atom_type_oxidation_number
Ca2+	2
O2-	-2
Si4+	4
Ti4+	4
loop_
_atom_site_label
_atom_site_type_symbol
_atom_site_symmetry_multiplicity
_atom_site_Wyckoff_symbol
_atom_site_fract_x
_atom_site_fract_y
_atom_site_fract_z
_atom_site_occupancy
_atom_site_attached_hydrogens
_atom_site_U_iso_or_equiv
Ca1 Ca2+ 4 e 0 0.1669(2) 0.750 1. 0 0.0095(6) 
Ti1 Ti4+ 4 b 0 0.5 0 1. 0 0.0085(5) 
Si1 Si4+ 4 e 0 0.1835(3) 0.250 1. 0 0.0017(7) 
O1 O2- 4 e 0 0.5725(7) 0.250 1. 0 0.0034(16) 
O2 O2- 8 f 0.1877(7) 0.0668(5) 0.4115(7) 1. 0 0.0047(14) 
O3 O2- 8 f 0.1034(7) 0.2904(5) 0.1186(7) 1. 0 0.0035(13) 

loop_
_atom_site_aniso_label
_atom_site_aniso_type_symbol
_atom_site_aniso_U_11
_atom_site_aniso_U_22
_atom_site_aniso_U_33
_atom_site_aniso_U_12
_atom_site_aniso_U_13
_atom_site_aniso_U_23
Ca1 Ca2+ 0.0016(8) 0.0010(7) 0.0194(10) 0. -0.0033(7) 0.
Ti1 Ti4+ 0.0039(7) 0.0053(8) 0.0144(8) 0.0043(6) 0.0018(6) -0.0001(6)
Si1 Si4+ 0.0023(10) 0.0010(10) 0.0024(10) 0. 0.0016(8) 0.
O1 O2- 0.0070(25) 0.0018(26) 0.0010(23) 0. 0. 0.
O2 O2- 0.0010(18) 0.0054(20) 0.0065(20) 0.0010(16) 0.0000(16) -0.0009(16)
O3 O2- 0.0032(18) 0.0019(18) 0.0059(19) 0.0015(16) 0.0023(16) 0.0012(15)
#End of data_159344-ICSD


