data_300183-ICSD
#?2014 by Fachinformationszentrum Karlsruhe, and the U.S. Secretary of 
#Commerce on behalf of the United States.  All rights reserved.
_database_code_ICSD                300183
_audit_creation_date               1991/07/10
_audit_update_record               1991/10/31
_chemical_name_systematic
;
Tripotassium Tritellurobismutate(III)
;
_chemical_formula_structural       'K3 Bi Te3'
_chemical_formula_sum              'Bi1 K3 Te3'
_publ_section_title
;
Crystal structure of tripotassium tritellurobismutate(III)
;
loop_
_citation_id
_citation_journal_abbrev
_citation_year
_citation_journal_volume
_citation_page_first
_citation_page_last
_citation_journal_id_ASTM
primary 'Zeitschrift fuer Kristallographie (1979-2010)' 1991 197 257 258 ZEKRDZ
_publ_author_name                  'Eisenmann, B.;Zagler, R.'
_cell_length_a                     10.369(3)
_cell_length_b                     10.369(3)
_cell_length_c                     10.369(3)
_cell_angle_alpha                  90.
_cell_angle_beta                   90.
_cell_angle_gamma                  90.
_cell_volume                       1114.84
_cell_formula_units_Z              4
_symmetry_space_group_name_H-M     'P 21 3'
_symmetry_Int_Tables_number        198
_refine_ls_R_factor_all            .0543
loop_
_symmetry_equiv_pos_site_id
_symmetry_equiv_pos_as_xyz
  1	'-z+.5, -x, y+.5'
  2	'-y+.5, -z, x+.5'
  3	'-x+.5, -y, z+.5'
  4	'-z, x+.5, -y+.5'
  5	'-y, z+.5, -x+.5'
  6	'-x, y+.5, -z+.5'
  7	'z+.5, -x+.5, -y'
  8	'y+.5, -z+.5, -x'
  9	'x+.5, -y+.5, -z'
 10	'z, x, y'
 11	'y, z, x'
 12	'x, y, z'
loop_
_atom_type_symbol
_atom_type_oxidation_number
Bi3+	3
K1+	1
Te2-	-2
loop_
_atom_site_label
_atom_site_type_symbol
_atom_site_symmetry_multiplicity
_atom_site_Wyckoff_symbol
_atom_site_fract_x
_atom_site_fract_y
_atom_site_fract_z
_atom_site_occupancy
_atom_site_attached_hydrogens
K1 K1+ 4 a 0.57446(62) 0.57446(62) 0.57446(62) 1. 0 
K2 K1+ 4 a 0.32647(59) 0.32647(59) 0.32647(59) 1. 0 
K3 K1+ 4 a 0.81710(54) 0.81710(54) 0.81710(54) 1. 0 
Bi1 Bi3+ 4 a 0.03665(8) 0.03665(8) 0.03665(8) 1. 0 
Te1 Te2- 12 b 0.22696(16) 0.61719(16) 0.50014(16) 1. 0 

#End of data_300183-ICSD


