data_401026-ICSD
#?2014 by Fachinformationszentrum Karlsruhe, and the U.S. Secretary of 
#Commerce on behalf of the United States.  All rights reserved.
_database_code_ICSD                401026
_audit_creation_date               1997/11/10
_chemical_name_systematic          'Disodium Octachlorotrititanate(II)'
_chemical_formula_structural       'Na2 (Ti3 Cl8)'
_chemical_formula_sum              'Cl8 Na2 Ti3'
_publ_section_title
;
Natrium-octachlorotrititanat(II), Na2 Ti3 Cl8: Von isolierten (Ti2)+ -
Ionen zu (Ti3)6+ -Clustern ?
;
loop_
_citation_id
_citation_journal_abbrev
_citation_year
_citation_journal_volume
_citation_page_first
_citation_page_last
_citation_journal_id_ASTM
primary 'Angewandte Chemie (Edition international)' 1995 34 71 73 ACIEAY
_publ_author_name
;
Hinz, D.J.;Meyer, G.;Dedecke, T.;Urland, W.
;
_cell_length_a                     7.4332(8)
_cell_length_b                     7.4332(8)
_cell_length_c                     19.7210(50)
_cell_angle_alpha                  90.
_cell_angle_beta                   90.
_cell_angle_gamma                  120.
_cell_volume                       943.65
_cell_formula_units_Z              3
_symmetry_space_group_name_H-M     'R -3 m H'
_symmetry_Int_Tables_number        166
_refine_ls_R_factor_all            .0434
loop_
_symmetry_equiv_pos_site_id
_symmetry_equiv_pos_as_xyz
  1	'x-y, -y, -z'
  2	'-x, -x+y, -z'
  3	'y, x, -z'
  4	'x-y, x, -z'
  5	'y, -x+y, -z'
  6	'-x, -y, -z'
  7	'-x+y, y, z'
  8	'x, x-y, z'
  9	'-y, -x, z'
 10	'-x+y, -x, z'
 11	'-y, x-y, z'
 12	'x, y, z'
 13	'x-y+.6666, -y+.3333, -z+.3333'
 14	'x-y+.3333, -y+.6666, -z+.6666'
 15	'-x+.6666, -x+y+.3333, -z+.3333'
 16	'-x+.3333, -x+y+.6666, -z+.6666'
 17	'y+.6666, x+.3333, -z+.3333'
 18	'y+.3333, x+.6666, -z+.6666'
 19	'x-y+.6666, x+.3333, -z+.3333'
 20	'x-y+.3333, x+.6666, -z+.6666'
 21	'y+.6666, -x+y+.3333, -z+.3333'
 22	'y+.3333, -x+y+.6666, -z+.6666'
 23	'-x+.6666, -y+.3333, -z+.3333'
 24	'-x+.3333, -y+.6666, -z+.6666'
 25	'-x+y+.6666, y+.3333, z+.3333'
 26	'-x+y+.3333, y+.6666, z+.6666'
 27	'x+.6666, x-y+.3333, z+.3333'
 28	'x+.3333, x-y+.6666, z+.6666'
 29	'-y+.6666, -x+.3333, z+.3333'
 30	'-y+.3333, -x+.6666, z+.6666'
 31	'-x+y+.6666, -x+.3333, z+.3333'
 32	'-x+y+.3333, -x+.6666, z+.6666'
 33	'-y+.6666, x-y+.3333, z+.3333'
 34	'-y+.3333, x-y+.6666, z+.6666'
 35	'x+.6666, y+.3333, z+.3333'
 36	'x+.3333, y+.6666, z+.6666'
loop_
_atom_type_symbol
_atom_type_oxidation_number
Cl1-	-1
Na1+	1
Ti2+	2
loop_
_atom_site_label
_atom_site_type_symbol
_atom_site_symmetry_multiplicity
_atom_site_Wyckoff_symbol
_atom_site_fract_x
_atom_site_fract_y
_atom_site_fract_z
_atom_site_occupancy
_atom_site_attached_hydrogens
Na1 Na1+ 6 c 0 0 0.15772(8) 1. 0 
Ti1 Ti2+ 9 e 0.5 0 0 1. 0 
Cl1 Cl1- 6 c 0 0 0.40525(4) 1. 0 
Cl2 Cl1- 18 h 0.17389(4) 0.82611(4) 0.92675(2) 1. 0 

loop_
_atom_site_aniso_label
_atom_site_aniso_type_symbol
_atom_site_aniso_U_11
_atom_site_aniso_U_22
_atom_site_aniso_U_33
_atom_site_aniso_U_12
_atom_site_aniso_U_13
_atom_site_aniso_U_23
Na1 Na1+ 0.0318(6) 0.0318(6) 0.0259(8) 0.0159(3) 0 0
Ti1 Ti2+ 0.0179(2) 0.0180(2) 0.0174(2) 0.00899(12) -.00039(8) -.0008(2)
Cl1 Cl1- 0.0199(2) 0.0199(2) 0.0192(4) 0.00993(12) 0 0
Cl2 Cl1- 0.0202(2) 0.0202(2) 0.0211(2) 0.0093(2) -.00219(8) 0.00219(8)
#End of data_401026-ICSD


