data_84777-ICSD
#?2014 by Fachinformationszentrum Karlsruhe, and the U.S. Secretary of 
#Commerce on behalf of the United States.  All rights reserved.
_database_code_ICSD                84777
_audit_creation_date               1999/01/19
_chemical_name_systematic
;
Trisodium Diindium Tris(arsenate(V))
;
_chemical_formula_structural       'Na3 In2 (As O4)3'
_chemical_formula_sum              'As3 In2 Na3 O12'
_publ_section_title
;
Hydrothermal synthesis and structures of Na3 In2 (P O4)3 and Na3 In2 
(As O4)3: synthetic modifications of the mineral alluaudite
;
loop_
_citation_id
_citation_journal_abbrev
_citation_year
_citation_journal_volume
_citation_page_first
_citation_page_last
_citation_journal_id_ASTM
primary 'Journal of Solid State Chemistry' 1997 131 131 137 JSSCBI
_publ_author_name                  'Lii, K.-H.;Ye, J.'
_cell_length_a                     12.6037(2)
_cell_length_b                     13.1711(2)
_cell_length_c                     6.8342(1)
_cell_angle_alpha                  90.
_cell_angle_beta                   113.743(1)
_cell_angle_gamma                  90.
_cell_volume                       1038.48
_cell_formula_units_Z              4
_symmetry_space_group_name_H-M     'C 1 2/c 1'
_symmetry_Int_Tables_number        15
_refine_ls_R_factor_all            .027
loop_
_symmetry_equiv_pos_site_id
_symmetry_equiv_pos_as_xyz
  1	'x, -y, z+.5'
  2	'-x, -y, -z'
  3	'-x, y, -z+.5'
  4	'x, y, z'
  5	'x+.5, -y+.5, z+.5'
  6	'-x+.5, -y+.5, -z'
  7	'-x+.5, y+.5, -z+.5'
  8	'x+.5, y+.5, z'
loop_
_atom_type_symbol
_atom_type_oxidation_number
As5+	5
In3+	3
Na1+	1
O2-	-2
loop_
_atom_site_label
_atom_site_type_symbol
_atom_site_symmetry_multiplicity
_atom_site_Wyckoff_symbol
_atom_site_fract_x
_atom_site_fract_y
_atom_site_fract_z
_atom_site_occupancy
_atom_site_attached_hydrogens
_atom_site_B_iso_or_equiv
Na1 Na1+ 4 e 0 0.276(1) 0.25 1. 0 0.9(5) 
Na2 Na1+ 4 e 0 -.002(1) 0.75 1. 0 3.9(6) 
Na3 Na1+ 4 b 0.5 0 0.5 1. 0 1.8(5) 
In1 In3+ 8 f 0.2228(2) 0.1563(2) 0.1456(5) 1. 0 0.63(6) 
As1 As5+ 8 f 0.2388(4) 0.8961(3) 0.1324(7) 1. 0 0.7(1) 
As2 As5+ 4 e 0 0.2766(4) 0.75 1. 0 0.8(1) 
O1 O2- 8 f 0.372(2) -.079(2) 0.180(3) 1. 0 1.7(6) 
O2 O2- 8 f 0.230(1) 0.824(1) 0.336(3) 1. 0 -.4(4) 
O3 O2- 8 f 0.158(2) 0.002(1) 0.122(3) 1. 0 1.9(5) 
O4 O2- 8 f 0.168(2) 0.835(2) 0.891(3) 1. 0 1.8(6) 
O5 O2- 8 f 0.044(2) 0.202(1) 0.973(3) 1. 0 0.2(5) 
O6 O2- 8 f 0.094(2) 0.360(1) 0.716(3) 1. 0 0.4(5) 

#End of data_84777-ICSD


