data_424346-ICSD
#?2014 by Fachinformationszentrum Karlsruhe, and the U.S. Secretary of 
#Commerce on behalf of the United States.  All rights reserved.
_database_code_ICSD                424346
_audit_creation_date               2013/02/01
_chemical_name_systematic
;
Disodium Diaqua Copper(II) Tetraoxo Divanadium(V) Hexafluoride
;
_chemical_formula_structural       'Na2 (Cu (H2 O)2) (V2 O4 F6)'
_chemical_formula_sum              'H4 Cu1 F6 Na2 O6 V2'
_publ_section_title
;
The dimeric [V2 O4 F6]4- vanadium oxide-fluoride anion in Na2 (M (H2 
O)2) (V2 O4 F6) (M = Co(2+), Ni(2+), and Cu(2+))
;
loop_
_citation_id
_citation_journal_abbrev
_citation_year
_citation_journal_volume
_citation_journal_issue
_citation_page_first
_citation_page_last
_citation_journal_id_ASTM
primary 'Zeitschrift fuer Anorganische und Allgemeine Chemie (1950) (DE)'
 2012 638 12-13 1991 1995 ZAACAB
_publ_author_name
;
Donakowski, M.D.;Vinokur, A.I.;Poeppelmeier, K.R.
;
_cell_length_a                     8.1190(6)
_cell_length_b                     5.3362(4)
_cell_length_c                     10.1166(7)
_cell_angle_alpha                  90.00
_cell_angle_beta                   90.684(2)
_cell_angle_gamma                  90.00
_cell_volume                       438.27
_cell_formula_units_Z              2
_symmetry_space_group_name_H-M     'P 1 21/c 1'
_symmetry_Int_Tables_number        14
_refine_ls_R_factor_all            .0182
loop_
_symmetry_equiv_pos_site_id
_symmetry_equiv_pos_as_xyz
  1	'x, -y+.5, z+.5'
  2	'-x, -y, -z'
  3	'-x, y+.5, -z+.5'
  4	'x, y, z'
loop_
_atom_type_symbol
_atom_type_oxidation_number
Cu2+	2
F1-	-1
H1+	1
Na1+	1
O2-	-2
V5+	5
loop_
_atom_site_label
_atom_site_type_symbol
_atom_site_symmetry_multiplicity
_atom_site_Wyckoff_symbol
_atom_site_fract_x
_atom_site_fract_y
_atom_site_fract_z
_atom_site_occupancy
_atom_site_attached_hydrogens
_atom_site_U_iso_or_equiv
Cu1 Cu2+ 2 a 0.0000 0.0000 0.0000 1 0 0.00590(9) 
V1 V5+ 4 e -0.29116(3) 0.45191(5) -0.00481(2) 1 0 0.00604(9) 
Na1 Na1+ 4 e -0.54218(8) 0.05000(12) 0.16621(6) 1 0 0.00920(14) 
F1 F1- 4 e -0.47020(11) 0.71715(17) 0.03801(9) 1 0 0.00778(18) 
F2 F1- 4 e -0.32485(12) 0.57416(18) -0.17898(9) 1 0 0.00850(18) 
F3 F1- 4 e -0.33372(11) 0.34719(18) 0.16967(9) 1 0 0.00887(18) 
O1 O2- 4 e -0.13934(14) 0.6327(2) 0.03211(11) 1 0 0.0093(2) 
O2 O2- 4 e -0.20327(13) 0.1740(2) -0.04692(11) 1 0 0.0074(2) 
O3 O2- 4 e -0.04056(15) 0.0715(2) 0.19133(11) 1 0 0.0099(2) 
H1 H1+ 4 e -0.136(4) 0.052(6) 0.215(4) 1 0 0.042(9) 
H2 H1+ 4 e -0.005(4) -0.033(5) 0.235(3) 1 0 0.022(7) 

loop_
_atom_site_aniso_label
_atom_site_aniso_type_symbol
_atom_site_aniso_U_11
_atom_site_aniso_U_22
_atom_site_aniso_U_33
_atom_site_aniso_U_12
_atom_site_aniso_U_13
_atom_site_aniso_U_23
Cu1 Cu2+ 0.00572(14) 0.00565(13) 0.00633(13) 0.00104(8) 0.00035(9) 
-0.00025(8)
V1 V5+ 0.00543(14) 0.00644(13) 0.00625(13) -0.00028(8) 0.00033(9) 
0.00052(8)
Na1 Na1+ 0.0110(3) 0.0071(3) 0.0096(3) 0.0002(2) 0.0018(2) 0.0003(2)
F1 F1- 0.0069(4) 0.0065(4) 0.0099(4) 0.0004(3) 0.0008(3) -0.0010(3)
F2 F1- 0.0100(4) 0.0079(4) 0.0076(4) 0.0011(3) 0.0005(3) 0.0010(3)
F3 F1- 0.0096(4) 0.0102(4) 0.0069(4) 0.0006(3) 0.0012(3) 0.0015(3)
O1 O2- 0.0075(5) 0.0086(5) 0.0118(5) -0.0010(4) 0.0003(4) -0.0004(4)
O2 O2- 0.0072(5) 0.0065(5) 0.0087(5) 0.0016(4) 0.0008(4) 0.0007(4)
O3 O2- 0.0089(5) 0.0125(5) 0.0085(5) 0.0018(4) 0.0010(4) 0.0007(4)
#End of data_424346-ICSD


