data_380286-ICSD
#?2014 by Fachinformationszentrum Karlsruhe, and the U.S. Secretary of 
#Commerce on behalf of the United States.  All rights reserved.
_database_code_ICSD                380286
_audit_creation_date               2009/08/01
_audit_update_record               2011/02/01
_chemical_name_systematic          'Calcium Sulfate(VI) Hemihydrate'
_chemical_formula_structural       'Ca (S O4) (H2 O)0.5'
_chemical_formula_sum              'H1 Ca1 O4.5 S1'
_chemical_name_mineral             Bassanite
_publ_section_title
;
How much water does calcined gypsum contain ?
;
loop_
_citation_id
_citation_journal_abbrev
_citation_year
_citation_journal_volume
_citation_journal_issue
_citation_page_first
_citation_page_last
_citation_journal_id_ASTM
primary 'Angewandte Chemie. International Edition' 2009 48 19 3520 3524 ACIEF5
_publ_author_name                  'Weiss, H.;Braeu, M.F.'
_cell_length_a                     17.559(3)
_cell_length_b                     6.9619(7)
_cell_length_c                     12.0705(18)
_cell_angle_alpha                  90.00
_cell_angle_beta                   133.563(9)
_cell_angle_gamma                  90.00
_cell_volume                       1069.21
_cell_formula_units_Z              12
_symmetry_space_group_name_H-M     'C 1 2 1'
_symmetry_Int_Tables_number        5
_refine_ls_R_factor_all            .0445
loop_
_symmetry_equiv_pos_site_id
_symmetry_equiv_pos_as_xyz
  1	'-x, y, -z'
  2	'x, y, z'
  3	'-x+.5, y+.5, -z'
  4	'x+.5, y+.5, z'
loop_
_atom_type_symbol
_atom_type_oxidation_number
Ca2+	2
H1+	1
O2-	-2
S6+	6
loop_
_atom_site_label
_atom_site_type_symbol
_atom_site_symmetry_multiplicity
_atom_site_Wyckoff_symbol
_atom_site_fract_x
_atom_site_fract_y
_atom_site_fract_z
_atom_site_occupancy
_atom_site_attached_hydrogens
_atom_site_U_iso_or_equiv
Ca1 Ca2+ 4 c 0.33554(13) 0.2962(2) 0.5720(2) 1 0 0.0235(4) 
Ca2 Ca2+ 4 c 0.83667(13) 0.3408(2) 0.0557(2) 1 0 0.0231(4) 
Ca3 Ca2+ 2 b 0.0000 0.5046(5) 0.5000 1 0 0.0264(6) 
Ca4 Ca2+ 2 a 0.0000 0.0011(5) 0.0000 1 0 0.0262(6) 
S1 S6+ 4 c 0.08728(14) 0.3127(3) 0.3114(2) 1 0 0.0208(4) 
S2 S6+ 4 c 0.24819(7) 0.0023(6) 0.24673(11) 1 0 0.0248(7) 
S3 S6+ 4 c 0.41948(14) 0.3338(3) 0.1950(2) 1 0 0.0209(4) 
O1 O2- 4 c 0.0128(4) 0.3873(8) 0.3195(6) 1 0 0.0266(12) 
O2 O2- 4 c 0.0255(4) 0.2613(9) 0.1492(5) 1 0 0.0276(13) 
O3 O2- 4 c 0.1486(4) 0.1492(8) 0.4165(6) 1 0 0.0312(12) 
O4 O2- 4 c 0.1665(3) 0.4631(7) 0.3627(5) 1 0 0.0259(10) 
O5 O2- 4 c 0.1723(4) 0.1153(10) 0.1074(6) 1 0 0.0325(14) 
O6 O2- 4 c 0.1857(5) 0.3867(10) 0.7598(7) 1 0 0.0336(14) 
O7 O2- 4 c 0.3175(4) 0.1237(10) 0.3835(6) 1 0 0.0312(13) 
O8 O2- 4 c 0.3347(4) 0.1907(8) 0.0964(6) 1 0 0.0241(10) 
O9 O2- 4 c 0.3698(4) 0.5203(7) 0.1623(5) 1 0 0.0310(11) 
O10 O2- 4 c 0.4876(4) 0.3356(8) 0.1623(6) 1 0 0.0276(12) 
O11 O2- 4 c 0.4897(4) 0.2873(9) 0.3609(5) 1 0 0.0256(11) 
O12 O2- 4 c 0.6853(4) 0.3751(9) 0.2549(6) 1 0 0.0315(13) 
O13 O2- 2 b 0.0000 0.1592(11) 0.5000 1 0 0.0524(18) 
O14 O2- 4 c 0.1690(7) 0.5105(10) 0.1177(8) 1 0 0.083(2) 
H1 H1+ 4 c 0.028(5) 0.088(9) 0.579(7) 1 0 0.078(19) 
H2 H1+ 4 c 0.162(5) 0.484(10) 0.189(7) 1 0 0.084(17) 
H3 H1+ 4 c 0.205(5) 0.613(12) 0.167(8) 1 0 0.06(2) 

loop_
_atom_site_aniso_label
_atom_site_aniso_type_symbol
_atom_site_aniso_U_11
_atom_site_aniso_U_22
_atom_site_aniso_U_33
_atom_site_aniso_U_12
_atom_site_aniso_U_13
_atom_site_aniso_U_23
Ca1 Ca2+ 0.0170(4) 0.0254(12) 0.0213(6) 0.0007(6) 0.0106(4) -0.0018(6)
Ca2 Ca2+ 0.0175(4) 0.0247(11) 0.0221(6) -0.0027(5) 0.0117(4) -0.0016(5)
Ca3 Ca2+ 0.0182(9) 0.0324(14) 0.0225(12) 0.000 0.0116(9) 0.000
Ca4 Ca2+ 0.0183(9) 0.0329(15) 0.0211(12) 0.000 0.0111(9) 0.000
S1 S6+ 0.0150(5) 0.0249(10) 0.0184(7) 0.0004(6) 0.0099(6) -0.0021(6)
S2 S6+ 0.0156(9) 0.0323(17) 0.0196(15) 0.0002(4) 0.0095(10) 0.0006(4)
S3 S6+ 0.0164(6) 0.0239(11) 0.0179(8) 0.0012(8) 0.0102(6) 0.0018(7)
O1 O2- 0.0153(17) 0.031(3) 0.023(2) -0.0029(16) 0.0097(15) -0.0052(15)
O2 O2- 0.023(2) 0.037(3) 0.020(2) -0.0044(18) 0.0134(19) -0.0069(16)
O3 O2- 0.023(2) 0.036(3) 0.026(2) 0.0103(18) 0.0135(17) 0.0035(17)
O4 O2- 0.0128(18) 0.028(2) 0.0254(18) -0.0016(15) 0.0089(17) -0.0015(15)
O5 O2- 0.023(2) 0.037(3) 0.028(3) 0.002(2) 0.0137(19) 0.007(2)
O6 O2- 0.025(2) 0.038(3) 0.029(2) -0.004(2) 0.0153(19) -0.0005(19)
O7 O2- 0.023(2) 0.034(3) 0.030(3) -0.003(2) 0.016(2) -0.004(2)
O8 O2- 0.0100(17) 0.028(2) 0.028(2) 0.0018(15) 0.0111(16) 0.0020(16)
O9 O2- 0.033(2) 0.028(2) 0.036(2) 0.0110(18) 0.026(2) 0.0083(18)
O10 O2- 0.0143(17) 0.039(3) 0.0209(18) -0.0009(16) 0.0087(15) 0.0022(16)
O11 O2- 0.0234(19) 0.027(2) 0.016(2) 0.0035(18) 0.0091(17) 0.0017(16)
O12 O2- 0.025(2) 0.040(3) 0.024(2) -0.002(2) 0.0147(18) 0.0025(19)
O13 O2- 0.076(4) 0.037(4) 0.039(3) 0.000 0.038(3) 0.000
O14 O2- 0.174(6) 0.040(3) 0.107(5) -0.032(4) 0.124(5) -0.022(3)
#End of data_380286-ICSD


