data_6064-ICSD
#?2014 by Fachinformationszentrum Karlsruhe, and the U.S. Secretary of 
#Commerce on behalf of the United States.  All rights reserved.
_database_code_ICSD                6064
_audit_creation_date               1980/01/01
_audit_update_record               2012/02/01
_chemical_name_systematic
;
Potassium Tribromozincate Dihydrate - Alpha
;
_chemical_formula_structural       'K (Zn Br3) (H2 O)2'
_chemical_formula_sum              'H4 Br3 K1 O2 Zn1'
_publ_section_title
;
Die Kristallstruktur des alpha-K Zn Br3 * 2 H2 O
;
loop_
_citation_id
_citation_journal_abbrev
_citation_year
_citation_journal_volume
_citation_page_first
_citation_page_last
_citation_journal_id_ASTM
primary 'Zeitschrift fuer Anorganische und Allgemeine Chemie (1950) (DE)'
 1974 406 62 68 ZAACAB
2 'Acta Crystallographica B (24,1968-38,1982)' 1968 24 1339 1344 ACBCAR
_publ_author_name                  'Follner, H.;Brehler, B.'
_cell_length_a                     6.71
_cell_length_b                     12.42
_cell_length_c                     13.02
_cell_angle_alpha                  90.
_cell_angle_beta                   130.3
_cell_angle_gamma                  90.
_cell_volume                       827.54
_cell_formula_units_Z              4
_symmetry_space_group_name_H-M     'P 1 21/c 1'
_symmetry_Int_Tables_number        14
_refine_ls_R_factor_all            .051
loop_
_symmetry_equiv_pos_site_id
_symmetry_equiv_pos_as_xyz
  1	'x, -y+.5, z+.5'
  2	'-x, -y, -z'
  3	'-x, y+.5, -z+.5'
  4	'x, y, z'
loop_
_atom_type_symbol
_atom_type_oxidation_number
Br1-	-1
H1+	1
K1+	1
O2-	-2
Zn2+	2
loop_
_atom_site_label
_atom_site_type_symbol
_atom_site_symmetry_multiplicity
_atom_site_Wyckoff_symbol
_atom_site_fract_x
_atom_site_fract_y
_atom_site_fract_z
_atom_site_occupancy
_atom_site_attached_hydrogens
_atom_site_B_iso_or_equiv
Br1 Br1- 4 e 0.2754(2) 0.1021(1) 0.0240(1) 1. 0 2.56(2) 
Br2 Br1- 4 e 0.2808(2) 0.1072(1) 0.3315(1) 1. 0 2.82(2) 
Br3 Br1- 4 e 0.2769(2) 0.4001(1) 0.1752(1) 1. 0 2.66(2) 
Zn1 Zn2+ 4 e 0.4814(2) 0.5726(1) 0.2413(1) 1. 0 2.16(2) 
O1 O2- 4 e 0.1855(13) 0.6870(5) 0.1453(7) 1. 0 2.62(11) 
O2 O2- 4 e 0.2060(14) 0.8163(6) 0.3176(7) 1. 0 3.05(13) 
K1 K1+ 4 e 0.2572(4) 0.6702(2) 0.4934(2) 1. 0 3.10(4) 
H1 H1+ 4 e 0.766(4) 0.247(2) 0.285(2) 1. 0 0 
H2 H1+ 4 e 0.975(4) 0.175(2) 0.443(2) 1. 0 0 
H3 H1+ 4 e 0.928(4) 0.362(2) 0.213(2) 1. 0 0 
H4 H1+ 4 e 0.650(4) 0.356(2) 0.160(2) 1. 0 0 

#End of data_6064-ICSD


