data_200549-ICSD
#?2014 by Fachinformationszentrum Karlsruhe, and the U.S. Secretary of 
#Commerce on behalf of the United States.  All rights reserved.
_database_code_ICSD                200549
_audit_creation_date               1980/01/01
_audit_update_record               2004/10/01
_chemical_name_systematic          'Dirubidium Sodium Thulium Chloride'
_chemical_formula_structural       'Rb2 Na Tm Cl6'
_chemical_formula_sum              'Cl6 Na1 Rb2 Tm1'
_chemical_name_mineral             Elpasolite-(Cl)
_publ_section_title
;
Zur Struktursystematik der Elpasolith-Familie (I). Neue Chloride 
A(I)2 B(I) M(III) Cl6 (A(I) = Rb, Tl, In, K, B(I) = Li, Ag, Na)
;
loop_
_citation_id
_citation_journal_abbrev
_citation_year
_citation_journal_volume
_citation_page_first
_citation_page_last
_citation_journal_id_ASTM
primary 'Revue de Chimie Minerale' 1979 16 189 202 RVCMA8
_publ_author_name                  'Meyer, G.;Dietzel, E.'
_cell_length_a                     10.53
_cell_length_b                     10.53
_cell_length_c                     10.599
_cell_angle_alpha                  90.
_cell_angle_beta                   90.
_cell_angle_gamma                  90.
_cell_volume                       1175.23
_cell_formula_units_Z              4
_symmetry_space_group_name_H-M     'P 4/n b m S'
_symmetry_Int_Tables_number        125
loop_
_symmetry_equiv_pos_site_id
_symmetry_equiv_pos_as_xyz
  1	'y+.5, x+.5, z'
  2	'-y+.5, -x+.5, z'
  3	'y, x, -z'
  4	'-y, -x, -z'
  5	'y+.5, -x+.5, -z'
  6	'-y+.5, x+.5, -z'
  7	'y, -x, z'
  8	'-y, x, z'
  9	'x+.5, -y+.5, z'
 10	'-x+.5, y+.5, z'
 11	'x, -y, -z'
 12	'-x, y, -z'
 13	'-x+.5, -y+.5, -z'
 14	'x+.5, y+.5, -z'
 15	'-x, -y, z'
 16	'x, y, z'
loop_
_atom_type_symbol
_atom_type_oxidation_number
Cl1-	-1
Na1+	1
Rb1+	1
Tm3+	3
loop_
_atom_site_label
_atom_site_type_symbol
_atom_site_symmetry_multiplicity
_atom_site_Wyckoff_symbol
_atom_site_fract_x
_atom_site_fract_y
_atom_site_fract_z
_atom_site_occupancy
_atom_site_attached_hydrogens
Rb1 Rb1+ 8 m 0.249 0.251 0.249 1. 0 
Na1 Na1+ 2 b 0.5 0.5 0.5 1. 0 
Na2 Na1+ 2 c 0.5 0 0 1. 0 
Tm1 Tm3+ 2 a 0 0 0 1. 0 
Tm2 Tm3+ 2 d 0 0.5 0.5 1. 0 
Cl1 Cl1- 4 g 0 0 0.245 1. 0 
Cl2 Cl1- 8 k 0.247 0 0 1. 0 
Cl3 Cl1- 4 h 0 0.5 0.253 1. 0 
Cl4 Cl1- 8 l 0.255 0 0.5 1. 0 

#End of data_200549-ICSD


