data_28647-ICSD
#?2014 by Fachinformationszentrum Karlsruhe, and the U.S. Secretary of 
#Commerce on behalf of the United States.  All rights reserved.
_database_code_ICSD                28647
_audit_creation_date               1980/01/01
_audit_update_record               2005/10/01
_chemical_name_systematic          'Potassium Trinitrocadmate'
_chemical_formula_structural       'K (Cd (N O2)3)'
_chemical_formula_sum              'Cd1 K1 N3 O6'
_publ_section_title
;
Cadmionitriti di metalli monovalenti
;
loop_
_citation_id
_citation_journal_abbrev
_citation_year
_citation_journal_volume
_citation_page_first
_citation_page_last
_citation_journal_id_ASTM
primary 'Gazzetta Chimica Italiana' 1935 65 797 809 GCITA9
2 'Golden Book of Phase Transitions, Wroclaw' 2002 1 1 123 GBOPT5
_publ_author_name                  'Ferrari, A.;Baroni, A.;Colla, C.'
_cell_length_a                     5.325
_cell_length_b                     5.325
_cell_length_c                     5.325
_cell_angle_alpha                  90.
_cell_angle_beta                   90.
_cell_angle_gamma                  90.
_cell_volume                       150.99
_cell_formula_units_Z              1
_symmetry_space_group_name_H-M     'P m -3'
_symmetry_Int_Tables_number        200
loop_
_symmetry_equiv_pos_site_id
_symmetry_equiv_pos_as_xyz
  1	'-z, x, y'
  2	'z, x, -y'
  3	'z, -x, y'
  4	'-z, -x, -y'
  5	'y, -z, x'
  6	'-y, z, x'
  7	'y, z, -x'
  8	'-y, -z, -x'
  9	'x, y, -z'
 10	'x, -y, z'
 11	'-x, y, z'
 12	'-x, -y, -z'
 13	'z, -x, -y'
 14	'-z, -x, y'
 15	'-z, x, -y'
 16	'z, x, y'
 17	'-y, z, -x'
 18	'y, -z, -x'
 19	'-y, -z, x'
 20	'y, z, x'
 21	'-x, -y, z'
 22	'-x, y, -z'
 23	'x, -y, -z'
 24	'x, y, z'
loop_
_atom_type_symbol
_atom_type_oxidation_number
Cd2+	2
K1+	1
N3+	3
O2-	-2
loop_
_atom_site_label
_atom_site_type_symbol
_atom_site_symmetry_multiplicity
_atom_site_Wyckoff_symbol
_atom_site_fract_x
_atom_site_fract_y
_atom_site_fract_z
_atom_site_occupancy
_atom_site_attached_hydrogens
K1 K1+ 1 a 0 0 0 1. 0 
Cd1 Cd2+ 1 b 0.5 0.5 0.5 1. 0 
N1 N3+ 3 c 0 0.5 0.5 1. 0 
O1 O2- 6 g 0 0.24 0.5 1. 0 

#End of data_28647-ICSD


