data_66972-ICSD
#?2014 by Fachinformationszentrum Karlsruhe, and the U.S. Secretary of 
#Commerce on behalf of the United States.  All rights reserved.
_database_code_ICSD                66972
_audit_creation_date               1998/06/26
_chemical_name_systematic          'Dibarium Zinc Hydroxide'
_chemical_formula_structural       'Ba2 Zn (O H)6'
_chemical_formula_sum              'H6 Ba2 O6 Zn1'
_publ_section_title
;
Synthese und Kristallstruktur von Sr2 Zn (O H)6 und Ba2 Zn (O H)6
;
loop_
_citation_id
_citation_journal_abbrev
_citation_year
_citation_journal_volume
_citation_page_first
_citation_page_last
_citation_journal_id_ASTM
primary 'Zeitschrift fuer Anorganische und Allgemeine Chemie (1950) (DE)'
 1998 624 17 20 ZAACAB
_publ_author_name                  'Stahl, R.;Jacobs, H.'
_cell_length_a                     6.043(1)
_cell_length_b                     6.336(1)
_cell_length_c                     8.451(2)
_cell_angle_alpha                  90.
_cell_angle_beta                   91.23(2)
_cell_angle_gamma                  90.
_cell_volume                       323.5
_cell_formula_units_Z              2
_symmetry_space_group_name_H-M     'P 1 21/n 1'
_symmetry_Int_Tables_number        14
_refine_ls_R_factor_all            .0298
loop_
_symmetry_equiv_pos_site_id
_symmetry_equiv_pos_as_xyz
  1	'-x+.5, y+.5, -z+.5'
  2	'-x, -y, -z'
  3	'x+.5, -y+.5, z+.5'
  4	'x, y, z'
loop_
_atom_type_symbol
_atom_type_oxidation_number
Ba2+	2
H1+	1
O2-	-2
Zn2+	2
loop_
_atom_site_label
_atom_site_type_symbol
_atom_site_symmetry_multiplicity
_atom_site_Wyckoff_symbol
_atom_site_fract_x
_atom_site_fract_y
_atom_site_fract_z
_atom_site_occupancy
_atom_site_attached_hydrogens
_atom_site_U_iso_or_equiv
Ba1 Ba2+ 4 e 0.47482(3) 0.06387(3) 0.24887(2) 1. 0 0 
Zn1 Zn2+ 2 b 0 0 0.5 1. 0 0 
O1 O2- 4 e 0.0860(4) 0.0208(4) 0.7397(3) 1. 0 0 
O2 O2- 4 e 0.6738(4) 0.2286(4) 0.9600(3) 1. 0 0 
O3 O2- 4 e 0.6802(5) 0.2144(5) 0.5481(3) 1. 0 0 
H1 H1+ 4 e 0.97(1) 0.05(1) 0.19(1) 1. 0 0.053(14) 
H2 H1+ 4 e 0.74(1) 0.22(1) 0.962(9) 1. 0 0.053(14) 
H3 H1+ 4 e 0.12(1) 0.21(1) 0.066(9) 1. 0 0.053(14) 

loop_
_atom_site_aniso_label
_atom_site_aniso_type_symbol
_atom_site_aniso_U_11
_atom_site_aniso_U_22
_atom_site_aniso_U_33
_atom_site_aniso_U_12
_atom_site_aniso_U_13
_atom_site_aniso_U_23
Ba1 Ba2+ 0.01429(8) 0.01446(8) 0.01201(8) -.00074(5) -.00006(4) 0.00106(5)
Zn1 Zn2+ 0.0317(3) 0.0261(3) 0.0112(2) -.0155(2) -.0006(2) -.0002(2)
O1 O2- 0.0192(9) 0.020(1) 0.0178(9) 0.0003(8) -.0014(7) -.0006(7)
O2 O2- 0.0169(9) 0.0178(9) 0.0187(9) 0.0011(8) -.0017(7) -.0033(7)
O3 O2- 0.032(1) 0.024(1) 0.0160(9) -.009(1) -.0042(8) 0.0032(8)
#End of data_66972-ICSD


