data_250130-ICSD
#?2014 by Fachinformationszentrum Karlsruhe, and the U.S. Secretary of 
#Commerce on behalf of the United States.  All rights reserved.
_database_code_ICSD                250130
_audit_creation_date               2004/10/01
_audit_update_record               2013/08/01
_chemical_name_systematic          'Potassium Dihydrogenphosphate(I)'
_chemical_formula_structural       'K (H2 P O2)'
_chemical_formula_sum              'H2 K1 O2 P1'
_publ_section_title
;
The crystal structures of anhydrous hypophosphites of potassium, 
rubidium and cesium
;
loop_
_citation_id
_citation_journal_abbrev
_citation_year
_citation_journal_volume
_citation_page_first
_citation_page_last
_citation_journal_id_ASTM
primary 'Zhurnal Strukturnoi Khimii (Issue-No. from 1981)'
 2004 45 110 117 ZSTKAI
_publ_author_name
;
Naumova, M.I.;Kuratieva, N.V.;Naumov, D.Yu.;Podberezskaya, N.V.
;
_cell_length_a                     7.3131(10)
_cell_length_b                     7.2952(8)
_cell_length_c                     7.1814(10)
_cell_angle_alpha                  90
_cell_angle_beta                   116.205(10)
_cell_angle_gamma                  90
_cell_volume                       343.75
_cell_formula_units_Z              4
_symmetry_space_group_name_H-M     'C 1 2/c 1'
_symmetry_Int_Tables_number        15
_refine_ls_R_factor_all            .0309
loop_
_symmetry_equiv_pos_site_id
_symmetry_equiv_pos_as_xyz
  1	'x, -y, z+.5'
  2	'-x, -y, -z'
  3	'-x, y, -z+.5'
  4	'x, y, z'
  5	'x+.5, -y+.5, z+.5'
  6	'-x+.5, -y+.5, -z'
  7	'-x+.5, y+.5, -z+.5'
  8	'x+.5, y+.5, z'
loop_
_atom_type_symbol
_atom_type_oxidation_number
H1-	-1
K1+	1
O2-	-2
P5+	5
loop_
_atom_site_label
_atom_site_type_symbol
_atom_site_symmetry_multiplicity
_atom_site_Wyckoff_symbol
_atom_site_fract_x
_atom_site_fract_y
_atom_site_fract_z
_atom_site_occupancy
_atom_site_attached_hydrogens
_atom_site_U_iso_or_equiv
K1 K1+ 4 e 0.5 0.14284(7) 0.25 1. 0 0.0267(2) 
P1 P5+ 4 e 0.0 0.17744(8) 0.25 1. 0 0.0257(2) 
O1 O2- 8 f 0.1173(2) 0.28267(19) 0.16055(19) 1. 0 0.0337(3) 
H1 H1- 8 f -0.119(4) 0.066(3) 0.112(4) 1. 0 0.048(7) 

loop_
_atom_site_aniso_label
_atom_site_aniso_type_symbol
_atom_site_aniso_U_11
_atom_site_aniso_U_22
_atom_site_aniso_U_33
_atom_site_aniso_U_12
_atom_site_aniso_U_13
_atom_site_aniso_U_23
K1 K1+ 0.0290(3) 0.0334(3) 0.0221(3) 0.0 0.0153(2) 0.0
P1 P5+ 0.0310(4) 0.0282(3) 0.0240(3) 0.0 0.0178(3) 0.0
O1 O2- 0.0364(7) 0.0429(7) 0.0331(6) 0.0012(5) 0.0256(6) 0.0044(5)
#End of data_250130-ICSD


