data_416621-ICSD
#?2014 by Fachinformationszentrum Karlsruhe, and the U.S. Secretary of 
#Commerce on behalf of the United States.  All rights reserved.
_database_code_ICSD                416621
_audit_creation_date               2008/08/01
_chemical_name_systematic
;
Potassium Cerium Germanium Tetraselenide
;
_chemical_formula_structural       'K (Ce Ge Se4)'
_chemical_formula_sum              'Ce1 Ge1 K1 Se4'
_publ_section_title
;
Synthesis, Structures, and Properties of Layered Quaternary 
Chalcogenides of the General Formula A Ln E Q4 (A = K, Rb; Ln = Ce, 
Pr, Eu; E = Si, Ge; Q = S, Se)
;
loop_
_citation_id
_citation_journal_abbrev
_citation_year
_citation_journal_volume
_citation_journal_issue
_citation_page_first
_citation_page_last
_citation_journal_id_ASTM
primary 'Zeitschrift fuer Anorganische und Allgemeine Chemie (1950) (DE)'
 2006 632 15 2395 2401 ZAACAB
_publ_author_name
;
Choudhury, A.;Polyakova, L.A.;Hartenbach, I.;Schleid, T.;Dorhout, 
P.K.
;
_cell_length_a                     6.8522(7)
_cell_length_b                     7.0247(7)
_cell_length_c                     9.0168(9)
_cell_angle_alpha                  90.00
_cell_angle_beta                   108.116(2)
_cell_angle_gamma                  90.00
_cell_volume                       412.51
_cell_formula_units_Z              2
_symmetry_space_group_name_H-M     'P 1 21 1'
_symmetry_Int_Tables_number        4
_refine_ls_R_factor_all            .0277
loop_
_symmetry_equiv_pos_site_id
_symmetry_equiv_pos_as_xyz
  1	'-x, y+.5, -z'
  2	'x, y, z'
loop_
_atom_type_symbol
_atom_type_oxidation_number
Ce3+	3
Ge4+	4
K1+	1
Se2-	-2
loop_
_atom_site_label
_atom_site_type_symbol
_atom_site_symmetry_multiplicity
_atom_site_Wyckoff_symbol
_atom_site_fract_x
_atom_site_fract_y
_atom_site_fract_z
_atom_site_occupancy
_atom_site_attached_hydrogens
_atom_site_U_iso_or_equiv
Ge1 Ge4+ 2 a 0.28385(13) 0.24569(15) 0.68322(11) 1 0 0.0167(2) 
Ce1 Ce3+ 2 a 0.73147(7) 0.21586(7) 0.55362(6) 1 0 0.01768(15) 
Se1 Se2- 2 a 0.08595(14) 0.24869(19) 0.84986(11) 1 0 0.0261(3) 
Se2 Se2- 2 a 0.49112(15) -0.02673(13) 0.71847(12) 1 0 0.0197(3) 
Se3 Se2- 2 a 0.08099(14) 0.29577(15) 0.42297(12) 1 0 0.0219(2) 
Se4 Se2- 2 a 0.53114(15) 0.48991(13) 0.73199(13) 1 0 0.0187(2) 
K1 K1+ 2 a -0.2412(4) 0.2261(5) 0.0627(3) 1 0 0.0392(6) 

loop_
_atom_site_aniso_label
_atom_site_aniso_type_symbol
_atom_site_aniso_U_11
_atom_site_aniso_U_22
_atom_site_aniso_U_33
_atom_site_aniso_U_12
_atom_site_aniso_U_13
_atom_site_aniso_U_23
Ge1 Ge4+ 0.0154(5) 0.0145(5) 0.0201(5) -0.0002(4) 0.0054(4) -0.0003(5)
Ce1 Ce3+ 0.0162(3) 0.0172(3) 0.0195(3) -0.0001(2) 0.0053(2) -0.0009(3)
Se1 Se2- 0.0203(5) 0.0371(6) 0.0218(5) -0.0023(5) 0.0080(4) -0.0026(5)
Se2 Se2- 0.0197(5) 0.0130(5) 0.0256(7) 0.0010(4) 0.0060(4) -0.0006(4)
Se3 Se2- 0.0194(5) 0.0257(6) 0.0195(5) -0.0041(4) 0.0044(4) 0.0015(4)
Se4 Se2- 0.0183(5) 0.0131(5) 0.0234(6) -0.0005(4) 0.0045(4) -0.0010(4)
K1 K1+ 0.0448(14) 0.0465(15) 0.0266(13) 0.0039(16) 0.0116(10) 0.0021(16)
#End of data_416621-ICSD


