data_249337-ICSD
#?2014 by Fachinformationszentrum Karlsruhe, and the U.S. Secretary of 
#Commerce on behalf of the United States.  All rights reserved.
_database_code_ICSD                249337
_audit_creation_date               2008/02/01
_chemical_name_systematic
;
Tetrapotassium Decaselenidotetragermanate
;
_chemical_formula_structural       'K4 (Ge4 Se10)'
_chemical_formula_sum              'Ge4 K4 Se10'
_publ_section_title                'A polymorph of K4 Ge4 Se10'
loop_
_citation_id
_citation_journal_abbrev
_citation_year
_citation_journal_volume
_citation_journal_issue
_citation_page_first
_citation_page_last
_citation_journal_id_ASTM
primary 'Acta Crystallographica, Section E. Structure Reports Online'
 2007 63 7 i155 i155 ACSEBH
_publ_author_name
;
Choudhury, A.;Strobel, S.;Dorhout, P.K.
;
_cell_length_a                     9.9796(8)
_cell_length_b                     9.7047(8)
_cell_length_c                     23.184(2)
_cell_angle_alpha                  90.00
_cell_angle_beta                   94.508(2)
_cell_angle_gamma                  90.00
_cell_volume                       2238.4
_cell_formula_units_Z              4
_symmetry_space_group_name_H-M     'P 1 21/c 1'
_symmetry_Int_Tables_number        14
_refine_ls_R_factor_all            .042
loop_
_symmetry_equiv_pos_site_id
_symmetry_equiv_pos_as_xyz
  1	'x, -y+.5, z+.5'
  2	'-x, -y, -z'
  3	'-x, y+.5, -z+.5'
  4	'x, y, z'
loop_
_atom_type_symbol
_atom_type_oxidation_number
Ge4+	4
K1+	1
Se2-	-2
loop_
_atom_site_label
_atom_site_type_symbol
_atom_site_symmetry_multiplicity
_atom_site_Wyckoff_symbol
_atom_site_fract_x
_atom_site_fract_y
_atom_site_fract_z
_atom_site_occupancy
_atom_site_attached_hydrogens
_atom_site_U_iso_or_equiv
Ge1 Ge4+ 4 e 0.05608(7) 0.77088(7) 0.37483(3) 1 0 0.01313(18) 
Ge2 Ge4+ 4 e 0.84125(7) 0.08752(7) 0.37930(3) 1 0 0.01123(17) 
Ge3 Ge4+ 4 e 0.72783(7) 0.75584(7) 0.30709(3) 1 0 0.01103(17) 
Ge4 Ge4+ 4 e 0.73792(7) 0.77065(7) 0.47074(3) 1 0 0.01166(17) 
Se1 Se2- 4 e 0.61852(7) 0.67644(7) 0.39529(3) 1 0 0.01264(16) 
Se2 Se2- 4 e 0.96086(7) 0.68890(7) 0.46503(3) 1 0 0.01607(18) 
Se3 Se2- 4 e 0.27457(7) 0.70088(7) 0.36540(3) 1 0 0.01702(18) 
Se4 Se2- 4 e 0.83817(7) 0.32038(7) 0.37588(3) 1 0 0.01580(18) 
Se5 Se2- 4 e 0.71983(7) 0.00069(7) 0.30260(3) 1 0 0.01306(17) 
Se6 Se2- 4 e 0.72631(7) 0.01489(7) 0.46832(3) 1 0 0.01402(17) 
Se7 Se2- 4 e 0.95299(7) 0.67889(7) 0.29407(3) 1 0 0.01363(17) 
Se8 Se2- 4 e 0.06604(7) 0.01348(7) 0.37121(3) 1 0 0.01835(18) 
Se9 Se2- 4 e 0.61132(7) 0.68152(7) 0.23270(3) 1 0 0.01788(18) 
Se10 Se2- 4 e 0.62389(7) 0.69187(7) 0.55318(3) 1 0 0.01533(17) 
K1 K1+ 4 e 0.84052(16) 0.61928(16) 0.65528(7) 1 0 0.0223(4) 
K2 K1+ 4 e 0.43100(16) 0.99728(15) 0.39359(7) 1 0 0.0163(3) 
K3 K1+ 4 e 0.31801(17) 0.62238(16) 0.50104(7) 1 0 0.0221(4) 
K4 K1+ 4 e 0.67980(19) 0.35486(18) 0.26208(8) 1 0 0.0288(4) 

loop_
_atom_site_aniso_label
_atom_site_aniso_type_symbol
_atom_site_aniso_U_11
_atom_site_aniso_U_22
_atom_site_aniso_U_33
_atom_site_aniso_U_12
_atom_site_aniso_U_13
_atom_site_aniso_U_23
Ge1 Ge4+ 0.0119(4) 0.0106(3) 0.0157(4) 0.0012(3) -0.0064(3) -0.0001(3)
Ge2 Ge4+ 0.0138(4) 0.0092(3) 0.0098(4) 0.0003(3) -0.0052(3) 0.0017(3)
Ge3 Ge4+ 0.0121(3) 0.0108(3) 0.0090(4) 0.0009(3) -0.0063(3) -0.0009(3)
Ge4 Ge4+ 0.0156(4) 0.0089(3) 0.0095(4) 0.0005(3) -0.0049(3) 0.0021(3)
Se1 Se2- 0.0125(3) 0.0121(3) 0.0126(4) -0.0010(3) -0.0044(3) 0.0010(3)
Se2 Se2- 0.0167(4) 0.0141(3) 0.0159(4) 0.0015(3) -0.0083(3) 0.0043(3)
Se3 Se2- 0.0112(3) 0.0153(3) 0.0232(4) 0.0008(3) -0.0072(3) -0.0019(3)
Se4 Se2- 0.0232(4) 0.0098(3) 0.0133(4) -0.0009(3) -0.0058(3) 0.0013(3)
Se5 Se2- 0.0165(4) 0.0111(3) 0.0105(3) 0.0018(3) -0.0065(3) 0.0016(3)
Se6 Se2- 0.0233(4) 0.0092(3) 0.0092(3) 0.0015(3) -0.0013(3) 0.0009(3)
Se7 Se2- 0.0133(3) 0.0132(3) 0.0136(4) 0.0016(3) -0.0038(3) -0.0020(3)
Se8 Se2- 0.0141(4) 0.0122(3) 0.0275(4) -0.0011(3) -0.0063(3) 0.0022(3)
Se9 Se2- 0.0203(4) 0.0177(4) 0.0137(4) 0.0009(3) -0.0113(3) -0.0038(3)
Se10 Se2- 0.0239(4) 0.0116(3) 0.0101(3) -0.0014(3) -0.0017(3) 0.0020(3)
K1 K1+ 0.0240(8) 0.0184(8) 0.0233(9) -0.0021(7) -0.0057(7) -0.0017(7)
K2 K1+ 0.0188(8) 0.0150(7) 0.0143(8) -0.0010(6) -0.0045(6) -0.0027(6)
K3 K1+ 0.0275(9) 0.0182(8) 0.0196(8) 0.0035(7) -0.0052(7) -0.0052(7)
K4 K1+ 0.0406(11) 0.0204(8) 0.0220(9) -0.0030(7) -0.0190(8) 0.0049(7)
#End of data_249337-ICSD


