data_59924-ICSD
#?2014 by Fachinformationszentrum Karlsruhe, and the U.S. Secretary of 
#Commerce on behalf of the United States.  All rights reserved.
_database_code_ICSD                59924
_audit_creation_date               2005/10/01
_audit_update_record               2014/08/01
_chemical_name_systematic          'Trisilver Oxoruthenate(V)'
_chemical_formula_structural       'Ag3 Ru O4'
_chemical_formula_sum              'Ag3 O4 Ru1'
_publ_section_title
;
Trisilver oxoruthenate(V), Ag3 Ru O4
;
loop_
_citation_id
_citation_journal_abbrev
_citation_year
_citation_journal_volume
_citation_page_first
_citation_page_last
_citation_journal_id_ASTM
primary 'Acta Crystallographica, Section C: Crystal Structure Communications'
 2005 61 i1 i2 ACSCEE
_publ_author_name                  'Jansen, M.;Klein, W.'
_cell_length_a                     7.0082(4)
_cell_length_b                     7.0082(4)
_cell_length_c                     8.6518(7)
_cell_angle_alpha                  90.00
_cell_angle_beta                   90.00
_cell_angle_gamma                  90.00
_cell_volume                       424.93
_cell_formula_units_Z              4
_symmetry_space_group_name_H-M     'P 41 2 2'
_symmetry_Int_Tables_number        91
_refine_ls_R_factor_all            .0318
loop_
_symmetry_equiv_pos_site_id
_symmetry_equiv_pos_as_xyz
  1	'y, x, -z+.75'
  2	'-y, -x, -z+.25'
  3	'x, -y, -z+.5'
  4	'-x, y, -z'
  5	'y, -x, z+.75'
  6	'-y, x, z+.25'
  7	'-x, -y, z+.5'
  8	'x, y, z'
loop_
_atom_type_symbol
_atom_type_oxidation_number
Ag1+	1
O2-	-2
Ru5+	5
loop_
_atom_site_label
_atom_site_type_symbol
_atom_site_symmetry_multiplicity
_atom_site_Wyckoff_symbol
_atom_site_fract_x
_atom_site_fract_y
_atom_site_fract_z
_atom_site_occupancy
_atom_site_attached_hydrogens
_atom_site_U_iso_or_equiv
Ag1 Ag1+ 4 a 0.25750(12) 0.0000 0.2500 1 0 0.0277(3) 
Ag2 Ag1+ 4 a 0.0000 0.20859(18) 0.0000 1 0 0.0311(3) 
Ag3 Ag1+ 4 b 0.5000 0.79222(13) 0.0000 1 0 0.0359(4) 
Ru1 Ru5+ 4 b 0.5000 0.28048(11) 0.0000 1 0 0.0107(2) 
O1 O2- 8 d 0.6941(7) 0.4872(7) 0.0248(5) 1 0 0.0150(10) 
O2 O2- 8 d 0.3063(8) 0.0905(7) 0.0159(6) 1 0 0.0206(11) 

loop_
_atom_site_aniso_label
_atom_site_aniso_type_symbol
_atom_site_aniso_U_11
_atom_site_aniso_U_22
_atom_site_aniso_U_33
_atom_site_aniso_U_12
_atom_site_aniso_U_13
_atom_site_aniso_U_23
Ag1 Ag1+ 0.0284(5) 0.0289(7) 0.0259(6) 0.000 0.000 0.0141(4)
Ag2 Ag1+ 0.0153(6) 0.0551(7) 0.0228(5) 0.000 0.0043(3) 0.000
Ag3 Ag1+ 0.0729(9) 0.0118(4) 0.0228(5) 0.000 -0.0121(5) 0.000
Ru1 Ru5+ 0.0113(4) 0.0100(4) 0.0109(4) 0.000 -0.0015(3) 0.000
O1 O2- 0.018(2) 0.013(2) 0.014(2) -0.007(2) 0.0021(19) -0.001(2)
O2 O2- 0.014(2) 0.025(3) 0.022(3) -0.003(2) -0.001(2) -0.001(3)
#End of data_59924-ICSD


