data_60373-ICSD
#?2014 by Fachinformationszentrum Karlsruhe, and the U.S. Secretary of 
#Commerce on behalf of the United States.  All rights reserved.
_database_code_ICSD                60373
_audit_creation_date               1986/04/15
_audit_update_record               2000/07/15
_chemical_name_systematic          'Silver Indium Bis(tungstate)'
_chemical_formula_structural       'Ag In (W O4)2'
_chemical_formula_sum              'Ag1 In1 O8 W2'
_publ_section_title
;
Structure and elastic properties of Ag In (W O4)2
;
loop_
_citation_id
_citation_journal_abbrev
_citation_year
_citation_journal_volume
_citation_page_first
_citation_page_last
_citation_journal_id_ASTM
primary 'Koordinatsionnaya Khimiya (= Coordination Chemistry (USSR))'
 1977 3 765 767 KOKHDC
_publ_author_name
;
Pakhomov, V.I.;Fedorov, P.M.;Okunera, A.S.;Sorokina, O.V.
;
_cell_length_a                     10.44(5)
_cell_length_b                     5.87(3)
_cell_length_c                     5.07(3)
_cell_angle_alpha                  90.
_cell_angle_beta                   90.(1)
_cell_angle_gamma                  90.
_cell_volume                       310.7
_cell_formula_units_Z              2
_symmetry_space_group_name_H-M     'P 1 2/c 1'
_symmetry_Int_Tables_number        13
_refine_ls_R_factor_all            .152
loop_
_symmetry_equiv_pos_site_id
_symmetry_equiv_pos_as_xyz
  1	'x, -y, z+.5'
  2	'-x, -y, -z'
  3	'-x, y, -z+.5'
  4	'x, y, z'
loop_
_atom_type_symbol
_atom_type_oxidation_number
Ag1+	1
In3+	3
O2-	-2
W6+	6
loop_
_atom_site_label
_atom_site_type_symbol
_atom_site_symmetry_multiplicity
_atom_site_Wyckoff_symbol
_atom_site_fract_x
_atom_site_fract_y
_atom_site_fract_z
_atom_site_occupancy
_atom_site_attached_hydrogens
_atom_site_B_iso_or_equiv
Ag1 Ag1+ 2 e 0 0.3049(7) 0.75 1. 0 0.68 
In1 In3+ 2 f 0.5 0.3123(7) 0.75 1. 0 0.39 
W1 W6+ 4 g 0.2608(2) 0.1775(3) 0.2600(4) 1. 0 0.2 
O1 O2- 4 g 0.375(4) 0.099(5) 0.927(8) 1. 0 0.44 
O2 O2- 4 g 0.384(4) 0.370(4) 0.374(7) 1. 0 0.85 
O3 O2- 4 g 0.163(4) 0.370(5) 0.123(8) 1. 0 0.61 
O4 O2- 4 g 0.173(5) 0.093(5) 0.613(8) 1. 0 0.74 

#End of data_60373-ICSD


