data_26993-ICSD
#?2014 by Fachinformationszentrum Karlsruhe, and the U.S. Secretary of 
#Commerce on behalf of the United States.  All rights reserved.
_database_code_ICSD                26993
_audit_creation_date               1980/01/01
_audit_update_record               2006/04/01
_chemical_name_systematic
;
Potassium Hexafluorostannate Hydrogendifluoride
;
_chemical_formula_structural       '(K2 (Sn F6)) (K (H F2))'
_chemical_formula_sum              'H1 F8 K3 Sn1'
_publ_section_title
;
Structure cristalline du fluorostannate acide de potassium (K2 Sn F6) 
(K H F2)
;
loop_
_citation_id
_citation_journal_abbrev
_citation_year
_citation_journal_volume
_citation_page_first
_citation_page_last
_citation_journal_id_ASTM
primary
;
Comptes Rendus Hebdomadaires des Seances de l`Academie des Sciences 
(1884 - 1965)
;
 1965 260 3664 3665 COREAF
_publ_author_name                  'Weiss, R.;Chevrier, B.;Fischer, J.'
_cell_length_a                     8.763(8)
_cell_length_b                     14.07(1)
_cell_length_c                     6.828(6)
_cell_angle_alpha                  90.
_cell_angle_beta                   93.08(17)
_cell_angle_gamma                  90.
_cell_volume                       840.64
_cell_formula_units_Z              4
_symmetry_space_group_name_H-M     'C 1 2/c 1'
_symmetry_Int_Tables_number        15
_refine_ls_R_factor_all            .147
loop_
_symmetry_equiv_pos_site_id
_symmetry_equiv_pos_as_xyz
  1	'x, -y, z+.5'
  2	'-x, -y, -z'
  3	'-x, y, -z+.5'
  4	'x, y, z'
  5	'x+.5, -y+.5, z+.5'
  6	'-x+.5, -y+.5, -z'
  7	'-x+.5, y+.5, -z+.5'
  8	'x+.5, y+.5, z'
loop_
_atom_type_symbol
_atom_type_oxidation_number
F1-	-1
H1+	1
K1+	1
Sn4+	4
loop_
_atom_site_label
_atom_site_type_symbol
_atom_site_symmetry_multiplicity
_atom_site_Wyckoff_symbol
_atom_site_fract_x
_atom_site_fract_y
_atom_site_fract_z
_atom_site_occupancy
_atom_site_attached_hydrogens
_atom_site_B_iso_or_equiv
Sn1 Sn4+ 4 e 0 0.176 0.25 1. 0 0.5 
K1 K1+ 4 e 0 0.344 0.75 1. 0 1.9 
K2 K1+ 8 f 0.221 0.099 0.78 1. 0 2.7 
F1 F1- 8 f 0.218 0.18 0.194 1. 0 4. 
F2 F1- 8 f 0.378 0.016 0.478 1. 0 4. 
F3 F1- 4 e 0 0.036 0.25 1. 0 4.3 
F4 F1- 4 e 0 0.322 0.25 1. 0 3.8 
F5 F1- 8 f 0.043 0.177 0.549 1. 0 4.1 
H1 H1+ 4 b 0 0.5 0 1. 0 0 

#End of data_26993-ICSD


