data_71303-ICSD
#?2014 by Fachinformationszentrum Karlsruhe, and the U.S. Secretary of 
#Commerce on behalf of the United States.  All rights reserved.
_database_code_ICSD                71303
_audit_creation_date               1993/01/06
_audit_update_record               2003/04/01
_chemical_name_systematic
;
Dipotassium Tetrachlorocobaltate(II) - Iii
;
_chemical_formula_structural       'K2 (Co Cl4)'
_chemical_formula_sum              'Cl4 Co1 K2'
_publ_section_title
;
A structural study of the commensurate-commensurate transition in K2 
Co Cl4 at 142K
;
loop_
_citation_id
_citation_journal_abbrev
_citation_year
_citation_journal_volume
_citation_page_first
_citation_page_last
_citation_journal_id_ASTM
primary 'Journal of the Physical Society of Japan' 1991 60 180 187 JUPSAU
2 'Phase Transition' 1992 38 127 220 PHTRDP
_publ_author_name                  'Mashiyama, H.'
_cell_length_a                     7.244(5)
_cell_length_b                     12.375(8)
_cell_length_c                     26.772(23)
_cell_angle_alpha                  90.
_cell_angle_beta                   90.
_cell_angle_gamma                  90.
_cell_volume                       2399.96
_cell_formula_units_Z              12
_symmetry_space_group_name_H-M     'P 21 c n'
_symmetry_Int_Tables_number        33
_refine_ls_R_factor_all            .044
loop_
_symmetry_equiv_pos_site_id
_symmetry_equiv_pos_as_xyz
  1	'x, -y+.5, z+.5'
  2	'x+.5, y+.5, -z+.5'
  3	'x+.5, -y, -z'
  4	'x, y, z'
loop_
_atom_type_symbol
_atom_type_oxidation_number
Cl1-	-1
Co2+	2
K1+	1
loop_
_atom_site_label
_atom_site_type_symbol
_atom_site_symmetry_multiplicity
_atom_site_Wyckoff_symbol
_atom_site_fract_x
_atom_site_fract_y
_atom_site_fract_z
_atom_site_occupancy
_atom_site_attached_hydrogens
_atom_site_B_iso_or_equiv
K1 K1+ 4 a 0.2861 0.0799(2) 0.0442(1) 1. 0 5.61(7) 
K2 K1+ 4 a 0.2623(4) 0.0843(3) 0.3800(1) 1. 0 5.70(7) 
K3 K1+ 4 a 0.2210(3) 0.0828(2) 0.7108(1) 1. 0 4.27(5) 
K4 K1+ 4 a 0.2401(3) 0.8129(2) 0.1663(1) 1. 0 3.38(4) 
K5 K1+ 4 a 0.2945(3) 0.8117(1) 0.4991(1) 1. 0 2.76(3) 
K6 K1+ 4 a 0.2224(3) 0.8116(2) 0.8323(1) 1. 0 3.20(4) 
Co1 Co2+ 4 a 0.2521(2) 0.4199(1) 0.0720(1) 1. 0 2.12(2) 
Cl1 Cl1- 4 a 0.1744(3) 0.4443(2) -.0083(1) 1. 0 3.25(4) 
Cl2 Cl1- 4 a 0.3169(4) 0.5759(2) 0.1129(1) 1. 0 3.89(5) 
Cl3 Cl1- 4 a -.0067(3) 0.3558(2) 0.1106(1) 1. 0 3.93(5) 
Cl4 Cl1- 4 a 0.4821(3) 0.3022(2) 0.0841(1) 1. 0 4.13(5) 
Co2 Co2+ 4 a 0.2817(1) 0.4181(1) 0.4049(1) 1. 0 2.07(2) 
Cl5 Cl1- 4 a 0.3172(5) 0.4383(2) 0.3230(1) 1. 0 4.69(6) 
Cl6 Cl1- 4 a 0.3140(7) 0.5777(2) 0.4448(1) 1. 0 6.21(9) 
Cl7 Cl1- 4 a 0.0121(4) 0.3484(3) 0.4298(1) 1. 0 6.61(8) 
Cl8 Cl1- 4 a 0.5006(4) 0.3071(3) 0.4346(1) 1. 0 6.18(7) 
Co3 Co2+ 4 a 0.2369(1) 0.4178(1) 0.7403(1) 1. 0 2.11(2) 
Cl9 Cl1- 4 a 0.3078(5) 0.4353(2) 0.6593(1) 1. 0 4.54(6) 
Cl10 Cl1- 4 a 0.1686(4) 0.5752(2) 0.7799(1) 1. 0 3.56(5) 
Cl11 Cl1- 4 a 0.0158(3) 0.2936(2) 0.7553(1) 1. 0 3.96(5) 
Cl12 Cl1- 4 a 0.5002(3) 0.3599(2) 0.7777(1) 1. 0 3.83(5) 

#End of data_71303-ICSD


