data_170662-ICSD
#?2014 by Fachinformationszentrum Karlsruhe, and the U.S. Secretary of 
#Commerce on behalf of the United States.  All rights reserved.
_database_code_ICSD                170662
_audit_creation_date               2006/04/01
_audit_update_record               2008/02/01
_chemical_name_systematic          'Silver Antimony Telluride'
_chemical_formula_structural       'Ag Sb Te2'
_chemical_formula_sum              'Ag1 Sb1 Te2'
_publ_section_title
;
Nano-structuring, compositional fluctuations and atomic ordering in 
the thermoelectric materials Ag Pb(m) Sb Te(2+m). The myth of solid 
solutions
;
loop_
_citation_id
_citation_journal_abbrev
_citation_year
_citation_journal_volume
_citation_journal_issue
_citation_page_first
_citation_page_last
_citation_journal_id_ASTM
primary 'Journal of the American Chemical Society' 2005 127 25 9177 9190 JACSAT
_publ_author_name
;
Quarez, E.;Hsu, K.-F.;Pcionek, R.J.;Frangis, N.;Polychroniadis, 
E.K.;Kanatzidis, M.G.
;
_cell_length_a                     4.2898(6)
_cell_length_b                     4.2898(6)
_cell_length_c                     6.0667(12)
_cell_angle_alpha                  90.00
_cell_angle_beta                   90.00
_cell_angle_gamma                  90.00
_cell_volume                       111.64
_cell_formula_units_Z              1
_symmetry_space_group_name_H-M     'P 4/m m m'
_symmetry_Int_Tables_number        123
_refine_ls_R_factor_all            .0353
loop_
_symmetry_equiv_pos_site_id
_symmetry_equiv_pos_as_xyz
  1	'y, x, -z'
  2	'-y, -x, -z'
  3	'-y, x, -z'
  4	'y, -x, -z'
  5	'-x, y, -z'
  6	'x, -y, -z'
  7	'x, y, -z'
  8	'-x, -y, -z'
  9	'-y, -x, z'
 10	'y, x, z'
 11	'y, -x, z'
 12	'-y, x, z'
 13	'x, -y, z'
 14	'-x, y, z'
 15	'-x, -y, z'
 16	'x, y, z'
loop_
_atom_type_symbol
_atom_type_oxidation_number
Ag1+	1
Sb3+	3
Te2-	-2
loop_
_atom_site_label
_atom_site_type_symbol
_atom_site_symmetry_multiplicity
_atom_site_Wyckoff_symbol
_atom_site_fract_x
_atom_site_fract_y
_atom_site_fract_z
_atom_site_occupancy
_atom_site_attached_hydrogens
_atom_site_U_iso_or_equiv
Te1 Te2- 1 a 0.0000 0.0000 0.0000 1 0 0.0287(5) 
Te2 Te2- 1 d 0.5000 0.5000 0.5000 1 0 0.0289(5) 
Sb1 Sb3+ 1 b 1.0000 0.0000 0.5000 1 0 0.0448(4) 
Ag1 Ag1+ 1 c 0.5000 0.5000 0.0000 1 0 0.0353(4) 

#End of data_170662-ICSD


