data_20550-ICSD
#?2014 by Fachinformationszentrum Karlsruhe, and the U.S. Secretary of 
#Commerce on behalf of the United States.  All rights reserved.
_database_code_ICSD                20550
_audit_creation_date               1983/12/31
_chemical_name_systematic
;
Lithium Barium Chlorosilicate Carbonate *
;
_chemical_formula_structural       'Li Ba9 (Si10 O25) Cl7 (C O3)'
_chemical_formula_sum              'C1 Ba9 Cl7 Li1 O28 Si10'
_publ_section_title
;
A new type of infinite silicate radical (Si10 O25) in the synthetic 
compound Li Ba9 (Si10 O25) Cl7 (C O3).
;
loop_
_citation_id
_citation_journal_abbrev
_citation_year
_citation_journal_volume
_citation_page_first
_citation_page_last
_citation_journal_id_ASTM
primary 'Doklady Akademii Nauk SSSR' 1983 269 609 613 DANKAS
_publ_author_name
;
Il'inets, A.M.;Nevskii, N.N.;Ilyukhin, V.V.;Belov, N.V.
;
_cell_length_a                     11.587(8)
_cell_length_b                     17.687(4)
_cell_length_c                     9.388(4)
_cell_angle_alpha                  90.
_cell_angle_beta                   90.
_cell_angle_gamma                  90.
_cell_volume                       1923.97
_cell_formula_units_Z              2
_symmetry_space_group_name_H-M     'P m m n Z'
_symmetry_Int_Tables_number        59
_refine_ls_R_factor_all            .055
loop_
_symmetry_equiv_pos_site_id
_symmetry_equiv_pos_as_xyz
  1	'x+.5, y+.5, -z'
  2	'-x, y+.5, -z'
  3	'x+.5, -y, -z'
  4	'-x, -y, -z'
  5	'-x+.5, -y+.5, z'
  6	'x, -y+.5, z'
  7	'-x+.5, y, z'
  8	'x, y, z'
loop_
_atom_type_symbol
_atom_type_oxidation_number
Ba2+	2
C4+	4
Cl1-	-1
Li1+	1
O2-	-2
Si4+	4
loop_
_atom_site_label
_atom_site_type_symbol
_atom_site_symmetry_multiplicity
_atom_site_Wyckoff_symbol
_atom_site_fract_x
_atom_site_fract_y
_atom_site_fract_z
_atom_site_occupancy
_atom_site_attached_hydrogens
_atom_site_B_iso_or_equiv
Ba1 Ba2+ 4 f 0.0420(1) 0.75 -.0103(1) 1. 0 1.49 
Ba2 Ba2+ 8 g 0.0473(1) 0.6056(1) 0.3982(1) 1. 0 1.25 
Ba3 Ba2+ 4 e 0.25 0.3898(1) 0.2919(1) 1. 0 1.17 
Ba4 Ba2+ 2 a 0.75 0.75 0.2669(1) 1. 0 1.17 
Cl1 Cl1- 4 e 0.25 0.4284(3) 0.6013(6) 1. 0 2.15 
Cl2 Cl1- 2 a 0.75 0.75 0.9072(7) 1. 0 1.58 
Cl3 Cl1- 4 f 0.4177(5) 0.25 0.4467(6) 1. 0 1.92 
Cl4 Cl1- 4 e 0.25 0.5603(3) 0.2005(5) 1. 0 1.91 
Si1 Si4+ 4 e 0.25 0.6627(2) 0.7152(5) 1. 0 0.8 
Si2 Si4+ 8 g 0.0323(3) 0.5654(2) 0.7973(3) 1. 0 0.86 
Si3 Si4+ 8 g 0.1146(2) 0.4082(2) 0.9301(3) 1. 0 0.84 
O1 O2- 8 g 0.9234(8) 0.6595(5) 0.165(1) 1. 0 1.2 
O2 O2- 8 g 0.9708(8) 0.5528(5) 0.648(1) 1. 0 1.3 
O3 O2- 4 e 0.25 0.8448(8) 0.549(1) 1. 0 1.5 
O4 O2- 2 b 0.25 0.75 0.767(1) 1. 0 1.1 
O5 O2- 4 e 0.25 0.4126(8) 0.966(1) 1. 0 1.6 
O6 O2- 8 g 0.9422(8) 0.8955(5) 0.912(1) 1. 0 1.3 
O7 O2- 8 g 0.0742(9) 0.4871(6) 0.866(1) 1. 0 1.6 
O8 O2- 8 g 0.1365(8) 0.8725(5) 0.797(1) 1. 0 1.5 
O9 O2- 4 f 0.151(1) 0.75 0.283(1) 1. 0 2.3 
O10 O2- 2 b 0.25 0.75 0.083(3) 1. 0 3.1 
C1 C4+ 2 b 0.75 0.25 0.779(2) 1. 0 1.2 
Li1 Li1+ 2 b 0.25 0.75 0.457(4) 1. 0 0.9 

#End of data_20550-ICSD


