data_96612-ICSD
#?2014 by Fachinformationszentrum Karlsruhe, and the U.S. Secretary of 
#Commerce on behalf of the United States.  All rights reserved.
_database_code_ICSD                96612
_audit_creation_date               2004/04/01
_audit_update_record               2012/08/01
_chemical_name_systematic          'Zinc Diantimonate'
_chemical_formula_structural       'Zn (Sb2 O6)'
_chemical_formula_sum              'O6 Sb2 Zn1'
_chemical_name_mineral             Ordonezite
_publ_section_title
;
Ordonezite from the Theodoso Soto mine, Sapioris, Durango, Mexico: 
new data and structure refinement
;
loop_
_citation_id
_citation_journal_abbrev
_citation_year
_citation_journal_volume
_citation_page_first
_citation_page_last
_citation_journal_id_ASTM
primary 'Canadian Mineralogist' 2002 40 1207 1210 CAMIA6
_publ_author_name
;
Ercit, T.S.;Foord, E.E.;Fitzpatrick, J.J.
;
_cell_length_a                     4.6638(4)
_cell_length_b                     4.6638(4)
_cell_length_c                     9.263(1)
_cell_angle_alpha                  90
_cell_angle_beta                   90
_cell_angle_gamma                  90
_cell_volume                       201.48
_cell_formula_units_Z              2
_symmetry_space_group_name_H-M     'P 42/m n m'
_symmetry_Int_Tables_number        136
_refine_ls_R_factor_all            .041
loop_
_symmetry_equiv_pos_site_id
_symmetry_equiv_pos_as_xyz
  1	'-y+.5, x+.5, -z+.5'
  2	'y+.5, -x+.5, -z+.5'
  3	'y, x, -z'
  4	'-y, -x, -z'
  5	'y+.5, -x+.5, z+.5'
  6	'-y+.5, x+.5, z+.5'
  7	'-y, -x, z'
  8	'y, x, z'
  9	'x+.5, -y+.5, -z+.5'
 10	'-x+.5, y+.5, -z+.5'
 11	'x, y, -z'
 12	'-x, -y, -z'
 13	'-x+.5, y+.5, z+.5'
 14	'x+.5, -y+.5, z+.5'
 15	'-x, -y, z'
 16	'x, y, z'
loop_
_atom_type_symbol
_atom_type_oxidation_number
O2-	-2
Sb5+	5
Zn2+	2
loop_
_atom_site_label
_atom_site_type_symbol
_atom_site_symmetry_multiplicity
_atom_site_Wyckoff_symbol
_atom_site_fract_x
_atom_site_fract_y
_atom_site_fract_z
_atom_site_occupancy
_atom_site_attached_hydrogens
_atom_site_B_iso_or_equiv
Zn1 Zn2+ 2 a 0 0 0 1. 0 0.59(6) 
Sb1 Sb5+ 4 e 0 0 0.3322(1) 1. 0 0.30(5) 
O1 O2- 4 f 0.315(3) 0.315(3) 0 1. 0 0.4(2) 
O2 O2- 8 j 0.304(2) 0.304(2) 0.325(1) 1. 0 0.5(2) 

#End of data_96612-ICSD


