data_92316-ICSD
#?2014 by Fachinformationszentrum Karlsruhe, and the U.S. Secretary of 
#Commerce on behalf of the United States.  All rights reserved.
_database_code_ICSD                92316
_audit_creation_date               2002/10/01
_chemical_name_systematic          'Lithium Pentasodium Nitride'
_chemical_formula_structural       'Li Na5 N2'
_chemical_formula_sum              'Li1 N2 Na5'
_publ_section_title
;
Investigation of the possible ternary nitrides in the system (Li3 
N)/(Na3 N)
;
loop_
_citation_id
_citation_journal_abbrev
_citation_year
_citation_journal_volume
_citation_page_first
_citation_page_last
_citation_journal_id_ASTM
primary 'Solid State Sciences' 2000 2 449 456 SSSCFJ
_publ_author_name
;
Schoen, J.C.;Wevers, M.A.C.;Jansen, M.
;
_cell_length_a                     6.57
_cell_length_b                     4.056
_cell_length_c                     3.7288
_cell_angle_alpha                  89.48
_cell_angle_beta                   90.53
_cell_angle_gamma                  88.84
_cell_volume                       99.34
_cell_formula_units_Z              1
_symmetry_space_group_name_H-M     'P 1'
_symmetry_Int_Tables_number        1
loop_
_symmetry_equiv_pos_site_id
_symmetry_equiv_pos_as_xyz
  1	'x, y, z'
loop_
_atom_type_symbol
_atom_type_oxidation_number
Li1+	1
N3-	-3
Na1+	1
loop_
_atom_site_label
_atom_site_type_symbol
_atom_site_symmetry_multiplicity
_atom_site_Wyckoff_symbol
_atom_site_fract_x
_atom_site_fract_y
_atom_site_fract_z
_atom_site_occupancy
_atom_site_attached_hydrogens
N1 N3- 1 a 0.209 0.497 0.255 1. 0 
N2 N3- 1 a 0.709 0.505 0.762 1. 0 
Na1 Na1+ 1 a 0.042 0.555 0.746 1. 0 
Na2 Na1+ 1 a 0.876 0.447 0.268 1. 0 
Na3 Na1+ 1 a 0.715 0.998 0.873 1. 0 
Na4 Na1+ 1 a 0.379 0.465 0.754 1. 0 
Na5 Na1+ 1 a 0.541 0.536 0.26 1. 0 
Li1 Li1+ 1 a 0.212 0 0.241 1. 0 

#End of data_92316-ICSD


