data_40531-ICSD
#?2014 by Fachinformationszentrum Karlsruhe, and the U.S. Secretary of 
#Commerce on behalf of the United States.  All rights reserved.
_database_code_ICSD                40531
_audit_creation_date               1999/11/30
_audit_update_record               2007/08/01
_chemical_name_systematic          'Barium Tecto-dialumodisilicate'
_chemical_formula_structural       'Ba (Al2 Si2 O8)'
_chemical_formula_sum              'Al2 Ba1 O8 Si2'
_chemical_name_mineral             Paracelsian
_publ_section_title
;
Two independent refinements of the structure of paracelsian
;
loop_
_citation_id
_citation_journal_abbrev
_citation_year
_citation_journal_volume
_citation_page_first
_citation_page_last
_citation_journal_id_ASTM
primary 'American Mineralogist' 1985 70 969 974 AMMIAY
_publ_author_name
;
Chiari, G.;Gazzoni, G.;Craig, J.R.;Gibbs, G.V.;Louisnathan, S.J.
;
_cell_length_a                     9.065(3)
_cell_length_b                     9.568(1)
_cell_length_c                     8.578(5)
_cell_angle_alpha                  90.
_cell_angle_beta                   90.01(4)
_cell_angle_gamma                  90.
_cell_volume                       744
_cell_formula_units_Z              4
_symmetry_space_group_name_H-M     'P 1 21/a 1'
_symmetry_Int_Tables_number        14
_refine_ls_R_factor_all            .035
loop_
_symmetry_equiv_pos_site_id
_symmetry_equiv_pos_as_xyz
  1	'x+.5, -y+.5, z'
  2	'-x, -y, -z'
  3	'-x+.5, y+.5, -z'
  4	'x, y, z'
loop_
_atom_type_symbol
_atom_type_oxidation_number
Al3+	3
Ba2+	2
O2-	-2
Si4+	4
loop_
_atom_site_label
_atom_site_type_symbol
_atom_site_symmetry_multiplicity
_atom_site_Wyckoff_symbol
_atom_site_fract_x
_atom_site_fract_y
_atom_site_fract_z
_atom_site_occupancy
_atom_site_attached_hydrogens
_atom_site_U_iso_or_equiv
Ba1 Ba2+ 4 e 0.89785(5) 0.41174(4) 0.25107(5) 1. 0 0.008 
Si1 Si4+ 4 e 0.0688(2) 0.1994(2) 0.9411(2) 1. 0 0.004 
Si2 Si4+ 4 e 0.2307(2) 0.9167(2) 0.5625(2) 1. 0 0.005 
Al1 Al3+ 4 e 0.0642(3) 0.1939(2) 0.5726(3) 1. 0 0.005 
Al2 Al3+ 4 e 0.2242(3) 0.9214(2) 0.9302(3) 1. 0 0.005 
O1 O2- 4 e 0.1948(7) 0.0898(5) 0.9991(7) 1. 0 0.008 
O2 O2- 4 e 0.1925(7) 0.0725(4) 0.5038(7) 1. 0 0.011 
O3 O2- 4 e 0.1272(7) 0.3605(5) 0.9556(7) 1. 0 0.01 
O4 O2- 4 e 0.1315(6) 0.3642(5) 0.5445(7) 1. 0 0.008 
O5 O2- 4 e 0.9298(6) 0.1848(5) 0.0595(6) 1. 0 0.008 
O6 O2- 4 e 0.9091(6) 0.1844(5) 0.4495(7) 1. 0 0.005 
O7 O2- 4 e 0.0188(7) 0.1657(5) 0.7642(7) 1. 0 0.012 
O8 O2- 4 e 0.2916(7) 0.9108(5) 0.7390(6) 1. 0 0.009 

#End of data_40531-ICSD


