data_15500-ICSD
#?2014 by Fachinformationszentrum Karlsruhe, and the U.S. Secretary of 
#Commerce on behalf of the United States.  All rights reserved.
_database_code_ICSD                15500
_audit_creation_date               1981/12/31
_chemical_name_systematic          'Sodium Silicate'
_chemical_formula_structural       'Na4 Si O4'
_chemical_formula_sum              'Na4 O4 Si1'
_publ_section_title
;
The preparation and crystal structure of sodium orthosilicate, Na4 Si 
O4
;
loop_
_citation_id
_citation_journal_abbrev
_citation_year
_citation_journal_volume
_citation_page_first
_citation_page_last
_citation_journal_id_ASTM
primary 'Journal of Chemical Research (Synopsis)' 1981 1981 274 274 JRPSDC
_publ_author_name                  'Barker, M.G.;Gadd, P.G.'
_cell_length_a                     5.576
_cell_length_b                     6.191
_cell_length_c                     8.507
_cell_angle_alpha                  103.13
_cell_angle_beta                   95.5
_cell_angle_gamma                  123.72
_cell_volume                       228.77
_cell_formula_units_Z              2
_symmetry_space_group_name_H-M     'P -1'
_symmetry_Int_Tables_number        2
_refine_ls_R_factor_all            .0544
loop_
_symmetry_equiv_pos_site_id
_symmetry_equiv_pos_as_xyz
  1	'-x, -y, -z'
  2	'x, y, z'
loop_
_atom_type_symbol
_atom_type_oxidation_number
Na1+	1
O2-	-2
Si4+	4
loop_
_atom_site_label
_atom_site_type_symbol
_atom_site_symmetry_multiplicity
_atom_site_Wyckoff_symbol
_atom_site_fract_x
_atom_site_fract_y
_atom_site_fract_z
_atom_site_occupancy
_atom_site_attached_hydrogens
Na1 Na1+ 2 i 0.5281(2) 0.7846(2) 0.0197(1) 1. 0 
Na2 Na1+ 2 i 0.2768(2) 0.0445(2) 0.5617(1) 1. 0 
Na3 Na1+ 2 i -.2977(2) 0.4342(2) 0.3887(1) 1. 0 
Na4 Na1+ 2 i 0.0004(2) 0.7644(2) 0.1682(1) 1. 0 
Si1 Si4+ 2 i 0.1789(1) 0.4641(1) 0.2479(1) 1. 0 
O1 O2- 2 i 0.4934(3) 0.5362(3) 0.1926(2) 1. 0 
O2 O2- 2 i 0.1573(3) 0.2016(3) 0.3514(2) 1. 0 
O3 O2- 2 i -.1147(4) 0.2411(3) 0.0884(2) 1. 0 
O4 O2- 2 i 0.2023(3) 0.6648(3) 0.3741(2) 1. 0 

loop_
_atom_site_aniso_label
_atom_site_aniso_type_symbol
_atom_site_aniso_U_11
_atom_site_aniso_U_22
_atom_site_aniso_U_33
_atom_site_aniso_U_12
_atom_site_aniso_U_13
_atom_site_aniso_U_23
Na1 Na1+ 0.0125(5) 0.0079(4) 0.0116(4) 0.0064(4) 0.0012(3) 0.0028(3)
Na2 Na1+ 0.0074(4) 0.0063(4) 0.0120(4) 0.0033(3) 0.0030(3) 0.0013(3)
Na3 Na1+ 0.0084(4) 0.0125 0.0096(4) 0.0069(3) 0.0020(3) 0.0059(3)
Na4 Na1+ 0.0120(5) 0.0148(5) 0.0125(5) 0.0083(4) 0.0044(3) 0.0055(3)
Si1 Si4+ 0.0053(3) 0.0024(3) 0.0031(3) 0.0020(2) 0.0005(2) 0.0002(2)
O1 O2- 0.0075(7) 0.0079(6) 0.0076(6) 0.0051(5) 0.0050(5) 0.0039(5)
O2 O2- 0.0104(7) 0.0064(6) 0.0096(7) 0.0041(6) 0.0051(5) 0.0053(5)
O3 O2- 0.0079(7) 0.0104(7) 0.0098(7) 0.0045(6) -.0029(5) 0.0000(6)
O4 O2- 0.0081(7) 0.0046(6) 0.0081(6) 0.0051(5) 0.0026(5) 0.0004(5)
#End of data_15500-ICSD


