data_260894-ICSD
#?2014 by Fachinformationszentrum Karlsruhe, and the U.S. Secretary of 
#Commerce on behalf of the United States.  All rights reserved.
_database_code_ICSD                260894
_audit_creation_date               2011/02/01
_chemical_name_systematic
;
Tripotassium Gadolinium(III) Bis(orthophosphate(V))
;
_chemical_formula_structural       'K3 Gd (P O4)2'
_chemical_formula_sum              'Gd1 K3 O8 P2'
_publ_section_title                'K3 Gd (P O4)2'
loop_
_citation_id
_citation_journal_abbrev
_citation_year
_citation_journal_volume
_citation_journal_issue
_citation_page_first
_citation_page_last
_citation_journal_id_ASTM
primary 'Acta Crystallographica, Section E. Structure Reports Online'
 2010 66 9 i64 i64 ACSEBH
_publ_author_name                  'Zhao Dan;Li Feifei'
_cell_length_a                     7.4153(15)
_cell_length_b                     5.6206(11)
_cell_length_c                     9.445(2)
_cell_angle_alpha                  90.00
_cell_angle_beta                   90.723(14)
_cell_angle_gamma                  90.00
_cell_volume                       393.62
_cell_formula_units_Z              2
_symmetry_space_group_name_H-M     'P 1 21/m 1'
_symmetry_Int_Tables_number        11
_refine_ls_R_factor_all            .027
loop_
_symmetry_equiv_pos_site_id
_symmetry_equiv_pos_as_xyz
  1	'x, -y+.5, z'
  2	'-x, -y, -z'
  3	'-x, y+.5, -z'
  4	'x, y, z'
loop_
_atom_type_symbol
_atom_type_oxidation_number
Gd3+	3
K1+	1
O2-	-2
P5+	5
loop_
_atom_site_label
_atom_site_type_symbol
_atom_site_symmetry_multiplicity
_atom_site_Wyckoff_symbol
_atom_site_fract_x
_atom_site_fract_y
_atom_site_fract_z
_atom_site_occupancy
_atom_site_attached_hydrogens
_atom_site_U_iso_or_equiv
Gd1 Gd3+ 2 e 0.00699(3) 0.2500 0.29011(3) 1 0 0.00731(15) 
P1 P5+ 2 e 0.80967(19) 0.2500 0.57350(15) 1 0 0.0076(3) 
P2 P5+ 2 e 0.2303(2) 0.2500 0.91166(15) 1 0 0.0066(3) 
K1 K1+ 2 e 0.20438(17) 0.7500 0.08160(13) 1 0 0.0119(3) 
K2 K1+ 2 e 0.50495(17) 0.2500 0.19219(13) 1 0 0.0142(3) 
K3 K1+ 2 e 0.36353(18) 0.2500 0.59102(14) 1 0 0.0142(3) 
O1 O2- 2 e 1.0137(6) 0.2500 0.5478(4) 1 0 0.0169(10) 
O2 O2- 4 f 0.7564(4) 0.4735(5) 0.6577(3) 1 0 0.0123(6) 
O3 O2- 2 e 0.7177(6) 0.2500 0.4266(4) 1 0 0.0116(9) 
O4 O2- 4 f 0.8481(4) -0.0269(5) 0.1623(3) 1 0 0.0129(6) 
O5 O2- 2 e 0.4337(6) 0.2500 0.8991(5) 1 0 0.0163(9) 
O6 O2- 2 e 0.1744(6) 0.2500 1.0689(4) 1 0 0.0113(9) 

loop_
_atom_site_aniso_label
_atom_site_aniso_type_symbol
_atom_site_aniso_U_11
_atom_site_aniso_U_22
_atom_site_aniso_U_33
_atom_site_aniso_U_12
_atom_site_aniso_U_13
_atom_site_aniso_U_23
Gd1 Gd3+ 0.0066(2) 0.0068(2) 0.0085(2) 0.000 -0.00097(12) 0.000
P1 P5+ 0.0065(7) 0.0086(8) 0.0076(7) 0.000 -0.0012(5) 0.000
P2 P5+ 0.0070(7) 0.0052(7) 0.0076(6) 0.000 -0.0009(5) 0.000
K1 K1+ 0.0137(6) 0.0100(7) 0.0118(6) 0.000 -0.0001(5) 0.000
K2 K1+ 0.0101(7) 0.0186(8) 0.0138(6) 0.000 -0.0021(5) 0.000
K3 K1+ 0.0126(6) 0.0136(7) 0.0165(6) 0.000 -0.0002(5) 0.000
O1 O2- 0.007(2) 0.031(3) 0.012(2) 0.000 -0.0023(16) 0.000
O2 O2- 0.0176(16) 0.0087(15) 0.0105(14) -0.0023(12) 0.0007(12) -0.0019(11)
O3 O2- 0.0087(19) 0.015(2) 0.0110(19) 0.000 -0.0010(16) 0.000
O4 O2- 0.0152(15) 0.0081(15) 0.0152(14) -0.0033(12) -0.0016(12) -0.0018(12)
O5 O2- 0.010(2) 0.021(3) 0.018(2) 0.000 0.0017(16) 0.000
O6 O2- 0.013(2) 0.014(2) 0.0076(19) 0.000 0.0012(16) 0.000
#End of data_260894-ICSD


