data_425980-ICSD
#?2014 by Fachinformationszentrum Karlsruhe, and the U.S. Secretary of 
#Commerce on behalf of the United States.  All rights reserved.
_database_code_ICSD                425980
_audit_creation_date               2014/02/01
_chemical_name_systematic
;
Sodium Aluminum Hexathiodiphosphate(IV)
;
_chemical_formula_structural       'Na Al (P2 S6)'
_chemical_formula_sum              'Al1 Na1 P2 S6'
_publ_section_title
;
Synthesis and Crystal Structures of the Alkali Aluminium 
Thiohypodiphosphates M(I) Al P2 S6 (M = Li, Na)
;
loop_
_citation_id
_citation_journal_abbrev
_citation_year
_citation_journal_volume
_citation_journal_issue
_citation_page_first
_citation_page_last
_citation_journal_id_ASTM
primary 'Zeitschrift fuer Anorganische und Allgemeine Chemie (1950) (DE)'
 2013 639 7 1087 1089 ZAACAB
_publ_author_name
;
Kuhn, Alexander;Eger, Roland;Nuss, Juergen;Lotsch, Bettina V.
;
_cell_length_a                     8.0400(2)
_cell_length_b                     10.9452(2)
_cell_length_c                     20.8801(4)
_cell_angle_alpha                  90.00
_cell_angle_beta                   90.00
_cell_angle_gamma                  90.00
_cell_volume                       1837.44
_cell_formula_units_Z              8
_symmetry_space_group_name_H-M     'F d d 2'
_symmetry_Int_Tables_number        43
_refine_ls_R_factor_all            .0111
loop_
_symmetry_equiv_pos_site_id
_symmetry_equiv_pos_as_xyz
  1	'x+.25, -y+.25, z+.25'
  2	'-x+.25, y+.25, z+.25'
  3	'-x, -y, z'
  4	'x, y, z'
  5	'x+.25, -y+.75, z+.75'
  6	'x+.75, -y+.25, z+.75'
  7	'x+.75, -y+.75, z+.25'
  8	'-x+.25, y+.75, z+.75'
  9	'-x+.75, y+.25, z+.75'
 10	'-x+.75, y+.75, z+.25'
 11	'-x, -y+.5, z+.5'
 12	'-x+.5, -y, z+.5'
 13	'-x+.5, -y+.5, z'
 14	'x, y+.5, z+.5'
 15	'x+.5, y, z+.5'
 16	'x+.5, y+.5, z'
loop_
_atom_type_symbol
_atom_type_oxidation_number
Al3+	3
Na1+	1
P4+	4
S2-	-2
loop_
_atom_site_label
_atom_site_type_symbol
_atom_site_symmetry_multiplicity
_atom_site_Wyckoff_symbol
_atom_site_fract_x
_atom_site_fract_y
_atom_site_fract_z
_atom_site_occupancy
_atom_site_attached_hydrogens
_atom_site_U_iso_or_equiv
S1 S2- 16 b 0.02557(2) 0.237361(16) 0.101624(8) 1 0 0.01722(3) 
S2 S2- 16 b 0.03170(2) 0.266684(15) 0.259233(8) 1 0 0.01855(3) 
S3 S2- 16 b 0.24385(2) 0.027357(14) 0.190693(8) 1 0 0.01712(3) 
P1 P4+ 16 b 0.111154(18) 0.440891(13) 0.267783(7) 1 0 0.01335(3) 
Al1 Al3+ 8 a 0.0000 0.0000 0.926986(14) 1 0 0.01473(5) 
Na1 Na1+ 8 a 0.0000 0.0000 0.59231(3) 1 0 0.03038(11) 

loop_
_atom_site_aniso_label
_atom_site_aniso_type_symbol
_atom_site_aniso_U_11
_atom_site_aniso_U_22
_atom_site_aniso_U_33
_atom_site_aniso_U_12
_atom_site_aniso_U_13
_atom_site_aniso_U_23
S1 S2- 0.01707(6) 0.02177(7) 0.01282(6) 0.00057(5) 0.00076(4) -0.00153(5)
S2 S2- 0.02247(7) 0.01419(6) 0.01900(7) -0.00133(5) 0.00551(5) -0.00193(5)
S3 S2- 0.02088(6) 0.01606(6) 0.01441(7) 0.00018(5) -0.00399(5) -0.00088(5)
P1 P4+ 0.01615(6) 0.01305(6) 0.01084(5) 0.00202(4) 0.00066(5) -0.00058(4)
Al1 Al3+ 0.01856(11) 0.01436(10) 0.01127(11) -0.00245(9) 0.000 0.000
Na1 Na1+ 0.0319(3) 0.0325(3) 0.0267(2) 0.01383(17) 0.000 0.000
#End of data_425980-ICSD


