data_200914-ICSD
#?2014 by Fachinformationszentrum Karlsruhe, and the U.S. Secretary of 
#Commerce on behalf of the United States.  All rights reserved.
_database_code_ICSD                200914
_audit_creation_date               1980/01/01
_audit_update_record               1985/05/30
_chemical_name_systematic          'Tetrasodium Zirconium Molybdate'
_chemical_formula_structural       'Na4 Zr (Mo O4)4'
_chemical_formula_sum              'Mo4 Na4 O16 Zr1'
_publ_section_title
;
Synthesis and crystal structure of double molybdates of sodium and 
zirconium
;
loop_
_citation_id
_citation_journal_abbrev
_citation_year
_citation_journal_volume
_citation_page_first
_citation_page_last
_citation_journal_id_ASTM
primary Kristallografiya 1979 24 751 756 KRISAJ
2 'Soviet Physics, Crystallography (= Kristallografiya)'
 1979 24 429 432 SPHCA6
_publ_author_name
;
Klevtsova, R.F.;Gaponenko, L.A.;Glinskaya, L.A.;Zolotova, 
E.S.;Podberezskaya, N.V.;Klevtsov, P.V.
;
_cell_length_a                     11.03
_cell_length_b                     11.03
_cell_length_c                     11.68
_cell_angle_alpha                  90.
_cell_angle_beta                   90.
_cell_angle_gamma                  90.
_cell_volume                       1421
_cell_formula_units_Z              4
_symmetry_space_group_name_H-M     'I 41/a Z'
_symmetry_Int_Tables_number        88
_refine_ls_R_factor_all            .092
loop_
_symmetry_equiv_pos_site_id
_symmetry_equiv_pos_as_xyz
  1	'-y+.75, x+.75, -z+.75'
  2	'y+.25, -x+.75, -z+.75'
  3	'x, y+.5, -z'
  4	'-x, -y, -z'
  5	'y+.25, -x+.25, z+.25'
  6	'-y+.75, x+.25, z+.25'
  7	'-x, -y+.5, z'
  8	'x, y, z'
  9	'-y+.25, x+.25, -z+.25'
 10	'y+.75, -x+.25, -z+.25'
 11	'x+.5, y, -z+.5'
 12	'-x+.5, -y+.5, -z+.5'
 13	'y+.75, -x+.75, z+.75'
 14	'-y+.25, x+.75, z+.75'
 15	'-x+.5, -y, z+.5'
 16	'x+.5, y+.5, z+.5'
loop_
_atom_type_symbol
_atom_type_oxidation_number
Mo6+	6
Na1+	1
O2-	-2
Zr4+	4
loop_
_atom_site_label
_atom_site_type_symbol
_atom_site_symmetry_multiplicity
_atom_site_Wyckoff_symbol
_atom_site_fract_x
_atom_site_fract_y
_atom_site_fract_z
_atom_site_occupancy
_atom_site_attached_hydrogens
_atom_site_B_iso_or_equiv
Mo1 Mo6+ 16 f 0.1794 0.3356 0.372 1. 0 0.16 
Zr1 Zr4+ 4 a 0 0.25 0.125 1. 0 0.29 
Na1 Na1+ 16 f 0.227 0.367 -.091 1. 0 1.8 
O1 O2- 16 f 0.168 0.457 0.466 1. 0 0.6 
O2 O2- 16 f 0.332 0.331 0.307 1. 0 0.4 
O3 O2- 16 f 0.059 0.363 0.273 1. 0 0.4 
O4 O2- 16 f 0.143 0.204 0.45 1. 0 0.5 

#End of data_200914-ICSD


