data_40219-ICSD
#?2014 by Fachinformationszentrum Karlsruhe, and the U.S. Secretary of 
#Commerce on behalf of the United States.  All rights reserved.
_database_code_ICSD                40219
_audit_creation_date               1999/11/30
_chemical_name_systematic          'Cesium Lithium Vanadate'
_chemical_formula_structural       'Cs2 (Li V O4)'
_chemical_formula_sum              'Cs2 Li1 O4 V1'
_publ_section_title
;
Ueber "Lithovanadate": Zur Kenntnis von Cs2 (Li V O4)und Cs2 (Li V 
O4)
;
loop_
_citation_id
_citation_journal_abbrev
_citation_year
_citation_journal_volume
_citation_page_first
_citation_page_last
_citation_journal_id_ASTM
primary 'Zeitschrift fuer Anorganische und Allgemeine Chemie (1950) (DE)'
 1989 571 113 126 ZAACAB
_publ_author_name                  'Kissel, J.;Hoppe, R.'
_cell_length_a                     6.105(1)
_cell_length_b                     12.226(3)
_cell_length_c                     8.155(2)
_cell_angle_alpha                  90.
_cell_angle_beta                   90.
_cell_angle_gamma                  90.
_cell_volume                       608.69
_cell_formula_units_Z              4
_symmetry_space_group_name_H-M     'C m c 21'
_symmetry_Int_Tables_number        36
_refine_ls_R_factor_all            .0696
loop_
_symmetry_equiv_pos_site_id
_symmetry_equiv_pos_as_xyz
  1	'x, -y, z+.5'
  2	'-x, -y, z+.5'
  3	'-x, y, z'
  4	'x, y, z'
  5	'x+.5, -y+.5, z+.5'
  6	'-x+.5, -y+.5, z+.5'
  7	'-x+.5, y+.5, z'
  8	'x+.5, y+.5, z'
loop_
_atom_type_symbol
_atom_type_oxidation_number
Cs1+	1
Li1+	1
O2-	-2
V5+	5
loop_
_atom_site_label
_atom_site_type_symbol
_atom_site_symmetry_multiplicity
_atom_site_Wyckoff_symbol
_atom_site_fract_x
_atom_site_fract_y
_atom_site_fract_z
_atom_site_occupancy
_atom_site_attached_hydrogens
V1 V5+ 4 a 0 0.3020(2) 0.3941(4) 1. 0 
Cs1 Cs1+ 4 a 0 0.3936(1) 0.9511(1) 1. 0 
Cs2 Cs1+ 4 a 0 0.9317(1) 0.5926(2) 1. 0 
Li1 Li1+ 4 a 0 0.8011(25) 0.1809(42) 1. 0 
O1 O2- 4 a 0 0.1617(10) 0.4391(20) 1. 0 
O2 O2- 4 a 0 0.3626(10) 0.5868(19) 1. 0 
O3 O2- 8 b 0.7639(14) 0.3385(8) 0.2882(61) 1. 0 

loop_
_atom_site_aniso_label
_atom_site_aniso_type_symbol
_atom_site_aniso_U_11
_atom_site_aniso_U_22
_atom_site_aniso_U_33
_atom_site_aniso_U_12
_atom_site_aniso_U_13
_atom_site_aniso_U_23
V1 V5+ 0.0104(13) 0.0119(14) 0.0115(13) 0 0 0.0018(11)
Cs1 Cs1+ 0.0165(6) 0.0211(6) 0.0181(6) 0 0 -.0017(6)
Cs2 Cs1+ 0.0185(6) 0.0209(6) 0.0214(6) 0 0 0.0033(6)
Li1 Li1+ 0.0292(68) 0.0136(73) 0.0166(55) 0 0 -.0234(31)
O1 O2- 0.0296(77) 0.0188(63) 0.0304(90) 0 0 -.0225(72)
O2 O2- 0.0163(53) 0.0266(60) 0.0193(63) 0 0 -.0081(49)
O3 O2- 0.0130(31) 0.0385(54) 0.0281(35) 0.0029(33) -.0073(32) 0.0042(39)
#End of data_40219-ICSD


