data_107378-ICSD
#?2014 by Fachinformationszentrum Karlsruhe, and the U.S. Secretary of 
#Commerce on behalf of the United States.  All rights reserved.
_database_code_ICSD                107378
_audit_creation_date               2013/08/01
_chemical_name_systematic          'Aluminium Silicate Hydroxide *'
_chemical_formula_structural       'Al4 (O H)8 (Si4 O10)'
_chemical_formula_sum              'H8 Al4 O18 Si4'
_chemical_name_mineral             'Kaolinite 1A'
_publ_section_title
;
What is the Structure of Kaolinite? Reconciling Theory and Experiment
;
loop_
_citation_id
_citation_journal_abbrev
_citation_year
_citation_journal_volume
_citation_page_first
_citation_page_last
_citation_journal_id_ASTM
primary 'Clays and Clay Minerals (-28,1980)' 1988 36 225 232 CCMPA7
_publ_author_name
;
White, C.E.;Provis, J.L.;Riley, D.P.;Kearley, G.J.;van Deventer, 
J,S.J.
;
_cell_length_a                     5.149
_cell_length_b                     8.9335(1)
_cell_length_c                     7.3844(1)
_cell_angle_alpha                  91.930(1)
_cell_angle_beta                   105.042(1)
_cell_angle_gamma                  89.791(1)
_cell_volume                       327.84
_cell_formula_units_Z              1
_symmetry_space_group_name_H-M     'P 1'
_symmetry_Int_Tables_number        1
loop_
_symmetry_equiv_pos_site_id
_symmetry_equiv_pos_as_xyz
  1	'x, y, z'
loop_
_atom_type_symbol
_atom_type_oxidation_number
Al3+	3
H1+	1
O2-	-2
Si4+	4
loop_
_atom_site_label
_atom_site_type_symbol
_atom_site_symmetry_multiplicity
_atom_site_Wyckoff_symbol
_atom_site_fract_x
_atom_site_fract_y
_atom_site_fract_z
_atom_site_occupancy
_atom_site_attached_hydrogens
Al1 Al3+ 1 a 0.36117 0.49215 0.45877 1. 0 
Al2 Al3+ 1 a 0.35152 0.82838 0.45597 1. 0 
Al3 Al3+ 1 a 0.86064 0.99204 0.45877 1. 0 
Al4 Al3+ 1 a 0.8525 0.32839 0.45601 1. 0 
Si1 Si4+ 1 a 0.05785 0.33684 0.06984 1. 0 
Si2 Si4+ 1 a 0.07103 0.66546 0.07119 1. 0 
Si3 Si4+ 1 a 0.55727 0.8368 0.06967 1. 0 
Si4 Si4+ 1 a 0.57144 0.16529 0.07138 1. 0 
O1 O2- 1 a 0.11131 0.35119 0.29407 1. 0 
O2 O2- 1 a 0.18107 0.66117 0.2951 1. 0 
O3 O2- 1 a 0.06944 0.49797 -.02613 1. 0 
O4 O2- 1 a 0.26396 0.22556 -.00377 1. 0 
O5 O2- 1 a 0.25697 0.76734 -.02619 1. 0 
O6 O2- 1 a 0.61049 0.85136 0.29383 1. 0 
O7 O2- 1 a 0.68085 0.16098 0.29533 1. 0 
O8 O2- 1 a 0.5689 -.002109 -.02639 1. 0 
O9 O2- 1 a 0.76332 0.72532 -.00381 1. 0 
O10 O2- 1 a 0.75769 0.26724 -.02548 1. 0 
O11 O2- 1 a 0.11105 0.96814 0.30736 1. 0 
O12 O2- 1 a 0.01955 0.16488 0.58457 1. 0 
O13 O2- 1 a 0.09748 0.47102 0.58439 1. 0 
O14 O2- 1 a 0.09802 0.85435 0.59194 1. 0 
O15 O2- 1 a 0.61235 0.46828 0.30789 1. 0 
O16 O2- 1 a 0.52021 0.66521 0.58393 1. 0 
O17 O2- 1 a 0.59567 0.97158 0.58395 1. 0 
O18 O2- 1 a 0.60071 0.35567 0.59315 1. 0 
H1 H1+ 1 a 0.21008 0.06314 0.31899 1. 0 
H2 H1+ 1 a 0.11833 0.17072 0.71687 1. 0 
H3 H1+ 1 a 0.10809 0.4987 0.71552 1. 0 
H4 H1+ 1 a 0.11282 0.81655 0.71698 1. 0 
H5 H1+ 1 a 0.71132 0.56336 0.32002 1. 0 
H6 H1+ 1 a 0.61872 0.67055 0.7163 1. 0 
H7 H1+ 1 a 0.60661 0.9993 0.7151 1. 0 
H8 H1+ 1 a 0.61258 0.31616 0.71688 1. 0 

#End of data_107378-ICSD


