data_408026-ICSD
#?2014 by Fachinformationszentrum Karlsruhe, and the U.S. Secretary of 
#Commerce on behalf of the United States.  All rights reserved.
_database_code_ICSD                408026
_audit_creation_date               1999/06/02
_chemical_name_systematic          'Disilver Cesium Catena-15-borate'
_chemical_formula_structural       'Ag2 Cs (B15 O24)'
_chemical_formula_sum              'Ag2 B15 Cs1 O24'
_publ_section_title
;
Ag2 Cs (B15 O24): Ein wasserfreies quaternaeres Silber(I)Borat mit 
einem neuartigen Boratanion mit helixartigem Aufbau
;
loop_
_citation_id
_citation_journal_abbrev
_citation_year
_citation_journal_volume
_citation_page_first
_citation_page_last
_citation_journal_id_ASTM
primary 'Zeitschrift fuer Naturforschung, B: Chemical Sciences'
 1998 53 157 160 ZNBSEN
_publ_author_name                  'Wiesch, A.;Bluhm, K.'
_cell_length_a                     17.8109(3)
_cell_length_b                     22.2177(3)
_cell_length_c                     5.1321(1)
_cell_angle_alpha                  90.
_cell_angle_beta                   90.
_cell_angle_gamma                  90.
_cell_volume                       2030.86
_cell_formula_units_Z              4
_symmetry_space_group_name_H-M     'P 21 21 2'
_symmetry_Int_Tables_number        18
_refine_ls_R_factor_all            .0712
loop_
_symmetry_equiv_pos_site_id
_symmetry_equiv_pos_as_xyz
  1	'-x+.5, y+.5, -z'
  2	'x+.5, -y+.5, -z'
  3	'-x, -y, z'
  4	'x, y, z'
loop_
_atom_type_symbol
_atom_type_oxidation_number
Ag1+	1
B3+	3
Cs1+	1
O2-	-2
loop_
_atom_site_label
_atom_site_type_symbol
_atom_site_symmetry_multiplicity
_atom_site_Wyckoff_symbol
_atom_site_fract_x
_atom_site_fract_y
_atom_site_fract_z
_atom_site_occupancy
_atom_site_attached_hydrogens
_atom_site_U_iso_or_equiv
Cs1 Cs1+ 4 c 0.82582(6) 0.41958(4) -.5315(3) 1. 0 0 
Ag1 Ag1+ 4 c 0.16821(5) 0.31676(4) 0.0477(2) 1. 0 0 
Ag2 Ag1+ 4 c 0.45226(8) 0.38036(10) -.5547(6) 1. 0 0 
B1 B3+ 4 c 0.0569(8) 0.2170(6) -.1411(29) 1. 0 0.015(3) 
B2 B3+ 4 c 0.1990(7) 0.4200(6) 0.6088(25) 1. 0 0.011(3) 
B3 B3+ 4 c 0.6023(7) 0.4616(6) -.4397(31) 1. 0 0.013(3) 
B4 B3+ 4 c 0.6184(8) 0.3824(6) -.7916(27) 1. 0 0.011(3) 
B5 B3+ 4 c 0.9610(8) 0.6033(7) -.7249(29) 1. 0 0.016(3) 
B6 B3+ 4 c 0.2387(7) 0.2285(6) 0.4842(27) 1. 0 0.013(3) 
B7 B3+ 4 c 0.3710(8) 0.4725(6) -.0827(30) 1. 0 0.018(3) 
B8 B3+ 2 a 0.5 0.5 -.1666(44) 1. 0 0.017(4) 
B9 B3+ 4 c 0.4334(8) 0.2339(6) -.8635(28) 1. 0 0.014(3) 
B10 B3+ 2 b 0 0.5 -.8102(40) 1. 0 0.016(4) 
B11 B3+ 4 c 0.0980(7) 0.4549(6) 0.9211(29) 1. 0 0.014(3) 
B12 B3+ 4 c 0.1575(7) 0.1774(6) 0.1468(26) 1. 0 0.014(3) 
B13 B3+ 4 c 0.2895(8) 0.4203(6) 0.2688(28) 1. 0 0.013(3) 
B14 B3+ 4 c 0.0262(7) 0.3045(6) -.4175(28) 1. 0 0.014(3) 
B15 B3+ 4 c 0.3251(8) 0.2496(6) -.1747(28) 1. 0 0.016(3) 
B16 B3+ 4 c 0.2846(7) 0.3335(6) -.4453(31) 1. 0 0.014(3) 
O1 O2- 4 c 0.0761(5) 0.2653(4) -.3284(20) 1. 0 0 
O2 O2- 4 c 0.0775(5) 0.3977(4) 0.0278(18) 1. 0 0 
O3 O2- 4 c 0.1083(5) 0.2205(3) 0.0779(19) 1. 0 0 
O4 O2- 4 c 0.2250(5) 0.3675(4) -.2997(18) 1. 0 0 
O5 O2- 4 c 0.4424(5) 0.4714(4) -.0067(19) 1. 0 0 
O6 O2- 4 c 0.5636(5) 0.3422(4) -.7216(19) 1. 0 0 
O7 O2- 4 c 0.3243(4) 0.3729(4) 0.3775(17) 1. 0 0 
O8 O2- 4 c 0.3355(5) 0.3060(4) -.2581(18) 1. 0 0 
O9 O2- 4 c 0.2206(5) 0.4400(4) 0.3626(18) 1. 0 0 
O10 O2- 4 c 0.5323(5) 0.4527(4) -.3488(19) 1. 0 0 
O11 O2- 4 c 0.6611(5) 0.3762(3) -.0100(17) 1. 0 0 
O12 O2- 4 c 0.9323(5) 0.4958(4) -.9740(19) 1. 0 0 
O13 O2- 4 c 0.3128(5) 0.4500(4) 0.0557(19) 1. 0 0 
O14 O2- 4 c 0.3650(5) 0.2223(4) 0.0242(20) 1. 0 0 
O15 O2- 4 c -.0201(4) 0.2231(4) -.0522(20) 1. 0 0 
O16 O2- 4 c 0.9519(5) 0.3045(4) -.3395(21) 1. 0 0 
O17 O2- 4 c 0.2057(5) 0.1824(4) 0.3495(19) 1. 0 0 
O18 O2- 4 c 0.6494(5) 0.5037(4) -.3193(19) 1. 0 0 
O19 O2- 4 c 0.2441(4) 0.2872(4) -.5982(18) 1. 0 0 
O20 O2- 4 c 0.0488(6) 0.3436(4) -.6095(18) 1. 0 0 
O21 O2- 4 c 0.9975(5) 0.5546(4) -.6437(18) 1. 0 0 
O22 O2- 4 c 0.6342(5) 0.4319(4) -.6468(19) 1. 0 0 
O23 O2- 4 c 0.2731(6) 0.2119(4) -.2884(20) 1. 0 0 
O24 O2- 4 c 0.1493(5) 0.4577(4) 0.7276(18) 1. 0 0 

loop_
_atom_site_aniso_label
_atom_site_aniso_type_symbol
_atom_site_aniso_U_11
_atom_site_aniso_U_22
_atom_site_aniso_U_33
_atom_site_aniso_U_12
_atom_site_aniso_U_13
_atom_site_aniso_U_23
Cs1 Cs1+ 0.0405(6) 0.0209(5) 0.0987(10) -.0096(4) 0.0175(7) -.0124(6)
Ag1 Ag1+ 0.0254(5) 0.0133(4) 0.0217(5) 0.0007(4) -.0009(5) 0.0056(4)
Ag2 Ag1+ 0.0179(7) 0.112(2) 0.217(3) -.0154(8) 0.0198(11) -.120(2)
O1 O2- 0.013(4) 0.013(4) 0.031(5) 0.000(3) 0.011(4) 0.007(4)
O2 O2- 0.029(5) 0.010(4) 0.015(5) -.002(3) 0.012(4) 0.004(4)
O3 O2- 0.021(4) 0.007(4) 0.024(5) 0.000(3) -.006(4) -.006(4)
O4 O2- 0.025(5) 0.009(4) 0.023(5) 0.004(4) 0.016(4) 0.011(4)
O5 O2- 0.016(4) 0.031(5) 0.024(6) 0.004(4) 0.005(4) 0.015(4)
O6 O2- 0.019(5) 0.012(4) 0.027(5) -.003(4) 0.003(4) -.009(4)
O7 O2- 0.005(4) 0.014(4) 0.028(5) -.003(3) 0.005(4) 0.007(3)
O8 O2- 0.028(5) 0.011(4) 0.033(5) 0.008(4) -.017(5) -.001(4)
O9 O2- 0.025(5) 0.013(4) 0.016(5) 0.003(4) 0.007(4) 0.004(4)
O10 O2- 0.020(5) 0.015(4) 0.021(5) 0.004(4) -.004(4) -.009(4)
O11 O2- 0.023(4) 0.008(4) 0.022(5) -.012(3) 0.004(4) -.003(3)
O12 O2- 0.026(5) 0.013(4) 0.020(5) 0.001(3) -.004(4) -.003(4)
O13 O2- 0.020(4) 0.023(4) 0.019(4) -.010(3) -.003(4) 0.004(4)
O14 O2- 0.022(4) 0.023(5) 0.024(6) -.005(4) -.015(4) 0.010(4)
O15 O2- 0.014(4) 0.014(4) 0.025(5) 0.002(3) 0.002(4) 0.011(4)
O16 O2- 0.024(5) 0.020(5) 0.036(5) 0.004(4) 0.005(5) 0.020(4)
O17 O2- 0.029(5) 0.010(4) 0.029(5) -.003(4) -.005(4) -.006(4)
O18 O2- 0.019(5) 0.015(4) 0.026(5) -.006(4) -.001(4) -.009(4)
O19 O2- 0.012(4) 0.014(4) 0.028(6) -.002(3) -.017(4) -.001(4)
O20 O2- 0.037(5) 0.015(4) 0.027(6) 0.006(4) 0.018(4) 0.006(4)
O21 O2- 0.025(5) 0.011(4) 0.016(4) 0.010(4) -.005(4) 0.000(4)
O22 O2- 0.019(4) 0.012(4) 0.026(5) -.003(3) -.001(4) -.006(4)
O23 O2- 0.029(5) 0.016(5) 0.031(6) -.003(4) -.018(5) 0.003(4)
O24 O2- 0.023(5) 0.020(5) 0.022(5) 0.009(4) 0.015(4) 0.010(4)
#End of data_408026-ICSD


