data_26759-ICSD
#?2014 by Fachinformationszentrum Karlsruhe, and the U.S. Secretary of 
#Commerce on behalf of the United States.  All rights reserved.
_database_code_ICSD                26759
_audit_creation_date               1980/01/01
_audit_update_record               2010/02/01
_chemical_name_systematic
;
Aluminium Tris(catena-phosphate(V))
;
_chemical_formula_structural       'Al (P O3)3'
_chemical_formula_sum              'Al1 O9 P3'
_publ_section_title
;
The crystal structure of aluminum metaphosphate, Al (P O3)3
;
loop_
_citation_id
_citation_journal_abbrev
_citation_year
_citation_journal_volume
_citation_page_first
_citation_page_last
_citation_journal_id_ASTM
primary
;
Zeitschrift fuer Kristallographie, Kristallgeometrie, Kristallphysik, 
Kristallchemie (-144,1977)
;
 1937 96 481 487 ZEKGAX
_publ_author_name                  'Pauling, L.;Sherman, J.'
_cell_length_a                     13.63
_cell_length_b                     13.63
_cell_length_c                     13.63
_cell_angle_alpha                  90.
_cell_angle_beta                   90.
_cell_angle_gamma                  90.
_cell_volume                       2532.14
_cell_formula_units_Z              16
_symmetry_space_group_name_H-M     'I -4 3 d'
_symmetry_Int_Tables_number        220
loop_
_symmetry_equiv_pos_site_id
_symmetry_equiv_pos_as_xyz
  1	'-y+.25, -x+.75, z+.75'
  2	'y+.75, -x+.25, -z+.75'
  3	'-y+.75, x+.75, -z+.25'
  4	'y+.25, x+.25, z+.25'
  5	'z+.5, -x+.5, -y'
  6	'-z+.5, -x, y+.5'
  7	'-z, x+.5, -y+.5'
  8	'z, x, y'
  9	'z+.75, -y+.25, -x+.75'
 10	'-z+.75, y+.75, -x+.25'
 11	'-z+.25, -y+.75, x+.75'
 12	'z+.25, y+.25, x+.25'
 13	'-y, z+.5, -x+.5'
 14	'y+.5, -z+.5, -x'
 15	'-y+.5, -z, x+.5'
 16	'y, z, x'
 17	'-x+.75, z+.75, -y+.25'
 18	'-x+.25, -z+.75, y+.75'
 19	'x+.75, -z+.25, -y+.75'
 20	'x+.25, z+.25, y+.25'
 21	'-x+.5, -y, z+.5'
 22	'-x, y+.5, -z+.5'
 23	'x+.5, -y+.5, -z'
 24	'x, y, z'
 25	'-y+.75, -x+.25, z+.25'
 26	'y+.25, -x+.75, -z+.25'
 27	'-y+.25, x+.25, -z+.75'
 28	'y+.75, x+.75, z+.75'
 29	'z, -x, -y+.5'
 30	'-z, -x+.5, y'
 31	'-z+.5, x, -y'
 32	'z+.5, x+.5, y+.5'
 33	'z+.25, -y+.75, -x+.25'
 34	'-z+.25, y+.25, -x+.75'
 35	'-z+.75, -y+.25, x+.25'
 36	'z+.75, y+.75, x+.75'
 37	'-y+.5, z, -x'
 38	'y, -z, -x+.5'
 39	'-y, -z+.5, x'
 40	'y+.5, z+.5, x+.5'
 41	'-x+.25, z+.25, -y+.75'
 42	'-x+.75, -z+.25, y+.25'
 43	'x+.25, -z+.75, -y+.25'
 44	'x+.75, z+.75, y+.75'
 45	'-x, -y+.5, z'
 46	'-x+.5, y, -z'
 47	'x, -y, -z+.5'
 48	'x+.5, y+.5, z+.5'
loop_
_atom_type_symbol
_atom_type_oxidation_number
Al3+	3
O2-	-2
P5+	5
loop_
_atom_site_label
_atom_site_type_symbol
_atom_site_symmetry_multiplicity
_atom_site_Wyckoff_symbol
_atom_site_fract_x
_atom_site_fract_y
_atom_site_fract_z
_atom_site_occupancy
_atom_site_attached_hydrogens
Al1 Al3+ 16 c 0.117 0.117 0.117 1. 0 
P1 P5+ 48 e 0.34 0.063 0.124 1. 0 
O1 O2- 48 e 0.09 0.11 0.8 1. 0 
O2 O2- 48 e 0.095 0.141 0.245 1. 0 
O3 O2- 48 e 0.137 0.096 0.986 1. 0 

#End of data_26759-ICSD


