data_290790-ICSD
#?2014 by Fachinformationszentrum Karlsruhe, and the U.S. Secretary of 
#Commerce on behalf of the United States.  All rights reserved.
_database_code_ICSD                290790
_audit_creation_date               2014/08/01
_chemical_name_systematic          'Dicalcium Chromium Antimonate'
_chemical_formula_structural       'Ca2 Cr Sb O6'
_chemical_formula_sum              'Ca2 Cr1 O6 Sb1'
_chemical_name_mineral             'Double perovskite'
_publ_section_title
;
Switching from ferro- to antiferromagnetism in A2 Cr Sb O6 (A = Ca, 
Sr) double perovskites: A neutron diffraction study
;
loop_
_citation_id
_citation_journal_abbrev
_citation_year
_citation_journal_volume
_citation_journal_issue
_citation_page_first
_citation_page_last
_citation_journal_id_ASTM
primary 'Journal of Materials Chemistry' 2007 17 33 3555 3561 JMACEP
_publ_author_name
;
Retuerto, M.;Garcia-Hernandez, M.;Martinez-Lope, M.J.;Fernandez-Diaz, 
M.T.;Attfield, J.P.;Alonso, J.A.
;
_cell_length_a                     5.4077(1)
_cell_length_b                     5.4935(1)
_cell_length_c                     7.6899(2)
_cell_angle_alpha                  90
_cell_angle_beta                   90.101(3)
_cell_angle_gamma                  90
_cell_volume                       228.45
_cell_formula_units_Z              2
_symmetry_space_group_name_H-M     'P 1 21/n 1'
_symmetry_Int_Tables_number        14
_refine_ls_R_factor_all            .0293
loop_
_symmetry_equiv_pos_site_id
_symmetry_equiv_pos_as_xyz
  1	'-x+.5, y+.5, -z+.5'
  2	'-x, -y, -z'
  3	'x+.5, -y+.5, z+.5'
  4	'x, y, z'
loop_
_atom_type_symbol
_atom_type_oxidation_number
Ca2+	2
Cr3+	3
O2-	-2
Sb5+	5
loop_
_atom_site_label
_atom_site_type_symbol
_atom_site_symmetry_multiplicity
_atom_site_Wyckoff_symbol
_atom_site_fract_x
_atom_site_fract_y
_atom_site_fract_z
_atom_site_occupancy
_atom_site_attached_hydrogens
_atom_site_B_iso_or_equiv
Ca1 Ca2+ 4 e 0.9904(5) 0.0428(3) 0.251(1) 1. 0 1.16(3) 
Cr1 Cr3+ 2 d 0.5 0 0 1. 0 0.8(2) 
Sb1 Sb5+ 2 c 0.5 0 0.5 1. 0 0.5(1) 
O1 O2- 4 e 0.0822(3) 0.4774(2) 0.2499(7) 1. 0 0.95(3) 
O2 O2- 4 e 0.7032(7) 0.2971(8) 0.0415(5) 1. 0 0.68(7) 
O3 O2- 4 e 0.2075(7) 0.2114(9) 0.9543(5) 1. 0 1.22(7) 

#End of data_290790-ICSD


