data_50789-ICSD
#?2014 by Fachinformationszentrum Karlsruhe, and the U.S. Secretary of 
#Commerce on behalf of the United States.  All rights reserved.
_database_code_ICSD                50789
_audit_creation_date               2000/12/16
_chemical_name_systematic          'Dicalcium Manganate(IV)'
_chemical_formula_structural       'Ca2 (Mn O4)'
_chemical_formula_sum              'Ca2 Mn1 O4'
_publ_section_title
;
Crystal structures and magnetic properties of Ca(2-x) Sr(x) Mn O4
;
loop_
_citation_id
_citation_journal_abbrev
_citation_year
_citation_journal_volume
_citation_page_first
_citation_page_last
_citation_journal_id_ASTM
primary 'Journal of Solid State Chemistry' 1999 145 705 710 JSSCBI
_publ_author_name                  'Tezuka, K.;Inamura, M.;Hinatsu, Y.'
_cell_length_a                     5.1890(1)
_cell_length_b                     5.1890(1)
_cell_length_c                     24.1300(10)
_cell_angle_alpha                  90.
_cell_angle_beta                   90.
_cell_angle_gamma                  90.
_cell_volume                       649.72
_cell_formula_units_Z              8
_symmetry_space_group_name_H-M     'I 41/a c d S'
_symmetry_Int_Tables_number        142
_refine_ls_R_factor_all            .1274
loop_
_symmetry_equiv_pos_site_id
_symmetry_equiv_pos_as_xyz
  1	'-y+.5, -x, z+.25'
  2	'y+.5, -x, z+.75'
  3	'-y, -x, -z+.5'
  4	'y, -x, -z'
  5	'y+.5, x, z+.25'
  6	'-y+.5, x, z+.75'
  7	'y, x, -z+.5'
  8	'-y, x, -z'
  9	'-x, y+.5, -z+.75'
 10	'-x, -y+.5, -z+.25'
 11	'-x, y, z+.5'
 12	'-x, -y, z'
 13	'x, -y+.5, -z+.75'
 14	'x, y+.5, -z+.25'
 15	'x, -y, z+.5'
 16	'x, y, z'
 17	'-y, -x+.5, z+.75'
 18	'y, -x+.5, z+.25'
 19	'-y+.5, -x+.5, -z'
 20	'y+.5, -x+.5, -z+.5'
 21	'y, x+.5, z+.75'
 22	'-y, x+.5, z+.25'
 23	'y+.5, x+.5, -z'
 24	'-y+.5, x+.5, -z+.5'
 25	'-x+.5, y, -z+.25'
 26	'-x+.5, -y, -z+.75'
 27	'-x+.5, y+.5, z'
 28	'-x+.5, -y+.5, z+.5'
 29	'x+.5, -y, -z+.25'
 30	'x+.5, y, -z+.75'
 31	'x+.5, -y+.5, z'
 32	'x+.5, y+.5, z+.5'
loop_
_atom_type_symbol
_atom_type_oxidation_number
Ca2+	2
Mn4+	4
O2-	-2
loop_
_atom_site_label
_atom_site_type_symbol
_atom_site_symmetry_multiplicity
_atom_site_Wyckoff_symbol
_atom_site_fract_x
_atom_site_fract_y
_atom_site_fract_z
_atom_site_occupancy
_atom_site_attached_hydrogens
_atom_site_B_iso_or_equiv
Ca1 Ca2+ 16 d 0 0 0.175(1) 1. 0 0.69 
Mn1 Mn4+ 8 a 0 0 0 1. 0 0.25 
O1 O2- 16 d 0 0 0.080(1) 1. 0 0.98 
O2 O2- 16 f 0.213(2) 0.213(2) 0.25 1. 0 1.17 

#End of data_50789-ICSD


