data_32653-ICSD
#?2014 by Fachinformationszentrum Karlsruhe, and the U.S. Secretary of 
#Commerce on behalf of the United States.  All rights reserved.
_database_code_ICSD                32653
_audit_creation_date               1980/01/01
_audit_update_record               2006/04/01
_chemical_name_systematic          'Trisilver Trithioantimonate(III)'
_chemical_formula_structural       'Ag3 (Sb S3)'
_chemical_formula_sum              'Ag3 S3 Sb1'
_chemical_name_mineral             Pyrargyrite
_publ_section_title
;
Schema structural de la proustite et de la pyrargyrite.
;
loop_
_citation_id
_citation_journal_abbrev
_citation_year
_citation_journal_volume
_citation_page_first
_citation_page_last
_citation_journal_id_ASTM
primary
;
Comptes Rendus Hebdomadaires des Seances de l`Academie des Sciences 
(1884 - 1965)
;
 1937 205 68 70 COREAF
_publ_author_name                  'Hocart, R.'
_cell_length_a                     7.
_cell_length_b                     7.
_cell_length_c                     7.
_cell_angle_alpha                  103.97
_cell_angle_beta                   103.97
_cell_angle_gamma                  103.97
_cell_volume                       306.22
_cell_formula_units_Z              2
_symmetry_space_group_name_H-M     'R 3 c R'
_symmetry_Int_Tables_number        161
loop_
_symmetry_equiv_pos_site_id
_symmetry_equiv_pos_as_xyz
  1	'z+.5, y+.5, x+.5'
  2	'z, x, y'
  3	'x+.5, z+.5, y+.5'
  4	'y, z, x'
  5	'y+.5, x+.5, z+.5'
  6	'x, y, z'
loop_
_atom_type_symbol
_atom_type_oxidation_number
Ag1+	1
S2-	-2
Sb3+	3
loop_
_atom_site_label
_atom_site_type_symbol
_atom_site_symmetry_multiplicity
_atom_site_Wyckoff_symbol
_atom_site_fract_x
_atom_site_fract_y
_atom_site_fract_z
_atom_site_occupancy
_atom_site_attached_hydrogens
Sb1 Sb3+ 2 a 0.0917 0.0917 0.0917 1. 0 
Ag1 Ag1+ 6 b 0.633 0.5 0 1. 0 
S1 S2- 6 b 0.795 0.205 0 1. 0 

#End of data_32653-ICSD


