data_78753-ICSD
#?2014 by Fachinformationszentrum Karlsruhe, and the U.S. Secretary of 
#Commerce on behalf of the United States.  All rights reserved.
_database_code_ICSD                78753
_audit_creation_date               1997/05/13
_chemical_name_systematic          'Rubidium Sodium Titanate'
_chemical_formula_structural       'Rb Na (Ti O3)'
_chemical_formula_sum              'Na1 O3 Rb1 Ti1'
_publ_section_title
;
Zwei neue Metatitanate mit fuenffach koordiniertem Titan: Cs Na Ti O3 
und Rb Na Ti O3
;
loop_
_citation_id
_citation_journal_abbrev
_citation_year
_citation_journal_volume
_citation_page_first
_citation_page_last
_citation_journal_id_ASTM
primary 'Zeitschrift fuer Anorganische und Allgemeine Chemie (1950) (DE)'
 1995 621 1447 1453 ZAACAB
_publ_author_name                  'Weiss, C.;Hoppe, R.'
_cell_length_a                     5.905
_cell_length_b                     10.986
_cell_length_c                     5.551
_cell_angle_alpha                  90.
_cell_angle_beta                   92.57
_cell_angle_gamma                  90.
_cell_volume                       359.74
_cell_formula_units_Z              4
_symmetry_space_group_name_H-M     'C 1 2/c 1'
_symmetry_Int_Tables_number        15
_refine_ls_R_factor_all            .0892
loop_
_symmetry_equiv_pos_site_id
_symmetry_equiv_pos_as_xyz
  1	'x, -y, z+.5'
  2	'-x, -y, -z'
  3	'-x, y, -z+.5'
  4	'x, y, z'
  5	'x+.5, -y+.5, z+.5'
  6	'-x+.5, -y+.5, -z'
  7	'-x+.5, y+.5, -z+.5'
  8	'x+.5, y+.5, z'
loop_
_atom_type_symbol
_atom_type_oxidation_number
Na1+	1
O2-	-2
Rb1+	1
Ti4+	4
loop_
_atom_site_label
_atom_site_type_symbol
_atom_site_symmetry_multiplicity
_atom_site_Wyckoff_symbol
_atom_site_fract_x
_atom_site_fract_y
_atom_site_fract_z
_atom_site_occupancy
_atom_site_attached_hydrogens
Rb1 Rb1+ 4 e 0 0.2685(1) 0.25 1. 0 
Ti1 Ti4+ 4 e 0 0.9469(2) 0.25 1. 0 
Na1 Na1+ 4 e 0 0.5746(4) 0.25 1. 0 
O1 O2- 4 e 0 0.7933(9) 0.25 1. 0 
O2 O2- 8 f 0.2862(10) 0.5091(8) 0.002(1) 1. 0 

loop_
_atom_site_aniso_label
_atom_site_aniso_type_symbol
_atom_site_aniso_U_11
_atom_site_aniso_U_22
_atom_site_aniso_U_33
_atom_site_aniso_U_12
_atom_site_aniso_U_13
_atom_site_aniso_U_23
Rb1 Rb1+ 0.0230(7) 0.0268(7) 0.0213(6) 0 0.0012(4) 0
Ti1 Ti4+ 0.0137(9) 0.0071(8) 0.0148(8) 0 0.0003(7) 0
Na1 Na1+ 0.0199(25) 0.0043(17) 0.0281(6) 0 0.0031(19) 0
O1 O2- 0.0368(56) 0.0183(40) 0.0333(47) 0 0.0040(41) 0
O2 O2- 0.0102(28) 0.0545(47) 0.0158(24) -.0046(27) -.0002(21) 0.0030(24)
#End of data_78753-ICSD


