data_200796-ICSD
#?2014 by Fachinformationszentrum Karlsruhe, and the U.S. Secretary of 
#Commerce on behalf of the United States.  All rights reserved.
_database_code_ICSD                200796
_audit_creation_date               1980/12/31
_audit_update_record               2013/02/01
_chemical_name_systematic
;
Potassium Erbium Tetrakis(catena-phosphate(V)) - Gamma
;
_chemical_formula_structural       'K Er (P O3)4'
_chemical_formula_sum              'Er1 K1 O12 P4'
_publ_section_title
;
Crystal structure of gamma-K Er (P O3)4, a new modification of the 
rare-earth metaphosphates K Tr (P O3)4
;
loop_
_citation_id
_citation_journal_abbrev
_citation_year
_citation_journal_volume
_citation_page_first
_citation_page_last
_citation_journal_id_ASTM
primary 'Doklady Akademii Nauk SSSR' 1980 251 1392 1395 DANKAS
_publ_author_name
;
Dago, A.M.;Pushcharovskii, D.Yu.;Pobedimskaya, E.A.;Belov, N.V.
;
_cell_length_a                     10.80(1)
_cell_length_b                     8.859(7)
_cell_length_c                     12.70(1)
_cell_angle_alpha                  90.
_cell_angle_beta                   128.89(6)
_cell_angle_gamma                  90.
_cell_volume                       945.78
_cell_formula_units_Z              4
_symmetry_space_group_name_H-M     'P 1 21/c 1'
_symmetry_Int_Tables_number        14
_refine_ls_R_factor_all            .067
loop_
_symmetry_equiv_pos_site_id
_symmetry_equiv_pos_as_xyz
  1	'x, -y+.5, z+.5'
  2	'-x, -y, -z'
  3	'-x, y+.5, -z+.5'
  4	'x, y, z'
loop_
_atom_type_symbol
_atom_type_oxidation_number
Er3+	3
K1+	1
O2-	-2
P5+	5
loop_
_atom_site_label
_atom_site_type_symbol
_atom_site_symmetry_multiplicity
_atom_site_Wyckoff_symbol
_atom_site_fract_x
_atom_site_fract_y
_atom_site_fract_z
_atom_site_occupancy
_atom_site_attached_hydrogens
Er1 Er3+ 4 e 0.1842(1) 0.2716(1) 0.5003(1) 1. 0 
P1 P5+ 4 e 0.3036(7) 0.3899(8) 0.8233(8) 1. 0 
P2 P5+ 4 e 0.1116(8) 0.5933(8) 0.8514(9) 1. 0 
P3 P5+ 4 e 0.4807(7) 0.5228(9) 0.7537(8) 1. 0 
P4 P5+ 4 e 0.1780(7) 0.6710(8) 0.5414(8) 1. 0 
K1 K1+ 4 e 0.2548(8) 0.5667(9) 0.2969(9) 1. 0 
O1 O2- 4 e 0.202(2) 0.336(2) 0.684(2) 1. 0 
O2 O2- 4 e 0.464(2) 0.449(2) 0.859(2) 1. 0 
O3 O2- 4 e 0.351(2) 0.656(2) 0.688(2) 1. 0 
O4 O2- 4 e 0.435(2) 0.411(2) 0.644(2) 1. 0 
O5 O2- 4 e 0.340(2) 0.286(2) 0.939(2) 1. 0 
O6 O2- 4 e 0.067(2) 0.459(2) 0.903(2) 1. 0 
O7 O2- 4 e 0.225(2) 0.707(2) 0.975(2) 1. 0 
O8 O2- 4 e 0.022(2) 0.318(2) 0.266(2) 1. 0 
O9 O2- 4 e 0.129(2) 0.532(2) 0.459(2) 1. 0 
O10 O2- 4 e 0.234(2) 0.546(2) 0.829(2) 1. 0 
O11 O2- 4 e 0.358(2) 0.410(2) 0.163(2) 1. 0 
O12 O2- 4 e 0.072(2) 0.741(2) 0.565(2) 1. 0 

loop_
_atom_site_aniso_label
_atom_site_aniso_type_symbol
_atom_site_aniso_B_11
_atom_site_aniso_B_22
_atom_site_aniso_B_33
_atom_site_aniso_B_12
_atom_site_aniso_B_13
_atom_site_aniso_B_23
Er1 Er3+ 0.76(4) 0.10(3) 0.53(3) -.04(4) 0.17(2) 0.00(2)
P1 P5+ 0.7(3) 0.3(2) 0.6(2) 0.2(2) 0.2(1) 0.1(1)
P2 P5+ 1.2(3) 0.3(2) 0.6(2) -.1(2) 0.3(1) 0.3(3)
P3 P5+ 0.9(3) 0.2(2) 0.6(2) -.1(2) 0.3(1) 0.2(3)
P4 P5+ 1.0(3) 0.1(2) 0.5(2) 0.3(2) 0.1(1) 0.0(1)
K1 K1+ 2.3(6) 2.5(4) 1.0(3) 0.8(2) 0.0(1) 0.3(2)
O1 O2- 0.9(9) 1.2(8) 1.0(6) 0.9(5) 0.4(3) 0.0(2)
O2 O2- 0.8(9) 0.5(7) 0.7(6) -.4(4) 0.2(3) 0.2(2)
O3 O2- 0.5(8) 0.5(7) 0.3(5) -0.3(4) -.2(3) -.1(3)
O4 O2- 0.7(8) 0.3(7) 0.9(6) -.4(4) 0.3(3) -.2(3)
O5 O2- 1.9(9) 0.3(7) 1.5(6) 0.2(5) 0.6(4) 0.3(3)
O6 O2- 2.40(12) 0.3(7) 0.9(6) -.1(3) -.5(5) 0.1(4)
O7 O2- 0.6(7) 0.6(7) 0.8(5) -.2(3) -.3(5) 0.3(3)
O8 O2- 0.5(8) 0.7(7) 1.5(7) -0.5(4) 0.2(3) 0.3(3)
O9 O2- 0.1(7) 0.5(7) 2.2(7) 0.0(4) 0.4(3) 0.3(3)
O10 O2- 2.00(11) 0.1(6) 1.3(6) -.2(5) 0.6(4) 0.1(3)
O11 O2- 2.50(11) 0.8(7) 0.4(6) 0.3(5) 0.3(4) -.1(3)
O12 O2- 2.9(1) 0.5(7) 0.8(5) -0.6(5) 0.5(3) -.2(3)
#End of data_200796-ICSD


