data_78994-ICSD
#?2014 by Fachinformationszentrum Karlsruhe, and the U.S. Secretary of 
#Commerce on behalf of the United States.  All rights reserved.
_database_code_ICSD                78994
_audit_creation_date               1998/06/26
_chemical_name_systematic          'Sodium Lutetium Chloride'
_chemical_formula_structural       'Na Lu Cl4'
_chemical_formula_sum              'Cl4 Lu1 Na1'
_publ_section_title
;
Eine Strukturvariante zum Na Er Cl4/alpha-NiWO4-Typ fuer 
ternaereSelten-Erd-Chloride vom Typ Na M Cl4: Synthese und 
Kristallstrukturvon Na Lu Cl4
;
loop_
_citation_id
_citation_journal_abbrev
_citation_year
_citation_journal_volume
_citation_page_first
_citation_page_last
_citation_journal_id_ASTM
primary 'Zeitschrift fuer Anorganische und Allgemeine Chemie (1950) (DE)'
 1996 622 785 789 ZAACAB
_publ_author_name
;
Wickleder, M.S.;Guedel, H.U.;Armbruster, T.;Meyer, G.
;
_cell_length_a                     6.186(1)
_cell_length_b                     15.922(2)
_cell_length_c                     6.570(1)
_cell_angle_alpha                  90.
_cell_angle_beta                   90.
_cell_angle_gamma                  90.
_cell_volume                       647.1
_cell_formula_units_Z              4
_symmetry_space_group_name_H-M     'P b c n'
_symmetry_Int_Tables_number        60
_refine_ls_R_factor_all            .0172
loop_
_symmetry_equiv_pos_site_id
_symmetry_equiv_pos_as_xyz
  1	'x, -y, z+.5'
  2	'-x+.5, y+.5, z'
  3	'x+.5, y+.5, -z+.5'
  4	'-x, -y, -z'
  5	'-x, y, -z+.5'
  6	'x+.5, -y+.5, -z'
  7	'-x+.5, -y+.5, z+.5'
  8	'x, y, z'
loop_
_atom_type_symbol
_atom_type_oxidation_number
Cl1-	-1
Lu3+	3
Na1+	1
loop_
_atom_site_label
_atom_site_type_symbol
_atom_site_symmetry_multiplicity
_atom_site_Wyckoff_symbol
_atom_site_fract_x
_atom_site_fract_y
_atom_site_fract_z
_atom_site_occupancy
_atom_site_attached_hydrogens
Na1 Na1+ 4 c 0 0.3191(1) 0.75 1. 0 
Lu1 Lu3+ 4 c 0 0.0723(1) 0.75 1. 0 
Cl1 Cl1- 8 d 0.2392(1) 0.18210(4) 0.5972(1) 1. 0 
Cl2 Cl1- 8 d 0.2336(1) 0.04932(4) 0.0755(1) 1. 0 

loop_
_atom_site_aniso_label
_atom_site_aniso_type_symbol
_atom_site_aniso_U_11
_atom_site_aniso_U_22
_atom_site_aniso_U_33
_atom_site_aniso_U_12
_atom_site_aniso_U_13
_atom_site_aniso_U_23
Na1 Na1+ 0.0360(1) 0.0280(8) 0.0340(1) 0 -.0040(1) 0
Lu1 Lu3+ 0.021160(8) 0.01786(7) 0.01537(7) 0 0.00106(9) 0
Cl1 Cl1- 0.0338(4) 0.0268(2) 0.0357(4) -.0056(3) 0.0146(4) 0.0017(2)
Cl2 Cl1- 0.0263(3) 0.0273(2) 0.0210(2) -.0093(3) -.0049(3) -.0040(2)
#End of data_78994-ICSD


