data_408341-ICSD
#?2014 by Fachinformationszentrum Karlsruhe, and the U.S. Secretary of 
#Commerce on behalf of the United States.  All rights reserved.
_database_code_ICSD                408341
_audit_creation_date               1999/06/02
_chemical_name_systematic          'Hexabarium Zinc Diindium Chloride'
_chemical_formula_structural       'Ba6 Zn In2 Cl20'
_chemical_formula_sum              'Ba6 Cl20 In2 Zn1'
_publ_section_title
;
Synthese und Kristallstruktur von Ba6 Zn In2 Cl20
;
loop_
_citation_id
_citation_journal_abbrev
_citation_year
_citation_journal_volume
_citation_page_first
_citation_page_last
_citation_journal_id_ASTM
primary 'Zeitschrift fuer Anorganische und Allgemeine Chemie (1950) (DE)'
 1999 625 269 273 ZAACAB
_publ_author_name                  'Masselmann, S.;Meyer, G.'
_cell_length_a                     19.5780(20)
_cell_length_b                     10.1468(8)
_cell_length_c                     17.7870(20)
_cell_angle_alpha                  90.
_cell_angle_beta                   110.940(11)
_cell_angle_gamma                  90.
_cell_volume                       3300.09
_cell_formula_units_Z              4
_symmetry_space_group_name_H-M     'P 1 21/c 1'
_symmetry_Int_Tables_number        14
_refine_ls_R_factor_all            .0432
loop_
_symmetry_equiv_pos_site_id
_symmetry_equiv_pos_as_xyz
  1	'x, -y+.5, z+.5'
  2	'-x, -y, -z'
  3	'-x, y+.5, -z+.5'
  4	'x, y, z'
loop_
_atom_type_symbol
_atom_type_oxidation_number
Ba2+	2
Cl1-	-1
In3+	3
Zn2+	2
loop_
_atom_site_label
_atom_site_type_symbol
_atom_site_symmetry_multiplicity
_atom_site_Wyckoff_symbol
_atom_site_fract_x
_atom_site_fract_y
_atom_site_fract_z
_atom_site_occupancy
_atom_site_attached_hydrogens
Ba1 Ba2+ 4 e 0.265240(14) 0.01385(3) 0.320830(14) 1. 0 
Ba2 Ba2+ 4 e 0.730660(14) 0.23986(3) 0.410670(15) 1. 0 
Ba3 Ba2+ 4 e 0.03963(2) -.29201(3) 0.23371(2) 1. 0 
Ba5 Ba2+ 4 e 0.269080(14) 0.24888(3) 0.558930(14) 1. 0 
Ba4 Ba2+ 4 e 0.52474(2) 0.23775(3) 0.508600(14) 1. 0 
Ba6 Ba2+ 4 e 0.496480(13) 0.50777(3) 0.750770(14) 1. 0 
Zn1 Zn2+ 4 e 0.10659(3) -.02455(6) 0.42515(3) 1. 0 
In1 In3+ 4 e 0.08817(2) 0.01877(3) 0.08564(2) 1. 0 
In2 In3+ 4 e 0.688390(15) 0.49205(3) 0.65773(2) 1. 0 
Cl1 Cl1- 4 e 0.54604(5) 0.51502(12) 0.60190(5) 1. 0 
Cl2 Cl1- 4 e 0.16116(6) -.16785(12) 0.17596(6) 1. 0 
Cl3 Cl1- 4 e 0.16571(6) 0.19147(12) 0.16953(7) 1. 0 
Cl4 Cl1- 4 e 0.31904(7) 0.28268(12) 0.40280(7) 1. 0 
Cl5 Cl1- 4 e 0.43904(5) 0.02075(12) 0.39175(6) 1. 0 
Cl6 Cl1- 4 e 0.44194(5) 0.25131(12) 0.63171(6) 1. 0 
Cl7 Cl1- 4 e 0.56202(5) 0.23952(12) 0.34671(5) 1. 0 
Cl8 Cl1- 4 e 0.32588(5) 0.48577(12) 0.67968(6) 1. 0 
Cl9 Cl1- 4 e 0.66234(6) 0.26191(13) 0.69302(7) 1. 0 
Cl10 Cl1- 4 e 0.16213(5) -.00354(13) 0.00098(6) 1. 0 
Cl11 Cl1- 4 e 0.67409(6) 0.01762(13) 0.49295(6) 1. 0 
Cl12 Cl1- 4 e 0.67319(6) 0.55889(15) 0.78787(7) 1. 0 
Cl13 Cl1- 4 e 0.16865(6) -.18761(12) 0.38599(6) 1. 0 
Cl14 Cl1- 4 e 0.81931(6) 0.48780(14) 0.71292(7) 1. 0 
Cl15 Cl1- 4 e 0.66722(6) 0.40844(14) 0.51829(7) 1. 0 
Cl16 Cl1- 4 e -.00410(7) 0.17241(12) -.00748(7) 1. 0 
Cl17 Cl1- 4 e 0.01303(7) 0.00366(14) 0.17362(7) 1. 0 
Cl18 Cl1- 4 e 0.15434(6) -.00846(15) 0.55853(6) 1. 0 
Cl19 Cl1- 4 e 0.13597(7) 0.17023(13) 0.37702(7) 1. 0 
Cl20 Cl1- 4 e -.01028(6) -.0694(2) 0.35455(7) 1. 0 

loop_
_atom_site_aniso_label
_atom_site_aniso_type_symbol
_atom_site_aniso_U_11
_atom_site_aniso_U_22
_atom_site_aniso_U_33
_atom_site_aniso_U_12
_atom_site_aniso_U_13
_atom_site_aniso_U_23
Ba1 Ba2+ 0.01537(12) 0.0175(2) 0.01181(10) -.00093(11) 0.00458(9) 
-.00165(10)
Ba2 Ba2+ 0.01578(13) 0.0174(2) 0.02261(12) 0.00187(11) 0.01036(10) 
0.00463(12)
Ba3 Ba2+ 0.02089(15) 0.0223(2) 0.02753(14) -.00839(12) 0.00629(12) 
0.00128(12)
Ba5 Ba2+ 0.01767(13) 0.0189(2) 0.01525(11) 0.00281(12) 0.00449(10) 
-.00302(12)
Ba4 Ba2+ 0.0334(2) 0.0147(2) 0.01311(11) -.00578(12) 0.00895(11) 
-.00109(11)
Ba6 Ba2+ 0.01695(12) 0.0149(2) 0.01454(11) 0.00095(11) 0.00723(9) 
0.00263(10)
Zn1 Zn2+ 0.0178(3) 0.0263(4) 0.0183(2) 0.0005(2) 0.0029(2) -.0004(2)
In1 In3+ 0.01269(14) 0.0200(2) 0.01354(13) 0.00032(13) 0.00425(11) 
0.00037(13)
In2 In3+ 0.01323(14) 0.0117(2) 0.01077(12) -.00033(13) 0.00432(10) 
-.00036(12)
Cl1 Cl1- 0.0136(5) 0.0194(6) 0.0132(4) 0.0018(5) 0.0044(4) 0.0004(4)
Cl2 Cl1- 0.0154(6) 0.0200(7) 0.0161(5) 0.0016(4) 0.0059(4) 0.0027(4)
Cl3 Cl1- 0.0221(6) 0.0182(7) 0.0216(5) -.0009(5) 0.0038(5) -.0027(5)
Cl4 Cl1- 0.0374(7) 0.0134(7) 0.0295(6) -.0036(5) 0.0152(5) 0.0033(5)
Cl5 Cl1- 0.0145(5) 0.0196(7) 0.0158(4) -.0030(4) 0.0060(4) -.0018(4)
Cl6 Cl1- 0.0170(5) 0.0191(7) 0.0193(4) -.0002(5) 0.0062(4) 0.0003(5)
Cl7 Cl1- 0.0176(5) 0.0143(6) 0.0155(4) -.0008(4) 0.0047(4) -.0004(4)
Cl8 Cl1- 0.0160(5) 0.0187(7) 0.0151(4) 0.0002(5) 0.0057(4) -.0024(4)
Cl9 Cl1- 0.0255(6) 0.0135(7) 0.0374(6) 0.0013(5) 0.0084(5) 0.0079(5)
Cl10 Cl1- 0.0173(5) 0.0293(7) 0.0185(5) -.0010(5) 0.0089(4) -.0015(5)
Cl11 Cl1- 0.0276(6) 0.0211(7) 0.0159(5) -.0032(5) 0.0084(4) 0.0027(5)
Cl12 Cl1- 0.0211(6) 0.0533(10) 0.0175(5) -.0059(6) 0.0074(5) -.0162(5)
Cl13 Cl1- 0.0233(6) 0.0204(7) 0.0240(5) -.0002(5) 0.0073(5) -.0050(5)
Cl14 Cl1- 0.0142(5) 0.0304(8) 0.0368(6) 0.0001(5) 0.0028(5) -.0064(6)
Cl15 Cl1- 0.0233(6) 0.0393(9) 0.0196(5) -.0022(5) 0.0106(5) -.0145(5)
Cl16 Cl1- 0.0190(6) 0.0177(7) 0.0247(5) 0.0012(5) 0.0017(4) -.0010(5)
Cl17 Cl1- 0.0368(6) 0.0274(8) 0.0298(5) 0.0057(6) 0.0240(5) 0.0004(5)
Cl18 Cl1- 0.0295(6) 0.0386(9) 0.0175(5) 0.0109(6) 0.0067(4) -.0026(5)
Cl19 Cl1- 0.0271(7) 0.0217(8) 0.0335(6) -.0020(5) 0.0083(5) 0.0043(5)
Cl20 Cl1- 0.0172(6) 0.0453(9) 0.0323(6) -.0052(6) 0.0035(5) 0.0134(6)
#End of data_408341-ICSD


