data_280649-ICSD
#?2014 by Fachinformationszentrum Karlsruhe, and the U.S. Secretary of 
#Commerce on behalf of the United States.  All rights reserved.
_database_code_ICSD                280649
_audit_creation_date               2002/04/01
_chemical_name_systematic
;
Potassium Phyllo-tetrathioeuroposilicate
;
_chemical_formula_structural       'K (Eu Si S4)'
_chemical_formula_sum              'Eu1 K1 S4 Si1'
_publ_section_title
;
Synthesis and characterization of four new europiumgroup XIV 
chalcogenides: K2 Eu T Se5 and K Eu T S4 (T = Si, Ge)
;
loop_
_citation_id
_citation_journal_abbrev
_citation_year
_citation_journal_volume
_citation_page_first
_citation_page_last
_citation_journal_id_ASTM
primary 'Inorganic Chemistry' 2001 40 2409 2414 INOCAJ
_publ_author_name                  'Evenson, C.R.IV.;Dorhout, P.K.'
_cell_length_a                     6.426(4)
_cell_length_b                     6.582(5)
_cell_length_c                     8.566(7)
_cell_angle_alpha                  90.
_cell_angle_beta                   107.83(6)
_cell_angle_gamma                  90.
_cell_volume                       344.91
_cell_formula_units_Z              2
_symmetry_space_group_name_H-M     'P 1 21 1'
_symmetry_Int_Tables_number        4
_refine_ls_R_factor_all            .0483
loop_
_symmetry_equiv_pos_site_id
_symmetry_equiv_pos_as_xyz
  1	'-x, y+.5, -z'
  2	'x, y, z'
loop_
_atom_type_symbol
_atom_type_oxidation_number
Eu3+	3
K1+	1
S2-	-2
Si4+	4
loop_
_atom_site_label
_atom_site_type_symbol
_atom_site_symmetry_multiplicity
_atom_site_Wyckoff_symbol
_atom_site_fract_x
_atom_site_fract_y
_atom_site_fract_z
_atom_site_occupancy
_atom_site_attached_hydrogens
Eu1 Eu3+ 2 a 0.27007(8) 0.21137(9) 0.44926(5) 1. 0 
Si1 Si4+ 2 a 0.7165(6) 0.1785(5) 0.3200(4) 1. 0 
K1 K1+ 2 a 0.2251(5) 0.1914(7) 0.9340(3) 1. 0 
S1 S2- 2 a 0.4811(5) -.0582(5) 0.7095(4) 1. 0 
S2 S2- 2 a 0.5205(5) 0.4424(5) 0.7267(5) 1. 0 
S3 S2- 2 a -.0884(5) 0.1777(5) 0.1645(4) 1. 0 
S4 S2- 2 a 0.0858(5) 0.6324(5) 0.4343(4) 1. 0 

loop_
_atom_site_aniso_label
_atom_site_aniso_type_symbol
_atom_site_aniso_U_11
_atom_site_aniso_U_22
_atom_site_aniso_U_33
_atom_site_aniso_U_12
_atom_site_aniso_U_13
_atom_site_aniso_U_23
Eu1 Eu3+ 0.0052(3) 0.0071(3) 0.0039(3) 0.0001(3) -.0001(2) -.0002(2)
Si1 Si4+ 0.0048(13) 0.007(2) 0.0050(14) -.0002(13) 0.0012(11) 0.0011(13)
K1 K1+ 0.0210(12) 0.019(2) 0.0071(11) 0.003(2) 0.0015(9) 0.0010(14)
S1 S2- 0.0059(13) 0.0068(15) 0.004(2) 0.0001(13) 0.0019(12) 0.0006(12)
S2 S2- 0.0084(14) 0.0031(14) 0.009(2) 0.0006(13) -.0018(12) -.0004(12)
S3 S2- 0.0074(13) 0.010(2) 0.0066(12) -.0005(10) 0.0021(10) -.0017(11)
S4 S2- 0.0037(13) 0.0126(14) 0.0052(13) 0.0030(11) 0.0006(11) -.0004(11)
#End of data_280649-ICSD


