data_78763-ICSD
#?2014 by Fachinformationszentrum Karlsruhe, and the U.S. Secretary of 
#Commerce on behalf of the United States.  All rights reserved.
_database_code_ICSD                78763
_audit_creation_date               1997/05/13
_audit_update_record               2013/08/01
_chemical_name_systematic
;
Disodium Bis(hydrogensulfate) - Sulfuric Acid (1/1)
;
_chemical_formula_structural       '(Na2 (H S O4)2) (H2 S O4)'
_chemical_formula_sum              'H4 Na2 O12 S3'
_publ_section_title
;
Synthese und Struktur neuer Natriumhydrogensulfate Na (H3 O) (H S 
O4)2; Na2 (H S O4)2 (H2 S O4) und Na (H S O4) (H2 S O4)2
;
loop_
_citation_id
_citation_journal_abbrev
_citation_year
_citation_journal_volume
_citation_page_first
_citation_page_last
_citation_journal_id_ASTM
primary 'Zeitschrift fuer Anorganische und Allgemeine Chemie (1950) (DE)'
 1995 621 1617 1624 ZAACAB
_publ_author_name
;
Troyanov, S.I.;Werner, C.;Kemnitz, E.;Worzala, H.
;
_cell_length_a                     9.970(2)
_cell_length_b                     6.951(1)
_cell_length_c                     13.949(3)
_cell_angle_alpha                  90.
_cell_angle_beta                   90.
_cell_angle_gamma                  90.
_cell_volume                       966.69
_cell_formula_units_Z              4
_symmetry_space_group_name_H-M     'P n a 21'
_symmetry_Int_Tables_number        33
_refine_ls_R_factor_all            .023
loop_
_symmetry_equiv_pos_site_id
_symmetry_equiv_pos_as_xyz
  1	'x+.5, -y+.5, z'
  2	'-x+.5, y+.5, z+.5'
  3	'-x, -y, z+.5'
  4	'x, y, z'
loop_
_atom_type_symbol
_atom_type_oxidation_number
H1+	1
Na1+	1
O2-	-2
S6+	6
loop_
_atom_site_label
_atom_site_type_symbol
_atom_site_symmetry_multiplicity
_atom_site_Wyckoff_symbol
_atom_site_fract_x
_atom_site_fract_y
_atom_site_fract_z
_atom_site_occupancy
_atom_site_attached_hydrogens
_atom_site_U_iso_or_equiv
Na1 Na1+ 4 a 0.6568(1) 0.1150(1) 0.4987(1) 1. 0 0.025(1) 
Na2 Na1+ 4 a 0.8666(1) 0.7558(2) 0.6411(1) 1. 0 0.030(1) 
S1 S6+ 4 a 0.5972(1) -.2690(1) 0.8267 1. 0 0.017(1) 
S2 S6+ 4 a 0.6420(1) 0.6309(1) 0.4751(1) 1. 0 0.015(1) 
S3 S6+ 4 a 0.4211(1) 0.2121(1) 0.6633(1) 1. 0 0.017(1) 
O1 O2- 4 a 0.5094(2) -.1372(3) 0.8726(2) 1. 0 0.033(1) 
O2 O2- 4 a 0.5371(2) -.3612(3) 0.7425(2) 1. 0 0.026(1) 
O3 O2- 4 a 0.6565(2) -.4124(3) 0.8890(1) 1. 0 0.024(1) 
O4 O2- 4 a 0.7161(2) -.1545(3) 0.7811(1) 1. 0 0.025(1) 
O5 O2- 4 a 0.7000(2) 0.7868(2) 0.5286(1) 1. 0 0.022(1) 
O6 O2- 4 a 0.6817(2) 0.6380(3) 0.3738(1) 1. 0 0.028(1) 
O7 O2- 4 a 0.6632(2) 0.4440(3) 0.5145(2) 1. 0 0.030(1) 
O8 O2- 4 a 0.4891(2) 0.6770(3) 0.4783(2) 1. 0 0.027(1) 
O9 O2- 4 a 0.3504(2) 0.3747(3) 0.6257(2) 1. 0 0.024(1) 
O10 O2- 4 a 0.4614(2) 0.0656(3) 0.5976(2) 1. 0 0.029(1) 
O11 O2- 4 a 0.5435(2) 0.2797(3) 0.7184(2) 1. 0 0.028(1) 
O12 O2- 4 a 0.3346(2) 0.1050(3) 0.7366(2) 1. 0 0.025(1) 
H1 H1+ 4 a 0.725(1) -.087(1) 0.817(1) 1. 0 0.020(7) 
H2 H1+ 4 a 0.465(1) 0.608(1) 0.444(1) 1. 0 0.06(1) 
H3 H1+ 4 a 0.533(1) 0.393(1) 0.755(1) 1. 0 0.13(2) 
H4 H1+ 4 a 0.332(1) 0.146(1) 0.780(1) 1. 0 0.06(1) 

#End of data_78763-ICSD


