data_25383-ICSD
#?2014 by Fachinformationszentrum Karlsruhe, and the U.S. Secretary of 
#Commerce on behalf of the United States.  All rights reserved.
_database_code_ICSD                25383
_audit_creation_date               1980/01/01
_audit_update_record               2012/08/01
_chemical_name_systematic
;
Lithium Vanadium Oxide (.7/2/5) - Beta
;
_chemical_formula_structural       'Li.667 V2 O5'
_chemical_formula_sum              'Li0.667 O5 V2'
_publ_section_title
;
Les bronzes Lix V2 O5. Structure de la phase beta' et affinement de 
la structure de la phase gamma
;
loop_
_citation_id
_citation_journal_abbrev
_citation_year
_citation_journal_volume
_citation_page_first
_citation_page_last
_citation_journal_id_ASTM
primary 'Revue de Chimie Minerale' 1971 8 509 522 RVCMA8
_publ_author_name
;
Galy, J.;Darriet, J.;Hagenmuller, P.
;
_cell_length_a                     15.266(6)
_cell_length_b                     3.618(2)
_cell_length_c                     10.100(6)
_cell_angle_alpha                  90.
_cell_angle_beta                   107.7(1)
_cell_angle_gamma                  90.
_cell_volume                       531.44
_cell_formula_units_Z              6
_symmetry_space_group_name_H-M     'C 1 2/m 1'
_symmetry_Int_Tables_number        12
_refine_ls_R_factor_all            .066
loop_
_symmetry_equiv_pos_site_id
_symmetry_equiv_pos_as_xyz
  1	'-x, y, -z'
  2	'-x, -y, -z'
  3	'x, -y, z'
  4	'x, y, z'
  5	'-x+.5, y+.5, -z'
  6	'-x+.5, -y+.5, -z'
  7	'x+.5, -y+.5, z'
  8	'x+.5, y+.5, z'
loop_
_atom_type_symbol
_atom_type_oxidation_number
Li1+	1
O2-	-2
V4+	4
V5+	5
loop_
_atom_site_label
_atom_site_type_symbol
_atom_site_symmetry_multiplicity
_atom_site_Wyckoff_symbol
_atom_site_fract_x
_atom_site_fract_y
_atom_site_fract_z
_atom_site_occupancy
_atom_site_attached_hydrogens
_atom_site_B_iso_or_equiv
V1 V5+ 4 i 0.3362(4) 0 0.0979(5) 1. 0 0.67 
V2 V4+ 4 i 0.1151(4) 0 0.1191(5) 1. 0 0.83 
V3 V5+ 4 i 0.2883(4) 0 0.4088(5) 1. 0 0.82 
O1 O2- 2 a 0 0 0 1. 0 2.3 
O2 O2- 4 i 0.810(2) 0 0.050(2) 1. 0 2.4 
O3 O2- 4 i 0.630(2) 0 0.077(2) 1. 0 1.1 
O4 O2- 4 i 0.431(2) 0 0.208(2) 1. 0 1.4 
O5 O2- 4 i 0.259(2) 0 0.222(2) 1. 0 1.1 
O6 O2- 4 i 0.100(2) 0 0.271(2) 1. 0 1.8 
O7 O2- 4 i 0.249(2) 0 0.579(2) 1. 0 2.1 
O8 O2- 4 i 0.391(2) 0 0.461(2) 1. 0 2.7 
Li1 Li1+ 4 i 0.535(6) 0 0.330(9) 1. 0 2.5 

#End of data_25383-ICSD


