data_30884-ICSD
#?2014 by Fachinformationszentrum Karlsruhe, and the U.S. Secretary of 
#Commerce on behalf of the United States.  All rights reserved.
_database_code_ICSD                30884
_audit_creation_date               1985/05/29
_audit_update_record               2007/08/01
_chemical_name_systematic          'Calcium Catena-silicate - Ht'
_chemical_formula_structural       'Ca (Si O3)'
_chemical_formula_sum              'Ca1 O3 Si1'
_chemical_name_mineral             Parawollastonite
_publ_section_title
;
Refinement of the crystal structure of wollastonite-2M 
(parawollastonite)
;
loop_
_citation_id
_citation_journal_abbrev
_citation_year
_citation_journal_volume
_citation_page_first
_citation_page_last
_citation_journal_id_ASTM
primary 'Zeitschrift fuer Kristallographie (1979-2010)' 1984 168 93 98 ZEKRDZ
2 'Phase Transition' 1992 38 127 220 PHTRDP
_publ_author_name                  'Hesse, K.F.'
_cell_length_a                     15.409(3)
_cell_length_b                     7.322(1)
_cell_length_c                     7.063(1)
_cell_angle_alpha                  90.
_cell_angle_beta                   95.30(2)
_cell_angle_gamma                  90.
_cell_volume                       793.47
_cell_formula_units_Z              12
_symmetry_space_group_name_H-M     'P 1 21/a 1'
_symmetry_Int_Tables_number        14
_refine_ls_R_factor_all            .038
loop_
_symmetry_equiv_pos_site_id
_symmetry_equiv_pos_as_xyz
  1	'x+.5, -y+.5, z'
  2	'-x, -y, -z'
  3	'-x+.5, y+.5, -z'
  4	'x, y, z'
loop_
_atom_type_symbol
_atom_type_oxidation_number
Ca2+	2
O2-	-2
Si4+	4
loop_
_atom_site_label
_atom_site_type_symbol
_atom_site_symmetry_multiplicity
_atom_site_Wyckoff_symbol
_atom_site_fract_x
_atom_site_fract_y
_atom_site_fract_z
_atom_site_occupancy
_atom_site_attached_hydrogens
Ca1 Ca2+ 4 e 0.2483 0.3754(2) 0.9726 1. 0 
Ca2 Ca2+ 4 e 0.4006 0.6236(6) 0.7389(1) 1. 0 
Ca3 Ca2+ 4 e 0.3986 0.1179(6) 0.7360(1) 1. 0 
Si1 Si4+ 4 e 0.4076 0.0920(1) 0.2311(1) 1. 0 
Si2 Si4+ 4 e 0.4075 0.6585(1) 0.2310(1) 1. 0 
Si3 Si4+ 4 e 0.3015 0.3760(1) 0.4436(1) 1. 0 
O1 O2- 4 e 0.2991(1) 0.3722(8) 0.6706(2) 1. 0 
O2 O2- 4 e 0.2141(1) 0.3737(8) 0.3010(2) 1. 0 
O3 O2- 4 e 0.3493(1) 0.1346(16) 0.0354(2) 1. 0 
O4 O2- 4 e 0.3479(1) 0.6121(15) 0.0361(2) 1. 0 
O5 O2- 4 e 0.5096(1) 0.1187(15) 0.2369(2) 1. 0 
O6 O2- 4 e 0.5088(1) 0.6134(13) 0.2332(3) 1. 0 
O7 O2- 4 e 0.3641(1) 0.1969(3) 0.4060(3) 1. 0 
O8 O2- 4 e 0.3640(1) 0.5553(3) 0.4075(3) 1. 0 
O9 O2- 4 e 0.3908(1) 0.8753(3) 0.2753(2) 1. 0 

loop_
_atom_site_aniso_label
_atom_site_aniso_type_symbol
_atom_site_aniso_U_11
_atom_site_aniso_U_22
_atom_site_aniso_U_33
_atom_site_aniso_U_12
_atom_site_aniso_U_13
_atom_site_aniso_U_23
Ca1 Ca2+ 0.0068(1) 0.0069(1) 0.0071(1) -0.0001(2) 0.0010(1) -0.0002(4)
Ca2 Ca2+ 0.0078(2) 0.0075(2) 0.0076(1) -0.0010(4) 0.0013(1) -0.0012(4)
Ca3 Ca2+ 0.0086(2) 0.0054(5) 0.0073(1) 0.0009(3) 0.0012(1) 0.0007(3)
Si1 Si4+ 0.0058(3) 0.0055(4) 0.0058(2) 0.0002(2) 0.0003(2) -0.0006(2)
Si2 Si4+ 0.0057(3) 0.0065(4) 0.0058(2) 0.0000(2) -0.0001(2) 0.0005(2)
Si3 Si4+ 0.0061(2) 0.0066(2) 0.0046(2) 0.0003(3) 0.0001(1) 0.0001(3)
O1 O2- 0.0091(5) 0.0101(6) 0.0045(5) 0.0021(10) 0.0009(4) -0.0019(9)
O2 O2- 0.0074(5) 0.0114(6) 0.0075(5) 0.0031(10) -0.0012(4) -0.0031(11)
O3 O2- 0.0082(6) 0.0149(21) 0.0065(5) 0.0020(11) -0.0006(4) 0.0009(10)
O4 O2- 0.0083(6) 0.0078(23) 0.0065(5) -0.001(1) -0.0009(4) 0.0002(9)
O5 O2- 0.0059(6) 0.0077(15) 0.0176(7) -0.0013(8) 0.0004(5) 0.0019(9)
O6 O2- 0.0063(6) 0.0044(21) 0.0176(7) -0.0010(7) 0.0001(5) 0.0016(9)
O7 O2- 0.0107(9) 0.0095(8) 0.0076(7) 0.0029(6) 0.0015(6) -0.0018(6)
O8 O2- 0.0124(9) 0.0097(8) 0.0074(7) -0.0036(6) 0.0003(6) 0.0021(6)
O9 O2- 0.0158(6) 0.0063(5) 0.0143(6) 0.0002(8) 0.0031(5) -0.0006(8)
#End of data_30884-ICSD


