data_90755-ICSD
#?2014 by Fachinformationszentrum Karlsruhe, and the U.S. Secretary of 
#Commerce on behalf of the United States.  All rights reserved.
_database_code_ICSD                90755
_audit_creation_date               2002/04/01
_chemical_name_systematic
;
Tripotassium Cerium Bis(arsenate(V))
;
_chemical_formula_structural       'K3 Ce (As O4)2'
_chemical_formula_sum              'As2 Ce1 K3 O8'
_publ_section_title
;
Preparation et etude structurale du tripotassium cerium(III) bis-
arseniate: K3 Ce (As O4)2
;
loop_
_citation_id
_citation_journal_abbrev
_citation_year
_citation_journal_volume
_citation_journal_issue
_citation_page_first
_citation_page_last
_citation_journal_id_ASTM
primary 'Journal de la Societe Chimique, Tunis' 2000 4 7 715 722 JSCTDP
_publ_author_name
;
Belam, W.;Zid, M.F.;Driss, A.;Daoud, A.
;
_cell_length_a                     7.607(1)
_cell_length_b                     5.837(3)
_cell_length_c                     9.879(1)
_cell_angle_alpha                  90.
_cell_angle_beta                   91.20(1)
_cell_angle_gamma                  90.
_cell_volume                       438.55
_cell_formula_units_Z              2
_symmetry_space_group_name_H-M     'P 1 21/m 1'
_symmetry_Int_Tables_number        11
_refine_ls_R_factor_all            .038
loop_
_symmetry_equiv_pos_site_id
_symmetry_equiv_pos_as_xyz
  1	'x, -y+.5, z'
  2	'-x, -y, -z'
  3	'-x, y+.5, -z'
  4	'x, y, z'
loop_
_atom_type_symbol
_atom_type_oxidation_number
As5+	5
Ce3+	3
K1+	1
O2-	-2
loop_
_atom_site_label
_atom_site_type_symbol
_atom_site_symmetry_multiplicity
_atom_site_Wyckoff_symbol
_atom_site_fract_x
_atom_site_fract_y
_atom_site_fract_z
_atom_site_occupancy
_atom_site_attached_hydrogens
Ce1 Ce3+ 2 e 0.0091(1) 0.75 0.7879(1) 1. 0 
As1 As5+ 2 e 0.1952(1) 0.25 0.9267(1) 1. 0 
As2 As5+ 2 e 0.7621(1) 0.25 0.5855(1) 1. 0 
K1 K1+ 2 e 0.2020(4) 0.25 0.5837(3) 1. 0 
K2 K1+ 2 e 0.5061(3) 0.75 0.6964(3) 1. 0 
K3 K1+ 2 e 0.6384(3) 0.25 0.9094(3) 1. 0 
O1 O2- 2 e 0.8160(1) 0.25 0.4236(8) 1. 0 
O2 O2- 4 f 0.2532(8) 0.0015(1) 0.8395(6) 1. 0 
O3 O2- 2 e 0.0290(1) 0.25 0.0814(8) 1. 0 
O4 O2- 2 e -.0021(1) 0.25 0.0952(1) 1. 0 
O5 O2- 4 f 0.0845(1) 0.0014(1) 0.6615(6) 1. 0 
O6 O2- 2 e 0.0545(1) 0.25 0.6030(1) 1. 0 

loop_
_atom_site_aniso_label
_atom_site_aniso_type_symbol
_atom_site_aniso_U_11
_atom_site_aniso_U_22
_atom_site_aniso_U_33
_atom_site_aniso_U_12
_atom_site_aniso_U_13
_atom_site_aniso_U_23
Ce1 Ce3+ 0.0150(4) 0.0282(5) 0.0104(4) 0 0.0009(3) 0
As1 As5+ 0.0162(6) 0.0209(7) 0.0094(6) 0 0.0018(4) 0
As2 As5+ 0.0191(7) 0.0232(7) 0.0074(6) 0 0.0029(4) 0
K1 K1+ 0.032(1) 0.031(1) 0.016(1) 0 0.004(1) 0
K2 K1+ 0.023(1) 0.038(2) 0.017(1) 0 -.003(1) 0
K3 K1+ 0.021(1) 0.030(1) 0.022(1) 0 0.002(1) 0
O1 O2- 0.030(4) 0.039(5) 0.004(4) 0 0.010(3) 0
O2 O2- 0.038(3) 0.020(3) 0.018(3) -.004(3) 0.070(2) -.006(2)
O3 O2- 0.031(4) 0.280(5) 0.012(4) 0 -.008(3) 0
O4 O2- 0.180(4) 0.096(9) 0.027(5) 0 0.003(4) 0
O5 O2- 0.057(4) 0.023(3) 0.022(3) 0.008(3) -.003(3) 0.004(3)
O6 O2- 0.030(5) 0.074(8) 0.033(6) 0 0.004(4) 0
#End of data_90755-ICSD


