data_51283-ICSD
#?2014 by Fachinformationszentrum Karlsruhe, and the U.S. Secretary of 
#Commerce on behalf of the United States.  All rights reserved.
_database_code_ICSD                51283
_audit_creation_date               2002/04/01
_chemical_name_systematic          'Calcium Fluoride'
_chemical_formula_structural       'Ca F2'
_chemical_formula_sum              'Ca1 F2'
_publ_section_title
;
Crystal structure and bonding in the high-pressure form of fluorite 
(Ca F2)
;
loop_
_citation_id
_citation_journal_abbrev
_citation_year
_citation_journal_volume
_citation_page_first
_citation_page_last
_citation_journal_id_ASTM
primary 'Journal of Physics and Chemistry of Solids' 2001 62 1117 1122 JPCSAW
_publ_author_name
;
Morris, E.;Groy, T.;Leinenweber, K.
;
_cell_length_a                     6.018(2)
_cell_length_b                     3.614(1)
_cell_length_c                     7.023(2)
_cell_angle_alpha                  90.
_cell_angle_beta                   90.
_cell_angle_gamma                  90.
_cell_volume                       152.74
_cell_formula_units_Z              4
_symmetry_space_group_name_H-M     'P n m a'
_symmetry_Int_Tables_number        62
loop_
_symmetry_equiv_pos_site_id
_symmetry_equiv_pos_as_xyz
  1	'x+.5, y, -z+.5'
  2	'x, -y+.5, z'
  3	'-x+.5, y+.5, z+.5'
  4	'-x, -y, -z'
  5	'-x+.5, -y, z+.5'
  6	'-x, y+.5, -z'
  7	'x+.5, -y+.5, -z+.5'
  8	'x, y, z'
loop_
_atom_type_symbol
_atom_type_oxidation_number
Ca2+	2
F1-	-1
loop_
_atom_site_label
_atom_site_type_symbol
_atom_site_symmetry_multiplicity
_atom_site_Wyckoff_symbol
_atom_site_fract_x
_atom_site_fract_y
_atom_site_fract_z
_atom_site_occupancy
_atom_site_attached_hydrogens
Ca1 Ca2+ 4 c 0.2539(1) 0.25 0.1094(1) 1. 0 
F1 F1- 4 c 0.8595(3) 0.25 0.0731(2) 1. 0 
F2 F1- 4 c 0.4780(3) 0.25 0.8344(3) 1. 0 

#End of data_51283-ICSD


