data_74500-ICSD
#?2014 by Fachinformationszentrum Karlsruhe, and the U.S. Secretary of 
#Commerce on behalf of the United States.  All rights reserved.
_database_code_ICSD                74500
_audit_creation_date               1995/10/17
_chemical_name_systematic          'Dipotassium Dithiomercurate'
_chemical_formula_structural       'K2 (Hg S2)'
_chemical_formula_sum              'Hg1 K2 S2'
_publ_section_title
;
Na2HgS2 und K2HgS2, zwei Thiomercurate mit isolierten Anionen
;
loop_
_citation_id
_citation_journal_abbrev
_citation_year
_citation_journal_volume
_citation_page_first
_citation_page_last
_citation_journal_id_ASTM
primary 'Zeitschrift fuer Naturforschung, B: Chemical Sciences'
 1992 47 491 496 ZNBSEN
_publ_author_name                  'Klepp, K.O.;Prager, K.'
_cell_length_a                     10.697(6)
_cell_length_b                     7.958(8)
_cell_length_c                     7.272(9)
_cell_angle_alpha                  90.
_cell_angle_beta                   90.
_cell_angle_gamma                  90.
_cell_volume                       619.04
_cell_formula_units_Z              4
_symmetry_space_group_name_H-M     'P b c m'
_symmetry_Int_Tables_number        57
_refine_ls_R_factor_all            .062
loop_
_symmetry_equiv_pos_site_id
_symmetry_equiv_pos_as_xyz
  1	'x, -y+.5, z+.5'
  2	'-x, y+.5, z'
  3	'x, y, -z+.5'
  4	'-x, -y, -z'
  5	'-x, y+.5, -z+.5'
  6	'x, -y+.5, -z'
  7	'-x, -y, z+.5'
  8	'x, y, z'
loop_
_atom_type_symbol
_atom_type_oxidation_number
Hg2+	2
K1+	1
S2-	-2
loop_
_atom_site_label
_atom_site_type_symbol
_atom_site_symmetry_multiplicity
_atom_site_Wyckoff_symbol
_atom_site_fract_x
_atom_site_fract_y
_atom_site_fract_z
_atom_site_occupancy
_atom_site_attached_hydrogens
_atom_site_B_iso_or_equiv
K1 K1+ 4 c 0.3960(7) 0.75 0.5 1. 0 3.5(2) 
K2 K1+ 4 d 0.1100(8) 0.547(1) 0.25 1. 0 6.4(4) 
Hg1 Hg2+ 4 d 0.2872(1) 0.3373(2) 0.75 1. 0 3.57(4) 
S1 S2- 4 d 0.3931(8) 0.419(1) 0.25 1. 0 3.3(3) 
S2 S2- 4 d 0.1642(9) 0.575(2) 0.75 1. 0 4.0(3) 

#End of data_74500-ICSD


