data_9105-ICSD
#?2014 by Fachinformationszentrum Karlsruhe, and the U.S. Secretary of 
#Commerce on behalf of the United States.  All rights reserved.
_database_code_ICSD                9105
_audit_creation_date               1980/01/01
_audit_update_record               1987/11/02
_chemical_name_systematic          'Lithium Borate - Alpha'
_chemical_formula_structural       'Li3 B O3'
_chemical_formula_sum              'B1 Li3 O3'
_publ_section_title
;
Die Kristallstruktur von alpha-Li3 B O3
;
loop_
_citation_id
_citation_journal_abbrev
_citation_year
_citation_journal_volume
_citation_page_first
_citation_page_last
_citation_journal_id_ASTM
primary 'Acta Crystallographica B (24,1968-38,1982)' 1971 27 904 910 ACBCAR
_publ_author_name                  'Stewner, F.'
_cell_length_a                     3.265(1)
_cell_length_b                     9.180(3)
_cell_length_c                     8.316(3)
_cell_angle_alpha                  90.
_cell_angle_beta                   101.05(2)
_cell_angle_gamma                  90.
_cell_volume                       244.63
_cell_formula_units_Z              4
_symmetry_space_group_name_H-M     'P 1 21/c 1'
_symmetry_Int_Tables_number        14
_refine_ls_R_factor_all            .057
loop_
_symmetry_equiv_pos_site_id
_symmetry_equiv_pos_as_xyz
  1	'x, -y+.5, z+.5'
  2	'-x, -y, -z'
  3	'-x, y+.5, -z+.5'
  4	'x, y, z'
loop_
_atom_type_symbol
_atom_type_oxidation_number
B3+	3
Li1+	1
O2-	-2
loop_
_atom_site_label
_atom_site_type_symbol
_atom_site_symmetry_multiplicity
_atom_site_Wyckoff_symbol
_atom_site_fract_x
_atom_site_fract_y
_atom_site_fract_z
_atom_site_occupancy
_atom_site_attached_hydrogens
_atom_site_B_iso_or_equiv
Li1 Li1+ 4 e 0.4934(21) 0.2330(12) 0.0175(10) 1. 0 0.9 
Li2 Li1+ 4 e 0.2710(25) 0.4771(11) 0.113(1) 1. 0 0.9 
Li3 Li1+ 4 e -.0932(25) 0.4288(11) 0.3669(9) 1. 0 0.9 
B1 B3+ 4 e 0.1980(11) 0.1859(7) 0.2540(5) 1. 0 0.2 
O1 O2- 4 e 0.0256(8) 0.1388(4) 0.0996(3) 1. 0 0.5 
O2 O2- 4 e 0.2245(9) 0.0936(4) 0.3862(4) 1. 0 0.5 
O3 O2- 4 e 0.3612(9) 0.3249(4) 0.2782(3) 1. 0 0.5 

#End of data_9105-ICSD


