data_2332-ICSD
#?2014 by Fachinformationszentrum Karlsruhe, and the U.S. Secretary of 
#Commerce on behalf of the United States.  All rights reserved.
_database_code_ICSD                2332
_audit_creation_date               1980/01/01
_audit_update_record               2012/08/01
_chemical_name_systematic          'Potassium Triamidoberyllate'
_chemical_formula_structural       'K (Be (N H2)3)'
_chemical_formula_sum              'H6 Be1 K1 N3'
_publ_section_title
;
Etude structurale d'amidoberyllates de rubidium et de potassium
;
loop_
_citation_id
_citation_journal_abbrev
_citation_year
_citation_journal_volume
_citation_page_first
_citation_page_last
_citation_journal_id_ASTM
primary 'Acta Crystallographica B (24,1968-38,1982)' 1974 30 2579 2582 ACBCAR
_publ_author_name
;
Drew, M.G.B.;Goulter, J.E.;Guemas Brisseau, L.;Palvadeau, P.;Rouxel, 
J.;Herpin, P.
;
_cell_length_a                     12.88(1)
_cell_length_b                     11.21(1)
_cell_length_c                     13.19(1)
_cell_angle_alpha                  90.
_cell_angle_beta                   90.
_cell_angle_gamma                  90.
_cell_volume                       1904.44
_cell_formula_units_Z              16
_symmetry_space_group_name_H-M     'P b c a'
_symmetry_Int_Tables_number        61
_refine_ls_R_factor_all            .04
loop_
_symmetry_equiv_pos_site_id
_symmetry_equiv_pos_as_xyz
  1	'x+.5, y, -z+.5'
  2	'x, -y+.5, z+.5'
  3	'-x+.5, y+.5, z'
  4	'-x, -y, -z'
  5	'-x+.5, -y, z+.5'
  6	'-x, y+.5, -z+.5'
  7	'x+.5, -y+.5, -z'
  8	'x, y, z'
loop_
_atom_type_symbol
_atom_type_oxidation_number
Be2+	2
H1+	1
K1+	1
N3-	-3
loop_
_atom_site_label
_atom_site_type_symbol
_atom_site_symmetry_multiplicity
_atom_site_Wyckoff_symbol
_atom_site_fract_x
_atom_site_fract_y
_atom_site_fract_z
_atom_site_occupancy
_atom_site_attached_hydrogens
_atom_site_B_iso_or_equiv
K1 K1+ 8 c 0.1599(1) 0.0606(1) 0.0206(1) 1. 0 0 
K2 K1+ 8 c 0.0444(1) 0.8291(1) 0.7988(1) 1. 0 0 
Be1 Be2+ 8 c 0.4498(5) 0.2939(5) 0.0570(5) 1. 0 0 
Be2 Be2+ 8 c 0.2410(5) 0.0295(5) 0.2525(5) 1. 0 0 
N1 N3- 8 c 0.5308(4) 0.2167(4) -.0076(4) 1. 0 0 
N2 N3- 8 c 0.3325(4) 0.2965(5) 0.0209(3) 1. 0 0 
N3 N3- 8 c 0.4881(4) 0.3885(5) 0.1400(3) 1. 0 0 
N4 N3- 8 c 0.3286(4) 0.0046(5) 0.1718(4) 1. 0 0 
N5 N3- 8 c 0.1825(5) 0.1540(5) 0.2475(4) 1. 0 0 
N6 N3- 8 c 0.2116(4) -.0665(5) 0.3375(3) 1. 0 0 
H1 H1+ 8 c 0.590(5) 0.202(5) 0.028(4) 1. 0 7. 
H2 H1+ 8 c 0.509(5) 0.158(5) -.042(4) 1. 0 6. 
H3 H1+ 8 c 0.305(4) 0.260(5) -.032(4) 1. 0 9. 
H4 H1+ 8 c 0.280(4) 0.320(5) 0.064(4) 1. 0 7. 
H5 H1+ 8 c 0.445(4) 0.406(4) 0.182(4) 1. 0 5. 
H6 H1+ 8 c 0.548(4) 0.382(4) 0.164(4) 1. 0 5. 
H7 H1+ 8 c 0.353(5) -.055(5) 0.158(5) 1. 0 7. 
H8 H1+ 8 c 0.346(5) 0.058(6) 0.130(6) 1. 0 10. 
H9 H1+ 8 c 0.214(5) 0.213(7) 0.206(5) 1. 0 12. 
H10 H1+ 8 c 0.153(6) 0.185(6) 0.297(5) 1. 0 10. 
H11 H1+ 8 c 0.149(4) -.054(5) 0.376(4) 1. 0 7. 
H12 H1+ 8 c 0.220(4) -.142(6) 0.322(4) 1. 0 7. 

#End of data_2332-ICSD


