data_41661-ICSD
#?2014 by Fachinformationszentrum Karlsruhe, and the U.S. Secretary of 
#Commerce on behalf of the United States.  All rights reserved.
_database_code_ICSD                41661
_audit_creation_date               1999/11/30
_chemical_name_systematic
;
Calcium Dialuminum Oxide - Hp-form Ii
;
_chemical_formula_structural       'Ca Al2 O4'
_chemical_formula_sum              'Al2 Ca1 O4'
_publ_section_title
;
High-pressure modifications of Ca Al2 O4 and Ca Ga2 O4
;
loop_
_citation_id
_citation_journal_abbrev
_citation_year
_citation_journal_volume
_citation_page_first
_citation_page_last
_citation_journal_id_ASTM
primary 'Materials Research Bulletin' 1980 15 925 932 MRBUAC
_publ_author_name
;
Ito, S.;Suzuki, K.;Inagaki, M.;Naka, S.
;
_cell_length_a                     7.95
_cell_length_b                     8.62
_cell_length_c                     10.25
_cell_angle_alpha                  90.
_cell_angle_beta                   93.1
_cell_angle_gamma                  90.
_cell_volume                       701.39
_cell_formula_units_Z              8
_symmetry_space_group_name_H-M     'P 1 21/c 1'
_symmetry_Int_Tables_number        14
loop_
_symmetry_equiv_pos_site_id
_symmetry_equiv_pos_as_xyz
  1	'x, -y+.5, z+.5'
  2	'-x, -y, -z'
  3	'-x, y+.5, -z+.5'
  4	'x, y, z'
loop_
_atom_type_symbol
_atom_type_oxidation_number
Al3+	3
Ca2+	2
O2-	-2
loop_
_atom_site_label
_atom_site_type_symbol
_atom_site_symmetry_multiplicity
_atom_site_Wyckoff_symbol
_atom_site_fract_x
_atom_site_fract_y
_atom_site_fract_z
_atom_site_occupancy
_atom_site_attached_hydrogens
_atom_site_B_iso_or_equiv
Al1 Al3+ 4 e 0.2902(3) 0.3901(3) 0.1180(2) 1. 0 0.52 
Al2 Al3+ 4 e 0.6982(3) 0.4050(3) 0.1092(2) 1. 0 0.5 
Al3 Al3+ 4 e 0.8243(3) 0.5542(3) 0.3608(2) 1. 0 0.53 
Al4 Al3+ 4 e 0.2343(3) 0.5598(3) 0.3693(2) 1. 0 0.52 
Ca1 Ca2+ 4 e 0.5373(5) 0.2368(5) 0.3533(4) 1. 0 0.78 
Ca2 Ca2+ 4 e -.0003(5) 0.2137(5) 0.3709(4) 1. 0 0.9 
O1 O2- 4 e 0.3698(18) 0.4358(18) 0.2825(14) 1. 0 0.87 
O2 O2- 4 e 0.7273(17) 0.4146(16) 0.4587(13) 1. 0 0.64 
O3 O2- 4 e 0.1370(18) 0.2391(17) 0.0696(14) 1. 0 0.65 
O4 O2- 4 e 0.4846(19) 0.3390(17) 0.0525(14) 1. 0 1.02 
O5 O2- 4 e 0.2085(17) 0.5703(16) 0.0441(13) 1. 0 0.44 
O6 O2- 4 e 0.7218(17) 0.5873(16) 0.1977(13) 1. 0 0.53 
O7 O2- 4 e 0.7695(17) 0.2469(16) 0.2134(13) 1. 0 0.39 
O8 O2- 4 e 0.0301(18) 0.4732(17) 0.3250(13) 1. 0 0.8 

#End of data_41661-ICSD


