data_159205-ICSD
#?2014 by Fachinformationszentrum Karlsruhe, and the U.S. Secretary of 
#Commerce on behalf of the United States.  All rights reserved.
_database_code_ICSD                159205
_audit_creation_date               2008/08/01
_audit_update_record               2012/02/01
_chemical_name_systematic
;
Tetralithium Triamide Tetrahydridoborate
;
_chemical_formula_structural       'Li4 (N H2)3 (B H4)'
_chemical_formula_sum              'H10 B1 Li4 N3'
_publ_section_title
;
Crystal and electronic structures of the complex hydride Li4 B N3 H10
;
loop_
_citation_id
_citation_journal_abbrev
_citation_year
_citation_journal_volume
_citation_page_first
_citation_page_last
_citation_journal_id_ASTM
primary 'Journal of Applied Physics' 2007 102 033507-1 033507-5 JAPIAU
_publ_author_name
;
Yang, J.-B.;Wang, X.-J.;Cai, Q.;Yelon, W.B.;James, W.J.
;
_cell_length_a                     10.64519(52)
_cell_length_b                     10.64519(52)
_cell_length_c                     10.64519(52)
_cell_angle_alpha                  90.
_cell_angle_beta                   90.
_cell_angle_gamma                  90.
_cell_volume                       1206.31
_cell_formula_units_Z              8
_symmetry_space_group_name_H-M     'I 21 3'
_symmetry_Int_Tables_number        199
loop_
_symmetry_equiv_pos_site_id
_symmetry_equiv_pos_as_xyz
  1	'-z+.5, -x, y+.5'
  2	'-y+.5, -z, x+.5'
  3	'-x+.5, -y, z+.5'
  4	'-z, x+.5, -y+.5'
  5	'-y, z+.5, -x+.5'
  6	'-x, y+.5, -z+.5'
  7	'z+.5, -x+.5, -y'
  8	'y+.5, -z+.5, -x'
  9	'x+.5, -y+.5, -z'
 10	'z, x, y'
 11	'y, z, x'
 12	'x, y, z'
 13	'-z, -x+.5, y'
 14	'-y, -z+.5, x'
 15	'-x, -y+.5, z'
 16	'-z+.5, x, -y'
 17	'-y+.5, z, -x'
 18	'-x+.5, y, -z'
 19	'z, -x, -y+.5'
 20	'y, -z, -x+.5'
 21	'x, -y, -z+.5'
 22	'z+.5, x+.5, y+.5'
 23	'y+.5, z+.5, x+.5'
 24	'x+.5, y+.5, z+.5'
loop_
_atom_type_symbol
_atom_type_oxidation_number
B3+	3
H1-	-1
H1+	1
Li1+	1
N3-	-3
loop_
_atom_site_label
_atom_site_type_symbol
_atom_site_symmetry_multiplicity
_atom_site_Wyckoff_symbol
_atom_site_fract_x
_atom_site_fract_y
_atom_site_fract_z
_atom_site_occupancy
_atom_site_attached_hydrogens
Li1 Li1+ 12 b 0.28680(246) 0 0.250 1. 0 
Li2 Li1+ 12 b 0.52199(310) 0 0.250 1. 0 
Li3 Li1+ 8 a 0.51717(243) 0.51717(243) 0.51717(243) 1. 0 
N1 N3- 24 c 0.11208(43) 0.36022(51) 0.40394(59) 1. 0 
B1 B3+ 8 a 0.11014(142) 0.11014(142) 0.11014(142) 1. 0 
H1 H1+ 24 c 0.16793(376) 0.27969(289) 0.39810(393) 1. 0 
H2 H1+ 24 c 0.12362(294) 0.44913(372) 0.34513(408) 1. 0 
H3 H1- 24 c 0.00223(173) 0.12294(352) 0.13817(503) 1. 0 
H4 H1- 8 a 0.17938(467) 0.17938(467) 0.17938(467) 1. 0 

#End of data_159205-ICSD


