data_96563-ICSD
#?2014 by Fachinformationszentrum Karlsruhe, and the U.S. Secretary of 
#Commerce on behalf of the United States.  All rights reserved.
_database_code_ICSD                96563
_audit_creation_date               2004/04/01
_chemical_name_systematic
;
Dipotassium Bis(dioxouranium(VI)) Molybdate Dioxide
;
_chemical_formula_structural       'K2 (U O2)2 (Mo O4) O2'
_chemical_formula_sum              'K2 Mo1 O10 U2'
_publ_section_title
;
Synthesis, crystal structure and electrical characterization of two 
new potassium uranyl molybdates K2 (U O2)2 (Mo O4) O2 and K8 (U O2)8 
(Mo O5)3 O6
;
loop_
_citation_id
_citation_journal_abbrev
_citation_year
_citation_journal_volume
_citation_page_first
_citation_page_last
_citation_journal_id_ASTM
primary 'Journal of Solid State Chemistry' 2003 174 19 31 JSSCBI
_publ_author_name
;
Obbade, S.;Yagoubi, S.;Dion, C.;Saadi, M.;Abraham, F.
;
_cell_length_a                     8.2498(9)
_cell_length_b                     15.337(2)
_cell_length_c                     8.3514(9)
_cell_angle_alpha                  90
_cell_angle_beta                   104.748(5)
_cell_angle_gamma                  90
_cell_volume                       1021.87
_cell_formula_units_Z              4
_symmetry_space_group_name_H-M     'P 1 21/c 1'
_symmetry_Int_Tables_number        14
_refine_ls_R_factor_all            .046
loop_
_symmetry_equiv_pos_site_id
_symmetry_equiv_pos_as_xyz
  1	'x, -y+.5, z+.5'
  2	'-x, -y, -z'
  3	'-x, y+.5, -z+.5'
  4	'x, y, z'
loop_
_atom_type_symbol
_atom_type_oxidation_number
K1+	1
Mo6+	6
O2-	-2
U6+	6
loop_
_atom_site_label
_atom_site_type_symbol
_atom_site_symmetry_multiplicity
_atom_site_Wyckoff_symbol
_atom_site_fract_x
_atom_site_fract_y
_atom_site_fract_z
_atom_site_occupancy
_atom_site_attached_hydrogens
_atom_site_U_iso_or_equiv
U1 U6+ 4 e 0.88389(9) 0.57199(5) 0.10481(8) 1. 0 0.0220(2) 
U2 U6+ 4 e 0.13408(9) 0.42554(5) 0.41776(8) 1. 0 0.0205(3) 
Mo1 Mo6+ 4 e 0.3781(2) 0.2623(1) 0.2103(2) 1. 0 0.0241(5) 
K1 K1+ 4 e 0.1739(7) 0.7644(4) 0.9244(6) 1. 0 0.050(2) 
K2 K1+ 4 e 0.4425(8) 0.5413(5) 0.2251(6) 1. 0 0.061(2) 
O1 O2- 4 e 0.040(2) 0.6564(8) 0.123(2) 1. 0 0.038(4) 
O2 O2- 4 e 0.970(2) 0.3467(9) 0.345(2) 1. 0 0.026(4) 
O3 O2- 4 e 0.027(2) 0.4565(9) 0.634(1) 1. 0 0.022(3) 
O4 O2- 4 e 0.101(2) 0.4645(9) 0.148(1) 1. 0 0.031(4) 
O5 O2- 4 e 0.717(2) 0.4927(9) 0.097(1) 1. 0 0.038(4) 
O6 O2- 4 e 0.583(2) 0.2302(9) 0.258(2) 1. 0 0.036(4) 
O7 O2- 4 e 0.306(2) 0.4984(9) 0.489(2) 1. 0 0.005(5) 
O8 O2- 4 e 0.337(2) 0.3340(9) 0.036(2) 1. 0 0.045(5) 
O9 O2- 4 e 0.251(2) 0.169(9) 0.182(2) 1. 0 0.051(5) 
O10 O2- 4 e 0.346(2) 0.3282(9) 0.372(2) 1. 0 0.044(5) 

loop_
_atom_site_aniso_label
_atom_site_aniso_type_symbol
_atom_site_aniso_U_11
_atom_site_aniso_U_22
_atom_site_aniso_U_33
_atom_site_aniso_U_12
_atom_site_aniso_U_13
_atom_site_aniso_U_23
U1 U6+ 0.0284(6) 0.0291(5) 0.0070(4) -0.0071(4) 0.0044(4) -0.0007(3)
U2 U6+ 0.0259(5) 0.0278(5) 0.0077(4) -0.0025(4) 0.0064(3) -0.0011(3)
Mo1 Mo6+ 0.0121(9) 0.0457(9) 0.0132(9) -0.0022(9) 0.0028(7) -0.0038(8)
K1 K1+ 0.036(3) 0.101(5) 0.014(3) 0.014(3) 0.013(2) 0.019(3)
K2 K1+ 0.072(5) 0.082(4) 0.016(3) -0.055(4) 0.010(3) -0.012(3)
O1 O2- 0.061(11) 0.022(8) 0.025(8) -0.014(8) 0.013(8) -0.009(6)
O2 O2- 0.028(9) 0.033(8) 0.014(7) -0.003(7) 0.004(6) -0.001(6)
O3 O2- 0.027(9) 0.028(8) 0.008(7) 0.004(7) -0.005(6) 0.008(6)
O4 O2- 0.041(10) 0.035(8) 0.016(8) -0.002(7) 0.008(7) 0.012(6)
O5 O2- 0.031(9) 0.062(9) 0.007(7) -0.008(8) 0.001(7) 0.007(7)
O6 O2- 0.011(8) 0.073(9) 0.021(8) 0.003(8) -0.001(6) -0.010(8)
O7 O2- 0.008(8) 0.069(9) 0.022(8) 0.002(8) -0.003(6) -0.017(8)
O8 O2- 0.059(9) 0.040(9) 0.032(9) -0.003(9) 0.018(9) -0.003(7)
O9 O2- 0.078(9) 0.058(9) 0.019(8) -0.034(9) 0.013(9) -0.013(8)
O10 O2- 0.049(9) 0.054(9) 0.030(9) -0.001(9) 0.021(8) -0.017(8)
#End of data_96563-ICSD


