data_416431-ICSD
#?2014 by Fachinformationszentrum Karlsruhe, and the U.S. Secretary of 
#Commerce on behalf of the United States.  All rights reserved.
_database_code_ICSD                416431
_audit_creation_date               2008/02/01
_chemical_name_systematic          'Potassium Dilead Pentachloride'
_chemical_formula_structural       'K Pb2 Cl5'
_chemical_formula_sum              'Cl5 K1 Pb2'
_publ_section_title
;
A cationic order-disorder phase transition in K Pb2 Cl5
;
loop_
_citation_id
_citation_journal_abbrev
_citation_year
_citation_journal_volume
_citation_journal_issue
_citation_page_first
_citation_page_last
_citation_journal_id_ASTM
primary 'European Journal of Inorganic Chemistry  (online)'
 2006 2006 20 4168 4178 EJICFO
_publ_author_name
;
Velazquez, M.;Ferrier, A.;Perez, O.;Pechev, S.;Gravereau, 
P.;Chaminade, J.P.;Moncorge, R.
;
_cell_length_a                     8.9031(6)
_cell_length_b                     7.9717(6)
_cell_length_c                     12.5638(8)
_cell_angle_alpha                  90
_cell_angle_beta                   90.1
_cell_angle_gamma                  90
_cell_volume                       891.69
_cell_formula_units_Z              4
_symmetry_space_group_name_H-M     'P 1 21/c 1'
_symmetry_Int_Tables_number        14
_refine_ls_R_factor_all            .0458
loop_
_symmetry_equiv_pos_site_id
_symmetry_equiv_pos_as_xyz
  1	'x, -y+.5, z+.5'
  2	'-x, -y, -z'
  3	'-x, y+.5, -z+.5'
  4	'x, y, z'
loop_
_atom_type_symbol
_atom_type_oxidation_number
Cl1-	-1
K1+	1
Pb2+	2
loop_
_atom_site_label
_atom_site_type_symbol
_atom_site_symmetry_multiplicity
_atom_site_Wyckoff_symbol
_atom_site_fract_x
_atom_site_fract_y
_atom_site_fract_z
_atom_site_occupancy
_atom_site_attached_hydrogens
_atom_site_U_iso_or_equiv
Pb1 Pb2+ 4 e 0.74527(4) 0.06244(4) 0.99344(3) 1 0 0.03224(11) 
Pb2 Pb2+ 4 e 0.00661(8) 0.50677(7) 0.82637(3) 1 0 0.04139(13) 
K1 K1+ 4 e 0.5101(3) 0.5481(2) 0.83197(19) 1 0 0.0418(8) 
Cl1 Cl1- 4 e 0.0409(3) 0.1663(3) 0.9025(2) 1 0 0.0361(8) 
Cl2 Cl1- 4 e 0.7700(4) -0.1550(3) 0.81144(18) 1 0 0.0459(9) 
Cl3 Cl1- 4 e 0.7647(3) 0.3125(3) 0.71983(17) 1 0 0.0384(7) 
Cl4 Cl1- 4 e 0.5394(3) -0.1799(3) 0.0798(2) 1 0 0.0473(10) 
Cl5 Cl1- 4 e 0.7786(2) 0.4582(2) 0.9986(2) 1 0 0.0362(7) 

loop_
_atom_site_aniso_label
_atom_site_aniso_type_symbol
_atom_site_aniso_U_11
_atom_site_aniso_U_22
_atom_site_aniso_U_33
_atom_site_aniso_U_12
_atom_site_aniso_U_13
_atom_site_aniso_U_23
Pb1 Pb2+ 0.0267(2) 0.03587(18) 0.03412(18) 0.00117(14) 0.0012(4) 
-0.00428(19)
Pb2 Pb2+ 0.0446(2) 0.0401(2) 0.0394(2) -0.00463(20) 0.0005(4) -0.0029(2)
K1 K1+ 0.0346(14) 0.0450(15) 0.0457(12) 0.0076(15) 0.0025(14) 0.0091(9)
Cl1 Cl1- 0.0300(15) 0.0303(12) 0.0482(15) 0.0021(10) -0.0002(12) 0.0072(10)
Cl2 Cl1- 0.060(2) 0.0421(14) 0.0355(12) -0.0138(14) 0.0104(15) -0.0099(10)
Cl3 Cl1- 0.0393(15) 0.0382(12) 0.0376(12) -0.0040(13) -0.0017(14) 
-0.0019(10)
Cl4 Cl1- 0.0282(16) 0.0442(15) 0.070(2) -0.0011(12) -0.0035(14) 0.0262(13)
Cl5 Cl1- 0.0399(14) 0.0376(11) 0.0312(10) 0.0001(9) -0.0011(17) -0.0024(13)
#End of data_416431-ICSD


