data_422414-ICSD
#?2014 by Fachinformationszentrum Karlsruhe, and the U.S. Secretary of 
#Commerce on behalf of the United States.  All rights reserved.
_database_code_ICSD                422414
_audit_creation_date               2011/08/01
_audit_update_record               2012/08/01
_chemical_name_systematic          'Silver(II) Bis(fluorosulfate(VI))'
_chemical_formula_structural       'Ag (S O3 F)2'
_chemical_formula_sum              'Ag1 F2 O6 S2'
_publ_section_title
;
Silver(II) fluorosulfate - a thermally fragile ferromagnetic 
derivative of divalent silver in oxa- ligand environment
;
loop_
_citation_id
_citation_journal_abbrev
_citation_year
_citation_journal_volume
_citation_journal_issue
_citation_page_first
_citation_page_last
_citation_journal_id_ASTM
primary 'European Journal of Inorganic Chemistry  (online)'
 2011 2011 16 2499 2507 EJICFO
_publ_author_name
;
Malinowski, P.J.;Derzsi, M.;Mazej, Z.;Jaglicic, Z.;Leszczynski, 
P.J.;Michalowski, T.;Grochala, W.
;
_cell_length_a                     10.5130(4)
_cell_length_b                     7.7524(3)
_cell_length_c                     8.9366(4)
_cell_angle_alpha                  90
_cell_angle_beta                   117.867(2)
_cell_angle_gamma                  90
_cell_volume                       643.88
_cell_formula_units_Z              4
_symmetry_space_group_name_H-M     'P 1 21/c 1'
_symmetry_Int_Tables_number        14
_refine_ls_R_factor_all            .0244
loop_
_symmetry_equiv_pos_site_id
_symmetry_equiv_pos_as_xyz
  1	'x, -y+.5, z+.5'
  2	'-x, -y, -z'
  3	'-x, y+.5, -z+.5'
  4	'x, y, z'
loop_
_atom_type_symbol
_atom_type_oxidation_number
Ag2+	2
F1-	-1
O2-	-2
S6+	6
loop_
_atom_site_label
_atom_site_type_symbol
_atom_site_symmetry_multiplicity
_atom_site_Wyckoff_symbol
_atom_site_fract_x
_atom_site_fract_y
_atom_site_fract_z
_atom_site_occupancy
_atom_site_attached_hydrogens
_atom_site_U_iso_or_equiv
S1 S6+ 4 e 0.1427(12) 0.2164(15) 0.3121(14) 1 0 0.030(4) 
O1 O2- 4 e 0.025(2) 0.208(3) 0.359(3) 1 0 0.037(10) 
O2 O2- 4 e 0.132(3) 0.3819(18) 0.226(3) 1 0 0.0288 
O3 O2- 4 e 0.2809(17) 0.170(3) 0.442(2) 1 0 0.0288 
F1 F1- 4 e 0.1104(19) 0.080(2) 0.172(2) 1 0 0.049(9) 
Ag1 Ag2+ 2 c 0 0 0.5 1 0 0.027(4) 
S2 S6+ 4 e 0.6539(12) 0.2687(14) 0.3607(15) 1 0 0.027(3) 
O4 O2- 4 e 0.529(2) 0.160(3) 0.334(3) 1 0 0.0288 
O5 O2- 4 e 0.645(3) 0.334(3) 0.201(2) 1 0 0.0288 
O6 O2- 4 e 0.7888(17) 0.197(3) 0.475(3) 1 0 0.0288 
F2 F1- 4 e 0.6380(18) 0.431(2) 0.452(2) 1 0 0.079(10) 
Ag2 Ag2+ 2 d 0.5 0 0.5 1 0 0.027(4) 

loop_
_atom_site_aniso_label
_atom_site_aniso_type_symbol
_atom_site_aniso_U_11
_atom_site_aniso_U_22
_atom_site_aniso_U_33
_atom_site_aniso_U_12
_atom_site_aniso_U_13
_atom_site_aniso_U_23
Ag1 Ag2+ 0.022(7) 0.035(5) 0.018(4) 0.003(5) 0.005(4) -0.003(5)
Ag2 Ag2+ 0.031(7) 0.020(4) 0.033(5) 0.010(5) 0.016(5) 0.006(5)
#End of data_422414-ICSD


