data_169478-ICSD
#?2014 by Fachinformationszentrum Karlsruhe, and the U.S. Secretary of 
#Commerce on behalf of the United States.  All rights reserved.
_database_code_ICSD                169478
_audit_creation_date               2011/08/01
_chemical_name_systematic          'Lithium Iron Digermanate'
_chemical_formula_structural       'Li Fe (Ge2 O6)'
_chemical_formula_sum              'Fe1 Ge2 Li1 O6'
_publ_section_title
;
Thermal expansion and high-temperature P21/c - C2/c phase transition 
in clinopyroxene-type Li Fe Ge2 O6 and comparison to Na Fe (Si, Ge)2 
O6
;
loop_
_citation_id
_citation_journal_abbrev
_citation_year
_citation_journal_volume
_citation_page_first
_citation_page_last
_citation_journal_id_ASTM
primary 'Physics and Chemistry of Minerals' 2010 37 685 704 PCMIDU
_publ_author_name
;
Redhammer, G.J.;Camara, F.;Alvaro, M.;Nestola, F.;Tippelt, G.;Prinz, 
S.;Simons, J.;Roth, G.;Amthauer, G.
;
_cell_length_a                     9.9336(9)
_cell_length_b                     8.8411(9)
_cell_length_c                     5.4171(6)
_cell_angle_alpha                  90.
_cell_angle_beta                   108.877(5)
_cell_angle_gamma                  90.
_cell_volume                       450.16
_cell_formula_units_Z              4
_symmetry_space_group_name_H-M     'P 1 21/c 1'
_symmetry_Int_Tables_number        14
_refine_ls_R_factor_all            .0316
loop_
_symmetry_equiv_pos_site_id
_symmetry_equiv_pos_as_xyz
  1	'x, -y+.5, z+.5'
  2	'-x, -y, -z'
  3	'-x, y+.5, -z+.5'
  4	'x, y, z'
loop_
_atom_type_symbol
_atom_type_oxidation_number
Fe3+	3
Ge4+	4
Li1+	1
O2-	-2
loop_
_atom_site_label
_atom_site_type_symbol
_atom_site_symmetry_multiplicity
_atom_site_Wyckoff_symbol
_atom_site_fract_x
_atom_site_fract_y
_atom_site_fract_z
_atom_site_occupancy
_atom_site_attached_hydrogens
_atom_site_U_iso_or_equiv
Li1 Li1+ 4 e 0.2602(26) 0.4794(21) 0.7286(35) 1. 0 0.0321(45) 
Fe1 Fe3+ 4 e 0.2505(2) 0.6500(1) 0.2184(2) 1. 0 0.0078(4) 
Ge1 Ge4+ 4 e 0.04495(9) 0.3421(1) 0.2733(2) 1. 0 0.0083(4) 
Ge2 Ge4+ 4 e 0.5502(1) 0.8406(1) 0.2319(2) 1. 0 0.0081(4) 
O1 O2- 4 e -0.1408(6) 0.3312(8) 0.1697(10) 1. 0 0.0091(14) 
O2 O2- 4 e 0.1140(8) 0.5203(8) 0.2856(12) 1. 0 0.0219(17) 
O3 O2- 4 e 0.1166(7) 0.2868(8) 0.6040(11) 1. 0 0.0146(16) 
O4 O2- 4 e 0.3641(7) 0.8338(8) 0.1106(10) 1. 0 0.0103(14) 
O5 O2- 4 e 0.6254(7) 0.0059(8) 0.3752(11) 1. 0 0.0152(16) 
O6 O2- 4 e 0.6135(7) 0.6983(8) 0.4683(12) 1. 0 0.0149(16) 

#End of data_169478-ICSD


