data_185597-ICSD
#?2014 by Fachinformationszentrum Karlsruhe, and the U.S. Secretary of 
#Commerce on behalf of the United States.  All rights reserved.
_database_code_ICSD                185597
_audit_creation_date               2013/02/01
_chemical_name_systematic          'Dicopper Zinc Tin Tetrasulfide'
_chemical_formula_structural       'Cu2 Zn Sn S4'
_chemical_formula_sum              'Cu2 S4 Sn1 Zn1'
_publ_section_title
;
Phase selective synthesis of metastable orthorhombic Cu2 Zn Sn S4
;
loop_
_citation_id
_citation_journal_abbrev
_citation_year
_citation_journal_volume
_citation_journal_issue
_citation_page_first
_citation_page_last
_citation_journal_id_ASTM
primary 'Journal of Materials Chemistry' 2012 22 15 7502 7506 JMACEP
_publ_author_name
;
Jiang Hechun;Dai Pengcheng;Feng Zhenyu;Fan Weiliu;Zhan Jinhua
;
_cell_length_a                     7.5385
_cell_length_b                     6.4304
_cell_length_c                     6.2038
_cell_angle_alpha                  90.
_cell_angle_beta                   90.
_cell_angle_gamma                  90.
_cell_volume                       300.73
_cell_formula_units_Z              2
_symmetry_space_group_name_H-M     'P m n 21'
_symmetry_Int_Tables_number        31
loop_
_symmetry_equiv_pos_site_id
_symmetry_equiv_pos_as_xyz
  1	'x+.5, -y, z+.5'
  2	'-x+.5, -y, z+.5'
  3	'-x, y, z'
  4	'x, y, z'
loop_
_atom_type_symbol
_atom_type_oxidation_number
Cu1+	1
S2-	-2
Sn4+	4
Zn2+	2
loop_
_atom_site_label
_atom_site_type_symbol
_atom_site_symmetry_multiplicity
_atom_site_Wyckoff_symbol
_atom_site_fract_x
_atom_site_fract_y
_atom_site_fract_z
_atom_site_occupancy
_atom_site_attached_hydrogens
Cu1 Cu1+ 4 b 0.2504 0.3270 0 1. 0 
Zn1 Zn2+ 2 a 0 0.8411 0.9971 1. 0 
Sn1 Sn4+ 2 a 0 0.1786 0.4982 1. 0 
S1 S2- 4 b 0.2335 0.3420 0.3688 1. 0 
S2 S2- 2 a 0 0.2068 0.864 1. 0 
S3 S2- 2 a 0 0.8480 0.398 1. 0 

#End of data_185597-ICSD


