data_24109-ICSD
#?2014 by Fachinformationszentrum Karlsruhe, and the U.S. Secretary of 
#Commerce on behalf of the United States.  All rights reserved.
_database_code_ICSD                24109
_audit_creation_date               1980/01/01
_audit_update_record               2011/02/01
_chemical_name_systematic
;
Sodium Pentadecaoxofluorohexaniobate
;
_chemical_formula_structural       'Na (Nb6 O15 F)'
_chemical_formula_sum              'F1 Na1 Nb6 O15'
_publ_section_title
;
The crystal structure of Na Nb6 O15 F and Na Nb6 O15 (O H)
;
loop_
_citation_id
_citation_journal_abbrev
_citation_year
_citation_journal_volume
_citation_page_first
_citation_page_last
_citation_journal_id_ASTM
primary 'Acta Chemica Scandinavica (1-27,1973-42,1988)' 1965 19 2285 2290 ACSAA4
_publ_author_name                  'Anderson, S.'
_cell_length_a                     3.949
_cell_length_b                     10.192
_cell_length_c                     14.721
_cell_angle_alpha                  90.
_cell_angle_beta                   90.
_cell_angle_gamma                  90.
_cell_volume                       592.49
_cell_formula_units_Z              2
_symmetry_space_group_name_H-M     'A m m 2'
_symmetry_Int_Tables_number        38
_refine_ls_R_factor_all            .058
loop_
_symmetry_equiv_pos_site_id
_symmetry_equiv_pos_as_xyz
  1	'x, -y, z'
  2	'-x, y, z'
  3	'-x, -y, z'
  4	'x, y, z'
  5	'x, -y+.5, z+.5'
  6	'-x, y+.5, z+.5'
  7	'-x, -y+.5, z+.5'
  8	'x, y+.5, z+.5'
loop_
_atom_type_symbol
_atom_type_oxidation_number
F1-	-1
Na1+	1
Nb5+	5
O2-	-2
loop_
_atom_site_label
_atom_site_type_symbol
_atom_site_symmetry_multiplicity
_atom_site_Wyckoff_symbol
_atom_site_fract_x
_atom_site_fract_y
_atom_site_fract_z
_atom_site_occupancy
_atom_site_attached_hydrogens
_atom_site_B_iso_or_equiv
Na1 Na1+ 2 b 0.5 0 0.404(4) 1. 0 3.9 
Nb1 Nb5+ 2 a 0 0 0 1. 0 0.1 
Nb2 Nb5+ 2 a 0 0 0.2142(5) 1. 0 0.6 
Nb3 Nb5+ 4 d 0 0.3186(5) 0.0620(4) 1. 0 0.6 
Nb4 Nb5+ 4 d 0 0.3153(5) 0.3154(3) 1. 0 0.4 
O1 O2- 2 b 0.5 0 0.226(4) 1. 0 0.7 
O2 O2- 4 e 0.5 0.324(4) 0.050(2) 1. 0 -.2 
O3 O2- 4 e 0.5 0.323(3) 0.307(2) 1. 0 -.2 
O4 O2- 4 d 0 0.119(3) 0.105(3) 1. 0 -.1 
O5 O2- 4 d 0 0.133(3) 0.311(2) 1. 0 -.1 
O6 O2- 4 d 0 0.305(3) 0.447(2) 1. 0 -.9 
O7 O2- 4 d 0 0.351(3) 0.187(2) 1. 0 -.7 
O8 O2- 2 a 0 0.5 0.356(2) 1. 0 1.8 
O9 O2- 2 a 0 0 0.519(2) 1. 0 -1.4 
F1 F1- 2 b 0.5 0 0 1. 0 1.4 

#End of data_24109-ICSD


