data_380360-ICSD
#?2014 by Fachinformationszentrum Karlsruhe, and the U.S. Secretary of 
#Commerce on behalf of the United States.  All rights reserved.
_database_code_ICSD                380360
_audit_creation_date               2012/08/01
_chemical_name_systematic
;
Lithium Tristrontium Tantalum Hexaoxide
;
_chemical_formula_structural       'Li Sr3 Ta O6'
_chemical_formula_sum              'Li1 O6 Sr3 Ta1'
_publ_section_title
;
Crystal growth and structures of new niobium and tantalum oxides : 
Sr3 Li Nb O6 and Sr3 Li Ta O6
;
loop_
_citation_id
_citation_journal_abbrev
_citation_year
_citation_journal_volume
_citation_page_first
_citation_page_last
_citation_journal_id_ASTM
primary 'Journal of Chemical Crystallography' 2011 41 1195 1197 JCCYEV
_publ_author_name
;
Zhu, Tian Xiang;Chang, Hong Young;Halasyamani, P.S.
;
_cell_length_a                     9.8111(11)
_cell_length_b                     9.8111(11)
_cell_length_c                     11.2056(12)
_cell_angle_alpha                  90.
_cell_angle_beta                   90.
_cell_angle_gamma                  120.
_cell_volume                       934.12
_cell_formula_units_Z              6
_symmetry_space_group_name_H-M     'R -3 c H'
_symmetry_Int_Tables_number        167
_refine_ls_R_factor_all            .0263
loop_
_symmetry_equiv_pos_site_id
_symmetry_equiv_pos_as_xyz
  1	'x-y, -y, -z+.5'
  2	'-x, -x+y, -z+.5'
  3	'y, x, -z+.5'
  4	'x-y, x, -z'
  5	'y, -x+y, -z'
  6	'-x, -y, -z'
  7	'-x+y, y, z+.5'
  8	'x, x-y, z+.5'
  9	'-y, -x, z+.5'
 10	'-x+y, -x, z'
 11	'-y, x-y, z'
 12	'x, y, z'
 13	'x-y+.6666, -y+.3333, -z+.8333'
 14	'x-y+.3333, -y+.6666, -z+.1666'
 15	'-x+.6666, -x+y+.3333, -z+.8333'
 16	'-x+.3333, -x+y+.6666, -z+.1666'
 17	'y+.6666, x+.3333, -z+.8333'
 18	'y+.3333, x+.6666, -z+.1666'
 19	'x-y+.6666, x+.3333, -z+.3333'
 20	'x-y+.3333, x+.6666, -z+.6666'
 21	'y+.6666, -x+y+.3333, -z+.3333'
 22	'y+.3333, -x+y+.6666, -z+.6666'
 23	'-x+.6666, -y+.3333, -z+.3333'
 24	'-x+.3333, -y+.6666, -z+.6666'
 25	'-x+y+.6666, y+.3333, z+.8333'
 26	'-x+y+.3333, y+.6666, z+.1666'
 27	'x+.6666, x-y+.3333, z+.8333'
 28	'x+.3333, x-y+.6666, z+.1666'
 29	'-y+.6666, -x+.3333, z+.8333'
 30	'-y+.3333, -x+.6666, z+.1666'
 31	'-x+y+.6666, -x+.3333, z+.3333'
 32	'-x+y+.3333, -x+.6666, z+.6666'
 33	'-y+.6666, x-y+.3333, z+.3333'
 34	'-y+.3333, x-y+.6666, z+.6666'
 35	'x+.6666, y+.3333, z+.3333'
 36	'x+.3333, y+.6666, z+.6666'
loop_
_atom_type_symbol
_atom_type_oxidation_number
Li1+	1
O2-	-2
Sr2+	2
Ta5+	5
loop_
_atom_site_label
_atom_site_type_symbol
_atom_site_symmetry_multiplicity
_atom_site_Wyckoff_symbol
_atom_site_fract_x
_atom_site_fract_y
_atom_site_fract_z
_atom_site_occupancy
_atom_site_attached_hydrogens
_atom_site_U_iso_or_equiv
Ta1 Ta5+ 6 b 0 0 0 1 0 0.0025(4) 
Sr1 Sr2+ 18 e 0.31526(10) -0.01808(10) 0.0833 1 0 0.0038(4) 
O1 O2- 36 f 0.1755(7) 0.1517(7) 0.1034(5) 1 0 0.0087(12) 
Li1 Li1+ 6 a 0 0 0.25 1 0 0.023(10) 

loop_
_atom_site_aniso_label
_atom_site_aniso_type_symbol
_atom_site_aniso_U_11
_atom_site_aniso_U_22
_atom_site_aniso_U_33
_atom_site_aniso_U_12
_atom_site_aniso_U_13
_atom_site_aniso_U_23
Ta1 Ta5+ 0.0018(4) 0.0018(4) 0.0038(5) 0.0009(2) 0 0
Sr1 Sr2+ 0.0038(5) 0.0038(5) 0.0043(7) 0.0023(4) -0.00053(17) 0.00053(17)
O1 O2- 0.008(3) 0.005(3) 0.010(3) 0.001(2) -0.002(3) 0.000(2)
Li1 Li1+ 0.026(15) 0.026(15) 0.02(2) 0.013(8) 0 0
#End of data_380360-ICSD


