data_262215-ICSD
#?2014 by Fachinformationszentrum Karlsruhe, and the U.S. Secretary of 
#Commerce on behalf of the United States.  All rights reserved.
_database_code_ICSD                262215
_audit_creation_date               2012/02/01
_audit_update_record               2013/08/01
_chemical_name_systematic          'Dibarium Zinc Trisulfide'
_chemical_formula_structural       'Ba2 Zn S3'
_chemical_formula_sum              'Ba2 S3 Zn1'
_publ_section_title
;
Using high pressure to prepare polymorphs of the Ba2 Co(1-x) Zn(x) S3 
(0 <= x <= 1.0) Compounds
;
loop_
_citation_id
_citation_journal_abbrev
_citation_year
_citation_journal_volume
_citation_journal_issue
_citation_page_first
_citation_page_last
_citation_journal_id_ASTM
primary 'Inorganic Chemistry' 2012 51 1 397 404 INOCAJ
_publ_author_name
;
Mezzadri, F.;Gilioli, E.;Calestani, G.;Migliori, A.;Harrison, 
M.R.;Headspith, D.A.;Francesconi, M.G.
;
_cell_length_a                     8.785(3)
_cell_length_b                     17.013(8)
_cell_length_c                     4.2490(10)
_cell_angle_alpha                  90.00
_cell_angle_beta                   90.00
_cell_angle_gamma                  90.00
_cell_volume                       635.05
_cell_formula_units_Z              4
_symmetry_space_group_name_H-M     'P n a m'
_symmetry_Int_Tables_number        62
_refine_ls_R_factor_all            .0369
loop_
_symmetry_equiv_pos_site_id
_symmetry_equiv_pos_as_xyz
  1	'x+.5, -y+.5, z'
  2	'x, y, -z+.5'
  3	'-x+.5, y+.5, z+.5'
  4	'-x, -y, -z'
  5	'-x+.5, y+.5, -z'
  6	'-x, -y, z+.5'
  7	'x+.5, -y+.5, -z+.5'
  8	'x, y, z'
loop_
_atom_type_symbol
_atom_type_oxidation_number
Ba2+	2
S2-	-2
Zn2+	2
loop_
_atom_site_label
_atom_site_type_symbol
_atom_site_symmetry_multiplicity
_atom_site_Wyckoff_symbol
_atom_site_fract_x
_atom_site_fract_y
_atom_site_fract_z
_atom_site_occupancy
_atom_site_attached_hydrogens
_atom_site_U_iso_or_equiv
Ba1 Ba2+ 4 c 0.25397(9) 0.45577(4) -0.2500 1 0 0.00516(16) 
Ba2 Ba2+ 4 c 0.08047(8) 0.21326(4) 0.2500 1 0 0.00546(17) 
Zn1 Zn2+ 4 c -0.13432(15) 0.36559(9) -0.2500 1 0 0.0052(3) 
S1 S2- 4 c -0.1809(3) 0.22873(17) -0.2500 1 0 0.0046(6) 
S2 S2- 4 c -0.3722(3) 0.42805(18) -0.2500 1 0 0.0047(6) 
S3 S2- 4 c -0.0057(3) 0.39841(18) -0.7500 1 0 0.0044(6) 

loop_
_atom_site_aniso_label
_atom_site_aniso_type_symbol
_atom_site_aniso_U_11
_atom_site_aniso_U_22
_atom_site_aniso_U_33
_atom_site_aniso_U_12
_atom_site_aniso_U_13
_atom_site_aniso_U_23
Ba1 Ba2+ 0.0054(3) 0.0045(3) 0.0055(4) -0.0007(3) 0.000 0.000
Ba2 Ba2+ 0.0041(3) 0.0067(4) 0.0055(4) -0.0001(3) 0.000 0.000
Zn1 Zn2+ 0.0025(6) 0.0042(7) 0.0090(8) -0.0006(6) 0.000 0.000
S1 S2- 0.0021(12) 0.0036(16) 0.0082(16) -0.0001(12) 0.000 0.000
S2 S2- 0.0023(14) 0.0033(14) 0.0084(16) -0.0011(11) 0.000 0.000
S3 S2- 0.0049(13) 0.0042(15) 0.0042(16) 0.0002(12) 0.000 0.000
#End of data_262215-ICSD


