data_416295-ICSD
#?2014 by Fachinformationszentrum Karlsruhe, and the U.S. Secretary of 
#Commerce on behalf of the United States.  All rights reserved.
_database_code_ICSD                416295
_audit_creation_date               2007/08/01
_chemical_name_systematic
;
Tripotassium Gadolinium(III) Hexafluoride
;
_chemical_formula_structural       'K3 Gd F6'
_chemical_formula_sum              'F6 Gd1 K3'
_publ_section_title
;
Crystal structure and vibrational properties of new luminescent hosts 
K3 Y F6 and K3 Gd f6
;
loop_
_citation_id
_citation_journal_abbrev
_citation_year
_citation_journal_volume
_citation_journal_issue
_citation_page_first
_citation_page_last
_citation_journal_id_ASTM
primary 'Journal of Solid State Chemistry' 2006 179 10 3145 3150 JSSCBI
_publ_author_name
;
Gusowski, M.A.;Gagor, A.;Trzebiatowska-Gusowska, M.;Ryba-Romanowski, 
W.
;
_cell_length_a                     6.3759(13)
_cell_length_b                     6.5922(13)
_cell_length_c                     9.1200(18)
_cell_angle_alpha                  90.00
_cell_angle_beta                   90.80(3)
_cell_angle_gamma                  90.00
_cell_volume                       383.29
_cell_formula_units_Z              2
_symmetry_space_group_name_H-M     'P 1 21/n 1'
_symmetry_Int_Tables_number        14
_refine_ls_R_factor_all            .0507
loop_
_symmetry_equiv_pos_site_id
_symmetry_equiv_pos_as_xyz
  1	'-x+.5, y+.5, -z+.5'
  2	'-x, -y, -z'
  3	'x+.5, -y+.5, z+.5'
  4	'x, y, z'
loop_
_atom_type_symbol
_atom_type_oxidation_number
F1-	-1
Gd3+	3
K1+	1
loop_
_atom_site_label
_atom_site_type_symbol
_atom_site_symmetry_multiplicity
_atom_site_Wyckoff_symbol
_atom_site_fract_x
_atom_site_fract_y
_atom_site_fract_z
_atom_site_occupancy
_atom_site_attached_hydrogens
_atom_site_U_iso_or_equiv
Gd1 Gd3+ 2 a 0.0000 0.0000 0.0000 1 0 0.01640(15) 
K1 K1+ 2 b 0.5000 0.5000 0.0000 1 0 0.0217(3) 
K2 K1+ 4 e 0.0127(2) 0.5494(2) -0.25466(16) 1 0 0.0328(3) 
F1 F1- 4 e 0.2148(5) 0.3241(5) 0.5485(4) 1 0 0.0451(10) 
F2 F1- 4 e 0.3316(5) 0.7765(5) 0.5702(4) 1 0 0.0449(10) 
F3 F1- 4 e 0.3861(5) 0.5609(5) 0.2738(4) 1 0 0.0364(8) 

loop_
_atom_site_aniso_label
_atom_site_aniso_type_symbol
_atom_site_aniso_U_11
_atom_site_aniso_U_22
_atom_site_aniso_U_33
_atom_site_aniso_U_12
_atom_site_aniso_U_13
_atom_site_aniso_U_23
Gd1 Gd3+ 0.0162(2) 0.0144(2) 0.0185(2) 0.00043(15) 0.00105(13) 0.00010(17)
K1 K1+ 0.0212(7) 0.0195(7) 0.0245(8) 0.0019(7) -0.0005(6) -0.0025(8)
K2 K1+ 0.0312(7) 0.0284(7) 0.0389(8) 0.0048(5) 0.0006(6) -0.0006(5)
F1 F1- 0.038(2) 0.037(2) 0.061(3) -0.0175(16) 0.0183(18) -0.0127(18)
F2 F1- 0.0349(19) 0.033(2) 0.066(3) 0.0104(15) -0.0094(18) -0.0193(18)
F3 F1- 0.042(2) 0.043(2) 0.0233(18) -0.0058(15) -0.0044(16) 0.0028(15)
#End of data_416295-ICSD


