data_173119-ICSD
#?2014 by Fachinformationszentrum Karlsruhe, and the U.S. Secretary of 
#Commerce on behalf of the United States.  All rights reserved.
_database_code_ICSD                173119
_audit_creation_date               2008/08/01
_chemical_name_systematic          'Distrontium Magnesium Molybdate'
_chemical_formula_structural       'Sr2 Mg Mo O6'
_chemical_formula_sum              'Mg1 Mo1 O6 Sr2'
_chemical_name_mineral             Perovskite
_publ_section_title
;
Sr2 Mg Mo O(6-delta): Structure, phase stability, and cation site 
order control of reduction
;
loop_
_citation_id
_citation_journal_abbrev
_citation_year
_citation_journal_volume
_citation_journal_issue
_citation_page_first
_citation_page_last
_citation_journal_id_ASTM
primary 'Chemistry of Materials' 2007 19 5 1035 1043 CMATEX
_publ_author_name
;
Bernuy-Lopez, C.;Allix, M.;Bridges, C.A.;Claridge, J.B.;Rosseinsky, 
M.J.
;
_cell_length_a                     5.566661(21)
_cell_length_b                     5.566118(21)
_cell_length_c                     7.919158(17)
_cell_angle_alpha                  89.9907(19)
_cell_angle_beta                   89.9723(9)
_cell_angle_gamma                  89.9962(18)
_cell_volume                       245.37
_cell_formula_units_Z              2
_symmetry_space_group_name_H-M     'I -1'
_symmetry_Int_Tables_number        2
loop_
_symmetry_equiv_pos_site_id
_symmetry_equiv_pos_as_xyz
  1	'-x, -y, -z'
  2	'x, y, z'
  3	'-x+.5, -y+.5, -z+.5'
  4	'x+.5, y+.5, z+.5'
loop_
_atom_type_symbol
_atom_type_oxidation_number
Mg2+	2
Mo6+	6
O2-	-2
Sr2+	2
loop_
_atom_site_label
_atom_site_type_symbol
_atom_site_symmetry_multiplicity
_atom_site_Wyckoff_symbol
_atom_site_fract_x
_atom_site_fract_y
_atom_site_fract_z
_atom_site_occupancy
_atom_site_attached_hydrogens
_atom_site_U_iso_or_equiv
Sr1 Sr2+ 4 i 0.5019(5) -0.0009(8) 0.2486(5) 1.0 0 0.01451(9) 
Mo1 Mo6+ 2 a 0.0 0.0 0.0 1.0 0 0.00569(19) 
Mg1 Mg2+ 2 e 0.5 0.5 0.0 1.0 0 0.01622(29) 
O1 O2- 4 i -0.0119(4) 0.0065(8) 0.24483(22) 1.0 0 0.01684(6) 
O2 O2- 4 i 0.27325(31) 0.21434(26) -0.0045(5) 1.0 0 0.01684(6) 
O3 O2- 4 i -0.22366(29) 0.26651(32) 0.00777(29) 1.0 0 0.01684(6) 

#End of data_173119-ICSD


