data_281506-ICSD
#?2014 by Fachinformationszentrum Karlsruhe, and the U.S. Secretary of 
#Commerce on behalf of the United States.  All rights reserved.
_database_code_ICSD                281506
_audit_creation_date               2004/04/01
_audit_update_record               2014/08/01
_chemical_name_systematic
;
Dipotassium Octathiotrimercurodigermanate - Beta
;
_chemical_formula_structural       'K2 (Hg3 Ge2 S8)'
_chemical_formula_sum              'Ge2 Hg3 K2 S8'
_publ_section_title
;
Alpha- and beta-(A2 Hg3 M2 S8) (A= K, Rb; M= Ge, Sn): polar  
quaternary chalcogenides with strong nonlinear optical response
;
loop_
_citation_id
_citation_journal_abbrev
_citation_year
_citation_journal_volume
_citation_page_first
_citation_page_last
_citation_journal_id_ASTM
primary 'Journal of the American Chemical Society' 2003 125 9484 9493 JACSAT
_publ_author_name
;
Liao, J.-H.;Marking, G.M.;Hsu, K.-F.;Matsushita, Y.;Ewbank, 
M.D.;Borwick, R.;Cunningham, P.;Rosker, M.J.;Kanatzidis, M.G.
;
_cell_length_a                     9.5948(7)
_cell_length_b                     8.3608(6)
_cell_length_c                     9.6638(7)
_cell_angle_alpha                  90.
_cell_angle_beta                   94.637(1)
_cell_angle_gamma                  90.
_cell_volume                       772.69
_cell_formula_units_Z              2
_symmetry_space_group_name_H-M     'C 1 2 1'
_symmetry_Int_Tables_number        5
_refine_ls_R_factor_all            .042
loop_
_symmetry_equiv_pos_site_id
_symmetry_equiv_pos_as_xyz
  1	'-x, y, -z'
  2	'x, y, z'
  3	'-x+.5, y+.5, -z'
  4	'x+.5, y+.5, z'
loop_
_atom_type_symbol
_atom_type_oxidation_number
Ge4+	4
Hg2+	2
K1+	1
S2-	-2
loop_
_atom_site_label
_atom_site_type_symbol
_atom_site_symmetry_multiplicity
_atom_site_Wyckoff_symbol
_atom_site_fract_x
_atom_site_fract_y
_atom_site_fract_z
_atom_site_occupancy
_atom_site_attached_hydrogens
_atom_site_U_iso_or_equiv
Hg1 Hg2+ 2 b 0 0.63938(10) 0.5 1. 0 0.0316(2) 
Hg2 Hg2+ 2 b 0 0.15704(10) 0.5 1. 0 0.0319(2) 
Hg3 Hg2+ 2 a 0 0.47977(10) 0 1. 0 0.0250(2) 
Ge1 Ge4+ 4 c 0.76577(13) 0.33731(15) 0.72997(13) 1. 0 0.0156(3) 
S1 S2- 4 c 0.2483(3) 0.9777(4) 0.5402(4) 1. 0 0.0223(6) 
S2 S2- 4 c 0.7623(3) 0.4857(5) 0.9223(3) 1. 0 0.0231(6) 
S3 S2- 4 c 0.5785(3) 0.1821(4) 0.7409(3) 1. 0 0.0214(6) 
S4 S2- 4 c 0.4634(4) 0.6988(4) 0.7445(4) 1. 0 0.0218(6) 
K1 K1+ 4 c 0.7843(4) 0.8483(4) 0.7714(4) 1. 0 0.0322(7) 

loop_
_atom_site_aniso_label
_atom_site_aniso_type_symbol
_atom_site_aniso_U_11
_atom_site_aniso_U_22
_atom_site_aniso_U_33
_atom_site_aniso_U_12
_atom_site_aniso_U_13
_atom_site_aniso_U_23
Hg1 Hg2+ 0.0305(4) 0.0427(4) 0.0203(3) 0 -0.0070(3) 0
Hg2 Hg2+ 0.0303(4) 0.0415(4) 0.0246(4) 0 0.0066(3) 0
Hg3 Hg2+ 0.0197(3) 0.0314(3) 0.0228(3) 0 -0.0051(2) 0
Ge1 Ge4+ 0.0141(6) 0.0174(6) 0.0148(6) -0.0002(4) -0.0010(4) 0.0001(4)
S1 S2- 0.0180(13) 0.0263(14) 0.0224(14) -0.0012(12) 0.0002(9) 0.0068(14)
S2 S2- 0.0212(13) 0.0296(14) 0.0177(13) 0.0031(12) -0.0027(10) -0.0045(13)
S3 S2- 0.0195(14) 0.0257(15) 0.0188(14) -0.0066(12) 0.0003(10) 0.0017(11)
S4 S2- 0.0156(14) 0.0250(13) 0.0242(16) 0.0031(12) -0.0022(11) -0.0012(12)
K1 K1+ 0.0304(15) 0.0321(15) 0.0345(16) 0.0049(12) 0.0056(12) 0.0020(13)
#End of data_281506-ICSD


