data_201040-ICSD
#?2014 by Fachinformationszentrum Karlsruhe, and the U.S. Secretary of 
#Commerce on behalf of the United States.  All rights reserved.
_database_code_ICSD                201040
_audit_creation_date               1981/12/31
_chemical_name_systematic
;
Lithium Thallium Hydrogenphosphate(III)
;
_chemical_formula_structural       'Li Tl P O3 H'
_chemical_formula_sum              'H1 Li1 O3 P1 Tl1'
_publ_section_title
;
Sur quelques phosphites doubles de cations monovalents de la serie Li 
M P O3 H, (H2 O)x. Etude structurale de Li Tl P O3 H
;
loop_
_citation_id
_citation_journal_abbrev
_citation_year
_citation_journal_volume
_citation_page_first
_citation_page_last
_citation_journal_id_ASTM
primary 'Revue de Chimie Minerale' 1981 18 1 18 RVCMA8
_publ_author_name                  'Rafiq, M.;Durand, J.;Cot, L.'
_cell_length_a                     14.284(2)
_cell_length_b                     5.091(1)
_cell_length_c                     5.329(1)
_cell_angle_alpha                  90.
_cell_angle_beta                   89.19(1)
_cell_angle_gamma                  90.
_cell_volume                       387.49
_cell_formula_units_Z              4
_symmetry_space_group_name_H-M     'C 1 2 1'
_symmetry_Int_Tables_number        5
_refine_ls_R_factor_all            .028
loop_
_symmetry_equiv_pos_site_id
_symmetry_equiv_pos_as_xyz
  1	'-x, y, -z'
  2	'x, y, z'
  3	'-x+.5, y+.5, -z'
  4	'x+.5, y+.5, z'
loop_
_atom_type_symbol
_atom_type_oxidation_number
H1+	1
Li1+	1
O2-	-2
P3+	3
Tl1+	1
loop_
_atom_site_label
_atom_site_type_symbol
_atom_site_symmetry_multiplicity
_atom_site_Wyckoff_symbol
_atom_site_fract_x
_atom_site_fract_y
_atom_site_fract_z
_atom_site_occupancy
_atom_site_attached_hydrogens
Tl1 Tl1+ 4 c 0.09144(9) 0 0.2501(2) 1. 0 
P1 P3+ 4 c 0.3582(5) 0.041(2) 0.302(1) 1. 0 
O1 O2- 4 c 0.284(1) -.086(4) 0.138(4) 1. 0 
O2 O2- 4 c 0.353(2) -.007(8) 0.577(3) 1. 0 
O3 O2- 4 c 0.359(2) 0.329(4) 0.278(4) 1. 0 
Li1 Li1+ 4 c 0.754(4) 0.049(10) 0.191(10) 1. 0 
H1 H1+ 4 c 0.452 0.024 0.248 1. 0 

#End of data_201040-ICSD


