data_172776-ICSD
#?2014 by Fachinformationszentrum Karlsruhe, and the U.S. Secretary of 
#Commerce on behalf of the United States.  All rights reserved.
_database_code_ICSD                172776
_audit_creation_date               2007/08/01
_chemical_name_systematic          'Dieuropium Barium Zinc Pentaoxide'
_chemical_formula_structural       'Eu2 Ba Zn O5'
_chemical_formula_sum              'Ba1 Eu2 O5 Zn1'
_publ_section_title
;
Crystal chemistry study of the solid solutions in the system La2 Ba 
Zn O5-Eu2 Ba Zn O5
;
loop_
_citation_id
_citation_journal_abbrev
_citation_year
_citation_journal_volume
_citation_journal_issue
_citation_page_first
_citation_page_last
_citation_journal_id_ASTM
primary 'Zeitschrift fuer Kristallographie (1979-2010)' 2006 221 4 246 251 ZEKRDZ
_publ_author_name
;
Hernandez-Perez, A.;Bucio, L.;Ibarra-Palos, A.;Villafuerte Castrejon, 
M.E.
;
_cell_length_a                     7.17634(8)
_cell_length_b                     12.5317(1)
_cell_length_c                     5.78936(7)
_cell_angle_alpha                  90.
_cell_angle_beta                   90.
_cell_angle_gamma                  90.
_cell_volume                       520.65
_cell_formula_units_Z              4
_symmetry_space_group_name_H-M     'P b n m'
_symmetry_Int_Tables_number        62
_refine_ls_R_factor_all            .109
loop_
_symmetry_equiv_pos_site_id
_symmetry_equiv_pos_as_xyz
  1	'-x+.5, y+.5, z'
  2	'x, y, -z+.5'
  3	'x+.5, -y+.5, z+.5'
  4	'-x, -y, -z'
  5	'x+.5, -y+.5, -z'
  6	'-x, -y, z+.5'
  7	'-x+.5, y+.5, -z+.5'
  8	'x, y, z'
loop_
_atom_type_symbol
_atom_type_oxidation_number
Ba2+	2
Eu3+	3
O2-	-2
Zn2+	2
loop_
_atom_site_label
_atom_site_type_symbol
_atom_site_symmetry_multiplicity
_atom_site_Wyckoff_symbol
_atom_site_fract_x
_atom_site_fract_y
_atom_site_fract_z
_atom_site_occupancy
_atom_site_attached_hydrogens
_atom_site_B_iso_or_equiv
Eu1 Eu3+ 4 c 0.1182(3) 0.2928(1) 0.25 1. 0 .28(2) 
Eu2 Eu3+ 4 c 0.3974(2) 0.0739(1) 0.25 1. 0 .28(2) 
Ba1 Ba2+ 4 c 0.9251(2) 0.9001(1) 0.25 1. 0 1.04(3) 
Zn1 Zn2+ 4 c 0.6906(5) 0.6466(3) 0.25 1. 0 .9(1) 
O1 O2- 8 d 0.166(1) 0.432(1) 0.013(2) 1. 0 .4(2) 
O2 O2- 8 d 0.376(2) 0.2229(9) 0.511(2) 1. 0 .4(2) 
O3 O2- 4 c 0.077(2) 0.112(1) 0.25 1. 0 .4(2) 

#End of data_172776-ICSD


