data_96096-ICSD
#?2014 by Fachinformationszentrum Karlsruhe, and the U.S. Secretary of 
#Commerce on behalf of the United States.  All rights reserved.
_database_code_ICSD                96096
_audit_creation_date               2004/04/01
_audit_update_record               2012/02/01
_chemical_name_systematic
;
Sodium Indium Hydroxooctaoxoborodiphosphate(V)
;
_chemical_formula_structural       'Na In (B P2 O8 (O H))'
_chemical_formula_sum              'H1 B1 In1 Na1 O9 P2'
_publ_section_title
;
Synthesis and crystal structure of the new borophosphate Na In (B P2 
O8 (O H))
;
loop_
_citation_id
_citation_journal_abbrev
_citation_year
_citation_journal_volume
_citation_journal_issue
_citation_page_first
_citation_page_last
_citation_journal_id_ASTM
primary 'Zhurnal Neorganicheskoi Khimii' 2002 47 1 10 13 ZNOKAQ
_publ_author_name
;
Gurbanova, O.A.;Belokoneva, E.L.;Dimitrova, O.V.
;
_cell_length_a                     5.182(3)
_cell_length_b                     7.696(5)
_cell_length_c                     16.85(1)
_cell_angle_alpha                  90
_cell_angle_beta                   90
_cell_angle_gamma                  94.07(5)
_cell_volume                       670.29
_cell_formula_units_Z              4
_symmetry_space_group_name_H-M     'P 1 1 21/n'
_symmetry_Int_Tables_number        14
_refine_ls_R_factor_all            .0311
loop_
_symmetry_equiv_pos_site_id
_symmetry_equiv_pos_as_xyz
  1	'x+.5, y+.5, -z+.5'
  2	'-x, -y, -z'
  3	'-x+.5, -y+.5, z+.5'
  4	'x, y, z'
loop_
_atom_type_symbol
_atom_type_oxidation_number
B3+	3
H1+	1
In3+	3
Na1+	1
O2-	-2
P5+	5
loop_
_atom_site_label
_atom_site_type_symbol
_atom_site_symmetry_multiplicity
_atom_site_Wyckoff_symbol
_atom_site_fract_x
_atom_site_fract_y
_atom_site_fract_z
_atom_site_occupancy
_atom_site_attached_hydrogens
_atom_site_B_iso_or_equiv
Na1 Na1+ 4 e 0.6456(4) 0.1663(3) 0.3401(2) 1. 0 1.72(5) 
In1 In3+ 4 e 0.18197(6) 0.20115(4) 0.15950(2) 1. 0 0.492(4) 
P1 P5+ 4 e 0.3432(2) 0.0769(1) 0.83066(6) 1. 0 0.44(2) 
P2 P5+ 4 e 0.8235(2) 0.0677(1) 0.58650(6) 1. 0 0.47(2) 
B1 B3+ 4 e 0.3912(9) 0.2435(6) 0.9756(3) 1. 0 0.53(7) 
O1 O2- 4 e 0.0541(6) 0.0354(4) 0.8423(2) 1. 0 0.89(5) 
O2 O2- 4 e 0.0754(6) 0.0693(4) 0.6333(2) 1. 0 0.79(6) 
O3 O2- 4 e 0.3901(6) 0.2380(4) 0.7784(2) 1. 0 0.84(6) 
O4 O2- 4 e 0.2612(6) 0.1203(4) 0.4429(2) 1. 0 0.66(5) 
O5 O2- 4 e 0.2276(6) 0.1415(4) 0.0323(2) 1.000 0 0.79(6) 
O6 O2- 4 e 0.8643(6) 0.1865(4) 0.5116(2) 1. 0 0.82(6) 
O7 O2- 4 e 0.4772(6) 0.1273(4) 0.9124(2) 1. 0 0.72(5) 
O8 O2- 4 e 0.5198(6) 0.0793(4) 0.1992(2) 1. 0 0.78(5) 
O9 O2- 4 e 0.5984(6) 0.1220(4) 0.6334(2) 1. 0 0.86(6) 
H1 H1+ 4 e 0.195(7) 0.049(6) 0.039(3) 1. 0 0.90(1) 

#End of data_96096-ICSD


