data_409722-ICSD
#?2014 by Fachinformationszentrum Karlsruhe, and the U.S. Secretary of 
#Commerce on behalf of the United States.  All rights reserved.
_database_code_ICSD                409722
_audit_creation_date               2004/04/01
_chemical_name_systematic
;
Dirubidium Hexaaquazinc Bis(selenate(VI))
;
_chemical_formula_structural       'Rb2 (Zn (H2 O)6) (Se O4)2'
_chemical_formula_sum              'H12 O14 Rb2 Se2 Zn1'
_publ_section_title
;
Crystal structure of Tutton's salts, Rb2 (M(II) (H2 O)6) (Se O4)2, 
M(II) = Mg, Co, Mn, Zn
;
loop_
_citation_id
_citation_journal_abbrev
_citation_year
_citation_journal_volume
_citation_page_first
_citation_page_last
_citation_journal_id_ASTM
primary 'Zeitschrift fuer Kristallographie - New Crystal Structures'
 2003 218 265 268 ZKNSFT
_publ_author_name
;
Euler, H.;Barbier, B.;Meents, A.;Kirfel, A.
;
_cell_length_a                     9.3523(14)
_cell_length_b                     12.6259(16)
_cell_length_c                     6.3600(11)
_cell_angle_alpha                  90.
_cell_angle_beta                   105.195(12)
_cell_angle_gamma                  90.
_cell_volume                       724.74
_cell_formula_units_Z              2
_symmetry_space_group_name_H-M     'P 1 21/a 1'
_symmetry_Int_Tables_number        14
_refine_ls_R_factor_all            .024
loop_
_symmetry_equiv_pos_site_id
_symmetry_equiv_pos_as_xyz
  1	'x+.5, -y+.5, z'
  2	'-x, -y, -z'
  3	'-x+.5, y+.5, -z'
  4	'x, y, z'
loop_
_atom_type_symbol
_atom_type_oxidation_number
H1+	1
O2-	-2
Rb1+	1
Se6+	6
Zn2+	2
loop_
_atom_site_label
_atom_site_type_symbol
_atom_site_symmetry_multiplicity
_atom_site_Wyckoff_symbol
_atom_site_fract_x
_atom_site_fract_y
_atom_site_fract_z
_atom_site_occupancy
_atom_site_attached_hydrogens
_atom_site_U_iso_or_equiv
Zn1 Zn2+ 2 a 0 0 0 1. 0 0.02036(18) 
Se1 Se6+ 4 e 0.40640(4) 0.13808(3) 0.73315(6) 1. 0 0.02020(15) 
O1 O2- 4 e 0.4148(3) 0.2391(2) 0.5758(4) 1. 0 0.0336(7) 
O2 O2- 4 e 0.5584(3) 0.0690(3) 0.7769(6) 1. 0 0.0442(8) 
O3 O2- 4 e 0.2677(3) 0.0632(2) 0.6042(4) 1. 0 0.0283(6) 
O4 O2- 4 e 0.3785(3) 0.1809(2) 0.9625(5) 1. 0 0.0305(7) 
O5 O2- 4 e 0.1629(3) 0.1100(2) 0.1644(5) 1. 0 0.0277(6) 
O6 O2- 4 e -.1672(3) 0.1091(2) 0.0274(5) 1. 0 0.0272(6) 
O7 O2- 4 e -.0029(4) -.0643(3) 0.2931(5) 1. 0 0.0262(6) 
Rb1 Rb1+ 4 e 0.13440(5) 0.34497(3) 0.34379(7) 1. 0 0.03197(16) 
H1 H1+ 4 e 0.209(6) 0.091(4) 0.31(1) 1. 0 0.058(16) 
H2 H1+ 4 e 0.221(6) 0.120(4) 0.111(8) 1. 0 0.029(14) 
H3 H1+ 4 e -.255(6) 0.094(4) -.066(8) 1. 0 0.042(14) 
H4 H1+ 4 e -.149(6) 0.171(4) 0.000(9) 1. 0 0.048(16) 
H5 H1+ 4 e -.068(5) -.061(3) 0.329(7) 1. 0 0.017(13) 
H6 H1+ 4 e 0.022(6) -.121(4) 0.329(9) 1. 0 0.040(16) 

loop_
_atom_site_aniso_label
_atom_site_aniso_type_symbol
_atom_site_aniso_U_11
_atom_site_aniso_U_22
_atom_site_aniso_U_33
_atom_site_aniso_U_12
_atom_site_aniso_U_13
_atom_site_aniso_U_23
Zn1 Zn2+ 0.0195(3) 0.0219(3) 0.0199(3) -0.0014(2) 0.0053(3) 0.0006(2)
Se1 Se6+ 0.0184(2) 0.0211(2) 0.0207(2) -0.00218(15) 0.00437(15) 
-0.00145(15)
O1 O2- 0.0461(18) 0.0297(15) 0.0275(15) -0.0088(14) 0.0139(14) 0.0028(12)
O2 O2- 0.0255(16) 0.0458(19) 0.058(2) 0.0075(14) 0.0046(15) -0.0046(16)
O3 O2- 0.0241(15) 0.0303(16) 0.0291(15) -0.0078(12) 0.0044(13) -0.0074(12)
O4 O2- 0.0426(17) 0.0291(14) 0.0213(14) -0.0046(13) 0.0108(13) -0.0043(11)
O5 O2- 0.0261(16) 0.0329(16) 0.0240(16) -0.0086(13) 0.0061(14) -0.0018(12)
O6 O2- 0.0241(16) 0.0238(15) 0.0343(17) 0.0005(12) 0.0089(14) 0.0002(12)
O7 O2- 0.0268(17) 0.0290(18) 0.0258(15) 0.0033(13) 0.0124(13) 0.0034(12)
Rb1 Rb1+ 0.0332(2) 0.0323(2) 0.0320(2) -0.00091(17) 0.01140(18) 0.00080(17)
#End of data_409722-ICSD


