data_628895-ICSD
#?2014 by Fachinformationszentrum Karlsruhe, and the U.S. Secretary of 
#Commerce on behalf of the United States.  All rights reserved.
_database_code_ICSD                628895
_audit_creation_date               2013/08/01
_chemical_name_systematic          'Copper Zinc Tin Sulfide (2/1/1/4)'
_chemical_formula_structural       'Cu2 Zn Sn S4'
_chemical_formula_sum              'Cu2 S4 Sn1 Zn1'
_chemical_name_mineral             Kesterite
_publ_section_title
;
X-ray analysis of the solid solution Cu1 Zn1-x Cdx Sn S4
;
loop_
_citation_id
_citation_journal_abbrev
_citation_year
_citation_journal_volume
_citation_journal_issue
_citation_page_first
_citation_page_last
_citation_journal_id_ASTM
primary 'Neues Jahrbuch fuer Mineralogie. Abhandlungen (Band-Nr) (1950-)'
 1986 155 1 15 22 NJMIAK
2 'Neues Jahrbuch fuer Mineralogie. Monatshefte (Band=Jahr) (1950-)'
 1990 1990 1 13 34 NJMMAW
_publ_author_name
;
Chichagov, A.V.;Osadchii, Eu.G.;Usyakovskaya, Z.V.
;
_cell_length_a                     5.4335(3)
_cell_length_b                     5.4335(3)
_cell_length_c                     10.8429(10)
_cell_angle_alpha                  90.0
_cell_angle_beta                   90.0
_cell_angle_gamma                  90.0
_cell_volume                       320.11
_cell_formula_units_Z              2
_symmetry_space_group_name_H-M     'I -4'
_symmetry_Int_Tables_number        82
loop_
_symmetry_equiv_pos_site_id
_symmetry_equiv_pos_as_xyz
  1	'-y, x, -z'
  2	'y, -x, -z'
  3	'-x, -y, z'
  4	'x, y, z'
  5	'-y+.5, x+.5, -z+.5'
  6	'y+.5, -x+.5, -z+.5'
  7	'-x+.5, -y+.5, z+.5'
  8	'x+.5, y+.5, z+.5'
loop_
_atom_type_symbol
_atom_type_oxidation_number
Cu1+	1
S2-	-2
Sn4+	4
Zn2+	2
loop_
_atom_site_label
_atom_site_type_symbol
_atom_site_symmetry_multiplicity
_atom_site_Wyckoff_symbol
_atom_site_fract_x
_atom_site_fract_y
_atom_site_fract_z
_atom_site_occupancy
_atom_site_attached_hydrogens
Cu1 Cu1+ 2 a 0 0 0 1. 0 
Cu2 Cu1+ 2 c 0 0.5 0.25 1. 0 
Sn1 Sn4+ 2 b 0.5 0.5 0 1. 0 
Zn1 Zn2+ 2 d 0.5 0 0.25 1. 0 
S1 S2- 8 g 0.756 0.756 0.872 1. 0 

#End of data_628895-ICSD


