data_24408-ICSD
#?2014 by Fachinformationszentrum Karlsruhe, and the U.S. Secretary of 
#Commerce on behalf of the United States.  All rights reserved.
_database_code_ICSD                24408
_audit_creation_date               1981/12/31
_audit_update_record               2006/04/01
_chemical_name_systematic          'Dipotassium Tetrafluorocuprate'
_chemical_formula_structural       'K2 (Cu F4)'
_chemical_formula_sum              'Cu1 F4 K2'
_publ_section_title
;
Local and cooperative Jahn-Teller interactions of copper(II) in host 
lattices with tetragonally compressed octahedra. Spectroscopic and 
structural investigation of the mixed crystals K (Rb)2 Zn1-x Cux F4
;
loop_
_citation_id
_citation_journal_abbrev
_citation_year
_citation_journal_volume
_citation_page_first
_citation_page_last
_citation_journal_id_ASTM
primary 'Inorganic Chemistry' 1981 20 2750 2759 INOCAJ
_publ_author_name                  'Reinen, D.;Krause, S.'
_cell_length_a                     5.854
_cell_length_b                     5.854
_cell_length_c                     25.42
_cell_angle_alpha                  90.
_cell_angle_beta                   90.
_cell_angle_gamma                  90.
_cell_volume                       871.13
_cell_formula_units_Z              8
_symmetry_space_group_name_H-M     'I -4 c 2'
_symmetry_Int_Tables_number        120
_refine_ls_R_factor_all            .028
loop_
_symmetry_equiv_pos_site_id
_symmetry_equiv_pos_as_xyz
  1	'y, x, -z+.5'
  2	'-y, -x, -z+.5'
  3	'y, -x, -z'
  4	'-y, x, -z'
  5	'x, -y, z+.5'
  6	'-x, y, z+.5'
  7	'-x, -y, z'
  8	'x, y, z'
  9	'y+.5, x+.5, -z'
 10	'-y+.5, -x+.5, -z'
 11	'y+.5, -x+.5, -z+.5'
 12	'-y+.5, x+.5, -z+.5'
 13	'x+.5, -y+.5, z'
 14	'-x+.5, y+.5, z'
 15	'-x+.5, -y+.5, z+.5'
 16	'x+.5, y+.5, z+.5'
loop_
_atom_type_symbol
_atom_type_oxidation_number
Cu2+	2
F1-	-1
K1+	1
loop_
_atom_site_label
_atom_site_type_symbol
_atom_site_symmetry_multiplicity
_atom_site_Wyckoff_symbol
_atom_site_fract_x
_atom_site_fract_y
_atom_site_fract_z
_atom_site_occupancy
_atom_site_attached_hydrogens
_atom_site_B_iso_or_equiv
Cu1 Cu2+ 4 a 0 0 0.25 1. 0 0.68 
Cu2 Cu2+ 4 d 0 0.5 0 1. 0 0.64 
K1 K1+ 8 f 0 0 0.0730(3) 1. 0 1.63 
K2 K1+ 8 g 0 0.5 0.1818(3) 1. 0 1.71 
F1 F1- 8 f 0 0 0.1733(2) 1. 0 1.11 
F2 F1- 8 g 0 0.5 0.0767(2) 1. 0 1.3 
F3 F1- 8 e 0.2252(8) 0.2252(8) 0.25 1. 0 0.64 
F4 F1- 8 h 0.2248(8) 0.7248(8) 0 1. 0 0.76 

#End of data_24408-ICSD


