data_167889-ICSD
#?2014 by Fachinformationszentrum Karlsruhe, and the U.S. Secretary of 
#Commerce on behalf of the United States.  All rights reserved.
_database_code_ICSD                167889
_audit_creation_date               2011/02/01
_chemical_name_systematic          'Calcium Zirconate'
_chemical_formula_structural       'Ca (Zr O3)'
_chemical_formula_sum              'Ca1 O3 Zr1'
_publ_section_title
;
Thermomechanical properties of calcium series perovskite-type oxides
;
loop_
_citation_id
_citation_journal_abbrev
_citation_year
_citation_journal_volume
_citation_page_first
_citation_page_last
_citation_journal_id_ASTM
primary 'Journal of Alloys and Compounds' 2010 504 201 204 JALCEU
2 'Acta Crystallographica, Section C: Crystal Structure Communications'
 1983 39 1323 1325 ACSCEE
_publ_author_name
;
Yang Hong Yan;Ohishi, Y.;Kurosaki, K.;Muta, H.;Yamanaka, S.
;
_cell_length_a                     5.5936
_cell_length_b                     8.0089
_cell_length_c                     5.7704
_cell_angle_alpha                  90.
_cell_angle_beta                   90.
_cell_angle_gamma                  90.
_cell_volume                       258.51
_cell_formula_units_Z              4
_symmetry_space_group_name_H-M     'P c m n'
_symmetry_Int_Tables_number        62
loop_
_symmetry_equiv_pos_site_id
_symmetry_equiv_pos_as_xyz
  1	'-x+.5, y, z+.5'
  2	'x, -y+.5, z'
  3	'x+.5, y+.5, -z+.5'
  4	'-x, -y, -z'
  5	'x+.5, -y, -z+.5'
  6	'-x, y+.5, -z'
  7	'-x+.5, -y+.5, z+.5'
  8	'x, y, z'
loop_
_atom_type_symbol
_atom_type_oxidation_number
Ca2+	2
O2-	-2
Zr4+	4
loop_
_atom_site_label
_atom_site_type_symbol
_atom_site_symmetry_multiplicity
_atom_site_Wyckoff_symbol
_atom_site_fract_x
_atom_site_fract_y
_atom_site_fract_z
_atom_site_occupancy
_atom_site_attached_hydrogens
Ca1 Ca2+ 4 c 0.0121 0.25 0.0496 1. 0 
O1 O2- 4 c 0.6032 0.25 -.0381 1. 0 
O2 O2- 8 d 0.3026 0.0548 0.3007 1. 0 
Zr1 Zr4+ 4 b 0.5 0 0 1. 0 

#End of data_167889-ICSD


