data_161973-ICSD
#?2014 by Fachinformationszentrum Karlsruhe, and the U.S. Secretary of 
#Commerce on behalf of the United States.  All rights reserved.
_database_code_ICSD                161973
_audit_creation_date               2009/02/01
_chemical_name_systematic          'Calcium Diferrate(III) - Hp'
_chemical_formula_structural       'Ca (Fe2 O4)'
_chemical_formula_sum              'Ca1 Fe2 O4'
_publ_section_title
;
Structural transition of post-spinel phases Ca Mn2 O4, Ca Fe2 O4 and 
Ca Ti2 O4 under high pressures up to 80 GPa
;
loop_
_citation_id
_citation_journal_abbrev
_citation_year
_citation_journal_volume
_citation_page_first
_citation_page_last
_citation_journal_id_ASTM
primary 'American Mineralogist' 2008 93 1874 1881 AMMIAY
_publ_author_name
;
Yamanaka, T.;Uchida, a.;Nakamoto, Y.
;
_cell_length_a                     8.376(5)
_cell_length_b                     9.551(5)
_cell_length_c                     8.353(1)
_cell_angle_alpha                  90.
_cell_angle_beta                   90.
_cell_angle_gamma                  90.
_cell_volume                       668.23
_cell_formula_units_Z              12
_symmetry_space_group_name_H-M     'P n a m'
_symmetry_Int_Tables_number        62
_refine_ls_R_factor_all            .0061
loop_
_symmetry_equiv_pos_site_id
_symmetry_equiv_pos_as_xyz
  1	'x+.5, -y+.5, z'
  2	'x, y, -z+.5'
  3	'-x+.5, y+.5, z+.5'
  4	'-x, -y, -z'
  5	'-x+.5, y+.5, -z'
  6	'-x, -y, z+.5'
  7	'x+.5, -y+.5, -z+.5'
  8	'x, y, z'
loop_
_atom_type_symbol
_atom_type_oxidation_number
Ca2+	2
Fe3+	3
O2-	-2
loop_
_atom_site_label
_atom_site_type_symbol
_atom_site_symmetry_multiplicity
_atom_site_Wyckoff_symbol
_atom_site_fract_x
_atom_site_fract_y
_atom_site_fract_z
_atom_site_occupancy
_atom_site_attached_hydrogens
Ca1 Ca2+ 4 c 0.780(8) 0.332(10) 0.250 1. 0 
Fe1 Fe3+ 4 c 0.397(6) 0.390(8) 0.250 1. 0 
Fe2 Fe3+ 4 c 0.403(11) 0.898(10) 0.250 1. 0 
O1 O2- 4 c 0.208(7) 0.838(7) 0.250 1. 0 
O2 O2- 4 c 0.136(2) 0.534(2) 0.250 1. 0 
O3 O2- 4 c 0.494(6) 0.227(8) 0.250 1. 0 
O4 O2- 4 c 0.410(2) 0.574(3) 0.250 1. 0 
Ca2 Ca2+ 8 d 0.715(6) 0.851(5) 0.085(5) 1. 0 
Fe3 Fe3+ 8 d 0.567(4) 0.614(5) 0.087(11) 1. 0 
Fe4 Fe3+ 8 d 0.087(5) 0.395(5) 0.082(8) 1. 0 
O5 O2- 8 d 0.787(15) 0.160(15) 0.073(13) 1. 0 
O6 O2- 8 d 0.885(10) 0.477(12) 0.083(8) 1. 0 
O7 O2- 8 d 0.485(14) 0.779(9) 0.090(6) 1. 0 
O8 O2- 8 d 0.085(8) 0.078(6) 0.116(10) 1. 0 

#End of data_161973-ICSD


