data_91036-ICSD
#?2014 by Fachinformationszentrum Karlsruhe, and the U.S. Secretary of 
#Commerce on behalf of the United States.  All rights reserved.
_database_code_ICSD                91036
_audit_creation_date               2002/10/01
_audit_update_record               2005/10/01
_chemical_name_systematic
;
Dicesium Potassium Manganese(III) Fluoride - Lt
;
_chemical_formula_structural       'Cs2 K Mn F6'
_chemical_formula_sum              'Cs2 F6 K1 Mn1'
_publ_section_title
;
Phase transition in Cs2 K Mn F6: crystal structures of lowand high-
temperature modifications
;
loop_
_citation_id
_citation_journal_abbrev
_citation_year
_citation_journal_volume
_citation_page_first
_citation_page_last
_citation_journal_id_ASTM
primary 'Journal of Solid State Chemistry' 2000 150 399 403 JSSCBI
2 'Golden Book of Phase Transitions, Wroclaw' 2002 1 1 123 GBOPT5
_publ_author_name
;
Xu, Y.;Carlson, S.;Sjoedin, A.;Norrestam, R.
;
_cell_length_a                     6.319(1)
_cell_length_b                     6.319(1)
_cell_length_c                     9.257(2)
_cell_angle_alpha                  90.
_cell_angle_beta                   90.
_cell_angle_gamma                  90.
_cell_volume                       369.63
_cell_formula_units_Z              2
_symmetry_space_group_name_H-M     'I 4/m m m'
_symmetry_Int_Tables_number        139
_refine_ls_R_factor_all            .034
loop_
_symmetry_equiv_pos_site_id
_symmetry_equiv_pos_as_xyz
  1	'y, x, -z'
  2	'-y, -x, -z'
  3	'-y, x, -z'
  4	'y, -x, -z'
  5	'-x, y, -z'
  6	'x, -y, -z'
  7	'x, y, -z'
  8	'-x, -y, -z'
  9	'-y, -x, z'
 10	'y, x, z'
 11	'y, -x, z'
 12	'-y, x, z'
 13	'x, -y, z'
 14	'-x, y, z'
 15	'-x, -y, z'
 16	'x, y, z'
 17	'y+.5, x+.5, -z+.5'
 18	'-y+.5, -x+.5, -z+.5'
 19	'-y+.5, x+.5, -z+.5'
 20	'y+.5, -x+.5, -z+.5'
 21	'-x+.5, y+.5, -z+.5'
 22	'x+.5, -y+.5, -z+.5'
 23	'x+.5, y+.5, -z+.5'
 24	'-x+.5, -y+.5, -z+.5'
 25	'-y+.5, -x+.5, z+.5'
 26	'y+.5, x+.5, z+.5'
 27	'y+.5, -x+.5, z+.5'
 28	'-y+.5, x+.5, z+.5'
 29	'x+.5, -y+.5, z+.5'
 30	'-x+.5, y+.5, z+.5'
 31	'-x+.5, -y+.5, z+.5'
 32	'x+.5, y+.5, z+.5'
loop_
_atom_type_symbol
_atom_type_oxidation_number
Cs1+	1
F1-	-1
K1+	1
Mn3+	3
loop_
_atom_site_label
_atom_site_type_symbol
_atom_site_symmetry_multiplicity
_atom_site_Wyckoff_symbol
_atom_site_fract_x
_atom_site_fract_y
_atom_site_fract_z
_atom_site_occupancy
_atom_site_attached_hydrogens
_atom_site_U_iso_or_equiv
Cs1 Cs1+ 4 d 0.5 0 0.25 1. 0 0 
Mn1 Mn3+ 2 a 0 0 0 1. 0 0 
K1 K1+ 2 b 0 0 0.5 1. 0 0 
F1 F1- 8 h 0.2081(10) 0.2081(10) 0 1. 0 0.023(2) 
F2 F1- 4 e 0 0 0.2197(10) 1. 0 0.022(3) 

loop_
_atom_site_aniso_label
_atom_site_aniso_type_symbol
_atom_site_aniso_U_11
_atom_site_aniso_U_22
_atom_site_aniso_U_33
_atom_site_aniso_U_12
_atom_site_aniso_U_13
_atom_site_aniso_U_23
Cs1 Cs1+ 0.0171(5) 0.0171(5) 0.0191(6) 0 0 0
Mn1 Mn3+ 0.0039(13) 0.0039(13) 0.0074(19) 0 0 0
K1 K1+ 0.018(2) 0.018(2) 0.016(3) 0 0 0
#End of data_91036-ICSD


