data_411478-ICSD
#?2014 by Fachinformationszentrum Karlsruhe, and the U.S. Secretary of 
#Commerce on behalf of the United States.  All rights reserved.
_database_code_ICSD                411478
_audit_creation_date               2002/10/01
_audit_update_record               2013/02/01
_chemical_name_systematic
;
Tetraeuropium(II) Magnesium Tantalum Nitride
;
_chemical_formula_structural       'Eu4 Mg Ta N5'
_chemical_formula_sum              'Eu4 Mg1 N5 Ta1'
_publ_section_title                'Magnesium nitride chemistry'
loop_
_citation_id
_citation_journal_abbrev
_citation_year
_citation_journal_volume
_citation_page_first
_citation_page_last
_citation_journal_id_ASTM
primary 'Journal of Alloys and Compounds' 2001 315 134 142 JALCEU
_publ_author_name
;
Reckeweg, O.;Molstad, J.C.;DiSalvo, F.J.
;
_cell_length_a                     12.655(3)
_cell_length_b                     10.159(2)
_cell_length_c                     6.925(1)
_cell_angle_alpha                  90.
_cell_angle_beta                   90.
_cell_angle_gamma                  90.
_cell_volume                       890.29
_cell_formula_units_Z              4
_symmetry_space_group_name_H-M     'P n a 21'
_symmetry_Int_Tables_number        33
_refine_ls_R_factor_all            .038
loop_
_symmetry_equiv_pos_site_id
_symmetry_equiv_pos_as_xyz
  1	'x+.5, -y+.5, z'
  2	'-x+.5, y+.5, z+.5'
  3	'-x, -y, z+.5'
  4	'x, y, z'
loop_
_atom_type_symbol
_atom_type_oxidation_number
Eu2+	2
Mg2+	2
N3-	-3
Ta5+	5
loop_
_atom_site_label
_atom_site_type_symbol
_atom_site_symmetry_multiplicity
_atom_site_Wyckoff_symbol
_atom_site_fract_x
_atom_site_fract_y
_atom_site_fract_z
_atom_site_occupancy
_atom_site_attached_hydrogens
_atom_site_U_iso_or_equiv
Eu1 Eu2+ 4 a 0.05891(8) 0.23025(11) 0.30663(15) 1. 0 0 
Eu2 Eu2+ 4 a 0.18612(8) 0.82697(12) 0.48205(17) 1. 0 0 
Eu3 Eu2+ 4 a 0.21076(8) 0.9859(1) 0.97368(17) 1. 0 0 
Eu4 Eu2+ 4 a 0.54671(8) 0.10499(11) 0.80214(18) 1. 0 0 
Ta1 Ta5+ 4 a 0.30970(5) 0.13968(7) 0.54101(11) 1. 0 0 
Mg1 Mg2+ 4 a 0.0202(5) 0.0853(6) 0.7059(9) 1. 0 0.0032(12) 
N1 N3- 4 a 0.9107(14) 0.2233(18) 0.6128(25) 1. 0 0.0092(32) 
N2 N3- 4 a 0.3664(13) 0.9779(16) 0.6569(22) 1. 0 0.0046(29) 
N3 N3- 4 a 0.9945(13) 0.9286(16) 0.5130(25) 1. 0 0.0101(33) 
N4 N3- 4 a 0.1720(13) 0.1838(16) 0.6516(23) 1. 0 0.0059(31) 
N5 N3- 4 a 0.3091(13) 0.1200(18) 0.2570(24) 1. 0 0.0087(34) 

loop_
_atom_site_aniso_label
_atom_site_aniso_type_symbol
_atom_site_aniso_U_11
_atom_site_aniso_U_22
_atom_site_aniso_U_33
_atom_site_aniso_U_12
_atom_site_aniso_U_13
_atom_site_aniso_U_23
Eu1 Eu2+ 0.0151(5) 0.0170(5) 0.0103(5) 0.0026(4) -.0002(4) 0.0006(5)
Eu2 Eu2+ 0.0119(5) 0.0169(5) 0.0127(5) -.0001(4) -.0016(5) -.0015(4)
Eu3 Eu2+ 0.0119(4) 0.0128(5) 0.0115(4) -.0005(4) 0.0004(4) 0.0009(4)
Eu4 Eu2+ 0.0138(5) 0.0170(5) 0.0162(5) 0.0008(4) -.0046(5) 0.0039(5)
Ta1 Ta5+ 0.0010(3) 0.0010(3) 0.0024(3) -.0004(2) -.0003(3) 0.0002(3)
#End of data_411478-ICSD


