data_75171-ICSD
#?2014 by Fachinformationszentrum Karlsruhe, and the U.S. Secretary of 
#Commerce on behalf of the United States.  All rights reserved.
_database_code_ICSD                75171
_audit_creation_date               1995/10/17
_chemical_name_systematic          'Potassium Yttrium Diphosphate'
_chemical_formula_structural       'K Y (P2 O7)'
_chemical_formula_sum              'K1 O7 P2 Y1'
_publ_section_title                'Structure cristalline de KYP2O7'
loop_
_citation_id
_citation_journal_abbrev
_citation_year
_citation_journal_volume
_citation_page_first
_citation_page_last
_citation_journal_id_ASTM
primary 'Journal of Solid State Chemistry' 1994 113 120 124 JSSCBI
_publ_author_name
;
Hamady, A.;Faouzi Zid, M.;Jouini, T.
;
_cell_length_a                     5.716(1)
_cell_length_b                     9.216(1)
_cell_length_c                     12.244(1)
_cell_angle_alpha                  90.
_cell_angle_beta                   90.
_cell_angle_gamma                  90.
_cell_volume                       645
_cell_formula_units_Z              4
_symmetry_space_group_name_H-M     'C m c m'
_symmetry_Int_Tables_number        63
_refine_ls_R_factor_all            .041
loop_
_symmetry_equiv_pos_site_id
_symmetry_equiv_pos_as_xyz
  1	'-x, y, -z+.5'
  2	'-x, -y, z+.5'
  3	'-x, y, z'
  4	'-x, -y, -z'
  5	'x, -y, z+.5'
  6	'x, y, -z+.5'
  7	'x, -y, -z'
  8	'x, y, z'
  9	'-x+.5, y+.5, -z+.5'
 10	'-x+.5, -y+.5, z+.5'
 11	'-x+.5, y+.5, z'
 12	'-x+.5, -y+.5, -z'
 13	'x+.5, -y+.5, z+.5'
 14	'x+.5, y+.5, -z+.5'
 15	'x+.5, -y+.5, -z'
 16	'x+.5, y+.5, z'
loop_
_atom_type_symbol
_atom_type_oxidation_number
K1+	1
O2-	-2
P5+	5
Y3+	3
loop_
_atom_site_label
_atom_site_type_symbol
_atom_site_symmetry_multiplicity
_atom_site_Wyckoff_symbol
_atom_site_fract_x
_atom_site_fract_y
_atom_site_fract_z
_atom_site_occupancy
_atom_site_attached_hydrogens
Y1 Y3+ 4 a 0 0 0 1. 0 
P1 P5+ 8 f 0.5 0.1443(3) 0.1297(2) 1. 0 
K1 K1+ 4 c 0 0.3035(5) 0.25 1. 0 
O1 O2- 16 h 0.2802(9) 0.0539(5) 0.3760(4) 1. 0 
O2 O2- 8 f 0.5 0.2701(7) 0.0559(6) 1. 0 
O3 O2- 4 c 0.5 0.2194(11) 0.25 1. 0 

#End of data_75171-ICSD


