data_18152-ICSD
#?2014 by Fachinformationszentrum Karlsruhe, and the U.S. Secretary of 
#Commerce on behalf of the United States.  All rights reserved.
_database_code_ICSD                18152
_audit_creation_date               1980/01/01
_audit_update_record               1987/11/20
_chemical_name_systematic          'Lithium Dioxogallate'
_chemical_formula_structural       'Li Ga O2'
_chemical_formula_sum              'Ga1 Li1 O2'
_publ_section_title                'The crystal structure of Li Ga O2'
loop_
_citation_id
_citation_journal_abbrev
_citation_year
_citation_journal_volume
_citation_page_first
_citation_page_last
_citation_journal_id_ASTM
primary 'Acta Crystallographica (1,1948-23,1967)' 1965 18 481 484 ACCRA9
_publ_author_name                  'Marezio, M.'
_cell_length_a                     5.402(1)
_cell_length_b                     6.372(1)
_cell_length_c                     5.007(1)
_cell_angle_alpha                  90.
_cell_angle_beta                   90.
_cell_angle_gamma                  90.
_cell_volume                       172.35
_cell_formula_units_Z              4
_symmetry_space_group_name_H-M     'P n a 21'
_symmetry_Int_Tables_number        33
_refine_ls_R_factor_all            .019
loop_
_symmetry_equiv_pos_site_id
_symmetry_equiv_pos_as_xyz
  1	'x+.5, -y+.5, z'
  2	'-x+.5, y+.5, z+.5'
  3	'-x, -y, z+.5'
  4	'x, y, z'
loop_
_atom_type_symbol
_atom_type_oxidation_number
Ga3+	3
Li1+	1
O2-	-2
loop_
_atom_site_label
_atom_site_type_symbol
_atom_site_symmetry_multiplicity
_atom_site_Wyckoff_symbol
_atom_site_fract_x
_atom_site_fract_y
_atom_site_fract_z
_atom_site_occupancy
_atom_site_attached_hydrogens
_atom_site_B_iso_or_equiv
Ga1 Ga3+ 4 a 0.0821(1) 0.1263(1) 0 1. 0 0.431 
O1 O2- 4 a 0.4066(7) 0.1388(5) 0.8927(10) 1. 0 0.46 
O2 O2- 4 a 0.0697(7) 0.1121(5) 0.3708(10) 1. 0 0.4 
Li1 Li1+ 4 a 0.4207(14) 0.1267(11) 0.4936(97) 1. 0 0.612 

#End of data_18152-ICSD


