data_12118-ICSD
#?2014 by Fachinformationszentrum Karlsruhe, and the U.S. Secretary of 
#Commerce on behalf of the United States.  All rights reserved.
_database_code_ICSD                12118
_audit_creation_date               1980/01/01
_audit_update_record               2012/02/01
_chemical_name_systematic
;
Potassium Tetrachloromercurate Hydrate
;
_chemical_formula_structural       'Hg Cl2 (K Cl)2 H2 O'
_chemical_formula_sum              'H2 Cl4 Hg1 K2 O1'
_publ_section_title
;
A neutron diffraction study of Hg Cl2 (K Cl)2 H2 O
;
loop_
_citation_id
_citation_journal_abbrev
_citation_year
_citation_journal_volume
_citation_page_first
_citation_page_last
_citation_journal_id_ASTM
primary 'Acta Chemica Scandinavica, Series A: (28,1974-)'
 1976 30 735 739 ACAPCT
_publ_author_name                  'Aurivillius, K.;Stalhandske, C.'
_cell_length_a                     8.258(2)
_cell_length_b                     11.663(2)
_cell_length_c                     8.926(2)
_cell_angle_alpha                  90.
_cell_angle_beta                   90.
_cell_angle_gamma                  90.
_cell_volume                       859.69
_cell_formula_units_Z              4
_symmetry_space_group_name_H-M     'P b a m'
_symmetry_Int_Tables_number        55
_refine_ls_R_factor_all            .047
loop_
_symmetry_equiv_pos_site_id
_symmetry_equiv_pos_as_xyz
  1	'x+.5, -y+.5, z'
  2	'-x+.5, y+.5, z'
  3	'x, y, -z'
  4	'-x, -y, -z'
  5	'-x+.5, y+.5, -z'
  6	'x+.5, -y+.5, -z'
  7	'-x, -y, z'
  8	'x, y, z'
loop_
_atom_type_symbol
_atom_type_oxidation_number
Cl1-	-1
H1+	1
Hg2+	2
K1+	1
O2-	-2
loop_
_atom_site_label
_atom_site_type_symbol
_atom_site_symmetry_multiplicity
_atom_site_Wyckoff_symbol
_atom_site_fract_x
_atom_site_fract_y
_atom_site_fract_z
_atom_site_occupancy
_atom_site_attached_hydrogens
Hg1 Hg2+ 4 e 0 0 0.22921(8) 1. 0 
K1 K1+ 4 g 0.0823(2) 0.3405(2) 0 1. 0 
K2 K1+ 4 h 0.1054(2) 0.3052(1) 0.5 1. 0 
Cl1 Cl1- 4 g 0.20454(8) 0.07605(6) 0 1. 0 
Cl2 Cl1- 4 h 0.24905(9) 0.06027(5) 0.5 1. 0 
Cl3 Cl1- 8 i -.11661(6) 0.18606(4) 0.25257(6) 1. 0 
O1 O2- 4 f 0 0.5 0.2310(2) 1. 0 
H1 H1+ 8 i -.0869(2) 0.4769(2) 0.2934(2) 1. 0 

#End of data_12118-ICSD


