data_411127-ICSD
#?2014 by Fachinformationszentrum Karlsruhe, and the U.S. Secretary of 
#Commerce on behalf of the United States.  All rights reserved.
_database_code_ICSD                411127
_audit_creation_date               2002/04/01
_chemical_name_systematic
;
Dicesium Potassium Hexacyanocobaltate(III)
;
_chemical_formula_structural       'Cs2 K (Co (C N)6)'
_chemical_formula_sum              'C6 Co1 Cs2 K1 N6'
_publ_section_title
;
Kristallstrukturbestimmungen an Cs2 Na Cr (C N)6 und weiteren 
Verbindungen A2 B M (C N)6 (A= Rb, Cs; B= Na, K, Rb, NH4; M= Cr, Mn, 
Fe, Co): Oktaederkippung und Toleranzfaktor von Cyanokryolithen
;
loop_
_citation_id
_citation_journal_abbrev
_citation_year
_citation_journal_volume
_citation_page_first
_citation_page_last
_citation_journal_id_ASTM
primary 'Zeitschrift fuer Anorganische und Allgemeine Chemie (1950) (DE)'
 2000 626 1561 1566 ZAACAB
_publ_author_name
;
Peschel, S.;Ziegler, B.;Schwarten, M.;Babel, D.
;
_cell_length_a                     7.647(1)
_cell_length_b                     8.083(1)
_cell_length_c                     11.095(2)
_cell_angle_alpha                  90.
_cell_angle_beta                   90.14(1)
_cell_angle_gamma                  90.
_cell_volume                       685.79
_cell_formula_units_Z              2
_symmetry_space_group_name_H-M     'P 1 21/n 1'
_symmetry_Int_Tables_number        14
_refine_ls_R_factor_all            .037
loop_
_symmetry_equiv_pos_site_id
_symmetry_equiv_pos_as_xyz
  1	'-x+.5, y+.5, -z+.5'
  2	'-x, -y, -z'
  3	'x+.5, -y+.5, z+.5'
  4	'x, y, z'
loop_
_atom_type_symbol
_atom_type_oxidation_number
C2+	2
Co3+	3
Cs1+	1
K1+	1
N3-	-3
loop_
_atom_site_label
_atom_site_type_symbol
_atom_site_symmetry_multiplicity
_atom_site_Wyckoff_symbol
_atom_site_fract_x
_atom_site_fract_y
_atom_site_fract_z
_atom_site_occupancy
_atom_site_attached_hydrogens
Cs1 Cs1+ 4 e 0.51989(4) -.06565(4) 0.24975(3) 1. 0 
Co1 Co3+ 2 a 0 0 0 1. 0 
K1 K1+ 2 b 0 0 0.5 1. 0 
N1 N3- 4 e 0.1106(6) 0.0359(6) 0.2619(3) 1. 0 
N2 N3- 4 e -.3280(5) 0.2011(5) 0.0500(4) 1. 0 
N3 N3- 4 e 0.1974(6) 0.3145(6) -.0618(4) 1. 0 
C1 C2+ 4 e 0.0669(6) 0.0208(5) 0.1636(4) 1. 0 
C2 C2+ 4 e -.2037(5) 0.1259(5) 0.0308(3) 1. 0 
C3 C2+ 4 e 0.1243(5) 0.1970(6) -.0377(4) 1. 0 

loop_
_atom_site_aniso_label
_atom_site_aniso_type_symbol
_atom_site_aniso_U_11
_atom_site_aniso_U_22
_atom_site_aniso_U_33
_atom_site_aniso_U_12
_atom_site_aniso_U_13
_atom_site_aniso_U_23
Cs1 Cs1+ 0.0465(2) 0.0400(2) 0.0459(2) -.0056(2) 0.0017(1) 0.0016(2)
Co1 Co3+ 0.0221(4) 0.0190(4) 0.0201(4) 0.0011(3) 0.0007(3) 0.0013(3)
K1 K1+ 0.0297(7) 0.0293(7) 0.0293(7) -.0012(5) -.0012(5) 0.0003(6)
N1 N3- 0.059(3) 0.061(3) 0.024(2) 0.005(2) -.0015(18) -.002(2)
N2 N3- 0.042(2) 0.040(2) 0.068(3) 0.018(2) 0.016(2) 0.010(2)
N3 N3- 0.048(2) 0.037(2) 0.061(3) -.014(2) -.007(2) 0.012(2)
C1 C2+ 0.033(2) 0.028(2) 0.030(2) 0.0042(18) 0.0054(18) -.0008(18)
C2 C2+ 0.032(2) 0.025(2) 0.028(2) 0.0004(18) 0.0006(17) 0.0055(18)
C3 C2+ 0.026(2) 0.028(2) 0.034(2) -.0018(18) -.0008(17) 0.0011(19)
#End of data_411127-ICSD


