data_416726-ICSD
#?2014 by Fachinformationszentrum Karlsruhe, and the U.S. Secretary of 
#Commerce on behalf of the United States.  All rights reserved.
_database_code_ICSD                416726
_audit_creation_date               2008/02/01
_chemical_name_systematic
;
Trisodium Hexaborotridecaoxophosphate(V)
;
_chemical_formula_structural       'Na3 B6 P O13'
_chemical_formula_sum              'B6 Na3 O13 P1'
_publ_section_title
;
Low-temperature flux syntheses and characterizations of two 1-D 
anhydrous borophosphates: Na3 B6 P O13 and Na3 B P2 O8
;
loop_
_citation_id
_citation_journal_abbrev
_citation_year
_citation_journal_volume
_citation_journal_issue
_citation_page_first
_citation_page_last
_citation_journal_id_ASTM
primary 'Journal of Solid State Chemistry' 2007 180 1 233 239 JSSCBI
_publ_author_name
;
Xiong Ding Bang;Chen Hao Hong;Yang Xin Xin;Zhao Jing Thai
;
_cell_length_a                     9.3727(4)
_cell_length_b                     16.2307(7)
_cell_length_c                     6.7232(3)
_cell_angle_alpha                  90.00
_cell_angle_beta                   90.00
_cell_angle_gamma                  90.00
_cell_volume                       1022.77
_cell_formula_units_Z              4
_symmetry_space_group_name_H-M     'P n m a'
_symmetry_Int_Tables_number        62
_refine_ls_R_factor_all            .0509
loop_
_symmetry_equiv_pos_site_id
_symmetry_equiv_pos_as_xyz
  1	'x+.5, y, -z+.5'
  2	'x, -y+.5, z'
  3	'-x+.5, y+.5, z+.5'
  4	'-x, -y, -z'
  5	'-x+.5, -y, z+.5'
  6	'-x, y+.5, -z'
  7	'x+.5, -y+.5, -z+.5'
  8	'x, y, z'
loop_
_atom_type_symbol
_atom_type_oxidation_number
B3+	3
Na1+	1
O2-	-2
P5+	5
loop_
_atom_site_label
_atom_site_type_symbol
_atom_site_symmetry_multiplicity
_atom_site_Wyckoff_symbol
_atom_site_fract_x
_atom_site_fract_y
_atom_site_fract_z
_atom_site_occupancy
_atom_site_attached_hydrogens
_atom_site_U_iso_or_equiv
P1 P5+ 4 c 0.30992(8) 0.2500 0.17409(12) 1 0 0.0126(2) 
Na1 Na1+ 4 c 0.56022(13) 0.2500 -0.25206(15) 1 0 0.0156(3) 
Na2 Na1+ 8 d -0.05993(9) 0.63320(6) 0.74344(12) 1 0 0.0204(3) 
O1 O2- 4 c 0.1707(2) 0.2500 0.0667(3) 1 0 0.0185(5) 
O2 O2- 8 d 0.31251(14) 0.32733(10) 0.3163(2) 1 0 0.0134(4) 
O3 O2- 4 c 0.4450(2) 0.2500 0.0584(3) 1 0 0.0174(5) 
O4 O2- 8 d 0.43959(14) 0.37474(9) 0.6016(2) 1 0 0.0121(4) 
O5 O2- 8 d 0.31069(14) 0.48914(10) 0.7355(2) 1 0 0.0171(4) 
O6 O2- 8 d 0.05896(14) 0.48815(10) 0.74878(19) 1 0 0.0144(4) 
O7 O2- 8 d 0.18013(14) 0.37704(9) 0.5956(2) 1 0 0.0118(4) 
O8 O2- 4 c 0.3055(2) 0.2500 0.6233(3) 1 0 0.0119(5) 
B1 B3+ 8 d 0.3098(2) 0.32927(15) 0.5363(4) 1 0 0.0099(5) 
B2 B3+ 8 d 0.4359(2) 0.44737(15) 0.6951(4) 1 0 0.0105(5) 
B3 B3+ 8 d 0.1835(2) 0.44966(15) 0.6912(4) 1 0 0.0107(5) 

loop_
_atom_site_aniso_label
_atom_site_aniso_type_symbol
_atom_site_aniso_U_11
_atom_site_aniso_U_22
_atom_site_aniso_U_33
_atom_site_aniso_U_12
_atom_site_aniso_U_13
_atom_site_aniso_U_23
P1 P5+ 0.0125(4) 0.0136(4) 0.0119(4) 0.000 0.0001(3) 0.000
Na1 Na1+ 0.0153(7) 0.0173(7) 0.0142(7) 0.000 -0.0016(5) 0.000
Na2 Na1+ 0.0169(6) 0.0172(6) 0.0273(6) -0.0001(4) -0.0029(4) 0.0014(4)
O1 O2- 0.0149(13) 0.0229(13) 0.0177(12) 0.000 -0.0043(9) 0.000
O2 O2- 0.0188(9) 0.0103(8) 0.0109(7) -0.0003(6) 0.0000(6) 0.0011(6)
O3 O2- 0.0158(12) 0.0220(13) 0.0145(11) 0.000 0.0044(9) 0.000
O4 O2- 0.0072(7) 0.0113(8) 0.0178(8) 0.0012(6) -0.0010(6) -0.0022(6)
O5 O2- 0.0086(8) 0.0123(9) 0.0305(10) -0.0005(7) 0.0003(6) -0.0077(7)
O6 O2- 0.0090(8) 0.0078(8) 0.0264(9) -0.0007(7) 0.0045(6) -0.0002(6)
O7 O2- 0.0081(8) 0.0108(8) 0.0164(8) 0.0006(6) 0.0000(6) -0.0037(6)
O8 O2- 0.0181(12) 0.0080(11) 0.0095(10) 0.000 -0.0006(8) 0.000
B1 B3+ 0.0086(12) 0.0091(11) 0.0118(11) 0.0011(9) 0.0009(9) -0.0027(9)
B2 B3+ 0.0082(12) 0.0093(11) 0.0140(11) 0.0005(9) 0.0004(10) 0.0022(9)
B3 B3+ 0.0092(12) 0.0099(12) 0.0131(11) 0.0002(9) 0.0003(9) -0.0002(9)
#End of data_416726-ICSD


