data_410854-ICSD
#?2014 by Fachinformationszentrum Karlsruhe, and the U.S. Secretary of 
#Commerce on behalf of the United States.  All rights reserved.
_database_code_ICSD                410854
_audit_creation_date               2002/04/01
_chemical_name_systematic          'Pentasilver Ditelluride Chloride'
_chemical_formula_structural       'Ag5 Te2 Cl'
_chemical_formula_sum              'Ag5 Cl1 Te2'
_publ_section_title
;
Die Kristallstruktur der Tieftemperaturmodifikation von Ag5 Te2 Cl
;
loop_
_citation_id
_citation_journal_abbrev
_citation_year
_citation_journal_volume
_citation_page_first
_citation_page_last
_citation_journal_id_ASTM
primary 'Zeitschrift fuer Anorganische und Allgemeine Chemie (1950) (DE)'
 2000 626 89 93 ZAACAB
_publ_author_name
;
Doert, T.;Roensch, E.;Schnieders, F.;Boettcher, P.;Sieler, J.
;
_cell_length_a                     19.3590(10)
_cell_length_b                     7.713(1)
_cell_length_c                     19.5330(10)
_cell_angle_alpha                  90.
_cell_angle_beta                   90.6(1)
_cell_angle_gamma                  90.
_cell_volume                       2916.43
_cell_formula_units_Z              16
_symmetry_space_group_name_H-M     'P 1 21/c 1'
_symmetry_Int_Tables_number        14
_refine_ls_R_factor_all            .0381
loop_
_symmetry_equiv_pos_site_id
_symmetry_equiv_pos_as_xyz
  1	'x, -y+.5, z+.5'
  2	'-x, -y, -z'
  3	'-x, y+.5, -z+.5'
  4	'x, y, z'
loop_
_atom_type_symbol
_atom_type_oxidation_number
Ag1+	1
Cl1-	-1
Te2-	-2
loop_
_atom_site_label
_atom_site_type_symbol
_atom_site_symmetry_multiplicity
_atom_site_Wyckoff_symbol
_atom_site_fract_x
_atom_site_fract_y
_atom_site_fract_z
_atom_site_occupancy
_atom_site_attached_hydrogens
Te1 Te2- 4 e 0.05365(3) 0.27650(8) 0.45865(3) 1. 0 
Te2 Te2- 4 e 0.18525(3) -.30516(8) 0.44723(3) 1. 0 
Te3 Te2- 4 e 0.32132(3) 0.22264(8) 0.56347(3) 1. 0 
Te4 Te2- 4 e 0.03391(3) 0.73007(8) 0.27960(3) 1. 0 
Te5 Te2- 4 e 0.29247(3) 0.76701(8) 0.70186(3) 1. 0 
Te6 Te2- 4 e 0.52715(3) 0.72870(8) 0.78604(3) 1. 0 
Te7 Te2- 4 e 0.21185(3) 0.26742(8) 0.29586(3) 1. 0 
Te8 Te2- 4 e 0.43677(3) -.23176(8) 0.54151(3) 1. 0 
Cl1 Cl1- 4 e 0.12343(12) 0.0240(3) 0.62516(13) 1. 0 
Cl2 Cl1- 4 e 0.12052(13) 0.4965(3) 0.62335(13) 1. 0 
Cl3 Cl1- 4 e 0.37650(13) 0.0267(3) 0.37849(13) 1. 0 
Cl4 Cl1- 4 e 0.37007(12) 0.5256(3) 0.37330(13) 1. 0 
Ag1 Ag1+ 4 e 0.25759(5) 0.40813(11) 0.67024(5) 1. 0 
Ag2 Ag1+ 4 e 0.38725(5) 0.51124(11) 0.74049(5) 1. 0 
Ag3 Ag1+ 4 e 0.50185(5) 0.61103(12) 0.92034(5) 1. 0 
Ag4 Ag1+ 4 e 0.43656(4) 0.38740(12) 0.49870(5) 1. 0 
Ag5 Ag1+ 4 e 0.33907(5) 1.12428(12) 0.73732(6) 1. 0 
Ag6 Ag1+ 4 e 0.50853(5) 1.02230(12) 0.86765(5) 1. 0 
Ag7 Ag1+ 4 e 0.30902(4) -.42331(11) 0.52529(5) 1. 0 
Ag8 Ag1+ 4 e 0.43779(4) 0.86257(10) 0.68270(4) 1. 0 
Ag9 Ag1+ 4 e 0.16824(4) 0.61291(11) 0.26242(5) 1. 0 
Ag10 Ag1+ 4 e -.06992(4) 0.10508(11) 0.49887(4) 1. 0 
Ag11 Ag1+ 4 e 0.01566(4) 0.01711(10) 0.36412(4) 1. 0 
Ag12 Ag1+ 4 e 0.12983(5) 0.98881(11) 0.26016(4) 1. 0 
Ag13 Ag1+ 4 e 0.01197(5) 0.62468(11) 0.41329(4) 1. 0 
Ag14 Ag1+ 4 e 0.27040(5) -.18921(14) 0.34004(5) 1. 0 
Ag15 Ag1+ 4 e 0.16591(4) 0.04765(10) 0.40437(4) 1. 0 
Ag16 Ag1+ 4 e 0.28821(5) -.06885(11) 0.48785(5) 1. 0 
Ag17 Ag1+ 4 e 0.28171(5) 0.29087(11) 0.42299(4) 1. 0 
Ag18 Ag1+ 4 e 0.06748(4) 0.3586(1) 0.31238(4) 1. 0 
Ag19 Ag1+ 4 e 0.20208(4) -.23679(11) 0.58983(4) 1. 0 
Ag20 Ag1+ 4 e 0.18076(4) 0.26225(13) 0.53146(5) 1. 0 

loop_
_atom_site_aniso_label
_atom_site_aniso_type_symbol
_atom_site_aniso_U_11
_atom_site_aniso_U_22
_atom_site_aniso_U_33
_atom_site_aniso_U_12
_atom_site_aniso_U_13
_atom_site_aniso_U_23
Te1 Te2- 0.0099(3) 0.0129(3) 0.0112(3) 0.0003(2) 0.0004(3) -.0003(2)
Te2 Te2- 0.0110(3) 0.0135(3) 0.0144(3) -.0009(3) -.0012(3) -.0012(2)
Te3 Te2- 0.0123(3) 0.0140(3) 0.0123(3) -.0002(3) -.0006(3) -.0007(2)
Te4 Te2- 0.0093(3) 0.0126(3) 0.0128(3) -.0002(2) -.0011(3) 0.0000(2)
Te5 Te2- 0.0093(3) 0.0157(3) 0.0151(3) 0.0003(3) 0.0009(3) -.0004(3)
Te6 Te2- 0.0110(3) 0.0124(3) 0.0158(3) -.0002(2) -.0025(3) -.0001(3)
Te7 Te2- 0.0098(3) 0.0138(3) 0.0129(3) -.0011(2) 0.0008(3) 0.0015(2)
Te8 Te2- 0.0115(3) 0.0145(3) 0.0117(3) 0.0016(2) 0.0003(3) -.0005(2)
Cl1 Cl1- 0.0143(12) 0.0211(12) 0.0187(13) 0.0014(10) -.0005(11) -.0008(10)
Cl2 Cl1- 0.0143(12) 0.0229(13) 0.0182(13) -.0006(10) 0.0012(10) -.002(1)
Cl3 Cl1- 0.0147(12) 0.0228(13) 0.0177(13) 0.0015(10) 0.0016(11) 0.0004(10)
Cl4 Cl1- 0.0137(12) 0.0192(12) 0.0185(13) -.0011(10) 0.0011(10) 0.0012(10)
Ag1 Ag1+ 0.0273(5) 0.0289(5) 0.0248(5) 0.0028(4) 0.0053(4) -.0042(4)
Ag2 Ag1+ 0.0259(5) 0.0265(5) 0.0289(5) 0.0120(4) 0.0027(4) 0.0028(4)
Ag3 Ag1+ 0.0311(5) 0.0330(5) 0.0224(5) -.0015(4) 0.0068(4) -.0064(4)
Ag4 Ag1+ 0.0185(4) 0.0296(5) 0.0457(6) 0.0060(4) 0.0137(4) 0.0072(4)
Ag5 Ag1+ 0.0203(5) 0.0258(5) 0.0674(8) 0.0026(4) 0.0209(5) 0.0064(5)
Ag6 Ag1+ 0.0357(5) 0.0342(5) 0.0341(6) -.0136(4) 0.0102(5) -.0183(4)
Ag7 Ag1+ 0.0212(5) 0.0186(4) 0.0554(7) 0.0058(4) -.0010(4) -.0001(4)
Ag8 Ag1+ 0.0209(4) 0.0213(4) 0.0173(4) -.0016(3) -.0029(4) -.0008(3)
Ag9 Ag1+ 0.0143(4) 0.0231(4) 0.0497(6) 0.0001(3) 0.0082(4) 0.0059(4)
Ag10 Ag1+ 0.0158(4) 0.0291(5) 0.0218(4) -.0029(3) 0.0044(4) -.0008(4)
Ag11 Ag1+ 0.0168(4) 0.0217(4) 0.0234(5) -.0013(3) -.0001(3) -.0081(3)
Ag12 Ag1+ 0.0308(5) 0.0258(5) 0.0191(4) -.0161(4) 0.0035(4) -.0025(4)
Ag13 Ag1+ 0.0354(5) 0.0241(5) 0.0171(4) -.0024(4) 0.0067(4) 0.0003(3)
Ag14 Ag1+ 0.0342(6) 0.0558(6) 0.0236(5) -.0139(5) 0.0132(5) -.0135(5)
Ag15 Ag1+ 0.0172(4) 0.0203(4) 0.0208(4) -.0027(3) 0.0006(3) 0.0057(3)
Ag16 Ag1+ 0.0329(5) 0.0200(4) 0.0249(5) -.0114(4) -.0074(4) 0.0008(3)
Ag17 Ag1+ 0.0254(5) 0.0317(5) 0.0175(4) -.0116(4) -.0053(4) 0.0066(4)
Ag18 Ag1+ 0.0160(4) 0.0223(4) 0.0202(4) -.0017(3) -.0030(3) 0.0017(3)
Ag19 Ag1+ 0.0219(4) 0.0330(5) 0.0187(4) 0.0024(4) -.0014(4) -.0027(4)
Ag20 Ag1+ 0.0136(4) 0.0568(6) 0.0220(5) 0.0044(4) -.0025(4) -.0080(4)
#End of data_410854-ICSD


