data_90908-ICSD
#?2014 by Fachinformationszentrum Karlsruhe, and the U.S. Secretary of 
#Commerce on behalf of the United States.  All rights reserved.
_database_code_ICSD                90908
_audit_creation_date               2002/04/01
_audit_update_record               2005/10/01
_chemical_name_systematic          'Bismuth Dimagnesium Vanadate(V)'
_chemical_formula_structural       'Bi Mg2 (V O6)'
_chemical_formula_sum              'Bi1 Mg2 O6 V1'
_publ_section_title
;
Variable temperature X-ray diffraction study of bismuth magnesium 
vanadate, Bi Mg2 V O6
;
loop_
_citation_id
_citation_journal_abbrev
_citation_year
_citation_journal_volume
_citation_page_first
_citation_page_last
_citation_journal_id_ASTM
primary 'Journal of Solid State Chemistry' 2000 149 143 148 JSSCBI
2 'Golden Book of Phase Transitions, Wroclaw' 2002 1 1 123 GBOPT5
_publ_author_name                  'Radosavljevic, I.;Sleight, A.W.'
_cell_length_a                     5.4449(4)
_cell_length_b                     7.9169(5)
_cell_length_c                     12.2522(7)
_cell_angle_alpha                  90.
_cell_angle_beta                   90.
_cell_angle_gamma                  90.
_cell_volume                       528.15
_cell_formula_units_Z              4
_symmetry_space_group_name_H-M     'A m m a'
_symmetry_Int_Tables_number        63
_refine_ls_R_factor_all            .083
loop_
_symmetry_equiv_pos_site_id
_symmetry_equiv_pos_as_xyz
  1	'-x+.5, -y, z'
  2	'x+.5, -y, -z'
  3	'x, -y, z'
  4	'-x, -y, -z'
  5	'x+.5, y, -z'
  6	'-x+.5, y, z'
  7	'-x, y, -z'
  8	'x, y, z'
  9	'-x+.5, -y+.5, z+.5'
 10	'x+.5, -y+.5, -z+.5'
 11	'x, -y+.5, z+.5'
 12	'-x, -y+.5, -z+.5'
 13	'x+.5, y+.5, -z+.5'
 14	'-x+.5, y+.5, z+.5'
 15	'-x, y+.5, -z+.5'
 16	'x, y+.5, z+.5'
loop_
_atom_type_symbol
_atom_type_oxidation_number
Bi3+	3
Mg2+	2
O2-	-2
V5+	5
loop_
_atom_site_label
_atom_site_type_symbol
_atom_site_symmetry_multiplicity
_atom_site_Wyckoff_symbol
_atom_site_fract_x
_atom_site_fract_y
_atom_site_fract_z
_atom_site_occupancy
_atom_site_attached_hydrogens
_atom_site_U_iso_or_equiv
Bi1 Bi3+ 4 c 0.75 0 0.9081(9) 1. 0 0.012(1) 
V1 V5+ 4 c 0.25 0 0.6965(5) 1. 0 0.014(2) 
Mg1 Mg2+ 8 g 0.75 0.309(2) 0.0885(7) 1. 0 0.020(3) 
O1 O2- 8 f -.014(5) 0 0.617(2) 1. 0 0.024(6) 
O2 O2- 8 e 0 0.166(2) 0 1. 0 0.013(3) 
O3 O2- 8 g 0.25 0.833(4) 0.780(3) 1. 0 0.050(8) 

#End of data_90908-ICSD


