data_164198-ICSD
#?2014 by Fachinformationszentrum Karlsruhe, and the U.S. Secretary of 
#Commerce on behalf of the United States.  All rights reserved.
_database_code_ICSD                164198
_audit_creation_date               2010/02/01
_chemical_name_systematic          'Silver Niobate'
_chemical_formula_structural       'Ag (Nb O3)'
_chemical_formula_sum              'Ag1 Nb1 O3'
_publ_section_title
;
Structural changes underlying the diffuse dielectric response in Ag 
Nb O3
;
loop_
_citation_id
_citation_journal_abbrev
_citation_year
_citation_journal_volume
_citation_page_first
_citation_page_last
_citation_journal_id_ASTM
primary 'Physical Review, Serie 3. B - Condensed Matter (18,1978-)'
 2009 79 104113-1 104113-14 PRBMDO
_publ_author_name
;
Levin, I.;Krayzman, V.;Woicik, J.C.;Karapetrova, J.;Proffen, 
T.;Tucker, M.G.;Reaney, I.M.
;
_cell_length_a                     5.55165(4)
_cell_length_b                     5.60804(5)
_cell_length_c                     15.6503(1)
_cell_angle_alpha                  90.
_cell_angle_beta                   90.
_cell_angle_gamma                  90.
_cell_volume                       487.25
_cell_formula_units_Z              8
_symmetry_space_group_name_H-M     'P b c m'
_symmetry_Int_Tables_number        57
_refine_ls_R_factor_all            .0324
loop_
_symmetry_equiv_pos_site_id
_symmetry_equiv_pos_as_xyz
  1	'x, -y+.5, z+.5'
  2	'-x, y+.5, z'
  3	'x, y, -z+.5'
  4	'-x, -y, -z'
  5	'-x, y+.5, -z+.5'
  6	'x, -y+.5, -z'
  7	'-x, -y, z+.5'
  8	'x, y, z'
loop_
_atom_type_symbol
_atom_type_oxidation_number
Ag1+	1
Nb5+	5
O2-	-2
loop_
_atom_site_label
_atom_site_type_symbol
_atom_site_symmetry_multiplicity
_atom_site_Wyckoff_symbol
_atom_site_fract_x
_atom_site_fract_y
_atom_site_fract_z
_atom_site_occupancy
_atom_site_attached_hydrogens
_atom_site_U_iso_or_equiv
Ag1 Ag1+ 4 d 0.7574(6) 0.2332(3) 0.750 1. 0 0.0076 
Ag2 Ag1+ 4 c 0.7567(7) 0.250 0.5 1. 0 0.0158 
Nb1 Nb5+ 8 e 0.7456(4) 0.7244(1) 0.6258(2) 1. 0 0.0052 
O1 O2- 4 d 0.7008(5) 0.7636(3) 0.750 1. 0 0.0049 
O2 O2- 4 c 0.8113(5) 0.750 0.5 1. 0 0.0116 
O3 O2- 8 e 0.4689(2) 0.5351(2) 0.6109(1) 1. 0 0.0082 
O4 O2- 8 e 0.9672(1) 0.4714(2) 0.6386(1) 1. 0 0.0082 

loop_
_atom_site_aniso_label
_atom_site_aniso_type_symbol
_atom_site_aniso_U_11
_atom_site_aniso_U_22
_atom_site_aniso_U_33
_atom_site_aniso_U_12
_atom_site_aniso_U_13
_atom_site_aniso_U_23
Ag1 Ag1+ 0.009(1) 0.0036(8) 0.010(1) -0.0011(6) 0. 0.
Ag2 Ag1+ 0.010(1) 0.031(1) 0.006(1) 0. 0. -0.0008(7)
Nb1 Nb5+ 0.0021(2) 0.0056(3) 0.0078(2) 0.0006(4) -0.0005(3) 0.0016(5)
O1 O2- 0.0115(9) 0.005(1) 0.005 -0.0029(5) 0. 0.
O2 O2- 0.011(1) 0.022(1) 0.001(1) 0. 0. -0.0025(8)
O3 O2- 0.0061(2) 0.0073(2) 0.0112(2) -0.0008(4) -0.0033(4) -0.00001(2)
O4 O2- 0.0061(2) 0.0073(2) 0.0112(2) -0.0008(4) -0.0033(4) -0.00001(2)
#End of data_164198-ICSD


