data_246191-ICSD
#?2014 by Fachinformationszentrum Karlsruhe, and the U.S. Secretary of 
#Commerce on behalf of the United States.  All rights reserved.
_database_code_ICSD                246191
_audit_creation_date               2009/02/01
_chemical_name_systematic
;
Dilithium Tris(uranyl) Bis(diphosphate)
;
_chemical_formula_structural       'Li2 ((U O2)3 (P2 O7)2)'
_chemical_formula_sum              'Li2 O20 P4 U3'
_publ_section_title
;
Crystal chemistry pf anhydrous Li uranyl phosphates and arsenates. I. 
Polymorphism and structure topology: Synthesis and crystal structures 
of alpha-Li [(U O2) (P O4)], alpha-Li [(U O2) (As O4)], beta-Li [(U 
O2) (P O4)] and Li2 [(U O2)3 (P2 O7)2]
;
loop_
_citation_id
_citation_journal_abbrev
_citation_year
_citation_journal_volume
_citation_journal_issue
_citation_page_first
_citation_page_last
_citation_journal_id_ASTM
primary 'Journal of Solid State Chemistry' 2008 181 11 3010 3015 JSSCBI
_publ_author_name
;
Alekseev, E.V.;Krivovichev, S.V.;Malcherek, T.;Depmeier, W.
;
_cell_length_a                     5.312(1)
_cell_length_b                     6.696(1)
_cell_length_c                     12.542(1)
_cell_angle_alpha                  94.532(9)
_cell_angle_beta                   99.059(8)
_cell_angle_gamma                  110.189(7)
_cell_volume                       409.17
_cell_formula_units_Z              1
_symmetry_space_group_name_H-M     'P -1'
_symmetry_Int_Tables_number        2
_refine_ls_R_factor_all            .0565
loop_
_symmetry_equiv_pos_site_id
_symmetry_equiv_pos_as_xyz
  1	'-x, -y, -z'
  2	'x, y, z'
loop_
_atom_type_symbol
_atom_type_oxidation_number
Li1+	1
O2-	-2
P5+	5
U6+	6
loop_
_atom_site_label
_atom_site_type_symbol
_atom_site_symmetry_multiplicity
_atom_site_Wyckoff_symbol
_atom_site_fract_x
_atom_site_fract_y
_atom_site_fract_z
_atom_site_occupancy
_atom_site_attached_hydrogens
_atom_site_U_iso_or_equiv
U1 U6+ 1 c 0 0.5 0 1. 0 0.0158(1) 
U2 U6+ 2 i -0.87805(7) 0.15600(6) 0.37048(3) 1. 0 0.0146(1) 
P1 P5+ 2 i -0.9896(5) -0.3304(4) 0.3565(2) 1. 0 0.0138(6) 
P2 P5+ 2 i -0.4776(5) 0.4286(5) 0.1864(2) 1. 0 0.0171(6) 
Li1 Li1+ 2 i -0.602(4) -0.074(4) 0.193(2) 1. 0 0.027(5) 
O1 O2- 2 i -0.987(2) -0.187(1) 0.4578(6) 1. 0 0.017(2) 
O2 O2- 2 i -0.307(2) 0.565(1) 0.3013(7) 1. 0 0.017(2) 
O3 O2- 2 i -0.849(2) -0.172(1) 0.2858(6) 1. 0 0.018(2) 
O4 O2- 2 i -0.882(2) -0.501(1) 0.3759(6) 1. 0 0.017(2) 
O5 O2- 2 i -1.225(2) 0.054(1) 0.2913(8) 1. 0 0.024(2) 
O6 O2- 2 i -0.685(2) 0.223(1) 0.2114(7) 1. 0 0.019(2) 
O7 O2- 2 i -0.616(2) 0.575(1) 0.1334(7) 1. 0 0.022(2) 
O8 O2- 2 i -0.543(2) 0.2460(2) 0.4444(8) 1. 0 0.029(2) 
O9 O2- 2 i -0.284(2) 0.383(2) 0.1208(7) 1. 0 0.026(2) 
O10 O2- 2 i 0.046(2) 0.771(2) 0.0406(8) 1. 0 0.034(2) 

#End of data_246191-ICSD


