data_411171-ICSD
#?2014 by Fachinformationszentrum Karlsruhe, and the U.S. Secretary of 
#Commerce on behalf of the United States.  All rights reserved.
_database_code_ICSD                411171
_audit_creation_date               2002/04/01
_chemical_name_systematic          'Aluminium Potassium Telluride'
_chemical_formula_structural       'Al K Te2'
_chemical_formula_sum              'Al1 K1 Te2'
_publ_section_title
;
Synthesis and structures of ternary chalcogenides of aluminium and 
gallium with stacking faults: K M Q2 (M= Al, Ga; Q= Se, Te)
;
loop_
_citation_id
_citation_journal_abbrev
_citation_year
_citation_journal_volume
_citation_page_first
_citation_page_last
_citation_journal_id_ASTM
primary 'Journal of Solid State Chemistry' 2000 149 242 251 JSSCBI
_publ_author_name                  'Kim, J.;Hughbanks, T.'
_cell_length_a                     11.808(2)
_cell_length_b                     11.812(2)
_cell_length_c                     16.465(3)
_cell_angle_alpha                  90.
_cell_angle_beta                   100.32(3)
_cell_angle_gamma                  90.
_cell_volume                       2259.32
_cell_formula_units_Z              16
_symmetry_space_group_name_H-M     'C 1 2/c 1'
_symmetry_Int_Tables_number        15
_refine_ls_R_factor_all            .0763
loop_
_symmetry_equiv_pos_site_id
_symmetry_equiv_pos_as_xyz
  1	'x, -y, z+.5'
  2	'-x, -y, -z'
  3	'-x, y, -z+.5'
  4	'x, y, z'
  5	'x+.5, -y+.5, z+.5'
  6	'-x+.5, -y+.5, -z'
  7	'-x+.5, y+.5, -z+.5'
  8	'x+.5, y+.5, z'
loop_
_atom_type_symbol
_atom_type_oxidation_number
Al3+	3
K1+	1
Te2-	-2
loop_
_atom_site_label
_atom_site_type_symbol
_atom_site_symmetry_multiplicity
_atom_site_Wyckoff_symbol
_atom_site_fract_x
_atom_site_fract_y
_atom_site_fract_z
_atom_site_occupancy
_atom_site_attached_hydrogens
Te1 Te2- 4 e 0 0.5713(23) 0.25 1. 0 
Te2 Te2- 4 e 0.5 0.5542(23) 0.25 1. 0 
Te3 Te2- 8 f 0.2037(3) 0.0624(3) 0.0635(2) 1. 0 
Te4 Te2- 8 f 0.2597(16) 0.3124(2) 0.2483(18) 1. 0 
Te5 Te2- 8 f 0.0468(4) 0.3125(3) 0.4356(2) 1. 0 
Al1 Al3+ 8 f 0.6029(9) 0.6862(11) 0.1608(5) 1. 0 
Al2 Al3+ 8 f 0.1474(11) 0.4397(12) 0.3380(6) 1. 0 
K1 K1+ 8 f 0.4668(10) 0.3132(9) 0.1135(6) 1. 0 
K2 K1+ 8 f 0.2855(10) 0.061(1) 0.3876(6) 1. 0 

loop_
_atom_site_aniso_label
_atom_site_aniso_type_symbol
_atom_site_aniso_U_11
_atom_site_aniso_U_22
_atom_site_aniso_U_33
_atom_site_aniso_U_12
_atom_site_aniso_U_13
_atom_site_aniso_U_23
Te1 Te2- 0.020(5) 0.011(6) 0.027(3) 0 0.003(3) 0
Te2 Te2- 0.024(5) 0.010(6) 0.032(4) 0 0.009(3) 0
Te3 Te2- 0.038(2) 0.044(2) 0.0178(13) 0.033(2) 0.0011(11) 0.0027(12)
Te4 Te2- 0.008(5) 0.0242(12) 0.031(2) -.001(2) 0.008(3) -.005(3)
Te5 Te2- 0.047(2) 0.044(2) 0.0159(13) -.027(2) 0.0053(13) 0.0028(14)
Al1 Al3+ 0.012(6) 0.019(6) 0.006(4) 0.001(5) 0.003(4) -.005(4)
Al2 Al3+ 0.023(7) 0.013(6) 0.035(7) -.008(5) 0.006(5) -.006(5)
K1 K1+ 0.048(7) 0.047(7) 0.038(6) 0.029(5) 0.003(5) -.014(5)
K2 K1+ 0.059(7) 0.067(8) 0.021(5) -.028(6) 0.010(4) -.018(5)
#End of data_411171-ICSD


