data_84294-ICSD
#?2014 by Fachinformationszentrum Karlsruhe, and the U.S. Secretary of 
#Commerce on behalf of the United States.  All rights reserved.
_database_code_ICSD                84294
_audit_creation_date               1999/01/19
_chemical_name_systematic
;
Dipotassium Catena-tetrathioargentotantalate
;
_chemical_formula_structural       'K2 (Ag Ta S4)'
_chemical_formula_sum              'Ag1 K2 S4 Ta1'
_publ_section_title
;
New complex sulfides of the heavy Va-metals with pseudo-
onedimensional structures: preparation and structural 
characterization of K2 Ag Nb S4, Cs2 Ag Nb S4, K2 Ag Ta S4, Rb2 Ag Ta 
S4 and Cs2 Ag Ta S4
;
loop_
_citation_id
_citation_journal_abbrev
_citation_year
_citation_journal_volume
_citation_page_first
_citation_page_last
_citation_journal_id_ASTM
primary 'European Journal of Solid State Inorganic Chemistry'
 1997 34 1119 1131 EJSCE5
_publ_author_name                  'Klepp, K.O.;Gabl, G.'
_cell_length_a                     5.929(1)
_cell_length_b                     13.197(2)
_cell_length_c                     22.6450(80)
_cell_angle_alpha                  90.
_cell_angle_beta                   90.
_cell_angle_gamma                  90.
_cell_volume                       1771.86
_cell_formula_units_Z              8
_symmetry_space_group_name_H-M     'F d d d Z'
_symmetry_Int_Tables_number        70
_refine_ls_R_factor_all            .032
loop_
_symmetry_equiv_pos_site_id
_symmetry_equiv_pos_as_xyz
  1	'x+.75, y+.75, -z'
  2	'x+.75, -y, z+.75'
  3	'-x, y+.75, z+.75'
  4	'-x, -y, -z'
  5	'-x+.25, -y+.25, z'
  6	'-x+.25, y, -z+.25'
  7	'x, -y+.25, -z+.25'
  8	'x, y, z'
  9	'x+.75, y+.25, -z+.5'
 10	'x+.25, y+.75, -z+.5'
 11	'x+.25, y+.25, -z'
 12	'x+.75, -y+.5, z+.25'
 13	'x+.25, -y, z+.25'
 14	'x+.25, -y+.5, z+.75'
 15	'-x, y+.25, z+.25'
 16	'-x+.5, y+.75, z+.25'
 17	'-x+.5, y+.25, z+.75'
 18	'-x, -y+.5, -z+.5'
 19	'-x+.5, -y, -z+.5'
 20	'-x+.5, -y+.5, -z'
 21	'-x+.25, -y+.75, z+.5'
 22	'-x+.75, -y+.25, z+.5'
 23	'-x+.75, -y+.75, z'
 24	'-x+.25, y+.5, -z+.75'
 25	'-x+.75, y, -z+.75'
 26	'-x+.75, y+.5, -z+.25'
 27	'x, -y+.75, -z+.75'
 28	'x+.5, -y+.25, -z+.75'
 29	'x+.5, -y+.75, -z+.25'
 30	'x, y+.5, z+.5'
 31	'x+.5, y, z+.5'
 32	'x+.5, y+.5, z'
loop_
_atom_type_symbol
_atom_type_oxidation_number
Ag1+	1
K1+	1
S2-	-2
Ta5+	5
loop_
_atom_site_label
_atom_site_type_symbol
_atom_site_symmetry_multiplicity
_atom_site_Wyckoff_symbol
_atom_site_fract_x
_atom_site_fract_y
_atom_site_fract_z
_atom_site_occupancy
_atom_site_attached_hydrogens
K1 K1+ 16 g 0.875 0.875 0.5559(2) 1. 0 
Ag1 Ag1+ 8 a 0.875 0.875 0.875 1. 0 
Ta1 Ta5+ 8 b 0.875 0.875 0.375 1. 0 
S1 S2- 32 h 0.8356(5) 0.0217(2) 0.0667(1) 1. 0 

loop_
_atom_site_aniso_label
_atom_site_aniso_type_symbol
_atom_site_aniso_B_11
_atom_site_aniso_B_22
_atom_site_aniso_B_33
_atom_site_aniso_B_12
_atom_site_aniso_B_13
_atom_site_aniso_B_23
K1 K1+ 6.5(2) 3.9(2) 2.2(1) -2.0(2) 0 0
Ag1 Ag1+ 2.17(6) 3.60(8) 5.6(1) 0 0 0
Ta1 Ta5+ 1.85(3) 1.57(3) 1.35(3) 0 0 0
S1 S2- 2.5(1) 2.8(1) 2.9(1) -.2(1) 0.7(1) -.9(1)
#End of data_84294-ICSD


