data_88004-ICSD
#?2014 by Fachinformationszentrum Karlsruhe, and the U.S. Secretary of 
#Commerce on behalf of the United States.  All rights reserved.
_database_code_ICSD                88004
_audit_creation_date               2001/07/16
_chemical_name_systematic
;
Dirubidium Hexaselenoargentotriarsenate(III)
;
_chemical_formula_structural       'Rb2 (Ag As3 Se6)'
_chemical_formula_sum              'Ag1 As3 Rb2 Se6'
_publ_section_title
;
Condensation of pyramidal [As Se3](3-) anions for the construction of 
polymeric networks: solventothermal synthesis of K3 Ag As2 Se5 
.0.25(Me O H), K2 Ag As3 Se6 and Rb2 Ag As3 Se6
;
loop_
_citation_id
_citation_journal_abbrev
_citation_year
_citation_journal_volume
_citation_page_first
_citation_page_last
_citation_journal_id_ASTM
primary 'Inorganic Chemistry' 1999 38 3863 3870 INOCAJ
_publ_author_name                  'Wachhold, M.;Kanatzidis, M.G.'
_cell_length_a                     12.717(2)
_cell_length_b                     7.7329(8)
_cell_length_c                     14.368(2)
_cell_angle_alpha                  90.
_cell_angle_beta                   95.745(2)
_cell_angle_gamma                  90.
_cell_volume                       1405.84
_cell_formula_units_Z              4
_symmetry_space_group_name_H-M     'P 1 21/n 1'
_symmetry_Int_Tables_number        14
_refine_ls_R_factor_all            .1
loop_
_symmetry_equiv_pos_site_id
_symmetry_equiv_pos_as_xyz
  1	'-x+.5, y+.5, -z+.5'
  2	'-x, -y, -z'
  3	'x+.5, -y+.5, z+.5'
  4	'x, y, z'
loop_
_atom_type_symbol
_atom_type_oxidation_number
Ag1+	1
As3+	3
Rb1+	1
Se2-	-2
loop_
_atom_site_label
_atom_site_type_symbol
_atom_site_symmetry_multiplicity
_atom_site_Wyckoff_symbol
_atom_site_fract_x
_atom_site_fract_y
_atom_site_fract_z
_atom_site_occupancy
_atom_site_attached_hydrogens
_atom_site_U_iso_or_equiv
Rb1 Rb1+ 4 e 0.3486(1) 0.8956(1) 0.7675(1) 1. 0 0.032(1) 
Rb2 Rb1+ 4 e 0.1651(1) 0.3706(1) 0.3893(1) 1. 0 0.030(1) 
Ag1 Ag1+ 4 e 0.1057(1) -.0050(1) 0.5749(1) 1. 0 0.038(1) 
As1 As3+ 4 e 0.8714(1) 0.0894(1) 0.6556(1) 1. 0 0.021(1) 
As2 As3+ 4 e 0.0284(1) -.0415(1) 0.8685(1) 1. 0 0.022(1) 
As3 As3+ 4 e 0.1161(1) 0.3380(1) 0.0077(1) 1. 0 0.022(1) 
Se1 Se2- 4 e 0.7040(1) 0.2375(1) 0.6606(1) 1. 0 0.025(1) 
Se2 Se2- 4 e 0.0369(1) 0.7400(1) 0.4474(1) 1. 0 0.024(1) 
Se3 Se2- 4 e -.0768(1) 0.2107(1) 0.8088(1) 1. 0 0.024(1) 
Se4 Se2- 4 e 0.0746(1) 0.8268(1) 0.7322(1) 1. 0 0.027(1) 
Se5 Se2- 4 e 0.1926(1) 0.1088(1) 0.9186(1) 1. 0 0.025(1) 
Se6 Se2- 4 e 0.2976(1) 0.0814(1) 0.5412(1) 1. 0 0.028(1) 

#End of data_88004-ICSD


