data_710079-ICSD
#?2014 by Fachinformationszentrum Karlsruhe, and the U.S. Secretary of 
#Commerce on behalf of the United States.  All rights reserved.
_database_code_ICSD                710079
_audit_creation_date               2012/08/01
_chemical_name_systematic
;
Potassium Manganese Diaqua Borodiphosphate Hydrate
;
_chemical_formula_structural       'K (Mn (H2 O)2 (B P2 O8)) (H2 O)'
_chemical_formula_sum              'H6 B1 K1 Mn1 O11 P2'
_publ_section_title
;
Crystal structure of potassium diaquamanganese(II) borophosphate 
monohydrate, K [Mn (H2 O)2 (B P2 O8)] ¨² H2 O
;
loop_
_citation_id
_citation_journal_abbrev
_citation_year
_citation_journal_volume
_citation_journal_issue
_citation_page_first
_citation_page_last
_citation_journal_id_ASTM
primary 'Zeitschrift fuer Kristallographie - New Crystal Structures'
 2012 227 1 3 4 ZKNSFT
_publ_author_name                  'Wang Mingzhen'
_cell_length_a                     9.683(4)
_cell_length_b                     9.683(4)
_cell_length_c                     16.139(6)
_cell_angle_alpha                  90.00
_cell_angle_beta                   90.00
_cell_angle_gamma                  120.00
_cell_volume                       1310.47
_cell_formula_units_Z              6
_symmetry_space_group_name_H-M     'P 65 2 2'
_symmetry_Int_Tables_number        179
_refine_ls_R_factor_all            .0566
loop_
_symmetry_equiv_pos_site_id
_symmetry_equiv_pos_as_xyz
  1	'x, x-y, -z+.8333'
  2	'-x+y, y, -z+.5'
  3	'-y, -x, -z+.1667'
  4	'-x, -x+y, -z+.3333'
  5	'x-y, -y, -z'
  6	'y, x, -z+.6667'
  7	'x-y, x, z+.8333'
  8	'y, -x+y, z+.1667'
  9	'-x, -y, z+.5'
 10	'-x+y, -x, z+.3333'
 11	'-y, x-y, z+.6667'
 12	'x, y, z'
loop_
_atom_type_symbol
_atom_type_oxidation_number
B3+	3
H1+	1
K1+	1
Mn2+	2
O2-	-2
P5+	5
loop_
_atom_site_label
_atom_site_type_symbol
_atom_site_symmetry_multiplicity
_atom_site_Wyckoff_symbol
_atom_site_fract_x
_atom_site_fract_y
_atom_site_fract_z
_atom_site_occupancy
_atom_site_attached_hydrogens
_atom_site_U_iso_or_equiv
K1 K1+ 6 b 0.1841(3) 0.3681(7) 0.2500 1 0 0.0754(13) 
Mn1 Mn2+ 6 b 0.44966(10) 0.55034(10) 0.0833 1 0 0.0204(5) 
P1 P5+ 12 c 0.3837(2) 0.1656(2) 0.08391(11) 1 0 0.0125(5) 
B1 B3+ 6 b 0.1495(8) -0.1495(8) 0.0833 1 0 0.0206(17) 
O1 O2- 12 c 0.2131(7) 0.0205(7) 0.0977(3) 1 0 0.0178(12) 
O2 O2- 12 c 0.5100(7) 0.1352(7) 0.1211(3) 1 0 0.0217(13) 
O3 O2- 12 c 0.4124(6) 0.1815(6) -0.0131(3) 1 0 0.0158(11) 
O4 O2- 12 c 0.3798(7) 0.3091(7) 0.1183(3) 1 0 0.0225(13) 
O5 O2- 12 c 0.5038(11) 0.8035(10) 0.0584(5) 1 0 0.0416(19) 
O6 O2- 6 a 0.0000 0.116(3) 0.1667 1 0 0.104(2) 
H1 H1+ 12 c 0.546(16) 0.873(13) 0.095(6) 1 0 0.06(4) 
H2 H1+ 12 c 0.566(4) 0.847(5) 0.022(2) 1 0 -0.031(10) 
H3 H1+ 12 c 0.037(13) 0.090(5) 0.207(5) 1 0 0.06(4) 

loop_
_atom_site_aniso_label
_atom_site_aniso_type_symbol
_atom_site_aniso_U_11
_atom_site_aniso_U_22
_atom_site_aniso_U_33
_atom_site_aniso_U_12
_atom_site_aniso_U_13
_atom_site_aniso_U_23
K1 K1+ 0.0763(15) 0.0754(14) 0.0743(15) 0.0377(7) 0.0012(10) 0.000
Mn1 Mn2+ 0.0196(6) 0.0196(6) 0.0237(8) 0.0111(6) -0.0036(5) -0.0036(5)
P1 P5+ 0.0120(8) 0.0110(8) 0.0128(8) 0.0044(6) -0.0001(6) 0.0007(6)
B1 B3+ 0.0205(17) 0.0205(17) 0.021(2) 0.0103(11) 0.0000(7) 0.0000(7)
O1 O2- 0.0183(15) 0.0170(15) 0.0178(15) 0.0087(10) 0.0000(9) 0.0004(9)
O2 O2- 0.0212(15) 0.0220(15) 0.0224(15) 0.0112(10) -0.0015(9) 0.0014(9)
O3 O2- 0.0156(14) 0.0161(14) 0.0151(14) 0.0076(10) -0.0009(9) 0.0011(9)
O4 O2- 0.0231(15) 0.0219(16) 0.0226(15) 0.0113(10) -0.0004(9) -0.0005(10)
O5 O2- 0.042(2) 0.042(2) 0.042(2) 0.0218(13) -0.0018(10) -0.0001(10)
O6 O2- 0.104(2) 0.104(2) 0.104(3) 0.0519(11) 0.0003(9) 0.0001(5)
#End of data_710079-ICSD


