data_2335-ICSD
#?2014 by Fachinformationszentrum Karlsruhe, and the U.S. Secretary of 
#Commerce on behalf of the United States.  All rights reserved.
_database_code_ICSD                2335
_audit_creation_date               1980/01/01
_audit_update_record               2012/08/01
_chemical_name_systematic
;
Calcium Pentaoxotungstate Dichloride
;
_chemical_formula_structural       'Ca3 W O5 Cl2'
_chemical_formula_sum              'Ca3 Cl2 O5 W1'
_publ_section_title
;
The crystal structure of C A W O5 Cl2 and the configuration of the W 
O5(4-) ion
;
loop_
_citation_id
_citation_journal_abbrev
_citation_year
_citation_journal_volume
_citation_page_first
_citation_page_last
_citation_journal_id_ASTM
primary 'Acta Crystallographica B (24,1968-38,1982)' 1974 30 2587 2593 ACBCAR
_publ_author_name                  'Zikmund, Z.'
_cell_length_a                     11.820(2)
_cell_length_b                     11.132(1)
_cell_length_c                     5.587(1)
_cell_angle_alpha                  90.
_cell_angle_beta                   90.
_cell_angle_gamma                  90.
_cell_volume                       735.14
_cell_formula_units_Z              4
_symmetry_space_group_name_H-M     'P n a m'
_symmetry_Int_Tables_number        62
_refine_ls_R_factor_all            .088
loop_
_symmetry_equiv_pos_site_id
_symmetry_equiv_pos_as_xyz
  1	'x+.5, -y+.5, z'
  2	'x, y, -z+.5'
  3	'-x+.5, y+.5, z+.5'
  4	'-x, -y, -z'
  5	'-x+.5, y+.5, -z'
  6	'-x, -y, z+.5'
  7	'x+.5, -y+.5, -z+.5'
  8	'x, y, z'
loop_
_atom_type_symbol
_atom_type_oxidation_number
Ca2+	2
Cl1-	-1
O2-	-2
W6+	6
loop_
_atom_site_label
_atom_site_type_symbol
_atom_site_symmetry_multiplicity
_atom_site_Wyckoff_symbol
_atom_site_fract_x
_atom_site_fract_y
_atom_site_fract_z
_atom_site_occupancy
_atom_site_attached_hydrogens
W1 W6+ 4 c 0.19152(6) 0.08470(6) 0.25 1. 0 
Ca1 Ca2+ 4 c 0.3415(3) 0.0810(4) 0.75 1. 0 
Ca2 Ca2+ 4 c 0.3611(3) 0.3352(3) 0.25 1. 0 
Ca3 Ca2+ 4 c 0.1661(3) 0.3301(4) 0.75 1. 0 
Cl1 Cl1- 4 c 0.4795(6) 0.0853(7) 0.25 1. 0 
Cl2 Cl1- 4 c 0.4657(4) 0.2876(5) 0.75 1. 0 
O1 O2- 4 c 0.0458(12) 0.0919(14) 0.25 1. 0 
O2 O2- 8 d 0.2405(9) 0.1988(9) 0.4774(20) 1. 0 
O3 O2- 8 d 0.2361(9) -.0322(9) 0.4821(20) 1. 0 

#End of data_2335-ICSD


