data_30945-ICSD
#?2014 by Fachinformationszentrum Karlsruhe, and the U.S. Secretary of 
#Commerce on behalf of the United States.  All rights reserved.
_database_code_ICSD                30945
_audit_creation_date               1986/04/14
_audit_update_record               2011/02/01
_chemical_name_systematic          'Potassium Catenagermanate'
_chemical_formula_structural       'K2 Ge O3'
_chemical_formula_sum              'Ge1 K2 O3'
_publ_section_title
;
Die Kristallstruktur des Kaliummetagermanats, K2 Ge O3
;
loop_
_citation_id
_citation_journal_abbrev
_citation_year
_citation_journal_volume
_citation_page_first
_citation_page_last
_citation_journal_id_ASTM
primary 'Zeitschrift fuer Kristallographie (1979-2010)' 1984 169 63 71 ZEKRDZ
_publ_author_name                  'Halwax, E.;Voellenkle, H.'
_cell_length_a                     23.033(5)
_cell_length_b                     32.887(8)
_cell_length_c                     5.453(1)
_cell_angle_alpha                  90.
_cell_angle_beta                   90.
_cell_angle_gamma                  90.
_cell_volume                       4130.57
_cell_formula_units_Z              40
_symmetry_space_group_name_H-M     'P b c a'
_symmetry_Int_Tables_number        61
_refine_ls_R_factor_all            .09
loop_
_symmetry_equiv_pos_site_id
_symmetry_equiv_pos_as_xyz
  1	'x+.5, y, -z+.5'
  2	'x, -y+.5, z+.5'
  3	'-x+.5, y+.5, z'
  4	'-x, -y, -z'
  5	'-x+.5, -y, z+.5'
  6	'-x, y+.5, -z+.5'
  7	'x+.5, -y+.5, -z'
  8	'x, y, z'
loop_
_atom_type_symbol
_atom_type_oxidation_number
Ge4+	4
K1+	1
O2-	-2
loop_
_atom_site_label
_atom_site_type_symbol
_atom_site_symmetry_multiplicity
_atom_site_Wyckoff_symbol
_atom_site_fract_x
_atom_site_fract_y
_atom_site_fract_z
_atom_site_occupancy
_atom_site_attached_hydrogens
_atom_site_B_iso_or_equiv
Ge1 Ge4+ 8 c 0.12165(8) 0.11840(5) 0.2758(3) 1. 0 1.12(4) 
Ge2 Ge4+ 8 c 0.13539(8) 0.17902(4) 0.7771(3) 1. 0 0.58(4) 
Ge3 Ge4+ 8 c 0.38607(7) 0.02155(4) 0.2721(3) 1. 0 0.88(4) 
Ge4 Ge4+ 8 c 0.37922(7) 0.08198(4) 0.7704(3) 1. 0 0.51(3) 
Ge5 Ge4+ 8 c 0.36759(8) 0.22027(4) 0.2279(2) 1. 0 0.74(4) 
K1 K1+ 8 c 0.0381(2) 0.0252(1) 0.2477(5) 1. 0 1.69(9) 
K2 K1+ 8 c 0.0275(2) 0.0938(1) 0.7468(5) 1. 0 1.72(9) 
K3 K1+ 8 c 0.0579(2) 0.2138(1) 0.2651(6) 1. 0 3.07(12) 
K4 K1+ 8 c 0.2000(1) 0.0010(1) 0.2611(5) 1. 0 0.67(7) 
K5 K1+ 8 c 0.1872(2) 0.0715(1) 0.7579(5) 1. 0 1.031(8) 
K6 K1+ 8 c 0.2230(2) 0.2164(1) 0.2416(5) 1. 0 2.1(1) 
K7 K1+ 8 c 0.2842(2) 0.0979(1) 0.2550(5) 1. 0 1.12(8) 
K8 K1+ 8 c 0.3039(2) 0.1702(1) 0.7441(5) 1. 0 1.23(8) 
K9 K1+ 8 c 0.4390(2) 0.1319(1) 0.2535(6) 1. 0 1.67(9) 
K10 K1+ 8 c 0.4597(2) 0.2007(1) 0.7369(6) 1. 0 2.04(10) 
O1 O2- 8 c 0.0492(5) 0.1078(3) 0.240(2) 1. 0 1.7(2) 
O2 O2- 8 c 0.1687(5) 0.0775(3) 0.246(2) 1. 0 0.8(2) 
O3 O2- 8 c 0.1323(6) 0.1362(4) 0.591(2) 1. 0 3.0(3) 
O4 O2- 8 c 0.1456(5) 0.1599(3) 0.088(2) 1. 0 1.8(2) 
O5 O2- 8 c 0.0716(7) 0.2037(4) 0.763(2) 1. 0 3.2(3) 
O6 O2- 8 c 0.1971(7) 0.2063(4) 0.726(2) 1. 0 3.4(3) 
O7 O2- 8 c 0.3123(4) 0.0121(3) 0.263(2) 1. 0 0.6(2) 
O8 O2- 8 c 0.4327(5) -.0177(3) 0.235(2) 1. 0 1.1(2) 
O9 O2- 8 c 0.4076(5) 0.0449(3) 0.563(2) 1. 0 1.3(2) 
O10 O2- 8 c 0.4020(5) 0.0620(3) 0.060(2) 1. 0 1.5(2) 
O11 O2- 8 c 0.3053(4) 0.0833(3) 0.755(2) 1. 0 0.7(2) 
O12 O2- 8 c 0.4173(6) 0.1251(3) 0.736(2) 1. 0 2.4(2) 
O13 O2- 8 c 0.3294(5) 0.1747(3) 0.253(2) 1. 0 1.0(2) 
O14 O2- 8 c 0.4408(6) 0.2145(3) 0.232(3) 1. 0 1.7(2) 
O15 O2- 8 c 0.3427(5) 0.2438(3) 0.949(2) 1. 0 1.5(2) 

#End of data_30945-ICSD


