data_89022-ICSD
#?2014 by Fachinformationszentrum Karlsruhe, and the U.S. Secretary of 
#Commerce on behalf of the United States.  All rights reserved.
_database_code_ICSD                89022
_audit_creation_date               2001/07/16
_chemical_name_systematic          'Lanthanum Silver Oxide Sulfide'
_chemical_formula_structural       '(La O) Ag S'
_chemical_formula_sum              'Ag1 La1 O1 S1'
_publ_section_title
;
Rietveld neutron powder profile analysis and electrical conductivity 
of the fast silver-ion conductor (La O) Ag S
;
loop_
_citation_id
_citation_journal_abbrev
_citation_year
_citation_journal_volume
_citation_page_first
_citation_page_last
_citation_journal_id_ASTM
primary 'Materials Research Society Symposia Proceedings'
 1999 548 455 460 MRSPDH
_publ_author_name
;
Wilmer, D.;Wuensch, B.J.;Jorgensen, J.D.
;
_cell_length_a                     4.087(2)
_cell_length_b                     4.087(2)
_cell_length_c                     9.136(9)
_cell_angle_alpha                  90.
_cell_angle_beta                   90.
_cell_angle_gamma                  90.
_cell_volume                       152.6
_cell_formula_units_Z              2
_symmetry_space_group_name_H-M     'P 4/n m m Z'
_symmetry_Int_Tables_number        129
loop_
_symmetry_equiv_pos_site_id
_symmetry_equiv_pos_as_xyz
  1	'y+.5, x+.5, -z'
  2	'-y, x+.5, -z'
  3	'y+.5, -x, -z'
  4	'-y, -x, -z'
  5	'x+.5, y+.5, -z'
  6	'-x, y+.5, -z'
  7	'x+.5, -y, -z'
  8	'-x, -y, -z'
  9	'-y+.5, -x+.5, z'
 10	'y, -x+.5, z'
 11	'-y+.5, x, z'
 12	'y, x, z'
 13	'-x+.5, -y+.5, z'
 14	'x, -y+.5, z'
 15	'-x+.5, y, z'
 16	'x, y, z'
loop_
_atom_type_symbol
_atom_type_oxidation_number
Ag1+	1
La3+	3
O2-	-2
S2-	-2
loop_
_atom_site_label
_atom_site_type_symbol
_atom_site_symmetry_multiplicity
_atom_site_Wyckoff_symbol
_atom_site_fract_x
_atom_site_fract_y
_atom_site_fract_z
_atom_site_occupancy
_atom_site_attached_hydrogens
La1 La3+ 2 c 0.25 0.25 0.1368(3) 1. 0 
O1 O2- 2 a 0.75 0.25 0 1. 0 
S1 S2- 2 c 0.25 0.25 0.69898(59) 1. 0 
Ag1 Ag1+ 2 b 0.75 0.25 0.5 1. 0 

loop_
_atom_site_aniso_label
_atom_site_aniso_type_symbol
_atom_site_aniso_U_11
_atom_site_aniso_U_22
_atom_site_aniso_U_33
_atom_site_aniso_U_12
_atom_site_aniso_U_13
_atom_site_aniso_U_23
La1 La3+ 0.0059(7) 0.0059(7) 0.0321(19) 0 0 0
O1 O2- 0.0080(9) 0.0080(9) 0.0160(19) 0 0 0
S1 S2- 0.0159(22) 0.0159(22) 0.0088(37) 0 0 0
Ag1 Ag1+ 0.0794(26) 0.0794(26) 0.0308(30) 0 0 0
#End of data_89022-ICSD


