data_94465-ICSD
#?2014 by Fachinformationszentrum Karlsruhe, and the U.S. Secretary of 
#Commerce on behalf of the United States.  All rights reserved.
_database_code_ICSD                94465
_audit_creation_date               2003/10/01
_chemical_name_systematic          'Tripotassium Iron Iron(III) Oxide'
_chemical_formula_structural       'K3 (Fe2 O4)'
_chemical_formula_sum              'Fe2 K3 O4'
_publ_section_title
;
Das gemischtvalente ternaere Oxoferrat(II,III) K3 (Fe2 O4) - eine 
aufgefuellte Variante des K2 (Fe2 O4) - Typs
;
loop_
_citation_id
_citation_journal_abbrev
_citation_year
_citation_journal_volume
_citation_page_first
_citation_page_last
_citation_journal_id_ASTM
primary 'Zeitschrift fuer Anorganische und Allgemeine Chemie (1950) (DE)'
 2001 627 2537 2541 ZAACAB
_publ_author_name                  'Moeller, A.'
_cell_length_a                     5.9611(9)
_cell_length_b                     11.403(1)
_cell_length_c                     17.179(3)
_cell_angle_alpha                  90
_cell_angle_beta                   90
_cell_angle_gamma                  90
_cell_volume                       1167.73
_cell_formula_units_Z              8
_symmetry_space_group_name_H-M     'F d d d Z'
_symmetry_Int_Tables_number        70
_refine_ls_R_factor_all            .033
loop_
_symmetry_equiv_pos_site_id
_symmetry_equiv_pos_as_xyz
  1	'x+.75, y+.75, -z'
  2	'x+.75, -y, z+.75'
  3	'-x, y+.75, z+.75'
  4	'-x, -y, -z'
  5	'-x+.25, -y+.25, z'
  6	'-x+.25, y, -z+.25'
  7	'x, -y+.25, -z+.25'
  8	'x, y, z'
  9	'x+.75, y+.25, -z+.5'
 10	'x+.25, y+.75, -z+.5'
 11	'x+.25, y+.25, -z'
 12	'x+.75, -y+.5, z+.25'
 13	'x+.25, -y, z+.25'
 14	'x+.25, -y+.5, z+.75'
 15	'-x, y+.25, z+.25'
 16	'-x+.5, y+.75, z+.25'
 17	'-x+.5, y+.25, z+.75'
 18	'-x, -y+.5, -z+.5'
 19	'-x+.5, -y, -z+.5'
 20	'-x+.5, -y+.5, -z'
 21	'-x+.25, -y+.75, z+.5'
 22	'-x+.75, -y+.25, z+.5'
 23	'-x+.75, -y+.75, z'
 24	'-x+.25, y+.5, -z+.75'
 25	'-x+.75, y, -z+.75'
 26	'-x+.75, y+.5, -z+.25'
 27	'x, -y+.75, -z+.75'
 28	'x+.5, -y+.25, -z+.75'
 29	'x+.5, -y+.75, -z+.25'
 30	'x, y+.5, z+.5'
 31	'x+.5, y, z+.5'
 32	'x+.5, y+.5, z'
loop_
_atom_type_symbol
_atom_type_oxidation_number
Fe2.5+	2.5
K1+	1
O2-	-2
loop_
_atom_site_label
_atom_site_type_symbol
_atom_site_symmetry_multiplicity
_atom_site_Wyckoff_symbol
_atom_site_fract_x
_atom_site_fract_y
_atom_site_fract_z
_atom_site_occupancy
_atom_site_attached_hydrogens
_atom_site_U_iso_or_equiv
K1 K1+ 8 b 0.125 0.625 0.125 1. 0 0.0280(8) 
K2 K1+ 16 g 0.625 0.625 0.2340(1) 1. 0 0.0182(6) 
Fe1 Fe2.5+ 16 g 0.375 0.875 0.06662(6) 1. 0 0.0128(6) 
O1 O2- 16 f 0.125 0.9436(4) 0.125 1. 0 0.0203(13) 
O2 O2- 16 d 0.5 0.250 0.250 1. 0 0.0177(13) 

loop_
_atom_site_aniso_label
_atom_site_aniso_type_symbol
_atom_site_aniso_U_11
_atom_site_aniso_U_22
_atom_site_aniso_U_33
_atom_site_aniso_U_12
_atom_site_aniso_U_13
_atom_site_aniso_U_23
K1 K1+ 0.0484(17) 0.0237(15) 0.0120(13) 0. 0. 0.
K2 K1+ 0.0158(10) 0.0166(10) 0.0222(10) -0.0058(7) 0. 0.
Fe1 Fe2.5+ 0.0133(7) 0.0123(8) 0.0128(7) -0.0012(4) 0. 0.
O1 O2- 0.0269(29) 0.0173(28) 0.0167(25) 0. 0.0040(26) 0.
O2 O2- 0.0145(25) 0.0192(27) 0.0195(27) -0.0070(24) -0.0029(24) -0.0010(25)
#End of data_94465-ICSD


