data_240772-ICSD
#?2014 by Fachinformationszentrum Karlsruhe, and the U.S. Secretary of 
#Commerce on behalf of the United States.  All rights reserved.
_database_code_ICSD                240772
_audit_creation_date               2007/08/01
_chemical_name_systematic
;
Aluminium Trichloride Trichlorotriazine
;
_chemical_formula_structural       '(Al Cl3) (C3 N3 Cl3)'
_chemical_formula_sum              'C3 Al1 Cl6 N3'
_publ_section_title
;
Synthese und Kristallstruktur des Lewis-Saeure/Base-Addukts AlCl3 ¨² 
C3N3Cl3
;
loop_
_citation_id
_citation_journal_abbrev
_citation_year
_citation_journal_volume
_citation_journal_issue
_citation_page_first
_citation_page_last
_citation_journal_id_ASTM
primary 'Zeitschrift fuer Anorganische und Allgemeine Chemie (1950) (DE)'
 2007 633 3 470 472 ZAACAB
_publ_author_name                  'Tragl, S.;Gibson, K.;Meyer, H.J.'
_cell_length_a                     7.3802(7)
_cell_length_b                     9.688(1)
_cell_length_c                     16.272(2)
_cell_angle_alpha                  72.80(1)
_cell_angle_beta                   89.97(1)
_cell_angle_gamma                  87.23(1)
_cell_volume                       1109.99
_cell_formula_units_Z              4
_symmetry_space_group_name_H-M     'P -1'
_symmetry_Int_Tables_number        2
_refine_ls_R_factor_all            .0765
loop_
_symmetry_equiv_pos_site_id
_symmetry_equiv_pos_as_xyz
  1	'-x, -y, -z'
  2	'x, y, z'
loop_
_atom_type_symbol
_atom_type_oxidation_number
Al3+	3
C4+	4
Cl1-	-1
N3-	-3
loop_
_atom_site_label
_atom_site_type_symbol
_atom_site_symmetry_multiplicity
_atom_site_Wyckoff_symbol
_atom_site_fract_x
_atom_site_fract_y
_atom_site_fract_z
_atom_site_occupancy
_atom_site_attached_hydrogens
_atom_site_U_iso_or_equiv
Al1 Al3+ 2 i -0.5529(2) -0.1738(1) -0.5868(1) 1. 0 0.0392(3) 
Al2 Al3+ 2 i 0.0546(2) 0.1701(1) -0.14836(8) 1. 0 0.0440(4) 
C1 C4+ 2 i -0.5012(6) -0.2970(4) -0.3939(3) 1. 0 0.0341(9) 
C2 C4+ 2 i -0.2377(6) -0.3166(4) -0.3272(3) 1. 0 0.0332(9) 
C3 C4+ 2 i -0.2385(7) -0.2977(4) -0.4651(3) 1. 0 0.037(1) 
C4 C4+ 2 i -0.2593(7) 0.2996(4) -0.0701(3) 1. 0 0.039(1) 
C5 C4+ 2 i -0.2611(7) 0.3241(4) 0.0608(3) 1. 0 0.037(1) 
C6 C4+ 2 i 0.0018(6) 0.2954(4) 0.0016(3) 1. 0 0.0351(9) 
Cl1 Cl1- 2 i -0.7288(2) -0.3129(1) -0.39119(7) 1. 0 0.0510(3) 
Cl2 Cl1- 2 i -0.1210(2) -0.3170(1) -0.23529(8) 1. 0 0.0563(3) 
Cl3 Cl1- 2 i -0.1276(2) -0.3141(2) -0.55328(8) 1. 0 0.0587(3) 
Cl4 Cl1- 2 i -0.3778(2) -0.0387(1) -0.67248(9) 1. 0 0.0755(5) 
Cl5 Cl1- 2 i -0.6354(2) -0.3576(1) -0.61891(8) 1. 0 0.0585(4) 
Cl6 Cl1- 2 i -0.7663(2) -0.0378(1) -0.56273(9) 1. 0 0.0602(4) 
Cl7 Cl1- 2 i -0.3717(2) 0.3127(2) -0.16320(7) 1. 0 0.0593(4) 
Cl8 Cl1- 2 i -0.3786(2) 0.3319(2) 0.15035(8) 1. 0 0.0594(4) 
Cl9 Cl1- 2 i 0.2315(2) 0.3052(1) 0.00065(8) 1. 0 0.0508(3) 
Cl10 Cl1- 2 i 0.2655(2) 0.0320(1) -0.07507(9) 1. 0 0.0633(4) 
Cl11 Cl1- 2 i 0.1378(2) 0.3534(1) -0.24312(8) 1. 0 0.0660(4) 
Cl12 Cl1- 2 i -0.1251(3) 0.0356(2) -0.1840(1) 1. 0 0.0809(5) 
N1 N3- 2 i -0.4201(5) -0.2675(3) -0.4724(2) 1. 0 0.0333(8) 
N2 N3- 2 i -0.4162(6) -0.3188(4) -0.3203(2) 1. 0 0.0384(8) 
N3 N3- 2 i -0.1412(5) -0.3208(4) -0.3944(2) 1. 0 0.0381(8) 
N4 N3- 2 i -0.0792(5) 0.2666(3) -0.0665(2) 1. 0 0.0348(8) 
N5 N3- 2 i -0.3582(5) 0.3284(4) -0.0091(2) 1. 0 0.0374(8) 
N6 N3- 2 i -0.0826(6) 0.3232(4) 0.0662(2) 1. 0 0.0409(9) 

#End of data_240772-ICSD


