data_248088-ICSD
#?2014 by Fachinformationszentrum Karlsruhe, and the U.S. Secretary of 
#Commerce on behalf of the United States.  All rights reserved.
_database_code_ICSD                248088
_audit_creation_date               2010/08/01
_chemical_name_systematic          'Sodium Tetrafluoroaluminate'
_chemical_formula_structural       'Na (Al F4)'
_chemical_formula_sum              'Al1 F4 Na1'
_publ_section_title
;
Na Al F4: Preparation, crystal structure and thermal stability
;
loop_
_citation_id
_citation_journal_abbrev
_citation_year
_citation_journal_volume
_citation_journal_issue
_citation_page_first
_citation_page_last
_citation_journal_id_ASTM
primary 'Journal of Solid State Chemistry' 2010 183 2 431 436 JSSCBI
_publ_author_name                  'Kirik, S.D.;Zaitseva, J.N.'
_cell_length_a                     3.6124(1)
_cell_length_b                     14.9469(7)
_cell_length_c                     5.2617(3)
_cell_angle_alpha                  90.000000
_cell_angle_beta                   90.000000
_cell_angle_gamma                  90.000000
_cell_volume                       284.1
_cell_formula_units_Z              4
_symmetry_space_group_name_H-M     'C m c m'
_symmetry_Int_Tables_number        63
_refine_ls_R_factor_all            .082
loop_
_symmetry_equiv_pos_site_id
_symmetry_equiv_pos_as_xyz
  1	'-x, y, -z+.5'
  2	'-x, -y, z+.5'
  3	'-x, y, z'
  4	'-x, -y, -z'
  5	'x, -y, z+.5'
  6	'x, y, -z+.5'
  7	'x, -y, -z'
  8	'x, y, z'
  9	'-x+.5, y+.5, -z+.5'
 10	'-x+.5, -y+.5, z+.5'
 11	'-x+.5, y+.5, z'
 12	'-x+.5, -y+.5, -z'
 13	'x+.5, -y+.5, z+.5'
 14	'x+.5, y+.5, -z+.5'
 15	'x+.5, -y+.5, -z'
 16	'x+.5, y+.5, z'
loop_
_atom_type_symbol
_atom_type_oxidation_number
Al3+	3
F1-	-1
Na1+	1
loop_
_atom_site_label
_atom_site_type_symbol
_atom_site_symmetry_multiplicity
_atom_site_Wyckoff_symbol
_atom_site_fract_x
_atom_site_fract_y
_atom_site_fract_z
_atom_site_occupancy
_atom_site_attached_hydrogens
_atom_site_U_iso_or_equiv
Al1 Al3+ 4 c .50000 .0836(2) .25000 1.00000 0 .020 
Na1 Na1+ 4 c .00000 .1917(2) .75000 1.00000 0 .021 
F1 F1- 8 f .50000 .1691(1) .0115(5) 1.00000 0 0.028 
F2 F1- 4 c .00000 .0820(4) .25000 1.00000 0 0.025 
F3 F1- 4 b .50000 .00000 .00000 1.00000 0 0.030 

#End of data_248088-ICSD


