data_419503-ICSD
#?2014 by Fachinformationszentrum Karlsruhe, and the U.S. Secretary of 
#Commerce on behalf of the United States.  All rights reserved.
_database_code_ICSD                419503
_audit_creation_date               2009/08/01
_chemical_name_systematic
;
Magnesium Tetrahydrogen Diiodate(VII) Hexahydrate
;
_chemical_formula_structural       'Mg (H4 I2 O10) (H2 O)6'
_chemical_formula_sum              'H16 I2 Mg1 O16'
_publ_section_title
;
Acidic salts of the decaoxodiperiodic acid: Ni H4 I2 O10.6H2 O, Zn H4 
I2 O10.H2 O and Mg H4 I2 O10.6H2O; crystal structures, vibrational 
spectra and thermal decomposition
;
loop_
_citation_id
_citation_journal_abbrev
_citation_year
_citation_journal_volume
_citation_journal_issue
_citation_page_first
_citation_page_last
_citation_journal_id_ASTM
primary 'Zeitschrift fuer Naturforschung, B: Chemical Sciences'
 2008 63 12 1367 1376 ZNBSEN
_publ_author_name
;
Aleksandrova, M.;Haeuseler, H.;Jacquet, R.;Wagener, M.
;
_cell_length_a                     10.715(2)
_cell_length_b                     5.4710(10)
_cell_length_c                     11.949(2)
_cell_angle_alpha                  90.00
_cell_angle_beta                   112.53(3)
_cell_angle_gamma                  90.00
_cell_volume                       647.01
_cell_formula_units_Z              2
_symmetry_space_group_name_H-M     'P 1 21/c 1'
_symmetry_Int_Tables_number        14
_refine_ls_R_factor_all            .0246
loop_
_symmetry_equiv_pos_site_id
_symmetry_equiv_pos_as_xyz
  1	'x, -y+.5, z+.5'
  2	'-x, -y, -z'
  3	'-x, y+.5, -z+.5'
  4	'x, y, z'
loop_
_atom_type_symbol
_atom_type_oxidation_number
H1+	1
I7+	7
Mg2+	2
O2-	-2
loop_
_atom_site_label
_atom_site_type_symbol
_atom_site_symmetry_multiplicity
_atom_site_Wyckoff_symbol
_atom_site_fract_x
_atom_site_fract_y
_atom_site_fract_z
_atom_site_occupancy
_atom_site_attached_hydrogens
_atom_site_U_iso_or_equiv
I1 I7+ 4 e 0.380246(19) 0.03391(4) 0.376980(19) 1 0 0.01028(7) 
Mg1 Mg2+ 2 a 0.0000 0.0000 0.0000 1 0 0.0134(3) 
O1 O2- 4 e 0.3648(3) -0.0484(6) 0.2258(2) 1 0 0.0194(6) 
O2 O2- 4 e 0.3090(3) -0.2707(6) 0.4015(3) 1 0 0.0203(6) 
H1 H1+ 4 e 0.346(6) -0.346(11) 0.388(5) 1 0 0.024 
O3 O2- 4 e 0.2201(2) 0.1741(5) 0.3500(2) 1 0 0.0185(6) 
O4 O2- 4 e 0.4527(3) 0.3485(5) 0.3674(3) 1 0 0.0201(6) 
H2 H1+ 4 e 0.506(5) 0.340(10) 0.341(5) 1 0 0.024 
O5 O2- 4 e 0.4363(2) 0.0997(5) 0.5530(2) 1 0 0.0112(5) 
O6 O2- 4 e 0.1666(3) 0.2240(6) 0.0435(3) 1 0 0.0184(6) 
H3 H1+ 4 e 0.239(5) 0.190(10) 0.102(5) 1 0 0.022 
H4 H1+ 4 e 0.183(5) 0.251(10) -0.005(5) 1 0 0.022 
O7 O2- 4 e 0.1193(3) -0.2817(7) 0.1040(3) 1 0 0.0279(7) 
H5 H1+ 4 e 0.195(6) -0.242(10) 0.151(5) 1 0 0.033 
H6 H1+ 4 e 0.128(6) -0.422(12) 0.088(5) 1 0 0.033 
O8 O2- 4 e -0.0246(3) 0.1292(8) 0.1513(3) 1 0 0.0316(8) 
H7 H1+ 4 e -0.084(6) 0.162(12) 0.162(5) 1 0 0.038 
H8 H1+ 4 e 0.030(6) 0.147(12) 0.215(5) 1 0 0.038 

loop_
_atom_site_aniso_label
_atom_site_aniso_type_symbol
_atom_site_aniso_U_11
_atom_site_aniso_U_22
_atom_site_aniso_U_33
_atom_site_aniso_U_12
_atom_site_aniso_U_13
_atom_site_aniso_U_23
I1 I7+ 0.00667(9) 0.01273(12) 0.01106(10) 0.00133(8) 0.00297(6) -0.00103(8)
Mg1 Mg2+ 0.0094(7) 0.0170(10) 0.0127(8) -0.0024(6) 0.0029(6) -0.0013(6)
O1 O2- 0.0158(11) 0.0314(17) 0.0109(11) 0.0049(10) 0.0049(9) -0.0051(10)
O2 O2- 0.0162(13) 0.0152(17) 0.0328(16) -0.0040(10) 0.0129(12) -0.0045(11)
O3 O2- 0.0079(10) 0.0265(17) 0.0185(13) 0.0090(9) 0.0023(9) -0.0011(10)
O4 O2- 0.0237(13) 0.0108(16) 0.0339(16) 0.0013(10) 0.0200(12) 0.0030(11)
O5 O2- 0.0050(9) 0.0167(14) 0.0104(11) 0.0035(8) 0.0012(8) -0.0022(8)
O6 O2- 0.0109(12) 0.0271(17) 0.0169(13) -0.0053(10) 0.0049(10) 0.0011(11)
O7 O2- 0.0199(14) 0.0185(18) 0.0324(18) 0.0013(12) -0.0042(12) -0.0021(12)
O8 O2- 0.0169(13) 0.057(2) 0.0209(15) -0.0014(14) 0.0075(11) -0.0147(14)
#End of data_419503-ICSD


