data_81300-ICSD
#?2014 by Fachinformationszentrum Karlsruhe, and the U.S. Secretary of 
#Commerce on behalf of the United States.  All rights reserved.
_database_code_ICSD                81300
_audit_creation_date               1997/11/05
_chemical_name_systematic
;
Potassium Lanthanum Hexaselenodiphosphate(IV)
;
_chemical_formula_structural       'K La (P2 Se6)'
_chemical_formula_sum              'K1 La1 P2 Se6'
_publ_section_title
;
Synthesis and structural characterization of a new rare-earth 
selenodiphosphate(IV): K La P2 Se6
;
loop_
_citation_id
_citation_journal_abbrev
_citation_year
_citation_journal_volume
_citation_page_first
_citation_page_last
_citation_journal_id_ASTM
primary 'Inorganic Chemistry' 1995 34 5705 5706 INOCAJ
_publ_author_name                  'Chen, J.H.;Dorhout, P.K.'
_cell_length_a                     12.4247(12)
_cell_length_b                     7.8047(5)
_cell_length_c                     11.9279(9)
_cell_angle_alpha                  90.
_cell_angle_beta                   109.612(8)
_cell_angle_gamma                  90.
_cell_volume                       1089.56
_cell_formula_units_Z              4
_symmetry_space_group_name_H-M     'P 1 21/c 1'
_symmetry_Int_Tables_number        14
_refine_ls_R_factor_all            .048
loop_
_symmetry_equiv_pos_site_id
_symmetry_equiv_pos_as_xyz
  1	'x, -y+.5, z+.5'
  2	'-x, -y, -z'
  3	'-x, y+.5, -z+.5'
  4	'x, y, z'
loop_
_atom_type_symbol
_atom_type_oxidation_number
K1+	1
La3+	3
P4+	4
Se2-	-2
loop_
_atom_site_label
_atom_site_type_symbol
_atom_site_symmetry_multiplicity
_atom_site_Wyckoff_symbol
_atom_site_fract_x
_atom_site_fract_y
_atom_site_fract_z
_atom_site_occupancy
_atom_site_attached_hydrogens
La1 La3+ 4 e 0.3495(1) 0.1023(1) 0.0959(1) 1. 0 
Se1 Se2- 4 e 0.1260(1) 0.2897(1) 0.0862(1) 1. 0 
Se2 Se2- 4 e 0.2111(1) 0.7881(1) 0.1388(1) 1. 0 
Se3 Se2- 4 e 0.5912(1) 0.1925(1) 0.0652(1) 1. 0 
Se4 Se2- 4 e 0.3279(1) 0.1872(1) 0.3652(1) 1. 0 
Se5 Se2- 4 e 0.1081(1) 0.0171(1) 0.8692(1) 1. 0 
Se6 Se2- 4 e 0.5539(1) -.0240(1) 0.3181(1) 1. 0 
P1 P4+ 4 e 0.2085(2) 0.3835(3) 0.2672(2) 1. 0 
P2 P4+ 4 e 0.3224(2) 0.5975(3) 0.2532(2) 1. 0 
K1 K1+ 4 e 0.8725(2) 0.0864(3) 0.6263(2) 1. 0 

loop_
_atom_site_aniso_label
_atom_site_aniso_type_symbol
_atom_site_aniso_U_11
_atom_site_aniso_U_22
_atom_site_aniso_U_33
_atom_site_aniso_U_12
_atom_site_aniso_U_13
_atom_site_aniso_U_23
La1 La3+ 0.010(1) 0.017(1) 0.012(1) 0.001(1) 0.004(1) 0.000(1)
Se1 Se2- 0.011(1) 0.024(1) 0.013(1) -.001(1) 0.002(1) -.004(1)
Se2 Se2- 0.015(1) 0.020(1) 0.016(1) -.001(1) 0.002(1) 0.004(1)
Se3 Se2- 0.012(1) 0.020(1) 0.011(1) 0.002(1) 0.004(1) 0.001(1)
Se4 Se2- 0.014(1) 0.018(1) 0.015(1) 0.003(1) 0.004(1) 0.001(1)
Se5 Se2- 0.014(1) 0.025(1) 0.016(1) -.002(1) 0.009(1) 0.001(1)
Se6 Se2- 0.011(1) 0.023(1) 0.018(1) 0.004(1) 0.007(1) 0.005(1)
P1 P4+ 0.007(1) 0.016(1) 0.010(1) -.002(1) 0.003(1) -.002(1)
P2 P4+ 0.011(1) 0.016(1) 0.011(1) -.002(1) 0.005(1) -.001(1)
K1 K1+ 0.026(1) 0.030(1) 0.026(1) -.007(1) 0.009(1) -.003(1)
#End of data_81300-ICSD


