data_81313-ICSD
#?2014 by Fachinformationszentrum Karlsruhe, and the U.S. Secretary of 
#Commerce on behalf of the United States.  All rights reserved.
_database_code_ICSD                81313
_audit_creation_date               1997/11/05
_chemical_name_systematic          'Dizinc Hydroxide Phosphate(V)'
_chemical_formula_structural       'Zn2 (O H) (P O4)'
_chemical_formula_sum              'H1 O5 P1 Zn2'
_publ_section_title
;
Crystal structure of synthetic zinc monophosphate Zn2 (O H) P O4 : a 
polymorph of tarbuttite
;
loop_
_citation_id
_citation_journal_abbrev
_citation_year
_citation_journal_volume
_citation_journal_issue
_citation_page_first
_citation_page_last
_citation_journal_id_ASTM
primary 'Mineralogical Journal (Japan)' 1994 17 3 132 139 MJTOAS
_publ_author_name
;
Kawahara, A.;Moritani, H.;Yamakawa, J.
;
_cell_length_a                     8.099(1)
_cell_length_b                     8.325(1)
_cell_length_c                     5.966(1)
_cell_angle_alpha                  90.
_cell_angle_beta                   90.
_cell_angle_gamma                  90.
_cell_volume                       402.25
_cell_formula_units_Z              4
_symmetry_space_group_name_H-M     'P 21 21 2'
_symmetry_Int_Tables_number        18
_refine_ls_R_factor_all            .042
loop_
_symmetry_equiv_pos_site_id
_symmetry_equiv_pos_as_xyz
  1	'-x+.5, y+.5, -z'
  2	'x+.5, -y+.5, -z'
  3	'-x, -y, z'
  4	'x, y, z'
loop_
_atom_type_symbol
_atom_type_oxidation_number
H1+	1
O2-	-2
P5+	5
Zn2+	2
loop_
_atom_site_label
_atom_site_type_symbol
_atom_site_symmetry_multiplicity
_atom_site_Wyckoff_symbol
_atom_site_fract_x
_atom_site_fract_y
_atom_site_fract_z
_atom_site_occupancy
_atom_site_attached_hydrogens
_atom_site_B_iso_or_equiv
Zn1 Zn2+ 2 a 0 0 0.9961(4) 1. 0 1.15(5) 
Zn2 Zn2+ 2 a 0 0 0.5029(4) 1. 0 1.32(12) 
Zn3 Zn2+ 4 c 0.3649(1) 0.1377(1) 0.2442(3) 1. 0 0.98(2) 
P1 P5+ 4 c 0.2502(2) 0.2614(2) 0.7512(7) 1. 0 0.97(5) 
O1 O2- 4 c 0.2305(12) 0.1518(16) 0.9588(11) 1. 0 0.67(21) 
O2 O2- 4 c 0.3823(6) 0.3766(6) 0.2452(18) 1. 0 1.19(11) 
O3 O2- 4 c 0.1110(6) 0.3907(6) 0.7420(18) 1. 0 1.55(13) 
O4 O2- 4 c 0.4167(6) 0.3539(6) 0.7451(18) 1. 0 0.95(12) 
O5 O2- 4 c 0.2373(14) 0.1535(19) 0.5402(13) 1. 0 1.40(28) 
H1 H1+ 4 c 0.31(2) 0.44(2) 0.25(3) 1. 0 1.00(28) 

#End of data_81313-ICSD


