data_162744-ICSD
#?2014 by Fachinformationszentrum Karlsruhe, and the U.S. Secretary of 
#Commerce on behalf of the United States.  All rights reserved.
_database_code_ICSD                162744
_audit_creation_date               2009/08/01
_audit_update_record               2013/08/01
_chemical_name_systematic          'Tricalcium Oxide Silicate'
_chemical_formula_structural       'Ca3 O (Si O4)'
_chemical_formula_sum              'Ca3 O5 Si1'
_chemical_name_mineral             Alite
_publ_section_title
;
Crystal structure of low-magnesium content alite: application to 
Rietveld quantitative phase analysis
;
loop_
_citation_id
_citation_journal_abbrev
_citation_year
_citation_journal_volume
_citation_page_first
_citation_page_last
_citation_journal_id_ASTM
primary 'Cement and Concrete Research' 2008 38 1261 1269 CCNRAI
_publ_author_name
;
de la Torre, A.G.;de Vera, R.N.;Cuberos, A.J.M.;Aranda, M.A.G.
;
_cell_length_a                     11.6389(2)
_cell_length_b                     14.1716(3)
_cell_length_c                     13.6434(3)
_cell_angle_alpha                  104.982(2)
_cell_angle_beta                   94.622(1)
_cell_angle_gamma                  90.107(2)
_cell_volume                       2166.2
_cell_formula_units_Z              18
_symmetry_space_group_name_H-M     'P -1'
_symmetry_Int_Tables_number        2
_refine_ls_R_factor_all            .043
loop_
_symmetry_equiv_pos_site_id
_symmetry_equiv_pos_as_xyz
  1	'-x, -y, -z'
  2	'x, y, z'
loop_
_atom_type_symbol
_atom_type_oxidation_number
Ca2+	2
O2-	-2
Si4+	4
loop_
_atom_site_label
_atom_site_type_symbol
_atom_site_symmetry_multiplicity
_atom_site_Wyckoff_symbol
_atom_site_fract_x
_atom_site_fract_y
_atom_site_fract_z
_atom_site_occupancy
_atom_site_attached_hydrogens
_atom_site_U_iso_or_equiv
Ca1 Ca2+ 2 i 0.7125(13) -0.0042(12) 0.9730(9) 1. 0 0.0071(5) 
Ca2 Ca2+ 2 i 0.3412(12) 0.1623(8) 0.6551(8) 1. 0 0.0071(5) 
Ca3 Ca2+ 2 i 0.6597(11) 0.3158(12) 0.3223(14) 1. 0 0.0071(5) 
Ca4 Ca2+ 2 i 0.8223(10) 0.1687(9) 0.1756(11) 1. 0 0.0071(5) 
Ca5 Ca2+ 2 i 0.1724(12) 0.3346(11) 0.8450(8) 1. 0 0.0071(5) 
Ca6 Ca2+ 2 i 0.3279(9) 0.4045(10) 0.6432(8) 1. 0 0.0071(5) 
Ca7 Ca2+ 2 i 0.6707(14) 0.0719(9) 0.3199(10) 1. 0 0.0071(5) 
Ca8 Ca2+ 2 i 0.0481(9) 0.1693(8) 0.6209(8) 1. 0 0.0071(5) 
Ca9 Ca2+ 2 i 0.6206(11) 0.1722(10) 0.7089(15) 1. 0 0.0071(5) 
Ca10 Ca2+ 2 i 0.3768(11) 0.3427(8) 0.3084(8) 1. 0 0.0071(5) 
Ca11 Ca2+ 2 i 0.9699(10) 0.3405(8) 0.3590(8) 1. 0 0.0071(5) 
Ca12 Ca2+ 2 i 0.0505(12) 0.3924(12) 0.6259(12) 1. 0 0.0071(5) 
Ca13 Ca2+ 2 i 0.3402(9) 0.0766(8) 0.2826(10) 1. 0 0.0071(5) 
Ca14 Ca2+ 2 i 0.6184(11) 0.4245(7) 0.7123(9) 1. 0 0.0071(5) 
Ca15 Ca2+ 2 i 0.9521(9) 0.0952(9) 0.3673(8) 1. 0 0.0071(5) 
Ca16 Ca2+ 2 i 0.4761(11) 0.0923(9) 0.8637(93) 1. 0 0.0071(5) 
Ca17 Ca2+ 2 i 0.2089(12) 0.2377(8) 0.4875(8) 1. 0 0.0071(5) 
Ca18 Ca2+ 2 i 0.8068(12) 0.2589(10) 0.5240(10) 1. 0 0.0071(5) 
Ca19 Ca2+ 2 i 0.5490(12) 0.4089(9) 0.1439(9) 1. 0 0.0071(5) 
Ca20 Ca2+ 2 i 0.6942(10) 0.4931(8) 0.9559(9) 1. 0 0.0071(5) 
Ca21 Ca2+ 2 i 0.7056(12) 0.2334(10) 0.9653(9) 1. 0 0.0071(5) 
Ca22 Ca2+ 2 i 0.2992(11) 0.2688(9) 0.0390(10) 1. 0 0.0071(5) 
Ca23 Ca2+ 2 i 0.8846(10) 0.0789(9) 0.8098(9) 1. 0 0.0071(5) 
Ca24 Ca2+ 2 i 0.1381(17) 0.4221(12) 0.1927(11) 1. 0 0.0071(5) 
Ca25 Ca2+ 2 i -0.0027(9) 0.2746(8) 0.9969(10) 1. 0 0.0071(5) 
Ca26 Ca2+ 1 a 0 0 0 1. 0 0.0071(5) 
Ca27 Ca2+ 1 c 0 0.5 0 1. 0 0.0071(5) 
Ca28 Ca2+ 1 f 0.5 0 0.5 1. 0 0.0071(5) 
Ca29 Ca2+ 1 h 0.5 0.5 0.5 1. 0 0.0071(5) 
Si1 Si4+ 2 i 0.8215(9) 0.4186(7) 0.1603(8) 1. 0 0.008(1) 
Si2 Si4+ 2 i 0.4835(10) 0.3471(8) 0.8684(8) 1. 0 0.008(1) 
Si3 Si4+ 2 i 0.1630(8) 0.0879(8) 0.8307(7) 1. 0 0.008(1) 
Si4 Si4+ 2 i 0.7998(7) 0.0147(8) 0.5458(7) 1. 0 0.008(1) 
Si5 Si4+ 2 i 0.1919(7) 0.4959(8) 0.4539(8) 1. 0 0.008(1) 
Si6 Si4+ 2 i 0.5183(8) 0.1532(8) 0.1222(8) 1. 0 0.008(1) 
Si7 Si4+ 2 i 0.1412(9) 0.1830(7) 0.2148(8) 1. 0 0.008(1) 
Si8 Si4+ 2 i 0.8683(8) 0.3228(8) 0.7875(7) 1. 0 0.008(1) 
Si9 Si4+ 2 i 0.4805(10) 0.2448(9) 0.5098(8) 1. 0 0.008(1) 
O1 O2- 2 i 0.9496(10) 0.4169(8) 0.1222(8) 1. 0 0.0119(1) 
O2 O2- 2 i 0.7257(10) 0.3838(11) 0.0627(9) 1. 0 0.0119(1) 
O3 O2- 2 i 0.8175(10) 0.3423(9) 0.2305(9) 1. 0 0.0119(1) 
O4 O2- 2 i 0.2026(14) 0.4708(8) 0.7742(11) 1. 0 0.0119(1) 
O5 O2- 2 i 0.4475(14) 0.3950(12) 0.9825(7) 1. 0 0.0119(1) 
O6 O2- 2 i 0.6226(9) 0.3338(9) 0.8637(11) 1. 0 0.0119(1) 
O7 O2- 2 i 0.411 0.242 0.831 1. 0 0.0119(1) 
O8 O2- 2 i 0.4465(10) 0.4181(9) 0.7959(8) 1. 0 0.0119(1) 
O9 O2- 2 i 0.2862(8) 0.0862(10) 0.7827(9) 1. 0 0.0119(1) 
O10 O2- 2 i 0.1506(10) 0.1933(8) 0.9102(9) 1. 0 0.0119(1) 
O11 O2- 2 i 0.1483(9) 0.0024(9) 0.8880(9) 1. 0 0.0119(1) 
O12 O2- 2 i 0.0639(9) 0.0695(9) 0.7362(8) 1. 0 0.0119(1) 
O13 O2- 2 i 0.7553(10) 0.0448(9) 0.6592(7) 1. 0 0.0119(1) 
O14 O2- 2 i 0.6941(4) -0.0038(9) 0.4580(7) 1. 0 0.0119(1) 
O15 O2- 2 i 0.8773(9) 0.1021(9) 0.5252(9) 1. 0 0.0119(1) 
O16 O2- 2 i 0.1226(9) 0.0812(7) 0.4678(9) 1. 0 0.0119(1) 
O17 O2- 2 i 0.8157(12) 0.4002(8) 0.4611(10) 1. 0 0.0119(1) 
O18 O2- 2 i 0.3156(5) 0.4952(9) 0.4064(7) 1. 0 0.0119(1) 
O19 O2- 2 i 0.1864(10) 0.4083(8) 0.5099(9) 1. 0 0.0119(1) 
O20 O2- 2 i 0.0871(8) 0.4806(9) 0.3639(9) 1. 0 0.0119(1) 
O21 O2- 2 i 0.5091(14) 0.2641(8) 0.1917(11) 1. 0 0.0119(1) 
O22 O2- 2 i 0.6421(8) 0.1418(10) 0.0749(8) 1. 0 0.0119(1) 
O23 O2- 2 i 0.4139(10) 0.1271(12) 0.0320(8) 1. 0 0.0119(1) 
O24 O2- 2 i 0.5087(12) 0.0785(9) 0.1952(10) 1. 0 0.0119(1) 
O25 O2- 2 i 0.0135(8) 0.1844(9) 0.2552(9) 1. 0 0.0119(1) 
O26 O2- 2 i 0.1738(10) 0.0713(7) 0.1622(9) 1. 0 0.0119(1) 
O27 O2- 2 i 0.2334(10) 0.2244(8) 0.3131(8) 1. 0 0.0119(1) 
O28 O2- 2 i 0.1430(14) 0.2515(12) 0.1365(11) 1. 0 0.0119(1) 
O29 O2- 2 i 0.9933(9) 0.3094(10) 0.7437(8) 1. 0 0.0119(1) 
O30 O2- 2 i 0.8520(11) 0.2478(9) 0.8581(9) 1. 0 0.0119(1) 
O31 O2- 2 i 0.7646(10) 0.3036(11) 0.6977(8) 1. 0 0.0119(1) 
O32 O2- 2 i 0.8572(8) 0.4321(8) 0.8632(8) 1. 0 0.0119(1) 
O33 O2- 2 i 0.5987(13) 0.2302(16) 0.4531(13) 1. 0 0.0119(1) 
O34 O2- 2 i 0.4058(17) 0.1423(11) 0.4754(13) 1. 0 0.0119(1) 
O35 O2- 2 i 0.5100(14) 0.2741(10) 0.6336(8) 1. 0 0.0119(1) 
O36 O2- 2 i 0.4038(16) 0.3312(14) 0.4810(10) 1. 0 0.0119(1) 
O37 O2- 2 i 0.2007(9) 0.2864(9) 0.6696(8) 1. 0 0.035(2) 
O38 O2- 2 i 0.4780(11) 0.0432(9) 0.6782(4) 1. 0 0.035(2) 
O39 O2- 2 i 0.6690(30) 0.0788(11) 0.8425(12) 1. 0 0.035(2) 
O40 O2- 2 i 0.0040(12) 0.2518(10) 0.4858(11) 1. 0 0.035(2) 
O41 O2- 2 i 0.3358(27) 0.4181(8) 0.1715(9) 1. 0 0.035(2) 
O42 O2- 2 i 0.1515(7) 0.3915(7) 0.0227(9) 1. 0 0.035(2) 
O43 O2- 2 i 0.8020(11) 0.2058(9) 0.3540(12) 1. 0 0.035(2) 
O44 O2- 2 i 0.8837(11) 0.1395(7) 0.0092(13) 1. 0 0.035(2) 
O45 O2- 2 i 0.5521(12) 0.4574(9) 0.3288(6) 1. 0 0.035(2) 

#End of data_162744-ICSD


