data_151526-ICSD
#?2014 by Fachinformationszentrum Karlsruhe, and the U.S. Secretary of 
#Commerce on behalf of the United States.  All rights reserved.
_database_code_ICSD                151526
_audit_creation_date               2006/10/01
_chemical_name_systematic          'Sodium Lanthanum Diphosphate(V)'
_chemical_formula_structural       'Na La (P2 O7)'
_chemical_formula_sum              'La1 Na1 O7 P2'
_publ_section_title
;
Synthesis, crystal structure and vibrational spectra of a new form of 
diphosphate Na La P2 O7
;
loop_
_citation_id
_citation_journal_abbrev
_citation_year
_citation_journal_volume
_citation_page_first
_citation_page_last
_citation_journal_id_ASTM
primary 'Materials Research Bulletin' 2004 39 2209 2217 MRBUAC
_publ_author_name                  'Ferid, M.;Horchani-Naifer, K.'
_cell_length_a                     8.645(2)
_cell_length_b                     5.317(1)
_cell_length_c                     12.737(2)
_cell_angle_alpha                  90.
_cell_angle_beta                   90.
_cell_angle_gamma                  90.
_cell_volume                       585.46
_cell_formula_units_Z              4
_symmetry_space_group_name_H-M     'P n m a'
_symmetry_Int_Tables_number        62
_refine_ls_R_factor_all            .0364
loop_
_symmetry_equiv_pos_site_id
_symmetry_equiv_pos_as_xyz
  1	'x+.5, y, -z+.5'
  2	'x, -y+.5, z'
  3	'-x+.5, y+.5, z+.5'
  4	'-x, -y, -z'
  5	'-x+.5, -y, z+.5'
  6	'-x, y+.5, -z'
  7	'x+.5, -y+.5, -z+.5'
  8	'x, y, z'
loop_
_atom_type_symbol
_atom_type_oxidation_number
La3+	3
Na1+	1
O2-	-2
P5+	5
loop_
_atom_site_label
_atom_site_type_symbol
_atom_site_symmetry_multiplicity
_atom_site_Wyckoff_symbol
_atom_site_fract_x
_atom_site_fract_y
_atom_site_fract_z
_atom_site_occupancy
_atom_site_attached_hydrogens
_atom_site_U_iso_or_equiv
La1 La3+ 4 c 0.31782(3) 0.750 0.73586(3) 1. 0 0.0099(2) 
Na1 Na1+ 4 c -0.3786(3) 0.250 0.5796(2) 1. 0 0.0214(6) 
P1 P5+ 4 c 0.0172(2) 0.250 0.6803(2) 1. 0 0.0094(3) 
P2 P5+ 4 c 0.2666(2) 0.250 0.5329(1) 1. 0 0.0105(3) 
O1 O2- 4 c 0.0867(5) 0.250 0.5635(4) 1. 0 0.0144(8) 
O2 O2- 8 d 0.0717(3) -0.5097(7) 0.7349(2) 1. 0 0.0130(6) 
O3 O2- 4 c -0.1565(5) 0.250 0.6756(4) 1. 0 0.021(1) 
O4 O2- 4 c 0.2689(6) 0.250 0.4154(3) 1. 0 0.0184(9) 
O5 O2- 8 d 0.3397(3) -0.5155(7) 0.5784(3) 1. 0 0.0181(7) 

loop_
_atom_site_aniso_label
_atom_site_aniso_type_symbol
_atom_site_aniso_U_11
_atom_site_aniso_U_22
_atom_site_aniso_U_33
_atom_site_aniso_U_12
_atom_site_aniso_U_13
_atom_site_aniso_U_23
La1 La3+ 0.0095(2) 0.0109(2) 0.0095(3) 0.0000 0.00016(9) 0.00000
Na1 Na1+ 0.0153(12) 0.0325(16) 0.0164(13) 0.0000 -0.0019(10) 0.0000
P1 P5+ 0.0087(6) 0.0099(6) 0.0096(6) 0.0000 -0.0002(5) 0.0000
P2 P5+ 0.0121(6) 0.0129(7) 0.0066(6) 0.0000 0.0005(5) 0.0000
O1 O2- 0.0121(17) 0.018(2) 0.0129(19) 0.0000 0.0006(15) 0.0000
O2 O2- 0.0129(15) 0.0097(16) 0.0164(14) -0.0030(11) 0.0017(10) -0.0008(10)
O3 O2- 0.0142(19) 0.032(3) 0.016(2) 0.000 -0.0008(17) 0.000
O4 O2- 0.021(2) 0.028(2) 0.0058(18) 0.0000 -0.0004(16) 0.0000
O5 O2- 0.0198(13) 0.0201(16) 0.0142(15) -0.0071(13) 0.0031(11) -0.0076(12)
#End of data_151526-ICSD


