data_74600-ICSD
#?2014 by Fachinformationszentrum Karlsruhe, and the U.S. Secretary of 
#Commerce on behalf of the United States.  All rights reserved.
_database_code_ICSD                74600
_audit_creation_date               1995/10/17
_chemical_name_systematic          'Dipotassium Manganese Diphosphate'
_chemical_formula_structural       'K2 Mn (P2 O7)'
_chemical_formula_sum              'K2 Mn1 O7 P2'
_publ_section_title
;
Synthesis, crystal structure and magnetic properties of K2MnP2O7
;
loop_
_citation_id
_citation_journal_abbrev
_citation_year
_citation_journal_volume
_citation_page_first
_citation_page_last
_citation_journal_id_ASTM
primary
;
Comptes Rendus Hebdomadaires des Seances de l`Academie des Sciences, 
Ser. II (1994-)
;
 1994 318 765 770 CMCAEK
_publ_author_name
;
El Maadi, A.;Boukhari, A.;Holt, E.M.;Flandrois, S.
;
_cell_length_a                     12.649(6)
_cell_length_b                     5.527(2)
_cell_length_c                     9.571(3)
_cell_angle_alpha                  90.
_cell_angle_beta                   104.45(3)
_cell_angle_gamma                  90.
_cell_volume                       647.95
_cell_formula_units_Z              4
_symmetry_space_group_name_H-M     'P 1 21/n 1'
_symmetry_Int_Tables_number        14
_refine_ls_R_factor_all            .041
loop_
_symmetry_equiv_pos_site_id
_symmetry_equiv_pos_as_xyz
  1	'-x+.5, y+.5, -z+.5'
  2	'-x, -y, -z'
  3	'x+.5, -y+.5, z+.5'
  4	'x, y, z'
loop_
_atom_type_symbol
_atom_type_oxidation_number
K1+	1
Mn2+	2
O2-	-2
P5+	5
loop_
_atom_site_label
_atom_site_type_symbol
_atom_site_symmetry_multiplicity
_atom_site_Wyckoff_symbol
_atom_site_fract_x
_atom_site_fract_y
_atom_site_fract_z
_atom_site_occupancy
_atom_site_attached_hydrogens
_atom_site_U_iso_or_equiv
Mn1 Mn2+ 4 e 0.0177(1) 0.2414(3) 0.2521(1) 1. 0 0.011 
K1 K1+ 4 e 0.3234(1) 0.2741(3) 0.3587(2) 1. 0 0.0166 
K2 K1+ 4 e 0.8572(2) 0.7348(4) 0.3691(2) 1. 0 0.025 
P1 P5+ 4 e 0.1213(1) 0.2756(4) -.0517(2) 1. 0 0.0088 
P2 P5+ 4 e 0.3626(1) 0.2595(4) 0.0311(2) 1. 0 0.0079 
O1 O2- 4 e 0.0488(5) 0.087(1) 0.8602(6) 1. 0 0.0191 
O2 O2- 4 e 0.1043(5) 0.524(1) 0.8840(6) 1. 0 0.0206 
O3 O2- 4 e 0.1287(4) 0.269(1) 0.1085(5) 1. 0 0.016 
O4 O2- 4 e 0.2420(4) 0.198(1) -.0705(6) 1. 0 0.0217 
O5 O2- 4 e 0.3557(4) 0.497(1) 0.1055(6) 1. 0 0.013 
O6 O2- 4 e 0.4297(4) 0.275(1) -.0783(6) 1. 0 0.02 
O7 O2- 4 e 0.3876(5) 0.048(1) 0.1301(6) 1. 0 0.0197 

#End of data_74600-ICSD


