data_280480-ICSD
#?2014 by Fachinformationszentrum Karlsruhe, and the U.S. Secretary of 
#Commerce on behalf of the United States.  All rights reserved.
_database_code_ICSD                280480
_audit_creation_date               2002/04/01
_audit_update_record               2006/04/01
_chemical_name_systematic          'Dipotassium Disilicate'
_chemical_formula_structural       'K2 (Si2 O5)'
_chemical_formula_sum              'K2 O5 Si2'
_publ_section_title
;
Mixed alkali systems: Structure and 29Si MASNMR of Li2 Si2 O5 and K2 
Si2 O5
;
loop_
_citation_id
_citation_journal_abbrev
_citation_year
_citation_journal_volume
_citation_page_first
_citation_page_last
_citation_journal_id_ASTM
primary 'Acta Crystallographica, Section B: Structural Science'
 1998 54 568 577 ASBSDK
2 'Acta Crystallographica, Section B: Structural Science'
 1996 52 770 776 ASBSDK
_publ_author_name
;
de Jong, B.;Super, H.;Spek, A.;Veldman, N.;Nachtegaal, G.;Fischer, J.
;
_cell_length_a                     16.3224(15)
_cell_length_b                     11.243(2)
_cell_length_c                     9.919(1)
_cell_angle_alpha                  90.
_cell_angle_beta                   115.972(11)
_cell_angle_gamma                  90.
_cell_volume                       1636.43
_cell_formula_units_Z              12
_symmetry_space_group_name_H-M     'C 1 c 1'
_symmetry_Int_Tables_number        9
_refine_ls_R_factor_all            .038
loop_
_symmetry_equiv_pos_site_id
_symmetry_equiv_pos_as_xyz
  1	'x, -y, z+.5'
  2	'x, y, z'
  3	'x+.5, -y+.5, z+.5'
  4	'x+.5, y+.5, z'
loop_
_atom_type_symbol
_atom_type_oxidation_number
K1+	1
O2-	-2
Si4+	4
loop_
_atom_site_label
_atom_site_type_symbol
_atom_site_symmetry_multiplicity
_atom_site_Wyckoff_symbol
_atom_site_fract_x
_atom_site_fract_y
_atom_site_fract_z
_atom_site_occupancy
_atom_site_attached_hydrogens
Si1 Si4+ 4 a 0.50011(12) -.01395(15) 0.3248(2) 1. 0 
Si2 Si4+ 4 a 0.62183(12) 0.01784(15) 0.6661(2) 1. 0 
Si3 Si4+ 4 a 0.22567(13) 0.2522(2) 0.3234(2) 1. 0 
Si4 Si4+ 4 a 0.60753(13) 0.4814(2) 0.7217(2) 1. 0 
Si5 Si4+ 4 a 0.47954(13) 0.4754(2) 0.3757(2) 1. 0 
Si6 Si4+ 4 a 0.38525(12) 0.23002(15) 0.2370(2) 1. 0 
O1 O2- 4 a 0.4583(3) 0.3328(4) 0.3390(5) 1. 0 
O2 O2- 4 a 0.5162(3) 0.4843(4) 0.5595(5) 1. 0 
O3 O2- 4 a 0.5893(3) 0.0176(4) 0.4837(5) 1. 0 
O4 O2- 4 a 0.5357(3) 0.0589(3) 0.7007(5) 1. 0 
O5 O2- 4 a 0.3991(3) 0.5592(4) 0.2873(5) 1. 0 
O6 O2- 4 a 0.4395(3) -.1160(4) 0.3395(5) 1. 0 
O7 O2- 4 a 0.4481(3) 0.1115(4) 0.2631(5) 1. 0 
O8 O2- 4 a 0.3217(3) 0.2031(4) 0.3238(5) 1. 0 
O9 O2- 4 a 0.6452(3) 0.3443(4) 0.7316(5) 1. 0 
O10 O2- 4 a 0.6793(3) 0.5816(4) 0.7464(5) 1. 0 
O11 O2- 4 a 0.3272(3) 0.2569(4) 0.0671(5) 1. 0 
O12 O2- 4 a 0.6625(3) -.1035(4) 0.7433(5) 1. 0 
O13 O2- 4 a 0.5691(3) 0.5087(4) 0.3501(5) 1. 0 
O14 O2- 4 a 0.6954(3) 0.1282(4) 0.7173(5) 1. 0 
O15 O2- 4 a 0.2431(3) 0.2742(4) 0.4891(5) 1. 0 
K1 K1+ 4 a 0.14223(11) 0.24318(12) 0.9315(2) 1. 0 
K2 K1+ 4 a 0.43965(10) 0.27459(13) 0.62413(15) 1. 0 
K3 K1+ 4 a 0.28439(12) 0.48510(14) 0.0186(2) 1. 0 
K4 K1+ 4 a 0.30054(11) 0.26042(13) 0.7824(2) 1. 0 
K5 K1+ 4 a 0.33909(10) 0.02082(13) 0.9686(2) 1. 0 
K6 K1+ 4 a 0.08806(11) 0.23334(13) 0.5199(2) 1. 0 

loop_
_atom_site_aniso_label
_atom_site_aniso_type_symbol
_atom_site_aniso_U_11
_atom_site_aniso_U_22
_atom_site_aniso_U_33
_atom_site_aniso_U_12
_atom_site_aniso_U_13
_atom_site_aniso_U_23
Si1 Si4+ 0.0031(10) 0.0054(8) 0.0041(8) -.0002(7) 0.0020(8) -.0003(7)
Si2 Si4+ 0.004(1) 0.0049(8) 0.0028(8) -.0007(7) 0.0017(7) -.0003(7)
Si3 Si4+ 0.0045(9) 0.0036(8) 0.0062(9) 0.0011(7) 0.0033(7) 0.0013(6)
Si4 Si4+ 0.0037(8) 0.0047(7) 0.0058(8) 0.0006(7) 0.0030(7) -.0001(7)
Si5 Si4+ 0.0057(8) 0.0034(7) 0.0042(8) 0.0004(7) 0.0030(7) 0.0005(6)
Si6 Si4+ 0.0033(9) 0.0037(7) 0.0053(8) 0.0005(7) 0.0019(7) -.0014(6)
O1 O2- 0.007(2) 0.007(2) 0.008(2) -.002(2) 0.003(2) 0.000(2)
O2 O2- 0.006(2) 0.006(2) 0.007(2) 0.003(2) 0.005(2) 0.004(2)
O3 O2- 0.010(2) 0.014(2) 0.004(2) 0.001(2) 0.004(2) 0.000(2)
O4 O2- 0.0046(12) 0.0060(12) 0.0045(12) 0.0004(9) 0.0031(9) 0.0018(9)
O5 O2- 0.008(2) 0.012(2) 0.008(2) 0.005(2) -.004(2) 0.000(2)
O6 O2- 0.007(2) 0.010(2) 0.009(2) -.005(2) 0.005(2) 0.000(2)
O7 O2- 0.006(2) 0.007(2) 0.013(2) 0.002(2) 0.003(2) -.004(2)
O8 O2- 0.008(2) 0.010(2) 0.012(2) 0.000(2) 0.007(2) 0.001(2)
O9 O2- 0.010(2) 0.011(2) 0.012(2) 0.001(2) 0.006(2) 0.000(2)
O10 O2- 0.007(2) 0.004(2) 0.009(2) 0.000(2) 0.001(2) -.001(2)
O11 O2- 0.009(3) 0.010(2) 0.006(2) 0.002(2) 0.003(2) 0.000(2)
O12 O2- 0.007(2) 0.010(2) 0.006(2) -.003(2) 0.002(2) 0.001(2)
O13 O2- 0.011(3) 0.018(2) 0.007(2) -.006(2) 0.006(2) -.004(2)
O14 O2- 0.004(2) 0.009(2) 0.007(2) 0.000(2) 0.002(2) 0.003(2)
O15 O2- 0.011(3) 0.013(2) 0.004(2) 0.003(2) 0.003(2) 0.000(2)
K1 K1+ 0.0070(7) 0.0092(7) 0.0087(7) -.0016(6) 0.0050(5) -.0014(5)
K2 K1+ 0.0084(8) 0.0082(6) 0.0085(7) -.0004(6) 0.0039(6) 0.0010(5)
K3 K1+ 0.0214(10) 0.0070(7) 0.0120(7) -.0010(6) -.0061(7) 0.0007(6)
K4 K1+ 0.0057(7) 0.0081(6) 0.0081(6) 0.0005(6) 0.0044(5) 0.0010(5)
K5 K1+ 0.0091(7) 0.0085(6) 0.0091(6) 0.0001(6) 0.0028(6) -.0019(5)
K6 K1+ 0.0120(8) 0.0073(6) 0.0080(6) 0.0006(6) 0.0021(6) 0.0002(5)
#End of data_280480-ICSD


