data_171935-ICSD
#?2014 by Fachinformationszentrum Karlsruhe, and the U.S. Secretary of 
#Commerce on behalf of the United States.  All rights reserved.
_database_code_ICSD                171935
_audit_creation_date               2007/04/01
_chemical_name_systematic
;
Trimanganese Zinc Calcium Catena-pentasiliacte
;
_chemical_formula_structural       'Mn3 Zn Ca Si5 O15'
_chemical_formula_sum              'Ca1 Mn3 O15 Si5 Zn1'
_chemical_name_mineral             Fowlerite
_publ_section_title
;
Crystal chemistry of Zn-rich rhodonite ("fowlerite")
;
loop_
_citation_id
_citation_journal_abbrev
_citation_year
_citation_journal_volume
_citation_page_first
_citation_page_last
_citation_journal_id_ASTM
primary 'American Mineralogist' 2005 90 969 983 AMMIAY
_publ_author_name                  'Nelson, W.R.;Griffen, D.T.'
_cell_length_a                     9.8719(4)
_cell_length_b                     10.5262(4)
_cell_length_c                     12.2214(5)
_cell_angle_alpha                  108.743(4)
_cell_angle_beta                   103.728(4)
_cell_angle_gamma                  82.049(3)
_cell_volume                       1165.6
_cell_formula_units_Z              4
_symmetry_space_group_name_H-M     'C -1'
_symmetry_Int_Tables_number        2
_refine_ls_R_factor_all            .071
loop_
_symmetry_equiv_pos_site_id
_symmetry_equiv_pos_as_xyz
  1	'-x, -y, -z'
  2	'x, y, z'
  3	'-x+.5, -y+.5, -z'
  4	'x+.5, y+.5, z'
loop_
_atom_type_symbol
_atom_type_oxidation_number
Ca2+	2
Mn2+	2
O2-	-2
Si4+	4
Zn2+	2
loop_
_atom_site_label
_atom_site_type_symbol
_atom_site_symmetry_multiplicity
_atom_site_Wyckoff_symbol
_atom_site_fract_x
_atom_site_fract_y
_atom_site_fract_z
_atom_site_occupancy
_atom_site_attached_hydrogens
_atom_site_U_iso_or_equiv
Mn1 Mn2+ 4 i -0.00133(6) 0.03117(6) 0.14679(5) 1. 0 0.0060(2) 
Mn2 Mn2+ 4 i 0.00086(6) 0.12602(6) 0.44416(5) 1. 0 0.0064(2) 
Mn3 Mn2+ 4 i 0.01677(6) 0.20416(6) 0.72909(5) 1. 0 0.0062(2) 
Zn1 Zn2+ 4 i 0.06627(6) 0.26327(6) 0.02146(5) 1. 0 0.0096(2) 
Ca1 Ca2+ 4 i 0.99385(8) 0.35827(8) 0.30602(7) 1. 0 0.0096(2) 
Si1 Si4+ 4 i 0.2052(1) 0.4494(1) 0.911(1) 1. 0 0.0047(2) 
Si2 Si4+ 4 i 0.2131(1) 0.3665(1) 0.653(1) 1. 0 0.0042(2) 
Si3 Si4+ 4 i 0.2179(1) 0.5797(1) 0.528(1) 1. 0 0.0044(2) 
Si4 Si4+ 4 i 0.2139(1) 0.5059(1) 0.259(1) 1. 0 0.0048(2) 
Si5 Si4+ 4 i 0.2028(1) 0.7006(1) 0.123(1) 1. 0 0.0051(2) 
O1 O2- 4 i 0.1275(3) 0.0726(3) 0.0401(2) 1. 0 0.0079(5) 
O2 O2- 4 i 0.1189(3) 0.1582(3) 0.3227(2) 1. 0 0.0066(5) 
O3 O2- 4 i 0.1139(3) 0.9232(3) 0.4367(2) 1. 0 0.0073(5) 
O4 O2- 4 i 0.1198(3) 0.0137(3) 0.7330(2) 1. 0 0.0070(5) 
O5 O2- 4 i 0.1332(3) 0.7899(3) 0.8525(2) 1. 0 0.0079(5) 
O6 O2- 4 i 0.0954(3) 0.8321(3) 0.1283(3) 1. 0 0.0085(5) 
O7 O2- 4 i 0.1301(3) 0.3191(3) 0.9010(2) 1. 0 0.0090(5) 
O8 O2- 4 i 0.1258(3) 0.2360(3) 0.6103(2) 1. 0 0.0083(5) 
O9 O2- 4 i 0.1313(3) 0.7122(3) 0.5869(3) 1. 0 0.0103(5) 
O10 O2- 4 i 0.1261(3) 0.3806(3) 0.1805(3) 1. 0 0.0103(5) 
O11 O2- 4 i 0.1702(3) 0.4681(3) 0.7774(2) 1. 0 0.0072(5) 
O12 O2- 4 i 0.1591(3) 0.4595(3) 0.5638(2) 1. 0 0.0079(5) 
O13 O2- 4 i 0.1664(3) 0.5352(3) 0.3851(2) 1. 0 0.0085(5) 
O14 O2- 4 i 0.1571(3) 0.6428(3) 0.2201(2) 1. 0 0.0071(5) 
O15 O2- 4 i 0.1449(3) 0.5902(3) 0.9948(2) 1. 0 0.0079(5) 

loop_
_atom_site_aniso_label
_atom_site_aniso_type_symbol
_atom_site_aniso_U_11
_atom_site_aniso_U_22
_atom_site_aniso_U_33
_atom_site_aniso_U_12
_atom_site_aniso_U_13
_atom_site_aniso_U_23
Mn1 Mn2+ 0.0071 0.0055 0.0074 0.0042 0.0038 0.0023
Mn2 Mn2+ 0.0074 0.0069 0.0069 0.0045 0.0035 0.0022
Mn3 Mn2+ 0.0081 0.0058 0.0064 0.0034 0.0037 0.0019
Zn1 Zn2+ 0.0167 0.0073 0.0053 0.0044 -0.0001 -0.0008
Ca1 Ca2+ 0.0096 0.0098 0.0134 0.0073 0.0062 0.0014
Si1 Si4+ 0.0051 0.0058 0.0046 0.0034 0.0025 0.0018
Si2 Si4+ 0.0048 0.0047 0.0053 0.0044 0.0026 0.0016
Si3 Si4+ 0.0050 0.0057 0.0040 0.0036 0.0020 0.0020
Si4 Si4+ 0.0049 0.0065 0.0053 0.0049 0.0023 0.0019
Si5 Si4+ 0.0057 0.0056 0.0057 0.0043 0.0030 0.0029
O1 O2- 0.0063 0.0099 0.0085 0.0046 0.0017 0.0016
O2 O2- 0.0043 0.0080 0.0090 0.0051 0.0025 0.0027
O3 O2- 0.0047 0.0074 0.0097 0.0040 0.0005 0.0015
O4 O2- 0.0059 0.0074 0.0105 0.0065 0.0045 0.0040
O5 O2- 0.0073 0.0090 0.0093 0.0055 0.0031 0.0016
O6 O2- 0.0105 0.0047 0.0126 0.0058 0.0056 0.0050
O7 O2- 0.0120 0.0101 0.0075 0.0042 0.0029 -0.0038
O8 O2- 0.0104 0.0076 0.0075 0.0040 0.0017 -0.0024
O9 O2- 0.0097 0.0090 0.0107 0.0015 0.0042 0.0040
O10 O2- 0.0126 0.0105 0.0084 0.0020 0.0028 -0.0035
O11 O2- 0.0106 0.0087 0.0039 0.0032 0.0043 0.0024
O12 O2- 0.0086 0.0109 0.0085 0.0080 0.0034 0.0004
O13 O2- 0.0100 0.0134 0.0039 0.0050 0.0028 0.0009
O14 O2- 0.0078 0.0098 0.0071 0.0070 0.0042 0.0035
O15 O2- 0.0097 0.0088 0.0049 0.0024 0.0025 0.0033
#End of data_171935-ICSD


