data_50669-ICSD
#?2014 by Fachinformationszentrum Karlsruhe, and the U.S. Secretary of 
#Commerce on behalf of the United States.  All rights reserved.
_database_code_ICSD                50669
_audit_creation_date               2000/07/15
_audit_update_record               2003/10/01
_chemical_name_systematic
;
Dipotassium Selenate(IV) Hexahydroxotellurate
;
_chemical_formula_structural       'K2 (Se O4) (Te (O H)6)'
_chemical_formula_sum              'H6 K2 O10 Se1 Te1'
_publ_section_title
;
Structural and vibrational study of K2 Se O4 . Te (O H)6 material
;
loop_
_citation_id
_citation_journal_abbrev
_citation_year
_citation_journal_volume
_citation_page_first
_citation_page_last
_citation_journal_id_ASTM
primary 'Journal of Solid State Chemistry' 1999 145 612 618 JSSCBI
_publ_author_name
;
Dammak, M.;Khemakhem, H.;Mhiri, T.;Kolsi, A.W.;Daoud, A.
;
_cell_length_a                     11.552(2)
_cell_length_b                     6.432(1)
_cell_length_c                     13.919(2)
_cell_angle_alpha                  90.
_cell_angle_beta                   105.92
_cell_angle_gamma                  90.
_cell_volume                       994.55
_cell_formula_units_Z              4
_symmetry_space_group_name_H-M     'C 1 c 1'
_symmetry_Int_Tables_number        9
_refine_ls_R_factor_all            .023
loop_
_symmetry_equiv_pos_site_id
_symmetry_equiv_pos_as_xyz
  1	'x, -y, z+.5'
  2	'x, y, z'
  3	'x+.5, -y+.5, z+.5'
  4	'x+.5, y+.5, z'
loop_
_atom_type_symbol
_atom_type_oxidation_number
H1+	1
K1+	1
O2-	-2
Se6+	6
Te6+	6
loop_
_atom_site_label
_atom_site_type_symbol
_atom_site_symmetry_multiplicity
_atom_site_Wyckoff_symbol
_atom_site_fract_x
_atom_site_fract_y
_atom_site_fract_z
_atom_site_occupancy
_atom_site_attached_hydrogens
_atom_site_U_iso_or_equiv
Te1 Te6+ 4 a -.3416(6) -.2496(1) 0.2378(4) 1. 0 0.0132(2) 
Se1 Se6+ 4 a -.0921(1) -.2125(9) -.0115(1) 1. 0 0.0140(2) 
K1 K1+ 4 a -.4425(2) -.2013(6) -.1189(2) 1. 0 0.0277(5) 
K2 K1+ 4 a -.2401(2) 0.3010(6) 0.0988(2) 1. 0 0.0330(6) 
O1 O2- 4 a -.1911(6) -.3828(13) 0.2911(6) 1. 0 0.0223(15) 
O2 O2- 4 a -.3552(6) -.2061(14) 0.3692(5) 1. 0 0.0264(12) 
O3 O2- 4 a -.4179(6) 0.4923(11) 0.2282(5) 1. 0 0.0260(13) 
O4 O2- 4 a -.2591(5) 0.0166(12) 0.2478(4) 1. 0 0.0229(13) 
O5 O2- 4 a -.3216(6) -.2777(11) 0.1041(6) 1. 0 0.0185(12) 
O6 O2- 4 a -.4922(6) -.1028(5) 0.1852(5) 1. 0 0.026(2) 
O7 O2- 4 a 0.0232(5) -.3633(11) 0.0356(6) 1. 0 0.031(2) 
O8 O2- 4 a -.0587(5) -.0672(9) -.0987(5) 1. 0 0.0204(12) 
O9 O2- 4 a -.1264(6) -.0686(12) 0.0728(6) 1. 0 0.036(2) 
O10 O2- 4 a -.2112(6) -.3554(10) -.0614(5) 1. 0 0.030(2) 
H1 H1+ 4 a -.1836(70) -0.485(11) 0.3170(54) 1. 0 0.009(18) 
H2 H1+ 4 a -.3950(57) -0.324(11) 0.3809(38) 1. 0 0.008(14) 
H3 H1+ 4 a -.4690(54) 0.478(10) 0.1696(44) 1. 0 0.011(12) 
H4 H1+ 4 a -.1960(51) 0.021(10) 0.3084(40) 1. 0 0.010(14) 
H5 H1+ 4 a -.2403(94) -0.262(11) 0.1137(56) 1. 0 0.033(27) 
H6 H1+ 4 a -.4863(53) -0.011(12) 0.1442(44) 1. 0 0.016(14) 

#End of data_50669-ICSD


