data_10153-ICSD
#?2014 by Fachinformationszentrum Karlsruhe, and the U.S. Secretary of 
#Commerce on behalf of the United States.  All rights reserved.
_database_code_ICSD                10153
_audit_creation_date               1980/01/01
_audit_update_record               2013/08/01
_chemical_name_systematic          'Sodium Cadmium Phosphate(V)'
_chemical_formula_structural       'Na Cd (P O4)'
_chemical_formula_sum              'Cd1 Na1 O4 P1'
_publ_section_title
;
Crystal structure of the Na, Cd orthophosphate Na Cd P O4
;
loop_
_citation_id
_citation_journal_abbrev
_citation_year
_citation_journal_volume
_citation_page_first
_citation_page_last
_citation_journal_id_ASTM
primary Kristallografiya 1974 19 163 164 KRISAJ
2 'Soviet Physics, Crystallography (= Kristallografiya)'
 1974 19 96 97 SPHCA6
_publ_author_name
;
Ivanov, Yu.A.;Simonov, M.A.;Belov, N.V.
;
_cell_length_a                     10.832(4)
_cell_length_b                     6.494(2)
_cell_length_c                     5.055(2)
_cell_angle_alpha                  90.
_cell_angle_beta                   90.
_cell_angle_gamma                  90.
_cell_volume                       355.58
_cell_formula_units_Z              4
_symmetry_space_group_name_H-M     'P n 21 a'
_symmetry_Int_Tables_number        33
_refine_ls_R_factor_all            .077
loop_
_symmetry_equiv_pos_site_id
_symmetry_equiv_pos_as_xyz
  1	'x+.5, y, -z+.5'
  2	'-x+.5, y+.5, z+.5'
  3	'-x, y+.5, -z'
  4	'x, y, z'
loop_
_atom_type_symbol
_atom_type_oxidation_number
Cd2+	2
Na1+	1
O2-	-2
P5+	5
loop_
_atom_site_label
_atom_site_type_symbol
_atom_site_symmetry_multiplicity
_atom_site_Wyckoff_symbol
_atom_site_fract_x
_atom_site_fract_y
_atom_site_fract_z
_atom_site_occupancy
_atom_site_attached_hydrogens
Cd1 Cd2+ 4 a 0.2141 0.25 0.0148 1. 0 
Na1 Na1+ 4 a 0.4945 -.0145 -.0005 1. 0 
P1 P5+ 4 a 0.396 0.249 0.567 1. 0 
O1 O2- 4 a 0.393 0.26 0.263 1. 0 
O2 O2- 4 a 0.325 0.063 0.675 1. 0 
O3 O2- 4 a 0.333 0.439 0.71 1. 0 
O4 O2- 4 a 0.028 0.237 0.826 1. 0 

#End of data_10153-ICSD


