data_409508-ICSD
#?2014 by Fachinformationszentrum Karlsruhe, and the U.S. Secretary of 
#Commerce on behalf of the United States.  All rights reserved.
_database_code_ICSD                409508
_audit_creation_date               2002/04/01
_chemical_name_systematic          'Trisodium Hexachloroholmiate'
_chemical_formula_structural       'Na3 (Ho Cl6)'
_chemical_formula_sum              'Cl6 Ho1 Na3'
_publ_section_title
;
Crystal structure of trisodium holmium(III) hexachloride, Na3 Ho Cl6
;
loop_
_citation_id
_citation_journal_abbrev
_citation_year
_citation_journal_volume
_citation_page_first
_citation_page_last
_citation_journal_id_ASTM
primary 'Zeitschrift fuer Kristallographie - New Crystal Structures'
 2001 216 19 19 ZKNSFT
_publ_author_name
;
Boecker, M.;Gerlitzki, N.;Meyer, G.
;
_cell_length_a                     6.8683(9)
_cell_length_b                     7.2737(11)
_cell_length_c                     10.1668(14)
_cell_angle_alpha                  90.
_cell_angle_beta                   90.789(16)
_cell_angle_gamma                  90.
_cell_volume                       507.86
_cell_formula_units_Z              2
_symmetry_space_group_name_H-M     'P 1 21/n 1'
_symmetry_Int_Tables_number        14
_refine_ls_R_factor_all            .0199
loop_
_symmetry_equiv_pos_site_id
_symmetry_equiv_pos_as_xyz
  1	'-x+.5, y+.5, -z+.5'
  2	'-x, -y, -z'
  3	'x+.5, -y+.5, z+.5'
  4	'x, y, z'
loop_
_atom_type_symbol
_atom_type_oxidation_number
Cl1-	-1
Ho3+	3
Na1+	1
loop_
_atom_site_label
_atom_site_type_symbol
_atom_site_symmetry_multiplicity
_atom_site_Wyckoff_symbol
_atom_site_fract_x
_atom_site_fract_y
_atom_site_fract_z
_atom_site_occupancy
_atom_site_attached_hydrogens
Ho1 Ho3+ 2 c 0 0.5 0 1. 0 
Cl1 Cl1- 4 e 0.13828(15) 0.56477(15) 0.23939(9) 1. 0 
Cl2 Cl1- 4 e 0.16794(17) 0.80519(14) -.07731(11) 1. 0 
Cl3 Cl1- 4 e 0.31446(16) 0.32094(14) -.06372(11) 1. 0 
Na1 Na1+ 2 d 0 0.5 0.5 1. 0 
Na2 Na1+ 4 e -.0236(3) 0.9214(2) 0.25999(19) 1. 0 

loop_
_atom_site_aniso_label
_atom_site_aniso_type_symbol
_atom_site_aniso_U_11
_atom_site_aniso_U_22
_atom_site_aniso_U_33
_atom_site_aniso_U_12
_atom_site_aniso_U_13
_atom_site_aniso_U_23
Ho1 Ho3+ 0.01880(19) 0.01485(16) 0.01591(15) -.00060(8) 0.00053(10) 
-.00160(8)
Cl1 Cl1- 0.0337(6) 0.0318(5) 0.0182(4) 0.0026(5) -.0040(4) -.0032(5)
Cl2 Cl1- 0.0356(6) 0.0260(5) 0.0461(6) -.0130(4) -.0082(5) 0.0122(5)
Cl3 Cl1- 0.0321(7) 0.0313(5) 0.0448(6) 0.0157(4) 0.0121(5) 0.0102(5)
Na1 Na1+ 0.0342(17) 0.0258(12) 0.0369(13) -.0037(8) -.0060(12) 0.0028(9)
Na2 Na1+ 0.0344(11) 0.0261(9) 0.0636(12) 0.0078(8) 0.0022(9) -.0074(10)
#End of data_409508-ICSD


