data_69156-ICSD
#?2014 by Fachinformationszentrum Karlsruhe, and the U.S. Secretary of 
#Commerce on behalf of the United States.  All rights reserved.
_database_code_ICSD                69156
_audit_creation_date               1992/01/20
_chemical_name_systematic
;
Dicesium Potassium Hexacyanoferrate(III)
;
_chemical_formula_structural       'Cs2 K (Fe (C N)6)'
_chemical_formula_sum              'C6 Cs2 Fe1 K1 N6'
_publ_section_title
;
Charge density, covalence, and the ground state of the (Fe(CN)6)(3-) 
ion in Cs2K(Fe(CN)6)
;
loop_
_citation_id
_citation_journal_abbrev
_citation_year
_citation_journal_volume
_citation_page_first
_citation_page_last
_citation_journal_id_ASTM
primary
;
Journal of the Chemical Society. Dalton Transactions, Inorganic 
Chemistry (1972-)
;
 1990 1990 3597 3604 JCDTBI
_publ_author_name
;
Figgis, B.N.;Kucharski, E.S.;Raynes, J.M.;Reynolds, P.A.
;
_cell_length_a                     11.145(4)
_cell_length_b                     8.131(4)
_cell_length_c                     7.664(2)
_cell_angle_alpha                  90.
_cell_angle_beta                   90.16(3)
_cell_angle_gamma                  90.
_cell_volume                       694.51
_cell_formula_units_Z              2
_symmetry_space_group_name_H-M     'P 1 21/n 1'
_symmetry_Int_Tables_number        14
_refine_ls_R_factor_all            .027
loop_
_symmetry_equiv_pos_site_id
_symmetry_equiv_pos_as_xyz
  1	'-x+.5, y+.5, -z+.5'
  2	'-x, -y, -z'
  3	'x+.5, -y+.5, z+.5'
  4	'x, y, z'
loop_
_atom_type_symbol
_atom_type_oxidation_number
C2+	2
Cs1+	1
Fe3+	3
K1+	1
N3-	-3
loop_
_atom_site_label
_atom_site_type_symbol
_atom_site_symmetry_multiplicity
_atom_site_Wyckoff_symbol
_atom_site_fract_x
_atom_site_fract_y
_atom_site_fract_z
_atom_site_occupancy
_atom_site_attached_hydrogens
Cs1 Cs1+ 4 e 0.25053(1) 0.43218(1) 0.97926(2) 1. 0 
K1 K1+ 2 d 0 0.5 0.5 1. 0 
Fe1 Fe3+ 2 a 0 0 0 1. 0 
C1 C2+ 4 e 0.03114(16) 0.12796(23) 0.79242(29) 1. 0 
C2 C2+ 4 e 0.03874(17) 0.79990(26) 0.87508(22) 1. 0 
C3 C2+ 4 e 0.16644(33) 0.02150(21) 0.06864(25) 1. 0 
N1 N3- 4 e 0.05171(20) 0.20310(29) 0.66729(41) 1. 0 
N2 N3- 4 e 0.06321(23) 0.68055(42) 0.80051(32) 1. 0 
N3 N3- 4 e 0.26503(33) 0.03815(28) 0.11211(34) 1. 0 

loop_
_atom_site_aniso_label
_atom_site_aniso_type_symbol
_atom_site_aniso_U_11
_atom_site_aniso_U_22
_atom_site_aniso_U_33
_atom_site_aniso_U_12
_atom_site_aniso_U_13
_atom_site_aniso_U_23
Cs1 Cs1+ 0.0513(5) 0.0430(5) 0.0523(2) -.0014(1) 0.0011(1) 0.0056(1)
K1 K1+ 0.0305(5) 0.0286(5) 0.0346(5) -.0005(2) -.0010(2) 0.0010(2)
Fe1 Fe3+ 0.0249(7) 0.0234(6) 0.0279(5) 0.0012(1) 0.0009(2) 0.0011(2)
C1 C2+ 0.0388(16) 0.0335(14) 0.0338(14) 0.0040(7) 0.0054(7) 0.0080(8)
C2 C2+ 0.0453(17) 0.0281(15) 0.0355(14) 0.0053(7) 0.0006(7) -.0049(7)
C3 C2+ 0.0299(17) 0.0412(17) 0.0427(16) -.0016(6) -.0007(7) 0.0038(7)
N1 N3- 0.0808(30) 0.0494(22) 0.0503(20) 0.0122(11) 0.0202(13) 0.0263(13)
N2 N3- 0.0832(28) 0.0454(21) 0.0583(21) 0.0169(10) -.0083(12) -.0205(14)
N3 N3- 0.0345(25) 0.0716(26) 0.0739(25) -.0008(10) -.0035(10) 0.0075(17)
#End of data_69156-ICSD


