data_80041-ICSD
#?2014 by Fachinformationszentrum Karlsruhe, and the U.S. Secretary of 
#Commerce on behalf of the United States.  All rights reserved.
_database_code_ICSD                80041
_audit_creation_date               1996/10/14
_chemical_name_systematic          'Dialuminium Tetrayttrium Oxide'
_chemical_formula_structural       'Al2 Y4 O9'
_chemical_formula_sum              'Al2 O9 Y4'
_publ_section_title
;
Thermogravimetry and Rietveld analysis for the high-temperature X-ray 
powder diffraction pattern of Y4 Al2 O9
;
loop_
_citation_id
_citation_journal_abbrev
_citation_year
_citation_journal_volume
_citation_page_first
_citation_page_last
_citation_journal_id_ASTM
primary 'Journal of Materials Science. Letters' 1995 14 470 473 JMSLD5
_publ_author_name                  'Yamane, H.;Omori, M.;Hirai, T.'
_cell_length_a                     7.4706(5)
_cell_length_b                     10.5350(6)
_cell_length_c                     11.1941(8)
_cell_angle_alpha                  90.
_cell_angle_beta                   108.888(5)
_cell_angle_gamma                  90.
_cell_volume                       833.57
_cell_formula_units_Z              4
_symmetry_space_group_name_H-M     'P 1 21/c 1'
_symmetry_Int_Tables_number        14
_refine_ls_R_factor_all            .044
loop_
_symmetry_equiv_pos_site_id
_symmetry_equiv_pos_as_xyz
  1	'x, -y+.5, z+.5'
  2	'-x, -y, -z'
  3	'-x, y+.5, -z+.5'
  4	'x, y, z'
loop_
_atom_type_symbol
_atom_type_oxidation_number
Al3+	3
O2-	-2
Y3+	3
loop_
_atom_site_label
_atom_site_type_symbol
_atom_site_symmetry_multiplicity
_atom_site_Wyckoff_symbol
_atom_site_fract_x
_atom_site_fract_y
_atom_site_fract_z
_atom_site_occupancy
_atom_site_attached_hydrogens
Y1 Y3+ 4 e 0.532(3) 0.094(2) 0.799(2) 1. 0 
Y2 Y3+ 4 e 0.014(3) 0.099(2) 0.797(2) 1. 0 
Y3 Y3+ 4 e 0.342(2) 0.117(2) 0.414(1) 1. 0 
Y4 Y3+ 4 e 0.834(3) 0.124(2) 0.434(1) 1. 0 
Al1 Al3+ 4 e 0.174(10) 0.158(4) 0.113(6) 1. 0 
Al2 Al3+ 4 e 0.675(10) 0.196(5) 0.135(5) 1. 0 
O1 O2- 4 e 0.211(5) 0.007(9) 0.143(8) 1. 0 
O2 O2- 4 e 0.733(13) 0.051(8) 0.176(8) 1. 0 
O3 O2- 4 e 0.034(15) -.012(9) 0.403(9) 1. 0 
O4 O2- 4 e 0.583(15) 0.005(8) 0.381(8) 1. 0 
O5 O2- 4 e 0.248(15) 0.255(8) 0.238(9) 1. 0 
O6 O2- 4 e 0.079(13) 0.248(9) 0.956(8) 1. 0 
O7 O2- 4 e 0.752(14) 0.286(9) 0.288(8) 1. 0 
O8 O2- 4 e 0.645(12) 0.201(7) 0.985(9) 1. 0 
O9 O2- 4 e 0.415(15) 0.210(7) 0.096(8) 1. 0 

#End of data_80041-ICSD


