data_656971-ICSD
#?2014 by Fachinformationszentrum Karlsruhe, and the U.S. Secretary of 
#Commerce on behalf of the United States.  All rights reserved.
_database_code_ICSD                656971
_audit_creation_date               2013/08/01
_chemical_name_systematic
;
Trisodium Catena-trinitridotungstate
;
_chemical_formula_structural       'Na3 W N3'
_chemical_formula_sum              'N3 Na3 W1'
_publ_section_title
;
Natriumnitridometallate, Na3 M N3, von Molybdaen (VI) und Wolfram 
(VI) mit (Cr O2 O2/2)-isosteren (Mo N2 N2/2)3- - Ketten
;
loop_
_citation_id
_citation_journal_abbrev
_citation_year
_citation_journal_volume
_citation_page_first
_citation_page_last
_citation_journal_id_ASTM
primary 'Journal of Alloys and Compounds' 1992 190 137 140 JALCEU
_publ_author_name
;
Ostermann, D.;Zachwieja, U.;Jacobs, H.
;
_cell_length_a                     13.777(3)
_cell_length_b                     10.999(2)
_cell_length_c                     6.401(2)
_cell_angle_alpha                  90.0
_cell_angle_beta                   117.18(2)
_cell_angle_gamma                  90.0
_cell_volume                       862.86
_cell_formula_units_Z              8
_symmetry_space_group_name_H-M     'C 1 c 1'
_symmetry_Int_Tables_number        9
loop_
_symmetry_equiv_pos_site_id
_symmetry_equiv_pos_as_xyz
  1	'x, -y, z+.5'
  2	'x, y, z'
  3	'x+.5, -y+.5, z+.5'
  4	'x+.5, y+.5, z'
loop_
_atom_type_symbol
_atom_type_oxidation_number
N3-	-3
Na1+	1
W6+	6
loop_
_atom_site_label
_atom_site_type_symbol
_atom_site_symmetry_multiplicity
_atom_site_Wyckoff_symbol
_atom_site_fract_x
_atom_site_fract_y
_atom_site_fract_z
_atom_site_occupancy
_atom_site_attached_hydrogens
W1 W6+ 4 a 0 0.238 0 1. 0 
W2 W6+ 4 a 0.250 0.251 0.575 1. 0 
N1 N3- 4 a 0.004 0.393 0.906 1. 0 
N2 N3- 4 a 0.022 0.126 0.822 1. 0 
N3 N3- 4 a 0.242 0.384 0.735 1. 0 
N4 N3- 4 a 0.292 0.127 0.781 1. 0 
N5 N3- 4 a 0.605 0.285 0.823 1. 0 
N6 N3- 4 a 0.356 0.290 0.469 1. 0 
Na1 Na1+ 4 a 0.492 0.216 0.015 1. 0 
Na2 Na1+ 4 a 0.381 0.021 0.578 1. 0 
Na3 Na1+ 4 a 0.625 0.020 0.814 1. 0 
Na4 Na1+ 4 a 0.238 0.248 0.037 1. 0 
Na5 Na1+ 4 a 0.617 0.526 0.628 1. 0 
Na6 Na1+ 4 a 0.364 0.486 0.120 1. 0 

#End of data_656971-ICSD


