data_15137-ICSD
#?2014 by Fachinformationszentrum Karlsruhe, and the U.S. Secretary of 
#Commerce on behalf of the United States.  All rights reserved.
_database_code_ICSD                15137
_audit_creation_date               1980/01/01
_audit_update_record               1988/01/18
_chemical_name_systematic          'Sodium Uranium Oxide (11/5/16)'
_chemical_formula_structural       'Na11 U5 O16'
_chemical_formula_sum              'Na11 O16 U5'
_publ_section_title
;
Preparation and crystal structure of Na U O3 and Na11 O16 U5
;
loop_
_citation_id
_citation_journal_abbrev
_citation_year
_citation_journal_volume
_citation_page_first
_citation_page_last
_citation_journal_id_ASTM
primary 'Journal of Inorganic and Nuclear Chemistry' 1970 32 3701 3706 JINCAO
_publ_author_name                  'Bartram, S.F.;Fryxell, R.E.'
_cell_length_a                     9.543(2)
_cell_length_b                     9.543(2)
_cell_length_c                     9.543(2)
_cell_angle_alpha                  90.
_cell_angle_beta                   90.
_cell_angle_gamma                  90.
_cell_volume                       869.07
_cell_formula_units_Z              2
_symmetry_space_group_name_H-M     'P 42 3 2'
_symmetry_Int_Tables_number        208
loop_
_symmetry_equiv_pos_site_id
_symmetry_equiv_pos_as_xyz
  1	'z+.5, y+.5, -x+.5'
  2	'y+.5, x+.5, -z+.5'
  3	'x+.5, z+.5, -y+.5'
  4	'-z, -x, y'
  5	'-y, -z, x'
  6	'-x, -y, z'
  7	'-z+.5, y+.5, x+.5'
  8	'-y+.5, x+.5, z+.5'
  9	'-x+.5, z+.5, y+.5'
 10	'z, -x, -y'
 11	'y, -z, -x'
 12	'x, -y, -z'
 13	'z+.5, -y+.5, x+.5'
 14	'y+.5, -x+.5, z+.5'
 15	'x+.5, -z+.5, y+.5'
 16	'-z, x, -y'
 17	'-y, z, -x'
 18	'-x, y, -z'
 19	'-z+.5, -y+.5, -x+.5'
 20	'-y+.5, -x+.5, -z+.5'
 21	'-x+.5, -z+.5, -y+.5'
 22	'z, x, y'
 23	'y, z, x'
 24	'x, y, z'
loop_
_atom_type_symbol
_atom_type_oxidation_number
Na1+	1
O2-	-2
U4.2+	4.2
loop_
_atom_site_label
_atom_site_type_symbol
_atom_site_symmetry_multiplicity
_atom_site_Wyckoff_symbol
_atom_site_fract_x
_atom_site_fract_y
_atom_site_fract_z
_atom_site_occupancy
_atom_site_attached_hydrogens
U1 U4.2+ 4 b 0.25 0.25 0.25 1. 0 
U2 U4.2+ 6 f 0.25 0.5 0 1. 0 
Na1 Na1+ 4 c 0.75 0.75 0.75 1. 0 
Na2 Na1+ 6 e 0.25 0 0.5 1. 0 
Na3 Na1+ 12 h 0.25 0 0 1. 0 
O1 O2- 2 a 0 0 0 1. 0 
O2 O2- 6 d 0 0.5 0.5 1. 0 
O3 O2- 24 m 0.75 0.25 0 1. 0 

#End of data_15137-ICSD


