data_78363-ICSD
#?2014 by Fachinformationszentrum Karlsruhe, and the U.S. Secretary of 
#Commerce on behalf of the United States.  All rights reserved.
_database_code_ICSD                78363
_audit_creation_date               1996/04/22
_chemical_name_systematic
;
Calcium Divanadium(III) Bis(phosphate(V)) Hydrogenphosphate(V)
;
_chemical_formula_structural       'Ca V2 (P O4)2 (H P O4)'
_chemical_formula_sum              'H1 Ca1 O12 P3 V2'
_publ_section_title
;
Ca M2 (P O4)2 (H P O4) (M=Fe or V): phosphates containing dimers of 
edge-sharing MO6 octahedra
;
loop_
_citation_id
_citation_journal_abbrev
_citation_year
_citation_journal_volume
_citation_page_first
_citation_page_last
_citation_journal_id_ASTM
primary
;
Journal of the Chemical Society. Dalton Transactions, Inorganic 
Chemistry (1972-)
;
 1994 1994 931 935 JCDTBI
_publ_author_name                  'Lii, K.-H.'
_cell_length_a                     6.359(2)
_cell_length_b                     19.9730(20)
_cell_length_c                     6.4744(4)
_cell_angle_alpha                  90.
_cell_angle_beta                   91.51(1)
_cell_angle_gamma                  90.
_cell_volume                       822.02
_cell_formula_units_Z              4
_symmetry_space_group_name_H-M     'P 1 21/n 1'
_symmetry_Int_Tables_number        14
_refine_ls_R_factor_all            .039
loop_
_symmetry_equiv_pos_site_id
_symmetry_equiv_pos_as_xyz
  1	'-x+.5, y+.5, -z+.5'
  2	'-x, -y, -z'
  3	'x+.5, -y+.5, z+.5'
  4	'x, y, z'
loop_
_atom_type_symbol
_atom_type_oxidation_number
Ca2+	2
H1+	1
O2-	-2
P5+	5
V3+	3
loop_
_atom_site_label
_atom_site_type_symbol
_atom_site_symmetry_multiplicity
_atom_site_Wyckoff_symbol
_atom_site_fract_x
_atom_site_fract_y
_atom_site_fract_z
_atom_site_occupancy
_atom_site_attached_hydrogens
_atom_site_U_iso_or_equiv
Ca1 Ca2+ 4 e 0.6438(2) 0.42041(7) 0.4363(2) 1. 0 0 
V1 V3+ 4 e 0.0976(2) 0.40293(6) 0.7658(2) 1. 0 0 
V2 V3+ 4 e 0.0647(2) 0.28971(5) 0.4142(2) 1. 0 0 
P1 P5+ 4 e 0.5861(3) 0.37832(9) 0.8830(2) 1. 0 0 
P2 P5+ 4 e 0.0611(3) 0.24833(9) 0.9186(2) 1. 0 0 
P3 P5+ 4 e 0.1189(3) 0.44934(8) 1.2817(2) 1. 0 0 
O1 O2- 4 e 0.7906(7) 0.3932(2) 0.7743(7) 1. 0 0.00765(94) 
O2 O2- 4 e 0.5792(8) 0.4272(2) 1.0743(7) 1. 0 0.0111(10) 
O3 O2- 4 e 0.4062(7) 0.3998(2) 0.7328(7) 1. 0 0.00750(93) 
O4 O2- 4 e 0.5674(8) 0.3084(2) 0.9567(7) 1. 0 0.0118(10) 
O5 O2- 4 e 0.0875(7) 0.3002(2) 0.7385(7) 1. 0 0.00654(91) 
O6 O2- 4 e 0.0389(8) 0.2887(2) 1.1148(7) 1. 0 0.00882(96) 
O7 O2- 4 e -.1290(7) 0.2027(2) 0.8831(7) 1. 0 0.00881(97) 
O8 O2- 4 e 0.2527(7) 0.2013(2) 0.9274(7) 1. 0 0.00680(92) 
O9 O2- 4 e 0.1515(8) 0.4196(2) 1.0693(7) 1. 0 0.00940(95) 
O10 O2- 4 e 0.0455(7) 0.3934(2) 0.4366(6) 1. 0 0.00604(91) 
O11 O2- 4 e 0.3249(7) 0.4788(2) 1.3650(7) 1. 0 0.00780(93) 
O12 O2- 4 e -.0647(7) 0.4997(2) 1.2779(7) 1. 0 0.00732(92) 
H1 H1+ 4 e 0.4305 0.4462 0.1005 1. 0 0.05(92) 

loop_
_atom_site_aniso_label
_atom_site_aniso_type_symbol
_atom_site_aniso_U_11
_atom_site_aniso_U_22
_atom_site_aniso_U_33
_atom_site_aniso_U_12
_atom_site_aniso_U_13
_atom_site_aniso_U_23
Ca1 Ca2+ 0.00870(63) 0.01094(70) 0.00736(58) 0.00251(53) -.00078(49) 
-.00085(48)
V1 V3+ 0.00431(52) 0.00460(55) 0.00817(50) 0.00007(43) -.00087(39) 
-.00016(40)
V2 V3+ 0.00396(49) 0.00449(53) 0.00563(52) 0.00035(43) -.00037(39) 
-.00111(38)
P1 P5+ 0.00418(75) 0.00587(79) 0.00638(70) 0.00018(65) -.00020(58) 
0.00011(59)
P2 P5+ 0.00326(70) 0.00348(72) 0.00384(71) -.00062(61) -.00061(58) 
0.00032(55)
P3 P5+ 0.00416(74) 0.00359(77) 0.00504(72) -.00042(60) -.00073(58) 
0.00092(56)
#End of data_78363-ICSD


