data_245925-ICSD
#?2014 by Fachinformationszentrum Karlsruhe, and the U.S. Secretary of 
#Commerce on behalf of the United States.  All rights reserved.
_database_code_ICSD                245925
_audit_creation_date               2009/02/01
_chemical_name_systematic          'Tripotassium Yttrium Bis(borate)'
_chemical_formula_structural       'K3 Y (B O3)2'
_chemical_formula_sum              'B2 K3 O6 Y1'
_publ_section_title
;
Potassium rich rare earth (RE) borates K3 RE (B O3)2
;
loop_
_citation_id
_citation_journal_abbrev
_citation_year
_citation_journal_volume
_citation_journal_issue
_citation_page_first
_citation_page_last
_citation_journal_id_ASTM
primary 'Solid State Sciences' 2008 10 1 26 30 SSSCFJ
_publ_author_name                  'Gao, J.H.;Li, R.-K.'
_cell_length_a                     9.3377(9)
_cell_length_b                     6.7701(6)
_cell_length_c                     5.5058(4)
_cell_angle_alpha                  90.
_cell_angle_beta                   90.
_cell_angle_gamma                  90.
_cell_volume                       348.06
_cell_formula_units_Z              2
_symmetry_space_group_name_H-M     'P n n m'
_symmetry_Int_Tables_number        58
_refine_ls_R_factor_all            .028
loop_
_symmetry_equiv_pos_site_id
_symmetry_equiv_pos_as_xyz
  1	'x+.5, -y+.5, z+.5'
  2	'-x+.5, y+.5, z+.5'
  3	'x, y, -z'
  4	'-x, -y, -z'
  5	'-x+.5, y+.5, -z+.5'
  6	'x+.5, -y+.5, -z+.5'
  7	'-x, -y, z'
  8	'x, y, z'
loop_
_atom_type_symbol
_atom_type_oxidation_number
B3+	3
K1+	1
O2-	-2
Y3+	3
loop_
_atom_site_label
_atom_site_type_symbol
_atom_site_symmetry_multiplicity
_atom_site_Wyckoff_symbol
_atom_site_fract_x
_atom_site_fract_y
_atom_site_fract_z
_atom_site_occupancy
_atom_site_attached_hydrogens
_atom_site_U_iso_or_equiv
Y1 Y3+ 2 c 0 0.5 0 1. 0 0.0092(2) 
K1 K1+ 4 g 0.33198(11) 0.23290(13) 0 1. 0 0.0166(3) 
K2 K1+ 2 a 0 0 0 1. 0 0.0141(3) 
O1 O2- 8 h 0.9033(2) 0.7009(2) 0.7163(3) 1. 0 0.0124(5) 
O2 O2- 4 g 0.6957(3) 0.8076(3) 0.5 1. 0 0.0122(6) 
B1 B3+ 4 g 0.8342(5) 0.7359(6) 0.5 1. 0 0.0087(11) 

#End of data_245925-ICSD


