data_161813-ICSD
#?2014 by Fachinformationszentrum Karlsruhe, and the U.S. Secretary of 
#Commerce on behalf of the United States.  All rights reserved.
_database_code_ICSD                161813
_audit_creation_date               2009/02/01
_audit_update_record               2011/02/01
_chemical_name_systematic          'Calcium Aluminium Triborate'
_chemical_formula_structural       'Ca Al (B3 O7)'
_chemical_formula_sum              'Al1 B3 Ca1 O7'
_chemical_name_mineral             Johachidolite
_publ_section_title
;
Johachidolite, Ca Al (B3 O7), a mineralogical and structural 
peculiarity
;
loop_
_citation_id
_citation_journal_abbrev
_citation_year
_citation_journal_volume
_citation_page_first
_citation_page_last
_citation_journal_id_ASTM
primary 'European Journal of Mineralogy' 2008 20 965 973 EJMIER
_publ_author_name
;
Kadiyski, M.;Armbruster, T.;Guenther, D.;Reusser, E.;Peretti, A.
;
_cell_length_a                     7.967(2)
_cell_length_b                     11.723(3)
_cell_length_c                     4.3718(5)
_cell_angle_alpha                  90.
_cell_angle_beta                   90.
_cell_angle_gamma                  90.
_cell_volume                       408.31
_cell_formula_units_Z              4
_symmetry_space_group_name_H-M     'C m m a'
_symmetry_Int_Tables_number        67
_refine_ls_R_factor_all            .0251
loop_
_symmetry_equiv_pos_site_id
_symmetry_equiv_pos_as_xyz
  1	'x+.5, y, -z'
  2	'x+.5, -y, z'
  3	'-x, y, z'
  4	'-x, -y, -z'
  5	'-x+.5, -y, z'
  6	'-x+.5, y, -z'
  7	'x, -y, -z'
  8	'x, y, z'
  9	'x, y+.5, -z'
 10	'x, -y+.5, z'
 11	'-x+.5, y+.5, z'
 12	'-x+.5, -y+.5, -z'
 13	'-x, -y+.5, z'
 14	'-x, y+.5, -z'
 15	'x+.5, -y+.5, -z'
 16	'x+.5, y+.5, z'
loop_
_atom_type_symbol
_atom_type_oxidation_number
Al3+	3
B3+	3
Ca2+	2
O2-	-2
loop_
_atom_site_label
_atom_site_type_symbol
_atom_site_symmetry_multiplicity
_atom_site_Wyckoff_symbol
_atom_site_fract_x
_atom_site_fract_y
_atom_site_fract_z
_atom_site_occupancy
_atom_site_attached_hydrogens
_atom_site_U_iso_or_equiv
Ca1 Ca2+ 4 e 0.250 0.250 0 1. 0 0.00801(9) 
Al1 Al3+ 4 c 0 0 0 1. 0 0.00419(10) 
B1 B3+ 4 b 0.250 0 0.5 1. 0 0.00436(18) 
B2 B3+ 8 m 0 0.13658(6) 0.45836(19) 1. 0 0.00479(13) 
O1 O2- 4 g 0 0.250 0.32945(18) 1. 0 0.00599(14) 
O2 O2- 8 m 0 0.13131(5) -0.22291(12) 1. 0 0.00538(12) 
O3 O2- 16 o 0.14664(5) 0.07316(3) 0.29975(9) 1. 0 0.00471(10) 

loop_
_atom_site_aniso_label
_atom_site_aniso_type_symbol
_atom_site_aniso_U_11
_atom_site_aniso_U_22
_atom_site_aniso_U_33
_atom_site_aniso_U_12
_atom_site_aniso_U_13
_atom_site_aniso_U_23
Ca1 Ca2+ 0.00840(12) 0.00811(12) 0.00752(13) 0. 0.00273(5) 0.
Al1 Al3+ 0.00491(16) 0.00432(16) 0.00333(17) 0.00016(8) 0. 0.
B1 B3+ 0.0041(4) 0.0047(4) 0.0042(4) 0. 0. 0.
B2 B3+ 0.0054(3) 0.0046(3) 0.0043(2) 0. 0. 0.00001(19)
O1 O2- 0.0102(3) 0.0032(2) 0.0045(3) 0. 0. 0.
O2 O2- 0.0073(2) 0.0053(2) 0.00346(19) 0. 0. 0.00031(13)
O3 O2- 0.00406(15) 0.00546(16) 0.00460(16) 0.00092(9) -0.00018(9) 
0.00028(9)
#End of data_161813-ICSD


