data_28426-ICSD
#?2014 by Fachinformationszentrum Karlsruhe, and the U.S. Secretary of 
#Commerce on behalf of the United States.  All rights reserved.
_database_code_ICSD                28426
_audit_creation_date               1980/01/01
_audit_update_record               1997/11/10
_chemical_name_systematic
;
Calcium Trihydroxotriborate Hydrate
;
_chemical_formula_structural       'Ca B3 O4 (O H)3 H2 O'
_chemical_formula_sum              'H5 B3 Ca1 O8'
_chemical_name_mineral             Colemanite
_publ_section_title
;
The Structural Basis of Ferroelectricity in Colemanite
;
loop_
_citation_id
_citation_journal_abbrev
_citation_year
_citation_journal_volume
_citation_page_first
_citation_page_last
_citation_journal_id_ASTM
primary 'Canadian Journal of Physics' 1966 44 3083 3107 CJPHAD
_publ_author_name                  'Hainsworth, F.N.;Petch, H.E.'
_cell_length_a                     8.743(4)
_cell_length_b                     11.264(2)
_cell_length_c                     6.102(3)
_cell_angle_alpha                  90.
_cell_angle_beta                   110.12(8)
_cell_angle_gamma                  90.
_cell_volume                       564.26
_cell_formula_units_Z              4
_symmetry_space_group_name_H-M     'P 1 21 1'
_symmetry_Int_Tables_number        4
_refine_ls_R_factor_all            .035
loop_
_symmetry_equiv_pos_site_id
_symmetry_equiv_pos_as_xyz
  1	'-x, y+.5, -z'
  2	'x, y, z'
loop_
_atom_type_symbol
_atom_type_oxidation_number
B3+	3
Ca2+	2
H1+	1
O2-	-2
loop_
_atom_site_label
_atom_site_type_symbol
_atom_site_symmetry_multiplicity
_atom_site_Wyckoff_symbol
_atom_site_fract_x
_atom_site_fract_y
_atom_site_fract_z
_atom_site_occupancy
_atom_site_attached_hydrogens
_atom_site_B_iso_or_equiv
Ca1 Ca2+ 2 a 0.3929(27) 0.2878(18) 0.7320(47) 1. 0 0.97 
B1 B3+ 2 a 0.5821(19) 0.2164(28) 0.3040(55) 1. 0 0.23 
B2 B3+ 2 a 0.4704(17) 0.0604(26) 0.4906(62) 1. 0 0.18 
B3 B3+ 2 a 0.2938(19) 0.1784(25) 0.1640(48) 1. 0 0.7 
O1 O2- 2 a 0.597(2) 0.1473(29) 0.5054(46) 1. 0 1.19 
O2 O2- 2 a 0.4426(18) 0.2291(30) 0.1381(31) 1. 0 0.15 
O3 O2- 2 a 0.3318(21) 0.0581(29) 0.2680(48) 1. 0 0.93 
O4 O2- 2 a 0.7302(20) 0.2537(30) 0.3165(42) 1. 0 0.51 
O5 O2- 2 a 0.5481(26) -.0614(37) 0.5162(82) 1. 0 1.81 
O6 O2- 2 a 0.4104(23) 0.0790(33) 0.6696(46) 1. 0 1.5 
O7 O2- 2 a 0.1705(21) 0.1568(32) -.0691(49) 1. 0 1.46 
O8 O2- 2 a 0.3599(18) 0.4878(23) 0.8974(32) 1. 0 0.54 
H1 H1+ 2 a 0.3331(40) 0.0198(36) 0.6922(92) 1. 0 1.7 
H2 H1+ 2 a 0.1606(27) 0.0878(29) -.1365(55) 1. 0 0.7 
H3 H1+ 2 a 0.5645(25) -.0937(36) 0.6823(43) 1. 0 1.6 
H4 H1+ 2 a 0.3293(36) 0.5229(34) 0.7232(96) 1. 0 2.4 
H5 H1+ 2 a 0.4524(52) 0.5212(76) 0.0066(99) 1. 0 4.3 
Ca2 Ca2+ 2 a 0.8781(25) 0.2110(18) 0.7434(46) 1. 0 1.05 
B4 B3+ 2 a 0.0876(23) 0.2907(30) 0.3030(69) 1. 0 0.37 
B5 B3+ 2 a 0.9715(20) 0.4585(29) 0.4883(91) 1. 0 0.61 
B6 B3+ 2 a 0.7868(17) 0.3361(24) 0.1614(40) 1. 0 0.39 
O9 O2- 2 a 0.0883(17) 0.3495(24) 0.5063(38) 1. 0 0.28 
O10 O2- 2 a 0.9346(19) 0.2681(32) 0.1446(37) 1. 0 0.69 
O11 O2- 2 a 0.8409(18) 0.4509(29) 0.2704(37) 1. 0 0.23 
O12 O2- 2 a 0.2310(21) 0.2490(32) 0.3139(44) 1. 0 0.78 
O13 O2- 2 a 0.0442(20) 0.5708(30) 0.5075(75) 1. 0 0.4 
O14 O2- 2 a 0.9238(21) 0.4244(29) 0.6984(69) 1. 0 0.58 
O15 O2- 2 a 0.6705(16) 0.3329(27) -.0781(32) 1. 0 0.15 
O16 O2- 2 a 0.8698(27) 0.0256(29) 0.9155(52) 1. 0 2.47 
H6 H1+ 2 a 0.8224(34) 0.4711(38) 0.6989(75) 1. 0 1.2 
H7 H1+ 2 a 0.6847(26) 0.4180(31) -.1204(71) 1. 0 0.9 
H8 H1+ 2 a 0.1322(30) 0.5769(37) 0.6574(62) 1. 0 2.9 
H9 H1+ 2 a 0.7600(69) 0.0052(81) 0.9312(96) 1. 0 5. 
H10 H1+ 2 a 0.9564(33) -.0143(55) 0.0466(64) 1. 0 1.8 

#End of data_28426-ICSD


