data_160603-ICSD
#?2014 by Fachinformationszentrum Karlsruhe, and the U.S. Secretary of 
#Commerce on behalf of the United States.  All rights reserved.
_database_code_ICSD                160603
_audit_creation_date               2009/02/01
_chemical_name_systematic
;
Lithium Hexayttrium Pentaoxide Tris(borate)
;
_chemical_formula_structural       'Li Y6 O5 (B O3)3'
_chemical_formula_sum              'B3 Li1 O14 Y6'
_publ_section_title
;
Crystal structure of lithium yttrium borate Li Y6 O5 (B O3)3
;
loop_
_citation_id
_citation_journal_abbrev
_citation_year
_citation_journal_volume
_citation_journal_issue
_citation_page_first
_citation_page_last
_citation_journal_id_ASTM
primary 'Jiegon Huaxue' 2006 25 10 1175 1178 JHUADF
_publ_author_name                  'Gao Jianhua'
_cell_length_a                     8.330(3)
_cell_length_b                     15.444(4)
_cell_length_c                     8.780(3)
_cell_angle_alpha                  90.
_cell_angle_beta                   91.85(3)
_cell_angle_gamma                  90.
_cell_volume                       1128.95
_cell_formula_units_Z              4
_symmetry_space_group_name_H-M     'P 1 21/n 1'
_symmetry_Int_Tables_number        14
_refine_ls_R_factor_all            .0722
loop_
_symmetry_equiv_pos_site_id
_symmetry_equiv_pos_as_xyz
  1	'-x+.5, y+.5, -z+.5'
  2	'-x, -y, -z'
  3	'x+.5, -y+.5, z+.5'
  4	'x, y, z'
loop_
_atom_type_symbol
_atom_type_oxidation_number
B3+	3
Li1+	1
O2-	-2
Y3+	3
loop_
_atom_site_label
_atom_site_type_symbol
_atom_site_symmetry_multiplicity
_atom_site_Wyckoff_symbol
_atom_site_fract_x
_atom_site_fract_y
_atom_site_fract_z
_atom_site_occupancy
_atom_site_attached_hydrogens
_atom_site_U_iso_or_equiv
Y1 Y3+ 4 e 0.6443(2) 0.3216(1) 0.1935(1) 1. 0 0.040(1) 
Y2 Y3+ 4 e 0.6996(2) 0.4963(1) 0.9387(1) 1. 0 0.040(1) 
Y3 Y3+ 4 e 0.5429(2) 0.1747(1) 0.5536(2) 1. 0 0.042(1) 
Y4 Y3+ 4 e 0.4232(2) 0.3341(1) 0.8337(2) 1. 0 0.041(1) 
Y5 Y3+ 4 e 0.0521(2) 0.4869(1) 0.7165(2) 1. 0 0.040(1) 
Y6 Y3+ 4 e 0.2764(2) 0.3549(1) 0.4233(2) 1. 0 0.041(1) 
Li1 Li1+ 4 e 0.674(3) 0.395(2) 0.559(3) 1. 0 0.065(8) 
B1 B3+ 4 e 0.8194(19) 0.3086(9) 0.7792(17) 1. 0 0.040(3) 
B2 B3+ 4 e 0.4332(18) 0.4996(9) 0.6470(17) 1. 0 0.039(3) 
B3 B3+ 4 e 0.4280(20) 0.1720(11) 0.9715(17) 1. 0 0.045(3) 
O1 O2- 4 e 0.6777(11) 0.2758(6) 0.7282(11) 1. 0 0.048(2) 
O2 O2- 4 e 0.9409(12) 0.2504(6) 0.8227(10) 1. 0 0.043(2) 
O3 O2- 4 e 0.8499(12) 0.3935(6) 0.8001(12) 1. 0 0.051(2) 
O4 O2- 4 e 0.4683(12) 0.5874(6) 0.6180(10) 1. 0 0.043(2) 
O5 O2- 4 e 0.5442(12) 0.4492(6) 0.7228(10) 1. 0 0.043(2) 
O6 O2- 4 e 0.2910(11) 0.4644(6) 0.5936(11) 1. 0 0.045(2) 
O7 O2- 4 e 0.5503(11) 0.2322(6) 0.9959(10) 1. 0 0.045(2) 
O8 O2- 4 e 0.2841(12) 0.2062(6) 0.9226(11) 1. 0 0.047(2) 
O9 O2- 4 e 0.4560(14) 0.0866(6) 0.9930(11) 1. 0 0.054(3) 
O10 O2- 4 e 0.6946(11) 0.0985(6) 0.3943(10) 1. 0 0.042(2) 
O11 O2- 4 e 0.3481(12) 0.2678(5) 0.6227(10) 1. 0 0.043(2) 
O12 O2- 4 e 0.5105(11) 0.4088(6) 0.0354(10) 1. 0 0.041(2) 
O13 O2- 4 e 0.1599(11) 0.4203(6) 0.2221(10) 1. 0 0.041(2) 
O14 O2- 4 e 0.8405(12) 0.4146(6) 0.1230(11) 1. 0 0.046(2) 

#End of data_160603-ICSD


