data_263129-ICSD
#?2014 by Fachinformationszentrum Karlsruhe, and the U.S. Secretary of 
#Commerce on behalf of the United States.  All rights reserved.
_database_code_ICSD                263129
_audit_creation_date               2013/02/01
_chemical_name_systematic
;
Calcium Dizinc Disilicate Monohydrate
;
_chemical_formula_structural       'Ca Zn2 Si2 O7 (H2 O)'
_chemical_formula_sum              'H2 Ca1 O8 Si2 Zn2'
_chemical_name_mineral             Junitoite
_publ_section_title
;
Redetermination of junitoite, Ca Zn2 Si2 O7 * H2 O
;
loop_
_citation_id
_citation_journal_abbrev
_citation_year
_citation_journal_volume
_citation_journal_issue
_citation_page_first
_citation_page_last
_citation_journal_id_ASTM
primary 'Acta Crystallographica, Section E. Structure Reports Online'
 2012 68 10 i73 i73 ACSEBH
_publ_author_name
;
Yang Hexiong;Jenkins, N.G.;Downs, R.T.
;
_cell_length_a                     12.530(4)
_cell_length_b                     6.3056(18)
_cell_length_c                     8.562(3)
_cell_angle_alpha                  90.00
_cell_angle_beta                   90.00
_cell_angle_gamma                  90.00
_cell_volume                       676.48
_cell_formula_units_Z              4
_symmetry_space_group_name_H-M     'A e a 2'
_symmetry_Int_Tables_number        41
_refine_ls_R_factor_all            .0173
loop_
_symmetry_equiv_pos_site_id
_symmetry_equiv_pos_as_xyz
  1	'x+.5, -y+.5, z'
  2	'-x+.5, y+.5, z'
  3	'-x, -y, z'
  4	'x, y, z'
  5	'x+.5, -y, z+.5'
  6	'-x+.5, y, z+.5'
  7	'-x, -y+.5, z+.5'
  8	'x, y+.5, z+.5'
loop_
_atom_type_symbol
_atom_type_oxidation_number
Ca2+	2
H1+	1
O2-	-2
Si4+	4
Zn2+	2
loop_
_atom_site_label
_atom_site_type_symbol
_atom_site_symmetry_multiplicity
_atom_site_Wyckoff_symbol
_atom_site_fract_x
_atom_site_fract_y
_atom_site_fract_z
_atom_site_occupancy
_atom_site_attached_hydrogens
_atom_site_U_iso_or_equiv
Ca1 Ca2+ 4 a 0.0000 0.5000 0.51882(6) 1 0 0.00899(12) 
Zn1 Zn2+ 8 b 0.252164(9) 0.244531(17) 0.13494(6) 1 0 0.00808(7) 
Si1 Si4+ 8 b 0.11827(4) 0.00274(4) 0.39406(7) 1 0 0.00615(9) 
O1 O2- 8 b 0.12311(9) 0.2992(2) 0.01003(15) 1 0 0.0107(3) 
O2 O2- 8 b 0.12739(10) 0.21991(19) 0.49272(17) 1 0 0.0099(3) 
O3 O2- 8 b 0.20596(13) -0.00482(13) 0.25347(15) 1 0 0.0101(3) 
O4 O2- 4 a 0.0000 0.0000 0.3037(2) 1 0 0.0082(3) 
O5 O2- 4 a 0.0000 0.5000 0.2518(3) 1 0 0.0209(7) 
H1 H1+ 8 b 0.035(3) 0.448(4) 0.200(3) 1 0 0.030 

loop_
_atom_site_aniso_label
_atom_site_aniso_type_symbol
_atom_site_aniso_U_11
_atom_site_aniso_U_22
_atom_site_aniso_U_33
_atom_site_aniso_U_12
_atom_site_aniso_U_13
_atom_site_aniso_U_23
Ca1 Ca2+ 0.0106(2) 0.0078(2) 0.0085(2) 0.00019(13) 0.000 0.000
Zn1 Zn2+ 0.00755(10) 0.00739(10) 0.00931(11) -0.00067(7) 0.00070(15) 
-0.00072(18)
Si1 Si4+ 0.00563(18) 0.00687(18) 0.00596(19) -0.00022(11) 0.00019(16) 
0.00035(16)
O1 O2- 0.0084(5) 0.0112(5) 0.0126(8) -0.0010(4) -0.0020(4) 0.0046(5)
O2 O2- 0.0086(5) 0.0109(5) 0.0102(8) 0.0019(4) -0.0026(4) -0.0035(5)
O3 O2- 0.0124(7) 0.0080(6) 0.0099(6) -0.0001(3) 0.0045(4) 0.0003(4)
O4 O2- 0.0063(8) 0.0112(8) 0.0071(9) 0.0000(4) 0.000 0.000
O5 O2- 0.0272(15) 0.0278(18) 0.0076(11) 0.0100(7) 0.000 0.000
#End of data_263129-ICSD


