data_65977-ICSD
#?2014 by Fachinformationszentrum Karlsruhe, and the U.S. Secretary of 
#Commerce on behalf of the United States.  All rights reserved.
_database_code_ICSD                65977
_audit_creation_date               1995/01/10
_chemical_name_systematic          'Potassium Ferrate(V)'
_chemical_formula_structural       'K3 (Fe O4)'
_chemical_formula_sum              'Fe1 K3 O4'
_publ_section_title                'Zur Konstitution von K3 (Fe O4)'
loop_
_citation_id
_citation_journal_abbrev
_citation_year
_citation_journal_volume
_citation_page_first
_citation_page_last
_citation_journal_id_ASTM
primary 'Zeitschrift fuer Anorganische und Allgemeine Chemie (1950) (DE)'
 1990 586 115 124 ZAACAB
_publ_author_name                  'Hoppe, R.;Mader, K.'
_cell_length_a                     7.7016(13)
_cell_length_b                     9.0920(17)
_cell_length_c                     7.8370(14)
_cell_angle_alpha                  90.
_cell_angle_beta                   90.
_cell_angle_gamma                  90.
_cell_volume                       548.77
_cell_formula_units_Z              4
_symmetry_space_group_name_H-M     'P n m a'
_symmetry_Int_Tables_number        62
_refine_ls_R_factor_all            .0306
loop_
_symmetry_equiv_pos_site_id
_symmetry_equiv_pos_as_xyz
  1	'x+.5, y, -z+.5'
  2	'x, -y+.5, z'
  3	'-x+.5, y+.5, z+.5'
  4	'-x, -y, -z'
  5	'-x+.5, -y, z+.5'
  6	'-x, y+.5, -z'
  7	'x+.5, -y+.5, -z+.5'
  8	'x, y, z'
loop_
_atom_type_symbol
_atom_type_oxidation_number
Fe5+	5
K1+	1
O2-	-2
loop_
_atom_site_label
_atom_site_type_symbol
_atom_site_symmetry_multiplicity
_atom_site_Wyckoff_symbol
_atom_site_fract_x
_atom_site_fract_y
_atom_site_fract_z
_atom_site_occupancy
_atom_site_attached_hydrogens
Fe1 Fe5+ 4 c 0.2746 0.25 0.0087 1. 0 
K1 K1+ 8 d 0.0363 0.4629 0.2805 1. 0 
K2 K1+ 4 c 0.3279(1) 0.25 0.5623(1) 1. 0 
O1 O2- 8 d 0.1824(2) 0.0835(2) 0.9553(2) 1. 0 
O2 O2- 4 c 0.9789(2) 0.25 0.5779(3) 1. 0 
O3 O2- 4 c 0.2847(2) 0.25 0.2277(2) 1. 0 

loop_
_atom_site_aniso_label
_atom_site_aniso_type_symbol
_atom_site_aniso_U_11
_atom_site_aniso_U_22
_atom_site_aniso_U_33
_atom_site_aniso_U_12
_atom_site_aniso_U_13
_atom_site_aniso_U_23
Fe1 Fe5+ 0.0128(2) 0.0155(2) 0.0114(1) 0 -.0002(1) 0
K1 K1+ 0.0223(2) 0.0183(2) 0.0245(2) -.0008(1) -.0004(1) -.0013(1)
K2 K1+ 0.0262(3) 0.0510(4) 0.0219(2) 0 -.0022(2) 0
O1 O2- 0.0306(7) 0.0352(8) 0.0411(8) -.0138(6) 0.0034(6) -.0172(7)
O2 O2- 0.0159(7) 0.0331(10) 0.0284(8) 0 -.0060(6) 0
O3 O2- 0.0243(8) 0.0245(8) 0.0133(6) 0 -.0003(5) 0
#End of data_65977-ICSD


