data_85204-ICSD
#?2014 by Fachinformationszentrum Karlsruhe, and the U.S. Secretary of 
#Commerce on behalf of the United States.  All rights reserved.
_database_code_ICSD                85204
_audit_creation_date               1999/06/02
_chemical_name_systematic          'Dialuminium Silicon Oxide'
_chemical_formula_structural       'Al2 Si O5'
_chemical_formula_sum              'Al2 O5 Si1'
_chemical_name_mineral             Sillimanite
_publ_section_title
;
Compressibility and crystal structure of sillimanite, Al2 Si O5, at 
high pressure
;
loop_
_citation_id
_citation_journal_abbrev
_citation_year
_citation_journal_volume
_citation_page_first
_citation_page_last
_citation_journal_id_ASTM
primary 'Physics and Chemistry of Minerals' 1997 25 39 47 PCMIDU
_publ_author_name
;
Yang, H.;Hazen, R.M.;Finger, L.W.;Prewitt, C.T.;Downs, R.T.
;
_cell_length_a                     7.4146(12)
_cell_length_b                     7.5739(7)
_cell_length_c                     5.745(1)
_cell_angle_alpha                  90.
_cell_angle_beta                   90.
_cell_angle_gamma                  90.
_cell_volume                       322.62
_cell_formula_units_Z              4
_symmetry_space_group_name_H-M     'P b n m'
_symmetry_Int_Tables_number        62
_refine_ls_R_factor_all            .03
loop_
_symmetry_equiv_pos_site_id
_symmetry_equiv_pos_as_xyz
  1	'-x+.5, y+.5, z'
  2	'x, y, -z+.5'
  3	'x+.5, -y+.5, z+.5'
  4	'-x, -y, -z'
  5	'x+.5, -y+.5, -z'
  6	'-x, -y, z+.5'
  7	'-x+.5, y+.5, -z+.5'
  8	'x, y, z'
loop_
_atom_type_symbol
_atom_type_oxidation_number
Al3+	3
O2-	-2
Si4+	4
loop_
_atom_site_label
_atom_site_type_symbol
_atom_site_symmetry_multiplicity
_atom_site_Wyckoff_symbol
_atom_site_fract_x
_atom_site_fract_y
_atom_site_fract_z
_atom_site_occupancy
_atom_site_attached_hydrogens
_atom_site_B_iso_or_equiv
Al1 Al3+ 4 a 0 0 0 1. 0 0.32(3) 
Al2 Al3+ 4 c 0.1405(2) 0.3427(2) 0.25 1. 0 0.41(4) 
Si1 Si4+ 4 c 0.1548(2) 0.3386(2) 0.75 1. 0 0.47(3) 
O1 O2- 4 c 0.3633(5) 0.4055(5) 0.75 1. 0 0.53(8) 
O2 O2- 4 c 0.3551(5) 0.4330(5) 0.25 1. 0 0.60(8) 
O3 O2- 4 c 0.4728(5) 0.0031(7) 0.75 1. 0 0.76(8) 
O4 O2- 8 d 0.1269(3) 0.2204(3) 0.5146(7) 1. 0 0.53(5) 

#End of data_85204-ICSD


