data_14170-ICSD
#?2014 by Fachinformationszentrum Karlsruhe, and the U.S. Secretary of 
#Commerce on behalf of the United States.  All rights reserved.
_database_code_ICSD                14170
_audit_creation_date               1980/01/01
_chemical_name_systematic
;
Potassium Trichloromanganate(II) Dihydrate
;
_chemical_formula_structural       'K Mn Cl3 (H2 O)2'
_chemical_formula_sum              'H4 Cl3 K1 Mn1 O2'
_publ_section_title
;
Neutron Diffraction Study of K Mn Cl3 (H2 O)2
;
loop_
_citation_id
_citation_journal_abbrev
_citation_year
_citation_journal_volume
_citation_page_first
_citation_page_last
_citation_journal_id_ASTM
primary 'Acta Chemica Scandinavica (1-27,1973-42,1988)' 1972 26 1358 1364 ACSAA4
_publ_author_name                  'Birkelund, F.;Jensen, S.J.'
_cell_length_a                     6.49
_cell_length_b                     6.91
_cell_length_c                     9.91
_cell_angle_alpha                  96.8
_cell_angle_beta                   114.1
_cell_angle_gamma                  112.6
_cell_volume                       353.98
_cell_formula_units_Z              2
_symmetry_space_group_name_H-M     'P -1'
_symmetry_Int_Tables_number        2
_refine_ls_R_factor_all            .053
loop_
_symmetry_equiv_pos_site_id
_symmetry_equiv_pos_as_xyz
  1	'-x, -y, -z'
  2	'x, y, z'
loop_
_atom_type_symbol
_atom_type_oxidation_number
Cl1-	-1
H1+	1
K1+	1
Mn2+	2
O2-	-2
loop_
_atom_site_label
_atom_site_type_symbol
_atom_site_symmetry_multiplicity
_atom_site_Wyckoff_symbol
_atom_site_fract_x
_atom_site_fract_y
_atom_site_fract_z
_atom_site_occupancy
_atom_site_attached_hydrogens
H1 H1+ 2 i 0.6034(10) 0.7246(10) 0.4934(7) 1. 0 
H2 H1+ 2 i 0.7642(10) 0.8193(9) 0.4203(6) 1. 0 
H3 H1+ 2 i 0.5989(10) 0.3092(8) 0.0618(5) 1. 0 
H4 H1+ 2 i 0.5736(11) 0.4217(11) 0.1901(6) 1. 0 
O1 O2- 2 i 0.7707(4) 0.7828(4) 0.5097(3) 1. 0 
O2 O2- 2 i 0.6963(4) 0.4025(4) 0.1673(3) 1. 0 
Cl1 Cl1- 2 i 0.2502(2) 0.7120(2) 0.4983(1) 1. 0 
Cl2 Cl1- 2 i 0.6500(3) 0.8918(2) 0.1878(2) 1. 0 
Cl3 Cl1- 2 i 0.1712(3) 0.3355(2) 0.1686(2) 1. 0 
Mn1 Mn2+ 2 i 0.9516(6) 0.2967(5) 0.3254(3) 1. 0 
K1 K1+ 2 i 0.1388(9) 0.8457(8) 0.1959(5) 1. 0 

#End of data_14170-ICSD


