data_89003-ICSD
#?2014 by Fachinformationszentrum Karlsruhe, and the U.S. Secretary of 
#Commerce on behalf of the United States.  All rights reserved.
_database_code_ICSD                89003
_audit_creation_date               2001/07/16
_chemical_name_systematic
;
Nonacalcium Cobalt Potassium Heptakis(phosphate(V))
;
_chemical_formula_structural       'Ca9 Co K (P O4)7'
_chemical_formula_sum              'Ca9 Co1 K1 O28 P7'
_publ_section_title
;
Crystal structures of new triple Ca9 Co M (P O4)7 (M = Li, Na, K) 
phosphates
;
loop_
_citation_id
_citation_journal_abbrev
_citation_year
_citation_journal_volume
_citation_journal_issue
_citation_page_first
_citation_page_last
_citation_journal_id_ASTM
primary 'Materials Research Bulletin' 1999 34 6 883 893 MRBUAC
_publ_author_name
;
Belik, A.A.;Morozov, V.A.;Khasanov, S.S.;Lazoryak, B.I.
;
_cell_length_a                     10.4017(1)
_cell_length_b                     10.4017(1)
_cell_length_c                     37.0090(10)
_cell_angle_alpha                  90.
_cell_angle_beta                   90.
_cell_angle_gamma                  120.
_cell_volume                       3467.74
_cell_formula_units_Z              6
_symmetry_space_group_name_H-M     'R 3 c H'
_symmetry_Int_Tables_number        161
_refine_ls_R_factor_all            .009
loop_
_symmetry_equiv_pos_site_id
_symmetry_equiv_pos_as_xyz
  1	'-x+y, y, z+.5'
  2	'x, x-y, z+.5'
  3	'-y, -x, z+.5'
  4	'-x+y, -x, z'
  5	'-y, x-y, z'
  6	'x, y, z'
  7	'-x+y+.6666, y+.3333, z+.8333'
  8	'-x+y+.3333, y+.6666, z+.1666'
  9	'x+.6666, x-y+.3333, z+.8333'
 10	'x+.3333, x-y+.6666, z+.1666'
 11	'-y+.6666, -x+.3333, z+.8333'
 12	'-y+.3333, -x+.6666, z+.1666'
 13	'-x+y+.6666, -x+.3333, z+.3333'
 14	'-x+y+.3333, -x+.6666, z+.6666'
 15	'-y+.6666, x-y+.3333, z+.3333'
 16	'-y+.3333, x-y+.6666, z+.6666'
 17	'x+.6666, y+.3333, z+.3333'
 18	'x+.3333, y+.6666, z+.6666'
loop_
_atom_type_symbol
_atom_type_oxidation_number
Ca2+	2
Co2+	2
K1+	1
O2-	-2
P5+	5
loop_
_atom_site_label
_atom_site_type_symbol
_atom_site_symmetry_multiplicity
_atom_site_Wyckoff_symbol
_atom_site_fract_x
_atom_site_fract_y
_atom_site_fract_z
_atom_site_occupancy
_atom_site_attached_hydrogens
_atom_site_B_iso_or_equiv
Ca1 Ca2+ 18 b 0.7271(5) 0.8572(6) 0.4336(2) 1. 0 0.33(9) 
Ca2 Ca2+ 18 b 0.6125(5) 0.8214(6) 0.2339(2) 1. 0 0.36(11) 
Ca3 Ca2+ 18 b 0.1182(5) 0.2656(3) 0.3268(2) 1. 0 0.75(10) 
K1 K1+ 6 a 0 0 0.1838(3) 1. 0 2.0(2) 
Co1 Co2+ 6 a 0 0 0 1. 0 0.53(9) 
P1 P5+ 6 a 0 0 0.2697(3) 1. 0 1.2(2) 
P2 P5+ 18 b 0.6825(5) 0.8614(7) 0.1365(3) 1. 0 0.3(2) 
P3 P5+ 18 b 0.6577(8) 0.8506(8) 0.0326(3) 1. 0 0.9(2) 
O1 O2- 6 a 0 0 0.3118(5) 1. 0 0.14(6) 
O2 O2- 18 b 0.092(1) 0.864(1) 0.2559(4) 1. 0 0.14(6) 
O3 O2- 18 b 0.726(1) 0.917(1) 0.1767(4) 1. 0 0.14(6) 
O4 O2- 18 b 0.766(1) 0.778(1) 0.1254(4) 1. 0 0.14(6) 
O5 O2- 18 b 0.724(1) 0.005(1) 0.1153(3) 1. 0 0.14(6) 
O6 O2- 18 b 0.515(1) 0.758(2) 0.1331(4) 1. 0 0.14(6) 
O7 O2- 18 b 0.598(1) 0.956(1) 0.0456(4) 1. 0 0.14(6) 
O8 O2- 18 b 0.581(1) 0.701(1) 0.0534(4) 1. 0 0.14(6) 
O9 O2- 18 b 0.828(1) 0.927(2) 0.0424(4) 1. 0 0.14(6) 
O10 O2- 18 b 0.626(1) 0.824(1) 0.9927(3) 1. 0 0.14(6) 

#End of data_89003-ICSD


