data_64745-ICSD
#?2014 by Fachinformationszentrum Karlsruhe, and the U.S. Secretary of 
#Commerce on behalf of the United States.  All rights reserved.
_database_code_ICSD                64745
_audit_creation_date               1997/11/10
_audit_update_record               2010/08/01
_chemical_name_systematic          'Thorium Dicalcium Octasilicate'
_chemical_formula_structural       'Th Ca2 (Si8 O20)'
_chemical_formula_sum              'Ca2 O20 Si8 Th1'
_chemical_name_mineral             Ekanite
_publ_section_title
;
A mineralogical study and cristal-structure determination of 
nonmetamicht ekanite, Th Ca2 Si8 O20
;
loop_
_citation_id
_citation_journal_abbrev
_citation_year
_citation_journal_volume
_citation_page_first
_citation_page_last
_citation_journal_id_ASTM
primary 'Canadian Mineralogist' 1982 20 65 75 CAMIA6
2 'Canadian Mineralogist' 1982 20 59 63 CAMIA6
_publ_author_name
;
Szymanski, J.T.;Owens, D.R.;Roberts, A.C.;Ansell, H.G.;Chao, G.-Y.
;
_cell_length_a                     7.483(3)
_cell_length_b                     7.483(3)
_cell_length_c                     14.893(6)
_cell_angle_alpha                  90.
_cell_angle_beta                   90.
_cell_angle_gamma                  90.
_cell_volume                       833.94
_cell_formula_units_Z              2
_symmetry_space_group_name_H-M     'I 4 2 2'
_symmetry_Int_Tables_number        97
_refine_ls_R_factor_all            .0357
loop_
_symmetry_equiv_pos_site_id
_symmetry_equiv_pos_as_xyz
  1	'-y, x, z'
  2	'y, -x, z'
  3	'-y, -x, -z'
  4	'y, x, -z'
  5	'x, -y, -z'
  6	'-x, y, -z'
  7	'-x, -y, z'
  8	'x, y, z'
  9	'-y+.5, x+.5, z+.5'
 10	'y+.5, -x+.5, z+.5'
 11	'-y+.5, -x+.5, -z+.5'
 12	'y+.5, x+.5, -z+.5'
 13	'x+.5, -y+.5, -z+.5'
 14	'-x+.5, y+.5, -z+.5'
 15	'-x+.5, -y+.5, z+.5'
 16	'x+.5, y+.5, z+.5'
loop_
_atom_type_symbol
_atom_type_oxidation_number
Ca2+	2
O2-	-2
Si4+	4
Th4+	4
loop_
_atom_site_label
_atom_site_type_symbol
_atom_site_symmetry_multiplicity
_atom_site_Wyckoff_symbol
_atom_site_fract_x
_atom_site_fract_y
_atom_site_fract_z
_atom_site_occupancy
_atom_site_attached_hydrogens
Th1 Th4+ 2 a 0 0 0 1. 0 
Ca1 Ca2+ 4 c 0.5 0 0 1. 0 
Si1 Si4+ 16 k 0.3335(2) 0.2540(2) 0.1479(1) 1. 0 
O1 O2- 8 j 0.7924(8) 0.2924(8) 0.25 1. 0 
O2 O2- 16 k 0.2544(7) 0.4521(5) 0.1251(3) 1. 0 
O3 O2- 16 k 0.2553(6) 0.1075(6) 0.0818(3) 1. 0 

loop_
_atom_site_aniso_label
_atom_site_aniso_type_symbol
_atom_site_aniso_U_11
_atom_site_aniso_U_22
_atom_site_aniso_U_33
_atom_site_aniso_U_12
_atom_site_aniso_U_13
_atom_site_aniso_U_23
Th1 Th4+ 0.0103(1) 0.0103(1) 0.0143(2) 0 0 0
Ca1 Ca2+ 0.0158(6) 0.0293(8) 0.0267(8) 0 0 0
Si1 Si4+ 0.0160(5) 0.0147(5) 0.0220(6) -0.0005(4) -0.0007(5) -0.0015(5)
O1 O2- 0.0606(37) 0.0606(37) 0.0207(26) 0.0127(44) 0.0069(24) 0.0069(24)
O2 O2- 0.0262(19) 0.0126(13) 0.0523(28) 0.0025(13) -0.0013(21) 0.0028(16)
O3 O2- 0.0230(18) 0.0279(20) 0.0291(19) -0.0025(16) -0.0070(17) -0.0081(16)
#End of data_64745-ICSD


