data_87413-ICSD
#?2014 by Fachinformationszentrum Karlsruhe, and the U.S. Secretary of 
#Commerce on behalf of the United States.  All rights reserved.
_database_code_ICSD                87413
_audit_creation_date               2000/12/16
_audit_update_record               2012/02/01
_chemical_name_systematic          'Tetralithium Strontium Dinitride'
_chemical_formula_structural       'Li4 Sr N2'
_chemical_formula_sum              'Li4 N2 Sr1'
_publ_section_title
;
The structure of fluorite and lithium nitride derivatives: Li Ca N 
and Li4 Sr N2
;
loop_
_citation_id
_citation_journal_abbrev
_citation_year
_citation_journal_volume
_citation_journal_issue
_citation_page_first
_citation_page_last
_citation_journal_id_ASTM
primary 'Angewandte Chemie (German Edition)' 1989 101 12 1689 1695 ANCEAD
_publ_author_name
;
Cordier, G.;Gudat, A.;Kniep, R.;Rabenau, A.
;
_cell_length_a                     3.822(2)
_cell_length_b                     3.822(2)
_cell_length_c                     27.0420(90)
_cell_angle_alpha                  90.
_cell_angle_beta                   90.
_cell_angle_gamma                  90.
_cell_volume                       395.02
_cell_formula_units_Z              4
_symmetry_space_group_name_H-M     'I 41/a m d Z'
_symmetry_Int_Tables_number        141
_refine_ls_R_factor_all            .038
loop_
_symmetry_equiv_pos_site_id
_symmetry_equiv_pos_as_xyz
  1	'y+.25, x+.75, -z+.25'
  2	'y+.25, -x+.75, -z+.25'
  3	'x, y+.5, -z'
  4	'x, -y, -z'
  5	'-y+.75, x+.75, -z+.25'
  6	'-y+.75, -x+.75, -z+.25'
  7	'-x, y+.5, -z'
  8	'-x, -y, -z'
  9	'-y+.75, -x+.25, z+.75'
 10	'-y+.75, x+.25, z+.75'
 11	'-x, -y+.5, z'
 12	'-x, y, z'
 13	'y+.25, -x+.25, z+.75'
 14	'y+.25, x+.25, z+.75'
 15	'x, -y+.5, z'
 16	'x, y, z'
 17	'y+.75, x+.25, -z+.75'
 18	'y+.75, -x+.25, -z+.75'
 19	'x+.5, y, -z+.5'
 20	'x+.5, -y+.5, -z+.5'
 21	'-y+.25, x+.25, -z+.75'
 22	'-y+.25, -x+.25, -z+.75'
 23	'-x+.5, y, -z+.5'
 24	'-x+.5, -y+.5, -z+.5'
 25	'-y+.25, -x+.75, z+.25'
 26	'-y+.25, x+.75, z+.25'
 27	'-x+.5, -y, z+.5'
 28	'-x+.5, y+.5, z+.5'
 29	'y+.75, -x+.75, z+.25'
 30	'y+.75, x+.75, z+.25'
 31	'x+.5, -y, z+.5'
 32	'x+.5, y+.5, z+.5'
loop_
_atom_type_symbol
_atom_type_oxidation_number
Li1+	1
N3-	-3
Sr2+	2
loop_
_atom_site_label
_atom_site_type_symbol
_atom_site_symmetry_multiplicity
_atom_site_Wyckoff_symbol
_atom_site_fract_x
_atom_site_fract_y
_atom_site_fract_z
_atom_site_occupancy
_atom_site_attached_hydrogens
_atom_site_U_iso_or_equiv
Sr1 Sr2+ 4 a 0 0.75 0.125 1. 0 0.0074(3) 
Li1 Li1+ 8 e 0 0.25 0.3038(6) 1. 0 0.0125(32) 
N1 N3- 8 e 0 0.25 0.0572(3) 1. 0 0.0097(15) 
Li2 Li1+ 8 e 0 0.25 0.7710(6) 1. 0 0.0143(33) 

#End of data_87413-ICSD


