data_246222-ICSD
#?2014 by Fachinformationszentrum Karlsruhe, and the U.S. Secretary of 
#Commerce on behalf of the United States.  All rights reserved.
_database_code_ICSD                246222
_audit_creation_date               2009/08/01
_chemical_name_systematic          'Lithium Cobalt Phosphate(V)'
_chemical_formula_structural       'Li Co (P O4)'
_chemical_formula_sum              'Co1 Li1 O4 P1'
_publ_section_title
;
Crystal and magnetic structures of electrochemically delithiated Li1-
x Co P O4 phases
;
loop_
_citation_id
_citation_journal_abbrev
_citation_year
_citation_journal_volume
_citation_journal_issue
_citation_page_first
_citation_page_last
_citation_journal_id_ASTM
primary 'Solid State Sciences' 2009 11 1 18 23 SSSCFJ
_publ_author_name
;
Ehrenberg, H.;Bramnik, N.N.;Senyshin, A.;Fuess, H.
;
_cell_length_a                     10.20116(12)
_cell_length_b                     5.92342(7)
_cell_length_c                     4.70007(5)
_cell_angle_alpha                  90.
_cell_angle_beta                   90.
_cell_angle_gamma                  90.
_cell_volume                       284.01
_cell_formula_units_Z              4
_symmetry_space_group_name_H-M     'P n m a'
_symmetry_Int_Tables_number        62
loop_
_symmetry_equiv_pos_site_id
_symmetry_equiv_pos_as_xyz
  1	'x+.5, y, -z+.5'
  2	'x, -y+.5, z'
  3	'-x+.5, y+.5, z+.5'
  4	'-x, -y, -z'
  5	'-x+.5, -y, z+.5'
  6	'-x, y+.5, -z'
  7	'x+.5, -y+.5, -z+.5'
  8	'x, y, z'
loop_
_atom_type_symbol
_atom_type_oxidation_number
Co2+	2
Li1+	1
O2-	-2
P5+	5
loop_
_atom_site_label
_atom_site_type_symbol
_atom_site_symmetry_multiplicity
_atom_site_Wyckoff_symbol
_atom_site_fract_x
_atom_site_fract_y
_atom_site_fract_z
_atom_site_occupancy
_atom_site_attached_hydrogens
Li1 Li1+ 4 a 0.5 0.5 0.5 1. 0 
Co1 Co2+ 4 c 0.2775(3) 0.25 0.9780(7) 1. 0 
P1 P5+ 4 c 0.0943(2) 0.25 0.4190(4) 1. 0 
O1 O2- 4 c 0.0972(2) 0.25 0.7420(4) 1. 0 
O2 O2- 4 c 0.4543(2) 0.25 0.2037(4) 1. 0 
O3 O2- 8 d 0.1663(1) 0.0446(2) 0.2817(2) 1. 0 

#End of data_246222-ICSD


