data_39291-ICSD
#?2014 by Fachinformationszentrum Karlsruhe, and the U.S. Secretary of 
#Commerce on behalf of the United States.  All rights reserved.
_database_code_ICSD                39291
_audit_creation_date               1990/12/27
_audit_update_record               2009/02/01
_chemical_name_systematic
;
Potassium Praseodymium Bis(selenate(VI))
;
_chemical_formula_structural       'K Pr (Se O4)2'
_chemical_formula_sum              'K1 O8 Pr1 Se2'
_publ_section_title                'Crystal structure of K Pr (Se O4)2'
loop_
_citation_id
_citation_journal_abbrev
_citation_year
_citation_journal_volume
_citation_page_first
_citation_page_last
_citation_journal_id_ASTM
primary Kristallografiya 1990 35 1083 1088 KRISAJ
2 'Soviet Physics, Crystallography (= Kristallografiya)'
 1990 35 637 640 SPHCA6
_publ_author_name
;
Iskhakova, L.D.;Ovanisyan, S.M.;Trunov, V.K.
;
_cell_length_a                     8.823(1)
_cell_length_b                     7.371(1)
_cell_length_c                     11.139(1)
_cell_angle_alpha                  90.
_cell_angle_beta                   91.33(1)
_cell_angle_gamma                  90.
_cell_volume                       724.22
_cell_formula_units_Z              4
_symmetry_space_group_name_H-M     'P 1 21/c 1'
_symmetry_Int_Tables_number        14
_refine_ls_R_factor_all            .032
loop_
_symmetry_equiv_pos_site_id
_symmetry_equiv_pos_as_xyz
  1	'x, -y+.5, z+.5'
  2	'-x, -y, -z'
  3	'-x, y+.5, -z+.5'
  4	'x, y, z'
loop_
_atom_type_symbol
_atom_type_oxidation_number
K1+	1
O2-	-2
Pr3+	3
Se6+	6
loop_
_atom_site_label
_atom_site_type_symbol
_atom_site_symmetry_multiplicity
_atom_site_Wyckoff_symbol
_atom_site_fract_x
_atom_site_fract_y
_atom_site_fract_z
_atom_site_occupancy
_atom_site_attached_hydrogens
_atom_site_B_iso_or_equiv
Pr1 Pr3+ 4 e -.05688(4) 0.16666(5) 0.15190(3) 1. 0 0.570(4) 
K1 K1+ 4 e 0.4349(2) 0.3550(3) 0.1582(2) 1. 0 2.36(3) 
Se1 Se6+ 4 e 0.18900(7) 0.1637(1) 0.39178(5) 1. 0 0.618(9) 
Se2 Se6+ 4 e 0.72039(7) 0.3413(1) 0.41097(5) 1. 0 0.647(9) 
O1 O2- 4 e 0.1192(6) 0.3307(9) 0.0262(4) 1. 0 1.31(8) 
O2 O2- 4 e 0.3708(6) 0.1484(9) 0.3962(5) 1. 0 1.53(9) 
O3 O2- 4 e 0.1365(6) 0.3414(8) 0.3075(4) 1. 0 1.05(8) 
O4 O2- 4 e 0.1028(6) -.0008(7) 0.3132(4) 1. 0 0.95(8) 
O5 O2- 4 e 0.1196(6) 0.9517(8) 0.0564(5) 1. 0 1.26(9) 
O6 O2- 4 e 0.7533(6) 0.1847(8) 0.3098(5) 1. 0 1.25(9) 
O7 O2- 4 e 0.6971(6) 0.2577(8) 0.0426(5) 1. 0 1.11(9) 
O8 O2- 4 e 0.4107(7) -.0197(8) 0.1336(5) 1. 0 1.6(1) 

#End of data_39291-ICSD


