data_290215-ICSD
#?2014 by Fachinformationszentrum Karlsruhe, and the U.S. Secretary of 
#Commerce on behalf of the United States.  All rights reserved.
_database_code_ICSD                290215
_audit_creation_date               2013/08/01
_chemical_name_systematic          'Magnesium Silicate'
_chemical_formula_structural       'Mg Si O3'
_chemical_formula_sum              'Mg1 O3 Si1'
_chemical_name_mineral             Orthoenstatite
_publ_section_title
;
Re-investigation of the crystal structure of enstatite under high-
pressure conditions
;
loop_
_citation_id
_citation_journal_abbrev
_citation_year
_citation_journal_volume
_citation_journal_issue
_citation_page_first
_citation_page_last
_citation_journal_id_ASTM
primary 'American Mineralogist' 2012 97 10 1741 1748 AMMIAY
_publ_author_name
;
Periotto, B.;Balic-Zunic, T.;Nestola, F.;Katerinopoulou, A.;Angel, 
R.J.
;
_cell_length_a                     18.210(3)
_cell_length_b                     8.820(2)
_cell_length_c                     5.1767(4)
_cell_angle_alpha                  90.
_cell_angle_beta                   90.
_cell_angle_gamma                  90.
_cell_volume                       831.44
_cell_formula_units_Z              16
_symmetry_space_group_name_H-M     'P b c a'
_symmetry_Int_Tables_number        61
_refine_ls_R_factor_all            .039
loop_
_symmetry_equiv_pos_site_id
_symmetry_equiv_pos_as_xyz
  1	'x+.5, y, -z+.5'
  2	'x, -y+.5, z+.5'
  3	'-x+.5, y+.5, z'
  4	'-x, -y, -z'
  5	'-x+.5, -y, z+.5'
  6	'-x, y+.5, -z+.5'
  7	'x+.5, -y+.5, -z'
  8	'x, y, z'
loop_
_atom_type_symbol
_atom_type_oxidation_number
Mg2+	2
O2-	-2
Si4+	4
loop_
_atom_site_label
_atom_site_type_symbol
_atom_site_symmetry_multiplicity
_atom_site_Wyckoff_symbol
_atom_site_fract_x
_atom_site_fract_y
_atom_site_fract_z
_atom_site_occupancy
_atom_site_attached_hydrogens
_atom_site_U_iso_or_equiv
Mg1 Mg2+ 8 c 0.3769(1) 0.4868(2) 0.3589(3) 1. 0 0.0096(5) 
Mg2 Mg2+ 8 c 0.3759(1) 0.6538(2) 0.8659(3) 1. 0 0.0068(5) 
Si1 Si4+ 8 c 0.27146(9) 0.3420(2) 0.0505(2) 1. 0 0.0065(4) 
Si2 Si4+ 8 c 0.47368(8) 0.3370(2) 0.7985(2) 1. 0 0.0052(4) 
O1 O2- 8 c 0.1832(2) 0.3392(4) 0.0359(5) 1. 0 0.0040(8) 
O2 O2- 8 c 0.3110(2) 0.5022(4) 0.0432(5) 1. 0 0.0080(8) 
O3 O2- 8 c 0.3028(2) 0.2232(4) 0.8299(5) 1. 0 0.0056(8) 
O4 O2- 8 c 0.5626(2) 0.3396(4) 0.7995(5) 1. 0 0.0047(8) 
O5 O2- 8 c 0.4325(1) 0.4820(4) 0.6888(5) 1. 0 0.0075(8) 
O6 O2- 8 c 0.4478(2) 0.1957(4) 0.6037(5) 1. 0 0.0039(8) 

#End of data_290215-ICSD


