data_200740-ICSD
#?2014 by Fachinformationszentrum Karlsruhe, and the U.S. Secretary of 
#Commerce on behalf of the United States.  All rights reserved.
_database_code_ICSD                200740
_audit_creation_date               1980/01/01
_audit_update_record               2000/07/15
_chemical_name_systematic
;
Tripotassium Bis(nitrato(V))heptafluorodiantimonate(III)
;
_chemical_formula_structural       'K3 (Sb2 F7 (N O3)2)'
_chemical_formula_sum              'F7 K3 N2 O6 Sb2'
_publ_section_title
;
Crystal structure of di- and trinitraroheptafluorodiantimonates(III) 
of potassium K (Sb2 F7) (K N O3)2 and K (Sb2 F7) (K N O3)3
;
loop_
_citation_id
_citation_journal_abbrev
_citation_year
_citation_journal_volume
_citation_page_first
_citation_page_last
_citation_journal_id_ASTM
primary 'Koordinatsionnaya Khimiya (= Coordination Chemistry (USSR))'
 1979 5 133 137 KOKHDC
_publ_author_name
;
Udovenko, A.A.;Volkova, L.M.;Davidovich, R.L.;Simonov, M.A.
;
_cell_length_a                     15.02(3)
_cell_length_b                     7.17(2)
_cell_length_c                     5.69(1)
_cell_angle_alpha                  90.
_cell_angle_beta                   90.
_cell_angle_gamma                  92.3(3)
_cell_volume                       612.28
_cell_formula_units_Z              2
_symmetry_space_group_name_H-M     'B 1 1 2/m'
_symmetry_Int_Tables_number        12
_refine_ls_R_factor_all            .108
loop_
_symmetry_equiv_pos_site_id
_symmetry_equiv_pos_as_xyz
  1	'-x, -y, z'
  2	'-x, -y, -z'
  3	'x, y, -z'
  4	'x, y, z'
  5	'-x+.5, -y, z+.5'
  6	'-x+.5, -y, -z+.5'
  7	'x+.5, y, -z+.5'
  8	'x+.5, y, z+.5'
loop_
_atom_type_symbol
_atom_type_oxidation_number
F1-	-1
K1+	1
N5+	5
O2-	-2
Sb3+	3
loop_
_atom_site_label
_atom_site_type_symbol
_atom_site_symmetry_multiplicity
_atom_site_Wyckoff_symbol
_atom_site_fract_x
_atom_site_fract_y
_atom_site_fract_z
_atom_site_occupancy
_atom_site_attached_hydrogens
_atom_site_B_iso_or_equiv
Sb1 Sb3+ 4 i 0.0977(1) 0.2447(1) 0 1. 0 1.68(3) 
K1 K1+ 2 c 0.5 0.5 0 1. 0 2.5(3) 
K2 K1+ 4 i 0.283(1) 0.261(1) 0.5 1. 0 2.2(3) 
F1 F1- 4 i 0.213(1) 0.136(2) 0 1. 0 3.3(3) 
F2 F1- 8 j 0.150(1) 0.410(2) 0.238(1) 1. 0 2.9(3) 
F3 F1- 2 d 0 0.5 0 1. 0 3.7(3) 
O1 O2- 8 j 0.416(1) 0.165(1) 0.193(1) 1. 0 3.8(3) 
O2 O2- 4 i 0.110(1) 0.106(3) 0.5 1. 0 4.3(3) 
N1 N5+ 4 i 0.410(1) 0.088(3) 0 1. 0 2.8(3) 

#End of data_200740-ICSD


