data_159097-ICSD
#?2014 by Fachinformationszentrum Karlsruhe, and the U.S. Secretary of 
#Commerce on behalf of the United States.  All rights reserved.
_database_code_ICSD                159097
_audit_creation_date               2008/08/01
_chemical_name_systematic
;
Sodium Lanthanum Manganese Tungstate
;
_chemical_formula_structural       'Na La Mn (W O6)'
_chemical_formula_sum              'La1 Mn1 Na1 O6 W1'
_publ_section_title
;
Synthesis and characterization of new A A' B W O6 perovskites 
exhibiting simultaneous ordering of A-site and B-site cations
;
loop_
_citation_id
_citation_journal_abbrev
_citation_year
_citation_journal_volume
_citation_page_first
_citation_page_last
_citation_journal_id_ASTM
primary 'Chemistry of Materials' 2007 19 6451 6458 CMATEX
_publ_author_name
;
King, G.;Thimmaiah, S.;Dwivedi, A.;Woodward, P.M.
;
_cell_length_a                     5.5848(2)
_cell_length_b                     5.6042(2)
_cell_length_c                     8.0315(2)
_cell_angle_alpha                  90.
_cell_angle_beta                   90.23(0)
_cell_angle_gamma                  90.
_cell_volume                       251.37
_cell_formula_units_Z              2
_symmetry_space_group_name_H-M     'P 1 21 1'
_symmetry_Int_Tables_number        4
_refine_ls_R_factor_all            .0478
loop_
_symmetry_equiv_pos_site_id
_symmetry_equiv_pos_as_xyz
  1	'-x, y+.5, -z'
  2	'x, y, z'
loop_
_atom_type_symbol
_atom_type_oxidation_number
La3+	3
Mn2+	2
Na1+	1
O2-	-2
W6+	6
loop_
_atom_site_label
_atom_site_type_symbol
_atom_site_symmetry_multiplicity
_atom_site_Wyckoff_symbol
_atom_site_fract_x
_atom_site_fract_y
_atom_site_fract_z
_atom_site_occupancy
_atom_site_attached_hydrogens
_atom_site_U_iso_or_equiv
Na1 Na1+ 2 a 0.2514(23) 0.2289(15) -0.0008(20) 1. 0 0.0144(27) 
La1 La3+ 2 a 0.2556(7) 0.2755(11) 0.4984(8) 1. 0 0.0086(7) 
Mn1 Mn2+ 2 a 0.7571(20) 0.2507(26) 0.2389(11) 1. 0 0.0052(13) 
W1 W6+ 2 a 0.7581(16) 0.2494(20) 0.7652(7) 1. 0 0.0032(10) 
O1 O2- 2 a 0.5345(11) 0.5017(12) 0.6944(10) 1. 0 0.0131(17) 
O2 O2- 2 a 0.5136(12) 0.5364(13) 0.3017(9) 1. 0 0.0060(14) 
O3 O2- 2 a -0.0205(11) -0.0584(12) 0.2250(9) 1. 0 0.0088(16) 
O4 O2- 2 a -0.0669(12) -0.0358(13) 0.7819(9) 1. 0 0.0086(15) 
O5 O2- 2 a 0.8279(11) 0.2285(13) 0.5111(7) 1. 0 0.0077(13) 
O6 O2- 2 a 0.6684(9) 0.2565(15) -0.0166(7) 1. 0 0.0095(12) 

#End of data_159097-ICSD


