data_174543-ICSD
#?2014 by Fachinformationszentrum Karlsruhe, and the U.S. Secretary of 
#Commerce on behalf of the United States.  All rights reserved.
_database_code_ICSD                174543
_audit_creation_date               2011/02/01
_chemical_name_systematic
;
Dipotassium Dilanthanum Oxobis(borate)
;
_chemical_formula_structural       'K2 La2 (B O3)2 O'
_chemical_formula_sum              'B2 K2 La2 O7'
_publ_section_title
;
A new potassium rare earth oxyborate K2 La2 (B O3)2 O
;
loop_
_citation_id
_citation_journal_abbrev
_citation_year
_citation_journal_volume
_citation_journal_issue
_citation_page_first
_citation_page_last
_citation_journal_id_ASTM
primary 'Solid State Sciences' 2010 12 12 2144 2147 SSSCFJ
_publ_author_name                  'Zeng, Q.D.;Li, R.K.'
_cell_length_a                     11.422(2)
_cell_length_b                     6.6803(13)
_cell_length_c                     10.813(2)
_cell_angle_alpha                  90.
_cell_angle_beta                   117.23(3)
_cell_angle_gamma                  90.
_cell_volume                       733.62
_cell_formula_units_Z              4
_symmetry_space_group_name_H-M     'P 1 21/c 1'
_symmetry_Int_Tables_number        14
_refine_ls_R_factor_all            .0214
loop_
_symmetry_equiv_pos_site_id
_symmetry_equiv_pos_as_xyz
  1	'x, -y+.5, z+.5'
  2	'-x, -y, -z'
  3	'-x, y+.5, -z+.5'
  4	'x, y, z'
loop_
_atom_type_symbol
_atom_type_oxidation_number
B3+	3
K1+	1
La3+	3
O2-	-2
loop_
_atom_site_label
_atom_site_type_symbol
_atom_site_symmetry_multiplicity
_atom_site_Wyckoff_symbol
_atom_site_fract_x
_atom_site_fract_y
_atom_site_fract_z
_atom_site_occupancy
_atom_site_attached_hydrogens
_atom_site_U_iso_or_equiv
La1 La3+ 4 e 0.51986(2) 0.04466(3) 0.32065(2) 1. 0 0.00218(8) 
La2 La3+ 4 e 0.32034(2) 0.41684(3) 0.41324(2) 1. 0 0.00269(8) 
K1 K1+ 4 e -0.03170(9) 0.56155(12) 0.23550(9) 1. 0 0.0075(2) 
K2 K1+ 4 e 0.11659(8) 0.74472(13) 0.05427(9) 1. 0 0.0071(2) 
O1 O2- 4 e 0.1218(3) 0.1500(4) -0.0353(3) 1. 0 0.0061(6) 
O2 O2- 4 e 0.1407(3) 0.3477(4) 0.1608(3) 1. 0 0.0058(6) 
O3 O2- 4 e 0.3504(3) 0.0334(4) 0.4121(3) 1. 0 0.0047(6) 
O4 O2- 4 e 0.1987(2) 0.7541(4) 0.3594(3) 1. 0 0.0055(6) 
O5 O2- 4 e 0.6340(2) 0.2469(4) 0.2127(3) 1. 0 0.0046(5) 
O6 O2- 4 e 0.5277(2) 0.3791(4) 0.4030(3) 1. 0 0.0041(5) 
O7 O2- 4 e 0.3332(2) 0.2428(4) 0.1395(3) 1. 0 0.0053(6) 
B1 B3+ 4 e 0.1935(4) 0.2471(7) 0.0877(4) 1. 0 0.0046(9) 
B2 B3+ 4 e 0.3034(5) 0.8463(7) 0.3549(4) 1. 0 0.0038(8) 

#End of data_174543-ICSD


