data_200388-ICSD
#?2014 by Fachinformationszentrum Karlsruhe, and the U.S. Secretary of 
#Commerce on behalf of the United States.  All rights reserved.
_database_code_ICSD                200388
_audit_creation_date               1980/01/01
_audit_update_record               2014/08/01
_chemical_name_systematic          'Octapotassium Zirconium Molybdate'
_chemical_formula_structural       'K8 Zr (Mo O4)6'
_chemical_formula_sum              'K8 Mo6 O24 Zr1'
_publ_section_title
;
Crystal structure of the binary molybdates K8 Zr (Mo O4)6 and K8 Hf 
(Mo O4)6
;
loop_
_citation_id
_citation_journal_abbrev
_citation_year
_citation_journal_volume
_citation_page_first
_citation_page_last
_citation_journal_id_ASTM
primary Kristallografiya 1977 22 1191 1195 KRISAJ
2 'Soviet Physics, Crystallography (= Kristallografiya)'
 1977 22 677 679 SPHCA6
_publ_author_name
;
Klevtsova, R.F.;Glinskaya, L.A.;Pasechnyuk, N.P.
;
_cell_length_a                     10.2
_cell_length_b                     11.85
_cell_length_c                     13.12
_cell_angle_alpha                  90.
_cell_angle_beta                   119.
_cell_angle_gamma                  90.
_cell_volume                       1386.98
_cell_formula_units_Z              2
_symmetry_space_group_name_H-M     'P 1 21/c 1'
_symmetry_Int_Tables_number        14
_refine_ls_R_factor_all            .11
loop_
_symmetry_equiv_pos_site_id
_symmetry_equiv_pos_as_xyz
  1	'x, -y+.5, z+.5'
  2	'-x, -y, -z'
  3	'-x, y+.5, -z+.5'
  4	'x, y, z'
loop_
_atom_type_symbol
_atom_type_oxidation_number
K1+	1
Mo6+	6
O2-	-2
Zr4+	4
loop_
_atom_site_label
_atom_site_type_symbol
_atom_site_symmetry_multiplicity
_atom_site_Wyckoff_symbol
_atom_site_fract_x
_atom_site_fract_y
_atom_site_fract_z
_atom_site_occupancy
_atom_site_attached_hydrogens
_atom_site_B_iso_or_equiv
Zr1 Zr4+ 2 a 0 0 0 1. 0 0.58 
Mo1 Mo6+ 4 e -.0135(3) 0.3212(4) 0.0055(3) 1. 0 1.13 
Mo2 Mo6+ 4 e 0.2327(3) -.1050(5) 0.2948(4) 1. 0 1.54 
Mo3 Mo6+ 4 e 0.3870(3) 0.1081(5) 0.0986(3) 1. 0 1.25 
K1 K1+ 4 e 0.1878(9) 0.2055(12) 0.2928(11) 1. 0 2.21 
K2 K1+ 4 e 0.1657(9) 0.5549(12) 0.2845(10) 1. 0 1.69 
K3 K1+ 4 e 0.3920(9) 0.7807(14) 0.0730(11) 1. 0 2.19 
K4 K1+ 4 e 0.3660(9) 0.4293(12) 0.1091(11) 1. 0 2.04 
O1 O2- 4 e -.020(3) 0.171(5) 0.024(4) 1. 0 3.4 
O2 O2- 4 e -.193(3) 0.380(4) -.070(3) 1. 0 2.3 
O3 O2- 4 e 0.074(3) 0.343(4) -.079(4) 1. 0 3.1 
O4 O2- 4 e 0.094(3) 0.390(4) 0.142(3) 1. 0 2.7 
O5 O2- 4 e 0.079(3) -.026(4) 0.175(4) 1. 0 2.6 
O6 O2- 4 e 0.354(3) -.152(4) 0.244(4) 1. 0 3.2 
O7 O2- 4 e 0.333(3) -.025(4) 0.412(4) 1. 0 2.9 
O8 O2- 4 e 0.172(3) -.229(4) 0.349(3) 1. 0 2.1 
O9 O2- 4 e 0.547(3) 0.017(4) 0.151(4) 1. 0 2.6 
O10 O2- 4 e 0.404(3) 0.203(4) 0.006(4) 1. 0 2.7 
O11 O2- 4 e 0.392(3) 0.180(4) 0.217(4) 1. 0 3.4 
O12 O2- 4 e 0.215(3) 0.031(3) 0.019(3) 1. 0 2.3 

#End of data_200388-ICSD


