data_247304-ICSD
#?2014 by Fachinformationszentrum Karlsruhe, and the U.S. Secretary of 
#Commerce on behalf of the United States.  All rights reserved.
_database_code_ICSD                247304
_audit_creation_date               2010/08/01
_chemical_name_systematic          'Aluminium Oxide - Kappa'
_chemical_formula_structural       'Al2 O3'
_chemical_formula_sum              'Al2 O3'
_chemical_name_mineral             'Alumina kappa'
_publ_section_title
;
Experimental and ab initio infrared study of chi-, kappa- and alpha-
aluminas formed from gibbsite
;
loop_
_citation_id
_citation_journal_abbrev
_citation_year
_citation_journal_volume
_citation_journal_issue
_citation_page_first
_citation_page_last
_citation_journal_id_ASTM
primary 'Journal of Solid State Chemistry' 2010 183 4 901 908 JSSCBI
_publ_author_name
;
Favaro, L.;Boumaza, A.;Roy, P.;Ledion, J.;Sattonay, G.;Brubach, 
J.B.;Huntz, A.M.;Tetot, R.
;
_cell_length_a                     4.8437
_cell_length_b                     8.3300
_cell_length_c                     8.9547
_cell_angle_alpha                  90.
_cell_angle_beta                   90.
_cell_angle_gamma                  90.
_cell_volume                       361.3
_cell_formula_units_Z              8
_symmetry_space_group_name_H-M     'P n a 21'
_symmetry_Int_Tables_number        33
loop_
_symmetry_equiv_pos_site_id
_symmetry_equiv_pos_as_xyz
  1	'x+.5, -y+.5, z'
  2	'-x+.5, y+.5, z+.5'
  3	'-x, -y, z+.5'
  4	'x, y, z'
loop_
_atom_type_symbol
_atom_type_oxidation_number
Al3+	3
O2-	-2
loop_
_atom_site_label
_atom_site_type_symbol
_atom_site_symmetry_multiplicity
_atom_site_Wyckoff_symbol
_atom_site_fract_x
_atom_site_fract_y
_atom_site_fract_z
_atom_site_occupancy
_atom_site_attached_hydrogens
Al1 Al3+ 4 a 0.679 0.842 0.000 1. 0 
Al2 Al3+ 4 a 0.185 0.343 0.787 1. 0 
Al3 Al3+ 4 a 0.812 0.649 0.697 1. 0 
Al4 Al3+ 4 a 0.668 0.470 0.999 1. 0 
O1 O2- 4 a 0.329 0.831 0.893 1. 0 
O2 O2- 4 a 0.025 0.491 0.629 1. 0 
O3 O2- 4 a 0.472 0.665 0.638 1. 0 
O4 O2- 4 a 0.515 0.673 0.121 1. 0 
O5 O2- 4 a 0.861 0.330 0.866 1. 0 
O6 O2- 4 a 0.336 0.499 0.900 1. 0 

#End of data_247304-ICSD


