data_14196-ICSD
#?2014 by Fachinformationszentrum Karlsruhe, and the U.S. Secretary of 
#Commerce on behalf of the United States.  All rights reserved.
_database_code_ICSD                14196
_audit_creation_date               1980/12/31
_audit_update_record               2013/08/01
_chemical_name_systematic          'Dilithium Tungstate'
_chemical_formula_structural       'Li2 (W O4)'
_chemical_formula_sum              'Li2 O4 W1'
_publ_section_title
;
The crystal structure of Li2 W O4 (IV) and its relation to the 
wolframite-type structure
;
loop_
_citation_id
_citation_journal_abbrev
_citation_year
_citation_journal_volume
_citation_page_first
_citation_page_last
_citation_journal_id_ASTM
primary 'Journal of Solid State Chemistry' 1980 33 115 119 JSSCBI
2 'Golden Book of Phase Transitions, Wroclaw' 2002 1 1 123 GBOPT5
_publ_author_name                  'Horiuchi, H.;Morimoto, N.'
_cell_length_a                     9.753(1)
_cell_length_b                     5.954(1)
_cell_length_c                     4.994(1)
_cell_angle_alpha                  90.
_cell_angle_beta                   90.58(2)
_cell_angle_gamma                  90.
_cell_volume                       289.98
_cell_formula_units_Z              4
_symmetry_space_group_name_H-M     'C 1 2/c 1'
_symmetry_Int_Tables_number        15
_refine_ls_R_factor_all            .067
loop_
_symmetry_equiv_pos_site_id
_symmetry_equiv_pos_as_xyz
  1	'x, -y, z+.5'
  2	'-x, -y, -z'
  3	'-x, y, -z+.5'
  4	'x, y, z'
  5	'x+.5, -y+.5, z+.5'
  6	'-x+.5, -y+.5, -z'
  7	'-x+.5, y+.5, -z+.5'
  8	'x+.5, y+.5, z'
loop_
_atom_type_symbol
_atom_type_oxidation_number
Li1+	1
O2-	-2
W6+	6
loop_
_atom_site_label
_atom_site_type_symbol
_atom_site_symmetry_multiplicity
_atom_site_Wyckoff_symbol
_atom_site_fract_x
_atom_site_fract_y
_atom_site_fract_z
_atom_site_occupancy
_atom_site_attached_hydrogens
W1 W6+ 4 e 0 0.32837(6) 0.25 1. 0 
O1 O2- 8 f 0.3927(6) 0.1002(10) 0.4415(11) 1. 0 
O2 O2- 8 f 0.1263(6) 0.142(1) 0.1221(13) 1. 0 
Li1 Li1+ 8 f 0.299(3) 0.353(5) 0.246(5) 1. 0 

#End of data_14196-ICSD


