data_30880-ICSD
#?2014 by Fachinformationszentrum Karlsruhe, and the U.S. Secretary of 
#Commerce on behalf of the United States.  All rights reserved.
_database_code_ICSD                30880
_audit_creation_date               1985/05/29
_audit_update_record               2012/08/01
_chemical_name_systematic          'Zinc Divanadium Oxide'
_chemical_formula_structural       'Zn V2 O6'
_chemical_formula_sum              'O6 V2 Zn1'
_publ_section_title
;
Refinement of the crystal structure of Zn V2 O6
;
loop_
_citation_id
_citation_journal_abbrev
_citation_year
_citation_journal_volume
_citation_page_first
_citation_page_last
_citation_journal_id_ASTM
primary 'Zeitschrift fuer Kristallographie (1979-2010)' 1984 168 53 58 ZEKRDZ
_publ_author_name
;
Andreetti, G.D.;Calestani, G.;Montenero, A.;Bettinelli, M.
;
_cell_length_a                     9.2651(9)
_cell_length_b                     3.5242(5)
_cell_length_c                     6.5889(8)
_cell_angle_alpha                  90.
_cell_angle_beta                   111.37(1)
_cell_angle_gamma                  90.
_cell_volume                       200.35
_cell_formula_units_Z              2
_symmetry_space_group_name_H-M     'C 1 2/m 1'
_symmetry_Int_Tables_number        12
_refine_ls_R_factor_all            .037
loop_
_symmetry_equiv_pos_site_id
_symmetry_equiv_pos_as_xyz
  1	'-x, y, -z'
  2	'-x, -y, -z'
  3	'x, -y, z'
  4	'x, y, z'
  5	'-x+.5, y+.5, -z'
  6	'-x+.5, -y+.5, -z'
  7	'x+.5, -y+.5, z'
  8	'x+.5, y+.5, z'
loop_
_atom_type_symbol
_atom_type_oxidation_number
O2-	-2
V5+	5
Zn2+	2
loop_
_atom_site_label
_atom_site_type_symbol
_atom_site_symmetry_multiplicity
_atom_site_Wyckoff_symbol
_atom_site_fract_x
_atom_site_fract_y
_atom_site_fract_z
_atom_site_occupancy
_atom_site_attached_hydrogens
Zn1 Zn2+ 2 a 0 0 0 1. 0 
V1 V5+ 4 i 0.1916(2) 0 0.6528(2) 1. 0 
O1 O2- 4 i 0.0328(6) 0 0.7193(11) 1. 0 
O2 O2- 4 i 0.3406(6) 0 0.8884(10) 1. 0 
O3 O2- 4 i 0.3065(6) 0 0.4345(9) 1. 0 

loop_
_atom_site_aniso_label
_atom_site_aniso_type_symbol
_atom_site_aniso_U_11
_atom_site_aniso_U_22
_atom_site_aniso_U_33
_atom_site_aniso_U_12
_atom_site_aniso_U_13
_atom_site_aniso_U_23
Zn1 Zn2+ 0.0112(7) 0.0144(8) 0.0066(7) 0 0.0035(5) 0
V1 V5+ 0.0048(7) 0.0005(6) 0.0048(7) 0 0.0020(5) 0
O1 O2- 0.0071(29) 0.0043(26) 0.0115(28) 0 0.0041(23) 0
O2 O2- 0.0073(29) 0.0070(29) 0.0087(26) 0 0.0007(21) 0
O3 O2- 0.0016(24) 0.0004(24) 0.0030(24) 0 -.0015(19) 0
#End of data_30880-ICSD


