data_245184-ICSD
#?2014 by Fachinformationszentrum Karlsruhe, and the U.S. Secretary of 
#Commerce on behalf of the United States.  All rights reserved.
_database_code_ICSD                245184
_audit_creation_date               2007/08/01
_chemical_name_systematic          'Lithium Nickel(II) Arsenate'
_chemical_formula_structural       'Li Ni (As O4)'
_chemical_formula_sum              'As1 Li1 Ni1 O4'
_publ_section_title
;
Synthesis and structure of olivine-like arsenates Li M As o4 
(M=Mn,Fe,Co and Ni) and their high-pressure spinel-like polymorphs
;
loop_
_citation_id
_citation_journal_abbrev
_citation_year
_citation_journal_volume
_citation_journal_issue
_citation_page_first
_citation_page_last
_citation_journal_id_ASTM
primary 'Solid State Sciences' 2006 8 8 952 957 SSSCFJ
_publ_author_name
;
Alvarez-Vega, M.;Gallardo-Amores, J.M.;Garcia-Alvarado, F.;Amador, U.
;
_cell_length_a                     10.3054(1)
_cell_length_b                     5.9206(1)
_cell_length_c                     4.8634(1)
_cell_angle_alpha                  90.
_cell_angle_beta                   90.
_cell_angle_gamma                  90.
_cell_volume                       296.74
_cell_formula_units_Z              4
_symmetry_space_group_name_H-M     'P n m a'
_symmetry_Int_Tables_number        62
_refine_ls_R_factor_all            .078
loop_
_symmetry_equiv_pos_site_id
_symmetry_equiv_pos_as_xyz
  1	'x+.5, y, -z+.5'
  2	'x, -y+.5, z'
  3	'-x+.5, y+.5, z+.5'
  4	'-x, -y, -z'
  5	'-x+.5, -y, z+.5'
  6	'-x, y+.5, -z'
  7	'x+.5, -y+.5, -z+.5'
  8	'x, y, z'
loop_
_atom_type_symbol
_atom_type_oxidation_number
As5+	5
Li1+	1
Ni2+	2
O2-	-2
loop_
_atom_site_label
_atom_site_type_symbol
_atom_site_symmetry_multiplicity
_atom_site_Wyckoff_symbol
_atom_site_fract_x
_atom_site_fract_y
_atom_site_fract_z
_atom_site_occupancy
_atom_site_attached_hydrogens
_atom_site_U_iso_or_equiv
Li1 Li1+ 4 a 0 0 0 1. 0 0.1(4) 
Ni1 Ni2+ 4 c 0.2726(3) 0.25 0.9931(6) 1. 0 0.22(5) 
As1 As5+ 4 c 0.0959(9) 0.25 0.4341(5) 1. 0 0.15(3) 
O1 O2- 4 c 0.096(1) 0.25 0.791(2) 1. 0 0.23(8) 
O2 O2- 4 c 0.442(1) 0.25 0.215(2) 1. 0 0.23(8) 
O3 O2- 8 d 0.169(1) 0.025(1) 0.269(2) 1. 0 0.23(8) 

#End of data_245184-ICSD


