data_36593-ICSD
#?2014 by Fachinformationszentrum Karlsruhe, and the U.S. Secretary of 
#Commerce on behalf of the United States.  All rights reserved.
_database_code_ICSD                36593
_audit_creation_date               1993/01/06
_audit_update_record               2011/02/01
_chemical_name_systematic
;
Dipotassium Trioxodihydroxoruthenate(VI)
;
_chemical_formula_structural       'K2 (Ru O3 (O H)2)'
_chemical_formula_sum              'H2 K2 O5 Ru1'
_publ_section_title
;
Zur Konstitution von Alkaliruthenaten(VI): 2. Ueber den Aufbau von K2 
(Ru O3 (O H)2)
;
loop_
_citation_id
_citation_journal_abbrev
_citation_year
_citation_journal_volume
_citation_page_first
_citation_page_last
_citation_journal_id_ASTM
primary 'Zeitschrift fuer Anorganische und Allgemeine Chemie (1950) (DE)'
 1991 601 41 46 ZAACAB
_publ_author_name                  'Fischer, D.;Hoppe, R.'
_cell_length_a                     8.031(5)
_cell_length_b                     6.699(3)
_cell_length_c                     10.616(6)
_cell_angle_alpha                  90.
_cell_angle_beta                   90.
_cell_angle_gamma                  90.
_cell_volume                       571.14
_cell_formula_units_Z              4
_symmetry_space_group_name_H-M     'P 21 21 21'
_symmetry_Int_Tables_number        19
_refine_ls_R_factor_all            .021
loop_
_symmetry_equiv_pos_site_id
_symmetry_equiv_pos_as_xyz
  1	'-x, y+.5, -z+.5'
  2	'x+.5, -y+.5, -z'
  3	'-x+.5, -y, z+.5'
  4	'x, y, z'
loop_
_atom_type_symbol
_atom_type_oxidation_number
H1+	1
K1+	1
O2-	-2
Ru6+	6
loop_
_atom_site_label
_atom_site_type_symbol
_atom_site_symmetry_multiplicity
_atom_site_Wyckoff_symbol
_atom_site_fract_x
_atom_site_fract_y
_atom_site_fract_z
_atom_site_occupancy
_atom_site_attached_hydrogens
Ru1 Ru6+ 4 a 0.8115 0.8415(1) 0.1318 1. 0 
K1 K1+ 4 a 0.6490(1) 0.3781(2) 0.2930(1) 1. 0 
K2 K1+ 4 a 0.0060(2) 0.7908(2) 0.4405(1) 1. 0 
O1 O2- 4 a 0.1747(5) 0.4537(5) 0.8773(4) 1. 0 
O2 O2- 4 a 0.2905(5) 0.2680(5) 0.1995(3) 1. 0 
O3 O2- 4 a 0.2411(5) 0.1036(5) 0.4278(4) 1. 0 
O4 O2- 4 a 0.4922(4) 0.1174(6) 0.6959(4) 1. 0 
O5 O2- 4 a 0.0958(5) 0.4222(6) 0.5400(3) 1. 0 
H1 H1+ 4 a 0.3201 0.3623 0.1578 1. 0 
H2 H1+ 4 a 0.5126 0.6196 0.0436 1. 0 

loop_
_atom_site_aniso_label
_atom_site_aniso_type_symbol
_atom_site_aniso_U_11
_atom_site_aniso_U_22
_atom_site_aniso_U_33
_atom_site_aniso_U_12
_atom_site_aniso_U_13
_atom_site_aniso_U_23
Ru1 Ru6+ 0.0136(1) 0.0107(1) 0.0156(1) 0.0007(1) -.0013(1) -.0002(1)
K1 K1+ 0.0228(5) 0.0155(5) 0.0264(5) -.0008(4) 0.0039(4) 0.0008(4)
K2 K1+ 0.0278(5) 0.0221(5) 0.0201(5) 0.0037(4) 0.0015(4) -.0005(4)
O1 O2- 0.0264(17) 0.0175(15) 0.0284(17) -.0082(15) 0.0008(19) 0.0015(14)
O2 O2- 0.0257(19) 0.0142(14) 0.0225(16) 0.0025(14) 0.0056(15) -.0022(13)
O3 O2- 0.0295(18) 0.0133(16) 0.0270(19) 0.0010(13) -.0030(15) 0.0043(14)
O4 O2- 0.0140(15) 0.0389(24) 0.0237(18) -.0064(16) 0.0063(14) -.0047(17)
O5 O2- 0.0277(19) 0.0209(17) 0.0152(16) -.0009(15) -.0008(14) -.0007(13)
#End of data_36593-ICSD


