data_90730-ICSD
#?2014 by Fachinformationszentrum Karlsruhe, and the U.S. Secretary of 
#Commerce on behalf of the United States.  All rights reserved.
_database_code_ICSD                90730
_audit_creation_date               2002/04/01
_chemical_name_systematic          'Magnesium Silicon Nitride'
_chemical_formula_structural       'Mg Si N2'
_chemical_formula_sum              'Mg1 N2 Si1'
_publ_section_title
;
Anisotropic thermal expansion of Mg Si N2 from 10 to 300 K as 
measured by neutron diffraction
;
loop_
_citation_id
_citation_journal_abbrev
_citation_year
_citation_journal_volume
_citation_page_first
_citation_page_last
_citation_journal_id_ASTM
primary 'Journal of Physics and Chemistry of Solids' 2000 61 1285 1293 JPCSAW
_publ_author_name
;
Bruls, R.J.;Hintzen, H.T.;Metselaar, R.;Loong, C.-K.
;
_cell_length_a                     5.27078(5)
_cell_length_b                     6.46916(7)
_cell_length_c                     4.98401(5)
_cell_angle_alpha                  90.
_cell_angle_beta                   90.
_cell_angle_gamma                  90.
_cell_volume                       169.94
_cell_formula_units_Z              4
_symmetry_space_group_name_H-M     'P n a 21'
_symmetry_Int_Tables_number        33
_refine_ls_R_factor_all            .046
loop_
_symmetry_equiv_pos_site_id
_symmetry_equiv_pos_as_xyz
  1	'x+.5, -y+.5, z'
  2	'-x+.5, y+.5, z+.5'
  3	'-x, -y, z+.5'
  4	'x, y, z'
loop_
_atom_type_symbol
_atom_type_oxidation_number
Mg2+	2
N3-	-3
Si4+	4
loop_
_atom_site_label
_atom_site_type_symbol
_atom_site_symmetry_multiplicity
_atom_site_Wyckoff_symbol
_atom_site_fract_x
_atom_site_fract_y
_atom_site_fract_z
_atom_site_occupancy
_atom_site_attached_hydrogens
_atom_site_U_iso_or_equiv
Mg1 Mg2+ 4 a 0.08448(34) 0.62255(30) -.0134(5) 1. 0 0.00298(33) 
Si1 Si4+ 4 a 0.0693(5) 0.1249(4) 0 1. 0 0.0014(4) 
N1 N3- 4 a 0.04855(17) 0.09562(15) 0.3472(4) 1. 0 0.00196(20) 
N2 N3- 4 a 0.10859(18) 0.65527(14) 0.4102(4) 1. 0 0.00234(20) 

#End of data_90730-ICSD


