data_20120-ICSD
#?2014 by Fachinformationszentrum Karlsruhe, and the U.S. Secretary of 
#Commerce on behalf of the United States.  All rights reserved.
_database_code_ICSD                20120
_audit_creation_date               1980/01/01
_chemical_name_systematic          'Trisodium Scandium Disilicate'
_chemical_formula_structural       'Na3 Sc (Si2 O7)'
_chemical_formula_sum              'Na3 O7 Sc1 Si2'
_publ_section_title
;
Crystal structure of the synthetic sodium-scandium silicate Na3 Sc 
(Si2 O7)
;
loop_
_citation_id
_citation_journal_abbrev
_citation_year
_citation_journal_volume
_citation_page_first
_citation_page_last
_citation_journal_id_ASTM
primary 'Doklady Akademii Nauk SSSR' 1969 184 337 340 DANKAS
_publ_author_name
;
Skshat, S.M.;Simonov, V.I.;Belov, N.V.
;
_cell_length_a                     5.354(3)
_cell_length_b                     9.347(4)
_cell_length_c                     13.089(4)
_cell_angle_alpha                  90.
_cell_angle_beta                   90.
_cell_angle_gamma                  90.
_cell_volume                       655.02
_cell_formula_units_Z              4
_symmetry_space_group_name_H-M     'P b n m'
_symmetry_Int_Tables_number        62
_refine_ls_R_factor_all            .113
loop_
_symmetry_equiv_pos_site_id
_symmetry_equiv_pos_as_xyz
  1	'-x+.5, y+.5, z'
  2	'x, y, -z+.5'
  3	'x+.5, -y+.5, z+.5'
  4	'-x, -y, -z'
  5	'x+.5, -y+.5, -z'
  6	'-x, -y, z+.5'
  7	'-x+.5, y+.5, -z+.5'
  8	'x, y, z'
loop_
_atom_type_symbol
_atom_type_oxidation_number
Na1+	1
O2-	-2
Sc3+	3
Si4+	4
loop_
_atom_site_label
_atom_site_type_symbol
_atom_site_symmetry_multiplicity
_atom_site_Wyckoff_symbol
_atom_site_fract_x
_atom_site_fract_y
_atom_site_fract_z
_atom_site_occupancy
_atom_site_attached_hydrogens
_atom_site_B_iso_or_equiv
Sc1 Sc3+ 4 a 0 0 0 1. 0 0.77 
Si1 Si4+ 8 d 0.512 0.176 0.131 1. 0 0.86 
Na1 Na1+ 4 c 0.017 0.021 0.25 1. 0 1.82 
Na2 Na1+ 8 d 0.015 0.347 0.093 1. 0 1.92 
O1 O2- 4 c 0.442 0.122 0.25 1. 0 1.15 
O2 O2- 8 d 0.479 0.347 0.118 1. 0 1.19 
O3 O2- 8 d 0.32 0.09 0.062 1. 0 1.32 
O4 O2- 8 d 0.8 0.127 0.107 1. 0 1.21 

#End of data_20120-ICSD


