data_65131-ICSD
#?2014 by Fachinformationszentrum Karlsruhe, and the U.S. Secretary of 
#Commerce on behalf of the United States.  All rights reserved.
_database_code_ICSD                65131
_audit_creation_date               1989/06/19
_audit_update_record               2006/04/01
_chemical_name_systematic          'Sodium Zinc Phosphate(V)'
_chemical_formula_structural       'Na Zn (P O4)'
_chemical_formula_sum              'Na1 O4 P1 Zn1'
_publ_section_title                'The structure of Na Zn P O4'
loop_
_citation_id
_citation_journal_abbrev
_citation_year
_citation_journal_volume
_citation_page_first
_citation_page_last
_citation_journal_id_ASTM
primary 'Zeitschrift fuer Kristallographie (1979-2010)' 1987 180 137 140 ZEKRDZ
2 'Golden Book of Phase Transitions, Wroclaw' 2002 1 1 123 GBOPT5
_publ_author_name
;
Elammari, L.;Durand, J.;Cot, L.;Elouadi, B.
;
_cell_length_a                     8.656(3)
_cell_length_b                     8.106(2)
_cell_length_c                     15.260(5)
_cell_angle_alpha                  90.
_cell_angle_beta                   89.80(3)
_cell_angle_gamma                  90.
_cell_volume                       1070.72
_cell_formula_units_Z              12
_symmetry_space_group_name_H-M     'P 1 21/n 1'
_symmetry_Int_Tables_number        14
_refine_ls_R_factor_all            .019
loop_
_symmetry_equiv_pos_site_id
_symmetry_equiv_pos_as_xyz
  1	'-x+.5, y+.5, -z+.5'
  2	'-x, -y, -z'
  3	'x+.5, -y+.5, z+.5'
  4	'x, y, z'
loop_
_atom_type_symbol
_atom_type_oxidation_number
Na1+	1
O2-	-2
P5+	5
Zn2+	2
loop_
_atom_site_label
_atom_site_type_symbol
_atom_site_symmetry_multiplicity
_atom_site_Wyckoff_symbol
_atom_site_fract_x
_atom_site_fract_y
_atom_site_fract_z
_atom_site_occupancy
_atom_site_attached_hydrogens
Zn1 Zn2+ 4 e 0.4371(1) 0.2181(1) 0.4065(1) 1. 0 
Zn2 Zn2+ 4 e 0.1101(1) 0.7130(1) 0.4201(1) 1. 0 
Zn3 Zn2+ 4 e 0.9171(1) 0.2178(1) 0.2648(1) 1. 0 
P1 P5+ 4 e 0.4419(2) 0.8261(2) 0.4086(1) 1. 0 
P2 P5+ 4 e 0.1022(2) 0.3237(2) 0.4216(1) 1. 0 
P3 P5+ 4 e 0.9227(2) 0.8258(2) 0.2662(2) 1. 0 
Na1 Na1+ 4 e 0.2545(5) 0.5265(6) 0.2476(3) 1. 0 
Na2 Na1+ 4 e 0.7364(4) 0.5311(4) 0.4091(2) 1. 0 
Na3 Na1+ 4 e 0.7261(4) 0.4712(5) 0.0655(2) 1. 0 
O1 O2- 4 e 0.0097(6) 0.5053(7) 0.8867(4) 1. 0 
O2 O2- 4 e 0.9448(6) 0.2327(8) 0.0317(3) 1. 0 
O3 O2- 4 e 0.0810(6) 0.2267(8) 0.1765(3) 1. 0 
O4 O2- 4 e 0.2147(6) 0.3481(7) 0.0454(3) 1. 0 
O5 O2- 4 e 0.1735(6) 0.4894(7) 0.4458(3) 1. 0 
O6 O2- 4 e 0.9549(6) 0.3522(6) 0.3674(3) 1. 0 
O7 O2- 4 e 0.0651(5) 0.2276(8) 0.5061(3) 1. 0 
O8 O2- 4 e 0.2216(5) 0.2266(8) 0.3678(3) 1. 0 
O9 O2- 4 e 0.5687(7) 0.4940(8) 0.1893(3) 1. 0 
O10 O2- 4 e 0.4358(5) 0.2250(8) 0.2049(3) 1. 0 
O11 O2- 4 e 0.7240(5) 0.2370(8) 0.2031(3) 1. 0 
O12 O2- 4 e 0.5754(6) 0.3485(7) 0.3336(3) 1. 0 

#End of data_65131-ICSD


