data_262977-ICSD
#?2014 by Fachinformationszentrum Karlsruhe, and the U.S. Secretary of 
#Commerce on behalf of the United States.  All rights reserved.
_database_code_ICSD                262977
_audit_creation_date               2013/02/01
_chemical_name_systematic          'Tripotassium Zinc Pentaborate'
_chemical_formula_structural       'K3 Zn B5 O10'
_chemical_formula_sum              'B5 K3 O10 Zn1'
_publ_section_title
;
Synthesis, crystal structure and properties of a new congruently 
melting compound, K3 Zn B5 O10
;
loop_
_citation_id
_citation_journal_abbrev
_citation_year
_citation_journal_volume
_citation_journal_issue
_citation_page_first
_citation_page_last
_citation_journal_id_ASTM
primary 'Solid State Sciences' 2012 14 7 936 940 SSSCFJ
_publ_author_name
;
Wu Hongping;Pan Shilie;Yu Hongwei;Chen Zhaohui;Zhang Fangfang
;
_cell_length_a                     7.6391(5)
_cell_length_b                     19.2304(13)
_cell_length_c                     7.6905(5)
_cell_angle_alpha                  90
_cell_angle_beta                   116.698
_cell_angle_gamma                  90
_cell_volume                       1009.31
_cell_formula_units_Z              4
_symmetry_space_group_name_H-M     'P 1 21/n 1'
_symmetry_Int_Tables_number        14
_refine_ls_R_factor_all            .0286
loop_
_symmetry_equiv_pos_site_id
_symmetry_equiv_pos_as_xyz
  1	'-x+.5, y+.5, -z+.5'
  2	'-x, -y, -z'
  3	'x+.5, -y+.5, z+.5'
  4	'x, y, z'
loop_
_atom_type_symbol
_atom_type_oxidation_number
B3+	3
K1+	1
O2-	-2
Zn2+	2
loop_
_atom_site_label
_atom_site_type_symbol
_atom_site_symmetry_multiplicity
_atom_site_Wyckoff_symbol
_atom_site_fract_x
_atom_site_fract_y
_atom_site_fract_z
_atom_site_occupancy
_atom_site_attached_hydrogens
_atom_site_U_iso_or_equiv
Zn1 Zn2+ 4 e 0.1768(1) 0.1066(1) 0.0047(1) 1. 0 0.015(1) 
K1 K1+ 4 e 0.1461(1) 0.0787(1) 0.4863(1) 1. 0 0.023(1) 
K2 K1+ 4 e -0.2888(1) 0.0627(1) 0.0333(1) 1. 0 0.023(1) 
K3 K1+ 4 e -0.0348(1) 0.2540(1) 0.7224(1) 1. 0 0.024(1) 
B1 B3+ 4 e 0.5288(4) 0.0785(2) 0.3546(4) 1. 0 0.015(1) 
B2 B3+ 4 e -0.4273(4) 0.1616(2) 0.6253(4) 1. 0 0.017(1) 
B3 B3+ 4 e 0.0135(4) 0.2116(2) 0.1729(4) 1. 0 0.015(1) 
B4 B3+ 4 e -0.1642(4) 0.0768(2) 0.6604(4) 1. 0 0.015(1) 
B5 B3+ 4 e 0.3839(4) 0.1969(2) 0.8059(4) 1. 0 0.018(1) 
O1 O2- 4 e 0.0372(2) 0.1445(1) 0.1460(3) 1. 0 0.016(1) 
O2 O2- 4 e 0.4205(2) 0.0545(1) 0.1745(3) 1. 0 0.020(1) 
O3 O2- 4 e 0.2750(3) 0.1797(1) 0.8931(3) 1. 0 0.0241(1) 
O4 O2- 4 e -0.0359(2) 0.3701(1) 0.9323(3) 1. 0 0.019(1) 
O5 O2- 4 e 0.0118(2) 0.0480(1) 0.7715(3) 1. 0 0.019(1) 
O6 O2- 4 e -0.0884(3) 0.2321(1) 0.2784(3) 1. 0 0.022(1) 
O7 O2- 4 e -0.5326(2) 0.1472(1) 0.7404(3) 1. 0 0.019(1) 
O8 O2- 4 e -0.4143(2) 0.2364(1) 0.6021(3) 1. 0 0.018(1) 
O9 O2- 4 e 0.2795(2) -0.0519(1) 0.5308(3) 1. 0 0.020(1) 
O10 O2- 4 e -0.2308(2) 0.1318(1) 0.7241(3) 1. 0 0.019(1) 

#End of data_262977-ICSD


