data_29385-ICSD
#?2014 by Fachinformationszentrum Karlsruhe, and the U.S. Secretary of 
#Commerce on behalf of the United States.  All rights reserved.
_database_code_ICSD                29385
_audit_creation_date               1984/12/31
_audit_update_record               1999/01/19
_chemical_name_systematic
;
Magnesium Ammonium Phosphate(V) Hexahydrate
;
_chemical_formula_structural       'Mg (N H4) (P O4) (H2 O)6'
_chemical_formula_sum              'H16 Mg1 N1 O10 P1'
_chemical_name_mineral             Struvite
_publ_section_title
;
Synthetic struvite, Mg N H4 P O4 (H2 O)6: Correct polarity and 
surface features of some complementary forms
;
loop_
_citation_id
_citation_journal_abbrev
_citation_year
_citation_journal_volume
_citation_page_first
_citation_page_last
_citation_journal_id_ASTM
primary 'Acta Crystallographica, Section B: Structural Science'
 1984 40 223 227 ASBSDK
_publ_author_name                  'Abbona, F.;Calleri, M.;Ivaldi, G.'
_cell_length_a                     6.966(1)
_cell_length_b                     6.142(1)
_cell_length_c                     11.217(2)
_cell_angle_alpha                  90.
_cell_angle_beta                   90.
_cell_angle_gamma                  90.
_cell_volume                       479.92
_cell_formula_units_Z              2
_symmetry_space_group_name_H-M     'P m n 21'
_symmetry_Int_Tables_number        31
_refine_ls_R_factor_all            .0286
loop_
_symmetry_equiv_pos_site_id
_symmetry_equiv_pos_as_xyz
  1	'x+.5, -y, z+.5'
  2	'-x+.5, -y, z+.5'
  3	'-x, y, z'
  4	'x, y, z'
loop_
_atom_type_symbol
_atom_type_oxidation_number
H1+	1
Mg2+	2
N3-	-3
O2-	-2
P5+	5
loop_
_atom_site_label
_atom_site_type_symbol
_atom_site_symmetry_multiplicity
_atom_site_Wyckoff_symbol
_atom_site_fract_x
_atom_site_fract_y
_atom_site_fract_z
_atom_site_occupancy
_atom_site_attached_hydrogens
_atom_site_U_iso_or_equiv
Mg1 Mg2+ 2 a 0 0.6232(1) 0.6283(1) 1. 0 0 
N1 N3- 2 a 0 0.6341(5) 0.2673(3) 1. 0 0 
P1 P5+ 2 a 0 1.0065(1) 1.0005 1. 0 0 
O1 O2- 2 a 0 1.0220(1) 0.1378(2) 1. 0 0 
O2 O2- 2 a 0 0.2380(2) 0.9465(2) 1. 0 0 
O3 O2- 4 b 0.8179(2) 0.8863(2) 0.9584(1) 1. 0 0 
O4 O2- 2 a 0 0.3163(3) 0.7137(2) 1. 0 0 
O5 O2- 2 a 0 0.9214(4) 0.5356(3) 1. 0 0 
O6 O2- 4 b 0.7825(3) 0.7369(2) 0.7382(1) 1. 0 0 
O7 O2- 4 b 0.7892(2) 0.5147(2) 0.5148(2) 1. 0 0 
H1 H1+ 2 a 0 0.305(7) 0.785(4) 1. 0 0.0449 
H2 H1+ 2 a 0 0.184(7) 0.685(4) 1. 0 0.0449 
H3 H1+ 4 b 0.897(5) 0.986(4) 0.503(4) 1. 0 0.0489 
H4 H1+ 4 b 0.815(5) 0.795(4) 0.806(3) 1. 0 0.0319 
H5 H1+ 4 b 0.720(4) 0.815(5) 0.702(3) 1. 0 0.0319 
H6 H1+ 4 b 0.786(5) 0.387(2) 0.512(3) 1. 0 0.0385 
H7 H1+ 4 b 0.702(4) 0.590(3) 0.493(3) 1. 0 0.0385 
H8 H1+ 2 a 0 0.761(3) 0.224(3) 1. 0 0.0397 
H9 H1+ 2 a 0 0.666(5) 0.348(2) 1. 0 0.0397 
H10 H1+ 4 b 0.895(3) 0.551(3) 0.248(2) 1. 0 0.0397 

loop_
_atom_site_aniso_label
_atom_site_aniso_type_symbol
_atom_site_aniso_U_11
_atom_site_aniso_U_22
_atom_site_aniso_U_33
_atom_site_aniso_U_12
_atom_site_aniso_U_13
_atom_site_aniso_U_23
Mg1 Mg2+ 0.018(1) 0.018(1) 0.017(1) 0 0 0.000(1)
N1 N3- 0.036(2) 0.032(1) 0.033(1) 0 0 0.007(1)
P1 P5+ 0.015(1) 0.013(1) 0.015(1) 0 0 0.000(1)
O1 O2- 0.026(1) 0.027(1) 0.015(1) 0 0 -.001(1)
O2 O2- 0.026(1) 0.015(1) 0.024(1) 0 0 0.003(1)
O3 O2- 0.018(1) 0.021(1) 0.025(1) -.004(1) 0.000(1) -.003(1)
O4 O2- 0.069(2) 0.021(1) 0.023(1) 0 0 0.005(1)
O5 O2- 0.018(1) 0.035(1) 0.069(2) 0 0 0.030(1)
O6 O2- 0.025(1) 0.034(1) 0.020(1) 0.006(1) -.001(1) -.004(1)
O7 O2- 0.031(1) 0.022(1) 0.044(1) 0.002(1) -.018(1) -.008(1)
#End of data_29385-ICSD


