data_30435-ICSD
#?2014 by Fachinformationszentrum Karlsruhe, and the U.S. Secretary of 
#Commerce on behalf of the United States.  All rights reserved.
_database_code_ICSD                30435
_audit_creation_date               1986/10/02
_audit_update_record               2006/04/01
_chemical_name_systematic          'Sodium Tetrafluoroborate'
_chemical_formula_structural       'Na (B F4)'
_chemical_formula_sum              'B1 F4 Na1'
_chemical_name_mineral             Ferruccite
_publ_section_title
;
Nuclear quadrupol interaction of 23-Na and 11-B and the crystal 
structure of Na B F4
;
loop_
_citation_id
_citation_journal_abbrev
_citation_year
_citation_journal_volume
_citation_page_first
_citation_page_last
_citation_journal_id_ASTM
primary 'Physica Status Solidi' 1967 21 257 270 PHSSAK
2 'Phase Transition' 1992 38 127 220 PHTRDP
_publ_author_name                  'Weiss, A.;Zohner, K.'
_cell_length_a                     6.841(3)
_cell_length_b                     6.266(3)
_cell_length_c                     6.798(2)
_cell_angle_alpha                  90.
_cell_angle_beta                   90.
_cell_angle_gamma                  90.
_cell_volume                       291.4
_cell_formula_units_Z              4
_symmetry_space_group_name_H-M     'C m c m'
_symmetry_Int_Tables_number        63
_refine_ls_R_factor_all            .11
loop_
_symmetry_equiv_pos_site_id
_symmetry_equiv_pos_as_xyz
  1	'-x, y, -z+.5'
  2	'-x, -y, z+.5'
  3	'-x, y, z'
  4	'-x, -y, -z'
  5	'x, -y, z+.5'
  6	'x, y, -z+.5'
  7	'x, -y, -z'
  8	'x, y, z'
  9	'-x+.5, y+.5, -z+.5'
 10	'-x+.5, -y+.5, z+.5'
 11	'-x+.5, y+.5, z'
 12	'-x+.5, -y+.5, -z'
 13	'x+.5, -y+.5, z+.5'
 14	'x+.5, y+.5, -z+.5'
 15	'x+.5, -y+.5, -z'
 16	'x+.5, y+.5, z'
loop_
_atom_type_symbol
_atom_type_oxidation_number
B3+	3
F1-	-1
Na1+	1
loop_
_atom_site_label
_atom_site_type_symbol
_atom_site_symmetry_multiplicity
_atom_site_Wyckoff_symbol
_atom_site_fract_x
_atom_site_fract_y
_atom_site_fract_z
_atom_site_occupancy
_atom_site_attached_hydrogens
_atom_site_B_iso_or_equiv
Na1 Na1+ 4 c 0 0.656(1) 0.25 1. 0 1.1 
B1 B3+ 4 c 0 0.161(2) 0.25 1. 0 0.2 
F1 F1- 8 f 0 0.290(1) 0.086(1) 1. 0 1.7 
F2 F1- 8 g 0.163(2) 0.032(2) 0.25 1. 0 2. 

#End of data_30435-ICSD


