data_82996-ICSD
#?2014 by Fachinformationszentrum Karlsruhe, and the U.S. Secretary of 
#Commerce on behalf of the United States.  All rights reserved.
_database_code_ICSD                82996
_audit_creation_date               1998/06/26
_audit_update_record               2007/08/01
_chemical_name_systematic
;
Dicalcium Silicate - Alpha'l
;
_chemical_formula_structural       'Ca2 (Si O4)'
_chemical_formula_sum              'Ca2 O4 Si1'
_publ_section_title
;
Rietveld crystal structure refinement from high temperature neutron 
powder diffraction data for the polymorphs of dicalcium silicate
;
loop_
_citation_id
_citation_journal_abbrev
_citation_year
_citation_journal_volume
_citation_journal_issue
_citation_page_first
_citation_page_last
_citation_journal_id_ASTM
primary 'Neues Jahrbuch fuer Mineralogie. Abhandlungen (Band-Nr) (1950-)'
 1996 170 2 171 188 NJMIAK
2 'Phase Transition' 1992 38- 127 220 PHTRDP
_publ_author_name
;
Mumme, W.G.;Cranswick, L.;Chakoumakos, B.
;
_cell_length_a                     20.5266(16)
_cell_length_b                     9.4963(7)
_cell_length_c                     5.5897(5)
_cell_angle_alpha                  90.
_cell_angle_beta                   90.
_cell_angle_gamma                  90.
_cell_volume                       1089.58
_cell_formula_units_Z              12
_symmetry_space_group_name_H-M     'P n a 21'
_symmetry_Int_Tables_number        33
_refine_ls_R_factor_all            .07
loop_
_symmetry_equiv_pos_site_id
_symmetry_equiv_pos_as_xyz
  1	'x+.5, -y+.5, z'
  2	'-x+.5, y+.5, z+.5'
  3	'-x, -y, z+.5'
  4	'x, y, z'
loop_
_atom_type_symbol
_atom_type_oxidation_number
Ca2+	2
O2-	-2
Si4+	4
loop_
_atom_site_label
_atom_site_type_symbol
_atom_site_symmetry_multiplicity
_atom_site_Wyckoff_symbol
_atom_site_fract_x
_atom_site_fract_y
_atom_site_fract_z
_atom_site_occupancy
_atom_site_attached_hydrogens
_atom_site_B_iso_or_equiv
Ca1 Ca2+ 4 a 0.7787(24) 0.0726(48) 0.7465(95) 1. 0 1.2(7) 
Ca2 Ca2+ 4 a 0.4417(19) 0.0469(39) 0.8011(75) 1. 0 3.5(7) 
Ca3 Ca2+ 4 a 0.1225(25) 0.0794(47) 0.7025(83) 1. 0 4.5(7) 
Ca4 Ca2+ 4 a 0.9958(21) 0.8137(43) 0.7228(81) 1. 0 4.5(8) 
Ca5 Ca2+ 4 a 0.6627(27) 0.7836(47) 0.7652(79) 1. 0 3.5(6) 
Ca6 Ca2+ 4 a 0.3275(25) 0.8001(44) 0.7453(78) 1. 0 1.8(7) 
Si1 Si4+ 4 a 0.2607(24) 0.0680(51) 0.759(10) 1. 0 3.9(9) 
Si2 Si4+ 4 a 0.9284(29) 0.0805(65) 0.7557(97) 1. 0 2.1(8) 
Si3 Si4+ 4 a 0.5896(27) 0.0959(54) 0.727(11) 1. 0 4.9(8) 
O1 O2- 4 a 0.7585(21) 0.8504(37) 0.4906(71) 1. 0 4.4(7) 
O2 O2- 4 a 0.7716(22) 0.8674(37) 0.0053(76) 1. 0 3.8(6) 
O3 O2- 4 a 0.7811(15) 0.0640(35) 0.2141(64) 1. 0 3.8(8) 
O4 O2- 4 a 0.6628(12) 0.9287(32) 0.2032(73) 1. 0 4.1(6) 
O5 O2- 4 a 0.6080(14) 0.4332(37) 0.1838(57) 1. 0 3.8(4) 
O6 O2- 4 a 0.5845(21) 0.6998(40) 0.0427(76) 1. 0 3.7(9) 
O7 O2- 4 a 0.4988(16) 0.5610(43) 0.2906(79) 1. 0 3.6(6) 
O8 O2- 4 a 0.5969(22) 0.6734(43) 0.4786(89) 1. 0 4.2(8) 
O9 O2- 4 a 0.9500(19) 0.4462(41) 0.1919(89) 1. 0 3.0(8) 
O10 O2- 4 a 0.9252(22) 0.6903(49) 0.0127(91) 1. 0 6.6(8) 
O11 O2- 4 a 0.9213(20) 0.6881(39) 0.4742(71) 1. 0 3.6(7) 
O12 O2- 4 a 0.8344(15) 0.5495(32) 0.1618(66) 1. 0 3.8(8) 

#End of data_82996-ICSD


