data_158962-ICSD
#?2014 by Fachinformationszentrum Karlsruhe, and the U.S. Secretary of 
#Commerce on behalf of the United States.  All rights reserved.
_database_code_ICSD                158962
_audit_creation_date               2008/08/01
_chemical_name_systematic
;
Dimagnesium Hexasodium Tetracarbonate Sulfate(VI)
;
_chemical_formula_structural       'Mg2 Na6 (C O3)4 (S O4)'
_chemical_formula_sum              'C4 Mg2 Na6 O16 S1'
_chemical_name_mineral             Tychite
_publ_section_title
;
Les structures cristallines de la northupite 2(Mg C O3) * 2(Na2 C O3) 
* 2(Na Cl) et de la tychite 2(Mg C O3) * 2(Na2 C O3) * (Na2 S O4)
;
loop_
_citation_id
_citation_journal_abbrev
_citation_year
_citation_journal_volume
_citation_page_first
_citation_page_last
_citation_journal_id_ASTM
primary
;
Scientific Papers of the Institute of Physical and Chemical Research 
(Japan)
;
 1933 21 40 62 SPIPAG
_publ_author_name                  'Watanabe, T.'
_cell_length_a                     13.87
_cell_length_b                     13.87
_cell_length_c                     13.87
_cell_angle_alpha                  90.
_cell_angle_beta                   90.
_cell_angle_gamma                  90.
_cell_volume                       2668.27
_cell_formula_units_Z              8
_symmetry_space_group_name_H-M     'F d -3 S'
_symmetry_Int_Tables_number        203
loop_
_symmetry_equiv_pos_site_id
_symmetry_equiv_pos_as_xyz
  1	'-z+.25, x+.25, y+.25'
  2	'z+.25, -x+.25, y+.25'
  3	'z+.25, x+.25, -y+.25'
  4	'-z+.25, -x+.25, -y+.25'
  5	'z, -x, -y'
  6	'-z, x, -y'
  7	'-z, -x, y'
  8	'z, x, y'
  9	'y+.25, -z+.25, x+.25'
 10	'y+.25, z+.25, -x+.25'
 11	'-y+.25, z+.25, x+.25'
 12	'-y+.25, -z+.25, -x+.25'
 13	'-y, z, -x'
 14	'-y, -z, x'
 15	'y, -z, -x'
 16	'y, z, x'
 17	'x+.25, y+.25, -z+.25'
 18	'-x+.25, y+.25, z+.25'
 19	'x+.25, -y+.25, z+.25'
 20	'-x+.25, -y+.25, -z+.25'
 21	'-x, -y, z'
 22	'x, -y, -z'
 23	'-x, y, -z'
 24	'x, y, z'
 25	'-z+.25, x+.75, y+.75'
 26	'-z+.75, x+.25, y+.75'
 27	'-z+.75, x+.75, y+.25'
 28	'z+.25, -x+.75, y+.75'
 29	'z+.75, -x+.25, y+.75'
 30	'z+.75, -x+.75, y+.25'
 31	'z+.25, x+.75, -y+.75'
 32	'z+.75, x+.25, -y+.75'
 33	'z+.75, x+.75, -y+.25'
 34	'-z+.25, -x+.75, -y+.75'
 35	'-z+.75, -x+.25, -y+.75'
 36	'-z+.75, -x+.75, -y+.25'
 37	'z, -x+.5, -y+.5'
 38	'z+.5, -x, -y+.5'
 39	'z+.5, -x+.5, -y'
 40	'-z, x+.5, -y+.5'
 41	'-z+.5, x, -y+.5'
 42	'-z+.5, x+.5, -y'
 43	'-z, -x+.5, y+.5'
 44	'-z+.5, -x, y+.5'
 45	'-z+.5, -x+.5, y'
 46	'z, x+.5, y+.5'
 47	'z+.5, x, y+.5'
 48	'z+.5, x+.5, y'
 49	'y+.25, -z+.75, x+.75'
 50	'y+.75, -z+.25, x+.75'
 51	'y+.75, -z+.75, x+.25'
 52	'y+.25, z+.75, -x+.75'
 53	'y+.75, z+.25, -x+.75'
 54	'y+.75, z+.75, -x+.25'
 55	'-y+.25, z+.75, x+.75'
 56	'-y+.75, z+.25, x+.75'
 57	'-y+.75, z+.75, x+.25'
 58	'-y+.25, -z+.75, -x+.75'
 59	'-y+.75, -z+.25, -x+.75'
 60	'-y+.75, -z+.75, -x+.25'
 61	'-y, z+.5, -x+.5'
 62	'-y+.5, z, -x+.5'
 63	'-y+.5, z+.5, -x'
 64	'-y, -z+.5, x+.5'
 65	'-y+.5, -z, x+.5'
 66	'-y+.5, -z+.5, x'
 67	'y, -z+.5, -x+.5'
 68	'y+.5, -z, -x+.5'
 69	'y+.5, -z+.5, -x'
 70	'y, z+.5, x+.5'
 71	'y+.5, z, x+.5'
 72	'y+.5, z+.5, x'
 73	'x+.25, y+.75, -z+.75'
 74	'x+.75, y+.25, -z+.75'
 75	'x+.75, y+.75, -z+.25'
 76	'-x+.25, y+.75, z+.75'
 77	'-x+.75, y+.25, z+.75'
 78	'-x+.75, y+.75, z+.25'
 79	'x+.25, -y+.75, z+.75'
 80	'x+.75, -y+.25, z+.75'
 81	'x+.75, -y+.75, z+.25'
 82	'-x+.25, -y+.75, -z+.75'
 83	'-x+.75, -y+.25, -z+.75'
 84	'-x+.75, -y+.75, -z+.25'
 85	'-x, -y+.5, z+.5'
 86	'-x+.5, -y, z+.5'
 87	'-x+.5, -y+.5, z'
 88	'x, -y+.5, -z+.5'
 89	'x+.5, -y, -z+.5'
 90	'x+.5, -y+.5, -z'
 91	'-x, y+.5, -z+.5'
 92	'-x+.5, y, -z+.5'
 93	'-x+.5, y+.5, -z'
 94	'x, y+.5, z+.5'
 95	'x+.5, y, z+.5'
 96	'x+.5, y+.5, z'
loop_
_atom_type_symbol
_atom_type_oxidation_number
C4+	4
Mg2+	2
Na1+	1
O2-	-2
S6+	6
loop_
_atom_site_label
_atom_site_type_symbol
_atom_site_symmetry_multiplicity
_atom_site_Wyckoff_symbol
_atom_site_fract_x
_atom_site_fract_y
_atom_site_fract_z
_atom_site_occupancy
_atom_site_attached_hydrogens
S1 S6+ 8 a 0 0 0 1. 0 
Mg1 Mg2+ 16 d 0.625 0.625 0.625 1. 0 
C1 C4+ 32 e 0.400 0.400 0.400 1. 0 
O1 O2- 32 e 0.0625 0.0625 0.0625 1. 0 
Na1 Na1+ 48 f 0.225 0 0 1. 0 
O2 O2- 96 g 0.375 0.352 0.473 1. 0 

#End of data_158962-ICSD


