data_415325-ICSD
#?2014 by Fachinformationszentrum Karlsruhe, and the U.S. Secretary of 
#Commerce on behalf of the United States.  All rights reserved.
_database_code_ICSD                415325
_audit_creation_date               2007/08/01
_chemical_name_systematic          'Dilithium Tetraborate'
_chemical_formula_structural       'Li2 (B4 O7)'
_chemical_formula_sum              'B4 Li2 O7'
_publ_section_title
;
Li2 B4 O7 crystal structure in anharmonic approximation at 20, 200, 
400 and 500 C
;
loop_
_citation_id
_citation_journal_abbrev
_citation_year
_citation_journal_volume
_citation_page_first
_citation_page_last
_citation_journal_id_ASTM
primary 'Journal of Alloys and Compounds' 2007 428 290 296 JALCEU
_publ_author_name
;
Sennova, N.;Bubnova, R.;Shepelev, Yu.;Filatov, S.;Yakovleva, O.
;
_cell_length_a                     9.475(3)
_cell_length_b                     9.475(3)
_cell_length_c                     10.283(6)
_cell_angle_alpha                  90.00
_cell_angle_beta                   90.00
_cell_angle_gamma                  90.00
_cell_volume                       923.16
_cell_formula_units_Z              8
_symmetry_space_group_name_H-M     'I 41 c d'
_symmetry_Int_Tables_number        110
_refine_ls_R_factor_all            .02
loop_
_symmetry_equiv_pos_site_id
_symmetry_equiv_pos_as_xyz
  1	'-y, -x+.5, z+.75'
  2	'-y, x+.5, z+.25'
  3	'x, -y, z+.5'
  4	'-x, -y, z'
  5	'y, x+.5, z+.75'
  6	'y, -x+.5, z+.25'
  7	'-x, y, z+.5'
  8	'x, y, z'
  9	'-y+.5, -x, z+.25'
 10	'-y+.5, x, z+.75'
 11	'x+.5, -y+.5, z'
 12	'-x+.5, -y+.5, z+.5'
 13	'y+.5, x, z+.25'
 14	'y+.5, -x, z+.75'
 15	'-x+.5, y+.5, z'
 16	'x+.5, y+.5, z+.5'
loop_
_atom_type_symbol
_atom_type_oxidation_number
B3+	3
Li1+	1
O2-	-2
loop_
_atom_site_label
_atom_site_type_symbol
_atom_site_symmetry_multiplicity
_atom_site_Wyckoff_symbol
_atom_site_fract_x
_atom_site_fract_y
_atom_site_fract_z
_atom_site_occupancy
_atom_site_attached_hydrogens
_atom_site_B_iso_or_equiv
Li1 Li1+ 16 b .3517(2) .3353(2) .35190(0) 1. 0 2.06(2) 
B1 B3+ 16 b .08616(4) .33181(4) .4506(2) 1. 0 .545(4) 
B2 B3+ 16 b .05365(4) .11257(4) .5821(2) 1. 0 .549(5) 
O1 O2- 16 b .13721(3) .21830(3) .5151(2) 1. 0 .688(3) 
O2 O2- 16 b .17757(3) .43280(3) .4059(2) 1. 0 .711(3) 
O3 O2- 16 b -.05684(3) .34375(3) .4309(2) 1. 0 .652(3) 
O4 O2- 8 a .0(0) .0(0) .4998(2) 1. 0 .634(4) 

#End of data_415325-ICSD


