data_160100-ICSD
#?2014 by Fachinformationszentrum Karlsruhe, and the U.S. Secretary of 
#Commerce on behalf of the United States.  All rights reserved.
_database_code_ICSD                160100
_audit_creation_date               2008/08/01
_audit_update_record               2011/02/01
_chemical_name_systematic
;
Trithallium Trisilver Bis(trithioantimonate)
;
_chemical_formula_structural       'Tl3 Ag3 (Sb S3)2'
_chemical_formula_sum              'Ag3 S6 Sb2 Tl3'
_publ_section_title
;
Two new examples of very short thallium - transition metal contacts: 
Tl3 Ag3 As2 S6
;
loop_
_citation_id
_citation_journal_abbrev
_citation_year
_citation_journal_volume
_citation_page_first
_citation_page_last
_citation_journal_id_ASTM
primary 'Journal of Alloys and Compounds' 2008 457 66 74 JALCEU
_publ_author_name
;
Karanovic, Lj.;Poleti, D.;Balic Zunic, T.;Makovicky, E.;Grzetic, I.
;
_cell_length_a                     11.6854(17)
_cell_length_b                     11.8602(17)
_cell_length_c                     12.1294(18)
_cell_angle_alpha                  90
_cell_angle_beta                   123.356(2)
_cell_angle_gamma                  90
_cell_volume                       1404.11
_cell_formula_units_Z              4
_symmetry_space_group_name_H-M     'P 1 21/c 1'
_symmetry_Int_Tables_number        14
_refine_ls_R_factor_all            .05
loop_
_symmetry_equiv_pos_site_id
_symmetry_equiv_pos_as_xyz
  1	'x, -y+.5, z+.5'
  2	'-x, -y, -z'
  3	'-x, y+.5, -z+.5'
  4	'x, y, z'
loop_
_atom_type_symbol
_atom_type_oxidation_number
Ag1+	1
S2-	-2
Sb3+	3
Tl1+	1
loop_
_atom_site_label
_atom_site_type_symbol
_atom_site_symmetry_multiplicity
_atom_site_Wyckoff_symbol
_atom_site_fract_x
_atom_site_fract_y
_atom_site_fract_z
_atom_site_occupancy
_atom_site_attached_hydrogens
_atom_site_U_iso_or_equiv
Tl1 Tl1+ 4 e 0.2146(1) 0.88373(7) 0.10108(8) 1. 0 0.0389(3) 
Tl2 Tl1+ 4 e -0.1981(1) 0.01213(7) 0.27209(8) 1. 0 0.0374(3) 
Tl3 Tl1+ 4 e 0.8431(1) 0.75889(7) 0.57430(9) 1. 0 0.0426(3) 
Ag1 Ag1+ 4 e 0.4749(2) 0.8755(2) 0.4229(2) 1. 0 0.0428(5) 
Ag2 Ag1+ 4 e 0.4753(2) 0.8657(2) 0.0479(2) 1. 0 0.0470(5) 
Ag3 Ag1+ 4 e 0.1084(2) 0.1567(1) 0.1737(2) 1. 0 0.0481(5) 
Sb1 Sb3+ 4 e 0.1689(1) 0.9155(1) 0.4086(1) 1. 0 0.0255(3) 
Sb2 Sb3+ 4 e 0.4988(1) 0.6479(1) 0.2462(1) 1. 0 0.0251(3) 
S1 S2- 4 e 0.5869(6) 0.8394(4) 0.2969(5) 1. 0 0.029(1) 
S2 S2- 4 e 0.6317(6) 0.5762(4) 0.4708(5) 1. 0 0.030(1) 
S3 S2- 4 e 0.2647(6) 0.7520(4) 0.3684(5) 1. 0 0.033(1) 
S4 S2- 4 e 0.0023(6) 0.9673(4) 0.1807(5) 1. 0 0.032(1) 
S5 S2- 4 e 0.0068(6) 0.8278(4) 0.4533(5) 1. 0 0.030(1) 
S6 S2- 4 e 0.6441(5) 0.5834(4) 0.1719(5) 1. 0 0.027(1) 

loop_
_atom_site_aniso_label
_atom_site_aniso_type_symbol
_atom_site_aniso_U_11
_atom_site_aniso_U_22
_atom_site_aniso_U_33
_atom_site_aniso_U_12
_atom_site_aniso_U_13
_atom_site_aniso_U_23
Tl1 Tl1+ 0.0388(6) 0.0374(5) 0.0385(5) -0.0029(4) 0.0200(4) -0.0047(4)
Tl2 Tl1+ 0.0352(5) 0.0383(5) 0.0377(5) 0.0047(4) 0.0195(4) 0.0006(4)
Tl3 Tl1+ 0.0526(7) 0.0399(5) 0.0424(5) -0.0082(4) 0.0307(5) -0.0070(4)
Ag1 Ag1+ 0.044(1) 0.046(1) 0.045(1) -0.0037(9) 0.0288(9) -0.0069(8)
Ag2 Ag1+ 0.060(1) 0.044(1) 0.038(1) -0.0060(9) 0.028(1) 0.0022(7)
Ag3 Ag1+ 0.060(1) 0.039(1) 0.045(1) 0.0139(9) 0.028(1) 0.0083(8)
Sb1 Sb3+ 0.0269(8) 0.0207(6) 0.0281(7) -0.0008(6) 0.0146(6) -0.0001(5)
Sb2 Sb3+ 0.0217(8) 0.0253(7) 0.0268(7) -0.0010(6) 0.0124(6) 0.0002(5)
S1 S2- 0.038(3) 0.025(2) 0.028(3) 0.003(2) 0.022(3) 0.001(2)
S2 S2- 0.034(3) 0.026(2) 0.027(3) 0.004(2) 0.015(2) 0.001(2)
S3 S2- 0.034(3) 0.026(3) 0.037(3) 0.004(2) 0.019(3) 0.001(2)
S4 S2- 0.024(3) 0.033(3) 0.035(3) -0.002(2) 0.013(3) 0.007(2)
S5 S2- 0.031(3) 0.024(3) 0.041(3) 0.000(2) 0.024(3) -0.001(2)
S6 S2- 0.027(3) 0.025(2) 0.030(3) -0.001(2) 0.015(2) -0.004(2)
#End of data_160100-ICSD


