data_94655-ICSD
#?2014 by Fachinformationszentrum Karlsruhe, and the U.S. Secretary of 
#Commerce on behalf of the United States.  All rights reserved.
_database_code_ICSD                94655
_audit_creation_date               2003/10/01
_chemical_name_systematic
;
Dicalcium Trialuminium Silicate Disilicate Oxide Hydroxide
;
_chemical_formula_structural       'Ca2 Al3 (Si O4) (Si2 O7) O (O H)'
_chemical_formula_sum              'H1 Al3 Ca2 O13 Si3'
_chemical_name_mineral             'Zoisite I'
_publ_section_title
;
The substitution Fe(3+) - Al and the isosymmetric displacive phase 
transition in synthetic zoisite: a powder X-ray and infrared 
spectroscopy study
;
loop_
_citation_id
_citation_journal_abbrev
_citation_year
_citation_journal_volume
_citation_page_first
_citation_page_last
_citation_journal_id_ASTM
primary 'American Mineralogist' 2002 87 909 921 AMMIAY
_publ_author_name
;
Liebscher, A.;Gottschalk, M.;Franz, G.
;
_cell_length_a                     16.1913(4)
_cell_length_b                     5.5488(1)
_cell_length_c                     10.0320(4)
_cell_angle_alpha                  90
_cell_angle_beta                   90
_cell_angle_gamma                  90
_cell_volume                       901.3
_cell_formula_units_Z              4
_symmetry_space_group_name_H-M     'P n m a'
_symmetry_Int_Tables_number        62
loop_
_symmetry_equiv_pos_site_id
_symmetry_equiv_pos_as_xyz
  1	'x+.5, y, -z+.5'
  2	'x, -y+.5, z'
  3	'-x+.5, y+.5, z+.5'
  4	'-x, -y, -z'
  5	'-x+.5, -y, z+.5'
  6	'-x, y+.5, -z'
  7	'x+.5, -y+.5, -z+.5'
  8	'x, y, z'
loop_
_atom_type_symbol
_atom_type_oxidation_number
Al3+	3
Ca2+	2
H1+	1
O2-	-2
Si4+	4
loop_
_atom_site_label
_atom_site_type_symbol
_atom_site_symmetry_multiplicity
_atom_site_Wyckoff_symbol
_atom_site_fract_x
_atom_site_fract_y
_atom_site_fract_z
_atom_site_occupancy
_atom_site_attached_hydrogens
Ca1 Ca2+ 4 c 0.3666(4) 0.250 0.4376(6) 1. 0 
Ca2 Ca2+ 4 c 0.4521(4) 0.250 0.1130(6) 1. 0 
Al1 Al3+ 8 d 0.2498(5) 0.9972(11) 0.1905(5) 1. 0 
Al2 Al3+ 4 c 0.1057(6) 0.750 0.3013(8) 1. 0 
Si1 Si4+ 4 c 0.0817(5) 0.250 0.1054(8) 1. 0 
Si2 Si4+ 4 c 0.4101(5) 0.750 0.2816(8) 1. 0 
Si3 Si4+ 4 c 0.1605(5) 0.250 0.4349(9) 1. 0 
O1 O2- 8 d 0.1303(7) -0.004(2) 0.1434(10) 1. 0 
O2 O2- 8 d 0.1018(6) 0.0112(19) 0.4288(11) 1. 0 
O3 O2- 8 d 0.3601(7) 0.992(2) 0.2439(11) 1. 0 
O4 O2- 4 c 0.2212(10) 0.750 0.3016(15) 1. 0 
O5 O2- 4 c 0.2265(11) 0.250 0.3115(15) 1. 0 
O6 O2- 4 c 0.2724(10) 0.750 0.0600(16) 1. 0 
O7 O2- 4 c 0.9892(10) 0.250 0.1636(16) 1. 0 
O8 O2- 4 c 0.9985(12) 0.750 0.2965(16) 1. 0 
O9 O2- 4 c 0.4190(10) 0.750 0.4425(19) 1. 0 
O10 O2- 4 c 0.2676(11) 0.250 0.0741(14) 1. 0 
H1 H1+ 4 c 0.26 0.25 0.95 1. 0 

#End of data_94655-ICSD


