data_85404-ICSD
#?2014 by Fachinformationszentrum Karlsruhe, and the U.S. Secretary of 
#Commerce on behalf of the United States.  All rights reserved.
_database_code_ICSD                85404
_audit_creation_date               1999/06/02
_chemical_name_systematic          'Hexapotassium Cuprodisilicate'
_chemical_formula_structural       'K6 (Cu Si2 O8)'
_chemical_formula_sum              'Cu1 K6 O8 Si2'
_publ_section_title
;
Synthese, Kristallstrukturen und Absorptionsspektren der neuen 
"Cuprosilicate": K6 (Cu Si2 O8) und Rb4 (Cu Si2 O7)
;
loop_
_citation_id
_citation_journal_abbrev
_citation_year
_citation_journal_volume
_citation_page_first
_citation_page_last
_citation_journal_id_ASTM
primary 'Zeitschrift fuer Anorganische und Allgemeine Chemie (1950) (DE)'
 1997 623 1685 1692 ZAACAB
_publ_author_name                  'Moeller, A.'
_cell_length_a                     6.194(2)
_cell_length_b                     6.655(2)
_cell_length_c                     7.530(2)
_cell_angle_alpha                  83.66(3)
_cell_angle_beta                   87.71(3)
_cell_angle_gamma                  70.19(3)
_cell_volume                       290.24
_cell_formula_units_Z              1
_symmetry_space_group_name_H-M     'P -1'
_symmetry_Int_Tables_number        2
_refine_ls_R_factor_all            .059
loop_
_symmetry_equiv_pos_site_id
_symmetry_equiv_pos_as_xyz
  1	'-x, -y, -z'
  2	'x, y, z'
loop_
_atom_type_symbol
_atom_type_oxidation_number
Cu2+	2
K1+	1
O2-	-2
Si4+	4
loop_
_atom_site_label
_atom_site_type_symbol
_atom_site_symmetry_multiplicity
_atom_site_Wyckoff_symbol
_atom_site_fract_x
_atom_site_fract_y
_atom_site_fract_z
_atom_site_occupancy
_atom_site_attached_hydrogens
K1 K1+ 2 i 0.3456(2) 0.1724(2) 0.8333(2) 1. 0 
K2 K1+ 2 i 0.1997(2) 0.6962(2) 0.0240(2) 1. 0 
K3 K1+ 2 i 0.2745(2) 0.8141(2) 0.5593(2) 1. 0 
Cu1 Cu2+ 1 g 0 0.5 0.5 1. 0 
Si1 Si4+ 2 i 0.2183(3) 0.2413(2) 0.2687(2) 1. 0 
O1 O2- 2 i 0.1666(7) 0.0328(6) 0.2151(5) 1. 0 
O2 O2- 2 i 0.4354(7) 0.2750(6) 0.1586(5) 1. 0 
O3 O2- 2 i 0.2552(7) 0.2313(6) 0.4874(5) 1. 0 
O4 O2- 2 i 0.0160(7) 0.5414(6) 0.7521(5) 1. 0 

loop_
_atom_site_aniso_label
_atom_site_aniso_type_symbol
_atom_site_aniso_U_11
_atom_site_aniso_U_22
_atom_site_aniso_U_33
_atom_site_aniso_U_12
_atom_site_aniso_U_13
_atom_site_aniso_U_23
K1 K1+ 0.0224(7) 0.0175(6) 0.0117(7) 0.0093(5) -.0044(5) -.0044(4)
K2 K1+ 0.0139(6) 0.0139(6) 0.0167(7) -.0046(5) 0.0008(5) -.0010(4)
K3 K1+ 0.0174(7) 0.0186(7) 0.0203(7) -.0079(5) -.0038(5) 0.0028(5)
Cu1 Cu2+ 0.0069(5) 0.0061(4) 0.0065(5) 0.0028(4) 0.0004(3) -.0029(3)
Si1 Si4+ 0.0062(7) 0.0069(7) 0.0061(7) 0.0017(5) 0.0002(5) -.0009(5)
O1 O2- 0.0202(23) 0.0111(19) 0.0157(22) -.0034(17) -.0014(17) -.0037(15)
O2 O2- 0.0102(20) 0.016(2) 0.0122(21) -.0014(16) 0.0026(15) -.0006(15)
O3 O2- 0.0141(21) 0.0129(19) 0.0052(20) 0.0027(16) -.0012(15) -.0006(14)
O4 O2- 0.0121(21) 0.0083(18) 0.0086(20) 0.0052(15) -.0047(15) -.0018(14)
#End of data_85404-ICSD


