data_169660-ICSD
#?2014 by Fachinformationszentrum Karlsruhe, and the U.S. Secretary of 
#Commerce on behalf of the United States.  All rights reserved.
_database_code_ICSD                169660
_audit_creation_date               2011/08/01
_chemical_name_systematic          'Magnesium Titanate'
_chemical_formula_structural       'Mg (Ti O3)'
_chemical_formula_sum              'Mg1 O3 Ti1'
_chemical_name_mineral             Geikielite
_publ_section_title
;
Temperature dependence of rutile (Ti O2) and geikielite (Mg Ti O3) 
structures determined using neutron powder diffraction
;
loop_
_citation_id
_citation_journal_abbrev
_citation_year
_citation_journal_volume
_citation_page_first
_citation_page_last
_citation_journal_id_ASTM
primary 'The open mineralogy journal' 2009 3 1 11 OMJPBP
_publ_author_name
;
Henderson, C.M.B.;Knight, K.S.;Lennie, A.R.
;
_cell_length_a                     5.1208(7)
_cell_length_b                     5.1208(7)
_cell_length_c                     14.129(4)
_cell_angle_alpha                  90.
_cell_angle_beta                   90.
_cell_angle_gamma                  120.
_cell_volume                       320.86
_cell_formula_units_Z              6
_symmetry_space_group_name_H-M     'R -3 H'
_symmetry_Int_Tables_number        148
loop_
_symmetry_equiv_pos_site_id
_symmetry_equiv_pos_as_xyz
  1	'x-y, x, -z'
  2	'y, -x+y, -z'
  3	'-x, -y, -z'
  4	'-x+y, -x, z'
  5	'-y, x-y, z'
  6	'x, y, z'
  7	'x-y+.6666, x+.3333, -z+.3333'
  8	'x-y+.3333, x+.6666, -z+.6666'
  9	'y+.6666, -x+y+.3333, -z+.3333'
 10	'y+.3333, -x+y+.6666, -z+.6666'
 11	'-x+.6666, -y+.3333, -z+.3333'
 12	'-x+.3333, -y+.6666, -z+.6666'
 13	'-x+y+.6666, -x+.3333, z+.3333'
 14	'-x+y+.3333, -x+.6666, z+.6666'
 15	'-y+.6666, x-y+.3333, z+.3333'
 16	'-y+.3333, x-y+.6666, z+.6666'
 17	'x+.6666, y+.3333, z+.3333'
 18	'x+.3333, y+.6666, z+.6666'
loop_
_atom_type_symbol
_atom_type_oxidation_number
Mg2+	2
O2-	-2
Ti4+	4
loop_
_atom_site_label
_atom_site_type_symbol
_atom_site_symmetry_multiplicity
_atom_site_Wyckoff_symbol
_atom_site_fract_x
_atom_site_fract_y
_atom_site_fract_z
_atom_site_occupancy
_atom_site_attached_hydrogens
Mg1 Mg2+ 6 c 0 0 0.3450(60) 1. 0 
Ti1 Ti4+ 6 c 0 0 0.1415(34) 1. 0 
O1 O2- 18 f 0.3140(40) 0.0280(40) 0.2445(14) 1. 0 

#End of data_169660-ICSD


