data_172722-ICSD
#?2014 by Fachinformationszentrum Karlsruhe, and the U.S. Secretary of 
#Commerce on behalf of the United States.  All rights reserved.
_database_code_ICSD                172722
_audit_creation_date               2007/04/01
_chemical_name_systematic          'Dialuminium Silicate'
_chemical_formula_structural       'Al2 Si O5'
_chemical_formula_sum              'Al2 O5 Si1'
_chemical_name_mineral             Sillimanite
_publ_section_title
;
Equations of state and structures of andalusite to 9.8 GPa and 
sillimanite to 8.5 GPa
;
loop_
_citation_id
_citation_journal_abbrev
_citation_year
_citation_journal_volume
_citation_journal_issue
_citation_page_first
_citation_page_last
_citation_journal_id_ASTM
primary 'American Mineralogist' 2006 91 2-3 319 326 AMMIAY
_publ_author_name
;
Burt, J.B.;Ross, N.L.;Angel, R.J.;Koch, M.
;
_cell_length_a                     7.42183(13)
_cell_length_b                     7.5868(3)
_cell_length_c                     5.74298(11)
_cell_angle_alpha                  90
_cell_angle_beta                   90
_cell_angle_gamma                  90
_cell_volume                       323.38
_cell_formula_units_Z              4
_symmetry_space_group_name_H-M     'P b n m'
_symmetry_Int_Tables_number        62
_refine_ls_R_factor_all            .039
loop_
_symmetry_equiv_pos_site_id
_symmetry_equiv_pos_as_xyz
  1	'-x+.5, y+.5, z'
  2	'x, y, -z+.5'
  3	'x+.5, -y+.5, z+.5'
  4	'-x, -y, -z'
  5	'x+.5, -y+.5, -z'
  6	'-x, -y, z+.5'
  7	'-x+.5, y+.5, -z+.5'
  8	'x, y, z'
loop_
_atom_type_symbol
_atom_type_oxidation_number
Al3+	3
O2-	-2
Si4+	4
loop_
_atom_site_label
_atom_site_type_symbol
_atom_site_symmetry_multiplicity
_atom_site_Wyckoff_symbol
_atom_site_fract_x
_atom_site_fract_y
_atom_site_fract_z
_atom_site_occupancy
_atom_site_attached_hydrogens
_atom_site_U_iso_or_equiv
Al1 Al3+ 4 a 0.0 0.0 0.0 1. 0 0.00519 
Al2 Al3+ 4 c 0.1411(17) 0.3410(7) 0.25 1. 0 0.00595 
Si1 Si4+ 4 c 0.15455(16) 0.3377(7) 0.75 1. 0 0.00557 
O1 O2- 4 c 0.3629(4) 0.4080(15) 0.75 1. 0 0.00519 
O2 O2- 4 c 0.3556(4) 0.4364(16) 0.25 1. 0 0.00608 
O3 O2- 4 c 0.4747(4) 0.0051(15) 0.75 1. 0 0.01229 
O4 O2- 8 d 0.1267(3) 0.2194(12) 0.5154(3) 1. 0 0.00747 

#End of data_172722-ICSD


