data_236364-ICSD
#?2014 by Fachinformationszentrum Karlsruhe, and the U.S. Secretary of 
#Commerce on behalf of the United States.  All rights reserved.
_database_code_ICSD                236364
_audit_creation_date               2014/02/01
_chemical_name_systematic          'Sodium Alumodisilicate'
_chemical_formula_structural       'Na (Al Si2 O6)'
_chemical_formula_sum              'Al1 Na1 O6 Si2'
_chemical_name_mineral             'Analcime (dehydrated)'
_publ_section_title
;
The deformation mechanism of a pressure-induced phase transition in 
dehydrated analcime
;
loop_
_citation_id
_citation_journal_abbrev
_citation_year
_citation_journal_volume
_citation_journal_issue
_citation_page_first
_citation_page_last
_citation_journal_id_ASTM
primary 'Mineralogical Magazine (1969-)' 2012 76 1 129 142 MNLMBB
_publ_author_name
;
Likhacheva, A.Yu.;Rashchenko, S.V.;Seryotkin, Yu.V.
;
_cell_length_a                     13.7249(20)
_cell_length_b                     13.5270(14)
_cell_length_c                     13.6938(17)
_cell_angle_alpha                  90
_cell_angle_beta                   90.18(4)
_cell_angle_gamma                  90
_cell_volume                       2542.33
_cell_formula_units_Z              16
_symmetry_space_group_name_H-M     'I 1 2/a 1'
_symmetry_Int_Tables_number        15
_refine_ls_R_factor_all            .011
loop_
_symmetry_equiv_pos_site_id
_symmetry_equiv_pos_as_xyz
  1	'x+.5, -y, z'
  2	'-x, -y, -z'
  3	'-x+.5, y, -z'
  4	'x, y, z'
  5	'x, -y+.5, z+.5'
  6	'-x+.5, -y+.5, -z+.5'
  7	'-x, y+.5, -z+.5'
  8	'x+.5, y+.5, z+.5'
loop_
_atom_type_symbol
_atom_type_oxidation_number
Al3+	3
Na1+	1
O2-	-2
Si4+	4
loop_
_atom_site_label
_atom_site_type_symbol
_atom_site_symmetry_multiplicity
_atom_site_Wyckoff_symbol
_atom_site_fract_x
_atom_site_fract_y
_atom_site_fract_z
_atom_site_occupancy
_atom_site_attached_hydrogens
Si1 Si4+ 8 f 0.1219(11) 0.1594(11) 0.4098(10) 1. 0 
Si2 Si4+ 8 f 0.8770(11) 0.3402(11) 0.4086(10) 1. 0 
Si3 Si4+ 8 f 0.4189(11) 0.1246(11) 0.1677(11) 1. 0 
Si4 Si4+ 8 f 0.5816(11) 0.3759(11) 0.1685(11) 1. 0 
Al1 Al3+ 8 f 0.1598(5) 0.4093(6) 0.1289(6) 1. 0 
Al2 Al3+ 8 f 0.8410(5) 0.0905(6) 0.1277(6) 1. 0 
O1 O2- 8 f 0.0982(5) 0.3527(6) 0.2165(4) 1. 0 
O2 O2- 8 f 0.9033(5) 0.1466(6) 0.2151(4) 1. 0 
O3 O2- 8 f 0.3865(6) 0.1362(6) 0.47170(33) 1. 0 
O4 O2- 8 f 0.6132(6) 0.3632(6) 0.47316(33) 1. 0 
O5 O2- 8 f 0.22360(32) 0.1138(6) 0.3617(7) 1. 0 
O6 O2- 8 f 0.77564(32) 0.3868(6) 0.3610(7) 1. 0 
O7 O2- 8 f 0.1461(5) 0.47037(34) 0.3647(7) 1. 0 
O8 O2- 8 f 0.8523(5) 0.02977(34) 0.3620(7) 1. 0 
O9 O2- 8 f 0.3882(7) 0.2187(4) 0.1018(5) 1. 0 
O10 O2- 8 f 0.6140(7) 0.2812(4) 0.1040(5) 1. 0 
O11 O2- 8 f 0.4661(4) 0.3992(6) 0.1524(6) 1. 0 
O12 O2- 8 f 0.5346(4) 0.1016(6) 0.1537(6) 1. 0 
Na1 Na1+ 8 f 0.1533(30) 0.9820(35) 0.2791(23) 1. 0 
Na2 Na1+ 8 f 0.006(6) 0.259(5) 0.1040(23) 1. 0 

#End of data_236364-ICSD


