data_401331-ICSD
#?2014 by Fachinformationszentrum Karlsruhe, and the U.S. Secretary of 
#Commerce on behalf of the United States.  All rights reserved.
_database_code_ICSD                401331
_audit_creation_date               1995/10/17
_audit_update_record               2013/02/01
_chemical_name_systematic
;
Dicalcium Strontuim Tetranitridotungstate
;
_chemical_formula_structural       'Ca2 Sr (W N4)'
_chemical_formula_sum              'Ca2 N4 Sr1 W1'
_publ_section_title
;
Ca2 Sr (W N4), das erste gemischte Erdalkalimetall-nitridowolframat
;
loop_
_citation_id
_citation_journal_abbrev
_citation_year
_citation_journal_volume
_citation_page_first
_citation_page_last
_citation_journal_id_ASTM
primary 'Zeitschrift fuer Naturforschung, B: Chemical Sciences'
 1995 50 213 216 ZNBSEN
_publ_author_name
;
Berger, U.;Schultz-Coulon, V.;Schnick, W.
;
_cell_length_a                     10.177(2)
_cell_length_b                     9.344(2)
_cell_length_c                     11.318(2)
_cell_angle_alpha                  90.
_cell_angle_beta                   90.
_cell_angle_gamma                  90.
_cell_volume                       1076.27
_cell_formula_units_Z              8
_symmetry_space_group_name_H-M     'P b c a'
_symmetry_Int_Tables_number        61
_refine_ls_R_factor_all            .0687
loop_
_symmetry_equiv_pos_site_id
_symmetry_equiv_pos_as_xyz
  1	'x+.5, y, -z+.5'
  2	'x, -y+.5, z+.5'
  3	'-x+.5, y+.5, z'
  4	'-x, -y, -z'
  5	'-x+.5, -y, z+.5'
  6	'-x, y+.5, -z+.5'
  7	'x+.5, -y+.5, -z'
  8	'x, y, z'
loop_
_atom_type_symbol
_atom_type_oxidation_number
Ca2+	2
N3-	-3
Sr2+	2
W6+	6
loop_
_atom_site_label
_atom_site_type_symbol
_atom_site_symmetry_multiplicity
_atom_site_Wyckoff_symbol
_atom_site_fract_x
_atom_site_fract_y
_atom_site_fract_z
_atom_site_occupancy
_atom_site_attached_hydrogens
W1 W6+ 8 c -.1015(1) -.1921(1) -.1125(1) 1. 0 
Sr1 Sr2+ 8 c 0.2774(2) 0.1871(3) 0.3828(2) 1. 0 
Ca1 Ca2+ 8 c 0.0303(3) -.1329(3) 0.1444(3) 1. 0 
Ca2 Ca2+ 8 c 0.3778(3) 0.0275(4) 0.1015(4) 1. 0 
N1 N3- 8 c 0.4979(17) 0.1093(17) 0.2703(16) 1. 0 
N2 N3- 8 c 0.5080(16) -.1799(18) 0.0310(17) 1. 0 
N3 N3- 8 c 0.2589(15) -.2074(25) 0.1770(17) 1. 0 
N4 N3- 8 c 0.1642(17) 0.0516(20) 0.0055(17) 1. 0 

loop_
_atom_site_aniso_label
_atom_site_aniso_type_symbol
_atom_site_aniso_U_11
_atom_site_aniso_U_22
_atom_site_aniso_U_33
_atom_site_aniso_U_12
_atom_site_aniso_U_13
_atom_site_aniso_U_23
W1 W6+ 0.02761 0.02626 0.02286 0.00203 0.00021 -.00035
Sr1 Sr2+ 0.0020 0.00242 0.0020 0.00207 0.00151 0.00207
Ca1 Ca2+ 0.07669 0.07627 0.05958 -.00276 0.00257 -.00111
Ca2 Ca2+ 0.07864 0.1132 0.1047 -.01351 0.01121 -.00413
N1 N3- 0.06841 0.01624 0.03036 0.01221 -.00795 0.00053
N2 N3- 0.03449 0.3044 0.2559 -.02501 -.08531 0.09844
N3 N3- 0.01004 0.1193 0.04341 -.03296 0.0013 0.00785
N4 N3- 0.02458 0.05904 0.02228 0.00784 0.01449 0.02548
#End of data_401331-ICSD


