data_75596-ICSD
#?2014 by Fachinformationszentrum Karlsruhe, and the U.S. Secretary of 
#Commerce on behalf of the United States.  All rights reserved.
_database_code_ICSD                75596
_audit_creation_date               1996/04/22
_audit_update_record               2007/08/01
_chemical_name_systematic          'Dilanthanum Irido(IV)zincate'
_chemical_formula_structural       'La2 (Ir Zn O6)'
_chemical_formula_sum              'Ir1 La2 O6 Zn1'
_chemical_name_mineral
;
Perovskite (La-,Zn-,Ir-substituted)
;
_publ_section_title
;
Structural characterization and semiconducting properties of new 
iridium(IV) perovskites
;
loop_
_citation_id
_citation_journal_abbrev
_citation_year
_citation_journal_volume
_citation_journal_issue
_citation_page_first
_citation_page_last
_citation_journal_id_ASTM
primary 'Materials Research Bulletin' 1994 29 8 881 888 MRBUAC
_publ_author_name
;
Ramos, E.M.;Alvarez, I.;Veiga, M.L.;Pico, C.
;
_cell_length_a                     5.595(3)
_cell_length_b                     5.683(2)
_cell_length_c                     7.937(1)
_cell_angle_alpha                  90.
_cell_angle_beta                   90.01(1)
_cell_angle_gamma                  90.
_cell_volume                       252.37
_cell_formula_units_Z              2
_symmetry_space_group_name_H-M     'P 1 21/n 1'
_symmetry_Int_Tables_number        14
_refine_ls_R_factor_all            .141
loop_
_symmetry_equiv_pos_site_id
_symmetry_equiv_pos_as_xyz
  1	'-x+.5, y+.5, -z+.5'
  2	'-x, -y, -z'
  3	'x+.5, -y+.5, z+.5'
  4	'x, y, z'
loop_
_atom_type_symbol
_atom_type_oxidation_number
Ir4+	4
La3+	3
O2-	-2
Zn2+	2
loop_
_atom_site_label
_atom_site_type_symbol
_atom_site_symmetry_multiplicity
_atom_site_Wyckoff_symbol
_atom_site_fract_x
_atom_site_fract_y
_atom_site_fract_z
_atom_site_occupancy
_atom_site_attached_hydrogens
La1 La3+ 4 e 0.508(8) 0.548 0.248 1. 0 
Zn1 Zn2+ 2 d 0.5 0 0 1. 0 
Ir1 Ir4+ 2 c 0 0.5 0 1. 0 
O1 O2- 4 e 0.223(3) 0.217(3) -.051(3) 1. 0 
O2 O2- 4 e 0.305(4) 0.706(5) -.026(6) 1. 0 
O3 O2- 4 e 0.382(5) 0.980(3) 0.240(4) 1. 0 

#End of data_75596-ICSD


