data_73220-ICSD
#?2014 by Fachinformationszentrum Karlsruhe, and the U.S. Secretary of 
#Commerce on behalf of the United States.  All rights reserved.
_database_code_ICSD                73220
_audit_creation_date               1994/06/30
_audit_update_record               2010/02/01
_chemical_name_systematic          'Aluminium Sulfide - Ht'
_chemical_formula_structural       'Al2 S3'
_chemical_formula_sum              'Al2 S3'
_publ_section_title
;
Synthese und Kristallstruktur einer neuen hexagonalen Modifikation 
von Al2 S3 mit fuenffach koordiniertem Aluminium
;
loop_
_citation_id
_citation_journal_abbrev
_citation_year
_citation_journal_volume
_citation_page_first
_citation_page_last
_citation_journal_id_ASTM
primary 'Zeitschrift fuer Anorganische und Allgemeine Chemie (1950) (DE)'
 1993 619 983 988 ZAACAB
2 'Golden Book of Phase Transitions, Wroclaw' 2002 1 1 123 GBOPT5
_publ_author_name                  'Krebs, B.;Schiemann, A.;Laege, M.'
_cell_length_a                     6.491(1)
_cell_length_b                     6.491(1)
_cell_length_c                     17.169(4)
_cell_angle_alpha                  90.
_cell_angle_beta                   90.
_cell_angle_gamma                  120.
_cell_volume                       626.47
_cell_formula_units_Z              6
_symmetry_space_group_name_H-M     'P 61'
_symmetry_Int_Tables_number        169
_refine_ls_R_factor_all            .025
loop_
_symmetry_equiv_pos_site_id
_symmetry_equiv_pos_as_xyz
  1	'x-y, x, z+.1667'
  2	'y, -x+y, z+.8333'
  3	'-x, -y, z+.5'
  4	'-x+y, -x, z+.6667'
  5	'-y, x-y, z+.3333'
  6	'x, y, z'
loop_
_atom_type_symbol
_atom_type_oxidation_number
Al3+	3
S2-	-2
loop_
_atom_site_label
_atom_site_type_symbol
_atom_site_symmetry_multiplicity
_atom_site_Wyckoff_symbol
_atom_site_fract_x
_atom_site_fract_y
_atom_site_fract_z
_atom_site_occupancy
_atom_site_attached_hydrogens
Al1 Al3+ 6 a 0.35184(19) 0.34028(19) 0.21615 1. 0 
Al2 Al3+ 6 a 0.69473(22) 0.69862(19) 0.35052(11) 1. 0 
S1 S2- 6 a 0.34166(16) 0.33875(15) 0.34800(9) 1. 0 
S2 S2- 6 a 0.04395(14) 0.35008(14) 0.16316(8) 1. 0 
S3 S2- 6 a 0.71123(15) 0.66452(15) 0.20619(9) 1. 0 

loop_
_atom_site_aniso_label
_atom_site_aniso_type_symbol
_atom_site_aniso_U_11
_atom_site_aniso_U_22
_atom_site_aniso_U_33
_atom_site_aniso_U_12
_atom_site_aniso_U_13
_atom_site_aniso_U_23
Al1 Al3+ 0.0095(5) 0.0097(5) 0.0123(6) 0.0051(4) -.0008(4) -.0011(4)
Al2 Al3+ 0.0095(5) 0.0095(5) 0.0137(5) 0.0044(4) -.0016(4) 0.0003(5)
S1 S2- 0.0090(4) 0.0109(4) 0.0090(4) 0.0044(3) 0.0004(4) -.0017(4)
S2 S2- 0.0089(4) 0.0107(4) 0.0109(4) 0.0043(3) -.0008(3) 0.0015(4)
S3 S2- 0.0100(4) 0.0091(4) 0.0132(5) 0.0047(4) 0.0008(4) 0.0010(4)
#End of data_73220-ICSD


