data_20173-ICSD
#?2014 by Fachinformationszentrum Karlsruhe, and the U.S. Secretary of 
#Commerce on behalf of the United States.  All rights reserved.
_database_code_ICSD                20173
_audit_creation_date               1980/01/01
_audit_update_record               1987/11/11
_chemical_name_systematic          'Lithium Borate Hydroxide'
_chemical_formula_structural       'Li3 (B5 O8 (O H)2)'
_chemical_formula_sum              'H2 B5 Li3 O10'
_publ_section_title
;
The crystal structure of the Li-borate Li3 (B5 O8 (O H)2)
;
loop_
_citation_id
_citation_journal_abbrev
_citation_year
_citation_journal_volume
_citation_page_first
_citation_page_last
_citation_journal_id_ASTM
primary 'Doklady Akademii Nauk SSSR' 1978 243 641 644 DANKAS
_publ_author_name
;
Bondareva, O.S.;Egorov Tismenko, Yu.K.;Simonov, M.A.;Belov, N.V.
;
_cell_length_a                     6.845(2)
_cell_length_b                     6.845(2)
_cell_length_c                     14.552(6)
_cell_angle_alpha                  90.
_cell_angle_beta                   90.
_cell_angle_gamma                  90.
_cell_volume                       681.82
_cell_formula_units_Z              4
_symmetry_space_group_name_H-M     'P 41 21 2'
_symmetry_Int_Tables_number        92
_refine_ls_R_factor_all            .046
loop_
_symmetry_equiv_pos_site_id
_symmetry_equiv_pos_as_xyz
  1	'x+.5, -y+.5, -z+.75'
  2	'-x+.5, y+.5, -z+.25'
  3	'-y, -x, -z+.5'
  4	'y, x, -z'
  5	'y+.5, -x+.5, z+.75'
  6	'-y+.5, x+.5, z+.25'
  7	'-x, -y, z+.5'
  8	'x, y, z'
loop_
_atom_type_symbol
_atom_type_oxidation_number
B3+	3
H1+	1
Li1+	1
O2-	-2
loop_
_atom_site_label
_atom_site_type_symbol
_atom_site_symmetry_multiplicity
_atom_site_Wyckoff_symbol
_atom_site_fract_x
_atom_site_fract_y
_atom_site_fract_z
_atom_site_occupancy
_atom_site_attached_hydrogens
_atom_site_B_iso_or_equiv
O1 O2- 8 b 0.1445(3) 0.0950(3) 0.2699(1) 1. 0 0 
O2 O2- 8 b 0.1923(3) 0.4505(3) 0.2709(1) 1. 0 0 
O3 O2- 8 b 0.4600(3) 0.2346(3) 0.2375(1) 1. 0 0 
O4 O2- 8 b 0.3242(3) 0.3732(3) 0.4177(1) 1. 0 0 
O5 O2- 8 b 0.1970(3) 0.2796(3) 0.1294(1) 1. 0 0 
B1 B3+ 8 b 0.2475(6) 0.2600(4) 0.2274(2) 1. 0 0 
B2 B3+ 8 b 0.0059(5) 0.2529(4) 0.1068(2) 1. 0 0 
B3 B3+ 4 a 0.5628 0.5628(4) 0 1. 0 0 
Li1 Li1+ 8 b 0.1370(8) 0.1496(8) 0.4067(3) 1. 0 0 
Li2 Li1+ 4 a 0.3034(10) 0.3034(8) 0 1. 0 0 
H1 H1+ 8 b 0.380(5) -.012(5) 0.484(2) 1. 0 2.5 

#End of data_20173-ICSD


