data_411044-ICSD
#?2014 by Fachinformationszentrum Karlsruhe, and the U.S. Secretary of 
#Commerce on behalf of the United States.  All rights reserved.
_database_code_ICSD                411044
_audit_creation_date               2002/04/01
_audit_update_record               2003/04/01
_chemical_name_systematic
;
Zinc Diiron(III) Dihydroxide Bis(arsenate(V))
;
_chemical_formula_structural       'Zn Fe2 (O H)2 (As O4)2'
_chemical_formula_sum              'H2 As2 Fe2 O10 Zn1'
_chemical_name_mineral             Wilhelmkleinite
_publ_section_title
;
The crystal structure of the new mineral wilhelmkleinite Zn (Fe3+)2 
(O H)2 (As O4)2
;
loop_
_citation_id
_citation_journal_abbrev
_citation_year
_citation_journal_volume
_citation_page_first
_citation_page_last
_citation_journal_id_ASTM
primary 'Zeitschrift fuer Kristallographie (1979-2010)' 2000 215 96 101 ZEKRDZ
_publ_author_name
;
Adiwidjaja, G.;Friese, K.;Klaska, K.H.;Moore, P.B.;Schlueter, J.
;
_cell_length_a                     6.631(1)
_cell_length_b                     7.611(1)
_cell_length_c                     7.377(1)
_cell_angle_alpha                  90.
_cell_angle_beta                   91.80(2)
_cell_angle_gamma                  90.
_cell_volume                       372.12
_cell_formula_units_Z              2
_symmetry_space_group_name_H-M     'P 1 21/n 1'
_symmetry_Int_Tables_number        14
_refine_ls_R_factor_all            .0136
loop_
_symmetry_equiv_pos_site_id
_symmetry_equiv_pos_as_xyz
  1	'-x+.5, y+.5, -z+.5'
  2	'-x, -y, -z'
  3	'x+.5, -y+.5, z+.5'
  4	'x, y, z'
loop_
_atom_type_symbol
_atom_type_oxidation_number
As5+	5
Fe3+	3
H1+	1
O2-	-2
Zn2+	2
loop_
_atom_site_label
_atom_site_type_symbol
_atom_site_symmetry_multiplicity
_atom_site_Wyckoff_symbol
_atom_site_fract_x
_atom_site_fract_y
_atom_site_fract_z
_atom_site_occupancy
_atom_site_attached_hydrogens
_atom_site_U_iso_or_equiv
Zn1 Zn2+ 2 b 0 0 0.5 1. 0 0 
Fe1 Fe3+ 4 e 0.22856(3) 0.36444(3) 0.26271(3) 1. 0 0 
As1 As5+ 4 e 0.24265(2) 0.623980(19) 0.633210(19) 1. 0 0 
O1 O2- 4 e 0.2220(2) 0.44359(16) 0.50673(16) 1. 0 0 
O2 O2- 4 e 0.06002(18) 0.63490(16) 0.78564(16) 1. 0 0 
O3 O2- 4 e 0.46181(17) 0.61580(16) 0.75421(15) 1. 0 0 
O4 O2- 4 e 0.23482(18) 0.80790(16) 0.50638(15) 1. 0 0 
O5 O2- 4 e 0.24552(18) 0.11675(15) 0.35613(15) 1. 0 0 
H1 H1+ 4 e 0.3361 0.1178 0.4218 1. 0 0.05 

loop_
_atom_site_aniso_label
_atom_site_aniso_type_symbol
_atom_site_aniso_U_11
_atom_site_aniso_U_22
_atom_site_aniso_U_33
_atom_site_aniso_U_12
_atom_site_aniso_U_13
_atom_site_aniso_U_23
Zn1 Zn2+ 0.01083(12) 0.01456(14) 0.00814(11) 0.00197(10) 0.00176(8) 
-0.00273(9)
Fe1 Fe3+ 0.00689(11) 0.00766(11) 0.00703(10) -0.00046(7) 0.00116(7) 
-0.00041(7)
As1 As5+ 0.00557(8) 0.00680(9) 0.00501(8) 0.00030(4) 0.00030(5) 0.00039(4)
O1 O2- 0.0186(6) 0.0096(5) 0.0088(5) -0.0002(4) 0.0006(4) -0.0033(4)
O2 O2- 0.0066(5) 0.0151(5) 0.0077(4) -0.0002(4) 0.0020(4) -0.0006(4)
O3 O2- 0.0053(5) 0.0176(6) 0.0081(5) -0.0001(4) -0.0013(4) 0.0033(4)
O4 O2- 0.0124(5) 0.0085(5) 0.0082(4) 0.0020(4) 0.0014(3) 0.0032(4)
O5 O2- 0.0102(5) 0.0079(5) 0.0080(5) -0.0009(4) -0.0008(4) 0.0000(3)
#End of data_411044-ICSD


