data_1040-ICSD
#?2014 by Fachinformationszentrum Karlsruhe, and the U.S. Secretary of 
#Commerce on behalf of the United States.  All rights reserved.
_database_code_ICSD                1040
_audit_creation_date               1980/01/01
_audit_update_record               2012/08/01
_chemical_name_systematic          'Lithium Tetrachloroaluminate'
_chemical_formula_structural       'Li (Al Cl4)'
_chemical_formula_sum              'Al1 Cl4 Li1'
_publ_section_title
;
Lithium tetrachloroaluminate, Li Al Cl4
;
loop_
_citation_id
_citation_journal_abbrev
_citation_year
_citation_journal_volume
_citation_page_first
_citation_page_last
_citation_journal_id_ASTM
primary 'Crystal Structure Communications' 1977 6 15 18 CSCMCS
_publ_author_name
;
Mairesse, G.;Barbier, P.;Vignacourt, J.P.
;
_cell_length_a                     7.007(3)
_cell_length_b                     6.504(4)
_cell_length_c                     12.995(10)
_cell_angle_alpha                  90.
_cell_angle_beta                   93.32(5)
_cell_angle_gamma                  90.
_cell_volume                       591.23
_cell_formula_units_Z              4
_symmetry_space_group_name_H-M     'P 1 21/c 1'
_symmetry_Int_Tables_number        14
_refine_ls_R_factor_all            .029
loop_
_symmetry_equiv_pos_site_id
_symmetry_equiv_pos_as_xyz
  1	'x, -y+.5, z+.5'
  2	'-x, -y, -z'
  3	'-x, y+.5, -z+.5'
  4	'x, y, z'
loop_
_atom_type_symbol
_atom_type_oxidation_number
Al3+	3
Cl1-	-1
Li1+	1
loop_
_atom_site_label
_atom_site_type_symbol
_atom_site_symmetry_multiplicity
_atom_site_Wyckoff_symbol
_atom_site_fract_x
_atom_site_fract_y
_atom_site_fract_z
_atom_site_occupancy
_atom_site_attached_hydrogens
Al1 Al3+ 4 e 0.70588(7) 0.32198(8) 0.89924(4) 1. 0 
Cl1 Cl1- 4 e 0.69400(6) 0.18329(8) 0.04695(3) 1. 0 
Cl2 Cl1- 4 e 0.80902(6) 0.62835(7) 0.92849(4) 1. 0 
Cl3 Cl1- 4 e 0.92580(6) 0.18160(8) 0.81372(3) 1. 0 
Cl4 Cl1- 4 e 0.43947(6) 0.31364(7) 0.81280(3) 1. 0 
Li1 Li1+ 4 e 0.15688(54) 0.98308(65) 0.36658(29) 1. 0 

#End of data_1040-ICSD


