data_245746-ICSD
#?2014 by Fachinformationszentrum Karlsruhe, and the U.S. Secretary of 
#Commerce on behalf of the United States.  All rights reserved.
_database_code_ICSD                245746
_audit_creation_date               2008/08/01
_chemical_name_systematic
;
Barium Dicalcium Dicarbonate Difluoride
;
_chemical_formula_structural       'Ba Ca2 (C O3)2 F2'
_chemical_formula_sum              'C2 Ba1 Ca2 F2 O6'
_chemical_name_mineral             Podlesnoite
_publ_section_title
;
The crystal structure of podlesnoite, Ba Ca2 (C O3)2 F2
;
loop_
_citation_id
_citation_journal_abbrev
_citation_year
_citation_journal_volume
_citation_journal_issue
_citation_page_first
_citation_page_last
_citation_journal_id_ASTM
primary 'Zeitschrift fuer Kristallographie - New Crystal Structures'
 2007 222 9 474 476 ZKNSFT
_publ_author_name
;
Zubkova, N.V.;Pushcharovsky, D.Yu.;Pekov, I.V.;Rabadanov, M.Kh.
;
_cell_length_a                     12.501(8)
_cell_length_b                     5.846(3)
_cell_length_c                     9.443(5)
_cell_angle_alpha                  90.
_cell_angle_beta                   90.
_cell_angle_gamma                  90.
_cell_volume                       690.1
_cell_formula_units_Z              4
_symmetry_space_group_name_H-M     'C m c m'
_symmetry_Int_Tables_number        63
_refine_ls_R_factor_all            .0642
loop_
_symmetry_equiv_pos_site_id
_symmetry_equiv_pos_as_xyz
  1	'-x, y, -z+.5'
  2	'-x, -y, z+.5'
  3	'-x, y, z'
  4	'-x, -y, -z'
  5	'x, -y, z+.5'
  6	'x, y, -z+.5'
  7	'x, -y, -z'
  8	'x, y, z'
  9	'-x+.5, y+.5, -z+.5'
 10	'-x+.5, -y+.5, z+.5'
 11	'-x+.5, y+.5, z'
 12	'-x+.5, -y+.5, -z'
 13	'x+.5, -y+.5, z+.5'
 14	'x+.5, y+.5, -z+.5'
 15	'x+.5, -y+.5, -z'
 16	'x+.5, y+.5, z'
loop_
_atom_type_symbol
_atom_type_oxidation_number
Ba2+	2
C4+	4
Ca2+	2
F1-	-1
O2-	-2
loop_
_atom_site_label
_atom_site_type_symbol
_atom_site_symmetry_multiplicity
_atom_site_Wyckoff_symbol
_atom_site_fract_x
_atom_site_fract_y
_atom_site_fract_z
_atom_site_occupancy
_atom_site_attached_hydrogens
_atom_site_U_iso_or_equiv
Ba1 Ba2+ 4 c 0 0.00127(7) 0.75 1. 0 0.01131(5) 
Ca1 Ca2+ 8 e 0.14634(4) 0.5 0.5 1. 0 0.00889(7) 
F1 F1- 8 f 0 0.2642(3) 0.5059(2) 1. 0 0.0145(3) 
O1 O2- 16 h 0.29746(16) 0.3403(3) 0.36728(13) 1. 0 0.0144(3) 
O2 O2- 8 g 0.14362(19) 0.3656(5) 0.25 1. 0 0.0148(4) 
C1 C4+ 8 g 0.2468(3) 0.3442(6) 0.25 1. 0 0.0105(4) 

#End of data_245746-ICSD


