data_34209-ICSD
#?2014 by Fachinformationszentrum Karlsruhe, and the U.S. Secretary of 
#Commerce on behalf of the United States.  All rights reserved.
_database_code_ICSD                34209
_audit_creation_date               1980/01/01
_audit_update_record               2012/08/01
_chemical_name_systematic
;
Dicalcium Dialuminium Iron(III) Silicate Disilicate Oxide Hydroxide
;
_chemical_formula_structural
;
Ca2 (Al2 Fe) (Si2 O7) (Si O4) O (O H)
;
_chemical_formula_sum              'H1 Al2 Ca2 Fe1 O13 Si3'
_chemical_name_mineral             Epidote
_publ_section_title
;
A neutron-diffraction study of the structure of epidote
;
loop_
_citation_id
_citation_journal_abbrev
_citation_year
_citation_journal_volume
_citation_page_first
_citation_page_last
_citation_journal_id_ASTM
primary 'Geochemistry International' 1978 15 66 69 GCINAP
_publ_author_name
;
Nozik, Yu.Z.;Kanepit, V.N.;Fykin, L.Y.;Makarov, Yu.S.
;
_cell_length_a                     8.913
_cell_length_b                     5.643
_cell_length_c                     10.179
_cell_angle_alpha                  90.
_cell_angle_beta                   115.12
_cell_angle_gamma                  90.
_cell_volume                       463.54
_cell_formula_units_Z              2
_symmetry_space_group_name_H-M     'P 1 21/m 1'
_symmetry_Int_Tables_number        11
_refine_ls_R_factor_all            .046
loop_
_symmetry_equiv_pos_site_id
_symmetry_equiv_pos_as_xyz
  1	'x, -y+.5, z'
  2	'-x, -y, -z'
  3	'-x, y+.5, -z'
  4	'x, y, z'
loop_
_atom_type_symbol
_atom_type_oxidation_number
Al3+	3
Ca2+	2
Fe3+	3
H1+	1
O2-	-2
Si4+	4
loop_
_atom_site_label
_atom_site_type_symbol
_atom_site_symmetry_multiplicity
_atom_site_Wyckoff_symbol
_atom_site_fract_x
_atom_site_fract_y
_atom_site_fract_z
_atom_site_occupancy
_atom_site_attached_hydrogens
Al1 Al3+ 2 a 0 0 0 1. 0 
Al2 Al3+ 2 c 0 0 0.5 1. 0 
Fe1 Fe3+ 2 e 0.2944(2) 0.25 0.2243(2) 1. 0 
Ca1 Ca2+ 2 e 0.7558(4) 0.75 0.1506(3) 1. 0 
Ca2 Ca2+ 2 e 0.6050(4) 0.75 0.4244(3) 1. 0 
Si1 Si4+ 2 e 0.3398(4) 0.75 0.0470(4) 1. 0 
Si2 Si4+ 2 e 0.6848(4) 0.25 0.2748(3) 1. 0 
Si3 Si4+ 2 e 0.1826(4) 0.75 0.3180(4) 1. 0 
O1 O2- 4 f 0.2340(2) -.0060(3) 0.0409(2) 1. 0 
O2 O2- 4 f 0.3045(2) -.0183(3) 0.3557(2) 1. 0 
O3 O2- 4 f 0.7958(2) 0.0138(3) 0.3383(2) 1. 0 
O4 O2- 2 e 0.0526(3) 0.25 0.1300(3) 1. 0 
O5 O2- 2 e 0.0417(3) 0.75 0.1461(3) 1. 0 
O6 O2- 2 e 0.0684(3) 0.75 0.4082(3) 1. 0 
O7 O2- 2 e 0.5155(3) 0.75 0.1812(3) 1. 0 
O8 O2- 2 e 0.5272(3) 0.25 0.3100(3) 1. 0 
O9 O2- 2 e 0.6265(4) 0.25 0.0987(3) 1. 0 
O10 O2- 2 e 0.0835(3) 0.25 0.4298(3) 1. 0 
H1 H1+ 2 e 0.0540(7) 0.25 0.3262(5) 1. 0 

loop_
_atom_site_aniso_label
_atom_site_aniso_type_symbol
_atom_site_aniso_U_11
_atom_site_aniso_U_22
_atom_site_aniso_U_33
_atom_site_aniso_U_12
_atom_site_aniso_U_13
_atom_site_aniso_U_23
Al1 Al3+ 0.0014(6) 0.0044(10) 0.0019(4) 0.0007(6) 0.0010(4) 0.0005(5)
Al2 Al3+ 0.0014(5) 0.0036 0.0010(3) -.0011(6) -.0001(3) -.0003(5)
Fe1 Fe3+ 0.0014(2) 0.0048(4) 0.0016(1) 0 0.0003(2) 0
Ca1 Ca2+ 0.0038(4) 0.0068(8) 0.0021(3) 0 0.0017(3) 0
Ca2 Ca2+ 0.0025(4) 0.0121(10) 0.0013(3) 0 0.0003(3) 0
Si1 Si4+ 0.0015(4) 0.0041(19) 0.0012(3) 0 0.0004(3) 0
Si2 Si4+ 0.0016(4) 0.0047(9) 0.0010(3) 0 0.0000(3) 0
Si3 Si4+ 0.0010(4) 0.0044(9) 0.0013(9) 0 0.0008(3) 0
O1 O2- 0.0017(2) 0.0048(5) 0.0024(2) 0.0003(1) 0.0009(2) -.0002(3)
O2 O2- 0.0020(2) 0.0056(5) 0.0019(2) -.0011(3) 0.0009(2) -.0002(3)
O3 O2- 0.0022(2) 0.0048(5) 0.0024(2) 0.0004(3) -.0001(2) 0.0001(3)
O4 O2- 0.0025(3) 0.0031(6) 0.0016(2) 0 0.0012(3) 0
O5 O2- 0.0016(3) 0.0049(6) 0.0010(2) 0 0.0004(2) 0
O6 O2- 0.0023(3) 0.0043(6) 0.0021(2) 0 0.0016(2) 0
O7 O2- 0.0014(3) 0.0078(7) 0.0015(2) 0 0.0001(2) 0
O8 O2- 0.0033(3) 0.0100(7) 0.0035(3) 0 0.0024(3) 0
O9 O2- 0.0054(4) 0.0127(8) 0.0016(2) 0 0.0019(3) 0
O10 O2- 0.0021(3) 0.0048(6) 0.0015(3) 0 0.0011(2) 0
H1 H1+ 0.0092(8) 0.0134(14) 0.0026(5) 0 0.0023(5) 0
#End of data_34209-ICSD


