data_391263-ICSD
#?2014 by Fachinformationszentrum Karlsruhe, and the U.S. Secretary of 
#Commerce on behalf of the United States.  All rights reserved.
_database_code_ICSD                391263
_audit_creation_date               2005/10/01
_chemical_name_systematic          'Trisodium Copper Chlorophosphate'
_chemical_formula_structural       'Cl Cu H Na3 O5 P'
_chemical_formula_sum              'H1 Cl1 Cu1 Na3 O5 P1'
_publ_section_title
;
Low-temperature flux synthesis of a novel one-dimensional copper (II) 
chlorophosphate: crystal structure and magnetic property of 
Na3[CuO(HPO4)Cl]
;
loop_
_citation_id
_citation_journal_abbrev
_citation_year
_citation_journal_volume
_citation_journal_issue
_citation_page_first
_citation_page_last
_citation_journal_id_ASTM
primary 'Journal of Solid State Chemistry' 2005 178 3 912 916 JSSCBI
_publ_author_name
;
Liu, W.;Li, M.-R.;Yang, X.-X.;Chen, H.-H.;Zhao, J.-T.
;
_cell_length_a                     11.096(2)
_cell_length_b                     6.5703(13)
_cell_length_c                     8.3623(17)
_cell_angle_alpha                  90.00
_cell_angle_beta                   90.00
_cell_angle_gamma                  90.00
_cell_volume                       609.65
_cell_formula_units_Z              4
_symmetry_space_group_name_H-M     'P n m a'
_symmetry_Int_Tables_number        62
_refine_ls_R_factor_all            .0643
loop_
_symmetry_equiv_pos_site_id
_symmetry_equiv_pos_as_xyz
  1	'x+.5, y, -z+.5'
  2	'x, -y+.5, z'
  3	'-x+.5, y+.5, z+.5'
  4	'-x, -y, -z'
  5	'-x+.5, -y, z+.5'
  6	'-x, y+.5, -z'
  7	'x+.5, -y+.5, -z+.5'
  8	'x, y, z'
loop_
_atom_type_symbol
_atom_type_oxidation_number
Cl1-	-1
Cu2+	2
H1+	1
Na1+	1
O2-	-2
P5+	5
loop_
_atom_site_label
_atom_site_type_symbol
_atom_site_symmetry_multiplicity
_atom_site_Wyckoff_symbol
_atom_site_fract_x
_atom_site_fract_y
_atom_site_fract_z
_atom_site_occupancy
_atom_site_attached_hydrogens
_atom_site_U_iso_or_equiv
Cu1 Cu2+ 4 a 0.0000 0.0000 0.0000 1 0 0.0142(2) 
P1 P5+ 4 c 0.03796(17) 0.2500 0.3121(2) 1 0 0.0117(4) 
O1 O2- 4 c 0.1020(4) -0.2500 -0.0045(6) 1 0 0.0148(11) 
O2 O2- 8 d 0.0698(3) 0.0579(5) 0.2116(4) 1 0 0.0143(8) 
O3 O2- 4 c -0.0958(4) 0.2500 0.3495(6) 1 0 0.0175(12) 
O4 O2- 4 c 0.1119(5) 0.2500 0.4647(6) 1 0 0.0185(12) 
Cl1 Cl1- 4 c 0.18473(16) 0.2500 -0.1400(2) 1 0 0.0157(4) 
Na1 Na1+ 8 d -0.23236(17) -0.0107(3) 0.4005(3) 1 0 0.0209(5) 
Na2 Na1+ 4 c -0.0486(3) 0.2500 0.6556(4) 1 0 0.0233(7) 
H1 H1+ 4 c -0.121(9) 0.2500 0.4444(3) 1 0 0.050 

loop_
_atom_site_aniso_label
_atom_site_aniso_type_symbol
_atom_site_aniso_U_11
_atom_site_aniso_U_22
_atom_site_aniso_U_33
_atom_site_aniso_U_12
_atom_site_aniso_U_13
_atom_site_aniso_U_23
Cu1 Cu2+ 0.0117(4) 0.0136(4) 0.0173(4) 0.0016(4) -0.0022(3) -0.0019(4)
P1 P5+ 0.0078(9) 0.0123(9) 0.0151(10) 0.000 0.0001(7) 0.000
O1 O2- 0.010(2) 0.012(2) 0.023(3) 0.000 -0.002(2) 0.000
O2 O2- 0.016(2) 0.0140(17) 0.0131(19) 0.0008(14) -0.0017(14) -0.0017(14)
O3 O2- 0.005(3) 0.026(3) 0.021(3) 0.000 0.005(2) 0.000
O4 O2- 0.019(3) 0.019(3) 0.018(3) 0.000 -0.004(2) 0.000
Cl1 Cl1- 0.0121(9) 0.0173(9) 0.0177(9) 0.000 0.0001(7) 0.000
Na1 Na1+ 0.0147(10) 0.0212(11) 0.0269(12) -0.0018(9) 0.0005(8) -0.0011(10)
Na2 Na1+ 0.0224(17) 0.0199(15) 0.0277(19) 0.000 0.0039(14) 0.000
#End of data_391263-ICSD


