data_404780-ICSD
#?2014 by Fachinformationszentrum Karlsruhe, and the U.S. Secretary of 
#Commerce on behalf of the United States.  All rights reserved.
_database_code_ICSD                404780
_audit_creation_date               1997/05/13
_chemical_name_systematic
;
Magnesium Bis(iodate(V)) Decahydrate
;
_chemical_formula_structural       'Mg (I O3)2 (H2 O)10'
_chemical_formula_sum              'H20 I2 Mg1 O16'
_publ_section_title
;
Zur Kenntnis des Magnesiumiodatdecahydrat: Mg (I O3)2*H2 O 
Kristallstruktur, roentgenographische und Raman Spektroskopische 
Untersuchungen
;
loop_
_citation_id
_citation_journal_abbrev
_citation_year
_citation_journal_volume
_citation_page_first
_citation_page_last
_citation_journal_id_ASTM
primary 'Zeitschrift fuer Anorganische und Allgemeine Chemie (1950) (DE)'
 1996 622 1957 1962 ZAACAB
_publ_author_name                  'Suchanek, E.;Zhang, Z.;Lutz, H.D.'
_cell_length_a                     6.5425(9)
_cell_length_b                     11.098(2)
_cell_length_c                     11.766(2)
_cell_angle_alpha                  105.470(8)
_cell_angle_beta                   104.086(8)
_cell_angle_gamma                  101.744(8)
_cell_volume                       764.96
_cell_formula_units_Z              2
_symmetry_space_group_name_H-M     'P -1'
_symmetry_Int_Tables_number        2
_refine_ls_R_factor_all            .0275
loop_
_symmetry_equiv_pos_site_id
_symmetry_equiv_pos_as_xyz
  1	'-x, -y, -z'
  2	'x, y, z'
loop_
_atom_type_symbol
_atom_type_oxidation_number
H1+	1
I5+	5
Mg2+	2
O2-	-2
loop_
_atom_site_label
_atom_site_type_symbol
_atom_site_symmetry_multiplicity
_atom_site_Wyckoff_symbol
_atom_site_fract_x
_atom_site_fract_y
_atom_site_fract_z
_atom_site_occupancy
_atom_site_attached_hydrogens
_atom_site_U_iso_or_equiv
I1 I5+ 2 i 0.31860(3) 0.38687(2) 0.13631(2) 1. 0 0 
I2 I5+ 2 i 0.71180(3) 0.41302(2) 0.487860(15) 1. 0 0 
Mg1 Mg2+ 2 i 0.8884(2) 0.05826(10) 0.29551(9) 1. 0 0 
O1 O2- 2 i 0.4260(4) 0.2725(2) 0.1991(2) 1. 0 0 
O2 O2- 2 i 0.6686(4) 0.6718(2) 0.0201(2) 1. 0 0 
O3 O2- 2 i 0.0281(4) 0.3173(2) 0.1049(2) 1. 0 0 
O4 O2- 2 i 0.5475(4) 0.2643(2) 0.4955(2) 1. 0 0 
O5 O2- 2 i 0.9812(3) 0.4011(2) 0.5613(2) 1. 0 0 
O6 O2- 2 i 0.6831(4) 0.5348(2) 0.6134(2) 1. 0 0 
O7 O2- 2 i 0.1055(4) 0.1894(2) 0.4684(2) 1. 0 0 
O8 O2- 2 i 0.9551(5) -.1010(3) 0.3352(3) 1. 0 0 
O9 O2- 2 i 0.6351(4) 0.0399(3) 0.3679(3) 1. 0 0 
O10 O2- 2 i 0.1451(4) 0.0778(3) 0.2281(3) 1. 0 0 
O11 O2- 2 i 0.8153(4) 0.2210(2) 0.2555(2) 1. 0 0 
O12 O2- 2 i 0.6817(4) -.0684(2) 0.1172(2) 1. 0 0 
O13 O2- 2 i 0.2726(5) 0.6257(3) 0.0768(2) 1. 0 0 
O14 O2- 2 i 0.2512(6) 0.4681(4) 0.8080(4) 1. 0 0 
O15 O2- 2 i 0.2420(6) 0.9236(4) 0.0414(3) 1. 0 0 
O16 O2- 2 i 0.3099(5) 0.8108(3) 0.2976(3) 1. 0 0 
H1 H1+ 2 i 0.0794(75) 0.2568(48) 0.4964(44) 1. 0 0.027(11) 
H2 H1+ 2 i 0.228(11) 0.2100(65) 0.4746(63) 1. 0 0.053(18) 
H3 H1+ 2 i 0.9250(86) -.1214(52) 0.3826(53) 1. 0 0.040(13) 
H4 H1+ 2 i 1.056(10) -.1352(60) 0.3195(57) 1. 0 0.064(15) 
H5 H1+ 2 i 0.5895(85) 0.0994(56) 0.4041(51) 1. 0 0.035(13) 
H6 H1+ 2 i 0.577(16) -0.007(11) 0.3609(97) 1. 0 0.099(35) 
H7 H1+ 2 i 0.1453(92) 0.0222(53) 0.1720(51) 1. 0 0.039(13) 
H8 H1+ 2 i 0.2250(77) 0.1396(48) 0.2220(44) 1. 0 0.025(10) 
H9 H1+ 2 i 0.7066(86) 0.2225(45) 0.2198(45) 1. 0 0.026(11) 
H10 H1+ 2 i 0.911(15) 0.2610(89) 0.2452(90) 1. 0 0.100(29) 
H11 H1+ 2 i 0.552(10) -.0755(58) 0.0880(56) 1. 0 0.049(15) 
H12 H1+ 2 i 0.6936(91) -.1520(58) 0.0869(53) 1. 0 0.048(14) 
H13 H1+ 2 i 0.1668(93) 0.6262(54) 0.0160(54) 1. 0 0.044(14) 
H14 H1+ 2 i 0.379(11) 0.6393(67) 0.0609(63) 1. 0 0.056(18) 
H15 H1+ 2 i 0.179(12) 0.3953(71) 0.8312(69) 1. 0 0.066(19) 
H16 H1+ 2 i 0.214(12) 0.4344(70) 0.7570(67) 1. 0 0.087(22) 
H17 H1+ 2 i 0.152(10) 0.8550(64) -.0037(56) 1. 0 0.048(15) 
H18 H1+ 2 i 0.270(16) 0.9561(92) 0.0580(94) 1. 0 0.085(34) 
H19 H1+ 2 i 0.3421(92) 0.7863(56) 0.3494(58) 1. 0 0.043(15) 
H20 H1+ 2 i 0.2890(99) 0.7693(61) 0.2436(62) 1. 0 0.042(16) 

loop_
_atom_site_aniso_label
_atom_site_aniso_type_symbol
_atom_site_aniso_U_11
_atom_site_aniso_U_22
_atom_site_aniso_U_33
_atom_site_aniso_U_12
_atom_site_aniso_U_13
_atom_site_aniso_U_23
I1 I5+ 0.01774(11) 0.01729(11) 0.01873(11) 0.00723(7) 0.00698(7) 0.00744(7)
I2 I5+ 0.01629(11) 0.01747(11) 0.01801(11) 0.00710(7) 0.00677(7) 0.00540(7)
Mg1 Mg2+ 0.0191(4) 0.0199(4) 0.0218(4) 0.0085(3) 0.0102(4) 0.0087(4)
O1 O2- 0.0236(10) 0.0265(10) 0.0341(11) 0.0137(8) 0.0132(9) 0.0182(9)
O2 O2- 0.0320(11) 0.0284(11) 0.0211(10) 0.0100(9) 0.0122(9) 0.0084(8)
O3 O2- 0.0169(9) 0.0316(11) 0.0293(11) 0.0074(8) 0.0071(8) 0.0120(9)
O4 O2- 0.0214(10) 0.0224(10) 0.0326(11) 0.0052(8) 0.0104(8) 0.0116(8)
O5 O2- 0.0181(9) 0.0268(10) 0.0255(10) 0.0103(8) 0.0057(8) 0.0086(8)
O6 O2- 0.0301(11) 0.0297(11) 0.0239(10) 0.0161(9) 0.0093(9) 0.0017(9)
O7 O2- 0.0195(9) 0.0216(10) 0.0253(10) 0.0091(8) 0.0095(8) 0.0080(8)
O8 O2- 0.0384(14) 0.0317(12) 0.0367(13) 0.0215(11) 0.0227(11) 0.0218(11)
O9 O2- 0.0261(11) 0.0236(11) 0.0420(14) 0.0072(9) 0.0214(10) 0.0071(10)
O10 O2- 0.0313(12) 0.0245(11) 0.0388(13) 0.0084(9) 0.0242(10) 0.0104(10)
O11 O2- 0.0225(10) 0.0303(11) 0.0343(12) 0.0141(9) 0.0131(9) 0.0195(10)
O12 O2- 0.0290(12) 0.0231(10) 0.0269(11) 0.0091(9) 0.0059(9) 0.0060(8)
O13 O2- 0.0318(12) 0.0388(13) 0.0279(11) 0.0159(10) 0.0121(10) 0.0159(10)
O14 O2- 0.039(2) 0.053(2) 0.033(2) -.0026(14) 0.0003(12) 0.022(2)
O15 O2- 0.0318(13) 0.0286(13) 0.0279(12) 0.0084(11) 0.011(1) 0.0083(11)
O16 O2- 0.0371(13) 0.0272(12) 0.0309(13) 0.0129(10) 0.0154(11) 0.0122(11)
#End of data_404780-ICSD


