data_201623-ICSD
#?2014 by Fachinformationszentrum Karlsruhe, and the U.S. Secretary of 
#Commerce on behalf of the United States.  All rights reserved.
_database_code_ICSD                201623
_audit_creation_date               1985/07/17
_audit_update_record               2013/02/01
_chemical_name_systematic          'Lithium Sodium Diyttrium Fluoride'
_chemical_formula_structural       'Li Na Y2 F8'
_chemical_formula_sum              'F8 Li1 Na1 Y2'
_publ_section_title
;
Structure cristalline de Li Na Y2 F8
;
loop_
_citation_id
_citation_journal_abbrev
_citation_year
_citation_journal_volume
_citation_page_first
_citation_page_last
_citation_journal_id_ASTM
primary 'Revue de Chimie Minerale' 1984 21 771 777 RVCMA8
_publ_author_name
;
Avignant, D.;Zambon, D.;Metin, J.;Cousseins, J.C.
;
_cell_length_a                     6.622(2)
_cell_length_b                     6.995(3)
_cell_length_c                     6.632(3)
_cell_angle_alpha                  90.
_cell_angle_beta                   103.14(3)
_cell_angle_gamma                  90.
_cell_volume                       299.16
_cell_formula_units_Z              2
_symmetry_space_group_name_H-M     'P 1 21/m 1'
_symmetry_Int_Tables_number        11
_refine_ls_R_factor_all            .04
loop_
_symmetry_equiv_pos_site_id
_symmetry_equiv_pos_as_xyz
  1	'x, -y+.5, z'
  2	'-x, -y, -z'
  3	'-x, y+.5, -z'
  4	'x, y, z'
loop_
_atom_type_symbol
_atom_type_oxidation_number
F1-	-1
Li1+	1
Na1+	1
Y3+	3
loop_
_atom_site_label
_atom_site_type_symbol
_atom_site_symmetry_multiplicity
_atom_site_Wyckoff_symbol
_atom_site_fract_x
_atom_site_fract_y
_atom_site_fract_z
_atom_site_occupancy
_atom_site_attached_hydrogens
Y1 Y3+ 2 e 0.4504(1) 0.25 0.0773(1) 1. 0 
Y2 Y3+ 2 e 0.9229(1) 0.75 0.5497(1) 1. 0 
Na1 Na1+ 2 e 0.6547(7) 0.25 0.6549(6) 1. 0 
F1 F1- 2 e 0.0890(9) 0.25 0.0885(9) 1. 0 
F2 F1- 2 e 0.3909(11) 0.25 0.3912(11) 1. 0 
F3 F1- 2 e 0.7452(9) 0.25 0.3086(10) 1. 0 
F4 F1- 2 e 0.3092(10) 0.25 0.7461(9) 1. 0 
F5 F1- 4 f 0.9363(7) 0.0517(6) 0.6597(6) 1. 0 
F6 F1- 4 f 0.6607(7) 0.0514 0.9363(7) 1. 0 
Li1 Li1+ 2 a 0 0 0 1. 0 

#End of data_201623-ICSD


