data_74591-ICSD
#?2014 by Fachinformationszentrum Karlsruhe, and the U.S. Secretary of 
#Commerce on behalf of the United States.  All rights reserved.
_database_code_ICSD                74591
_audit_creation_date               1995/10/17
_audit_update_record               2003/04/01
_chemical_name_systematic          'Potassium Oxotitanium Arsenate(V)'
_chemical_formula_structural       'K (Ti O) (As O4)'
_chemical_formula_sum              'As1 K1 O5 Ti1'
_publ_section_title
;
High-temperature single-crystal X-ray diffraction studies of 
potassium and (cesium,potassium) titanyl arsenates
;
loop_
_citation_id
_citation_journal_abbrev
_citation_year
_citation_journal_volume
_citation_page_first
_citation_page_last
_citation_journal_id_ASTM
primary 'Chemistry of Materials' 1994 6 434 440 CMATEX
2 'Phase Transition' 1992 38 127 220 PHTRDP
_publ_author_name
;
Northrup, P.A.;Parise, J.B.;Cheng, L.K.;Cheng, L.T.;McCarron, E.M.
;
_cell_length_a                     13.1185(5)
_cell_length_b                     6.5656(2)
_cell_length_c                     10.7804(3)
_cell_angle_alpha                  90.
_cell_angle_beta                   90.
_cell_angle_gamma                  90.
_cell_volume                       928.52
_cell_formula_units_Z              8
_symmetry_space_group_name_H-M     'P n a 21'
_symmetry_Int_Tables_number        33
_refine_ls_R_factor_all            .022
loop_
_symmetry_equiv_pos_site_id
_symmetry_equiv_pos_as_xyz
  1	'x+.5, -y+.5, z'
  2	'-x+.5, y+.5, z+.5'
  3	'-x, -y, z+.5'
  4	'x, y, z'
loop_
_atom_type_symbol
_atom_type_oxidation_number
As5+	5
K1+	1
O2-	-2
Ti4+	4
loop_
_atom_site_label
_atom_site_type_symbol
_atom_site_symmetry_multiplicity
_atom_site_Wyckoff_symbol
_atom_site_fract_x
_atom_site_fract_y
_atom_site_fract_z
_atom_site_occupancy
_atom_site_attached_hydrogens
_atom_site_B_iso_or_equiv
K1 K1+ 4 a 0.3766(1) 0.7791(2) 0.3129(2) 1. 0 1.74(5) 
K2 K1+ 4 a 0.1079(1) 0.7000(2) 0.0684(2) 1. 0 1.67(5) 
Ti1 Ti4+ 4 a 0.3748(1) 0.5065(2) 0 1. 0 0.37(3) 
Ti2 Ti4+ 4 a 0.2467(1) 0.2714(1) 0.2493(2) 1. 0 0.36(3) 
As1 As5+ 4 a 0.49790(4) 0.3290(1) 0.2591(2) 1. 0 0.33(2) 
As2 As5+ 4 a 0.18113(3) 0.5071(1) 0.5118(1) 1. 0 0.36(2) 
O1 O2- 4 a 0.9878(4) 0.0026(8) 0.1437(5) 1. 0 0.77(14) 
O2 O2- 4 a 0.5067(4) 0.4612(8) 0.3920(5) 1. 0 0.89(15) 
O3 O2- 4 a 0.3937(3) 0.1819(6) 0.2765(5) 1. 0 0.68(15) 
O4 O2- 4 a 0.0984(3) 0.3268(7) 0.2383(5) 1. 0 0.68(14) 
O5 O2- 4 a 0.3924(3) 0.8054(7) 0.0466(4) 1. 0 0.66(13) 
O6 O2- 4 a 0.6053(3) 0.7945(7) 0.4828(5) 1. 0 0.84(15) 
O7 O2- 4 a 0.2391(4) 0.0414(8) 0.1319(5) 1. 0 0.74(15) 
O8 O2- 4 a 0.2592(4) 0.4651(8) 0.3898(5) 1. 0 0.77(15) 
O9 O2- 4 a 0.2163(4) 0.0545(8) 0.3885(5) 1. 0 0.77(14) 
O10 O2- 4 a 0.2789(4) 0.4574(8) 0.1393(5) 1. 0 0.66(14) 

#End of data_74591-ICSD


