data_200808-ICSD
#?2014 by Fachinformationszentrum Karlsruhe, and the U.S. Secretary of 
#Commerce on behalf of the United States.  All rights reserved.
_database_code_ICSD                200808
_audit_creation_date               1980/12/31
_audit_update_record               1998/06/26
_chemical_name_systematic
;
Tetrasodium Discandium Tetrasilicate
;
_chemical_formula_structural       'Na4 Sc2 (Si4 O13)'
_chemical_formula_sum              'Na4 O13 Sc2 Si4'
_publ_section_title
;
Crystal structure of Na4 Sc2 Si4 O13
;
loop_
_citation_id
_citation_journal_abbrev
_citation_year
_citation_journal_volume
_citation_page_first
_citation_page_last
_citation_journal_id_ASTM
primary 'Doklady Akademii Nauk SSSR' 1980 251 98 102 DANKAS
_publ_author_name
;
Maksimov, B.A.;Mel'nikov, O.K.;Zhdanova, T.A.;Ilyukhin, V.V.;Belov, 
N.V.
;
_cell_length_a                     14.442(3)
_cell_length_b                     5.288(1)
_cell_length_c                     14.219(4)
_cell_angle_alpha                  90.
_cell_angle_beta                   90.
_cell_angle_gamma                  90.
_cell_volume                       1085.9
_cell_formula_units_Z              4
_symmetry_space_group_name_H-M     'P n a 21'
_symmetry_Int_Tables_number        33
_refine_ls_R_factor_all            .042
loop_
_symmetry_equiv_pos_site_id
_symmetry_equiv_pos_as_xyz
  1	'x+.5, -y+.5, z'
  2	'-x+.5, y+.5, z+.5'
  3	'-x, -y, z+.5'
  4	'x, y, z'
loop_
_atom_type_symbol
_atom_type_oxidation_number
Na1+	1
O2-	-2
Sc3+	3
Si4+	4
loop_
_atom_site_label
_atom_site_type_symbol
_atom_site_symmetry_multiplicity
_atom_site_Wyckoff_symbol
_atom_site_fract_x
_atom_site_fract_y
_atom_site_fract_z
_atom_site_occupancy
_atom_site_attached_hydrogens
_atom_site_B_iso_or_equiv
Na1 Na1+ 4 a 0.3298(3) 0.1750(7) 0.6230(3) 1. 0 1.31 
Na2 Na1+ 4 a 0.4222(3) 0.1776(8) 0.4139(8) 1. 0 1.64 
Na3 Na1+ 4 a 0.0517(3) 0.1927(7) 0.2119(3) 1. 0 0.96 
Na4 Na1+ 4 a 0.1973(3) 0.2819(7) 0.8353(3) 1. 0 1.15 
Sc1 Sc3+ 4 a 0.1693(1) 0.1891(3) 0.4212(1) 1. 0 0.29 
Sc2 Sc3+ 4 a 0.0792(1) 0.3494(3) 0.6268(1) 1. 0 0.29 
Si1 Si4+ 4 a 0.0259(2) 0.1488(4) 0.0002(2) 1. 0 0.38 
Si2 Si4+ 4 a 0.3061(2) 0.3268(4) 0.2284(2) 1. 0 0.36 
Si3 Si4+ 4 a 0.4409(2) 0.2004(4) 0.8195(2) 1. 0 0.36 
Si4 Si4+ 4 a 0.2259(2) 0.1732(4) 0.0461(2) 1. 0 0.36 
O1 O2- 4 a 0.1258(5) 0.0187(8) 0.0241(5) 1. 0 0.55 
O2 O2- 4 a 0.3081(4) -.0355(8) 0.0307(4) 1. 0 0.62 
O3 O2- 4 a 0.2184(4) 0.2282(8) 0.1598(2) 1. 0 0.77 
O4 O2- 4 a 0.2293(4) 0.4336(9) 0.9897(4) 1. 0 0.75 
O5 O2- 4 a 0.3927(4) 0.1357(9) 0.2165(4) 1. 0 0.8 
O6 O2- 4 a 0.2748(7) 0.3189(9) 0.3356(4) 1. 0 0.82 
O7 O2- 4 a 0.1743(4) 0.1110(9) 0.6935(4) 1. 0 0.81 
O8 O2- 4 a 0.0319(4) 0.2074(9) 0.8868(4) 1. 0 0.54 
O9 O2- 4 a 0.0539(4) 0.0736(9) 0.5163(4) 1. 0 0.51 
O10 O2- 4 a 0.0146(4) 0.4048(9) 0.0576(4) 1. 0 0.86 
O11 O2- 4 a 0.3543(4) 0.3838(9) 0.8406(4) 1. 0 0.68 
O12 O2- 4 a 0.0751(4) 0.4091(9) 0.3474(4) 1. 0 0.96 
O13 O2- 4 a 0.4683(4) 0.2454(9) 0.7112(2) 1. 0 0.55 

#End of data_200808-ICSD


