data_30893-ICSD
#?2014 by Fachinformationszentrum Karlsruhe, and the U.S. Secretary of 
#Commerce on behalf of the United States.  All rights reserved.
_database_code_ICSD                30893
_audit_creation_date               1985/05/29
_audit_update_record               2013/02/01
_chemical_name_systematic          'Magnesium Catena-silicate'
_chemical_formula_structural       'Mg (Si O3)'
_chemical_formula_sum              'Mg1 O3 Si1'
_chemical_name_mineral             'Clinoenstatite low'
_publ_section_title
;
High temperature crystal structure refinements of low-clinoenstatite 
up to 700 degrees C
;
loop_
_citation_id
_citation_journal_abbrev
_citation_year
_citation_journal_volume
_citation_page_first
_citation_page_last
_citation_journal_id_ASTM
primary 'Neues Jahrbuch fuer Mineralogie. Abhandlungen (Band-Nr) (1950-)'
 1984 150 219 228 NJMIAK
2 'Golden Book of Phase Transitions, Wroclaw' 2002 1 1 123 GBOPT5
_publ_author_name                  'Pannhorst, W.'
_cell_length_a                     9.627(3)
_cell_length_b                     8.834(2)
_cell_length_c                     5.180(1)
_cell_angle_alpha                  90.
_cell_angle_beta                   108.34(2)
_cell_angle_gamma                  90.
_cell_volume                       418.16
_cell_formula_units_Z              8
_symmetry_space_group_name_H-M     'P 1 21/c 1'
_symmetry_Int_Tables_number        14
_refine_ls_R_factor_all            .033
loop_
_symmetry_equiv_pos_site_id
_symmetry_equiv_pos_as_xyz
  1	'x, -y+.5, z+.5'
  2	'-x, -y, -z'
  3	'-x, y+.5, -z+.5'
  4	'x, y, z'
loop_
_atom_type_symbol
_atom_type_oxidation_number
Mg2+	2
O2-	-2
Si4+	4
loop_
_atom_site_label
_atom_site_type_symbol
_atom_site_symmetry_multiplicity
_atom_site_Wyckoff_symbol
_atom_site_fract_x
_atom_site_fract_y
_atom_site_fract_z
_atom_site_occupancy
_atom_site_attached_hydrogens
Mg1 Mg2+ 4 e 0.2510(3) 0.6533(2) 0.2180(3) 1. 0 
Mg2 Mg2+ 4 e 0.2558(2) 0.0134(2) 0.2151(3) 1. 0 
Si1 Si4+ 4 e 0.0435(1) 0.3407(1) 0.2942(2) 1. 0 
Si2 Si4+ 4 e 0.5535(1) 0.8371(1) 0.2305(2) 1. 0 
O1 O2- 4 e 0.8666(3) 0.3398(4) 0.1853(6) 1. 0 
O2 O2- 4 e 0.1227(3) 0.5006(3) 0.3220(6) 1. 0 
O3 O2- 4 e 0.1059(3) 0.2796(4) 0.6133(6) 1. 0 
O4 O2- 4 e 0.3761(3) 0.8399(4) 0.1253(6) 1. 0 
O5 O2- 4 e 0.6336(3) 0.9826(4) 0.3890(6) 1. 0 
O6 O2- 4 e 0.6046(3) 0.6939(3) 0.4556(6) 1. 0 

loop_
_atom_site_aniso_label
_atom_site_aniso_type_symbol
_atom_site_aniso_U_11
_atom_site_aniso_U_22
_atom_site_aniso_U_33
_atom_site_aniso_U_12
_atom_site_aniso_U_13
_atom_site_aniso_U_23
Mg1 Mg2+ 0.0044(6) 0.0013(6) 0.0029(6) 0.0000(6) 0.0007(5) 0.0001(6)
Mg2 Mg2+ 0.0067(7) 0.0034(6) 0.0044(6) 0.0012(6) 0.0014(5) 0.0010(6)
Si1 Si4+ 0.0036(5) 0.0019(5) 0.0053(5) -.0006(4) 0.0013(4) 0.0000(4)
Si2 Si4+ 0.0049(5) 0.0043(5) 0.0052(5) -.0005(5) 0.0014(4) -.0007(5)
O1 O2- 0.0050(1) 0.0030(1) 0.0090(1) 0.0000(1) 0.0002(1) 0.0000(1)
O2 O2- 0.0060(1) 0.0030(1) 0.0090(1) -.0003(1) 0.0003(1) -.0020(1)
O3 O2- 0.0050(1) 0.0070(1) 0.0080(1) 0.0000(1) 0.0002(1) 0.0002(1)
O4 O2- 0.0070(1) 0.0060(1) 0.0080(1) 0.0000(1) 0.0003(1) 0.0002(1)
O5 O2- 0.0090(2) 0.0060(2) 0.0080(1) -.0030(1) 0.0020(1) -.0010(1)
O6 O2- 0.0090(2) 0.0040(1) 0.0090(1) 0.0010(1) 0.0030(1) 0.0020(1)
#End of data_30893-ICSD


