data_155664-ICSD
#?2014 by Fachinformationszentrum Karlsruhe, and the U.S. Secretary of 
#Commerce on behalf of the United States.  All rights reserved.
_database_code_ICSD                155664
_audit_creation_date               2007/08/01
_audit_update_record               2008/02/01
_chemical_name_systematic
;
Lithium Neodymium Cyclo-tetraphosphate(V)
;
_chemical_formula_structural       'Li Nd (P4 O12)'
_chemical_formula_sum              'Li1 Nd1 O12 P4'
_publ_section_title
;
Crystal structure of Li Nd (P4 O12)
;
loop_
_citation_id
_citation_journal_abbrev
_citation_year
_citation_journal_volume
_citation_journal_issue
_citation_page_first
_citation_page_last
_citation_journal_id_ASTM
primary 'Wu Li Hsueh Pao (= Acta Physica Sinica)' 1982 31 4 537 542 WLHPAR
_publ_author_name                  'Liu Jiancheng'
_cell_length_a                     16.486
_cell_length_b                     7.073
_cell_length_c                     9.775
_cell_angle_alpha                  90.
_cell_angle_beta                   126.23
_cell_angle_gamma                  90.
_cell_volume                       919.44
_cell_formula_units_Z              4
_symmetry_space_group_name_H-M     'C 1 2/c 1'
_symmetry_Int_Tables_number        15
_refine_ls_R_factor_all            .048
loop_
_symmetry_equiv_pos_site_id
_symmetry_equiv_pos_as_xyz
  1	'x, -y, z+.5'
  2	'-x, -y, -z'
  3	'-x, y, -z+.5'
  4	'x, y, z'
  5	'x+.5, -y+.5, z+.5'
  6	'-x+.5, -y+.5, -z'
  7	'-x+.5, y+.5, -z+.5'
  8	'x+.5, y+.5, z'
loop_
_atom_type_symbol
_atom_type_oxidation_number
Li1+	1
Nd3+	3
O2-	-2
P5+	5
loop_
_atom_site_label
_atom_site_type_symbol
_atom_site_symmetry_multiplicity
_atom_site_Wyckoff_symbol
_atom_site_fract_x
_atom_site_fract_y
_atom_site_fract_z
_atom_site_occupancy
_atom_site_attached_hydrogens
Nd1 Nd3+ 4 e 0 0.19975(5) 0.250 1. 0 
Li1 Li1+ 4 a 0 0 0 1. 0 
P1 P5+ 8 f 0.1387(1) 0.4432(2) 0.1133(2) 1. 0 
P2 P5+ 8 f 0.3510(1) 0.3423(2) 0.2989(2) 1. 0 
O1 O2- 8 f 0.0659(3) 0.5056(5) 0.4294(5) 1. 0 
O2 O2- 8 f 0.2439(3) 0.4140(6) 0.1430(5) 1. 0 
O3 O2- 8 f 0.1141(3) 0.2798(6) 0.1791(5) 1. 0 
O4 O2- 8 f 0.3393(3) 0.1197(5) 0.2664(5) 1. 0 
O5 O2- 8 f 0.4255(3) 0.4024(5) 0.2686(5) 1. 0 
O6 O2- 8 f 0.3704(3) 0.3854(6) 0.4650(5) 1. 0 

#End of data_155664-ICSD


