data_109353-ICSD
#?2014 by Fachinformationszentrum Karlsruhe, and the U.S. Secretary of 
#Commerce on behalf of the United States.  All rights reserved.
_database_code_ICSD                109353
_audit_creation_date               2007/04/01
_chemical_name_systematic          'Europium Aluminate'
_chemical_formula_structural       'Eu (Al O3)'
_chemical_formula_sum              'Al1 Eu1 O3'
_publ_section_title
;
Crystallographic studies of perovskite-like compounds. II. Rare earth 
aluminates
;
loop_
_citation_id
_citation_journal_abbrev
_citation_year
_citation_journal_volume
_citation_page_first
_citation_page_last
_citation_journal_id_ASTM
primary 'Acta Crystallographica (1,1948-23,1967)' 1956 9 1019 1025 ACCRA9
_publ_author_name                  'Geller, S.;Bala, V.B.'
_cell_length_a                     5.271
_cell_length_b                     5.292
_cell_length_c                     7.458
_cell_angle_alpha                  90.
_cell_angle_beta                   90.
_cell_angle_gamma                  90.
_cell_volume                       208.03
_cell_formula_units_Z              4
_symmetry_space_group_name_H-M     'P b n m'
_symmetry_Int_Tables_number        62
loop_
_symmetry_equiv_pos_site_id
_symmetry_equiv_pos_as_xyz
  1	'-x+.5, y+.5, z'
  2	'x, y, -z+.5'
  3	'x+.5, -y+.5, z+.5'
  4	'-x, -y, -z'
  5	'x+.5, -y+.5, -z'
  6	'-x, -y, z+.5'
  7	'-x+.5, y+.5, -z+.5'
  8	'x, y, z'
loop_
_atom_type_symbol
_atom_type_oxidation_number
Al3+	3
Eu3+	3
O2-	-2
loop_
_atom_site_label
_atom_site_type_symbol
_atom_site_symmetry_multiplicity
_atom_site_Wyckoff_symbol
_atom_site_fract_x
_atom_site_fract_y
_atom_site_fract_z
_atom_site_occupancy
_atom_site_attached_hydrogens
Eu1 Eu3+ 4 c -0.008 0.0366 0.250 1. 0 
Al1 Al3+ 4 b 0 0.5 0.5 1. 0 
O1 O2- 4 c 0.073 0.486 0.250 1. 0 
O2 O2- 8 d 0.714 0.285 0.039 1. 0 

#End of data_109353-ICSD


