data_89746-ICSD
#?2014 by Fachinformationszentrum Karlsruhe, and the U.S. Secretary of 
#Commerce on behalf of the United States.  All rights reserved.
_database_code_ICSD                89746
_audit_creation_date               2002/04/01
_chemical_name_systematic          'Calcium Oxotitanium Silicate'
_chemical_formula_structural       'Ca (Ti O) (Si O4)'
_chemical_formula_sum              'Ca1 O5 Si1 Ti1'
_chemical_name_mineral             Titanite
_publ_section_title
;
In situ powder diffraction study of titanite (Ca Ti O Si O4) at high 
pressure and high temperature
;
loop_
_citation_id
_citation_journal_abbrev
_citation_year
_citation_journal_volume
_citation_page_first
_citation_page_last
_citation_journal_id_ASTM
primary 'American Mineralogist' 2000 85 1465 1473 AMMIAY
_publ_author_name                  'Kunz, M.;Arlt, T.;Stolz, J.'
_cell_length_a                     7.0391(3)
_cell_length_b                     8.7100(4)
_cell_length_c                     6.5433(3)
_cell_angle_alpha                  90.
_cell_angle_beta                   113.686(5)
_cell_angle_gamma                  90.
_cell_volume                       367.38
_cell_formula_units_Z              4
_symmetry_space_group_name_H-M     'P 1 21/a 1'
_symmetry_Int_Tables_number        14
_refine_ls_R_factor_all            .014
loop_
_symmetry_equiv_pos_site_id
_symmetry_equiv_pos_as_xyz
  1	'x+.5, -y+.5, z'
  2	'-x, -y, -z'
  3	'-x+.5, y+.5, -z'
  4	'x, y, z'
loop_
_atom_type_symbol
_atom_type_oxidation_number
Ca2+	2
O2-	-2
Si4+	4
Ti4+	4
loop_
_atom_site_label
_atom_site_type_symbol
_atom_site_symmetry_multiplicity
_atom_site_Wyckoff_symbol
_atom_site_fract_x
_atom_site_fract_y
_atom_site_fract_z
_atom_site_occupancy
_atom_site_attached_hydrogens
_atom_site_U_iso_or_equiv
Ca1 Ca2+ 4 e 0.264(3) 0.913(1) 0.738(5) 1. 0 0.008 
Ti1 Ti4+ 4 e 0.525(3) 0.748(3) 0.246(4) 1. 0 0.002 
Si1 Si4+ 4 e 0.726(5) 0.936(2) 0.752(7) 1. 0 0.0015 
O1 O2- 4 e 0.750(11) 0.829(3) 0.249(15) 1. 0 0.004 
O2 O2- 4 e 0.899(7) 0.813(5) 0.923(7) 1. 0 0.004 
O3 O2- 4 e 0.369(8) 0.949(5) 0.126(9) 1. 0 0.004 
O4 O2- 4 e 0.929(6) 0.319(6) 0.452(7) 1. 0 0.004 
O5 O2- 4 e 0.368(6) 0.454(5) 0.678(8) 1. 0 0.004 

#End of data_89746-ICSD


