data_27743-ICSD
#?2014 by Fachinformationszentrum Karlsruhe, and the U.S. Secretary of 
#Commerce on behalf of the United States.  All rights reserved.
_database_code_ICSD                27743
_audit_creation_date               1980/01/01
_audit_update_record               2007/08/01
_chemical_name_systematic
;
Silver Erbium Bis(tungstate) - Alpha
;
_chemical_formula_structural       'Ag Er (W O4)2'
_chemical_formula_sum              'Ag1 Er1 O8 W2'
_publ_section_title
;
Polymorphism of the double tungstates of rare earth elements with 
silver, Ag Ln (W O4)2
;
loop_
_citation_id
_citation_journal_abbrev
_citation_year
_citation_journal_volume
_citation_page_first
_citation_page_last
_citation_journal_id_ASTM
primary Kristallografiya 1976 21 759 765 KRISAJ
2 'Soviet Physics, Crystallography (= Kristallografiya)'
 1976 21 430 433 SPHCA6
3 'Phase Transition' 1992 38 127 220 PHTRDP
_publ_author_name
;
Klevtsov, P.V.;Maksin, V.I.;Klevtsova, R.F.;Golub, A.M.
;
_cell_length_a                     9.86
_cell_length_b                     10.67
_cell_length_c                     7.2
_cell_angle_alpha                  90.
_cell_angle_beta                   127.
_cell_angle_gamma                  90.
_cell_volume                       604.95
_cell_formula_units_Z              4
_symmetry_space_group_name_H-M     'C 1 2/m 1'
_symmetry_Int_Tables_number        12
_refine_ls_R_factor_all            .14
loop_
_symmetry_equiv_pos_site_id
_symmetry_equiv_pos_as_xyz
  1	'-x, y, -z'
  2	'-x, -y, -z'
  3	'x, -y, z'
  4	'x, y, z'
  5	'-x+.5, y+.5, -z'
  6	'-x+.5, -y+.5, -z'
  7	'x+.5, -y+.5, z'
  8	'x+.5, y+.5, z'
loop_
_atom_type_symbol
_atom_type_oxidation_number
Ag1+	1
Er3+	3
O2-	-2
W6+	6
loop_
_atom_site_label
_atom_site_type_symbol
_atom_site_symmetry_multiplicity
_atom_site_Wyckoff_symbol
_atom_site_fract_x
_atom_site_fract_y
_atom_site_fract_z
_atom_site_occupancy
_atom_site_attached_hydrogens
_atom_site_B_iso_or_equiv
W1 W6+ 4 h 0.5 0.3341(2) 0.5 1. 0 0.17 
W2 W6+ 4 i 0.2928(2) 0.5 0.0311(4) 1. 0 0.18 
Er1 Er3+ 4 g 0 0.3073(3) 0 1. 0 0.34 
Ag1 Ag1+ 4 i 0.1867(7) 0.5 0.5215(11) 1. 0 1.84 
O1 O2- 8 j 0.277(3) 0.373(3) 0.249(5) 1. 0 0.6 
O2 O2- 8 j 0.044(4) 0.269(4) 0.349(6) 1. 0 0.9 
O3 O2- 4 i 0.438(5) 0 0.131(7) 1. 0 0.6 
O4 O2- 8 j 0.174(4) 0.131(4) 0.092(6) 1. 0 1.3 
O5 O2- 4 i 0.022(6) 0 0.330(9) 1. 0 1.5 

#End of data_27743-ICSD


