data_83228-ICSD
#?2014 by Fachinformationszentrum Karlsruhe, and the U.S. Secretary of 
#Commerce on behalf of the United States.  All rights reserved.
_database_code_ICSD                83228
_audit_creation_date               1998/06/26
_chemical_name_systematic          'Dipotassium Cobalt Silicate'
_chemical_formula_structural       'K2 Co (Si O4)'
_chemical_formula_sum              'Co1 K2 O4 Si1'
_publ_section_title
;
X-ray powder diffraction study of K2 M Si O4, M= Mg, Zn, Co, Cd
;
loop_
_citation_id
_citation_journal_abbrev
_citation_year
_citation_journal_volume
_citation_journal_issue
_citation_page_first
_citation_page_last
_citation_journal_id_ASTM
primary 'Powder Diffraction' 1996 11 1 51 55 PODIE2
_publ_author_name                  'Dollase, W.A.'
_cell_length_a                     10.936(2)
_cell_length_b                     5.453(1)
_cell_length_c                     15.623(3)
_cell_angle_alpha                  90.
_cell_angle_beta                   90.
_cell_angle_gamma                  90.
_cell_volume                       931.66
_cell_formula_units_Z              8
_symmetry_space_group_name_H-M     'P c a 21'
_symmetry_Int_Tables_number        29
_refine_ls_R_factor_all            .065
loop_
_symmetry_equiv_pos_site_id
_symmetry_equiv_pos_as_xyz
  1	'x+.5, -y, z'
  2	'-x+.5, y, z+.5'
  3	'-x, -y, z+.5'
  4	'x, y, z'
loop_
_atom_type_symbol
_atom_type_oxidation_number
Co2+	2
K1+	1
O2-	-2
Si4+	4
loop_
_atom_site_label
_atom_site_type_symbol
_atom_site_symmetry_multiplicity
_atom_site_Wyckoff_symbol
_atom_site_fract_x
_atom_site_fract_y
_atom_site_fract_z
_atom_site_occupancy
_atom_site_attached_hydrogens
_atom_site_B_iso_or_equiv
K1 K1+ 4 a 0.0122(15) 0.5091(31) 0.9304(13) 1. 0 1.5(3) 
K2 K1+ 4 a 0.2619(15) 0.5490(31) 0.8153(13) 1. 0 1.5(3) 
K3 K1+ 4 a -.0122(15) -.0091(31) 0.0696(13) 1. 0 1.5(3) 
K4 K1+ 4 a 0.7381(15) -.0490(31) 0.1847(13) 1. 0 1.5(3) 
Co1 Co2+ 4 a 0.0080(14) 0.0008(24) 0.8106(12) 1. 0 0.3(2) 
Co2 Co2+ 4 a 0.7416(14) 0.4703(24) 0.0594(12) 1. 0 0.3(2) 
Si1 Si4+ 4 a 0.9920(14) 0.4992(24) 0.1886(12) 1. 0 0.3(2) 
Si2 Si4+ 4 a 0.2584(14) 0.0297(24) 0.9406(12) 1. 0 0.3(2) 
O1 O2- 4 a 0.2830(48) 0.3195(89) 0.9837(30) 1. 0 2.5(4) 
O2 O2- 4 a 0.4021(48) 0.9135(89) 0.8882(30) 1. 0 2.5(4) 
O3 O2- 4 a 0.1563(48) 0.0672(89) 0.852(3) 1. 0 2.5(4) 
O4 O2- 4 a 0.9901(48) 0.6979(89) 0.7852(30) 1. 0 2.5(4) 
O5 O2- 4 a 0.7170(48) 0.1805(89) 0.0163(30) 1. 0 2.5(4) 
O6 O2- 4 a 0.5979(48) 0.5865(89) 0.1118(30) 1. 0 2.5(4) 
O7 O2- 4 a 0.8437(48) 0.4328(89) 0.148(3) 1. 0 2.5(4) 
O8 O2- 4 a 0.0099(48) 0.8021(89) 0.2148(30) 1. 0 2.5(4) 

#End of data_83228-ICSD


