data_67459-ICSD
#?2014 by Fachinformationszentrum Karlsruhe, and the U.S. Secretary of 
#Commerce on behalf of the United States.  All rights reserved.
_database_code_ICSD                67459
_audit_creation_date               1992/08/20
_chemical_name_systematic          'Dirubidium Magnesium Hydride'
_chemical_formula_structural       'Rb2 Mg H4'
_chemical_formula_sum              'H4 Mg1 Rb2'
_publ_section_title
;
Two new ternary hydrides of betaK2SO4-type structure: Cs2MgH4 and 
Rb2MgH4
;
loop_
_citation_id
_citation_journal_abbrev
_citation_year
_citation_journal_volume
_citation_page_first
_citation_page_last
_citation_journal_id_ASTM
primary 'Chemica Scripta' 1988 28 447 450 CSRPB9
_publ_author_name
;
Park, H.-H.;Pezat, M.;Darriet, B.;Hagenmuller, P.
;
_cell_length_a                     8.168(2)
_cell_length_b                     11.275(3)
_cell_length_c                     6.404(2)
_cell_angle_alpha                  90.
_cell_angle_beta                   90.
_cell_angle_gamma                  90.
_cell_volume                       589.77
_cell_formula_units_Z              4
_symmetry_space_group_name_H-M     'P n a m'
_symmetry_Int_Tables_number        62
loop_
_symmetry_equiv_pos_site_id
_symmetry_equiv_pos_as_xyz
  1	'x+.5, -y+.5, z'
  2	'x, y, -z+.5'
  3	'-x+.5, y+.5, z+.5'
  4	'-x, -y, -z'
  5	'-x+.5, y+.5, -z'
  6	'-x, -y, z+.5'
  7	'x+.5, -y+.5, -z+.5'
  8	'x, y, z'
loop_
_atom_type_symbol
_atom_type_oxidation_number
H1-	-1
Mg2+	2
Rb1+	1
loop_
_atom_site_label
_atom_site_type_symbol
_atom_site_symmetry_multiplicity
_atom_site_Wyckoff_symbol
_atom_site_fract_x
_atom_site_fract_y
_atom_site_fract_z
_atom_site_occupancy
_atom_site_attached_hydrogens
_atom_site_B_iso_or_equiv
Rb1 Rb1+ 4 c 0.649 0.416 0.25 1. 0 0.6 
Rb2 Rb1+ 4 c 0.993 0.306 0.25 1. 0 0.6 
Mg1 Mg2+ 4 c 0.231 0.349 0.25 1. 0 1. 
H1 H1- 4 c 0.058 0.417 0.25 1. 0 2. 
H2 H1- 4 c 0.314 0.553 0.25 1. 0 2. 
H3 H1- 8 d 0.314 0.349 0.044 1. 0 2. 

#End of data_67459-ICSD


