data_163285-ICSD
#?2014 by Fachinformationszentrum Karlsruhe, and the U.S. Secretary of 
#Commerce on behalf of the United States.  All rights reserved.
_database_code_ICSD                163285
_audit_creation_date               2009/08/01
_chemical_name_systematic          'Dicalcium Magnesium Disilicate'
_chemical_formula_structural       'Ca2 Mg (Si2 O7)'
_chemical_formula_sum              'Ca2 Mg1 O7 Si2'
_chemical_name_mineral             Akermanite
_publ_section_title
;
High-pressure behavior of akermanite and gehlenite and phase 
stability of the normal structure in melilites
;
loop_
_citation_id
_citation_journal_abbrev
_citation_year
_citation_journal_volume
_citation_page_first
_citation_page_last
_citation_journal_id_ASTM
primary 'American Mineralogist' 2009 94 704 709 AMMIAY
_publ_author_name
;
Merlini, M.;Gemmi, M.;Hanfland, M.;Crichton, W.
;
_cell_length_a                     7.740(6)
_cell_length_b                     7.740(6)
_cell_length_c                     4.932(6)
_cell_angle_alpha                  90.
_cell_angle_beta                   90.
_cell_angle_gamma                  90.
_cell_volume                       295.46
_cell_formula_units_Z              2
_symmetry_space_group_name_H-M     'P -4 21 m'
_symmetry_Int_Tables_number        113
_refine_ls_R_factor_all            .067
loop_
_symmetry_equiv_pos_site_id
_symmetry_equiv_pos_as_xyz
  1	'-y+.5, -x+.5, z'
  2	'y, -x, -z'
  3	'y+.5, x+.5, z'
  4	'-y, x, -z'
  5	'x+.5, -y+.5, -z'
  6	'-x, -y, z'
  7	'-x+.5, y+.5, -z'
  8	'x, y, z'
loop_
_atom_type_symbol
_atom_type_oxidation_number
Ca2+	2
Mg2+	2
O2-	-2
Si4+	4
loop_
_atom_site_label
_atom_site_type_symbol
_atom_site_symmetry_multiplicity
_atom_site_Wyckoff_symbol
_atom_site_fract_x
_atom_site_fract_y
_atom_site_fract_z
_atom_site_occupancy
_atom_site_attached_hydrogens
Mg1 Mg2+ 2 a 0 0 0 1. 0 
Ca1 Ca2+ 4 e 0.3343(3) 0.1657(3) 0.5065(16) 1. 0 
Si1 Si4+ 4 e 0.1416(4) 0.3584(4) 0.937(2) 1. 0 
O1 O2- 2 c 0 0.5 -0.195(6) 1. 0 
O2 O2- 4 e 0.1438(9) 0.3562(9) 0.260(5) 1. 0 
O3 O2- 8 f 0.0803(9) 0.1843(8) 0.782(3) 1. 0 

#End of data_163285-ICSD


