data_28692-ICSD
#?2014 by Fachinformationszentrum Karlsruhe, and the U.S. Secretary of 
#Commerce on behalf of the United States.  All rights reserved.
_database_code_ICSD                28692
_audit_creation_date               1986/10/09
_audit_update_record               2005/10/01
_chemical_name_systematic          'Potassium Hexafluororuthenate(V)'
_chemical_formula_structural       'K (Ru F6)'
_chemical_formula_sum              'F6 K1 Ru1'
_publ_section_title                'Fluorokomplexe des Rutheniums'
loop_
_citation_id
_citation_journal_abbrev
_citation_year
_citation_journal_volume
_citation_page_first
_citation_page_last
_citation_journal_id_ASTM
primary 'Zeitschrift fuer Anorganische und Allgemeine Chemie (1950) (DE)'
 1955 279 74 83 ZAACAB
_publ_author_name                  'Weise, E.;Klemm, W.'
_cell_length_a                     4.95
_cell_length_b                     4.95
_cell_length_c                     4.95
_cell_angle_alpha                  97.5
_cell_angle_beta                   97.5
_cell_angle_gamma                  97.5
_cell_volume                       117.87
_cell_formula_units_Z              1
_symmetry_space_group_name_H-M     'R -3 m R'
_symmetry_Int_Tables_number        166
loop_
_symmetry_equiv_pos_site_id
_symmetry_equiv_pos_as_xyz
  1	'-z, -y, -x'
  2	'-z, -x, -y'
  3	'-x, -z, -y'
  4	'-y, -z, -x'
  5	'-y, -x, -z'
  6	'-x, -y, -z'
  7	'z, y, x'
  8	'z, x, y'
  9	'x, z, y'
 10	'y, z, x'
 11	'y, x, z'
 12	'x, y, z'
loop_
_atom_type_symbol
_atom_type_oxidation_number
F1-	-1
K1+	1
Ru5+	5
loop_
_atom_site_label
_atom_site_type_symbol
_atom_site_symmetry_multiplicity
_atom_site_Wyckoff_symbol
_atom_site_fract_x
_atom_site_fract_y
_atom_site_fract_z
_atom_site_occupancy
_atom_site_attached_hydrogens
K1 K1+ 1 b 0.5 0.5 0.5 1. 0 
Ru1 Ru5+ 1 a 0 0 0 1. 0 
F1 F1- 6 h -.272 -.272 0.085 1. 0 

#End of data_28692-ICSD


