data_67221-ICSD
#?2014 by Fachinformationszentrum Karlsruhe, and the U.S. Secretary of 
#Commerce on behalf of the United States.  All rights reserved.
_database_code_ICSD                67221
_audit_creation_date               1990/12/27
_audit_update_record               2012/08/01
_chemical_name_systematic
;
Molybdenum(V) Nonaoxoalumodiphosphate
;
_chemical_formula_structural       'Mo (Al P2 O9)'
_chemical_formula_sum              'Al1 Mo1 O9 P2'
_publ_section_title
;
Mo Al P2 O9 molybdenum(V)aluminophosphate isostructural with VSiP2O9
;
loop_
_citation_id
_citation_journal_abbrev
_citation_year
_citation_journal_volume
_citation_page_first
_citation_page_last
_citation_journal_id_ASTM
primary 'Zeitschrift fuer Kristallographie (1979-2010)' 1990 190 135 142 ZEKRDZ
_publ_author_name
;
Leclaire, A.;Borel, M.M.;Grandin, A.;Raveau, B.
;
_cell_length_a                     8.8030(8)
_cell_length_b                     8.8030(8)
_cell_length_c                     8.6970(6)
_cell_angle_alpha                  90.
_cell_angle_beta                   90.
_cell_angle_gamma                  90.
_cell_volume                       673.95
_cell_formula_units_Z              4
_symmetry_space_group_name_H-M     'P 4/n c c Z'
_symmetry_Int_Tables_number        130
_refine_ls_R_factor_all            .027
loop_
_symmetry_equiv_pos_site_id
_symmetry_equiv_pos_as_xyz
  1	'y+.5, x+.5, -z+.5'
  2	'-y, x+.5, -z'
  3	'y+.5, -x, -z'
  4	'-y, -x, -z+.5'
  5	'x+.5, y+.5, -z'
  6	'-x, y+.5, -z+.5'
  7	'x+.5, -y, -z+.5'
  8	'-x, -y, -z'
  9	'-y+.5, -x+.5, z+.5'
 10	'y, -x+.5, z'
 11	'-y+.5, x, z'
 12	'y, x, z+.5'
 13	'-x+.5, -y+.5, z'
 14	'x, -y+.5, z+.5'
 15	'-x+.5, y, z+.5'
 16	'x, y, z'
loop_
_atom_type_symbol
_atom_type_oxidation_number
Al3+	3
Mo5+	5
O2-	-2
P5+	5
loop_
_atom_site_label
_atom_site_type_symbol
_atom_site_symmetry_multiplicity
_atom_site_Wyckoff_symbol
_atom_site_fract_x
_atom_site_fract_y
_atom_site_fract_z
_atom_site_occupancy
_atom_site_attached_hydrogens
Al1 Al3+ 4 b 0.75 0.25 0 1. 0 
Mo1 Mo5+ 4 c 0.25 0.25 0.17748(6) 1. 0 
P1 P5+ 8 f 0.56514(9) 0.435 0.25 1. 0 
O1 O2- 16 g 0.3929(2) 0.4141(2) 0.2332(3) 1. 0 
O2 O2- 4 c 0.25 0.25 -.0126(6) 1. 0 
O3 O2- 16 g 0.6472(3) 0.3779(4) 0.1084(4) 1. 0 

#End of data_67221-ICSD


