data_419673-ICSD
#?2014 by Fachinformationszentrum Karlsruhe, and the U.S. Secretary of 
#Commerce on behalf of the United States.  All rights reserved.
_database_code_ICSD                419673
_audit_creation_date               2009/02/01
_chemical_name_systematic          'Dilithium Tetraborate'
_chemical_formula_structural       'Li2 B4 O7'
_chemical_formula_sum              'B4 Li2 O7'
_publ_section_title
;
Temperature-dependent changes of the crystal structure of Li2 B4 O7
;
loop_
_citation_id
_citation_journal_abbrev
_citation_year
_citation_journal_volume
_citation_journal_issue
_citation_page_first
_citation_page_last
_citation_journal_id_ASTM
primary 'Zeitschrift fuer Anorganische und Allgemeine Chemie (1950) (DE)'
 2008 634 14 2601 2607 ZAACAB
_publ_author_name
;
Sennova, N.;Bubnova, R.S.;Cordier, G.;Albert, B.;Filatov, 
S.K.;Isaenko, L.
;
_cell_length_a                     9.466(5)
_cell_length_b                     9.466(5)
_cell_length_c                     10.284(6)
_cell_angle_alpha                  90.00
_cell_angle_beta                   90.00
_cell_angle_gamma                  90.00
_cell_volume                       921.5
_cell_formula_units_Z              8
_symmetry_space_group_name_H-M     'I 41 c d'
_symmetry_Int_Tables_number        110
_refine_ls_R_factor_all            .0275
loop_
_symmetry_equiv_pos_site_id
_symmetry_equiv_pos_as_xyz
  1	'-y, -x+.5, z+.75'
  2	'-y, x+.5, z+.25'
  3	'x, -y, z+.5'
  4	'-x, -y, z'
  5	'y, x+.5, z+.75'
  6	'y, -x+.5, z+.25'
  7	'-x, y, z+.5'
  8	'x, y, z'
  9	'-y+.5, -x, z+.25'
 10	'-y+.5, x, z+.75'
 11	'x+.5, -y+.5, z'
 12	'-x+.5, -y+.5, z+.5'
 13	'y+.5, x, z+.25'
 14	'y+.5, -x, z+.75'
 15	'-x+.5, y+.5, z'
 16	'x+.5, y+.5, z+.5'
loop_
_atom_type_symbol
_atom_type_oxidation_number
B3+	3
Li1+	1
O2-	-2
loop_
_atom_site_label
_atom_site_type_symbol
_atom_site_symmetry_multiplicity
_atom_site_Wyckoff_symbol
_atom_site_fract_x
_atom_site_fract_y
_atom_site_fract_z
_atom_site_occupancy
_atom_site_attached_hydrogens
_atom_site_U_iso_or_equiv
Li1 Li1+ 16 b 0.3502(4) 0.3334(4) 0.3505(3) 1 0 0.0212(8) 
B1 B3+ 16 b 0.0865(2) 0.33178(19) 0.45100(19) 1 0 0.0076(3) 
B2 B3+ 16 b 0.05374(19) 0.1123(2) 0.58236(17) 1 0 0.0072(3) 
O1 O2- 16 b 0.13776(12) 0.21821(12) 0.51548(11) 1 0 0.0078(3) 
O2 O2- 16 b 0.17773(12) 0.43296(13) 0.40620(12) 1 0 0.0080(3) 
O3 O2- 16 b -0.05672(12) 0.34350(12) 0.43136(10) 1 0 0.0078(3) 
O4 O2- 8 a 0.0000 0.0000 0.49970(16) 1 0 0.0075(3) 

loop_
_atom_site_aniso_label
_atom_site_aniso_type_symbol
_atom_site_aniso_U_11
_atom_site_aniso_U_22
_atom_site_aniso_U_33
_atom_site_aniso_U_12
_atom_site_aniso_U_13
_atom_site_aniso_U_23
Li1 Li1+ 0.0169(17) 0.0219(17) 0.0246(19) 0.0101(13) 0.0100(13) 0.0090(14)
B1 B3+ 0.0088(9) 0.0061(8) 0.0077(7) -0.0007(6) -0.0009(6) 0.0001(6)
B2 B3+ 0.0056(8) 0.0071(8) 0.0090(7) 0.0007(6) 0.0002(6) 0.0026(6)
O1 O2- 0.0047(5) 0.0084(6) 0.0104(5) -0.0003(4) 0.0012(4) 0.0033(5)
O2 O2- 0.0061(5) 0.0073(5) 0.0106(6) -0.0002(4) 0.0004(4) 0.0026(4)
O3 O2- 0.0061(6) 0.0090(5) 0.0083(6) -0.0003(4) 0.0003(4) 0.0034(4)
O4 O2- 0.0083(7) 0.0082(7) 0.0062(7) -0.0009(6) 0.000 0.000
#End of data_419673-ICSD


