data_93152-ICSD
#?2014 by Fachinformationszentrum Karlsruhe, and the U.S. Secretary of 
#Commerce on behalf of the United States.  All rights reserved.
_database_code_ICSD                93152
_audit_creation_date               2003/04/01
_chemical_name_systematic
;
Tetracalcium Lanthanum Oxide Tris(borate)
;
_chemical_formula_structural       'Ca4 La O (B O3)3'
_chemical_formula_sum              'B3 Ca4 La1 O10'
_publ_section_title
;
Phase relations in the system La2 O3 - Ca O - B2 O3
;
loop_
_citation_id
_citation_journal_abbrev
_citation_year
_citation_journal_volume
_citation_page_first
_citation_page_last
_citation_journal_id_ASTM
primary 'Journal of Alloys and Compounds' 2001 315 198 202 JALCEU
_publ_author_name
;
Zhang, Y.;Chen, X.-L.;Liang, J.-K.;Cao, Y.G.;Xu, T.
;
_cell_length_a                     8.1732(1)
_cell_length_b                     16.0860(3)
_cell_length_c                     3.6268(1)
_cell_angle_alpha                  90
_cell_angle_beta                   101.40(1)
_cell_angle_gamma                  90
_cell_volume                       467.42
_cell_formula_units_Z              2
_symmetry_space_group_name_H-M     'C 1 m 1'
_symmetry_Int_Tables_number        8
_refine_ls_R_factor_all            .09
loop_
_symmetry_equiv_pos_site_id
_symmetry_equiv_pos_as_xyz
  1	'x, -y, z'
  2	'x, y, z'
  3	'x+.5, -y+.5, z'
  4	'x+.5, y+.5, z'
loop_
_atom_type_symbol
_atom_type_oxidation_number
B3+	3
Ca2+	2
La3+	3
O2-	-2
loop_
_atom_site_label
_atom_site_type_symbol
_atom_site_symmetry_multiplicity
_atom_site_Wyckoff_symbol
_atom_site_fract_x
_atom_site_fract_y
_atom_site_fract_z
_atom_site_occupancy
_atom_site_attached_hydrogens
_atom_site_B_iso_or_equiv
La1 La3+ 2 a 0 0 0 1. 0 0.9(7) 
Ca1 Ca2+ 4 b 0.3516(2) 0.1154(1) 0.6691(4) 1. 0 1.0(8) 
Ca2 Ca2+ 4 b 0.2272(2) 0.3189(1) 0.3310(4) 1. 0 1.2(8) 
B1 B3+ 2 a 0.5881(1) 0 0.2664(3) 1. 0 1.0(2) 
B2 B3+ 4 b 0.0517(1) 0.2020(5) -0.0900(2) 1. 0 1.0(3) 
O1 O2- 2 a 0.1798(7) 0 0.5864(8) 1. 0 0.9(1) 
O2 O2- 4 b 0.3990(5) 0.3443(2) -0.0825(1) 1. 0 1.4(3) 
O3 O2- 4 b 0.0333(5) 0.2708(2) 0.7103(7) 1. 0 1.9(1) 
O4 O2- 4 b 0.2041(6) 0.1715(2) 0.1490(3) 1. 0 1.6(6) 
O5 O2- 4 b 0.0287(6) 0.4211(2) 0.2536(5) 1. 0 1.4(1) 
O6 O2- 2 a 0.7573(1) 0 0.3748(6) 1. 0 1.7(2) 

#End of data_93152-ICSD


