data_167787-ICSD
#?2014 by Fachinformationszentrum Karlsruhe, and the U.S. Secretary of 
#Commerce on behalf of the United States.  All rights reserved.
_database_code_ICSD                167787
_audit_creation_date               2011/02/01
_chemical_name_systematic
;
Tetracalcium Dinitride Carbodiimide
;
_chemical_formula_structural       'Ca4 N2 (C N2)'
_chemical_formula_sum              'C1 Ca4 N4'
_publ_section_title
;
3D nitride frameworks with variable channel sizes; synthesis and 
powder neutron diffraction study of the nitride carbodiimides, Ca4 N2 
(C N2) and Ca11 N6 (C N2)2
;
loop_
_citation_id
_citation_journal_abbrev
_citation_year
_citation_journal_volume
_citation_page_first
_citation_page_last
_citation_journal_id_ASTM
primary 'Topics in Catalysis, Springer' 2009 52 1598 1603 TOCAFI
_publ_author_name
;
Bowman, A.;Smith, R.I.;Gregory, D.H.
;
_cell_length_a                     11.4817(1)
_cell_length_b                     3.59145(3)
_cell_length_c                     13.8301(2)
_cell_angle_alpha                  90.
_cell_angle_beta                   90.
_cell_angle_gamma                  90.
_cell_volume                       570.3
_cell_formula_units_Z              4
_symmetry_space_group_name_H-M     'P n m a'
_symmetry_Int_Tables_number        62
_refine_ls_R_factor_all            .0226
loop_
_symmetry_equiv_pos_site_id
_symmetry_equiv_pos_as_xyz
  1	'x+.5, y, -z+.5'
  2	'x, -y+.5, z'
  3	'-x+.5, y+.5, z+.5'
  4	'-x, -y, -z'
  5	'-x+.5, -y, z+.5'
  6	'-x, y+.5, -z'
  7	'x+.5, -y+.5, -z+.5'
  8	'x, y, z'
loop_
_atom_type_symbol
_atom_type_oxidation_number
C4+	4
Ca2+	2
N3-	-3
loop_
_atom_site_label
_atom_site_type_symbol
_atom_site_symmetry_multiplicity
_atom_site_Wyckoff_symbol
_atom_site_fract_x
_atom_site_fract_y
_atom_site_fract_z
_atom_site_occupancy
_atom_site_attached_hydrogens
_atom_site_B_iso_or_equiv
Ca1 Ca2+ 4 c 0.11249(18) 0.250 0.17225(17) 1. 0 0.97 
Ca2 Ca2+ 4 c 0.87948(19) 0.250 0.03983(15) 1. 0 0.91 
Ca3 Ca2+ 4 c 0.37714(17) 0.250 0.88602(16) 1. 0 0.94 
Ca4 Ca2+ 4 c 0.14065(17) 0.250 0.75900(13) 1. 0 0.41 
N1 N3- 4 c 0.73362(10) 0.250 0.18418(8) 1. 0 0.74 
N2 N3- 4 c 0.99978(11) 0.250 0.88295(9) 1. 0 0.58 
N3 N3- 4 c 0.26796(11) 0.250 0.04358(9) 1. 0 1.44 
N4 N3- 4 c 0.45419(9) 0.250 0.13018(9) 1. 0 1.33 
C1 C4+ 4 c 0.36034(14) 0.250 0.08700(10) 1. 0 0.75 

#End of data_167787-ICSD


