data_174058-ICSD
#?2014 by Fachinformationszentrum Karlsruhe, and the U.S. Secretary of 
#Commerce on behalf of the United States.  All rights reserved.
_database_code_ICSD                174058
_audit_creation_date               2010/02/01
_audit_update_record               2013/08/01
_chemical_name_systematic          'Lithium Rubidium Sulfate(VI)'
_chemical_formula_structural       'Li Rb (S O4)'
_chemical_formula_sum              'Li1 O4 Rb1 S1'
_publ_section_title
;
A structural study of the successive transitions in Li Rb S O4
;
loop_
_citation_id
_citation_journal_abbrev
_citation_year
_citation_journal_volume
_citation_journal_issue
_citation_page_first
_citation_page_last
_citation_journal_id_ASTM
primary 'Journal of the Physical Society of Japan' 1987 56 9 3189 3195 JUPSAU
_publ_author_name                  'Kunishige, A.;Mashiyama, H.'
_cell_length_a                     5.316(1)
_cell_length_b                     9.162(1)
_cell_length_c                     43.689(3)
_cell_angle_alpha                  90
_cell_angle_beta                   90.01(1)
_cell_angle_gamma                  90
_cell_volume                       2127.88
_cell_formula_units_Z              20
_symmetry_space_group_name_H-M     'P 1 n 1'
_symmetry_Int_Tables_number        7
_refine_ls_R_factor_all            .051
loop_
_symmetry_equiv_pos_site_id
_symmetry_equiv_pos_as_xyz
  1	'x+.5, -y, z+.5'
  2	'x, y, z'
loop_
_atom_type_symbol
_atom_type_oxidation_number
Li1+	1
O2-	-2
Rb1+	1
S6+	6
loop_
_atom_site_label
_atom_site_type_symbol
_atom_site_symmetry_multiplicity
_atom_site_Wyckoff_symbol
_atom_site_fract_x
_atom_site_fract_y
_atom_site_fract_z
_atom_site_occupancy
_atom_site_attached_hydrogens
_atom_site_B_iso_or_equiv
Li1 Li1+ 2 a 0.2368(156) 0.4360(85) 0.0657(22) 1. 0 4.77(207) 
Li2 Li1+ 2 a 0.2264(97) 0.0865(66) 0.1647(15) 1. 0 2.54(149) 
Li3 Li1+ 2 a 0.2463(151) 0.4056(82) 0.2668(21) 1. 0 4.48(182) 
Li4 Li1+ 2 a 0.2294(89) 0.0816(62) 0.3648(14) 1. 0 2.22(146) 
Li5 Li1+ 2 a 0.2287(129) 0.4041(77) 0.4640(18) 1. 0 3.72(199) 
Li6 Li1+ 2 a 0.2640(97) 0.0877(52) 0.5664(14) 1. 0 1.82(117) 
Li7 Li1+ 2 a 0.2559(122) 0.4136(80) 0.6669(17) 1. 0 3.59(172) 
Li8 Li1+ 2 a 0.2563(101) 0.0786(56) 0.7649(15) 1. 0 2.44(147) 
Li9 Li1+ 2 a 0.2663(137) 0.4142(88) 0.8668(20) 1. 0 4.49(206) 
Li10 Li1+ 2 a 0.2607(103) 0.0814(62) 0.9653(13) 1. 0 2.32(131) 
Rb1 Rb1+ 2 a 0.7513(6) 0.2150(4) 0.1004(1) 1. 0 2.98(7) 
Rb2 Rb1+ 2 a 0.7402(6) 0.2824(4) 0.2006(1) 1. 0 2.76(6) 
Rb3 Rb1+ 2 a 0.7576(6) 0.2166(4) 0.3004(1) 1. 0 2.94(7) 
Rb4 Rb1+ 2 a 0.7527(6) 0.2840(4) 0.4005(1) 1. 0 2.77(6) 
Rb5 Rb1+ 2 a 0.7400(6) 0.2176(4) 0.5006(1) 1. 0 2.98(6) 
Rb6 Rb1+ 2 a 0.7476(6) 0.2833(4) 0.6004(1) 1. 0 2.80(6) 
Rb7 Rb1+ 2 a 0.7595(6) 0.2175(4) 0.7005(1) 1. 0 2.87(6) 
Rb8 Rb1+ 2 a 0.7410(6) 0.2836(4) 0.8006(1) 1. 0 2.75(6) 
Rb9 Rb1+ 2 a 0.7463(7) 0.2165(4) 0.9004(1) 1. 0 3.00(7) 
Rb10 Rb1+ 2 a 0.7583(6) 0.2832(3) 0.0005(1) 1. 0 2.72(7) 
S1 S6+ 2 a 0.2479(12) 0.0827(7) 0.0413(2) 1. 0 1.22(12) 
S2 S6+ 2 a 0.2442(12) 0.4144(8) 0.1413(2) 1. 0 1.26(12) 
S3 S6+ 2 a 0.2519(12) 0.0811(7) 0.2414(2) 1. 0 1.26(11) 
S4 S6+ 2 a 0.2476(12) 0.4179(8) 0.3413(2) 1. 0 1.36(12) 
S5 S6+ 2 a 0.2440(12) 0.0835(7) 0.4414(2) 1. 0 1.30(12) 
S6 S6+ 2 a 0.2557(12) 0.4189(7) 0.5411(2) 1. 0 1.27(12) 
S7 S6+ 2 a 0.2571(12) 0.0829(7) 0.6410(2) 1. 0 1.25(12) 
S8 S6+ 2 a 0.2473(12) 0.4187(7) 0.7414(2) 1. 0 1.30(12) 
S9 S6+ 2 a 0.2535(12) 0.0828(7) 0.8410(2) 1. 0 1.22(12) 
S10 S6+ 2 a 0.2541(12) 0.4159(8) 0.9412(2) 1. 0 1.34(12) 
O1 O2- 2 a 0.2539(12) 0.0870(43) 0.0082(7) 1. 0 5.04(107) 
O2 O2- 2 a 0.2377(59) 0.4044(48) 0.1086(7) 1. 0 5.52(105) 
O3 O2- 2 a 0.2399(55) 0.0924(45) 0.2084(7) 1. 0 5.44(115) 
O4 O2- 2 a 0.2533(58) 0.4129(44) 0.3085(7) 1. 0 5.34(98) 
O5 O2- 2 a 0.2405(56) 0.0946(49) 0.4084(7) 1. 0 5.89(120) 
O6 O2- 2 a 0.2402(55) 0.4181(43) 0.5086(6) 1. 0 4.91(96) 
O7 O2- 2 a 0.2556(54) 0.0944(44) 0.6083(7) 1. 0 5.09(108) 
O8 O2- 2 a 0.2485(55) 0.4055(46) 0.7091(7) 1. 0 5.50(101) 
O9 O2- 2 a 0.2515(51) 0.0833(41) 0.8076(7) 1. 0 4.75(100) 
O10 O2- 2 a 0.2615(55) 0.3992(42) 0.9085(7) 1. 0 4.68(88) 
O11 O2- 2 a 0.1558(47) 0.2212(26) 0.0525(7) 1. 0 3.32(67) 
O12 O2- 2 a 0.1639(60) 0.2781(35) 0.1520(11) 1. 0 6.39(122) 
O13 O2- 2 a 0.3416(47) 0.2172(24) 0.2548(8) 1. 0 3.61(69) 
O14 O2- 2 a 0.1716(66) 0.2788(37) 0.3516(12) 1. 0 6.59(126) 
O15 O2- 2 a 0.1465(45) 0.2162(26) 0.4543(7) 1. 0 3.15(68) 
O16 O2- 2 a 0.3349(61) 0.2810(35) 0.5526(11) 1. 0 6.00(123) 
O17 O2- 2 a 0.3400(48) 0.2183(27) 0.6542(8) 1. 0 3.70(70) 
O18 O2- 2 a 0.1561(62) 0.2831(34) 0.7562(10) 1. 0 5.71(102) 
O19 O2- 2 a 0.3431(46) 0.2203(27) 0.8526(8) 1. 0 3.71(70) 
O20 O2- 2 a 0.3252(58) 0.2763(33) 0.9551(11) 1. 0 5.68(120) 
O21 O2- 2 a 0.4835(35) 0.0508(23) 0.0549(5) 1. 0 1.80(43) 
O22 O2- 2 a 0.4994(42) 0.4438(27) 0.1521(17) 1. 0 2.77(67) 
O23 O2- 2 a 0.4351(37) -0.0283(24) 0.2532(6) 1. 0 2.39(47) 
O24 O2- 2 a 0.4944(41) 0.4491(27) 0.3543(6) 1. 0 2.58(68) 
O25 O2- 2 a 0.4933(37) 0.0470(24) 0.4539(5) 1. 0 2.04(46) 
O26 O2- 2 a 0.4384(40) 0.5235(25) 0.5529(7) 1. 0 2.71(53) 
O27 O2- 2 a 0.4282(35) -0.0293(24) 0.6528(6) 1. 0 2.16(50) 
O28 O2- 2 a 0.5024(39) 0.4519(26) 0.7526(7) 1. 0 3.19(69) 
O29 O2- 2 a 0.4281(35) -0.0256(25) 0.8529(6) 1. 0 2.32(67) 
O30 O2- 2 a 0.4382(39) 0.5264(25) 0.9521(7) 1. 0 2.74(68) 
O31 O2- 2 a 0.0948(47) -0.0434(28) 0.0480(7) 1. 0 3.37(74) 
O32 O2- 2 a 0.0841(58) 0.5334(38) 0.1476(9) 1. 0 5.22(94) 
O33 O2- 2 a 0.0121(48) 0.0458(29) 0.2521(7) 1. 0 3.89(76) 
O34 O2- 2 a 0.0805(58) 0.5366(36) 0.3470(9) 1. 0 5.13(94) 
O35 O2- 2 a 0.1033(53) -0.0364(33) 0.4479(7) 1. 0 3.90(81) 
O36 O2- 2 a -0.0096(51) 0.4540(34) 0.5519(7) 1. 0 3.92(83) 
O37 O2- 2 a 0.0163(51) 0.0416(31) 0.6533(7) 1. 0 3.57(78) 
O38 O2- 2 a 0.0935(49) 0.5433(29) 0.7448(7) 1. 0 3.72(77) 
O39 O2- 2 a 0.0034(54) 0.0474(32) 0.8527(7) 1. 0 3.98(79) 
O40 O2- 2 a 0.0052(57) 0.4438(36) 0.9501(8) 1. 0 4.36(86) 

#End of data_174058-ICSD


