data_152283-ICSD
#?2014 by Fachinformationszentrum Karlsruhe, and the U.S. Secretary of 
#Commerce on behalf of the United States.  All rights reserved.
_database_code_ICSD                152283
_audit_creation_date               2006/10/01
_audit_update_record               2012/02/01
_chemical_name_systematic
;
Calcium Tricopper Dichromium Diantimony Oxide
;
_chemical_formula_structural       'Ca Cu3 Cr2 Sb2 O12'
_chemical_formula_sum              'Ca1 Cr2 Cu3 O12 Sb2'
_publ_section_title
;
New ferrimagnetic oxide Ca Cu3 Cr2 Sb2 O12: high-pressure synthesis, 
structure and magnetic properties
;
loop_
_citation_id
_citation_journal_abbrev
_citation_year
_citation_journal_volume
_citation_page_first
_citation_page_last
_citation_journal_id_ASTM
primary 'Chemistry of Materials' 2005 17 3552 3557 CMATEX
_publ_author_name
;
Byeon Song-Ho;Lee Seoung-Soo;Parise, J.B.;Woodward, P.M.;Hur Nam Hwi
;
_cell_length_a                     7.4605(4)
_cell_length_b                     7.4605(4)
_cell_length_c                     7.4605(4)
_cell_angle_alpha                  90.
_cell_angle_beta                   90.
_cell_angle_gamma                  90.
_cell_volume                       415.24
_cell_formula_units_Z              2
_symmetry_space_group_name_H-M     'P n -3 Z'
_symmetry_Int_Tables_number        201
_refine_ls_R_factor_all            .0509
loop_
_symmetry_equiv_pos_site_id
_symmetry_equiv_pos_as_xyz
  1	'-z, x+.5, y+.5'
  2	'z+.5, x+.5, -y'
  3	'z+.5, -x, y+.5'
  4	'-z, -x, -y'
  5	'y+.5, -z, x+.5'
  6	'-y, z+.5, x+.5'
  7	'y+.5, z+.5, -x'
  8	'-y, -z, -x'
  9	'x+.5, y+.5, -z'
 10	'x+.5, -y, z+.5'
 11	'-x, y+.5, z+.5'
 12	'-x, -y, -z'
 13	'z, -x+.5, -y+.5'
 14	'-z+.5, -x+.5, y'
 15	'-z+.5, x, -y+.5'
 16	'z, x, y'
 17	'-y+.5, z, -x+.5'
 18	'y, -z+.5, -x+.5'
 19	'-y+.5, -z+.5, x'
 20	'y, z, x'
 21	'-x+.5, -y+.5, z'
 22	'-x+.5, y, -z+.5'
 23	'x, -y+.5, -z+.5'
 24	'x, y, z'
loop_
_atom_type_symbol
_atom_type_oxidation_number
Ca2+	2
Cr3+	3
Cu2+	2
O2-	-2
Sb5+	5
loop_
_atom_site_label
_atom_site_type_symbol
_atom_site_symmetry_multiplicity
_atom_site_Wyckoff_symbol
_atom_site_fract_x
_atom_site_fract_y
_atom_site_fract_z
_atom_site_occupancy
_atom_site_attached_hydrogens
_atom_site_U_iso_or_equiv
Ca1 Ca2+ 2 a 0.250 0.250 0.250 1. 0 0.002(6) 
Cu1 Cu2+ 6 d 0.250 0.750 0.750 1. 0 0.007(2) 
Sb1 Sb5+ 4 b 0 0 0 1. 0 0.0046(6) 
Cr1 Cr3+ 4 c 0.5 0.5 0.5 1. 0 0.0015(9) 
O1 O2- 24 h 0.2589(8) 0.422(1) 0.550(1) 1. 0 0.015(2) 

#End of data_152283-ICSD


