data_9875-ICSD
#?2014 by Fachinformationszentrum Karlsruhe, and the U.S. Secretary of 
#Commerce on behalf of the United States.  All rights reserved.
_database_code_ICSD                9875
_audit_creation_date               1986/10/02
_audit_update_record               2006/04/01
_chemical_name_systematic          'Potassium Tetrafluoroborate'
_chemical_formula_structural       'K (B F4)'
_chemical_formula_sum              'B1 F4 K1'
_chemical_name_mineral             Avogadrite
_publ_section_title                'The crystal structure of K B F4'
loop_
_citation_id
_citation_journal_abbrev
_citation_year
_citation_journal_volume
_citation_page_first
_citation_page_last
_citation_journal_id_ASTM
primary 'Acta Crystallographica B (24,1968-38,1982)' 1969 25 2161 2162 ACBCAR
2 'Phase Transition' 1992 38 127 220 PHTRDP
_publ_author_name                  'Brunton, G.'
_cell_length_a                     8.6588(5)
_cell_length_b                     5.4800(4)
_cell_length_c                     7.0299(8)
_cell_angle_alpha                  90.
_cell_angle_beta                   90.
_cell_angle_gamma                  90.
_cell_volume                       333.57
_cell_formula_units_Z              4
_symmetry_space_group_name_H-M     'P n m a'
_symmetry_Int_Tables_number        62
_refine_ls_R_factor_all            .0384
loop_
_symmetry_equiv_pos_site_id
_symmetry_equiv_pos_as_xyz
  1	'x+.5, y, -z+.5'
  2	'x, -y+.5, z'
  3	'-x+.5, y+.5, z+.5'
  4	'-x, -y, -z'
  5	'-x+.5, -y, z+.5'
  6	'-x, y+.5, -z'
  7	'x+.5, -y+.5, -z+.5'
  8	'x, y, z'
loop_
_atom_type_symbol
_atom_type_oxidation_number
B3+	3
F1-	-1
K1+	1
loop_
_atom_site_label
_atom_site_type_symbol
_atom_site_symmetry_multiplicity
_atom_site_Wyckoff_symbol
_atom_site_fract_x
_atom_site_fract_y
_atom_site_fract_z
_atom_site_occupancy
_atom_site_attached_hydrogens
K1 K1+ 4 c 0.18449(7) 0.25 0.1611(2) 1. 0 
B1 B3+ 4 c 0.0626(4) 0.25 0.6897(7) 1. 0 
F1 F1- 4 c 0.1789(3) 0.25 0.5560(4) 1. 0 
F2 F1- 4 c -.0814(3) 0.25 0.6049(5) 1. 0 
F3 F1- 8 d 0.0774(2) 0.0440(3) 0.8039(3) 1. 0 

#End of data_9875-ICSD


