data_300163-ICSD
#?2014 by Fachinformationszentrum Karlsruhe, and the U.S. Secretary of 
#Commerce on behalf of the United States.  All rights reserved.
_database_code_ICSD                300163
_audit_creation_date               1991/07/10
_audit_update_record               1991/10/30
_chemical_name_systematic
;
Hexasodium Di-mue-tellurido-bis(ditelluridoaluminate)
;
_chemical_formula_structural       'Na6 Al2 Te6'
_chemical_formula_sum              'Al2 Na6 Te6'
_publ_section_title
;
Crystal structure of hexasodium di-mue-
telluridobis(ditelluridoaluminate)
;
loop_
_citation_id
_citation_journal_abbrev
_citation_year
_citation_journal_volume
_citation_page_first
_citation_page_last
_citation_journal_id_ASTM
primary 'Zeitschrift fuer Kristallographie (1979-2010)' 1991 197 139 140 ZEKRDZ
_publ_author_name                  'Eisenmann, B.;Hofmann, A.'
_cell_length_a                     8.062(4)
_cell_length_b                     7.756(4)
_cell_length_c                     14.106(5)
_cell_angle_alpha                  90.
_cell_angle_beta                   90.368(60)
_cell_angle_gamma                  90.
_cell_volume                       882.01
_cell_formula_units_Z              2
_symmetry_space_group_name_H-M     'P 1 21/n 1'
_symmetry_Int_Tables_number        14
_refine_ls_R_factor_all            .052
loop_
_symmetry_equiv_pos_site_id
_symmetry_equiv_pos_as_xyz
  1	'-x+.5, y+.5, -z+.5'
  2	'-x, -y, -z'
  3	'x+.5, -y+.5, z+.5'
  4	'x, y, z'
loop_
_atom_type_symbol
_atom_type_oxidation_number
Al3+	3
Na1+	1
Te2-	-2
loop_
_atom_site_label
_atom_site_type_symbol
_atom_site_symmetry_multiplicity
_atom_site_Wyckoff_symbol
_atom_site_fract_x
_atom_site_fract_y
_atom_site_fract_z
_atom_site_occupancy
_atom_site_attached_hydrogens
Na1 Na1+ 4 e 0.2767(7) 0.5229(7) 0.2187(4) 1. 0 
Na2 Na1+ 4 e 0.6669(7) 0.4992(7) 0.3934(4) 1. 0 
Na3 Na1+ 4 e 0.7848(8) 0.4993(8) 0.1005(4) 1. 0 
Al1 Al3+ 4 e 0.4179(4) 0.1406(4) 0.0817(2) 1. 0 
Te1 Te2- 4 e 0.0807(1) 0.2976(1) 0.4257(1) 1. 0 
Te2 Te2- 4 e 0.9244(1) 0.7419(1) 0.2699 1. 0 
Te3 Te2- 4 e 0.1202(1) 0.2576(1) 0.0744(1) 1. 0 

#End of data_300163-ICSD


