data_25834-ICSD
#?2014 by Fachinformationszentrum Karlsruhe, and the U.S. Secretary of 
#Commerce on behalf of the United States.  All rights reserved.
_database_code_ICSD                25834
_audit_creation_date               1980/01/01
_audit_update_record               2007/08/01
_chemical_name_systematic          'Lithium Manganese Phosphate(V)'
_chemical_formula_structural       'Li Mn (P O4)'
_chemical_formula_sum              'Li1 Mn1 O4 P1'
_chemical_name_mineral             Lithiophilite
_publ_section_title
;
Refinement of the structure of Li Mn P O4
;
loop_
_citation_id
_citation_journal_abbrev
_citation_year
_citation_journal_volume
_citation_page_first
_citation_page_last
_citation_journal_id_ASTM
primary 'Acta Crystallographica (1,1948-23,1967)' 1960 13 325 331 ACCRA9
_publ_author_name                  'Geller, S.;Durand, J.L.'
_cell_length_a                     6.10(2)
_cell_length_b                     10.46(3)
_cell_length_c                     4.744(10)
_cell_angle_alpha                  90.
_cell_angle_beta                   90.
_cell_angle_gamma                  90.
_cell_volume                       302.7
_cell_formula_units_Z              4
_symmetry_space_group_name_H-M     'P m n b'
_symmetry_Int_Tables_number        62
_refine_ls_R_factor_all            .076
loop_
_symmetry_equiv_pos_site_id
_symmetry_equiv_pos_as_xyz
  1	'x, y+.5, -z+.5'
  2	'-x+.5, y, z'
  3	'x+.5, -y+.5, z+.5'
  4	'-x, -y, -z'
  5	'-x, -y+.5, z+.5'
  6	'x+.5, -y, -z'
  7	'-x+.5, y+.5, -z+.5'
  8	'x, y, z'
loop_
_atom_type_symbol
_atom_type_oxidation_number
Li1+	1
Mn2+	2
O2-	-2
P5+	5
loop_
_atom_site_label
_atom_site_type_symbol
_atom_site_symmetry_multiplicity
_atom_site_Wyckoff_symbol
_atom_site_fract_x
_atom_site_fract_y
_atom_site_fract_z
_atom_site_occupancy
_atom_site_attached_hydrogens
_atom_site_B_iso_or_equiv
Li1 Li1+ 4 a 0 0 0 1. 0 1. 
Mn1 Mn2+ 4 c 0.25 0.2817(1) -.0281(4) 1. 0 0.22(4) 
P1 P5+ 4 c 0.25 0.0923(3) 0.4081(7) 1. 0 0.04(5) 
O1 O2- 4 c 0.25 0.0968(9) -.2664(21) 1. 0 0.51(14) 
O2 O2- 4 c 0.25 0.4561(8) 0.2073(20) 1. 0 0.50(14) 
O3 O2- 8 d 0.0492(12) 0.1609(6) 0.2781(14) 1. 0 0.47(10) 

#End of data_25834-ICSD


