data_75031-ICSD
#?2014 by Fachinformationszentrum Karlsruhe, and the U.S. Secretary of 
#Commerce on behalf of the United States.  All rights reserved.
_database_code_ICSD                75031
_audit_creation_date               1995/10/17
_audit_update_record               2012/02/01
_chemical_name_systematic
;
Trilithium Dibarium Tetranitridotantalate
;
_chemical_formula_structural       'Li3 Ba2 (Ta N4)'
_chemical_formula_sum              'Ba2 Li3 N4 Ta1'
_publ_section_title
;
Synthesis and structure of Li3 Ba2 Ta N4
;
loop_
_citation_id
_citation_journal_abbrev
_citation_year
_citation_journal_volume
_citation_page_first
_citation_page_last
_citation_journal_id_ASTM
primary 'Journal of Alloys and Compounds' 1994 206 129 132 JALCEU
_publ_author_name                  'Chen, X.-Z.;Ward, D.L.;Eick, H.A.'
_cell_length_a                     11.294(2)
_cell_length_b                     5.678(1)
_cell_length_c                     11.350(2)
_cell_angle_alpha                  90.
_cell_angle_beta                   121.407(7)
_cell_angle_gamma                  90.
_cell_volume                       621.21
_cell_formula_units_Z              4
_symmetry_space_group_name_H-M     'C 1 2/c 1'
_symmetry_Int_Tables_number        15
_refine_ls_R_factor_all            .052
loop_
_symmetry_equiv_pos_site_id
_symmetry_equiv_pos_as_xyz
  1	'x, -y, z+.5'
  2	'-x, -y, -z'
  3	'-x, y, -z+.5'
  4	'x, y, z'
  5	'x+.5, -y+.5, z+.5'
  6	'-x+.5, -y+.5, -z'
  7	'-x+.5, y+.5, -z+.5'
  8	'x+.5, y+.5, z'
loop_
_atom_type_symbol
_atom_type_oxidation_number
Ba2+	2
Li1+	1
N3-	-3
Ta5+	5
loop_
_atom_site_label
_atom_site_type_symbol
_atom_site_symmetry_multiplicity
_atom_site_Wyckoff_symbol
_atom_site_fract_x
_atom_site_fract_y
_atom_site_fract_z
_atom_site_occupancy
_atom_site_attached_hydrogens
Ta1 Ta5+ 4 e 0 0.11256(7) 0.25 1. 0 
Ba1 Ba2+ 8 f 0.20933(4) 0.96621(4) 0.11183(4) 1. 0 
N1 N3- 8 f 0.1648(6) -.090(1) 0.3376(6) 1. 0 
N2 N3- 8 f 0.0013(7) 0.312(1) 0.1116(7) 1. 0 
Li1 Li1+ 4 e 0 0.638(4) 0.25 1. 0 
Li2 Li1+ 8 f 0.385(2) -.044(3) 0.459(2) 1. 0 

loop_
_atom_site_aniso_label
_atom_site_aniso_type_symbol
_atom_site_aniso_U_11
_atom_site_aniso_U_22
_atom_site_aniso_U_33
_atom_site_aniso_U_12
_atom_site_aniso_U_13
_atom_site_aniso_U_23
Ta1 Ta5+ 0.0026(1) 0.0016(1) 0.0047(1) 0 0.0017(1) 0
Ba1 Ba2+ 0.0069(2) 0.0079(2) 0.0086(2) 0.0002(1) 0.0035(1) -.0006(1)
N1 N3- 0.006(2) 0.009(3) 0.011(2) 0.004(2) 0.001(2) 0.000(2)
N2 N3- 0.013(3) 0.013(3) 0.013(3) -.006(2) 0.006(2) 0.002(2)
Li1 Li1+ 0.02(1) 0.01(1) 0.04(2) 0 0.00(1) 0
Li2 Li1+ 0.014(7) 0.011(7) 0.030(9) -.001(6) 0.002(6) -.011(7)
#End of data_75031-ICSD


