data_300170-ICSD
#?2014 by Fachinformationszentrum Karlsruhe, and the U.S. Secretary of 
#Commerce on behalf of the United States.  All rights reserved.
_database_code_ICSD                300170
_audit_creation_date               1991/07/10
_audit_update_record               2008/02/01
_chemical_name_systematic
;
Hexapotassium Di-mue-selenido-bis(diselenidogallate)
;
_chemical_formula_structural       'K6 (Se2 (Ga Se2)2)'
_chemical_formula_sum              'Ga2 K6 Se6'
_publ_section_title
;
Crystal structure of hexapotassium di-mue-
selenidobis(diselenidogallate)
;
loop_
_citation_id
_citation_journal_abbrev
_citation_year
_citation_journal_volume
_citation_page_first
_citation_page_last
_citation_journal_id_ASTM
primary 'Zeitschrift fuer Kristallographie (1979-2010)' 1991 197 153 154 ZEKRDZ
_publ_author_name                  'Eisenmann, B.;Hofmann, A.'
_cell_length_a                     8.055(3)
_cell_length_b                     12.941(6)
_cell_length_c                     10.535(4)
_cell_angle_alpha                  90.
_cell_angle_beta                   127.67(6)
_cell_angle_gamma                  90.
_cell_volume                       869.25
_cell_formula_units_Z              2
_symmetry_space_group_name_H-M     'P 1 21/c 1'
_symmetry_Int_Tables_number        14
_refine_ls_R_factor_all            .067
loop_
_symmetry_equiv_pos_site_id
_symmetry_equiv_pos_as_xyz
  1	'x, -y+.5, z+.5'
  2	'-x, -y, -z'
  3	'-x, y+.5, -z+.5'
  4	'x, y, z'
loop_
_atom_type_symbol
_atom_type_oxidation_number
Ga3+	3
K1+	1
Se2-	-2
loop_
_atom_site_label
_atom_site_type_symbol
_atom_site_symmetry_multiplicity
_atom_site_Wyckoff_symbol
_atom_site_fract_x
_atom_site_fract_y
_atom_site_fract_z
_atom_site_occupancy
_atom_site_attached_hydrogens
K1 K1+ 4 e 0.3385(6) 0.0903(3) 0.6049(4) 1. 0 
K2 K1+ 4 e 0.1320(6) 0.8100(3) 0.4176(5) 1. 0 
K3 K1+ 4 e 0.3766(5) 0.3766(3) 0.5259(4) 1. 0 
Ga1 Ga3+ 4 e 0.0654(2) 0.0608(1) 0.1643(2) 1. 0 
Se1 Se2- 4 e 0.1598(2) 0.6090(1) 0.6240(2) 1. 0 
Se2 Se2- 4 e 0.3517(2) 0.3216(1) 0.8133(2) 1. 0 
Se3 Se2- 4 e 0.8719(2) 0.4512(1) 0.7649(2) 1. 0 

#End of data_300170-ICSD


