data_1714-ICSD
#?2014 by Fachinformationszentrum Karlsruhe, and the U.S. Secretary of 
#Commerce on behalf of the United States.  All rights reserved.
_database_code_ICSD                1714
_audit_creation_date               1980/01/01
_audit_update_record               2012/02/01
_chemical_name_systematic          'Pentacalcium Hexaaluminium Oxide'
_chemical_formula_structural       'Ca5 Al6 O14'
_chemical_formula_sum              'Al6 Ca5 O14'
_publ_section_title
;
The crystal structure of pentacalcium trialuminate, 5(Ca O) * 3(Al2 
O3)
;
loop_
_citation_id
_citation_journal_abbrev
_citation_year
_citation_journal_volume
_citation_page_first
_citation_page_last
_citation_journal_id_ASTM
primary 'Acta Crystallographica B (24,1968-38,1982)' 1978 34 1422 1428 ACBCAR
_publ_author_name                  'Vincent, M.G.;Jeffery, J.W.'
_cell_length_a                     11.253
_cell_length_b                     10.966
_cell_length_c                     10.29
_cell_angle_alpha                  90.
_cell_angle_beta                   90.
_cell_angle_gamma                  90.
_cell_volume                       1269.79
_cell_formula_units_Z              4
_symmetry_space_group_name_H-M     'C m c 21'
_symmetry_Int_Tables_number        36
_refine_ls_R_factor_all            .098
loop_
_symmetry_equiv_pos_site_id
_symmetry_equiv_pos_as_xyz
  1	'x, -y, z+.5'
  2	'-x, -y, z+.5'
  3	'-x, y, z'
  4	'x, y, z'
  5	'x+.5, -y+.5, z+.5'
  6	'-x+.5, -y+.5, z+.5'
  7	'-x+.5, y+.5, z'
  8	'x+.5, y+.5, z'
loop_
_atom_type_symbol
_atom_type_oxidation_number
Al3+	3
Ca2+	2
O2-	-2
loop_
_atom_site_label
_atom_site_type_symbol
_atom_site_symmetry_multiplicity
_atom_site_Wyckoff_symbol
_atom_site_fract_x
_atom_site_fract_y
_atom_site_fract_z
_atom_site_occupancy
_atom_site_attached_hydrogens
Ca1 Ca2+ 8 b 0.1584(2) 0.1075(1) 0.25 1. 0 
Ca2 Ca2+ 8 b 0.3578(2) 0.3189(1) 0.2000(2) 1. 0 
Ca3 Ca2+ 4 a 0 0.5240(2) 0.2400(3) 1. 0 
Al1 Al3+ 8 b 0.3573(3) 0.1472(2) 0.5093(3) 1. 0 
Al2 Al3+ 4 a 0 0.2983(3) 0.4393(4) 1. 0 
Al3 Al3+ 4 a 0 -.0016(3) 0.4630(4) 1. 0 
Al4 Al3+ 8 b 0.2444(3) 0.4012(2) 0.4759(3) 1. 0 
O1 O2- 8 b 0.2850(6) 0.2757(4) 0.5760(5) 1. 0 
O2 O2- 4 a 0 0.6319(8) 0.569(1) 1. 0 
O3 O2- 8 b 0.2754(5) 0.0235(5) 0.5851(6) 1. 0 
O4 O2- 8 b 0.3748(6) 0.4376(5) 0.3851(6) 1. 0 
O5 O2- 4 a 0 0.1442(6) 0.3873(9) 1. 0 
O6 O2- 8 b 0.3410(7) 0.1500(5) 0.3405(6) 1. 0 
O7 O2- 4 a 0 0.0090(8) 0.6320(8) 1. 0 
O8 O2- 8 b 0.1287(7) 0.3669(6) 0.3707(7) 1. 0 
O9 O2- 4 a 0 0.3013(8) 0.6071(8) 1. 0 

loop_
_atom_site_aniso_label
_atom_site_aniso_type_symbol
_atom_site_aniso_U_11
_atom_site_aniso_U_22
_atom_site_aniso_U_33
_atom_site_aniso_U_12
_atom_site_aniso_U_13
_atom_site_aniso_U_23
Ca1 Ca2+ 0.0100(7) 0.0094(4) 0.0058(4) -.0001(5) 0.0007(5) 0.0031(7)
Ca2 Ca2+ 0.0110(8) 0.0067(3) 0.0043(3) -.0006(4) -.0007(6) -.0016(3)
Ca3 Ca2+ 0.0125(14) 0.0074(7) 0.0055(6) 0 0 -.0001(7)
Al1 Al3+ 0.0094(12) 0.0056(6) 0.0028(6) 0.0010(7) -.0007(10) 0.0002(6)
Al2 Al3+ 0.0070(22) 0.0038(12) 0.0053(10) 0 0 0.0009(12)
Al3 Al3+ 0.0087(19) 0.0058(11) 0.0012(9) 0 0 -.0013(10)
Al4 Al3+ 0.0076(10) 0.0029(5) 0.0054(6) -.0019(7) -.0021(11) 0.0011(16)
O1 O2- 0.0157(31) 0.0053(12) 0.0010(12) 0.0049(15) -.0027(18) -.0015(11)
O2 O2- 0.0116(65) 0.0214(47) 0.0141(34) 0 0 -.0012(15)
O3 O2- 0.0160(31) 0.0159(20) 0.0035(14) -.0008(19) 0.0025(21) -.0008(15)
O4 O2- 0.0060(24) 0.0111(15) 0.0031(12) -.0007(16) -.0015(19) -.0018(212)
O5 O2- 0.0067(22) 0.010(3) 0.0093(25) 0 0 -.0064(28)
O6 O2- 0.012(3) 0.0124(18) 0.0047(13) -.0096(20) -.0015(23) 0.0001(14)
O7 O2- 0.0245(72) 0.0116(36) 0.002(2) 0 0 -.0018(27)
O8 O2- 0.0111(31) 0.0137(18) 0.0091(18) -.0068(20) -.0046(25) 0.0067(17)
O9 O2- 0.0028(12) 0.0093(34) 0.0043(21) 0 0 0.0023(28)
#End of data_1714-ICSD


