data_155632-ICSD
#?2014 by Fachinformationszentrum Karlsruhe, and the U.S. Secretary of 
#Commerce on behalf of the United States.  All rights reserved.
_database_code_ICSD                155632
_audit_creation_date               2007/08/01
_chemical_name_systematic          'Dicalcium Diferrate(III)'
_chemical_formula_structural       'Ca2 (Fe2 O5)'
_chemical_formula_sum              'Ca2 Fe2 O5'
_chemical_name_mineral             Brownmillerite
_publ_section_title
;
Ionic conductivity of brownmillerite-type calcium ferrite under 
oxidizing conditions
;
loop_
_citation_id
_citation_journal_abbrev
_citation_year
_citation_journal_volume
_citation_page_first
_citation_page_last
_citation_journal_id_ASTM
primary 'Solid State Ionics' 2006 177 2923 2930 SSIOD3
_publ_author_name
;
Shaula, A.L.;Pivak, Y.V.;Waerenborgh, J.C.;Gaczynski, P.;Yaremchenko, 
A.A.;Kharton, V.V.
;
_cell_length_a                     5.4258(1)
_cell_length_b                     14.7658(3)
_cell_length_c                     5.5974(1)
_cell_angle_alpha                  90.
_cell_angle_beta                   90.
_cell_angle_gamma                  90.
_cell_volume                       448.44
_cell_formula_units_Z              4
_symmetry_space_group_name_H-M     'P n m a'
_symmetry_Int_Tables_number        62
_refine_ls_R_factor_all            .0568
loop_
_symmetry_equiv_pos_site_id
_symmetry_equiv_pos_as_xyz
  1	'x+.5, y, -z+.5'
  2	'x, -y+.5, z'
  3	'-x+.5, y+.5, z+.5'
  4	'-x, -y, -z'
  5	'-x+.5, -y, z+.5'
  6	'-x, y+.5, -z'
  7	'x+.5, -y+.5, -z+.5'
  8	'x, y, z'
loop_
_atom_type_symbol
_atom_type_oxidation_number
Ca2+	2
Fe3+	3
O2-	-2
loop_
_atom_site_label
_atom_site_type_symbol
_atom_site_symmetry_multiplicity
_atom_site_Wyckoff_symbol
_atom_site_fract_x
_atom_site_fract_y
_atom_site_fract_z
_atom_site_occupancy
_atom_site_attached_hydrogens
_atom_site_B_iso_or_equiv
Ca1 Ca2+ 8 d 0.4804(4) 0.1088(1) 0.0232(3) 1. 0 0.69(6) 
Fe1 Fe3+ 4 a 0 0 0 1. 0 0.62(6) 
Fe2 Fe3+ 4 c 0.9447(4) 0.250 0.9326(4) 1. 0 0.82(7) 
O1 O2- 8 d 0.2604(16) 0.9827(3) 0.2387(11) 1. 0 0.36(14) 
O2 O2- 8 d 0.0255(11) 0.1438(3) 0.0784(8) 1. 0 0.93(13) 
O3 O2- 4 c 0.5983(15) 0.250 0.8790(14) 1. 0 0.90(20) 

#End of data_155632-ICSD


