data_24625-ICSD
#?2014 by Fachinformationszentrum Karlsruhe, and the U.S. Secretary of 
#Commerce on behalf of the United States.  All rights reserved.
_database_code_ICSD                24625
_audit_creation_date               1980/01/01
_audit_update_record               2006/04/01
_chemical_name_systematic          'Tricalcium Silicate Oxide'
_chemical_formula_structural       'Ca3 (Si O4) O'
_chemical_formula_sum              'Ca3 O5 Si1'
_chemical_name_mineral             Hatrurite
_publ_section_title
;
The crystal structure of tricalcium silicate
;
loop_
_citation_id
_citation_journal_abbrev
_citation_year
_citation_journal_volume
_citation_page_first
_citation_page_last
_citation_journal_id_ASTM
primary 'Acta Crystallographica (1,1948-23,1967)' 1952 5 26 35 ACCRA9
2 'Golden Book of Phase Transitions, Wroclaw' 2002 1 1 123 GBOPT5
_publ_author_name                  'Jeffery, J.W.'
_cell_length_a                     7.
_cell_length_b                     7.
_cell_length_c                     25.
_cell_angle_alpha                  90.
_cell_angle_beta                   90.
_cell_angle_gamma                  120.
_cell_volume                       1060.88
_cell_formula_units_Z              9
_symmetry_space_group_name_H-M     'R 3 m H'
_symmetry_Int_Tables_number        160
loop_
_symmetry_equiv_pos_site_id
_symmetry_equiv_pos_as_xyz
  1	'-x+y, y, z'
  2	'x, x-y, z'
  3	'-y, -x, z'
  4	'-x+y, -x, z'
  5	'-y, x-y, z'
  6	'x, y, z'
  7	'-x+y+.6666, y+.3333, z+.3333'
  8	'-x+y+.3333, y+.6666, z+.6666'
  9	'x+.6666, x-y+.3333, z+.3333'
 10	'x+.3333, x-y+.6666, z+.6666'
 11	'-y+.6666, -x+.3333, z+.3333'
 12	'-y+.3333, -x+.6666, z+.6666'
 13	'-x+y+.6666, -x+.3333, z+.3333'
 14	'-x+y+.3333, -x+.6666, z+.6666'
 15	'-y+.6666, x-y+.3333, z+.3333'
 16	'-y+.3333, x-y+.6666, z+.6666'
 17	'x+.6666, y+.3333, z+.3333'
 18	'x+.3333, y+.6666, z+.6666'
loop_
_atom_type_symbol
_atom_type_oxidation_number
Ca2+	2
O2-	-2
Si4+	4
loop_
_atom_site_label
_atom_site_type_symbol
_atom_site_symmetry_multiplicity
_atom_site_Wyckoff_symbol
_atom_site_fract_x
_atom_site_fract_y
_atom_site_fract_z
_atom_site_occupancy
_atom_site_attached_hydrogens
Si1 Si4+ 3 a 0 0 0 1. 0 
Si2 Si4+ 3 a 0 0 -.226 1. 0 
Si3 Si4+ 3 a 0 0 -.783 1. 0 
Ca1 Ca2+ 9 b 0.495 0.505 -.003 1. 0 
Ca2 Ca2+ 9 b 0.835 0.165 -.112 1. 0 
Ca3 Ca2+ 9 b 0.505 0.495 -.224 1. 0 
O1 O2- 3 a 0 0 -.064 1. 0 
O2 O2- 3 a 0 0 -.29 1. 0 
O3 O2- 3 a 0 0 -.847 1. 0 
O4 O2- 3 a 0 0 -.398 1. 0 
O5 O2- 3 a 0 0 -.506 1. 0 
O6 O2- 3 a 0 0 -.614 1. 0 
O7 O2- 9 b 0.124 0.876 -.98 1. 0 
O8 O2- 9 b 0.876 0.124 -.206 1. 0 
O9 O2- 9 b 0.124 0.876 -.763 1. 0 

#End of data_24625-ICSD


