data_421979-ICSD
#?2014 by Fachinformationszentrum Karlsruhe, and the U.S. Secretary of 
#Commerce on behalf of the United States.  All rights reserved.
_database_code_ICSD                421979
_audit_creation_date               2008/08/01
_audit_update_record               2011/02/01
_chemical_name_systematic          'Tripotassium Lanthanum Diarsenate'
_chemical_formula_structural       'K3 La As2 O8'
_chemical_formula_sum              'As2 K3 La1 O8'
_publ_section_title                'Private Communication'
loop_
_citation_id
_citation_journal_abbrev
_citation_year
_citation_journal_volume
_citation_page_first
_citation_page_last
_citation_journal_id_ASTM
primary 'Private Communication' 2010 2010 1 1 PRICO6
_publ_author_name                  'Driss, A.'
_cell_length_a                     7.6512(10)
_cell_length_b                     5.8813(10)
_cell_length_c                     9.9409(10)
_cell_angle_alpha                  90
_cell_angle_beta                   91.345(10)
_cell_angle_gamma                  90
_cell_volume                       447.21
_cell_formula_units_Z              2
_symmetry_space_group_name_H-M     'P 1 21 1'
_symmetry_Int_Tables_number        4
_refine_ls_R_factor_all            .0213
loop_
_symmetry_equiv_pos_site_id
_symmetry_equiv_pos_as_xyz
  1	'-x, y+.5, -z'
  2	'x, y, z'
loop_
_atom_type_symbol
_atom_type_oxidation_number
As5+	5
K1+	1
La3+	3
O2-	-2
loop_
_atom_site_label
_atom_site_type_symbol
_atom_site_symmetry_multiplicity
_atom_site_Wyckoff_symbol
_atom_site_fract_x
_atom_site_fract_y
_atom_site_fract_z
_atom_site_occupancy
_atom_site_attached_hydrogens
_atom_site_U_iso_or_equiv
La1 La3+ 2 a 0.50999(5) 0.00509(6) 0.29000(4) 1 0 0.00911(16) 
As1 As5+ 2 a 0.25982(9) -0.4995(2) 0.08430(7) 1 0 0.00861(19) 
As2 As5+ 2 a 0.30149(9) -0.02410(17) 0.57347(8) 1 0 0.0089(2) 
K1 K1+ 2 a 0.7021(2) -0.4968(5) 0.08331(16) 1 0 0.0174(4) 
K2 K1+ 2 a 0.1406(2) -0.5173(5) 0.40678(19) 1 0 0.0206(4) 
K3 K1+ 2 a 0.9921(2) -0.5059(6) -0.19488(16) 1 0 0.0197(4) 
O1 O2- 2 a 0.3162(7) -0.4900(15) -0.0788(5) 1 0 0.0175(12) 
O2 O2- 2 a 0.0447(7) -0.4840(19) 0.1034(6) 1 0 0.0276(14) 
O3 O2- 2 a 0.3518(14) -0.2688(13) 0.1627(12) 1 0 0.022(2) 
O4 O2- 2 a 0.3384(14) -0.7351(12) 0.1559(12) 1 0 0.023(2) 
O5 O2- 2 a 0.2268(11) -0.2495(11) 0.6553(9) 1 0 0.0143(18) 
O6 O2- 2 a 0.2576(11) 0.2155(11) 0.6629(9) 1 0 0.0144(18) 
O7 O2- 2 a 0.2118(6) 0.0018(14) 0.4170(5) 1 0 0.0149(11) 
O8 O2- 2 a 0.5163(8) -0.0700(11) 0.5507(6) 1 0 0.0178(15) 

loop_
_atom_site_aniso_label
_atom_site_aniso_type_symbol
_atom_site_aniso_U_11
_atom_site_aniso_U_22
_atom_site_aniso_U_33
_atom_site_aniso_U_12
_atom_site_aniso_U_13
_atom_site_aniso_U_23
La1 La3+ 0.0098(2) 0.0105(3) 0.0070(2) -0.0002(3) -0.00033(14) 0.0008(3)
As1 As5+ 0.0101(3) 0.0097(4) 0.0061(3) 0.0000(5) 0.0003(2) 0.0001(6)
As2 As5+ 0.0098(4) 0.0099(5) 0.0069(4) 0.0001(4) 0.0001(3) 0.0001(5)
K1 K1+ 0.0192(8) 0.0188(9) 0.0142(7) 0.0002(14) 0.0017(6) -0.0009(16)
K2 K1+ 0.0172(8) 0.0237(12) 0.0207(9) 0.0007(12) -0.0008(7) -0.0008(14)
K3 K1+ 0.0158(8) 0.0287(11) 0.0145(8) -0.0037(14) -0.0032(6) 0.0012(17)
O1 O2- 0.023(3) 0.023(3) 0.006(2) -0.001(5) 0.003(2) 0.007(5)
O2 O2- 0.014(3) 0.040(4) 0.029(3) 0.000(5) 0.005(2) 0.002(6)
O3 O2- 0.032(6) 0.015(3) 0.020(6) -0.011(4) -0.007(5) -0.004(4)
O4 O2- 0.035(7) 0.018(3) 0.015(6) 0.002(4) -0.004(5) -0.002(4)
O5 O2- 0.021(4) 0.009(3) 0.014(4) 0.001(3) 0.008(3) 0.001(3)
O6 O2- 0.022(4) 0.007(3) 0.014(4) -0.004(3) 0.003(3) -0.004(3)
O7 O2- 0.014(2) 0.021(3) 0.009(2) -0.002(4) -0.0052(19) -0.001(5)
O8 O2- 0.010(3) 0.027(4) 0.017(3) 0.003(3) 0.000(2) -0.004(3)
#End of data_421979-ICSD


