data_280948-ICSD
#?2014 by Fachinformationszentrum Karlsruhe, and the U.S. Secretary of 
#Commerce on behalf of the United States.  All rights reserved.
_database_code_ICSD                280948
_audit_creation_date               2003/04/01
_audit_update_record               2013/02/01
_chemical_name_systematic
;
Dipotassium Nonadecathiopentadecamolybdate
;
_chemical_formula_structural       'K2 (Mo15 S19)'
_chemical_formula_sum              'K2 Mo15 S19'
_publ_section_title
;
K2 Mo15 S19 : a novel ternary reduced molybdenum sulfide containing 
Mo6 and Mo8 clusters
;
loop_
_citation_id
_citation_journal_abbrev
_citation_year
_citation_journal_volume
_citation_page_first
_citation_page_last
_citation_journal_id_ASTM
primary 'Acta Crystallographica, Section E. Structure Reports Online'
 2002 58 12 14 ACSEBH
2 'Materials Research Bulletin' 1980 15 867 874 MRBUAC
_publ_author_name                  'Picard, S.;Gougeon, P.;Potel, M.'
_cell_length_a                     9.3857(9)
_cell_length_b                     9.3857(9)
_cell_length_c                     56.261(9)
_cell_angle_alpha                  90.
_cell_angle_beta                   90.
_cell_angle_gamma                  120.
_cell_volume                       4292.12
_cell_formula_units_Z              6
_symmetry_space_group_name_H-M     'R -3 c H'
_symmetry_Int_Tables_number        167
_refine_ls_R_factor_all            .019
loop_
_symmetry_equiv_pos_site_id
_symmetry_equiv_pos_as_xyz
  1	'x-y, -y, -z+.5'
  2	'-x, -x+y, -z+.5'
  3	'y, x, -z+.5'
  4	'x-y, x, -z'
  5	'y, -x+y, -z'
  6	'-x, -y, -z'
  7	'-x+y, y, z+.5'
  8	'x, x-y, z+.5'
  9	'-y, -x, z+.5'
 10	'-x+y, -x, z'
 11	'-y, x-y, z'
 12	'x, y, z'
 13	'x-y+.6666, -y+.3333, -z+.8333'
 14	'x-y+.3333, -y+.6666, -z+.1666'
 15	'-x+.6666, -x+y+.3333, -z+.8333'
 16	'-x+.3333, -x+y+.6666, -z+.1666'
 17	'y+.6666, x+.3333, -z+.8333'
 18	'y+.3333, x+.6666, -z+.1666'
 19	'x-y+.6666, x+.3333, -z+.3333'
 20	'x-y+.3333, x+.6666, -z+.6666'
 21	'y+.6666, -x+y+.3333, -z+.3333'
 22	'y+.3333, -x+y+.6666, -z+.6666'
 23	'-x+.6666, -y+.3333, -z+.3333'
 24	'-x+.3333, -y+.6666, -z+.6666'
 25	'-x+y+.6666, y+.3333, z+.8333'
 26	'-x+y+.3333, y+.6666, z+.1666'
 27	'x+.6666, x-y+.3333, z+.8333'
 28	'x+.3333, x-y+.6666, z+.1666'
 29	'-y+.6666, -x+.3333, z+.8333'
 30	'-y+.3333, -x+.6666, z+.1666'
 31	'-x+y+.6666, -x+.3333, z+.3333'
 32	'-x+y+.3333, -x+.6666, z+.6666'
 33	'-y+.6666, x-y+.3333, z+.3333'
 34	'-y+.3333, x-y+.6666, z+.6666'
 35	'x+.6666, y+.3333, z+.3333'
 36	'x+.3333, y+.6666, z+.6666'
loop_
_atom_type_symbol
_atom_type_oxidation_number
K1+	1
Mo2.4+	2.4
S2-	-2
loop_
_atom_site_label
_atom_site_type_symbol
_atom_site_symmetry_multiplicity
_atom_site_Wyckoff_symbol
_atom_site_fract_x
_atom_site_fract_y
_atom_site_fract_z
_atom_site_occupancy
_atom_site_attached_hydrogens
_atom_site_U_iso_or_equiv
Mo1 Mo2.4+ 36 f 0.15993(2) 0.16913(2) 0.209620(3) 1. 0 0.00697(4) 
Mo2 Mo2.4+ 18 e 0.16529(3) 0 0.25 1. 0 0.00687(4) 
Mo3 Mo2.4+ 36 f 0.17321(2) 0.15413(2) 0.020470(3) 1. 0 0.00724(4) 
K1 K1+ 12 c 0 0 0.11265(2) 1.000(5) 0 0.0330(3) 
S1 S2- 36 f 0.31022(6) 0.02206(6) 0.213962(8) 1. 0 0.00925(8) 
S2 S2- 18 e -.30348(8) 0 0.25 1. 0 0.01041(12) 
S3 S2- 36 f 0.03573(6) 0.31749(6) 0.016416(8) 1. 0 0.00887(8) 
S4 S2- 12 c 0 0 0.176549(14) 1. 0 0.00980(15) 
S5 S2- 12 c 0 0 0.053632(15) 1. 0 0.01139(15) 

loop_
_atom_site_aniso_label
_atom_site_aniso_type_symbol
_atom_site_aniso_U_11
_atom_site_aniso_U_22
_atom_site_aniso_U_33
_atom_site_aniso_U_12
_atom_site_aniso_U_13
_atom_site_aniso_U_23
Mo1 Mo2.4+ 0.00720(7) 0.00747(7) 0.00629(6) 0.00371(6) 0.00039(5) 
0.00023(5)
Mo2 Mo2.4+ 0.00725(7) 0.00713(10) 0.00619(8) 0.00356(5) -0.00023(4) 
-0.00047(7)
Mo3 Mo2.4+ 0.00811(7) 0.00757(7) 0.00669(6) 0.00441(6) 0.00066(5) 
0.00061(5)
K1 K1+ 0.0258(4) 0.0258(4) 0.0473(8) 0.01292(19) 0 0
S1 S2- 0.0087(2) 0.0098(2) 0.00960(18) 0.00489(17) 0.00096(16) -0.00104(16)
S2 S2- 0.0084(2) 0.0126(3) 0.0117(3) 0.00632(16) 0.00050(11) 0.0010(2)
S3 S2- 0.0098(2) 0.0083(2) 0.00935(18) 0.00509(17) 0.00156(16) -0.00040(15)
S4 S2- 0.0119(2) 0.0119(2) 0.0055(3) 0.00597(11) 0 0
S5 S2- 0.0141(2) 0.0141(2) 0.0059(3) 0.00706(12) 0 0
#End of data_280948-ICSD


