data_33913-ICSD
#?2014 by Fachinformationszentrum Karlsruhe, and the U.S. Secretary of 
#Commerce on behalf of the United States.  All rights reserved.
_database_code_ICSD                33913
_audit_creation_date               1992/01/20
_chemical_name_systematic          'Silver Lead Oxide Bromide'
_chemical_formula_structural       'Ag Pb O Br'
_chemical_formula_sum              'Ag1 Br1 O1 Pb1'
_publ_section_title
;
AgPbOBr - ein neuer Sillen-Typ? Darstellung und Kristallstruktur
;
loop_
_citation_id
_citation_journal_abbrev
_citation_year
_citation_journal_volume
_citation_page_first
_citation_page_last
_citation_journal_id_ASTM
primary 'Zeitschrift fuer Anorganische und Allgemeine Chemie (1950) (DE)'
 1991 597 151 161 ZAACAB
_publ_author_name                  'Riebe, H.J.;Keller, H.L.'
_cell_length_a                     3.981(1)
_cell_length_b                     3.981(1)
_cell_length_c                     11.07(1)
_cell_angle_alpha                  90.
_cell_angle_beta                   90.
_cell_angle_gamma                  90.
_cell_volume                       175.44
_cell_formula_units_Z              2
_symmetry_space_group_name_H-M     'P 4/n m m Z'
_symmetry_Int_Tables_number        129
_refine_ls_R_factor_all            .065
loop_
_symmetry_equiv_pos_site_id
_symmetry_equiv_pos_as_xyz
  1	'y+.5, x+.5, -z'
  2	'-y, x+.5, -z'
  3	'y+.5, -x, -z'
  4	'-y, -x, -z'
  5	'x+.5, y+.5, -z'
  6	'-x, y+.5, -z'
  7	'x+.5, -y, -z'
  8	'-x, -y, -z'
  9	'-y+.5, -x+.5, z'
 10	'y, -x+.5, z'
 11	'-y+.5, x, z'
 12	'y, x, z'
 13	'-x+.5, -y+.5, z'
 14	'x, -y+.5, z'
 15	'-x+.5, y, z'
 16	'x, y, z'
loop_
_atom_type_symbol
_atom_type_oxidation_number
Ag1+	1
Br1-	-1
O2-	-2
Pb2+	2
loop_
_atom_site_label
_atom_site_type_symbol
_atom_site_symmetry_multiplicity
_atom_site_Wyckoff_symbol
_atom_site_fract_x
_atom_site_fract_y
_atom_site_fract_z
_atom_site_occupancy
_atom_site_attached_hydrogens
Ag1 Ag1+ 2 c 0.25 0.25 0.3447(8) 1. 0 
Pb1 Pb2+ 2 c 0.25 0.25 0.8912(4) 1. 0 
O1 O2- 2 a 0.75 0.25 0 1. 0 
Br1 Br1- 2 c 0.25 0.25 0.596(1) 1. 0 

loop_
_atom_site_aniso_label
_atom_site_aniso_type_symbol
_atom_site_aniso_U_11
_atom_site_aniso_U_22
_atom_site_aniso_U_33
_atom_site_aniso_U_12
_atom_site_aniso_U_13
_atom_site_aniso_U_23
Ag1 Ag1+ 0.0588(19) 0.0588(19) 0.0658(48) 0 0 0
Pb1 Pb2+ 0.0289(5) 0.0289(5) 0.0324(12) 0 0 0
O1 O2- 0.0631(98) 0.0631(98) 0.102(11) 0 0 0
Br1 Br1- 0.0634(22) 0.0634(22) 0.1090(77) 0 0 0
#End of data_33913-ICSD


