data_85131-ICSD
#?2014 by Fachinformationszentrum Karlsruhe, and the U.S. Secretary of 
#Commerce on behalf of the United States.  All rights reserved.
_database_code_ICSD                85131
_audit_creation_date               1999/06/02
_audit_update_record               2002/04/01
_chemical_name_systematic          'Calcium Zinc Arsenate(V) Hydroxide'
_chemical_formula_structural       'Ca Zn (As O4) (O H)'
_chemical_formula_sum              'H1 As1 Ca1 O5 Zn1'
_chemical_name_mineral             Austinite
_publ_section_title
;
Crystal structure of austinite, Ca Zn (As O4) O H
;
loop_
_citation_id
_citation_journal_abbrev
_citation_year
_citation_journal_volume
_citation_page_first
_citation_page_last
_citation_journal_id_ASTM
primary 'Mineralogical Magazine (1969-)' 1997 61 677 683 MNLMBB
_publ_author_name
;
Clark, L.A.;Pluth, J.J.;Steele, I.;Smith, J.V.;Sutton, S.R.
;
_cell_length_a                     7.5092(8)
_cell_length_b                     9.0438(9)
_cell_length_c                     5.9343(8)
_cell_angle_alpha                  90.
_cell_angle_beta                   90.
_cell_angle_gamma                  90.
_cell_volume                       403.01
_cell_formula_units_Z              4
_symmetry_space_group_name_H-M     'P 21 21 21'
_symmetry_Int_Tables_number        19
_refine_ls_R_factor_all            .036
loop_
_symmetry_equiv_pos_site_id
_symmetry_equiv_pos_as_xyz
  1	'-x, y+.5, -z+.5'
  2	'x+.5, -y+.5, -z'
  3	'-x+.5, -y, z+.5'
  4	'x, y, z'
loop_
_atom_type_symbol
_atom_type_oxidation_number
As5+	5
Ca2+	2
H1+	1
O2-	-2
Zn2+	2
loop_
_atom_site_label
_atom_site_type_symbol
_atom_site_symmetry_multiplicity
_atom_site_Wyckoff_symbol
_atom_site_fract_x
_atom_site_fract_y
_atom_site_fract_z
_atom_site_occupancy
_atom_site_attached_hydrogens
_atom_site_U_iso_or_equiv
As1 As5+ 4 a 0.62285(2) 0.67699(2) 0.51670(3) 1. 0 0 
Zn1 Zn2+ 4 a 0.23594(3) 0.49358(3) 0.24316(4) 1. 0 0 
Ca1 Ca2+ 4 a 0.63121(5) 0.32805(3) 0.47712(6) 1. 0 0 
O1 O2- 4 a 0.4475(2) 0.5587(2) 0.4900(2) 1. 0 0 
O2 O2- 4 a 0.7914(2) 0.5633(2) 0.5882(2) 1. 0 0 
O3 O2- 4 a 0.3500(2) 0.2678(2) 0.2309(2) 1. 0 0 
O4 O2- 4 a 0.3970(2) 0.2903(2) 0.7585(2) 1. 0 0 
O5 O2- 4 a 0.1085(2) 0.4269(2) 0.5087(2) 1. 0 0 
H1 H1+ 4 a 0.014(5) 0.473(3) 0.513(5) 1. 0 0.027(8) 

loop_
_atom_site_aniso_label
_atom_site_aniso_type_symbol
_atom_site_aniso_U_11
_atom_site_aniso_U_22
_atom_site_aniso_U_33
_atom_site_aniso_U_12
_atom_site_aniso_U_13
_atom_site_aniso_U_23
As1 As5+ 0.00616(8) 0.00612(8) 0.00552(8) -0.00080(5) -0.00004(6) 
0.00014(5)
Zn1 Zn2+ 0.0110(1) 0.0116(1) 0.0063(1) -0.00114(6) 0.00099(7) 0.00167(6)
Ca1 Ca2+ 0.0104(2) 0.0076(2) 0.0114(2) 0.0007(1) 0.0011(1) 0.0005(1)
O1 O2- 0.0110(5) 0.0108(5) 0.0098(6) -0.0037(4) 0.0003(5) 0.0004(5)
O2 O2- 0.0103(5) 0.0147(6) 0.0171(6) 0.0026(5) -0.0025(5) 0.0007(5)
O3 O2- 0.0121(5) 0.0116(5) 0.0083(5) 0.0026(4) 0.0010(4) -0.0013(4)
O4 O2- 0.0139(5) 0.0125(5) 0.0093(5) 0.0026(4) 0.0019(5) 0.0028(4)
O5 O2- 0.0089(5) 0.0096(5) 0.0078(5) 0.0001(4) -0.0001(5) 0.0011(4)
#End of data_85131-ICSD


