data_156102-ICSD
#?2014 by Fachinformationszentrum Karlsruhe, and the U.S. Secretary of 
#Commerce on behalf of the United States.  All rights reserved.
_database_code_ICSD                156102
_audit_creation_date               2007/08/01
_chemical_name_systematic
;
Dipotassium Dicobalt Cyclo-hexaphosphate(V)
;
_chemical_formula_structural       'K2 Co2 (P6 O18)'
_chemical_formula_sum              'Co2 K2 O18 P6'
_publ_section_title
;
Crystal structure and characterization of hydrothermal synthesized K2 
Co2 P6 O18 crystal
;
loop_
_citation_id
_citation_journal_abbrev
_citation_year
_citation_journal_volume
_citation_page_first
_citation_page_last
_citation_journal_id_ASTM
primary
;
Materials Science and Engineering A: Structural Matrials: Properties, 
Microstructure and Processing
;
 2007 445 543 548 MSAPE3
_publ_author_name
;
Gopalakrishna, G.S.;Mahesh, M.J.;Ashamanjari, K.G.;Shashidara Prasad, 
J.
;
_cell_length_a                     7.3210(5)
_cell_length_b                     7.4510(5)
_cell_length_c                     9.9940(6)
_cell_angle_alpha                  67.604(6)
_cell_angle_beta                   68.328(4)
_cell_angle_gamma                  59.820(4)
_cell_volume                       424.81
_cell_formula_units_Z              1
_symmetry_space_group_name_H-M     'P 1'
_symmetry_Int_Tables_number        1
_refine_ls_R_factor_all            .0675
loop_
_symmetry_equiv_pos_site_id
_symmetry_equiv_pos_as_xyz
  1	'x, y, z'
loop_
_atom_type_symbol
_atom_type_oxidation_number
Co2+	2
K1+	1
O2-	-2
P5+	5
loop_
_atom_site_label
_atom_site_type_symbol
_atom_site_symmetry_multiplicity
_atom_site_Wyckoff_symbol
_atom_site_fract_x
_atom_site_fract_y
_atom_site_fract_z
_atom_site_occupancy
_atom_site_attached_hydrogens
_atom_site_U_iso_or_equiv
Co1 Co2+ 1 a 0.0228(3) 0.6729(3) 0.5059(2) 1. 0 0.0151(5) 
Co2 Co2+ 1 a 0.5223(3) 0.1727(4) 0.0053(3) 1. 0 0.0161(5) 
P1 P5+ 1 a 0.0895(4) 0.0981(5) 0.2214(3) 1. 0 0.0185(8) 
P2 P5+ 1 a 0.3316(4) 0.5673(5) 0.7167(3) 1. 0 0.0196(9) 
O1 O2- 1 a -0.154(2) 0.884(2) 0.6354(13) 1. 0 0.023(2) 
O2 O2- 1 a 0.3099(16) 0.574(3) 0.5692(12) 1. 0 0.037(4) 
O3 O2- 1 a 0.408(4) 0.342(3) 0.801(3) 1. 0 0.045(5) 
O4 O2- 1 a 0.4653(9) 0.6844(13) 0.7032(7) 1. 0 0.0153(14) 
O5 O2- 1 a -0.007(8) 0.420(5) 0.680(4) 1. 0 0.075(12) 
O6 O2- 1 a -0.144(3) 0.245(3) 0.187(3) 1. 0 0.067(7) 
O7 O2- 1 a 0.262(2) 0.084(3) 0.0797(12) 1. 0 0.033(3) 
O8 O2- 1 a -0.259(2) 0.744(2) 0.4437(16) 1. 0 0.028(2) 
O9 O2- 1 a 0.2034(19) 0.451(2) 0.3711(18) 1. 0 0.030(3) 
O10 O2- 1 a 0.6319(19) -0.0030(18) 0.1991(13) 1. 0 0.028(2) 
O11 O2- 1 a 0.118(4) 0.883(3) 0.3256(11) 1. 0 0.045(4) 
P3 P5+ 1 a 0.1558(4) 0.4375(4) 0.2475(3) 1. 0 0.0159(7) 
P4 P5+ 1 a -0.2847(5) 0.7764(5) 0.2933(4) 1. 0 0.0181(8) 
O12 O2- 1 a -0.0575(14) 0.6459(14) 0.2011(10) 1. 0 0.0160(18) 
O13 O2- 1 a 0.3294(15) 0.4226(19) 0.0999(16) 1. 0 0.027(3) 
P5 P5+ 1 a -0.1080(4) 0.9009(4) 0.7657(3) 1. 0 0.0163(8) 
K1 K1+ 1 a 0.518(2) 0.675(2) 0.005(3) 1. 0 0.115(4) 
K2 K1+ 1 a 0.4710(7) 0.1485(6) 0.5553(6) 1. 0 0.0447(10) 
O14 O2- 1 a 0.7222(17) -0.0812(18) 0.9024(11) 1. 0 0.0178(19) 
P6 P5+ 1 a -0.0424(4) 0.2435(5) 0.7915(3) 1. 0 0.0155(7) 
O15 O2- 1 a 0.183(3) 0.116(7) 0.821(4) 1. 0 0.076(12) 
O16 O2- 1 a 0.1025(15) 0.706(2) 0.8094(14) 1. 0 0.030(3) 
O17 O2- 1 a 0.0942(8) 0.2421(9) 0.3044(5) 1. 0 0.0055(10) 
O18 O2- 1 a 0.770(2) 0.275(2) 0.925(2) 1. 0 0.035(3) 

#End of data_156102-ICSD


