data_82347-ICSD
#?2014 by Fachinformationszentrum Karlsruhe, and the U.S. Secretary of 
#Commerce on behalf of the United States.  All rights reserved.
_database_code_ICSD                82347
_audit_creation_date               1997/11/10
_audit_update_record               2002/04/01
_chemical_name_systematic
;
Nonapotassium Dicobalt Heptasulfide
;
_chemical_formula_structural       'K9 Co2 S7'
_chemical_formula_sum              'Co2 K9 S7'
_publ_section_title
;
Ein neuer Typ ternaerer Cobaltsulfide A9 Co2 S7 (A = K, Rb, Cs) mit 
trigonal-planaren (Co S3)- Baugruppen des zwei- und dreiwertigen 
Cobalts
;
loop_
_citation_id
_citation_journal_abbrev
_citation_year
_citation_journal_volume
_citation_page_first
_citation_page_last
_citation_journal_id_ASTM
primary 'Zeitschrift fuer Anorganische und Allgemeine Chemie (1950) (DE)'
 1995 621 405 408 ZAACAB
_publ_author_name
;
Bronger, W.;Koelman, W.;Schmitz, D.
;
_cell_length_a                     12.732(7)
_cell_length_b                     12.732(7)
_cell_length_c                     12.732(7)
_cell_angle_alpha                  90.
_cell_angle_beta                   90.
_cell_angle_gamma                  90.
_cell_volume                       2063.91
_cell_formula_units_Z              4
_symmetry_space_group_name_H-M     'P 21 3'
_symmetry_Int_Tables_number        198
_refine_ls_R_factor_all            .026
loop_
_symmetry_equiv_pos_site_id
_symmetry_equiv_pos_as_xyz
  1	'-z+.5, -x, y+.5'
  2	'-y+.5, -z, x+.5'
  3	'-x+.5, -y, z+.5'
  4	'-z, x+.5, -y+.5'
  5	'-y, z+.5, -x+.5'
  6	'-x, y+.5, -z+.5'
  7	'z+.5, -x+.5, -y'
  8	'y+.5, -z+.5, -x'
  9	'x+.5, -y+.5, -z'
 10	'z, x, y'
 11	'y, z, x'
 12	'x, y, z'
loop_
_atom_type_symbol
_atom_type_oxidation_number
Co2+	2
Co3+	3
K1+	1
S2-	-2
loop_
_atom_site_label
_atom_site_type_symbol
_atom_site_symmetry_multiplicity
_atom_site_Wyckoff_symbol
_atom_site_fract_x
_atom_site_fract_y
_atom_site_fract_z
_atom_site_occupancy
_atom_site_attached_hydrogens
K1 K1+ 12 b 0.8264(2) 0.0224(2) 0.3046(3) 1. 0 
K2 K1+ 4 a 0.4209(2) 0.4209(2) 0.4209(2) 1. 0 
K3 K1+ 12 b 0.1793(2) 0.0169(2) 0.8052(2) 1. 0 
K4 K1+ 4 a 0.2494(9) 0.2494(9) 0.2494(9) 1. 0 
K5 K1+ 4 a 0.0770(2) 0.0770(2) 0.0770(2) 1. 0 
Co1 Co2+ 4 a 0.9302(1) 0.9302(1) 0.9302(1) 1. 0 
Co2 Co3+ 4 a 0.5647(1) 0.5647(1) 0.5647(1) 1. 0 
S1 S2- 12 b 0.9248(3) 0.0725(3) 0.8239(2) 1. 0 
S2 S2- 12 b 0.0781(2) 0.0673(2) 0.3244(2) 1. 0 
S3 S2- 4 a 0.7480(7) 0.7480(7) 0.7480(7) 1. 0 

loop_
_atom_site_aniso_label
_atom_site_aniso_type_symbol
_atom_site_aniso_U_11
_atom_site_aniso_U_22
_atom_site_aniso_U_33
_atom_site_aniso_U_12
_atom_site_aniso_U_13
_atom_site_aniso_U_23
K1 K1+ 0.026(1) 0.026(1) 0.053(2) 0.002(1) -0.011(1) -0.006(1)
K2 K1+ 0.036(1) 0.036(1) 0.036(1) -0.009(1) -0.009(1) -0.009(1)
K3 K1+ 0.030(1) 0.024(1) 0.025(1) 0.006(1) 0.0001(10) 0.012(1)
K4 K1+ 0.0284(7) 0.0284(7) 0.0284(7) 0.0006(9) 0.0006(9) 0.0006(9)
K5 K1+ 0.034(1) 0.034(1) 0.034(1) -0.001(1) -0.001(1) -0.001(1)
Co1 Co2+ 0.0150(4) 0.0150(4) 0.0150(4) 0.0018(6) 0.0018(6) 0.0018(6)
Co2 Co3+ 0.0238(5) 0.0238(5) 0.0238(5) -0.0054(7) -0.0054(7) -0.0054(7)
S1 S2- 0.025(1) 0.035(1) 0.033(1) 0.016(1) 0.006(1) 0.006(1)
S2 S2- 0.026(1) 0.016(1) 0.021(1) 0.007(1) 0.001(1) 0.010(1)
S3 S2- 0.0256(8) 0.0256(8) 0.0256(8) 0.002(1) 0.002(1) 0.002(1)
#End of data_82347-ICSD


