data_280076-ICSD
#?2014 by Fachinformationszentrum Karlsruhe, and the U.S. Secretary of 
#Commerce on behalf of the United States.  All rights reserved.
_database_code_ICSD                280076
_audit_creation_date               2000/07/15
_chemical_name_systematic          'Dicalcium Diborate'
_chemical_formula_structural       'Ca2 (B2 O5)'
_chemical_formula_sum              'B2 Ca2 O5'
_publ_section_title                'Calcium pyroborate, Ca2 B2 O5'
loop_
_citation_id
_citation_journal_abbrev
_citation_year
_citation_journal_volume
_citation_page_first
_citation_page_last
_citation_journal_id_ASTM
primary 'Acta Crystallographica, Section C: Crystal Structure Communications'
 1999 55 4 6 ACSCEE
_publ_author_name
;
Lin, Q.-S.;Cheng, W.-D.;Chen, J.-T.;Huang, J.-S.
;
_cell_length_a                     7.212(2)
_cell_length_b                     5.177(1)
_cell_length_c                     11.498(3)
_cell_angle_alpha                  90.
_cell_angle_beta                   93.11(2)
_cell_angle_gamma                  90.
_cell_volume                       428.66
_cell_formula_units_Z              4
_symmetry_space_group_name_H-M     'P 1 21/c 1'
_symmetry_Int_Tables_number        14
_refine_ls_R_factor_all            .0561
loop_
_symmetry_equiv_pos_site_id
_symmetry_equiv_pos_as_xyz
  1	'x, -y+.5, z+.5'
  2	'-x, -y, -z'
  3	'-x, y+.5, -z+.5'
  4	'x, y, z'
loop_
_atom_type_symbol
_atom_type_oxidation_number
B3+	3
Ca2+	2
O2-	-2
loop_
_atom_site_label
_atom_site_type_symbol
_atom_site_symmetry_multiplicity
_atom_site_Wyckoff_symbol
_atom_site_fract_x
_atom_site_fract_y
_atom_site_fract_z
_atom_site_occupancy
_atom_site_attached_hydrogens
Ca1 Ca2+ 4 e 0.8764(1) 0.1011(2) 0.16419(8) 1. 0 
Ca2 Ca2+ 4 e 0.3819(1) 0.0643(2) 0.13299(7) 1. 0 
O1 O2- 4 e 0.7711(5) 0.0931(6) 0.5159(3) 1. 0 
O2 O2- 4 e 0.6437(5) -.1785(6) 0.0708(3) 1. 0 
O3 O2- 4 e 0.5909(5) 0.4209(7) 0.1744(3) 1. 0 
O4 O2- 4 e 1.1077(5) -.1926(7) 0.1418(3) 1. 0 
O5 O2- 4 e 0.8523(4) -.1451(6) 0.3430(3) 1. 0 
B1 B3+ 4 e 0.8449(6) 0.076(1) 0.4044(4) 1. 0 
B2 B3+ 4 e 0.6631(7) -.061(1) 0.5886(4) 1. 0 

loop_
_atom_site_aniso_label
_atom_site_aniso_type_symbol
_atom_site_aniso_U_11
_atom_site_aniso_U_22
_atom_site_aniso_U_33
_atom_site_aniso_U_12
_atom_site_aniso_U_13
_atom_site_aniso_U_23
Ca1 Ca2+ 0.0062(3) 0.0045(3) 0.0068(3) -.0003(3) 0.0006(2) 0.0004(3)
Ca2 Ca2+ 0.0053(3) 0.0053(3) 0.0062(3) 0.0006(3) 0.0018(2) 0.0009(3)
O1 O2- 0.019(1) 0.004(1) 0.010(1) -.007(1) 0.009(1) -.003(1)
O2 O2- 0.009(1) 0.006(1) 0.008(1) 0.001(1) 0.001(1) 0.002(1)
O3 O2- 0.013(1) 0.008(1) 0.007(1) -.004(1) 0.003(1) 0.001(1)
O4 O2- 0.010(1) 0.005(1) 0.014(1) 0.002(1) 0.005(1) -.001(1)
O5 O2- 0.009(1) 0.003(1) 0.011(1) -.001(1) 0.002(1) 0.000(1)
B1 B3+ 0.006(1) 0.004(2) 0.007(2) 0.001(1) 0.002(1) -.001(1)
B2 B3+ 0.009(2) 0.005(2) 0.004(1) -.002(1) 0.000(1) 0.000(1)
#End of data_280076-ICSD


