data_1033-ICSD
#?2014 by Fachinformationszentrum Karlsruhe, and the U.S. Secretary of 
#Commerce on behalf of the United States.  All rights reserved.
_database_code_ICSD                1033
_audit_creation_date               1980/01/01
_audit_update_record               2010/02/01
_chemical_name_systematic          'Cesium Phyllo-dithiotriargentate'
_chemical_formula_structural       'Cs (Ag3 S2)'
_chemical_formula_sum              'Ag3 Cs1 S2'
_publ_section_title
;
Ueber die Struktur von Cs Ag3 S2 und Rb Ag3 S2
;
loop_
_citation_id
_citation_journal_abbrev
_citation_year
_citation_journal_volume
_citation_page_first
_citation_page_last
_citation_journal_id_ASTM
primary 'Zeitschrift fuer Anorganische und Allgemeine Chemie (1950) (DE)'
 1977 430 61 65 ZAACAB
_publ_author_name                  'Burschka, C.;Bronger, W.'
_cell_length_a                     16.1750(90)
_cell_length_b                     4.325(2)
_cell_length_c                     8.980(4)
_cell_angle_alpha                  90.
_cell_angle_beta                   113.0(1)
_cell_angle_gamma                  90.
_cell_volume                       578.27
_cell_formula_units_Z              4
_symmetry_space_group_name_H-M     'C 1 2/m 1'
_symmetry_Int_Tables_number        12
_refine_ls_R_factor_all            .06
loop_
_symmetry_equiv_pos_site_id
_symmetry_equiv_pos_as_xyz
  1	'-x, y, -z'
  2	'-x, -y, -z'
  3	'x, -y, z'
  4	'x, y, z'
  5	'-x+.5, y+.5, -z'
  6	'-x+.5, -y+.5, -z'
  7	'x+.5, -y+.5, z'
  8	'x+.5, y+.5, z'
loop_
_atom_type_symbol
_atom_type_oxidation_number
Ag1+	1
Cs1+	1
S2-	-2
loop_
_atom_site_label
_atom_site_type_symbol
_atom_site_symmetry_multiplicity
_atom_site_Wyckoff_symbol
_atom_site_fract_x
_atom_site_fract_y
_atom_site_fract_z
_atom_site_occupancy
_atom_site_attached_hydrogens
Cs1 Cs1+ 4 i 0.1356(1) 0 0.0428(1) 1. 0 
Ag1 Ag1+ 4 i 0.5954(1) 0 0.6473(1) 1. 0 
Ag2 Ag1+ 4 i 0.6886(1) 0 0.4248(1) 1. 0 
Ag3 Ag1+ 4 i 0.0564(1) 0 0.3972(1) 1. 0 
S1 S2- 4 i 0.1924(2) 0 0.6833(3) 1. 0 
S2 S2- 4 i 0.5215(2) 0 0.2342(3) 1. 0 

loop_
_atom_site_aniso_label
_atom_site_aniso_type_symbol
_atom_site_aniso_U_11
_atom_site_aniso_U_22
_atom_site_aniso_U_33
_atom_site_aniso_U_12
_atom_site_aniso_U_13
_atom_site_aniso_U_23
Cs1 Cs1+ 0.021 0.022 0.019 0 0.006 0
Ag1 Ag1+ 0.029(1) 0.030(1) 0.029 0 0.014 0
Ag2 Ag1+ 0.025(1) 0.056(1) 0.049(1) 0 0.020(1) 0
Ag3 Ag1+ 0.043(1) 0.021(1) 0.028 0 0.017 0
S1 S2- 0.011(1) 0.017(2) 0.019(1) 0 0.006(1) 0
S2 S2- 0.012(1) 0.011(2) 0.015(1) 0 0.004(1) 0
#End of data_1033-ICSD


