data_410954-ICSD
#?2014 by Fachinformationszentrum Karlsruhe, and the U.S. Secretary of 
#Commerce on behalf of the United States.  All rights reserved.
_database_code_ICSD                410954
_audit_creation_date               2002/04/01
_chemical_name_systematic
;
Potassium Tri-mue-chloro-bis(oxodichloromolybdate(V))
;
_chemical_formula_structural       'K (Cl3 (Mo O Cl2)2)'
_chemical_formula_sum              'Cl7 K1 Mo2 O2'
_publ_section_title
;
Kaliumheptachlorodioxodimolybdat(V), K Mo2 O2 Cl7
;
loop_
_citation_id
_citation_journal_abbrev
_citation_year
_citation_journal_volume
_citation_page_first
_citation_page_last
_citation_journal_id_ASTM
primary 'Zeitschrift fuer Anorganische und Allgemeine Chemie (1950) (DE)'
 2000 626 12 13 ZAACAB
_publ_author_name                  'Rabe, S.;Mueller, U.'
_cell_length_a                     10.941(2)
_cell_length_b                     11.391(1)
_cell_length_c                     10.180(1)
_cell_angle_alpha                  90.
_cell_angle_beta                   110.16(1)
_cell_angle_gamma                  90.
_cell_volume                       1190.99
_cell_formula_units_Z              4
_symmetry_space_group_name_H-M     'C 1 2/c 1'
_symmetry_Int_Tables_number        15
_refine_ls_R_factor_all            .032
loop_
_symmetry_equiv_pos_site_id
_symmetry_equiv_pos_as_xyz
  1	'x, -y, z+.5'
  2	'-x, -y, -z'
  3	'-x, y, -z+.5'
  4	'x, y, z'
  5	'x+.5, -y+.5, z+.5'
  6	'-x+.5, -y+.5, -z'
  7	'-x+.5, y+.5, -z+.5'
  8	'x+.5, y+.5, z'
loop_
_atom_type_symbol
_atom_type_oxidation_number
Cl1-	-1
K1+	1
Mo5+	5
O2-	-2
loop_
_atom_site_label
_atom_site_type_symbol
_atom_site_symmetry_multiplicity
_atom_site_Wyckoff_symbol
_atom_site_fract_x
_atom_site_fract_y
_atom_site_fract_z
_atom_site_occupancy
_atom_site_attached_hydrogens
Mo1 Mo5+ 8 f 0.11314(3) 0.24129(3) 0.16100(3) 1. 0 
Cl1 Cl1- 8 f -.13417(9) 0.33632(8) 0.12159(9) 1. 0 
Cl2 Cl1- 4 e 0 0.09086(12) 0.25 1. 0 
Cl3 Cl1- 8 f 0.01057(11) 0.17665(9) -.0659(1) 1. 0 
Cl4 Cl1- 8 f 0.16033(10) 0.42059(9) 0.08072(10) 1. 0 
O1 O2- 8 f 0.2539(3) 0.1727(3) 0.2058(3) 1. 0 
K1 K1+ 4 e 0 0.41345(12) -.25 1. 0 

loop_
_atom_site_aniso_label
_atom_site_aniso_type_symbol
_atom_site_aniso_U_11
_atom_site_aniso_U_22
_atom_site_aniso_U_33
_atom_site_aniso_U_12
_atom_site_aniso_U_13
_atom_site_aniso_U_23
Mo1 Mo5+ 0.02094(19) 0.01869(19) 0.01533(19) 0.00305(14) 0.00902(14) 
0.00085(14)
Cl1 Cl1- 0.0186(5) 0.0243(5) 0.0145(4) -.0010(4) 0.0041(4) 0.0019(4)
Cl2 Cl1- 0.0396(9) 0.0168(7) 0.0272(7) 0 0.0193(7) 0
Cl3 Cl1- 0.0417(6) 0.0303(6) 0.0177(5) -.0004(5) 0.0130(5) -.0055(4)
Cl4 Cl1- 0.0312(6) 0.0241(5) 0.0272(5) -.0011(4) 0.0165(5) 0.0047(4)
O1 O2- 0.0294(17) 0.0293(17) 0.0310(16) 0.0084(13) 0.0148(14) 0.0024(14)
K1 K1+ 0.0277(7) 0.0325(7) 0.0288(7) 0 0.0093(6) 0
#End of data_410954-ICSD


