data_30523-ICSD
#?2014 by Fachinformationszentrum Karlsruhe, and the U.S. Secretary of 
#Commerce on behalf of the United States.  All rights reserved.
_database_code_ICSD                30523
_audit_creation_date               1980/12/31
_audit_update_record               2006/04/01
_chemical_name_systematic          'Magnesium Catena-silicate'
_chemical_formula_structural       'Mg (Si O3)'
_chemical_formula_sum              'Mg1 O3 Si1'
_chemical_name_mineral             Enstatite
_publ_section_title
;
On the estimation of atomic charges by the X-ray method for some 
oxides and silicates
;
loop_
_citation_id
_citation_journal_abbrev
_citation_year
_citation_journal_volume
_citation_page_first
_citation_page_last
_citation_journal_id_ASTM
primary 'Acta Crystallographica A (24,1968-38,1982)' 1980 36 904 915 ACACBN
2 'Golden Book of Phase Transitions, Wroclaw' 2002 1 1 123 GBOPT5
_publ_author_name
;
Sasaki, S.;Fujino, K.;Takeuchi, Y.;Sadanaga, R.
;
_cell_length_a                     18.2270(40)
_cell_length_b                     8.819(2)
_cell_length_c                     5.179(1)
_cell_angle_alpha                  90.
_cell_angle_beta                   90.
_cell_angle_gamma                  90.
_cell_volume                       832.49
_cell_formula_units_Z              16
_symmetry_space_group_name_H-M     'P b c a'
_symmetry_Int_Tables_number        61
_refine_ls_R_factor_all            .0234
loop_
_symmetry_equiv_pos_site_id
_symmetry_equiv_pos_as_xyz
  1	'x+.5, y, -z+.5'
  2	'x, -y+.5, z+.5'
  3	'-x+.5, y+.5, z'
  4	'-x, -y, -z'
  5	'-x+.5, -y, z+.5'
  6	'-x, y+.5, -z+.5'
  7	'x+.5, -y+.5, -z'
  8	'x, y, z'
loop_
_atom_type_symbol
_atom_type_oxidation_number
Mg2+	2
O2-	-2
Si4+	4
loop_
_atom_site_label
_atom_site_type_symbol
_atom_site_symmetry_multiplicity
_atom_site_Wyckoff_symbol
_atom_site_fract_x
_atom_site_fract_y
_atom_site_fract_z
_atom_site_occupancy
_atom_site_attached_hydrogens
Mg1 Mg2+ 8 c 0.37582(2) 0.65378(4) 0.86596(6) 1. 0 
Mg2 Mg2+ 8 c 0.37677(2) 0.48699(4) 0.35897(7) 1. 0 
Si1 Si4+ 8 c 0.27172(1) 0.34162(3) 0.05040(4) 1. 0 
Si2 Si4+ 8 c 0.46357(1) 0.33734(3) 0.79827(5) 1. 0 
O1 O2- 8 c 0.18341(3) 0.34003(7) 0.03463(11) 1. 0 
O2 O2- 8 c 0.56238(3) 0.34044(7) 0.80003(11) 1. 0 
O3 O2- 8 c 0.31097(3) 0.50228(7) 0.04334(12) 1. 0 
O4 O2- 8 c 0.43280(3) 0.48306(7) 0.68928(13) 1. 0 
O5 O2- 8 c 0.30313(3) 0.22261(7) -.16814(12) 1. 0 
O6 O2- 8 c 0.44763(3) 0.19507(7) 0.60357(12) 1. 0 

#End of data_30523-ICSD


