data_424701-ICSD
#?2014 by Fachinformationszentrum Karlsruhe, and the U.S. Secretary of 
#Commerce on behalf of the United States.  All rights reserved.
_database_code_ICSD                424701
_audit_creation_date               2013/02/01
_chemical_name_systematic
;
Tricesium Silver Tetrakis(manganate(VII))
;
_chemical_formula_structural       'Cs3 Ag (Mn O4)4'
_chemical_formula_sum              'Ag1 Cs3 Mn4 O16'
_publ_section_title
;
Synthesis and crystal structure of the cesium silver"permanganate Cs3 
Ag [Mn O4]4
;
loop_
_citation_id
_citation_journal_abbrev
_citation_year
_citation_journal_volume
_citation_journal_issue
_citation_page_first
_citation_page_last
_citation_journal_id_ASTM
primary 'Zeitschrift fuer Anorganische und Allgemeine Chemie (1950) (DE)'
 2012 638 11 1780 1783 ZAACAB
_publ_author_name
;
Bauchert, J.M.;Henning, H.;Schleid, T.
;
_cell_length_a                     7.6453(4)
_cell_length_b                     18.8357(9)
_cell_length_c                     5.8434(3)
_cell_angle_alpha                  90.00
_cell_angle_beta                   90.00
_cell_angle_gamma                  90.00
_cell_volume                       841.48
_cell_formula_units_Z              2
_symmetry_space_group_name_H-M     'P n n m'
_symmetry_Int_Tables_number        58
_refine_ls_R_factor_all            .0376
loop_
_symmetry_equiv_pos_site_id
_symmetry_equiv_pos_as_xyz
  1	'x+.5, -y+.5, z+.5'
  2	'-x+.5, y+.5, z+.5'
  3	'x, y, -z'
  4	'-x, -y, -z'
  5	'-x+.5, y+.5, -z+.5'
  6	'x+.5, -y+.5, -z+.5'
  7	'-x, -y, z'
  8	'x, y, z'
loop_
_atom_type_symbol
_atom_type_oxidation_number
Ag1+	1
Cs1+	1
Mn7+	7
O2-	-2
loop_
_atom_site_label
_atom_site_type_symbol
_atom_site_symmetry_multiplicity
_atom_site_Wyckoff_symbol
_atom_site_fract_x
_atom_site_fract_y
_atom_site_fract_z
_atom_site_occupancy
_atom_site_attached_hydrogens
_atom_site_U_iso_or_equiv
Cs1 Cs1+ 2 c 0.0000 0.5000 0.0000 1 0 0.0286(2) 
Cs2 Cs1+ 4 g 0.20884(7) 0.77100(3) 0.0000 1 0 0.02646(17) 
Ag1 Ag1+ 2 a 0.0000 0.0000 0.0000 1 0 0.0250(2) 
Mn1 Mn7+ 4 g 0.45451(16) 0.39154(6) 0.0000 1 0 0.0199(3) 
O1 O2- 4 g 0.4300(9) 0.3066(3) 0.0000 1 0 0.0342(15) 
O2 O2- 4 g 0.3381(8) 0.5916(4) 0.0000 1 0 0.0405(18) 
O3 O2- 8 h 0.3645(6) 0.4237(2) 0.2271(8) 1 0 0.0334(11) 
Mn2 Mn7+ 4 g 0.35504(16) 0.13092(6) 0.0000 1 0 0.0216(3) 
O4 O2- 4 g 0.1844(9) 0.1808(4) 0.0000 1 0 0.0429(18) 
O5 O2- 4 g 0.2993(9) 0.0478(3) 0.0000 1 0 0.0332(15) 
O6 O2- 8 h 0.4715(5) 0.1476(2) 0.2225(8) 1 0 0.0311(10) 

loop_
_atom_site_aniso_label
_atom_site_aniso_type_symbol
_atom_site_aniso_U_11
_atom_site_aniso_U_22
_atom_site_aniso_U_33
_atom_site_aniso_U_12
_atom_site_aniso_U_13
_atom_site_aniso_U_23
Cs1 Cs1+ 0.0292(4) 0.0223(4) 0.0345(5) -0.0036(3) 0.000 0.000
Cs2 Cs1+ 0.0258(3) 0.0266(3) 0.0270(3) -0.0001(2) 0.000 0.000
Ag1 Ag1+ 0.0311(5) 0.0222(4) 0.0218(5) -0.0001(4) 0.000 0.000
Mn1 Mn7+ 0.0233(6) 0.0171(6) 0.0193(7) -0.0015(5) 0.000 0.000
O1 O2- 0.047(4) 0.022(3) 0.033(4) 0.001(3) 0.000 0.000
O2 O2- 0.031(4) 0.038(4) 0.053(5) -0.013(3) 0.000 0.000
O3 O2- 0.046(3) 0.030(2) 0.025(3) -0.0014(19) 0.008(2) -0.010(2)
Mn2 Mn7+ 0.0236(6) 0.0167(6) 0.0246(8) -0.0030(5) 0.000 0.000
O4 O2- 0.029(4) 0.032(3) 0.068(5) 0.015(3) 0.000 0.000
O5 O2- 0.043(4) 0.013(3) 0.044(4) -0.011(3) 0.000 0.000
O6 O2- 0.028(2) 0.030(2) 0.035(3) 0.0010(17) -0.001(2) 0.0006(19)
#End of data_424701-ICSD


