data_410629-ICSD
#?2014 by Fachinformationszentrum Karlsruhe, and the U.S. Secretary of 
#Commerce on behalf of the United States.  All rights reserved.
_database_code_ICSD                410629
_audit_creation_date               1999/11/30
_chemical_name_systematic
;
Sodium Heptanitridotetraphosphate(V)
;
_chemical_formula_structural       'Na (P4 N7)'
_chemical_formula_sum              'N7 Na1 P4'
_publ_section_title
;
High-temperature high-pressure synthesis of highly condensed 
nitridophosphates Na P4 N7, K P4 N7, Rb P4 N7, and Cs P4 N7 and their 
crystal-structure determination by x-ray powder diffraction
;
loop_
_citation_id
_citation_journal_abbrev
_citation_year
_citation_journal_volume
_citation_page_first
_citation_page_last
_citation_journal_id_ASTM
primary 'Chemistry - A European Journal' 1999 5 2548 2553 CEUJED
_publ_author_name
;
Landskron, K.;Irran, E.M.;Schnick, W.
;
_cell_length_a                     12.3345(2)
_cell_length_b                     8.5230(2)
_cell_length_c                     5.1396(1)
_cell_angle_alpha                  90.
_cell_angle_beta                   102.572(2)
_cell_angle_gamma                  90.
_cell_volume                       527.36
_cell_formula_units_Z              4
_symmetry_space_group_name_H-M     'C 1 2/c 1'
_symmetry_Int_Tables_number        15
_refine_ls_R_factor_all            .0772
loop_
_symmetry_equiv_pos_site_id
_symmetry_equiv_pos_as_xyz
  1	'x, -y, z+.5'
  2	'-x, -y, -z'
  3	'-x, y, -z+.5'
  4	'x, y, z'
  5	'x+.5, -y+.5, z+.5'
  6	'-x+.5, -y+.5, -z'
  7	'-x+.5, y+.5, -z+.5'
  8	'x+.5, y+.5, z'
loop_
_atom_type_symbol
_atom_type_oxidation_number
N3-	-3
Na1+	1
P5+	5
loop_
_atom_site_label
_atom_site_type_symbol
_atom_site_symmetry_multiplicity
_atom_site_Wyckoff_symbol
_atom_site_fract_x
_atom_site_fract_y
_atom_site_fract_z
_atom_site_occupancy
_atom_site_attached_hydrogens
_atom_site_U_iso_or_equiv
Na1 Na1+ 4 e 0 0.2112(7) 0.25 1. 0 0.435(23) 
P1 P5+ 8 f 0.3301(2) 0.4261(4) 0.1972(6) 1. 0 0.083(10) 
P2 P5+ 8 f 0.3759(2) 0.0781(4) 0.2048(6) 1. 0 0.059(9) 
N1 N3- 4 e 0 0.5218(2) 0.25 1. 0 0.064(13) 
N2 N3- 8 f 0.1351(5) 0.0503(8) 0.073(2) 1. 0 0.064(13) 
N3 N3- 8 f 0.3600(5) 0.247(1) 0.329(2) 1. 0 0.064(13) 
N4 N3- 8 f 0.1852(4) 0.4485(8) 0.116(2) 1. 0 0.064(13) 

#End of data_410629-ICSD


