data_415872-ICSD
#?2014 by Fachinformationszentrum Karlsruhe, and the U.S. Secretary of 
#Commerce on behalf of the United States.  All rights reserved.
_database_code_ICSD                415872
_audit_creation_date               2007/08/01
_chemical_name_systematic
;
Magnesium Hydrogen Fluoride Tetrafluoroaurate Hexafluoroaurate
;
_chemical_formula_structural       'Mg (H F) (Au F4) (Au F6)'
_chemical_formula_sum              'H1 Au2 F11 Mg1'
_publ_section_title
;
X-ray single crystal structures of Cd (Au F6)2, Mg (H F) Au F4 Au F6 
and K Au F6 and vibrational spectra of Cd (Au F6)2 and K Au F6
;
loop_
_citation_id
_citation_journal_abbrev
_citation_year
_citation_journal_volume
_citation_journal_issue
_citation_page_first
_citation_page_last
_citation_journal_id_ASTM
primary 'Solid State Sciences' 2006 8 6 671 677 SSSCFJ
_publ_author_name                  'Mazej, Z.;Goreshnik, E.'
_cell_length_a                     5.3175(4)
_cell_length_b                     15.6372(9)
_cell_length_c                     10.2689(6)
_cell_angle_alpha                  90
_cell_angle_beta                   90.623(4)
_cell_angle_gamma                  90
_cell_volume                       853.82
_cell_formula_units_Z              4
_symmetry_space_group_name_H-M     'P 1 21/c 1'
_symmetry_Int_Tables_number        14
_refine_ls_R_factor_all            .0594
loop_
_symmetry_equiv_pos_site_id
_symmetry_equiv_pos_as_xyz
  1	'x, -y+.5, z+.5'
  2	'-x, -y, -z'
  3	'-x, y+.5, -z+.5'
  4	'x, y, z'
loop_
_atom_type_symbol
_atom_type_oxidation_number
Au3+	3
Au5+	5
F1-	-1
H1+	1
Mg2+	2
loop_
_atom_site_label
_atom_site_type_symbol
_atom_site_symmetry_multiplicity
_atom_site_Wyckoff_symbol
_atom_site_fract_x
_atom_site_fract_y
_atom_site_fract_z
_atom_site_occupancy
_atom_site_attached_hydrogens
_atom_site_U_iso_or_equiv
Au1 Au3+ 4 e 1.45511(8) 0.78022(3) 0.63614(4) 1 0 0.01201(12) 
Au2 Au5+ 4 e 0.71129(10) 0.97394(3) 0.25552(5) 1 0 0.02251(15) 
Mg1 Mg2+ 4 e 0.9541(7) 0.7662(3) 0.3855(4) 1 0 0.0126(9) 
F1 F1- 4 e 0.9949(15) 0.6489(5) 0.4553(8) 1 0 0.034(2) 
F2 F1- 4 e 1.2696(12) 0.7951(5) 0.4768(6) 1 0 0.0182(17) 
F3 F1- 4 e 1.7569(12) 0.7975(5) 0.5427(6) 1 0 0.0188(17) 
F4 F1- 4 e 1.6409(12) 0.7680(5) 0.7961(6) 1 0 0.0192(17) 
F5 F1- 4 e 1.1487(12) 0.7625(5) 0.7288(7) 1 0 0.0219(18) 
F6 F1- 4 e 0.9319(12) 0.8867(5) 0.3198(7) 1 0 0.0249(18) 
F7 F1- 4 e 0.4717(16) 0.9444(6) 0.3775(10) 1 0 0.055(3) 
F8 F1- 4 e 0.5619(17) 0.8937(5) 0.1386(9) 1 0 0.049(2) 
F9 F1- 4 e 0.5042(15) 1.0619(6) 0.1927(10) 1 0 0.051(3) 
F10 F1- 4 e 0.9567(14) 1.0039(5) 0.1298(8) 1 0 0.036(2) 
F11 F1- 4 e 0.8546(15) 1.0549(5) 0.3696(8) 1 0 0.040(2) 
H1 H1+ 4 e 0.0007 0.5912 0.4273 1 0 0.041 

loop_
_atom_site_aniso_label
_atom_site_aniso_type_symbol
_atom_site_aniso_U_11
_atom_site_aniso_U_22
_atom_site_aniso_U_33
_atom_site_aniso_U_12
_atom_site_aniso_U_13
_atom_site_aniso_U_23
Au1 Au3+ 0.0092(3) 0.0182(3) 0.0087(2) 0.00056(19) -0.00023(17) 0.0006(2)
Au2 Au5+ 0.0261(3) 0.0166(3) 0.0249(3) 0.0009(2) 0.0016(2) 0.0017(2)
Mg1 Mg2+ 0.007(2) 0.023(3) 0.0085(19) -0.0004(17) 0.0004(16) -0.0025(18)
F1 F1- 0.048(5) 0.024(5) 0.030(5) 0.002(4) 0.002(4) -0.001(4)
F2 F1- 0.013(4) 0.035(5) 0.007(3) -0.005(3) 0.001(3) 0.002(3)
F3 F1- 0.014(4) 0.030(5) 0.013(4) -0.002(3) 0.002(3) -0.002(3)
F4 F1- 0.014(4) 0.032(5) 0.012(4) 0.002(3) 0.000(3) 0.000(3)
F5 F1- 0.010(4) 0.041(5) 0.015(4) -0.001(3) 0.000(3) 0.007(3)
F6 F1- 0.019(4) 0.017(4) 0.038(5) 0.003(3) -0.001(4) 0.012(4)
F7 F1- 0.042(6) 0.042(7) 0.082(8) -0.001(5) 0.034(6) 0.003(6)
F8 F1- 0.076(6) 0.018(5) 0.053(6) -0.003(5) -0.025(5) -0.001(4)
F9 F1- 0.042(6) 0.029(6) 0.082(8) 0.003(4) -0.021(5) 0.013(5)
F10 F1- 0.038(5) 0.038(6) 0.034(5) -0.004(4) 0.015(4) -0.001(4)
F11 F1- 0.062(6) 0.022(5) 0.036(5) -0.007(4) -0.009(4) -0.007(4)
#End of data_415872-ICSD


