data_202702-ICSD
#?2014 by Fachinformationszentrum Karlsruhe, and the U.S. Secretary of 
#Commerce on behalf of the United States.  All rights reserved.
_database_code_ICSD                202702
_audit_creation_date               1989/12/04
_chemical_name_systematic
;
Lithium Lanthanum Iron(III) Oxide (22/24/6/56)
;
_chemical_formula_structural       'La24 Fe6 Li22 O56'
_chemical_formula_sum              'Fe6 La24 Li22 O56'
_publ_section_title
;
A new structure in the La-Li-Fe-O system
;
loop_
_citation_id
_citation_journal_abbrev
_citation_year
_citation_journal_volume
_citation_page_first
_citation_page_last
_citation_journal_id_ASTM
primary 'Journal of the Less-Common Metals' 1988 142 203 211 JCOMAH
_publ_author_name
;
Abbattista, F.;Mazza, D.;Vallino, M.;Gazzano, M.
;
_cell_length_a                     13.240(3)
_cell_length_b                     13.240(3)
_cell_length_c                     7.497(3)
_cell_angle_alpha                  90.
_cell_angle_beta                   90.
_cell_angle_gamma                  90.
_cell_volume                       1314.21
_cell_formula_units_Z              1
_symmetry_space_group_name_H-M     'P 4/m b m'
_symmetry_Int_Tables_number        127
_refine_ls_R_factor_all            .024
loop_
_symmetry_equiv_pos_site_id
_symmetry_equiv_pos_as_xyz
  1	'y+.5, x+.5, -z'
  2	'-y+.5, -x+.5, -z'
  3	'-y, x, -z'
  4	'y, -x, -z'
  5	'x+.5, -y+.5, -z'
  6	'-x+.5, y+.5, -z'
  7	'x, y, -z'
  8	'-x, -y, -z'
  9	'-y+.5, -x+.5, z'
 10	'y+.5, x+.5, z'
 11	'y, -x, z'
 12	'-y, x, z'
 13	'-x+.5, y+.5, z'
 14	'x+.5, -y+.5, z'
 15	'-x, -y, z'
 16	'x, y, z'
loop_
_atom_type_symbol
_atom_type_oxidation_number
Fe3+	3
La3+	3
Li1+	1
O2-	-2
loop_
_atom_site_label
_atom_site_type_symbol
_atom_site_symmetry_multiplicity
_atom_site_Wyckoff_symbol
_atom_site_fract_x
_atom_site_fract_y
_atom_site_fract_z
_atom_site_occupancy
_atom_site_attached_hydrogens
_atom_site_U_iso_or_equiv
La1 La3+ 16 l 0.00799(2) 0.19969(2) 0.25563(5) 1. 0 0.0062(1) 
La2 La3+ 4 g 0.26052(3) 0.76052(3) 0 1. 0 0.0034(2) 
La3 La3+ 4 h 0.21981(3) 0.71981(3) 0.5 1. 0 0.0034(2) 
Fe1 Fe3+ 2 a 0 0 0 1. 0 0.0094(11) 
Fe2 Fe3+ 4 g 0.08586(9) 0.58586(9) 0 1. 0 0.0042(5) 
O1 O2- 4 f 0 0.5 0.1849(10) 1. 0 0.005(2) 
O2 O2- 8 j 0.3823(5) 0.3773(5) 0.5 1. 0 0.011(3) 
O3 O2- 8 k 0.3168(3) 0.8168(3) 0.7102(8) 1. 0 0.014(2) 
O4 O2- 8 j 0.3212(4) 0.0173(5) 0.5 1. 0 0.008(2) 
O5 O2- 4 e 0 0 0.2513(15) 1. 0 0.009(2) 
O6 O2- 8 i 0.1224(5) 0.1117(5) 0 1. 0 0.010(3) 
O7 O2- 8 i 0.0303(4) 0.3123(4) 0 1. 0 0.006(2) 
O8 O2- 8 k 0.1583(3) 0.6583(3) 0.8047(9) 1. 0 0.013(2) 
Li1 Li1+ 2 b 0 0 0.5 1. 0 0.0024(12) 
Li2 Li1+ 4 h 0.6219(9) 0.1219(9) 0.5 1. 0 0.002(3) 
Li3 Li1+ 8 k 0.0981(8) 0.4019(8) 0.1565(22) 1. 0 0.010(3) 
Li4 Li1+ 8 k 0.0753(8) 0.5753(8) 0.6499(22) 1. 0 0.008(3) 

#End of data_202702-ICSD


