data_34908-ICSD
#?2014 by Fachinformationszentrum Karlsruhe, and the U.S. Secretary of 
#Commerce on behalf of the United States.  All rights reserved.
_database_code_ICSD                34908
_audit_creation_date               1980/01/01
_audit_update_record               2008/02/01
_chemical_name_systematic          'Calcium Catena-silicate'
_chemical_formula_structural       'Ca (Si O3)'
_chemical_formula_sum              'Ca1 O3 Si1'
_chemical_name_mineral             'Wollastonite 2M'
_publ_section_title
;
The crystal structure of parawollastonite
;
loop_
_citation_id
_citation_journal_abbrev
_citation_year
_citation_journal_volume
_citation_page_first
_citation_page_last
_citation_journal_id_ASTM
primary
;
Zeitschrift fuer Kristallographie, Kristallgeometrie, Kristallphysik, 
Kristallchemie (-144,1977)
;
 1968 127 291 308 ZEKGAX
2 Naturwissenschaften 1967 54 536 536 NATWAY
3 'Golden Book of Phase Transitions, Wroclaw' 2002 1 1 123 GBOPT5
_publ_author_name                  'Trojer, F.jr.'
_cell_length_a                     15.426(4)
_cell_length_b                     7.320(3)
_cell_length_c                     7.066(3)
_cell_angle_alpha                  90.
_cell_angle_beta                   95.40(1)
_cell_angle_gamma                  90.
_cell_volume                       794.34
_cell_formula_units_Z              12
_symmetry_space_group_name_H-M     'P 1 21/a 1'
_symmetry_Int_Tables_number        14
_refine_ls_R_factor_all            .066
loop_
_symmetry_equiv_pos_site_id
_symmetry_equiv_pos_as_xyz
  1	'x+.5, -y+.5, z'
  2	'-x, -y, -z'
  3	'-x+.5, y+.5, -z'
  4	'x, y, z'
loop_
_atom_type_symbol
_atom_type_oxidation_number
Ca2+	2
O2-	-2
Si4+	4
loop_
_atom_site_label
_atom_site_type_symbol
_atom_site_symmetry_multiplicity
_atom_site_Wyckoff_symbol
_atom_site_fract_x
_atom_site_fract_y
_atom_site_fract_z
_atom_site_occupancy
_atom_site_attached_hydrogens
Ca1 Ca2+ 4 e 0.2482(1) 0.3758(4) 0.9712(2) 1. 0 
Ca2 Ca2+ 4 e 0.4011(1) 0.6265(6) 0.7397(2) 1. 0 
Ca3 Ca2+ 4 e 0.3987(1) 0.1209(6) 0.7364(2) 1. 0 
Si1 Si4+ 4 e 0.4076(1) 0.0907(3) 0.2313(3) 1. 0 
Si2 Si4+ 4 e 0.4075(1) 0.6598(3) 0.2313(3) 1. 0 
Si3 Si4+ 4 e 0.3016(1) 0.3761(4) 0.4432(2) 1. 0 
O1 O2- 4 e 0.3000(3) 0.3747(13) 0.6685(6) 1. 0 
O2 O2- 4 e 0.2156(3) 0.3759(13) 0.3031(7) 1. 0 
O3 O2- 4 e 0.3490(4) 0.1397(14) 0.0328(7) 1. 0 
O4 O2- 4 e 0.3473(3) 0.6157(15) 0.0348(7) 1. 0 
O5 O2- 4 e 0.5086(3) 0.1226(20) 0.2388(7) 1. 0 
O6 O2- 4 e 0.5078(3) 0.6176(19) 0.2347(7) 1. 0 
O7 O2- 4 e 0.3642(4) 0.1962(7) 0.4060(7) 1. 0 
O8 O2- 4 e 0.3633(4) 0.5533(8) 0.4067(8) 1. 0 
O9 O2- 4 e 0.3906(3) 0.8755(10) 0.2767(6) 1. 0 

#End of data_34908-ICSD


