data_281564-ICSD
#?2014 by Fachinformationszentrum Karlsruhe, and the U.S. Secretary of 
#Commerce on behalf of the United States.  All rights reserved.
_database_code_ICSD                281564
_audit_creation_date               2004/10/01
_audit_update_record               2007/04/01
_chemical_name_systematic          'Magnesium Dicalcium Tungstate'
_chemical_formula_structural       'Mg Ca2 (W O6)'
_chemical_formula_sum              'Ca2 Mg1 O6 W1'
_publ_section_title
;
Ca2 Mg W O6 from neutron and X-ray powder data
;
loop_
_citation_id
_citation_journal_abbrev
_citation_year
_citation_journal_volume
_citation_page_first
_citation_page_last
_citation_journal_id_ASTM
primary 'Acta Crystallographica, Section C: Crystal Structure Communications'
 2003 59 i86 i88 ACSCEE
_publ_author_name
;
Yang Jae-Ho;Choo Woong-Kil;Lee Chang-Hee
;
_cell_length_a                     5.4199(1)
_cell_length_b                     5.5479(1)
_cell_length_c                     7.7147(2)
_cell_angle_alpha                  90.
_cell_angle_beta                   90.092(2)
_cell_angle_gamma                  90.
_cell_volume                       231.97
_cell_formula_units_Z              2
_symmetry_space_group_name_H-M     'P 1 21/n 1'
_symmetry_Int_Tables_number        14
_refine_ls_R_factor_all            .0346
loop_
_symmetry_equiv_pos_site_id
_symmetry_equiv_pos_as_xyz
  1	'-x+.5, y+.5, -z+.5'
  2	'-x, -y, -z'
  3	'x+.5, -y+.5, z+.5'
  4	'x, y, z'
loop_
_atom_type_symbol
_atom_type_oxidation_number
Ca2+	2
Mg2+	2
O2-	-2
W6+	6
loop_
_atom_site_label
_atom_site_type_symbol
_atom_site_symmetry_multiplicity
_atom_site_Wyckoff_symbol
_atom_site_fract_x
_atom_site_fract_y
_atom_site_fract_z
_atom_site_occupancy
_atom_site_attached_hydrogens
_atom_site_U_iso_or_equiv
Ca1 Ca2+ 4 e 0.0108(5) 0.0469(3) 0.2480(6) 1. 0 0.094(4) 
Mg1 Mg2+ 2 c 0 0.5 0 1. 0 0.100(5) 
W1 W6+ 2 d 0.5 0 0 1. 0 0.048(4) 
O1 O2- 4 e 0.2134(5) 0.8037(5) 0.0419(5) 1. 0 0.089(3) 
O2 O2- 4 e 0.3059(6) 0.2838(5) -.9536(5) 1. 0 0.096(3) 
O3 O2- 4 e 0.4155(3) 0.0252(3) -.2402(5) 1. 0 0.085(3) 

#End of data_281564-ICSD


