data_150697-ICSD
#?2014 by Fachinformationszentrum Karlsruhe, and the U.S. Secretary of 
#Commerce on behalf of the United States.  All rights reserved.
_database_code_ICSD                150697
_audit_creation_date               2006/04/01
_chemical_name_systematic          'Dicalcium Ferro(III)rhenate(V)'
_chemical_formula_structural       'Ca2 (Fe Re O6)'
_chemical_formula_sum              'Ca2 Fe1 O6 Re1'
_publ_section_title
;
Structural distortion on metal-insulator transition in ordered double 
perovskite Ca2 Fe Re O6
;
loop_
_citation_id
_citation_journal_abbrev
_citation_year
_citation_journal_volume
_citation_journal_issue
_citation_page_first
_citation_page_last
_citation_journal_id_ASTM
primary 'Journal of the Physical Society of Japan' 2003 72 6 1411 1417 JUPSAU
_publ_author_name
;
Oikawa, K.;Kamiyama, T.;Kato, H.;Tokura, Y.
;
_cell_length_a                     5.40078(5)
_cell_length_b                     5.52525(5)
_cell_length_c                     7.68390(7)
_cell_angle_alpha                  90.
_cell_angle_beta                   90.0695(9)
_cell_angle_gamma                  90.
_cell_volume                       229.29
_cell_formula_units_Z              2
_symmetry_space_group_name_H-M     'P 1 21/n 1'
_symmetry_Int_Tables_number        14
_refine_ls_R_factor_all            .0203
loop_
_symmetry_equiv_pos_site_id
_symmetry_equiv_pos_as_xyz
  1	'-x+.5, y+.5, -z+.5'
  2	'-x, -y, -z'
  3	'x+.5, -y+.5, z+.5'
  4	'x, y, z'
loop_
_atom_type_symbol
_atom_type_oxidation_number
Ca2+	2
Fe3+	3
O2-	-2
Re5+	5
loop_
_atom_site_label
_atom_site_type_symbol
_atom_site_symmetry_multiplicity
_atom_site_Wyckoff_symbol
_atom_site_fract_x
_atom_site_fract_y
_atom_site_fract_z
_atom_site_occupancy
_atom_site_attached_hydrogens
_atom_site_B_iso_or_equiv
Ca1 Ca2+ 4 e 0.0102(3) 0.04639(18) 0.2479(6) 1. 0 0.685(18) 
Fe1 Fe3+ 2 c 0 0.5 0 1. 0 0.38(4) 
Re1 Re5+ 2 d 0.5 0 0 1. 0 0.29(3) 
O1 O2- 4 e 0.3005(4) 0.2895(5) 0.0443(3) 1. 0 0.58(4) 
O2 O2- 4 e 0.2918(4) 0.2993(5) 0.4581(3) 1. 0 0.55(4) 
O3 O2- 4 e 0.58229(18) -0.02286(18) 0.2452(4) 1. 0 0.555(18) 

#End of data_150697-ICSD


