data_75607-ICSD
#?2014 by Fachinformationszentrum Karlsruhe, and the U.S. Secretary of 
#Commerce on behalf of the United States.  All rights reserved.
_database_code_ICSD                75607
_audit_creation_date               1996/04/22
_chemical_name_systematic
;
Disodium Dineodymium Phyllo-trititanate
;
_chemical_formula_structural       'Na2 Nd2 (Ti3 O10)'
_chemical_formula_sum              'Na2 Nd2 O10 Ti3'
_publ_section_title
;
Investigations on layered perovskites; Na2 Nd2 Ti3 O10, H2 Nd2 Ti3 
O10 and Nd2 Ti3 O9
;
loop_
_citation_id
_citation_journal_abbrev
_citation_year
_citation_journal_volume
_citation_page_first
_citation_page_last
_citation_journal_id_ASTM
primary 'Materials Science Forum' 1994 152 245 250 MSFOEP
_publ_author_name
;
Richard, M.;Brohan, L.;Tournoux, M.
;
_cell_length_a                     3.8182(2)
_cell_length_b                     3.8182(2)
_cell_length_c                     28.3690(10)
_cell_angle_alpha                  90.
_cell_angle_beta                   90.
_cell_angle_gamma                  90.
_cell_volume                       413.58
_cell_formula_units_Z              2
_symmetry_space_group_name_H-M     'I 4/m m m'
_symmetry_Int_Tables_number        139
_refine_ls_R_factor_all            .071
loop_
_symmetry_equiv_pos_site_id
_symmetry_equiv_pos_as_xyz
  1	'y, x, -z'
  2	'-y, -x, -z'
  3	'-y, x, -z'
  4	'y, -x, -z'
  5	'-x, y, -z'
  6	'x, -y, -z'
  7	'x, y, -z'
  8	'-x, -y, -z'
  9	'-y, -x, z'
 10	'y, x, z'
 11	'y, -x, z'
 12	'-y, x, z'
 13	'x, -y, z'
 14	'-x, y, z'
 15	'-x, -y, z'
 16	'x, y, z'
 17	'y+.5, x+.5, -z+.5'
 18	'-y+.5, -x+.5, -z+.5'
 19	'-y+.5, x+.5, -z+.5'
 20	'y+.5, -x+.5, -z+.5'
 21	'-x+.5, y+.5, -z+.5'
 22	'x+.5, -y+.5, -z+.5'
 23	'x+.5, y+.5, -z+.5'
 24	'-x+.5, -y+.5, -z+.5'
 25	'-y+.5, -x+.5, z+.5'
 26	'y+.5, x+.5, z+.5'
 27	'y+.5, -x+.5, z+.5'
 28	'-y+.5, x+.5, z+.5'
 29	'x+.5, -y+.5, z+.5'
 30	'-x+.5, y+.5, z+.5'
 31	'-x+.5, -y+.5, z+.5'
 32	'x+.5, y+.5, z+.5'
loop_
_atom_type_symbol
_atom_type_oxidation_number
Na1+	1
Nd3+	3
O2-	-2
Ti4+	4
loop_
_atom_site_label
_atom_site_type_symbol
_atom_site_symmetry_multiplicity
_atom_site_Wyckoff_symbol
_atom_site_fract_x
_atom_site_fract_y
_atom_site_fract_z
_atom_site_occupancy
_atom_site_attached_hydrogens
_atom_site_B_iso_or_equiv
Ti1 Ti4+ 2 a 0 0 0 1. 0 -.08(7) 
Ti2 Ti4+ 4 e 0 0 0.1485(1) 1. 0 -.08(7) 
Na1 Na1+ 4 e 0 0 0.2883(3) 1. 0 2.4(2) 
Nd1 Nd3+ 4 e 0 0 0.42531(6) 1. 0 0.96(4) 
O1 O2- 4 c 0 0.5 0 1. 0 1.0(1) 
O2 O2- 4 e 0 0 0.0656(4) 1. 0 1.0(1) 
O3 O2- 8 g 0 0.5 0.1348(3) 1. 0 1.0(1) 
O4 O2- 4 e 0 0 0.2133(5) 1. 0 1.0(1) 

#End of data_75607-ICSD


