data_247694-ICSD
#?2014 by Fachinformationszentrum Karlsruhe, and the U.S. Secretary of 
#Commerce on behalf of the United States.  All rights reserved.
_database_code_ICSD                247694
_audit_creation_date               2013/08/01
_chemical_name_systematic
;
Tripotassium Hydrogen Bis(sulfate(VI))
;
_chemical_formula_structural       'K3 H (S O4)2'
_chemical_formula_sum              'H1 K3 O8 S2'
_publ_section_title
;
Neutron scattering studies of K3 H (S O4)2 and K3 D (S O4)2: The 
particle-in-a-box model for the quantum phase transition
;
loop_
_citation_id
_citation_journal_abbrev
_citation_year
_citation_journal_volume
_citation_journal_issue
_citation_page_first
_citation_page_last
_citation_journal_id_ASTM
primary 'Journal of Chemical Physics' 2012 137 7 074504-1 074504-10 JCPSA6
_publ_author_name                  'Fillaux, Francois;Cousson, Alain'
_cell_length_a                     9.700(1)
_cell_length_b                     5.634(1)
_cell_length_c                     14.524(1)
_cell_angle_alpha                  90
_cell_angle_beta                   102.73(1)
_cell_angle_gamma                  90
_cell_volume                       774.22
_cell_formula_units_Z              4
_symmetry_space_group_name_H-M     'A 1 2/a 1'
_symmetry_Int_Tables_number        15
_refine_ls_R_factor_all            .045
loop_
_symmetry_equiv_pos_site_id
_symmetry_equiv_pos_as_xyz
  1	'-x+.5, y, -z'
  2	'-x, -y, -z'
  3	'x+.5, -y, z'
  4	'x, y, z'
  5	'-x+.5, y+.5, -z+.5'
  6	'-x, -y+.5, -z+.5'
  7	'x+.5, -y+.5, z+.5'
  8	'x, y+.5, z+.5'
loop_
_atom_type_symbol
_atom_type_oxidation_number
H1+	1
K1+	1
O2-	-2
S6+	6
loop_
_atom_site_label
_atom_site_type_symbol
_atom_site_symmetry_multiplicity
_atom_site_Wyckoff_symbol
_atom_site_fract_x
_atom_site_fract_y
_atom_site_fract_z
_atom_site_occupancy
_atom_site_attached_hydrogens
_atom_site_U_iso_or_equiv
K1 K1+ 4 e 0.25 0.7802(2) 0 1. 0 0.0048 
K2 K1+ 8 f 0.34802(9) 0.73254(16) 0.30583(7) 1. 0 0.0047 
S1 S6+ 8 f 0.03802(11) 0.2725(2) -0.11641(8) 1. 0 0.0024 
O1 O2- 8 f 0.09897(6) 0.4780(1) -0.15423(5) 1. 0 0.0055 
O2 O2- 8 f 0.10875(5) 0.0521(1) -0.13021(4) 1. 0 0.0053 
O3 O2- 8 f -0.11559(6) 0.2599(1) -0.15298(4) 1. 0 0.0052 
O4 O2- 8 f 0.06141(6) 0.31321(11) -0.00912(4) 1. 0 0.0054 
H1 H1+ 4 b 0 0.5 0 1. 0 0.0222 

loop_
_atom_site_aniso_label
_atom_site_aniso_type_symbol
_atom_site_aniso_U_11
_atom_site_aniso_U_22
_atom_site_aniso_U_33
_atom_site_aniso_U_12
_atom_site_aniso_U_13
_atom_site_aniso_U_23
K1 K1+ 0.0037(5) 0.0046(5) 0.0062(6) 0.0000 0.0010(4) 0.0000
K2 K1+ 0.0042(4) 0.0037(4) 0.0063(4) -0.0004(2) 0.0010(3) -0.0008(3)
S1 S6+ 0.0031(4) 0.0023(5) 0.0021(5) 0.0001(3) 0.0009(3) -0.0004(3)
O1 O2- 0.0058(2) 0.0036(3) 0.0073(3) -0.00122(15) 0.00221(18) 0.00072(17)
O2 O2- 0.0054(2) 0.0033(3) 0.0074(3) 0.00153(15) 0.00179(19) 0.00026(17)
O3 O2- 0.0034(2) 0.0056(3) 0.0063(3) -0.00018(14) 0.00058(17) -0.00033(17)
O4 O2- 0.0065(2) 0.0056(3) 0.0040(3) 0.00022(15) 0.00078(17) -0.00022(17)
H1 H1+ 0.0204 0.0282 0.0178 -0.0073 0.0041 -0.0017
#End of data_247694-ICSD


