data_39734-ICSD
#?2014 by Fachinformationszentrum Karlsruhe, and the U.S. Secretary of 
#Commerce on behalf of the United States.  All rights reserved.
_database_code_ICSD                39734
_audit_creation_date               1994/06/30
_chemical_name_systematic
;
Dipotassium Zinc Bis(hexafluorozirconate) Hexahydrate
;
_chemical_formula_structural       'K2 Zn (Zr F6)2 (H2 O)6'
_chemical_formula_sum              'H12 F12 K2 O6 Zn1 Zr2'
_publ_section_title
;
Crystal structure of potassium zinc hexafluorozirconate hexahydrate
;
loop_
_citation_id
_citation_journal_abbrev
_citation_year
_citation_journal_volume
_citation_page_first
_citation_page_last
_citation_journal_id_ASTM
primary 'Koordinatsionnaya Khimiya (= Coordination Chemistry (USSR))'
 1993 19 526 528 KOKHDC
_publ_author_name
;
Bukvetskii, B.V.;Gerasimenko, A.V.;Davidovich, R.L.;Kaidalova, 
T.A.;Teplukhina, L.V.
;
_cell_length_a                     6.631(1)
_cell_length_b                     12.952(1)
_cell_length_c                     10.071(1)
_cell_angle_alpha                  90.
_cell_angle_beta                   90.
_cell_angle_gamma                  114.96(2)
_cell_volume                       784.16
_cell_formula_units_Z              2
_symmetry_space_group_name_H-M     'P 1 1 21/b'
_symmetry_Int_Tables_number        14
_refine_ls_R_factor_all            .036
loop_
_symmetry_equiv_pos_site_id
_symmetry_equiv_pos_as_xyz
  1	'x, y+.5, -z+.5'
  2	'-x, -y, -z'
  3	'-x, -y+.5, z+.5'
  4	'x, y, z'
loop_
_atom_type_symbol
_atom_type_oxidation_number
F1-	-1
H1+	1
K1+	1
O2-	-2
Zn2+	2
Zr4+	4
loop_
_atom_site_label
_atom_site_type_symbol
_atom_site_symmetry_multiplicity
_atom_site_Wyckoff_symbol
_atom_site_fract_x
_atom_site_fract_y
_atom_site_fract_z
_atom_site_occupancy
_atom_site_attached_hydrogens
Zr1 Zr4+ 4 e 0.18736 0.14943(3) 0.48445(3) 1. 0 
Zn1 Zn2+ 2 a 0 0 0 1. 0 
K1 K1+ 4 e 0.3926(7) 0.41576(9) 0.2154(1) 1. 0 
F1 F1- 4 e 0.0743(5) 0.3205(3) 0.0365(3) 1. 0 
F2 F1- 4 e 0.3577(5) 0.3245(2) 0.4719(2) 1. 0 
F3 F1- 4 e 0.4221(6) 0.1024(3) 0.4303(3) 1. 0 
F4 F1- 4 e -.0433(5) -.0038(2) 0.3871(2) 1. 0 
F5 F1- 4 e 0.6533(5) 0.3038(3) 0.1612(3) 1. 0 
F6 F1- 4 e 0.1592(5) 0.1899(2) 0.2899(2) 1. 0 
O1 O2- 4 e 0.2838(5) 0.0679(3) 0.1188(3) 1. 0 
O2 O2- 4 e 0.8904(7) 0.3498(3) 0.3883(3) 1. 0 
O3 O2- 4 e 0.8187(5) 0.0602(3) 0.1273(3) 1. 0 
H1 H1+ 4 e 0.374(9) 0.097(5) 0.079(6) 1. 0 
H2 H1+ 4 e 0.24(1) 0.104(6) 0.164(6) 1. 0 
H3 H1+ 4 e 0.87(1) 0.293(6) 0.418(7) 1. 0 
H4 H1+ 4 e 0.827(9) 0.337(6) 0.328(6) 1. 0 
H5 H1+ 4 e 0.91(7) 0.105(7) 0.184(7) 1. 0 
H6 H1+ 4 e 0.798(9) 0.116(6) 0.077(6) 1. 0 

#End of data_39734-ICSD


