data_6267-ICSD
#?2014 by Fachinformationszentrum Karlsruhe, and the U.S. Secretary of 
#Commerce on behalf of the United States.  All rights reserved.
_database_code_ICSD                6267
_audit_creation_date               1980/01/01
_audit_update_record               2012/02/01
_chemical_name_systematic
;
Disodium Zirconium Closo-tetrasilicate
;
_chemical_formula_structural       'Na2 Zr (Si4 O11)'
_chemical_formula_sum              'Na2 O11 Si4 Zr1'
_chemical_name_mineral             'Vlasovite 1M'
_publ_section_title
;
Refinement of the structure of vlasovite Na2 Zr Si4 O11 and some 
characteristics of the composition and structure of the 
zirconosilicates
;
loop_
_citation_id
_citation_journal_abbrev
_citation_year
_citation_journal_volume
_citation_page_first
_citation_page_last
_citation_journal_id_ASTM
primary Kristallografiya 1974 19 252 259 KRISAJ
2 'Soviet Physics, Crystallography (= Kristallografiya)'
 1974 19 152 156 SPHCA6
3 'Soviet Physics, Crystallography (= Kristallografiya)'
 1962 6 755 755 SPHCA6
4 'Powder Diffraction' 1987 2 176 179 PODIE2
_publ_author_name
;
Voronkov, A.A.;Zhdanova, T.A.;Pyatenko, Yu.A.
;
_cell_length_a                     10.98(4)
_cell_length_b                     10.00(4)
_cell_length_c                     8.52(3)
_cell_angle_alpha                  90.
_cell_angle_beta                   100.40(8)
_cell_angle_gamma                  90.
_cell_volume                       920.13
_cell_formula_units_Z              4
_symmetry_space_group_name_H-M     'C 1 2/c 1'
_symmetry_Int_Tables_number        15
_refine_ls_R_factor_all            .101
loop_
_symmetry_equiv_pos_site_id
_symmetry_equiv_pos_as_xyz
  1	'x, -y, z+.5'
  2	'-x, -y, -z'
  3	'-x, y, -z+.5'
  4	'x, y, z'
  5	'x+.5, -y+.5, z+.5'
  6	'-x+.5, -y+.5, -z'
  7	'-x+.5, y+.5, -z+.5'
  8	'x+.5, y+.5, z'
loop_
_atom_type_symbol
_atom_type_oxidation_number
Na1+	1
O2-	-2
Si4+	4
Zr4+	4
loop_
_atom_site_label
_atom_site_type_symbol
_atom_site_symmetry_multiplicity
_atom_site_Wyckoff_symbol
_atom_site_fract_x
_atom_site_fract_y
_atom_site_fract_z
_atom_site_occupancy
_atom_site_attached_hydrogens
_atom_site_B_iso_or_equiv
Zr1 Zr4+ 4 c 0.25 0.25 0 1. 0 1.9 
Na1 Na1+ 4 e 0 0.075(1) 0.75 1. 0 3.4 
Na2 Na1+ 4 e 0 0.395(1) 0.75 1. 0 5.1 
Si1 Si4+ 8 f 0.2637(3) 0.0722(3) 0.6385(3) 1. 0 1.4 
Si2 Si4+ 8 f 0.0498(3) 0.2178(3) 0.4272(3) 1. 0 1.4 
O1 O2- 4 e 0 0.160(1) 0.25 1. 0 2.2 
O2 O2- 8 f 0.143(1) 0.106(1) 0.505(1) 1. 0 2.7 
O3 O2- 8 f 0.115(1) 0.358(1) 0.419(1) 1. 0 3.1 
O4 O2- 8 f 0.056(1) 0.230(1) 0.971(1) 1. 0 1.9 
O5 O2- 8 f 0.242(1) 0.134(1) 0.801(1) 1. 0 2.3 
O6 O2- 8 f 0.287(1) 0.084(1) 0.145(1) 1. 0 2.3 

#End of data_6267-ICSD


