data_24588-ICSD
#?2014 by Fachinformationszentrum Karlsruhe, and the U.S. Secretary of 
#Commerce on behalf of the United States.  All rights reserved.
_database_code_ICSD                24588
_audit_creation_date               1980/01/01
_audit_update_record               1998/06/26
_chemical_name_systematic
;
Dicalcium Dialuminium Silicate Trioxide
;
_chemical_formula_structural       'Ca2 Al2 (Si O4) O3'
_chemical_formula_sum              'Al2 Ca2 O7 Si1'
_chemical_name_mineral             Gehlenite
_publ_section_title
;
Ueber den Feinbau des Gehlenit. Ein Beitrag zur Kenntnis der 
Melilithe
;
loop_
_citation_id
_citation_journal_abbrev
_citation_year
_citation_journal_volume
_citation_page_first
_citation_page_last
_citation_journal_id_ASTM
primary
;
Sitzungsberichte der Akademie der Wissenschaften in Wien, 
Mathematisch-Naturwissenschaftliche Klasse, Abteilung 1: Mineralogie, 
Biologie, Erdkunde
;
 1930 139 645 672 SWWMAO
2 'Mineralogische und Petrographische Mitteilungen' 1932 42 72 78 MPMIAH
_publ_author_name                  'Raaz, F.'
_cell_length_a                     7.69
_cell_length_b                     7.69
_cell_length_c                     5.1
_cell_angle_alpha                  90.
_cell_angle_beta                   90.
_cell_angle_gamma                  90.
_cell_volume                       301.59
_cell_formula_units_Z              2
_symmetry_space_group_name_H-M     'P -4 21 m'
_symmetry_Int_Tables_number        113
loop_
_symmetry_equiv_pos_site_id
_symmetry_equiv_pos_as_xyz
  1	'-y+.5, -x+.5, z'
  2	'y, -x, -z'
  3	'y+.5, x+.5, z'
  4	'-y, x, -z'
  5	'x+.5, -y+.5, -z'
  6	'-x, -y, z'
  7	'-x+.5, y+.5, -z'
  8	'x, y, z'
loop_
_atom_type_symbol
_atom_type_oxidation_number
Al3+	3
Ca2+	2
O2-	-2
Si4+	4
loop_
_atom_site_label
_atom_site_type_symbol
_atom_site_symmetry_multiplicity
_atom_site_Wyckoff_symbol
_atom_site_fract_x
_atom_site_fract_y
_atom_site_fract_z
_atom_site_occupancy
_atom_site_attached_hydrogens
Ca1 Ca2+ 4 e 0.16 0.34 0.49 1. 0 
Al1 Al3+ 4 e 0.35 0.15 0.05 1. 0 
Si1 Si4+ 2 a 0 0 0 1. 0 
O1 O2- 2 c 0 0.5 -.19 1. 0 
O2 O2- 4 e 0.35 0.15 -.26 1. 0 
O3 O2- 8 f 0.15 0.09 0.19 1. 0 

#End of data_24588-ICSD


