data_26223-ICSD
#?2014 by Fachinformationszentrum Karlsruhe, and the U.S. Secretary of 
#Commerce on behalf of the United States.  All rights reserved.
_database_code_ICSD                26223
_audit_creation_date               1980/01/01
_audit_update_record               2010/02/01
_chemical_name_systematic
;
Potassium Trans-dioxotetracyanorhenate(V)
;
_chemical_formula_structural       'K3 (Re O2 (C N)4)'
_chemical_formula_sum              'C4 K3 N4 O2 Re1'
_publ_section_title
;
The structure of crystalline potassium dioxotetracyanothenium(V), K3 
Re O2 (C N)4
;
loop_
_citation_id
_citation_journal_abbrev
_citation_year
_citation_journal_volume
_citation_page_first
_citation_page_last
_citation_journal_id_ASTM
primary 'Inorganic Chemistry' 1971 10 2352 2355 INOCAJ
_publ_author_name                  'Murmann, R.K.;Schlemper, E.O.'
_cell_length_a                     7.470(2)
_cell_length_b                     7.597(2)
_cell_length_c                     6.329(2)
_cell_angle_alpha                  105.37(2)
_cell_angle_beta                   110.20(2)
_cell_angle_gamma                  114.63(2)
_cell_volume                       268.91
_cell_formula_units_Z              1
_symmetry_space_group_name_H-M     'P -1'
_symmetry_Int_Tables_number        2
_refine_ls_R_factor_all            .051
loop_
_symmetry_equiv_pos_site_id
_symmetry_equiv_pos_as_xyz
  1	'-x, -y, -z'
  2	'x, y, z'
loop_
_atom_type_symbol
_atom_type_oxidation_number
C2+	2
K1+	1
N3-	-3
O2-	-2
Re5+	5
loop_
_atom_site_label
_atom_site_type_symbol
_atom_site_symmetry_multiplicity
_atom_site_Wyckoff_symbol
_atom_site_fract_x
_atom_site_fract_y
_atom_site_fract_z
_atom_site_occupancy
_atom_site_attached_hydrogens
Re1 Re5+ 1 a 0 0 0 1. 0 
K1 K1+ 1 g 0 0.5 0.5 1. 0 
K2 K1+ 2 i -.3618(1) -.1635(1) 0.2942(2) 1. 0 
O1 O2- 2 i 0.0275(4) 0.1370(4) 0.2968(5) 1. 0 
C1 C2+ 2 i 0.1213(6) 0.2946(6) -.0339(7) 1. 0 
C2 C2+ 2 i 0.3490(6) 0.1000(6) 0.1994(6) 1. 0 
N1 N3- 2 i 0.1983(7) 0.4480(6) -.0611(8) 1. 0 
N2 N3- 2 i 0.5398(6) 0.1600(7) 0.3117(8) 1. 0 

#End of data_26223-ICSD


