data_63031-ICSD
#?2014 by Fachinformationszentrum Karlsruhe, and the U.S. Secretary of 
#Commerce on behalf of the United States.  All rights reserved.
_database_code_ICSD                63031
_audit_creation_date               1989/06/19
_chemical_name_systematic          'Silver Telluryl Nitrate'
_chemical_formula_structural       'Ag Te O2 N O3'
_chemical_formula_sum              'Ag1 N1 O5 Te1'
_publ_section_title
;
Structure of silver telluryl nitrate Ag Te O2 N O3.
;
loop_
_citation_id
_citation_journal_abbrev
_citation_year
_citation_journal_volume
_citation_page_first
_citation_page_last
_citation_journal_id_ASTM
primary 'Acta Crystallographica, Section C: Crystal Structure Communications'
 1988 44 427 429 ACSCEE
_publ_author_name
;
Olsson, C.;Johansson, L.G.;Kazikowski, S.
;
_cell_length_a                     5.667(2)
_cell_length_b                     14.202(8)
_cell_length_c                     5.232(2)
_cell_angle_alpha                  90.
_cell_angle_beta                   90.
_cell_angle_gamma                  90.
_cell_volume                       421.09
_cell_formula_units_Z              4
_symmetry_space_group_name_H-M     'P b c n'
_symmetry_Int_Tables_number        60
_refine_ls_R_factor_all            .034
loop_
_symmetry_equiv_pos_site_id
_symmetry_equiv_pos_as_xyz
  1	'x, -y, z+.5'
  2	'-x+.5, y+.5, z'
  3	'x+.5, y+.5, -z+.5'
  4	'-x, -y, -z'
  5	'-x, y, -z+.5'
  6	'x+.5, -y+.5, -z'
  7	'-x+.5, -y+.5, z+.5'
  8	'x, y, z'
loop_
_atom_type_symbol
_atom_type_oxidation_number
Ag1+	1
N5+	5
O2-	-2
Te4+	4
loop_
_atom_site_label
_atom_site_type_symbol
_atom_site_symmetry_multiplicity
_atom_site_Wyckoff_symbol
_atom_site_fract_x
_atom_site_fract_y
_atom_site_fract_z
_atom_site_occupancy
_atom_site_attached_hydrogens
_atom_site_B_iso_or_equiv
Ag1 Ag1+ 4 c 0 0.1143(1) 0.25 1. 0 2.24(2) 
Te1 Te4+ 4 c 0.5 0.0615(1) 0.75 1. 0 1.49(1) 
O1 O2- 8 d 0.7019(9) 0.0223(3) 0.0627(9) 1. 0 1.97(8) 
O2 O2- 8 d 0.1329(11) 0.7168(3) 0.1004(12) 1. 0 2.88(13) 
O3 O2- 4 c 0 0.8488(2) 0.25 1. 0 2.98(20) 
N1 N5+ 4 c 0 0.7594(6) 0.25 1. 0 1.75(14) 

#End of data_63031-ICSD


