data_159751-ICSD
#?2014 by Fachinformationszentrum Karlsruhe, and the U.S. Secretary of 
#Commerce on behalf of the United States.  All rights reserved.
_database_code_ICSD                159751
_audit_creation_date               2008/08/01
_chemical_name_systematic          'Calcium Diferrate(III)'
_chemical_formula_structural       'Ca (Fe2 O4)'
_chemical_formula_sum              'Ca1 Fe2 O4'
_publ_section_title
;
Structural and magnetic properties of the (Ca1-x Nax) (Fe2-x Tix) O4 
solid solution (0<= x<= 1)
;
loop_
_citation_id
_citation_journal_abbrev
_citation_year
_citation_journal_volume
_citation_page_first
_citation_page_last
_citation_journal_id_ASTM
primary 'Journal of Alloys and Compounds' 2008 452 234 240 JALCEU
_publ_author_name
;
Zouari, S.;Ranno, L.;Cheikhrouhou, A.;Isnard, O.;Wolfers, P.;Bordet, 
P.;Strobel, P.
;
_cell_length_a                     9.922(1)
_cell_length_b                     3.017(1)
_cell_length_c                     10.689(2)
_cell_angle_alpha                  90.
_cell_angle_beta                   90.
_cell_angle_gamma                  90.
_cell_volume                       319.97
_cell_formula_units_Z              4
_symmetry_space_group_name_H-M     'P n m a'
_symmetry_Int_Tables_number        62
_refine_ls_R_factor_all            .131
loop_
_symmetry_equiv_pos_site_id
_symmetry_equiv_pos_as_xyz
  1	'x+.5, y, -z+.5'
  2	'x, -y+.5, z'
  3	'-x+.5, y+.5, z+.5'
  4	'-x, -y, -z'
  5	'-x+.5, -y, z+.5'
  6	'-x, y+.5, -z'
  7	'x+.5, -y+.5, -z+.5'
  8	'x, y, z'
loop_
_atom_type_symbol
_atom_type_oxidation_number
Ca2+	2
Fe3+	3
O2-	-2
loop_
_atom_site_label
_atom_site_type_symbol
_atom_site_symmetry_multiplicity
_atom_site_Wyckoff_symbol
_atom_site_fract_x
_atom_site_fract_y
_atom_site_fract_z
_atom_site_occupancy
_atom_site_attached_hydrogens
_atom_site_B_iso_or_equiv
Ca1 Ca2+ 4 c 0.2373(20) 0.250 0.3440(14) 1. 0 1.56(75) 
Fe1 Fe3+ 4 c 0.0846(18) 0.250 0.6090(12) 1. 0 1.18(39) 
Fe2 Fe3+ 4 c 0.0724(21) 0.250 0.1116(13) 1. 0 0.93(39) 
O1 O2- 4 c 0.2970(64) 0.250 0.6887(90) 1. 0 0.75(36) 
O2 O2- 4 c 0.3769(39) 0.250 -0.0242(45) 1. 0 0.75(36) 
O3 O2- 4 c 0.4740(63) 0.250 0.2142(48) 1. 0 0.75(36) 
O4 O2- 4 c 0.0823(51) 0.250 -0.0654(39) 1. 0 0.75(36) 

#End of data_159751-ICSD


