data_24393-ICSD
#?2014 by Fachinformationszentrum Karlsruhe, and the U.S. Secretary of 
#Commerce on behalf of the United States.  All rights reserved.
_database_code_ICSD                24393
_audit_creation_date               1981/12/31
_audit_update_record               2010/08/01
_chemical_name_systematic          'Nonalead Octaaluminium Oxide'
_chemical_formula_structural       'Pb9 Al8 O21'
_chemical_formula_sum              'Al8 O21 Pb9'
_publ_section_title                'Zur Kenntnis von Pb9 Al8 O21'
loop_
_citation_id
_citation_journal_abbrev
_citation_year
_citation_journal_volume
_citation_page_first
_citation_page_last
_citation_journal_id_ASTM
primary 'Zeitschrift fuer Anorganische und Allgemeine Chemie (1950) (DE)'
 1981 480 149 152 ZAACAB
_publ_author_name                  'Ploetz, K.B.;Mueller Buschbaum, H.'
_cell_length_a                     13.26
_cell_length_b                     13.26
_cell_length_c                     13.26
_cell_angle_alpha                  90.
_cell_angle_beta                   90.
_cell_angle_gamma                  90.
_cell_volume                       2331.47
_cell_formula_units_Z              4
_symmetry_space_group_name_H-M     'P a -3'
_symmetry_Int_Tables_number        205
_refine_ls_R_factor_all            .079
loop_
_symmetry_equiv_pos_site_id
_symmetry_equiv_pos_as_xyz
  1	'-z+.5, x+.5, y'
  2	'z+.5, x, -y+.5'
  3	'z, -x+.5, y+.5'
  4	'-z, -x, -y'
  5	'y, -z+.5, x+.5'
  6	'-y+.5, z+.5, x'
  7	'y+.5, z, -x+.5'
  8	'-y, -z, -x'
  9	'x+.5, y, -z+.5'
 10	'x, -y+.5, z+.5'
 11	'-x+.5, y+.5, z'
 12	'-x, -y, -z'
 13	'z+.5, -x+.5, -y'
 14	'-z+.5, -x, y+.5'
 15	'-z, x+.5, -y+.5'
 16	'z, x, y'
 17	'-y, z+.5, -x+.5'
 18	'y+.5, -z+.5, -x'
 19	'-y+.5, -z, x+.5'
 20	'y, z, x'
 21	'-x+.5, -y, z+.5'
 22	'-x, y+.5, -z+.5'
 23	'x+.5, -y+.5, -z'
 24	'x, y, z'
loop_
_atom_type_symbol
_atom_type_oxidation_number
Al3+	3
O2-	-2
Pb2+	2
loop_
_atom_site_label
_atom_site_type_symbol
_atom_site_symmetry_multiplicity
_atom_site_Wyckoff_symbol
_atom_site_fract_x
_atom_site_fract_y
_atom_site_fract_z
_atom_site_occupancy
_atom_site_attached_hydrogens
Pb1 Pb2+ 24 d 0.2647 0.9587 0.3751 1. 0 
Pb2 Pb2+ 4 b 0.5 0.5 0.5 1. 0 
Pb3 Pb2+ 8 c 0.2246 0.2246 0.2246 1. 0 
Al1 Al3+ 24 d 0.218 0.453 0.107 1. 0 
Al2 Al3+ 8 c 0.075 0.075 0.075 1. 0 
O1 O2- 24 d 0.052 0.052 0.198 1. 0 
O2 O2- 24 d 0.706 0.623 0.806 1. 0 
O3 O2- 4 a 0 0 0 1. 0 
O4 O2- 24 d 0.386 0.494 0.672 1. 0 
O5 O2- 8 c 0.394 0.394 0.394 1. 0 

#End of data_24393-ICSD


