data_161470-ICSD
#?2014 by Fachinformationszentrum Karlsruhe, and the U.S. Secretary of 
#Commerce on behalf of the United States.  All rights reserved.
_database_code_ICSD                161470
_audit_creation_date               2009/02/01
_chemical_name_systematic          'Calcium Manganate(IV)'
_chemical_formula_structural       'Ca (Mn O3)'
_chemical_formula_sum              'Ca1 Mn1 O3'
_publ_section_title
;
Structure of Ca Mn O3 in the range 10 K<= T<= 550 K from neutron time-
of-flight total scattering
;
loop_
_citation_id
_citation_journal_abbrev
_citation_year
_citation_journal_volume
_citation_page_first
_citation_page_last
_citation_journal_id_ASTM
primary 'Journal of Physics and Chemistry of Solids' 2008 69 2146 2150 JPCSAW
_publ_author_name
;
Bozin, E.S.;Sartbaeva, A.;Zheng, H.;Wells, s.A.;Mitchell, 
J.F.;Proffen, T.;Thorpe, M.F.;Billinge, S.J.L.
;
_cell_length_a                     5.2856(10)
_cell_length_b                     7.4781(13)
_cell_length_c                     5.2756(8)
_cell_angle_alpha                  90.
_cell_angle_beta                   90.
_cell_angle_gamma                  90.
_cell_volume                       208.52
_cell_formula_units_Z              4
_symmetry_space_group_name_H-M     'P n m a'
_symmetry_Int_Tables_number        62
_refine_ls_R_factor_all            .126
loop_
_symmetry_equiv_pos_site_id
_symmetry_equiv_pos_as_xyz
  1	'x+.5, y, -z+.5'
  2	'x, -y+.5, z'
  3	'-x+.5, y+.5, z+.5'
  4	'-x, -y, -z'
  5	'-x+.5, -y, z+.5'
  6	'-x, y+.5, -z'
  7	'x+.5, -y+.5, -z+.5'
  8	'x, y, z'
loop_
_atom_type_symbol
_atom_type_oxidation_number
Ca2+	2
Mn4+	4
O2-	-2
loop_
_atom_site_label
_atom_site_type_symbol
_atom_site_symmetry_multiplicity
_atom_site_Wyckoff_symbol
_atom_site_fract_x
_atom_site_fract_y
_atom_site_fract_z
_atom_site_occupancy
_atom_site_attached_hydrogens
_atom_site_U_iso_or_equiv
Ca1 Ca2+ 4 c 0.0310(3) 0.250 0.9918(6) 1. 0 0.0081(2) 
Mn1 Mn4+ 4 b 0.5 0 0 1. 0 0.0035(2) 
O1 O2- 4 c 0.4871(3) 0.250 0.0669(4) 1. 0 0.0063(2) 
O2 O2- 8 d 0.2862(3) 0.0323(2) 0.7120(3) 1. 0 0.0085(1) 

#End of data_161470-ICSD


