data_163482-ICSD
#?2014 by Fachinformationszentrum Karlsruhe, and the U.S. Secretary of 
#Commerce on behalf of the United States.  All rights reserved.
_database_code_ICSD                163482
_audit_creation_date               2009/08/01
_audit_update_record               2010/08/01
_chemical_name_systematic          'Calcium Bis(tetrahydridoborate)'
_chemical_formula_structural       'Ca (B H4)2'
_chemical_formula_sum              'H8 B2 Ca1'
_publ_section_title
;
Crystal structures of calcium borohydride: theory and experiment
;
loop_
_citation_id
_citation_journal_abbrev
_citation_year
_citation_journal_volume
_citation_page_first
_citation_page_last
_citation_journal_id_ASTM
primary 'Journal of Physical Chemistry C' 2009 113 3352 3358 JPCCCK
_publ_author_name                  'Majzoub, E.H.;Ronnebro, E.'
_cell_length_a                     13.35
_cell_length_b                     8.76
_cell_length_c                     7.35
_cell_angle_alpha                  90.
_cell_angle_beta                   90.
_cell_angle_gamma                  90.
_cell_volume                       859.55
_cell_formula_units_Z              8
_symmetry_space_group_name_H-M     'P b c a'
_symmetry_Int_Tables_number        61
loop_
_symmetry_equiv_pos_site_id
_symmetry_equiv_pos_as_xyz
  1	'x+.5, y, -z+.5'
  2	'x, -y+.5, z+.5'
  3	'-x+.5, y+.5, z'
  4	'-x, -y, -z'
  5	'-x+.5, -y, z+.5'
  6	'-x, y+.5, -z+.5'
  7	'x+.5, -y+.5, -z'
  8	'x, y, z'
loop_
_atom_type_symbol
_atom_type_oxidation_number
B3+	3
Ca2+	2
H1-	-1
loop_
_atom_site_label
_atom_site_type_symbol
_atom_site_symmetry_multiplicity
_atom_site_Wyckoff_symbol
_atom_site_fract_x
_atom_site_fract_y
_atom_site_fract_z
_atom_site_occupancy
_atom_site_attached_hydrogens
Ca1 Ca2+ 8 c 0.8855 0.4314 0.6863 1. 0 
B1 B3+ 8 c 0.7189 0.4461 0.4606 1. 0 
B2 B3+ 8 c 0.0151 0.6871 0.6436 1. 0 
H1 H1- 8 c 0.0138 0.6010 0.7743 1. 0 
H2 H1- 8 c 0.9748 0.8080 0.6801 1. 0 
H3 H1- 8 c 0.1034 0.7063 0.6024 1. 0 
H4 H1- 8 c 0.9690 0.6358 0.5127 1. 0 
H5 H1- 8 c 0.7135 0.3785 0.3147 1. 0 
H6 H1- 8 c 0.6415 0.5160 0.4941 1. 0 
H7 H1- 8 c 0.7297 0.3505 0.5802 1. 0 
H8 H1- 8 c 0.7882 0.5381 0.4515 1. 0 

#End of data_163482-ICSD


