data_16564-ICSD
#?2014 by Fachinformationszentrum Karlsruhe, and the U.S. Secretary of 
#Commerce on behalf of the United States.  All rights reserved.
_database_code_ICSD                16564
_audit_creation_date               1980/01/01
_audit_update_record               2006/04/01
_chemical_name_systematic          'Pentasodium Triphosphate(V) - Ii'
_chemical_formula_structural       'Na5 (P3 O10)'
_chemical_formula_sum              'Na5 O10 P3'
_publ_section_title
;
Refinements of structures containing bonds between Si, P, S or Cl and 
O or N. III. Na5 P3 O10, phase II
;
loop_
_citation_id
_citation_journal_abbrev
_citation_year
_citation_journal_volume
_citation_page_first
_citation_page_last
_citation_journal_id_ASTM
primary 'Acta Crystallographica (1,1948-23,1967)' 1964 17 674 675 ACCRA9
2 'Golden Book of Phase Transitions, Wroclaw' 2002 1 1 123 GBOPT5
_publ_author_name                  'Cruickshank, D.W.J.'
_cell_length_a                     16.
_cell_length_b                     5.24
_cell_length_c                     11.25
_cell_angle_alpha                  90.
_cell_angle_beta                   93.
_cell_angle_gamma                  90.
_cell_volume                       941.91
_cell_formula_units_Z              4
_symmetry_space_group_name_H-M     'C 1 2/c 1'
_symmetry_Int_Tables_number        15
_refine_ls_R_factor_all            .106
loop_
_symmetry_equiv_pos_site_id
_symmetry_equiv_pos_as_xyz
  1	'x, -y, z+.5'
  2	'-x, -y, -z'
  3	'-x, y, -z+.5'
  4	'x, y, z'
  5	'x+.5, -y+.5, z+.5'
  6	'-x+.5, -y+.5, -z'
  7	'-x+.5, y+.5, -z+.5'
  8	'x+.5, y+.5, z'
loop_
_atom_type_symbol
_atom_type_oxidation_number
Na1+	1
O2-	-2
P5+	5
loop_
_atom_site_label
_atom_site_type_symbol
_atom_site_symmetry_multiplicity
_atom_site_Wyckoff_symbol
_atom_site_fract_x
_atom_site_fract_y
_atom_site_fract_z
_atom_site_occupancy
_atom_site_attached_hydrogens
_atom_site_U_iso_or_equiv
P1 P5+ 4 e 0 0.3053 0.25 1. 0 0 
P2 P5+ 8 f 0.1458 0.1958 0.4004 1. 0 0 
O1 O2- 8 f 0.0377 0.4552 0.1539 1. 0 0.042 
O2 O2- 8 f 0.0671 0.1057 0.3067 1. 0 0.035 
O3 O2- 8 f 0.1503 0.4792 0.3946 1. 0 0.032 
O4 O2- 8 f 0.2171 0.0513 0.3487 1. 0 0.037 
O5 O2- 8 f 0.1201 0.0893 0.5179 1. 0 0.044 
Na1 Na1+ 4 c 0.25 0.75 0.5 1. 0 0.052 
Na2 Na1+ 8 f 0.0395 0.7397 0.4612 1. 0 0.038 
Na3 Na1+ 8 f 0.1611 0.7328 0.2072 1. 0 0.036 

loop_
_atom_site_aniso_label
_atom_site_aniso_type_symbol
_atom_site_aniso_U_11
_atom_site_aniso_U_22
_atom_site_aniso_U_33
_atom_site_aniso_U_12
_atom_site_aniso_U_13
_atom_site_aniso_U_23
P1 P5+ 0.034 0.028 0.031 0 0.004 0
P2 P5+ 0.035 0.028 0.031 -.003 0 0.001
#End of data_16564-ICSD


