data_38253-ICSD
#?2014 by Fachinformationszentrum Karlsruhe, and the U.S. Secretary of 
#Commerce on behalf of the United States.  All rights reserved.
_database_code_ICSD                38253
_audit_creation_date               1983/12/31
_audit_update_record               2008/02/01
_chemical_name_systematic
;
Octaiodo-cyclo-distibadialuminatetraiodaoctane
;
_chemical_formula_structural       '(Sb2 Al2 I4) I8'
_chemical_formula_sum              'Al2 I12 Sb2'
_publ_section_title
;
Al2 Sb2 I12. Vierkern-Einheiten in einem 1:1- Addukt aus Al I3 und Sb 
I3
;
loop_
_citation_id
_citation_journal_abbrev
_citation_year
_citation_journal_volume
_citation_page_first
_citation_page_last
_citation_journal_id_ASTM
primary
;
Zeitschrift fuer Naturforschung, Teil B. Anorganische Chemie, 
Organische Chemie (33,1978-41,1986)
;
 1983 38 1539 1542 ZNBAD2
_publ_author_name                  'Pohl, S.'
_cell_length_a                     16.440(3)
_cell_length_b                     13.183(2)
_cell_length_c                     7.289(1)
_cell_angle_alpha                  90.
_cell_angle_beta                   119.33(1)
_cell_angle_gamma                  90.
_cell_volume                       1377.23
_cell_formula_units_Z              2
_symmetry_space_group_name_H-M     'C 1 2/m 1'
_symmetry_Int_Tables_number        12
_refine_ls_R_factor_all            .064
loop_
_symmetry_equiv_pos_site_id
_symmetry_equiv_pos_as_xyz
  1	'-x, y, -z'
  2	'-x, -y, -z'
  3	'x, -y, z'
  4	'x, y, z'
  5	'-x+.5, y+.5, -z'
  6	'-x+.5, -y+.5, -z'
  7	'x+.5, -y+.5, z'
  8	'x+.5, y+.5, z'
loop_
_atom_type_symbol
_atom_type_oxidation_number
Al3+	3
I1-	-1
Sb3+	3
loop_
_atom_site_label
_atom_site_type_symbol
_atom_site_symmetry_multiplicity
_atom_site_Wyckoff_symbol
_atom_site_fract_x
_atom_site_fract_y
_atom_site_fract_z
_atom_site_occupancy
_atom_site_attached_hydrogens
Sb1 Sb3+ 4 g 0 0.1976(2) 0 1. 0 
Al1 Al3+ 4 i 0.2032(6) 0 0.0433(14) 1. 0 
I1 I1- 8 j 0.1124(1) 0.3311(1) 0.2999(3) 1. 0 
I2 I1- 8 j 0.1297(1) 0.1570(1) -.1930(2) 1. 0 
I3 I1- 4 i 0.1535(2) 0 0.3237(3) 1. 0 
I4 I1- 4 i 0.3744(2) 0 0.1972(4) 1. 0 

loop_
_atom_site_aniso_label
_atom_site_aniso_type_symbol
_atom_site_aniso_B_11
_atom_site_aniso_B_22
_atom_site_aniso_B_33
_atom_site_aniso_B_12
_atom_site_aniso_B_13
_atom_site_aniso_B_23
Sb1 Sb3+ 2.7(1) 2.3(1) 2.1(1) 0 1.3(1) 0
Al1 Al3+ 3.0(4) 2.6(5) 2.0(4) 0 1.4(4) 0
I1 I1- 4.3(1) 3.8(1) 3.0(1) -.8(1) 1.2(1) -.7(1)
I2 I1- 4.4(1) 3.6(1) 3.5(1) 0.9(1) 2.7(1) 0
I3 I1- 3.6(1) 3.2(1) 2.2(1) 0 1.9(1) 0
I4 I1- 2.6(1) 4.9(1) 4.1(1) 0 1.8(1) 0
#End of data_38253-ICSD


