data_158734-ICSD
#?2014 by Fachinformationszentrum Karlsruhe, and the U.S. Secretary of 
#Commerce on behalf of the United States.  All rights reserved.
_database_code_ICSD                158734
_audit_creation_date               2008/08/01
_audit_update_record               2012/08/01
_chemical_name_systematic
;
Dipotassium Dimanganese Tris(sulfate(VI)) - Lt
;
_chemical_formula_structural       'K2 Mn2 (S O4)3'
_chemical_formula_sum              'K2 Mn2 O12 S3'
_chemical_name_mineral             Unnamed_Langbeinite
_publ_section_title
;
The magnetic structure of the langbeinite K2 Mn2 (S O4)3
;
loop_
_citation_id
_citation_journal_abbrev
_citation_year
_citation_journal_volume
_citation_page_first
_citation_page_last
_citation_journal_id_ASTM
primary 'Physics and Chemistry of Minerals' 1988 16 246 249 PCMIDU
_publ_author_name
;
Oelkrug, H.;Brueckel, T.;Hohlwein, D.;Hoser, A.;Prandl, W.
;
_cell_length_a                     10.0036(18)
_cell_length_b                     10.0036(18)
_cell_length_c                     10.0036(18)
_cell_angle_alpha                  90.
_cell_angle_beta                   90.
_cell_angle_gamma                  90.
_cell_volume                       1001.08
_cell_formula_units_Z              4
_symmetry_space_group_name_H-M     'P 21 21 21'
_symmetry_Int_Tables_number        19
_refine_ls_R_factor_all            .0154
loop_
_symmetry_equiv_pos_site_id
_symmetry_equiv_pos_as_xyz
  1	'-x, y+.5, -z+.5'
  2	'x+.5, -y+.5, -z'
  3	'-x+.5, -y, z+.5'
  4	'x, y, z'
loop_
_atom_type_symbol
_atom_type_oxidation_number
K1+	1
Mn2+	2
O2-	-2
S6+	6
loop_
_atom_site_label
_atom_site_type_symbol
_atom_site_symmetry_multiplicity
_atom_site_Wyckoff_symbol
_atom_site_fract_x
_atom_site_fract_y
_atom_site_fract_z
_atom_site_occupancy
_atom_site_attached_hydrogens
_atom_site_B_iso_or_equiv
K1 K1+ 4 a 0.1771(39) 0.3237(55) 0.6799(43) 1. 0 0.45(18) 
K2 K1+ 4 a 0.0218(35) 0.0519(33) 0.0483(45) 1. 0 0.45(18) 
Mn1 Mn2+ 4 a 0.2746(35) 0.3558(29) 0.3461(37) 1. 0 0.45(18) 
Mn2 Mn2+ 4 a 0.3856(41) 0.0809(44) 0.9307(47) 1. 0 0.45(18) 
S1 S6+ 4 a 0.2109(2) 0.3349(48) 0.0414(72) 1. 0 0.45(18) 
S2 S6+ 4 a 0.3914(46) 0.0233(37) 0.2114(64) 1. 0 0.45(18) 
S3 S6+ 4 a 0.0298(48) 0.2171(41) 0.3677(78) 1. 0 0.45(18) 
O1 O2- 4 a 0.3130(42) 0.2578(58) 0.0125(32) 1. 0 0.45(18) 
O2 O2- 4 a 0.0782(62) 0.3312(69) 0.9885(50) 1. 0 0.45(18) 
O3 O2- 4 a 0.2697(94) 0.4712(47) 0.9387(52) 1. 0 0.45(18) 
O4 O2- 4 a 0.2196(47) 0.4275(59) 0.1610(60) 1. 0 0.45(18) 
O5 O2- 4 a 0.2995(49) 0.9243(46) 0.3252(50) 1. 0 0.45(18) 
O6 O2- 4 a 0.3195(34) 0.9899(60) 0.1072(52) 1. 0 0.45(18) 
O7 O2- 4 a 0.5158(55) 0.9573(45) 0.2445(49) 1. 0 0.45(18) 
O8 O2- 4 a 0.3778(48) 0.1527(52) 0.2928(35) 1. 0 0.45(18) 
O9 O2- 4 a 0.9577(54) 0.2748(51) 0.2598(34) 1. 0 0.45(18) 
O10 O2- 4 a 0.0582(72) 0.0768(48) 0.3398(66) 1. 0 0.45(18) 
O11 O2- 4 a 0.9152(36) 0.1799(78) 0.4823(57) 1. 0 0.45(18) 
O12 O2- 4 a 0.1250(73) 0.2827(41) 0.4345(62) 1. 0 0.45(18) 

#End of data_158734-ICSD


