data_79716-ICSD
#?2014 by Fachinformationszentrum Karlsruhe, and the U.S. Secretary of 
#Commerce on behalf of the United States.  All rights reserved.
_database_code_ICSD                79716
_audit_creation_date               1996/10/14
_audit_update_record               2010/02/01
_chemical_name_systematic          'Strontium Potassium Pentaborate'
_chemical_formula_structural       'Sr K (B5 O9)'
_chemical_formula_sum              'B5 K1 O9 Sr1'
_publ_section_title                'Sr K B5 O9'
loop_
_citation_id
_citation_journal_abbrev
_citation_year
_citation_journal_volume
_citation_page_first
_citation_page_last
_citation_journal_id_ASTM
primary 'Acta Crystallographica, Section C: Crystal Structure Communications'
 1995 51 341 343 ACSCEE
_publ_author_name                  'Tu, J.-M.;Keszler, D.A.'
_cell_length_a                     6.676(1)
_cell_length_b                     7.969(2)
_cell_length_c                     14.259(2)
_cell_angle_alpha                  90.
_cell_angle_beta                   93.00(1)
_cell_angle_gamma                  90.
_cell_volume                       757.55
_cell_formula_units_Z              4
_symmetry_space_group_name_H-M     'P 1 21/c 1'
_symmetry_Int_Tables_number        14
_refine_ls_R_factor_all            .044
loop_
_symmetry_equiv_pos_site_id
_symmetry_equiv_pos_as_xyz
  1	'x, -y+.5, z+.5'
  2	'-x, -y, -z'
  3	'-x, y+.5, -z+.5'
  4	'x, y, z'
loop_
_atom_type_symbol
_atom_type_oxidation_number
B3+	3
K1+	1
O2-	-2
Sr2+	2
loop_
_atom_site_label
_atom_site_type_symbol
_atom_site_symmetry_multiplicity
_atom_site_Wyckoff_symbol
_atom_site_fract_x
_atom_site_fract_y
_atom_site_fract_z
_atom_site_occupancy
_atom_site_attached_hydrogens
Sr1 Sr2+ 4 e 0.9218(1) 0.0151(9) 0.2392(4) 1. 0 
K1 K1+ 4 e 0.5022(2) 0.8460(2) 0.4007(1) 1. 0 
O1 O2- 4 e 0.0917(6) 0.7980(6) 0.3467(3) 1. 0 
O2 O2- 4 e 0.3608(6) 0.1784(6) 0.4131(3) 1. 0 
O3 O2- 4 e 0.8729(6) 0.8271(6) 0.4726(3) 1. 0 
O4 O2- 4 e 0.6717(6) 0.1674(6) 0.3420(3) 1. 0 
O5 O2- 4 e 0.2223(6) -.0468(6) 0.1353(3) 1. 0 
O6 O2- 4 e 0.2089(6) 0.7322(6) 0.5026(3) 1. 0 
O7 O2- 4 e 0.0191(6) 0.2366(6) 0.3690(3) 1. 0 
O8 O2- 4 e 0.5547(6) -.0999(6) 0.1974(3) 1. 0 
O9 O2- 4 e 0.3591(6) 0.1312(6) 0.2470(3) 1. 0 
B1 B3+ 4 e 0.383(1) -.007(1) 0.1942(4) 1. 0 
B2 B3+ 4 e 0.807(1) 0.2799(9) 0.3975(5) 1. 0 
B3 B3+ 4 e 0.463(1) 0.215(1) 0.3270(5) 1. 0 
B4 B3+ 4 e 0.833(1) 0.8021(9) 0.5644(5) 1. 0 
B5 B3+ 4 e 0.062(1) 0.783(1) 0.4387(5) 1. 0 

loop_
_atom_site_aniso_label
_atom_site_aniso_type_symbol
_atom_site_aniso_U_11
_atom_site_aniso_U_22
_atom_site_aniso_U_33
_atom_site_aniso_U_12
_atom_site_aniso_U_13
_atom_site_aniso_U_23
Sr1 Sr2+ 0.0100(2) 0.0089(3) 0.0094(2) 0.0019(3) 0.0007(2) -.0013(2)
K1 K1+ 0.0144(6) 0.0223(8) 0.0154(6) 0.0001(6) -.0011(5) 0.0006(6)
O1 O2- 0.015(2) 0.021(3) 0.010(2) -.001(2) 0.000(2) 0.000(2)
O2 O2- 0.009(2) 0.018(2) 0.016(2) 0.001(2) 0.002(2) 0.002(2)
O3 O2- 0.014(2) 0.024(3) 0.010(2) 0.004(2) 0.003(2) 0.005(2)
O4 O2- 0.012(2) 0.013(2) 0.015(2) 0.004(2) 0.001(2) 0.001(2)
O5 O2- 0.015(2) 0.010(2) 0.015(2) 0.000(2) -.001(2) -.002(2)
O6 O2- 0.013(2) 0.028(3) 0.009(2) 0.005(2) 0.002(2) 0.003(2)
O7 O2- 0.010(2) 0.023(3) 0.010(2) 0.003(2) 0.000(2) 0.003(2)
O8 O2- 0.015(2) 0.014(3) 0.019(2) 0.002(2) -.001(2) -.002(2)
O9 O2- 0.016(2) 0.015(2) 0.012(2) 0.001(2) -.003(2) -.002(2)
B1 B3+ 0.013(3) 0.011(3) 0.010(3) -.009(3) 0.003(2) -.005(3)
B2 B3+ 0.011(3) 0.008(3) 0.016(3) 0.003(3) 0.001(2) 0.002(3)
B3 B3+ 0.009(3) 0.012(3) 0.011(3) 0.000(3) -.001(2) 0.001(3)
B4 B3+ 0.016(3) 0.008(3) 0.013(3) 0.005(3) 0.001(3) 0.001(3)
B5 B3+ 0.017(3) 0.020(4) 0.009(3) -.005(3) 0.005(3) -.002(3)
#End of data_79716-ICSD


