data_39206-ICSD
#?2014 by Fachinformationszentrum Karlsruhe, and the U.S. Secretary of 
#Commerce on behalf of the United States.  All rights reserved.
_database_code_ICSD                39206
_audit_creation_date               1990/06/08
_audit_update_record               2009/02/01
_chemical_name_systematic          'Lithium Lead Phosphate(V)'
_chemical_formula_structural       'Li Pb (P O4)'
_chemical_formula_sum              'Li1 O4 P1 Pb1'
_publ_section_title                'Crystal structure of Li Pb P O4'
loop_
_citation_id
_citation_journal_abbrev
_citation_year
_citation_journal_volume
_citation_page_first
_citation_page_last
_citation_journal_id_ASTM
primary Kristallografiya 1990 35 205 208 KRISAJ
2 'Soviet Physics, Crystallography (= Kristallografiya)'
 1990 35 124 126 SPHCA6
3 'Phase Transition' 1992 38 127 220 PHTRDP
_publ_author_name
;
Trunov, V.K.;Oboznenko, Yu.V.;Makarevich, L.G.;Tskhelashvili, 
N.B.;Sirotkin, S.P.
;
_cell_length_a                     7.982(4)
_cell_length_b                     18.626(8)
_cell_length_c                     4.938(4)
_cell_angle_alpha                  90.
_cell_angle_beta                   90.
_cell_angle_gamma                  90.
_cell_volume                       734.15
_cell_formula_units_Z              8
_symmetry_space_group_name_H-M     'P n a 21'
_symmetry_Int_Tables_number        33
_refine_ls_R_factor_all            .051
loop_
_symmetry_equiv_pos_site_id
_symmetry_equiv_pos_as_xyz
  1	'x+.5, -y+.5, z'
  2	'-x+.5, y+.5, z+.5'
  3	'-x, -y, z+.5'
  4	'x, y, z'
loop_
_atom_type_symbol
_atom_type_oxidation_number
Li1+	1
O2-	-2
P5+	5
Pb2+	2
loop_
_atom_site_label
_atom_site_type_symbol
_atom_site_symmetry_multiplicity
_atom_site_Wyckoff_symbol
_atom_site_fract_x
_atom_site_fract_y
_atom_site_fract_z
_atom_site_occupancy
_atom_site_attached_hydrogens
_atom_site_B_iso_or_equiv
Pb1 Pb2+ 4 a 0.1742(1) 0.05370(4) 0.184 1. 0 0.646(8) 
Pb2 Pb2+ 4 a 0.0292(1) 0.27148(5) 0.1652(4) 1. 0 0.86(1) 
P1 P5+ 4 a 0.2123(8) 0.1798(3) 0.643(1) 1. 0 0.51(9) 
P2 P5+ 4 a 0.2681(8) -.0712(3) -.354(1) 1. 0 0.34(8) 
Li1 Li1+ 4 a 0.496(7) 0.059(2) 0.64(1) 1. 0 1.1(8) 
Li2 Li1+ 4 a -.175(8) 0.152(3) 0.64(1) 1. 0 1.3(9) 
O1 O2- 4 a 0.050(3) 0.147(1) 0.514(4) 1. 0 1.1(3) 
O2 O2- 4 a 0.361(3) 0.135(1) 0.581(5) 1. 0 1.2(3) 
O3 O2- 4 a 0.190(4) 0.184(1) 0.959(4) 1. 0 1.9(4) 
O4 O2- 4 a 0.232(3) 0.257(1) 0.539(4) 1. 0 1.1(3) 
O5 O2- 4 a 0.250(3) -.149(1) -.460(5) 1. 0 1.1(3) 
O6 O2- 4 a 0.284(3) -.075(1) -.046(4) 1. 0 1.3(3) 
O7 O2- 4 a 0.417(3) -.034(1) -.478(5) 1. 0 1.1(3) 
O8 O2- 4 a 0.109(3) -.027(1) -.419(5) 1. 0 1.3(3) 

#End of data_39206-ICSD


