data_59984-ICSD
#?2014 by Fachinformationszentrum Karlsruhe, and the U.S. Secretary of 
#Commerce on behalf of the United States.  All rights reserved.
_database_code_ICSD                59984
_audit_creation_date               2005/10/01
_audit_update_record               2012/08/01
_chemical_name_systematic          'Potassium Dichromate - Ii'
_chemical_formula_structural       'K2 Cr2 O7'
_chemical_formula_sum              'Cr2 K2 O7'
_publ_section_title
;
Phase transitions in K2 Cr2 O7 and structural redetermination of 
phase II
;
loop_
_citation_id
_citation_journal_abbrev
_citation_year
_citation_journal_volume
_citation_page_first
_citation_page_last
_citation_journal_id_ASTM
primary 'Acta Crystallographica, Section B: Structural Science'
 2004 60 705 715 ASBSDK
_publ_author_name
;
Weakley, T.J.R.;Ylvisaker, E.R.;Yager, R.J.;Stephens, J.E.;Wiegel, 
R.D.;Mengis, M.;Wu, P.;Photinos, P.;Abrahams, S.C.
;
_cell_length_a                     7.3837(8)
_cell_length_b                     7.4622(6)
_cell_length_c                     13.3949(12)
_cell_angle_alpha                  96.204(7)
_cell_angle_beta                   98.046(8)
_cell_angle_gamma                  90.943(8)
_cell_volume                       726.12
_cell_formula_units_Z              4
_symmetry_space_group_name_H-M     'P -1'
_symmetry_Int_Tables_number        2
_refine_ls_R_factor_all            .053
loop_
_symmetry_equiv_pos_site_id
_symmetry_equiv_pos_as_xyz
  1	'-x, -y, -z'
  2	'x, y, z'
loop_
_atom_type_symbol
_atom_type_oxidation_number
Cr6+	6
K1+	1
O2-	-2
loop_
_atom_site_label
_atom_site_type_symbol
_atom_site_symmetry_multiplicity
_atom_site_Wyckoff_symbol
_atom_site_fract_x
_atom_site_fract_y
_atom_site_fract_z
_atom_site_occupancy
_atom_site_attached_hydrogens
_atom_site_U_iso_or_equiv
Cr1 Cr6+ 2 i 0.59177(7) 0.76886(7) 0.60724(4) 1.000 0 0.01927(15) 
Cr2 Cr6+ 2 i 0.79290(7) 0.80680(7) 0.41370(4) 1.000 0 0.01877(15) 
Cr3 Cr6+ 2 i 0.81703(7) 0.42577(7) 0.11362(4) 1.000 0 0.01890(15) 
Cr4 Cr6+ 2 i 0.81338(7) 0.15247(7) -0.08318(4) 1.000 0 0.01837(15) 
K1 K1+ 2 i 1.10346(12) 0.66920(11) 0.64034(6) 1.000 0 0.0309(2) 
K2 K1+ 2 i 0.25016(11) 0.76715(10) 0.34962(6) 1.000 0 0.0289(2) 
K3 K1+ 2 i 0.66245(10) -0.08530(10) 0.15847(6) 1.000 0 0.0247(2) 
K4 K1+ 2 i 0.69492(12) 0.65228(11) -0.13585(6) 1.000 0 0.0316(2) 
O1 O2- 2 i 0.7196(4) 0.6125(4) 0.6490(2) 1.000 0 0.0343(8) 
O2 O2- 2 i 0.5547(4) 0.9100(4) 0.7017(2) 1.000 0 0.0351(8) 
O3 O2- 2 i 0.4024(4) 0.6852(4) 0.5451(2) 1.000 0 0.0359(8) 
O4 O2- 2 i 0.7076(4) 0.8928(3) 0.52682(19) 1.000 0 0.0301(7) 
O5 O2- 2 i 0.9591(3) 0.6753(3) 0.44298(19) 1.000 0 0.0289(7) 
O6 O2- 2 i 0.8688(4) 0.9716(3) 0.3608(2) 1.000 0 0.0325(7) 
O7 O2- 2 i 0.6344(4) 0.6951(4) 0.3365(2) 1.000 0 0.0358(8) 
O8 O2- 2 i 0.6890(4) 0.2929(3) 0.1638(2) 1.000 0 0.0300(7) 
O9 O2- 2 i 0.9756(4) 0.5180(4) 0.20002(18) 1.000 0 0.0302(7) 
O10 O2- 2 i 0.6949(4) 0.5755(4) 0.0612(2) 1.000 0 0.0340(7) 
O11 O2- 2 i 0.9293(3) 0.2959(3) 0.02274(18) 1.000 0 0.0242(6) 
O12 O2- 2 i 0.6919(4) -0.0003(3) -0.04335(19) 1.000 0 0.0293(7) 
O13 O2- 2 i 0.9604(4) 0.0612(4) -0.1486(2) 1.000 0 0.0363(8) 
O14 O2- 2 i 0.6774(3) 0.2736(3) -0.15180(19) 1.000 0 0.0274(7) 

loop_
_atom_site_aniso_label
_atom_site_aniso_type_symbol
_atom_site_aniso_U_11
_atom_site_aniso_U_22
_atom_site_aniso_U_33
_atom_site_aniso_U_12
_atom_site_aniso_U_13
_atom_site_aniso_U_23
Cr1 Cr6+ 0.0186(3) 0.0208(3) 0.0189(3) 0.0025(2) 0.0038(2) 0.0025(2)
Cr2 Cr6+ 0.0179(3) 0.0206(3) 0.0188(3) 0.0021(2) 0.0039(2) 0.0048(2)
Cr3 Cr6+ 0.0187(3) 0.0184(3) 0.0188(3) -0.0013(2) 0.0003(2) 0.0019(2)
Cr4 Cr6+ 0.0167(3) 0.0183(3) 0.0200(3) 0.0003(2) 0.0030(2) 0.0010(2)
K1 K1+ 0.0371(5) 0.0311(5) 0.0243(4) -0.0073(4) 0.0021(3) 0.0055(3)
K2 K1+ 0.0322(5) 0.0268(4) 0.0291(4) -0.0030(3) 0.0099(3) 0.0020(3)
K3 K1+ 0.0234(4) 0.0244(4) 0.0259(4) -0.0003(3) 0.0036(3) 0.0008(3)
K4 K1+ 0.0374(5) 0.0296(4) 0.0278(4) 0.0103(4) 0.0039(4) 0.0022(3)
O1 O2- 0.0320(14) 0.0309(14) 0.040(2) 0.0097(12) -0.0003(12) 0.0100(12)
O2 O2- 0.042(2) 0.0346(15) 0.0304(15) 0.0037(12) 0.0152(12) -0.0026(12)
O3 O2- 0.0274(14) 0.045(2) 0.0334(15) -0.0046(12) -0.0022(12) 0.0064(13)
O4 O2- 0.0368(15) 0.0248(13) 0.0320(14) 0.0016(11) 0.0165(12) 0.0028(11)
O5 O2- 0.0276(13) 0.0316(14) 0.0285(14) 0.0115(11) 0.0034(11) 0.0064(11)
O6 O2- 0.041(2) 0.0273(14) 0.0318(14) -0.0026(11) 0.0097(12) 0.0098(11)
O7 O2- 0.0287(14) 0.043(2) 0.0331(15) -0.0042(12) -0.0020(12) 0.0007(12)
O8 O2- 0.0298(14) 0.0291(14) 0.032(2) -0.0064(11) 0.0081(11) 0.0036(11)
O9 O2- 0.030(2) 0.0358(14) 0.0221(13) -0.0102(11) 0.0000(11) -0.0012(11)
O10 O2- 0.0416(16) 0.0291(14) 0.0313(15) 0.0130(12) 0.0024(12) 0.0048(11)
O11 O2- 0.0182(12) 0.027(2) 0.026(2) -0.0010(10) -0.0002(10) -0.0014(10)
O12 O2- 0.036(2) 0.0245(13) 0.0276(14) -0.0072(11) 0.0047(11) 0.0036(11)
O13 O2- 0.0291(15) 0.0411(16) 0.039(2) 0.0070(12) 0.0130(12) -0.0064(13)
O14 O2- 0.0263(13) 0.0250(13) 0.030(2) 0.0020(10) -0.0017(11) 0.0047(10)
#End of data_59984-ICSD


