data_27667-ICSD
#?2014 by Fachinformationszentrum Karlsruhe, and the U.S. Secretary of 
#Commerce on behalf of the United States.  All rights reserved.
_database_code_ICSD                27667
_audit_creation_date               1980/01/01
_audit_update_record               2009/08/01
_chemical_name_systematic          'Silver(II) Oxide'
_chemical_formula_structural       'Ag O'
_chemical_formula_sum              'Ag1 O1'
_publ_section_title
;
Planar coordination of the group I B elements: Crystal structure of 
Ag(II) oxide
;
loop_
_citation_id
_citation_journal_abbrev
_citation_year
_citation_journal_volume
_citation_page_first
_citation_page_last
_citation_journal_id_ASTM
primary 'Journal of Inorganic and Nuclear Chemistry' 1958 7 462 467 JINCAO
2 'Ricerca Scientifica' 1957 27 2163 2172 RISCAZ
3 'Journal of Inorganic and Nuclear Chemistry' 1958 8 462 467 JINCAO
4 'Journal of the Electrochemical Society' 1959 106 366 366 JESOAN
_publ_author_name
;
Scatturin, V.;Bellon, P.L.;Zannetti, R.
;
_cell_length_a                     5.852
_cell_length_b                     3.478
_cell_length_c                     5.495
_cell_angle_alpha                  90.
_cell_angle_beta                   107.5
_cell_angle_gamma                  90.
_cell_volume                       106.66
_cell_formula_units_Z              4
_symmetry_space_group_name_H-M     'C 1 2/c 1'
_symmetry_Int_Tables_number        15
loop_
_symmetry_equiv_pos_site_id
_symmetry_equiv_pos_as_xyz
  1	'x, -y, z+.5'
  2	'-x, -y, -z'
  3	'-x, y, -z+.5'
  4	'x, y, z'
  5	'x+.5, -y+.5, z+.5'
  6	'-x+.5, -y+.5, -z'
  7	'-x+.5, y+.5, -z+.5'
  8	'x+.5, y+.5, z'
loop_
_atom_type_symbol
_atom_type_oxidation_number
Ag2+	2
O2-	-2
loop_
_atom_site_label
_atom_site_type_symbol
_atom_site_symmetry_multiplicity
_atom_site_Wyckoff_symbol
_atom_site_fract_x
_atom_site_fract_y
_atom_site_fract_z
_atom_site_occupancy
_atom_site_attached_hydrogens
Ag1 Ag2+ 4 c 0.25 0.25 0 1. 0 
O1 O2- 4 e 0 0.084 0.25 1. 0 

#End of data_27667-ICSD


