data_51311-ICSD
#?2014 by Fachinformationszentrum Karlsruhe, and the U.S. Secretary of 
#Commerce on behalf of the United States.  All rights reserved.
_database_code_ICSD                51311
_audit_creation_date               2002/10/01
_audit_update_record               2012/02/01
_chemical_name_systematic          'Tetracalcium Diniobate'
_chemical_formula_structural       'Ca4 (Nb2 O9)'
_chemical_formula_sum              'Ca4 Nb2 O9'
_publ_section_title
;
Cation ordering types and dielectric properties in the complex 
perovskite Ca (Ca1/3 Nb2/3) O3
;
loop_
_citation_id
_citation_journal_abbrev
_citation_year
_citation_journal_volume
_citation_page_first
_citation_page_last
_citation_journal_id_ASTM
primary 'Journal of Solid State Chemistry' 2001 156 122 134 JSSCBI
_publ_author_name
;
Levin, I.;Chan, J.-Y.;Geyert, R.G.;Maslar, J.E.;Vanderah, T.A.
;
_cell_length_a                     9.8190(10)
_cell_length_b                     5.53628(5)
_cell_length_c                     17.35016(16)
_cell_angle_alpha                  90
_cell_angle_beta                   125.501(1)
_cell_angle_gamma                  90
_cell_volume                       767.84
_cell_formula_units_Z              4
_symmetry_space_group_name_H-M     'P 1 21/c 1'
_symmetry_Int_Tables_number        14
_refine_ls_R_factor_all            .0296
loop_
_symmetry_equiv_pos_site_id
_symmetry_equiv_pos_as_xyz
  1	'x, -y+.5, z+.5'
  2	'-x, -y, -z'
  3	'-x, y+.5, -z+.5'
  4	'x, y, z'
loop_
_atom_type_symbol
_atom_type_oxidation_number
Ca2+	2
Nb5+	5
O2-	-2
loop_
_atom_site_label
_atom_site_type_symbol
_atom_site_symmetry_multiplicity
_atom_site_Wyckoff_symbol
_atom_site_fract_x
_atom_site_fract_y
_atom_site_fract_z
_atom_site_occupancy
_atom_site_attached_hydrogens
_atom_site_U_iso_or_equiv
Ca1 Ca2+ 2 a 0 0 0 1. 0 0.0111(7) 
Ca2 Ca2+ 2 d 0.5 0.5 0 1. 0 0.0111(7) 
Nb1 Nb5+ 4 e -0.0018(3) 0.0095(6) 0.3367(2) 1. 0 0.0048(3) 
Nb2 Nb5+ 4 e 0.4937(3) 0.0093(5) 0.1631(2) 1. 0 0.0048(3) 
O1 O2- 4 e -0.0418(4) 0.2125(5) 0.0968(2) 1. 0 0.0096(6) 
O2 O2- 4 e 0.4566(4) 0.7119(6) 0.2182(2) 1. 0 0.0099(8) 
O3 O2- 4 e 0.0450(4) 0.8021(6) 0.2495(2) 1. 0 0.0088(7) 
O4 O2- 4 e 0.5578(4) 0.2950(6) 0.1280(2) 1. 0 0.0090(8) 
O5 O2- 4 e 0.0789(4) 0.6806(6) 0.1004(2) 1. 0 0.0112(8) 
O6 O2- 4 e 0.4356(4) 0.8306(6) 0.0527(2) 1. 0 0.0117(6) 
O7 O2- 4 e 0.2542(4) 0.4114(5) 0.2648(2) 1. 0 0.0089(7) 
O8 O2- 4 e 0.7733(4) 0.6144(5) 0.0762(2) 1. 0 0.0091(6) 
O9 O2- 4 e 0.2694(4) 0.1132(5) 0.1056(2) 1. 0 0.0101(7) 
Ca3 Ca2+ 4 e 0.2671(5) 0.5182(8) 0.0737(3) 1. 0 0.0142(8) 
Ca4 Ca2+ 4 e 0.7535(6) 0.4978(8) 0.2691(3) 1. 0 0.0117(8) 
Ca5 Ca2+ 4 e 0.7596(5) 0.0164(8) 0.1069(2) 1. 0 0.0137(8) 

#End of data_51311-ICSD


