data_200158-ICSD
#?2014 by Fachinformationszentrum Karlsruhe, and the U.S. Secretary of 
#Commerce on behalf of the United States.  All rights reserved.
_database_code_ICSD                200158
_audit_creation_date               1980/01/01
_audit_update_record               2007/08/01
_chemical_name_systematic
;
Dicalcium Tetraoxooctahydroxotetraborate
;
_chemical_formula_structural       'Ca2 (B4 O4 (O H)8)'
_chemical_formula_sum              'H8 B4 Ca2 O12'
_chemical_name_mineral             Uralborite
_publ_section_title
;
Accurate crystal structure of uralborite, Ca2 (B4 O4 (O H)8 )
;
loop_
_citation_id
_citation_journal_abbrev
_citation_year
_citation_journal_volume
_citation_page_first
_citation_page_last
_citation_journal_id_ASTM
primary 'Doklady Akademii Nauk SSSR' 1977 234 822 825 DANKAS
_publ_author_name
;
Simonov, M.A.;Egorov Tismenko, Yu.K.;Belov, N.V.
;
_cell_length_a                     6.927(3)
_cell_length_b                     9.836(3)
_cell_length_c                     12.331(3)
_cell_angle_alpha                  90.
_cell_angle_beta                   90.
_cell_angle_gamma                  97.81(3)
_cell_volume                       832.37
_cell_formula_units_Z              4
_symmetry_space_group_name_H-M     'P 1 1 21/n'
_symmetry_Int_Tables_number        14
_refine_ls_R_factor_all            .043
loop_
_symmetry_equiv_pos_site_id
_symmetry_equiv_pos_as_xyz
  1	'x+.5, y+.5, -z+.5'
  2	'-x, -y, -z'
  3	'-x+.5, -y+.5, z+.5'
  4	'x, y, z'
loop_
_atom_type_symbol
_atom_type_oxidation_number
B3+	3
Ca2+	2
H1+	1
O2-	-2
loop_
_atom_site_label
_atom_site_type_symbol
_atom_site_symmetry_multiplicity
_atom_site_Wyckoff_symbol
_atom_site_fract_x
_atom_site_fract_y
_atom_site_fract_z
_atom_site_occupancy
_atom_site_attached_hydrogens
_atom_site_B_iso_or_equiv
Ca1 Ca2+ 4 e 0.30116(9) 0.23861(7) 0.74017(5) 1. 0 0 
Ca2 Ca2+ 4 e 0.28021(10) 0.86440(6) 0.59960(5) 1. 0 0 
B1 B3+ 4 e 0.2575(5) 0.3361(4) 0.9924(3) 1. 0 0 
B2 B3+ 4 e 0.1757(5) 0.5203(4) 0.8475(3) 1. 0 0 
B3 B3+ 4 e 0.3146(5) 0.7657(4) 0.8350(3) 1. 0 0 
B4 B3+ 4 e 0.4008(5) 0.5956(4) 0.6953(3) 1. 0 0 
H1 H1+ 4 e 0.135(5) 0.905(3) 0.810(3) 1. 0 3.8 
H2 H1+ 4 e 0.030(5) 0.084(3) 0.582(3) 1. 0 4.6 
H3 H1+ 4 e 0.054(5) 0.288(3) 0.475(3) 1. 0 3.1 
H4 H1+ 4 e 0.018(5) 0.506(3) 0.268(3) 1. 0 5.1 
H5 H1+ 4 e 0.154(5) 0.590(3) 0.448(3) 1. 0 6.5 
H6 H1+ 4 e 0.095(5) 0.087(3) 0.906(3) 1. 0 6. 
H7 H1+ 4 e 0.025(5) 0.241(3) 0.050(3) 1. 0 5.7 
H8 H1+ 4 e 0.191(5) 0.540(3) 0.594(3) 1. 0 8.2 
O1 O2- 4 e 0.1320(3) 0.4077(2) 0.9256(2) 1. 0 0 
O2 O2- 4 e 0.4124(3) 0.2770(2) 0.9297(2) 1. 0 0 
O3 O2- 4 e 0.2439(3) 0.6493(2) 0.9047(2) 1. 0 0 
O4 O2- 4 e 0.4261(3) 0.8772(2) 0.9004(2) 1. 0 0 
O5 O2- 4 e 0.0924(3) 0.0649(2) 0.8486(2) 1. 0 0 
O6 O2- 4 e 0.1475(3) 0.8230(2) 0.7806(1) 1. 0 0 
O7 O2- 4 e 0.3166(3) 0.4861(2) 0.7661(2) 1. 0 0 
O8 O2- 4 e 0.4445(3) 0.7279(2) 0.7510(2) 1. 0 0 
O9 O2- 4 e 0.4836(3) 0.0369(2) 0.7072(2) 1. 0 0 
O10 O2- 4 e 0.2686(3) 0.6129(2) 0.6011(2) 1. 0 0 
O11 O2- 4 e 0.1501(3) 0.0745(2) 0.5803(2) 1. 0 0 
O12 O2- 4 e 0.3619(3) 0.2821(2) 0.5460(2) 1. 0 0 

loop_
_atom_site_aniso_label
_atom_site_aniso_type_symbol
_atom_site_aniso_B_11
_atom_site_aniso_B_22
_atom_site_aniso_B_33
_atom_site_aniso_B_12
_atom_site_aniso_B_13
_atom_site_aniso_B_23
Ca1 Ca2+ 0.62(2) 0.64(2) 0.69(2) 0.01(2) 0.00(2) -.01(2)
Ca2 Ca2+ 0.62(2) 0.65(2) 0.60(2) 0.01(2) -.04(2) -.03(2)
B1 B3+ 0.63(11) 0.79(11) 0.65(11) 0.14(9) 0.00(9) 0.04(9)
B2 B3+ 0.64(11) 0.56(11) 0.68(11) 0.10(8) 0.14(9) 0.15(9)
B3 B3+ 0.66(11) 0.74(11) 0.68(11) 0.08(9) 0.00(9) 0.04(9)
B4 B3+ 0.66(11) 0.56(10) 0.82(12) 0.10(9) -.04(9) 0.08(9)
O1 O2- 0.56(8) 0.89(8) 0.87(8) -.06(6) -.11(6) 0.37(6)
O2 O2- 0.77(8) 0.91(8) 0.75(8) 0.15(6) 0.10(6) -.16(7)
O3 O2- 0.78(8) 0.54(7) 0.54(7) -.08(6) 0.06(6) 0.00(6)
O4 O2- 0.87(8) 0.75(7) 0.90(8) -.10(6) -.12(7) -.11(7)
O5 O2- 0.62(8) 0.72(8) 1.02(8) 0.15(6) -.27(7) 0.03(7)
O6 O2- 0.72(8) 0.74(8) 0.77(8) 0.17(6) -.05(6) 0.09(6)
O7 O2- 0.65(7) 0.51(7) 0.71(8) 0.00(6) 0.12(6) 0.07(6)
O8 O2- 0.63(7) 0.51(7) 0.82(8) -.02(5) 0.20(6) -.02(6)
O9 O2- 0.56(8) 0.67(7) 0.85(8) 0.07(6) 0.17(6) 0.00(6)
O10 O2- 1.12(9) 1.11(8) 0.90(8) 0.16(7) 0.29(8) 0.17(7)
O11 O2- 0.76(8) 1.01(8) 0.84(8) 0.13(6) 0.26(6) 0.39(7)
O12 O2- 1.00(9) 0.77(8) 0.82(8) -.19(6) -.06(7) -.36(7)
#End of data_200158-ICSD


