data_33294-ICSD
#?2014 by Fachinformationszentrum Karlsruhe, and the U.S. Secretary of 
#Commerce on behalf of the United States.  All rights reserved.
_database_code_ICSD                33294
_audit_creation_date               1985/03/28
_audit_update_record               2006/04/01
_chemical_name_systematic          'Tetrapotassium Tungstate'
_chemical_formula_structural       'K4 (W O5)'
_chemical_formula_sum              'K4 O5 W1'
_publ_section_title
;
Die Koordinationszahl 5 bei Wolframaten und Molybdaten: Ueber K4 (W 
O5), K4 (Mo O5) und Rb4 (W O5)
;
loop_
_citation_id
_citation_journal_abbrev
_citation_year
_citation_journal_volume
_citation_page_first
_citation_page_last
_citation_journal_id_ASTM
primary 'Journal of the Less-Common Metals' 1985 105 87 104 JCOMAH
_publ_author_name                  'Betz, T.;Hoppe, R.'
_cell_length_a                     16.9218(15)
_cell_length_b                     10.2119(9)
_cell_length_c                     6.2639(6)
_cell_angle_alpha                  96.139(7)
_cell_angle_beta                   92.611(8)
_cell_angle_gamma                  94.239(7)
_cell_volume                       1071.71
_cell_formula_units_Z              6
_symmetry_space_group_name_H-M     'P -1'
_symmetry_Int_Tables_number        2
_refine_ls_R_factor_all            .057
loop_
_symmetry_equiv_pos_site_id
_symmetry_equiv_pos_as_xyz
  1	'-x, -y, -z'
  2	'x, y, z'
loop_
_atom_type_symbol
_atom_type_oxidation_number
K1+	1
O2-	-2
W6+	6
loop_
_atom_site_label
_atom_site_type_symbol
_atom_site_symmetry_multiplicity
_atom_site_Wyckoff_symbol
_atom_site_fract_x
_atom_site_fract_y
_atom_site_fract_z
_atom_site_occupancy
_atom_site_attached_hydrogens
_atom_site_U_iso_or_equiv
W1 W6+ 2 i 0.2508 0.2664(1) 0.2816(1) 1. 0 0 
W2 W6+ 2 i 0.4033 0.7433(1) 0.9000(1) 1. 0 0 
W3 W6+ 2 i 0.9078 0.2256(1) 0.4366(1) 1. 0 0 
K1 K1+ 2 i 0.9165(2) 0.5799(4) 0.5570(6) 1. 0 0 
K2 K1+ 2 i 0.4414(2) 0.4626(4) 0.2689(6) 1. 0 0 
K3 K1+ 2 i 0.0037(2) 0.7024(4) 0.0400(6) 1. 0 0 
K4 K1+ 2 i 0.3204(2) 0.9885(4) 0.4899(6) 1. 0 0 
K5 K1+ 2 i 0.5033(2) 0.1916(4) 0.5756(6) 1. 0 0 
K6 K1+ 2 i 0.8199(2) 0.5008(4) 0.0544(7) 1. 0 0 
K7 K1+ 2 i 0.5946(1) 0.9101(4) 0.9335(6) 1. 0 0 
K8 K1+ 2 i 0.3531(2) 0.4043(4) 0.7682(6) 1. 0 0 
K9 K1+ 2 i 0.2105(5) 0.8373(4) 0.0506(7) 1. 0 0 
K10 K1+ 2 i 0.0721(2) 0.0450(4) 0.2537(7) 1. 0 0 
K11 K1+ 2 i 0.8466(3) 0.8857(4) 0.2220(6) 1. 0 0 
K12 K1+ 2 i 0.7186(3) 0.3510(4) 0.5776(8) 1. 0 0 
O1 O2- 2 i 0.6240(7) 0.1591(11) 0.8409(17) 1. 0 0.0128(20) 
O2 O2- 2 i 0.8813(7) 0.3377(12) 0.6807(18) 1. 0 0.0166(22) 
O3 O2- 2 i 0.5758(7) 0.3647(11) 0.3584(17) 1. 0 0.0119(20) 
O4 O2- 2 i 0.9990(8) 0.1843(12) 0.5702(19) 1. 0 0.0171(22) 
O5 O2- 2 i 0.9173(7) 0.3716(11) 0.2845(18) 1. 0 0.0142(21) 
O6 O2- 2 i 0.3533(7) 0.2406(11) 0.4135(17) 1. 0 0.0119(20) 
O7 O2- 2 i 0.1490(7) 0.2818(11) 0.1401(17) 1. 0 0.0100(19) 
O8 O2- 2 i 0.9268(7) 0.1173(11) 0.1762(18) 1. 0 0.0139(21) 
O9 O2- 2 i 0.3018(8) 0.6608(12) 0.8739(19) 1. 0 0.0177(22) 
O10 O2- 2 i 0.2956(8) 0.4048(12) 0.157(20) 1. 0 0.0190(22) 
O11 O2- 2 i 0.5113(7) 0.3211(12) 0.9587(19) 1. 0 0.01711(22) 
O12 O2- 2 i 0.5732(8) 0.1045(12) 0.2264(19) 1. 0 0.0172(22) 
O13 O2- 2 i 0.2476(8) 0.0947(12) 0.1494(19) 1. 0 0.0178(22) 
O14 O2- 2 i 0.1839(8) 0.8802(13) 0.537(22) 1. 0 0.0236(24) 
O15 O2- 2 i 0.2113(8) 0.3058(13) 0.5466(20) 1. 0 0.0226(24) 

loop_
_atom_site_aniso_label
_atom_site_aniso_type_symbol
_atom_site_aniso_U_11
_atom_site_aniso_U_22
_atom_site_aniso_U_33
_atom_site_aniso_U_12
_atom_site_aniso_U_13
_atom_site_aniso_U_23
W1 W6+ 0.0071(3) 0.0036(3) 0.0094(33) 0.0003(2) -.0005(2) 0.0006(2)
W2 W6+ 0.0068(3) 0.0049(3) 0.0082(3) 0.0006(2) 0.0007(2) -.0001(2)
W3 W6+ 0.0071(3) 0.0051(3) 0.0086(3) 0.0003(2) 0.0009(2) 0.0003(2)
K1 K1+ 0.0153(16) 0.012(12) 0.0200(17) 0.0014(12) 0.0012(13) -.0023(13)
K2 K1+ 0.0096(14) 0.016(12) 0.0173(16) 0.0022(12) 0.0000(12) -.0003(13)
K3 K1+ 0.0156(16) 0.0218(17) 0.0134(16) 0.0005(13) 0.0019(13) -0.002(13)
K4 K1+ 0.0129(16) 0.0140(15) 0.0204(17) -.0010(12) 0.0014(13) 0.0061(13)
K5 K1+ 0.0160(16) 0.0188(16) 0.0119(15) 0.0020(13) 0.0008(13) -.0003(13)
K6 K1+ 0.0137(1) 0.0174(17) 0.0334(20) -.0012(13) -.0051(15) 0.0135(15)
K7 K1+ 0.0204(17) 0.0115(15) 0.0192(17) 0.0015(13) 0.0039(14) 0.0003(13)
K8 K1+ 0.023(19) 0.0133(15) 0.011(16) -.0010(13) 0.00223(14) -.0029(13)
K9 K1+ 0.0128(16) 0.0117(15) 0.0302(19) 0.0023(12) -.0025(14) -.0018(14)
K10 K1+ 0.0171(17) 0.0131(15) 0.0244(18) 0.0029(13) 0.0044(13) 0.0044(18)
K11 K1+ 0.0284(19) 0.0110(15) 0.0157(16) -.0009(14) 0.0003(14) 0.0002(13)
K12 K1+ 0.0229(19) 0.0235(19) 0.0357(21) 0.0082(16) -.0119(17) -.0080(17)
#End of data_33294-ICSD


