data_600661-ICSD
#?2014 by Fachinformationszentrum Karlsruhe, and the U.S. Secretary of 
#Commerce on behalf of the United States.  All rights reserved.
_database_code_ICSD                600661
_audit_creation_date               2011/02/01
_chemical_name_systematic
;
Silver Molybdenum(II/III) Sulfide (1/6/8)
;
_chemical_formula_structural       'Ag Mo6 S8'
_chemical_formula_sum              'Ag1 Mo6 S8'
_publ_section_title
;
Chalcogen ordering on special-position sites in ternary molybdenum 
chacogenides
;
loop_
_citation_id
_citation_journal_abbrev
_citation_year
_citation_journal_volume
_citation_page_first
_citation_page_last
_citation_journal_id_ASTM
primary 'Inorganic Chemistry' 1983 22 3773 3776 INOCAJ
_publ_author_name
;
Johnson, D.C.;Tarascon, J.-M.;Sienko, M.J.
;
_cell_length_a                     9.31
_cell_length_b                     9.31
_cell_length_c                     10.82
_cell_angle_alpha                  90.
_cell_angle_beta                   90.
_cell_angle_gamma                  120.
_cell_volume                       812.19
_cell_formula_units_Z              3
_symmetry_space_group_name_H-M     'R -3 H'
_symmetry_Int_Tables_number        148
loop_
_symmetry_equiv_pos_site_id
_symmetry_equiv_pos_as_xyz
  1	'x-y, x, -z'
  2	'y, -x+y, -z'
  3	'-x, -y, -z'
  4	'-x+y, -x, z'
  5	'-y, x-y, z'
  6	'x, y, z'
  7	'x-y+.6666, x+.3333, -z+.3333'
  8	'x-y+.3333, x+.6666, -z+.6666'
  9	'y+.6666, -x+y+.3333, -z+.3333'
 10	'y+.3333, -x+y+.6666, -z+.6666'
 11	'-x+.6666, -y+.3333, -z+.3333'
 12	'-x+.3333, -y+.6666, -z+.6666'
 13	'-x+y+.6666, -x+.3333, z+.3333'
 14	'-x+y+.3333, -x+.6666, z+.6666'
 15	'-y+.6666, x-y+.3333, z+.3333'
 16	'-y+.3333, x-y+.6666, z+.6666'
 17	'x+.6666, y+.3333, z+.3333'
 18	'x+.3333, y+.6666, z+.6666'
loop_
_atom_type_symbol
_atom_type_oxidation_number
Ag1+	1
Mo2.5+	2.5
S2-	-2
loop_
_atom_site_label
_atom_site_type_symbol
_atom_site_symmetry_multiplicity
_atom_site_Wyckoff_symbol
_atom_site_fract_x
_atom_site_fract_y
_atom_site_fract_z
_atom_site_occupancy
_atom_site_attached_hydrogens
Mo1 Mo2.5+ 18 f 0.159 0.175 0.393 1. 0 
Ag1 Ag1+ 3 a 0 0 0 1. 0 
S1 S2- 6 c 0 0 0.224 1. 0 
S2 S2- 18 f 0.048 0.349 0.082 1. 0 

#End of data_600661-ICSD


