data_20051-ICSD
#?2014 by Fachinformationszentrum Karlsruhe, and the U.S. Secretary of 
#Commerce on behalf of the United States.  All rights reserved.
_database_code_ICSD                20051
_audit_creation_date               1980/01/01
_audit_update_record               1984/11/02
_chemical_name_systematic          'Potassium Samarium Fluoride'
_chemical_formula_structural       'K Sm F4'
_chemical_formula_sum              'F4 K1 Sm1'
_publ_section_title
;
Application of method of rhombus to interpreting the crystal 
structure of K Sm F4
;
loop_
_citation_id
_citation_journal_abbrev
_citation_year
_citation_journal_volume
_citation_page_first
_citation_page_last
_citation_journal_id_ASTM
primary 'Doklady Akademii Nauk SSSR' 1973 212 96 98 DANKAS
_publ_author_name
;
Saf'yanov, Yu.N.;Bochkova, R.I.;Kuz'min, E.A.;Belov, N.V.
;
_cell_length_a                     6.24
_cell_length_b                     15.57
_cell_length_c                     3.73
_cell_angle_alpha                  90.
_cell_angle_beta                   90.
_cell_angle_gamma                  90.
_cell_volume                       362.39
_cell_formula_units_Z              4
_symmetry_space_group_name_H-M     'P n a m'
_symmetry_Int_Tables_number        62
_refine_ls_R_factor_all            .084
loop_
_symmetry_equiv_pos_site_id
_symmetry_equiv_pos_as_xyz
  1	'x+.5, -y+.5, z'
  2	'x, y, -z+.5'
  3	'-x+.5, y+.5, z+.5'
  4	'-x, -y, -z'
  5	'-x+.5, y+.5, -z'
  6	'-x, -y, z+.5'
  7	'x+.5, -y+.5, -z+.5'
  8	'x, y, z'
loop_
_atom_type_symbol
_atom_type_oxidation_number
F1-	-1
K1+	1
Sm3+	3
loop_
_atom_site_label
_atom_site_type_symbol
_atom_site_symmetry_multiplicity
_atom_site_Wyckoff_symbol
_atom_site_fract_x
_atom_site_fract_y
_atom_site_fract_z
_atom_site_occupancy
_atom_site_attached_hydrogens
_atom_site_B_iso_or_equiv
Sm1 Sm3+ 4 c 0.25 0.44 0.25 1. 0 0.44 
K1 K1+ 4 c 0.273 0.205 0.75 1. 0 0.44 
F1 F1- 4 c 0.119 0.039 0.25 1. 0 0.44 
F2 F1- 4 c -.009 0.446 0.75 1. 0 0.44 
F3 F1- 4 c 0.384 0.366 0.75 1. 0 0.44 
F4 F1- 4 c 0.083 0.301 0.25 1. 0 0.44 

#End of data_20051-ICSD


