data_35635-ICSD
#?2014 by Fachinformationszentrum Karlsruhe, and the U.S. Secretary of 
#Commerce on behalf of the United States.  All rights reserved.
_database_code_ICSD                35635
_audit_creation_date               1983/12/31
_chemical_name_systematic          'Sodium Divanadate'
_chemical_formula_structural       'Na4 (V2 O7)'
_chemical_formula_sum              'Na4 O7 V2'
_publ_section_title
;
Tetrasodium Divanadate, Na4 (V2 O7)
;
loop_
_citation_id
_citation_journal_abbrev
_citation_year
_citation_journal_volume
_citation_page_first
_citation_page_last
_citation_journal_id_ASTM
primary 'Acta Crystallographica, Section C: Crystal Structure Communications'
 1983 39 1480 1482 ACSCEE
_publ_author_name                  'Kato, K.;Takayama, E.'
_cell_length_a                     15.376(2)
_cell_length_b                     5.7573(5)
_cell_length_c                     32.564(2)
_cell_angle_alpha                  90.
_cell_angle_beta                   95.08(1)
_cell_angle_gamma                  90.
_cell_volume                       2871.38
_cell_formula_units_Z              16
_symmetry_space_group_name_H-M     'C 1 2/c 1'
_symmetry_Int_Tables_number        15
_refine_ls_R_factor_all            .05
loop_
_symmetry_equiv_pos_site_id
_symmetry_equiv_pos_as_xyz
  1	'x, -y, z+.5'
  2	'-x, -y, -z'
  3	'-x, y, -z+.5'
  4	'x, y, z'
  5	'x+.5, -y+.5, z+.5'
  6	'-x+.5, -y+.5, -z'
  7	'-x+.5, y+.5, -z+.5'
  8	'x+.5, y+.5, z'
loop_
_atom_type_symbol
_atom_type_oxidation_number
Na1+	1
O2-	-2
V5+	5
loop_
_atom_site_label
_atom_site_type_symbol
_atom_site_symmetry_multiplicity
_atom_site_Wyckoff_symbol
_atom_site_fract_x
_atom_site_fract_y
_atom_site_fract_z
_atom_site_occupancy
_atom_site_attached_hydrogens
Na1 Na1+ 4 c 0.25 0.25 0 1. 0 
Na2 Na1+ 4 e 0 0.1887(3) 0.25 1. 0 
Na3 Na1+ 8 f 0.14053(8) 0.8183(2) 0.02207(4) 1. 0 
Na4 Na1+ 8 f 0.43097(8) 0.2694(2) 0.06042(4) 1. 0 
Na5 Na1+ 8 f 0.10437(7) 0.7773(2) 0.12776(4) 1. 0 
Na6 Na1+ 8 f 0.23785(8) 0.3249(2) 0.10446(4) 1. 0 
Na7 Na1+ 8 f 0.49271(8) 0.6947(3) 0.14948(4) 1. 0 
Na8 Na1+ 8 f 0.30778(7) 0.7248(2) 0.18892(4) 1. 0 
Na9 Na1+ 8 f 0.12030(7) 0.7099(2) 0.23082(4) 1. 0 
V1 V5+ 8 f 0.05025(3) 0.29511(8) 0.05369(1) 1. 0 
V2 V5+ 8 f 0.32892(3) 0.77231(8) 0.07032(1) 1. 0 
V3 V5+ 8 f 0.19589(3) 0.24633(7) 0.19533(1) 1. 0 
V4 V5+ 8 f 0.40702(3) 0.20095(8) 0.17688(1) 1. 0 
O1 O2- 8 f 0.0940(1) 0.2091(4) 0.01055(6) 1. 0 
O2 O2- 8 f 0.0709(1) 0.5771(3) 0.06449(7) 1. 0 
O3 O2- 8 f 0.0918(1) 0.1310(4) 0.09309(6) 1. 0 
O4 O2- 8 f 0.4333(1) 0.7485(4) 0.04877(7) 1. 0 
O5 O2- 8 f 0.2656(1) 0.5807(4) 0.04285(7) 1. 0 
O6 O2- 8 f 0.2897(1) 0.0416(3) 0.06207(6) 1. 0 
O7 O2- 8 f 0.3358(2) 0.6928(4) 0.11981(6) 1. 0 
O8 O2- 8 f 0.1665(1) 0.4964(3) 0.17028(7) 1. 0 
O9 O2- 8 f 0.1155(1) 0.0468(3) 0.18989(6) 1. 0 
O10 O2- 8 f 0.2199(1) 0.3124(4) 0.24458(6) 1. 0 
O11 O2- 8 f 0.2900(1) 0.1390(3) 0.17005(6) 1. 0 
O12 O2- 8 f 0.4511(1) 0.2500(4) 0.13244(6) 1. 0 
O13 O2- 8 f 0.4547(1) -.0277(4) 0.20176(7) 1. 0 
O14 O2- 8 f 0.4198(1) 0.4351(3) 0.20780(6) 1. 0 

#End of data_35635-ICSD


