data_416198-ICSD
#?2014 by Fachinformationszentrum Karlsruhe, and the U.S. Secretary of 
#Commerce on behalf of the United States.  All rights reserved.
_database_code_ICSD                416198
_audit_creation_date               2007/08/01
_chemical_name_systematic
;
Dineodymium Lithium Osmium Hexaoxide
;
_chemical_formula_structural       'Nd2 Li Os O6'
_chemical_formula_sum              'Li1 Nd2 O6 Os1'
_chemical_name_mineral             'Perovskite, double'
_publ_section_title
;
Synthesis, structural characterization, and magnetic properties of 
the antiferromagnetic double perovskites Ln2 Li Os O6 (Ln = La, Pr, 
Nd, Sm)
;
loop_
_citation_id
_citation_journal_abbrev
_citation_year
_citation_journal_volume
_citation_journal_issue
_citation_page_first
_citation_page_last
_citation_journal_id_ASTM
primary 'Journal of Solid State Chemistry' 2006 179 6 1750 1756 JSSCBI
_publ_author_name
;
Gemmill, W.R.;Smith, M.D.;zur Loye, H.C.
;
_cell_length_a                     5.4351(2)
_cell_length_b                     5.7389(2)
_cell_length_c                     7.7201(2)
_cell_angle_alpha                  90.00
_cell_angle_beta                   90.4960(10)
_cell_angle_gamma                  90.00
_cell_volume                       240.79
_cell_formula_units_Z              2
_symmetry_space_group_name_H-M     'P 1 21/n 1'
_symmetry_Int_Tables_number        14
_refine_ls_R_factor_all            .0238
loop_
_symmetry_equiv_pos_site_id
_symmetry_equiv_pos_as_xyz
  1	'-x+.5, y+.5, -z+.5'
  2	'-x, -y, -z'
  3	'x+.5, -y+.5, z+.5'
  4	'x, y, z'
loop_
_atom_type_symbol
_atom_type_oxidation_number
Li1+	1
Nd3+	3
O2-	-2
Os5+	5
loop_
_atom_site_label
_atom_site_type_symbol
_atom_site_symmetry_multiplicity
_atom_site_Wyckoff_symbol
_atom_site_fract_x
_atom_site_fract_y
_atom_site_fract_z
_atom_site_occupancy
_atom_site_attached_hydrogens
_atom_site_U_iso_or_equiv
Nd1 Nd3+ 4 e 0.48534(5) 0.06574(5) 0.25106(3) 1 0 0.00485(9) 
Li1 Li1+ 2 a 0.0000 0.0000 0.0000 1 0 0.010(3) 
Os1 Os5+ 2 b 0.5000 0.5000 0.0000 1 0 0.00294(9) 
O1 O2- 4 e 0.2050(6) 0.3149(6) 0.0463(4) 1 0 0.0055(6) 
O2 O2- 4 e 0.5947(7) 0.4701(7) 0.2441(5) 1 0 0.0064(6) 
O3 O2- 4 e 0.3189(7) 0.7873(7) 0.0516(5) 1 0 0.0071(6) 

loop_
_atom_site_aniso_label
_atom_site_aniso_type_symbol
_atom_site_aniso_U_11
_atom_site_aniso_U_22
_atom_site_aniso_U_33
_atom_site_aniso_U_12
_atom_site_aniso_U_13
_atom_site_aniso_U_23
Nd1 Nd3+ 0.00628(13) 0.00360(14) 0.00468(12) -0.00057(8) 0.00119(8) 
0.00045(7)
Os1 Os5+ 0.00374(12) 0.00220(13) 0.00289(12) -0.00012(7) 0.00133(7) 
0.00011(6)
O1 O2- 0.0067(14) 0.0028(14) 0.0072(13) -0.0025(11) 0.0027(11) -0.0002(11)
O2 O2- 0.0062(15) 0.0073(15) 0.0056(13) -0.0009(12) 0.0011(11) 0.0001(11)
O3 O2- 0.0103(15) 0.0040(14) 0.0070(13) 0.0020(12) 0.0007(11) -0.0023(11)
#End of data_416198-ICSD


