data_93876-ICSD
#?2014 by Fachinformationszentrum Karlsruhe, and the U.S. Secretary of 
#Commerce on behalf of the United States.  All rights reserved.
_database_code_ICSD                93876
_audit_creation_date               2003/04/01
_audit_update_record               2006/04/01
_chemical_name_systematic
;
Tripotassium Catena-dodecathiodichromo(III)triphosphate(V)
;
_chemical_formula_structural       'K3 (Cr2 P3 S12)'
_chemical_formula_sum              'Cr2 K3 P3 S12'
_publ_section_title
;
Na3 Cr2 P3 S12 and KK3 Cr2 P3 S12 : two new one-dimensional 
thiophosphate compounds with a novel structure
;
loop_
_citation_id
_citation_journal_abbrev
_citation_year
_citation_journal_volume
_citation_page_first
_citation_page_last
_citation_journal_id_ASTM
primary 'Journal of Solid State Chemistry' 2001 162 195 203 JSSCBI
_publ_author_name
;
Coste, S.;Kopnin, E.;Evain, M.;Jobic, S.;Payen, C.;Brec, R.
;
_cell_length_a                     17.9690(14)
_cell_length_b                     12.0607(5)
_cell_length_c                     19.3109(16)
_cell_angle_alpha                  90
_cell_angle_beta                   150.008(3)
_cell_angle_gamma                  90
_cell_volume                       2092.01
_cell_formula_units_Z              4
_symmetry_space_group_name_H-M     'P 1 21/c 1'
_symmetry_Int_Tables_number        14
_refine_ls_R_factor_all            .018
loop_
_symmetry_equiv_pos_site_id
_symmetry_equiv_pos_as_xyz
  1	'x, -y+.5, z+.5'
  2	'-x, -y, -z'
  3	'-x, y+.5, -z+.5'
  4	'x, y, z'
loop_
_atom_type_symbol
_atom_type_oxidation_number
Cr3+	3
K1+	1
P5+	5
S2-	-2
loop_
_atom_site_label
_atom_site_type_symbol
_atom_site_symmetry_multiplicity
_atom_site_Wyckoff_symbol
_atom_site_fract_x
_atom_site_fract_y
_atom_site_fract_z
_atom_site_occupancy
_atom_site_attached_hydrogens
_atom_site_U_iso_or_equiv
K1 K1+ 4 e 0.800(2) 0.8716(9) 0.003(2) 1. 0 0.060(5) 
K2 K1+ 4 e 0.721(2) 0.9159(16) 0.272(2) 1. 0 0.060(5) 
K3 K1+ 4 e 0.710(2) 0.6001(18) 0.096(2) 1. 0 0.060(5) 
Cr1 Cr3+ 4 e 0.2227(18) 0.7207(14) 0.6181(18) 1. 0 0.057(4) 
Cr2 Cr3+ 4 e 0.218(2) 0.7272(16) 0.437(2) 1. 0 0.057(4) 
P1 P5+ 4 e 0.244(2) 0.7408(19) 0.782(3) 1. 0 0.010(5) 
P2 P5+ 4 e -0.027(2) 0.8382(16) 0.327(2) 1. 0 0.010(5) 
P3 P5+ 4 e 0.487(2) 0.6349(18) 0.741(2) 1. 0 0.010(5) 
S1 S2- 4 e 0.064(2) 0.6675(19) 0.399(2) 1. 0 0.032(2) 
S2 S2- 4 e 0.395(3) 0.797(2) 0.662(2) 1. 0 0.032(2) 
S3 S2- 4 e 0.091(3) 0.893(2) 0.338(3) 1. 0 0.032(2) 
S4 S2- 4 e 0.411(2) 0.582(2) 0.579(2) 1. 0 0.032(2) 
S5 S2- 4 e 0.071(2) 0.872(2) 0.504(2) 1. 0 0.032(2) 
S6 S2- 4 e 0.381(3) 0.560(2) 0.741(2) 1. 0 0.032(2) 
S7 S2- 4 e 0.383(2) 0.821(2) 0.821(2) 1. 0 0.032(2) 
S8 S2- 4 e 0.103(3) 0.832(2) 0.727(2) 1. 0 0.032(2) 
S9 S2- 4 e 0.358(2) 0.684(2) 0.959(2) 1. 0 0.032(2) 
S10 S2- 4 e 0.753(2) 0.8297(17) 0.140(2) 1. 0 0.032(2) 
S11 S2- 4 e 0.115(2) 0.609(2) 0.641(2) 1. 0 0.032(2) 
S12 S2- 4 e 0.714(2) 0.623(2) 0.936(2) 1. 0 0.032(2) 

#End of data_93876-ICSD


