data_21017-ICSD
#?2014 by Fachinformationszentrum Karlsruhe, and the U.S. Secretary of 
#Commerce on behalf of the United States.  All rights reserved.
_database_code_ICSD                21017
_audit_creation_date               1986/08/08
_audit_update_record               1999/01/19
_chemical_name_systematic
;
Trimagnesium Bis(phyllo-disilicate) Dihydroxide
;
_chemical_formula_structural       'Mg3 (Si2 O5)2 (O H)2'
_chemical_formula_sum              'H2 Mg3 O12 Si4'
_chemical_name_mineral             'Talc 1A'
_publ_section_title                'The crystal structure of talc.'
loop_
_citation_id
_citation_journal_abbrev
_citation_year
_citation_journal_volume
_citation_page_first
_citation_page_last
_citation_journal_id_ASTM
primary 'Clays and Clay Minerals (-28,1980)' 1973 21 103 114 CCMPA7
_publ_author_name                  'Rayner, J.H.;Brown, G.'
_cell_length_a                     5.293(2)
_cell_length_b                     9.179(3)
_cell_length_c                     9.469(3)
_cell_angle_alpha                  90.57(3)
_cell_angle_beta                   98.91(3)
_cell_angle_gamma                  90.03(3)
_cell_volume                       454.47
_cell_formula_units_Z              2
_symmetry_space_group_name_H-M     'C -1'
_symmetry_Int_Tables_number        2
_refine_ls_R_factor_all            .135
loop_
_symmetry_equiv_pos_site_id
_symmetry_equiv_pos_as_xyz
  1	'-x, -y, -z'
  2	'x, y, z'
  3	'-x+.5, -y+.5, -z'
  4	'x+.5, y+.5, z'
loop_
_atom_type_symbol
_atom_type_oxidation_number
H1+	1
Mg2+	2
O2-	-2
Si4+	4
loop_
_atom_site_label
_atom_site_type_symbol
_atom_site_symmetry_multiplicity
_atom_site_Wyckoff_symbol
_atom_site_fract_x
_atom_site_fract_y
_atom_site_fract_z
_atom_site_occupancy
_atom_site_attached_hydrogens
_atom_site_B_iso_or_equiv
Si1 Si4+ 4 i 0.7472(6) 0.0027(4) 0.2910(3) 1. 0 1.43(5) 
Si2 Si4+ 4 i 0.7482(6) 0.3366(4) 0.2920(3) 1. 0 1.46(5) 
Mg1 Mg2+ 2 a 0 0 0 1. 0 1.33(8) 
Mg2 Mg2+ 4 i 0.0001(7) 0.3330(4) 0.0001(4) 1. 0 1.38(7) 
O1 O2- 4 i 0.7022(15) 0.0015(9) 0.1183(8) 1. 0 1.50(12) 
O2 O2- 4 i 0.7030(16) 0.3363(10) 0.1204(9) 1. 0 1.80(12) 
O3 O2- 4 i 0.7439(16) 0.1693(10) 0.3472(9) 1. 0 2.07(12) 
O4 O2- 4 i 0.5216(16) 0.4283(10) 0.3475(9) 1. 0 2.13(14) 
O5 O2- 4 i 0.0202(16) 0.4122(10) 0.3487(9) 1. 0 2.01(14) 
O6 O2- 4 i 0.1980(17) 0.1677(10) 0.1132(9) 1. 0 1.50(15) 
H1 H1+ 4 i 0.23(4) 0.20(2) 0.24(2) 1. 0 3.(15) 

#End of data_21017-ICSD


