data_90414-ICSD
#?2014 by Fachinformationszentrum Karlsruhe, and the U.S. Secretary of 
#Commerce on behalf of the United States.  All rights reserved.
_database_code_ICSD                90414
_audit_creation_date               2002/04/01
_chemical_name_systematic          'Silver Iron(III) Bis(selenate(IV))'
_chemical_formula_structural       'Ag Fe (Se O3)2'
_chemical_formula_sum              'Ag1 Fe1 O6 Se2'
_publ_section_title
;
Syntheses and crystal structures of the new compounds Ba Fe2 (Se 
O3)4, Ag Fe (Se O3)2 and Rb Fe (Se O4) (Se O3)
;
loop_
_citation_id
_citation_journal_abbrev
_citation_year
_citation_journal_volume
_citation_page_first
_citation_page_last
_citation_journal_id_ASTM
primary 'Journal of Alloys and Compounds' 2000 308 71 76 JALCEU
_publ_author_name                  'Giester, G.'
_cell_length_a                     13.975(3)
_cell_length_b                     5.249(1)
_cell_length_c                     7.609(2)
_cell_angle_alpha                  90.
_cell_angle_beta                   90.
_cell_angle_gamma                  90.
_cell_volume                       558.16
_cell_formula_units_Z              4
_symmetry_space_group_name_H-M     'P n a 21'
_symmetry_Int_Tables_number        33
_refine_ls_R_factor_all            .02
loop_
_symmetry_equiv_pos_site_id
_symmetry_equiv_pos_as_xyz
  1	'x+.5, -y+.5, z'
  2	'-x+.5, y+.5, z+.5'
  3	'-x, -y, z+.5'
  4	'x, y, z'
loop_
_atom_type_symbol
_atom_type_oxidation_number
Ag1+	1
Fe3+	3
O2-	-2
Se4+	4
loop_
_atom_site_label
_atom_site_type_symbol
_atom_site_symmetry_multiplicity
_atom_site_Wyckoff_symbol
_atom_site_fract_x
_atom_site_fract_y
_atom_site_fract_z
_atom_site_occupancy
_atom_site_attached_hydrogens
Ag1 Ag1+ 4 a 0.37890(3) 0.13675(8) 0.68389(8) 1. 0 
Fe1 Fe3+ 4 a 0.12599(5) 0.29117(11) 0.69510(13) 1. 0 
Se1 Se4+ 4 a 0.47319(3) 0.30206(8) 0.01300(6) 1. 0 
Se2 Se4+ 4 a 0.27694(3) 0.27260(7) 0.37401(6) 1. 0 
O1 O2- 4 a 0.5876(3) 0.2431(7) -.0499(5) 1. 0 
O2 O2- 4 a 0.4879(2) 0.5767(6) 0.1279(5) 1. 0 
O3 O2- 4 a 0.4627(2) 0.0891(6) 0.1799(6) 1. 0 
O4 O2- 4 a 0.2616(2) -.0022(5) 0.2625(5) 1. 0 
O5 O2- 4 a 0.2865(2) 0.4870(6) 0.2053(5) 1. 0 
O6 O2- 4 a 0.1630(3) 0.3314(7) 0.4387(5) 1. 0 

loop_
_atom_site_aniso_label
_atom_site_aniso_type_symbol
_atom_site_aniso_U_11
_atom_site_aniso_U_22
_atom_site_aniso_U_33
_atom_site_aniso_U_12
_atom_site_aniso_U_13
_atom_site_aniso_U_23
Ag1 Ag1+ 0.01268(16) 0.0351(2) 0.0255(2) -.00419(16) -.00149(16) 0.0061(2)
Fe1 Fe3+ 0.0107(3) 0.0111(3) 0.0133(3) -.0001(2) 0.0002(2) 0.0004(3)
Se1 Se4+ 0.0109(2) 0.01104(17) 0.0112(2) -.00053(15) 0.0003(2) -.00067(17)
Se2 Se4+ 0.0103(2) 0.01133(18) 0.0110(2) 0.00097(14) -.00026(19) 
0.00034(18)
O1 O2- 0.0115(16) 0.0215(17) 0.0140(19) 0.0040(12) -.0001(14) 0.0000(12)
O2 O2- 0.0125(15) 0.0137(16) 0.022(2) 0.0009(12) 0.0011(13) -.0041(14)
O3 O2- 0.0153(14) 0.0130(14) 0.0174(16) -.0026(11) 0.0007(16) 0.0019(15)
O4 O2- 0.0137(16) 0.0077(14) 0.022(2) 0.0004(11) 0.0009(13) -.0022(13)
O5 O2- 0.0169(14) 0.0114(14) 0.0143(18) -.0014(11) 0.0006(14) 0.0035(12)
O6 O2- 0.0151(17) 0.0213(17) 0.0118(17) 0.0039(13) 0.0033(14) 0.0004(13)
#End of data_90414-ICSD


