data_409921-ICSD
#?2014 by Fachinformationszentrum Karlsruhe, and the U.S. Secretary of 
#Commerce on behalf of the United States.  All rights reserved.
_database_code_ICSD                409921
_audit_creation_date               2008/08/01
_chemical_name_systematic
;
Barium Tetracalcium Bis(dinitridocobaltate(I))
;
_chemical_formula_structural       'Ba Ca4 (Co N2)2'
_chemical_formula_sum              'Ba1 Ca4 Co2 N4'
_publ_section_title
;
Crystal structure of barium tetracalcium bis(dinitridocobaltate(I)), 
Ba Ca4 [Co N2]2
;
loop_
_citation_id
_citation_journal_abbrev
_citation_year
_citation_journal_volume
_citation_journal_issue
_citation_page_first
_citation_page_last
_citation_journal_id_ASTM
primary 'Zeitschrift fuer Kristallographie - New Crystal Structures'
 2007 222 3 167 168 ZKNSFT
_publ_author_name
;
Bendyna, J.K.;Hoehn, P.;Prots', Yu.;Kniep, R.
;
_cell_length_a                     8.3422(3)
_cell_length_b                     8.3422(3)
_cell_length_c                     12.2201(8)
_cell_angle_alpha                  90.
_cell_angle_beta                   90.
_cell_angle_gamma                  90.
_cell_volume                       850.42
_cell_formula_units_Z              4
_symmetry_space_group_name_H-M     'P 4/n c c Z'
_symmetry_Int_Tables_number        130
_refine_ls_R_factor_all            .0257
loop_
_symmetry_equiv_pos_site_id
_symmetry_equiv_pos_as_xyz
  1	'y+.5, x+.5, -z+.5'
  2	'-y, x+.5, -z'
  3	'y+.5, -x, -z'
  4	'-y, -x, -z+.5'
  5	'x+.5, y+.5, -z'
  6	'-x, y+.5, -z+.5'
  7	'x+.5, -y, -z+.5'
  8	'-x, -y, -z'
  9	'-y+.5, -x+.5, z+.5'
 10	'y, -x+.5, z'
 11	'-y+.5, x, z'
 12	'y, x, z+.5'
 13	'-x+.5, -y+.5, z'
 14	'x, -y+.5, z+.5'
 15	'-x+.5, y, z+.5'
 16	'x, y, z'
loop_
_atom_type_symbol
_atom_type_oxidation_number
Ba2+	2
Ca2+	2
Co1+	1
N3-	-3
loop_
_atom_site_label
_atom_site_type_symbol
_atom_site_symmetry_multiplicity
_atom_site_Wyckoff_symbol
_atom_site_fract_x
_atom_site_fract_y
_atom_site_fract_z
_atom_site_occupancy
_atom_site_attached_hydrogens
_atom_site_U_iso_or_equiv
Ba1 Ba2+ 4 c 0.2500 0.2500 0.15616(3) 1 0 0.01351(11) 
Ca1 Ca2+ 16 g 0.08359(7) 0.63022(7) 0.09398(5) 1 0 0.00900(12) 
Co1 Co1+ 8 f 0.40662(5) 0.59338(5) 0.2500 1 0 0.00888(13) 
N1 N3- 16 g 0.5677(3) 0.1270(3) 0.1052(2) 1 0 0.0118(5) 

loop_
_atom_site_aniso_label
_atom_site_aniso_type_symbol
_atom_site_aniso_U_11
_atom_site_aniso_U_22
_atom_site_aniso_U_33
_atom_site_aniso_U_12
_atom_site_aniso_U_13
_atom_site_aniso_U_23
Ba1 Ba2+ 0.01085(12) 0.01085(12) 0.01883(19) 0.000 0.000 0.000
Ca1 Ca2+ 0.0103(2) 0.0097(2) 0.0070(2) -0.00107(19) 0.00006(19) 0.00069(18)
Co1 Co1+ 0.01053(16) 0.01053(16) 0.0056(2) 0.00074(18) -0.00071(14) 
-0.00071(14)
N1 N3- 0.0153(11) 0.0120(11) 0.0081(10) -0.0046(9) -0.0016(9) 0.0003(9)
#End of data_409921-ICSD


