data_94080-ICSD
#?2014 by Fachinformationszentrum Karlsruhe, and the U.S. Secretary of 
#Commerce on behalf of the United States.  All rights reserved.
_database_code_ICSD                94080
_audit_creation_date               2003/04/01
_chemical_name_systematic
;
Magnesium Diiron(III) Oxide - Hp, (ca Mn2 O4) - Type
;
_chemical_formula_structural       'Mg Fe2 O4'
_chemical_formula_sum              'Fe2 Mg1 O4'
_chemical_name_mineral             Magnesioferrite
_publ_section_title
;
High-pressure phase transformations in the Mg Fe2 O4 and (Fe2 O3) -
(Mg Si O3) systems
;
loop_
_citation_id
_citation_journal_abbrev
_citation_year
_citation_journal_volume
_citation_page_first
_citation_page_last
_citation_journal_id_ASTM
primary 'Physics and Chemistry of Minerals' 2001 28 211 217 PCMIDU
_publ_author_name                  'Andrault, D.;Bolfan Casanova, N.'
_cell_length_a                     2.7392(5)
_cell_length_b                     9.200(2)
_cell_length_c                     9.285(2)
_cell_angle_alpha                  90
_cell_angle_beta                   90
_cell_angle_gamma                  90
_cell_volume                       233.99
_cell_formula_units_Z              4
_symmetry_space_group_name_H-M     'P b c m'
_symmetry_Int_Tables_number        57
loop_
_symmetry_equiv_pos_site_id
_symmetry_equiv_pos_as_xyz
  1	'x, -y+.5, z+.5'
  2	'-x, y+.5, z'
  3	'x, y, -z+.5'
  4	'-x, -y, -z'
  5	'-x, y+.5, -z+.5'
  6	'x, -y+.5, -z'
  7	'-x, -y, z+.5'
  8	'x, y, z'
loop_
_atom_type_symbol
_atom_type_oxidation_number
Fe3+	3
Mg2+	2
O2-	-2
loop_
_atom_site_label
_atom_site_type_symbol
_atom_site_symmetry_multiplicity
_atom_site_Wyckoff_symbol
_atom_site_fract_x
_atom_site_fract_y
_atom_site_fract_z
_atom_site_occupancy
_atom_site_attached_hydrogens
Mg1 Mg2+ 4 d 0.731(11) 0.367(23) 0.250 1. 0 
Fe1 Fe3+ 8 e 0.291(3) 0.116(9) 0.084(7) 1. 0 
O1 O2- 4 c 0.732(20) 0.250 0 1. 0 
O2 O2- 4 d 0.235(28) 0.256(4) 0.250 1. 0 
O3 O2- 8 e 0.000(5) 0.455(18) 0.117(1) 1. 0 

#End of data_94080-ICSD


