data_69150-ICSD
#?2014 by Fachinformationszentrum Karlsruhe, and the U.S. Secretary of 
#Commerce on behalf of the United States.  All rights reserved.
_database_code_ICSD                69150
_audit_creation_date               1992/01/20
_audit_update_record               2008/02/01
_chemical_name_systematic
;
Dipotassium Tetrathiocyanatoplatinate(II)
;
_chemical_formula_structural       'K2 (Pt (S C N)4)'
_chemical_formula_sum              'C4 K2 N4 Pt1 S4'
_publ_section_title
;
Crystal structure and thermal stability of potassium 
tetrathiocyanatoplatinate(II), K2 Pt (S C N)4
;
loop_
_citation_id
_citation_journal_abbrev
_citation_year
_citation_journal_volume
_citation_page_first
_citation_page_last
_citation_journal_id_ASTM
primary 'Inorganica Chimica Acta' 1990 178 243 248 ICHAA3
_publ_author_name                  'Hiltunen, L.;Holsa, J.;Strek, W.'
_cell_length_a                     4.294(4)
_cell_length_b                     12.869(8)
_cell_length_c                     11.055(8)
_cell_angle_alpha                  90.
_cell_angle_beta                   98.00(6)
_cell_angle_gamma                  90.
_cell_volume                       604.95
_cell_formula_units_Z              2
_symmetry_space_group_name_H-M     'P 1 21/c 1'
_symmetry_Int_Tables_number        14
_refine_ls_R_factor_all            .05
loop_
_symmetry_equiv_pos_site_id
_symmetry_equiv_pos_as_xyz
  1	'x, -y+.5, z+.5'
  2	'-x, -y, -z'
  3	'-x, y+.5, -z+.5'
  4	'x, y, z'
loop_
_atom_type_symbol
_atom_type_oxidation_number
C4+	4
K1+	1
N3-	-3
Pt2+	2
S2-	-2
loop_
_atom_site_label
_atom_site_type_symbol
_atom_site_symmetry_multiplicity
_atom_site_Wyckoff_symbol
_atom_site_fract_x
_atom_site_fract_y
_atom_site_fract_z
_atom_site_occupancy
_atom_site_attached_hydrogens
_atom_site_U_iso_or_equiv
Pt1 Pt2+ 2 a 0 0 0 1. 0 0.01618 
S1 S2- 4 e 0.7868(5) 0.4075(2) 0.1503(2) 1. 0 0.02557 
C1 C4+ 4 e 0.9566(19) 0.9242(6) 0.2238(7) 1. 0 0.02914 
N1 N3- 4 e 0.7990(19) 0.9355(7) 0.1290(7) 1. 0 0.04491 
S2 S2- 4 e 0.8573(5) 0.6623(2) 0.0628(2) 1. 0 0.03102 
C2 C4+ 4 e 0.7624(19) 0.6540(7) 0.2054(8) 1. 0 0.02923 
N2 N3- 4 e 0.2976(19) 0.1529(7) 0.1974(7) 1. 0 0.03137 
K1 K1+ 4 e 0.7199(4) 0.1467(2) 0.0301(2) 1. 0 0.05242 

#End of data_69150-ICSD


