data_422264-ICSD
#?2014 by Fachinformationszentrum Karlsruhe, and the U.S. Secretary of 
#Commerce on behalf of the United States.  All rights reserved.
_database_code_ICSD                422264
_audit_creation_date               2011/08/01
_chemical_name_systematic          'Sodium Thiogallate Hydrate *'
_chemical_formula_structural       'Na5 (Ga4 S) (Ga S4)3 (H2 O)6'
_chemical_formula_sum              'H12 Ga7 Na5 O6 S13'
_publ_section_title
;
Na5 (Ga4 S) (Ga S4)3 ¨² 6 H2 O: A three-dimensional thiogallate 
containing a novel octahedral building block
;
loop_
_citation_id
_citation_journal_abbrev
_citation_year
_citation_journal_volume
_citation_journal_issue
_citation_page_first
_citation_page_last
_citation_journal_id_ASTM
primary 'Solid State Sciences' 2011 13 5 1137 1142 SSSCFJ
_publ_author_name                  'Rumble, J.;Vaqueiro, P.'
_cell_length_a                     17.577(4)
_cell_length_b                     17.577(4)
_cell_length_c                     17.577(4)
_cell_angle_alpha                  90
_cell_angle_beta                   90
_cell_angle_gamma                  90
_cell_volume                       5430.43
_cell_formula_units_Z              8
_symmetry_space_group_name_H-M     'F -4 3 c'
_symmetry_Int_Tables_number        219
_refine_ls_R_factor_all            .0319
loop_
_symmetry_equiv_pos_site_id
_symmetry_equiv_pos_as_xyz
  1	'-z, y, -x+.5'
  2	'-y, x, -z+.5'
  3	'-x, z, -y+.5'
  4	'z, -y, -x+.5'
  5	'y, -x, -z+.5'
  6	'x, -z, -y+.5'
  7	'-z, -y, x+.5'
  8	'-y, -x, z+.5'
  9	'-x, -z, y+.5'
 10	'z, y, x+.5'
 11	'y, x, z+.5'
 12	'x, z, y+.5'
 13	'-z, -x, y'
 14	'-y, -z, x'
 15	'-x, -y, z'
 16	'z, -x, -y'
 17	'y, -z, -x'
 18	'x, -y, -z'
 19	'-z, x, -y'
 20	'-y, z, -x'
 21	'-x, y, -z'
 22	'z, x, y'
 23	'y, z, x'
 24	'x, y, z'
 25	'-z, y+.5, -x'
 26	'-z+.5, y, -x'
 27	'-z+.5, y+.5, -x+.5'
 28	'-y, x+.5, -z'
 29	'-y+.5, x, -z'
 30	'-y+.5, x+.5, -z+.5'
 31	'-x, z+.5, -y'
 32	'-x+.5, z, -y'
 33	'-x+.5, z+.5, -y+.5'
 34	'z, -y+.5, -x'
 35	'z+.5, -y, -x'
 36	'z+.5, -y+.5, -x+.5'
 37	'y, -x+.5, -z'
 38	'y+.5, -x, -z'
 39	'y+.5, -x+.5, -z+.5'
 40	'x, -z+.5, -y'
 41	'x+.5, -z, -y'
 42	'x+.5, -z+.5, -y+.5'
 43	'-z, -y+.5, x'
 44	'-z+.5, -y, x'
 45	'-z+.5, -y+.5, x+.5'
 46	'-y, -x+.5, z'
 47	'-y+.5, -x, z'
 48	'-y+.5, -x+.5, z+.5'
 49	'-x, -z+.5, y'
 50	'-x+.5, -z, y'
 51	'-x+.5, -z+.5, y+.5'
 52	'z, y+.5, x'
 53	'z+.5, y, x'
 54	'z+.5, y+.5, x+.5'
 55	'y, x+.5, z'
 56	'y+.5, x, z'
 57	'y+.5, x+.5, z+.5'
 58	'x, z+.5, y'
 59	'x+.5, z, y'
 60	'x+.5, z+.5, y+.5'
 61	'-z, -x+.5, y+.5'
 62	'-z+.5, -x, y+.5'
 63	'-z+.5, -x+.5, y'
 64	'-y, -z+.5, x+.5'
 65	'-y+.5, -z, x+.5'
 66	'-y+.5, -z+.5, x'
 67	'-x, -y+.5, z+.5'
 68	'-x+.5, -y, z+.5'
 69	'-x+.5, -y+.5, z'
 70	'z, -x+.5, -y+.5'
 71	'z+.5, -x, -y+.5'
 72	'z+.5, -x+.5, -y'
 73	'y, -z+.5, -x+.5'
 74	'y+.5, -z, -x+.5'
 75	'y+.5, -z+.5, -x'
 76	'x, -y+.5, -z+.5'
 77	'x+.5, -y, -z+.5'
 78	'x+.5, -y+.5, -z'
 79	'-z, x+.5, -y+.5'
 80	'-z+.5, x, -y+.5'
 81	'-z+.5, x+.5, -y'
 82	'-y, z+.5, -x+.5'
 83	'-y+.5, z, -x+.5'
 84	'-y+.5, z+.5, -x'
 85	'-x, y+.5, -z+.5'
 86	'-x+.5, y, -z+.5'
 87	'-x+.5, y+.5, -z'
 88	'z, x+.5, y+.5'
 89	'z+.5, x, y+.5'
 90	'z+.5, x+.5, y'
 91	'y, z+.5, x+.5'
 92	'y+.5, z, x+.5'
 93	'y+.5, z+.5, x'
 94	'x, y+.5, z+.5'
 95	'x+.5, y, z+.5'
 96	'x+.5, y+.5, z'
loop_
_atom_type_symbol
_atom_type_oxidation_number
Ga3+	3
H1+	1
Na1+	1
O2-	-2
S2-	-2
loop_
_atom_site_label
_atom_site_type_symbol
_atom_site_symmetry_multiplicity
_atom_site_Wyckoff_symbol
_atom_site_fract_x
_atom_site_fract_y
_atom_site_fract_z
_atom_site_occupancy
_atom_site_attached_hydrogens
_atom_site_U_iso_or_equiv
Ga1 Ga3+ 24 c 0.0000 0.2500 0.2500 1.0000 0 0.0145 
Ga2 Ga3+ 32 e 0.17157(6) 0.17157(6) 0.32843(6) 1.0000 0 0.0136 
S1 S2- 96 h 0.06842(15) 0.14021(14) 0.25982(15) 1.0000 0 0.0162 
S2 S2- 8 b 0.2500 0.2500 0.2500 1.0000 0 0.0148 
Na1 Na1+ 32 e 0.1057(2) 0.1057(2) 0.1057(2) 1.0000 0 0.0390 
Na2 Na1+ 8 a 0.0000 0.0000 0.0000 1.0000 0 0.0234 
O1 O2- 48 f 0.0000 0.0000 0.1326(6) 1.0000 0 0.0333 
H1 H1+ 96 h -0.0158 0.0410 0.1579 1.0000 0 0.0500 

loop_
_atom_site_aniso_label
_atom_site_aniso_type_symbol
_atom_site_aniso_U_11
_atom_site_aniso_U_22
_atom_site_aniso_U_33
_atom_site_aniso_U_12
_atom_site_aniso_U_13
_atom_site_aniso_U_23
Ga1 Ga3+ 0.0115(10) 0.0160(6) 0.0160(6) 0.0000 0.0000 0.0000
Ga2 Ga3+ 0.0136(4) 0.0136(4) 0.0136(4) 0.0001(5) -0.0001(5) -0.0001(5)
S1 S2- 0.0122(13) 0.0138(13) 0.0227(16) 0.0014(9) -0.0035(13) -0.0017(11)
S2 S2- 0.0148(15) 0.0148(15) 0.0148(15) 0.0000 0.0000 0.0000
Na1 Na1+ 0.039(2) 0.039(2) 0.039(2) -0.007(2) -0.007(2) -0.007(2)
Na2 Na1+ 0.023(3) 0.023(3) 0.023(3) 0.0000 0.0000 0.0000
O1 O2- 0.068(15) 0.010(9) 0.022(6) 0.012(5) 0.0000 0.0000
#End of data_422264-ICSD


