data_413717-ICSD
#?2014 by Fachinformationszentrum Karlsruhe, and the U.S. Secretary of 
#Commerce on behalf of the United States.  All rights reserved.
_database_code_ICSD                413717
_audit_creation_date               2006/10/01
_audit_update_record               2007/08/01
_chemical_name_systematic
;
Tetrarubidium Lithium Trihydrogen Tetrakis(sulfate(VI))
;
_chemical_formula_structural       'Rb4 Li H3 (S O4)4'
_chemical_formula_sum              'H3 Li1 O16 Rb4 S4'
_publ_section_title
;
X-ray and neutron diffraction studies of Rb4 Li H3 (X O4)4 (X = S, 
Se) single crystals
;
loop_
_citation_id
_citation_journal_abbrev
_citation_year
_citation_journal_volume
_citation_page_first
_citation_page_last
_citation_journal_id_ASTM
primary Kristallografiya 2004 49 1066 1072 KRISAJ
2 'Crystallography Reports' 2004 49 969 974 CYSTE3
3 'Golden Book of Phase Transitions, Wroclaw' 2002 1 1 123 GBOPT5
_publ_author_name
;
Troyanov, S.I.;Snigireva, E.M.;Ling, C.-D.
;
_cell_length_a                     7.6320(10)
_cell_length_b                     7.6320(10)
_cell_length_c                     29.500(3)
_cell_angle_alpha                  90.00
_cell_angle_beta                   90.00
_cell_angle_gamma                  90.00
_cell_volume                       1718.3
_cell_formula_units_Z              4
_symmetry_space_group_name_H-M     'P 41'
_symmetry_Int_Tables_number        76
_refine_ls_R_factor_all            .0778
loop_
_symmetry_equiv_pos_site_id
_symmetry_equiv_pos_as_xyz
  1	'y, -x, z+.75'
  2	'-y, x, z+.25'
  3	'-x, -y, z+.5'
  4	'x, y, z'
loop_
_atom_type_symbol
_atom_type_oxidation_number
H1+	1
Li1+	1
O2-	-2
Rb1+	1
S6+	6
loop_
_atom_site_label
_atom_site_type_symbol
_atom_site_symmetry_multiplicity
_atom_site_Wyckoff_symbol
_atom_site_fract_x
_atom_site_fract_y
_atom_site_fract_z
_atom_site_occupancy
_atom_site_attached_hydrogens
_atom_site_U_iso_or_equiv
Rb1 Rb1+ 4 a 0.1349(3) 0.1159(3) 0.53894(9) 1 0 0.0321(6) 
Rb2 Rb1+ 4 a 0.4356(3) 0.6144(3) 0.55205(9) 1 0 0.0308(6) 
Rb3 Rb1+ 4 a 0.5254(3) 0.0296(3) 0.66729(9) 1 0 0.0319(6) 
Rb4 Rb1+ 4 a 0.0189(3) 0.7269(3) 0.65748(9) 1 0 0.0302(5) 
S1 S6+ 4 a 0.0376(5) 0.1981(5) 0.66727(19) 1 0 0.0200(11) 
S2 S6+ 4 a 0.5045(6) 0.5363(5) 0.67043(19) 1 0 0.0201(10) 
S3 S6+ 4 a 0.9100(5) 0.6222(5) 0.7901(2) 1 0 0.0219(11) 
S4 S6+ 4 a 1.3751(5) 0.9626(5) 0.7889(2) 1 0 0.0232(12) 
O1 O2- 4 a -0.1082(3) 0.0981(3) 0.68435(12) 1 0 0.0364(7) 
O2 O2- 4 a 0.1651(3) 0.0895(3) 0.64431(12) 1 0 0.0366(8) 
O3 O2- 4 a -0.0117(4) 0.3475(3) 0.63961(13) 1 0 0.0413(8) 
O4 O2- 4 a 0.1262(3) 0.2728(4) 0.71066(13) 1 0 0.0414(8) 
O5 O2- 4 a 0.3941(3) 0.6675(4) 0.64969(12) 1 0 0.0358(7) 
O6 O2- 4 a 0.5690(3) 0.4139(3) 0.63665(12) 1 0 0.0351(7) 
O7 O2- 4 a 0.4143(4) 0.4374(4) 0.70625(12) 1 0 0.0445(9) 
O8 O2- 4 a 0.6573(3) 0.6294(3) 0.69240(11) 1 0 0.0338(7) 
O9 O2- 4 a 1.0097(4) 0.4931(4) 0.81391(14) 1 0 0.0440(9) 
O10 O2- 4 a 0.8421(3) 0.7546(4) 0.82077(13) 1 0 0.0439(9) 
O11 O2- 4 a 0.7570(3) 0.5258(4) 0.76799(12) 1 0 0.0358(8) 
O12 O2- 4 a 1.0079(4) 0.7059(5) 0.75407(14) 1 0 0.0568(11) 
O13 O2- 4 a 1.5237(3) 1.0592(4) 0.77104(11) 1 0 0.0362(8) 
O14 O2- 4 a 1.2447(3) 1.0732(3) 0.80920(11) 1 0 0.0342(7) 
O15 O2- 4 a 1.4220(3) 0.8185(3) 0.81834(13) 1 0 0.0352(7) 
O16 O2- 4 a 1.2920(3) 0.8783(4) 0.74567(12) 1 0 0.0354(7) 
H1 H1+ 4 a 0.2369(5) 0.3423(6) 0.70391(19) 1 0 0.0396(11) 
H2 H1+ 4 a 0.7090(7) 0.5761(7) 0.7317(3) 1 0 0.0495(14) 
H3 H1+ 4 a 1.1834(6) 0.8107(6) 0.75261(19) 1 0 0.0390(11) 
Li1 Li1+ 4 a 0.7799(8) 0.3693(7) 0.6044(4) 1 0 0.0262(15) 

loop_
_atom_site_aniso_label
_atom_site_aniso_type_symbol
_atom_site_aniso_U_11
_atom_site_aniso_U_22
_atom_site_aniso_U_33
_atom_site_aniso_U_12
_atom_site_aniso_U_13
_atom_site_aniso_U_23
Rb1 Rb1+ 0.0362(9) 0.0266(8) 0.0334(18) 0.0028(7) 0.0025(9) 0.0051(8)
Rb2 Rb1+ 0.0312(8) 0.0382(10) 0.0231(18) 0.0035(7) -0.0021(8) -0.0032(9)
Rb3 Rb1+ 0.0274(9) 0.0363(9) 0.0319(19) -0.0033(7) -0.0025(8) 0.0008(9)
Rb4 Rb1+ 0.0353(10) 0.0306(9) 0.0247(17) -0.0035(7) 0.0050(9) -0.0020(8)
S1 S6+ 0.0179(16) 0.0232(17) 0.019(4) -0.0015(13) -0.0047(16) 0.0012(17)
S2 S6+ 0.0216(18) 0.0278(18) 0.011(3) -0.0040(14) -0.0016(16) 0.0029(18)
S3 S6+ 0.0199(17) 0.0263(18) 0.019(4) -0.0046(13) -0.0022(17) -0.0013(18)
S4 S6+ 0.0206(17) 0.0228(17) 0.026(4) -0.0025(13) -0.0049(18) 0.0014(19)
O1 O2- 0.0268(10) 0.0401(12) 0.042(2) -0.0114(9) 0.0037(12) -0.0001(12)
O2 O2- 0.0312(11) 0.0374(12) 0.041(3) 0.0073(9) 0.0057(11) -0.0064(13)
O3 O2- 0.0387(12) 0.0283(11) 0.057(3) -0.0003(9) -0.0187(14) 0.0120(12)
O4 O2- 0.0408(14) 0.0587(17) 0.025(2) -0.0214(12) -0.0014(12) -0.0042(13)
O5 O2- 0.0375(12) 0.0390(13) 0.031(2) 0.0118(10) -0.0088(12) -0.0067(12)
O6 O2- 0.0329(11) 0.0356(12) 0.037(2) 0.0052(9) 0.0054(12) -0.0032(12)
O7 O2- 0.0426(14) 0.0726(18) 0.018(2) -0.0330(13) -0.0030(13) 0.0082(14)
O8 O2- 0.0300(11) 0.0457(13) 0.026(2) -0.0178(9) -0.0091(10) 0.0087(12)
O9 O2- 0.0422(13) 0.0402(13) 0.050(3) 0.0118(10) -0.0195(15) -0.0048(13)
O10 O2- 0.0366(12) 0.0371(12) 0.058(3) 0.0002(10) 0.0151(14) -0.0137(14)
O11 O2- 0.0304(11) 0.0475(13) 0.030(2) -0.0175(10) -0.0078(11) 0.0122(13)
O12 O2- 0.0533(18) 0.098(2) 0.019(3) -0.0502(18) 0.0002(14) 0.0052(19)
O13 O2- 0.0269(10) 0.0433(13) 0.038(2) -0.0148(9) 0.0027(11) -0.0023(12)
O14 O2- 0.0319(11) 0.0365(11) 0.034(2) 0.0081(9) 0.0019(11) -0.0023(12)
O15 O2- 0.0377(12) 0.0263(10) 0.042(2) -0.0001(9) -0.0169(12) 0.0077(11)
O16 O2- 0.0350(13) 0.0520(16) 0.019(2) -0.0160(11) -0.0007(10) -0.0067(11)
H1 H1+ 0.042(2) 0.043(2) 0.033(4) -0.0056(17) -0.008(2) -0.0020(19)
H2 H1+ 0.0428(19) 0.051(2) 0.055(5) -0.0164(16) 0.008(2) -0.009(2)
H3 H1+ 0.041(2) 0.044(2) 0.032(4) -0.0057(17) -0.0059(19) -0.0005(19)
Li1 Li1+ 0.029(3) 0.017(3) 0.032(5) -0.001(3) -0.001(3) 0.002(3)
#End of data_413717-ICSD


