data_202056-ICSD
#?2014 by Fachinformationszentrum Karlsruhe, and the U.S. Secretary of 
#Commerce on behalf of the United States.  All rights reserved.
_database_code_ICSD                202056
_audit_creation_date               1988/12/19
_audit_update_record               1997/05/13
_chemical_name_systematic
;
Tricesium Zinc Tetraiodide Nitrate(V)
;
_chemical_formula_structural       'Cs3 Zn I4 (N O3)'
_chemical_formula_sum              'Cs3 I4 N1 O3 Zn1'
_publ_section_title
;
Syntheses et structures cristallines de Cs3 M I4 N O3 (M= Zn, Co, 
Cd): Un exemple de substitution selective
;
loop_
_citation_id
_citation_journal_abbrev
_citation_year
_citation_journal_volume
_citation_page_first
_citation_page_last
_citation_journal_id_ASTM
primary 'Journal of Solid State Chemistry' 1986 65 272 279 JSSCBI
_publ_author_name                  'Louer, M.;Louer, D.'
_cell_length_a                     10.114(4)
_cell_length_b                     11.601(5)
_cell_length_c                     14.290(9)
_cell_angle_alpha                  90.
_cell_angle_beta                   90.
_cell_angle_gamma                  90.
_cell_volume                       1676.68
_cell_formula_units_Z              4
_symmetry_space_group_name_H-M     'P n m a'
_symmetry_Int_Tables_number        62
_refine_ls_R_factor_all            .051
loop_
_symmetry_equiv_pos_site_id
_symmetry_equiv_pos_as_xyz
  1	'x+.5, y, -z+.5'
  2	'x, -y+.5, z'
  3	'-x+.5, y+.5, z+.5'
  4	'-x, -y, -z'
  5	'-x+.5, -y, z+.5'
  6	'-x, y+.5, -z'
  7	'x+.5, -y+.5, -z+.5'
  8	'x, y, z'
loop_
_atom_type_symbol
_atom_type_oxidation_number
Cs1+	1
I1-	-1
N5+	5
O2-	-2
Zn2+	2
loop_
_atom_site_label
_atom_site_type_symbol
_atom_site_symmetry_multiplicity
_atom_site_Wyckoff_symbol
_atom_site_fract_x
_atom_site_fract_y
_atom_site_fract_z
_atom_site_occupancy
_atom_site_attached_hydrogens
_atom_site_B_iso_or_equiv
Cs1 Cs1+ 4 c 0.5773(2) 0.25 0.9482(1) 1. 0 0 
Cs2 Cs1+ 8 d -.0983(1) -.0114(1) 0.18004(9) 1. 0 0 
Zn1 Zn2+ 4 c 0.1760(3) 0.25 0.0990(2) 1. 0 0 
I1 I1- 8 d 0.3016(1) 0.0613(1) 0.05665(9) 1. 0 0 
I2 I1- 4 c -.0427(2) 0.25 -.0018(1) 1. 0 0 
I3 I1- 4 c 0.1250(2) 0.25 0.2781(1) 1. 0 0 
O1 O2- 4 c 0.791(2) 0.75 0.253(2) 1. 0 0 
O2 O2- 8 d 0.622(1) 0.665(1) 0.214(1) 1. 0 0 
N1 N5+ 4 c 0.676(1) 0.75 0.2322(8) 1. 0 0.8(2) 

loop_
_atom_site_aniso_label
_atom_site_aniso_type_symbol
_atom_site_aniso_U_11
_atom_site_aniso_U_22
_atom_site_aniso_U_33
_atom_site_aniso_U_12
_atom_site_aniso_U_13
_atom_site_aniso_U_23
Cs1 Cs1+ 0.0354(8) 0.0322(8) 0.0404(8) 0 0.0000(8) 0
Cs2 Cs1+ 0.0543(7) 0.0376(6) 0.0428(6) -.0025(6) -.0023(7) 0.0018(6)
Zn1 Zn2+ 0.034(2) 0.027(1) 0.036(2) 0 0.000(1) 0
I1 I1- 0.0489(7) 0.0253(5) 0.0505(7) 0.0074(6) -.0028(7) -.0026(6)
I2 I1- 0.0324(8) 0.046(1) 0.050(1) 0 -.0076(9) 0
I3 I1- 0.056(1) 0.054(1) 0.0359(9) 0 0.008(1) 0
O1 O2- 0.07(1) 0.035(9) 0.06(1) 0 -.01(1) 0
O2 O2- 0.062(9) 0.09(1) 0.07(1) 0.033(9) 0.006(8) 0.035(9)
#End of data_202056-ICSD


