data_171932-ICSD
#?2014 by Fachinformationszentrum Karlsruhe, and the U.S. Secretary of 
#Commerce on behalf of the United States.  All rights reserved.
_database_code_ICSD                171932
_audit_creation_date               2007/04/01
_chemical_name_systematic
;
Trimanganese Zinc Calcium Catena-pentasiliacte
;
_chemical_formula_structural       'Mn3 Zn Ca Si5 O15'
_chemical_formula_sum              'Ca1 Mn3 O15 Si5 Zn1'
_chemical_name_mineral             Fowlerite
_publ_section_title
;
Crystal chemistry of Zn-rich rhodonite ("fowlerite")
;
loop_
_citation_id
_citation_journal_abbrev
_citation_year
_citation_journal_volume
_citation_page_first
_citation_page_last
_citation_journal_id_ASTM
primary 'American Mineralogist' 2005 90 969 983 AMMIAY
_publ_author_name                  'Nelson, W.R.;Griffen, D.T.'
_cell_length_a                     9.8337(3)
_cell_length_b                     10.4987(3)
_cell_length_c                     12.1966(5)
_cell_angle_alpha                  108.699(3)
_cell_angle_beta                   103.597(3)
_cell_angle_gamma                  82.221(2)
_cell_volume                       1156.83
_cell_formula_units_Z              4
_symmetry_space_group_name_H-M     'C -1'
_symmetry_Int_Tables_number        2
_refine_ls_R_factor_all            .047
loop_
_symmetry_equiv_pos_site_id
_symmetry_equiv_pos_as_xyz
  1	'-x, -y, -z'
  2	'x, y, z'
  3	'-x+.5, -y+.5, -z'
  4	'x+.5, y+.5, z'
loop_
_atom_type_symbol
_atom_type_oxidation_number
Ca2+	2
Mn2+	2
O2-	-2
Si4+	4
Zn2+	2
loop_
_atom_site_label
_atom_site_type_symbol
_atom_site_symmetry_multiplicity
_atom_site_Wyckoff_symbol
_atom_site_fract_x
_atom_site_fract_y
_atom_site_fract_z
_atom_site_occupancy
_atom_site_attached_hydrogens
_atom_site_U_iso_or_equiv
Mn1 Mn2+ 4 i -0.00129(4) 0.03089(3) 0.14665(3) 1. 0 0.0073(1) 
Mn2 Mn2+ 4 i 0.00065(4) 0.12699(3) 0.44432(3) 1. 0 0.0076(1) 
Mn3 Mn2+ 4 i 0.01646(4) 0.20326(3) 0.72930(3) 1. 0 0.0072(1) 
Zn1 Zn2+ 4 i 0.06612(4) 0.26335(3) 0.02203(3) 1. 0 0.0111(1) 
Ca1 Ca2+ 4 i 0.99333(5) 0.35410(5) 0.30248(4) 1. 0 0.0139(1) 
Si1 Si4+ 4 i 0.20482(6) 0.44858(6) 0.91140(5) 1. 0 0.0059(1) 
Si2 Si4+ 4 i 0.21307(6) 0.36507(6) 0.65394(5) 1. 0 0.0053(1) 
Si3 Si4+ 4 i 0.21659(6) 0.57849(6) 0.52910(5) 1. 0 0.0059(1) 
Si4 Si4+ 4 i 0.21250(6) 0.50579(6) 0.25977(5) 1. 0 0.0061(1) 
Si5 Si4+ 4 i 0.20261(6) 0.70071(6) 0.12396(5) 1. 0 0.0060(1) 
O1 O2- 4 i 0.1273(2) 0.0733(2) 0.0393(1) 1. 0 0.0083(3) 
O2 O2- 4 i 0.1185(2) 0.1585(2) 0.3216(1) 1. 0 0.0082(3) 
O3 O2- 4 i 0.1143(2) 0.9226(2) 0.4365(1) 1. 0 0.0084(3) 
O4 O2- 4 i 0.1206(2) 0.0134(2) 0.7329(2) 1. 0 0.0089(3) 
O5 O2- 4 i 0.1325(2) 0.7899(2) 0.8537(1) 1. 0 0.0083(3) 
O6 O2- 4 i 0.0959(2) 0.8322(2) 0.1281(2) 1. 0 0.0088(3) 
O7 O2- 4 i 0.1298(2) 0.3187(2) 0.9021(1) 1. 0 0.0098(3) 
O8 O2- 4 i 0.1255(2) 0.2343(2) 0.6110(1) 1. 0 0.0093(3) 
O9 O2- 4 i 0.1291(2) 0.7100(2) 0.5894(2) 1. 0 0.0148(3) 
O10 O2- 4 i 0.1238(2) 0.3796(2) 0.1810(2) 1. 0 0.0110(3) 
O11 O2- 4 i 0.1701(2) 0.4674(2) 0.7777(1) 1. 0 0.0085(3) 
O12 O2- 4 i 0.1602(2) 0.4562(2) 0.5626(2) 1. 0 0.0123(3) 
O13 O2- 4 i 0.1642(2) 0.5362(2) 0.3859(1) 1. 0 0.0105(3) 
O14 O2- 4 i 0.1562(2) 0.6427(2) 0.2205(1) 1. 0 0.0085(3) 
O15 O2- 4 i 0.1452(2) 0.5903(2) 0.9953(1) 1. 0 0.0092(3) 

loop_
_atom_site_aniso_label
_atom_site_aniso_type_symbol
_atom_site_aniso_U_11
_atom_site_aniso_U_22
_atom_site_aniso_U_33
_atom_site_aniso_U_12
_atom_site_aniso_U_13
_atom_site_aniso_U_23
Mn1 Mn2+ 0.0088 0.0075 0.0066 0.0022 0.0039 -0.0004
Mn2 Mn2+ 0.0094 0.0105 0.0064 0.0029 0.0034 -0.0006
Mn3 Mn2+ 0.0099 0.0092 0.0062 0.0019 0.0042 0.0002
Zn1 Zn2+ 0.0185 0.0079 0.0045 0.0018 0.0004 -0.0034
Ca1 Ca2+ 0.0115 0.0175 0.0192 0.0101 0.0076 -0.0007
Si1 Si4+ 0.0079 0.0079 0.0045 0.0007 0.0032 -0.0007
Si2 Si4+ 0.0084 0.0078 0.0049 0.0020 0.0035 0.0006
Si3 Si4+ 0.0088 0.0097 0.0049 0.0027 0.0027 0.0005
Si4 Si4+ 0.0080 0.0090 0.0053 0.0035 0.0028 0.0004
Si5 Si4+ 0.0101 0.0081 0.0059 0.0024 0.0042 0.0009
O1 O2- 0.0081 0.0127 0.0078 0.0019 0.0002 -0.0026
O2 O2- 0.0068 0.0129 0.0111 0.0037 0.0025 -0.0015
O3 O2- 0.0107 0.0116 0.0080 0.0026 0.0026 -0.0021
O4 O2- 0.0103 0.0120 0.0126 0.0074 0.0047 0.0032
O5 O2- 0.0117 0.0100 0.0100 0.0046 0.0064 0.0022
O6 O2- 0.0131 0.0102 0.0111 0.0048 0.0049 0.0012
O7 O2- 0.0136 0.0141 0.0094 0.0047 0.0027 -0.0007
O8 O2- 0.0123 0.0103 0.0095 0.0026 0.0024 -0.0042
O9 O2- 0.0121 0.0151 0.0125 -0.0017 0.0014 0.0041
O10 O2- 0.0119 0.0115 0.0120 0.0011 0.0040 -0.0014
O11 O2- 0.0136 0.0099 0.0062 0.0009 0.0053 -0.0005
O12 O2- 0.0131 0.0220 0.0136 0.0143 0.0031 -0.0007
O13 O2- 0.0119 0.0215 0.0035 0.0053 0.0034 0.0005
O14 O2- 0.0071 0.0124 0.0093 0.0082 0.0037 0.0013
O15 O2- 0.0072 0.0127 0.0044 -0.0020 0.0022 0.0002
#End of data_171932-ICSD


