data_40575-ICSD
#?2014 by Fachinformationszentrum Karlsruhe, and the U.S. Secretary of 
#Commerce on behalf of the United States.  All rights reserved.
_database_code_ICSD                40575
_audit_creation_date               1999/11/30
_audit_update_record               2010/08/01
_chemical_name_systematic          'Trisodium Iridium Hydride'
_chemical_formula_structural       'Na3 Ir H6'
_chemical_formula_sum              'H6 Ir1 Na3'
_publ_section_title
;
Na3 Rh H6, Na3 Ir H6 und Li3 Ir H6, neue komplexe Hydride mit 
isolierten (Rh H6)3- und (Ir H6)3- - Oktaedern
;
loop_
_citation_id
_citation_journal_abbrev
_citation_year
_citation_journal_volume
_citation_page_first
_citation_page_last
_citation_journal_id_ASTM
primary 'Journal of Alloys and Compounds' 1991 176 255 262 JALCEU
_publ_author_name
;
Bronger, W.;Gehlen, M.;Auffermann, G.
;
_cell_length_a                     9.377(1)
_cell_length_b                     5.288(1)
_cell_length_c                     9.599(2)
_cell_angle_alpha                  90.
_cell_angle_beta                   90.
_cell_angle_gamma                  90.
_cell_volume                       475.97
_cell_formula_units_Z              4
_symmetry_space_group_name_H-M     'P n m a'
_symmetry_Int_Tables_number        62
_refine_ls_R_factor_all            .068
loop_
_symmetry_equiv_pos_site_id
_symmetry_equiv_pos_as_xyz
  1	'x+.5, y, -z+.5'
  2	'x, -y+.5, z'
  3	'-x+.5, y+.5, z+.5'
  4	'-x, -y, -z'
  5	'-x+.5, -y, z+.5'
  6	'-x, y+.5, -z'
  7	'x+.5, -y+.5, -z+.5'
  8	'x, y, z'
loop_
_atom_type_symbol
_atom_type_oxidation_number
H1-	-1
Ir3+	3
Na1+	1
loop_
_atom_site_label
_atom_site_type_symbol
_atom_site_symmetry_multiplicity
_atom_site_Wyckoff_symbol
_atom_site_fract_x
_atom_site_fract_y
_atom_site_fract_z
_atom_site_occupancy
_atom_site_attached_hydrogens
_atom_site_B_iso_or_equiv
Ir1 Ir3+ 4 c 0.2238(4) 0.25 0.9053 1. 0 5.9(9) 
Na1 Na1+ 4 c 0.051(3) 0.25 0.626(3) 1. 0 5.9(9) 
Na2 Na1+ 4 c 0.389(3) 0.25 0.538(3) 1. 0 5.9(9) 
Na3 Na1+ 4 c 0.221(3) 0.25 0.261(3) 1. 0 5.9(9) 
H1 H1- 8 d 0.332 0.476 0.968 1. 0 5.9 
H2 H1- 8 d 0.107 0.476 0.838 1. 0 5.9 
H3 H1- 4 c 0.118 0.25 0.036 1. 0 5.9 
H4 H1- 4 c 0.322 0.25 0.758 1. 0 5.9 

#End of data_40575-ICSD


