data_245304-ICSD
#?2014 by Fachinformationszentrum Karlsruhe, and the U.S. Secretary of 
#Commerce on behalf of the United States.  All rights reserved.
_database_code_ICSD                245304
_audit_creation_date               2008/02/01
_chemical_name_systematic
;
Tetrapotassium Strontium Cyclo-trisilicate - Ii
;
_chemical_formula_structural       'K4 Sr Si3 O9'
_chemical_formula_sum              'K4 O9 Si3 Sr1'
_publ_section_title
;
On the existence of a second modification of K4 Sr Si3 O9 - X-ray 
single crystal diffraction, Raman spectroscopical and high 
temperature studies
;
loop_
_citation_id
_citation_journal_abbrev
_citation_year
_citation_journal_volume
_citation_journal_issue
_citation_page_first
_citation_page_last
_citation_journal_id_ASTM
primary 'Solid State Sciences' 2007 9 1 65 71 SSSCFJ
_publ_author_name
;
Kahlenberg, V.;Kaindl, R.;Sartory, B.
;
_cell_length_a                     10.9840(15)
_cell_length_b                     7.9535(10)
_cell_length_c                     11.916(2)
_cell_angle_alpha                  90.
_cell_angle_beta                   90.
_cell_angle_gamma                  90.
_cell_volume                       1041
_cell_formula_units_Z              4
_symmetry_space_group_name_H-M     'A m a 2'
_symmetry_Int_Tables_number        40
_refine_ls_R_factor_all            .0392
loop_
_symmetry_equiv_pos_site_id
_symmetry_equiv_pos_as_xyz
  1	'x+.5, -y, z'
  2	'-x+.5, y, z'
  3	'-x, -y, z'
  4	'x, y, z'
  5	'x+.5, -y+.5, z+.5'
  6	'-x+.5, y+.5, z+.5'
  7	'-x, -y+.5, z+.5'
  8	'x, y+.5, z+.5'
loop_
_atom_type_symbol
_atom_type_oxidation_number
K1+	1
O2-	-2
Si4+	4
Sr2+	2
loop_
_atom_site_label
_atom_site_type_symbol
_atom_site_symmetry_multiplicity
_atom_site_Wyckoff_symbol
_atom_site_fract_x
_atom_site_fract_y
_atom_site_fract_z
_atom_site_occupancy
_atom_site_attached_hydrogens
_atom_site_U_iso_or_equiv
Si1 Si4+ 8 c 0.9687(2) 0.8057(2) 0.7861(1) 1. 0 0.015(1) 
Si2 Si4+ 4 b 0.75 0.7747(3) 0.9640(2) 1. 0 0.015(1) 
O1 O2- 8 c 0.8987(4) 0.7151(6) 0.6876(4) 1. 0 0.023(1) 
O2 O2- 4 a 0 0 0.7421(6) 1. 0 0.020(2) 
O3 O2- 8 c 0.0902(4) 0.7188(6) 0.8329(5) 1. 0 0.024(1) 
O4 O2- 8 c 0.8704(5) 0.8367(7) 0.8907(4) 1. 0 0.029(1) 
O5 O2- 4 b 0.75 0.8781(8) 0.0783(5) 1. 0 0.019(1) 
O6 O2- 4 b 0.75 0.5745(9) 0.9735(6) 1. 0 0.022(2) 
Sr1 Sr2+ 4 b 0.75 0.4900(1) 0.7646(1) 1. 0 0.018(1) 
K1 K1+ 4 a 0 0.5 0.0008(3) 1. 0 0.028(1) 
K2 K1+ 4 a 0 0.5 0.5542(3) 1. 0 0.027(1) 
K3 K1+ 4 b 0.75 0.0525(3) 0.7106(2) 1. 0 0.023(1) 
K4 K1+ 4 b 0.75 0.7237(3) 0.5037(2) 1. 0 0.026(1) 

loop_
_atom_site_aniso_label
_atom_site_aniso_type_symbol
_atom_site_aniso_U_11
_atom_site_aniso_U_22
_atom_site_aniso_U_33
_atom_site_aniso_U_12
_atom_site_aniso_U_13
_atom_site_aniso_U_23
Si1 Si4+ 0.007(1) 0.021(1) 0.019(1) 0.000(1) -0.001(1) 0.001(1)
Si2 Si4+ 0.012(1) 0.022(1) 0.011(1) 0.000 0.000 -0.001(1)
O1 O2- 0.019(3) 0.028(2) 0.021(3) -0.003(2) -0.005(2) -0.004(2)
O2 O2- 0.019(4) 0.026(3) 0.015(5) 0.002(2) 0.000 0.000
O3 O2- 0.012(3) 0.028(2) 0.032(3) 0.004(2) -0.002(2) 0.002(2)
O4 O2- 0.023(3) 0.042(3) 0.021(3) -0.001(2) 0.008(2) 0.002(2)
O5 O2- 0.019(3) 0.025(3) 0.014(3) 0.000 0.000 -0.008(3)
O6 O2- 0.019(3) 0.027(4) 0.020(4) 0.000 0.000 -0.006(3)
Sr1 Sr2+ 0.018(1) 0.022(1) 0.014(1) 0.000 0.000 -0.002(1)
K1 K1+ 0.019(1) 0.038(2) 0.026(2) 0.002(1) 0.000 0.000
K2 K1+ 0.020(1) 0.031(1) 0.031(2) -0.002(1) 0.000 0.000
K3 K1+ 0.018(1) 0.031(1) 0.021(1) 0.000 0.000 0.002(1)
K4 K1+ 0.022(1) 0.034(1) 0.021(1) 0.000 0.000 0.004(1)
#End of data_245304-ICSD


