data_201163-ICSD
#?2014 by Fachinformationszentrum Karlsruhe, and the U.S. Secretary of 
#Commerce on behalf of the United States.  All rights reserved.
_database_code_ICSD                201163
_audit_creation_date               1981/12/31
_audit_update_record               1993/07/07
_chemical_name_systematic          'Potassium Cyclo-trisilicate'
_chemical_formula_structural       'K6 Si3 O9'
_chemical_formula_sum              'K6 O9 Si3'
_publ_section_title
;
Ueber K2 Si O3 - das erste Cyclotrisilicat eines Alkalimetalls - 
sowie Rb2 Si O3, Cs2 Si O3, Rb2 Ge O3 und Cs2 Ge O3
;
loop_
_citation_id
_citation_journal_abbrev
_citation_year
_citation_journal_volume
_citation_page_first
_citation_page_last
_citation_journal_id_ASTM
primary 'Revue de Chimie Minerale' 1981 18 593 607 RVCMA8
_publ_author_name                  'Werthmann, R.;Hoppe, R.'
_cell_length_a                     6.270(3)
_cell_length_b                     12.808(5)
_cell_length_c                     16.96(1)
_cell_angle_alpha                  90.
_cell_angle_beta                   117.38(3)
_cell_angle_gamma                  90.
_cell_volume                       1209.42
_cell_formula_units_Z              4
_symmetry_space_group_name_H-M     'P 1 21/c 1'
_symmetry_Int_Tables_number        14
_refine_ls_R_factor_all            .087
loop_
_symmetry_equiv_pos_site_id
_symmetry_equiv_pos_as_xyz
  1	'x, -y+.5, z+.5'
  2	'-x, -y, -z'
  3	'-x, y+.5, -z+.5'
  4	'x, y, z'
loop_
_atom_type_symbol
_atom_type_oxidation_number
K1+	1
O2-	-2
Si4+	4
loop_
_atom_site_label
_atom_site_type_symbol
_atom_site_symmetry_multiplicity
_atom_site_Wyckoff_symbol
_atom_site_fract_x
_atom_site_fract_y
_atom_site_fract_z
_atom_site_occupancy
_atom_site_attached_hydrogens
K1 K1+ 4 e 0.1146(4) 0.1185(2) 0.3619(2) 1. 0 
K2 K1+ 4 e 0.2838(4) 0.0062(2) 0.2198(2) 1. 0 
K3 K1+ 4 e 0.0179(4) 0.3062(2) 0.1995(2) 1. 0 
K4 K1+ 4 e 0.7172(4) 0.0856(2) 0.4717(2) 1. 0 
K5 K1+ 4 e 0.9331(5) 0.1450(2) 0.0039(2) 1. 0 
K6 K1+ 4 e 0.3185(4) 0.3864(2) 0.4194(2) 1. 0 
Si1 Si4+ 4 e 0.4339(5) 0.3494(2) 0.1034(2) 1. 0 
Si2 Si4+ 4 e 0.6026(5) 0.1206(2) 0.1372(2) 1. 0 
Si3 Si4+ 4 e 0.6080(5) 0.2550(2) 0.2875(2) 1. 0 
O1 O2- 4 e 0.3851(12) 0.0426(6) 0.0838(5) 1. 0 
O2 O2- 4 e 0.8701(13) 0.3034(6) 0.3375(6) 1. 0 
O3 O2- 4 e 0.6244(13) 0.4373(5) 0.1131(6) 1. 0 
O4 O2- 4 e 0.4371(12) 0.3311(5) 0.2026(5) 1. 0 
O5 O2- 4 e 0.6254(13) 0.1441(5) 0.2373(6) 1. 0 
O6 O2- 4 e 0.8602(13) 0.0869(6) 0.1499(6) 1. 0 
O7 O2- 4 e 0.1659(13) 0.3694(6) 0.0325(6) 1. 0 
O8 O2- 4 e 0.5365(13) 0.2363(6) 0.0846(6) 1. 0 
O9 O2- 4 e 0.4700(13) 0.2324(6) 0.3450(6) 1. 0 

loop_
_atom_site_aniso_label
_atom_site_aniso_type_symbol
_atom_site_aniso_U_11
_atom_site_aniso_U_22
_atom_site_aniso_U_33
_atom_site_aniso_U_12
_atom_site_aniso_U_13
_atom_site_aniso_U_23
K1 K1+ 0.0170(12) 0.0170(11) 0.0347(22) 0.0016(12) 0.0157(13) 0.0072(10)
K2 K1+ 0.0166(11) 0.0147(11) 0.0204(19) 0.0037(10) 0.0122(11) 0.0024(9)
K3 K1+ 0.0122(11) 0.0274(14) 0.0034(22) 0.0062(13) 0.0105(12) 0.0035(9)
K4 K1+ 0.0166(11) 0.0149(11) 0.0263(20) 0.0009(11) 0.0118(12) -.0021(9)
K5 K1+ 0.0300(15) 0.0430(18) 0.0323(25) 0.0103(15) 0.0228(16) 0.0109(13)
K6 K1+ 0.0166(11) 0.0168(11) 0.0182(19) -.0013(10) 0.0096(11) -.0006(9)
Si1 Si4+ 0.0072(12) 0.0106(13) 0.0147(25) 0.0024(12) 0.0072(13) 0.0025(10)
Si2 Si4+ 0.0096(13) 0.0085(12) 0.0221(25) -.0028(13) 0.0079(13) -.0004(10)
Si3 Si4+ 0.0127(13) 0.0082(13) 0.0155(22) -.0011(12) 0.0114(13) -.0013(10)
O1 O2- 0.0127(35) 0.0178(36) 0.0090(54) -.0016(33) 0.0096(34) -.0025(28)
O2 O2- 0.0104(34) 0.0155(37) 0.0212(58) 0.0066(34) 0.0053(35) 0.0023(28)
O3 O2- 0.0197(40) 0.0090(36) 0.0479(69) 0.0008(36) 0.0280(44) -.0035(29)
O4 O2- 0.0102(33) 0.0064(33) 0.017(6) 0.0015(30) 0.0076(34) -.0017(25)
O5 O2- 0.0237(39) 0.0058(33) 0.015(6) -.0002(31) 0.0148(39) 0.0010(28)
O6 O2- 0.0163(39) 0.0208(41) 0.0280(62) -.0033(37) 0.0134(39) 0.0005(31)
O7 O2- 0.0136(37) 0.0221(42) 0.0187(60) 0.0044(36) 0.0008(37) 0.0017(30)
O8 O2- 0.0277(42) 0.0161(39) 0.0134(58) -.0003(34) 0.0165(40) -.0015(32)
O9 O2- 0.0213(39) 0.0114(36) 0.0309(64) 0.0026(35) 0.0224(41) 0.0018(30)
#End of data_201163-ICSD


