data_281303-ICSD
#?2014 by Fachinformationszentrum Karlsruhe, and the U.S. Secretary of 
#Commerce on behalf of the United States.  All rights reserved.
_database_code_ICSD                281303
_audit_creation_date               2003/10/01
_chemical_name_systematic
;
Potassium Bis(iodato(V))dioxovanadate
;
_chemical_formula_structural       'K (V O2 (I O3)2)'
_chemical_formula_sum              'I2 K1 O8 V1'
_publ_section_title
;
New one-dimensional vanadyl iodates: hydrothermal preparation, 
structures and NLO properties of A (V O2 (I O3)2) (A = K, Rb) and A 
((V O)2 (I O3)3 O2) (A = N H4, Rb, Cs)
;
loop_
_citation_id
_citation_journal_abbrev
_citation_year
_citation_journal_volume
_citation_page_first
_citation_page_last
_citation_journal_id_ASTM
primary 'Chemistry of Materials' 2002 14 2741 2749 CMATEX
_publ_author_name
;
Sykora, R.E.;Ok, K.M.;Halasyamani, P.S.;Wells, D.M.;Albrecht Schmitt, 
T.E.
;
_cell_length_a                     9.4001(15)
_cell_length_b                     5.2383(8)
_cell_length_c                     15.725(3)
_cell_angle_alpha                  90.
_cell_angle_beta                   104.799(3)
_cell_angle_gamma                  90.
_cell_volume                       748.62
_cell_formula_units_Z              4
_symmetry_space_group_name_H-M     'P 1 21/n 1'
_symmetry_Int_Tables_number        14
_refine_ls_R_factor_all            .0259
loop_
_symmetry_equiv_pos_site_id
_symmetry_equiv_pos_as_xyz
  1	'-x+.5, y+.5, -z+.5'
  2	'-x, -y, -z'
  3	'x+.5, -y+.5, z+.5'
  4	'x, y, z'
loop_
_atom_type_symbol
_atom_type_oxidation_number
I5+	5
K1+	1
O2-	-2
V5+	5
loop_
_atom_site_label
_atom_site_type_symbol
_atom_site_symmetry_multiplicity
_atom_site_Wyckoff_symbol
_atom_site_fract_x
_atom_site_fract_y
_atom_site_fract_z
_atom_site_occupancy
_atom_site_attached_hydrogens
_atom_site_U_iso_or_equiv
V1 V5+ 4 e -.48724(11) -.2776(2) 0.81129(6) 1. 0 0.0117(2) 
I1 I5+ 4 e -.54142(4) -.77575(6) 0.67739(2) 1. 0 0.01100(13) 
I2 I5+ 4 e -.63594(4) -.81925(6) 0.92671(2) 1. 0 0.01145(13) 
K1 K1+ 4 e -.3233(2) -.2776(3) 0.59308(9) 1. 0 0.0213(3) 
O1 O2- 4 e -.4243(4) -.0455(7) 0.7252(2) 1. 0 0.0148(7) 
O2 O2- 4 e -.4899(5) -.7619(8) 0.5767(3) 1. 0 0.0161(8) 
O3 O2- 4 e -.4159(4) -.5338(7) 0.7395(2) 1. 0 0.0130(7) 
O4 O2- 4 e -.5617(4) -.9379(7) 0.8357(2) 1. 0 0.0172(8) 
O5 O2- 4 e -.8281(5) -.7982(8) 0.8739(3) 1. 0 0.0196(9) 
O6 O2- 4 e -.6397(4) -.1204(7) 0.9817(2) 1. 0 0.0155(7) 
O7 O2- 4 e -.6357(4) -.4328(7) 0.8182(2) 1. 0 0.0178(8) 
O8 O2- 4 e -.3624(5) -.3263(8) 0.9026(3) 1. 0 0.0193(8) 

loop_
_atom_site_aniso_label
_atom_site_aniso_type_symbol
_atom_site_aniso_U_11
_atom_site_aniso_U_22
_atom_site_aniso_U_33
_atom_site_aniso_U_12
_atom_site_aniso_U_13
_atom_site_aniso_U_23
V1 V5+ 0.0142(5) 0.0098(4) 0.0112(4) 0.0014(3) 0.0034(3) 0.0008(3)
I1 I5+ 0.0107(2) 0.0113(2) 0.0114(2) 0.00012(11) 0.00351(14) -0.00004(11)
I2 I5+ 0.0113(2) 0.0124(2) 0.0112(2) 0.00036(11) 0.00398(14) -0.00070(11)
K1 K1+ 0.0255(7) 0.0218(6) 0.0197(6) -0.0022(5) 0.0115(5) -0.0008(5)
O1 O2- 0.017(2) 0.011(2) 0.016(2) 0.0008(15) 0.0043(14) 0.0019(14)
O2 O2- 0.017(2) 0.021(2) 0.013(2) 0.000(2) 0.010(2) -0.0001(15)
O3 O2- 0.008(2) 0.012(2) 0.020(2) 0.0003(14) 0.0064(13) -0.0017(14)
O4 O2- 0.028(2) 0.014(2) 0.012(2) 0.004(2) 0.009(2) -0.0011(14)
O5 O2- 0.009(2) 0.028(2) 0.021(2) 0.004(2) 0.003(2) 0.001(2)
O6 O2- 0.019(2) 0.014(2) 0.015(2) 0.001(2) 0.0077(14) 0.0028(15)
O7 O2- 0.021(2) 0.014(2) 0.020(2) 0.000(2) 0.007(2) 0.001(2)
O8 O2- 0.021(2) 0.020(2) 0.015(2) 0.003(2) 0.001(2) 0.001(2)
#End of data_281303-ICSD


