data_16382-ICSD
#?2014 by Fachinformationszentrum Karlsruhe, and the U.S. Secretary of 
#Commerce on behalf of the United States.  All rights reserved.
_database_code_ICSD                16382
_audit_creation_date               1980/12/31
_audit_update_record               2007/08/01
_chemical_name_systematic          'Calcium Sulfate(VI)'
_chemical_formula_structural       'Ca (S O4)'
_chemical_formula_sum              'Ca1 O4 S1'
_chemical_name_mineral             Anhydrite
_publ_section_title
;
Charge density in anhydrite, Ca S O4, from X-ray and neutron 
diffraction measurements
;
loop_
_citation_id
_citation_journal_abbrev
_citation_year
_citation_journal_volume
_citation_page_first
_citation_page_last
_citation_journal_id_ASTM
primary 'Acta Crystallographica B (24,1968-38,1982)' 1980 36 2881 2890 ACBCAR
_publ_author_name                  'Kirfel, A.;Will, G.'
_cell_length_a                     7.006(1)
_cell_length_b                     6.998(1)
_cell_length_c                     6.245(1)
_cell_angle_alpha                  90.
_cell_angle_beta                   90.
_cell_angle_gamma                  90.
_cell_volume                       306.18
_cell_formula_units_Z              4
_symmetry_space_group_name_H-M     'A m m a'
_symmetry_Int_Tables_number        63
_refine_ls_R_factor_all            .046
loop_
_symmetry_equiv_pos_site_id
_symmetry_equiv_pos_as_xyz
  1	'-x+.5, -y, z'
  2	'x+.5, -y, -z'
  3	'x, -y, z'
  4	'-x, -y, -z'
  5	'x+.5, y, -z'
  6	'-x+.5, y, z'
  7	'-x, y, -z'
  8	'x, y, z'
  9	'-x+.5, -y+.5, z+.5'
 10	'x+.5, -y+.5, -z+.5'
 11	'x, -y+.5, z+.5'
 12	'-x, -y+.5, -z+.5'
 13	'x+.5, y+.5, -z+.5'
 14	'-x+.5, y+.5, z+.5'
 15	'-x, y+.5, -z+.5'
 16	'x, y+.5, z+.5'
loop_
_atom_type_symbol
_atom_type_oxidation_number
Ca2+	2
O2-	-2
S6+	6
loop_
_atom_site_label
_atom_site_type_symbol
_atom_site_symmetry_multiplicity
_atom_site_Wyckoff_symbol
_atom_site_fract_x
_atom_site_fract_y
_atom_site_fract_z
_atom_site_occupancy
_atom_site_attached_hydrogens
Ca1 Ca2+ 4 c 0.75 0 0.34765(11) 1. 0 
S1 S6+ 4 c 0.25 0 0.15577(17) 1. 0 
O1 O2- 8 g 0.25 0.16956(7) 0.01607(7) 1. 0 
O2 O2- 8 f 0.08202(7) 0 0.29735(7) 1. 0 

loop_
_atom_site_aniso_label
_atom_site_aniso_type_symbol
_atom_site_aniso_U_11
_atom_site_aniso_U_22
_atom_site_aniso_U_33
_atom_site_aniso_U_12
_atom_site_aniso_U_13
_atom_site_aniso_U_23
Ca1 Ca2+ 0.0068(2) 0.0095(2) 0.0068(2) 0 0 0
S1 S6+ 0.0059(3) 0.0069(3) 0.0047(3) 0 0 0
O1 O2- 0.0178(2) 0.0084(1) 0.0090(1) 0 0 0.0024(1)
O2 O2- 0.0064(1) 0.0173(2) 0.0091(2) 0 0.0015(1) 0
#End of data_16382-ICSD


