data_280348-ICSD
#?2014 by Fachinformationszentrum Karlsruhe, and the U.S. Secretary of 
#Commerce on behalf of the United States.  All rights reserved.
_database_code_ICSD                280348
_audit_creation_date               2002/04/01
_chemical_name_systematic
;
Tricalcium Tetranitridodialuminate - Beta
;
_chemical_formula_structural       'Ca3 (Al2 N4)'
_chemical_formula_sum              'Al2 Ca3 N4'
_publ_section_title
;
Crystal structures of two polymorphs of Ca3 (Al2 N4)
;
loop_
_citation_id
_citation_journal_abbrev
_citation_year
_citation_journal_volume
_citation_page_first
_citation_page_last
_citation_journal_id_ASTM
primary 'Inorganic Chemistry' 2000 39 5909 5911 INOCAJ
_publ_author_name
;
Ludwig, M.;Jaeger, J.;Niewa, R.;Kniep, R.
;
_cell_length_a                     5.826(3)
_cell_length_b                     10.691(4)
_cell_length_c                     15.854(5)
_cell_angle_alpha                  90.
_cell_angle_beta                   90.
_cell_angle_gamma                  90.
_cell_volume                       987.48
_cell_formula_units_Z              8
_symmetry_space_group_name_H-M     'P 21 21 21'
_symmetry_Int_Tables_number        19
_refine_ls_R_factor_all            .1412
loop_
_symmetry_equiv_pos_site_id
_symmetry_equiv_pos_as_xyz
  1	'-x, y+.5, -z+.5'
  2	'x+.5, -y+.5, -z'
  3	'-x+.5, -y, z+.5'
  4	'x, y, z'
loop_
_atom_type_symbol
_atom_type_oxidation_number
Al3+	3
Ca2+	2
N3-	-3
loop_
_atom_site_label
_atom_site_type_symbol
_atom_site_symmetry_multiplicity
_atom_site_Wyckoff_symbol
_atom_site_fract_x
_atom_site_fract_y
_atom_site_fract_z
_atom_site_occupancy
_atom_site_attached_hydrogens
_atom_site_U_iso_or_equiv
Ca1 Ca2+ 4 a 0.0303(4) 0.5089(2) 0.18028(13) 1. 0 0 
Ca2 Ca2+ 4 a 0.2617(4) 0.26414(19) 0.33206(13) 1. 0 0 
Ca3 Ca2+ 4 a 0.2928(4) 0.2420(2) 0.56052(13) 1. 0 0 
Ca4 Ca2+ 4 a 0.4625(4) 0.0279(2) 0.20437(14) 1. 0 0 
Ca5 Ca2+ 4 a 0.5010(4) 0.4909(2) 0.07240(13) 1. 0 0 
Ca6 Ca2+ 4 a 0.7763(4) 0.2329(2) 0.05905(13) 1. 0 0 
Al1 Al3+ 4 a 0.0074(5) 0.0183(3) 0.13103(19) 1. 0 0.0039(5) 
Al2 Al3+ 4 a 0.2373(5) 0.2438(3) 0.1287(2) 1. 0 0.0078(6) 
Al3 Al3+ 4 a 0.2449(5) 0.7511(3) 0.24846(18) 1. 0 0.0057(6) 
Al4 Al3+ 4 a 0.4879(5) 0.0091(3) 0.00639(19) 1. 0 0.0046(6) 
N1 N3- 4 a 0.0208(16) 0.1660(8) 0.2035(6) 1. 0 0.0075(16) 
N2 N3- 4 a 0.1192(15) 0.3726(9) 0.0653(6) 1. 0 0.0072(17) 
N3 N3- 4 a 0.1324(15) 0.1270(8) 0.4432(6) 1. 0 0.0061(16) 
N4 N3- 4 a 0.2263(16) 0.0949(8) 0.0558(6) 1. 0 0.0084(16) 
N5 N3- 4 a 0.2797(16) 0.4737(9) 0.4118(6) 1. 0 0.0107(17) 
N6 N3- 4 a 0.3721(17) 0.1112(10) 0.6907(6) 1. 0 0.0102(18) 
N7 N3- 4 a 0.5246(17) 0.2920(9) 0.1720(6) 1. 0 0.0122(18) 
N8 N3- 4 a 0.6166(15) 0.1364(8) 0.3276(6) 1. 0 0.0068(16) 

loop_
_atom_site_aniso_label
_atom_site_aniso_type_symbol
_atom_site_aniso_U_11
_atom_site_aniso_U_22
_atom_site_aniso_U_33
_atom_site_aniso_U_12
_atom_site_aniso_U_13
_atom_site_aniso_U_23
Ca1 Ca2+ 0.0164(9) 0.0068(9) 0.0023(8) 0.0021(8) 0.0021(7) -.0023(7)
Ca2 Ca2+ 0.0142(10) 0.0041(9) 0.0066(9) 0.0010(8) 0.0006(8) -.0003(7)
Ca3 Ca2+ 0.0140(9) 0.0102(9) 0.0056(9) -.0013(8) 0.0018(7) -.0035(8)
Ca4 Ca2+ 0.0137(9) 0.0108(9) 0.0067(9) -.0020(9) 0.0021(8) -.0012(8)
Ca5 Ca2+ 0.014(1) 0.0084(9) 0.0041(9) -.0018(8) 0.0008(7) -.0005(7)
Ca6 Ca2+ 0.0131(10) 0.0088(9) 0.0039(9) 0.0005(8) -.0014(7) -.0011(7)
#End of data_280348-ICSD


