data_202681-ICSD
#?2014 by Fachinformationszentrum Karlsruhe, and the U.S. Secretary of 
#Commerce on behalf of the United States.  All rights reserved.
_database_code_ICSD                202681
_audit_creation_date               1989/12/04
_audit_update_record               2003/04/01
_chemical_name_systematic          'Aluminium Fluoride - Beta'
_chemical_formula_structural       'Al F3'
_chemical_formula_sum              'Al1 F3'
_publ_section_title
;
Crystal structure of the metastable form of aluminium trifluoride 
beta-Al F3 and the gallium and indium homologs
;
loop_
_citation_id
_citation_journal_abbrev
_citation_year
_citation_journal_volume
_citation_page_first
_citation_page_last
_citation_journal_id_ASTM
primary 'Journal of Solid State Chemistry' 1988 77 96 101 JSSCBI
_publ_author_name
;
Le Bail, A.;Jacoboni, C.;Leblanc, M.;de Pape, R.;Duroy, H.;Fourquet, 
J.L.
;
_cell_length_a                     6.931(3)
_cell_length_b                     12.002(6)
_cell_length_c                     7.134(2)
_cell_angle_alpha                  90.
_cell_angle_beta                   90.
_cell_angle_gamma                  90.
_cell_volume                       593.45
_cell_formula_units_Z              12
_symmetry_space_group_name_H-M     'C m c m'
_symmetry_Int_Tables_number        63
_refine_ls_R_factor_all            .044
loop_
_symmetry_equiv_pos_site_id
_symmetry_equiv_pos_as_xyz
  1	'-x, y, -z+.5'
  2	'-x, -y, z+.5'
  3	'-x, y, z'
  4	'-x, -y, -z'
  5	'x, -y, z+.5'
  6	'x, y, -z+.5'
  7	'x, -y, -z'
  8	'x, y, z'
  9	'-x+.5, y+.5, -z+.5'
 10	'-x+.5, -y+.5, z+.5'
 11	'-x+.5, y+.5, z'
 12	'-x+.5, -y+.5, -z'
 13	'x+.5, -y+.5, z+.5'
 14	'x+.5, y+.5, -z+.5'
 15	'x+.5, -y+.5, -z'
 16	'x+.5, y+.5, z'
loop_
_atom_type_symbol
_atom_type_oxidation_number
Al3+	3
F1-	-1
loop_
_atom_site_label
_atom_site_type_symbol
_atom_site_symmetry_multiplicity
_atom_site_Wyckoff_symbol
_atom_site_fract_x
_atom_site_fract_y
_atom_site_fract_z
_atom_site_occupancy
_atom_site_attached_hydrogens
Al1 Al3+ 4 b 0 0.5 0 1. 0 
Al2 Al3+ 8 d 0.25 0.25 0 1. 0 
F1 F1- 8 f 0 0.2125(1) 0.5257(2) 1. 0 
F2 F1- 16 h 0.3161(1) 0.1054(1) 0.9800(1) 1. 0 
F3 F1- 4 c 0 0.5177(2) 0.25 1. 0 
F4 F1- 8 g 0.2297(2) 0.2352(1) 0.25 1. 0 

loop_
_atom_site_aniso_label
_atom_site_aniso_type_symbol
_atom_site_aniso_U_11
_atom_site_aniso_U_22
_atom_site_aniso_U_33
_atom_site_aniso_U_12
_atom_site_aniso_U_13
_atom_site_aniso_U_23
Al1 Al3+ 0.0055(3) 0.0042(3) 0.0043(3) 0 0 -0.0002(2)
Al2 Al3+ 0.0040(2) 0.0057(3) 0.004(2) 0.0008(2) -0.0005(1) -0.0003(2)
F1 F1- 0.0040(4) 0.0107(5) 0.0112(5) 0 0 0.0010(4)
F2 F1- 0.0083(3) 0.0061(3) 0.0141(4) 0.0023(2) -0.0012(3) -0.0004(2)
F3 F1- 0.0155(8) 0.0128(8) 0.0049(6) 0 0 0
F4 F1- 0.0133(5) 0.0141(6) 0.0040(4) -0.0002(4) 0 0
#End of data_202681-ICSD


