data_409563-ICSD
#?2014 by Fachinformationszentrum Karlsruhe, and the U.S. Secretary of 
#Commerce on behalf of the United States.  All rights reserved.
_database_code_ICSD                409563
_audit_creation_date               2002/10/01
_chemical_name_systematic          'Dipotassium Tetrathiomolybdate'
_chemical_formula_structural       'K2 (Mo S4)'
_chemical_formula_sum              'K2 Mo1 S4'
_publ_section_title
;
Crystal structure of dipotassium tetrathiomolybdate, K2 Mo S4
;
loop_
_citation_id
_citation_journal_abbrev
_citation_year
_citation_journal_volume
_citation_page_first
_citation_page_last
_citation_journal_id_ASTM
primary 'Zeitschrift fuer Kristallographie - New Crystal Structures'
 2001 216 484 484 ZKNSFT
_publ_author_name                  'Emirdag-Eanes, M.;Ibers, J.A.'
_cell_length_a                     9.3203(12)
_cell_length_b                     6.8430(9)
_cell_length_c                     12.0806(15)
_cell_angle_alpha                  90.
_cell_angle_beta                   90.
_cell_angle_gamma                  90.
_cell_volume                       770.49
_cell_formula_units_Z              4
_symmetry_space_group_name_H-M     'P n m a'
_symmetry_Int_Tables_number        62
_refine_ls_R_factor_all            .026
loop_
_symmetry_equiv_pos_site_id
_symmetry_equiv_pos_as_xyz
  1	'x+.5, y, -z+.5'
  2	'x, -y+.5, z'
  3	'-x+.5, y+.5, z+.5'
  4	'-x, -y, -z'
  5	'-x+.5, -y, z+.5'
  6	'-x, y+.5, -z'
  7	'x+.5, -y+.5, -z+.5'
  8	'x, y, z'
loop_
_atom_type_symbol
_atom_type_oxidation_number
K1+	1
Mo6+	6
S2-	-2
loop_
_atom_site_label
_atom_site_type_symbol
_atom_site_symmetry_multiplicity
_atom_site_Wyckoff_symbol
_atom_site_fract_x
_atom_site_fract_y
_atom_site_fract_z
_atom_site_occupancy
_atom_site_attached_hydrogens
K1 K1+ 4 c 0.45601(7) 0.25 0.66291(6) 1. 0 
K2 K1+ 4 c 1.15882(8) 0.25 0.38645(6) 1. 0 
Mo1 Mo6+ 4 c 0.74770(2) 0.25 0.43155(2) 1. 0 
S1 S2- 4 c 0.51741(8) 0.25 0.39159(7) 1. 0 
S2 S2- 8 d 0.85009(6) -.00607(8) 0.35976(5) 1. 0 
S3 S2- 4 c 0.78384(9) 0.25 0.60967(7) 1. 0 

loop_
_atom_site_aniso_label
_atom_site_aniso_type_symbol
_atom_site_aniso_U_11
_atom_site_aniso_U_22
_atom_site_aniso_U_33
_atom_site_aniso_U_12
_atom_site_aniso_U_13
_atom_site_aniso_U_23
K1 K1+ 0.0169(3) 0.0226(3) 0.0187(3) 0 0.0015(2) 0
K2 K1+ 0.0187(3) 0.0246(4) 0.0264(4) 0 -.0027(3) 0
Mo1 Mo6+ 0.01189(15) 0.01177(15) 0.01304(15) 0 -.00013(8) 0
S1 S2- 0.0134(4) 0.0254(4) 0.0197(4) 0 -.0033(3) 0
S2 S2- 0.0206(3) 0.0144(3) 0.0310(3) 0.0006(2) 0.0054(2) -.0052(2)
S3 S2- 0.0203(4) 0.0311(4) 0.0148(4) 0 -.0022(3) 0
#End of data_409563-ICSD


