data_170555-ICSD
#?2014 by Fachinformationszentrum Karlsruhe, and the U.S. Secretary of 
#Commerce on behalf of the United States.  All rights reserved.
_database_code_ICSD                170555
_audit_creation_date               2006/04/01
_chemical_name_systematic
;
Tetrasilver Divanadium Hexaoxide Fluoride
;
_chemical_formula_structural       'Ag4 V2 O6 F2'
_chemical_formula_sum              'Ag4 F2 O6 V2'
_publ_section_title
;
Ag4 V2 O6 F2: an electrochemically active and high silver density 
phase
;
loop_
_citation_id
_citation_journal_abbrev
_citation_year
_citation_journal_volume
_citation_journal_issue
_citation_page_first
_citation_page_last
_citation_journal_id_ASTM
primary 'Journal of the American Chemical Society' 2005 127 17 6347 6352 JACSAT
_publ_author_name
;
Sorensen, E.M.;Izumi, H.K.;Vaughey, J.T.;Stern, C.L.;Poeppelmeier, 
K.R.
;
_cell_length_a                     5.5937(6)
_cell_length_b                     10.5483(11)
_cell_length_c                     12.4593(13)
_cell_angle_alpha                  90.00
_cell_angle_beta                   90.314(2)
_cell_angle_gamma                  90.00
_cell_volume                       735.14
_cell_formula_units_Z              4
_symmetry_space_group_name_H-M     'P 1 21/n 1'
_symmetry_Int_Tables_number        14
_refine_ls_R_factor_all            .04
loop_
_symmetry_equiv_pos_site_id
_symmetry_equiv_pos_as_xyz
  1	'-x+.5, y+.5, -z+.5'
  2	'-x, -y, -z'
  3	'x+.5, -y+.5, z+.5'
  4	'x, y, z'
loop_
_atom_type_symbol
_atom_type_oxidation_number
Ag1+	1
F1-	-1
O2-	-2
V5+	5
loop_
_atom_site_label
_atom_site_type_symbol
_atom_site_symmetry_multiplicity
_atom_site_Wyckoff_symbol
_atom_site_fract_x
_atom_site_fract_y
_atom_site_fract_z
_atom_site_occupancy
_atom_site_attached_hydrogens
_atom_site_U_iso_or_equiv
Ag1 Ag1+ 4 e 0.19947(13) 0.79424(7) 0.41669(6) 1 0 0.01522(18) 
Ag2 Ag1+ 4 e 0.23532(12) 0.55354(6) 0.56454(5) 1 0 0.01245(17) 
Ag3 Ag1+ 4 e 0.23787(14) 0.97309(6) 0.59874(6) 1 0 0.01659(18) 
Ag4 Ag1+ 4 e 0.69653(12) 0.74691(6) 0.27509(5) 1 0 0.01132(16) 
V1 V5+ 4 e -0.2864(3) 0.76718(13) 0.58551(11) 1 0 0.0073(3) 
V2 V5+ 4 e -0.2645(3) 0.98748(15) 0.78503(12) 1 0 0.0177(4) 
F1 F1- 4 e 0.4509(9) 0.6035(5) 0.3974(4) 1 0 0.0126(11) 
F2 F1- 4 e 0.0389(10) 1.0699(5) 0.7552(4) 1 0 0.0165(11) 
O1 O2- 4 e -0.1888(12) 0.8313(6) 0.4690(5) 1 0 0.0124(13) 
O2 O2- 4 e 0.4083(11) 0.7812(6) 0.5934(5) 1 0 0.0126(13) 
O3 O2- 4 e 0.3496(12) 0.6479(6) 0.1909(5) 1 0 0.0130(13) 
O4 O2- 4 e -0.1929(11) 0.6090(6) 0.5956(5) 1 0 0.0122(12) 
O5 O2- 4 e 0.4115(12) 0.9287(6) 0.3074(5) 1 0 0.0145(13) 
O6 O2- 4 e 0.0050(11) 0.6060(6) 0.3346(5) 1 0 0.0108(12) 

loop_
_atom_site_aniso_label
_atom_site_aniso_type_symbol
_atom_site_aniso_U_11
_atom_site_aniso_U_22
_atom_site_aniso_U_33
_atom_site_aniso_U_12
_atom_site_aniso_U_13
_atom_site_aniso_U_23
Ag1 Ag1+ 0.0154(3) 0.0131(3) 0.0171(4) 0.0004(3) 0.0000(3) -0.0027(3)
Ag2 Ag1+ 0.0137(3) 0.0123(3) 0.0114(3) -0.0005(2) 0.0007(3) 0.0017(2)
Ag3 Ag1+ 0.0229(4) 0.0079(3) 0.0190(4) 0.0032(3) -0.0031(3) -0.0012(3)
Ag4 Ag1+ 0.0115(3) 0.0095(3) 0.0129(3) -0.0003(2) 0.0007(2) 0.0000(2)
V1 V5+ 0.0091(6) 0.0056(6) 0.0074(7) 0.0009(5) 0.0003(5) 0.0002(5)
V2 V5+ 0.0319(9) 0.0122(7) 0.0088(7) 0.0120(7) -0.0062(7) -0.0044(6)
F1 F1- 0.012(2) 0.014(3) 0.012(3) -0.001(2) -0.002(2) -0.003(2)
F2 F1- 0.017(3) 0.018(3) 0.014(3) -0.004(2) 0.003(2) -0.002(2)
O1 O2- 0.019(3) 0.010(3) 0.008(3) 0.002(3) 0.002(2) 0.001(2)
O2 O2- 0.015(3) 0.011(3) 0.011(3) 0.001(3) 0.003(3) -0.002(2)
O3 O2- 0.016(3) 0.011(3) 0.013(3) -0.002(3) -0.001(2) 0.006(2)
O4 O2- 0.013(3) 0.009(3) 0.015(3) -0.001(2) 0.000(3) 0.002(2)
O5 O2- 0.014(3) 0.015(3) 0.015(3) 0.002(3) -0.004(3) 0.003(3)
O6 O2- 0.009(3) 0.010(3) 0.013(3) 0.004(2) 0.003(2) 0.003(2)
#End of data_170555-ICSD


