data_157315-ICSD
#?2014 by Fachinformationszentrum Karlsruhe, and the U.S. Secretary of 
#Commerce on behalf of the United States.  All rights reserved.
_database_code_ICSD                157315
_audit_creation_date               2008/02/01
_audit_update_record               2013/02/01
_chemical_name_systematic
;
Calcium Hexaoxofluoroditantalate (1.5/1) - Alpha
;
_chemical_formula_structural       'Ca1.5 (Ta2 O6 F)'
_chemical_formula_sum              'Ca1.5 F1 O6 Ta2'
_publ_section_title
;
Ca(2+)/vacancies and O(2-)/F(-) ordering in new oxyfluoride 
pyrochlores Li2x Ca1.5-x (vac)0.5-x M2 O6 F (M = Nb, Ta) for 0 <= x 
<= 0.5
;
loop_
_citation_id
_citation_journal_abbrev
_citation_year
_citation_journal_volume
_citation_page_first
_citation_page_last
_citation_journal_id_ASTM
primary 'Dalton Transactions' 2007 2007 2457 2466 DTARAF
_publ_author_name
;
le Berre, F.;Crosnier-Lopez, M.P.;Galven, C.;Fourquet, J.L.;Legein, 
C.;Body, M.;Buzare, J.Y.
;
_cell_length_a                     10.43210(9)
_cell_length_b                     10.43210(9)
_cell_length_c                     10.43210(9)
_cell_angle_alpha                  90.
_cell_angle_beta                   90.
_cell_angle_gamma                  90.
_cell_volume                       1135.31
_cell_formula_units_Z              8
_symmetry_space_group_name_H-M     'P 43 3 2'
_symmetry_Int_Tables_number        212
_refine_ls_R_factor_all            .0249
loop_
_symmetry_equiv_pos_site_id
_symmetry_equiv_pos_as_xyz
  1	'z+.25, y+.75, -x+.75'
  2	'-z+.75, y+.25, x+.75'
  3	'y+.25, x+.75, -z+.75'
  4	'-y+.75, x+.25, z+.75'
  5	'x+.25, z+.75, -y+.75'
  6	'-x+.75, z+.25, y+.75'
  7	'z+.75, -y+.75, x+.25'
  8	'-z+.25, -y+.25, -x+.25'
  9	'y+.75, -x+.75, z+.25'
 10	'-y+.25, -x+.25, -z+.25'
 11	'x+.75, -z+.75, y+.25'
 12	'-x+.25, -z+.25, -y+.25'
 13	'-y+.5, -z, x+.5'
 14	'-y, z+.5, -x+.5'
 15	'y+.5, -z+.5, -x'
 16	'y, z, x'
 17	'z+.5, -x+.5, -y'
 18	'-z+.5, -x, y+.5'
 19	'-z, x+.5, -y+.5'
 20	'z, x, y'
 21	'-x+.5, -y, z+.5'
 22	'-x, y+.5, -z+.5'
 23	'x+.5, -y+.5, -z'
 24	'x, y, z'
loop_
_atom_type_symbol
_atom_type_oxidation_number
Ca2+	2
F1-	-1
O2-	-2
Ta5+	5
loop_
_atom_site_label
_atom_site_type_symbol
_atom_site_symmetry_multiplicity
_atom_site_Wyckoff_symbol
_atom_site_fract_x
_atom_site_fract_y
_atom_site_fract_z
_atom_site_occupancy
_atom_site_attached_hydrogens
_atom_site_B_iso_or_equiv
Ca1 Ca2+ 12 d 0.125 0.379(2) -0.129(2) 1. 0 1.2(2) 
Ta1 Ta5+ 4 a 0.125 0.125 0.125 1. 0 0 
Ta2 Ta5+ 12 d 0.125 0.6268(5) -0.3768(5) 1. 0 0 
O1 O2- 24 e 0.190(5) -0.003(4) 0.005(4) 1. 0 1.0(3) 
O2 O2- 24 e 0.807(3) 0.005(6) -0.001(7) 1. 0 1.0(3) 
F1 F1- 8 c 0.490(5) 0.490(5) 0.490(5) 1. 0 1.(1) 

#End of data_157315-ICSD


