data_240725-ICSD
#?2014 by Fachinformationszentrum Karlsruhe, and the U.S. Secretary of 
#Commerce on behalf of the United States.  All rights reserved.
_database_code_ICSD                240725
_audit_creation_date               2007/04/01
_audit_update_record               2013/08/01
_chemical_name_systematic          'Calcium Cobalt Arsenate Hydroxide'
_chemical_formula_structural       'Ca Co (As O4) (O H)'
_chemical_formula_sum              'H1 As1 Ca1 Co1 O5'
_chemical_name_mineral             Cobaltaustinite
_publ_section_title
;
Cobaltaustinite, Ca Co (As O4) (OH)
;
loop_
_citation_id
_citation_journal_abbrev
_citation_year
_citation_journal_volume
_citation_journal_issue
_citation_page_first
_citation_page_last
_citation_journal_id_ASTM
primary 'Acta Crystallographica, Section E. Structure Reports Online'
 2007 63 2 i53 i55 ACSEBH
2
;
Ninth International Symposium on Experimental Mineralogy, Petrolgy 
and Geochemistry
;
 2002 9- 30 30 ISEMPF
_publ_author_name
;
Yang, H.;Costin, G.;Keogh, J.;Lu, R.;Downs, R.T.
;
_cell_length_a                     7.4919(9)
_cell_length_b                     8.9946(9)
_cell_length_c                     5.9158(7)
_cell_angle_alpha                  90.00
_cell_angle_beta                   90.00
_cell_angle_gamma                  90.00
_cell_volume                       398.65
_cell_formula_units_Z              4
_symmetry_space_group_name_H-M     'P 21 21 21'
_symmetry_Int_Tables_number        19
_refine_ls_R_factor_all            .087
loop_
_symmetry_equiv_pos_site_id
_symmetry_equiv_pos_as_xyz
  1	'-x, y+.5, -z+.5'
  2	'x+.5, -y+.5, -z'
  3	'-x+.5, -y, z+.5'
  4	'x, y, z'
loop_
_atom_type_symbol
_atom_type_oxidation_number
As5+	5
Ca2+	2
Co2+	2
H1+	1
O2-	-2
loop_
_atom_site_label
_atom_site_type_symbol
_atom_site_symmetry_multiplicity
_atom_site_Wyckoff_symbol
_atom_site_fract_x
_atom_site_fract_y
_atom_site_fract_z
_atom_site_occupancy
_atom_site_attached_hydrogens
_atom_site_U_iso_or_equiv
Ca1 Ca2+ 4 a 0.62941(19) 0.32886(14) 0.5223(3) 1 0 0.0166(4) 
Co1 Co2+ 4 a 0.25814(17) 0.50516(13) 0.2547(3) 1 0 0.0145(3) 
As1 As5+ 4 a 0.62045(9) 0.67900(7) 0.48441(13) 1 0 0.0143(2) 
O1 O2- 4 a 0.4433(5) 0.5613(4) 0.5088(9) 1 0 0.0210(11) 
O2 O2- 4 a 0.7125(7) 0.4364(5) 0.9121(8) 1 0 0.0247(13) 
O3 O2- 4 a 0.3521(6) 0.2695(4) 0.7673(9) 1 0 0.0181(12) 
O4 O2- 4 a 0.3975(7) 0.2945(5) 0.2403(8) 1 0 0.0223(12) 
O5 O2- 4 a 0.3956(6) 0.5740(4) 0.9944(10) 1 0 0.0218(10) 
H1 H1+ 4 a 0.504(12) 0.506(8) 0.990(16) 1 0 0.06(3) 

loop_
_atom_site_aniso_label
_atom_site_aniso_type_symbol
_atom_site_aniso_U_11
_atom_site_aniso_U_22
_atom_site_aniso_U_33
_atom_site_aniso_U_12
_atom_site_aniso_U_13
_atom_site_aniso_U_23
Ca1 Ca2+ 0.0151(7) 0.0150(6) 0.0197(7) 0.0010(6) -0.0007(6) -0.0009(6)
Co1 Co2+ 0.0131(5) 0.0157(5) 0.0149(5) -0.0005(4) 0.0009(4) 0.0013(4)
As1 As5+ 0.0119(3) 0.0139(3) 0.0172(3) -0.0003(3) 0.0001(3) -0.0001(3)
O1 O2- 0.019(2) 0.022(2) 0.022(2) -0.0043(17) -0.001(2) -0.008(3)
O2 O2- 0.021(3) 0.027(3) 0.027(3) 0.006(2) -0.004(2) -0.002(2)
O3 O2- 0.018(3) 0.018(2) 0.018(2) 0.000(2) -0.001(2) 0.0021(19)
O4 O2- 0.026(3) 0.018(2) 0.022(2) -0.001(2) -0.009(2) 0.001(2)
O5 O2- 0.017(2) 0.026(2) 0.023(2) 0.0006(19) -0.004(3) 0.001(2)
#End of data_240725-ICSD


