data_153629-ICSD
#?2014 by Fachinformationszentrum Karlsruhe, and the U.S. Secretary of 
#Commerce on behalf of the United States.  All rights reserved.
_database_code_ICSD                153629
_audit_creation_date               2007/04/01
_chemical_name_systematic          'Potassium Calcium Fluoride'
_chemical_formula_structural       'K Ca F3'
_chemical_formula_sum              'Ca1 F3 K1'
_publ_section_title
;
The crystal structure of K Ca F3 at 4.2 and 300 K: a re-evaluation 
using high-resolution powder neutron diffraction
;
loop_
_citation_id
_citation_journal_abbrev
_citation_year
_citation_journal_volume
_citation_journal_issue
_citation_page_first
_citation_page_last
_citation_journal_id_ASTM
primary 'Powder Diffraction' 2005 20 1 7 13 PODIE2
_publ_author_name
;
Knight, K.S.;Darlington, C.N.W.;Wood, I.G.
;
_cell_length_a                     6.21488(6)
_cell_length_b                     8.76360(8)
_cell_length_c                     6.16481(6)
_cell_angle_alpha                  90.
_cell_angle_beta                   90.
_cell_angle_gamma                  90.
_cell_volume                       335.76
_cell_formula_units_Z              4
_symmetry_space_group_name_H-M     'P n m a'
_symmetry_Int_Tables_number        62
_refine_ls_R_factor_all            .03
loop_
_symmetry_equiv_pos_site_id
_symmetry_equiv_pos_as_xyz
  1	'x+.5, y, -z+.5'
  2	'x, -y+.5, z'
  3	'-x+.5, y+.5, z+.5'
  4	'-x, -y, -z'
  5	'-x+.5, -y, z+.5'
  6	'-x, y+.5, -z'
  7	'x+.5, -y+.5, -z+.5'
  8	'x, y, z'
loop_
_atom_type_symbol
_atom_type_oxidation_number
Ca2+	2
F1-	-1
K1+	1
loop_
_atom_site_label
_atom_site_type_symbol
_atom_site_symmetry_multiplicity
_atom_site_Wyckoff_symbol
_atom_site_fract_x
_atom_site_fract_y
_atom_site_fract_z
_atom_site_occupancy
_atom_site_attached_hydrogens
_atom_site_U_iso_or_equiv
K1 K1+ 4 c 0.0297(2) 0.250 0.4937(3) 1. 0 0.0278(4) 
Ca1 Ca2+ 4 a 0 0 0 1. 0 0.0109(2) 
F1 F1- 4 c -0.0200(2) 0.250 0.9285(2) 1. 0 0 
F2 F1- 8 d 0.2910(1) 0.03730(8) 0.2087(1) 1. 0 0 

loop_
_atom_site_aniso_label
_atom_site_aniso_type_symbol
_atom_site_aniso_U_11
_atom_site_aniso_U_22
_atom_site_aniso_U_33
_atom_site_aniso_U_12
_atom_site_aniso_U_13
_atom_site_aniso_U_23
F1 F1- 0.0406(9) 0.0107(7) 0.0314(7) 0.0000 0.0018(7) 0.0000
F2 F1- 0.0213(4) 0.0371(5) 0.0218(4) -0.0043(4) -0.0113(4) 0.0046(4)
#End of data_153629-ICSD


