data_62496-ICSD
#?2014 by Fachinformationszentrum Karlsruhe, and the U.S. Secretary of 
#Commerce on behalf of the United States.  All rights reserved.
_database_code_ICSD                62496
_audit_creation_date               1988/12/19
_audit_update_record               2010/08/01
_chemical_name_systematic          'Calcium Bis(hydogensulfate(VI))'
_chemical_formula_structural       'Ca (H S O4)2'
_chemical_formula_sum              'H2 Ca1 O8 S2'
_publ_section_title                'Kristallstruktur von Ca (H S O4)2'
loop_
_citation_id
_citation_journal_abbrev
_citation_year
_citation_journal_volume
_citation_journal_issue
_citation_page_first
_citation_page_last
_citation_journal_id_ASTM
primary 'Doklady Akademii Nauk SSSR' 1985 283 5 1241 1244 DANKAS
_publ_author_name
;
Troyanov, S.I.;Simonov, M.A.;Kemnitz, E.;Hass, D.;Grunze, B.
;
_cell_length_a                     12.678(3)
_cell_length_b                     6.913(1)
_cell_length_c                     14.043(3)
_cell_angle_alpha                  90.
_cell_angle_beta                   90.
_cell_angle_gamma                  90.
_cell_volume                       1230.77
_cell_formula_units_Z              8
_symmetry_space_group_name_H-M     'P b c a'
_symmetry_Int_Tables_number        61
_refine_ls_R_factor_all            .06
loop_
_symmetry_equiv_pos_site_id
_symmetry_equiv_pos_as_xyz
  1	'x+.5, y, -z+.5'
  2	'x, -y+.5, z+.5'
  3	'-x+.5, y+.5, z'
  4	'-x, -y, -z'
  5	'-x+.5, -y, z+.5'
  6	'-x, y+.5, -z+.5'
  7	'x+.5, -y+.5, -z'
  8	'x, y, z'
loop_
_atom_type_symbol
_atom_type_oxidation_number
Ca2+	2
H1+	1
O2-	-2
S6+	6
loop_
_atom_site_label
_atom_site_type_symbol
_atom_site_symmetry_multiplicity
_atom_site_Wyckoff_symbol
_atom_site_fract_x
_atom_site_fract_y
_atom_site_fract_z
_atom_site_occupancy
_atom_site_attached_hydrogens
_atom_site_B_iso_or_equiv
Ca1 Ca2+ 8 c 0.06349(6) 0.34499(1) 0.18813(6) 1. 0 0.68(1) 
S1 S6+ 8 c 0.36002(7) 0.3375(1) 0.17322(7) 1. 0 0.64(1) 
S2 S6+ 8 c 0.14326(8) 0.1359(1) 0.43475(7) 1. 0 0.75(1) 
O1 O2- 8 c 0.2500(3) 0.3710(5) 0.1908(3) 1. 0 1.42(6) 
O2 O2- 8 c 0.0759(3) 0.0121(5) 0.1834(3) 1. 0 1.38(6) 
O3 O2- 8 c 0.4076(3) 0.1851(5) 0.2322(2) 1. 0 1.15(6) 
O4 O2- 8 c 0.3739(3) 0.2593(6) 0.0710(2) 1. 0 1.68(7) 
O5 O2- 8 c 0.1331(3) 0.3059(5) 0.3617(2) 1. 0 1.25(6) 
O6 O2- 8 c 0.4191(3) 0.4848(5) 0.3935(2) 1. 0 1.31(6) 
O7 O2- 8 c 0.1077(3) 0.2922(6) 0.0253(2) 1. 0 1.35(6) 
O8 O2- 8 c 0.2560(3) 0.0857(5) 0.4381(3) 1. 0 1.35(6) 
H1 H1+ 8 c 0.329 0.331 0.028 1. 0 3.0(6) 
H2 H1+ 8 c 0.176 0.42 0.378 1. 0 3.0(6) 

#End of data_62496-ICSD


