data_15519-ICSD
#?2014 by Fachinformationszentrum Karlsruhe, and the U.S. Secretary of 
#Commerce on behalf of the United States.  All rights reserved.
_database_code_ICSD                15519
_audit_creation_date               1981/12/31
_audit_update_record               2011/02/01
_chemical_name_systematic
;
Tricalcium Tricopper Tetrakis(phosphate(V))
;
_chemical_formula_structural       'Ca3 Cu3 (P O4)4'
_chemical_formula_sum              'Ca3 Cu3 O16 P4'
_publ_section_title
;
The crystal structure of Ca3 Cu3 (P O4)4
;
loop_
_citation_id
_citation_journal_abbrev
_citation_year
_citation_journal_volume
_citation_page_first
_citation_page_last
_citation_journal_id_ASTM
primary 'Journal of Solid State Chemistry' 1981 39 29 34 JSSCBI
_publ_author_name
;
Anderson, J.B.;Kostiner, E.;Ruszala, F.A.
;
_cell_length_a                     17.619(2)
_cell_length_b                     4.8995(4)
_cell_length_c                     8.917(1)
_cell_angle_alpha                  90.
_cell_angle_beta                   124.08(1)
_cell_angle_gamma                  90.
_cell_volume                       637.55
_cell_formula_units_Z              2
_symmetry_space_group_name_H-M     'P 1 21/a 1'
_symmetry_Int_Tables_number        14
_refine_ls_R_factor_all            .037
loop_
_symmetry_equiv_pos_site_id
_symmetry_equiv_pos_as_xyz
  1	'x+.5, -y+.5, z'
  2	'-x, -y, -z'
  3	'-x+.5, y+.5, -z'
  4	'x, y, z'
loop_
_atom_type_symbol
_atom_type_oxidation_number
Ca2+	2
Cu2+	2
O2-	-2
P5+	5
loop_
_atom_site_label
_atom_site_type_symbol
_atom_site_symmetry_multiplicity
_atom_site_Wyckoff_symbol
_atom_site_fract_x
_atom_site_fract_y
_atom_site_fract_z
_atom_site_occupancy
_atom_site_attached_hydrogens
Cu1 Cu2+ 2 a 0 0 0 1. 0 
Cu2 Cu2+ 4 e 0.1199(1) 0.4754(1) 0.9431(1) 1. 0 
Ca1 Ca2+ 2 b 0.5 0 0.5 1. 0 
Ca2 Ca2+ 4 e 0.2645(1) 0.4621(2) 0.7244(2) 1. 0 
P1 P5+ 4 e 0.5939(1) -.0083(3) 0.2498(2) 1. 0 
P2 P5+ 4 e 0.8406(1) 0.0148(3) 0.2158(1) 1. 0 
O1 O2- 4 e 0.6799(3) -.0946(8) 0.4234(6) 1. 0 
O2 O2- 4 e 0.0087(3) 0.5496(9) 0.2531(6) 1. 0 
O3 O2- 4 e 0.6001(3) 0.2883(8) 0.1993(6) 1. 0 
O4 O2- 4 e 0.5824(3) -.1926(8) 0.0935(5) 1. 0 
O5 O2- 4 e 0.8983(3) -.1449(9) 0.3888(6) 1. 0 
O6 O2- 4 e 0.8543(3) -.0725(8) 0.0660(6) 1. 0 
O7 O2- 4 e 0.3571(3) 0.1733(8) 0.2458(6) 1. 0 
O8 O2- 4 e 0.7399(3) -.0380(9) 0.1529(6) 1. 0 

loop_
_atom_site_aniso_label
_atom_site_aniso_type_symbol
_atom_site_aniso_B_11
_atom_site_aniso_B_22
_atom_site_aniso_B_33
_atom_site_aniso_B_12
_atom_site_aniso_B_13
_atom_site_aniso_B_23
Cu1 Cu2+ 0.62(5) 0.47(4) 0.86(4) 0 0.28(4) 0
Cu2 Cu2+ 0.59(3) 0.95(3) 0.78(3) 0.07(2) 0.38(3) -.10(2)
Ca1 Ca2+ 0.76(7) 1.26(6) 0.61(6) 0 0.41(6) 0
Ca2 Ca2+ 0.77(5) 1.03(4) 0.89(5) 0.07(4) 0.47(5) 0.25(4)
P1 P5+ 0.60(6) 0.54(5) 0.66(6) 0.06(4) 0.43(5) 0.04(4)
P2 P5+ 0.62(6) 0.46(5) 0.76(6) -.01(4) 0.43(6) -.01(4)
O1 O2- 0.76(19) 1.00(15) 0.98(17) 0.04(13) 0.52(17) 0.09(13)
O2 O2- 0.61(18) 1.27(16) 0.78(16) 0.13(13) 0.47(16) 0.07(13)
O3 O2- 0.82(18) 0.52(14) 1.06(18) 0.01(12) 0.59(16) 0.07(12)
O4 O2- 0.68(18) 0.82(15) 0.79(17) -.18(13) 0.56(16) -.11(12)
O5 O2- 1.47(21) 1.14(16) 1.00(18) 0.67(14) 0.65(18) 0.36(14)
O6 O2- 1.02(19) 0.72(14) 1.10(17) 0.17(13) 0.71(17) 0.00(13)
O7 O2- 0.89(19) 0.57(14) 1.16(18) 0.16(12) 0.66(17) 0.07(12)
O8 O2- 0.41(18) 1.37(16) 1.14(17) -.24(14) 0.33(16) 0.24(14)
#End of data_15519-ICSD


