data_250000-ICSD
#?2014 by Fachinformationszentrum Karlsruhe, and the U.S. Secretary of 
#Commerce on behalf of the United States.  All rights reserved.
_database_code_ICSD                250000
_audit_creation_date               2003/10/01
_chemical_name_systematic          'Disodium Trititanate'
_chemical_formula_structural       'Na2 (Ti3 O7)'
_chemical_formula_sum              'Na2 O7 Ti3'
_publ_section_title
;
Refinement of the crystal structure of Na2 Ti3 O7
;
loop_
_citation_id
_citation_journal_abbrev
_citation_year
_citation_journal_volume
_citation_page_first
_citation_page_last
_citation_journal_id_ASTM
primary Kristallografiya 2003 48 29 33 KRISAJ
2 'Crystallography Reports' 2003 48 24 28 CYSTE3
_publ_author_name                  'Yakubovich, O.V.;Kireev, V.V.'
_cell_length_a                     9.133(2)
_cell_length_b                     3.806(1)
_cell_length_c                     8.566(2)
_cell_angle_alpha                  90.
_cell_angle_beta                   101.57(3)
_cell_angle_gamma                  90.
_cell_volume                       291.71
_cell_formula_units_Z              2
_symmetry_space_group_name_H-M     'P 1 21/m 1'
_symmetry_Int_Tables_number        11
_refine_ls_R_factor_all            .035
loop_
_symmetry_equiv_pos_site_id
_symmetry_equiv_pos_as_xyz
  1	'x, -y+.5, z'
  2	'-x, -y, -z'
  3	'-x, y+.5, -z'
  4	'x, y, z'
loop_
_atom_type_symbol
_atom_type_oxidation_number
Na1+	1
O2-	-2
Ti4+	4
loop_
_atom_site_label
_atom_site_type_symbol
_atom_site_symmetry_multiplicity
_atom_site_Wyckoff_symbol
_atom_site_fract_x
_atom_site_fract_y
_atom_site_fract_z
_atom_site_occupancy
_atom_site_attached_hydrogens
_atom_site_U_iso_or_equiv
Ti1 Ti4+ 2 e 0.98502(7) 0.25 0.14606(7) 1. 0 0.0043(1) 
Ti2 Ti4+ 2 e 0.67593(7) 0.25 0.24887(7) 1. 0 0.0051(1) 
Ti3 Ti4+ 2 e 0.28030(7) 0.25 0.02857(7) 1. 0 0.0046(1) 
Na1 Na1+ 2 e 0.5929(3) 0.25 0.6830(2) 1. 0 0.0253(5) 
Na2 Na1+ 2 e 0.1553(2) 0.25 0.4999(2) 1. 0 0.0167(4) 
O1 O2- 2 e 0.1865(3) 0.25 0.2188(3) 1. 0 0.0067(4) 
O2 O2- 2 e 0.4612(3) 0.25 0.1465(3) 1. 0 0.0088(5) 
O3 O2- 2 e 0.6510(3) 0.25 0.4413(3) 1. 0 0.0133(5) 
O4 O2- 2 e 0.9081(3) 0.25 0.3246(3) 1. 0 0.0068(4) 
O5 O2- 2 e 0.7532(3) 0.25 0.0161(3) 1. 0 0.0053(4) 
O6 O2- 2 e 0.3182(3) 0.25 0.8035(3) 1. 0 0.0066(4) 
O7 O2- 2 e 0.0440(3) 0.25 0.9152(3) 1. 0 0.0046(4) 

#End of data_250000-ICSD


