data_410881-ICSD
#?2014 by Fachinformationszentrum Karlsruhe, and the U.S. Secretary of 
#Commerce on behalf of the United States.  All rights reserved.
_database_code_ICSD                410881
_audit_creation_date               2002/04/01
_chemical_name_systematic          'Zinc Iodate(V) Dihydrate'
_chemical_formula_structural       'Zn (I O3)2 (H2 O)2'
_chemical_formula_sum              'H4 I2 O8 Zn1'
_publ_section_title
;
Zinciodate - Schwingungsspektren (IR, Raman) und Kristallstruktur von 
Zn (I O3)2 x 2(H2 O)
;
loop_
_citation_id
_citation_journal_abbrev
_citation_year
_citation_journal_volume
_citation_page_first
_citation_page_last
_citation_journal_id_ASTM
primary 'Zeitschrift fuer Anorganische und Allgemeine Chemie (1950) (DE)'
 2000 626 208 215 ZAACAB
_publ_author_name
;
Peter, S.;Lutz, H.D.;Pracht, G.;Lange, N.
;
_cell_length_a                     4.9060(4)
_cell_length_b                     6.6731(5)
_cell_length_c                     10.8885(9)
_cell_angle_alpha                  98.855(6)
_cell_angle_beta                   91.119(7)
_cell_angle_gamma                  92.841(6)
_cell_volume                       351.66
_cell_formula_units_Z              2
_symmetry_space_group_name_H-M     'P -1'
_symmetry_Int_Tables_number        2
_refine_ls_R_factor_all            .0256
loop_
_symmetry_equiv_pos_site_id
_symmetry_equiv_pos_as_xyz
  1	'-x, -y, -z'
  2	'x, y, z'
loop_
_atom_type_symbol
_atom_type_oxidation_number
H1+	1
I5+	5
O2-	-2
Zn2+	2
loop_
_atom_site_label
_atom_site_type_symbol
_atom_site_symmetry_multiplicity
_atom_site_Wyckoff_symbol
_atom_site_fract_x
_atom_site_fract_y
_atom_site_fract_z
_atom_site_occupancy
_atom_site_attached_hydrogens
_atom_site_U_iso_or_equiv
Zn2 Zn2+ 1 a 0 0 0 1. 0 0 
Zn1 Zn2+ 1 b 0 0 0.5 1. 0 0 
I1 I5+ 2 i -.35876(4) 0.22404(3) -.22837(2) 1. 0 0 
I2 I5+ 2 i 0.10879(4) -.29129(3) -.27070(2) 1. 0 0 
O1 O2- 2 i -.2026(7) 0.2093(5) -.3776(3) 1. 0 0 
O2 O2- 2 i -.2044(6) 0.0148(4) -.1685(3) 1. 0 0 
O3 O2- 2 i -.1510(7) 0.4314(4) -.1439(3) 1. 0 0 
O4 O2- 2 i 0.2554(6) -.0944(4) -.3536(3) 1. 0 0 
O5 O2- 2 i 0.2386(6) -.2002(4) -.1140(3) 1. 0 0 
O6 O2- 2 i 0.3528(6) -.4784(4) -.3174(3) 1. 0 0 
O7 O2- 2 i 0.2675(6) 0.2370(4) 0.4788(3) 1. 0 0 
O8 O2- 2 i 0.2992(7) 0.2377(5) -.0160(3) 1. 0 0 
H1 H1+ 2 i 0.434(16) 0.221(11) 0.4592(71) 1. 0 0.03 
H2 H1+ 2 i 0.303(15) 0.331(12) 0.5401(72) 1. 0 0.03 
H3 H1+ 2 i 0.217(16) 0.324(13) 0.0016(72) 1. 0 0.03 
H4 H1+ 2 i 0.392(17) 0.216(12) 0.0339(73) 1. 0 0.03 

loop_
_atom_site_aniso_label
_atom_site_aniso_type_symbol
_atom_site_aniso_U_11
_atom_site_aniso_U_22
_atom_site_aniso_U_33
_atom_site_aniso_U_12
_atom_site_aniso_U_13
_atom_site_aniso_U_23
Zn2 Zn2+ 0.0142(3) 0.0177(3) 0.0137(3) 0.0011(2) 0.0007(2) -.0005(2)
Zn1 Zn2+ 0.0136(2) 0.0140(2) 0.0164(3) 0.0011(2) 0.0012(2) 0.0021(2)
I1 I5+ 0.01143(11) 0.01105(10) 0.01311(14) 0.00168(6) 0.00060(7) 0.00107(7)
I2 I5+ 0.01111(11) 0.0118(1) 0.01251(13) 0.00070(6) -.00041(7) 0.00114(7)
O1 O2- 0.0220(13) 0.0205(12) 0.0157(13) 0.006(1) 0.0069(10) 0.0028(10)
O2 O2- 0.0198(12) 0.0153(10) 0.0175(13) 0.0039(9) -.0031(10) 0.0028(10)
O3 O2- 0.0233(14) 0.0152(11) 0.0209(15) -.0052(9) -.0030(11) -.0031(10)
O4 O2- 0.0147(11) 0.016(1) 0.0175(13) -.0008(8) 0.0005(9) 0.0043(9)
O5 O2- 0.0152(11) 0.0198(11) 0.0152(13) 0.0042(9) -.0010(9) -.0009(10)
O6 O2- 0.0198(13) 0.0173(11) 0.0225(15) 0.0073(9) 0.0008(11) -.0013(10)
O7 O2- 0.0133(11) 0.0187(12) 0.022(2) -.0017(9) -.0001(10) 0.0008(11)
O8 O2- 0.0166(12) 0.0174(11) 0.0218(15) 0.0028(9) 0.0007(10) 0.0035(10)
#End of data_410881-ICSD


