data_200201-ICSD
#?2014 by Fachinformationszentrum Karlsruhe, and the U.S. Secretary of 
#Commerce on behalf of the United States.  All rights reserved.
_database_code_ICSD                200201
_audit_creation_date               1986/08/05
_audit_update_record               2006/04/01
_chemical_name_systematic          'Tripotassium Hexacyanoferrate(III)'
_chemical_formula_structural       'K3 (Fe (C N)6)'
_chemical_formula_sum              'C6 Fe1 K3 N6'
_publ_section_title
;
Crystal structures of the simple monoclinic and orthorhombic 
polytypes of tripotassium hexacyanoferrate(III)
;
loop_
_citation_id
_citation_journal_abbrev
_citation_year
_citation_journal_volume
_citation_page_first
_citation_page_last
_citation_journal_id_ASTM
primary 'Australian Journal of Chemistry' 1978 31 1195 1199 AJCHAS
2 'Phase Transition' 1992 38 127 220 PHTRDP
_publ_author_name
;
Figgis, B.N.;Skelton, B.W.;White, A.H.
;
_cell_length_a                     13.422(6)
_cell_length_b                     10.399(4)
_cell_length_c                     8.381(4)
_cell_angle_alpha                  90.
_cell_angle_beta                   90.
_cell_angle_gamma                  90.
_cell_volume                       1169.78
_cell_formula_units_Z              4
_symmetry_space_group_name_H-M     'P n c a'
_symmetry_Int_Tables_number        60
_refine_ls_R_factor_all            .046
loop_
_symmetry_equiv_pos_site_id
_symmetry_equiv_pos_as_xyz
  1	'x+.5, y, -z'
  2	'x, -y+.5, z+.5'
  3	'-x+.5, y+.5, z+.5'
  4	'-x, -y, -z'
  5	'-x+.5, -y, z'
  6	'-x, y+.5, -z+.5'
  7	'x+.5, -y+.5, -z+.5'
  8	'x, y, z'
loop_
_atom_type_symbol
_atom_type_oxidation_number
C2+	2
Fe3+	3
K1+	1
N3-	-3
loop_
_atom_site_label
_atom_site_type_symbol
_atom_site_symmetry_multiplicity
_atom_site_Wyckoff_symbol
_atom_site_fract_x
_atom_site_fract_y
_atom_site_fract_z
_atom_site_occupancy
_atom_site_attached_hydrogens
K1 K1+ 8 d 0.5013(1) -.2698(1) 0.1259(5) 1. 0 
K2 K1+ 4 c 0.25 -.5 0.1265(5) 1. 0 
Fe1 Fe3+ 4 c 0.25 0 0.1232(23) 1. 0 
C1 C2+ 8 d 0.3110(4) 0.1686(5) 0.1238(9) 1. 0 
N1 N3- 8 d 0.3490(4) 0.2669(4) 0.1202(22) 1. 0 
C2 C2+ 8 d 0.3431(5) -.0525(6) 0.2872(7) 1. 0 
N2 N3- 8 d 0.3973(4) -.0832(6) 0.3857(15) 1. 0 
C3 C2+ 8 d 0.3448(5) -.0544(6) -.0372(7) 1. 0 
N3 N3- 8 d 0.3992(4) -.0877(6) -.1357(15) 1. 0 

loop_
_atom_site_aniso_label
_atom_site_aniso_type_symbol
_atom_site_aniso_U_11
_atom_site_aniso_U_22
_atom_site_aniso_U_33
_atom_site_aniso_U_12
_atom_site_aniso_U_13
_atom_site_aniso_U_23
K1 K1+ 0.0328(6) 0.0641(10) 0.0242(5) 0.0069(6) -0.0012(12) 0.0043(12)
K2 K1+ 0.0356(9) 0.0324(8) 0.0241(7) -0.0048(7) 0 0
Fe1 Fe3+ 0.0210(4) 0.0214(5) 0.0170(4) 0.0013(4) 0 0
C1 C2+ 0.022(2) 0.028(2) 0.026(2) 0.003(2) -0.003(2) -0.002(3)
N1 N3- 0.031(2) 0.032(2) 0.039(3) -0.003(2) 0.007(5) 0.007(5)
C2 C2+ 0.026(3) 0.035(3) 0.021(3) -0.003(3) 0.004(2) 0.001(2)
N2 N3- 0.037(3) 0.058(3) 0.030(3) 0.010(3) 0.005(4) 0.001(5)
C3 C2+ 0.028(3) 0.029(3) 0.023(3) 0.006(3) 0.000(3) 0.000(2)
N3 N3- 0.038(3) 0.057(3) 0.030(3) 0.008(3) 0.011(4) -0.001(5)
#End of data_200201-ICSD


