data_35136-ICSD
#?2014 by Fachinformationszentrum Karlsruhe, and the U.S. Secretary of 
#Commerce on behalf of the United States.  All rights reserved.
_database_code_ICSD                35136
_audit_creation_date               1982/12/31
_chemical_name_systematic          'Barium Dialuminium Sulfide'
_chemical_formula_structural       'Ba Al2 S4'
_chemical_formula_sum              'Al2 Ba1 S4'
_publ_section_title
;
Die Strukturen von Ba Ga2 S4 und Ba Al2 S4
;
loop_
_citation_id
_citation_journal_abbrev
_citation_year
_citation_journal_volume
_citation_page_first
_citation_page_last
_citation_journal_id_ASTM
primary 'Materials Research Bulletin' 1982 17 1169 1175 MRBUAC
_publ_author_name
;
Eisenmann, B.;Jakowski, M.;Schaefer, H.
;
_cell_length_a                     12.650(7)
_cell_length_b                     12.650(7)
_cell_length_c                     12.650(7)
_cell_angle_alpha                  90.
_cell_angle_beta                   90.
_cell_angle_gamma                  90.
_cell_volume                       2024.28
_cell_formula_units_Z              12
_symmetry_space_group_name_H-M     'P a -3'
_symmetry_Int_Tables_number        205
_refine_ls_R_factor_all            .112
loop_
_symmetry_equiv_pos_site_id
_symmetry_equiv_pos_as_xyz
  1	'-z+.5, x+.5, y'
  2	'z+.5, x, -y+.5'
  3	'z, -x+.5, y+.5'
  4	'-z, -x, -y'
  5	'y, -z+.5, x+.5'
  6	'-y+.5, z+.5, x'
  7	'y+.5, z, -x+.5'
  8	'-y, -z, -x'
  9	'x+.5, y, -z+.5'
 10	'x, -y+.5, z+.5'
 11	'-x+.5, y+.5, z'
 12	'-x, -y, -z'
 13	'z+.5, -x+.5, -y'
 14	'-z+.5, -x, y+.5'
 15	'-z, x+.5, -y+.5'
 16	'z, x, y'
 17	'-y, z+.5, -x+.5'
 18	'y+.5, -z+.5, -x'
 19	'-y+.5, -z, x+.5'
 20	'y, z, x'
 21	'-x+.5, -y, z+.5'
 22	'-x, y+.5, -z+.5'
 23	'x+.5, -y+.5, -z'
 24	'x, y, z'
loop_
_atom_type_symbol
_atom_type_oxidation_number
Al3+	3
Ba2+	2
S2-	-2
loop_
_atom_site_label
_atom_site_type_symbol
_atom_site_symmetry_multiplicity
_atom_site_Wyckoff_symbol
_atom_site_fract_x
_atom_site_fract_y
_atom_site_fract_z
_atom_site_occupancy
_atom_site_attached_hydrogens
_atom_site_U_iso_or_equiv
Ba1 Ba2+ 4 a 0 0 0 1. 0 0 
Ba2 Ba2+ 8 c 0.3736(3) 0.3736(3) 0.3736(3) 1. 0 0 
Al1 Al3+ 24 d 0.1966(13) 0.3571(14) 0.1253(14) 1. 0 0.0677(51) 
S1 S2- 24 d 0.3599(11) 0.2899(11) 0.1299(12) 1. 0 0.0679(42) 
S2 S2- 24 d 0.2263(12) 0.5270(11) 0.0797(11) 1. 0 0.0685(44) 

loop_
_atom_site_aniso_label
_atom_site_aniso_type_symbol
_atom_site_aniso_U_11
_atom_site_aniso_U_22
_atom_site_aniso_U_33
_atom_site_aniso_U_12
_atom_site_aniso_U_13
_atom_site_aniso_U_23
Ba1 Ba2+ 0.0866(37) 0.0866(37) 0.0866(37) -.0188(85) -.0188(85) -.0188(85)
Ba2 Ba2+ 0.0786(25) 0.0786(25) 0.0786(25) -.0066(21) -.0066(21) -.0066(21)
#End of data_35136-ICSD


