data_91551-ICSD
#?2014 by Fachinformationszentrum Karlsruhe, and the U.S. Secretary of 
#Commerce on behalf of the United States.  All rights reserved.
_database_code_ICSD                91551
_audit_creation_date               2002/10/01
_audit_update_record               2009/02/01
_chemical_name_systematic          'Copper Alumoarsenate(V)'
_chemical_formula_structural       'Cu (Al As O5)'
_chemical_formula_sum              'Al1 As1 Cu1 O5'
_chemical_name_mineral             Urusovite
_publ_section_title
;
Crystal structure of urusovite Cu (Al As O5): a new type of an 
aluminoarsenate tetrahedral polyanion
;
loop_
_citation_id
_citation_journal_abbrev
_citation_year
_citation_journal_volume
_citation_journal_issue
_citation_page_first
_citation_page_last
_citation_journal_id_ASTM
primary Kristallografiya 2000 45 5 793 797 KRISAJ
2 'Crystallography Reports' 2000 45- 723 727 CYSTE3
_publ_author_name
;
Krivovichev, S.V.;Molchanov, A.V.;Filatov, S.K.
;
_cell_length_a                     7.335(1)
_cell_length_b                     10.255(1)
_cell_length_c                     5.599(1)
_cell_angle_alpha                  90.
_cell_angle_beta                   99.79(1)
_cell_angle_gamma                  90.
_cell_volume                       415.03
_cell_formula_units_Z              4
_symmetry_space_group_name_H-M     'P 1 21/c 1'
_symmetry_Int_Tables_number        14
_refine_ls_R_factor_all            .048
loop_
_symmetry_equiv_pos_site_id
_symmetry_equiv_pos_as_xyz
  1	'x, -y+.5, z+.5'
  2	'-x, -y, -z'
  3	'-x, y+.5, -z+.5'
  4	'x, y, z'
loop_
_atom_type_symbol
_atom_type_oxidation_number
Al3+	3
As5+	5
Cu2+	2
O2-	-2
loop_
_atom_site_label
_atom_site_type_symbol
_atom_site_symmetry_multiplicity
_atom_site_Wyckoff_symbol
_atom_site_fract_x
_atom_site_fract_y
_atom_site_fract_z
_atom_site_occupancy
_atom_site_attached_hydrogens
_atom_site_U_iso_or_equiv
Cu1 Cu2+ 4 e 0.4618(1) 0.14033(8) 0.9095(1) 1. 0 0.0102(2) 
Al1 Al3+ 4 e 0.1455(3) 0.1770(2) 0.4355(4) 1. 0 0.0080(4) 
As1 As5+ 4 e 0.7257(1) 0.10839(6) 0.4261(1) 1. 0 0.0082(1) 
O1 O2- 4 e 0.6231(8) 0.0407(4) 0.1596(8) 1. 0 0.013(1) 
O2 O2- 4 e 0.9041(7) 0.1996(5) 0.3745(8) 1. 0 0.0123(9) 
O3 O2- 4 e 0.5707(7) 0.1946(5) 0.5470(9) 1. 0 0.0110(9) 
O4 O2- 4 e 0.2354(7) 0.2223(5) 0.7328(8) 1. 0 0.0101(9) 
O5 O2- 4 e 0.1984(8) 0.0136(5) 0.3844(9) 1. 0 0.013(1) 

#End of data_91551-ICSD


