data_419259-ICSD
#?2014 by Fachinformationszentrum Karlsruhe, and the U.S. Secretary of 
#Commerce on behalf of the United States.  All rights reserved.
_database_code_ICSD                419259
_audit_creation_date               2009/02/01
_chemical_name_systematic
;
Potassium Sulfitochloromercurate(II) Mercury(II) Dichloride
;
_chemical_formula_structural       'K (Hg S O3 Cl) (Hg Cl2)'
_chemical_formula_sum              'Cl3 Hg2 K1 O3 S1'
_publ_section_title
;
Structural studies of new sulfito mercurates(II) with general formula 
xM [X Hg S O3] * y Hg X2 * z M X * n H2O (M = NH4, K; X = Cl, Br)
;
loop_
_citation_id
_citation_journal_abbrev
_citation_year
_citation_journal_volume
_citation_journal_issue
_citation_page_first
_citation_page_last
_citation_journal_id_ASTM
primary 'Zeitschrift fuer Anorganische und Allgemeine Chemie (1950) (DE)'
 2008 634 10 1742 1748 ZAACAB
_publ_author_name
;
Weil, M.;Baumann, S.;Breitinger, D.K.
;
_cell_length_a                     5.9313(5)
_cell_length_b                     21.7464(18)
_cell_length_c                     6.7899(6)
_cell_angle_alpha                  90.00
_cell_angle_beta                   90.00
_cell_angle_gamma                  90.00
_cell_volume                       875.79
_cell_formula_units_Z              4
_symmetry_space_group_name_H-M     'C m c 21'
_symmetry_Int_Tables_number        36
_refine_ls_R_factor_all            .0199
loop_
_symmetry_equiv_pos_site_id
_symmetry_equiv_pos_as_xyz
  1	'x, -y, z+.5'
  2	'-x, -y, z+.5'
  3	'-x, y, z'
  4	'x, y, z'
  5	'x+.5, -y+.5, z+.5'
  6	'-x+.5, -y+.5, z+.5'
  7	'-x+.5, y+.5, z'
  8	'x+.5, y+.5, z'
loop_
_atom_type_symbol
_atom_type_oxidation_number
Cl1-	-1
Hg2+	2
K1+	1
O2-	-2
S4+	4
loop_
_atom_site_label
_atom_site_type_symbol
_atom_site_symmetry_multiplicity
_atom_site_Wyckoff_symbol
_atom_site_fract_x
_atom_site_fract_y
_atom_site_fract_z
_atom_site_occupancy
_atom_site_attached_hydrogens
_atom_site_U_iso_or_equiv
Hg1 Hg2+ 4 a 0.0000 0.559861(12) 0.22763(3) 1 0 0.02649(8) 
Hg2 Hg2+ 4 a 0.5000 0.600541(14) 0.84557(5) 1 0 0.02883(8) 
K1 K1+ 4 a 0.5000 0.76168(9) 0.1987(2) 1 0 0.0327(4) 
S1 S4+ 4 a 0.0000 0.66592(8) 0.1507(2) 1 0 0.0201(3) 
O1 O2- 8 b -0.2018(6) 0.67628(18) 0.0323(6) 1 0 0.0306(8) 
O2 O2- 4 a 0.0000 0.7028(3) 0.3289(9) 1 0 0.0409(14) 
Cl1 Cl1- 4 a 0.0000 0.45198(8) 0.2588(3) 1 0 0.0324(4) 
Cl2 Cl1- 4 a 0.5000 0.53798(10) 1.1195(3) 1 0 0.0364(5) 
Cl3 Cl1- 4 a 0.5000 0.65356(13) 0.5559(3) 1 0 0.0538(7) 

loop_
_atom_site_aniso_label
_atom_site_aniso_type_symbol
_atom_site_aniso_U_11
_atom_site_aniso_U_22
_atom_site_aniso_U_33
_atom_site_aniso_U_12
_atom_site_aniso_U_13
_atom_site_aniso_U_23
Hg1 Hg2+ 0.02756(15) 0.01814(13) 0.03376(14) 0.000 0.000 0.00695(11)
Hg2 Hg2+ 0.03000(16) 0.02606(15) 0.03042(13) 0.000 0.000 0.00450(12)
K1 K1+ 0.0424(10) 0.0332(9) 0.0226(8) 0.000 0.000 -0.0041(6)
S1 S4+ 0.0242(9) 0.0162(7) 0.0198(7) 0.000 0.000 -0.0004(6)
O1 O2- 0.0304(19) 0.0188(18) 0.0427(19) -0.0013(16) -0.0094(19) 0.0057(14)
O2 O2- 0.065(4) 0.031(3) 0.027(3) 0.000 0.000 -0.011(2)
Cl1 Cl1- 0.0275(9) 0.0209(8) 0.0489(11) 0.000 0.000 0.0114(8)
Cl2 Cl1- 0.0249(10) 0.0364(11) 0.0479(11) 0.000 0.000 0.0178(9)
Cl3 Cl1- 0.0772(18) 0.0491(15) 0.0350(10) 0.000 0.000 0.0165(9)
#End of data_419259-ICSD


