data_85711-ICSD
#?2014 by Fachinformationszentrum Karlsruhe, and the U.S. Secretary of 
#Commerce on behalf of the United States.  All rights reserved.
_database_code_ICSD                85711
_audit_creation_date               1999/11/30
_audit_update_record               2003/04/01
_chemical_name_systematic
;
Dipotassium Tris(phosphato(V))fluorotricuprozincate
;
_chemical_formula_structural       'K2 (Cu3 Zn F (P O4)3)'
_chemical_formula_sum              'Cu3 F1 K2 O12 P3 Zn1'
_publ_section_title
;
The crystal structure of K2 (Cu3 Zn F (P O4)3), a new mixed zinc 
copper phosphate
;
loop_
_citation_id
_citation_journal_abbrev
_citation_year
_citation_journal_volume
_citation_page_first
_citation_page_last
_citation_journal_id_ASTM
primary 'European Journal of Solid State Inorganic Chemistry'
 1998 35 133 141 EJSCE5
_publ_author_name
;
Massa, W.;Yakubovich, O.V.;Karimova, O.V.;Dem'yanets, L.N.
;
_cell_length_a                     4.8890(2)
_cell_length_b                     14.3857(5)
_cell_length_c                     7.9017(3)
_cell_angle_alpha                  90.
_cell_angle_beta                   90.134(4)
_cell_angle_gamma                  90.
_cell_volume                       555.74
_cell_formula_units_Z              2
_symmetry_space_group_name_H-M     'P 1 21/m 1'
_symmetry_Int_Tables_number        11
_refine_ls_R_factor_all            .045
loop_
_symmetry_equiv_pos_site_id
_symmetry_equiv_pos_as_xyz
  1	'x, -y+.5, z'
  2	'-x, -y, -z'
  3	'-x, y+.5, -z'
  4	'x, y, z'
loop_
_atom_type_symbol
_atom_type_oxidation_number
Cu2+	2
F1-	-1
K1+	1
O2-	-2
P5+	5
Zn2+	2
loop_
_atom_site_label
_atom_site_type_symbol
_atom_site_symmetry_multiplicity
_atom_site_Wyckoff_symbol
_atom_site_fract_x
_atom_site_fract_y
_atom_site_fract_z
_atom_site_occupancy
_atom_site_attached_hydrogens
_atom_site_U_iso_or_equiv
Cu1 Cu2+ 4 f 0.0582(2) 0.36190(5) 0.64524(9) 1. 0 0.0195(4) 
Cu2 Cu2+ 2 d 0.5 0.5 0.5 1. 0 0.0192(4) 
Zn1 Zn2+ 2 e 0.0297(2) 0.25 0.0459(1) 1. 0 0.0184(4) 
K1 K1+ 2 e 0.4534(3) 0.75 0.6405(2) 1. 0 0.0234(5) 
K2 K1+ 2 b 0.5 0.5 0 1. 0 0.0454(7) 
P1 P5+ 4 f 0.0027(2) 0.43326(9) 0.2941(2) 1. 0 0.0164(4) 
P2 P5+ 2 e 0.5237(3) 0.25 0.8174(2) 1. 0 0.0169(5) 
F1 F1- 2 e 0.0513(9) 0.25 0.5108(6) 1. 0 0.0224(10) 
O1 O2- 4 f 0.8289(7) 0.4211(2) 0.4589(4) 1. 0 0.0165(8) 
O2 O2- 4 f -.0549(8) 0.5292(3) 0.2189(5) 1. 0 0.0227(8) 
O3 O2- 4 f 0.4341(7) 0.3378(3) 0.7226(5) 1. 0 0.0264(9) 
O4 O2- 4 f 0.3066(7) 0.4229(3) 0.3423(4) 1. 0 0.0212(8) 
O5 O2- 2 e 0.4163(10) 0.25 0.9997(7) 1. 0 0.0299(14) 
O6 O2- 4 f -.0818(8) 0.3599(2) 0.1664(5) 1. 0 0.0204(8) 
O7 O2- 2 e 0.8432(9) 0.25 0.8253(6) 1. 0 0.0203(11) 

#End of data_85711-ICSD


