data_187001-ICSD
#?2014 by Fachinformationszentrum Karlsruhe, and the U.S. Secretary of 
#Commerce on behalf of the United States.  All rights reserved.
_database_code_ICSD                187001
_audit_creation_date               2013/08/01
_chemical_name_systematic          'Potassium Yttrium Tetrafluoride'
_chemical_formula_structural       'K Y F4'
_chemical_formula_sum              'F4 K1 Y1'
_publ_section_title
;
Crystal structures and stability of trigonal K Ln F4 fluorides (Ln = 
Y, Ho, Er, Tm, Yb)
;
loop_
_citation_id
_citation_journal_abbrev
_citation_year
_citation_journal_volume
_citation_journal_issue
_citation_page_first
_citation_page_last
_citation_journal_id_ASTM
primary 'Dalton Transactions' 2013 42 2 441 447 DTARAF
_publ_author_name
;
Grzechnik, Andrzej;Khaidukov, Nicholas;Friese, Karen
;
_cell_length_a                     14.1630(10)
_cell_length_b                     14.1630(10)
_cell_length_c                     10.1900(10)
_cell_angle_alpha                  90
_cell_angle_beta                   90
_cell_angle_gamma                  120
_cell_volume                       1770.17
_cell_formula_units_Z              18
_symmetry_space_group_name_H-M     'P 32'
_symmetry_Int_Tables_number        145
_refine_ls_R_factor_all            .0306
loop_
_symmetry_equiv_pos_site_id
_symmetry_equiv_pos_as_xyz
  1	'-x+y, -x, z+.3333'
  2	'-y, x-y, z+.6667'
  3	'x, y, z'
loop_
_atom_type_symbol
_atom_type_oxidation_number
F1-	-1
K1+	1
Y3+	3
loop_
_atom_site_label
_atom_site_type_symbol
_atom_site_symmetry_multiplicity
_atom_site_Wyckoff_symbol
_atom_site_fract_x
_atom_site_fract_y
_atom_site_fract_z
_atom_site_occupancy
_atom_site_attached_hydrogens
_atom_site_U_iso_or_equiv
Y1 Y3+ 3 a 0.13055(3) 0.89040(3) 0.66619(4) 1 0 0.00575(7) 
Y2 Y3+ 3 a 0.28078(4) 0.73037(4) 0.67411(5) 1 0 0.00745(10) 
Y3 Y3+ 3 a 0.78105(4) 0.20748(4) 0.65710(4) 1 0 0.00633(8) 
Y4 Y3+ 3 a 0.94103(4) 0.05768(4) 0.66979(6) 1 0 0.00663(8) 
Y5 Y3+ 3 a 0.45274(4) 0.54494(5) 0.67143(4) 1 0 0.00674(8) 
Y6 Y3+ 3 a 0.60289(3) 0.38552(4) 0.65198(3) 1 0 0.00522(7) 
K1 K1+ 3 a 0.26672(10) 0.21929(11) 0.64643(12) 1 0 0.0158(3) 
K2 K1+ 3 a 0.78083(12) 0.71936(12) 0.67589(13) 1 0 0.0202(4) 
K3 K1+ 3 a 0.61130(12) 0.87785(10) 0.65016(11) 1 0 0.0180(3) 
K4 K1+ 3 a 0.10466(11) 0.39538(12) 0.67984(12) 1 0 0.0167(3) 
K5 K1+ 3 a 0.45608(9) 0.06437(9) 0.68040(11) 1 0 0.0151(3) 
K6 K1+ 3 a 0.94765(11) 0.56221(12) 0.65014(11) 1 0 0.0182(3) 
F1 F1- 3 a 0.1309(2) 0.9354(2) 0.8839(2) 1 0 0.0152(5) 
F2 F1- 3 a 0.0702(2) 0.8784(2) 0.4569(2) 1 0 0.0176(6) 
F3 F1- 3 a 0.20735(19) 0.59552(19) 0.5238(3) 1 0 0.0199(3) 
F4 F1- 3 a 0.3388(3) 0.72858(17) 0.3409(3) 1 0 0.0296(4) 
F5 F1- 3 a 0.7377(2) 0.2036(2) 0.4403(3) 1 0 0.0176(6) 
F6 F1- 3 a 0.78924(19) 0.2701(2) 0.8667(3) 1 0 0.0152(5) 
F7 F1- 3 a -0.0014(3) 0.05974(17) 0.3346(3) 1 0 0.0296(4) 
F8 F1- 3 a 0.0761(2) -0.04768(18) 1.1866(3) 1 0 0.0199(3) 
F9 F1- 3 a 0.3917(2) 0.5369(2) 0.4623(2) 1 0 0.0176(6) 
F10 F1- 3 a 0.4571(2) 0.5913(2) 0.8881(2) 1 0 0.0152(5) 
F11 F1- 3 a 0.54783(19) 0.29041(19) 0.4623(3) 1 0 0.0199(3) 
F12 F1- 3 a -0.2663(2) -0.60517(18) 1.3190(4) 1 0 0.0296(4) 
F13 F1- 3 a 0.7667(2) 0.72828(18) 0.9313(3) 1 0 0.0159(4) 
F14 F1- 3 a 0.8094(2) 0.72448(15) 0.4231(3) 1 0 0.0156(4) 
F15 F1- 3 a 0.24799(17) 0.22319(18) 0.3903(3) 1 0 0.0152(4) 
F16 F1- 3 a 0.8089(2) 0.0749(2) 1.5653(3) 1 0 0.0144(4) 
F17 F1- 3 a 0.13261(19) 0.39378(16) 0.4279(2) 1 0 0.0156(4) 
F18 F1- 3 a 0.09371(19) 0.40422(19) 0.9355(2) 1 0 0.0159(4) 
F19 F1- 3 a 0.15200(18) 0.75538(18) 0.5735(2) 1 0 0.0144(4) 
F20 F1- 3 a 0.59000(17) 0.88469(18) 0.3935(2) 1 0 0.0152(4) 
F21 F1- 3 a 0.93653(19) 0.5753(2) 0.3960(3) 1 0 0.0152(4) 
F22 F1- 3 a -0.4102(2) -0.94313(19) 1.2380(2) 1 0 0.0144(4) 
F23 F1- 3 a 0.4854(2) 0.06895(16) 1.4277(2) 1 0 0.0156(4) 
F24 F1- 3 a 0.4524(2) 0.08634(19) 0.9383(3) 1 0 0.0159(4) 

loop_
_atom_site_aniso_label
_atom_site_aniso_type_symbol
_atom_site_aniso_U_11
_atom_site_aniso_U_22
_atom_site_aniso_U_33
_atom_site_aniso_U_12
_atom_site_aniso_U_13
_atom_site_aniso_U_23
Y1 Y3+ 0.00519(8) 0.00669(9) 0.00674(10) 0.00399(8) -0.00005(8) -0.00017(8)
Y2 Y3+ 0.00810(12) 0.00733(11) 0.00923(16) 0.00559(9) 0.00291(9) 0.00259(8)
Y3 Y3+ 0.00652(10) 0.00749(10) 0.00654(11) 0.00468(9) -0.00015(8) 
-0.00014(9)
Y4 Y3+ 0.00633(9) 0.00652(10) 0.00799(13) 0.00393(7) 0.00168(8) 0.00142(8)
Y5 Y3+ 0.00703(10) 0.00929(11) 0.00657(10) 0.00609(9) -0.00016(8) 
-0.00031(8)
Y6 Y3+ 0.00477(8) 0.00508(8) 0.00640(8) 0.00289(8) -0.00084(7) -0.00120(7)
K1 K1+ 0.0237(4) 0.0133(3) 0.0110(3) 0.0096(3) -0.0039(3) -0.0022(3)
K2 K1+ 0.0163(4) 0.0313(7) 0.0142(4) 0.0128(5) -0.0024(4) -0.0062(4)
K3 K1+ 0.0325(5) 0.0120(4) 0.0100(3) 0.0115(4) -0.0021(4) -0.0019(2)
K4 K1+ 0.0168(4) 0.0217(4) 0.0124(3) 0.0102(4) -0.0010(3) -0.0006(3)
K5 K1+ 0.0140(4) 0.0149(3) 0.0155(3) 0.0065(2) 0.0002(2) -0.0050(3)
K6 K1+ 0.0284(5) 0.0133(4) 0.0118(3) 0.0095(3) -0.0020(3) -0.0006(3)
F1 F1- 0.0182(7) 0.0170(6) 0.0110(5) 0.0092(5) -0.0005(4) -0.0055(4)
F2 F1- 0.0222(7) 0.0275(9) 0.0118(6) 0.0189(7) -0.0078(5) -0.0014(5)
F3 F1- 0.0216(4) 0.0188(4) 0.0189(4) 0.0096(4) 0.0042(4) -0.0047(4)
F4 F1- 0.0333(7) 0.0041(2) 0.0429(6) 0.0029(5) 0.0004(5) -0.0006(7)
F5 F1- 0.0222(7) 0.0275(9) 0.0118(6) 0.0189(7) -0.0078(5) -0.0014(5)
F6 F1- 0.0182(7) 0.0170(6) 0.0110(5) 0.0092(5) -0.0005(4) -0.0055(4)
F7 F1- 0.0333(7) 0.0041(2) 0.0429(6) 0.0029(5) 0.0004(5) -0.0006(7)
F8 F1- 0.0216(4) 0.0188(4) 0.0189(4) 0.0096(4) 0.0042(4) -0.0047(4)
F9 F1- 0.0222(7) 0.0275(9) 0.0118(6) 0.0189(7) -0.0078(5) -0.0014(5)
F10 F1- 0.0182(7) 0.0170(6) 0.0110(5) 0.0092(5) -0.0005(4) -0.0055(4)
F11 F1- 0.0216(4) 0.0188(4) 0.0189(4) 0.0096(4) 0.0042(4) -0.0047(4)
F12 F1- 0.0333(7) 0.0041(2) 0.0429(6) 0.0029(5) 0.0004(5) -0.0006(7)
F13 F1- 0.0186(5) 0.0132(5) 0.0165(6) 0.0084(4) 0.0025(4) -0.0001(4)
F14 F1- 0.0227(6) 0.0018(3) 0.0164(6) 0.0016(3) 0.0120(4) -0.0016(3)
F15 F1- 0.0128(5) 0.0177(5) 0.0186(6) 0.0101(4) -0.0010(4) 0.0025(4)
F16 F1- 0.0184(5) 0.0163(5) 0.0114(5) 0.0108(4) -0.0038(3) -0.0030(3)
F17 F1- 0.0227(6) 0.0018(3) 0.0164(6) 0.0016(3) 0.0120(4) -0.0016(3)
F18 F1- 0.0186(5) 0.0132(5) 0.0165(6) 0.0084(4) 0.0025(4) -0.0001(4)
F19 F1- 0.0184(5) 0.0163(5) 0.0114(5) 0.0108(4) -0.0038(3) -0.0030(3)
F20 F1- 0.0128(5) 0.0177(5) 0.0186(6) 0.0101(4) -0.0010(4) 0.0025(4)
F21 F1- 0.0128(5) 0.0177(5) 0.0186(6) 0.0101(4) -0.0010(4) 0.0025(4)
F22 F1- 0.0184(5) 0.0163(5) 0.0114(5) 0.0108(4) -0.0038(3) -0.0030(3)
F23 F1- 0.0227(6) 0.0018(3) 0.0164(6) 0.0016(3) 0.0120(4) -0.0016(3)
F24 F1- 0.0186(5) 0.0132(5) 0.0165(6) 0.0084(4) 0.0025(4) -0.0001(4)
#End of data_187001-ICSD


