data_421528-ICSD
#?2014 by Fachinformationszentrum Karlsruhe, and the U.S. Secretary of 
#Commerce on behalf of the United States.  All rights reserved.
_database_code_ICSD                421528
_audit_creation_date               2011/02/01
_chemical_name_systematic
;
Lithium Lanthanum Nitridosilicate *
;
_chemical_formula_structural       'Li5 La5 Si4 N12'
_chemical_formula_sum              'La5 Li5 N12 Si4'
_publ_section_title
;
Chain-type lithium rare-earth nitridosilicates - Li5 Ln5 Si4 N12 with 
Ln = La, Ce
;
loop_
_citation_id
_citation_journal_abbrev
_citation_year
_citation_journal_volume
_citation_journal_issue
_citation_page_first
_citation_page_last
_citation_journal_id_ASTM
primary 'European Journal of Inorganic Chemistry  (online)'
 2010 2010 18 2636 2641 EJICFO
2 'Zeitschrift fuer Anorganische und Allgemeine Chemie (1950) (DE)'
 2010 636 11 2053 2053 ZAACAB
_publ_author_name
;
Lupart, S.;Zeuner, M.;Pagano, S.;Schnick, W.
;
_cell_length_a                     11.0428(16)
_cell_length_b                     11.0428(16)
_cell_length_c                     5.5730(11)
_cell_angle_alpha                  90.00
_cell_angle_beta                   90.00
_cell_angle_gamma                  90.00
_cell_volume                       679.59
_cell_formula_units_Z              2
_symmetry_space_group_name_H-M     'P -4 b 2'
_symmetry_Int_Tables_number        117
_refine_ls_R_factor_all            .0482
loop_
_symmetry_equiv_pos_site_id
_symmetry_equiv_pos_as_xyz
  1	'-y+.5, -x+.5, -z'
  2	'y, -x, -z'
  3	'y+.5, x+.5, -z'
  4	'-y, x, -z'
  5	'x+.5, -y+.5, z'
  6	'-x, -y, z'
  7	'-x+.5, y+.5, z'
  8	'x, y, z'
loop_
_atom_type_symbol
_atom_type_oxidation_number
La3+	3
Li1+	1
N3-	-3
Si4+	4
loop_
_atom_site_label
_atom_site_type_symbol
_atom_site_symmetry_multiplicity
_atom_site_Wyckoff_symbol
_atom_site_fract_x
_atom_site_fract_y
_atom_site_fract_z
_atom_site_occupancy
_atom_site_attached_hydrogens
_atom_site_U_iso_or_equiv
La1 La3+ 8 i 0.11531(6) 0.12437(6) 0.26466(12) 1 0 0.0311(3) 
La2 La3+ 2 d 0.5000 0.0000 0.5000 1 0 0.0395(4) 
Si1 Si4+ 8 i 0.2691(3) -0.1073(3) 0.2386(8) 1 0 0.0341(7) 
N1 N3- 8 i 0.3316(8) 0.0363(9) 0.204(2) 1 0 0.0348(19) 
N2 N3- 8 i 0.1102(8) -0.1048(9) 0.2586(16) 1 0 0.030(2) 
N3 N3- 4 g 0.2101(11) 0.2899(11) 0.0000 1 0 0.040(3) 
N4 N3- 4 h 0.3268(7) -0.1732(7) 0.5000 1 0 0.033(3) 
Li1 Li1+ 8 i 0.384(2) 0.214(3) 0.149(6) 1 0 0.046(6) 
Li2 Li1+ 2 c 0.5000 0.0000 0.0000 1 0 0.058(12) 

loop_
_atom_site_aniso_label
_atom_site_aniso_type_symbol
_atom_site_aniso_U_11
_atom_site_aniso_U_22
_atom_site_aniso_U_33
_atom_site_aniso_U_12
_atom_site_aniso_U_13
_atom_site_aniso_U_23
La1 La3+ 0.0315(4) 0.0291(4) 0.0326(4) -0.00039(14) 0.0010(3) 0.0003(3)
La2 La3+ 0.0389(5) 0.0389(5) 0.0407(7) -0.0004(5) 0.000 0.000
Si1 Si4+ 0.0324(13) 0.0338(12) 0.0360(18) -0.0005(10) 0.0000(15) 0.0019(13)
N1 N3- 0.027(4) 0.035(4) 0.042(5) 0.006(3) -0.004(4) 0.012(4)
N2 N3- 0.029(4) 0.031(4) 0.030(5) -0.004(3) -0.020(5) -0.010(5)
N3 N3- 0.044(4) 0.044(4) 0.032(7) -0.011(6) 0.008(4) 0.008(4)
N4 N3- 0.027(3) 0.027(3) 0.046(8) -0.005(4) -0.001(4) 0.001(4)
#End of data_421528-ICSD


