data_75112-ICSD
#?2014 by Fachinformationszentrum Karlsruhe, and the U.S. Secretary of 
#Commerce on behalf of the United States.  All rights reserved.
_database_code_ICSD                75112
_audit_creation_date               1995/10/17
_audit_update_record               2003/10/01
_chemical_name_systematic
;
Potassium Dicopper(I) Tantalum Selenide
;
_chemical_formula_structural       'K Cu2 Ta Se4'
_chemical_formula_sum              'Cu2 K1 Se4 Ta1'
_publ_section_title
;
Synthesis and characterization of Cu3 Nb Se4 and K Cu2 Ta Se4. Errata
;
loop_
_citation_id
_citation_journal_abbrev
_citation_year
_citation_journal_volume
_citation_page_first
_citation_page_last
_citation_journal_id_ASTM
primary 'Journal of Solid State Chemistry' 1994 111 447 448 JSSCBI
2 'Journal of Solid State Chemistry' 1993 107 58 62 JSSCBI
_publ_author_name                  'Lu, Y.-J.;Ibers, J.A.'
_cell_length_a                     5.660(1)
_cell_length_b                     18.8289(40)
_cell_length_c                     7.662(2)
_cell_angle_alpha                  90.
_cell_angle_beta                   90.
_cell_angle_gamma                  90.
_cell_volume                       816.55
_cell_formula_units_Z              4
_symmetry_space_group_name_H-M     'C 2 c m'
_symmetry_Int_Tables_number        40
_refine_ls_R_factor_all            .025
loop_
_symmetry_equiv_pos_site_id
_symmetry_equiv_pos_as_xyz
  1	'x, -y, z+.5'
  2	'x, y, -z+.5'
  3	'x, -y, -z'
  4	'x, y, z'
  5	'x+.5, -y+.5, z+.5'
  6	'x+.5, y+.5, -z+.5'
  7	'x+.5, -y+.5, -z'
  8	'x+.5, y+.5, z'
loop_
_atom_type_symbol
_atom_type_oxidation_number
Cu1+	1
K1+	1
Se2-	-2
Ta5+	5
loop_
_atom_site_label
_atom_site_type_symbol
_atom_site_symmetry_multiplicity
_atom_site_Wyckoff_symbol
_atom_site_fract_x
_atom_site_fract_y
_atom_site_fract_z
_atom_site_occupancy
_atom_site_attached_hydrogens
_atom_site_U_iso_or_equiv
Ta1 Ta5+ 4 b 0.4994(1) 0.8895(1) 0.75 1. 0 0.006(1) 
Cu1 Cu1+ 4 a 0.4792(2) 0 0 1. 0 0.010(1) 
Cu2 Cu1+ 4 b -.0011(3) 0.8919(1) 0.75 1. 0 0.010(1) 
Se1 Se2- 4 b 0.7464(1) -.0037(1) 0.75 1. 0 0.007(1) 
Se2 Se2- 4 b 0.7473(2) 0.7867(1) 0.75 1. 0 0.015(1) 
Se3 Se2- 8 c 0.2533(1) 0.8905(1) 0.0072(1) 1. 0 0.010(1) 
K1 K1+ 4 b 0.2426(4) 0.6825(1) 0.75 1. 0 0.021(1) 

#End of data_75112-ICSD


