data_50723-ICSD
#?2014 by Fachinformationszentrum Karlsruhe, and the U.S. Secretary of 
#Commerce on behalf of the United States.  All rights reserved.
_database_code_ICSD                50723
_audit_creation_date               2000/07/15
_chemical_name_systematic
;
Potassium Tetramanganese Tris(phosphate(V))
;
_chemical_formula_structural       'K Mn4 (P O4)3'
_chemical_formula_sum              'K1 Mn4 O12 P3'
_publ_section_title
;
Structure characterization and magnetic behavior of Na Ni4 (P O4)3 
and K Mn4 (P O4)3
;
loop_
_citation_id
_citation_journal_abbrev
_citation_year
_citation_journal_volume
_citation_page_first
_citation_page_last
_citation_journal_id_ASTM
primary 'Journal of Solid State Chemistry' 1999 144 169 174 JSSCBI
_publ_author_name
;
Daidouh, A.;Martinez, J.L.;Pico, C.;Veiga, M.L.
;
_cell_length_a                     6.554(8)
_cell_length_b                     16.049(5)
_cell_length_c                     9.977(2)
_cell_angle_alpha                  90.
_cell_angle_beta                   90.
_cell_angle_gamma                  90.
_cell_volume                       1049.43
_cell_formula_units_Z              4
_symmetry_space_group_name_H-M     'P m n n'
_symmetry_Int_Tables_number        58
_refine_ls_R_factor_all            .0852
loop_
_symmetry_equiv_pos_site_id
_symmetry_equiv_pos_as_xyz
  1	'x+.5, -y+.5, z+.5'
  2	'x+.5, y+.5, -z+.5'
  3	'-x, y, z'
  4	'-x, -y, -z'
  5	'-x+.5, y+.5, -z+.5'
  6	'-x+.5, -y+.5, z+.5'
  7	'x, -y, -z'
  8	'x, y, z'
loop_
_atom_type_symbol
_atom_type_oxidation_number
K1+	1
Mn2+	2
O2-	-2
P5+	5
loop_
_atom_site_label
_atom_site_type_symbol
_atom_site_symmetry_multiplicity
_atom_site_Wyckoff_symbol
_atom_site_fract_x
_atom_site_fract_y
_atom_site_fract_z
_atom_site_occupancy
_atom_site_attached_hydrogens
K1 K1+ 4 g 0.5 0.032(2) 0.761(6) 1. 0 
Mn1 Mn2+ 4 g 0 0.116(4) 0.551(4) 1. 0 
Mn2 Mn2+ 4 g 0 0.129(5) 0.976(8) 1. 0 
Mn3 Mn2+ 8 h 0.250(5) 0.199(6) 0.251(2) 1. 0 
P1 P5+ 4 g 0.5 0.179(4) 0.538(6) 1. 0 
P2 P5+ 4 g 0.5 0.214(4) 0.950(3) 1. 0 
P3 P5+ 4 g 0 0.036(2) 0.217(8) 1. 0 
O1 O2- 4 g 0.5 0.201(4) 0.381(2) 1. 0 
O2 O2- 4 g 0.5 0.220(4) 0.109(3) 1. 0 
O3 O2- 8 h 0.310(4) 0.124(5) 0.573(1) 1. 0 
O4 O2- 4 g 0 0.196(3) 0.392(5) 1. 0 
O5 O2- 4 g 0.5 0.259(5) 0.623(5) 1. 0 
O6 O2- 4 g 0 0.063(8) 0.800(4) 1. 0 
O7 O2- 8 h 0.203(4) 0.073(6) 0.167(5) 1. 0 
O8 O2- 8 h 0.701(3) 0.168(6) 0.902(3) 1. 0 
O9 O2- 4 g 0 0.021(3) 0.370(3) 1. 0 

#End of data_50723-ICSD


