data_73888-ICSD
#?2014 by Fachinformationszentrum Karlsruhe, and the U.S. Secretary of 
#Commerce on behalf of the United States.  All rights reserved.
_database_code_ICSD                73888
_audit_creation_date               1995/01/10
_chemical_name_systematic
;
Sodium Copper(I) Zirconium Selenide
;
_chemical_formula_structural       'Na Cu Zr Se3'
_chemical_formula_sum              'Cu1 Na1 Se3 Zr1'
_publ_section_title
;
Synthesis and structures of the new group IV chalcogenides NaCuTiS3 
and NaCuZrQ3 (Q=S,Se,Te)
;
loop_
_citation_id
_citation_journal_abbrev
_citation_year
_citation_journal_volume
_citation_page_first
_citation_page_last
_citation_journal_id_ASTM
primary 'Journal of Solid State Chemistry' 1993 105 580 587 JSSCBI
_publ_author_name
;
Mansuetto, M.F.;Keane, P.M.;Ibers, J.A.
;
_cell_length_a                     13.392(5)
_cell_length_b                     3.833(1)
_cell_length_c                     10.250(4)
_cell_angle_alpha                  90.
_cell_angle_beta                   90.
_cell_angle_gamma                  90.
_cell_volume                       526.15
_cell_formula_units_Z              4
_symmetry_space_group_name_H-M     'P n m a'
_symmetry_Int_Tables_number        62
_refine_ls_R_factor_all            .026
loop_
_symmetry_equiv_pos_site_id
_symmetry_equiv_pos_as_xyz
  1	'x+.5, y, -z+.5'
  2	'x, -y+.5, z'
  3	'-x+.5, y+.5, z+.5'
  4	'-x, -y, -z'
  5	'-x+.5, -y, z+.5'
  6	'-x, y+.5, -z'
  7	'x+.5, -y+.5, -z+.5'
  8	'x, y, z'
loop_
_atom_type_symbol
_atom_type_oxidation_number
Cu1+	1
Na1+	1
Se2-	-2
Zr4+	4
loop_
_atom_site_label
_atom_site_type_symbol
_atom_site_symmetry_multiplicity
_atom_site_Wyckoff_symbol
_atom_site_fract_x
_atom_site_fract_y
_atom_site_fract_z
_atom_site_occupancy
_atom_site_attached_hydrogens
_atom_site_U_iso_or_equiv
Na1 Na1+ 4 c 0.2284(2) 0.25 0.0421(3) 1. 0 0.0129(13) 
Cu1 Cu1+ 4 c 0.49146(7) 0.25 0.59172(8) 1. 0 0.0079(4) 
Zr1 Zr4+ 4 c 0.01178(5) 0.25 0.32275(6) 1. 0 0.0056(3) 
Se1 Se2- 4 c 0.10368(5) 0.25 0.56547(6) 1. 0 0.0055(3) 
Se2 Se2- 4 c 0.39470(5) 0.25 0.37964(7) 1. 0 0.0062(3) 
Se3 Se2- 4 c 0.35962(5) 0.25 0.75427(7) 1. 0 0.0060(3) 

#End of data_73888-ICSD


