data_88880-ICSD
#?2014 by Fachinformationszentrum Karlsruhe, and the U.S. Secretary of 
#Commerce on behalf of the United States.  All rights reserved.
_database_code_ICSD                88880
_audit_creation_date               2001/07/16
_audit_update_record               2009/02/01
_chemical_name_systematic
;
Potassium Niobium Oxide Fluoride (1/4/5/1)
;
_chemical_formula_structural       'K Nb4 O5 F'
_chemical_formula_sum              'F1 K1 Nb4 O5'
_publ_section_title
;
K Nb4 O5 F and Nb O2 crystal structures. Structural aspect of 
chemical decomposition of K2-x Nb4 O3 (O, F)3 F in the melt of sodium 
and potassium chlorides
;
loop_
_citation_id
_citation_journal_abbrev
_citation_year
_citation_journal_volume
_citation_journal_issue
_citation_page_first
_citation_page_last
_citation_journal_id_ASTM
primary Kristallografiya 1999 44 1 6 11 KRISAJ
2 'Crystallography Reports' 1999 44- 2 7 CYSTE3
_publ_author_name
;
Arakcheeva, A.V.;Grinevich, V.V.;Shamrai, V.F.;Meyer, M.;Chapuis, G.
;
_cell_length_a                     4.155(3)
_cell_length_b                     4.155(3)
_cell_length_c                     8.377(6)
_cell_angle_alpha                  90.
_cell_angle_beta                   90.
_cell_angle_gamma                  90.
_cell_volume                       144.62
_cell_formula_units_Z              1
_symmetry_space_group_name_H-M     'P 4/m m m'
_symmetry_Int_Tables_number        123
_refine_ls_R_factor_all            .061
loop_
_symmetry_equiv_pos_site_id
_symmetry_equiv_pos_as_xyz
  1	'y, x, -z'
  2	'-y, -x, -z'
  3	'-y, x, -z'
  4	'y, -x, -z'
  5	'-x, y, -z'
  6	'x, -y, -z'
  7	'x, y, -z'
  8	'-x, -y, -z'
  9	'-y, -x, z'
 10	'y, x, z'
 11	'y, -x, z'
 12	'-y, x, z'
 13	'x, -y, z'
 14	'-x, y, z'
 15	'-x, -y, z'
 16	'x, y, z'
loop_
_atom_type_symbol
_atom_type_oxidation_number
F1-	-1
K1+	1
Nb2.5+	2.5
O2-	-2
loop_
_atom_site_label
_atom_site_type_symbol
_atom_site_symmetry_multiplicity
_atom_site_Wyckoff_symbol
_atom_site_fract_x
_atom_site_fract_y
_atom_site_fract_z
_atom_site_occupancy
_atom_site_attached_hydrogens
_atom_site_B_iso_or_equiv
Nb1 Nb2.5+ 2 f 0.5 0 0 1. 0 1.99(5) 
Nb2 Nb2.5+ 2 h 0.5 0.5 0.2396(3) 1. 0 1.38(4) 
K1 K1+ 1 b 0 0 0.5 1. 0 2.2(2) 
O1 O2- 4 i 0 0.5 0.252(2) 1. 0 3.1(4) 
O2 O2- 1 a 0 0 0 1. 0 0.6(2) 
F1 F1- 1 d 0.5 0.5 0.5 1. 0 1.4(3) 

#End of data_88880-ICSD


