data_24334-ICSD
#?2014 by Fachinformationszentrum Karlsruhe, and the U.S. Secretary of 
#Commerce on behalf of the United States.  All rights reserved.
_database_code_ICSD                24334
_audit_creation_date               1980/01/01
_chemical_name_systematic          'Sodium Indium Silicate *'
_chemical_formula_structural       'Na In (Si O3)2'
_chemical_formula_sum              'In1 Na1 O6 Si2'
_publ_section_title
;
The Crystal Structure of Na In (Si O3)2
;
loop_
_citation_id
_citation_journal_abbrev
_citation_year
_citation_journal_volume
_citation_page_first
_citation_page_last
_citation_journal_id_ASTM
primary 'Acta Chemica Scandinavica (1-27,1973-42,1988)' 1967 21 1425 1429 ACSAA4
_publ_author_name                  'Christensen, A.N.;Hazell, R.G.'
_cell_length_a                     9.916
_cell_length_b                     9.132
_cell_length_c                     5.371
_cell_angle_alpha                  90.
_cell_angle_beta                   107.
_cell_angle_gamma                  90.
_cell_volume                       465.11
_cell_formula_units_Z              4
_symmetry_space_group_name_H-M     'C 1 2/c 1'
_symmetry_Int_Tables_number        15
_refine_ls_R_factor_all            .049
loop_
_symmetry_equiv_pos_site_id
_symmetry_equiv_pos_as_xyz
  1	'x, -y, z+.5'
  2	'-x, -y, -z'
  3	'-x, y, -z+.5'
  4	'x, y, z'
  5	'x+.5, -y+.5, z+.5'
  6	'-x+.5, -y+.5, -z'
  7	'-x+.5, y+.5, -z+.5'
  8	'x+.5, y+.5, z'
loop_
_atom_type_symbol
_atom_type_oxidation_number
In3+	3
Na1+	1
O2-	-2
Si4+	4
loop_
_atom_site_label
_atom_site_type_symbol
_atom_site_symmetry_multiplicity
_atom_site_Wyckoff_symbol
_atom_site_fract_x
_atom_site_fract_y
_atom_site_fract_z
_atom_site_occupancy
_atom_site_attached_hydrogens
Na1 Na1+ 4 e 0.5 0.1966(8) 0.25 1. 0 
In1 In3+ 4 e 0 0.1052(1) 0.25 1. 0 
Si1 Si4+ 8 f 0.2922(3) 0.0869(3) 0.7477(5) 1. 0 
O1 O2- 8 f 0.1194(7) 0.0800(7) 0.6538(13) 1. 0 
O2 O2- 8 f 0.1422(8) 0.2533(8) 0.1851(12) 1. 0 
O3 O2- 8 f 0.3472(7) 0.0112(8) 0.5195(11) 1. 0 

#End of data_24334-ICSD


