data_380488-ICSD
#?2014 by Fachinformationszentrum Karlsruhe, and the U.S. Secretary of 
#Commerce on behalf of the United States.  All rights reserved.
_database_code_ICSD                380488
_audit_creation_date               2011/02/01
_chemical_name_systematic          'Potassium Borodisilicate'
_chemical_formula_structural       'K B Si2 O6'
_chemical_formula_sum              'B1 K1 O6 Si2'
_publ_section_title
;
New isoformula potassium borosilicates with different zeolite 
frameworks: Monoclinic centrosymmetric boroleucite K (B Si2) O6 and 
chiral K B Si2 O6
;
loop_
_citation_id
_citation_journal_abbrev
_citation_year
_citation_journal_volume
_citation_journal_issue
_citation_page_first
_citation_page_last
_citation_journal_id_ASTM
primary Kristallografiya 2010 55 4 618 625 KRISAJ
2 'Crystallography Reports' 2010 55 4 575 582 CYSTE3
_publ_author_name
;
Belokoneva, E.L.;Dimitrova, O.V.;Stefanovich, S.Yu.
;
_cell_length_a                     4.7126(2)
_cell_length_b                     9.9693(4)
_cell_length_c                     10.4432(6)
_cell_angle_alpha                  90.00
_cell_angle_beta                   90.00
_cell_angle_gamma                  90.00
_cell_volume                       490.64
_cell_formula_units_Z              4
_symmetry_space_group_name_H-M     'P 21 21 21'
_symmetry_Int_Tables_number        19
_refine_ls_R_factor_all            .0425
loop_
_symmetry_equiv_pos_site_id
_symmetry_equiv_pos_as_xyz
  1	'-x, y+.5, -z+.5'
  2	'x+.5, -y+.5, -z'
  3	'-x+.5, -y, z+.5'
  4	'x, y, z'
loop_
_atom_type_symbol
_atom_type_oxidation_number
B3+	3
K1+	1
O2-	-2
Si4+	4
loop_
_atom_site_label
_atom_site_type_symbol
_atom_site_symmetry_multiplicity
_atom_site_Wyckoff_symbol
_atom_site_fract_x
_atom_site_fract_y
_atom_site_fract_z
_atom_site_occupancy
_atom_site_attached_hydrogens
_atom_site_U_iso_or_equiv
K1 K1+ 4 a 0.20204(15) 0.46625(8) 0.68861(8) 1 0 0.02206(19) 
Si1 Si4+ 4 a 0.21462(17) 0.10835(8) 0.56540(8) 1 0 0.00424(16) 
Si2 Si4+ 4 a 0.73392(17) 0.30150(8) 0.92456(8) 1 0 0.00749(17) 
B1 B3+ 4 a 0.7105(7) 0.2303(3) 0.6563(3) 1 0 0.0062(6) 
O1 O2- 4 a 1.0150(5) 0.1945(2) 0.6595(2) 1 0 0.0125(5) 
O2 O2- 4 a 0.6673(4) 0.3567(2) 0.5849(2) 1 0 0.0125(5) 
O3 O2- 4 a 0.5470(5) 0.1192(2) 0.6030(2) 1 0 0.0139(5) 
O4 O2- 4 a 0.6133(4) 0.2553(2) 0.7899(2) 1 0 0.0143(5) 
O5 O2- 4 a 0.9756(5) 0.1953(2) 0.9722(2) 1 0 0.0135(5) 
O6 O2- 4 a 0.8756(4) 0.4494(2) 0.9201(2) 1 0 0.0136(5) 

loop_
_atom_site_aniso_label
_atom_site_aniso_type_symbol
_atom_site_aniso_U_11
_atom_site_aniso_U_22
_atom_site_aniso_U_33
_atom_site_aniso_U_12
_atom_site_aniso_U_13
_atom_site_aniso_U_23
K1 K1+ 0.0196(4) 0.0207(4) 0.0259(4) -0.0009(4) 0.0030(4) -0.0053(4)
Si1 Si4+ 0.0034(3) 0.0036(3) 0.0057(4) -0.0004(3) -0.0001(4) 0.0002(3)
Si2 Si4+ 0.0070(4) 0.0074(4) 0.0081(4) 0.0002(3) 0.0002(4) 0.0004(3)
B1 B3+ 0.0043(15) 0.0068(15) 0.0075(16) 0.0018(13) 0.0000(13) 0.0014(12)
O1 O2- 0.0098(11) 0.0107(11) 0.0168(14) -0.0005(9) -0.0009(9) -0.0027(10)
O2 O2- 0.0144(11) 0.0113(11) 0.0119(12) 0.0020(8) -0.0019(10) 0.0017(9)
O3 O2- 0.0114(11) 0.0132(11) 0.0170(14) 0.0009(9) -0.0012(9) -0.0032(10)
O4 O2- 0.0133(11) 0.0197(12) 0.0098(12) 0.0022(9) -0.0012(10) -0.0007(10)
O5 O2- 0.0134(11) 0.0139(12) 0.0133(13) 0.0005(10) -0.0040(9) 0.0004(10)
O6 O2- 0.0127(10) 0.0070(10) 0.0212(13) -0.0004(8) 0.0017(10) 0.0012(11)
#End of data_380488-ICSD


