data_67646-ICSD
#?2014 by Fachinformationszentrum Karlsruhe, and the U.S. Secretary of 
#Commerce on behalf of the United States.  All rights reserved.
_database_code_ICSD                67646
_audit_creation_date               1994/01/19
_audit_update_record               2012/02/01
_chemical_name_systematic
;
Potassium Tetrafluoromanganate(III)
;
_chemical_formula_structural       'K (Mn F4)'
_chemical_formula_sum              'F4 K1 Mn1'
_publ_section_title
;
Neutron powder diffraction experiments on A Mn F4 (A= K, Rb): nuclear 
and magnetic structures
;
loop_
_citation_id
_citation_journal_abbrev
_citation_year
_citation_journal_volume
_citation_page_first
_citation_page_last
_citation_journal_id_ASTM
primary 'Physica B, Condensed Matter' 1992 180 125 127 PHYBE3
_publ_author_name
;
Moron, M.C.;Palacio, F.;Rodriguez Carvajal, J.
;
_cell_length_a                     7.7063(4)
_cell_length_b                     7.6568(3)
_cell_length_c                     5.7889(2)
_cell_angle_alpha                  90.
_cell_angle_beta                   90.434(3)
_cell_angle_gamma                  90.
_cell_volume                       341.57
_cell_formula_units_Z              4
_symmetry_space_group_name_H-M     'P 1 21/a 1'
_symmetry_Int_Tables_number        14
_refine_ls_R_factor_all            .049
loop_
_symmetry_equiv_pos_site_id
_symmetry_equiv_pos_as_xyz
  1	'x+.5, -y+.5, z'
  2	'-x, -y, -z'
  3	'-x+.5, y+.5, -z'
  4	'x, y, z'
loop_
_atom_type_symbol
_atom_type_oxidation_number
F1-	-1
K1+	1
Mn3+	3
loop_
_atom_site_label
_atom_site_type_symbol
_atom_site_symmetry_multiplicity
_atom_site_Wyckoff_symbol
_atom_site_fract_x
_atom_site_fract_y
_atom_site_fract_z
_atom_site_occupancy
_atom_site_attached_hydrogens
_atom_site_B_iso_or_equiv
Mn1 Mn3+ 2 a 0 0 0 1. 0 1.1(1) 
Mn2 Mn3+ 2 c 0.5 0 0 1. 0 1.3(1) 
F1 F1- 4 e 0.0033(6) 0.2359(6) 0.1150(6) 1. 0 2.10(6) 
F2 F1- 4 e -.2630(5) -.0193(3) 0.0952(6) 1. 0 2.24(6) 
F3 F1- 4 e 0.0554(4) -.0761(5) 0.2884(6) 1. 0 1.49(6) 
F4 F1- 4 e -.0638(4) 0.5611(5) 0.2883(7) 1. 0 1.99(7) 
K1 K1+ 4 e 0.7458(9) 0.3023(5) 0.4885(7) 1. 0 1.98(8) 

#End of data_67646-ICSD


