data_8231-ICSD
#?2014 by Fachinformationszentrum Karlsruhe, and the U.S. Secretary of 
#Commerce on behalf of the United States.  All rights reserved.
_database_code_ICSD                8231
_audit_creation_date               1980/01/01
_chemical_name_systematic          'Zinc Chlorate(III) Dihydrate'
_chemical_formula_structural       'Zn (Cl O2)2 (H2 O)2'
_chemical_formula_sum              'H4 Cl2 O6 Zn1'
_publ_section_title                'Zinc(II) chlorite dihydrate'
loop_
_citation_id
_citation_journal_abbrev
_citation_year
_citation_journal_volume
_citation_page_first
_citation_page_last
_citation_journal_id_ASTM
primary 'Acta Crystallographica B (24,1968-38,1982)' 1979 35 2670 2672 ACBCAR
_publ_author_name                  'Pakkanen, T.'
_cell_length_a                     6.425(3)
_cell_length_b                     6.892(2)
_cell_length_c                     6.454(3)
_cell_angle_alpha                  90.
_cell_angle_beta                   94.70(4)
_cell_angle_gamma                  90.
_cell_volume                       284.83
_cell_formula_units_Z              2
_symmetry_space_group_name_H-M     'P 1 21/n 1'
_symmetry_Int_Tables_number        14
_refine_ls_R_factor_all            .031
loop_
_symmetry_equiv_pos_site_id
_symmetry_equiv_pos_as_xyz
  1	'-x+.5, y+.5, -z+.5'
  2	'-x, -y, -z'
  3	'x+.5, -y+.5, z+.5'
  4	'x, y, z'
loop_
_atom_type_symbol
_atom_type_oxidation_number
Cl3+	3
H1+	1
O2-	-2
Zn2+	2
loop_
_atom_site_label
_atom_site_type_symbol
_atom_site_symmetry_multiplicity
_atom_site_Wyckoff_symbol
_atom_site_fract_x
_atom_site_fract_y
_atom_site_fract_z
_atom_site_occupancy
_atom_site_attached_hydrogens
_atom_site_B_iso_or_equiv
Zn1 Zn2+ 2 a 0 0 0 1. 0 0 
Cl1 Cl3+ 4 e 0.2383(1) 0.1130(1) 0.5948(1) 1. 0 0 
O1 O2- 4 e 0.4411(4) 0.2382(4) 0.6612(4) 1. 0 0 
O2 O2- 4 e 0.0526(4) 0.1657(4) 0.7304(4) 1. 0 0 
O3 O2- 4 e 0.3063(4) 0.0215(4) 0.1135(4) 1. 0 0 
H1 H1+ 4 e 0.157(11) 0.386(10) 0.355(10) 1. 0 7.1 
H2 H1+ 4 e 0.383(10) 0.1111(96) 0.1128(96) 1. 0 5.1 

loop_
_atom_site_aniso_label
_atom_site_aniso_type_symbol
_atom_site_aniso_U_11
_atom_site_aniso_U_22
_atom_site_aniso_U_33
_atom_site_aniso_U_12
_atom_site_aniso_U_13
_atom_site_aniso_U_23
Zn1 Zn2+ 0.0098(2) 0.0126(2) 0.0149(2) 0.0005(2) 0.0022(1) -.0007(2)
Cl1 Cl3+ 0.0162(3) 0.0158(3) 0.0179(3) -.0033(2) 0.0037(2) -.0009(2)
O1 O2- 0.0148(9) 0.0197(10) 0.0267(11) -.0046(8) -.0009(8) 0.0063(8)
O2 O2- 0.0168(10) 0.0220(11) 0.0256(11) 0.0044(9) 0.0064(8) 0.0080(9)
O3 O2- 0.0112(8) 0.018(1) 0.0329(12) -.0018(8) -.0043(8) 0.0017(9)
#End of data_8231-ICSD


