data_62742-ICSD
#?2014 by Fachinformationszentrum Karlsruhe, and the U.S. Secretary of 
#Commerce on behalf of the United States.  All rights reserved.
_database_code_ICSD                62742
_audit_creation_date               1988/07/15
_chemical_name_systematic
;
Tripotassium Dicopper(II) Hydrogendipyrophosphate
;
_chemical_formula_structural       'K3 Cu2 ((P2 O7) H (P2 O7))'
_chemical_formula_sum              'H1 Cu2 K3 O14 P4'
_publ_section_title
;
The structure of tripotassium dicopper(II) hydrogendipyrophosphate
;
loop_
_citation_id
_citation_journal_abbrev
_citation_year
_citation_journal_volume
_citation_page_first
_citation_page_last
_citation_journal_id_ASTM
primary 'Acta Crystallographica, Section C: Crystal Structure Communications'
 1987 43 1237 1239 ACSCEE
_publ_author_name                  'Effenberger, H.'
_cell_length_a                     5.266(1)
_cell_length_b                     5.528(1)
_cell_length_c                     12.789(2)
_cell_angle_alpha                  90.37(1)
_cell_angle_beta                   100.41(1)
_cell_angle_gamma                  117.08(1)
_cell_volume                       324.35
_cell_formula_units_Z              1
_symmetry_space_group_name_H-M     'P -1'
_symmetry_Int_Tables_number        2
_refine_ls_R_factor_all            .025
loop_
_symmetry_equiv_pos_site_id
_symmetry_equiv_pos_as_xyz
  1	'-x, -y, -z'
  2	'x, y, z'
loop_
_atom_type_symbol
_atom_type_oxidation_number
Cu2+	2
H1+	1
K1+	1
O2-	-2
P5+	5
loop_
_atom_site_label
_atom_site_type_symbol
_atom_site_symmetry_multiplicity
_atom_site_Wyckoff_symbol
_atom_site_fract_x
_atom_site_fract_y
_atom_site_fract_z
_atom_site_occupancy
_atom_site_attached_hydrogens
_atom_site_U_iso_or_equiv
K1 K1+ 1 b 0 0 0.5 1. 0 0 
K2 K1+ 2 i 0.20232(7) 0.84870(7) 0.06287(4) 1. 0 0 
Cu1 Cu2+ 2 i 0.97073(4) 0.22326(4) 0.22019(2) 1. 0 0 
P1 P5+ 2 i 0.58685(8) 0.53035(7) 0.15976(4) 1. 0 0 
P2 P5+ 2 i 0.55859(9) 0.28881(8) 0.35154(4) 1. 0 0 
O1 O2- 2 i 0.6535(2) 0.5603(2) 0.2892(1) 1. 0 0 
O2 O2- 2 i 0.2547(2) 0.3755(2) 0.1243(1) 1. 0 0 
O3 O2- 2 i 0.7306(2) 0.3636(2) 0.1273(1) 1. 0 0 
O4 O2- 2 i 0.7132(2) 0.8131(2) 0.1252(1) 1. 0 0 
O5 O2- 2 i 0.2345(2) 0.1144(2) 0.3106(1) 1. 0 0 
O6 O2- 2 i 0.7405(3) 0.1553(2) 0.3302(1) 1. 0 0 
O7 O2- 2 i 0.6331(3) 0.3915(3) 0.4693(1) 1. 0 0 
H1 H1+ 1 h 0.5 0.5 0.5 1. 0 0.140(28) 

loop_
_atom_site_aniso_label
_atom_site_aniso_type_symbol
_atom_site_aniso_U_11
_atom_site_aniso_U_22
_atom_site_aniso_U_33
_atom_site_aniso_U_12
_atom_site_aniso_U_13
_atom_site_aniso_U_23
K1 K1+ 0.0229(2) 0.0442(3) 0.0294(4) 0.0087(2) 0.0050(3) 0.0214(3)
K2 K1+ 0.0156(1) 0.0171(1) 0.0243(2) 0.0085(1) 0.0043(1) 0.0017(1)
Cu1 Cu2+ 0.0102(1) 0.0140(1) 0.0129(1) 0.0067(1) 0.0034(1) 0.0029(1)
P1 P5+ 0.0093(1) 0.0096(1) 0.0130(2) 0.0046(1) 0.0029(1) 0.0017(1)
P2 P5+ 0.0128(1) 0.0172(1) 0.0113(2) 0.0089(1) 0.0036(1) 0.0025(1)
O1 O2- 0.0170(4) 0.0125(4) 0.0126(5) 0.0065(3) 0.0027(4) 0.0004(4)
O2 O2- 0.0098(4) 0.0166(4) 0.0150(6) 0.0050(3) 0.0028(4) 0.0021(4)
O3 O2- 0.0160(4) 0.0169(4) 0.0148(6) 0.0113(4) 0.0044(4) 0.0025(4)
O4 O2- 0.0161(5) 0.0118(4) 0.0178(6) 0.0060(3) 0.0045(5) 0.0036(4)
O5 O2- 0.0126(4) 0.0225(5) 0.0287(8) 0.0079(4) 0.0037(5) 0.0129(6)
O6 O2- 0.0222(5) 0.0257(5) 0.0196(7) 0.0184(5) 0.0113(5) 0.0103(5)
O7 O2- 0.0340(7) 0.0345(7) 0.0124(6) 0.0201(6) 0.0064(6) 0.0019(6)
#End of data_62742-ICSD


