data_300234-ICSD
#?2014 by Fachinformationszentrum Karlsruhe, and the U.S. Secretary of 
#Commerce on behalf of the United States.  All rights reserved.
_database_code_ICSD                300234
_audit_creation_date               1992/08/20
_audit_update_record               2007/08/01
_chemical_name_systematic
;
Tetrapotassium Hexaselenodistannate
;
_chemical_formula_structural       'K4 (Sn2 Se6)'
_chemical_formula_sum              'K4 Se6 Sn2'
_publ_section_title
;
Crystal structure of tetrapotassium hexaselenidodistannate
;
loop_
_citation_id
_citation_journal_abbrev
_citation_year
_citation_journal_volume
_citation_page_first
_citation_page_last
_citation_journal_id_ASTM
primary 'Zeitschrift fuer Kristallographie (1979-2010)' 1993 203 299 300 ZEKRDZ
_publ_author_name                  'Eisenmann, B.;Hansa, J.'
_cell_length_a                     8.624(5)
_cell_length_b                     7.606(5)
_cell_length_c                     6.952(5)
_cell_angle_alpha                  67.6(1)
_cell_angle_beta                   74.3(1)
_cell_angle_gamma                  75.7(1)
_cell_volume                       400.54
_cell_formula_units_Z              1
_symmetry_space_group_name_H-M     'P -1'
_symmetry_Int_Tables_number        2
_refine_ls_R_factor_all            .075
loop_
_symmetry_equiv_pos_site_id
_symmetry_equiv_pos_as_xyz
  1	'-x, -y, -z'
  2	'x, y, z'
loop_
_atom_type_symbol
_atom_type_oxidation_number
K1+	1
Se2-	-2
Sn4+	4
loop_
_atom_site_label
_atom_site_type_symbol
_atom_site_symmetry_multiplicity
_atom_site_Wyckoff_symbol
_atom_site_fract_x
_atom_site_fract_y
_atom_site_fract_z
_atom_site_occupancy
_atom_site_attached_hydrogens
K1 K1+ 2 i 0.1109(6) 0.2078(7) 0.6040(8) 1. 0 
K2 K1+ 2 i 0.3123(6) 0.5301(7) 0.8570(8) 1. 0 
Sn1 Sn4+ 2 i 0.3096(2) 0.9365(2) 0.1482(2) 1. 0 
Se1 Se2- 2 i 0.2860(3) 0.5958(3) 0.3499(3) 1. 0 
Se2 Se2- 2 i 0.0684(3) 0.1907(3) 0.1370(4) 1. 0 
Se3 Se2- 2 i 0.4604(3) 0.9532(3) 0.7692(3) 1. 0 

loop_
_atom_site_aniso_label
_atom_site_aniso_type_symbol
_atom_site_aniso_U_11
_atom_site_aniso_U_22
_atom_site_aniso_U_33
_atom_site_aniso_U_12
_atom_site_aniso_U_13
_atom_site_aniso_U_23
K1 K1+ 0.042(3) 0.041(3) 0.040(3) -0.014(2) -0.009(2) -0.017(2)
K2 K1+ 0.044(3) 0.042(3) 0.045(3) -0.021(2) -0.007(2) -0.013(2)
Sn1 Sn4+ 0.0259(7) 0.0242(7) 0.0217(7) -0.0120(5) 0.0003(5) -0.0082(5)
Se1 Se2- 0.038(1) 0.026(1) 0.033(1) -0.0102(9) -0.0014(9) -0.0118(9)
Se2 Se2- 0.032(1) 0.031(1) 0.040(1) -0.0153(9) -0.0041(9) -0.0050(9)
Se3 Se2- 0.034(1) 0.048(1) 0.025(1) -0.021(1) 0.0008(8) -0.018(1)
#End of data_300234-ICSD


