data_202430-ICSD
#?2014 by Fachinformationszentrum Karlsruhe, and the U.S. Secretary of 
#Commerce on behalf of the United States.  All rights reserved.
_database_code_ICSD                202430
_audit_creation_date               1988/05/17
_chemical_name_systematic          'Potassium Barium Phosphate'
_chemical_formula_structural       'K Ba P O4'
_chemical_formula_sum              'Ba1 K1 O4 P1'
_publ_section_title
;
Chemical preparation and crystal structure refinement of K Ba P O4 
monophosphate
;
loop_
_citation_id
_citation_journal_abbrev
_citation_year
_citation_journal_volume
_citation_page_first
_citation_page_last
_citation_journal_id_ASTM
primary 'Journal of Solid State Chemistry' 1987 71 574 576 JSSCBI
_publ_author_name                  'Masse, R.;Durif, A.'
_cell_length_a                     7.709(4)
_cell_length_b                     5.663(4)
_cell_length_c                     9.972(5)
_cell_angle_alpha                  90.
_cell_angle_beta                   90.
_cell_angle_gamma                  90.
_cell_volume                       435.34
_cell_formula_units_Z              4
_symmetry_space_group_name_H-M     'P n m a'
_symmetry_Int_Tables_number        62
_refine_ls_R_factor_all            .016
loop_
_symmetry_equiv_pos_site_id
_symmetry_equiv_pos_as_xyz
  1	'x+.5, y, -z+.5'
  2	'x, -y+.5, z'
  3	'-x+.5, y+.5, z+.5'
  4	'-x, -y, -z'
  5	'-x+.5, -y, z+.5'
  6	'-x, y+.5, -z'
  7	'x+.5, -y+.5, -z+.5'
  8	'x, y, z'
loop_
_atom_type_symbol
_atom_type_oxidation_number
Ba2+	2
K1+	1
O2-	-2
P5+	5
loop_
_atom_site_label
_atom_site_type_symbol
_atom_site_symmetry_multiplicity
_atom_site_Wyckoff_symbol
_atom_site_fract_x
_atom_site_fract_y
_atom_site_fract_z
_atom_site_occupancy
_atom_site_attached_hydrogens
Ba1 Ba2+ 4 c -.00928(2) 0.25 0.19501(2) 1. 0 
P1 P5+ 4 c 0.2361(1) 0.25 0.91761(9) 1. 0 
K1 K1+ 4 c 0.1619(1) 0.25 0.58597(9) 1. 0 
O1 O2- 8 d 0.1976(2) -.0268(3) 0.3460(2) 1. 0 
O2 O2- 4 c 0.0358(3) 0.25 0.9164(3) 1. 0 
O3 O2- 4 c 0.3015(3) 0.25 0.0643(3) 1. 0 

#End of data_202430-ICSD


