data_71159-ICSD
#?2014 by Fachinformationszentrum Karlsruhe, and the U.S. Secretary of 
#Commerce on behalf of the United States.  All rights reserved.
_database_code_ICSD                71159
_audit_creation_date               1993/01/06
_chemical_name_systematic          'Sodium Tetrachloroaluminate'
_chemical_formula_structural       'Na (Al Cl4)'
_chemical_formula_sum              'Al1 Cl4 Na1'
_publ_section_title
;
Crystallographic and 27Al NMR study on premelting phenomena in 
crystals of sodium tetrachloroaluminate
;
loop_
_citation_id
_citation_journal_abbrev
_citation_year
_citation_journal_volume
_citation_page_first
_citation_page_last
_citation_journal_id_ASTM
primary 'Inorganic Chemistry' 1991 30 981 988 INOCAJ
_publ_author_name
;
Krebs, B.;Greiwing, H.;Brendel, C.J.;Taulelle, F.;Gaune-Escard, 
M.;Berg, R.W.
;
_cell_length_a                     10.455(2)
_cell_length_b                     10.002(2)
_cell_length_c                     6.204(2)
_cell_angle_alpha                  90.
_cell_angle_beta                   90.
_cell_angle_gamma                  90.
_cell_volume                       648.76
_cell_formula_units_Z              4
_symmetry_space_group_name_H-M     'P 21 21 21'
_symmetry_Int_Tables_number        19
_refine_ls_R_factor_all            .048
loop_
_symmetry_equiv_pos_site_id
_symmetry_equiv_pos_as_xyz
  1	'-x, y+.5, -z+.5'
  2	'x+.5, -y+.5, -z'
  3	'-x+.5, -y, z+.5'
  4	'x, y, z'
loop_
_atom_type_symbol
_atom_type_oxidation_number
Al3+	3
Cl1-	-1
Na1+	1
loop_
_atom_site_label
_atom_site_type_symbol
_atom_site_symmetry_multiplicity
_atom_site_Wyckoff_symbol
_atom_site_fract_x
_atom_site_fract_y
_atom_site_fract_z
_atom_site_occupancy
_atom_site_attached_hydrogens
Na1 Na1+ 4 a 0.1262(4) 0.2153(4) 0.6888(6) 1. 0 
Al1 Al3+ 4 a 0.0377(2) 0.4860(2) 0.2025(3) 1. 0 
Cl1 Cl1- 4 a 0.0311(2) 0.4916(2) 0.5446(3) 1. 0 
Cl2 Cl1- 4 a 0.1466(2) 0.3171(2) 0.1061(3) 1. 0 
Cl3 Cl1- 4 a 0.3495(2) 0.0223(2) 0.9296(3) 1. 0 
Cl4 Cl1- 4 a 0.3773(2) 0.3370(2) 0.5722(3) 1. 0 

loop_
_atom_site_aniso_label
_atom_site_aniso_type_symbol
_atom_site_aniso_U_11
_atom_site_aniso_U_22
_atom_site_aniso_U_33
_atom_site_aniso_U_12
_atom_site_aniso_U_13
_atom_site_aniso_U_23
Na1 Na1+ 0.155(4) 0.105(3) 0.102(3) -.022(3) -.008(3) -.035(2)
Al1 Al3+ 0.056(1) 0.053(1) 0.040(1) 0.001(1) 0.002(1) -.002(1)
Cl1 Cl1- 0.093(1) 0.080(1) 0.039(1) 0.006(1) -.004(1) -.004(1)
Cl2 Cl1- 0.084(1) 0.062(1) 0.071(1) 0.011(1) 0.005(1) -.009(1)
Cl3 Cl1- 0.063(1) 0.092(1) 0.062(1) 0.008(1) 0.013(1) 0.007(1)
Cl4 Cl1- 0.080(1) 0.060(1) 0.073(1) -.006(1) -.014(1) -.005(1)
#End of data_71159-ICSD


