data_203218-ICSD
#?2014 by Fachinformationszentrum Karlsruhe, and the U.S. Secretary of 
#Commerce on behalf of the United States.  All rights reserved.
_database_code_ICSD                203218
_audit_creation_date               1996/10/14
_chemical_name_systematic
;
Potassium Dioxomolybdenum Arsenate(VI)
;
_chemical_formula_structural       'K (Mo O2) (As O4)'
_chemical_formula_sum              'As1 K1 Mo1 O6'
_publ_section_title                'K Mo O2 As O4'
loop_
_citation_id
_citation_journal_abbrev
_citation_year
_citation_journal_volume
_citation_page_first
_citation_page_last
_citation_journal_id_ASTM
primary 'Acta Crystallographica, Section C: Crystal Structure Communications'
 1996 52 3 5 ACSCEE
_publ_author_name                  'Zid, M.F.;Jouini, T.'
_cell_length_a                     10.679(3)
_cell_length_b                     6.618(4)
_cell_length_c                     6.978(4)
_cell_angle_alpha                  90.
_cell_angle_beta                   90.
_cell_angle_gamma                  90.
_cell_volume                       493.16
_cell_formula_units_Z              4
_symmetry_space_group_name_H-M     'P n m a'
_symmetry_Int_Tables_number        62
_refine_ls_R_factor_all            .024
loop_
_symmetry_equiv_pos_site_id
_symmetry_equiv_pos_as_xyz
  1	'x+.5, y, -z+.5'
  2	'x, -y+.5, z'
  3	'-x+.5, y+.5, z+.5'
  4	'-x, -y, -z'
  5	'-x+.5, -y, z+.5'
  6	'-x, y+.5, -z'
  7	'x+.5, -y+.5, -z+.5'
  8	'x, y, z'
loop_
_atom_type_symbol
_atom_type_oxidation_number
As5+	5
K1+	1
Mo6+	6
O2-	-2
loop_
_atom_site_label
_atom_site_type_symbol
_atom_site_symmetry_multiplicity
_atom_site_Wyckoff_symbol
_atom_site_fract_x
_atom_site_fract_y
_atom_site_fract_z
_atom_site_occupancy
_atom_site_attached_hydrogens
Mo1 Mo6+ 4 c 0.15968(5) 0.25 0.04922(8) 1. 0 
As1 As5+ 4 c 0.15520(6) -.25 -.03872(9) 1. 0 
K1 K1+ 4 b 0 0 0.5 1. 0 
O1 O2- 8 d 0.1494(3) -.0447(6) 0.1062(5) 1. 0 
O2 O2- 4 c 0.2055(4) 0.25 0.3505(6) 1. 0 
O3 O2- 4 c -.0305(4) 0.25 0.1827(7) 1. 0 
O4 O2- 4 c 0.0911(5) 0.25 -.1705(8) 1. 0 
O5 O2- 4 c 0.3124(5) 0.25 -.0135(8) 1. 0 

loop_
_atom_site_aniso_label
_atom_site_aniso_type_symbol
_atom_site_aniso_U_11
_atom_site_aniso_U_22
_atom_site_aniso_U_33
_atom_site_aniso_U_12
_atom_site_aniso_U_13
_atom_site_aniso_U_23
Mo1 Mo6+ 0.0073(4) 0.0119(4) 0.0113(4) 0 -.0005(2) 0
As1 As5+ 0.0042(4) 0.0088(5) 0.0080(4) 0 0.0000(2) 0
K1 K1+ 0.027(1) 0.034(1) 0.037(1) 0.0075(8) 0.0001(8) 0.014(1)
O1 O2- 0.018(2) 0.008(2) 0.015(2) 0.000(1) -.001(1) -.003(2)
O2 O2- 0.004(2) 0.015(3) 0.007(2) 0 -.002(2) 0
O3 O2- 0.005(2) 0.017(3) 0.008(2) 0 -.003(2) 0
O4 O2- 0.018(3) 0.025(3) 0.016(2) 0 -.001(2) 0
O5 O2- 0.012(2) 0.026(3) 0.016(2) 0 0.003(2) 0
#End of data_203218-ICSD


