data_415380-ICSD
#?2014 by Fachinformationszentrum Karlsruhe, and the U.S. Secretary of 
#Commerce on behalf of the United States.  All rights reserved.
_database_code_ICSD                415380
_audit_creation_date               2007/08/01
_chemical_name_systematic
;
Dipotassium Sulfato(VI)trifluoromanganate(III) - Lt
;
_chemical_formula_structural       'K2 (Mn F3 (S O4))'
_chemical_formula_sum              'F3 K2 Mn1 O4 S1'
_publ_section_title
;
Jahn-Teller-Ordnung in Mangan(III)-fluoridsulfaten.  II. 
Phasen?bergang und Verzwillingung bei K2 (Mn F3 (S O4)) und 1D 
Magnetismus in Verbindungen A2 (Mn F3 (S O4)) (A = K, N H4, Rb, Cs)
;
loop_
_citation_id
_citation_journal_abbrev
_citation_year
_citation_journal_volume
_citation_page_first
_citation_page_last
_citation_journal_id_ASTM
primary 'Zeitschrift fuer Anorganische und Allgemeine Chemie (1950) (DE)'
 2005 631 1785 1792 ZAACAB
_publ_author_name
;
Klein, U.;Hahn, F.;Massa, W.;Pebler, J.
;
_cell_length_a                     7.2407(5)
_cell_length_b                     10.7606(11)
_cell_length_c                     8.4564(7)
_cell_angle_alpha                  90.00
_cell_angle_beta                   90.00
_cell_angle_gamma                  90.00
_cell_volume                       658.87
_cell_formula_units_Z              4
_symmetry_space_group_name_H-M     'P 1 21/c 1'
_symmetry_Int_Tables_number        14
_refine_ls_R_factor_all            .0285
loop_
_symmetry_equiv_pos_site_id
_symmetry_equiv_pos_as_xyz
  1	'x, -y+.5, z+.5'
  2	'-x, -y, -z'
  3	'-x, y+.5, -z+.5'
  4	'x, y, z'
loop_
_atom_type_symbol
_atom_type_oxidation_number
F1-	-1
K1+	1
Mn3+	3
O2-	-2
S6+	6
loop_
_atom_site_label
_atom_site_type_symbol
_atom_site_symmetry_multiplicity
_atom_site_Wyckoff_symbol
_atom_site_fract_x
_atom_site_fract_y
_atom_site_fract_z
_atom_site_occupancy
_atom_site_attached_hydrogens
_atom_site_U_iso_or_equiv
K1 K1+ 4 e 0.19370(15) 0.19078(8) 0.32762(11) 1 0 0.02526(19) 
K2 K1+ 4 e -0.30292(15) 0.30937(8) 0.17306(11) 1 0 0.0281(2) 
Mn1 Mn3+ 2 b 0.5000 0.0000 0.0000 1 0 0.01032(15) 
Mn2 Mn3+ 2 a 0.0000 0.0000 0.0000 1 0 0.01435(17) 
F1 F1- 4 e 0.4741(4) 0.16195(19) -0.0564(3) 1 0 0.0229(5) 
F2 F1- 4 e -0.0238(3) 0.16198(18) 0.0546(3) 1 0 0.0192(5) 
F3 F1- 4 e 0.2480(6) 0.0036(3) 0.10983(12) 1 0 0.0216(2) 
S1 S6+ 4 e 0.7490(2) 0.00077(11) 0.31134(4) 1 0 0.01704(9) 
O1 O2- 4 e 0.8917(5) -0.0590(3) 0.2094(4) 1 0 0.0230(6) 
O2 O2- 4 e 0.6074(5) 0.0603(2) 0.2037(3) 1 0 0.0198(6) 
O3 O2- 4 e 0.6640(6) -0.0971(3) 0.4056(4) 1 0 0.0377(9) 
O4 O2- 4 e 0.8325(6) 0.0982(3) 0.4027(4) 1 0 0.0322(7) 

loop_
_atom_site_aniso_label
_atom_site_aniso_type_symbol
_atom_site_aniso_U_11
_atom_site_aniso_U_22
_atom_site_aniso_U_33
_atom_site_aniso_U_12
_atom_site_aniso_U_13
_atom_site_aniso_U_23
K1 K1+ 0.0315(5) 0.0206(3) 0.0237(4) 0.0000(3) -0.0053(5) 0.0001(3)
K2 K1+ 0.0367(5) 0.0191(4) 0.0284(4) 0.0040(3) 0.0110(6) -0.0014(4)
Mn1 Mn3+ 0.0099(3) 0.0078(3) 0.0133(3) 0.0008(3) 0.0009(6) 0.0009(2)
Mn2 Mn3+ 0.0124(4) 0.0135(3) 0.0172(4) 0.0007(3) 0.0011(7) -0.0004(2)
F1 F1- 0.0282(13) 0.0133(9) 0.0273(12) 0.0005(10) -0.0036(12) 0.0050(10)
F2 F1- 0.0208(11) 0.0120(8) 0.0247(11) 0.0038(9) 0.0017(11) -0.0002(9)
F3 F1- 0.0186(4) 0.0257(5) 0.0204(4) 0.0014(4) 0.0011(15) -0.0030(10)
S1 S6+ 0.01842(17) 0.01869(17) 0.01402(15) -0.00181(12) 0.0006(7) 0.0009(4)
O1 O2- 0.0234(15) 0.0187(11) 0.0269(14) 0.0042(12) 0.0042(13) -0.0010(11)
O2 O2- 0.0254(15) 0.0177(11) 0.0163(11) 0.0020(11) -0.0001(12) -0.0027(9)
O3 O2- 0.030(2) 0.0423(16) 0.0410(17) -0.0102(15) 0.0012(17) 0.0260(16)
O4 O2- 0.034(2) 0.0407(15) 0.0224(13) -0.0017(15) -0.0016(15) -0.0131(13)
#End of data_415380-ICSD


