data_75738-ICSD
#?2014 by Fachinformationszentrum Karlsruhe, and the U.S. Secretary of 
#Commerce on behalf of the United States.  All rights reserved.
_database_code_ICSD                75738
_audit_creation_date               1996/04/22
_audit_update_record               2008/02/01
_chemical_name_systematic          'Magnesium Catena-silicate - Hp'
_chemical_formula_structural       'Mg (Si O3)'
_chemical_formula_sum              'Mg1 O3 Si1'
_publ_section_title
;
A quantum-mechanical study of the relative stability under pressure 
of Mg Si O3-ilmenite, Mg Si O3-perovskite, and Mg O-periclase + Si O2-
stishovite assemblage
;
loop_
_citation_id
_citation_journal_abbrev
_citation_year
_citation_journal_volume
_citation_page_first
_citation_page_last
_citation_journal_id_ASTM
primary 'Physics and Chemistry of Minerals' 1994 21 285 293 PCMIDU
2 'American Mineralogist' 1987 72 357 360 AMMIAY
3 'Physics and Chemistry of Minerals' 1988 16 239 245 PCMIDU
_publ_author_name
;
d'Arco, P.;Sandrone, G.;Dovesi, R.;Apra, E.;Saunders, V.R.
;
_cell_length_a                     4.713
_cell_length_b                     4.713
_cell_length_c                     13.454
_cell_angle_alpha                  90.
_cell_angle_beta                   90.
_cell_angle_gamma                  120.
_cell_volume                       258.81
_cell_formula_units_Z              6
_symmetry_space_group_name_H-M     'R -3 H'
_symmetry_Int_Tables_number        148
loop_
_symmetry_equiv_pos_site_id
_symmetry_equiv_pos_as_xyz
  1	'x-y, x, -z'
  2	'y, -x+y, -z'
  3	'-x, -y, -z'
  4	'-x+y, -x, z'
  5	'-y, x-y, z'
  6	'x, y, z'
  7	'x-y+.6666, x+.3333, -z+.3333'
  8	'x-y+.3333, x+.6666, -z+.6666'
  9	'y+.6666, -x+y+.3333, -z+.3333'
 10	'y+.3333, -x+y+.6666, -z+.6666'
 11	'-x+.6666, -y+.3333, -z+.3333'
 12	'-x+.3333, -y+.6666, -z+.6666'
 13	'-x+y+.6666, -x+.3333, z+.3333'
 14	'-x+y+.3333, -x+.6666, z+.6666'
 15	'-y+.6666, x-y+.3333, z+.3333'
 16	'-y+.3333, x-y+.6666, z+.6666'
 17	'x+.6666, y+.3333, z+.3333'
 18	'x+.3333, y+.6666, z+.6666'
loop_
_atom_type_symbol
_atom_type_oxidation_number
Mg2+	2
O2-	-2
Si4+	4
loop_
_atom_site_label
_atom_site_type_symbol
_atom_site_symmetry_multiplicity
_atom_site_Wyckoff_symbol
_atom_site_fract_x
_atom_site_fract_y
_atom_site_fract_z
_atom_site_occupancy
_atom_site_attached_hydrogens
Mg1 Mg2+ 6 c 0 0 0.3599 1. 0 
Si1 Si4+ 6 c 0 0 0.1556 1. 0 
O1 O2- 18 f 0.32 0.0355 0.2396 1. 0 

#End of data_75738-ICSD


