data_160643-ICSD
#?2014 by Fachinformationszentrum Karlsruhe, and the U.S. Secretary of 
#Commerce on behalf of the United States.  All rights reserved.
_database_code_ICSD                160643
_audit_creation_date               2009/02/01
_chemical_name_systematic          'Silver Aluminium Oxide'
_chemical_formula_structural       'Ag Al O2'
_chemical_formula_sum              'Ag1 Al1 O2'
_publ_section_title
;
Correlation of crystal structures, electronic structures and 
photocatalytic properties in a series of Ag-based oxides: Ag Al O2, 
Ag Cr O2 and Ag2 Cr O4
;
loop_
_citation_id
_citation_journal_abbrev
_citation_year
_citation_journal_volume
_citation_page_first
_citation_page_last
_citation_journal_id_ASTM
primary 'Journal of Physical Chemistry C' 2008 112 3134 3141 JPCCCK
_publ_author_name
;
Ouyang Shuxin;Li Zhaosheng;Ouyang Zi;Yu Tao;Ye Jinhua;Zou Zhigang
;
_cell_length_a                     5.2728
_cell_length_b                     6.77628
_cell_length_c                     5.3626
_cell_angle_alpha                  90.
_cell_angle_beta                   90.
_cell_angle_gamma                  90.
_cell_volume                       191.61
_cell_formula_units_Z              4
_symmetry_space_group_name_H-M     'P n a 21'
_symmetry_Int_Tables_number        33
loop_
_symmetry_equiv_pos_site_id
_symmetry_equiv_pos_as_xyz
  1	'x+.5, -y+.5, z'
  2	'-x+.5, y+.5, z+.5'
  3	'-x, -y, z+.5'
  4	'x, y, z'
loop_
_atom_type_symbol
_atom_type_oxidation_number
Ag1+	1
Al3+	3
O2-	-2
loop_
_atom_site_label
_atom_site_type_symbol
_atom_site_symmetry_multiplicity
_atom_site_Wyckoff_symbol
_atom_site_fract_x
_atom_site_fract_y
_atom_site_fract_z
_atom_site_occupancy
_atom_site_attached_hydrogens
Ag1 Ag1+ 4 a 0.0598 0.6427 0.0069 1. 0 
Al1 Al3+ 4 a 0.0706 0.1239 -0.0013 1. 0 
O1 O2- 4 a 0.0342 0.0679 0.3119 1. 0 
O2 O2- 4 a 0.1117 0.6681 0.4346 1. 0 

#End of data_160643-ICSD


