data_165876-ICSD
#?2014 by Fachinformationszentrum Karlsruhe, and the U.S. Secretary of 
#Commerce on behalf of the United States.  All rights reserved.
_database_code_ICSD                165876
_audit_creation_date               2010/08/01
_chemical_name_systematic
;
Potassium Cerium Tetrakis(catena-phosphate(V))
;
_chemical_formula_structural       'K Ce (P O3)4'
_chemical_formula_sum              'Ce1 K1 O12 P4'
_publ_section_title
;
Two potassium rare-earth polyphosphates K Ln (P O3)4 (Ln = Ce, Eu): 
structural, optical and electronic properties
;
loop_
_citation_id
_citation_journal_abbrev
_citation_year
_citation_journal_volume
_citation_page_first
_citation_page_last
_citation_journal_id_ASTM
primary 'Journal of Luminescence' 2009 129 1326 1331 JLUMA8
_publ_author_name
;
Zhu Jing;Cheng Wen Dan;Zhang Hao;Wang Yude
;
_cell_length_a                     7.300(1)
_cell_length_b                     8.5001(9)
_cell_length_c                     8.0517(9)
_cell_angle_alpha                  90.
_cell_angle_beta                   92.108(5)
_cell_angle_gamma                  90.
_cell_volume                       499.28
_cell_formula_units_Z              2
_symmetry_space_group_name_H-M     'P 1 21 1'
_symmetry_Int_Tables_number        4
_refine_ls_R_factor_all            .0293
loop_
_symmetry_equiv_pos_site_id
_symmetry_equiv_pos_as_xyz
  1	'-x, y+.5, -z'
  2	'x, y, z'
loop_
_atom_type_symbol
_atom_type_oxidation_number
Ce3+	3
K1+	1
O2-	-2
P5+	5
loop_
_atom_site_label
_atom_site_type_symbol
_atom_site_symmetry_multiplicity
_atom_site_Wyckoff_symbol
_atom_site_fract_x
_atom_site_fract_y
_atom_site_fract_z
_atom_site_occupancy
_atom_site_attached_hydrogens
_atom_site_U_iso_or_equiv
Ce1 Ce3+ 2 a 0.26573(5) 0.99689(5) 0.75827(4) 1. 0 0.0090(1) 
K1 K1+ 2 a 0.7732(2) 0.8017(2) 0.7202(2) 1. 0 0.0301(4) 
P1 P5+ 2 a 0.1232(2) 0.7435(2) 0.3951(2) 1. 0 0.0095(3) 
P2 P5+ 2 a 0.3960(2) 0.5744(2) 0.8936(2) 1. 0 0.0096(3) 
P3 P5+ 2 a 0.5024(2) 0.8505(2) 0.3806(2) 1. 0 0.0086(3) 
P4 P5+ 2 a 0.0657(2) 0.3743(2) 0.8999(2) 1. 0 0.0091(3) 
O1 O2- 2 a 0.5070(7) 0.4544(5) 0.7826(5) 1. 0 0.018(1) 
O2 O2- 2 a 0.0456(6) 0.8778(5) 0.2727(5) 1. 0 0.016(1) 
O3 O2- 2 a 0.6701(6) 0.7517(5) 0.3883(5) 1. 0 0.0111(9) 
O4 O2- 2 a 0.0626(7) 0.9082(6) 0.9653(6) 1. 0 0.020(1) 
O5 O2- 2 a 0.1833(6) 0.2336(5) 0.9260(5) 1. 0 0.013(1) 
O6 O2- 2 a 0.4693(7) 0.9506(5) 0.5283(5) 1. 0 0.015(1) 
O7 O2- 2 a 0.3337(6) 0.7383(5) 0.3442(5) 1. 0 0.012(1) 
O8 O2- 2 a 0.5417(7) 0.0432(5) 0.9333(5) 1. 0 0.016(1) 
O9 O2- 2 a 0.4154(7) 0.7341(5) 0.8223(6) 1. 0 0.018(1) 
O10 O2- 2 a 0.1860(6) 0.5270(5) 0.8695(5) 1. 0 0.016(1) 
O11 O2- 2 a 0.9594(7) 0.0903(5) 0.6521(6) 1. 0 0.016(1) 
O12 O2- 2 a 0.1112(6) 0.8023(5) 0.5672(5) 1. 0 0.014(1) 

#End of data_165876-ICSD


