data_99615-ICSD
#?2014 by Fachinformationszentrum Karlsruhe, and the U.S. Secretary of 
#Commerce on behalf of the United States.  All rights reserved.
_database_code_ICSD                99615
_audit_creation_date               2005/04/01
_audit_update_record               2007/04/01
_chemical_name_systematic
;
Disodium Strontium Bis(phosphato(V))oxovanadate(IV)
;
_chemical_formula_structural       'Na2 Sr ((V O) (P O4)2)'
_chemical_formula_sum              'Na2 O9 P2 Sr1 V1'
_publ_section_title
;
Cryystal structure and properties of the new vanadyl(IV) phosphates 
Na2 M V O (P O4)2, M = Ca and Sr
;
loop_
_citation_id
_citation_journal_abbrev
_citation_year
_citation_journal_volume
_citation_page_first
_citation_page_last
_citation_journal_id_ASTM
primary 'Journal of Solid State Chemistry' 2004 177 2875 2880 JSSCBI
_publ_author_name
;
Chernaya, V.V.;Tsirlin, A.A.;Shpanchenko, R.V.;Antipov, E.V.;Gippius, 
A.A.;Morozova, E.N.;D'yakov, V.;Hadermann, J.;Kaul, E.E.;Geibel, C.
;
_cell_length_a                     10.6476(3)
_cell_length_b                     6.6224(2)
_cell_length_c                     10.2537(3)
_cell_angle_alpha                  90
_cell_angle_beta                   90
_cell_angle_gamma                  90
_cell_volume                       723.02
_cell_formula_units_Z              4
_symmetry_space_group_name_H-M     'P n m a'
_symmetry_Int_Tables_number        62
_refine_ls_R_factor_all            .029
loop_
_symmetry_equiv_pos_site_id
_symmetry_equiv_pos_as_xyz
  1	'x+.5, y, -z+.5'
  2	'x, -y+.5, z'
  3	'-x+.5, y+.5, z+.5'
  4	'-x, -y, -z'
  5	'-x+.5, -y, z+.5'
  6	'-x, y+.5, -z'
  7	'x+.5, -y+.5, -z+.5'
  8	'x, y, z'
loop_
_atom_type_symbol
_atom_type_oxidation_number
Na1+	1
O2-	-2
P5+	5
Sr2+	2
V4+	4
loop_
_atom_site_label
_atom_site_type_symbol
_atom_site_symmetry_multiplicity
_atom_site_Wyckoff_symbol
_atom_site_fract_x
_atom_site_fract_y
_atom_site_fract_z
_atom_site_occupancy
_atom_site_attached_hydrogens
_atom_site_U_iso_or_equiv
Sr1 Sr2+ 4 c 0.5573(1) 0.250 0.5970(2) 1. 0 0.014(2) 
V1 V4+ 4 c 0.0268(2) 0.250 0.3113(2) 1. 0 0.012(2) 
P1 P5+ 4 c 0.3142(3) 0.250 0.4161(4) 1. 0 0.024(2) 
P2 P5+ 4 c 0.9161(3) 0.250 0.6304(3) 1. 0 0.015(2) 
Na1 Na1+ 8 d 0.7868(3) -0.0028(5) 0.3666(4) 1. 0 0.025(2) 
O1 O2- 4 c 0.1746(6) 0.250 0.4291(6) 1. 0 0.014(2) 
O2 O2- 8 d 0.9888(4) 0.0586(7) 0.6773(4) 1. 0 0.014(2) 
O3 O2- 4 c 0.9011(6) 0.250 0.4876(6) 1. 0 0.014(2) 
O4 O2- 8 d 0.3654(4) 0.0507(8) 0.4832(4) 1. 0 0.014(2) 
O5 O2- 4 c 0.8536(6) 0.250 0.2270(7) 1. 0 0.014(2) 
O6 O2- 4 c 0.6011(6) 0.250 0.3295(6) 1. 0 0.014(2) 
O7 O2- 4 c 0.7875(6) 0.250 0.7065(7) 1. 0 0.014(2) 

#End of data_99615-ICSD


