data_262265-ICSD
#?2014 by Fachinformationszentrum Karlsruhe, and the U.S. Secretary of 
#Commerce on behalf of the United States.  All rights reserved.
_database_code_ICSD                262265
_audit_creation_date               2012/02/01
_chemical_name_systematic          'Magnesium Dichloride Tetrahydrate'
_chemical_formula_structural       'Mg Cl2 (H2 O)4'
_chemical_formula_sum              'H8 Cl2 Mg1 O4'
_publ_section_title
;
Magnesium chloride tetrahydrate, Mg Cl2 * 4 H2 O
;
loop_
_citation_id
_citation_journal_abbrev
_citation_year
_citation_journal_volume
_citation_journal_issue
_citation_page_first
_citation_page_last
_citation_journal_id_ASTM
primary 'Acta Crystallographica, Section C: Crystal Structure Communications'
 2012 68 1 i4 i6 ACSCEE
_publ_author_name                  'Schmidt, H.;Hennings, E.;Voigt, W.'
_cell_length_a                     7.2557(3)
_cell_length_b                     8.4285(4)
_cell_length_c                     11.0412(6)
_cell_angle_alpha                  90.00
_cell_angle_beta                   90.00
_cell_angle_gamma                  90.00
_cell_volume                       675.22
_cell_formula_units_Z              4
_symmetry_space_group_name_H-M     'P b c n'
_symmetry_Int_Tables_number        60
_refine_ls_R_factor_all            .0158
loop_
_symmetry_equiv_pos_site_id
_symmetry_equiv_pos_as_xyz
  1	'x, -y, z+.5'
  2	'-x+.5, y+.5, z'
  3	'x+.5, y+.5, -z+.5'
  4	'-x, -y, -z'
  5	'-x, y, -z+.5'
  6	'x+.5, -y+.5, -z'
  7	'-x+.5, -y+.5, z+.5'
  8	'x, y, z'
loop_
_atom_type_symbol
_atom_type_oxidation_number
Cl1-	-1
H1+	1
Mg2+	2
O2-	-2
loop_
_atom_site_label
_atom_site_type_symbol
_atom_site_symmetry_multiplicity
_atom_site_Wyckoff_symbol
_atom_site_fract_x
_atom_site_fract_y
_atom_site_fract_z
_atom_site_occupancy
_atom_site_attached_hydrogens
_atom_site_U_iso_or_equiv
Cl1 Cl1- 8 d 0.23409(2) 0.877141(12) 0.098782(11) 1 0 0.01867(5) 
Mg1 Mg2+ 4 c 0.5000 0.87655(3) 0.2500 1 0 0.01483(7) 
O1 O2- 4 c 0.5000 0.63243(6) 0.2500 1 0 0.02356(13) 
O2 O2- 8 d 0.69074(8) 0.87599(5) 0.11275(4) 1 0 0.02306(9) 
O3 O2- 4 c 0.5000 1.12075(6) 0.2500 1 0 0.02312(13) 
H1 H1+ 8 d 0.7108(19) 0.9575(15) 0.0681(11) 1 0 0.041(3) 
H2 H1+ 8 d 0.700(2) 0.7982(17) 0.0687(11) 1 0 0.047(3) 
H3 H1+ 8 d 0.5621(18) 0.5754(16) 0.2937(10) 1 0 0.040(3) 
H4 H1+ 8 d 0.5625(18) 1.1751(17) 0.2918(11) 1 0 0.046(3) 

loop_
_atom_site_aniso_label
_atom_site_aniso_type_symbol
_atom_site_aniso_U_11
_atom_site_aniso_U_22
_atom_site_aniso_U_33
_atom_site_aniso_U_12
_atom_site_aniso_U_13
_atom_site_aniso_U_23
Cl1 Cl1- 0.02546(7) 0.01555(7) 0.01500(7) -0.00144(4) -0.00136(4) 
0.00006(5)
Mg1 Mg2+ 0.02027(12) 0.01077(11) 0.01345(11) 0.000 0.00217(8) 0.000
O1 O2- 0.0300(3) 0.0118(2) 0.0289(3) 0.000 -0.0096(2) 0.000
O2 O2- 0.0326(2) 0.01935(19) 0.01726(17) -0.00095(16) 0.00906(16) 
-0.00049(13)
O3 O2- 0.0292(3) 0.0115(2) 0.0287(3) 0.000 -0.0107(2) 0.000
#End of data_262265-ICSD


