data_27659-ICSD
#?2014 by Fachinformationszentrum Karlsruhe, and the U.S. Secretary of 
#Commerce on behalf of the United States.  All rights reserved.
_database_code_ICSD                27659
_audit_creation_date               1986/09/23
_audit_update_record               2008/02/01
_chemical_name_systematic          'Silver(II) Oxide'
_chemical_formula_structural       'Ag O'
_chemical_formula_sum              'Ag1 O1'
_publ_section_title
;
Magnetic properties and crystalline structure of Ag O
;
loop_
_citation_id
_citation_journal_abbrev
_citation_year
_citation_journal_volume
_citation_page_first
_citation_page_last
_citation_journal_id_ASTM
primary 'Journal of Inorganic and Nuclear Chemistry' 1960 13 28 31 JINCAO
_publ_author_name                  'McMillan, J.A.'
_cell_length_a                     5.85
_cell_length_b                     3.48
_cell_length_c                     5.5
_cell_angle_alpha                  90.
_cell_angle_beta                   107.5
_cell_angle_gamma                  90.
_cell_volume                       106.79
_cell_formula_units_Z              4
_symmetry_space_group_name_H-M     'P 1 21/c 1'
_symmetry_Int_Tables_number        14
loop_
_symmetry_equiv_pos_site_id
_symmetry_equiv_pos_as_xyz
  1	'x, -y+.5, z+.5'
  2	'-x, -y, -z'
  3	'-x, y+.5, -z+.5'
  4	'x, y, z'
loop_
_atom_type_symbol
_atom_type_oxidation_number
Ag2+	2
O2-	-2
loop_
_atom_site_label
_atom_site_type_symbol
_atom_site_symmetry_multiplicity
_atom_site_Wyckoff_symbol
_atom_site_fract_x
_atom_site_fract_y
_atom_site_fract_z
_atom_site_occupancy
_atom_site_attached_hydrogens
Ag1 Ag2+ 2 a 0 0 0 1. 0 
Ag2 Ag2+ 2 d 0.5 0 0.5 1. 0 
O1 O2- 4 e 0.75 0.25 0.25 1. 0 

#End of data_27659-ICSD


