data_2485-ICSD
#?2014 by Fachinformationszentrum Karlsruhe, and the U.S. Secretary of 
#Commerce on behalf of the United States.  All rights reserved.
_database_code_ICSD                2485
_audit_creation_date               1980/01/01
_audit_update_record               2010/02/01
_chemical_name_systematic          'Pentasodium Ferrate(III)'
_chemical_formula_structural       'Na5 (Fe O4)'
_chemical_formula_sum              'Fe1 Na5 O4'
_publ_section_title                'Zur Kenntnis von Na5 Fe O4'
loop_
_citation_id
_citation_journal_abbrev
_citation_year
_citation_journal_volume
_citation_page_first
_citation_page_last
_citation_journal_id_ASTM
primary 'Zeitschrift fuer Anorganische und Allgemeine Chemie (1950) (DE)'
 1978 446 77 86 ZAACAB
_publ_author_name                  'Brachtel, G.;Hoppe, R.'
_cell_length_a                     10.334
_cell_length_b                     5.974
_cell_length_c                     18.08199
_cell_angle_alpha                  90.
_cell_angle_beta                   90.
_cell_angle_gamma                  90.
_cell_volume                       1116.3
_cell_formula_units_Z              8
_symmetry_space_group_name_H-M     'P b c a'
_symmetry_Int_Tables_number        61
_refine_ls_R_factor_all            .038
loop_
_symmetry_equiv_pos_site_id
_symmetry_equiv_pos_as_xyz
  1	'x+.5, y, -z+.5'
  2	'x, -y+.5, z+.5'
  3	'-x+.5, y+.5, z'
  4	'-x, -y, -z'
  5	'-x+.5, -y, z+.5'
  6	'-x, y+.5, -z+.5'
  7	'x+.5, -y+.5, -z'
  8	'x, y, z'
loop_
_atom_type_symbol
_atom_type_oxidation_number
Fe3+	3
Na1+	1
O2-	-2
loop_
_atom_site_label
_atom_site_type_symbol
_atom_site_symmetry_multiplicity
_atom_site_Wyckoff_symbol
_atom_site_fract_x
_atom_site_fract_y
_atom_site_fract_z
_atom_site_occupancy
_atom_site_attached_hydrogens
Na1 Na1+ 8 c 0.1728(2) 0.1038(6) 0.8277(1) 1. 0 
Na2 Na1+ 8 c 0.0640(3) 0.0842(6) 0.4348(1) 1. 0 
Na3 Na1+ 8 c 0.4177(2) 0.1054(6) 0.7508(1) 1. 0 
Na4 Na1+ 8 c 0.3389 0.0924(6) 0.5012(1) 1. 0 
Na5 Na1+ 8 c 0.3005(2) 0.0751(5) 0.1386(1) 1. 0 
Fe1 Fe3+ 8 c 0.0398(1) 0.1739(2) 0.1236 1. 0 
O1 O2- 8 c 0.3630(3) 0.2639(9) 0.3745(2) 1. 0 
O2 O2- 8 c 0.1265(4) 0.2640(9) 0.2114(2) 1. 0 
O3 O2- 8 c 0.1326(4) 0.1987(9) 0.5454(2) 1. 0 
O4 O2- 8 c 0.4521(4) 0.1409(11) 0.6209(2) 1. 0 

loop_
_atom_site_aniso_label
_atom_site_aniso_type_symbol
_atom_site_aniso_U_11
_atom_site_aniso_U_22
_atom_site_aniso_U_33
_atom_site_aniso_U_12
_atom_site_aniso_U_13
_atom_site_aniso_U_23
Na1 Na1+ 0.0102(9) 0.0121(7) 0.0136(9) -.0047(12) -.0029(8) 0.0052(13)
Na2 Na1+ 0.0274(12) 0.0206(8) 0.0145(10) 0.0059(15) -.0088(10) -.0057(14)
Na3 Na1+ 0.0188(10) 0.0160(7) 0.0129(9) -.0059(13) 0.0038(9) -.0075(14)
Na4 Na1+ 0.0149(10) 0.0145(7) 0.0137(9) 0.0040(14) 0.0018(9) 0.0036(13)
Na5 Na1+ 0.0099(9) 0.0137(7) 0.0176(10) 0.0019(13) 0.0013(8) -.0008(13)
Fe1 Fe3+ 0.0043(3) 0.0042(5) 0.0044(3) 0.0006(4) 0.0004(3) -.0003(4)
O1 O2- 0.0067(15) 0.0108(10) 0.0150(16) 0.0009(22) -.0039(14) -.0037(22)
O2 O2- 0.0122(16) 0.0090(9) 0.0037(14) -.0029(22) 0.0006(13) -.0013(20)
O3 O2- 0.0125(16) 0.0107(10) 0.0090(15) 0.0027(22) 0.0025(14) -.0016(21)
O4 O2- 0.0106(16) 0.0094(10) 0.0083(15) 0.0009(22) 0.0007(14) 0.0010(21)
#End of data_2485-ICSD


