data_21014-ICSD
#?2014 by Fachinformationszentrum Karlsruhe, and the U.S. Secretary of 
#Commerce on behalf of the United States.  All rights reserved.
_database_code_ICSD                21014
_audit_creation_date               1980/01/01
_audit_update_record               1988/10/11
_chemical_name_systematic
;
Sodium Chlorate - Metastable High Temperature (255c) Phase Iii
;
_chemical_formula_structural       'Na (Cl O3)'
_chemical_formula_sum              'Cl1 Na1 O3'
_publ_section_title
;
Etude Structurale d'une Phase haute Temperature instable du Chlorate 
de Sodium
;
loop_
_citation_id
_citation_journal_abbrev
_citation_year
_citation_journal_volume
_citation_page_first
_citation_page_last
_citation_journal_id_ASTM
primary
;
Bulletin de la Societe Francaise de Mineralogie et de 
Cristallographie (72,1949-100,1977)
;
 1973 96 18 20 BUFCAE
_publ_author_name                  'Meyer, D.;Gasperin, M.'
_cell_length_a                     8.78(5)
_cell_length_b                     5.17(5)
_cell_length_c                     6.88(5)
_cell_angle_alpha                  90.
_cell_angle_beta                   110.(1)
_cell_angle_gamma                  90.
_cell_volume                       293.47
_cell_formula_units_Z              4
_symmetry_space_group_name_H-M     'P 1 21/a 1'
_symmetry_Int_Tables_number        14
_refine_ls_R_factor_all            .16
loop_
_symmetry_equiv_pos_site_id
_symmetry_equiv_pos_as_xyz
  1	'x+.5, -y+.5, z'
  2	'-x, -y, -z'
  3	'-x+.5, y+.5, -z'
  4	'x, y, z'
loop_
_atom_type_symbol
_atom_type_oxidation_number
Cl5+	5
Na1+	1
O2-	-2
loop_
_atom_site_label
_atom_site_type_symbol
_atom_site_symmetry_multiplicity
_atom_site_Wyckoff_symbol
_atom_site_fract_x
_atom_site_fract_y
_atom_site_fract_z
_atom_site_occupancy
_atom_site_attached_hydrogens
_atom_site_B_iso_or_equiv
Cl1 Cl5+ 4 e 0.023(2) 0.230(25) 0.176(3) 1. 0 1.93 
Na1 Na1+ 4 e 0.311(3) 0.784(31) 0.299(3) 1. 0 3.38 
O1 O2- 4 e 0.103(6) 0.029(39) 0.350(9) 1. 0 3.76 
O2 O2- 4 e 0.349(4) 0.338(28) 0.084(5) 1. 0 2.33 
O3 O2- 4 e 0.051(8) 0.431(34) 0.252(13) 1. 0 3.58 

#End of data_21014-ICSD


