data_160328-ICSD
#?2014 by Fachinformationszentrum Karlsruhe, and the U.S. Secretary of 
#Commerce on behalf of the United States.  All rights reserved.
_database_code_ICSD                160328
_audit_creation_date               2008/08/01
_chemical_name_systematic          'Calcium Platinate'
_chemical_formula_structural       'Ca (Pt O3)'
_chemical_formula_sum              'Ca1 O3 Pt1'
_publ_section_title
;
Ca Pt O3 as a novel post-perovskite oxide
;
loop_
_citation_id
_citation_journal_abbrev
_citation_year
_citation_journal_volume
_citation_page_first
_citation_page_last
_citation_journal_id_ASTM
primary 'Physics and Chemistry of Minerals' 2008 35 189 195 PCMIDU
_publ_author_name
;
Ohgushi, K.;Matsushita, Y.;Miyajima, N.;Katsuya, Y.;Tanaka, M.;Izumi, 
F.;Gotou, H.;Ueda, Y.;Yagi, T.
;
_cell_length_a                     3.12607(1)
_cell_length_b                     9.91983(4)
_cell_length_c                     7.35059(3)
_cell_angle_alpha                  90.
_cell_angle_beta                   90.
_cell_angle_gamma                  90.
_cell_volume                       227.94
_cell_formula_units_Z              4
_symmetry_space_group_name_H-M     'C m c m'
_symmetry_Int_Tables_number        63
_refine_ls_R_factor_all            .04
loop_
_symmetry_equiv_pos_site_id
_symmetry_equiv_pos_as_xyz
  1	'-x, y, -z+.5'
  2	'-x, -y, z+.5'
  3	'-x, y, z'
  4	'-x, -y, -z'
  5	'x, -y, z+.5'
  6	'x, y, -z+.5'
  7	'x, -y, -z'
  8	'x, y, z'
  9	'-x+.5, y+.5, -z+.5'
 10	'-x+.5, -y+.5, z+.5'
 11	'-x+.5, y+.5, z'
 12	'-x+.5, -y+.5, -z'
 13	'x+.5, -y+.5, z+.5'
 14	'x+.5, y+.5, -z+.5'
 15	'x+.5, -y+.5, -z'
 16	'x+.5, y+.5, z'
loop_
_atom_type_symbol
_atom_type_oxidation_number
Ca2+	2
O2-	-2
Pt4+	4
loop_
_atom_site_label
_atom_site_type_symbol
_atom_site_symmetry_multiplicity
_atom_site_Wyckoff_symbol
_atom_site_fract_x
_atom_site_fract_y
_atom_site_fract_z
_atom_site_occupancy
_atom_site_attached_hydrogens
Ca1 Ca2+ 4 c 0 0.2500(2) 0.250 1. 0 
Pt1 Pt4+ 4 a 0 0 0 1. 0 
O1 O2- 4 c 0.5 0.4253(6) 0.250 1. 0 
O2 O2- 8 f 0.5 0.1230(3) 0.0451(5) 1. 0 

#End of data_160328-ICSD


