data_75126-ICSD
#?2014 by Fachinformationszentrum Karlsruhe, and the U.S. Secretary of 
#Commerce on behalf of the United States.  All rights reserved.
_database_code_ICSD                75126
_audit_creation_date               1995/10/17
_audit_update_record               2007/08/01
_chemical_name_systematic
;
Heptasilver Disulfide Tetrathioarsenate(V)
;
_chemical_formula_structural       'Ag7 S2 (As S4)'
_chemical_formula_sum              'Ag7 As1 S6'
_chemical_name_mineral             Billingsleyite
_publ_section_title
;
Hydrothermal synthesis and crystal structure determination of 
heptasilver(I)-disulfur-tetrathioarsenate(V), Ag7 S2 (As S4), with a 
survey on thioarsenate anions
;
loop_
_citation_id
_citation_journal_abbrev
_citation_year
_citation_journal_volume
_citation_page_first
_citation_page_last
_citation_journal_id_ASTM
primary 'Journal of Solid State Chemistry' 1994 112 170 175 JSSCBI
2
;
Oesterreische Akademie der Wissenschaften, Mathematich-
Naturwissenschaftliche Klasse, Sitzungsberichte
;
 1992 129 9 11 OAWCAY
3 'Phase Transition' 1992 38 127 220 PHTRDP
_publ_author_name                  'Pertlik, F.'
_cell_length_a                     10.475(1)
_cell_length_b                     10.475(1)
_cell_length_c                     10.475(1)
_cell_angle_alpha                  90.
_cell_angle_beta                   90.
_cell_angle_gamma                  90.
_cell_volume                       1149.38
_cell_formula_units_Z              4
_symmetry_space_group_name_H-M     'P 21 3'
_symmetry_Int_Tables_number        198
_refine_ls_R_factor_all            .044
loop_
_symmetry_equiv_pos_site_id
_symmetry_equiv_pos_as_xyz
  1	'-z+.5, -x, y+.5'
  2	'-y+.5, -z, x+.5'
  3	'-x+.5, -y, z+.5'
  4	'-z, x+.5, -y+.5'
  5	'-y, z+.5, -x+.5'
  6	'-x, y+.5, -z+.5'
  7	'z+.5, -x+.5, -y'
  8	'y+.5, -z+.5, -x'
  9	'x+.5, -y+.5, -z'
 10	'z, x, y'
 11	'y, z, x'
 12	'x, y, z'
loop_
_atom_type_symbol
_atom_type_oxidation_number
Ag1+	1
As5+	5
S2-	-2
loop_
_atom_site_label
_atom_site_type_symbol
_atom_site_symmetry_multiplicity
_atom_site_Wyckoff_symbol
_atom_site_fract_x
_atom_site_fract_y
_atom_site_fract_z
_atom_site_occupancy
_atom_site_attached_hydrogens
Ag1 Ag1+ 4 a 0.3960(1) 0.3960(1) 0.3960(1) 1. 0 
Ag2 Ag1+ 12 b 0.2315(1) 0.0233(1) 0.2590(1) 1. 0 
Ag3 Ag1+ 12 b 0.3466(1) 0.8246(1) 0.9849(1) 1. 0 
As1 As5+ 4 a 0.9973(1) 0.9973(1) 0.9973(1) 1. 0 
S1 S2- 4 a 0.5298(3) 0.5298(3) 0.5298(3) 1. 0 
S2 S2- 4 a 0.8764(3) 0.8764(3) 0.8764(3) 1. 0 
S3 S2- 4 a 0.2632(3) 0.2632(3) 0.2632(3) 1. 0 
S4 S2- 12 b 0.1221(3) 0.8734(3) 0.1075(3) 1. 0 

loop_
_atom_site_aniso_label
_atom_site_aniso_type_symbol
_atom_site_aniso_U_11
_atom_site_aniso_U_22
_atom_site_aniso_U_33
_atom_site_aniso_U_12
_atom_site_aniso_U_13
_atom_site_aniso_U_23
Ag1 Ag1+ 0.0474(6) 0.0474(6) 0.0474(6) -0.0136(6) -0.0136(6) -0.0136(6)
Ag2 Ag1+ 0.0600(6) 0.0285(6) 0.0583(8) 0.0027(7) -0.0312(8) -0.0050(7)
Ag3 Ag1+ 0.0495(8) 0.0329(7) 0.0546(9) 0.0001(7) 0.0015(7) 0.0048(6)
As1 As5+ 0.0141(4) 0.0141(4) 0.0141(4) 0.0000(5) 0.0000(5) 0.0000(5)
S1 S2- 0.0240(12) 0.0240(12) 0.0240(12) -0.0003(15) -0.0003(15) -0.0003(15)
S2 S2- 0.0246(14) 0.0246(14) 0.0246(14) -0.0031(15) -0.0031(15) -0.0031(15)
S3 S2- 0.0219(11) 0.0219(11) 0.0219(11) -0.0033(13) -0.0033(13) -0.0033(13)
S4 S2- 0.0205(18) 0.0176(17) 0.0224(17) 0.0019(13) -0.0023(15) 0.0017(15)
#End of data_75126-ICSD


