data_41562-ICSD
#?2014 by Fachinformationszentrum Karlsruhe, and the U.S. Secretary of 
#Commerce on behalf of the United States.  All rights reserved.
_database_code_ICSD                41562
_audit_creation_date               1999/11/30
_chemical_name_systematic
;
Aluminium Sulfate(VI) Fluoride Pentahydrate
;
_chemical_formula_structural       'Al (S O4) F (H2 O)5'
_chemical_formula_sum              'H10 Al1 F1 O9 S1'
_chemical_name_mineral             Khademite
_publ_section_title
;
Structure cristalline de la khademite Al (S O4) F * 5 H2 O 
temperatures
;
loop_
_citation_id
_citation_journal_abbrev
_citation_year
_citation_journal_volume
_citation_page_first
_citation_page_last
_citation_journal_id_ASTM
primary 'Bulletin de Mineralogie (101,1978-)' 1981 104 19 22 BULMD9
_publ_author_name
;
Bachet, B.;Cesbron, F.;Chevalier, R.
;
_cell_length_a                     11.181(4)
_cell_length_b                     13.048(5)
_cell_length_c                     10.885(4)
_cell_angle_alpha                  90.
_cell_angle_beta                   90.
_cell_angle_gamma                  90.
_cell_volume                       1588.01
_cell_formula_units_Z              8
_symmetry_space_group_name_H-M     'P c a b'
_symmetry_Int_Tables_number        61
_refine_ls_R_factor_all            .052
loop_
_symmetry_equiv_pos_site_id
_symmetry_equiv_pos_as_xyz
  1	'x+.5, -y+.5, z'
  2	'x, y+.5, -z+.5'
  3	'-x+.5, y, z+.5'
  4	'-x, -y, -z'
  5	'-x+.5, y+.5, -z'
  6	'-x, -y+.5, z+.5'
  7	'x+.5, -y, -z+.5'
  8	'x, y, z'
loop_
_atom_type_symbol
_atom_type_oxidation_number
Al3+	3
F1-	-1
H1+	1
O2-	-2
S6+	6
loop_
_atom_site_label
_atom_site_type_symbol
_atom_site_symmetry_multiplicity
_atom_site_Wyckoff_symbol
_atom_site_fract_x
_atom_site_fract_y
_atom_site_fract_z
_atom_site_occupancy
_atom_site_attached_hydrogens
_atom_site_B_iso_or_equiv
Al1 Al3+ 4 a 0 0.5 0.5 1. 0 0.4 
Al2 Al3+ 4 b 0 0.5 0 1. 0 0.5 
S1 S6+ 8 c 0.2384(1) 0.2475(1) 0.2468(1) 1. 0 0.6 
O1 O2- 8 c 0.1686(4) 0.2549(3) 0.1320(4) 1. 0 1.7 
O2 O2- 8 c 0.3055(4) 0.1500(3) 0.2462(4) 1. 0 2. 
O3 O2- 8 c 0.1579(4) 0.2501(3) 0.3545(4) 1. 0 1.6 
O4 O2- 8 c 0.3209(4) 0.3357(3) 0.2536(4) 1. 0 2. 
F1 F1- 8 c 0.0294(3) 0.5099(2) 0.1559(3) 1. 0 1.1 
O5 O2- 8 c 0.0098(3) 0.3756(3) 0.5882(4) 1. 0 1.1 
O6 O2- 8 c 0.1438(3) 0.4151(3) -.0207(4) 1. 0 1.2 
O7 O2- 8 c -.0943(4) 0.3821(3) 0.0288(4) 1. 0 1.5 
O8 O2- 8 c 0.0689(3) 0.4359(3) 0.3657(4) 1. 0 1.2 
O9 O2- 8 c -.1544(3) 0.4637(3) 0.4420(4) 1. 0 1.2 
H1 H1+ 8 c 0.057 0.357 0.648 1. 0 2. 
H2 H1+ 8 c -.047 0.324 0.598 1. 0 2. 
H3 H1+ 8 c 0.139 0.359 0.034 1. 0 2. 
H4 H1+ 8 c 0.149 0.388 -.092 1. 0 2. 
H5 H1+ 8 c -.12 0.34 -.032 1. 0 2. 
H6 H1+ 8 c -.121 0.371 0.103 1. 0 2. 
H7 H1+ 8 c 0.06 0.459 0.284 1. 0 2. 
H8 H1+ 8 c 0.102 0.375 0.365 1. 0 2. 
H9 H1+ 8 c -.168 0.43 0.373 1. 0 2. 
H10 H1+ 8 c -.216 0.495 0.467 1. 0 2. 

#End of data_41562-ICSD


