data_23922-ICSD
#?2014 by Fachinformationszentrum Karlsruhe, and the U.S. Secretary of 
#Commerce on behalf of the United States.  All rights reserved.
_database_code_ICSD                23922
_audit_creation_date               1980/01/01
_audit_update_record               2010/02/01
_chemical_name_systematic          'Calcium Tecto-dialumodisilicate'
_chemical_formula_structural       'Ca (Al2 Si2 O8)'
_chemical_formula_sum              'Al2 Ca1 O8 Si2'
_chemical_name_mineral             Anorthite
_publ_section_title
;
The structure of anorthite, Ca Al2 Si2 O8. Structure analysis
;
loop_
_citation_id
_citation_journal_abbrev
_citation_year
_citation_journal_volume
_citation_page_first
_citation_page_last
_citation_journal_id_ASTM
primary 'Acta Crystallographica (1,1948-23,1967)' 1962 15 1005 1017 ACCRA9
2 'Acta Crystallographica (1,1948-23,1967)' 1962 15 1017 1035 ACCRA9
_publ_author_name
;
Kempster, C.J.E.;Megaw, H.D.;Radoslovich, E.W.
;
_cell_length_a                     8.1768
_cell_length_b                     12.8768
_cell_length_c                     14.169
_cell_angle_alpha                  93.17
_cell_angle_beta                   115.85
_cell_angle_gamma                  91.22
_cell_volume                       1338.82
_cell_formula_units_Z              8
_symmetry_space_group_name_H-M     'P -1'
_symmetry_Int_Tables_number        2
_refine_ls_R_factor_all            .102
loop_
_symmetry_equiv_pos_site_id
_symmetry_equiv_pos_as_xyz
  1	'-x, -y, -z'
  2	'x, y, z'
loop_
_atom_type_symbol
_atom_type_oxidation_number
Al3+	3
Ca2+	2
O2-	-2
Si4+	4
loop_
_atom_site_label
_atom_site_type_symbol
_atom_site_symmetry_multiplicity
_atom_site_Wyckoff_symbol
_atom_site_fract_x
_atom_site_fract_y
_atom_site_fract_z
_atom_site_occupancy
_atom_site_attached_hydrogens
_atom_site_B_iso_or_equiv
Ca1 Ca2+ 2 i 0.2647(7) 0.9844(7) 0.0873(7) 1. 0 1. 
Ca2 Ca2+ 2 i 0.2684(7) 0.0312(7) 0.5438(7) 1. 0 1. 
Ca3 Ca2+ 2 i 0.7732(7) 0.5334(7) 0.5422(7) 1. 0 1. 
Ca4 Ca2+ 2 i 0.7636(7) 0.5067(7) 0.0740(7) 1. 0 1. 
Si1 Si4+ 2 i 0.0099(15) 0.1584(15) 0.1043(15) 1. 0 0.2 
Al1 Al3+ 2 i 0.0069(15) 0.1609(15) 0.6125(15) 1. 0 0.2 
Si2 Si4+ 2 i 0.5061(15) 0.6567(15) 0.6033(15) 1. 0 0.2 
Al2 Al3+ 2 i 0.4987(15) 0.6675(15) 0.1125(15) 1. 0 0.2 
Al3 Al3+ 2 i 0.9928(15) 0.8146(15) 0.1190(15) 1. 0 0.2 
Si3 Si4+ 2 i 0.0059(15) 0.8154(15) 0.6129(15) 1. 0 0.2 
Al4 Al3+ 2 i 0.5078(15) 0.3154(15) 0.6212(15) 1. 0 0.2 
Si4 Si4+ 2 i 0.5034(15) 0.3207(15) 0.1091(15) 1. 0 0.2 
Al5 Al3+ 2 i 0.6841(15) 0.1134(15) 0.1512(15) 1. 0 0.2 
Si5 Si4+ 2 i 0.6818(15) 0.1029(15) 0.6644(15) 1. 0 0.2 
Al6 Al3+ 2 i 0.1906(15) 0.6123(15) 0.6681(15) 1. 0 0.2 
Si6 Si4+ 2 i 0.1714(15) 0.6062(15) 0.1504(15) 1. 0 0.2 
Si7 Si4+ 2 i 0.6749(15) 0.8828(15) 0.1881(15) 1. 0 0.2 
Al7 Al3+ 2 i 0.6799(15) 0.8717(15) 0.6715(15) 1. 0 0.2 
Si8 Si4+ 2 i 0.1759(15) 0.3802(15) 0.6744(15) 1. 0 0.2 
Al8 Al3+ 2 i 0.1865(15) 0.3790(15) 0.1815(15) 1. 0 0.2 
O1 O2- 2 i 0.0276(38) 0.1234(38) 0.9957(38) 1. 0 0.6 
O2 O2- 2 i 0.9814(38) 0.1237(38) 0.4808(38) 1. 0 0.6 
O3 O2- 2 i 0.4873(38) 0.6256(38) 0.4865(38) 1. 0 0.6 
O4 O2- 2 i 0.5129(38) 0.6256(38) 0.9970(38) 1. 0 0.6 
O5 O2- 2 i 0.5724(38) 0.9909(38) 0.1451(38) 1. 0 0.6 
O6 O2- 2 i 0.5732(38) 0.9901(38) 0.6398(38) 1. 0 0.6 
O7 O2- 2 i 0.0732(38) 0.4876(38) 0.6330(38) 1. 0 0.6 
O8 O2- 2 i 0.0755(38) 0.4925(38) 0.1363(38) 1. 0 0.6 
O9 O2- 2 i 0.8114(38) 0.1027(38) 0.0792(38) 1. 0 0.6 
O10 O2- 2 i 0.8071(38) 0.0996(38) 0.6046(38) 1. 0 0.6 
O11 O2- 2 i 0.3363(38) 0.5938(38) 0.6045(38) 1. 0 0.6 
O12 O2- 2 i 0.2912(38) 0.6036(38) 0.0819(38) 1. 0 0.6 
O13 O2- 2 i 0.8148(38) 0.8516(38) 0.1454(38) 1. 0 0.6 
O14 O2- 2 i 0.8090(38) 0.8510(38) 0.6018(38) 1. 0 0.6 
O15 O2- 2 i 0.2983(38) 0.3575(38) 0.6113(38) 1. 0 0.6 
O16 O2- 2 i 0.3382(38) 0.3606(38) 0.1309(38) 1. 0 0.6 
O17 O2- 2 i 0.0120(38) 0.2780(38) 0.1351(38) 1. 0 0.6 
O18 O2- 2 i 0.0177(38) 0.2900(38) 0.6486(38) 1. 0 0.6 
O19 O2- 2 i 0.5082(38) 0.7778(38) 0.6311(38) 1. 0 0.6 
O20 O2- 2 i 0.5102(38) 0.7969(38) 0.1500(38) 1. 0 0.6 
O21 O2- 2 i 0.0004(38) 0.6802(38) 0.1063(38) 1. 0 0.6 
O22 O2- 2 i 0.0083(38) 0.6898(38) 0.6017(38) 1. 0 0.6 
O23 O2- 2 i 0.5150(38) 0.1794(38) 0.6090(38) 1. 0 0.6 
O24 O2- 2 i 0.5067(38) 0.1947(38) 0.0974(38) 1. 0 0.6 
O25 O2- 2 i 0.1795(38) 0.1072(38) 0.1919(38) 1. 0 0.6 
O26 O2- 2 i 0.2153(38) 0.1057(38) 0.6862(38) 1. 0 0.6 
O27 O2- 2 i 0.6992(38) 0.6031(38) 0.6779(38) 1. 0 0.6 
O28 O2- 2 i 0.6921(38) 0.6014(38) 0.2000(38) 1. 0 0.6 
O29 O2- 2 i 0.2027(38) 0.8723(38) 0.2106(38) 1. 0 0.6 
O30 O2- 2 i 0.1754(38) 0.8557(38) 0.7170(38) 1. 0 0.6 
O31 O2- 2 i 0.6861(38) 0.3637(38) 0.7335(38) 1. 0 0.6 
O32 O2- 2 i 0.6999(38) 0.3691(38) 0.1993(38) 1. 0 0.6 

#End of data_23922-ICSD


