data_189150-ICSD
#?2014 by Fachinformationszentrum Karlsruhe, and the U.S. Secretary of 
#Commerce on behalf of the United States.  All rights reserved.
_database_code_ICSD                189150
_audit_creation_date               2014/02/01
_chemical_name_systematic          'Potassium Silver(II) Trifluoride'
_chemical_formula_structural       'K (Ag F3)'
_chemical_formula_sum              'Ag1 F3 K1'
_publ_section_title
;
Structural transition and unusually strong antiferromagnetic 
superexchange coupling in perovskite K Ag F3
;
loop_
_citation_id
_citation_journal_abbrev
_citation_year
_citation_journal_volume
_citation_journal_issue
_citation_page_first
_citation_page_last
_citation_journal_id_ASTM
primary 'ChemComm - Chemical Communications' 2013 49 56 6262 6264 CHCOFS
_publ_author_name
;
Dominik Kurzydlowski;Zoran Mazej;Zvonko Jaglicic;Yaroslav 
Filinchuk;Wojciech Grochala
;
_cell_length_a                     6.3815(9)
_cell_length_b                     8.254(1)
_cell_length_c                     6.0581(8)
_cell_angle_alpha                  90.
_cell_angle_beta                   90.
_cell_angle_gamma                  90.
_cell_volume                       319.1
_cell_formula_units_Z              4
_symmetry_space_group_name_H-M     'P n m a'
_symmetry_Int_Tables_number        62
loop_
_symmetry_equiv_pos_site_id
_symmetry_equiv_pos_as_xyz
  1	'x+.5, y, -z+.5'
  2	'x, -y+.5, z'
  3	'-x+.5, y+.5, z+.5'
  4	'-x, -y, -z'
  5	'-x+.5, -y, z+.5'
  6	'-x, y+.5, -z'
  7	'x+.5, -y+.5, -z+.5'
  8	'x, y, z'
loop_
_atom_type_symbol
_atom_type_oxidation_number
Ag2+	2
F1-	-1
K1+	1
loop_
_atom_site_label
_atom_site_type_symbol
_atom_site_symmetry_multiplicity
_atom_site_Wyckoff_symbol
_atom_site_fract_x
_atom_site_fract_y
_atom_site_fract_z
_atom_site_occupancy
_atom_site_attached_hydrogens
_atom_site_U_iso_or_equiv
Ag1 Ag2+ 4 a 0 0 0 1. 0 0.0026(8) 
K1 K1+ 4 c 0.0529(9) 0.250 0.486(2) 1. 0 0.0026(8) 
F1 F1- 4 c 0.483(4) 0.250 0.579(2) 1. 0 0.003(3) 
F2 F1- 8 d 0.317(2) 0.469(2) 0.236(2) 1. 0 0.003(2) 

#End of data_189150-ICSD


