data_424545-ICSD
#?2014 by Fachinformationszentrum Karlsruhe, and the U.S. Secretary of 
#Commerce on behalf of the United States.  All rights reserved.
_database_code_ICSD                424545
_audit_creation_date               2013/02/01
_chemical_name_systematic          'Zinc Tetraborate - Alpha Phase'
_chemical_formula_structural       'Zn (B4 O7)'
_chemical_formula_sum              'B4 O7 Zn1'
_publ_section_title
;
Structure, elasticity, thermodynamics and high pressure behavior of 
Zn B4 O7 and Cd B4 O7
;
loop_
_citation_id
_citation_journal_abbrev
_citation_year
_citation_journal_volume
_citation_journal_issue
_citation_page_first
_citation_page_last
_citation_journal_id_ASTM
primary 'Solid State Sciences' 2012 14 8 1080 1085 SSSCFJ
_publ_author_name
;
Winkler, B.;Castellanos Guzman, A.G.;Wiehl, L.;Bayarjargal, 
L.;Milman, V.
;
_cell_length_a                     8.1093(2)
_cell_length_b                     8.6340(2)
_cell_length_c                     13.7200(3)
_cell_angle_alpha                  90.00
_cell_angle_beta                   90.00
_cell_angle_gamma                  90.00
_cell_volume                       960.62
_cell_formula_units_Z              8
_symmetry_space_group_name_H-M     'P b c a'
_symmetry_Int_Tables_number        61
_refine_ls_R_factor_all            .0253
loop_
_symmetry_equiv_pos_site_id
_symmetry_equiv_pos_as_xyz
  1	'x+.5, y, -z+.5'
  2	'x, -y+.5, z+.5'
  3	'-x+.5, y+.5, z'
  4	'-x, -y, -z'
  5	'-x+.5, -y, z+.5'
  6	'-x, y+.5, -z+.5'
  7	'x+.5, -y+.5, -z'
  8	'x, y, z'
loop_
_atom_type_symbol
_atom_type_oxidation_number
B3+	3
O2-	-2
Zn2+	2
loop_
_atom_site_label
_atom_site_type_symbol
_atom_site_symmetry_multiplicity
_atom_site_Wyckoff_symbol
_atom_site_fract_x
_atom_site_fract_y
_atom_site_fract_z
_atom_site_occupancy
_atom_site_attached_hydrogens
_atom_site_U_iso_or_equiv
Zn1 Zn2+ 8 c 0.39052(3) 0.37970(3) 0.117513(16) 1 0 0.01132(12) 
B1 B3+ 8 c 0.5819(3) 0.1996(2) 0.43640(15) 1 0 0.0100(4) 
B2 B3+ 8 c 0.4673(3) 0.1512(3) 0.26898(16) 1 0 0.0113(4) 
B3 B3+ 8 c 0.5305(3) 0.4183(2) 0.33234(15) 1 0 0.0107(4) 
B4 B3+ 8 c 0.3342(3) 0.3634(2) 0.46282(15) 1 0 0.0111(4) 
O1 O2- 8 c 0.43495(17) 0.24421(17) 0.49713(10) 1 0 0.0122(3) 
O2 O2- 8 c 0.68515(18) 0.10712(15) 0.49559(11) 1 0 0.0129(3) 
O3 O2- 8 c 0.52252(18) 0.09375(15) 0.35693(10) 1 0 0.0116(3) 
O4 O2- 8 c 0.60228(16) 0.55771(16) 0.29772(10) 1 0 0.0116(3) 
O5 O2- 8 c 0.47954(18) 0.30744(15) 0.24853(10) 1 0 0.0136(3) 
O6 O2- 8 c 0.65191(18) 0.33599(17) 0.39131(9) 1 0 0.0102(3) 
O7 O2- 8 c 0.38137(18) 0.4496(2) 0.38641(11) 1 0 0.0155(3) 

loop_
_atom_site_aniso_label
_atom_site_aniso_type_symbol
_atom_site_aniso_U_11
_atom_site_aniso_U_22
_atom_site_aniso_U_33
_atom_site_aniso_U_12
_atom_site_aniso_U_13
_atom_site_aniso_U_23
Zn1 Zn2+ 0.01161(16) 0.01139(16) 0.01097(16) -0.00153(8) -0.00072(7) 
-0.00171(7)
B1 B3+ 0.0113(9) 0.0087(9) 0.0101(9) -0.0001(7) 0.0005(7) -0.0001(7)
B2 B3+ 0.0104(9) 0.0114(9) 0.0120(9) -0.0001(7) 0.0000(7) -0.0006(7)
B3 B3+ 0.0125(9) 0.0086(9) 0.0109(9) -0.0009(7) -0.0004(7) 0.0010(7)
B4 B3+ 0.0110(9) 0.0110(9) 0.0113(9) -0.0002(7) 0.0002(7) -0.0012(7)
O1 O2- 0.0127(6) 0.0120(6) 0.0118(6) 0.0009(5) 0.0033(5) 0.0026(5)
O2 O2- 0.0113(7) 0.0112(7) 0.0164(7) -0.0013(5) -0.0040(5) 0.0038(5)
O3 O2- 0.0156(7) 0.0083(6) 0.0109(6) -0.0002(5) -0.0028(5) -0.0003(5)
O4 O2- 0.0128(6) 0.0099(6) 0.0122(7) -0.0022(5) -0.0033(5) 0.0023(5)
O5 O2- 0.0189(7) 0.0103(6) 0.0115(6) -0.0008(5) -0.0046(5) 0.0009(5)
O6 O2- 0.0102(6) 0.0093(6) 0.0109(6) -0.0012(5) 0.0001(5) 0.0014(5)
O7 O2- 0.0128(7) 0.0182(8) 0.0154(7) 0.0051(5) 0.0040(5) 0.0068(5)
#End of data_424545-ICSD


