data_52586-ICSD
#?2014 by Fachinformationszentrum Karlsruhe, and the U.S. Secretary of 
#Commerce on behalf of the United States.  All rights reserved.
_database_code_ICSD                52586
_audit_creation_date               2003/04/01
_chemical_name_systematic          'Silver Potassium Selenide'
_chemical_formula_structural       'Ag K Se'
_chemical_formula_sum              'Ag1 K1 Se1'
_publ_section_title
;
Beitraege zu den Stabilitaetskriterien des Pb F Cl-typs: Darstellung 
und Struktur von K Ag Se
;
loop_
_citation_id
_citation_journal_abbrev
_citation_year
_citation_journal_volume
_citation_page_first
_citation_page_last
_citation_journal_id_ASTM
primary 'Journal of the Less-Common Metals' 1981 80 59 69 JCOMAH
_publ_author_name                  'Savelsberg, G.;Schaefer, H.'
_cell_length_a                     4.52(1)
_cell_length_b                     4.52
_cell_length_c                     7.59(2)
_cell_angle_alpha                  90.
_cell_angle_beta                   90.
_cell_angle_gamma                  90.
_cell_volume                       155.07
_cell_formula_units_Z              2
_symmetry_space_group_name_H-M     'P 4/n m m S'
_symmetry_Int_Tables_number        129
_refine_ls_R_factor_all            .072
loop_
_symmetry_equiv_pos_site_id
_symmetry_equiv_pos_as_xyz
  1	'-y+.5, -x+.5, z'
  2	'y+.5, x+.5, z'
  3	'-y, -x, -z'
  4	'y, x, -z'
  5	'y+.5, -x+.5, z'
  6	'-y+.5, x+.5, z'
  7	'y, -x, -z'
  8	'-y, x, -z'
  9	'x+.5, -y+.5, -z'
 10	'-x+.5, y+.5, -z'
 11	'x, -y, z'
 12	'-x, y, z'
 13	'-x+.5, -y+.5, -z'
 14	'x+.5, y+.5, -z'
 15	'-x, -y, z'
 16	'x, y, z'
loop_
_atom_type_symbol
_atom_type_oxidation_number
Ag1+	1
K1+	1
Se2-	-2
loop_
_atom_site_label
_atom_site_type_symbol
_atom_site_symmetry_multiplicity
_atom_site_Wyckoff_symbol
_atom_site_fract_x
_atom_site_fract_y
_atom_site_fract_z
_atom_site_occupancy
_atom_site_attached_hydrogens
_atom_site_U_iso_or_equiv
Ag1 Ag1+ 2 a 0 0 0 1. 0 0.0171(23) 
K1 K1+ 2 c 0 0.5 0.6579(26) 1. 0 0.0250(63) 
Se1 Se2- 2 c 0 0.5 0.2158(11) 1. 0 0.0133(30) 

#End of data_52586-ICSD


