data_86626-ICSD
#?2014 by Fachinformationszentrum Karlsruhe, and the U.S. Secretary of 
#Commerce on behalf of the United States.  All rights reserved.
_database_code_ICSD                86626
_audit_creation_date               2000/07/15
_chemical_name_systematic
;
Disodium Magnesium Digadolinium Catena-tetrasilicate Difluoride
;
_chemical_formula_structural       'Na2 Mg Gd2 (Si4 O12) F2'
_chemical_formula_sum              'F2 Gd2 Mg1 Na2 O12 Si4'
_publ_section_title
;
The crystal structure of Na2 Mg Gd2 (Si4 O12) F2 and its relationship 
with leucophanite
;
loop_
_citation_id
_citation_journal_abbrev
_citation_year
_citation_journal_volume
_citation_page_first
_citation_page_last
_citation_journal_id_ASTM
primary 'Canadian Mineralogist' 1998 36 1039 1043 CAMIA6
_publ_author_name                  'Maisonneuve, V.;le Blanc, M.'
_cell_length_a                     5.178(3)
_cell_length_b                     7.510(2)
_cell_length_c                     14.381(4)
_cell_angle_alpha                  90.
_cell_angle_beta                   90.22(2)
_cell_angle_gamma                  90.
_cell_volume                       559.23
_cell_formula_units_Z              2
_symmetry_space_group_name_H-M     'P 1 21/c 1'
_symmetry_Int_Tables_number        14
_refine_ls_R_factor_all            .039
loop_
_symmetry_equiv_pos_site_id
_symmetry_equiv_pos_as_xyz
  1	'x, -y+.5, z+.5'
  2	'-x, -y, -z'
  3	'-x, y+.5, -z+.5'
  4	'x, y, z'
loop_
_atom_type_symbol
_atom_type_oxidation_number
F1-	-1
Gd3+	3
Mg2+	2
Na1+	1
O2-	-2
Si4+	4
loop_
_atom_site_label
_atom_site_type_symbol
_atom_site_symmetry_multiplicity
_atom_site_Wyckoff_symbol
_atom_site_fract_x
_atom_site_fract_y
_atom_site_fract_z
_atom_site_occupancy
_atom_site_attached_hydrogens
_atom_site_B_iso_or_equiv
Gd1 Gd3+ 4 e 0.51375(5) 0.22882(3) 0.95706(2) 1. 0 0.427(7) 
Si1 Si4+ 4 e 0.0231(3) 0.2407(2) 0.8140(1) 1. 0 0.43(2) 
Si2 Si4+ 4 e 0.0370(3) 0.3718(2) 0.6149(1) 1. 0 0.42(2) 
Mg1 Mg2+ 2 c 0 0 0.5 1. 0 0.49(3) 
Na1 Na1+ 4 e 0.5040(6) 0.4570(5) 0.2106(2) 1. 0 1.89(5) 
F1 F1- 4 e 0.3366(7) 0.4607(5) 0.0610(2) 1. 0 0.70(4) 
O1 O2- 4 e 0.1443(8) 0.2726(6) 0.7098(3) 1. 0 0.70(5) 
O2 O2- 4 e 0.7152(8) 0.2423(5) 0.8137(3) 1. 0 0.70(5) 
O3 O2- 4 e 0.1390(8) 0.0418(5) 0.8471(3) 1. 0 0.62(5) 
O4 O2- 4 e 0.1636(8) 0.3733(6) 0.8853(3) 1. 0 0.60(5) 
O5 O2- 4 e 0.8602(8) 0.2398(5) 0.5535(3) 1. 0 0.67(5) 
O6 O2- 4 e 0.2868(8) 0.4433(5) 0.5595(3) 1. 0 0.68(5) 

#End of data_86626-ICSD


