data_34290-ICSD
#?2014 by Fachinformationszentrum Karlsruhe, and the U.S. Secretary of 
#Commerce on behalf of the United States.  All rights reserved.
_database_code_ICSD                34290
_audit_creation_date               1980/01/01
_audit_update_record               1984/11/02
_chemical_name_systematic          'Sodium Amide'
_chemical_formula_structural       'Na N H2'
_chemical_formula_sum              'H2 N1 Na1'
_publ_section_title
;
The crystal structure of sodium amide
;
loop_
_citation_id
_citation_journal_abbrev
_citation_year
_citation_journal_volume
_citation_page_first
_citation_page_last
_citation_journal_id_ASTM
primary 'Journal of Physical Chemistry' 1956 60 821 823 JPCHAX
_publ_author_name                  'Zalkin, A.;Templeton, D.H.'
_cell_length_a                     8.964(3)
_cell_length_b                     10.456(3)
_cell_length_c                     8.073(3)
_cell_angle_alpha                  90.
_cell_angle_beta                   90.
_cell_angle_gamma                  90.
_cell_volume                       756.66
_cell_formula_units_Z              16
_symmetry_space_group_name_H-M     'F d d d S'
_symmetry_Int_Tables_number        70
_refine_ls_R_factor_all            .265
loop_
_symmetry_equiv_pos_site_id
_symmetry_equiv_pos_as_xyz
  1	'x+.25, y+.25, -z+.25'
  2	'-x+.25, y+.25, z+.25'
  3	'-x, -y, z'
  4	'x, -y, -z'
  5	'x+.25, -y+.25, z+.25'
  6	'-x+.25, -y+.25, -z+.25'
  7	'-x, y, -z'
  8	'x, y, z'
  9	'x+.25, y+.75, -z+.75'
 10	'x+.75, y+.25, -z+.75'
 11	'x+.75, y+.75, -z+.25'
 12	'-x+.25, y+.75, z+.75'
 13	'-x+.75, y+.25, z+.75'
 14	'-x+.75, y+.75, z+.25'
 15	'-x, -y+.5, z+.5'
 16	'-x+.5, -y, z+.5'
 17	'-x+.5, -y+.5, z'
 18	'x, -y+.5, -z+.5'
 19	'x+.5, -y, -z+.5'
 20	'x+.5, -y+.5, -z'
 21	'x+.25, -y+.75, z+.75'
 22	'x+.75, -y+.25, z+.75'
 23	'x+.75, -y+.75, z+.25'
 24	'-x+.25, -y+.75, -z+.75'
 25	'-x+.75, -y+.25, -z+.75'
 26	'-x+.75, -y+.75, -z+.25'
 27	'-x, y+.5, -z+.5'
 28	'-x+.5, y, -z+.5'
 29	'-x+.5, y+.5, -z'
 30	'x, y+.5, z+.5'
 31	'x+.5, y, z+.5'
 32	'x+.5, y+.5, z'
loop_
_atom_type_symbol
_atom_type_oxidation_number
H1+	1
N3-	-3
Na1+	1
loop_
_atom_site_label
_atom_site_type_symbol
_atom_site_symmetry_multiplicity
_atom_site_Wyckoff_symbol
_atom_site_fract_x
_atom_site_fract_y
_atom_site_fract_z
_atom_site_occupancy
_atom_site_attached_hydrogens
Na1 Na1+ 16 f 0 0.146(1) 0 1. 0 
N1 N3- 16 g 0 0 0.236(5) 1. 0 
H1 H1+ 32 h 0.08 0.97 0.32 1. 0 

#End of data_34290-ICSD


