data_68808-ICSD
#?2014 by Fachinformationszentrum Karlsruhe, and the U.S. Secretary of 
#Commerce on behalf of the United States.  All rights reserved.
_database_code_ICSD                68808
_audit_creation_date               1992/01/20
_audit_update_record               2000/07/15
_chemical_name_systematic          'Barium Zinc Dineodymium Oxide'
_chemical_formula_structural       'Ba Zn Nd2 O5'
_chemical_formula_sum              'Ba1 Nd2 O5 Zn1'
_publ_section_title
;
Ba Zn Nd2 O5: eine neue Struktur bei Oxometallaten Ba M Ln2 O5
;
loop_
_citation_id
_citation_journal_abbrev
_citation_year
_citation_journal_volume
_citation_page_first
_citation_page_last
_citation_journal_id_ASTM
primary 'Journal of the Less-Common Metals' 1990 167 193 198 JCOMAH
_publ_author_name                  'Mueller Buschbaum, H.;Sonne, P.'
_cell_length_a                     6.7747(9)
_cell_length_b                     6.7747(9)
_cell_length_c                     11.548(4)
_cell_angle_alpha                  90.
_cell_angle_beta                   90.
_cell_angle_gamma                  90.
_cell_volume                       530.01
_cell_formula_units_Z              4
_symmetry_space_group_name_H-M     'I 4/m c m'
_symmetry_Int_Tables_number        140
_refine_ls_R_factor_all            .064
loop_
_symmetry_equiv_pos_site_id
_symmetry_equiv_pos_as_xyz
  1	'y, x, -z+.5'
  2	'-y, -x, -z+.5'
  3	'-y, x, -z'
  4	'y, -x, -z'
  5	'x, -y, -z+.5'
  6	'-x, y, -z+.5'
  7	'x, y, -z'
  8	'-x, -y, -z'
  9	'-y, -x, z+.5'
 10	'y, x, z+.5'
 11	'y, -x, z'
 12	'-y, x, z'
 13	'-x, y, z+.5'
 14	'x, -y, z+.5'
 15	'-x, -y, z'
 16	'x, y, z'
 17	'y+.5, x+.5, -z'
 18	'-y+.5, -x+.5, -z'
 19	'-y+.5, x+.5, -z+.5'
 20	'y+.5, -x+.5, -z+.5'
 21	'x+.5, -y+.5, -z'
 22	'-x+.5, y+.5, -z'
 23	'x+.5, y+.5, -z+.5'
 24	'-x+.5, -y+.5, -z+.5'
 25	'-y+.5, -x+.5, z'
 26	'y+.5, x+.5, z'
 27	'y+.5, -x+.5, z+.5'
 28	'-y+.5, x+.5, z+.5'
 29	'-x+.5, y+.5, z'
 30	'x+.5, -y+.5, z'
 31	'-x+.5, -y+.5, z+.5'
 32	'x+.5, y+.5, z+.5'
loop_
_atom_type_symbol
_atom_type_oxidation_number
Ba2+	2
Nd3+	3
O2-	-2
Zn2+	2
loop_
_atom_site_label
_atom_site_type_symbol
_atom_site_symmetry_multiplicity
_atom_site_Wyckoff_symbol
_atom_site_fract_x
_atom_site_fract_y
_atom_site_fract_z
_atom_site_occupancy
_atom_site_attached_hydrogens
_atom_site_B_iso_or_equiv
Zn1 Zn2+ 4 b 0 0.5 0.25 1. 0 0.49(6) 
Ba1 Ba2+ 4 a 0 0 0.25 1. 0 0.5(1) 
Nd1 Nd3+ 8 h 0.1740(2) 0.6740(2) 0 1. 0 0.32(3) 
O1 O2- 16 l 0.354(3) 0.854(3) 0.131(2) 1. 0 0.5(3) 
O2 O2- 4 c 0 0 0 1. 0 0.8(7) 

#End of data_68808-ICSD


