data_152075-ICSD
#?2014 by Fachinformationszentrum Karlsruhe, and the U.S. Secretary of 
#Commerce on behalf of the United States.  All rights reserved.
_database_code_ICSD                152075
_audit_creation_date               2006/10/01
_chemical_name_systematic
;
Lithium Scandium Catena-disilicate - Lt
;
_chemical_formula_structural       'Li Sc (Si2 O6)'
_chemical_formula_sum              'Li1 O6 Sc1 Si2'
_chemical_name_mineral             Clinopyroxene
_publ_section_title
;
Structural changes upon the temperature dependent C2/c - P21/c phase 
transition in Li Me(3+) Si2 O6 clinopyroxenes, Me = Cr, Ga, Fe, V, Sc 
and In
;
loop_
_citation_id
_citation_journal_abbrev
_citation_year
_citation_journal_volume
_citation_page_first
_citation_page_last
_citation_journal_id_ASTM
primary 'Zeitschrift fuer Kristallographie (1979-2010)' 2004 219 585 605 ZEKRDZ
_publ_author_name                  'Redhammer, G.J.;Roth, G.'
_cell_length_a                     9.785(3)
_cell_length_b                     8.959(3)
_cell_length_c                     5.349(2)
_cell_angle_alpha                  90.
_cell_angle_beta                   110.36(3)
_cell_angle_gamma                  90.
_cell_volume                       439.62
_cell_formula_units_Z              4
_symmetry_space_group_name_H-M     'P 1 21/c 1'
_symmetry_Int_Tables_number        14
_refine_ls_R_factor_all            .031
loop_
_symmetry_equiv_pos_site_id
_symmetry_equiv_pos_as_xyz
  1	'x, -y+.5, z+.5'
  2	'-x, -y, -z'
  3	'-x, y+.5, -z+.5'
  4	'x, y, z'
loop_
_atom_type_symbol
_atom_type_oxidation_number
Li1+	1
O2-	-2
Sc3+	3
Si4+	4
loop_
_atom_site_label
_atom_site_type_symbol
_atom_site_symmetry_multiplicity
_atom_site_Wyckoff_symbol
_atom_site_fract_x
_atom_site_fract_y
_atom_site_fract_z
_atom_site_occupancy
_atom_site_attached_hydrogens
_atom_site_U_iso_or_equiv
Li1 Li1+ 4 e 0.2485(4) 0.0033(4) 0.2402(7) 1. 0 0.0125(9) 
Sc1 Sc3+ 4 e 0.2504(1) 0.6450(1) 0.2411(1) 1. 0 0.0048(1) 
Si1 Si4+ 4 e 0.0500(1) 0.3366(1) 0.2866(1) 1. 0 0.0048(2) 
Si2 Si4+ 4 e 0.5498(1) 0.8364(1) 0.2692(1) 1. 0 0.0049(2) 
O1 O2- 4 e 0.6028(2) 0.7276(2) 0.5309(3) 1. 0 0.0072(3) 
O2 O2- 4 e 0.1075(2) 0.2562(1) 0.5791(3) 1. 0 0.0077(3) 
O3 O2- 4 e 0.6242(2) -0.0044(1) 0.3615(3) 1. 0 0.0072(3) 
O4 O2- 4 e 0.1194(2) 0.5002(1) 0.2245(3) 1. 0 0.0072(3) 
O5 O2- 4 e 0.3708(2) 0.8343(1) 0.1495(3) 1. 0 0.0060(3) 
O6 O2- 4 e 0.8713(2) 0.3320(1) 0.1669(3) 1. 0 0.0062(3) 

#End of data_152075-ICSD


