data_178-ICSD
#?2014 by Fachinformationszentrum Karlsruhe, and the U.S. Secretary of 
#Commerce on behalf of the United States.  All rights reserved.
_database_code_ICSD                178
_audit_creation_date               1980/01/01
_audit_update_record               2011/08/01
_chemical_name_systematic
;
Dipotassium Strontium Hexanitrocuprate
;
_chemical_formula_structural       'K2 Sr (Cu (N O2)6)'
_chemical_formula_sum              'Cu1 K2 N6 O12 Sr1'
_publ_section_title
;
Potassium strontium hexanitrocuprate(II) and potassium strontium 
hexanitronickelate(II)
;
loop_
_citation_id
_citation_journal_abbrev
_citation_year
_citation_journal_volume
_citation_page_first
_citation_page_last
_citation_journal_id_ASTM
primary 'Acta Crystallographica B (24,1968-38,1982)' 1976 32 2524 2526 ACBCAR
_publ_author_name
;
Takagi, S.;Joesten, M.D.;Lenhert, P.G.
;
_cell_length_a                     10.4301(7)
_cell_length_b                     10.4621(7)
_cell_length_c                     10.9368(9)
_cell_angle_alpha                  90.
_cell_angle_beta                   90.
_cell_angle_gamma                  90.
_cell_volume                       1193.43
_cell_formula_units_Z              4
_symmetry_space_group_name_H-M     'F m m m'
_symmetry_Int_Tables_number        69
_refine_ls_R_factor_all            .031
loop_
_symmetry_equiv_pos_site_id
_symmetry_equiv_pos_as_xyz
  1	'x, y, -z'
  2	'x, -y, z'
  3	'-x, y, z'
  4	'-x, -y, -z'
  5	'-x, -y, z'
  6	'-x, y, -z'
  7	'x, -y, -z'
  8	'x, y, z'
  9	'x, y+.5, -z+.5'
 10	'x+.5, y, -z+.5'
 11	'x+.5, y+.5, -z'
 12	'x, -y+.5, z+.5'
 13	'x+.5, -y, z+.5'
 14	'x+.5, -y+.5, z'
 15	'-x, y+.5, z+.5'
 16	'-x+.5, y, z+.5'
 17	'-x+.5, y+.5, z'
 18	'-x, -y+.5, -z+.5'
 19	'-x+.5, -y, -z+.5'
 20	'-x+.5, -y+.5, -z'
 21	'-x, -y+.5, z+.5'
 22	'-x+.5, -y, z+.5'
 23	'-x+.5, -y+.5, z'
 24	'-x, y+.5, -z+.5'
 25	'-x+.5, y, -z+.5'
 26	'-x+.5, y+.5, -z'
 27	'x, -y+.5, -z+.5'
 28	'x+.5, -y, -z+.5'
 29	'x+.5, -y+.5, -z'
 30	'x, y+.5, z+.5'
 31	'x+.5, y, z+.5'
 32	'x+.5, y+.5, z'
loop_
_atom_type_symbol
_atom_type_oxidation_number
Cu2+	2
K1+	1
N3+	3
O2-	-2
Sr2+	2
loop_
_atom_site_label
_atom_site_type_symbol
_atom_site_symmetry_multiplicity
_atom_site_Wyckoff_symbol
_atom_site_fract_x
_atom_site_fract_y
_atom_site_fract_z
_atom_site_occupancy
_atom_site_attached_hydrogens
Cu1 Cu2+ 4 a 0 0 0 1. 0 
Sr1 Sr2+ 4 b 0 0 0.5 1. 0 
K1 K1+ 8 f 0.25 0.25 0.25 1. 0 
O1 O2- 16 m 0 0.10130(9) 0.27200(8) 1. 0 
O2 O2- 16 o 0.10160(9) 0.2571(1) 0 1. 0 
O3 O2- 16 n 0.25726(10) 0 0.09698(9) 1. 0 
N1 N3+ 8 i 0 0 0.21118(15) 1. 0 
N2 N3+ 8 h 0 0.19509(15) 0 1. 0 
N3 N3+ 8 g 0.19456(15) 0 0 1. 0 

loop_
_atom_site_aniso_label
_atom_site_aniso_type_symbol
_atom_site_aniso_B_11
_atom_site_aniso_B_22
_atom_site_aniso_B_33
_atom_site_aniso_B_12
_atom_site_aniso_B_13
_atom_site_aniso_B_23
Cu1 Cu2+ 0.786(11) 0.843(11) 1.179(12) 0 0 0
Sr1 Sr2+ 0.867(9) 0.865(9) 0.945(9) 0 0 0
K1 K1+ 2.582(19) 2.503(18) 2.847(20) 0 0 0
O1 O2- 3.31(5) 1.36(3) 1.46(4) 0 0 -.14(3)
O2 O2- 1.36(3) 1.31(3) 3.35(5) -.29(3) 0 0
O3 O2- 1.40(3) 2.84(4) 1.62(3) 0 -.34(3) 0
N1 N3+ 1.58(6) 1.63(6) 1.11(5) 0 0 0
N2 N3+ 1.33(5) 0.97(5) 1.31(5) 0 0 0
N3 N3+ 1.01(5) 1.16(5) 1.51(6) 0 0 0
#End of data_178-ICSD


