data_69869-ICSD
#?2014 by Fachinformationszentrum Karlsruhe, and the U.S. Secretary of 
#Commerce on behalf of the United States.  All rights reserved.
_database_code_ICSD                69869
_audit_creation_date               1993/01/06
_audit_update_record               2012/08/01
_chemical_name_systematic          'Calcium Iron(III) Dioxide Chloride'
_chemical_formula_structural       'Ca Fe O2 Cl'
_chemical_formula_sum              'Ca1 Cl1 Fe1 O2'
_publ_section_title
;
The preparation and structures of the alkaline earth iron oxyhalides
;
loop_
_citation_id
_citation_journal_abbrev
_citation_year
_citation_journal_volume
_citation_page_first
_citation_page_last
_citation_journal_id_ASTM
primary 'Journal of Solid State Chemistry' 1991 92 496 513 JSSCBI
_publ_author_name                  'Ackerman, J.F.'
_cell_length_a                     8.712(5)
_cell_length_b                     3.828(1)
_cell_length_c                     9.999(4)
_cell_angle_alpha                  90.
_cell_angle_beta                   103.53(4)
_cell_angle_gamma                  90.
_cell_volume                       324.21
_cell_formula_units_Z              4
_symmetry_space_group_name_H-M     'A 1 m 1'
_symmetry_Int_Tables_number        8
_refine_ls_R_factor_all            .05
loop_
_symmetry_equiv_pos_site_id
_symmetry_equiv_pos_as_xyz
  1	'x, -y, z'
  2	'x, y, z'
  3	'x, -y+.5, z+.5'
  4	'x, y+.5, z+.5'
loop_
_atom_type_symbol
_atom_type_oxidation_number
Ca2+	2
Cl1-	-1
Fe3+	3
O2-	-2
loop_
_atom_site_label
_atom_site_type_symbol
_atom_site_symmetry_multiplicity
_atom_site_Wyckoff_symbol
_atom_site_fract_x
_atom_site_fract_y
_atom_site_fract_z
_atom_site_occupancy
_atom_site_attached_hydrogens
Fe1 Fe3+ 2 a 0 0 0 1. 0 
Ca1 Ca2+ 2 a 0.29679(95) 0 0.74477(67) 1. 0 
Fe2 Fe3+ 2 a 0.00026(36) 0 0.27433(29) 1. 0 
Cl1 Cl1- 2 a 0.3740(14) 0 0.47564(74) 1. 0 
Cl2 Cl1- 2 a 0.6230(12) 0.5 0.30483(90) 1. 0 
Ca2 Ca2+ 2 a 0.7098(11) 0 0.52901(76) 1. 0 
O1 O2- 2 a 0.8299(27) 0 0.1139(20) 1. 0 
O2 O2- 2 a 0.9558(31) 0 0.4559(28) 1. 0 
O3 O2- 2 a 0.1565(29) 0 0.1645(25) 1. 0 
O4 O2- 2 a 0.0635(32) 0 0.8189(23) 1. 0 

loop_
_atom_site_aniso_label
_atom_site_aniso_type_symbol
_atom_site_aniso_U_11
_atom_site_aniso_U_22
_atom_site_aniso_U_33
_atom_site_aniso_U_12
_atom_site_aniso_U_13
_atom_site_aniso_U_23
Fe1 Fe3+ 0.0255(23) 0.0221(20) 0.0065(22) 0 0.003(14) 0
Ca1 Ca2+ 0.0258(31) 0.0097(20) 0.0155(29) 0 0.0005(34) 0
Fe2 Fe3+ 0.0381(31) 0.0118(15) 0.0093(23) 0 0.0101(24) 0
Cl1 Cl1- 0.0414(42) 0.0175(28) 0.0051(48) 0 0.0062(38) 0
Cl2 Cl1- 0.0212(26) 0.0392(37) 0.0233(49) 0 0.0065(36) 0
Ca2 Ca2+ 0.0367(42) 0.0245(30) 0.0142(31) 0 0.0143(39) 0
O1 O2- 0.0189(98) 0.0251(97) 0.0098(96) 0 0.0085(79) 0
O2 O2- 0.035(11) 0.0028(61) 0.0153(95) 0 0.0122(83) 0
O3 O2- 0.0200(95) 0.0160(97) 0.010(10) 0 0.0006(84) 0
O4 O2- 0.0228(99) 0.0319(80) 0.0028(77) 0 -.0014(80) 0
#End of data_69869-ICSD


