data_84003-ICSD
#?2014 by Fachinformationszentrum Karlsruhe, and the U.S. Secretary of 
#Commerce on behalf of the United States.  All rights reserved.
_database_code_ICSD                84003
_audit_creation_date               1999/01/19
_chemical_name_systematic          'Potassium Catena-diselenoaurate'
_chemical_formula_structural       'K (Au Se2)'
_chemical_formula_sum              'Au1 K1 Se2'
_publ_section_title
;
On the dissolution of gold in K2 Qx and Na2 Qx fluxes (Q = S, Se). 
Formation of K Au S5, K Au Se5, Cs Au Se3, K Au Se2 and Na Au Se2: 
low-dimensional Au(+) and Au(3+) compounds with poly- and mono-
chalcogenide ligands
;
loop_
_citation_id
_citation_journal_abbrev
_citation_year
_citation_journal_volume
_citation_page_first
_citation_page_last
_citation_journal_id_ASTM
primary 'Journal of Alloys and Compounds' 1997 257 137 145 JALCEU
_publ_author_name                  'Park, Y.;Kanatzidis, M.G.'
_cell_length_a                     7.699(3)
_cell_length_b                     7.699(3)
_cell_length_c                     3.665(1)
_cell_angle_alpha                  90.
_cell_angle_beta                   90.
_cell_angle_gamma                  90.
_cell_volume                       217.24
_cell_formula_units_Z              2
_symmetry_space_group_name_H-M     'P 4/m b m'
_symmetry_Int_Tables_number        127
_refine_ls_R_factor_all            .032
loop_
_symmetry_equiv_pos_site_id
_symmetry_equiv_pos_as_xyz
  1	'y+.5, x+.5, -z'
  2	'-y+.5, -x+.5, -z'
  3	'-y, x, -z'
  4	'y, -x, -z'
  5	'x+.5, -y+.5, -z'
  6	'-x+.5, y+.5, -z'
  7	'x, y, -z'
  8	'-x, -y, -z'
  9	'-y+.5, -x+.5, z'
 10	'y+.5, x+.5, z'
 11	'y, -x, z'
 12	'-y, x, z'
 13	'-x+.5, y+.5, z'
 14	'x+.5, -y+.5, z'
 15	'-x, -y, z'
 16	'x, y, z'
loop_
_atom_type_symbol
_atom_type_oxidation_number
Au3+	3
K1+	1
Se2-	-2
loop_
_atom_site_label
_atom_site_type_symbol
_atom_site_symmetry_multiplicity
_atom_site_Wyckoff_symbol
_atom_site_fract_x
_atom_site_fract_y
_atom_site_fract_z
_atom_site_occupancy
_atom_site_attached_hydrogens
_atom_site_B_iso_or_equiv
Au1 Au3+ 2 d 0.5 0 0 1. 0 0.20(1) 
Se1 Se2- 4 h 0.347 0.1528(3) 0.5 1. 0 0.49(3) 
K1 K1+ 2 a 0 0 0 1. 0 1.2(1) 

#End of data_84003-ICSD


