data_36350-ICSD
#?2014 by Fachinformationszentrum Karlsruhe, and the U.S. Secretary of 
#Commerce on behalf of the United States.  All rights reserved.
_database_code_ICSD                36350
_audit_creation_date               1980/01/01
_audit_update_record               2006/04/01
_chemical_name_systematic
;
Dicalcium Sodium Dialuminium Tetrafluoride Bis(phosphate) Hydroxide 
Dihydrate
;
_chemical_formula_structural
;
Ca2 Na Al2 F4 (P O4)2 (O H) (H2 O)2
;
_chemical_formula_sum              'H5 Al2 Ca2 F4 Na1 O11 P2'
_chemical_name_mineral             Morinite
_publ_section_title                'The crystal structure of morinite'
loop_
_citation_id
_citation_journal_abbrev
_citation_year
_citation_journal_volume
_citation_page_first
_citation_page_last
_citation_journal_id_ASTM
primary 'Canadian Mineralogist' 1979 17 93 102 CAMIA6
2 'Crystal Structure Communications' 1978 7 33 36 CSCMCS
_publ_author_name                  'Hawthorne, F.C.'
_cell_length_a                     9.454(3)
_cell_length_b                     10.692(4)
_cell_length_c                     5.444(2)
_cell_angle_alpha                  90.
_cell_angle_beta                   105.46(2)
_cell_angle_gamma                  90.
_cell_volume                       530.38
_cell_formula_units_Z              2
_symmetry_space_group_name_H-M     'P 1 21/m 1'
_symmetry_Int_Tables_number        11
_refine_ls_R_factor_all            .028
loop_
_symmetry_equiv_pos_site_id
_symmetry_equiv_pos_as_xyz
  1	'x, -y+.5, z'
  2	'-x, -y, -z'
  3	'-x, y+.5, -z'
  4	'x, y, z'
loop_
_atom_type_symbol
_atom_type_oxidation_number
Al3+	3
Ca2+	2
F1-	-1
H1+	1
Na1+	1
O2-	-2
P5+	5
loop_
_atom_site_label
_atom_site_type_symbol
_atom_site_symmetry_multiplicity
_atom_site_Wyckoff_symbol
_atom_site_fract_x
_atom_site_fract_y
_atom_site_fract_z
_atom_site_occupancy
_atom_site_attached_hydrogens
_atom_site_B_iso_or_equiv
Ca1 Ca2+ 4 f 0.14521(7) 0.58288(6) 0.2400(1) 1. 0 0 
Al1 Al3+ 4 f 0.2576(1) 0.4062(1) 0.7733(2) 1. 0 0 
Na1 Na1+ 2 e 0.6885(2) 0.25 0.2083(4) 1. 0 0 
P1 P5+ 2 e 0.0438(1) 0.25 0.3715(2) 1. 0 0 
P2 P5+ 2 e 0.5087(1) 0.25 0.6415(2) 1. 0 0 
O1 O2- 2 e 0.9699(3) 0.25 0.0854(6) 1. 0 0 
O2 O2- 2 e 0.2287(3) 0.25 0.8962(6) 1. 0 0 
O3 O2- 2 e 0.6754(3) 0.25 0.7650(6) 1. 0 0 
O4 O2- 2 e 0.4748(4) 0.25 0.3535(6) 1. 0 0 
O5 O2- 2 e 0.9292(3) 0.25 0.5248(6) 1. 0 0 
O6 O2- 4 f 0.3554(2) 0.0419(2) 0.1304(4) 1. 0 0 
O7 O2- 4 f 0.4423(2) 0.1340(2) 0.7346(4) 1. 0 0 
O8 O2- 4 f 0.1433(2) 0.1320(2) 0.4416(4) 1. 0 0 
F1 F1- 4 f 0.0968(2) 0.0328(2) 0.8605(3) 1. 0 0 
F2 F1- 4 f 0.7150(2) 0.0587(2) 0.3392(3) 1. 0 0 
H1 H1+ 2 e 0.169(8) 0.25 0.985(13) 1. 0 1. 
H2 H1+ 4 f 0.426(5) 0.992(5) 0.162(9) 1. 0 1. 
H3 H1+ 4 f 0.382(5) 0.112(5) 0.218(9) 1. 0 1. 

#End of data_36350-ICSD


