data_79916-ICSD
#?2014 by Fachinformationszentrum Karlsruhe, and the U.S. Secretary of 
#Commerce on behalf of the United States.  All rights reserved.
_database_code_ICSD                79916
_audit_creation_date               1996/10/14
_chemical_name_systematic          'Dipotassium Copper Diphosphate'
_chemical_formula_structural       'K2 Cu (P2 O7)'
_chemical_formula_sum              'Cu1 K2 O7 P2'
_publ_section_title
;
Synthesis and crystal structure of K2 Cu P2 O7
;
loop_
_citation_id
_citation_journal_abbrev
_citation_year
_citation_journal_volume
_citation_page_first
_citation_page_last
_citation_journal_id_ASTM
primary 'Journal of Alloys and Compounds' 1995 223 13 17 JALCEU
_publ_author_name
;
ElMaadi, A.;Boukhari, A.;Holt, E.M.
;
_cell_length_a                     9.509(4)
_cell_length_b                     14.389(6)
_cell_length_c                     5.276(2)
_cell_angle_alpha                  90.
_cell_angle_beta                   90.
_cell_angle_gamma                  90.
_cell_volume                       721.89
_cell_formula_units_Z              4
_symmetry_space_group_name_H-M     'P b n m'
_symmetry_Int_Tables_number        62
_refine_ls_R_factor_all            .046
loop_
_symmetry_equiv_pos_site_id
_symmetry_equiv_pos_as_xyz
  1	'-x+.5, y+.5, z'
  2	'x, y, -z+.5'
  3	'x+.5, -y+.5, z+.5'
  4	'-x, -y, -z'
  5	'x+.5, -y+.5, -z'
  6	'-x, -y, z+.5'
  7	'-x+.5, y+.5, -z+.5'
  8	'x, y, z'
loop_
_atom_type_symbol
_atom_type_oxidation_number
Cu2+	2
K1+	1
O2-	-2
P5+	5
loop_
_atom_site_label
_atom_site_type_symbol
_atom_site_symmetry_multiplicity
_atom_site_Wyckoff_symbol
_atom_site_fract_x
_atom_site_fract_y
_atom_site_fract_z
_atom_site_occupancy
_atom_site_attached_hydrogens
Cu1 Cu2+ 4 c 0.7476(1) 0.8277(1) 0.75 1. 0 
K1 K1+ 4 c 0.6283(2) 0.0898(1) 0.75 1. 0 
K2 K1+ 4 c 0.6244(2) 0.6960(1) 0.25 1. 0 
P1 P5+ 4 c 0.4303(2) 0.6973(1) 0.75 1. 0 
P2 P5+ 4 c 0.2269(2) 0.5552(1) 0.75 1. 0 
O1 O2- 8 d 0.3638(4) 0.7368(2) 0.9920(8) 1. 0 
O2 O2- 4 c 0.5864(6) 0.7027(5) 0.75 1. 0 
O3 O2- 4 c 0.3909(6) 0.5883(4) 0.75 1. 0 
O4 O2- 8 d 0.1604(4) 0.5974(3) 0.5125(9) 1. 0 
O5 O2- 4 c 0.2253(8) 0.4524(4) 0.75 1. 0 

#End of data_79916-ICSD


