data_73472-ICSD
#?2014 by Fachinformationszentrum Karlsruhe, and the U.S. Secretary of 
#Commerce on behalf of the United States.  All rights reserved.
_database_code_ICSD                73472
_audit_creation_date               1994/06/30
_audit_update_record               2006/04/01
_chemical_name_systematic
;
Dirubidium Potassium Yttrium Fluoride
;
_chemical_formula_structural       'Rb2 K Y F6'
_chemical_formula_sum              'F6 K1 Rb2 Y1'
_publ_section_title
;
Structure cristalline de Rb2 K Y F6 a temperature ambiante
;
loop_
_citation_id
_citation_journal_abbrev
_citation_year
_citation_journal_volume
_citation_page_first
_citation_page_last
_citation_journal_id_ASTM
primary
;
Comptes Rendus Hebdomadaires des Seances de l`Academie des Sciences, 
Serie 2 (1984-1993)
;
 1993 317 37 42 CRAMED
2 'Materials Science Forum' 1994 166 671 676 MSFOEP
3 'Phase Transition' 1992 38 127 220 PHTRDP
_publ_author_name
;
Guengard, H.;Grannec, J.;Gravereau, P.
;
_cell_length_a                     6.531(1)
_cell_length_b                     6.583(1)
_cell_length_c                     9.271(1)
_cell_angle_alpha                  90.
_cell_angle_beta                   90.07(1)
_cell_angle_gamma                  90.
_cell_volume                       398.59
_cell_formula_units_Z              2
_symmetry_space_group_name_H-M     'P 1 21/n 1'
_symmetry_Int_Tables_number        14
_refine_ls_R_factor_all            .032
loop_
_symmetry_equiv_pos_site_id
_symmetry_equiv_pos_as_xyz
  1	'-x+.5, y+.5, -z+.5'
  2	'-x, -y, -z'
  3	'x+.5, -y+.5, z+.5'
  4	'x, y, z'
loop_
_atom_type_symbol
_atom_type_oxidation_number
F1-	-1
K1+	1
Rb1+	1
Y3+	3
loop_
_atom_site_label
_atom_site_type_symbol
_atom_site_symmetry_multiplicity
_atom_site_Wyckoff_symbol
_atom_site_fract_x
_atom_site_fract_y
_atom_site_fract_z
_atom_site_occupancy
_atom_site_attached_hydrogens
_atom_site_B_iso_or_equiv
Y1 Y3+ 2 a 0 0 0 1. 0 0.85(3) 
K1 K1+ 2 b 0 0 0.5 1. 0 1.45(8) 
Rb1 Rb1+ 4 e 0.498(1) 0.973(1) 0.253(1) 1. 0 2.50(4) 
F1 F1- 4 e 0.925(2) 0.02(1) 0.222(2) 1. 0 3.5(3) 
F2 F1- 4 e 0.257(2) 0.208(2) 0.033(2) 1. 0 2.7(3) 
F3 F1- 4 e 0.835(2) 0.295(2) 0.963(2) 1. 0 3.3(3) 

#End of data_73472-ICSD


