data_166314-ICSD
#?2014 by Fachinformationszentrum Karlsruhe, and the U.S. Secretary of 
#Commerce on behalf of the United States.  All rights reserved.
_database_code_ICSD                166314
_audit_creation_date               2010/08/01
_chemical_name_systematic
;
Sodium Titanium(III) Catena-disilicate - Hp
;
_chemical_formula_structural       'Na Ti (Si2 O6)'
_chemical_formula_sum              'Na1 O6 Si2 Ti1'
_chemical_name_mineral             Clinopyroxene
_publ_section_title
;
(Na, Ca) (Ti(3+), Mg) Si2 O6 - clinopyroxenes at high pressure: 
influence of cation substitution on elastic behavior and phase 
transition
;
loop_
_citation_id
_citation_journal_abbrev
_citation_year
_citation_journal_volume
_citation_page_first
_citation_page_last
_citation_journal_id_ASTM
primary 'Physics and Chemistry of Minerals' 2010 37 25 43 PCMIDU
_publ_author_name
;
Ullrich, A.;Miletich, R.;Balic Zunic, T.;Olsen, L.;Nestola, 
F.;Wildner, M.;Ohashi, H.
;
_cell_length_a                     5.192(2)
_cell_length_b                     6.395(3)
_cell_length_c                     6.524(2)
_cell_angle_alpha                  84.07(4)
_cell_angle_beta                   78.57(3)
_cell_angle_gamma                  78.11(4)
_cell_volume                       207.32
_cell_formula_units_Z              2
_symmetry_space_group_name_H-M     'P -1'
_symmetry_Int_Tables_number        2
_refine_ls_R_factor_all            .075
loop_
_symmetry_equiv_pos_site_id
_symmetry_equiv_pos_as_xyz
  1	'-x, -y, -z'
  2	'x, y, z'
loop_
_atom_type_symbol
_atom_type_oxidation_number
Na1+	1
O2-	-2
Si4+	4
Ti3+	3
loop_
_atom_site_label
_atom_site_type_symbol
_atom_site_symmetry_multiplicity
_atom_site_Wyckoff_symbol
_atom_site_fract_x
_atom_site_fract_y
_atom_site_fract_z
_atom_site_occupancy
_atom_site_attached_hydrogens
Na1 Na1+ 2 i 0.7544(18) 0.809(3) 0.6933(13) 1. 0 
Ti1 Ti3+ 2 i 0.2608(8) 0.5942(16) 0.9085(6) 1. 0 
Si1 Si4+ 2 i 0.7408(12) 0.302(3) 0.6113(8) 1. 0 
Si2 Si4+ 2 i 0.2415(12) 0.121(2) 0.7995(8) 1. 0 
O1 O2- 2 i 0.819(2) 0.397(5) 0.377(2) 1. 0 
O2 O2- 2 i 0.646(3) 0.471(6) 0.7903(19) 1. 0 
O3 O2- 2 i 0.512(3) 0.142(6) 0.626(2) 1. 0 
O4 O2- 2 i 0.009(3) 0.120(6) 0.659(2) 1. 0 
O5 O2- 2 i 0.153(3) 0.290(7) 0.962(2) 1. 0 
O6 O2- 2 i 0.324(3) 0.871(6) 0.901(2) 1. 0 

#End of data_166314-ICSD


