data_413966-ICSD
#?2014 by Fachinformationszentrum Karlsruhe, and the U.S. Secretary of 
#Commerce on behalf of the United States.  All rights reserved.
_database_code_ICSD                413966
_audit_creation_date               2006/10/01
_audit_update_record               2007/08/01
_chemical_name_systematic          'Lithium Scandium Tetrafluoride'
_chemical_formula_structural       'Li Sc F4'
_chemical_formula_sum              'F4 Li1 Sc1'
_publ_section_title
;
Synthesis and structures of Li3 Sc F6 and high pressure Li Sc F4, 
luminescence properties of Li Sc F4, a new phase in the system Li F - 
Sc F3
;
loop_
_citation_id
_citation_journal_abbrev
_citation_year
_citation_journal_volume
_citation_page_first
_citation_page_last
_citation_journal_id_ASTM
primary 'Journal of Solid State Chemistry' 2005 178 2620 2625 JSSCBI
_publ_author_name
;
Tyagi, A.K.;Koehler, J.;Balog, P.;Weber, J.
;
_cell_length_a                     4.9806(1)
_cell_length_b                     4.9806(1)
_cell_length_c                     10.075(1)
_cell_angle_alpha                  90.
_cell_angle_beta                   90.
_cell_angle_gamma                  90.
_cell_volume                       249.92
_cell_formula_units_Z              4
_symmetry_space_group_name_H-M     'I 41/a Z'
_symmetry_Int_Tables_number        88
loop_
_symmetry_equiv_pos_site_id
_symmetry_equiv_pos_as_xyz
  1	'-y+.75, x+.75, -z+.75'
  2	'y+.25, -x+.75, -z+.75'
  3	'x, y+.5, -z'
  4	'-x, -y, -z'
  5	'y+.25, -x+.25, z+.25'
  6	'-y+.75, x+.25, z+.25'
  7	'-x, -y+.5, z'
  8	'x, y, z'
  9	'-y+.25, x+.25, -z+.25'
 10	'y+.75, -x+.25, -z+.25'
 11	'x+.5, y, -z+.5'
 12	'-x+.5, -y+.5, -z+.5'
 13	'y+.75, -x+.75, z+.75'
 14	'-y+.25, x+.75, z+.75'
 15	'-x+.5, -y, z+.5'
 16	'x+.5, y+.5, z+.5'
loop_
_atom_type_symbol
_atom_type_oxidation_number
F1-	-1
Li1+	1
Sc3+	3
loop_
_atom_site_label
_atom_site_type_symbol
_atom_site_symmetry_multiplicity
_atom_site_Wyckoff_symbol
_atom_site_fract_x
_atom_site_fract_y
_atom_site_fract_z
_atom_site_occupancy
_atom_site_attached_hydrogens
_atom_site_U_iso_or_equiv
Sc1 Sc3+ 4 b 0.5 0.75 0.125 1. 0 0.0041(6) 
F1 F1- 16 f 0.2894(4) 0.0760(4) 0.0430(2) 1. 0 0.0126(9) 
Li1 Li1+ 4 a 0 0.25 0.125 1. 0 0.01267 

#End of data_413966-ICSD


