data_65188-ICSD
#?2014 by Fachinformationszentrum Karlsruhe, and the U.S. Secretary of 
#Commerce on behalf of the United States.  All rights reserved.
_database_code_ICSD                65188
_audit_creation_date               1989/12/04
_audit_update_record               2010/08/01
_chemical_name_systematic
;
Tetrapotassium Manganese Dimanganese(III) Fluoride
;
_chemical_formula_structural       'K4 Mn3 F12'
_chemical_formula_sum              'F12 K4 Mn3'
_publ_section_title
;
Tetragonale Fluorperowskite A M.75 F3 mit Kationendefizit: K4 Mn(II) 
Mn(III)2 F12 und Ba2 Cs2 Cu3 F12
;
loop_
_citation_id
_citation_journal_abbrev
_citation_year
_citation_journal_volume
_citation_page_first
_citation_page_last
_citation_journal_id_ASTM
primary 'Zeitschrift fuer Anorganische und Allgemeine Chemie (1950) (DE)'
 1987 553 75 84 ZAACAB
_publ_author_name
;
Frenzen, G.;Kummer, S.;Massa, W.;Babel, D.
;
_cell_length_a                     8.322(1)
_cell_length_b                     8.322(1)
_cell_length_c                     16.430(2)
_cell_angle_alpha                  90.
_cell_angle_beta                   90.
_cell_angle_gamma                  90.
_cell_volume                       1137.87
_cell_formula_units_Z              4
_symmetry_space_group_name_H-M     'I 41/a m d Z'
_symmetry_Int_Tables_number        141
_refine_ls_R_factor_all            .0438
loop_
_symmetry_equiv_pos_site_id
_symmetry_equiv_pos_as_xyz
  1	'y+.25, x+.75, -z+.25'
  2	'y+.25, -x+.75, -z+.25'
  3	'x, y+.5, -z'
  4	'x, -y, -z'
  5	'-y+.75, x+.75, -z+.25'
  6	'-y+.75, -x+.75, -z+.25'
  7	'-x, y+.5, -z'
  8	'-x, -y, -z'
  9	'-y+.75, -x+.25, z+.75'
 10	'-y+.75, x+.25, z+.75'
 11	'-x, -y+.5, z'
 12	'-x, y, z'
 13	'y+.25, -x+.25, z+.75'
 14	'y+.25, x+.25, z+.75'
 15	'x, -y+.5, z'
 16	'x, y, z'
 17	'y+.75, x+.25, -z+.75'
 18	'y+.75, -x+.25, -z+.75'
 19	'x+.5, y, -z+.5'
 20	'x+.5, -y+.5, -z+.5'
 21	'-y+.25, x+.25, -z+.75'
 22	'-y+.25, -x+.25, -z+.75'
 23	'-x+.5, y, -z+.5'
 24	'-x+.5, -y+.5, -z+.5'
 25	'-y+.25, -x+.75, z+.25'
 26	'-y+.25, x+.75, z+.25'
 27	'-x+.5, -y, z+.5'
 28	'-x+.5, y+.5, z+.5'
 29	'y+.75, -x+.75, z+.25'
 30	'y+.75, x+.75, z+.25'
 31	'x+.5, -y, z+.5'
 32	'x+.5, y+.5, z+.5'
loop_
_atom_type_symbol
_atom_type_oxidation_number
F1-	-1
K1+	1
Mn2+	2
Mn3+	3
loop_
_atom_site_label
_atom_site_type_symbol
_atom_site_symmetry_multiplicity
_atom_site_Wyckoff_symbol
_atom_site_fract_x
_atom_site_fract_y
_atom_site_fract_z
_atom_site_occupancy
_atom_site_attached_hydrogens
K1 K1+ 16 f 0.2765(1) 0 0 1. 0 
Mn1 Mn2+ 4 a 0 0.75 0.125 1. 0 
Mn2 Mn3+ 8 e 0 0.25 0.1181(1) 1. 0 
F1 F1- 16 h 0 -.0019(3) 0.1195(3) 1. 0 
F2 F1- 16 h 0 0.4670(3) 0.6330(2) 1. 0 
F3 F1- 8 e 0 0.25 0.0038(3) 1. 0 
F4 F1- 8 e 0 0.25 0.2294(2) 1. 0 

loop_
_atom_site_aniso_label
_atom_site_aniso_type_symbol
_atom_site_aniso_U_11
_atom_site_aniso_U_22
_atom_site_aniso_U_33
_atom_site_aniso_U_12
_atom_site_aniso_U_13
_atom_site_aniso_U_23
K1 K1+ 0.0205(5) 0.0218(4) 0.0255(6) 0 0 0.0042(4)
Mn1 Mn2+ 0.0081(3) 0.0081(3) 0.0092(9) 0 0 0
Mn2 Mn3+ 0.0116(4) 0.0084(4) 0.0105(6) 0 0 0
F1 F1- 0.0463(16) 0.0089(10) 0.0405(20) 0 0 0.0011(17)
F2 F1- 0.0318(14) 0.0114(11) 0.0367(22) 0 0 -.0033(13)
F3 F1- 0.0541(27) 0.0369(23) 0.0138(24) 0 0 0
F4 F1- 0.0307(21) 0.0258(19) 0.0183(28) 0 0 0
#End of data_65188-ICSD


