data_416615-ICSD
#?2014 by Fachinformationszentrum Karlsruhe, and the U.S. Secretary of 
#Commerce on behalf of the United States.  All rights reserved.
_database_code_ICSD                416615
_audit_creation_date               2008/08/01
_chemical_name_systematic
;
Sodium Cerium Tetrakis(catena-phosphate(V))
;
_chemical_formula_structural       'Na Ce (P O3)4'
_chemical_formula_sum              'Ce1 Na1 O12 P4'
_publ_section_title
;
Crystal and band structures and optical characterizations of sodium 
rare earth phosphates Na Ln P2 O7 and Na Ln (P O3)4 (Ln = Ce, Eu)
;
loop_
_citation_id
_citation_journal_abbrev
_citation_year
_citation_journal_volume
_citation_page_first
_citation_page_last
_citation_journal_id_ASTM
primary 'Journal of Alloys and Compounds' 2008 454 419 426 JALCEU
_publ_author_name
;
Zhu Jing;Cheng Wen Dan;Wu Dongsheng;Zhang Hao;Gong Yajing;Tong 
Huanan;Zhao Dan
;
_cell_length_a                     7.2390(8)
_cell_length_b                     13.2293(15)
_cell_length_c                     10.0048(11)
_cell_angle_alpha                  90.00
_cell_angle_beta                   90.409(5)
_cell_angle_gamma                  90.00
_cell_volume                       958.1
_cell_formula_units_Z              4
_symmetry_space_group_name_H-M     'P 1 21/n 1'
_symmetry_Int_Tables_number        14
_refine_ls_R_factor_all            .0564
loop_
_symmetry_equiv_pos_site_id
_symmetry_equiv_pos_as_xyz
  1	'-x+.5, y+.5, -z+.5'
  2	'-x, -y, -z'
  3	'x+.5, -y+.5, z+.5'
  4	'x, y, z'
loop_
_atom_type_symbol
_atom_type_oxidation_number
Ce3+	3
Na1+	1
O2-	-2
P5+	5
loop_
_atom_site_label
_atom_site_type_symbol
_atom_site_symmetry_multiplicity
_atom_site_Wyckoff_symbol
_atom_site_fract_x
_atom_site_fract_y
_atom_site_fract_z
_atom_site_occupancy
_atom_site_attached_hydrogens
_atom_site_U_iso_or_equiv
Ce1 Ce3+ 4 e -0.01384(7) 0.78145(4) 0.02392(5) 1 0 0.01334(19) 
P1 P5+ 4 e 0.1178(3) 0.61405(16) -0.2644(2) 1 0 0.0087(4) 
P2 P5+ 4 e -0.2714(3) 0.58873(16) -0.1968(2) 1 0 0.0086(4) 
P3 P5+ 4 e 0.3568(3) 0.62663(16) 0.1937(2) 1 0 0.0088(4) 
P4 P5+ 4 e -0.2491(3) 0.59815(16) 0.2569(2) 1 0 0.0086(4) 
Na1 Na1+ 4 e 0.0006(6) 0.7205(3) 0.4332(4) 1 0 0.0262(9) 
O1 O2- 4 e 0.2126(9) 0.5150(4) -0.2111(6) 1 0 0.0115(12) 
O2 O2- 4 e -0.0924(8) 0.5801(5) -0.2857(6) 1 0 0.0131(12) 
O3 O2- 4 e -0.2844(9) 0.4783(4) -0.1332(6) 1 0 0.0111(12) 
O4 O2- 4 e -0.4306(9) 0.6084(5) -0.2893(7) 1 0 0.0176(14) 
O5 O2- 4 e -0.3097(8) 0.8565(5) 0.1033(6) 1 0 0.0127(12) 
O6 O2- 4 e 0.3186(9) 0.6336(5) 0.3392(6) 1 0 0.0160(13) 
O7 O2- 4 e -0.0938(8) 0.6629(5) 0.2080(6) 1 0 0.0134(13) 
O8 O2- 4 e -0.4274(8) 0.6215(5) 0.1686(6) 1 0 0.0106(12) 
O9 O2- 4 e 0.2148(9) 0.8946(5) -0.0973(6) 1 0 0.0124(12) 
O10 O2- 4 e 0.1320(9) 0.6884(5) -0.1551(6) 1 0 0.0132(13) 
O11 O2- 4 e 0.2879(9) 0.7085(4) 0.1034(7) 1 0 0.0135(13) 
O12 O2- 4 e -0.2425(9) 0.6594(5) -0.0836(6) 1 0 0.0141(13) 

loop_
_atom_site_aniso_label
_atom_site_aniso_type_symbol
_atom_site_aniso_U_11
_atom_site_aniso_U_22
_atom_site_aniso_U_33
_atom_site_aniso_U_12
_atom_site_aniso_U_13
_atom_site_aniso_U_23
Ce1 Ce3+ 0.0116(3) 0.0169(3) 0.0115(3) 0.00041(19) 0.00003(19) -0.00028(18)
P1 P5+ 0.0079(10) 0.0077(9) 0.0106(10) -0.0002(8) 0.0015(8) -0.0019(8)
P2 P5+ 0.0067(10) 0.0084(9) 0.0106(10) -0.0012(8) 0.0006(8) -0.0004(8)
P3 P5+ 0.0078(10) 0.0091(10) 0.0095(10) -0.0001(8) -0.0013(8) 0.0014(8)
P4 P5+ 0.0062(10) 0.0084(9) 0.0111(10) 0.0001(8) 0.0005(8) 0.0001(8)
Na1 Na1+ 0.023(2) 0.037(2) 0.018(2) -0.0073(18) 0.0000(17) -0.0035(17)
O1 O2- 0.012(3) 0.010(3) 0.012(3) 0.006(2) -0.002(2) 0.001(2)
O2 O2- 0.008(3) 0.015(3) 0.016(3) -0.001(2) 0.004(2) 0.000(2)
O3 O2- 0.016(3) 0.006(3) 0.011(3) -0.004(2) -0.003(2) 0.000(2)
O4 O2- 0.011(3) 0.023(3) 0.019(3) 0.001(3) -0.004(3) 0.006(3)
O5 O2- 0.011(3) 0.017(3) 0.010(3) 0.001(2) 0.007(2) -0.002(2)
O6 O2- 0.016(3) 0.018(3) 0.014(3) -0.004(3) -0.001(3) -0.004(2)
O7 O2- 0.009(3) 0.018(3) 0.014(3) -0.003(2) -0.002(2) 0.000(2)
O8 O2- 0.003(3) 0.019(3) 0.010(3) 0.001(2) -0.002(2) 0.002(2)
O9 O2- 0.013(3) 0.018(3) 0.007(3) -0.004(2) -0.002(2) 0.001(2)
O10 O2- 0.012(3) 0.014(3) 0.014(3) 0.001(2) 0.006(2) -0.003(2)
O11 O2- 0.009(3) 0.011(3) 0.020(3) 0.001(2) -0.001(3) 0.005(2)
O12 O2- 0.014(3) 0.014(3) 0.015(3) -0.006(2) 0.004(2) -0.003(2)
#End of data_416615-ICSD


