data_67218-ICSD
#?2014 by Fachinformationszentrum Karlsruhe, and the U.S. Secretary of 
#Commerce on behalf of the United States.  All rights reserved.
_database_code_ICSD                67218
_audit_creation_date               1990/12/27
_audit_update_record               2013/02/01
_chemical_name_systematic          'Cadmium Dialuminium Sulfide'
_chemical_formula_structural       'Cd Al2 S4'
_chemical_formula_sum              'Al2 Cd1 S4'
_publ_section_title
;
The crystal structures of Cd Al2S4, Hg Al2S4, and Hg Ga2S4
;
loop_
_citation_id
_citation_journal_abbrev
_citation_year
_citation_journal_volume
_citation_page_first
_citation_page_last
_citation_journal_id_ASTM
primary 'Zeitschrift fuer Kristallographie (1979-2010)' 1990 190 103 110 ZEKRDZ
2
;
Zeitschrift fuer Naturforschung, Teil B. Anorganische Chemie, 
Organische Chemie (2,1947-32,1977)
;
 1968 23 1009 1009 ZENBAX
3
;
Zeitschrift fuer Naturforschung, Teil B. Anorganische Chemie, 
Organische Chemie (33,1978-41,1986)
;
 1983 38 311 316 ZNBAD2
_publ_author_name                  'Schwer, H.;Kraemer, V.'
_cell_length_a                     5.5523(1)
_cell_length_b                     5.5523(1)
_cell_length_c                     10.1031(2)
_cell_angle_alpha                  90.
_cell_angle_beta                   90.
_cell_angle_gamma                  90.
_cell_volume                       311.46
_cell_formula_units_Z              2
_symmetry_space_group_name_H-M     'I -4'
_symmetry_Int_Tables_number        82
_refine_ls_R_factor_all            .032
loop_
_symmetry_equiv_pos_site_id
_symmetry_equiv_pos_as_xyz
  1	'-y, x, -z'
  2	'y, -x, -z'
  3	'-x, -y, z'
  4	'x, y, z'
  5	'-y+.5, x+.5, -z+.5'
  6	'y+.5, -x+.5, -z+.5'
  7	'-x+.5, -y+.5, z+.5'
  8	'x+.5, y+.5, z+.5'
loop_
_atom_type_symbol
_atom_type_oxidation_number
Al3+	3
Cd2+	2
S2-	-2
loop_
_atom_site_label
_atom_site_type_symbol
_atom_site_symmetry_multiplicity
_atom_site_Wyckoff_symbol
_atom_site_fract_x
_atom_site_fract_y
_atom_site_fract_z
_atom_site_occupancy
_atom_site_attached_hydrogens
Cd1 Cd2+ 2 a 0 0 0 1. 0 
Al1 Al3+ 2 b 0 0 0.5 1. 0 
Al2 Al3+ 2 c 0 0.5 0.25 1. 0 
S1 S2- 8 g 0.2660(1) 0.2770(1) 0.1352(1) 1. 0 

loop_
_atom_site_aniso_label
_atom_site_aniso_type_symbol
_atom_site_aniso_U_11
_atom_site_aniso_U_22
_atom_site_aniso_U_33
_atom_site_aniso_U_12
_atom_site_aniso_U_13
_atom_site_aniso_U_23
Cd1 Cd2+ 0.0123(1) 0.0123(1) 0.0175(1) 0 0 0
Al1 Al3+ 0.0118(3) 0.0118(3) 0.0122(5) 0 0 0
Al2 Al3+ 0.0128(4) 0.0128(4) 0.0106(6) 0 0 0
S1 S2- 0.0149(2) 0.0139(2) 0.0142(2) -.0012(2) 0.0027(2) -.0007(2)
#End of data_67218-ICSD


