data_92447-ICSD
#?2014 by Fachinformationszentrum Karlsruhe, and the U.S. Secretary of 
#Commerce on behalf of the United States.  All rights reserved.
_database_code_ICSD                92447
_audit_creation_date               2002/10/01
_chemical_name_systematic
;
Tripotassium Disilver(II) Tetrazirconium Fluoride
;
_chemical_formula_structural       'K3 Ag2 Zr4 F23'
_chemical_formula_sum              'Ag2 F23 K3 Zr4'
_publ_section_title
;
Synthese und Struktur von K3 Ag2 M4 F23 (M= Zr, Hf)
;
loop_
_citation_id
_citation_journal_abbrev
_citation_year
_citation_journal_volume
_citation_page_first
_citation_page_last
_citation_journal_id_ASTM
primary 'Zeitschrift fuer Anorganische und Allgemeine Chemie (1950) (DE)'
 2000 626 1429 1433 ZAACAB
_publ_author_name                  'Koller, D.;Mueller, B.G.'
_cell_length_a                     7.857(1)
_cell_length_b                     11.192(2)
_cell_length_c                     10.177(1)
_cell_angle_alpha                  90.
_cell_angle_beta                   97.50(1)
_cell_angle_gamma                  90.
_cell_volume                       887.26
_cell_formula_units_Z              2
_symmetry_space_group_name_H-M     'P 1 21/c 1'
_symmetry_Int_Tables_number        14
_refine_ls_R_factor_all            .04
loop_
_symmetry_equiv_pos_site_id
_symmetry_equiv_pos_as_xyz
  1	'x, -y+.5, z+.5'
  2	'-x, -y, -z'
  3	'-x, y+.5, -z+.5'
  4	'x, y, z'
loop_
_atom_type_symbol
_atom_type_oxidation_number
Ag2+	2
F1-	-1
K1+	1
Zr4+	4
loop_
_atom_site_label
_atom_site_type_symbol
_atom_site_symmetry_multiplicity
_atom_site_Wyckoff_symbol
_atom_site_fract_x
_atom_site_fract_y
_atom_site_fract_z
_atom_site_occupancy
_atom_site_attached_hydrogens
Ag1 Ag2+ 4 e 0.18169(4) 0.33908(3) 0.18736(4) 1. 0 
Zr1 Zr4+ 4 e 0.52387(5) 0.31693(4) 0.54132(5) 1. 0 
Zr2 Zr4+ 4 e 0.83493(5) 0.30563(4) 0.83870(5) 1. 0 
K1 K1+ 4 e 0.28974(18) 0.48003(10) 0.86382(13) 1. 0 
K2 K1+ 2 a 0 0 0 1. 0 
F1 F1- 4 e 0.73632(37) 0.35250(25) 0.43875(34) 1. 0 
F2 F1- 4 e -.02356(35) 0.35462(25) 0.29121(32) 1. 0 
F3 F1- 4 e 0.02173(40) 0.36074(29) 0.73617(36) 1. 0 
F4 F1- 4 e 0.32159(38) 0.70982(27) 0.81538(33) 1. 0 
F5 F1- 2 b 0.5 0.5 0.5 1. 0 
F6 F1- 4 e 0.38039(38) 0.34124(26) 0.07589(35) 1. 0 
F7 F1- 4 e 0.60991(38) 0.33746(25) 0.93056(35) 1. 0 
F8 F1- 4 e 0.86265(41) 0.47557(27) 0.90808(36) 1. 0 
F9 F1- 4 e 0.34569(41) 0.36536(30) 0.65259(37) 1. 0 
F10 F1- 4 e 0.35229(41) 0.31585(30) 0.37506(38) 1. 0 
F11 F1- 4 e 0.68908(41) 0.41538(29) 0.69078(34) 1. 0 
F12 F1- 4 e 0.00553(41) 0.28445(31) 0.00426(36) 1. 0 

loop_
_atom_site_aniso_label
_atom_site_aniso_type_symbol
_atom_site_aniso_U_11
_atom_site_aniso_U_22
_atom_site_aniso_U_33
_atom_site_aniso_U_12
_atom_site_aniso_U_13
_atom_site_aniso_U_23
Ag1 Ag2+ 0.00906(20) 0.02226(22) 0.01095(26) 0.00165(11) 0.00259(14) 
0.00234(12)
Zr1 Zr4+ 0.00500(21) 0.01214(21) 0.00714(28) 0.00018(13) 0.00192(15) 
-.00047(14)
Zr2 Zr4+ 0.00473(20) 0.01085(22) 0.00644(26) -.00036(12) 0.00133(14) 
0.00021(14)
K1 K1+ 0.04023(70) 0.01878(52) 0.01611(68) -.00043(44) 0.00037(48) 
-.00182(42)
K2 K1+ 0.0729(17) 0.0538(13) 0.0210(13) 0.0456(12) 0.0121(10) 0.01666(93)
F1 F1- 0.0164(13) 0.0149(13) 0.0242(19) -0.0034(10) 0.0128(12) -0.0051(11)
F2 F1- 0.0114(13) 0.0203(13) 0.0185(18) -0.0035(10) 0.0084(11) -0.0014(11)
F3 F1- 0.0199(15) 0.0273(15) 0.0259(20) -0.0082(12) 0.0145(13) 0.0011(13)
F4 F1- 0.0254(16) 0.0142(13) 0.0212(20) -0.0003(11) -0.0115(13) 0.0006(11)
F5 F1- 0.0216(21) 0.0127(17) 0.0214(27) 0.0036(15) -0.0037(17) 0.0051(16)
F6 F1- 0.0160(14) 0.0213(14) 0.0202(19) 0.0076(11) 0.0103(12) 0.0038(12)
F7 F1- 0.0179(14) 0.0182(14) 0.0208(19) 0.0057(10) 0.0122(12) 0.0039(11)
F8 F1- 0.0241(15) 0.0193(14) 0.0247(20) -0.0021(11) -0.0016(13) -0.0053(12)
F9 F1- 0.0248(16) 0.0278(16) 0.0289(21) 0.0017(13) 0.0174(14) -0.0075(14)
F10 F1- 0.0210(17) 0.0336(18) 0.0204(22) 0.0018(12) -0.0045(14) 0.0007(14)
F11 F1- 0.0333(18) 0.0191(14) 0.0193(21) 0.0008(12) -0.0120(14) 0.0031(12)
F12 F1- 0.0234(16) 0.0299(16) 0.0194(20) -0.0002(13) -0.0092(13) 0.0009(13)
#End of data_92447-ICSD


