data_65954-ICSD
#?2014 by Fachinformationszentrum Karlsruhe, and the U.S. Secretary of 
#Commerce on behalf of the United States.  All rights reserved.
_database_code_ICSD                65954
_audit_creation_date               1995/01/10
_chemical_name_systematic
;
Potassium Silicon(II) Hydride - Beta
;
_chemical_formula_structural       'K Si H3'
_chemical_formula_sum              'H3 K1 Si1'
_publ_section_title
;
Metallderivate von Molekuelverbindungen. II Darstellung und Struktur 
des beta - Kaliumsilanids
;
loop_
_citation_id
_citation_journal_abbrev
_citation_year
_citation_journal_volume
_citation_page_first
_citation_page_last
_citation_journal_id_ASTM
primary 'Zeitschrift fuer Anorganische und Allgemeine Chemie (1950) (DE)'
 1989 572 75 88 ZAACAB
_publ_author_name
;
Mundt, O.;Becker, G.;Hartmann, H.M.;Schwarz, W.
;
_cell_length_a                     8.800(2)
_cell_length_b                     5.416(1)
_cell_length_c                     6.823(1)
_cell_angle_alpha                  90.
_cell_angle_beta                   90.
_cell_angle_gamma                  90.
_cell_volume                       325.19
_cell_formula_units_Z              4
_symmetry_space_group_name_H-M     'P n m a'
_symmetry_Int_Tables_number        62
_refine_ls_R_factor_all            .032
loop_
_symmetry_equiv_pos_site_id
_symmetry_equiv_pos_as_xyz
  1	'x+.5, y, -z+.5'
  2	'x, -y+.5, z'
  3	'-x+.5, y+.5, z+.5'
  4	'-x, -y, -z'
  5	'-x+.5, -y, z+.5'
  6	'-x, y+.5, -z'
  7	'x+.5, -y+.5, -z+.5'
  8	'x, y, z'
loop_
_atom_type_symbol
_atom_type_oxidation_number
H1-	-1
K1+	1
Si2+	2
loop_
_atom_site_label
_atom_site_type_symbol
_atom_site_symmetry_multiplicity
_atom_site_Wyckoff_symbol
_atom_site_fract_x
_atom_site_fract_y
_atom_site_fract_z
_atom_site_occupancy
_atom_site_attached_hydrogens
_atom_site_B_iso_or_equiv
K1 K1+ 4 c 0.1857(1) 0.25 0.1579(1) 1. 0 0 
Si1 Si2+ 4 c 0.0515(1) 0.25 0.6541(2) 1. 0 0 
H1 H1- 4 c -.1101 0.25 0.6648 1. 0 2.45 
H2 H1- 8 d 0.0839 0.4311 0.8021 1. 0 2.45 

loop_
_atom_site_aniso_label
_atom_site_aniso_type_symbol
_atom_site_aniso_U_11
_atom_site_aniso_U_22
_atom_site_aniso_U_33
_atom_site_aniso_U_12
_atom_site_aniso_U_13
_atom_site_aniso_U_23
K1 K1+ 0.0110(3) 0.0188(4) 0.0125(4) 0 -.0004(3) 0
Si1 Si2+ 0.0095(4) 0.0171(5) 0.0117(4) 0 0.0005(3) 0
#End of data_65954-ICSD


