data_162670-ICSD
#?2014 by Fachinformationszentrum Karlsruhe, and the U.S. Secretary of 
#Commerce on behalf of the United States.  All rights reserved.
_database_code_ICSD                162670
_audit_creation_date               2009/08/01
_chemical_name_systematic          'Aluminium Phosphate(V)'
_chemical_formula_structural       'Al (P O4)'
_chemical_formula_sum              'Al1 O4 P1'
_publ_section_title
;
The structure of the beta-cristobalite phases of Si O2 and Al P O4
;
loop_
_citation_id
_citation_journal_abbrev
_citation_year
_citation_journal_volume
_citation_journal_issue
_citation_page_first
_citation_page_last
_citation_journal_id_ASTM
primary 'Philosophical Magazine, Serie 6 (1901-1925)' 1975 31 6 1391 1401 PHMAA4
_publ_author_name                  'Wright, A.F.;Leadbetter, A.J.'
_cell_length_a                     5.09
_cell_length_b                     5.09
_cell_length_c                     7.20
_cell_angle_alpha                  90.
_cell_angle_beta                   90.
_cell_angle_gamma                  90.
_cell_volume                       186.54
_cell_formula_units_Z              2
_symmetry_space_group_name_H-M     'I -4 m 2'
_symmetry_Int_Tables_number        119
loop_
_symmetry_equiv_pos_site_id
_symmetry_equiv_pos_as_xyz
  1	'y, x, -z'
  2	'-y, -x, -z'
  3	'y, -x, -z'
  4	'-y, x, -z'
  5	'x, -y, z'
  6	'-x, y, z'
  7	'-x, -y, z'
  8	'x, y, z'
  9	'y+.5, x+.5, -z+.5'
 10	'-y+.5, -x+.5, -z+.5'
 11	'y+.5, -x+.5, -z+.5'
 12	'-y+.5, x+.5, -z+.5'
 13	'x+.5, -y+.5, z+.5'
 14	'-x+.5, y+.5, z+.5'
 15	'-x+.5, -y+.5, z+.5'
 16	'x+.5, y+.5, z+.5'
loop_
_atom_type_symbol
_atom_type_oxidation_number
Al3+	3
O2-	-2
P5+	5
loop_
_atom_site_label
_atom_site_type_symbol
_atom_site_symmetry_multiplicity
_atom_site_Wyckoff_symbol
_atom_site_fract_x
_atom_site_fract_y
_atom_site_fract_z
_atom_site_occupancy
_atom_site_attached_hydrogens
Al1 Al3+ 2 a 0 0 0 1. 0 
P1 P5+ 2 c 0 0.5 0.25 1. 0 
O1 O2- 8 i 0.215 0 0.188 1. 0 

#End of data_162670-ICSD


