data_14133-ICSD
#?2014 by Fachinformationszentrum Karlsruhe, and the U.S. Secretary of 
#Commerce on behalf of the United States.  All rights reserved.
_database_code_ICSD                14133
_audit_creation_date               1986/10/03
_chemical_name_systematic          'Sodium 13-fluorodizirconate'
_chemical_formula_structural       'Na5 Zr2 F13'
_chemical_formula_sum              'F13 Na5 Zr2'
_publ_section_title
;
The Crystal Structure of Sodium Tridecafluorodizirconate
;
loop_
_citation_id
_citation_journal_abbrev
_citation_year
_citation_journal_volume
_citation_page_first
_citation_page_last
_citation_journal_id_ASTM
primary 'Acta Crystallographica (1,1948-23,1967)' 1965 18 520 522 ACCRA9
_publ_author_name
;
Herak, R.M.;Malcic, S.S.;Manojlovic, L.M.
;
_cell_length_a                     11.62(2)
_cell_length_b                     5.49(1)
_cell_length_c                     8.44(1)
_cell_angle_alpha                  90.
_cell_angle_beta                   97.7(2)
_cell_angle_gamma                  90.
_cell_volume                       533.56
_cell_formula_units_Z              2
_symmetry_space_group_name_H-M     'C 1 2/m 1'
_symmetry_Int_Tables_number        12
_refine_ls_R_factor_all            .126
loop_
_symmetry_equiv_pos_site_id
_symmetry_equiv_pos_as_xyz
  1	'-x, y, -z'
  2	'-x, -y, -z'
  3	'x, -y, z'
  4	'x, y, z'
  5	'-x+.5, y+.5, -z'
  6	'-x+.5, -y+.5, -z'
  7	'x+.5, -y+.5, z'
  8	'x+.5, y+.5, z'
loop_
_atom_type_symbol
_atom_type_oxidation_number
F1-	-1
Na1+	1
Zr4+	4
loop_
_atom_site_label
_atom_site_type_symbol
_atom_site_symmetry_multiplicity
_atom_site_Wyckoff_symbol
_atom_site_fract_x
_atom_site_fract_y
_atom_site_fract_z
_atom_site_occupancy
_atom_site_attached_hydrogens
Zr1 Zr4+ 4 i 0.0727 0 0.2426 1. 0 
F1 F1- 2 a 0 0 0 1. 0 
F2 F1- 8 j 0.18 0.25 0.148 1. 0 
F3 F1- 8 j 0.131 0.25 0.424 1. 0 
F4 F1- 8 j 0.439 0.25 0.252 1. 0 
Na1 Na1+ 2 c 0 0 0.5 1. 0 
Na2 Na1+ 4 i -.163 0 0.075 1. 0 
Na3 Na1+ 4 i 0.277 0 0.346 1. 0 

#End of data_14133-ICSD


