data_68555-ICSD
#?2014 by Fachinformationszentrum Karlsruhe, and the U.S. Secretary of 
#Commerce on behalf of the United States.  All rights reserved.
_database_code_ICSD                68555
_audit_creation_date               1991/07/10
_chemical_name_systematic
;
Dirubidium Sodium Hexaaluminium Fluoride
;
_chemical_formula_structural       'Rb2 Na Al6 F21'
_chemical_formula_sum              'Al6 F21 Na1 Rb2'
_publ_section_title
;
Crystal structure of Rb2NaAl6F21; a new term of the A2Na(AlxF3x+1)3 
family (A= Rb, Cs)
;
loop_
_citation_id
_citation_journal_abbrev
_citation_year
_citation_journal_volume
_citation_page_first
_citation_page_last
_citation_journal_id_ASTM
primary 'European Journal of Solid State Inorganic Chemistry'
 1989 26 281 288 EJSCE5
_publ_author_name                  'Le Bail, A.;Gao, Y.;Jacoboni, C.'
_cell_length_a                     12.075(6)
_cell_length_b                     6.972(3)
_cell_length_c                     10.214(5)
_cell_angle_alpha                  90.
_cell_angle_beta                   113.20(2)
_cell_angle_gamma                  90.
_cell_volume                       790.35
_cell_formula_units_Z              2
_symmetry_space_group_name_H-M     'C 1 2 1'
_symmetry_Int_Tables_number        5
_refine_ls_R_factor_all            .04
loop_
_symmetry_equiv_pos_site_id
_symmetry_equiv_pos_as_xyz
  1	'-x, y, -z'
  2	'x, y, z'
  3	'-x+.5, y+.5, -z'
  4	'x+.5, y+.5, z'
loop_
_atom_type_symbol
_atom_type_oxidation_number
Al3+	3
F1-	-1
Na1+	1
Rb1+	1
loop_
_atom_site_label
_atom_site_type_symbol
_atom_site_symmetry_multiplicity
_atom_site_Wyckoff_symbol
_atom_site_fract_x
_atom_site_fract_y
_atom_site_fract_z
_atom_site_occupancy
_atom_site_attached_hydrogens
_atom_site_B_iso_or_equiv
Rb1 Rb1+ 4 c 0.1343(2) 0 0.4048(1) 1. 0 0 
Na1 Na1+ 2 b 0 0.4844(5) 0.5 1. 0 0.67(2) 
Al1 Al3+ 4 c 0.5644(4) -.0232(5) 0.1916(4) 1. 0 0.42(4) 
Al2 Al3+ 4 c 0.3138(4) 0.2287(6) 0.1915(3) 1. 0 0.42(2) 
Al3 Al3+ 4 c -.3137(4) 0.7279(5) -.1894(3) 1. 0 0.38(2) 
F1 F1- 2 a 0 0.4923(14) 0 1. 0 1.03(15) 
F2 F1- 4 c 0.2677(5) 0.2266(7) -.0006(4) 1. 0 0.84(7) 
F3 F1- 4 c 0.2707(5) -.0211(9) 0.1858(5) 1. 0 0.44(7) 
F4 F1- 4 c 0.4624(8) 0.1622(9) 0.2056(5) 1. 0 1.10(7) 
F5 F1- 4 c -.4511(9) 0.7958(10) -.1671(4) 1. 0 1.03(6) 
F6 F1- 4 c 0.1464(5) -.0230(9) 0.8116(5) 1. 0 0.34(6) 
F7 F1- 4 c 0.1622(8) 0.2943(9) 0.1697(4) 1. 0 1.01(6) 
F8 F1- 4 c -.1747(9) 0.6631(9) -.2049(5) 1. 0 1.06(6) 
F9 F1- 4 c 0.3674(8) 0.2302(11) 0.3780(5) 1. 0 1.08(8) 
F10 F1- 4 c -.3828(9) 0.7389(11) -.3742(5) 1. 0 1.22(8) 
F11 F1- 4 c 0.3774(6) -.0590(8) 0.6259(6) 1. 0 0.98(10) 

#End of data_68555-ICSD


