data_401828-ICSD
#?2014 by Fachinformationszentrum Karlsruhe, and the U.S. Secretary of 
#Commerce on behalf of the United States.  All rights reserved.
_database_code_ICSD                401828
_audit_creation_date               1997/05/13
_chemical_name_systematic          'Trizinc Dimolybdate'
_chemical_formula_structural       'Zn3 (Mo2 O9)'
_chemical_formula_sum              'Mo2 O9 Zn3'
_publ_section_title
;
Zum System Zn/Mo/O. I Phasenbestand und Eigenschaften der ternaeren 
Zinkmolybdate; Struktur von Zn3 Mo2 O9
;
loop_
_citation_id
_citation_journal_abbrev
_citation_year
_citation_journal_volume
_citation_page_first
_citation_page_last
_citation_journal_id_ASTM
primary 'Zeitschrift fuer Anorganische und Allgemeine Chemie (1950) (DE)'
 1996 622 1274 1280 ZAACAB
_publ_author_name
;
Soehnel, T.;Reichelt, W.;Oppermann, H.;Mattausch, H.J.;Simon, A.
;
_cell_length_a                     7.7573(12)
_cell_length_b                     7.1319(13)
_cell_length_c                     8.370(2)
_cell_angle_alpha                  90.
_cell_angle_beta                   117.397(7)
_cell_angle_gamma                  90.
_cell_volume                       411.13
_cell_formula_units_Z              2
_symmetry_space_group_name_H-M     'P 1 21/m 1'
_symmetry_Int_Tables_number        11
_refine_ls_R_factor_all            .0298
loop_
_symmetry_equiv_pos_site_id
_symmetry_equiv_pos_as_xyz
  1	'x, -y+.5, z'
  2	'-x, -y, -z'
  3	'-x, y+.5, -z'
  4	'x, y, z'
loop_
_atom_type_symbol
_atom_type_oxidation_number
Mo6+	6
O2-	-2
Zn2+	2
loop_
_atom_site_label
_atom_site_type_symbol
_atom_site_symmetry_multiplicity
_atom_site_Wyckoff_symbol
_atom_site_fract_x
_atom_site_fract_y
_atom_site_fract_z
_atom_site_occupancy
_atom_site_attached_hydrogens
Zn1 Zn2+ 2 e 0.10522(8) 0.25 0.76419(7) 1. 0 
Zn2 Zn2+ 2 e 0.35147(8) 0.25 0.20509(7) 1. 0 
Zn3 Zn2+ 2 a 0 0 0 1. 0 
Mo1 Mo6+ 2 e 0.83372(6) 0.25 0.28215(5) 1. 0 
Mo2 Mo6+ 2 e 0.54428(6) 0.25 0.69941(5) 1. 0 
O1 O2- 2 e 0.0962(5) 0.25 0.9936(4) 1. 0 
O2 O2- 4 f 0.6902(3) 0.0505(4) 0.7980(3) 1. 0 
O3 O2- 2 e 0.9022(6) 0.25 0.5117(5) 1. 0 
O4 O2- 2 e 0.5807(5) 0.25 0.1624(5) 1. 0 
O5 O2- 4 f 0.9272(4) 0.0506(4) 0.2227(3) 1. 0 
O6 O2- 2 e 0.4610(6) 0.25 0.4673(5) 1. 0 
O7 O2- 2 e 0.3430(6) 0.25 0.7399(6) 1. 0 

loop_
_atom_site_aniso_label
_atom_site_aniso_type_symbol
_atom_site_aniso_U_11
_atom_site_aniso_U_22
_atom_site_aniso_U_33
_atom_site_aniso_U_12
_atom_site_aniso_U_13
_atom_site_aniso_U_23
Zn1 Zn2+ 0.0129(3) 0.0119(3) 0.0102(3) 0 0.0074(2) 0
Zn2 Zn2+ 0.0081(2) 0.0130(3) 0.0103(3) 0 0.0017(2) 0
Zn3 Zn2+ 0.0143(3) 0.0072(3) 0.0160(3) -.0034(2) 0.0084(2) 0.0001(2)
Mo1 Mo6+ 0.0094(2) 0.0073(2) 0.0082(2) 0 0.00496(15) 0
Mo2 Mo6+ 0.0069(2) 0.0074(2) 0.0089(2) 0 0.00274(14) 0
O1 O2- 0.0092(14) 0.0063(14) 0.0081(14) 0 0.0043(12) 0
O2 O2- 0.0143(11) 0.0106(12) 0.0206(12) 0.0017(9) 0.0038(10) 0.0013(9)
O3 O2- 0.023(2) 0.025(2) 0.009(2) 0 0.0054(15) 0
O4 O2- 0.009(2) 0.031(2) 0.020(2) 0 0.0069(15) 0
O5 O2- 0.0221(12) 0.0097(12) 0.0219(12) 0.0019(10) 0.0147(11) -.0006(9)
O6 O2- 0.027(2) 0.022(2) 0.012(2) 0 0.008(2) 0
O7 O2- 0.015(2) 0.037(3) 0.033(2) 0 0.018(2) 0
#End of data_401828-ICSD


