data_66701-ICSD
#?2014 by Fachinformationszentrum Karlsruhe, and the U.S. Secretary of 
#Commerce on behalf of the United States.  All rights reserved.
_database_code_ICSD                66701
_audit_creation_date               1995/10/17
_audit_update_record               2007/08/01
_chemical_name_systematic          'Potassium Ytterbium Tetrafluoride'
_chemical_formula_structural       'K Y F4'
_chemical_formula_sum              'F4 K1 Y1'
_publ_section_title                'Structure of K Y F4'
loop_
_citation_id
_citation_journal_abbrev
_citation_year
_citation_journal_volume
_citation_page_first
_citation_page_last
_citation_journal_id_ASTM
primary 'Acta Crystallographica, Section C: Crystal Structure Communications'
 1992 48 978 982 ACSCEE
2 'Annales de Chimie (Paris) (Vol=Year)' 1978 1978 417 427 ANCPAC
_publ_author_name
;
le Fur, Y.;Khaidukov, N.M.;Aleonard, S.
;
_cell_length_a                     14.06(1)
_cell_length_b                     14.06(1)
_cell_length_c                     10.103(10)
_cell_angle_alpha                  90.
_cell_angle_beta                   90.
_cell_angle_gamma                  120.
_cell_volume                       1729.62
_cell_formula_units_Z              18
_symmetry_space_group_name_H-M     'P 31'
_symmetry_Int_Tables_number        144
_refine_ls_R_factor_all            .038
loop_
_symmetry_equiv_pos_site_id
_symmetry_equiv_pos_as_xyz
  1	'-x+y, -x, z+.6667'
  2	'-y, x-y, z+.3333'
  3	'x, y, z'
loop_
_atom_type_symbol
_atom_type_oxidation_number
F1-	-1
K1+	1
Y3+	3
loop_
_atom_site_label
_atom_site_type_symbol
_atom_site_symmetry_multiplicity
_atom_site_Wyckoff_symbol
_atom_site_fract_x
_atom_site_fract_y
_atom_site_fract_z
_atom_site_occupancy
_atom_site_attached_hydrogens
Y1 Y3+ 3 a 0.12871(6) 0.88764(6) 0.333 1. 0 
Y2 Y3+ 3 a 0.28157(7) 0.73104(7) 0.32271(8) 1. 0 
Y3 Y3+ 3 a 0.78003(7) 0.20592(6) 0.3391(1) 1. 0 
Y4 Y3+ 3 a 0.94137(7) 0.05770(7) 0.3294(2) 1. 0 
Y5 Y3+ 3 a 0.45256(7) 0.54579(7) 0.3250(1) 1. 0 
Y6 Y3+ 3 a 0.60374(7) 0.38662(6) 0.34411(7) 1. 0 
K1 K1+ 3 a 0.7818(2) 0.7190(2) 0.3183(2) 1. 0 
K2 K1+ 3 a 0.2677(2) 0.2208(3) 0.3522(3) 1. 0 
K3 K1+ 3 a 0.1050(2) 0.3945(3) 0.3134(4) 1. 0 
K4 K1+ 3 a 0.6111(2) 0.8778(2) 0.3493(3) 1. 0 
K5 K1+ 3 a 0.9466(3) 0.5591(2) 0.3450(3) 1. 0 
K6 K1+ 3 a 0.4549(3) 0.0652(3) 0.3201(4) 1. 0 
F1 F1- 3 a 0.1304(7) 0.9342(7) 0.1185(9) 1. 0 
F2 F1- 3 a 0.0692(8) 0.8779(8) 0.546(1) 1. 0 
F3 F1- 3 a 0.2105(8) 0.5934(8) 0.472(1) 1. 0 
F4 F1- 3 a 0.334(1) 0.7286(7) 0.656(1) 1. 0 
F5 F1- 3 a 0.7372(5) 0.2023(5) 0.5598(8) 1. 0 
F6 F1- 3 a 0.7901(6) 0.2684(6) 0.1305(9) 1. 0 
F7 F1- 3 a 0.000(1) 0.059(1) 0.659(2) 1. 0 
F8 F1- 3 a 0.0489(8) 0.1223(8) 0.152(2) 1. 0 
F9 F1- 3 a 0.3954(6) 0.5413(6) 0.5373(8) 1. 0 
F10 F1- 3 a 0.4618(7) 0.5950(6) 0.1110(8) 1. 0 
F11 F1- 3 a 0.5440(6) 0.2863(6) 0.5317(8) 1. 0 
F12 F1- 3 a 0.6057(7) 0.3368(7) 0.009(1) 1. 0 
F13 F1- 3 a 0.7727(6) 0.7346(6) 0.064(1) 1. 0 
F14 F1- 3 a 0.8133(9) 0.7262(6) 0.567(1) 1. 0 
F15 F1- 3 a 0.2533(6) 0.2289(6) 0.606(1) 1. 0 
F16 F1- 3 a 0.8050(6) 0.0719(6) 0.4332(8) 1. 0 
F17 F1- 3 a 0.1339(6) 0.3916(6) 0.5702(8) 1. 0 
F18 F1- 3 a 0.0941(7) 0.4031(8) 0.063(1) 1. 0 
F19 F1- 3 a 0.1535(6) 0.7561(7) 0.4276(9) 1. 0 
F20 F1- 3 a 0.5874(6) 0.8816(7) 0.6044(9) 1. 0 
F21 F1- 3 a 0.9390(6) 0.5741(7) 0.6029(9) 1. 0 
F22 F1- 3 a 0.9438(6) 0.5316(6) 0.0934(8) 1. 0 
F23 F1- 3 a 0.4830(7) 0.0692(7) 0.5708(9) 1. 0 
F24 F1- 3 a 0.4469(7) 0.0849(6) 0.0572(9) 1. 0 

#End of data_66701-ICSD


