data_249738-ICSD
#?2014 by Fachinformationszentrum Karlsruhe, and the U.S. Secretary of 
#Commerce on behalf of the United States.  All rights reserved.
_database_code_ICSD                249738
_audit_creation_date               2009/02/01
_chemical_name_systematic          'Potassium Hydrogensulfate - Rt'
_chemical_formula_structural       'K (H S O4)'
_chemical_formula_sum              'H1 K1 O4 S1'
_publ_section_title
;
In situ crystallography of K H S O4: Probing the kinetic pathway for 
the evolution of a pyrolysis reaction in the crystalline state
;
loop_
_citation_id
_citation_journal_abbrev
_citation_year
_citation_journal_volume
_citation_journal_issue
_citation_page_first
_citation_page_last
_citation_journal_id_ASTM
primary 'Inorganic Chemistry' 2008 47 19 8613 8615 INOCAJ
_publ_author_name                  'Swain, D.;Guru Row, T.N.'
_cell_length_a                     8.4150(7)
_cell_length_b                     9.7960(8)
_cell_length_c                     18.9668(15)
_cell_angle_alpha                  90.00
_cell_angle_beta                   90.00
_cell_angle_gamma                  90.00
_cell_volume                       1563.5
_cell_formula_units_Z              16
_symmetry_space_group_name_H-M     'P b c a'
_symmetry_Int_Tables_number        61
_refine_ls_R_factor_all            .0211
loop_
_symmetry_equiv_pos_site_id
_symmetry_equiv_pos_as_xyz
  1	'x+.5, y, -z+.5'
  2	'x, -y+.5, z+.5'
  3	'-x+.5, y+.5, z'
  4	'-x, -y, -z'
  5	'-x+.5, -y, z+.5'
  6	'-x, y+.5, -z+.5'
  7	'x+.5, -y+.5, -z'
  8	'x, y, z'
loop_
_atom_type_symbol
_atom_type_oxidation_number
H1+	1
K1+	1
O2-	-2
S6+	6
loop_
_atom_site_label
_atom_site_type_symbol
_atom_site_symmetry_multiplicity
_atom_site_Wyckoff_symbol
_atom_site_fract_x
_atom_site_fract_y
_atom_site_fract_z
_atom_site_occupancy
_atom_site_attached_hydrogens
_atom_site_U_iso_or_equiv
K1 K1+ 8 c 0.11746(4) 0.18065(3) 0.125000(16) 1 0 0.02480(10) 
K2 K1+ 8 c 0.62261(3) 0.31971(3) 0.118401(16) 1 0 0.02271(10) 
S1 S6+ 8 c 0.25446(4) -0.07724(3) 0.002647(15) 1 0 0.01726(10) 
S2 S6+ 8 c 0.01902(4) 0.01648(3) 0.293969(18) 1 0 0.02028(11) 
O1 O2- 8 c 0.29134(13) 0.07983(10) 0.00163(5) 1 0 0.0237(2) 
O2 O2- 8 c 0.40770(12) -0.14761(11) 0.00332(5) 1 0 0.0237(2) 
O3 O2- 8 c 0.16651(13) -0.10345(11) -0.06121(6) 1 0 0.0326(3) 
O4 O2- 8 c 0.16580(13) -0.10129(11) 0.06648(6) 1 0 0.0324(3) 
O5 O2- 8 c 0.16335(12) 0.11268(11) 0.27759(6) 1 0 0.0276(2) 
O6 O2- 8 c -0.06007(13) -0.00099(12) 0.22549(6) 1 0 0.0340(3) 
O7 O2- 8 c -0.07720(13) 0.09461(13) 0.34200(6) 1 0 0.0338(3) 
O8 O2- 8 c 0.08133(14) -0.10904(12) 0.32151(7) 1 0 0.0395(3) 
H1 H1+ 8 c 0.395(3) 0.096(3) 0.0010(10) 1 0 0.047(7) 
H2 H1+ 8 c 0.255(3) 0.072(2) 0.2762(11) 1 0 0.051(6) 

loop_
_atom_site_aniso_label
_atom_site_aniso_type_symbol
_atom_site_aniso_U_11
_atom_site_aniso_U_22
_atom_site_aniso_U_33
_atom_site_aniso_U_12
_atom_site_aniso_U_13
_atom_site_aniso_U_23
K1 K1+ 0.02264(17) 0.02762(18) 0.02414(17) 0.00138(11) 0.00005(11) 
0.00198(11)
K2 K1+ 0.02303(17) 0.02228(17) 0.02282(16) 0.00014(10) -0.00037(11) 
-0.00098(10)
S1 S6+ 0.01397(17) 0.01714(17) 0.02069(18) -0.00086(11) 0.00003(10) 
-0.00019(10)
S2 S6+ 0.01493(16) 0.02484(18) 0.02106(18) -0.00018(12) -0.00105(11) 
-0.00037(12)
O1 O2- 0.0184(5) 0.0166(5) 0.0362(6) -0.0005(4) -0.0014(4) 0.0007(4)
O2 O2- 0.0169(5) 0.0191(5) 0.0350(6) 0.0010(4) 0.0005(4) 0.0008(4)
O3 O2- 0.0312(6) 0.0333(6) 0.0333(6) -0.0023(5) -0.0144(5) -0.0046(4)
O4 O2- 0.0297(6) 0.0344(6) 0.0332(6) -0.0033(5) 0.0136(5) 0.0032(4)
O5 O2- 0.0172(5) 0.0270(5) 0.0387(6) -0.0002(4) 0.0042(4) 0.0020(4)
O6 O2- 0.0263(6) 0.0468(7) 0.0289(6) 0.0060(5) -0.0090(5) -0.0140(5)
O7 O2- 0.0228(5) 0.0502(7) 0.0284(5) 0.0007(5) 0.0066(4) -0.0092(5)
O8 O2- 0.0290(6) 0.0310(6) 0.0585(8) -0.0008(5) -0.0059(6) 0.0165(5)
#End of data_249738-ICSD


