data_1897-ICSD
#?2014 by Fachinformationszentrum Karlsruhe, and the U.S. Secretary of 
#Commerce on behalf of the United States.  All rights reserved.
_database_code_ICSD                1897
_audit_creation_date               1980/01/01
_audit_update_record               2010/02/01
_chemical_name_systematic          'Dilithium Closo-ditungstate'
_chemical_formula_structural       'Li2 (W2 O7)'
_chemical_formula_sum              'Li2 O7 W2'
_publ_section_title                'The crystal structure of Li2 W2 O7'
loop_
_citation_id
_citation_journal_abbrev
_citation_year
_citation_journal_volume
_citation_page_first
_citation_page_last
_citation_journal_id_ASTM
primary 'Acta Crystallographica B (24,1968-38,1982)' 1975 31 1451 1454 ACBCAR
_publ_author_name
;
Morikawa, H.;Okada, K.;Marumo, F.;Iwai, S.I.
;
_cell_length_a                     8.283(3)
_cell_length_b                     7.050(1)
_cell_length_c                     5.037(1)
_cell_angle_alpha                  85.40(2)
_cell_angle_beta                   102.13(3)
_cell_angle_gamma                  110.29(1)
_cell_volume                       269.72
_cell_formula_units_Z              2
_symmetry_space_group_name_H-M     'P -1'
_symmetry_Int_Tables_number        2
_refine_ls_R_factor_all            .069
loop_
_symmetry_equiv_pos_site_id
_symmetry_equiv_pos_as_xyz
  1	'-x, -y, -z'
  2	'x, y, z'
loop_
_atom_type_symbol
_atom_type_oxidation_number
Li1+	1
O2-	-2
W6+	6
loop_
_atom_site_label
_atom_site_type_symbol
_atom_site_symmetry_multiplicity
_atom_site_Wyckoff_symbol
_atom_site_fract_x
_atom_site_fract_y
_atom_site_fract_z
_atom_site_occupancy
_atom_site_attached_hydrogens
_atom_site_B_iso_or_equiv
W1 W6+ 2 i 0.17852(7) 0.24834(9) 0.30834(12) 1. 0 0 
W2 W6+ 2 i 0.66509(7) 0.45137(8) 0.18348(12) 1. 0 0 
Li1 Li1+ 2 i 0.2793(57) 0.0085(65) 0.8540(87) 1. 0 2.7 
Li2 Li1+ 2 i 0.9032(57) 0.2645(65) 0.7089(88) 1. 0 1.9 
O1 O2- 2 i 0.8689(16) 0.6019(18) 0.0450(25) 1. 0 1. 
O2 O2- 2 i 0.7005(15) 0.7497(18) 0.3511(25) 1. 0 1. 
O3 O2- 2 i 0.8181(17) 0.9763(20) 0.8232(27) 1. 0 1.2 
O4 O2- 2 i 0.5757(16) 0.5820(18) 0.8222(25) 1. 0 1. 
O5 O2- 2 i 0.6268(19) 0.2109(22) 0.0685(29) 1. 0 1.5 
O6 O2- 2 i 0.9628(18) 0.1894(20) 0.3517(27) 1. 0 1.2 
O7 O2- 2 i 0.7635(17) 0.4348(19) 0.5313(26) 1. 0 1.1 

#End of data_1897-ICSD


