data_180732-ICSD
#?2014 by Fachinformationszentrum Karlsruhe, and the U.S. Secretary of 
#Commerce on behalf of the United States.  All rights reserved.
_database_code_ICSD                180732
_audit_creation_date               2011/08/01
_chemical_name_systematic          'Disilver Tetraniobate - Rt'
_chemical_formula_structural       'Ag2 (Nb4 O11)'
_chemical_formula_sum              'Ag2 Nb4 O11'
_publ_section_title
;
Structural characterisation of ferroelectric Ag2 Nb4 O11 and 
dielectric Ag2 Ta4 O11
;
loop_
_citation_id
_citation_journal_abbrev
_citation_year
_citation_journal_volume
_citation_page_first
_citation_page_last
_citation_journal_id_ASTM
primary 'Journal of Materials Chemistry' 2011 21 2715 2722 JMACEP
_publ_author_name
;
Maso, N.;Woodward, D.I.;Thomas, P.A.;Varez, A.;West, A.R.
;
_cell_length_a                     6.2080(1)
_cell_length_b                     6.2080(1)
_cell_length_c                     37.0135(7)
_cell_angle_alpha                  90.
_cell_angle_beta                   90.
_cell_angle_gamma                  120.
_cell_volume                       1235.36
_cell_formula_units_Z              6
_symmetry_space_group_name_H-M     'R 3 c H'
_symmetry_Int_Tables_number        161
_refine_ls_R_factor_all            .0348
loop_
_symmetry_equiv_pos_site_id
_symmetry_equiv_pos_as_xyz
  1	'-x+y, y, z+.5'
  2	'x, x-y, z+.5'
  3	'-y, -x, z+.5'
  4	'-x+y, -x, z'
  5	'-y, x-y, z'
  6	'x, y, z'
  7	'-x+y+.6666, y+.3333, z+.8333'
  8	'-x+y+.3333, y+.6666, z+.1666'
  9	'x+.6666, x-y+.3333, z+.8333'
 10	'x+.3333, x-y+.6666, z+.1666'
 11	'-y+.6666, -x+.3333, z+.8333'
 12	'-y+.3333, -x+.6666, z+.1666'
 13	'-x+y+.6666, -x+.3333, z+.3333'
 14	'-x+y+.3333, -x+.6666, z+.6666'
 15	'-y+.6666, x-y+.3333, z+.3333'
 16	'-y+.3333, x-y+.6666, z+.6666'
 17	'x+.6666, y+.3333, z+.3333'
 18	'x+.3333, y+.6666, z+.6666'
loop_
_atom_type_symbol
_atom_type_oxidation_number
Ag1+	1
Nb5+	5
O2-	-2
loop_
_atom_site_label
_atom_site_type_symbol
_atom_site_symmetry_multiplicity
_atom_site_Wyckoff_symbol
_atom_site_fract_x
_atom_site_fract_y
_atom_site_fract_z
_atom_site_occupancy
_atom_site_attached_hydrogens
_atom_site_U_iso_or_equiv
Ag1 Ag1+ 6 a 0 0 0.3268(2) 1. 0 0.020(2) 
Ag2 Ag1+ 6 a 0 0 0.1697(2) 1. 0 0.022(2) 
Nb1 Nb5+ 18 b 0.3665(6) 0.003(1) 0.2484(1) 1. 0 0.0106(4) 
Nb2 Nb5+ 6 a 0 0 -0.0035(2) 1. 0 0.0175(8) 
O1 O2- 18 b 0.058(1) 0.4201(9) 0.1970(1) 1. 0 0.0102(9) 
O2 O2- 18 b 0.4094(9) 0.054(1) 0.3021(1) 1. 0 0.017(1) 
O3 O2- 18 b 0.7499(7) -0.001(1) 0.2505(2) 1. 0 0.0139(5) 
O4 O2- 6 a 0 0 0.4081(1) 1. 0 0.012(1) 
O5 O2- 6 a 0 0 0.0942(2) 1. 0 0.011(2) 

#End of data_180732-ICSD


