data_97488-ICSD
#?2014 by Fachinformationszentrum Karlsruhe, and the U.S. Secretary of 
#Commerce on behalf of the United States.  All rights reserved.
_database_code_ICSD                97488
_audit_creation_date               2004/10/01
_chemical_name_systematic          'Dilanthanum Lithium Ruthenate(V)'
_chemical_formula_structural       'La2 Li (Ru O6)'
_chemical_formula_sum              'La2 Li1 O6 Ru1'
_publ_section_title
;
Structural chemistry and magnetic properties of La2 Li Ru O6
;
loop_
_citation_id
_citation_journal_abbrev
_citation_year
_citation_journal_volume
_citation_page_first
_citation_page_last
_citation_journal_id_ASTM
primary 'Journal of Solid State Chemistry' 2003 175 20 26 JSSCBI
_publ_author_name
;
Battle, P.D.;Grey, C.P.;Hervieu, M.;Martin, C.;Moore, C.A.;Paik Youn-
Kee
;
_cell_length_a                     5.5443(2)
_cell_length_b                     5.5963(2)
_cell_length_c                     7.8303(3)
_cell_angle_alpha                  90
_cell_angle_beta                   90.034(6)
_cell_angle_gamma                  90
_cell_volume                       242.96
_cell_formula_units_Z              2
_symmetry_space_group_name_H-M     'P 1 21/n 1'
_symmetry_Int_Tables_number        14
_refine_ls_R_factor_all            .0486
loop_
_symmetry_equiv_pos_site_id
_symmetry_equiv_pos_as_xyz
  1	'-x+.5, y+.5, -z+.5'
  2	'-x, -y, -z'
  3	'x+.5, -y+.5, z+.5'
  4	'x, y, z'
loop_
_atom_type_symbol
_atom_type_oxidation_number
La3+	3
Li1+	1
O2-	-2
Ru5+	5
loop_
_atom_site_label
_atom_site_type_symbol
_atom_site_symmetry_multiplicity
_atom_site_Wyckoff_symbol
_atom_site_fract_x
_atom_site_fract_y
_atom_site_fract_z
_atom_site_occupancy
_atom_site_attached_hydrogens
_atom_site_U_iso_or_equiv
La1 La3+ 4 e 0.0083(4) 0.9564(2) 0.7491(4) 1. 0 0.0000(2) 
Li1 Li1+ 2 d 0.5 0 0 1. 0 0.018(4) 
Ru1 Ru5+ 2 c 0.5 0 0.5 1. 0 0.0013(3) 
O1 O2- 4 e 0.2809(6) 0.6993(5) 0.9600(6) 1. 0 0.0007(7) 
O2 O2- 4 e 0.2016(6) 0.2212(6) 0.9597(5) 1. 0 0.0019(7) 
O3 O2- 4 e 0.9242(4) 0.5157(3) 0.7565(4) 1. 0 0.0010(4) 

#End of data_97488-ICSD


