data_171930-ICSD
#?2014 by Fachinformationszentrum Karlsruhe, and the U.S. Secretary of 
#Commerce on behalf of the United States.  All rights reserved.
_database_code_ICSD                171930
_audit_creation_date               2007/04/01
_chemical_name_systematic
;
Trimanganese Zinc Calcium Catena-pentasiliacte
;
_chemical_formula_structural       'Mn3 Zn Ca Si5 O15'
_chemical_formula_sum              'Ca1 Mn3 O15 Si5 Zn1'
_chemical_name_mineral             Fowlerite
_publ_section_title
;
Crystal chemistry of Zn-rich rhodonite ("fowlerite")
;
loop_
_citation_id
_citation_journal_abbrev
_citation_year
_citation_journal_volume
_citation_page_first
_citation_page_last
_citation_journal_id_ASTM
primary 'American Mineralogist' 2005 90 969 983 AMMIAY
_publ_author_name                  'Nelson, W.R.;Griffen, D.T.'
_cell_length_a                     9.8768(3)
_cell_length_b                     10.5222(3)
_cell_length_c                     12.2180(4)
_cell_angle_alpha                  108.748(3)
_cell_angle_beta                   103.781(3)
_cell_angle_gamma                  82.037(2)
_cell_volume                       1165.12
_cell_formula_units_Z              4
_symmetry_space_group_name_H-M     'C -1'
_symmetry_Int_Tables_number        2
_refine_ls_R_factor_all            .045
loop_
_symmetry_equiv_pos_site_id
_symmetry_equiv_pos_as_xyz
  1	'-x, -y, -z'
  2	'x, y, z'
  3	'-x+.5, -y+.5, -z'
  4	'x+.5, y+.5, z'
loop_
_atom_type_symbol
_atom_type_oxidation_number
Ca2+	2
Mn2+	2
O2-	-2
Si4+	4
Zn2+	2
loop_
_atom_site_label
_atom_site_type_symbol
_atom_site_symmetry_multiplicity
_atom_site_Wyckoff_symbol
_atom_site_fract_x
_atom_site_fract_y
_atom_site_fract_z
_atom_site_occupancy
_atom_site_attached_hydrogens
_atom_site_U_iso_or_equiv
Mn1 Mn2+ 4 i -0.00146(4) 0.03131(3) 0.14668(3) 1. 0 0.0079(1) 
Mn2 Mn2+ 4 i 0.00075(4) 0.12599(4) 0.44403(3) 1. 0 0.0080(1) 
Mn3 Mn2+ 4 i 0.01672(4) 0.20418(3) 0.72898(3) 1. 0 0.0081(1) 
Zn1 Zn2+ 4 i 0.06686(4) 0.26320(3) 0.02122(3) 1. 0 0.0114(1) 
Ca1 Ca2+ 4 i 0.99362(5) 0.35906(5) 0.30631(4) 1. 0 0.0104(1) 
Si1 Si4+ 4 i 0.20495(6) 0.44901(6) 0.91116(6) 1. 0 0.0065(1) 
Si2 Si4+ 4 i 0.21321(6) 0.36630(6) 0.65340(6) 1. 0 0.0058(1) 
Si3 Si4+ 4 i 0.21794(6) 0.57993(6) 0.52844(6) 1. 0 0.0061(1) 
Si4 Si4+ 4 i 0.21385(6) 0.50566(6) 0.25871(6) 1. 0 0.0066(1) 
Si5 Si4+ 4 i 0.20233(7) 0.70059(6) 0.12362(6) 1. 0 0.0068(1) 
O1 O2- 4 i 0.1274(2) 0.0730(2) 0.0397(2) 1. 0 0.0091(3) 
O2 O2- 4 i 0.1188(2) 0.1577(2) 0.3225(2) 1. 0 0.0088(3) 
O3 O2- 4 i 0.1134(2) 0.9230(2) 0.4366(2) 1. 0 0.0085(3) 
O4 O2- 4 i 0.1196(2) 0.0136(2) 0.7328(2) 1. 0 0.0089(3) 
O5 O2- 4 i 0.1331(2) 0.7902(2) 0.8530(2) 1. 0 0.0093(3) 
O6 O2- 4 i 0.0954(2) 0.8314(2) 0.1276(2) 1. 0 0.0097(3) 
O7 O2- 4 i 0.1298(2) 0.3196(2) 0.9014(2) 1. 0 0.0105(3) 
O8 O2- 4 i 0.1260(2) 0.2359(2) 0.6100(2) 1. 0 0.0098(3) 
O9 O2- 4 i 0.1316(2) 0.7125(2) 0.5867(2) 1. 0 0.0110(3) 
O10 O2- 4 i 0.1256(2) 0.3803(2) 0.1794(2) 1. 0 0.0108(3) 
O11 O2- 4 i 0.1706(2) 0.4680(2) 0.7776(2) 1. 0 0.0087(3) 
O12 O2- 4 i 0.1595(2) 0.4597(2) 0.5639(2) 1. 0 0.0098(3) 
O13 O2- 4 i 0.1663(2) 0.5346(2) 0.3850(2) 1. 0 0.0101(3) 
O14 O2- 4 i 0.1566(2) 0.6426(2) 0.2202(2) 1. 0 0.0091(3) 
O15 O2- 4 i 0.1455(2) 0.5899(2) 0.9951(2) 1. 0 0.0099(3) 

loop_
_atom_site_aniso_label
_atom_site_aniso_type_symbol
_atom_site_aniso_U_11
_atom_site_aniso_U_22
_atom_site_aniso_U_33
_atom_site_aniso_U_12
_atom_site_aniso_U_13
_atom_site_aniso_U_23
Mn1 Mn2+ 0.0070 0.0070 0.0097 0.0023 0.0028 0.0009
Mn2 Mn2+ 0.0071 0.0078 0.0091 0.0026 0.0023 0.0007
Mn3 Mn2+ 0.0078 0.0075 0.0087 0.0017 0.0028 0.0006
Zn1 Zn2+ 0.0163 0.0085 0.0077 0.0021 -0.0008 -0.0019
Ca1 Ca2+ 0.0087 0.0098 0.0147 0.0048 0.0050 0.0003
Si1 Si4+ 0.0052 0.0068 0.0066 0.0008 0.0017 0.0001
Si2 Si4+ 0.0046 0.0059 0.0069 0.0021 0.0013 0.0005
Si3 Si4+ 0.0051 0.0068 0.0061 0.0019 0.0014 0.0008
Si4 Si4+ 0.0050 0.0077 0.0072 0.0027 0.0015 0.0004
Si5 Si4+ 0.0061 0.0063 0.0077 0.0020 0.0023 0.0014
O1 O2- 0.0047 0.0112 0.0115 0.0043 0.0012 0.0012
O2 O2- 0.0047 0.0106 0.0108 0.0032 0.0018 0.0009
O3 O2- 0.0054 0.0096 0.0103 0.0025 0.0015 -0.0004
O4 O2- 0.0064 0.0085 0.0122 0.0041 0.0024 0.0012
O5 O2- 0.0069 0.0085 0.0123 0.0028 0.0028 0.0005
O6 O2- 0.0082 0.0069 0.0139 0.0034 0.0033 0.0026
O7 O2- 0.0112 0.0094 0.0113 0.0031 0.0020 -0.0026
O8 O2- 0.0106 0.0090 0.0094 0.0019 0.0016 -0.0028
O9 O2- 0.0092 0.0101 0.0123 0.0018 0.0046 0.0041
O10 O2- 0.0113 0.0105 0.0090 -0.0005 0.0027 -0.0030
O11 O2- 0.0095 0.0086 0.0072 0.0013 0.0030 0.0016
O12 O2- 0.0078 0.0113 0.0122 0.0071 0.0016 0.0002
O13 O2- 0.0087 0.0144 0.0068 0.0025 0.0019 -0.0007
O14 O2- 0.0089 0.0104 0.0094 0.0057 0.0033 0.0031
O15 O2- 0.0078 0.0107 0.0083 -0.0007 0.0016 0.0006
#End of data_171930-ICSD


