data_16616-ICSD
#?2014 by Fachinformationszentrum Karlsruhe, and the U.S. Secretary of 
#Commerce on behalf of the United States.  All rights reserved.
_database_code_ICSD                16616
_audit_creation_date               1980/01/01
_audit_update_record               2012/08/01
_chemical_name_systematic          'Dicalcium Silicate - Beta'
_chemical_formula_structural       'Ca2 (Si O4)'
_chemical_formula_sum              'Ca2 O4 Si1'
_chemical_name_mineral             Larnite
_publ_section_title
;
Refinements of structures containing bonds between Si, P, S or Cl and 
O or N. X. beta-Ca2 Si O4
;
loop_
_citation_id
_citation_journal_abbrev
_citation_year
_citation_journal_volume
_citation_page_first
_citation_page_last
_citation_journal_id_ASTM
primary 'Acta Crystallographica (1,1948-23,1967)' 1964 17 685 686 ACCRA9
2 'Phase Transition' 1992 38 127 220 PHTRDP
_publ_author_name                  'Cruickshank, D.W.J.'
_cell_length_a                     5.48(2)
_cell_length_b                     6.76(2)
_cell_length_c                     9.28(2)
_cell_angle_alpha                  90.
_cell_angle_beta                   85.45
_cell_angle_gamma                  90.
_cell_volume                       342.69
_cell_formula_units_Z              4
_symmetry_space_group_name_H-M     'P 1 21/n 1'
_symmetry_Int_Tables_number        14
_refine_ls_R_factor_all            .126
loop_
_symmetry_equiv_pos_site_id
_symmetry_equiv_pos_as_xyz
  1	'-x+.5, y+.5, -z+.5'
  2	'-x, -y, -z'
  3	'x+.5, -y+.5, z+.5'
  4	'x, y, z'
loop_
_atom_type_symbol
_atom_type_oxidation_number
Ca2+	2
O2-	-2
Si4+	4
loop_
_atom_site_label
_atom_site_type_symbol
_atom_site_symmetry_multiplicity
_atom_site_Wyckoff_symbol
_atom_site_fract_x
_atom_site_fract_y
_atom_site_fract_z
_atom_site_occupancy
_atom_site_attached_hydrogens
_atom_site_U_iso_or_equiv
Ca1 Ca2+ 4 e 0.2646(18) 0.3432(15) 0.4300(1) 1. 0 0 
Ca2 Ca2+ 4 e 0.2774(18) -.0015(15) -.2996(11) 1. 0 0 
Si1 Si4+ 4 e 0.2482(18) -.2204(15) 0.4181(11) 1. 0 0 
O1 O2- 4 e 0.3047(55) 0.0118(44) 0.4343(32) 1. 0 0.015(6) 
O2 O2- 4 e 0.0310(55) -.2515(44) 0.3093(22) 1. 0 0.007(6) 
O3 O2- 4 e 0.4909(73) -.3373(60) 0.3621(32) 1. 0 0.025(6) 
O4 O2- 4 e 0.1624(73) -.3254(60) 0.5733(32) 1. 0 0.02(6) 

loop_
_atom_site_aniso_label
_atom_site_aniso_type_symbol
_atom_site_aniso_U_11
_atom_site_aniso_U_22
_atom_site_aniso_U_33
_atom_site_aniso_U_12
_atom_site_aniso_U_13
_atom_site_aniso_U_23
Ca1 Ca2+ 0.006(3) 0.008(3) 0.010(3) -0.006(3) 0.002(3) 0.002(3)
Ca2 Ca2+ 0.006(3) 0.009(3) 0.006(3) 0.002(3) -0.003(3) 0.000(3)
Si1 Si4+ 0.009(4) 0.009(4) 0.008(4) -0.006(4) 0.003(4) -0.004(4)
#End of data_16616-ICSD


