data_27181-ICSD
#?2014 by Fachinformationszentrum Karlsruhe, and the U.S. Secretary of 
#Commerce on behalf of the United States.  All rights reserved.
_database_code_ICSD                27181
_audit_creation_date               1982/12/31
_chemical_name_systematic          'Calcium Discandium Sulfide'
_chemical_formula_structural       'Ca Sc2 S4'
_chemical_formula_sum              'Ca1 S4 Sc2'
_publ_section_title
;
Some Ternary Scandium Sulphides. Structure Refinement by Powder 
Neutron Diffraction
;
loop_
_citation_id
_citation_journal_abbrev
_citation_year
_citation_journal_volume
_citation_page_first
_citation_page_last
_citation_journal_id_ASTM
primary 'Acta Crystallographica B (24,1968-38,1982)' 1982 38 1549 1551 ACBCAR
_publ_author_name                  'Ijdo, D.J.W.'
_cell_length_a                     11.5014(5)
_cell_length_b                     13.4695(6)
_cell_length_c                     3.7284(1)
_cell_angle_alpha                  90.
_cell_angle_beta                   90.
_cell_angle_gamma                  90.
_cell_volume                       577.6
_cell_formula_units_Z              4
_symmetry_space_group_name_H-M     'P n a m'
_symmetry_Int_Tables_number        62
_refine_ls_R_factor_all            .061
loop_
_symmetry_equiv_pos_site_id
_symmetry_equiv_pos_as_xyz
  1	'x+.5, -y+.5, z'
  2	'x, y, -z+.5'
  3	'-x+.5, y+.5, z+.5'
  4	'-x, -y, -z'
  5	'-x+.5, y+.5, -z'
  6	'-x, -y, z+.5'
  7	'x+.5, -y+.5, -z+.5'
  8	'x, y, z'
loop_
_atom_type_symbol
_atom_type_oxidation_number
Ca2+	2
S2-	-2
Sc3+	3
loop_
_atom_site_label
_atom_site_type_symbol
_atom_site_symmetry_multiplicity
_atom_site_Wyckoff_symbol
_atom_site_fract_x
_atom_site_fract_y
_atom_site_fract_z
_atom_site_occupancy
_atom_site_attached_hydrogens
_atom_site_B_iso_or_equiv
Ca1 Ca2+ 4 c 0.7602(5) 0.6658(4) 0.25 1. 0 0.36 
Sc1 Sc3+ 4 c 0.4149(2) 0.0972(2) 0.25 1. 0 0.71 
Sc2 Sc3+ 4 c 0.4413(2) 0.6110(2) 0.25 1. 0 0.61 
S1 S2- 4 c 0.2021(8) 0.1657(8) 0.25 1. 0 0.2 
S2 S2- 4 c 0.1281(7) 0.4673(9) 0.25 1. 0 0.1 
S3 S2- 4 c 0.5308(9) 0.7864(8) 0.25 1. 0 0.6 
S4 S2- 4 c 0.4065(7) 0.4263(7) 0.25 1. 0 0.1 

#End of data_27181-ICSD


