data_62232-ICSD
#?2014 by Fachinformationszentrum Karlsruhe, and the U.S. Secretary of 
#Commerce on behalf of the United States.  All rights reserved.
_database_code_ICSD                62232
_audit_creation_date               1988/07/15
_audit_update_record               2011/08/01
_chemical_name_systematic          'Gallium(I) Tetrachloroaluminate'
_chemical_formula_structural       'Ga (Al Cl4)'
_chemical_formula_sum              'Al1 Cl4 Ga1'
_publ_section_title
;
The distinction of gallium(I) tetrachloroaluminate, Ga (Al Cl4)
;
loop_
_citation_id
_citation_journal_abbrev
_citation_year
_citation_journal_volume
_citation_page_first
_citation_page_last
_citation_journal_id_ASTM
primary 'Zeitschrift fuer Anorganische und Allgemeine Chemie (1950) (DE)'
 1987 552 108 112 ZAACAB
_publ_author_name                  'Staffel, T.;Meyer, G.'
_cell_length_a                     7.164(1)
_cell_length_b                     10.179(2)
_cell_length_c                     9.267(1)
_cell_angle_alpha                  90.
_cell_angle_beta                   93.21(1)
_cell_angle_gamma                  90.
_cell_volume                       674.71
_cell_formula_units_Z              4
_symmetry_space_group_name_H-M     'P 1 21/n 1'
_symmetry_Int_Tables_number        14
_refine_ls_R_factor_all            .097
loop_
_symmetry_equiv_pos_site_id
_symmetry_equiv_pos_as_xyz
  1	'-x+.5, y+.5, -z+.5'
  2	'-x, -y, -z'
  3	'x+.5, -y+.5, z+.5'
  4	'x, y, z'
loop_
_atom_type_symbol
_atom_type_oxidation_number
Al3+	3
Cl1-	-1
Ga1+	1
loop_
_atom_site_label
_atom_site_type_symbol
_atom_site_symmetry_multiplicity
_atom_site_Wyckoff_symbol
_atom_site_fract_x
_atom_site_fract_y
_atom_site_fract_z
_atom_site_occupancy
_atom_site_attached_hydrogens
Ga1 Ga1+ 4 e 0.1733(2) 0.2969(1) 0.2091(1) 1. 0 
Al1 Al3+ 4 e 0.7433(3) 0.5485(2) 0.3152(2) 1. 0 
Cl1 Cl1- 4 e 0.4627(3) 0.9245(2) 0.6740(2) 1. 0 
Cl2 Cl1- 4 e 0.7148(3) 0.7181(2) 0.4475(2) 1. 0 
Cl3 Cl1- 4 e 0.0181(3) 0.0287(2) 0.3057(2) 1. 0 
Cl4 Cl1- 4 e 0.1948(3) 0.6229(2) 0.5613(2) 1. 0 

loop_
_atom_site_aniso_label
_atom_site_aniso_type_symbol
_atom_site_aniso_U_11
_atom_site_aniso_U_22
_atom_site_aniso_U_33
_atom_site_aniso_U_12
_atom_site_aniso_U_13
_atom_site_aniso_U_23
Ga1 Ga1+ 0.0814(9) 0.0741(8) 0.1130(11) -.0136(7) 0.0078(8) -.0056(8)
Al1 Al3+ 0.0314(13) 0.0404(14) 0.0367(14) -.0002(11) 0.0037(11) -.0004(12)
Cl1 Cl1- 0.0513(13) 0.0557(14) 0.0651(16) -.0026(11) 0.0234(11) -.0038(12)
Cl2 Cl1- 0.0616(15) 0.0679(15) 0.0593(16) 0.0124(13) -.0037(12) -.0256(14)
Cl3 Cl1- 0.0429(12) 0.0687(15) 0.0693(16) 0.0008(12) -.0120(11) 0.0089(13)
Cl4 Cl1- 0.0711(16) 0.0606(15) 0.0674(17) -.0101(12) -.0064(13) 0.0202(13)
#End of data_62232-ICSD


