data_92615-ICSD
#?2014 by Fachinformationszentrum Karlsruhe, and the U.S. Secretary of 
#Commerce on behalf of the United States.  All rights reserved.
_database_code_ICSD                92615
_audit_creation_date               2003/04/01
_audit_update_record               2012/02/01
_chemical_name_systematic          'Potassium Tetrazinc Tris(borate)'
_chemical_formula_structural       'K Zn4 (B O3)3'
_chemical_formula_sum              'B3 K1 O9 Zn4'
_publ_section_title
;
Framework alkali metal zinc orthoborates: A Zn4 (B O3)3 (A= K, Rb, 
Cs)
;
loop_
_citation_id
_citation_journal_abbrev
_citation_year
_citation_journal_volume
_citation_journal_issue
_citation_page_first
_citation_page_last
_citation_journal_id_ASTM
primary 'Inorganic Chemistry' 1992 31 22 4679 4682 INOCAJ
_publ_author_name
;
Smith, R.W.;Luce, J.L.;Keszler, D.A.
;
_cell_length_a                     6.876(2)
_cell_length_b                     4.990(1)
_cell_length_c                     12.574(1)
_cell_angle_alpha                  90
_cell_angle_beta                   92.92(1)
_cell_angle_gamma                  90
_cell_volume                       430.87
_cell_formula_units_Z              2
_symmetry_space_group_name_H-M     'P 1 2/c 1'
_symmetry_Int_Tables_number        13
_refine_ls_R_factor_all            .029
loop_
_symmetry_equiv_pos_site_id
_symmetry_equiv_pos_as_xyz
  1	'x, -y, z+.5'
  2	'-x, -y, -z'
  3	'-x, y, -z+.5'
  4	'x, y, z'
loop_
_atom_type_symbol
_atom_type_oxidation_number
B3+	3
K1+	1
O2-	-2
Zn2+	2
loop_
_atom_site_label
_atom_site_type_symbol
_atom_site_symmetry_multiplicity
_atom_site_Wyckoff_symbol
_atom_site_fract_x
_atom_site_fract_y
_atom_site_fract_z
_atom_site_occupancy
_atom_site_attached_hydrogens
_atom_site_B_iso_or_equiv
K1 K1+ 2 e 0 0.7047(4) 0.250 1. 0 2.73(7) 
Zn1 Zn2+ 4 g 0.48956(7) 0.6532(1) 0.12396(4) 1. 0 0.87(2) 
Zn2 Zn2+ 4 g 0.20828(7) 0.1649(1) 0.06022(4) 1. 0 0.92(2) 
B1 B3+ 2 f 0.5 0.160(1) 0.250 1. 0 0.8(2) 
B2 B3+ 4 g 0.1881(7) 0.346(1) 0.4507(4) 1. 0 0.9(2) 
O1 O2- 2 f 0.5 0.8831(9) 0.250 1. 0 1.2(2) 
O2 O2- 4 g 0.2764(5) 0.7955(7) 0.0352(3) 1. 0 1.4(1) 
O3 O2- 4 g 0.4069(5) 0.2965(6) 0.1679(2) 1. 0 1.2(1) 
O4 O2- 4 g 0.2591(5) 0.6068(6) 0.4351(2) 1. 0 1.0(1) 
O5 O2- 4 g 0.0412(5) 0.2451(7) 0.3894(2) 1. 0 1.4(1) 

#End of data_92615-ICSD


