data_27652-ICSD
#?2014 by Fachinformationszentrum Karlsruhe, and the U.S. Secretary of 
#Commerce on behalf of the United States.  All rights reserved.
_database_code_ICSD                27652
_audit_creation_date               1980/01/01
_audit_update_record               2005/10/01
_chemical_name_systematic          'Dipotassium Lead Bis(sulfate(VI))'
_chemical_formula_structural       'K2 Pb (S O4)2'
_chemical_formula_sum              'K2 O8 Pb1 S2'
_chemical_name_mineral             Palmierite
_publ_section_title
;
Beitraege zur Kristallchemie natuerlicher und kuenstlicher 
Schwermetallvanadate. III. Das Bleiorthovanadat, seine Darstellung, 
Kristallstruktur und Isotypiebeziehungen
;
loop_
_citation_id
_citation_journal_abbrev
_citation_year
_citation_journal_volume
_citation_page_first
_citation_page_last
_citation_journal_id_ASTM
primary 'Neues Jahrbuch fuer Mineralogie. Monatshefte (Band=Jahr) (1950-)'
 1953 1953 209 223 NJMMAW
2 'Fortschritte der Mineralogie' 1952 31 9 11 FMRLAL
3 'Zapiski Vsesoyuznogo Mineralogicheskogo Obshchestva' 1962 91 712 712 ZVMOAG
_publ_author_name                  'Bachmann, H.G.'
_cell_length_a                     7.56
_cell_length_b                     7.56
_cell_length_c                     7.56
_cell_angle_alpha                  42.47
_cell_angle_beta                   42.47
_cell_angle_gamma                  42.47
_cell_volume                       178.36
_cell_formula_units_Z              1
_symmetry_space_group_name_H-M     'R -3 m R'
_symmetry_Int_Tables_number        166
loop_
_symmetry_equiv_pos_site_id
_symmetry_equiv_pos_as_xyz
  1	'-z, -y, -x'
  2	'-z, -x, -y'
  3	'-x, -z, -y'
  4	'-y, -z, -x'
  5	'-y, -x, -z'
  6	'-x, -y, -z'
  7	'z, y, x'
  8	'z, x, y'
  9	'x, z, y'
 10	'y, z, x'
 11	'y, x, z'
 12	'x, y, z'
loop_
_atom_type_symbol
_atom_type_oxidation_number
K1+	1
O2-	-2
Pb2+	2
S6+	6
loop_
_atom_site_label
_atom_site_type_symbol
_atom_site_symmetry_multiplicity
_atom_site_Wyckoff_symbol
_atom_site_fract_x
_atom_site_fract_y
_atom_site_fract_z
_atom_site_occupancy
_atom_site_attached_hydrogens
Pb1 Pb2+ 1 a 0 0 0 1. 0 
K1 K1+ 2 c 0.204(4) 0.204(4) 0.204(4) 1. 0 
S1 S6+ 2 c 0.404(4) 0.404(4) 0.404(4) 1. 0 
O1 O2- 2 c 0.335 0.335 0.335 1. 0 
O2 O2- 6 h 0.283 0.283 0.748 1. 0 

#End of data_27652-ICSD


