data_166610-ICSD
#?2014 by Fachinformationszentrum Karlsruhe, and the U.S. Secretary of 
#Commerce on behalf of the United States.  All rights reserved.
_database_code_ICSD                166610
_audit_creation_date               2010/08/01
_audit_update_record               2013/08/01
_chemical_name_systematic          'Sodium Iron(III) Bis(molybdate)'
_chemical_formula_structural       'Na Fe (Mo O4)2'
_chemical_formula_sum              'Fe1 Mo2 Na1 O8'
_publ_section_title
;
Crystal structure of the double sodium and iron molybdate Na Fe (Mo 
O4)2
;
loop_
_citation_id
_citation_journal_abbrev
_citation_year
_citation_journal_volume
_citation_journal_issue
_citation_page_first
_citation_page_last
_citation_journal_id_ASTM
primary 'Doklady Akademii Nauk SSSR' 1975 221 6 1322 1325 DANKAS
_publ_author_name                  'Klevtsova, P.F.'
_cell_length_a                     9.87
_cell_length_b                     5.31
_cell_length_c                     13.57
_cell_angle_alpha                  90.
_cell_angle_beta                   90.4
_cell_angle_gamma                  90.
_cell_volume                       711.18
_cell_formula_units_Z              4
_symmetry_space_group_name_H-M     'C 1 2/c 1'
_symmetry_Int_Tables_number        15
_refine_ls_R_factor_all            .094
loop_
_symmetry_equiv_pos_site_id
_symmetry_equiv_pos_as_xyz
  1	'x, -y, z+.5'
  2	'-x, -y, -z'
  3	'-x, y, -z+.5'
  4	'x, y, z'
  5	'x+.5, -y+.5, z+.5'
  6	'-x+.5, -y+.5, -z'
  7	'-x+.5, y+.5, -z+.5'
  8	'x+.5, y+.5, z'
loop_
_atom_type_symbol
_atom_type_oxidation_number
Fe3+	3
Mo6+	6
Na1+	1
O2-	-2
loop_
_atom_site_label
_atom_site_type_symbol
_atom_site_symmetry_multiplicity
_atom_site_Wyckoff_symbol
_atom_site_fract_x
_atom_site_fract_y
_atom_site_fract_z
_atom_site_occupancy
_atom_site_attached_hydrogens
_atom_site_B_iso_or_equiv
Mo1 Mo6+ 8 f 0.1755 0.4634 0.1200 1. 0 0.90 
Fe1 Fe3+ 4 a 0 0 0 1. 0 0.66 
Na1 Na1+ 4 e 0 -0.0685 0.250 1. 0 1.94 
O1 O2- 8 f 0.101 0.688 0.041 1. 0 1.76 
O2 O2- 8 f 0.349 0.401 0.086 1. 0 1.62 
O3 O2- 8 f 0.076 0.175 0.116 1. 0 1.45 
O4 O2- 8 f 0.173 0.592 0.233 1. 0 2.23 

#End of data_166610-ICSD


