data_203080-ICSD
#?2014 by Fachinformationszentrum Karlsruhe, and the U.S. Secretary of 
#Commerce on behalf of the United States.  All rights reserved.
_database_code_ICSD                203080
_audit_creation_date               1990/12/27
_audit_update_record               2008/02/01
_chemical_name_systematic          'Sodium Copper(III) Oxide'
_chemical_formula_structural       'Na Cu O2'
_chemical_formula_sum              'Cu1 Na1 O2'
_publ_section_title
;
Crystal structures of Na Cu O2 and K Cu O2 by neutron diffraction
;
loop_
_citation_id
_citation_journal_abbrev
_citation_year
_citation_journal_volume
_citation_page_first
_citation_page_last
_citation_journal_id_ASTM
primary 'Journal of Solid State Chemistry' 1989 83 1 7 JSSCBI
_publ_author_name
;
Brese, N.E.;O'Keeffe, M.;von Dreele, R.B.;Young, V.G.jr.
;
_cell_length_a                     6.3512(2)
_cell_length_b                     2.7474(1)
_cell_length_c                     6.1027(2)
_cell_angle_alpha                  90.
_cell_angle_beta                   120.767(2)
_cell_angle_gamma                  90.
_cell_volume                       91.5
_cell_formula_units_Z              2
_symmetry_space_group_name_H-M     'C 1 2/m 1'
_symmetry_Int_Tables_number        12
_refine_ls_R_factor_all            .019
loop_
_symmetry_equiv_pos_site_id
_symmetry_equiv_pos_as_xyz
  1	'-x, y, -z'
  2	'-x, -y, -z'
  3	'x, -y, z'
  4	'x, y, z'
  5	'-x+.5, y+.5, -z'
  6	'-x+.5, -y+.5, -z'
  7	'x+.5, -y+.5, z'
  8	'x+.5, y+.5, z'
loop_
_atom_type_symbol
_atom_type_oxidation_number
Cu3+	3
Na1+	1
O2-	-2
loop_
_atom_site_label
_atom_site_type_symbol
_atom_site_symmetry_multiplicity
_atom_site_Wyckoff_symbol
_atom_site_fract_x
_atom_site_fract_y
_atom_site_fract_z
_atom_site_occupancy
_atom_site_attached_hydrogens
Na1 Na1+ 2 d 0 0.5 0.5 1. 0 
Cu1 Cu3+ 2 a 0 0 0 1. 0 
O1 O2- 4 i 0.3334(1) 0 0.7773(1) 1. 0 

loop_
_atom_site_aniso_label
_atom_site_aniso_type_symbol
_atom_site_aniso_U_11
_atom_site_aniso_U_22
_atom_site_aniso_U_33
_atom_site_aniso_U_12
_atom_site_aniso_U_13
_atom_site_aniso_U_23
Na1 Na1+ 0.0074(7) 0.0122(8) 0.0075(7) 0 0.0028(5) 0
Cu1 Cu3+ 0.0058(5) 0.0027(4) 0.0039(5) 0 -.0006(3) 0
O1 O2- 0.0084(5) 0.0033(4) 0.0062(4) 0 0.0005(3) 0
#End of data_203080-ICSD


