data_36558-ICSD
#?2014 by Fachinformationszentrum Karlsruhe, and the U.S. Secretary of 
#Commerce on behalf of the United States.  All rights reserved.
_database_code_ICSD                36558
_audit_creation_date               1992/08/20
_chemical_name_systematic          'Calcium Hydroxide Nitrate Hydrate'
_chemical_formula_structural       'Ca (O H) N O3 (H2 O)'
_chemical_formula_sum              'H3 Ca1 N1 O5'
_publ_section_title
;
Crystal structure of calcium hydroxide nitrate hydrate and its 
superstructure in relation to cadmium hydroxide nitrate hydrate
;
loop_
_citation_id
_citation_journal_abbrev
_citation_year
_citation_journal_volume
_citation_page_first
_citation_page_last
_citation_journal_id_ASTM
primary 'Zeitschrift fuer Kristallographie (1979-2010)' 1992 200 35 46 ZEKRDZ
_publ_author_name
;
Padeste, C.;Schmalle, H.W.;Oswald, H.R.
;
_cell_length_a                     13.958(4)
_cell_length_b                     8.817(2)
_cell_length_c                     14.402(9)
_cell_angle_alpha                  90.
_cell_angle_beta                   90.
_cell_angle_gamma                  90.
_cell_volume                       1772.42
_cell_formula_units_Z              16
_symmetry_space_group_name_H-M     'P b c a'
_symmetry_Int_Tables_number        61
_refine_ls_R_factor_all            .0383
loop_
_symmetry_equiv_pos_site_id
_symmetry_equiv_pos_as_xyz
  1	'x+.5, y, -z+.5'
  2	'x, -y+.5, z+.5'
  3	'-x+.5, y+.5, z'
  4	'-x, -y, -z'
  5	'-x+.5, -y, z+.5'
  6	'-x, y+.5, -z+.5'
  7	'x+.5, -y+.5, -z'
  8	'x, y, z'
loop_
_atom_type_symbol
_atom_type_oxidation_number
Ca2+	2
H1+	1
N5+	5
O2-	-2
loop_
_atom_site_label
_atom_site_type_symbol
_atom_site_symmetry_multiplicity
_atom_site_Wyckoff_symbol
_atom_site_fract_x
_atom_site_fract_y
_atom_site_fract_z
_atom_site_occupancy
_atom_site_attached_hydrogens
_atom_site_U_iso_or_equiv
Ca1 Ca2+ 8 c 0.22805(8) 0.51183(8) 0.44622(7) 1. 0 0 
Ca2 Ca2+ 8 c 0.23150(9) 0.51366(9) 0.69807(8) 1. 0 0 
N1 N5+ 8 c 0.4128(5) 0.2615(4) 0.4432(8) 1. 0 0 
O1 O2- 8 c 0.4405(4) 0.1289(8) 0.4386(5) 1. 0 0 
O2 O2- 8 c 0.4630(5) 0.3736(8) 0.4469(6) 1. 0 0 
O3 O2- 8 c 0.3215(5) 0.2797(4) 0.4526(5) 1. 0 0 
N2 N5+ 8 c 0.4065(7) 0.2697(7) 0.6914(9) 1. 0 0 
O4 O2- 8 c 0.4439(5) 0.1411(8) 0.6856(5) 1. 0 0 
O5 O2- 8 c 0.4563(5) 0.3827(9) 0.6800(6) 1. 0 0 
O6 O2- 8 c 0.3195(5) 0.2782(5) 0.7024(5) 1. 0 0 
O7 O2- 8 c 0.1638(5) 0.3853(8) 0.3143(4) 1. 0 0 
O8 O2- 8 c 0.3310(5) 0.6018(8) 0.3294(4) 1. 0 0 
O9 O2- 8 c 0.3219(4) 0.6094(8) 0.5711(5) 1. 0 0 
O10 O2- 8 c 0.1556(4) 0.3875(8) 0.5740(5) 1. 0 0 
H1 H1+ 8 c 0.1007 0.4099 0.3104 1. 0 0.04 
H2 H1+ 8 c 0.1637 0.2622 0.319 1. 0 0.04 
H3 H1+ 8 c 0.3976 0.5866 0.3367 1. 0 0.04 
H4 H1+ 8 c 0.3831 0.5657 0.5758 1. 0 0.04 
H5 H1+ 8 c 0.0963 0.3963 0.572 1. 0 0.04 
H6 H1+ 8 c 0.1701 0.2467 0.5792 1. 0 0.04 

loop_
_atom_site_aniso_label
_atom_site_aniso_type_symbol
_atom_site_aniso_U_11
_atom_site_aniso_U_22
_atom_site_aniso_U_33
_atom_site_aniso_U_12
_atom_site_aniso_U_13
_atom_site_aniso_U_23
Ca1 Ca2+ 0.0260(3) 0.0157(4) 0.0220(5) 0.0013(4) 0.0012(5) -.0005(3)
Ca2 Ca2+ 0.0421(5) 0.0151(4) 0.0215(5) -.0045(5) -.0030(5) 0.0009(3)
N1 N5+ 0.0013(19) 0.0220(25) 0.0349(38) -.0037(11) 0.0010(21) -.0025(17)
O1 O2- 0.0316(29) 0.0204(19) 0.0935(40) 0.0026(20) 0.0221(27) -.0033(22)
O2 O2- 0.0278(26) 0.0264(21) 0.1197(53) -.0117(21) -.0092(27) -.0085(26)
O3 O2- 0.0175(24) 0.0208(14) 0.0729(38) 0.0007(23) 0.0038(18) -.0062(25)
N2 N5+ 0.0510(48) 0.0260(27) 0.0396(45) 0.0116(25) -.0026(30) 0.0042(29)
O4 O2- 0.0275(28) 0.0252(26) 0.1018(44) 0.0110(21) -.0073(24) -.0003(23)
O5 O2- 0.0324(28) 0.0328(28) 0.0931(45) -.0081(21) 0.0115(24) 0.0175(22)
O6 O2- 0.0131(24) 0.0328(17) 0.0686(36) 0.0017(24) 0.0053(19) 0.0070(28)
O7 O2- 0.0230(18) 0.0190(18) 0.0254(23) 0.0028(14) 0.0010(17) -.0002(17)
O8 O2- 0.0192(17) 0.0220(24) 0.0298(23) 0.0015(15) -.0013(17) -.0015(18)
O9 O2- 0.0225(25) 0.0177(17) 0.0324(19) 0.0046(16) -.0007(20) 0.0007(16)
O10 O2- 0.0202(23) 0.0205(17) 0.0279(19) -.0004(17) 0.0008(19) -.0006(16)
#End of data_36558-ICSD


