data_92513-ICSD
#?2014 by Fachinformationszentrum Karlsruhe, and the U.S. Secretary of 
#Commerce on behalf of the United States.  All rights reserved.
_database_code_ICSD                92513
_audit_creation_date               2002/10/01
_chemical_name_systematic          'Disodium Pentaselenodistannate'
_chemical_formula_structural       'Na2 (Sn2 Se5)'
_chemical_formula_sum              'Na2 Se5 Sn2'
_publ_section_title
;
Darstellung und Kristallstruktur von Na2 Sn2 Se5. Ein neues 
Chalkogenostannat(IV) mit schichtfoermigen Komplexanionen
;
loop_
_citation_id
_citation_journal_abbrev
_citation_year
_citation_journal_volume
_citation_page_first
_citation_page_last
_citation_journal_id_ASTM
primary 'Zeitschrift fuer Anorganische und Allgemeine Chemie (1950) (DE)'
 2000 626 863 866 ZAACAB
_publ_author_name                  'Klepp, K.O.;Hainz, M.'
_cell_length_a                     13.952(6)
_cell_length_b                     12.602(2)
_cell_length_c                     11.524(2)
_cell_angle_alpha                  90.
_cell_angle_beta                   90.
_cell_angle_gamma                  90.
_cell_volume                       2026.19
_cell_formula_units_Z              8
_symmetry_space_group_name_H-M     'P b c a'
_symmetry_Int_Tables_number        61
_refine_ls_R_factor_all            .041
loop_
_symmetry_equiv_pos_site_id
_symmetry_equiv_pos_as_xyz
  1	'x+.5, y, -z+.5'
  2	'x, -y+.5, z+.5'
  3	'-x+.5, y+.5, z'
  4	'-x, -y, -z'
  5	'-x+.5, -y, z+.5'
  6	'-x, y+.5, -z+.5'
  7	'x+.5, -y+.5, -z'
  8	'x, y, z'
loop_
_atom_type_symbol
_atom_type_oxidation_number
Na1+	1
Se2-	-2
Sn4+	4
loop_
_atom_site_label
_atom_site_type_symbol
_atom_site_symmetry_multiplicity
_atom_site_Wyckoff_symbol
_atom_site_fract_x
_atom_site_fract_y
_atom_site_fract_z
_atom_site_occupancy
_atom_site_attached_hydrogens
Na1 Na1+ 8 c 0.2907(6) 0.2540(6) 0.2518(8) 1. 0 
Na2 Na1+ 8 c 0.2315(6) 0.4919(6) 0.9983(7) 1. 0 
Sn1 Sn4+ 8 c 0.05267(7) 0.28421(8) 0.44420(9) 1. 0 
Sn2 Sn4+ 8 c 0.02926(7) 0.03286(7) 0.23779(9) 1. 0 
Se1 Se2- 8 c 0.0578(1) 0.3575(1) 0.2380(2) 1. 0 
Se2 Se2- 8 c 0.4501(1) 0.1197(1) 0.0859(2) 1. 0 
Se3 Se2- 8 c 0.4338(1) 0.1160(1) 0.4279(1) 1. 0 
Se4 Se2- 8 c 0.2966(1) 0.5083(1) 0.2426(2) 1. 0 
Se5 Se2- 8 c 0.2202(1) 0.2411(2) 0.9976(2) 1. 0 

loop_
_atom_site_aniso_label
_atom_site_aniso_type_symbol
_atom_site_aniso_U_11
_atom_site_aniso_U_22
_atom_site_aniso_U_33
_atom_site_aniso_U_12
_atom_site_aniso_U_13
_atom_site_aniso_U_23
Na1 Na1+ 0.066(5) 0.037(4) 0.034(4) 0.004(4) 0.008(4) 0.004(5)
Na2 Na1+ 0.054(5) 0.029(4) 0.038(4) 0.018(4) -.009(4) 0.005(3)
Sn1 Sn4+ 0.0203(5) 0.0061(4) 0.0192(5) 0.0011(5) -.0009(5) -.0016(5)
Sn2 Sn4+ 0.0212(5) 0.0061(4) 0.0186(5) 0.0013(4) 0.0000(5) -.0006(5)
Se1 Se2- 0.052(1) 0.0091(7) 0.0183(8) 0.0094(7) 0.0059(9) 0.0000(7)
Se2 Se2- 0.0346(9) 0.0122(7) 0.0265(8) -.0093(8) -.0110(9) 0.0081(7)
Se3 Se2- 0.0198(7) 0.0154(7) 0.0221(8) -.0015(7) 0.0023(8) -.0059(7)
Se4 Se2- 0.0229(7) 0.0286(8) 0.0208(7) -.0023(7) -.0002(8) 0.000(1)
Se5 Se2- 0.0197(7) 0.0232(8) 0.0240(7) -.0013(8) -.0019(8) -.0011(7)
#End of data_92513-ICSD


