data_72486-ICSD
#?2014 by Fachinformationszentrum Karlsruhe, and the U.S. Secretary of 
#Commerce on behalf of the United States.  All rights reserved.
_database_code_ICSD                72486
_audit_creation_date               1994/01/19
_audit_update_record               2012/08/01
_chemical_name_systematic
;
Distrontium Lithium Indium Bis(diborate)
;
_chemical_formula_structural       'Sr2 Li In (B2 O5)2'
_chemical_formula_sum              'B4 In1 Li1 O10 Sr2'
_publ_section_title
;
Structure of strontium lithium indium pyroborate, Sr2LiInB4O10
;
loop_
_citation_id
_citation_journal_abbrev
_citation_year
_citation_journal_volume
_citation_page_first
_citation_page_last
_citation_journal_id_ASTM
primary 'Acta Crystallographica, Section C: Crystal Structure Communications'
 1993 49 211 214 ACSCEE
_publ_author_name                  'Schaffers, K.I.;Keszler, D.A.'
_cell_length_a                     12.637(1)
_cell_length_b                     5.251(1)
_cell_length_c                     13.748(1)
_cell_angle_alpha                  90.
_cell_angle_beta                   116.94(1)
_cell_angle_gamma                  90.
_cell_volume                       813.28
_cell_formula_units_Z              4
_symmetry_space_group_name_H-M     'P 1 21/n 1'
_symmetry_Int_Tables_number        14
_refine_ls_R_factor_all            .06
loop_
_symmetry_equiv_pos_site_id
_symmetry_equiv_pos_as_xyz
  1	'-x+.5, y+.5, -z+.5'
  2	'-x, -y, -z'
  3	'x+.5, -y+.5, z+.5'
  4	'x, y, z'
loop_
_atom_type_symbol
_atom_type_oxidation_number
B3+	3
In3+	3
Li1+	1
O2-	-2
Sr2+	2
loop_
_atom_site_label
_atom_site_type_symbol
_atom_site_symmetry_multiplicity
_atom_site_Wyckoff_symbol
_atom_site_fract_x
_atom_site_fract_y
_atom_site_fract_z
_atom_site_occupancy
_atom_site_attached_hydrogens
Sr1 Sr2+ 4 e 0.6849(1) 0.3752(2) 0.35420(9) 1. 0 
Sr2 Sr2+ 4 e 0.64955(9) 0.4304(2) 0.62330(8) 1. 0 
In1 In3+ 4 e 0.63264(6) 0.4272(2) 0.88365(6) 1. 0 
Li1 Li1+ 4 e 0.116(2) 0.110(5) 0.600(1) 1. 0 
B1 B3+ 4 e 0.913(1) 0.435(3) 0.771(1) 1. 0 
B2 B3+ 4 e 0.603(1) 0.861(3) 0.209(1) 1. 0 
B3 B3+ 4 e 0.594(1) 0.900(3) 0.448(1) 1. 0 
B4 B3+ 4 e 0.927(1) 0.415(2) 0.551(1) 1. 0 
O1 O2- 4 e 0.6469(7) 0.157(2) 0.7712(6) 1. 0 
O2 O2- 4 e 0.8902(7) 0.186(2) 0.5047(6) 1. 0 
O3 O2- 4 e 0.6830(7) 0.024(2) 0.5326(6) 1. 0 
O4 O2- 4 e 0.5528(6) 0.622(2) 0.1914(7) 1. 0 
O5 O2- 4 e 0.5710(7) 0.649(2) 0.4420(6) 1. 0 
O6 O2- 4 e 0.8548(7) 0.627(3) 0.5091(6) 1. 0 
O7 O2- 4 e 0.5203(6) 0.074(2) 0.3658(6) 1. 0 
O8 O2- 4 e 0.5370(7) 0.072(2) 0.1463(7) 1. 0 
O9 O2- 4 e 0.8619(7) 0.209(2) 0.7261(6) 1. 0 
O10 O2- 4 e 0.7114(7) -.089(2) 0.2875(7) 1. 0 

loop_
_atom_site_aniso_label
_atom_site_aniso_type_symbol
_atom_site_aniso_U_11
_atom_site_aniso_U_22
_atom_site_aniso_U_33
_atom_site_aniso_U_12
_atom_site_aniso_U_13
_atom_site_aniso_U_23
Sr1 Sr2+ 0.0107(5) 0.0109(5) 0.0100(5) 0.0008(4) 0.0045(4) -.0002(4)
Sr2 Sr2+ 0.0095(5) 0.0114(5) 0.0089(5) -.0004(4) 0.0040(4) 0.0004(4)
In1 In3+ 0.0076(3) 0.0064(4) 0.0087(4) -.0001(3) 0.0038(3) 0.0002(3)
Li1 Li1+ 0.02(1) 0.05(2) 0.003(8) -.01(1) 0.005(7) 0.004(9)
B1 B3+ 0.018(6) 0.006(6) 0.006(5) 0.006(5) 0.008(4) 0.000(4)
B2 B3+ 0.019(6) 0.015(7) 0.007(5) 0.003(5) 0.010(5) -.002(5)
B3 B3+ 0.011(5) 0.013(6) 0.013(6) 0.007(5) 0.010(5) 0.001(5)
B4 B3+ 0.010(5) 0.005(5) 0.012(6) -.001(4) 0.007(4) -.006(5)
O1 O2- 0.018(4) 0.006(4) 0.010(4) -.002(3) 0.008(3) -.004(3)
O2 O2- 0.024(4) 0.005(4) 0.013(4) 0.000(3) 0.013(3) -.002(3)
O3 O2- 0.010(4) 0.015(4) 0.011(4) 0.004(3) -.002(3) -.003(3)
O4 O2- 0.008(3) 0.006(4) 0.023(4) 0.002(3) 0.008(3) -.001(3)
O5 O2- 0.010(4) 0.011(4) 0.014(4) -.001(3) 0.005(3) 0.003(3)
O6 O2- 0.012(4) 0.022(5) 0.010(4) 0.002(3) 0.006(3) 0.005(3)
O7 O2- 0.008(3) 0.014(4) 0.014(4) -.005(3) 0.002(3) 0.004(3)
O8 O2- 0.009(4) 0.017(5) 0.017(4) -.002(3) 0.004(3) -.001(4)
O9 O2- 0.014(4) 0.004(4) 0.011(4) -.001(3) 0.006(3) 0.001(3)
O10 O2- 0.008(3) 0.014(4) 0.016(4) -.002(3) 0.002(3) 0.001(3)
#End of data_72486-ICSD


