data_249952-ICSD
#?2014 by Fachinformationszentrum Karlsruhe, and the U.S. Secretary of 
#Commerce on behalf of the United States.  All rights reserved.
_database_code_ICSD                249952
_audit_creation_date               2010/08/01
_chemical_name_systematic
;
Dipotassium Tetracalcium Henicosaoxooctasilicate
;
_chemical_formula_structural       'K2 Ca4 Si8 O21'
_chemical_formula_sum              'Ca4 K2 O21 Si8'
_publ_section_title
;
Synthesis, crystal structure and vibrational spectroscopy of K2 Ca4 
Si8 O21 - An unusual single-layer silicate containing Q2 and Q3 units
;
loop_
_citation_id
_citation_journal_abbrev
_citation_year
_citation_journal_volume
_citation_journal_issue
_citation_page_first
_citation_page_last
_citation_journal_id_ASTM
primary 'Inorganic Chemistry' 2009 48 24 11929 11934 INOCAJ
_publ_author_name
;
Arroyabe, E.;Kaindl, R.;Toebbens, D.M.;Kahlenberg, V.
;
_cell_length_a                     6.8052(3)
_cell_length_b                     7.1049(3)
_cell_length_c                     11.2132(5)
_cell_angle_alpha                  96.680(4)
_cell_angle_beta                   105.280(4)
_cell_angle_gamma                  109.259(4)
_cell_volume                       481.27
_cell_formula_units_Z              1
_symmetry_space_group_name_H-M     'P -1'
_symmetry_Int_Tables_number        2
_refine_ls_R_factor_all            .0279
loop_
_symmetry_equiv_pos_site_id
_symmetry_equiv_pos_as_xyz
  1	'-x, -y, -z'
  2	'x, y, z'
loop_
_atom_type_symbol
_atom_type_oxidation_number
Ca2+	2
K1+	1
O2-	-2
Si4+	4
loop_
_atom_site_label
_atom_site_type_symbol
_atom_site_symmetry_multiplicity
_atom_site_Wyckoff_symbol
_atom_site_fract_x
_atom_site_fract_y
_atom_site_fract_z
_atom_site_occupancy
_atom_site_attached_hydrogens
_atom_site_U_iso_or_equiv
Ca1 Ca2+ 2 i 0.33600(9) 0.21549(8) 0.18360(5) 1 0 0.00886(14) 
Ca2 Ca2+ 2 i 0.63165(8) 0.26933(8) -0.03958(5) 1 0 0.00912(14) 
K1 K1+ 2 i 0.25655(10) 0.29116(10) 0.56849(7) 1 0 0.01884(17) 
Si1 Si4+ 2 i 0.90126(11) -0.24039(11) 0.11242(7) 1 0 0.00606(17) 
Si2 Si4+ 2 i 0.82436(11) 0.09825(11) 0.25470(7) 1 0 0.00621(17) 
Si3 Si4+ 2 i 0.33729(11) -0.19901(11) 0.52903(7) 1 0 0.00713(17) 
Si4 Si4+ 2 i 0.12915(11) -0.46947(11) 0.25818(7) 1 0 0.00623(17) 
O1 O2- 1 f 0.5 0 0.5 1 0 0.0250(8) 
O2 O2- 2 i 0.1541(3) -0.3431(3) 0.39537(19) 1 0 0.0132(4) 
O3 O2- 2 i 0.6119(3) 0.0898(3) 0.14856(18) 1 0 0.0094(4) 
O4 O2- 2 i 0.1230(3) -0.1250(3) 0.08485(19) 1 0 0.0119(4) 
O5 O2- 2 i 0.3266(3) 0.3103(3) -0.00183(18) 1 0 0.0100(4) 
O6 O2- 2 i 0.8840(3) -0.1040(3) 0.23661(19) 1 0 0.0107(4) 
O7 O2- 2 i 0.9138(3) 0.5450(3) 0.15506(18) 1 0 0.0088(4) 
O8 O2- 2 i 0.0494(3) 0.2860(3) 0.26067(19) 1 0 0.0096(4) 
O9 O2- 2 i 0.5327(3) 0.3129(3) 0.3924(2) 1 0 0.0167(5) 
O10 O2- 2 i 0.6561(3) 0.4125(3) -0.21888(19) 1 0 0.0111(4) 
O11 O2- 2 i 0.8100(3) 0.1185(3) 0.39832(18) 1 0 0.0109(4) 

loop_
_atom_site_aniso_label
_atom_site_aniso_type_symbol
_atom_site_aniso_U_11
_atom_site_aniso_U_22
_atom_site_aniso_U_33
_atom_site_aniso_U_12
_atom_site_aniso_U_13
_atom_site_aniso_U_23
Ca1 Ca2+ 0.0100(3) 0.0095(3) 0.0082(3) 0.0050(2) 0.0031(2) 0.0021(2)
Ca2 Ca2+ 0.0082(3) 0.0096(3) 0.0096(3) 0.0030(2) 0.0037(2) 0.0015(2)
K1 K1+ 0.0167(3) 0.0136(3) 0.0243(4) 0.0047(2) 0.0044(3) 0.0052(3)
Si1 Si4+ 0.0066(3) 0.0041(3) 0.0078(4) 0.0025(3) 0.0022(3) 0.0011(3)
Si2 Si4+ 0.0066(3) 0.0053(3) 0.0066(4) 0.0025(3) 0.0019(3) 0.0006(3)
Si3 Si4+ 0.0079(3) 0.0063(4) 0.0066(4) 0.0021(3) 0.0026(3) 0.0004(3)
Si4 Si4+ 0.0075(3) 0.0048(3) 0.0064(4) 0.0029(3) 0.0016(3) 0.0010(3)
O1 O2- 0.0280(17) 0.0164(16) 0.0249(19) -0.0047(13) 0.0167(15) 0.0032(14)
O2 O2- 0.0128(9) 0.0150(10) 0.0096(11) 0.0052(8) 0.0020(8) -0.0015(9)
O3 O2- 0.0077(9) 0.0101(9) 0.0094(11) 0.0038(7) 0.0009(8) 0.0013(8)
O4 O2- 0.0102(9) 0.0090(10) 0.0179(12) 0.0036(8) 0.0069(8) 0.0036(9)
O5 O2- 0.0087(9) 0.0104(9) 0.0099(11) 0.0031(7) 0.0017(8) 0.0028(8)
O6 O2- 0.0153(9) 0.0083(9) 0.0108(11) 0.0072(8) 0.0044(8) 0.0024(8)
O7 O2- 0.0099(9) 0.0057(9) 0.0090(10) 0.0030(7) 0.0001(7) 0.0012(8)
O8 O2- 0.0092(9) 0.0059(9) 0.0142(11) 0.0031(7) 0.0033(8) 0.0044(8)
O9 O2- 0.0231(11) 0.0176(11) 0.0113(12) 0.0139(9) 0.0017(9) 0.0002(9)
O10 O2- 0.0097(9) 0.0113(10) 0.0137(11) 0.0043(7) 0.0055(8) 0.0037(8)
O11 O2- 0.0140(9) 0.0152(10) 0.0080(11) 0.0097(8) 0.0050(8) 0.0033(8)
#End of data_249952-ICSD


