data_608360-ICSD
#?2014 by Fachinformationszentrum Karlsruhe, and the U.S. Secretary of 
#Commerce on behalf of the United States.  All rights reserved.
_database_code_ICSD                608360
_audit_creation_date               2012/02/01
_chemical_name_systematic          'Lithium Aluminium Sulfide (1/1/2)'
_chemical_formula_structural       'Li Al S2'
_chemical_formula_sum              'Al1 Li1 S2'
_publ_section_title
;
A study of the systems M2 S - Al2 S3, M = Li, Na, K; preparation, 
phase study and elctrical conductivity
;
loop_
_citation_id
_citation_journal_abbrev
_citation_year
_citation_journal_volume
_citation_page_first
_citation_page_last
_citation_journal_id_ASTM
primary 'Materials Research Bulletin' 1979 14 881 889 MRBUAC
_publ_author_name                  'Hellstrom, E.E.;Huggins, R.A.'
_cell_length_a                     6.484
_cell_length_b                     7.875
_cell_length_c                     6.188
_cell_angle_alpha                  90.0
_cell_angle_beta                   90.0
_cell_angle_gamma                  90.0
_cell_volume                       315.97
_cell_formula_units_Z              4
_symmetry_space_group_name_H-M     'P n a 21'
_symmetry_Int_Tables_number        33
loop_
_symmetry_equiv_pos_site_id
_symmetry_equiv_pos_as_xyz
  1	'x+.5, -y+.5, z'
  2	'-x+.5, y+.5, z+.5'
  3	'-x, -y, z+.5'
  4	'x, y, z'
loop_
_atom_type_symbol
_atom_type_oxidation_number
Al3+	3
Li1+	1
S2-	-2
loop_
_atom_site_label
_atom_site_type_symbol
_atom_site_symmetry_multiplicity
_atom_site_Wyckoff_symbol
_atom_site_fract_x
_atom_site_fract_y
_atom_site_fract_z
_atom_site_occupancy
_atom_site_attached_hydrogens
Li1 Li1+ 4 a 0.409 0.128 0.113 1. 0 
Al1 Al3+ 4 a 0.067 0.129 0.618 1. 0 
S1 S2- 4 a 0.078 0.108 0.985 1. 0 
S2 S2- 4 a 0.096 0.620 0.019 1. 0 

#End of data_608360-ICSD


