data_63650-ICSD
#?2014 by Fachinformationszentrum Karlsruhe, and the U.S. Secretary of 
#Commerce on behalf of the United States.  All rights reserved.
_database_code_ICSD                63650
_audit_creation_date               1988/12/19
_chemical_name_systematic          'Dialuminium Tetrayttrium Nonaoxide'
_chemical_formula_structural       'Al2 Y4 O9'
_chemical_formula_sum              'Al2 O9 Y4'
_publ_section_title
;
Structure determination by use of pattern decomposition and the 
Rietveld method on synchroton X-Ray and neutron powder data; the 
structures of Al2Y4O9 and I2O4
;
loop_
_citation_id
_citation_journal_abbrev
_citation_year
_citation_journal_volume
_citation_page_first
_citation_page_last
_citation_journal_id_ASTM
primary 'Journal of Applied Crystallography' 1987 20 123 129 JACGAR
_publ_author_name
;
Lehmann, M.S.;Christensen, A.N.;Fjellvag, H.
;
_cell_length_a                     7.3781(1)
_cell_length_b                     10.4735(1)
_cell_length_c                     11.1253(1)
_cell_angle_alpha                  90.
_cell_angle_beta                   108.540(1)
_cell_angle_gamma                  90.
_cell_volume                       815.09
_cell_formula_units_Z              4
_symmetry_space_group_name_H-M     'P 1 21/c 1'
_symmetry_Int_Tables_number        14
_refine_ls_R_factor_all            .077
loop_
_symmetry_equiv_pos_site_id
_symmetry_equiv_pos_as_xyz
  1	'x, -y+.5, z+.5'
  2	'-x, -y, -z'
  3	'-x, y+.5, -z+.5'
  4	'x, y, z'
loop_
_atom_type_symbol
_atom_type_oxidation_number
Al3+	3
O2-	-2
Y3+	3
loop_
_atom_site_label
_atom_site_type_symbol
_atom_site_symmetry_multiplicity
_atom_site_Wyckoff_symbol
_atom_site_fract_x
_atom_site_fract_y
_atom_site_fract_z
_atom_site_occupancy
_atom_site_attached_hydrogens
_atom_site_B_iso_or_equiv
Y1 Y3+ 4 e 0.5244(6) 0.1081(6) 0.7864(5) 1. 0 0.9(1) 
Y2 Y3+ 4 e 0.0221(7) 0.0944(5) 0.8066(4) 1. 0 0.4(1) 
Y3 Y3+ 4 e 0.3390(7) 0.1276(5) 0.4370(5) 1. 0 0.5(1) 
Y4 Y3+ 4 e 0.8382(7) 0.1206(6) 0.4173(5) 1. 0 0.9(1) 
Al1 Al3+ 4 e 0.2300(16) 0.1818(15) 0.1323(12) 1. 0 0.0(4) 
Al2 Al3+ 4 e 0.6544(20) 0.1808(15) 0.1170(12) 1. 0 0.2(4) 
O1 O2- 4 e 0.7816(38) 0.2341(31) 0.7454(26) 1. 0 1.6(9) 
O2 O2- 4 e 0.2228(37) 0.2391(29) 0.7642(25) 1. 0 0.8(7) 
O3 O2- 4 e 0.2151(37) 0.0182(27) 0.1559(24) 1. 0 -1.2(6) 
O4 O2- 4 e 0.0741(33) 0.2372(23) 0.9822(20) 1. 0 -.08(6) 
O5 O2- 4 e 0.4286(42) 0.2308(21) 0.1107(24) 1. 0 0.6(6) 
O6 O2- 4 e 0.6519(32) 0.2373(24) 0.9577(20) 1. 0 -1.1(6) 
O7 O2- 4 e 0.6884(38) 0.0049(28) 0.1615(26) 1. 0 -.2(7) 
O8 O2- 4 e 0.0829(54) 0.0045(27) 0.3938(30) 1. 0 0.2(7) 
O9 O2- 4 e 0.5676(50) 0.0061(27) 0.4014(28) 1. 0 -.2(7) 

#End of data_63650-ICSD


