data_280726-ICSD
#?2014 by Fachinformationszentrum Karlsruhe, and the U.S. Secretary of 
#Commerce on behalf of the United States.  All rights reserved.
_database_code_ICSD                280726
_audit_creation_date               2002/10/01
_chemical_name_systematic
;
Tripotassium Tetrathiocyanoargentate
;
_chemical_formula_structural       'K3 (Ag (S C N)4)'
_chemical_formula_sum              'C4 Ag1 K3 N4 S4'
_publ_section_title
;
Potassium thiocyanato argentates: K3 (Ag (S C N)4), K4 (Ag2 (S C N)6) 
and K (Ag (S C N)2)
;
loop_
_citation_id
_citation_journal_abbrev
_citation_year
_citation_journal_volume
_citation_page_first
_citation_page_last
_citation_journal_id_ASTM
primary 'Acta Crystallographica, Section C: Crystal Structure Communications'
 2001 57 781 783 ACSCEE
_publ_author_name                  'Krautscheid, H.;Gerber, S.'
_cell_length_a                     14.343(2)
_cell_length_b                     12.778(3)
_cell_length_c                     7.798(2)
_cell_angle_alpha                  90.
_cell_angle_beta                   102.772(18)
_cell_angle_gamma                  90.
_cell_volume                       1393.82
_cell_formula_units_Z              4
_symmetry_space_group_name_H-M     'P 1 21/c 1'
_symmetry_Int_Tables_number        14
_refine_ls_R_factor_all            .027
loop_
_symmetry_equiv_pos_site_id
_symmetry_equiv_pos_as_xyz
  1	'x, -y+.5, z+.5'
  2	'-x, -y, -z'
  3	'-x, y+.5, -z+.5'
  4	'x, y, z'
loop_
_atom_type_symbol
_atom_type_oxidation_number
Ag1+	1
C4+	4
K1+	1
N3-	-3
S2-	-2
loop_
_atom_site_label
_atom_site_type_symbol
_atom_site_symmetry_multiplicity
_atom_site_Wyckoff_symbol
_atom_site_fract_x
_atom_site_fract_y
_atom_site_fract_z
_atom_site_occupancy
_atom_site_attached_hydrogens
K1 K1+ 4 e 0.52147(6) 0.25639(6) 0.08867(11) 1. 0 
K2 K1+ 4 e 0.29970(6) 0.99135(6) 0.65026(13) 1. 0 
K3 K1+ 4 e 0.02629(6) 0.25232(6) 0.53450(11) 1. 0 
Ag1 Ag1+ 4 e 0.22135(2) 0.48664(2) 0.63152(4) 1. 0 
S1 S2- 4 e 0.22156(6) 0.32755(7) 0.83529(13) 1. 0 
S2 S2- 4 e 0.12731(6) 0.42869(7) 0.32255(13) 1. 0 
S3 S2- 4 e 0.38787(6) 0.55557(7) 0.61685(14) 1. 0 
S4 S2- 4 e 0.14461(7) 0.63293(7) 0.78579(15) 1. 0 
C1 C4+ 4 e 0.3110(2) 0.2535(3) 0.8050(5) 1. 0 
C2 C4+ 4 e 0.0572(2) 0.5316(3) 0.2637(5) 1. 0 
C3 C4+ 4 e 0.4604(2) 0.4718(3) 0.7415(5) 1. 0 
C4 C4+ 4 e 0.2240(2) 0.7273(3) 0.7866(5) 1. 0 
N1 N3- 4 e 0.3722(2) 0.1994(2) 0.7845(5) 1. 0 
N2 N3- 4 e 0.0086(2) 0.6026(3) 0.2217(5) 1. 0 
N3 N3- 4 e 0.5123(2) 0.4143(2) 0.8290(4) 1. 0 
N4 N3- 4 e 0.2795(2) 0.7923(3) 0.7881(5) 1. 0 

loop_
_atom_site_aniso_label
_atom_site_aniso_type_symbol
_atom_site_aniso_U_11
_atom_site_aniso_U_22
_atom_site_aniso_U_33
_atom_site_aniso_U_12
_atom_site_aniso_U_13
_atom_site_aniso_U_23
K1 K1+ 0.0431(5) 0.0421(5) 0.0316(5) 0.0007(4) 0.0053(4) 0.0056(4)
K2 K1+ 0.0423(5) 0.0350(5) 0.0596(6) 0.0058(4) 0.0122(4) 0.0046(4)
K3 K1+ 0.0529(5) 0.0379(4) 0.0296(5) -.0038(4) 0.0068(4) -.0008(4)
Ag1 Ag1+ 0.03926(18) 0.03603(17) 0.0483(2) -.00027(12) 0.00383(14) 
0.00173(14)
S1 S2- 0.0380(5) 0.0295(4) 0.0396(6) 0.0011(4) 0.0078(4) 0.0029(4)
S2 S2- 0.0332(5) 0.0262(4) 0.0402(6) 0.0027(4) 0.0033(4) -.0008(4)
S3 S2- 0.0301(5) 0.0347(5) 0.0520(7) -.0022(4) 0.0029(5) 0.0078(5)
S4 S2- 0.0333(5) 0.0343(5) 0.0600(7) -.0020(4) 0.0140(5) -.0056(5)
C1 C4+ 0.0318(19) 0.0291(18) 0.034(2) -.0057(15) 0.0006(16) 0.0051(16)
C2 C4+ 0.0344(19) 0.0296(18) 0.030(2) -.0017(16) 0.0062(17) -.0019(16)
C3 C4+ 0.0323(18) 0.0282(17) 0.034(2) -.0058(15) 0.0101(17) -.0072(17)
C4 C4+ 0.0322(19) 0.0297(18) 0.041(2) 0.0034(16) 0.0008(17) -.0043(17)
N1 N3- 0.0373(18) 0.0379(18) 0.052(2) 0.0003(15) 0.0028(16) -.0020(16)
N2 N3- 0.056(2) 0.0412(19) 0.050(2) 0.0131(17) 0.0111(18) 0.0044(18)
N3 N3- 0.0403(17) 0.0377(17) 0.045(2) 0.0027(15) 0.0119(16) 0.0037(16)
N4 N3- 0.048(2) 0.0383(19) 0.077(3) -.0072(16) 0.006(2) 0.0024(19)
#End of data_280726-ICSD


