data_62092-ICSD
#?2014 by Fachinformationszentrum Karlsruhe, and the U.S. Secretary of 
#Commerce on behalf of the United States.  All rights reserved.
_database_code_ICSD                62092
_audit_creation_date               1988/02/22
_chemical_name_systematic          'Dialuminium Beryllium Tetraoxide'
_chemical_formula_structural       'Al2 Be O4'
_chemical_formula_sum              'Al2 Be1 O4'
_publ_section_title
;
High-Pressure Crystal Chemistry of Chrysoberyl, Al2BeO4: Insights on 
the Origin of Olivine Elastic Anisotropy
;
loop_
_citation_id
_citation_journal_abbrev
_citation_year
_citation_journal_volume
_citation_page_first
_citation_page_last
_citation_journal_id_ASTM
primary 'Physics and Chemistry of Minerals' 1987 14 13 20 PCMIDU
_publ_author_name                  'Hazen, R.M.'
_cell_length_a                     4.413(2)
_cell_length_b                     9.373(4)
_cell_length_c                     5.458(1)
_cell_angle_alpha                  90.
_cell_angle_beta                   90.
_cell_angle_gamma                  90.
_cell_volume                       225.76
_cell_formula_units_Z              4
_symmetry_space_group_name_H-M     'P b n m'
_symmetry_Int_Tables_number        62
_refine_ls_R_factor_all            .037
loop_
_symmetry_equiv_pos_site_id
_symmetry_equiv_pos_as_xyz
  1	'-x+.5, y+.5, z'
  2	'x, y, -z+.5'
  3	'x+.5, -y+.5, z+.5'
  4	'-x, -y, -z'
  5	'x+.5, -y+.5, -z'
  6	'-x, -y, z+.5'
  7	'-x+.5, y+.5, -z+.5'
  8	'x, y, z'
loop_
_atom_type_symbol
_atom_type_oxidation_number
Al3+	3
Be2+	2
O2-	-2
loop_
_atom_site_label
_atom_site_type_symbol
_atom_site_symmetry_multiplicity
_atom_site_Wyckoff_symbol
_atom_site_fract_x
_atom_site_fract_y
_atom_site_fract_z
_atom_site_occupancy
_atom_site_attached_hydrogens
_atom_site_B_iso_or_equiv
Al1 Al3+ 4 a 0 0 0 1. 0 0.78(5) 
Al2 Al3+ 4 c 0.9947(7) 0.2732(2) 0.25 1. 0 0.72(5) 
Be1 Be2+ 4 c 0.4291(18) 0.0935(13) 0.25 1. 0 0.3(2) 
O1 O2- 4 c 0.7855(11) 0.0883(7) 0.25 1. 0 0.8(1) 
O2 O2- 4 c 0.2408(11) 0.4346(6) 0.25 1. 0 0.86(11) 
O3 O2- 8 d 0.2552(8) 0.1622(6) 0.0145(6) 1. 0 1.24(9) 

#End of data_62092-ICSD


