data_202071-ICSD
#?2014 by Fachinformationszentrum Karlsruhe, and the U.S. Secretary of 
#Commerce on behalf of the United States.  All rights reserved.
_database_code_ICSD                202071
_audit_creation_date               1988/12/19
_chemical_name_systematic
;
Tripotassium Trilithium Hexaoxotellurate(VI)
;
_chemical_formula_structural       'K3 Li3 Te O6'
_chemical_formula_sum              'K3 Li3 O6 Te1'
_publ_section_title
;
Neues ueber Oxotellurate: K3 Li3 (Te O6)
;
loop_
_citation_id
_citation_journal_abbrev
_citation_year
_citation_journal_volume
_citation_page_first
_citation_page_last
_citation_journal_id_ASTM
primary 'Journal of the Less-Common Metals' 1986 124 251 262 JCOMAH
_publ_author_name                  'Untenecker, H.;Hoppe, R.'
_cell_length_a                     11.695(2)
_cell_length_b                     5.987(1)
_cell_length_c                     9.689(2)
_cell_angle_alpha                  90.
_cell_angle_beta                   90.
_cell_angle_gamma                  90.
_cell_volume                       678.4
_cell_formula_units_Z              4
_symmetry_space_group_name_H-M     'P n m a'
_symmetry_Int_Tables_number        62
_refine_ls_R_factor_all            .075
loop_
_symmetry_equiv_pos_site_id
_symmetry_equiv_pos_as_xyz
  1	'x+.5, y, -z+.5'
  2	'x, -y+.5, z'
  3	'-x+.5, y+.5, z+.5'
  4	'-x, -y, -z'
  5	'-x+.5, -y, z+.5'
  6	'-x, y+.5, -z'
  7	'x+.5, -y+.5, -z+.5'
  8	'x, y, z'
loop_
_atom_type_symbol
_atom_type_oxidation_number
K1+	1
Li1+	1
O2-	-2
Te6+	6
loop_
_atom_site_label
_atom_site_type_symbol
_atom_site_symmetry_multiplicity
_atom_site_Wyckoff_symbol
_atom_site_fract_x
_atom_site_fract_y
_atom_site_fract_z
_atom_site_occupancy
_atom_site_attached_hydrogens
Te1 Te6+ 4 c 0.2558(1) 0.25 0.5856(1) 1. 0 
K1 K1+ 4 c 0.4951(2) 0.25 0.2039(2) 1. 0 
K2 K1+ 4 c 0.4718(2) 0.25 0.8699(2) 1. 0 
K3 K1+ 4 c 0.5382(2) 0.25 0.5403(2) 1. 0 
O1 O2- 4 c 0.6759(5) 0.25 0.7395(6) 1. 0 
O2 O2- 4 c 0.8348(5) 0.25 0.0907(6) 1. 0 
O3 O2- 8 d 0.8527(4) 0.4856(7) 0.8411(4) 1. 0 
O4 O2- 8 d 0.6576(3) 0.0142(8) 0.9779(5) 1. 0 
Li1 Li1+ 8 d 0.2561(9) 0.9927(16) 0.8350(11) 1. 0 
Li2 Li1+ 4 c 0.2507(13) 0.25 0.0880(16) 1. 0 

loop_
_atom_site_aniso_label
_atom_site_aniso_type_symbol
_atom_site_aniso_U_11
_atom_site_aniso_U_22
_atom_site_aniso_U_33
_atom_site_aniso_U_12
_atom_site_aniso_U_13
_atom_site_aniso_U_23
Te1 Te6+ 0.0057(2) 0.0067(2) 0.0049(2) 0 0.0001(1) 0
K1 K1+ 0.0243(10) 0.0200(9) 0.0164(8) 0 0.0047(7) 0
K2 K1+ 0.0122(7) 0.0138(8) 0.0129(8) 0 0.0015(6) 0
K3 K1+ 0.0106(7) 0.0369(12) 0.0102(8) 0 0.0002(6) 0
O1 O2- 0.0097(17) 0.0151(19) 0.0047(18) 0 0.0001(8) 0
O2 O2- 0.0135(18) 0.0100(19) 0.0066(18) 0 0.0003(9) 0
O3 O2- 0.0142(14) 0.0084(15) 0.0081(14) 0.0003(9) 0.0030(12) 0.0031(14)
O4 O2- 0.0090(14) 0.0145(16) 0.0160(16) 0.0049(13) 0.0001(7) 0.0018(15)
Li1 Li1+ 0.0158(23) 0.0125(23) 0.0144(23) 0.0034(22) 0.0092(22) 0.0019(22)
Li2 Li1+ 0.0274(26) 0.0093(25) 0.0248(26) 0 0.0143(25) 0
#End of data_202071-ICSD


