data_170823-ICSD
#?2014 by Fachinformationszentrum Karlsruhe, and the U.S. Secretary of 
#Commerce on behalf of the United States.  All rights reserved.
_database_code_ICSD                170823
_audit_creation_date               2006/04/01
_chemical_name_systematic          'Calcium Copper Germanate'
_chemical_formula_structural       'Ca Cu Ge2 O6'
_chemical_formula_sum              'Ca1 Cu1 Ge2 O6'
_chemical_name_mineral             Clinopyroxene
_publ_section_title
;
Crystal structure of the clinopyroxene-type compound Ca Cu Ge2 O6 
between 15 K and 700 K
;
loop_
_citation_id
_citation_journal_abbrev
_citation_year
_citation_journal_volume
_citation_page_first
_citation_page_last
_citation_journal_id_ASTM
primary 'Acta Crystallographica, Section B: Structural Science'
 2005 61 367 380 ASBSDK
_publ_author_name
;
Redhammer, G.J.;Tippelt, G.;Merz, M.;Roth, G.;Treutmann, W.;Amthauer, 
G.
;
_cell_length_a                     10.2430(12)
_cell_length_b                     9.1821(8)
_cell_length_c                     5.4015(8)
_cell_angle_alpha                  90
_cell_angle_beta                   107.074(10)
_cell_angle_gamma                  90
_cell_volume                       485.63
_cell_formula_units_Z              4
_symmetry_space_group_name_H-M     'C 1 2/c 1'
_symmetry_Int_Tables_number        15
_refine_ls_R_factor_all            .032
loop_
_symmetry_equiv_pos_site_id
_symmetry_equiv_pos_as_xyz
  1	'x, -y, z+.5'
  2	'-x, -y, -z'
  3	'-x, y, -z+.5'
  4	'x, y, z'
  5	'x+.5, -y+.5, z+.5'
  6	'-x+.5, -y+.5, -z'
  7	'-x+.5, y+.5, -z+.5'
  8	'x+.5, y+.5, z'
loop_
_atom_type_symbol
_atom_type_oxidation_number
Ca2+	2
Cu2+	2
Ge4+	4
O2-	-2
loop_
_atom_site_label
_atom_site_type_symbol
_atom_site_symmetry_multiplicity
_atom_site_Wyckoff_symbol
_atom_site_fract_x
_atom_site_fract_y
_atom_site_fract_z
_atom_site_occupancy
_atom_site_attached_hydrogens
_atom_site_U_iso_or_equiv
Ca1 Ca2+ 4 e 0 0.3006(2) 0.25 1 0 0.0244(5) 
Cu1 Cu2+ 4 e 0 0.90627(12) 0.25 1 0 0.0187(3) 
Ge1 Ge4+ 8 f 0.28312(6) 0.09730(6) 0.21289(13) 1 0 0.0161(2) 
O1 O2- 8 f 0.1062(4) 0.0915(5) 0.1198(9) 1 0 0.0219(10) 
O2 O2- 8 f 0.3588(5) 0.2586(5) 0.3323(10) 1 0 0.0336(13) 
O3 O2- 8 f 0.3560(4) 0.0259(5) -0.0209(9) 1 0 0.0225(10) 

loop_
_atom_site_aniso_label
_atom_site_aniso_type_symbol
_atom_site_aniso_U_11
_atom_site_aniso_U_22
_atom_site_aniso_U_33
_atom_site_aniso_U_12
_atom_site_aniso_U_13
_atom_site_aniso_U_23
Ca1 Ca2+ 0.0289(9) 0.0207(9) 0.0216(10) 0 0.0045(8) 0
Cu1 Cu2+ 0.0175(5) 0.0215(5) 0.0149(6) 0 0.0013(4) 0
Ge1 Ge4+ 0.0132(3) 0.0188(3) 0.0155(4) 0.0011(3) 0.0030(2) -0.0012(3)
O1 O2- 0.0167(19) 0.032(2) 0.015(2) 0.0046(19) 0.0023(17) 0.002(2)
O2 O2- 0.044(3) 0.025(3) 0.029(3) -0.007(2) 0.006(2) -0.006(2)
O3 O2- 0.018(2) 0.032(3) 0.017(2) -0.0006(17) 0.0044(19) -0.0084(19)
#End of data_170823-ICSD


