data_423166-ICSD
#?2014 by Fachinformationszentrum Karlsruhe, and the U.S. Secretary of 
#Commerce on behalf of the United States.  All rights reserved.
_database_code_ICSD                423166
_audit_creation_date               2012/08/01
_chemical_name_systematic          'Disilver(I) Disulfate'
_chemical_formula_structural       'Ag2 (S2 O7)'
_chemical_formula_sum              'Ag2 O7 S2'
_publ_section_title
;
Unusual thermal decomposition of Ag(II) S O4 yielding Ag I2 S2 O7: 
bending Hammond?s rule
;
loop_
_citation_id
_citation_journal_abbrev
_citation_year
_citation_journal_volume
_citation_journal_issue
_citation_page_first
_citation_page_last
_citation_journal_id_ASTM
primary 'Chemistry - A European Journal' 2011 17 38 10524 10527 CEUJED
_publ_author_name
;
Malinowski, P.J.;Derzsi, M.;Budzianowski, A.;Leszczynski, P.J.;Gawel, 
B.;Mazej, Z.;Grochala, W.
;
_cell_length_a                     6.8199(1)
_cell_length_b                     6.8462(1)
_cell_length_c                     6.93734(9)
_cell_angle_alpha                  86.855(1)
_cell_angle_beta                   63.055(2)
_cell_angle_gamma                  85.841(1)
_cell_volume                       287.9
_cell_formula_units_Z              2
_symmetry_space_group_name_H-M     'P -1'
_symmetry_Int_Tables_number        2
_refine_ls_R_factor_all            .0237
loop_
_symmetry_equiv_pos_site_id
_symmetry_equiv_pos_as_xyz
  1	'-x, -y, -z'
  2	'x, y, z'
loop_
_atom_type_symbol
_atom_type_oxidation_number
Ag1+	1
O2-	-2
S6+	6
loop_
_atom_site_label
_atom_site_type_symbol
_atom_site_symmetry_multiplicity
_atom_site_Wyckoff_symbol
_atom_site_fract_x
_atom_site_fract_y
_atom_site_fract_z
_atom_site_occupancy
_atom_site_attached_hydrogens
_atom_site_U_iso_or_equiv
Ag1 Ag1+ 2 i 0.7971(3) 0.1241(3) 0.2141(3) 1.000 0 0.0431(5) 
Ag2 Ag1+ 2 i 0.7804(3) 0.6481(4) 0.5771(4) 1.000 0 0.0431(5) 
S1 S6+ 2 i 0.7106(8) 0.1489(7) 0.7223(7) 1.000 0 0.0356(19) 
S2 S6+ 2 i 0.2919(11) 0.3573(9) 0.8734(8) 1.000 0 0.0356(19) 
O1 O2- 2 i 0.662(2) -0.0265(14) 0.647(2) 1.000 0 0.043(2) 
O2 O2- 2 i 0.821(2) 0.295(2) 0.552(3) 1.000 0 0.043(2) 
O3 O2- 2 i 0.8315(19) 0.076(2) 0.844(2) 1.000 0 0.043(2) 
O4 O2- 2 i 0.5009(19) 0.242(2) 0.9041(19) 1.000 0 0.043(2) 
O5 O2- 2 i 0.140(2) 0.377(2) 1.108(2) 1.000 0 0.043(2) 
O6 O2- 2 i 0.2403(15) 0.2257(13) 0.7328(10) 1.000 0 0.043(2) 
O7 O2- 2 i 0.400(2) 0.5375(13) 0.778(3) 1.000 0 0.043(2) 

#End of data_423166-ICSD


