data_240267-ICSD
#?2014 by Fachinformationszentrum Karlsruhe, and the U.S. Secretary of 
#Commerce on behalf of the United States.  All rights reserved.
_database_code_ICSD                240267
_audit_creation_date               2005/10/01
_chemical_name_systematic
;
Dipotassium Diuranyl Dichromium(V)oxide
;
_chemical_formula_structural       'K2 ((U O2)2 Cr2 O8)'
_chemical_formula_sum              'Cr2 K2 O12 U2'
_publ_section_title
;
Syntheses, Structures, Magnetic Properties, and X-ray Absorption 
Spectra of Carnotite-type Uranyl Chromium(V) Oxides: 
A[(UO2)2Cr2O8](H2O)n (A = K2, Rb2, Cs2, Mg; n = 0, 4)
;
loop_
_citation_id
_citation_journal_abbrev
_citation_year
_citation_journal_volume
_citation_page_first
_citation_page_last
_citation_journal_id_ASTM
primary 'Chemistry of Materials' 2004 16 1384 1390 CMATEX
_publ_author_name
;
Locock, A.J.;Skanthakumar, S.;Burns, P.C.;Soderholm, L.
;
_cell_length_a                     6.5483(8)
_cell_length_b                     8.3548(10)
_cell_length_c                     10.4200(13)
_cell_angle_alpha                  90
_cell_angle_beta                   105.040(3)
_cell_angle_gamma                  90
_cell_volume                       550.55
_cell_formula_units_Z              2
_symmetry_space_group_name_H-M     'P 1 21/c 1'
_symmetry_Int_Tables_number        14
loop_
_symmetry_equiv_pos_site_id
_symmetry_equiv_pos_as_xyz
  1	'x, -y+.5, z+.5'
  2	'-x, -y, -z'
  3	'-x, y+.5, -z+.5'
  4	'x, y, z'
loop_
_atom_type_symbol
_atom_type_oxidation_number
Cr5+	5
K1+	1
O2-	-2
U6+	6
loop_
_atom_site_label
_atom_site_type_symbol
_atom_site_symmetry_multiplicity
_atom_site_Wyckoff_symbol
_atom_site_fract_x
_atom_site_fract_y
_atom_site_fract_z
_atom_site_occupancy
_atom_site_attached_hydrogens
_atom_site_U_iso_or_equiv
U1 U6+ 4 e 0.48426(2) 0.022377(14) 0.178008(12) 1 0 0.00898(4) 
Cr1 Cr5+ 4 e 0.61942(9) 0.35594(6) 0.05327(5) 1 0 0.00987(11) 
K1 K1+ 4 e 0.95603(16) -0.26187(13) 0.14569(11) 1 0 0.0300(2) 
O1 O2- 4 e 0.4492(4) 0.4373(3) -0.1055(2) 1 0 0.0136(5) 
O2 O2- 4 e 0.5884(4) 0.2907(3) 0.2144(2) 1 0 0.0132(5) 
O3 O2- 4 e 0.7625(5) -0.0191(3) 0.2381(3) 1 0 0.0179(6) 
O4 O2- 4 e 0.5285(5) 0.1574(3) -0.0084(2) 1 0 0.0172(6) 
O5 O2- 4 e 0.2050(4) 0.0641(4) 0.1229(3) 1 0 0.0203(6) 
O6 O2- 4 e 0.8604(4) 0.3661(4) 0.0573(3) 1 0 0.0219(6) 

loop_
_atom_site_aniso_label
_atom_site_aniso_type_symbol
_atom_site_aniso_U_11
_atom_site_aniso_U_22
_atom_site_aniso_U_33
_atom_site_aniso_U_12
_atom_site_aniso_U_13
_atom_site_aniso_U_23
U1 U6+ 0.01378(7) 0.00603(6) 0.00727(6) 0.00061(4) 0.00302(4) 0.00042(4)
Cr1 Cr5+ 0.0157(3) 0.0060(2) 0.0086(2) -0.00006(19) 0.0044(2) -0.00009(17)
K1 K1+ 0.0216(5) 0.0293(5) 0.0392(6) 0.0042(4) 0.0080(4) -0.0099(4)
O1 O2- 0.0266(14) 0.0057(10) 0.0085(11) 0.0036(10) 0.0043(10) -0.0002(8)
O2 O2- 0.0255(14) 0.0073(11) 0.0081(11) 0.0012(10) 0.0067(10) 0.0005(8)
O3 O2- 0.0168(14) 0.0147(13) 0.0214(14) 0.0023(10) 0.0034(11) -0.0009(10)
O4 O2- 0.0365(17) 0.0062(11) 0.0100(12) -0.0033(10) 0.0081(11) -0.0001(8)
O5 O2- 0.0163(14) 0.0231(14) 0.0199(14) 0.0045(11) 0.0016(11) -0.0007(12)
O6 O2- 0.0172(14) 0.0255(15) 0.0243(15) 0.0001(11) 0.0081(12) -0.0010(12)
#End of data_240267-ICSD


