data_67961-ICSD
#?2014 by Fachinformationszentrum Karlsruhe, and the U.S. Secretary of 
#Commerce on behalf of the United States.  All rights reserved.
_database_code_ICSD                67961
_audit_creation_date               1995/01/10
_chemical_name_systematic          'Potassium 13-oxotetraindate'
_chemical_formula_structural       'K14 (In4 O13)'
_chemical_formula_sum              'In4 K14 O13'
_publ_section_title
;
Das erste oligomere Oxoindat(III): K14(In4O13) (1)
;
loop_
_citation_id
_citation_journal_abbrev
_citation_year
_citation_journal_volume
_citation_page_first
_citation_page_last
_citation_journal_id_ASTM
primary 'Zeitschrift fuer Anorganische und Allgemeine Chemie (1950) (DE)'
 1993 619 1818 1826 ZAACAB
_publ_author_name                  'Lulei, M.;Hoppe, R.'
_cell_length_a                     6.8768
_cell_length_b                     31.185
_cell_length_c                     6.8638
_cell_angle_alpha                  90.
_cell_angle_beta                   119.38
_cell_angle_gamma                  90.
_cell_volume                       1282.65
_cell_formula_units_Z              2
_symmetry_space_group_name_H-M     'P 1 21/c 1'
_symmetry_Int_Tables_number        14
_refine_ls_R_factor_all            .0422
loop_
_symmetry_equiv_pos_site_id
_symmetry_equiv_pos_as_xyz
  1	'x, -y+.5, z+.5'
  2	'-x, -y, -z'
  3	'-x, y+.5, -z+.5'
  4	'x, y, z'
loop_
_atom_type_symbol
_atom_type_oxidation_number
In3+	3
K1+	1
O2-	-2
loop_
_atom_site_label
_atom_site_type_symbol
_atom_site_symmetry_multiplicity
_atom_site_Wyckoff_symbol
_atom_site_fract_x
_atom_site_fract_y
_atom_site_fract_z
_atom_site_occupancy
_atom_site_attached_hydrogens
K1 K1+ 4 e 0.2690(2) 0.9992 0.0383(1) 1. 0 
K2 K1+ 4 e 0.2818(2) 0.8869 0.0386(2) 1. 0 
K3 K1+ 4 e 0.7141(1) 0.7813 0.9485(2) 1. 0 
K4 K1+ 4 e 0.1548(2) 0.9473 0.4991(2) 1. 0 
K5 K1+ 4 e 0.8652(2) 0.8434 0.5047(2) 1. 0 
K6 K1+ 4 e 0.2771(2) 0.7738 0.0568(2) 1. 0 
K7 K1+ 4 e 0.7463(2) 0.8886 0.9606(2) 1. 0 
In1 In3+ 4 e 0.6684 0.945 0.4993 1. 0 
In2 In3+ 4 e 0.3431 0.8344 0.4988 1. 0 
O1 O2- 4 e 0.4678(5) 0.8961(1) 0.5022(5) 1. 0 
O2 O2- 4 e 0.3204(5) 0.0569(1) 0.7882(5) 1. 0 
O3 O2- 4 e 0.3215(5) 0.6720(1) 0.2836(5) 1. 0 
O4 O2- 4 e 0.0454(4) 0.8296(1) 0.2098(5) 1. 0 
O5 O2- 4 e 0.0345(5) 0.0575(1) 0.2144(5) 1. 0 
O6 O2- 4 e 0.5678(5) 0.7096(1) 0.0026(5) 1. 0 
O7 O2- 2 d 0.5 0 0.5 1. 0 

loop_
_atom_site_aniso_label
_atom_site_aniso_type_symbol
_atom_site_aniso_U_11
_atom_site_aniso_U_22
_atom_site_aniso_U_33
_atom_site_aniso_U_12
_atom_site_aniso_U_13
_atom_site_aniso_U_23
K1 K1+ 0.0259(5) 0.0230(5) 0.0161(5) -.0024(4) 0.0063(4) -.0005(4)
K2 K1+ 0.0231(4) 0.0223(5) 0.0159(5) 0.0020(4) 0.0057(4) -.0003(4)
K3 K1+ 0.0188(4) 0.0204(5) 0.0197(5) -.0064(3) 0.0023(4) 0.0023(4)
K4 K1+ 0.0247(5) 0.0448(6) 0.0486(7) -.0013(6) 0.0237(5) 0.0013(7)
K5 K1+ 0.0221(5) 0.0275(5) 0.0390(6) 0.0007(4) 0.0183(5) 0.0004(4)
K6 K1+ 0.0300(5) 0.0237(5) 0.0201(5) 0.0029(4) 0.0133(4) -.0002(4)
K7 K1+ 0.0292(5) 0.0209(5) 0.0167(5) 0.0034(4) 0.0098(4) 0.0016(4)
In1 In3+ 0.0097(1) 0.0078(1) 0.0107(1) 0.0002(1) 0.0046(1) -.0003(1)
In2 In3+ 0.0101(1) 0.0091(1) 0.0100(1) -.0008(1) 0.0046(1) -.0003(1)
O1 O2- 0.0290(16) 0.0180(15) 0.0246(16) -.0148(12) 0.0104(14) 0.0002(13)
O2 O2- 0.0332(18) 0.0373(20) 0.0222(16) -.0017(15) 0.0190(15) -.0014(15)
O3 O2- 0.0320(17) 0.0298(17) 0.0191(16) -.0067(14) 0.0170(15) -.0054(13)
O4 O2- 0.0122(13) 0.0322(18) 0.0156(15) -.0007(12) -.0004(12) -.0023(13)
O5 O2- 0.0127(13) 0.0317(18) 0.0194(15) -.0005(12) 0.0007(12) 0.0032(13)
O6 O2- 0.0186(14) 0.0173(14) 0.0217(15) -.0055(11) 0.0103(13) -.0003(12)
O7 O2- 0.0317(25) 0.0220(23) 0.0239(23) 0.0187(19) 0.0098(21) 0.0017(19)
#End of data_67961-ICSD


