data_73804-ICSD
#?2014 by Fachinformationszentrum Karlsruhe, and the U.S. Secretary of 
#Commerce on behalf of the United States.  All rights reserved.
_database_code_ICSD                73804
_audit_creation_date               1995/01/10
_audit_update_record               2007/08/01
_chemical_name_systematic          'Silver Trithiotantalate'
_chemical_formula_structural       'Ag (Ta S3)'
_chemical_formula_sum              'Ag1 S3 Ta1'
_publ_section_title                'The space group of Ag Ta S3'
loop_
_citation_id
_citation_journal_abbrev
_citation_year
_citation_journal_volume
_citation_page_first
_citation_page_last
_citation_journal_id_ASTM
primary 'Journal of Solid State Chemistry' 1993 102 283 283 JSSCBI
2 'Journal of Solid State Chemistry' 1992 97 29 35 JSSCBI
_publ_author_name                  'Marsh, R.E.'
_cell_length_a                     3.3755(2)
_cell_length_b                     14.0608(11)
_cell_length_c                     7.7486(7)
_cell_angle_alpha                  90.
_cell_angle_beta                   90.
_cell_angle_gamma                  90.
_cell_volume                       367.77
_cell_formula_units_Z              4
_symmetry_space_group_name_H-M     'C m c m'
_symmetry_Int_Tables_number        63
loop_
_symmetry_equiv_pos_site_id
_symmetry_equiv_pos_as_xyz
  1	'-x, y, -z+.5'
  2	'-x, -y, z+.5'
  3	'-x, y, z'
  4	'-x, -y, -z'
  5	'x, -y, z+.5'
  6	'x, y, -z+.5'
  7	'x, -y, -z'
  8	'x, y, z'
  9	'-x+.5, y+.5, -z+.5'
 10	'-x+.5, -y+.5, z+.5'
 11	'-x+.5, y+.5, z'
 12	'-x+.5, -y+.5, -z'
 13	'x+.5, -y+.5, z+.5'
 14	'x+.5, y+.5, -z+.5'
 15	'x+.5, -y+.5, -z'
 16	'x+.5, y+.5, z'
loop_
_atom_type_symbol
_atom_type_oxidation_number
Ag1+	1
S2-	-2
Ta5+	5
loop_
_atom_site_label
_atom_site_type_symbol
_atom_site_symmetry_multiplicity
_atom_site_Wyckoff_symbol
_atom_site_fract_x
_atom_site_fract_y
_atom_site_fract_z
_atom_site_occupancy
_atom_site_attached_hydrogens
Ag1 Ag1+ 4 a 0 0 0.5 1. 0 
Ta1 Ta5+ 4 c 0 0.2621(3) 0.25 1. 0 
S1 S2- 4 c 0 0.893(1) 0.25 1. 0 
S2 S2- 8 f 0 0.672(6) 0.425(11) 1. 0 

#End of data_73804-ICSD


