data_9671-ICSD
#?2014 by Fachinformationszentrum Karlsruhe, and the U.S. Secretary of 
#Commerce on behalf of the United States.  All rights reserved.
_database_code_ICSD                9671
_audit_creation_date               1980/01/01
_audit_update_record               1997/11/10
_chemical_name_systematic          'Sodium Iron(III) Catena-silicate'
_chemical_formula_structural       'Na Fe Si2 O6'
_chemical_formula_sum              'Fe1 Na1 O6 Si2'
_chemical_name_mineral             Acmite
_publ_section_title
;
Crystal-Chemical Characterization of Clinopyroxenes based on Eight 
New Structure Refinements
;
loop_
_citation_id
_citation_journal_abbrev
_citation_year
_citation_journal_volume
_citation_page_first
_citation_page_last
_citation_journal_id_ASTM
primary 'Mineralogical Society of America: Special Papers'
 1969 2 31 50 MSAPAX
2 'Mineralogical Magazine (1969-)' 1963 33 625 634 MNLMBB
_publ_author_name
;
Clark, J.R.;Appleman, D.E.;Papike, J.J.
;
_cell_length_a                     9.658(2)
_cell_length_b                     8.795(2)
_cell_length_c                     5.294(1)
_cell_angle_alpha                  90.
_cell_angle_beta                   107.42(2)
_cell_angle_gamma                  90.
_cell_volume                       429.06
_cell_formula_units_Z              4
_symmetry_space_group_name_H-M     'C 1 2/c 1'
_symmetry_Int_Tables_number        15
_refine_ls_R_factor_all            .035
loop_
_symmetry_equiv_pos_site_id
_symmetry_equiv_pos_as_xyz
  1	'x, -y, z+.5'
  2	'-x, -y, -z'
  3	'-x, y, -z+.5'
  4	'x, y, z'
  5	'x+.5, -y+.5, z+.5'
  6	'-x+.5, -y+.5, -z'
  7	'-x+.5, y+.5, -z+.5'
  8	'x+.5, y+.5, z'
loop_
_atom_type_symbol
_atom_type_oxidation_number
Fe3+	3
Na1+	1
O2-	-2
Si4+	4
loop_
_atom_site_label
_atom_site_type_symbol
_atom_site_symmetry_multiplicity
_atom_site_Wyckoff_symbol
_atom_site_fract_x
_atom_site_fract_y
_atom_site_fract_z
_atom_site_occupancy
_atom_site_attached_hydrogens
Na1 Na1+ 4 e 0 0.2999(2) 0.25 1. 0 
Fe1 Fe3+ 4 e 0 0.89890(7) 0.25 1. 0 
Si1 Si4+ 8 f 0.29051(8) 0.08940(9) 0.2351(1) 1. 0 
O1 O2- 8 f 0.1141(2) 0.0784(2) 0.1380(4) 1. 0 
O2 O2- 8 f 0.3582(2) 0.2558(2) 0.3001(4) 1. 0 
O3 O2- 8 f 0.3518(2) 0.0079(2) 0.0118(4) 1. 0 

#End of data_9671-ICSD


