data_159273-ICSD
#?2014 by Fachinformationszentrum Karlsruhe, and the U.S. Secretary of 
#Commerce on behalf of the United States.  All rights reserved.
_database_code_ICSD                159273
_audit_creation_date               2008/08/01
_chemical_name_systematic          'Aluminium Phosphate(V) - Hp'
_chemical_formula_structural       'Al (P O4)'
_chemical_formula_sum              'Al1 O4 P1'
_publ_section_title
;
Six-fold-coordinated phosphorus by oxygen in Al P O4 quartz homeotype 
under high pressure
;
loop_
_citation_id
_citation_journal_abbrev
_citation_year
_citation_journal_volume
_citation_page_first
_citation_page_last
_citation_journal_id_ASTM
primary 'Nature Materials' 2007 6 698 702 NMAACR
_publ_author_name
;
Pellicer-Porres, J.;Saitta, A.M.;Polian, A.;Itie, J.P.;Hanfland, M.
;
_cell_length_a                     3.838(11)
_cell_length_b                     2.506(5)
_cell_length_c                     4.036(8)
_cell_angle_alpha                  90.
_cell_angle_beta                   87.4(2)
_cell_angle_gamma                  90.
_cell_volume                       38.78
_cell_formula_units_Z              1
_symmetry_space_group_name_H-M     'P 1 2/m 1'
_symmetry_Int_Tables_number        10
_refine_ls_R_factor_all            .09
loop_
_symmetry_equiv_pos_site_id
_symmetry_equiv_pos_as_xyz
  1	'-x, y, -z'
  2	'-x, -y, -z'
  3	'x, -y, z'
  4	'x, y, z'
loop_
_atom_type_symbol
_atom_type_oxidation_number
Al3+	3
O2-	-2
P5+	5
loop_
_atom_site_label
_atom_site_type_symbol
_atom_site_symmetry_multiplicity
_atom_site_Wyckoff_symbol
_atom_site_fract_x
_atom_site_fract_y
_atom_site_fract_z
_atom_site_occupancy
_atom_site_attached_hydrogens
Al1 Al3+ 1 a 0 0 0 1. 0 
P1 P5+ 1 h 0.5 0.5 0.5 1. 0 
O1 O2- 2 m 0.690(2) 0 0.330(1) 1. 0 
O2 O2- 2 n 0.774(1) 0.5 0.814(1) 1. 0 

#End of data_159273-ICSD


