data_174374-ICSD
#?2014 by Fachinformationszentrum Karlsruhe, and the U.S. Secretary of 
#Commerce on behalf of the United States.  All rights reserved.
_database_code_ICSD                174374
_audit_creation_date               2010/08/01
_chemical_name_systematic
;
Dipotassium Tetradysprosium Tetracopper Nonaselenide
;
_chemical_formula_structural       'K2 Dy4 Cu4 Se9'
_chemical_formula_sum              'Cu4 Dy4 K2 Se9'
_publ_section_title
;
Ternary rare-earth coinage metal arsenides Ln T As2, Sm2 Cu3 As3; 
quaternary arsenide oxides Sm2 Cu As3 O and selenides K Gd2 Cu Se4, K 
Ln2 Cu3 Se5, and K2 Ln4 Cu4 Se9 (Ln = Y, La - Nd, Sm, Gd - Lu; T = 
Cu, Ag, Au): Syntheses, crystal structures and physi
;
loop_
_citation_id
_citation_journal_abbrev
_citation_year
_citation_journal_volume
_citation_page_first
_citation_page_last
_citation_journal_id_ASTM
primary 'Dissertation TU Dresden' 2004 2004 1 199 DIDREP
_publ_author_name                  'Feudjio Jemetio, J.P.'
_cell_length_a                     14.246(3)
_cell_length_b                     4.108(1)
_cell_length_c                     16.436(3)
_cell_angle_alpha                  90.
_cell_angle_beta                   109.5(3)
_cell_angle_gamma                  90.
_cell_volume                       906.71
_cell_formula_units_Z              2
_symmetry_space_group_name_H-M     'C 1 2/m 1'
_symmetry_Int_Tables_number        12
_refine_ls_R_factor_all            .041
loop_
_symmetry_equiv_pos_site_id
_symmetry_equiv_pos_as_xyz
  1	'-x, y, -z'
  2	'-x, -y, -z'
  3	'x, -y, z'
  4	'x, y, z'
  5	'-x+.5, y+.5, -z'
  6	'-x+.5, -y+.5, -z'
  7	'x+.5, -y+.5, z'
  8	'x+.5, y+.5, z'
loop_
_atom_type_symbol
_atom_type_oxidation_number
Cu1+	1
Dy3+	3
K1+	1
Se2-	-2
loop_
_atom_site_label
_atom_site_type_symbol
_atom_site_symmetry_multiplicity
_atom_site_Wyckoff_symbol
_atom_site_fract_x
_atom_site_fract_y
_atom_site_fract_z
_atom_site_occupancy
_atom_site_attached_hydrogens
_atom_site_U_iso_or_equiv
K1 K1+ 4 i 0.5322(4) 0.5 0.2691(3) 1. 0 0.0245(1) 
Dy1 Dy3+ 4 i 0.3455(1) 0 0.4451(1) 1. 0 0.0126(3) 
Dy2 Dy3+ 4 i 0.2327(1) 0 0.1044(1) 1. 0 0.0129(3) 
Cu1 Cu1+ 4 i 0.2582(2) 0.5 0.2711(1) 1. 0 0.0211(1) 
Cu2 Cu1+ 4 i 0.4280(2) 0 0.0326(1) 1. 0 0.0220(1) 
Se1 Se2- 2 c 0.5 0.5 0.5 1. 0 0.0173(1) 
Se2 Se2- 4 i 0.3627(1) 0.5 0.0773(1) 1. 0 0.0118(5) 
Se3 Se2- 4 i 0.1986(1) 0.5 0.3960(1) 1. 0 0.0126(5) 
Se4 Se2- 4 i 0.3557(1) 0 0.2782(1) 1. 0 0.0134(5) 
Se5 Se2- 4 i 0.1078(1) 0.5 0.1292(13) 1. 0 0.0129(5) 

#End of data_174374-ICSD


