data_80128-ICSD
#?2014 by Fachinformationszentrum Karlsruhe, and the U.S. Secretary of 
#Commerce on behalf of the United States.  All rights reserved.
_database_code_ICSD                80128
_audit_creation_date               1996/10/14
_audit_update_record               2011/02/01
_chemical_name_systematic          'Lead Dialuminate'
_chemical_formula_structural       'Pb (Al2 O4)'
_chemical_formula_sum              'Al2 O4 Pb1'
_publ_section_title                'More space-group changes'
loop_
_citation_id
_citation_journal_abbrev
_citation_year
_citation_journal_volume
_citation_page_first
_citation_page_last
_citation_journal_id_ASTM
primary 'Acta Crystallographica, Section B: Structural Science'
 1995 51 300 307 ASBSDK
2 'Zeitschrift fuer Anorganische und Allgemeine Chemie (1950) (DE)'
 1982 488 38 44 ZAACAB
_publ_author_name                  'Marsh, R.E.;Bernal, I.'
_cell_length_a                     8.458
_cell_length_b                     9.234
_cell_length_c                     5.07
_cell_angle_alpha                  90.
_cell_angle_beta                   90.
_cell_angle_gamma                  90.
_cell_volume                       395.97
_cell_formula_units_Z              4
_symmetry_space_group_name_H-M     'A m a 2'
_symmetry_Int_Tables_number        40
loop_
_symmetry_equiv_pos_site_id
_symmetry_equiv_pos_as_xyz
  1	'x+.5, -y, z'
  2	'-x+.5, y, z'
  3	'-x, -y, z'
  4	'x, y, z'
  5	'x+.5, -y+.5, z+.5'
  6	'-x+.5, y+.5, z+.5'
  7	'-x, -y+.5, z+.5'
  8	'x, y+.5, z+.5'
loop_
_atom_type_symbol
_atom_type_oxidation_number
Al3+	3
O2-	-2
Pb2+	2
loop_
_atom_site_label
_atom_site_type_symbol
_atom_site_symmetry_multiplicity
_atom_site_Wyckoff_symbol
_atom_site_fract_x
_atom_site_fract_y
_atom_site_fract_z
_atom_site_occupancy
_atom_site_attached_hydrogens
_atom_site_U_iso_or_equiv
Pb1 Pb2+ 4 b 0.25 0.0299 0.0003 1. 0 0.0065 
Al1 Al3+ 8 c 0.0541(4) 0.6717(6) 0.0327(3) 1. 0 0.0043 
O1 O2- 8 c 0.0564(7) 0.1908(4) 0.1877(2) 1. 0 0.0080 
O2 O2- 4 a 0.0000(6) 0.5000(4) 0.1412(1) 1. 0 0.0110 
O3 O2- 4 b 0.2500(4) 0.6849(4) 0.1527(5) 1. 0 0.0099 

#End of data_80128-ICSD


