data_66884-ICSD
#?2014 by Fachinformationszentrum Karlsruhe, and the U.S. Secretary of 
#Commerce on behalf of the United States.  All rights reserved.
_database_code_ICSD                66884
_audit_creation_date               1997/11/10
_audit_update_record               1999/06/02
_chemical_name_systematic          'Scandium Aluminate'
_chemical_formula_structural       'Sc (Al O3)'
_chemical_formula_sum              'Al1 O3 Sc1'
_chemical_name_mineral             Perovskite-(Sc,Al)
_publ_section_title
;
The thermal expansion of Sc Al O3 - a silicate perovskite analogue
;
loop_
_citation_id
_citation_journal_abbrev
_citation_year
_citation_journal_volume
_citation_page_first
_citation_page_last
_citation_journal_id_ASTM
primary 'Physics and Chemistry of Minerals' 1990 17 89 96 PCMIDU
_publ_author_name                  'Hill, R.J.;Jackson, I.'
_cell_length_a                     4.9597(2)
_cell_length_b                     5.2471(2)
_cell_length_c                     7.2353(2)
_cell_angle_alpha                  90.
_cell_angle_beta                   90.
_cell_angle_gamma                  90.
_cell_volume                       188.29
_cell_formula_units_Z              4
_symmetry_space_group_name_H-M     'P b n m'
_symmetry_Int_Tables_number        62
_refine_ls_R_factor_all            .032
loop_
_symmetry_equiv_pos_site_id
_symmetry_equiv_pos_as_xyz
  1	'-x+.5, y+.5, z'
  2	'x, y, -z+.5'
  3	'x+.5, -y+.5, z+.5'
  4	'-x, -y, -z'
  5	'x+.5, -y+.5, -z'
  6	'-x, -y, z+.5'
  7	'-x+.5, y+.5, -z+.5'
  8	'x, y, z'
loop_
_atom_type_symbol
_atom_type_oxidation_number
Al3+	3
O2-	-2
Sc3+	3
loop_
_atom_site_label
_atom_site_type_symbol
_atom_site_symmetry_multiplicity
_atom_site_Wyckoff_symbol
_atom_site_fract_x
_atom_site_fract_y
_atom_site_fract_z
_atom_site_occupancy
_atom_site_attached_hydrogens
_atom_site_B_iso_or_equiv
Sc1 Sc3+ 4 c 0.9786(3) 0.0690(2) 0.25 1. 0 0.75(4) 
Al1 Al3+ 4 b 0 0.5 0 1. 0 0.25(5) 
O1 O2- 4 c 0.1283(9) 0.4443(7) 0.25 1. 0 0.6(1) 
O2 O2- 8 d 0.6909(5) 0.3048(5) 0.0631(3) 1. 0 -.19(7) 

#End of data_66884-ICSD


