data_26004-ICSD
#?2014 by Fachinformationszentrum Karlsruhe, and the U.S. Secretary of 
#Commerce on behalf of the United States.  All rights reserved.
_database_code_ICSD                26004
_audit_creation_date               1980/01/01
_audit_update_record               1999/01/19
_chemical_name_systematic          'Potassium Iron(III) Sulfate(VI)'
_chemical_formula_structural       'K Fe (S O4)2'
_chemical_formula_sum              'Fe1 K1 O8 S2'
_chemical_name_mineral             Yavapaiite
_publ_section_title
;
The crystal structure of yavapaiite: a discussion
;
loop_
_citation_id
_citation_journal_abbrev
_citation_year
_citation_journal_volume
_citation_page_first
_citation_page_last
_citation_journal_id_ASTM
primary 'American Mineralogist' 1972 57 1546 1549 AMMIAY
_publ_author_name
;
Anthony, J.W.;McLean, W.J.;Laughon, R.B.
;
_cell_length_a                     8.150(4)
_cell_length_b                     5.162(3)
_cell_length_c                     7.855(5)
_cell_angle_alpha                  90.
_cell_angle_beta                   94.87(3)
_cell_angle_gamma                  90.
_cell_volume                       329.27
_cell_formula_units_Z              2
_symmetry_space_group_name_H-M     'C 1 2/m 1'
_symmetry_Int_Tables_number        12
_refine_ls_R_factor_all            .071
loop_
_symmetry_equiv_pos_site_id
_symmetry_equiv_pos_as_xyz
  1	'-x, y, -z'
  2	'-x, -y, -z'
  3	'x, -y, z'
  4	'x, y, z'
  5	'-x+.5, y+.5, -z'
  6	'-x+.5, -y+.5, -z'
  7	'x+.5, -y+.5, z'
  8	'x+.5, y+.5, z'
loop_
_atom_type_symbol
_atom_type_oxidation_number
Fe3+	3
K1+	1
O2-	-2
S6+	6
loop_
_atom_site_label
_atom_site_type_symbol
_atom_site_symmetry_multiplicity
_atom_site_Wyckoff_symbol
_atom_site_fract_x
_atom_site_fract_y
_atom_site_fract_z
_atom_site_occupancy
_atom_site_attached_hydrogens
_atom_site_B_iso_or_equiv
Fe1 Fe3+ 2 a 0 0 0 1. 0 0.45(2) 
K1 K1+ 2 c 0 0 0.5 1. 0 1.50(1) 
S1 S6+ 4 i 0.3700(1) 0 0.2020(1) 1. 0 0.47(1) 
O1 O2- 4 i 0.2369(4) 0 0.0628(4) 1. 0 0.89(4) 
O2 O2- 4 i 0.3124(5) 0 0.3700(5) 1. 0 1.49(5) 
O3 O2- 8 j 0.4741(3) 0.2330(6) 0.1810(3) 1. 0 1.08(3) 

#End of data_26004-ICSD


