data_158579-ICSD
#?2014 by Fachinformationszentrum Karlsruhe, and the U.S. Secretary of 
#Commerce on behalf of the United States.  All rights reserved.
_database_code_ICSD                158579
_audit_creation_date               2008/08/01
_audit_update_record               2013/02/01
_chemical_name_systematic
;
Lithium Iron(III) Catena-disilicate - Lt
;
_chemical_formula_structural       'Li Fe (Si2 O6)'
_chemical_formula_sum              'Fe1 Li1 O6 Si2'
_chemical_name_mineral             Aegirine-Li
_publ_section_title
;
The crystal and magnetic structure of Li-aegirine Li Fe(3+) Si2 O6: a 
temperature-dependent study
;
loop_
_citation_id
_citation_journal_abbrev
_citation_year
_citation_journal_volume
_citation_page_first
_citation_page_last
_citation_journal_id_ASTM
primary 'Physics and Chemistry of Minerals' 2001 28 337 346 PCMIDU
_publ_author_name
;
Redhammer, G.J.;Roth, G.;Paulus, W.;Andre, G.;Lottermoser, 
W.;Amthauer, G.;Treutmann, W.;Koppelhuber-Bitschnau, B.
;
_cell_length_a                     9.622(2)
_cell_length_b                     8.664(1)
_cell_length_c                     5.2555(9)
_cell_angle_alpha                  90.
_cell_angle_beta                   109.95(2)
_cell_angle_gamma                  90.
_cell_volume                       411.83
_cell_formula_units_Z              4
_symmetry_space_group_name_H-M     'P 1 21/c 1'
_symmetry_Int_Tables_number        14
_refine_ls_R_factor_all            .0164
loop_
_symmetry_equiv_pos_site_id
_symmetry_equiv_pos_as_xyz
  1	'x, -y+.5, z+.5'
  2	'-x, -y, -z'
  3	'-x, y+.5, -z+.5'
  4	'x, y, z'
loop_
_atom_type_symbol
_atom_type_oxidation_number
Fe3+	3
Li1+	1
O2-	-2
Si4+	4
loop_
_atom_site_label
_atom_site_type_symbol
_atom_site_symmetry_multiplicity
_atom_site_Wyckoff_symbol
_atom_site_fract_x
_atom_site_fract_y
_atom_site_fract_z
_atom_site_occupancy
_atom_site_attached_hydrogens
_atom_site_U_iso_or_equiv
Li1 Li1+ 4 e 0.2504(4) 0.0090(4) 0.2367(5) 1. 0 0.0010(6) 
Fe1 Fe3+ 4 e 0.25022(3) 0.64788(3) 0.23528(5) 1. 0 0.0010(1) 
Si1 Si4+ 4 e 0.04779(7) 0.33899(6) 0.2776(1) 1. 0 0.0010(1) 
Si2 Si4+ 4 e 0.54862(6) 0.83874(6) 0.2527(1) 1. 0 0.0010(1) 
O1 O2- 4 e 0.8673(2) 0.3327(2) 0.1636(3) 1. 0 0.0023(3) 
O2 O2- 4 e 0.3674(2) 0.8347(2) 0.1351(3) 1. 0 0.0022(3) 
O3 O2- 4 e 0.1160(2) 0.5086(2) 0.3123(3) 1. 0 0.0032(4) 
O4 O2- 4 e 0.6215(2) 0.0032(2) 0.3537(3) 1. 0 0.0033(3) 
O5 O2- 4 e 0.1085(2) 0.2667(2) 0.5821(3) 1. 0 0.0030(3) 
O6 O2- 4 e 0.6050(2) 0.7232(2) 0.5120(2) 1. 0 0.0028(4) 

#End of data_158579-ICSD


