data_99499-ICSD
#?2014 by Fachinformationszentrum Karlsruhe, and the U.S. Secretary of 
#Commerce on behalf of the United States.  All rights reserved.
_database_code_ICSD                99499
_audit_creation_date               2005/04/01
_chemical_name_systematic
;
Dipotassium Copper Hexacyanoferrate(II)
;
_chemical_formula_structural       'K2 Cu (Fe (C N)6)'
_chemical_formula_sum              'C6 Cu1 Fe1 K2 N6'
_publ_section_title
;
Structure of copper-potassium hexacyanoferrate(II) and sorption 
mechanisms of cesium
;
loop_
_citation_id
_citation_journal_abbrev
_citation_year
_citation_journal_volume
_citation_page_first
_citation_page_last
_citation_journal_id_ASTM
primary 'Journal of Solid State Chemistry' 2004 177 1817 1828 JSSCBI
_publ_author_name
;
Loos-Neskovic, C.;Ayrault, S.;Badillo, V.;Jimenez, B.;Garnier, 
E.;Fedoroff, M.;Jones, D.J.;Merinov, B.
;
_cell_length_a                     6.938(3)
_cell_length_b                     6.963(3)
_cell_length_c                     7.047(3)
_cell_angle_alpha                  118.06(4)
_cell_angle_beta                   118.21(4)
_cell_angle_gamma                  90.17(4)
_cell_volume                       253.38
_cell_formula_units_Z              1
_symmetry_space_group_name_H-M     'P -1'
_symmetry_Int_Tables_number        2
_refine_ls_R_factor_all            .06
loop_
_symmetry_equiv_pos_site_id
_symmetry_equiv_pos_as_xyz
  1	'-x, -y, -z'
  2	'x, y, z'
loop_
_atom_type_symbol
_atom_type_oxidation_number
C2+	2
Cu2+	2
Fe2+	2
K1+	1
N3-	-3
loop_
_atom_site_label
_atom_site_type_symbol
_atom_site_symmetry_multiplicity
_atom_site_Wyckoff_symbol
_atom_site_fract_x
_atom_site_fract_y
_atom_site_fract_z
_atom_site_occupancy
_atom_site_attached_hydrogens
_atom_site_B_iso_or_equiv
K1 K1+ 2 i 0.811(1) 0.310(1) 0.539(2) 1. 0 0.67(2) 
Cu1 Cu2+ 1 a 0 0 0 1. 0 0.47(2) 
Fe1 Fe2+ 1 e 0.5 0.5 0 1. 0 0.26(1) 
C1 C2+ 2 i 0.676(3) 0.286(4) 0.913(6) 1. 0 0.43(4) 
C2 C2+ 2 i 0.265(5) 0.274(5) 0.915(6) 1. 0 0.52(5) 
C3 C2+ 2 i 0.371(7) 0.312(6) 0.663(8) 1. 0 0.71(8) 
N1 N3- 2 i 0.792(5) 0.165(4) -0.073(5) 1. 0 0.54(5) 
N2 N3- 2 i 0.132(7) 0.174(5) -0.085(7) 1. 0 0.78(7) 
N3 N3- 2 i 0.345(13) 0.311(10) 0.487(13) 1. 0 1.56(20) 

#End of data_99499-ICSD


