data_25604-ICSD
#?2014 by Fachinformationszentrum Karlsruhe, and the U.S. Secretary of 
#Commerce on behalf of the United States.  All rights reserved.
_database_code_ICSD                25604
_audit_creation_date               1986/10/14
_audit_update_record               2010/08/01
_chemical_name_systematic          'Tetrapotassium Hexachlorocadmate'
_chemical_formula_structural       'K4 (Cd Cl6)'
_chemical_formula_sum              'Cd1 Cl6 K4'
_publ_section_title
;
Die Kristallstruktur des Kaliumhexachlorocadmats(II)
;
loop_
_citation_id
_citation_journal_abbrev
_citation_year
_citation_journal_volume
_citation_page_first
_citation_page_last
_citation_journal_id_ASTM
primary 'Zeitschrift fuer Anorganische und Allgemeine Chemie (1950) (DE)'
 1956 284 10 19 ZAACAB
_publ_author_name                  'Bergerhoff, G.;Schmitz-DuMont, O.'
_cell_length_a                     8.55
_cell_length_b                     8.55
_cell_length_c                     8.55
_cell_angle_alpha                  90.001
_cell_angle_beta                   90.001
_cell_angle_gamma                  90.001
_cell_volume                       625.03
_cell_formula_units_Z              2
_symmetry_space_group_name_H-M     'R -3 c R'
_symmetry_Int_Tables_number        167
loop_
_symmetry_equiv_pos_site_id
_symmetry_equiv_pos_as_xyz
  1	'-x+.5, -z+.5, -y+.5'
  2	'-z+.5, -y+.5, -x+.5'
  3	'-y+.5, -x+.5, -z+.5'
  4	'x+.5, z+.5, y+.5'
  5	'z+.5, y+.5, x+.5'
  6	'y+.5, x+.5, z+.5'
  7	'-z, -x, -y'
  8	'-y, -z, -x'
  9	'-x, -y, -z'
 10	'z, x, y'
 11	'y, z, x'
 12	'x, y, z'
loop_
_atom_type_symbol
_atom_type_oxidation_number
Cd2+	2
Cl1-	-1
K1+	1
loop_
_atom_site_label
_atom_site_type_symbol
_atom_site_symmetry_multiplicity
_atom_site_Wyckoff_symbol
_atom_site_fract_x
_atom_site_fract_y
_atom_site_fract_z
_atom_site_occupancy
_atom_site_attached_hydrogens
K1 K1+ 2 a 0.25 0.25 0.25 1. 0 
K2 K1+ 6 e 0.634 -.134 0.25 1. 0 
Cd1 Cd2+ 2 b 0 0 0 1. 0 
Cl1 Cl1- 12 f 0.117 0.267 0.918 1. 0 

#End of data_25604-ICSD


