data_418734-ICSD
#?2014 by Fachinformationszentrum Karlsruhe, and the U.S. Secretary of 
#Commerce on behalf of the United States.  All rights reserved.
_database_code_ICSD                418734
_audit_creation_date               2008/08/01
_chemical_name_systematic          'Zinc Dihydroxoborophosphate'
_chemical_formula_structural       'Zn (B P O4 (O H)2)'
_chemical_formula_sum              'H2 B1 O6 P1 Zn1'
_publ_section_title
;
Zn [B P O4 (O H)2]: a novel zinc borophosphate with the rare moganite-
type topology
;
loop_
_citation_id
_citation_journal_abbrev
_citation_year
_citation_journal_volume
_citation_journal_issue
_citation_page_first
_citation_page_last
_citation_journal_id_ASTM
primary 'Chemistry - A European Journal' 2008 14 6 1757 1761 CEUJED
_publ_author_name
;
Huang Ya Xi;Prots', Yu.;Kniep, R.
;
_cell_length_a                     9.1507(3)
_cell_length_b                     8.9722(3)
_cell_length_c                     10.5919(3)
_cell_angle_alpha                  90.00
_cell_angle_beta                   90.00
_cell_angle_gamma                  90.00
_cell_volume                       869.62
_cell_formula_units_Z              8
_symmetry_space_group_name_H-M     'P b c n'
_symmetry_Int_Tables_number        60
_refine_ls_R_factor_all            .0283
loop_
_symmetry_equiv_pos_site_id
_symmetry_equiv_pos_as_xyz
  1	'x, -y, z+.5'
  2	'-x+.5, y+.5, z'
  3	'x+.5, y+.5, -z+.5'
  4	'-x, -y, -z'
  5	'-x, y, -z+.5'
  6	'x+.5, -y+.5, -z'
  7	'-x+.5, -y+.5, z+.5'
  8	'x, y, z'
loop_
_atom_type_symbol
_atom_type_oxidation_number
B3+	3
H1+	1
O2-	-2
P5+	5
Zn2+	2
loop_
_atom_site_label
_atom_site_type_symbol
_atom_site_symmetry_multiplicity
_atom_site_Wyckoff_symbol
_atom_site_fract_x
_atom_site_fract_y
_atom_site_fract_z
_atom_site_occupancy
_atom_site_attached_hydrogens
_atom_site_U_iso_or_equiv
Zn1 Zn2+ 4 c 0.5000 0.13783(4) 0.2500 1 0 0.01212(13) 
Zn2 Zn2+ 4 c 0.0000 0.12516(3) 0.2500 1 0 0.01192(13) 
B1 B3+ 8 d 0.2424(2) 0.5265(2) 0.0786(2) 1 0 0.0081(4) 
P1 P5+ 8 d 0.23618(5) 0.22634(5) 0.42734(5) 1 0 0.00874(15) 
O1 O2- 8 d 0.35556(15) 0.26124(14) 0.33265(13) 1 0 0.0159(3) 
O2 O2- 8 d 0.09608(15) 0.50355(16) 0.13239(14) 1 0 0.0165(3) 
O3 O2- 8 d 0.08602(15) 0.25933(14) 0.37334(13) 1 0 0.0154(3) 
O4 O2- 8 d 0.35523(15) 0.49243(15) 0.17139(13) 1 0 0.0152(3) 
O5 O2- 8 d 0.24086(14) 0.18695(16) 0.05198(14) 1 0 0.0114(3) 
O6 O2- 8 d 0.24588(14) 0.05921(16) 0.46128(14) 1 0 0.0132(3) 
H1 H1+ 8 d 0.050(4) 0.430(4) 0.116(3) 1 0 0.043(9) 
H2 H1+ 8 d 0.339(4) 0.423(4) 0.217(3) 1 0 0.048(9) 

loop_
_atom_site_aniso_label
_atom_site_aniso_type_symbol
_atom_site_aniso_U_11
_atom_site_aniso_U_22
_atom_site_aniso_U_33
_atom_site_aniso_U_12
_atom_site_aniso_U_13
_atom_site_aniso_U_23
Zn1 Zn2+ 0.0136(2) 0.01269(19) 0.0101(2) 0.000 0.00042(10) 0.000
Zn2 Zn2+ 0.0145(2) 0.0115(2) 0.0098(2) 0.000 -0.00115(10) 0.000
B1 B3+ 0.0123(8) 0.0066(9) 0.0053(8) -0.0009(6) -0.0004(6) -0.0006(7)
P1 P5+ 0.0141(2) 0.0061(2) 0.0060(2) 0.00035(14) -0.00039(14) -0.00001(15)
O1 O2- 0.0212(7) 0.0116(6) 0.0149(6) 0.0009(5) 0.0071(5) 0.0016(5)
O2 O2- 0.0171(6) 0.0124(6) 0.0200(7) -0.0044(5) 0.0068(5) -0.0059(5)
O3 O2- 0.0174(6) 0.0131(6) 0.0158(6) 0.0026(5) -0.0052(5) -0.0043(5)
O4 O2- 0.0206(6) 0.0107(6) 0.0142(6) -0.0022(5) -0.0063(5) 0.0047(5)
O5 O2- 0.0193(6) 0.0079(6) 0.0071(6) 0.0010(4) 0.0022(4) 0.0023(5)
O6 O2- 0.0253(7) 0.0060(6) 0.0084(6) -0.0002(4) -0.0010(5) 0.0016(5)
#End of data_418734-ICSD


