data_8172-ICSD
#?2014 by Fachinformationszentrum Karlsruhe, and the U.S. Secretary of 
#Commerce on behalf of the United States.  All rights reserved.
_database_code_ICSD                8172
_audit_creation_date               1980/01/01
_chemical_name_systematic          'Sodium Dithionate Dihydrate'
_chemical_formula_structural       'Na2 S2 O6 (H2 O)2'
_chemical_formula_sum              'H4 Na2 O8 S2'
_publ_section_title
;
Neutronenbeugungsuntersuchungen an Na2 S2 O6 (H2 O)2 Einkristallen 
auf einem neuen On-line betriebenen 4-Kreis-Diffraktometer
;
loop_
_citation_id
_citation_journal_abbrev
_citation_year
_citation_journal_volume
_citation_page_first
_citation_page_last
_citation_journal_id_ASTM
primary 'Berichte der Kernforschungsanlage Juelich' 1974 1057 95 116 BKEJAS
_publ_author_name                  'Zwoll, K.'
_cell_length_a                     6.403
_cell_length_b                     10.75
_cell_length_c                     10.686
_cell_angle_alpha                  90.
_cell_angle_beta                   90.
_cell_angle_gamma                  90.
_cell_volume                       735.54
_cell_formula_units_Z              4
_symmetry_space_group_name_H-M     'P n m a'
_symmetry_Int_Tables_number        62
_refine_ls_R_factor_all            .084
loop_
_symmetry_equiv_pos_site_id
_symmetry_equiv_pos_as_xyz
  1	'x+.5, y, -z+.5'
  2	'x, -y+.5, z'
  3	'-x+.5, y+.5, z+.5'
  4	'-x, -y, -z'
  5	'-x+.5, -y, z+.5'
  6	'-x, y+.5, -z'
  7	'x+.5, -y+.5, -z+.5'
  8	'x, y, z'
loop_
_atom_type_symbol
_atom_type_oxidation_number
H1+	1
Na1+	1
O2-	-2
S5+	5
loop_
_atom_site_label
_atom_site_type_symbol
_atom_site_symmetry_multiplicity
_atom_site_Wyckoff_symbol
_atom_site_fract_x
_atom_site_fract_y
_atom_site_fract_z
_atom_site_occupancy
_atom_site_attached_hydrogens
Na1 Na1+ 8 d 0.0683(12) 0.0628(5) 0.8469(6) 1. 0 
S1 S5+ 4 c 0.25 0.25 0.4578(9) 1. 0 
S2 S5+ 4 c -.0028(15) 0.25 0.5908(8) 1. 0 
O1 O2- 8 d 0.363(5) 0.136(3) 0.483(3) 1. 0 
O2 O2- 4 c 0.1425(8) 0.25 0.3389(3) 1. 0 
O3 O2- 8 d -.115(6) 0.136(3) 0.563(4) 1. 0 
O4 O2- 4 c 0.0956(8) 0.25 0.7137(4) 1. 0 
O5 O2- 8 d 0.2516(7) 0.044(5) 0.1891(5) 1. 0 
H1 H1+ 8 d 0.8171(14) 0.4353(7) 0.3878(11) 1. 0 
H2 H1+ 8 d 0.7160(12) 0.3761(8) 0.2793(9) 1. 0 

#End of data_8172-ICSD


