data_4164-ICSD
#?2014 by Fachinformationszentrum Karlsruhe, and the U.S. Secretary of 
#Commerce on behalf of the United States.  All rights reserved.
_database_code_ICSD                4164
_audit_creation_date               1980/01/01
_audit_update_record               2012/08/01
_chemical_name_systematic          'Aluminium Tetraoxotungstate(V)'
_chemical_formula_structural       'Al W O4'
_chemical_formula_sum              'Al1 O4 W1'
_publ_section_title
;
Synthese, croissance cristalline, proprietes structurales et physique 
d'un nouveau tungstate(V) d'aluminium Al W O4
;
loop_
_citation_id
_citation_journal_abbrev
_citation_year
_citation_journal_volume
_citation_page_first
_citation_page_last
_citation_journal_id_ASTM
primary 'Journal of Solid State Chemistry' 1975 14 144 151 JSSCBI
_publ_author_name
;
Doumerc, J.P.;Vlasse, M.;Pouchard, M.;Hagenmuller, P.
;
_cell_length_a                     9.069(5)
_cell_length_b                     5.705(6)
_cell_length_c                     4.541(5)
_cell_angle_alpha                  90.
_cell_angle_beta                   92.29(1)
_cell_angle_gamma                  90.
_cell_volume                       234.76
_cell_formula_units_Z              4
_symmetry_space_group_name_H-M     'C 1 2/m 1'
_symmetry_Int_Tables_number        12
_refine_ls_R_factor_all            .055
loop_
_symmetry_equiv_pos_site_id
_symmetry_equiv_pos_as_xyz
  1	'-x, y, -z'
  2	'-x, -y, -z'
  3	'x, -y, z'
  4	'x, y, z'
  5	'-x+.5, y+.5, -z'
  6	'-x+.5, -y+.5, -z'
  7	'x+.5, -y+.5, z'
  8	'x+.5, y+.5, z'
loop_
_atom_type_symbol
_atom_type_oxidation_number
Al3+	3
O2-	-2
W5+	5
loop_
_atom_site_label
_atom_site_type_symbol
_atom_site_symmetry_multiplicity
_atom_site_Wyckoff_symbol
_atom_site_fract_x
_atom_site_fract_y
_atom_site_fract_z
_atom_site_occupancy
_atom_site_attached_hydrogens
Al1 Al3+ 4 i 0.259 0 0.4858(9) 1. 0 
W1 W5+ 4 g 0 0.7716(1) 0 1. 0 
O1 O2- 8 j 0.1504(7) 0.2449(6) 0.3012(8) 1. 0 
O2 O2- 4 i 0.1141(5) 0 0.7791(8) 1. 0 
O3 O2- 4 i 0.4023(5) 0 0.1975(9) 1. 0 

#End of data_4164-ICSD


