data_260003-ICSD
#?2014 by Fachinformationszentrum Karlsruhe, and the U.S. Secretary of 
#Commerce on behalf of the United States.  All rights reserved.
_database_code_ICSD                260003
_audit_creation_date               2009/02/01
_chemical_name_systematic          'Sodium Dioxodifluoroiodate(V)'
_chemical_formula_structural       'Na (I O2 F2)'
_chemical_formula_sum              'F2 I1 Na1 O2'
_publ_section_title
;
Sodium iodine(V) oxyfluoride, Na I O2 F2
;
loop_
_citation_id
_citation_journal_abbrev
_citation_year
_citation_journal_volume
_citation_journal_issue
_citation_page_first
_citation_page_last
_citation_journal_id_ASTM
primary 'Acta Crystallographica, Section C: Crystal Structure Communications'
 2008 64 7 i47 i49 ACSCEE
_publ_author_name                  'Laval, J.P.;Boukharrata, N.J.'
_cell_length_a                     6.9287(10)
_cell_length_b                     7.2735(13)
_cell_length_c                     7.3503(13)
_cell_angle_alpha                  90.00
_cell_angle_beta                   90.00
_cell_angle_gamma                  90.00
_cell_volume                       370.42
_cell_formula_units_Z              4
_symmetry_space_group_name_H-M     'C m c m'
_symmetry_Int_Tables_number        63
_refine_ls_R_factor_all            .0098
loop_
_symmetry_equiv_pos_site_id
_symmetry_equiv_pos_as_xyz
  1	'-x, y, -z+.5'
  2	'-x, -y, z+.5'
  3	'-x, y, z'
  4	'-x, -y, -z'
  5	'x, -y, z+.5'
  6	'x, y, -z+.5'
  7	'x, -y, -z'
  8	'x, y, z'
  9	'-x+.5, y+.5, -z+.5'
 10	'-x+.5, -y+.5, z+.5'
 11	'-x+.5, y+.5, z'
 12	'-x+.5, -y+.5, -z'
 13	'x+.5, -y+.5, z+.5'
 14	'x+.5, y+.5, -z+.5'
 15	'x+.5, -y+.5, -z'
 16	'x+.5, y+.5, z'
loop_
_atom_type_symbol
_atom_type_oxidation_number
F1-	-1
I5+	5
Na1+	1
O2-	-2
loop_
_atom_site_label
_atom_site_type_symbol
_atom_site_symmetry_multiplicity
_atom_site_Wyckoff_symbol
_atom_site_fract_x
_atom_site_fract_y
_atom_site_fract_z
_atom_site_occupancy
_atom_site_attached_hydrogens
_atom_site_U_iso_or_equiv
I1 I5+ 4 c 0.5000 0.03831(3) 0.2500 1 0 0.01246(9) 
Na1 Na1+ 4 a 0.0000 0.0000 0.0000 1 0 0.0199(3) 
O1 O2- 8 f 0.5000 0.1881(2) 0.0612(2) 1 0 0.0216(4) 
F1 F1- 8 g 0.2108(2) 0.0372(2) 0.2500 1 0 0.0296(4) 

loop_
_atom_site_aniso_label
_atom_site_aniso_type_symbol
_atom_site_aniso_U_11
_atom_site_aniso_U_22
_atom_site_aniso_U_33
_atom_site_aniso_U_12
_atom_site_aniso_U_13
_atom_site_aniso_U_23
I1 I5+ 0.01676(12) 0.01230(13) 0.00831(11) 0.000 0.000 0.000
Na1 Na1+ 0.0251(7) 0.0171(6) 0.0173(7) 0.000 0.000 0.0018(5)
O1 O2- 0.0361(10) 0.0156(7) 0.0130(8) 0.000 0.000 0.0040(7)
F1 F1- 0.0184(8) 0.0444(11) 0.0261(8) 0.0052(7) 0.000 0.000
#End of data_260003-ICSD


