data_81096-ICSD
#?2014 by Fachinformationszentrum Karlsruhe, and the U.S. Secretary of 
#Commerce on behalf of the United States.  All rights reserved.
_database_code_ICSD                81096
_audit_creation_date               1997/05/13
_audit_update_record               2006/04/01
_chemical_name_systematic          'Dicalcium Silicate - Beta'
_chemical_formula_structural       'Ca2 (Si O4)'
_chemical_formula_sum              'Ca2 O4 Si1'
_publ_section_title
;
Rietveld crystal structure refinements, crystal chemistry and 
calculated powder diffraction data for the polymorphs of dicalcium 
silicate and related phases
;
loop_
_citation_id
_citation_journal_abbrev
_citation_year
_citation_journal_volume
_citation_journal_issue
_citation_page_first
_citation_page_last
_citation_journal_id_ASTM
primary 'Neues Jahrbuch fuer Mineralogie. Abhandlungen (Band-Nr) (1950-)'
 1995 169 1 35 68 NJMIAK
2 'Golden Book of Phase Transitions, Wroclaw' 2002 1- 1 123 GBOPT5
_publ_author_name
;
Mumme, W.G.;Hill, R.J.;Bushnell, G.W.;Segnit, E.R.
;
_cell_length_a                     5.5121(1)
_cell_length_b                     6.7575(1)
_cell_length_c                     9.3138(1)
_cell_angle_alpha                  90.
_cell_angle_beta                   94.581(1)
_cell_angle_gamma                  90.
_cell_volume                       345.81
_cell_formula_units_Z              4
_symmetry_space_group_name_H-M     'P 1 21/n 1'
_symmetry_Int_Tables_number        14
_refine_ls_R_factor_all            .038
loop_
_symmetry_equiv_pos_site_id
_symmetry_equiv_pos_as_xyz
  1	'-x+.5, y+.5, -z+.5'
  2	'-x, -y, -z'
  3	'x+.5, -y+.5, z+.5'
  4	'x, y, z'
loop_
_atom_type_symbol
_atom_type_oxidation_number
Ca2+	2
O2-	-2
Si4+	4
loop_
_atom_site_label
_atom_site_type_symbol
_atom_site_symmetry_multiplicity
_atom_site_Wyckoff_symbol
_atom_site_fract_x
_atom_site_fract_y
_atom_site_fract_z
_atom_site_occupancy
_atom_site_attached_hydrogens
_atom_site_B_iso_or_equiv
Ca1 Ca2+ 4 e 0.2276(5) 0.3435(4) 0.4304(3) 1. 0 0.52(8) 
Ca2 Ca2+ 4 e 0.2203(5) 0.9979(4) 0.7018(3) 1. 0 0.45(8) 
Si1 Si4+ 4 e 0.2680(7) 0.7806(5) 0.4193(4) 1. 0 0.67(11) 
O1 O2- 4 e 0.2195(13) 0.0077(12) 0.4424(7) 1. 0 0.59(21) 
O2 O2- 4 e 0.4753(15) 0.7496(12) 0.3083(8) 1. 0 0.49(22) 
O3 O2- 4 e 0.0158(14) 0.6728(11) 0.3619(8) 1. 0 0.44(21) 
O4 O2- 4 e 0.3431(13) 0.6757(12) 0.5718(8) 1. 0 0.70(22) 

#End of data_81096-ICSD


