data_280598-ICSD
#?2014 by Fachinformationszentrum Karlsruhe, and the U.S. Secretary of 
#Commerce on behalf of the United States.  All rights reserved.
_database_code_ICSD                280598
_audit_creation_date               2002/04/01
_audit_update_record               2012/02/01
_chemical_name_systematic          'Potassium Dinitramide'
_chemical_formula_structural       'K (N3 O4)'
_chemical_formula_sum              'K1 N3 O4'
_publ_section_title
;
Anisotropic thermal expansion of potassium dinitramide: a variable-
temperature crystallographic study
;
loop_
_citation_id
_citation_journal_abbrev
_citation_year
_citation_journal_volume
_citation_page_first
_citation_page_last
_citation_journal_id_ASTM
primary 'Acta Crystallographica, Section B: Structural Science'
 2001 57 113 118 ASBSDK
_publ_author_name
;
Hardie, M.J.;Martin, A.;Pinkerton, A.A.;Zhurova, E.A.
;
_cell_length_a                     6.5891(4)
_cell_length_b                     9.0653(5)
_cell_length_c                     7.1459(4)
_cell_angle_alpha                  90.
_cell_angle_beta                   97.975(2)
_cell_angle_gamma                  90.
_cell_volume                       422.71
_cell_formula_units_Z              4
_symmetry_space_group_name_H-M     'P 1 21/n 1'
_symmetry_Int_Tables_number        14
_refine_ls_R_factor_all            .0399
loop_
_symmetry_equiv_pos_site_id
_symmetry_equiv_pos_as_xyz
  1	'-x+.5, y+.5, -z+.5'
  2	'-x, -y, -z'
  3	'x+.5, -y+.5, z+.5'
  4	'x, y, z'
loop_
_atom_type_symbol
_atom_type_oxidation_number
K1+	1
N1+	1
N3+	3
O2-	-2
loop_
_atom_site_label
_atom_site_type_symbol
_atom_site_symmetry_multiplicity
_atom_site_Wyckoff_symbol
_atom_site_fract_x
_atom_site_fract_y
_atom_site_fract_z
_atom_site_occupancy
_atom_site_attached_hydrogens
K1 K1+ 4 e 0.86050(5) 0.34347(3) 0.83221(4) 1. 0 
O1 O2- 4 e 1.0107(2) 0.34344(12) 0.2155(2) 1. 0 
O2 O2- 4 e 0.7261(2) 0.53857(12) 0.1548(2) 1. 0 
N1 N3+ 4 e 0.6489(2) 0.46229(13) 0.2687(2) 1. 0 
O3 O2- 4 e 0.4635(2) 0.46164(13) 0.2807(2) 1. 0 
N2 N1+ 4 e 0.7602(2) 0.37658(15) 0.4085(2) 1. 0 
N3 N3+ 4 e 0.9507(2) 0.34065(13) 0.3723(2) 1. 0 
O4 O2- 4 e 1.0634(2) 0.29447(12) 0.51469(15) 1. 0 

loop_
_atom_site_aniso_label
_atom_site_aniso_type_symbol
_atom_site_aniso_U_11
_atom_site_aniso_U_22
_atom_site_aniso_U_33
_atom_site_aniso_U_12
_atom_site_aniso_U_13
_atom_site_aniso_U_23
K1 K1+ 0.0094(2) 0.0135(2) 0.0099(2) -.00124(10) 0.00183(13) 0.00015(10)
O1 O2- 0.0111(6) 0.0184(6) 0.0088(5) 0.0013(4) 0.0031(4) 0.0005(4)
O2 O2- 0.0147(6) 0.0142(6) 0.0135(5) -.0008(4) 0.0025(4) 0.0044(4)
N1 N3+ 0.0104(6) 0.0107(6) 0.0105(6) 0.0001(4) 0.0014(5) -.0016(4)
O3 O2- 0.0072(6) 0.0181(6) 0.0176(6) 0.0021(4) 0.0020(4) -.0016(4)
N2 N1+ 0.0098(7) 0.0144(6) 0.0112(6) 0.0028(5) 0.0024(5) 0.0016(5)
N3 N3+ 0.0086(6) 0.0095(6) 0.0092(6) -.0014(4) 0.0017(5) -.0003(4)
O4 O2- 0.0117(6) 0.0160(6) 0.0101(5) 0.0018(4) -.0011(4) 0.0008(4)
#End of data_280598-ICSD


