data_260854-ICSD
#?2014 by Fachinformationszentrum Karlsruhe, and the U.S. Secretary of 
#Commerce on behalf of the United States.  All rights reserved.
_database_code_ICSD                260854
_audit_creation_date               2011/02/01
_chemical_name_systematic
;
Lithium Iron Oxide (0.5/2.5/4) - Ordered Alpha Phase
;
_chemical_formula_structural       'Li0.5 Fe1.5 Fe O4'
_chemical_formula_sum              'Fe2.5 Li0.5 O4'
_chemical_name_mineral             Spinel-(Li,Fe)
_publ_section_title
;
Effects of thermal annealing on structural and magnetic properties of 
lithium ferrite nanoparticles
;
loop_
_citation_id
_citation_journal_abbrev
_citation_year
_citation_journal_volume
_citation_page_first
_citation_page_last
_citation_journal_id_ASTM
primary 'Journal of Physical Chemistry C' 2009 113 20559 20567 JPCCCK
_publ_author_name
;
Jovic, N.;Masadeh, A.S.;Kremenovic, A.S.;Antic, B.V.;Blanusa, 
J.L.;Cvjeticanin, N.D.;Goya, G.F.;Antisari, M.V.;Bozin, E.S.
;
_cell_length_a                     8.3499(38)
_cell_length_b                     8.3499(38)
_cell_length_c                     8.3499(38)
_cell_angle_alpha                  90.
_cell_angle_beta                   90.
_cell_angle_gamma                  90.
_cell_volume                       582.16
_cell_formula_units_Z              8
_symmetry_space_group_name_H-M     'P 43 3 2'
_symmetry_Int_Tables_number        212
loop_
_symmetry_equiv_pos_site_id
_symmetry_equiv_pos_as_xyz
  1	'z+.25, y+.75, -x+.75'
  2	'-z+.75, y+.25, x+.75'
  3	'y+.25, x+.75, -z+.75'
  4	'-y+.75, x+.25, z+.75'
  5	'x+.25, z+.75, -y+.75'
  6	'-x+.75, z+.25, y+.75'
  7	'z+.75, -y+.75, x+.25'
  8	'-z+.25, -y+.25, -x+.25'
  9	'y+.75, -x+.75, z+.25'
 10	'-y+.25, -x+.25, -z+.25'
 11	'x+.75, -z+.75, y+.25'
 12	'-x+.25, -z+.25, -y+.25'
 13	'-y+.5, -z, x+.5'
 14	'-y, z+.5, -x+.5'
 15	'y+.5, -z+.5, -x'
 16	'y, z, x'
 17	'z+.5, -x+.5, -y'
 18	'-z+.5, -x, y+.5'
 19	'-z, x+.5, -y+.5'
 20	'z, x, y'
 21	'-x+.5, -y, z+.5'
 22	'-x, y+.5, -z+.5'
 23	'x+.5, -y+.5, -z'
 24	'x, y, z'
loop_
_atom_type_symbol
_atom_type_oxidation_number
Fe3+	3
Li1+	1
O2-	-2
loop_
_atom_site_label
_atom_site_type_symbol
_atom_site_symmetry_multiplicity
_atom_site_Wyckoff_symbol
_atom_site_fract_x
_atom_site_fract_y
_atom_site_fract_z
_atom_site_occupancy
_atom_site_attached_hydrogens
O1 O2- 8 c 0.3731(14) 0.3731(14) 0.3731(14) 1. 0 
O2 O2- 24 e 0.1180(11) 0.1207(10) 0.3809(15) 1. 0 
Li1 Li1+ 4 b 0.625 0.625 0.625 1. 0 
Fe1 Fe3+ 12 d 0.125 0.3669(5) -0.1169(3) 1. 0 
Fe2 Fe3+ 8 c 0.9973(5) 0.9973(5) 0.9973(5) 1. 0 

#End of data_260854-ICSD


