data_71915-ICSD
#?2014 by Fachinformationszentrum Karlsruhe, and the U.S. Secretary of 
#Commerce on behalf of the United States.  All rights reserved.
_database_code_ICSD                71915
_audit_creation_date               1993/08/22
_audit_update_record               2006/04/01
_chemical_name_systematic          'Calcium Titanate'
_chemical_formula_structural       'Ca (Ti O3)'
_chemical_formula_sum              'Ca1 O3 Ti1'
_chemical_name_mineral             Perovskite
_publ_section_title
;
Electron difference density and structural parameters in Ca Ti O3
;
loop_
_citation_id
_citation_journal_abbrev
_citation_year
_citation_journal_volume
_citation_page_first
_citation_page_last
_citation_journal_id_ASTM
primary 'Acta Crystallographica, Section B: Structural Science'
 1992 48 644 649 ASBSDK
2 'Golden Book of Phase Transitions, Wroclaw' 2002 1 1 123 GBOPT5
_publ_author_name                  'Buttner, R.H.;Maslen, E.N.'
_cell_length_a                     5.388(1)
_cell_length_b                     5.447(1)
_cell_length_c                     7.654(1)
_cell_angle_alpha                  90.
_cell_angle_beta                   90.
_cell_angle_gamma                  90.
_cell_volume                       224.63
_cell_formula_units_Z              4
_symmetry_space_group_name_H-M     'P b n m'
_symmetry_Int_Tables_number        62
_refine_ls_R_factor_all            .043
loop_
_symmetry_equiv_pos_site_id
_symmetry_equiv_pos_as_xyz
  1	'-x+.5, y+.5, z'
  2	'x, y, -z+.5'
  3	'x+.5, -y+.5, z+.5'
  4	'-x, -y, -z'
  5	'x+.5, -y+.5, -z'
  6	'-x, -y, z+.5'
  7	'-x+.5, y+.5, -z+.5'
  8	'x, y, z'
loop_
_atom_type_symbol
_atom_type_oxidation_number
Ca2+	2
O2-	-2
Ti4+	4
loop_
_atom_site_label
_atom_site_type_symbol
_atom_site_symmetry_multiplicity
_atom_site_Wyckoff_symbol
_atom_site_fract_x
_atom_site_fract_y
_atom_site_fract_z
_atom_site_occupancy
_atom_site_attached_hydrogens
Ti1 Ti4+ 4 b 0 0.5 0 1. 0 
Ca1 Ca2+ 4 c 0.99371(7) 0.03393(6) 0.25 1. 0 
O1 O2- 4 c 0.0707(3) 0.4842(2) 0.25 1. 0 
O2 O2- 8 d 0.7109(1) 0.2884(1) 0.0370(1) 1. 0 

loop_
_atom_site_aniso_label
_atom_site_aniso_type_symbol
_atom_site_aniso_U_11
_atom_site_aniso_U_22
_atom_site_aniso_U_33
_atom_site_aniso_U_12
_atom_site_aniso_U_13
_atom_site_aniso_U_23
Ti1 Ti4+ 0.00585(9) 0.00566(8) 0.00427(7) -.00004(8) 0.00014(8) 0.00026(5)
Ca1 Ca2+ 0.00814(11) 0.00907(10) 0.00871(9) -.00161(11) 0 0
O1 O2- 0.00918(44) 0.01072(42) 0.00352(30) -.00072(3) 0 0
O2 O2- 0.00726(29) 0.00735(25) 0.00905(24) -.00259(23) 0.00049(24) 
-.00114(22)
#End of data_71915-ICSD


