data_159759-ICSD
#?2014 by Fachinformationszentrum Karlsruhe, and the U.S. Secretary of 
#Commerce on behalf of the United States.  All rights reserved.
_database_code_ICSD                159759
_audit_creation_date               2008/08/01
_chemical_name_systematic
;
Disilver Diindium Germanium Sulfide
;
_chemical_formula_structural       'Ag2 In2 Ge S6'
_chemical_formula_sum              'Ag2 Ge1 In2 S6'
_publ_section_title
;
The (Ag2 S) - (In2 S3) - (Si(Ge) S2) systems and crystal structure of 
quaternary sulfides Ag2 In2 Si (Ge) S6
;
loop_
_citation_id
_citation_journal_abbrev
_citation_year
_citation_journal_volume
_citation_page_first
_citation_page_last
_citation_journal_id_ASTM
primary 'Journal of Alloys and Compounds' 2008 452 348 358 JALCEU
_publ_author_name
;
Sachanyuk, V.P.;Gorgut, G.P.;Atuchin, V.V.;Olekseyuk, I.D.;Parasyuk, 
O.V.
;
_cell_length_a                     12.2089(4)
_cell_length_b                     7.2115(3)
_cell_length_c                     12.1978(5)
_cell_angle_alpha                  90.
_cell_angle_beta                   109.508(2)
_cell_angle_gamma                  90.
_cell_volume                       1012.3
_cell_formula_units_Z              4
_symmetry_space_group_name_H-M     'C 1 c 1'
_symmetry_Int_Tables_number        9
_refine_ls_R_factor_all            .0657
loop_
_symmetry_equiv_pos_site_id
_symmetry_equiv_pos_as_xyz
  1	'x, -y, z+.5'
  2	'x, y, z'
  3	'x+.5, -y+.5, z+.5'
  4	'x+.5, y+.5, z'
loop_
_atom_type_symbol
_atom_type_oxidation_number
Ag1+	1
Ge4+	4
In3+	3
S2-	-2
loop_
_atom_site_label
_atom_site_type_symbol
_atom_site_symmetry_multiplicity
_atom_site_Wyckoff_symbol
_atom_site_fract_x
_atom_site_fract_y
_atom_site_fract_z
_atom_site_occupancy
_atom_site_attached_hydrogens
_atom_site_B_iso_or_equiv
Ag1 Ag1+ 4 a 0.3952(5) 0.5885(5) 0.2577(6) 1. 0 1.17(9) 
Ag2 Ag1+ 4 a 0.6012(5) 0.2090(4) 0.4132(5) 1. 0 1.14(8) 
In1 In3+ 4 a 0.4130(5) 0.0968(5) 0.0590(6) 1. 0 1.06(9) 
In2 In3+ 4 a 0.2333(5) 0.0595(4) 0.2582(5) 1. 0 0.77(9) 
Ge1 Ge4+ 4 a 0.1650(6) 0.7580(8) 0.0012(7) 1. 0 0.94(9) 
S1 S2- 4 a 0.3617(14) 0.7661(15) 0.0601(13) 1. 0 1.1(3) 
S2 S2- 4 a 0.4026(13) 0.2167(12) 0.2413(12) 1. 0 0.8(2) 
S3 S2- 4 a 0.0876(11) 0.020(2) 0.0386(12) 1. 0 0.9(3) 
S4 S2- 4 a 0.0979(11) 0.2713(15) 0.2897(15) 1. 0 1.4(3) 
S5 S2- 4 a 0.2933(13) 0.2317(14) 0.8780(14) 1. 0 1.2(2) 
S6 S2- 4 a 0.6287(10) 0.0076(14) 0.0958(10) 1. 0 0.5(3) 

#End of data_159759-ICSD


