data_167926-ICSD
#?2014 by Fachinformationszentrum Karlsruhe, and the U.S. Secretary of 
#Commerce on behalf of the United States.  All rights reserved.
_database_code_ICSD                167926
_audit_creation_date               2011/02/01
_chemical_name_systematic
;
Dipotassium Europium Molybdate Phosphate
;
_chemical_formula_structural       'K2 Eu (Mo O4) (P O4)'
_chemical_formula_sum              'Eu1 K2 Mo1 O8 P1'
_publ_section_title
;
Potassium europium molybdate phosphate
;
loop_
_citation_id
_citation_journal_abbrev
_citation_year
_citation_journal_volume
_citation_journal_issue
_citation_page_first
_citation_page_last
_citation_journal_id_ASTM
primary 'Zhurnal Neorganicheskoi Khimii' 2010 55 7 1078 1081 ZNOKAQ
2 'Russian Journal of Inorganic Chemistry' 2010 55 7 1010 1013 RJICAQ
_publ_author_name
;
Ryumin, M.A.;Pukhkaya, V.V.;Komissarova, L.N.
;
_cell_length_a                     19.734
_cell_length_b                     12.301
_cell_length_c                     6.978
_cell_angle_alpha                  90.
_cell_angle_beta                   90.
_cell_angle_gamma                  90.
_cell_volume                       1693.9
_cell_formula_units_Z              8
_symmetry_space_group_name_H-M     'I b c a'
_symmetry_Int_Tables_number        73
_refine_ls_R_factor_all            .0219
loop_
_symmetry_equiv_pos_site_id
_symmetry_equiv_pos_as_xyz
  1	'x, y+.5, -z'
  2	'x+.5, -y, z'
  3	'-x, y, z+.5'
  4	'-x, -y, -z'
  5	'-x, -y+.5, z'
  6	'-x+.5, y, -z'
  7	'x, -y, -z+.5'
  8	'x, y, z'
  9	'x+.5, y, -z+.5'
 10	'x, -y+.5, z+.5'
 11	'-x+.5, y+.5, z'
 12	'-x+.5, -y+.5, -z+.5'
 13	'-x+.5, -y, z+.5'
 14	'-x, y+.5, -z+.5'
 15	'x+.5, -y+.5, -z'
 16	'x+.5, y+.5, z+.5'
loop_
_atom_type_symbol
_atom_type_oxidation_number
Eu3+	3
K1+	1
Mo6+	6
O2-	-2
P5+	5
loop_
_atom_site_label
_atom_site_type_symbol
_atom_site_symmetry_multiplicity
_atom_site_Wyckoff_symbol
_atom_site_fract_x
_atom_site_fract_y
_atom_site_fract_z
_atom_site_occupancy
_atom_site_attached_hydrogens
_atom_site_U_iso_or_equiv
K1 K1+ 16 f 0.5942(2) 0.1717(3) 0.2855(5) 1. 0 0.027(1) 
Eu1 Eu3+ 8 d 0.750 0.0758(2) 0 1. 0 0.019(1) 
Mo1 Mo6+ 8 c 0.0827(1) 0 0.250 1. 0 0.016(1) 
P1 P5+ 8 d 0.250 0.1786(6) 0 1. 0 0.012(2) 
O1 O2- 16 f 0.3669(4) 0.0303(6) 0.458(1) 1. 0 0.008(2) 
O2 O2- 16 f 0.4661(4) 0.1146(8) 0.197(2) 1. 0 0.020(3) 
O3 O2- 16 f 0.1889(4) 0.2480(5) -0.021(2) 1. 0 0.020(3) 
O4 O2- 16 f 0.2404(5) 0.0987(6) 0.1697(2) 1. 0 0.008(2) 

#End of data_167926-ICSD


