data_66523-ICSD
#?2014 by Fachinformationszentrum Karlsruhe, and the U.S. Secretary of 
#Commerce on behalf of the United States.  All rights reserved.
_database_code_ICSD                66523
_audit_creation_date               1994/01/19
_chemical_name_systematic
;
Tetrapotassium Diaquatrihydrogenphosphatophosphatodiruthenate *
;
_chemical_formula_structural       'K4 ((H2 O)2 (H P O4)3 (P O4) Ru2)'
_chemical_formula_sum              'H7 K4 O18 P4 Ru2'
_publ_section_title
;
Stabilizing of the (Ru2)(6+) core. Use of highly charged ligands as 
sulfate and phosphate
;
loop_
_citation_id
_citation_journal_abbrev
_citation_year
_citation_journal_volume
_citation_page_first
_citation_page_last
_citation_journal_id_ASTM
primary 'Inorganica Chimica Acta' 1993 203 55 60 ICHAA3
_publ_author_name
;
Cotton, F.A.;Datta, T.;Labella, L.;Shang, M.
;
_cell_length_a                     9.049(1)
_cell_length_b                     9.418(1)
_cell_length_c                     10.235(1)
_cell_angle_alpha                  90.
_cell_angle_beta                   90.480(9)
_cell_angle_gamma                  90.
_cell_volume                       872.23
_cell_formula_units_Z              2
_symmetry_space_group_name_H-M     'P 1 21/n 1'
_symmetry_Int_Tables_number        14
_refine_ls_R_factor_all            .023
loop_
_symmetry_equiv_pos_site_id
_symmetry_equiv_pos_as_xyz
  1	'-x+.5, y+.5, -z+.5'
  2	'-x, -y, -z'
  3	'x+.5, -y+.5, z+.5'
  4	'x, y, z'
loop_
_atom_type_symbol
_atom_type_oxidation_number
H1+	1
K1+	1
O2-	-2
P5+	5
Ru2.5+	2.5
loop_
_atom_site_label
_atom_site_type_symbol
_atom_site_symmetry_multiplicity
_atom_site_Wyckoff_symbol
_atom_site_fract_x
_atom_site_fract_y
_atom_site_fract_z
_atom_site_occupancy
_atom_site_attached_hydrogens
_atom_site_B_iso_or_equiv
Ru1 Ru2.5+ 4 e 0.49990(3) 0.46979(3) 0.60913(3) 1. 0 0 
O1 O2- 4 e 0.5098(3) 0.4364(4) 0.8322(3) 1. 0 0 
O2 O2- 4 e 0.2877(3) 0.3968(3) 0.6029(3) 1. 0 0 
O3 O2- 4 e 0.7118(3) 0.5401(4) 0.6336(3) 1. 0 0 
O4 O2- 4 e 0.4145(3) 0.6602(3) 0.6614(3) 1. 0 0 
O5 O2- 4 e 0.5765(3) 0.2706(3) 0.5716(3) 1. 0 0 
P1 P5+ 4 e 0.2174(1) 0.3610(1) 0.4688(1) 1. 0 0 
P2 P5+ 4 e 0.3936(1) 0.7845(1) 0.5677(1) 1. 0 0 
O6 O2- 4 e 0.0494(3) 0.3851(4) 0.4727(3) 1. 0 0 
O7 O2- 4 e 0.2399(4) 0.2053(4) 0.4348(4) 1. 0 0 
O8 O2- 4 e 0.2500(4) 0.8520(4) 0.5770(3) 1. 0 0 
O9 O2- 4 e 0.5132(4) 0.8995(4) 0.6082(4) 1. 0 0 
K1 K1+ 4 e 0.3556(1) 0.1171(1) 0.7196(1) 1. 0 0 
K2 K1+ 4 e 0.6268(1) 0.7325(1) 0.8450(1) 1. 0 0 
H1 H1+ 4 e 0.573(7) 0.382(7) 0.866(6) 1. 0 2.7 
H2 H1+ 4 e 0.436(7) 0.410(7) 0.869(6) 1. 0 2.7 
H3 H1+ 2 d 0 0.5 0.5 1. 0 7.(4) 
H4 H1+ 4 e 0.591(8) 0.956(8) 0.703(7) 1. 0 3.9(4) 

loop_
_atom_site_aniso_label
_atom_site_aniso_type_symbol
_atom_site_aniso_B_11
_atom_site_aniso_B_22
_atom_site_aniso_B_33
_atom_site_aniso_B_12
_atom_site_aniso_B_13
_atom_site_aniso_B_23
Ru1 Ru2.5+ 0.891(9) 1.04(1) 0.83(1) 0.05(1) 0.080(8) 0.05(1)
O1 O2- 1.8(1) 2.9(1) 1.5(1) 0.4(1) 0.22(9) 0.9(1)
O2 O2- 1.3(1) 1.9(1) 1.4(1) -.5(1) 0.21(9) 0.1(1)
O3 O2- 1.3(1) 3.2(1) 1.4(1) -.5(1) -.10(9) 0.1(1)
O4 O2- 1.8(1) 1.5(1) 1.5(1) 0.2(1) 0.19(9) -.10(9)
O5 O2- 2.2(1) 1.5(1) 1.2(1) 0.7(1) 0.24(9) 0.11(9)
P1 P5+ 1.08(3) 1.60(4) 1.91(4) -.06(3) 0.11(3) -.30(4)
P2 P5+ 1.76(4) 1.88(4) 1.79(4) 0.30(4) 0.09(3) 0.03(4)
O6 O2- 1.2(1) 2.3(1) 3.2(1) 0.0(1) 0.1(1) -.4(1)
O7 O2- 1.9(1) 2.2(1) 4.6(2) 0.0(1) -.3(1) -1.1(1)
O8 O2- 2.2(1) 2.8(1) 1.8(1) 0.6(1) -.1(1) -.3(1)
O9 O2- 2.8(1) 2.3(1) 3.8(2) -.2(1) 0.0(1) -.5(1)
K1 K1+ 2.80(4) 2.14(4) 3.31(4) 0.46(4) 1.25(4) 0.33(4)
K2 K1+ 2.68(4) 4.03(5) 1.91(4) 0.21(4) -.70(3) -.49(4)
#End of data_66523-ICSD


