data_262264-ICSD
#?2014 by Fachinformationszentrum Karlsruhe, and the U.S. Secretary of 
#Commerce on behalf of the United States.  All rights reserved.
_database_code_ICSD                262264
_audit_creation_date               2012/02/01
_chemical_name_systematic          'Lead(II) Dicalcium Octaaluminate'
_chemical_formula_structural       'Pb Ca2 (Al8 O15)'
_chemical_formula_sum              'Al8 Ca2 O15 Pb1'
_publ_section_title
;
Pb Ca2 [Al8 O15] with a novel three-dimensional aluminate anion
;
loop_
_citation_id
_citation_journal_abbrev
_citation_year
_citation_journal_volume
_citation_journal_issue
_citation_page_first
_citation_page_last
_citation_journal_id_ASTM
primary 'Acta Crystallographica, Section C: Crystal Structure Communications'
 2012 68 1 i1 i3 ACSCEE
_publ_author_name                  'Artner, C.;Weil, M.'
_cell_length_a                     5.37020(10)
_cell_length_b                     27.9903(4)
_cell_length_c                     8.88110(10)
_cell_angle_alpha                  90.00
_cell_angle_beta                   90.00
_cell_angle_gamma                  90.00
_cell_volume                       1334.95
_cell_formula_units_Z              4
_symmetry_space_group_name_H-M     'P n m a'
_symmetry_Int_Tables_number        62
_refine_ls_R_factor_all            .0242
loop_
_symmetry_equiv_pos_site_id
_symmetry_equiv_pos_as_xyz
  1	'x+.5, y, -z+.5'
  2	'x, -y+.5, z'
  3	'-x+.5, y+.5, z+.5'
  4	'-x, -y, -z'
  5	'-x+.5, -y, z+.5'
  6	'-x, y+.5, -z'
  7	'x+.5, -y+.5, -z+.5'
  8	'x, y, z'
loop_
_atom_type_symbol
_atom_type_oxidation_number
Al3+	3
Ca2+	2
O2-	-2
Pb2+	2
loop_
_atom_site_label
_atom_site_type_symbol
_atom_site_symmetry_multiplicity
_atom_site_Wyckoff_symbol
_atom_site_fract_x
_atom_site_fract_y
_atom_site_fract_z
_atom_site_occupancy
_atom_site_attached_hydrogens
_atom_site_U_iso_or_equiv
Pb1 Pb2+ 4 c 0.428096(16) 0.2500 1.044280(10) 1 0 0.00950(2) 
Ca1 Ca2+ 8 d 0.06048(5) 0.110812(11) 0.56641(3) 1 0 0.00579(4) 
Al1 Al3+ 8 d 0.12604(10) 0.038859(18) 0.83700(6) 1 0 0.00556(7) 
Al2 Al3+ 8 d 0.01849(10) 0.189427(18) 0.84718(6) 1 0 0.00551(7) 
Al3 Al3+ 8 d -0.02687(10) 0.161644(19) 1.18773(6) 1 0 0.00613(7) 
Al4 Al3+ 8 d 0.19008(11) 0.058665(19) 1.19384(6) 1 0 0.00718(8) 
O1 O2- 8 d 0.3975(2) 0.02335(4) 1.30357(15) 1 0 0.00844(17) 
O2 O2- 4 c 0.0424(4) 0.2500 0.8979(2) 1 0 0.0099(3) 
O3 O2- 8 d -0.1119(2) 0.15916(5) 1.00045(14) 1 0 0.00934(18) 
O4 O2- 8 d -0.1677(2) 0.17341(5) 0.69052(14) 1 0 0.00905(17) 
O5 O2- 8 d 0.0309(3) 0.10693(5) 1.28228(14) 1 0 0.01041(19) 
O6 O2- 8 d 0.2544(2) 0.05825(5) 1.00378(13) 1 0 0.00903(17) 
O7 O2- 8 d -0.2424(2) 0.19359(5) 1.29953(15) 1 0 0.00955(18) 
O8 O2- 8 d 0.3353(2) 0.06358(4) 0.70435(14) 1 0 0.00792(16) 

loop_
_atom_site_aniso_label
_atom_site_aniso_type_symbol
_atom_site_aniso_U_11
_atom_site_aniso_U_22
_atom_site_aniso_U_33
_atom_site_aniso_U_12
_atom_site_aniso_U_13
_atom_site_aniso_U_23
Pb1 Pb2+ 0.00860(3) 0.00848(3) 0.01142(3) 0.000 0.00116(2) 0.000
Ca1 Ca2+ 0.00480(9) 0.00603(9) 0.00653(9) -0.00098(7) -0.00031(7) 
0.00050(7)
Al1 Al3+ 0.00483(16) 0.00669(17) 0.00517(16) -0.00032(14) -0.00011(13) 
-0.00047(13)
Al2 Al3+ 0.00503(16) 0.00585(17) 0.00565(17) -0.00049(14) -0.00012(14) 
0.00014(13)
Al3 Al3+ 0.00624(17) 0.00637(18) 0.00576(17) 0.00052(14) -0.00010(14) 
0.00041(13)
Al4 Al3+ 0.00831(19) 0.00789(18) 0.00534(17) 0.00240(15) 0.00083(15) 
0.00068(14)
O1 O2- 0.0078(4) 0.0069(4) 0.0106(4) -0.0006(3) -0.0019(3) 0.0017(3)
O2 O2- 0.0122(7) 0.0059(5) 0.0117(6) 0.000 -0.0014(5) 0.000
O3 O2- 0.0108(4) 0.0112(4) 0.0060(4) -0.0045(4) -0.0001(3) 0.0011(3)
O4 O2- 0.0063(4) 0.0120(4) 0.0089(4) 0.0015(3) -0.0022(3) -0.0023(3)
O5 O2- 0.0148(5) 0.0085(4) 0.0080(4) 0.0038(4) 0.0013(4) 0.0008(3)
O6 O2- 0.0089(4) 0.0131(4) 0.0051(4) -0.0032(4) 0.0001(3) -0.0011(3)
O7 O2- 0.0072(4) 0.0093(4) 0.0122(4) -0.0015(3) 0.0021(3) -0.0038(3)
O8 O2- 0.0056(4) 0.0092(4) 0.0089(4) 0.0008(3) 0.0018(3) 0.0020(3)
#End of data_262264-ICSD


