data_6199-ICSD
#?2014 by Fachinformationszentrum Karlsruhe, and the U.S. Secretary of 
#Commerce on behalf of the United States.  All rights reserved.
_database_code_ICSD                6199
_audit_creation_date               1980/01/01
_audit_update_record               2011/02/01
_chemical_name_systematic          'Potassium Oxotitanium Phosphate(V)'
_chemical_formula_structural       'K (Ti O) (P O4)'
_chemical_formula_sum              'K1 O5 P1 Ti1'
_publ_section_title
;
Structure cristalline du monophosphate K Ti P O5
;
loop_
_citation_id
_citation_journal_abbrev
_citation_year
_citation_journal_volume
_citation_page_first
_citation_page_last
_citation_journal_id_ASTM
primary
;
Zeitschrift fuer Kristallographie, Kristallgeometrie, Kristallphysik, 
Kristallchemie (-144,1977)
;
 1974 139 103 115 ZEKGAX
2 'Golden Book of Phase Transitions, Wroclaw' 2002 1 1 123 GBOPT5
_publ_author_name
;
Tordjman, I.;Masse, R.;Guitel, J.C.
;
_cell_length_a                     12.814(6)
_cell_length_b                     10.616(5)
_cell_length_c                     6.404(2)
_cell_angle_alpha                  90.
_cell_angle_beta                   90.
_cell_angle_gamma                  90.
_cell_volume                       871.16
_cell_formula_units_Z              8
_symmetry_space_group_name_H-M     'P n 21 a'
_symmetry_Int_Tables_number        33
_refine_ls_R_factor_all            .04
loop_
_symmetry_equiv_pos_site_id
_symmetry_equiv_pos_as_xyz
  1	'x+.5, y, -z+.5'
  2	'-x+.5, y+.5, z+.5'
  3	'-x, y+.5, -z'
  4	'x, y, z'
loop_
_atom_type_symbol
_atom_type_oxidation_number
K1+	1
O2-	-2
P5+	5
Ti4+	4
loop_
_atom_site_label
_atom_site_type_symbol
_atom_site_symmetry_multiplicity
_atom_site_Wyckoff_symbol
_atom_site_fract_x
_atom_site_fract_y
_atom_site_fract_z
_atom_site_occupancy
_atom_site_attached_hydrogens
Ti1 Ti4+ 4 a 0.37291(5) 0 0.50011(12) 1. 0 
Ti2 Ti4+ 4 a 0.24670(7) 0.25145(12) 0.26915(11) 1. 0 
P1 P5+ 4 a 0.4980(1) 0.26078(15) 0.33639(17) 1. 0 
P2 P5+ 4 a 0.18080(8) 0.51310(13) 0.50197(20) 1. 0 
K1 K1+ 4 a 0.37801(10) 0.31201(18) 0.7804(2) 1. 0 
K2 K1+ 4 a 0.10528(10) 0.06690(18) 0.6989(2) 1. 0 
O1 O2- 4 a 0.4862(3) 0.1504(3) 0.4865(6) 1. 0 
O2 O2- 4 a 0.5100(3) 0.3836(3) 0.4650(7) 1. 0 
O3 O2- 4 a 0.3999(3) 0.2800(4) 0.1989(6) 1. 0 
O4 O2- 4 a 0.5937(3) 0.2422(4) 0.1925(6) 1. 0 
O5 O2- 4 a 0.2247(3) 0.6447(3) -.0333(6) 1. 0 
O6 O2- 4 a 0.2238(3) 0.3907(4) 0.0405(6) 1. 0 
O7 O2- 4 a 0.1120(3) 0.5421(4) 0.3105(5) 1. 0 
O8 O2- 4 a 0.1111(3) 0.4878(4) 0.6918(5) 1. 0 
O9 O2- 4 a 0.2526(3) 0.6285(4) 0.5396(7) 1. 0 
O10 O2- 4 a 0.2530(3) 0.3995(3) 0.4605(6) 1. 0 

#End of data_6199-ICSD


