data_96556-ICSD
#?2014 by Fachinformationszentrum Karlsruhe, and the U.S. Secretary of 
#Commerce on behalf of the United States.  All rights reserved.
_database_code_ICSD                96556
_audit_creation_date               2004/04/01
_chemical_name_systematic          'Calcium Iron(III) Dioxide Chloride'
_chemical_formula_structural       'Ca Fe O2 Cl'
_chemical_formula_sum              'Ca1 Cl1 Fe1 O2'
_publ_section_title
;
Ca Fe O2 Cl and Ca2 Fe O3 Cl with higher space group symmetry, a 
reevaluation
;
loop_
_citation_id
_citation_journal_abbrev
_citation_year
_citation_journal_volume
_citation_page_first
_citation_page_last
_citation_journal_id_ASTM
primary 'Journal of Solid State Chemistry' 2003 174 165 166 JSSCBI
2 'Journal of Solid State Chemistry' 1991 92 496 513 JSSCBI
_publ_author_name                  'Parthe, E.;Hu, S.-Z.'
_cell_length_a                     9.999
_cell_length_b                     3.828
_cell_length_c                     8.712
_cell_angle_alpha                  90
_cell_angle_beta                   103.53
_cell_angle_gamma                  90
_cell_volume                       324.21
_cell_formula_units_Z              4
_symmetry_space_group_name_H-M     'C 1 2/m 1'
_symmetry_Int_Tables_number        12
loop_
_symmetry_equiv_pos_site_id
_symmetry_equiv_pos_as_xyz
  1	'-x, y, -z'
  2	'-x, -y, -z'
  3	'x, -y, z'
  4	'x, y, z'
  5	'-x+.5, y+.5, -z'
  6	'-x+.5, -y+.5, -z'
  7	'x+.5, -y+.5, z'
  8	'x+.5, y+.5, z'
loop_
_atom_type_symbol
_atom_type_oxidation_number
Ca2+	2
Cl1-	-1
Fe3+	3
O2-	-2
loop_
_atom_site_label
_atom_site_type_symbol
_atom_site_symmetry_multiplicity
_atom_site_Wyckoff_symbol
_atom_site_fract_x
_atom_site_fract_y
_atom_site_fract_z
_atom_site_occupancy
_atom_site_attached_hydrogens
Ca1 Ca2+ 4 i 0.6079 0 0.2935 1. 0 
Fe1 Fe3+ 4 i 0.1372 0 0.0001 1. 0 
O1 O2- 4 i 0.0253 0 0.1633 1. 0 
O2 O2- 4 i 0.6815 0 0.0539 1. 0 
Cl1 Cl1- 4 i 0.3354 0 0.3755 1. 0 

#End of data_96556-ICSD


