data_62510-ICSD
#?2014 by Fachinformationszentrum Karlsruhe, and the U.S. Secretary of 
#Commerce on behalf of the United States.  All rights reserved.
_database_code_ICSD                62510
_audit_creation_date               1988/02/22
_audit_update_record               2010/08/01
_chemical_name_systematic
;
Silver Difluoride Arsenic Pentafluoride
;
_chemical_formula_structural       'Ag As F7'
_chemical_formula_sum              'Ag1 As1 F7'
_publ_section_title
;
Structure of the 1:1 silver(II) fluoride - arsenic(V) fluoride 
adduct, Ag F2 * As F5
;
loop_
_citation_id
_citation_journal_abbrev
_citation_year
_citation_journal_volume
_citation_page_first
_citation_page_last
_citation_journal_id_ASTM
primary 'Acta Crystallographica, Section C: Crystal Structure Communications'
 1987 43 618 620 ACSCEE
_publ_author_name
;
Gantar, D.;Frlec, B.;Russell, D.R.;Holloway, J.H.
;
_cell_length_a                     7.585(1)
_cell_length_b                     6.997(6)
_cell_length_c                     9.852(1)
_cell_angle_alpha                  90.
_cell_angle_beta                   90.
_cell_angle_gamma                  90.
_cell_volume                       522.87
_cell_formula_units_Z              4
_symmetry_space_group_name_H-M     'P n m a'
_symmetry_Int_Tables_number        62
_refine_ls_R_factor_all            .032
loop_
_symmetry_equiv_pos_site_id
_symmetry_equiv_pos_as_xyz
  1	'x+.5, y, -z+.5'
  2	'x, -y+.5, z'
  3	'-x+.5, y+.5, z+.5'
  4	'-x, -y, -z'
  5	'-x+.5, -y, z+.5'
  6	'-x, y+.5, -z'
  7	'x+.5, -y+.5, -z+.5'
  8	'x, y, z'
loop_
_atom_type_symbol
_atom_type_oxidation_number
Ag2+	2
As5+	5
F1-	-1
loop_
_atom_site_label
_atom_site_type_symbol
_atom_site_symmetry_multiplicity
_atom_site_Wyckoff_symbol
_atom_site_fract_x
_atom_site_fract_y
_atom_site_fract_z
_atom_site_occupancy
_atom_site_attached_hydrogens
As1 As5+ 4 c 0.29822(13) 0.25 0.56139(9) 1. 0 
Ag1 Ag2+ 4 c 0.13105(8) 0.25 0.24264(6) 1. 0 
F1 F1- 4 c 0.3849(7) 0.25 0.1861(6) 1. 0 
F2 F1- 4 c 0.5031(9) 0.25 0.4844(6) 1. 0 
F3 F1- 4 c 0.0992(9) 0.25 0.6357(8) 1. 0 
F4 F1- 8 d 0.2294(7) 0.0808(7) 0.4453(4) 1. 0 
F5 F1- 8 d 0.3729(6) 0.0764(6) 0.6699(4) 1. 0 

loop_
_atom_site_aniso_label
_atom_site_aniso_type_symbol
_atom_site_aniso_U_11
_atom_site_aniso_U_22
_atom_site_aniso_U_33
_atom_site_aniso_U_12
_atom_site_aniso_U_13
_atom_site_aniso_U_23
As1 As5+ 0.0222(5) 0.0274(5) 0.0155(5) 0 0.0001(3) 0
Ag1 Ag2+ 0.0116(4) 0.0256(4) 0.0187(4) 0 -.0013(2) 0
F1 F1- 0.0194(32) 0.0478(36) 0.0293(32) 0 -.0005(22) 0
F2 F1- 0.0304(32) 0.0596(39) 0.0288(31) 0 0.0062(26) 0
F3 F1- 0.0292(39) 0.1050(69) 0.0439(41) 0 0.0137(30) 0
F4 F1- 0.0496(28) 0.0453(25) 0.0296(21) -.0056(20) -.0116(18) -.0121(22)
F5 F1- 0.0595(31) 0.0303(22) 0.0307(21) 0.0080(18) -.014(2) -.0028(19)
#End of data_62510-ICSD


