data_6062-ICSD
#?2014 by Fachinformationszentrum Karlsruhe, and the U.S. Secretary of 
#Commerce on behalf of the United States.  All rights reserved.
_database_code_ICSD                6062
_audit_creation_date               1980/01/01
_audit_update_record               2008/02/01
_chemical_name_systematic          'Dicesium Tetrachlorozincate'
_chemical_formula_structural       'Cs2 (Zn Cl4)'
_chemical_formula_sum              'Cl4 Cs2 Zn1'
_publ_section_title
;
Crystal structure, crystal forces, and charge distribution in salts 
of the tetrachlorozincate anion
;
loop_
_citation_id
_citation_journal_abbrev
_citation_year
_citation_journal_volume
_citation_page_first
_citation_page_last
_citation_journal_id_ASTM
primary 'Inorganic Chemistry' 1974 13 1057 1061 INOCAJ
2
;
Zeitschrift fuer Kristallographie, Kristallgeometrie, Kristallphysik, 
Kristallchemie (-144,1977)
;
 1957 109 68 72 ZEKGAX
3 'Golden Book of Phase Transitions, Wroclaw' 2002 1 1 123 GBOPT5
4 Ferroelectrics 1990 107 229 234 FEROA8
_publ_author_name                  'McGinnety, J.A.'
_cell_length_a                     9.7577(15)
_cell_length_b                     12.9704(16)
_cell_length_c                     7.4004(10)
_cell_angle_alpha                  90.
_cell_angle_beta                   90.
_cell_angle_gamma                  90.
_cell_volume                       936.6
_cell_formula_units_Z              4
_symmetry_space_group_name_H-M     'P n a m'
_symmetry_Int_Tables_number        62
_refine_ls_R_factor_all            .057
loop_
_symmetry_equiv_pos_site_id
_symmetry_equiv_pos_as_xyz
  1	'x+.5, -y+.5, z'
  2	'x, y, -z+.5'
  3	'-x+.5, y+.5, z+.5'
  4	'-x, -y, -z'
  5	'-x+.5, y+.5, -z'
  6	'-x, -y, z+.5'
  7	'x+.5, -y+.5, -z+.5'
  8	'x, y, z'
loop_
_atom_type_symbol
_atom_type_oxidation_number
Cl1-	-1
Cs1+	1
Zn2+	2
loop_
_atom_site_label
_atom_site_type_symbol
_atom_site_symmetry_multiplicity
_atom_site_Wyckoff_symbol
_atom_site_fract_x
_atom_site_fract_y
_atom_site_fract_z
_atom_site_occupancy
_atom_site_attached_hydrogens
Zn1 Zn2+ 4 c 0.23516(7) 0.42142(6) 0.25 1. 0 
Cs1 Cs1+ 4 c 0.64076(5) 0.39875(5) 0.25 1. 0 
Cs2 Cs1+ 4 c 0.02191(4) 0.67595(3) 0.25 1. 0 
Cl1 Cl1- 4 c 0.0059(2) 0.4030(2) 0.25 1. 0 
Cl2 Cl1- 4 c 0.3115(2) 0.5858(2) 0.25 1. 0 
Cl3 Cl1- 8 d 0.3238(1) 0.3459(1) 0.0022(2) 1. 0 

#End of data_6062-ICSD


