data_35658-ICSD
#?2014 by Fachinformationszentrum Karlsruhe, and the U.S. Secretary of 
#Commerce on behalf of the United States.  All rights reserved.
_database_code_ICSD                35658
_audit_creation_date               1983/12/31
_audit_update_record               2003/10/01
_chemical_name_systematic          'Dirubidium Tetrachlorozincate - Lt'
_chemical_formula_structural       'Rb2 (Zn Cl4)'
_chemical_formula_sum              'Cl4 Rb2 Zn1'
_publ_section_title
;
Neutron Structural Study of the Successive Phase Transitions in Rb2 
Zn Cl4
;
loop_
_citation_id
_citation_journal_abbrev
_citation_year
_citation_journal_volume
_citation_page_first
_citation_page_last
_citation_journal_id_ASTM
primary 'Acta Crystallographica, Section B: Structural Science'
 1983 39 657 663 ASBSDK
2 'Phase Transition' 1992 38 127 220 PHTRDP
_publ_author_name                  'Quilichini, M.;Pannetier, J.'
_cell_length_a                     27.505(9)
_cell_length_b                     12.627(6)
_cell_length_c                     7.242(3)
_cell_angle_alpha                  90.
_cell_angle_beta                   90.
_cell_angle_gamma                  90.
_cell_volume                       2515.19
_cell_formula_units_Z              12
_symmetry_space_group_name_H-M     'P n a 21'
_symmetry_Int_Tables_number        33
_refine_ls_R_factor_all            .046
loop_
_symmetry_equiv_pos_site_id
_symmetry_equiv_pos_as_xyz
  1	'x+.5, -y+.5, z'
  2	'-x+.5, y+.5, z+.5'
  3	'-x, -y, z+.5'
  4	'x, y, z'
loop_
_atom_type_symbol
_atom_type_oxidation_number
Cl1-	-1
Rb1+	1
Zn2+	2
loop_
_atom_site_label
_atom_site_type_symbol
_atom_site_symmetry_multiplicity
_atom_site_Wyckoff_symbol
_atom_site_fract_x
_atom_site_fract_y
_atom_site_fract_z
_atom_site_occupancy
_atom_site_attached_hydrogens
Rb1 Rb1+ 4 a 0.2089(1) 0.4047(3) 0.2424(5) 1. 0 
Rb2 Rb1+ 4 a 0.0424(1) 0.0900(2) 0.2804(5) 1. 0 
Rb3 Rb1+ 4 a 0.3769(1) 0.0987(3) 0.2639(5) 1. 0 
Rb4 Rb1+ 4 a 0.1631(1) 0.8189(2) 0.2452(5) 1. 0 
Rb5 Rb1+ 4 a 0.3292(1) 0.6807(2) 0.2498(5) 1. 0 
Rb6 Rb1+ 4 a 0.4960(1) 0.8182(2) 0.2805(5) 1. 0 
Zn1 Zn2+ 4 a 0.0735(1) 0.4222(2) 0.25 1. 0 
Zn2 Zn2+ 4 a 0.2414(1) 0.0792(2) 0.2551(4) 1. 0 
Zn3 Zn2+ 4 a 0.4072(1) 0.4208(2) 0.2706(4) 1. 0 
Cl1 Cl1- 4 a 0.1604(1) 0.0795(2) 0.2794(5) 1. 0 
Cl2 Cl1- 4 a 0.3261(1) 0.4199(2) 0.2916(5) 1. 0 
Cl3 Cl1- 4 a 0.4932(1) 0.0748(1) 0.2058(4) 1. 0 
Cl4 Cl1- 4 a 0.1084(1) 0.5825(1) 0.3010(4) 1. 0 
Cl5 Cl1- 4 a 0.2754(1) 0.9176(2) 0.1993(4) 1. 0 
Cl6 Cl1- 4 a 0.4408(1) 0.5839(2) 0.3029(5) 1. 0 
Cl7 Cl1- 4 a 0.1101(1) 0.3624(2) 0.9859(4) 1. 0 
Cl8 Cl1- 4 a 0.2656(1) 0.1918(2) 0.0308(4) 1. 0 
Cl9 Cl1- 4 a 0.4351(1) 0.3562(2) 0.9999(4) 1. 0 
Cl10 Cl1- 4 a 0.0616(1) 0.8168(2) 0.9954(4) 1. 0 
Cl11 Cl1- 4 a 0.2250(1) 0.6346(1) 0.0245(4) 1. 0 
Cl12 Cl1- 4 a 0.4050(1) 0.8127(2) 0.9812(4) 1. 0 

loop_
_atom_site_aniso_label
_atom_site_aniso_type_symbol
_atom_site_aniso_U_11
_atom_site_aniso_U_22
_atom_site_aniso_U_33
_atom_site_aniso_U_12
_atom_site_aniso_U_13
_atom_site_aniso_U_23
Rb1 Rb1+ 0.0124(13) 0.0446(18) 0.0245(11) 0.0042(13) -0.003(1) 0.0030(14)
Rb2 Rb1+ 0.0114(11) 0.0380(14) 0.0264(10) -0.0012(13) 0.0001(11) 0.0013(12)
Rb3 Rb1+ 0.0127(12) 0.0479(18) 0.0274(12) -0.0003(14) 0.0023(10) 0.0034(14)
Rb4 Rb1+ 0.0103(10) 0.0219(12) 0.022(1) 0.0016(10) -0.0021(9) -0.0015(10)
Rb5 Rb1+ 0.0123(10) 0.0196(12) 0.0214(10) -0.0005(9) -0.0023(9) 0.0019(10)
Rb6 Rb1+ 0.0118(9) 0.0232(11) 0.0159(8) -0.0022(11) -0.0008(9) 0.0013(9)
Zn1 Zn2+ 0.0082(13) 0.0188(12) 0.0118(9) -0.0006(12) 0.0011(9) 0.0003(11)
Zn2 Zn2+ 0.0093(13) 0.0185(13) 0.0125(9) 0.0000(12) 0.0005(9) 0.0008(10)
Zn3 Zn2+ 0.0105(13) 0.0205(14) 0.0100(9) 0.0014(13) -0.0004(10) 0.0005(11)
Cl1 Cl1- 0.0084(8) 0.0289(9) 0.0471(11) -0.0109(10) 0.0009(9) 0.0018(7)
Cl2 Cl1- 0.0093(8) 0.0314(9) 0.0414(10) 0.0081(10) -0.0026(9) -0.0007(7)
Cl3 Cl1- 0.0093(8) 0.0275(9) 0.0256(7) 0.0060(9) 0.0004(7) 0.0024(7)
Cl4 Cl1- 0.0134(9) 0.0196(8) 0.0308(8) -0.0023(9) -0.0008(8) -0.0049(8)
Cl5 Cl1- 0.0127(9) 0.0225(9) 0.0293(8) -0.0057(9) -0.0024(7) 0.0012(9)
Cl6 Cl1- 0.0135(9) 0.0215(8) 0.0433(60) -0.0032(9) -0.0025(9) -0.0038(8)
Cl7 Cl1- 0.0119(7) 0.0381(9) 0.0134(6) -0.0076(9) -0.0015(7) 0.0041(8)
Cl8 Cl1- 0.0247(9) 0.0369(9) 0.0170(7) 0.0087(10) -0.0004(7) 0.0009
Cl9 Cl1- 0.0254(9) 0.0422(10) 0.0148(6) -0.0095(9) -0.0024(7) 0.0117(9)
Cl10 Cl1- 0.0179(8) 0.0486(11) 0.0226(7) 0.0187(10) -0.0038(7) -0.0099(8)
Cl11 Cl1- 0.0151(7) 0.0330(8) 0.0134(6) -0.0045(9) 0.0007(6) 0.0024(8)
Cl12 Cl1- 0.0262(9) 0.0338(9) 0.0163(6) 0.0072(9) -0.0025(7) -0.0076(8)
#End of data_35658-ICSD


