data_162216-ICSD
#?2014 by Fachinformationszentrum Karlsruhe, and the U.S. Secretary of 
#Commerce on behalf of the United States.  All rights reserved.
_database_code_ICSD                162216
_audit_creation_date               2009/08/01
_chemical_name_systematic          'Dipotassium Titanate'
_chemical_formula_structural       'K2 (Ti O3)'
_chemical_formula_sum              'K2 O3 Ti1'
_publ_section_title
;
Crystal growth and structure determination of K2 Ti O3: a five 
coordinate titanate
;
loop_
_citation_id
_citation_journal_abbrev
_citation_year
_citation_journal_volume
_citation_page_first
_citation_page_last
_citation_journal_id_ASTM
primary 'Materials Research Bulletin' 2009 44 91 94 MRBUAC
_publ_author_name
;
Khalsa, H.S.;Smith, M.D.;zur Loye, H.C.
;
_cell_length_a                     10.0283(2)
_cell_length_b                     6.9346(2)
_cell_length_c                     5.4534(1)
_cell_angle_alpha                  90.
_cell_angle_beta                   90.
_cell_angle_gamma                  90.
_cell_volume                       379.24
_cell_formula_units_Z              4
_symmetry_space_group_name_H-M     'C m c m'
_symmetry_Int_Tables_number        63
_refine_ls_R_factor_all            .0169
loop_
_symmetry_equiv_pos_site_id
_symmetry_equiv_pos_as_xyz
  1	'-x, y, -z+.5'
  2	'-x, -y, z+.5'
  3	'-x, y, z'
  4	'-x, -y, -z'
  5	'x, -y, z+.5'
  6	'x, y, -z+.5'
  7	'x, -y, -z'
  8	'x, y, z'
  9	'-x+.5, y+.5, -z+.5'
 10	'-x+.5, -y+.5, z+.5'
 11	'-x+.5, y+.5, z'
 12	'-x+.5, -y+.5, -z'
 13	'x+.5, -y+.5, z+.5'
 14	'x+.5, y+.5, -z+.5'
 15	'x+.5, -y+.5, -z'
 16	'x+.5, y+.5, z'
loop_
_atom_type_symbol
_atom_type_oxidation_number
K1+	1
O2-	-2
Ti4+	4
loop_
_atom_site_label
_atom_site_type_symbol
_atom_site_symmetry_multiplicity
_atom_site_Wyckoff_symbol
_atom_site_fract_x
_atom_site_fract_y
_atom_site_fract_z
_atom_site_occupancy
_atom_site_attached_hydrogens
_atom_site_U_iso_or_equiv
Ti1 Ti4+ 4 c 0 0.0847(1) 0.250 1. 0 0.007(1) 
K1 K1+ 8 g 0.3369(1) 0.1480(1) 0.250 1. 0 0.012(1) 
O1 O2- 8 e 0.1262(1) 0 0 1. 0 0.010(1) 
O2 O2- 4 c 0 0.3374(2) 0.250 1. 0 0.016(1) 

#End of data_162216-ICSD


