data_61117-ICSD
#?2014 by Fachinformationszentrum Karlsruhe, and the U.S. Secretary of 
#Commerce on behalf of the United States.  All rights reserved.
_database_code_ICSD                61117
_audit_creation_date               1986/12/03
_audit_update_record               2012/08/01
_chemical_name_systematic
;
Dipotassium Sodium Hexafluoromanganate(III)
;
_chemical_formula_structural       'K2 Na Mn F6'
_chemical_formula_sum              'F6 K2 Mn1 Na1'
_publ_section_title
;
The crystal structure of K2 Na Mn F6
;
loop_
_citation_id
_citation_journal_abbrev
_citation_year
_citation_journal_volume
_citation_page_first
_citation_page_last
_citation_journal_id_ASTM
primary 'Acta Crystallographica (1,1948-23,1967)' 1963 16 45 45 ACCRA9
_publ_author_name                  'Knox, K.'
_cell_length_a                     8.171
_cell_length_b                     8.171
_cell_length_c                     8.577
_cell_angle_alpha                  90.
_cell_angle_beta                   90.
_cell_angle_gamma                  90.
_cell_volume                       572.65
_cell_formula_units_Z              4
_symmetry_space_group_name_H-M     'F 4/m m m'
_symmetry_Int_Tables_number        139
loop_
_symmetry_equiv_pos_site_id
_symmetry_equiv_pos_as_xyz
  1	'x, -y, -z'
  2	'y, -x, -z'
  3	'y, x, -z'
  4	'-x, -y, -z'
  5	'-x, y, -z'
  6	'-y, x, -z'
  7	'-y, -x, -z'
  8	'x, y, -z'
  9	'x, -y, z'
 10	'y, -x, z'
 11	'y, x, z'
 12	'-x, -y, z'
 13	'-x, y, z'
 14	'-y, x, z'
 15	'-y, -x, z'
 16	'x, y, z'
 17	'x, -y+.5, -z+.5'
 18	'x+.5, -y, -z+.5'
 19	'x+.5, -y+.5, -z'
 20	'y, -x+.5, -z+.5'
 21	'y+.5, -x, -z+.5'
 22	'y+.5, -x+.5, -z'
 23	'y, x+.5, -z+.5'
 24	'y+.5, x, -z+.5'
 25	'y+.5, x+.5, -z'
 26	'-x, -y+.5, -z+.5'
 27	'-x+.5, -y, -z+.5'
 28	'-x+.5, -y+.5, -z'
 29	'-x, y+.5, -z+.5'
 30	'-x+.5, y, -z+.5'
 31	'-x+.5, y+.5, -z'
 32	'-y, x+.5, -z+.5'
 33	'-y+.5, x, -z+.5'
 34	'-y+.5, x+.5, -z'
 35	'-y, -x+.5, -z+.5'
 36	'-y+.5, -x, -z+.5'
 37	'-y+.5, -x+.5, -z'
 38	'x, y+.5, -z+.5'
 39	'x+.5, y, -z+.5'
 40	'x+.5, y+.5, -z'
 41	'x, -y+.5, z+.5'
 42	'x+.5, -y, z+.5'
 43	'x+.5, -y+.5, z'
 44	'y, -x+.5, z+.5'
 45	'y+.5, -x, z+.5'
 46	'y+.5, -x+.5, z'
 47	'y, x+.5, z+.5'
 48	'y+.5, x, z+.5'
 49	'y+.5, x+.5, z'
 50	'-x, -y+.5, z+.5'
 51	'-x+.5, -y, z+.5'
 52	'-x+.5, -y+.5, z'
 53	'-x, y+.5, z+.5'
 54	'-x+.5, y, z+.5'
 55	'-x+.5, y+.5, z'
 56	'-y, x+.5, z+.5'
 57	'-y+.5, x, z+.5'
 58	'-y+.5, x+.5, z'
 59	'-y, -x+.5, z+.5'
 60	'-y+.5, -x, z+.5'
 61	'-y+.5, -x+.5, z'
 62	'x, y+.5, z+.5'
 63	'x+.5, y, z+.5'
 64	'x+.5, y+.5, z'
loop_
_atom_type_symbol
_atom_type_oxidation_number
F1-	-1
K1+	1
Mn3+	3
Na1+	1
loop_
_atom_site_label
_atom_site_type_symbol
_atom_site_symmetry_multiplicity
_atom_site_Wyckoff_symbol
_atom_site_fract_x
_atom_site_fract_y
_atom_site_fract_z
_atom_site_occupancy
_atom_site_attached_hydrogens
K1 K1+ 8 d 0.25 0.25 0.25 1. 0 
Na1 Na1+ 4 b 0 0 0.5 1. 0 
Mn1 Mn3+ 4 a 0 0 0 1. 0 
F1 F1- 16 h 0.2281 0 0 1. 0 
F2 F1- 8 e 0 0 0.2402 1. 0 

#End of data_61117-ICSD


