data_15179-ICSD
#?2014 by Fachinformationszentrum Karlsruhe, and the U.S. Secretary of 
#Commerce on behalf of the United States.  All rights reserved.
_database_code_ICSD                15179
_audit_creation_date               1980/01/01
_audit_update_record               2011/02/01
_chemical_name_systematic
;
Lanthanum Strontium Trisodium Zinc Hexasilicate
;
_chemical_formula_structural       'La Sr Na3 Zn (Si6 O17)'
_chemical_formula_sum              'La1 Na3 O17 Si6 Sr1 Zn1'
_chemical_name_mineral             Nordite-(La)
_publ_section_title
;
The crystal structure of nordite and its relationship to melilite and 
datolite-gadolinite
;
loop_
_citation_id
_citation_journal_abbrev
_citation_year
_citation_journal_volume
_citation_page_first
_citation_page_last
_citation_journal_id_ASTM
primary 'American Mineralogist' 1970 55 1167 1181 AMMIAY
_publ_author_name
;
Bakakin, V.V.;Belov, N.V.;Borisov, S.V.;Solov'eva, L.P.
;
_cell_length_a                     14.27(3)
_cell_length_b                     5.16(1)
_cell_length_c                     19.45(15)
_cell_angle_alpha                  90.
_cell_angle_beta                   90.
_cell_angle_gamma                  90.
_cell_volume                       1432.17
_cell_formula_units_Z              4
_symmetry_space_group_name_H-M     'P c c a'
_symmetry_Int_Tables_number        54
_refine_ls_R_factor_all            .122
loop_
_symmetry_equiv_pos_site_id
_symmetry_equiv_pos_as_xyz
  1	'x, -y, z+.5'
  2	'-x+.5, y, z+.5'
  3	'x+.5, y, -z'
  4	'-x, -y, -z'
  5	'-x, y, -z+.5'
  6	'x+.5, -y, -z+.5'
  7	'-x+.5, -y, z'
  8	'x, y, z'
loop_
_atom_type_symbol
_atom_type_oxidation_number
La3+	3
Na1+	1
O2-	-2
Si4+	4
Sr2+	2
Zn2+	2
loop_
_atom_site_label
_atom_site_type_symbol
_atom_site_symmetry_multiplicity
_atom_site_Wyckoff_symbol
_atom_site_fract_x
_atom_site_fract_y
_atom_site_fract_z
_atom_site_occupancy
_atom_site_attached_hydrogens
_atom_site_B_iso_or_equiv
La1 La3+ 4 d 0.25 0 0.3194 1. 0 0.39(3) 
Sr1 Sr2+ 4 d 0.25 0 0.0217(2) 1. 0 0.06(5) 
Zn1 Zn2+ 4 e 0.25 0.5 0.1687(3) 1. 0 0.91(7) 
Si1 Si4+ 8 f 0.0980(7) 0.4542(23) 0.0623(4) 1. 0 0.61(14) 
Si2 Si4+ 8 f 0.1019(7) 0.5433(23) 0.2747(4) 1. 0 0.46(13) 
Si3 Si4+ 8 f 0.1116(5) 0.5516(17) -.0819(4) 1. 0 0.31(11) 
Na1 Na1+ 4 a 0 0 0 1. 0 2.05(36) 
Na2 Na1+ 8 f 0.0696(10) 0.0125(81) 0.1693(8) 1. 0 2.10(26) 
O1 O2- 8 f 0.9955(16) 0.3389(53) 0.0811(14) 1. 0 0.84(10) 
O2 O2- 8 f 0.1701(18) 0.2995(71) 0.1101(12) 1. 0 0.7(1) 
O3 O2- 8 f 0.1172(18) 0.3537(59) -.0131(12) 1. 0 1.49(46) 
O4 O2- 8 f 0.1019(16) 0.7640(68) 0.0672(12) 1. 0 1.64(45) 
O5 O2- 4 c 0 0.6366(96) 0.25 1. 0 1.28(58) 
O6 O2- 8 f 0.1783(18) 0.7090(69) 0.2321(12) 1. 0 0.83(33) 
O7 O2- 8 f 0.1221(19) 0.6503(58) 0.3532(13) 1. 0 1.00(37) 
O8 O2- 8 f 0.1178(18) 0.2392(58) 0.2714(12) 1. 0 1.26(40) 
O9 O2- 8 f 0.1857(15) 0.2226(58) 0.4173(14) 1. 0 1.11(33) 

#End of data_15179-ICSD


