data_73230-ICSD
#?2014 by Fachinformationszentrum Karlsruhe, and the U.S. Secretary of 
#Commerce on behalf of the United States.  All rights reserved.
_database_code_ICSD                73230
_audit_creation_date               1994/06/30
_audit_update_record               2008/02/01
_chemical_name_systematic          'Disilver Telluride - Beta'
_chemical_formula_structural       'Ag2 Te'
_chemical_formula_sum              'Ag2 Te1'
_chemical_name_mineral             Hessite
_publ_section_title
;
X-ray powder diffraction of Ag2 Te at temperatures up to 1123 K
;
loop_
_citation_id
_citation_journal_abbrev
_citation_year
_citation_journal_volume
_citation_page_first
_citation_page_last
_citation_journal_id_ASTM
primary 'Zeitschrift fuer Kristallographie (1979-2010)' 1993 203 1 15 ZEKRDZ
_publ_author_name                  'Schneider, J.;Schulz, H.'
_cell_length_a                     8.16160(7)
_cell_length_b                     4.46651(4)
_cell_length_c                     8.97335(7)
_cell_angle_alpha                  90.
_cell_angle_beta                   124.1530(4)
_cell_angle_gamma                  90.
_cell_volume                       270.7
_cell_formula_units_Z              4
_symmetry_space_group_name_H-M     'P 1 21/c 1'
_symmetry_Int_Tables_number        14
_refine_ls_R_factor_all            .036
loop_
_symmetry_equiv_pos_site_id
_symmetry_equiv_pos_as_xyz
  1	'x, -y+.5, z+.5'
  2	'-x, -y, -z'
  3	'-x, y+.5, -z+.5'
  4	'x, y, z'
loop_
_atom_type_symbol
_atom_type_oxidation_number
Ag1+	1
Te2-	-2
loop_
_atom_site_label
_atom_site_type_symbol
_atom_site_symmetry_multiplicity
_atom_site_Wyckoff_symbol
_atom_site_fract_x
_atom_site_fract_y
_atom_site_fract_z
_atom_site_occupancy
_atom_site_attached_hydrogens
Ag1 Ag1+ 4 e 0.0190(4) 0.1496(5) 0.3714(4) 1. 0 
Ag2 Ag1+ 4 e 0.3327(3) 0.8404(6) 0.9967(3) 1. 0 
Te1 Te2- 4 e 0.2712(2) 0.1601(5) 0.2425(2) 1. 0 

#End of data_73230-ICSD


