data_43437-ICSD
#?2014 by Fachinformationszentrum Karlsruhe, and the U.S. Secretary of 
#Commerce on behalf of the United States.  All rights reserved.
_database_code_ICSD                43437
_audit_creation_date               2000/07/15
_audit_update_record               2012/08/01
_chemical_name_systematic          'Lithium Iron(III) Oxide - Gamma'
_chemical_formula_structural       'Li Fe O2'
_chemical_formula_sum              'Fe1 Li1 O2'
_publ_section_title
;
The magnetic structure of ordered and disordered Li Fe O2
;
loop_
_citation_id
_citation_journal_abbrev
_citation_year
_citation_journal_volume
_citation_page_first
_citation_page_last
_citation_journal_id_ASTM
primary 'American Crystallographic Association: Program and Abstracts'
 1962 1962 6 6 PABAD5
_publ_author_name                  'Cox, D.E.;Takei, W.J.;Shirane, G.'
_cell_length_a                     4.04(4)
_cell_length_b                     4.04(4)
_cell_length_c                     8.73(9)
_cell_angle_alpha                  90.
_cell_angle_beta                   90.
_cell_angle_gamma                  90.
_cell_volume                       142.49
_cell_formula_units_Z              4
_symmetry_space_group_name_H-M     'I 41/a m d S'
_symmetry_Int_Tables_number        141
loop_
_symmetry_equiv_pos_site_id
_symmetry_equiv_pos_as_xyz
  1	'y, -x+.5, z+.25'
  2	'-y, x+.5, z+.25'
  3	'y, -x, -z'
  4	'-y, x, -z'
  5	'-y, -x+.5, z+.25'
  6	'y, x+.5, z+.25'
  7	'-y, -x, -z'
  8	'y, x, -z'
  9	'x, -y+.5, -z+.25'
 10	'-x, y+.5, -z+.25'
 11	'x, -y, z'
 12	'-x, y, z'
 13	'-x, -y+.5, -z+.25'
 14	'x, y+.5, -z+.25'
 15	'-x, -y, z'
 16	'x, y, z'
 17	'y+.5, -x, z+.75'
 18	'-y+.5, x, z+.75'
 19	'y+.5, -x+.5, -z+.5'
 20	'-y+.5, x+.5, -z+.5'
 21	'-y+.5, -x, z+.75'
 22	'y+.5, x, z+.75'
 23	'-y+.5, -x+.5, -z+.5'
 24	'y+.5, x+.5, -z+.5'
 25	'x+.5, -y, -z+.75'
 26	'-x+.5, y, -z+.75'
 27	'x+.5, -y+.5, z+.5'
 28	'-x+.5, y+.5, z+.5'
 29	'-x+.5, -y, -z+.75'
 30	'x+.5, y, -z+.75'
 31	'-x+.5, -y+.5, z+.5'
 32	'x+.5, y+.5, z+.5'
loop_
_atom_type_symbol
_atom_type_oxidation_number
Fe3+	3
Li1+	1
O2-	-2
loop_
_atom_site_label
_atom_site_type_symbol
_atom_site_symmetry_multiplicity
_atom_site_Wyckoff_symbol
_atom_site_fract_x
_atom_site_fract_y
_atom_site_fract_z
_atom_site_occupancy
_atom_site_attached_hydrogens
Li1 Li1+ 4 b 0 0 0.5 1. 0 
Fe1 Fe3+ 4 a 0 0 0 1. 0 
O1 O2- 8 e 0 0 0.232 1. 0 

#End of data_43437-ICSD


