data_33885-ICSD
#?2014 by Fachinformationszentrum Karlsruhe, and the U.S. Secretary of 
#Commerce on behalf of the United States.  All rights reserved.
_database_code_ICSD                33885
_audit_creation_date               1992/01/20
_audit_update_record               2000/07/15
_chemical_name_systematic          'Aluminium Tantalum Oxide'
_chemical_formula_structural       'Al Ta O4'
_chemical_formula_sum              'Al1 O4 Ta1'
_publ_section_title                'Al Ta O4 mit Al Nb O4-Struktur'
loop_
_citation_id
_citation_journal_abbrev
_citation_year
_citation_journal_volume
_citation_page_first
_citation_page_last
_citation_journal_id_ASTM
primary 'Zeitschrift fuer Anorganische und Allgemeine Chemie (1950) (DE)'
 1991 596 107 110 ZAACAB
_publ_author_name                  'Harneit, O.;Mueller Buschbaum, H.'
_cell_length_a                     12.135(3)
_cell_length_b                     3.776(1)
_cell_length_c                     6.449(2)
_cell_angle_alpha                  90.
_cell_angle_beta                   107.74(2)
_cell_angle_gamma                  90.
_cell_volume                       281.45
_cell_formula_units_Z              4
_symmetry_space_group_name_H-M     'C 1 2/m 1'
_symmetry_Int_Tables_number        12
_refine_ls_R_factor_all            .069
loop_
_symmetry_equiv_pos_site_id
_symmetry_equiv_pos_as_xyz
  1	'-x, y, -z'
  2	'-x, -y, -z'
  3	'x, -y, z'
  4	'x, y, z'
  5	'-x+.5, y+.5, -z'
  6	'-x+.5, -y+.5, -z'
  7	'x+.5, -y+.5, z'
  8	'x+.5, y+.5, z'
loop_
_atom_type_symbol
_atom_type_oxidation_number
Al3+	3
O2-	-2
Ta5+	5
loop_
_atom_site_label
_atom_site_type_symbol
_atom_site_symmetry_multiplicity
_atom_site_Wyckoff_symbol
_atom_site_fract_x
_atom_site_fract_y
_atom_site_fract_z
_atom_site_occupancy
_atom_site_attached_hydrogens
_atom_site_B_iso_or_equiv
Ta1 Ta5+ 4 i 0.1055(1) 0 0.2327(1) 1. 0 0.261(8) 
Al1 Al3+ 4 i 0.1996(6) 0 0.8176(12) 1. 0 0.34(9) 
O1 O2- 4 i 0.141(2) 0 0.526(3) 1. 0 0.68(23) 
O2 O2- 4 i 0.262(2) 0 0.140(3) 1. 0 0.65(23) 
O3 O2- 4 i 0.058(2) 0 0.866(3) 1. 0 0.58(22) 
O4 O2- 4 i 0.640(2) 0 0.200(3) 1. 0 0.67(23) 

#End of data_33885-ICSD


