data_2496-ICSD
#?2014 by Fachinformationszentrum Karlsruhe, and the U.S. Secretary of 
#Commerce on behalf of the United States.  All rights reserved.
_database_code_ICSD                2496
_audit_creation_date               1980/01/01
_audit_update_record               2012/08/01
_chemical_name_systematic          'Dipotassium Hexazinc Oxide'
_chemical_formula_structural       'K2 Zn6 O7'
_chemical_formula_sum              'K2 O7 Zn6'
_publ_section_title
;
Die Koordinationszahl 3 bei Zn(2+). Zur Kenntnis von K2 (Zn6 O7)
;
loop_
_citation_id
_citation_journal_abbrev
_citation_year
_citation_journal_volume
_citation_page_first
_citation_page_last
_citation_journal_id_ASTM
primary 'Zeitschrift fuer Anorganische und Allgemeine Chemie (1950) (DE)'
 1978 445 91 101 ZAACAB
_publ_author_name                  'Wambach, K.R.;Hoppe, R.'
_cell_length_a                     10.912
_cell_length_b                     10.912
_cell_length_c                     3.325
_cell_angle_alpha                  90.
_cell_angle_beta                   90.
_cell_angle_gamma                  90.
_cell_volume                       395.91
_cell_formula_units_Z              2
_symmetry_space_group_name_H-M     'P 42 n m'
_symmetry_Int_Tables_number        102
_refine_ls_R_factor_all            .0845
loop_
_symmetry_equiv_pos_site_id
_symmetry_equiv_pos_as_xyz
  1	'-y+.5, x+.5, z+.5'
  2	'y+.5, -x+.5, z+.5'
  3	'-y, -x, z'
  4	'y, x, z'
  5	'-x+.5, y+.5, z+.5'
  6	'x+.5, -y+.5, z+.5'
  7	'-x, -y, z'
  8	'x, y, z'
loop_
_atom_type_symbol
_atom_type_oxidation_number
K1+	1
O2-	-2
Zn2+	2
loop_
_atom_site_label
_atom_site_type_symbol
_atom_site_symmetry_multiplicity
_atom_site_Wyckoff_symbol
_atom_site_fract_x
_atom_site_fract_y
_atom_site_fract_z
_atom_site_occupancy
_atom_site_attached_hydrogens
_atom_site_U_iso_or_equiv
K1 K1+ 4 c 0.3477(5) 0.3477(5) 0.468(5) 1. 0 0 
Zn1 Zn2+ 8 d 0.3446(2) 0.0847(2) 0 1. 0 0 
Zn2 Zn2+ 4 c 0.1197(2) 0.1197(2) 0.484(4) 1. 0 0 
O1 O2- 8 d 0.187(1) 0.493(1) 0.984(8) 1. 0 0.007(2) 
O2 O2- 4 c 0.196(1) 0.196(1) 0.029(9) 1. 0 0.017(4) 
O3 O2- 2 a 0 0 0.628(9) 1. 0 0.032(7) 

loop_
_atom_site_aniso_label
_atom_site_aniso_type_symbol
_atom_site_aniso_U_11
_atom_site_aniso_U_22
_atom_site_aniso_U_33
_atom_site_aniso_U_12
_atom_site_aniso_U_13
_atom_site_aniso_U_23
K1 K1+ 0.022(2) 0.022(2) 0.007(4) 0.004(2) 0.005(1) 0.002(2)
Zn1 Zn2+ 0.007(1) 0.008(1) 0.012(1) 0.000(1) -.004(1) -.003(1)
Zn2 Zn2+ 0.032(1) 0.032(1) 0.023(3) -.005(1) -.005(2) -.005(2)
#End of data_2496-ICSD


