data_20932-ICSD
#?2014 by Fachinformationszentrum Karlsruhe, and the U.S. Secretary of 
#Commerce on behalf of the United States.  All rights reserved.
_database_code_ICSD                20932
_audit_creation_date               1985/07/16
_audit_update_record               2012/08/01
_chemical_name_systematic
;
Disodium Dicerium Titanium Dioxide Silicate Dicarbonate
;
_chemical_formula_structural       'Na2 Ce2 Ti O2 (Si O4) (C O3)2'
_chemical_formula_sum              'C2 Ce2 Na2 O12 Si1 Ti1'
_chemical_name_mineral             Tundrite-(Ce)
_publ_section_title
;
Tundrite, Na2 Ce2 Ti O2 (Si O4) (C O3)2 refinement of the crystal 
structure and chemical formula
;
loop_
_citation_id
_citation_journal_abbrev
_citation_year
_citation_journal_volume
_citation_journal_issue
_citation_page_first
_citation_page_last
_citation_journal_id_ASTM
primary Kristallografiya 1976 21 4 705 715 KRISAJ
2 'Soviet Physics, Crystallography (= Kristallografiya)'
 1976 21 4 399 405 SPHCA6
3 'Doklady Akademii Nauk SSSR' 1969 185- 1289 1292 DANKAS
4 'Doklady Akademii Nauk SSSR' 1973 211- 426 429 DANKAS
_publ_author_name
;
Shumyatskaya, N.G.;Voronkov, A.A.;Ilyukhin, V.V.;Belov, N.V.
;
_cell_length_a                     7.560(2)
_cell_length_b                     13.957(3)
_cell_length_c                     5.040(1)
_cell_angle_alpha                  101.11(17)
_cell_angle_beta                   70.87(17)
_cell_angle_gamma                  100.01(17)
_cell_volume                       489.49
_cell_formula_units_Z              2
_symmetry_space_group_name_H-M     'P -1'
_symmetry_Int_Tables_number        2
_refine_ls_R_factor_all            .07
loop_
_symmetry_equiv_pos_site_id
_symmetry_equiv_pos_as_xyz
  1	'-x, -y, -z'
  2	'x, y, z'
loop_
_atom_type_symbol
_atom_type_oxidation_number
C4+	4
Ce3+	3
Na1+	1
O2-	-2
Si4+	4
Ti4+	4
loop_
_atom_site_label
_atom_site_type_symbol
_atom_site_symmetry_multiplicity
_atom_site_Wyckoff_symbol
_atom_site_fract_x
_atom_site_fract_y
_atom_site_fract_z
_atom_site_occupancy
_atom_site_attached_hydrogens
_atom_site_B_iso_or_equiv
Ce1 Ce3+ 2 i 0.6565 0.7787 0.5923 1. 0 0.83(17) 
Ce2 Ce3+ 2 i 0.2181 0.7776 0.3103 1. 0 1.04(17) 
Ti1 Ti4+ 2 i 0.61 0.9997 0.1947 1. 0 0.10(17) 
Si1 Si4+ 2 i 0.961 0.8578 0.9115 1. 0 0.37(17) 
Na1 Na1+ 1 b 0 0 0.5 1. 0 1.82(17) 
Na2 Na1+ 2 i 0.1405 0.4747 0.1748 1. 0 2.08(17) 
Na3 Na1+ 1 h 0.5 0.5 0.5 1. 0 3.26(17) 
C1 C4+ 2 i 0.7914 0.3534 0.2433 1. 0 1.22(17) 
C2 C4+ 2 i 0.5993 0.6535 0.0623 1. 0 0.71(17) 
O1 O2- 2 i 0.9335 0.7563 0.7068 1. 0 0.66(17) 
O2 O2- 2 i 0.7925 0.9172 0.9089 1. 0 0.81(17) 
O3 O2- 2 i 0.1613 0.9167 0.7245 1. 0 0.70(17) 
O4 O2- 2 i 0.9563 0.843 0.2243 1. 0 0.88(17) 
O5 O2- 2 i 0.4053 0.9185 0.0677 1. 0 0.81(17) 
O6 O2- 2 i 0.5504 0.9189 0.4993 1. 0 0.74(17) 
O7 O2- 2 i 0.8735 0.3813 0.9915 1. 0 0.10(17) 
O8 O2- 2 i 0.8096 0.4043 0.4623 1. 0 2.41(17) 
O9 O2- 2 i 0.3343 0.3761 0.7702 1. 0 1.46(17) 
O10 O2- 2 i 0.4046 0.3923 0.1771 1. 0 1.37(17) 
O11 O2- 2 i 0.3076 0.7558 0.7489 1. 0 1.24(17) 
O12 O2- 2 i 0.5458 0.7415 0.1339 1. 0 0.91(17) 

#End of data_20932-ICSD


