data_14136-ICSD
#?2014 by Fachinformationszentrum Karlsruhe, and the U.S. Secretary of 
#Commerce on behalf of the United States.  All rights reserved.
_database_code_ICSD                14136
_audit_creation_date               1986/10/03
_audit_update_record               2012/08/01
_chemical_name_systematic          'Sodium Pentafluorodistannate(II)'
_chemical_formula_structural       'Na Sn2 F5'
_chemical_formula_sum              'F5 Na1 Sn2'
_publ_section_title
;
The Crystal Structure of Sodium Pentafluorodistannate(II), Na Sn2 F5
;
loop_
_citation_id
_citation_journal_abbrev
_citation_year
_citation_journal_volume
_citation_page_first
_citation_page_last
_citation_journal_id_ASTM
primary 'Acta Crystallographica (1,1948-23,1967)' 1964 17 1104 1108 ACCRA9
_publ_author_name
;
McDonald, R.R.;Larson, A.C.;Cromer, D.T.
;
_cell_length_a                     9.02
_cell_length_b                     9.02
_cell_length_c                     13.685
_cell_angle_alpha                  90.
_cell_angle_beta                   90.
_cell_angle_gamma                  90.
_cell_volume                       1113.42
_cell_formula_units_Z              8
_symmetry_space_group_name_H-M     'P 42/n b c Z'
_symmetry_Int_Tables_number        133
_refine_ls_R_factor_all            .056
loop_
_symmetry_equiv_pos_site_id
_symmetry_equiv_pos_as_xyz
  1	'y, x, -z+.5'
  2	'-y, x+.5, -z+.5'
  3	'y+.5, -x, -z+.5'
  4	'-y+.5, -x+.5, -z+.5'
  5	'x+.5, y+.5, -z'
  6	'-x+.5, y, -z'
  7	'x, -y+.5, -z'
  8	'-x, -y, -z'
  9	'-y, -x, z+.5'
 10	'y, -x+.5, z+.5'
 11	'-y+.5, x, z+.5'
 12	'y+.5, x+.5, z+.5'
 13	'-x+.5, -y+.5, z'
 14	'x+.5, -y, z'
 15	'-x, y+.5, z'
 16	'x, y, z'
loop_
_atom_type_symbol
_atom_type_oxidation_number
F1-	-1
Na1+	1
Sn2+	2
loop_
_atom_site_label
_atom_site_type_symbol
_atom_site_symmetry_multiplicity
_atom_site_Wyckoff_symbol
_atom_site_fract_x
_atom_site_fract_y
_atom_site_fract_z
_atom_site_occupancy
_atom_site_attached_hydrogens
Sn1 Sn2+ 16 k 0.5698(3) 0.4155(3) 0.1192(2) 1. 0 
F1 F1- 16 k 0.4596(27) 0.3815(26) -.0496(13) 1. 0 
F2 F1- 16 k 0.3431(24) 0.4007(26) 0.1382(13) 1. 0 
F3 F1- 8 j 0.5600(29) 0.5600(29) 0.25 1. 0 
Na1 Na1+ 4 a 0.25 0.25 0 1. 0 
Na2 Na1+ 4 c 0.25 0.25 0.25 1. 0 

#End of data_14136-ICSD


