data_161804-ICSD
#?2014 by Fachinformationszentrum Karlsruhe, and the U.S. Secretary of 
#Commerce on behalf of the United States.  All rights reserved.
_database_code_ICSD                161804
_audit_creation_date               2009/02/01
_audit_update_record               2013/08/01
_chemical_name_systematic          'Trisodium Phospho(V)disilicate'
_chemical_formula_structural       'Na3 (Si2 P O8)'
_chemical_formula_sum              'Na3 O8 P1 Si2'
_publ_section_title
;
Synthesis of NASICON - a molecular precursor-based approach
;
loop_
_citation_id
_citation_journal_abbrev
_citation_year
_citation_journal_volume
_citation_page_first
_citation_page_last
_citation_journal_id_ASTM
primary 'Chemistry of Materials' 2008 20 6410 6419 CMATEX
_publ_author_name
;
Porkodi, P.;Yegnaraman, V.;Kamaraj, P.;Kalyanavalli, V.;Jeyakumar, D.
;
_cell_length_a                     7.517
_cell_length_b                     10.251
_cell_length_c                     8.774
_cell_angle_alpha                  90.
_cell_angle_beta                   90.
_cell_angle_gamma                  90.
_cell_volume                       676.1
_cell_formula_units_Z              4
_symmetry_space_group_name_H-M     'P 21 21 21'
_symmetry_Int_Tables_number        19
_refine_ls_R_factor_all            .18
loop_
_symmetry_equiv_pos_site_id
_symmetry_equiv_pos_as_xyz
  1	'-x, y+.5, -z+.5'
  2	'x+.5, -y+.5, -z'
  3	'-x+.5, -y, z+.5'
  4	'x, y, z'
loop_
_atom_type_symbol
_atom_type_oxidation_number
Na1+	1
O2-	-2
P5+	5
Si4+	4
loop_
_atom_site_label
_atom_site_type_symbol
_atom_site_symmetry_multiplicity
_atom_site_Wyckoff_symbol
_atom_site_fract_x
_atom_site_fract_y
_atom_site_fract_z
_atom_site_occupancy
_atom_site_attached_hydrogens
Na1 Na1+ 4 a 0.30578 0.22802 0.24331 1. 0 
Na2 Na1+ 4 a 0.20173 0.12901 0.77279 1. 0 
Na3 Na1+ 4 a 0.26251 0.29509 0.02982 1. 0 
P1 P5+ 4 a 0.02635 0.39531 0.32809 1. 0 
O1 O2- 4 a 0.13410 0.04404 0.51720 1. 0 
O2 O2- 4 a 0.47688 0.08401 0.24179 1. 0 
O3 O2- 4 a 0.82972 0.00100 0.15000 1. 0 
O4 O2- 4 a 0.10000 0.30000 0.30000 1. 0 
O5 O2- 4 a 0.27774 0.68973 0.11936 1. 0 
O6 O2- 4 a 0.03196 0.90813 0.00887 1. 0 
O7 O2- 4 a 0.02431 0.41473 0.16412 1. 0 
O8 O2- 4 a 0.35590 0.16561 0.03330 1. 0 
Si1 Si4+ 4 a 0.48368 0.08068 0.01957 1. 0 
Si2 Si4+ 4 a 0.07589 0.39852 0.59897 1. 0 

#End of data_161804-ICSD


