data_2478-ICSD
#?2014 by Fachinformationszentrum Karlsruhe, and the U.S. Secretary of 
#Commerce on behalf of the United States.  All rights reserved.
_database_code_ICSD                2478
_audit_creation_date               1980/01/01
_audit_update_record               1999/05/18
_chemical_name_systematic          '14-sodium Hexairon(III) Oxide'
_chemical_formula_structural       'Na14 Fe6 O16'
_chemical_formula_sum              'Fe6 Na14 O16'
_publ_section_title                'Zur Kenntnis von Na14 (Fe6 O16)'
loop_
_citation_id
_citation_journal_abbrev
_citation_year
_citation_journal_volume
_citation_page_first
_citation_page_last
_citation_journal_id_ASTM
primary 'Zeitschrift fuer Anorganische und Allgemeine Chemie (1950) (DE)'
 1978 446 87 96 ZAACAB
_publ_author_name                  'Brachtel, G.;Hoppe, R.'
_cell_length_a                     11.427
_cell_length_b                     8.271
_cell_length_c                     5.953
_cell_angle_alpha                  109.34
_cell_angle_beta                   87.76
_cell_angle_gamma                  111.36
_cell_volume                       492.29
_cell_formula_units_Z              1
_symmetry_space_group_name_H-M     'P -1'
_symmetry_Int_Tables_number        2
_refine_ls_R_factor_all            .051
loop_
_symmetry_equiv_pos_site_id
_symmetry_equiv_pos_as_xyz
  1	'-x, -y, -z'
  2	'x, y, z'
loop_
_atom_type_symbol
_atom_type_oxidation_number
Fe3+	3
Na1+	1
O2-	-2
loop_
_atom_site_label
_atom_site_type_symbol
_atom_site_symmetry_multiplicity
_atom_site_Wyckoff_symbol
_atom_site_fract_x
_atom_site_fract_y
_atom_site_fract_z
_atom_site_occupancy
_atom_site_attached_hydrogens
Na1 Na1+ 2 i 0.2251(2) 0.2923(3) 0.5465 1. 0 
Na2 Na1+ 2 i 0.9495(2) 0.4921(3) 0.2643(4) 1. 0 
Na3 Na1+ 2 i 0.9538(2) 0.0932(3) 0.3122(4) 1. 0 
Na4 Na1+ 2 i 0.5307(2) 0.4618(3) 0.7229(4) 1. 0 
Na5 Na1+ 2 i 0.4351(2) 0.0766(3) 0.3755(4) 1. 0 
Na6 Na1+ 2 i 0.333(2) 0.1108(3) 0.8716(4) 1. 0 
Na7 Na1+ 2 i 0.7202(2) 0.2825(3) 0.5094(4) 1. 0 
Fe1 Fe3+ 2 i 0.1504(1) 0.3066(1) 0.0616(1) 1. 0 
Fe2 Fe3+ 2 i 0.6377(1) 0.3249(1) 0.0443(1) 1. 0 
Fe3 Fe3+ 2 i 0.8500(1) 0.1093(1) 0.8170(1) 1. 0 
O1 O2- 2 i 0.7727(3) 0.0207(4) 0.5130(6) 1. 0 
O2 O2- 2 i 0.5335(3) 0.1898 0.7648(6) 1. 0 
O3 O2- 2 i 0.1583(3) 0.0919(4) 0.0925(6) 1. 0 
O4 O2- 2 i 0.0254(3) 0.2376(5) 0.8091(6) 1. 0 
O5 O2- 2 i 0.5621(3) 0.3448(5) 0.3254(6) 1. 0 
O6 O2- 2 i 0.1141(3) 0.4238(4) 0.3583(6) 1. 0 
O7 O2- 2 i 0.3044 0.4230(4) 0.9572(6) 1. 0 
O8 O2- 2 i 0.7724(3) 0.2392(5) 0.0545(6) 1. 0 

loop_
_atom_site_aniso_label
_atom_site_aniso_type_symbol
_atom_site_aniso_U_11
_atom_site_aniso_U_22
_atom_site_aniso_U_33
_atom_site_aniso_U_12
_atom_site_aniso_U_13
_atom_site_aniso_U_23
Na1 Na1+ 0.0310(12) 0.0202(11) 0.0166(11) 0.0153(10) -.0034(9) 0.0033(9)
Na2 Na1+ 0.0164(10) 0.0112(9) 0.0165(10) 0.0068(8) 0.0006(8) 0.0044(8)
Na3 Na1+ 0.0161(10) 0.0169(10) 0.0235(11) 0.0019(9) 0.0039(9) 0.0079(9)
Na4 Na1+ 0.0232(11) 0.0134(10) 0.0147(10) 0.0115(9) -.0005(9) 0.0051(8)
Na5 Na1+ 0.0126(9) 0.0091(9) 0.0182(10) 0.0040(8) 0.0017(8) 0.0057(8)
Na6 Na1+ 0.0151(10) 0.0289(12) 0.0180(11) 0.0083 0.0055(8) 0.0089(9)
Na7 Na1+ 0.0166(10) 0.013(1) 0.0265(11) 0.0051(8) -.0004 0.0093(9)
Fe1 Fe3+ 0.0080(3) 0.0030(3) 0.0105(3) 0.0023(3) 0.0012(8) 0.0036
Fe2 Fe3+ 0.0074(3) 0.0034(3) 0.0093(3) 0.0029(3) 0.0007(3) 0.0023(3)
Fe3 Fe3+ 0.0071(3) 0.0027(3) 0.0092 0.0020(2) -.0003(2) 0.0024(3)
O1 O2- 0.0114(15) 0.0143(16) 0.0088(15) 0.0045(13) -.0013(13) 0.0023(13)
O2 O2- 0.0122(16) 0.0073(15) 0.0131(16) 0.0033(13) -.0030(13) 0.0016(13)
O3 O2- 0.0129(16) 0.0072(15) 0.0231(17) 0.0049(13) 0.00184 0.0077(13)
O4 O2- 0.0099(14) 0.0114(15) 0.0201(17) -.0002(13) -.0029(13) 0.0102(13)
O5 O2- 0.0237(18) 0.0142(16) 0.0175(17) 0.0120(14) 0.0088(14) 0.009514
O6 O2- 0.0147(16) 0.0109(16) 0.0115(15) 0.0054(13) 0.0019(13) 0.0030(13)
O7 O2- 0.0112(15) 0.0064(15) 0.0177(16) 0.0007(12) 0.0011(13) 0.0062(13)
O8 O2- 0.0139(16) 0.0125(16) 0.0173(17) 0.0091(13) -.0008(14) 0.0091(4)
#End of data_2478-ICSD


