data_20118-ICSD
#?2014 by Fachinformationszentrum Karlsruhe, and the U.S. Secretary of 
#Commerce on behalf of the United States.  All rights reserved.
_database_code_ICSD                20118
_audit_creation_date               1980/01/01
_audit_update_record               1984/11/02
_chemical_name_systematic          'Dipotassium Samarium Fluoride'
_chemical_formula_structural       'K2 Sm F5'
_chemical_formula_sum              'F5 K2 Sm1'
_publ_section_title
;
The interpretation of the crystal structure of K2 Sm F5 by the 
rhombpeak method
;
loop_
_citation_id
_citation_journal_abbrev
_citation_year
_citation_journal_volume
_citation_page_first
_citation_page_last
_citation_journal_id_ASTM
primary 'Doklady Akademii Nauk SSSR' 1973 212 357 359 DANKAS
_publ_author_name
;
Bochkova, R.I.;Saf'yanov, Yu.N.;Kuz'min, E.A.;Belov, N.V.
;
_cell_length_a                     10.8
_cell_length_b                     6.62
_cell_length_c                     7.51
_cell_angle_alpha                  90.
_cell_angle_beta                   90.
_cell_angle_gamma                  90.
_cell_volume                       536.93
_cell_formula_units_Z              4
_symmetry_space_group_name_H-M     'P n a 21'
_symmetry_Int_Tables_number        33
_refine_ls_R_factor_all            .12
loop_
_symmetry_equiv_pos_site_id
_symmetry_equiv_pos_as_xyz
  1	'x+.5, -y+.5, z'
  2	'-x+.5, y+.5, z+.5'
  3	'-x, -y, z+.5'
  4	'x, y, z'
loop_
_atom_type_symbol
_atom_type_oxidation_number
F1-	-1
K1+	1
Sm3+	3
loop_
_atom_site_label
_atom_site_type_symbol
_atom_site_symmetry_multiplicity
_atom_site_Wyckoff_symbol
_atom_site_fract_x
_atom_site_fract_y
_atom_site_fract_z
_atom_site_occupancy
_atom_site_attached_hydrogens
_atom_site_B_iso_or_equiv
Sm1 Sm3+ 4 a -.001 0.066 0 1. 0 -.15 
K1 K1+ 4 a 0.331 0.042 0.262 1. 0 -.18 
K2 K1+ 4 a 0.399 0.024 0.758 1. 0 -.11 
F1 F1- 4 a 0.012 0.404 0.003 1. 0 -.15 
F2 F1- 4 a 0.074 0.154 0.295 1. 0 -.75 
F3 F1- 4 a 0.078 0.151 0.738 1. 0 -.64 
F4 F1- 4 a 0.305 0.33 0.01 1. 0 -.49 
F5 F1- 4 a 0.335 0.369 0.485 1. 0 -.27 

#End of data_20118-ICSD


