data_66943-ICSD
#?2014 by Fachinformationszentrum Karlsruhe, and the U.S. Secretary of 
#Commerce on behalf of the United States.  All rights reserved.
_database_code_ICSD                66943
_audit_creation_date               1998/06/26
_chemical_name_systematic          'Potassium Carbonate'
_chemical_formula_structural       'K2 (C O3)'
_chemical_formula_sum              'C1 K2 O3'
_publ_section_title
;
Crystal structure of (Lix K1-x)2 (C O3) (x= 0, 0.43, 0.5, 0.62, 1) by 
neutron powder diffraction analysis
;
loop_
_citation_id
_citation_journal_abbrev
_citation_year
_citation_journal_volume
_citation_page_first
_citation_page_last
_citation_journal_id_ASTM
primary 'Journal of Physics and Chemistry of Solids' 1998 59 363 376 JPCSAW
_publ_author_name
;
Idemoto, Y.;Ricardson, J.W.jr.;Koura, N.;Kohara, S.;Loong, C.-K.
;
_cell_length_a                     5.63961(5)
_cell_length_b                     9.8312(8)
_cell_length_c                     6.87407(6)
_cell_angle_alpha                  90.
_cell_angle_beta                   98.703(1)
_cell_angle_gamma                  90.
_cell_volume                       376.74
_cell_formula_units_Z              4
_symmetry_space_group_name_H-M     'P 1 21/c 1'
_symmetry_Int_Tables_number        14
_refine_ls_R_factor_all            .0339
loop_
_symmetry_equiv_pos_site_id
_symmetry_equiv_pos_as_xyz
  1	'x, -y+.5, z+.5'
  2	'-x, -y, -z'
  3	'-x, y+.5, -z+.5'
  4	'x, y, z'
loop_
_atom_type_symbol
_atom_type_oxidation_number
C4+	4
K1+	1
O2-	-2
loop_
_atom_site_label
_atom_site_type_symbol
_atom_site_symmetry_multiplicity
_atom_site_Wyckoff_symbol
_atom_site_fract_x
_atom_site_fract_y
_atom_site_fract_z
_atom_site_occupancy
_atom_site_attached_hydrogens
K1 K1+ 4 e 0.2418(7) 0.0831(2) 0.2148(5) 1. 0 
K2 K1+ 4 e 0.7391(8) 0.2602(4) 0.9720(5) 1. 0 
C1 C4+ 4 e 0.2455(4) 0.4174(1) 0.2489(3) 1. 0 
O1 O2- 4 e 0.7368(4) 0.0430(2) 0.2014(3) 1. 0 
O2 O2- 4 e 0.0631(4) 0.3488(2) 0.2770(3) 1. 0 
O3 O2- 4 e 0.4147(4) 0.3609(2) 0.1718(3) 1. 0 

loop_
_atom_site_aniso_label
_atom_site_aniso_type_symbol
_atom_site_aniso_U_11
_atom_site_aniso_U_22
_atom_site_aniso_U_33
_atom_site_aniso_U_12
_atom_site_aniso_U_13
_atom_site_aniso_U_23
K1 K1+ 0.0132(14) 0.0134(14) 0.0406(21) -.0026(18) 0.0090(15) -.0004(16)
K2 K1+ 0.0293(17) 0.0220(16) 0.0182(17) 0.0048(16) 0.0055(14) 0.0031(14)
C1 C4+ 0.0116(8) 0.0153(8) 0.016(1) -.0004(9) 0.0068(6) 0.0003(8)
O1 O2- 0.0240(11) 0.0128(10) 0.0405(16) 0.0017(10) 0.0109(11) 0.0026(8)
O2 O2- 0.0119(13) 0.0214(12) 0.0450(15) -.0093(9) 0.0137(10) -.0044(10)
O3 O2- 0.0274(16) 0.0248(14) 0.0367(14) 0.0009(11) 0.0159(12) -.0077(10)
#End of data_66943-ICSD


