data_61177-ICSD
#?2014 by Fachinformationszentrum Karlsruhe, and the U.S. Secretary of 
#Commerce on behalf of the United States.  All rights reserved.
_database_code_ICSD                61177
_audit_creation_date               1986/12/03
_audit_update_record               2003/04/01
_chemical_name_systematic          'Potassium Iodate(V) - At 10 K'
_chemical_formula_structural       'K (I O3)'
_chemical_formula_sum              'I1 K1 O3'
_publ_section_title
;
Structure (neutron) of potassium iodate at 100 and 10 K
;
loop_
_citation_id
_citation_journal_abbrev
_citation_year
_citation_journal_volume
_citation_page_first
_citation_page_last
_citation_journal_id_ASTM
primary 'Acta Crystallographica, Section C: Crystal Structure Communications'
 1985 41 1388 1391 ACSCEE
2 'Phase Transition' 1992 38 127 220 PHTRDP
_publ_author_name                  'Lucas, B.W.'
_cell_length_a                     7.6818(5)
_cell_length_b                     7.6504(3)
_cell_length_c                     7.6896(5)
_cell_angle_alpha                  109.062(5)
_cell_angle_beta                   109.786(2)
_cell_angle_gamma                  109.012(5)
_cell_volume                       350.22
_cell_formula_units_Z              4
_symmetry_space_group_name_H-M     'P 1'
_symmetry_Int_Tables_number        1
_refine_ls_R_factor_all            .0795
loop_
_symmetry_equiv_pos_site_id
_symmetry_equiv_pos_as_xyz
  1	'x, y, z'
loop_
_atom_type_symbol
_atom_type_oxidation_number
I5+	5
K1+	1
O2-	-2
loop_
_atom_site_label
_atom_site_type_symbol
_atom_site_symmetry_multiplicity
_atom_site_Wyckoff_symbol
_atom_site_fract_x
_atom_site_fract_y
_atom_site_fract_z
_atom_site_occupancy
_atom_site_attached_hydrogens
_atom_site_B_iso_or_equiv
K1 K1+ 1 a -.0520(49) 0.0389(39) 0.5042(47) 1. 0 0.34(10) 
K2 K1+ 1 a -.0001(58) 0.4989(54) -.0119(55) 1. 0 0.34(10) 
K3 K1+ 1 a 0.5012(44) 0.0172(42) 0.0166(47) 1. 0 0.34(10) 
K4 K1+ 1 a 0.5023(54) 0.5281(54) 0.5212(62) 1. 0 0.34(10) 
I1 I5+ 1 a 0 0 0 1. 0 0.07(8) 
I2 I5+ 1 a -.0112(41) 0.5229(35) 0.4890(41) 1. 0 0.07(8) 
I3 I5+ 1 a 0.4775(47) 0.0200(55) 0.5092(46) 1. 0 0.07(8) 
I4 I5+ 1 a 0.4891(37) 0.5009(38) 0.0035(38) 1. 0 0.07(8) 
O1 O2- 1 a 0.0650(44) -.1699(41) -.1229(41) 1. 0 0.45(3) 
O2 O2- 1 a 0.7668(41) -.1819(46) -.0169(40) 1. 0 0.45(3) 
O3 O2- 1 a 0.8380(37) 0.0304(42) -.2217(36) 1. 0 0.45(3) 
O4 O2- 1 a 0.0216(35) 0.3622(37) 0.2938(36) 1. 0 0.45(3) 
O5 O2- 1 a 0.7687(41) 0.3270(37) 0.4976(39) 1. 0 0.45(3) 
O6 O2- 1 a 0.8298(39) 0.6192(39) 0.3591(40) 1. 0 0.45(3) 
O7 O2- 1 a 0.4910(34) -.1666(35) 0.2914(35) 1. 0 0.45(3) 
O8 O2- 1 a 0.3249(48) -.1852(43) 0.5628(42) 1. 0 0.45(3) 
O9 O2- 1 a 0.2745(44) 0.0601(45) 0.3687(47) 1. 0 0.45(3) 
O10 O2- 1 a 0.3549(42) 0.3229(44) 0.0820(39) 1. 0 0.45(3) 
O11 O2- 1 a 0.2747(39) 0.4706(35) -.2091(39) 1. 0 0.45(3) 
O12 O2- 1 a 0.5778(43) 0.3420(42) -.1366(42) 1. 0 0.45(3) 

#End of data_61177-ICSD


