data_200777-ICSD
#?2014 by Fachinformationszentrum Karlsruhe, and the U.S. Secretary of 
#Commerce on behalf of the United States.  All rights reserved.
_database_code_ICSD                200777
_audit_creation_date               1984/09/13
_audit_update_record               2013/02/01
_chemical_name_systematic
;
Dipotassium Tetranickel Bis(phosphate) Diphosphate
;
_chemical_formula_structural       'K2 Ni4 (P O4)2 (P2 O7)'
_chemical_formula_sum              'K2 Ni4 O15 P4'
_publ_section_title
;
Structure of crystals of the double mixed ortho-pyro-phosphate K2 Ni4 
(P O4)2 (P2 O7)
;
loop_
_citation_id
_citation_journal_abbrev
_citation_year
_citation_journal_volume
_citation_page_first
_citation_page_last
_citation_journal_id_ASTM
primary 'Doklady Akademii Nauk SSSR' 1980 250 1130 1134 DANKAS
_publ_author_name                  'Palkina, K.K.;Maksimova, S.I.'
_cell_length_a                     10.304(2)
_cell_length_b                     13.682(3)
_cell_length_c                     18.139(3)
_cell_angle_alpha                  90.
_cell_angle_beta                   102.91(2)
_cell_angle_gamma                  90.
_cell_volume                       2492.58
_cell_formula_units_Z              8
_symmetry_space_group_name_H-M     'C 1 2/c 1'
_symmetry_Int_Tables_number        15
_refine_ls_R_factor_all            .058
loop_
_symmetry_equiv_pos_site_id
_symmetry_equiv_pos_as_xyz
  1	'x, -y, z+.5'
  2	'-x, -y, -z'
  3	'-x, y, -z+.5'
  4	'x, y, z'
  5	'x+.5, -y+.5, z+.5'
  6	'-x+.5, -y+.5, -z'
  7	'-x+.5, y+.5, -z+.5'
  8	'x+.5, y+.5, z'
loop_
_atom_type_symbol
_atom_type_oxidation_number
K1+	1
Ni2+	2
O2-	-2
P5+	5
loop_
_atom_site_label
_atom_site_type_symbol
_atom_site_symmetry_multiplicity
_atom_site_Wyckoff_symbol
_atom_site_fract_x
_atom_site_fract_y
_atom_site_fract_z
_atom_site_occupancy
_atom_site_attached_hydrogens
Ni1 Ni2+ 4 e 0 0.04696(13) 0.25 1. 0 
Ni2 Ni2+ 4 e 0 -.17696(13) 0.25 1. 0 
Ni3 Ni2+ 4 c 0.25 0.25 0 1. 0 
Ni4 Ni2+ 8 f 0.40976(14) 0.32194(9) 0.43184(7) 1. 0 
Ni5 Ni2+ 8 f 0.09669(13) 0.05406(9) 0.06777(6) 1. 0 
Ni6 Ni2+ 4 e 0.5 0.03859(14) 0.25 1. 0 
K1 K1+ 8 f 0.05453(29) 0.39205(21) 0.45559(16) 1. 0 
K2 K1+ 8 f 0.15690(25) 0.25214(18) 0.20224(13) 1. 0 
P1 P5+ 8 f 0.33497(25) 0.44078(18) 0.09831(12) 1. 0 
P2 P5+ 8 f 0.15976(27) 0.15187(17) 0.40138(14) 1. 0 
P3 P5+ 8 f 0.39502(27) 0.15992(17) 0.11938(13) 1. 0 
P4 P5+ 8 f 0.28009(24) 0.43862(18) 0.32046(12) 1. 0 
O1 O2- 8 f 0.24537(69) 0.14845(45) 0.07911(35) 1. 0 
O2 O2- 8 f 0.47098(71) 0.06403(53) 0.13610(39) 1. 0 
O3 O2- 8 f 0.44529(70) 0.22261(46) 0.05947(37) 1. 0 
O4 O2- 8 f 0.44585(66) 0.43893(48) 0.05159(32) 1. 0 
O5 O2- 8 f 0.39834(75) 0.21349(58) 0.19207(38) 1. 0 
O6 O2- 8 f 0.05291(75) 0.15853(48) 0.44880(38) 1. 0 
O7 O2- 8 f 0.26789(74) 0.22310(47) 0.42910(37) 1. 0 
O8 O2- 8 f 0.35743(70) 0.34450(46) 0.31281(36) 1. 0 
O9 O2- 8 f 0.27611(64) 0.43656(46) 0.40646(33) 1. 0 
O10 O2- 8 f 0.23249(65) 0.04641(43) 0.41925(34) 1. 0 
O11 O2- 8 f 0.39642(67) 0.43637(47) 0.18251(31) 1. 0 
O12 O2- 8 f 0.22681(68) 0.36653(45) 0.07169(37) 1. 0 
O13 O2- 8 f 0.14393(68) 0.43866(50) 0.26566(35) 1. 0 
O14 O2- 8 f 0.09402(69) 0.15655(47) 0.31829(36) 1. 0 
O15 O2- 8 f 0.14048(69) 0.03303(48) 0.18460(33) 1. 0 

loop_
_atom_site_aniso_label
_atom_site_aniso_type_symbol
_atom_site_aniso_B_11
_atom_site_aniso_B_22
_atom_site_aniso_B_33
_atom_site_aniso_B_12
_atom_site_aniso_B_13
_atom_site_aniso_B_23
Ni1 Ni2+ 0.76(8) 0.54(7) 0.28(6) 0 0 0
Ni2 Ni2+ 0.85(9) 0.71(7) 0.29(6) 0 0.11(6) 0
Ni3 Ni2+ 0.65(8) 0.65(6) 0.28(6) -.08(5) -.02(5) 0.08(5)
Ni4 Ni2+ 0.58(6) 0.54(4) 0.47(4) -.01(4) 0.04(4) 0.03(4)
Ni5 Ni2+ 0.59(5) 0.56(4) 0.31(4) -.03(4) -.02(5) 0.02(4)
Ni6 Ni2+ 0.94(8) 1.18(8) 0.89(6) 0 -.12(5) 0
K1 K1+ 1.78(13) 2.90(13) 2.45(12) -.26(10) 0.27(10) 0.82(10)
K2 K1+ 1.51(11) 1.96(10) 1.30(8) -.61(8) 0.45(8) -.28(8)
P1 P5+ 0.64(10) 0.52(8) 0.29(7) -.06(6) 0.05(7) -.03(7)
P2 P5+ 0.61(14) 0.58(8) 0.31(8) -.15(7) 0.08(7) -.01(6)
P3 P5+ 0.44(10) 0.77(9) 0.34(8) -.06(7) -.05(7) 0.08(6)
P4 P5+ 0.39(9) 0.58(8) 0.40(7) 0 -.05(6) -.04(7)
O1 O2- 0.39(29) 0.80(24) 0.53(24) -.17(21) -.02(21) 0.45(19)
O2 O2- 1.17(22) 1.26(27) 1.73(28) 0.15(26) -.11(23) 0.45(25)
O3 O2- 0.89(32) 0.57(24) 0.90(26) -.42(22) 0.13(22) 0.08(20)
O4 O2- 0.87(29) 0.73(23) 0.23(21) -.06(23) 0.07(19) -.07(20)
O5 O2- 1.32(26) 2.95(36) 0.60(26) -1.01(23) 0.22(24) -.81(24)
O6 O2- 1.36(35) 0.82(26) 0.60(28) -.39(23) 0.23(24) -.39(20)
O7 O2- 1.42(34) 0.84(26) 0.79(26) -.75(23) 0.32(23) -.48(20)
O8 O2- 0.6(3) 0.93(26) 0.58(25) -.26(21) 0.38(22) 0.10(19)
O9 O2- 0.53(27) 0.46(22) 0.65(22) 0.11(22) 0.11(19) 0.1(2)
O10 O2- 0.56(26) 0.41(23) 0.95(23) -.13(10) 0.06(20) 0.07(19)
O11 O2- 1.44(30) 0.76(23) 0.10(20) 0.02(23) 0.09(19) -.09(19)
O12 O2- 0.16(29) 0.83(25) 0.82(25) -.26(20) -.03(21) -.09(19)
O13 O2- 0.76(28) 1.26(28) 0.99(20) 0.09(26) -.4(2) -.20(23)
O14 O2- 0.72(31) 0.95(25) 0.59(25) -.19(21) 0.13(22) -.02(19)
O15 O2- 1.31(31) 0.65(24) 0.27(22) 0.13(22) 0.17(21) 0.01(18)
#End of data_200777-ICSD


