data_185704-ICSD
#?2014 by Fachinformationszentrum Karlsruhe, and the U.S. Secretary of 
#Commerce on behalf of the United States.  All rights reserved.
_database_code_ICSD                185704
_audit_creation_date               2013/02/01
_chemical_name_systematic          'Lithium Aluminium Digermanate'
_chemical_formula_structural       'Li Al (Ge2 O6)'
_chemical_formula_sum              'Al1 Ge2 Li1 O6'
_chemical_name_mineral             Unnamed_Pyroxene
_publ_section_title
;
Synthetic Li Al Ge 2O6: the first pyroxene with P21/n symmetry
;
loop_
_citation_id
_citation_journal_abbrev
_citation_year
_citation_journal_volume
_citation_journal_issue
_citation_page_first
_citation_page_last
_citation_journal_id_ASTM
primary 'American Mineralogist' 2012 97 7 1213 1218 AMMIAY
_publ_author_name
;
Redhammer, G.J.;Nestola, F.;Miletich, R.
;
_cell_length_a                     9.8976(1)
_cell_length_b                     8.3985(1)
_cell_length_c                     5.4020(1)
_cell_angle_alpha                  90
_cell_angle_beta                   110.640(1)
_cell_angle_gamma                  90
_cell_volume                       420.22
_cell_formula_units_Z              4
_symmetry_space_group_name_H-M     'P 1 21/n 1'
_symmetry_Int_Tables_number        14
_refine_ls_R_factor_all            .0169
loop_
_symmetry_equiv_pos_site_id
_symmetry_equiv_pos_as_xyz
  1	'-x+.5, y+.5, -z+.5'
  2	'-x, -y, -z'
  3	'x+.5, -y+.5, z+.5'
  4	'x, y, z'
loop_
_atom_type_symbol
_atom_type_oxidation_number
Al3+	3
Ge4+	4
Li1+	1
O2-	-2
loop_
_atom_site_label
_atom_site_type_symbol
_atom_site_symmetry_multiplicity
_atom_site_Wyckoff_symbol
_atom_site_fract_x
_atom_site_fract_y
_atom_site_fract_z
_atom_site_occupancy
_atom_site_attached_hydrogens
_atom_site_U_iso_or_equiv
Li1 Li1+ 4 e 0.5056(3) 0.28360(4) 0.8004(4) 1. 0 0.0184(5) 
Al1 Al3+ 4 e 0.49529(3) 0.08628(4) 0.24665(6) 1. 0 0.00362(6) 
Ge1 Ge4+ 4 e 0.29277(1) 0.58271(2) 0.72804(2) 1. 0 0.00613(4) 
Ge2 Ge4+ 4 e 0.28073(1) 0.38659(2) 0.22894(2) 1. 0 0.00542(4) 
O1 O2- 4 e 0.10458(9) 0.5728(1) 0.6467(2) 1. 0 0.0068(1) 
O2 O2- 4 e 0.36069(9) 0.5071(1) 0.0582(2) 1. 0 0.0095(1) 
O3 O2- 4 e 0.3878(1) 0.7576(1) 0.7990(2) 1. 0 0.0099(1) 
O4 O2- 4 e 0.3578(1) 0.4352(1) 0.5659(2) 1. 0 0.0086(1) 
O5 O2- 4 e 0.09151(9) 0.4022(1) 0.1277(2) 1. 0 0.0063(1) 
O6 O2- 4 e 0.3267(1) 0.1898(1) 0.2151(2) 1. 0 0.0101(1) 

loop_
_atom_site_aniso_label
_atom_site_aniso_type_symbol
_atom_site_aniso_U_11
_atom_site_aniso_U_22
_atom_site_aniso_U_33
_atom_site_aniso_U_12
_atom_site_aniso_U_13
_atom_site_aniso_U_23
Li1 Li1+ 0.017(1) 0.018(1) 0.017(1) 0.0022(9) 0.0025(9) 0.0025(9)
Al1 Al3+ 0.0033(1) 0.0030(1) 0.0047(1) 0.0001(1) 0.0016(1) -0.00001(9)
Ge1 Ge4+ 0.00544(5) 0.00537(6) 0.00820(6) -0.00142(3) 0.00320(4) 
-0.00149(3)
Ge2 Ge4+ 0.00509(5) 0.00531(6) 0.00609(6) 0.00069(3) 0.00225(4) 0.00002(3)
O1 O2- 0.0048(3) 0.0073(3) 0.0080(3) -0.0003(2) 0.0018(2) 0.0006(2)
O2 O2- 0.0082(3) 0.0119(4) 0.0082(3) -0.0025(3) 0.0028(3) 0.0021(3)
O3 O2- 0.0114(3) 0.0071(3) 0.0116(3) -0.0049(3) 0.0045(3) -0.0009(3)
O4 O2- 0.0090(3) 0.0100(3) 0.0061(3) 0.0029(3) 0.0018(3) -0.0014(2)
O5 O2- 0.0051(3) 0.0065(3) 0.0070(3) 0.0006(2) 0.0018(2) -0.0001(2)
O6 O2- 0.0090(3) 0.0058(3) 0.0171(4) 0.0025(3) 0.0065(3) 0.0001(3)
#End of data_185704-ICSD


