data_413443-ICSD
#?2014 by Fachinformationszentrum Karlsruhe, and the U.S. Secretary of 
#Commerce on behalf of the United States.  All rights reserved.
_database_code_ICSD                413443
_audit_creation_date               2005/10/01
_chemical_name_systematic          'Potassium Permanganate'
_chemical_formula_structural       'K Mn O4'
_chemical_formula_sum              'K1 Mn1 O4'
_publ_section_title
;
An experimental (120 K) and theoretical electron-density study of 
KMnO4 and KClO4
;
loop_
_citation_id
_citation_journal_abbrev
_citation_year
_citation_journal_volume
_citation_page_first
_citation_page_last
_citation_journal_id_ASTM
primary 'Acta Crystallographica. Section A: Foundations of Crystallography'
 2004 60 494 501 ACACEQ
_publ_author_name
;
Marabello, D.;Bianchi, R.;Gervasio, G.;Cargnoni, F.
;
_cell_length_a                     9.0509(7)
_cell_length_b                     5.6381(4)
_cell_length_c                     7.3582(5)
_cell_angle_alpha                  90.00
_cell_angle_beta                   90.00
_cell_angle_gamma                  90.00
_cell_volume                       375.49
_cell_formula_units_Z              4
_symmetry_space_group_name_H-M     'P n m a'
_symmetry_Int_Tables_number        62
_refine_ls_R_factor_all            .0194
loop_
_symmetry_equiv_pos_site_id
_symmetry_equiv_pos_as_xyz
  1	'x+.5, y, -z+.5'
  2	'x, -y+.5, z'
  3	'-x+.5, y+.5, z+.5'
  4	'-x, -y, -z'
  5	'-x+.5, -y, z+.5'
  6	'-x, y+.5, -z'
  7	'x+.5, -y+.5, -z+.5'
  8	'x, y, z'
loop_
_atom_type_symbol
_atom_type_oxidation_number
K1+	1
Mn7+	7
O2-	-2
loop_
_atom_site_label
_atom_site_type_symbol
_atom_site_symmetry_multiplicity
_atom_site_Wyckoff_symbol
_atom_site_fract_x
_atom_site_fract_y
_atom_site_fract_z
_atom_site_occupancy
_atom_site_attached_hydrogens
K1 K1+ 4 c 0.31877 0.250000 0.65798 1.0 0 
Mn1 Mn7+ 4 c 0.43748 0.250000 0.19264 1.0 0 
O1 O2- 4 c 0.3107 0.250000 0.0385 1.0 0 
O2 O2- 4 c 0.5998 0.250000 0.1022 1.0 0 
O3 O2- 8 d 0.41857 0.0164 0.3186 1.0 0 

loop_
_atom_site_aniso_label
_atom_site_aniso_type_symbol
_atom_site_aniso_U_11
_atom_site_aniso_U_22
_atom_site_aniso_U_33
_atom_site_aniso_U_12
_atom_site_aniso_U_13
_atom_site_aniso_U_23
K1 K1+ 0.01121 0.02346 0.01366 0.00000 -0.00015 0.00000
Mn1 Mn7+ 0.01008 0.01238 0.00980 0.00000 0.00009 0.00000
O1 O2- 0.0254 0.0277 0.0159 0.00000 -0.0110 0.00000
O2 O2- 0.0174 0.0365 0.0289 0.00000 0.0124 0.00000
O3 O2- 0.0191 0.0133 0.0196 -0.0004 -0.0019 -0.0050
#End of data_413443-ICSD


