data_245414-ICSD
#?2014 by Fachinformationszentrum Karlsruhe, and the U.S. Secretary of 
#Commerce on behalf of the United States.  All rights reserved.
_database_code_ICSD                245414
_audit_creation_date               2008/02/01
_chemical_name_systematic          'Tetrasodium Tetraoxocarbonate'
_chemical_formula_structural       'Na4 (C O4)'
_chemical_formula_sum              'C1 Na4 O4'
_publ_section_title
;
Possible existence of alkali metal orthocarbonates at high pressure
;
loop_
_citation_id
_citation_journal_abbrev
_citation_year
_citation_journal_volume
_citation_journal_issue
_citation_page_first
_citation_page_last
_citation_journal_id_ASTM
primary 'Chemistry - A European Journal' 2007 13 26 7330 7348 CEUJED
_publ_author_name
;
Cancarevic, Z.;Schoen, J.C.;Jansen, M.
;
_cell_length_a                     6.09363
_cell_length_b                     6.45189
_cell_length_c                     4.45444
_cell_angle_alpha                  90
_cell_angle_beta                   105.32930
_cell_angle_gamma                  90
_cell_volume                       168.9
_cell_formula_units_Z              2
_symmetry_space_group_name_H-M     'C 1 m 1'
_symmetry_Int_Tables_number        8
loop_
_symmetry_equiv_pos_site_id
_symmetry_equiv_pos_as_xyz
  1	'x, -y, z'
  2	'x, y, z'
  3	'x+.5, -y+.5, z'
  4	'x+.5, y+.5, z'
loop_
_atom_type_symbol
_atom_type_oxidation_number
C4+	4
Na1+	1
O2-	-2
loop_
_atom_site_label
_atom_site_type_symbol
_atom_site_symmetry_multiplicity
_atom_site_Wyckoff_symbol
_atom_site_fract_x
_atom_site_fract_y
_atom_site_fract_z
_atom_site_occupancy
_atom_site_attached_hydrogens
C1 C4+ 2 a 0.89377 0 0.56075 1. 0 
O1 O2- 4 b 0.95928 0.19190 0.76476 1. 0 
O2 O2- 2 a 0.02309 0 0.31257 1. 0 
O3 O2- 2 a 0.63709 0 0.41246 1. 0 
Na1 Na1+ 2 a 0.27477 0 0.77034 1. 0 
Na2 Na1+ 2 a 0.69896 0 0.92846 1. 0 
Na3 Na1+ 4 b 0.80296 0.71462 0.26562 1. 0 

#End of data_245414-ICSD


