data_133-ICSD
#?2014 by Fachinformationszentrum Karlsruhe, and the U.S. Secretary of 
#Commerce on behalf of the United States.  All rights reserved.
_database_code_ICSD                133
_audit_creation_date               1980/01/01
_audit_update_record               2012/02/01
_chemical_name_systematic
;
Calcium Bis(dihydrogenphosphate(V)) Hydrate
;
_chemical_formula_structural       'Ca (H2 P O4)2 (H2 O)'
_chemical_formula_sum              'H6 Ca1 O9 P2'
_publ_section_title
;
Hydrogen bonding in Ca (H2 P O4)2 (H2 O) as determined by neutron 
diffraction
;
loop_
_citation_id
_citation_journal_abbrev
_citation_year
_citation_journal_volume
_citation_page_first
_citation_page_last
_citation_journal_id_ASTM
primary 'Acta Crystallographica B (24,1968-38,1982)' 1975 31 9 12 ACBCAR
_publ_author_name
;
Schroeder, L.W.;Prince, E.;Dickens, B.
;
_cell_length_a                     5.6261(5)
_cell_length_b                     11.889(2)
_cell_length_c                     6.473(8)
_cell_angle_alpha                  98.633(6)
_cell_angle_beta                   118.2(6)
_cell_angle_gamma                  83.344(6)
_cell_volume                       376.75
_cell_formula_units_Z              2
_symmetry_space_group_name_H-M     'P -1'
_symmetry_Int_Tables_number        2
_refine_ls_R_factor_all            .055
loop_
_symmetry_equiv_pos_site_id
_symmetry_equiv_pos_as_xyz
  1	'-x, -y, -z'
  2	'x, y, z'
loop_
_atom_type_symbol
_atom_type_oxidation_number
Ca2+	2
H1+	1
O2-	-2
P5+	5
loop_
_atom_site_label
_atom_site_type_symbol
_atom_site_symmetry_multiplicity
_atom_site_Wyckoff_symbol
_atom_site_fract_x
_atom_site_fract_y
_atom_site_fract_z
_atom_site_occupancy
_atom_site_attached_hydrogens
Ca1 Ca2+ 2 i 0.7333(4) 0.1028(2) 0.7728(3) 1. 0 
P1 P5+ 2 i 0.7458(4) 0.0975(2) 0.2769(3) 1. 0 
P2 P5+ 2 i 0.3486(4) 0.3726(2) 0.6129(3) 1. 0 
O1 O2- 2 i 0.5814(4) 0.0332(2) 0.3406(3) 1. 0 
O2 O2- 2 i 0.9166(4) 0.0338(2) 0.1730(3) 1. 0 
O3 O2- 2 i 0.9212(4) 0.1722(2) 0.5149(3) 1. 0 
O4 O2- 2 i 0.5646(4) 0.1809(2) 0.0863(3) 1. 0 
O5 O2- 2 i 0.3803(4) 0.2455(2) 0.6029(3) 1. 0 
O6 O2- 2 i 0.1903(5) 0.4130(2) 0.7590(4) 1. 0 
O7 O2- 2 i 0.6349(4) 0.4213(2) 0.7571(4) 1. 0 
O8 O2- 2 i 0.1990(4) 0.4188(2) 0.3759(3) 1. 0 
O9 O2- 2 i 0.0625(4) 0.2525(2) -.0031(3) 1. 0 
H1 H1+ 2 i 0.1023(7) 0.1955(3) 0.5408(6) 1. 0 
H2 H1+ 2 i 0.3814(7) 0.2051(3) 0.0657(6) 1. 0 
H3 H1+ 2 i 0.0702(10) 0.4817(4) 0.7140(8) 1. 0 
H4 H1+ 2 i 0.6745(8) 0.4874(3) 0.7047(7) 1. 0 
H5 H1+ 2 i 0.0855(9) 0.3021(4) 0.1390(7) 1. 0 
H6 H1+ 2 i 0.0285(10) 0.3064(4) 0.8878(8) 1. 0 

loop_
_atom_site_aniso_label
_atom_site_aniso_type_symbol
_atom_site_aniso_U_11
_atom_site_aniso_U_22
_atom_site_aniso_U_33
_atom_site_aniso_U_12
_atom_site_aniso_U_13
_atom_site_aniso_U_23
Ca1 Ca2+ 0.0114 0.0157 0.013 -.0023 0.0051 0.0018
P1 P5+ 0.0108 0.014 0.013 -.0003 0.006 0.0025
P2 P5+ 0.0159 0.0116 0.0193 -.0004 0.0073 0.0042
O1 O2- 0.0166 0.0203 0.0181 -.0073 0.009 0.0006
O2 O2- 0.0162 0.0214 0.0184 0.0027 0.0113 0.0036
O3 O2- 0.018 0.0242 0.0191 -.0099 0.0104 -.0048
O4 O2- 0.0177 0.0286 0.0245 0.0064 0.0124 0.013
O5 O2- 0.0178 0.0128 0.026 -.001 0.0083 0.0044
O6 O2- 0.0401 0.0267 0.0346 0.0105 0.0264 0.0101
O7 O2- 0.0228 0.0292 0.0354 -.0104 -.0003 0.014
O8 O2- 0.0212 0.0185 0.0226 0.0008 0.0008 0.0007
O9 O2- 0.02 0.0205 0.0218 -.003 0.0083 0.0004
H1 H1+ 0.023 0.03 0.032 -.008 0.01 0.006
H2 H1+ 0.022 0.034 0.038 0.008 0.013 0.01
H3 H1+ 0.058 0.035 0.057 0.012 0.04 0.011
H4 H1+ 0.033 0.032 0.046 -.01 0.012 0.007
H5 H1+ 0.045 0.042 0.036 -.003 0.019 -.006
H6 H1+ 0.06 0.037 0.042 -.004 0.015 0.012
#End of data_133-ICSD


