data_280212-ICSD
#?2014 by Fachinformationszentrum Karlsruhe, and the U.S. Secretary of 
#Commerce on behalf of the United States.  All rights reserved.
_database_code_ICSD                280212
_audit_creation_date               2002/04/01
_chemical_name_systematic
;
Trithallium Tecto-dialumotriphosphate(V)
;
_chemical_formula_structural       'Tl3 (Al2 P3 O12)'
_chemical_formula_sum              'Al2 O12 P3 Tl3'
_publ_section_title
;
Solid-state synthesis and characterization of novel 
aluminophosphates, A3 Al2 P3 O12 (A= Na, K, Rb, Tl): Influence of 
A+ions on the coordination of aluminium
;
loop_
_citation_id
_citation_journal_abbrev
_citation_year
_citation_journal_volume
_citation_page_first
_citation_page_last
_citation_journal_id_ASTM
primary 'Inorganic Chemistry' 2000 39 2391 2396 INOCAJ
_publ_author_name                  'Nandini Devi, R.;Vidyasagar, K.'
_cell_length_a                     6.1478(15)
_cell_length_b                     10.396(3)
_cell_length_c                     17.7870(50)
_cell_angle_alpha                  90.
_cell_angle_beta                   90.
_cell_angle_gamma                  90.
_cell_volume                       1136.81
_cell_formula_units_Z              4
_symmetry_space_group_name_H-M     'P n a 21'
_symmetry_Int_Tables_number        33
_refine_ls_R_factor_all            .0545
loop_
_symmetry_equiv_pos_site_id
_symmetry_equiv_pos_as_xyz
  1	'x+.5, -y+.5, z'
  2	'-x+.5, y+.5, z+.5'
  3	'-x, -y, z+.5'
  4	'x, y, z'
loop_
_atom_type_symbol
_atom_type_oxidation_number
Al3+	3
O2-	-2
P5+	5
Tl1+	1
loop_
_atom_site_label
_atom_site_type_symbol
_atom_site_symmetry_multiplicity
_atom_site_Wyckoff_symbol
_atom_site_fract_x
_atom_site_fract_y
_atom_site_fract_z
_atom_site_occupancy
_atom_site_attached_hydrogens
_atom_site_U_iso_or_equiv
Tl1 Tl1+ 4 a 0.2357(2) 0.35779(6) 0.1192(2) 1. 0 0 
Tl2 Tl1+ 4 a 0.2584(5) 0.1654(2) 0.72898(4) 1. 0 0 
Tl3 Tl1+ 4 a 0.2616(5) 0.1601(2) 0.51176(4) 1. 0 0 
P1 P5+ 4 a 0.2609(8) 0.4915(4) 0.6215(10) 1. 0 0.0187(8) 
P2 P5+ 4 a 0.2483(27) 0.3725(11) 0.3302(7) 1. 0 0 
P3 P5+ 4 a 0.2495(19) 0.3707(9) 0.9123(5) 1. 0 0.007(2) 
Al1 Al3+ 4 a 0.2538(25) 0.0837(10) 0.2917(7) 1. 0 0.018(3) 
Al2 Al3+ 4 a 0.2576(23) 0.0805(10) 0.9582(7) 1. 0 0 
O1 O2- 4 a 0.0547(21) 0.4134(13) 0.6180(23) 1. 0 0.042(4) 
O2 O2- 4 a 0.4712(21) 0.4122(14) 0.6273(26) 1. 0 0.041(4) 
O3 O2- 4 a 0.2330(42) 0.0852(23) 0.1890(18) 1. 0 0.017(6) 
O4 O2- 4 a 0.2522(53) 0.0765(30) 0.0554(19) 1. 0 0 
O5 O2- 4 a 0.0658(47) 0.4078(26) 0.2789(15) 1. 0 0.025(6) 
O6 O2- 4 a 0.4494(42) 0.4269(23) 0.2948(13) 1. 0 0.013(4) 
O7 O2- 4 a 0.2469(44) 0.2267(18) 0.3406(12) 1. 0 0.020(5) 
O8 O2- 4 a 0.2026(36) 0.4326(20) 0.4064(13) 1. 0 0.019(7) 
O9 O2- 4 a 0.2287(43) 0.4237(21) 0.8331(14) 1. 0 0.023(6) 
O10 O2- 4 a 0.2711(37) 0.2266(18) 0.8976(13) 1. 0 0.020(5) 
O11 O2- 4 a 0.0593(46) 0.4104(26) 0.9630(15) 1. 0 0.026(6) 
O12 O2- 4 a 0.4592(54) 0.4185(33) 0.9523(18) 1. 0 0 

loop_
_atom_site_aniso_label
_atom_site_aniso_type_symbol
_atom_site_aniso_U_11
_atom_site_aniso_U_22
_atom_site_aniso_U_33
_atom_site_aniso_U_12
_atom_site_aniso_U_13
_atom_site_aniso_U_23
Tl1 Tl1+ 0.0357(5) 0.0269(4) 0.0386(5) 0.0019(5) 0.0067(15) 0.0006(13)
Tl2 Tl1+ 0.042(2) 0.0359(10) 0.0306(11) 0.0013(12) -.0038(10) -.0106(8)
Tl3 Tl1+ 0.0404(15) 0.0282(9) 0.0327(10) -.0002(11) -.0048(9) 0.0007(8)
P2 P5+ 0.041(4) 0.015(3) 0.041(5) 0.000(4) -.002(4) 0.003(3)
Al2 Al3+ 0.022(4) 0.024(4) 0.010(3) 0.000(4) -.011(4) 0.006(2)
O4 O2- 0.042(13) 0.043(13) 0.021(9) -.004(11) 0.001(9) -.005(8)
O12 O2- 0.027(12) 0.045(13) 0.045(12) 0.005(9) -.003(9) 0.001(10)
#End of data_280212-ICSD


