data_261500-ICSD
#?2014 by Fachinformationszentrum Karlsruhe, and the U.S. Secretary of 
#Commerce on behalf of the United States.  All rights reserved.
_database_code_ICSD                261500
_audit_creation_date               2011/08/01
_audit_update_record               2013/08/01
_chemical_name_systematic
;
Potassium Copper Iron Bis(phosphate(V))
;
_chemical_formula_structural       'K Cu Fe (P O4)2'
_chemical_formula_sum              'Cu1 Fe1 K1 O8 P2'
_publ_section_title
;
Structural study and physical properties of a new phosphate K Cu Fe 
(P O4)2
;
loop_
_citation_id
_citation_journal_abbrev
_citation_year
_citation_journal_volume
_citation_journal_issue
_citation_page_first
_citation_page_last
_citation_journal_id_ASTM
primary 'Journal of Solid State Chemistry' 2011 184 4 937 944 JSSCBI
_publ_author_name
;
Badri, A.;Hidouri, M.;Lopez, M.L.;Pico, C.;Wattiaux, A.;Ben Amara, M.
;
_cell_length_a                     7.958(3)
_cell_length_b                     9.931(2)
_cell_length_c                     9.039(2)
_cell_angle_alpha                  90
_cell_angle_beta                   115.59(3)
_cell_angle_gamma                  90
_cell_volume                       644.29
_cell_formula_units_Z              4
_symmetry_space_group_name_H-M     'P 1 21/n 1'
_symmetry_Int_Tables_number        14
_refine_ls_R_factor_all            .028
loop_
_symmetry_equiv_pos_site_id
_symmetry_equiv_pos_as_xyz
  1	'-x+.5, y+.5, -z+.5'
  2	'-x, -y, -z'
  3	'x+.5, -y+.5, z+.5'
  4	'x, y, z'
loop_
_atom_type_symbol
_atom_type_oxidation_number
Cu2+	2
Fe3+	3
K1+	1
O2-	-2
P5+	5
loop_
_atom_site_label
_atom_site_type_symbol
_atom_site_symmetry_multiplicity
_atom_site_Wyckoff_symbol
_atom_site_fract_x
_atom_site_fract_y
_atom_site_fract_z
_atom_site_occupancy
_atom_site_attached_hydrogens
_atom_site_U_iso_or_equiv
K1 K1+ 4 e 0.4179(2) -0.1333(1) 0.0748(1) 1. 0 0.0239(2) 
Cu1 Cu2+ 4 e 0.3695(1) 0.1201(2) -0.5532(1) 1. 0 0.0077(2) 
Fe1 Fe3+ 4 e 0.0143(1) 0.1253(1) -0.2573(1) 1. 0 0.0051(2) 
P1 P5+ 4 e 0.1281(1) 0.1594(1) -0.8587(1) 1. 0 0.0050(2) 
O1 O2- 4 e 0.4496(2) 0.2635(2) -0.3942(2) 1. 0 0.0097(3) 
O2 O2- 4 e 0.3000(2) 0.2464(2) -0.7429(2) 1. 0 0.0075(3) 
O3 O2- 4 e 0.1483(2) 0.0375(2) -0.7424(2) 1. 0 0.0083(3) 
O4 O2- 4 e 0.1426(3) 0.1141(2) -0.0127(2) 1. 0 0.0096(3) 
P2 P5+ 4 e 0.2677(2) -0.0886(1) -0.3511(1) 1. 0 0.0047(2) 
O5 O2- 4 e 0.0970(3) -0.1312(2) -0.5042(2) 1. 0 0.0100(3) 
O6 O2- 4 e 0.3580(3) -0.2084(2) -0.2403(2) 1. 0 0.0090(3) 
O7 O2- 4 e 0.2221(2) 0.0137(2) -0.2469(2) 1. 0 0.0092(3) 
O8 O2- 4 e 0.4148(3) -0.0236(2) -0.3993(2) 1. 0 0.0090(3) 

#End of data_261500-ICSD


