data_173993-ICSD
#?2014 by Fachinformationszentrum Karlsruhe, and the U.S. Secretary of 
#Commerce on behalf of the United States.  All rights reserved.
_database_code_ICSD                173993
_audit_creation_date               2010/02/01
_chemical_name_systematic          'Lithium Oxalate'
_chemical_formula_structural       'Li2 (C2 O4)'
_chemical_formula_sum              'C2 Li2 O4'
_publ_section_title                'The structure of lithium oxalate'
loop_
_citation_id
_citation_journal_abbrev
_citation_year
_citation_journal_volume
_citation_journal_issue
_citation_page_first
_citation_page_last
_citation_journal_id_ASTM
primary 'Acta Crystallographica (1,1948-23,1967)' 1964 17 92 783 788 ACCRA9
_publ_author_name                  'Beagley, B.;Small, R.W.H.'
_cell_length_a                     3.400(1)
_cell_length_b                     5.156(2)
_cell_length_c                     9.055(3)
_cell_angle_alpha                  90
_cell_angle_beta                   95.36(1)
_cell_angle_gamma                  90
_cell_volume                       158.04
_cell_formula_units_Z              2
_symmetry_space_group_name_H-M     'P 1 21/n 1'
_symmetry_Int_Tables_number        14
loop_
_symmetry_equiv_pos_site_id
_symmetry_equiv_pos_as_xyz
  1	'-x+.5, y+.5, -z+.5'
  2	'-x, -y, -z'
  3	'x+.5, -y+.5, z+.5'
  4	'x, y, z'
loop_
_atom_type_symbol
_atom_type_oxidation_number
C3+	3
Li1+	1
O2-	-2
loop_
_atom_site_label
_atom_site_type_symbol
_atom_site_symmetry_multiplicity
_atom_site_Wyckoff_symbol
_atom_site_fract_x
_atom_site_fract_y
_atom_site_fract_z
_atom_site_occupancy
_atom_site_attached_hydrogens
C1 C3+ 4 e 0.10582 0.13418 0.00738 1. 0 
O1 O2- 4 e 0.13313 0.23698 0.13379 1. 0 
O2 O2- 4 e 0.23847 0.22028 -0.10649 1. 0 
Li1 Li1+ 4 e -0.05670 -0.01344 0.29179 1. 0 

#End of data_173993-ICSD


