data_35659-ICSD
#?2014 by Fachinformationszentrum Karlsruhe, and the U.S. Secretary of 
#Commerce on behalf of the United States.  All rights reserved.
_database_code_ICSD                35659
_audit_creation_date               1983/12/31
_audit_update_record               2003/10/01
_chemical_name_systematic          'Dirubidium Tetrachlorozincate - Lt'
_chemical_formula_structural       'Rb2 (Zn Cl4)'
_chemical_formula_sum              'Cl4 Rb2 Zn1'
_publ_section_title
;
Neutron Structural Study of the Successive Phase Transitions in Rb2 
Zn Cl4
;
loop_
_citation_id
_citation_journal_abbrev
_citation_year
_citation_journal_volume
_citation_page_first
_citation_page_last
_citation_journal_id_ASTM
primary 'Acta Crystallographica, Section B: Structural Science'
 1983 39 657 663 ASBSDK
2 'Phase Transition' 1992 38 127 220 PHTRDP
_publ_author_name                  'Quilichini, M.;Pannetier, J.'
_cell_length_a                     27.439(9)
_cell_length_b                     12.542(4)
_cell_length_c                     7.201(3)
_cell_angle_alpha                  90.
_cell_angle_beta                   90.
_cell_angle_gamma                  90.
_cell_volume                       2478.15
_cell_formula_units_Z              12
_symmetry_space_group_name_H-M     'P n a 21'
_symmetry_Int_Tables_number        33
_refine_ls_R_factor_all            .025
loop_
_symmetry_equiv_pos_site_id
_symmetry_equiv_pos_as_xyz
  1	'x+.5, -y+.5, z'
  2	'-x+.5, y+.5, z+.5'
  3	'-x, -y, z+.5'
  4	'x, y, z'
loop_
_atom_type_symbol
_atom_type_oxidation_number
Cl1-	-1
Rb1+	1
Zn2+	2
loop_
_atom_site_label
_atom_site_type_symbol
_atom_site_symmetry_multiplicity
_atom_site_Wyckoff_symbol
_atom_site_fract_x
_atom_site_fract_y
_atom_site_fract_z
_atom_site_occupancy
_atom_site_attached_hydrogens
Rb1 Rb1+ 4 a 0.2085(1) 0.4041(3) 0.2422(5) 1. 0 
Rb2 Rb1+ 4 a 0.0423(1) 0.0910(2) 0.2802(5) 1. 0 
Rb3 Rb1+ 4 a 0.3769(1) 0.0978(3) 0.2640(5) 1. 0 
Rb4 Rb1+ 4 a 0.1637(1) 0.8191(2) 0.2418(5) 1. 0 
Rb5 Rb1+ 4 a 0.3292(1) 0.6809(2) 0.2483(4) 1. 0 
Rb6 Rb1+ 4 a 0.4961(1) 0.8177(2) 0.2820(5) 1. 0 
Zn1 Zn2+ 4 a 0.0735(1) 0.4219(2) 0.25 1. 0 
Zn2 Zn2+ 4 a 0.2415(1) 0.0794(2) 0.2538(3) 1. 0 
Zn3 Zn2+ 4 a 0.4068(1) 0.4208(2) 0.2696(3) 1. 0 
Cl1 Cl1- 4 a 0.1603(1) 0.0800(2) 0.2801(4) 1. 0 
Cl2 Cl1- 4 a 0.3257(1) 0.4203(2) 0.2932(4) 1. 0 
Cl3 Cl1- 4 a 0.4929(1) 0.0724(1) 0.2015(4) 1. 0 
Cl4 Cl1- 4 a 0.1089(1) 0.5821(1) 0.3032(4) 1. 0 
Cl5 Cl1- 4 a 0.2755(1) 0.9185(2) 0.1973(4) 1. 0 
Cl6 Cl1- 4 a 0.4411(1) 0.5824(1) 0.3075(4) 1. 0 
Cl7 Cl1- 4 a 0.1100(1) 0.3623(1) 0.9861(4) 1. 0 
Cl8 Cl1- 4 a 0.2652(1) 0.1934(1) 0.0308(4) 1. 0 
Cl9 Cl1- 4 a 0.4344(1) 0.3581(1) 0.9970(4) 1. 0 
Cl10 Cl1- 4 a 0.0620(1) 0.8125(1) 0.9909(4) 1. 0 
Cl11 Cl1- 4 a 0.2249(1) 0.6341(1) 0.0249(4) 1. 0 
Cl12 Cl1- 4 a 0.4061(1) 0.8113(1) 0.9812(4) 1. 0 

loop_
_atom_site_aniso_label
_atom_site_aniso_type_symbol
_atom_site_aniso_U_11
_atom_site_aniso_U_22
_atom_site_aniso_U_33
_atom_site_aniso_U_12
_atom_site_aniso_U_13
_atom_site_aniso_U_23
Rb1 Rb1+ 0.0054(13) 0.0286(19) 0.0245(14) 0.0061(11) -0.0014(9) -0.0022(12)
Rb2 Rb1+ 0.0083(11) 0.0233(15) 0.0266(12) -0.0015(12) 0.0004(11) 
-0.0003(10)
Rb3 Rb1+ 0.0096(12) 0.0334(19) 0.0225(14) -0.0022(12) 0.002(1) -0.0010(12)
Rb4 Rb1+ 0.008(1) 0.0120(16) 0.0230(14) 0.0014(10) -0.0018(9) 0.0007(10)
Rb5 Rb1+ 0.0078(10) 0.0081(14) 0.0164(12) 0.0005(9) -0.0006(9) 0.0011(9)
Rb6 Rb1+ 0.0085(10) 0.0084(11) 0.0107(10) -0.0033(10) 0.0012(10) 0.0002(9)
Zn1 Zn2+ 0.0049(13) 0.0087(16) 0.0077(13) -0.0012(12) 0.0004(10) 
-0.0009(11)
Zn2 Zn2+ 0.0085(12) 0.0085(16) 0.0074(13) -0.0013(12) 0.0007(10) 
-0.0004(11)
Zn3 Zn2+ 0.0050(12) 0.0074(16) 0.0087(13) 0.0002(13) -0.0005(10) 
-0.0007(11)
Cl1 Cl1- 0.0052(7) 0.0142(10) 0.0315(9) -0.0073(8) 0.0009(7) 0.0013(6)
Cl2 Cl1- 0.0057(7) 0.0146(10) 0.0367(9) 0.0053(9) -0.0015(8) -0.0007(7)
Cl3 Cl1- 0.0079(7) 0.0104(9) 0.0141(7) 0.0034(8) -0.0002(7) 0.0010(6)
Cl4 Cl1- 0.0079(7) 0.0107(9) 0.0282(9) -0.0049(9) 0.0000(8) -0.0030(7)
Cl5 Cl1- 0.0085(9) 0.012(1) 0.0333(10) -0.0066(10) -0.0026(8) 0.0031(8)
Cl6 Cl1- 0.0116(8) 0.0083(9) 0.0404(11) -0.0019(10) -0.0018(8) -0.0029(7)
Cl7 Cl1- 0.0108(7) 0.0237(9) 0.0087(7) -0.0052(8) -0.0001(7) 0.0055(7)
Cl8 Cl1- 0.0163(8) 0.0280(9) 0.0130(9) 0.0083(9) 0.0007(8) -0.0036(8)
Cl9 Cl1- 0.0237(8) 0.0304(10) 0.0101(8) -0.0066(8) -0.011(7) 0.0145(7)
Cl10 Cl1- 0.0125(7) 0.0312(10) 0.0142(8) 0.0129(9) -0.0027(7) -0.0094(7)
Cl11 Cl1- 0.0115(7) 0.0219(8) 0.0088(8) -0.0025(8) 0.0006(7) 0.0049(7)
Cl12 Cl1- 0.0180(8) 0.0195(9) 0.0114(8) 0.0059(8) -0.0028(7) -0.0076(7)
#End of data_35659-ICSD


