data_280059-ICSD
#?2014 by Fachinformationszentrum Karlsruhe, and the U.S. Secretary of 
#Commerce on behalf of the United States.  All rights reserved.
_database_code_ICSD                280059
_audit_creation_date               2000/07/15
_chemical_name_systematic
;
Potassium Dicopper Vanadium Selenide
;
_chemical_formula_structural       'K Cu2 V Se4'
_chemical_formula_sum              'Cu2 K1 Se4 V1'
_publ_section_title                'K Cu2 V Se4'
loop_
_citation_id
_citation_journal_abbrev
_citation_year
_citation_journal_volume
_citation_page_first
_citation_page_last
_citation_journal_id_ASTM
primary 'Acta Crystallographica, Section C: Crystal Structure Communications'
 1999 55 1959 1961 ACSCEE
_publ_author_name
;
Tillinski, R.;Naether, C.;Bensch, W.
;
_cell_length_a                     7.5803(8)
_cell_length_b                     18.4838(12)
_cell_length_c                     5.5653(5)
_cell_angle_alpha                  90.
_cell_angle_beta                   90.
_cell_angle_gamma                  90.
_cell_volume                       779.77
_cell_formula_units_Z              4
_symmetry_space_group_name_H-M     'A m a 2'
_symmetry_Int_Tables_number        40
_refine_ls_R_factor_all            .029
loop_
_symmetry_equiv_pos_site_id
_symmetry_equiv_pos_as_xyz
  1	'x+.5, -y, z'
  2	'-x+.5, y, z'
  3	'-x, -y, z'
  4	'x, y, z'
  5	'x+.5, -y+.5, z+.5'
  6	'-x+.5, y+.5, z+.5'
  7	'-x, -y+.5, z+.5'
  8	'x, y+.5, z+.5'
loop_
_atom_type_symbol
_atom_type_oxidation_number
Cu2+	2
K1+	1
Se2-	-2
V3+	3
loop_
_atom_site_label
_atom_site_type_symbol
_atom_site_symmetry_multiplicity
_atom_site_Wyckoff_symbol
_atom_site_fract_x
_atom_site_fract_y
_atom_site_fract_z
_atom_site_occupancy
_atom_site_attached_hydrogens
V1 V3+ 4 b 0.25 0.39050(5) 0.2500(2) 1. 0 
Cu1 Cu2+ 4 b 0.25 0.39107(5) 0.7510(2) 1. 0 
Cu2 Cu2+ 4 a 0.5 0.5 0.22943(15) 1. 0 
Se1 Se2- 4 b 0.25 0.49517(2) 0.49423(10) 1. 0 
Se2 Se2- 8 c 0.50193(4) 0.38821(2) 0.01146(8) 1. 0 
Se3 Se2- 4 b 0.25 0.28918(3) 0.4836(2) 1. 0 
K1 K1+ 4 b 0.25 0.68415(8) 0.4905(4) 1. 0 

loop_
_atom_site_aniso_label
_atom_site_aniso_type_symbol
_atom_site_aniso_U_11
_atom_site_aniso_U_22
_atom_site_aniso_U_33
_atom_site_aniso_U_12
_atom_site_aniso_U_13
_atom_site_aniso_U_23
V1 V3+ 0.0183(4) 0.0109(5) 0.0095(4) 0 0 -.0012(4)
Cu1 Cu2+ 0.0268(4) 0.0218(4) 0.0114(4) 0 0 -.0006(3)
Cu2 Cu2+ 0.0181(3) 0.0220(3) 0.0211(4) -.0047(3) 0 0
Se1 Se2- 0.0183(2) 0.0145(2) 0.0145(3) 0 0 -.0009(4)
Se2 Se2- 0.0179(2) 0.0270(2) 0.0180(2) 0.00390(13) 0.0007(3) -.0054(2)
Se3 Se2- 0.0686(4) 0.0133(2) 0.0168(3) 0 0 0.0014(4)
K1 K1+ 0.0622(8) 0.0343(7) 0.0301(8) 0 0 -.0042(10)
#End of data_280059-ICSD


