data_16748-ICSD
#?2014 by Fachinformationszentrum Karlsruhe, and the U.S. Secretary of 
#Commerce on behalf of the United States.  All rights reserved.
_database_code_ICSD                16748
_audit_creation_date               1980/01/01
_audit_update_record               2007/08/01
_chemical_name_systematic          'Zinc Sulfate(VI)'
_chemical_formula_structural       'Zn (S O4)'
_chemical_formula_sum              'O4 S1 Zn1'
_chemical_name_mineral             Zinkosite
_publ_section_title
;
The crystal structure of the anhydrous sulfates of copper and zinc
;
loop_
_citation_id
_citation_journal_abbrev
_citation_year
_citation_journal_volume
_citation_page_first
_citation_page_last
_citation_journal_id_ASTM
primary 'Acta Crystallographica (1,1948-23,1967)' 1958 11 361 364 ACCRA9
_publ_author_name                  'Kokkoros, P.A.;Rentzeperis, P.J.'
_cell_length_a                     8.58
_cell_length_b                     6.73
_cell_length_c                     4.77
_cell_angle_alpha                  90.
_cell_angle_beta                   90.
_cell_angle_gamma                  90.
_cell_volume                       275.44
_cell_formula_units_Z              4
_symmetry_space_group_name_H-M     'P n m a'
_symmetry_Int_Tables_number        62
_refine_ls_R_factor_all            .186
loop_
_symmetry_equiv_pos_site_id
_symmetry_equiv_pos_as_xyz
  1	'x+.5, y, -z+.5'
  2	'x, -y+.5, z'
  3	'-x+.5, y+.5, z+.5'
  4	'-x, -y, -z'
  5	'-x+.5, -y, z+.5'
  6	'-x, y+.5, -z'
  7	'x+.5, -y+.5, -z+.5'
  8	'x, y, z'
loop_
_atom_type_symbol
_atom_type_oxidation_number
O2-	-2
S6+	6
Zn2+	2
loop_
_atom_site_label
_atom_site_type_symbol
_atom_site_symmetry_multiplicity
_atom_site_Wyckoff_symbol
_atom_site_fract_x
_atom_site_fract_y
_atom_site_fract_z
_atom_site_occupancy
_atom_site_attached_hydrogens
Zn1 Zn2+ 4 a 0 0 0 1. 0 
S1 S6+ 4 c 0.186 0.25 0.458 1. 0 
O1 O2- 4 c 0.13 0.25 0.75 1. 0 
O2 O2- 4 c 0.367 0.25 0.458 1. 0 
O3 O2- 8 d 0.13 0.072 0.319 1. 0 

#End of data_16748-ICSD


