data_201993-ICSD
#?2014 by Fachinformationszentrum Karlsruhe, and the U.S. Secretary of 
#Commerce on behalf of the United States.  All rights reserved.
_database_code_ICSD                201993
_audit_creation_date               1988/12/19
_audit_update_record               2010/08/01
_chemical_name_systematic
;
Pentabismuth Tris(tetrachloroaluminate)
;
_chemical_formula_structural       'Bi5 (Al Cl4)3'
_chemical_formula_sum              'Al3 Bi5 Cl12'
_publ_section_title
;
Characterization of the (Bi5)(3+) cluster cation: Preparation of 
single crystals, crystal and molecular structure of Bi5 (Al Cl4)3
;
loop_
_citation_id
_citation_journal_abbrev
_citation_year
_citation_journal_volume
_citation_page_first
_citation_page_last
_citation_journal_id_ASTM
primary 'Journal of the Less-Common Metals' 1986 116 159 168 JCOMAH
_publ_author_name
;
Krebs, B.;Mummert, M.;Brendel, C.J.
;
_cell_length_a                     11.860(3)
_cell_length_b                     11.860(3)
_cell_length_c                     30.100(8)
_cell_angle_alpha                  90.
_cell_angle_beta                   90.
_cell_angle_gamma                  120.
_cell_volume                       3666.63
_cell_formula_units_Z              6
_symmetry_space_group_name_H-M     'R -3 c H'
_symmetry_Int_Tables_number        167
_refine_ls_R_factor_all            .052
loop_
_symmetry_equiv_pos_site_id
_symmetry_equiv_pos_as_xyz
  1	'x-y, -y, -z+.5'
  2	'-x, -x+y, -z+.5'
  3	'y, x, -z+.5'
  4	'x-y, x, -z'
  5	'y, -x+y, -z'
  6	'-x, -y, -z'
  7	'-x+y, y, z+.5'
  8	'x, x-y, z+.5'
  9	'-y, -x, z+.5'
 10	'-x+y, -x, z'
 11	'-y, x-y, z'
 12	'x, y, z'
 13	'x-y+.6666, -y+.3333, -z+.8333'
 14	'x-y+.3333, -y+.6666, -z+.1666'
 15	'-x+.6666, -x+y+.3333, -z+.8333'
 16	'-x+.3333, -x+y+.6666, -z+.1666'
 17	'y+.6666, x+.3333, -z+.8333'
 18	'y+.3333, x+.6666, -z+.1666'
 19	'x-y+.6666, x+.3333, -z+.3333'
 20	'x-y+.3333, x+.6666, -z+.6666'
 21	'y+.6666, -x+y+.3333, -z+.3333'
 22	'y+.3333, -x+y+.6666, -z+.6666'
 23	'-x+.6666, -y+.3333, -z+.3333'
 24	'-x+.3333, -y+.6666, -z+.6666'
 25	'-x+y+.6666, y+.3333, z+.8333'
 26	'-x+y+.3333, y+.6666, z+.1666'
 27	'x+.6666, x-y+.3333, z+.8333'
 28	'x+.3333, x-y+.6666, z+.1666'
 29	'-y+.6666, -x+.3333, z+.8333'
 30	'-y+.3333, -x+.6666, z+.1666'
 31	'-x+y+.6666, -x+.3333, z+.3333'
 32	'-x+y+.3333, -x+.6666, z+.6666'
 33	'-y+.6666, x-y+.3333, z+.3333'
 34	'-y+.3333, x-y+.6666, z+.6666'
 35	'x+.6666, y+.3333, z+.3333'
 36	'x+.3333, y+.6666, z+.6666'
loop_
_atom_type_symbol
_atom_type_oxidation_number
Al3+	3
Bi.6+	.6
Cl1-	-1
loop_
_atom_site_label
_atom_site_type_symbol
_atom_site_symmetry_multiplicity
_atom_site_Wyckoff_symbol
_atom_site_fract_x
_atom_site_fract_y
_atom_site_fract_z
_atom_site_occupancy
_atom_site_attached_hydrogens
Bi1 Bi.6+ 18 e 0.16155(12) 0 0.25 1. 0 
Bi2 Bi.6+ 12 c 0 0 0.32700(6) 1. 0 
Al1 Al3+ 18 e 0.5231(7) 0 0.25 1. 0 
Cl1 Cl1- 36 f 0.4212(5) 0.0067(5) 0.3074(2) 1. 0 
Cl2 Cl1- 36 f 0.7105(6) 0.1659(6) 0.2426(2) 1. 0 

loop_
_atom_site_aniso_label
_atom_site_aniso_type_symbol
_atom_site_aniso_U_11
_atom_site_aniso_U_22
_atom_site_aniso_U_33
_atom_site_aniso_U_12
_atom_site_aniso_U_13
_atom_site_aniso_U_23
Bi1 Bi.6+ 0.0334(5) 0.0694(9) 0.0690(9) 0.0347 0.0029 0.0058(8)
Bi2 Bi.6+ 0.0825(8) 0.0825 0.0279(9) 0.04125 0 0
Al1 Al3+ 0.037(4) 0.032(5) 0.025(6) 0.016 0.002 0.004(4)
Cl1 Cl1- 0.049(3) 0.047(4) 0.043(4) 0.032(3) 0.007(3) 0.001(3)
Cl2 Cl1- 0.033(4) 0.047(4) 0.074(5) 0.009(3) -.007(3) 0.013(3)
#End of data_201993-ICSD


