data_409059-ICSD
#?2014 by Fachinformationszentrum Karlsruhe, and the U.S. Secretary of 
#Commerce on behalf of the United States.  All rights reserved.
_database_code_ICSD                409059
_audit_creation_date               1998/06/26
_chemical_name_systematic
;
Tetrasodium Tricopper Diborodiphosphate(V)bis(hydrogenphosphate(V)) 
Bis(hydrogenphosphate(V))
;
_chemical_formula_structural
;
Na4 Cu3 (B2 P4 O15 (O H)2) (H P O4)2
;
_chemical_formula_sum              'H4 B2 Cu3 Na4 O25 P6'
_publ_section_title
;
Crystal structure of tetrasodium tricopper(II) (diborodiphosphate-
bis(monohydrogenphosphate)) bis(monohydrogenphosphate), Na4 Cu3 (B2 
P4 O15 (O H)2 ) (H P O4)2
;
loop_
_citation_id
_citation_journal_abbrev
_citation_year
_citation_journal_volume
_citation_page_first
_citation_page_last
_citation_journal_id_ASTM
primary 'Zeitschrift fuer Kristallographie - New Crystal Structures'
 1998 213 29 30 ZKNSFT
_publ_author_name                  'Boy, I.;Cordier, G.;Kniep, R.'
_cell_length_a                     17.4770(40)
_cell_length_b                     5.101(1)
_cell_length_c                     22.437(4)
_cell_angle_alpha                  90.
_cell_angle_beta                   102.69(8)
_cell_angle_gamma                  90.
_cell_volume                       1951.4
_cell_formula_units_Z              4
_symmetry_space_group_name_H-M     'C 1 2/c 1'
_symmetry_Int_Tables_number        15
_refine_ls_R_factor_all            .039
loop_
_symmetry_equiv_pos_site_id
_symmetry_equiv_pos_as_xyz
  1	'x, -y, z+.5'
  2	'-x, -y, -z'
  3	'-x, y, -z+.5'
  4	'x, y, z'
  5	'x+.5, -y+.5, z+.5'
  6	'-x+.5, -y+.5, -z'
  7	'-x+.5, y+.5, -z+.5'
  8	'x+.5, y+.5, z'
loop_
_atom_type_symbol
_atom_type_oxidation_number
B3+	3
Cu2+	2
H1+	1
Na1+	1
O2-	-2
P5+	5
loop_
_atom_site_label
_atom_site_type_symbol
_atom_site_symmetry_multiplicity
_atom_site_Wyckoff_symbol
_atom_site_fract_x
_atom_site_fract_y
_atom_site_fract_z
_atom_site_occupancy
_atom_site_attached_hydrogens
_atom_site_U_iso_or_equiv
Na1 Na1+ 8 f 0.19387(9) 0.4608(3) 0.17245(7) 1. 0 0 
Na2 Na1+ 8 f 0.36735(9) 0.4608(3) 0.08208(7) 1. 0 0 
Cu1 Cu2+ 8 f 0.14683(2) 0.46230(8) 0.02016(2) 1. 0 0 
Cu2 Cu2+ 4 a 0 0 0 1. 0 0 
B1 B3+ 8 f 0.0060(2) 0.3616(8) 0.3054(2) 1. 0 0 
P1 P5+ 8 f 0.00402(5) 0.4788(2) 0.08060(3) 1. 0 0 
P2 P5+ 8 f 0.11824(5) 0.1071(2) 0.26078(4) 1. 0 0 
P3 P5+ 8 f 0.23785(5) 0.0656(2) 0.57087(4) 1. 0 0 
O1 O2- 8 f 0.02637(14) 0.2037(5) 0.43712(10) 1. 0 0 
O2 O2- 8 f 0.06682(14) 0.2053(5) 0.19952(10) 1. 0 0 
O3 O2- 8 f 0.07405(14) 0.1745(5) 0.31202(10) 1. 0 0 
O4 O2- 8 f 0.09166(14) 0.5116(5) 0.08618(10) 1. 0 0 
O5 O2- 8 f 0.16371(14) 0.0379(5) 0.03013(11) 1. 0 0 
O6 O2- 8 f 0.19919(14) 0.2167(5) 0.27149(11) 1. 0 0 
O7 O2- 8 f 0.2394(2) 0.0499(5) 0.13721(11) 1. 0 0 
O8 O2- 8 f 0.26204(13) 0.1335(5) 0.42459(10) 1. 0 0 
O9 O2- 8 f 0.31315(15) 0.0296(5) 0.05422(11) 1. 0 0 
O10 O2- 8 f 0.3755(2) 0.3039(5) 0.24190(12) 1. 0 0 
O11 O2- 8 f 0.45738(13) 0.1801(5) 0.03552(10) 1. 0 0 
O12 O2- 8 f 0.48370(14) 0.0399(5) 0.14376(10) 1. 0 0 
O13 O2- 4 e 0 0.5173(6) 0.25 1. 0 0 
H1 H1+ 8 f 0.4208(29) 0.238(11) 0.2402(22) 1. 0 0.039(15) 
H2 H1+ 8 f 0.2585(42) -0.026(14) 0.1674(33) 1. 0 0.082(26) 

loop_
_atom_site_aniso_label
_atom_site_aniso_type_symbol
_atom_site_aniso_U_11
_atom_site_aniso_U_22
_atom_site_aniso_U_33
_atom_site_aniso_U_12
_atom_site_aniso_U_13
_atom_site_aniso_U_23
Na1 Na1+ 0.0240(8) 0.0300(9) 0.0217(7) -.0042(7) 0.0024(6) 0.0018(6)
Na2 Na1+ 0.0189(7) 0.0235(8) 0.0225(7) -.0024(6) 0.0081(6) -.0045(6)
Cu1 Cu2+ 0.0131(2) 0.0139(2) 0.0121(2) -.00141(15) 0.00417(14) -.00076(14)
Cu2 Cu2+ 0.0252(3) 0.0098(3) 0.0128(3) -.0016(2) 0.0099(2) -.0010(2)
B1 B3+ 0.0134(15) 0.013(2) 0.0108(14) -.0010(13) 0.0042(12) 0.0023(12)
P1 P5+ 0.0124(4) 0.0101(4) 0.0085(3) 0.0000(3) 0.0035(3) -.0006(3)
P2 P5+ 0.0143(4) 0.0121(4) 0.0129(3) 0.0016(3) 0.0038(3) -.0001(3)
P3 P5+ 0.0134(4) 0.0116(4) 0.0111(3) -.0001(3) 0.0037(3) -.0002(3)
O1 O2- 0.0200(11) 0.0088(10) 0.0135(10) 0.0021(9) 0.0071(8) 0.0015(8)
O2 O2- 0.0192(12) 0.0243(13) 0.0131(10) 0.0093(11) 0.0042(9) 0.0015(10)
O3 O2- 0.0210(12) 0.0201(13) 0.0126(10) 0.0086(10) 0.0066(9) 0.0034(9)
O4 O2- 0.013(1) 0.0199(12) 0.0118(10) 0.0001(10) 0.0029(8) -.0006(9)
O5 O2- 0.0162(11) 0.0152(12) 0.0148(11) 0.0023(9) 0.0009(9) 0.0025(9)
O6 O2- 0.0162(11) 0.0211(13) 0.0204(11) -.0034(10) 0.0046(9) -.0014(10)
O7 O2- 0.0270(13) 0.0176(13) 0.0116(11) 0.0043(11) 0.005(1) -.0012(9)
O8 O2- 0.0125(10) 0.0146(12) 0.0187(11) 0.0013(9) 0.0020(9) -.0007(9)
O9 O2- 0.0179(12) 0.0211(13) 0.0186(12) -.005(1) 0.0092(10) -.0013(10)
O10 O2- 0.0187(12) 0.0130(12) 0.0293(13) 0.0007(10) 0.0079(10) -.0002(10)
O11 O2- 0.0166(11) 0.0112(10) 0.0111(9) 0.0002(9) 0.0040(8) 0.0019(8)
O12 O2- 0.0168(11) 0.0115(11) 0.0095(9) 0.0025(9) 0.0041(8) -.0003(8)
O13 O2- 0.0157(15) 0.012(2) 0.0084(13) 0 0.0028(11) 0
#End of data_409059-ICSD


