data_15510-ICSD
#?2014 by Fachinformationszentrum Karlsruhe, and the U.S. Secretary of 
#Commerce on behalf of the United States.  All rights reserved.
_database_code_ICSD                15510
_audit_creation_date               1981/12/31
_audit_update_record               2006/04/01
_chemical_name_systematic          'Silver Catena-borate'
_chemical_formula_structural       'Ag (B O2)'
_chemical_formula_sum              'Ag1 B1 O2'
_publ_section_title                'Silber(I)-metaborat, Ag B O2'
loop_
_citation_id
_citation_journal_abbrev
_citation_year
_citation_journal_volume
_citation_page_first
_citation_page_last
_citation_journal_id_ASTM
primary 'Zeitschrift fuer Anorganische und Allgemeine Chemie (1950) (DE)'
 1981 478 13 19 ZAACAB
2 Naturwissenschaften 1980 67 606 606 NATWAY
_publ_author_name                  'Brachtel, G.;Jansen, M.'
_cell_length_a                     8.441(2)
_cell_length_b                     8.680(1)
_cell_length_c                     19.741(5)
_cell_angle_alpha                  90.
_cell_angle_beta                   90.
_cell_angle_gamma                  90.
_cell_volume                       1446.38
_cell_formula_units_Z              32
_symmetry_space_group_name_H-M     'P b c n'
_symmetry_Int_Tables_number        60
_refine_ls_R_factor_all            .054
loop_
_symmetry_equiv_pos_site_id
_symmetry_equiv_pos_as_xyz
  1	'x, -y, z+.5'
  2	'-x+.5, y+.5, z'
  3	'x+.5, y+.5, -z+.5'
  4	'-x, -y, -z'
  5	'-x, y, -z+.5'
  6	'x+.5, -y+.5, -z'
  7	'-x+.5, -y+.5, z+.5'
  8	'x, y, z'
loop_
_atom_type_symbol
_atom_type_oxidation_number
Ag1+	1
B3+	3
O2-	-2
loop_
_atom_site_label
_atom_site_type_symbol
_atom_site_symmetry_multiplicity
_atom_site_Wyckoff_symbol
_atom_site_fract_x
_atom_site_fract_y
_atom_site_fract_z
_atom_site_occupancy
_atom_site_attached_hydrogens
Ag1 Ag1+ 4 a 0 0 0 1. 0 
Ag2 Ag1+ 4 c 0 0.5350(2) 0.25 1. 0 
Ag3 Ag1+ 8 d -.0082(1) 0.3043(1) 0.39143(5) 1. 0 
Ag4 Ag1+ 8 d 0.1970(1) 0.2559(1) 0.26513(5) 1. 0 
Ag5 Ag1+ 8 d 0.2907(1) 0.1301(1) 0.41493(5) 1. 0 
B1 B3+ 8 d 0.6758(14) 0.1329(15) 0.4768(6) 1. 0 
B2 B3+ 8 d 0.7813(11) 0.0106(12) 0.3660(6) 1. 0 
B3 B3+ 8 d 0.4382(13) 0.4564(13) 0.3251(6) 1. 0 
B4 B3+ 8 d 0.6093(13) 0.2412(13) 0.3662(6) 1. 0 
O1 O2- 8 d 0.7898(9) 0.0454(10) 0.4405(4) 1. 0 
O2 O2- 8 d 0.6504(8) 0.0946(8) 0.3358(4) 1. 0 
O3 O2- 8 d 0.5729(8) 0.2236(8) 0.4408(4) 1. 0 
O4 O2- 8 d 0.7426(9) 0.3493(8) 0.3549(4) 1. 0 
O5 O2- 8 d 0.9407(8) 0.0586(9) 0.3388(4) 1. 0 
O6 O2- 8 d 0.6841(8) 0.1249(10) 0.5437(4) 1. 0 
O7 O2- 8 d 0.4666(8) 0.3002(9) 0.3340(4) 1. 0 
O8 O2- 8 d 0.2924(8) 0.5041(9) 0.3068(4) 1. 0 

loop_
_atom_site_aniso_label
_atom_site_aniso_type_symbol
_atom_site_aniso_U_11
_atom_site_aniso_U_22
_atom_site_aniso_U_33
_atom_site_aniso_U_12
_atom_site_aniso_U_13
_atom_site_aniso_U_23
Ag1 Ag1+ 0.0174(5) 0.0464(9) 0.0290(6) -.0044(6) -.0091(5) -.0008(6)
Ag2 Ag1+ 0.0282(6) 0.0240(6) 0.0331(7) 0 0.0170(5) 0
Ag3 Ag1+ 0.0169(4) 0.0309(5) 0.0407(5) -.0029(4) -.0099(3) -.0033(4)
Ag4 Ag1+ 0.0216(4) 0.0211(4) 0.0282(4) -.0020(3) 0.0009(3) 0.0021(3)
Ag5 Ag1+ 0.0192(3) 0.0212(4) 0.0323(4) -.0015(3) -.0001(3) 0.0015(4)
B1 B3+ 0.0210(52) 0.0185(52) 0.0182(47) 0.0005(44) 0.007(4) -.0029(44)
B2 B3+ 0.0068(36) 0.0120(41) 0.0185(44) 0.0032(37) 0.001(3) 0.0018(37)
B3 B3+ 0.0115(43) 0.0125(43) 0.0158(47) 0.0012(34) -.0005(33) 0.0029(39)
B4 B3+ 0.0142(44) 0.0132(47) 0.0285(56) -.0106(40) -.0012(41) -.0017(46)
O1 O2- 0.0199(35) 0.0248(38) 0.0178(33) 0.0096(31) -.0025(28) -.0049(30)
O2 O2- 0.015(3) 0.0119(30) 0.0230(36) 0.0025(26) -.0007(27) -.0015(29)
O3 O2- 0.0136(30) 0.0127(34) 0.0233(35) 0.0041(25) 0.0011(26) 0.0001(27)
O4 O2- 0.0192(31) 0.0077(29) 0.0211(34) 0.0013(25) -.0019(26) -.0021(26)
O5 O2- 0.0116(30) 0.0164(34) 0.0267(37) -.0010(26) -.0019(28) -.0045(30)
O6 O2- 0.0144(33) 0.0312(44) 0.0213(36) -.0020(32) 0.0002(26) 0.0017(33)
O7 O2- 0.0059(26) 0.0147(32) 0.0341(41) 0.0006(23) -.0087(27) 0.0018(31)
O8 O2- 0.0146(31) 0.0222(37) 0.0284(38) 0.0017(33) -.0056(28) 0.0031(32)
#End of data_15510-ICSD


