data_26419-ICSD
#?2014 by Fachinformationszentrum Karlsruhe, and the U.S. Secretary of 
#Commerce on behalf of the United States.  All rights reserved.
_database_code_ICSD                26419
_audit_creation_date               1981/12/31
_audit_update_record               2012/02/01
_chemical_name_systematic          'Pentasodium Trialuminium Fluoride'
_chemical_formula_structural       'Na5 Al3 F14'
_chemical_formula_sum              'Al3 F14 Na5'
_chemical_name_mineral             Chiolite
_publ_section_title
;
Determination precise de la structure de la chiolite Na5 Al3 F14 et 
etude par R.P.E. de Na5 Al3 F14: Cr3+
;
loop_
_citation_id
_citation_journal_abbrev
_citation_year
_citation_journal_volume
_citation_page_first
_citation_page_last
_citation_journal_id_ASTM
primary 'Journal of Solid State Chemistry' 1981 36 297 304 JSSCBI
2 'Phase Transition' 1992 38 127 220 PHTRDP
_publ_author_name
;
Jacoboni, C.;Leble, A.;Rousseau, J.J.
;
_cell_length_a                     7.0138(8)
_cell_length_b                     7.0138(8)
_cell_length_c                     10.402(2)
_cell_angle_alpha                  90.
_cell_angle_beta                   90.
_cell_angle_gamma                  90.
_cell_volume                       511.71
_cell_formula_units_Z              2
_symmetry_space_group_name_H-M     'P 4/m n c'
_symmetry_Int_Tables_number        128
_refine_ls_R_factor_all            .021
loop_
_symmetry_equiv_pos_site_id
_symmetry_equiv_pos_as_xyz
  1	'y+.5, x+.5, -z+.5'
  2	'-y+.5, -x+.5, -z+.5'
  3	'-y, x, -z'
  4	'y, -x, -z'
  5	'x+.5, -y+.5, -z+.5'
  6	'-x+.5, y+.5, -z+.5'
  7	'x, y, -z'
  8	'-x, -y, -z'
  9	'-y+.5, -x+.5, z+.5'
 10	'y+.5, x+.5, z+.5'
 11	'y, -x, z'
 12	'-y, x, z'
 13	'-x+.5, y+.5, z+.5'
 14	'x+.5, -y+.5, z+.5'
 15	'-x, -y, z'
 16	'x, y, z'
loop_
_atom_type_symbol
_atom_type_oxidation_number
Al3+	3
F1-	-1
Na1+	1
loop_
_atom_site_label
_atom_site_type_symbol
_atom_site_symmetry_multiplicity
_atom_site_Wyckoff_symbol
_atom_site_fract_x
_atom_site_fract_y
_atom_site_fract_z
_atom_site_occupancy
_atom_site_attached_hydrogens
Na1 Na1+ 2 b 0 0 0.5 1. 0 
Na2 Na1+ 8 g 0.2768(1) 0.7768(1) 0.25 1. 0 
Al1 Al3+ 2 a 0 0 0 1. 0 
Al2 Al3+ 4 c 0 0.5 0 1. 0 
F1 F1- 4 e 0 0 0.1711(1) 1. 0 
F2 F1- 8 h 0.0642(1) 0.2477(1) 0 1. 0 
F3 F1- 16 i 0.1794(1) 0.5364(1) 0.1198(1) 1. 0 

#End of data_26419-ICSD


