data_249713-ICSD
#?2014 by Fachinformationszentrum Karlsruhe, and the U.S. Secretary of 
#Commerce on behalf of the United States.  All rights reserved.
_database_code_ICSD                249713
_audit_creation_date               2009/02/01
_chemical_name_systematic          'Zinc Vanadium(IV) Diselenate(IV)'
_chemical_formula_structural       'Zn V (Se2 O7)'
_chemical_formula_sum              'O7 Se2 V1 Zn1'
_publ_section_title
;
Zn V Se2 O7 and Cd6 V2 Se5 O21: New d10 transition-metal selenites 
with V(IV) or V(V) cations
;
loop_
_citation_id
_citation_journal_abbrev
_citation_year
_citation_journal_volume
_citation_journal_issue
_citation_page_first
_citation_page_last
_citation_journal_id_ASTM
primary 'Inorganic Chemistry' 2008 47 16 7430 7437 INOCAJ
_publ_author_name
;
Jiang Hailong;Kong Fang;Fan Yang;Mao Jiang Gao
;
_cell_length_a                     7.442(3)
_cell_length_b                     12.530(4)
_cell_length_c                     7.480(3)
_cell_angle_alpha                  90.00
_cell_angle_beta                   117.066(4)
_cell_angle_gamma                  90.00
_cell_volume                       621.11
_cell_formula_units_Z              4
_symmetry_space_group_name_H-M     'P 1 21/n 1'
_symmetry_Int_Tables_number        14
_refine_ls_R_factor_all            .0216
loop_
_symmetry_equiv_pos_site_id
_symmetry_equiv_pos_as_xyz
  1	'-x+.5, y+.5, -z+.5'
  2	'-x, -y, -z'
  3	'x+.5, -y+.5, z+.5'
  4	'x, y, z'
loop_
_atom_type_symbol
_atom_type_oxidation_number
O2-	-2
Se4+	4
V4+	4
Zn2+	2
loop_
_atom_site_label
_atom_site_type_symbol
_atom_site_symmetry_multiplicity
_atom_site_Wyckoff_symbol
_atom_site_fract_x
_atom_site_fract_y
_atom_site_fract_z
_atom_site_occupancy
_atom_site_attached_hydrogens
_atom_site_U_iso_or_equiv
Zn1 Zn2+ 4 e 0.29404(7) 0.49119(3) 0.00953(6) 1 0 0.01500(11) 
V1 V4+ 4 e 0.24205(10) 0.25480(4) 0.27878(9) 1 0 0.01140(14) 
Se1 Se4+ 4 e 0.17933(6) 0.51136(2) 0.34028(5) 1 0 0.01150(10) 
Se2 Se4+ 4 e 0.57071(5) 0.26892(2) 0.10720(5) 1 0 0.01135(10) 
O1 O2- 4 e 0.2707(4) 0.59512(16) 0.2141(4) 1 0 0.0141(5) 
O2 O2- 4 e 0.1861(4) 0.40781(16) 0.1929(4) 1 0 0.0147(5) 
O3 O2- 4 e -0.0645(4) 0.53790(18) 0.2516(4) 1 0 0.0183(5) 
O4 O2- 4 e 0.3365(4) 0.23780(16) 0.0736(3) 1 0 0.0136(5) 
O5 O2- 4 e 0.5432(4) 0.22911(18) -0.1184(4) 1 0 0.0175(6) 
O6 O2- 4 e 0.5447(4) 0.40521(18) 0.0760(4) 1 0 0.0194(6) 
O7 O2- 4 e 0.4486(4) 0.27050(18) 0.4827(4) 1 0 0.0197(6) 

loop_
_atom_site_aniso_label
_atom_site_aniso_type_symbol
_atom_site_aniso_U_11
_atom_site_aniso_U_22
_atom_site_aniso_U_33
_atom_site_aniso_U_12
_atom_site_aniso_U_13
_atom_site_aniso_U_23
Zn1 Zn2+ 0.0166(3) 0.0159(2) 0.0169(2) -0.00209(16) 0.0114(2) -0.00235(15)
V1 V4+ 0.0156(4) 0.0094(3) 0.0144(3) 0.0007(2) 0.0114(3) 0.0012(2)
Se1 Se4+ 0.0134(2) 0.01221(17) 0.01067(18) 0.00003(12) 0.00697(16) 
0.00013(11)
Se2 Se4+ 0.0111(2) 0.01339(17) 0.01068(18) -0.00008(13) 0.00591(15) 
0.00004(12)
O1 O2- 0.0209(15) 0.0099(11) 0.0170(13) -0.0034(10) 0.0133(12) -0.0024(9)
O2 O2- 0.0232(16) 0.0081(11) 0.0177(13) 0.0001(10) 0.0134(13) -0.0002(9)
O3 O2- 0.0136(15) 0.0216(13) 0.0218(14) 0.0010(11) 0.0101(12) -0.0042(10)
O4 O2- 0.0153(15) 0.0165(12) 0.0139(13) -0.0014(10) 0.0108(12) -0.0015(9)
O5 O2- 0.0185(16) 0.0229(13) 0.0176(14) -0.0050(11) 0.0137(12) -0.0061(10)
O6 O2- 0.0228(16) 0.0101(11) 0.0341(16) 0.0002(10) 0.0206(14) 0.0005(10)
O7 O2- 0.0192(16) 0.0218(13) 0.0179(14) 0.0018(11) 0.0083(13) 0.0006(10)
#End of data_249713-ICSD


