data_262972-ICSD
#?2014 by Fachinformationszentrum Karlsruhe, and the U.S. Secretary of 
#Commerce on behalf of the United States.  All rights reserved.
_database_code_ICSD                262972
_audit_creation_date               2013/02/01
_chemical_name_systematic          'Potassium Aluminium Dioxide'
_chemical_formula_structural       'K Al O2'
_chemical_formula_sum              'Al1 K1 O2'
_publ_section_title
;
The natural tiling approach to cation conductivity in K Al O2 
polymorphs
;
loop_
_citation_id
_citation_journal_abbrev
_citation_year
_citation_journal_volume
_citation_journal_issue
_citation_page_first
_citation_page_last
_citation_journal_id_ASTM
primary 'Acta Crystallographica, Section B: Structural Science'
 2012 68 4 356 363 ASBSDK
_publ_author_name
;
Voronin, V.I.;Shekhtman, G.Sh.;Blatov, V.A.
;
_cell_length_a                     5.4888(2)
_cell_length_b                     11.0346(4)
_cell_length_c                     15.5598(5)
_cell_angle_alpha                  90.00000
_cell_angle_beta                   90.00000
_cell_angle_gamma                  90.00000
_cell_volume                       942.41
_cell_formula_units_Z              16
_symmetry_space_group_name_H-M     'P b c a'
_symmetry_Int_Tables_number        61
_refine_ls_R_factor_all            .03
loop_
_symmetry_equiv_pos_site_id
_symmetry_equiv_pos_as_xyz
  1	'x+.5, y, -z+.5'
  2	'x, -y+.5, z+.5'
  3	'-x+.5, y+.5, z'
  4	'-x, -y, -z'
  5	'-x+.5, -y, z+.5'
  6	'-x, y+.5, -z+.5'
  7	'x+.5, -y+.5, -z'
  8	'x, y, z'
loop_
_atom_type_symbol
_atom_type_oxidation_number
Al3+	3
K1+	1
O2-	-2
loop_
_atom_site_label
_atom_site_type_symbol
_atom_site_symmetry_multiplicity
_atom_site_Wyckoff_symbol
_atom_site_fract_x
_atom_site_fract_y
_atom_site_fract_z
_atom_site_occupancy
_atom_site_attached_hydrogens
_atom_site_U_iso_or_equiv
Al1 Al3+ 8 c 0.249(3) 0.0060(18) 0.1853(15) 1.00000 0 0.020(4) 
Al2 Al3+ 8 c 0.272(2) 0.2554(11) 0.0647(15) 1.00000 0 0.020(4) 
K1 K1+ 8 c 0.761(6) 0.0022(19) 0.0604(19) 1.00000 0 0.07(2) 
K2 K1+ 8 c 0.782(3) 0.2559(14) 0.1888(16) 1.00000 0 0.050(16) 
O1 O2- 8 c 0.553(2) 0.2729(14) 0.0141(7) 1.00000 0 0.070(10) 
O2 O2- 8 c 0.192(3) 0.3933(13) 0.1115(8) 1.00000 0 0.063(10) 
O3 O2- 8 c 0.2922(16) 0.1482(10) 0.1417(7) 1.00000 0 0.029(6) 
O4 O2- 8 c 0.045(2) 0.4910(9) 0.2758(8) 1.00000 0 0.039(7) 

loop_
_atom_site_aniso_label
_atom_site_aniso_type_symbol
_atom_site_aniso_U_11
_atom_site_aniso_U_22
_atom_site_aniso_U_33
_atom_site_aniso_U_12
_atom_site_aniso_U_13
_atom_site_aniso_U_23
K1 K1+ 0.088(19) 0.09(2) 0.025(17) 0.00000 -0.01103 0.00000
K2 K1+ 0.042(11) 0.08(2) 0.025(16) 0.00000 -0.001(7) 0.00000
O1 O2- 0.026(6) 0.128(15) 0.054(9) 0.00000 0.026(5) 0.00000
O2 O2- 0.105(12) 0.031(8) 0.052(9) 0.00000 -0.004(7) 0.00000
O3 O2- 0.011(4) 0.027(7) 0.049(7) 0.00000 0.003(5) 0.00000
O4 O2- 0.018(6) 0.078(10) 0.022(5) 0.00000 0.005(6) 0.00000
#End of data_262972-ICSD


