data_66828-ICSD
#?2014 by Fachinformationszentrum Karlsruhe, and the U.S. Secretary of 
#Commerce on behalf of the United States.  All rights reserved.
_database_code_ICSD                66828
_audit_creation_date               1997/05/13
_audit_update_record               1997/11/10
_chemical_name_systematic          'Tricesium Dimagnesium Chloride'
_chemical_formula_structural       'Cs3 Mg2 Cl7'
_chemical_formula_sum              'Cl7 Cs3 Mg2'
_publ_section_title
;
The crystal structure of the compound Cs3 Mg2 Cl7
;
loop_
_citation_id
_citation_journal_abbrev
_citation_year
_citation_journal_volume
_citation_page_first
_citation_page_last
_citation_journal_id_ASTM
primary 'Arab Gulf J. Scientific Research' 1996 14 249 260 AGSREJ
_publ_author_name
;
Al-Aql, A.A.;Dughaish, Z.H.;Al-Jufali, A.;Al-Sheibani, K.M.;Hameida, 
E.M.A.;Flimban, A.
;
_cell_length_a                     5.05(1)
_cell_length_b                     5.05(1)
_cell_length_c                     26.300(50)
_cell_angle_alpha                  90.
_cell_angle_beta                   90.
_cell_angle_gamma                  90.
_cell_volume                       670.72
_cell_formula_units_Z              2
_symmetry_space_group_name_H-M     'I 4/m m m'
_symmetry_Int_Tables_number        139
_refine_ls_R_factor_all            .058
loop_
_symmetry_equiv_pos_site_id
_symmetry_equiv_pos_as_xyz
  1	'y, x, -z'
  2	'-y, -x, -z'
  3	'-y, x, -z'
  4	'y, -x, -z'
  5	'-x, y, -z'
  6	'x, -y, -z'
  7	'x, y, -z'
  8	'-x, -y, -z'
  9	'-y, -x, z'
 10	'y, x, z'
 11	'y, -x, z'
 12	'-y, x, z'
 13	'x, -y, z'
 14	'-x, y, z'
 15	'-x, -y, z'
 16	'x, y, z'
 17	'y+.5, x+.5, -z+.5'
 18	'-y+.5, -x+.5, -z+.5'
 19	'-y+.5, x+.5, -z+.5'
 20	'y+.5, -x+.5, -z+.5'
 21	'-x+.5, y+.5, -z+.5'
 22	'x+.5, -y+.5, -z+.5'
 23	'x+.5, y+.5, -z+.5'
 24	'-x+.5, -y+.5, -z+.5'
 25	'-y+.5, -x+.5, z+.5'
 26	'y+.5, x+.5, z+.5'
 27	'y+.5, -x+.5, z+.5'
 28	'-y+.5, x+.5, z+.5'
 29	'x+.5, -y+.5, z+.5'
 30	'-x+.5, y+.5, z+.5'
 31	'-x+.5, -y+.5, z+.5'
 32	'x+.5, y+.5, z+.5'
loop_
_atom_type_symbol
_atom_type_oxidation_number
Cl1-	-1
Cs1+	1
Mg2+	2
loop_
_atom_site_label
_atom_site_type_symbol
_atom_site_symmetry_multiplicity
_atom_site_Wyckoff_symbol
_atom_site_fract_x
_atom_site_fract_y
_atom_site_fract_z
_atom_site_occupancy
_atom_site_attached_hydrogens
_atom_site_B_iso_or_equiv
Mg1 Mg2+ 4 e 0 0 0.4021(8) 1. 0 2. 
Cs1 Cs1+ 4 e 0 0 0.1899(6) 1. 0 2. 
Cs2 Cs1+ 2 a 0 0 0 1. 0 2. 
Cl1 Cl1- 2 b 0 0 0.5 1. 0 2. 
Cl2 Cl1- 4 e 0 0 0.3091(5) 1. 0 2. 
Cl3 Cl1- 8 g 0 0.5 0.1002(4) 1. 0 2. 

#End of data_66828-ICSD


