data_202646-ICSD
#?2014 by Fachinformationszentrum Karlsruhe, and the U.S. Secretary of 
#Commerce on behalf of the United States.  All rights reserved.
_database_code_ICSD                202646
_audit_creation_date               1989/06/19
_audit_update_record               2013/02/01
_chemical_name_systematic
;
Aluminium Titanium(III,IV) Oxide (2/7/15)
;
_chemical_formula_structural       'Al2 Ti7 O15'
_chemical_formula_sum              'Al2 O15 Ti7'
_publ_section_title
;
Titane a valence mixte, un nouvel oxyde ternaire: Al2 Ti7 O15
;
loop_
_citation_id
_citation_journal_abbrev
_citation_year
_citation_journal_volume
_citation_page_first
_citation_page_last
_citation_journal_id_ASTM
primary 'Journal of Solid State Chemistry' 1988 76 167 177 JSSCBI
_publ_author_name
;
Remy, F.;Monnereau, O.;Casalot, A.;Dahan, F.;Galy, J.
;
_cell_length_a                     17.674(2)
_cell_length_b                     2.9737(8)
_cell_length_c                     9.358(1)
_cell_angle_alpha                  90.
_cell_angle_beta                   98.66(1)
_cell_angle_gamma                  90.
_cell_volume                       486.22
_cell_formula_units_Z              2
_symmetry_space_group_name_H-M     'C 1 2/m 1'
_symmetry_Int_Tables_number        12
_refine_ls_R_factor_all            .02
loop_
_symmetry_equiv_pos_site_id
_symmetry_equiv_pos_as_xyz
  1	'-x, y, -z'
  2	'-x, -y, -z'
  3	'x, -y, z'
  4	'x, y, z'
  5	'-x+.5, y+.5, -z'
  6	'-x+.5, -y+.5, -z'
  7	'x+.5, -y+.5, z'
  8	'x+.5, y+.5, z'
loop_
_atom_type_symbol
_atom_type_oxidation_number
Al3+	3
O2-	-2
Ti3.43+	3.43
loop_
_atom_site_label
_atom_site_type_symbol
_atom_site_symmetry_multiplicity
_atom_site_Wyckoff_symbol
_atom_site_fract_x
_atom_site_fract_y
_atom_site_fract_z
_atom_site_occupancy
_atom_site_attached_hydrogens
Ti1 Ti3.43+ 2 a 0.5 0.5 0 1. 0 
Ti2 Ti3.43+ 4 i 0.17992(3) 0.5 0.05163(6) 1. 0 
Ti3 Ti3.43+ 4 i 0.18926(3) 0 0.38306(6) 1. 0 
Ti4 Ti3.43+ 4 i 0.51020(3) 0 0.35083(6) 1. 0 
O1 O2- 4 i 0.5095(1) 0.5 0.2142(2) 1. 0 
O2 O2- 4 i 0.1872(1) 0 0.1847(2) 1. 0 
O3 O2- 4 i 0.1217(1) 0.5 0.3932(2) 1. 0 
O4 O2- 2 c 0.5 0.5 0.5 1. 0 
O5 O2- 4 i 0.0746(1) 0.5 0.0083(2) 1. 0 
Al1 Al3+ 4 i 0.34131(5) 0.5 0.27446(9) 1. 0 
O6 O2- 4 i 0.2998(1) 0.5 0.0876(2) 1. 0 
O7 O2- 4 i 0.3930(1) 0 0.3032(2) 1. 0 
O8 O2- 4 i 0.2736(1) 0.5 0.3978(2) 1. 0 

loop_
_atom_site_aniso_label
_atom_site_aniso_type_symbol
_atom_site_aniso_U_11
_atom_site_aniso_U_22
_atom_site_aniso_U_33
_atom_site_aniso_U_12
_atom_site_aniso_U_13
_atom_site_aniso_U_23
Ti1 Ti3.43+ 0.0113(3) 0.0064(4) 0.0059(3) 0 -.0005(2) 0
Ti2 Ti3.43+ 0.0119(2) 0.0081(3) 0.0113(2) 0 -.0009(2) 0
Ti3 Ti3.43+ 0.0099(2) 0.0072(3) 0.0090(2) 0 -.0001(2) 0
Ti4 Ti3.43+ 0.0057(2) 0.0018(2) 0.0099(2) 0 -.0021(2) 0
O1 O2- 0.0054(8) 0.0055(10) 0.0014(8) 0 -.0003(6) 0
O2 O2- 0.0067(8) 0.0082(11) 0.0043(8) 0 -.0018(6) 0
O3 O2- 0.0054(8) 0.0061(10) 0.0051(8) 0 -.0011(6) 0
O4 O2- 0.0066(11) 0.0065(15) 0.0040(12) 0 -.0028(9) 0
O5 O2- 0.0049(8) 0.0010(9) 0.0051(8) 0 0.0000(6) 0
Al1 Al3+ 0.0037(3) 0.0010(4) 0.0035(3) 0 -.0019(2) 0
O6 O2- 0.0062(8) 0.0036(10) 0.0035(8) 0 -.0016(6) 0
O7 O2- 0.0027(8) 0.0011(10) 0.0054(8) 0 -.0022(6) 0
O8 O2- 0.0038(8) 0.0010(9) 0.0044(8) 0 -.0004(6) 0
#End of data_202646-ICSD


