data_250069-ICSD
#?2014 by Fachinformationszentrum Karlsruhe, and the U.S. Secretary of 
#Commerce on behalf of the United States.  All rights reserved.
_database_code_ICSD                250069
_audit_creation_date               2004/04/01
_chemical_name_systematic
;
Calcium Hydroxooctaoxopentaborate Hydrate
;
_chemical_formula_structural       'Ca (B5 O8 (O H)) (H2 O)'
_chemical_formula_sum              'H3 B5 Ca1 O10'
_publ_section_title
;
Crystal structure of new synthetic calcium pentaborate Ca (B5 O8 (O 
H)) H2 O and its relation to pentaborates with similar boron-oxygen 
radicals
;
loop_
_citation_id
_citation_journal_abbrev
_citation_year
_citation_journal_volume
_citation_page_first
_citation_page_last
_citation_journal_id_ASTM
primary Kristallografiya 2003 48 608 613 KRISAJ
2 'Crystallography Reports' 2003 48 557 562 CYSTE3
_publ_author_name
;
Yamnova, N.A.;Egorov Tismenko, Yu.K.;Zubkova, N.V.;Dimitrova, 
O.V.;Kantor, A.P.;Danian, Y.;Ming Xiong
;
_cell_length_a                     6.5303(9)
_cell_length_b                     19.613(3)
_cell_length_c                     6.5303(9)
_cell_angle_alpha                  90
_cell_angle_beta                   119.207(2)
_cell_angle_gamma                  90
_cell_volume                       730.06
_cell_formula_units_Z              4
_symmetry_space_group_name_H-M     'P 1 21/c 1'
_symmetry_Int_Tables_number        14
_refine_ls_R_factor_all            .076
loop_
_symmetry_equiv_pos_site_id
_symmetry_equiv_pos_as_xyz
  1	'x, -y+.5, z+.5'
  2	'-x, -y, -z'
  3	'-x, y+.5, -z+.5'
  4	'x, y, z'
loop_
_atom_type_symbol
_atom_type_oxidation_number
B3+	3
Ca2+	2
H1+	1
O2-	-2
loop_
_atom_site_label
_atom_site_type_symbol
_atom_site_symmetry_multiplicity
_atom_site_Wyckoff_symbol
_atom_site_fract_x
_atom_site_fract_y
_atom_site_fract_z
_atom_site_occupancy
_atom_site_attached_hydrogens
_atom_site_U_iso_or_equiv
Ca1 Ca2+ 4 e 0.1815(2) 0.80677(6) 0.5507(2) 1. 0 0.0132(3) 
B1 B3+ 4 e 0.088(1) 0.8449(3) 0.060(1) 1. 0 0.011(1) 
B2 B3+ 4 e 0.688(1) 0.8282(3) 0.973(1) 1. 0 0.011(1) 
B3 B3+ 4 e 0.513(1) 0.8398(3) 0.2424(9) 1. 0 0.009(1) 
B4 B3+ 4 e 0.776(1) 0.8164(3) 0.6633(9) 1. 0 0.009(1) 
B5 B3+ 4 e 0.324(1) 0.9491(3) 0.155(1) 1. 0 0.015(1) 
O1 O2- 4 e 0.2980(6) 0.8117(2) 0.2336(6) 1. 0 0.0107(7) 
O2 O2- 4 e 0.7261(6) 0.8097(2) 0.4382(6) 1. 0 0.0112(7) 
O3 O2- 4 e 0.6104(6) 0.8279(2) 0.7318(6) 1. 0 0.0116(7) 
O4 O2- 4 e 0.0078(6) 0.8087(2) 0.8285(6) 1. 0 0.0124(7) 
O5 O2- 4 e 0.5016(6) 0.8211(2) 0.0170(6) 1. 0 0.0112(7) 
O6 O2- 4 e 0.9086(6) 0.8343(2) 0.1317(6) 1. 0 0.0131(8) 
O7 O2- 4 e 0.1092(7) 0.9172(2) 0.0309(7) 1. 0 0.0138(8) 
O8 O2- 4 e 0.5248(7) 0.9133(2) 0.2729(7) 1. 0 0.0155(8) 
O9 O2- 4 e 0.796(1) 0.0732(3) 0.412(1) 1. 0 0.033(1) 
O10 O2- 4 e 0.3349(9) 0.0188(2) 0.1608(9) 1. 0 0.029(1) 
H1 H1+ 4 e 0.19(1) 0.033(4) 0.08(1) 1. 0 0.05 
H2 H1+ 4 e 0.89(2) 0.052(4) 0.43(3) 1. 0 0.05 
H3 H1+ 4 e 0.67(2) 0.047(7) 0.39(3) 1. 0 0.05 

#End of data_250069-ICSD


