data_24442-ICSD
#?2014 by Fachinformationszentrum Karlsruhe, and the U.S. Secretary of 
#Commerce on behalf of the United States.  All rights reserved.
_database_code_ICSD                24442
_audit_creation_date               1980/01/01
_audit_update_record               2010/02/01
_chemical_name_systematic          'Calcium Barium Carbonate'
_chemical_formula_structural       'Ca Ba (C O3)2'
_chemical_formula_sum              'C2 Ba1 Ca1 O6'
_chemical_name_mineral             Barytocalcite
_publ_section_title
;
Beitrag zur Kenntnis des Barytocalcits und seiner strukturellen 
Beziehungen zu anderen Stoffen
;
loop_
_citation_id
_citation_journal_abbrev
_citation_year
_citation_journal_volume
_citation_page_first
_citation_page_last
_citation_journal_id_ASTM
primary 'Zentralblatt fuer Mineralogie und Geologie, A' 1930 1930 321 328 ZMGPAS
_publ_author_name                  'Gossner, B.;Mussgnug, F.'
_cell_length_a                     8.15
_cell_length_b                     5.22
_cell_length_c                     6.58
_cell_angle_alpha                  90.
_cell_angle_beta                   106.3
_cell_angle_gamma                  90.
_cell_volume                       268.68
_cell_formula_units_Z              2
_symmetry_space_group_name_H-M     'P 1 21 1'
_symmetry_Int_Tables_number        4
loop_
_symmetry_equiv_pos_site_id
_symmetry_equiv_pos_as_xyz
  1	'-x, y+.5, -z'
  2	'x, y, z'
loop_
_atom_type_symbol
_atom_type_oxidation_number
Ba2+	2
C4+	4
Ca2+	2
O2-	-2
loop_
_atom_site_label
_atom_site_type_symbol
_atom_site_symmetry_multiplicity
_atom_site_Wyckoff_symbol
_atom_site_fract_x
_atom_site_fract_y
_atom_site_fract_z
_atom_site_occupancy
_atom_site_attached_hydrogens
Ca1 Ca2+ 2 a 0.125 0 0.25 1. 0 
Ba1 Ba2+ 2 a 0.625 0 0.25 1. 0 
C1 C4+ 2 a 0.125 0 0.75 1. 0 
C2 C4+ 2 a 0.625 0 0.75 1. 0 
O1 O2- 2 a 0.125 0.3 0.75 1. 0 
O2 O2- 2 a 0.2 0.85 0.6 1. 0 
O3 O2- 2 a 0.05 0.85 0.9 1. 0 
O4 O2- 2 a 0.625 0.7 0.75 1. 0 
O5 O2- 2 a 0.7 0.15 0.6 1. 0 
O6 O2- 2 a 0.55 0.15 0.9 1. 0 

#End of data_24442-ICSD


