data_20124-ICSD
#?2014 by Fachinformationszentrum Karlsruhe, and the U.S. Secretary of 
#Commerce on behalf of the United States.  All rights reserved.
_database_code_ICSD                20124
_audit_creation_date               1980/01/01
_audit_update_record               2003/10/01
_chemical_name_systematic
;
Disodium Dititanium Trioxide Catena-bis(silicate)
;
_chemical_formula_structural       'Na2 Ti2 O3 (Si O3)2'
_chemical_formula_sum              'Na2 O9 Si2 Ti2'
_chemical_name_mineral             Lorenzenite
_publ_section_title
;
The crystalline structure of Ramsayite Na2 Ti2 Si2 O9 = Na2 Ti2 O3 
(Si2 O6)
;
loop_
_citation_id
_citation_journal_abbrev
_citation_year
_citation_journal_volume
_citation_page_first
_citation_page_last
_citation_journal_id_ASTM
primary 'Doklady Akademii Nauk SSSR' 1969 186 820 823 DANKAS
2 'Doklady Akademii Nauk SSSR' 1949 69 805 808 DANKAS
_publ_author_name                  'Hang, C.;Simonov, M.A.;Belov, N.V.'
_cell_length_a                     14.518(3)
_cell_length_b                     8.976(3)
_cell_length_c                     5.081(5)
_cell_angle_alpha                  90.
_cell_angle_beta                   90.
_cell_angle_gamma                  90.
_cell_volume                       662.12
_cell_formula_units_Z              4
_symmetry_space_group_name_H-M     'P n c a'
_symmetry_Int_Tables_number        60
_refine_ls_R_factor_all            .128
loop_
_symmetry_equiv_pos_site_id
_symmetry_equiv_pos_as_xyz
  1	'x+.5, y, -z'
  2	'x, -y+.5, z+.5'
  3	'-x+.5, y+.5, z+.5'
  4	'-x, -y, -z'
  5	'-x+.5, -y, z'
  6	'-x, y+.5, -z+.5'
  7	'x+.5, -y+.5, -z+.5'
  8	'x, y, z'
loop_
_atom_type_symbol
_atom_type_oxidation_number
Na1+	1
O2-	-2
Si4+	4
Ti4+	4
loop_
_atom_site_label
_atom_site_type_symbol
_atom_site_symmetry_multiplicity
_atom_site_Wyckoff_symbol
_atom_site_fract_x
_atom_site_fract_y
_atom_site_fract_z
_atom_site_occupancy
_atom_site_attached_hydrogens
_atom_site_B_iso_or_equiv
Ti1 Ti4+ 8 d 0.169 0.652 0.631 1. 0 0.13 
Si1 Si4+ 8 d 0.026 0.158 0.206 1. 0 0.13 
Na1 Na1+ 8 d 0.155 0.066 0.643 1. 0 0.13 
O1 O2- 4 c 0.25 0 0.014 1. 0 0.13 
O2 O2- 8 d 0.072 0.515 0.741 1. 0 0.13 
O3 O2- 8 d 0.064 0.266 0.449 1. 0 0.13 
O4 O2- 8 d 0.274 0.182 0.443 1. 0 0.13 
O5 O2- 8 d 0.085 0.669 0.292 1. 0 0.13 

#End of data_20124-ICSD


