data_33907-ICSD
#?2014 by Fachinformationszentrum Karlsruhe, and the U.S. Secretary of 
#Commerce on behalf of the United States.  All rights reserved.
_database_code_ICSD                33907
_audit_creation_date               1992/01/20
_audit_update_record               1992/12/30
_chemical_name_systematic
;
Silver Silicate Tetrasilicate (18/2/1)
;
_chemical_formula_structural       'Ag18 (Si O4)2 (Si4 O13)'
_chemical_formula_sum              'Ag18 O21 Si6'
_publ_section_title
;
Ag18(SiO4)2(Si4O13), das erste Silbersilicat mit gemischten Anionen
;
loop_
_citation_id
_citation_journal_abbrev
_citation_year
_citation_journal_volume
_citation_page_first
_citation_page_last
_citation_journal_id_ASTM
primary 'Zeitschrift fuer Anorganische und Allgemeine Chemie (1950) (DE)'
 1991 597 79 86 ZAACAB
2 'Zeitschrift fuer Anorganische und Allgemeine Chemie (1950) (DE)'
 1991 606 242 242 ZAACAB
_publ_author_name                  'Heidebrecht, K.;Jansen, M.'
_cell_length_a                     12.725(1)
_cell_length_b                     9.714(1)
_cell_length_c                     10.730(1)
_cell_angle_alpha                  90.
_cell_angle_beta                   106.8(1)
_cell_angle_gamma                  90.
_cell_volume                       1269.73
_cell_formula_units_Z              2
_symmetry_space_group_name_H-M     'C 1 2/m 1'
_symmetry_Int_Tables_number        12
_refine_ls_R_factor_all            .048
loop_
_symmetry_equiv_pos_site_id
_symmetry_equiv_pos_as_xyz
  1	'-x, y, -z'
  2	'-x, -y, -z'
  3	'x, -y, z'
  4	'x, y, z'
  5	'-x+.5, y+.5, -z'
  6	'-x+.5, -y+.5, -z'
  7	'x+.5, -y+.5, z'
  8	'x+.5, y+.5, z'
loop_
_atom_type_symbol
_atom_type_oxidation_number
Ag1+	1
O2-	-2
Si4+	4
loop_
_atom_site_label
_atom_site_type_symbol
_atom_site_symmetry_multiplicity
_atom_site_Wyckoff_symbol
_atom_site_fract_x
_atom_site_fract_y
_atom_site_fract_z
_atom_site_occupancy
_atom_site_attached_hydrogens
Ag1 Ag1+ 4 i 0.53910(6) 0 0.37109(7) 1. 0 
Ag2 Ag1+ 8 j 0.81954(5) 0.17470(6) 0.13109(5) 1. 0 
Ag3 Ag1+ 8 j 0.27706(9) 0.16978(9) 0.38174(9) 1. 0 
Ag4 Ag1+ 8 j 0.48293(6) 0.34350(8) 0.65010(6) 1. 0 
Ag5 Ag1+ 8 j 0.58361(5) 0.14498(7) 0.13691(6) 1. 0 
Si1 Si4+ 4 i 1.1559(2) 0.5 0.8716(2) 1. 0 
Si2 Si4+ 4 i 1.1993(2) 0 0.6206(2) 1. 0 
Si3 Si4+ 4 i 0.3953(2) 0.5 0.8729(2) 1. 0 
O1 O2- 4 i 1.1286(6) 0.5 0.7148(7) 1. 0 
O2 O2- 4 i 0.7526(6) 0.5 0.7815(6) 1. 0 
O3 O2- 4 i 1.2903(5) 0.5 0.9325(6) 1. 0 
O4 O2- 4 i 0.7961(6) 0.5 0.5477(8) 1. 0 
O5 O2- 2 a 0.5 0.5 0 1. 0 
O6 O2- 8 j 1.1113(4) 0.3619(5) 0.9254(5) 1. 0 
O7 O2- 8 j 1.3889(6) 0.6357(7) 0.7862(7) 1. 0 
O8 O2- 8 j 0.6245(5) 0.3620(6) 0.5754(6) 1. 0 

loop_
_atom_site_aniso_label
_atom_site_aniso_type_symbol
_atom_site_aniso_U_11
_atom_site_aniso_U_22
_atom_site_aniso_U_33
_atom_site_aniso_U_12
_atom_site_aniso_U_13
_atom_site_aniso_U_23
Ag1 Ag1+ 0.0117(3) 0.0378(4) 0.0163(3) 0 0.003(2) 0
Ag2 Ag1+ 0.0281(3) 0.0240(3) 0.0219(3) -.0067(2) 0.0077(2) 0.0024(2)
Ag3 Ag1+ 0.0547(5) 0.0301(3) 0.0571(5) -.0112(3) 0.0326(4) -.0119(3)
Ag4 Ag1+ 0.0289(3) 0.0384(4) 0.0254(3) 0.0031(2) 0.0135(2) 0.0026(2)
Ag5 Ag1+ 0.0246(3) 0.0258(3) 0.0303(3) 0.0002(2) 0.0106(2) -.0042(2)
Si1 Si4+ 0.0088(7) 0.0183(9) 0.0136(8) 0 0.0047(6) 0
Si2 Si4+ 0.0112(8) 0.021(1) 0.0119(8) 0 0.0031(6) 0
Si3 Si4+ 0.0095(8) 0.022(1) 0.0142(8) 0 0.0047(7) 0
O1 O2- 0.014(2) 0.043(4) 0.013(2) 0 0.006(2) 0
O2 O2- 0.022(2) 0.021(3) 0.011(2) 0 0.004(2) 0
O3 O2- 0.009(2) 0.037(3) 0.012(2) 0 0.002(2) 0
O4 O2- 0.009(2) 0.058(5) 0.018(2) 0 0.007(2) 0
O5 O2- 0.039(4) 0.039(4) 0.027(5) 0.00(1) 0.000(5) -.003(5)
O6 O2- 0.017(2) 0.018(2) 0.022(2) -.001(1) 0.010(1) 0.000(1)
O7 O2- 0.039(3) 0.019(2) 0.031(2) -.004(2) 0.022(2) 0.000(2)
O8 O2- 0.017(2) 0.022(2) 0.025(2) 0.000(2) 0.002(2) -.002(2)
#End of data_33907-ICSD


