data_73731-ICSD
#?2014 by Fachinformationszentrum Karlsruhe, and the U.S. Secretary of 
#Commerce on behalf of the United States.  All rights reserved.
_database_code_ICSD                73731
_audit_creation_date               1995/01/10
_audit_update_record               1998/06/29
_chemical_name_systematic          'Magnesium Carbonate'
_chemical_formula_structural       'Mg (C O3)'
_chemical_formula_sum              'C1 Mg1 O3'
_chemical_name_mineral             Magnesite
_publ_section_title
;
X-ray study of the electron density in magnesite, Mg C O3
;
loop_
_citation_id
_citation_journal_abbrev
_citation_year
_citation_journal_volume
_citation_page_first
_citation_page_last
_citation_journal_id_ASTM
primary 'Acta Crystallographica, Section B: Structural Science'
 1993 49 980 984 ASBSDK
_publ_author_name
;
Maslen, E.N.;Strel'tsov, V.A.;Strel'tsova, N.R.
;
_cell_length_a                     4.635(1)
_cell_length_b                     4.635(1)
_cell_length_c                     15.023(2)
_cell_angle_alpha                  90.
_cell_angle_beta                   90.
_cell_angle_gamma                  120.
_cell_volume                       279.5
_cell_formula_units_Z              6
_symmetry_space_group_name_H-M     'R -3 c H'
_symmetry_Int_Tables_number        167
_refine_ls_R_factor_all            .022
loop_
_symmetry_equiv_pos_site_id
_symmetry_equiv_pos_as_xyz
  1	'x-y, -y, -z+.5'
  2	'-x, -x+y, -z+.5'
  3	'y, x, -z+.5'
  4	'x-y, x, -z'
  5	'y, -x+y, -z'
  6	'-x, -y, -z'
  7	'-x+y, y, z+.5'
  8	'x, x-y, z+.5'
  9	'-y, -x, z+.5'
 10	'-x+y, -x, z'
 11	'-y, x-y, z'
 12	'x, y, z'
 13	'x-y+.6666, -y+.3333, -z+.8333'
 14	'x-y+.3333, -y+.6666, -z+.1666'
 15	'-x+.6666, -x+y+.3333, -z+.8333'
 16	'-x+.3333, -x+y+.6666, -z+.1666'
 17	'y+.6666, x+.3333, -z+.8333'
 18	'y+.3333, x+.6666, -z+.1666'
 19	'x-y+.6666, x+.3333, -z+.3333'
 20	'x-y+.3333, x+.6666, -z+.6666'
 21	'y+.6666, -x+y+.3333, -z+.3333'
 22	'y+.3333, -x+y+.6666, -z+.6666'
 23	'-x+.6666, -y+.3333, -z+.3333'
 24	'-x+.3333, -y+.6666, -z+.6666'
 25	'-x+y+.6666, y+.3333, z+.8333'
 26	'-x+y+.3333, y+.6666, z+.1666'
 27	'x+.6666, x-y+.3333, z+.8333'
 28	'x+.3333, x-y+.6666, z+.1666'
 29	'-y+.6666, -x+.3333, z+.8333'
 30	'-y+.3333, -x+.6666, z+.1666'
 31	'-x+y+.6666, -x+.3333, z+.3333'
 32	'-x+y+.3333, -x+.6666, z+.6666'
 33	'-y+.6666, x-y+.3333, z+.3333'
 34	'-y+.3333, x-y+.6666, z+.6666'
 35	'x+.6666, y+.3333, z+.3333'
 36	'x+.3333, y+.6666, z+.6666'
loop_
_atom_type_symbol
_atom_type_oxidation_number
C4+	4
Mg2+	2
O2-	-2
loop_
_atom_site_label
_atom_site_type_symbol
_atom_site_symmetry_multiplicity
_atom_site_Wyckoff_symbol
_atom_site_fract_x
_atom_site_fract_y
_atom_site_fract_z
_atom_site_occupancy
_atom_site_attached_hydrogens
Mg1 Mg2+ 6 b 0 0 0 1. 0 
C1 C4+ 6 a 0 0 0.25 1. 0 
O1 O2- 18 e 0.2774(1) 0 0.25 1. 0 

loop_
_atom_site_aniso_label
_atom_site_aniso_type_symbol
_atom_site_aniso_U_11
_atom_site_aniso_U_22
_atom_site_aniso_U_33
_atom_site_aniso_U_12
_atom_site_aniso_U_13
_atom_site_aniso_U_23
Mg1 Mg2+ 0.0058(1) 0.0058(1) 0.0067(2) 0.0029(1) 0 0
C1 C4+ 0.0059(3) 0.0059(3) 0.0054(4) 0.0029(2) 0 0
O1 O2- 0.0056(1) 0.0079(2) 0.0092(2) 0.0039(1) -.00054(8) -.00108(16)
#End of data_73731-ICSD


