data_85006-ICSD
#?2014 by Fachinformationszentrum Karlsruhe, and the U.S. Secretary of 
#Commerce on behalf of the United States.  All rights reserved.
_database_code_ICSD                85006
_audit_creation_date               1999/06/02
_audit_update_record               2007/08/01
_chemical_name_systematic          'Dipotassium Zinc Germanate - Alpha'
_chemical_formula_structural       'K2 Zn (Ge O4)'
_chemical_formula_sum              'Ge1 K2 O4 Zn1'
_publ_section_title
;
Crystal structures of the alpha and beta forms of K2 Zn Ge O4
;
loop_
_citation_id
_citation_journal_abbrev
_citation_year
_citation_journal_volume
_citation_page_first
_citation_page_last
_citation_journal_id_ASTM
primary 'Journal of Solid State Chemistry' 1997 134 59 66 JSSCBI
2 'Powder Diffraction' 1997 12 138 140 PODIE2
_publ_author_name
;
Colbeau-Justin, C.;Wallez, G.;Elfakir, A.;Quarton, M.;Suard, E.
;
_cell_length_a                     11.1131(4)
_cell_length_b                     5.5369(2)
_cell_length_c                     15.8629(5)
_cell_angle_alpha                  90.
_cell_angle_beta                   90.
_cell_angle_gamma                  90.
_cell_volume                       976.08
_cell_formula_units_Z              8
_symmetry_space_group_name_H-M     'P c a 21'
_symmetry_Int_Tables_number        29
_refine_ls_R_factor_all            .048
loop_
_symmetry_equiv_pos_site_id
_symmetry_equiv_pos_as_xyz
  1	'x+.5, -y, z'
  2	'-x+.5, y, z+.5'
  3	'-x, -y, z+.5'
  4	'x, y, z'
loop_
_atom_type_symbol
_atom_type_oxidation_number
Ge4+	4
K1+	1
O2-	-2
Zn2+	2
loop_
_atom_site_label
_atom_site_type_symbol
_atom_site_symmetry_multiplicity
_atom_site_Wyckoff_symbol
_atom_site_fract_x
_atom_site_fract_y
_atom_site_fract_z
_atom_site_occupancy
_atom_site_attached_hydrogens
_atom_site_B_iso_or_equiv
Zn1 Zn2+ 4 a 0.2366(12) 0.0246(20) 0.7543(10) 1. 0 0.6(2) 
Zn2 Zn2+ 4 a 0.0105(12) 0.5039(17) 0 1. 0 0.6(2) 
Ge1 Ge4+ 4 a 0.0082(7) 0.0169(10) 0.1225(9) 1. 0 0.10(8) 
Ge2 Ge4+ 4 a 0.2356(7) 0.5374(12) 0.3795(9) 1. 0 0.10(8) 
K1 K1+ 4 a 0.0222(15) 0.5167(28) 0.2467(13) 1. 0 0.88(9) 
K2 K1+ 4 a 0.0091(14) 0.0044(33) 0.8736(16) 1. 0 0.88(9) 
K3 K1+ 4 a 0.2301(17) 0.5464(29) 0.6309(15) 1. 0 0.88(9) 
K4 K1+ 4 a 0.2407(15) 0.0586(32) 0.4941(13) 1. 0 0.88(9) 
O1 O2- 4 a 0.161(1) 0.0656(18) 0.1493(11) 1. 0 1.10(5) 
O2 O2- 4 a 0.1702(10) 0.5882(17) 0.9669(12) 1. 0 1.10(5) 
O3 O2- 4 a 0.2016(11) 0.3379(18) 0.8041(11) 1. 0 1.10(5) 
O4 O2- 4 a 0.1961(11) 0.8066(16) 0.3319(11) 1. 0 1.10(5) 
O5 O2- 4 a 0.0877(11) 0.8947(19) 0.7075(11) 1. 0 1.10(5) 
O6 O2- 4 a 0.0926(11) 0.4116(19) 0.4089(11) 1. 0 1.10(5) 
O7 O2- 4 a 0.0272(10) 0.8316(18) 0.5320(12) 1. 0 1.10(5) 
O8 O2- 4 a 0.0139(10) 0.3038(16) 0.6033(11) 1. 0 1.10(5) 

#End of data_85006-ICSD


