data_24740-ICSD
#?2014 by Fachinformationszentrum Karlsruhe, and the U.S. Secretary of 
#Commerce on behalf of the United States.  All rights reserved.
_database_code_ICSD                24740
_audit_creation_date               1986/10/06
_audit_update_record               2000/12/16
_chemical_name_systematic          'Potassium Tetraantimony Fluoride'
_chemical_formula_structural       'K Sb4 F13'
_chemical_formula_sum              'F13 K1 Sb4'
_publ_section_title
;
The crystal structure of K Sb4 F13 and isomorphous compounds
;
loop_
_citation_id
_citation_journal_abbrev
_citation_year
_citation_journal_volume
_citation_page_first
_citation_page_last
_citation_journal_id_ASTM
primary 'Arkiv foer Kemi' 1951 3 17 30 ARKEAD
_publ_author_name                  'Bystroem, A.;Wilhelmi, K.A.'
_cell_length_a                     9.636(5)
_cell_length_b                     9.636(5)
_cell_length_c                     6.365(3)
_cell_angle_alpha                  90.
_cell_angle_beta                   90.
_cell_angle_gamma                  90.
_cell_volume                       591.01
_cell_formula_units_Z              2
_symmetry_space_group_name_H-M     'I 4/m'
_symmetry_Int_Tables_number        87
loop_
_symmetry_equiv_pos_site_id
_symmetry_equiv_pos_as_xyz
  1	'-y, x, -z'
  2	'y, -x, -z'
  3	'x, y, -z'
  4	'-x, -y, -z'
  5	'y, -x, z'
  6	'-y, x, z'
  7	'-x, -y, z'
  8	'x, y, z'
  9	'-y+.5, x+.5, -z+.5'
 10	'y+.5, -x+.5, -z+.5'
 11	'x+.5, y+.5, -z+.5'
 12	'-x+.5, -y+.5, -z+.5'
 13	'y+.5, -x+.5, z+.5'
 14	'-y+.5, x+.5, z+.5'
 15	'-x+.5, -y+.5, z+.5'
 16	'x+.5, y+.5, z+.5'
loop_
_atom_type_symbol
_atom_type_oxidation_number
F1-	-1
K1+	1
Sb3+	3
loop_
_atom_site_label
_atom_site_type_symbol
_atom_site_symmetry_multiplicity
_atom_site_Wyckoff_symbol
_atom_site_fract_x
_atom_site_fract_y
_atom_site_fract_z
_atom_site_occupancy
_atom_site_attached_hydrogens
K1 K1+ 2 b 0 0 0.5 1. 0 
Sb1 Sb3+ 8 h 0.298 0.0194 0 1. 0 
F1 F1- 2 a 0 0 0 1. 0 
F2 F1- 8 h -.153 -.403 0 1. 0 
F3 F1- 16 i 0.097 0.208 0.236 1. 0 

#End of data_24740-ICSD


