data_152595-ICSD
#?2014 by Fachinformationszentrum Karlsruhe, and the U.S. Secretary of 
#Commerce on behalf of the United States.  All rights reserved.
_database_code_ICSD                152595
_audit_creation_date               2006/10/01
_chemical_name_systematic
;
Trizinc Tetrairon(III) Hexakis(vanadate)
;
_chemical_formula_structural       'Zn3 Fe4 (V O4)6'
_chemical_formula_sum              'Fe4 O24 V6 Zn3'
_publ_section_title
;
Neutron diffraction study of Zn3 Fe4 (V O4)6
;
loop_
_citation_id
_citation_journal_abbrev
_citation_year
_citation_journal_volume
_citation_page_first
_citation_page_last
_citation_journal_id_ASTM
primary 'Journal of Alloys and Compounds' 2005 391 20 25 JALCEU
_publ_author_name
;
Guskos, N.;Bezkrovnyi, A.;Typek, J.;Ryabova, N.Yu.;Blonska-Tabero, 
A.;Kurzawa, M.;Maryniak, M.
;
_cell_length_a                     6.682(1)
_cell_length_b                     8.021(1)
_cell_length_c                     9.780(1)
_cell_angle_alpha                  105.21(1)
_cell_angle_beta                   105.01(1)
_cell_angle_gamma                  102.18(1)
_cell_volume                       466.16
_cell_formula_units_Z              1
_symmetry_space_group_name_H-M     'P -1'
_symmetry_Int_Tables_number        2
loop_
_symmetry_equiv_pos_site_id
_symmetry_equiv_pos_as_xyz
  1	'-x, -y, -z'
  2	'x, y, z'
loop_
_atom_type_symbol
_atom_type_oxidation_number
Fe3+	3
O2-	-2
V5+	5
Zn2+	2
loop_
_atom_site_label
_atom_site_type_symbol
_atom_site_symmetry_multiplicity
_atom_site_Wyckoff_symbol
_atom_site_fract_x
_atom_site_fract_y
_atom_site_fract_z
_atom_site_occupancy
_atom_site_attached_hydrogens
Zn1 Zn2+ 1 g 0 0.5 0.5 1. 0 
Zn2 Zn2+ 2 i 0.727(2) 0.713(2) 0.216(1) 1. 0 
Fe1 Fe3+ 2 i 0.377(1) 0.947(1) 0.605(1) 1. 0 
Fe2 Fe3+ 2 i 0.045(1) 0.208(1) 0.013(1) 1. 0 
V1 V5+ 2 i 0.8917(3) 0.8998(3) 0.6644(3) 1. 0 
V2 V5+ 2 i 0.2208(3) 0.6546(2) 0.2699(3) 1. 0 
V3 V5+ 2 i 0.5030(3) 0.2681(2) 0.1236(2) 1. 0 
O1 O2- 2 i 0.096(3) 0.060(2) 0.149(2) 1. 0 
O2 O2- 2 i 0.568(2) 0.132(2) 0.216(2) 1. 0 
O3 O2- 2 i 0.185(2) 0.431(2) 0.188(1) 1. 0 
O4 O2- 2 i 0.991(2) 0.282(2) 0.836(1) 1. 0 
O5 O2- 2 i 0.245(2) 0.790(2) 0.973(1) 1. 0 
O6 O2- 2 i 0.866(3) 0.954(2) 0.343(2) 1. 0 
O7 O2- 2 i 0.533(2) 0.234(2) 0.740(2) 1. 0 
O8 O2- 2 i 0.340(2) 0.242(2) 0.985(2) 1. 0 
O9 O2- 2 i 0.319(3) 0.032(2) 0.418(2) 1. 0 
O10 O2- 2 i 0.214(3) 0.690(2) 0.460(2) 1. 0 
O11 O2- 2 i 0.709(2) 0.495(2) 0.254(1) 1. 0 
O12 O2- 2 i 0.137(3) 0.303(2) 0.415(2) 1. 0 

#End of data_152595-ICSD


