data_74525-ICSD
#?2014 by Fachinformationszentrum Karlsruhe, and the U.S. Secretary of 
#Commerce on behalf of the United States.  All rights reserved.
_database_code_ICSD                74525
_audit_creation_date               1995/10/17
_chemical_name_systematic
;
Tetralithium Chloride Tris(beryllophosphate)
;
_chemical_formula_structural       'Li4 Cl (Be P O4)3'
_chemical_formula_sum              'Be3 Cl1 Li4 O12 P3'
_publ_section_title
;
Two lithium chloroberyllo(phosphate/arsenate) sodalites: 
Li4Cl(BePO4)3 and Li4Cl(BeAsO4)3
;
loop_
_citation_id
_citation_journal_abbrev
_citation_year
_citation_journal_volume
_citation_page_first
_citation_page_last
_citation_journal_id_ASTM
primary 'Acta Crystallographica, Section C: Crystal Structure Communications'
 1994 50 471 473 ACSCEE
_publ_author_name
;
Harrison, W.T.A.;Gier, T.E.;Stucky, G.D.
;
_cell_length_a                     8.0269(3)
_cell_length_b                     8.0269(3)
_cell_length_c                     8.0269(3)
_cell_angle_alpha                  90.
_cell_angle_beta                   90.
_cell_angle_gamma                  90.
_cell_volume                       517.18
_cell_formula_units_Z              2
_symmetry_space_group_name_H-M     'P -4 3 n'
_symmetry_Int_Tables_number        218
_refine_ls_R_factor_all            .103
loop_
_symmetry_equiv_pos_site_id
_symmetry_equiv_pos_as_xyz
  1	'-z+.5, y+.5, -x+.5'
  2	'-y+.5, x+.5, -z+.5'
  3	'-x+.5, z+.5, -y+.5'
  4	'z+.5, -y+.5, -x+.5'
  5	'y+.5, -x+.5, -z+.5'
  6	'x+.5, -z+.5, -y+.5'
  7	'-z+.5, -y+.5, x+.5'
  8	'-y+.5, -x+.5, z+.5'
  9	'-x+.5, -z+.5, y+.5'
 10	'z+.5, y+.5, x+.5'
 11	'y+.5, x+.5, z+.5'
 12	'x+.5, z+.5, y+.5'
 13	'-z, -x, y'
 14	'-y, -z, x'
 15	'-x, -y, z'
 16	'z, -x, -y'
 17	'y, -z, -x'
 18	'x, -y, -z'
 19	'-z, x, -y'
 20	'-y, z, -x'
 21	'-x, y, -z'
 22	'z, x, y'
 23	'y, z, x'
 24	'x, y, z'
loop_
_atom_type_symbol
_atom_type_oxidation_number
Be2+	2
Cl1-	-1
Li1+	1
O2-	-2
P5+	5
loop_
_atom_site_label
_atom_site_type_symbol
_atom_site_symmetry_multiplicity
_atom_site_Wyckoff_symbol
_atom_site_fract_x
_atom_site_fract_y
_atom_site_fract_z
_atom_site_occupancy
_atom_site_attached_hydrogens
_atom_site_U_iso_or_equiv
Be1 Be2+ 6 d 0.25 0 0.5 1. 0 0.016(4) 
P1 P5+ 6 c 0.25 0.5 0 1. 0 0.0075(7) 
O1 O2- 24 i 0.14281(28) 0.41448(30) 0.13778(27) 1. 0 0.0020(9) 
Li1 Li1+ 8 e 0.1814(10) 0.1814(10) 0.1814(10) 1. 0 0.010(9) 
Cl1 Cl1- 2 a 0 0 0 1. 0 0.013(2) 

#End of data_74525-ICSD


