data_411490-ICSD
#?2014 by Fachinformationszentrum Karlsruhe, and the U.S. Secretary of 
#Commerce on behalf of the United States.  All rights reserved.
_database_code_ICSD                411490
_audit_creation_date               2002/10/01
_chemical_name_systematic
;
Silver Hexamanganese Bis(diphosphate(V)) Triphosphate(V)
;
_chemical_formula_structural       'Ag Mn6 (P2 O7)2 (P3 O10)'
_chemical_formula_sum              'Ag1 Mn6 O24 P7'
_publ_section_title
;
Identification of a new family of phosphate compounds, A(I) B(II)6 
(P2 O7)2 P3 O10: structures of K Mn6 (P2 O7)2 P3 O10 and Ag Mn6 (P2 
O7)2 P3 O10
;
loop_
_citation_id
_citation_journal_abbrev
_citation_year
_citation_journal_volume
_citation_page_first
_citation_page_last
_citation_journal_id_ASTM
primary 'Solid State Sciences' 2001 3 587 592 SSSCFJ
_publ_author_name
;
Bennazha, J.;ElMaadi, A.;Boukhari, A.;Holt, E.M.
;
_cell_length_a                     5.424(7)
_cell_length_b                     26.970(40)
_cell_length_c                     6.627(9)
_cell_angle_alpha                  90.
_cell_angle_beta                   106.81(7)
_cell_angle_gamma                  90.
_cell_volume                       928.01
_cell_formula_units_Z              2
_symmetry_space_group_name_H-M     'P 1 21/m 1'
_symmetry_Int_Tables_number        11
_refine_ls_R_factor_all            .0834
loop_
_symmetry_equiv_pos_site_id
_symmetry_equiv_pos_as_xyz
  1	'x, -y+.5, z'
  2	'-x, -y, -z'
  3	'-x, y+.5, -z'
  4	'x, y, z'
loop_
_atom_type_symbol
_atom_type_oxidation_number
Ag1+	1
Mn2+	2
O2-	-2
P5+	5
loop_
_atom_site_label
_atom_site_type_symbol
_atom_site_symmetry_multiplicity
_atom_site_Wyckoff_symbol
_atom_site_fract_x
_atom_site_fract_y
_atom_site_fract_z
_atom_site_occupancy
_atom_site_attached_hydrogens
Mn1 Mn2+ 4 f 0.2097(3) 0.40175(6) 0.0856(2) 1. 0 
Mn2 Mn2+ 4 f -.1233(3) 0.31637(6) -.2804(3) 1. 0 
Ag1 Ag1+ 2 e 0.2437(4) 0.25 0.4005(3) 1. 0 
Mn3 Mn2+ 4 f -.1840(3) 0.45570(6) 0.3151(2) 1. 0 
P1 P5+ 2 e -.5462(8) 0.25 -.0892(6) 1. 0 
O1 O2- 2 e -.833(2) 0.25 -.2080(17) 1. 0 
O2 O2- 2 e -.360(2) 0.25 -.2220(17) 1. 0 
O3 O2- 4 f -.4968(14) 0.2963(3) 0.0658(12) 1. 0 
P2 P5+ 4 f -.2488(6) 0.33174(10) 0.1923(4) 1. 0 
O4 O2- 4 f -.0674(14) 0.3344(3) 0.0534(12) 1. 0 
O5 O2- 4 f -.3846(14) 0.3802(3) 0.2096(12) 1. 0 
O6 O2- 4 f -.1202(16) 0.3049(3) 0.3997(12) 1. 0 
P3 P5+ 4 f 0.6822(5) 0.60972(10) 0.3846(4) 1. 0 
O7 O2- 4 f 0.8562(14) 0.5958(3) 0.6036(11) 1. 0 
O8 O2- 4 f 0.8428(16) 0.6229(3) 0.2351(11) 1. 0 
O9 O2- 4 f 0.4849(17) 0.6488(3) 0.3878(13) 1. 0 
O10 O2- 4 f 0.5449(16) 0.5584(3) 0.2938(13) 1. 0 
P4 P5+ 4 f 0.2900(5) 0.52465(10) 0.2044(4) 1. 0 
O11 O2- 4 f 0.1307(14) 0.5482(3) -.0005(11) 1. 0 
O12 O2- 4 f 0.4122(15) 0.4746(3) 0.1753(12) 1. 0 
O13 O2- 4 f 0.1403(16) 0.5212(3) 0.3666(12) 1. 0 

loop_
_atom_site_aniso_label
_atom_site_aniso_type_symbol
_atom_site_aniso_U_11
_atom_site_aniso_U_22
_atom_site_aniso_U_33
_atom_site_aniso_U_12
_atom_site_aniso_U_13
_atom_site_aniso_U_23
Mn1 Mn2+ 0.0234(9) 0.0152(9) 0.0188(8) -.0003(7) 0.0060(7) -.0017(6)
Mn2 Mn2+ 0.0221(9) 0.0157(9) 0.0203(8) 0.0014(7) 0.0060(7) 0.0006(7)
Ag1 Ag1+ 0.0487(11) 0.0838(15) 0.0485(10) 0 0.0163(8) 0
Mn3 Mn2+ 0.0236(9) 0.0182(9) 0.0190(8) 0.0023(7) 0.0066(7) -.0012(7)
P1 P5+ 0.021(2) 0.015(2) 0.0199(18) 0 0.0070(16) 0
O1 O2- 0.016(6) 0.020(6) 0.024(5) 0 0.004(5) 0
O2 O2- 0.030(6) 0.025(6) 0.027(6) 0 0.013(5) 0
O3 O2- 0.020(4) 0.013(4) 0.031(4) -.002(3) 0.007(3) -.007(3)
P2 P5+ 0.0237(16) 0.0131(14) 0.0176(13) -.0002(11) 0.0056(12) -.0007(10)
O4 O2- 0.017(4) 0.027(4) 0.023(4) -.007(3) 0.005(3) -.004(3)
O5 O2- 0.023(4) 0.018(4) 0.024(4) 0.000(3) 0.005(3) -.003(3)
O6 O2- 0.040(5) 0.018(4) 0.022(4) -.003(4) 0.013(4) -.001(3)
P3 P5+ 0.0201(15) 0.0150(14) 0.0171(13) 0.0003(11) 0.0047(11) 0.0005(10)
O7 O2- 0.025(4) 0.005(3) 0.022(4) 0.001(3) 0.003(3) 0.000(3)
O8 O2- 0.032(5) 0.018(4) 0.021(4) -.004(4) 0.010(3) -.002(3)
O9 O2- 0.035(5) 0.038(5) 0.033(5) 0.012(4) 0.015(4) 0.005(4)
O10 O2- 0.031(5) 0.021(4) 0.033(4) -.010(4) 0.003(4) -.004(4)
P4 P5+ 0.0212(15) 0.0139(14) 0.0188(13) -.0006(11) 0.0049(12) -.0002(11)
O11 O2- 0.019(4) 0.014(4) 0.019(3) 0.002(3) 0.002(3) 0.001(3)
O12 O2- 0.029(4) 0.015(4) 0.024(4) -.003(3) 0.006(3) -.004(3)
O13 O2- 0.034(5) 0.022(4) 0.023(4) 0.000(4) 0.010(4) -.002(3)
#End of data_411490-ICSD


