data_34195-ICSD
#?2014 by Fachinformationszentrum Karlsruhe, and the U.S. Secretary of 
#Commerce on behalf of the United States.  All rights reserved.
_database_code_ICSD                34195
_audit_creation_date               1980/01/01
_audit_update_record               1999/01/19
_chemical_name_systematic          'Magnesium Iron Catena-disilicate'
_chemical_formula_structural       'Mg Fe (Si2 O6)'
_chemical_formula_sum              'Fe1 Mg1 O6 Si2'
_chemical_name_mineral             'Enstatite, ferroan'
_publ_section_title
;
The crystal structure and thermal history of orthopyroxene from lunar 
anorthosite 15415
;
loop_
_citation_id
_citation_journal_abbrev
_citation_year
_citation_journal_volume
_citation_page_first
_citation_page_last
_citation_journal_id_ASTM
primary 'Earth and Planetary Science Letters' 1978 37 476 484 EPSLA2
_publ_author_name
;
Evans, H.T.jr.;Huebner, J.S.;Konnert, J.A.
;
_cell_length_a                     18.310(15)
_cell_length_b                     8.904(10)
_cell_length_c                     5.214(7)
_cell_angle_alpha                  90.
_cell_angle_beta                   90.
_cell_angle_gamma                  90.
_cell_volume                       850.05
_cell_formula_units_Z              8
_symmetry_space_group_name_H-M     'P b c a'
_symmetry_Int_Tables_number        61
_refine_ls_R_factor_all            .092
loop_
_symmetry_equiv_pos_site_id
_symmetry_equiv_pos_as_xyz
  1	'x+.5, y, -z+.5'
  2	'x, -y+.5, z+.5'
  3	'-x+.5, y+.5, z'
  4	'-x, -y, -z'
  5	'-x+.5, -y, z+.5'
  6	'-x, y+.5, -z+.5'
  7	'x+.5, -y+.5, -z'
  8	'x, y, z'
loop_
_atom_type_symbol
_atom_type_oxidation_number
Fe2+	2
Mg2+	2
O2-	-2
Si4+	4
loop_
_atom_site_label
_atom_site_type_symbol
_atom_site_symmetry_multiplicity
_atom_site_Wyckoff_symbol
_atom_site_fract_x
_atom_site_fract_y
_atom_site_fract_z
_atom_site_occupancy
_atom_site_attached_hydrogens
Mg1 Mg2+ 8 c 0.3753(3) 0.6540(3) 0.8744(8) 1. 0 
Fe1 Fe2+ 8 c 0.3780(2) 0.4832(3) 0.3673(5) 1. 0 
Si1 Si4+ 8 c 0.4737(3) 0.3364(5) 0.7956(7) 1. 0 
Si2 Si4+ 8 c 0.2718(3) 0.3408(5) 0.0515(8) 1. 0 
O1 O2- 8 c 0.5622(6) 0.3374(14) 0.7991(19) 1. 0 
O2 O2- 8 c 0.3115(6) 0.5011(12) 0.0534(19) 1. 0 
O3 O2- 8 c 0.4466(6) 0.204(1) 0.5946(17) 1. 0 
O4 O2- 8 c 0.1839(7) 0.3380(13) 0.0411(20) 1. 0 
O5 O2- 8 c 0.4349(6) 0.4837(12) 0.6956(17) 1. 0 
O6 O2- 8 c 0.3025(5) 0.2309(10) 0.8242(21) 1. 0 

loop_
_atom_site_aniso_label
_atom_site_aniso_type_symbol
_atom_site_aniso_U_11
_atom_site_aniso_U_22
_atom_site_aniso_U_33
_atom_site_aniso_U_12
_atom_site_aniso_U_13
_atom_site_aniso_U_23
Mg1 Mg2+ 0.018(2) 0.017(2) 0.013(2) 0.000(2) -.003(2) 0.002(2)
Fe1 Fe2+ 0.025(2) 0.017(1) 0.017(1) 0.000(1) -.002(1) 0.000(1)
Si1 Si4+ 0.021(2) 0.012(2) 0.013(2) 0.000(2) 0.001(2) 0.001(1)
Si2 Si4+ 0.024(2) 0.014(2) 0.012(2) 0.000(2) -.001(2) 0.001(2)
O1 O2- 0.010(5) 0.036(6) 0.017(4) -.003(6) 0.001(5) -.001(5)
O2 O2- 0.016(6) 0.025(6) 0.016(5) -.005(5) -.002(4) 0.003(5)
O3 O2- 0.025(6) 0.011(5) 0.009(5) -.002(4) 0.001(5) -.007(4)
O4 O2- 0.023(6) 0.020(5) 0.025(5) -.005(5) 0.006(4) 0.007(6)
O5 O2- 0.032(7) 0.028(6) 0.007(4) 0.009(6) -.008(4) 0.001(4)
O6 O2- 0.022(6) 0.004(4) 0.023(5) 0.002(4) 0.000(5) -.005(4)
#End of data_34195-ICSD


