data_15186-ICSD
#?2014 by Fachinformationszentrum Karlsruhe, and the U.S. Secretary of 
#Commerce on behalf of the United States.  All rights reserved.
_database_code_ICSD                15186
_audit_creation_date               1986/08/08
_audit_update_record               2012/02/01
_chemical_name_systematic
;
Sodium Iron Boron Aluminium Silicate Fluoride Hydroxide *
;
_chemical_formula_structural       'Na Fe3 B3 Al6 Si6 O27 (O H)3 F'
_chemical_formula_sum              'H3 Al6 B3 F1 Fe3 Na1 O30 Si6'
_chemical_name_mineral             Buergerite
_publ_section_title
;
A neutron diffraction study of the ferric tourmaline, Buergerite
;
loop_
_citation_id
_citation_journal_abbrev
_citation_year
_citation_journal_volume
_citation_page_first
_citation_page_last
_citation_journal_id_ASTM
primary 'American Mineralogist' 1971 56 101 113 AMMIAY
_publ_author_name                  'Tippe, A.;Hamilton, W.C.'
_cell_length_a                     15.869
_cell_length_b                     15.869
_cell_length_c                     7.188
_cell_angle_alpha                  90.
_cell_angle_beta                   90.
_cell_angle_gamma                  120.
_cell_volume                       1567.61
_cell_formula_units_Z              3
_symmetry_space_group_name_H-M     'R 3 m H'
_symmetry_Int_Tables_number        160
_refine_ls_R_factor_all            .034
loop_
_symmetry_equiv_pos_site_id
_symmetry_equiv_pos_as_xyz
  1	'-x+y, y, z'
  2	'x, x-y, z'
  3	'-y, -x, z'
  4	'-x+y, -x, z'
  5	'-y, x-y, z'
  6	'x, y, z'
  7	'-x+y+.6666, y+.3333, z+.3333'
  8	'-x+y+.3333, y+.6666, z+.6666'
  9	'x+.6666, x-y+.3333, z+.3333'
 10	'x+.3333, x-y+.6666, z+.6666'
 11	'-y+.6666, -x+.3333, z+.3333'
 12	'-y+.3333, -x+.6666, z+.6666'
 13	'-x+y+.6666, -x+.3333, z+.3333'
 14	'-x+y+.3333, -x+.6666, z+.6666'
 15	'-y+.6666, x-y+.3333, z+.3333'
 16	'-y+.3333, x-y+.6666, z+.6666'
 17	'x+.6666, y+.3333, z+.3333'
 18	'x+.3333, y+.6666, z+.6666'
loop_
_atom_type_symbol
_atom_type_oxidation_number
Al3+	3
B3+	3
F1-	-1
Fe2+	2
H1+	1
Na1+	1
O2-	-2
Si4+	4
loop_
_atom_site_label
_atom_site_type_symbol
_atom_site_symmetry_multiplicity
_atom_site_Wyckoff_symbol
_atom_site_fract_x
_atom_site_fract_y
_atom_site_fract_z
_atom_site_occupancy
_atom_site_attached_hydrogens
_atom_site_B_iso_or_equiv
Na1 Na1+ 3 a 0 0 0.2119(14) 1. 0 0 
B1 B3+ 9 b 0.11001(9) -.11001(9) 0.45172(50) 1. 0 0 
Fe1 Fe2+ 9 b -.06614(8) 0.06614(8) 0.62217(48) 1. 0 0 
Si1 Si4+ 18 c 0.19171(17) 0.19087(17) 0 1. 0 0 
Al1 Al3+ 18 c 0.29925(19) 0.25919(18) 0.60450(54) 1. 0 0 
F1 F1- 3 a 0 0 0.76850(74) 1. 0 0 
O1 O2- 9 b 0.06042(9) -.06042(9) 0.48532(54) 1. 0 0 
O2 O2- 9 b -.13205(10) 0.13205(10) 0.52026(48) 1. 0 0 
O3 O2- 9 b 0.09463(9) -.09463(9) 0.07612(50) 1. 0 0 
O4 O2- 9 b -.09117(11) 0.09117(11) 0.08362(52) 1. 0 0 
O5 O2- 18 c 0.19320(13) 0.18712(12) 0.77538(41) 1. 0 0 
O6 O2- 18 c 0.28708(12) 0.28592(11) 0.07513(44) 1. 0 0 
O7 O2- 18 c 0.20925(13) 0.26971(12) 0.43868(43) 1. 0 0 
H1 H1+ 9 b -.1313(19) 0.1313(19) 0.3889(72) 1. 0 2.4 

#End of data_15186-ICSD


