data_26803-ICSD
#?2014 by Fachinformationszentrum Karlsruhe, and the U.S. Secretary of 
#Commerce on behalf of the United States.  All rights reserved.
_database_code_ICSD                26803
_audit_creation_date               1980/01/01
_audit_update_record               1987/10/13
_chemical_name_systematic          'Potassium Manganate(VII) Chromate'
_chemical_formula_structural       'K3 Mn O4 Cr O4'
_chemical_formula_sum              'Cr1 K3 Mn1 O8'
_publ_section_title                'The structure of K3 Mn O4 Cr O4'
loop_
_citation_id
_citation_journal_abbrev
_citation_year
_citation_journal_volume
_citation_page_first
_citation_page_last
_citation_journal_id_ASTM
primary
;
Zeitschrift fuer Kristallographie, Kristallgeometrie, Kristallphysik, 
Kristallchemie (-144,1977)
;
 1968 127 450 455 ZEKGAX
_publ_author_name                  'Stanley, E.'
_cell_length_a                     5.8(1)
_cell_length_b                     5.8(1)
_cell_length_c                     21.3(2)
_cell_angle_alpha                  90.
_cell_angle_beta                   90.
_cell_angle_gamma                  120.
_cell_volume                       620.53
_cell_formula_units_Z              3
_symmetry_space_group_name_H-M     'R 3 m HR'
_symmetry_Int_Tables_number        160
_refine_ls_R_factor_all            .12
loop_
_symmetry_equiv_pos_site_id
_symmetry_equiv_pos_as_xyz
  1	'-x+y, y, z'
  2	'x, x-y, z'
  3	'-y, -x, z'
  4	'-x+y, -x, z'
  5	'-y, x-y, z'
  6	'x, y, z'
  7	'-x+y+.3333, y+.6666, z+.3333'
  8	'-x+y+.6666, y+.3333, z+.6666'
  9	'x+.3333, x-y+.6666, z+.3333'
 10	'x+.6666, x-y+.3333, z+.6666'
 11	'-y+.3333, -x+.6666, z+.3333'
 12	'-y+.6666, -x+.3333, z+.6666'
 13	'-x+y+.3333, -x+.6666, z+.3333'
 14	'-x+y+.6666, -x+.3333, z+.6666'
 15	'-y+.3333, x-y+.6666, z+.3333'
 16	'-y+.6666, x-y+.3333, z+.6666'
 17	'x+.3333, y+.6666, z+.3333'
 18	'x+.6666, y+.3333, z+.6666'
loop_
_atom_type_symbol
_atom_type_oxidation_number
Cr6+	6
K1+	1
Mn7+	7
O2-	-2
loop_
_atom_site_label
_atom_site_type_symbol
_atom_site_symmetry_multiplicity
_atom_site_Wyckoff_symbol
_atom_site_fract_x
_atom_site_fract_y
_atom_site_fract_z
_atom_site_occupancy
_atom_site_attached_hydrogens
_atom_site_B_iso_or_equiv
Mn1 Mn7+ 3 a 0 0 0.906 1. 0 2.7 
Cr1 Cr6+ 3 a 0 0 0.093 1. 0 2.3 
K1 K1+ 3 a 0 0 0.3 1. 0 3.9 
K2 K1+ 3 a 0 0 0.502 1. 0 3.7 
K3 K1+ 3 a 0 0 0.703 1. 0 2.4 
O1 O2- 3 a 0 0 0.828 1. 0 4. 
O2 O2- 9 b 0.147 0.853 0.93 1. 0 3.1 
O3 O2- 3 a 0 0 0.166 1. 0 3.9 
O4 O2- 9 b 0.836 0.164 0.064 1. 0 3. 

#End of data_26803-ICSD


