data_171090-ICSD
#?2014 by Fachinformationszentrum Karlsruhe, and the U.S. Secretary of 
#Commerce on behalf of the United States.  All rights reserved.
_database_code_ICSD                171090
_audit_creation_date               2006/04/01
_chemical_name_systematic          'Sodium Tecto-alumotrisilicate'
_chemical_formula_structural       'Na Al Si3 O8'
_chemical_formula_sum              'Al1 Na1 O8 Si3'
_chemical_name_mineral             Albite
_publ_section_title
;
Compression of albite, Na Al Si3 O8
;
loop_
_citation_id
_citation_journal_abbrev
_citation_year
_citation_journal_volume
_citation_page_first
_citation_page_last
_citation_journal_id_ASTM
primary 'American Mineralogist' 2005 90 1115 1120 AMMIAY
_publ_author_name
;
Benusa, M.D.;Angel, R.J.;Ross, N.L.
;
_cell_length_a                     7.7176(6)
_cell_length_b                     12.5592(4)
_cell_length_c                     7.0113(4)
_cell_angle_alpha                  93.963(6)
_cell_angle_beta                   117.177(6)
_cell_angle_gamma                  88.132(5)
_cell_volume                       603.11
_cell_formula_units_Z              4
_symmetry_space_group_name_H-M     'C -1'
_symmetry_Int_Tables_number        2
loop_
_symmetry_equiv_pos_site_id
_symmetry_equiv_pos_as_xyz
  1	'-x, -y, -z'
  2	'x, y, z'
  3	'-x+.5, -y+.5, -z'
  4	'x+.5, y+.5, z'
loop_
_atom_type_symbol
_atom_type_oxidation_number
Al3+	3
Na1+	1
O2-	-2
Si4+	4
loop_
_atom_site_label
_atom_site_type_symbol
_atom_site_symmetry_multiplicity
_atom_site_Wyckoff_symbol
_atom_site_fract_x
_atom_site_fract_y
_atom_site_fract_z
_atom_site_occupancy
_atom_site_attached_hydrogens
_atom_site_U_iso_or_equiv
Na1 Na1+ 4 i 0.2490(9) 0.9935(3) 0.1490(16) 1. 0 0.03166 
Al1 Al3+ 4 i -0.0021(6) 0.16648(16) 0.2025(11) 1. 0 0.00874 
Si1 Si4+ 4 i -0.0096(6) 0.82031(15) 0.2349(11) 1. 0 0.00874 
Si2 Si4+ 4 i 0.6867(8) 0.10437(16) 0.3121(13) 1. 0 0.00557 
Si3 Si4+ 4 i 0.6558(8) 0.87698(15) 0.3551(14) 1. 0 0.00633 
O1 O2- 4 i 0.0115(14) 0.1286(4) 0.968(3) 1. 0 0.01241 
O2 O2- 4 i 0.5675(14) 0.9956(4) 0.284(3) 1. 0 0.00760 
O3 O2- 4 i 0.7989(14) 0.0923(4) 0.168(3) 1. 0 0.01089 
O4 O2- 4 i 0.7872(15) 0.8436(4) 0.237(3) 1. 0 0.01393 
O5 O2- 4 i -0.0285(14) 0.2993(4) 0.265(3) 1. 0 0.00988 
O6 O2- 4 i 0.0150(15) 0.6929(4) 0.223(3) 1. 0 0.01431 
O7 O2- 4 i 0.2184(19) 0.1171(5) 0.396(4) 1. 0 0.01710 
O8 O2- 4 i 0.1618(19) 0.8737(5) 0.431(4) 1. 0 0.02128 

loop_
_atom_site_aniso_label
_atom_site_aniso_type_symbol
_atom_site_aniso_U_11
_atom_site_aniso_U_22
_atom_site_aniso_U_33
_atom_site_aniso_U_12
_atom_site_aniso_U_13
_atom_site_aniso_U_23
Na1 Na1+ 0.02245 0.02704 0.05125 -0.00131 0.02252 -0.01265
#End of data_171090-ICSD


