data_35712-ICSD
#?2014 by Fachinformationszentrum Karlsruhe, and the U.S. Secretary of 
#Commerce on behalf of the United States.  All rights reserved.
_database_code_ICSD                35712
_audit_creation_date               1983/12/31
_chemical_name_systematic
;
Dicesium Potassium Hexacyanochromate(III)
;
_chemical_formula_structural       'Cs2 K (Cr (C N)6)'
_chemical_formula_sum              'C6 Cr1 Cs2 K1 N6'
_publ_section_title
;
Structure of the Elpasolite Dicesium Potassium 
Hexacyanochromate(III), Cs2 K (Cr (C N)6), at 295 K
;
loop_
_citation_id
_citation_journal_abbrev
_citation_year
_citation_journal_volume
_citation_page_first
_citation_page_last
_citation_journal_id_ASTM
primary 'Acta Crystallographica, Section C: Crystal Structure Communications'
 1983 39 1587 1588 ACSCEE
_publ_author_name
;
Figgis, B.N.;Kucharski, E.S.;Reynolds, P.A.;White, A.H.
;
_cell_length_a                     11.302(2)
_cell_length_b                     8.303(2)
_cell_length_c                     7.761(2)
_cell_angle_alpha                  90.
_cell_angle_beta                   90.30(2)
_cell_angle_gamma                  90.
_cell_volume                       728.29
_cell_formula_units_Z              2
_symmetry_space_group_name_H-M     'P 1 21/n 1'
_symmetry_Int_Tables_number        14
_refine_ls_R_factor_all            .042
loop_
_symmetry_equiv_pos_site_id
_symmetry_equiv_pos_as_xyz
  1	'-x+.5, y+.5, -z+.5'
  2	'-x, -y, -z'
  3	'x+.5, -y+.5, z+.5'
  4	'x, y, z'
loop_
_atom_type_symbol
_atom_type_oxidation_number
C2+	2
Cr3+	3
Cs1+	1
K1+	1
N3-	-3
loop_
_atom_site_label
_atom_site_type_symbol
_atom_site_symmetry_multiplicity
_atom_site_Wyckoff_symbol
_atom_site_fract_x
_atom_site_fract_y
_atom_site_fract_z
_atom_site_occupancy
_atom_site_attached_hydrogens
Cr1 Cr3+ 2 a 0 0 0 1. 0 
K1 K1+ 2 d 0 0.5 0.5 1. 0 
Cs1 Cs1+ 4 e 0.2511(1) 0.4277(1) -.0228(1) 1. 0 
C1 C2+ 4 e 0.0352(3) 0.1327(5) -.2204(5) 1. 0 
C2 C2+ 4 e 0.0447(4) -.2099(5) -.1286(5) 1. 0 
C3 C2+ 4 e 0.1742(4) 0.0257(5) 0.0783(5) 1. 0 
N1 N3- 4 e 0.0570(4) 0.2049(5) -.3407(5) 1. 0 
N2 N3- 4 e 0.0697(4) -.3245(5) -.1999(5) 1. 0 
N3 N3- 4 e 0.2690(3) 0.0451(5) 0.1237(6) 1. 0 

loop_
_atom_site_aniso_label
_atom_site_aniso_type_symbol
_atom_site_aniso_U_11
_atom_site_aniso_U_22
_atom_site_aniso_U_33
_atom_site_aniso_U_12
_atom_site_aniso_U_13
_atom_site_aniso_U_23
Cr1 Cr3+ 0.0302(4) 0.0245(4) 0.0289(4) 0.0012(3) 0.0006(3) 0.0008(3)
K1 K1+ 0.0303(6) 0.0271(5) 0.0321(5) -.0011(4) -.0023(4) 0.0013(4)
Cs1 Cs1+ 0.0600(2) 0.0437(2) 0.0534(2) -.0013(2) 0.0013(1) 0.0050(1)
C1 C2+ 0.0408(22) 0.0314(18) 0.0416(21) 0.0049(16) 0.0024(16) 0.0034(16)
C2 C2+ 0.0441(22) 0.0318(18) 0.0351(19) 0.0027(16) -.0024(15) -.0018(15)
C3 C2+ 0.0344(20) 0.0391(21) 0.0418(21) 0.0008(16) 0.0025(16) 0.0060(16)
N1 N3- 0.0845(33) 0.0534(25) 0.0577(25) 0.0146(23) 0.0196(22) 0.0225(20)
N2 N3- 0.0783(30) 0.0457(24) 0.0538(23) 0.0145(21) -.0101(20) -.0149(18)
N3 N3- 0.0345(20) 0.0730(32) 0.0741(28) -.0027(20) -.0010(18) 0.0101(22)
#End of data_35712-ICSD


