data_62838-ICSD
#?2014 by Fachinformationszentrum Karlsruhe, and the U.S. Secretary of 
#Commerce on behalf of the United States.  All rights reserved.
_database_code_ICSD                62838
_audit_creation_date               1988/07/15
_audit_update_record               2003/10/01
_chemical_name_systematic
;
Tetrasodium Cyclo-tetraphosphate Tetrahydrate
;
_chemical_formula_structural       'Na4 (P4 O12) (H2 O)4'
_chemical_formula_sum              'H8 Na4 O16 P4'
_publ_section_title
;
Contribution to the crystal chemistry of tetrametaphosphates (I).
;
loop_
_citation_id
_citation_journal_abbrev
_citation_year
_citation_journal_volume
_citation_page_first
_citation_page_last
_citation_journal_id_ASTM
primary 'Journal of Solid State Chemistry' 1985 58 119 132 JSSCBI
2 'Acta Crystallographica (1,1948-23,1967)' 1964 17 1139 1145 ACCRA9
_publ_author_name                  'Averbuch-Pouchot, M.T.;Durif, A.'
_cell_length_a                     6.652
_cell_length_b                     9.579
_cell_length_c                     6.32
_cell_angle_alpha                  103.4
_cell_angle_beta                   106.98
_cell_angle_gamma                  93.28
_cell_volume                       371.28
_cell_formula_units_Z              1
_symmetry_space_group_name_H-M     'P -1'
_symmetry_Int_Tables_number        2
_refine_ls_R_factor_all            .021
loop_
_symmetry_equiv_pos_site_id
_symmetry_equiv_pos_as_xyz
  1	'-x, -y, -z'
  2	'x, y, z'
loop_
_atom_type_symbol
_atom_type_oxidation_number
H1+	1
Na1+	1
O2-	-2
P5+	5
loop_
_atom_site_label
_atom_site_type_symbol
_atom_site_symmetry_multiplicity
_atom_site_Wyckoff_symbol
_atom_site_fract_x
_atom_site_fract_y
_atom_site_fract_z
_atom_site_occupancy
_atom_site_attached_hydrogens
_atom_site_B_iso_or_equiv
P1 P5+ 2 i 0.26653(5) 0.08995(3) 0.24381(5) 1. 0 0.97(1) 
P2 P5+ 2 i 0.89850(5) 0.21206(3) 0.98661(5) 1. 0 0.99(1) 
Na1 Na1+ 2 i 0.82110(9) 0.126 0.42149(9) 1. 0 1.64(1) 
Na2 Na1+ 2 i 0.55608(9) 0.40321(6) 0.23963(10) 1. 0 1.74(1) 
O1 O2- 2 i 0.1207(1) 0.1505(1) 0.0431(2) 1. 0 1.37(1) 
O2 O2- 2 i 0.1579(1) 0.0795(1) 0.4148(2) 1. 0 1.61(1) 
O3 O2- 2 i 0.4806(1) 0.1711(1) 0.3179(2) 1. 0 1.71(1) 
O4 O2- 2 i 0.8916(2) 0.2747(1) 0.7915(2) 1. 0 1.71(1) 
O5 O2- 2 i 0.8695(1) 0.3008(1) 0.1987(2) 1. 0 1.50(1) 
O6 O2- 2 i 0.7270(1) 0.0698(1) 0.9047(2) 1. 0 1.55(1) 
O7 O2- 2 i 0.3493(2) 0.3582(1) 0.8208(2) 1. 0 2.93(2) 
O8 O2- 2 i 0.2613(2) 0.4951(1) 0.3559(2) 1. 0 1.89(1) 
H1 H1+ 2 i 0.342(4) 0.275(3) 0.727(4) 1. 0 4.4(6) 
H2 H1+ 2 i 0.219(4) 0.334(3) 0.833(4) 1. 0 5.0(6) 
H3 H1+ 2 i 0.778(4) 0.431(3) 0.692(4) 1. 0 3.5(5) 
H4 H1+ 2 i 0.143(4) 0.437(3) 0.331(4) 1. 0 3.6(5) 

#End of data_62838-ICSD


