data_171911-ICSD
#?2014 by Fachinformationszentrum Karlsruhe, and the U.S. Secretary of 
#Commerce on behalf of the United States.  All rights reserved.
_database_code_ICSD                171911
_audit_creation_date               2006/10/01
_chemical_name_systematic          'Magnesium Silicate'
_chemical_formula_structural       'Mg Si O3'
_chemical_formula_sum              'Mg1 O3 Si1'
_chemical_name_mineral             Perovskite
_publ_section_title
;
The flux growth of magnesium silicate perovskite single crystals
;
loop_
_citation_id
_citation_journal_abbrev
_citation_year
_citation_journal_volume
_citation_page_first
_citation_page_last
_citation_journal_id_ASTM
primary 'American Mineralogist' 2004 89 807 811 AMMIAY
_publ_author_name                  'Dobson, D.P.;Jacobsen, S.D.'
_cell_length_a                     4.7780(2)
_cell_length_b                     4.9298(3)
_cell_length_c                     6.8990(3)
_cell_angle_alpha                  90
_cell_angle_beta                   90
_cell_angle_gamma                  90
_cell_volume                       162.5
_cell_formula_units_Z              4
_symmetry_space_group_name_H-M     'P b n m'
_symmetry_Int_Tables_number        62
_refine_ls_R_factor_all            .024
loop_
_symmetry_equiv_pos_site_id
_symmetry_equiv_pos_as_xyz
  1	'-x+.5, y+.5, z'
  2	'x, y, -z+.5'
  3	'x+.5, -y+.5, z+.5'
  4	'-x, -y, -z'
  5	'x+.5, -y+.5, -z'
  6	'-x, -y, z+.5'
  7	'-x+.5, y+.5, -z+.5'
  8	'x, y, z'
loop_
_atom_type_symbol
_atom_type_oxidation_number
Mg2+	2
O2-	-2
Si4+	4
loop_
_atom_site_label
_atom_site_type_symbol
_atom_site_symmetry_multiplicity
_atom_site_Wyckoff_symbol
_atom_site_fract_x
_atom_site_fract_y
_atom_site_fract_z
_atom_site_occupancy
_atom_site_attached_hydrogens
_atom_site_U_iso_or_equiv
Mg1 Mg2+ 4 c 0.51378(12) 0.55588(14) 0.25 1. 0 0.0083(2) 
Si1 Si4+ 4 b 0.5 0.0 0.5 1. 0 0.0058(1) 
O1 O2- 4 c 0.10189(26) 0.46645(25) 0.25 1. 0 0.0073(2) 
O2 O2- 8 d 0.19626(18) 0.20133(17) 0.55258(12) 1. 0 0.0075(2) 

loop_
_atom_site_aniso_label
_atom_site_aniso_type_symbol
_atom_site_aniso_U_11
_atom_site_aniso_U_22
_atom_site_aniso_U_33
_atom_site_aniso_U_12
_atom_site_aniso_U_13
_atom_site_aniso_U_23
Mg1 Mg2+ 0.0077(3) 0.0064(3) 0.0106(3) 0.0005(2) 0.0 0.0
Si1 Si4+ 0.0055(2) 0.0050(2) 0.0069(2) -0.0003(1) 0.0002(1) -0.0001(1)
O1 O2- 0.0073(5) 0.0071(4) 0.0075(4) -0.0001(4) 0.0 0.0
O2 O2- 0.0069(3) 0.0062(3) 0.0095(3) 0.0009(3) 0.0009(2) 0.0006(3)
#End of data_171911-ICSD


