data_20735-ICSD
#?2014 by Fachinformationszentrum Karlsruhe, and the U.S. Secretary of 
#Commerce on behalf of the United States.  All rights reserved.
_database_code_ICSD                20735
_audit_creation_date               1983/12/31
_audit_update_record               2011/02/01
_chemical_name_systematic
;
Potassium Tantalum Bis(catena-phosphate(V)) Diphosphate(V)
;
_chemical_formula_structural       'K Ta (P O3)2 (P2 O7)'
_chemical_formula_sum              'K1 O13 P4 Ta1'
_publ_section_title
;
The crystal structure of potassium tantalum polydiphosphate K Ta (P 
O3)2 P2 O7
;
loop_
_citation_id
_citation_journal_abbrev
_citation_year
_citation_journal_volume
_citation_page_first
_citation_page_last
_citation_journal_id_ASTM
primary 'Izvestiya Akademii Nauk SSSR, Neorganicheskie Materialy'
 1983 19 448 451 IVNMAW
_publ_author_name
;
Nikolaev, V.P.;Sadikov, G.G.;Lavrov, A.V.;Porai Koshits, M.A.
;
_cell_length_a                     7.045(1)
_cell_length_b                     8.402(1)
_cell_length_c                     17.494(4)
_cell_angle_alpha                  90.
_cell_angle_beta                   90.
_cell_angle_gamma                  90.
_cell_volume                       1035.51
_cell_formula_units_Z              4
_symmetry_space_group_name_H-M     'P 21 21 21'
_symmetry_Int_Tables_number        19
_refine_ls_R_factor_all            .043
loop_
_symmetry_equiv_pos_site_id
_symmetry_equiv_pos_as_xyz
  1	'-x, y+.5, -z+.5'
  2	'x+.5, -y+.5, -z'
  3	'-x+.5, -y, z+.5'
  4	'x, y, z'
loop_
_atom_type_symbol
_atom_type_oxidation_number
K1+	1
O2-	-2
P5+	5
Ta5+	5
loop_
_atom_site_label
_atom_site_type_symbol
_atom_site_symmetry_multiplicity
_atom_site_Wyckoff_symbol
_atom_site_fract_x
_atom_site_fract_y
_atom_site_fract_z
_atom_site_occupancy
_atom_site_attached_hydrogens
Ta1 Ta5+ 4 a 0.22847(2) 0.21824(2) 0.21049(1) 1. 0 
K1 K1+ 4 a 0.2621(2) 0.2015(1) 0.47484(7) 1. 0 
P1 P5+ 4 a -.0801(2) 0.1079(2) 0.07351(8) 1. 0 
P2 P5+ 4 a 0.0592(2) 0.2117(2) -.07372(7) 1. 0 
P3 P5+ 4 a 0.0993(2) -.4026(2) 0.16506(8) 1. 0 
P4 P5+ 4 a 0.3991(2) -.1579(2) 0.17823(8) 1. 0 
O1 O2- 4 a 0.0073(5) 0.1694(5) 0.1462(2) 1. 0 
O2 O2- 4 a -.3016(5) 0.1399(5) 0.0794(3) 1. 0 
O3 O2- 4 a -.0070(6) 0.2296(5) 0.0115(2) 1. 0 
O4 O2- 4 a -.0425(7) -.0574(5) 0.0554(3) 1. 0 
O5 O2- 4 a 0.3855(6) 0.2399(5) 0.1174(3) 1. 0 
O6 O2- 4 a 0.1493(7) 0.0616(5) -.0932(3) 1. 0 
O7 O2- 4 a 0.2549(5) -.2908(5) 0.2031(2) 1. 0 
O8 O2- 4 a 0.1346(6) 0.4373(4) 0.2047(3) 1. 0 
O9 O2- 4 a 0.0843(5) 0.1651(5) 0.2990(2) 1. 0 
O10 O2- 4 a 0.1002(6) -.4044(5) 0.0830(2) 1. 0 
O11 O2- 4 a 0.4317(5) 0.2982(6) 0.2697(3) 1. 0 
O12 O2- 4 a 0.3146(6) -.0026(5) 0.2112(3) 1. 0 
O13 O2- 4 a 0.4429(7) -.1552(6) 0.0984(3) 1. 0 

loop_
_atom_site_aniso_label
_atom_site_aniso_type_symbol
_atom_site_aniso_B_11
_atom_site_aniso_B_22
_atom_site_aniso_B_33
_atom_site_aniso_B_12
_atom_site_aniso_B_13
_atom_site_aniso_B_23
Ta1 Ta5+ 0.44 0.52 0.55 0.02 0 0.03
K1 K1+ 1.29(4) 1.39(4) 1.32(3) 0.33(3) 0.03(3) 0.00(3)
P1 P5+ 0.63(4) 0.82(4) 0.70(4) 0.03(3) -.06(3) 0.01(3)
P2 P5+ 0.77(3) 1.09(4) 0.63(4) 0.04(4) -.03(3) 0.09(4)
P3 P5+ 0.72(4) 0.56(4) 0.71(4) 0.06(3) 0.09(3) 0.00(3)
P4 P5+ 0.58(4) 0.61(4) 0.85(4) 0.06(3) -.08(3) 0.00(3)
O1 O2- 1.0(1) 1.7(2) 0.8(1) -.2(1) -.3(1) 0.1(1)
O2 O2- 0.5(1) 1.3(1) 1.7(2) 0.0(1) -.1(1) 0.4(1)
O3 O2- 1.9(1) 1.1(1) 0.7(1) -.2(1) 0.3(1) 0.1(1)
O4 O2- 1.7(2) 0.9(1) 2.1(2) 0.1(1) 0.4(1) -.2(1)
O5 O2- 1.2(1) 1.8(2) 1.5(2) 0.4(1) 0.8(1) 0.4(1)
O6 O2- 2.4(2) 1.4(2) 1.5(2) 0.3(1) 0.5(2) 0.2(1)
O7 O2- 1.5(1) 1.6(1) 1.2(1) -1.0 0.0(1) 0.0(1)
O8 O2- 1.5(1) 0.7(1) 1.4(2) 0.4(1) 0.1(1) 0.2(1)
O9 O2- 0.7(1) 1.2(1) 0.9(1) -.4(1) 0.2(1) 0.0(1)
O10 O2- 1.8(2) 1.5(1) 0.6(1) 0.0(1) 0.2(1) 0.0(1)
O11 O2- 0.9(1) 1.7(2) 1.8(2) -.2(1) -.7(1) -.3(1)
O12 O2- 1.7(1) 1.0(1) 1.4(1) 0.4(1) 0.1(2) -.2(1)
O13 O2- 2.0(2) 1.6(2) 0.9(1) -.1(1) 0.5(1) -.2(1)
#End of data_20735-ICSD


