data_28211-ICSD
#?2014 by Fachinformationszentrum Karlsruhe, and the U.S. Secretary of 
#Commerce on behalf of the United States.  All rights reserved.
_database_code_ICSD                28211
_audit_creation_date               1980/01/01
_audit_update_record               1988/10/24
_chemical_name_systematic          'Dipotassium Nitridochlorate(VII)'
_chemical_formula_structural       'K2 Cl O3 N'
_chemical_formula_sum              'Cl1 K2 N1 O3'
_publ_section_title
;
Crystal Structure of Potassium Perchlorilamide
;
loop_
_citation_id
_citation_journal_abbrev
_citation_year
_citation_journal_volume
_citation_page_first
_citation_page_last
_citation_journal_id_ASTM
primary 'Zhurnal Strukturnoi Khimii (Issue-No. from 1981)'
 1968 9 919 921 ZSTKAI
_publ_author_name
;
Golovina, N.I.;Klitskaya, G.A.;Atovmyan, L.O.
;
_cell_length_a                     5.28(2)
_cell_length_b                     10.25(5)
_cell_length_c                     7.69(3)
_cell_angle_alpha                  90.
_cell_angle_beta                   90.
_cell_angle_gamma                  90.
_cell_volume                       416.18
_cell_formula_units_Z              4
_symmetry_space_group_name_H-M     'P m c n'
_symmetry_Int_Tables_number        62
_refine_ls_R_factor_all            .138
loop_
_symmetry_equiv_pos_site_id
_symmetry_equiv_pos_as_xyz
  1	'x, -y+.5, z+.5'
  2	'-x+.5, y, z'
  3	'x+.5, y+.5, -z+.5'
  4	'-x, -y, -z'
  5	'-x, y+.5, -z+.5'
  6	'x+.5, -y, -z'
  7	'-x+.5, -y+.5, z+.5'
  8	'x, y, z'
loop_
_atom_type_symbol
_atom_type_oxidation_number
Cl7+	7
K1+	1
N3-	-3
O2-	-2
loop_
_atom_site_label
_atom_site_type_symbol
_atom_site_symmetry_multiplicity
_atom_site_Wyckoff_symbol
_atom_site_fract_x
_atom_site_fract_y
_atom_site_fract_z
_atom_site_occupancy
_atom_site_attached_hydrogens
_atom_site_B_iso_or_equiv
Cl1 Cl7+ 4 c 0.25 0.419(2) 0.236(2) 1. 0 2.6 
K1 K1+ 4 c 0.25 0.089(2) 0.171(2) 1. 0 2.8 
K2 K1+ 4 c 0.25 0.700(2) -.010(2) 1. 0 2.7 
O1 O2- 8 d 0.040(4) 0.349(4) 0.300(4) 1. 0 3.8 
O2 O2- 4 c 0.25 0.558(4) 0.306(3) 1. 0 3. 
N1 N3- 4 c 0.25 0.422(5) 0.053(5) 1. 0 4.6 

#End of data_28211-ICSD


