data_77059-ICSD
#?2014 by Fachinformationszentrum Karlsruhe, and the U.S. Secretary of 
#Commerce on behalf of the United States.  All rights reserved.
_database_code_ICSD                77059
_audit_creation_date               2003/04/01
_chemical_name_systematic          'Aluminium Bromide'
_chemical_formula_structural       'Al Br3'
_chemical_formula_sum              'Al1 Br3'
_publ_section_title
;
The crystal structure of aluminium bromide
;
loop_
_citation_id
_citation_journal_abbrev
_citation_year
_citation_journal_volume
_citation_page_first
_citation_page_last
_citation_journal_id_ASTM
primary 'Recueil des Travaux Chimiques des Pays-Bas et de la Belgique'
 1945 64 275 283 RTCPA3
_publ_author_name                  'Renes, P.A.;Mac Gillavry, C.H.'
_cell_length_a                     7.49(3)
_cell_length_b                     7.10(4)
_cell_length_c                     10.22(2)
_cell_angle_alpha                  90.
_cell_angle_beta                   96.0
_cell_angle_gamma                  90.
_cell_volume                       540.51
_cell_formula_units_Z              4
_symmetry_space_group_name_H-M     'P 1 21/c 1'
_symmetry_Int_Tables_number        14
loop_
_symmetry_equiv_pos_site_id
_symmetry_equiv_pos_as_xyz
  1	'x, -y+.5, z+.5'
  2	'-x, -y, -z'
  3	'-x, y+.5, -z+.5'
  4	'x, y, z'
loop_
_atom_type_symbol
_atom_type_oxidation_number
Al3+	3
Br1-	-1
loop_
_atom_site_label
_atom_site_type_symbol
_atom_site_symmetry_multiplicity
_atom_site_Wyckoff_symbol
_atom_site_fract_x
_atom_site_fract_y
_atom_site_fract_z
_atom_site_occupancy
_atom_site_attached_hydrogens
Al1 Al3+ 4 e 0.183 0.095 0.050 1. 0 
Br1 Br1- 4 e -.083 0.075 0.150 1. 0 
Br2 Br1- 4 e 0.411 -.078 0.169 1. 0 
Br3 Br1- 4 e 0.252 0.392 0.008 1. 0 

#End of data_77059-ICSD


