data_300237-ICSD
#?2014 by Fachinformationszentrum Karlsruhe, and the U.S. Secretary of 
#Commerce on behalf of the United States.  All rights reserved.
_database_code_ICSD                300237
_audit_creation_date               1992/08/20
_audit_update_record               2007/08/01
_chemical_name_systematic          'Disodium Catena-triselenostannate'
_chemical_formula_structural       'Na2 (Sn Se3)'
_chemical_formula_sum              'Na2 Se3 Sn1'
_publ_section_title
;
Crystal structure of disodium catena-triselenostannate
;
loop_
_citation_id
_citation_journal_abbrev
_citation_year
_citation_journal_volume
_citation_page_first
_citation_page_last
_citation_journal_id_ASTM
primary 'Zeitschrift fuer Kristallographie (1979-2010)' 1993 203 293 294 ZEKRDZ
_publ_author_name                  'Eisenmann, B.;Hansa, J.'
_cell_length_a                     7.244(3)
_cell_length_b                     16.218(4)
_cell_length_c                     6.174(3)
_cell_angle_alpha                  90.
_cell_angle_beta                   112.6(1)
_cell_angle_gamma                  90.
_cell_volume                       669.64
_cell_formula_units_Z              4
_symmetry_space_group_name_H-M     'P 1 21/c 1'
_symmetry_Int_Tables_number        14
_refine_ls_R_factor_all            .07
loop_
_symmetry_equiv_pos_site_id
_symmetry_equiv_pos_as_xyz
  1	'x, -y+.5, z+.5'
  2	'-x, -y, -z'
  3	'-x, y+.5, -z+.5'
  4	'x, y, z'
loop_
_atom_type_symbol
_atom_type_oxidation_number
Na1+	1
Se2-	-2
Sn4+	4
loop_
_atom_site_label
_atom_site_type_symbol
_atom_site_symmetry_multiplicity
_atom_site_Wyckoff_symbol
_atom_site_fract_x
_atom_site_fract_y
_atom_site_fract_z
_atom_site_occupancy
_atom_site_attached_hydrogens
Se1 Se2- 4 e 0.1960(3) 0.5543(1) 0.3210(4) 1. 0 
Se2 Se2- 4 e 0.9795(4) 0.3169(1) 0.2491(4) 1. 0 
Se3 Se2- 4 e 0.5958(3) 0.6441(1) 0.0369(4) 1. 0 
Sn1 Sn4+ 4 e 0.0430(2) 0.1662(1) 0.3701(2) 1. 0 
Na1 Na1+ 4 e 0.7645(14) 0.4735(6) 0.1764(17) 1. 0 
Na2 Na1+ 4 e 0.5472(16) 0.8341(7) 0.0112(19) 1. 0 

loop_
_atom_site_aniso_label
_atom_site_aniso_type_symbol
_atom_site_aniso_U_11
_atom_site_aniso_U_22
_atom_site_aniso_U_33
_atom_site_aniso_U_12
_atom_site_aniso_U_13
_atom_site_aniso_U_23
Se1 Se2- 0.027(1) 0.020(1) 0.0300(1) 0.0036(8) 0.0090(8) 0.0032(8)
Se2 Se2- 0.047(1) 0.022(1) 0.035(1) 0.000(1) 0.023(1) 0.014(1)
Se3 Se2- 0.023(1) 0.024(1) 0.037(1) -0.0033(9) 0.0011(8) -0.0033(8)
Sn1 Sn4+ 0.0212(7) 0.0178(7) 0.0264(7) -0.0008(5) 0.0099(5) 0.0004(5)
Na1 Na1+ 0.036(5) 0.028(5) 0.049(6) 0.004(4) 0.016(4) 0.004(4)
Na2 Na1+ 0.051(6) 0.047(6) 0.051(6) 0.007(5) 0.018(5) 0.019(5)
#End of data_300237-ICSD


