data_59817-ICSD
#?2014 by Fachinformationszentrum Karlsruhe, and the U.S. Secretary of 
#Commerce on behalf of the United States.  All rights reserved.
_database_code_ICSD                59817
_audit_creation_date               2005/10/01
_audit_update_record               2012/02/01
_chemical_name_systematic
;
Heptamagnesium Bis(arsenate(V)) Tetrakis(hydrogenarsenate(V))
;
_chemical_formula_structural       'Mg7 (As O4)2 (H As O4)4'
_chemical_formula_sum              'H4 As6 Mg7 O24'
_publ_section_title
;
Mg7 (As O4)2 (H As O4)4: a new magnesium arsenate with a very strong 
hydrogen bond
;
loop_
_citation_id
_citation_journal_abbrev
_citation_year
_citation_journal_volume
_citation_page_first
_citation_page_last
_citation_journal_id_ASTM
primary 'Acta Crystallographica, Section C: Crystal Structure Communications'
 2004 60 i94 i96 ACSCEE
_publ_author_name                  'Kolitsch, U.;Bartu, P,'
_cell_length_a                     6.6440(10)
_cell_length_b                     8.042(2)
_cell_length_c                     9.750(2)
_cell_angle_alpha                  104.70(3)
_cell_angle_beta                   107.89(3)
_cell_angle_gamma                  101.16(3)
_cell_volume                       458.2
_cell_formula_units_Z              1
_symmetry_space_group_name_H-M     'P -1'
_symmetry_Int_Tables_number        2
_refine_ls_R_factor_all            .0297
loop_
_symmetry_equiv_pos_site_id
_symmetry_equiv_pos_as_xyz
  1	'-x, -y, -z'
  2	'x, y, z'
loop_
_atom_type_symbol
_atom_type_oxidation_number
As5+	5
H1+	1
Mg2+	2
O2-	-2
loop_
_atom_site_label
_atom_site_type_symbol
_atom_site_symmetry_multiplicity
_atom_site_Wyckoff_symbol
_atom_site_fract_x
_atom_site_fract_y
_atom_site_fract_z
_atom_site_occupancy
_atom_site_attached_hydrogens
_atom_site_U_iso_or_equiv
Mg1 Mg2+ 1 a 0.0000 0.0000 0.0000 1 0 0.0141(3) 
Mg2 Mg2+ 2 i 0.38174(17) 0.45857(14) 0.10979(11) 1 0 0.0108(2) 
Mg3 Mg2+ 2 i -0.27861(18) 0.19316(14) -0.28743(12) 1 0 0.0127(2) 
Mg4 Mg2+ 2 i -0.05478(17) 0.28877(14) -0.51560(12) 1 0 0.0117(2) 
As1 As5+ 2 i 0.22767(5) 0.15152(4) -0.22142(3) 1 0 0.00975(8) 
As2 As5+ 2 i 0.09044(5) 0.57817(4) -0.17210(3) 1 0 0.00912(8) 
As3 As5+ 2 i -0.59290(5) 0.23136(4) -0.62937(3) 1 0 0.01213(9) 
O1 O2- 2 i 0.0075(3) 0.1852(3) -0.3392(2) 1 0 0.0121(4) 
O2 O2- 2 i 0.2191(4) 0.1913(3) -0.0450(2) 1 0 0.0133(4) 
O3 O2- 2 i 0.5351(4) 0.7472(3) 0.2304(2) 1 0 0.0128(4) 
O4 O2- 2 i -0.1978(4) 0.0750(3) -0.7170(3) 1 0 0.0147(4) 
O5 O2- 2 i 0.3193(3) 0.5305(3) -0.0830(2) 1 0 0.0112(4) 
O6 O2- 2 i 0.0596(4) 0.5423(3) -0.3550(2) 1 0 0.0129(4) 
O7 O2- 2 i 0.1134(4) -0.2019(3) -0.0947(3) 1 0 0.0150(4) 
O8 O2- 2 i 0.1327(3) 0.5470(3) 0.1598(2) 1 0 0.0119(4) 
O9 O2- 2 i -0.3694(4) 0.2114(3) -0.5031(3) 1 0 0.0158(4) 
O10 O2- 2 i 0.4710(4) 0.3946(3) 0.3033(3) 1 0 0.0157(4) 
O11 O2- 2 i 0.2577(4) 0.2973(3) -0.5190(3) 1 0 0.0162(5) 
O12 O2- 2 i -0.2538(4) -0.0344(3) -0.2322(3) 1 0 0.0153(4) 
H1 H1+ 2 i -0.176(11) 0.115(9) -0.789(8) 1 0 0.07(2) 
H2 H1+ 2 i 0.336(9) 0.369(7) -0.454(6) 1 0 0.033(15) 

loop_
_atom_site_aniso_label
_atom_site_aniso_type_symbol
_atom_site_aniso_U_11
_atom_site_aniso_U_22
_atom_site_aniso_U_33
_atom_site_aniso_U_12
_atom_site_aniso_U_13
_atom_site_aniso_U_23
Mg1 Mg2+ 0.0189(7) 0.0109(7) 0.0159(7) 0.0048(6) 0.0109(6) 0.0042(6)
Mg2 Mg2+ 0.0098(5) 0.0126(5) 0.0103(5) 0.0037(4) 0.0043(4) 0.0038(4)
Mg3 Mg2+ 0.0126(5) 0.0126(5) 0.0145(5) 0.0046(4) 0.0065(4) 0.0048(4)
Mg4 Mg2+ 0.0129(5) 0.0120(5) 0.0100(5) 0.0036(4) 0.0042(4) 0.0034(4)
As1 As5+ 0.00943(14) 0.01028(15) 0.00964(14) 0.00273(10) 0.00383(10) 
0.00332(11)
As2 As5+ 0.00898(14) 0.00957(14) 0.00902(14) 0.00310(10) 0.00344(10) 
0.00312(10)
As3 As5+ 0.01151(15) 0.01236(15) 0.01174(15) 0.00341(11) 0.00371(11) 
0.00365(11)
O1 O2- 0.0099(9) 0.0163(11) 0.0119(10) 0.0049(8) 0.0040(8) 0.0071(8)
O2 O2- 0.0158(10) 0.0133(10) 0.0110(10) 0.0025(8) 0.0066(8) 0.0038(8)
O3 O2- 0.0123(10) 0.0117(10) 0.0143(10) 0.0026(8) 0.0067(8) 0.0028(8)
O4 O2- 0.0192(11) 0.0105(10) 0.0139(10) 0.0038(8) 0.0070(9) 0.0030(8)
O5 O2- 0.0093(9) 0.0151(10) 0.0115(10) 0.0052(8) 0.0041(8) 0.0069(8)
O6 O2- 0.0185(11) 0.0114(10) 0.0087(9) 0.0049(8) 0.0050(8) 0.0031(8)
O7 O2- 0.0211(11) 0.0095(10) 0.0166(11) 0.0062(8) 0.0098(9) 0.0036(8)
O8 O2- 0.0102(9) 0.0119(10) 0.0140(10) 0.0021(8) 0.0065(8) 0.0036(8)
O9 O2- 0.0127(10) 0.0229(12) 0.0135(10) 0.0080(9) 0.0043(8) 0.0076(9)
O10 O2- 0.0178(11) 0.0142(11) 0.0147(10) 0.0020(9) 0.0049(9) 0.0076(8)
O11 O2- 0.0148(11) 0.0204(12) 0.0132(11) 0.0066(9) 0.0074(9) 0.0016(9)
O12 O2- 0.0162(11) 0.0108(10) 0.0162(11) 0.0030(8) 0.0041(8) 0.0036(8)
#End of data_59817-ICSD


