data_160110-ICSD
#?2014 by Fachinformationszentrum Karlsruhe, and the U.S. Secretary of 
#Commerce on behalf of the United States.  All rights reserved.
_database_code_ICSD                160110
_audit_creation_date               2008/08/01
_chemical_name_systematic          'Dicalcium Nickel Tungstate'
_chemical_formula_structural       'Ca2 Ni (W O6)'
_chemical_formula_sum              'Ca2 Ni1 O6 W1'
_publ_section_title
;
A low temperature magnetization and neutron diffraction study of Ca2 
Ni W O6
;
loop_
_citation_id
_citation_journal_abbrev
_citation_year
_citation_journal_volume
_citation_page_first
_citation_page_last
_citation_journal_id_ASTM
primary 'Journal of Alloys and Compounds' 2008 457 15 18 JALCEU
_publ_author_name
;
Chakraborty, K.R.;Das, A.;Krishna, P.S.R.;Yusuf, S.M.;Patwe, 
S.J.;Achary, S.N.;Tyagi, A.K.
;
_cell_length_a                     5.4056(4)
_cell_length_b                     5.5396(4)
_cell_length_c                     7.6920(6)
_cell_angle_alpha                  90.
_cell_angle_beta                   90.204(1)
_cell_angle_gamma                  90.
_cell_volume                       230.33
_cell_formula_units_Z              2
_symmetry_space_group_name_H-M     'P 1 21/n 1'
_symmetry_Int_Tables_number        14
_refine_ls_R_factor_all            .041
loop_
_symmetry_equiv_pos_site_id
_symmetry_equiv_pos_as_xyz
  1	'-x+.5, y+.5, -z+.5'
  2	'-x, -y, -z'
  3	'x+.5, -y+.5, z+.5'
  4	'x, y, z'
loop_
_atom_type_symbol
_atom_type_oxidation_number
Ca2+	2
Ni2+	2
O2-	-2
W6+	6
loop_
_atom_site_label
_atom_site_type_symbol
_atom_site_symmetry_multiplicity
_atom_site_Wyckoff_symbol
_atom_site_fract_x
_atom_site_fract_y
_atom_site_fract_z
_atom_site_occupancy
_atom_site_attached_hydrogens
_atom_site_B_iso_or_equiv
Ca1 Ca2+ 4 e 0.0129(9) -0.0487(5) 0.2457(10) 1. 0 0.57(5) 
Ni1 Ni2+ 2 c 0.5 0 0.5 1. 0 0.24(4) 
W1 W6+ 2 d 0.5 0 0 1. 0 0.25(8) 
O1 O2- 4 e 0.2117(10) 0.1945(9) 0.0411(8) 1. 0 0.61(9) 
O2 O2- 4 e 0.1950(10) 0.2158(8) 0.4528(5) 1. 0 0.42(8) 
O3 O2- 4 e 0.5860(7) 0.0252(6) 0.2419(8) 1. 0 0.62(6) 

#End of data_160110-ICSD


