data_249550-ICSD
#?2014 by Fachinformationszentrum Karlsruhe, and the U.S. Secretary of 
#Commerce on behalf of the United States.  All rights reserved.
_database_code_ICSD                249550
_audit_creation_date               2008/08/01
_chemical_name_systematic          'Tripotassium Hydrogen Bis(sulfate)'
_chemical_formula_structural       'K3 H (S O4)2'
_chemical_formula_sum              'H1 K3 O8 S2'
_publ_section_title
;
Analysis of phase transition pathways in X3 H (S O4)2 (X = Rb, N H4, 
K, Na): Variable temperature single-crystal X-ray diffraction studies
;
loop_
_citation_id
_citation_journal_abbrev
_citation_year
_citation_journal_volume
_citation_journal_issue
_citation_page_first
_citation_page_last
_citation_journal_id_ASTM
primary 'Inorganic Chemistry' 2007 46 11 4411 4421 INOCAJ
_publ_author_name                  'Swain, D.;Row, T.N.G.'
_cell_length_a                     14.5676(17)
_cell_length_b                     5.6506(7)
_cell_length_c                     9.7094(11)
_cell_angle_alpha                  90.00
_cell_angle_beta                   103.011(2)
_cell_angle_gamma                  90.00
_cell_volume                       778.72
_cell_formula_units_Z              4
_symmetry_space_group_name_H-M     'C 1 2/c 1'
_symmetry_Int_Tables_number        15
_refine_ls_R_factor_all            .0256
loop_
_symmetry_equiv_pos_site_id
_symmetry_equiv_pos_as_xyz
  1	'x, -y, z+.5'
  2	'-x, -y, -z'
  3	'-x, y, -z+.5'
  4	'x, y, z'
  5	'x+.5, -y+.5, z+.5'
  6	'-x+.5, -y+.5, -z'
  7	'-x+.5, y+.5, -z+.5'
  8	'x+.5, y+.5, z'
loop_
_atom_type_symbol
_atom_type_oxidation_number
H1+	1
K1+	1
O2-	-2
S6+	6
loop_
_atom_site_label
_atom_site_type_symbol
_atom_site_symmetry_multiplicity
_atom_site_Wyckoff_symbol
_atom_site_fract_x
_atom_site_fract_y
_atom_site_fract_z
_atom_site_occupancy
_atom_site_attached_hydrogens
_atom_site_U_iso_or_equiv
K1 K1+ 8 f 0.19406(3) 0.23319(8) 0.65174(4) 1 0 0.01017(15) 
K2 K1+ 4 e 0.5000 0.25144(10) 0.7500 1 0 0.00902(17) 
S1 S6+ 8 f 0.38380(3) 0.22843(8) 1.03840(5) 1 0 0.00755(16) 
O1 O2- 8 f 0.49087(10) 0.1883(3) 1.06178(16) 1 0 0.0129(3) 
O2 O2- 8 f 0.34730(10) 0.2406(2) 0.88474(15) 1 0 0.0105(3) 
O3 O2- 8 f 0.36915(10) 0.4488(3) 1.10848(15) 1 0 0.0118(3) 
O4 O2- 8 f 0.34605(10) 0.0220(3) 1.09910(14) 1 0 0.0103(3) 
H1 H1+ 4 b 0.5000 0.0000 1.0000 1 0 0.068(18) 

loop_
_atom_site_aniso_label
_atom_site_aniso_type_symbol
_atom_site_aniso_U_11
_atom_site_aniso_U_22
_atom_site_aniso_U_33
_atom_site_aniso_U_12
_atom_site_aniso_U_13
_atom_site_aniso_U_23
K1 K1+ 0.0111(2) 0.0102(2) 0.0092(2) 0.00130(14) 0.00231(16) -0.00006(14)
K2 K1+ 0.0077(3) 0.0107(3) 0.0087(3) 0.000 0.0019(2) 0.000
S1 S6+ 0.0070(2) 0.0080(2) 0.0078(3) 0.00002(16) 0.00198(17) 0.00041(16)
O1 O2- 0.0070(7) 0.0158(7) 0.0158(7) 0.0004(6) 0.0021(5) 0.0005(6)
O2 O2- 0.0117(7) 0.0132(7) 0.0067(7) 0.0006(5) 0.0027(5) -0.0003(5)
O3 O2- 0.0143(7) 0.0105(7) 0.0108(7) -0.0016(5) 0.0031(5) -0.0023(5)
O4 O2- 0.0107(7) 0.0095(7) 0.0114(7) -0.0010(5) 0.0036(5) 0.0017(5)
#End of data_249550-ICSD


