data_16314-ICSD
#?2014 by Fachinformationszentrum Karlsruhe, and the U.S. Secretary of 
#Commerce on behalf of the United States.  All rights reserved.
_database_code_ICSD                16314
_audit_creation_date               1980/01/01
_audit_update_record               2010/02/01
_chemical_name_systematic
;
Dicesium Potassium Hexacyanoferrate(III)
;
_chemical_formula_structural       'Cs2 K (Fe (C N)6)'
_chemical_formula_sum              'C6 Cs2 Fe1 K1 N6'
_publ_section_title
;
Single-crystal neutron diffraction of Cs2 K Fe (C N)6 at 2.4 K
;
loop_
_citation_id
_citation_journal_abbrev
_citation_year
_citation_journal_volume
_citation_page_first
_citation_page_last
_citation_journal_id_ASTM
primary 'Acta Crystallographica B (24,1968-38,1982)' 1979 35 3129 3130 ACBCAR
_publ_author_name                  'Herren, F.;Ludi, A.'
_cell_length_a                     10.936(7)
_cell_length_b                     8.118(4)
_cell_length_c                     7.542(5)
_cell_angle_alpha                  90.
_cell_angle_beta                   90.71(1)
_cell_angle_gamma                  90.
_cell_volume                       669.52
_cell_formula_units_Z              2
_symmetry_space_group_name_H-M     'P 1 21/n 1'
_symmetry_Int_Tables_number        14
_refine_ls_R_factor_all            .044
loop_
_symmetry_equiv_pos_site_id
_symmetry_equiv_pos_as_xyz
  1	'-x+.5, y+.5, -z+.5'
  2	'-x, -y, -z'
  3	'x+.5, -y+.5, z+.5'
  4	'x, y, z'
loop_
_atom_type_symbol
_atom_type_oxidation_number
C2+	2
Cs1+	1
Fe3+	3
K1+	1
N3-	-3
loop_
_atom_site_label
_atom_site_type_symbol
_atom_site_symmetry_multiplicity
_atom_site_Wyckoff_symbol
_atom_site_fract_x
_atom_site_fract_y
_atom_site_fract_z
_atom_site_occupancy
_atom_site_attached_hydrogens
_atom_site_B_iso_or_equiv
Fe1 Fe3+ 2 a 0 0 0 1. 0 0.23 
K1 K1+ 2 d 0 0.5 0.5 1. 0 0.26 
Cs1 Cs1+ 4 e 0.2522(3) 0.4190(17) -.0273(4) 1. 0 0.31 
C1 C2+ 4 e 0.0331(3) 0.1270(14) -.2088(4) 1. 0 0.37 
C2 C2+ 4 e 0.0425(3) -.2030(16) -.1236(4) 1. 0 0.47 
C3 C2+ 4 e 0.1666(2) 0.0250(14) 0.0772(3) 1. 0 0.41 
N1 N3- 4 e 0.0560(2) 0.200(1) -.3344(3) 1. 0 0.7 
N2 N3- 4 e 0.0697(2) -.3200(11) -.1996(3) 1. 0 0.6 
N3 N3- 4 e 0.2669(2) 0.043(1) 0.1255(2) 1. 0 0.6 

#End of data_16314-ICSD


