data_421064-ICSD
#?2014 by Fachinformationszentrum Karlsruhe, and the U.S. Secretary of 
#Commerce on behalf of the United States.  All rights reserved.
_database_code_ICSD                421064
_audit_creation_date               2011/02/01
_chemical_name_systematic          'Potassium Trivanadate'
_chemical_formula_structural       'K (V3 O8)'
_chemical_formula_sum              'K1 O8 V3'
_publ_section_title
;
Synthesis, X-ray structure, density functional theory (DFT) study on 
electronic and optical properties of a novel 2D-polyoxovanadate 
anionic compound
;
loop_
_citation_id
_citation_journal_abbrev
_citation_year
_citation_journal_volume
_citation_page_first
_citation_page_last
_citation_journal_id_ASTM
primary 'Inorganic Chemistry Communications' 2010 13 1281 1284 ICCOFP
_publ_author_name
;
Tong Yi Ping;Luo Guo Tian;Zhou Wen;Ng Seik Weng
;
_cell_length_a                     4.9769(4)
_cell_length_b                     8.3810(7)
_cell_length_c                     7.6396(7)
_cell_angle_alpha                  90.00
_cell_angle_beta                   96.9340(10)
_cell_angle_gamma                  90.00
_cell_volume                       316.33
_cell_formula_units_Z              2
_symmetry_space_group_name_H-M     'P 1 21/m 1'
_symmetry_Int_Tables_number        11
_refine_ls_R_factor_all            .0259
loop_
_symmetry_equiv_pos_site_id
_symmetry_equiv_pos_as_xyz
  1	'x, -y+.5, z'
  2	'-x, -y, -z'
  3	'-x, y+.5, -z'
  4	'x, y, z'
loop_
_atom_type_symbol
_atom_type_oxidation_number
K1+	1
O2-	-2
V5+	5
loop_
_atom_site_label
_atom_site_type_symbol
_atom_site_symmetry_multiplicity
_atom_site_Wyckoff_symbol
_atom_site_fract_x
_atom_site_fract_y
_atom_site_fract_z
_atom_site_occupancy
_atom_site_attached_hydrogens
_atom_site_U_iso_or_equiv
V1 V5+ 2 e 0.41812(10) 0.7500 0.07850(7) 1 0 0.00818(19) 
V2 V5+ 4 f 0.94057(7) 0.55389(5) 0.19097(5) 1 0 0.00827(18) 
O1 O2- 2 e 0.6191(5) 0.7500 -0.0701(3) 1 0 0.0147(5) 
O2 O2- 4 f 0.6189(3) 0.5982(2) 0.2428(2) 1 0 0.0108(4) 
O3 O2- 2 e 0.0969(5) 0.7500 0.2652(3) 1 0 0.0100(5) 
O4 O2- 4 f 0.1867(3) 0.5860(2) 0.0059(2) 1 0 0.0110(4) 
O5 O2- 4 f 1.0698(4) 0.4307(2) 0.3368(2) 1 0 0.0154(4) 
K1 K1+ 2 e 0.45299(18) 0.7500 0.56471(12) 1 0 0.0292(3) 

loop_
_atom_site_aniso_label
_atom_site_aniso_type_symbol
_atom_site_aniso_U_11
_atom_site_aniso_U_22
_atom_site_aniso_U_33
_atom_site_aniso_U_12
_atom_site_aniso_U_13
_atom_site_aniso_U_23
V1 V5+ 0.0070(3) 0.0071(3) 0.0105(3) 0.000 0.0016(2) 0.000
V2 V5+ 0.0085(2) 0.0065(3) 0.0100(2) 0.00038(14) 0.00154(15) 0.00040(15)
O1 O2- 0.0138(11) 0.0146(13) 0.0168(12) 0.000 0.0066(9) 0.000
O2 O2- 0.0108(7) 0.0085(8) 0.0131(8) 0.0001(7) 0.0016(6) 0.0006(7)
O3 O2- 0.0090(10) 0.0094(11) 0.0116(10) 0.000 0.0008(8) 0.000
O4 O2- 0.0106(7) 0.0098(8) 0.0128(8) -0.0030(7) 0.0021(6) -0.0026(7)
O5 O2- 0.0190(9) 0.0117(10) 0.0153(8) 0.0056(7) 0.0016(7) 0.0030(7)
K1 K1+ 0.0243(4) 0.0445(6) 0.0177(4) 0.000 -0.0020(3) 0.000
#End of data_421064-ICSD


