data_14310-ICSD
#?2014 by Fachinformationszentrum Karlsruhe, and the U.S. Secretary of 
#Commerce on behalf of the United States.  All rights reserved.
_database_code_ICSD                14310
_audit_creation_date               1980/01/01
_audit_update_record               2012/02/01
_chemical_name_systematic
;
Sodium Ammonium Sulfate(VI) Dihydrate
;
_chemical_formula_structural       'Na (N H4) (S O4) (H2 O)2'
_chemical_formula_sum              'H8 N1 Na1 O6 S1'
_chemical_name_mineral             Lecontite
_publ_section_title
;
The Crystal Structure of Lecontite, Na N H4 S O4 (H2 O)2
;
loop_
_citation_id
_citation_journal_abbrev
_citation_year
_citation_journal_volume
_citation_page_first
_citation_page_last
_citation_journal_id_ASTM
primary 'Acta Crystallographica (1,1948-23,1967)' 1967 22 683 687 ACCRA9
2 'Phase Transition' 1992 38 127 220 PHTRDP
_publ_author_name
;
Corazza, E.;Sabelli, C.;Giuseppetti, G.
;
_cell_length_a                     8.216(8)
_cell_length_b                     12.854(11)
_cell_length_c                     6.232(8)
_cell_angle_alpha                  90.
_cell_angle_beta                   90.
_cell_angle_gamma                  90.
_cell_volume                       658.15
_cell_formula_units_Z              4
_symmetry_space_group_name_H-M     'P 21 21 21'
_symmetry_Int_Tables_number        19
_refine_ls_R_factor_all            .08
loop_
_symmetry_equiv_pos_site_id
_symmetry_equiv_pos_as_xyz
  1	'-x, y+.5, -z+.5'
  2	'x+.5, -y+.5, -z'
  3	'-x+.5, -y, z+.5'
  4	'x, y, z'
loop_
_atom_type_symbol
_atom_type_oxidation_number
H1+	1
N3-	-3
Na1+	1
O2-	-2
S6+	6
loop_
_atom_site_label
_atom_site_type_symbol
_atom_site_symmetry_multiplicity
_atom_site_Wyckoff_symbol
_atom_site_fract_x
_atom_site_fract_y
_atom_site_fract_z
_atom_site_occupancy
_atom_site_attached_hydrogens
S1 S6+ 4 a 0.0842(2) 0.1277(1) 0.3733(6) 1. 0 
Na1 Na1+ 4 a 0.2652(4) 0.4847(2) 0.9133(8) 1. 0 
O1 O2- 4 a 0.0690(9) 0.2001(6) 0.1890(28) 1. 0 
O2 O2- 4 a 0.0617(12) 0.1894(3) 0.5740(27) 1. 0 
O3 O2- 4 a 0.245(1) 0.0807(5) 0.3719(24) 1. 0 
O4 O2- 4 a 0.0392(10) 0.5455(5) 0.138(2) 1. 0 
O5 O2- 4 a 0.2115(7) 0.6350(4) 0.6949(16) 1. 0 
O6 O2- 4 a 0.0793(6) 0.4039(4) 0.6625(19) 1. 0 
N1 N3- 4 a 0.1719(8) 0.8541(5) 0.3678(24) 1. 0 
H1 H1+ 4 a 0.91 0.145 0.7 1. 0 
H2 H1+ 4 a 0.71 0.19 0.78 1. 0 
H3 H1+ 4 a 0.57 0.175 0.37 1. 0 
H4 H1+ 4 a 0.48 0.09 0.36 1. 0 
H5 H1+ 4 a 0.395 0.2 0.855 1. 0 
H6 H1+ 4 a 0.41 0.06 0.86 1. 0 
H7 H1+ 4 a 0.23 0.16 0.99 1. 0 
H8 H1+ 4 a 0.24 0.16 0.78 1. 0 

#End of data_14310-ICSD


