data_90378-ICSD
#?2014 by Fachinformationszentrum Karlsruhe, and the U.S. Secretary of 
#Commerce on behalf of the United States.  All rights reserved.
_database_code_ICSD                90378
_audit_creation_date               2002/04/01
_audit_update_record               2005/10/01
_chemical_name_systematic          'Potassium Yttrium Ditungstate'
_chemical_formula_structural       'K Y (W2 O8)'
_chemical_formula_sum              'K1 O8 W2 Y1'
_publ_section_title
;
A neutron diffraction study of nonstoichiometric alpha-(K Y W2 O8)
;
loop_
_citation_id
_citation_journal_abbrev
_citation_year
_citation_journal_volume
_citation_page_first
_citation_page_last
_citation_journal_id_ASTM
primary 'Journal of Alloys and Compounds' 2000 306 227 234 JALCEU
2 'Golden Book of Phase Transitions, Wroclaw' 2002 1 1 123 GBOPT5
_publ_author_name
;
Gallucci, E.;Goutaudier, C.;Cohen-Addad, M.T.;Mentzen, U.0.F.;Hansen, 
T.
;
_cell_length_a                     10.6249(1)
_cell_length_b                     10.3385(1)
_cell_length_c                     7.5496(1)
_cell_angle_alpha                  90.
_cell_angle_beta                   130.746(1)
_cell_angle_gamma                  90.
_cell_volume                       628.28
_cell_formula_units_Z              4
_symmetry_space_group_name_H-M     'C 1 2/c 1'
_symmetry_Int_Tables_number        15
_refine_ls_R_factor_all            .045
loop_
_symmetry_equiv_pos_site_id
_symmetry_equiv_pos_as_xyz
  1	'x, -y, z+.5'
  2	'-x, -y, -z'
  3	'-x, y, -z+.5'
  4	'x, y, z'
  5	'x+.5, -y+.5, z+.5'
  6	'-x+.5, -y+.5, -z'
  7	'-x+.5, y+.5, -z+.5'
  8	'x+.5, y+.5, z'
loop_
_atom_type_symbol
_atom_type_oxidation_number
K1+	1
O2-	-2
W6+	6
Y3+	3
loop_
_atom_site_label
_atom_site_type_symbol
_atom_site_symmetry_multiplicity
_atom_site_Wyckoff_symbol
_atom_site_fract_x
_atom_site_fract_y
_atom_site_fract_z
_atom_site_occupancy
_atom_site_attached_hydrogens
W1 W6+ 8 f 0.1963(3) 0.0000(3) 0.2349(4) 1. 0 
Y1 Y3+ 4 e 0 0.2715(2) 0.75 1. 0 
K1 K1+ 4 e 0 0.7010(5) 0.75 1. 0 
O1 O2- 8 f 0.1263(2) 0.5799(2) 0.1884(4) 1. 0 
O2 O2- 8 f 0.0236(3) 0.1088(2) 0.9704(4) 1. 0 
O3 O2- 8 f 0.2244(3) 0.3418(2) 0.1249(4) 1. 0 
O4 O2- 8 f 0.1897(2) 0.9233(2) 0.9406(4) 1. 0 

loop_
_atom_site_aniso_label
_atom_site_aniso_type_symbol
_atom_site_aniso_U_11
_atom_site_aniso_U_22
_atom_site_aniso_U_33
_atom_site_aniso_U_12
_atom_site_aniso_U_13
_atom_site_aniso_U_23
W1 W6+ 0.00503 0.00603 0.00923 0.0027 0.00316 0.00488
Y1 Y3+ 0.01363 0.00719 0.0064 0 0.00732 0
K1 K1+ 0.01944 0.01677 0.01198 0 0.01273 0
O1 O2- 0.00875 0.00808 0.01265 0.00129 0.00703 -.00215
O2 O2- 0.00834 0.00459 0.00891 0.00213 0.00614 0.00049
O3 O2- 0.00868 0.00645 0.0067 -.00295 0.00233 -.00142
O4 O2- 0.00601 0.00885 0.00657 -.00225 0.00295 -.00217
#End of data_90378-ICSD


