data_78012-ICSD
#?2014 by Fachinformationszentrum Karlsruhe, and the U.S. Secretary of 
#Commerce on behalf of the United States.  All rights reserved.
_database_code_ICSD                78012
_audit_creation_date               1995/10/17
_chemical_name_systematic          'Iron Aluminium Fluoride'
_chemical_formula_structural       'Fe Al F5'
_chemical_formula_sum              'Al1 F5 Fe1'
_publ_section_title
;
FeAlF5: Synthesis and crystal structure
;
loop_
_citation_id
_citation_journal_abbrev
_citation_year
_citation_journal_volume
_citation_page_first
_citation_page_last
_citation_journal_id_ASTM
primary 'Journal of Solid State Chemistry' 1994 108 189 192 JSSCBI
_publ_author_name
;
Fourquet, J.L.;Calage, Y.;Bentrup, U.
;
_cell_length_a                     7.4289(8)
_cell_length_b                     6.203(1)
_cell_length_c                     3.5574(6)
_cell_angle_alpha                  90.
_cell_angle_beta                   90.
_cell_angle_gamma                  90.
_cell_volume                       163.93
_cell_formula_units_Z              2
_symmetry_space_group_name_H-M     'I m m m'
_symmetry_Int_Tables_number        71
_refine_ls_R_factor_all            .074
loop_
_symmetry_equiv_pos_site_id
_symmetry_equiv_pos_as_xyz
  1	'x, y, -z'
  2	'x, -y, z'
  3	'-x, y, z'
  4	'-x, -y, -z'
  5	'-x, -y, z'
  6	'-x, y, -z'
  7	'x, -y, -z'
  8	'x, y, z'
  9	'x+.5, y+.5, -z+.5'
 10	'x+.5, -y+.5, z+.5'
 11	'-x+.5, y+.5, z+.5'
 12	'-x+.5, -y+.5, -z+.5'
 13	'-x+.5, -y+.5, z+.5'
 14	'-x+.5, y+.5, -z+.5'
 15	'x+.5, -y+.5, -z+.5'
 16	'x+.5, y+.5, z+.5'
loop_
_atom_type_symbol
_atom_type_oxidation_number
Al3+	3
F1-	-1
Fe2+	2
loop_
_atom_site_label
_atom_site_type_symbol
_atom_site_symmetry_multiplicity
_atom_site_Wyckoff_symbol
_atom_site_fract_x
_atom_site_fract_y
_atom_site_fract_z
_atom_site_occupancy
_atom_site_attached_hydrogens
_atom_site_B_iso_or_equiv
Fe1 Fe2+ 2 a 0 0 0 1. 0 1.8(8) 
Al1 Al3+ 2 b 0 0.5 0.5 1. 0 2.(1) 
F1 F1- 4 e 0.742(8) 0 0 1. 0 3.0(9) 
F2 F1- 2 d 0.5 0 0.5 1. 0 3.0(9) 
F3 F1- 4 h 0 0.209(9) 0.5 1. 0 3.0(9) 

#End of data_78012-ICSD


