data_170601-ICSD
#?2014 by Fachinformationszentrum Karlsruhe, and the U.S. Secretary of 
#Commerce on behalf of the United States.  All rights reserved.
_database_code_ICSD                170601
_audit_creation_date               2006/04/01
_chemical_name_systematic          'Dipotassium Lead Thiogermanate'
_chemical_formula_structural       'K2 Pb Ge2 S6'
_chemical_formula_sum              'Ge2 K2 Pb1 S6'
_publ_section_title
;
Exploratory synthesis in molten salts: role of flux basicity in the 
stabilization of the complex thiogermanates Cs4 Pb4 Ge5 S16, K2 Pb 
Ge2 S6, and K4 Sn3 Ge3 S14
;
loop_
_citation_id
_citation_journal_abbrev
_citation_year
_citation_journal_volume
_citation_journal_issue
_citation_page_first
_citation_page_last
_citation_journal_id_ASTM
primary 'Inorganic Chemistry' 2005 44 12 4151 4153 INOCAJ
_publ_author_name
;
Palchik, O.;Marking, G.M.;Kanatzidis, M.G.
;
_cell_length_a                     9.268(2)
_cell_length_b                     14.338(3)
_cell_length_c                     8.919(2)
_cell_angle_alpha                  90.00
_cell_angle_beta                   90.563(4)
_cell_angle_gamma                  90.00
_cell_volume                       1185.14
_cell_formula_units_Z              4
_symmetry_space_group_name_H-M     'C 1 2/c 1'
_symmetry_Int_Tables_number        15
_refine_ls_R_factor_all            .021
loop_
_symmetry_equiv_pos_site_id
_symmetry_equiv_pos_as_xyz
  1	'x, -y, z+.5'
  2	'-x, -y, -z'
  3	'-x, y, -z+.5'
  4	'x, y, z'
  5	'x+.5, -y+.5, z+.5'
  6	'-x+.5, -y+.5, -z'
  7	'-x+.5, y+.5, -z+.5'
  8	'x+.5, y+.5, z'
loop_
_atom_type_symbol
_atom_type_oxidation_number
Ge4+	4
K1+	1
Pb2+	2
S2-	-2
loop_
_atom_site_label
_atom_site_type_symbol
_atom_site_symmetry_multiplicity
_atom_site_Wyckoff_symbol
_atom_site_fract_x
_atom_site_fract_y
_atom_site_fract_z
_atom_site_occupancy
_atom_site_attached_hydrogens
_atom_site_U_iso_or_equiv
Pb1 Pb2+ 4 e 0.5000 0.486891(13) 0.2500 1 0 0.02391(8) 
Ge1 Ge4+ 8 f 0.68356(4) 0.65998(2) 0.06032(4) 1 0 0.01923(10) 
S1 S2- 8 f 0.22316(11) 0.30102(7) 0.16534(10) 1 0 0.0290(2) 
S2 S2- 8 f 0.45337(9) 0.63377(6) 0.04069(10) 1 0 0.02241(19) 
S3 S2- 8 f 0.79949(10) 0.54661(7) 0.16470(11) 1 0 0.0271(2) 
K1 K1+ 8 f 1.09986(9) 0.63813(6) 0.01782(11) 1 0 0.0353(2) 

loop_
_atom_site_aniso_label
_atom_site_aniso_type_symbol
_atom_site_aniso_U_11
_atom_site_aniso_U_22
_atom_site_aniso_U_33
_atom_site_aniso_U_12
_atom_site_aniso_U_13
_atom_site_aniso_U_23
Pb1 Pb2+ 0.02871(12) 0.02095(12) 0.02213(12) 0.000 0.00230(7) 0.000
Ge1 Ge4+ 0.01844(19) 0.01894(19) 0.02031(19) -0.00318(13) 0.00053(14) 
-0.00090(13)
S1 S2- 0.0391(5) 0.0274(5) 0.0205(4) -0.0113(4) 0.0078(4) -0.0069(4)
S2 S2- 0.0173(4) 0.0234(4) 0.0264(5) -0.0017(3) -0.0016(3) 0.0015(4)
S3 S2- 0.0224(4) 0.0280(5) 0.0310(5) 0.0055(4) -0.0005(4) 0.0007(4)
K1 K1+ 0.0277(4) 0.0340(5) 0.0442(5) 0.0031(4) 0.0022(4) 0.0075(4)
#End of data_170601-ICSD


