data_79924-ICSD
#?2014 by Fachinformationszentrum Karlsruhe, and the U.S. Secretary of 
#Commerce on behalf of the United States.  All rights reserved.
_database_code_ICSD                79924
_audit_creation_date               1996/10/14
_chemical_name_systematic
;
Potasium Sodium Nonahydridorhenate(VII)
;
_chemical_formula_structural       'K Na (Re H9)'
_chemical_formula_sum              'H9 K1 Na1 Re1'
_publ_section_title
;
Structure of K Na Re H9 by single crystal X-ray diffraction and 
infrared spectroscopy
;
loop_
_citation_id
_citation_journal_abbrev
_citation_year
_citation_journal_volume
_citation_page_first
_citation_page_last
_citation_journal_id_ASTM
primary 'Journal of Alloys and Compounds' 1995 223 4 6 JALCEU
_publ_author_name                  'Stetson, N.T.;Yvon, K.'
_cell_length_a                     9.2045(9)
_cell_length_b                     5.4218(5)
_cell_length_c                     10.1195(10)
_cell_angle_alpha                  90.
_cell_angle_beta                   90.
_cell_angle_gamma                  90.
_cell_volume                       505.01
_cell_formula_units_Z              4
_symmetry_space_group_name_H-M     'P n m a'
_symmetry_Int_Tables_number        62
_refine_ls_R_factor_all            .042
loop_
_symmetry_equiv_pos_site_id
_symmetry_equiv_pos_as_xyz
  1	'x+.5, y, -z+.5'
  2	'x, -y+.5, z'
  3	'-x+.5, y+.5, z+.5'
  4	'-x, -y, -z'
  5	'-x+.5, -y, z+.5'
  6	'-x, y+.5, -z'
  7	'x+.5, -y+.5, -z+.5'
  8	'x, y, z'
loop_
_atom_type_symbol
_atom_type_oxidation_number
H1-	-1
K1+	1
Na1+	1
Re7+	7
loop_
_atom_site_label
_atom_site_type_symbol
_atom_site_symmetry_multiplicity
_atom_site_Wyckoff_symbol
_atom_site_fract_x
_atom_site_fract_y
_atom_site_fract_z
_atom_site_occupancy
_atom_site_attached_hydrogens
Re1 Re7+ 4 c 0.2698(1) 0.25 0.3832(1) 1. 0 
Na1 Na1+ 4 c 0.1370(1) 0.25 0.075(1) 1. 0 
K1 K1+ 4 c 0.0290(7) 0.25 0.6748(6) 1. 0 
H1 H1- 8 d 0.41 0.05 0.414 1. 0 
H2 H1- 8 d 0.23 0.05 0.26 1. 0 
H3 H1- 8 d 0.18 0.05 0.485 1. 0 
H4 H1- 4 c 0.395 0.25 0.26 1. 0 
H5 H1- 4 c 0.348 0.25 0.535 1. 0 
H6 H1- 4 c 0.086 0.25 0.357 1. 0 

loop_
_atom_site_aniso_label
_atom_site_aniso_type_symbol
_atom_site_aniso_U_11
_atom_site_aniso_U_22
_atom_site_aniso_U_33
_atom_site_aniso_U_12
_atom_site_aniso_U_13
_atom_site_aniso_U_23
Re1 Re7+ 0.0040(7) -.0004(7) 0.0117(7) 0 0.0002(5) 0
Na1 Na1+ 0.012(5) 0.013(6) 0.022(6) 0 -.001(5) 0
K1 K1+ 0.014(3) 0.008(3) 0.021(3) 0 0.0002(3) 0
#End of data_79924-ICSD


