data_74864-ICSD
#?2014 by Fachinformationszentrum Karlsruhe, and the U.S. Secretary of 
#Commerce on behalf of the United States.  All rights reserved.
_database_code_ICSD                74864
_audit_creation_date               1995/10/17
_audit_update_record               2010/08/01
_chemical_name_systematic
;
Cesium Potassium Disodium Octalithium Tetrakis(lithosilicate)
;
_chemical_formula_structural       'Cs K Na2 Li8 (Li (Si O4))4'
_chemical_formula_sum              'Cs1 K1 Li12 Na2 O16 Si4'
_publ_section_title
;
Neue Silicate mit "stuffed Pyrgoms": Cs K Na Li9 (Li (Si O4))4, Cs K 
Na2 Li8 (Li (Si O4))4, Rb Na3 Li8 (Li (Si O4))4 und Rb Na Li4 (Li (Si 
O4))2
;
loop_
_citation_id
_citation_journal_abbrev
_citation_year
_citation_journal_volume
_citation_page_first
_citation_page_last
_citation_journal_id_ASTM
primary 'Zeitschrift fuer Anorganische und Allgemeine Chemie (1950) (DE)'
 1994 620 1495 1508 ZAACAB
_publ_author_name                  'Hofmann, J.;Brandes, R.;Hoppe, R.'
_cell_length_a                     11.035(7)
_cell_length_b                     11.035(7)
_cell_length_c                     6.377(4)
_cell_angle_alpha                  90.
_cell_angle_beta                   90.
_cell_angle_gamma                  90.
_cell_volume                       776.54
_cell_formula_units_Z              2
_symmetry_space_group_name_H-M     'I 4/m'
_symmetry_Int_Tables_number        87
_refine_ls_R_factor_all            .044
loop_
_symmetry_equiv_pos_site_id
_symmetry_equiv_pos_as_xyz
  1	'-y, x, -z'
  2	'y, -x, -z'
  3	'x, y, -z'
  4	'-x, -y, -z'
  5	'y, -x, z'
  6	'-y, x, z'
  7	'-x, -y, z'
  8	'x, y, z'
  9	'-y+.5, x+.5, -z+.5'
 10	'y+.5, -x+.5, -z+.5'
 11	'x+.5, y+.5, -z+.5'
 12	'-x+.5, -y+.5, -z+.5'
 13	'y+.5, -x+.5, z+.5'
 14	'-y+.5, x+.5, z+.5'
 15	'-x+.5, -y+.5, z+.5'
 16	'x+.5, y+.5, z+.5'
loop_
_atom_type_symbol
_atom_type_oxidation_number
Cs1+	1
K1+	1
Li1+	1
Na1+	1
O2-	-2
Si4+	4
loop_
_atom_site_label
_atom_site_type_symbol
_atom_site_symmetry_multiplicity
_atom_site_Wyckoff_symbol
_atom_site_fract_x
_atom_site_fract_y
_atom_site_fract_z
_atom_site_occupancy
_atom_site_attached_hydrogens
Si1 Si4+ 8 h 0.2147(1) 0.4215(1) 0 1. 0 
Cs1 Cs1+ 2 a 0 0 0 1. 0 
K1 K1+ 2 b 0 0 0.5 1. 0 
Na1 Na1+ 4 d 0.5 0 0.25 1. 0 
Li1 Li1+ 16 i 0.1163(5) 0.2439(4) 0.2582(8) 1. 0 
Li2 Li1+ 8 h 0.7108(5) 0.9263(5) 0 1. 0 
O1 O2- 8 h 0.4388(2) 0.1628(2) 0 1. 0 
O2 O2- 8 h 0.0988(2) 0.3288(2) 0 1. 0 
O3 O2- 16 i 0.7939(2) 0.9039(2) 0.2854(3) 1. 0 

loop_
_atom_site_aniso_label
_atom_site_aniso_type_symbol
_atom_site_aniso_U_11
_atom_site_aniso_U_22
_atom_site_aniso_U_33
_atom_site_aniso_U_12
_atom_site_aniso_U_13
_atom_site_aniso_U_23
Si1 Si4+ 0.0071(4) 0.0072(4) 0.0068(5) 0.0004(3) 0 0
Cs1 Cs1+ 0.0159(2) 0.0159(2) 0.0188(3) 0 0 0
K1 K1+ 0.0195(6) 0.0195(6) 0.0205(10) 0 0 0
Na1 Na1+ 0.0169(6) 0.0169(6) 0.0181(11) 0 0 0
Li1 Li1+ 0.0304(26) 0.0179(21) 0.0143(22) 0.0116(21) 0.0010(21) 0.0008(19)
Li2 Li1+ 0.0081(27) 0.0069(27) 0.0133(33) -.0003(18) 0 0
O1 O2- 0.0081(10) 0.0114(11) 0.0112(12) -.0016(8) 0 0
O2 O2- 0.0110(11) 0.0126(11) 0.0115(12) -.0038(8) 0 0
O3 O2- 0.0123(8) 0.0169(8) 0.0084(10) 0.0043(6) 0.0020(6) 0.0010(6)
#End of data_74864-ICSD


