data_16133-ICSD
#?2014 by Fachinformationszentrum Karlsruhe, and the U.S. Secretary of 
#Commerce on behalf of the United States.  All rights reserved.
_database_code_ICSD                16133
_audit_creation_date               1980/01/01
_audit_update_record               2005/10/01
_chemical_name_systematic
;
Dipotassium Mue-fluoro-mue-sulfato(VI)- Catena-difluoromanganate(III)
;
_chemical_formula_structural       'K2 (F (S O4) (Mn F2))'
_chemical_formula_sum              'F3 K2 Mn1 O4 S1'
_publ_section_title
;
Fluoride crystal structures. Part XVIII. Dipotassium catena-mue-
fluorodifluoro-mue-sulfatomanganate(III)
;
loop_
_citation_id
_citation_journal_abbrev
_citation_year
_citation_journal_volume
_citation_page_first
_citation_page_last
_citation_journal_id_ASTM
primary
;
Journal of the Chemical Society A: Inorganic, Physical, Theoretical 
(1966-1971)
;
 1971 1971 3074 3076 JCSIAP
2 'Golden Book of Phase Transitions, Wroclaw' 2002 1 1 123 GBOPT5
_publ_author_name                  'Edwards, A.J.'
_cell_length_a                     7.26(1)
_cell_length_b                     8.45(1)
_cell_length_c                     10.77(2)
_cell_angle_alpha                  90.
_cell_angle_beta                   90.
_cell_angle_gamma                  90.
_cell_volume                       660.71
_cell_formula_units_Z              4
_symmetry_space_group_name_H-M     'P n a b'
_symmetry_Int_Tables_number        60
_refine_ls_R_factor_all            .064
loop_
_symmetry_equiv_pos_site_id
_symmetry_equiv_pos_as_xyz
  1	'x+.5, -y, z'
  2	'x, y+.5, -z+.5'
  3	'-x+.5, y+.5, z+.5'
  4	'-x, -y, -z'
  5	'-x+.5, y, -z'
  6	'-x, -y+.5, z+.5'
  7	'x+.5, -y+.5, -z+.5'
  8	'x, y, z'
loop_
_atom_type_symbol
_atom_type_oxidation_number
F1-	-1
K1+	1
Mn3+	3
O2-	-2
S6+	6
loop_
_atom_site_label
_atom_site_type_symbol
_atom_site_symmetry_multiplicity
_atom_site_Wyckoff_symbol
_atom_site_fract_x
_atom_site_fract_y
_atom_site_fract_z
_atom_site_occupancy
_atom_site_attached_hydrogens
_atom_site_B_iso_or_equiv
Mn1 Mn3+ 4 a 0 0 0 1. 0 0.84 
S1 S6+ 4 c 0.25 -.3108(5) 0 1. 0 1.32 
K1 K1+ 8 d 0.1954(4) 0.3268(4) 0.1910(3) 1. 0 1.97 
F1 F1- 4 c 0.25 0.1095(12) 0 1. 0 1.92 
F2 F1- 8 d -.0245(1) 0.0557(8) 0.1619(7) 1. 0 1.71 
O1 O2- 8 d 0.1085(13) -.2046(10) 0.0597(8) 1. 0 1.61 
O2 O2- 8 d 0.3363(15) -.4051(13) 0.0982(10) 1. 0 2.85 

#End of data_16133-ICSD


