data_34360-ICSD
#?2014 by Fachinformationszentrum Karlsruhe, and the U.S. Secretary of 
#Commerce on behalf of the United States.  All rights reserved.
_database_code_ICSD                34360
_audit_creation_date               1980/01/01
_audit_update_record               1999/01/19
_chemical_name_systematic
;
Heptamagnesium Phyllo-octasilicate Difluoride
;
_chemical_formula_structural       'Mg7 Si8 O22 F2'
_chemical_formula_sum              'F2 Mg7 O22 Si8'
_chemical_name_mineral             Protoamphibole
_publ_section_title
;
Crystal structure of protoamphibole
;
loop_
_citation_id
_citation_journal_abbrev
_citation_year
_citation_journal_volume
_citation_page_first
_citation_page_last
_citation_journal_id_ASTM
primary 'Mineralogical Society of America: Special Papers'
 1969 2 101 109 MSAPAX
_publ_author_name                  'Gibbs, G.V.'
_cell_length_a                     9.33
_cell_length_b                     17.879
_cell_length_c                     5.288
_cell_angle_alpha                  90.
_cell_angle_beta                   90.
_cell_angle_gamma                  90.
_cell_volume                       882.1
_cell_formula_units_Z              2
_symmetry_space_group_name_H-M     'P n m n'
_symmetry_Int_Tables_number        58
_refine_ls_R_factor_all            .05
loop_
_symmetry_equiv_pos_site_id
_symmetry_equiv_pos_as_xyz
  1	'x+.5, y+.5, -z+.5'
  2	'-x+.5, y+.5, z+.5'
  3	'x, -y, z'
  4	'-x, -y, -z'
  5	'-x+.5, -y+.5, z+.5'
  6	'x+.5, -y+.5, -z+.5'
  7	'-x, y, -z'
  8	'x, y, z'
loop_
_atom_type_symbol
_atom_type_oxidation_number
F1-	-1
Mg2+	2
O2-	-2
Si4+	4
loop_
_atom_site_label
_atom_site_type_symbol
_atom_site_symmetry_multiplicity
_atom_site_Wyckoff_symbol
_atom_site_fract_x
_atom_site_fract_y
_atom_site_fract_z
_atom_site_occupancy
_atom_site_attached_hydrogens
_atom_site_B_iso_or_equiv
O1 O2- 8 h 0.1155(4) 0.0851(2) 0.1659(7) 1. 0 0.56 
O2 O2- 8 h 0.1216(4) 0.1726(2) 0.6702(7) 1. 0 0.63 
F1 F1- 4 g 0.1032(5) 0 0.6640(9) 1. 0 0.7 
O3 O2- 8 h 0.1228(4) 0.2511(2) 0.1844(7) 1. 0 0.57 
O4 O2- 8 h 0.3475(5) 0.1212(3) 0.4292(9) 1. 0 0.91 
O5 O2- 8 h 0.3506(5) 0.1308(3) 0.9324(9) 1. 0 1.38 
O6 O2- 4 g 0.3494(6) 0 0.1592(11) 1. 0 0.94 
Mg1 Mg2+ 4 f 0 0.0883(1) 0.5 1. 0 0.52 
Mg2 Mg2+ 4 e 0 0.1786(1) 0 1. 0 0.57 
Mg3 Mg2+ 2 a 0 0 0 1. 0 0.55 
Mg4 Mg2+ 4 f 0 0.2579(1) 0.5 1. 0 0.55 
Si1 Si4+ 8 h 0.2868(2) 0.0847(1) 0.1720(3) 1. 0 0.38 
Si2 Si4+ 8 h 0.2941(2) 0.1711(1) 0.6694(3) 1. 0 0.47 

#End of data_34360-ICSD


