data_290499-ICSD
#?2014 by Fachinformationszentrum Karlsruhe, and the U.S. Secretary of 
#Commerce on behalf of the United States.  All rights reserved.
_database_code_ICSD                290499
_audit_creation_date               2014/02/01
_chemical_name_systematic          'Silver Niobate(V)'
_chemical_formula_structural       'Ag (Nb O3)'
_chemical_formula_sum              'Ag1 Nb1 O3'
_publ_section_title
;
A first - principles study of the ferroelectric phase of Ag Nb O3
;
loop_
_citation_id
_citation_journal_abbrev
_citation_year
_citation_journal_volume
_citation_page_first
_citation_page_last
_citation_journal_id_ASTM
primary 'Japanese Journal of Applied Physics' 2012 51 09LE02-1 09LE02-4 JJAPB6
_publ_author_name
;
Moriwake, Hiroki;Fisher, Craig A.J.;Kuwabara, Akihide;Fu, Desheng
;
_cell_length_a                     5.452793
_cell_length_b                     5.540388
_cell_length_c                     15.41935
_cell_angle_alpha                  90.
_cell_angle_beta                   90.
_cell_angle_gamma                  90.
_cell_volume                       465.83
_cell_formula_units_Z              8
_symmetry_space_group_name_H-M     'P b c m'
_symmetry_Int_Tables_number        57
loop_
_symmetry_equiv_pos_site_id
_symmetry_equiv_pos_as_xyz
  1	'x, -y+.5, z+.5'
  2	'-x, y+.5, z'
  3	'x, y, -z+.5'
  4	'-x, -y, -z'
  5	'-x, y+.5, -z+.5'
  6	'x, -y+.5, -z'
  7	'-x, -y, z+.5'
  8	'x, y, z'
loop_
_atom_type_symbol
_atom_type_oxidation_number
Ag1+	1
Nb5+	5
O2-	-2
loop_
_atom_site_label
_atom_site_type_symbol
_atom_site_symmetry_multiplicity
_atom_site_Wyckoff_symbol
_atom_site_fract_x
_atom_site_fract_y
_atom_site_fract_z
_atom_site_occupancy
_atom_site_attached_hydrogens
Nb1 Nb5+ 8 e 0.24461 0.22664 0.12504 1. 0 
Ag1 Ag1+ 4 c 0.74396 0.25 0 1. 0 
Ag2 Ag1+ 4 d 0.73809 0.22188 0.25 1. 0 
O1 O2- 4 c 0.32209 0.25 0 1. 0 
O2 O2- 8 e 0.95275 0.04688 0.10696 1. 0 
O3 O2- 8 e 0.54602 0.45934 0.14322 1. 0 
O4 O2- 4 d 0.18045 0.27762 0.25 1. 0 

#End of data_290499-ICSD


