data_81204-ICSD
#?2014 by Fachinformationszentrum Karlsruhe, and the U.S. Secretary of 
#Commerce on behalf of the United States.  All rights reserved.
_database_code_ICSD                81204
_audit_creation_date               1997/11/05
_audit_update_record               2005/10/01
_chemical_name_systematic          'Dicalcium Iron Tungstate - Alpha'
_chemical_formula_structural       'Ca2 Fe (W O6)'
_chemical_formula_sum              'Ca2 Fe1 O6 W1'
_publ_section_title
;
Phase transition, phase transition mechanism and crystal structure of 
a new compound - Ca2 Fe W O6
;
loop_
_citation_id
_citation_journal_abbrev
_citation_year
_citation_journal_volume
_citation_page_first
_citation_page_last
_citation_journal_id_ASTM
primary 'Science in China, Ser. A' 1995 38 974 984 SCASEY
2 'Golden Book of Phase Transitions, Wroclaw' 2002 1 1 123 GBOPT5
_publ_author_name                  'Fu, Z.-M.;Li, W.-X.'
_cell_length_a                     7.7051(10)
_cell_length_b                     5.4242(10)
_cell_length_c                     5.5108(10)
_cell_angle_alpha                  90.
_cell_angle_beta                   90.
_cell_angle_gamma                  90.
_cell_volume                       230.32
_cell_formula_units_Z              2
_symmetry_space_group_name_H-M     'P m m 2'
_symmetry_Int_Tables_number        25
_refine_ls_R_factor_all            .115
loop_
_symmetry_equiv_pos_site_id
_symmetry_equiv_pos_as_xyz
  1	'-x, y, z'
  2	'x, -y, z'
  3	'-x, -y, z'
  4	'x, y, z'
loop_
_atom_type_symbol
_atom_type_oxidation_number
Ca2+	2
Fe2+	2
O2-	-2
W6+	6
loop_
_atom_site_label
_atom_site_type_symbol
_atom_site_symmetry_multiplicity
_atom_site_Wyckoff_symbol
_atom_site_fract_x
_atom_site_fract_y
_atom_site_fract_z
_atom_site_occupancy
_atom_site_attached_hydrogens
_atom_site_B_iso_or_equiv
Ca1 Ca2+ 2 e 0.26 0 0.5 1. 0 2.5 
Ca2 Ca2+ 2 f 0.25 0.5 0.01 1. 0 2.5 
Fe1 Fe2+ 1 b 0 0.5 0.451 1. 0 2.5 
Fe2 Fe2+ 1 c 0.5 0 0 1. 0 2.5 
W1 W6+ 1 a 0 0 0.951 1. 0 2.5 
W2 W6+ 1 d 0.5 0.5 0.5 1. 0 2.5 
O1 O2- 2 g 0 0.245 0.195 1. 0 2.5 
O2 O2- 2 g 0 0.755 0.705 1. 0 2.5 
O3 O2- 2 h 0.5 0.255 0.255 1. 0 2.5 
O4 O2- 2 h 0.5 0.255 0.745 1. 0 2.5 
O5 O2- 2 e 0.245 0 0.951 1. 0 2.5 
O6 O2- 2 f 0.255 0.5 0.5 1. 0 2.5 

#End of data_81204-ICSD


