data_96597-ICSD
#?2014 by Fachinformationszentrum Karlsruhe, and the U.S. Secretary of 
#Commerce on behalf of the United States.  All rights reserved.
_database_code_ICSD                96597
_audit_creation_date               2004/04/01
_audit_update_record               2006/04/01
_chemical_name_systematic
;
Pentalead Trialuminium Fluoride - I
;
_chemical_formula_structural       'Pb5 Al3 F19'
_chemical_formula_sum              'Al3 F19 Pb5'
_publ_section_title
;
Structure-property correlation over five phases and four transitions 
in Pb5 Al3 F19
;
loop_
_citation_id
_citation_journal_abbrev
_citation_year
_citation_journal_volume
_citation_page_first
_citation_page_last
_citation_journal_id_ASTM
primary 'Acta Crystallographica, Section B: Structural Science'
 2003 59 557 574 ASBSDK
2 'Golden Book of Phase Transitions, Wroclaw' 2002 1 1 123 GBOPT5
_publ_author_name
;
Abrahams, S.C.;Ravez, J.;Ritter, H.;Ihringer, J.
;
_cell_length_a                     14.29
_cell_length_b                     14.29
_cell_length_c                     7.23
_cell_angle_alpha                  90.
_cell_angle_beta                   90.
_cell_angle_gamma                  90.
_cell_volume                       1476.4
_cell_formula_units_Z              4
_symmetry_space_group_name_H-M     'I 4/m c m'
_symmetry_Int_Tables_number        140
loop_
_symmetry_equiv_pos_site_id
_symmetry_equiv_pos_as_xyz
  1	'y, x, -z+.5'
  2	'-y, -x, -z+.5'
  3	'-y, x, -z'
  4	'y, -x, -z'
  5	'x, -y, -z+.5'
  6	'-x, y, -z+.5'
  7	'x, y, -z'
  8	'-x, -y, -z'
  9	'-y, -x, z+.5'
 10	'y, x, z+.5'
 11	'y, -x, z'
 12	'-y, x, z'
 13	'-x, y, z+.5'
 14	'x, -y, z+.5'
 15	'-x, -y, z'
 16	'x, y, z'
 17	'y+.5, x+.5, -z'
 18	'-y+.5, -x+.5, -z'
 19	'-y+.5, x+.5, -z+.5'
 20	'y+.5, -x+.5, -z+.5'
 21	'x+.5, -y+.5, -z'
 22	'-x+.5, y+.5, -z'
 23	'x+.5, y+.5, -z+.5'
 24	'-x+.5, -y+.5, -z+.5'
 25	'-y+.5, -x+.5, z'
 26	'y+.5, x+.5, z'
 27	'y+.5, -x+.5, z+.5'
 28	'-y+.5, x+.5, z+.5'
 29	'-x+.5, y+.5, z'
 30	'x+.5, -y+.5, z'
 31	'-x+.5, -y+.5, z+.5'
 32	'x+.5, y+.5, z+.5'
loop_
_atom_type_symbol
_atom_type_oxidation_number
Al3+	3
F1-	-1
Pb2+	2
loop_
_atom_site_label
_atom_site_type_symbol
_atom_site_symmetry_multiplicity
_atom_site_Wyckoff_symbol
_atom_site_fract_x
_atom_site_fract_y
_atom_site_fract_z
_atom_site_occupancy
_atom_site_attached_hydrogens
Pb1 Pb2+ 16 k 0.427(12) 0.272(11) 0 1. 0 
Pb2 Pb2+ 4 b 0 0.5 0.25 1. 0 
Al1 Al3+ 8 h 0.168(7) 0.332(7) 0 1. 0 
Al2 Al3+ 4 a 0 0 0.25 1. 0 
F1 F1- 32 m 0.274(29) 0.099(10) 0.331(11) 1. 0 
F2 F1- 8 h -.081(30) 0.419(30) 0.5 1. 0 
F3 F1- 8 h 0.250(11) 0.250(11) 0.5 1. 0 
F4 F1- 4 c 0 0 0.5 1. 0 
F5 F1- 16 i 0.417(33) 0.583(33) 0.25 1. 0 
F6 F1- 8 h 0.107(21) 0.393(21) 0.5 1. 0 

#End of data_96597-ICSD


