data_415201-ICSD
#?2014 by Fachinformationszentrum Karlsruhe, and the U.S. Secretary of 
#Commerce on behalf of the United States.  All rights reserved.
_database_code_ICSD                415201
_audit_creation_date               2006/10/01
_chemical_name_systematic          'Lithium Triborate'
_chemical_formula_structural       'B3 Li O5'
_chemical_formula_sum              'B3 Li1 O5'
_publ_section_title
;
Li B3 O5 crystal structure at 20, 227, and 377 degree C
;
loop_
_citation_id
_citation_journal_abbrev
_citation_year
_citation_journal_volume
_citation_page_first
_citation_page_last
_citation_journal_id_ASTM
primary 'Journal of Solid State Chemistry' 2005 178 2987 2997 JSSCBI
_publ_author_name
;
Shepelev, Yu.F.;Bubnova, R.S.;Filatov, S.K.;Sennova, N.A.;Pilneva, 
N.A.
;
_cell_length_a                     8.444(5)
_cell_length_b                     7.378(4)
_cell_length_c                     5.146(3)
_cell_angle_alpha                  90.00
_cell_angle_beta                   90.00
_cell_angle_gamma                  90.00
_cell_volume                       320.59
_cell_formula_units_Z              4
_symmetry_space_group_name_H-M     'P n a 21'
_symmetry_Int_Tables_number        33
_refine_ls_R_factor_all            .0219
loop_
_symmetry_equiv_pos_site_id
_symmetry_equiv_pos_as_xyz
  1	'x+.5, -y+.5, z'
  2	'-x+.5, y+.5, z+.5'
  3	'-x, -y, z+.5'
  4	'x, y, z'
loop_
_atom_type_symbol
_atom_type_oxidation_number
B3+	3
Li1+	1
O2-	-2
loop_
_atom_site_label
_atom_site_type_symbol
_atom_site_symmetry_multiplicity
_atom_site_Wyckoff_symbol
_atom_site_fract_x
_atom_site_fract_y
_atom_site_fract_z
_atom_site_occupancy
_atom_site_attached_hydrogens
_atom_site_B_iso_or_equiv
Li1 Li1+ 4 a .41196(18) .56689(16) .00000 1. 0 1.632(21) 
B1 B3+ 4 a .50983(6) .83545(6) .3525(3) 1. 0 .547(6) 
B2 B3+ 4 a .69434(5) .05688(5) .5489(3) 1. 0 .444(5) 
B3 B3+ 4 a .65725(5) .75137(6) .7321(3) 1. 0 .485(5) 
O1 O2- 4 a .58671(4) .99559(4) .3450(3) 1. 0 .681(4) 
O2 O2- 4 a .38351(4) .79517(4) .1966(3) 1. 0 .613(4) 
O3 O2- 4 a .55827(4) .70208(4) .5279(3) 1. 0 .648(4) 
O4 O2- 4 a .73880(4) .90976(4) .7332(3) 1. 0 .526(4) 
O5 O2- 4 a .66116(4) .62494(4) .9268(3) 1. 0 .614(4) 

#End of data_415201-ICSD


