data_171574-ICSD
#?2014 by Fachinformationszentrum Karlsruhe, and the U.S. Secretary of 
#Commerce on behalf of the United States.  All rights reserved.
_database_code_ICSD                171574
_audit_creation_date               2006/10/01
_audit_update_record               2014/08/01
_chemical_name_systematic
;
Decamagnesium Trisilicate Tetrahydroxide
;
_chemical_formula_structural       'Mg10 Si3 O14 (O H)4'
_chemical_formula_sum              'H4 Mg10 O18 Si3'
_publ_section_title
;
Polymorphic phase transition in superhydrous phase B
;
loop_
_citation_id
_citation_journal_abbrev
_citation_year
_citation_journal_volume
_citation_page_first
_citation_page_last
_citation_journal_id_ASTM
primary 'Physics and Chemistry of Minerals' 2005 32 349 361 PCMIDU
_publ_author_name
;
Koch-Mueller, M.;Dera, P.;Fei, Y.;Hellwig, H.;Liu, Z.;van Orman, 
J.;Wirth, R.
;
_cell_length_a                     14.024(21)
_cell_length_b                     5.109(4)
_cell_length_c                     8.733(12)
_cell_angle_alpha                  90
_cell_angle_beta                   90
_cell_angle_gamma                  90
_cell_volume                       625.71
_cell_formula_units_Z              2
_symmetry_space_group_name_H-M     'P n n 2'
_symmetry_Int_Tables_number        34
_refine_ls_R_factor_all            .1447
loop_
_symmetry_equiv_pos_site_id
_symmetry_equiv_pos_as_xyz
  1	'x+.5, -y+.5, z+.5'
  2	'-x+.5, y+.5, z+.5'
  3	'-x, -y, z'
  4	'x, y, z'
loop_
_atom_type_symbol
_atom_type_oxidation_number
H1+	1
Mg2+	2
O2-	-2
Si4+	4
loop_
_atom_site_label
_atom_site_type_symbol
_atom_site_symmetry_multiplicity
_atom_site_Wyckoff_symbol
_atom_site_fract_x
_atom_site_fract_y
_atom_site_fract_z
_atom_site_occupancy
_atom_site_attached_hydrogens
Mg1 Mg2+ 4 c 0.1731(3) 0.3279(9) 0.0053(12) 1. 0 
Mg2 Mg2+ 4 c 0.1775(5) 0.8358(17) 0.1752(9) 1. 0 
Mg3 Mg2+ 4 c 0.3240(4) 0.3461(14) 0.3242(6) 1. 0 
Mg4 Mg2+ 2 b 0.00000 0.50000 0.8286(12) 1. 0 
Mg5 Mg2+ 2 b 0.00000 0.50000 0.1870(11) 1. 0 
Mg6 Mg2+ 2 a 0.00000 0.00000 0.6625(10) 1. 0 
Mg7 Mg2+ 2 a 0.00000 0.00000 0.3455(13) 1. 0 
Si1 Si4+ 2 a 0.00000 0.00000 0.0077(13) 1. 0 
Si2 Si4+ 4 c 0.3766(2) 0.0141(7) 0.0051(9) 1. 0 
O1 O2- 4 c 0.4153(5) 0.7088(17) 0.9936(18) 1. 0 
O2 O2- 4 c 0.0783(5) 0.6931(17) 0.0050(20) 1. 0 
O3 O2- 4 c 0.2495(8) 0.0220(30) 0.3451(14) 1. 0 
O4 O2- 4 c 0.2552(11) 0.5120(30) 0.1620(20) 1. 0 
O5 O2- 4 c 0.0760(10) 0.1440(30) 0.1531(17) 1. 0 
O6 O2- 4 c 0.4298(8) 0.6470(30) 0.3619(14) 1. 0 
O7 O2- 4 c 0.4145(9) 0.1530(30) 0.1599(16) 1. 0 
O8 O2- 4 c 0.0889(8) 0.6850(30) 0.3479(14) 1. 0 
O9 O2- 4 c 0.2598(5) 0.0048(19) 0.0070 1. 0 
H1 H1+ 4 c 0.3000 0.6000 0.1000 1. 0 
H2 H1+ 4 c 0.2700 0.1800 0.4500 1. 0 

#End of data_171574-ICSD


