data_60896-ICSD
#?2014 by Fachinformationszentrum Karlsruhe, and the U.S. Secretary of 
#Commerce on behalf of the United States.  All rights reserved.
_database_code_ICSD                60896
_audit_creation_date               1988/02/22
_audit_update_record               2003/04/01
_chemical_name_systematic          'Potassium Tetrafluorochromate(III)'
_chemical_formula_structural       'K (Cr F4)'
_chemical_formula_sum              'Cr1 F4 K1'
_publ_section_title
;
Structural studies of potassium tetrafluorochromate(III), K (Cr F4), 
and the novel mixed chloride fluoride, dipotassium 
dichlorohexafluorotrichromate(II), K2 (Cr3 Cl2 F6)
;
loop_
_citation_id
_citation_journal_abbrev
_citation_year
_citation_journal_volume
_citation_page_first
_citation_page_last
_citation_journal_id_ASTM
primary
;
Journal of the Chemical Society. Dalton Transactions, Inorganic 
Chemistry (1972-)
;
 1986 1986 2623 2627 JCDTBI
2 'Phase Transition' 1992 38 127 220 PHTRDP
_publ_author_name
;
Dewan, J.C.;Edwards, A.J.;Guy, J.J.
;
_cell_length_a                     15.76(1)
_cell_length_b                     7.43(1)
_cell_length_c                     18.38(1)
_cell_angle_alpha                  90.
_cell_angle_beta                   90.
_cell_angle_gamma                  90.
_cell_volume                       2152.24
_cell_formula_units_Z              24
_symmetry_space_group_name_H-M     'P n m a'
_symmetry_Int_Tables_number        62
_refine_ls_R_factor_all            .041
loop_
_symmetry_equiv_pos_site_id
_symmetry_equiv_pos_as_xyz
  1	'x+.5, y, -z+.5'
  2	'x, -y+.5, z'
  3	'-x+.5, y+.5, z+.5'
  4	'-x, -y, -z'
  5	'-x+.5, -y, z+.5'
  6	'-x, y+.5, -z'
  7	'x+.5, -y+.5, -z+.5'
  8	'x, y, z'
loop_
_atom_type_symbol
_atom_type_oxidation_number
Cr3+	3
F1-	-1
K1+	1
loop_
_atom_site_label
_atom_site_type_symbol
_atom_site_symmetry_multiplicity
_atom_site_Wyckoff_symbol
_atom_site_fract_x
_atom_site_fract_y
_atom_site_fract_z
_atom_site_occupancy
_atom_site_attached_hydrogens
Cr1 Cr3+ 8 d 0.36848(5) -.0006(1) 0.63095(4) 1. 0 
Cr2 Cr3+ 8 d 0.13569(5) -.00187(10) 0.62642(4) 1. 0 
Cr3 Cr3+ 8 d 0.25295(5) -.00091(10) 0.45300(4) 1. 0 
K1 K1+ 4 c -.0446(1) 0.25 0.5321(1) 1. 0 
K2 K1+ 4 c 0.4603(1) 0.75 0.4768(1) 1. 0 
K3 K1+ 4 c 0.4312(1) 0.75 0.8193(1) 1. 0 
K4 K1+ 4 c 0.1004(1) 0.75 0.8342(1) 1. 0 
K5 K1+ 4 c 0.2197(1) 0.75 0.2893(1) 1. 0 
K6 K1+ 4 c 0.0418(1) 0.25 0.7874(1) 1. 0 
F1 F1- 8 d 0.4030(2) 0.0377(4) 0.7264(2) 1. 0 
F2 F1- 8 d 0.3353(2) -.0375(4) 0.5304(2) 1. 0 
F3 F1- 8 d 0.4809(2) -.0366(4) 0.6004(2) 1. 0 
F4 F1- 8 d 0.2518(2) 0.0462(4) 0.6593(2) 1. 0 
F5 F1- 8 d 0.1016(2) -.0379(5) 0.7213(2) 1. 0 
F6 F1- 4 c 0.3851(3) 0.25 0.6077(3) 1. 0 
F7 F1- 4 c 0.1077(3) 0.25 0.6398(3) 1. 0 
F8 F1- 4 c 0.3533(3) -.25 0.6521(3) 1. 0 
F9 F1- 4 c 0.1651(3) -.25 0.6114(2) 1. 0 
F10 F1- 8 d 0.0265(2) -.0417(4) 0.5910(2) 1. 0 
F11 F1- 4 c 0.2213(3) -.25 0.4610(2) 1. 0 
F12 F1- 8 d 0.3368(2) -.0561(4) 0.3850(2) 1. 0 
F13 F1- 8 d 0.1693(2) 0.0483(4) 0.5270(2) 1. 0 
F14 F1- 8 d 0.1719(2) 0.0178(4) 0.3808(2) 1. 0 
F15 F1- 4 c 0.2858(3) 0.25 0.4480(2) 1. 0 

loop_
_atom_site_aniso_label
_atom_site_aniso_type_symbol
_atom_site_aniso_U_11
_atom_site_aniso_U_22
_atom_site_aniso_U_33
_atom_site_aniso_U_12
_atom_site_aniso_U_13
_atom_site_aniso_U_23
Cr1 Cr3+ 0.0048(4) 0.0083(4) 0.0108(4) 0.0000(3) -0.0007(3) -0.0005(3)
Cr2 Cr3+ 0.0052(4) 0.0078(4) 0.0100(4) 0.0002(3) 0.0011(3) 0.0001(3)
Cr3 Cr3+ 0.0070(4) 0.0085(4) 0.0091(4) 0.0002(3) 0.0007(3) 0.0001(3)
K1 K1+ 0.0235(9) 0.0250(6) 0.0272(9) 0 -0.0082(8) 0
K2 K1+ 0.0211(9) 0.0210(5) 0.0217(9) 0 0.0079(8) 0
K3 K1+ 0.0169(8) 0.0178(5) 0.0190(8) 0 0.0020(7) 0
K4 K1+ 0.0189(8) 0.0162(5) 0.0145(8) 0 -0.0043(7) 0
K5 K1+ 0.0249(9) 0.0225(5) 0.0197(8) 0 -0.0040(8) 0
K6 K1+ 0.0173(8) 0.0224(5) 0.0280(9) 0 0.0068(8) 0
F1 F1- 0.0186(14) 0.0167(8) 0.0141(14) -0.0040(13) -0.0028(13) 0.0000(13)
F2 F1- 0.0154(14) 0.0149(7) 0.0137(13) 0.0038(13) -0.0047(13) -0.0026(13)
F3 F1- 0.0078(14) 0.0180(8) 0.0278(16) 0.0024(13) 0.0007(14) -0.0005(14)
F4 F1- 0.0079(13) 0.0140(7) 0.0197(14) 0.0001(12) -0.0013(12) -0.0069(12)
F5 F1- 0.0250(16) 0.0194(8) 0.0139(14) 0.0042(14) 0.0068(14) 0.0014(14)
F6 F1- 0.0149(21) 0.0165(11) 0.0183(22) 0 0.0024(19) 0
F7 F1- 0.0097(20) 0.0153(10) 0.0212(22) 0 0.0043(19) 0
F8 F1- 0.0153(22) 0.0177(11) 0.0206(22) 0 0.0038(20) 0
F9 F1- 0.0136(21) 0.0152(10) 0.0172(21) 0 0.0040(19) 0
F10 F1- 0.0104(14) 0.0179(8) 0.0249(15) -0.0022(13) -0.0025(14) -0.0004(14)
F11 F1- 0.0116(19) 0.0149(10) 0.0186(22) 0 0.0041(19) 0
F12 F1- 0.0151(14) 0.0161(8) 0.0174(14) 0.0009(13) 0.0069(13) -0.0012(13)
F13 F1- 0.0135(13) 0.0136(7) 0.0136(13) 0.0039(12) 0.0041(22) 0.0009(12)
F14 F1- 0.0226(16) 0.0207(8) 0.0186(15) 0.0097(14) -0.0075(14) -0.0029(14)
F15 F1- 0.0145(20) 0.0168(10) 0.0195(22) 0 0.0083(19) 0
#End of data_60896-ICSD


