data_249677-ICSD
#?2014 by Fachinformationszentrum Karlsruhe, and the U.S. Secretary of 
#Commerce on behalf of the United States.  All rights reserved.
_database_code_ICSD                249677
_audit_creation_date               2009/02/01
_chemical_name_systematic
;
Tripotassium Hexaoxotriuranate(V) Disilicate
;
_chemical_formula_structural       'K3 (U3 O6) (Si2 O7)'
_chemical_formula_sum              'K3 O13 Si2 U3'
_publ_section_title
;
K3 (U3 O6) (Si2 O7) and Rb3 (U3 O6) (Ge2 O7): A pentavalent-uranium 
silicate and germanate
;
loop_
_citation_id
_citation_journal_abbrev
_citation_year
_citation_journal_volume
_citation_journal_issue
_citation_page_first
_citation_page_last
_citation_journal_id_ASTM
primary 'Inorganic Chemistry' 2008 47 11 4445 4447 INOCAJ
_publ_author_name
;
Lin Chiahui;Chen Chihshan;Shiryaev, A.A.;Zubavichus, Y.V.;Lii 
Kwanghwa
;
_cell_length_a                     9.5389(5)
_cell_length_b                     9.5389(5)
_cell_length_c                     8.3389(9)
_cell_angle_alpha                  90.00
_cell_angle_beta                   90.00
_cell_angle_gamma                  120.00
_cell_volume                       657.11
_cell_formula_units_Z              2
_symmetry_space_group_name_H-M     'P -6 2 c'
_symmetry_Int_Tables_number        190
_refine_ls_R_factor_all            .0247
loop_
_symmetry_equiv_pos_site_id
_symmetry_equiv_pos_as_xyz
  1	'-x, -x+y, -z'
  2	'x-y, -y, -z'
  3	'y, x, -z'
  4	'-x, -x+y, z+.5'
  5	'x-y, -y, z+.5'
  6	'y, x, z+.5'
  7	'-x+y, -x, -z+.5'
  8	'-y, x-y, -z+.5'
  9	'x, y, -z+.5'
 10	'-x+y, -x, z'
 11	'-y, x-y, z'
 12	'x, y, z'
loop_
_atom_type_symbol
_atom_type_oxidation_number
K1+	1
O2-	-2
Si4+	4
U5+	5
loop_
_atom_site_label
_atom_site_type_symbol
_atom_site_symmetry_multiplicity
_atom_site_Wyckoff_symbol
_atom_site_fract_x
_atom_site_fract_y
_atom_site_fract_z
_atom_site_occupancy
_atom_site_attached_hydrogens
_atom_site_U_iso_or_equiv
K1 K1+ 6 h -0.6142(4) -0.5749(4) 0.2500 1 0 0.0185(6) 
U1 U5+ 6 g -0.24442(5) -0.24442(5) 0.0000 1 0 0.00519(18) 
Si1 Si4+ 4 f -0.6667 -0.3333 -0.0573(4) 1 0 0.0078(7) 
O1 O2- 6 h -0.2533(14) -0.2555(15) -0.2500 1 0 0.037(3) 
O2 O2- 12 i -0.5032(10) -0.3240(10) 0.0045(8) 1 0 0.031(2) 
O3 O2- 6 g 0.0000 -0.1896(14) 0.0000 1 0 0.023(3) 
O4 O2- 2 d -0.6667 -0.3333 -0.2500 1 0 0.060(6) 

loop_
_atom_site_aniso_label
_atom_site_aniso_type_symbol
_atom_site_aniso_U_11
_atom_site_aniso_U_22
_atom_site_aniso_U_33
_atom_site_aniso_U_12
_atom_site_aniso_U_13
_atom_site_aniso_U_23
K1 K1+ 0.0147(14) 0.0214(17) 0.0193(13) 0.0089(13) 0.000 0.000
U1 U5+ 0.0043(2) 0.0043(2) 0.0067(2) 0.00199(18) -0.00019(8) 0.00019(8)
Si1 Si4+ 0.0078(11) 0.0078(11) 0.0080(14) 0.0039(5) 0.000 0.000
O1 O2- 0.041(8) 0.048(8) 0.017(5) 0.019(7) 0.000 0.000
O2 O2- 0.016(5) 0.019(4) 0.065(5) 0.013(4) 0.014(3) 0.010(3)
O3 O2- 0.012(5) 0.013(5) 0.045(7) 0.006(3) -0.004(4) -0.002(2)
O4 O2- 0.080(11) 0.080(11) 0.021(9) 0.040(5) 0.000 0.000
#End of data_249677-ICSD


