data_71946-ICSD
#?2014 by Fachinformationszentrum Karlsruhe, and the U.S. Secretary of 
#Commerce on behalf of the United States.  All rights reserved.
_database_code_ICSD                71946
_audit_creation_date               1993/08/22
_audit_update_record               2011/02/01
_chemical_name_systematic
;
Lithium Trioxohydroxodiborate Hydrate
;
_chemical_formula_structural       'Li (B2 O3 (O H)) (H2 O)'
_chemical_formula_sum              'H3 B2 Li1 O5'
_publ_section_title
;
Crystal structure determination of lithium diborate hydrate, Li B2 O3 
(O H) * H2 O, from X-ray powder diffraction data collected with a 
curved position-sensitive detector
;
loop_
_citation_id
_citation_journal_abbrev
_citation_year
_citation_journal_volume
_citation_page_first
_citation_page_last
_citation_journal_id_ASTM
primary 'Journal of Applied Crystallography' 1992 25 617 623 JACGAR
_publ_author_name                  'Louer, D.;Louer, M.;Touboul, M.'
_cell_length_a                     9.7984(10)
_cell_length_b                     8.2759(7)
_cell_length_c                     9.6138(8)
_cell_angle_alpha                  90.
_cell_angle_beta                   90.
_cell_angle_gamma                  90.
_cell_volume                       779.59
_cell_formula_units_Z              8
_symmetry_space_group_name_H-M     'P n n a'
_symmetry_Int_Tables_number        52
_refine_ls_R_factor_all            .03
loop_
_symmetry_equiv_pos_site_id
_symmetry_equiv_pos_as_xyz
  1	'x+.5, -y+.5, z+.5'
  2	'-x, y+.5, z+.5'
  3	'x+.5, y, -z'
  4	'-x, -y, -z'
  5	'-x+.5, y+.5, -z+.5'
  6	'x, -y+.5, -z+.5'
  7	'-x+.5, -y, z'
  8	'x, y, z'
loop_
_atom_type_symbol
_atom_type_oxidation_number
B3+	3
H1+	1
Li1+	1
O2-	-2
loop_
_atom_site_label
_atom_site_type_symbol
_atom_site_symmetry_multiplicity
_atom_site_Wyckoff_symbol
_atom_site_fract_x
_atom_site_fract_y
_atom_site_fract_z
_atom_site_occupancy
_atom_site_attached_hydrogens
_atom_site_B_iso_or_equiv
O1 O2- 8 e 0.854(1) 0.322(1) 0.140(1) 1. 0 1.3(2) 
O2 O2- 8 e 0.677(1) 0.124(1) 0.191(1) 1. 0 0.5(2) 
O3 O2- 8 e 0.853(1) 0.076(1) 0.014(1) 1. 0 1.0(2) 
O4 O2- 8 e 0.002(1) 0.295(1) -.049 1. 0 1.2(2) 
O5 O2- 8 e 0.119(1) 0.064(1) 0.243(1) 1. 0 1.6(2) 
B1 B3+ 4 c 0.75 0 0.112(3) 1. 0 1.8(6) 
B2 B3+ 8 e 0.903(2) 0.229(2) 0.035(2) 1. 0 1.1(4) 
B3 B3+ 4 d 0.762(3) 0.25 0.25 1. 0 1.8(7) 
Li1 Li1+ 8 e 0.546(3) 0.020(4) 0.329(3) 1. 0 1.5(7) 
H1 H1+ 8 e 0.89 -.034 0.864 1. 0 4.(7) 
H2 H1+ 8 e 0.884 0.818 0.756 1. 0 4.(7) 
H3 H1+ 8 e 0.982 0.207 0.853 1. 0 4.(7) 

#End of data_71946-ICSD


