data_240659-ICSD
#?2014 by Fachinformationszentrum Karlsruhe, and the U.S. Secretary of 
#Commerce on behalf of the United States.  All rights reserved.
_database_code_ICSD                240659
_audit_creation_date               2007/08/01
_chemical_name_systematic          'Calcium Borosilicate Hydroxide'
_chemical_formula_structural       'Ca B (Si O4) (O H)'
_chemical_formula_sum              'H1 B1 Ca1 O5 Si1'
_chemical_name_mineral             Datolite
_publ_section_title
;
Multipole refinement and the electron density analysis in natural 
borosilicate datolite using X-ray diffraction data
;
loop_
_citation_id
_citation_journal_abbrev
_citation_year
_citation_journal_volume
_citation_journal_issue
_citation_page_first
_citation_page_last
_citation_journal_id_ASTM
primary 'Acta Crystallographica, Section B: Structural Science'
 2007 63 1 49 55 ASBSDK
_publ_author_name                  'Ivanov, Y. V.;Belokoneva, E.L.'
_cell_length_a                     9.646(6)
_cell_length_b                     7.620(4)
_cell_length_c                     4.839(3)
_cell_angle_alpha                  90.00
_cell_angle_beta                   90.14(5)
_cell_angle_gamma                  90.00
_cell_volume                       355.68
_cell_formula_units_Z              4
_symmetry_space_group_name_H-M     'P 1 21/a 1'
_symmetry_Int_Tables_number        14
loop_
_symmetry_equiv_pos_site_id
_symmetry_equiv_pos_as_xyz
  1	'x+.5, -y+.5, z'
  2	'-x, -y, -z'
  3	'-x+.5, y+.5, -z'
  4	'x, y, z'
loop_
_atom_type_symbol
_atom_type_oxidation_number
B3+	3
Ca2+	2
H1+	1
O2-	-2
Si4+	4
loop_
_atom_site_label
_atom_site_type_symbol
_atom_site_symmetry_multiplicity
_atom_site_Wyckoff_symbol
_atom_site_fract_x
_atom_site_fract_y
_atom_site_fract_z
_atom_site_occupancy
_atom_site_attached_hydrogens
_atom_site_U_iso_or_equiv
H1 H1+ 4 e .584 .552 .829 1.00 0 .036(7) 
B1 B3+ 4 e .34077(5) .41057(6) .56786(10) 1.00 0 .0054(3) 
Ca1 Ca2+ 4 e .336100(10) .106130(10) .99161(2) 1.00 0 .00639(5) 
O1 O2- 4 e .03739(5) .40109(6) .24048(9) 1.00 0 .0074(2) 
O2 O2- 4 e .45730(4) .30115(5) .67017(8) 1.00 0 .0063(2) 
O3 O2- 4 e .21047(4) .33474(6) .67514(8) 1.00 0 .0063(2) 
O4 O2- 4 e .14598(5) .08787(5) .31499(9) 1.00 0 .0070(2) 
O5 O2- 4 e .33680(5) .41344(6) .25851(9) 1.00 0 .0073(2) 
Si1 Si4+ 4 e .084380(10) .26617(2) .46891(3) 1.00 0 .00425(9) 

loop_
_atom_site_aniso_label
_atom_site_aniso_type_symbol
_atom_site_aniso_U_11
_atom_site_aniso_U_22
_atom_site_aniso_U_33
_atom_site_aniso_U_12
_atom_site_aniso_U_13
_atom_site_aniso_U_23
B1 B3+ .00482(14) .00566(15) .00583(14) -.00014(12) .00031(12) -.00006(11)
Ca1 Ca2+ .00589(3) .00680(3) .00647(3) -.00007(2) .00041(2) -.00047(2)
O1 O2- .00735(13) .00702(12) .00792(12) -.00029(11) -.00136(11) .00287(10)
O2 O2- .00488(12) .00751(13) .00637(12) .00201(10) .00101(9) .00095(10)
O3 O2- .00451(11) .00832(13) .00601(12) -.00182(10) -.00005(9) .00027(10)
O4 O2- .00888(14) .00427(12) .00798(12) .00083(10) .00233(11) .00022(9)
O5 O2- .00700(13) .00978(14) .00509(11) -.00055(11) .00020(10) .00063(10)
Si1 Si4+ .00371(5) .00411(5) .00492(5) -.00028(3) .00006(3) .00032(3)
#End of data_240659-ICSD


