data_82845-ICSD
#?2014 by Fachinformationszentrum Karlsruhe, and the U.S. Secretary of 
#Commerce on behalf of the United States.  All rights reserved.
_database_code_ICSD                82845
_audit_creation_date               1998/06/26
_chemical_name_systematic          'Potassium Oxotitanium Phosphate(V)'
_chemical_formula_structural       'K (Ti O) (P O4)'
_chemical_formula_sum              'K1 O5 P1 Ti1'
_publ_section_title
;
The structural pressure dependence of potassium titanyl phosphate 
(KTP) to 8 GPa
;
loop_
_citation_id
_citation_journal_abbrev
_citation_year
_citation_journal_volume
_citation_page_first
_citation_page_last
_citation_journal_id_ASTM
primary 'Journal of Physics: Condensed Matter' 1996 8 2337 2363 JCOMEL
_publ_author_name                  'Allan, D.R.;Nelmes, R.J.'
_cell_length_a                     12.387(9)
_cell_length_b                     6.311(4)
_cell_length_c                     9.966(5)
_cell_angle_alpha                  90.
_cell_angle_beta                   90.
_cell_angle_gamma                  90.
_cell_volume                       779.09
_cell_formula_units_Z              8
_symmetry_space_group_name_H-M     'P n a 21'
_symmetry_Int_Tables_number        33
_refine_ls_R_factor_all            .074
loop_
_symmetry_equiv_pos_site_id
_symmetry_equiv_pos_as_xyz
  1	'x+.5, -y+.5, z'
  2	'-x+.5, y+.5, z+.5'
  3	'-x, -y, z+.5'
  4	'x, y, z'
loop_
_atom_type_symbol
_atom_type_oxidation_number
K1+	1
O2-	-2
P5+	5
Ti4+	4
loop_
_atom_site_label
_atom_site_type_symbol
_atom_site_symmetry_multiplicity
_atom_site_Wyckoff_symbol
_atom_site_fract_x
_atom_site_fract_y
_atom_site_fract_z
_atom_site_occupancy
_atom_site_attached_hydrogens
K1 K1+ 4 a 0.3969(3) 0.7766(3) 0.6321(5) 1. 0 
K2 K1+ 4 a 0.1144(2) 0.6999(3) 0.8650(5) 1. 0 
Ti1 Ti4+ 4 a 0.3716(2) 0.4890(3) -.0004 1. 0 
Ti2 Ti4+ 4 a 0.2839(2) 0.2553(3) 0.7221(4) 1. 0 
P1 P5+ 4 a 0.5324(3) 0.3199(4) 0.7638(5) 1. 0 
P2 P5+ 4 a 0.1793(3) 0.4791(4) 0.4778(4) 1. 0 
O1 O2- 4 a 0.5208(7) 0.4144(10) 0.9038(10) 1. 0 
O2 O2- 4 a 0.5438(6) 0.5038(10) 0.6627(9) 1. 0 
O3 O2- 4 a 0.4375(7) 0.1795(10) 0.7165(10) 1. 0 
O4 O2- 4 a 0.6335(6) 0.1833(10) 0.7583(9) 1. 0 
O5 O2- 4 a 0.1831(6) 0.9726(9) 0.3237(8) 1. 0 
O6 O2- 4 a 0.2509(7) 0.0370(9) 0.5740(9) 1. 0 
O7 O2- 4 a 0.0973(7) 0.2967(9) 0.4726(9) 1. 0 
O8 O2- 4 a 0.1233(7) 0.6773(11) 0.5292(10) 1. 0 
O9 O2- 4 a 0.2272(7) 0.5085(9) 0.3315(8) 1. 0 
O10 O2- 4 a 0.2782(8) 0.4363(9) 0.5652(9) 1. 0 

#End of data_82845-ICSD


