data_79558-ICSD
#?2014 by Fachinformationszentrum Karlsruhe, and the U.S. Secretary of 
#Commerce on behalf of the United States.  All rights reserved.
_database_code_ICSD                79558
_audit_creation_date               1996/10/14
_chemical_name_systematic          'Tribarium Dialuminate'
_chemical_formula_structural       'Ba3 (Al2 O6)'
_chemical_formula_sum              'Al2 Ba3 O6'
_publ_section_title
;
Die Kristallstrukturen der Erdalkalialuminate Ba3 Al2 O6 und Ba2.33 
Ca0.67 Al2 O6 (= Ba7 Ca2 Al6 O18 )
;
loop_
_citation_id
_citation_journal_abbrev
_citation_year
_citation_journal_volume
_citation_page_first
_citation_page_last
_citation_journal_id_ASTM
primary 'Journal of Alloys and Compounds' 1994 216 105 112 JALCEU
_publ_author_name
;
Walz, L.;Heinau, M.;Nick, B.;Curda, J.
;
_cell_length_a                     16.50679(50)
_cell_length_b                     16.50679(50)
_cell_length_c                     16.50679(50)
_cell_angle_alpha                  90.
_cell_angle_beta                   90.
_cell_angle_gamma                  90.
_cell_volume                       4497.67
_cell_formula_units_Z              24
_symmetry_space_group_name_H-M     'P 21 21 21'
_symmetry_Int_Tables_number        19
_refine_ls_R_factor_all            .055
loop_
_symmetry_equiv_pos_site_id
_symmetry_equiv_pos_as_xyz
  1	'-x, y+.5, -z+.5'
  2	'x+.5, -y+.5, -z'
  3	'-x+.5, -y, z+.5'
  4	'x, y, z'
loop_
_atom_type_symbol
_atom_type_oxidation_number
Al3+	3
Ba2+	2
O2-	-2
loop_
_atom_site_label
_atom_site_type_symbol
_atom_site_symmetry_multiplicity
_atom_site_Wyckoff_symbol
_atom_site_fract_x
_atom_site_fract_y
_atom_site_fract_z
_atom_site_occupancy
_atom_site_attached_hydrogens
_atom_site_U_iso_or_equiv
Ba1 Ba2+ 4 a 0.1142(3) 0.1159(3) 0.1032(3) 1. 0 0.013(1) 
Ba2 Ba2+ 4 a 0.3559(3) 0.3644(3) 0.3551(3) 1. 0 0.013(1) 
Ba3 Ba2+ 4 a 0.5030(6) 0.5022(6) 0.4990(7) 1. 0 0.012(1) 
Ba4 Ba2+ 4 a 0.6305(3) 0.6232(3) 0.6322(4) 1. 0 0.016(1) 
Ba5 Ba2+ 4 a 0.7455(2) 0.7544(3) 0.7539(3) 1. 0 0.021(1) 
Ba6 Ba2+ 4 a 0.8853(3) 0.8843(3) 0.9008(3) 1. 0 0.011(1) 
Ba7 Ba2+ 4 a 0.1154(3) 0.5997(3) 0.3854(3) 1. 0 0.012(1) 
Ba8 Ba2+ 4 a 0.6248(3) 0.3757(3) 0.1250(3) 1. 0 0.010(1) 
Ba9 Ba2+ 4 a 0.4008(3) 0.1145(3) 0.6154(3) 1. 0 0.011(1) 
Ba10 Ba2+ 4 a 0.8839(3) 0.3971(3) 0.6141(4) 1. 0 0.013(1) 
Ba11 Ba2+ 4 a 0.3733(3) 0.6272(3) 0.8736(4) 1. 0 0.016(1) 
Ba12 Ba2+ 4 a 0.6036(3) 0.8854(3) 0.3838(4) 1. 0 0.010(1) 
Ba13 Ba2+ 4 a 0.1327(3) 0.3692(3) 0.8770(4) 1. 0 0.016(1) 
Ba14 Ba2+ 4 a 0.3765(3) 0.8678(3) 0.1312(4) 1. 0 0.015(1) 
Ba15 Ba2+ 4 a 0.8773(3) 0.1225(3) 0.3774(3) 1. 0 0.013(1) 
Ba16 Ba2+ 4 a 0.1410(3) 0.8583(3) 0.6412(3) 1. 0 0.016(1) 
Ba17 Ba2+ 4 a 0.8555(3) 0.6440(3) 0.1361(3) 1. 0 0.016(1) 
Ba18 Ba2+ 4 a 0.6360(3) 0.1451(3) 0.8561(3) 1. 0 0.016(1) 
Al1 Al3+ 4 a -.0153(12) 0.5147(13) 0.2435(12) 1. 0 0.005(1) 
Al2 Al3+ 4 a 0.0061(10) 0.7330(15) 0.2657(18) 1. 0 0.005(1) 
Al3 Al3+ 4 a 0.0262(11) 0.7504(10) 0.4776(12) 1. 0 0.005(1) 
Al4 Al3+ 4 a 0.2316(15) 0.7304(17) 0.4986(10) 1. 0 0.005(1) 
Al5 Al3+ 4 a 0.2551(12) 0.5152(13) 0.5175(15) 1. 0 0.005(1) 
Al6 Al3+ 4 a 0.2316(14) 0.4932(10) 0.7333(15) 1. 0 0.005(1) 
Al7 Al3+ 4 a 0.0204(11) 0.4745(12) 0.7520(11) 1. 0 0.005(1) 
Al8 Al3+ 4 a -.0004(10) 0.2701(15) 0.7312(18) 1. 0 0.005(1) 
Al9 Al3+ 4 a -.0149(12) 0.2445(11) 0.5130(13) 1. 0 0.005(1) 
Al10 Al3+ 4 a 0.7691(15) 0.2655(16) 0.4937(11) 1. 0 0.005(1) 
Al11 Al3+ 4 a 0.7464(11) 0.4776(12) 0.4759(14) 1. 0 0.005(1) 
Al12 Al3+ 4 a 0.7635(14) 0.4979(10) 0.2717(16) 1. 0 0.005(1) 
O1 O2- 4 a 0.0167(29) 0.4824(28) 0.3406(34) 1. 0 0.011(1) 
O2 O2- 4 a 0.0204(24) 0.4795(26) 0.1563(29) 1. 0 0.011(1) 
O3 O2- 4 a 0.0069(21) 0.6266(29) 0.2422(25) 1. 0 0.011(1) 
O4 O2- 4 a -.0917(22) 0.7722(22) 0.2389(25) 1. 0 0.011(1) 
O5 O2- 4 a 0.0924(23) 0.7704(26) 0.2245(25) 1. 0 0.011(1) 
O6 O2- 4 a 0.0158(23) 0.7449(20) 0.3682(26) 1. 0 0.011(1) 
O7 O2- 4 a -.0317(20) 0.8451(23) 0.5131(21) 1. 0 0.011(1) 
O8 O2- 4 a -.0106(22) 0.6637(27) 0.5216(24) 1. 0 0.011(1) 
O9 O2- 4 a 0.1232(28) 0.7495(28) 0.5005(22) 1. 0 0.011(1) 
O10 O2- 4 a 0.2625(23) 0.7603(24) 0.4009(22) 1. 0 0.011(1) 
O11 O2- 4 a 0.2803(20) 0.7760(22) 0.5832(23) 1. 0 0.011(1) 
O12 O2- 4 a 0.2533(21) 0.6249(31) 0.5126(28) 1. 0 0.011(1) 
O13 O2- 4 a 0.1629(29) 0.4863(27) 0.4872(26) 1. 0 0.011(1) 
O14 O2- 4 a 0.3487(21) 0.4772(23) 0.4822(23) 1. 0 0.011(1) 
O15 O2- 4 a 0.2599(22) 0.4900(21) 0.6221(29) 1. 0 0.011(1) 
O16 O2- 4 a 0.2680(23) 0.5915(24) 0.7659(27) 1. 0 0.011(1) 
O17 O2- 4 a 0.2801(22) 0.4069(22) 0.7731(25) 1. 0 0.011(1) 
O18 O2- 4 a 0.1283(26) 0.4825(24) 0.7448(22) 1. 0 0.011(1) 
O19 O2- 4 a -.0139(28) 0.5126(27) 0.6611(34) 1. 0 0.011(1) 
O20 O2- 4 a -.0135(22) 0.5260(27) 0.8434(29) 1. 0 0.011(1) 
O21 O2- 4 a -.0031(21) 0.3775(29) 0.7450(26) 1. 0 0.011(1) 
O22 O2- 4 a 0.0973(21) 0.2429(23) 0.7581(27) 1. 0 0.011(1) 
O23 O2- 4 a -.0849(22) 0.2249(24) 0.7810(24) 1. 0 0.011(1) 
O24 O2- 4 a -.0063(19) 0.2474(21) 0.6217(31) 1. 0 0.011(1) 
O25 O2- 4 a 0.0159(24) 0.3416(28) 0.4904(23) 1. 0 0.011(1) 
O26 O2- 4 a 0.0136(18) 0.1583(25) 0.4773(24) 1. 0 0.011(1) 
O27 O2- 4 a 0.8701(28) 0.2485(26) 0.4871(22) 1. 0 0.011(1) 
O28 O2- 4 a 0.7326(23) 0.2347(25) 0.5837(25) 1. 0 0.011(1) 
O29 O2- 4 a 0.7325(21) 0.2190(22) 0.4056(23) 1. 0 0.011(1) 
O30 O2- 4 a 0.7549(21) 0.3697(29) 0.4876(27) 1. 0 0.011(1) 
O31 O2- 4 a 0.6614(22) 0.5117(21) 0.5310(24) 1. 0 0.011(1) 
O32 O2- 4 a 0.8406(29) 0.5112(26) 0.5233(27) 1. 0 0.011(1) 
O33 O2- 4 a 0.7527(22) 0.5037(22) 0.3751(32) 1. 0 0.011(1) 
O34 O2- 4 a 0.7432(23) 0.4037(23) 0.2394(28) 1. 0 0.011(1) 
O35 O2- 4 a 0.7263(23) 0.5793(21) 0.2235(25) 1. 0 0.011(1) 
O36 O2- 4 a 0.8753(29) 0.5086(21) 0.2463(24) 1. 0 0.011(1) 

#End of data_79558-ICSD


