data_94511-ICSD
#?2014 by Fachinformationszentrum Karlsruhe, and the U.S. Secretary of 
#Commerce on behalf of the United States.  All rights reserved.
_database_code_ICSD                94511
_audit_creation_date               2003/10/01
_chemical_name_systematic
;
Silver Manganese Tris(phosphate(V))
;
_chemical_formula_structural       'Ag Mn (P O3)3'
_chemical_formula_sum              'Ag1 Mn1 O9 P3'
_publ_section_title
;
Synthesis and crystal structure of the binary polyphosphate Ag Mn (P 
O3)3
;
loop_
_citation_id
_citation_journal_abbrev
_citation_year
_citation_journal_volume
_citation_journal_issue
_citation_page_first
_citation_page_last
_citation_journal_id_ASTM
primary 'Zhurnal Neorganicheskoi Khimii' 2001 46 9 1427 1430 ZNOKAQ
_publ_author_name
;
Murashova, E.V.;Chudinova, N.N.;Balagina, G.M.
;
_cell_length_a                     14.530(2)
_cell_length_b                     14.529(3)
_cell_length_c                     14.533(2)
_cell_angle_alpha                  90
_cell_angle_beta                   90
_cell_angle_gamma                  90
_cell_volume                       3068.01
_cell_formula_units_Z              16
_symmetry_space_group_name_H-M     'P 21 21 21'
_symmetry_Int_Tables_number        19
_refine_ls_R_factor_all            .055
loop_
_symmetry_equiv_pos_site_id
_symmetry_equiv_pos_as_xyz
  1	'-x, y+.5, -z+.5'
  2	'x+.5, -y+.5, -z'
  3	'-x+.5, -y, z+.5'
  4	'x, y, z'
loop_
_atom_type_symbol
_atom_type_oxidation_number
Ag1+	1
Mn2+	2
O2-	-2
P5+	5
loop_
_atom_site_label
_atom_site_type_symbol
_atom_site_symmetry_multiplicity
_atom_site_Wyckoff_symbol
_atom_site_fract_x
_atom_site_fract_y
_atom_site_fract_z
_atom_site_occupancy
_atom_site_attached_hydrogens
_atom_site_U_iso_or_equiv
Mn1 Mn2+ 4 a 0.8843(2) 0.3649(2) 0.1216(3) 1. 0 0.0096(6) 
Mn2 Mn2+ 4 a 0.3743(2) 0.6265(2) 0.1257(2) 1. 0 0.0096(5) 
Mn3 Mn2+ 4 a 0.3759(2) 0.3747(3) 0.3766(3) 1. 0 0.0117(6) 
Mn4 Mn2+ 4 a 0.1335(2) 0.1139(2) 0.1289(3) 1. 0 0.0085(5) 
Ag1 Ag1+ 4 a 0.9980(2) 0.0098(2) -0.0067(2) 1. 0 0.0307(6) 
Ag2 Ag1+ 4 a 0.4990(2) -0.0060(2) -0.0025(2) 1. 0 0.0346(8) 
Ag3 Ag1+ 4 a 0.7466(2) 0.2563(2) 0.2478(2) 1. 0 0.0323(6) 
Ag4 Ag1+ 4 a 0.2436(2) 0.2566(2) 0.2530(2) 1. 0 0.0328(6) 
P1 P5+ 4 a 0.5275(4) 0.5250(4) 0.2649(4) 1. 0 0.013(1) 
P2 P5+ 4 a 0.7251(4) 0.5016(3) 0.2230(4) 1. 0 0.0070(9) 
P3 P5+ 4 a 0.7427(4) 0.5258(4) 0.0233(4) 1. 0 0.0112(9) 
P4 P5+ 4 a 0.7281(3) 0.7239(3) -0.0160(4) 1. 0 0.0043(8) 
P5 P5+ 4 a 0.5268(4) 0.7358(3) -0.0266(4) 1. 0 0.0063(8) 
P6 P5+ 4 a 0.5045(5) 0.7768(4) 0.7781(5) 1. 0 0.021(1) 
P7 P5+ 4 a 0.5226(5) 0.9758(5) 0.7603(5) 1. 0 0.021(1) 
P8 P5+ 4 a 0.7255(5) 0.9911(5) 0.7273(5) 1. 0 0.025(1) 
P9 P5+ 4 a 0.7371(5) 0.9776(5) 0.5210(5) 1. 0 0.021(1) 
P10 P5+ 4 a 0.7736(3) 0.7742(3) 0.5103(3) 1. 0 0.0028(7) 
P11 P5+ 4 a 0.9704(3) 0.7538(3) 0.5262(3) 1. 0 0.0017(8) 
P12 P5+ 4 a 0.0172(3) 0.7780(3) 0.7236(3) 1. 0 0.0068(9) 
O1 O2- 4 a 0.4792(9) 0.4775(8) 0.3396(8) 1. 0 0.005(2) 
O2 O2- 4 a 0.626(1) 0.476(1) 0.263(1) 1. 0 0.019(3) 
O3 O2- 4 a 0.553(1) 0.625(1) 0.308(1) 1. 0 0.018(3) 
O4 O2- 4 a 0.486(1) 0.530(1) 0.178(1) 1. 0 0.020(3) 
O5 O2- 4 a 0.699(1) 0.537(1) 0.122(1) 1. 0 0.018(3) 
O6 O2- 4 a 0.782(1) 0.421(1) 0.221(1) 1. 0 0.016(3) 
O7 O2- 4 a 0.766(1) 0.5754(9) 0.274(1) 1. 0 0.011(3) 
O8 O2- 4 a 0.7751(9) 0.6275(9) -0.0078(8) 1. 0 0.007(2) 
O9 O2- 4 a 0.8271(8) 0.4693(9) 0.0311(9) 1. 0 0.006(2) 
O10 O2- 4 a 0.671(1) 0.491(1) -0.036(1) 1. 0 0.016(3) 
O11 O2- 4 a 0.774(1) 0.774(1) -0.092(1) 1. 0 0.011(3) 
O12 O2- 4 a 0.719(1) 0.767(1) 0.078(1) 1. 0 0.015(3) 
O13 O2- 4 a 0.6266(8) 0.6997(8) -0.0529(9) 1. 0 0.006(2) 
O14 O2- 4 a 0.478(1) 0.746(1) 0.874(1) 1. 0 0.021(3) 
O15 O2- 4 a 0.484(1) 0.656(1) 0.031(2) 1. 0 0.032(4) 
O16 O2- 4 a 0.537(1) 0.829(1) 0.021(1) 1. 0 0.017(3) 
O17 O2- 4 a 0.550(1) 0.875(1) 0.799(1) 1. 0 0.030(4) 
O18 O2- 4 a 0.408(1) 0.790(1) 0.731(1) 1. 0 0.025(4) 
O19 O2- 4 a 0.580(1) 0.712(1) 0.741(1) 1. 0 0.028(4) 
O20 O2- 4 a 0.479(1) 0.974(1) 0.671(1) 1. 0 0.019(3) 
O21 O2- 4 a 0.480(1) 0.026(1) 0.835(1) 1. 0 0.030(4) 
O22 O2- 4 a 0.627(2) 0.016(2) 0.7540(2) 1. 0 0.056(7) 
O23 O2- 4 a 0.767(1) 0.081(1) 0.709(1) 1. 0 0.025(4) 
O24 O2- 4 a 0.765(2) 0.924(2) 0.790(2) 1. 0 0.039(5) 
O25 O2- 4 a 0.702(1) 0.949(1) 0.624(1) 1. 0 0.028(4) 
O26 O2- 4 a 0.664(1) 0.024(1) 0.468(1) 1. 0 0.015(3) 
O27 O2- 4 a 0.8281(8) 0.0237(9) 0.5273(9) 1. 0 0.006(2) 
O28 O2- 4 a 0.744(1) 0.876(1) 0.481(1) 1. 0 0.018(3) 
O29 O2- 4 a 0.8716(8) 0.7907(9) 0.5520(9) 1. 0 0.010(2) 
O30 O2- 4 a 0.7773(9) 0.7236(8) 0.4214(8) 1. 0 0.004(2) 
O31 O2- 4 a 0.714(1) 0.742(1) 0.5825(9) 1. 0 0.011(3) 
O32 O2- 4 a 0.9579(9) 0.6641(9) 0.484(1) 1. 0 0.011(2) 
O33 O2- 4 a 0.026(1) 0.833(1) 0.489(1) 1. 0 0.025(4) 
O34 O2- 4 a 0.009(1) 0.728(1) 0.624(1) 1. 0 0.013(2) 
O35 O2- 4 a 0.9212(9) 0.776(1) 0.773(1) 1. 0 0.009(3) 
O36 O2- 4 a 0.0890(9) 0.725(1) 0.774(9) 1. 0 0.009(3) 

#End of data_94511-ICSD


