data_165607-ICSD
#?2014 by Fachinformationszentrum Karlsruhe, and the U.S. Secretary of 
#Commerce on behalf of the United States.  All rights reserved.
_database_code_ICSD                165607
_audit_creation_date               2010/02/01
_audit_update_record               2012/02/01
_chemical_name_systematic
;
Copper(I) Aluminium Chloride - Beta
;
_chemical_formula_structural       'Cu Al Cl4'
_chemical_formula_sum              'Al1 Cl4 Cu1'
_publ_section_title
;
alpha- and beta-(Cu Al Cl4): Framework construction using corner-
shared tetrahedral metal-halide building blocks
;
loop_
_citation_id
_citation_journal_abbrev
_citation_year
_citation_journal_volume
_citation_journal_issue
_citation_page_first
_citation_page_last
_citation_journal_id_ASTM
primary 'Inorganic Chemistry' 1998 37 6 1341 1346 INOCAJ
_publ_author_name
;
Martin, J.D.;Leafblad, B.R.;Sullivan, R.M.;Boyle, P.D.
;
_cell_length_a                     12.8388(5)
_cell_length_b                     7.6455(3)
_cell_length_c                     6.1264(3)
_cell_angle_alpha                  90.0
_cell_angle_beta                   90.0
_cell_angle_gamma                  90.0
_cell_volume                       601.36
_cell_formula_units_Z              4
_symmetry_space_group_name_H-M     'P n a 21'
_symmetry_Int_Tables_number        33
_refine_ls_R_factor_all            .029
loop_
_symmetry_equiv_pos_site_id
_symmetry_equiv_pos_as_xyz
  1	'x+.5, -y+.5, z'
  2	'-x+.5, y+.5, z+.5'
  3	'-x, -y, z+.5'
  4	'x, y, z'
loop_
_atom_type_symbol
_atom_type_oxidation_number
Al3+	3
Cl1-	-1
Cu1+	1
loop_
_atom_site_label
_atom_site_type_symbol
_atom_site_symmetry_multiplicity
_atom_site_Wyckoff_symbol
_atom_site_fract_x
_atom_site_fract_y
_atom_site_fract_z
_atom_site_occupancy
_atom_site_attached_hydrogens
_atom_site_U_iso_or_equiv
Cu1 Cu1+ 4 a .33761(4) .99387(10) .05994 1. 0 .0472(4) 
Cl1 Cl1- 4 a .40884(8) 1.25084(17) -.0934(3) 1. 0 .0344(5) 
Cl2 Cl1- 4 a .42943(8) .74431(16) -.0592(3) 1. 0 .0356(6) 
Cl3 Cl1- 4 a .33722(8) 1.01420(17) .44365(24) 1. 0 .0380(6) 
Cl4 Cl1- 4 a .16346(7) .97629(15) -.0661(3) 1. 0 .0366(6) 
Al1 Al3+ 4 a .41292(8) 1.24748(15) -.4427(3) 1. 0 .0243(6) 

loop_
_atom_site_aniso_label
_atom_site_aniso_type_symbol
_atom_site_aniso_U_11
_atom_site_aniso_U_22
_atom_site_aniso_U_33
_atom_site_aniso_U_12
_atom_site_aniso_U_13
_atom_site_aniso_U_23
Cu1 Cu1+ .0460(4) .0491(4) .0463(4) -.0028(3) .0017(4) .0020(4)
Cl1 Cl1- .0491(6) .0335(5) .0204(5) -.0082(5) -.0003(5) -.0002(5)
Cl2 Cl1- .0249(4) .0378(5) .0440(7) .0023(5) -.0058(5) -.0090(6)
Cl3 Cl1- .0455(6) .0397(6) .0287(6) -.0141(5) .0012(6) -.0045(5)
Cl4 Cl1- .0296(5) .0393(6) .0409(8) -.0080(5) -.0050(6) .0114(6)
Al1 Al3+ .0240(6) .0275(7) .0213(6) .0002(4) .0003(5) .0010(11)
#End of data_165607-ICSD


