data_88527-ICSD
#?2014 by Fachinformationszentrum Karlsruhe, and the U.S. Secretary of 
#Commerce on behalf of the United States.  All rights reserved.
_database_code_ICSD                88527
_audit_creation_date               2001/07/16
_audit_update_record               2011/02/01
_chemical_name_systematic
;
Tetrastrontium Tetradecaaluminium Oxide
;
_chemical_formula_structural       '(Sr O)4 (Al2 O3)7'
_chemical_formula_sum              'Al14 O25 Sr4'
_publ_section_title
;
Synthesis, crystal structure and X-ray powder diffraction data of the 
phosphor matrix 4(Sr O) * 7(Al2 O3)
;
loop_
_citation_id
_citation_journal_abbrev
_citation_year
_citation_journal_volume
_citation_page_first
_citation_page_last
_citation_journal_id_ASTM
primary 'Journal of Materials Science' 1999 34 4959 4964 JMTSAS
_publ_author_name                  'Wang, D.;Wang, M.-Q.;Lu, G.-G.'
_cell_length_a                     24.74509(20)
_cell_length_b                     8.4735(6)
_cell_length_c                     4.8808(1)
_cell_angle_alpha                  90.
_cell_angle_beta                   90.
_cell_angle_gamma                  90.
_cell_volume                       1023.39
_cell_formula_units_Z              2
_symmetry_space_group_name_H-M     'P m m a'
_symmetry_Int_Tables_number        51
_refine_ls_R_factor_all            .044
loop_
_symmetry_equiv_pos_site_id
_symmetry_equiv_pos_as_xyz
  1	'-x+.5, -y, z'
  2	'x+.5, -y, -z'
  3	'x, -y, z'
  4	'-x, -y, -z'
  5	'x+.5, y, -z'
  6	'-x+.5, y, z'
  7	'-x, y, -z'
  8	'x, y, z'
loop_
_atom_type_symbol
_atom_type_oxidation_number
Al3+	3
O2-	-2
Sr2+	2
loop_
_atom_site_label
_atom_site_type_symbol
_atom_site_symmetry_multiplicity
_atom_site_Wyckoff_symbol
_atom_site_fract_x
_atom_site_fract_y
_atom_site_fract_z
_atom_site_occupancy
_atom_site_attached_hydrogens
_atom_site_B_iso_or_equiv
Sr1 Sr2+ 4 j 0.1379(1) 0.5 0.0346(5) 1. 0 0.8228 
Sr2 Sr2+ 4 i 0.1210(1) 0 0.1154(5) 1. 0 0.464 
Al1 Al3+ 8 l 0.1861(2) 0.1936(6) 0.6196(2) 1. 0 0.7525 
Al2 Al3+ 8 l 0.0661(2) 0.3218(7) 0.5126(1) 1. 0 0.39 
Al3 Al3+ 4 k 0.25 0.2950(8) 0.1297(6) 1. 0 0.6043 
Al4 Al3+ 4 g 0 0.1675(9) 0 1. 0 0.4336 
Al5 Al3+ 2 c 0 0 0.5 1. 0 0.4592 
Al6 Al3+ 2 b 0 0.5 0 1. 0 0.3223 
O1 O2- 8 l 0.0424(3) 0.1638(1) 0.3295(3) 1. 0 0.332 
O2 O2- 8 l 0.1378(3) 0.3173(1) 0.5013(9) 1. 0 0.4499 
O3 O2- 8 l 0.1916(3) 0.2285(1) -.0265(7) 1. 0 0.7918 
O4 O2- 4 k 0.25 0.2286(6) 0.4796(3) 1. 0 2.031 
O5 O2- 4 i 0.0367(5) 0 0.8287(3) 1. 0 0.8059 
O6 O2- 4 j 0.0512(4) 0.5 0.3548(3) 1. 0 0.3993 
O7 O2- 4 i 0.1639(5) 0 0.5777(8) 1. 0 0.4359 
O8 O2- 8 l 0.0435(3) 0.3348(1) 0.8467(4) 1. 0 0.3926 
O9 O2- 2 f 0.25 0.5 0.1001(4) 1. 0 1.68 

#End of data_88527-ICSD


