data_171007-ICSD
#?2014 by Fachinformationszentrum Karlsruhe, and the U.S. Secretary of 
#Commerce on behalf of the United States.  All rights reserved.
_database_code_ICSD                171007
_audit_creation_date               2006/04/01
_chemical_name_systematic
;
Dicalcium Copper Tetratellurium Decaoxide Dichloride
;
_chemical_formula_structural       'Ca2 Cu Te4 O10 Cl2'
_chemical_formula_sum              'Ca2 Cl2 Cu1 O10 Te4'
_publ_section_title
;
Ca2 Cu Te4 O10 Cl2, a new synthetic tellurium(IV) oxochloride
;
loop_
_citation_id
_citation_journal_abbrev
_citation_year
_citation_journal_volume
_citation_page_first
_citation_page_last
_citation_journal_id_ASTM
primary 'Acta Crystallographica, Section C: Crystal Structure Communications'
 2005 61 i106 i108 ACSCEE
_publ_author_name                  'Takagi, S.;Johnsson, M.'
_cell_length_a                     5.421(2)
_cell_length_b                     7.266(3)
_cell_length_c                     8.717(5)
_cell_angle_alpha                  71.60(6)
_cell_angle_beta                   79.26(6)
_cell_angle_gamma                  77.63(5)
_cell_volume                       315.61
_cell_formula_units_Z              1
_symmetry_space_group_name_H-M     'P -1'
_symmetry_Int_Tables_number        2
_refine_ls_R_factor_all            .021
loop_
_symmetry_equiv_pos_site_id
_symmetry_equiv_pos_as_xyz
  1	'-x, -y, -z'
  2	'x, y, z'
loop_
_atom_type_symbol
_atom_type_oxidation_number
Ca2+	2
Cl1-	-1
Cu2+	2
O2-	-2
Te4+	4
loop_
_atom_site_label
_atom_site_type_symbol
_atom_site_symmetry_multiplicity
_atom_site_Wyckoff_symbol
_atom_site_fract_x
_atom_site_fract_y
_atom_site_fract_z
_atom_site_occupancy
_atom_site_attached_hydrogens
_atom_site_U_iso_or_equiv
Te1 Te4+ 2 i 0.38491(4) 0.58760(3) 0.14712(2) 1 0 0.00890(7) 
Te2 Te4+ 2 i -0.39092(3) 0.81909(3) 0.38968(2) 1 0 0.00850(7) 
Cu1 Cu2+ 1 b 0.0000 1.0000 0.5000 1 0 0.01125(12) 
Ca1 Ca2+ 2 i 0.17134(13) 1.10242(9) 0.10488(7) 1 0 0.01070(12) 
Cl1 Cl1- 2 i -0.11270(17) 0.39350(13) 0.34489(12) 1 0 0.02541(19) 
O1 O2- 2 i 0.3293(4) 0.4007(3) 0.0257(3) 1 0 0.0121(4) 
O2 O2- 2 i -0.1067(4) 0.9451(3) 0.3201(2) 1 0 0.0134(4) 
O3 O2- 2 i 0.5523(4) 0.8242(3) 0.1759(2) 1 0 0.0119(4) 
O4 O2- 2 i -0.6544(4) 1.0432(3) 0.3753(2) 1 0 0.0115(4) 
O5 O2- 2 i 0.1675(4) 0.7991(3) 0.0367(3) 1 0 0.0136(4) 

loop_
_atom_site_aniso_label
_atom_site_aniso_type_symbol
_atom_site_aniso_U_11
_atom_site_aniso_U_22
_atom_site_aniso_U_33
_atom_site_aniso_U_12
_atom_site_aniso_U_13
_atom_site_aniso_U_23
Te1 Te4+ 0.00890(11) 0.00888(11) 0.00852(10) -0.00125(7) -0.00136(7) 
-0.00197(7)
Te2 Te4+ 0.00704(11) 0.00997(11) 0.00889(10) -0.00177(8) -0.00164(7) 
-0.00269(7)
Cu1 Cu2+ 0.0073(2) 0.0201(3) 0.0096(2) -0.0037(2) -0.00124(18) -0.00787(19)
Ca1 Ca2+ 0.0103(3) 0.0109(3) 0.0111(3) -0.0033(2) -0.0030(2) -0.0014(2)
Cl1 Cl1- 0.0185(4) 0.0192(4) 0.0333(4) 0.0003(3) -0.0058(3) -0.0011(3)
O1 O2- 0.0107(10) 0.0136(10) 0.0136(9) -0.0043(9) 0.0022(8) -0.0067(8)
O2 O2- 0.0114(11) 0.0225(11) 0.0097(9) -0.0089(9) 0.0000(8) -0.0061(8)
O3 O2- 0.0133(11) 0.0151(10) 0.0106(9) -0.0017(9) -0.0049(8) -0.0068(8)
O4 O2- 0.0075(10) 0.0136(10) 0.0133(10) 0.0006(8) -0.0020(8) -0.0048(8)
O5 O2- 0.0130(11) 0.0115(10) 0.0166(10) 0.0020(9) -0.0079(8) -0.0035(8)
#End of data_171007-ICSD


