data_280067-ICSD
#?2014 by Fachinformationszentrum Karlsruhe, and the U.S. Secretary of 
#Commerce on behalf of the United States.  All rights reserved.
_database_code_ICSD                280067
_audit_creation_date               2000/07/15
_chemical_name_systematic          'Sodium Vanadium Oxide (4.4/7/17.5)'
_chemical_formula_structural       'Na4.5 V7 O17.5'
_chemical_formula_sum              'Na4.5 O17.5 V7'
_publ_section_title
;
The vanadium oxide bronze eta-Nax V2 O5 (x= 1.286)
;
loop_
_citation_id
_citation_journal_abbrev
_citation_year
_citation_journal_volume
_citation_page_first
_citation_page_last
_citation_journal_id_ASTM
primary 'Acta Crystallographica, Section C: Crystal Structure Communications'
 1999 55 276 279 ACSCEE
_publ_author_name                  'Millet, P.;Henry, J.Y.;Galy, J.'
_cell_length_a                     15.181(9)
_cell_length_b                     5.0319(8)
_cell_length_c                     20.7600(40)
_cell_angle_alpha                  90.
_cell_angle_beta                   109.07(3)
_cell_angle_gamma                  90.
_cell_volume                       1498.81
_cell_formula_units_Z              4
_symmetry_space_group_name_H-M     'P 1 2/c 1'
_symmetry_Int_Tables_number        13
_refine_ls_R_factor_all            .106
loop_
_symmetry_equiv_pos_site_id
_symmetry_equiv_pos_as_xyz
  1	'x, -y, z+.5'
  2	'-x, -y, -z'
  3	'-x, y, -z+.5'
  4	'x, y, z'
loop_
_atom_type_symbol
_atom_type_oxidation_number
Na1+	1
O2-	-2
V4.36+	4.36
loop_
_atom_site_label
_atom_site_type_symbol
_atom_site_symmetry_multiplicity
_atom_site_Wyckoff_symbol
_atom_site_fract_x
_atom_site_fract_y
_atom_site_fract_z
_atom_site_occupancy
_atom_site_attached_hydrogens
V1 V4.36+ 4 g 0.14470(6) 0.91921(18) 0.81807(4) 1. 0 
V2 V4.36+ 4 g 0.40299(6) 0.85641(17) 0.76864(4) 1. 0 
V3 V4.36+ 4 g 0.48782(6) 0.90070(19) 0.56437(4) 1. 0 
V4 V4.36+ 4 g 0.06343(6) 0.9129(2) 0.65012(4) 1. 0 
V5 V4.36+ 4 g 0.69879(6) 0.8988(2) 0.52283(4) 1. 0 
V6 V4.36+ 4 g 0.27552(6) 0.90049(19) 0.60617(4) 1. 0 
V7 V4.36+ 4 g 0.90714(6) 0.8832(2) 0.47782(4) 1. 0 
Na1 Na1+ 2 e 0 0.3997(7) 0.75 1. 0 
Na2 Na1+ 4 g 0.21797(16) 0.3830(5) 0.70038(11) 1. 0 
Na3 Na1+ 4 g 0.43315(15) 0.3734(5) 0.65425(11) 1. 0 
Na4 Na1+ 4 g 0.65359(16) 0.3746(5) 0.61796(11) 1. 0 
Na5 Na1+ 4 g 0.87129(17) 0.3586(5) 0.57850(11) 1. 0 
O1 O2- 4 g 0.1413(3) 0.5918(8) 0.82015(19) 1. 0 
O2 O2- 4 g 0.3359(3) 0.6214(8) 0.78080(18) 1. 0 
O3 O2- 4 g 0.4988(3) 0.5845(9) 0.57920(18) 1. 0 
O4 O2- 4 g 0.0620(3) 0.5919(9) 0.65514(19) 1. 0 
O5 O2- 4 g 0.7077(3) 0.5817(8) 0.53421(19) 1. 0 
O6 O2- 4 g 0.2862(3) 0.5847(8) 0.62073(19) 1. 0 
O7 O2- 4 g 0.9022(3) 0.5698(9) 0.48829(19) 1. 0 
O8 O2- 2 f 0.5 0.6910(11) 0.75 1. 0 
O9 O2- 4 g 0.7640(2) 0.0423(8) 0.61492(17) 1. 0 
O10 O2- 4 g 0.5534(2) 0.0486(8) 0.65941(16) 1. 0 
O11 O2- 4 g 0.3470(2) 0.0485(8) 0.69900(17) 1. 0 
O12 O2- 4 g 0.1453(3) 0.0323(8) 0.73845(17) 1. 0 
O13 O2- 4 g 0.0429(2) 0.0421(8) 0.82765(17) 1. 0 
O14 O2- 4 g 0.1622(2) 0.0356(8) 0.61619(17) 1. 0 
O15 O2- 4 g 0.3728(2) 0.0330(8) 0.57380(16) 1. 0 
O16 O2- 4 g 0.5841(2) 0.0388(8) 0.53233(17) 1. 0 
O17 O2- 4 g 0.7986(2) 0.0301(8) 0.49087(17) 1. 0 
O18 O2- 4 g 0.9921(2) 0.0323(8) 0.55719(16) 1. 0 

loop_
_atom_site_aniso_label
_atom_site_aniso_type_symbol
_atom_site_aniso_U_11
_atom_site_aniso_U_22
_atom_site_aniso_U_33
_atom_site_aniso_U_12
_atom_site_aniso_U_13
_atom_site_aniso_U_23
V1 V4.36+ 0.0079(4) 0.0097(4) 0.0039(3) -.0011(3) 0.0022(3) 0.0001(3)
V2 V4.36+ 0.0088(4) 0.0092(4) 0.0038(3) -.0002(4) 0.0023(3) 0.0000(4)
V3 V4.36+ 0.0068(4) 0.0104(5) 0.0045(3) 0.0013(3) 0.0027(3) 0.0021(3)
V4 V4.36+ 0.0077(4) 0.0107(5) 0.0043(3) 0.0009(3) 0.0030(3) 0.0012(3)
V5 V4.36+ 0.0076(4) 0.0103(5) 0.0045(3) 0.0007(3) 0.0028(3) 0.0001(3)
V6 V4.36+ 0.0067(4) 0.0105(5) 0.0049(3) -.0003(4) 0.0026(3) 0.0003(3)
V7 V4.36+ 0.0069(4) 0.0162(5) 0.0044(3) 0.0005(4) 0.0023(3) 0.0022(3)
Na1 Na1+ 0.0225(17) 0.0188(19) 0.0142(14) 0 0.0000(13) 0
Na2 Na1+ 0.0163(10) 0.0174(13) 0.0169(10) -.0054(10) 0.0049(8) 0.0005(10)
Na3 Na1+ 0.0160(11) 0.0141(11) 0.015(1) 0.0001(10) 0.0076(8) -.0020(9)
Na4 Na1+ 0.0210(11) 0.0176(12) 0.0165(10) 0.0016(11) 0.0095(9) -.0011(10)
Na5 Na1+ 0.0292(13) 0.0162(12) 0.0146(10) 0.0014(11) 0.0109(9) 0.001(1)
O1 O2- 0.0163(18) 0.012(2) 0.0137(17) -.0046(17) -.0007(14) -.0004(16)
O2 O2- 0.0165(18) 0.016(2) 0.0109(16) -.0040(17) 0.0043(14) 0.0033(16)
O3 O2- 0.0132(19) 0.020(2) 0.0142(18) 0.0008(17) 0.0041(15) -.0021(17)
O4 O2- 0.020(2) 0.017(2) 0.0138(18) -.0012(18) 0.0078(16) -.0004(17)
O5 O2- 0.0166(19) 0.013(2) 0.0151(17) 0.0021(17) 0.0049(15) 0.0026(16)
O6 O2- 0.0170(19) 0.011(2) 0.0154(17) 0.0020(16) 0.0093(15) 0.0034(16)
O7 O2- 0.0164(19) 0.021(2) 0.0151(18) 0.0027(17) 0.0089(15) 0.0074(17)
O8 O2- 0.012(2) 0.014(3) 0.010(2) 0 0.0057(19) 0
O9 O2- 0.0090(17) 0.0112(18) 0.0079(15) 0.0014(14) 0.0030(13) -.0015(14)
O10 O2- 0.0130(18) 0.016(2) 0.0030(14) 0.0007(16) 0.0025(13) 0.0013(15)
O11 O2- 0.0121(17) 0.0113(19) 0.0051(14) 0.0004(15) 0.0020(13) 0.0014(14)
O12 O2- 0.0117(17) 0.017(2) 0.0059(15) -.0025(16) 0.0036(13) 0.0006(15)
O13 O2- 0.0100(17) 0.019(2) 0.0095(16) 0.0034(16) 0.0063(13) 0.0030(15)
O14 O2- 0.0085(16) 0.0168(19) 0.0050(14) 0.0046(15) 0.0037(13) 0.0013(15)
O15 O2- 0.0082(17) 0.017(2) 0.0041(14) 0.0012(15) 0.0036(13) 0.0026(15)
O16 O2- 0.0069(16) 0.017(2) 0.0058(14) 0.0014(16) 0.0034(12) 0.0020(15)
O17 O2- 0.0085(17) 0.0133(19) 0.0054(14) 0.0006(14) 0.0047(13) 0.0024(14)
O18 O2- 0.0123(18) 0.017(2) 0.0030(14) -.0004(15) 0.0044(13) 0.0017(14)
#End of data_280067-ICSD


