data_60411-ICSD
#?2014 by Fachinformationszentrum Karlsruhe, and the U.S. Secretary of 
#Commerce on behalf of the United States.  All rights reserved.
_database_code_ICSD                60411
_audit_creation_date               1986/12/03
_audit_update_record               1997/11/10
_chemical_name_systematic
;
Disodium Barium Dititanium(IV) Tetrasilicate
;
_chemical_formula_structural       'Na2 Ba Ti2 Si4 O14'
_chemical_formula_sum              'Ba1 Na2 O14 Si4 Ti2'
_chemical_name_mineral             Batisite
_publ_section_title                'The Crystal Structure of Batisite'
loop_
_citation_id
_citation_journal_abbrev
_citation_year
_citation_journal_volume
_citation_page_first
_citation_page_last
_citation_journal_id_ASTM
primary 'Doklady Akademii Nauk SSSR' 1962 146 1401 1403 DANKAS
_publ_author_name                  'Nikitin, A.V.;Belov, N.V.'
_cell_length_a                     10.4
_cell_length_b                     13.85
_cell_length_c                     8.1
_cell_angle_alpha                  90.
_cell_angle_beta                   90.
_cell_angle_gamma                  90.
_cell_volume                       1166.72
_cell_formula_units_Z              4
_symmetry_space_group_name_H-M     'I m a 2'
_symmetry_Int_Tables_number        46
_refine_ls_R_factor_all            .174
loop_
_symmetry_equiv_pos_site_id
_symmetry_equiv_pos_as_xyz
  1	'x+.5, -y, z'
  2	'-x+.5, y, z'
  3	'-x, -y, z'
  4	'x, y, z'
  5	'x, -y+.5, z+.5'
  6	'-x, y+.5, z+.5'
  7	'-x+.5, -y+.5, z+.5'
  8	'x+.5, y+.5, z+.5'
loop_
_atom_type_symbol
_atom_type_oxidation_number
Ba2+	2
Na1+	1
O2-	-2
Si4+	4
Ti4+	4
loop_
_atom_site_label
_atom_site_type_symbol
_atom_site_symmetry_multiplicity
_atom_site_Wyckoff_symbol
_atom_site_fract_x
_atom_site_fract_y
_atom_site_fract_z
_atom_site_occupancy
_atom_site_attached_hydrogens
_atom_site_B_iso_or_equiv
Ba1 Ba2+ 4 b 0.25 0.252 0 1. 0 0.35 
Ti1 Ti4+ 4 b 0.25 0.47 0.2831 1. 0 0.35 
Ti2 Ti4+ 4 b 0.25 0.476 0.784 1. 0 0.35 
Si1 Si4+ 8 c 0.528 0.355 0.195 1. 0 0.35 
Si2 Si4+ 8 c 0.528 0.354 0.798 1. 0 0.35 
O1 O2- 8 c 0.617 0.432 0.727 1. 0 0.35 
O2 O2- 8 c 0.378 0.365 0.74 1. 0 0.35 
O3 O2- 8 c 0.584 0.251 0.793 1. 0 0.35 
O4 O2- 8 c 0.378 0.353 0.293 1. 0 0.35 
O5 O2- 8 c 0.617 0.44 0.312 1. 0 0.35 
O6 O2- 8 c 0.542 0.342 0.032 1. 0 0.35 
O7 O2- 4 b 0.25 0.45 0.523 1. 0 0.35 
O8 O2- 4 b 0.25 0.465 0.033 1. 0 0.35 
Na1 Na1+ 4 a 0.5 0.5 0.484 1. 0 0.35 
Na2 Na1+ 4 b 0.75 0.322 0.528 1. 0 0.35 

#End of data_60411-ICSD


