data_94419-ICSD
#?2014 by Fachinformationszentrum Karlsruhe, and the U.S. Secretary of 
#Commerce on behalf of the United States.  All rights reserved.
_database_code_ICSD                94419
_audit_creation_date               2003/10/01
_chemical_name_systematic          'Trisodium Rhodium Hexahydride'
_chemical_formula_structural       'Na3 Rh H6'
_chemical_formula_sum              'H6 Na3 Rh1'
_publ_section_title
;
Abstandsvergleich (M - H)/(M - D) aus Roentgen- und 
Neutronenbeugungsdaten am Beispiel von Na3 Rh (H/D)6
;
loop_
_citation_id
_citation_journal_abbrev
_citation_year
_citation_journal_volume
_citation_page_first
_citation_page_last
_citation_journal_id_ASTM
primary 'Zeitschrift fuer Anorganische und Allgemeine Chemie (1950) (DE)'
 2001 627 1401 1404 ZAACAB
_publ_author_name                  'Heckers, U.;Niewa, R.;Jacobs, H.'
_cell_length_a                     9.369(2)
_cell_length_b                     5.279(1)
_cell_length_c                     9.600(2)
_cell_angle_alpha                  90
_cell_angle_beta                   90
_cell_angle_gamma                  90
_cell_volume                       474.81
_cell_formula_units_Z              4
_symmetry_space_group_name_H-M     'P n m a'
_symmetry_Int_Tables_number        62
_refine_ls_R_factor_all            .0217
loop_
_symmetry_equiv_pos_site_id
_symmetry_equiv_pos_as_xyz
  1	'x+.5, y, -z+.5'
  2	'x, -y+.5, z'
  3	'-x+.5, y+.5, z+.5'
  4	'-x, -y, -z'
  5	'-x+.5, -y, z+.5'
  6	'-x, y+.5, -z'
  7	'x+.5, -y+.5, -z+.5'
  8	'x, y, z'
loop_
_atom_type_symbol
_atom_type_oxidation_number
H1-	-1
Na1+	1
Rh3+	3
loop_
_atom_site_label
_atom_site_type_symbol
_atom_site_symmetry_multiplicity
_atom_site_Wyckoff_symbol
_atom_site_fract_x
_atom_site_fract_y
_atom_site_fract_z
_atom_site_occupancy
_atom_site_attached_hydrogens
_atom_site_U_iso_or_equiv
Rh1 Rh3+ 4 c 0.22289(1) 0.250 0.90037(1) 1. 0 0.0255(1) 
Na1 Na1+ 4 c 0.04651(8) 0.250 0.62570(8) 1. 0 0.0194(1) 
Na2 Na1+ 4 c 0.39752(6) 0.250 0.53407(7) 1. 0 0.0299(2) 
Na3 Na1+ 4 c 0.21954(8) 0.250 0.24826(9) 1. 0 0.01109(3) 
H1 H1- 8 d 0.324(2) 0.473(4) 0.964(1) 1. 0 0.048(6) 
H2 H1- 8 d 0.113(2) 0.468(4) 0.841(2) 1. 0 0.037(5) 
H3 H1- 4 c 0.132(3) 0.250 0.041(3) 1. 0 0.039(7) 
H4 H1- 4 c 0.312(3) 0.250 0.754(4) 1. 0 0.051(7) 

loop_
_atom_site_aniso_label
_atom_site_aniso_type_symbol
_atom_site_aniso_U_11
_atom_site_aniso_U_22
_atom_site_aniso_U_33
_atom_site_aniso_U_12
_atom_site_aniso_U_13
_atom_site_aniso_U_23
Rh1 Rh3+ 0.01138(4) 0.01143(5) 0.01046(5) 0. 0.0066(3) 0.
Na1 Na1+ 0.0196(3) 0.0355(4) 0.0215(3) 0. -0.0015(2) 0.
Na2 Na1+ 0.0194(2) 0.0203(3) 0.0184(2) 0. 0.0002(2) 0.
Na3 Na1+ 0.0425(4) 0.0201(3) 0.0184(2) 0. -0.0150(3) 0.
#End of data_94419-ICSD


