data_200401-ICSD
#?2014 by Fachinformationszentrum Karlsruhe, and the U.S. Secretary of 
#Commerce on behalf of the United States.  All rights reserved.
_database_code_ICSD                200401
_audit_creation_date               1980/01/01
_audit_update_record               1984/11/02
_chemical_name_systematic          'Lithium Scandium Silicate'
_chemical_formula_structural       'Li Sc Si O4'
_chemical_formula_sum              'Li1 O4 Sc1 Si1'
_publ_section_title
;
Crystal structure of synthetic Li Sc Si O4 olivine and comparison 
with isotypic Mg2 Si O4.
;
loop_
_citation_id
_citation_journal_abbrev
_citation_year
_citation_journal_volume
_citation_page_first
_citation_page_last
_citation_journal_id_ASTM
primary
;
Zeitschrift fuer Kristallographie, Kristallgeometrie, Kristallphysik, 
Kristallchemie (145,1977-148,1979)
;
 1978 147 119 127 ZKKKAJ
_publ_author_name                  'Steele, I.M.;Pluth, J.J.;Ito, J.'
_cell_length_a                     4.8214(7)
_cell_length_b                     10.444(1)
_cell_length_c                     5.9729(9)
_cell_angle_alpha                  90.
_cell_angle_beta                   90.
_cell_angle_gamma                  90.
_cell_volume                       300.76
_cell_formula_units_Z              4
_symmetry_space_group_name_H-M     'P b n m'
_symmetry_Int_Tables_number        62
_refine_ls_R_factor_all            .016
loop_
_symmetry_equiv_pos_site_id
_symmetry_equiv_pos_as_xyz
  1	'-x+.5, y+.5, z'
  2	'x, y, -z+.5'
  3	'x+.5, -y+.5, z+.5'
  4	'-x, -y, -z'
  5	'x+.5, -y+.5, -z'
  6	'-x, -y, z+.5'
  7	'-x+.5, y+.5, -z+.5'
  8	'x, y, z'
loop_
_atom_type_symbol
_atom_type_oxidation_number
Li1+	1
O2-	-2
Sc3+	3
Si4+	4
loop_
_atom_site_label
_atom_site_type_symbol
_atom_site_symmetry_multiplicity
_atom_site_Wyckoff_symbol
_atom_site_fract_x
_atom_site_fract_y
_atom_site_fract_z
_atom_site_occupancy
_atom_site_attached_hydrogens
Li1 Li1+ 4 a 0 0 0 1. 0 
Sc1 Sc3+ 4 c 0.9922(1) 0.2743(1) 0.25 1. 0 
Si1 Si4+ 4 c 0.4310(1) 0.0910(1) 0.25 1. 0 
O1 O2- 4 c 0.7624(3) 0.1014(1) 0.25 1. 0 
O2 O2- 4 c 0.1959(3) 0.4478(1) 0.25 1. 0 
O3 O2- 8 d 0.2819(2) 0.1683(1) 0.0396(2) 1. 0 

#End of data_200401-ICSD


