data_416607-ICSD
#?2014 by Fachinformationszentrum Karlsruhe, and the U.S. Secretary of 
#Commerce on behalf of the United States.  All rights reserved.
_database_code_ICSD                416607
_audit_creation_date               2007/08/01
_chemical_name_systematic
;
Dirubidium Potassium Chromium Hexafluoride
;
_chemical_formula_structural       'Rb2 K Cr F6'
_chemical_formula_sum              'Cr1 F6 K1 Rb2'
_publ_section_title
;
The low temperature form of Rb2KCrF6 and Rb2KGaF6: The first example 
of an elpasolite-derived structure with pentagonal bipyramid in the B-
sublattice
;
loop_
_citation_id
_citation_journal_abbrev
_citation_year
_citation_journal_volume
_citation_page_first
_citation_page_last
_citation_journal_id_ASTM
primary 'Journal of Solid State Chemistry' 2006 179 3607 3614 JSSCBI
_publ_author_name
;
Zuniga, F.J.;Tressaud, A.;Darriet, J.
;
_cell_length_a                     19.407(3)
_cell_length_b                     19.407(3)
_cell_length_c                     8.833(2)
_cell_angle_alpha                  90.
_cell_angle_beta                   90.
_cell_angle_gamma                  90.
_cell_volume                       3326.79
_cell_formula_units_Z              20
_symmetry_space_group_name_H-M     'F 4/m'
_symmetry_Int_Tables_number        87
_refine_ls_R_factor_all            .0797
loop_
_symmetry_equiv_pos_site_id
_symmetry_equiv_pos_as_xyz
  1	'-y, x, -z'
  2	'x, y, -z'
  3	'y, -x, -z'
  4	'-x, -y, -z'
  5	'y, -x, z'
  6	'-x, -y, z'
  7	'-y, x, z'
  8	'x, y, z'
  9	'-y, x+.5, -z+.5'
 10	'-y+.5, x, -z+.5'
 11	'-y+.5, x+.5, -z'
 12	'x, y+.5, -z+.5'
 13	'x+.5, y, -z+.5'
 14	'x+.5, y+.5, -z'
 15	'y, -x+.5, -z+.5'
 16	'y+.5, -x, -z+.5'
 17	'y+.5, -x+.5, -z'
 18	'-x, -y+.5, -z+.5'
 19	'-x+.5, -y, -z+.5'
 20	'-x+.5, -y+.5, -z'
 21	'y, -x+.5, z+.5'
 22	'y+.5, -x, z+.5'
 23	'y+.5, -x+.5, z'
 24	'-x, -y+.5, z+.5'
 25	'-x+.5, -y, z+.5'
 26	'-x+.5, -y+.5, z'
 27	'-y, x+.5, z+.5'
 28	'-y+.5, x, z+.5'
 29	'-y+.5, x+.5, z'
 30	'x, y+.5, z+.5'
 31	'x+.5, y, z+.5'
 32	'x+.5, y+.5, z'
loop_
_atom_type_symbol
_atom_type_oxidation_number
Cr3+	3
F1-	-1
K1+	1
Rb1+	1
loop_
_atom_site_label
_atom_site_type_symbol
_atom_site_symmetry_multiplicity
_atom_site_Wyckoff_symbol
_atom_site_fract_x
_atom_site_fract_y
_atom_site_fract_z
_atom_site_occupancy
_atom_site_attached_hydrogens
_atom_site_U_iso_or_equiv
Rb1 Rb1+ 8 d 0.25 0.25 0.25 1 0 0.0082(5) 
Rb2 Rb1+ 32 i 0.15906(7) 0.05303(7) 0.27355(15) 1 0 0.0097(4) 
K1 K1+ 4 b 0 0 0.5 1 0 0.0061(14) 
K2 K1+ 16 h 0.32283(17) 0.0891(2) 0.5 1 0 0.0123(10) 
Cr1 Cr3+ 4 a 0 0 0 1 0 0.0117(12) 
Cr2 Cr3+ 16 h 0.30063(17) 0.10413(16) 0 1 0 0.0060(7) 
F1 F1- 16 h 0.0946(5) 0.0313(6) 0 1 0 0.020(3) 
F2 F1- 8 e 0 0 0.2174(18) 1 0 0.027(4) 
F3 F1- 16 h 0.3880(6) 0.0596(6) 0 1 0 0.015(3) 
F4 F1- 16 h 0.3468(5) 0.1931(5) 0 1 0 0.007(3) 
F5 F1- 16 h 0.2152(6) 0.1473(6) 0 1 0 0.017(3) 
F6 F1- 16 h 0.2569(5) 0.0152(5) 0 1 0 0.006(3) 
F7 F1- 32 i 0.3017(4) 0.1028(4) 0.2159(6) 1 0 0.013(2) 

loop_
_atom_site_aniso_label
_atom_site_aniso_type_symbol
_atom_site_aniso_U_11
_atom_site_aniso_U_22
_atom_site_aniso_U_33
_atom_site_aniso_U_12
_atom_site_aniso_U_13
_atom_site_aniso_U_23
Rb1 Rb1+ 0.0087(7) 0.0087(7) 0.0072(10) 0 0 0
Rb2 Rb1+ 0.0137(7) 0.0101(5) 0.0051(6) 0.0003(5) -0.0014(4) -0.0028(5)
K1 K1+ 0.0023(19) 0.0023(19) 0.026(3) 0 0 0
K2 K1+ 0.023(2) 0.0066(17) 0.0072(14) -0.0078(13) 0 0
Cr1 Cr3+ 0.0107(18) 0.0107(18) 0.014(3) 0 0 0
Cr2 Cr3+ 0.0091(13) 0.0018(13) 0.0072(9) -0.0028(12) 0 0
F1 F1- 0.014(5) 0.021(6) 0.024(5) 0.001(5) 0 0
F2 F1- 0.031(6) 0.031(6) 0.020(8) 0 0 0
F3 F1- 0.007(5) 0.018(6) 0.020(5) 0.000(5) 0 0
F4 F1- 0.008(5) 0.010(5) 0.007(4) -0.005(4) 0 0
F5 F1- 0.017(6) 0.013(6) 0.021(5) 0.003(5) 0 0
F6 F1- 0.009(5) 0.001(4) 0.008(4) -0.001(4) 0 0
F7 F1- 0.016(4) 0.013(4) 0.009(2) -0.004(3) 0.000(3) 0.002(3)
#End of data_416607-ICSD


