data_15099-ICSD
#?2014 by Fachinformationszentrum Karlsruhe, and the U.S. Secretary of 
#Commerce on behalf of the United States.  All rights reserved.
_database_code_ICSD                15099
_audit_creation_date               1980/01/01
_audit_update_record               1989/08/02
_chemical_name_systematic          'Sodium Oxocuprate(I)'
_chemical_formula_structural       'Na Cu O'
_chemical_formula_sum              'Cu1 Na1 O1'
_publ_section_title
;
Neue Oxocuprate(I). Na Cu O und Rb Cu O
;
loop_
_citation_id
_citation_journal_abbrev
_citation_year
_citation_journal_volume
_citation_page_first
_citation_page_last
_citation_journal_id_ASTM
primary 'Zeitschrift fuer Anorganische und Allgemeine Chemie (1950) (DE)'
 1969 367 275 280 ZAACAB
_publ_author_name
;
Hoppe, R.;Hestermann, K.;Schenk, F.
;
_cell_length_a                     8.87
_cell_length_b                     8.87
_cell_length_c                     4.67
_cell_angle_alpha                  90.
_cell_angle_beta                   90.
_cell_angle_gamma                  90.
_cell_volume                       367.42
_cell_formula_units_Z              8
_symmetry_space_group_name_H-M     'I -4'
_symmetry_Int_Tables_number        82
loop_
_symmetry_equiv_pos_site_id
_symmetry_equiv_pos_as_xyz
  1	'-y, x, -z'
  2	'y, -x, -z'
  3	'-x, -y, z'
  4	'x, y, z'
  5	'-y+.5, x+.5, -z+.5'
  6	'y+.5, -x+.5, -z+.5'
  7	'-x+.5, -y+.5, z+.5'
  8	'x+.5, y+.5, z+.5'
loop_
_atom_type_symbol
_atom_type_oxidation_number
Cu1+	1
Na1+	1
O2-	-2
loop_
_atom_site_label
_atom_site_type_symbol
_atom_site_symmetry_multiplicity
_atom_site_Wyckoff_symbol
_atom_site_fract_x
_atom_site_fract_y
_atom_site_fract_z
_atom_site_occupancy
_atom_site_attached_hydrogens
Na1 Na1+ 8 g 0.18 0 0.25 1. 0 
Cu1 Cu1+ 8 g 0.35 0.147 0.75 1. 0 
O1 O2- 8 g 0.18 0 0.75 1. 0 

#End of data_15099-ICSD


