data_281297-ICSD
#?2014 by Fachinformationszentrum Karlsruhe, and the U.S. Secretary of 
#Commerce on behalf of the United States.  All rights reserved.
_database_code_ICSD                281297
_audit_creation_date               2003/10/01
_audit_update_record               2008/02/01
_chemical_name_systematic          'Potassium Tetrachlorogallate'
_chemical_formula_structural       'K (Ga Cl4)'
_chemical_formula_sum              'Cl4 Ga1 K1'
_publ_section_title                'Potassium tetrachlorogallate'
loop_
_citation_id
_citation_journal_abbrev
_citation_year
_citation_journal_volume
_citation_page_first
_citation_page_last
_citation_journal_id_ASTM
primary 'Acta Crystallographica, Section E. Structure Reports Online'
 2003 59 i70 i71 ACSEBH
2 'Golden Book of Phase Transitions, Wroclaw' 2002 1 1 123 GBOPT5
_publ_author_name                  'Gorlov, M.;Fischer, A.;Kloo, L.'
_cell_length_a                     7.2230(3)
_cell_length_b                     10.4377(4)
_cell_length_c                     9.3194(4)
_cell_angle_alpha                  90.
_cell_angle_beta                   93.290(2)
_cell_angle_gamma                  90.
_cell_volume                       701.45
_cell_formula_units_Z              4
_symmetry_space_group_name_H-M     'P 1 21/n 1'
_symmetry_Int_Tables_number        14
_refine_ls_R_factor_all            .047
loop_
_symmetry_equiv_pos_site_id
_symmetry_equiv_pos_as_xyz
  1	'-x+.5, y+.5, -z+.5'
  2	'-x, -y, -z'
  3	'x+.5, -y+.5, z+.5'
  4	'x, y, z'
loop_
_atom_type_symbol
_atom_type_oxidation_number
Cl1-	-1
Ga3+	3
K1+	1
loop_
_atom_site_label
_atom_site_type_symbol
_atom_site_symmetry_multiplicity
_atom_site_Wyckoff_symbol
_atom_site_fract_x
_atom_site_fract_y
_atom_site_fract_z
_atom_site_occupancy
_atom_site_attached_hydrogens
_atom_site_U_iso_or_equiv
K1 K1+ 4 e 0.1916(3) 0.30431(16) 0.1980(2) 1. 0 0.0650(5) 
Ga1 Ga3+ 4 e 0.74369(8) 0.55242(6) 0.31535(6) 1. 0 0.0353(2) 
Cl1 Cl1- 4 e 0.4656(2) 0.92013(17) 0.67128(18) 1. 0 0.0534(4) 
Cl2 Cl1- 4 e 0.7187(3) 0.71919(19) 0.4513(2) 1. 0 0.0647(5) 
Cl3 Cl1- 4 e 0.0192(2) 0.03565(18) 0.3088(2) 1. 0 0.0595(5) 
Cl4 Cl1- 4 e 0.1922(3) 0.62138(19) 0.5645(2) 1. 0 0.0691(5) 

loop_
_atom_site_aniso_label
_atom_site_aniso_type_symbol
_atom_site_aniso_U_11
_atom_site_aniso_U_22
_atom_site_aniso_U_33
_atom_site_aniso_U_12
_atom_site_aniso_U_13
_atom_site_aniso_U_23
K1 K1+ 0.0692(10) 0.0481(9) 0.0778(11) -0.0068(7) 0.0047(8) -0.0065(8)
Ga1 Ga3+ 0.0326(3) 0.0387(4) 0.0353(3) -0.0009(2) 0.0075(2) -0.0021(2)
Cl1 Cl1- 0.0490(8) 0.0556(9) 0.0585(9) -0.0022(7) 0.0267(7) -0.0046(7)
Cl2 Cl1- 0.0658(11) 0.0675(12) 0.0601(10) 0.0158(9) -0.0025(8) -0.0303(9)
Cl3 Cl1- 0.0434(8) 0.0618(10) 0.0718(11) 0.0014(7) -0.0116(8) 0.0102(9)
Cl4 Cl1- 0.0779(13) 0.0587(11) 0.0698(12) -0.0099(9) -0.0031(9) 0.0251(9)
#End of data_281297-ICSD


