data_170639-ICSD
#?2014 by Fachinformationszentrum Karlsruhe, and the U.S. Secretary of 
#Commerce on behalf of the United States.  All rights reserved.
_database_code_ICSD                170639
_audit_creation_date               2006/04/01
_chemical_name_systematic          'Silver Bismuth Thiophosphate(IV)'
_chemical_formula_structural       'Ag Bi P2 S6'
_chemical_formula_sum              'Ag1 Bi1 P2 S6'
_publ_section_title
;
On the lamellar compounds Cu Bi P2 Se6, Ag Bi P2 Se6 and Ag Bi P2 S6. 
Antiferroelectric phase transitions due to cooperative Cu(+) and 
Bi(3+) ion motion
;
loop_
_citation_id
_citation_journal_abbrev
_citation_year
_citation_journal_volume
_citation_journal_issue
_citation_page_first
_citation_page_last
_citation_journal_id_ASTM
primary 'Inorganic Chemistry' 2005 44 15 5293 5303 INOCAJ
_publ_author_name
;
Gave, M.A.;Bilc, D.;Mahanti, S.D.;Breshears, J.D.;Kanatzidis, M.G.
;
_cell_length_a                     6.3833(13)
_cell_length_b                     7.1439(14)
_cell_length_c                     9.5366(19)
_cell_angle_alpha                  91.89(3)
_cell_angle_beta                   91.45(3)
_cell_angle_gamma                  94.05(3)
_cell_volume                       433.4
_cell_formula_units_Z              2
_symmetry_space_group_name_H-M     'P -1'
_symmetry_Int_Tables_number        2
_refine_ls_R_factor_all            .0422
loop_
_symmetry_equiv_pos_site_id
_symmetry_equiv_pos_as_xyz
  1	'-x, -y, -z'
  2	'x, y, z'
loop_
_atom_type_symbol
_atom_type_oxidation_number
Ag1+	1
Bi3+	3
P4+	4
S2-	-2
loop_
_atom_site_label
_atom_site_type_symbol
_atom_site_symmetry_multiplicity
_atom_site_Wyckoff_symbol
_atom_site_fract_x
_atom_site_fract_y
_atom_site_fract_z
_atom_site_occupancy
_atom_site_attached_hydrogens
_atom_site_U_iso_or_equiv
Bi1 Bi3+ 2 i 0.46033(6) 0.63758(5) 0.23277(4) 1 0 0.02282(15) 
Ag1 Ag1+ 2 i 0.05744(15) 1.04301(18) 0.29017(15) 1 0 0.0584(4) 
P1 P4+ 2 i 0.5603(3) 1.1182(3) 0.4357(2) 1 0 0.0118(4) 
P2 P4+ 2 i -0.0600(3) 0.6088(3) 0.0705(2) 1 0 0.0114(4) 
S1 S2- 2 i 0.1741(3) 0.8195(3) 0.0764(2) 1 0 0.0144(4) 
S2 S2- 2 i 0.6533(3) 0.9989(3) 0.2518(2) 1 0 0.0146(4) 
S3 S2- 2 i 0.3174(3) 0.3013(3) 0.0297(2) 1 0 0.0144(4) 
S4 S2- 2 i 0.3232(4) 1.2867(3) 0.4163(3) 1 0 0.0209(5) 
S5 S2- 2 i 0.8793(4) 0.4899(3) 0.2526(2) 1 0 0.0163(4) 
S6 S2- 2 i 0.1944(3) 0.7559(3) 0.4522(2) 1 0 0.0174(4) 

loop_
_atom_site_aniso_label
_atom_site_aniso_type_symbol
_atom_site_aniso_U_11
_atom_site_aniso_U_22
_atom_site_aniso_U_33
_atom_site_aniso_U_12
_atom_site_aniso_U_13
_atom_site_aniso_U_23
Bi1 Bi3+ 0.0177(2) 0.02062(19) 0.0301(2) 0.00253(12) -0.00038(14) 
-0.00081(13)
Ag1 Ag1+ 0.0237(4) 0.0660(7) 0.0830(9) 0.0090(4) -0.0116(5) -0.0377(7)
P1 P4+ 0.0124(9) 0.0114(9) 0.0116(9) 0.0011(7) -0.0003(8) -0.0014(7)
P2 P4+ 0.0097(9) 0.0130(9) 0.0113(9) 0.0010(7) -0.0007(8) -0.0027(7)
S1 S2- 0.0126(9) 0.0139(9) 0.0160(9) -0.0022(7) 0.0008(8) -0.0011(7)
S2 S2- 0.0139(9) 0.0169(9) 0.0127(9) -0.0007(7) 0.0047(8) -0.0039(7)
S3 S2- 0.0116(9) 0.0166(9) 0.0151(9) 0.0027(7) -0.0009(8) -0.0010(7)
S4 S2- 0.0199(10) 0.0172(10) 0.0271(12) 0.0085(8) 0.0066(10) 0.0034(9)
S5 S2- 0.0174(10) 0.0190(9) 0.0126(9) 0.0009(8) 0.0030(9) 0.0024(8)
S6 S2- 0.0144(9) 0.0223(10) 0.0144(9) -0.0037(8) 0.0016(8) -0.0044(8)
#End of data_170639-ICSD


