data_164158-ICSD
#?2014 by Fachinformationszentrum Karlsruhe, and the U.S. Secretary of 
#Commerce on behalf of the United States.  All rights reserved.
_database_code_ICSD                164158
_audit_creation_date               2010/02/01
_chemical_name_systematic          'Lithium Dioxotitanate(III)'
_chemical_formula_structural       'Li (Ti O2)'
_chemical_formula_sum              'Li1 O2 Ti1'
_publ_section_title
;
The electronic structure and ionic diffusion of nanoscale Li Ti O2 
anatase
;
loop_
_citation_id
_citation_journal_abbrev
_citation_year
_citation_journal_volume
_citation_journal_issue
_citation_page_first
_citation_page_last
_citation_journal_id_ASTM
primary 'Physical Chemistry Chemical Physics' 2009 11- 5742 5748 PPCPFQ
2 'Journal of the American Chemical Society' 2007 129 14 4323 4327 JACSAT
_publ_author_name
;
Borghols, W.J.H.;Luetzenkirchen-Hecht, D.;Haake, U.;van Eck, 
E.R.H.;Mulder, F.M.;Wagemaker, M.
;
_cell_length_a                     4.043(1)
_cell_length_b                     4.043(1)
_cell_length_c                     8.628(3)
_cell_angle_alpha                  90.
_cell_angle_beta                   90.
_cell_angle_gamma                  90.
_cell_volume                       141.03
_cell_formula_units_Z              4
_symmetry_space_group_name_H-M     'I 41/a m d Z'
_symmetry_Int_Tables_number        141
_refine_ls_R_factor_all            .011
loop_
_symmetry_equiv_pos_site_id
_symmetry_equiv_pos_as_xyz
  1	'y+.25, x+.75, -z+.25'
  2	'y+.25, -x+.75, -z+.25'
  3	'x, y+.5, -z'
  4	'x, -y, -z'
  5	'-y+.75, x+.75, -z+.25'
  6	'-y+.75, -x+.75, -z+.25'
  7	'-x, y+.5, -z'
  8	'-x, -y, -z'
  9	'-y+.75, -x+.25, z+.75'
 10	'-y+.75, x+.25, z+.75'
 11	'-x, -y+.5, z'
 12	'-x, y, z'
 13	'y+.25, -x+.25, z+.75'
 14	'y+.25, x+.25, z+.75'
 15	'x, -y+.5, z'
 16	'x, y, z'
 17	'y+.75, x+.25, -z+.75'
 18	'y+.75, -x+.25, -z+.75'
 19	'x+.5, y, -z+.5'
 20	'x+.5, -y+.5, -z+.5'
 21	'-y+.25, x+.25, -z+.75'
 22	'-y+.25, -x+.25, -z+.75'
 23	'-x+.5, y, -z+.5'
 24	'-x+.5, -y+.5, -z+.5'
 25	'-y+.25, -x+.75, z+.25'
 26	'-y+.25, x+.75, z+.25'
 27	'-x+.5, -y, z+.5'
 28	'-x+.5, y+.5, z+.5'
 29	'y+.75, -x+.75, z+.25'
 30	'y+.75, x+.75, z+.25'
 31	'x+.5, -y, z+.5'
 32	'x+.5, y+.5, z+.5'
loop_
_atom_type_symbol
_atom_type_oxidation_number
Li1+	1
O2-	-2
Ti3+	3
loop_
_atom_site_label
_atom_site_type_symbol
_atom_site_symmetry_multiplicity
_atom_site_Wyckoff_symbol
_atom_site_fract_x
_atom_site_fract_y
_atom_site_fract_z
_atom_site_occupancy
_atom_site_attached_hydrogens
Ti1 Ti3+ 4 a 0 0.750 0.1250 1. 0 
O1 O2- 8 e 0 0.750 0.3612 1. 0 
Li1 Li1+ 4 b 0 0.750 0.625 1. 0 

#End of data_164158-ICSD


