data_201155-ICSD
#?2014 by Fachinformationszentrum Karlsruhe, and the U.S. Secretary of 
#Commerce on behalf of the United States.  All rights reserved.
_database_code_ICSD                201155
_audit_creation_date               1982/12/31
_chemical_name_systematic
;
Potassium Tellurium(IV) Oxotrifluoride
;
_chemical_formula_structural       'K Te O F3'
_chemical_formula_sum              'F3 K1 O1 Te1'
_publ_section_title
;
Structure of crystalline oxofluoride compounds of tellurium(IV)
;
loop_
_citation_id
_citation_journal_abbrev
_citation_year
_citation_journal_volume
_citation_page_first
_citation_page_last
_citation_journal_id_ASTM
primary 'Koordinatsionnaya Khimiya (= Coordination Chemistry (USSR))'
 1982 8 389 395 KOKHDC
_publ_author_name
;
Gorbunova, Yu.E.;Linde, S.A.;Pakhomov, V.I.;Kokunov, Yu.V.;Buslaev, 
Yu.A.
;
_cell_length_a                     4.937(2)
_cell_length_b                     6.746(2)
_cell_length_c                     7.764(2)
_cell_angle_alpha                  90.
_cell_angle_beta                   106.13(2)
_cell_angle_gamma                  90.
_cell_volume                       248.4
_cell_formula_units_Z              2
_symmetry_space_group_name_H-M     'P 1 21 1'
_symmetry_Int_Tables_number        4
_refine_ls_R_factor_all            .095
loop_
_symmetry_equiv_pos_site_id
_symmetry_equiv_pos_as_xyz
  1	'-x, y+.5, -z'
  2	'x, y, z'
loop_
_atom_type_symbol
_atom_type_oxidation_number
F1-	-1
K1+	1
O2-	-2
Te4+	4
loop_
_atom_site_label
_atom_site_type_symbol
_atom_site_symmetry_multiplicity
_atom_site_Wyckoff_symbol
_atom_site_fract_x
_atom_site_fract_y
_atom_site_fract_z
_atom_site_occupancy
_atom_site_attached_hydrogens
_atom_site_B_iso_or_equiv
Te1 Te4+ 2 a 0.0676(4) 0.1 0.1826(2) 1. 0 0 
K1 K1+ 2 a 0.631(2) 0.586(3) 0.2880(8) 1. 0 0 
F1 F1- 2 a 0.058(6) 0.820(5) 0.204(4) 1. 0 7.5(7) 
F2 F1- 2 a 0.682(5) 0.182(3) 0.064(3) 1. 0 5.3(5) 
F3 F1- 2 a 0.425(4) 0.035(3) 0.372(2) 1. 0 4.1(4) 
O1 O2- 2 a 0.947(4) 0.144(3) 0.390(3) 1. 0 3.4(4) 

loop_
_atom_site_aniso_label
_atom_site_aniso_type_symbol
_atom_site_aniso_B_11
_atom_site_aniso_B_22
_atom_site_aniso_B_33
_atom_site_aniso_B_12
_atom_site_aniso_B_13
_atom_site_aniso_B_23
Te1 Te4+ 2.51(7) 5.07(10) 2.06(5) -.2(3) 0.53(4) 0.7(4)
K1 K1+ 3.6(3) 9.6(7) 2.5(2) 1.2(9) 0.2(2) 1.5(7)
#End of data_201155-ICSD


