data_76432-ICSD
#?2014 by Fachinformationszentrum Karlsruhe, and the U.S. Secretary of 
#Commerce on behalf of the United States.  All rights reserved.
_database_code_ICSD                76432
_audit_creation_date               2000/12/16
_chemical_name_systematic          'Sodium Niobate - Iii'
_chemical_formula_structural       'Na (Nb O3)'
_chemical_formula_sum              'Na1 Nb1 O3'
_publ_section_title
;
The structure of ferroelectric sodium niobate at room temperature
;
loop_
_citation_id
_citation_journal_abbrev
_citation_year
_citation_journal_volume
_citation_page_first
_citation_page_last
_citation_journal_id_ASTM
primary 'Acta Crystallographica (1,1948-23,1967)' 1951 4 545 551 ACCRA9
_publ_author_name                  'Vousden, P.'
_cell_length_a                     5.504
_cell_length_b                     5.568
_cell_length_c                     15.52
_cell_angle_alpha                  90.
_cell_angle_beta                   90.
_cell_angle_gamma                  90.
_cell_volume                       475.63
_cell_formula_units_Z              8
_symmetry_space_group_name_H-M     'P 2 2 21'
_symmetry_Int_Tables_number        17
loop_
_symmetry_equiv_pos_site_id
_symmetry_equiv_pos_as_xyz
  1	'-x, y, -z+.5'
  2	'-x, -y, z+.5'
  3	'x, -y, -z'
  4	'x, y, z'
loop_
_atom_type_symbol
_atom_type_oxidation_number
Na1+	1
Nb5+	5
O2-	-2
loop_
_atom_site_label
_atom_site_type_symbol
_atom_site_symmetry_multiplicity
_atom_site_Wyckoff_symbol
_atom_site_fract_x
_atom_site_fract_y
_atom_site_fract_z
_atom_site_occupancy
_atom_site_attached_hydrogens
Na1 Na1+ 2 c 0 0.519 0.25 1. 0 
Na2 Na1+ 2 d 0.5 -.019 0.25 1. 0 
Na3 Na1+ 2 a 0.519 0 0.5 1. 0 
Na4 Na1+ 2 b -.019 0.5 0.5 1. 0 
Nb1 Nb5+ 4 e 0.014 0.005 0.375 1. 0 
Nb2 Nb5+ 4 e 0.514 0.505 0.375 1. 0 
O1 O2- 4 e 0.25 0.25 0.375 1. 0 
O2 O2- 4 e 0.75 0.25 0.375 1. 0 
O3 O2- 4 e 0.25 0.75 0.375 1. 0 
O4 O2- 4 e 0.75 0.75 0.375 1. 0 
O5 O2- 2 c 0 0.025 0.25 1. 0 
O6 O2- 2 d 0.5 0.475 0.25 1. 0 
O7 O2- 2 a 0.025 0 0.5 1. 0 
O8 O2- 2 b 0.475 0.5 0.5 1. 0 

#End of data_76432-ICSD


