data_150300-ICSD
#?2014 by Fachinformationszentrum Karlsruhe, and the U.S. Secretary of 
#Commerce on behalf of the United States.  All rights reserved.
_database_code_ICSD                150300
_audit_creation_date               2006/04/01
_chemical_name_systematic          'Cesium Silver Chloride - Alpha'
_chemical_formula_structural       'Cs Ag Cl2'
_chemical_formula_sum              'Ag1 Cl2 Cs1'
_publ_section_title
;
Crystal structures and ionic conductivities of ternary derivatives of 
the silver and copper monohalides - II: ordered phases within the (Ag 
X)x - (MX)1-x and (CuX)x - (MX)1-x (M = K, Rb and Cs; X = Cl, Br and 
I) systems
;
loop_
_citation_id
_citation_journal_abbrev
_citation_year
_citation_journal_volume
_citation_page_first
_citation_page_last
_citation_journal_id_ASTM
primary 'Journal of Solid State Chemistry' 2004 177 3156 3173 JSSCBI
_publ_author_name                  'Hull, S.;Berastegui, P.'
_cell_length_a                     5.10938(2)
_cell_length_b                     5.10938(2)
_cell_length_c                     9.85955(7)
_cell_angle_alpha                  90.
_cell_angle_beta                   90.
_cell_angle_gamma                  90.
_cell_volume                       257.39
_cell_formula_units_Z              2
_symmetry_space_group_name_H-M     'P 4/n m m Z'
_symmetry_Int_Tables_number        129
_refine_ls_R_factor_all            .009
loop_
_symmetry_equiv_pos_site_id
_symmetry_equiv_pos_as_xyz
  1	'y+.5, x+.5, -z'
  2	'-y, x+.5, -z'
  3	'y+.5, -x, -z'
  4	'-y, -x, -z'
  5	'x+.5, y+.5, -z'
  6	'-x, y+.5, -z'
  7	'x+.5, -y, -z'
  8	'-x, -y, -z'
  9	'-y+.5, -x+.5, z'
 10	'y, -x+.5, z'
 11	'-y+.5, x, z'
 12	'y, x, z'
 13	'-x+.5, -y+.5, z'
 14	'x, -y+.5, z'
 15	'-x+.5, y, z'
 16	'x, y, z'
loop_
_atom_type_symbol
_atom_type_oxidation_number
Ag1+	1
Cl1-	-1
Cs1+	1
loop_
_atom_site_label
_atom_site_type_symbol
_atom_site_symmetry_multiplicity
_atom_site_Wyckoff_symbol
_atom_site_fract_x
_atom_site_fract_y
_atom_site_fract_z
_atom_site_occupancy
_atom_site_attached_hydrogens
Cs1 Cs1+ 2 c 0.250 0.250 0.7014(3) 1. 0 
Ag1 Ag1+ 2 c 0.250 0.250 0.0986(3) 1. 0 
Cl1 Cl1- 2 a 0.250 0.750 0 1. 0 
Cl2 Cl1- 2 c 0.250 0.250 0.3534(2) 1. 0 

loop_
_atom_site_aniso_label
_atom_site_aniso_type_symbol
_atom_site_aniso_B_11
_atom_site_aniso_B_22
_atom_site_aniso_B_33
_atom_site_aniso_B_12
_atom_site_aniso_B_13
_atom_site_aniso_B_23
Cs1 Cs1+ 5.2(1) 5.2(1) 3.5(1) 0. 0. 0.
Ag1 Ag1+ 6.6(1) 6.6(1) 3.6(2) 0. 0. 0.
Cl1 Cl1- 4.28(6) 4.28(6) 7.3(2) 0. 0. 0.
Cl2 Cl1- 7.3(1) 7.3(1) 2.68(8) 0. 0. 0.
#End of data_150300-ICSD


