data_65167-ICSD
#?2014 by Fachinformationszentrum Karlsruhe, and the U.S. Secretary of 
#Commerce on behalf of the United States.  All rights reserved.
_database_code_ICSD                65167
_audit_creation_date               1989/12/04
_chemical_name_systematic          'Potassium Disamarium(II) Chloride'
_chemical_formula_structural       'K Sm2 Cl5'
_chemical_formula_sum              'Cl5 K1 Sm2'
_publ_section_title
;
Divalent samarium: Synthesis and crystal structures of Sm4 O Cl6 and 
K Sm2 Cl5
;
loop_
_citation_id
_citation_journal_abbrev
_citation_year
_citation_journal_volume
_citation_page_first
_citation_page_last
_citation_journal_id_ASTM
primary 'Zeitschrift fuer Anorganische und Allgemeine Chemie (1950) (DE)'
 1987 553 231 238 ZAACAB
_publ_author_name                  'Schleid, T.;Meyer, G.'
_cell_length_a                     8.884
_cell_length_b                     7.856
_cell_length_c                     12.632
_cell_angle_alpha                  90.
_cell_angle_beta                   90.09
_cell_angle_gamma                  90.
_cell_volume                       881.62
_cell_formula_units_Z              4
_symmetry_space_group_name_H-M     'P 1 21/c 1'
_symmetry_Int_Tables_number        14
_refine_ls_R_factor_all            .034
loop_
_symmetry_equiv_pos_site_id
_symmetry_equiv_pos_as_xyz
  1	'x, -y+.5, z+.5'
  2	'-x, -y, -z'
  3	'-x, y+.5, -z+.5'
  4	'x, y, z'
loop_
_atom_type_symbol
_atom_type_oxidation_number
Cl1-	-1
K1+	1
Sm2+	2
loop_
_atom_site_label
_atom_site_type_symbol
_atom_site_symmetry_multiplicity
_atom_site_Wyckoff_symbol
_atom_site_fract_x
_atom_site_fract_y
_atom_site_fract_z
_atom_site_occupancy
_atom_site_attached_hydrogens
K1 K1+ 4 e 0.5090(2) 0.0471(2) 0.8315(2) 1. 0 
Sm1 Sm2+ 4 e 0.00085(5) 0.02383(5) 0.82318(3) 1. 0 
Sm2 Sm2+ 4 e 0.25131(4) 0.43063(5) 0.00705(3) 1. 0 
Cl1 Cl1- 4 e 0.9609(2) 0.1611(2) 0.5990(1) 1. 0 
Cl2 Cl1- 4 e 0.2196(2) 0.0463(2) 0.0025(1) 1. 0 
Cl3 Cl1- 4 e 0.5374(2) 0.1718(2) 0.5877(2) 1. 0 
Cl4 Cl1- 4 e 0.2320(2) 0.3061(2) 0.7824(1) 1. 0 
Cl5 Cl1- 4 e 0.7819(2) 0.3309(2) 0.8158(2) 1. 0 

loop_
_atom_site_aniso_label
_atom_site_aniso_type_symbol
_atom_site_aniso_U_11
_atom_site_aniso_U_22
_atom_site_aniso_U_33
_atom_site_aniso_U_12
_atom_site_aniso_U_13
_atom_site_aniso_U_23
K1 K1+ 0.0307(9) 0.0220(9) 0.0389(11) 0.0056(8) 0.0048(8) 0.0073(8)
Sm1 Sm2+ 0.0135(2) 0.0096(2) 0.0121(2) -.0018(1) 0.0000(1) 0.0008(1)
Sm2 Sm2+ 0.0087(2) 0.0096(2) 0.0126(2) 0.0002(1) 0.0002(1) -.0014(1)
Cl1 Cl1- 0.0182(9) 0.0160(8) 0.0210(9) -.0009(6) 0.0002(7) -.0036(6)
Cl2 Cl1- 0.0225(9) 0.0190(9) 0.0183(8) -.0013(6) -.0004(7) -.0001(7)
Cl3 Cl1- 0.0173(9) 0.0283(10) 0.0380(12) 0.0019(7) -.0025(8) -.0150(9)
Cl4 Cl1- 0.0219(9) 0.0183(8) 0.0188(9) 0.0013(6) -.0006(7) 0.0017(7)
Cl5 Cl1- 0.0293(10) 0.0196(9) 0.0211(9) -.0035(7) 0.0058(8) -.0035(7)
#End of data_65167-ICSD


