data_201652-ICSD
#?2014 by Fachinformationszentrum Karlsruhe, and the U.S. Secretary of 
#Commerce on behalf of the United States.  All rights reserved.
_database_code_ICSD                201652
_audit_creation_date               1985/08/06
_audit_update_record               2012/02/01
_chemical_name_systematic
;
Diammonium Aluminum Pentafluoride Hydrate
;
_chemical_formula_structural       '(N H4)2 Al F5 (H2 O)'
_chemical_formula_sum              'H10 Al1 F5 N2 O1'
_publ_section_title
;
... Part XIII. Crystal structure of (N H4)2 (Al F5 (H2 O)) and N H3 
D+ probe-ion spectra in (N H4)2 (Al F5 (H2 O)), N H4 Al F4 and (N 
H4)3 Zn Cl5 with remarks on structural filiation of AMF4 fluorides
;
loop_
_citation_id
_citation_journal_abbrev
_citation_year
_citation_journal_volume
_citation_page_first
_citation_page_last
_citation_journal_id_ASTM
primary 'Canadian Journal of Chemistry' 1985 63 516 525 CJCHAG
_publ_author_name
;
Knop, O.;Cameron, T.S.;Deraniyagala, S.P.;Adhikesavalu, D.;Falk, M.
;
_cell_length_a                     10.192(4)
_cell_length_b                     8.037(2)
_cell_length_c                     7.844(1)
_cell_angle_alpha                  90.
_cell_angle_beta                   90.
_cell_angle_gamma                  90.
_cell_volume                       642.53
_cell_formula_units_Z              4
_symmetry_space_group_name_H-M     'P b c n'
_symmetry_Int_Tables_number        60
_refine_ls_R_factor_all            .046
loop_
_symmetry_equiv_pos_site_id
_symmetry_equiv_pos_as_xyz
  1	'x, -y, z+.5'
  2	'-x+.5, y+.5, z'
  3	'x+.5, y+.5, -z+.5'
  4	'-x, -y, -z'
  5	'-x, y, -z+.5'
  6	'x+.5, -y+.5, -z'
  7	'-x+.5, -y+.5, z+.5'
  8	'x, y, z'
loop_
_atom_type_symbol
_atom_type_oxidation_number
Al3+	3
F1-	-1
H1+	1
N3-	-3
O2-	-2
loop_
_atom_site_label
_atom_site_type_symbol
_atom_site_symmetry_multiplicity
_atom_site_Wyckoff_symbol
_atom_site_fract_x
_atom_site_fract_y
_atom_site_fract_z
_atom_site_occupancy
_atom_site_attached_hydrogens
_atom_site_U_iso_or_equiv
Al1 Al3+ 4 c 0 0.1996(3) 0.25 1. 0 0 
F1 F1- 4 c 0 0.4226(5) 0.25 1. 0 0 
F2 F1- 8 d 0.0400(3) 0.1966(4) 0.0288(3) 1. 0 0 
F3 F1- 8 d 0.1713(3) 0.1975(4) 0.3012(4) 1. 0 0 
O1 O2- 4 c 0 -.0412(7) 0.25 1. 0 0 
H1 H1+ 8 d 0.005(11) -.1179(49) 0.3490(27) 1. 0 0.101(31) 
N1 N3- 8 d 0.2997(4) 0.0230(6) 0.0265(6) 1. 0 0 
H2 H1+ 8 d 0.2554(44) -.0681(45) -.0439(51) 1. 0 0.036(15) 
H3 H1+ 8 d 0.2339(42) 0.0741(64) 0.1136(53) 1. 0 0.060(21) 
H4 H1+ 8 d 0.3285(56) 0.1183(51) -.0567(58) 1. 0 0.094(29) 
H5 H1+ 8 d 0.3805(36) -.0200(65) 0.0916(61) 1. 0 0.074(25) 

loop_
_atom_site_aniso_label
_atom_site_aniso_type_symbol
_atom_site_aniso_U_11
_atom_site_aniso_U_22
_atom_site_aniso_U_33
_atom_site_aniso_U_12
_atom_site_aniso_U_13
_atom_site_aniso_U_23
Al1 Al3+ 0.0274(12) 0.0238(12) 0.0122(10) 0 -.0010(9) 0
F1 F1- 0.0353(25) 0.0223(22) 0.0231(22) 0 0.0043(22) 0
F2 F1- 0.0572(21) 0.0297(16) 0.0162(16) -.0011(16) 0.0045(13) -.0037(15)
F3 F1- 0.0295(19) 0.0503(21) 0.0436(20) 0.0094(18) -.0084(14) -.0085(18)
O1 O2- 0.1123(59) 0.0209(32) 0.0245(31) 0 -.0214(38) 0
N1 N3- 0.0285(22) 0.0318(26) 0.0272(25) 0.0027(22) 0.0022(21) 0.0041(23)
#End of data_201652-ICSD


