data_78891-ICSD
#?2014 by Fachinformationszentrum Karlsruhe, and the U.S. Secretary of 
#Commerce on behalf of the United States.  All rights reserved.
_database_code_ICSD                78891
_audit_creation_date               1997/11/10
_audit_update_record               2005/10/01
_chemical_name_systematic
;
Tripotassium Oxide Chloride - Alpha
;
_chemical_formula_structural       'K3 O Cl'
_chemical_formula_sum              'Cl1 K3 O1'
_publ_section_title
;
Die Kristallstrukturen von alpha- und beta-K3 O Cl
;
loop_
_citation_id
_citation_journal_abbrev
_citation_year
_citation_journal_volume
_citation_page_first
_citation_page_last
_citation_journal_id_ASTM
primary 'Zeitschrift fuer Anorganische und Allgemeine Chemie (1950) (DE)'
 1996 622 15 156 ZAACAB
2 'Golden Book of Phase Transitions, Wroclaw' 2002 1 1 123 GBOPT5
_publ_author_name
;
Sabrowsky, H.;Feldbaum-Moeller, E.;Fischer, K.;Sitta, S.;Vogt, 
P.;Winter, V.
;
_cell_length_a                     7.239(2)
_cell_length_b                     7.239(2)
_cell_length_c                     10.277(2)
_cell_angle_alpha                  90.
_cell_angle_beta                   90.
_cell_angle_gamma                  90.
_cell_volume                       538.55
_cell_formula_units_Z              4
_symmetry_space_group_name_H-M     'P b n m'
_symmetry_Int_Tables_number        62
_refine_ls_R_factor_all            .0644
loop_
_symmetry_equiv_pos_site_id
_symmetry_equiv_pos_as_xyz
  1	'-x+.5, y+.5, z'
  2	'x, y, -z+.5'
  3	'x+.5, -y+.5, z+.5'
  4	'-x, -y, -z'
  5	'x+.5, -y+.5, -z'
  6	'-x, -y, z+.5'
  7	'-x+.5, y+.5, -z+.5'
  8	'x, y, z'
loop_
_atom_type_symbol
_atom_type_oxidation_number
Cl1-	-1
K1+	1
O2-	-2
loop_
_atom_site_label
_atom_site_type_symbol
_atom_site_symmetry_multiplicity
_atom_site_Wyckoff_symbol
_atom_site_fract_x
_atom_site_fract_y
_atom_site_fract_z
_atom_site_occupancy
_atom_site_attached_hydrogens
K1 K1+ 4 c 0.0476(8) 0.4913(12) 0.25 1. 0 
K2 K1+ 8 d -.2856(5) 0.2863(7) 0.0273(4) 1. 0 
O1 O2- 4 b 0.5 0 0 1. 0 
Cl1 Cl1- 4 c 0.0030(8) 0.0179(10) 0.25 1. 0 

loop_
_atom_site_aniso_label
_atom_site_aniso_type_symbol
_atom_site_aniso_U_11
_atom_site_aniso_U_22
_atom_site_aniso_U_33
_atom_site_aniso_U_12
_atom_site_aniso_U_13
_atom_site_aniso_U_23
K1 K1+ 0.0287(14) 0.0377(28) 0.0124(5) -.0029(16) 0 0
K2 K1+ 0.0160(6) 0.0269(10) 0.0211(5) -.0087(5) -.0020(7) 0.0016(6)
O1 O2- 0.0101(19) 0.0185(31) 0.0125(10) -.0017(29) -.0003(14) -.0020(12)
Cl1 Cl1- 0.0185(11) 0.0364(21) 0.0152(7) -.0065(10) 0 0
#End of data_78891-ICSD


