data_174643-ICSD
#?2014 by Fachinformationszentrum Karlsruhe, and the U.S. Secretary of 
#Commerce on behalf of the United States.  All rights reserved.
_database_code_ICSD                174643
_audit_creation_date               2012/02/01
_chemical_name_systematic
;
Pentamagnesium Trioxotantalate Tris(borate)
;
_chemical_formula_structural       'Mg5 Ta O3 (B O3)3'
_chemical_formula_sum              'B3 Mg5 O12 Ta1'
_publ_section_title
;
Synthesis, crystal structures and photoluminescence properties of new 
oxyborates, Mg5 Nb O3 (B O3)3 and Mg5 Ta O3 (B O3)3, with novel 
warwickite-type superstructures
;
loop_
_citation_id
_citation_journal_abbrev
_citation_year
_citation_journal_volume
_citation_journal_issue
_citation_page_first
_citation_page_last
_citation_journal_id_ASTM
primary 'Journal of Solid State Chemistry' 2011 184 9 2466 2471 JSSCBI
_publ_author_name                  'Kawano, T.;Yamane, H.'
_cell_length_a                     9.3702(3)
_cell_length_b                     9.4415(3)
_cell_length_c                     9.3301(2)
_cell_angle_alpha                  90.
_cell_angle_beta                   90.
_cell_angle_gamma                  90.
_cell_volume                       825.42
_cell_formula_units_Z              4
_symmetry_space_group_name_H-M     'P n m a'
_symmetry_Int_Tables_number        62
_refine_ls_R_factor_all            .0132
loop_
_symmetry_equiv_pos_site_id
_symmetry_equiv_pos_as_xyz
  1	'x+.5, y, -z+.5'
  2	'x, -y+.5, z'
  3	'-x+.5, y+.5, z+.5'
  4	'-x, -y, -z'
  5	'-x+.5, -y, z+.5'
  6	'-x, y+.5, -z'
  7	'x+.5, -y+.5, -z+.5'
  8	'x, y, z'
loop_
_atom_type_symbol
_atom_type_oxidation_number
B3+	3
Mg2+	2
O2-	-2
Ta5+	5
loop_
_atom_site_label
_atom_site_type_symbol
_atom_site_symmetry_multiplicity
_atom_site_Wyckoff_symbol
_atom_site_fract_x
_atom_site_fract_y
_atom_site_fract_z
_atom_site_occupancy
_atom_site_attached_hydrogens
_atom_site_U_iso_or_equiv
Ta1 Ta5+ 4 c 0.100986(15) 0.25 0.085433(16) 1. 0 0.00434(6) 
Mg1 Mg2+ 8 d 0.12321(10) 0.58467(9) 0.07333(10) 1. 0 0.00404(19) 
Mg2 Mg2+ 8 d 0.40254(9) 0.07625(10) 0.18014(10) 1. 0 0.00613(19) 
Mg3 Mg2+ 4 c 0.10166(13) 0.25 0.69081(14) 1. 0 0.0063(3) 
B1 B3+ 4 c 0.1782(5) 0.25 0.3705(5) 1. 0 0.0062(8) 
B2 B3+ 8 d 0.1728(3) 0.5886(3) 0.3733(3) 1. 0 0.0046(6) 
O1 O2- 4 c 0.0361(3) 0.25 0.3406(3) 1. 0 0.0083(6) 
O2 O2- 4 c 0.2372(3) 0.25 0.5039(3) 1. 0 0.0056(5) 
O3 O2- 4 c 0.2608(3) 0.25 0.2449(3) 1. 0 0.0059(5) 
O4 O2- 8 d 0.0287(2) 0.58812(19) 0.3706(2) 1. 0 0.0070(4) 
O5 O2- 8 d 0.25231(19) 0.58285(17) 0.2492(2) 1. 0 0.0061(4) 
O6 O2- 8 d 0.25789(18) 0.09440(19) 0.0074(2) 1. 0 0.0056(4) 
O7 O2- 4 c 0.5214(3) 0.25 0.6050(3) 1. 0 0.0051(5) 
O8 O2- 8 d 0.49193(19) 0.08524(18) 0.38112(19) 1. 0 0.0044(4) 

loop_
_atom_site_aniso_label
_atom_site_aniso_type_symbol
_atom_site_aniso_U_11
_atom_site_aniso_U_22
_atom_site_aniso_U_33
_atom_site_aniso_U_12
_atom_site_aniso_U_13
_atom_site_aniso_U_23
Ta1 Ta5+ 0.00344(9) 0.00440(9) 0.00518(9) 0 -0.00045(6) 0
Mg1 Mg2+ 0.0046(4) 0.0035(5) 0.0040(4) 0.0001(3) -0.0023(3) 0.0008(3)
Mg2 Mg2+ 0.0051(4) 0.0065(5) 0.0067(4) 0.0001(63) -0.0013(4) -0.0006(3)
Mg3 Mg2+ 0.0053(6) 0.0072(6) 0.0063(6) 0 0.0000(5) 0
O1 O2- 0.0026(12) 0.0083(13) 0.0141(14) 0 -0.0036(11) 0
O2 O2- 0.0039(12) 0.0074(13) 0.0054(12) 0 -0.0006(10) 0
O3 O2- 0.0041(12) 0.0093(12) 0.0043(11) 0 0.0003(10) 0
O4 O2- 0.0031(9) 0.0077(10) 0.0104(10) -0.0005(7) -0.0011(7) 0.0003(7)
O5 O2- 0.0052(9) 0.0081(9) 0.0049(8) 0.0000(6) 0.0003(7) 0.0000(8)
O6 O2- 0.0033(8) 0.0084(9) 0.0052(9) 0.0010(7) 0.0006(7) -0.0004(7)
O7 O2- 0.0041(12) 0.0051(13) 0.0062(12) 0 0.0004(10) 0
O8 O2- 0.0039(9) 0.0051(9) 0.0043(8) -0.0010(7) -0.0012(7) -0.0006(6)
#End of data_174643-ICSD


