data_170812-ICSD
#?2014 by Fachinformationszentrum Karlsruhe, and the U.S. Secretary of 
#Commerce on behalf of the United States.  All rights reserved.
_database_code_ICSD                170812
_audit_creation_date               2006/04/01
_chemical_name_systematic          'Calcium Copper Germanate'
_chemical_formula_structural       'Ca Cu Ge2 O6'
_chemical_formula_sum              'Ca1 Cu1 Ge2 O6'
_chemical_name_mineral             Clinopyroxene
_publ_section_title
;
Crystal structure of the clinopyroxene-type compound Ca Cu Ge2 O6 
between 15 K and 700 K
;
loop_
_citation_id
_citation_journal_abbrev
_citation_year
_citation_journal_volume
_citation_page_first
_citation_page_last
_citation_journal_id_ASTM
primary 'Acta Crystallographica, Section B: Structural Science'
 2005 61 367 380 ASBSDK
_publ_author_name
;
Redhammer, G.J.;Tippelt, G.;Merz, M.;Roth, G.;Treutmann, W.;Amthauer, 
G.
;
_cell_length_a                     10.1930(12)
_cell_length_b                     9.2039(7)
_cell_length_c                     5.2078(6)
_cell_angle_alpha                  90
_cell_angle_beta                   105.688(12)
_cell_angle_gamma                  90
_cell_volume                       470.37
_cell_formula_units_Z              4
_symmetry_space_group_name_H-M     'P 1 21/c 1'
_symmetry_Int_Tables_number        14
_refine_ls_R_factor_all            .03
loop_
_symmetry_equiv_pos_site_id
_symmetry_equiv_pos_as_xyz
  1	'x, -y+.5, z+.5'
  2	'-x, -y, -z'
  3	'-x, y+.5, -z+.5'
  4	'x, y, z'
loop_
_atom_type_symbol
_atom_type_oxidation_number
Ca2+	2
Cu2+	2
Ge4+	4
O2-	-2
loop_
_atom_site_label
_atom_site_type_symbol
_atom_site_symmetry_multiplicity
_atom_site_Wyckoff_symbol
_atom_site_fract_x
_atom_site_fract_y
_atom_site_fract_z
_atom_site_occupancy
_atom_site_attached_hydrogens
_atom_site_U_iso_or_equiv
Ca1 Ca2+ 4 e 0.28320(7) 0.45269(8) 0.80882(15) 1 0 0.01293(14) 
Cu1 Cu2+ 4 e 0.22733(4) 0.66143(5) 0.25622(9) 1 0 0.01126(11) 
Ge1 Ge4+ 4 e 0.04917(3) 0.34917(4) 0.20951(7) 1 0 0.00973(10) 
Ge2 Ge4+ 4 e 0.49106(4) 0.35081(4) 0.40114(8) 1 0 0.01033(10) 
O1 O2- 4 e -0.1270(3) 0.3615(3) 0.1151(5) 1 0 0.0125(5) 
O2 O2- 4 e 0.6584(2) 0.3200(3) 0.3790(5) 1 0 0.0116(4) 
O3 O2- 4 e 0.1460(3) 0.4890(3) 0.3758(6) 1 0 0.0152(5) 
O4 O2- 4 e 0.4321(3) 0.5221(3) 0.2614(6) 1 0 0.0141(5) 
O5 O2- 4 e 0.1030(3) 0.1946(3) 0.4203(5) 1 0 0.0125(5) 
O6 O2- 4 e 0.3998(3) 0.2513(3) 0.5885(5) 1 0 0.0123(5) 

loop_
_atom_site_aniso_label
_atom_site_aniso_type_symbol
_atom_site_aniso_U_11
_atom_site_aniso_U_22
_atom_site_aniso_U_33
_atom_site_aniso_U_12
_atom_site_aniso_U_13
_atom_site_aniso_U_23
Ca1 Ca2+ 0.0125(3) 0.0131(3) 0.0125(3) 0.0001(2) 0.0020(2) 0.0008(2)
Cu1 Cu2+ 0.01125(18) 0.01171(19) 0.00932(19) -0.00110(14) 0.00019(14) 
-0.00010(15)
Ge1 Ge4+ 0.00842(16) 0.01059(16) 0.00942(17) -0.00051(11) 0.00113(12) 
-0.00034(12)
Ge2 Ge4+ 0.00952(16) 0.01012(16) 0.01160(18) 0.00040(12) 0.00328(12) 
0.00108(12)
O1 O2- 0.0103(10) 0.0151(12) 0.0106(11) 0.0005(9) 0.0004(8) -0.0015(9)
O2 O2- 0.0090(10) 0.0131(11) 0.0121(11) 0.0005(8) 0.0017(8) -0.0009(9)
O3 O2- 0.0161(12) 0.0126(11) 0.0139(12) -0.0053(9) -0.0012(9) -0.0017(10)
O4 O2- 0.0189(12) 0.0108(11) 0.0120(12) 0.0007(9) 0.0031(9) 0.0002(9)
O5 O2- 0.0131(11) 0.0139(11) 0.0114(11) 0.0035(9) 0.0052(9) 0.0038(9)
O6 O2- 0.0117(11) 0.0147(11) 0.0102(12) -0.0025(9) 0.0024(9) 0.0012(9)
#End of data_170812-ICSD


