data_247998-ICSD
#?2014 by Fachinformationszentrum Karlsruhe, and the U.S. Secretary of 
#Commerce on behalf of the United States.  All rights reserved.
_database_code_ICSD                247998
_audit_creation_date               2014/08/01
_chemical_name_systematic
;
Dicalcium Manganese Rhenium Hexaoxide
;
_chemical_formula_structural       'Ca2 Mn Re O6'
_chemical_formula_sum              'Ca2 Mn1 O6 Re1'
_publ_section_title
;
Structural and magnetic investigation of Ca2 Mn Re O6 doped with Ce
;
loop_
_citation_id
_citation_journal_abbrev
_citation_year
_citation_journal_volume
_citation_journal_issue
_citation_page_first
_citation_page_last
_citation_journal_id_ASTM
primary 'Ceramica (Sao Paulo)' 2013 59 350 262 268 CMCAAG
_publ_author_name
;
Depianti, J.B.;Orlando, M.T.D.;Cavichini, A.S.;Correa, 
H.P.S.;Rodrigues, V.A.;Passamai, J.L.;Piedade, E.L.O.;Belich, 
H.;Medeiros, E.F.;de Melo, F.C.L.
;
_cell_length_a                     5.44445(2)
_cell_length_b                     5.63957(3)
_cell_length_c                     7.77524(3)
_cell_angle_alpha                  90
_cell_angle_beta                   90.18(1)
_cell_angle_gamma                  90
_cell_volume                       238.73
_cell_formula_units_Z              2
_symmetry_space_group_name_H-M     'P 1 21/n 1'
_symmetry_Int_Tables_number        14
_refine_ls_R_factor_all            .0466
loop_
_symmetry_equiv_pos_site_id
_symmetry_equiv_pos_as_xyz
  1	'-x+.5, y+.5, -z+.5'
  2	'-x, -y, -z'
  3	'x+.5, -y+.5, z+.5'
  4	'x, y, z'
loop_
_atom_type_symbol
_atom_type_oxidation_number
Ca2+	2
Mn4+	4
O2-	-2
Re4+	4
loop_
_atom_site_label
_atom_site_type_symbol
_atom_site_symmetry_multiplicity
_atom_site_Wyckoff_symbol
_atom_site_fract_x
_atom_site_fract_y
_atom_site_fract_z
_atom_site_occupancy
_atom_site_attached_hydrogens
_atom_site_U_iso_or_equiv
Ca1 Ca2+ 4 e 0.4859(5) 0.55514(31) 0.25221(29) 1. 0 0.0037(1) 
Mn1 Mn4+ 2 c 0.5 0 0.5 1. 0 0.0037(1) 
Re1 Re4+ 2 d 0.5 0 0 1. 0 0.0037(1) 
O1 O2- 4 e 0.3142(12) 0.2872(12) 0.0481(10) 1. 0 0.0053(12) 
O2 O2- 4 e 0.2124(12) 0.8025(12) 0.0478(10) 1. 0 0.0053(12) 
O3 O2- 4 e 0.5950(11) -0.0414(12) 0.2443(8) 1. 0 0.0053(12) 

#End of data_247998-ICSD


