data_281040-ICSD
#?2014 by Fachinformationszentrum Karlsruhe, and the U.S. Secretary of 
#Commerce on behalf of the United States.  All rights reserved.
_database_code_ICSD                281040
_audit_creation_date               2003/04/01
_audit_update_record               2013/02/01
_chemical_name_systematic          'Silver Carbonate - Lt'
_chemical_formula_structural       'Ag2 (C O3)'
_chemical_formula_sum              'C1 Ag2 O3'
_publ_section_title
;
Decomposition of silver carbonate: the crystal structure of two high-
temperature modifications of Ag2 C O3
;
loop_
_citation_id
_citation_journal_abbrev
_citation_year
_citation_journal_volume
_citation_journal_issue
_citation_page_first
_citation_page_last
_citation_journal_id_ASTM
primary 'Inorganic Chemistry' 2002 41 14 3628 3637 INOCAJ
_publ_author_name
;
Norby, P.;Dinnebier, R.E.;Fitch, A.N.
;
_cell_length_a                     4.852090(22)
_cell_length_b                     9.54888(4)
_cell_length_c                     3.253628(15)
_cell_angle_alpha                  90
_cell_angle_beta                   91.9713(3)
_cell_angle_gamma                  90
_cell_volume                       150.66
_cell_formula_units_Z              2
_symmetry_space_group_name_H-M     'P 1 21/m 1'
_symmetry_Int_Tables_number        11
_refine_ls_R_factor_all            .079
loop_
_symmetry_equiv_pos_site_id
_symmetry_equiv_pos_as_xyz
  1	'x, -y+.5, z'
  2	'-x, -y, -z'
  3	'-x, y+.5, -z'
  4	'x, y, z'
loop_
_atom_type_symbol
_atom_type_oxidation_number
Ag1+	1
C4+	4
O2-	-2
loop_
_atom_site_label
_atom_site_type_symbol
_atom_site_symmetry_multiplicity
_atom_site_Wyckoff_symbol
_atom_site_fract_x
_atom_site_fract_y
_atom_site_fract_z
_atom_site_occupancy
_atom_site_attached_hydrogens
_atom_site_U_iso_or_equiv
Ag1 Ag1+ 4 f 0.21142(8) 0.07801(4) 0.21877(20) 1. 0 0.02826(30) 
O1 O2- 2 e -0.02189(8) 0.25 0.8900(13) 1. 0 0.0028(10) 
O2 O2- 4 f 0.38895(50) 0.63624(30) 0.33011(90) 1. 0 0.0011(8) 
C1 C4+ 2 e 0.2666(13) 0.75 0.2643(26) 1. 0 0.0010(20) 

loop_
_atom_site_aniso_label
_atom_site_aniso_type_symbol
_atom_site_aniso_U_11
_atom_site_aniso_U_22
_atom_site_aniso_U_33
_atom_site_aniso_U_12
_atom_site_aniso_U_13
_atom_site_aniso_U_23
Ag1 Ag1+ 0.02415 0.02232 0.03783 0.00192 -0.00609 0.00419
#End of data_281040-ICSD


