data_26504-ICSD
#?2014 by Fachinformationszentrum Karlsruhe, and the U.S. Secretary of 
#Commerce on behalf of the United States.  All rights reserved.
_database_code_ICSD                26504
_audit_creation_date               1980/01/01
_chemical_name_systematic          'Cesium Tetrabromozincate'
_chemical_formula_structural       'Cs2 Zn Br4'
_chemical_formula_sum              'Br4 Cs2 Zn1'
_publ_section_title
;
The Crystal Structure of Cesium Tetrabromozincate, Cs2 Zn Br4
;
loop_
_citation_id
_citation_journal_abbrev
_citation_year
_citation_journal_volume
_citation_page_first
_citation_page_last
_citation_journal_id_ASTM
primary 'Acta Crystallographica (1,1948-23,1967)' 1959 12 744 745 ACCRA9
_publ_author_name                  'Morosin, B.;Lingafelter, E.C.'
_cell_length_a                     10.196(18)
_cell_length_b                     7.770(6)
_cell_length_c                     13.517(23)
_cell_angle_alpha                  90.
_cell_angle_beta                   90.
_cell_angle_gamma                  90.
_cell_volume                       1070.86
_cell_formula_units_Z              4
_symmetry_space_group_name_H-M     'P n m a'
_symmetry_Int_Tables_number        62
_refine_ls_R_factor_all            .114
loop_
_symmetry_equiv_pos_site_id
_symmetry_equiv_pos_as_xyz
  1	'x+.5, y, -z+.5'
  2	'x, -y+.5, z'
  3	'-x+.5, y+.5, z+.5'
  4	'-x, -y, -z'
  5	'-x+.5, -y, z+.5'
  6	'-x, y+.5, -z'
  7	'x+.5, -y+.5, -z+.5'
  8	'x, y, z'
loop_
_atom_type_symbol
_atom_type_oxidation_number
Br1-	-1
Cs1+	1
Zn2+	2
loop_
_atom_site_label
_atom_site_type_symbol
_atom_site_symmetry_multiplicity
_atom_site_Wyckoff_symbol
_atom_site_fract_x
_atom_site_fract_y
_atom_site_fract_z
_atom_site_occupancy
_atom_site_attached_hydrogens
_atom_site_B_iso_or_equiv
Cs1 Cs1+ 4 c 0.6378(4) 0.25 0.3966(4) 1. 0 5.1 
Cs2 Cs1+ 4 c 0.4766(4) 0.25 0.8284(4) 1. 0 2.5 
Zn1 Zn2+ 4 c 0.2356(8) 0.25 0.4214(8) 1. 0 2.5 
Br1 Br1- 4 c 0.0030(7) 0.25 0.4021(7) 1. 0 3.3 
Br2 Br1- 4 c 0.3109(7) 0.25 0.5904(7) 1. 0 3.65 
Br3 Br1- 8 d 0.3255(7) 0.0000(7) 0.3461(7) 1. 0 4.55 

#End of data_26504-ICSD


