data_93086-ICSD
#?2014 by Fachinformationszentrum Karlsruhe, and the U.S. Secretary of 
#Commerce on behalf of the United States.  All rights reserved.
_database_code_ICSD                93086
_audit_creation_date               2003/04/01
_chemical_name_systematic          'Lithium Gallate'
_chemical_formula_structural       'Li (Ga O2)'
_chemical_formula_sum              'Ga1 Li1 O2'
_publ_section_title
;
Structure and properties of Li Ga O2 crystals
;
loop_
_citation_id
_citation_journal_abbrev
_citation_year
_citation_journal_volume
_citation_journal_issue
_citation_page_first
_citation_page_last
_citation_journal_id_ASTM
primary 'Inorganic Materials' 2001 37 3 281 285 INOMAF
_publ_author_name
;
Kuz'micheva, G.M.;Rybakov, V.B.;Gaister, A.V.;Zharikov, E.V.
;
_cell_length_a                     5.3974(5)
_cell_length_b                     6.3688(7)
_cell_length_c                     5.0047(4)
_cell_angle_alpha                  90
_cell_angle_beta                   90
_cell_angle_gamma                  90
_cell_volume                       172.04
_cell_formula_units_Z              4
_symmetry_space_group_name_H-M     'P n a 21'
_symmetry_Int_Tables_number        33
_refine_ls_R_factor_all            .031
loop_
_symmetry_equiv_pos_site_id
_symmetry_equiv_pos_as_xyz
  1	'x+.5, -y+.5, z'
  2	'-x+.5, y+.5, z+.5'
  3	'-x, -y, z+.5'
  4	'x, y, z'
loop_
_atom_type_symbol
_atom_type_oxidation_number
Ga3+	3
Li1+	1
O2-	-2
loop_
_atom_site_label
_atom_site_type_symbol
_atom_site_symmetry_multiplicity
_atom_site_Wyckoff_symbol
_atom_site_fract_x
_atom_site_fract_y
_atom_site_fract_z
_atom_site_occupancy
_atom_site_attached_hydrogens
_atom_site_U_iso_or_equiv
Ga1 Ga3+ 4 a 0.08226(4) 0.12647(6) 0 1. 0 0.00553(6) 
Li1 Li1+ 4 a 0.415(1) 0.133(1) 0.491(4) 1. 0 0.011(1) 
O1 O2- 4 a 0.4076(4) 0.1394(4) 0.8920(5) 1. 0 0.0070(3) 
O2 O2- 4 a 0.0680(4) 0.1126(4) 0.3690(4) 1. 0 0.0072(3) 

loop_
_atom_site_aniso_label
_atom_site_aniso_type_symbol
_atom_site_aniso_U_11
_atom_site_aniso_U_22
_atom_site_aniso_U_33
_atom_site_aniso_U_12
_atom_site_aniso_U_13
_atom_site_aniso_U_23
Ga1 Ga3+ 0.00656(8) 0.00382(8) 0.00622(8) 0.00010(12) 0.00126(26) 
0.00013(35)
Li1 Li1+ 0.017(2) 0.004(1) 0.0134(3) -0.003(3) 0.010(4) 0.001(4)
O1 O2- 0.0074(5) 0.0048(7) 0.0088(5) -0.0007(5) 0.0020(5) -0.0007(5)
O2 O2- 0.0093(5) 0.0055(7) 0.0068(5) -0.0004(6) -0.0008(5) 0.0013(6)
#End of data_93086-ICSD


