data_75131-ICSD
#?2014 by Fachinformationszentrum Karlsruhe, and the U.S. Secretary of 
#Commerce on behalf of the United States.  All rights reserved.
_database_code_ICSD                75131
_audit_creation_date               1995/10/17
_chemical_name_systematic          'Disodium Tecto-phosphatovanadate *'
_chemical_formula_structural       'Na2 (P2 V3 O13)'
_chemical_formula_sum              'Na2 O13 P2 V3'
_publ_section_title
;
Na2V3P2O13: preparation et structure cristalline
;
loop_
_citation_id
_citation_journal_abbrev
_citation_year
_citation_journal_volume
_citation_page_first
_citation_page_last
_citation_journal_id_ASTM
primary 'Journal of Solid State Chemistry' 1994 112 218 221 JSSCBI
_publ_author_name                  'Haddad, A.;Jouini, T.'
_cell_length_a                     10.186(4)
_cell_length_b                     11.976(3)
_cell_length_c                     8.377(4)
_cell_angle_alpha                  90.
_cell_angle_beta                   90.
_cell_angle_gamma                  90.
_cell_volume                       1021.89
_cell_formula_units_Z              4
_symmetry_space_group_name_H-M     'P c c n'
_symmetry_Int_Tables_number        56
_refine_ls_R_factor_all            .052
loop_
_symmetry_equiv_pos_site_id
_symmetry_equiv_pos_as_xyz
  1	'x, -y+.5, z+.5'
  2	'-x+.5, y, z+.5'
  3	'x+.5, y+.5, -z'
  4	'-x, -y, -z'
  5	'-x, y+.5, -z+.5'
  6	'x+.5, -y, -z+.5'
  7	'-x+.5, -y+.5, z'
  8	'x, y, z'
loop_
_atom_type_symbol
_atom_type_oxidation_number
Na1+	1
O2-	-2
P5+	5
V4+	4
V5+	5
loop_
_atom_site_label
_atom_site_type_symbol
_atom_site_symmetry_multiplicity
_atom_site_Wyckoff_symbol
_atom_site_fract_x
_atom_site_fract_y
_atom_site_fract_z
_atom_site_occupancy
_atom_site_attached_hydrogens
V1 V5+ 8 e 0.4799(1) 0.3469(1) 0.7546(1) 1. 0 
V2 V4+ 4 d 0.25 0.75 0.5610(1) 1. 0 
P1 P5+ 8 e 0.4873(1) 0.1197(1) 0.8711(1) 1. 0 
Na1 Na1+ 8 e 0.2160(2) 0.0438(2) 0.1032(3) 1. 0 
O1 O2- 8 e 0.4380(3) 0.4931(3) 0.3076(4) 1. 0 
O2 O2- 8 e 0.4210(3) 0.1421(3) 0.0322(4) 1. 0 
O3 O2- 8 e 0.3533(3) 0.0884(3) 0.3465(4) 1. 0 
O4 O2- 8 e 0.8628(3) 0.1201(3) 0.3877(4) 1. 0 
O5 O2- 8 e 0.5999(3) 0.1554(3) 0.3925(4) 1. 0 
O6 O2- 4 d 0.75 0.25 0.1301(6) 1. 0 
O7 O2- 8 e 0.0607(3) 0.2063(3) 0.2484(4) 1. 0 

#End of data_75131-ICSD


