data_162672-ICSD
#?2014 by Fachinformationszentrum Karlsruhe, and the U.S. Secretary of 
#Commerce on behalf of the United States.  All rights reserved.
_database_code_ICSD                162672
_audit_creation_date               2009/08/01
_chemical_name_systematic          'Lithium Aluminium Telluride'
_chemical_formula_structural       'Li Al Te2'
_chemical_formula_sum              'Al1 Li1 Te2'
_publ_section_title
;
Lattice dynamics of chalcopyrite semiconductors Li Al Te2, Li Ga Te2 
and Li In Te2
;
loop_
_citation_id
_citation_journal_abbrev
_citation_year
_citation_journal_volume
_citation_journal_issue
_citation_page_first
_citation_page_last
_citation_journal_id_ASTM
primary 'Physica Status Solidi B - Basic Solid State Physics'
 2009 246 2 364 371 PSSBBD
_publ_author_name
;
Kosobutsky, A.V.;Basalaev, Yu.M.;Poplavnoi, A.S.
;
_cell_length_a                     6.242
_cell_length_b                     6.242
_cell_length_c                     11.643
_cell_angle_alpha                  90.
_cell_angle_beta                   90.
_cell_angle_gamma                  90.
_cell_volume                       453.64
_cell_formula_units_Z              4
_symmetry_space_group_name_H-M     'I -4 2 d'
_symmetry_Int_Tables_number        122
loop_
_symmetry_equiv_pos_site_id
_symmetry_equiv_pos_as_xyz
  1	'-y, -x+.5, z+.25'
  2	'y, -x, -z'
  3	'y, x+.5, z+.25'
  4	'-y, x, -z'
  5	'x, -y+.5, -z+.25'
  6	'-x, -y, z'
  7	'-x, y+.5, -z+.25'
  8	'x, y, z'
  9	'-y+.5, -x, z+.75'
 10	'y+.5, -x+.5, -z+.5'
 11	'y+.5, x, z+.75'
 12	'-y+.5, x+.5, -z+.5'
 13	'x+.5, -y, -z+.75'
 14	'-x+.5, -y+.5, z+.5'
 15	'-x+.5, y, -z+.75'
 16	'x+.5, y+.5, z+.5'
loop_
_atom_type_symbol
_atom_type_oxidation_number
Al3+	3
Li1+	1
Te2-	-2
loop_
_atom_site_label
_atom_site_type_symbol
_atom_site_symmetry_multiplicity
_atom_site_Wyckoff_symbol
_atom_site_fract_x
_atom_site_fract_y
_atom_site_fract_z
_atom_site_occupancy
_atom_site_attached_hydrogens
Te1 Te2- 8 d 0.2614 0.250 0.125 1. 0 
Al1 Al3+ 4 a 0 0 0 1. 0 
Li1 Li1+ 4 b 0.5 0.5 0 1. 0 

#End of data_162672-ICSD


