data_417871-ICSD
#?2014 by Fachinformationszentrum Karlsruhe, and the U.S. Secretary of 
#Commerce on behalf of the United States.  All rights reserved.
_database_code_ICSD                417871
_audit_creation_date               2008/02/01
_chemical_name_systematic
;
Sodium Nickel(II) Tris(tetrachloroaluminate)
;
_chemical_formula_structural       'Na (Ni (Al Cl4)3)'
_chemical_formula_sum              'Al3 Cl12 Na1 Ni1'
_publ_section_title
;
Die Kristallstrukturen von Ni (Al Cl4)2, Ni (Ga Cl4)2 und Na [Ni (Al 
Cl4)3]
;
loop_
_citation_id
_citation_journal_abbrev
_citation_year
_citation_journal_volume
_citation_journal_issue
_citation_page_first
_citation_page_last
_citation_journal_id_ASTM
primary 'Zeitschrift fuer Naturforschung, B: Chemical Sciences'
 2007 62 8 1052 1058 ZNBSEN
_publ_author_name                  'Kessler, U.;Mueller, R.'
_cell_length_a                     13.5633(2)
_cell_length_b                     12.0080(2)
_cell_length_c                     12.13300(10)
_cell_angle_alpha                  90.00
_cell_angle_beta                   105.6470(10)
_cell_angle_gamma                  90.00
_cell_volume                       1902.85
_cell_formula_units_Z              4
_symmetry_space_group_name_H-M     'P 1 21/c 1'
_symmetry_Int_Tables_number        14
_refine_ls_R_factor_all            .0943
loop_
_symmetry_equiv_pos_site_id
_symmetry_equiv_pos_as_xyz
  1	'x, -y+.5, z+.5'
  2	'-x, -y, -z'
  3	'-x, y+.5, -z+.5'
  4	'x, y, z'
loop_
_atom_type_symbol
_atom_type_oxidation_number
Al3+	3
Cl1-	-1
Na1+	1
Ni2+	2
loop_
_atom_site_label
_atom_site_type_symbol
_atom_site_symmetry_multiplicity
_atom_site_Wyckoff_symbol
_atom_site_fract_x
_atom_site_fract_y
_atom_site_fract_z
_atom_site_occupancy
_atom_site_attached_hydrogens
_atom_site_U_iso_or_equiv
Ni1 Ni2+ 4 e 0.21337(2) 0.73919(3) 0.25897(3) 1 0 0.03602(10) 
Al1 Al3+ 4 e 0.39077(6) 0.92191(7) 0.32383(7) 1 0 0.04196(19) 
Cl1 Cl1- 4 e 0.27741(6) 0.88785(6) 0.16396(6) 1 0 0.05117(18) 
Cl2 Cl1- 4 e 0.31985(5) 0.82717(6) 0.43367(6) 1 0 0.04877(17) 
Cl3 Cl1- 4 e 0.40391(7) 1.09267(7) 0.36429(9) 1 0 0.0718(3) 
Cl4 Cl1- 4 e 0.53046(5) 0.85134(7) 0.31282(8) 1 0 0.0594(2) 
Al2 Al3+ 4 e 0.27907(6) 0.48658(7) 0.32691(7) 1 0 0.04324(19) 
Cl5 Cl1- 4 e 0.35332(5) 0.61366(6) 0.25096(6) 1 0 0.04712(17) 
Cl6 Cl1- 4 e 0.16203(5) 0.59146(6) 0.36525(6) 1 0 0.04515(16) 
Cl7 Cl1- 4 e 0.37711(6) 0.41424(7) 0.47468(8) 1 0 0.0653(2) 
Cl8 Cl1- 4 e 0.20755(6) 0.36518(8) 0.20668(9) 1 0 0.0729(3) 
Al3 Al3+ 4 e -0.02061(6) 0.74750(7) 0.11097(7) 1 0 0.04311(19) 
Cl9 Cl1- 4 e 0.11136(5) 0.66855(6) 0.07536(6) 1 0 0.04852(17) 
Cl10 Cl1- 4 e 0.06021(5) 0.83935(6) 0.26241(6) 1 0 0.04809(17) 
Cl11 Cl1- 4 e -0.12029(6) 0.62390(7) 0.14303(8) 1 0 0.0673(2) 
Cl12 Cl1- 4 e -0.10171(7) 0.85476(7) -0.01814(7) 1 0 0.0662(2) 
Na1 Na1+ 4 e 0.29230(10) 1.20743(14) 0.51786(14) 1 0 0.0805(4) 

loop_
_atom_site_aniso_label
_atom_site_aniso_type_symbol
_atom_site_aniso_U_11
_atom_site_aniso_U_22
_atom_site_aniso_U_33
_atom_site_aniso_U_12
_atom_site_aniso_U_13
_atom_site_aniso_U_23
Ni1 Ni2+ 0.03195(17) 0.04033(19) 0.03559(18) -0.00153(13) 0.00876(13) 
-0.00068(14)
Al1 Al3+ 0.0355(4) 0.0427(5) 0.0487(5) -0.0054(3) 0.0132(3) -0.0021(4)
Cl1 Cl1- 0.0513(4) 0.0567(4) 0.0419(4) -0.0074(3) 0.0062(3) 0.0120(3)
Cl2 Cl1- 0.0452(4) 0.0649(5) 0.0364(3) -0.0139(3) 0.0113(3) -0.0031(3)
Cl3 Cl1- 0.0705(5) 0.0475(5) 0.1055(7) -0.0112(4) 0.0374(5) -0.0176(5)
Cl4 Cl1- 0.0392(4) 0.0675(5) 0.0744(5) 0.0039(3) 0.0204(4) 0.0046(4)
Al2 Al3+ 0.0408(4) 0.0361(4) 0.0528(5) -0.0026(3) 0.0126(4) -0.0006(4)
Cl5 Cl1- 0.0398(3) 0.0454(4) 0.0612(4) 0.0019(3) 0.0221(3) 0.0045(3)
Cl6 Cl1- 0.0454(4) 0.0455(4) 0.0492(4) -0.0005(3) 0.0208(3) 0.0043(3)
Cl7 Cl1- 0.0543(5) 0.0610(5) 0.0757(5) 0.0047(4) 0.0090(4) 0.0197(4)
Cl8 Cl1- 0.0593(5) 0.0688(5) 0.0970(7) -0.0240(4) 0.0323(5) -0.0387(5)
Al3 Al3+ 0.0345(4) 0.0445(5) 0.0465(4) 0.0014(3) 0.0043(3) -0.0069(4)
Cl9 Cl1- 0.0419(4) 0.0616(5) 0.0414(3) 0.0039(3) 0.0102(3) -0.0128(3)
Cl10 Cl1- 0.0404(3) 0.0535(4) 0.0477(4) 0.0051(3) 0.0073(3) -0.0152(3)
Cl11 Cl1- 0.0522(4) 0.0636(5) 0.0859(6) -0.0102(4) 0.0186(4) 0.0016(4)
Cl12 Cl1- 0.0708(5) 0.0546(5) 0.0585(5) 0.0122(4) -0.0079(4) -0.0018(4)
Na1 Na1+ 0.0515(8) 0.0852(10) 0.0969(11) -0.0017(7) 0.0064(7) 0.0210(9)
#End of data_417871-ICSD


