data_166635-ICSD
#?2014 by Fachinformationszentrum Karlsruhe, and the U.S. Secretary of 
#Commerce on behalf of the United States.  All rights reserved.
_database_code_ICSD                166635
_audit_creation_date               2010/08/01
_chemical_name_systematic          'Dipotassium Dichromate'
_chemical_formula_structural       'K2 (Cr2 O7)'
_chemical_formula_sum              'Cr2 K2 O7'
_chemical_name_mineral             Lopezite
_publ_section_title
;
Crystal structure of potassium dichromate K2 Cr2 O7 (Lopezite)
;
loop_
_citation_id
_citation_journal_abbrev
_citation_year
_citation_journal_volume
_citation_journal_issue
_citation_page_first
_citation_page_last
_citation_journal_id_ASTM
primary 'Doklady Akademii Nauk SSSR' 1967 173 5 1068 1071 DANKAS
_publ_author_name
;
Kuz'min, E.A.;Ilyukhin, V.V.;Belov, N.V.
;
_cell_length_a                     7.52
_cell_length_b                     13.40
_cell_length_c                     7.40
_cell_angle_alpha                  98.
_cell_angle_beta                   90.833
_cell_angle_gamma                  96.167
_cell_volume                       733.82
_cell_formula_units_Z              4
_symmetry_space_group_name_H-M     'P -1'
_symmetry_Int_Tables_number        2
_refine_ls_R_factor_all            .161
loop_
_symmetry_equiv_pos_site_id
_symmetry_equiv_pos_as_xyz
  1	'-x, -y, -z'
  2	'x, y, z'
loop_
_atom_type_symbol
_atom_type_oxidation_number
Cr6+	6
K1+	1
O2-	-2
loop_
_atom_site_label
_atom_site_type_symbol
_atom_site_symmetry_multiplicity
_atom_site_Wyckoff_symbol
_atom_site_fract_x
_atom_site_fract_y
_atom_site_fract_z
_atom_site_occupancy
_atom_site_attached_hydrogens
_atom_site_B_iso_or_equiv
Cr1 Cr6+ 2 i 0.192 0.086 0.207 1. 0 1.1 
Cr2 Cr6+ 2 i 0.768 0.108 0.592 1. 0 1.1 
Cr3 Cr6+ 2 i 0.846 0.583 0.188 1. 0 1.1 
Cr4 Cr6+ 2 i 0.574 0.387 0.182 1. 0 1.1 
K1 K1+ 2 i 0.668 0.139 0.104 1. 0 1.4 
K2 K1+ 2 i 0.232 0.152 0.751 1. 0 1.4 
K3 K1+ 2 i 0.344 0.636 0.302 1. 0 1.4 
K4 K1+ 2 i 0.084 0.341 0.340 1. 0 1.4 
O1 O2- 2 i 0.325 0.057 0.030 1. 0 1.7 
O2 O2- 2 i 0.025 0.135 0.136 1. 0 1.7 
O3 O2- 2 i 0.107 0.978 0.290 1. 0 1.7 
O4 O2- 2 i 0.299 0.160 0.358 1. 0 1.7 
O5 O2- 2 i 0.387 0.849 0.291 1. 0 1.7 
O6 O2- 2 i 0.095 0.804 0.450 1. 0 1.7 
O7 O2- 2 i 0.327 0.954 0.583 1. 0 1.7 
O8 O2- 2 i 0.697 0.476 0.067 1. 0 1.7 
O9 O2- 2 i 0.483 0.301 0.047 1. 0 1.7 
O10 O2- 2 i 0.705 0.332 0.301 1. 0 1.7 
O11 O2- 2 i 0.416 0.434 0.306 1. 0 1.7 
O12 O2- 2 i 0.005 0.543 0.313 1. 0 1.7 
O13 O2- 2 i 0.721 0.650 0.324 1. 0 1.7 
O14 O2- 2 i 0.933 0.645 0.037 1. 0 1.7 

#End of data_166635-ICSD


