data_166221-ICSD
#?2014 by Fachinformationszentrum Karlsruhe, and the U.S. Secretary of 
#Commerce on behalf of the United States.  All rights reserved.
_database_code_ICSD                166221
_audit_creation_date               2010/08/01
_chemical_name_systematic          'Calcium Ruthenate(IV)'
_chemical_formula_structural       'Ca (Ru O3)'
_chemical_formula_sum              'Ca1 O3 Ru1'
_publ_section_title
;
Magneto-structural study of a Cr-doped Ca Ru O3
;
loop_
_citation_id
_citation_journal_abbrev
_citation_year
_citation_journal_volume
_citation_page_first
_citation_page_last
_citation_journal_id_ASTM
primary 'Journal of Physics: Condensed Matter' 2009 21 326001-1 326001-6 JCOMEL
_publ_author_name
;
Ranjan, R.;Garg, R.;Senyshyn, A.;Hegde, M.S.;Ehrenberg, H.;Boysen, H.
;
_cell_length_a                     5.3652(3)
_cell_length_b                     5.5310(3)
_cell_length_c                     7.6699(5)
_cell_angle_alpha                  90.
_cell_angle_beta                   90.
_cell_angle_gamma                  90.
_cell_volume                       227.6
_cell_formula_units_Z              4
_symmetry_space_group_name_H-M     'P b n m'
_symmetry_Int_Tables_number        62
loop_
_symmetry_equiv_pos_site_id
_symmetry_equiv_pos_as_xyz
  1	'-x+.5, y+.5, z'
  2	'x, y, -z+.5'
  3	'x+.5, -y+.5, z+.5'
  4	'-x, -y, -z'
  5	'x+.5, -y+.5, -z'
  6	'-x, -y, z+.5'
  7	'-x+.5, y+.5, -z+.5'
  8	'x, y, z'
loop_
_atom_type_symbol
_atom_type_oxidation_number
Ca2+	2
O2-	-2
Ru4+	4
loop_
_atom_site_label
_atom_site_type_symbol
_atom_site_symmetry_multiplicity
_atom_site_Wyckoff_symbol
_atom_site_fract_x
_atom_site_fract_y
_atom_site_fract_z
_atom_site_occupancy
_atom_site_attached_hydrogens
_atom_site_B_iso_or_equiv
Ca1 Ca2+ 4 c 0.483(1) 0.0540(6) 0.250 1. 0 0.40(9) 
Ru1 Ru4+ 4 a 0 0 0 1. 0 0.24(4) 
O1 O2- 4 c 0.593(2) 0.480(3) 0.250 1. 0 0.3(3) 
O2 O2- 8 d 0.203(2) 0.293(2) 0.049(1) 1. 0 0.1(2) 

#End of data_166221-ICSD


