data_249664-ICSD
#?2014 by Fachinformationszentrum Karlsruhe, and the U.S. Secretary of 
#Commerce on behalf of the United States.  All rights reserved.
_database_code_ICSD                249664
_audit_creation_date               2009/02/01
_chemical_name_systematic          'Tribarium Calcium Diantimonate(V)'
_chemical_formula_structural       'Ba3 Ca Sb2 O9'
_chemical_formula_sum              'Ba3 Ca1 O9 Sb2'
_publ_section_title
;
Structures of 6H perovskites Ba3 Ca Sb2 O9 and Ba3 Sr Sb2 O9 
determined by synchrotron X-ray diffraction, neutron powder 
diffraction and ab initio calculations
;
loop_
_citation_id
_citation_journal_abbrev
_citation_year
_citation_journal_volume
_citation_journal_issue
_citation_page_first
_citation_page_last
_citation_journal_id_ASTM
primary 'Acta Crystallographica, Section B: Structural Science'
 2008 64 2 154 159 ASBSDK
_publ_author_name
;
Rowda, B.;Avdeev, M.;Lee, P.L.;Henry, P.F.;Ling, C.-D.
;
_cell_length_a                     5.99898(7)
_cell_length_b                     10.37797(19)
_cell_length_c                     14.8658(3)
_cell_angle_alpha                  90.0
_cell_angle_beta                   91.384(2)
_cell_angle_gamma                  90.0
_cell_volume                       925.23
_cell_formula_units_Z              4
_symmetry_space_group_name_H-M     'C 1 2/c 1'
_symmetry_Int_Tables_number        15
_refine_ls_R_factor_all            .156
loop_
_symmetry_equiv_pos_site_id
_symmetry_equiv_pos_as_xyz
  1	'x, -y, z+.5'
  2	'-x, -y, -z'
  3	'-x, y, -z+.5'
  4	'x, y, z'
  5	'x+.5, -y+.5, z+.5'
  6	'-x+.5, -y+.5, -z'
  7	'-x+.5, y+.5, -z+.5'
  8	'x+.5, y+.5, z'
loop_
_atom_type_symbol
_atom_type_oxidation_number
Ba2+	2
Ca2+	2
O2-	-2
Sb5+	5
loop_
_atom_site_label
_atom_site_type_symbol
_atom_site_symmetry_multiplicity
_atom_site_Wyckoff_symbol
_atom_site_fract_x
_atom_site_fract_y
_atom_site_fract_z
_atom_site_occupancy
_atom_site_attached_hydrogens
_atom_site_U_iso_or_equiv
Ba1 Ba2+ 4 e 0.0 -0.0031(5) 0.25 1.0 0 0.0080(9) 
Ba2 Ba2+ 8 f 0.0095(2) 0.3327(3) 0.09303(9) 1.0 0 0.0221(9) 
Ca1 Ca2+ 4 a 0.0 0.0 0.0 1.0 0 0.0160(9) 
Sb1 Sb5+ 8 f -0.0124(2) 0.3370(4) 0.84609(8) 1.0 0 0.0160(9) 
O1 O2- 4 e 0.0 0.511(3) 0.25 1.0 0 0.013(2) 
O2 O2- 8 f 0.300(3) 0.236(2) 0.2415(8) 1.0 0 0.013(2) 
O3 O2- 8 f 0.031(3) 0.809(2) 0.0875(11) 1.0 0 0.013(2) 
O4 O2- 8 f 0.323(3) 0.0646(18) 0.0777(9) 1.0 0 0.013(2) 
O5 O2- 8 f 0.768(3) 0.074(2) 0.1008(10) 1.0 0 0.013(2) 

#End of data_249664-ICSD


