data_26518-ICSD
#?2014 by Fachinformationszentrum Karlsruhe, and the U.S. Secretary of 
#Commerce on behalf of the United States.  All rights reserved.
_database_code_ICSD                26518
_audit_creation_date               1980/01/01
_audit_update_record               2013/02/01
_chemical_name_systematic          'Silver Diselenobismuthate(III)'
_chemical_formula_structural       'Ag (Bi Se2)'
_chemical_formula_sum              'Ag1 Bi1 Se2'
_chemical_name_mineral             'Bohdanowiczite high'
_publ_section_title
;
Ternary semiconducting compounds with sodium chloride-like structure: 
Ag Sb Se2, Ag Sb Te2, Ag Bi S2, Ag Bi Se2
;
loop_
_citation_id
_citation_journal_abbrev
_citation_year
_citation_journal_volume
_citation_page_first
_citation_page_last
_citation_journal_id_ASTM
primary 'Acta Crystallographica (1,1948-23,1967)' 1959 12 46 54 ACCRA9
2 'Phase Transition' 1992 38 127 220 PHTRDP
3 'Materials Research Bulletin' 1983 18 39 44 MRBUAC
_publ_author_name                  'Geller, S.;Wernick, J.H.'
_cell_length_a                     7.022(10)
_cell_length_b                     7.022(10)
_cell_length_c                     7.022(10)
_cell_angle_alpha                  34.50(33)
_cell_angle_beta                   34.50(33)
_cell_angle_gamma                  34.50(33)
_cell_volume                       99.1
_cell_formula_units_Z              1
_symmetry_space_group_name_H-M     'R -3 m R'
_symmetry_Int_Tables_number        166
loop_
_symmetry_equiv_pos_site_id
_symmetry_equiv_pos_as_xyz
  1	'-z, -y, -x'
  2	'-z, -x, -y'
  3	'-x, -z, -y'
  4	'-y, -z, -x'
  5	'-y, -x, -z'
  6	'-x, -y, -z'
  7	'z, y, x'
  8	'z, x, y'
  9	'x, z, y'
 10	'y, z, x'
 11	'y, x, z'
 12	'x, y, z'
loop_
_atom_type_symbol
_atom_type_oxidation_number
Ag1+	1
Bi3+	3
Se2-	-2
loop_
_atom_site_label
_atom_site_type_symbol
_atom_site_symmetry_multiplicity
_atom_site_Wyckoff_symbol
_atom_site_fract_x
_atom_site_fract_y
_atom_site_fract_z
_atom_site_occupancy
_atom_site_attached_hydrogens
Ag1 Ag1+ 1 a 0 0 0 1. 0 
Bi1 Bi3+ 1 b 0.5 0.5 0.5 1. 0 
Se1 Se2- 2 c 0.26 0.26 0.26 1. 0 

#End of data_26518-ICSD


