data_4185-ICSD
#?2014 by Fachinformationszentrum Karlsruhe, and the U.S. Secretary of 
#Commerce on behalf of the United States.  All rights reserved.
_database_code_ICSD                4185
_audit_creation_date               1980/01/01
_audit_update_record               2012/02/01
_chemical_name_systematic
;
Lithium Lanthanum Bis(molybdate) - Alpha
;
_chemical_formula_structural       'Li La (Mo O4)2'
_chemical_formula_sum              'La1 Li1 Mo2 O8'
_publ_section_title
;
The crystal structure of lithium lanthanum molybdate alpha-Li La (Mo 
O4)2
;
loop_
_citation_id
_citation_journal_abbrev
_citation_year
_citation_journal_volume
_citation_page_first
_citation_page_last
_citation_journal_id_ASTM
primary Kristallografiya 1975 20 746 750 KRISAJ
2 'Soviet Physics, Crystallography (= Kristallografiya)'
 1975 20 456 458 SPHCA6
3 'Phase Transition' 1992 38 127 220 PHTRDP
_publ_author_name                  'Klevtsova, R.F.'
_cell_length_a                     10.09
_cell_length_b                     9.92
_cell_length_c                     13.58
_cell_angle_alpha                  90.
_cell_angle_beta                   90.
_cell_angle_gamma                  90.
_cell_volume                       1359.26
_cell_formula_units_Z              8
_symmetry_space_group_name_H-M     'P b c a'
_symmetry_Int_Tables_number        61
_refine_ls_R_factor_all            .087
loop_
_symmetry_equiv_pos_site_id
_symmetry_equiv_pos_as_xyz
  1	'x+.5, y, -z+.5'
  2	'x, -y+.5, z+.5'
  3	'-x+.5, y+.5, z'
  4	'-x, -y, -z'
  5	'-x+.5, -y, z+.5'
  6	'-x, y+.5, -z+.5'
  7	'x+.5, -y+.5, -z'
  8	'x, y, z'
loop_
_atom_type_symbol
_atom_type_oxidation_number
La3+	3
Li1+	1
Mo6+	6
O2-	-2
loop_
_atom_site_label
_atom_site_type_symbol
_atom_site_symmetry_multiplicity
_atom_site_Wyckoff_symbol
_atom_site_fract_x
_atom_site_fract_y
_atom_site_fract_z
_atom_site_occupancy
_atom_site_attached_hydrogens
_atom_site_B_iso_or_equiv
La1 La3+ 8 c 0.0444 0.1204 0.1239 1. 0 0.79 
Mo1 Mo6+ 8 c 0.7613 0.3659 0.2033 1. 0 0.92 
Mo2 Mo6+ 8 c 0.0808 0.7124 0.0810 1. 0 0.96 
Li1 Li1+ 8 c 0.724 0.087 0.025 1. 0 1.1 
O1 O2- 8 c 0.693 0.299 0.312 1. 0 1.9 
O2 O2- 8 c 0.885 0.479 0.242 1. 0 1.6 
O3 O2- 8 c 0.834 0.25 0.124 1. 0 1.9 
O4 O2- 8 c 0.642 0.455 0.134 1. 0 1.1 
O5 O2- 8 c -.056 0.66 0.01 1. 0 1.3 
O6 O2- 8 c 0.04 0.707 0.203 1. 0 1.6 
O7 O2- 8 c 0.105 0.89 0.047 1. 0 1.1 
O8 O2- 8 c 0.214 0.605 0.06 1. 0 1. 

#End of data_4185-ICSD


