data_33810-ICSD
#?2014 by Fachinformationszentrum Karlsruhe, and the U.S. Secretary of 
#Commerce on behalf of the United States.  All rights reserved.
_database_code_ICSD                33810
_audit_creation_date               1991/07/10
_chemical_name_systematic          'Dicesium Dilithium Titanate'
_chemical_formula_structural       'Cs2 Li2 (Ti O4)'
_chemical_formula_sum              'Cs2 Li2 O4 Ti1'
_publ_section_title
;
Zur Isotypie von Titanaten mit Silicaten: Ueber Cs2Li2(SiO4) und 
Cs2Li2(TiO4)
;
loop_
_citation_id
_citation_journal_abbrev
_citation_year
_citation_journal_volume
_citation_page_first
_citation_page_last
_citation_journal_id_ASTM
primary 'Zeitschrift fuer Anorganische und Allgemeine Chemie (1950) (DE)'
 1991 593 17 34 ZAACAB
_publ_author_name                  'Bernet, K.;Kissel, J.;Hoppe, R.'
_cell_length_a                     9.510(1)
_cell_length_b                     5.945(1)
_cell_length_c                     5.826(1)
_cell_angle_alpha                  93.11(1)
_cell_angle_beta                   110.37(1)
_cell_angle_gamma                  95.04(1)
_cell_volume                       306.32
_cell_formula_units_Z              2
_symmetry_space_group_name_H-M     'P -1'
_symmetry_Int_Tables_number        2
_refine_ls_R_factor_all            .0605
loop_
_symmetry_equiv_pos_site_id
_symmetry_equiv_pos_as_xyz
  1	'-x, -y, -z'
  2	'x, y, z'
loop_
_atom_type_symbol
_atom_type_oxidation_number
Cs1+	1
Li1+	1
O2-	-2
Ti4+	4
loop_
_atom_site_label
_atom_site_type_symbol
_atom_site_symmetry_multiplicity
_atom_site_Wyckoff_symbol
_atom_site_fract_x
_atom_site_fract_y
_atom_site_fract_z
_atom_site_occupancy
_atom_site_attached_hydrogens
Ti1 Ti4+ 2 i 0.2853(2) 0.3184(2) 0.4312(3) 1. 0 
Cs1 Cs1+ 2 i 0.2790(1) 0.8521(1) 0.8158(1) 1. 0 
Cs2 Cs1+ 2 i 0.0168(1) 0.2754(1) 0.8012(1) 1. 0 
Li1 Li1+ 2 i 0.5738(15) 0.5893(17) 0.8779(17) 1. 0 
Li2 Li1+ 2 i 0.5633(15) 0.1724(18) 0.6260(18) 1. 0 
O1 O2- 2 i 0.3880(7) 0.3648(10) 0.7641(10) 1. 0 
O2 O2- 2 i 0.2891(7) 0.5696(9) 0.2708(11) 1. 0 
O3 O2- 2 i 0.3971(7) 0.1374(9) 0.3097(10) 1. 0 
O4 O2- 2 i 0.0937(7) 0.2071(10) 0.3585(11) 1. 0 

loop_
_atom_site_aniso_label
_atom_site_aniso_type_symbol
_atom_site_aniso_U_11
_atom_site_aniso_U_22
_atom_site_aniso_U_33
_atom_site_aniso_U_12
_atom_site_aniso_U_13
_atom_site_aniso_U_23
Ti1 Ti4+ 0.0114(6) 0.0092(5) 0.0092(6) -.0023(5) 0.0033(5) 0.0006(4)
Cs1 Cs1+ 0.0259(3) 0.0174(3) 0.0168(3) 0.0023(2) 0.0046(2) 0.0010(2)
Cs2 Cs1+ 0.0187(3) 0.0216(3) 0.0153(3) 0.0039(2) 0.0045(2) -.0021(2)
Li1 Li1+ 0.0290(21) 0.0151(21) 0.0075(20) -.0005(21) -.0012(20) -.0053(20)
Li2 Li1+ 0.0278(21) 0.0243(21) 0.011(2) -.0077(21) 0.0031(20) 0.001(2)
O1 O2- 0.0227(18) 0.0209(17) 0.0088(16) -.0050(16) 0.0026(15) -.0010(15)
O2 O2- 0.0207(17) 0.0089(16) 0.0223(17) -.0031(15) 0.0014(15) 0.0038(15)
O3 O2- 0.0220(17) 0.0124(16) 0.0096(16) 0.0033(15) 0.0043(15) -.0029(15)
O4 O2- 0.0140(17) 0.0220(17) 0.0199(17) 0.0014(16) 0.0082(15) 0.0031(16)
#End of data_33810-ICSD


