data_380417-ICSD
#?2014 by Fachinformationszentrum Karlsruhe, and the U.S. Secretary of 
#Commerce on behalf of the United States.  All rights reserved.
_database_code_ICSD                380417
_audit_creation_date               2012/08/01
_chemical_name_systematic
;
Tetrapotassium Octaselenotristannate
;
_chemical_formula_structural       'K4 (Sn3 Se8)'
_chemical_formula_sum              'K4 Se8 Sn3'
_publ_section_title
;
Mineralizer effect on the synthesis of two types of one-dimensional 
chains silver-selenogermanate and selenostannate
;
loop_
_citation_id
_citation_journal_abbrev
_citation_year
_citation_journal_volume
_citation_page_first
_citation_page_last
_citation_journal_id_ASTM
primary 'Inorganic Chemistry Communications' 2010 13 1296 1298 ICCOFP
_publ_author_name
;
Yao, Hua Gang;Zhang, Ren Chun;Ji, Shou Hua;Ji, Min;An, Yong Lin;Ning, 
Gui Ling
;
_cell_length_a                     8.214
_cell_length_b                     27.7945(11)
_cell_length_c                     8.2136(4)
_cell_angle_alpha                  90.
_cell_angle_beta                   90.
_cell_angle_gamma                  90.
_cell_volume                       1875.2
_cell_formula_units_Z              4
_symmetry_space_group_name_H-M     'C c c a Z'
_symmetry_Int_Tables_number        68
_refine_ls_R_factor_all            .0408
loop_
_symmetry_equiv_pos_site_id
_symmetry_equiv_pos_as_xyz
  1	'x, y+.5, -z'
  2	'-x+.5, y+.5, -z+.5'
  3	'x+.5, -y, -z+.5'
  4	'-x, -y, -z'
  5	'-x, -y+.5, z'
  6	'x+.5, -y+.5, z+.5'
  7	'-x+.5, y, z+.5'
  8	'x, y, z'
  9	'x+.5, y, -z'
 10	'-x, y, -z+.5'
 11	'x, -y+.5, -z+.5'
 12	'-x+.5, -y+.5, -z'
 13	'-x+.5, -y, z'
 14	'x, -y, z+.5'
 15	'-x, y+.5, z+.5'
 16	'x+.5, y+.5, z'
loop_
_atom_type_symbol
_atom_type_oxidation_number
K1+	1
Se2-	-2
Sn4+	4
loop_
_atom_site_label
_atom_site_type_symbol
_atom_site_symmetry_multiplicity
_atom_site_Wyckoff_symbol
_atom_site_fract_x
_atom_site_fract_y
_atom_site_fract_z
_atom_site_occupancy
_atom_site_attached_hydrogens
_atom_site_U_iso_or_equiv
Sn1 Sn4+ 4 b 0.0000 0.2500 0.7500 1 0 0.0184(3) 
Se1 Se2- 16 i 0.16248(10) 0.18972(2) 0.91245(7) 1 0 0.0202(3) 
Sn2 Sn4+ 8 f 0.0000 0.12400(2) 0.7500 1 0 0.0170(3) 
Se2 Se2- 16 i 0.18133(9) 0.07729(2) 0.56853(7) 1 0 0.0201(3) 
K1 K1+ 8 f 0.5000 0.14569(9) 0.7500 1 0 0.0274(6) 
K2 K1+ 8 f 0.0000 -0.01663(9) 0.7500 1 0 0.0308(6) 

loop_
_atom_site_aniso_label
_atom_site_aniso_type_symbol
_atom_site_aniso_U_11
_atom_site_aniso_U_22
_atom_site_aniso_U_33
_atom_site_aniso_U_12
_atom_site_aniso_U_13
_atom_site_aniso_U_23
Sn1 Sn4+ 0.0261(7) 0.0041(6) 0.0252(5) 0.000 0.000 0.000
Se1 Se2- 0.0247(6) 0.0114(5) 0.0244(5) 0.0000(2) -0.0027(3) 0.0004(2)
Sn2 Sn4+ 0.0234(6) 0.0047(5) 0.0230(4) 0.000 0.0043(2) 0.000
Se2 Se2- 0.0234(6) 0.0129(5) 0.0240(4) 0.0024(3) 0.0031(2) -0.0018(2)
K1 K1+ 0.0271(14) 0.0277(15) 0.0274(10) 0.000 -0.0010(8) 0.000
K2 K1+ 0.0404(17) 0.0149(13) 0.0372(12) 0.000 0.0067(9) 0.000
#End of data_380417-ICSD


