data_150877-ICSD
#?2014 by Fachinformationszentrum Karlsruhe, and the U.S. Secretary of 
#Commerce on behalf of the United States.  All rights reserved.
_database_code_ICSD                150877
_audit_creation_date               2006/04/01
_chemical_name_systematic
;
Calcium Zirconium Bis(phosphate(V))
;
_chemical_formula_structural       'Ca Zr (P O4)2'
_chemical_formula_sum              'Ca1 O8 P2 Zr1'
_publ_section_title
;
Crystal structure of calcium zirconium diorthophosphate, Ca Zr (P 
O4)2
;
loop_
_citation_id
_citation_journal_abbrev
_citation_year
_citation_journal_volume
_citation_page_first
_citation_page_last
_citation_journal_id_ASTM
primary 'Powder Diffraction' 2003 18 296 300 PODIE2
_publ_author_name                  'Fukuda, K.;Fukutani, K.'
_cell_length_a                     14.4876(4)
_cell_length_b                     6.7213(1)
_cell_length_c                     6.2347(2)
_cell_angle_alpha                  90.
_cell_angle_beta                   90.
_cell_angle_gamma                  90.
_cell_volume                       607.11
_cell_formula_units_Z              4
_symmetry_space_group_name_H-M     'P 21 21 21'
_symmetry_Int_Tables_number        19
_refine_ls_R_factor_all            .0243
loop_
_symmetry_equiv_pos_site_id
_symmetry_equiv_pos_as_xyz
  1	'-x, y+.5, -z+.5'
  2	'x+.5, -y+.5, -z'
  3	'-x+.5, -y, z+.5'
  4	'x, y, z'
loop_
_atom_type_symbol
_atom_type_oxidation_number
Ca2+	2
O2-	-2
P5+	5
Zr4+	4
loop_
_atom_site_label
_atom_site_type_symbol
_atom_site_symmetry_multiplicity
_atom_site_Wyckoff_symbol
_atom_site_fract_x
_atom_site_fract_y
_atom_site_fract_z
_atom_site_occupancy
_atom_site_attached_hydrogens
_atom_site_B_iso_or_equiv
Ca1 Ca2+ 4 a 0.6467(1) -0.002(2) 0.6990(3) 1. 0 0.32(5) 
Zr1 Zr4+ 4 a 0.8908(1) 0.501(1) 0.9253(1) 1. 0 0.31(2) 
P1 P5+ 4 a 0.6466(2) 0.505(2) 0.8838(4) 1. 0 0.25(7) 
P2 P5+ 4 a 0.8827(2) 0.000(3) 0.7072(4) 1. 0 0.31(5) 
O1 O2- 4 a 0.7496(4) 0.480(2) 0.9192(8) 1. 0 0.3(1) 
O2 O2- 4 a 0.5941(4) 0.512(3) 0.084(1) 1. 0 0.4(1) 
O3 O2- 4 a 0.6104(8) 0.677(2) 0.729(2) 1. 0 0.5(3) 
O4 O2- 4 a 0.6287(8) 0.329(2) 0.738(2) 1. 0 0.2(3) 
O5 O2- 4 a 0.7951(4) -0.028(2) 0.570(1) 1. 0 0.6(2) 
O6 O2- 4 a 0.8952(9) 0.186(3) 0.854(3) 1. 0 0.3(3) 
O7 O2- 4 a 0.8861(9) -0.179(3) 0.868(3) 1. 0 0.3(2) 
O8 O2- 4 a -0.0335(4) 0.002(4) 0.5529(9) 1. 0 0.3(1) 

#End of data_150877-ICSD


