data_167295-ICSD
#?2014 by Fachinformationszentrum Karlsruhe, and the U.S. Secretary of 
#Commerce on behalf of the United States.  All rights reserved.
_database_code_ICSD                167295
_audit_creation_date               2010/08/01
_chemical_name_systematic          'Dialuminium Oxide Silicate'
_chemical_formula_structural       'Al2 O (Si O4)'
_chemical_formula_sum              'Al2 O5 Si1'
_chemical_name_mineral             Kyanite
_publ_section_title
;
Plastic deformations in kyanites by tectonometamorphic processes: a 
single-crystal X-ray diffraction study
;
loop_
_citation_id
_citation_journal_abbrev
_citation_year
_citation_journal_volume
_citation_journal_issue
_citation_page_first
_citation_page_last
_citation_journal_id_ASTM
primary 'Mineralogical Magazine (1969-)' 2009 73 3 359 371 MNLMBB
_publ_author_name
;
Gatta, G.D.;Rotiroti, N.;Zucali, M.
;
_cell_length_a                     7.1280(11)
_cell_length_b                     7.8550(11)
_cell_length_c                     5.5770(8)
_cell_angle_alpha                  90.050(10)
_cell_angle_beta                   101.120(13)
_cell_angle_gamma                  105.980(13)
_cell_volume                       294.07
_cell_formula_units_Z              4
_symmetry_space_group_name_H-M     'P -1'
_symmetry_Int_Tables_number        2
_refine_ls_R_factor_all            .0493
loop_
_symmetry_equiv_pos_site_id
_symmetry_equiv_pos_as_xyz
  1	'-x, -y, -z'
  2	'x, y, z'
loop_
_atom_type_symbol
_atom_type_oxidation_number
Al3+	3
O2-	-2
Si4+	4
loop_
_atom_site_label
_atom_site_type_symbol
_atom_site_symmetry_multiplicity
_atom_site_Wyckoff_symbol
_atom_site_fract_x
_atom_site_fract_y
_atom_site_fract_z
_atom_site_occupancy
_atom_site_attached_hydrogens
_atom_site_U_iso_or_equiv
Al1 Al3+ 2 i 0.3249(2) 0.7040(1) 0.4580(2) 1. 0 0.0113(4) 
Al2 Al3+ 2 i 0.2980(1) 0.6988(1) 0.9507(2) 1. 0 0.0091(4) 
Al3 Al3+ 2 i 0.1004(1) 0.3863(1) 0.6409(2) 1. 0 0.0046(2) 
Al4 Al3+ 2 i 0.1125(2) 0.9176(1) 0.1649(2) 1. 0 0.0108(4) 
Si1 Si4+ 2 i 0.2961(1) 0.0647(1) 0.7057(2) 1. 0 0.0107(4) 
Si2 Si4+ 2 i 0.2914(1) 0.3319(1) 0.1900(2) 1. 0 0.0110(4) 
O1 O2- 2 i 0.1090(4) 0.1469(3) 0.1286(5) 1. 0 0.0115(9) 
O2 O2- 2 i 0.1227(4) 0.6854(3) 0.1800(5) 1. 0 0.0099(8) 
O3 O2- 2 i 0.2749(4) 0.4538(3) 0.9542(5) 1. 0 0.0111(9) 
O4 O2- 2 i 0.2852(4) 0.9365(3) 0.9369(5) 1. 0 0.0120(9) 
O5 O2- 2 i 0.1091(3) 0.1527(3) 0.6686(5) 1. 0 0.0100(9) 
O6 O2- 2 i 0.1222(3) 0.6307(3) 0.6398(5) 1. 0 0.0098(8) 
O7 O2- 2 i 0.2818(4) 0.4444(3) 0.4288(5) 1. 0 0.0098(9) 
O8 O2- 2 i 0.2902(3) 0.9473(3) 0.4653(5) 1. 0 0.0088(8) 
O9 O2- 2 i 0.5006(3) 0.2749(3) 0.2433(5) 1. 0 0.0115(9) 
O10 O2- 2 i 0.5014(3) 0.2302(3) 0.7556(5) 1. 0 0.0125(9) 

loop_
_atom_site_aniso_label
_atom_site_aniso_type_symbol
_atom_site_aniso_U_11
_atom_site_aniso_U_22
_atom_site_aniso_U_33
_atom_site_aniso_U_12
_atom_site_aniso_U_13
_atom_site_aniso_U_23
Al1 Al3+ 0.0163(5) 0.0048(5) 0.0143(7) 0.0045(4) 0.0043(5) 0.0017(4)
Al2 Al3+ 0.0141(5) 0.0024(4) 0.0124(7) 0.0038(4) 0.0039(5) 0.0005(4)
Al3 Al3+ 0.0140(5) 0.0026(5) 0.0162(7) 0.0035(5) 0.0007(4) 0.0006(4)
Al4 Al3+ 0.0155(5) 0.0036(5) 0.0155(7) 0.0047(4) 0.0050(4) 0.0011(4)
Si1 Si4+ 0.0147(5) 0.0034(4) 0.0153(7) 0.0043(4) 0.0038(4) 0.0011(4)
Si2 Si4+ 0.0144(5) 0.0038(4) 0.0164(7) 0.0044(4) 0.0044(4) 0.0021(4)
O1 O2- 0.016(1) 0.005(1) 0.015(2) 0.005(1) 0.005(1) 0.0002(9)
O2 O2- 0.015(1) 0.005(1) 0.010(2) 0.0038(9) 0.003(1) 0.0001(9)
O3 O2- 0.017(1) 0.004(1) 0.013(2) 0.0041(9) 0.003(1) 0.001(1)
O4 O2- 0.020(1) 0.006(1) 0.014(2) 0.007(1) 0.007(1) 0.003(1)
O5 O2- 0.016(1) 0.004(1) 0.011(2) 0.0040(9) 0.004(1) -0.002(1)
O6 O2- 0.012(1) 0.003(1) 0.016(2) 0.0038(9) 0.003(1) -0.001(1)
O7 O2- 0.016(1) 0.002(1) 0.014(2) 0.0031(9) 0.008(1) -0.0008(9)
O8 O2- 0.012(1) 0.004(1) 0.011(2) 0.0027(9) 0.003(1) -0.002(1)
O9 O2- 0.014(1) 0.005(1) 0.015(2) 0.0036(9) 0.003(1) 0.001(1)
O10 O2- 0.013(1) 0.005(1) 0.021(2) 0.0041(9) 0.005(1) 0.001(1)
#End of data_167295-ICSD


