data_41118-ICSD
#?2014 by Fachinformationszentrum Karlsruhe, and the U.S. Secretary of 
#Commerce on behalf of the United States.  All rights reserved.
_database_code_ICSD                41118
_audit_creation_date               1999/11/30
_audit_update_record               2012/02/01
_chemical_name_systematic
;
Tetrapotassium Octadecachlorohexaniobate
;
_chemical_formula_structural       'K4 (Nb6 Cl18)'
_chemical_formula_sum              'Cl18 K4 Nb6'
_publ_section_title
;
K4 Nb6 Cl18, Darstellung, Eigenschaften und Struktur
;
loop_
_citation_id
_citation_journal_abbrev
_citation_year
_citation_journal_volume
_citation_page_first
_citation_page_last
_citation_journal_id_ASTM
primary 'Zeitschrift fuer Anorganische und Allgemeine Chemie (1950) (DE)'
 1968 361 235 246 ZAACAB
_publ_author_name
;
Simon, A.;von Schnering, H.G.;Schaefer, H.
;
_cell_length_a                     9.97(3)
_cell_length_b                     16.510(50)
_cell_length_c                     9.47(3)
_cell_angle_alpha                  90.
_cell_angle_beta                   115.0(5)
_cell_angle_gamma                  90.
_cell_volume                       1412.76
_cell_formula_units_Z              2
_symmetry_space_group_name_H-M     'C 1 2/m 1'
_symmetry_Int_Tables_number        12
_refine_ls_R_factor_all            .098
loop_
_symmetry_equiv_pos_site_id
_symmetry_equiv_pos_as_xyz
  1	'-x, y, -z'
  2	'-x, -y, -z'
  3	'x, -y, z'
  4	'x, y, z'
  5	'-x+.5, y+.5, -z'
  6	'-x+.5, -y+.5, -z'
  7	'x+.5, -y+.5, z'
  8	'x+.5, y+.5, z'
loop_
_atom_type_symbol
_atom_type_oxidation_number
Cl1-	-1
K1+	1
Nb2+	2
Nb3+	3
loop_
_atom_site_label
_atom_site_type_symbol
_atom_site_symmetry_multiplicity
_atom_site_Wyckoff_symbol
_atom_site_fract_x
_atom_site_fract_y
_atom_site_fract_z
_atom_site_occupancy
_atom_site_attached_hydrogens
Nb1 Nb3+ 4 i 0.1210(5) 0 0.8700(5) 1. 0 
Nb2 Nb2+ 8 j 0.1370(5) 0.0880(3) 0.1430(5) 1. 0 
Cl1 Cl1- 4 i 0.323(2) 0 0.351(2) 1. 0 
Cl2 Cl1- 4 g 0 0.209(1) 0 1. 0 
Cl3 Cl1- 8 j 0.304(2) 0.107(1) 0.013(2) 1. 0 
Cl4 Cl1- 8 j 0.020(2) 0.106(1) 0.321(2) 1. 0 
Cl5 Cl1- 4 i 0.269(2) 0 0.708(2) 1. 0 
Cl6 Cl1- 8 j 0.311(2) 0.203(1) 0.323(2) 1. 0 
K1 K1+ 8 j 0.388(2) 0.163(1) 0.673(2) 1. 0 

#End of data_41118-ICSD


