data_85135-ICSD
#?2014 by Fachinformationszentrum Karlsruhe, and the U.S. Secretary of 
#Commerce on behalf of the United States.  All rights reserved.
_database_code_ICSD                85135
_audit_creation_date               1999/06/02
_audit_update_record               2014/08/01
_chemical_name_systematic          'Disilver Tellurium Sulfide'
_chemical_formula_structural       'Ag2 Te S3'
_chemical_formula_sum              'Ag2 S3 Te1'
_publ_section_title
;
Crystal structure of Ag2 Te S3 and Na (Na1-x Agx) Te S3 (x = 0.5) and 
the geometry of Te(IV) S3 polyhedra
;
loop_
_citation_id
_citation_journal_abbrev
_citation_year
_citation_journal_volume
_citation_page_first
_citation_page_last
_citation_journal_id_ASTM
primary 'Monatshefte fuer Chemie' 1997 128 157 163 MOCMB7
_publ_author_name                  'Pertlik, F.'
_cell_length_a                     6.783(1)
_cell_length_b                     11.567(2)
_cell_length_c                     7.693(1)
_cell_angle_alpha                  90.
_cell_angle_beta                   114.44(1)
_cell_angle_gamma                  90.
_cell_volume                       549.5
_cell_formula_units_Z              4
_symmetry_space_group_name_H-M     'C 1 c 1'
_symmetry_Int_Tables_number        9
_refine_ls_R_factor_all            .044
loop_
_symmetry_equiv_pos_site_id
_symmetry_equiv_pos_as_xyz
  1	'x, -y, z+.5'
  2	'x, y, z'
  3	'x+.5, -y+.5, z+.5'
  4	'x+.5, y+.5, z'
loop_
_atom_type_symbol
_atom_type_oxidation_number
Ag1+	1
S2-	-2
Te4+	4
loop_
_atom_site_label
_atom_site_type_symbol
_atom_site_symmetry_multiplicity
_atom_site_Wyckoff_symbol
_atom_site_fract_x
_atom_site_fract_y
_atom_site_fract_z
_atom_site_occupancy
_atom_site_attached_hydrogens
Te1 Te4+ 4 a 0.2 0.4013(1) 0.6 1. 0 
Ag1 Ag1+ 4 a 0.7095(2) 0.7749(1) 0.1308(2) 1. 0 
Ag2 Ag1+ 4 a 0.7133(2) 0.4373(1) 0.0940(2) 1. 0 
S1 S2- 4 a 0.4587(4) 0.0449(2) 0.4028(4) 1. 0 
S2 S2- 4 a 0.4827(5) 0.2622(2) 0.9691(4) 1. 0 
S3 S2- 4 a 0.9370(4) 0.8801(2) 0.4443(4) 1. 0 

loop_
_atom_site_aniso_label
_atom_site_aniso_type_symbol
_atom_site_aniso_U_11
_atom_site_aniso_U_22
_atom_site_aniso_U_33
_atom_site_aniso_U_12
_atom_site_aniso_U_13
_atom_site_aniso_U_23
Te1 Te4+ 0.0200(2) 0.0186(2) 0.0177(2) 0.0006(2) 0.0045(1) -.0009(1)
Ag1 Ag1+ 0.0360(5) 0.0386(5) 0.0374(8) -.0052(3) 0.0082(5) -.0038(2)
Ag2 Ag1+ 0.0345(6) 0.0368(6) 0.0421(6) -.0072(4) 0.0096(3) -.0019(2)
S1 S2- 0.0238(10) 0.0193(10) 0.0237(10) 0.0017(5) 0.0059(6) 0.0005(3)
S2 S2- 0.0221(11) 0.0212(11) 0.0264(11) 0.0009(6) 0.0034(6) 0.0014(3)
S3 S2- 0.0217(10) 0.0215(9) 0.0265(10) -.0006(5) 0.0076(6) -.0006(3)
#End of data_85135-ICSD


