data_280942-ICSD
#?2014 by Fachinformationszentrum Karlsruhe, and the U.S. Secretary of 
#Commerce on behalf of the United States.  All rights reserved.
_database_code_ICSD                280942
_audit_creation_date               2003/04/01
_audit_update_record               2012/08/01
_chemical_name_systematic          'Potassium Chlorotrioxochromate(VI)'
_chemical_formula_structural       'K (Cr O3 Cl)'
_chemical_formula_sum              'Cl1 Cr1 K1 O3'
_publ_section_title
;
Redetermination of potassium chlorochromate, K Cr O3 Cl
;
loop_
_citation_id
_citation_journal_abbrev
_citation_year
_citation_journal_volume
_citation_page_first
_citation_page_last
_citation_journal_id_ASTM
primary 'Acta Crystallographica, Section E. Structure Reports Online'
 2002 58 105 107 ACSEBH
2 'Golden Book of Phase Transitions, Wroclaw' 2002 1 1 123 GBOPT5
_publ_author_name                  'Kolitsch, U.'
_cell_length_a                     7.838(2)
_cell_length_b                     7.493(1)
_cell_length_c                     7.812(2)
_cell_angle_alpha                  90.
_cell_angle_beta                   91.40(3)
_cell_angle_gamma                  90.
_cell_volume                       458.66
_cell_formula_units_Z              4
_symmetry_space_group_name_H-M     'P 1 21/c 1'
_symmetry_Int_Tables_number        14
_refine_ls_R_factor_all            .028
loop_
_symmetry_equiv_pos_site_id
_symmetry_equiv_pos_as_xyz
  1	'x, -y+.5, z+.5'
  2	'-x, -y, -z'
  3	'-x, y+.5, -z+.5'
  4	'x, y, z'
loop_
_atom_type_symbol
_atom_type_oxidation_number
Cl1-	-1
Cr6+	6
K1+	1
O2-	-2
loop_
_atom_site_label
_atom_site_type_symbol
_atom_site_symmetry_multiplicity
_atom_site_Wyckoff_symbol
_atom_site_fract_x
_atom_site_fract_y
_atom_site_fract_z
_atom_site_occupancy
_atom_site_attached_hydrogens
_atom_site_U_iso_or_equiv
K1 K1+ 4 e 0.30127(8) 0.63961(7) 0.86872(6) 1. 0 0.03601(19) 
Cr1 Cr6+ 4 e 0.28241(5) 0.12435(4) 0.87486(4) 1. 0 0.02481(16) 
Cl1 Cl1- 4 e 0.04765(8) 0.28306(8) 0.85952(8) 1. 0 0.0406(2) 
O1 O2- 4 e 0.4366(2) 0.2626(2) 0.8906(3) 1. 0 0.0479(5) 
O2 O2- 4 e 0.2965(2) 0.0072(2) 0.7049(2) 1. 0 0.0457(5) 
O3 O2- 4 e 0.2764(3) -.0052(2) 1.0374(2) 1. 0 0.0493(5) 

loop_
_atom_site_aniso_label
_atom_site_aniso_type_symbol
_atom_site_aniso_U_11
_atom_site_aniso_U_22
_atom_site_aniso_U_33
_atom_site_aniso_U_12
_atom_site_aniso_U_13
_atom_site_aniso_U_23
K1 K1+ 0.0489(4) 0.0303(3) 0.0287(3) -0.0019(2) -0.0029(3) -0.00078(18)
Cr1 Cr6+ 0.0256(3) 0.0236(2) 0.0252(2) -0.00018(13) 0.00016(17) 
-0.00001(12)
Cl1 Cl1- 0.0309(3) 0.0416(4) 0.0491(4) 0.0069(2) -0.0001(3) -0.0004(3)
O1 O2- 0.0342(10) 0.0367(10) 0.0724(13) -0.0082(8) -0.0048(9) -0.0026(9)
O2 O2- 0.0501(12) 0.0480(11) 0.0388(9) 0.0106(9) -0.0010(8) -0.0146(8)
O3 O2- 0.0530(12) 0.0519(12) 0.0435(10) 0.0119(9) 0.0096(9) 0.0195(9)
#End of data_280942-ICSD


