data_61680-ICSD
#?2014 by Fachinformationszentrum Karlsruhe, and the U.S. Secretary of 
#Commerce on behalf of the United States.  All rights reserved.
_database_code_ICSD                61680
_audit_creation_date               1986/12/03
_audit_update_record               2012/08/01
_chemical_name_systematic          'Trithallium Silver Ditelluride'
_chemical_formula_structural       'Tl3 Ag Te2'
_chemical_formula_sum              'Ag1 Te2 Tl3'
_publ_section_title
;
Darstellung und Kristallstruktur von Tl3 Ag Te2
;
loop_
_citation_id
_citation_journal_abbrev
_citation_year
_citation_journal_volume
_citation_page_first
_citation_page_last
_citation_journal_id_ASTM
primary
;
Zeitschrift fuer Naturforschung, Teil B. Anorganische Chemie, 
Organische Chemie (33,1978-41,1986)
;
 1986 41 941 945 ZNBAD2
_publ_author_name                  'Klepp, K.O.'
_cell_length_a                     11.020(5)
_cell_length_b                     7.427(2)
_cell_length_c                     9.888(3)
_cell_angle_alpha                  90.
_cell_angle_beta                   116.62(4)
_cell_angle_gamma                  90.
_cell_volume                       723.5
_cell_formula_units_Z              4
_symmetry_space_group_name_H-M     'P 1 21/c 1'
_symmetry_Int_Tables_number        14
_refine_ls_R_factor_all            .083
loop_
_symmetry_equiv_pos_site_id
_symmetry_equiv_pos_as_xyz
  1	'x, -y+.5, z+.5'
  2	'-x, -y, -z'
  3	'-x, y+.5, -z+.5'
  4	'x, y, z'
loop_
_atom_type_symbol
_atom_type_oxidation_number
Ag1+	1
Te2-	-2
Tl1+	1
loop_
_atom_site_label
_atom_site_type_symbol
_atom_site_symmetry_multiplicity
_atom_site_Wyckoff_symbol
_atom_site_fract_x
_atom_site_fract_y
_atom_site_fract_z
_atom_site_occupancy
_atom_site_attached_hydrogens
Tl1 Tl1+ 4 e 0.2163(3) 0.0156(5) 0.0107(3) 1. 0 
Tl2 Tl1+ 4 e 0.4121(3) 0.2842(5) 0.3316(3) 1. 0 
Tl3 Tl1+ 4 e 0.2356(3) 0.0088(5) 0.4674(2) 1. 0 
Ag1 Ag1+ 4 e 0.9070(6) 0.1690(9) 0.3259(6) 1. 0 
Te1 Te2- 4 e 0.0380(4) 0.2345(7) 0.6458(4) 1. 0 
Te2 Te2- 4 e 0.6242(4) 0.2646(8) 0.6888(4) 1. 0 

loop_
_atom_site_aniso_label
_atom_site_aniso_type_symbol
_atom_site_aniso_U_11
_atom_site_aniso_U_22
_atom_site_aniso_U_33
_atom_site_aniso_U_12
_atom_site_aniso_U_13
_atom_site_aniso_U_23
Tl1 Tl1+ 0.038(1) 0.032(2) 0.023(1) -.003(1) 0.0089(8) -.005(2)
Tl2 Tl1+ 0.032(1) 0.056(2) 0.018(1) -.003(2) 0.0095(8) 0.001(1)
Tl3 Tl1+ 0.037(1) 0.026(1) 0.027(1) -.002(1) 0.0145(7) -.001(1)
Ag1 Ag1+ 0.030(3) 0.075(5) 0.022(2) 0.006(3) 0.011(2) -.001(3)
Te1 Te2- 0.018(2) 0.029(3) 0.009(1) 0.004(2) 0.006(1) -.005(2)
Te2 Te2- 0.029(2) 0.038(3) 0.010(1) 0.007(2) 0.008(1) -.006(2)
#End of data_61680-ICSD


