data_15805-ICSD
#?2014 by Fachinformationszentrum Karlsruhe, and the U.S. Secretary of 
#Commerce on behalf of the United States.  All rights reserved.
_database_code_ICSD                15805
_audit_creation_date               1984/09/11
_audit_update_record               2006/04/01
_chemical_name_systematic          'Magnesium Catena-silicate - Gamma'
_chemical_formula_structural       'Mg (Si O3)'
_chemical_formula_sum              'Mg1 O3 Si1'
_publ_section_title
;
Gitterkonstanten, Raumgruppe und Parameter des gamma-Mg Si O3
;
loop_
_citation_id
_citation_journal_abbrev
_citation_year
_citation_journal_volume
_citation_page_first
_citation_page_last
_citation_journal_id_ASTM
primary Naturwissenschaften 1961 48 428 429 NATWAY
_publ_author_name                  'Lindemann, W.'
_cell_length_a                     9.681(5)
_cell_length_b                     8.739(5)
_cell_length_c                     5.202(5)
_cell_angle_alpha                  90.
_cell_angle_beta                   71.92(8)
_cell_angle_gamma                  90.
_cell_volume                       418.37
_cell_formula_units_Z              8
_symmetry_space_group_name_H-M     'P 1 21/n 1'
_symmetry_Int_Tables_number        14
loop_
_symmetry_equiv_pos_site_id
_symmetry_equiv_pos_as_xyz
  1	'-x+.5, y+.5, -z+.5'
  2	'-x, -y, -z'
  3	'x+.5, -y+.5, z+.5'
  4	'x, y, z'
loop_
_atom_type_symbol
_atom_type_oxidation_number
Mg2+	2
O2-	-2
Si4+	4
loop_
_atom_site_label
_atom_site_type_symbol
_atom_site_symmetry_multiplicity
_atom_site_Wyckoff_symbol
_atom_site_fract_x
_atom_site_fract_y
_atom_site_fract_z
_atom_site_occupancy
_atom_site_attached_hydrogens
Mg1 Mg2+ 4 e 0 -.31 0.2 1. 0 
Mg2 Mg2+ 4 e 0 0.091 0.25 1. 0 
Si1 Si4+ 4 e 0.21 0.41 0.201 1. 0 
Si2 Si4+ 4 e -.21 0.41 0.299 1. 0 
O1 O2- 4 e 0.4 0.42 0.1 1. 0 
O2 O2- 4 e -.4 0.42 0.4 1. 0 
O3 O2- 4 e 0.138 0.25 0.341 1. 0 
O4 O2- 4 e -.138 0.25 0.159 1. 0 
O5 O2- 4 e 0.15 0.49 -.05 1. 0 
O6 O2- 4 e -.15 0.49 -.45 1. 0 

#End of data_15805-ICSD


