data_15579-ICSD
#?2014 by Fachinformationszentrum Karlsruhe, and the U.S. Secretary of 
#Commerce on behalf of the United States.  All rights reserved.
_database_code_ICSD                15579
_audit_creation_date               1981/12/31
_chemical_name_systematic          'Sodium Hexatelluroduo-disilicate'
_chemical_formula_structural       'Na6 Si2 Te6'
_chemical_formula_sum              'Na6 Si2 Te6'
_publ_section_title
;
Na6 Si2 Te6 - a new tellurohypodisilicate
;
loop_
_citation_id
_citation_journal_abbrev
_citation_year
_citation_journal_volume
_citation_page_first
_citation_page_last
_citation_journal_id_ASTM
primary
;
Zeitschrift fuer Naturforschung, Teil B. Anorganische Chemie, 
Organische Chemie (33,1978-41,1986)
;
 1981 36 1538 1541 ZNBAD2
_publ_author_name
;
Eisenmann, B.;Schwerer, H.;Schaefer, H.
;
_cell_length_a                     8.786(3)
_cell_length_b                     12.780(4)
_cell_length_c                     8.864(3)
_cell_angle_alpha                  90.
_cell_angle_beta                   119.71(5)
_cell_angle_gamma                  90.
_cell_volume                       864.46
_cell_formula_units_Z              2
_symmetry_space_group_name_H-M     'P 1 21/c 1'
_symmetry_Int_Tables_number        14
_refine_ls_R_factor_all            .0643
loop_
_symmetry_equiv_pos_site_id
_symmetry_equiv_pos_as_xyz
  1	'x, -y+.5, z+.5'
  2	'-x, -y, -z'
  3	'-x, y+.5, -z+.5'
  4	'x, y, z'
loop_
_atom_type_symbol
_atom_type_oxidation_number
Na1+	1
Si3+	3
Te2-	-2
loop_
_atom_site_label
_atom_site_type_symbol
_atom_site_symmetry_multiplicity
_atom_site_Wyckoff_symbol
_atom_site_fract_x
_atom_site_fract_y
_atom_site_fract_z
_atom_site_occupancy
_atom_site_attached_hydrogens
_atom_site_U_iso_or_equiv
Te1 Te2- 4 e 0.7459(1) 0.1887(1) 0.8865(1) 1. 0 0 
Te2 Te2- 4 e 0.8511(1) 0.9744(1) 0.6072(1) 1. 0 0 
Te3 Te2- 4 e 0.6718(1) 0.8735(1) 0.9284(1) 1. 0 0 
Si1 Si3+ 4 e 0.8549(4) 0.0077(2) 0.8867(4) 1. 0 0.0186(6) 
Na1 Na1+ 4 e 0.5053(9) 0.3459(6) 0.9872(9) 1. 0 0.0464(15) 
Na2 Na1+ 4 e 0.2750(9) 0.9355(6) 0.7944(9) 1. 0 0.0477(16) 
Na3 Na1+ 4 e 0.0396(12) 0.2760(8) 0.2307(12) 1. 0 0.0694(23) 

loop_
_atom_site_aniso_label
_atom_site_aniso_type_symbol
_atom_site_aniso_U_11
_atom_site_aniso_U_22
_atom_site_aniso_U_33
_atom_site_aniso_U_12
_atom_site_aniso_U_13
_atom_site_aniso_U_23
Te1 Te2- 0.0334(4) 0.0189(4) 0.0343(4) 0.0077(3) 0.0212(4) 0.0014(3)
Te2 Te2- 0.0329(4) 0.0299(4) 0.0284(4) 0.0039(3) 0.0205(4) -.0006(3)
Te3 Te2- 0.0232(4) 0.0298(4) 0.0440(5) -.0065(3) 0.0164(4) 0.0103(4)
#End of data_15579-ICSD


