data_92918-ICSD
#?2014 by Fachinformationszentrum Karlsruhe, and the U.S. Secretary of 
#Commerce on behalf of the United States.  All rights reserved.
_database_code_ICSD                92918
_audit_creation_date               2003/04/01
_chemical_name_systematic
;
Heptamagnesium Bis(phosphate(V)) Octahydroxide
;
_chemical_formula_structural       'Mg7 (P O4)2 (O H)8'
_chemical_formula_sum              'H8 Mg7 O16 P2'
_chemical_name_mineral             Raadeite
_publ_section_title
;
Raadeite, Mg7 (P O4)2 (O H)8: a new dense-packed phosphate from Modum 
(Norway)
;
loop_
_citation_id
_citation_journal_abbrev
_citation_year
_citation_journal_volume
_citation_page_first
_citation_page_last
_citation_journal_id_ASTM
primary 'European Journal of Mineralogy' 2001 13 319 327 EJMIER
_publ_author_name
;
Chopin, C.;Ferraris, G.;Prencipe, M.;Brunet, F.;Medenbach, O.
;
_cell_length_a                     5.250(1)
_cell_length_b                     11.647(2)
_cell_length_c                     9.655(2)
_cell_angle_alpha                  90
_cell_angle_beta                   95.94(1)
_cell_angle_gamma                  90
_cell_volume                       587.2
_cell_formula_units_Z              2
_symmetry_space_group_name_H-M     'P 1 21/n 1'
_symmetry_Int_Tables_number        14
_refine_ls_R_factor_all            .021
loop_
_symmetry_equiv_pos_site_id
_symmetry_equiv_pos_as_xyz
  1	'-x+.5, y+.5, -z+.5'
  2	'-x, -y, -z'
  3	'x+.5, -y+.5, z+.5'
  4	'x, y, z'
loop_
_atom_type_symbol
_atom_type_oxidation_number
H1+	1
Mg2+	2
O2-	-2
P5+	5
loop_
_atom_site_label
_atom_site_type_symbol
_atom_site_symmetry_multiplicity
_atom_site_Wyckoff_symbol
_atom_site_fract_x
_atom_site_fract_y
_atom_site_fract_z
_atom_site_occupancy
_atom_site_attached_hydrogens
_atom_site_U_iso_or_equiv
P1 P5+ 4 e 0.0290 0.5802 0.7102 1. 0 0.0056 
Mg1 Mg2+ 2 a 0 0 0 1. 0 0.0064 
Mg2 Mg2+ 4 e 0.2624 0.1769 0.2109 1. 0 0.0082 
Mg3 Mg2+ 4 e 0.2495 0.4304 0.9945 1. 0 0.0069 
Mg4 Mg2+ 4 e 0.2455 0.2099 0.4959 1. 0 0.0079 
O1 O2- 4 e 0.4438 0.3001 0.1094 1.000 0 0.0088 
O2 O2- 4 e 0.0594 0.5705 0.8742 1. 0 0.0076 
O3 O2- 4 e 0.0737 0.8454 0.9102 1.000 0 0.0084 
O4 O2- 4 e 0.9180 0.6986 0.6726 1. 0 0.0088 
O5 O2- 4 e 0.0745 0.0639 0.3888 1.000 0 0.0088 
O6 O2- 4 e 0.5391 0.1811 0.3747 1.000 0 0.0076 
O7 O2- 4 e 0.8487 0.4856 0.6467 1. 0 0.0081 
O8 O2- 4 e 0.2972 0.5698 0.6619 1. 0 0.0102 
H1 H1+ 4 e 0.008 0.027 0.317 1. 0 0.03 
H2 H1+ 4 e 0.180 0.872 0.856 1. 0 0.02 
H3 H1+ 4 e 0.507 0.324 0.183 1. 0 0.04 
H4 H1+ 4 e 0.627 0.249 0.380 1. 0 0.04 

#End of data_92918-ICSD


