data_67593-ICSD
#?2014 by Fachinformationszentrum Karlsruhe, and the U.S. Secretary of 
#Commerce on behalf of the United States.  All rights reserved.
_database_code_ICSD                67593
_audit_creation_date               1993/08/22
_audit_update_record               2010/08/01
_chemical_name_systematic          'Aluminium Phosphate(V) - Vpi-5'
_chemical_formula_structural       'Al (P O4)'
_chemical_formula_sum              'Al1 O4 P1'
_publ_section_title
;
Crystal structures of dehydrated VPI-5 and H1 aluminum phosphates 
from X-ray powder data
;
loop_
_citation_id
_citation_journal_abbrev
_citation_year
_citation_journal_volume
_citation_page_first
_citation_page_last
_citation_journal_id_ASTM
primary 'Journal of Physical Chemistry' 1992 96 7709 7714 JPCHAX
_publ_author_name
;
Poojary, D.M.;Perez, J.O.;Clearfield, A.
;
_cell_length_a                     18.6005(6)
_cell_length_b                     18.6005(6)
_cell_length_c                     8.3664(4)
_cell_angle_alpha                  90.
_cell_angle_beta                   90.
_cell_angle_gamma                  120.
_cell_volume                       2506.79
_cell_formula_units_Z              18
_symmetry_space_group_name_H-M     'P 63 c m'
_symmetry_Int_Tables_number        185
_refine_ls_R_factor_all            .043
loop_
_symmetry_equiv_pos_site_id
_symmetry_equiv_pos_as_xyz
  1	'x, x-y, z+.5'
  2	'-x+y, y, z+.5'
  3	'-y, -x, z+.5'
  4	'x-y, x, z+.5'
  5	'y, -x+y, z+.5'
  6	'-x, -y, z+.5'
  7	'-x, -x+y, z'
  8	'x-y, -y, z'
  9	'y, x, z'
 10	'-x+y, -x, z'
 11	'-y, x-y, z'
 12	'x, y, z'
loop_
_atom_type_symbol
_atom_type_oxidation_number
Al3+	3
O2-	-2
P5+	5
loop_
_atom_site_label
_atom_site_type_symbol
_atom_site_symmetry_multiplicity
_atom_site_Wyckoff_symbol
_atom_site_fract_x
_atom_site_fract_y
_atom_site_fract_z
_atom_site_occupancy
_atom_site_attached_hydrogens
_atom_site_U_iso_or_equiv
Al1 Al3+ 6 c 0 0.4177(9) 0.19 1. 0 0.132(9) 
Al2 Al3+ 12 d 0.8262(6) 0.4891(6) 0.175(2) 1. 0 0.008(4) 
P1 P5+ 6 c 0 0.5734(6) 0.314(2) 1. 0 0.012(4) 
P2 P5+ 12 d 0.8324(5) 0.3332(5) 0.296(2) 1. 0 0.017(3) 
O1 O2- 6 c 0 0.4959(9) 0.287(3) 1. 0 0.016(5) 
O2 O2- 6 c 0 0.5781(8) 0.493(2) 1. 0 0.134(8) 
O3 O2- 12 d 0.9075(5) 0.3255(5) 0.240(3) 1. 0 0.024(7) 
O4 O2- 12 d 0.9242(6) 0.5738(7) 0.233(3) 1. 0 0.048(9) 
O5 O2- 12 d 0.8250(8) 0.3364(7) 0.470(3) 1. 0 0.083(4) 
O6 O2- 12 d 0.8156(8) 0.3933(8) 0.213(3) 1. 0 0.096(8) 
O7 O2- 12 d 0.7565(5) 0.2480(5) 0.257(3) 1. 0 0.015(5) 

#End of data_67593-ICSD


