data_200389-ICSD
#?2014 by Fachinformationszentrum Karlsruhe, and the U.S. Secretary of 
#Commerce on behalf of the United States.  All rights reserved.
_database_code_ICSD                200389
_audit_creation_date               1980/01/01
_audit_update_record               2008/02/01
_chemical_name_systematic          'Octapotassium Hafnium Molybdate'
_chemical_formula_structural       'K8 Hf (Mo O4)6'
_chemical_formula_sum              'Hf1 K8 Mo6 O24'
_publ_section_title
;
Crystal structure of the binary molybdates K8 Zr (Mo O4)6 and K8 Hf 
(Mo O4)6
;
loop_
_citation_id
_citation_journal_abbrev
_citation_year
_citation_journal_volume
_citation_page_first
_citation_page_last
_citation_journal_id_ASTM
primary Kristallografiya 1977 22 1191 1195 KRISAJ
2 'Soviet Physics, Crystallography (= Kristallografiya)'
 1977 22 677 679 SPHCA6
_publ_author_name
;
Klevtsova, R.F.;Glinskaya, L.A.;Pasechnyuk, N.P.
;
_cell_length_a                     10.175
_cell_length_b                     11.771
_cell_length_c                     13.102
_cell_angle_alpha                  90.
_cell_angle_beta                   118.82
_cell_angle_gamma                  90.
_cell_volume                       1374.86
_cell_formula_units_Z              2
_symmetry_space_group_name_H-M     'P 1 21/c 1'
_symmetry_Int_Tables_number        14
_refine_ls_R_factor_all            .065
loop_
_symmetry_equiv_pos_site_id
_symmetry_equiv_pos_as_xyz
  1	'x, -y+.5, z+.5'
  2	'-x, -y, -z'
  3	'-x, y+.5, -z+.5'
  4	'x, y, z'
loop_
_atom_type_symbol
_atom_type_oxidation_number
Hf4+	4
K1+	1
Mo6+	6
O2-	-2
loop_
_atom_site_label
_atom_site_type_symbol
_atom_site_symmetry_multiplicity
_atom_site_Wyckoff_symbol
_atom_site_fract_x
_atom_site_fract_y
_atom_site_fract_z
_atom_site_occupancy
_atom_site_attached_hydrogens
Hf1 Hf4+ 2 a 0 0 0 1. 0 
Mo1 Mo6+ 4 e -.016 0.322 0.0062 1. 0 
Mo2 Mo6+ 4 e 0.2328 -.106 0.2938 1. 0 
Mo3 Mo6+ 4 e 0.3871 0.1073 0.0991 1. 0 
K1 K1+ 4 e 0.1851 0.2047 0.2909 1. 0 
K2 K1+ 4 e 0.1651 0.5561 0.2847 1. 0 
K3 K1+ 4 e 0.3958 0.7794 0.0729 1. 0 
K4 K1+ 4 e 0.3621 0.4299 0.1092 1. 0 
O1 O2- 4 e -.0222 0.1672 0.0261 1. 0 
O2 O2- 4 e -.1943 0.3792 -.0696 1. 0 
O3 O2- 4 e 0.072 0.3483 -.0784 1. 0 
O4 O2- 4 e 0.0979 0.384 0.141 1. 0 
O5 O2- 4 e 0.0793 -.0245 0.175 1. 0 
O6 O2- 4 e 0.3552 -.1491 0.2451 1. 0 
O7 O2- 4 e 0.3301 -.0151 0.4107 1. 0 
O8 O2- 4 e 0.1699 -.2263 0.3427 1. 0 
O9 O2- 4 e 0.5368 0.0164 0.1488 1. 0 
O10 O2- 4 e 0.4014 0.2063 0.0043 1. 0 
O11 O2- 4 e 0.3886 0.18 0.2146 1. 0 
O12 O2- 4 e 0.2148 0.0235 0.022 1. 0 

#End of data_200389-ICSD


