data_153596-ICSD
#?2014 by Fachinformationszentrum Karlsruhe, and the U.S. Secretary of 
#Commerce on behalf of the United States.  All rights reserved.
_database_code_ICSD                153596
_audit_creation_date               2006/10/01
_chemical_name_systematic          'Calcium Oxotitanium Silicate'
_chemical_formula_structural       'Ca (Ti O) (Si O4)'
_chemical_formula_sum              'Ca1 O5 Si1 Ti1'
_chemical_name_mineral             Titanite
_publ_section_title
;
Crystal chemistry of titanite-structured compounds: the Ca Ti1-x Zrx 
O Si O4 (x <= 0.5) series
;
loop_
_citation_id
_citation_journal_abbrev
_citation_year
_citation_journal_volume
_citation_page_first
_citation_page_last
_citation_journal_id_ASTM
primary 'Physics and Chemistry of Minerals' 2005 32 40 51 PCMIDU
_publ_author_name                  'Liferovich, R.P.;Mitchell, R.H.'
_cell_length_a                     7.0599(1)
_cell_length_b                     8.7156(1)
_cell_length_c                     6.5597(1)
_cell_angle_alpha                  90.
_cell_angle_beta                   113.797(1)
_cell_angle_gamma                  90.
_cell_volume                       369.31
_cell_formula_units_Z              4
_symmetry_space_group_name_H-M     'P 1 21/a 1'
_symmetry_Int_Tables_number        14
_refine_ls_R_factor_all            .0301
loop_
_symmetry_equiv_pos_site_id
_symmetry_equiv_pos_as_xyz
  1	'x+.5, -y+.5, z'
  2	'-x, -y, -z'
  3	'-x+.5, y+.5, -z'
  4	'x, y, z'
loop_
_atom_type_symbol
_atom_type_oxidation_number
Ca2+	2
O2-	-2
Si4+	4
Ti4+	4
loop_
_atom_site_label
_atom_site_type_symbol
_atom_site_symmetry_multiplicity
_atom_site_Wyckoff_symbol
_atom_site_fract_x
_atom_site_fract_y
_atom_site_fract_z
_atom_site_occupancy
_atom_site_attached_hydrogens
_atom_site_B_iso_or_equiv
Ca1 Ca2+ 4 e 0.2333(6) 0.4187(2) 0.2514(9) 1. 0 1.02(6) 
Ti1 Ti4+ 4 e 0.5023(6) 0.2504(8) 0.7491(9) 1. 0 0.82(4) 
Si1 Si4+ 4 e 0.7446(11) 0.4315(3) 0.2505(14) 1. 0 0.38(6) 
O1 O2- 4 e 0.7342(17) 0.3194(5) 0.7449(24) 1. 0 0.74(6) 
O2 O2- 4 e 0.9075(16) 0.3161(14) 0.4295(22) 1. 0 0.74(6) 
O3 O2- 4 e 0.0894(16) 0.1819(14) 0.0664(21) 1. 0 0.74(6) 
O4 O2- 4 e 0.3787(17) 0.4605(13) 0.6457(22) 1. 0 0.74(6) 
O5 O2- 4 e 0.6147(16) 0.0374(13) 0.8465(22) 1. 0 0.74(6) 

#End of data_153596-ICSD


