data_166748-ICSD
#?2014 by Fachinformationszentrum Karlsruhe, and the U.S. Secretary of 
#Commerce on behalf of the United States.  All rights reserved.
_database_code_ICSD                166748
_audit_creation_date               2010/08/01
_chemical_name_systematic
;
Sodium Scandium Tetrakis(tetrahydridoborate)
;
_chemical_formula_structural       'Na Sc (B H4)4'
_chemical_formula_sum              'H16 B4 Na1 Sc1'
_publ_section_title
;
Na Sc (B H4)4: a novel scandium-based borohydride
;
loop_
_citation_id
_citation_journal_abbrev
_citation_year
_citation_journal_volume
_citation_page_first
_citation_page_last
_citation_journal_id_ASTM
primary 'Journal of Physical Chemistry C' 2010 114 1357 1364 JPCCCK
_publ_author_name
;
Cerny, R.;Severa, G.;Ravnsbaek, D.B.;Filinchuk, Ya.;D'Anna, 
V.;Hagemann, H.;Haase, D.;Jensen, C.M.;Jensen, T.R.
;
_cell_length_a                     8.170(2)
_cell_length_b                     11.875(3)
_cell_length_c                     9.018(2)
_cell_angle_alpha                  90.
_cell_angle_beta                   90.
_cell_angle_gamma                  90.
_cell_volume                       874.92
_cell_formula_units_Z              4
_symmetry_space_group_name_H-M     'C m c m'
_symmetry_Int_Tables_number        63
loop_
_symmetry_equiv_pos_site_id
_symmetry_equiv_pos_as_xyz
  1	'-x, y, -z+.5'
  2	'-x, -y, z+.5'
  3	'-x, y, z'
  4	'-x, -y, -z'
  5	'x, -y, z+.5'
  6	'x, y, -z+.5'
  7	'x, -y, -z'
  8	'x, y, z'
  9	'-x+.5, y+.5, -z+.5'
 10	'-x+.5, -y+.5, z+.5'
 11	'-x+.5, y+.5, z'
 12	'-x+.5, -y+.5, -z'
 13	'x+.5, -y+.5, z+.5'
 14	'x+.5, y+.5, -z+.5'
 15	'x+.5, -y+.5, -z'
 16	'x+.5, y+.5, z'
loop_
_atom_type_symbol
_atom_type_oxidation_number
B3+	3
H1-	-1
Na1+	1
Sc3+	3
loop_
_atom_site_label
_atom_site_type_symbol
_atom_site_symmetry_multiplicity
_atom_site_Wyckoff_symbol
_atom_site_fract_x
_atom_site_fract_y
_atom_site_fract_z
_atom_site_occupancy
_atom_site_attached_hydrogens
_atom_site_B_iso_or_equiv
Na1 Na1+ 4 a 0 0 0.5 1. 0 3.9(1) 
Sc1 Sc3+ 4 c 0.5 0.1462(7) 0.750 1. 0 2.6(3) 
B1 B3+ 8 f 0.5 0.255(1) 0.957(2) 1. 0 1. 
H1 H1- 8 f 0.5 0.309(1) 0.060(2) 1. 0 4. 
H2 H1- 8 f 0.5 0.163(1) 0.989(2) 1. 0 4. 
H3 H1- 16 h 0.613(2) 0.274(1) 0.889(2) 1. 0 4. 
B2 B3+ 8 g 0.724(2) 0.036(1) 0.750 1. 0 1. 
H4 H1- 8 g 0.837(2) -0.020(1) 0.750 1. 0 4. 
H5 H1- 8 g 0.762(2) 0.127(1) 0.750 1. 0 4. 
H6 H1- 16 h 0.649(2) 0.017(1) 0.852(2) 1. 0 4. 

#End of data_166748-ICSD


