data_281618-ICSD
#?2014 by Fachinformationszentrum Karlsruhe, and the U.S. Secretary of 
#Commerce on behalf of the United States.  All rights reserved.
_database_code_ICSD                281618
_audit_creation_date               2004/10/01
_chemical_name_systematic          'Sodium Titanium(III) Disilicate'
_chemical_formula_structural       'Na Ti (Si2 O6)'
_chemical_formula_sum              'Na1 O6 Si2 Ti1'
_chemical_name_mineral             Clinopyroxene
_publ_section_title
;
Single-crystal structure refinement of Na Ti Si2 O6 clinopyroxene at 
low temperatures (298 > T > 100 K)
;
loop_
_citation_id
_citation_journal_abbrev
_citation_year
_citation_journal_volume
_citation_page_first
_citation_page_last
_citation_journal_id_ASTM
primary 'Acta Crystallographica, Section B: Structural Science'
 2003 59 730 746 ASBSDK
_publ_author_name
;
Redhammer, G.J.;Ohashi, H.;Roth, G.
;
_cell_length_a                     5.2967(19)
_cell_length_b                     6.510(2)
_cell_length_c                     6.615(2)
_cell_angle_alpha                  84.59(3)
_cell_angle_beta                   77.73(3)
_cell_angle_gamma                  77.76(3)
_cell_volume                       217.53
_cell_formula_units_Z              2
_symmetry_space_group_name_H-M     'P -1'
_symmetry_Int_Tables_number        2
_refine_ls_R_factor_all            .029
loop_
_symmetry_equiv_pos_site_id
_symmetry_equiv_pos_as_xyz
  1	'-x, -y, -z'
  2	'x, y, z'
loop_
_atom_type_symbol
_atom_type_oxidation_number
Na1+	1
O2-	-2
Si4+	4
Ti3+	3
loop_
_atom_site_label
_atom_site_type_symbol
_atom_site_symmetry_multiplicity
_atom_site_Wyckoff_symbol
_atom_site_fract_x
_atom_site_fract_y
_atom_site_fract_z
_atom_site_occupancy
_atom_site_attached_hydrogens
_atom_site_U_iso_or_equiv
Na1 Na1+ 2 i 0.7590(6) 0.8036(4) 0.7001(5) 1. 0 0.0072(4) 
Ti1 Ti3+ 2 i 0.2583(2) 0.59785(19) 0.90522(19) 1. 0 0.0019(2) 
Si1 Si4+ 2 i 0.7424(3) 0.3001(3) 0.6150(3) 1. 0 0.0017(4) 
Si2 Si4+ 2 i 1.2409(3) 0.1212(3) 0.7959(3) 1. 0 0.0022(4) 
O1 O2- 2 i 0.8069(7) 0.3928(7) 0.3819(7) 1. 0 0.0036(9) 
O2 O2- 2 i 0.6463(7) 0.4657(7) 0.7980(7) 1. 0 0.0043(9) 
O3 O2- 2 i 0.5163(7) 0.1549(7) 0.6403(7) 1. 0 0.0031(8) 
O4 O2- 2 i 1.0148(7) 0.1393(8) 0.6572(8) 1. 0 0.0040(9) 
O5 O2- 2 i 1.1472(7) 0.3076(7) 0.9595(7) 1. 0 0.0034(9) 
O6 O2- 2 i 1.3022(7) -.1120(7) 0.8927(7) 1. 0 0.0041(9) 

loop_
_atom_site_aniso_label
_atom_site_aniso_type_symbol
_atom_site_aniso_U_11
_atom_site_aniso_U_22
_atom_site_aniso_U_33
_atom_site_aniso_U_12
_atom_site_aniso_U_13
_atom_site_aniso_U_23
Na1 Na1+ 0.0044(7) 0.0036(14) 0.0129(16) 0.0016(9) -.0019(9) -.0014(7)
#End of data_281618-ICSD


