data_409582-ICSD
#?2014 by Fachinformationszentrum Karlsruhe, and the U.S. Secretary of 
#Commerce on behalf of the United States.  All rights reserved.
_database_code_ICSD                409582
_audit_creation_date               2002/10/01
_chemical_name_systematic
;
Tripotassium Dibismuth Tris(phosphate(V))
;
_chemical_formula_structural       'K3 Bi2 (P O4)3'
_chemical_formula_sum              'Bi2 K3 O12 P3'
_publ_section_title
;
Crystal structure of tripotassium dibismuth phosphate, K3 Bi2 (P O4)3
;
loop_
_citation_id
_citation_journal_abbrev
_citation_year
_citation_journal_volume
_citation_page_first
_citation_page_last
_citation_journal_id_ASTM
primary 'Zeitschrift fuer Kristallographie - New Crystal Structures'
 2001 216 493 494 ZKNSFT
_publ_author_name                  'Falah, C.;Boughzala, H.;Jouini, T.'
_cell_length_a                     13.828(7)
_cell_length_b                     13.482(5)
_cell_length_c                     6.808(3)
_cell_angle_alpha                  90.
_cell_angle_beta                   114.94(4)
_cell_angle_gamma                  90.
_cell_volume                       1150.86
_cell_formula_units_Z              4
_symmetry_space_group_name_H-M     'C 1 2/c 1'
_symmetry_Int_Tables_number        15
_refine_ls_R_factor_all            .028
loop_
_symmetry_equiv_pos_site_id
_symmetry_equiv_pos_as_xyz
  1	'x, -y, z+.5'
  2	'-x, -y, -z'
  3	'-x, y, -z+.5'
  4	'x, y, z'
  5	'x+.5, -y+.5, z+.5'
  6	'-x+.5, -y+.5, -z'
  7	'-x+.5, y+.5, -z+.5'
  8	'x+.5, y+.5, z'
loop_
_atom_type_symbol
_atom_type_oxidation_number
Bi3+	3
K1+	1
O2-	-2
P5+	5
loop_
_atom_site_label
_atom_site_type_symbol
_atom_site_symmetry_multiplicity
_atom_site_Wyckoff_symbol
_atom_site_fract_x
_atom_site_fract_y
_atom_site_fract_z
_atom_site_occupancy
_atom_site_attached_hydrogens
Bi1 Bi3+ 8 f 0.26291(2) 0.35556(2) 0.33079(5) 1. 0 
P1 P5+ 4 e 0.5 0.2582(2) 0.75 1. 0 
P2 P5+ 8 f 0.25888(17) 0.39156(19) -.1393(3) 1. 0 
K1 K1+ 4 e 0.5 0.4817(2) 0.25 1. 0 
K2 K1+ 4 e 0.5 0.2226(2) 0.25 1. 0 
K3 K1+ 4 b 0.5 0 0 1. 0 
O1 O2- 8 f 0.4307(5) 0.1927(5) 0.8217(11) 1. 0 
O2 O2- 8 f 0.5669(5) 0.3309(5) 0.9435(11) 1. 0 
O3 O2- 8 f 0.1571(5) 0.4312(6) -.1287(11) 1. 0 
O4 O2- 8 f 0.2310(5) 0.3169(6) -.3302(9) 1. 0 
O5 O2- 8 f 0.3273(5) 0.4759(5) -.1705(11) 1. 0 
O6 O2- 8 f 0.3265(6) 0.3386(5) 0.0802(11) 1. 0 

loop_
_atom_site_aniso_label
_atom_site_aniso_type_symbol
_atom_site_aniso_U_11
_atom_site_aniso_U_22
_atom_site_aniso_U_33
_atom_site_aniso_U_12
_atom_site_aniso_U_13
_atom_site_aniso_U_23
Bi1 Bi3+ 0.0067(2) 0.0106(2) 0.0106(2) -.00063(12) 0.00294(16) 0.00066(12)
P1 P5+ 0.0047(13) 0.0106(16) 0.0079(14) 0 0.0000(11) 0
P2 P5+ 0.0086(10) 0.0093(12) 0.0085(11) -.0010(9) 0.0040(8) 0.0004(9)
K1 K1+ 0.0108(13) 0.0188(16) 0.0159(13) 0 0.0046(11) 0
K2 K1+ 0.0081(12) 0.0092(12) 0.0095(12) 0 0.0001(10) 0
K3 K1+ 0.0258(19) 0.039(2) 0.041(2) 0.0099(17) -.0029(16) -.0184(18)
O1 O2- 0.010(3) 0.021(4) 0.017(3) -.003(3) 0.002(3) 0.004(3)
O2 O2- 0.007(3) 0.015(3) 0.014(3) -.002(3) -.002(3) -.006(3)
O3 O2- 0.011(3) 0.032(4) 0.023(4) 0.001(3) 0.010(3) -.003(3)
O4 O2- 0.018(4) 0.015(4) 0.006(3) 0.003(3) 0.004(3) 0.004(3)
O5 O2- 0.012(3) 0.009(3) 0.019(3) -.003(3) 0.006(3) 0.004(3)
O6 O2- 0.020(3) 0.006(3) 0.012(3) -.002(3) 0.008(3) 0.000(2)
#End of data_409582-ICSD


