data_171092-ICSD
#?2014 by Fachinformationszentrum Karlsruhe, and the U.S. Secretary of 
#Commerce on behalf of the United States.  All rights reserved.
_database_code_ICSD                171092
_audit_creation_date               2006/04/01
_chemical_name_systematic          'Sodium Tecto-alumotrisilicate'
_chemical_formula_structural       'Na Al Si3 O8'
_chemical_formula_sum              'Al1 Na1 O8 Si3'
_chemical_name_mineral             Albite
_publ_section_title
;
Compression of albite, Na Al Si3 O8
;
loop_
_citation_id
_citation_journal_abbrev
_citation_year
_citation_journal_volume
_citation_page_first
_citation_page_last
_citation_journal_id_ASTM
primary 'American Mineralogist' 2005 90 1115 1120 AMMIAY
_publ_author_name
;
Benusa, M.D.;Angel, R.J.;Ross, N.L.
;
_cell_length_a                     7.5028(7)
_cell_length_b                     12.4933(4)
_cell_length_c                     6.9463(6)
_cell_angle_alpha                  93.903(7)
_cell_angle_beta                   117.791(6)
_cell_angle_gamma                  86.786(5)
_cell_volume                       574.45
_cell_formula_units_Z              4
_symmetry_space_group_name_H-M     'C -1'
_symmetry_Int_Tables_number        2
loop_
_symmetry_equiv_pos_site_id
_symmetry_equiv_pos_as_xyz
  1	'-x, -y, -z'
  2	'x, y, z'
  3	'-x+.5, -y+.5, -z'
  4	'x+.5, y+.5, z'
loop_
_atom_type_symbol
_atom_type_oxidation_number
Al3+	3
Na1+	1
O2-	-2
Si4+	4
loop_
_atom_site_label
_atom_site_type_symbol
_atom_site_symmetry_multiplicity
_atom_site_Wyckoff_symbol
_atom_site_fract_x
_atom_site_fract_y
_atom_site_fract_z
_atom_site_occupancy
_atom_site_attached_hydrogens
_atom_site_U_iso_or_equiv
Na1 Na1+ 4 i 0.2367(7) 0.9905(2) 0.1659(13) 1. 0 0.01406 
Al1 Al3+ 4 i -0.0159(5) 0.17068(14) 0.1989(10) 1. 0 0.00735 
Si1 Si4+ 4 i -0.0233(5) 0.82420(12) 0.2310(9) 1. 0 0.00633 
Si2 Si4+ 4 i 0.6907(5) 0.10098(12) 0.3197(10) 1. 0 0.00621 
Si3 Si4+ 4 i 0.6399(6) 0.87498(12) 0.3462(10) 1. 0 0.00570 
O1 O2- 4 i 0.0136(12) 0.1329(4) 0.969(3) 1. 0 0.01178 
O2 O2- 4 i 0.5569(11) 0.9985(3) 0.2912(19) 1. 0 0.00760 
O3 O2- 4 i 0.7858(12) 0.0904(4) 0.155(3) 1. 0 0.01089 
O4 O2- 4 i 0.7530(11) 0.8395(4) 0.202(2) 1. 0 0.01165 
O5 O2- 4 i -0.0550(10) 0.3039(3) 0.2624(19) 1. 0 0.00874 
O6 O2- 4 i 0.0370(11) 0.7006(4) 0.271(3) 1. 0 0.01165 
O7 O2- 4 i 0.2103(14) 0.1278(4) 0.397(3) 1. 0 0.01381 
O8 O2- 4 i 0.1306(12) 0.8953(4) 0.434(3) 1. 0 0.01456 

loop_
_atom_site_aniso_label
_atom_site_aniso_type_symbol
_atom_site_aniso_U_11
_atom_site_aniso_U_22
_atom_site_aniso_U_33
_atom_site_aniso_U_12
_atom_site_aniso_U_13
_atom_site_aniso_U_23
Na1 Na1+ 0.00602 0.01416 0.01680 0.00126 0.00206 -0.00426
#End of data_171092-ICSD


