data_14064-ICSD
#?2014 by Fachinformationszentrum Karlsruhe, and the U.S. Secretary of 
#Commerce on behalf of the United States.  All rights reserved.
_database_code_ICSD                14064
_audit_creation_date               1980/01/01
_chemical_name_systematic          'Zinc Fluoride Tetrahydrate'
_chemical_formula_structural       'Zn F2 (H2 O)4'
_chemical_formula_sum              'H8 F2 O4 Zn1'
_publ_section_title
;
Neutron-diffraction study of the atomic structure of Zn F2 (H2 O)4
;
loop_
_citation_id
_citation_journal_abbrev
_citation_year
_citation_journal_volume
_citation_page_first
_citation_page_last
_citation_journal_id_ASTM
primary 'Koordinatsionnaya Khimiya (= Coordination Chemistry (USSR))'
 1977 3 1594 1599 KOKHDC
_publ_author_name
;
Bukvetskii, B.V.;Nozik, Yu.Z.;Fykin, L.E.;Polishchuk, S.A.;Laptash, 
N.M.
;
_cell_length_a                     12.63
_cell_length_b                     5.288
_cell_length_c                     7.54
_cell_angle_alpha                  90.
_cell_angle_beta                   90.
_cell_angle_gamma                  90.
_cell_volume                       503.58
_cell_formula_units_Z              4
_symmetry_space_group_name_H-M     'P c a 21'
_symmetry_Int_Tables_number        29
_refine_ls_R_factor_all            .058
loop_
_symmetry_equiv_pos_site_id
_symmetry_equiv_pos_as_xyz
  1	'x+.5, -y, z'
  2	'-x+.5, y, z+.5'
  3	'-x, -y, z+.5'
  4	'x, y, z'
loop_
_atom_type_symbol
_atom_type_oxidation_number
F1-	-1
H1+	1
O2-	-2
Zn2+	2
loop_
_atom_site_label
_atom_site_type_symbol
_atom_site_symmetry_multiplicity
_atom_site_Wyckoff_symbol
_atom_site_fract_x
_atom_site_fract_y
_atom_site_fract_z
_atom_site_occupancy
_atom_site_attached_hydrogens
Zn1 Zn2+ 4 a 0.1237(4) 0.2030(8) 0.25 1. 0 
F1 F1- 4 a 0.1031(6) 0.454(1) 0.046(1) 1. 0 
F2 F1- 4 a 0.1491(6) 0.950(1) 0.442(1) 1. 0 
O1 O2- 4 a 0.1591(7) 0.929(1) 0.052(1) 1. 0 
O2 O2- 4 a 0.2834(4) 0.337(1) 0.259(1) 1. 0 
O3 O2- 4 a 0.4664(4) 0.915(1) 0.244(1) 1. 0 
O4 O2- 4 a 0.0926(6) 0.472(1) 0.446(1) 1. 0 
H1 H1+ 4 a 0.2314(9) 0.934(2) 0.017(1) 1. 0 
H2 H1+ 4 a 0.1189(9) 0.645(3) 0.425(2) 1. 0 
H3 H1+ 4 a 0.4247(12) 0.951(3) 0.138(2) 1. 0 
H4 H1+ 4 a 0.4261(12) 0.927(4) 0.345(3) 1. 0 
H5 H1+ 4 a 0.3233(11) 0.364(4) 0.361(2) 1. 0 
H6 H1+ 4 a 0.3256(11) 0.387(2) 0.154(2) 1. 0 
H7 H1+ 4 a 0.0172(10) 0.490(2) 0.485(2) 1. 0 
H8 H1+ 4 a 0.1398(9) 0.757(2) 0.078(2) 1. 0 

#End of data_14064-ICSD


