data_86627-ICSD
#?2014 by Fachinformationszentrum Karlsruhe, and the U.S. Secretary of 
#Commerce on behalf of the United States.  All rights reserved.
_database_code_ICSD                86627
_audit_creation_date               2000/07/15
_audit_update_record               2007/08/01
_chemical_name_systematic          'Barium Bis(zincophosphate(V))'
_chemical_formula_structural       'Ba (Zn P O4)2'
_chemical_formula_sum              'Ba1 O8 P2 Zn2'
_publ_section_title
;
Synthesis and Rietveld refinement of new phosphate and arsenate 
analogues of paracelsian
;
loop_
_citation_id
_citation_journal_abbrev
_citation_year
_citation_journal_volume
_citation_page_first
_citation_page_last
_citation_journal_id_ASTM
primary 'Canadian Mineralogist' 1998 36 1045 1051 CAMIA6
2 'Powder Diffraction' 1999 14 222 230 PODIE2
_publ_author_name
;
Lucas, F.;Elfakir, A.;Wallez, G.;Quarton, M.;Lagache, M.
;
_cell_length_a                     8.5783(1)
_cell_length_b                     9.7383(1)
_cell_length_c                     9.1446(1)
_cell_angle_alpha                  90.
_cell_angle_beta                   91.394(1)
_cell_angle_gamma                  90.
_cell_volume                       763.7
_cell_formula_units_Z              4
_symmetry_space_group_name_H-M     'P 1 21/c 1'
_symmetry_Int_Tables_number        14
_refine_ls_R_factor_all            .034
loop_
_symmetry_equiv_pos_site_id
_symmetry_equiv_pos_as_xyz
  1	'x, -y+.5, z+.5'
  2	'-x, -y, -z'
  3	'-x, y+.5, -z+.5'
  4	'x, y, z'
loop_
_atom_type_symbol
_atom_type_oxidation_number
Ba2+	2
O2-	-2
P5+	5
Zn2+	2
loop_
_atom_site_label
_atom_site_type_symbol
_atom_site_symmetry_multiplicity
_atom_site_Wyckoff_symbol
_atom_site_fract_x
_atom_site_fract_y
_atom_site_fract_z
_atom_site_occupancy
_atom_site_attached_hydrogens
_atom_site_B_iso_or_equiv
Ba1 Ba2+ 4 e 0.2518(2) 0.4164(2) 0.8970(2) 1. 0 0.35(6) 
Zn1 Zn2+ 4 e 0.9270(3) 0.9271(3) 0.2089(3) 1. 0 0.34(6) 
P1 P5+ 4 e 0.5549(7) 0.9110(6) 0.2420(6) 1. 0 0.34(6) 
P2 P5+ 4 e 0.9564(7) 0.2050(6) 0.0677(6) 1. 0 0.34(6) 
Zn2 Zn2+ 4 e 0.5831(4) 0.1810(3) 0.0588(3) 1. 0 0.34(6) 
O1 O2- 4 e 0.998(1) 0.1143(8) 0.195(1) 1. 0 0.9(1) 
O2 O2- 4 e 0.491(1) 0.0500(9) 0.194(1) 1. 0 0.9(1) 
O3 O2- 4 e 0.945(1) 0.3488(9) 0.125(1) 1. 0 0.9(1) 
O4 O2- 4 e 0.545(1) 0.362(1) 0.136(1) 1. 0 0.9(1) 
O5 O2- 4 e 0.086(1) 0.196(1) 0.959(1) 1. 0 0.9(1) 
O6 O2- 4 e 0.447(1) 0.190(1) 0.8828(9) 1. 0 0.9(1) 
O7 O2- 4 e 0.8005(8) 0.168(1) 0.007(1) 1. 0 0.9(1) 
O8 O2- 4 e 0.7221(8) 0.912(1) 0.2991(9) 1. 0 0.9(1) 

#End of data_86627-ICSD


