data_20426-ICSD
#?2014 by Fachinformationszentrum Karlsruhe, and the U.S. Secretary of 
#Commerce on behalf of the United States.  All rights reserved.
_database_code_ICSD                20426
_audit_creation_date               1982/12/31
_chemical_name_systematic          'Pentasodium Terbium Tungstate'
_chemical_formula_structural       'Na5 Tb (W O4)4'
_chemical_formula_sum              'Na5 O16 Tb1 W4'
_publ_section_title
;
Fine changes in the structure of Scheelite-like Na5 Tr (E O4)4 with a 
variation in their elemental composition
;
loop_
_citation_id
_citation_journal_abbrev
_citation_year
_citation_journal_volume
_citation_page_first
_citation_page_last
_citation_journal_id_ASTM
primary Kristallografiya 1982 27 134 139 KRISAJ
2 'Soviet Physics, Crystallography (= Kristallografiya)'
 1982 27 77 81 SPHCA6
_publ_author_name
;
Efremov, V.A.;Trunov, V.K.;Berezina, T.A.
;
_cell_length_a                     11.468(2)
_cell_length_b                     11.468(2)
_cell_length_c                     11.385(4)
_cell_angle_alpha                  90.
_cell_angle_beta                   90.
_cell_angle_gamma                  90.
_cell_volume                       1497.3
_cell_formula_units_Z              4
_symmetry_space_group_name_H-M     'I 41/a Z'
_symmetry_Int_Tables_number        88
_refine_ls_R_factor_all            .041
loop_
_symmetry_equiv_pos_site_id
_symmetry_equiv_pos_as_xyz
  1	'-y+.75, x+.75, -z+.75'
  2	'y+.25, -x+.75, -z+.75'
  3	'x, y+.5, -z'
  4	'-x, -y, -z'
  5	'y+.25, -x+.25, z+.25'
  6	'-y+.75, x+.25, z+.25'
  7	'-x, -y+.5, z'
  8	'x, y, z'
  9	'-y+.25, x+.25, -z+.25'
 10	'y+.75, -x+.25, -z+.25'
 11	'x+.5, y, -z+.5'
 12	'-x+.5, -y+.5, -z+.5'
 13	'y+.75, -x+.75, z+.75'
 14	'-y+.25, x+.75, z+.75'
 15	'-x+.5, -y, z+.5'
 16	'x+.5, y+.5, z+.5'
loop_
_atom_type_symbol
_atom_type_oxidation_number
Na1+	1
O2-	-2
Tb3+	3
W6+	6
loop_
_atom_site_label
_atom_site_type_symbol
_atom_site_symmetry_multiplicity
_atom_site_Wyckoff_symbol
_atom_site_fract_x
_atom_site_fract_y
_atom_site_fract_z
_atom_site_occupancy
_atom_site_attached_hydrogens
_atom_site_B_iso_or_equiv
W1 W6+ 16 f 0.18231(9) 0.34352(9) 0.38649(9) 1. 0 0.69 
Tb1 Tb3+ 4 a 0 0.25 0.125 1. 0 0.61 
Na1 Na1+ 4 b 0 0.25 0.625 1. 0 1.63 
Na2 Na1+ 16 f 0.1196(10) 0.0463(10) 0.3441(10) 1. 0 1.23 
O1 O2- 16 f 0.1802(19) 0.4642(18) 0.4799(17) 1. 0 1.28 
O2 O2- 16 f 0.1504(18) 0.2200(17) 0.4749(16) 1. 0 1.19 
O3 O2- 16 f 0.0614(18) 0.3625(20) 0.2879(16) 1. 0 1.17 
O4 O2- 16 f 0.3206(19) 0.3316(20) 0.3094(17) 1. 0 1.16 

#End of data_20426-ICSD


