data_51615-ICSD
#?2014 by Fachinformationszentrum Karlsruhe, and the U.S. Secretary of 
#Commerce on behalf of the United States.  All rights reserved.
_database_code_ICSD                51615
_audit_creation_date               2003/10/01
_chemical_name_systematic          'Dicalcium Manganese Tungstate'
_chemical_formula_structural       'Ca2 Mn W O6'
_chemical_formula_sum              'Ca2 Mn1 O6 W1'
_publ_section_title
;
Nuclear and magnetic structure of Ca2 Mn W O6: a neutron powder 
diffraction study
;
loop_
_citation_id
_citation_journal_abbrev
_citation_year
_citation_journal_volume
_citation_page_first
_citation_page_last
_citation_journal_id_ASTM
primary 'Materials Research Bulletin' 2001 36 2485 2496 MRBUAC
_publ_author_name
;
Azad, A.K.;Ivanov, S.A.;Eriksson, S.G.;Eriksen, J.;Rundloef, 
H.;Mathieu, R.;Svedlindh, P.
;
_cell_length_a                     5.4618(2)
_cell_length_b                     5.6545(2)
_cell_length_c                     7.8022
_cell_angle_alpha                  90
_cell_angle_beta                   90.192(3)
_cell_angle_gamma                  90
_cell_volume                       240.96
_cell_formula_units_Z              2
_symmetry_space_group_name_H-M     'P 1 21/n 1'
_symmetry_Int_Tables_number        14
_refine_ls_R_factor_all            .0301
loop_
_symmetry_equiv_pos_site_id
_symmetry_equiv_pos_as_xyz
  1	'-x+.5, y+.5, -z+.5'
  2	'-x, -y, -z'
  3	'x+.5, -y+.5, z+.5'
  4	'x, y, z'
loop_
_atom_type_symbol
_atom_type_oxidation_number
Ca2+	2
Mn2+	2
O2-	-2
W6+	6
loop_
_atom_site_label
_atom_site_type_symbol
_atom_site_symmetry_multiplicity
_atom_site_Wyckoff_symbol
_atom_site_fract_x
_atom_site_fract_y
_atom_site_fract_z
_atom_site_occupancy
_atom_site_attached_hydrogens
_atom_site_B_iso_or_equiv
Ca1 Ca2+ 4 e 0.0142(6) -.0533(4) 0.2494(4) 1. 0 0.82(5) 
Mn1 Mn2+ 2 c 0.0 0.5 0.0 1. 0 0.36(8) 
W1 W6+ 2 d 0.5 0.0 0.0 1. 0 0.12(6) 
O1 O2- 4 e 0.2152(4) 0.1857(4) 0.0459(3) 1. 0 0.53(5) 
O2 O2- 4 e 0.1812(4) 0.2187(4) 0.4459(3) 1. 0 0.53(5) 
O3 O2- 4 e 0.5962(4) 0.0357(3) 0.2350(3) 1. 0 0.47(5) 

#End of data_51615-ICSD


