data_246135-ICSD
#?2014 by Fachinformationszentrum Karlsruhe, and the U.S. Secretary of 
#Commerce on behalf of the United States.  All rights reserved.
_database_code_ICSD                246135
_audit_creation_date               2009/02/01
_audit_update_record               2013/02/01
_chemical_name_systematic
;
Potassium Tetramanganese(II) Tris(phosphate(V))
;
_chemical_formula_structural       'K Mn4 (P O4)3'
_chemical_formula_sum              'K1 Mn4 O12 P3'
_publ_section_title
;
A comparison of the magnetic structures of K Mn4 (P O4)3 and K Co4 (P 
O4)3 based on the connectivity of the coordination polyhedra
;
loop_
_citation_id
_citation_journal_abbrev
_citation_year
_citation_journal_volume
_citation_journal_issue
_citation_page_first
_citation_page_last
_citation_journal_id_ASTM
primary 'Chemistry - A European Journal' 2008 14 34 10829 10838 CEUJED
_publ_author_name
;
Lopez, M.L.;Daidouh, A.;Pico, C.;Rodriguez Carvajal, J.;Veiga, M.L.
;
_cell_length_a                     9.985145(13)
_cell_length_b                     16.049761(17
_cell_length_c                     6.558394(8)
_cell_angle_alpha                  90.
_cell_angle_beta                   90.
_cell_angle_gamma                  90.
_cell_volume                       1051.04
_cell_formula_units_Z              4
_symmetry_space_group_name_H-M     'P n a m'
_symmetry_Int_Tables_number        62
_refine_ls_R_factor_all            .0558
loop_
_symmetry_equiv_pos_site_id
_symmetry_equiv_pos_as_xyz
  1	'x+.5, -y+.5, z'
  2	'x, y, -z+.5'
  3	'-x+.5, y+.5, z+.5'
  4	'-x, -y, -z'
  5	'-x+.5, y+.5, -z'
  6	'-x, -y, z+.5'
  7	'x+.5, -y+.5, -z+.5'
  8	'x, y, z'
loop_
_atom_type_symbol
_atom_type_oxidation_number
K1+	1
Mn2+	2
O2-	-2
P5+	5
loop_
_atom_site_label
_atom_site_type_symbol
_atom_site_symmetry_multiplicity
_atom_site_Wyckoff_symbol
_atom_site_fract_x
_atom_site_fract_y
_atom_site_fract_z
_atom_site_occupancy
_atom_site_attached_hydrogens
_atom_site_B_iso_or_equiv
K1 K1+ 4 c 0.2369(8) 0.2832(5) 0.25 1. 0 1.61(18) 
Mn1 Mn2+ 4 c 0.4685(6) 0.8666(4) 0.25 1. 0 1.12(17) 
Mn2 Mn2+ 4 c 0.0745(7) 0.8749(4) 0.25 1. 0 0.55(12) 
Mn3 Mn2+ 8 d 0.2461(5) 0.0505(3) 0.0025(6) 1. 0 0.12(7) 
P1 P5+ 4 c 0.0244(4) 0.4382(3) 0.25 1. 0 0.40(8) 
P2 P5+ 4 c 0.4480(4) 0.4476(3) 0.25 1. 0 0.08(11) 
P3 P5+ 4 c 0.2964(4) 0.7226(3) 0.25 1. 0 0.45(9) 
O1 O2- 4 c 0.1163(5) 0.5201(3) 0.25 1. 0 0.71(9) 
O2 O2- 4 c 0.3753(5) 0.0265(3) 0.25 1. 0 1.34(11) 
O3 O2- 8 d 0.0505(3) 0.38931(17) 0.0610(5) 1. 0 0.48(7) 
O4 O2- 4 c 0.1059(4) 0.0521(3) 0.25 1. 0 0.31(8) 
O5 O2- 4 c 0.4020(4) 0.5390 0.25 1. 0 0.85(11) 
O6 O2- 8 d 0.3933(4) 0.40765(20) 0.0577(5) 1. 0 0.99(7) 
O7 O2- 4 c 0.2537(5) 0.8149(3) 0.25 1. 0 0.57(9) 
O8 O2- 8 d 0.2447(4) 0.6768(2) 0.0587(5) 1. 0 1.33(7) 
O9 O2- 4 c 0.4482(4) 0.7278(3) 0.25 1. 0 0.69(10) 

#End of data_246135-ICSD


