data_414009-ICSD
#?2014 by Fachinformationszentrum Karlsruhe, and the U.S. Secretary of 
#Commerce on behalf of the United States.  All rights reserved.
_database_code_ICSD                414009
_audit_creation_date               2005/10/01
_chemical_name_systematic          'Dibarium Zinc Divanadate'
_chemical_formula_structural       'Ba2 Zn V2 O8'
_chemical_formula_sum              'Ba2 O8 V2 Zn1'
_publ_section_title
;
Synthesis, band structure, and optical properties of Ba2 Zn V2 O8
;
loop_
_citation_id
_citation_journal_abbrev
_citation_year
_citation_journal_volume
_citation_page_first
_citation_page_last
_citation_journal_id_ASTM
primary 'Journal of Solid State Chemistry' 2004 177 3927 3933 JSSCBI
_publ_author_name
;
Chen, D.-G.;Cheng, W.-D.;Wu, D.-S.;Zhang, H.;Zhang, Y.-C.;Gong, Y.-
J.;Kan, Z.-G.
;
_cell_length_a                     7.9050(16)
_cell_length_b                     16.149(3)
_cell_length_c                     6.1580(12)
_cell_angle_alpha                  90.
_cell_angle_beta                   90.49(3)
_cell_angle_gamma                  90.
_cell_volume                       786.09
_cell_formula_units_Z              4
_symmetry_space_group_name_H-M     'P 1 21/c 1'
_symmetry_Int_Tables_number        14
_refine_ls_R_factor_all            .0909
loop_
_symmetry_equiv_pos_site_id
_symmetry_equiv_pos_as_xyz
  1	'x, -y+.5, z+.5'
  2	'-x, -y, -z'
  3	'-x, y+.5, -z+.5'
  4	'x, y, z'
loop_
_atom_type_symbol
_atom_type_oxidation_number
Ba2+	2
O2-	-2
V5+	5
Zn2+	2
loop_
_atom_site_label
_atom_site_type_symbol
_atom_site_symmetry_multiplicity
_atom_site_Wyckoff_symbol
_atom_site_fract_x
_atom_site_fract_y
_atom_site_fract_z
_atom_site_occupancy
_atom_site_attached_hydrogens
_atom_site_U_iso_or_equiv
Ba1 Ba2+ 4 e 0.63811(14) 0.04421(7) 0.23915(17) 1 0 0.0113(4) 
Ba2 Ba2+ 4 e 0.14077(14) 0.12918(7) 0.27305(18) 1 0 0.0128(4) 
Zn1 Zn2+ 4 e 0.7241(3) 0.25014(13) -0.0016(3) 1 0 0.0117(6) 
V1 V5+ 4 e 0.8762(4) 0.09120(18) -0.2464(5) 1 0 0.0106(7) 
V2 V5+ 4 e 0.5975(4) -0.17008(18) 0.2636(5) 1 0 0.0101(7) 
O1 O2- 4 e 0.5763(16) 0.2557(7) 0.2485(19) 1 0 0.012(3) 
O2 O2- 4 e 0.8536(15) 0.1450(7) 0.5078(18) 1 0 0.011(3) 
O3 O2- 4 e 0.9491(17) -0.0328(8) 0.262(2) 1 0 0.020(3) 
O4 O2- 4 e 0.6034(17) -0.1133(8) 0.034(2) 1 0 0.019(3) 
O5 O2- 4 e 0.2186(17) 0.2846(8) 0.188(2) 1 0 0.018(3) 
O6 O2- 4 e 0.2821(18) -0.0249(8) 0.233(2) 1 0 0.021(3) 
O7 O2- 4 e 0.8688(17) 0.1520(8) -0.009(2) 1 0 0.019(3) 
O8 O2- 4 e 0.5769(16) -0.1006(8) 0.4665(19) 1 0 0.016(3) 

loop_
_atom_site_aniso_label
_atom_site_aniso_type_symbol
_atom_site_aniso_U_11
_atom_site_aniso_U_22
_atom_site_aniso_U_33
_atom_site_aniso_U_12
_atom_site_aniso_U_13
_atom_site_aniso_U_23
Ba1 Ba2+ 0.0099(6) 0.0110(6) 0.0131(6) 0.0000(5) -0.0001(4) 0.0000(5)
Ba2 Ba2+ 0.0100(7) 0.0112(6) 0.0172(7) 0.0021(5) -0.0010(5) 0.0010(5)
Zn1 Zn2+ 0.0139(12) 0.0100(11) 0.0111(11) 0.0002(9) -0.0004(9) -0.0010(9)
V1 V5+ 0.0089(17) 0.0102(17) 0.0129(16) -0.0006(13) -0.0007(13) 0.0009(13)
V2 V5+ 0.0089(18) 0.0103(17) 0.0109(16) -0.0005(13) 0.0003(12) 0.0008(13)
#End of data_414009-ICSD


