data_413602-ICSD
#?2014 by Fachinformationszentrum Karlsruhe, and the U.S. Secretary of 
#Commerce on behalf of the United States.  All rights reserved.
_database_code_ICSD                413602
_audit_creation_date               2005/10/01
_chemical_name_systematic          Potassiumtetrazinctris(borate)
_chemical_formula_structural       'K Zn4 B3 O9'
_chemical_formula_sum              'B3 K1 O9 Zn4'
_publ_section_title
;
Synthesis, band structures and optical properties of Zn3 B2 O6 and K 
Zn4 B3 O9
;
loop_
_citation_id
_citation_journal_abbrev
_citation_year
_citation_journal_volume
_citation_page_first
_citation_page_last
_citation_journal_id_ASTM
primary 'Solid State Sciences' 2005 7 179 188 SSSCFJ
_publ_author_name
;
Chen, D.-G.;Cheng, W.-D.;Wu, D.-S.;Zhang, H.;Zhang, Y.-J.;Gong, Y.-
J;Kan, Z.-G.
;
_cell_length_a                     6.8822(4)
_cell_length_b                     4.9945(3)
_cell_length_c                     12.5748(8)
_cell_angle_alpha                  90.00
_cell_angle_beta                   92.954(2)
_cell_angle_gamma                  90.00
_cell_volume                       431.66
_cell_formula_units_Z              2
_symmetry_space_group_name_H-M     'P 1 2/c 1'
_symmetry_Int_Tables_number        13
_refine_ls_R_factor_all            .0316
loop_
_symmetry_equiv_pos_site_id
_symmetry_equiv_pos_as_xyz
  1	'x, -y, z+.5'
  2	'-x, -y, -z'
  3	'-x, y, -z+.5'
  4	'x, y, z'
loop_
_atom_type_symbol
_atom_type_oxidation_number
B3+	3
K1+	1
O2-	-2
Zn2+	2
loop_
_atom_site_label
_atom_site_type_symbol
_atom_site_symmetry_multiplicity
_atom_site_Wyckoff_symbol
_atom_site_fract_x
_atom_site_fract_y
_atom_site_fract_z
_atom_site_occupancy
_atom_site_attached_hydrogens
_atom_site_U_iso_or_equiv
Zn1 Zn2+ 4 g 0.79169(8) 0.33512(11) 0.43977(4) 1 0 0.0084(2) 
Zn2 Zn2+ 4 g 0.51064(8) -0.15322(11) 0.37609(4) 1 0 0.0077(3) 
K1 K1+ 2 e 0.0000 -0.2044(5) 0.2500 1 0 0.0306(5) 
O1 O2- 4 g 0.5933(5) 0.2040(7) 0.3320(3) 1 0 0.0125(8) 
O2 O2- 2 f 0.5000 -0.3815(10) 0.2500 1 0 0.0127(11) 
O3 O2- 4 g 0.7245(5) 0.7039(7) 0.4650(3) 1 0 0.0145(8) 
B1 B3+ 2 f 0.5000 0.3408(15) 0.2500 1 0 0.0065(15) 
O4 O2- 4 g 1.0417(5) 0.2567(8) 0.3897(3) 1 0 0.0145(8) 
O5 O2- 4 g 0.2575(5) -0.1056(7) 0.4347(3) 1 0 0.0114(7) 
B2 B3+ 4 g 0.8099(8) 0.8446(11) 0.5487(4) 1 0 0.0080(11) 

loop_
_atom_site_aniso_label
_atom_site_aniso_type_symbol
_atom_site_aniso_U_11
_atom_site_aniso_U_22
_atom_site_aniso_U_33
_atom_site_aniso_U_12
_atom_site_aniso_U_13
_atom_site_aniso_U_23
Zn1 Zn2+ 0.0075(3) 0.0056(4) 0.0119(4) 0.0006(2) -0.0008(2) 0.0003(2)
Zn2 Zn2+ 0.0082(3) 0.0056(4) 0.0091(4) 0.0014(2) 0.0003(2) -0.0004(2)
K1 K1+ 0.0308(10) 0.0400(12) 0.0203(9) 0.000 -0.0049(8) 0.000
O1 O2- 0.0175(18) 0.0049(17) 0.0142(18) -0.0036(15) -0.0074(15) 0.0010(14)
O2 O2- 0.026(3) 0.005(2) 0.008(2) 0.000 -0.001(2) 0.000
O3 O2- 0.0161(19) 0.0060(18) 0.0207(19) 0.0054(15) -0.0079(15) -0.0039(15)
B1 B3+ 0.005(3) 0.004(4) 0.010(4) 0.000 0.004(3) 0.000
O4 O2- 0.0094(17) 0.021(2) 0.0126(17) 0.0049(16) -0.0004(13) 0.0003(15)
O5 O2- 0.0117(17) 0.0070(17) 0.0154(17) 0.0015(14) 0.0006(14) 0.0002(14)
B2 B3+ 0.007(3) 0.007(3) 0.011(3) 0.000(2) 0.004(2) -0.001(2)
#End of data_413602-ICSD


