data_97506-ICSD
#?2014 by Fachinformationszentrum Karlsruhe, and the U.S. Secretary of 
#Commerce on behalf of the United States.  All rights reserved.
_database_code_ICSD                97506
_audit_creation_date               2004/10/01
_audit_update_record               2014/08/01
_chemical_name_systematic
;
Dipotassium Telluro(IV)tritungstate(VI)
;
_chemical_formula_structural       'K2 (Te W3 O12)'
_chemical_formula_sum              'K2 O12 Te1 W3'
_publ_section_title
;
Syntheses, structures and second-harmonic generating properties in 
new quaternary tellurites: A2 Te W3 O12 (A = K, Rb or Cs)
;
loop_
_citation_id
_citation_journal_abbrev
_citation_year
_citation_journal_volume
_citation_page_first
_citation_page_last
_citation_journal_id_ASTM
primary 'Journal of Solid State Chemistry' 2003 175 3 12 JSSCBI
_publ_author_name
;
Goodey, J.;Ok, K.M.;Broussard, J.;Hofmann, C.;Escobedo, 
F.V.;Halasyamani, P.S.
;
_cell_length_a                     7.3224(13)
_cell_length_b                     11.669(2)
_cell_length_c                     12.708(2)
_cell_angle_alpha                  90
_cell_angle_beta                   90.421(3)
_cell_angle_gamma                  90
_cell_volume                       1085.81
_cell_formula_units_Z              4
_symmetry_space_group_name_H-M     'P 1 21/n 1'
_symmetry_Int_Tables_number        14
_refine_ls_R_factor_all            .0621
loop_
_symmetry_equiv_pos_site_id
_symmetry_equiv_pos_as_xyz
  1	'-x+.5, y+.5, -z+.5'
  2	'-x, -y, -z'
  3	'x+.5, -y+.5, z+.5'
  4	'x, y, z'
loop_
_atom_type_symbol
_atom_type_oxidation_number
K1+	1
O2-	-2
Te4+	4
W6+	6
loop_
_atom_site_label
_atom_site_type_symbol
_atom_site_symmetry_multiplicity
_atom_site_Wyckoff_symbol
_atom_site_fract_x
_atom_site_fract_y
_atom_site_fract_z
_atom_site_occupancy
_atom_site_attached_hydrogens
_atom_site_U_iso_or_equiv
K1 K1+ 4 e 0.2515(9) 0.4526(6) -0.0804(5) 1. 0 0.0268(14) 
K2 K1+ 4 e 0.2572(10) 0.0713(7) 0.8887(6) 1. 0 0.0331(16) 
W1 W6+ 4 e 0.22662(13) 0.79728(8) 0.07895(7) 1. 0 0.0083(2) 
W2 W6+ 4 e 0.01970(13) 0.74331(8) 0.81889(7) 1. 0 0.0087(2) 
W3 W6+ 4 e 0.50923(13) 0.75371(8) 0.84138(7) 1. 0 0.0082(2) 
Te1 Te4+ 4 e 0.2506(2) 0.50466(13) 0.19709(12) 1. 0 0.0097(3) 
O1 O2- 4 e 0.438(2) 0.4204(15) 0.1320(14) 1. 0 0.012(3) 
O2 O2- 4 e 0.062(3) 0.4223(17) 0.1286(15) 1. 0 0.019(4) 
O3 O2- 4 e 0.255(2) 0.6199(16) 0.0970(14) 1. 0 0.014(4) 
O4 O2- 4 e 0.069(2) 0.7993(16) 0.1867(14) 1. 0 0.014(4) 
O5 O2- 4 e 0.443(3) 0.7703(18) -0.0242(16) 1. 0 0.022(4) 
O6 O2- 4 e 0.060(3) 0.7625(17) -0.0263(16) 1. 0 0.022(4) 
O7 O2- 4 e 0.245(3) -0.0564(18) 0.0552(16) 1. 0 0.022(4) 
O8 O2- 4 e 0.058(3) 0.8865(17) 0.7900(15) 1. 0 0.019(4) 
O9 O2- 4 e -0.069(2) 0.6950(15) 0.6888(13) 1. 0 0.011(3) 
O10 O2- 4 e 0.256(2) 0.6873(16) 0.8034(14) 1. 0 0.015(4) 
O11 O2- 4 e 0.445(3) 0.8872(16) 0.7876(14) 1. 0 0.015(4) 
O12 O2- 4 e 0.755(2) 0.7829(14) 0.8566(13) 1. 0 0.007(3) 

#End of data_97506-ICSD


