data_172528-ICSD
#?2014 by Fachinformationszentrum Karlsruhe, and the U.S. Secretary of 
#Commerce on behalf of the United States.  All rights reserved.
_database_code_ICSD                172528
_audit_creation_date               2007/04/01
_audit_update_record               2011/02/01
_chemical_name_systematic
;
Tripotassium Pentagadolinium Hexakis(phosphate(V))
;
_chemical_formula_structural       'K3 Gd5 (P O4)6'
_chemical_formula_sum              'Gd5 K3 O24 P6'
_publ_section_title
;
Potassium gadolinium phosphate with a tunnel structure: synthesis, 
structure, and optical properties of K3 Gd5 (P O4)6
;
loop_
_citation_id
_citation_journal_abbrev
_citation_year
_citation_journal_volume
_citation_journal_issue
_citation_page_first
_citation_page_last
_citation_journal_id_ASTM
primary 'Crystal Growth and Design' 2006 6 7 1649 1652 CGDEFU
_publ_author_name
;
Zhu, J.;Cheng, W.-D.;Wu, D.-S.;Zhang, H.;Gong, Y.-J.;Tong, H.-
N.;Zhao, D.
;
_cell_length_a                     17.470(3)
_cell_length_b                     6.9365(6)
_cell_length_c                     18.096(2)
_cell_angle_alpha                  90.00
_cell_angle_beta                   114.308(4)
_cell_angle_gamma                  90.00
_cell_volume                       1998.48
_cell_formula_units_Z              4
_symmetry_space_group_name_H-M     'C 1 2/c 1'
_symmetry_Int_Tables_number        15
_refine_ls_R_factor_all            .0345
loop_
_symmetry_equiv_pos_site_id
_symmetry_equiv_pos_as_xyz
  1	'x, -y, z+.5'
  2	'-x, -y, -z'
  3	'-x, y, -z+.5'
  4	'x, y, z'
  5	'x+.5, -y+.5, z+.5'
  6	'-x+.5, -y+.5, -z'
  7	'-x+.5, y+.5, -z+.5'
  8	'x+.5, y+.5, z'
loop_
_atom_type_symbol
_atom_type_oxidation_number
Gd3+	3
K1+	1
O2-	-2
P5+	5
loop_
_atom_site_label
_atom_site_type_symbol
_atom_site_symmetry_multiplicity
_atom_site_Wyckoff_symbol
_atom_site_fract_x
_atom_site_fract_y
_atom_site_fract_z
_atom_site_occupancy
_atom_site_attached_hydrogens
_atom_site_U_iso_or_equiv
Gd1 Gd3+ 4 e 0.0000 0.36440(6) 0.2500 1 0 0.00598(11) 
Gd2 Gd3+ 8 f 0.144119(18) -0.41390(4) 0.480988(17) 1 0 0.00634(10) 
Gd3 Gd3+ 8 f 0.219968(18) 0.12519(4) 0.292317(17) 1 0 0.00615(10) 
K1 K1+ 8 f 0.07631(10) 0.9032(2) 0.07451(10) 1 0 0.0186(3) 
K2 K1+ 4 e 0.0000 0.8284(3) 0.2500 1 0 0.0447(9) 
P1 P5+ 8 f 0.13589(10) 0.0846(2) 0.41351(10) 1 0 0.0062(3) 
P2 P5+ 8 f 0.20815(10) 0.6193(2) 0.34186(9) 1 0 0.0057(3) 
P3 P5+ 8 f -0.07314(9) 0.4040(2) 0.38281(9) 1 0 0.0054(3) 
O1 O2- 8 f 0.1999(3) 0.7861(6) 0.2835(2) 1 0 0.0101(9) 
O2 O2- 8 f -0.0999(3) 0.2524(6) 0.3138(2) 1 0 0.0094(9) 
O3 O2- 8 f 0.2291(3) 0.0676(6) 0.4261(3) 1 0 0.0095(9) 
O4 O2- 8 f 0.1230(3) 0.2515(6) 0.4607(3) 1 0 0.0129(10) 
O5 O2- 8 f 0.2541(3) 0.6698(6) 0.4313(3) 1 0 0.0098(9) 
O6 O2- 8 f -0.1461(3) 0.5391(6) 0.3760(3) 1 0 0.0116(9) 
O7 O2- 8 f -0.0047(3) 0.5223(6) 0.3703(3) 1 0 0.0094(9) 
O8 O2- 8 f 0.0979(3) -0.1024(6) 0.4270(3) 1 0 0.0115(9) 
O9 O2- 8 f -0.0469(3) 0.3055(6) 0.4650(2) 1 0 0.0098(9) 
O10 O2- 8 f 0.2551(3) 0.4603(6) 0.3177(3) 1 0 0.0104(9) 
O11 O2- 8 f 0.1201(3) 0.5493(6) 0.3299(3) 1 0 0.0100(9) 
O12 O2- 8 f 0.0925(3) 0.1277(6) 0.3195(2) 1 0 0.0093(9) 

loop_
_atom_site_aniso_label
_atom_site_aniso_type_symbol
_atom_site_aniso_U_11
_atom_site_aniso_U_22
_atom_site_aniso_U_33
_atom_site_aniso_U_12
_atom_site_aniso_U_13
_atom_site_aniso_U_23
Gd1 Gd3+ 0.0053(2) 0.0040(2) 0.0087(2) 0.000 0.00294(16) 0.000
Gd2 Gd3+ 0.00671(17) 0.00431(17) 0.00871(16) 0.00009(10) 0.00387(12) 
0.00006(10)
Gd3 Gd3+ 0.00616(17) 0.00431(16) 0.00838(16) 0.00033(10) 0.00341(12) 
0.00065(10)
K1 K1+ 0.0148(8) 0.0134(7) 0.0204(8) 0.0020(5) 0.0001(6) -0.0046(6)
K2 K1+ 0.0326(15) 0.0060(11) 0.0555(17) 0.000 -0.0223(12) 0.000
P1 P5+ 0.0073(8) 0.0034(7) 0.0087(7) 0.0007(5) 0.0042(6) 0.0001(5)
P2 P5+ 0.0088(8) 0.0021(7) 0.0083(8) -0.0004(6) 0.0056(6) -0.0008(5)
P3 P5+ 0.0051(8) 0.0044(7) 0.0070(8) -0.0007(5) 0.0028(6) -0.0008(5)
O1 O2- 0.016(2) 0.005(2) 0.011(2) -0.0016(17) 0.0075(18) 0.0021(16)
O2 O2- 0.008(2) 0.011(2) 0.011(2) -0.0034(17) 0.0060(17) -0.0031(17)
O3 O2- 0.007(2) 0.013(2) 0.010(2) 0.0028(17) 0.0046(17) 0.0022(17)
O4 O2- 0.016(2) 0.006(2) 0.020(2) -0.0008(17) 0.0106(19) -0.0064(18)
O5 O2- 0.013(2) 0.007(2) 0.010(2) -0.0009(17) 0.0060(17) -0.0008(17)
O6 O2- 0.008(2) 0.013(2) 0.015(2) 0.0055(17) 0.0057(18) -0.0022(18)
O7 O2- 0.011(2) 0.008(2) 0.013(2) -0.0029(17) 0.0088(17) -0.0010(17)
O8 O2- 0.012(2) 0.009(2) 0.014(2) -0.0016(16) 0.0058(19) 0.0007(17)
O9 O2- 0.009(2) 0.008(2) 0.011(2) 0.0004(16) 0.0034(17) 0.0001(17)
O10 O2- 0.016(2) 0.006(2) 0.012(2) 0.0015(17) 0.0078(18) 0.0023(17)
O11 O2- 0.014(2) 0.008(2) 0.011(2) -0.0011(17) 0.0079(18) -0.0031(16)
O12 O2- 0.010(2) 0.010(2) 0.008(2) -0.0033(16) 0.0049(18) -0.0021(16)
#End of data_172528-ICSD


