data_62756-ICSD
#?2014 by Fachinformationszentrum Karlsruhe, and the U.S. Secretary of 
#Commerce on behalf of the United States.  All rights reserved.
_database_code_ICSD                62756
_audit_creation_date               1988/07/15
_audit_update_record               2012/08/01
_chemical_name_systematic
;
Trisodium Tripotassium Bis(cyclo-triphosphate) - Telluric Acid (1/1)
;
_chemical_formula_structural       '(Na3 K3 (P3 O9)2) (Te (O H)6)'
_chemical_formula_sum              'H6 K3 Na3 O24 P6 Te1'
_publ_section_title
;
Crystal structure of a new adduct between telluric acid and alkali 
cyclo-triphosphates: Te (O H)6 * Na3 P3 O9 * K3 P3 O9.
;
loop_
_citation_id
_citation_journal_abbrev
_citation_year
_citation_journal_volume
_citation_page_first
_citation_page_last
_citation_journal_id_ASTM
primary 'Acta Crystallographica, Section C: Crystal Structure Communications'
 1987 43 1653 1655 ACSCEE
2 'Acta Crystallographica, Section C: Crystal Structure Communications'
 1988 44 774 774 ACSCEE
_publ_author_name                  'Averbuch-Pouchot, M.T.;Durif, A.'
_cell_length_a                     18.42(1)
_cell_length_b                     10.644(5)
_cell_length_c                     12.348(8)
_cell_angle_alpha                  90.
_cell_angle_beta                   119.76(5)
_cell_angle_gamma                  90.
_cell_volume                       2101.68
_cell_formula_units_Z              4
_symmetry_space_group_name_H-M     'C 1 2/c 1'
_symmetry_Int_Tables_number        15
_refine_ls_R_factor_all            .017
loop_
_symmetry_equiv_pos_site_id
_symmetry_equiv_pos_as_xyz
  1	'x, -y, z+.5'
  2	'-x, -y, -z'
  3	'-x, y, -z+.5'
  4	'x, y, z'
  5	'x+.5, -y+.5, z+.5'
  6	'-x+.5, -y+.5, -z'
  7	'-x+.5, y+.5, -z+.5'
  8	'x+.5, y+.5, z'
loop_
_atom_type_symbol
_atom_type_oxidation_number
H1+	1
K1+	1
Na1+	1
O2-	-2
P5+	5
Te6+	6
loop_
_atom_site_label
_atom_site_type_symbol
_atom_site_symmetry_multiplicity
_atom_site_Wyckoff_symbol
_atom_site_fract_x
_atom_site_fract_y
_atom_site_fract_z
_atom_site_occupancy
_atom_site_attached_hydrogens
Te1 Te6+ 4 c 0.25 0.25 0 1. 0 
K1 K1+ 4 e 0.5 0.14423(8) 0.25 1. 0 
K2 K1+ 8 f 0.19707(3) 0.05296(6) 0.24996(5) 1. 0 
P1 P5+ 8 f 0.33257(3) 0.33279(6) 0.47715(5) 1. 0 
P2 P5+ 8 f 0.48865(3) 0.32332(6) 0.47711(5) 1. 0 
P3 P5+ 8 f 0.09408(3) 0.40606(6) 0.52284(5) 1. 0 
Na1 Na1+ 8 f 0.09947(6) 0.3495(1) 0.24998(9) 1. 0 
Na2 Na1+ 4 e 0.5 0.5510(2) 0.25 1. 0 
O1 O2- 8 f 0.33408(10) 0.3676(2) 0.1046(2) 1. 0 
O2 O2- 8 f 0.20158(10) 0.2649(2) 0.1048(1) 1. 0 
O3 O2- 8 f 0.31902(11) 0.1174(2) 0.1049(2) 1. 0 
O4 O2- 8 f 0.39884(9) 0.3845(2) 0.4375(1) 1. 0 
O5 O2- 8 f 0.25159(10) 0.3925(2) 0.3908(2) 1. 0 
O6 O2- 8 f 0.13088(10) 0.1578(2) 0.3858(1) 1. 0 
O7 O2- 8 f 0.32711(9) 0.1871(2) 0.4374(1) 1. 0 
O8 O2- 8 f 0.0435(1) 0.1678(2) 0.1142(1) 1. 0 
O9 O2- 8 f 0.51584(9) 0.3718(2) 0.3906(1) 1. 0 
O10 O2- 8 f 0.46155(9) 0.1783(2) 0.4374(1) 1. 0 
O11 O2- 8 f 0.1265(1) 0.4856(2) 0.1090(1) 1. 0 
O12 O2- 8 f 0.04861(10) 0.4242(2) 0.3860(1) 1. 0 
H1 H1+ 8 f 0.370(2) 0.364(4) 0.093(3) 1. 0 
H2 H1+ 8 f 0.178(2) 0.323(4) 0.095(3) 1. 0 
H3 H1+ 8 f 0.293(2) 0.067(4) 0.087(3) 1. 0 

#End of data_62756-ICSD


