data_29450-ICSD
#?2014 by Fachinformationszentrum Karlsruhe, and the U.S. Secretary of 
#Commerce on behalf of the United States.  All rights reserved.
_database_code_ICSD                29450
_audit_creation_date               1985/01/31
_audit_update_record               2010/08/01
_chemical_name_systematic          'Sodium Catena-vanadate - Beta'
_chemical_formula_structural       'Na (V O3)'
_chemical_formula_sum              'Na1 O3 V1'
_chemical_name_mineral             Metamunirite
_publ_section_title
;
Das Entwaesserungsverhalten des Natriummetavanadatdihydrats und die 
Kristallstruktur des beta-Natriummetavanadats
;
loop_
_citation_id
_citation_journal_abbrev
_citation_year
_citation_journal_volume
_citation_page_first
_citation_page_last
_citation_journal_id_ASTM
primary 'Acta Crystallographica, Section B: Structural Science'
 1984 40 102 105 ASBSDK
_publ_author_name                  'Kato, K.;Takayama, E.'
_cell_length_a                     14.147(2)
_cell_length_b                     3.6496(6)
_cell_length_c                     5.364(1)
_cell_angle_alpha                  90.
_cell_angle_beta                   90.
_cell_angle_gamma                  90.
_cell_volume                       276.95
_cell_formula_units_Z              4
_symmetry_space_group_name_H-M     'P n m a'
_symmetry_Int_Tables_number        62
_refine_ls_R_factor_all            .094
loop_
_symmetry_equiv_pos_site_id
_symmetry_equiv_pos_as_xyz
  1	'x+.5, y, -z+.5'
  2	'x, -y+.5, z'
  3	'-x+.5, y+.5, z+.5'
  4	'-x, -y, -z'
  5	'-x+.5, -y, z+.5'
  6	'-x, y+.5, -z'
  7	'x+.5, -y+.5, -z+.5'
  8	'x, y, z'
loop_
_atom_type_symbol
_atom_type_oxidation_number
Na1+	1
O2-	-2
V5+	5
loop_
_atom_site_label
_atom_site_type_symbol
_atom_site_symmetry_multiplicity
_atom_site_Wyckoff_symbol
_atom_site_fract_x
_atom_site_fract_y
_atom_site_fract_z
_atom_site_occupancy
_atom_site_attached_hydrogens
Na1 Na1+ 4 c 0.3303(9) 0.25 -.115(3) 1. 0 
V1 V5+ 4 c 0.0844(4) 0.25 -.076(1) 1. 0 
O1 O2- 4 c 0.184(1) 0.25 0.100(6) 1. 0 
O2 O2- 4 c 0.110(2) 0.25 -.373(5) 1. 0 
O3 O2- 4 c -.052(1) 0.25 0.006(5) 1. 0 

#End of data_29450-ICSD


