data_35144-ICSD
#?2014 by Fachinformationszentrum Karlsruhe, and the U.S. Secretary of 
#Commerce on behalf of the United States.  All rights reserved.
_database_code_ICSD                35144
_audit_creation_date               1981/12/31
_audit_update_record               2010/02/01
_chemical_name_systematic          'Neodymium Aluminium Digermanate'
_chemical_formula_structural       'Nd Al (Ge2 O7)'
_chemical_formula_sum              'Al1 Ge2 Nd1 O7'
_publ_section_title
;
Re Al Ge2 O7, neue Verbindungen der Aluminium-Germanate Seltener 
Erden
;
loop_
_citation_id
_citation_journal_abbrev
_citation_year
_citation_journal_volume
_citation_page_first
_citation_page_last
_citation_journal_id_ASTM
primary Naturwissenschaften 1981 68 475 476 NATWAY
_publ_author_name
;
Jarchow, O.;Klaska, K.H.;Schenk, H.
;
_cell_length_a                     7.204(1)
_cell_length_b                     6.519(1)
_cell_length_c                     12.700(1)
_cell_angle_alpha                  90.
_cell_angle_beta                   117.4(4)
_cell_angle_gamma                  90.
_cell_volume                       529.52
_cell_formula_units_Z              4
_symmetry_space_group_name_H-M     'P 1 21/c 1'
_symmetry_Int_Tables_number        14
_refine_ls_R_factor_all            .0638
loop_
_symmetry_equiv_pos_site_id
_symmetry_equiv_pos_as_xyz
  1	'x, -y+.5, z+.5'
  2	'-x, -y, -z'
  3	'-x, y+.5, -z+.5'
  4	'x, y, z'
loop_
_atom_type_symbol
_atom_type_oxidation_number
Al3+	3
Ge4+	4
Nd3+	3
O2-	-2
loop_
_atom_site_label
_atom_site_type_symbol
_atom_site_symmetry_multiplicity
_atom_site_Wyckoff_symbol
_atom_site_fract_x
_atom_site_fract_y
_atom_site_fract_z
_atom_site_occupancy
_atom_site_attached_hydrogens
_atom_site_B_iso_or_equiv
Nd1 Nd3+ 4 e -.2377(2) 0.3525(2) 0.0259(1) 1. 0 0.36 
Al1 Al3+ 4 e -.2123(9) 0.1037(9) 0.2698(5) 1. 0 0.27 
Ge1 Ge4+ 4 e 0.2096(3) 0.1568(3) -.0488(2) 1. 0 0.35 
Ge2 Ge4+ 4 e 0.3021(3) 0.0904(3) 0.2197(2) 1. 0 0.34 
O1 O2- 4 e 0.2467(22) 0.0020(22) 0.0731(13) 1. 0 0.45 
O2 O2- 4 e 0.0054(21) 0.3380(21) -.0849(12) 1. 0 0.32 
O3 O2- 4 e 0.2036(23) -.0493(25) -.1344(14) 1. 0 0.78 
O4 O2- 4 e 0.4086(23) 0.3220(24) -.0231(14) 1. 0 0.74 
O5 O2- 4 e 0.2239(22) -.1162(22) 0.2778(13) 1. 0 0.39 
O6 O2- 4 e 0.1606(23) 0.3148(24) 0.1870(13) 1. 0 0.67 
O7 O2- 4 e 0.5732(22) 0.1283(22) 0.3013(13) 1. 0 0.43 

#End of data_35144-ICSD


