data_74760-ICSD
#?2014 by Fachinformationszentrum Karlsruhe, and the U.S. Secretary of 
#Commerce on behalf of the United States.  All rights reserved.
_database_code_ICSD                74760
_audit_creation_date               1995/10/17
_chemical_name_systematic          'Iron Aluminium Phosphate Oxide'
_chemical_formula_structural       'Fe Al (P O4) O'
_chemical_formula_sum              'Al1 Fe1 O5 P1'
_publ_section_title                'Crystal structure of FeAlPO5'
loop_
_citation_id
_citation_journal_abbrev
_citation_year
_citation_journal_volume
_citation_page_first
_citation_page_last
_citation_journal_id_ASTM
primary 'Zeitschrift fuer Kristallographie (1979-2010)' 1994 209 346 347 ZEKRDZ
_publ_author_name                  'Hesse, K.F.;Cemic, L.'
_cell_length_a                     7.141(3)
_cell_length_b                     10.549(4)
_cell_length_c                     5.493(3)
_cell_angle_alpha                  90.
_cell_angle_beta                   98.19(9)
_cell_angle_gamma                  90.
_cell_volume                       409.57
_cell_formula_units_Z              4
_symmetry_space_group_name_H-M     'P 1 21/c 1'
_symmetry_Int_Tables_number        14
_refine_ls_R_factor_all            .056
loop_
_symmetry_equiv_pos_site_id
_symmetry_equiv_pos_as_xyz
  1	'x, -y+.5, z+.5'
  2	'-x, -y, -z'
  3	'-x, y+.5, -z+.5'
  4	'x, y, z'
loop_
_atom_type_symbol
_atom_type_oxidation_number
Al3+	3
Fe2+	2
O2-	-2
P5+	5
loop_
_atom_site_label
_atom_site_type_symbol
_atom_site_symmetry_multiplicity
_atom_site_Wyckoff_symbol
_atom_site_fract_x
_atom_site_fract_y
_atom_site_fract_z
_atom_site_occupancy
_atom_site_attached_hydrogens
Fe1 Fe2+ 4 e 0.0169(1) 0.1441(1) 0.1086(1) 1. 0 
Al1 Al3+ 4 e 0.3578(2) 0.3261(1) 0.0563(3) 1. 0 
P1 P5+ 4 e 0.7780(2) 0.0972(1) 0.5693(2) 1. 0 
O1 O2- 4 e 0.2686(4) 0.2227(3) 0.2600(7) 1. 0 
O2 O2- 4 e 0.6022(5) 0.1746(3) 0.6122(7) 1. 0 
O3 O2- 4 e 0.2838(5) 0.4834(3) 0.0981(7) 1. 0 
O4 O2- 4 e 0.9114(5) 0.1808(3) 0.4417(6) 1. 0 
O5 O2- 4 e 0.1204(5) -.0492(3) 0.1820(7) 1. 0 

loop_
_atom_site_aniso_label
_atom_site_aniso_type_symbol
_atom_site_aniso_U_11
_atom_site_aniso_U_22
_atom_site_aniso_U_33
_atom_site_aniso_U_12
_atom_site_aniso_U_13
_atom_site_aniso_U_23
Fe1 Fe2+ 0.0090(3) 0.0040(3) 0.0063(3) 0.0000(3) -.0016(2) -.0013(3)
Al1 Al3+ 0.0075(7) 0.0028(6) 0.0063(7) -.0004(5) 0.0002(5) 0.0004(5)
P1 P5+ 0.0055(5) 0.0022(5) 0.0061(6) -.0005(4) -.0001(4) 0.0003(4)
O1 O2- 0.006(2) 0.004(1) 0.008(2) -.004(1) 0.000(1) 0.000(1)
O2 O2- 0.005(1) 0.007(2) 0.015(2) 0.001(1) 0.001(1) -.003(1)
O3 O2- 0.017(2) 0.002(2) 0.008(2) 0.004(1) -.001(1) 0.002(1)
O4 O2- 0.010(2) 0.004(1) 0.008(2) -.004(1) 0.004(1) 0.000(1)
O5 O2- 0.013(2) 0.002(1) 0.007(2) 0.001(1) -.004(1) 0.000(1)
#End of data_74760-ICSD


