data_260454-ICSD
#?2014 by Fachinformationszentrum Karlsruhe, and the U.S. Secretary of 
#Commerce on behalf of the United States.  All rights reserved.
_database_code_ICSD                260454
_audit_creation_date               2010/02/01
_chemical_name_systematic          'Potassium Cadmium Cyclo-triborate'
_chemical_formula_structural       'K Cd (B3 O6)'
_chemical_formula_sum              'B3 Cd1 K1 O6'
_publ_section_title
;
The centrosymmetric metal metaborate K Cd B3 O6
;
loop_
_citation_id
_citation_journal_abbrev
_citation_year
_citation_journal_volume
_citation_journal_issue
_citation_page_first
_citation_page_last
_citation_journal_id_ASTM
primary 'Acta Crystallographica, Section C: Crystal Structure Communications'
 2009 65 7 i42 i44 ACSCEE
_publ_author_name
;
Jin Shifeng;Chai Gemei;Liu Jun;Wang Wanyan;Chen Xiao Long
;
_cell_length_a                     7.1779(6)
_cell_length_b                     13.2152(12)
_cell_length_c                     12.5113(11)
_cell_angle_alpha                  90.00
_cell_angle_beta                   106.156(2)
_cell_angle_gamma                  90.00
_cell_volume                       1139.92
_cell_formula_units_Z              8
_symmetry_space_group_name_H-M     'C 1 2/c 1'
_symmetry_Int_Tables_number        15
_refine_ls_R_factor_all            .033
loop_
_symmetry_equiv_pos_site_id
_symmetry_equiv_pos_as_xyz
  1	'x, -y, z+.5'
  2	'-x, -y, -z'
  3	'-x, y, -z+.5'
  4	'x, y, z'
  5	'x+.5, -y+.5, z+.5'
  6	'-x+.5, -y+.5, -z'
  7	'-x+.5, y+.5, -z+.5'
  8	'x+.5, y+.5, z'
loop_
_atom_type_symbol
_atom_type_oxidation_number
B3+	3
Cd2+	2
K1+	1
O2-	-2
loop_
_atom_site_label
_atom_site_type_symbol
_atom_site_symmetry_multiplicity
_atom_site_Wyckoff_symbol
_atom_site_fract_x
_atom_site_fract_y
_atom_site_fract_z
_atom_site_occupancy
_atom_site_attached_hydrogens
_atom_site_U_iso_or_equiv
Cd1 Cd2+ 8 f 0.55106(3) 0.073621(15) 0.122180(16) 1 0 0.01587(9) 
K1 K1+ 8 f 0.07529(10) 0.24208(6) 0.13130(5) 1 0 0.02436(14) 
O1 O2- 8 f 0.1536(3) 0.43495(16) 0.0603(2) 1 0 0.0184(4) 
O2 O2- 8 f 0.7426(3) 0.38894(16) 0.1640(2) 1 0 0.0228(4) 
O3 O2- 8 f 0.4222(3) 0.32457(16) 0.08760(19) 1 0 0.0200(4) 
O4 O2- 8 f 0.7915(4) 0.56694(15) 0.1849(2) 1 0 0.0186(4) 
O5 O2- 8 f 0.4726(3) 0.50198(16) 0.12099(19) 1 0 0.0211(4) 
O6 O2- 8 f 0.6977(3) 0.21555(16) 0.1260(2) 1 0 0.0237(4) 
B1 B3+ 8 f 0.6220(4) 0.3059(2) 0.1259(2) 1 0 0.0160(5) 
B2 B3+ 8 f 0.6727(5) 0.4879(2) 0.1572(3) 1 0 0.0168(5) 
B3 B3+ 8 f 0.3451(5) 0.4216(2) 0.0884(3) 1 0 0.0153(5) 

loop_
_atom_site_aniso_label
_atom_site_aniso_type_symbol
_atom_site_aniso_U_11
_atom_site_aniso_U_22
_atom_site_aniso_U_33
_atom_site_aniso_U_12
_atom_site_aniso_U_13
_atom_site_aniso_U_23
Cd1 Cd2+ 0.01452(13) 0.01344(12) 0.01853(13) -0.00048(5) 0.00275(8) 
-0.00168(5)
K1 K1+ 0.0204(3) 0.0273(3) 0.0253(3) -0.0004(2) 0.0062(2) 0.0009(2)
O1 O2- 0.0141(9) 0.0184(9) 0.0204(10) 0.0025(7) 0.0009(7) -0.0037(7)
O2 O2- 0.0123(8) 0.0142(9) 0.0375(12) -0.0011(7) -0.0003(8) -0.0026(8)
O3 O2- 0.0114(8) 0.0142(8) 0.0311(10) 0.0002(7) 0.0007(7) -0.0032(7)
O4 O2- 0.0165(10) 0.0153(9) 0.0234(10) -0.0042(6) 0.0046(8) -0.0023(7)
O5 O2- 0.0150(9) 0.0134(8) 0.0320(11) 0.0000(7) 0.0016(8) -0.0041(8)
O6 O2- 0.0158(9) 0.0118(9) 0.0429(13) 0.0003(7) 0.0069(9) 0.0020(8)
B1 B3+ 0.0129(11) 0.0146(11) 0.0182(12) -0.0002(9) 0.0006(9) 0.0011(9)
B2 B3+ 0.0159(12) 0.0154(11) 0.0178(12) -0.0011(9) 0.0025(10) -0.0021(10)
B3 B3+ 0.0126(13) 0.0152(12) 0.0155(13) 0.0020(8) -0.0006(10) -0.0022(8)
#End of data_260454-ICSD


