data_74940-ICSD
#?2014 by Fachinformationszentrum Karlsruhe, and the U.S. Secretary of 
#Commerce on behalf of the United States.  All rights reserved.
_database_code_ICSD                74940
_audit_creation_date               1995/10/17
_chemical_name_systematic          'Dipotassium Cobaltate(II)'
_chemical_formula_structural       'K2 (Co O2)'
_chemical_formula_sum              'Co1 K2 O2'
_publ_section_title
;
Das erste Oxocobaltat des Typs A2Co(II)O2: K2CoO2=K4(OCoO2CoO)
;
loop_
_citation_id
_citation_journal_abbrev
_citation_year
_citation_journal_volume
_citation_page_first
_citation_page_last
_citation_journal_id_ASTM
primary 'Zeitschrift fuer Anorganische und Allgemeine Chemie (1950) (DE)'
 1994 620 586 591 ZAACAB
_publ_author_name                  'Bernhardt, F.;Hoppe, R.'
_cell_length_a                     6.515(1)
_cell_length_b                     9.5298(7)
_cell_length_c                     6.957(1)
_cell_angle_alpha                  90.
_cell_angle_beta                   117.29(1)
_cell_angle_gamma                  90.
_cell_volume                       383.86
_cell_formula_units_Z              4
_symmetry_space_group_name_H-M     'P 1 21/c 1'
_symmetry_Int_Tables_number        14
_refine_ls_R_factor_all            .032
loop_
_symmetry_equiv_pos_site_id
_symmetry_equiv_pos_as_xyz
  1	'x, -y+.5, z+.5'
  2	'-x, -y, -z'
  3	'-x, y+.5, -z+.5'
  4	'x, y, z'
loop_
_atom_type_symbol
_atom_type_oxidation_number
Co2+	2
K1+	1
O2-	-2
loop_
_atom_site_label
_atom_site_type_symbol
_atom_site_symmetry_multiplicity
_atom_site_Wyckoff_symbol
_atom_site_fract_x
_atom_site_fract_y
_atom_site_fract_z
_atom_site_occupancy
_atom_site_attached_hydrogens
K1 K1+ 4 e 0.7818(1) 0.9137(1) 0.0992(1) 1. 0 
K2 K1+ 4 e 0.2440(1) 0.7364(1) 0.1349(1) 1. 0 
Co1 Co2+ 4 e 0.6898(1) 0.5664 0.0868(1) 1. 0 
O1 O2- 4 e 0.5117(4) 0.5189(3) 0.8017(4) 1. 0 
O2 O2- 4 e 0.0539(4) 0.1491(3) 0.2292(4) 1. 0 

loop_
_atom_site_aniso_label
_atom_site_aniso_type_symbol
_atom_site_aniso_U_11
_atom_site_aniso_U_22
_atom_site_aniso_U_33
_atom_site_aniso_U_12
_atom_site_aniso_U_13
_atom_site_aniso_U_23
K1 K1+ 0.0157(3) 0.0155(3) 0.0187(3) 0.0010(2) 0.0071(3) 0.0011(3)
K2 K1+ 0.0167(3) 0.0197(4) 0.0175(3) 0.0024(3) 0.0080(3) 0.0022(3)
Co1 Co2+ 0.0092(2) 0.0118(2) 0.0124(2) -.0010(1) 0.0041(2) -.0012(1)
O1 O2- 0.0147(10) 0.0244(13) 0.0119(10) -.0053(9) 0.0071(9) -.0014(9)
O2 O2- 0.0131(10) 0.0180(13) 0.0165(10) 0.0051(9) 0.0035(9) 0.0028(9)
#End of data_74940-ICSD


