data_190039-ICSD
#?2014 by Fachinformationszentrum Karlsruhe, and the U.S. Secretary of 
#Commerce on behalf of the United States.  All rights reserved.
_database_code_ICSD                190039
_audit_creation_date               2014/08/01
_chemical_name_systematic          'Octacalcium Pentasilicate'
_chemical_formula_structural       'Ca8 (Si O4)2 (Si3 O10)'
_chemical_formula_sum              'Ca8 O18 Si5'
_chemical_name_mineral             Pavlovskyite
_publ_section_title
;
Pavlovskyite Ca8 (Si O4)2 (Si3 O10): A new mineral of altered 
silicate-carbonate xenoliths from the two Russian type localities, 
Birkhin massif, Baikal Lake area and Upper Chegem caldera, North 
Caucasus
;
loop_
_citation_id
_citation_journal_abbrev
_citation_year
_citation_journal_volume
_citation_journal_issue
_citation_page_first
_citation_page_last
_citation_journal_id_ASTM
primary 'American Mineralogist' 2012 97 4 503 512 AMMIAY
_publ_author_name
;
Evgeny V. Galuskin;Frank Gfeller;Valentina B. Savelyeva;Thomas 
Armbruster;Biljana Lazic;Irina O. Galuskina;Daniel M. 
Toebbens;Aleksandr E. Zadov;Piotr Dzierzanowski;Nikolai N. 
Pertsev;Viktor M. Gazeev
;
_cell_length_a                     5.08510(10)
_cell_length_b                     11.4165(3)
_cell_length_c                     28.6408(8)
_cell_angle_alpha                  90.
_cell_angle_beta                   90.
_cell_angle_gamma                  90.
_cell_volume                       1662.71
_cell_formula_units_Z              4
_symmetry_space_group_name_H-M     'P b c n'
_symmetry_Int_Tables_number        60
_refine_ls_R_factor_all            .0387
loop_
_symmetry_equiv_pos_site_id
_symmetry_equiv_pos_as_xyz
  1	'x, -y, z+.5'
  2	'-x+.5, y+.5, z'
  3	'x+.5, y+.5, -z+.5'
  4	'-x, -y, -z'
  5	'-x, y, -z+.5'
  6	'x+.5, -y+.5, -z'
  7	'-x+.5, -y+.5, z+.5'
  8	'x, y, z'
loop_
_atom_type_symbol
_atom_type_oxidation_number
Ca2+	2
O2-	-2
Si4+	4
loop_
_atom_site_label
_atom_site_type_symbol
_atom_site_symmetry_multiplicity
_atom_site_Wyckoff_symbol
_atom_site_fract_x
_atom_site_fract_y
_atom_site_fract_z
_atom_site_occupancy
_atom_site_attached_hydrogens
_atom_site_U_iso_or_equiv
Si1 Si4+ 8 d 0.57130(16) 0.40471(8) 0.44237(3) 1. 0 0.01033(17) 
Si2 Si4+ 8 d 0.44100(16) 0.59487(8) 0.32685(3) 1. 0 0.01072(18) 
Si3 Si4+ 4 c 0.5 0.76288(10) 0.250 1. 0 0.0104(2) 
Ca1 Ca2+ 8 d 0.49692(12) 0.71708(5) 0.44226(2) 1. 0 0.01152(13) 
Ca2 Ca2+ 4 b 0 0.5 0.5 1. 0 0.01216(18) 
Ca3 Ca2+ 8 d 0.99397(13) 0.48889(6) 0.37768(2) 1. 0 0.01380(14) 
Ca4 Ca2+ 8 d 0.50366(12) 0.28416(5) 0.33030(2) 1. 0 0.01147(14) 
Ca5 Ca2+ 4 c 0 0.51645(8) 0.250 1. 0 0.01329(18) 
O1 O2- 8 d 0.7049(4) 0.53615(19) 0.44034(8) 1. 0 0.0129(4) 
O2 O2- 8 d 0.7027(4) 0.3358(2) 0.39786(8) 1. 0 0.0138(5) 
O3 O2- 8 d 0.7018(4) 0.34189(19) 0.48832(8) 1. 0 0.0129(5) 
O4 O2- 8 d 0.2523(4) 0.4051(2) 0.44082(8) 1. 0 0.0124(4) 
O5 O2- 8 d 0.3015(4) 0.6569(2) 0.37139(8) 1. 0 0.0141(5) 
O6 O2- 8 d 0.3092(4) 0.4676(2) 0.32021(9) 1. 0 0.0142(5) 
O7 O2- 8 d 0.3118(4) 0.67239(19) 0.28132(8) 1. 0 0.0123(5) 
O8 O2- 8 d 0.7570(4) 0.5992(2) 0.32323(8) 1. 0 0.0129(5) 
O9 O2- 8 d 0.6745(4) 0.8431(2) 0.28283(9) 1. 0 0.0168(5) 

#End of data_190039-ICSD


