data_167832-ICSD
#?2014 by Fachinformationszentrum Karlsruhe, and the U.S. Secretary of 
#Commerce on behalf of the United States.  All rights reserved.
_database_code_ICSD                167832
_audit_creation_date               2011/02/01
_audit_update_record               2013/08/01
_chemical_name_systematic          'Zinc Calcium Selenide (0.5/0.5/1)'
_chemical_formula_structural       '(Zn0.5 Ca0.5) Se'
_chemical_formula_sum              'Ca0.5 Se1 Zn0.5'
_publ_section_title
;
The electronic and optical properties of Zn1-x Cax Se mixed alloys
;
loop_
_citation_id
_citation_journal_abbrev
_citation_year
_citation_journal_volume
_citation_page_first
_citation_page_last
_citation_journal_id_ASTM
primary 'Solid State Communications' 2010 150 1413 1418 SSCOA4
_publ_author_name
;
Surucu, G.;Colakoglu, K.;Deligoz, E.;Korozlu, N.;Ciftci, Y.O.
;
_cell_length_a                     4.26
_cell_length_b                     4.26
_cell_length_c                     6.38
_cell_angle_alpha                  90.
_cell_angle_beta                   90.
_cell_angle_gamma                  90.
_cell_volume                       115.78
_cell_formula_units_Z              2
_symmetry_space_group_name_H-M     'P -4 m 2'
_symmetry_Int_Tables_number        115
loop_
_symmetry_equiv_pos_site_id
_symmetry_equiv_pos_as_xyz
  1	'-y, -x, -z'
  2	'x, -y, z'
  3	'y, x, -z'
  4	'-x, y, z'
  5	'y, -x, -z'
  6	'-x, -y, z'
  7	'-y, x, -z'
  8	'x, y, z'
loop_
_atom_type_symbol
_atom_type_oxidation_number
Ca2+	2
Se2-	-2
Zn2+	2
loop_
_atom_site_label
_atom_site_type_symbol
_atom_site_symmetry_multiplicity
_atom_site_Wyckoff_symbol
_atom_site_fract_x
_atom_site_fract_y
_atom_site_fract_z
_atom_site_occupancy
_atom_site_attached_hydrogens
Ca1 Ca2+ 1 a 0 0 0 1. 0 
Zn1 Zn2+ 1 c 0.5 0.5 0.5 1. 0 
Se1 Se2- 2 g 0.5 0 0.292 1. 0 

#End of data_167832-ICSD


