data_66638-ICSD
#?2014 by Fachinformationszentrum Karlsruhe, and the U.S. Secretary of 
#Commerce on behalf of the United States.  All rights reserved.
_database_code_ICSD                66638
_audit_creation_date               1994/01/19
_audit_update_record               2012/08/01
_chemical_name_systematic
;
Calcium Copper Platinum(IV) Oxide (3.5/0.5/1/6)
;
_chemical_formula_structural       'Ca3.5 Cu0.5 Pt O6'
_chemical_formula_sum              'Ca3.5 Cu0.5 O6 Pt1'
_publ_section_title
;
Ein neues Erdakalimetall-Oxoplatinate-Cuprate Ca3.5 Cu0.5 Pt O6
;
loop_
_citation_id
_citation_journal_abbrev
_citation_year
_citation_journal_volume
_citation_page_first
_citation_page_last
_citation_journal_id_ASTM
primary 'Zeitschrift fuer Anorganische und Allgemeine Chemie (1950) (DE)'
 1992 617 23 26 ZAACAB
_publ_author_name
;
Tomaszewska, A.;Mueller Buschbaum, H.
;
_cell_length_a                     9.0743(64)
_cell_length_b                     9.2527(67)
_cell_length_c                     6.4840(62)
_cell_angle_alpha                  90.
_cell_angle_beta                   91.448(48)
_cell_angle_gamma                  90.
_cell_volume                       544.23
_cell_formula_units_Z              4
_symmetry_space_group_name_H-M     'C 1 2 1'
_symmetry_Int_Tables_number        5
_refine_ls_R_factor_all            .055
loop_
_symmetry_equiv_pos_site_id
_symmetry_equiv_pos_as_xyz
  1	'-x, y, -z'
  2	'x, y, z'
  3	'-x+.5, y+.5, -z'
  4	'x+.5, y+.5, z'
loop_
_atom_type_symbol
_atom_type_oxidation_number
Ca2+	2
Cu2+	2
O2-	-2
Pt4+	4
loop_
_atom_site_label
_atom_site_type_symbol
_atom_site_symmetry_multiplicity
_atom_site_Wyckoff_symbol
_atom_site_fract_x
_atom_site_fract_y
_atom_site_fract_z
_atom_site_occupancy
_atom_site_attached_hydrogens
_atom_site_B_iso_or_equiv
Pt1 Pt4+ 4 c 0.2521(2) 0.2500(1) 0.2456(3) 1. 0 0.363(8) 
Ca1 Ca2+ 4 c 0.3200(6) 0.0766(6) 0.8661(7) 1. 0 0.43(6) 
Ca2 Ca2+ 4 c 0.6855(7) 0.9394(7) 0.6382(8) 1. 0 1.10(6) 
Ca3 Ca2+ 2 b 0 0.1211(8) 0.5 1. 0 1.08(7) 
Ca4 Ca2+ 2 a 0 0.8990(7) 0 1. 0 0.45(6) 
Ca5 Ca2+ 2 a 0 0.2422(9) 0 1. 0 0.269(7) 
Cu1 Cu2+ 2 b 0.5 0.2034(7) 0.5 1. 0 2.09(7) 
O1 O2- 4 c 0.2361(9) 0.3233(9) 0.949(1) 1. 0 0.79(7) 
O2 O2- 4 c 0.7872(9) 0.6926(9) 0.539(1) 1. 0 0.86(7) 
O3 O2- 4 c 0.3787(9) 0.4247(9) 0.341(1) 1. 0 0.43(7) 
O4 O2- 4 c 0.642(1) 0.574(1) 0.185(1) 1. 0 1.21(6) 
O5 O2- 4 c 0.0553(9) 0.3478(9) 0.300(1) 1. 0 0.83(7) 
O6 O2- 4 c 0.9360(9) 0.6447(9) 0.209(1) 1. 0 0.64(7) 

#End of data_66638-ICSD


