data_164182-ICSD
#?2014 by Fachinformationszentrum Karlsruhe, and the U.S. Secretary of 
#Commerce on behalf of the United States.  All rights reserved.
_database_code_ICSD                164182
_audit_creation_date               2010/02/01
_audit_update_record               2013/08/01
_chemical_name_systematic
;
Calcium Bis(tetrahydridoborate) - Alpha
;
_chemical_formula_structural       'Ca (B H4)2'
_chemical_formula_sum              'H8 B2 Ca1'
_publ_section_title
;
Crystal structure and phonon instability of high-temperature beta-(Ca 
(B H4)2)
;
loop_
_citation_id
_citation_journal_abbrev
_citation_year
_citation_journal_volume
_citation_page_first
_citation_page_last
_citation_journal_id_ASTM
primary 'Physical Review, Serie 3. B - Condensed Matter (18,1978-)'
 2009 79 104107-1 104107-9 PRBMDO
_publ_author_name
;
Lee Young Su;Kim Yoonyoung;Cho Young Whan;Shapiro, D.;Wolverton, 
C.;Ozolins, V.
;
_cell_length_a                     8.745
_cell_length_b                     13.105
_cell_length_c                     7.495
_cell_angle_alpha                  90.
_cell_angle_beta                   90.
_cell_angle_gamma                  90.
_cell_volume                       858.95
_cell_formula_units_Z              8
_symmetry_space_group_name_H-M     'F d d d S'
_symmetry_Int_Tables_number        70
loop_
_symmetry_equiv_pos_site_id
_symmetry_equiv_pos_as_xyz
  1	'x+.25, y+.25, -z+.25'
  2	'-x+.25, y+.25, z+.25'
  3	'-x, -y, z'
  4	'x, -y, -z'
  5	'x+.25, -y+.25, z+.25'
  6	'-x+.25, -y+.25, -z+.25'
  7	'-x, y, -z'
  8	'x, y, z'
  9	'x+.25, y+.75, -z+.75'
 10	'x+.75, y+.25, -z+.75'
 11	'x+.75, y+.75, -z+.25'
 12	'-x+.25, y+.75, z+.75'
 13	'-x+.75, y+.25, z+.75'
 14	'-x+.75, y+.75, z+.25'
 15	'-x, -y+.5, z+.5'
 16	'-x+.5, -y, z+.5'
 17	'-x+.5, -y+.5, z'
 18	'x, -y+.5, -z+.5'
 19	'x+.5, -y, -z+.5'
 20	'x+.5, -y+.5, -z'
 21	'x+.25, -y+.75, z+.75'
 22	'x+.75, -y+.25, z+.75'
 23	'x+.75, -y+.75, z+.25'
 24	'-x+.25, -y+.75, -z+.75'
 25	'-x+.75, -y+.25, -z+.75'
 26	'-x+.75, -y+.75, -z+.25'
 27	'-x, y+.5, -z+.5'
 28	'-x+.5, y, -z+.5'
 29	'-x+.5, y+.5, -z'
 30	'x, y+.5, z+.5'
 31	'x+.5, y, z+.5'
 32	'x+.5, y+.5, z'
loop_
_atom_type_symbol
_atom_type_oxidation_number
B3+	3
Ca2+	2
H1-	-1
loop_
_atom_site_label
_atom_site_type_symbol
_atom_site_symmetry_multiplicity
_atom_site_Wyckoff_symbol
_atom_site_fract_x
_atom_site_fract_y
_atom_site_fract_z
_atom_site_occupancy
_atom_site_attached_hydrogens
_atom_site_B_iso_or_equiv
Ca1 Ca2+ 8 a 0 0 0 1. 0 1.4 
B1 B3+ 16 f 0 0.2219 0 1. 0 2.4 
H1 H1- 32 h -0.1129 0.2763 0.0108 1. 0 7.2 
H2 H1- 32 h -0.0002 0.1687 0.1353 1. 0 3.6 

loop_
_atom_site_aniso_label
_atom_site_aniso_type_symbol
_atom_site_aniso_U_11
_atom_site_aniso_U_22
_atom_site_aniso_U_33
_atom_site_aniso_U_12
_atom_site_aniso_U_13
_atom_site_aniso_U_23
Ca1 Ca2+ 0.017 0.018 0.018 0. 0. 0.
B1 B3+ 0.033 0.022 0.036 0. -0.018 0.
H1 H1- 0.101 0.093 0.079 0.068 -0.053 -0.042
H2 H1- 0.055 0.042 0.039 -0.001 -0.002 0.004
#End of data_164182-ICSD


