data_300185-ICSD
#?2014 by Fachinformationszentrum Karlsruhe, and the U.S. Secretary of 
#Commerce on behalf of the United States.  All rights reserved.
_database_code_ICSD                300185
_audit_creation_date               1991/07/10
_audit_update_record               1991/10/31
_chemical_name_systematic
;
Tetrasodium Tetratellurodiarsenate(II)
;
_chemical_formula_structural       'Na4 As2 Te4'
_chemical_formula_sum              'As2 Na4 Te4'
_publ_section_title
;
Crystal structure of tetrasodium tetratellurodiarsenate(II)
;
loop_
_citation_id
_citation_journal_abbrev
_citation_year
_citation_journal_volume
_citation_page_first
_citation_page_last
_citation_journal_id_ASTM
primary 'Zeitschrift fuer Kristallographie (1979-2010)' 1991 197 261 262 ZEKRDZ
_publ_author_name                  'Eisenmann, B.;Zagler, R.'
_cell_length_a                     13.988(5)
_cell_length_b                     9.819(4)
_cell_length_c                     8.714(4)
_cell_angle_alpha                  90.
_cell_angle_beta                   90.
_cell_angle_gamma                  90.
_cell_volume                       1196.85
_cell_formula_units_Z              4
_symmetry_space_group_name_H-M     'P 21 21 21'
_symmetry_Int_Tables_number        19
_refine_ls_R_factor_all            .0592
loop_
_symmetry_equiv_pos_site_id
_symmetry_equiv_pos_as_xyz
  1	'-x, y+.5, -z+.5'
  2	'x+.5, -y+.5, -z'
  3	'-x+.5, -y, z+.5'
  4	'x, y, z'
loop_
_atom_type_symbol
_atom_type_oxidation_number
As2+	2
Na1+	1
Te2-	-2
loop_
_atom_site_label
_atom_site_type_symbol
_atom_site_symmetry_multiplicity
_atom_site_Wyckoff_symbol
_atom_site_fract_x
_atom_site_fract_y
_atom_site_fract_z
_atom_site_occupancy
_atom_site_attached_hydrogens
Na1 Na1+ 4 a 0.11926(90) -.6093(14) 0.1612(14) 1. 0 
Na2 Na1+ 4 a 0.12611(90) -.3751(12) -.1733(15) 1. 0 
Na3 Na1+ 4 a 0.0587(10) -.0030(16) -.0165(23) 1. 0 
Na4 Na1+ 4 a 0.1868(14) -.1899(13) 0.4263(17) 1. 0 
As1 As2+ 4 a 0.81107(20) -.22483(30) -.14925(30) 1. 0 
As2 As2+ 4 a 0.88425(20) -.39729(30) 0.02248(30) 1. 0 
Te1 Te2- 4 a 0.81651(10) -.00505(20) 0.01238(20) 1. 0 
Te2 Te2- 4 a 0.03456(10) -.29121(20) 0.1474(2) 1. 0 
Te3 Te2- 4 a 0.75157(10) -.40732(20) 0.23165(20) 1. 0 
Te4 Te2- 4 a 0.95662(10) -.19945(20) -.33248(20) 1. 0 

#End of data_300185-ICSD


