data_280773-ICSD
#?2014 by Fachinformationszentrum Karlsruhe, and the U.S. Secretary of 
#Commerce on behalf of the United States.  All rights reserved.
_database_code_ICSD                280773
_audit_creation_date               2002/10/01
_audit_update_record               2005/10/01
_chemical_name_systematic          'Aluminium Phosphate(V) - Ht'
_chemical_formula_structural       'Al (P O4)'
_chemical_formula_sum              'Al1 O4 P1'
_publ_section_title
;
Monoclinic Al P O4 tridymite at 473 and 463 K, from X-ray powder data
;
loop_
_citation_id
_citation_journal_abbrev
_citation_year
_citation_journal_volume
_citation_page_first
_citation_page_last
_citation_journal_id_ASTM
primary 'Acta Crystallographica, Section C: Crystal Structure Communications'
 2002 58 i18 i20 ACSCEE
_publ_author_name                  'Graetsch, H.A.'
_cell_length_a                     5.0803(2)
_cell_length_b                     5.0703(2)
_cell_length_c                     8.2992(3)
_cell_angle_alpha                  90.
_cell_angle_beta                   90.
_cell_angle_gamma                  119.6040(3)
_cell_volume                       185.87
_cell_formula_units_Z              2
_symmetry_space_group_name_H-M     'P 1 1 21'
_symmetry_Int_Tables_number        4
_refine_ls_R_factor_all            .011
loop_
_symmetry_equiv_pos_site_id
_symmetry_equiv_pos_as_xyz
  1	'-x, -y, z+.5'
  2	'x, y, z'
loop_
_atom_type_symbol
_atom_type_oxidation_number
Al3+	3
O2-	-2
P5+	5
loop_
_atom_site_label
_atom_site_type_symbol
_atom_site_symmetry_multiplicity
_atom_site_Wyckoff_symbol
_atom_site_fract_x
_atom_site_fract_y
_atom_site_fract_z
_atom_site_occupancy
_atom_site_attached_hydrogens
Al1 Al3+ 2 a 0.3515(13) 0.6324(11) 0.0625 1. 0 
P1 P5+ 2 a 0.3152(12) 0.7015(11) 0.4368(4) 1. 0 
O1 O2- 2 a 0.3347(16) 0.6661(18) 0.2616(5) 1. 0 
O2 O2- 2 a 0.537(3) -.027(2) -.0237(11) 1. 0 
O3 O2- 2 a 0.005(2) 0.443(3) -.0149(13) 1. 0 
O4 O2- 2 a 0.536(3) 0.441(3) 0.0247(9) 1. 0 

loop_
_atom_site_aniso_label
_atom_site_aniso_type_symbol
_atom_site_aniso_U_11
_atom_site_aniso_U_22
_atom_site_aniso_U_33
_atom_site_aniso_U_12
_atom_site_aniso_U_13
_atom_site_aniso_U_23
Al1 Al3+ 0.039(5) 0.040(5) 0.051(4) 0.012(7) -.022(7) -.016(8)
P1 P5+ 0.042(4) 0.038(4) 0.033(4) 0.020(3) 0.007(6) 0.002(6)
O1 O2- 0.13(1) 0.15(2) 0.014(4) 0.070(7) 0.03(2) 0.00(2)
O2 O2- 0.18(2) 0.06(2) 0.05(2) 0.06(2) 0.03(2) 0.02(1)
O3 O2- 0.03(1) 0.12(2) 0.17(2) 0.02(1) -.05(1) -.04(2)
O4 O2- 0.16(2) 0.13(2) 0.12(2) 0.13(2) 0.01(2) -.02(2)
#End of data_280773-ICSD


