data_68997-ICSD
#?2014 by Fachinformationszentrum Karlsruhe, and the U.S. Secretary of 
#Commerce on behalf of the United States.  All rights reserved.
_database_code_ICSD                68997
_audit_creation_date               1992/01/20
_chemical_name_systematic
;
Dipotassium Tricobalt Diphosphate Dihydrate
;
_chemical_formula_structural       'K2 Co3 (P2 O7)2 (H2 O)2'
_chemical_formula_sum              'H4 Co3 K2 O16 P4'
_publ_section_title
;
Hydrothermal synthesis and crystal structure of a new layered 
phosphate, K2Co3(P2O7)4/2 . 2H2O
;
loop_
_citation_id
_citation_journal_abbrev
_citation_year
_citation_journal_volume
_citation_page_first
_citation_page_last
_citation_journal_id_ASTM
primary 'Journal of Solid State Chemistry' 1990 85 275 282 JSSCBI
_publ_author_name
;
Lightfoot, P.;Cheetham, A.K.;Sleight, A.W.
;
_cell_length_a                     9.229(2)
_cell_length_b                     8.110(1)
_cell_length_c                     9.122(4)
_cell_angle_alpha                  90.
_cell_angle_beta                   99.31(4)
_cell_angle_gamma                  90.
_cell_volume                       673.76
_cell_formula_units_Z              2
_symmetry_space_group_name_H-M     'P 1 21/a 1'
_symmetry_Int_Tables_number        14
_refine_ls_R_factor_all            .023
loop_
_symmetry_equiv_pos_site_id
_symmetry_equiv_pos_as_xyz
  1	'x+.5, -y+.5, z'
  2	'-x, -y, -z'
  3	'-x+.5, y+.5, -z'
  4	'x, y, z'
loop_
_atom_type_symbol
_atom_type_oxidation_number
Co2+	2
H1+	1
K1+	1
O2-	-2
P5+	5
loop_
_atom_site_label
_atom_site_type_symbol
_atom_site_symmetry_multiplicity
_atom_site_Wyckoff_symbol
_atom_site_fract_x
_atom_site_fract_y
_atom_site_fract_z
_atom_site_occupancy
_atom_site_attached_hydrogens
_atom_site_U_iso_or_equiv
Co1 Co2+ 2 b 0.5 0 0.5 1. 0 0 
Co2 Co2+ 4 e 0.00301(1) 0.14106(1) 0.36634(1) 1. 0 0 
K1 K1+ 4 e 0.52232(2) 0.22557(3) 0.92540(2) 1. 0 0 
P1 P5+ 4 e 0.79055(2) 0.19783(2) 0.60177(2) 1. 0 0 
P2 P5+ 4 e 0.26520(2) 0.06848(2) 0.19785(2) 1. 0 0 
O1 O2- 4 e 0.38804(7) 0.12591(7) 0.31977(7) 1. 0 0 
O2 O2- 4 e 0.36280(6) 0.13646(7) 0.63700(7) 1. 0 0 
O3 O2- 4 e 0.88878(6) 0.07555(7) 0.53883(6) 1. 0 0 
O4 O2- 4 e 0.63743(6) 0.20410(7) 0.51051(7) 1. 0 0 
O5 O2- 4 e 0.76597(7) 0.12459(7) 0.76174(6) 1. 0 0 
O6 O2- 4 e 0.30974(8) 0.05807(8) 0.04659(7) 1. 0 0 
O7 O2- 4 e 0.84379(8) 0.0067(1) 0.22668(8) 1. 0 0 
O8 O2- 4 e 0.12179(7) 0.15853(8) 0.19798(7) 1. 0 0 
H1 H1+ 4 e 0.230(3) 0.023(3) 0.734(3) 1. 0 0.032(5) 
H2 H1+ 4 e 0.201(3) -.008(4) 0.865(4) 1. 0 0.040(8) 

loop_
_atom_site_aniso_label
_atom_site_aniso_type_symbol
_atom_site_aniso_U_11
_atom_site_aniso_U_22
_atom_site_aniso_U_33
_atom_site_aniso_U_12
_atom_site_aniso_U_13
_atom_site_aniso_U_23
Co1 Co2+ 0.00730(5) 0.00678(5) 0.00924(6) -.00059(3) -.00082(4) 0.00117(3)
Co2 Co2+ 0.00754(4) 0.00748(4) 0.00838(4) 0.00022(2) 0.00131(3) -.00031(2)
K1 K1+ 0.01732(7) 0.02012(8) 0.01534(7) 0.00163(6) -.00019(5) -.00153(5)
P1 P5+ 0.00532(6) 0.00586(6) 0.00727(6) 0.00004(4) 0.00094(5) -.00010(4)
P2 P5+ 0.00711(7) 0.00876(7) 0.00604(6) -.00062(5) 0.00078(5) 0.00060(5)
O1 O2- 0.0106(2) 0.0095(2) 0.0107(2) -.0022(2) -.0026(2) 0.0008(1)
O2 O2- 0.0101(2) 0.0073(2) 0.0122(2) 0.0025(1) 0.0024(2) 0.0011(1)
O3 O2- 0.0090(2) 0.0082(2) 0.0110(2) 0.0023(1) 0.0036(1) 0.0004(1)
O4 O2- 0.0065(2) 0.0092(2) 0.0128(2) 0.0000(1) -.0015(1) 0.0016(1)
O5 O2- 0.0132(2) 0.0091(2) 0.0081(2) -.0020(2) 0.0024(2) 0.0002(1)
O6 O2- 0.0170(2) 0.0174(2) 0.0081(2) -.0019(2) 0.0050(2) 0.0008(2)
O7 O2- 0.0163(2) 0.0229(3) 0.0121(2) -.0096(2) 0.0009(2) -.0008(2)
O8 O2- 0.0092(2) 0.0163(2) 0.0126(2) 0.0036(2) 0.0028(2) 0.0040(2)
#End of data_68997-ICSD


