data_107380-ICSD
#?2014 by Fachinformationszentrum Karlsruhe, and the U.S. Secretary of 
#Commerce on behalf of the United States.  All rights reserved.
_database_code_ICSD                107380
_audit_creation_date               2013/08/01
_chemical_name_systematic          'Aluminium Silicate Hydroxide *'
_chemical_formula_structural       'Al4 (O H)8 (Si4 O10)'
_chemical_formula_sum              'H8 Al4 O18 Si4'
_chemical_name_mineral             'Kaolinite 1A'
_publ_section_title
;
What is the Structure of Kaolinite? Reconciling Theory and Experiment
;
loop_
_citation_id
_citation_journal_abbrev
_citation_year
_citation_journal_volume
_citation_page_first
_citation_page_last
_citation_journal_id_ASTM
primary 'Clays and Clay Minerals (-28,1980)' 1988 36 225 232 CCMPA7
_publ_author_name
;
White, C.E.;Provis, J.L.;Riley, D.P.;Kearley, G.J.;van Deventer, 
J,S.J.
;
_cell_length_a                     5.149
_cell_length_b                     8.9335(1)
_cell_length_c                     7.3844(1)
_cell_angle_alpha                  91.930(1)
_cell_angle_beta                   105.042(1)
_cell_angle_gamma                  89.791(1)
_cell_volume                       327.84
_cell_formula_units_Z              1
_symmetry_space_group_name_H-M     'P 1'
_symmetry_Int_Tables_number        1
loop_
_symmetry_equiv_pos_site_id
_symmetry_equiv_pos_as_xyz
  1	'x, y, z'
loop_
_atom_type_symbol
_atom_type_oxidation_number
Al3+	3
H1+	1
O2-	-2
Si4+	4
loop_
_atom_site_label
_atom_site_type_symbol
_atom_site_symmetry_multiplicity
_atom_site_Wyckoff_symbol
_atom_site_fract_x
_atom_site_fract_y
_atom_site_fract_z
_atom_site_occupancy
_atom_site_attached_hydrogens
Al1 Al3+ 1 a 0.362 0.49354 0.45904 1. 0 
Al2 Al3+ 1 a 0.35401 0.8296 0.45773 1. 0 
Al3 Al3+ 1 a 0.86201 0.99356 0.45917 1. 0 
Al4 Al3+ 1 a 0.85417 0.3295 0.45723 1. 0 
Si1 Si4+ 1 a 0.05545 0.33513 0.0686 1. 0 
Si2 Si4+ 1 a 0.06887 0.66398 0.07009 1. 0 
Si3 Si4+ 1 a 0.55547 0.8351 0.06877 1. 0 
Si4 Si4+ 1 a 0.56879 0.16382 0.07018 1. 0 
O1 O2- 1 a 0.11274 0.34977 0.29421 1. 0 
O2 O2- 1 a 0.1784 0.66134 0.29539 1. 0 
O3 O2- 1 a 0.07666 0.49623 -.02776 1. 0 
O4 O2- 1 a 0.25573 0.21852 -.00589 1. 0 
O5 O2- 1 a 0.24982 0.77041 -.0279 1. 0 
O6 O2- 1 a 0.61264 0.84974 0.2943 1. 0 
O7 O2- 1 a 0.67795 0.16109 0.29558 1. 0 
O8 O2- 1 a 0.57638 -.00382 -.02777 1. 0 
O9 O2- 1 a 0.7557 0.71848 -.00581 1. 0 
O10 O2- 1 a 0.7497 0.27038 -.0275 1. 0 
O11 O2- 1 a 0.11304 0.9701 0.30541 1. 0 
O12 O2- 1 a 0.02784 0.16595 0.58615 1. 0 
O13 O2- 1 a 0.09724 0.47529 0.58634 1. 0 
O14 O2- 1 a 0.09697 0.85359 0.59283 1. 0 
O15 O2- 1 a 0.61354 0.47 0.30547 1. 0 
O16 O2- 1 a 0.52823 0.66616 0.58581 1. 0 
O17 O2- 1 a 0.59594 0.97602 0.58593 1. 0 
O18 O2- 1 a 0.59944 0.35502 0.59395 1. 0 
H1 H1+ 1 a 0.21167 0.06419 0.3178 1. 0 
H2 H1+ 1 a 0.1164 0.17037 0.7191 1. 0 
H3 H1+ 1 a 0.1141 0.49876 0.71811 1. 0 
H4 H1+ 1 a 0.11001 0.81749 0.71712 1. 0 
H5 H1+ 1 a 0.71174 0.56425 0.31798 1. 0 
H6 H1+ 1 a 0.61729 0.66995 0.71867 1. 0 
H7 H1+ 1 a 0.61292 0.99973 0.71765 1. 0 
H8 H1+ 1 a 0.60804 0.31587 0.71604 1. 0 

#End of data_107380-ICSD


