data_166312-ICSD
#?2014 by Fachinformationszentrum Karlsruhe, and the U.S. Secretary of 
#Commerce on behalf of the United States.  All rights reserved.
_database_code_ICSD                166312
_audit_creation_date               2010/08/01
_chemical_name_systematic
;
Sodium Titanium(III) Catena-disilicate
;
_chemical_formula_structural       'Na Ti (Si2 O6)'
_chemical_formula_sum              'Na1 O6 Si2 Ti1'
_chemical_name_mineral             Clinopyroxene
_publ_section_title
;
(Na, Ca) (Ti(3+), Mg) Si2 O6 - clinopyroxenes at high pressure: 
influence of cation substitution on elastic behavior and phase 
transition
;
loop_
_citation_id
_citation_journal_abbrev
_citation_year
_citation_journal_volume
_citation_page_first
_citation_page_last
_citation_journal_id_ASTM
primary 'Physics and Chemistry of Minerals' 2010 37 25 43 PCMIDU
_publ_author_name
;
Ullrich, A.;Miletich, R.;Balic Zunic, T.;Olsen, L.;Nestola, 
F.;Wildner, M.;Ohashi, H.
;
_cell_length_a                     9.625(8)
_cell_length_b                     8.783(4)
_cell_length_c                     5.248(2)
_cell_angle_alpha                  90.
_cell_angle_beta                   106.21(6)
_cell_angle_gamma                  90.
_cell_volume                       426.01
_cell_formula_units_Z              4
_symmetry_space_group_name_H-M     'C 1 2/c 1'
_symmetry_Int_Tables_number        15
_refine_ls_R_factor_all            .0658
loop_
_symmetry_equiv_pos_site_id
_symmetry_equiv_pos_as_xyz
  1	'x, -y, z+.5'
  2	'-x, -y, -z'
  3	'-x, y, -z+.5'
  4	'x, y, z'
  5	'x+.5, -y+.5, z+.5'
  6	'-x+.5, -y+.5, -z'
  7	'-x+.5, y+.5, -z+.5'
  8	'x+.5, y+.5, z'
loop_
_atom_type_symbol
_atom_type_oxidation_number
Na1+	1
O2-	-2
Si4+	4
Ti3+	3
loop_
_atom_site_label
_atom_site_type_symbol
_atom_site_symmetry_multiplicity
_atom_site_Wyckoff_symbol
_atom_site_fract_x
_atom_site_fract_y
_atom_site_fract_z
_atom_site_occupancy
_atom_site_attached_hydrogens
Na1 Na1+ 4 e 0 0.3045(6) 0.250 1. 0 
Ti1 Ti3+ 4 e 0 0.9040(2) 0.250 1. 0 
Si1 Si4+ 8 f 0.2914(16) 0.0909(3) 0.2413(9) 1. 0 
O1 O2- 8 f 0.119(4) 0.0807(8) 0.149(2) 1. 0 
O2 O2- 8 f 0.356(2) 0.2552(7) 0.3076(17) 1. 0 
O3 O2- 8 f 0.353(2) 0.0116(8) 0.0121(17) 1. 0 

#End of data_166312-ICSD


