data_67655-ICSD
#?2014 by Fachinformationszentrum Karlsruhe, and the U.S. Secretary of 
#Commerce on behalf of the United States.  All rights reserved.
_database_code_ICSD                67655
_audit_creation_date               1994/01/19
_chemical_name_systematic          'Calcium Ytterbium Tetrathioindate'
_chemical_formula_structural       'Ca Yb (In S4)'
_chemical_formula_sum              'Ca1 In1 S4 Yb1'
_publ_section_title
;
Synthesis and Characterization of Two New Quaternary 
Chalcogenides,CaYbInQ4 (Q = S and Se), with an Olivine-Type Structure
;
loop_
_citation_id
_citation_journal_abbrev
_citation_year
_citation_journal_volume
_citation_page_first
_citation_page_last
_citation_journal_id_ASTM
primary 'Chemistry of Materials' 1992 4 1368 1372 CMATEX
_publ_author_name                  'Carpenter, J.D.;Hwu, S.-J.'
_cell_length_a                     13.639(2)
_cell_length_b                     7.926(2)
_cell_length_c                     6.503(2)
_cell_angle_alpha                  90.
_cell_angle_beta                   90.
_cell_angle_gamma                  90.
_cell_volume                       702.99
_cell_formula_units_Z              4
_symmetry_space_group_name_H-M     'P n m a'
_symmetry_Int_Tables_number        62
_refine_ls_R_factor_all            .023
loop_
_symmetry_equiv_pos_site_id
_symmetry_equiv_pos_as_xyz
  1	'x+.5, y, -z+.5'
  2	'x, -y+.5, z'
  3	'-x+.5, y+.5, z+.5'
  4	'-x, -y, -z'
  5	'-x+.5, -y, z+.5'
  6	'-x, y+.5, -z'
  7	'x+.5, -y+.5, -z+.5'
  8	'x, y, z'
loop_
_atom_type_symbol
_atom_type_oxidation_number
Ca2+	2
In3+	3
S2-	-2
Yb3+	3
loop_
_atom_site_label
_atom_site_type_symbol
_atom_site_symmetry_multiplicity
_atom_site_Wyckoff_symbol
_atom_site_fract_x
_atom_site_fract_y
_atom_site_fract_z
_atom_site_occupancy
_atom_site_attached_hydrogens
Ca1 Ca2+ 4 c 0.2692(1) 0.25 0.9941(2) 1. 0 
Yb1 Yb3+ 4 a 0.5 0 0.5 1. 0 
In1 In3+ 4 c 0.08922(5) 0.25 0.4163(1) 1. 0 
S1 S2- 4 c 0.0866(2) 0.25 0.7860(3) 1. 0 
S2 S2- 4 c 0.4279(1) 0.25 0.2649(3) 1. 0 
S3 S2- 8 d 0.1609(1) 0.0075(2) 0.2357(2) 1. 0 

loop_
_atom_site_aniso_label
_atom_site_aniso_type_symbol
_atom_site_aniso_U_11
_atom_site_aniso_U_22
_atom_site_aniso_U_33
_atom_site_aniso_U_12
_atom_site_aniso_U_13
_atom_site_aniso_U_23
Ca1 Ca2+ 0.0128(6) 0.0160(7) 0.0137(6) 0 0.0005(5) 0
Yb1 Yb3+ 0.0145(2) 0.0131(2) 0.0116(2) -.0017(2) 0.0009(2) 0.0010(2)
In1 In3+ 0.0181(3) 0.0168(3) 0.0086(3) 0 -.0005(2) 0
S1 S2- 0.016(1) 0.018(1) 0.0067(9) 0 -.0004(9) 0
S2 S2- 0.012(1) 0.020(1) 0.015(1) 0 -.0018(8) 0
S3 S2- 0.0197(7) 0.0148(7) 0.0126(7) 0.0024(6) -.0015(6) 0.0012(6)
#End of data_67655-ICSD


