data_202719-ICSD
#?2014 by Fachinformationszentrum Karlsruhe, and the U.S. Secretary of 
#Commerce on behalf of the United States.  All rights reserved.
_database_code_ICSD                202719
_audit_creation_date               1989/12/04
_audit_update_record               2006/04/01
_chemical_name_systematic          'Disodium Beryllium Silicate'
_chemical_formula_structural       'Na2 Be (Si O4)'
_chemical_formula_sum              'Be1 Na2 O4 Si1'
_publ_section_title
;
The structure of Na2 Be Si O4 obtained by the Rietveld profile 
refinement technique
;
loop_
_citation_id
_citation_journal_abbrev
_citation_year
_citation_journal_volume
_citation_page_first
_citation_page_last
_citation_journal_id_ASTM
primary 'Solid State Ionics' 1988 31 131 138 SSIOD3
_publ_author_name
;
Frostaeng, S.;Grins, J.;Louer, D.;Werner, P.E.
;
_cell_length_a                     9.8658(8)
_cell_length_b                     4.9109(6)
_cell_length_c                     13.8879(15)
_cell_angle_alpha                  90.
_cell_angle_beta                   90.
_cell_angle_gamma                  90.
_cell_volume                       672.87
_cell_formula_units_Z              8
_symmetry_space_group_name_H-M     'P c a 21'
_symmetry_Int_Tables_number        29
_refine_ls_R_factor_all            .057
loop_
_symmetry_equiv_pos_site_id
_symmetry_equiv_pos_as_xyz
  1	'x+.5, -y, z'
  2	'-x+.5, y, z+.5'
  3	'-x, -y, z+.5'
  4	'x, y, z'
loop_
_atom_type_symbol
_atom_type_oxidation_number
Be2+	2
Na1+	1
O2-	-2
Si4+	4
loop_
_atom_site_label
_atom_site_type_symbol
_atom_site_symmetry_multiplicity
_atom_site_Wyckoff_symbol
_atom_site_fract_x
_atom_site_fract_y
_atom_site_fract_z
_atom_site_occupancy
_atom_site_attached_hydrogens
Be1 Be2+ 4 a 0.25(1) 0.020(1) 0.45(1) 1. 0 
Be2 Be2+ 4 a 0.027(9) 0.569(1) 0.724(6) 1. 0 
Si1 Si4+ 4 a 0.015(2) 0.008(6) 0.825 1. 0 
Si2 Si4+ 4 a 0.269(3) 0.513(3) 0.577(3) 1. 0 
Na1 Na1+ 4 a 0.006(3) 0.490(5) 0.958(3) 1. 0 
Na2 Na1+ 4 a 0.510(3) 0.956(4) 0.577(3) 1. 0 
Na3 Na1+ 4 a 0.231(3) 0.526(6) 0.329(3) 1. 0 
Na4 Na1+ 4 a 0.232(2) 0.042(5) 0.198(3) 1. 0 
O1 O2- 4 a 0.175(4) 0.076(8) 0.855(4) 1. 0 
O2 O2- 4 a 0.171(4) 0.622(8) 0.667(4) 1. 0 
O3 O2- 4 a 0.191(6) 0.283(6) 0.513(4) 1. 0 
O4 O2- 4 a 0.193(6) 0.780(7) 0.012(4) 1. 0 
O5 O2- 4 a 0.085(4) 0.878(8) 0.412(4) 1. 0 
O6 O2- 4 a 0.093(4) 0.381(8) 0.117(4) 1. 0 
O7 O2- 4 a 0.006(6) 0.817(7) 0.228(4) 1. 0 
O8 O2- 4 a 0.009(6) 0.298(8) 0.304(3) 1. 0 

#End of data_202719-ICSD


