data_422750-ICSD
#?2014 by Fachinformationszentrum Karlsruhe, and the U.S. Secretary of 
#Commerce on behalf of the United States.  All rights reserved.
_database_code_ICSD                422750
_audit_creation_date               2012/02/01
_chemical_name_systematic          'Sodium Copper Oxide (7/4/8)'
_chemical_formula_structural       'Na7 Cu4 O8'
_chemical_formula_sum              'Cu4 Na7 O8'
_publ_section_title
;
Structural ordering principles in quasi one-dimensional Wigner 
crystals of the series Na(1+x) Cu O2 (0 <= x <= 1)
;
loop_
_citation_id
_citation_journal_abbrev
_citation_year
_citation_journal_volume
_citation_journal_issue
_citation_page_first
_citation_page_last
_citation_journal_id_ASTM
primary 'Zeitschrift fuer Kristallographie - Crystalline Materials'
 2011 226 8 627 632 ZKCMAJ
_publ_author_name                  'Nuss, J.;Wedig, U.;Jansen, M.'
_cell_length_a                     5.6846
_cell_length_b                     22.7494
_cell_length_c                     8.0019
_cell_angle_alpha                  90.000
_cell_angle_beta                   110.409
_cell_angle_gamma                  90.000
_cell_volume                       969.86
_cell_formula_units_Z              4
_symmetry_space_group_name_H-M     'P 1 21/c 1'
_symmetry_Int_Tables_number        14
loop_
_symmetry_equiv_pos_site_id
_symmetry_equiv_pos_as_xyz
  1	'x, -y+.5, z+.5'
  2	'-x, -y, -z'
  3	'-x, y+.5, -z+.5'
  4	'x, y, z'
loop_
_atom_type_symbol
_atom_type_oxidation_number
Cu2.25+	2.25
Na1+	1
O2-	-2
loop_
_atom_site_label
_atom_site_type_symbol
_atom_site_symmetry_multiplicity
_atom_site_Wyckoff_symbol
_atom_site_fract_x
_atom_site_fract_y
_atom_site_fract_z
_atom_site_occupancy
_atom_site_attached_hydrogens
Cu1 Cu2.25+ 4 e -0.0197 0.1585 0.2356 1.000 0 
Cu2 Cu2.25+ 4 e -0.0280 0.0336 0.2377 1.000 0 
Cu3 Cu2.25+ 4 e -0.0275 -0.0918 0.2340 1.000 0 
Cu4 Cu2.25+ 4 e 0.0032 0.2836 0.2451 1.000 0 
O1 O2- 4 e -0.2516 0.2253 0.1893 1.000 0 
O2 O2- 4 e 0.2336 0.2221 0.2791 1.000 0 
O3 O2- 4 e -0.2742 0.0974 0.1775 1.000 0 
O4 O2- 4 e -0.2756 -0.0296 0.1751 1.000 0 
O5 O2- 4 e -0.2614 -0.1586 0.1924 1.000 0 
O6 O2- 4 e 0.2360 0.0967 0.3120 1.000 0 
O7 O2- 4 e 0.2330 -0.0299 0.3180 1.000 0 
O8 O2- 4 e 0.2320 -0.1552 0.2909 1.000 0 
Na1 Na1+ 4 e -0.3873 0.2729 0.3891 1.000 0 
Na2 Na1+ 4 e 0.3928 0.1635 0.1159 1.000 0 
Na3 Na1+ 4 e -0.3918 0.0947 -0.1246 1.000 0 
Na4 Na1+ 4 e 0.3877 0.0336 0.1274 1.000 0 
Na5 Na1+ 4 e 0.3592 0.1882 -0.4376 1.000 0 
Na6 Na1+ 4 e 0.3299 0.0359 -0.4416 1.000 0 
Na7 Na1+ 4 e -0.3284 0.1056 0.4433 1.000 0 

#End of data_422750-ICSD


