data_40376-ICSD
#?2014 by Fachinformationszentrum Karlsruhe, and the U.S. Secretary of 
#Commerce on behalf of the United States.  All rights reserved.
_database_code_ICSD                40376
_audit_creation_date               1999/06/02
_audit_update_record               2013/08/01
_chemical_name_systematic          'Pentapotassium Diodide Aurate(I)'
_chemical_formula_structural       'K5 I2 (Au O2)'
_chemical_formula_sum              'Au1 I2 K5 O2'
_publ_section_title
;
Eine "misslungene" Synthese: ueber K2 Li (I O6) und K5 I2 (Au O2)
;
loop_
_citation_id
_citation_journal_abbrev
_citation_year
_citation_journal_volume
_citation_page_first
_citation_page_last
_citation_journal_id_ASTM
primary 'Journal of the Less-Common Metals' 1988 137 85 103 JCOMAH
_publ_author_name                  'Hoppe, R.;Schneider, J.'
_cell_length_a                     14.027(3)
_cell_length_b                     7.204(1)
_cell_length_c                     5.511(1)
_cell_angle_alpha                  90.
_cell_angle_beta                   90.
_cell_angle_gamma                  90.
_cell_volume                       556.89
_cell_formula_units_Z              2
_symmetry_space_group_name_H-M     'P b a m'
_symmetry_Int_Tables_number        55
_refine_ls_R_factor_all            .057
loop_
_symmetry_equiv_pos_site_id
_symmetry_equiv_pos_as_xyz
  1	'x+.5, -y+.5, z'
  2	'-x+.5, y+.5, z'
  3	'x, y, -z'
  4	'-x, -y, -z'
  5	'-x+.5, y+.5, -z'
  6	'x+.5, -y+.5, -z'
  7	'-x, -y, z'
  8	'x, y, z'
loop_
_atom_type_symbol
_atom_type_oxidation_number
Au1+	1
I1-	-1
K1+	1
O2-	-2
loop_
_atom_site_label
_atom_site_type_symbol
_atom_site_symmetry_multiplicity
_atom_site_Wyckoff_symbol
_atom_site_fract_x
_atom_site_fract_y
_atom_site_fract_z
_atom_site_occupancy
_atom_site_attached_hydrogens
Au1 Au1+ 2 a 0 0 0 1. 0 
K1 K1+ 2 c 0 0.5 0 1. 0 
K2 K1+ 4 g 0.7616(2) 0.1006(4) 0 1. 0 
K3 K1+ 4 h 0.6013(2) 0.3299(5) 0.5 1. 0 
I1 I1- 4 h 0.3547(1) 0.1505(1) 0.5 1. 0 
O1 O2- 4 g 0.1103(6) 0.1811(13) 0 1. 0 

loop_
_atom_site_aniso_label
_atom_site_aniso_type_symbol
_atom_site_aniso_U_11
_atom_site_aniso_U_22
_atom_site_aniso_U_33
_atom_site_aniso_U_12
_atom_site_aniso_U_13
_atom_site_aniso_U_23
Au1 Au1+ 0.0126(3) 0.0078(3) 0.0130(2) -.0012(4) 0 0
K1 K1+ 0.0243(18) 0.0184(20) 0.0262(15) 0.0008(26) 0 0
K2 K1+ 0.0220(14) 0.0133(16) 0.0280(12) 0.0037(12) 0 0
K3 K1+ 0.0271(15) 0.0220(17) 0.0173(11) 0.0038(14) 0 0
I1 I1- 0.0265(4) 0.0207(6) 0.0266(4) 0.0011(4) 0 0
O1 O2- 0.0121(36) 0.0112(49) 0.0219(38) 0.0000(36) 0 0
#End of data_40376-ICSD


