data_249748-ICSD
#?2014 by Fachinformationszentrum Karlsruhe, and the U.S. Secretary of 
#Commerce on behalf of the United States.  All rights reserved.
_database_code_ICSD                249748
_audit_creation_date               2009/02/01
_chemical_name_systematic
;
Dipotassium Aquapentachloroiridate(III)
;
_chemical_formula_structural       'K2 (Ir (H2 O) Cl5)'
_chemical_formula_sum              'H2 Cl5 Ir1 K2 O1'
_publ_section_title
;
The crystal and molecular structure of potassium 
aquapentachloroiridate(III) and the 1H, 13C, 15N NMR coordination 
shifts in iridium(III) chloride complexes with 2,2'-bipyridine or 
1,10-phenanthroline
;
loop_
_citation_id
_citation_journal_abbrev
_citation_year
_citation_journal_volume
_citation_journal_issue
_citation_page_first
_citation_page_last
_citation_journal_id_ASTM
primary Polyhedron 2008 27 14 3067 3078 PLYHDE
_publ_author_name
;
Pazderski, L.;Tousek, J.;Wojtczak, A.;Sitkowski, J.;Kozerski, 
L.;Szlyk, E.
;
_cell_length_a                     13.613(3)
_cell_length_b                     9.391(2)
_cell_length_c                     7.1860(10)
_cell_angle_alpha                  90.00
_cell_angle_beta                   90.00
_cell_angle_gamma                  90.00
_cell_volume                       918.66
_cell_formula_units_Z              4
_symmetry_space_group_name_H-M     'P n m a'
_symmetry_Int_Tables_number        62
_refine_ls_R_factor_all            .0285
loop_
_symmetry_equiv_pos_site_id
_symmetry_equiv_pos_as_xyz
  1	'x+.5, y, -z+.5'
  2	'x, -y+.5, z'
  3	'-x+.5, y+.5, z+.5'
  4	'-x, -y, -z'
  5	'-x+.5, -y, z+.5'
  6	'-x, y+.5, -z'
  7	'x+.5, -y+.5, -z+.5'
  8	'x, y, z'
loop_
_atom_type_symbol
_atom_type_oxidation_number
Cl1-	-1
H1+	1
Ir3+	3
K1+	1
O2-	-2
loop_
_atom_site_label
_atom_site_type_symbol
_atom_site_symmetry_multiplicity
_atom_site_Wyckoff_symbol
_atom_site_fract_x
_atom_site_fract_y
_atom_site_fract_z
_atom_site_occupancy
_atom_site_attached_hydrogens
_atom_site_U_iso_or_equiv
Ir1 Ir3+ 4 c 0.392818(15) 0.7500 0.80499(3) 1 0 0.01826(9) 
O1 O2- 4 c 0.5212(4) 0.7500 0.9647(8) 1 0 0.0391(12) 
H1 H1+ 8 d 0.5307 0.8384 1.0318 1 0 0.050 
Cl1 Cl1- 8 d 0.39506(9) 0.99990(12) 0.80540(17) 1 0 0.0335(3) 
Cl2 Cl1- 4 c 0.25418(10) 0.7500 0.6168(2) 1 0 0.0251(3) 
Cl3 Cl1- 4 c 0.49309(12) 0.7500 0.5373(2) 1 0 0.0338(3) 
Cl4 Cl1- 4 c 0.29482(14) 0.7500 1.0737(2) 1 0 0.0389(4) 
K1 K1+ 8 d 0.14919(9) 0.99691(12) 0.86123(18) 1 0 0.0402(3) 

loop_
_atom_site_aniso_label
_atom_site_aniso_type_symbol
_atom_site_aniso_U_11
_atom_site_aniso_U_22
_atom_site_aniso_U_33
_atom_site_aniso_U_12
_atom_site_aniso_U_13
_atom_site_aniso_U_23
Ir1 Ir3+ 0.01725(13) 0.01691(13) 0.02062(13) 0.000 -0.00367(8) 0.000
O1 O2- 0.033(3) 0.027(2) 0.057(3) 0.000 -0.028(2) 0.000
Cl1 Cl1- 0.0424(7) 0.0172(5) 0.0409(7) 0.0006(4) -0.0145(5) -0.0034(4)
Cl2 Cl1- 0.0198(6) 0.0283(7) 0.0272(7) 0.000 -0.0085(5) 0.000
Cl3 Cl1- 0.0274(7) 0.0350(8) 0.0390(9) 0.000 0.0101(7) 0.000
Cl4 Cl1- 0.0474(10) 0.0481(9) 0.0211(7) 0.000 0.0070(7) 0.000
K1 K1+ 0.0422(6) 0.0344(5) 0.0440(6) -0.0004(5) 0.0070(5) -0.0046(5)
#End of data_249748-ICSD


