data_26553-ICSD
#?2014 by Fachinformationszentrum Karlsruhe, and the U.S. Secretary of 
#Commerce on behalf of the United States.  All rights reserved.
_database_code_ICSD                26553
_audit_creation_date               1981/12/31
_audit_update_record               2007/08/01
_chemical_name_systematic
;
Tricalcium Cyclo-trisilicate - Alpha
;
_chemical_formula_structural       'Ca3 (Si3 O9)'
_chemical_formula_sum              'Ca3 O9 Si3'
_chemical_name_mineral             'Pseudowollastonite 4A'
_publ_section_title
;
The structure and polytypes of alpha-W Ca Si O3 (Pseudowollastonite)
;
loop_
_citation_id
_citation_journal_abbrev
_citation_year
_citation_journal_volume
_citation_page_first
_citation_page_last
_citation_journal_id_ASTM
primary 'Acta Crystallographica B (24,1968-38,1982)' 1981 37 1010 1017 ACBCAR
_publ_author_name                  'Yamanaka, T.;Mori, H.'
_cell_length_a                     6.853(3)
_cell_length_b                     11.895(5)
_cell_length_c                     19.674(13)
_cell_angle_alpha                  90.12(3)
_cell_angle_beta                   90.55(3)
_cell_angle_gamma                  90.00(3)
_cell_volume                       1603.68
_cell_formula_units_Z              8
_symmetry_space_group_name_H-M     'C -1'
_symmetry_Int_Tables_number        2
_refine_ls_R_factor_all            .04
loop_
_symmetry_equiv_pos_site_id
_symmetry_equiv_pos_as_xyz
  1	'-x, -y, -z'
  2	'x, y, z'
  3	'-x+.5, -y+.5, -z'
  4	'x+.5, y+.5, z'
loop_
_atom_type_symbol
_atom_type_oxidation_number
Ca2+	2
O2-	-2
Si4+	4
loop_
_atom_site_label
_atom_site_type_symbol
_atom_site_symmetry_multiplicity
_atom_site_Wyckoff_symbol
_atom_site_fract_x
_atom_site_fract_y
_atom_site_fract_z
_atom_site_occupancy
_atom_site_attached_hydrogens
Ca1 Ca2+ 2 a 0.5 0.5 0 1. 0 
Ca2 Ca2+ 4 i 0.5115(2) 0.8357(1) 0.0004(5) 1. 0 
Ca3 Ca2+ 4 i 0.5002(3) 0.4964(1) 0.2501(4) 1. 0 
Ca4 Ca2+ 4 i 0.5004(3) 0.8436(1) 0.2500(4) 1. 0 
Ca5 Ca2+ 4 i 0.0006(3) 0.6722(2) 0.2500(4) 1. 0 
Ca6 Ca2+ 2 b 0.5 0.5 0.5 1. 0 
Ca7 Ca2+ 4 i 0.4886(2) 0.8357(3) 0.4995(4) 1. 0 
Si1 Si4+ 4 i 0.2066(3) 0.5387(1) 0.1249(5) 1. 0 
Si2 Si4+ 4 i 0.2021(3) 0.7975(2) 0.1222(5) 1. 0 
Si3 Si4+ 4 i 0.5926(2) 0.6702(1) 0.1278(5) 1. 0 
Si4 Si4+ 4 i 0.4068(3) 0.6701(2) 0.3720(5) 1. 0 
Si5 Si4+ 4 i 0.7933(3) 0.5387(1) 0.3749(5) 1. 0 
Si6 Si4+ 4 i 0.7983(3) 0.7972(2) 0.3778(5) 1. 0 
O1 O2- 4 i 0.1584(7) 0.4853(5) 0.0523(15) 1. 0 
O2 O2- 4 i 0.1533(8) 0.8448(5) 0.0579(14) 1. 0 
O3 O2- 4 i 0.7001(7) 0.6704(4) 0.0562(16) 1. 0 
O4 O2- 4 i 0.1554(8) 0.4869(5) 0.1968(15) 1. 0 
O5 O2- 4 i 0.1451(8) 0.8505(4) 0.1927(17) 1. 0 
O6 O2- 4 i 0.6907(9) 0.6712(5) 0.2016(17) 1. 0 
O7 O2- 4 i 0.3094(8) 0.6712(5) 0.2981(16) 1. 0 
O8 O2- 4 i 0.8435(8) 0.4873(4) 0.3030(15) 1. 0 
O9 O2- 4 i 0.8544(8) 0.8494(4) 0.3067(16) 1. 0 
O10 O2- 4 i 0.3002(7) 0.6708(5) 0.4420(16) 1. 0 
O11 O2- 4 i 0.8426(7) 0.4855(4) 0.4460(17) 1. 0 
O12 O2- 4 i 0.8478(8) 0.8458(4) 0.4512(16) 1. 0 
O13 O2- 4 i 0.1117(7) 0.6669(4) 0.1235(14) 1. 0 
O14 O2- 4 i 0.4480(7) 0.5584(4) 0.1261(14) 1. 0 
O15 O2- 4 i 0.4428(7) 0.7797(4) 0.1254(14) 1. 0 
O16 O2- 4 i 0.5538(7) 0.5580(4) 0.3741(14) 1. 0 
O17 O2- 4 i 0.5566(6) 0.7804(4) 0.3748(14) 1. 0 
O18 O2- 4 i 0.8898(7) 0.6676(4) 0.3757(14) 1. 0 

#End of data_26553-ICSD


