data_246004-ICSD
#?2014 by Fachinformationszentrum Karlsruhe, and the U.S. Secretary of 
#Commerce on behalf of the United States.  All rights reserved.
_database_code_ICSD                246004
_audit_creation_date               2009/02/01
_chemical_name_systematic          'Calcium Oxalate'
_chemical_formula_structural       'Ca (C2 O4)'
_chemical_formula_sum              'C2 Ca1 O4'
_publ_section_title
;
Revealing the crystal structure of anhydrous calcium oxalate, Ca [C2 
O4], by a combination of atomistic simulation and Rietveld refinemnet
;
loop_
_citation_id
_citation_journal_abbrev
_citation_year
_citation_journal_volume
_citation_journal_issue
_citation_page_first
_citation_page_last
_citation_journal_id_ASTM
primary 'Zeitschrift fuer Anorganische und Allgemeine Chemie (1950) (DE)'
 2008 634 11 1826 1829 ZAACAB
_publ_author_name                  'Hochrein, O.;Thomas, A.;Kniep, R.'
_cell_length_a                     6.1644(3)
_cell_length_b                     7.3623(2)
_cell_length_c                     9.5371(5)
_cell_angle_alpha                  90
_cell_angle_beta                   90.24(2)
_cell_angle_gamma                  90
_cell_volume                       432.83
_cell_formula_units_Z              4
_symmetry_space_group_name_H-M     'P 1 2/m 1'
_symmetry_Int_Tables_number        10
_refine_ls_R_factor_all            .054
loop_
_symmetry_equiv_pos_site_id
_symmetry_equiv_pos_as_xyz
  1	'-x, y, -z'
  2	'-x, -y, -z'
  3	'x, -y, z'
  4	'x, y, z'
loop_
_atom_type_symbol
_atom_type_oxidation_number
C3+	3
Ca2+	2
O2-	-2
loop_
_atom_site_label
_atom_site_type_symbol
_atom_site_symmetry_multiplicity
_atom_site_Wyckoff_symbol
_atom_site_fract_x
_atom_site_fract_y
_atom_site_fract_z
_atom_site_occupancy
_atom_site_attached_hydrogens
_atom_site_U_iso_or_equiv
Ca1 Ca2+ 2 n 0.407(2) 0.5 0.193(2) 1. 0 0.047 
Ca2 Ca2+ 2 m 0.434(2) 0 0.318(2) 1. 0 0.031 
C1 C3+ 2 j 0.5 0.1081(7) 0 1. 0 0.05 
C2 C3+ 2 l 0.5 0.6081(7) 0.5 1. 0 0.05 
C3 C3+ 2 n 0.0929(6) 0.5 -0.0577(4) 1. 0 0.05 
C4 C3+ 2 m 0.0798(5) 0 0.5659(5) 1. 0 0.05 
O1 O2- 4 o 0.5596(3) 0.188(1) -0.1136(4) 1. 0 0.05 
O2 O2- 4 o 0.4636(1) 0.688(1) 0.3820(5) 1. 0 0.05 
O3 O2- 2 n 0.0319(4) 0.5 -0.1869(9) 1. 0 0.05 
O4 O2- 2 n 0.290(1) 0.5 -0.0133(2) 1. 0 0.05 
O5 O2- 2 m 0.0079(1) 0 0.312(1) 1. 0 0.05 
O6 O2- 2 m 0.285(1) 0 0.5404(4) 1. 0 0.05 

#End of data_246004-ICSD


