data_420037-ICSD
#?2014 by Fachinformationszentrum Karlsruhe, and the U.S. Secretary of 
#Commerce on behalf of the United States.  All rights reserved.
_database_code_ICSD                420037
_audit_creation_date               2009/08/01
_chemical_name_systematic
;
Potassium Sodium Gadolinium Pentaoxoniobate
;
_chemical_formula_structural       'K Na Gd (Nb O5)'
_chemical_formula_sum              'Gd1 K1 Na1 Nb1 O5'
_publ_section_title
;
Crystal growth of a new series of complex niobates, Ln K Na Nb O5 
(Ln= La, Pr, Nd, Sm, Eu, Gd and Tb): structural properties and 
photoluminescence
;
loop_
_citation_id
_citation_journal_abbrev
_citation_year
_citation_journal_volume
_citation_page_first
_citation_page_last
_citation_journal_id_ASTM
primary 'Chemistry of Materials' 2009 21 1955 1961 CMATEX
_publ_author_name
;
Roof, I.P.;Jagau, T.C.;Zeier, W.G.;Smith, M.D.;zur Loye, H.C.
;
_cell_length_a                     5.67140(10)
_cell_length_b                     5.67140(10)
_cell_length_c                     8.2161(2)
_cell_angle_alpha                  90.
_cell_angle_beta                   90.
_cell_angle_gamma                  90.
_cell_volume                       264.27
_cell_formula_units_Z              2
_symmetry_space_group_name_H-M     'P 4/n m m Z'
_symmetry_Int_Tables_number        129
_refine_ls_R_factor_all            .019
loop_
_symmetry_equiv_pos_site_id
_symmetry_equiv_pos_as_xyz
  1	'y+.5, x+.5, -z'
  2	'-y, x+.5, -z'
  3	'y+.5, -x, -z'
  4	'-y, -x, -z'
  5	'x+.5, y+.5, -z'
  6	'-x, y+.5, -z'
  7	'x+.5, -y, -z'
  8	'-x, -y, -z'
  9	'-y+.5, -x+.5, z'
 10	'y, -x+.5, z'
 11	'-y+.5, x, z'
 12	'y, x, z'
 13	'-x+.5, -y+.5, z'
 14	'x, -y+.5, z'
 15	'-x+.5, y, z'
 16	'x, y, z'
loop_
_atom_type_symbol
_atom_type_oxidation_number
Gd3+	3
K1+	1
Na1+	1
Nb5+	5
O2-	-2
loop_
_atom_site_label
_atom_site_type_symbol
_atom_site_symmetry_multiplicity
_atom_site_Wyckoff_symbol
_atom_site_fract_x
_atom_site_fract_y
_atom_site_fract_z
_atom_site_occupancy
_atom_site_attached_hydrogens
_atom_site_U_iso_or_equiv
Nb1 Nb5+ 2 c 0.2500 0.2500 0.26057(4) 1 0 0.00730(8) 
Gd1 Gd3+ 2 b 0.7500 0.2500 0.5000 1 0 0.00830(6) 
K1 K1+ 2 a 0.7500 0.2500 0.0000 1 0 0.0251(3) 
Na1 Na1+ 2 c 0.2500 0.2500 0.7599(2) 1 0 0.0117(3) 
O1 O2- 8 j 0.01833(17) 0.01833(17) 0.3320(2) 1 0 0.0121(3) 
O2 O2- 2 c 0.2500 0.2500 0.0376(4) 1 0 0.0160(6) 

loop_
_atom_site_aniso_label
_atom_site_aniso_type_symbol
_atom_site_aniso_U_11
_atom_site_aniso_U_22
_atom_site_aniso_U_33
_atom_site_aniso_U_12
_atom_site_aniso_U_13
_atom_site_aniso_U_23
Nb1 Nb5+ 0.00737(10) 0.00737(10) 0.00715(14) 0.000 0.000 0.000
Gd1 Gd3+ 0.00754(7) 0.00754(7) 0.00981(10) 0.000 0.000 0.000
K1 K1+ 0.0173(3) 0.0173(3) 0.0407(8) 0.000 0.000 0.000
Na1 Na1+ 0.0116(5) 0.0116(5) 0.0118(8) 0.000 0.000 0.000
O1 O2- 0.0094(4) 0.0094(4) 0.0174(7) -0.0014(5) 0.0001(3) 0.0001(3)
O2 O2- 0.0189(10) 0.0189(10) 0.0100(11) 0.000 0.000 0.000
#End of data_420037-ICSD


