data_14256-ICSD
#?2014 by Fachinformationszentrum Karlsruhe, and the U.S. Secretary of 
#Commerce on behalf of the United States.  All rights reserved.
_database_code_ICSD                14256
_audit_creation_date               1986/08/12
_audit_update_record               2012/02/01
_chemical_name_systematic
;
Pentacalcium Disilicate Bis(carbonate)
;
_chemical_formula_structural       'Ca5 (Si2 O7) (C O3)2'
_chemical_formula_sum              'C2 Ca5 O13 Si2'
_chemical_name_mineral             Tilleyite
_publ_section_title
;
Crystal structure of tilleyite: Refinement and coordination
;
loop_
_citation_id
_citation_journal_abbrev
_citation_year
_citation_journal_volume
_citation_page_first
_citation_page_last
_citation_journal_id_ASTM
primary
;
Zeitschrift fuer Kristallographie, Kristallgeometrie, Kristallphysik, 
Kristallchemie (-144,1977)
;
 1970 132 288 306 ZEKGAX
_publ_author_name                  'Louisnathan, S.J.;Smith, J.V.'
_cell_length_a                     15.108(3)
_cell_length_b                     10.241(1)
_cell_length_c                     7.579(1)
_cell_angle_alpha                  90.
_cell_angle_beta                   105.17(1)
_cell_angle_gamma                  90.
_cell_volume                       1131.77
_cell_formula_units_Z              4
_symmetry_space_group_name_H-M     'P 1 21/a 1'
_symmetry_Int_Tables_number        14
_refine_ls_R_factor_all            .11
loop_
_symmetry_equiv_pos_site_id
_symmetry_equiv_pos_as_xyz
  1	'x+.5, -y+.5, z'
  2	'-x, -y, -z'
  3	'-x+.5, y+.5, -z'
  4	'x, y, z'
loop_
_atom_type_symbol
_atom_type_oxidation_number
C4+	4
Ca2+	2
O2-	-2
Si4+	4
loop_
_atom_site_label
_atom_site_type_symbol
_atom_site_symmetry_multiplicity
_atom_site_Wyckoff_symbol
_atom_site_fract_x
_atom_site_fract_y
_atom_site_fract_z
_atom_site_occupancy
_atom_site_attached_hydrogens
_atom_site_B_iso_or_equiv
Ca1 Ca2+ 4 e 0.0033(1) 0.9938(2) 0.7501(3) 1. 0 0.75(2) 
Ca2 Ca2+ 4 e 0.1769(1) 0.2135(2) 0.0908(2) 1. 0 0.69(2) 
Ca3 Ca2+ 4 e 0.1813(1) 0.2064(2) 0.6087(2) 1. 0 0.79(2) 
Ca4 Ca2+ 4 e 0.1239(1) 0.5895(2) 0.0449(2) 1. 0 0.62(2) 
Ca5 Ca2+ 4 e 0.1359(1) 0.5787(2) 0.5599(2) 1. 0 0.72(2) 
Si1 Si4+ 4 e 0.2032(1) 0.9209(2) 0.1381(3) 1. 0 0.42(3) 
Si2 Si4+ 4 e 0.2023(1) 0.9142(2) 0.5689(3) 1. 0 0.57(3) 
C1 C4+ 4 e 0.0301(6) 0.3058(9) 0.3402(11) 1. 0 1.14(12) 
C2 C4+ 4 e 0.0248(6) 0.3018(9) 0.8157(11) 1. 0 0.84(11) 
O1 O2- 4 e 0.0752(5) 0.2084(8) 0.2983(10) 1. 0 1.1(1) 
O2 O2- 4 e 0.0713(5) 0.2052(8) 0.7867(10) 1. 0 1.08(10) 
O3 O2- 4 e 0.0705(4) 0.3772(7) 0.4807(9) 1. 0 1.08(10) 
O4 O2- 4 e 0.0547(4) 0.3766(7) 0.9563(9) 1. 0 1.01(9) 
O5 O2- 4 e 0.0519(5) 0.6642(7) 0.7549(10) 1. 0 1.37(10) 
O6 O2- 4 e 0.0584(5) 0.6826(7) 0.2834(10) 1. 0 1.25(11) 
O7 O2- 4 e 0.2253(4) 0.7744(7) 0.0878(8) 1. 0 0.73(12) 
O8 O2- 4 e 0.2272(5) 0.7665(7) 0.6290(8) 1. 0 0.81(9) 
O9 O2- 4 e 0.1008(5) 0.9760(8) 0.0528(9) 1. 0 0.98(9) 
O10 O2- 4 e 0.1018(4) 0.9711(7) 0.5524(9) 1. 0 0.83(9) 
O11 O2- 4 e 0.2263(4) 0.5308(6) 0.8839(8) 1. 0 1.01(8) 
O12 O2- 4 e 0.2214(4) 0.5219(6) 0.3202(8) 1. 0 0.77(8) 
O13 O2- 4 e 0.2253(4) 0.9161(7) 0.3639(8) 1. 0 1.18(8) 

#End of data_14256-ICSD


