data_419382-ICSD
#?2014 by Fachinformationszentrum Karlsruhe, and the U.S. Secretary of 
#Commerce on behalf of the United States.  All rights reserved.
_database_code_ICSD                419382
_audit_creation_date               2009/02/01
_chemical_name_systematic          'Silber Barium Fluoride Telluride'
_chemical_formula_structural       'Ag Ba F Te'
_chemical_formula_sum              'Ag1 Ba1 F1 Te1'
_publ_section_title
;
Cu Eu F Te und Ag Ba F Te: Zwei neue Muenzmetall(I)-Fluorid-Telluride 
mit unterschiedlichen M2+-Kationen
;
loop_
_citation_id
_citation_journal_abbrev
_citation_year
_citation_journal_volume
_citation_journal_issue
_citation_page_first
_citation_page_last
_citation_journal_id_ASTM
primary 'Zeitschrift fuer Anorganische und Allgemeine Chemie (1950) (DE)'
 2008 634 11 2048 2048 ZAACAB
_publ_author_name                  'Janka, O.;Schleid, T.'
_cell_length_a                     4.5284(3)
_cell_length_b                     4.5284(3)
_cell_length_c                     9.6085(6)
_cell_angle_alpha                  90.
_cell_angle_beta                   90.
_cell_angle_gamma                  90.
_cell_volume                       197.04
_cell_formula_units_Z              2
_symmetry_space_group_name_H-M     'P 4/n m m Z'
_symmetry_Int_Tables_number        129
_refine_ls_R_factor_all            .025
loop_
_symmetry_equiv_pos_site_id
_symmetry_equiv_pos_as_xyz
  1	'y+.5, x+.5, -z'
  2	'-y, x+.5, -z'
  3	'y+.5, -x, -z'
  4	'-y, -x, -z'
  5	'x+.5, y+.5, -z'
  6	'-x, y+.5, -z'
  7	'x+.5, -y, -z'
  8	'-x, -y, -z'
  9	'-y+.5, -x+.5, z'
 10	'y, -x+.5, z'
 11	'-y+.5, x, z'
 12	'y, x, z'
 13	'-x+.5, -y+.5, z'
 14	'x, -y+.5, z'
 15	'-x+.5, y, z'
 16	'x, y, z'
loop_
_atom_type_symbol
_atom_type_oxidation_number
Ag1+	1
Ba2+	2
F1-	-1
Te2-	-2
loop_
_atom_site_label
_atom_site_type_symbol
_atom_site_symmetry_multiplicity
_atom_site_Wyckoff_symbol
_atom_site_fract_x
_atom_site_fract_y
_atom_site_fract_z
_atom_site_occupancy
_atom_site_attached_hydrogens
_atom_site_U_iso_or_equiv
Ag1 Ag1+ 2 b 0.7500 0.2500 0.5000 1 0 0.0221(3) 
Ba1 Ba2+ 2 c 0.2500 0.2500 0.14682(5) 1 0 0.0099(2) 
F1 F1- 2 a 0.7500 0.2500 0.0000 1 0 0.0127(10) 
Te1 Te2- 2 c 0.2500 0.2500 0.68512(6) 1 0 0.0109(2) 

loop_
_atom_site_aniso_label
_atom_site_aniso_type_symbol
_atom_site_aniso_U_11
_atom_site_aniso_U_22
_atom_site_aniso_U_33
_atom_site_aniso_U_12
_atom_site_aniso_U_13
_atom_site_aniso_U_23
Ag1 Ag1+ 0.0232(3) 0.0232(3) 0.0199(4) 0.000 0.000 0.000
Ba1 Ba2+ 0.0085(3) 0.0085(3) 0.0126(3) 0.000 0.000 0.000
F1 F1- 0.0116(16) 0.0116(16) 0.015(2) 0.000 0.000 0.000
Te1 Te2- 0.0102(3) 0.0102(3) 0.0124(3) 0.000 0.000 0.000
#End of data_419382-ICSD


