data_24743-ICSD
#?2014 by Fachinformationszentrum Karlsruhe, and the U.S. Secretary of 
#Commerce on behalf of the United States.  All rights reserved.
_database_code_ICSD                24743
_audit_creation_date               1986/10/06
_audit_update_record               2005/10/01
_chemical_name_systematic
;
Potassium Tetrafluoroantimonate(IV)
;
_chemical_formula_structural       'K (Sb F4)'
_chemical_formula_sum              'F4 K1 Sb1'
_publ_section_title                'The crystal structure of K Sb F4'
loop_
_citation_id
_citation_journal_abbrev
_citation_year
_citation_journal_volume
_citation_page_first
_citation_page_last
_citation_journal_id_ASTM
primary 'Arkiv foer Kemi' 1952 4 175 183 ARKEAD
2 'Golden Book of Phase Transitions, Wroclaw' 2002 1 1 123 GBOPT5
_publ_author_name
;
Bystroem, A.;Baecklund, S.;Wilhelmi, K.A.
;
_cell_length_a                     16.30(2)
_cell_length_b                     11.57(2)
_cell_length_c                     4.546(10)
_cell_angle_alpha                  90.
_cell_angle_beta                   90.
_cell_angle_gamma                  90.
_cell_volume                       857.33
_cell_formula_units_Z              8
_symmetry_space_group_name_H-M     'P m m n S'
_symmetry_Int_Tables_number        59
loop_
_symmetry_equiv_pos_site_id
_symmetry_equiv_pos_as_xyz
  1	'x+.5, -y+.5, -z'
  2	'x+.5, y+.5, -z'
  3	'x, -y, z'
  4	'-x, y, z'
  5	'-x+.5, y+.5, -z'
  6	'-x+.5, -y+.5, -z'
  7	'-x, -y, z'
  8	'x, y, z'
loop_
_atom_type_symbol
_atom_type_oxidation_number
F1-	-1
K1+	1
Sb3+	3
loop_
_atom_site_label
_atom_site_type_symbol
_atom_site_symmetry_multiplicity
_atom_site_Wyckoff_symbol
_atom_site_fract_x
_atom_site_fract_y
_atom_site_fract_z
_atom_site_occupancy
_atom_site_attached_hydrogens
K1 K1+ 4 c 0.25 0.25 0 1. 0 
K2 K1+ 4 f 0.381(6) 0 -.403(15) 1. 0 
Sb1 Sb3+ 4 e 0 0.250(3) -.033(4) 1. 0 
Sb2 Sb3+ 4 f 0.154(1) 0 0.433(4) 1. 0 
F1 F1- 4 e 0 0.333(15) 0.347(30) 1. 0 
F2 F1- 4 f 0.208(15) 0 0.042(30) 1. 0 
F3 F1- 8 g 0.236(15) 0.125(15) 0.50(3) 1. 0 
F4 F1- 8 g 0.097(15) 0.139(15) 0.139(30) 1. 0 
F5 F1- 8 g 0.097(15) 0.361(15) -.097(30) 1. 0 

#End of data_24743-ICSD


