data_183471-ICSD
#?2014 by Fachinformationszentrum Karlsruhe, and the U.S. Secretary of 
#Commerce on behalf of the United States.  All rights reserved.
_database_code_ICSD                183471
_audit_creation_date               2012/08/01
_chemical_name_systematic
;
Copper Lithium Indium Selenide (0.5/0.5/1/2)
;
_chemical_formula_structural       'Cu0.5 Li0.5 In Se2'
_chemical_formula_sum              'Cu0.5 In1 Li0.5 Se2'
_publ_section_title
;
Effect of structural distortion and nature of bonding on the 
electronic properties of defect and Li-substituted Cu In Se2 
chalcopyrite semiconductors
;
loop_
_citation_id
_citation_journal_abbrev
_citation_year
_citation_journal_volume
_citation_page_first
_citation_page_last
_citation_journal_id_ASTM
primary 'Journal of Alloys and Compounds' 2012 512 17 22 JALCEU
_publ_author_name                  'Mishra, S.;Ganguli, B.'
_cell_length_a                     5.84
_cell_length_b                     5.84
_cell_length_c                     11.633
_cell_angle_alpha                  90.
_cell_angle_beta                   90.
_cell_angle_gamma                  90.
_cell_volume                       396.75
_cell_formula_units_Z              4
_symmetry_space_group_name_H-M     'I -4'
_symmetry_Int_Tables_number        82
loop_
_symmetry_equiv_pos_site_id
_symmetry_equiv_pos_as_xyz
  1	'-y, x, -z'
  2	'y, -x, -z'
  3	'-x, -y, z'
  4	'x, y, z'
  5	'-y+.5, x+.5, -z+.5'
  6	'y+.5, -x+.5, -z+.5'
  7	'-x+.5, -y+.5, z+.5'
  8	'x+.5, y+.5, z+.5'
loop_
_atom_type_symbol
_atom_type_oxidation_number
Cu1+	1
In3+	3
Li1+	1
Se2-	-2
loop_
_atom_site_label
_atom_site_type_symbol
_atom_site_symmetry_multiplicity
_atom_site_Wyckoff_symbol
_atom_site_fract_x
_atom_site_fract_y
_atom_site_fract_z
_atom_site_occupancy
_atom_site_attached_hydrogens
Cu1 Cu1+ 2 a 0 0 0 1. 0 
In1 In3+ 2 b 0 0 0.5 1. 0 
In2 In3+ 2 d 0 0.5 0.750 1. 0 
Li1 Li1+ 2 c 0 0.5 0.250 1. 0 
Se1 Se2- 8 g 0.253 0.233 0.127 1. 0 

#End of data_183471-ICSD


