data_406329-ICSD
#?2014 by Fachinformationszentrum Karlsruhe, and the U.S. Secretary of 
#Commerce on behalf of the United States.  All rights reserved.
_database_code_ICSD                406329
_audit_creation_date               1998/06/26
_audit_update_record               2000/07/15
_chemical_name_systematic
;
Barium Zinc Oxovanadium(IV) Bis(phosphate(V))
;
_chemical_formula_structural       'Ba Zn (V O) (P O4)2'
_chemical_formula_sum              'Ba1 O9 P2 V1 Zn1'
_publ_section_title
;
Synthese und Kristallstruktur eines Barium-Zink-Vanadylphosphats Ba 
Zn (V O) (P O4)2 mit ((V O) (P O4))-Schichten
;
loop_
_citation_id
_citation_journal_abbrev
_citation_year
_citation_journal_volume
_citation_page_first
_citation_page_last
_citation_journal_id_ASTM
primary 'Zeitschrift fuer Naturforschung, B: Chemical Sciences'
 1997 52 367 371 ZNBSEN
_publ_author_name                  'Mueller Buschbaum, H.;Meyer, S.'
_cell_length_a                     8.8137(10)
_cell_length_b                     9.039(1)
_cell_length_c                     18.5381(10)
_cell_angle_alpha                  90.
_cell_angle_beta                   90.
_cell_angle_gamma                  90.
_cell_volume                       1476.88
_cell_formula_units_Z              8
_symmetry_space_group_name_H-M     'P b c a'
_symmetry_Int_Tables_number        61
_refine_ls_R_factor_all            .0683
loop_
_symmetry_equiv_pos_site_id
_symmetry_equiv_pos_as_xyz
  1	'x+.5, y, -z+.5'
  2	'x, -y+.5, z+.5'
  3	'-x+.5, y+.5, z'
  4	'-x, -y, -z'
  5	'-x+.5, -y, z+.5'
  6	'-x, y+.5, -z+.5'
  7	'x+.5, -y+.5, -z'
  8	'x, y, z'
loop_
_atom_type_symbol
_atom_type_oxidation_number
Ba2+	2
O2-	-2
P5+	5
V4+	4
Zn2+	2
loop_
_atom_site_label
_atom_site_type_symbol
_atom_site_symmetry_multiplicity
_atom_site_Wyckoff_symbol
_atom_site_fract_x
_atom_site_fract_y
_atom_site_fract_z
_atom_site_occupancy
_atom_site_attached_hydrogens
Ba1 Ba2+ 8 c 0.16019(3) 0.00122(4) 0.409840(15) 1. 0 
Zn1 Zn2+ 8 c 0.18588(7) 0.90800(7) 0.08490(3) 1. 0 
V1 V4+ 8 c 0.0001(1) 0.15824(9) 0.21347(4) 1. 0 
P1 P5+ 8 c 0.25163(15) 0.40586(13) 0.23802(6) 1. 0 
P2 P5+ 8 c 0.45078(15) 0.79480(14) 0.52741(7) 1. 0 
O1 O2- 8 c 0.0640(4) 0.6720(4) 0.4117(2) 1. 0 
O2 O2- 8 c 0.1489(4) 0.8184(4) 0.2904(2) 1. 0 
O3 O2- 8 c 0.3227(5) 0.9087(4) 0.5263(2) 1. 0 
O4 O2- 8 c 0.0301(4) 0.1531(4) 0.2979(2) 1. 0 
O5 O2- 8 c 0.3829(4) 0.6367(4) 0.5396(2) 1. 0 
O6 O2- 8 c 0.3514(4) 0.4955(4) 0.1836(2) 1. 0 
O7 O2- 8 c 0.5242(5) 0.7854(5) 0.4521(2) 1. 0 
O8 O2- 8 c 0.1624(4) 0.5080(4) 0.2883(2) 1. 0 
O9 O2- 8 c 0.1564(4) 0.3089(4) 0.1881(2) 1. 0 

loop_
_atom_site_aniso_label
_atom_site_aniso_type_symbol
_atom_site_aniso_U_11
_atom_site_aniso_U_22
_atom_site_aniso_U_33
_atom_site_aniso_U_12
_atom_site_aniso_U_13
_atom_site_aniso_U_23
Ba1 Ba2+ 0.01403(12) 0.01195(11) 0.00729(10) -.00203(12) 0.00102(10) 
-.00100(12)
Zn1 Zn2+ 0.0115(2) 0.0101(2) 0.0091(2) -.0007(2) 0.0010(2) -.0015(2)
V1 V4+ 0.0040(3) 0.0024(3) 0.0073(3) 0.0001(3) 0.0001(3) 0.0001(3)
P1 P5+ 0.0060(4) 0.0044(4) 0.0063(4) 0.0003(4) 0.0000(4) -.0001(4)
P2 P5+ 0.0081(5) 0.0050(4) 0.0073(5) -.0006(4) -.0007(4) 0.0000(4)
O1 O2- 0.013(2) 0.010(2) 0.013(2) 0.0033(13) 0.0026(14) 0.0015(14)
O2 O2- 0.0121(15) 0.0082(14) 0.0085(14) -.0065(13) 0.0023(13) 0.0007(12)
O3 O2- 0.015(2) 0.010(2) 0.018(2) 0.0035(15) -.0054(14) -.0005(15)
O4 O2- 0.016(2) 0.012(2) 0.011(2) -.0001(14) -.0029(13) 0.0012(14)
O5 O2- 0.013(2) 0.0064(14) 0.0111(15) -.0014(13) 0.0002(13) -.0004(13)
O6 O2- 0.0106(14) 0.0093(13) 0.0071(12) -.0029(14) 0.0024(11) 0.0003(14)
O7 O2- 0.020(2) 0.019(2) 0.012(2) -.007(2) 0.0039(14) -.003(2)
O8 O2- 0.0076(12) 0.0097(14) 0.0118(13) 0.0025(14) 0.0011(12) -.0016(14)
O9 O2- 0.015(2) 0.0098(14) 0.0086(14) -.0054(14) -.0019(13) -.0030(12)
#End of data_406329-ICSD


