data_37093-ICSD
#?2014 by Fachinformationszentrum Karlsruhe, and the U.S. Secretary of 
#Commerce on behalf of the United States.  All rights reserved.
_database_code_ICSD                37093
_audit_creation_date               1980/01/01
_audit_update_record               2006/04/01
_chemical_name_systematic          'Disodium Thiosulfate(VI) - Alpha'
_chemical_formula_structural       'Na2 (S2 O3)'
_chemical_formula_sum              'Na2 O3 S2'
_publ_section_title                'Zur Polymorphie des Na2 S2 O3'
loop_
_citation_id
_citation_journal_abbrev
_citation_year
_citation_journal_volume
_citation_page_first
_citation_page_last
_citation_journal_id_ASTM
primary
;
Zeitschrift fuer Naturforschung, Teil B. Anorganische Chemie, 
Organische Chemie (33,1978-41,1986)
;
 1979 34 957 968 ZNBAD2
2 'Golden Book of Phase Transitions, Wroclaw' 2002 1 1 123 GBOPT5
_publ_author_name                  'von Benda, H.;von Benda, K.'
_cell_length_a                     8.513(1)
_cell_length_b                     8.1581(8)
_cell_length_c                     6.4248(8)
_cell_angle_alpha                  90.
_cell_angle_beta                   97.08(1)
_cell_angle_gamma                  90.
_cell_volume                       442.8
_cell_formula_units_Z              4
_symmetry_space_group_name_H-M     'P 1 21/c 1'
_symmetry_Int_Tables_number        14
_refine_ls_R_factor_all            .04
loop_
_symmetry_equiv_pos_site_id
_symmetry_equiv_pos_as_xyz
  1	'x, -y+.5, z+.5'
  2	'-x, -y, -z'
  3	'-x, y+.5, -z+.5'
  4	'x, y, z'
loop_
_atom_type_symbol
_atom_type_oxidation_number
Na1+	1
O2-	-2
S2-	-2
S6+	6
loop_
_atom_site_label
_atom_site_type_symbol
_atom_site_symmetry_multiplicity
_atom_site_Wyckoff_symbol
_atom_site_fract_x
_atom_site_fract_y
_atom_site_fract_z
_atom_site_occupancy
_atom_site_attached_hydrogens
S1 S6+ 4 e 0.26563(4) 0.04665(4) 0.29555(7) 1. 0 
S2 S2- 4 e 0.21226(5) -.10656(5) 0.51980(8) 1. 0 
O1 O2- 4 e 0.37864(18) -.03075(15) 0.17427(27) 1. 0 
O2 O2- 4 e 0.33627(16) 0.19906(15) 0.38539(26) 1. 0 
O3 O2- 4 e 0.11642(16) 0.08603(18) 0.16293(25) 1. 0 
Na1 Na1+ 4 e 0.08705(11) -.62195(10) 0.29719(16) 1. 0 
Na2 Na1+ 4 e 0.45485(9) -.30417(10) 0.37742(15) 1. 0 

loop_
_atom_site_aniso_label
_atom_site_aniso_type_symbol
_atom_site_aniso_B_11
_atom_site_aniso_B_22
_atom_site_aniso_B_33
_atom_site_aniso_B_12
_atom_site_aniso_B_13
_atom_site_aniso_B_23
S1 S6+ 0.80(1) 0.97(1) 1.06(1) 0.02(1) 0.11(2) 0.09(1)
S2 S2- 1.27(1) 1.63(1) 1.65(2) -.19(1) 0.33(1) -.54(1)
O1 O2- 1.98(5) 1.44(4) 2.33(6) 0.04(4) 1.20(5) 0.38(4)
O2 O2- 1.80(5) 1.24(4) 1.81(6) 0.28(3) 0.00(4) 0.46(4)
O3 O2- 1.13(4) 2.32(5) 1.59(5) 0.20(4) -.27(4) -.56(4)
Na1 Na1+ 2.24(3) 2.10(3) 1.77(4) -.66(2) 0.23(3) -.02(3)
Na2 Na1+ 1.43(3) 1.84(3) 1.66(3) -.34(2) 0.20(2) 0.18(2)
#End of data_37093-ICSD


