data_26043-ICSD
#?2014 by Fachinformationszentrum Karlsruhe, and the U.S. Secretary of 
#Commerce on behalf of the United States.  All rights reserved.
_database_code_ICSD                26043
_audit_creation_date               1986/10/14
_chemical_name_systematic
;
Trichlorotellurium Tetrachloroaluminate
;
_chemical_formula_structural       'Te Cl3 Al Cl4'
_chemical_formula_sum              'Al1 Cl7 Te1'
_publ_section_title
;
Die Kristallstruktur von Trichlorotellur(IV)tetrachloroaluminat Te 
Cl3 Al Cl4
;
loop_
_citation_id
_citation_journal_abbrev
_citation_year
_citation_journal_volume
_citation_page_first
_citation_page_last
_citation_journal_id_ASTM
primary 'Zeitschrift fuer Anorganische und Allgemeine Chemie (1950) (DE)'
 1971 386 257 269 ZAACAB
_publ_author_name                  'Krebs, B.;Buss, B.;Altena, D.'
_cell_length_a                     6.600(5)
_cell_length_b                     12.675(8)
_cell_length_c                     13.578(8)
_cell_angle_alpha                  90.
_cell_angle_beta                   105.72(5)
_cell_angle_gamma                  90.
_cell_volume                       1093.38
_cell_formula_units_Z              4
_symmetry_space_group_name_H-M     'P 1 21/c 1'
_symmetry_Int_Tables_number        14
_refine_ls_R_factor_all            .055
loop_
_symmetry_equiv_pos_site_id
_symmetry_equiv_pos_as_xyz
  1	'x, -y+.5, z+.5'
  2	'-x, -y, -z'
  3	'-x, y+.5, -z+.5'
  4	'x, y, z'
loop_
_atom_type_symbol
_atom_type_oxidation_number
Al3+	3
Cl1-	-1
Te4+	4
loop_
_atom_site_label
_atom_site_type_symbol
_atom_site_symmetry_multiplicity
_atom_site_Wyckoff_symbol
_atom_site_fract_x
_atom_site_fract_y
_atom_site_fract_z
_atom_site_occupancy
_atom_site_attached_hydrogens
Te1 Te4+ 4 e 0.08418(6) 0.25042(3) 0.10706(3) 1. 0 
Al1 Al3+ 4 e 0.62375(27) 0.45870(14) 0.21985(14) 1. 0 
Cl1 Cl1- 4 e -.18597(30) 0.14723(16) 0.12605(18) 1. 0 
Cl2 Cl1- 4 e 0.20470(35) 0.13281(17) 0.00969(16) 1. 0 
Cl3 Cl1- 4 e -.11406(29) 0.34204(17) -.02899(15) 1. 0 
Cl4 Cl1- 4 e 0.38259(31) 0.12713(13) 0.28909(14) 1. 0 
Cl5 Cl1- 4 e -.05664(27) 0.41129(19) 0.23799(17) 1. 0 
Cl6 Cl1- 4 e 0.42943(26) 0.39669(14) 0.07866(13) 1. 0 
Cl7 Cl1- 4 e 0.51531(37) 0.40447(18) 0.34153(16) 1. 0 

#End of data_26043-ICSD


