data_162489-ICSD
#?2014 by Fachinformationszentrum Karlsruhe, and the U.S. Secretary of 
#Commerce on behalf of the United States.  All rights reserved.
_database_code_ICSD                162489
_audit_creation_date               2009/08/01
_chemical_name_systematic          'Potassium Alumosilicate - O1'
_chemical_formula_structural       'K (Al Si O4)'
_chemical_formula_sum              'Al1 K1 O4 Si1'
_publ_section_title
;
The structure of "orthorhombic" K Al Si O4 - O1: evidence for Al-Si 
order from MAS NMR data combined with Rietveld refinement and 
electron microscopy
;
loop_
_citation_id
_citation_journal_abbrev
_citation_year
_citation_journal_volume
_citation_page_first
_citation_page_last
_citation_journal_id_ASTM
primary 'Canadian Mineralogist' 2008 46 1511 1526 CAMIA6
_publ_author_name
;
Gregorkiewitz, M.;Li Ying;White, T.J.;Withers, R.L.;Sobrados, I.
;
_cell_length_a                     15.669(2)
_cell_length_b                     9.057(1)
_cell_length_c                     8.621(1)
_cell_angle_alpha                  90.
_cell_angle_beta                   90.
_cell_angle_gamma                  90.
_cell_volume                       1223.44
_cell_formula_units_Z              12
_symmetry_space_group_name_H-M     'P 1 21 1'
_symmetry_Int_Tables_number        4
_refine_ls_R_factor_all            .08
loop_
_symmetry_equiv_pos_site_id
_symmetry_equiv_pos_as_xyz
  1	'-x, y+.5, -z'
  2	'x, y, z'
loop_
_atom_type_symbol
_atom_type_oxidation_number
Al3+	3
K1+	1
O2-	-2
Si4+	4
loop_
_atom_site_label
_atom_site_type_symbol
_atom_site_symmetry_multiplicity
_atom_site_Wyckoff_symbol
_atom_site_fract_x
_atom_site_fract_y
_atom_site_fract_z
_atom_site_occupancy
_atom_site_attached_hydrogens
_atom_site_U_iso_or_equiv
Si1 Si4+ 2 a -0.2749(19) 0.343(4) 0.5480(33) 1. 0 0.0290(40) 
Al1 Al3+ 2 a -0.2756(21) 0.340(5) -0.0688(34) 1. 0 0.0290(40) 
Al2 Al3+ 2 a -0.1111(16) 0.169(5) 0.4311(34) 1. 0 0.0290(40) 
Si2 Si4+ 2 a -0.1127(16) 0.160(5) 0.0458(34) 1. 0 0.0290(40) 
Si3 Si4+ 2 a 0.0581(17) 0.336(5) 0.5531(35) 1. 0 0.0290(40) 
Al3 Al3+ 2 a 0.0566(19) 0.331(5) -0.0602(36) 1. 0 0.0290(40) 
Al4 Al3+ 2 a 0.2350(20) 0.179(5) 0.5669(36) 1. 0 0.0290(40) 
Si4 Si4+ 2 a 0.2334(18) 0.176(5) -0.0519(35) 1. 0 0.0290(40) 
Si5 Si4+ 2 a 0.4031(17) 0.331(5) 0.4488(34) 1. 0 0.0290(40) 
Al5 Al3+ 2 a 0.4043(18) 0.328(5) 0.0713(34) 1. 0 0.0290(40) 
Al6 Al3+ 2 a 0.5666(21) 0.162(5) 0.5507(37) 1. 0 0.0290(40) 
Si6 Si4+ 2 a 0.5644(19) 0.162(5) -0.0624(36) 1. 0 0.0290(40) 
O1 O2- 2 a -0.2062(23) 0.211(5) 0.5185(52) 1. 0 0.0130(50) 
O2 O2- 2 a -0.2039(21) 0.199(6) -0.0358(50) 1. 0 0.0130(50) 
O3 O2- 2 a -0.0329(22) 0.295(6) 0.4729(51) 1. 0 0.0130(50) 
O4 O2- 2 a -0.0436(23) 0.287(6) 0.0049(53) 1. 0 0.0130(50) 
O5 O2- 2 a 0.1338(21) 0.224(6) 0.5030(51) 1. 0 0.0130(50) 
O6 O2- 2 a 0.1351(19) 0.212(6) -0.0003(50) 1. 0 0.0130(50) 
O7 O2- 2 a 0.3021(18) 0.288(6) 0.4603(48) 1. 0 0.0130(50) 
O8 O2- 2 a 0.2992(21) 0.276(6) 0.0486(48) 1. 0 0.0486(48) 
O9 O2- 2 a 0.4600(22) 0.207(6) 0.5364(51) 1. 0 0.0130(50) 
O10 O2- 2 a 0.4652(21) 0.202(6) -0.0276(54) 1. 0 0.0130(50) 
O11 O2- 2 a 0.6338(22) 0.293(6) 0.4736(47) 1. 0 0.0130(50) 
O12 O2- 2 a 0.6299(22) 0.282(6) 0.0132(46) 1. 0 0.0130(50) 
O13 O2- 2 a -0.0839(28) 0.000(5) 0.5074(49) 1. 0 0.0130(50) 
O14 O2- 2 a -0.0801(29) 0.001(5) -0.0182(48) 1. 0 0.0130(50) 
O15 O2- 2 a 0.2433(31) -0.008(5) 0.5385(52) 1. 0 0.0130(50) 
O16 O2- 2 a 0.2454(32) 0.000(5) -0.0223(54) 1. 0 0.0130(50) 
O17 O2- 2 a 0.5868(30) -0.008(5) 0.4719(47) 1. 0 0.0130(50) 
O18 O2- 2 a 0.5865(29) 0.000(5) 0.0086(46) 1. 0 0.0130(50) 
O19 O2- 2 a -0.2844(28) 0.371(6) 0.7344(32) 1. 0 0.0510(70) 
O20 O2- 2 a -0.1267(26) 0.155(6) 0.2335(32) 1. 0 0.0510(70) 
O21 O2- 2 a 0.0449(26) 0.331(6) 0.7412(34) 1. 0 0.0510(70) 
O22 O2- 2 a 0.2443(28) 0.211(5) 0.7634(34) 1. 0 0.0510(70) 
O23 O2- 2 a 0.4294(24) 0.333(6) 0.2659(33) 1. 0 0.0510(70) 
O24 O2- 2 a 0.5778(26) 0.158(6) 0.7501(35) 1. 0 0.0510(70) 
K1 K1+ 2 a -0.2943(19) 0.0280(13) 0.247(5) 1. 0 0.0370(40) 
K2 K1+ 2 a -0.2086(18) -0.0280(13) 0.740(6) 1. 0 0.0370(40) 
K3 K1+ 2 a 0.0750(21) -0.0103(50) 0.754(6) 1. 0 0.0370(40) 
K4 K1+ 2 a 0.1033(21) 0.0129(57) 0.253(7) 1. 0 0.0370(40) 
K5 K1+ 2 a 0.3979(19) -0.0159(57) 0.748(7) 1. 0 0.0370(40) 
K6 K1+ 2 a 0.4545(17) -0.0045(44) 0.252(6) 1. 0 0.0370(40) 

#End of data_162489-ICSD


