data_280906-ICSD
#?2014 by Fachinformationszentrum Karlsruhe, and the U.S. Secretary of 
#Commerce on behalf of the United States.  All rights reserved.
_database_code_ICSD                280906
_audit_creation_date               2003/04/01
_audit_update_record               2005/10/01
_chemical_name_systematic
;
Lithium Disodium Hexafluoroaluminateide
;
_chemical_formula_structural       'Li Na2 (Al F6)'
_chemical_formula_sum              'Al1 F6 Li1 Na2'
_publ_section_title
;
Li Na2 Al F6: a powder structure solution
;
loop_
_citation_id
_citation_journal_abbrev
_citation_year
_citation_journal_volume
_citation_page_first
_citation_page_last
_citation_journal_id_ASTM
primary 'Acta Crystallographica, Section C: Crystal Structure Communications'
 2002 58 i159 i160 ACSCEE
_publ_author_name
;
Kirik, S.D.;Zaitseva, Yu.N.;Yakimov, I.S.;Golovnev, N.N.
;
_cell_length_a                     5.2863(4)
_cell_length_b                     5.3603(4)
_cell_length_c                     7.5025(6)
_cell_angle_alpha                  90.
_cell_angle_beta                   90.005(2)
_cell_angle_gamma                  90.
_cell_volume                       212.59
_cell_formula_units_Z              2
_symmetry_space_group_name_H-M     'P 1 21/n 1'
_symmetry_Int_Tables_number        14
_refine_ls_R_factor_all            .044
loop_
_symmetry_equiv_pos_site_id
_symmetry_equiv_pos_as_xyz
  1	'-x+.5, y+.5, -z+.5'
  2	'-x, -y, -z'
  3	'x+.5, -y+.5, z+.5'
  4	'x, y, z'
loop_
_atom_type_symbol
_atom_type_oxidation_number
Al3+	3
F1-	-1
Li1+	1
Na1+	1
loop_
_atom_site_label
_atom_site_type_symbol
_atom_site_symmetry_multiplicity
_atom_site_Wyckoff_symbol
_atom_site_fract_x
_atom_site_fract_y
_atom_site_fract_z
_atom_site_occupancy
_atom_site_attached_hydrogens
_atom_site_U_iso_or_equiv
Al1 Al3+ 2 a 0 0 0 1. 0 0.0087(6) 
Li1 Li1+ 2 b 0 0 0.5 1. 0 0.014(2) 
Na1 Na1+ 4 e -.0078(7) 0.4658(3) 0.2506(6) 1. 0 0.022(6) 
F1 F1- 4 e 0.0733(6) 0.0191(4) 0.2328(9) 1. 0 0.017(1) 
F2 F1- 4 e 0.2232(7) 0.3092(7) 0.5341(9) 1. 0 0.015(1) 
F3 F1- 4 e 0.1941(6) 0.2730(6) 0.9632(7) 1. 0 0.014(1) 

#End of data_280906-ICSD


