data_32518-ICSD
#?2014 by Fachinformationszentrum Karlsruhe, and the U.S. Secretary of 
#Commerce on behalf of the United States.  All rights reserved.
_database_code_ICSD                32518
_audit_creation_date               1982/12/31
_audit_update_record               2006/04/01
_chemical_name_systematic
;
Disodium Chloride Tetrahydroxoborate
;
_chemical_formula_structural       'Na2 Cl (B (O H)4)'
_chemical_formula_sum              'H4 B1 Cl1 Na2 O4'
_chemical_name_mineral             Teepleite
_publ_section_title
;
Verfeinerung der Kristallstruktur von synthetischem Teepleit
;
loop_
_citation_id
_citation_journal_abbrev
_citation_year
_citation_journal_volume
_citation_page_first
_citation_page_last
_citation_journal_id_ASTM
primary 'Acta Crystallographica B (24,1968-38,1982)' 1982 38 82 85 ACBCAR
2 'Periodico di Mineralogia' 1949 18 103 124 PEMIA7
_publ_author_name                  'Effenberger, H.'
_cell_length_a                     7.260(2)
_cell_length_b                     7.260(2)
_cell_length_c                     4.847(2)
_cell_angle_alpha                  90.
_cell_angle_beta                   90.
_cell_angle_gamma                  90.
_cell_volume                       255.47
_cell_formula_units_Z              2
_symmetry_space_group_name_H-M     'P 4/n m m Z'
_symmetry_Int_Tables_number        129
_refine_ls_R_factor_all            .037
loop_
_symmetry_equiv_pos_site_id
_symmetry_equiv_pos_as_xyz
  1	'y+.5, x+.5, -z'
  2	'-y, x+.5, -z'
  3	'y+.5, -x, -z'
  4	'-y, -x, -z'
  5	'x+.5, y+.5, -z'
  6	'-x, y+.5, -z'
  7	'x+.5, -y, -z'
  8	'-x, -y, -z'
  9	'-y+.5, -x+.5, z'
 10	'y, -x+.5, z'
 11	'-y+.5, x, z'
 12	'y, x, z'
 13	'-x+.5, -y+.5, z'
 14	'x, -y+.5, z'
 15	'-x+.5, y, z'
 16	'x, y, z'
loop_
_atom_type_symbol
_atom_type_oxidation_number
B3+	3
Cl1-	-1
H1+	1
Na1+	1
O2-	-2
loop_
_atom_site_label
_atom_site_type_symbol
_atom_site_symmetry_multiplicity
_atom_site_Wyckoff_symbol
_atom_site_fract_x
_atom_site_fract_y
_atom_site_fract_z
_atom_site_occupancy
_atom_site_attached_hydrogens
_atom_site_B_iso_or_equiv
Na1 Na1+ 4 e 0 0 0.5 1. 0 0 
Cl1 Cl1- 2 c 0.25 0.25 0.7331(3) 1. 0 0 
B1 B3+ 2 a 0.75 0.25 0 1. 0 0 
O1 O2- 8 i 0.25 -.0881(3) 0.1857(4) 1. 0 0 
H1 H1+ 8 i 0.25 0.006(7) 0.072(11) 1. 0 0.5(1) 

#End of data_32518-ICSD


