data_1939-ICSD
#?2014 by Fachinformationszentrum Karlsruhe, and the U.S. Secretary of 
#Commerce on behalf of the United States.  All rights reserved.
_database_code_ICSD                1939
_audit_creation_date               1980/01/01
_audit_update_record               2010/02/01
_chemical_name_systematic
;
Trisodium Cyclo-pentaoxodihydroxotriborate
;
_chemical_formula_structural       'Na3 (B3 O5 (O H)2)'
_chemical_formula_sum              'H2 B3 Na3 O7'
_publ_section_title
;
The crystal structure of Na3 B3 O5 (O H)2
;
loop_
_citation_id
_citation_journal_abbrev
_citation_year
_citation_journal_volume
_citation_page_first
_citation_page_last
_citation_journal_id_ASTM
primary 'Acta Crystallographica B (24,1968-38,1982)' 1975 31 1993 1997 ACBCAR
_publ_author_name
;
Corazza, E.;Menchetti, S.;Sabelli, C.
;
_cell_length_a                     8.923(1)
_cell_length_b                     7.152(1)
_cell_length_c                     9.548(1)
_cell_angle_alpha                  90.
_cell_angle_beta                   90.
_cell_angle_gamma                  90.
_cell_volume                       609.33
_cell_formula_units_Z              4
_symmetry_space_group_name_H-M     'P n m a'
_symmetry_Int_Tables_number        62
_refine_ls_R_factor_all            .029
loop_
_symmetry_equiv_pos_site_id
_symmetry_equiv_pos_as_xyz
  1	'x+.5, y, -z+.5'
  2	'x, -y+.5, z'
  3	'-x+.5, y+.5, z+.5'
  4	'-x, -y, -z'
  5	'-x+.5, -y, z+.5'
  6	'-x, y+.5, -z'
  7	'x+.5, -y+.5, -z+.5'
  8	'x, y, z'
loop_
_atom_type_symbol
_atom_type_oxidation_number
B3+	3
H1+	1
Na1+	1
O2-	-2
loop_
_atom_site_label
_atom_site_type_symbol
_atom_site_symmetry_multiplicity
_atom_site_Wyckoff_symbol
_atom_site_fract_x
_atom_site_fract_y
_atom_site_fract_z
_atom_site_occupancy
_atom_site_attached_hydrogens
_atom_site_B_iso_or_equiv
Na1 Na1+ 8 d 0.27174(7) 0.50189(9) 0.30250(7) 1. 0 0 
Na2 Na1+ 4 c 0.53606(11) 0.75 0.33138(10) 1. 0 0 
B1 B3+ 4 c 0.51456(28) 0.25 0.21562(25) 1. 0 0 
B2 B3+ 4 c 0.59687(28) 0.25 -.04128(27) 1. 0 0 
B3 B3+ 4 c 0.32457(27) 0.25 0.01941(26) 1. 0 0 
O1 O2- 8 d 0.53287(13) 0.41888(16) 0.30500(11) 1. 0 0 
O2 O2- 4 c 0.36184(17) 0.25 0.15959(16) 1. 0 0 
O3 O2- 4 c 0.62712(17) 0.25 0.10239(16) 1. 0 0 
O4 O2- 4 c 0.70061(18) 0.25 -.13946(17) 1. 0 0 
O5 O2- 4 c 0.44165(17) 0.25 -.07923(16) 1. 0 0 
O6 O2- 4 c 0.18312(16) 0.25 -.02559(16) 1. 0 0 
H1 H1+ 8 d 0.578(2) 0.392(3) 0.374(2) 1. 0 2. 

#End of data_1939-ICSD


