data_65123-ICSD
#?2014 by Fachinformationszentrum Karlsruhe, and the U.S. Secretary of 
#Commerce on behalf of the United States.  All rights reserved.
_database_code_ICSD                65123
_audit_creation_date               1989/06/19
_chemical_name_systematic
;
Potassium Tetracopper Tris(phosphate)
;
_chemical_formula_structural       'K Cu4 (P O4)3'
_chemical_formula_sum              'Cu4 K1 O12 P3'
_publ_section_title
;
KCu4(PO4)3: A compound with two trigonal dipyramidal Cu(II)O5 
coordination polyhedra
;
loop_
_citation_id
_citation_journal_abbrev
_citation_year
_citation_journal_volume
_citation_page_first
_citation_page_last
_citation_journal_id_ASTM
primary 'Zeitschrift fuer Kristallographie (1979-2010)' 1987 180 43 50 ZEKRDZ
_publ_author_name                  'Effenberger, H.'
_cell_length_a                     7.433(1)
_cell_length_b                     7.839(1)
_cell_length_c                     9.464(1)
_cell_angle_alpha                  108.28(1)
_cell_angle_beta                   112.68(1)
_cell_angle_gamma                  92.73(1)
_cell_volume                       474.1
_cell_formula_units_Z              2
_symmetry_space_group_name_H-M     'P -1'
_symmetry_Int_Tables_number        2
_refine_ls_R_factor_all            .031
loop_
_symmetry_equiv_pos_site_id
_symmetry_equiv_pos_as_xyz
  1	'-x, -y, -z'
  2	'x, y, z'
loop_
_atom_type_symbol
_atom_type_oxidation_number
Cu2+	2
K1+	1
O2-	-2
P5+	5
loop_
_atom_site_label
_atom_site_type_symbol
_atom_site_symmetry_multiplicity
_atom_site_Wyckoff_symbol
_atom_site_fract_x
_atom_site_fract_y
_atom_site_fract_z
_atom_site_occupancy
_atom_site_attached_hydrogens
K1 K1+ 2 i 0.30708(8) 0.13565(7) 0.32751(9) 1. 0 
Cu1 Cu2+ 2 i 0.73236(4) 0.09959(3) 0.09515(4) 1. 0 
Cu2 Cu2+ 2 i 0.73139(4) 0.46659(4) 0.07461(4) 1. 0 
Cu3 Cu2+ 2 i 0.30271(4) 0.61504(4) 0.28819(4) 1. 0 
Cu4 Cu2+ 2 i 0.02591(4) 0.79398(4) 0.45192(4) 1. 0 
P1 P5+ 2 i 0.70181(8) 0.44926(7) 0.38718(8) 1. 0 
P2 P5+ 2 i 0.61451(7) 0.85410(7) 0.25166(8) 1. 0 
P3 P5+ 2 i 0.97754(8) 0.74849(7) 0.05559(8) 1. 0 
O1 O2- 2 i 0.4852(2) 0.4630(2) 0.3447(2) 1. 0 
O2 O2- 2 i 0.7499(2) 0.3242(2) 0.4916(2) 1. 0 
O3 O2- 2 i 0.8407(2) 0.6340(2) 0.4810(2) 1. 0 
O4 O2- 2 i 0.7268(3) 0.3508(2) 0.2268(2) 1. 0 
O5 O2- 2 i 0.8335(2) 0.9384(2) 0.3774(2) 1. 0 
O6 O2- 2 i 0.5495(2) 0.9806(2) 0.1514(2) 1. 0 
O7 O2- 2 i 0.5937(2) 0.6605(2) 0.1338(2) 1. 0 
O8 O2- 2 i 0.4857(2) 0.8490(2) 0.3423(2) 1. 0 
O9 O2- 2 i 0.0773(2) 0.7387(2) 0.2294(2) 1. 0 
O10 O2- 2 i 0.8931(3) 0.9196(2) 0.0629(3) 1. 0 
O11 O2- 2 i 0.1358(2) 0.7457(2) -.0148(2) 1. 0 
O12 O2- 2 i 0.8169(2) 0.5740(2) -.0539(2) 1. 0 

loop_
_atom_site_aniso_label
_atom_site_aniso_type_symbol
_atom_site_aniso_U_11
_atom_site_aniso_U_22
_atom_site_aniso_U_33
_atom_site_aniso_U_12
_atom_site_aniso_U_13
_atom_site_aniso_U_23
K1 K1+ 0.0200(2) 0.0160(2) 0.0236(3) 0.0052(2) 0.0105(2) 0.0041(2)
Cu1 Cu2+ 0.0119(1) 0.0085(1) 0.0150(2) 0.0038(1) 0.0090(1) 0.0055(1)
Cu2 Cu2+ 0.0114(1) 0.0082(1) 0.0105(1) 0.0036(1) 0.0067(1) 0.0039(1)
Cu3 Cu2+ 0.0090(1) 0.0117(1) 0.0106(1) 0.0046(1) 0.0031(1) 0.0039(1)
Cu4 Cu2+ 0.0081(1) 0.0108(1) 0.0165(1) 0.0040(1) 0.0044(1) 0.0069(1)
P1 P5+ 0.0081(2) 0.0085(2) 0.0084(3) 0.0032(2) 0.0045(2) 0.0035(2)
P2 P5+ 0.0066(2) 0.0067(2) 0.0075(3) 0.0010(1) 0.0025(2) 0.0022(2)
P3 P5+ 0.0076(2) 0.0075(2) 0.0089(3) 0.0026(2) 0.0046(2) 0.0031(2)
O1 O2- 0.0086(7) 0.0154(7) 0.0136(9) 0.0053(5) 0.0051(6) 0.0062(7)
O2 O2- 0.0106(6) 0.0127(6) 0.0109(8) 0.0061(5) 0.0059(6) 0.0071(6)
O3 O2- 0.0123(6) 0.0101(6) 0.0155(9) 0.0001(5) 0.0073(7) 0.0020(6)
O4 O2- 0.0205(7) 0.0096(6) 0.0116(8) 0.0045(5) 0.0106(7) 0.0044(6)
O5 O2- 0.0061(5) 0.0095(6) 0.0120(8) 0.0014(5) 0.0003(6) 0.0024(6)
O6 O2- 0.0088(6) 0.0101(6) 0.0104(8) 0.0015(5) 0.0035(6) 0.0053(6)
O7 O2- 0.0112(6) 0.0079(6) 0.0110(8) 0.0026(5) 0.0039(6) 0.0002(6)
O8 O2- 0.0125(6) 0.0094(6) 0.0122(8) 0.0017(5) 0.0076(6) 0.0037(6)
O9 O2- 0.0103(6) 0.0161(7) 0.0080(8) 0.0058(5) 0.0046(6) 0.0049(6)
O10 O2- 0.0177(7) 0.0136(6) 0.0255(1) 0.0102(6) 0.0161(8) 0.0110(7)
O11 O2- 0.0130(6) 0.0096(6) 0.0161(9) 0.0045(5) 0.0103(7) 0.0065(6)
O12 O2- 0.0090(6) 0.0105(6) 0.0093(8) -.0003(5) 0.0033(6) 0.0030(6)
#End of data_65123-ICSD


