data_51856-ICSD
#?2014 by Fachinformationszentrum Karlsruhe, and the U.S. Secretary of 
#Commerce on behalf of the United States.  All rights reserved.
_database_code_ICSD                51856
_audit_creation_date               2004/10/01
_audit_update_record               2012/08/01
_chemical_name_systematic          'Zinc Selenate(IV)'
_chemical_formula_structural       'Zn (Se O3)'
_chemical_formula_sum              'O3 Se1 Zn1'
_publ_section_title
;
Crystal chemistry and magnetic properties of Se Cu(1-x) Zn(x) O3 (0<= 
x <= 1) perovskites
;
loop_
_citation_id
_citation_journal_abbrev
_citation_year
_citation_journal_volume
_citation_page_first
_citation_page_last
_citation_journal_id_ASTM
primary 'Journal of Solid State Chemistry' 2002 168 149 155 JSSCBI
_publ_author_name
;
Escamilla, R.;Gallardo Amores, J.M.;Moran, E.;Alario-Franco, M.A.
;
_cell_length_a                     5.9207(5)
_cell_length_b                     7.6655(4)
_cell_length_c                     5.0377(5)
_cell_angle_alpha                  90
_cell_angle_beta                   90
_cell_angle_gamma                  90
_cell_volume                       228.64
_cell_formula_units_Z              4
_symmetry_space_group_name_H-M     'P n m a'
_symmetry_Int_Tables_number        62
_refine_ls_R_factor_all            .141
loop_
_symmetry_equiv_pos_site_id
_symmetry_equiv_pos_as_xyz
  1	'x+.5, y, -z+.5'
  2	'x, -y+.5, z'
  3	'-x+.5, y+.5, z+.5'
  4	'-x, -y, -z'
  5	'-x+.5, -y, z+.5'
  6	'-x, y+.5, -z'
  7	'x+.5, -y+.5, -z+.5'
  8	'x, y, z'
loop_
_atom_type_symbol
_atom_type_oxidation_number
O2-	-2
Se4+	4
Zn2+	2
loop_
_atom_site_label
_atom_site_type_symbol
_atom_site_symmetry_multiplicity
_atom_site_Wyckoff_symbol
_atom_site_fract_x
_atom_site_fract_y
_atom_site_fract_z
_atom_site_occupancy
_atom_site_attached_hydrogens
_atom_site_U_iso_or_equiv
Se1 Se4+ 4 c 0.0266(3) 0.25 -.0161(4) 1. 0 0.03(4) 
Zn1 Zn2+ 4 b 0.0 0.0 0.5 1. 0 0.03(4) 
O1 O2- 4 c 0.0793(5) 0.25 0.3184(6) 1. 0 0.03(4) 
O2 O2- 8 d 0.1838(4) 0.0785(3) 0.8661(4) 1. 0 0.03(4) 

#End of data_51856-ICSD


