data_190681-ICSD
#?2014 by Fachinformationszentrum Karlsruhe, and the U.S. Secretary of 
#Commerce on behalf of the United States.  All rights reserved.
_database_code_ICSD                190681
_audit_creation_date               2014/08/01
_chemical_name_systematic          'Dicalcium Diborate'
_chemical_formula_structural       'Ca2 (B2 O5)'
_chemical_formula_sum              'B2 Ca2 O5'
_chemical_name_mineral             Shimazakiite-4O
_publ_section_title
;
Shimazakiite-4M and shimazakiite-4O, Ca2 B2 O5, two polytypes of a 
new mineral from Fuka, Okayama prefecture, Japan
;
loop_
_citation_id
_citation_journal_abbrev
_citation_year
_citation_journal_volume
_citation_journal_issue
_citation_page_first
_citation_page_last
_citation_journal_id_ASTM
primary 'Mineralogical Magazine (1969-)' 2013 77 1 93 105 MNLMBB
_publ_author_name
;
Kusachi, I.;Kobayashi, S.;Takechi, Y.;Nakamuta, Y.;Nagase, 
T.;Yokoyama, K.;Momma, K.;Miyawaki, R.;Shigeoka, M.;Matsubara, S.
;
_cell_length_a                     3.55645(8)
_cell_length_b                     6.35194(15)
_cell_length_c                     19.2534(5)
_cell_angle_alpha                  90.
_cell_angle_beta                   90.
_cell_angle_gamma                  90.
_cell_volume                       434.93
_cell_formula_units_Z              4
_symmetry_space_group_name_H-M     'P 21 21 21'
_symmetry_Int_Tables_number        19
_refine_ls_R_factor_all            .0142
loop_
_symmetry_equiv_pos_site_id
_symmetry_equiv_pos_as_xyz
  1	'-x, y+.5, -z+.5'
  2	'x+.5, -y+.5, -z'
  3	'-x+.5, -y, z+.5'
  4	'x, y, z'
loop_
_atom_type_symbol
_atom_type_oxidation_number
B3+	3
Ca2+	2
O2-	-2
loop_
_atom_site_label
_atom_site_type_symbol
_atom_site_symmetry_multiplicity
_atom_site_Wyckoff_symbol
_atom_site_fract_x
_atom_site_fract_y
_atom_site_fract_z
_atom_site_occupancy
_atom_site_attached_hydrogens
_atom_site_U_iso_or_equiv
Ca1 Ca2+ 4 a 0.29761(12) 0.20104(5) 0.210507(15) 1. 0 0.00757(14) 
Ca2 Ca2+ 4 a 0.79738(12) 0.44688(5) 0.061518(15) 1. 0 0.00791(14) 
B1 B3+ 4 a 0.1863(5) 0.7181(3) 0.15670(9) 1. 0 0.0079(4) 
B2 B3+ 4 a 0.1426(5) 0.5033(3) 0.41790(8) 1. 0 0.0074(4) 
O1 O2- 4 a 0.7986(3) 0.05583(15) 0.01528(5) 1. 0 0.0094(2) 
O2 O2- 4 a 0.7950(4) 0.14306(17) 0.13453(6) 1. 0 0.0091(3) 
O3 O2- 4 a 0.3157(4) 0.51855(18) 0.14809(6) 1. 0 0.0105(3) 
O4 O2- 4 a 0.0037(4) 0.80046(16) 0.09633(5) 1. 0 0.0114(3) 
O5 O2- 4 a 0.2079(4) 0.82822(16) 0.21757(6) 1. 0 0.0097(3) 

loop_
_atom_site_aniso_label
_atom_site_aniso_type_symbol
_atom_site_aniso_U_11
_atom_site_aniso_U_22
_atom_site_aniso_U_33
_atom_site_aniso_U_12
_atom_site_aniso_U_13
_atom_site_aniso_U_23
Ca1 Ca2+ 0.0082(2) 0.0072(2) 0.00734(19) -0.00008(14) 0.00001(12) 
-0.00052(10)
Ca2 Ca2+ 0.0078(2) 0.0088(2) 0.0072(2) 0.00011(12) 0.00014(12) -0.00019(11)
B1 B3+ 0.0061(8) 0.0090(8) 0.0084(7) -0.0011(8) -0.0006(6) 0.0026(5)
B2 B3+ 0.0070(7) 0.0051(8) 0.0101(7) 0.0012(7) -0.0006(6) -0.0007(6)
O1 O2- 0.0104(5) 0.0106(6) 0.0071(5) 0.0011(6) -0.0002(4) 0.0017(4)
O2 O2- 0.0093(6) 0.0098(5) 0.0082(5) 0.0021(5) -0.0011(5) -0.0040(4)
O3 O2- 0.0117(6) 0.0093(5) 0.0105(5) 0.0030(6) 0.0014(5) 0.0019(4)
O4 O2- 0.0198(6) 0.0071(5) 0.0072(5) 0.0036(6) -0.0030(5) -0.0007(4)
O5 O2- 0.0123(6) 0.0091(6) 0.0078(5) -0.0012(5) -0.0004(5) 0.0002(4)
#End of data_190681-ICSD


