data_35240-ICSD
#?2014 by Fachinformationszentrum Karlsruhe, and the U.S. Secretary of 
#Commerce on behalf of the United States.  All rights reserved.
_database_code_ICSD                35240
_audit_creation_date               1982/12/31
_chemical_name_systematic
;
Potassium Cis-dibromo-hydrogenbis(sulfato(IV))-platinate(II) Hydrate
;
_chemical_formula_structural       'K3 (Pt ((S O3)2 H) Br2) H2 O'
_chemical_formula_sum              'H3 Br2 K3 O7 Pt1 S2'
_publ_section_title
;
Tripotassium Cis-Dibromo(hydrogenbissulfito)platinate(II) Monohydrate
;
loop_
_citation_id
_citation_journal_abbrev
_citation_year
_citation_journal_volume
_citation_page_first
_citation_page_last
_citation_journal_id_ASTM
primary 'Acta Crystallographica B (24,1968-38,1982)' 1982 38 2997 3000 ACBCAR
_publ_author_name
;
Breitinger, D.K.;Petrikowski, G.;Bauer, G.
;
_cell_length_a                     8.764(4)
_cell_length_b                     6.934(2)
_cell_length_c                     21.544(9)
_cell_angle_alpha                  90.
_cell_angle_beta                   99.32(4)
_cell_angle_gamma                  90.
_cell_volume                       1291.94
_cell_formula_units_Z              4
_symmetry_space_group_name_H-M     'P 1 21/c 1'
_symmetry_Int_Tables_number        14
_refine_ls_R_factor_all            .0248
loop_
_symmetry_equiv_pos_site_id
_symmetry_equiv_pos_as_xyz
  1	'x, -y+.5, z+.5'
  2	'-x, -y, -z'
  3	'-x, y+.5, -z+.5'
  4	'x, y, z'
loop_
_atom_type_symbol
_atom_type_oxidation_number
Br1-	-1
H1+	1
K1+	1
O2-	-2
Pt2+	2
S4+	4
loop_
_atom_site_label
_atom_site_type_symbol
_atom_site_symmetry_multiplicity
_atom_site_Wyckoff_symbol
_atom_site_fract_x
_atom_site_fract_y
_atom_site_fract_z
_atom_site_occupancy
_atom_site_attached_hydrogens
_atom_site_U_iso_or_equiv
Pt1 Pt2+ 4 e 0.22041(3) 0.27164(4) 0.87238(1) 1. 0 0.0163(2) 
Br1 Br1- 4 e 0.48296(8) 0.12280(11) 0.88108(4) 1. 0 0.0312(4) 
Br2 Br1- 4 e 0.17893(9) 0.08403(11) 0.96600(4) 1. 0 0.0347(4) 
S1 S4+ 4 e 0.2797(2) 0.4307(2) 0.7892(1) 1. 0 0.0215(8) 
S2 S4+ 4 e -.0095(2) 0.4142(2) 0.8744(1) 1. 0 0.0206(8) 
O1 O2- 4 e -.1345(6) 0.2773(7) 0.8787(3) 1. 0 0.0355(17) 
O2 O2- 4 e 0.1405(6) 0.5381(8) 0.7527(3) 1. 0 0.0451(17) 
O3 O2- 4 e 0.3316(6) 0.3046(7) 0.7425(3) 1. 0 0.0295(16) 
O4 O2- 4 e 0.4006(6) 0.5748(7) 0.8108(3) 1. 0 0.0339(16) 
O5 O2- 4 e -.0618(5) 0.5345(7) 0.8142(2) 1. 0 0.0291(16) 
O6 O2- 4 e 0.0046(6) 0.5500(7) 0.9267(3) 1. 0 0.0342(16) 
H1 H1+ 4 e 0.0214(18) 0.4934(18) 0.7758(17) 1. 0 0.0499(19) 
K1 K1+ 4 e 0.3517(2) 0.5961(2) 0.2386(1) 1. 0 0.0294(8) 
K2 K1+ 4 e 0.2600(2) 0.6018(3) 0.0136(1) 1. 0 0.0365(9) 
K3 K1+ 4 e 0.1408(2) 0.1086(2) 0.1260(1) 1. 0 0.0386(9) 
O7 O2- 4 e 0.4905(8) 0.3416(9) 0.0622(3) 1. 0 0.0678(17) 
H2 H1+ 4 e 0.3965(18) 0.3394(18) 0.0807(17) 1. 0 0.0461(18) 
H3 H1+ 4 e 0.5658(18) 0.3452(18) 0.0945(16) 1. 0 0.0462(18) 

#End of data_35240-ICSD


