data_163176-ICSD
#?2014 by Fachinformationszentrum Karlsruhe, and the U.S. Secretary of 
#Commerce on behalf of the United States.  All rights reserved.
_database_code_ICSD                163176
_audit_creation_date               2009/08/01
_chemical_name_systematic          'Dilithium Tetraborate'
_chemical_formula_structural       'Li2 (B4 O7)'
_chemical_formula_sum              'B4 Li2 O7'
_publ_section_title
;
The crystal structure of Li2 B4 O7 compound in the temperature range 
10 - 290 K
;
loop_
_citation_id
_citation_journal_abbrev
_citation_year
_citation_journal_volume
_citation_page_first
_citation_page_last
_citation_journal_id_ASTM
primary 'Journal of Alloys and Compounds' 2009 475 869 873 JALCEU
_publ_author_name
;
Adamiv, V.T.;Burak, Ya.V.;Teslyuk, I.M.
;
_cell_length_a                     9.4774(2)
_cell_length_b                     9.4774(2)
_cell_length_c                     10.2925(3)
_cell_angle_alpha                  90.
_cell_angle_beta                   90.
_cell_angle_gamma                  90.
_cell_volume                       924.48
_cell_formula_units_Z              8
_symmetry_space_group_name_H-M     'I 41 c d'
_symmetry_Int_Tables_number        110
_refine_ls_R_factor_all            .1192
loop_
_symmetry_equiv_pos_site_id
_symmetry_equiv_pos_as_xyz
  1	'-y, -x+.5, z+.75'
  2	'-y, x+.5, z+.25'
  3	'x, -y, z+.5'
  4	'-x, -y, z'
  5	'y, x+.5, z+.75'
  6	'y, -x+.5, z+.25'
  7	'-x, y, z+.5'
  8	'x, y, z'
  9	'-y+.5, -x, z+.25'
 10	'-y+.5, x, z+.75'
 11	'x+.5, -y+.5, z'
 12	'-x+.5, -y+.5, z+.5'
 13	'y+.5, x, z+.25'
 14	'y+.5, -x, z+.75'
 15	'-x+.5, y+.5, z'
 16	'x+.5, y+.5, z+.5'
loop_
_atom_type_symbol
_atom_type_oxidation_number
B3+	3
Li1+	1
O2-	-2
loop_
_atom_site_label
_atom_site_type_symbol
_atom_site_symmetry_multiplicity
_atom_site_Wyckoff_symbol
_atom_site_fract_x
_atom_site_fract_y
_atom_site_fract_z
_atom_site_occupancy
_atom_site_attached_hydrogens
_atom_site_B_iso_or_equiv
Li1 Li1+ 16 b 0.1444(6) 0.1634(6) 0.8549(6) 1. 0 2.74(10) 
B1 B3+ 16 b 0.1680(4) 0.0847(3) 0.2002(4) 1. 0 1.32(5) 
B2 B3+ 16 b 0.9433(3) 0.1120(3) 0.0841(4) 1. 0 0.97(5) 
O1 O2- 16 b 0.2817(2) 0.1366(1) 0.2691(3) 1. 0 0.41(2) 
O2 O2- 16 b 0.0634(2) 0.1778(2) 0.1595(2) 1. 0 0.71(3) 
O3 O2- 16 b 0.1588(2) -0.0583(2) 0.1832(2) 1. 0 0.55(3) 
O4 O2- 8 a 0 0 0 1. 0 0.63(4) 

#End of data_163176-ICSD


