data_47108-ICSD
#?2014 by Fachinformationszentrum Karlsruhe, and the U.S. Secretary of 
#Commerce on behalf of the United States.  All rights reserved.
_database_code_ICSD                47108
_audit_creation_date               1985/03/06
_audit_update_record               1985/05/24
_chemical_name_systematic
;
Potassium Dihydrogentriphosphate Hydrate
;
_chemical_formula_structural       'K3 H2 P3 O10 H2 O'
_chemical_formula_sum              'H4 K3 O11 P3'
_publ_section_title
;
The crystal structures of Iron(III) and Potassium dihydrogen 
triphosphate
;
loop_
_citation_id
_citation_journal_abbrev
_citation_year
_citation_journal_volume
_citation_page_first
_citation_page_last
_citation_journal_id_ASTM
primary 'Acta Chemica Scandinavica, Series A: (28,1974-)'
 1984 38 663 669 ACAPCT
_publ_author_name                  'Lutsko, V.;Johansson, G.'
_cell_length_a                     7.588(2)
_cell_length_b                     11.163(4)
_cell_length_c                     26.697(8)
_cell_angle_alpha                  90.
_cell_angle_beta                   90.
_cell_angle_gamma                  90.
_cell_volume                       2261.37
_cell_formula_units_Z              8
_symmetry_space_group_name_H-M     'P b c a'
_symmetry_Int_Tables_number        61
_refine_ls_R_factor_all            .051
loop_
_symmetry_equiv_pos_site_id
_symmetry_equiv_pos_as_xyz
  1	'x+.5, y, -z+.5'
  2	'x, -y+.5, z+.5'
  3	'-x+.5, y+.5, z'
  4	'-x, -y, -z'
  5	'-x+.5, -y, z+.5'
  6	'-x, y+.5, -z+.5'
  7	'x+.5, -y+.5, -z'
  8	'x, y, z'
loop_
_atom_type_symbol
_atom_type_oxidation_number
H1+	1
K1+	1
O2-	-2
P5+	5
loop_
_atom_site_label
_atom_site_type_symbol
_atom_site_symmetry_multiplicity
_atom_site_Wyckoff_symbol
_atom_site_fract_x
_atom_site_fract_y
_atom_site_fract_z
_atom_site_occupancy
_atom_site_attached_hydrogens
K1 K1+ 8 c 0.26555(18) 0.49106(12) 0.46440(4) 1. 0 
K2 K1+ 8 c 0.23377(18) 0.48551(12) 0.29244(5) 1. 0 
K3 K1+ 8 c 0.36217(19) 0.02814(12) 0.12345(5) 1. 0 
P1 P5+ 8 c 0.10309(20) 0.24207(13) 0.03964(6) 1. 0 
P2 P5+ 8 c 0.09255(20) 0.24752(13) 0.20874(6) 1. 0 
P3 P5+ 8 c 0.34193(21) 0.22198(13) 0.37708(5) 1. 0 
O1 O2- 8 c 0.0898(6) 0.3749(4) 0.0404(2) 1. 0 
O2 O2- 8 c 0.0620(6) 0.3778(4) 0.2133(2) 1. 0 
O3 O2- 8 c 0.2698(5) 0.2077(4) 0.1911(2) 1. 0 
O4 O2- 8 c 0.1955(6) 0.1341(4) 0.3794(2) 1. 0 
O5 O2- 8 c 0.2807(6) 0.1857(4) 0.0467(2) 1. 0 
O6 O2- 8 c 0.3076(6) 0.3521(4) 0.3794(1) 1. 0 
O7 O2- 8 c 0.0562(7) 0.1768(5) 0.2583(2) 1. 0 
O8 O2- 8 c 0.4458(6) 0.1896(4) 0.3264(2) 1. 0 
O9 O2- 8 c 0.4808(8) 0.1823(4) 0.4184(2) 1. 0 
O10 O2- 8 c 0.5239(8) 0.3144(5) 0.0092(2) 1. 0 
O11 O2- 8 c 0.4436(8) 0.4045(5) 0.1436(3) 1. 0 
H1 H1+ 8 c 0.472(11) 0.198(8) 0.219(3) 1. 0 
H2 H1+ 8 c 0.466(11) 0.288(8) 0.526(3) 1. 0 
H3 H1+ 8 c 0.387(11) 0.323(8) 0.148(3) 1. 0 
H4 H1+ 8 c 0.007(11) 0.389(8) 0.374(3) 1. 0 

#End of data_47108-ICSD


