data_153518-ICSD
#?2014 by Fachinformationszentrum Karlsruhe, and the U.S. Secretary of 
#Commerce on behalf of the United States.  All rights reserved.
_database_code_ICSD                153518
_audit_creation_date               2006/10/01
_audit_update_record               2008/02/01
_chemical_name_systematic
;
Lithium Erbium Tetrakis(phosphate(V))
;
_chemical_formula_structural       'Li Er (P O3)4'
_chemical_formula_sum              'Er1 Li1 O12 P4'
_publ_section_title
;
Synthesis, crystal structure and infrared study of Li Er (P O3)4
;
loop_
_citation_id
_citation_journal_abbrev
_citation_year
_citation_journal_volume
_citation_page_first
_citation_page_last
_citation_journal_id_ASTM
primary 'Materials Research Bulletin' 2005 40 1985 1992 MRBUAC
_publ_author_name
;
Ben Zarkouna, E.;Ferid, M.;Driss, A.
;
_cell_length_a                     16.262(2)
_cell_length_b                     7.032(1)
_cell_length_c                     9.549(2)
_cell_angle_alpha                  90.
_cell_angle_beta                   125.95(1)
_cell_angle_gamma                  90.
_cell_volume                       883.98
_cell_formula_units_Z              4
_symmetry_space_group_name_H-M     'C 1 2/c 1'
_symmetry_Int_Tables_number        15
_refine_ls_R_factor_all            .018
loop_
_symmetry_equiv_pos_site_id
_symmetry_equiv_pos_as_xyz
  1	'x, -y, z+.5'
  2	'-x, -y, -z'
  3	'-x, y, -z+.5'
  4	'x, y, z'
  5	'x+.5, -y+.5, z+.5'
  6	'-x+.5, -y+.5, -z'
  7	'-x+.5, y+.5, -z+.5'
  8	'x+.5, y+.5, z'
loop_
_atom_type_symbol
_atom_type_oxidation_number
Er3+	3
Li1+	1
O2-	-2
P5+	5
loop_
_atom_site_label
_atom_site_type_symbol
_atom_site_symmetry_multiplicity
_atom_site_Wyckoff_symbol
_atom_site_fract_x
_atom_site_fract_y
_atom_site_fract_z
_atom_site_occupancy
_atom_site_attached_hydrogens
_atom_site_U_iso_or_equiv
Li1 Li1+ 4 e 0 0.293(1) 0.750 1. 0 0.014(2) 
Er1 Er3+ 4 e 0 0.20358(3) 0.250 1. 0 0.00479(9) 
P1 P5+ 8 f 0.13747(6) 0.4489(1) 0.65917(9) 1. 0 0.0046(1) 
P2 P5+ 8 f 0.85374(6) 0.1493(1) 0.40271(9) 1. 0 0.0049(1) 
O1 O2- 8 f 0.1131(2) 0.2846(3) 0.5423(3) 1. 0 0.0100(4) 
O2 O2- 8 f 0.9297(2) 0.0821(3) 0.5833(3) 1. 0 0.0086(4) 
O3 O2- 8 f 0.8719(2) 0.1154(4) 0.2688(3) 1. 0 0.0098(4) 
O4 O2- 8 f 0.8435(2) 0.3726(3) 0.4210(3) 1. 0 0.0088(4) 
O5 O2- 8 f 0.7449(2) 0.0768(4) 0.3420(3) 1. 0 0.0090(4) 
O6 O2- 8 f 0.0648(2) 0.4985(3) 0.7023(3) 1. 0 0.0083(4) 

loop_
_atom_site_aniso_label
_atom_site_aniso_type_symbol
_atom_site_aniso_U_11
_atom_site_aniso_U_22
_atom_site_aniso_U_33
_atom_site_aniso_U_12
_atom_site_aniso_U_13
_atom_site_aniso_U_23
Li1 Li1+ 0.017(4) 0.011(4) 0.012(4) 0.000 0.007(4) 0.000
Er1 Er3+ 0.0037(1) 0.0060(1) 0.0035(1) 0.0000 0.00148(8) 0.0000
P1 P5+ 0.0033(3) 0.0055(3) 0.0036(3) 0.0002(2) 0.0011(3) 0.0000(2)
P2 P5+ 0.0031(3) 0.0065(3) 0.0029(3) -0.0004(3) 0.0006(3) 0.0002(3)
O1 O2- 0.010(1) 0.009(1) 0.007(1) 0.0000(8) 0.0030(9) -0.0021(8)
O2 O2- 0.0063(9) 0.009(1) 0.0046(9) -0.0009(8) -0.0003(8) 0.0011(8)
O3 O2- 0.009(1) 0.013(1) 0.008(1) -0.0004(9) 0.0062(9) -0.0010(8)
O4 O2- 0.013(1) 0.006(1) 0.011(1) 0.0000(8) 0.0087(9) 0.0012(8)
O5 O2- 0.0042(9) 0.015(1) 0.0050(9) -0.0034(8) 0.0013(8) -0.0012(8)
O6 O2- 0.0057(9) 0.011(1) 0.0083(9) -0.0006(8) 0.0041(8) 0.0003(8)
#End of data_153518-ICSD


