data_170108-ICSD
#?2014 by Fachinformationszentrum Karlsruhe, and the U.S. Secretary of 
#Commerce on behalf of the United States.  All rights reserved.
_database_code_ICSD                170108
_audit_creation_date               2005/10/01
_chemical_name_systematic
;
Silver Dicadmium Gallium Tetrasulfide
;
_chemical_formula_structural       'Ag Cd2 Ga S4'
_chemical_formula_sum              'Ag1 Cd2 Ga1 S4'
_publ_section_title
;
Redetermination of quaternary phase silver dicadmium gallium 
tetrasulfide, Ag Cd2 Ga S4
;
loop_
_citation_id
_citation_journal_abbrev
_citation_year
_citation_journal_volume
_citation_page_first
_citation_page_last
_citation_journal_id_ASTM
primary 'Acta Crystallographica, Section E. Structure Reports Online'
 2005 61 i91 i93 ACSEBH
_publ_author_name
;
Pervukhina, N.V.;Atuchin, V.V.;Parasyuk, O.V.
;
_cell_length_a                     8.1395(9)
_cell_length_b                     6.9394(8)
_cell_length_c                     6.6014(7)
_cell_angle_alpha                  90.00
_cell_angle_beta                   90.00
_cell_angle_gamma                  90.00
_cell_volume                       372.87
_cell_formula_units_Z              2
_symmetry_space_group_name_H-M     'P m n 21'
_symmetry_Int_Tables_number        31
_refine_ls_R_factor_all            .0472
loop_
_symmetry_equiv_pos_site_id
_symmetry_equiv_pos_as_xyz
  1	'x+.5, -y, z+.5'
  2	'-x+.5, -y, z+.5'
  3	'-x, y, z'
  4	'x, y, z'
loop_
_atom_type_symbol
_atom_type_oxidation_number
Ag1+	1
Cd2+	2
Ga3+	3
S2-	-2
loop_
_atom_site_label
_atom_site_type_symbol
_atom_site_symmetry_multiplicity
_atom_site_Wyckoff_symbol
_atom_site_fract_x
_atom_site_fract_y
_atom_site_fract_z
_atom_site_occupancy
_atom_site_attached_hydrogens
_atom_site_U_iso_or_equiv
Ag1 Ag1+ 2 a 0.0000 0.33896(10) 0.50805(16) 1 0 0.0305(2) 
Cd1 Cd2+ 4 b 0.25226(4) 0.82638(6) 0.51089(8) 1 0 0.02250(19) 
Ga1 Ga3+ 2 a 0.5000 0.32571(10) 0.50781(19) 1 0 0.01077(18) 
S1 S2- 4 b 0.26431(17) 0.1725(2) 0.3949(4) 1 0 0.0187(4) 
S2 S2- 2 a 0.0000 0.6778(3) 0.3619(5) 1 0 0.0197(5) 
S3 S2- 2 a 0.5000 0.6394(3) 0.3949(5) 1 0 0.0218(5) 

loop_
_atom_site_aniso_label
_atom_site_aniso_type_symbol
_atom_site_aniso_U_11
_atom_site_aniso_U_22
_atom_site_aniso_U_33
_atom_site_aniso_U_12
_atom_site_aniso_U_13
_atom_site_aniso_U_23
Ag1 Ag1+ 0.0317(4) 0.0326(4) 0.0272(4) 0.000 0.000 0.0059(6)
Cd1 Cd2+ 0.0212(2) 0.0251(3) 0.0212(3) -0.00062(13) 0.00027(16) 0.0010(4)
Ga1 Ga3+ 0.0118(3) 0.0123(4) 0.0083(4) 0.000 0.000 0.0014(5)
S1 S2- 0.0213(6) 0.0177(7) 0.0169(10) 0.0002(5) 0.0025(6) 0.0015(6)
S2 S2- 0.0169(8) 0.0249(10) 0.0172(11) 0.000 0.000 -0.0018(9)
S3 S2- 0.0185(9) 0.0207(10) 0.0261(14) 0.000 0.000 -0.0073(10)
#End of data_170108-ICSD


