data_171352-ICSD
#?2014 by Fachinformationszentrum Karlsruhe, and the U.S. Secretary of 
#Commerce on behalf of the United States.  All rights reserved.
_database_code_ICSD                171352
_audit_creation_date               2006/10/01
_chemical_name_systematic          'Tetralithium Borohydride Triamide'
_chemical_formula_structural       'Li4 (B H4) (N H2)3'
_chemical_formula_sum              'H10 B1 Li4 N3'
_publ_section_title
;
On the composition and crystal structure of the new quaternary 
hydride phase Li4 B N3 H10
;
loop_
_citation_id
_citation_journal_abbrev
_citation_year
_citation_journal_volume
_citation_journal_issue
_citation_page_first
_citation_page_last
_citation_journal_id_ASTM
primary 'Inorganic Chemistry' 2006 45 4 1433 1435 INOCAJ
_publ_author_name
;
Filinchuk, Y.E.;Yvon, K.;Meisner, G.P.;Pinkerton, F.E.;Balogh, M.P.
;
_cell_length_a                     10.6794(10)
_cell_length_b                     10.6794(10)
_cell_length_c                     10.6794(10)
_cell_angle_alpha                  90.
_cell_angle_beta                   90.
_cell_angle_gamma                  90.
_cell_volume                       1217.98
_cell_formula_units_Z              8
_symmetry_space_group_name_H-M     'I 21 3'
_symmetry_Int_Tables_number        199
_refine_ls_R_factor_all            .0331
loop_
_symmetry_equiv_pos_site_id
_symmetry_equiv_pos_as_xyz
  1	'-z+.5, -x, y+.5'
  2	'-y+.5, -z, x+.5'
  3	'-x+.5, -y, z+.5'
  4	'-z, x+.5, -y+.5'
  5	'-y, z+.5, -x+.5'
  6	'-x, y+.5, -z+.5'
  7	'z+.5, -x+.5, -y'
  8	'y+.5, -z+.5, -x'
  9	'x+.5, -y+.5, -z'
 10	'z, x, y'
 11	'y, z, x'
 12	'x, y, z'
 13	'-z, -x+.5, y'
 14	'-y, -z+.5, x'
 15	'-x, -y+.5, z'
 16	'-z+.5, x, -y'
 17	'-y+.5, z, -x'
 18	'-x+.5, y, -z'
 19	'z, -x, -y+.5'
 20	'y, -z, -x+.5'
 21	'x, -y, -z+.5'
 22	'z+.5, x+.5, y+.5'
 23	'y+.5, z+.5, x+.5'
 24	'x+.5, y+.5, z+.5'
loop_
_atom_type_symbol
_atom_type_oxidation_number
B3+	3
H1-	-1
H1+	1
Li1+	1
N3-	-3
loop_
_atom_site_label
_atom_site_type_symbol
_atom_site_symmetry_multiplicity
_atom_site_Wyckoff_symbol
_atom_site_fract_x
_atom_site_fract_y
_atom_site_fract_z
_atom_site_occupancy
_atom_site_attached_hydrogens
_atom_site_U_iso_or_equiv
N1 N3- 24 c 0.11536(7) 0.35931(7) 0.40525(9) 1 0 0.0264(3) 
B1 B3+ 8 a 0.11360(10) 0.11360(10) 0.11360(10) 1 0 0.0298(4) 
Li1 Li1+ 12 b 0.2871(2) 0.0000 0.2500 1 0 0.0402(6) 
Li2 Li1+ 12 b 0.5237(2) 0.0000 0.2500 1 0 0.0306(6) 
Li3 Li1+ 8 a 0.48330(16) 0.48330(16) 0.48330(16) 1 0 0.0305(7) 
H1 H1+ 24 c 0.1751(17) 0.3100(16) 0.3969(16) 1 0 0.059(4) 
H2 H1+ 24 c 0.1145(14) 0.4051(14) 0.3391(16) 1 0 0.049(4) 
H3 H1- 24 c 0.0123(14) 0.1194(14) 0.1460(12) 1 0 0.057(4) 
H4 H1- 8 a 0.1721(14) 0.1721(14) 0.1721(14) 1 0 0.049(7) 

loop_
_atom_site_aniso_label
_atom_site_aniso_type_symbol
_atom_site_aniso_U_11
_atom_site_aniso_U_22
_atom_site_aniso_U_33
_atom_site_aniso_U_12
_atom_site_aniso_U_13
_atom_site_aniso_U_23
N1 N3- 0.0268(5) 0.0259(4) 0.0264(5) -0.0008(3) 0.0015(3) -0.0028(3)
B1 B3+ 0.0298(4) 0.0298(4) 0.0298(4) -0.0015(4) -0.0015(4) -0.0015(4)
Li1 Li1+ 0.0294(12) 0.0427(13) 0.0486(15) 0.000 0.000 -0.0155(13)
Li2 Li1+ 0.0289(11) 0.0365(13) 0.0265(10) 0.000 0.000 0.0028(10)
Li3 Li1+ 0.0305(7) 0.0305(7) 0.0305(7) 0.0004(6) 0.0004(6) 0.0004(6)
#End of data_171352-ICSD


