data_300254-ICSD
#?2014 by Fachinformationszentrum Karlsruhe, and the U.S. Secretary of 
#Commerce on behalf of the United States.  All rights reserved.
_database_code_ICSD                300254
_audit_creation_date               1993/01/06
_audit_update_record               2002/04/01
_chemical_name_systematic
;
Dilithium Pentakis(nitrato(V))praseodymate(III)
;
_chemical_formula_structural       'Li2 (Pr (N O3)5)'
_chemical_formula_sum              'Li2 N5 O15 Pr1'
_publ_section_title
;
Synthesis and Structure of the first Anhydrous ternary Lithium 
Nitrates of the Lanthanides, Li2 (M (NO3)5) (M=La, Pr-Eu)
;
loop_
_citation_id
_citation_journal_abbrev
_citation_year
_citation_journal_volume
_citation_page_first
_citation_page_last
_citation_journal_id_ASTM
primary 'Zeitschrift fuer Anorganische und Allgemeine Chemie (1950) (DE)'
 1993 619 513 516 ZAACAB
_publ_author_name                  'Manek, E.;Meyer, G.'
_cell_length_a                     9.020(2)
_cell_length_b                     10.532(2)
_cell_length_c                     11.779(2)
_cell_angle_alpha                  90.
_cell_angle_beta                   90.
_cell_angle_gamma                  90.
_cell_volume                       1118.99
_cell_formula_units_Z              4
_symmetry_space_group_name_H-M     'P n n m'
_symmetry_Int_Tables_number        58
_refine_ls_R_factor_all            .0717
loop_
_symmetry_equiv_pos_site_id
_symmetry_equiv_pos_as_xyz
  1	'x+.5, -y+.5, z+.5'
  2	'-x+.5, y+.5, z+.5'
  3	'x, y, -z'
  4	'-x, -y, -z'
  5	'-x+.5, y+.5, -z+.5'
  6	'x+.5, -y+.5, -z+.5'
  7	'-x, -y, z'
  8	'x, y, z'
loop_
_atom_type_symbol
_atom_type_oxidation_number
Li1+	1
N5+	5
O2-	-2
Pr3+	3
loop_
_atom_site_label
_atom_site_type_symbol
_atom_site_symmetry_multiplicity
_atom_site_Wyckoff_symbol
_atom_site_fract_x
_atom_site_fract_y
_atom_site_fract_z
_atom_site_occupancy
_atom_site_attached_hydrogens
Pr1 Pr3+ 2 a 0 0 0 1. 0 
Pr2 Pr3+ 2 c 0 0.5 0 1. 0 
O1 O2- 4 g 0.02971(43) 0.7456(5) 0 1. 0 
O2 O2- 4 g 0.76502(63) 0.14627(48) 0 1. 0 
O3 O2- 4 g 0.23820(64) 0.64584(48) 0 1. 0 
N1 N5+ 4 g 0.17250(58) 0.74866(65) 0 1. 0 
O4 O2- 8 h 0.05726(40) 0.58940(29) 0.20115(34) 1. 0 
O5 O2- 4 f 0 0.5 0.36127(43) 1. 0 
N2 N5+ 4 f 0 0.5 0.25886(48) 1. 0 
O6 O2- 8 h 0.23372(42) 0.38943(31) 0.09176(33) 1. 0 
O7 O2- 4 g 0.39985(57) 0.27987(48) 0 1. 0 
N3 N5+ 4 g 0.29163(67) 0.35379(55) 0 1. 0 
O8 O2- 8 h 0.18579(41) 0.11158(31) 0.13122(30) 1. 0 
O9 O2- 8 h 0.46379(41) 0.37301(31) 0.29930(36) 1. 0 
O10 O2- 8 h 0.14698(45) 0.22245(33) 0.28347(32) 1. 0 
N4 N5+ 8 h 0.09999(52) 0.15552(38) 0.20769(40) 1. 0 
Li1 Li1+ 8 h 0.3828(14) 0.2259(11) 0.1803(11) 1. 0 

#End of data_300254-ICSD


