data_163480-ICSD
#?2014 by Fachinformationszentrum Karlsruhe, and the U.S. Secretary of 
#Commerce on behalf of the United States.  All rights reserved.
_database_code_ICSD                163480
_audit_creation_date               2009/08/01
_chemical_name_systematic          'Calcium Bis(tetrahydridoborate)'
_chemical_formula_structural       'Ca (B H4)2'
_chemical_formula_sum              'H8 B2 Ca1'
_publ_section_title
;
Crystal structures of calcium borohydride: theory and experiment
;
loop_
_citation_id
_citation_journal_abbrev
_citation_year
_citation_journal_volume
_citation_page_first
_citation_page_last
_citation_journal_id_ASTM
primary 'Journal of Physical Chemistry C' 2009 113 3352 3358 JPCCCK
_publ_author_name                  'Majzoub, E.H.;Ronnebro, E.'
_cell_length_a                     7.51
_cell_length_b                     8.70
_cell_length_c                     7.50
_cell_angle_alpha                  90.
_cell_angle_beta                   119.35
_cell_angle_gamma                  90.
_cell_volume                       427.13
_cell_formula_units_Z              4
_symmetry_space_group_name_H-M     'C 1 2/c 1'
_symmetry_Int_Tables_number        15
loop_
_symmetry_equiv_pos_site_id
_symmetry_equiv_pos_as_xyz
  1	'x, -y, z+.5'
  2	'-x, -y, -z'
  3	'-x, y, -z+.5'
  4	'x, y, z'
  5	'x+.5, -y+.5, z+.5'
  6	'-x+.5, -y+.5, -z'
  7	'-x+.5, y+.5, -z+.5'
  8	'x+.5, y+.5, z'
loop_
_atom_type_symbol
_atom_type_oxidation_number
B3+	3
Ca2+	2
H1-	-1
loop_
_atom_site_label
_atom_site_type_symbol
_atom_site_symmetry_multiplicity
_atom_site_Wyckoff_symbol
_atom_site_fract_x
_atom_site_fract_y
_atom_site_fract_z
_atom_site_occupancy
_atom_site_attached_hydrogens
Ca1 Ca2+ 4 e 0 0.8748 0.250 1. 0 
B1 B3+ 8 f 0.7217 0.6242 0.7495 1. 0 
H1 H1- 8 f 0.6676 0.4891 0.7513 1. 0 
H2 H1- 8 f 0.6637 0.6355 0.9746 1. 0 
H3 H1- 8 f 0.8887 0.6126 0.5226 1. 0 
H4 H1- 8 f 0.1688 0.2596 0.7492 1. 0 

#End of data_163480-ICSD


