data_154794-ICSD
#?2014 by Fachinformationszentrum Karlsruhe, and the U.S. Secretary of 
#Commerce on behalf of the United States.  All rights reserved.
_database_code_ICSD                154794
_audit_creation_date               2007/04/01
_audit_update_record               2010/08/01
_chemical_name_systematic          'Dysprosium Silver Telluride'
_chemical_formula_structural       'Dy Ag Te2'
_chemical_formula_sum              'Ag1 Dy1 Te2'
_publ_section_title
;
Crystal structure of the R Ag Te2 (R= Y, Tb, Dy, Ho and Er) compounds
;
loop_
_citation_id
_citation_journal_abbrev
_citation_year
_citation_journal_volume
_citation_page_first
_citation_page_last
_citation_journal_id_ASTM
primary 'Journal of Alloys and Compounds' 2006 424 159 163 JALCEU
2 'Golden Book of Phase Transitions, Wroclaw' 2002 1 1 123 GBOPT5
_publ_author_name
;
Gulay, L.D.;Olekseyuk, I.D.;Pietraszko, A.
;
_cell_length_a                     7.1287(3)
_cell_length_b                     7.1287(3)
_cell_length_c                     4.5955(3)
_cell_angle_alpha                  90.
_cell_angle_beta                   90.
_cell_angle_gamma                  90.
_cell_volume                       233.54
_cell_formula_units_Z              2
_symmetry_space_group_name_H-M     'P -4 21 m'
_symmetry_Int_Tables_number        113
_refine_ls_R_factor_all            .0637
loop_
_symmetry_equiv_pos_site_id
_symmetry_equiv_pos_as_xyz
  1	'-y+.5, -x+.5, z'
  2	'y, -x, -z'
  3	'y+.5, x+.5, z'
  4	'-y, x, -z'
  5	'x+.5, -y+.5, -z'
  6	'-x, -y, z'
  7	'-x+.5, y+.5, -z'
  8	'x, y, z'
loop_
_atom_type_symbol
_atom_type_oxidation_number
Ag1+	1
Dy3+	3
Te2-	-2
loop_
_atom_site_label
_atom_site_type_symbol
_atom_site_symmetry_multiplicity
_atom_site_Wyckoff_symbol
_atom_site_fract_x
_atom_site_fract_y
_atom_site_fract_z
_atom_site_occupancy
_atom_site_attached_hydrogens
_atom_site_B_iso_or_equiv
Dy1 Dy3+ 2 c 0 0.5 0.7983(5) 1. 0 0.69(6) 
Ag1 Ag1+ 2 a 0 0 0 1. 0 1.41(7) 
Te1 Te2- 4 e 0.7973(2) 0.2973(2) 0.2876(4) 1. 0 0.74(4) 

#End of data_154794-ICSD


