data_402533-ICSD
#?2014 by Fachinformationszentrum Karlsruhe, and the U.S. Secretary of 
#Commerce on behalf of the United States.  All rights reserved.
_database_code_ICSD                402533
_audit_creation_date               1997/11/10
_chemical_name_systematic          'Indium(I) Magnesium Bromide'
_chemical_formula_structural       'In Mg Br3'
_chemical_formula_sum              'Br3 In1 Mg1'
_publ_section_title
;
Crystal structure of indium magnesium tribromide, In Mg Br3
;
loop_
_citation_id
_citation_journal_abbrev
_citation_year
_citation_journal_volume
_citation_page_first
_citation_page_last
_citation_journal_id_ASTM
primary 'Zeitschrift fuer Kristallographie - New Crystal Structures'
 1997 212 5 5 ZKNSFT
_publ_author_name                  'Scholten, M.;Dronskowski, R.'
_cell_length_a                     9.4395(1)
_cell_length_b                     3.9538(1)
_cell_length_c                     15.3744(2)
_cell_angle_alpha                  90.
_cell_angle_beta                   90.
_cell_angle_gamma                  90.
_cell_volume                       573.8
_cell_formula_units_Z              4
_symmetry_space_group_name_H-M     'P n m a'
_symmetry_Int_Tables_number        62
_refine_ls_R_factor_all            .028
loop_
_symmetry_equiv_pos_site_id
_symmetry_equiv_pos_as_xyz
  1	'x+.5, y, -z+.5'
  2	'x, -y+.5, z'
  3	'-x+.5, y+.5, z+.5'
  4	'-x, -y, -z'
  5	'-x+.5, -y, z+.5'
  6	'-x, y+.5, -z'
  7	'x+.5, -y+.5, -z+.5'
  8	'x, y, z'
loop_
_atom_type_symbol
_atom_type_oxidation_number
Br1-	-1
In1+	1
Mg2+	2
loop_
_atom_site_label
_atom_site_type_symbol
_atom_site_symmetry_multiplicity
_atom_site_Wyckoff_symbol
_atom_site_fract_x
_atom_site_fract_y
_atom_site_fract_z
_atom_site_occupancy
_atom_site_attached_hydrogens
_atom_site_B_iso_or_equiv
In1 In1+ 4 c 0.4502(1) 0.25 0.6764(1) 1. 0 3.01(4) 
Mg1 Mg2+ 4 c 0.1619(5) 0.25 0.4457(3) 1. 0 1.3(1) 
Br1 Br1- 4 c 0.6738(1) 0.25 0.4979(1) 1. 0 0.90(4) 
Br2 Br1- 4 c 0.2755(1) 0.25 0.2905(1) 1. 0 1.47(5) 
Br3 Br1- 4 c 0.0228(2) 0.25 0.6008(1) 1. 0 0.80(4) 

#End of data_402533-ICSD


