data_250196-ICSD
#?2014 by Fachinformationszentrum Karlsruhe, and the U.S. Secretary of 
#Commerce on behalf of the United States.  All rights reserved.
_database_code_ICSD                250196
_audit_creation_date               2005/04/01
_audit_update_record               2012/02/01
_chemical_name_systematic
;
Hexaaquamagnesium Hexafluorosilicate
;
_chemical_formula_structural       '(Mg (H2 O)6) (Si F6)'
_chemical_formula_sum              'H12 F6 Mg1 O6 Si1'
_publ_section_title
;
Crystal structure of hexaaquamagnesium hexafluorosilicate
;
loop_
_citation_id
_citation_journal_abbrev
_citation_year
_citation_journal_volume
_citation_page_first
_citation_page_last
_citation_journal_id_ASTM
primary 'Zhurnal Neorganicheskoi Khimii' 2004 49 1161 1164 ZNOKAQ
2 'Golden Book of Phase Transitions, Wroclaw' 2002 1 1 123 GBOPT5
_publ_author_name
;
Cherkasova, T.G.;Tatarinova, E.S.;Cherkasova, E.V.
;
_cell_length_a                     6.790(3)
_cell_length_b                     9.4953(4)
_cell_length_c                     8.4445(3)
_cell_angle_alpha                  90
_cell_angle_beta                   99.844(5)
_cell_angle_gamma                  90
_cell_volume                       536.43
_cell_formula_units_Z              2
_symmetry_space_group_name_H-M     'P 1 21/c 1'
_symmetry_Int_Tables_number        14
_refine_ls_R_factor_all            .0298
loop_
_symmetry_equiv_pos_site_id
_symmetry_equiv_pos_as_xyz
  1	'x, -y+.5, z+.5'
  2	'-x, -y, -z'
  3	'-x, y+.5, -z+.5'
  4	'x, y, z'
loop_
_atom_type_symbol
_atom_type_oxidation_number
F1-	-1
H1+	1
Mg2+	2
O2-	-2
Si4+	4
loop_
_atom_site_label
_atom_site_type_symbol
_atom_site_symmetry_multiplicity
_atom_site_Wyckoff_symbol
_atom_site_fract_x
_atom_site_fract_y
_atom_site_fract_z
_atom_site_occupancy
_atom_site_attached_hydrogens
_atom_site_U_iso_or_equiv
Mg1 Mg2+ 2 a 0 0 0 1. 0 0.0021(1) 
Si1 Si4+ 2 d 0.5 0.5 0 1. 0 0.0018(1) 
O1 O2- 4 e 0.2607(1) -0.1266(1) 0.0493(1) 1. 0 0.0041(1) 
O2 O2- 4 e 0.1831(1) 0.1680(1) 0.0902(1) 1. 0 0.0037(1) 
O3 O2- 4 e -0.0622(1) -0.0356(1) 0.2264(1) 1. 0 0.0040(1) 
F1 F1- 4 e 0.6231(1) 0.6437(1) 0.0885(1) 1. 0 0.0031(1) 
F2 F1- 4 e 0.7290(1) 0.4117(1) 0.0296(1) 1. 0 0.0033(1) 
F3 F1- 4 e 0.4524(1) 0.4443(1) 0.1796(1) 1. 0 0.0033(1) 
H1 H1+ 4 e 0.2360(30) 0.2210(20) 0.0400(20) 1. 0 0.0064(6) 
H2 H1+ 4 e 0.0270(30) -0.0616(17) 0.3080(20) 1. 0 0.0043(4) 
H3 H1+ 4 e 0.2680(30) -0.2090(20) 0.0270(20) 1. 0 0.0063(6) 
H4 H1+ 4 e 0.3590(30) -0.1080(20) 0.1280(20) 1. 0 0.0055(5) 
H5 H1+ 4 e -0.1670(30) -0.0240(20) 0.2510(20) 1. 0 0.0058(5) 
H6 H1+ 4 e 0.2400(20) 0.1740(20) 0.1970(20) 1. 0 0.0049(4) 

#End of data_250196-ICSD


