data_99247-ICSD
#?2014 by Fachinformationszentrum Karlsruhe, and the U.S. Secretary of 
#Commerce on behalf of the United States.  All rights reserved.
_database_code_ICSD                99247
_audit_creation_date               2005/04/01
_chemical_name_systematic          'Dipotassium Terbium(IV) Fluoride'
_chemical_formula_structural       'K2 (Tb F6)'
_chemical_formula_sum              'F6 K2 Tb1'
_publ_section_title
;
Neutron diffraction study of the magnetic structures of one-
dimensional M2 Tb F6 (M = Li, K, Rb) fluorides: frustration, 
incommensurability and magnetic interactions
;
loop_
_citation_id
_citation_journal_abbrev
_citation_year
_citation_journal_volume
_citation_page_first
_citation_page_last
_citation_journal_id_ASTM
primary 'Journal of Alloys and Compounds' 2004 374 207 212 JALCEU
_publ_author_name
;
Josse, M.;Dubois, M.;El Ghozzi, M.;Avignant, D.;Andre, G.;Bouree, 
F.;Guillot, M.
;
_cell_length_a                     6.5909(2)
_cell_length_b                     11.4135(4)
_cell_length_c                     7.1235(2)
_cell_angle_alpha                  90
_cell_angle_beta                   90.502(2)
_cell_angle_gamma                  90
_cell_volume                       535.85
_cell_formula_units_Z              4
_symmetry_space_group_name_H-M     'C 1 2/c 1'
_symmetry_Int_Tables_number        15
loop_
_symmetry_equiv_pos_site_id
_symmetry_equiv_pos_as_xyz
  1	'x, -y, z+.5'
  2	'-x, -y, -z'
  3	'-x, y, -z+.5'
  4	'x, y, z'
  5	'x+.5, -y+.5, z+.5'
  6	'-x+.5, -y+.5, -z'
  7	'-x+.5, y+.5, -z+.5'
  8	'x+.5, y+.5, z'
loop_
_atom_type_symbol
_atom_type_oxidation_number
F1-	-1
K1+	1
Tb4+	4
loop_
_atom_site_label
_atom_site_type_symbol
_atom_site_symmetry_multiplicity
_atom_site_Wyckoff_symbol
_atom_site_fract_x
_atom_site_fract_y
_atom_site_fract_z
_atom_site_occupancy
_atom_site_attached_hydrogens
_atom_site_B_iso_or_equiv
K1 K1+ 8 f 0.0211(6) 0.3397(3) 0.0039(6) 1. 0 1.49(5) 
Tb1 Tb4+ 4 e 0 0.0452(2) 0.250 1. 0 0.55(3) 
F1 F1- 8 f 0.2942(4) 0.9824(2) 0.2071(4) 1. 0 1.69(4) 
F2 F1- 8 f 0.1942(4) 0.1921(2) 0.2779(3) 1. 0 1.51(4) 
F3 F1- 8 f 0.9559(4) 0.1008(2) 0.5446(9) 1. 0 1.30(4) 

#End of data_99247-ICSD


