data_72374-ICSD
#?2014 by Fachinformationszentrum Karlsruhe, and the U.S. Secretary of 
#Commerce on behalf of the United States.  All rights reserved.
_database_code_ICSD                72374
_audit_creation_date               1994/01/19
_audit_update_record               2007/08/01
_chemical_name_systematic          'Aluminium Phosphate(V) - 31'
_chemical_formula_structural       'Al (P O4)'
_chemical_formula_sum              'Al1 O4 P1'
_chemical_name_mineral             AlPO-31
_publ_section_title
;
The structure of calcined Al P O4-31: a new framework topology 
containing one-dimensional 12-ring pores
;
loop_
_citation_id
_citation_journal_abbrev
_citation_year
_citation_journal_volume
_citation_page_first
_citation_page_last
_citation_journal_id_ASTM
primary Zeolites 1992 12 338 342 ZEOLD3
_publ_author_name                  'Bennett, J.M.;Kirchner, R.M.'
_cell_length_a                     20.827(1)
_cell_length_b                     20.827(1)
_cell_length_c                     5.003(1)
_cell_angle_alpha                  90.
_cell_angle_beta                   90.
_cell_angle_gamma                  120.
_cell_volume                       1879.38
_cell_formula_units_Z              18
_symmetry_space_group_name_H-M     'R -3 H'
_symmetry_Int_Tables_number        148
_refine_ls_R_factor_all            .086
loop_
_symmetry_equiv_pos_site_id
_symmetry_equiv_pos_as_xyz
  1	'x-y, x, -z'
  2	'y, -x+y, -z'
  3	'-x, -y, -z'
  4	'-x+y, -x, z'
  5	'-y, x-y, z'
  6	'x, y, z'
  7	'x-y+.6666, x+.3333, -z+.3333'
  8	'x-y+.3333, x+.6666, -z+.6666'
  9	'y+.6666, -x+y+.3333, -z+.3333'
 10	'y+.3333, -x+y+.6666, -z+.6666'
 11	'-x+.6666, -y+.3333, -z+.3333'
 12	'-x+.3333, -y+.6666, -z+.6666'
 13	'-x+y+.6666, -x+.3333, z+.3333'
 14	'-x+y+.3333, -x+.6666, z+.6666'
 15	'-y+.6666, x-y+.3333, z+.3333'
 16	'-y+.3333, x-y+.6666, z+.6666'
 17	'x+.6666, y+.3333, z+.3333'
 18	'x+.3333, y+.6666, z+.6666'
loop_
_atom_type_symbol
_atom_type_oxidation_number
Al3+	3
O2-	-2
P5+	5
loop_
_atom_site_label
_atom_site_type_symbol
_atom_site_symmetry_multiplicity
_atom_site_Wyckoff_symbol
_atom_site_fract_x
_atom_site_fract_y
_atom_site_fract_z
_atom_site_occupancy
_atom_site_attached_hydrogens
_atom_site_B_iso_or_equiv
Al1 Al3+ 18 f 0.618(2) 0.086(2) 0.031(6) 1. 0 2.5 
P1 P5+ 18 f 0.472(2) 0.087(1) 0.122(4) 1. 0 2.5 
O1 O2- 18 f 0.558(3) 0.116(2) 0.138(6) 1. 0 3.8 
O2 O2- 18 f 0.424(2) 0.007(4) -.004(11) 1. 0 3.8 
O3 O2- 18 f 0.444(2) 0.088(2) 0.412(9) 1. 0 3.8 
O4 O2- 18 f 0.469(3) 0.151(2) -.057(9) 1. 0 3.8 

#End of data_72374-ICSD


