data_425986-ICSD
#?2014 by Fachinformationszentrum Karlsruhe, and the U.S. Secretary of 
#Commerce on behalf of the United States.  All rights reserved.
_database_code_ICSD                425986
_audit_creation_date               2014/02/01
_chemical_name_systematic
;
Tripotassium Trithiooxotungstate Hydrogen Sulfide
;
_chemical_formula_structural       'K3 (W O S3) (S H)'
_chemical_formula_sum              'H1 K3 O1 S4 W1'
_publ_section_title
;
Potassium double salts with the mixed trisulfidometalate ions (Mo O 
S3)(2-) and (W O S3)(2-)
;
loop_
_citation_id
_citation_journal_abbrev
_citation_year
_citation_journal_volume
_citation_journal_issue
_citation_page_first
_citation_page_last
_citation_journal_id_ASTM
primary 'Zeitschrift fuer Naturforschung, B: Chemical Sciences'
 2013 68 7 761 777 ZNBSEN
_publ_author_name                  'Lehner, A.J.;Roehr, C.'
_cell_length_a                     9.5415(2)
_cell_length_b                     6.36190(10)
_cell_length_c                     8.0988(2)
_cell_angle_alpha                  90.00
_cell_angle_beta                   90.00
_cell_angle_gamma                  90.00
_cell_volume                       491.61
_cell_formula_units_Z              2
_symmetry_space_group_name_H-M     'P m n 21'
_symmetry_Int_Tables_number        31
_refine_ls_R_factor_all            .0184
loop_
_symmetry_equiv_pos_site_id
_symmetry_equiv_pos_as_xyz
  1	'x+.5, -y, z+.5'
  2	'-x+.5, -y, z+.5'
  3	'-x, y, z'
  4	'x, y, z'
loop_
_atom_type_symbol
_atom_type_oxidation_number
H1+	1
K1+	1
O2-	-2
S2-	-2
W6+	6
loop_
_atom_site_label
_atom_site_type_symbol
_atom_site_symmetry_multiplicity
_atom_site_Wyckoff_symbol
_atom_site_fract_x
_atom_site_fract_y
_atom_site_fract_z
_atom_site_occupancy
_atom_site_attached_hydrogens
_atom_site_U_iso_or_equiv
K1 K1+ 4 b 0.27194(5) 0.10500(7) 0.24455(7) 1 0 0.01448(8) 
K2 K1+ 2 a 0.0000 0.49766(8) -0.0007(4) 1 0 0.01337(16) 
W1 W6+ 2 a 0.0000 0.501981(14) 0.48999(6) 1 0 0.00801(4) 
S1 S2- 4 b 0.18778(6) 0.59784(8) 0.34966(7) 1 0 0.01332(9) 
S2 S2- 2 a 0.0000 0.15848(11) 0.52273(10) 1 0 0.01496(13) 
S3 S2- 2 a 0.0000 0.00208(8) 0.02502(13) 1 0 0.01177(19) 
O1 O2- 2 a 0.0000 0.6299(3) 0.6811(2) 1 0 0.0140(4) 
H1 H1+ 2 a 0.0000 -0.119(12) 0.160(7) 1 0 0.08(3) 

loop_
_atom_site_aniso_label
_atom_site_aniso_type_symbol
_atom_site_aniso_U_11
_atom_site_aniso_U_22
_atom_site_aniso_U_33
_atom_site_aniso_U_12
_atom_site_aniso_U_13
_atom_site_aniso_U_23
K1 K1+ 0.01265(18) 0.01732(17) 0.01346(15) -0.00026(14) -0.00244(16) 
-0.00133(14)
K2 K1+ 0.0151(3) 0.0134(3) 0.0117(4) 0.000 0.000 0.00221(14)
W1 W6+ 0.00820(5) 0.01018(5) 0.00565(5) 0.000 0.000 -0.00014(2)
S1 S2- 0.0099(2) 0.0171(2) 0.01296(18) -0.00106(16) 0.00181(16) 0.00179(16)
S2 S2- 0.0171(3) 0.0122(3) 0.0155(3) 0.000 0.000 0.0036(2)
S3 S2- 0.0126(4) 0.0130(4) 0.0096(5) 0.000 0.000 -0.00065(17)
O1 O2- 0.0182(10) 0.0150(9) 0.0089(8) 0.000 0.000 -0.0025(6)
#End of data_425986-ICSD


