data_494-ICSD
#?2014 by Fachinformationszentrum Karlsruhe, and the U.S. Secretary of 
#Commerce on behalf of the United States.  All rights reserved.
_database_code_ICSD                494
_audit_creation_date               1980/01/01
_audit_update_record               2012/08/01
_chemical_name_systematic          'Magnesium Selenate(IV)'
_chemical_formula_structural       'Mg (Se O3)'
_chemical_formula_sum              'Mg1 O3 Se1'
_publ_section_title
;
Crystal chemistry of M Se O3 and M Te O3 (M= Mg, Mn, Co, Ni, Cu and 
Zn)
;
loop_
_citation_id
_citation_journal_abbrev
_citation_year
_citation_journal_volume
_citation_page_first
_citation_page_last
_citation_journal_id_ASTM
primary 'Journal of Solid State Chemistry' 1976 18 27 37 JSSCBI
_publ_author_name
;
Kohn, K.;Inoue, K.;Horie, O.;Akimoto, S.
;
_cell_length_a                     5.9246(5)
_cell_length_b                     7.6663(8)
_cell_length_c                     5.0059(5)
_cell_angle_alpha                  90.
_cell_angle_beta                   90.
_cell_angle_gamma                  90.
_cell_volume                       227.37
_cell_formula_units_Z              4
_symmetry_space_group_name_H-M     'P n m a'
_symmetry_Int_Tables_number        62
_refine_ls_R_factor_all            .042
loop_
_symmetry_equiv_pos_site_id
_symmetry_equiv_pos_as_xyz
  1	'x+.5, y, -z+.5'
  2	'x, -y+.5, z'
  3	'-x+.5, y+.5, z+.5'
  4	'-x, -y, -z'
  5	'-x+.5, -y, z+.5'
  6	'-x, y+.5, -z'
  7	'x+.5, -y+.5, -z+.5'
  8	'x, y, z'
loop_
_atom_type_symbol
_atom_type_oxidation_number
Mg2+	2
O2-	-2
Se4+	4
loop_
_atom_site_label
_atom_site_type_symbol
_atom_site_symmetry_multiplicity
_atom_site_Wyckoff_symbol
_atom_site_fract_x
_atom_site_fract_y
_atom_site_fract_z
_atom_site_occupancy
_atom_site_attached_hydrogens
Mg1 Mg2+ 4 b 0 0 0.5 1. 0 
Se1 Se4+ 4 c 0.0234 0.25 -.0178 1. 0 
O1 O2- 4 c 0.07 0.25 0.3199 1. 0 
O2 O2- 8 d 0.1823 0.0795 0.8621 1. 0 

#End of data_494-ICSD


