data_413087-ICSD
#?2014 by Fachinformationszentrum Karlsruhe, and the U.S. Secretary of 
#Commerce on behalf of the United States.  All rights reserved.
_database_code_ICSD                413087
_audit_creation_date               2004/10/01
_chemical_name_systematic          'Silver Dimercury(I) Arsenate(V)'
_chemical_formula_structural       'Ag Hg2 (As O4)'
_chemical_formula_sum              'Ag1 As1 Hg2 O4'
_publ_section_title
;
Investigations in the systems Ag - Hg - X - O (X = As(V), Se(IV), 
Se(VI)): hydrothermal single crystal growth of Ag3 As O4, Ag Hg(I)2 
As O4, Ag Hg(II) As O4, Ag2 Se O4 and the crystal structure of Ag2 
Hg(II) (Se O3)2
;
loop_
_citation_id
_citation_journal_abbrev
_citation_year
_citation_journal_volume
_citation_page_first
_citation_page_last
_citation_journal_id_ASTM
primary 'Zeitschrift fuer Naturforschung, B: Chemical Sciences'
 2003 58 1091 1096 ZNBSEN
_publ_author_name                  'Weil, M.'
_cell_length_a                     8.7251(6)
_cell_length_b                     9.6207(5)
_cell_length_c                     6.2432(5)
_cell_angle_alpha                  90.
_cell_angle_beta                   90.
_cell_angle_gamma                  90.
_cell_volume                       524.06
_cell_formula_units_Z              4
_symmetry_space_group_name_H-M     'P b a m'
_symmetry_Int_Tables_number        55
_refine_ls_R_factor_all            .0211
loop_
_symmetry_equiv_pos_site_id
_symmetry_equiv_pos_as_xyz
  1	'x+.5, -y+.5, z'
  2	'-x+.5, y+.5, z'
  3	'x, y, -z'
  4	'-x, -y, -z'
  5	'-x+.5, y+.5, -z'
  6	'x+.5, -y+.5, -z'
  7	'-x, -y, z'
  8	'x, y, z'
loop_
_atom_type_symbol
_atom_type_oxidation_number
Ag1+	1
As5+	5
Hg1+	1
O2-	-2
loop_
_atom_site_label
_atom_site_type_symbol
_atom_site_symmetry_multiplicity
_atom_site_Wyckoff_symbol
_atom_site_fract_x
_atom_site_fract_y
_atom_site_fract_z
_atom_site_occupancy
_atom_site_attached_hydrogens
_atom_site_U_iso_or_equiv
Hg1 Hg1+ 8 i 0.24354(2) 0.03015(2) 0.29006(3) 1. 0 0.01564(8) 
O1 O2- 8 i 0.4398(5) 0.1941(4) 0.2314(7) 1. 0 0.0157(8) 
Ag1 Ag1+ 4 h 0.47013(7) 0.35422(5) 0.5 1. 0 0.01752(13) 
As1 As5+ 4 g 0.03839(8) 0.28768(6) 0 1. 0 0.00766(14) 
O2 O2- 4 g 0.1173(6) 0.1275(5) 0 1. 0 0.0136(10) 
O3 O2- 4 g 0.1764(7) 0.4124(6) 0 1. 0 0.0164(11) 

loop_
_atom_site_aniso_label
_atom_site_aniso_type_symbol
_atom_site_aniso_U_11
_atom_site_aniso_U_22
_atom_site_aniso_U_33
_atom_site_aniso_U_12
_atom_site_aniso_U_13
_atom_site_aniso_U_23
Hg1 Hg1+ 0.01798(11) 0.01984(11) 0.00910(11) -.00444(7) 0.00328(7) 
-.00016(7)
O1 O2- 0.0176(18) 0.0178(17) 0.0118(18) -.0085(13) 0.0067(14) -.0010(15)
Ag1 Ag1+ 0.0258(3) 0.0114(2) 0.0154(3) 0.0006(2) 0 0
As1 As5+ 0.0090(3) 0.0070(3) 0.0071(3) 0.0003(2) 0 0
O2 O2- 0.019(2) 0.009(2) 0.013(3) 0.0079(18) 0 0
O3 O2- 0.022(3) 0.016(2) 0.011(3) -.011(2) 0 0
#End of data_413087-ICSD


