data_23951-ICSD
#?2014 by Fachinformationszentrum Karlsruhe, and the U.S. Secretary of 
#Commerce on behalf of the United States.  All rights reserved.
_database_code_ICSD                23951
_audit_creation_date               1980/01/01
_audit_update_record               1989/03/08
_chemical_name_systematic          'Potassium Selenocyanate'
_chemical_formula_structural       'K Se C N'
_chemical_formula_sum              'C1 K1 N1 Se1'
_publ_section_title
;
The Crystal Structure of Potassium Selenocyanate
;
loop_
_citation_id
_citation_journal_abbrev
_citation_year
_citation_journal_volume
_citation_page_first
_citation_page_last
_citation_journal_id_ASTM
primary 'Inorganic Chemistry' 1965 4 499 501 INOCAJ
_publ_author_name                  'Swank, D.D.;Willett, R.D.'
_cell_length_a                     4.59(2)
_cell_length_b                     7.64(1)
_cell_length_c                     11.89(1)
_cell_angle_alpha                  90.
_cell_angle_beta                   101.13(8)
_cell_angle_gamma                  90.
_cell_volume                       409.11
_cell_formula_units_Z              4
_symmetry_space_group_name_H-M     'P 1 21/c 1'
_symmetry_Int_Tables_number        14
_refine_ls_R_factor_all            .066
loop_
_symmetry_equiv_pos_site_id
_symmetry_equiv_pos_as_xyz
  1	'x, -y+.5, z+.5'
  2	'-x, -y, -z'
  3	'-x, y+.5, -z+.5'
  4	'x, y, z'
loop_
_atom_type_symbol
_atom_type_oxidation_number
C4+	4
K1+	1
N3-	-3
Se2-	-2
loop_
_atom_site_label
_atom_site_type_symbol
_atom_site_symmetry_multiplicity
_atom_site_Wyckoff_symbol
_atom_site_fract_x
_atom_site_fract_y
_atom_site_fract_z
_atom_site_occupancy
_atom_site_attached_hydrogens
K1 K1+ 4 e 0.6198(14) 0.2007(8) 0.3995(5) 1. 0 
Se1 Se2- 4 e 0.0273(6) 0.0434(4) 0.1973(2) 1. 0 
C1 C4+ 4 e 0.1580(56) 0.2200(32) 0.1157(21) 1. 0 
N1 N3- 4 e 0.2336(56) 0.3726(31) 0.0645(20) 1. 0 

#End of data_23951-ICSD


