data_391225-ICSD
#?2014 by Fachinformationszentrum Karlsruhe, and the U.S. Secretary of 
#Commerce on behalf of the United States.  All rights reserved.
_database_code_ICSD                391225
_audit_creation_date               2005/04/01
_audit_update_record               2010/02/01
_chemical_name_systematic          'Dipotassium Tetramolybdate'
_chemical_formula_structural       'K2 (Mo4 O13)'
_chemical_formula_sum              'K2 Mo4 O13'
_publ_section_title
;
K2 Mo4 O13 phases prepared by hydrothermal synthesis
;
loop_
_citation_id
_citation_journal_abbrev
_citation_year
_citation_journal_volume
_citation_page_first
_citation_page_last
_citation_journal_id_ASTM
primary 'Journal of Solid State Chemistry' 2004 177 916 921 JSSCBI
_publ_author_name
;
Eda, K.;Chin, K.;Sotani, N.;Whittingham, M.S.
;
_cell_length_a                     7.5440(11)
_cell_length_b                     15.394(2)
_cell_length_c                     18.568(3)
_cell_angle_alpha                  90.00
_cell_angle_beta                   90.00
_cell_angle_gamma                  90.00
_cell_volume                       2156.35
_cell_formula_units_Z              8
_symmetry_space_group_name_H-M     'P b c a'
_symmetry_Int_Tables_number        61
_refine_ls_R_factor_all            .0431
loop_
_symmetry_equiv_pos_site_id
_symmetry_equiv_pos_as_xyz
  1	'x+.5, y, -z+.5'
  2	'x, -y+.5, z+.5'
  3	'-x+.5, y+.5, z'
  4	'-x, -y, -z'
  5	'-x+.5, -y, z+.5'
  6	'-x, y+.5, -z+.5'
  7	'x+.5, -y+.5, -z'
  8	'x, y, z'
loop_
_atom_type_symbol
_atom_type_oxidation_number
K1+	1
Mo6+	6
O2-	-2
loop_
_atom_site_label
_atom_site_type_symbol
_atom_site_symmetry_multiplicity
_atom_site_Wyckoff_symbol
_atom_site_fract_x
_atom_site_fract_y
_atom_site_fract_z
_atom_site_occupancy
_atom_site_attached_hydrogens
_atom_site_U_iso_or_equiv
Mo1 Mo6+ 8 c 0.70431(7) 0.36155(3) 0.09817(3) 1 0 0.01405(15) 
Mo2 Mo6+ 8 c 0.60631(6) 0.56785(3) 0.10716(3) 1 0 0.01295(14) 
Mo3 Mo6+ 8 c 0.92176(6) 0.22262(3) 0.25053(2) 1 0 0.01185(15) 
Mo4 Mo6+ 8 c 0.82765(6) 0.43126(3) 0.25638(2) 1 0 0.01120(14) 
K1 K1+ 8 c 0.8920(2) 0.47102(9) 0.91560(7) 1 0 0.0249(3) 
K2 K1+ 8 c 0.2299(2) 0.28459(9) 0.06769(8) 1 0 0.0304(4) 
O1 O2- 8 c 0.8084(5) 0.3215(2) 0.18506(19) 1 0 0.0148(8) 
O2 O2- 8 c 0.8861(6) 0.3772(3) 0.0430(2) 1 0 0.0216(9) 
O3 O2- 8 c 0.9221(5) 0.5156(2) 0.3041(2) 1 0 0.0158(8) 
O4 O2- 8 c 0.6722(5) 0.6465(2) 0.1808(2) 1 0 0.0183(9) 
O5 O2- 8 c 0.4224(6) 0.6207(3) 0.0759(2) 1 0 0.0209(9) 
O6 O2- 8 c 0.7653(6) 0.5866(3) 0.0430(2) 1 0 0.0214(9) 
O7 O2- 8 c 0.6010(6) 0.2722(3) 0.0636(2) 1 0 0.0215(10) 
O8 O2- 8 c 0.9294(5) 0.3348(2) 0.30656(19) 1 0 0.0148(8) 
O9 O2- 8 c 0.5424(6) 0.4492(2) 0.0749(2) 1 0 0.0163(8) 
O10 O2- 8 c 0.6180(5) 0.4270(2) 0.2936(2) 1 0 0.0157(8) 
O11 O2- 8 c 1.1353(5) 0.2300(2) 0.2153(2) 1 0 0.0154(8) 
O12 O2- 8 c 0.7781(5) 0.4797(2) 0.1665(2) 1 0 0.0153(8) 
O13 O2- 8 c 0.9450(6) 0.1580(3) 0.3238(2) 1 0 0.0213(9) 

loop_
_atom_site_aniso_label
_atom_site_aniso_type_symbol
_atom_site_aniso_U_11
_atom_site_aniso_U_22
_atom_site_aniso_U_33
_atom_site_aniso_U_12
_atom_site_aniso_U_13
_atom_site_aniso_U_23
Mo1 Mo6+ 0.0184(3) 0.0138(3) 0.0100(3) 0.00196(19) -0.00169(19) 
-0.00067(17)
Mo2 Mo6+ 0.0154(3) 0.0131(2) 0.0104(3) 0.00067(18) 0.00056(18) 0.00071(17)
Mo3 Mo6+ 0.0125(3) 0.0121(3) 0.0110(3) 0.00058(18) -0.00038(17) 0.00024(17)
Mo4 Mo6+ 0.0122(3) 0.0121(3) 0.0093(3) 0.00045(17) -0.00126(17) 
-0.00073(16)
K1 K1+ 0.0283(8) 0.0262(7) 0.0202(7) -0.0034(6) -0.0013(6) 0.0024(6)
K2 K1+ 0.0352(9) 0.0312(8) 0.0249(8) -0.0072(6) -0.0069(6) 0.0035(6)
O1 O2- 0.018(2) 0.0122(18) 0.015(2) 0.0012(16) -0.0016(16) -0.0007(15)
O2 O2- 0.025(2) 0.027(2) 0.013(2) 0.0030(18) 0.0027(17) 0.0025(17)
O3 O2- 0.014(2) 0.0189(19) 0.015(2) 0.0001(16) -0.0005(15) -0.0033(15)
O4 O2- 0.017(2) 0.018(2) 0.020(2) 0.0011(16) 0.0010(16) -0.0036(16)
O5 O2- 0.020(2) 0.027(2) 0.015(2) -0.0002(18) -0.0041(17) 0.0004(17)
O6 O2- 0.022(2) 0.023(2) 0.019(2) 0.0012(18) 0.0021(18) 0.0013(18)
O7 O2- 0.031(3) 0.019(2) 0.015(2) 0.0032(17) -0.0029(18) -0.0032(16)
O8 O2- 0.019(2) 0.0129(18) 0.0121(19) 0.0041(16) -0.0027(15) 0.0000(15)
O9 O2- 0.022(2) 0.0156(18) 0.0119(19) -0.0027(17) -0.0038(17) 0.0001(15)
O10 O2- 0.014(2) 0.019(2) 0.013(2) -0.0017(16) 0.0029(16) -0.0013(15)
O11 O2- 0.018(2) 0.0138(18) 0.014(2) -0.0006(15) 0.0007(17) -0.0020(15)
O12 O2- 0.017(2) 0.0152(19) 0.0135(19) 0.0011(15) 0.0003(16) -0.0006(15)
O13 O2- 0.026(2) 0.022(2) 0.015(2) 0.0001(18) -0.0015(17) 0.0030(17)
#End of data_391225-ICSD


