data_36237-ICSD
#?2014 by Fachinformationszentrum Karlsruhe, and the U.S. Secretary of 
#Commerce on behalf of the United States.  All rights reserved.
_database_code_ICSD                36237
_audit_creation_date               1980/01/01
_audit_update_record               2007/08/01
_chemical_name_systematic          'Dicalcium Disodium Carbonate'
_chemical_formula_structural       'Ca2 Na2 (C O3)3'
_chemical_formula_sum              'C3 Ca2 Na2 O9'
_chemical_name_mineral             Shortite
_publ_section_title
;
The crystal structure of shortite, Ca2 Na2 (C O3)3
;
loop_
_citation_id
_citation_journal_abbrev
_citation_year
_citation_journal_volume
_citation_page_first
_citation_page_last
_citation_journal_id_ASTM
primary 'Arkiv foer Mineralogi och Geologi' 1950 1 95 101 AMNGAX
_publ_author_name                  'Wickman, F.E.'
_cell_length_a                     4.99
_cell_length_b                     10.99
_cell_length_c                     7.11
_cell_angle_alpha                  90.
_cell_angle_beta                   90.
_cell_angle_gamma                  90.
_cell_volume                       389.91
_cell_formula_units_Z              2
_symmetry_space_group_name_H-M     'A m m 2'
_symmetry_Int_Tables_number        38
loop_
_symmetry_equiv_pos_site_id
_symmetry_equiv_pos_as_xyz
  1	'x, -y, z'
  2	'-x, y, z'
  3	'-x, -y, z'
  4	'x, y, z'
  5	'x, -y+.5, z+.5'
  6	'-x, y+.5, z+.5'
  7	'-x, -y+.5, z+.5'
  8	'x, y+.5, z+.5'
loop_
_atom_type_symbol
_atom_type_oxidation_number
C4+	4
Ca2+	2
Na1+	1
O2-	-2
loop_
_atom_site_label
_atom_site_type_symbol
_atom_site_symmetry_multiplicity
_atom_site_Wyckoff_symbol
_atom_site_fract_x
_atom_site_fract_y
_atom_site_fract_z
_atom_site_occupancy
_atom_site_attached_hydrogens
Na1 Na1+ 2 a 0 0 0.63 1. 0 
Na2 Na1+ 2 b 0.5 0 0.6 1. 0 
Ca1 Ca2+ 4 e 0.5 0.213 -.014 1. 0 
C1 C4+ 4 d 0 0.226 0.653 1. 0 
C2 C4+ 2 b 0.5 0 0.185 1. 0 
O1 O2- 4 d 0 0.325 0.58 1. 0 
O2 O2- 8 f 0.23 0.177 0.69 1. 0 
O3 O2- 2 b 0.5 0 0 1. 0 
O4 O2- 4 e 0.5 0.104 0.276 1. 0 

#End of data_36237-ICSD


