data_22020-ICSD
#?2014 by Fachinformationszentrum Karlsruhe, and the U.S. Secretary of 
#Commerce on behalf of the United States.  All rights reserved.
_database_code_ICSD                22020
_audit_creation_date               1986/08/07
_audit_update_record               2000/07/15
_chemical_name_systematic
;
Calcium Magnesium Silicate Fluoride *
;
_chemical_formula_structural       'Ca2 Mg5 Si8 O22 F2'
_chemical_formula_sum              'Ca2 F2 Mg5 O22 Si8'
_chemical_name_mineral             Fluortremolite
_publ_section_title
;
The crystal structure and bonding of fluor-tremolite: A comparison 
with hydroxyl tremolite
;
loop_
_citation_id
_citation_journal_abbrev
_citation_year
_citation_journal_volume
_citation_page_first
_citation_page_last
_citation_journal_id_ASTM
primary 'American Mineralogist' 1973 58 879 888 AMMIAY
_publ_author_name                  'Cameron, M.;Gibbs, G.V.'
_cell_length_a                     9.787(3)
_cell_length_b                     18.004(2)
_cell_length_c                     5.263(2)
_cell_angle_alpha                  90.
_cell_angle_beta                   104.44(2)
_cell_angle_gamma                  90.
_cell_volume                       898.07
_cell_formula_units_Z              2
_symmetry_space_group_name_H-M     'C 1 2/m 1'
_symmetry_Int_Tables_number        12
_refine_ls_R_factor_all            .042
loop_
_symmetry_equiv_pos_site_id
_symmetry_equiv_pos_as_xyz
  1	'-x, y, -z'
  2	'-x, -y, -z'
  3	'x, -y, z'
  4	'x, y, z'
  5	'-x+.5, y+.5, -z'
  6	'-x+.5, -y+.5, -z'
  7	'x+.5, -y+.5, z'
  8	'x+.5, y+.5, z'
loop_
_atom_type_symbol
_atom_type_oxidation_number
Ca2+	2
F1-	-1
Mg2+	2
O2-	-2
Si4+	4
loop_
_atom_site_label
_atom_site_type_symbol
_atom_site_symmetry_multiplicity
_atom_site_Wyckoff_symbol
_atom_site_fract_x
_atom_site_fract_y
_atom_site_fract_z
_atom_site_occupancy
_atom_site_attached_hydrogens
O1 O2- 8 j 0.1126(3) 0.0847(2) 0.2179(6) 1. 0 
O2 O2- 8 j 0.1187(3) 0.1702(2) 0.7239(6) 1. 0 
O3 O2- 8 j 0.3644(4) 0.2484(2) 0.7907(7) 1. 0 
O4 O2- 8 j 0.3471(3) 0.1351(2) 0.1001(7) 1. 0 
O5 O2- 8 j 0.3444(3) 0.1197(2) 0.5857(6) 1. 0 
O6 O2- 4 i 0.3408(5) 0 0.2922(10) 1. 0 
F1 F1- 4 i 0.1020(4) 0 0.7124(8) 1. 0 
Mg1 Mg2+ 4 h 0 0.0885(1) 0.5 1. 0 
Mg2 Mg2+ 4 g 0 0.1760(1) 0 1. 0 
Mg3 Mg2+ 2 a 0 0 0 1. 0 
Ca1 Ca2+ 4 h 0 0.2771(1) 0.5 1. 0 
Si1 Si4+ 8 j 0.2829(1) 0.0834(1) 0.2960(2) 1. 0 
Si2 Si4+ 8 j 0.2900(1) 0.1707(1) 0.8041(2) 1. 0 

#End of data_22020-ICSD


