data_88589-ICSD
#?2014 by Fachinformationszentrum Karlsruhe, and the U.S. Secretary of 
#Commerce on behalf of the United States.  All rights reserved.
_database_code_ICSD                88589
_audit_creation_date               2001/07/16
_audit_update_record               2005/10/01
_chemical_name_systematic          'Barium Dizinc Disilicate - Ht'
_chemical_formula_structural       'Ba Zn2 (Si2 O7)'
_chemical_formula_sum              'Ba1 O7 Si2 Zn2'
_publ_section_title
;
Phase transition and crystal strucutures of Ba Zn2 Si2 O7
;
loop_
_citation_id
_citation_journal_abbrev
_citation_year
_citation_journal_volume
_citation_page_first
_citation_page_last
_citation_journal_id_ASTM
primary 'Journal of Physics and Chemistry of Solids' 1999 60 975 983 JPCSAW
2 'Golden Book of Phase Transitions, Wroclaw' 2002 1 1 123 GBOPT5
_publ_author_name
;
Lin, J.-H.;Lu, G.X.;Du, J.;Su, M.Z.;Loong, C.-K.;Richardson, J.W.jr.
;
_cell_length_a                     7.6199(4)
_cell_length_b                     13.0265(6)
_cell_length_c                     6.7374(2)
_cell_angle_alpha                  90.
_cell_angle_beta                   90.
_cell_angle_gamma                  90.
_cell_volume                       668.76
_cell_formula_units_Z              4
_symmetry_space_group_name_H-M     'C c m 21'
_symmetry_Int_Tables_number        36
_refine_ls_R_factor_all            .057
loop_
_symmetry_equiv_pos_site_id
_symmetry_equiv_pos_as_xyz
  1	'-x, y, z+.5'
  2	'-x, -y, z+.5'
  3	'x, -y, z'
  4	'x, y, z'
  5	'-x+.5, y+.5, z+.5'
  6	'-x+.5, -y+.5, z+.5'
  7	'x+.5, -y+.5, z'
  8	'x+.5, y+.5, z'
loop_
_atom_type_symbol
_atom_type_oxidation_number
Ba2+	2
O2-	-2
Si4+	4
Zn2+	2
loop_
_atom_site_label
_atom_site_type_symbol
_atom_site_symmetry_multiplicity
_atom_site_Wyckoff_symbol
_atom_site_fract_x
_atom_site_fract_y
_atom_site_fract_z
_atom_site_occupancy
_atom_site_attached_hydrogens
_atom_site_U_iso_or_equiv
Ba1 Ba2+ 4 a 0.2821(8) 0 0.878(2) 1. 0 0.0502 
Si1 Si4+ 8 b 0.1970(6) 0.1148(3) 0.381(1) 1. 0 0.0161 
Zn1 Zn2+ 8 b 0.5060(9) 0.2301(2) 0.112(1) 1. 0 0.0164 
O1 O2- 4 a 0.1103(7) 0 0.364(1) 1. 0 0.0277 
O2 O2- 8 b 0.3281(7) 0.1205(4) 0.198(1) 1. 0 0.0419 
O3 O2- 8 b 0.2998(6) 0.1364(3) 0.591(1) 1. 0 0.025 
O4 O2- 8 b 0.0337(4) 0.1963(3) 0.365(2) 1. 0 0.0325 

#End of data_88589-ICSD


