data_93431-ICSD
#?2014 by Fachinformationszentrum Karlsruhe, and the U.S. Secretary of 
#Commerce on behalf of the United States.  All rights reserved.
_database_code_ICSD                93431
_audit_creation_date               2003/04/01
_audit_update_record               2005/10/01
_chemical_name_systematic          'Trisilver Sulfide Iodide - Gamma'
_chemical_formula_structural       'Ag3 S I'
_chemical_formula_sum              'Ag3 I1 S1'
_publ_section_title
;
The crystal structures of superionic Ag3 S I
;
loop_
_citation_id
_citation_journal_abbrev
_citation_year
_citation_journal_volume
_citation_page_first
_citation_page_last
_citation_journal_id_ASTM
primary 'Journal of Physics: Condensed Matter' 2001 13 2295 2316 JCOMEL
_publ_author_name
;
Hull, S.;Keen, D.A.;Gardner, N.J.G.;Hayes, W.
;
_cell_length_a                     4.86728(2)
_cell_length_b                     4.86728(2)
_cell_length_c                     4.86728(2)
_cell_angle_alpha                  90
_cell_angle_beta                   90
_cell_angle_gamma                  90
_cell_volume                       115.31
_cell_formula_units_Z              1
_symmetry_space_group_name_H-M     'R 3 R'
_symmetry_Int_Tables_number        146
_refine_ls_R_factor_all            .014
loop_
_symmetry_equiv_pos_site_id
_symmetry_equiv_pos_as_xyz
  1	'z, x, y'
  2	'y, z, x'
  3	'x, y, z'
loop_
_atom_type_symbol
_atom_type_oxidation_number
Ag1+	1
I1-	-1
S2-	-2
loop_
_atom_site_label
_atom_site_type_symbol
_atom_site_symmetry_multiplicity
_atom_site_Wyckoff_symbol
_atom_site_fract_x
_atom_site_fract_y
_atom_site_fract_z
_atom_site_occupancy
_atom_site_attached_hydrogens
_atom_site_B_iso_or_equiv
I1 I1- 1 a 0.5 0.5 0.5 1. 0 0.44(5) 
S1 S2- 1 a 0.0319(5) 0.0319(5) 0.0319(5) 1. 0 0.86(6) 
Ag1 Ag1+ 3 b 0.5300(5) 0.8895(4) 0.0175(6) 1. 0 0 

loop_
_atom_site_aniso_label
_atom_site_aniso_type_symbol
_atom_site_aniso_B_11
_atom_site_aniso_B_22
_atom_site_aniso_B_33
_atom_site_aniso_B_12
_atom_site_aniso_B_13
_atom_site_aniso_B_23
Ag1 Ag1+ 0.09(4) 2.07(4) 1.22(4) 0.11(7) -0.17(5) -0.31(6)
#End of data_93431-ICSD


