data_202245-ICSD
#?2014 by Fachinformationszentrum Karlsruhe, and the U.S. Secretary of 
#Commerce on behalf of the United States.  All rights reserved.
_database_code_ICSD                202245
_audit_creation_date               1988/12/19
_chemical_name_systematic          'Calcium Cobalt Silicate *'
_chemical_formula_structural       'Ca Co Si2 O6'
_chemical_formula_sum              'Ca1 Co1 O6 Si2'
_publ_section_title
;
Crystal structures of Ca Ni Si2 O6 and Ca Co Si2 O6 and some crystal-
chemical relations in C2/c clinopyroxenes
;
loop_
_citation_id
_citation_journal_abbrev
_citation_year
_citation_journal_volume
_citation_page_first
_citation_page_last
_citation_journal_id_ASTM
primary 'American Mineralogist' 1987 72 375 381 AMMIAY
_publ_author_name                  'Ghose, S.;Wan, C.;Okamura, F.P.'
_cell_length_a                     9.806(1)
_cell_length_b                     8.950(1)
_cell_length_c                     5.243(1)
_cell_angle_alpha                  90.
_cell_angle_beta                   105.45(1)
_cell_angle_gamma                  90.
_cell_volume                       443.52
_cell_formula_units_Z              4
_symmetry_space_group_name_H-M     'C 1 2/c 1'
_symmetry_Int_Tables_number        15
_refine_ls_R_factor_all            .025
loop_
_symmetry_equiv_pos_site_id
_symmetry_equiv_pos_as_xyz
  1	'x, -y, z+.5'
  2	'-x, -y, -z'
  3	'-x, y, -z+.5'
  4	'x, y, z'
  5	'x+.5, -y+.5, z+.5'
  6	'-x+.5, -y+.5, -z'
  7	'-x+.5, y+.5, -z+.5'
  8	'x+.5, y+.5, z'
loop_
_atom_type_symbol
_atom_type_oxidation_number
Ca2+	2
Co2+	2
O2-	-2
Si4+	4
loop_
_atom_site_label
_atom_site_type_symbol
_atom_site_symmetry_multiplicity
_atom_site_Wyckoff_symbol
_atom_site_fract_x
_atom_site_fract_y
_atom_site_fract_z
_atom_site_occupancy
_atom_site_attached_hydrogens
Co1 Co2+ 4 e 0 0.90750(3) 0.25 1. 0 
Ca1 Ca2+ 4 e 0 0.29907(5) 0.25 1. 0 
Si1 Si4+ 8 f 0.28727(5) 0.09262(5) 0.23080(9) 1. 0 
O1 O2- 8 f 0.1176(1) 0.0881(1) 0.1473(2) 1. 0 
O2 O2- 8 f 0.3613(1) 0.2487(1) 0.3222(2) 1. 0 
O3 O2- 8 f 0.3508(1) 0.0192(1) -.0061(2) 1. 0 

#End of data_202245-ICSD


