data_407227-ICSD
#?2014 by Fachinformationszentrum Karlsruhe, and the U.S. Secretary of 
#Commerce on behalf of the United States.  All rights reserved.
_database_code_ICSD                407227
_audit_creation_date               1998/06/26
_chemical_name_systematic          'Potassium Dysprosium Carbonate'
_chemical_formula_structural       'K Dy (C O3)2'
_chemical_formula_sum              'C2 Dy1 K1 O6'
_publ_section_title
;
Kalium-Lanthanoid-Carbonate, K M (C O3)2 (M= Nd, Gd, Dy, Ho, Yb)
;
loop_
_citation_id
_citation_journal_abbrev
_citation_year
_citation_journal_volume
_citation_page_first
_citation_page_last
_citation_journal_id_ASTM
primary 'Zeitschrift fuer Anorganische und Allgemeine Chemie (1950) (DE)'
 1997 623 1753 1758 ZAACAB
_publ_author_name
;
Kutlu, I.;Kalz, H.J.;Wartchow, R.;Ehrhardt, H.;Seidel, H.;Meyer, G.
;
_cell_length_a                     8.5384(15)
_cell_length_b                     9.4906(12)
_cell_length_c                     6.9446(12)
_cell_angle_alpha                  90.
_cell_angle_beta                   111.060(15)
_cell_angle_gamma                  90.
_cell_volume                       525.16
_cell_formula_units_Z              4
_symmetry_space_group_name_H-M     'C 1 2/c 1'
_symmetry_Int_Tables_number        15
_refine_ls_R_factor_all            .0266
loop_
_symmetry_equiv_pos_site_id
_symmetry_equiv_pos_as_xyz
  1	'x, -y, z+.5'
  2	'-x, -y, -z'
  3	'-x, y, -z+.5'
  4	'x, y, z'
  5	'x+.5, -y+.5, z+.5'
  6	'-x+.5, -y+.5, -z'
  7	'-x+.5, y+.5, -z+.5'
  8	'x+.5, y+.5, z'
loop_
_atom_type_symbol
_atom_type_oxidation_number
C4+	4
Dy3+	3
K1+	1
O2-	-2
loop_
_atom_site_label
_atom_site_type_symbol
_atom_site_symmetry_multiplicity
_atom_site_Wyckoff_symbol
_atom_site_fract_x
_atom_site_fract_y
_atom_site_fract_z
_atom_site_occupancy
_atom_site_attached_hydrogens
K1 K1+ 4 e 0.5 0.6197(2) 0.25 1. 0 
Dy1 Dy3+ 4 e 0 0.59750(4) 0.25 1. 0 
C1 C4+ 8 f 0.2328(7) 0.3784(7) 0.2570(11) 1. 0 
O1 O2- 8 f 0.2667(6) 0.4821(5) 0.3821(7) 1. 0 
O2 O2- 8 f 0.0855(6) 0.3815(5) 0.1067(7) 1. 0 
O3 O2- 8 f 0.3295(7) 0.2744(6) 0.2783(9) 1. 0 

loop_
_atom_site_aniso_label
_atom_site_aniso_type_symbol
_atom_site_aniso_U_11
_atom_site_aniso_U_22
_atom_site_aniso_U_33
_atom_site_aniso_U_12
_atom_site_aniso_U_13
_atom_site_aniso_U_23
K1 K1+ 0.0157(9) 0.0181(10) 0.0229(11) 0 0.0056(8) 0
Dy1 Dy3+ 0.0084(2) 0.0075(2) 0.0087(2) 0 0.00219(14) 0
C1 C4+ 0.008(3) 0.011(3) 0.018(4) 0.002(2) 0.007(2) 0.002(2)
O1 O2- 0.013(2) 0.017(2) 0.016(3) 0.001(2) 0.002(2) -.003(2)
O2 O2- 0.011(2) 0.020(2) 0.010(2) 0.001(2) 0.001(2) 0.002(2)
O3 O2- 0.027(3) 0.023(3) 0.030(3) 0.017(2) 0.005(2) -.003(2)
#End of data_407227-ICSD


