data_96820-ICSD
#?2014 by Fachinformationszentrum Karlsruhe, and the U.S. Secretary of 
#Commerce on behalf of the United States.  All rights reserved.
_database_code_ICSD                96820
_audit_creation_date               2004/10/01
_chemical_name_systematic          'Calcium Tin(IV) Oxide Silicate'
_chemical_formula_structural       'Ca Sn O (Si O4)'
_chemical_formula_sum              'Ca1 O5 Si1 Sn1'
_chemical_name_mineral             Malayaite
_publ_section_title
;
Pressure-induced phase transition in malayaite, Ca Sn O Si O4
;
loop_
_citation_id
_citation_journal_abbrev
_citation_year
_citation_journal_volume
_citation_page_first
_citation_page_last
_citation_journal_id_ASTM
primary 'American Mineralogist' 2003 88 293 300 AMMIAY
_publ_author_name                  'Rath, S.;Kunz, M.;Miletich, R.'
_cell_length_a                     6.9948(4)
_cell_length_b                     8.8103(9)
_cell_length_c                     6.4976(3)
_cell_angle_alpha                  89.175(6)
_cell_angle_beta                   112.738(4)
_cell_angle_gamma                  91.104(6)
_cell_volume                       369.22
_cell_formula_units_Z              4
_symmetry_space_group_name_H-M     'A -1'
_symmetry_Int_Tables_number        2
_refine_ls_R_factor_all            .0659
loop_
_symmetry_equiv_pos_site_id
_symmetry_equiv_pos_as_xyz
  1	'-x, -y, -z'
  2	'x, y, z'
  3	'-x, -y+.5, -z+.5'
  4	'x, y+.5, z+.5'
loop_
_atom_type_symbol
_atom_type_oxidation_number
Ca2+	2
O2-	-2
Si4+	4
Sn4+	4
loop_
_atom_site_label
_atom_site_type_symbol
_atom_site_symmetry_multiplicity
_atom_site_Wyckoff_symbol
_atom_site_fract_x
_atom_site_fract_y
_atom_site_fract_z
_atom_site_occupancy
_atom_site_attached_hydrogens
_atom_site_U_iso_or_equiv
Ca1 Ca2+ 4 i 0.2311(5) 0.659(1) 0.5047(8) 1. 0 0.0287(7) 
Sn1 Sn4+ 2 h 0.5 0.5 0 1. 0 0.0136(3) 
Sn2 Sn4+ 2 g 0 0.5 0 1. 0 0.0135(3) 
Si1 Si4+ 4 i 0.7440(5) 0.683(1) 0.4972(9) 1. 0 0.0149(7) 
O1 O2- 4 i 0.7561(9) 0.587(2) 0.004(1) 1. 0 0.010 
O2 O2- 4 i 0.9229(8) 0.575(1) 0.670(1) 1. 0 0.010 
O3 O2- 4 i 0.5827(9) 0.565(2) 0.330(1) 1. 0 0.010 
O4 O2- 4 i 0.3730(9) 0.714(2) 0.886(1) 1. 0 0.010 
O5 O2- 4 i 0.1341(9) 0.710(2) 0.121(1) 1. 0 0.010 

#End of data_96820-ICSD


