data_97764-ICSD
#?2014 by Fachinformationszentrum Karlsruhe, and the U.S. Secretary of 
#Commerce on behalf of the United States.  All rights reserved.
_database_code_ICSD                97764
_audit_creation_date               2004/10/01
_chemical_name_systematic
;
Lithium Iron Phosphate(V) - Olivine-like Structure
;
_chemical_formula_structural       'Li Fe (P O4)'
_chemical_formula_sum              'Fe1 Li1 O4 P1'
_publ_section_title
;
Influence of the structure on the electrochemical performance of 
lithium transition metal phosphates as cathodic materials in 
rechargeable lithium batteries: a new high-pressure form of Li M P O4 
(M = Fe and Ni)
;
loop_
_citation_id
_citation_journal_abbrev
_citation_year
_citation_journal_volume
_citation_page_first
_citation_page_last
_citation_journal_id_ASTM
primary 'Journal of Materials Chemistry' 2001 13 1570 1576 JMACEP
_publ_author_name
;
Garcia-Moreno, O.;Alvarez-Vega, M.;Garcia-Alvarado, F.;Garcia-Jaca, 
J.;Gallardo Amores, J.M.;Sanjuan, M.L.;Amador, U.
;
_cell_length_a                     10.227(1)
_cell_length_b                     6.0048(7)
_cell_length_c                     4.6918(7)
_cell_angle_alpha                  90
_cell_angle_beta                   90
_cell_angle_gamma                  90
_cell_volume                       288.13
_cell_formula_units_Z              4
_symmetry_space_group_name_H-M     'P n m a'
_symmetry_Int_Tables_number        62
_refine_ls_R_factor_all            .057
loop_
_symmetry_equiv_pos_site_id
_symmetry_equiv_pos_as_xyz
  1	'x+.5, y, -z+.5'
  2	'x, -y+.5, z'
  3	'-x+.5, y+.5, z+.5'
  4	'-x, -y, -z'
  5	'-x+.5, -y, z+.5'
  6	'-x, y+.5, -z'
  7	'x+.5, -y+.5, -z+.5'
  8	'x, y, z'
loop_
_atom_type_symbol
_atom_type_oxidation_number
Fe2+	2
Li1+	1
O2-	-2
P5+	5
loop_
_atom_site_label
_atom_site_type_symbol
_atom_site_symmetry_multiplicity
_atom_site_Wyckoff_symbol
_atom_site_fract_x
_atom_site_fract_y
_atom_site_fract_z
_atom_site_occupancy
_atom_site_attached_hydrogens
_atom_site_B_iso_or_equiv
Li1 Li1+ 4 a 0 0 0 1. 0 1.1(4) 
Fe1 Fe2+ 4 c 0.2857(3) 0.250 0.9737(8) 1. 0 0.8(2) 
P1 P5+ 4 c 0.0943(7) 0.250 0.4265(5) 1. 0 0.4(1) 
O1 O2- 4 c 0.094(3) 0.250 0.746(1) 1. 0 0.9(3) 
O2 O2- 4 c 0.451(1) 0.250 0.193(2) 1. 0 0.9(3) 
O3 O2- 8 d 0.167(1) 0.050(3) 0.300(2) 1. 0 0.9(3) 

#End of data_97764-ICSD


