data_181465-ICSD
#?2014 by Fachinformationszentrum Karlsruhe, and the U.S. Secretary of 
#Commerce on behalf of the United States.  All rights reserved.
_database_code_ICSD                181465
_audit_creation_date               2012/02/01
_chemical_name_systematic          'Magnesium Oxide - Pm3-n, Unstable'
_chemical_formula_structural       'Mg O'
_chemical_formula_sum              'Mg1 O1'
_publ_section_title
;
Structural richness of ionic binary materials: an exploration of the 
energy landscape of magnesium oxide
;
loop_
_citation_id
_citation_journal_abbrev
_citation_year
_citation_journal_volume
_citation_page_first
_citation_page_last
_citation_journal_id_ASTM
primary 'Physical Review, Serie 3. B - Condensed Matter (18,1978-)'
 2011 83 024104-1 024104-9 PRBMDO
_publ_author_name                  'Zwijnenburg, M.A.;Bromley, S.T.'
_cell_length_a                     5.633
_cell_length_b                     5.633
_cell_length_c                     5.633
_cell_angle_alpha                  90.
_cell_angle_beta                   90.
_cell_angle_gamma                  90.
_cell_volume                       178.74
_cell_formula_units_Z              6
_symmetry_space_group_name_H-M     'P m -3 n'
_symmetry_Int_Tables_number        223
loop_
_symmetry_equiv_pos_site_id
_symmetry_equiv_pos_as_xyz
  1	'z+.5, -y+.5, x+.5'
  2	'y+.5, -x+.5, z+.5'
  3	'x+.5, -z+.5, y+.5'
  4	'-z+.5, y+.5, -x+.5'
  5	'-y+.5, x+.5, -z+.5'
  6	'-x+.5, z+.5, -y+.5'
  7	'z+.5, y+.5, -x+.5'
  8	'y+.5, x+.5, -z+.5'
  9	'x+.5, z+.5, -y+.5'
 10	'-z+.5, -y+.5, x+.5'
 11	'-y+.5, -x+.5, z+.5'
 12	'-x+.5, -z+.5, y+.5'
 13	'-z+.5, y+.5, x+.5'
 14	'-y+.5, x+.5, z+.5'
 15	'-x+.5, z+.5, y+.5'
 16	'z+.5, -y+.5, -x+.5'
 17	'y+.5, -x+.5, -z+.5'
 18	'x+.5, -z+.5, -y+.5'
 19	'-z+.5, -y+.5, -x+.5'
 20	'-y+.5, -x+.5, -z+.5'
 21	'-x+.5, -z+.5, -y+.5'
 22	'z+.5, y+.5, x+.5'
 23	'y+.5, x+.5, z+.5'
 24	'x+.5, z+.5, y+.5'
 25	'z, x, -y'
 26	'y, z, -x'
 27	'x, y, -z'
 28	'-z, -x, y'
 29	'-y, -z, x'
 30	'-x, -y, z'
 31	'z, -x, y'
 32	'y, -z, x'
 33	'x, -y, z'
 34	'-z, x, -y'
 35	'-y, z, -x'
 36	'-x, y, -z'
 37	'-z, x, y'
 38	'-y, z, x'
 39	'-x, y, z'
 40	'z, -x, -y'
 41	'y, -z, -x'
 42	'x, -y, -z'
 43	'-z, -x, -y'
 44	'-y, -z, -x'
 45	'-x, -y, -z'
 46	'z, x, y'
 47	'y, z, x'
 48	'x, y, z'
loop_
_atom_type_symbol
_atom_type_oxidation_number
Mg2+	2
O2-	-2
loop_
_atom_site_label
_atom_site_type_symbol
_atom_site_symmetry_multiplicity
_atom_site_Wyckoff_symbol
_atom_site_fract_x
_atom_site_fract_y
_atom_site_fract_z
_atom_site_occupancy
_atom_site_attached_hydrogens
Mg1 Mg2+ 6 c 0 0.5 0.750 1. 0 
O1 O2- 6 d 0.5 0 0.750 1. 0 

#End of data_181465-ICSD


