data_81857-ICSD
#?2014 by Fachinformationszentrum Karlsruhe, and the U.S. Secretary of 
#Commerce on behalf of the United States.  All rights reserved.
_database_code_ICSD                81857
_audit_creation_date               1999/11/30
_audit_update_record               2010/08/01
_chemical_name_systematic          'Lithium Lanthanum Titanate'
_chemical_formula_structural       'Li La (Ti O4)'
_chemical_formula_sum              'La1 Li1 O4 Ti1'
_publ_section_title
;
New layered perovskite compounds, Li La Ti O4 and Li Eu Ti O4
;
loop_
_citation_id
_citation_journal_abbrev
_citation_year
_citation_journal_volume
_citation_journal_issue
_citation_page_first
_citation_page_last
_citation_journal_id_ASTM
primary 'Journal of Ceram. Soc. Jpn.' 1996 104 2 140 142 JCSJEW
_publ_author_name                  'Toda, K.;Kurita, S.;Sato, M.'
_cell_length_a                     3.7718(2)
_cell_length_b                     3.7718
_cell_length_c                     12.0829(6)
_cell_angle_alpha                  90.
_cell_angle_beta                   90.
_cell_angle_gamma                  90.
_cell_volume                       171.9
_cell_formula_units_Z              2
_symmetry_space_group_name_H-M     'P 4/n m m S'
_symmetry_Int_Tables_number        129
_refine_ls_R_factor_all            .019
loop_
_symmetry_equiv_pos_site_id
_symmetry_equiv_pos_as_xyz
  1	'-y+.5, -x+.5, z'
  2	'y+.5, x+.5, z'
  3	'-y, -x, -z'
  4	'y, x, -z'
  5	'y+.5, -x+.5, z'
  6	'-y+.5, x+.5, z'
  7	'y, -x, -z'
  8	'-y, x, -z'
  9	'x+.5, -y+.5, -z'
 10	'-x+.5, y+.5, -z'
 11	'x, -y, z'
 12	'-x, y, z'
 13	'-x+.5, -y+.5, -z'
 14	'x+.5, y+.5, -z'
 15	'-x, -y, z'
 16	'x, y, z'
loop_
_atom_type_symbol
_atom_type_oxidation_number
La3+	3
Li1+	1
O2-	-2
Ti4+	4
loop_
_atom_site_label
_atom_site_type_symbol
_atom_site_symmetry_multiplicity
_atom_site_Wyckoff_symbol
_atom_site_fract_x
_atom_site_fract_y
_atom_site_fract_z
_atom_site_occupancy
_atom_site_attached_hydrogens
_atom_site_B_iso_or_equiv
Li1 Li1+ 2 a 0 0 0 1. 0 10. 
La1 La3+ 2 c 0 0.5 0.3802(3) 1. 0 10. 
Ti1 Ti4+ 2 c 0 0.5 0.795(1) 1. 0 10. 
O1 O2- 4 f 0 0 0.757(2) 1. 0 10. 
O2 O2- 2 c 0 0.5 0.582(3) 1. 0 10. 
O3 O2- 2 c 0 0.5 0.941(3) 1. 0 10. 

#End of data_81857-ICSD


