data_410722-ICSD
#?2014 by Fachinformationszentrum Karlsruhe, and the U.S. Secretary of 
#Commerce on behalf of the United States.  All rights reserved.
_database_code_ICSD                410722
_audit_creation_date               1999/11/30
_chemical_name_systematic
;
Potassium Tetrachlorooxomolybdate(V)
;
_chemical_formula_structural       'K (Mo O Cl4)'
_chemical_formula_sum              'Cl4 K1 Mo1 O1'
_publ_section_title
;
Kaliumtetrachlorooxomolybdat(V), K Mo O Cl4
;
loop_
_citation_id
_citation_journal_abbrev
_citation_year
_citation_journal_volume
_citation_page_first
_citation_page_last
_citation_journal_id_ASTM
primary 'Zeitschrift fuer Anorganische und Allgemeine Chemie (1950) (DE)'
 1999 625 842 844 ZAACAB
_publ_author_name                  'Rabe, S.;Mueller, U.'
_cell_length_a                     6.5712(4)
_cell_length_b                     9.0159(6)
_cell_length_c                     23.2730(20)
_cell_angle_alpha                  90.
_cell_angle_beta                   92.81(1)
_cell_angle_gamma                  90.
_cell_volume                       1377.16
_cell_formula_units_Z              8
_symmetry_space_group_name_H-M     'P 1 21/c 1'
_symmetry_Int_Tables_number        14
_refine_ls_R_factor_all            .0774
loop_
_symmetry_equiv_pos_site_id
_symmetry_equiv_pos_as_xyz
  1	'x, -y+.5, z+.5'
  2	'-x, -y, -z'
  3	'-x, y+.5, -z+.5'
  4	'x, y, z'
loop_
_atom_type_symbol
_atom_type_oxidation_number
Cl1-	-1
K1+	1
Mo5+	5
O2-	-2
loop_
_atom_site_label
_atom_site_type_symbol
_atom_site_symmetry_multiplicity
_atom_site_Wyckoff_symbol
_atom_site_fract_x
_atom_site_fract_y
_atom_site_fract_z
_atom_site_occupancy
_atom_site_attached_hydrogens
Mo1 Mo5+ 4 e 0.23096(17) 0.61373(13) 0.12092(5) 1. 0 
Mo2 Mo5+ 4 e -.27231(17) 0.98181(12) 0.13582(5) 1. 0 
Cl1 Cl1- 4 e 0.1236(5) 0.8611(4) 0.09726(16) 1. 0 
Cl2 Cl1- 4 e 0.6285(5) 0.7486(4) 0.09416(15) 1. 0 
Cl3 Cl1- 4 e 0.4438(6) 0.4049(4) 0.13491(18) 1. 0 
Cl4 Cl1- 4 e 0.3483(5) 0.6986(4) 0.21199(15) 1. 0 
Cl5 Cl1- 4 e 0.2373(5) 0.5698(4) 0.02236(16) 1. 0 
Cl6 Cl1- 4 e -.0441(5) 0.1760(4) 0.16004(15) 1. 0 
Cl7 Cl1- 4 e -.2733(5) 0.0729(4) 0.04045(15) 1. 0 
Cl8 Cl1- 4 e -.1569(5) 0.8577(4) 0.21980(15) 1. 0 
O1 O2- 4 e 0.0099(15) 0.5407(11) 0.1367(5) 1. 0 
O2 O2- 4 e -.4916(14) 0.0442(10) 0.1572(4) 1. 0 
K1 K1+ 4 e 0.2475(5) 0.0145(4) 0.26322(17) 1. 0 
K2 K1+ 4 e -.1920(6) 0.7837(4) -.03389(16) 1. 0 

loop_
_atom_site_aniso_label
_atom_site_aniso_type_symbol
_atom_site_aniso_U_11
_atom_site_aniso_U_22
_atom_site_aniso_U_33
_atom_site_aniso_U_12
_atom_site_aniso_U_13
_atom_site_aniso_U_23
Mo1 Mo5+ 0.0191(9) 0.0148(9) 0.0298(10) 0.0011(5) -.0068(6) 0.0024(5)
Mo2 Mo5+ 0.0197(9) 0.0133(9) 0.0207(9) -.0013(5) -.0071(6) -.0004(5)
Cl1 Cl1- 0.0218(19) 0.0174(18) 0.034(2) 0.0032(14) -.0038(16) 0.0036(15)
Cl2 Cl1- 0.0216(19) 0.0198(19) 0.028(2) -.0034(14) -.0047(15) -.0035(15)
Cl3 Cl1- 0.033(2) 0.0159(18) 0.048(3) 0.0047(15) -.0153(18) 0.0018(17)
Cl4 Cl1- 0.025(2) 0.0249(18) 0.024(2) 0.0049(15) -.0018(15) -.0001(15)
Cl5 Cl1- 0.035(2) 0.027(2) 0.024(2) -.0029(16) -.0071(16) -.0011(17)
Cl6 Cl1- 0.031(2) 0.0181(18) 0.028(2) -.0044(15) -.0072(16) -.0065(15)
Cl7 Cl1- 0.034(2) 0.024(2) 0.021(2) 0.0026(15) -.0081(16) 0.0021(15)
Cl8 Cl1- 0.026(2) 0.0222(18) 0.026(2) -.0021(15) -.0082(16) 0.0018(16)
O1 O2- 0.032(6) 0.020(5) 0.061(8) 0.000(5) -.013(6) 0.002(5)
O2 O2- 0.027(6) 0.024(5) 0.032(6) 0.006(4) -.006(4) -.010(5)
K1 K1+ 0.030(2) 0.0249(19) 0.047(2) -.0004(13) -.0125(17) -.0103(16)
K2 K1+ 0.067(3) 0.029(2) 0.036(2) -.0114(18) 0.0048(19) -.0119(16)
#End of data_410722-ICSD


