data_41898-ICSD
#?2014 by Fachinformationszentrum Karlsruhe, and the U.S. Secretary of 
#Commerce on behalf of the United States.  All rights reserved.
_database_code_ICSD                41898
_audit_creation_date               2000/07/15
_audit_update_record               2013/02/01
_chemical_name_systematic
;
Disilver Barium Tetrathiostannate(IV)
;
_chemical_formula_structural       'Ag2 Ba (Sn S4)'
_chemical_formula_sum              'Ag2 Ba1 S4 Sn1'
_publ_section_title
;
Ergebnisse einer Roentgenstrukturanalyse von Silber Barium-
Thiostannat(IV), Ag2 Ba Sn S4
;
loop_
_citation_id
_citation_journal_abbrev
_citation_year
_citation_journal_volume
_citation_page_first
_citation_page_last
_citation_journal_id_ASTM
primary 'Zeitschrift fuer Anorganische und Allgemeine Chemie (1950) (DE)'
 1976 427 200 204 ZAACAB
2 'Zeitschrift fuer Anorganische und Allgemeine Chemie (1950) (DE)'
 1976 426 281 287 ZAACAB
_publ_author_name                  'Teske, C.L.;Vetter, O.'
_cell_length_a                     7.127(3)
_cell_length_b                     8.117(3)
_cell_length_c                     6.854(3)
_cell_angle_alpha                  90.
_cell_angle_beta                   90.
_cell_angle_gamma                  90.
_cell_volume                       396.5
_cell_formula_units_Z              2
_symmetry_space_group_name_H-M     'I 2 2 2'
_symmetry_Int_Tables_number        23
_refine_ls_R_factor_all            .04
loop_
_symmetry_equiv_pos_site_id
_symmetry_equiv_pos_as_xyz
  1	'-x, y, -z'
  2	'x, -y, -z'
  3	'-x, -y, z'
  4	'x, y, z'
  5	'-x+.5, y+.5, -z+.5'
  6	'x+.5, -y+.5, -z+.5'
  7	'-x+.5, -y+.5, z+.5'
  8	'x+.5, y+.5, z+.5'
loop_
_atom_type_symbol
_atom_type_oxidation_number
Ag1+	1
Ba2+	2
S2-	-2
Sn4+	4
loop_
_atom_site_label
_atom_site_type_symbol
_atom_site_symmetry_multiplicity
_atom_site_Wyckoff_symbol
_atom_site_fract_x
_atom_site_fract_y
_atom_site_fract_z
_atom_site_occupancy
_atom_site_attached_hydrogens
Ba1 Ba2+ 2 a 0 0 0 1. 0 
Ag1 Ag1+ 4 h 0.5 0.2041(2) 0 1. 0 
Sn1 Sn4+ 2 d 0 0.5 0 1. 0 
S1 S2- 8 k 0.1943(3) 0.3319(3) 0.2016(3) 1. 0 

#End of data_41898-ICSD


