data_26495-ICSD
#?2014 by Fachinformationszentrum Karlsruhe, and the U.S. Secretary of 
#Commerce on behalf of the United States.  All rights reserved.
_database_code_ICSD                26495
_audit_creation_date               1980/01/01
_audit_update_record               2006/04/01
_chemical_name_systematic          'Tripotassium Hexacyanocobaltate'
_chemical_formula_structural       'K3 (Co (C N)6)'
_chemical_formula_sum              'C6 Co1 K3 N6'
_publ_section_title
;
A neutron-diffraction study of potassium cobalticyanide
;
loop_
_citation_id
_citation_journal_abbrev
_citation_year
_citation_journal_volume
_citation_page_first
_citation_page_last
_citation_journal_id_ASTM
primary 'Acta Crystallographica (1,1948-23,1967)' 1959 12 674 678 ACCRA9
2 'Golden Book of Phase Transitions, Wroclaw' 2002 1 1 123 GBOPT5
_publ_author_name                  'Curry, N.A.;Runciman, W.A.'
_cell_length_a                     7.1
_cell_length_b                     10.4
_cell_length_c                     8.4
_cell_angle_alpha                  90.
_cell_angle_beta                   107.33
_cell_angle_gamma                  90.
_cell_volume                       592.1
_cell_formula_units_Z              2
_symmetry_space_group_name_H-M     'P 1 21/c 1'
_symmetry_Int_Tables_number        14
_refine_ls_R_factor_all            .124
loop_
_symmetry_equiv_pos_site_id
_symmetry_equiv_pos_as_xyz
  1	'x, -y+.5, z+.5'
  2	'-x, -y, -z'
  3	'-x, y+.5, -z+.5'
  4	'x, y, z'
loop_
_atom_type_symbol
_atom_type_oxidation_number
C2+	2
Co3+	3
K1+	1
N3-	-3
loop_
_atom_site_label
_atom_site_type_symbol
_atom_site_symmetry_multiplicity
_atom_site_Wyckoff_symbol
_atom_site_fract_x
_atom_site_fract_y
_atom_site_fract_z
_atom_site_occupancy
_atom_site_attached_hydrogens
_atom_site_B_iso_or_equiv
Co1 Co3+ 2 a 0 0 0 1. 0 1.8 
K1 K1+ 2 c 0 0 0.5 1. 0 1.8 
K2 K1+ 4 e 0.499 0.23 0 1. 0 1.8 
C1 C2+ 4 e 0.118 0.165 0.014 1. 0 1.3 
C2 C2+ 4 e 0.189 -.043 0.206 1. 0 1.5 
C3 C2+ 4 e 0.179 -.059 -.114 1. 0 1.1 
N1 N3- 4 e 0.199 0.261 0.024 1. 0 2.3 
N2 N3- 4 e 0.306 -.07 0.331 1. 0 2.1 
N3 N3- 4 e 0.286 -.096 -.184 1. 0 1.9 

#End of data_26495-ICSD


