data_43078-ICSD
#?2014 by Fachinformationszentrum Karlsruhe, and the U.S. Secretary of 
#Commerce on behalf of the United States.  All rights reserved.
_database_code_ICSD                43078
_audit_creation_date               2000/07/15
_audit_update_record               2007/04/01
_chemical_name_systematic          'Tricalcium Magnesium Bis(silicate)'
_chemical_formula_structural       'Ca3 Mg (Si O4)2'
_chemical_formula_sum              'Ca3 Mg1 O8 Si2'
_chemical_name_mineral             Merwinite
_publ_section_title                'Structural analysis of merwinite'
loop_
_citation_id
_citation_journal_abbrev
_citation_year
_citation_journal_volume
_citation_page_first
_citation_page_last
_citation_journal_id_ASTM
primary 'Journal of the Ceramic Society of Japan' 1967 75 220 229 JOCSJY
_publ_author_name                  'Yamaguchi, G.;Suzuki, K.'
_cell_length_a                     9.336
_cell_length_b                     5.301
_cell_length_c                     13.286
_cell_angle_alpha                  90.
_cell_angle_beta                   92.13
_cell_angle_gamma                  90.
_cell_volume                       657.07
_cell_formula_units_Z              4
_symmetry_space_group_name_H-M     'P 1 21/c 1'
_symmetry_Int_Tables_number        14
_refine_ls_R_factor_all            .17
loop_
_symmetry_equiv_pos_site_id
_symmetry_equiv_pos_as_xyz
  1	'x, -y+.5, z+.5'
  2	'-x, -y, -z'
  3	'-x, y+.5, -z+.5'
  4	'x, y, z'
loop_
_atom_type_symbol
_atom_type_oxidation_number
Ca2+	2
Mg2+	2
O2-	-2
Si4+	4
loop_
_atom_site_label
_atom_site_type_symbol
_atom_site_symmetry_multiplicity
_atom_site_Wyckoff_symbol
_atom_site_fract_x
_atom_site_fract_y
_atom_site_fract_z
_atom_site_occupancy
_atom_site_attached_hydrogens
_atom_site_B_iso_or_equiv
Ca1 Ca2+ 4 e 0.11 0.25 0.37 1. 0 1.1 
Ca2 Ca2+ 4 e 0.27 -.25 0 1. 0 1.1 
Ca3 Ca2+ 4 e 0.42 0.25 0.1 1. 0 1.1 
Mg1 Mg2+ 4 e 0.2 -.25 0.24 1. 0 1.1 
Si1 Si4+ 4 e 0.42 0.29 0.33 1. 0 1.1 
Si2 Si4+ 4 e 0.07 0.21 0.12 1. 0 1.1 
O1 O2- 4 e 0.31 0.08 0.27 1. 0 1.1 
O2 O2- 4 e 0.56 0.19 0.4 1. 0 1.1 
O3 O2- 4 e 0.49 0.47 0.25 1. 0 1.1 
O4 O2- 4 e 0.33 0.43 0.38 1. 0 1.1 
O5 O2- 4 e 0.19 0.4 0.16 1. 0 1.1 
O6 O2- 4 e -.06 0.38 0.08 1. 0 1.1 
O7 O2- 4 e 0.01 -.04 0.23 1. 0 1.1 
O8 O2- 4 e 0.15 0.08 0.03 1. 0 1.1 

#End of data_43078-ICSD


