data_21013-ICSD
#?2014 by Fachinformationszentrum Karlsruhe, and the U.S. Secretary of 
#Commerce on behalf of the United States.  All rights reserved.
_database_code_ICSD                21013
_audit_creation_date               1980/01/01
_audit_update_record               1985/01/15
_chemical_name_systematic          'Terbium Lithium Oxide - Gamma'
_chemical_formula_structural       'Tb Li O2'
_chemical_formula_sum              'Li1 O2 Tb1'
_publ_section_title
;
Structure cristalline de gamma Tb Li O2
;
loop_
_citation_id
_citation_journal_abbrev
_citation_year
_citation_journal_volume
_citation_page_first
_citation_page_last
_citation_journal_id_ASTM
primary
;
Bulletin de la Societe Francaise de Mineralogie et de 
Cristallographie (72,1949-100,1977)
;
 1973 96 166 170 BUFCAE
_publ_author_name                  'Gondrand, M.'
_cell_length_a                     5.31
_cell_length_b                     11.28
_cell_length_c                     3.42
_cell_angle_alpha                  90.
_cell_angle_beta                   90.
_cell_angle_gamma                  90.
_cell_volume                       204.85
_cell_formula_units_Z              4
_symmetry_space_group_name_H-M     'P b n m'
_symmetry_Int_Tables_number        62
_refine_ls_R_factor_all            .15
loop_
_symmetry_equiv_pos_site_id
_symmetry_equiv_pos_as_xyz
  1	'-x+.5, y+.5, z'
  2	'x, y, -z+.5'
  3	'x+.5, -y+.5, z+.5'
  4	'-x, -y, -z'
  5	'x+.5, -y+.5, -z'
  6	'-x, -y, z+.5'
  7	'-x+.5, y+.5, -z+.5'
  8	'x, y, z'
loop_
_atom_type_symbol
_atom_type_oxidation_number
Li1+	1
O2-	-2
Tb3+	3
loop_
_atom_site_label
_atom_site_type_symbol
_atom_site_symmetry_multiplicity
_atom_site_Wyckoff_symbol
_atom_site_fract_x
_atom_site_fract_y
_atom_site_fract_z
_atom_site_occupancy
_atom_site_attached_hydrogens
_atom_site_B_iso_or_equiv
Tb1 Tb3+ 4 c 0.043 0.859 0.25 1. 0 0.4 
O1 O2- 4 c 0.321 0.706 0.25 1. 0 0.4 
O2 O2- 4 c 0.753 0.023 0.25 1. 0 0.4 
Li1 Li1+ 4 c 0.43 0.08 0.25 1. 0 0.4 

#End of data_21013-ICSD


