data_79779-ICSD
#?2014 by Fachinformationszentrum Karlsruhe, and the U.S. Secretary of 
#Commerce on behalf of the United States.  All rights reserved.
_database_code_ICSD                79779
_audit_creation_date               1996/10/14
_audit_update_record               2006/04/01
_chemical_name_systematic          'Dipotassium Sulfate(VI)'
_chemical_formula_structural       'K2 (S O4)'
_chemical_formula_sum              'K2 O4 S1'
_publ_section_title
;
Structure of potassium sulfate at temperatures from 296 K down to 15 
K
;
loop_
_citation_id
_citation_journal_abbrev
_citation_year
_citation_journal_volume
_citation_page_first
_citation_page_last
_citation_journal_id_ASTM
primary 'Acta Crystallographica, Section B: Structural Science'
 1995 51 287 293 ASBSDK
2 'Golden Book of Phase Transitions, Wroclaw' 2002 1 1 123 GBOPT5
_publ_author_name                  'Ojima, K.;Nishihata, Y.;Sawada, A.'
_cell_length_a                     5.7303(6)
_cell_length_b                     10.010(1)
_cell_length_c                     7.4291(6)
_cell_angle_alpha                  90.
_cell_angle_beta                   90.
_cell_angle_gamma                  90.
_cell_volume                       426.14
_cell_formula_units_Z              4
_symmetry_space_group_name_H-M     'P m c n'
_symmetry_Int_Tables_number        62
_refine_ls_R_factor_all            .029
loop_
_symmetry_equiv_pos_site_id
_symmetry_equiv_pos_as_xyz
  1	'x, -y+.5, z+.5'
  2	'-x+.5, y, z'
  3	'x+.5, y+.5, -z+.5'
  4	'-x, -y, -z'
  5	'-x, y+.5, -z+.5'
  6	'x+.5, -y, -z'
  7	'-x+.5, -y+.5, z+.5'
  8	'x, y, z'
loop_
_atom_type_symbol
_atom_type_oxidation_number
K1+	1
O2-	-2
S6+	6
loop_
_atom_site_label
_atom_site_type_symbol
_atom_site_symmetry_multiplicity
_atom_site_Wyckoff_symbol
_atom_site_fract_x
_atom_site_fract_y
_atom_site_fract_z
_atom_site_occupancy
_atom_site_attached_hydrogens
K1 K1+ 4 c 0.25 0.08940(4) 0.17176(6) 1. 0 
K2 K1+ 4 c 0.25 0.79701(4) 0.48888(5) 1. 0 
S1 S6+ 4 c 0.25 0.41998(5) 0.23253(6) 1. 0 
O1 O2- 4 c 0.25 0.4174(2) 0.0346(2) 1. 0 
O2 O2- 4 c 0.25 0.5596(2) 0.2986(2) 1. 0 
O3 O2- 8 d 0.0394(2) 0.3519(1) 0.3018(2) 1. 0 

loop_
_atom_site_aniso_label
_atom_site_aniso_type_symbol
_atom_site_aniso_U_11
_atom_site_aniso_U_22
_atom_site_aniso_U_33
_atom_site_aniso_U_12
_atom_site_aniso_U_13
_atom_site_aniso_U_23
K1 K1+ 0.0060(1) 0.0066(1) 0.0053(1) 0 0 0.0005(1)
K2 K1+ 0.0066(1) 0.0049(1) 0.0041(1) 0 0 0.0001(1)
S1 S6+ 0.0037(1) 0.0030(1) 0.0028(1) 0 0 0.0000(1)
O1 O2- 0.0148(6) 0.0112(5) 0.0023(4) 0 0 0.0001(5)
O2 O2- 0.0105(5) 0.0033(4) 0.0070(5) 0 0 -.0019(4)
O3 O2- 0.0050(3) 0.0082(3) 0.0096(4) -.0025(3) 0.0008(3) 0.0020(3)
#End of data_79779-ICSD


