data_601452-ICSD
#?2014 by Fachinformationszentrum Karlsruhe, and the U.S. Secretary of 
#Commerce on behalf of the United States.  All rights reserved.
_database_code_ICSD                601452
_audit_creation_date               2011/02/01
_chemical_name_systematic
;
Heptasilver Tetraselenophosphate(V) Diselenide
;
_chemical_formula_structural       'Ag7 (P Se4) Se2'
_chemical_formula_sum              'Ag7 P1 Se6'
_publ_section_title
;
Chimie Minerale. Sur les composes Ag7 P Se6
;
loop_
_citation_id
_citation_journal_abbrev
_citation_year
_citation_journal_volume
_citation_page_first
_citation_page_last
_citation_journal_id_ASTM
primary
;
Comptes Rendus Hebdomadaires des Seances de l`Academie des Sciences, 
Serie C, Sciences Chimiques (1966-)
;
 1978 286 349 351 CHDCAQ
_publ_author_name                  'Toffoli, P.;Khodadad, P.'
_cell_length_a                     10.76
_cell_length_b                     10.76
_cell_length_c                     10.76
_cell_angle_alpha                  90.0
_cell_angle_beta                   90.0
_cell_angle_gamma                  90.0
_cell_volume                       1245.77
_cell_formula_units_Z              4
_symmetry_space_group_name_H-M     'P 21 3'
_symmetry_Int_Tables_number        198
loop_
_symmetry_equiv_pos_site_id
_symmetry_equiv_pos_as_xyz
  1	'-z+.5, -x, y+.5'
  2	'-y+.5, -z, x+.5'
  3	'-x+.5, -y, z+.5'
  4	'-z, x+.5, -y+.5'
  5	'-y, z+.5, -x+.5'
  6	'-x, y+.5, -z+.5'
  7	'z+.5, -x+.5, -y'
  8	'y+.5, -z+.5, -x'
  9	'x+.5, -y+.5, -z'
 10	'z, x, y'
 11	'y, z, x'
 12	'x, y, z'
loop_
_atom_type_symbol
_atom_type_oxidation_number
Ag1+	1
P5+	5
Se2-	-2
loop_
_atom_site_label
_atom_site_type_symbol
_atom_site_symmetry_multiplicity
_atom_site_Wyckoff_symbol
_atom_site_fract_x
_atom_site_fract_y
_atom_site_fract_z
_atom_site_occupancy
_atom_site_attached_hydrogens
Ag1 Ag1+ 12 b 0.072 0.397 0.272 1. 0 
Ag2 Ag1+ 12 b 0.225 0.481 0.490 1. 0 
Ag3 Ag1+ 4 a 0.151 0.151 0.151 1. 0 
P1 P5+ 4 a 0.748 0.748 0.748 1. 0 
Se1 Se2- 4 a 0.628 0.628 0.628 1. 0 
Se2 Se2- 12 b 0.124 0.627 0.145 1. 0 
Se3 Se2- 4 a 0.286 0.286 0.286 1. 0 
Se4 Se2- 4 a 0.017 0.017 0.017 1. 0 

#End of data_601452-ICSD


