data_245426-ICSD
#?2014 by Fachinformationszentrum Karlsruhe, and the U.S. Secretary of 
#Commerce on behalf of the United States.  All rights reserved.
_database_code_ICSD                245426
_audit_creation_date               2008/02/01
_chemical_name_systematic          'Tetrapotassium Tetraoxocarbonate'
_chemical_formula_structural       'K4 (C O4)'
_chemical_formula_sum              'C1 K4 O4'
_publ_section_title
;
Possible existence of alkali metal orthocarbonates at high pressure
;
loop_
_citation_id
_citation_journal_abbrev
_citation_year
_citation_journal_volume
_citation_journal_issue
_citation_page_first
_citation_page_last
_citation_journal_id_ASTM
primary 'Chemistry - A European Journal' 2007 13 26 7330 7348 CEUJED
_publ_author_name
;
Cancarevic, Z.;Schoen, J.C.;Jansen, M.
;
_cell_length_a                     6.45640
_cell_length_b                     7.98047
_cell_length_c                     5.19308
_cell_angle_alpha                  90
_cell_angle_beta                   98.36010
_cell_angle_gamma                  90
_cell_volume                       264.73
_cell_formula_units_Z              2
_symmetry_space_group_name_H-M     'C 1 m 1'
_symmetry_Int_Tables_number        8
loop_
_symmetry_equiv_pos_site_id
_symmetry_equiv_pos_as_xyz
  1	'x, -y, z'
  2	'x, y, z'
  3	'x+.5, -y+.5, z'
  4	'x+.5, y+.5, z'
loop_
_atom_type_symbol
_atom_type_oxidation_number
C4+	4
K1+	1
O2-	-2
loop_
_atom_site_label
_atom_site_type_symbol
_atom_site_symmetry_multiplicity
_atom_site_Wyckoff_symbol
_atom_site_fract_x
_atom_site_fract_y
_atom_site_fract_z
_atom_site_occupancy
_atom_site_attached_hydrogens
C1 C4+ 2 a 0.02472 0 0.49013 1. 0 
O1 O2- 4 b 0.47402 0.65297 0.63824 1. 0 
O2 O2- 2 a 0.25353 0 0.46844 1. 0 
O3 O2- 2 a 0.89456 0 0.22392 1. 0 
K1 K1+ 4 b 0.59938 0.78465 0.23496 1. 0 
K2 K1+ 2 a 0.24363 0 0.96349 1. 0 
K3 K1+ 2 a 0.64390 0 0.71853 1. 0 

#End of data_245426-ICSD


