data_50462-ICSD
#?2014 by Fachinformationszentrum Karlsruhe, and the U.S. Secretary of 
#Commerce on behalf of the United States.  All rights reserved.
_database_code_ICSD                50462
_audit_creation_date               1999/11/30
_audit_update_record               2000/07/15
_chemical_name_systematic
;
Dirubidium Tetraselenoargentovanadate
;
_chemical_formula_structural       'Rb2 (Ag V Se4)'
_chemical_formula_sum              'Ag1 Rb2 Se4 V1'
_publ_section_title
;
Synthesis, crystal structures, and optical properties of new 
quaternary metal chalcogenides of group 5: Cs2 Ag V S4, K2 Ag V Se4, 
Rb2 Ag V Se4, Rb2 Ag Nb S4, and Cs2 Ag Nb Se4
;
loop_
_citation_id
_citation_journal_abbrev
_citation_year
_citation_journal_volume
_citation_page_first
_citation_page_last
_citation_journal_id_ASTM
primary 'Zeitschrift fuer Anorganische und Allgemeine Chemie (1950) (DE)'
 1998 624 1285 1290 ZAACAB
_publ_author_name
;
Tillinski, R.;Rumpf, C.;Naether, C.;Duerichen, P.;Jess, I.;Schunk, 
S.A.;Bensch, W.
;
_cell_length_a                     5.995(1)
_cell_length_b                     13.700(2)
_cell_length_c                     23.9270(20)
_cell_angle_alpha                  90.
_cell_angle_beta                   90.
_cell_angle_gamma                  90.
_cell_volume                       1965.16
_cell_formula_units_Z              8
_symmetry_space_group_name_H-M     'F d d d Z'
_symmetry_Int_Tables_number        70
_refine_ls_R_factor_all            .0239
loop_
_symmetry_equiv_pos_site_id
_symmetry_equiv_pos_as_xyz
  1	'x+.75, y+.75, -z'
  2	'x+.75, -y, z+.75'
  3	'-x, y+.75, z+.75'
  4	'-x, -y, -z'
  5	'-x+.25, -y+.25, z'
  6	'-x+.25, y, -z+.25'
  7	'x, -y+.25, -z+.25'
  8	'x, y, z'
  9	'x+.75, y+.25, -z+.5'
 10	'x+.25, y+.75, -z+.5'
 11	'x+.25, y+.25, -z'
 12	'x+.75, -y+.5, z+.25'
 13	'x+.25, -y, z+.25'
 14	'x+.25, -y+.5, z+.75'
 15	'-x, y+.25, z+.25'
 16	'-x+.5, y+.75, z+.25'
 17	'-x+.5, y+.25, z+.75'
 18	'-x, -y+.5, -z+.5'
 19	'-x+.5, -y, -z+.5'
 20	'-x+.5, -y+.5, -z'
 21	'-x+.25, -y+.75, z+.5'
 22	'-x+.75, -y+.25, z+.5'
 23	'-x+.75, -y+.75, z'
 24	'-x+.25, y+.5, -z+.75'
 25	'-x+.75, y, -z+.75'
 26	'-x+.75, y+.5, -z+.25'
 27	'x, -y+.75, -z+.75'
 28	'x+.5, -y+.25, -z+.75'
 29	'x+.5, -y+.75, -z+.25'
 30	'x, y+.5, z+.5'
 31	'x+.5, y, z+.5'
 32	'x+.5, y+.5, z'
loop_
_atom_type_symbol
_atom_type_oxidation_number
Ag1+	1
Rb1+	1
Se2-	-2
V5+	5
loop_
_atom_site_label
_atom_site_type_symbol
_atom_site_symmetry_multiplicity
_atom_site_Wyckoff_symbol
_atom_site_fract_x
_atom_site_fract_y
_atom_site_fract_z
_atom_site_occupancy
_atom_site_attached_hydrogens
_atom_site_U_iso_or_equiv
Rb1 Rb1+ 16 g 0.375 0.375 0.05615 1. 0 0.0039(1) 
Ag1 Ag1+ 8 b 0.125 0.625 0.125 1. 0 0.0037(1) 
V1 V5+ 8 a 0.625 0.625 0.125 1. 0 0.0020(1) 
Se1 Se2- 32 h -.16538 0.52466 0.06778 1. 0 0.0029(1) 

#End of data_50462-ICSD


