data_69529-ICSD
#?2014 by Fachinformationszentrum Karlsruhe, and the U.S. Secretary of 
#Commerce on behalf of the United States.  All rights reserved.
_database_code_ICSD                69529
_audit_creation_date               1992/08/20
_audit_update_record               2006/04/01
_chemical_name_systematic          'Dialuminium Tetrayttrium Oxide'
_chemical_formula_structural       'Al2 Y4 O9'
_chemical_formula_sum              'Al2 O9 Y4'
_publ_section_title
;
A comparison of three sets of diffraction data for Al2 Y4 O9: X-ray 
synchrotron powder data, X-ray single crystal data from Ag K alpha 
radiation, and neutron single crystal data from 1.01 Angstroem 
neutrons
;
loop_
_citation_id
_citation_journal_abbrev
_citation_year
_citation_journal_volume
_citation_page_first
_citation_page_last
_citation_journal_id_ASTM
primary 'Acta Chemica Scandinavica (43,1989-)' 1991 45 226 230 ACHSE7
2 'Golden Book of Phase Transitions, Wroclaw' 2002 1 1 123 GBOPT5
_publ_author_name                  'Christensen, A.N.;Hazell, R.G.'
_cell_length_a                     7.375(1)
_cell_length_b                     10.507(2)
_cell_length_c                     11.113(1)
_cell_angle_alpha                  90.
_cell_angle_beta                   108.58(2)
_cell_angle_gamma                  90.
_cell_volume                       816.25
_cell_formula_units_Z              4
_symmetry_space_group_name_H-M     'P 1 21/c 1'
_symmetry_Int_Tables_number        14
_refine_ls_R_factor_all            .091
loop_
_symmetry_equiv_pos_site_id
_symmetry_equiv_pos_as_xyz
  1	'x, -y+.5, z+.5'
  2	'-x, -y, -z'
  3	'-x, y+.5, -z+.5'
  4	'x, y, z'
loop_
_atom_type_symbol
_atom_type_oxidation_number
Al3+	3
O2-	-2
Y3+	3
loop_
_atom_site_label
_atom_site_type_symbol
_atom_site_symmetry_multiplicity
_atom_site_Wyckoff_symbol
_atom_site_fract_x
_atom_site_fract_y
_atom_site_fract_z
_atom_site_occupancy
_atom_site_attached_hydrogens
Y1 Y3+ 4 e 0.5244(6) 0.1081(6) 0.7864(5) 1. 0 
Y2 Y3+ 4 e 0.0221(7) 0.0944(5) 0.8066(4) 1. 0 
Y3 Y3+ 4 e 0.3390(7) 0.1276(5) 0.4370(5) 1. 0 
Y4 Y3+ 4 e 0.8382(7) 0.1206(6) 0.4173(5) 1. 0 
Al1 Al3+ 4 e 0.2300(16) 0.1818(15) 0.1323(12) 1. 0 
Al2 Al3+ 4 e 0.6544(20) 0.1808(15) 0.1170(12) 1. 0 
O1 O2- 4 e 0.7816(38) 0.2341(31) 0.7454(26) 1. 0 
O2 O2- 4 e 0.2228(37) 0.2391(29) 0.7642(25) 1. 0 
O3 O2- 4 e 0.2151(37) 0.0182(27) 0.1559(24) 1. 0 
O4 O2- 4 e 0.0741(33) 0.2372(23) 0.9822(20) 1. 0 
O5 O2- 4 e 0.4286(42) 0.2308(21) 0.1107(24) 1. 0 
O6 O2- 4 e 0.6519(32) 0.2372(24) 0.9577(20) 1. 0 
O7 O2- 4 e 0.6884(38) 0.0049(28) 0.1615(26) 1. 0 
O8 O2- 4 e 0.0829(54) 0.0045(27) 0.3938(30) 1. 0 
O9 O2- 4 e 0.5676(50) 0.0061(27) 0.4014(28) 1. 0 

#End of data_69529-ICSD


