data_90117-ICSD
#?2014 by Fachinformationszentrum Karlsruhe, and the U.S. Secretary of 
#Commerce on behalf of the United States.  All rights reserved.
_database_code_ICSD                90117
_audit_creation_date               2002/04/01
_chemical_name_systematic
;
Dipotassium Hexaselenomangano(II)distannate
;
_chemical_formula_structural       'K2 (Mn Sn2 Se6)'
_chemical_formula_sum              'K2 Mn1 Se6 Sn2'
_publ_section_title
;
From 1D chain to 3D network: syntheses, structures, and 1D properties 
of K2 Mn Sn2 Se6, K2 Mn Sn Se4, and K2 Ag2 Sn Se4
;
loop_
_citation_id
_citation_journal_abbrev
_citation_year
_citation_journal_volume
_citation_page_first
_citation_page_last
_citation_journal_id_ASTM
primary 'Chemistry of Materials' 2000 12 2385 2391 CMATEX
_publ_author_name
;
Chen, X.;Huang, X.-Y.;Fu, A.-H.;Li, J.;Zhang, L.-D.;Guo, H.-Y.
;
_cell_length_a                     8.167(1)
_cell_length_b                     8.167(1)
_cell_length_c                     19.724(4)
_cell_angle_alpha                  90.
_cell_angle_beta                   90.
_cell_angle_gamma                  90.
_cell_volume                       1315.59
_cell_formula_units_Z              4
_symmetry_space_group_name_H-M     'P 4/n c c Z'
_symmetry_Int_Tables_number        130
_refine_ls_R_factor_all            .043
loop_
_symmetry_equiv_pos_site_id
_symmetry_equiv_pos_as_xyz
  1	'y+.5, x+.5, -z+.5'
  2	'-y, x+.5, -z'
  3	'y+.5, -x, -z'
  4	'-y, -x, -z+.5'
  5	'x+.5, y+.5, -z'
  6	'-x, y+.5, -z+.5'
  7	'x+.5, -y, -z+.5'
  8	'-x, -y, -z'
  9	'-y+.5, -x+.5, z+.5'
 10	'y, -x+.5, z'
 11	'-y+.5, x, z'
 12	'y, x, z+.5'
 13	'-x+.5, -y+.5, z'
 14	'x, -y+.5, z+.5'
 15	'-x+.5, y, z+.5'
 16	'x, y, z'
loop_
_atom_type_symbol
_atom_type_oxidation_number
K1+	1
Mn2+	2
Se2-	-2
Sn4+	4
loop_
_atom_site_label
_atom_site_type_symbol
_atom_site_symmetry_multiplicity
_atom_site_Wyckoff_symbol
_atom_site_fract_x
_atom_site_fract_y
_atom_site_fract_z
_atom_site_occupancy
_atom_site_attached_hydrogens
_atom_site_U_iso_or_equiv
Sn1 Sn4+ 8 e 0.75 0.25 0.3374(1) 1. 0 0.020(1) 
Mn1 Mn2+ 4 b 0.75 0.25 0.5 1. 0 0.021(1) 
Se1 Se2- 16 g 0.5898(1) 0.4306(1) 0.4152(1) 1. 0 0.022(1) 
Se2 Se2- 8 f 0.5861(1) 0.0861(1) 0.25 1. 0 0.023(1) 
K1 K1+ 4 c 0.25 0.25 0.4743(2) 1. 0 0.041(1) 
K2 K1+ 4 c 0.25 0.25 0.1789(2) 1. 0 0.036(1) 

#End of data_90117-ICSD


