data_74047-ICSD
#?2014 by Fachinformationszentrum Karlsruhe, and the U.S. Secretary of 
#Commerce on behalf of the United States.  All rights reserved.
_database_code_ICSD                74047
_audit_creation_date               1995/01/10
_chemical_name_systematic          'Calcium Tricobalt Bis(diphosphate)'
_chemical_formula_structural       'Ca Co3 (P2 O7)2'
_chemical_formula_sum              'Ca1 Co3 O14 P4'
_publ_section_title
;
AM3(P2O7)2 (A=alkaline-earth metals; M=Fe, Co, Ni): diphosphates 
containing infinite chains of edge-sharing MO6 octahedra
;
loop_
_citation_id
_citation_journal_abbrev
_citation_year
_citation_journal_volume
_citation_page_first
_citation_page_last
_citation_journal_id_ASTM
primary 'Inorganic Chemistry' 1993 32 4373 4377 INOCAJ
_publ_author_name                  'Lii, K.-H.;Shih, P.-F.;Chen, T.-M.'
_cell_length_a                     7.394(1)
_cell_length_b                     7.6266(9)
_cell_length_c                     9.444(2)
_cell_angle_alpha                  90.
_cell_angle_beta                   111.73(2)
_cell_angle_gamma                  90.
_cell_volume                       494.71
_cell_formula_units_Z              2
_symmetry_space_group_name_H-M     'P 1 21/c 1'
_symmetry_Int_Tables_number        14
_refine_ls_R_factor_all            .035
loop_
_symmetry_equiv_pos_site_id
_symmetry_equiv_pos_as_xyz
  1	'x, -y+.5, z+.5'
  2	'-x, -y, -z'
  3	'-x, y+.5, -z+.5'
  4	'x, y, z'
loop_
_atom_type_symbol
_atom_type_oxidation_number
Ca2+	2
Co2+	2
O2-	-2
P5+	5
loop_
_atom_site_label
_atom_site_type_symbol
_atom_site_symmetry_multiplicity
_atom_site_Wyckoff_symbol
_atom_site_fract_x
_atom_site_fract_y
_atom_site_fract_z
_atom_site_occupancy
_atom_site_attached_hydrogens
_atom_site_U_iso_or_equiv
Ca1 Ca2+ 2 b 0.5 0 0 1. 0 0.0131(6) 
Co1 Co2+ 4 e 0.1873(1) 0.6260(1) 0.0274(1) 1. 0 0.0089(3) 
Co2 Co2+ 2 a 0 0 0 1. 0 0.0082(4) 
P1 P5+ 4 e 0.8785(3) 0.7048(2) 0.1918(2) 1. 0 0.0069(5) 
P2 P5+ 4 e 0.5974(2) 0.4339(2) 0.2038(2) 1. 0 0.0078(5) 
O1 O2- 4 e 0.3936(7) 0.4755(6) 0.1937(5) 1. 0 0.012(2) 
O2 O2- 4 e 0.0105(7) 0.2127(6) 0.1371(5) 1. 0 0.010(2) 
O3 O2- 4 e 0.9725(7) 0.5789(6) 0.1138(5) 1. 0 0.010(2) 
O4 O2- 4 e 0.6739(7) 0.6211(6) 0.1746(6) 1. 0 0.011(2) 
O5 O2- 4 e 0.6201(7) 0.3065(6) 0.0892(5) 1. 0 0.013(2) 
O6 O2- 4 e 0.2761(7) 0.8820(6) 0.1318(5) 1. 0 0.010(2) 
O7 O2- 4 e 0.8286(7) 0.8780(6) 0.1072(5) 1. 0 0.009(2) 

#End of data_74047-ICSD


