data_409812-ICSD
#?2014 by Fachinformationszentrum Karlsruhe, and the U.S. Secretary of 
#Commerce on behalf of the United States.  All rights reserved.
_database_code_ICSD                409812
_audit_creation_date               2005/10/01
_chemical_name_systematic
;
Potassium Praseodymium Tetraselenidogermanate
;
_chemical_formula_structural       'K Pr Ge Se4'
_chemical_formula_sum              'Ge1 K1 Pr1 Se4'
_publ_section_title
;
Crystal structure of potassium terbium(III) tetrasulfidogermanate, K 
Tb Ge S4, and potassium praseodymium(III) tetraselenidogermanate, K 
Pr Ge Se4
;
loop_
_citation_id
_citation_journal_abbrev
_citation_year
_citation_journal_volume
_citation_page_first
_citation_page_last
_citation_journal_id_ASTM
primary 'Zeitschrift fuer Kristallographie - New Crystal Structures'
 2005 220 7 8 ZKNSFT
_publ_author_name                  'Chan, B.-C.;Dorhout, P.K.'
_cell_length_a                     6.8280(8)
_cell_length_b                     7.0105(8)
_cell_length_c                     8.9868(10)
_cell_angle_alpha                  90.00
_cell_angle_beta                   108.157(2)
_cell_angle_gamma                  90.00
_cell_volume                       408.76
_cell_formula_units_Z              2
_symmetry_space_group_name_H-M     'P 1 21 1'
_symmetry_Int_Tables_number        4
_refine_ls_R_factor_all            .0381
loop_
_symmetry_equiv_pos_site_id
_symmetry_equiv_pos_as_xyz
  1	'-x, y+.5, -z'
  2	'x, y, z'
loop_
_atom_type_symbol
_atom_type_oxidation_number
Ge4+	4
K1+	1
Pr3+	3
Se2-	-2
loop_
_atom_site_label
_atom_site_type_symbol
_atom_site_symmetry_multiplicity
_atom_site_Wyckoff_symbol
_atom_site_fract_x
_atom_site_fract_y
_atom_site_fract_z
_atom_site_occupancy
_atom_site_attached_hydrogens
_atom_site_U_iso_or_equiv
Pr1 Pr3+ 2 a 0.23170(11) -0.00030(11) 0.55344(8) 1 0 0.0146(3) 
Se1 Se2- 2 a 0.0097(2) 0.2588(2) 0.28353(17) 1 0 0.0160(4) 
Se2 Se2- 2 a 0.0327(2) 0.2750(2) 0.73059(18) 1 0 0.0155(4) 
Se3 Se2- 2 a 0.4148(2) 0.5346(3) 0.15133(16) 1 0 0.0230(4) 
Se4 Se2- 2 a 0.5771(2) 0.0852(2) 0.42233(16) 1 0 0.0181(4) 
Ge1 Ge4+ 2 a 0.2168(2) 0.5320(2) 0.31820(16) 1 0 0.0132(4) 
K1 K1+ 2 a 0.2576(5) 0.0114(8) 0.0624(4) 1 0 0.0347(9) 

loop_
_atom_site_aniso_label
_atom_site_aniso_type_symbol
_atom_site_aniso_U_11
_atom_site_aniso_U_22
_atom_site_aniso_U_33
_atom_site_aniso_U_12
_atom_site_aniso_U_13
_atom_site_aniso_U_23
Pr1 Pr3+ 0.0128(4) 0.0176(5) 0.0149(5) 0.0007(3) 0.0065(3) -0.0003(4)
Se1 Se2- 0.0167(7) 0.0135(8) 0.0186(10) -0.0020(6) 0.0066(6) -0.0005(7)
Se2 Se2- 0.0156(7) 0.0142(8) 0.0167(9) -0.0020(7) 0.0051(6) -0.0009(7)
Se3 Se2- 0.0179(7) 0.0392(10) 0.0144(8) 0.0011(7) 0.0086(6) 0.0033(8)
Se4 Se2- 0.0146(7) 0.0261(9) 0.0143(8) -0.0047(7) 0.0054(6) 0.0005(7)
Ge1 Ge4+ 0.0114(7) 0.0139(9) 0.0158(8) -0.0003(7) 0.0061(6) -0.0006(7)
K1 K1+ 0.040(2) 0.045(2) 0.0206(18) 0.002(2) 0.0129(15) 0.000(2)
#End of data_409812-ICSD


