data_72976-ICSD
#?2014 by Fachinformationszentrum Karlsruhe, and the U.S. Secretary of 
#Commerce on behalf of the United States.  All rights reserved.
_database_code_ICSD                72976
_audit_creation_date               1994/06/30
_chemical_name_systematic
;
Potassium Bismuth Selenide (2/8/13)
;
_chemical_formula_structural       'K2 Bi8 Se13'
_chemical_formula_sum              'Bi8 K2 Se13'
_publ_section_title
;
Molten salt synthesis and properties of three new solid state ternary 
bismuth chalcogenides, beta-CsBiS2, gamma-CsBiS2 and K2Bi8Se13
;
loop_
_citation_id
_citation_journal_abbrev
_citation_year
_citation_journal_volume
_citation_page_first
_citation_page_last
_citation_journal_id_ASTM
primary 'Chemistry of Materials' 1993 5 331 340 CMATEX
_publ_author_name
;
McCarthy, T.J.;Ngeyi, S.-P.;Liao, J.-H.;DeGroot, D.C.;Hogan, 
T.;Kannewurf, C.R.;Kanatzidis, M.G.
;
_cell_length_a                     13.768(2)
_cell_length_b                     12.096(3)
_cell_length_c                     4.1656(6)
_cell_angle_alpha                  89.98(1)
_cell_angle_beta                   98.64(1)
_cell_angle_gamma                  87.96(1)
_cell_volume                       685.41
_cell_formula_units_Z              1
_symmetry_space_group_name_H-M     'P -1'
_symmetry_Int_Tables_number        2
_refine_ls_R_factor_all            .082
loop_
_symmetry_equiv_pos_site_id
_symmetry_equiv_pos_as_xyz
  1	'-x, -y, -z'
  2	'x, y, z'
loop_
_atom_type_symbol
_atom_type_oxidation_number
Bi3+	3
K1+	1
Se2-	-2
loop_
_atom_site_label
_atom_site_type_symbol
_atom_site_symmetry_multiplicity
_atom_site_Wyckoff_symbol
_atom_site_fract_x
_atom_site_fract_y
_atom_site_fract_z
_atom_site_occupancy
_atom_site_attached_hydrogens
K1 K1+ 2 i 0.831(1) 0.051(2) 0.415(4) 1. 0 
Bi1 Bi3+ 2 i 0.8809(2) 0.3803(3) 0.4408(6) 1. 0 
Bi2 Bi3+ 2 i 0.3787(2) 0.5464(3) 0.1887(7) 1. 0 
Bi3 Bi3+ 2 i 0.1510(2) 0.2940(3) 0.0758(6) 1. 0 
Bi4 Bi3+ 2 i 0.5628(2) 0.8671(3) 0.2822(7) 1. 0 
Se1 Se2- 2 i 0.2625(5) 0.4267(7) 0.632(2) 1. 0 
Se2 Se2- 2 i 0.0370(5) 0.1977(7) 0.516(2) 1. 0 
Se3 Se2- 2 i 0.7788(5) 0.2707(7) 0.887(2) 1. 0 
Se4 Se2- 2 i 0.5094(5) 0.3536(7) 0.254(2) 1. 0 
Se5 Se2- 2 i 0.2811(5) 0.1169(7) 0.140(2) 1. 0 
Se6 Se2- 2 i 0.5837(5) 0.0886(7) 0.293(2) 1. 0 
Se7 Se2- 1 c 0 0.5 0 1. 0 

loop_
_atom_site_aniso_label
_atom_site_aniso_type_symbol
_atom_site_aniso_U_11
_atom_site_aniso_U_22
_atom_site_aniso_U_33
_atom_site_aniso_U_12
_atom_site_aniso_U_13
_atom_site_aniso_U_23
K1 K1+ 0.04(1) 0.02(1) 0.05(1) -.018(9) 0.004(8) 0.01(1)
Bi1 Bi3+ 0.016(1) 0.023(2) 0.019(1) -.001(1) 0.001(1) 0.000(1)
Bi2 Bi3+ 0.018(1) 0.024(2) 0.018(1) 0.000(1) 0.002(1) 0.000(1)
Bi3 Bi3+ 0.017(1) 0.024(2) 0.018(1) 0.000(1) 0.002(1) -.002(1)
Bi4 Bi3+ 0.028(1) 0.018(2) 0.022(1) 0.000(1) 0.004(1) 0.001(1)
Se1 Se2- 0.021(3) 0.018(5) 0.022(4) 0.001(4) 0.002(3) -.003(3)
Se2 Se2- 0.016(3) 0.030(6) 0.017(4) -.005(4) -.001(3) 0.001(4)
Se3 Se2- 0.023(4) 0.015(6) 0.025(4) 0.001(4) 0.002(3) -.003(4)
Se4 Se2- 0.021(4) 0.022(6) 0.017(4) -.002(4) -.002(3) -.004(4)
Se5 Se2- 0.020(3) 0.012(5) 0.023(4) 0.005(3) 0.001(3) 0.002(3)
Se6 Se2- 0.016(3) 0.018(5) 0.018(3) 0.002(3) 0.002(3) 0.001(3)
Se7 Se2- 0.019(5) 0.011(7) 0.017(5) -.004(5) 0.002(4) 0.000(5)
#End of data_72976-ICSD


