data_619577-ICSD
#?2014 by Fachinformationszentrum Karlsruhe, and the U.S. Secretary of 
#Commerce on behalf of the United States.  All rights reserved.
_database_code_ICSD                619577
_audit_creation_date               2012/02/01
_chemical_name_systematic          'Calcium Uranium Selenide (1/2/5)'
_chemical_formula_structural       'Ca U2 Se5'
_chemical_formula_sum              'Ca1 Se5 U2'
_publ_section_title
;
Chimie Minerale. Sur les sulfures et seleniures d'uranium et des 
elements Ca, Sr, Ba, Pb, Eu, de type U3 X5 (X = S, Se)
;
loop_
_citation_id
_citation_journal_abbrev
_citation_year
_citation_journal_volume
_citation_page_first
_citation_page_last
_citation_journal_id_ASTM
primary
;
Comptes Rendus Hebdomadaires des Seances de l`Academie des Sciences, 
Serie C, Sciences Chimiques (1966-)
;
 1972 274 959 961 CHDCAQ
_publ_author_name                  'Brochu, R.;Padiou, J.;Prigent, J.'
_cell_length_a                     12.26(2)
_cell_length_b                     8.435(5)
_cell_length_c                     7.75(1)
_cell_angle_alpha                  90.0
_cell_angle_beta                   90.0
_cell_angle_gamma                  90.0
_cell_volume                       801.45
_cell_formula_units_Z              4
_symmetry_space_group_name_H-M     'P n m a'
_symmetry_Int_Tables_number        62
loop_
_symmetry_equiv_pos_site_id
_symmetry_equiv_pos_as_xyz
  1	'x+.5, y, -z+.5'
  2	'x, -y+.5, z'
  3	'-x+.5, y+.5, z+.5'
  4	'-x, -y, -z'
  5	'-x+.5, -y, z+.5'
  6	'-x, y+.5, -z'
  7	'x+.5, -y+.5, -z+.5'
  8	'x, y, z'
loop_
_atom_type_symbol
_atom_type_oxidation_number
Ca2+	2
Se2-	-2
U4+	4
loop_
_atom_site_label
_atom_site_type_symbol
_atom_site_symmetry_multiplicity
_atom_site_Wyckoff_symbol
_atom_site_fract_x
_atom_site_fract_y
_atom_site_fract_z
_atom_site_occupancy
_atom_site_attached_hydrogens
U1 U4+ 8 d 0.322 -.001 0.472 1. 0 
Ca1 Ca2+ 4 c 0.490 0.25 0.926 1. 0 
Se1 Se2- 8 d 0.592 0.456 0.169 1. 0 
Se2 Se2- 4 c 0.313 0.25 0.167 1. 0 
Se3 Se2- 4 c 0.499 0.25 0.541 1. 0 
Se4 Se2- 4 c 0.718 0.25 0.808 1. 0 

#End of data_619577-ICSD


