data_6320-ICSD
#?2014 by Fachinformationszentrum Karlsruhe, and the U.S. Secretary of 
#Commerce on behalf of the United States.  All rights reserved.
_database_code_ICSD                6320
_audit_creation_date               1980/01/01
_audit_update_record               2000/07/15
_chemical_name_systematic          'Dicalcium Iron(III) Gallium Oxide'
_chemical_formula_structural       'Ca2 Fe Ga O5'
_chemical_formula_sum              'Ca2 Fe1 Ga1 O5'
_publ_section_title
;
Zur Kenntnis von Ca2 Fe Ga O5, ein Beitrag zur Kristallchemie von 
(M2+)2 (Me3+)2 O5 -Verbindungen
;
loop_
_citation_id
_citation_journal_abbrev
_citation_year
_citation_journal_volume
_citation_page_first
_citation_page_last
_citation_journal_id_ASTM
primary 'Zeitschrift fuer Anorganische und Allgemeine Chemie (1950) (DE)'
 1974 410 97 103 ZAACAB
_publ_author_name
;
Arpe, R.;von Schenk, R.;Mueller Buschbaum, H.
;
_cell_length_a                     5.603
_cell_length_b                     14.691
_cell_length_c                     5.386
_cell_angle_alpha                  90.
_cell_angle_beta                   90.
_cell_angle_gamma                  90.
_cell_volume                       443.34
_cell_formula_units_Z              4
_symmetry_space_group_name_H-M     'P c m n'
_symmetry_Int_Tables_number        62
_refine_ls_R_factor_all            .055
loop_
_symmetry_equiv_pos_site_id
_symmetry_equiv_pos_as_xyz
  1	'-x+.5, y, z+.5'
  2	'x, -y+.5, z'
  3	'x+.5, y+.5, -z+.5'
  4	'-x, -y, -z'
  5	'x+.5, -y, -z+.5'
  6	'-x, y+.5, -z'
  7	'-x+.5, -y+.5, z+.5'
  8	'x, y, z'
loop_
_atom_type_symbol
_atom_type_oxidation_number
Ca2+	2
Fe3+	3
Ga3+	3
O2-	-2
loop_
_atom_site_label
_atom_site_type_symbol
_atom_site_symmetry_multiplicity
_atom_site_Wyckoff_symbol
_atom_site_fract_x
_atom_site_fract_y
_atom_site_fract_z
_atom_site_occupancy
_atom_site_attached_hydrogens
Ca1 Ca2+ 8 d 0.0255 0.1083 0.4839 1. 0 
Fe1 Fe3+ 4 a 0 0 0 1. 0 
Ga1 Ga3+ 4 c 0.9311 0.25 0.9501 1. 0 
O1 O2- 8 d 0.241 0.985 0.259 1. 0 
O2 O2- 8 d 0.071 0.142 0.025 1. 0 
O3 O2- 4 c 0.873 0.25 0.605 1. 0 

#End of data_6320-ICSD


