data_415374-ICSD
#?2014 by Fachinformationszentrum Karlsruhe, and the U.S. Secretary of 
#Commerce on behalf of the United States.  All rights reserved.
_database_code_ICSD                415374
_audit_creation_date               2007/08/01
_chemical_name_systematic
;
Dipotassium Sulfato(VI)trifluoromanganate(III) - Ht
;
_chemical_formula_structural       'K2 (Mn F3 (S O4))'
_chemical_formula_sum              'F3 K2 Mn1 O4 S1'
_publ_section_title
;
Jahn-Teller-Ordnung in Mangan(III)-fluoridsulfaten.  II. 
Phasen?bergang und Verzwillingung bei K2 (Mn F3 (S O4)) und 1D 
Magnetismus in Verbindungen A2 (Mn F3 (S O4)) (A = K, N H4, Rb, Cs)
;
loop_
_citation_id
_citation_journal_abbrev
_citation_year
_citation_journal_volume
_citation_page_first
_citation_page_last
_citation_journal_id_ASTM
primary 'Zeitschrift fuer Anorganische und Allgemeine Chemie (1950) (DE)'
 2005 631 1785 1792 ZAACAB
_publ_author_name
;
Klein, U.;Hahn, F.;Massa, W.;Pebler, J.
;
_cell_length_a                     7.2425(4)
_cell_length_b                     10.7634(9)
_cell_length_c                     8.4568(6)
_cell_angle_alpha                  90.00
_cell_angle_beta                   90.00
_cell_angle_gamma                  90.00
_cell_volume                       659.24
_cell_formula_units_Z              4
_symmetry_space_group_name_H-M     'P n c a'
_symmetry_Int_Tables_number        60
_refine_ls_R_factor_all            .0235
loop_
_symmetry_equiv_pos_site_id
_symmetry_equiv_pos_as_xyz
  1	'x+.5, y, -z'
  2	'x, -y+.5, z+.5'
  3	'-x+.5, y+.5, z+.5'
  4	'-x, -y, -z'
  5	'-x+.5, -y, z'
  6	'-x, y+.5, -z+.5'
  7	'x+.5, -y+.5, -z+.5'
  8	'x, y, z'
loop_
_atom_type_symbol
_atom_type_oxidation_number
F1-	-1
K1+	1
Mn3+	3
O2-	-2
S6+	6
loop_
_atom_site_label
_atom_site_type_symbol
_atom_site_symmetry_multiplicity
_atom_site_Wyckoff_symbol
_atom_site_fract_x
_atom_site_fract_y
_atom_site_fract_z
_atom_site_occupancy
_atom_site_attached_hydrogens
_atom_site_U_iso_or_equiv
K1 K1+ 8 d 0.19551(6) 0.19069(3) 0.32741(4) 1 0 0.03045(12) 
Mn1 Mn3+ 4 a 0.5000 0.0000 0.0000 1 0 0.01512(10) 
F1 F1- 8 d 0.47544(13) 0.16188(8) -0.05526(11) 1 0 0.0244(2) 
F2 F1- 4 c 0.2500 0.0000 0.10979(16) 1 0 0.0253(3) 
S1 S6+ 4 c 0.7500 0.0000 0.31123(5) 1 0 0.02022(12) 
O1 O2- 8 d 0.60807(16) 0.05945(10) 0.20649(12) 1 0 0.0246(2) 
O2 O2- 8 d 0.66597(19) -0.09789(14) 0.40373(16) 1 0 0.0390(3) 

loop_
_atom_site_aniso_label
_atom_site_aniso_type_symbol
_atom_site_aniso_U_11
_atom_site_aniso_U_22
_atom_site_aniso_U_33
_atom_site_aniso_U_12
_atom_site_aniso_U_13
_atom_site_aniso_U_23
K1 K1+ 0.0390(2) 0.02297(17) 0.02934(17) -0.00208(13) -0.00854(13) 
-0.00091(11)
Mn1 Mn3+ 0.01441(14) 0.01312(14) 0.01781(15) 0.00089(8) -0.00004(8) 
0.00067(8)
F1 F1- 0.0292(4) 0.0149(4) 0.0293(4) 0.0025(3) -0.0027(3) 0.0029(3)
F2 F1- 0.0222(6) 0.0305(7) 0.0232(6) 0.0008(5) 0.000 0.000
S1 S6+ 0.0222(2) 0.0218(2) 0.0166(2) -0.00202(15) 0.000 0.000
O1 O2- 0.0282(5) 0.0214(5) 0.0243(5) 0.0031(4) -0.0020(4) -0.0011(4)
O2 O2- 0.0364(7) 0.0454(7) 0.0352(6) -0.0063(6) 0.0014(5) 0.0204(6)
#End of data_415374-ICSD


