data_280308-ICSD
#?2014 by Fachinformationszentrum Karlsruhe, and the U.S. Secretary of 
#Commerce on behalf of the United States.  All rights reserved.
_database_code_ICSD                280308
_audit_creation_date               2002/04/01
_chemical_name_systematic          'Aluminium Phosphate(V)'
_chemical_formula_structural       'Al (P O4)'
_chemical_formula_sum              'Al1 O4 P1'
_publ_section_title
;
Two Forms of aluminium phosphate tridymite from X-ray powder data
;
loop_
_citation_id
_citation_journal_abbrev
_citation_year
_citation_journal_volume
_citation_page_first
_citation_page_last
_citation_journal_id_ASTM
primary 'Acta Crystallographica, Section C: Crystal Structure Communications'
 2000 56 401 403 ACSCEE
_publ_author_name                  'Graetsch, H.'
_cell_length_a                     37.3863(16)
_cell_length_b                     5.0455(2)
_cell_length_c                     26.2217(10)
_cell_angle_alpha                  90.
_cell_angle_beta                   117.8160(13)
_cell_angle_gamma                  90.
_cell_volume                       4374.73
_cell_formula_units_Z              48
_symmetry_space_group_name_H-M     'P 1 c 1'
_symmetry_Int_Tables_number        7
_refine_ls_R_factor_all            .0727
loop_
_symmetry_equiv_pos_site_id
_symmetry_equiv_pos_as_xyz
  1	'x, -y, z+.5'
  2	'x, y, z'
loop_
_atom_type_symbol
_atom_type_oxidation_number
Al3+	3
O2-	-2
P5+	5
loop_
_atom_site_label
_atom_site_type_symbol
_atom_site_symmetry_multiplicity
_atom_site_Wyckoff_symbol
_atom_site_fract_x
_atom_site_fract_y
_atom_site_fract_z
_atom_site_occupancy
_atom_site_attached_hydrogens
_atom_site_U_iso_or_equiv
Al1 Al3+ 2 a 0.01 0.1840(16) 0.038 1. 0 0.0147(4) 
Al2 Al3+ 2 a 0.0163(4) 0.6937(19) 0.1993(4) 1. 0 0.0147(4) 
Al3 Al3+ 2 a 0.0277(3) 0.1944(19) 0.3761(5) 1. 0 0.0147(4) 
Al4 Al3+ 2 a 0.1361(4) 0.6984(19) 0.0651(7) 1. 0 0.0147(4) 
Al5 Al3+ 2 a 0.1461(3) 0.3193(19) 0.2366(7) 1. 0 0.0147(4) 
Al6 Al3+ 2 a 0.1476(4) 0.7877(17) 0.3954(7) 1. 0 0.0147(4) 
Al7 Al3+ 2 a 0.2583(4) 0.8197(16) 0.0294(7) 1. 0 0.0147(4) 
Al8 Al3+ 2 a 0.2673(4) 0.2706(19) 0.1960(7) 1. 0 0.0147(4) 
Al9 Al3+ 2 a 0.2784(3) 0.6977(18) 0.3717(7) 1. 0 0.0147(4) 
Al10 Al3+ 2 a 0.3846(4) 0.209(2) 0.0688(6) 1. 0 0.0147(4) 
Al11 Al3+ 2 a 0.3951(4) 0.6477(17) 0.2405(7) 1. 0 0.0147(4) 
Al12 Al3+ 2 a 0.3996(3) 0.2024(17) 0.4014(7) 1. 0 0.0147(4) 
Al13 Al3+ 2 a 0.5069(4) 0.2940(16) 0.0357(7) 1. 0 0.0147(4) 
Al14 Al3+ 2 a 0.5163(4) 0.7202(19) 0.2028(7) 1. 0 0.0147(4) 
Al15 Al3+ 2 a 0.5248(4) 0.2934(18) 0.3761(7) 1. 0 0.0147(4) 
Al16 Al3+ 2 a 0.6331(4) 0.7944(18) 0.0628(6) 1. 0 0.0147(4) 
Al17 Al3+ 2 a 0.6448(4) 0.3167(18) 0.2337(6) 1. 0 0.0147(4) 
Al18 Al3+ 2 a 0.6469(4) 0.7045(16) 0.3953(6) 1. 0 0.0147(4) 
Al19 Al3+ 2 a 0.7591(4) 0.6748(16) 0.0356(7) 1. 0 0.0147(4) 
Al20 Al3+ 2 a 0.7669(3) 0.2008(19) 0.1995(7) 1. 0 0.0147(4) 
Al21 Al3+ 2 a 0.7755(4) 0.6979(19) 0.3743(6) 1. 0 0.0147(4) 
Al22 Al3+ 2 a 0.8830(4) 0.2937(19) 0.0621(7) 1. 0 0.0147(4) 
Al23 Al3+ 2 a 0.8962(3) 0.8195(19) 0.2335(8) 1. 0 0.0147(4) 
Al24 Al3+ 2 a 0.8987(3) 0.2091(17) 0.3957(6) 1. 0 0.0147(4) 
P1 P5+ 2 a 0.10500(19) 0.2108(19) 0.1010(6) 1. 0 0.0147(4) 
P2 P5+ 2 a 0.1094(4) 0.8176(19) 0.2625(8) 1. 0 0.0147(4) 
P3 P5+ 2 a 0.1222(4) 0.2839(19) 0.4369(7) 1. 0 0.0147(4) 
P4 P5+ 2 a 0.2292(4) 0.765(2) 0.1215(7) 1. 0 0.0147(4) 
P5 P5+ 2 a 0.2419(3) 0.1980(18) 0.2972(6) 1. 0 0.0147(4) 
P6 P5+ 2 a 0.2393(4) 0.6826(16) 0.4523(7) 1. 0 0.0147(4) 
P7 P5+ 2 a 0.3522(3) 0.6996(18) 0.1012(7) 1. 0 0.0147(4) 
P8 P5+ 2 a 0.3613(4) 0.1468(18) 0.2699(7) 1. 0 0.0147(4) 
P9 P5+ 2 a 0.3733(3) 0.7057(18) 0.4401(6) 1. 0 0.0147(4) 
P10 P5+ 2 a 0.4766(3) 0.2202(19) 0.1301(7) 1. 0 0.0147(4) 
P11 P5+ 2 a 0.4903(4) 0.7936(17) 0.3020(7) 1. 0 0.0147(4) 
P12 P5+ 2 a 0.4892(4) 0.2025(15) 0.4597(7) 1. 0 0.0147(4) 
P13 P5+ 2 a 0.6017(4) 0.2926(17) 0.0965(6) 1. 0 0.0147(4) 
P14 P5+ 2 a 0.6100(4) 0.8198(18) 0.2623(7) 1. 0 0.0147(4) 
P15 P5+ 2 a 0.6190(4) 0.2062(18) 0.4340(6) 1. 0 0.0147(4) 
P16 P5+ 2 a 0.7270(3) 0.701(2) 0.1261(7) 1. 0 0.0147(4) 
P17 P5+ 2 a 0.7411(4) 0.1977(18) 0.2996(6) 1. 0 0.0147(4) 
P18 P5+ 2 a 0.7398(4) 0.8242(16) 0.4585(7) 1. 0 0.0147(4) 
P19 P5+ 2 a 0.8530(4) 0.7948(17) 0.0964(8) 1. 0 0.0147(4) 
P20 P5+ 2 a 0.8611(3) 0.3194(19) 0.2615(7) 1. 0 0.0147(4) 
P21 P5+ 2 a 0.8704(4) 0.7087(18) 0.4342(6) 1. 0 0.0147(4) 
P22 P5+ 2 a 0.9763(3) 0.194(2) 0.1263(4) 1. 0 0.0147(4) 
P23 P5+ 2 a 0.9924(3) 0.6944(19) 0.3011(4) 1. 0 0.0147(4) 
P24 P5+ 2 a 0.9921(2) 0.3159(16) 0.4607(3) 1. 0 0.0147(4) 
O1 O2- 2 a 0.0022(3) -.1397(18) 0.0127(4) 1. 0 0.0147(4) 
O2 O2- 2 a -.0039(4) 0.3953(18) -.02030(19) 1. 0 0.0147(4) 
O3 O2- 2 a -.0188(3) 0.2464(19) 0.0728(5) 1. 0 0.0147(4) 
O4 O2- 2 a -.0148(5) -.096(2) 0.1439(5) 1. 0 0.0147(4) 
O5 O2- 2 a 0.0052(4) 0.368(2) 0.1760(5) 1. 0 0.0147(4) 
O6 O2- 2 a 0.0093(5) 0.743(2) 0.2593(6) 1. 0 0.0147(4) 
O7 O2- 2 a 0.0142(5) -.131(2) 0.3543(5) 1. 0 0.0147(4) 
O8 O2- 2 a -.0021(4) 0.405(2) 0.3199(5) 1. 0 0.0147(4) 
O9 O2- 2 a 0.0209(4) 0.260(2) 0.4359(5) 1. 0 0.0147(4) 
O10 O2- 2 a 0.06060(11) 0.234(3) 0.0860(4) 1. 0 0.0147(4) 
O11 O2- 2 a 0.0663(4) 0.757(3) 0.2170(7) 1. 0 0.0147(4) 
O12 O2- 2 a 0.0780(4) 0.242(3) 0.3936(7) 1. 0 0.0147(4) 
O13 O2- 2 a 0.1138(5) -.073(2) 0.0908(9) 1. 0 0.0147(4) 
O14 O2- 2 a 0.1142(5) 0.391(2) 0.0619(7) 1. 0 0.0147(4) 
O15 O2- 2 a 0.1311(3) 0.287(3) 0.1637(6) 1. 0 0.0147(4) 
O16 O2- 2 a 0.1185(5) 0.108(2) 0.257(1) 1. 0 0.0147(4) 
O17 O2- 2 a 0.1385(4) 0.643(2) 0.2520(11) 1. 0 0.0147(4) 
O18 O2- 2 a 0.1138(4) 0.767(2) 0.3225(7) 1. 0 0.0147(4) 
O19 O2- 2 a 0.1482(4) 0.108(2) 0.4201(8) 1. 0 0.0147(4) 
O20 O2- 2 a 0.1335(5) 0.572(2) 0.4344(8) 1. 0 0.0147(4) 
O21 O2- 2 a 0.1289(6) 0.2135(17) 0.4971(7) 1. 0 0.0147(4) 
O22 O2- 2 a 0.1874(4) 0.683(3) 0.1125(7) 1. 0 0.0147(4) 
O23 O2- 2 a 0.1970(3) 0.245(3) 0.2760(5) 1. 0 0.0147(4) 
O24 O2- 2 a 0.1956(4) 0.707(2) 0.4056(7) 1. 0 0.0147(4) 
O25 O2- 2 a 0.2476(5) 0.6042(19) -.0274(7) 1. 0 0.0147(4) 
O26 O2- 2 a 0.2460(5) 0.1403(19) 0.0029(7) 1. 0 0.0147(4) 
O27 O2- 2 a 0.2307(4) 0.7340(17) 0.0647(8) 1. 0 0.0147(4) 
O28 O2- 2 a 0.2610(4) 0.588(3) 0.1673(8) 1. 0 0.0147(4) 
O29 O2- 2 a 0.2374(4) 0.052(2) 0.1415(8) 1. 0 0.0147(4) 
O30 O2- 2 a 0.2530(7) 0.266(2) 0.2499(9) 1. 0 0.0147(4) 
O31 O2- 2 a 0.2661(3) 0.3708(19) 0.3499(7) 1. 0 0.0147(4) 
O32 O2- 2 a 0.2511(4) 0.9070(19) 0.3139(7) 1. 0 0.0147(4) 
O33 O2- 2 a 0.2674(4) 0.7649(18) 0.4277(9) 1. 0 0.0147(4) 
O34 O2- 2 a 0.3093(4) 0.805(2) 0.0776(8) 1. 0 0.0147(4) 
O35 O2- 2 a 0.3177(4) 0.181(3) 0.2240(7) 1. 0 0.0147(4) 
O36 O2- 2 a 0.3296(3) 0.747(3) 0.3947(6) 1. 0 0.0147(4) 
O37 O2- 2 a 0.3514(4) 0.424(3) 0.0770(8) 1. 0 0.0147(4) 
O38 O2- 2 a 0.3766(4) 0.886(2) 0.0839(9) 1. 0 0.0147(4) 
O39 O2- 2 a 0.3713(5) 0.689(2) 0.1665(7) 1. 0 0.0147(4) 
O40 O2- 2 a 0.3890(5) 0.322(2) 0.2564(9) 1. 0 0.0147(4) 
O41 O2- 2 a 0.3738(5) 0.858(2) 0.2713(9) 1. 0 0.0147(4) 
O42 O2- 2 a 0.3655(4) 0.223(2) 0.3287(7) 1. 0 0.0147(4) 
O43 O2- 2 a 0.3850(4) 0.417(2) 0.4400(7) 1. 0 0.0147(4) 
O44 O2- 2 a 0.4005(3) 0.881(2) 0.4257(7) 1. 0 0.0147(4) 
O45 O2- 2 a 0.3778(6) 0.7768(19) 0.4990(6) 1. 0 0.0147(4) 
O46 O2- 2 a 0.4338(4) 0.302(3) 0.1164(6) 1. 0 0.0147(4) 
O47 O2- 2 a 0.4460(4) 0.718(2) 0.2681(7) 1. 0 0.0147(4) 
O48 O2- 2 a 0.4477(4) 0.2868(18) 0.4125(8) 1. 0 0.0147(4) 
O49 O2- 2 a 0.4868(5) 0.0836(18) -.0234(7) 1. 0 0.0147(4) 
O50 O2- 2 a 0.5016(5) 0.6198(18) 0.0121(7) 1. 0 0.0147(4) 
O51 O2- 2 a 0.4817(5) 0.251(2) 0.0763(9) 1. 0 0.0147(4) 
O52 O2- 2 a 0.4831(4) -.068(2) 0.1497(8) 1. 0 0.0147(4) 
O53 O2- 2 a 0.5066(4) 0.395(2) 0.1784(8) 1. 0 0.0147(4) 
O54 O2- 2 a 0.5111(5) 0.754(2) 0.2647(9) 1. 0 0.0147(4) 
O55 O2- 2 a 0.4940(4) 0.0829(19) 0.3205(8) 1. 0 0.0147(4) 
O56 O2- 2 a 0.5106(5) 0.6194(19) 0.3555(7) 1. 0 0.0147(4) 
O57 O2- 2 a 0.5200(4) 0.2233(18) 0.4373(8) 1. 0 0.0147(4) 
O58 O2- 2 a 0.5577(4) 0.223(2) 0.0779(8) 1. 0 0.0147(4) 
O59 O2- 2 a 0.5655(4) 0.799(3) 0.2184(6) 1. 0 0.0147(4) 
O60 O2- 2 a 0.5747(4) 0.248(3) 0.3910(7) 1. 0 0.0147(4) 
O61 O2- 2 a 0.6175(4) 0.117(2) 0.0640(7) 1. 0 0.0147(4) 
O62 O2- 2 a 0.6048(4) 0.5808(19) 0.0816(8) 1. 0 0.0147(4) 
O63 O2- 2 a 0.6263(6) 0.248(2) 0.1611(6) 1. 0 0.0147(4) 
O64 O2- 2 a 0.6232(5) 0.107(2) 0.2641(9) 1. 0 0.0147(4) 
O65 O2- 2 a 0.6344(4) 0.643(2) 0.2429(8) 1. 0 0.0147(4) 
O66 O2- 2 a 0.6163(5) 0.736(2) 0.3216(6) 1. 0 0.0147(4) 
O67 O2- 2 a 0.6304(4) -.0823(19) 0.4319(7) 1. 0 0.0147(4) 
O68 O2- 2 a 0.6448(4) 0.3815(19) 0.4166(8) 1. 0 0.0147(4) 
O69 O2- 2 a 0.6263(6) 0.2791(16) 0.4944(6) 1. 0 0.0147(4) 
O70 O2- 2 a 0.6837(4) 0.766(3) 0.1127(7) 1. 0 0.0147(4) 
O71 O2- 2 a 0.6967(4) 0.271(3) 0.2686(7) 1. 0 0.0147(4) 
O72 O2- 2 a 0.6964(4) 0.779(2) 0.4122(8) 1. 0 0.0147(4) 
O73 O2- 2 a 0.7493(5) 0.3509(18) 0.0105(7) 1. 0 0.0147(4) 
O74 O2- 2 a 0.7447(5) 0.8865(18) -.0227(7) 1. 0 0.0147(4) 
O75 O2- 2 a 0.7320(5) 0.7477(19) 0.0724(8) 1. 0 0.0147(4) 
O76 O2- 2 a 0.7357(4) 0.412(2) 0.1445(8) 1. 0 0.0147(4) 
O77 O2- 2 a 0.7562(4) 0.876(2) 0.1753(7) 1. 0 0.0147(4) 
O78 O2- 2 a 0.7594(6) 0.242(2) 0.2594(9) 1. 0 0.0147(4) 
O79 O2- 2 a 0.7625(5) 0.371(2) 0.3530(7) 1. 0 0.0147(4) 
O80 O2- 2 a 0.7455(5) 0.908(2) 0.3181(7) 1. 0 0.0147(4) 
O81 O2- 2 a 0.7686(4) 0.762(2) 0.4341(8) 1. 0 0.0147(4) 
O82 O2- 2 a 0.8102(4) 0.712(2) 0.0820(8) 1. 0 0.0147(4) 
O83 O2- 2 a 0.8169(3) 0.270(3) 0.2184(5) 1. 0 0.0147(4) 
O84 O2- 2 a 0.8258(4) 0.746(3) 0.3920(7) 1. 0 0.0147(4) 
O85 O2- 2 a 0.8682(5) 0.619(2) 0.0633(9) 1. 0 0.0147(4) 
O86 O2- 2 a 0.8531(4) 0.082(2) 0.0783(9) 1. 0 0.0147(4) 
O87 O2- 2 a 0.8802(5) 0.765(2) 0.1609(8) 1. 0 0.0147(4) 
O88 O2- 2 a 0.8708(5) 0.611(2) 0.2584(11) 1. 0 0.0147(4) 
O89 O2- 2 a 0.8873(4) 0.147(2) 0.2445(10) 1. 0 0.0147(4) 
O90 O2- 2 a 0.8687(4) 0.250(2) 0.3221(6) 1. 0 0.0147(4) 
O91 O2- 2 a 0.8826(5) 0.4217(19) 0.4329(8) 1. 0 0.0147(4) 
O92 O2- 2 a 0.8951(4) 0.8853(19) 0.4153(9) 1. 0 0.0147(4) 
O93 O2- 2 a 0.8780(6) 0.7819(16) 0.4947(6) 1. 0 0.0147(4) 
O94 O2- 2 a 0.9331(4) 0.257(3) 0.1136(6) 1. 0 0.0147(4) 
O95 O2- 2 a 0.9476(3) 0.759(3) 0.2720(8) 1. 0 0.0147(4) 
O96 O2- 2 a 0.9488(3) 0.271(2) 0.4141(4) 1. 0 0.0147(4) 

#End of data_280308-ICSD


