data_39405-ICSD
#?2014 by Fachinformationszentrum Karlsruhe, and the U.S. Secretary of 
#Commerce on behalf of the United States.  All rights reserved.
_database_code_ICSD                39405
_audit_creation_date               1992/01/20
_chemical_name_systematic
;
Dipotassium Dimanganese Difluoride Diphosphate
;
_chemical_formula_structural       'K2 Mn2 (P2 O7) F2'
_chemical_formula_sum              'F2 K2 Mn2 O7 P2'
_publ_section_title
;
Crystal structure of K2Mn2(P2O7)F2.Crystal chemistry of 
diorthophosphates of Fe and Mn.
;
loop_
_citation_id
_citation_journal_abbrev
_citation_year
_citation_journal_volume
_citation_page_first
_citation_page_last
_citation_journal_id_ASTM
primary Kristallografiya 1991 36 334 341 KRISAJ
2 'Soviet Physics, Crystallography (= Kristallografiya)'
 1991 36 174 178 SPHCA6
_publ_author_name
;
Yakubovich, O.V.;Mel'nikov, O.K.
;
_cell_length_a                     11.318(7)
_cell_length_b                     6.899(3)
_cell_length_c                     10.645(10)
_cell_angle_alpha                  90.
_cell_angle_beta                   90.
_cell_angle_gamma                  90.
_cell_volume                       831.19
_cell_formula_units_Z              4
_symmetry_space_group_name_H-M     'P c a n'
_symmetry_Int_Tables_number        60
_refine_ls_R_factor_all            .034
loop_
_symmetry_equiv_pos_site_id
_symmetry_equiv_pos_as_xyz
  1	'-x, y, z+.5'
  2	'x+.5, -y+.5, z'
  3	'x+.5, y+.5, -z+.5'
  4	'-x, -y, -z'
  5	'x, -y, -z+.5'
  6	'-x+.5, y+.5, -z'
  7	'-x+.5, -y+.5, z+.5'
  8	'x, y, z'
loop_
_atom_type_symbol
_atom_type_oxidation_number
F1-	-1
K1+	1
Mn2+	2
O2-	-2
P5+	5
loop_
_atom_site_label
_atom_site_type_symbol
_atom_site_symmetry_multiplicity
_atom_site_Wyckoff_symbol
_atom_site_fract_x
_atom_site_fract_y
_atom_site_fract_z
_atom_site_occupancy
_atom_site_attached_hydrogens
_atom_site_B_iso_or_equiv
Mn1 Mn2+ 4 c 0.16542(7) 0 0.25 1. 0 0.68(2) 
Mn2 Mn2+ 4 a 0 0 0 1. 0 0.76(2) 
P1 P5+ 8 d 0.42138(9) 0.2154(1) 0.2488(2) 1. 0 0.70(2) 
K1 K1+ 8 d 0.17196(9) 0.4988(2) 0.06429(9) 1. 0 1.61(2) 
O1 O2- 4 c 0.4773(4) 0 0.25 1. 0 2.8(1) 
O2 O2- 8 d 0.0139(3) 0.1767(5) 0.3272(3) 1. 0 0.94(7) 
O3 O2- 8 d 0.4161(4) 0.2766(7) 0.1142(3) 1. 0 2.7(1) 
O4 O2- 8 d 0.3018(3) 0.2031(5) 0.3094(3) 1. 0 1.26(7) 
F1 F1- 8 d 0.1563(2) 0.1157(4) 0.0707(2) 1. 0 1.19(6) 

#End of data_39405-ICSD


