data_262968-ICSD
#?2014 by Fachinformationszentrum Karlsruhe, and the U.S. Secretary of 
#Commerce on behalf of the United States.  All rights reserved.
_database_code_ICSD                262968
_audit_creation_date               2013/02/01
_chemical_name_systematic          'Potassium Aluminium Dioxide'
_chemical_formula_structural       'K Al O2'
_chemical_formula_sum              'Al1 K1 O2'
_publ_section_title
;
The natural tiling approach to cation conductivity in K Al O2 
polymorphs
;
loop_
_citation_id
_citation_journal_abbrev
_citation_year
_citation_journal_volume
_citation_journal_issue
_citation_page_first
_citation_page_last
_citation_journal_id_ASTM
primary 'Acta Crystallographica, Section B: Structural Science'
 2012 68 4 356 363 ASBSDK
_publ_author_name
;
Voronin, V.I.;Shekhtman, G.Sh.;Blatov, V.A.
;
_cell_length_a                     5.4457(3)
_cell_length_b                     10.9401(7)
_cell_length_c                     15.4698(9)
_cell_angle_alpha                  90.00000
_cell_angle_beta                   90.00000
_cell_angle_gamma                  90.00000
_cell_volume                       921.64
_cell_formula_units_Z              16
_symmetry_space_group_name_H-M     'P b c a'
_symmetry_Int_Tables_number        61
_refine_ls_R_factor_all            .044
loop_
_symmetry_equiv_pos_site_id
_symmetry_equiv_pos_as_xyz
  1	'x+.5, y, -z+.5'
  2	'x, -y+.5, z+.5'
  3	'-x+.5, y+.5, z'
  4	'-x, -y, -z'
  5	'-x+.5, -y, z+.5'
  6	'-x, y+.5, -z+.5'
  7	'x+.5, -y+.5, -z'
  8	'x, y, z'
loop_
_atom_type_symbol
_atom_type_oxidation_number
Al3+	3
K1+	1
O2-	-2
loop_
_atom_site_label
_atom_site_type_symbol
_atom_site_symmetry_multiplicity
_atom_site_Wyckoff_symbol
_atom_site_fract_x
_atom_site_fract_y
_atom_site_fract_z
_atom_site_occupancy
_atom_site_attached_hydrogens
_atom_site_U_iso_or_equiv
Al1 Al3+ 8 c 0.2579(18) 0.0116(9) 0.1864(11) 1.00000 0 0.0069(10) 
Al2 Al3+ 8 c 0.2791(14) 0.2596(9) 0.0661(9) 1.00000 0 0.0069(10) 
K1 K1+ 8 c 0.752(2) 0.0065(10) 0.0625(12) 1.00000 0 0.024(9) 
K2 K1+ 8 c 0.7901(18) 0.2596(9) 0.1875(10) 1.00000 0 0.021(7) 
O1 O2- 8 c 0.5651(13) 0.2827(7) 0.0165(4) 1.00000 0 0.021(4) 
O2 O2- 8 c 0.1799(14) 0.4013(6) 0.1066(3) 1.00000 0 0.011(3) 
O3 O2- 8 c 0.2965(12) 0.1549(7) 0.1477(4) 1.00000 0 0.020(3) 
O4 O2- 8 c 0.0527(14) 0.4851(6) 0.2775(5) 1.00000 0 0.014(4) 

loop_
_atom_site_aniso_label
_atom_site_aniso_type_symbol
_atom_site_aniso_U_11
_atom_site_aniso_U_22
_atom_site_aniso_U_33
_atom_site_aniso_U_12
_atom_site_aniso_U_13
_atom_site_aniso_U_23
K1 K1+ 0.027(9) 0.010(8) 0.034(12) 0.00000 0.018(8) 0.00000
K2 K1+ 0.023(6) 0.025(7) 0.016(9) 0.00000 0.006(5) 0.00000
O1 O2- 0.013(3) 0.028(4) 0.020(4) 0.00000 0.008(3) 0.00000
O2 O2- 0.020(4) 0.008(3) 0.006(3) 0.00000 -0.005(2) 0.00000
O3 O2- 0.0081(11) 0.033(4) 0.021(5) 0.00000 -0.003(3) 0.00000
O4 O2- 0.007(3) 0.022(5) 0.015(4) 0.00000 -0.002(3) 0.00000
#End of data_262968-ICSD


