data_14114-ICSD
#?2014 by Fachinformationszentrum Karlsruhe, and the U.S. Secretary of 
#Commerce on behalf of the United States.  All rights reserved.
_database_code_ICSD                14114
_audit_creation_date               1986/10/02
_chemical_name_systematic          'Potassium Pentafluoroberyllate'
_chemical_formula_structural       'K3 Be F5'
_chemical_formula_sum              'Be1 F5 K3'
_publ_section_title
;
Diagramme d'equilibre du systeme Tl F - Be F2. Structure des Composes 
M3 Be F5
;
loop_
_citation_id
_citation_journal_abbrev
_citation_year
_citation_journal_volume
_citation_page_first
_citation_page_last
_citation_journal_id_ASTM
primary 'Materials Research Bulletin' 1971 6 525 536 MRBUAC
_publ_author_name                  'Boucherle, G.;Aleonard, S.'
_cell_length_a                     7.1785(5)
_cell_length_b                     7.1785(5)
_cell_length_c                     10.742(6)
_cell_angle_alpha                  90.
_cell_angle_beta                   90.
_cell_angle_gamma                  90.
_cell_volume                       553.54
_cell_formula_units_Z              4
_symmetry_space_group_name_H-M     'P 4/n c c S'
_symmetry_Int_Tables_number        130
_refine_ls_R_factor_all            .118
loop_
_symmetry_equiv_pos_site_id
_symmetry_equiv_pos_as_xyz
  1	'y+.5, x+.5, z+.5'
  2	'y+.5, -x+.5, z'
  3	'-y, -x, -z+.5'
  4	'y, -x, -z'
  5	'-y+.5, -x+.5, z+.5'
  6	'-y+.5, x+.5, z'
  7	'y, x, -z+.5'
  8	'-y, x, -z'
  9	'x+.5, -y+.5, -z+.5'
 10	'-x+.5, -y+.5, -z'
 11	'x, -y, z+.5'
 12	'-x, -y, z'
 13	'-x+.5, y+.5, -z+.5'
 14	'x+.5, y+.5, -z'
 15	'-x, y, z+.5'
 16	'x, y, z'
loop_
_atom_type_symbol
_atom_type_oxidation_number
Be2+	2
F1-	-1
K1+	1
loop_
_atom_site_label
_atom_site_type_symbol
_atom_site_symmetry_multiplicity
_atom_site_Wyckoff_symbol
_atom_site_fract_x
_atom_site_fract_y
_atom_site_fract_z
_atom_site_occupancy
_atom_site_attached_hydrogens
_atom_site_B_iso_or_equiv
Be1 Be2+ 4 b 0 0 0 1. 0 1.9 
K1 K1+ 4 c 0 0.5 0.0002 1. 0 1.9 
F1 F1- 4 c 0 0.5 0.263 1. 0 1.9 
K2 K1+ 8 f 0.187 0.187 0.25 1. 0 1.9 
F2 F1- 16 g 0.124 -.117 0.078 1. 0 1.9 

#End of data_14114-ICSD


