data_90119-ICSD
#?2014 by Fachinformationszentrum Karlsruhe, and the U.S. Secretary of 
#Commerce on behalf of the United States.  All rights reserved.
_database_code_ICSD                90119
_audit_creation_date               2002/04/01
_chemical_name_systematic
;
Dipotassium Tetraselenodiargentostannate
;
_chemical_formula_structural       'K2 (Ag2 Sn Se4)'
_chemical_formula_sum              'Ag2 K2 Se4 Sn1'
_publ_section_title
;
From 1D chain to 3D network: syntheses, structures, and 1D properties 
of K2 Mn Sn2 Se6, K2 Mn Sn Se4, and K2 Ag2 Sn Se4
;
loop_
_citation_id
_citation_journal_abbrev
_citation_year
_citation_journal_volume
_citation_page_first
_citation_page_last
_citation_journal_id_ASTM
primary 'Chemistry of Materials' 2000 12 2385 2391 CMATEX
_publ_author_name
;
Chen, X.;Huang, X.-Y.;Fu, A.-H.;Li, J.;Zhang, L.-D.;Guo, H.-Y.
;
_cell_length_a                     7.575(2)
_cell_length_b                     5.920(1)
_cell_length_c                     12.148(2)
_cell_angle_alpha                  90.
_cell_angle_beta                   113.56(3)
_cell_angle_gamma                  90.
_cell_volume                       499.35
_cell_formula_units_Z              2
_symmetry_space_group_name_H-M     'P 1 2/c 1'
_symmetry_Int_Tables_number        13
_refine_ls_R_factor_all            .06
loop_
_symmetry_equiv_pos_site_id
_symmetry_equiv_pos_as_xyz
  1	'x, -y, z+.5'
  2	'-x, -y, -z'
  3	'-x, y, -z+.5'
  4	'x, y, z'
loop_
_atom_type_symbol
_atom_type_oxidation_number
Ag1+	1
K1+	1
Se2-	-2
Sn4+	4
loop_
_atom_site_label
_atom_site_type_symbol
_atom_site_symmetry_multiplicity
_atom_site_Wyckoff_symbol
_atom_site_fract_x
_atom_site_fract_y
_atom_site_fract_z
_atom_site_occupancy
_atom_site_attached_hydrogens
_atom_site_U_iso_or_equiv
Ag1 Ag1+ 4 g 0.4991(2) 0.2499(2) 0.5331(1) 1. 0 0.038(1) 
Sn1 Sn4+ 2 f 0.5 0.2491(2) 0.25 1. 0 0.019(1) 
Se1 Se2- 4 g 0.2672(2) 0.0306(2) 0.3104(1) 1. 0 0.024(1) 
Se2 Se2- 4 g 0.2667(2) 0.4701(2) 0.0746(1) 1. 0 0.023(1) 
K1 K1+ 2 e 0 0.5228(8) 0.25 1. 0 0.035(1) 
K2 K1+ 2 a 0 0 0 1. 0 0.037(1) 

#End of data_90119-ICSD


