data_391165-ICSD
#?2014 by Fachinformationszentrum Karlsruhe, and the U.S. Secretary of 
#Commerce on behalf of the United States.  All rights reserved.
_database_code_ICSD                391165
_audit_creation_date               2003/10/01
_chemical_name_systematic
;
Bis(trichlorophosphaniminatodichloroaluminium)
;
_chemical_formula_structural       '(Cl2 Al N P Cl3)2'
_chemical_formula_sum              'Al2 Cl10 N2 P2'
_publ_section_title
;
Synthese, Kristallstruktur und spektroskopische Charakterisierung des 
Phosphaniminato-Komplexes (Cl2 Al N P Cl3)2 und des Phosphanimin-
Komplexes (Me3 Si N P Cl3) * (Al Cl3)
;
loop_
_citation_id
_citation_journal_abbrev
_citation_year
_citation_journal_volume
_citation_page_first
_citation_page_last
_citation_journal_id_ASTM
primary 'Zeitschrift fuer Naturforschung, B: Chemical Sciences'
 2002 57 1237 1243 ZNBSEN
_publ_author_name                  'Jaeschke, B.;Jansen, M.'
_cell_length_a                     7.191(2)
_cell_length_b                     8.435(2)
_cell_length_c                     8.574(2)
_cell_angle_alpha                  64.23(1)
_cell_angle_beta                   76.62(1)
_cell_angle_gamma                  68.21(1)
_cell_volume                       433.35
_cell_formula_units_Z              1
_symmetry_space_group_name_H-M     'P -1'
_symmetry_Int_Tables_number        2
_refine_ls_R_factor_all            .0498
loop_
_symmetry_equiv_pos_site_id
_symmetry_equiv_pos_as_xyz
  1	'-x, -y, -z'
  2	'x, y, z'
loop_
_atom_type_symbol
_atom_type_oxidation_number
Al3+	3
Cl1-	-1
N3-	-3
P5+	5
loop_
_atom_site_label
_atom_site_type_symbol
_atom_site_symmetry_multiplicity
_atom_site_Wyckoff_symbol
_atom_site_fract_x
_atom_site_fract_y
_atom_site_fract_z
_atom_site_occupancy
_atom_site_attached_hydrogens
_atom_site_U_iso_or_equiv
P1 P5+ 2 i 0.71380(15) 0.78868(13) 0.27510(13) 1. 0 0.0475(3) 
Al1 Al3+ 2 i 1.08353(16) 0.43273(14) 0.37173(13) 1. 0 0.0405(3) 
Cl1 Cl1- 2 i 0.99608(19) 0.23671(16) 0.34320(16) 1. 0 0.0692(4) 
Cl2 Cl1- 2 i 1.31180(19) 0.50943(19) 0.18347(16) 1. 0 0.0759(4) 
Cl3 Cl1- 2 i 0.4342(2) 0.8192(3) 0.3724(2) 1. 0 0.1081(6) 
Cl4 Cl1- 2 i 0.7353(4) 1.03463(19) 0.2029(3) 1. 0 0.1259(8) 
Cl5 Cl1- 2 i 0.7263(2) 0.7554(2) 0.06139(18) 1. 0 0.0971(6) 
N1 N3- 2 i 0.8672(4) 0.6315(4) 0.3997(4) 1. 0 0.0434(7) 

loop_
_atom_site_aniso_label
_atom_site_aniso_type_symbol
_atom_site_aniso_U_11
_atom_site_aniso_U_22
_atom_site_aniso_U_33
_atom_site_aniso_U_12
_atom_site_aniso_U_13
_atom_site_aniso_U_23
P1 P5+ 0.0480(5) 0.0434(5) 0.0448(5) -0.0006(4) -0.0120(4) -0.0189(4)
Al1 Al3+ 0.0429(6) 0.0402(5) 0.0352(5) -0.0062(4) -0.0001(4) -0.0188(4)
Cl1 Cl1- 0.0871(8) 0.0639(7) 0.0733(8) -0.0291(6) 0.0005(6) -0.0402(6)
Cl2 Cl1- 0.0708(7) 0.0932(9) 0.0627(7) -0.0353(7) 0.0232(5) -0.0351(6)
Cl3 Cl1- 0.0483(7) 0.1403(15) 0.0985(11) 0.0081(8) -0.0072(6) -0.0437(10)
Cl4 Cl1- 0.1775(19) 0.0483(7) 0.1477(17) -0.0319(9) -0.0900(15) 0.0011(8)
Cl5 Cl1- 0.1090(11) 0.1055(10) 0.0612(7) 0.0197(8) -0.0390(7) -0.0466(7)
N1 N3- 0.0446(15) 0.0440(15) 0.0351(14) -0.0020(12) -0.0070(12) -0.0175(12)
#End of data_391165-ICSD


