data_91755-ICSD
#?2014 by Fachinformationszentrum Karlsruhe, and the U.S. Secretary of 
#Commerce on behalf of the United States.  All rights reserved.
_database_code_ICSD                91755
_audit_creation_date               2002/10/01
_chemical_name_systematic
;
Potassium Indium Heptathiodiphosphate(V)
;
_chemical_formula_structural       'K In (P2 S7)'
_chemical_formula_sum              'In1 K1 P2 S7'
_publ_section_title
;
Synthesis and crystal structure determination of three layered-
typethiophosphate compounds K M P2 S7 (M = Cr, V, In)
;
loop_
_citation_id
_citation_journal_abbrev
_citation_year
_citation_journal_volume
_citation_page_first
_citation_page_last
_citation_journal_id_ASTM
primary 'Materials Research Bulletin' 2000 35 1401 1410 MRBUAC
_publ_author_name
;
Kopnin, E.;Coste, S.;Jobic, S.;Evain, M.;Brec, R.
;
_cell_length_a                     8.7506(9)
_cell_length_b                     9.9685(9)
_cell_length_c                     6.3151(8)
_cell_angle_alpha                  90.
_cell_angle_beta                   98.906(13)
_cell_angle_gamma                  90.
_cell_volume                       544.23
_cell_formula_units_Z              2
_symmetry_space_group_name_H-M     'C 1 2 1'
_symmetry_Int_Tables_number        5
_refine_ls_R_factor_all            .032
loop_
_symmetry_equiv_pos_site_id
_symmetry_equiv_pos_as_xyz
  1	'-x, y, -z'
  2	'x, y, z'
  3	'-x+.5, y+.5, -z'
  4	'x+.5, y+.5, z'
loop_
_atom_type_symbol
_atom_type_oxidation_number
In3+	3
K1+	1
P5+	5
S2-	-2
loop_
_atom_site_label
_atom_site_type_symbol
_atom_site_symmetry_multiplicity
_atom_site_Wyckoff_symbol
_atom_site_fract_x
_atom_site_fract_y
_atom_site_fract_z
_atom_site_occupancy
_atom_site_attached_hydrogens
K1 K1+ 2 b 0 0.916(1) 0.5 1. 0 
In1 In3+ 2 a 0.5 0 0 1. 0 
P1 P5+ 4 c 0.3011(2) 0.6616(2) 0.9132(3) 1. 0 
S1 S2- 4 c 0.1682(2) 0.5401(2) 0.7040(3) 1. 0 
S2 S2- 4 c 0.2021(2) 0.6884(2) 0.1760(4) 1. 0 
S3 S2- 4 c 0.3533(2) 0.8239(2) 0.7462(3) 1. 0 
S4 S2- 2 a 0.5 0.5375(2) 0 1. 0 

loop_
_atom_site_aniso_label
_atom_site_aniso_type_symbol
_atom_site_aniso_U_11
_atom_site_aniso_U_22
_atom_site_aniso_U_33
_atom_site_aniso_U_12
_atom_site_aniso_U_13
_atom_site_aniso_U_23
K1 K1+ 0.040(2) 0.170(5) 0.043(2) 0 0.004(2) 0
In1 In3+ 0.0123(9) 0.0139(9) 0.026(1) 0 0.0074(8) 0
P1 P5+ 0.0116(9) 0.014(1) 0.020(1) -.0039(8) 0.0002(9) 0.0006(8)
S1 S2- 0.018(1) 0.025(1) 0.021(1) -.0100(8) 0.003(1) -.0051(7)
S2 S2- 0.032(1) 0.027(1) 0.026(1) -.008(1) 0.013(1) -.0097(9)
S3 S2- 0.027(1) 0.020(1) 0.022(1) -.0097(9) -.002(1) 0.0061(8)
S4 S2- 0.016(1) 0.017(1) 0.040(2) 0 -.005(1) 0
#End of data_91755-ICSD


