data_248203-ICSD
#?2014 by Fachinformationszentrum Karlsruhe, and the U.S. Secretary of 
#Commerce on behalf of the United States.  All rights reserved.
_database_code_ICSD                248203
_audit_creation_date               2011/02/01
_audit_update_record               2014/08/01
_chemical_name_systematic
;
Potassium Diberyllium Phyllo-heptaoxotriborate - Beta
;
_chemical_formula_structural       'K Be2 B3 O7'
_chemical_formula_sum              'B3 Be2 K1 O7'
_publ_section_title
;
Alkaline beryllium borate Na Be B3 O6 and A Be2 B3 O7 (A = K, Rb) as 
UV nonlinear optical crystals
;
loop_
_citation_id
_citation_journal_abbrev
_citation_year
_citation_journal_volume
_citation_journal_issue
_citation_page_first
_citation_page_last
_citation_journal_id_ASTM
primary 'Journal of the American Chemical Society' 2010 132 25 8779 8786 JACSAT
_publ_author_name
;
Wang Shichao;Ye Ning;Li Wei;Zhao Dan
;
_cell_length_a                     7.639(6)
_cell_length_b                     17.464(13)
_cell_length_c                     4.376(3)
_cell_angle_alpha                  90
_cell_angle_beta                   90
_cell_angle_gamma                  90
_cell_volume                       583.79
_cell_formula_units_Z              4
_symmetry_space_group_name_H-M     'P m n 21'
_symmetry_Int_Tables_number        31
_refine_ls_R_factor_all            .0271
loop_
_symmetry_equiv_pos_site_id
_symmetry_equiv_pos_as_xyz
  1	'x+.5, -y, z+.5'
  2	'-x+.5, -y, z+.5'
  3	'-x, y, z'
  4	'x, y, z'
loop_
_atom_type_symbol
_atom_type_oxidation_number
B3+	3
Be2+	2
K1+	1
O2-	-2
loop_
_atom_site_label
_atom_site_type_symbol
_atom_site_symmetry_multiplicity
_atom_site_Wyckoff_symbol
_atom_site_fract_x
_atom_site_fract_y
_atom_site_fract_z
_atom_site_occupancy
_atom_site_attached_hydrogens
_atom_site_U_iso_or_equiv
K1 K1+ 2 a 0.5 0.63740(4) 0.60735(16) 1 0 0.02217(17) 
K2 K1+ 2 a 1 0.85304(4) 0.67704(16) 1 0 0.0270(2) 
Be1 Be2+ 4 b 0.8114(3) 0.54184(12) 1.1265(6) 1 0 0.0082(4) 
Be2 Be2+ 4 b 0.6760(3) 0.96271(13) 1.2717(6) 1 0 0.0091(4) 
B1 B3+ 2 a 1 0.51993(14) 1.6236(8) 1 0 0.0070(5) 
B2 B3+ 2 a 0.5 0.99094(16) 0.7656(7) 1 0 0.0070(5) 
B3 B3+ 4 b 0.8397(3) 0.68439(13) 1.0455(5) 1 0 0.0152(5) 
B4 B3+ 4 b 0.6653(3) 0.80692(12) 1.1722(7) 1 0 0.0205(5) 
O1 O2- 2 a 1 0.52718(10) 1.3114(4) 1 0 0.0092(4) 
O2 O2- 4 b 0.84267(14) 0.51336(7) 0.7755(3) 1 0 0.0086(3) 
O3 O2- 2 a 0.5 0.99116(10) 1.4518(4) 1 0 0.0099(4) 
O4 O2- 4 b 0.65529(15) 0.99270(8) 0.9196(3) 1 0 0.0110(3) 
O5 O2- 4 b 0.73767(16) 0.62808(6) 1.1379(4) 1 0 0.0133(3) 
O6 O2- 2 a 1 0.66921(10) 0.9056(5) 1 0 0.0162(4) 
O7 O2- 4 b 0.8026(2) 0.76114(8) 1.0715(6) 1 0 0.0457(7) 
O8 O2- 2 a 0.5 0.77556(11) 1.1303(8) 1 0 0.0311(5) 
O9 O2- 4 b 0.70627(18) 0.87378(7) 1.2860(4) 1 0 0.0198(3) 

loop_
_atom_site_aniso_label
_atom_site_aniso_type_symbol
_atom_site_aniso_U_11
_atom_site_aniso_U_22
_atom_site_aniso_U_33
_atom_site_aniso_U_12
_atom_site_aniso_U_13
_atom_site_aniso_U_23
K1 K1+ 0.0193(3) 0.0296(3) 0.0177(3) 0 0 0.0013(3)
K2 K1+ 0.0222(3) 0.0263(3) 0.0325(5) 0 0 0.0109(3)
Be1 Be2+ 0.0067(10) 0.0111(10) 0.0069(9) -0.0005(8) 0.0008(10) 0.0004(9)
Be2 Be2+ 0.0056(9) 0.0148(11) 0.0069(10) -0.0003(8) 0.0007(9) -0.0003(9)
B1 B3+ 0.0082(13) 0.0068(11) 0.0058(12) 0 0 -0.0012(11)
B2 B3+ 0.0076(13) 0.0074(12) 0.0059(13) 0 0 0.0011(10)
B3 B3+ 0.0102(9) 0.0120(9) 0.0234(13) 0.0024(8) -0.0020(8) -0.0017(8)
B4 B3+ 0.0144(10) 0.0117(9) 0.0352(14) 0.0022(8) 0.0035(11) 0.0016(10)
O1 O2- 0.0073(8) 0.0149(8) 0.0055(8) 0 0 0.0006(7)
O2 O2- 0.0060(6) 0.0138(6) 0.0062(6) -0.0020(5) 0.0001(5) -0.0014(5)
O3 O2- 0.0074(8) 0.0156(9) 0.0066(9) 0 0 0.0000(8)
O4 O2- 0.0062(6) 0.0218(7) 0.0051(6) -0.0015(5) 0.0000(5) 0.0014(5)
O5 O2- 0.0103(6) 0.0115(5) 0.0181(6) 0.0023(5) 0.0020(6) -0.0001(6)
O6 O2- 0.0095(9) 0.0158(9) 0.0235(10) 0 0 -0.0043(8)
O7 O2- 0.0198(9) 0.0114(7) 0.106(2) 0.0014(6) 0.0252(11) -0.0029(9)
O8 O2- 0.0144(10) 0.0147(9) 0.0642(16) 0 0 -0.0084(12)
O9 O2- 0.0136(7) 0.0146(6) 0.0312(8) 0.0014(6) -0.0021(7) 0.0008(6)
#End of data_248203-ICSD


