data_51202-ICSD
#?2014 by Fachinformationszentrum Karlsruhe, and the U.S. Secretary of 
#Commerce on behalf of the United States.  All rights reserved.
_database_code_ICSD                51202
_audit_creation_date               2002/04/01
_chemical_name_systematic          'Calcium Niobate'
_chemical_formula_structural       'Ca (Nb O3)'
_chemical_formula_sum              'Ca1 Nb1 O3'
_publ_section_title
;
Perovskite-type Ca(1-x) Sr(x) Nb O3 (0 <= x <= 1) phases: a 
synthesis, structure, and electron microscopy study
;
loop_
_citation_id
_citation_journal_abbrev
_citation_year
_citation_journal_volume
_citation_page_first
_citation_page_last
_citation_journal_id_ASTM
primary 'Journal of Solid State Chemistry' 1998 141 514 521 JSSCBI
_publ_author_name
;
Istomin, S.Ya.;Svensson, G.;D'yachenko, O.G.;Holm, W.;Antipov, E.V.
;
_cell_length_a                     5.6526(2)
_cell_length_b                     7.9140(2)
_cell_length_c                     5.5323(2)
_cell_angle_alpha                  90.
_cell_angle_beta                   90.
_cell_angle_gamma                  90.
_cell_volume                       247.49
_cell_formula_units_Z              4
_symmetry_space_group_name_H-M     'P n m a'
_symmetry_Int_Tables_number        62
_refine_ls_R_factor_all            .03
loop_
_symmetry_equiv_pos_site_id
_symmetry_equiv_pos_as_xyz
  1	'x+.5, y, -z+.5'
  2	'x, -y+.5, z'
  3	'-x+.5, y+.5, z+.5'
  4	'-x, -y, -z'
  5	'-x+.5, -y, z+.5'
  6	'-x, y+.5, -z'
  7	'x+.5, -y+.5, -z+.5'
  8	'x, y, z'
loop_
_atom_type_symbol
_atom_type_oxidation_number
Ca2+	2
Nb4+	4
O2-	-2
loop_
_atom_site_label
_atom_site_type_symbol
_atom_site_symmetry_multiplicity
_atom_site_Wyckoff_symbol
_atom_site_fract_x
_atom_site_fract_y
_atom_site_fract_z
_atom_site_occupancy
_atom_site_attached_hydrogens
_atom_site_B_iso_or_equiv
Ca1 Ca2+ 4 c 0.046(1) 0.25 0.009(2) 1. 0 1.3(2) 
Nb1 Nb4+ 4 b 0 0 0.5 1. 0 0.64(5) 
O1 O2- 4 c -.026(4) 0.25 0.582(4) 1. 0 0.1(3) 
O2 O2- 8 d 0.207(3) -.045(2) 0.801(2) 1. 0 0.1(3) 

#End of data_51202-ICSD


