data_94532-ICSD
#?2014 by Fachinformationszentrum Karlsruhe, and the U.S. Secretary of 
#Commerce on behalf of the United States.  All rights reserved.
_database_code_ICSD                94532
_audit_creation_date               2003/10/01
_chemical_name_systematic
;
Potassium Fluorosulfato(VI)stannate
;
_chemical_formula_structural       'K (Sn F (S O4))'
_chemical_formula_sum              'F1 K1 O4 S1 Sn1'
_publ_section_title
;
Tin(II) sulfato fluoro mixed complexes. The synthesis and structureof 
M (Sn F (S O4)) (M = N H4 and K)
;
loop_
_citation_id
_citation_journal_abbrev
_citation_year
_citation_journal_volume
_citation_journal_issue
_citation_page_first
_citation_page_last
_citation_journal_id_ASTM
primary 'Zhurnal Neorganicheskoi Khimii' 2001 46 2 266 270 ZNOKAQ
_publ_author_name
;
Kokunov, Yu.V.;Detkov, D.G.;Gorbunova, Yu.E.;Erahova, M.M.;Mikhailov, 
Yu.N.
;
_cell_length_a                     6.098(2)
_cell_length_b                     7.115(3)
_cell_length_c                     7.242(2)
_cell_angle_alpha                  107.77(3)
_cell_angle_beta                   101.93(2)
_cell_angle_gamma                  109.91(3)
_cell_volume                       263.86
_cell_formula_units_Z              2
_symmetry_space_group_name_H-M     'P -1'
_symmetry_Int_Tables_number        2
_refine_ls_R_factor_all            .028
loop_
_symmetry_equiv_pos_site_id
_symmetry_equiv_pos_as_xyz
  1	'-x, -y, -z'
  2	'x, y, z'
loop_
_atom_type_symbol
_atom_type_oxidation_number
F1-	-1
K1+	1
O2-	-2
S6+	6
Sn2+	2
loop_
_atom_site_label
_atom_site_type_symbol
_atom_site_symmetry_multiplicity
_atom_site_Wyckoff_symbol
_atom_site_fract_x
_atom_site_fract_y
_atom_site_fract_z
_atom_site_occupancy
_atom_site_attached_hydrogens
_atom_site_B_iso_or_equiv
Sn1 Sn2+ 2 i 0.1317(1) 0.0561(1) 0.2937(1) 1. 0 1.47(1) 
K1 K1+ 2 i 0.3090(2) 0.6612(2) 0.8677(2) 1. 0 1.90(4) 
S1 S6+ 2 i 0.3321(2) 0.6393(2) 0.3401(2) 1. 0 1.42(3) 
F1 F1- 2 i 0.2357(6) 0.0226(5) 0.0392(5) 1. 0 1.8(1) 
O1 O2- 2 i 0.1574(8) 0.7102(7) 0.2380(7) 1. 0 2.0(1) 
O2 O2- 2 i 0.5462(7) 0.2092(7) 0.4373(6) 1. 0 2.0(1) 
O3 O2- 2 i 0.1859(9) 0.4203(7) 0.3264(9) 1. 0 3.0(2) 
O4 O2- 2 i 0.5204(9) 0.6413(8) 0.2463(7) 1. 0 2.8(2) 

#End of data_94532-ICSD


