data_246766-ICSD
#?2014 by Fachinformationszentrum Karlsruhe, and the U.S. Secretary of 
#Commerce on behalf of the United States.  All rights reserved.
_database_code_ICSD                246766
_audit_creation_date               2010/02/01
_chemical_name_systematic
;
Lithium Dizinc Pentakis(tetrahydridoborate)
;
_chemical_formula_structural       'Li Zn2 (B H4)5'
_chemical_formula_sum              'H20 B5 Li1 Zn2'
_publ_section_title
;
A series of mixed-metal borohydrides
;
loop_
_citation_id
_citation_journal_abbrev
_citation_year
_citation_journal_volume
_citation_journal_issue
_citation_page_first
_citation_page_last
_citation_journal_id_ASTM
primary 'Angewandte Chemie. International Edition' 2009 48 36 6659 6663 ACIEF5
_publ_author_name
;
Ravnsbaek, D.;Filinchuk, Y.;Cerenius, Y.;Jakobsen, H.J.;Besenbacher, 
F.;Skibsted, J.;Jensen, T.R.
;
_cell_length_a                     8.6244(3)
_cell_length_b                     17.8970(8)
_cell_length_c                     15.4114(8)
_cell_angle_alpha                  90.
_cell_angle_beta                   90.
_cell_angle_gamma                  90.
_cell_volume                       2378.76
_cell_formula_units_Z              8
_symmetry_space_group_name_H-M     'C m c a'
_symmetry_Int_Tables_number        64
_refine_ls_R_factor_all            .0356
loop_
_symmetry_equiv_pos_site_id
_symmetry_equiv_pos_as_xyz
  1	'-x, -y+.5, z+.5'
  2	'-x, y+.5, -z+.5'
  3	'-x, y, z'
  4	'-x, -y, -z'
  5	'x, y+.5, -z+.5'
  6	'x, -y+.5, z+.5'
  7	'x, -y, -z'
  8	'x, y, z'
  9	'-x+.5, -y, z+.5'
 10	'-x+.5, y, -z+.5'
 11	'-x+.5, y+.5, z'
 12	'-x+.5, -y+.5, -z'
 13	'x+.5, y, -z+.5'
 14	'x+.5, -y, z+.5'
 15	'x+.5, -y+.5, -z'
 16	'x+.5, y+.5, z'
loop_
_atom_type_symbol
_atom_type_oxidation_number
B3+	3
H1-	-1
Li1+	1
Zn2+	2
loop_
_atom_site_label
_atom_site_type_symbol
_atom_site_symmetry_multiplicity
_atom_site_Wyckoff_symbol
_atom_site_fract_x
_atom_site_fract_y
_atom_site_fract_z
_atom_site_occupancy
_atom_site_attached_hydrogens
Li1 Li1+ 8 f 0 0.136(2) 0.4428(18) 1. 0 
Zn1 Zn2+ 8 f 0 0.64905(18) 0.7643(2) 1. 0 
Zn2 Zn2+ 8 f 0 0.42737(19) 0.6247(2) 1. 0 
B1 B3+ 8 f 0 0.2606(5) 0.3234(6) 1. 0 
B2 B3+ 8 f 0 0.3551(5) 0.0954(6) 1. 0 
B3 B3+ 8 f 0 0.5422(5) 0.6934(5) 1. 0 
B4 B3+ 16 g 0.2229(9) 0.3883(4) 0.5874(5) 1. 0 
H1 H1- 8 f 0 0.1991(4) 0.3357(11) 1. 0 
H2 H1- 8 f 0 0.2912(10) 0.3869(9) 1. 0 
H3 H1- 16 g 0.1058(11) 0.2765(10) 0.2855(10) 1. 0 
H4 H1- 8 f 0 0.3049(6) 0.1394(9) 1. 0 
H5 H1- 8 f 0 0.4070(7) 0.1363(13) 1. 0 
H6 H1- 16 g 0.1062(11) 0.3538(11) 0.0548(8) 1. 0 
H7 H1- 8 f 0 0.4940(9) 0.7394(11) 1. 0 
H8 H1- 8 f 0 0.5214(8) 0.6250(6) 1. 0 
H9 H1- 16 g 0.1059(11) 0.5774(8) 0.7038(12) 1. 0 
H10 H1- 16 g 0.1525(20) 0.4152(10) 0.5354(9) 1. 0 
H11 H1- 16 g 0.3085(18) 0.4287(9) 0.6148(12) 1. 0 
H12 H1- 16 g 0.1444(15) 0.3685(9) 0.6415(9) 1. 0 
H13 H1- 16 g 0.2831(19) 0.3375(6) 0.5617(10) 1. 0 

#End of data_246766-ICSD


