data_20656-ICSD
#?2014 by Fachinformationszentrum Karlsruhe, and the U.S. Secretary of 
#Commerce on behalf of the United States.  All rights reserved.
_database_code_ICSD                20656
_audit_creation_date               1980/01/01
_audit_update_record               1985/05/06
_chemical_name_systematic
;
Potassium Antimony Chloride Trifluoride
;
_chemical_formula_structural       'K Sb Cl F3'
_chemical_formula_sum              'Cl1 F3 K1 Sb1'
_publ_section_title
;
The X-ray analysis of chlorofluoride complex compounds of antimony
;
loop_
_citation_id
_citation_journal_abbrev
_citation_year
_citation_journal_volume
_citation_page_first
_citation_page_last
_citation_journal_id_ASTM
primary 'Koordinatsionnaya Khimiya (= Coordination Chemistry (USSR))'
 1975 1 1419 1422 KOKHDC
_publ_author_name
;
Udovenko, A.A.;Davidovich, R.L.;Samarets, L.V.;Zemnukhova, L.A.
;
_cell_length_a                     8.10(2)
_cell_length_b                     14.70(3)
_cell_length_c                     8.00(2)
_cell_angle_alpha                  90.
_cell_angle_beta                   90.
_cell_angle_gamma                  90.
_cell_volume                       952.56
_cell_formula_units_Z              8
_symmetry_space_group_name_H-M     'P b c a'
_symmetry_Int_Tables_number        61
_refine_ls_R_factor_all            .163
loop_
_symmetry_equiv_pos_site_id
_symmetry_equiv_pos_as_xyz
  1	'x+.5, y, -z+.5'
  2	'x, -y+.5, z+.5'
  3	'-x+.5, y+.5, z'
  4	'-x, -y, -z'
  5	'-x+.5, -y, z+.5'
  6	'-x, y+.5, -z+.5'
  7	'x+.5, -y+.5, -z'
  8	'x, y, z'
loop_
_atom_type_symbol
_atom_type_oxidation_number
Cl1-	-1
F1-	-1
K1+	1
Sb3+	3
loop_
_atom_site_label
_atom_site_type_symbol
_atom_site_symmetry_multiplicity
_atom_site_Wyckoff_symbol
_atom_site_fract_x
_atom_site_fract_y
_atom_site_fract_z
_atom_site_occupancy
_atom_site_attached_hydrogens
_atom_site_B_iso_or_equiv
Sb1 Sb3+ 8 c 0.0053 0.1752 0.1278 1. 0 0.99 
K1 K1+ 8 c 0.194 0.442 0.181 1. 0 0.99 
Cl1 Cl1- 8 c 0.375 0.143 0.012 1. 0 0.99 
F1 F1- 8 c 0.051 0.046 0.156 1. 0 0.99 
F2 F1- 8 c 0.503 0.347 0.113 1. 0 0.99 
F3 F1- 8 c 0.277 0.146 0.39 1. 0 0.99 

#End of data_20656-ICSD


