data_201284-ICSD
#?2014 by Fachinformationszentrum Karlsruhe, and the U.S. Secretary of 
#Commerce on behalf of the United States.  All rights reserved.
_database_code_ICSD                201284
_audit_creation_date               1981/12/31
_audit_update_record               2010/02/01
_chemical_name_systematic
;
Pentapotassium Indium Tetrakis(molybdate)
;
_chemical_formula_structural       'K5 In (Mo O4)4'
_chemical_formula_sum              'In1 K5 Mo4 O16'
_publ_section_title
;
Synthesis of crystals, polymorphism and determination of the 
structure of the monoclinic form of the double molybdate K5 In (Mo 
O4)4
;
loop_
_citation_id
_citation_journal_abbrev
_citation_year
_citation_journal_volume
_citation_page_first
_citation_page_last
_citation_journal_id_ASTM
primary 'Zhurnal Neorganicheskoi Khimii' 1981 26 2734 2739 ZNOKAQ
2 'Russian Journal of Inorganic Chemistry' 1981 26 1464 1467 RJICAQ
_publ_author_name
;
Kudin, O.V.;Efremov, V.A.;Trunov, V.K.;Velikodnyi, Yu.A.
;
_cell_length_a                     10.460(3)
_cell_length_b                     12.092(6)
_cell_length_c                     14.625(4)
_cell_angle_alpha                  90.
_cell_angle_beta                   114.02(2)
_cell_angle_gamma                  90.
_cell_volume                       1689.62
_cell_formula_units_Z              4
_symmetry_space_group_name_H-M     'A 1 a 1'
_symmetry_Int_Tables_number        9
_refine_ls_R_factor_all            .034
loop_
_symmetry_equiv_pos_site_id
_symmetry_equiv_pos_as_xyz
  1	'x+.5, -y, z'
  2	'x, y, z'
  3	'x+.5, -y+.5, z+.5'
  4	'x, y+.5, z+.5'
loop_
_atom_type_symbol
_atom_type_oxidation_number
In3+	3
K1+	1
Mo6+	6
O2-	-2
loop_
_atom_site_label
_atom_site_type_symbol
_atom_site_symmetry_multiplicity
_atom_site_Wyckoff_symbol
_atom_site_fract_x
_atom_site_fract_y
_atom_site_fract_z
_atom_site_occupancy
_atom_site_attached_hydrogens
Mo1 Mo6+ 4 a 0.15862(7) 0.36617(5) 0.10262(5) 1. 0 
O1 O2- 4 a 0.0799(7) 0.4010(6) -.0220(6) 1. 0 
O2 O2- 4 a 0.2875(7) 0.4665(5) 0.1654(5) 1. 0 
O3 O2- 4 a 0.0372(8) 0.3677(5) 0.1536(7) 1. 0 
O4 O2- 4 a 0.2363(6) 0.2252(5) 0.1063(5) 1. 0 
Mo2 Mo6+ 4 a 0.13518(7) -.13204(5) 0.08805(5) 1. 0 
O5 O2- 4 a 0.1031(7) -.1848(5) -.0298(5) 1. 0 
O6 O2- 4 a -.0272(5) -.1061(6) 0.0916(5) 1. 0 
O7 O2- 4 a 0.2374(6) -.0037(4) 0.1063(4) 1. 0 
O8 O2- 4 a 0.2256(7) -.2402(5) 0.1743(5) 1. 0 
Mo3 Mo6+ 4 a -.15740(7) -.36529(6) -.10305(5) 1. 0 
O9 O2- 4 a -.0745(9) -.4072(6) 0.0215(4) 1. 0 
O10 O2- 4 a -.2800(6) -.4647(7) -.1732(5) 1. 0 
O11 O2- 4 a -.0311(5) -.3651(6) -.1553(4) 1. 0 
O12 O2- 4 a -.2340(7) -.2330(5) -.1070(4) 1. 0 
Mo4 Mo6+ 4 a -.13422(7) 0.13207(5) -.08775(5) 1. 0 
O13 O2- 4 a -.0978(7) 0.1805(6) 0.0282(6) 1. 0 
O14 O2- 4 a 0.0320(7) 0.0959(6) -.0989(5) 1. 0 
O15 O2- 4 a -.2300(6) 0.0095(6) -.1050(5) 1. 0 
O16 O2- 4 a -.2181(7) 0.2302(5) -.1723(5) 1. 0 
In1 In3+ 4 a 0.25 0.11604(3) 0 1. 0 
K1 K1+ 4 a 0.2495(6) 0.1104(1) 0.5010(4) 1. 0 
K2 K1+ 4 a -.0633(2) 0.3696(1) 0.2954(1) 1. 0 
K3 K1+ 4 a -.0581(2) -.1043(2) 0.2823(1) 1. 0 
K4 K1+ 4 a 0.0743(2) -.3551(2) -.2908(1) 1. 0 
K5 K1+ 4 a 0.0712(2) 0.1018(2) -.2800(2) 1. 0 

#End of data_201284-ICSD


