data_72333-ICSD
#?2014 by Fachinformationszentrum Karlsruhe, and the U.S. Secretary of 
#Commerce on behalf of the United States.  All rights reserved.
_database_code_ICSD                72333
_audit_creation_date               1994/01/19
_chemical_name_systematic
;
Cesium Pentapotassium Pentaoxoruthenate(VI) Tetraoxoruthenate(VI)
;
_chemical_formula_structural       'Cs K5 (Ru O5) (Ru O4)'
_chemical_formula_sum              'Cs1 K5 O9 Ru2'
_publ_section_title
;
Ueber "gemischt-koordinierte" einkernige Anionen. 2. Ein 
Oxoruthenat(VI) neuen Typs: CsK5Ru2O9 = CsK5(RuO5)(RuO4)
;
loop_
_citation_id
_citation_journal_abbrev
_citation_year
_citation_journal_volume
_citation_page_first
_citation_page_last
_citation_journal_id_ASTM
primary 'Zeitschrift fuer Anorganische und Allgemeine Chemie (1950) (DE)'
 1992 617 37 44 ZAACAB
_publ_author_name                  'Fischer, D.;Hoppe, R.'
_cell_length_a                     17.016(3)
_cell_length_b                     8.276(1)
_cell_length_c                     9.057(1)
_cell_angle_alpha                  90.
_cell_angle_beta                   90.
_cell_angle_gamma                  90.
_cell_volume                       1275.45
_cell_formula_units_Z              4
_symmetry_space_group_name_H-M     'P n m a'
_symmetry_Int_Tables_number        62
_refine_ls_R_factor_all            .126
loop_
_symmetry_equiv_pos_site_id
_symmetry_equiv_pos_as_xyz
  1	'x+.5, y, -z+.5'
  2	'x, -y+.5, z'
  3	'-x+.5, y+.5, z+.5'
  4	'-x, -y, -z'
  5	'-x+.5, -y, z+.5'
  6	'-x, y+.5, -z'
  7	'x+.5, -y+.5, -z+.5'
  8	'x, y, z'
loop_
_atom_type_symbol
_atom_type_oxidation_number
Cs1+	1
K1+	1
O2-	-2
Ru6+	6
loop_
_atom_site_label
_atom_site_type_symbol
_atom_site_symmetry_multiplicity
_atom_site_Wyckoff_symbol
_atom_site_fract_x
_atom_site_fract_y
_atom_site_fract_z
_atom_site_occupancy
_atom_site_attached_hydrogens
Ru1 Ru6+ 4 c 0.2556(1) 0.25 0.2042(1) 1. 0 
Ru2 Ru6+ 4 c 0.4944 0.25 0.7475(3) 1. 0 
Cs1 Cs1+ 4 c 0.2725(1) 0.25 0.7530(1) 1. 0 
K1 K1+ 4 c 0.0229(1) 0.25 0.2524(5) 1. 0 
K2 K1+ 8 d 0.3979(2) 0.0036(2) 0.4650(3) 1. 0 
K3 K1+ 8 d 0.3971(2) 0.9894(2) 0.0222(2) 1. 0 
O1 O2- 4 c 0.3539(4) 0.25 0.2639(11) 1. 0 
O2 O2- 4 c 0.1005(3) 0.25 0.7457(10) 1. 0 
O3 O2- 4 c 0.4914(5) 0.25 0.9620(18) 1. 0 
O4 O2- 4 c 0.9977(4) 0.25 0.9645(19) 1. 0 
O5 O2- 4 c 0.1892(5) 0.25 0.3509(11) 1. 0 
O6 O2- 8 d 0.0577(3) 0.5607(6) 0.2468(7) 1. 0 
O7 O2- 8 d 0.7440(3) 0.0820(7) 0.4118(6) 1. 0 

loop_
_atom_site_aniso_label
_atom_site_aniso_type_symbol
_atom_site_aniso_U_11
_atom_site_aniso_U_22
_atom_site_aniso_U_33
_atom_site_aniso_U_12
_atom_site_aniso_U_13
_atom_site_aniso_U_23
Ru1 Ru6+ 0.0115(4) 0.0185(4) 0.0279(5) 0 0.0005(4) 0
Ru2 Ru6+ 0.0122(4) 0.0116(3) 0.0096(4) 0 -.0013(4) 0
Cs1 Cs1+ 0.0165(3) 0.0346(4) 0.0516(5) 0 0.0004(4) 0
K1 K1+ 0.0286(12) 0.0210(11) 0.0184(11) 0 -.0041(23) 0
K2 K1+ 0.0190(12) 0.0133(11) 0.0177(9) -.0007(8) 0.000(1) -.0032(8)
K3 K1+ 0.0165(12) 0.0193(12) 0.0154(11) 0.0034(8) 0.0029(8) 0.0027(8)
O1 O2- 0.0220(36) 0.0428(49) 0.0398(53) 0 -.0157(46) 0
O2 O2- 0.0113(30) 0.0510(49) 0.0201(36) 0 0.0005(43) 0
O3 O2- 0.0236(39) 0.0146(91) 0.0095(84) 0 0.0006(36) 0
O4 O2- 0.0158(69) 0.027(11) 0.0092(86) 0 0.0006(29) 0
O5 O2- 0.0406(57) 0.0581(72) 0.0471(65) 0 0.0157(50) 0
O6 O2- 0.0480(29) 0.0127(23) 0.0194(26) 0.0107(20) 0.0019(35) -.0012(31)
O7 O2- 0.0273(32) 0.0413(39) 0.0549(39) -.0023(29) 0.0031(33) 0.0184(30)
#End of data_72333-ICSD


