data_1194-ICSD
#?2014 by Fachinformationszentrum Karlsruhe, and the U.S. Secretary of 
#Commerce on behalf of the United States.  All rights reserved.
_database_code_ICSD                1194
_audit_creation_date               1980/01/01
_audit_update_record               2010/02/01
_chemical_name_systematic
;
Potassium (trifluoromethyl)trifluoroborate
;
_chemical_formula_structural       'K ((C F3) B F3)'
_chemical_formula_sum              'C1 B1 F6 K1'
_publ_section_title
;
Crystal and molecular structure, reinvestigated vibrational spectra, 
and normal-coordinate analysis of potassium (trifluoromethyl)- 
trifluoroborate, K (C F3 B F3)
;
loop_
_citation_id
_citation_journal_abbrev
_citation_year
_citation_journal_volume
_citation_page_first
_citation_page_last
_citation_journal_id_ASTM
primary 'Inorganic Chemistry' 1977 16 2305 2314 INOCAJ
_publ_author_name
;
Brauer, D.J.;Buerger, H.;Pawelke, G.
;
_cell_length_a                     4.843(1)
_cell_length_b                     16.331(4)
_cell_length_c                     6.348(2)
_cell_angle_alpha                  90.
_cell_angle_beta                   101.89(3)
_cell_angle_gamma                  90.
_cell_volume                       491.3
_cell_formula_units_Z              4
_symmetry_space_group_name_H-M     'P 1 21/c 1'
_symmetry_Int_Tables_number        14
_refine_ls_R_factor_all            .123
loop_
_symmetry_equiv_pos_site_id
_symmetry_equiv_pos_as_xyz
  1	'x, -y+.5, z+.5'
  2	'-x, -y, -z'
  3	'-x, y+.5, -z+.5'
  4	'x, y, z'
loop_
_atom_type_symbol
_atom_type_oxidation_number
B3+	3
C2+	2
F1-	-1
K1+	1
loop_
_atom_site_label
_atom_site_type_symbol
_atom_site_symmetry_multiplicity
_atom_site_Wyckoff_symbol
_atom_site_fract_x
_atom_site_fract_y
_atom_site_fract_z
_atom_site_occupancy
_atom_site_attached_hydrogens
K1 K1+ 4 e 0.1803(2) 0.1546(1) 0.2201(1) 1. 0 
F1 F1- 4 e 0.4957(5) 0.2183(2) -.3896(4) 1. 0 
F2 F1- 4 e 0.9508(5) 0.1959(2) -.2151(4) 1. 0 
F3 F1- 4 e 0.7759(6) 0.1365(2) -.5421(4) 1. 0 
F4 F1- 4 e 0.5845(7) 0.0998(2) -.0232(4) 1. 0 
F5 F1- 4 e 0.3683(6) 0.0511(2) -.3230(5) 1. 0 
F6 F1- 4 e 0.7971(6) 0.0196(2) -.2034(5) 1. 0 
C1 C2+ 4 e 0.6148(9) 0.0825(3) -.2263(6) 1. 0 
B1 B3+ 4 e 0.7133(9) 0.1613(3) -.3490(7) 1. 0 

loop_
_atom_site_aniso_label
_atom_site_aniso_type_symbol
_atom_site_aniso_U_11
_atom_site_aniso_U_22
_atom_site_aniso_U_33
_atom_site_aniso_U_12
_atom_site_aniso_U_13
_atom_site_aniso_U_23
K1 K1+ 0.0391(6) 0.0376(7) 0.0290(6) 0.0000(6) 0.0062(4) -.0008(3)
F1 F1- 0.047(1) 0.040(2) 0.043(2) 0.012(1) 0.008(1) 0.006(1)
F2 F1- 0.043(1) 0.044(2) 0.046(2) -.013(1) 0.000(1) -.003(1)
F3 F1- 0.061(2) 0.048(2) 0.029(1) 0.003(1) 0.020(1) 0.001(1)
F4 F1- 0.102(2) 0.059(2) 0.034(1) -.009(2) 0.035(2) 0.001(1)
F5 F1- 0.047(2) 0.059(2) 0.076(1) -.023(1) 0.006(1) -.005(2)
F6 F1- 0.066(2) 0.040(2) 0.063(1) 0.016(1) 0.017(2) 0.017(1)
C1 C2+ 0.040(2) 0.033(2) 0.025(1) 0.001(2) 0.006(2) 0.000(2)
B1 B3+ 0.035(2) 0.031(2) 0.020(1) 0.000(2) 0.006(2) -.002(2)
#End of data_1194-ICSD


