data_202603-ICSD
#?2014 by Fachinformationszentrum Karlsruhe, and the U.S. Secretary of 
#Commerce on behalf of the United States.  All rights reserved.
_database_code_ICSD                202603
_audit_creation_date               1989/06/19
_audit_update_record               1990/05/24
_chemical_name_systematic          'Potassium Beryllium Phosphate'
_chemical_formula_structural       'K Be P O4'
_chemical_formula_sum              'Be1 K1 O4 P1'
_publ_section_title
;
Contribution to the Crystal Chemistry of M(I) M(II) P O4 
Monophosphates (M(I) = K, Rb, Cs; M(II) = Be)
;
loop_
_citation_id
_citation_journal_abbrev
_citation_year
_citation_journal_volume
_citation_page_first
_citation_page_last
_citation_journal_id_ASTM
primary 'Journal of Solid State Chemistry' 1988 73 468 472 JSSCBI
_publ_author_name                  'Masse, R.;Durif, A.'
_cell_length_a                     8.506(4)
_cell_length_b                     4.937(4)
_cell_length_c                     8.344(5)
_cell_angle_alpha                  90.
_cell_angle_beta                   90.
_cell_angle_gamma                  90.
_cell_volume                       350.4
_cell_formula_units_Z              4
_symmetry_space_group_name_H-M     'P c 21 n'
_symmetry_Int_Tables_number        33
_refine_ls_R_factor_all            .043
loop_
_symmetry_equiv_pos_site_id
_symmetry_equiv_pos_as_xyz
  1	'-x+.5, y, z+.5'
  2	'x+.5, y+.5, -z+.5'
  3	'-x, y+.5, -z'
  4	'x, y, z'
loop_
_atom_type_symbol
_atom_type_oxidation_number
Be2+	2
K1+	1
O2-	-2
P5+	5
loop_
_atom_site_label
_atom_site_type_symbol
_atom_site_symmetry_multiplicity
_atom_site_Wyckoff_symbol
_atom_site_fract_x
_atom_site_fract_y
_atom_site_fract_z
_atom_site_occupancy
_atom_site_attached_hydrogens
K1 K1+ 4 a 0.2092(2) 0.25 -.0020(2) 1. 0 
P1 P5+ 4 a 0.4185(2) 0.7361(7) 0.1910(2) 1. 0 
O1 O2- 4 a 0.4589(5) 0.023(1) 0.2519(6) 1. 0 
O2 O2- 4 a 0.4528(5) 1.039(1) 0.7516(6) 1. 0 
O3 O2- 4 a 0.4072(5) 0.736(2) 0.0090(5) 1. 0 
O4 O2- 4 a 0.2614(6) 0.645(1) 0.2600(6) 1. 0 
Be1 Be2+ 4 a 0.0891(8) 0.756(2) 0.3169(7) 1. 0 

#End of data_202603-ICSD


