data_202667-ICSD
#?2014 by Fachinformationszentrum Karlsruhe, and the U.S. Secretary of 
#Commerce on behalf of the United States.  All rights reserved.
_database_code_ICSD                202667
_audit_creation_date               1989/06/19
_audit_update_record               2000/07/15
_chemical_name_systematic          'Manganese Dizinc Diniobium Oxide'
_chemical_formula_structural       'Mn Zn2 Nb2 O8'
_chemical_formula_sum              'Mn1 Nb2 O8 Zn2'
_publ_section_title
;
Zur Kristallchemie von Mn3 Zn Nb2 O9 und Mn Zn2 Nb2 O8
;
loop_
_citation_id
_citation_journal_abbrev
_citation_year
_citation_journal_volume
_citation_page_first
_citation_page_last
_citation_journal_id_ASTM
primary 'Journal of the Less-Common Metals' 1988 142 75 83 JCOMAH
_publ_author_name                  'Rohweder, U.;Mueller Buschbaum, H.'
_cell_length_a                     19.267
_cell_length_b                     5.933
_cell_length_c                     5.222
_cell_angle_alpha                  90.
_cell_angle_beta                   90.3
_cell_angle_gamma                  90.
_cell_volume                       596.92
_cell_formula_units_Z              4
_symmetry_space_group_name_H-M     'C 1 2/c 1'
_symmetry_Int_Tables_number        15
_refine_ls_R_factor_all            .079
loop_
_symmetry_equiv_pos_site_id
_symmetry_equiv_pos_as_xyz
  1	'x, -y, z+.5'
  2	'-x, -y, -z'
  3	'-x, y, -z+.5'
  4	'x, y, z'
  5	'x+.5, -y+.5, z+.5'
  6	'-x+.5, -y+.5, -z'
  7	'-x+.5, y+.5, -z+.5'
  8	'x+.5, y+.5, z'
loop_
_atom_type_symbol
_atom_type_oxidation_number
Mn2+	2
Nb5+	5
O2-	-2
Zn2+	2
loop_
_atom_site_label
_atom_site_type_symbol
_atom_site_symmetry_multiplicity
_atom_site_Wyckoff_symbol
_atom_site_fract_x
_atom_site_fract_y
_atom_site_fract_z
_atom_site_occupancy
_atom_site_attached_hydrogens
_atom_site_B_iso_or_equiv
Nb1 Nb5+ 8 f 0.1169(1) 0.1623(3) 0.2390(3) 1. 0 0.44(2) 
Zn1 Zn2+ 8 f 0.2787(1) 0.1524(5) 0.2599(4) 1. 0 0.76(3) 
Mn1 Mn2+ 4 e 0 0.6606(8) 0.25 1. 0 0.50(5) 
O1 O2- 8 f 0.192(1) 0.353(3) 0.372(2) 1. 0 0.75(17) 
O2 O2- 8 f 0.181(1) 0.103(2) 0.946(3) 1. 0 0.70(18) 
O3 O2- 8 f 0.061(1) 0.374(2) 0.096(3) 1. 0 0.87(19) 
O4 O2- 8 f 0.072(1) 0.110(2) 0.569(3) 1. 0 0.63(17) 

#End of data_202667-ICSD


