data_421880-ICSD
#?2014 by Fachinformationszentrum Karlsruhe, and the U.S. Secretary of 
#Commerce on behalf of the United States.  All rights reserved.
_database_code_ICSD                421880
_audit_creation_date               2011/02/01
_chemical_name_systematic          'Tetrasilver Telluride Sulfate(VI)'
_chemical_formula_structural       'Ag4 Te (S O4)'
_chemical_formula_sum              'Ag4 O4 S1 Te1'
_publ_section_title
;
Synthesis and structure of Ag4 Te (S O4), a new compound featuring a 
silver-tellurium framework
;
loop_
_citation_id
_citation_journal_abbrev
_citation_year
_citation_journal_volume
_citation_journal_issue
_citation_page_first
_citation_page_last
_citation_journal_id_ASTM
primary 'Zeitschrift fuer Anorganische und Allgemeine Chemie (1950) (DE)'
 2010 636 11 1941 1946 ZAACAB
_publ_author_name
;
Shestimerova, T.A.;Mitiaev, A.S.;Davliatshin, D.I.;Shevel'kov, A.V.
;
_cell_length_a                     8.6263(2)
_cell_length_b                     8.6263(2)
_cell_length_c                     8.6263(2)
_cell_angle_alpha                  90
_cell_angle_beta                   90
_cell_angle_gamma                  90
_cell_volume                       641.91
_cell_formula_units_Z              4
_symmetry_space_group_name_H-M     'P 21 3'
_symmetry_Int_Tables_number        198
_refine_ls_R_factor_all            .0526
loop_
_symmetry_equiv_pos_site_id
_symmetry_equiv_pos_as_xyz
  1	'-z+.5, -x, y+.5'
  2	'-y+.5, -z, x+.5'
  3	'-x+.5, -y, z+.5'
  4	'-z, x+.5, -y+.5'
  5	'-y, z+.5, -x+.5'
  6	'-x, y+.5, -z+.5'
  7	'z+.5, -x+.5, -y'
  8	'y+.5, -z+.5, -x'
  9	'x+.5, -y+.5, -z'
 10	'z, x, y'
 11	'y, z, x'
 12	'x, y, z'
loop_
_atom_type_symbol
_atom_type_oxidation_number
Ag1+	1
O2-	-2
S6+	6
Te2-	-2
loop_
_atom_site_label
_atom_site_type_symbol
_atom_site_symmetry_multiplicity
_atom_site_Wyckoff_symbol
_atom_site_fract_x
_atom_site_fract_y
_atom_site_fract_z
_atom_site_occupancy
_atom_site_attached_hydrogens
_atom_site_U_iso_or_equiv
Te1 Te2- 4 a 0.6841(3) 0.6841(3) 0.6841(3) 1 0 0.0116(11) 
Ag1 Ag1+ 4 a 0.9705(3) 0.9705(3) 0.9705(3) 1 0 0.044(2) 
Ag2 Ag1+ 12 b 0.0092(3) 0.0864(2) 0.2950(3) 1 0 0.0273(7) 
S1 S6+ 4 a 0.3444(13) 0.3444(13) 0.3444(13) 1 0 0.032(5) 
O1 O2- 12 b 0.253(2) 0.4743(19) 0.354(2) 1 0 0.032(5) 
O2 O2- 4 a 0.2409(16) 0.2409(16) 0.2409(16) 1 0 0.032(5) 

#End of data_421880-ICSD


