data_261437-ICSD
#?2014 by Fachinformationszentrum Karlsruhe, and the U.S. Secretary of 
#Commerce on behalf of the United States.  All rights reserved.
_database_code_ICSD                261437
_audit_creation_date               2011/08/01
_chemical_name_systematic
;
Dimagnesium Tetraalumopentasilicate
;
_chemical_formula_structural       'Mg2 Al4 Si5 O18'
_chemical_formula_sum              'Al4 Mg2 O18 Si5'
_chemical_name_mineral             Cordierite
_publ_section_title
;
High temperature elastic properties of Mg-cordierite: experimental 
studies and atomistic simulations
;
loop_
_citation_id
_citation_journal_abbrev
_citation_year
_citation_journal_volume
_citation_journal_issue
_citation_page_first
_citation_page_last
_citation_journal_id_ASTM
primary 'Zeitschrift fuer Kristallographie - Crystalline Materials'
 2011 226 3 236 253 ZKCMAJ
_publ_author_name
;
Haussuehl, E.;Vinograd, V.L.;Krenzel, T.F.;Schreuer, J.;Wilson, 
D.J.;Ottinger, J.
;
_cell_length_a                     17.098
_cell_length_b                     9.728
_cell_length_c                     9.329
_cell_angle_alpha                  90
_cell_angle_beta                   90
_cell_angle_gamma                  90
_cell_volume                       1551.69
_cell_formula_units_Z              4
_symmetry_space_group_name_H-M     'C c c m'
_symmetry_Int_Tables_number        66
loop_
_symmetry_equiv_pos_site_id
_symmetry_equiv_pos_as_xyz
  1	'-x, y, z+.5'
  2	'x, -y, z+.5'
  3	'x, y, -z'
  4	'-x, -y, -z'
  5	'x, -y, -z+.5'
  6	'-x, y, -z+.5'
  7	'-x, -y, z'
  8	'x, y, z'
  9	'-x+.5, y+.5, z+.5'
 10	'x+.5, -y+.5, z+.5'
 11	'x+.5, y+.5, -z'
 12	'-x+.5, -y+.5, -z'
 13	'x+.5, -y+.5, -z+.5'
 14	'-x+.5, y+.5, -z+.5'
 15	'-x+.5, -y+.5, z'
 16	'x+.5, y+.5, z'
loop_
_atom_type_symbol
_atom_type_oxidation_number
Al3+	3
Mg2+	2
O2-	-2
Si4+	4
loop_
_atom_site_label
_atom_site_type_symbol
_atom_site_symmetry_multiplicity
_atom_site_Wyckoff_symbol
_atom_site_fract_x
_atom_site_fract_y
_atom_site_fract_z
_atom_site_occupancy
_atom_site_attached_hydrogens
Mg1 Mg2+ 8 g 0.33638 0 0.250 1. 0 
Al1 Al3+ 8 k 0.250 0.250 0.25061 1. 0 
Si1 Si4+ 4 b 0 0.5 0.250 1. 0 
Si2 Si4+ 8 l 0.19053 0.07802 0 1. 0 
Si3 Si4+ 8 l 0.13417 0.76219 0 1. 0 
Al2 Al3+ 8 l 0.05021 0.30665 0 1. 0 
O1 O2- 16 m 0.24587 0.89799 0.35731 1. 0 
O2 O2- 16 m 0.06277 0.58576 0.34939 1. 0 
O3 O2- 16 m 0.82707 0.68861 0.35754 1. 0 
O4 O2- 8 l 0.04258 0.74982 0 1. 0 
O5 O2- 8 l 0.12053 0.18512 0 1. 0 
O6 O2- 8 l 0.16209 0.92100 0 1. 0 

#End of data_261437-ICSD


