data_30872-ICSD
#?2014 by Fachinformationszentrum Karlsruhe, and the U.S. Secretary of 
#Commerce on behalf of the United States.  All rights reserved.
_database_code_ICSD                30872
_audit_creation_date               1985/03/07
_audit_update_record               1985/05/24
_chemical_name_systematic
;
Calcium Chromium Phyllo-decaoxotetrasilicate
;
_chemical_formula_structural       'Ca Cr (Si4 O10)'
_chemical_formula_sum              'Ca1 Cr1 O10 Si4'
_publ_section_title
;
Crystal structure and optical spectroskopy (300 to 2200nm) of Ca Cr 
Si4 O10
;
loop_
_citation_id
_citation_journal_abbrev
_citation_year
_citation_journal_volume
_citation_page_first
_citation_page_last
_citation_journal_id_ASTM
primary 'American Mineralogist' 1984 69 771 776 AMMIAY
_publ_author_name
;
Bel'skii, H.L.;Rossman, G.R.;Prewitt, C.T.;Gasparik, T.
;
_cell_length_a                     7.378(5)
_cell_length_b                     7.378(5)
_cell_length_c                     15.119(2)
_cell_angle_alpha                  90.
_cell_angle_beta                   90.
_cell_angle_gamma                  90.
_cell_volume                       823
_cell_formula_units_Z              4
_symmetry_space_group_name_H-M     'P 4/n c c S'
_symmetry_Int_Tables_number        130
_refine_ls_R_factor_all            .026
loop_
_symmetry_equiv_pos_site_id
_symmetry_equiv_pos_as_xyz
  1	'y+.5, x+.5, z+.5'
  2	'y+.5, -x+.5, z'
  3	'-y, -x, -z+.5'
  4	'y, -x, -z'
  5	'-y+.5, -x+.5, z+.5'
  6	'-y+.5, x+.5, z'
  7	'y, x, -z+.5'
  8	'-y, x, -z'
  9	'x+.5, -y+.5, -z+.5'
 10	'-x+.5, -y+.5, -z'
 11	'x, -y, z+.5'
 12	'-x, -y, z'
 13	'-x+.5, y+.5, -z+.5'
 14	'x+.5, y+.5, -z'
 15	'-x, y, z+.5'
 16	'x, y, z'
loop_
_atom_type_symbol
_atom_type_oxidation_number
Ca2+	2
Cr2+	2
O2-	-2
Si4+	4
loop_
_atom_site_label
_atom_site_type_symbol
_atom_site_symmetry_multiplicity
_atom_site_Wyckoff_symbol
_atom_site_fract_x
_atom_site_fract_y
_atom_site_fract_z
_atom_site_occupancy
_atom_site_attached_hydrogens
Ca1 Ca2+ 4 b 0 0 0 1. 0 
Cr1 Cr2+ 4 c 0 0.5 0.07951(5) 1. 0 
Si1 Si4+ 16 g 0.25310(8) 0.17208(7) 0.14801(4) 1. 0 
O1 O2- 8 f 0.20819(25) 0.20819(25) 0.25 1. 0 
O2 O2- 16 g 0.45499(19) 0.24829(22) 0.12833(11) 1. 0 
O3 O2- 16 g 0.10627(20) 0.25049(20) 0.08189(12) 1. 0 

#End of data_30872-ICSD


