data_423979-ICSD
#?2014 by Fachinformationszentrum Karlsruhe, and the U.S. Secretary of 
#Commerce on behalf of the United States.  All rights reserved.
_database_code_ICSD                423979
_audit_creation_date               2012/08/01
_audit_update_record               2013/08/01
_chemical_name_systematic          'Zinc Bis(nitrate) Monohydrate'
_chemical_formula_structural       'Zn (N O3)2 (H2 O)'
_chemical_formula_sum              'H2 N2 O7 Zn1'
_publ_section_title
;
Investigation of low-hydrated metal(II) nitrates. Syntheses and 
crystal structures of Zn (N O3)2 ¨² H2 O and M(II) (N O3)2 ¨² 2 H2 O (M 
= Mg, Mn, Co, Ni)
;
loop_
_citation_id
_citation_journal_abbrev
_citation_year
_citation_journal_volume
_citation_journal_issue
_citation_page_first
_citation_page_last
_citation_journal_id_ASTM
primary 'Zeitschrift fuer Kristallographie - Crystalline Materials'
 2012 227 3 129 140 ZKCMAJ
_publ_author_name
;
Wildner, M.;Giester, G.;Lengauer, C.L.;Zemann, J.
;
_cell_length_a                     9.7550(10)
_cell_length_b                     5.9019(10)
_cell_length_c                     17.850(2)
_cell_angle_alpha                  90.00
_cell_angle_beta                   90.00
_cell_angle_gamma                  90.00
_cell_volume                       1027.68
_cell_formula_units_Z              8
_symmetry_space_group_name_H-M     'P b c a'
_symmetry_Int_Tables_number        61
_refine_ls_R_factor_all            .0289
loop_
_symmetry_equiv_pos_site_id
_symmetry_equiv_pos_as_xyz
  1	'x+.5, y, -z+.5'
  2	'x, -y+.5, z+.5'
  3	'-x+.5, y+.5, z'
  4	'-x, -y, -z'
  5	'-x+.5, -y, z+.5'
  6	'-x, y+.5, -z+.5'
  7	'x+.5, -y+.5, -z'
  8	'x, y, z'
loop_
_atom_type_symbol
_atom_type_oxidation_number
H1+	1
N5+	5
O2-	-2
Zn2+	2
loop_
_atom_site_label
_atom_site_type_symbol
_atom_site_symmetry_multiplicity
_atom_site_Wyckoff_symbol
_atom_site_fract_x
_atom_site_fract_y
_atom_site_fract_z
_atom_site_occupancy
_atom_site_attached_hydrogens
_atom_site_U_iso_or_equiv
Zn1 Zn2+ 8 c 0.401043(19) 0.46461(4) 0.152222(11) 1 0 0.02059(8) 
N1 N5+ 8 c 0.13140(13) 0.1805(2) 0.29701(8) 1 0 0.0191(3) 
N2 N5+ 8 c 0.34038(14) 0.1546(2) 0.05153(8) 1 0 0.0219(3) 
O1 O2- 8 c 0.18530(12) 0.2359(2) 0.35579(7) 1 0 0.0270(3) 
O2 O2- 8 c 0.01060(11) 0.2414(2) 0.28048(7) 1 0 0.0257(3) 
O3 O2- 8 c 0.19537(12) 0.05907(19) 0.24976(7) 1 0 0.0228(2) 
O4 O2- 8 c 0.31052(16) 0.0200(2) 0.00390(8) 1 0 0.0367(3) 
O5 O2- 8 c 0.43795(12) 0.2930(2) 0.04467(7) 1 0 0.0277(3) 
O6 O2- 8 c 0.27413(12) 0.1716(2) 0.11412(6) 1 0 0.0236(3) 
O7 O2- 8 c 0.52815(14) 0.7060(2) 0.11702(8) 1 0 0.0274(3) 
H1 H1+ 8 c 0.535(3) 0.725(4) 0.0761(16) 1 0 0.043(7) 
H2 H1+ 8 c 0.605(3) 0.710(5) 0.1293(17) 1 0 0.052(8) 

loop_
_atom_site_aniso_label
_atom_site_aniso_type_symbol
_atom_site_aniso_U_11
_atom_site_aniso_U_22
_atom_site_aniso_U_33
_atom_site_aniso_U_12
_atom_site_aniso_U_13
_atom_site_aniso_U_23
Zn1 Zn2+ 0.02170(11) 0.02164(12) 0.01842(11) 0.00087(8) 0.00037(7) 
-0.00041(7)
N1 N5+ 0.0191(6) 0.0200(7) 0.0183(6) -0.0007(5) 0.0013(5) 0.0012(5)
N2 N5+ 0.0241(7) 0.0188(7) 0.0229(7) -0.0007(6) 0.0011(5) 0.0005(6)
O1 O2- 0.0269(6) 0.0349(7) 0.0191(6) 0.0015(6) -0.0041(5) -0.0057(5)
O2 O2- 0.0196(5) 0.0325(7) 0.0250(6) 0.0066(5) -0.0035(4) -0.0057(5)
O3 O2- 0.0211(5) 0.0275(6) 0.0196(5) 0.0034(5) 0.0015(4) -0.0045(5)
O4 O2- 0.0524(9) 0.0333(8) 0.0244(6) -0.0152(7) 0.0084(6) -0.0102(6)
O5 O2- 0.0217(5) 0.0296(7) 0.0317(6) -0.0076(5) 0.0026(5) 0.0005(6)
O6 O2- 0.0282(6) 0.0240(6) 0.0187(5) -0.0037(5) 0.0052(4) -0.0014(5)
O7 O2- 0.0247(7) 0.0335(8) 0.0239(7) -0.0049(6) 0.0007(5) 0.0035(6)
#End of data_423979-ICSD


