data_1318-ICSD
#?2014 by Fachinformationszentrum Karlsruhe, and the U.S. Secretary of 
#Commerce on behalf of the United States.  All rights reserved.
_database_code_ICSD                1318
_audit_creation_date               1980/01/01
_audit_update_record               2007/08/01
_chemical_name_systematic          'Lithium Tritantalate'
_chemical_formula_structural       'Li (Ta3 O8)'
_chemical_formula_sum              'Li1 O8 Ta3'
_chemical_name_mineral             Lithiowodginite
_publ_section_title
;
Neutron powder diffraction study of the intermediate-temperature form 
of lithium tantalate
;
loop_
_citation_id
_citation_journal_abbrev
_citation_year
_citation_journal_volume
_citation_page_first
_citation_page_last
_citation_journal_id_ASTM
primary 'Acta Crystallographica B (24,1968-38,1982)' 1977 33 3945 3947 ACBCAR
2 'Powder Diffraction' 1986 1 77 99 PODIE2
_publ_author_name                  'Santoro, A.;Roth, R.S.;Minor, D.'
_cell_length_a                     9.410(1)
_cell_length_b                     11.521(1)
_cell_length_c                     5.0506(5)
_cell_angle_alpha                  90.
_cell_angle_beta                   91.108(5)
_cell_angle_gamma                  90.
_cell_volume                       547.45
_cell_formula_units_Z              4
_symmetry_space_group_name_H-M     'C 1 2/c 1'
_symmetry_Int_Tables_number        15
_refine_ls_R_factor_all            .068
loop_
_symmetry_equiv_pos_site_id
_symmetry_equiv_pos_as_xyz
  1	'x, -y, z+.5'
  2	'-x, -y, -z'
  3	'-x, y, -z+.5'
  4	'x, y, z'
  5	'x+.5, -y+.5, z+.5'
  6	'-x+.5, -y+.5, -z'
  7	'-x+.5, y+.5, -z+.5'
  8	'x+.5, y+.5, z'
loop_
_atom_type_symbol
_atom_type_oxidation_number
Li1+	1
O2-	-2
Ta5+	5
loop_
_atom_site_label
_atom_site_type_symbol
_atom_site_symmetry_multiplicity
_atom_site_Wyckoff_symbol
_atom_site_fract_x
_atom_site_fract_y
_atom_site_fract_z
_atom_site_occupancy
_atom_site_attached_hydrogens
_atom_site_B_iso_or_equiv
Ta1 Ta5+ 8 f 0.2419(6) 0.0868(4) 0.2485(13) 1. 0 0.28(5) 
Ta2 Ta5+ 4 e 0 0.3328(6) 0.25 1. 0 0.28(5) 
O1 O2- 8 f 0.3536(5) 0.4512(5) 0.4386(11) 1. 0 0.31(4) 
O2 O2- 8 f 0.3843(5) 0.1795(6) 0.4246(10) 1. 0 0.31(4) 
O3 O2- 8 f 0.1331(5) 0.4364(4) 0.0826(12) 1. 0 0.31(4) 
O4 O2- 8 f 0.1178(5) 0.1962(4) 0.1062(11) 1. 0 0.31(4) 
Li1 Li1+ 4 e 0 0.8453(20) 0.25 1. 0 1.3(4) 

#End of data_1318-ICSD


