data_2106-ICSD
#?2014 by Fachinformationszentrum Karlsruhe, and the U.S. Secretary of 
#Commerce on behalf of the United States.  All rights reserved.
_database_code_ICSD                2106
_audit_creation_date               1980/01/01
_audit_update_record               1999/11/30
_chemical_name_systematic          'Trilithium Dieuropium Tris(borate)'
_chemical_formula_structural       'Li3 Eu2 (B O3)3'
_chemical_formula_sum              'B3 Eu2 Li3 O9'
_publ_section_title
;
Structure cristalline de l'orthoborate double de lithium et 
d'europium - Li3 Eu2 (B O3)3
;
loop_
_citation_id
_citation_journal_abbrev
_citation_year
_citation_journal_volume
_citation_page_first
_citation_page_last
_citation_journal_id_ASTM
primary 'Azerbaidzhanskii Khimicheskii Zhurnal' 1977 1977 115 119 AZKZAU
_publ_author_name
;
Abdullaev, G.K.;Mamedov, Kh.S.;Dzhafarov, G.G.
;
_cell_length_a                     8.66(3)
_cell_length_b                     13.95(5)
_cell_length_c                     5.69(2)
_cell_angle_alpha                  90.
_cell_angle_beta                   103.7(5)
_cell_angle_gamma                  90.
_cell_volume                       667.83
_cell_formula_units_Z              2
_symmetry_space_group_name_H-M     'P 1 21 1'
_symmetry_Int_Tables_number        4
_refine_ls_R_factor_all            .12
loop_
_symmetry_equiv_pos_site_id
_symmetry_equiv_pos_as_xyz
  1	'-x, y+.5, -z'
  2	'x, y, z'
loop_
_atom_type_symbol
_atom_type_oxidation_number
B3+	3
Eu3+	3
Li1+	1
O2-	-2
loop_
_atom_site_label
_atom_site_type_symbol
_atom_site_symmetry_multiplicity
_atom_site_Wyckoff_symbol
_atom_site_fract_x
_atom_site_fract_y
_atom_site_fract_z
_atom_site_occupancy
_atom_site_attached_hydrogens
_atom_site_B_iso_or_equiv
Eu1 Eu3+ 2 a 0.1927(1) 0.1648(1) 0.1335(2) 1. 0 -.15 
Eu2 Eu3+ 2 a 0.3398(1) 0.0027(1) 0.6894(2) 1. 0 -.15 
O1 O2- 2 a 0.367(2) 0.171(1) 0.867(3) 1. 0 0.26 
O2 O2- 2 a 0.595(2) 0.075(1) 0.934(3) 1. 0 0.2 
O3 O2- 2 a 0.623(2) 0.243(1) 0.943(3) 1. 0 0.05 
O4 O2- 2 a 0.433(2) 0.095(1) 0.388(3) 1. 0 0.24 
O5 O2- 2 a 0.446(2) 0.262(1) 0.364(3) 1. 0 0.35 
O6 O2- 2 a 0.681(2) 0.169(1) 0.472(3) 1. 0 -.48 
O7 O2- 2 a 0.105(2) 0.066(1) 0.784(3) 1. 0 0.23 
O8 O2- 2 a 0.150(2) 0.008(1) 0.304(3) 1. 0 0.11 
O9 O2- 2 a 0.417(2) 0.401(2) 0.731(3) 1. 0 0.34 
B1 B3+ 2 a 0.532(3) 0.165(2) 0.919(4) 1. 0 -.05 
B2 B3+ 2 a 0.523(3) 0.176(2) 0.411(4) 1. 0 -.21 
B3 B3+ 2 a 0.491(3) 0.485(2) 0.755(4) 1. 0 -.25 
Li1 Li1+ 2 a 0.289(4) 0.283(3) 0.705(6) 1. 0 1.16 
Li2 Li1+ 2 a 0.478(4) 0.341(3) 0.091(6) 1. 0 0.72 
Li3 Li1+ 2 a 0.302(4) 0.399(3) 0.370(6) 1. 0 1.21 

#End of data_2106-ICSD


