data_240923-ICSD
#?2014 by Fachinformationszentrum Karlsruhe, and the U.S. Secretary of 
#Commerce on behalf of the United States.  All rights reserved.
_database_code_ICSD                240923
_audit_creation_date               2008/08/01
_chemical_name_systematic
;
Tetrapotassium Cis-dioxido-trans-bis(sulfato-kappa 
O)sulfato(kappa(2)o,o') Molybdate(VI)
;
_chemical_formula_structural       'K4 (Mo O2 (S O4)3)'
_chemical_formula_sum              'K4 Mo1 O14 S3'
_publ_section_title
;
Tetrapotassium cis-dioxido-trans-bis(sulfato-kappa 
O)sulfato(kappa(2)O,O') molybdate(VI)
;
loop_
_citation_id
_citation_journal_abbrev
_citation_year
_citation_journal_volume
_citation_journal_issue
_citation_page_first
_citation_page_last
_citation_journal_id_ASTM
primary 'Acta Crystallographica, Section E. Structure Reports Online'
 2008 64 3 i20 i20 ACSEBH
_publ_author_name                  'Cline Schaeffer, S.J.;Berg, R.W.'
_cell_length_a                     7.5931(5)
_cell_length_b                     17.1276(11)
_cell_length_c                     10.5132(7)
_cell_angle_alpha                  90.00
_cell_angle_beta                   90.00
_cell_angle_gamma                  90.00
_cell_volume                       1367.26
_cell_formula_units_Z              4
_symmetry_space_group_name_H-M     'P n m a'
_symmetry_Int_Tables_number        62
_refine_ls_R_factor_all            .0163
loop_
_symmetry_equiv_pos_site_id
_symmetry_equiv_pos_as_xyz
  1	'x+.5, y, -z+.5'
  2	'x, -y+.5, z'
  3	'-x+.5, y+.5, z+.5'
  4	'-x, -y, -z'
  5	'-x+.5, -y, z+.5'
  6	'-x, y+.5, -z'
  7	'x+.5, -y+.5, -z+.5'
  8	'x, y, z'
loop_
_atom_type_symbol
_atom_type_oxidation_number
K1+	1
Mo6+	6
O2-	-2
S6+	6
loop_
_atom_site_label
_atom_site_type_symbol
_atom_site_symmetry_multiplicity
_atom_site_Wyckoff_symbol
_atom_site_fract_x
_atom_site_fract_y
_atom_site_fract_z
_atom_site_occupancy
_atom_site_attached_hydrogens
_atom_site_U_iso_or_equiv
K1 K1+ 8 d 0.43682(4) 0.08865(2) -0.24076(3) 1 0 0.01208(8) 
K2 K1+ 8 d 0.25655(5) 0.10844(2) 0.39352(3) 1 0 0.01644(9) 
Mo1 Mo6+ 4 c 0.32312(3) 0.2500 0.065899(18) 1 0 0.00961(7) 
S1 S6+ 4 c 0.62301(7) 0.2500 -0.09790(5) 1 0 0.00926(11) 
S2 S6+ 8 d 0.23382(5) 0.06574(2) 0.06161(3) 1 0 0.00949(9) 
O1 O2- 4 c 0.3105(3) 0.2500 0.22628(17) 1 0 0.0209(4) 
O2 O2- 4 c 0.1129(2) 0.2500 0.0135(2) 1 0 0.0219(4) 
O3 O2- 4 c 0.4316(2) 0.2500 -0.13493(15) 1 0 0.0124(3) 
O4 O2- 4 c 0.6095(2) 0.2500 0.04687(15) 1 0 0.0102(3) 
O5 O2- 8 d 0.70888(16) 0.17874(7) -0.13903(11) 1 0 0.0135(2) 
O6 O2- 8 d 0.36968(15) 0.13324(7) 0.05145(11) 1 0 0.0134(2) 
O7 O2- 8 d 0.16034(17) 0.05557(8) -0.06586(11) 1 0 0.0161(3) 
O8 O2- 8 d 0.10253(17) 0.08813(8) 0.15593(12) 1 0 0.0184(3) 
O9 O2- 8 d 0.33322(16) -0.00276(7) 0.10186(13) 1 0 0.0176(3) 

loop_
_atom_site_aniso_label
_atom_site_aniso_type_symbol
_atom_site_aniso_U_11
_atom_site_aniso_U_22
_atom_site_aniso_U_33
_atom_site_aniso_U_12
_atom_site_aniso_U_13
_atom_site_aniso_U_23
K1 K1+ 0.01082(17) 0.01361(16) 0.01182(16) 0.00149(12) -0.00089(12) 
0.00023(12)
K2 K1+ 0.02176(19) 0.01335(17) 0.01422(17) 0.00508(14) 0.00204(14) 
-0.00023(13)
Mo1 Mo6+ 0.00891(10) 0.00789(10) 0.01203(11) 0.000 0.00220(7) 0.000
S1 S6+ 0.0105(2) 0.0077(2) 0.0096(2) 0.000 0.0013(2) 0.000
S2 S6+ 0.01081(18) 0.00829(17) 0.00938(18) -0.00132(14) 0.00002(13) 
0.00071(13)
O1 O2- 0.0304(11) 0.0172(9) 0.0150(9) 0.000 0.0080(8) 0.000
O2 O2- 0.0117(8) 0.0178(9) 0.0364(11) 0.000 -0.0020(8) 0.000
O3 O2- 0.0119(8) 0.0139(8) 0.0115(7) 0.000 -0.0019(6) 0.000
O4 O2- 0.0115(8) 0.0102(7) 0.0089(7) 0.000 0.0001(6) 0.000
O5 O2- 0.0158(6) 0.0095(5) 0.0153(6) 0.0017(4) 0.0044(5) -0.0012(4)
O6 O2- 0.0116(5) 0.0088(5) 0.0197(6) -0.0019(4) 0.0022(5) -0.0001(4)
O7 O2- 0.0187(6) 0.0186(6) 0.0111(6) -0.0037(5) -0.0034(4) 0.0017(4)
O8 O2- 0.0163(6) 0.0201(6) 0.0187(6) -0.0045(5) 0.0072(5) -0.0055(5)
O9 O2- 0.0181(6) 0.0116(6) 0.0232(6) -0.0002(5) -0.0046(5) 0.0058(5)
#End of data_240923-ICSD


