data_92346-ICSD
#?2014 by Fachinformationszentrum Karlsruhe, and the U.S. Secretary of 
#Commerce on behalf of the United States.  All rights reserved.
_database_code_ICSD                92346
_audit_creation_date               2002/10/01
_audit_update_record               2005/10/01
_chemical_name_systematic          'Calcium Ferrate(IV)'
_chemical_formula_structural       'Ca (Fe O3)'
_chemical_formula_sum              'Ca1 Fe1 O3'
_publ_section_title
;
Metal-semiconductor transition, charge disproportionation, and low-
temperature structure of Ca1-x Srx Fe O3 synthesized under high-
oxygen pressure
;
loop_
_citation_id
_citation_journal_abbrev
_citation_year
_citation_journal_volume
_citation_page_first
_citation_page_last
_citation_journal_id_ASTM
primary 'Solid State Sciences' 2000 2 673 687 SSSCFJ
2 'Golden Book of Phase Transitions, Wroclaw' 2002 1 1 123 GBOPT5
_publ_author_name
;
Takeda, T.;Kanno, R.;Kawamoto, Y.;Takano, M.;Kawasaki, S.;Kamiyama, 
T.;Izumi, F.
;
_cell_length_a                     5.32297(7)
_cell_length_b                     5.34981(8)
_cell_length_c                     7.53605(9)
_cell_angle_alpha                  90.
_cell_angle_beta                   90.023(7)
_cell_angle_gamma                  90.
_cell_volume                       214.6
_cell_formula_units_Z              4
_symmetry_space_group_name_H-M     'P 1 21/n 1'
_symmetry_Int_Tables_number        14
_refine_ls_R_factor_all            .014
loop_
_symmetry_equiv_pos_site_id
_symmetry_equiv_pos_as_xyz
  1	'-x+.5, y+.5, -z+.5'
  2	'-x, -y, -z'
  3	'x+.5, -y+.5, z+.5'
  4	'x, y, z'
loop_
_atom_type_symbol
_atom_type_oxidation_number
Ca2+	2
Fe4+	4
O2-	-2
loop_
_atom_site_label
_atom_site_type_symbol
_atom_site_symmetry_multiplicity
_atom_site_Wyckoff_symbol
_atom_site_fract_x
_atom_site_fract_y
_atom_site_fract_z
_atom_site_occupancy
_atom_site_attached_hydrogens
_atom_site_B_iso_or_equiv
Ca1 Ca2+ 4 e -.0069(16) 0.0340(7) 0.748(7) 1. 0 0.74(7) 
Fe1 Fe4+ 2 d 0.5 0 0 1. 0 0.260(15) 
Fe2 Fe4+ 2 c 0 0.5 0 1. 0 0.260(15) 
O1 O2- 4 e 0.714(5) 0.285(6) 0.964(2) 1. 0 0.4(3) 
O2 O2- 4 e 0.711(5) 0.288(6) 0.532(2) 1. 0 0.6(3) 
O3 O2- 4 e 0.0662(9) 0.4898(8) 0.751(6) 1. 0 0.62(7) 

#End of data_92346-ICSD


