data_35544-ICSD
#?2014 by Fachinformationszentrum Karlsruhe, and the U.S. Secretary of 
#Commerce on behalf of the United States.  All rights reserved.
_database_code_ICSD                35544
_audit_creation_date               1980/01/01
_audit_update_record               2012/08/01
_chemical_name_systematic          'Trisilver Phosphate(V)'
_chemical_formula_structural       'Ag3 (P O4)'
_chemical_formula_sum              'Ag3 O4 P1'
_publ_section_title
;
Crystal structure of silver phosphate and silver arsenate (Ag3 X O4)
;
loop_
_citation_id
_citation_journal_abbrev
_citation_year
_citation_journal_volume
_citation_page_first
_citation_page_last
_citation_journal_id_ASTM
primary 'American Journal of Science, Serie 5(1,1921-1938)'
 1925 10 107 118 AJSC5L
2
;
Zeitschrift fuer Kristallographie, Kristallgeometrie, Kristallphysik, 
Kristallchemie (-144,1977)
;
 1925 62 529 539 ZEKGAX
_publ_author_name                  'Wyckoff, R.W.G.'
_cell_length_a                     6.005
_cell_length_b                     6.005
_cell_length_c                     6.005
_cell_angle_alpha                  90.
_cell_angle_beta                   90.
_cell_angle_gamma                  90.
_cell_volume                       216.54
_cell_formula_units_Z              2
_symmetry_space_group_name_H-M     'P -4 3 n'
_symmetry_Int_Tables_number        218
loop_
_symmetry_equiv_pos_site_id
_symmetry_equiv_pos_as_xyz
  1	'-z+.5, y+.5, -x+.5'
  2	'-y+.5, x+.5, -z+.5'
  3	'-x+.5, z+.5, -y+.5'
  4	'z+.5, -y+.5, -x+.5'
  5	'y+.5, -x+.5, -z+.5'
  6	'x+.5, -z+.5, -y+.5'
  7	'-z+.5, -y+.5, x+.5'
  8	'-y+.5, -x+.5, z+.5'
  9	'-x+.5, -z+.5, y+.5'
 10	'z+.5, y+.5, x+.5'
 11	'y+.5, x+.5, z+.5'
 12	'x+.5, z+.5, y+.5'
 13	'-z, -x, y'
 14	'-y, -z, x'
 15	'-x, -y, z'
 16	'z, -x, -y'
 17	'y, -z, -x'
 18	'x, -y, -z'
 19	'-z, x, -y'
 20	'-y, z, -x'
 21	'-x, y, -z'
 22	'z, x, y'
 23	'y, z, x'
 24	'x, y, z'
loop_
_atom_type_symbol
_atom_type_oxidation_number
Ag1+	1
O2-	-2
P5+	5
loop_
_atom_site_label
_atom_site_type_symbol
_atom_site_symmetry_multiplicity
_atom_site_Wyckoff_symbol
_atom_site_fract_x
_atom_site_fract_y
_atom_site_fract_z
_atom_site_occupancy
_atom_site_attached_hydrogens
Ag1 Ag1+ 6 d 0 0.5 0.25 1. 0 
P1 P5+ 2 a 0 0 0 1. 0 
O1 O2- 8 e 0.15 0.15 0.15 1. 0 

#End of data_35544-ICSD


