data_6141-ICSD
#?2014 by Fachinformationszentrum Karlsruhe, and the U.S. Secretary of 
#Commerce on behalf of the United States.  All rights reserved.
_database_code_ICSD                6141
_audit_creation_date               1980/01/01
_chemical_name_systematic          'Sodium Tetratungstate'
_chemical_formula_structural       'Na2 W4 O13'
_chemical_formula_sum              'Na2 O13 W4'
_publ_section_title
;
Crystal structure of sodium tetratungstate, Na2 W4 O13
;
loop_
_citation_id
_citation_journal_abbrev
_citation_year
_citation_journal_volume
_citation_page_first
_citation_page_last
_citation_journal_id_ASTM
primary
;
Journal of the Chemical Society. Dalton Transactions, Inorganic 
Chemistry (1972-)
;
 1974 1974 2170 2172 JCDTBI
_publ_author_name                  'Viswanathan, K.'
_cell_length_a                     11.163(5)
_cell_length_b                     3.894(1)
_cell_length_c                     8.255(3)
_cell_angle_alpha                  90.60(2)
_cell_angle_beta                   131.36(2)
_cell_angle_gamma                  79.70(2)
_cell_volume                       262.16
_cell_formula_units_Z              1
_symmetry_space_group_name_H-M     'P -1'
_symmetry_Int_Tables_number        2
_refine_ls_R_factor_all            .117
loop_
_symmetry_equiv_pos_site_id
_symmetry_equiv_pos_as_xyz
  1	'-x, -y, -z'
  2	'x, y, z'
loop_
_atom_type_symbol
_atom_type_oxidation_number
Na1+	1
O2-	-2
W6+	6
loop_
_atom_site_label
_atom_site_type_symbol
_atom_site_symmetry_multiplicity
_atom_site_Wyckoff_symbol
_atom_site_fract_x
_atom_site_fract_y
_atom_site_fract_z
_atom_site_occupancy
_atom_site_attached_hydrogens
_atom_site_B_iso_or_equiv
W1 W6+ 2 i 0.1938(5) 0.8382(2) 0.2132(5) 1. 0 0.12(2) 
W2 W6+ 2 i 0.1744(5) 0.9774(3) 0.8054(3) 1. 0 0.11(2) 
O1 O2- 1 b 0 0 0.5 1. 0 2.14(2) 
O2 O2- 2 i 0.663(6) 0.160(7) 0.195(5) 1. 0 1.77(2) 
O3 O2- 2 i 0.684(7) 0.166(5) 0.892(7) 1. 0 1.43(2) 
O4 O2- 2 i 0.995(5) 0.005(4) 0.157(8) 1. 0 1.10(2) 
O5 O2- 2 i 0.346(3) 0.855(5) 0.485(3) 1. 0 0.13(2) 
O6 O2- 2 i 0.198(4) 0.389(7) 0.223(3) 1. 0 0.43(2) 
O7 O2- 2 i 0.148(7) 0.422(5) 0.827(6) 1. 0 0.93(2) 
Na1 Na1+ 2 i 0.430(8) 0.285(4) 0.736(6) 1. 0 0.82(2) 

#End of data_6141-ICSD


