data_246246-ICSD
#?2014 by Fachinformationszentrum Karlsruhe, and the U.S. Secretary of 
#Commerce on behalf of the United States.  All rights reserved.
_database_code_ICSD                246246
_audit_creation_date               2009/08/01
_chemical_name_systematic
;
Tripotassium Digallium Triphosphate
;
_chemical_formula_structural       'K3 Ga2 (P O4)3'
_chemical_formula_sum              'Ga2 K3 O12 P3'
_publ_section_title
;
Mixed tetrahedral anionic framework in the K3 Ga2 (P O4)3 crystal 
structure
;
loop_
_citation_id
_citation_journal_abbrev
_citation_year
_citation_journal_volume
_citation_journal_issue
_citation_page_first
_citation_page_last
_citation_journal_id_ASTM
primary Kristallografiya 2008 53 6 1009 1016 KRISAJ
2 'Crystallography Reports' 2008 53 6 952 959 CYSTE3
_publ_author_name
;
Yakubovich, O.V.;Steele, I.;Kireev, V.V.
;
_cell_length_a                     8.661(2)
_cell_length_b                     17.002(4)
_cell_length_c                     8.386(2)
_cell_angle_alpha                  90.
_cell_angle_beta                   90.
_cell_angle_gamma                  90.
_cell_volume                       1234.87
_cell_formula_units_Z              4
_symmetry_space_group_name_H-M     'P n a 21'
_symmetry_Int_Tables_number        33
_refine_ls_R_factor_all            .0438
loop_
_symmetry_equiv_pos_site_id
_symmetry_equiv_pos_as_xyz
  1	'x+.5, -y+.5, z'
  2	'-x+.5, y+.5, z+.5'
  3	'-x, -y, z+.5'
  4	'x, y, z'
loop_
_atom_type_symbol
_atom_type_oxidation_number
Ga3+	3
K1+	1
O2-	-2
P5+	5
loop_
_atom_site_label
_atom_site_type_symbol
_atom_site_symmetry_multiplicity
_atom_site_Wyckoff_symbol
_atom_site_fract_x
_atom_site_fract_y
_atom_site_fract_z
_atom_site_occupancy
_atom_site_attached_hydrogens
_atom_site_U_iso_or_equiv
Ga1 Ga3+ 4 a 0.65297(9) 0.34143(4) 0.51023(10) 1. 0 0.0089(2) 
Ga2 Ga3+ 4 a 0.36773(9) 0.33176(4) -0.00180(10) 1. 0 0.0091(2) 
P1 P5+ 4 a 0.3484(2) 0.28058(11) 0.6500(2) 1. 0 0.0080(3) 
P2 P5+ 4 a 0.7035(2) 0.31346(11) 0.1420(2) 1. 0 0.0091(3) 
P3 P5+ 4 a 0.7617(2) 0.50345(12) 0.5714(2) 1. 0 0.0107(4) 
K1 K1+ 4 a 0.9904(2) 0.40086(10) 0.8147(2) 1. 0 0.0121(3) 
K2 K1+ 4 a 0.0475(2) 0.35311(10) 0.3429(2) 1. 0 0.0111(3) 
K3 K1+ 4 a 0.6814(2) 0.51027(10) 0.0436(2) 1. 0 0.0160(3) 
O1 O2- 4 a 0.6205(7) 0.4445(3) 0.5467(7) 1. 0 0.0136(12) 
O2 O2- 4 a 0.7915(6) 0.3011(3) 0.6520(7) 1. 0 0.0111(10) 
O3 O2- 4 a 0.4692(6) 0.2906(3) 0.5156(7) 1. 0 0.0116(10) 
O4 O2- 4 a 0.7358(7) 0.3086(4) 0.3231(7) 1. 0 0.0191(12) 
O5 O2- 4 a 0.7093(7) 0.2270(3) 0.0777(7) 1. 0 0.0128(11) 
O6 O2- 4 a 0.2196(7) 0.3431(3) 0.6285(6) 1. 0 0.0120(11) 
O7 O2- 4 a 0.7664(7) 0.5293(3) 0.7421(7) 1. 0 0.0141(11) 
O8 O2- 4 a 0.4377(6) 0.2950(3) 0.8083(7) 1. 0 0.0119(11) 
O9 O2- 4 a 0.9050(6) 0.4644(3) 0.5019(8) 1. 0 0.0144(10) 
O10 O2- 4 a 0.5358(7) 0.3422(4) 0.1265(7) 1. 0 0.0200(13) 
O11 O2- 4 a 0.8155(8) 0.3666(4) 0.0618(8) 1. 0 0.0198(13) 
O12 O2- 4 a 0.7191(7) 0.5737(3) 0.4593(7) 1. 0 0.0133(11) 

#End of data_246246-ICSD


