data_84614-ICSD
#?2014 by Fachinformationszentrum Karlsruhe, and the U.S. Secretary of 
#Commerce on behalf of the United States.  All rights reserved.
_database_code_ICSD                84614
_audit_creation_date               1999/01/19
_audit_update_record               2002/04/01
_chemical_name_systematic          'Dialuminium Silicate Oxide'
_chemical_formula_structural       'Al2 (Si O4) O'
_chemical_formula_sum              'Al2 O5 Si1'
_chemical_name_mineral             Andalusite
_publ_section_title
;
Transferability of empirical force fields in silicates : lattice-
dynamical evaluation of atomic displacement parameters and 
thermodynamic properties for the Al2 O Si O4 polymorphs
;
loop_
_citation_id
_citation_journal_abbrev
_citation_year
_citation_journal_volume
_citation_page_first
_citation_page_last
_citation_journal_id_ASTM
primary 'Acta Crystallographica, Section B: Structural Science'
 1997 53 82 93 ASBSDK
_publ_author_name
;
Pilati, T.;Demartin, F.;Gramaccioli, C.M.
;
_cell_length_a                     7.7992
_cell_length_b                     7.905
_cell_length_c                     5.5591
_cell_angle_alpha                  90.
_cell_angle_beta                   90.
_cell_angle_gamma                  90.
_cell_volume                       342.73
_cell_formula_units_Z              4
_symmetry_space_group_name_H-M     'P n n m'
_symmetry_Int_Tables_number        58
loop_
_symmetry_equiv_pos_site_id
_symmetry_equiv_pos_as_xyz
  1	'x+.5, -y+.5, z+.5'
  2	'-x+.5, y+.5, z+.5'
  3	'x, y, -z'
  4	'-x, -y, -z'
  5	'-x+.5, y+.5, -z+.5'
  6	'x+.5, -y+.5, -z+.5'
  7	'-x, -y, z'
  8	'x, y, z'
loop_
_atom_type_symbol
_atom_type_oxidation_number
Al3+	3
O2-	-2
Si4+	4
loop_
_atom_site_label
_atom_site_type_symbol
_atom_site_symmetry_multiplicity
_atom_site_Wyckoff_symbol
_atom_site_fract_x
_atom_site_fract_y
_atom_site_fract_z
_atom_site_occupancy
_atom_site_attached_hydrogens
Si1 Si4+ 4 g 0.24606 0.25217 0 1. 0 
Al1 Al3+ 4 e 0 0 0.24196 1. 0 
Al2 Al3+ 4 g 0.37054 0.139 0.5 1. 0 
O1 O2- 4 g 0.42326 0.36293 0.5 1. 0 
O2 O2- 4 g 0.42438 0.36293 0 1. 0 
O3 O2- 4 g 0.1028 0.40022 0 1. 0 
O4 O2- 8 h 0.23064 0.13397 0.23948 1. 0 

loop_
_atom_site_aniso_label
_atom_site_aniso_type_symbol
_atom_site_aniso_U_11
_atom_site_aniso_U_22
_atom_site_aniso_U_33
_atom_site_aniso_U_12
_atom_site_aniso_U_13
_atom_site_aniso_U_23
Si1 Si4+ 0.0031 0.0031 0.003 -0.0001 0 0
Al1 Al3+ 0.0068 0.0043 0.0028 0.0018 0 0
Al2 Al3+ 0.0037 0.0033 0.004 -0.0002 0 0
O1 O2- 0.0063 0.0035 0.0038 -0.001 0 0
O2 O2- 0.0039 0.0042 0.0037 -0.0009 0 0
O3 O2- 0.0036 0.0034 0.0111 0.0002 0 0
O4 O2- 0.0051 0.0052 0.0035 -0.001 -0.0006 0.0008
#End of data_84614-ICSD


