data_24599-ICSD
#?2014 by Fachinformationszentrum Karlsruhe, and the U.S. Secretary of 
#Commerce on behalf of the United States.  All rights reserved.
_database_code_ICSD                24599
_audit_creation_date               1980/01/01
_audit_update_record               1988/03/30
_chemical_name_systematic          'Potassium Tetrathiophosphate'
_chemical_formula_structural       'K3 P S4'
_chemical_formula_sum              'K3 P1 S4'
_publ_section_title
;
Die Kristallstruktur von Kalium-tetrathiophosphat K3 P S4
;
loop_
_citation_id
_citation_journal_abbrev
_citation_year
_citation_journal_volume
_citation_page_first
_citation_page_last
_citation_journal_id_ASTM
primary
;
Zeitschrift fuer Naturforschung, Teil B. Anorganische Chemie, 
Organische Chemie (2,1947-32,1977)
;
 1965 20 811 811 ZENBAX
_publ_author_name
;
Schaefer, H.;Schaefer, G.;Weiss, A.
;
_cell_length_a                     9.10(1)
_cell_length_b                     10.51(1)
_cell_length_c                     9.01(1)
_cell_angle_alpha                  90.
_cell_angle_beta                   90.
_cell_angle_gamma                  90.
_cell_volume                       861.73
_cell_formula_units_Z              4
_symmetry_space_group_name_H-M     'P n m a'
_symmetry_Int_Tables_number        62
_refine_ls_R_factor_all            .13
loop_
_symmetry_equiv_pos_site_id
_symmetry_equiv_pos_as_xyz
  1	'x+.5, y, -z+.5'
  2	'x, -y+.5, z'
  3	'-x+.5, y+.5, z+.5'
  4	'-x, -y, -z'
  5	'-x+.5, -y, z+.5'
  6	'-x, y+.5, -z'
  7	'x+.5, -y+.5, -z+.5'
  8	'x, y, z'
loop_
_atom_type_symbol
_atom_type_oxidation_number
K1+	1
P5+	5
S2-	-2
loop_
_atom_site_label
_atom_site_type_symbol
_atom_site_symmetry_multiplicity
_atom_site_Wyckoff_symbol
_atom_site_fract_x
_atom_site_fract_y
_atom_site_fract_z
_atom_site_occupancy
_atom_site_attached_hydrogens
P1 P5+ 4 c 0.276 0.25 0.025 1. 0 
S1 S2- 4 c 0.292 0.25 0.248 1. 0 
S2 S2- 4 c 0.478 0.25 0.926 1. 0 
S3 S2- 8 d 0.168 0.085 0.959 1. 0 
K1 K1+ 4 c 0.352 0.25 0.585 1. 0 
K2 K1+ 8 d 0.548 0.042 0.196 1. 0 

#End of data_24599-ICSD


