data_8166-ICSD
#?2014 by Fachinformationszentrum Karlsruhe, and the U.S. Secretary of 
#Commerce on behalf of the United States.  All rights reserved.
_database_code_ICSD                8166
_audit_creation_date               1980/01/01
_audit_update_record               2007/08/01
_chemical_name_systematic          'Lead Silver Antimony Sulfide'
_chemical_formula_structural       'Pb Ag Sb S3'
_chemical_formula_sum              'Ag1 Pb1 S3 Sb1'
_chemical_name_mineral             Freieslebenite
_publ_section_title
;
The crystal structure of freieslebenite, Pb Ag Sb S3
;
loop_
_citation_id
_citation_journal_abbrev
_citation_year
_citation_journal_volume
_citation_page_first
_citation_page_last
_citation_journal_id_ASTM
primary
;
Zeitschrift fuer Kristallographie, Kristallgeometrie, Kristallphysik, 
Kristallchemie (-144,1977)
;
 1974 139 85 102 ZEKGAX
_publ_author_name                  'Ito, T.;Nowacki, W.'
_cell_length_a                     7.518(1)
_cell_length_b                     12.809(4)
_cell_length_c                     5.940(1)
_cell_angle_alpha                  90.
_cell_angle_beta                   92.25(1)
_cell_angle_gamma                  90.
_cell_volume                       571.57
_cell_formula_units_Z              4
_symmetry_space_group_name_H-M     'P 1 21/a 1'
_symmetry_Int_Tables_number        14
_refine_ls_R_factor_all            .032
loop_
_symmetry_equiv_pos_site_id
_symmetry_equiv_pos_as_xyz
  1	'x+.5, -y+.5, z'
  2	'-x, -y, -z'
  3	'-x+.5, y+.5, -z'
  4	'x, y, z'
loop_
_atom_type_symbol
_atom_type_oxidation_number
Ag1+	1
Pb2+	2
S2-	-2
Sb3+	3
loop_
_atom_site_label
_atom_site_type_symbol
_atom_site_symmetry_multiplicity
_atom_site_Wyckoff_symbol
_atom_site_fract_x
_atom_site_fract_y
_atom_site_fract_z
_atom_site_occupancy
_atom_site_attached_hydrogens
Sb1 Sb3+ 4 e 0.36516(12) 0.08716(7) 0.27172(15) 1. 0 
Pb1 Pb2+ 4 e 0.35000(8) 0.41512(5) 0.25309(10) 1. 0 
Ag1 Ag1+ 4 e 0.37786(18) 0.75971(11) 0.2117(2) 1. 0 
S1 S2- 4 e 0.1384(5) 0.2192(3) 0.3457(7) 1. 0 
S2 S2- 4 e 0.1350(5) 0.6215(3) 0.1308(6) 1. 0 
S3 S2- 4 e 0.1475(5) 0.9416(3) 0.2659(6) 1. 0 

loop_
_atom_site_aniso_label
_atom_site_aniso_type_symbol
_atom_site_aniso_U_11
_atom_site_aniso_U_22
_atom_site_aniso_U_33
_atom_site_aniso_U_12
_atom_site_aniso_U_13
_atom_site_aniso_U_23
Sb1 Sb3+ 0.0130(4) 0.0155(4) 0.0162(4) -.0009(3) 0.0003(3) 0.0008(4)
Pb1 Pb2+ 0.0194(3) 0.0237(2) 0.0230(3) 0.0005(2) 0.0012(2) 0.0013(3)
Ag1 Ag1+ 0.0354(7) 0.0347(7) 0.0386(7) -.0141(6) 0.0031(6) 0.0041(6)
S1 S2- 0.0142(17) 0.0134(17) 0.0249(18) -.0011(13) 0.0028(14) -.0020(4)
S2 S2- 0.0170(17) 0.0198(18) 0.0151(17) 0.0035(14) 0.0024(13) -.0001(14)
S3 S2- 0.0142(17) 0.0131(16) 0.0180(16) -.0016(13) 0.0038(13) 0.0012(14)
#End of data_8166-ICSD


