data_2103-ICSD
#?2014 by Fachinformationszentrum Karlsruhe, and the U.S. Secretary of 
#Commerce on behalf of the United States.  All rights reserved.
_database_code_ICSD                2103
_audit_creation_date               1980/01/01
_audit_update_record               2012/08/01
_chemical_name_systematic          'Sodium Catena-vanadate - Alpha'
_chemical_formula_structural       'Na (V O3)'
_chemical_formula_sum              'Na1 O3 V1'
_publ_section_title                'Alpha form of sodium metavanadate'
loop_
_citation_id
_citation_journal_abbrev
_citation_year
_citation_journal_volume
_citation_page_first
_citation_page_last
_citation_journal_id_ASTM
primary 'Acta Crystallographica B (24,1968-38,1982)' 1974 30 1628 1630 ACBCAR
2 Ferroelectrics 1975 9 49 56 FEROA8
3 'Golden Book of Phase Transitions, Wroclaw' 2002 1 1 123 GBOPT5
_publ_author_name                  'Marumo, F.;Isobe, M.;Iwai, S.I.'
_cell_length_a                     10.552(3)
_cell_length_b                     9.468(2)
_cell_length_c                     5.879(2)
_cell_angle_alpha                  90.
_cell_angle_beta                   108.47(3)
_cell_angle_gamma                  90.
_cell_volume                       557.09
_cell_formula_units_Z              8
_symmetry_space_group_name_H-M     'C 1 2/c 1'
_symmetry_Int_Tables_number        15
_refine_ls_R_factor_all            .024
loop_
_symmetry_equiv_pos_site_id
_symmetry_equiv_pos_as_xyz
  1	'x, -y, z+.5'
  2	'-x, -y, -z'
  3	'-x, y, -z+.5'
  4	'x, y, z'
  5	'x+.5, -y+.5, z+.5'
  6	'-x+.5, -y+.5, -z'
  7	'-x+.5, y+.5, -z+.5'
  8	'x+.5, y+.5, z'
loop_
_atom_type_symbol
_atom_type_oxidation_number
Na1+	1
O2-	-2
V5+	5
loop_
_atom_site_label
_atom_site_type_symbol
_atom_site_symmetry_multiplicity
_atom_site_Wyckoff_symbol
_atom_site_fract_x
_atom_site_fract_y
_atom_site_fract_z
_atom_site_occupancy
_atom_site_attached_hydrogens
V1 V5+ 8 f 0.29227(3) 0.08979(3) 0.26127(5) 1. 0 
Na1 Na1+ 4 e 0.5 0.20571(15) 0.75 1. 0 
Na2 Na1+ 4 e 0.5 0.41223(13) 0.25 1. 0 
O1 O2- 8 f 0.12750(14) 0.10125(16) 0.16687(25) 1. 0 
O2 O2- 8 f 0.35556(17) 0.24768(18) 0.32358(29) 1. 0 
O3 O2- 8 f 0.35245(15) 0.00741(18) 0.03818(26) 1. 0 

#End of data_2103-ICSD


