data_76976-ICSD
#?2014 by Fachinformationszentrum Karlsruhe, and the U.S. Secretary of 
#Commerce on behalf of the United States.  All rights reserved.
_database_code_ICSD                76976
_audit_creation_date               2001/07/16
_chemical_name_systematic          'Potassium Catena-bismutate'
_chemical_formula_structural       'K (Bi O3)'
_chemical_formula_sum              'Bi1 K1 O3'
_publ_section_title
;
Roentgenographische Untersuchungen an Kalium metabismutat und 
Wismutsaeure
;
loop_
_citation_id
_citation_journal_abbrev
_citation_year
_citation_journal_volume
_citation_page_first
_citation_page_last
_citation_journal_id_ASTM
primary
;
Anzeiger der Oesterreichischen Akademie der Wissenschaften, 
Mathematisch-Naturwissenschaftliche Klasse
;
 1948 85 85 87 OSAWA8
_publ_author_name                  'Zemann, J.'
_cell_length_a                     10.01(1)
_cell_length_b                     10.01
_cell_length_c                     10.01
_cell_angle_alpha                  90.
_cell_angle_beta                   90.
_cell_angle_gamma                  90.
_cell_volume                       1003
_cell_formula_units_Z              12
_symmetry_space_group_name_H-M     'P n -3 S'
_symmetry_Int_Tables_number        201
loop_
_symmetry_equiv_pos_site_id
_symmetry_equiv_pos_as_xyz
  1	'-z+.5, x+.5, y+.5'
  2	'z+.5, x+.5, -y+.5'
  3	'z+.5, -x+.5, y+.5'
  4	'-z+.5, -x+.5, -y+.5'
  5	'y+.5, -z+.5, x+.5'
  6	'-y+.5, z+.5, x+.5'
  7	'y+.5, z+.5, -x+.5'
  8	'-y+.5, -z+.5, -x+.5'
  9	'x+.5, y+.5, -z+.5'
 10	'x+.5, -y+.5, z+.5'
 11	'-x+.5, y+.5, z+.5'
 12	'-x+.5, -y+.5, -z+.5'
 13	'z, -x, -y'
 14	'-z, -x, y'
 15	'-z, x, -y'
 16	'z, x, y'
 17	'-y, z, -x'
 18	'y, -z, -x'
 19	'-y, -z, x'
 20	'y, z, x'
 21	'-x, -y, z'
 22	'-x, y, -z'
 23	'x, -y, -z'
 24	'x, y, z'
loop_
_atom_type_symbol
_atom_type_oxidation_number
Bi5+	5
K1+	1
O2-	-2
loop_
_atom_site_label
_atom_site_type_symbol
_atom_site_symmetry_multiplicity
_atom_site_Wyckoff_symbol
_atom_site_fract_x
_atom_site_fract_y
_atom_site_fract_z
_atom_site_occupancy
_atom_site_attached_hydrogens
K1 K1+ 4 c 0.75 0.75 0.75 1. 0 
K2 K1+ 8 e 0.14 0.14 0.14 1. 0 
Bi1 Bi5+ 12 g 0.333 0.5 0 1. 0 
O1 O2- 12 f 0.365 0 0 1. 0 
O2 O2- 24 h 0.29 0 0.33 1. 0 

#End of data_76976-ICSD


