data_34106-ICSD
#?2014 by Fachinformationszentrum Karlsruhe, and the U.S. Secretary of 
#Commerce on behalf of the United States.  All rights reserved.
_database_code_ICSD                34106
_audit_creation_date               1980/12/31
_audit_update_record               2007/08/01
_chemical_name_systematic
;
Lithium Silicon Oxide Nitride - Alpha
;
_chemical_formula_structural       'Li Si O N'
_chemical_formula_sum              'Li1 N1 O1 Si1'
_publ_section_title
;
Etude d'une structure tetraedrique de type wurtzite presentant un 
nouvel arrangement atomique
;
loop_
_citation_id
_citation_journal_abbrev
_citation_year
_citation_journal_volume
_citation_page_first
_citation_page_last
_citation_journal_id_ASTM
primary 'Annales de Chimie (Paris) (Vol=Year)' 1980 5 647 655 ANCPAC
_publ_author_name
;
Laurent, Y.;Grekov, F.F.;David, J.;Guyader, J.
;
_cell_length_a                     5.200(1)
_cell_length_b                     6.395(2)
_cell_length_c                     4.728(2)
_cell_angle_alpha                  90.
_cell_angle_beta                   90.
_cell_angle_gamma                  90.
_cell_volume                       157.22
_cell_formula_units_Z              4
_symmetry_space_group_name_H-M     'P c a 21'
_symmetry_Int_Tables_number        29
_refine_ls_R_factor_all            .069
loop_
_symmetry_equiv_pos_site_id
_symmetry_equiv_pos_as_xyz
  1	'x+.5, -y, z'
  2	'-x+.5, y, z+.5'
  3	'-x, -y, z+.5'
  4	'x, y, z'
loop_
_atom_type_symbol
_atom_type_oxidation_number
Li1+	1
N3-	-3
O2-	-2
Si4+	4
loop_
_atom_site_label
_atom_site_type_symbol
_atom_site_symmetry_multiplicity
_atom_site_Wyckoff_symbol
_atom_site_fract_x
_atom_site_fract_y
_atom_site_fract_z
_atom_site_occupancy
_atom_site_attached_hydrogens
_atom_site_B_iso_or_equiv
Li1 Li1+ 4 a 0.596(14) 0.369(16) 0.038(17) 1. 0 -.8 
Si1 Si4+ 4 a 0.088(3) 0.125(2) 0 1. 0 1.64 
O1 O2- 4 a 0.534(5) 0.337(5) 0.574(5) 1. 0 1.54 
N1 N3- 4 a 0.101(8) 0.082(4) 0.638(6) 1. 0 -.44 

#End of data_34106-ICSD


