data_30990-ICSD
#?2014 by Fachinformationszentrum Karlsruhe, and the U.S. Secretary of 
#Commerce on behalf of the United States.  All rights reserved.
_database_code_ICSD                30990
_audit_creation_date               1987/03/16
_audit_update_record               1987/03/17
_chemical_name_systematic          'Dipotassium Trithionate'
_chemical_formula_structural       'K2 S3 O6'
_chemical_formula_sum              'K2 O6 S3'
_publ_section_title
;
Experimental charge density in polythionate anions I. X-ray study of 
electron density distribution in potassium trithionate, K2 S3 O6
;
loop_
_citation_id
_citation_journal_abbrev
_citation_year
_citation_journal_volume
_citation_page_first
_citation_page_last
_citation_journal_id_ASTM
primary 'Zeitschrift fuer Kristallographie (1979-2010)' 1985 173 59 74 ZEKRDZ
2 'Acta Crystallographica B (24,1968-38,1982)' 1979 35 1967 1970 ACBCAR
_publ_author_name                  'Christidis, P.C.;Rentzeperis, P.J.'
_cell_length_a                     9.794(1)
_cell_length_b                     13.690(1)
_cell_length_c                     5.742(1)
_cell_angle_alpha                  90.
_cell_angle_beta                   90.
_cell_angle_gamma                  90.
_cell_volume                       769.89
_cell_formula_units_Z              4
_symmetry_space_group_name_H-M     'P n a m'
_symmetry_Int_Tables_number        62
_refine_ls_R_factor_all            .028
loop_
_symmetry_equiv_pos_site_id
_symmetry_equiv_pos_as_xyz
  1	'x+.5, -y+.5, z'
  2	'x, y, -z+.5'
  3	'-x+.5, y+.5, z+.5'
  4	'-x, -y, -z'
  5	'-x+.5, y+.5, -z'
  6	'-x, -y, z+.5'
  7	'x+.5, -y+.5, -z+.5'
  8	'x, y, z'
loop_
_atom_type_symbol
_atom_type_oxidation_number
K1+	1
O2-	-2
S2-	-2
S6+	6
loop_
_atom_site_label
_atom_site_type_symbol
_atom_site_symmetry_multiplicity
_atom_site_Wyckoff_symbol
_atom_site_fract_x
_atom_site_fract_y
_atom_site_fract_z
_atom_site_occupancy
_atom_site_attached_hydrogens
K1 K1+ 4 c 0.13234(8) 0.09164(5) 0.25 1. 0 
K2 K1+ 4 c 0.17919(8) -.23664(5) 0.25 1. 0 
S1 S6+ 4 c 0.02995(6) 0.32418(5) 0.25 1. 0 
S2 S2- 4 c 0.09095(8) 0.47106(6) 0.25 1. 0 
S3 S6+ 4 c 0.30198(7) 0.47077(5) 0.25 1. 0 
O1 O2- 4 c -.11574(24) 0.33809(21) 0.25 1. 0 
O2 O2- 4 c 0.32365(24) 0.57631(15) 0.25 1. 0 
O3 O2- 8 d 0.08244(20) 0.27834(13) 0.04091(31) 1. 0 
O4 O2- 8 d 0.35180(17) 0.42370(12) 0.03995(31) 1. 0 

loop_
_atom_site_aniso_label
_atom_site_aniso_type_symbol
_atom_site_aniso_U_11
_atom_site_aniso_U_22
_atom_site_aniso_U_33
_atom_site_aniso_U_12
_atom_site_aniso_U_13
_atom_site_aniso_U_23
K1 K1+ 0.0250(2) 0.0267(2) 0.0270(2) -.0016(2) 0 0
K2 K1+ 0.0391(3) 0.0275(3) 0.0269(3) 0.0010(2) 0 0
S1 S6+ 0.0170(2) 0.0242(3) 0.0301(3) 0.0002(2) 0 0
S2 S2- 0.0215(3) 0.0227(3) 0.0585(5) 0.0041(2) 0 0
S3 S6+ 0.0226(2) 0.0206(2) 0.0201(2) -.0011(12) 0 0
O1 O2- 0.0157(9) 0.0389(14) 0.1252(32) -.0008(9) 0 0
O2 O2- 0.0343(11) 0.0198(8) 0.0360(11) -.0037(7) 0 0
O3 O2- 0.0534(10) 0.0357(8) 0.0290(81) -.0056(8) 0.0060(8) -.0064(7)
O4 O2- 0.0375(8) 0.0337(7) 0.0308(8) -.0015(6) 0.0118(7) -.0067(6)
#End of data_30990-ICSD


