data_81678-ICSD
#?2014 by Fachinformationszentrum Karlsruhe, and the U.S. Secretary of 
#Commerce on behalf of the United States.  All rights reserved.
_database_code_ICSD                81678
_audit_creation_date               1997/05/13
_chemical_name_systematic
;
Disodium Copper(I) Trithioantimonate
;
_chemical_formula_structural       'Na2 Cu (Sb S3)'
_chemical_formula_sum              'Cu1 Na2 S3 Sb1'
_publ_section_title
;
Synthesis, structure, and characterization of Na2 Cu Sb S3, a new 
sulfosalt derivative from supercritical ethylenediamine
;
loop_
_citation_id
_citation_journal_abbrev
_citation_year
_citation_journal_volume
_citation_page_first
_citation_page_last
_citation_journal_id_ASTM
primary 'European Journal of Solid State Inorganic Chemistry'
 1996 33 765 782 EJSCE5
_publ_author_name
;
Jerome, J.E.;Schimek, G.L.;Drake, G.W.;Kolis, J.W.
;
_cell_length_a                     5.847(2)
_cell_length_b                     17.146(5)
_cell_length_c                     6.776(2)
_cell_angle_alpha                  90.
_cell_angle_beta                   113.21(2)
_cell_angle_gamma                  90.
_cell_volume                       624.33
_cell_formula_units_Z              4
_symmetry_space_group_name_H-M     'P 1 21/n 1'
_symmetry_Int_Tables_number        14
_refine_ls_R_factor_all            .026
loop_
_symmetry_equiv_pos_site_id
_symmetry_equiv_pos_as_xyz
  1	'-x+.5, y+.5, -z+.5'
  2	'-x, -y, -z'
  3	'x+.5, -y+.5, z+.5'
  4	'x, y, z'
loop_
_atom_type_symbol
_atom_type_oxidation_number
Cu1+	1
Na1+	1
S2-	-2
Sb3+	3
loop_
_atom_site_label
_atom_site_type_symbol
_atom_site_symmetry_multiplicity
_atom_site_Wyckoff_symbol
_atom_site_fract_x
_atom_site_fract_y
_atom_site_fract_z
_atom_site_occupancy
_atom_site_attached_hydrogens
_atom_site_U_iso_or_equiv
Sb1 Sb3+ 4 e 0.2220(1) 0.8268(1) 0.4806(1) 1. 0 0.012(1) 
Cu1 Cu1+ 4 e 0.0172(2) 0.7878(1) 0.8997(2) 1. 0 0.024(1) 
S1 S2- 4 e 0.8339(3) 0.8056(1) 0.5355(3) 1. 0 0.015(1) 
S2 S2- 4 e 0.0543(4) 0.8881(1) 0.1311(3) 1. 0 0.016(1) 
S3 S2- 4 e 0.3523(3) 0.9419(1) 0.6947(3) 1. 0 0.016(1) 
Na1 Na1+ 4 e 0.1558(6) 0.0384(2) 0.3082(5) 1. 0 0.022(1) 
Na2 Na1+ 4 e 0.0541(6) 0.6134(2) 0.6179(5) 1. 0 0.031(1) 

#End of data_81678-ICSD


