data_189974-ICSD
#?2014 by Fachinformationszentrum Karlsruhe, and the U.S. Secretary of 
#Commerce on behalf of the United States.  All rights reserved.
_database_code_ICSD                189974
_audit_creation_date               2014/08/01
_chemical_name_systematic          'Dimagnesium Silicate'
_chemical_formula_structural       'Mg2 (Si O4)'
_chemical_formula_sum              'Mg2 O4 Si1'
_chemical_name_mineral             Forsterite
_publ_section_title
;
Phase transitions and equation of state of forsterite to 90 GPa from 
single-crystal X-ray diffraction and molecular modeling
;
loop_
_citation_id
_citation_journal_abbrev
_citation_year
_citation_journal_volume
_citation_journal_issue
_citation_page_first
_citation_page_last
_citation_journal_id_ASTM
primary 'American Mineralogist' 2014 99 1 35 43 AMMIAY
_publ_author_name
;
Gregory J. Finkelstein;Przemyslaw K. Dera;Sandro Jahn;Artem R. 
Oganov;Christopher M. Holl;Yue Meng;Thomas S. Duffy
;
_cell_length_a                     2.591
_cell_length_b                     8.726
_cell_length_c                     8.794
_cell_angle_alpha                  90.
_cell_angle_beta                   90.
_cell_angle_gamma                  90.
_cell_volume                       198.82
_cell_formula_units_Z              4
_symmetry_space_group_name_H-M     'C m c 21'
_symmetry_Int_Tables_number        36
loop_
_symmetry_equiv_pos_site_id
_symmetry_equiv_pos_as_xyz
  1	'x, -y, z+.5'
  2	'-x, -y, z+.5'
  3	'-x, y, z'
  4	'x, y, z'
  5	'x+.5, -y+.5, z+.5'
  6	'-x+.5, -y+.5, z+.5'
  7	'-x+.5, y+.5, z'
  8	'x+.5, y+.5, z'
loop_
_atom_type_symbol
_atom_type_oxidation_number
Mg2+	2
O2-	-2
Si4+	4
loop_
_atom_site_label
_atom_site_type_symbol
_atom_site_symmetry_multiplicity
_atom_site_Wyckoff_symbol
_atom_site_fract_x
_atom_site_fract_y
_atom_site_fract_z
_atom_site_occupancy
_atom_site_attached_hydrogens
Mg1 Mg2+ 4 a 0.5 0.3636 0.3541 1. 0 
Mg2 Mg2+ 4 a 0.5 0.8861 0.6777 1. 0 
Si1 Si4+ 4 a 0 0.8720 0 1. 0 
O1 O2- 4 a 0.5 0.00466 0.4406 1. 0 
O2 O2- 4 a 0.5 0.2537 0.5490 1. 0 
O3 O2- 4 a 0.5 0.7048 0.3247 1. 0 
O4 O2- 4 a 0.5 0.4526 0.1647 1. 0 

#End of data_189974-ICSD


