data_710013-ICSD
#?2014 by Fachinformationszentrum Karlsruhe, and the U.S. Secretary of 
#Commerce on behalf of the United States.  All rights reserved.
_database_code_ICSD                710013
_audit_creation_date               2010/02/01
_chemical_name_systematic
;
Dithallium Hexaaquazinc(II) Bis(selenate(VI))
;
_chemical_formula_structural       'Tl2 (Zn (H2 O)6) (Se O4)2'
_chemical_formula_sum              'H12 O14 Se2 Tl2 Zn1'
_publ_section_title
;
Crystal structure of Tutton¡§s salts Tl2 [M(II) (H2 O)6] (Se O4)2, 
M(II) = Mg, Mn, Co, Ni, Cu, Zn
;
loop_
_citation_id
_citation_journal_abbrev
_citation_year
_citation_journal_volume
_citation_journal_issue
_citation_page_first
_citation_page_last
_citation_journal_id_ASTM
primary 'Zeitschrift fuer Kristallographie - New Crystal Structures'
 2009 224 3 360 364 ZKNSFT
_publ_author_name
;
Euler, H.;Barbier, B.;Meents, A.;Kirfel, A.
;
_cell_length_a                     9.3700(14)
_cell_length_b                     12.5905(15)
_cell_length_c                     6.3080(13)
_cell_angle_alpha                  90.00
_cell_angle_beta                   105.609(13)
_cell_angle_gamma                  90.00
_cell_volume                       716.73
_cell_formula_units_Z              2
_symmetry_space_group_name_H-M     'P 1 21/a 1'
_symmetry_Int_Tables_number        14
_refine_ls_R_factor_all            .0266
loop_
_symmetry_equiv_pos_site_id
_symmetry_equiv_pos_as_xyz
  1	'x+.5, -y+.5, z'
  2	'-x, -y, -z'
  3	'-x+.5, y+.5, -z'
  4	'x, y, z'
loop_
_atom_type_symbol
_atom_type_oxidation_number
H1+	1
O2-	-2
Se6+	6
Tl1+	1
Zn2+	2
loop_
_atom_site_label
_atom_site_type_symbol
_atom_site_symmetry_multiplicity
_atom_site_Wyckoff_symbol
_atom_site_fract_x
_atom_site_fract_y
_atom_site_fract_z
_atom_site_occupancy
_atom_site_attached_hydrogens
_atom_site_U_iso_or_equiv
Zn1 Zn2+ 2 a 0.0000 0.0000 0.0000 1 0 0.0194(3) 
Se1 Se6+ 4 e 0.40940(8) 0.13556(5) 0.73789(12) 1 0 0.01989(18) 
O1 O2- 4 e 0.4175(7) 0.2363(4) 0.5771(10) 1 0 0.0378(14) 
O2 O2- 4 e 0.5607(6) 0.0668(5) 0.7823(11) 1 0 0.0469(17) 
O3 O2- 4 e 0.2722(5) 0.0599(4) 0.6086(9) 1 0 0.0270(12) 
O4 O2- 4 e 0.3815(6) 0.1786(4) 0.9672(9) 1 0 0.0317(13) 
O5 O2- 4 e 0.1660(6) 0.1071(4) 0.1647(8) 1 0 0.0278(12) 
O6 O2- 4 e -0.1634(6) 0.1099(4) 0.0316(9) 1 0 0.0274(12) 
O7 O2- 4 e -0.0025(6) -0.0653(4) 0.2960(8) 1 0 0.0263(12) 
Tl1 Tl1+ 4 e 0.13393(4) 0.34767(3) 0.35084(6) 1 0 0.03429(13) 
H1 H1+ 4 e 0.2025 0.0881 0.2945 1 0 0.038(11) 
H2 H1+ 4 e 0.2231 0.1219 0.1136 1 0 0.038(11) 
H3 H1+ 4 e -0.2515 0.1008 -0.0636 1 0 0.038(11) 
H4 H1+ 4 e -0.1474 0.1688 0.0070 1 0 0.038(11) 
H5 H1+ 4 e -0.0702 -0.0614 0.3250 1 0 0.038(11) 
H6 H1+ 4 e 0.0218 -0.1276 0.3262 1 0 0.038(11) 

loop_
_atom_site_aniso_label
_atom_site_aniso_type_symbol
_atom_site_aniso_U_11
_atom_site_aniso_U_22
_atom_site_aniso_U_33
_atom_site_aniso_U_12
_atom_site_aniso_U_13
_atom_site_aniso_U_23
Zn1 Zn2+ 0.0174(6) 0.0202(6) 0.0206(7) -0.0013(4) 0.0049(5) 0.0002(5)
Se1 Se6+ 0.0173(4) 0.0194(4) 0.0225(4) -0.0027(3) 0.0046(3) -0.0021(3)
O1 O2- 0.058(4) 0.024(3) 0.034(4) -0.012(3) 0.017(3) 0.005(2)
O2 O2- 0.019(3) 0.054(4) 0.062(5) 0.009(3) 0.003(3) -0.005(3)
O3 O2- 0.018(3) 0.030(3) 0.035(3) -0.009(2) 0.009(2) -0.012(2)
O4 O2- 0.044(3) 0.030(3) 0.026(3) -0.004(3) 0.018(2) -0.007(2)
O5 O2- 0.025(3) 0.033(3) 0.024(3) -0.003(2) 0.005(2) 0.001(2)
O6 O2- 0.020(3) 0.024(3) 0.039(3) -0.001(2) 0.009(2) 0.001(2)
O7 O2- 0.032(3) 0.024(3) 0.028(3) -0.001(2) 0.017(2) 0.005(2)
Tl1 Tl1+ 0.0355(2) 0.03377(19) 0.0353(2) -0.00144(16) 0.01239(13) 
0.00132(16)
#End of data_710013-ICSD


