data_4256-ICSD
#?2014 by Fachinformationszentrum Karlsruhe, and the U.S. Secretary of 
#Commerce on behalf of the United States.  All rights reserved.
_database_code_ICSD                4256
_audit_creation_date               1980/01/01
_audit_update_record               1999/06/02
_chemical_name_systematic          'Calcium Diberyllium Phosphate'
_chemical_formula_structural       'Ca Be2 (P O4)2'
_chemical_formula_sum              'Be2 Ca1 O8 P2'
_chemical_name_mineral             Hurlbutite
_publ_section_title
;
Refinement of the crystal structure of horlbathite Ca Be2 P2 O8
;
loop_
_citation_id
_citation_journal_abbrev
_citation_year
_citation_journal_volume
_citation_page_first
_citation_page_last
_citation_journal_id_ASTM
primary Kristallografiya 1974 19 1283 1285 KRISAJ
2 'Soviet Physics, Crystallography (= Kristallografiya)'
 1974 19 798 799 SPHCA6
_publ_author_name
;
Bakakin, V.V.;Rylov, G.M.;Alekseev, V.I.
;
_cell_length_a                     8.306(1)
_cell_length_b                     8.790(1)
_cell_length_c                     7.804(1)
_cell_angle_alpha                  90.
_cell_angle_beta                   89.48(5)
_cell_angle_gamma                  90.
_cell_volume                       569.74
_cell_formula_units_Z              4
_symmetry_space_group_name_H-M     'P 1 21/a 1'
_symmetry_Int_Tables_number        14
_refine_ls_R_factor_all            .071
loop_
_symmetry_equiv_pos_site_id
_symmetry_equiv_pos_as_xyz
  1	'x+.5, -y+.5, z'
  2	'-x, -y, -z'
  3	'-x+.5, y+.5, -z'
  4	'x, y, z'
loop_
_atom_type_symbol
_atom_type_oxidation_number
Be2+	2
Ca2+	2
O2-	-2
P5+	5
loop_
_atom_site_label
_atom_site_type_symbol
_atom_site_symmetry_multiplicity
_atom_site_Wyckoff_symbol
_atom_site_fract_x
_atom_site_fract_y
_atom_site_fract_z
_atom_site_occupancy
_atom_site_attached_hydrogens
_atom_site_B_iso_or_equiv
Ca1 Ca2+ 4 e 0.3870(3) 0.0859(3) 0.7561(2) 1. 0 0.45(2) 
P1 P5+ 4 e 0.2622(3) 0.4176(3) 0.5602(3) 1. 0 0.17(3) 
P2 P5+ 4 e 0.0588(3) 0.1979(3) 0.0605(3) 1. 0 0.1503(3) 
O1 O2- 4 e 0.1834(10) 0.0745(10) 0.5042(9) 1. 0 0.43(9) 
O2 O2- 4 e 0.1951(9) 0.0888(9) 0.9979(9) 1. 0 0.36(8) 
O3 O2- 4 e 0.1273(9) 0.3665(9) 0.4350(9) 1. 0 0.37(9) 
O4 O2- 4 e 0.1254(9) 0.3622(9) 0.0560(8) 1. 0 0.29(8) 
O5 O2- 4 e 0.4061(9) 0.3055(9) 0.5644(9) 1. 0 0.35(9) 
O6 O2- 4 e 0.4103(9) 0.3093(10) 0.9299(9) 1. 0 0.33(9) 
O7 O2- 4 e 0.0002(10) 0.1542(9) 0.2384(9) 1. 0 0.33(9) 
O8 O2- 4 e 0.1841(9) 0.4206(9) 0.7403(8) 1. 0 0.26(8) 
Be1 Be2+ 4 e 0.0549(16) 0.1940(16) 0.4276(15) 1. 0 0.32(15) 
Be2 Be2+ 4 e 0.2657(15) 0.4236(17) 0.9266(14) 1. 0 0.25(14) 

#End of data_4256-ICSD


