data_425757-ICSD
#?2014 by Fachinformationszentrum Karlsruhe, and the U.S. Secretary of 
#Commerce on behalf of the United States.  All rights reserved.
_database_code_ICSD                425757
_audit_creation_date               2014/02/01
_chemical_name_systematic          'Disilver Vanadate Arsenate'
_chemical_formula_structural       'Ag2 (V As O6)'
_chemical_formula_sum              'Ag2 As1 O6 V1'
_publ_section_title
;
Novel polyanonic topologies in Ag2 V As O6 and Ag6 V2 As2 O13
;
loop_
_citation_id
_citation_journal_abbrev
_citation_year
_citation_journal_volume
_citation_journal_issue
_citation_page_first
_citation_page_last
_citation_journal_id_ASTM
primary 'Zeitschrift fuer Naturforschung, B: Chemical Sciences'
 2013 68 5-6 611 615 ZNBSEN
_publ_author_name                  'Nuss, J.;Curda, J.;Jansen. M.'
_cell_length_a                     6.3913(10)
_cell_length_b                     6.4610(10)
_cell_length_c                     7.0661(11)
_cell_angle_alpha                  116.105(3)
_cell_angle_beta                   91.759(4)
_cell_angle_gamma                  90.067(4)
_cell_volume                       261.86
_cell_formula_units_Z              2
_symmetry_space_group_name_H-M     'P -1'
_symmetry_Int_Tables_number        2
_refine_ls_R_factor_all            .0576
loop_
_symmetry_equiv_pos_site_id
_symmetry_equiv_pos_as_xyz
  1	'-x, -y, -z'
  2	'x, y, z'
loop_
_atom_type_symbol
_atom_type_oxidation_number
Ag1+	1
As5+	5
O2-	-2
V5+	5
loop_
_atom_site_label
_atom_site_type_symbol
_atom_site_symmetry_multiplicity
_atom_site_Wyckoff_symbol
_atom_site_fract_x
_atom_site_fract_y
_atom_site_fract_z
_atom_site_occupancy
_atom_site_attached_hydrogens
_atom_site_U_iso_or_equiv
Ag1 Ag1+ 2 i 0.38584(11) 0.11569(15) 0.24636(13) 1 0 0.0397(2) 
Ag2 Ag1+ 2 i 0.37782(12) 0.62090(14) 0.28350(13) 1 0 0.0371(2) 
As1 As5+ 2 i 0.14978(8) 0.65686(11) 0.80521(8) 1 0 0.00917(15) 
V1 V5+ 2 i 0.08220(15) 0.12161(18) 0.73075(14) 1 0 0.00993(18) 
O1 O2- 2 i 0.3768(7) 0.6073(9) 0.6819(7) 1 0 0.0156(8) 
O2 O2- 2 i 0.1888(7) 0.7733(9) 0.0713(6) 1 0 0.0137(7) 
O3 O2- 2 i 0.0095(8) 0.4089(8) 0.7198(7) 1 0 0.0150(8) 
O4 O2- 2 i 0.0015(7) 0.8361(8) 0.7446(7) 1 0 0.0137(8) 
O5 O2- 2 i 0.7929(7) 0.0016(8) 0.4981(6) 1 0 0.0137(7) 
O6 O2- 2 i 0.2717(7) 0.2148(9) 0.9086(7) 1 0 0.0179(9) 

loop_
_atom_site_aniso_label
_atom_site_aniso_type_symbol
_atom_site_aniso_U_11
_atom_site_aniso_U_22
_atom_site_aniso_U_33
_atom_site_aniso_U_12
_atom_site_aniso_U_13
_atom_site_aniso_U_23
Ag1 Ag1+ 0.0222(4) 0.0395(4) 0.0658(5) -0.0150(3) -0.0054(3) 0.0313(4)
Ag2 Ag1+ 0.0233(3) 0.0363(4) 0.0569(5) 0.0139(3) -0.0023(2) 0.0255(3)
As1 As5+ 0.0085(2) 0.0085(2) 0.0113(2) 0.0017(2) 0.00220(16) 0.00496(18)
V1 V5+ 0.0100(4) 0.0085(4) 0.0123(4) 0.0017(3) 0.0019(3) 0.0053(3)
O1 O2- 0.0115(18) 0.018(2) 0.0171(18) 0.0026(16) 0.0038(13) 0.0069(15)
O2 O2- 0.0131(18) 0.015(2) 0.0136(17) 0.0035(16) 0.0018(13) 0.0064(14)
O3 O2- 0.017(2) 0.0068(18) 0.0207(19) 0.0008(15) 0.0022(14) 0.0059(14)
O4 O2- 0.0112(19) 0.0118(19) 0.0209(19) 0.0044(15) 0.0023(13) 0.0096(15)
O5 O2- 0.0155(19) 0.0125(18) 0.0136(16) 0.0038(16) 0.0044(13) 0.0059(14)
O6 O2- 0.0129(19) 0.019(2) 0.0189(19) 0.0008(17) -0.0037(14) 0.0056(16)
#End of data_425757-ICSD


