data_170843-ICSD
#?2014 by Fachinformationszentrum Karlsruhe, and the U.S. Secretary of 
#Commerce on behalf of the United States.  All rights reserved.
_database_code_ICSD                170843
_audit_creation_date               2006/04/01
_audit_update_record               2008/02/01
_chemical_name_systematic
;
Dipotassium Disilver Tetrathiogermanate
;
_chemical_formula_structural       'K2 Ag2 (Ge S4)'
_chemical_formula_sum              'Ag2 Ge1 K2 S4'
_publ_section_title
;
A solvothermal synthesis and structure of K2 Ag2 Ge S4 with the 
simplest helical chains
;
loop_
_citation_id
_citation_journal_abbrev
_citation_year
_citation_journal_volume
_citation_page_first
_citation_page_last
_citation_journal_id_ASTM
primary 'Inorganic Chemistry Communications' 2004 7 114 116 ICCOFP
_publ_author_name
;
An, Y.;Baiyin, M.;Liu, X.;Ji, M.;Jia, C.;Ning, G.
;
_cell_length_a                     13.2936(15)
_cell_length_b                     6.3590(9)
_cell_length_c                     12.401(2)
_cell_angle_alpha                  90.00
_cell_angle_beta                   122.118(10)
_cell_angle_gamma                  90.00
_cell_volume                       887.87
_cell_formula_units_Z              4
_symmetry_space_group_name_H-M     'C 1 2/c 1'
_symmetry_Int_Tables_number        15
_refine_ls_R_factor_all            .0391
loop_
_symmetry_equiv_pos_site_id
_symmetry_equiv_pos_as_xyz
  1	'x, -y, z+.5'
  2	'-x, -y, -z'
  3	'-x, y, -z+.5'
  4	'x, y, z'
  5	'x+.5, -y+.5, z+.5'
  6	'-x+.5, -y+.5, -z'
  7	'-x+.5, y+.5, -z+.5'
  8	'x+.5, y+.5, z'
loop_
_atom_type_symbol
_atom_type_oxidation_number
Ag1+	1
Ge4+	4
K1+	1
S2-	-2
loop_
_atom_site_label
_atom_site_type_symbol
_atom_site_symmetry_multiplicity
_atom_site_Wyckoff_symbol
_atom_site_fract_x
_atom_site_fract_y
_atom_site_fract_z
_atom_site_occupancy
_atom_site_attached_hydrogens
_atom_site_U_iso_or_equiv
Ge1 Ge4+ 4 e 0.0000 0.37502(9) 0.2500 1 0 0.01256(17) 
Ag1 Ag1+ 8 f 0.42361(3) 0.37506(6) 0.09720(4) 1 0 0.03642(18) 
K1 K1+ 8 f 0.18753(9) 0.62490(19) 0.12517(10) 1 0 0.0336(3) 
S1 S2- 8 f 0.04186(9) 0.18255(16) 0.12958(9) 1 0 0.0189(2) 
S2 S2- 8 f -0.16223(8) 0.56738(16) 0.12953(9) 1 0 0.0187(2) 

loop_
_atom_site_aniso_label
_atom_site_aniso_type_symbol
_atom_site_aniso_U_11
_atom_site_aniso_U_22
_atom_site_aniso_U_33
_atom_site_aniso_U_12
_atom_site_aniso_U_13
_atom_site_aniso_U_23
Ge1 Ge4+ 0.0130(3) 0.0108(3) 0.0135(3) 0.000 0.0069(2) 0.000
Ag1 Ag1+ 0.0407(3) 0.0175(2) 0.0579(3) -0.00562(13) 0.0308(2) 0.00020(16)
K1 K1+ 0.0306(5) 0.0461(7) 0.0202(5) -0.0095(4) 0.0109(4) 0.0001(4)
S1 S2- 0.0232(4) 0.0166(5) 0.0217(5) -0.0027(4) 0.0152(4) -0.0048(4)
S2 S2- 0.0152(4) 0.0171(5) 0.0210(5) 0.0017(3) 0.0076(4) 0.0047(4)
#End of data_170843-ICSD


