data_182599-ICSD
#?2014 by Fachinformationszentrum Karlsruhe, and the U.S. Secretary of 
#Commerce on behalf of the United States.  All rights reserved.
_database_code_ICSD                182599
_audit_creation_date               2012/02/01
_chemical_name_systematic
;
Barium Magnesium Tetrafluoride - Hp
;
_chemical_formula_structural       'Ba Mg F4'
_chemical_formula_sum              'Ba1 F4 Mg1'
_publ_section_title
;
Structural stability of Ba M F4 (M = Mg, Zn and Mn) at high pressures
;
loop_
_citation_id
_citation_journal_abbrev
_citation_year
_citation_journal_volume
_citation_page_first
_citation_page_last
_citation_journal_id_ASTM
primary 'Journal of Physics: Condensed Matter' 2011 23 215401-1 215401-13 JCOMEL
_publ_author_name
;
Posse, J.M.;Friese, K.;Grzechnik, A.
;
_cell_length_a                     4.046(14)
_cell_length_b                     13.86(7)
_cell_length_c                     5.63(3)
_cell_angle_alpha                  90.
_cell_angle_beta                   90.
_cell_angle_gamma                  90.
_cell_volume                       315.72
_cell_formula_units_Z              4
_symmetry_space_group_name_H-M     'C m c m'
_symmetry_Int_Tables_number        63
_refine_ls_R_factor_all            .074
loop_
_symmetry_equiv_pos_site_id
_symmetry_equiv_pos_as_xyz
  1	'-x, y, -z+.5'
  2	'-x, -y, z+.5'
  3	'-x, y, z'
  4	'-x, -y, -z'
  5	'x, -y, z+.5'
  6	'x, y, -z+.5'
  7	'x, -y, -z'
  8	'x, y, z'
  9	'-x+.5, y+.5, -z+.5'
 10	'-x+.5, -y+.5, z+.5'
 11	'-x+.5, y+.5, z'
 12	'-x+.5, -y+.5, -z'
 13	'x+.5, -y+.5, z+.5'
 14	'x+.5, y+.5, -z+.5'
 15	'x+.5, -y+.5, -z'
 16	'x+.5, y+.5, z'
loop_
_atom_type_symbol
_atom_type_oxidation_number
Ba2+	2
F1-	-1
Mg2+	2
loop_
_atom_site_label
_atom_site_type_symbol
_atom_site_symmetry_multiplicity
_atom_site_Wyckoff_symbol
_atom_site_fract_x
_atom_site_fract_y
_atom_site_fract_z
_atom_site_occupancy
_atom_site_attached_hydrogens
_atom_site_U_iso_or_equiv
Ba1 Ba2+ 4 c 0.5 0.3608(3) 0.750 1. 0 0.0202(13) 
Mg1 Mg2+ 4 c 0 0.4021(18) 0.250 1. 0 0.0132(15) 
F1 F1- 8 f 0 0.304(2) 0.489(2) 1. 0 0.0186(16) 
F2 F1- 4 b 0 0.5 0.5 1. 0 0.0186(16) 
F3 F1- 4 c 0.5 0.417(4) 0.250 1. 0 0.0186(16) 

#End of data_182599-ICSD


