data_415951-ICSD
#?2014 by Fachinformationszentrum Karlsruhe, and the U.S. Secretary of 
#Commerce on behalf of the United States.  All rights reserved.
_database_code_ICSD                415951
_audit_creation_date               2008/02/01
_chemical_name_systematic          'Vanadium(II) Tetrachloroaluminate'
_chemical_formula_structural       'V (Al Cl4)2'
_chemical_formula_sum              'Al2 Cl8 V1'
_publ_section_title
;
Synthese, Kristallstruktur und Eigenschaften von 
Vanadium(II)tetrachloroaluminat
;
loop_
_citation_id
_citation_journal_abbrev
_citation_year
_citation_journal_volume
_citation_journal_issue
_citation_page_first
_citation_page_last
_citation_journal_id_ASTM
primary 'Zeitschrift fuer Anorganische und Allgemeine Chemie (1950) (DE)'
 2007 633 9 1423 1428 ZAACAB
_publ_author_name                  'Kessler, U.;Mueller, R.'
_cell_length_a                     12.846(3)
_cell_length_b                     7.7634(18)
_cell_length_c                     11.6350(2)
_cell_angle_alpha                  90
_cell_angle_beta                   92.376(10)
_cell_angle_gamma                  90
_cell_volume                       1159.35
_cell_formula_units_Z              4
_symmetry_space_group_name_H-M     'I 1 2/c 1'
_symmetry_Int_Tables_number        15
_refine_ls_R_factor_all            .0639
loop_
_symmetry_equiv_pos_site_id
_symmetry_equiv_pos_as_xyz
  1	'-x, y, -z+.5'
  2	'-x, -y, -z'
  3	'x, -y, z+.5'
  4	'x, y, z'
  5	'-x+.5, y+.5, -z'
  6	'-x+.5, -y+.5, -z+.5'
  7	'x+.5, -y+.5, z'
  8	'x+.5, y+.5, z+.5'
loop_
_atom_type_symbol
_atom_type_oxidation_number
Al3+	3
Cl1-	-1
V2+	2
loop_
_atom_site_label
_atom_site_type_symbol
_atom_site_symmetry_multiplicity
_atom_site_Wyckoff_symbol
_atom_site_fract_x
_atom_site_fract_y
_atom_site_fract_z
_atom_site_occupancy
_atom_site_attached_hydrogens
_atom_site_U_iso_or_equiv
V1 V2+ 4 e 0.5000 0.49589(9) 0.7500 1 0 0.03048(18) 
Al1 Al3+ 8 f 0.58864(8) 0.75112(11) 0.55353(7) 1 0 0.0324(2) 
Cl1 Cl1- 8 f 0.65999(8) 0.97891(11) 0.60904(8) 1 0 0.0482(2) 
Cl2 Cl1- 8 f 0.58759(7) 0.73938(10) 0.36841(6) 1 0 0.0383(2) 
Cl3 Cl1- 8 f 0.43213(6) 0.72433(10) 0.61490(6) 1 0 0.03745(19) 
Cl4 Cl1- 8 f 0.65760(6) 0.52193(10) 0.63187(6) 1 0 0.03815(19) 

loop_
_atom_site_aniso_label
_atom_site_aniso_type_symbol
_atom_site_aniso_U_11
_atom_site_aniso_U_22
_atom_site_aniso_U_33
_atom_site_aniso_U_12
_atom_site_aniso_U_13
_atom_site_aniso_U_23
V1 V2+ 0.0380(4) 0.0329(4) 0.0206(3) 0.000 0.0014(3) 0.000
Al1 Al3+ 0.0395(5) 0.0339(5) 0.0237(4) -0.0016(4) 0.0010(3) 0.0009(3)
Cl1 Cl1- 0.0591(6) 0.0430(5) 0.0423(4) -0.0118(4) -0.0016(4) -0.0066(3)
Cl2 Cl1- 0.0533(5) 0.0387(4) 0.0227(3) -0.0068(3) 0.0005(3) 0.0000(3)
Cl3 Cl1- 0.0375(4) 0.0429(4) 0.0319(4) 0.0044(3) 0.0007(3) 0.0062(3)
Cl4 Cl1- 0.0402(4) 0.0442(4) 0.0304(4) 0.0071(3) 0.0049(3) 0.0049(3)
#End of data_415951-ICSD


