data_182574-ICSD
#?2014 by Fachinformationszentrum Karlsruhe, and the U.S. Secretary of 
#Commerce on behalf of the United States.  All rights reserved.
_database_code_ICSD                182574
_audit_creation_date               2012/02/01
_chemical_name_systematic
;
Tribarium Germanium Magnesium Tetranitride
;
_chemical_formula_structural       'Ba3 Ge Mg N4'
_chemical_formula_sum              'Ba3 Ge1 Mg1 N4'
_publ_section_title
;
A structural comparison between a new quaternary nitride, Ba3 Ge Mg 
N4, and its isostructural Sr analogue
;
loop_
_citation_id
_citation_journal_abbrev
_citation_year
_citation_journal_volume
_citation_journal_issue
_citation_page_first
_citation_page_last
_citation_journal_id_ASTM
primary 'Bulletin of the Korean Chemical Society' 2011 32 1 353 355 BKCSDE
_publ_author_name                  'Park, Dong Gon;DiSalvo, F.J.'
_cell_length_a                     6.159(1)
_cell_length_b                     10.558(2)
_cell_length_c                     10.048(2)
_cell_angle_alpha                  90.
_cell_angle_beta                   90.
_cell_angle_gamma                  90.
_cell_volume                       653.39
_cell_formula_units_Z              4
_symmetry_space_group_name_H-M     'P n n a'
_symmetry_Int_Tables_number        52
_refine_ls_R_factor_all            .0304
loop_
_symmetry_equiv_pos_site_id
_symmetry_equiv_pos_as_xyz
  1	'x+.5, -y+.5, z+.5'
  2	'-x, y+.5, z+.5'
  3	'x+.5, y, -z'
  4	'-x, -y, -z'
  5	'-x+.5, y+.5, -z+.5'
  6	'x, -y+.5, -z+.5'
  7	'-x+.5, -y, z'
  8	'x, y, z'
loop_
_atom_type_symbol
_atom_type_oxidation_number
Ba2+	2
Ge4+	4
Mg2+	2
N3-	-3
loop_
_atom_site_label
_atom_site_type_symbol
_atom_site_symmetry_multiplicity
_atom_site_Wyckoff_symbol
_atom_site_fract_x
_atom_site_fract_y
_atom_site_fract_z
_atom_site_occupancy
_atom_site_attached_hydrogens
_atom_site_U_iso_or_equiv
Ba1 Ba2+ 8 e 0.6156(1) 0.1564(1) 0.0893(1) 1. 0 0.006(1) 
Ba2 Ba2+ 4 c 0.250 0 0.5923(1) 1. 0 0.009(1) 
Ge1 Ge4+ 4 c 0.250 0 0.2682(1) 1. 0 0.005(1) 
Mg1 Mg2+ 4 d 0.1612(5) 0.250 0.250 1. 0 0.004(1) 
N1 N3- 8 e 0.0254(9) 0.0836(5) 0.1664(6) 1. 0 0.009(1) 
N2 N3- 8 e 0.3704(9) 0.3631(5) 0.1324(6) 1. 0 0.009(1) 

loop_
_atom_site_aniso_label
_atom_site_aniso_type_symbol
_atom_site_aniso_U_11
_atom_site_aniso_U_22
_atom_site_aniso_U_33
_atom_site_aniso_U_12
_atom_site_aniso_U_13
_atom_site_aniso_U_23
Ba1 Ba2+ 0.005(1) 0.006(1) 0.006(1) 0.001(1) 0.000(1) -0.001(1)
Ba2 Ba2+ 0.008(1) 0.012(1) 0.009(1) 0.002(1) 0. 0.
Ge1 Ge4+ 0.005(1) 0.005(1) 0.005(1) -0.001(1) 0. 0.
Mg1 Mg2+ 0.004(2) 0.003(2) 0.004(2) 0. 0. 0.000(1)
N1 N3- 0.008(3) 0.010(3) 0.010(3) -0.003(2) 0.000(2) 0.002(2)
N2 N3- 0.009(3) 0.005(3) 0.012(3) 0.002(2) 0.002(2) 0.000(2)
#End of data_182574-ICSD


