data_165903-ICSD
#?2014 by Fachinformationszentrum Karlsruhe, and the U.S. Secretary of 
#Commerce on behalf of the United States.  All rights reserved.
_database_code_ICSD                165903
_audit_creation_date               2010/08/01
_chemical_name_systematic          'Aluminium Vanadate'
_chemical_formula_structural       'Al (V O4)'
_chemical_formula_sum              'Al1 O4 V1'
_publ_section_title
;
Phase relations in the Al2 O3 - V2 O5 - Mo O3 system in the solid 
state. The crystal structure of Al V O4
;
loop_
_citation_id
_citation_journal_abbrev
_citation_year
_citation_journal_volume
_citation_journal_issue
_citation_page_first
_citation_page_last
_citation_journal_id_ASTM
primary 'Journal of Phase Equilibria and Diffusion' 2009 30 3 220 229 JPEDAV
_publ_author_name
;
Dabrowska, G.;Tabero, P.;Kurzawa, M.
;
_cell_length_a                     6.5323(1)
_cell_length_b                     7.7498(2)
_cell_length_c                     9.1233(3)
_cell_angle_alpha                  96.175(2)
_cell_angle_beta                   107.234(3)
_cell_angle_gamma                  101.404(3)
_cell_volume                       425.55
_cell_formula_units_Z              6
_symmetry_space_group_name_H-M     'P -1'
_symmetry_Int_Tables_number        2
_refine_ls_R_factor_all            .0236
loop_
_symmetry_equiv_pos_site_id
_symmetry_equiv_pos_as_xyz
  1	'-x, -y, -z'
  2	'x, y, z'
loop_
_atom_type_symbol
_atom_type_oxidation_number
Al3+	3
O2-	-2
V5+	5
loop_
_atom_site_label
_atom_site_type_symbol
_atom_site_symmetry_multiplicity
_atom_site_Wyckoff_symbol
_atom_site_fract_x
_atom_site_fract_y
_atom_site_fract_z
_atom_site_occupancy
_atom_site_attached_hydrogens
_atom_site_B_iso_or_equiv
Al1 Al3+ 2 i 0.743(3) 0.697(2) 0.399(2) 1. 0 4.3 
Al2 Al3+ 2 i 0.468(3) 0.885(2) 0.212(2) 1. 0 3.2 
Al3 Al3+ 2 i 0.953(3) 0.306(2) 0.999(2) 1. 0 2.5 
V1 V5+ 2 i 0.002(1) 0.995(1) 0.257(1) 1. 0 3.3 
V2 V5+ 2 i 0.199(1) 0.605(1) 0.347(1) 1. 0 3.1 
V3 V5+ 2 i 0.514(1) 0.295(1) 0.125(1) 1. 0 2.4 
O1 O2- 2 i 0.630(3) 0.499(3) 0.260(3) 1. 0 1.7 
O2 O2- 2 i 0.259(3) 0.433(3) 0.429(3) 1. 0 1.1 
O3 O2- 2 i 0.034(4) 0.699(3) 0.428(2) 1. 0 0.5 
O4 O2- 2 i 0.166(4) 0.093(3) 0.431(3) 1. 0 3.6 
O5 O2- 2 i 0.458(4) 0.743(3) 0.362(3) 1. 0 1.9 
O6 O2- 2 i 0.755(4) 0.876(3) 0.261(2) 1. 0 0.7 
O7 O2- 2 i 0.518(4) 0.119(3) 0.222(2) 1. 0 2.6 
O8 O2- 2 i 0.157(4) 0.882(3) 0.185(3) 1. 0 0.7 
O9 O2- 2 i 0.362(4) 0.733(3) 0.017(3) 1. 0 3.0 
O10 O2- 2 i 0.255(4) 0.304(3) 0.042(3) 1. 0 1.5 
O11 O2- 2 i 0.955(4) 0.160(3) 0.152(3) 1. 0 2.6 
O12 O2- 2 i 0.047(4) 0.513(4) 0.148(3) 1. 0 3.9 

#End of data_165903-ICSD


