data_75739-ICSD
#?2014 by Fachinformationszentrum Karlsruhe, and the U.S. Secretary of 
#Commerce on behalf of the United States.  All rights reserved.
_database_code_ICSD                75739
_audit_creation_date               1996/04/22
_audit_update_record               2006/04/01
_chemical_name_systematic          'Magnesium Catena-silicate'
_chemical_formula_structural       'Mg (Si O3)'
_chemical_formula_sum              'Mg1 O3 Si1'
_chemical_name_mineral             'Perovskite (Mg-,Si-exchanged)'
_publ_section_title
;
A quantum-mechanical study of the relative stability under pressure 
of Mg Si O3-ilmenite, Mg Si O3-perovskite, and Mg O-periclase + Si O2-
stishovite assemblage
;
loop_
_citation_id
_citation_journal_abbrev
_citation_year
_citation_journal_volume
_citation_page_first
_citation_page_last
_citation_journal_id_ASTM
primary 'Physics and Chemistry of Minerals' 1994 2 285 293 PCMIDU
2 'Physics and Chemistry of Minerals' 1990 17 228 237 PCMIDU
3 'Physics and Chemistry of Minerals' 1993 20 407 414 PCMIDU
_publ_author_name
;
d'Arco, P.;Sandrone, G.;Dovesi, R.;Apra, E.;Saunders, V.R.
;
_cell_length_a                     4.786
_cell_length_b                     4.913
_cell_length_c                     6.896
_cell_angle_alpha                  90.
_cell_angle_beta                   90.
_cell_angle_gamma                  90.
_cell_volume                       162.15
_cell_formula_units_Z              4
_symmetry_space_group_name_H-M     'P b n m'
_symmetry_Int_Tables_number        62
loop_
_symmetry_equiv_pos_site_id
_symmetry_equiv_pos_as_xyz
  1	'-x+.5, y+.5, z'
  2	'x, y, -z+.5'
  3	'x+.5, -y+.5, z+.5'
  4	'-x, -y, -z'
  5	'x+.5, -y+.5, -z'
  6	'-x, -y, z+.5'
  7	'-x+.5, y+.5, -z+.5'
  8	'x, y, z'
loop_
_atom_type_symbol
_atom_type_oxidation_number
Mg2+	2
O2-	-2
Si4+	4
loop_
_atom_site_label
_atom_site_type_symbol
_atom_site_symmetry_multiplicity
_atom_site_Wyckoff_symbol
_atom_site_fract_x
_atom_site_fract_y
_atom_site_fract_z
_atom_site_occupancy
_atom_site_attached_hydrogens
Si1 Si4+ 4 b 0 0.5 0 1. 0 
Mg1 Mg2+ 4 c 0.5112 0.5476 0.25 1. 0 
O1 O2- 4 c 0.0999 0.4643 0.25 1. 0 
O2 O2- 8 d 0.198 0.2029 0.5522 1. 0 

#End of data_75739-ICSD


