data_421413-ICSD
#?2014 by Fachinformationszentrum Karlsruhe, and the U.S. Secretary of 
#Commerce on behalf of the United States.  All rights reserved.
_database_code_ICSD                421413
_audit_creation_date               2011/02/01
_chemical_name_systematic          'Silver Iron(III) Diphosphate'
_chemical_formula_structural       'Ag Fe (P2 O7)'
_chemical_formula_sum              'Ag1 Fe1 O7 P2'
_publ_section_title
;
Structure and magnetic properties of Ag Fe P2 O7
;
loop_
_citation_id
_citation_journal_abbrev
_citation_year
_citation_journal_volume
_citation_journal_issue
_citation_page_first
_citation_page_last
_citation_journal_id_ASTM
primary 'Journal of Solid State Chemistry' 2010 183 6 1473 1476 JSSCBI
_publ_author_name
;
Terebilenko, K.V.;Kirichok, A.A.;Baumer, V.M.;Sereduk, 
M.;Slobodyanik, N.S.;Guetlich, P.
;
_cell_length_a                     7.33380(10)
_cell_length_b                     7.97310(10)
_cell_length_c                     9.5665(2)
_cell_angle_alpha                  90
_cell_angle_beta                   111.823(2)
_cell_angle_gamma                  90
_cell_volume                       519.3
_cell_formula_units_Z              4
_symmetry_space_group_name_H-M     'P 1 21/c 1'
_symmetry_Int_Tables_number        14
_refine_ls_R_factor_all            .0346
loop_
_symmetry_equiv_pos_site_id
_symmetry_equiv_pos_as_xyz
  1	'x, -y+.5, z+.5'
  2	'-x, -y, -z'
  3	'-x, y+.5, -z+.5'
  4	'x, y, z'
loop_
_atom_type_symbol
_atom_type_oxidation_number
Ag1+	1
Fe3+	3
O2-	-2
P5+	5
loop_
_atom_site_label
_atom_site_type_symbol
_atom_site_symmetry_multiplicity
_atom_site_Wyckoff_symbol
_atom_site_fract_x
_atom_site_fract_y
_atom_site_fract_z
_atom_site_occupancy
_atom_site_attached_hydrogens
_atom_site_U_iso_or_equiv
Ag1 Ag1+ 4 e 0.79388(7) 0.52615(6) 0.30987(6) 1 0 0.02271(19) 
Fe1 Fe3+ 4 e 0.23958(9) 0.49152(8) 0.24940(7) 1 0 0.00338(18) 
P1 P5+ 4 e 0.17419(16) 0.79125(14) 0.45374(12) 1 0 0.0024(2) 
P2 P5+ 4 e 0.57436(16) 0.74658(13) 0.45575(12) 1 0 0.0022(2) 
O1 O2- 4 e 0.0341(5) 0.9147(4) 0.3472(4) 1 0 0.0069(6) 
O2 O2- 4 e 0.1868(5) 0.8030(4) 0.6146(4) 1 0 0.0063(6) 
O3 O2- 4 e 0.3814(5) 0.8468(4) 0.4461(4) 1 0 0.0069(6) 
O4 O2- 4 e 0.1400(5) 0.6101(4) 0.3977(4) 1 0 0.0055(6) 
O5 O2- 4 e 0.5076(5) 0.5880(4) 0.3603(4) 1 0 0.0052(6) 
O6 O2- 4 e 0.6912(5) 0.7094(4) 0.6194(4) 1 0 0.0081(6) 
O7 O2- 4 e 0.6822(5) 0.8660(4) 0.3927(4) 1 0 0.0075(6) 

loop_
_atom_site_aniso_label
_atom_site_aniso_type_symbol
_atom_site_aniso_U_11
_atom_site_aniso_U_22
_atom_site_aniso_U_33
_atom_site_aniso_U_12
_atom_site_aniso_U_13
_atom_site_aniso_U_23
Ag1 Ag1+ 0.0189(3) 0.0251(3) 0.0289(3) -0.00154(16) 0.0145(2) -0.00762(18)
Fe1 Fe3+ 0.0034(3) 0.0037(3) 0.0032(3) -0.0001(2) 0.0015(2) -0.0004(2)
P1 P5+ 0.0018(4) 0.0028(5) 0.0027(4) 0.0001(3) 0.0009(3) -0.0004(3)
P2 P5+ 0.0023(4) 0.0027(5) 0.0022(4) 0.0000(3) 0.0014(3) 0.0002(3)
O1 O2- 0.0039(14) 0.0089(15) 0.0070(14) 0.0025(11) 0.0010(11) 0.0034(11)
O2 O2- 0.0106(15) 0.0060(14) 0.0027(13) -0.0007(11) 0.0031(11) -0.0017(11)
O3 O2- 0.0039(13) 0.0043(14) 0.0136(15) -0.0001(11) 0.0045(12) -0.0018(12)
O4 O2- 0.0064(13) 0.0042(14) 0.0071(13) -0.0023(11) 0.0038(11) -0.0034(11)
O5 O2- 0.0030(13) 0.0066(14) 0.0062(13) -0.0010(11) 0.0018(11) -0.0030(11)
O6 O2- 0.0125(16) 0.0051(14) 0.0033(13) 0.0006(12) -0.0009(11) 0.0022(11)
O7 O2- 0.0103(14) 0.0079(15) 0.0071(14) -0.0029(12) 0.0066(12) 0.0009(11)
#End of data_421413-ICSD


