data_75285-ICSD
#?2014 by Fachinformationszentrum Karlsruhe, and the U.S. Secretary of 
#Commerce on behalf of the United States.  All rights reserved.
_database_code_ICSD                75285
_audit_creation_date               1996/04/22
_audit_update_record               2012/02/01
_chemical_name_systematic          'Dialuminium Silicate Difluoride'
_chemical_formula_structural       'Al2 (Si O4) F2'
_chemical_formula_sum              'Al2 F2 O4 Si1'
_chemical_name_mineral             Topaz
_publ_section_title
;
The location of H in the high-pressure synthetic Al2 Si O4 (O H)2 
topaz analogue
;
loop_
_citation_id
_citation_journal_abbrev
_citation_year
_citation_journal_volume
_citation_page_first
_citation_page_last
_citation_journal_id_ASTM
primary 'American Mineralogist' 1994 79 401 404 AMMIAY
_publ_author_name
;
Northrup, P.A.;Leinenweber, K.;Parise, J.B.
;
_cell_length_a                     4.652(1)
_cell_length_b                     8.801(3)
_cell_length_c                     8.404(2)
_cell_angle_alpha                  90.
_cell_angle_beta                   90.
_cell_angle_gamma                  90.
_cell_volume                       344.08
_cell_formula_units_Z              4
_symmetry_space_group_name_H-M     'P b n m'
_symmetry_Int_Tables_number        62
_refine_ls_R_factor_all            .0224
loop_
_symmetry_equiv_pos_site_id
_symmetry_equiv_pos_as_xyz
  1	'-x+.5, y+.5, z'
  2	'x, y, -z+.5'
  3	'x+.5, -y+.5, z+.5'
  4	'-x, -y, -z'
  5	'x+.5, -y+.5, -z'
  6	'-x, -y, z+.5'
  7	'-x+.5, y+.5, -z+.5'
  8	'x, y, z'
loop_
_atom_type_symbol
_atom_type_oxidation_number
Al3+	3
F1-	-1
O2-	-2
Si4+	4
loop_
_atom_site_label
_atom_site_type_symbol
_atom_site_symmetry_multiplicity
_atom_site_Wyckoff_symbol
_atom_site_fract_x
_atom_site_fract_y
_atom_site_fract_z
_atom_site_occupancy
_atom_site_attached_hydrogens
_atom_site_B_iso_or_equiv
Al1 Al3+ 8 d 0.90303(7) 0.13090(4) 0.08283(4) 1. 0 0.34(2) 
Si1 Si4+ 4 c 0.39723(9) 0.94035(5) 0.25 1. 0 0.29(2) 
O1 O2- 4 c 0.7036(3) 0.0321(1) 0.25 1. 0 0.38(4) 
O2 O2- 4 c 0.4577(3) 0.7560(1) 0.25 1. 0 0.39(4) 
O3 O2- 8 d 0.2102(2) 0.9892(1) 0.0924(1) 1. 0 0.37(3) 
F1 F1- 8 d 0.5982(1) 0.2525(1) 0.0561(1) 1. 0 0.52(2) 

#End of data_75285-ICSD


