data_16729-ICSD
#?2014 by Fachinformationszentrum Karlsruhe, and the U.S. Secretary of 
#Commerce on behalf of the United States.  All rights reserved.
_database_code_ICSD                16729
_audit_creation_date               1986/10/06
_audit_update_record               2010/08/01
_chemical_name_systematic          'Potassium Hexafluoroniobate'
_chemical_formula_structural       'K (Nb F6)'
_chemical_formula_sum              'F6 K1 Nb1'
_publ_section_title
;
Die Kristallstruktur des Kaliumhexafluoroniobats und des 
Kaliumhexafluorotantalats
;
loop_
_citation_id
_citation_journal_abbrev
_citation_year
_citation_journal_volume
_citation_page_first
_citation_page_last
_citation_journal_id_ASTM
primary 'Acta Crystallographica (1,1948-23,1967)' 1958 11 80 82 ACCRA9
_publ_author_name                  'Bode, H.;von Boehren, H.'
_cell_length_a                     5.18(2)
_cell_length_b                     5.18(2)
_cell_length_c                     10.05(2)
_cell_angle_alpha                  90.
_cell_angle_beta                   90.
_cell_angle_gamma                  90.
_cell_volume                       269.67
_cell_formula_units_Z              2
_symmetry_space_group_name_H-M     'P -4 c 2'
_symmetry_Int_Tables_number        116
_refine_ls_R_factor_all            .197
loop_
_symmetry_equiv_pos_site_id
_symmetry_equiv_pos_as_xyz
  1	'y, x, -z+.5'
  2	'-y, -x, -z+.5'
  3	'y, -x, -z'
  4	'-y, x, -z'
  5	'x, -y, z+.5'
  6	'-x, y, z+.5'
  7	'-x, -y, z'
  8	'x, y, z'
loop_
_atom_type_symbol
_atom_type_oxidation_number
F1-	-1
K1+	1
Nb5+	5
loop_
_atom_site_label
_atom_site_type_symbol
_atom_site_symmetry_multiplicity
_atom_site_Wyckoff_symbol
_atom_site_fract_x
_atom_site_fract_y
_atom_site_fract_z
_atom_site_occupancy
_atom_site_attached_hydrogens
Nb1 Nb5+ 2 a 0 0 0.25 1. 0 
K1 K1+ 2 d 0.5 0.5 0 1. 0 
F1 F1- 4 f 0.290(5) -.290(5) 0.25 1. 0 
F2 F1- 8 j 0.280(5) 0.130(3) 0.110(3) 1. 0 

#End of data_16729-ICSD


