data_423634-ICSD
#?2014 by Fachinformationszentrum Karlsruhe, and the U.S. Secretary of 
#Commerce on behalf of the United States.  All rights reserved.
_database_code_ICSD                423634
_audit_creation_date               2012/08/01
_chemical_name_systematic          'Cesium Lithium Dichloride'
_chemical_formula_structural       'Cs Li Cl2'
_chemical_formula_sum              'Cl2 Cs1 Li1'
_publ_section_title
;
Theoretical and experimental exploration of the energy landscape of 
the quasi-binary cesium chloride/lithium chloride system
;
loop_
_citation_id
_citation_journal_abbrev
_citation_year
_citation_journal_volume
_citation_journal_issue
_citation_page_first
_citation_page_last
_citation_journal_id_ASTM
primary 'Chemistry - A European Journal' 2012 18 12 3559 3565 CEUJED
_publ_author_name
;
Pentin, I.V.;Saltykov, V.;Nuss, J.;Schoen, J.C.;Jansen, M.
;
_cell_length_a                     7.2122(5)
_cell_length_b                     13.5414(10)
_cell_length_c                     9.6963(7)
_cell_angle_alpha                  90.00
_cell_angle_beta                   96.6120(10)
_cell_angle_gamma                  90.00
_cell_volume                       940.67
_cell_formula_units_Z              8
_symmetry_space_group_name_H-M     'C 1 2/c 1'
_symmetry_Int_Tables_number        15
_refine_ls_R_factor_all            .0496
loop_
_symmetry_equiv_pos_site_id
_symmetry_equiv_pos_as_xyz
  1	'x, -y, z+.5'
  2	'-x, -y, -z'
  3	'-x, y, -z+.5'
  4	'x, y, z'
  5	'x+.5, -y+.5, z+.5'
  6	'-x+.5, -y+.5, -z'
  7	'-x+.5, y+.5, -z+.5'
  8	'x+.5, y+.5, z'
loop_
_atom_type_symbol
_atom_type_oxidation_number
Cl1-	-1
Cs1+	1
Li1+	1
loop_
_atom_site_label
_atom_site_type_symbol
_atom_site_symmetry_multiplicity
_atom_site_Wyckoff_symbol
_atom_site_fract_x
_atom_site_fract_y
_atom_site_fract_z
_atom_site_occupancy
_atom_site_attached_hydrogens
_atom_site_U_iso_or_equiv
Cs1 Cs1+ 8 f 0.22550(9) 0.40495(5) 0.43436(6) 1 0 0.0420(3) 
Cl1 Cl1- 4 e 0.0000 0.3936(3) 0.7500 1 0 0.0388(7) 
Cl2 Cl1- 8 f 0.2965(3) 0.36697(17) 0.0903(2) 1 0 0.0380(5) 
Cl3 Cl1- 4 e 0.0000 0.1845(4) 0.2500 1 0 0.0538(10) 
Li1 Li1+ 8 f 0.258(2) 0.1969(11) 0.1352(16) 1 0 0.034(3) 

loop_
_atom_site_aniso_label
_atom_site_aniso_type_symbol
_atom_site_aniso_U_11
_atom_site_aniso_U_22
_atom_site_aniso_U_33
_atom_site_aniso_U_12
_atom_site_aniso_U_13
_atom_site_aniso_U_23
Cs1 Cs1+ 0.0450(4) 0.0462(4) 0.0350(4) 0.0059(2) 0.0060(2) -0.0032(2)
Cl1 Cl1- 0.0315(13) 0.0455(17) 0.0379(15) 0.000 -0.0018(11) 0.000
Cl2 Cl1- 0.0517(12) 0.0343(11) 0.0283(9) -0.0027(9) 0.0059(8) -0.0007(7)
Cl3 Cl1- 0.0391(16) 0.082(3) 0.0444(18) 0.000 0.0211(13) 0.000
Li1 Li1+ 0.034(7) 0.028(7) 0.043(8) 0.006(5) 0.011(6) 0.002(6)
#End of data_423634-ICSD


