data_261224-ICSD
#?2014 by Fachinformationszentrum Karlsruhe, and the U.S. Secretary of 
#Commerce on behalf of the United States.  All rights reserved.
_database_code_ICSD                261224
_audit_creation_date               2011/02/01
_chemical_name_systematic          'Dieuropium Magnesium Disilicate'
_chemical_formula_structural       'Eu2 Mg (Si2 O7)'
_chemical_formula_sum              'Eu2 Mg1 O7 Si2'
_publ_section_title
;
Crystal structures and magnetic properties of new europium melilites 
Eu2 M Si2 O7 (M = Mg, Mn) and their strontium analogues
;
loop_
_citation_id
_citation_journal_abbrev
_citation_year
_citation_journal_volume
_citation_journal_issue
_citation_page_first
_citation_page_last
_citation_journal_id_ASTM
primary 'Inorganic Chemistry' 2010 49 23 10809 10814 INOCAJ
_publ_author_name
;
Endo, T.;Doi, Y.;Wakeshima, M.;Hinatsu, Y.
;
_cell_length_a                     8.0138(2)
_cell_length_b                     8.0138(2)
_cell_length_c                     5.1711(1)
_cell_angle_alpha                  90.0
_cell_angle_beta                   90.0
_cell_angle_gamma                  90.0
_cell_volume                       332.09
_cell_formula_units_Z              2
_symmetry_space_group_name_H-M     'P -4 21 m'
_symmetry_Int_Tables_number        113
_refine_ls_R_factor_all            .07
loop_
_symmetry_equiv_pos_site_id
_symmetry_equiv_pos_as_xyz
  1	'-y+.5, -x+.5, z'
  2	'y, -x, -z'
  3	'y+.5, x+.5, z'
  4	'-y, x, -z'
  5	'x+.5, -y+.5, -z'
  6	'-x, -y, z'
  7	'-x+.5, y+.5, -z'
  8	'x, y, z'
loop_
_atom_type_symbol
_atom_type_oxidation_number
Eu2+	2
Mg2+	2
O2-	-2
Si4+	4
loop_
_atom_site_label
_atom_site_type_symbol
_atom_site_symmetry_multiplicity
_atom_site_Wyckoff_symbol
_atom_site_fract_x
_atom_site_fract_y
_atom_site_fract_z
_atom_site_occupancy
_atom_site_attached_hydrogens
_atom_site_B_iso_or_equiv
Eu1 Eu2+ 4 e 0.33529(7) 0.16471(7) 0.5059(3) 1.0 0 0.54(2) 
Mg1 Mg2+ 2 a 0.0 0.0 0.0 1.0 0 0.3 
Si1 Si4+ 4 e 0.1367(3) 0.3633(3) 0.9439(8) 1.0 0 0.3 
O1 O2- 2 c 0.5 0.0 0.147(2) 1.0 0 0.2(1) 
O2 O2- 4 e 0.1408(7) 0.3592(7) 0.261(1) 1.0 0 0.2(1) 
O3 O2- 8 f 0.0818(6) 0.1923(6) 0.808(1) 1.0 0 0.2(1) 

#End of data_261224-ICSD


