data_189135-ICSD
#?2014 by Fachinformationszentrum Karlsruhe, and the U.S. Secretary of 
#Commerce on behalf of the United States.  All rights reserved.
_database_code_ICSD                189135
_audit_creation_date               2014/02/01
_chemical_name_systematic          'Calcium Titanate'
_chemical_formula_structural       'Ca (Ti O3)'
_chemical_formula_sum              'Ca1 O3 Ti1'
_publ_section_title
;
Improved photoluminescence and afterglow of Ca Ti O3 : Pr(3+) by 
ammonia treatment
;
loop_
_citation_id
_citation_journal_abbrev
_citation_year
_citation_journal_volume
_citation_journal_issue
_citation_page_first
_citation_page_last
_citation_journal_id_ASTM
primary 'Optical Materials Express' 2013 3 2 248 259 OMEPAX
_publ_author_name
;
Yoon, Songhak;Otal, Eugenio H.;Maegli, Alexandra E.;Karvonen, 
Lassi;Matam, Santhosh K.;Riegg, Stefan;Ebbinghaus, Stefan G.;Fallas, 
Juan C.;Hagemann, Hans;Walfort, Bernhard;Pokrant, Simone;Weidenkaff, 
Anke
;
_cell_length_a                     5.38163(3)
_cell_length_b                     5.44386(3)
_cell_length_c                     7.64316(4)
_cell_angle_alpha                  90.00
_cell_angle_beta                   90.00
_cell_angle_gamma                  90.00
_cell_volume                       223.92
_cell_formula_units_Z              4
_symmetry_space_group_name_H-M     'P b n m'
_symmetry_Int_Tables_number        62
_refine_ls_R_factor_all            .0892
loop_
_symmetry_equiv_pos_site_id
_symmetry_equiv_pos_as_xyz
  1	'-x+.5, y+.5, z'
  2	'x, y, -z+.5'
  3	'x+.5, -y+.5, z+.5'
  4	'-x, -y, -z'
  5	'x+.5, -y+.5, -z'
  6	'-x, -y, z+.5'
  7	'-x+.5, y+.5, -z+.5'
  8	'x, y, z'
loop_
_atom_type_symbol
_atom_type_oxidation_number
Ca2+	2
O2-	-2
Ti4+	4
loop_
_atom_site_label
_atom_site_type_symbol
_atom_site_symmetry_multiplicity
_atom_site_Wyckoff_symbol
_atom_site_fract_x
_atom_site_fract_y
_atom_site_fract_z
_atom_site_occupancy
_atom_site_attached_hydrogens
_atom_site_U_iso_or_equiv
Ca1 Ca2+ 4 c 0.9940(3) 0.03587(16) 0.25000 1.00000 0 0.0101(3) 
Ti1 Ti4+ 4 b 0.50000 0.00000 0.00000 1.00000 0 0.0057(3) 
O1 O2- 4 c 0.0761(6) 0.4854(5) 0.25000 1. 0 0.0221(16) 
O2 O2- 8 d 0.7115(4) 0.2938(4) 0.0383(4) 1. 0 0.0125(13) 

#End of data_189135-ICSD


