data_15208-ICSD
#?2014 by Fachinformationszentrum Karlsruhe, and the U.S. Secretary of 
#Commerce on behalf of the United States.  All rights reserved.
_database_code_ICSD                15208
_audit_creation_date               1980/01/01
_audit_update_record               2007/08/01
_chemical_name_systematic          'Calcium Diniobium Oxide'
_chemical_formula_structural       'Ca Nb2 O6'
_chemical_formula_sum              'Ca1 Nb2 O6'
_publ_section_title
;
The crystal structure of calcium niobate
;
loop_
_citation_id
_citation_journal_abbrev
_citation_year
_citation_journal_volume
_citation_page_first
_citation_page_last
_citation_journal_id_ASTM
primary 'American Mineralogist' 1970 55 90 97 AMMIAY
2 'Powder Diffraction' 1989 4 106 121 PODIE2
_publ_author_name                  'Cummings, J.P.;Simonsen, S.H.'
_cell_length_a                     14.926(4)
_cell_length_b                     5.752(4)
_cell_length_c                     5.204(4)
_cell_angle_alpha                  90.
_cell_angle_beta                   90.
_cell_angle_gamma                  90.
_cell_volume                       446.79
_cell_formula_units_Z              4
_symmetry_space_group_name_H-M     'P b c n'
_symmetry_Int_Tables_number        60
_refine_ls_R_factor_all            .067
loop_
_symmetry_equiv_pos_site_id
_symmetry_equiv_pos_as_xyz
  1	'x, -y, z+.5'
  2	'-x+.5, y+.5, z'
  3	'x+.5, y+.5, -z+.5'
  4	'-x, -y, -z'
  5	'-x, y, -z+.5'
  6	'x+.5, -y+.5, -z'
  7	'-x+.5, -y+.5, z+.5'
  8	'x, y, z'
loop_
_atom_type_symbol
_atom_type_oxidation_number
Ca2+	2
Nb5+	5
O2-	-2
loop_
_atom_site_label
_atom_site_type_symbol
_atom_site_symmetry_multiplicity
_atom_site_Wyckoff_symbol
_atom_site_fract_x
_atom_site_fract_y
_atom_site_fract_z
_atom_site_occupancy
_atom_site_attached_hydrogens
_atom_site_B_iso_or_equiv
Ca1 Ca2+ 4 c 0 0.2244(6) 0.75 1. 0 0 
Nb1 Nb5+ 8 d 0.1653(1) 0.3166(2) 0.2987(2) 1. 0 0 
O1 O2- 8 d 0.0893(6) 0.0997(14) 0.4040(18) 1. 0 1.499 
O2 O2- 8 d 0.1003(6) 0.4280(14) 0.0056(18) 1. 0 1.843 
O3 O2- 8 d 0.2576(6) 0.1351(14) 0.1266(17) 1. 0 0.4638 

#End of data_15208-ICSD


