data_27070-ICSD
#?2014 by Fachinformationszentrum Karlsruhe, and the U.S. Secretary of 
#Commerce on behalf of the United States.  All rights reserved.
_database_code_ICSD                27070
_audit_creation_date               1986/10/06
_audit_update_record               2007/04/01
_chemical_name_systematic          'Trisodium Hexafluorochromate(III)'
_chemical_formula_structural       'Na3 (Cr F6)'
_chemical_formula_sum              'Cr1 F6 Na3'
_publ_section_title                'The crystal structure of Na3 Cr F6'
loop_
_citation_id
_citation_journal_abbrev
_citation_year
_citation_journal_volume
_citation_page_first
_citation_page_last
_citation_journal_id_ASTM
primary 'Materials Research Bulletin' 1969 4 621 626 MRBUAC
2 'Golden Book of Phase Transitions, Wroclaw' 2002 1 1 123 GBOPT5
_publ_author_name                  'Brunton, G.'
_cell_length_a                     5.4913(3)
_cell_length_b                     5.7021(3)
_cell_length_c                     9.6618(9)
_cell_angle_alpha                  90.
_cell_angle_beta                   125.021(5)
_cell_angle_gamma                  90.
_cell_volume                       247.75
_cell_formula_units_Z              2
_symmetry_space_group_name_H-M     'P 1 21/c 1'
_symmetry_Int_Tables_number        14
_refine_ls_R_factor_all            .0609
loop_
_symmetry_equiv_pos_site_id
_symmetry_equiv_pos_as_xyz
  1	'x, -y+.5, z+.5'
  2	'-x, -y, -z'
  3	'-x, y+.5, -z+.5'
  4	'x, y, z'
loop_
_atom_type_symbol
_atom_type_oxidation_number
Cr3+	3
F1-	-1
Na1+	1
loop_
_atom_site_label
_atom_site_type_symbol
_atom_site_symmetry_multiplicity
_atom_site_Wyckoff_symbol
_atom_site_fract_x
_atom_site_fract_y
_atom_site_fract_z
_atom_site_occupancy
_atom_site_attached_hydrogens
Cr1 Cr3+ 2 a 0 0 0 1. 0 
Na1 Na1+ 2 d 0.5 0 0.5 1. 0 
Na2 Na1+ 4 e 0.7606(2) -.0554(3) 0.2458(2) 1. 0 
F1 F1- 4 e 0.3374(3) 0.0536(3) 0.2250(2) 1. 0 
F2 F1- 4 e 0.7661(3) 0.1761(3) 0.0503(2) 1. 0 
F3 F1- 4 e 0.0976(3) 0.2775(3) 0.9314(2) 1. 0 

#End of data_27070-ICSD


