data_100348-ICSD
#?2014 by Fachinformationszentrum Karlsruhe, and the U.S. Secretary of 
#Commerce on behalf of the United States.  All rights reserved.
_database_code_ICSD                100348
_audit_creation_date               1980/12/31
_audit_update_record               2007/08/01
_chemical_name_systematic          'Lithium Tecto-alumotetrasilicate'
_chemical_formula_structural       'Li (Al Si4 O10)'
_chemical_formula_sum              'Al1 Li1 O10 Si4'
_chemical_name_mineral             'Petalite 1M'
_publ_section_title
;
Petalit, Li Al Si4 O10: Verfeinerung der Kristallstruktur, Diskussion 
der Raumgruppe und Infrarot-Messung
;
loop_
_citation_id
_citation_journal_abbrev
_citation_year
_citation_journal_volume
_citation_page_first
_citation_page_last
_citation_journal_id_ASTM
primary
;
TMPM. Tschermaks Mineralogische und Petrographische Mitteilungen 
(1979-)
;
 1980 27 129 142 TTMMDZ
2 'Acta Crystallographica (1,1948-23,1967)' 1955 8 781 787 ACCRA9
3 'Acta Crystallographica (1,1948-23,1967)' 1961 14 399 406 ACCRA9
4
;
Oesterreische Akademie der Wissenschaften, Mathematich-
Naturwissenschaftliche Klasse, Sitzungsberichte
;
 1976 1976 189 192 OAWCAY
_publ_author_name                  'Effenberger, H.'
_cell_length_a                     11.7540(11)
_cell_length_b                     5.1395(5)
_cell_length_c                     7.6296(7)
_cell_angle_alpha                  90.
_cell_angle_beta                   113.04(1)
_cell_angle_gamma                  90.
_cell_volume                       424.14
_cell_formula_units_Z              2
_symmetry_space_group_name_H-M     'P 1 2/a 1'
_symmetry_Int_Tables_number        13
_refine_ls_R_factor_all            .031
loop_
_symmetry_equiv_pos_site_id
_symmetry_equiv_pos_as_xyz
  1	'x+.5, -y, z'
  2	'-x, -y, -z'
  3	'-x+.5, y, -z'
  4	'x, y, z'
loop_
_atom_type_symbol
_atom_type_oxidation_number
Al3+	3
Li1+	1
O2-	-2
Si4+	4
loop_
_atom_site_label
_atom_site_type_symbol
_atom_site_symmetry_multiplicity
_atom_site_Wyckoff_symbol
_atom_site_fract_x
_atom_site_fract_y
_atom_site_fract_z
_atom_site_occupancy
_atom_site_attached_hydrogens
Li1 Li1+ 2 e 0.25 0.25820(91) 0 1. 0 
Al1 Al3+ 2 e 0.25 0.75664(13) 0 1. 0 
Si1 Si4+ 4 g 0.99816(3) 0.51279(8) 0.28984(5) 1. 0 
Si2 Si4+ 4 g 0.14775(3) 0.00993(8) 0.28962(5) 1. 0 
O1 O2- 2 b 0 0.5 0.5 1. 0 
O2 O2- 2 f 0.25 0.96385(42) 0.5 1. 0 
O3 O2- 4 g 0.09392(11) 0.30163(23) 0.26980(18) 1. 0 
O4 O2- 4 g 0.36166(9) 0.53587(23) 0.13425(15) 1. 0 
O5 O2- 4 g 0.03788(10) 0.80112(23) 0.25177(17) 1. 0 
O6 O2- 4 g 0.20741(10) 0.97774(23) 0.13486(15) 1. 0 

#End of data_100348-ICSD


