data_262322-ICSD
#?2014 by Fachinformationszentrum Karlsruhe, and the U.S. Secretary of 
#Commerce on behalf of the United States.  All rights reserved.
_database_code_ICSD                262322
_audit_creation_date               2012/08/01
_chemical_name_systematic          'Distrontium Zinc Tungstate'
_chemical_formula_structural       'Sr2 Zn W O6'
_chemical_formula_sum              'O6 Sr2 W1 Zn1'
_publ_section_title
;
Structures of ordered tungsten- or molybdenum-containing quaternary 
perovskite oxides
;
loop_
_citation_id
_citation_journal_abbrev
_citation_year
_citation_journal_volume
_citation_journal_issue
_citation_page_first
_citation_page_last
_citation_journal_id_ASTM
primary 'Journal of Solid State Chemistry' 2012 185 1 107 116 JSSCBI
_publ_author_name
;
Day, B.E.;Bley, N.D.;Jones, H.R.;McCullough, R.M.;Eng, H.W.;Porter, 
S.H.;Woodward, P.M.;Barnes, P.W.
;
_cell_length_a                     5.6321(3)
_cell_length_b                     5.6080(3)
_cell_length_c                     7.9265(4)
_cell_angle_alpha                  90.
_cell_angle_beta                   89.962(1)
_cell_angle_gamma                  90.
_cell_volume                       250.36
_cell_formula_units_Z              2
_symmetry_space_group_name_H-M     'P 1 21/n 1'
_symmetry_Int_Tables_number        14
_refine_ls_R_factor_all            .0409
loop_
_symmetry_equiv_pos_site_id
_symmetry_equiv_pos_as_xyz
  1	'-x+.5, y+.5, -z+.5'
  2	'-x, -y, -z'
  3	'x+.5, -y+.5, z+.5'
  4	'x, y, z'
loop_
_atom_type_symbol
_atom_type_oxidation_number
O2-	-2
Sr2+	2
W6+	6
Zn2+	2
loop_
_atom_site_label
_atom_site_type_symbol
_atom_site_symmetry_multiplicity
_atom_site_Wyckoff_symbol
_atom_site_fract_x
_atom_site_fract_y
_atom_site_fract_z
_atom_site_occupancy
_atom_site_attached_hydrogens
_atom_site_U_iso_or_equiv
Sr1 Sr2+ 4 e 0.5000(3) 0.5095(4) 0.2493(7) 1. 0 0.0087(2) 
Zn1 Zn2+ 2 c 0 0.5 0 1. 0 0.0059(4) 
W1 W6+ 2 d 0.5 0 0 1. 0 0.0031(4) 
O1 O2- 4 e 0.2741(7) 0.2530(6) 0.0234(7) 1. 0 0.0080(10) 
O2 O2- 4 e 0.2420(8) 0.7796(6) 0.0259(7) 1. 0 0.017(2) 
O3 O2- 4 e 0.5491(3) -0.0016(6) 0.2397(6) 1. 0 0.0090(8) 

loop_
_atom_site_aniso_label
_atom_site_aniso_type_symbol
_atom_site_aniso_U_11
_atom_site_aniso_U_22
_atom_site_aniso_U_33
_atom_site_aniso_U_12
_atom_site_aniso_U_13
_atom_site_aniso_U_23
O1 O2- 0.0080(10) 0.0040(10) 0.012(2) 0.004(1) 0.004(1) -0.001(1)
O2 O2- 0.017(2) 0.003(1) 0.016(2) -0.005(1) 0.002(2) 0.000(1)
O3 O2- 0.0090(8) 0.017(1) 0.005(1) -0.002(1) -0.001(1) -0.004(2)
#End of data_262322-ICSD


