data_1307-ICSD
#?2014 by Fachinformationszentrum Karlsruhe, and the U.S. Secretary of 
#Commerce on behalf of the United States.  All rights reserved.
_database_code_ICSD                1307
_audit_creation_date               1980/01/01
_audit_update_record               2010/02/01
_chemical_name_systematic          'Potassium Heptafluorodiindate'
_chemical_formula_structural       'K (In2 F7)'
_chemical_formula_sum              'F7 In2 K1'
_publ_section_title
;
Structure cristalline du fluoroindate de potassium K In2 F7
;
loop_
_citation_id
_citation_journal_abbrev
_citation_year
_citation_journal_volume
_citation_page_first
_citation_page_last
_citation_journal_id_ASTM
primary 'Acta Crystallographica B (24,1968-38,1982)' 1977 33 3722 3726 ACBCAR
_publ_author_name                  'Champarnaud-Mesjard, J.C.;Frit, B.'
_cell_length_a                     10.753(4)
_cell_length_b                     8.131(3)
_cell_length_c                     6.609(2)
_cell_angle_alpha                  90.
_cell_angle_beta                   90.71(5)
_cell_angle_gamma                  90.
_cell_volume                       577.8
_cell_formula_units_Z              4
_symmetry_space_group_name_H-M     'P 1 21/m 1'
_symmetry_Int_Tables_number        11
_refine_ls_R_factor_all            .047
loop_
_symmetry_equiv_pos_site_id
_symmetry_equiv_pos_as_xyz
  1	'x, -y+.5, z'
  2	'-x, -y, -z'
  3	'-x, y+.5, -z'
  4	'x, y, z'
loop_
_atom_type_symbol
_atom_type_oxidation_number
F1-	-1
In3+	3
K1+	1
loop_
_atom_site_label
_atom_site_type_symbol
_atom_site_symmetry_multiplicity
_atom_site_Wyckoff_symbol
_atom_site_fract_x
_atom_site_fract_y
_atom_site_fract_z
_atom_site_occupancy
_atom_site_attached_hydrogens
_atom_site_B_iso_or_equiv
K1 K1+ 2 e 0.2396(23) 0.25 0.7838(30) 1. 0 1.03 
K2 K1+ 2 e 0.7394(17) 0.25 0.2363(41) 1. 0 0.63 
In1 In3+ 4 f 0.05913(15) 0 0.25041(23) 1. 0 0.42 
In2 In3+ 4 f 0.44015(15) 0 0.24923(24) 1. 0 0.57 
F1 F1- 2 e 0.0094(36) 0.25 0.2431(54) 1. 0 1.64 
F2 F1- 2 e 0.9119(47) 0.25 0.7143(68) 1. 0 1.72 
F3 F1- 2 e 0.4730(47) 0.25 0.2478(70) 1. 0 2.12 
F4 F1- 2 e 0.5216(95) 0.25 0.714(14) 1. 0 2.32 
F5 F1- 4 f 0.2467(79) 0.0508(20) 0.257(11) 1. 0 1.2 
F6 F1- 4 f 0.3943(15) 0.0240(24) 0.5590(24) 1. 0 0.8 
F7 F1- 4 f 0.3946(14) 0.0253(20) 0.9365(22) 1. 0 0.53 
F8 F1- 4 f 0.1055(18) 0.0263(27) 0.5629(29) 1. 0 1.24 
F9 F1- 4 f 0.1058(18) 0.0252(28) 0.9415(29) 1. 0 1.29 

#End of data_1307-ICSD


