data_41178-ICSD
#?2014 by Fachinformationszentrum Karlsruhe, and the U.S. Secretary of 
#Commerce on behalf of the United States.  All rights reserved.
_database_code_ICSD                41178
_audit_creation_date               1999/11/30
_audit_update_record               2002/04/01
_chemical_name_systematic          'Lithium Barium Hexafluorocobaltate'
_chemical_formula_structural       'Li Ba (Co F6)'
_chemical_formula_sum              'Ba1 Co1 F6 Li1'
_publ_section_title
;
Zur Rutilverwandschaft: Ueber neue Fluoride des Typs Li M(II) M(III) 
F6 mit M(III) = Co,Ni und M(II) = Mg, Ca, Sr, Ba, Ni, Cu, Zn, Cd
;
loop_
_citation_id
_citation_journal_abbrev
_citation_year
_citation_journal_volume
_citation_page_first
_citation_page_last
_citation_journal_id_ASTM
primary
;
Zeitschrift fuer Naturforschung, Teil B. Anorganische Chemie, 
Organische Chemie (33,1978-41,1986)
;
 1982 37 988 994 ZNBAD2
_publ_author_name                  'Fleischer, T.;Hoppe, R.'
_cell_length_a                     5.5056(7)
_cell_length_b                     10.263(1)
_cell_length_c                     8.4379(9)
_cell_angle_alpha                  90.
_cell_angle_beta                   90.99(1)
_cell_angle_gamma                  90.
_cell_volume                       476.7
_cell_formula_units_Z              4
_symmetry_space_group_name_H-M     'P 1 21/c 1'
_symmetry_Int_Tables_number        14
loop_
_symmetry_equiv_pos_site_id
_symmetry_equiv_pos_as_xyz
  1	'x, -y+.5, z+.5'
  2	'-x, -y, -z'
  3	'-x, y+.5, -z+.5'
  4	'x, y, z'
loop_
_atom_type_symbol
_atom_type_oxidation_number
Ba2+	2
Co3+	3
F1-	-1
Li1+	1
loop_
_atom_site_label
_atom_site_type_symbol
_atom_site_symmetry_multiplicity
_atom_site_Wyckoff_symbol
_atom_site_fract_x
_atom_site_fract_y
_atom_site_fract_z
_atom_site_occupancy
_atom_site_attached_hydrogens
_atom_site_B_iso_or_equiv
Li1 Li1+ 4 e 0.2434(31) 0.5892(18) 0.1807(21) 1. 0 0.95 
Ba1 Ba2+ 4 e 0.30094(10) 0.18774(6) 0.00245(7) 1. 0 0.66 
Co1 Co3+ 4 e 0.76083(24) 0.41204(15) 0.23047(17) 1. 0 0.39 
F1 F1- 4 e 0.46122(95) 0.49334(56) 0.29665(67) 1. 0 0.93 
F2 F1- 4 e 0.6038(10) 0.24575(58) 0.25625(66) 1. 0 0.99 
F3 F1- 4 e 0.8375(11) 0.40878(63) 0.44615(72) 1. 0 1.39 
F4 F1- 4 e 0.6581(11) 0.39850(67) 0.02283(75) 1. 0 1.57 
F5 F1- 4 e 0.1054(10) 0.0816(6) 0.29245(73) 1. 0 1.17 
F6 F1- 4 e 0.0757(11) 0.34230(62) 0.19327(78) 1. 0 1.61 

#End of data_41178-ICSD


