data_409814-ICSD
#?2014 by Fachinformationszentrum Karlsruhe, and the U.S. Secretary of 
#Commerce on behalf of the United States.  All rights reserved.
_database_code_ICSD                409814
_audit_creation_date               2005/10/01
_chemical_name_systematic
;
Tetrapotassium Hexaselenidohypodiphosphate
;
_chemical_formula_structural       'K4 P2 Se6'
_chemical_formula_sum              'K4 P2 Se6'
_publ_section_title
;
Crystal structure of tetrapotassium hexaselenidodiphosphate, K4 P2 
Se6
;
loop_
_citation_id
_citation_journal_abbrev
_citation_year
_citation_journal_volume
_citation_page_first
_citation_page_last
_citation_journal_id_ASTM
primary 'Zeitschrift fuer Kristallographie - New Crystal Structures'
 2005 220 9 10 ZKNSFT
_publ_author_name
;
Chan, B.-C.;Feng, P.L.;Hulvey, Z.;Dorhout, P.K.
;
_cell_length_a                     13.6637(10)
_cell_length_b                     12.3993(9)
_cell_length_c                     8.7631(7)
_cell_angle_alpha                  90.00
_cell_angle_beta                   91.2670(10)
_cell_angle_gamma                  90.00
_cell_volume                       1484.28
_cell_formula_units_Z              4
_symmetry_space_group_name_H-M     'P 1 21/c 1'
_symmetry_Int_Tables_number        14
_refine_ls_R_factor_all            .0609
loop_
_symmetry_equiv_pos_site_id
_symmetry_equiv_pos_as_xyz
  1	'x, -y+.5, z+.5'
  2	'-x, -y, -z'
  3	'-x, y+.5, -z+.5'
  4	'x, y, z'
loop_
_atom_type_symbol
_atom_type_oxidation_number
K1+	1
P4+	4
Se2-	-2
loop_
_atom_site_label
_atom_site_type_symbol
_atom_site_symmetry_multiplicity
_atom_site_Wyckoff_symbol
_atom_site_fract_x
_atom_site_fract_y
_atom_site_fract_z
_atom_site_occupancy
_atom_site_attached_hydrogens
_atom_site_U_iso_or_equiv
Se1 Se2- 4 e 0.90323(4) 1.30791(4) 0.02115(6) 1 0 0.02517(15) 
Se2 Se2- 4 e 0.95962(4) 1.47051(4) -0.30646(6) 1 0 0.02644(15) 
Se3 Se2- 4 e 0.81409(4) 1.58264(4) -0.00130(7) 1 0 0.02627(15) 
Se4 Se2- 4 e 0.67907(4) 0.90206(4) 0.03618(7) 1 0 0.02561(15) 
Se5 Se2- 4 e 0.53473(5) 0.96412(5) -0.30458(7) 1 0 0.03112(17) 
Se6 Se2- 4 e 0.60898(4) 1.17778(4) -0.04700(7) 1 0 0.02725(16) 
P1 P4+ 4 e 0.56876(10) 1.00791(10) -0.06937(16) 1 0 0.0180(3) 
P2 P4+ 4 e 0.93113(10) 1.47100(10) -0.06247(15) 1 0 0.0170(3) 
K1 K1+ 4 e 0.91524(11) 1.76489(11) 0.22388(17) 1 0 0.0424(4) 
K2 K1+ 4 e 1.18551(11) 1.56781(12) -0.32668(18) 1 0 0.0428(4) 
K3 K1+ 4 e 0.43295(11) 1.20608(11) -0.34035(17) 1 0 0.0385(3) 
K4 K1+ 4 e 0.70601(11) 1.10831(11) 0.28646(18) 1 0 0.0435(4) 

loop_
_atom_site_aniso_label
_atom_site_aniso_type_symbol
_atom_site_aniso_U_11
_atom_site_aniso_U_22
_atom_site_aniso_U_33
_atom_site_aniso_U_12
_atom_site_aniso_U_13
_atom_site_aniso_U_23
Se1 Se2- 0.0284(3) 0.0188(3) 0.0283(3) -0.0056(2) 0.0014(3) 0.0009(2)
Se2 Se2- 0.0299(3) 0.0311(3) 0.0183(3) -0.0021(3) -0.0012(2) -0.0012(2)
Se3 Se2- 0.0190(3) 0.0273(3) 0.0325(3) 0.0039(2) -0.0017(2) -0.0054(2)
Se4 Se2- 0.0196(3) 0.0236(3) 0.0333(3) 0.0025(2) -0.0045(2) 0.0040(2)
Se5 Se2- 0.0403(4) 0.0333(3) 0.0197(3) 0.0056(3) -0.0013(3) -0.0036(2)
Se6 Se2- 0.0249(3) 0.0176(3) 0.0394(4) -0.0045(2) 0.0026(3) 0.0029(2)
P1 P4+ 0.0160(7) 0.0181(6) 0.0199(7) -0.0011(5) -0.0006(6) 0.0014(5)
P2 P4+ 0.0141(7) 0.0176(6) 0.0191(7) -0.0022(5) -0.0024(5) -0.0009(5)
K1 K1+ 0.0453(9) 0.0353(8) 0.0463(9) -0.0010(7) -0.0044(7) -0.0187(7)
K2 K1+ 0.0388(9) 0.0416(8) 0.0489(9) -0.0042(7) 0.0214(7) -0.0021(7)
K3 K1+ 0.0427(9) 0.0318(7) 0.0411(8) 0.0014(6) 0.0006(7) 0.0121(6)
K4 K1+ 0.0396(9) 0.0379(8) 0.0520(10) 0.0132(7) -0.0232(7) -0.0150(7)
#End of data_409814-ICSD


