data_81680-ICSD
#?2014 by Fachinformationszentrum Karlsruhe, and the U.S. Secretary of 
#Commerce on behalf of the United States.  All rights reserved.
_database_code_ICSD                81680
_audit_creation_date               1997/05/13
_audit_update_record               2003/10/01
_chemical_name_systematic
;
Dirubidium Potassium Hexafluoroscandate(III) - Lt
;
_chemical_formula_structural       'Rb2 K (Sc F6)'
_chemical_formula_sum              'F6 K1 Rb2 Sc1'
_publ_section_title
;
Neutron powder refinements of the three structural forms of Rb2 K Sc 
F6
;
loop_
_citation_id
_citation_journal_abbrev
_citation_year
_citation_journal_volume
_citation_page_first
_citation_page_last
_citation_journal_id_ASTM
primary 'European Journal of Solid State Inorganic Chemistry'
 1996 33 893 905 EJSCE5
2 'Phase Transition' 1992 38 127 220 PHTRDP
_publ_author_name
;
Faget, H.;Grannec, J.;Tressaud, A.;Rodriguez, V.;Roisnel, T.;Flerov, 
I.N.;Gorev, M.V.
;
_cell_length_a                     6.363(1)
_cell_length_b                     6.349(1)
_cell_length_c                     8.993(1)
_cell_angle_alpha                  90.
_cell_angle_beta                   89.90(1)
_cell_angle_gamma                  90.
_cell_volume                       363.3
_cell_formula_units_Z              2
_symmetry_space_group_name_H-M     'P 1 21/n 1'
_symmetry_Int_Tables_number        14
_refine_ls_R_factor_all            .065
loop_
_symmetry_equiv_pos_site_id
_symmetry_equiv_pos_as_xyz
  1	'-x+.5, y+.5, -z+.5'
  2	'-x, -y, -z'
  3	'x+.5, -y+.5, z+.5'
  4	'x, y, z'
loop_
_atom_type_symbol
_atom_type_oxidation_number
F1-	-1
K1+	1
Rb1+	1
Sc3+	3
loop_
_atom_site_label
_atom_site_type_symbol
_atom_site_symmetry_multiplicity
_atom_site_Wyckoff_symbol
_atom_site_fract_x
_atom_site_fract_y
_atom_site_fract_z
_atom_site_occupancy
_atom_site_attached_hydrogens
_atom_site_B_iso_or_equiv
Rb1 Rb1+ 4 e 0.504(2) -.021(1) 0.251(2) 1. 0 1.2(1) 
K1 K1+ 2 b 0 0 0.5 1. 0 0.7(1) 
Sc1 Sc3+ 2 a 0 0 0 1. 0 0.7(1) 
F1 F1- 4 e 0.058(3) 0.011(2) 0.221(2) 1. 0 1.4(2) 
F2 F1- 4 e 0.748(3) 0.189(2) 0.029(2) 1. 0 1.4(2) 
F3 F1- 4 e 0.184(2) 0.256(3) -.031(2) 1. 0 2.0(2) 

#End of data_81680-ICSD


