data_404779-ICSD
#?2014 by Fachinformationszentrum Karlsruhe, and the U.S. Secretary of 
#Commerce on behalf of the United States.  All rights reserved.
_database_code_ICSD                404779
_audit_creation_date               1996/10/14
_chemical_name_systematic          'Hexaaquamagnesium Dibromate'
_chemical_formula_structural       '((H2 O)6 Mg) (Br O3)2'
_chemical_formula_sum              'H12 Br2 Mg1 O12'
_publ_section_title
;
Die Zwillings-Kristallstruktur von Mg(BrO3)2 * 6H2O
;
loop_
_citation_id
_citation_journal_abbrev
_citation_year
_citation_journal_volume
_citation_page_first
_citation_page_last
_citation_journal_id_ASTM
primary 'Zeitschrift fuer Naturforschung, B: Chemical Sciences'
 1996 51 1072 1072 ZNBSEN
_publ_author_name
;
Peter, S.;Suchanek, E.;Esser, D.;Lutz, H.D.
;
_cell_length_a                     10.3956(9)
_cell_length_b                     10.3956(9)
_cell_length_c                     10.3956(9)
_cell_angle_alpha                  90.
_cell_angle_beta                   90.
_cell_angle_gamma                  90.
_cell_volume                       1123.44
_cell_formula_units_Z              4
_symmetry_space_group_name_H-M     'P a -3'
_symmetry_Int_Tables_number        205
_refine_ls_R_factor_all            .0465
loop_
_symmetry_equiv_pos_site_id
_symmetry_equiv_pos_as_xyz
  1	'-z+.5, x+.5, y'
  2	'z+.5, x, -y+.5'
  3	'z, -x+.5, y+.5'
  4	'-z, -x, -y'
  5	'y, -z+.5, x+.5'
  6	'-y+.5, z+.5, x'
  7	'y+.5, z, -x+.5'
  8	'-y, -z, -x'
  9	'x+.5, y, -z+.5'
 10	'x, -y+.5, z+.5'
 11	'-x+.5, y+.5, z'
 12	'-x, -y, -z'
 13	'z+.5, -x+.5, -y'
 14	'-z+.5, -x, y+.5'
 15	'-z, x+.5, -y+.5'
 16	'z, x, y'
 17	'-y, z+.5, -x+.5'
 18	'y+.5, -z+.5, -x'
 19	'-y+.5, -z, x+.5'
 20	'y, z, x'
 21	'-x+.5, -y, z+.5'
 22	'-x, y+.5, -z+.5'
 23	'x+.5, -y+.5, -z'
 24	'x, y, z'
loop_
_atom_type_symbol
_atom_type_oxidation_number
Br5+	5
H1+	1
Mg2+	2
O2-	-2
loop_
_atom_site_label
_atom_site_type_symbol
_atom_site_symmetry_multiplicity
_atom_site_Wyckoff_symbol
_atom_site_fract_x
_atom_site_fract_y
_atom_site_fract_z
_atom_site_occupancy
_atom_site_attached_hydrogens
_atom_site_U_iso_or_equiv
Mg1 Mg2+ 4 a 0 0 0 1. 0 0 
Br1 Br5+ 8 c 0.258780(12) 0.258780(12) 0.258780(12) 1. 0 0 
O1 O2- 24 d 0.16134(8) 0.66946(9) 0.15486(9) 1. 0 0 
O2 O2- 24 d 0.03149(10) -.02721(11) 0.19526(10) 1. 0 0 
H1 H1+ 24 d 0.0501(22) 0.023(2) 0.2408(18) 1. 0 0.042(6) 
H2 H1+ 24 d -.0334(23) -.0596(19) 0.2354(16) 1. 0 0.034(5) 

loop_
_atom_site_aniso_label
_atom_site_aniso_type_symbol
_atom_site_aniso_U_11
_atom_site_aniso_U_22
_atom_site_aniso_U_33
_atom_site_aniso_U_12
_atom_site_aniso_U_13
_atom_site_aniso_U_23
Mg1 Mg2+ 0.0222(2) 0.0222(2) 0.0222(2) -.0010(2) -.0010(2) -.0010(2)
Br1 Br5+ 0.02352(6) 0.02352(6) 0.02352(6) -.00160(4) -.00160(4) -.00160(4)
O1 O2- 0.0325(5) 0.0297(5) 0.0359(6) 0.0003(4) -.0060(4) -.0054(4)
O2 O2- 0.0321(5) 0.0329(6) 0.0251(5) -.0064(4) -.0015(4) -.0008(4)
#End of data_404779-ICSD


