data_20617-ICSD
#?2014 by Fachinformationszentrum Karlsruhe, and the U.S. Secretary of 
#Commerce on behalf of the United States.  All rights reserved.
_database_code_ICSD                20617
_audit_creation_date               1980/01/01
_audit_update_record               2012/02/01
_chemical_name_systematic          'Dilithium Sulfate(VI) Hydrate'
_chemical_formula_structural       'Li2 (S O4) (H2 O)'
_chemical_formula_sum              'H2 Li2 O5 S1'
_publ_section_title
;
The location of hydrogen atoms in monohydrate of lithium sulfate Li2 
S O4 H2 O by means of neutron diffraction
;
loop_
_citation_id
_citation_journal_abbrev
_citation_year
_citation_journal_volume
_citation_page_first
_citation_page_last
_citation_journal_id_ASTM
primary 'Doklady Akademii Nauk SSSR' 1963 148 1069 1072 DANKAS
2
;
Zeitschrift fuer Kristallographie, Kristallgeometrie, Kristallphysik, 
Kristallchemie (-144,1977)
;
 1934 89 456 456 ZEKGAX
_publ_author_name
;
Ozerov, R.P.;Fykin, L.E.;Rannev, N.V.;Zhdanov, G.S.
;
_cell_length_a                     5.44
_cell_length_b                     4.8
_cell_length_c                     8.155
_cell_angle_alpha                  90.
_cell_angle_beta                   107.583
_cell_angle_gamma                  90.
_cell_volume                       202.99
_cell_formula_units_Z              2
_symmetry_space_group_name_H-M     'P 1 21 1'
_symmetry_Int_Tables_number        4
loop_
_symmetry_equiv_pos_site_id
_symmetry_equiv_pos_as_xyz
  1	'-x, y+.5, -z'
  2	'x, y, z'
loop_
_atom_type_symbol
_atom_type_oxidation_number
H1+	1
Li1+	1
O2-	-2
S6+	6
loop_
_atom_site_label
_atom_site_type_symbol
_atom_site_symmetry_multiplicity
_atom_site_Wyckoff_symbol
_atom_site_fract_x
_atom_site_fract_y
_atom_site_fract_z
_atom_site_occupancy
_atom_site_attached_hydrogens
H1 H1+ 2 a 0.48 0.122 0.297 1. 0 
H2 H1+ 2 a 0.517 0.788 0.488 1. 0 
S1 S6+ 2 a 0.208 0 -.211 1. 0 
O1 O2- 2 a 0.5 -.028 -.192 1. 0 
O2 O2- 2 a 0.078 -.078 -.397 1. 0 
O3 O2- 2 a 0.161 0.306 -.197 1. 0 
O4 O2- 2 a 0.569 0.472 -.386 1. 0 
O5 O2- 2 a 0.153 -.139 -.083 1. 0 
Li1 Li1+ 2 a -.069 0.542 -.386 1. 0 
Li2 Li1+ 2 a 0.167 0.478 0.003 1. 0 

#End of data_20617-ICSD


