data_16160-ICSD
#?2014 by Fachinformationszentrum Karlsruhe, and the U.S. Secretary of 
#Commerce on behalf of the United States.  All rights reserved.
_database_code_ICSD                16160
_audit_creation_date               1980/01/01
_audit_update_record               2009/02/01
_chemical_name_systematic          'Sodium Zinc Silicate *'
_chemical_formula_structural       'Na2 Zn (Si2 O6)'
_chemical_formula_sum              'Na2 O6 Si2 Zn1'
_chemical_name_mineral             'Chkalovite, zincean'
_publ_section_title
;
Crystal structure of zinc Chkalovite Na2 Zn (Si2 O6)
;
loop_
_citation_id
_citation_journal_abbrev
_citation_year
_citation_journal_volume
_citation_page_first
_citation_page_last
_citation_journal_id_ASTM
primary Kristallografiya 1969 14 1060 1062 KRISAJ
2 'Soviet Physics, Crystallography (= Kristallografiya)'
 1969 14 918 919 SPHCA6
_publ_author_name
;
Belokoneva, E.L.;Egorov Tismenko, Yu.K.;Simonov, M.A.;Belov, N.V.
;
_cell_length_a                     21.5030(50)
_cell_length_b                     7.120(2)
_cell_length_c                     7.400(2)
_cell_angle_alpha                  90.
_cell_angle_beta                   90.
_cell_angle_gamma                  90.
_cell_volume                       1132.95
_cell_formula_units_Z              8
_symmetry_space_group_name_H-M     'F d d 2'
_symmetry_Int_Tables_number        43
_refine_ls_R_factor_all            .129
loop_
_symmetry_equiv_pos_site_id
_symmetry_equiv_pos_as_xyz
  1	'x+.25, -y+.25, z+.25'
  2	'-x+.25, y+.25, z+.25'
  3	'-x, -y, z'
  4	'x, y, z'
  5	'x+.25, -y+.75, z+.75'
  6	'x+.75, -y+.25, z+.75'
  7	'x+.75, -y+.75, z+.25'
  8	'-x+.25, y+.75, z+.75'
  9	'-x+.75, y+.25, z+.75'
 10	'-x+.75, y+.75, z+.25'
 11	'-x, -y+.5, z+.5'
 12	'-x+.5, -y, z+.5'
 13	'-x+.5, -y+.5, z'
 14	'x, y+.5, z+.5'
 15	'x+.5, y, z+.5'
 16	'x+.5, y+.5, z'
loop_
_atom_type_symbol
_atom_type_oxidation_number
Na1+	1
O2-	-2
Si4+	4
Zn2+	2
loop_
_atom_site_label
_atom_site_type_symbol
_atom_site_symmetry_multiplicity
_atom_site_Wyckoff_symbol
_atom_site_fract_x
_atom_site_fract_y
_atom_site_fract_z
_atom_site_occupancy
_atom_site_attached_hydrogens
_atom_site_B_iso_or_equiv
Zn1 Zn2+ 8 a 0 0 0.5 1. 0 0.54 
Si1 Si4+ 16 b 0.081 0.282 0.279 1. 0 0.54 
Na1 Na1+ 16 b 0.078 0.288 0.746 1. 0 0.54 
O1 O2- 16 b 0.077 0.448 0.123 1. 0 0.54 
O2 O2- 16 b 0.12 0.108 0.196 1. 0 0.54 
O3 O2- 16 b 0.02 0.209 0.346 1. 0 0.54 

#End of data_16160-ICSD


