data_386-ICSD
#?2014 by Fachinformationszentrum Karlsruhe, and the U.S. Secretary of 
#Commerce on behalf of the United States.  All rights reserved.
_database_code_ICSD                386
_audit_creation_date               1980/01/01
_audit_update_record               2011/08/01
_chemical_name_systematic          'Rubidium Zinc Sulfate(VI) Chloride'
_chemical_formula_structural       'Rb Zn (S O4) Cl'
_chemical_formula_sum              'Cl1 O4 Rb1 S1 Zn1'
_publ_section_title
;
The crystal structures of Rb Zn S O4 Cl and Tl Zn S O4 Cl
;
loop_
_citation_id
_citation_journal_abbrev
_citation_year
_citation_journal_volume
_citation_page_first
_citation_page_last
_citation_journal_id_ASTM
primary 'Acta Crystallographica B (24,1968-38,1982)' 1976 32 2044 2047 ACBCAR
_publ_author_name                  'Bosson, B.'
_cell_length_a                     7.2610(3)
_cell_length_b                     9.6152(5)
_cell_length_c                     8.3086(6)
_cell_angle_alpha                  90.
_cell_angle_beta                   95.542(6)
_cell_angle_gamma                  90.
_cell_volume                       577.36
_cell_formula_units_Z              4
_symmetry_space_group_name_H-M     'P 1 21/c 1'
_symmetry_Int_Tables_number        14
_refine_ls_R_factor_all            .08
loop_
_symmetry_equiv_pos_site_id
_symmetry_equiv_pos_as_xyz
  1	'x, -y+.5, z+.5'
  2	'-x, -y, -z'
  3	'-x, y+.5, -z+.5'
  4	'x, y, z'
loop_
_atom_type_symbol
_atom_type_oxidation_number
Cl1-	-1
O2-	-2
Rb1+	1
S6+	6
Zn2+	2
loop_
_atom_site_label
_atom_site_type_symbol
_atom_site_symmetry_multiplicity
_atom_site_Wyckoff_symbol
_atom_site_fract_x
_atom_site_fract_y
_atom_site_fract_z
_atom_site_occupancy
_atom_site_attached_hydrogens
_atom_site_B_iso_or_equiv
Rb1 Rb1+ 4 e 0.36208(14) 0.08233(12) 0.19976(13) 1. 0 0 
Zn1 Zn2+ 4 e 0.9049(1) 0.1977(1) 0.4566(2) 1. 0 0 
Cl1 Cl1- 4 e 0.6242(4) 0.1844(3) 0.5316(3) 1. 0 2.39 
S1 S6+ 4 e 0.1071(3) 0.4305(2) 0.2666(3) 1. 0 1.32 
O1 O2- 4 e 0.1103(10) 0.3401(8) 0.1232(8) 1. 0 2.06 
O2 O2- 4 e -.032(1) 0.3774(8) 0.3705(9) 1. 0 2.3 
O3 O2- 4 e 0.2912(12) 0.4373(9) 0.3512(11) 1. 0 3.15 
O4 O2- 4 e 0.0360(11) 0.5689(8) 0.2158(10) 1. 0 2.57 

#End of data_386-ICSD


