data_47121-ICSD
#?2014 by Fachinformationszentrum Karlsruhe, and the U.S. Secretary of 
#Commerce on behalf of the United States.  All rights reserved.
_database_code_ICSD                47121
_audit_creation_date               1985/05/09
_audit_update_record               2000/07/15
_chemical_name_systematic          'Calcium Ditantalum Oxide'
_chemical_formula_structural       'Ca Ta2 O6'
_chemical_formula_sum              'Ca1 O6 Ta2'
_publ_section_title
;
Eine kubische Hochtemperaturform von Ca Ta2 O6
;
loop_
_citation_id
_citation_journal_abbrev
_citation_year
_citation_journal_volume
_citation_page_first
_citation_page_last
_citation_journal_id_ASTM
primary 'Zeitschrift fuer Anorganische und Allgemeine Chemie (1950) (DE)'
 1984 516 201 206 ZAACAB
_publ_author_name
;
Tiedemann, P.;Mueller Buschbaum, H.
;
_cell_length_a                     7.78
_cell_length_b                     7.78
_cell_length_c                     7.78
_cell_angle_alpha                  90.
_cell_angle_beta                   90.
_cell_angle_gamma                  90.
_cell_volume                       470.91
_cell_formula_units_Z              4
_symmetry_space_group_name_H-M     'P m -3'
_symmetry_Int_Tables_number        200
_refine_ls_R_factor_all            .067
loop_
_symmetry_equiv_pos_site_id
_symmetry_equiv_pos_as_xyz
  1	'-z, x, y'
  2	'z, x, -y'
  3	'z, -x, y'
  4	'-z, -x, -y'
  5	'y, -z, x'
  6	'-y, z, x'
  7	'y, z, -x'
  8	'-y, -z, -x'
  9	'x, y, -z'
 10	'x, -y, z'
 11	'-x, y, z'
 12	'-x, -y, -z'
 13	'z, -x, -y'
 14	'-z, -x, y'
 15	'-z, x, -y'
 16	'z, x, y'
 17	'-y, z, -x'
 18	'y, -z, -x'
 19	'-y, -z, x'
 20	'y, z, x'
 21	'-x, -y, z'
 22	'-x, y, -z'
 23	'x, -y, -z'
 24	'x, y, z'
loop_
_atom_type_symbol
_atom_type_oxidation_number
Ca2+	2
O2-	-2
Ta5+	5
loop_
_atom_site_label
_atom_site_type_symbol
_atom_site_symmetry_multiplicity
_atom_site_Wyckoff_symbol
_atom_site_fract_x
_atom_site_fract_y
_atom_site_fract_z
_atom_site_occupancy
_atom_site_attached_hydrogens
_atom_site_B_iso_or_equiv
Ca1 Ca2+ 1 b 0.5 0.5 0.5 1. 0 1.4(3) 
Ca2 Ca2+ 3 d 0.5 0 0 1. 0 1.4(3) 
Ta1 Ta5+ 8 i 0.2475(2) 0.2475(2) 0.2475(2) 1. 0 0.45(4) 
O1 O2- 12 k 0.5 0.227(7) 0.284(8) 1. 0 0.9(7) 
O2 O2- 12 j 0 0.273(7) 0.220(8) 1. 0 0.6(6) 

#End of data_47121-ICSD


