data_100326-ICSD
#?2014 by Fachinformationszentrum Karlsruhe, and the U.S. Secretary of 
#Commerce on behalf of the United States.  All rights reserved.
_database_code_ICSD                100326
_audit_creation_date               1986/08/05
_audit_update_record               2005/10/01
_chemical_name_systematic          'Dipotassium Tetracyanozincate'
_chemical_formula_structural       'K2 (Zn (C N)4)'
_chemical_formula_sum              'C4 K2 N4 Zn1'
_publ_section_title
;
Einkristalluntersuchungen an Hochdruckmodifikationen von K2 Zn (C N)4
;
loop_
_citation_id
_citation_journal_abbrev
_citation_year
_citation_journal_volume
_citation_page_first
_citation_page_last
_citation_journal_id_ASTM
primary 'Zeitschrift fuer Kristallographie (1979-2010)' 1979 149 151 152 ZEKRDZ
_publ_author_name                  'Ahsbahs, H.'
_cell_length_a                     15.19
_cell_length_b                     15.19
_cell_length_c                     15.19
_cell_angle_alpha                  32.4
_cell_angle_beta                   32.4
_cell_angle_gamma                  32.4
_cell_volume                       894.65
_cell_formula_units_Z              4
_symmetry_space_group_name_H-M     'R -3 c R'
_symmetry_Int_Tables_number        167
_refine_ls_R_factor_all            .078
loop_
_symmetry_equiv_pos_site_id
_symmetry_equiv_pos_as_xyz
  1	'-x+.5, -z+.5, -y+.5'
  2	'-z+.5, -y+.5, -x+.5'
  3	'-y+.5, -x+.5, -z+.5'
  4	'x+.5, z+.5, y+.5'
  5	'z+.5, y+.5, x+.5'
  6	'y+.5, x+.5, z+.5'
  7	'-z, -x, -y'
  8	'-y, -z, -x'
  9	'-x, -y, -z'
 10	'z, x, y'
 11	'y, z, x'
 12	'x, y, z'
loop_
_atom_type_symbol
_atom_type_oxidation_number
C2+	2
K1+	1
N3-	-3
Zn2+	2
loop_
_atom_site_label
_atom_site_type_symbol
_atom_site_symmetry_multiplicity
_atom_site_Wyckoff_symbol
_atom_site_fract_x
_atom_site_fract_y
_atom_site_fract_z
_atom_site_occupancy
_atom_site_attached_hydrogens
K1 K1+ 2 b 0 0 0 1. 0 
K2 K1+ 6 e 0.75 0.333 0.167 1. 0 
Zn1 Zn2+ 4 c 0.185 0.185 0.185 1. 0 
N1 N3- 4 c 0.113 0.113 0.113 1. 0 
C1 C2+ 4 c 0.138 0.138 0.138 1. 0 
N2 N3- 12 f 0.684 0.17 0.016 1. 0 
C2 C2+ 12 f 0.547 0.226 0.123 1. 0 

#End of data_100326-ICSD


