data_63513-ICSD
#?2014 by Fachinformationszentrum Karlsruhe, and the U.S. Secretary of 
#Commerce on behalf of the United States.  All rights reserved.
_database_code_ICSD                63513
_audit_creation_date               1988/12/19
_audit_update_record               2012/08/01
_chemical_name_systematic
;
Sodium Hafnium Germanium Oxide (4/2/3/12)
;
_chemical_formula_structural       'Na4 Hf2 Ge3 O12'
_chemical_formula_sum              'Ge3 Hf2 Na4 O12'
_publ_section_title
;
Hydrothermal crystallisation and crystal structure of the ionic 
conductor Na4Hf2Ge3O12
;
loop_
_citation_id
_citation_journal_abbrev
_citation_year
_citation_journal_volume
_citation_journal_issue
_citation_page_first
_citation_page_last
_citation_journal_id_ASTM
primary 'Doklady Akademii Nauk SSSR' 1985 285 3 622 626 DANKAS
2 'Soviet Physics, Doklady (see: Doklady Akademii Nauk SSR)'
 1985 30 11 909 911 SPHDA9
_publ_author_name
;
Ilyushin, G.D.;Dem'yanets, L.N.;Vistin', L.L.
;
_cell_length_a                     9.342
_cell_length_b                     9.342
_cell_length_c                     22.407
_cell_angle_alpha                  90.
_cell_angle_beta                   90.
_cell_angle_gamma                  120.
_cell_volume                       1693.53
_cell_formula_units_Z              6
_symmetry_space_group_name_H-M     'R -3 c H'
_symmetry_Int_Tables_number        167
_refine_ls_R_factor_all            .051
loop_
_symmetry_equiv_pos_site_id
_symmetry_equiv_pos_as_xyz
  1	'x-y, -y, -z+.5'
  2	'-x, -x+y, -z+.5'
  3	'y, x, -z+.5'
  4	'x-y, x, -z'
  5	'y, -x+y, -z'
  6	'-x, -y, -z'
  7	'-x+y, y, z+.5'
  8	'x, x-y, z+.5'
  9	'-y, -x, z+.5'
 10	'-x+y, -x, z'
 11	'-y, x-y, z'
 12	'x, y, z'
 13	'x-y+.6666, -y+.3333, -z+.8333'
 14	'x-y+.3333, -y+.6666, -z+.1666'
 15	'-x+.6666, -x+y+.3333, -z+.8333'
 16	'-x+.3333, -x+y+.6666, -z+.1666'
 17	'y+.6666, x+.3333, -z+.8333'
 18	'y+.3333, x+.6666, -z+.1666'
 19	'x-y+.6666, x+.3333, -z+.3333'
 20	'x-y+.3333, x+.6666, -z+.6666'
 21	'y+.6666, -x+y+.3333, -z+.3333'
 22	'y+.3333, -x+y+.6666, -z+.6666'
 23	'-x+.6666, -y+.3333, -z+.3333'
 24	'-x+.3333, -y+.6666, -z+.6666'
 25	'-x+y+.6666, y+.3333, z+.8333'
 26	'-x+y+.3333, y+.6666, z+.1666'
 27	'x+.6666, x-y+.3333, z+.8333'
 28	'x+.3333, x-y+.6666, z+.1666'
 29	'-y+.6666, -x+.3333, z+.8333'
 30	'-y+.3333, -x+.6666, z+.1666'
 31	'-x+y+.6666, -x+.3333, z+.3333'
 32	'-x+y+.3333, -x+.6666, z+.6666'
 33	'-y+.6666, x-y+.3333, z+.3333'
 34	'-y+.3333, x-y+.6666, z+.6666'
 35	'x+.6666, y+.3333, z+.3333'
 36	'x+.3333, y+.6666, z+.6666'
loop_
_atom_type_symbol
_atom_type_oxidation_number
Ge4+	4
Hf4+	4
Na1+	1
O2-	-2
loop_
_atom_site_label
_atom_site_type_symbol
_atom_site_symmetry_multiplicity
_atom_site_Wyckoff_symbol
_atom_site_fract_x
_atom_site_fract_y
_atom_site_fract_z
_atom_site_occupancy
_atom_site_attached_hydrogens
Hf1 Hf4+ 12 c 0 0 0.1448(1) 1. 0 
Na1 Na1+ 6 b 0 0 0 1. 0 
Na2 Na1+ 18 e 0.3665(7) 0 0.75 1. 0 
Ge1 Ge4+ 18 e 0.2940(1) 0 0.25 1. 0 
O1 O2- 36 f 0.1809(7) 0.1586(7) 0.0833(2) 1. 0 
O2 O2- 36 f 0.1751(9) 0.0248(9) 0.1880(3) 1. 0 

#End of data_63513-ICSD


