data_95751-ICSD
#?2014 by Fachinformationszentrum Karlsruhe, and the U.S. Secretary of 
#Commerce on behalf of the United States.  All rights reserved.
_database_code_ICSD                95751
_audit_creation_date               2004/04/01
_chemical_name_systematic          'Lithium Iron(III) Diphosphate(V)'
_chemical_formula_structural       'Li Fe (P2 O7)'
_chemical_formula_sum              'Fe1 Li1 O7 P2'
_publ_section_title
;
A neutron diffraction study of the antiferromagnetic diphosphate Li 
Fe P2 O7
;
loop_
_citation_id
_citation_journal_abbrev
_citation_year
_citation_journal_volume
_citation_page_first
_citation_page_last
_citation_journal_id_ASTM
primary 'Solid State Sciences' 2002 4 973 978 SSSCFJ
_publ_author_name
;
Rousse, G.;Rodriguez Carvajal, J.;Wurm, C.;Masquelier, C.
;
_cell_length_a                     4.8091(6)
_cell_length_b                     8.0574(9)
_cell_length_c                     6.928(1)
_cell_angle_alpha                  90
_cell_angle_beta                   109.379(5)
_cell_angle_gamma                  90
_cell_volume                       253.24
_cell_formula_units_Z              2
_symmetry_space_group_name_H-M     'P 1 21 1'
_symmetry_Int_Tables_number        4
_refine_ls_R_factor_all            .015
loop_
_symmetry_equiv_pos_site_id
_symmetry_equiv_pos_as_xyz
  1	'-x, y+.5, -z'
  2	'x, y, z'
loop_
_atom_type_symbol
_atom_type_oxidation_number
Fe3+	3
Li1+	1
O2-	-2
P5+	5
loop_
_atom_site_label
_atom_site_type_symbol
_atom_site_symmetry_multiplicity
_atom_site_Wyckoff_symbol
_atom_site_fract_x
_atom_site_fract_y
_atom_site_fract_z
_atom_site_occupancy
_atom_site_attached_hydrogens
_atom_site_B_iso_or_equiv
Li1 Li1+ 2 a 0.8030 0.3840 0.8190 1. 0 2.00 
Fe1 Fe3+ 2 a 0.2195 0.250 0.2340 1. 0 0.387 
P1 P5+ 2 a 0.7939 0.4704 0.4166 1. 0 0.406 
P2 P5+ 2 a 0.6008 0.0709 0.9802 1. 0 0.368 
O1 O2- 2 a 0.4029 0.0722 0.1099 1. 0 0.680 
O2 O2- 2 a 0.8141 0.2156 0.0198 1. 0 0.610 
O3 O2- 2 a 0.1318 0.0616 0.3813 1. 0 0.700 
O4 O2- 2 a 0.0619 0.4302 0.3611 1. 0 0.840 
O5 O2- 2 a 0.2481 0.4056 0.0103 1. 0 0.580 
O6 O2- 2 a 0.3985 0.1016 0.7475 1. 0 0.730 
O7 O2- 2 a 0.6082 0.3197 0.4183 1. 0 0.780 

#End of data_95751-ICSD


