data_69632-ICSD
#?2014 by Fachinformationszentrum Karlsruhe, and the U.S. Secretary of 
#Commerce on behalf of the United States.  All rights reserved.
_database_code_ICSD                69632
_audit_creation_date               1992/08/20
_audit_update_record               1999/11/30
_chemical_name_systematic          'Calcium Pentafluoromanganate(III)'
_chemical_formula_structural       'Ca (Mn F5)'
_chemical_formula_sum              'Ca1 F5 Mn1'
_publ_section_title
;
Korrektur zu den Kristallstrukturen von Ca Mn F5 und Cd Mn F5
;
loop_
_citation_id
_citation_journal_abbrev
_citation_year
_citation_journal_volume
_citation_page_first
_citation_page_last
_citation_journal_id_ASTM
primary 'Zeitschrift fuer Anorganische und Allgemeine Chemie (1950) (DE)'
 1990 583 205 208 ZAACAB
2 'Revue de Chimie Minerale' 1986 23 520 531 RVCMA8
_publ_author_name                  'Mueller, U.;Hoppe, R.'
_cell_length_a                     8.938(2)
_cell_length_b                     6.369(1)
_cell_length_c                     7.830(2)
_cell_angle_alpha                  90.
_cell_angle_beta                   116.23(3)
_cell_angle_gamma                  90.
_cell_volume                       399.83
_cell_formula_units_Z              4
_symmetry_space_group_name_H-M     'C 1 2/c 1'
_symmetry_Int_Tables_number        15
_refine_ls_R_factor_all            .047
loop_
_symmetry_equiv_pos_site_id
_symmetry_equiv_pos_as_xyz
  1	'x, -y, z+.5'
  2	'-x, -y, -z'
  3	'-x, y, -z+.5'
  4	'x, y, z'
  5	'x+.5, -y+.5, z+.5'
  6	'-x+.5, -y+.5, -z'
  7	'-x+.5, y+.5, -z+.5'
  8	'x+.5, y+.5, z'
loop_
_atom_type_symbol
_atom_type_oxidation_number
Ca2+	2
F1-	-1
Mn3+	3
loop_
_atom_site_label
_atom_site_type_symbol
_atom_site_symmetry_multiplicity
_atom_site_Wyckoff_symbol
_atom_site_fract_x
_atom_site_fract_y
_atom_site_fract_z
_atom_site_occupancy
_atom_site_attached_hydrogens
Ca1 Ca2+ 4 e 0 0.4556(2) 0.25 1. 0 
Mn1 Mn3+ 4 a 0 0 0 1. 0 
F1 F1- 8 f 0.0102(4) 0.2943(4) -.0327(4) 1. 0 
F2 F1- 8 f 0.2244(4) -.0173(5) 0.1155(6) 1. 0 
F3 F1- 4 e 0 0.0930(7) 0.25 1. 0 

loop_
_atom_site_aniso_label
_atom_site_aniso_type_symbol
_atom_site_aniso_U_11
_atom_site_aniso_U_22
_atom_site_aniso_U_33
_atom_site_aniso_U_12
_atom_site_aniso_U_13
_atom_site_aniso_U_23
Ca1 Ca2+ 0.0244(6) 0.0215(6) 0.0243(6) 0 0.0101(5) 0
Mn1 Mn3+ 0.0225(5) 0.0205(5) 0.0214(5) -.0001(3) 0.0097(4) -.0023(4)
F1 F1- 0.043(2) 0.027(1) 0.030(1) 0.001(1) 0.020(1) 0.004(1)
F2 F1- 0.023(1) 0.047(2) 0.052(2) 0.000(1) 0.010(1) -.003(2)
F3 F1- 0.059(3) 0.026(2) 0.035(2) 0 0.030(2) 0
#End of data_69632-ICSD


