data_245226-ICSD
#?2014 by Fachinformationszentrum Karlsruhe, and the U.S. Secretary of 
#Commerce on behalf of the United States.  All rights reserved.
_database_code_ICSD                245226
_audit_creation_date               2007/08/01
_chemical_name_systematic
;
Disodium Diyttrium Oxide Bis(borate)
;
_chemical_formula_structural       'Na2 Y2 O (B O3)2'
_chemical_formula_sum              'B2 Na2 O7 Y2'
_publ_section_title
;
Studies on some ternary oxyborates of the Na2 O - Me2 O3 - B2 O3 
(Me=rare earth or aluminium) systems: synthesis, structure and 
crystal growth
;
loop_
_citation_id
_citation_journal_abbrev
_citation_year
_citation_journal_volume
_citation_journal_issue
_citation_page_first
_citation_page_last
_citation_journal_id_ASTM
primary 'Journal of Solid State Chemistry' 2006 179 9 2834 2849 JSSCBI
2 'Journal of Solid State Chemistry' 1999 144- 35 44 JSSCBI
_publ_author_name
;
Peshev, P.;Pechev, S.;Nikolov, V.;Gravereau, P.;Chaminade, 
J.P.;Binev, D.;Ivanova, D.
;
_cell_length_a                     10.5980(3)
_cell_length_b                     6.2305(2)
_cell_length_c                     10.2244(3)
_cell_angle_alpha                  90
_cell_angle_beta                   117.76(2)
_cell_angle_gamma                  90
_cell_volume                       597.42
_cell_formula_units_Z              4
_symmetry_space_group_name_H-M     'P 1 21/c 1'
_symmetry_Int_Tables_number        14
_refine_ls_R_factor_all            .0278
loop_
_symmetry_equiv_pos_site_id
_symmetry_equiv_pos_as_xyz
  1	'x, -y+.5, z+.5'
  2	'-x, -y, -z'
  3	'-x, y+.5, -z+.5'
  4	'x, y, z'
loop_
_atom_type_symbol
_atom_type_oxidation_number
B3+	3
Na1+	1
O2-	-2
Y3+	3
loop_
_atom_site_label
_atom_site_type_symbol
_atom_site_symmetry_multiplicity
_atom_site_Wyckoff_symbol
_atom_site_fract_x
_atom_site_fract_y
_atom_site_fract_z
_atom_site_occupancy
_atom_site_attached_hydrogens
_atom_site_B_iso_or_equiv
Y1 Y3+ 4 e 0.1835(3) 0.0815(5) 0.0877(3) 1. 0 0.91(7) 
Y2 Y3+ 4 e 0.9842(3) 0.4591(5) 0.1821(3) 1. 0 0.81(7) 
Na1 Na1+ 4 e 0.526(1) -0.059(2) 0.264(1) 1. 0 1.6(3) 
Na2 Na1+ 4 e 0.609(1) 0.256(2) 0.046(1) 1. 0 1.5(3) 
O1 O2- 4 e 0.972(2) 0.124(3) 0.099(2) 1. 0 0.9(2) 
O2 O2- 4 e 0.320(2) -0.248(3) 0.137(2) 1. 0 0.9(2) 
O3 O2- 4 e 0.170(1) 0.258(3) 0.365(2) 1. 0 0.9(2) 
O4 O2- 4 e 0.149(1) 0.458(2) 0.087(2) 1. 0 0.9(2) 
O5 O2- 4 e 0.399(2) 0.159(3) 0.057(1) 1. 0 0.9(2) 
O6 O2- 4 e 0.853(2) 0.255(2) 0.275(2) 1. 0 0.9(2) 
O7 O2- 4 e 0.368(2) 0.149(2) 0.335(2) 1. 0 0.9(2) 
B1 B3+ 4 e 0.318(1) 0.257(5) -0.077(2) 1. 0 1.2(5) 
B2 B3+ 4 e 0.208(3) -0.344(3) 0.147(3) 1. 0 1.2(5) 

#End of data_245226-ICSD


