data_26395-ICSD
#?2014 by Fachinformationszentrum Karlsruhe, and the U.S. Secretary of 
#Commerce on behalf of the United States.  All rights reserved.
_database_code_ICSD                26395
_audit_creation_date               1981/12/31
_audit_update_record               2011/02/01
_chemical_name_systematic
;
Cesium Silver(II) Hexafluoroferrate(III)
;
_chemical_formula_structural       'Cs Ag (Fe F6)'
_chemical_formula_sum              'Ag1 Cs1 F6 Fe1'
_publ_section_title
;
Zur Struktur quaternaerer Fluoride mit zweiwertigem Silber: Me(I) 
Ag(II) Me(III) F6 mit Me(I)= Rb, Cs und Me(III)= Al, Ga, Fe
;
loop_
_citation_id
_citation_journal_abbrev
_citation_year
_citation_journal_volume
_citation_page_first
_citation_page_last
_citation_journal_id_ASTM
primary 'Journal of Fluorine Chemistry' 1981 17 317 329 JFLCAR
_publ_author_name                  'Mueller, B.G.'
_cell_length_a                     7.338
_cell_length_b                     7.564
_cell_length_c                     10.554
_cell_angle_alpha                  90.
_cell_angle_beta                   90.
_cell_angle_gamma                  90.
_cell_volume                       585.8
_cell_formula_units_Z              4
_symmetry_space_group_name_H-M     'P n m a'
_symmetry_Int_Tables_number        62
_refine_ls_R_factor_all            .057
loop_
_symmetry_equiv_pos_site_id
_symmetry_equiv_pos_as_xyz
  1	'x+.5, y, -z+.5'
  2	'x, -y+.5, z'
  3	'-x+.5, y+.5, z+.5'
  4	'-x, -y, -z'
  5	'-x+.5, -y, z+.5'
  6	'-x, y+.5, -z'
  7	'x+.5, -y+.5, -z+.5'
  8	'x, y, z'
loop_
_atom_type_symbol
_atom_type_oxidation_number
Ag2+	2
Cs1+	1
F1-	-1
Fe3+	3
loop_
_atom_site_label
_atom_site_type_symbol
_atom_site_symmetry_multiplicity
_atom_site_Wyckoff_symbol
_atom_site_fract_x
_atom_site_fract_y
_atom_site_fract_z
_atom_site_occupancy
_atom_site_attached_hydrogens
Cs1 Cs1+ 4 c 0.4834(1) 0.25 0.1259(1) 1. 0 
Ag1 Ag2+ 4 c 0.2972(1) 0.25 0.7570(1) 1. 0 
Fe1 Fe3+ 4 a 0 0 0 1. 0 
F1 F1- 4 c 0.0517(10) 0.25 0.6632(8) 1. 0 
F2 F1- 4 c 0.4390(11) 0.25 0.4864(9) 1. 0 
F3 F1- 8 d 0.1302(8) 0.0076(8) 0.1571(5) 1. 0 
F4 F1- 8 d 0.2206(7) 0.0520(8) 0.9137(6) 1. 0 

loop_
_atom_site_aniso_label
_atom_site_aniso_type_symbol
_atom_site_aniso_U_11
_atom_site_aniso_U_22
_atom_site_aniso_U_33
_atom_site_aniso_U_12
_atom_site_aniso_U_13
_atom_site_aniso_U_23
Cs1 Cs1+ 0.0258(5) 0.0318(5) 0.0275(5) 0 -.0043(4) 0
Ag1 Ag2+ 0.0117(4) 0.0159(4) 0.0151(4) 0 -.0001(4) 0
Fe1 Fe3+ 0.0140(8) 0.0149(8) 0.0150(8) -.0004(7) 0.0017(7) 0.0034(7)
F1 F1- 0.0155(29) 0.0406(35) 0.0297(34) 0 0.0032(29) 0
F2 F1- 0.0325(34) 0.0186(31) 0.0426(37) 0 -.0028(33) 0
F3 F1- 0.0394(29) 0.0407(30) 0.0207(24) 0.0006(27) -.0125(23) -.0034(25)
F4 F1- 0.0232(25) 0.0252(26) 0.0471(30) -.0036(23) 0.0130(24) -.0002(25)
#End of data_26395-ICSD


