data_170321-ICSD
#?2014 by Fachinformationszentrum Karlsruhe, and the U.S. Secretary of 
#Commerce on behalf of the United States.  All rights reserved.
_database_code_ICSD                170321
_audit_creation_date               2006/04/01
_audit_update_record               2012/02/01
_chemical_name_systematic
;
Potassium Indium Tin Selenide - Beta
;
_chemical_formula_structural       'K In Sn Se4'
_chemical_formula_sum              'In1 K1 Se4 Sn1'
_publ_section_title
;
Cooling melts: kinetic stabilization and polymorphic transitions in 
the K In Sn Se4 system
;
loop_
_citation_id
_citation_journal_abbrev
_citation_year
_citation_journal_volume
_citation_journal_issue
_citation_page_first
_citation_page_last
_citation_journal_id_ASTM
primary 'Inorganic Chemistry' 2004 43 7 2237 2239 INOCAJ
_publ_author_name
;
Hwang, S.-J.;Iyer, R.G.;Trikalitis, P.N.;Ogden, A.G.;Kanatzidis, M.G.
;
_cell_length_a                     7.773(3)
_cell_length_b                     12.457(4)
_cell_length_c                     18.658(7)
_cell_angle_alpha                  90.00
_cell_angle_beta                   98.149(6)
_cell_angle_gamma                  90.00
_cell_volume                       1788.38
_cell_formula_units_Z              8
_symmetry_space_group_name_H-M     'P 1 21/c 1'
_symmetry_Int_Tables_number        14
_refine_ls_R_factor_all            .0731
loop_
_symmetry_equiv_pos_site_id
_symmetry_equiv_pos_as_xyz
  1	'x, -y+.5, z+.5'
  2	'-x, -y, -z'
  3	'-x, y+.5, -z+.5'
  4	'x, y, z'
loop_
_atom_type_symbol
_atom_type_oxidation_number
In3+	3
K1+	1
Se2-	-2
Sn4+	4
loop_
_atom_site_label
_atom_site_type_symbol
_atom_site_symmetry_multiplicity
_atom_site_Wyckoff_symbol
_atom_site_fract_x
_atom_site_fract_y
_atom_site_fract_z
_atom_site_occupancy
_atom_site_attached_hydrogens
_atom_site_U_iso_or_equiv
Sn1 Sn4+ 4 e 0.24255(9) 0.29672(6) 0.32548(4) 1 0 0.02950(19) 
Sn2 Sn4+ 4 e 0.20088(10) 0.32856(6) -0.01539(4) 1 0 0.0313(2) 
In1 In3+ 4 e -0.03912(8) 0.24800(6) 0.14258(4) 1 0 0.02764(19) 
In2 In3+ 4 e 0.47029(8) 0.24767(6) 0.15960(4) 1 0 0.02712(19) 
Se1 Se2- 4 e 0.21591(12) 0.11892(9) 0.15496(6) 1 0 0.0317(3) 
Se2 Se2- 4 e 0.71134(13) 0.11587(9) 0.14324(6) 1 0 0.0326(3) 
Se3 Se2- 4 e 0.44697(14) 0.40609(10) 0.07165(6) 1 0 0.0376(3) 
Se4 Se2- 4 e -0.09759(14) 0.35360(11) 0.02193(6) 1 0 0.0388(3) 
Se5 Se2- 4 e 0.53484(14) 0.33537(11) 0.28644(6) 1 0 0.0412(3) 
Se6 Se2- 4 e -0.00877(15) 0.38351(10) 0.24674(6) 1 0 0.0401(3) 
Se7 Se2- 4 e 0.2504(2) 0.36881(10) 0.45457(6) 1 0 0.0468(3) 
Se8 Se2- 4 e 0.19972(17) 0.10019(10) 0.35665(6) 1 0 0.0396(3) 
K1 K1+ 4 e -0.2609(7) 0.0995(4) -0.0445(2) 1 0 0.1046(16) 
K2 K1+ 4 e 0.2575(5) 0.5757(3) 0.17535(19) 1 0 0.0782(11) 

loop_
_atom_site_aniso_label
_atom_site_aniso_type_symbol
_atom_site_aniso_U_11
_atom_site_aniso_U_22
_atom_site_aniso_U_33
_atom_site_aniso_U_12
_atom_site_aniso_U_13
_atom_site_aniso_U_23
Sn1 Sn4+ 0.0372(4) 0.0315(4) 0.0203(3) -0.0002(3) 0.0062(3) 0.0024(3)
Sn2 Sn4+ 0.0461(4) 0.0294(4) 0.0191(3) 0.0015(3) 0.0069(3) 0.0006(3)
In1 In3+ 0.0268(3) 0.0323(4) 0.0242(4) -0.0019(3) 0.0050(3) 0.0007(3)
In2 In3+ 0.0263(3) 0.0313(4) 0.0241(4) 0.0027(3) 0.0046(3) 0.0020(3)
Se1 Se2- 0.0287(5) 0.0276(6) 0.0393(6) 0.0006(4) 0.0065(4) -0.0004(4)
Se2 Se2- 0.0304(5) 0.0250(6) 0.0434(6) 0.0008(4) 0.0085(4) -0.0007(5)
Se3 Se2- 0.0439(6) 0.0332(7) 0.0347(6) -0.0066(5) 0.0022(5) 0.0062(5)
Se4 Se2- 0.0427(6) 0.0428(7) 0.0320(6) 0.0075(5) 0.0087(5) 0.0112(5)
Se5 Se2- 0.0364(6) 0.0585(9) 0.0294(6) -0.0115(6) 0.0071(4) -0.0123(5)
Se6 Se2- 0.0449(6) 0.0351(7) 0.0379(6) 0.0112(5) -0.0020(5) -0.0082(5)
Se7 Se2- 0.0932(10) 0.0245(6) 0.0244(6) -0.0074(6) 0.0142(6) -0.0039(4)
Se8 Se2- 0.0688(8) 0.0249(6) 0.0246(5) -0.0013(6) 0.0051(5) -0.0055(4)
K1 K1+ 0.184(5) 0.060(3) 0.061(2) 0.000(3) -0.015(3) 0.008(2)
K2 K1+ 0.106(3) 0.073(3) 0.058(2) -0.013(2) 0.0212(19) -0.0217(19)
#End of data_170321-ICSD


