data_67697-ICSD
#?2014 by Fachinformationszentrum Karlsruhe, and the U.S. Secretary of 
#Commerce on behalf of the United States.  All rights reserved.
_database_code_ICSD                67697
_audit_creation_date               1994/01/19
_audit_update_record               2012/02/01
_chemical_name_systematic
;
Tripotassium Catena-octathiotricuprato(I)diniobate
;
_chemical_formula_structural       'K3 (Cu3 Nb2 S8)'
_chemical_formula_sum              'Cu3 K3 Nb2 S8'
_publ_section_title
;
Synthesis of the quaternary one-dimensional triple-chain materials K3 
Cu3 M2 Q8 (M= Nb, Ta; Q= S, Se): The structure of K3 Cu3 Nb2 S8
;
loop_
_citation_id
_citation_journal_abbrev
_citation_year
_citation_journal_volume
_citation_page_first
_citation_page_last
_citation_journal_id_ASTM
primary 'Journal of Solid State Chemistry' 1992 98 312 317 JSSCBI
_publ_author_name                  'Lu, Y.-J.;Ibers, J.A.'
_cell_length_a                     23.446(3)
_cell_length_b                     5.545(3)
_cell_length_c                     14.204(3)
_cell_angle_alpha                  90.
_cell_angle_beta                   120.87(3)
_cell_angle_gamma                  90.
_cell_volume                       1585.03
_cell_formula_units_Z              4
_symmetry_space_group_name_H-M     'C 1 2/c 1'
_symmetry_Int_Tables_number        15
_refine_ls_R_factor_all            .069
loop_
_symmetry_equiv_pos_site_id
_symmetry_equiv_pos_as_xyz
  1	'x, -y, z+.5'
  2	'-x, -y, -z'
  3	'-x, y, -z+.5'
  4	'x, y, z'
  5	'x+.5, -y+.5, z+.5'
  6	'-x+.5, -y+.5, -z'
  7	'-x+.5, y+.5, -z+.5'
  8	'x+.5, y+.5, z'
loop_
_atom_type_symbol
_atom_type_oxidation_number
Cu1+	1
K1+	1
Nb5+	5
S2-	-2
loop_
_atom_site_label
_atom_site_type_symbol
_atom_site_symmetry_multiplicity
_atom_site_Wyckoff_symbol
_atom_site_fract_x
_atom_site_fract_y
_atom_site_fract_z
_atom_site_occupancy
_atom_site_attached_hydrogens
Nb1 Nb5+ 8 f 0.127060(29) 0.28240(13) 0.280700(47) 1. 0 
Cu1 Cu1+ 4 e 0 0.27823(37) 0.25 1. 0 
Cu2 Cu1+ 8 f 0.376970(65) 0.2820(26) 0.21811(10) 1. 0 
K1 K1+ 8 f 0.30991(10) 0.03699(42) 0.40645(16) 1. 0 
K2 K1+ 4 a 0 0 0 1. 0 
S1 S2- 8 f 0.092240(96) 0.04895(40) 0.37627(15) 1. 0 
S2 S2- 8 f 0.038720(98) 0.51802(39) 0.15839(16) 1. 0 
S3 S2- 8 f 0.15757(10) 0.03092(40) 0.18658(16) 1. 0 
S4 S2- 8 f 0.287670(99) 0.02891(40) 0.10776(16) 1. 0 

loop_
_atom_site_aniso_label
_atom_site_aniso_type_symbol
_atom_site_aniso_U_11
_atom_site_aniso_U_22
_atom_site_aniso_U_33
_atom_site_aniso_U_12
_atom_site_aniso_U_13
_atom_site_aniso_U_23
Nb1 Nb5+ 0.01295(35) 0.00849(43) 0.00959(35) -.00031(21) 0.00823(25) 
-.00026(21)
Cu1 Cu1+ 0.01427(78) 0.0154(11) 0.01708(81) 0 0.01077(64) 0
Cu2 Cu1+ 0.01980(63) 0.00948(75) 0.01750(64) 0.00037(45) 0.01192(50) 
-.00004(45)
K1 K1+ 0.02725(92) 0.0244(11) 0.02103(90) 0.00455(77) 0.01662(73) 
-.00164(74)
K2 K1+ 0.0207(12) 0.0188(14) 0.0137(11) -.00057(93) 0.00795(91) -.00094(91)
S1 S2- 0.01720(88) 0.0117(11) 0.01354(84) 0.00156(68) 0.01147(70) 
0.00242(69)
S2 S2- 0.01562(87) 0.0106(10) 0.01238(85) 0.0002(7) 0.00748(69) 0.00205(68)
S3 S2- 0.02096(93) 0.0126(11) 0.01586(89) -.00044(68) 0.01463(75) 
-.00191(68)
S4 S2- 0.01363(83) 0.0120(11) 0.01595(87) 0.00164(69) 0.00702(68) 0.0018(7)
#End of data_67697-ICSD


