data_161010-ICSD
#?2014 by Fachinformationszentrum Karlsruhe, and the U.S. Secretary of 
#Commerce on behalf of the United States.  All rights reserved.
_database_code_ICSD                161010
_audit_creation_date               2009/02/01
_chemical_name_systematic
;
Tetrapotassium Disamarium Bis(tetrathiophosphate(V)) Hexathio-duo-
diphosphate(IV)
;
_chemical_formula_structural       'K4 Sm2 (P S4)2 (P2 S6)'
_chemical_formula_sum              'K4 P4 S14 Sm2'
_publ_section_title
;
New quaternary alkali metal, rare earth (3+) thiophosphate, K2 Sm P2 
S7 with both (P2 S6)(4-) and (P S4)(3-) anions
;
loop_
_citation_id
_citation_journal_abbrev
_citation_year
_citation_journal_volume
_citation_page_first
_citation_page_last
_citation_journal_id_ASTM
primary 'Materials Research Bulletin' 2008 43 2469 2475 MRBUAC
_publ_author_name
;
Manriquez, V.;Galdamez, A.;Guzman-Aguila, D.
;
_cell_length_a                     22.746(5)
_cell_length_b                     6.7362(13)
_cell_length_c                     8.9004(18)
_cell_angle_alpha                  90.
_cell_angle_beta                   99.68(3)
_cell_angle_gamma                  90.
_cell_volume                       1344.32
_cell_formula_units_Z              2
_symmetry_space_group_name_H-M     'C 1 2 1'
_symmetry_Int_Tables_number        5
_refine_ls_R_factor_all            .0974
loop_
_symmetry_equiv_pos_site_id
_symmetry_equiv_pos_as_xyz
  1	'-x, y, -z'
  2	'x, y, z'
  3	'-x+.5, y+.5, -z'
  4	'x+.5, y+.5, z'
loop_
_atom_type_symbol
_atom_type_oxidation_number
K1+	1
P4+	4
P5+	5
S2-	-2
Sm3+	3
loop_
_atom_site_label
_atom_site_type_symbol
_atom_site_symmetry_multiplicity
_atom_site_Wyckoff_symbol
_atom_site_fract_x
_atom_site_fract_y
_atom_site_fract_z
_atom_site_occupancy
_atom_site_attached_hydrogens
_atom_site_U_iso_or_equiv
Sm1 Sm3+ 4 c 0.83707(6) 0.8749(6) 0.46705(19) 1. 0 0.0190(5) 
K1 K1+ 4 c 0.6771(4) 0.859(3) 0.1083(11) 1. 0 0.052(3) 
K2 K1+ 4 c 0.9402(3) 0.377(3) 0.2838(11) 1. 0 0.054(3) 
P1 P5+ 4 c 0.7295(3) 0.876(3) 0.7084(10) 1. 0 0.0273(19) 
P2 P4+ 4 c 0.9863(3) 0.861(2) 0.6122(10) 1. 0 0.0175(18) 
S1 S2- 4 c 0.8095(9) 0.123(2) 0.2123(19) 1. 0 0.041(5) 
S2 S2- 4 c 0.8185(3) 0.874(3) 0.7708(9) 1. 0 0.0270(18) 
S3 S2- 4 c 0.7129(4) 0.7966(12) 0.4745(11) 1. 0 0.024(2) 
S4 S2- 4 c 0.8080(7) 0.6073(19) 0.213(2) 1. 0 0.044(5) 
S5 S2- 4 c 0.9366(4) 0.8445(18) 0.2408(12) 1. 0 0.030(3) 
S6 S2- 4 c 0.9362(5) 0.1155(17) 0.6133(13) 1. 0 0.013(3) 
S7 S2- 4 c 0.9319(8) 0.6280(18) 0.612(3) 1. 0 0.060(6) 

#End of data_161010-ICSD


