data_416231-ICSD
#?2014 by Fachinformationszentrum Karlsruhe, and the U.S. Secretary of 
#Commerce on behalf of the United States.  All rights reserved.
_database_code_ICSD                416231
_audit_creation_date               2007/08/01
_chemical_name_systematic
;
Tribarium Hexazinc Hexaoxotellurate(VI) Bis(heptaoxodisilicate)
;
_chemical_formula_structural       'Ba3 Zn6 (Te O6) (Si2 O7)2'
_chemical_formula_sum              'Ba3 O20 Si4 Te1 Zn6'
_publ_section_title
;
Synthesis, Crystal Structure and Characterization of the Barium Zinc 
Tellurate Disilicate: Ba3Zn6[TeO6][Si2O7]2
;
loop_
_citation_id
_citation_journal_abbrev
_citation_year
_citation_journal_volume
_citation_journal_issue
_citation_page_first
_citation_page_last
_citation_journal_id_ASTM
primary 'Zeitschrift fuer Anorganische und Allgemeine Chemie (1950) (DE)'
 2006 632 12-13 2053 2057 ZAACAB
_publ_author_name                  'Jiang Hailong;Mao Jiang Gao'
_cell_length_a                     15.975(5)
_cell_length_b                     11.505(4)
_cell_length_c                     5.142(2)
_cell_angle_alpha                  90.00
_cell_angle_beta                   107.437(5)
_cell_angle_gamma                  90.00
_cell_volume                       901.63
_cell_formula_units_Z              2
_symmetry_space_group_name_H-M     'C 1 2/m 1'
_symmetry_Int_Tables_number        12
_refine_ls_R_factor_all            .0278
loop_
_symmetry_equiv_pos_site_id
_symmetry_equiv_pos_as_xyz
  1	'-x, y, -z'
  2	'-x, -y, -z'
  3	'x, -y, z'
  4	'x, y, z'
  5	'-x+.5, y+.5, -z'
  6	'-x+.5, -y+.5, -z'
  7	'x+.5, -y+.5, z'
  8	'x+.5, y+.5, z'
loop_
_atom_type_symbol
_atom_type_oxidation_number
Ba2+	2
O2-	-2
Si4+	4
Te6+	6
Zn2+	2
loop_
_atom_site_label
_atom_site_type_symbol
_atom_site_symmetry_multiplicity
_atom_site_Wyckoff_symbol
_atom_site_fract_x
_atom_site_fract_y
_atom_site_fract_z
_atom_site_occupancy
_atom_site_attached_hydrogens
_atom_site_U_iso_or_equiv
Ba1 Ba2+ 4 i 0.28731(3) 0.5000 0.25122(8) 1 0 0.01154(13) 
Ba2 Ba2+ 2 b 0.5000 0.0000 1.0000 1 0 0.01637(17) 
Zn1 Zn2+ 4 h 0.5000 0.34333(7) 0.5000 1 0 0.00869(19) 
Zn2 Zn2+ 8 j 0.64340(4) 0.28010(5) 0.17305(10) 1 0 0.00892(15) 
Si1 Si4+ 8 j 0.64976(8) 0.13106(11) 0.6583(2) 1 0 0.0058(3) 
Te1 Te6+ 2 a 0.5000 0.5000 0.0000 1 0 0.00545(15) 
O1 O2- 8 j 0.7499(2) 0.1345(3) 0.6598(7) 1 0 0.0143(8) 
O2 O2- 8 j 0.5901(2) 0.2254(3) 0.4489(7) 1 0 0.0136(7) 
O3 O2- 8 j 0.6420(2) 0.1367(3) 0.9654(6) 1 0 0.0118(7) 
O4 O2- 4 i 0.4301(3) 0.5000 0.6350(8) 1 0 0.0126(10) 
O5 O2- 8 j 0.5703(2) 0.3828(3) 0.8938(6) 1 0 0.0107(7) 
O6 O2- 4 i 0.6097(3) 0.0000 0.5362(9) 1 0 0.0090(9) 

loop_
_atom_site_aniso_label
_atom_site_aniso_type_symbol
_atom_site_aniso_U_11
_atom_site_aniso_U_22
_atom_site_aniso_U_33
_atom_site_aniso_U_12
_atom_site_aniso_U_13
_atom_site_aniso_U_23
Ba1 Ba2+ 0.0093(2) 0.0157(2) 0.0091(2) 0.000 0.00200(16) 0.000
Ba2 Ba2+ 0.0090(3) 0.0298(4) 0.0105(3) 0.000 0.0032(2) 0.000
Zn1 Zn2+ 0.0097(4) 0.0105(4) 0.0065(3) 0.000 0.0033(3) 0.000
Zn2 Zn2+ 0.0114(3) 0.0086(3) 0.0078(3) -0.0004(2) 0.0045(2) 0.0007(2)
Si1 Si4+ 0.0090(6) 0.0049(6) 0.0043(6) 0.0006(5) 0.0030(5) 0.0001(5)
Te1 Te6+ 0.0075(3) 0.0060(3) 0.0035(3) 0.000 0.0027(2) 0.000
O1 O2- 0.0117(18) 0.0107(18) 0.0215(19) 0.0001(14) 0.0065(16) -0.0028(14)
O2 O2- 0.0161(18) 0.0146(18) 0.0133(17) 0.0068(15) 0.0094(15) 0.0083(14)
O3 O2- 0.0182(19) 0.0094(18) 0.0088(15) 0.0006(15) 0.0055(15) -0.0002(13)
O4 O2- 0.010(2) 0.023(3) 0.006(2) 0.000 0.004(2) 0.000
O5 O2- 0.0136(17) 0.0119(18) 0.0071(15) 0.0049(14) 0.0039(14) -0.0004(13)
O6 O2- 0.013(2) 0.006(2) 0.008(2) 0.000 0.003(2) 0.000
#End of data_416231-ICSD


