data_62687-ICSD
#?2014 by Fachinformationszentrum Karlsruhe, and the U.S. Secretary of 
#Commerce on behalf of the United States.  All rights reserved.
_database_code_ICSD                62687
_audit_creation_date               1988/07/15
_audit_update_record               2012/08/01
_chemical_name_systematic          'Bismuth Silver Oxide (4/18/12)'
_chemical_formula_structural       'Bi4 Ag18 O12'
_chemical_formula_sum              'Ag18 Bi4 O12'
_publ_section_title
;
Etude structurale d'un sous-oxyde d'argent bismuth Bi4 Ag18 O12.
;
loop_
_citation_id
_citation_journal_abbrev
_citation_year
_citation_journal_volume
_citation_page_first
_citation_page_last
_citation_journal_id_ASTM
primary
;
Comptes Rendus Hebdomadaires des Seances de l`Academie des Sciences, 
Serie 2 (1984-1993)
;
 1986 9 631 633 CRAMED
_publ_author_name                  'Masse, R.;Tordjman, I.;Durif, A.'
_cell_length_a                     10.630(4)
_cell_length_b                     14.229(5)
_cell_length_c                     23.91(3)
_cell_angle_alpha                  90.
_cell_angle_beta                   90.
_cell_angle_gamma                  90.
_cell_volume                       3616.49
_cell_formula_units_Z              4
_symmetry_space_group_name_H-M     'C m c m'
_symmetry_Int_Tables_number        63
_refine_ls_R_factor_all            .057
loop_
_symmetry_equiv_pos_site_id
_symmetry_equiv_pos_as_xyz
  1	'-x, y, -z+.5'
  2	'-x, -y, z+.5'
  3	'-x, y, z'
  4	'-x, -y, -z'
  5	'x, -y, z+.5'
  6	'x, y, -z+.5'
  7	'x, -y, -z'
  8	'x, y, z'
  9	'-x+.5, y+.5, -z+.5'
 10	'-x+.5, -y+.5, z+.5'
 11	'-x+.5, y+.5, z'
 12	'-x+.5, -y+.5, -z'
 13	'x+.5, -y+.5, z+.5'
 14	'x+.5, y+.5, -z+.5'
 15	'x+.5, -y+.5, -z'
 16	'x+.5, y+.5, z'
loop_
_atom_type_symbol
_atom_type_oxidation_number
Ag1+	1
Bi1.5+	1.5
O2-	-2
loop_
_atom_site_label
_atom_site_type_symbol
_atom_site_symmetry_multiplicity
_atom_site_Wyckoff_symbol
_atom_site_fract_x
_atom_site_fract_y
_atom_site_fract_z
_atom_site_occupancy
_atom_site_attached_hydrogens
Bi1 Bi1.5+ 16 h 0.18925(8) 0.87282(6) 0.12334(3) 1. 0 
Ag1 Ag1+ 16 h 0.2602(2) 0.6209(2) 0.15190(9) 1. 0 
Ag2 Ag1+ 8 g 0.1934(4) 0.4721(2) 0.25 1. 0 
Ag3 Ag1+ 8 f 0 0.4794(2) 0.15291(14) 1. 0 
Ag4 Ag1+ 8 g 0.2079(4) 0.2692(2) 0.25 1. 0 
Ag5 Ag1+ 8 f 0 0.2708(2) 0.15862(15) 1. 0 
Ag6 Ag1+ 8 f 0 0.3635(3) 0.05124(12) 1. 0 
Ag7 Ag1+ 8 e 0.2797(4) 0 0 1. 0 
Ag8 Ag1+ 8 d 0.25 0.25 0 1. 0 
O1 O2- 16 h 0.198(2) 0.272(1) 0.1623(9) 1. 0 
O2 O2- 16 h 0.199(2) 0.373(1) 0.0511(7) 1. 0 
O3 O2- 16 h 0.199(2) 0.477(1) 0.1603(9) 1. 0 

#End of data_62687-ICSD


