data_63118-ICSD
#?2014 by Fachinformationszentrum Karlsruhe, and the U.S. Secretary of 
#Commerce on behalf of the United States.  All rights reserved.
_database_code_ICSD                63118
_audit_creation_date               1989/06/19
_audit_update_record               2005/10/01
_chemical_name_systematic          'Potassium Dimolybdotriphosphate'
_chemical_formula_structural       'K (Mo2 P3 O12)'
_chemical_formula_sum              'K1 Mo2 O12 P3'
_publ_section_title
;
Small atomic displacements in the molybdenophosphates A Mo2 P3 O12 (A 
= K, Rb, Tl)
;
loop_
_citation_id
_citation_journal_abbrev
_citation_year
_citation_journal_volume
_citation_page_first
_citation_page_last
_citation_journal_id_ASTM
primary 'Acta Crystallographica, Section C: Crystal Structure Communications'
 1988 44 226 229 ACSCEE
_publ_author_name                  'Leclaire, A.;Raveau, B.'
_cell_length_a                     17.6398(14)
_cell_length_b                     9.1761(4)
_cell_length_c                     12.3000(8)
_cell_angle_alpha                  90.
_cell_angle_beta                   90.
_cell_angle_gamma                  90.
_cell_volume                       1990.93
_cell_formula_units_Z              8
_symmetry_space_group_name_H-M     'P b n m'
_symmetry_Int_Tables_number        62
_refine_ls_R_factor_all            .028
loop_
_symmetry_equiv_pos_site_id
_symmetry_equiv_pos_as_xyz
  1	'-x+.5, y+.5, z'
  2	'x, y, -z+.5'
  3	'x+.5, -y+.5, z+.5'
  4	'-x, -y, -z'
  5	'x+.5, -y+.5, -z'
  6	'-x, -y, z+.5'
  7	'-x+.5, y+.5, -z+.5'
  8	'x, y, z'
loop_
_atom_type_symbol
_atom_type_oxidation_number
K1+	1
Mo4+	4
O2-	-2
P5+	5
loop_
_atom_site_label
_atom_site_type_symbol
_atom_site_symmetry_multiplicity
_atom_site_Wyckoff_symbol
_atom_site_fract_x
_atom_site_fract_y
_atom_site_fract_z
_atom_site_occupancy
_atom_site_attached_hydrogens
_atom_site_B_iso_or_equiv
Mo1 Mo4+ 8 d 0.12134(3) 0.02863(11) 0.10175(12) 1. 0 0.31(1) 
Mo2 Mo4+ 8 d 0.12450(4) 0.47391(11) 0.60141(11) 1. 0 0.31(1) 
K1 K1+ 4 c 0.10031(39) 0.66689(67) 0.25 1. 0 3.72(12) 
K2 K1+ 4 c 0.08105(32) 0.84247(80) 0.75 1. 0 3.09(9) 
P1 P5+ 8 d 0.01489(6) 0.74720(45) 0.00178(45) 1. 0 0.41(2) 
P2 P5+ 8 d 0.20556(11) 0.35957(26) 0.12961(38) 1. 0 0.45(3) 
P3 P5+ 8 d 0.19862(11) 0.12906(26) 0.63085(39) 1. 0 0.38(3) 
O1 O2- 4 c 0.10472(45) 0.0256(13) 0.25 1. 0 0.42(15) 
O2 O2- 4 c 0.10652(49) 0.4884(13) 0.75 1. 0 0.55(16) 
O3 O2- 8 d 0.05640(37) -.15278(87) 0.08164(71) 1. 0 1.18(12) 
O4 O2- 8 d 0.07186(31) 0.66286(80) 0.56816(67) 1. 0 0.87(10) 
O5 O2- 8 d 0.15340(34) 0.45462(92) 0.43975(94) 1. 0 0.65(10) 
O6 O2- 8 d 0.140510(37) 0.0363(12) -0.0625(11) 1. 0 1.23(13) 
O7 O2- 8 d 0.19308(36) 0.19962(84) 0.11840(92) 1. 0 0.90(14) 
O8 O2- 8 d 0.18794(42) 0.29250(91) 0.62266(90) 1. 0 1.07(13) 
O9 O2- 8 d 0.21839(34) 0.59600(96) 0.61991(80) 1. 0 0.96(12) 
O10 O2- 8 d 0.21117(36) -0.1111(10) 0.1184(11) 1. 0 1.29(15) 
O11 O2- 8 d 0.03343(41) 0.1646(12) 0.07897(94) 1. 0 1.25(13) 
O12 O2- 8 d 0.02990(38) 0.3545(11) 0.5724(11) 1. 0 1.38(16) 
O13 O2- 4 c 0.17997(51) 0.4090(14) 0.25 1. 0 0.62(14) 
O14 O2- 4 c 0.17094(65) 0.0808(16) 0.75 1. 0 1.33(19) 

#End of data_63118-ICSD


