data_14202-ICSD
#?2014 by Fachinformationszentrum Karlsruhe, and the U.S. Secretary of 
#Commerce on behalf of the United States.  All rights reserved.
_database_code_ICSD                14202
_audit_creation_date               1986/10/20
_audit_update_record               2011/02/01
_chemical_name_systematic          'Cesium Catena-triiododiargentate'
_chemical_formula_structural       'Cs (Ag2 I3)'
_chemical_formula_sum              'Ag2 Cs1 I3'
_publ_section_title
;
The crystal structures of Cs Cu2 Cl3 and Cs Ag2 I3
;
loop_
_citation_id
_citation_journal_abbrev
_citation_year
_citation_journal_volume
_citation_page_first
_citation_page_last
_citation_journal_id_ASTM
primary 'Acta Crystallographica (1,1948-23,1967)' 1954 7 176 180 ACCRA9
_publ_author_name
;
Brink, C.;Binnendijk, N.F.;van de Linde, J.
;
_cell_length_a                     11.08(2)
_cell_length_b                     13.74(2)
_cell_length_c                     6.23(4)
_cell_angle_alpha                  90.
_cell_angle_beta                   90.
_cell_angle_gamma                  90.
_cell_volume                       948.45
_cell_formula_units_Z              4
_symmetry_space_group_name_H-M     'P b n m'
_symmetry_Int_Tables_number        62
loop_
_symmetry_equiv_pos_site_id
_symmetry_equiv_pos_as_xyz
  1	'-x+.5, y+.5, z'
  2	'x, y, -z+.5'
  3	'x+.5, -y+.5, z+.5'
  4	'-x, -y, -z'
  5	'x+.5, -y+.5, -z'
  6	'-x, -y, z+.5'
  7	'-x+.5, y+.5, -z+.5'
  8	'x, y, z'
loop_
_atom_type_symbol
_atom_type_oxidation_number
Ag1+	1
Cs1+	1
I1-	-1
loop_
_atom_site_label
_atom_site_type_symbol
_atom_site_symmetry_multiplicity
_atom_site_Wyckoff_symbol
_atom_site_fract_x
_atom_site_fract_y
_atom_site_fract_z
_atom_site_occupancy
_atom_site_attached_hydrogens
Cs1 Cs1+ 4 c 0.505 0.185 0.25 1. 0 
Ag1 Ag1+ 8 d 0.342 0.499 0 1. 0 
I1 I1- 4 c 0.214 0.366 0.25 1. 0 
I2 I1- 4 c 0.495 0.622 0.25 1. 0 
I3 I1- 4 c 0.802 0.372 0.25 1. 0 

#End of data_14202-ICSD


