data_89602-ICSD
#?2014 by Fachinformationszentrum Karlsruhe, and the U.S. Secretary of 
#Commerce on behalf of the United States.  All rights reserved.
_database_code_ICSD                89602
_audit_creation_date               2002/04/01
_chemical_name_systematic          'Potassium Dioxofluorosulfate(IV)'
_chemical_formula_structural       'K (S O2 F)'
_chemical_formula_sum              'F1 K1 O2 S1'
_publ_section_title
;
Kristallstrukturen der Monofluorosulfite M S O2 F (M = K, Rb)
;
loop_
_citation_id
_citation_journal_abbrev
_citation_year
_citation_journal_volume
_citation_page_first
_citation_page_last
_citation_journal_id_ASTM
primary 'Zeitschrift fuer Anorganische und Allgemeine Chemie (1950) (DE)'
 1999 625 385 388 ZAACAB
_publ_author_name                  'Kessler, U.;Jansen, M.'
_cell_length_a                     6.962(2)
_cell_length_b                     5.663(2)
_cell_length_c                     4.658(1)
_cell_angle_alpha                  90.
_cell_angle_beta                   107.73(2)
_cell_angle_gamma                  90.
_cell_volume                       174.92
_cell_formula_units_Z              2
_symmetry_space_group_name_H-M     'P 1 21/m 1'
_symmetry_Int_Tables_number        11
_refine_ls_R_factor_all            .042
loop_
_symmetry_equiv_pos_site_id
_symmetry_equiv_pos_as_xyz
  1	'x, -y+.5, z'
  2	'-x, -y, -z'
  3	'-x, y+.5, -z'
  4	'x, y, z'
loop_
_atom_type_symbol
_atom_type_oxidation_number
F1-	-1
K1+	1
O2-	-2
S4+	4
loop_
_atom_site_label
_atom_site_type_symbol
_atom_site_symmetry_multiplicity
_atom_site_Wyckoff_symbol
_atom_site_fract_x
_atom_site_fract_y
_atom_site_fract_z
_atom_site_occupancy
_atom_site_attached_hydrogens
K1 K1+ 2 e 0.2894(1) 0.25 0.1517(2) 1. 0 
S1 S4+ 2 e 0.8278(2) 0.25 0.4245(2) 1. 0 
O1 O2- 4 f 0.6891(3) 0.0363(3) 0.3323(4) 1. 0 
F1 F1- 2 e 0.8814(4) 0.25 0.7818(5) 1. 0 

loop_
_atom_site_aniso_label
_atom_site_aniso_type_symbol
_atom_site_aniso_U_11
_atom_site_aniso_U_22
_atom_site_aniso_U_33
_atom_site_aniso_U_12
_atom_site_aniso_U_13
_atom_site_aniso_U_23
K1 K1+ 0.0317(4) 0.0309(3) 0.0256(3) 0 0.0055(3) 0
S1 S4+ 0.0301(4) 0.0296(4) 0.0347(4) 0 0.0130(3) 0
O1 O2- 0.0454(9) 0.0257(7) 0.0385(8) -.0027(7) 0.0111(7) -.0030(7)
F1 F1- 0.0518(13) 0.0757(18) 0.0298(10) 0 0.0055(9) 0
#End of data_89602-ICSD


