data_36598-ICSD
#?2014 by Fachinformationszentrum Karlsruhe, and the U.S. Secretary of 
#Commerce on behalf of the United States.  All rights reserved.
_database_code_ICSD                36598
_audit_creation_date               1993/01/06
_chemical_name_systematic          'Potassium Hydroxide Tetrahydrate'
_chemical_formula_structural       'K O H (H2 O)4'
_chemical_formula_sum              'H9 K1 O5'
_publ_section_title
;
Die Kristallstrukturen von KOH*2H2O (Substruktur) und KOH*4H2O
;
loop_
_citation_id
_citation_journal_abbrev
_citation_year
_citation_journal_volume
_citation_page_first
_citation_page_last
_citation_journal_id_ASTM
primary 'Zeitschrift fuer Anorganische und Allgemeine Chemie (1950) (DE)'
 1991 601 73 82 ZAACAB
_publ_author_name                  'Ruetter, H.;Mootz, D.'
_cell_length_a                     6.951(2)
_cell_length_b                     11.530(3)
_cell_length_c                     7.080(2)
_cell_angle_alpha                  90.
_cell_angle_beta                   99.19(2)
_cell_angle_gamma                  90.
_cell_volume                       560.14
_cell_formula_units_Z              4
_symmetry_space_group_name_H-M     'P 1 21/c 1'
_symmetry_Int_Tables_number        14
_refine_ls_R_factor_all            .025
loop_
_symmetry_equiv_pos_site_id
_symmetry_equiv_pos_as_xyz
  1	'x, -y+.5, z+.5'
  2	'-x, -y, -z'
  3	'-x, y+.5, -z+.5'
  4	'x, y, z'
loop_
_atom_type_symbol
_atom_type_oxidation_number
H1+	1
K1+	1
O2-	-2
loop_
_atom_site_label
_atom_site_type_symbol
_atom_site_symmetry_multiplicity
_atom_site_Wyckoff_symbol
_atom_site_fract_x
_atom_site_fract_y
_atom_site_fract_z
_atom_site_occupancy
_atom_site_attached_hydrogens
_atom_site_U_iso_or_equiv
K1 K1+ 4 e 0.55917(2) 0.34038(1) 0.14939(2) 1. 0 0 
O1 O2- 4 e 0.07883(9) 0.50341(5) 0.29125(8) 1. 0 0 
O2 O2- 4 e 0.32195(9) 0.33496(5) 0.4508(1) 1. 0 0 
O3 O2- 4 e 0.45697(9) 0.57020(6) 0.21810(9) 1. 0 0 
O4 O2- 4 e 0.81102(9) 0.30993(6) 0.48269(9) 1. 0 0 
O5 O2- 4 e 0.1033(1) 0.36146(5) -.00939(9) 1. 0 0 
H1 H1+ 4 e -.007(3) 0.475(2) 0.338(3) 1. 0 0.042(4) 
H2 H1+ 4 e 0.250(2) 0.278(2) 0.456(2) 1. 0 0.039(4) 
H3 H1+ 4 e 0.244(2) 0.390(2) 0.408(2) 1. 0 0.040(4) 
H4 H1+ 4 e 0.520(2) 0.594(2) 0.312(2) 1. 0 0.039(4) 
H5 H1+ 4 e 0.356(2) 0.556(1) 0.255(2) 1. 0 0.035(4) 
H6 H1+ 4 e 0.853(2) 0.360(2) 0.559(2) 1. 0 0.039(4) 
H7 H1+ 4 e 0.898(3) 0.262(2) 0.482(3) 1. 0 0.043(4) 
H8 H1+ 4 e 0.091(2) 0.403(1) 0.094(2) 1. 0 0.033(4) 
H9 H1+ 4 e 0.054(2) 0.401(2) -.105(2) 1. 0 0.039(4) 

loop_
_atom_site_aniso_label
_atom_site_aniso_type_symbol
_atom_site_aniso_U_11
_atom_site_aniso_U_22
_atom_site_aniso_U_33
_atom_site_aniso_U_12
_atom_site_aniso_U_13
_atom_site_aniso_U_23
K1 K1+ 0.0188(1) 0.0140(1) 0.0131(1) 0.0003(1) 0.0020(1) -.0015(1)
O1 O2- 0.0167(2) 0.0150(2) 0.0156(2) -.0005(2) 0.0029(2) 0.0012(2)
O2 O2- 0.0139(2) 0.0162(2) 0.0224(3) -.0018(2) -.0004(2) 0.0036(2)
O3 O2- 0.0175(2) 0.0188(3) 0.0165(2) -.0026(2) 0.0044(2) -.0010(2)
O4 O2- 0.0155(2) 0.0236(3) 0.0201(3) 0.0003(2) 0.0007(2) -.0053(2)
O5 O2- 0.0278(3) 0.0132(2) 0.0160(2) 0.0059(2) 0.0001(2) -.0007(2)
#End of data_36598-ICSD


