data_66509-ICSD
#?2014 by Fachinformationszentrum Karlsruhe, and the U.S. Secretary of 
#Commerce on behalf of the United States.  All rights reserved.
_database_code_ICSD                66509
_audit_creation_date               1994/01/19
_audit_update_record               2008/02/01
_chemical_name_systematic
;
Trilithium Copper Copper(III) Oxide
;
_chemical_formula_structural       'Li3 (Cu2 O4)'
_chemical_formula_sum              'Cu2 Li3 O4'
_publ_section_title
;
The structure of Li3 Cu2 O4, a compound with formal mixed valence
;
loop_
_citation_id
_citation_journal_abbrev
_citation_year
_citation_journal_volume
_citation_page_first
_citation_page_last
_citation_journal_id_ASTM
primary 'Journal of Alloys and Compounds' 1993 190 295 299 JALCEU
_publ_author_name
;
Berger, R.;Oennerud, P.;Laligant, Y.;Le Bail, A.
;
_cell_length_a                     9.946(5)
_cell_length_b                     2.778(2)
_cell_length_c                     7.260(5)
_cell_angle_alpha                  90.
_cell_angle_beta                   119.10(2)
_cell_angle_gamma                  90.
_cell_volume                       175.27
_cell_formula_units_Z              2
_symmetry_space_group_name_H-M     'C 1 2/m 1'
_symmetry_Int_Tables_number        12
_refine_ls_R_factor_all            .076
loop_
_symmetry_equiv_pos_site_id
_symmetry_equiv_pos_as_xyz
  1	'-x, y, -z'
  2	'-x, -y, -z'
  3	'x, -y, z'
  4	'x, y, z'
  5	'-x+.5, y+.5, -z'
  6	'-x+.5, -y+.5, -z'
  7	'x+.5, -y+.5, z'
  8	'x+.5, y+.5, z'
loop_
_atom_type_symbol
_atom_type_oxidation_number
Cu2.5+	2.5
Li1+	1
O2-	-2
loop_
_atom_site_label
_atom_site_type_symbol
_atom_site_symmetry_multiplicity
_atom_site_Wyckoff_symbol
_atom_site_fract_x
_atom_site_fract_y
_atom_site_fract_z
_atom_site_occupancy
_atom_site_attached_hydrogens
_atom_site_B_iso_or_equiv
Li1 Li1+ 2 c 0 0 0.5 1. 0 3.2(2) 
Li2 Li1+ 4 i 0.362(2) 0 0.132(2) 1. 0 3.2(2) 
Cu1 Cu2.5+ 4 i 0.1609(1) 0 0.2729(3) 1. 0 2.07(3) 
O1 O2- 4 i 0.5671(6) 0 0.3442(8) 1. 0 1.90(7) 
O2 O2- 4 i 0.2564(5) 0 0.8211(8) 1. 0 1.90(7) 

#End of data_66509-ICSD


