data_657393-ICSD
#?2014 by Fachinformationszentrum Karlsruhe, and the U.S. Secretary of 
#Commerce on behalf of the United States.  All rights reserved.
_database_code_ICSD                657393
_audit_creation_date               2013/08/01
_chemical_name_systematic
;
Copper Potassium Niobium Selenide (3/3/2/8)
;
_chemical_formula_structural       'Cu3 K3 Nb2 Se8'
_chemical_formula_sum              'Cu3 K3 Nb2 Se8'
_publ_section_title
;
Synthesis of the quaternary one-dimensional triple-chain materials K3 
Cu3 M2 Q8 (M = Nb, Ta; Q = S, Se): The structure of K3 Cu3 Nb2 S8
;
loop_
_citation_id
_citation_journal_abbrev
_citation_year
_citation_journal_volume
_citation_page_first
_citation_page_last
_citation_journal_id_ASTM
primary 'Journal of Solid State Chemistry' 1992 98 312 317 JSSCBI
_publ_author_name                  'Lu Yingjie;Ibers, J.A.'
_cell_length_a                     23.453(4)
_cell_length_b                     5.592(12)
_cell_length_c                     14.223(3)
_cell_angle_alpha                  90.0
_cell_angle_beta                   120.7(3)
_cell_angle_gamma                  90.0
_cell_volume                       1603.91
_cell_formula_units_Z              4
_symmetry_space_group_name_H-M     'C 1 2/c 1'
_symmetry_Int_Tables_number        15
loop_
_symmetry_equiv_pos_site_id
_symmetry_equiv_pos_as_xyz
  1	'x, -y, z+.5'
  2	'-x, -y, -z'
  3	'-x, y, -z+.5'
  4	'x, y, z'
  5	'x+.5, -y+.5, z+.5'
  6	'-x+.5, -y+.5, -z'
  7	'-x+.5, y+.5, -z+.5'
  8	'x+.5, y+.5, z'
loop_
_atom_type_symbol
_atom_type_oxidation_number
Cu1+	1
K1+	1
Nb5+	5
Se2-	-2
loop_
_atom_site_label
_atom_site_type_symbol
_atom_site_symmetry_multiplicity
_atom_site_Wyckoff_symbol
_atom_site_fract_x
_atom_site_fract_y
_atom_site_fract_z
_atom_site_occupancy
_atom_site_attached_hydrogens
Nb1 Nb5+ 8 f 0.127 0.282 0.281 1. 0 
Cu1 Cu1+ 4 e 0 0.278 0.25 1. 0 
Cu2 Cu1+ 8 f 0.377 0.282 0.218 1. 0 
K1 K1+ 8 f 0.310 0.037 0.406 1. 0 
K2 K1+ 4 a 0 0 0 1. 0 
Se1 Se2- 8 f 0.092 0.049 0.376 1. 0 
Se2 Se2- 8 f 0.039 0.518 0.158 1. 0 
Se3 Se2- 8 f 0.158 0.031 0.187 1. 0 
Se4 Se2- 8 f 0.288 0.029 0.108 1. 0 

#End of data_657393-ICSD


