data_100662-ICSD
#?2014 by Fachinformationszentrum Karlsruhe, and the U.S. Secretary of 
#Commerce on behalf of the United States.  All rights reserved.
_database_code_ICSD                100662
_audit_creation_date               1980/01/01
_audit_update_record               2009/02/01
_chemical_name_systematic
;
Dicalcium Tetraoxoheptahydroxotetraborate Chloride Heptahydrate
;
_chemical_formula_structural
;
Ca2 (B3 O3 (O H)4 O B (O H)3) Cl (H2 O)7
;
_chemical_formula_sum              'H21 B4 Ca2 Cl1 O18'
_chemical_name_mineral             Hydrochlorborite
_publ_section_title
;
Crystal structure of hydrochlorborite, Ca2 ( B3 O3 (O H)4 O B (O H)3 
) Cl (H2 O)7, a seasonal evaporite mineral
;
loop_
_citation_id
_citation_journal_abbrev
_citation_year
_citation_journal_volume
_citation_page_first
_citation_page_last
_citation_journal_id_ASTM
primary 'American Mineralogist' 1978 63 814 823 AMMIAY
_publ_author_name                  'Brown, G.E.;Clark, J.R.'
_cell_length_a                     22.7830(30)
_cell_length_b                     8.745(1)
_cell_length_c                     16.0660(10)
_cell_angle_alpha                  90.
_cell_angle_beta                   96.705(1)
_cell_angle_gamma                  90.
_cell_volume                       3179.05
_cell_formula_units_Z              8
_symmetry_space_group_name_H-M     'I 1 2/a 1'
_symmetry_Int_Tables_number        15
_refine_ls_R_factor_all            .05
loop_
_symmetry_equiv_pos_site_id
_symmetry_equiv_pos_as_xyz
  1	'x+.5, -y, z'
  2	'-x, -y, -z'
  3	'-x+.5, y, -z'
  4	'x, y, z'
  5	'x, -y+.5, z+.5'
  6	'-x+.5, -y+.5, -z+.5'
  7	'-x, y+.5, -z+.5'
  8	'x+.5, y+.5, z+.5'
loop_
_atom_type_symbol
_atom_type_oxidation_number
B3+	3
Ca2+	2
Cl1-	-1
H1+	1
O2-	-2
loop_
_atom_site_label
_atom_site_type_symbol
_atom_site_symmetry_multiplicity
_atom_site_Wyckoff_symbol
_atom_site_fract_x
_atom_site_fract_y
_atom_site_fract_z
_atom_site_occupancy
_atom_site_attached_hydrogens
_atom_site_B_iso_or_equiv
Ca1 Ca2+ 8 f 0.03304(8) 0.1717(2) 0.1619(1) 1. 0 0 
Ca2 Ca2+ 8 f 0.21377(8) 0.0575(2) 0.2956(1) 1. 0 0 
B1 B3+ 8 f 0.1592(4) 0.3150(11) 0.1914(6) 1. 0 0 
B2 B3+ 8 f 0.1897(5) 0.4666(12) 0.3166(6) 1. 0 0 
B3 B3+ 8 f 0.0884(4) 0.4902(11) 0.2469(6) 1. 0 0 
B4 B3+ 8 f -.0107(4) 0.5596(12) 0.1714(6) 1. 0 0 
Cl1 Cl1- 8 f 0.1335(1) 0.6356(3) 0.0084(1) 1. 0 0 
O1 O2- 8 f 0.1939(2) 0.3289(6) 0.2693(3) 1. 0 0 
O2 O2- 8 f 0.1007(2) 0.3904(6) 0.1885(3) 1. 0 0 
O3 O2- 8 f 0.1293(3) 0.5301(7) 0.3076(3) 1. 0 0 
O4 O2- 8 f 0.0336(2) 0.5556(7) 0.2413(3) 1. 0 0 
O5 O2- 8 f 0.1475(2) 0.1498(6) 0.1803(3) 1. 0 0 
O6 O2- 8 f 0.1934(2) 0.3764(6) 0.1312(3) 1. 0 0 
O7 O2- 8 f 0.2056(2) 0.4355(7) 0.4012(3) 1. 0 0 
O8 O2- 8 f 0.2318(2) 0.5793(7) 0.2887(3) 1. 0 0 
O9 O2- 8 f -.0575(2) 0.6534(7) 0.1975(3) 1. 0 0 
O10 O2- 8 f -.0302(2) 0.4001(7) 0.1507(3) 1. 0 0 
O11 O2- 8 f 0.0110(3) 0.6323(7) 0.1021(3) 1. 0 0 
O12 O2- 8 f 0.0547(3) 0.2142(8) 0.0269(3) 1. 0 0 
O13 O2- 8 f 0.0610(3) 0.9145(7) 0.1354(4) 1. 0 0 
O14 O2- 8 f 0.0561(2) 0.5759(7) 0.4218(3) 1. 0 0 
O15 O2- 8 f 0.2379(3) -.1601(7) 0.3917(3) 1. 0 0 
O16 O2- 8 f 0.1358(3) 0.8585(7) 0.2767(3) 1. 0 0 
O17 O2- 8 f 0.1637(3) 0.1488(7) 0.4039(3) 1. 0 0 
O18 O2- 8 f 0.1745(3) 0.9943(3) 0.0443(3) 1. 0 0 
H1 H1+ 8 f 0.158(5) 0.120(15) 0.147(7) 1. 0 4. 
H2 H1+ 8 f 0.159(6) 0.431(16) 0.096(8) 1. 0 6. 
H3 H1+ 8 f 0.245(5) 0.451(12) 0.418(6) 1. 0 1. 
H4 H1+ 8 f 0.242(4) 0.668(11) 0.328(5) 1. 0 1. 
H5 H1+ 8 f -.103(7) 0.670(16) 0.153(9) 1. 0 9. 
H6 H1+ 8 f -.061(6) 0.379(16) 0.102(8) 1. 0 6. 
H7 H1+ 8 f 0.050(5) 0.57(3) 0.088(6) 1. 0 3. 
H8 H1+ 8 f 0.064(8) 0.158(16) 0.003(9) 1. 0 11. 
H9 H1+ 8 f 0.038(5) 0.257(14) -.003(7) 1. 0 3. 
H10 H1+ 8 f 0.037(6) 0.813(16) 0.117(8) 1. 0 7. 
H11 H1+ 8 f 0.098(6) 0.877(16) 0.160(8) 1. 0 5. 
H12 H1+ 8 f 0.086(4) 0.564(12) 0.365(6) 1. 0 1. 
H13 H1+ 8 f 0.079(6) 0.633(17) 0.456(8) 1. 0 5. 
H14 H1+ 8 f 0.211(6) -.173(16) 0.423(8) 1. 0 5. 
H15 H1+ 8 f 0.277(5) -.183(13) 0.422(6) 1. 0 2. 
H16 H1+ 8 f 0.142(9) 0.785(16) 0.277(8) 1. 0 15. 
H17 H1+ 8 f 0.093(6) 0.845(16) 0.294(8) 1. 0 8. 
H18 H1+ 8 f 0.157(5) 0.111(15) 0.440(8) 1. 0 3. 
H19 H1+ 8 f 0.174(6) 0.241(18) 0.409(8) 1. 0 4. 
H20 H1+ 8 f 0.185(6) 0.048(16) 0.004(8) 1. 0 8. 
H21 H1+ 8 f 0.158(8) 0.907(16) 0.046(8) 1. 0 14. 

#End of data_100662-ICSD


