data_39729-ICSD
#?2014 by Fachinformationszentrum Karlsruhe, and the U.S. Secretary of 
#Commerce on behalf of the United States.  All rights reserved.
_database_code_ICSD                39729
_audit_creation_date               1994/06/30
_chemical_name_systematic          'Calcium Magnesium Divanadate'
_chemical_formula_structural       'Ca Mg V2 O7'
_chemical_formula_sum              'Ca1 Mg1 O7 V2'
_publ_section_title
;
Crystal structures of double pyrovanadates CaMgV2O7 and CaCoV2O7
;
loop_
_citation_id
_citation_journal_abbrev
_citation_year
_citation_journal_volume
_citation_page_first
_citation_page_last
_citation_journal_id_ASTM
primary 'Zhurnal Neorganicheskoi Khimii' 1993 38 1453 1454 ZNOKAQ
_publ_author_name
;
Murashov, E.V.;Velikodnyi, Yu.A.;Zhuravlev, V.D.
;
_cell_length_a                     6.756(2)
_cell_length_b                     14.495(3)
_cell_length_c                     11.253(2)
_cell_angle_alpha                  90.
_cell_angle_beta                   99.12(2)
_cell_angle_gamma                  90.
_cell_volume                       1088.06
_cell_formula_units_Z              8
_symmetry_space_group_name_H-M     'P 1 21/c 1'
_symmetry_Int_Tables_number        14
_refine_ls_R_factor_all            .026
loop_
_symmetry_equiv_pos_site_id
_symmetry_equiv_pos_as_xyz
  1	'x, -y+.5, z+.5'
  2	'-x, -y, -z'
  3	'-x, y+.5, -z+.5'
  4	'x, y, z'
loop_
_atom_type_symbol
_atom_type_oxidation_number
Ca2+	2
Mg2+	2
O2-	-2
V5+	5
loop_
_atom_site_label
_atom_site_type_symbol
_atom_site_symmetry_multiplicity
_atom_site_Wyckoff_symbol
_atom_site_fract_x
_atom_site_fract_y
_atom_site_fract_z
_atom_site_occupancy
_atom_site_attached_hydrogens
_atom_site_U_iso_or_equiv
Mg1 Mg2+ 4 e -.0062(1) 0.2537(1) 0.2492(1) 1. 0 0.0074(2) 
Mg2 Mg2+ 4 e 0.3589(1) 0.1737(1) 0.4256(1) 1. 0 0.0096(3) 
Ca1 Ca2+ 4 e 0.6664(1) 0.1277(1) 0.0213(1) 1. 0 0.0141(2) 
Ca2 Ca2+ 4 e 0.9309(1) 0.0029(1) 0.7599(1) 1. 0 0.0265(2) 
V1 V5+ 4 e 0.4905(1) 0.2048(1) 0.7058(1) 1. 0 0.0118(1) 
V2 V5+ 4 e 0.4211(1) 0.0143(1) 0.6873(1) 1. 0 0.0100(1) 
V3 V5+ 4 e 0.1324(1) -.1341(1) 0.5200(1) 1. 0 0.0072(1) 
V4 V5+ 4 e 0.1578(1) 0.3722(1) 0.5145(1) 1. 0 0.0078(1) 
O1 O2- 4 e 0.5729(3) 0.1077(1) 0.7957(2) 1. 0 0.0150(6) 
O2 O2- 4 e 0.3086(3) 0.2517(1) 0.7724(2) 1. 0 0.0107(5) 
O3 O2- 4 e 0.3541(3) 0.2939(1) 0.5287(2) 1. 0 0.0164(6) 
O4 O2- 4 e 0.6891(3) 0.2714(1) 0.7014(2) 1. 0 0.0117(5) 
O5 O2- 4 e 0.4062(3) 0.1222(1) 0.5907(2) 1. 0 0.0114(5) 
O6 O2- 4 e 0.6121(3) -.0560(1) 0.6770(2) 1. 0 0.0129(6) 
O7 O2- 4 e 0.2336(3) -.0264(1) 0.5546(2) 1. 0 0.0193(6) 
O8 O2- 4 e 0.2892(3) -.0214(1) 0.7904(2) 1. 0 0.0169(6) 
O9 O2- 4 e -.0472(3) -.1550(1) 0.6117(2) 1. 0 0.0134(6) 
O10 O2- 4 e 0.0379(3) -.1350(1) 0.3708(2) 1. 0 0.0126(5) 
O11 O2- 4 e 0.3179(3) -.2119(1) 0.5489(2) 1. 0 0.0125(5) 
O12 O2- 4 e 0.0048(3) 0.3626(2) 0.3794(2) 1. 0 0.0175(6) 
O13 O2- 4 e 0.0078(3) 0.3583(1) 0.6242(2) 1. 0 0.0125(5) 
O14 O2- 4 e 0.2521(4) 0.4778(2) 0.5344(2) 1. 0 0.0283(8) 

#End of data_39729-ICSD


