data_33784-ICSD
#?2014 by Fachinformationszentrum Karlsruhe, and the U.S. Secretary of 
#Commerce on behalf of the United States.  All rights reserved.
_database_code_ICSD                33784
_audit_creation_date               1991/07/10
_audit_update_record               2012/08/01
_chemical_name_systematic          'Sodium Gadolinium Chloride'
_chemical_formula_structural       'Na Gd Cl4'
_chemical_formula_sum              'Cl4 Gd1 Na1'
_publ_section_title
;
Das System NazGdClHx/S. I. Die Kristallstruktur von NaGdCl4
;
loop_
_citation_id
_citation_journal_abbrev
_citation_year
_citation_journal_volume
_citation_page_first
_citation_page_last
_citation_journal_id_ASTM
primary 'Zeitschrift fuer Anorganische und Allgemeine Chemie (1950) (DE)'
 1990 590 103 110 ZAACAB
_publ_author_name                  'Schleid, T.;Meyer, G.'
_cell_length_a                     7.0281(6)
_cell_length_b                     6.7625(5)
_cell_length_c                     6.6672(5)
_cell_angle_alpha                  100.852(7)
_cell_angle_beta                   91.702(7)
_cell_angle_gamma                  89.760(7)
_cell_volume                       311.07
_cell_formula_units_Z              2
_symmetry_space_group_name_H-M     'P -1'
_symmetry_Int_Tables_number        2
_refine_ls_R_factor_all            .032
loop_
_symmetry_equiv_pos_site_id
_symmetry_equiv_pos_as_xyz
  1	'-x, -y, -z'
  2	'x, y, z'
loop_
_atom_type_symbol
_atom_type_oxidation_number
Cl1-	-1
Gd3+	3
Na1+	1
loop_
_atom_site_label
_atom_site_type_symbol
_atom_site_symmetry_multiplicity
_atom_site_Wyckoff_symbol
_atom_site_fract_x
_atom_site_fract_y
_atom_site_fract_z
_atom_site_occupancy
_atom_site_attached_hydrogens
Na1 Na1+ 2 i 0.4642(6) 0.8010(6) 0.2304(6) 1. 0 
Gd1 Gd3+ 2 i 0.05508(8) 0.29915(7) 0.21075(8) 1. 0 
Cl1 Cl1- 2 i 0.3695(4) 0.2078(3) 0.3898(4) 1. 0 
Cl2 Cl1- 2 i 0.1192(4) 0.6891(3) 0.4296(3) 1. 0 
Cl3 Cl1- 2 i 0.2092(4) 0.0027(3) 0.9035(4) 1. 0 
Cl4 Cl1- 2 i 0.2445(3) 0.5040(3) 0.9505(3) 1. 0 

loop_
_atom_site_aniso_label
_atom_site_aniso_type_symbol
_atom_site_aniso_U_11
_atom_site_aniso_U_22
_atom_site_aniso_U_33
_atom_site_aniso_U_12
_atom_site_aniso_U_13
_atom_site_aniso_U_23
Na1 Na1+ 0.0538(30) 0.0335(22) 0.0399(25) 0.0010(21) 0.0076(23) -.0093(19)
Gd1 Gd3+ 0.0286(3) 0.0098(2) 0.0169(2) 0.0037(2) 0.0001(2) -.0041(1)
Cl1 Cl1- 0.0479(18) 0.0257(12) 0.0369(15) 0.0159(12) -.0108(13) -.0053(11)
Cl2 Cl1- 0.0442(16) 0.0193(11) 0.0222(12) -.0048(10) 0.0076(11) -.0107(9)
Cl3 Cl1- 0.0378(16) 0.0243(12) 0.0367(14) -.0055(11) 0.0117(12) -.0155(10)
Cl4 Cl1- 0.0265(13) 0.0184(10) 0.0270(12) 0.0016(9) -.0001(10) 0.0023(9)
#End of data_33784-ICSD


