data_154164-ICSD
#?2014 by Fachinformationszentrum Karlsruhe, and the U.S. Secretary of 
#Commerce on behalf of the United States.  All rights reserved.
_database_code_ICSD                154164
_audit_creation_date               2007/04/01
_chemical_name_systematic          'Dipotassium Octavanadate'
_chemical_formula_structural       'K2 (V8 O21)'
_chemical_formula_sum              'K2 O21 V8'
_publ_section_title
;
Crystal structure of K2 V8 O21 and Tl2 V8 O21
;
loop_
_citation_id
_citation_journal_abbrev
_citation_year
_citation_journal_volume
_citation_page_first
_citation_page_last
_citation_journal_id_ASTM
primary 'Solid State Sciences' 2005 7 37 43 SSSCFJ
_publ_author_name
;
Tyutyunnik, A.P.;Zubkov, V.G.;Krasil'nikov, V.N.;Svensson, 
G.;Sayagues, M.J.
;
_cell_length_a                     14.9402(2)
_cell_length_b                     3.61823(4)
_cell_length_c                     14.7827(2)
_cell_angle_alpha                  90.
_cell_angle_beta                   91.072(1)
_cell_angle_gamma                  90.
_cell_volume                       798.97
_cell_formula_units_Z              2
_symmetry_space_group_name_H-M     'C 1 2/m 1'
_symmetry_Int_Tables_number        12
_refine_ls_R_factor_all            .0294
loop_
_symmetry_equiv_pos_site_id
_symmetry_equiv_pos_as_xyz
  1	'-x, y, -z'
  2	'-x, -y, -z'
  3	'x, -y, z'
  4	'x, y, z'
  5	'-x+.5, y+.5, -z'
  6	'-x+.5, -y+.5, -z'
  7	'x+.5, -y+.5, z'
  8	'x+.5, y+.5, z'
loop_
_atom_type_symbol
_atom_type_oxidation_number
K1+	1
O2-	-2
V5+	5
loop_
_atom_site_label
_atom_site_type_symbol
_atom_site_symmetry_multiplicity
_atom_site_Wyckoff_symbol
_atom_site_fract_x
_atom_site_fract_y
_atom_site_fract_z
_atom_site_occupancy
_atom_site_attached_hydrogens
_atom_site_B_iso_or_equiv
K1 K1+ 4 i 0.5232(4) 0 0.3138(3) 1. 0 1.9(2) 
V1 V5+ 4 i 0.8132(3) 0.5 -0.0693(3) 1. 0 0.8(2) 
V2 V5+ 4 i 0.8313(3) 0 0.4790(3) 1. 0 1.1(2) 
V3 V5+ 4 i 0.8065(3) 0 0.2713(4) 1. 0 4.4(2) 
V4 V5+ 4 i 0.9094(3) 0 0.0771(3) 1. 0 1.2(2) 
O1 O2- 4 i 0.8871(5) 0 0.3781(5) 1. 0 1.0(2) 
O2 O2- 4 i 0.7914(5) 0.5 0.4749(5) 1. 0 1.1(2) 
O3 O2- 4 i 0.8847(5) 0.5 0.0511(5) 1. 0 0.5(2) 
O4 O2- 4 i 0.8909(6) 0.5 -0.1421(5) 1. 0 1.2(2) 
O5 O2- 4 i 0.7850(5) 0 0.1420(5) 1. 0 2.2(2) 
O6 O2- 4 i 0.7068(6) 0 0.3148(5) 1. 0 2.8(2) 
O7 O2- 4 i 0.0953(5) 0 0.4425(6) 1. 0 1.9(2) 
O8 O2- 4 i 0.1944(6) 0 0.0321(5) 1. 0 1.5(2) 
O9 O2- 4 i 0.0430(5) 0 0.8236(5) 1. 0 1.1(2) 
O10 O2- 4 i 0.3379(5) 0 0.2586(5) 1. 0 1.4(2) 
O11 O2- 2 a 0 0 0 1. 0 1.3(3) 

#End of data_154164-ICSD


