data_236892-ICSD
#?2014 by Fachinformationszentrum Karlsruhe, and the U.S. Secretary of 
#Commerce on behalf of the United States.  All rights reserved.
_database_code_ICSD                236892
_audit_creation_date               2014/08/01
_chemical_name_systematic          'Sodium Niobate - Phase 1'
_chemical_formula_structural       'Na Nb O3'
_chemical_formula_sum              'Na1 Nb1 O3'
_publ_section_title
;
Local structure of NaNbO3: a neutron scattering study
;
loop_
_citation_id
_citation_journal_abbrev
_citation_year
_citation_journal_volume
_citation_journal_issue
_citation_page_first
_citation_page_last
_citation_journal_id_ASTM
primary 'Physical Review, Serie 3. B - Condensed Matter (18,1978-)'
 2013 88 1 014105-1 014105-7 PRBMDO
_publ_author_name
;
Jiang, Lu;Mitchell, D.C.;Dmowski, W.;Egami, T.
;
_cell_length_a                     5.5786
_cell_length_b                     5.5786
_cell_length_c                     3.9510
_cell_angle_alpha                  90.
_cell_angle_beta                   90.
_cell_angle_gamma                  90.
_cell_volume                       122.96
_cell_formula_units_Z              2
_symmetry_space_group_name_H-M     'P 4/m b m'
_symmetry_Int_Tables_number        127
_refine_ls_R_factor_all            .0469
loop_
_symmetry_equiv_pos_site_id
_symmetry_equiv_pos_as_xyz
  1	'y+.5, x+.5, -z'
  2	'-y+.5, -x+.5, -z'
  3	'-y, x, -z'
  4	'y, -x, -z'
  5	'x+.5, -y+.5, -z'
  6	'-x+.5, y+.5, -z'
  7	'x, y, -z'
  8	'-x, -y, -z'
  9	'-y+.5, -x+.5, z'
 10	'y+.5, x+.5, z'
 11	'y, -x, z'
 12	'-y, x, z'
 13	'-x+.5, y+.5, z'
 14	'x+.5, -y+.5, z'
 15	'-x, -y, z'
 16	'x, y, z'
loop_
_atom_type_symbol
_atom_type_oxidation_number
Na1+	1
Nb5+	5
O2-	-2
loop_
_atom_site_label
_atom_site_type_symbol
_atom_site_symmetry_multiplicity
_atom_site_Wyckoff_symbol
_atom_site_fract_x
_atom_site_fract_y
_atom_site_fract_z
_atom_site_occupancy
_atom_site_attached_hydrogens
_atom_site_U_iso_or_equiv
Na1 Na1+ 2 c 0 0.5 0.5 1. 0 0.06416 
Nb1 Nb5+ 2 a 0 0 0 1. 0 0.02759 
O1 O2- 2 b 0 0 0.5 1. 0 0.03643 
O2 O2- 4 g 0.2754 0.2247 0 1. 0 0.03643 

#End of data_236892-ICSD


