data_201555-ICSD
#?2014 by Fachinformationszentrum Karlsruhe, and the U.S. Secretary of 
#Commerce on behalf of the United States.  All rights reserved.
_database_code_ICSD                201555
_audit_creation_date               1985/08/06
_audit_update_record               2012/02/01
_chemical_name_systematic
;
Potassium Diamminecobalt(III) Tetranitrate(III)
;
_chemical_formula_structural       'K Co (N H3)2 (N O2)4'
_chemical_formula_sum              'H6 Co1 K1 N6 O8'
_publ_section_title
;
Spontaneous resolution. III(1). The structures and absolute 
configuration of (cis-alpha-(triethylenetetraamine)Co(NO2)2)Cl H2O 
(I), ((cis-bis-ethylenediamine Co(NO)2)2)Cl (II) and of K(trans-
Co(NH3)2 (NO2)4) (III)
;
loop_
_citation_id
_citation_journal_abbrev
_citation_year
_citation_journal_volume
_citation_page_first
_citation_page_last
_citation_journal_id_ASTM
primary 'Inorganica Chimica Acta' 1985 96 99 110 ICHAA3
_publ_author_name                  'Bernal, I.'
_cell_length_a                     11.275(3)
_cell_length_b                     12.806(5)
_cell_length_c                     6.696(3)
_cell_angle_alpha                  90.
_cell_angle_beta                   90.
_cell_angle_gamma                  90.
_cell_volume                       966.82
_cell_formula_units_Z              4
_symmetry_space_group_name_H-M     'P 21 21 21'
_symmetry_Int_Tables_number        19
_refine_ls_R_factor_all            .0367
loop_
_symmetry_equiv_pos_site_id
_symmetry_equiv_pos_as_xyz
  1	'-x, y+.5, -z+.5'
  2	'x+.5, -y+.5, -z'
  3	'-x+.5, -y, z+.5'
  4	'x, y, z'
loop_
_atom_type_symbol
_atom_type_oxidation_number
Co3+	3
H1+	1
K1+	1
N3-	-3
N3+	3
O2-	-2
loop_
_atom_site_label
_atom_site_type_symbol
_atom_site_symmetry_multiplicity
_atom_site_Wyckoff_symbol
_atom_site_fract_x
_atom_site_fract_y
_atom_site_fract_z
_atom_site_occupancy
_atom_site_attached_hydrogens
_atom_site_U_iso_or_equiv
K1 K1+ 4 a -.3645(1) 0.0235(1) -.1866(2) 1. 0 0 
Co1 Co3+ 4 a -.0835 -.3102 -.2572(1) 1. 0 0 
N1 N3- 4 a 0.0306(3) -.2464(3) -.0762(5) 1. 0 0 
N2 N3- 4 a -.1982(3) -.3744(3) -.4334(6) 1. 0 0 
N3 N3+ 4 a -.1497(4) -.3899(3) -.0371(6) 1. 0 0 
N4 N3+ 4 a -.1923(3) -.1966(2) -.2062(5) 1. 0 0 
N5 N3+ 4 a -.0191(4) -.2277(3) -.4774(6) 1. 0 0 
N6 N3+ 4 a 0.0289(3) -.4220(3) -.3205(5) 1. 0 0 
O1 O2- 4 a -.2577(3) -.3971(3) -.0217(6) 1. 0 0 
O2 O2- 4 a -.0838(3) -.4300(2) 0.0881(5) 1. 0 0 
O3 O2- 4 a -.2045(3) -.1590(2) -.0361(5) 1. 0 0 
O4 O2- 4 a -.2514(3) -.1601(3) -.3469(6) 1. 0 0 
O5 O2- 4 a 0.0473(3) -.1560(3) -.4461(6) 1. 0 0 
O6 O2- 4 a -.0547(4) -.2415(3) -.6465(5) 1. 0 0 
O7 O2- 4 a 0.0100(3) -.4814(3) -.4605(5) 1. 0 0 
O8 O2- 4 a 0.1204(3) -.4327(3) -.2254(6) 1. 0 0 
H1 H1+ 4 a 0.1014(3) -.2893(3) -.0698(5) 1. 0 0.127(12) 
H2 H1+ 4 a -.0041 -.2408(3) 0.0560(5) 1. 0 0.127(12) 
H3 H1+ 4 a 0.0511(3) -.1774(3) -.1246(5) 1. 0 0.127(12) 
H4 H1+ 4 a -.1872(3) -.3483(3) -.5682(6) 1. 0 0.127(12) 
H5 H1+ 4 a -.2776(3) -.3575(3) -.3879(6) 1. 0 0.127(12) 
H6 H1+ 4 a -.1876(3) -.4496(3) -.4323(6) 1. 0 0.127(12) 

loop_
_atom_site_aniso_label
_atom_site_aniso_type_symbol
_atom_site_aniso_U_11
_atom_site_aniso_U_22
_atom_site_aniso_U_33
_atom_site_aniso_U_12
_atom_site_aniso_U_13
_atom_site_aniso_U_23
K1 K1+ 0.0469(6) 0.0339(5) 0.0407(6) 0.0019(5) 0.0021(5) -.0026(5)
Co1 Co3+ 0.0193(2) 0.0145(2) 0.0196(2) 0.0006(2) 0.0008(3) -.0012(3)
N1 N3- 0.033(2) 0.029(2) 0.025(2) -.004(2) 0.001(2) -.006(2)
N2 N3- 0.032(2) 0.025(2) 0.041(2) 0.004(2) -.010(2) -.009(2)
N3 N3+ 0.036(2) 0.014(2) 0.036(2) 0.000(2) 0.008(2) 0.000(2)
N4 N3+ 0.025(2) 0.015(1) 0.04(2) -.003(1) 0.004(2) -.002(2)
N5 N3+ 0.041(2) 0.026(2) 0.029(2) 0.003(2) 0.005(2) 0.007(2)
N6 N3+ 0.029(2) 0.023(2) 0.023(2) 0.004(1) 0.002(2) -.001(1)
O1 O2- 0.037(2) 0.036(2) 0.071(3) -.005(2) 0.020(2) 0.014(2)
O2 O2- 0.061(2) 0.038(2) 0.034(2) 0.000(2) -.001(2) 0.014(2)
O3 O2- 0.051(2) 0.029(2) 0.039(2) 0.002(2) 0.017(2) -.006(2)
O4 O2- 0.056(2) 0.036(2) 0.057(2) 0.021(2) -.020(2) -.008(2)
O5 O2- 0.073(3) 0.061(2) 0.053(3) -.033(2) 0.010(2) 0.017(2)
O6 O2- 0.130(4) 0.072(3) 0.020(2) -.030(3) -.003(2) 0.007(2)
O7 O2- 0.055(2) 0.050(2) 0.046(2) 0.016(2) -.007(2) -.023(2)
O8 O2- 0.038(2) 0.055(2) 0.067(3) 0.025(2) -.021(2) -.022(2)
#End of data_201555-ICSD


