data_99258-ICSD
#?2014 by Fachinformationszentrum Karlsruhe, and the U.S. Secretary of 
#Commerce on behalf of the United States.  All rights reserved.
_database_code_ICSD                99258
_audit_creation_date               2005/04/01
_audit_update_record               2007/08/01
_chemical_name_systematic          'Trisodium Hexahydridoaluminate'
_chemical_formula_structural       'Na3 (Al H6)'
_chemical_formula_sum              'H6 Al1 Na3'
_publ_section_title
;
Electronic structure and Rietveld refinement parameters of Ti-doped 
sodium alanates
;
loop_
_citation_id
_citation_journal_abbrev
_citation_year
_citation_journal_volume
_citation_page_first
_citation_page_last
_citation_journal_id_ASTM
primary 'Journal of Alloys and Compounds' 2004 375 1 10 JALCEU
2 'Golden Book of Phase Transitions, Wroclaw' 2002 1 1 123 GBOPT5
_publ_author_name
;
Ozolins, V.;Majzoub, E.H.;Udovic, T.J.
;
_cell_length_a                     5.21
_cell_length_b                     5.42
_cell_length_c                     7.50
_cell_angle_alpha                  90
_cell_angle_beta                   89.86
_cell_angle_gamma                  90
_cell_volume                       211.79
_cell_formula_units_Z              2
_symmetry_space_group_name_H-M     'P 1 21/n 1'
_symmetry_Int_Tables_number        14
loop_
_symmetry_equiv_pos_site_id
_symmetry_equiv_pos_as_xyz
  1	'-x+.5, y+.5, -z+.5'
  2	'-x, -y, -z'
  3	'x+.5, -y+.5, z+.5'
  4	'x, y, z'
loop_
_atom_type_symbol
_atom_type_oxidation_number
Al3+	3
H1-	-1
Na1+	1
loop_
_atom_site_label
_atom_site_type_symbol
_atom_site_symmetry_multiplicity
_atom_site_Wyckoff_symbol
_atom_site_fract_x
_atom_site_fract_y
_atom_site_fract_z
_atom_site_occupancy
_atom_site_attached_hydrogens
Al1 Al3+ 2 a 0 0 0 1. 0 
Na1 Na1+ 2 b 0 0 0.5 1. 0 
Na2 Na1+ 4 e -0.0108 0.4496 0.2522 1. 0 
H1 H1- 4 e 0.1030 0.0481 0.2196 1. 0 
H2 H1- 4 e 0.2230 0.3305 0.5463 1. 0 
H3 H1- 4 e 0.1605 0.2728 0.9367 1. 0 

#End of data_99258-ICSD


