data_40278-ICSD
#?2014 by Fachinformationszentrum Karlsruhe, and the U.S. Secretary of 
#Commerce on behalf of the United States.  All rights reserved.
_database_code_ICSD                40278
_audit_creation_date               1999/11/30
_chemical_name_systematic
;
Dipotassium Dicadmium Sulfate(VI) - Ht
;
_chemical_formula_structural       'K2 Cd2 (S O4)3'
_chemical_formula_sum              'Cd2 K2 O12 S3'
_chemical_name_mineral
;
Langbeinite, cadmian (Co-doped, high)
;
_publ_section_title
;
Structure of cobalt doped K2 Cd2 (S O4)3 langbeinite at three 
temperatures above the p213 - p212121 phase transition, and a new 
trigger mechanism for the ferroelastic transformation
;
loop_
_citation_id
_citation_journal_abbrev
_citation_year
_citation_journal_volume
_citation_page_first
_citation_page_last
_citation_journal_id_ASTM
primary 'Physics and Chemistry of Minerals' 1989 16 569 574 PCMIDU
_publ_author_name
;
Percival, M.J.L.;Schmahl, W.W.;Salje, E.
;
_cell_length_a                     10.2643(9)
_cell_length_b                     10.2643
_cell_length_c                     10.2643
_cell_angle_alpha                  90.
_cell_angle_beta                   90.
_cell_angle_gamma                  90.
_cell_volume                       1081.4
_cell_formula_units_Z              4
_symmetry_space_group_name_H-M     'P 21 3'
_symmetry_Int_Tables_number        198
_refine_ls_R_factor_all            .0354
loop_
_symmetry_equiv_pos_site_id
_symmetry_equiv_pos_as_xyz
  1	'-z+.5, -x, y+.5'
  2	'-y+.5, -z, x+.5'
  3	'-x+.5, -y, z+.5'
  4	'-z, x+.5, -y+.5'
  5	'-y, z+.5, -x+.5'
  6	'-x, y+.5, -z+.5'
  7	'z+.5, -x+.5, -y'
  8	'y+.5, -z+.5, -x'
  9	'x+.5, -y+.5, -z'
 10	'z, x, y'
 11	'y, z, x'
 12	'x, y, z'
loop_
_atom_type_symbol
_atom_type_oxidation_number
Cd2+	2
K1+	1
O2-	-2
S6+	6
loop_
_atom_site_label
_atom_site_type_symbol
_atom_site_symmetry_multiplicity
_atom_site_Wyckoff_symbol
_atom_site_fract_x
_atom_site_fract_y
_atom_site_fract_z
_atom_site_occupancy
_atom_site_attached_hydrogens
K1 K1+ 4 a 0.0646(2) 0.0646(2) 0.0646(2) 1. 0 
K2 K1+ 4 a 0.3020(2) 0.3020(2) 0.3020(2) 1. 0 
Cd1 Cd2+ 4 a 0.57984(5) 0.57984(5) 0.57984(5) 1. 0 
Cd2 Cd2+ 4 a 0.83701(5) 0.83701(5) 0.83701(5) 1. 0 
S1 S6+ 12 b 0.6252(2) 0.4766(2) 0.2617(1) 1. 0 
O1 O2- 12 b 0.3462(7) 0.2564(11) 0.5744(8) 1. 0 
O2 O2- 12 b 0.5311(8) 0.5680(8) 0.2102(10) 1. 0 
O3 O2- 12 b 0.6675(10) 0.5102(11) 0.3931(7) 1. 0 
O4 O2- 12 b 0.1811(9) 0.7391(10) 0.4894(12) 1. 0 

loop_
_atom_site_aniso_label
_atom_site_aniso_type_symbol
_atom_site_aniso_U_11
_atom_site_aniso_U_22
_atom_site_aniso_U_33
_atom_site_aniso_U_12
_atom_site_aniso_U_13
_atom_site_aniso_U_23
K1 K1+ 0.0405(7) 0.0405 0.0405 -.0022(7) -.0022 -.0022
K2 K1+ 0.0432(8) 0.0432 0.0432 0.0008(8) 0.0008 0.0008
Cd1 Cd2+ 0.0277(2) 0.0277 0.0277 -.0040(2) -.004 -.004
Cd2 Cd2+ 0.0236(2) 0.0236 0.0236 -.0010(2) -.001 -.001
S1 S6+ 0.0185(6) 0.0189(7) 0.0183(7) 0.0040(5) 0.0018(5) 0.0008(5)
O1 O2- 0.0263(31) 0.1168(76) 0.0647(46) 0.0130(39) -.0119(32) -.0384(50)
O2 O2- 0.0572(52) 0.0543(49) 0.1137(80) 0.0331(40) -.0339(48) 0.0061(47)
O3 O2- 0.0790(61) 0.1078(72) 0.0343(36) 0.0079(59) -.0160(39) -.0309(41)
O4 O2- 0.0826(70) 0.0638(58) 0.1433(91) 0.0615(58) 0.0258(71) 0.0253(60)
#End of data_40278-ICSD


