data_165171-ICSD
#?2014 by Fachinformationszentrum Karlsruhe, and the U.S. Secretary of 
#Commerce on behalf of the United States.  All rights reserved.
_database_code_ICSD                165171
_audit_creation_date               2010/02/01
_chemical_name_systematic
;
Magnesium Bis(tetrahydridoaluminate)
;
_chemical_formula_structural       'Mg (Al H4)2'
_chemical_formula_sum              'H8 Al2 Mg1'
_publ_section_title                'The structure of magnesium alanate'
loop_
_citation_id
_citation_journal_abbrev
_citation_year
_citation_journal_volume
_citation_journal_issue
_citation_page_first
_citation_page_last
_citation_journal_id_ASTM
primary 'Inorganic Chemistry' 2003 42 22 7060 7066 INOCAJ
_publ_author_name
;
Fichtner, M.;Engel, J.;Fuhr, O.;Gloess, A.;Rubner, O.;Ahlrichs, R.
;
_cell_length_a                     5.099
_cell_length_b                     5.088
_cell_length_c                     5.978
_cell_angle_alpha                  91.5
_cell_angle_beta                   91.5
_cell_angle_gamma                  129.2
_cell_volume                       119.96
_cell_formula_units_Z              1
_symmetry_space_group_name_H-M     'P 1'
_symmetry_Int_Tables_number        1
loop_
_symmetry_equiv_pos_site_id
_symmetry_equiv_pos_as_xyz
  1	'x, y, z'
loop_
_atom_type_symbol
_atom_type_oxidation_number
Al3+	3
H1-	-1
Mg2+	2
loop_
_atom_site_label
_atom_site_type_symbol
_atom_site_symmetry_multiplicity
_atom_site_Wyckoff_symbol
_atom_site_fract_x
_atom_site_fract_y
_atom_site_fract_z
_atom_site_occupancy
_atom_site_attached_hydrogens
Mg1 Mg2+ 1 a 0 0 0 1. 0 
Al1 Al3+ 1 a 0.33 0.64 0.71 1. 0 
Al2 Al3+ 1 a 0.66 0.34 0.30 1. 0 
H1 H1- 1 a 0.36 0.21 0.15 1. 0 
H2 H1- 1 a 0.58 0.35 0.55 1. 0 
H3 H1- 1 a 0.90 0.67 0.20 1. 0 
H4 H1- 1 a 0.08 0.31 0.81 1. 0 
H5 H1- 1 a 0.22 0.86 0.84 1. 0 
H6 H1- 1 a 0.3 0.66 0.45 1. 0 
H7 H1- 1 a 0.67 0.76 0.80 1. 0 
H8 H1- 1 a 0.82 0.12 0.24 1. 0 

#End of data_165171-ICSD


