data_79931-ICSD
#?2014 by Fachinformationszentrum Karlsruhe, and the U.S. Secretary of 
#Commerce on behalf of the United States.  All rights reserved.
_database_code_ICSD                79931
_audit_creation_date               1996/10/14
_chemical_name_systematic
;
Barium Triscandium Silver Hexasulfide
;
_chemical_formula_structural       'Ba Sc3 Ag S6'
_chemical_formula_sum              'Ag1 Ba1 S6 Sc3'
_publ_section_title
;
Synthesis and structure of Ba Sc3 Ag S6
;
loop_
_citation_id
_citation_journal_abbrev
_citation_year
_citation_journal_volume
_citation_page_first
_citation_page_last
_citation_journal_id_ASTM
primary 'Journal of Alloys and Compounds' 1995 224 199 202 JALCEU
_publ_author_name
;
Wu, P.;Pell, M.A.;Cody, J.A.;Ibers, J.A.
;
_cell_length_a                     16.1540(30)
_cell_length_b                     11.108(2)
_cell_length_c                     10.914(3)
_cell_angle_alpha                  90.
_cell_angle_beta                   90.
_cell_angle_gamma                  90.
_cell_volume                       1958.39
_cell_formula_units_Z              8
_symmetry_space_group_name_H-M     'P n m a'
_symmetry_Int_Tables_number        62
_refine_ls_R_factor_all            .056
loop_
_symmetry_equiv_pos_site_id
_symmetry_equiv_pos_as_xyz
  1	'x+.5, y, -z+.5'
  2	'x, -y+.5, z'
  3	'-x+.5, y+.5, z+.5'
  4	'-x, -y, -z'
  5	'-x+.5, -y, z+.5'
  6	'-x, y+.5, -z'
  7	'x+.5, -y+.5, -z+.5'
  8	'x, y, z'
loop_
_atom_type_symbol
_atom_type_oxidation_number
Ag1+	1
Ba2+	2
S2-	-2
Sc3+	3
loop_
_atom_site_label
_atom_site_type_symbol
_atom_site_symmetry_multiplicity
_atom_site_Wyckoff_symbol
_atom_site_fract_x
_atom_site_fract_y
_atom_site_fract_z
_atom_site_occupancy
_atom_site_attached_hydrogens
_atom_site_U_iso_or_equiv
Ba1 Ba2+ 8 d 0.29645(5) 0.05647(8) 0.23482(8) 1. 0 0.0063(2) 
Sc1 Sc3+ 4 c 0.0931(3) 0.25 0.4300(4) 1. 0 0.0034(9) 
Sc2 Sc3+ 8 d 0.0868(2) 0.5856(3) 0.4219(2) 1. 0 0.0026(6) 
Sc3 Sc3+ 8 d 0.0344(2) 0.0832(3) 0.1410(3) 1. 0 0.0047(6) 
Sc4 Sc3+ 4 c 0.4753(3) 0.25 0.6391(4) 1. 0 0.0051(9) 
Ag1 Ag1+ 4 c 0.28814(12) 0.25 0.5443(2) 1. 0 0.0138(4) 
Ag2 Ag1+ 4 c 0.67854(12) 0.25 0.5514(2) 1. 0 0.0128(4) 
S1 S2- 8 d 0.1898(2) 0.0772(3) 0.4791(3) 1. 0 0.0057(8) 
S2 S2- 4 c 0.0207(4) 0.25 0.6376(5) 1. 0 0.0052(11) 
S3 S2- 8 d 0.5757(2) 0.0790(4) 0.5862(3) 1. 0 0.0040(8) 
S4 S2- 4 c 0.1379(4) 0.25 0.2028(5) 1. 0 0.0051(11) 
S5 S2- 4 c 0.4266(4) 0.25 0.4089(5) 1. 0 0.0072(12) 
S6 S2- 8 d 0.4854(2) 0.0835(4) 0.1355(3) 1. 0 0.0059(8) 
S7 S2- 8 d 0.1322(2) 0.5881(3) 0.1988(3) 1. 0 0.0042(8) 
S8 S2- 4 c 0.3214(4) 0.25 0.0111(5) 1. 0 0.0082(12) 

#End of data_79931-ICSD


