data_165838-ICSD
#?2014 by Fachinformationszentrum Karlsruhe, and the U.S. Secretary of 
#Commerce on behalf of the United States.  All rights reserved.
_database_code_ICSD                165838
_audit_creation_date               2010/08/01
_chemical_name_systematic
;
Sodium Tetrahydridoaluminate - Beta
;
_chemical_formula_structural       'Na (Al H4)'
_chemical_formula_sum              'H4 Al1 Na1'
_publ_section_title
;
Elastic properties of Na X H4 (X= B, Al)
;
loop_
_citation_id
_citation_journal_abbrev
_citation_year
_citation_journal_volume
_citation_page_first
_citation_page_last
_citation_journal_id_ASTM
primary 'Journal of Physics: Condensed Matter' 2009 21 275401-1 275401-6 JCOMEL
_publ_author_name
;
Zhang Xiaodong;Jiang Zhenyi;Hou Yuqing;Li Lisha
;
_cell_length_a                     3.5298
_cell_length_b                     14.0151
_cell_length_c                     5.1021
_cell_angle_alpha                  90.
_cell_angle_beta                   90.
_cell_angle_gamma                  90.
_cell_volume                       252.4
_cell_formula_units_Z              4
_symmetry_space_group_name_H-M     'C m c 21'
_symmetry_Int_Tables_number        36
loop_
_symmetry_equiv_pos_site_id
_symmetry_equiv_pos_as_xyz
  1	'x, -y, z+.5'
  2	'-x, -y, z+.5'
  3	'-x, y, z'
  4	'x, y, z'
  5	'x+.5, -y+.5, z+.5'
  6	'-x+.5, -y+.5, z+.5'
  7	'-x+.5, y+.5, z'
  8	'x+.5, y+.5, z'
loop_
_atom_type_symbol
_atom_type_oxidation_number
Al3+	3
H1-	-1
Na1+	1
loop_
_atom_site_label
_atom_site_type_symbol
_atom_site_symmetry_multiplicity
_atom_site_Wyckoff_symbol
_atom_site_fract_x
_atom_site_fract_y
_atom_site_fract_z
_atom_site_occupancy
_atom_site_attached_hydrogens
Na1 Na1+ 4 a 0 0.1730 0.2347 1. 0 
Al1 Al3+ 4 a 0 0.4154 0.2055 1. 0 
H1 H1- 4 a 0 0.3486 0.4772 1. 0 
H2 H1- 4 a 0 0.3174 0.0103 1. 0 
H3 H1- 4 a 0 0.0765 0.6860 1. 0 
H4 H1- 4 a 0 0.5209 0.3874 1. 0 

#End of data_165838-ICSD


