data_168714-ICSD
#?2014 by Fachinformationszentrum Karlsruhe, and the U.S. Secretary of 
#Commerce on behalf of the United States.  All rights reserved.
_database_code_ICSD                168714
_audit_creation_date               2011/02/01
_chemical_name_systematic
;
Sodium Calcium Trihydride - Alpha, Hypothetical
;
_chemical_formula_structural       'Na Ca H3'
_chemical_formula_sum              'H3 Ca1 Na1'
_publ_section_title
;
Structural investigation and thermodynamical properties of alkali 
calcium trihydrides
;
loop_
_citation_id
_citation_journal_abbrev
_citation_year
_citation_journal_volume
_citation_page_first
_citation_page_last
_citation_journal_id_ASTM
primary 'Journal of Chemical Physics' 2010 132 114504-1 114504-9 JCPSA6
_publ_author_name
;
Vajeeston, P.;Ravindran, P.;Fjellvag, H.
;
_cell_length_a                     6.8555
_cell_length_b                     7.1940
_cell_length_c                     6.8040
_cell_angle_alpha                  118.59
_cell_angle_beta                   117.01
_cell_angle_gamma                  29.78
_cell_volume                       145.76
_cell_formula_units_Z              2
_symmetry_space_group_name_H-M     'P -1'
_symmetry_Int_Tables_number        2
loop_
_symmetry_equiv_pos_site_id
_symmetry_equiv_pos_as_xyz
  1	'-x, -y, -z'
  2	'x, y, z'
loop_
_atom_type_symbol
_atom_type_oxidation_number
Ca2+	2
H1-	-1
Na1+	1
loop_
_atom_site_label
_atom_site_type_symbol
_atom_site_symmetry_multiplicity
_atom_site_Wyckoff_symbol
_atom_site_fract_x
_atom_site_fract_y
_atom_site_fract_z
_atom_site_occupancy
_atom_site_attached_hydrogens
Na1 Na1+ 2 i 0.7257 0.0131 0.2737 1. 0 
Ca1 Ca2+ 2 i 0.1609 0.6291 0.7517 1. 0 
H1 H1- 2 i 0.9004 0.5172 0.6503 1. 0 
H2 H1- 2 i 0.3627 0.8224 0.0155 1. 0 
H3 H1- 2 i 0.2330 0.8404 0.3466 1. 0 

#End of data_168714-ICSD


