data_174401-ICSD
#?2014 by Fachinformationszentrum Karlsruhe, and the U.S. Secretary of 
#Commerce on behalf of the United States.  All rights reserved.
_database_code_ICSD                174401
_audit_creation_date               2011/02/01
_audit_update_record               2013/02/01
_chemical_name_systematic
;
Tripotassium Hydrogen Bis(sulfate(VI))
;
_chemical_formula_structural       'K3 H (S O4)2'
_chemical_formula_sum              'H1 K3 O8 S2'
_publ_section_title
;
Investigation of the structural conditionality for changes in 
physical properties of K3 H (S O4)2 crystals
;
loop_
_citation_id
_citation_journal_abbrev
_citation_year
_citation_journal_volume
_citation_journal_issue
_citation_page_first
_citation_page_last
_citation_journal_id_ASTM
primary Kristallografiya 2010 55 3 429 439 KRISAJ
2 'Crystallography Reports' 2010 55 3 393 403 CYSTE3
_publ_author_name
;
Makarova, I.P.;Chernaya, T.S.;Filaretov, A.A.;Vasil'ev, A.L.;Verin, 
I.A.;Grebenev, V.V.;Dolbinina, V.V.
;
_cell_length_a                     14.685(3)
_cell_length_b                     5.676(1)
_cell_length_c                     9.772(1)
_cell_angle_alpha                  90
_cell_angle_beta                   103.2(1)
_cell_angle_gamma                  90
_cell_volume                       793
_cell_formula_units_Z              4
_symmetry_space_group_name_H-M     'C 1 2/c 1'
_symmetry_Int_Tables_number        15
_refine_ls_R_factor_all            .0229
loop_
_symmetry_equiv_pos_site_id
_symmetry_equiv_pos_as_xyz
  1	'x, -y, z+.5'
  2	'-x, -y, -z'
  3	'-x, y, -z+.5'
  4	'x, y, z'
  5	'x+.5, -y+.5, z+.5'
  6	'-x+.5, -y+.5, -z'
  7	'-x+.5, y+.5, -z+.5'
  8	'x+.5, y+.5, z'
loop_
_atom_type_symbol
_atom_type_oxidation_number
H1+	1
K1+	1
O2-	-2
S6+	6
loop_
_atom_site_label
_atom_site_type_symbol
_atom_site_symmetry_multiplicity
_atom_site_Wyckoff_symbol
_atom_site_fract_x
_atom_site_fract_y
_atom_site_fract_z
_atom_site_occupancy
_atom_site_attached_hydrogens
_atom_site_U_iso_or_equiv
K1 K1+ 4 e 0 0.7560(1) 0.25 1. 0 0.021(1) 
K2 K1+ 8 f 0.3058(1) 0.7320(1) 0.3481(1) 1. 0 0.024(1) 
S1 S6+ 8 f 0.3839(1) 0.7731(1) 0.0378(1) 1. 0 0.014(1) 
O1 O2- 8 f 0.3466(1) 0.9774(1) 0.0982(1) 1. 0 0.022(1) 
O2 O2- 8 f 0.4899(1) 0.8121(1) 0.0611(1) 1. 0 0.026(1) 
O3 O2- 8 f 0.3476(1) 0.7603(1) 0.8858(1) 1. 0 0.022(1) 
O4 O2- 8 f 0.3699(1) 0.5544(1) 0.1083(1) 1. 0 0.024(1) 
H1 H1+ 4 b 0.5 0 0 1. 0 0.12(1) 

#End of data_174401-ICSD


