data_93790-ICSD
#?2014 by Fachinformationszentrum Karlsruhe, and the U.S. Secretary of 
#Commerce on behalf of the United States.  All rights reserved.
_database_code_ICSD                93790
_audit_creation_date               2003/04/01
_chemical_name_systematic
;
Trisodium Iron(III) Bis(phosphate(V))
;
_chemical_formula_structural       'Na3 Fe (P O4)2'
_chemical_formula_sum              'Fe1 Na3 O8 P2'
_publ_section_title
;
The glaserite-like structure of double sodium and iron phosphate Na3 
Fe (P O4)2
;
loop_
_citation_id
_citation_journal_abbrev
_citation_year
_citation_journal_volume
_citation_page_first
_citation_page_last
_citation_journal_id_ASTM
primary 'Journal of Solid State Chemistry' 2001 160 377 381 JSSCBI
_publ_author_name
;
Morozov, V.A.;Lazoryak, B.I.;Malakho, A.P.;Pokholok, K.V.;Polyakov, 
S.N.;Terekhina, T.P.
;
_cell_length_a                     9.0736(2)
_cell_length_b                     5.0344(1)
_cell_length_c                     13.8732(3)
_cell_angle_alpha                  90
_cell_angle_beta                   91.435(2)
_cell_angle_gamma                  90
_cell_volume                       633.53
_cell_formula_units_Z              4
_symmetry_space_group_name_H-M     'C 1 2/c 1'
_symmetry_Int_Tables_number        15
_refine_ls_R_factor_all            .014
loop_
_symmetry_equiv_pos_site_id
_symmetry_equiv_pos_as_xyz
  1	'x, -y, z+.5'
  2	'-x, -y, -z'
  3	'-x, y, -z+.5'
  4	'x, y, z'
  5	'x+.5, -y+.5, z+.5'
  6	'-x+.5, -y+.5, -z'
  7	'-x+.5, y+.5, -z+.5'
  8	'x+.5, y+.5, z'
loop_
_atom_type_symbol
_atom_type_oxidation_number
Fe3+	3
Na1+	1
O2-	-2
P5+	5
loop_
_atom_site_label
_atom_site_type_symbol
_atom_site_symmetry_multiplicity
_atom_site_Wyckoff_symbol
_atom_site_fract_x
_atom_site_fract_y
_atom_site_fract_z
_atom_site_occupancy
_atom_site_attached_hydrogens
_atom_site_B_iso_or_equiv
Na1 Na1+ 4 e 0 0.0435(9) 0.250 1. 0 2.8(1) 
Na2 Na1+ 8 f 0.1703(4) 0.5399(7) 0.1319(2) 1. 0 2.6(1) 
Fe1 Fe3+ 4 a 0 0 0 1. 0 2.0(1) 
P1 P5+ 8 f 0.1680(3) 0.5191(5) 0.3875(1) 1. 0 2.2(1) 
O1 O2- 8 f 0.1641(6) 0.3884(8) 0.2904(3) 1. 0 2.4(1) 
O2 O2- 8 f 0.1099(6) 0.326(1) 0.4738(2) 1. 0 2.2(1) 
O3 O2- 8 f 0.0730(5) 0.7875(8) 0.3848(3) 1. 0 0.9(1) 
O4 O2- 8 f 0.3359(6) 0.5920(9) 0.4148(2) 1. 0 1.7(1) 

#End of data_93790-ICSD


