data_50754-ICSD
#?2014 by Fachinformationszentrum Karlsruhe, and the U.S. Secretary of 
#Commerce on behalf of the United States.  All rights reserved.
_database_code_ICSD                50754
_audit_creation_date               2000/07/15
_chemical_name_systematic
;
Tripotassium Dilanthanum Nitrate(V)
;
_chemical_formula_structural       'K3 La2 (N O3)9'
_chemical_formula_sum              'K3 La2 N9 O27'
_publ_section_title
;
Potassium lanthanum nitrate system: phase equilibria and thermal and 
structural properties
;
loop_
_citation_id
_citation_journal_abbrev
_citation_year
_citation_journal_volume
_citation_page_first
_citation_page_last
_citation_journal_id_ASTM
primary 'Journal of Solid State Chemistry' 1999 144 68 80 JSSCBI
_publ_author_name
;
Gobichon, A.E.;Auffredic, J.P.;Louer, D.
;
_cell_length_a                     13.6607(5)
_cell_length_b                     13.6607(5)
_cell_length_c                     13.6607(5)
_cell_angle_alpha                  90.
_cell_angle_beta                   90.
_cell_angle_gamma                  90.
_cell_volume                       2549.29
_cell_formula_units_Z              4
_symmetry_space_group_name_H-M     'P 41 3 2'
_symmetry_Int_Tables_number        213
_refine_ls_R_factor_all            .027
loop_
_symmetry_equiv_pos_site_id
_symmetry_equiv_pos_as_xyz
  1	'-z+.25, y+.75, x+.25'
  2	'z+.25, -y+.25, x+.75'
  3	'z+.75, y+.25, -x+.25'
  4	'-z+.75, -y+.75, -x+.75'
  5	'y+.75, x+.25, -z+.25'
  6	'-y+.25, x+.75, z+.25'
  7	'y+.25, -x+.25, z+.75'
  8	'-y+.75, -x+.75, -z+.75'
  9	'x+.25, -z+.25, y+.75'
 10	'x+.75, z+.25, -y+.25'
 11	'-x+.25, z+.75, y+.25'
 12	'-x+.75, -z+.75, -y+.75'
 13	'z+.5, -x+.5, -y'
 14	'-z+.5, -x, y+.5'
 15	'-z, x+.5, -y+.5'
 16	'z, x, y'
 17	'-y, z+.5, -x+.5'
 18	'y+.5, -z+.5, -x'
 19	'-y+.5, -z, x+.5'
 20	'y, z, x'
 21	'-x+.5, -y, z+.5'
 22	'-x, y+.5, -z+.5'
 23	'x+.5, -y+.5, -z'
 24	'x, y, z'
loop_
_atom_type_symbol
_atom_type_oxidation_number
K1+	1
La3+	3
N5+	5
O2-	-2
loop_
_atom_site_label
_atom_site_type_symbol
_atom_site_symmetry_multiplicity
_atom_site_Wyckoff_symbol
_atom_site_fract_x
_atom_site_fract_y
_atom_site_fract_z
_atom_site_occupancy
_atom_site_attached_hydrogens
_atom_site_B_iso_or_equiv
La1 La3+ 8 c 0.54817(1) 0.54817(1) 0.54817(1) 1. 0 1.41(1) 
K1 K1+ 12 d 0.125 -.18675(6) 0.0632(6) 1. 0 2.93(1) 
N1 N5+ 24 e 0.1100(2) 0.3387(2) 0.3514(2) 1. 0 2.36(5) 
O1 O2- 24 e 0.1892(2) 0.3611(2) 0.3073(2) 1. 0 2.64(4) 
O2 O2- 24 e 0.1760(2) 0.0836(2) 0.5058(2) 1. 0 2.78(5) 
O3 O2- 24 e 0.1577(2) 0.6464(2) 0.1795(2) 1. 0 4.12(6) 
N2 N5+ 12 d 0.125 -.0127(2) 0.2373(2) 1. 0 1.68(4) 
O4 O2- 12 d 0.125 0.0543(2) 0.3043(2) 1. 0 1.89(3) 
O5 O2- 24 e 0.8445(2) 0.6571(2) 0.4911(2) 1. 0 2.28(4) 

#End of data_50754-ICSD


