data_2321-ICSD
#?2014 by Fachinformationszentrum Karlsruhe, and the U.S. Secretary of 
#Commerce on behalf of the United States.  All rights reserved.
_database_code_ICSD                2321
_audit_creation_date               1980/01/01
_chemical_name_systematic          'Magnesium Divanadate'
_chemical_formula_structural       'Mg2 V2 O7'
_chemical_formula_sum              'Mg2 O7 V2'
_publ_section_title
;
Crystal structure of magnesium divanadate,  Mg2 V2 O7
;
loop_
_citation_id
_citation_journal_abbrev
_citation_year
_citation_journal_volume
_citation_page_first
_citation_page_last
_citation_journal_id_ASTM
primary 'Acta Crystallographica B (24,1968-38,1982)' 1974 30 2491 2493 ACBCAR
_publ_author_name                  'Gopal, R.;Calvo, C.'
_cell_length_a                     13.767(7)
_cell_length_b                     5.414(3)
_cell_length_c                     4.912(2)
_cell_angle_alpha                  81.42(4)
_cell_angle_beta                   106.82(4)
_cell_angle_gamma                  130.33(4)
_cell_volume                       266.79
_cell_formula_units_Z              2
_symmetry_space_group_name_H-M     'P -1'
_symmetry_Int_Tables_number        2
_refine_ls_R_factor_all            .022
loop_
_symmetry_equiv_pos_site_id
_symmetry_equiv_pos_as_xyz
  1	'-x, -y, -z'
  2	'x, y, z'
loop_
_atom_type_symbol
_atom_type_oxidation_number
Mg2+	2
O2-	-2
V5+	5
loop_
_atom_site_label
_atom_site_type_symbol
_atom_site_symmetry_multiplicity
_atom_site_Wyckoff_symbol
_atom_site_fract_x
_atom_site_fract_y
_atom_site_fract_z
_atom_site_occupancy
_atom_site_attached_hydrogens
Mg1 Mg2+ 2 i 0.08370(8) 0.3767(2) 0.5095(2) 1. 0 
Mg2 Mg2+ 2 i 0.41687(8) 0.6187(2) 0.4229(2) 1. 0 
V1 V5+ 2 i 0.63934(4) -.0702(1) 0.03708(8) 1. 0 
V2 V5+ 2 i 0.86140(4) -.0632(11) -.14070(8) 1. 0 
O1 O2- 2 i 0.7075(2) -.2036(5) -.1055(4) 1. 0 
O2 O2- 2 i 0.9523(2) -.0124(5) 0.2089(3) 1. 0 
O3 O2- 2 i 0.7651(2) 0.2893(5) 0.1865(4) 1. 0 
O4 O2- 2 i 0.9334(2) 0.2896(5) -.3044(4) 1. 0 
O5 O2- 2 i 0.4588(1) 0.0313(5) 0.2352(4) 1. 0 
O6 O2- 2 i 0.2123(2) 0.3753(5) 0.3636(4) 1. 0 
O7 O2- 2 i 0.4386(2) 0.3242(5) 0.7109(4) 1. 0 

loop_
_atom_site_aniso_label
_atom_site_aniso_type_symbol
_atom_site_aniso_U_11
_atom_site_aniso_U_22
_atom_site_aniso_U_33
_atom_site_aniso_U_12
_atom_site_aniso_U_13
_atom_site_aniso_U_23
Mg1 Mg2+ 0.0088(3) 0.0068(4) 0.0063(3) 0.0052(3) 0.0006(3) 0.0001(3)
Mg2 Mg2+ 0.0080(3) 0.0073(4) 0.0072(3) 0.0050(3) 0.0006(3) 0.0008(3)
V1 V5+ 0.0072(2) 0.0067(2) 0.0041(2) 0.0043(1) 0.0003(1) 0.0007(1)
V2 V5+ 0.0068(2) 0.0062(2) 0.0041(2) 0.0036(1) -.0003(1) 0.0001(1)
O1 O2- 0.0110(7) 0.0156(10) 0.0120(7) 0.0085(7) 0.0028(6) -.0018(7)
O2 O2- 0.0120(7) 0.0082(8) 0.0043(6) 0.0060(6) -.0011(5) -.0001(5)
O3 O2- 0.0135(8) 0.0117(9) 0.0115(7) 0.0050(7) -.0026(6) -.0029(7)
O4 O2- 0.0131(7) 0.0106(8) 0.0108(7) 0.0088(7) 0.0033(6) 0.0033(6)
O5 O2- 0.0117(7) 0.0091(8) 0.0061(6) 0.0075(6) -.0006(5) 0.0004(6)
O6 O2- 0.0069(6) 0.0095(8) 0.0107(7) 0.0042(6) 0.0030(5) -.0014(6)
O7 O2- 0.0125(7) 0.0119(9) 0.0080(6) 0.0091(7) 0.0040(5) 0.0038(6)
#End of data_2321-ICSD


