data_97705-ICSD
#?2014 by Fachinformationszentrum Karlsruhe, and the U.S. Secretary of 
#Commerce on behalf of the United States.  All rights reserved.
_database_code_ICSD                97705
_audit_creation_date               2004/10/01
_chemical_name_systematic          'Calcium Magnesium Diborate'
_chemical_formula_structural       'Ca Mg (B2 O5)'
_chemical_formula_sum              'B2 Ca1 Mg1 O5'
_chemical_name_mineral             Clinokurchatovite
_publ_section_title
;
Modular aspects of the crystal structures of kurchatovite and 
clinokurchatovite
;
loop_
_citation_id
_citation_journal_abbrev
_citation_year
_citation_journal_volume
_citation_page_first
_citation_page_last
_citation_journal_id_ASTM
primary 'European Journal of Mineralogy' 2003 15 277 282 EJMIER
_publ_author_name                  'Callegari, A.;Mazzi, F.;Tadini, C.'
_cell_length_a                     12.329(7)
_cell_length_b                     11.146(5)
_cell_length_c                     5.519(4)
_cell_angle_alpha                  90
_cell_angle_beta                   101.62(6)
_cell_angle_gamma                  90
_cell_volume                       742.87
_cell_formula_units_Z              8
_symmetry_space_group_name_H-M     'P 1 21/c 1'
_symmetry_Int_Tables_number        14
_refine_ls_R_factor_all            .0282
loop_
_symmetry_equiv_pos_site_id
_symmetry_equiv_pos_as_xyz
  1	'x, -y+.5, z+.5'
  2	'-x, -y, -z'
  3	'-x, y+.5, -z+.5'
  4	'x, y, z'
loop_
_atom_type_symbol
_atom_type_oxidation_number
B3+	3
Ca2+	2
Mg2+	2
O2-	-2
loop_
_atom_site_label
_atom_site_type_symbol
_atom_site_symmetry_multiplicity
_atom_site_Wyckoff_symbol
_atom_site_fract_x
_atom_site_fract_y
_atom_site_fract_z
_atom_site_occupancy
_atom_site_attached_hydrogens
_atom_site_B_iso_or_equiv
Ca1 Ca2+ 4 e 0.08978(3) 0.87289(4) 0.15611(7) 1. 0 0.62(1) 
Ca2 Ca2+ 4 e 0.40702(3) 0.11837(4) 0.86805(7) 1. 0 0.64(1) 
Mg1 Mg2+ 4 e 0.2373(1) 0.1279(1) 0.2478(1) 1. 0 0.51(1) 
Mg2 Mg2+ 4 e 0.2643(1) 0.8721(1) 0.7546(1) 1. 0 0.51(1) 
B1 B3+ 4 e 0.1739(2) 0.1246(2) 0.7014(4) 1. 0 0.54(4) 
B2 B3+ 4 e 0.3273(2) 0.8835(2) 0.2891(4) 1. 0 0.55(4) 
B3 B3+ 4 e 0.0105(2) 0.1195(2) 0.3531(4) 1. 0 0.57(4) 
B4 B3+ 4 e 0.4913(2) 0.8757(2) 0.6263(4) 1. 0 0.54(4) 
O1 O2- 4 e 0.2179(1) 0.1975(1) 0.8926(3) 1. 0 0.67(3) 
O2 O2- 4 e 0.2688(1) 0.8045(1) 0.4026(3) 1. 0 0.62(3) 
O3 O2- 4 e 0.2392(1) 0.0495(1) 0.5969(3) 1. 0 0.65(3) 
O4 O2- 4 e 0.2748(1) -0.0444(1) 0.1015(3) 1. 0 0.60(3) 
O5 O2- 4 e 0.0576(1) 0.1278(1) 0.6089(3) 1. 0 0.73(3) 
O6 O2- 4 e 0.4431(2) 0.8898(1) 0.3707(3) 1. 0 0.72(3) 
O7 O2- 4 e 0.0692(1) 0.0821(1) 0.1837(3) 1. 0 0.61(3) 
O8 O2- 4 e 0.4337(1) -0.0936(1) 0.8033(3) 1. 0 0.61(3) 
O9 O2- 4 e 0.0956(1) 0.8412(1) 0.7142(3) 1. 0 0.70(3) 
O10 O2- 4 e 0.4045(1) 0.1694(1) 0.3183(3) 1. 0 0.72(3) 

loop_
_atom_site_aniso_label
_atom_site_aniso_type_symbol
_atom_site_aniso_U_11
_atom_site_aniso_U_22
_atom_site_aniso_U_33
_atom_site_aniso_U_12
_atom_site_aniso_U_13
_atom_site_aniso_U_23
Ca1 Ca2+ 0.0072(2) 0.0072(2) 0.0091(2) 0.0008(1) 0.0019(1) 0.0006(1)
Ca2 Ca2+ 0.0067(2) 0.0077(2) 0.0095(2) 0.0006(1) 0.0006(1) -.0011(1)
Mg1 Mg2+ 0.0063(3) 0.0071(3) 0.0061(2) -.0002(2) 0.0017(2) 0.0000(2)
Mg2 Mg2+ 0.0059(3) 0.0073(3) 0.0064(3) -.0002(2) 0.0013(2) 0.0001(2)
B1 B3+ 0.0060(8) 0.0081(8) 0.0064(7) -.0004(7) 0.0012(6) 0.0016(7)
B2 B3+ 0.0071(8) 0.0075(8) 0.0061(7) 0.0009(7) 0.0012(6) -.0016(7)
B3 B3+ 0.0058(8) 0.0068(8) 0.0092(8) -.0001(6) 0.0018(6) -.0013(7)
B4 B3+ 0.0059(8) 0.0069(8) 0.0072(7) -.0009(6) -.0003(6) 0.0007(7)
O1 O2- 0.0089(6) 0.0082(6) 0.0081(6) -.0016(5) 0.0013(5) -.0009(5)
O2 O2- 0.0083(6) 0.0082(6) 0.0072(6) -.0022(5) 0.0019(5) 0.0005(5)
O3 O2- 0.0095(6) 0.0085(6) 0.0072(6) 0.0011(5) 0.0026(5) 0.0001(5)
O4 O2- 0.0083(6) 0.0089(6) 0.0054(5) 0.0018(5) 0.0006(4) 0.0002(5)
O5 O2- 0.0068(6) 0.0142(7) 0.0068(5) 0.0005(5) 0.0013(4) -.0026(4)
O6 O2- 0.0056(6) 0.0159(7) 0.0054(6) -.0003(5) 0.0000(4) 0.0012(5)
O7 O2- 0.0781(6) 0.0090(6) 0.0073(6) 0.0006(5) 0.0022(5) -.0012(5)
O8 O2- 0.0058(6) 0.0108(6) 0.0067(6) 0.0007(5) 0.0016(4) -.0006(5)
O9 O2- 0.0052(6) 0.0091(6) 0.0120(6) 0.0013(5) 0.0006(5) -.0004(5)
O10 O2- 0.0052(6) 0.0091(6) 0.0125(6) 0.0007(5) 0.0005(5) -.0004(5)
#End of data_97705-ICSD


