data_76655-ICSD
#?2014 by Fachinformationszentrum Karlsruhe, and the U.S. Secretary of 
#Commerce on behalf of the United States.  All rights reserved.
_database_code_ICSD                76655
_audit_creation_date               2001/07/16
_audit_update_record               2006/04/01
_chemical_name_systematic
;
Disodium Dititanium Trioxide Catena-disilicate
;
_chemical_formula_structural       'Na2 Ti2 O3 (Si2 O6)'
_chemical_formula_sum              'Na2 O9 Si2 Ti2'
_chemical_name_mineral             Lorenzenite
_publ_section_title
;
The crystal structure of ramsaite, Na2 Ti2 Si2 O9
;
loop_
_citation_id
_citation_journal_abbrev
_citation_year
_citation_journal_volume
_citation_page_first
_citation_page_last
_citation_journal_id_ASTM
primary 'Doklady Akademii Nauk SSSR' 1949 69 805 808 DANKAS
_publ_author_name                  'Belov, N.V.;Belyaev, L.M.'
_cell_length_a                     14.26
_cell_length_b                     8.57
_cell_length_c                     5.09
_cell_angle_alpha                  90.
_cell_angle_beta                   90.
_cell_angle_gamma                  90.
_cell_volume                       622.04
_cell_formula_units_Z              4
_symmetry_space_group_name_H-M     'P n c a'
_symmetry_Int_Tables_number        60
loop_
_symmetry_equiv_pos_site_id
_symmetry_equiv_pos_as_xyz
  1	'x+.5, y, -z'
  2	'x, -y+.5, z+.5'
  3	'-x+.5, y+.5, z+.5'
  4	'-x, -y, -z'
  5	'-x+.5, -y, z'
  6	'-x, y+.5, -z+.5'
  7	'x+.5, -y+.5, -z+.5'
  8	'x, y, z'
loop_
_atom_type_symbol
_atom_type_oxidation_number
Na1+	1
O2-	-2
Si4+	4
Ti4+	4
loop_
_atom_site_label
_atom_site_type_symbol
_atom_site_symmetry_multiplicity
_atom_site_Wyckoff_symbol
_atom_site_fract_x
_atom_site_fract_y
_atom_site_fract_z
_atom_site_occupancy
_atom_site_attached_hydrogens
Ti1 Ti4+ 8 d 0.168 -.154 0.137 1. 0 
Si1 Si4+ 8 d 0.023 0.159 0.2 1. 0 
Na1 Na1+ 8 d 0.15 0.063 0.65 1. 0 
O1 O2- 8 d -.094 0.169 0.2 1. 0 
O2 O2- 8 d 0.074 0.01 0.25 1. 0 
O3 O2- 8 d 0.074 0.265 0.445 1. 0 
O4 O2- 8 d 0.23 -.166 0.46 1. 0 
O5 O2- 4 c 0.25 0 -.01 1. 0 

#End of data_76655-ICSD


