data_79224-ICSD
#?2014 by Fachinformationszentrum Karlsruhe, and the U.S. Secretary of 
#Commerce on behalf of the United States.  All rights reserved.
_database_code_ICSD                79224
_audit_creation_date               1996/10/14
_chemical_name_systematic
;
Tripotassium Catena-tetrathiodiferrate
;
_chemical_formula_structural       'K3 (Fe2 S4)'
_chemical_formula_sum              'Fe2 K3 S4'
_publ_section_title
;
New ternary iron sulphides A3 Fe2 S4 (A=K, Rb, Cs): syntheses and 
crystal structures
;
loop_
_citation_id
_citation_journal_abbrev
_citation_year
_citation_journal_volume
_citation_page_first
_citation_page_last
_citation_journal_id_ASTM
primary 'Journal of Alloys and Compounds' 1995 218 22 27 JALCEU
_publ_author_name
;
Bronger, W.;Ruschewitz, U.;Mueller, P.
;
_cell_length_a                     7.157(3)
_cell_length_b                     10.989(4)
_cell_length_c                     11.560(4)
_cell_angle_alpha                  90.
_cell_angle_beta                   90.
_cell_angle_gamma                  90.
_cell_volume                       909.17
_cell_formula_units_Z              4
_symmetry_space_group_name_H-M     'P n m a'
_symmetry_Int_Tables_number        62
_refine_ls_R_factor_all            .038
loop_
_symmetry_equiv_pos_site_id
_symmetry_equiv_pos_as_xyz
  1	'x+.5, y, -z+.5'
  2	'x, -y+.5, z'
  3	'-x+.5, y+.5, z+.5'
  4	'-x, -y, -z'
  5	'-x+.5, -y, z+.5'
  6	'-x, y+.5, -z'
  7	'x+.5, -y+.5, -z+.5'
  8	'x, y, z'
loop_
_atom_type_symbol
_atom_type_oxidation_number
Fe2.5+	2.5
K1+	1
S2-	-2
loop_
_atom_site_label
_atom_site_type_symbol
_atom_site_symmetry_multiplicity
_atom_site_Wyckoff_symbol
_atom_site_fract_x
_atom_site_fract_y
_atom_site_fract_z
_atom_site_occupancy
_atom_site_attached_hydrogens
K1 K1+ 8 d 0.0611(4) 0.4241(2) 0.1390(2) 1. 0 
K2 K1+ 4 c 0.0844(5) 0.25 0.7706(3) 1. 0 
Fe1 Fe2.5+ 8 d 0.0515(2) 0.3767(1) 0.4690(1) 1. 0 
S1 S2- 8 d 0.1542(4) 0.5548(2) 0.3871(2) 1. 0 
S2 S2- 4 c 0.2880(5) 0.25 0.5334(3) 1. 0 
S3 S2- 4 c 0.4041(5) 0.25 0.1580(3) 1. 0 

loop_
_atom_site_aniso_label
_atom_site_aniso_type_symbol
_atom_site_aniso_U_11
_atom_site_aniso_U_22
_atom_site_aniso_U_33
_atom_site_aniso_U_12
_atom_site_aniso_U_13
_atom_site_aniso_U_23
K1 K1+ 0.0212(11) 0.0294(12) 0.0262(11) 0.0074(11) -.0013(11) 0.001(1)
K2 K1+ 0.0175(16) 0.0191(14) 0.0183(15) 0 0.0001(13) 0
Fe1 Fe2.5+ 0.0114(5) 0.0099(6) 0.0144(6) 0.0003(6) -.0009(6) -.0002(6)
S1 S2- 0.0176(11) 0.0151(11) 0.0201(11) -.0012(11) 0.0068(10) 0.0032(11)
S2 S2- 0.0104(14) 0.0200(16) 0.0174(16) 0 -.0027(16) 0
S3 S2- 0.0156(17) 0.0151(15) 0.0144(15) 0 0.0036(13) 0
#End of data_79224-ICSD


