data_425763-ICSD
#?2014 by Fachinformationszentrum Karlsruhe, and the U.S. Secretary of 
#Commerce on behalf of the United States.  All rights reserved.
_database_code_ICSD                425763
_audit_creation_date               2014/08/01
_chemical_name_systematic
;
Tetralithium Manganese Heptathiodigermanate
;
_chemical_formula_structural       'Li4 Mn Ge2 S7'
_chemical_formula_sum              'Ge2 Li4 Mn1 S7'
_publ_section_title
;
Quaternary diamond-like chalcogenidometalate networks as efficient 
anode material in lithium-ion batteries
;
loop_
_citation_id
_citation_journal_abbrev
_citation_year
_citation_journal_volume
_citation_journal_issue
_citation_page_first
_citation_page_last
_citation_journal_id_ASTM
primary 'Advanced Functional Materials' 2013 23 46 5693 5699 AFMDC6
_publ_author_name
;
Thomas Kaib;Sima Haddadpour;Hanne Flaeten Andersen;Leonhard 
Mayrhofer;Tommi T. Jaervi;Michael Moseler;Kai-Christian 
Moeller;Stefanie Dehnen
;
_cell_length_a                     16.833(3)
_cell_length_b                     6.7092(13)
_cell_length_c                     10.121(2)
_cell_angle_alpha                  90.00
_cell_angle_beta                   94.76(3)
_cell_angle_gamma                  90.00
_cell_volume                       1139.08
_cell_formula_units_Z              4
_symmetry_space_group_name_H-M     'C 1 c 1'
_symmetry_Int_Tables_number        9
_refine_ls_R_factor_all            .0561
loop_
_symmetry_equiv_pos_site_id
_symmetry_equiv_pos_as_xyz
  1	'x, -y, z+.5'
  2	'x, y, z'
  3	'x+.5, -y+.5, z+.5'
  4	'x+.5, y+.5, z'
loop_
_atom_type_symbol
_atom_type_oxidation_number
Ge4+	4
Li1+	1
Mn2+	2
S2-	-2
loop_
_atom_site_label
_atom_site_type_symbol
_atom_site_symmetry_multiplicity
_atom_site_Wyckoff_symbol
_atom_site_fract_x
_atom_site_fract_y
_atom_site_fract_z
_atom_site_occupancy
_atom_site_attached_hydrogens
_atom_site_U_iso_or_equiv
S1 S2- 4 a 0.6776(2) 0.8332(4) 0.5700(3) 1 0 0.0097(7) 
S2 S2- 4 a 0.53683(17) 1.1350(5) 0.3672(3) 1 0 0.0122(7) 
Li1 Li1+ 4 a 0.4205(13) 1.136(3) 0.203(2) 1 0 0.007(3) 
Li2 Li1+ 4 a 0.8497(14) 0.178(2) 0.365(3) 1 0 0.006(6) 
Li3 Li1+ 4 a 0.6456(18) 0.334(3) 0.277(3) 1 0 0.023(8) 
S3 S2- 4 a 0.5977(2) 0.6707(5) 0.2378(3) 1 0 0.0140(8) 
Li4 Li1+ 4 a 0.7113(11) 0.182(2) 0.640(2) 1 0 0.007(6) 
S4 S2- 4 a 0.47162(17) 0.6787(4) 0.5134(3) 1 0 0.0119(7) 
Ge1 Ge4+ 4 a 0.78185(7) 0.66974(13) 0.48462(11) 1 0 0.0080(4) 
Ge2 Ge4+ 4 a 0.56909(7) 0.82628(15) 0.41876(10) 1 0 0.0104(5) 
Mn1 Mn2+ 4 a 0.99313(14) 0.8239(3) 0.5561(2) 1 0 0.0213(9) 
S5 S2- 4 a 0.8183(2) 0.8331(5) 0.3141(3) 1 0 0.0120(7) 
S6 S2- 4 a 0.74679(17) 0.3615(5) 0.4526(3) 1 0 0.0127(6) 
S7 S2- 4 a 0.87685(17) 0.6947(4) 0.6474(4) 1 0 0.0114(6) 

loop_
_atom_site_aniso_label
_atom_site_aniso_type_symbol
_atom_site_aniso_U_11
_atom_site_aniso_U_22
_atom_site_aniso_U_33
_atom_site_aniso_U_12
_atom_site_aniso_U_13
_atom_site_aniso_U_23
S1 S2- 0.0063(13) 0.0097(14) 0.0130(14) 0.0017(10) 0.0007(11) -0.0003(9)
S2 S2- 0.0114(13) 0.0089(13) 0.0158(14) -0.0022(12) -0.0016(11) 0.0016(10)
S3 S2- 0.0146(17) 0.0148(16) 0.0126(15) 0.0003(9) 0.0012(11) -0.0022(8)
S4 S2- 0.0085(16) 0.0117(14) 0.0153(14) 0.0003(10) 0.0007(10) -0.0007(10)
Ge1 Ge4+ 0.0087(6) 0.0060(6) 0.0093(6) -0.0005(4) 0.0005(4) 0.0002(4)
Ge2 Ge4+ 0.0099(8) 0.0079(7) 0.0131(8) -0.0004(4) -0.0007(4) 0.0004(4)
Mn1 Mn2+ 0.0227(15) 0.0199(14) 0.0216(14) 0.0006(6) 0.0026(9) 0.0004(6)
S5 S2- 0.0146(16) 0.0086(15) 0.0130(15) -0.0007(8) 0.0020(12) 0.0022(8)
S6 S2- 0.0151(15) 0.0089(13) 0.0139(13) 0.0015(12) 0.0003(10) -0.0018(10)
S7 S2- 0.0090(16) 0.0144(13) 0.0102(12) 0.0013(10) -0.0030(11) 0.0015(10)
#End of data_425763-ICSD


