data_203082-ICSD
#?2014 by Fachinformationszentrum Karlsruhe, and the U.S. Secretary of 
#Commerce on behalf of the United States.  All rights reserved.
_database_code_ICSD                203082
_audit_creation_date               1990/12/27
_audit_update_record               2013/02/01
_chemical_name_systematic
;
Cesium Potassium Tetramolybdato(V)hexaphosphate
;
_chemical_formula_structural       'Cs K (Mo4 P6 O26)'
_chemical_formula_sum              'Cs1 K1 Mo4 O26 P6'
_publ_section_title
;
Parallel, Segregated Cs+- and K+- Filled One-Dimensional Tunnels in 
Cs2 K2 Mo8 P12 O52
;
loop_
_citation_id
_citation_journal_abbrev
_citation_year
_citation_journal_volume
_citation_page_first
_citation_page_last
_citation_journal_id_ASTM
primary 'Journal of Solid State Chemistry' 1989 83 202 206 JSSCBI
_publ_author_name                  'Haushalter, R.C.;Lai, F.W.'
_cell_length_a                     6.388(2)
_cell_length_b                     18.901(2)
_cell_length_c                     18.805(2)
_cell_angle_alpha                  90.
_cell_angle_beta                   92.07(2)
_cell_angle_gamma                  90.
_cell_volume                       2269.03
_cell_formula_units_Z              4
_symmetry_space_group_name_H-M     'P 1 21/c 1'
_symmetry_Int_Tables_number        14
_refine_ls_R_factor_all            .052
loop_
_symmetry_equiv_pos_site_id
_symmetry_equiv_pos_as_xyz
  1	'x, -y+.5, z+.5'
  2	'-x, -y, -z'
  3	'-x, y+.5, -z+.5'
  4	'x, y, z'
loop_
_atom_type_symbol
_atom_type_oxidation_number
Cs1+	1
K1+	1
Mo5+	5
O2-	-2
P5+	5
loop_
_atom_site_label
_atom_site_type_symbol
_atom_site_symmetry_multiplicity
_atom_site_Wyckoff_symbol
_atom_site_fract_x
_atom_site_fract_y
_atom_site_fract_z
_atom_site_occupancy
_atom_site_attached_hydrogens
_atom_site_U_iso_or_equiv
Cs1 Cs1+ 4 e -.3879(3) -.15476(9) 0.57411(8) 1. 0 0 
Mo1 Mo5+ 4 e -.3959(2) -.15809(8) 0.21768(7) 1. 0 0 
Mo2 Mo5+ 4 e -.8725(2) -.12295(8) 0.43789(7) 1. 0 0 
Mo3 Mo5+ 4 e -.8957(2) -.33354(8) 0.22131(7) 1. 0 0 
Mo4 Mo5+ 4 e -.3715(2) -.37087(8) 0.44492(7) 1. 0 0 
K1 K1+ 4 e -.8012(8) -.0008(2) 0.2217(3) 1. 0 0 
P1 P5+ 4 e -.1044(7) 0.0392(2) 0.4023(2) 1. 0 0.0033(9) 
P2 P5+ 4 e -.3713(7) -.0848(2) 0.3944(2) 1. 0 0.0037(9) 
P3 P5+ 4 e -.8690(7) -.4058(2) 0.4003(2) 1. 0 0.0037(9) 
P4 P5+ 4 e -.6068(7) -.5323(2) 0.4029(2) 1. 0 0.0032(9) 
P5 P5+ 4 e -.8911(7) -.1694(2) 0.2664(2) 1. 0 0.0028(9) 
P6 P5+ 4 e -.3903(7) -.3206(2) 0.2716(2) 1. 0 0.0031(9) 
O1 O2- 4 e -.402(2) -.2076(7) 0.1456(7) 1. 0 0.012(3) 
O2 O2- 4 e -.844(2) -.2099(7) 0.4538(7) 1. 0 0.014(3) 
O3 O2- 4 e -.903(2) -.2879(7) 0.1457(7) 1. 0 0.012(3) 
O4 O2- 4 e -.346(2) -.2872(7) 0.4683(6) 1. 0 0.012(3) 
O5 O2- 4 e -.325(2) -.0017(6) 0.4039(6) 1. 0 0.005(2) 
O6 O2- 4 e 0.073(2) -.0102(6) 0.4215(6) 1. 0 0.006(2) 
O7 O2- 4 e -.085(2) 0.0682(6) 0.3272(6) 1. 0 0.008(2) 
O8 O2- 4 e -.131(2) 0.0994(6) 0.4550(6) 1. 0 0.009(3) 
O9 O2- 4 e -.565(2) -.0945(6) 0.4396(6) 1. 0 0.008(3) 
O10 O2- 4 e -.192(2) -.1237(6) 0.4335(6) 1. 0 0.009(3) 
O11 O2- 4 e -.400(2) -.0997(6) 0.3170(6) 1. 0 0.009(3) 
O12 O2- 4 e -.826(2) -.4892(6) 0.4047(6) 1. 0 0.006(2) 
O13 O2- 4 e -.691(2) -.3684(6) 0.4386(6) 1. 0 0.010(3) 
O14 O2- 4 e -.897(2) -.3902(6) 0.3224(6) 1. 0 0.006(2) 
O15 O2- 4 e -.070(2) -.3984(6) 0.4412(6) 1. 0 0.010(3) 
O16 O2- 4 e -.628(2) -.5931(6) 0.4540(6) 1. 0 0.008(3) 
O17 O2- 4 e -.594(2) -.5605(6) 0.3273(6) 1. 0 0.007(3) 
O18 O2- 4 e -.428(2) -.4820(6) 0.4195(6) 1. 0 0.008(3) 
O19 O2- 4 e -.709(2) -.1479(6) 0.2206(6) 1. 0 0.007(2) 
O20 O2- 4 e -.876(2) -.1233(6) 0.3329(6) 1. 0 0.010(3) 
O21 O2- 4 e -.085(2) -.1465(7) 0.2233(6) 1. 0 0.011(3) 
O22 O2- 4 e -.890(2) -.2478(6) 0.2863(6) 1. 0 0.006(2) 
O23 O2- 4 e -.389(2) -.2414(6) 0.2864(6) 1. 0 0.009(3) 
O24 O2- 4 e -.585(2) -.3441(6) 0.2269(6) 1. 0 0.008(2) 
O25 O2- 4 e -.207(2) -.3435(7) 0.2255(6) 1. 0 0.012(3) 
O26 O2- 4 e -.375(2) -.3632(7) 0.3390(7) 1. 0 0.012(3) 

loop_
_atom_site_aniso_label
_atom_site_aniso_type_symbol
_atom_site_aniso_U_11
_atom_site_aniso_U_22
_atom_site_aniso_U_33
_atom_site_aniso_U_12
_atom_site_aniso_U_13
_atom_site_aniso_U_23
Cs1 Cs1+ 0.0372(8) 0.042(1) 0.0219(7) 0.0021(7) -.0005(6) 0.0099(7)
Mo1 Mo5+ 0.0010(7) 0.0037(7) 0.0028(7) 0.0004(6) 0.0008(5) 0.0014(6)
Mo2 Mo5+ 0.0013(7) 0.0031(7) 0.0031(7) -.0001(6) 0.0006(5) -.0010(5)
Mo3 Mo5+ 0.0010(7) 0.0047(7) 0.0024(7) -.0004(6) 0.0001(5) 0.0003(6)
Mo4 Mo5+ 0.0022(8) 0.0020(7) 0.0026(7) 0.0001(5) 0.0005(5) 0.0010(5)
K1 K1+ 0.039(3) 0.012(2) 0.059(3) 0.014(2) 0.031(3) 0.013(2)
#End of data_203082-ICSD


