data_262283-ICSD
#?2014 by Fachinformationszentrum Karlsruhe, and the U.S. Secretary of 
#Commerce on behalf of the United States.  All rights reserved.
_database_code_ICSD                262283
_audit_creation_date               2012/08/01
_chemical_name_systematic
;
Lead Magnesium Tungsten Oxide (1/0.5/0.5/3) - Lt Phase
;
_chemical_formula_structural       'Pb (Mg0.5 W0.5) O3'
_chemical_formula_sum              'Mg0.5 O3 Pb1 W0.5'
_publ_section_title
;
Low temperature phase transition studies on Pb (Mg0.5 W0.5) O3 
ceramic
;
loop_
_citation_id
_citation_journal_abbrev
_citation_year
_citation_journal_volume
_citation_journal_issue
_citation_page_first
_citation_page_last
_citation_journal_id_ASTM
primary 'Solid State Sciences' 2012 14 1 100 105 SSSCFJ
_publ_author_name                  'Singh, A.K.;Singh Akhilesh Kumar'
_cell_length_a                     7.9118(6)
_cell_length_b                     5.6846(5)
_cell_length_c                     11.4078(9)
_cell_angle_alpha                  90.
_cell_angle_beta                   90.
_cell_angle_gamma                  90.
_cell_volume                       513.07
_cell_formula_units_Z              8
_symmetry_space_group_name_H-M     'P m c n'
_symmetry_Int_Tables_number        62
_refine_ls_R_factor_all            .179
loop_
_symmetry_equiv_pos_site_id
_symmetry_equiv_pos_as_xyz
  1	'x, -y+.5, z+.5'
  2	'-x+.5, y, z'
  3	'x+.5, y+.5, -z+.5'
  4	'-x, -y, -z'
  5	'-x, y+.5, -z+.5'
  6	'x+.5, -y, -z'
  7	'-x+.5, -y+.5, z+.5'
  8	'x, y, z'
loop_
_atom_type_symbol
_atom_type_oxidation_number
Mg2+	2
O2-	-2
Pb2+	2
W6+	6
loop_
_atom_site_label
_atom_site_type_symbol
_atom_site_symmetry_multiplicity
_atom_site_Wyckoff_symbol
_atom_site_fract_x
_atom_site_fract_y
_atom_site_fract_z
_atom_site_occupancy
_atom_site_attached_hydrogens
_atom_site_B_iso_or_equiv
Pb1 Pb2+ 8 d 0.0065(7) -0.2154(3) 0.1441(1) 1. 0 0.12(5) 
Mg1 Mg2+ 4 c 0.25 0.76(1) 0.385(3) 1. 0 0.19(8) 
W1 W6+ 4 c 0.25 0.255(2) 0.1143(4) 1. 0 0.21(4) 
O1 O2- 8 d 0.499(3) 0.243(4) 0.135(2) 1. 0 0.55(4) 
O2 O2- 4 c 0.25 0.01(2) 0.01(1) 1. 0 0.38(2) 
O3 O2- 4 c 0.25 0.51(2) 0.01(1) 1. 0 0.36(3) 
O4 O2- 4 c 0.25 -0.005(4) 0.253(5) 1. 0 0.25(2) 
O5 O2- 4 c 0.25 0.454(9) 0.264(4) 1. 0 0.34(3) 

#End of data_262283-ICSD


