data_1972-ICSD
#?2014 by Fachinformationszentrum Karlsruhe, and the U.S. Secretary of 
#Commerce on behalf of the United States.  All rights reserved.
_database_code_ICSD                1972
_audit_creation_date               1980/01/01
_audit_update_record               2005/10/01
_chemical_name_systematic          'Dilithium Chromate(VI)'
_chemical_formula_structural       'Li2 (Cr O4)'
_chemical_formula_sum              'Cr1 Li2 O4'
_publ_section_title
;
Refinement of the crystal structure of lithium chromate
;
loop_
_citation_id
_citation_journal_abbrev
_citation_year
_citation_journal_volume
_citation_page_first
_citation_page_last
_citation_journal_id_ASTM
primary 'Acta Crystallographica B (24,1968-38,1982)' 1975 31 2364 2365 ACBCAR
2 'Phase Transition' 1992 38 127 220 PHTRDP
_publ_author_name                  'Brown, I.D.;Faggiani, R.'
_cell_length_a                     14.005(10)
_cell_length_b                     14.005(10)
_cell_length_c                     9.405(5)
_cell_angle_alpha                  90.
_cell_angle_beta                   90.
_cell_angle_gamma                  120.
_cell_volume                       1597.55
_cell_formula_units_Z              18
_symmetry_space_group_name_H-M     'R -3 H'
_symmetry_Int_Tables_number        148
_refine_ls_R_factor_all            .075
loop_
_symmetry_equiv_pos_site_id
_symmetry_equiv_pos_as_xyz
  1	'x-y, x, -z'
  2	'y, -x+y, -z'
  3	'-x, -y, -z'
  4	'-x+y, -x, z'
  5	'-y, x-y, z'
  6	'x, y, z'
  7	'x-y+.6666, x+.3333, -z+.3333'
  8	'x-y+.3333, x+.6666, -z+.6666'
  9	'y+.6666, -x+y+.3333, -z+.3333'
 10	'y+.3333, -x+y+.6666, -z+.6666'
 11	'-x+.6666, -y+.3333, -z+.3333'
 12	'-x+.3333, -y+.6666, -z+.6666'
 13	'-x+y+.6666, -x+.3333, z+.3333'
 14	'-x+y+.3333, -x+.6666, z+.6666'
 15	'-y+.6666, x-y+.3333, z+.3333'
 16	'-y+.3333, x-y+.6666, z+.6666'
 17	'x+.6666, y+.3333, z+.3333'
 18	'x+.3333, y+.6666, z+.6666'
loop_
_atom_type_symbol
_atom_type_oxidation_number
Cr6+	6
Li1+	1
O2-	-2
loop_
_atom_site_label
_atom_site_type_symbol
_atom_site_symmetry_multiplicity
_atom_site_Wyckoff_symbol
_atom_site_fract_x
_atom_site_fract_y
_atom_site_fract_z
_atom_site_occupancy
_atom_site_attached_hydrogens
Cr1 Cr6+ 18 f 0.4563(1) 0.3164(1) 0.5868(1) 1. 0 
O1 O2- 18 f 0.5618(3) 0.4462(4) 0.5812(5) 1. 0 
O2 O2- 18 f 0.3424(4) 0.3276(4) 0.5856(5) 1. 0 
O3 O2- 18 f 0.4627(4) 0.2576(4) 0.7303(5) 1. 0 
O4 O2- 18 f 0.4573(4) 0.2511(4) 0.4405(5) 1. 0 
Li1 Li1+ 18 f 0.4581(12) 0.3149(12) 0.9196(12) 1. 0 
Li2 Li1+ 18 f 0.4541(11) 0.3135(10) 0.2522(10) 1. 0 

loop_
_atom_site_aniso_label
_atom_site_aniso_type_symbol
_atom_site_aniso_U_11
_atom_site_aniso_U_22
_atom_site_aniso_U_33
_atom_site_aniso_U_12
_atom_site_aniso_U_13
_atom_site_aniso_U_23
Cr1 Cr6+ 0.0080(6) 0.0058(6) 0.0033(4) 0.0041(5) -0.0005(4) 0.0001(4)
O1 O2- 0.012(2) 0.012(2) 0.013(2) 0.001(2) 0.001(2) 0.003(2)
O2 O2- 0.010(2) 0.013(2) 0.018(2) 0.007(2) 0.001(2) 0.000(2)
O3 O2- 0.022(3) 0.015(2) 0.009(2) 0.012(2) 0.003(2) 0.006(2)
O4 O2- 0.025(3) 0.018(2) 0.008(2) 0.014(2) 0.000(3) -0.002(2)
Li1 Li1+ 0.025(7) 0.018(7) 0.020(6) 0.010(6) 0.002(6) 0.008(5)
Li2 Li1+ 0.017(6) 0.015(6) 0.013(5) 0.002(5) -0.003(5) -0.004(4)
#End of data_1972-ICSD


