data_261616-ICSD
#?2014 by Fachinformationszentrum Karlsruhe, and the U.S. Secretary of 
#Commerce on behalf of the United States.  All rights reserved.
_database_code_ICSD                261616
_audit_creation_date               2011/08/01
_audit_update_record               2014/08/01
_chemical_name_systematic
;
Disilver(I) Trinickel(II) Hydrogenphosphate Bis(phosphate)
;
_chemical_formula_structural       'Ag2 Ni3 (H P O4) (P O4)2'
_chemical_formula_sum              'H1 Ag2 Ni3 O12 P3'
_publ_section_title
;
Disilver(I) trinickel(II) hydrogenphosphate bis(phosphate), Ag2 Ni3 
(H P O4) (P O4)2
;
loop_
_citation_id
_citation_journal_abbrev
_citation_year
_citation_journal_volume
_citation_journal_issue
_citation_page_first
_citation_page_last
_citation_journal_id_ASTM
primary 'Acta Crystallographica, Section E. Structure Reports Online'
 2011 67 7 i40 i40 ACSEBH
_publ_author_name
;
Assani, A.;El Ammari, L.;Zriouil, M.;Saadi, M.
;
_cell_length_a                     12.9233(3)
_cell_length_b                     6.5678(2)
_cell_length_c                     10.6629(3)
_cell_angle_alpha                  90.00
_cell_angle_beta                   90.00
_cell_angle_gamma                  90.00
_cell_volume                       905.04
_cell_formula_units_Z              4
_symmetry_space_group_name_H-M     'I m a 2'
_symmetry_Int_Tables_number        46
_refine_ls_R_factor_all            .0239
loop_
_symmetry_equiv_pos_site_id
_symmetry_equiv_pos_as_xyz
  1	'x+.5, -y, z'
  2	'-x+.5, y, z'
  3	'-x, -y, z'
  4	'x, y, z'
  5	'x, -y+.5, z+.5'
  6	'-x, y+.5, z+.5'
  7	'-x+.5, -y+.5, z+.5'
  8	'x+.5, y+.5, z+.5'
loop_
_atom_type_symbol
_atom_type_oxidation_number
Ag1+	1
H1+	1
Ni2+	2
O2-	-2
P5+	5
loop_
_atom_site_label
_atom_site_type_symbol
_atom_site_symmetry_multiplicity
_atom_site_Wyckoff_symbol
_atom_site_fract_x
_atom_site_fract_y
_atom_site_fract_z
_atom_site_occupancy
_atom_site_attached_hydrogens
_atom_site_U_iso_or_equiv
Ag1 Ag1+ 4 b 0.2500 0.60793(8) -0.01513(7) 1 0 0.02914(18) 
Ag2 Ag1+ 4 a 0.0000 0.5000 -0.03769(5) 1 0 0.0443(2) 
Ni1 Ni2+ 8 c 0.13623(4) 0.24801(10) 0.20871(7) 1 0 0.00699(13) 
Ni2 Ni2+ 4 a 0.0000 0.5000 0.45735(7) 1 0 0.00462(15) 
P1 P5+ 8 c -0.07279(7) 0.25722(19) 0.20677(13) 1 0 0.00587(19) 
P2 P5+ 4 b 0.2500 0.4102(2) 0.45653(15) 1 0 0.0042(3) 
O1 O2- 8 c -0.1343(3) 0.4456(5) 0.1739(3) 1 0 0.0091(7) 
O2 O2- 8 c 0.0044(3) 0.2070(6) 0.1000(3) 1 0 0.0056(6) 
O3 O2- 8 c 0.0036(3) 0.2785(5) 0.3204(3) 1 0 0.0072(8) 
O4 O2- 8 c -0.1494(3) 0.0786(5) 0.2360(3) 1 0 0.0096(9) 
O5 O2- 8 c 0.1543(2) 0.5443(4) 0.4552(3) 1 0 0.0085(5) 
O6 O2- 4 b 0.2500 0.2617(8) 0.3420(5) 1 0 0.0090(12) 
O7 O2- 4 b 0.2500 0.2692(7) 0.5756(5) 1 0 0.0064(12) 
H1 H1+ 4 b 0.2500 0.3065 0.6529 1 0 0.008 

loop_
_atom_site_aniso_label
_atom_site_aniso_type_symbol
_atom_site_aniso_U_11
_atom_site_aniso_U_22
_atom_site_aniso_U_33
_atom_site_aniso_U_12
_atom_site_aniso_U_13
_atom_site_aniso_U_23
Ag1 Ag1+ 0.0491(4) 0.0158(3) 0.0225(3) 0.000 0.000 0.0048(3)
Ag2 Ag1+ 0.1145(7) 0.0083(2) 0.0101(3) -0.0020(3) 0.000 0.000
Ni1 Ni2+ 0.0058(2) 0.0092(3) 0.0060(3) 0.0005(2) 0.0005(3) -0.00135(19)
Ni2 Ni2+ 0.0052(3) 0.0049(3) 0.0037(3) 0.0006(2) 0.000 0.000
P1 P5+ 0.0064(4) 0.0064(5) 0.0047(4) -0.0001(5) 0.0008(6) 0.0004(4)
P2 P5+ 0.0043(6) 0.0054(6) 0.0030(7) 0.000 0.000 -0.0012(6)
O1 O2- 0.0086(16) 0.0100(18) 0.0088(15) 0.0003(14) -0.0017(10) -0.0010(12)
O2 O2- 0.0044(18) 0.0088(15) 0.0035(15) -0.0002(15) -0.0010(12) -0.0029(13)
O3 O2- 0.012(2) 0.0044(17) 0.0049(15) 0.0009(15) -0.0005(12) -0.0010(12)
O4 O2- 0.010(2) 0.0023(18) 0.016(2) -0.0011(13) 0.0015(11) 0.0017(11)
O5 O2- 0.0077(12) 0.0082(12) 0.0096(15) 0.0014(10) -0.0008(13) -0.0003(12)
O6 O2- 0.005(3) 0.013(3) 0.009(2) 0.000 0.000 -0.0007(16)
O7 O2- 0.007(3) 0.007(3) 0.005(2) 0.000 0.000 0.0023(16)
#End of data_261616-ICSD


