data_404538-ICSD
#?2014 by Fachinformationszentrum Karlsruhe, and the U.S. Secretary of 
#Commerce on behalf of the United States.  All rights reserved.
_database_code_ICSD                404538
_audit_creation_date               1997/11/10
_chemical_name_systematic          'Zinc Neodymium Pentaborate'
_chemical_formula_structural       'Nd Zn (B5 O10)'
_chemical_formula_sum              'B5 Nd1 O10 Zn1'
_publ_section_title
;
Synthese und Kristallstruktur von Lanthanoidzinkboraten Ln Zn (B5 
O10) mit Ln = Ce, Nd, Tb
;
loop_
_citation_id
_citation_journal_abbrev
_citation_year
_citation_journal_volume
_citation_page_first
_citation_page_last
_citation_journal_id_ASTM
primary 'Zeitschrift fuer Naturforschung, B: Chemical Sciences'
 1996 51 671 676 ZNBSEN
_publ_author_name                  'Busche, S.;Bluhm, K.'
_cell_length_a                     8.686(2)
_cell_length_b                     7.609(2)
_cell_length_c                     9.460(2)
_cell_angle_alpha                  90.
_cell_angle_beta                   92.99(2)
_cell_angle_gamma                  90.
_cell_volume                       624.38
_cell_formula_units_Z              4
_symmetry_space_group_name_H-M     'P 1 21/n 1'
_symmetry_Int_Tables_number        14
_refine_ls_R_factor_all            .09
loop_
_symmetry_equiv_pos_site_id
_symmetry_equiv_pos_as_xyz
  1	'-x+.5, y+.5, -z+.5'
  2	'-x, -y, -z'
  3	'x+.5, -y+.5, z+.5'
  4	'x, y, z'
loop_
_atom_type_symbol
_atom_type_oxidation_number
B3+	3
Nd3+	3
O2-	-2
Zn2+	2
loop_
_atom_site_label
_atom_site_type_symbol
_atom_site_symmetry_multiplicity
_atom_site_Wyckoff_symbol
_atom_site_fract_x
_atom_site_fract_y
_atom_site_fract_z
_atom_site_occupancy
_atom_site_attached_hydrogens
_atom_site_U_iso_or_equiv
Zn1 Zn2+ 4 e 0.60879(4) 0.41147(5) 0.12295(4) 1. 0 0 
Nd1 Nd3+ 4 e 0.18283(2) 0.18370(2) 0.235590(15) 1. 0 0 
B1 B3+ 4 e 0.9132(4) 0.5797(4) 0.2640(3) 1. 0 0.0063(4) 
B2 B3+ 4 e 0.4831(3) 0.3267(4) 0.3913(3) 1. 0 0.0047(4) 
B3 B3+ 4 e 0.7183(3) 0.5329(4) 0.4464(3) 1. 0 0.0056(4) 
B4 B3+ 4 e 0.8465(4) 0.5971(4) 0.0021(3) 1. 0 0.0060(4) 
B5 B3+ 4 e 0.9310(3) 0.3142(4) 0.4145(3) 1. 0 0.0060(4) 
O1 O2- 4 e 0.0299(2) 0.7144(2) 0.2363(2) 1. 0 0 
O2 O2- 4 e 0.8166(2) 0.5359(3) 0.1340(2) 1. 0 0 
O3 O2- 4 e 0.9896(2) 0.4142(3) 0.3095(2) 1. 0 0 
O4 O2- 4 e 0.8151(2) 0.6530(2) 0.3699(2) 1. 0 0 
O5 O2- 4 e 0.5852(2) 0.4751(3) 0.3541(2) 1. 0 0 
O6 O2- 4 e 0.3270(2) 0.3935(3) 0.4158(2) 1. 0 0 
O7 O2- 4 e 0.5404(2) 0.2240(3) 0.5139(2) 1. 0 0 
O8 O2- 4 e 0.8114(2) 0.3718(3) 0.4904(2) 1. 0 0 
O9 O2- 4 e 0.5009(2) 0.6512(2) 0.0698(2) 1. 0 0 
O10 O2- 4 e 0.2341(2) 0.4558(3) 0.1148(2) 1. 0 0 

loop_
_atom_site_aniso_label
_atom_site_aniso_type_symbol
_atom_site_aniso_U_11
_atom_site_aniso_U_22
_atom_site_aniso_U_33
_atom_site_aniso_U_12
_atom_site_aniso_U_13
_atom_site_aniso_U_23
Zn1 Zn2+ 0.00898(13) 0.00719(12) 0.01251(13) -.00026(11) -.00056(11) 
0.00040(11)
Nd1 Nd3+ 0.00423(4) 0.00393(4) 0.00609(4) 0.00021(6) -.00010(3) 0.00073(5)
O1 O2- 0.0051(7) 0.0053(8) 0.0065(7) -.0012(6) 0.0009(6) -.0002(5)
O2 O2- 0.0049(7) 0.0059(7) 0.0065(7) -.0015(6) 0.0008(6) 0.0004(6)
O3 O2- 0.0074(7) 0.0057(7) 0.0083(7) 0.0013(6) 0.0015(6) 0.0029(6)
O4 O2- 0.0054(7) 0.0031(7) 0.0077(7) -.0008(5) 0.0015(6) 0.0006(5)
O5 O2- 0.0052(7) 0.0063(7) 0.0090(7) -.0020(6) -.0011(6) 0.0003(6)
O6 O2- 0.0041(7) 0.0055(7) 0.0064(7) 0.0012(6) -.0003(6) -.0015(6)
O7 O2- 0.0054(7) 0.0045(7) 0.0063(7) 0.0024(6) 0.0011(6) -.0003(6)
O8 O2- 0.0058(7) 0.0063(7) 0.0064(7) 0.0016(6) 0.0012(6) 0.0020(6)
O9 O2- 0.0040(7) 0.0043(7) 0.0083(7) -.0011(6) -.0011(6) 0.0001(5)
O10 O2- 0.0083(7) 0.0082(8) 0.0062(7) -.0032(7) -.0015(6) -.0027(6)
#End of data_404538-ICSD


