data_280033-ICSD
#?2014 by Fachinformationszentrum Karlsruhe, and the U.S. Secretary of 
#Commerce on behalf of the United States.  All rights reserved.
_database_code_ICSD                280033
_audit_creation_date               2000/07/15
_chemical_name_systematic          'Potassium Tetrabromoaurate(III)'
_chemical_formula_structural       'K (Au Br4)'
_chemical_formula_sum              'Au1 Br4 K1'
_publ_section_title                'Potassium tetrabromoaurate(III)'
loop_
_citation_id
_citation_journal_abbrev
_citation_year
_citation_journal_volume
_citation_page_first
_citation_page_last
_citation_journal_id_ASTM
primary 'Acta Crystallographica, Section C: Crystal Structure Communications'
 1999 55 13 14 ACSCEE
_publ_author_name
;
Omrani, H.;Welter, R.;Vangelisti, R.
;
_cell_length_a                     9.0306(10)
_cell_length_b                     6.6484(10)
_cell_length_c                     12.800(2)
_cell_angle_alpha                  90.
_cell_angle_beta                   96.88(1)
_cell_angle_gamma                  90.
_cell_volume                       762.97
_cell_formula_units_Z              4
_symmetry_space_group_name_H-M     'P 1 21/c 1'
_symmetry_Int_Tables_number        14
_refine_ls_R_factor_all            .09
loop_
_symmetry_equiv_pos_site_id
_symmetry_equiv_pos_as_xyz
  1	'x, -y+.5, z+.5'
  2	'-x, -y, -z'
  3	'-x, y+.5, -z+.5'
  4	'x, y, z'
loop_
_atom_type_symbol
_atom_type_oxidation_number
Au3+	3
Br1-	-1
K1+	1
loop_
_atom_site_label
_atom_site_type_symbol
_atom_site_symmetry_multiplicity
_atom_site_Wyckoff_symbol
_atom_site_fract_x
_atom_site_fract_y
_atom_site_fract_z
_atom_site_occupancy
_atom_site_attached_hydrogens
Au1 Au3+ 2 a 0 0 0 1. 0 
Au2 Au3+ 2 b 0.5 0 0 1. 0 
K1 K1+ 4 e 0.2128(4) 0.4492(6) 0.1813(3) 1. 0 
Br1 Br1- 4 e -.13341(19) 0.2934(2) 0.04766(12) 1. 0 
Br2 Br1- 4 e 0.09492(19) -.0538(3) 0.18234(11) 1. 0 
Br3 Br1- 4 e 0.5056(2) 0.1517(3) 0.17070(13) 1. 0 
Br4 Br1- 4 e 0.6635(2) -.2664(3) 0.07207(13) 1. 0 

loop_
_atom_site_aniso_label
_atom_site_aniso_type_symbol
_atom_site_aniso_U_11
_atom_site_aniso_U_22
_atom_site_aniso_U_33
_atom_site_aniso_U_12
_atom_site_aniso_U_13
_atom_site_aniso_U_23
Au1 Au3+ 0.0299(4) 0.0258(4) 0.0234(3) 0.0000(3) 0.0066(2) 0.0007(3)
Au2 Au3+ 0.0284(4) 0.0286(4) 0.0312(4) 0.0057(4) 0.0067(3) 0.0015(4)
K1 K1+ 0.053(2) 0.046(2) 0.056(2) 0.0028(17) -.0050(17) 0.0021(17)
Br1 Br1- 0.0568(9) 0.0416(8) 0.0418(8) 0.0137(8) 0.0117(7) -.0048(7)
Br2 Br1- 0.0578(10) 0.0456(9) 0.0286(7) 0.0043(7) 0.0017(6) 0.0026(6)
Br3 Br1- 0.0616(11) 0.0764(13) 0.0426(9) 0.0281(10) 0.0039(7) -.0136(9)
Br4 Br1- 0.0624(10) 0.0433(9) 0.0476(9) 0.0238(8) 0.0001(7) 0.0029(7)
#End of data_280033-ICSD


