data_4055-ICSD
#?2014 by Fachinformationszentrum Karlsruhe, and the U.S. Secretary of 
#Commerce on behalf of the United States.  All rights reserved.
_database_code_ICSD                4055
_audit_creation_date               1980/01/01
_audit_update_record               2012/02/01
_chemical_name_systematic          'Calcium Pentafluoroferrate(III)'
_chemical_formula_structural       'Ca (Fe F5)'
_chemical_formula_sum              'Ca1 F5 Fe1'
_publ_section_title
;
Structure cristalline de Ca Fe F5. Classification structurale des 
phases A(II) B F5
;
loop_
_citation_id
_citation_journal_abbrev
_citation_year
_citation_journal_volume
_citation_page_first
_citation_page_last
_citation_journal_id_ASTM
primary 'Revue de Chimie Minerale' 1974 11 652 663 RVCMA8
_publ_author_name                  'von der Muehll, R.;Ravez, J.'
_cell_length_a                     5.500(2)
_cell_length_b                     10.050(3)
_cell_length_c                     7.584(2)
_cell_angle_alpha                  90.
_cell_angle_beta                   110.49(2)
_cell_angle_gamma                  90.
_cell_volume                       392.68
_cell_formula_units_Z              4
_symmetry_space_group_name_H-M     'P 1 21/c 1'
_symmetry_Int_Tables_number        14
_refine_ls_R_factor_all            .14
loop_
_symmetry_equiv_pos_site_id
_symmetry_equiv_pos_as_xyz
  1	'x, -y+.5, z+.5'
  2	'-x, -y, -z'
  3	'-x, y+.5, -z+.5'
  4	'x, y, z'
loop_
_atom_type_symbol
_atom_type_oxidation_number
Ca2+	2
F1-	-1
Fe3+	3
loop_
_atom_site_label
_atom_site_type_symbol
_atom_site_symmetry_multiplicity
_atom_site_Wyckoff_symbol
_atom_site_fract_x
_atom_site_fract_y
_atom_site_fract_z
_atom_site_occupancy
_atom_site_attached_hydrogens
_atom_site_B_iso_or_equiv
Ca1 Ca2+ 4 e 0.527 -.0276 0.2593 1. 0 0.704 
Fe1 Fe3+ 4 e 0.1034 0.2566 0.402 1. 0 0.378 
F1 F1- 4 e 0.3859 0.1153 0.4964 1. 0 0.94 
F2 F1- 4 e 0.3536 0.3848 0.4317 1. 0 1.34 
F3 F1- 4 e 0.1734 0.638 0.294 1. 0 2.05 
F4 F1- 4 e 0.1159 0.897 0.123 1. 0 1.98 
F5 F1- 4 e 0.1508 0.294 0.1618 1. 0 1.2 

#End of data_4055-ICSD


