data_159858-ICSD
#?2014 by Fachinformationszentrum Karlsruhe, and the U.S. Secretary of 
#Commerce on behalf of the United States.  All rights reserved.
_database_code_ICSD                159858
_audit_creation_date               2008/08/01
_chemical_name_systematic          'Trisilver Sulfide Iodide - Gamma'
_chemical_formula_structural       'Ag3 S I'
_chemical_formula_sum              'Ag3 I1 S1'
_publ_section_title
;
Low-temperature phase in superionic conductor Ag3 S Brx I1-x
;
loop_
_citation_id
_citation_journal_abbrev
_citation_year
_citation_journal_volume
_citation_journal_issue
_citation_page_first
_citation_page_last
_citation_journal_id_ASTM
primary 'Journal of the Physical Society of Japan' 2007 76 11 114603-1 114603-4 JUPSAU
_publ_author_name
;
Xiang Lian;Honda, H.;Basar, K.;Siagian, S.;Sakuma, T.;Takahashi, 
H.;Tubuqinbaer;Kawaji, H.;Atake, T.
;
_cell_length_a                     4.869
_cell_length_b                     4.869
_cell_length_c                     4.869
_cell_angle_alpha                  90.
_cell_angle_beta                   90.
_cell_angle_gamma                  90.
_cell_volume                       115.43
_cell_formula_units_Z              1
_symmetry_space_group_name_H-M     'R 3 R'
_symmetry_Int_Tables_number        146
loop_
_symmetry_equiv_pos_site_id
_symmetry_equiv_pos_as_xyz
  1	'z, x, y'
  2	'y, z, x'
  3	'x, y, z'
loop_
_atom_type_symbol
_atom_type_oxidation_number
Ag1+	1
I1-	-1
S2-	-2
loop_
_atom_site_label
_atom_site_type_symbol
_atom_site_symmetry_multiplicity
_atom_site_Wyckoff_symbol
_atom_site_fract_x
_atom_site_fract_y
_atom_site_fract_z
_atom_site_occupancy
_atom_site_attached_hydrogens
_atom_site_B_iso_or_equiv
I1 I1- 1 a 0 0 0 1. 0 0.622 
S1 S2- 1 a 0.530 0.530 0.530 1. 0 1.303 
Ag1 Ag1+ 3 b 0.528 0.386 0.020 1. 0 2.732 

#End of data_159858-ICSD


