data_150870-ICSD
#?2014 by Fachinformationszentrum Karlsruhe, and the U.S. Secretary of 
#Commerce on behalf of the United States.  All rights reserved.
_database_code_ICSD                150870
_audit_creation_date               2006/04/01
_chemical_name_systematic
;
Sodium Chromium Fluoride (5/3/14) - Alpha
;
_chemical_formula_structural       'Na5 Cr3 F14'
_chemical_formula_sum              'Cr3 F14 Na5'
_chemical_name_mineral             Unnamed_Chiolite
_publ_section_title
;
Distorted chiolite crystal structures of alpha-(Na5 M3 F14) (M = Cr, 
Fe, Ga)
;
loop_
_citation_id
_citation_journal_abbrev
_citation_year
_citation_journal_volume
_citation_journal_issue
_citation_page_first
_citation_page_last
_citation_journal_id_ASTM
primary 'Powder Diffraction' 2003 18 2 128 134 PODIE2
_publ_author_name                  'Le Bail, A.;Mercier, A.M.'
_cell_length_a                     10.5096(3)
_cell_length_b                     7.2253(2)
_cell_length_c                     7.2713(2)
_cell_angle_alpha                  90.
_cell_angle_beta                   90.6753(7)
_cell_angle_gamma                  90.
_cell_volume                       552.11
_cell_formula_units_Z              2
_symmetry_space_group_name_H-M     'P 1 21/n 1'
_symmetry_Int_Tables_number        14
_refine_ls_R_factor_all            .039
loop_
_symmetry_equiv_pos_site_id
_symmetry_equiv_pos_as_xyz
  1	'-x+.5, y+.5, -z+.5'
  2	'-x, -y, -z'
  3	'x+.5, -y+.5, z+.5'
  4	'x, y, z'
loop_
_atom_type_symbol
_atom_type_oxidation_number
Cr3+	3
F1-	-1
Na1+	1
loop_
_atom_site_label
_atom_site_type_symbol
_atom_site_symmetry_multiplicity
_atom_site_Wyckoff_symbol
_atom_site_fract_x
_atom_site_fract_y
_atom_site_fract_z
_atom_site_occupancy
_atom_site_attached_hydrogens
_atom_site_B_iso_or_equiv
Na1 Na1+ 4 e 0.2519(5) 0.2047(5) 0.2684(7) 1. 0 1.19(10) 
Na2 Na1+ 4 e 0.2566(5) 0.2692(6) 0.7806(7) 1. 0 2.46(13) 
Na3 Na1+ 2 d 0.5 0 0 1. 0 3.11(14) 
Cr1 Cr3+ 2 a 0 0 0 1. 0 0.49(5) 
Cr2 Cr3+ 2 b 0 0 0.5 1. 0 0.72(7) 
Cr3 Cr3+ 2 c 0.5 0 0.5 1. 0 0.78(7) 
F1 F1- 4 e 0.9657(5) 0.2470(7) 0.9321(8) 1. 0 1.60(13) 
F2 F1- 4 e 0.0000(5) 0.0719(7) 0.2469(9) 1. 0 2.19(14) 
F3 F1- 4 e 0.1758(4) 0.0401(8) 0.9905(7) 1. 0 2.05(13) 
F4 F1- 4 e 0.3851(4) 0.0118(8) 0.6929(7) 1. 0 1.80(15) 
F5 F1- 4 e 0.1095(5) 0.8001(8) 0.4560(8) 1. 0 1.58(15) 
F6 F1- 4 e 0.6271(5) 0.0597(8) 0.6778(7) 1. 0 1.55(15) 
F7 F1- 4 e 0.3654(5) 0.6644(7) 0.9702(8) 1. 0 1.87(17) 

#End of data_150870-ICSD


