data_20906-ICSD
#?2014 by Fachinformationszentrum Karlsruhe, and the U.S. Secretary of 
#Commerce on behalf of the United States.  All rights reserved.
_database_code_ICSD                20906
_audit_creation_date               1985/07/16
_audit_update_record               1998/06/29
_chemical_name_systematic
;
Pentasodium Tetracalcium Tetrakis(phosphate) Fluoride
;
_chemical_formula_structural       'Na5 Ca4 (P O4)4 F'
_chemical_formula_sum              'Ca4 F1 Na5 O16 P4'
_chemical_name_mineral             Nefedovite
_publ_section_title
;
The crystal structure of Nefedovite and its typomorphism
;
loop_
_citation_id
_citation_journal_abbrev
_citation_year
_citation_journal_volume
_citation_page_first
_citation_page_last
_citation_journal_id_ASTM
primary 'Doklady Akademii Nauk SSSR' 1984 278 353 357 DANKAS
_publ_author_name
;
Sebais, M.;Dorokhova, G.I.;Pobedimskaya, E.A.;Khomyakov, A.P.
;
_cell_length_a                     11.644(2)
_cell_length_b                     11.644(2)
_cell_length_c                     5.396(1)
_cell_angle_alpha                  90.
_cell_angle_beta                   90.
_cell_angle_gamma                  90.
_cell_volume                       731.6
_cell_formula_units_Z              2
_symmetry_space_group_name_H-M     'I -4'
_symmetry_Int_Tables_number        82
_refine_ls_R_factor_all            .073
loop_
_symmetry_equiv_pos_site_id
_symmetry_equiv_pos_as_xyz
  1	'-y, x, -z'
  2	'y, -x, -z'
  3	'-x, -y, z'
  4	'x, y, z'
  5	'-y+.5, x+.5, -z+.5'
  6	'y+.5, -x+.5, -z+.5'
  7	'-x+.5, -y+.5, z+.5'
  8	'x+.5, y+.5, z+.5'
loop_
_atom_type_symbol
_atom_type_oxidation_number
Ca2+	2
F1-	-1
Na1+	1
O2-	-2
P5+	5
loop_
_atom_site_label
_atom_site_type_symbol
_atom_site_symmetry_multiplicity
_atom_site_Wyckoff_symbol
_atom_site_fract_x
_atom_site_fract_y
_atom_site_fract_z
_atom_site_occupancy
_atom_site_attached_hydrogens
_atom_site_B_iso_or_equiv
Ca1 Ca2+ 8 g 0.1786(1) 0.1114(1) 0.0181(3) 1. 0 0.38(2) 
P1 P5+ 8 g 0.1045(1) 0.2499(1) 0.4898(4) 1. 0 0.42(3) 
Na1 Na1+ 8 g 0.0943(3) 0.3886(3) -.008(1) 1. 0 1.23(6) 
Na2 Na1+ 2 b 0 0 0.5 1. 0 1.1(1) 
O1 O2- 8 g 0.0385(6) 0.2168(5) 0.256(1) 1. 0 0.8(1) 
O2 O2- 8 g 0.1036(5) 0.3805(5) 0.523(2) 1. 0 1.08(9) 
O3 O2- 8 g 0.2277(5) 0.2079(5) 0.454(1) 1. 0 0.71(8) 
O4 O2- 8 g 0.0498(6) 0.1943(6) 0.721(1) 1. 0 0.86(9) 
F1 F1- 2 a 0 0 0 1. 0 0.9(1) 

#End of data_20906-ICSD


