data_98564-ICSD
#?2014 by Fachinformationszentrum Karlsruhe, and the U.S. Secretary of 
#Commerce on behalf of the United States.  All rights reserved.
_database_code_ICSD                98564
_audit_creation_date               2005/04/01
_audit_update_record               2012/02/01
_chemical_name_systematic
;
Disodium Pentaoxodisilicate - Kappa
;
_chemical_formula_structural       'Na2 (Si2 O5)'
_chemical_formula_sum              'Na2 O5 Si2'
_publ_section_title
;
Hydrothermal synthesis and structural characterization of kappa-(Na2 
Si O5) and Na1.84 K0.16 Si2 O5
;
loop_
_citation_id
_citation_journal_abbrev
_citation_year
_citation_journal_volume
_citation_page_first
_citation_page_last
_citation_journal_id_ASTM
primary 'Solid State Sciences' 2003 5 473 480 SSSCFJ
_publ_author_name
;
Rakic, S.;Kahlenberg, V.;Schmidt, B.C.
;
_cell_length_a                     8.128(1)
_cell_length_b                     4.8322(8)
_cell_length_c                     11.977(3)
_cell_angle_alpha                  90
_cell_angle_beta                   90
_cell_angle_gamma                  90
_cell_volume                       470.41
_cell_formula_units_Z              4
_symmetry_space_group_name_H-M     'P n 21 a'
_symmetry_Int_Tables_number        33
_refine_ls_R_factor_all            .035
loop_
_symmetry_equiv_pos_site_id
_symmetry_equiv_pos_as_xyz
  1	'x+.5, y, -z+.5'
  2	'-x+.5, y+.5, z+.5'
  3	'-x, y+.5, -z'
  4	'x, y, z'
loop_
_atom_type_symbol
_atom_type_oxidation_number
Na1+	1
O2-	-2
Si4+	4
loop_
_atom_site_label
_atom_site_type_symbol
_atom_site_symmetry_multiplicity
_atom_site_Wyckoff_symbol
_atom_site_fract_x
_atom_site_fract_y
_atom_site_fract_z
_atom_site_occupancy
_atom_site_attached_hydrogens
_atom_site_U_iso_or_equiv
Si1 Si4+ 4 a 0.1081(2) 0.1388(3) 0.5256(1) 1. 0 0.0168(3) 
Si2 Si4+ 4 a 0.0528(2) 0.5254(3) 0.9324(1) 1. 0 0.0160(3) 
Na1 Na1+ 4 a -0.0650(2) 0.0727(5) 0.7728(2) 1. 0 0.0264(5) 
Na2 Na1+ 4 a 0.1890(2) 0.5978(5) 0.6911(2) 1. 0 0.0242(5) 
O1 O2- 4 a -0.0273(4) 0.6983(8) 0.0365(3) 1. 0 0.0216(9) 
O2 O2- 4 a -0.0263(4) 0.5879(8) 0.8162(3) 1. 0 0.0204(8) 
O3 O2- 4 a 0.1644(4) 0.0791(9) 0.6490(3) 1. 0 0.0217(8) 
O4 O2- 4 a -0.0553(4) 0.9649(8) 0.4867(3) 1. 0 0.0203(9) 
O5 O2- 4 a 0.2509(4) 0.5837(8) 0.9303(3) 1. 0 0.0205(8) 

loop_
_atom_site_aniso_label
_atom_site_aniso_type_symbol
_atom_site_aniso_U_11
_atom_site_aniso_U_22
_atom_site_aniso_U_33
_atom_site_aniso_U_12
_atom_site_aniso_U_13
_atom_site_aniso_U_23
Si1 Si4+ .0111(6) .0153(8) .0240(7) -.0001(6) .0011(6) .0006(7)
Si2 Si4+ .0119(6) .0153(8) .0209(7) .0000(6) .0005(6) -.0000(6)
Na1 Na1+ .020(1) .027(1) .032(1) .000(1) .0049(8) -.002(1)
Na2 Na1+ .0172(9) .024(1) .031(1) -.001(1) .0038(7) -.001(1)
O1 O2- .016(2) .026(3) .022(2) -.001(1) .004(1) -.000(2)
O2 O2- .013(2) .021(2) .027(2) -.000(2) -.002(1) -.002(2)
O3 O2- .017(2) .022(2) .026(2) .001(2) -.000(1) -.001(2)
O4 O2- .013(2) .020(2) .028(2) .002(1) -.001(2) .001(2)
O5 O2- .011(2) .028(2) .023(2) -.003(2) .003(1) -.001(2)
#End of data_98564-ICSD


