data_65145-ICSD
#?2014 by Fachinformationszentrum Karlsruhe, and the U.S. Secretary of 
#Commerce on behalf of the United States.  All rights reserved.
_database_code_ICSD                65145
_audit_creation_date               1989/12/04
_chemical_name_systematic          'Trisodium Erbium Chloride'
_chemical_formula_structural       'Na3 Er Cl6'
_chemical_formula_sum              'Cl6 Er1 Na3'
_publ_section_title
;
The chlorides Na3 M Cl6 (M= Eu - Lu, Y, Sc): Synthesis, crystal 
structure, and thermal behaviour
;
loop_
_citation_id
_citation_journal_abbrev
_citation_year
_citation_journal_volume
_citation_page_first
_citation_page_last
_citation_journal_id_ASTM
primary 'Zeitschrift fuer Anorganische und Allgemeine Chemie (1950) (DE)'
 1987 554 25 33 ZAACAB
_publ_author_name
;
Meyer, G.;Ax, P.;Schleid, T.;Irmler, M.
;
_cell_length_a                     6.853
_cell_length_b                     7.26
_cell_length_c                     10.134
_cell_angle_alpha                  90.
_cell_angle_beta                   90.8
_cell_angle_gamma                  90.
_cell_volume                       504.15
_cell_formula_units_Z              2
_symmetry_space_group_name_H-M     'P 1 21/n 1'
_symmetry_Int_Tables_number        14
_refine_ls_R_factor_all            .087
loop_
_symmetry_equiv_pos_site_id
_symmetry_equiv_pos_as_xyz
  1	'-x+.5, y+.5, -z+.5'
  2	'-x, -y, -z'
  3	'x+.5, -y+.5, z+.5'
  4	'x, y, z'
loop_
_atom_type_symbol
_atom_type_oxidation_number
Cl1-	-1
Er3+	3
Na1+	1
loop_
_atom_site_label
_atom_site_type_symbol
_atom_site_symmetry_multiplicity
_atom_site_Wyckoff_symbol
_atom_site_fract_x
_atom_site_fract_y
_atom_site_fract_z
_atom_site_occupancy
_atom_site_attached_hydrogens
Na1 Na1+ 2 b 0 0 0.5 1. 0 
Na2 Na1+ 4 e 0.5226(9) -.0754(7) 0.2423(6) 1. 0 
Er1 Er3+ 2 a 0 0 0 1. 0 
Cl1 Cl1- 4 e 0.1381(5) 0.0637(4) 0.2392(3) 1. 0 
Cl2 Cl1- 4 e -.3132(5) 0.1785(4) 0.0641(4) 1. 0 
Cl3 Cl1- 4 e 0.1675(5) 0.3053(4) -.0763(4) 1. 0 

loop_
_atom_site_aniso_label
_atom_site_aniso_type_symbol
_atom_site_aniso_U_11
_atom_site_aniso_U_22
_atom_site_aniso_U_33
_atom_site_aniso_U_12
_atom_site_aniso_U_13
_atom_site_aniso_U_23
Na1 Na1+ 0.0348(29) 0.0266(25) 0.0437(29) -.0026(38) -.0083(26) 0.0022(37)
Na2 Na1+ 0.0515(30) 0.0359(25) 0.0673(31) 0.0088(25) 0.0042(28) -.0019(24)
Er1 Er3+ 0.0180(4) 0.0155(3) 0.0181(3) 0.0009(7) 0.0003(3) -.0023(6)
Cl1 Cl1- 0.0331(18) 0.0315(16) 0.0223(15) -.0010(23) -.0050(14) -.0025(12)
Cl2 Cl1- 0.0319(19) 0.0307(16) 0.0449(19) 0.0142(15) 0.0112(16) 0.0060(15)
Cl3 Cl1- 0.0347(19) 0.0265(16) 0.048(2) 0.0142(15) -.0071(17) -.0114(15)
#End of data_65145-ICSD


