data_188678-ICSD
#?2014 by Fachinformationszentrum Karlsruhe, and the U.S. Secretary of 
#Commerce on behalf of the United States.  All rights reserved.
_database_code_ICSD                188678
_audit_creation_date               2014/02/01
_chemical_name_systematic
;
Potassium Trilithium Heptacalcium Dititanium Dodecasilicate 
Dihydroxide
;
_chemical_formula_structural       'K Li3 Ca7 Ti2 (Si O3)12 (O H)2'
_chemical_formula_sum              'H2 Ca7 K1 Li3 O38 Si12 Ti2'
_chemical_name_mineral             Katayamalite
_publ_section_title
;
Redetermination of katayamalite, K Li3 Ca7 Ti2 (Si O3)12 (O H)2
;
loop_
_citation_id
_citation_journal_abbrev
_citation_year
_citation_journal_volume
_citation_journal_issue
_citation_page_first
_citation_page_last
_citation_journal_id_ASTM
primary 'Acta Crystallographica, Section E. Structure Reports Online'
 2013 69 7 i41 i41 ACSEBH
_publ_author_name
;
Marcelo B. Andrade;Donald Doell;Robert T. Downs;Hexiong Yang
;
_cell_length_a                     16.9093(10)
_cell_length_b                     9.7287(5)
_cell_length_c                     20.9019(12)
_cell_angle_alpha                  90.00
_cell_angle_beta                   112.396(3)
_cell_angle_gamma                  90.00
_cell_volume                       3179.12
_cell_formula_units_Z              4
_symmetry_space_group_name_H-M     'C 1 2/c 1'
_symmetry_Int_Tables_number        15
_refine_ls_R_factor_all            .0348
loop_
_symmetry_equiv_pos_site_id
_symmetry_equiv_pos_as_xyz
  1	'x, -y, z+.5'
  2	'-x, -y, -z'
  3	'-x, y, -z+.5'
  4	'x, y, z'
  5	'x+.5, -y+.5, z+.5'
  6	'-x+.5, -y+.5, -z'
  7	'-x+.5, y+.5, -z+.5'
  8	'x+.5, y+.5, z'
loop_
_atom_type_symbol
_atom_type_oxidation_number
Ca2+	2
H1+	1
K1+	1
Li1+	1
O2-	-2
Si4+	4
Ti4+	4
loop_
_atom_site_label
_atom_site_type_symbol
_atom_site_symmetry_multiplicity
_atom_site_Wyckoff_symbol
_atom_site_fract_x
_atom_site_fract_y
_atom_site_fract_z
_atom_site_occupancy
_atom_site_attached_hydrogens
_atom_site_U_iso_or_equiv
K1 K1+ 4 e 0.0000 0.07120(12) 0.2500 1 0 0.0361(3) 
Li1 Li1+ 4 e 0.5000 0.0835(7) 0.2500 1 0 0.0167(15) 
Li2 Li1+ 8 f 0.2458(3) 0.3180(5) 0.2486(3) 1 0 0.0185(11) 
Ca1 Ca2+ 8 f 0.22009(3) -0.07260(5) 0.51311(3) 1 0 0.01101(12) 
Ca2 Ca2+ 8 f 0.14530(3) 0.28347(5) 0.50710(3) 1 0 0.01108(13) 
Ca3 Ca2+ 8 f 0.07248(3) 0.63859(5) 0.50005(3) 1 0 0.01062(12) 
Ca4 Ca2+ 4 a 0.0000 0.0000 0.5000 1 0 0.01050(17) 
Ti1 Ti4+ 8 f 0.33450(3) 0.07041(4) 0.25164(3) 1 0 0.00591(11) 
Si1 Si4+ 8 f 0.61419(4) 0.26505(7) 0.36044(4) 1 0 0.00846(16) 
Si2 Si4+ 8 f 0.43082(4) 0.32346(7) 0.35974(4) 1 0 0.00856(16) 
Si3 Si4+ 8 f 0.36872(4) 0.63501(7) 0.35927(4) 1 0 0.00838(16) 
Si4 Si4+ 8 f 0.49109(4) 0.88012(7) 0.36047(4) 1 0 0.00828(16) 
Si5 Si4+ 8 f 0.67395(4) 0.81556(7) 0.35909(4) 1 0 0.00837(16) 
Si6 Si4+ 8 f 0.73864(4) 0.50791(7) 0.36208(4) 1 0 0.00839(16) 
O1 O2- 8 f 0.65854(12) 0.40272(18) 0.34511(11) 1 0 0.0148(4) 
O2 O2- 8 f 0.65931(12) 0.22314(18) 0.44096(11) 1 0 0.0123(4) 
O3 O2- 8 f 0.61303(12) 0.14415(18) 0.30807(11) 1 0 0.0122(4) 
O4 O2- 8 f 0.51486(12) 0.31007(19) 0.34026(11) 1 0 0.0139(4) 
O5 O2- 8 f 0.35276(11) 0.23886(18) 0.30523(11) 1 0 0.0118(4) 
O6 O2- 8 f 0.45262(12) 0.28303(19) 0.43917(11) 1 0 0.0143(4) 
O7 O2- 8 f 0.40985(12) 0.48821(18) 0.35090(12) 1 0 0.0163(5) 
O8 O2- 8 f 0.27342(12) 0.65293(18) 0.30411(11) 1 0 0.0133(4) 
O9 O2- 8 f 0.37854(12) 0.65030(19) 0.43848(11) 1 0 0.0139(4) 
O10 O2- 8 f 0.42704(12) 0.74837(18) 0.34065(11) 1 0 0.0139(4) 
O11 O2- 8 f 0.52072(12) 0.92080(18) 0.44086(11) 1 0 0.0124(4) 
O12 O2- 8 f 0.44828(11) 0.00452(18) 0.30824(11) 1 0 0.0117(4) 
O13 O2- 8 f 0.57262(11) 0.82069(19) 0.34535(11) 1 0 0.0151(4) 
O14 O2- 8 f 0.72871(12) 0.85392(18) 0.43847(11) 1 0 0.0136(4) 
O15 O2- 8 f 0.69498(12) 0.90701(18) 0.30395(11) 1 0 0.0120(4) 
O16 O2- 8 f 0.69232(13) 0.65696(18) 0.34465(11) 1 0 0.0153(4) 
O17 O2- 8 f 0.78572(12) 0.47659(18) 0.30994(11) 1 0 0.0117(4) 
O18 O2- 8 f 0.80132(12) 0.49800(19) 0.44276(11) 1 0 0.0127(4) 
O19 O2- 8 f 0.10128(13) 0.0692(2) 0.45750(11) 1 0 0.0132(4) 
H1 H1+ 8 f 0.097(2) 0.074(4) 0.4238(11) 1 0 0.016 

loop_
_atom_site_aniso_label
_atom_site_aniso_type_symbol
_atom_site_aniso_U_11
_atom_site_aniso_U_22
_atom_site_aniso_U_33
_atom_site_aniso_U_12
_atom_site_aniso_U_13
_atom_site_aniso_U_23
K1 K1+ 0.0352(6) 0.0342(6) 0.0410(8) 0.000 0.0170(6) 0.000
Li1 Li1+ 0.006(3) 0.027(4) 0.016(4) 0.000 0.004(3) 0.000
Li2 Li1+ 0.016(2) 0.015(2) 0.023(3) 0.0026(18) 0.006(2) -0.002(2)
Ca1 Ca2+ 0.0084(2) 0.0101(2) 0.0156(4) 0.00000(18) 0.0057(2) -0.0002(2)
Ca2 Ca2+ 0.0081(2) 0.0104(2) 0.0155(4) 0.00035(17) 0.0053(2) 0.0002(2)
Ca3 Ca2+ 0.0079(2) 0.0107(2) 0.0142(4) -0.00007(17) 0.0054(2) 0.0002(2)
Ca4 Ca2+ 0.0072(3) 0.0101(3) 0.0142(5) 0.0000(2) 0.0042(3) -0.0008(3)
Ti1 Ti4+ 0.00370(18) 0.00629(18) 0.0081(3) 0.00022(15) 0.00263(19) 
0.00032(17)
Si1 Si4+ 0.0058(3) 0.0092(3) 0.0110(5) -0.0005(2) 0.0040(3) -0.0009(3)
Si2 Si4+ 0.0056(3) 0.0091(3) 0.0107(5) 0.0001(2) 0.0029(3) -0.0008(3)
Si3 Si4+ 0.0052(3) 0.0086(3) 0.0108(5) -0.0002(2) 0.0026(3) 0.0000(3)
Si4 Si4+ 0.0049(3) 0.0096(3) 0.0101(5) -0.0001(2) 0.0027(3) 0.0009(3)
Si5 Si4+ 0.0065(3) 0.0085(3) 0.0112(5) 0.0005(2) 0.0046(3) 0.0006(3)
Si6 Si4+ 0.0068(3) 0.0084(3) 0.0112(5) -0.0003(2) 0.0047(3) -0.0002(3)
O1 O2- 0.0124(9) 0.0130(9) 0.0202(13) -0.0047(7) 0.0076(9) 0.0007(8)
O2 O2- 0.0107(9) 0.0143(9) 0.0123(12) 0.0003(7) 0.0052(9) -0.0006(8)
O3 O2- 0.0096(8) 0.0130(8) 0.0155(12) -0.0004(7) 0.0065(9) -0.0036(8)
O4 O2- 0.0069(8) 0.0185(9) 0.0176(12) 0.0024(7) 0.0060(9) 0.0004(8)
O5 O2- 0.0076(8) 0.0130(8) 0.0129(12) -0.0005(7) 0.0022(8) -0.0018(8)
O6 O2- 0.0125(9) 0.0163(9) 0.0144(13) -0.0010(7) 0.0052(9) -0.0003(8)
O7 O2- 0.0134(9) 0.0088(8) 0.0274(14) 0.0025(7) 0.0085(10) -0.0007(8)
O8 O2- 0.0063(8) 0.0139(9) 0.0174(13) -0.0013(7) 0.0021(9) 0.0010(8)
O9 O2- 0.0119(9) 0.0163(9) 0.0132(13) -0.0013(7) 0.0045(9) 0.0000(8)
O10 O2- 0.0099(9) 0.0154(9) 0.0177(12) -0.0037(7) 0.0067(9) 0.0017(8)
O11 O2- 0.0112(9) 0.0134(8) 0.0130(12) -0.0006(7) 0.0050(9) -0.0009(8)
O12 O2- 0.0068(8) 0.0133(9) 0.0149(12) 0.0006(7) 0.0042(8) 0.0023(8)
O13 O2- 0.0068(8) 0.0172(9) 0.0233(13) 0.0018(7) 0.0081(9) 0.0004(8)
O14 O2- 0.0128(9) 0.0143(9) 0.0133(12) 0.0000(7) 0.0045(9) -0.0004(8)
O15 O2- 0.0128(9) 0.0109(8) 0.0144(12) 0.0019(7) 0.0074(9) 0.0030(7)
O16 O2- 0.0183(10) 0.0103(9) 0.0207(13) 0.0038(7) 0.0110(10) 0.0005(8)
O17 O2- 0.0124(9) 0.0121(8) 0.0146(12) 0.0006(7) 0.0092(9) 0.0000(7)
O18 O2- 0.0114(9) 0.0155(9) 0.0107(12) 0.0008(7) 0.0038(9) -0.0001(8)
O19 O2- 0.0143(9) 0.0152(9) 0.0140(15) -0.0001(7) 0.0059(10) -0.0008(9)
#End of data_188678-ICSD


