data_39565-ICSD
#?2014 by Fachinformationszentrum Karlsruhe, and the U.S. Secretary of 
#Commerce on behalf of the United States.  All rights reserved.
_database_code_ICSD                39565
_audit_creation_date               1993/08/22
_audit_update_record               2010/02/01
_chemical_name_systematic
;
Titanium(II) Bis(tetrachloroaluminate)
;
_chemical_formula_structural       'Ti (Al Cl4)2'
_chemical_formula_sum              'Al2 Cl8 Ti1'
_publ_section_title
;
Crystal structure of titanium(II) chloroaluminates Ti (Al Cl4)2 and 
refinement of Al Cl3 crystal structure.
;
loop_
_citation_id
_citation_journal_abbrev
_citation_year
_citation_journal_volume
_citation_page_first
_citation_page_last
_citation_journal_id_ASTM
primary 'Zhurnal Neorganicheskoi Khimii' 1992 37 266 272 ZNOKAQ
2 'Russian Journal of Inorganic Chemistry' 1992 37 121 124 RJICAQ
_publ_author_name                  'Troyanov, S.I.'
_cell_length_a                     12.987(3)
_cell_length_b                     7.708(2)
_cell_length_c                     11.772(3)
_cell_angle_alpha                  90.
_cell_angle_beta                   92.58(1)
_cell_angle_gamma                  90.
_cell_volume                       1177.23
_cell_formula_units_Z              4
_symmetry_space_group_name_H-M     'I 1 2/c 1'
_symmetry_Int_Tables_number        15
_refine_ls_R_factor_all            .029
loop_
_symmetry_equiv_pos_site_id
_symmetry_equiv_pos_as_xyz
  1	'-x, y, -z+.5'
  2	'-x, -y, -z'
  3	'x, -y, z+.5'
  4	'x, y, z'
  5	'-x+.5, y+.5, -z'
  6	'-x+.5, -y+.5, -z+.5'
  7	'x+.5, -y+.5, z'
  8	'x+.5, y+.5, z+.5'
loop_
_atom_type_symbol
_atom_type_oxidation_number
Al3+	3
Cl1-	-1
Ti2+	2
loop_
_atom_site_label
_atom_site_type_symbol
_atom_site_symmetry_multiplicity
_atom_site_Wyckoff_symbol
_atom_site_fract_x
_atom_site_fract_y
_atom_site_fract_z
_atom_site_occupancy
_atom_site_attached_hydrogens
_atom_site_B_iso_or_equiv
Ti1 Ti2+ 4 e 0 0.0088(1) 0.25 1. 0 2.21(1) 
Al1 Al3+ 8 f 0.09160(7) 0.2534(1) 0.55502(7) 1. 0 2.27(1) 
Cl1 Cl1- 8 f -.06337(5) 0.2326(1) 0.61386(6) 1. 0 2.76(1) 
Cl2 Cl1- 8 f 0.15784(6) 0.0190(1) 0.62831(6) 1. 0 2.89(1) 
Cl3 Cl1- 8 f 0.08936(6) 0.2463(1) 0.37148(6) 1. 0 2.79(1) 
Cl4 Cl1- 8 f 0.16488(7) 0.4788(1) 0.61276(8) 1. 0 3.69(2) 

#End of data_39565-ICSD


