data_26807-ICSD
#?2014 by Fachinformationszentrum Karlsruhe, and the U.S. Secretary of 
#Commerce on behalf of the United States.  All rights reserved.
_database_code_ICSD                26807
_audit_creation_date               1980/01/01
_audit_update_record               2011/02/01
_chemical_name_systematic          'Dibismuth Tetraaluminate'
_chemical_formula_structural       'Bi2 (Al4 O9)'
_chemical_formula_sum              'Al4 Bi2 O9'
_publ_section_title
;
The crystal structure of Bi2 Mn4 O10, Bi2 Al4 O9 and Bi2 Fe4 O9
;
loop_
_citation_id
_citation_journal_abbrev
_citation_year
_citation_journal_volume
_citation_page_first
_citation_page_last
_citation_journal_id_ASTM
primary
;
Zeitschrift fuer Kristallographie, Kristallgeometrie, Kristallphysik, 
Kristallchemie (-144,1977)
;
 1968 127 173 187 ZEKGAX
_publ_author_name                  'Niizeki, N.;Wachi, M.'
_cell_length_a                     7.712(5)
_cell_length_b                     8.112(5)
_cell_length_c                     5.708(5)
_cell_angle_alpha                  90.
_cell_angle_beta                   90.
_cell_angle_gamma                  90.
_cell_volume                       357.09
_cell_formula_units_Z              2
_symmetry_space_group_name_H-M     'P b a m'
_symmetry_Int_Tables_number        55
_refine_ls_R_factor_all            .12
loop_
_symmetry_equiv_pos_site_id
_symmetry_equiv_pos_as_xyz
  1	'x+.5, -y+.5, z'
  2	'-x+.5, y+.5, z'
  3	'x, y, -z'
  4	'-x, -y, -z'
  5	'-x+.5, y+.5, -z'
  6	'x+.5, -y+.5, -z'
  7	'-x, -y, z'
  8	'x, y, z'
loop_
_atom_type_symbol
_atom_type_oxidation_number
Al3+	3
Bi3+	3
O2-	-2
loop_
_atom_site_label
_atom_site_type_symbol
_atom_site_symmetry_multiplicity
_atom_site_Wyckoff_symbol
_atom_site_fract_x
_atom_site_fract_y
_atom_site_fract_z
_atom_site_occupancy
_atom_site_attached_hydrogens
_atom_site_B_iso_or_equiv
Bi1 Bi3+ 4 g 0.1704(4) 0.1668(3) 0 1. 0 0.49 
Al1 Al3+ 4 f 0.5 0 0.257(5) 1. 0 0.7 
Al2 Al3+ 4 h 0.347(3) 0.339(3) 0.5 1. 0 0.8 
O1 O2- 2 b 0 0 0.5 1. 0 1. 
O2 O2- 8 i 0.380(6) 0.201(5) 0.251(7) 1. 0 1.1 
O3 O2- 4 h 0.140(7) 0.433(7) 0.5 1. 0 1. 
O4 O2- 4 g 0.143(8) 0.426(7) 0 1. 0 1.1 

#End of data_26807-ICSD


