data_51505-ICSD
#?2014 by Fachinformationszentrum Karlsruhe, and the U.S. Secretary of 
#Commerce on behalf of the United States.  All rights reserved.
_database_code_ICSD                51505
_audit_creation_date               2003/04/01
_chemical_name_systematic          'Silver Hexafluorostannate'
_chemical_formula_structural       'Ag (Sn F6)'
_chemical_formula_sum              'Ag1 F6 Sn1'
_publ_section_title
;
Synthese und Kristallstruktur von Silber(II)-Fluoriden Ag M(IV) F6 
(M(IV) = Sn, Ti, Pb, Pd, Pt, Rh)
;
loop_
_citation_id
_citation_journal_abbrev
_citation_year
_citation_journal_volume
_citation_page_first
_citation_page_last
_citation_journal_id_ASTM
primary 'Zeitschrift fuer Anorganische und Allgemeine Chemie (1950) (DE)'
 2001 627 445 452 ZAACAB
_publ_author_name                  'Fischer, R.;Mueller, B.G.'
_cell_length_a                     5.204(1)
_cell_length_b                     5.253(1)
_cell_length_c                     5.632(1)
_cell_angle_alpha                  115.67(1)
_cell_angle_beta                   89.30(1)
_cell_angle_gamma                  118.78(1)
_cell_volume                       117.81
_cell_formula_units_Z              1
_symmetry_space_group_name_H-M     'P -1'
_symmetry_Int_Tables_number        2
_refine_ls_R_factor_all            .057
loop_
_symmetry_equiv_pos_site_id
_symmetry_equiv_pos_as_xyz
  1	'-x, -y, -z'
  2	'x, y, z'
loop_
_atom_type_symbol
_atom_type_oxidation_number
Ag2+	2
F1-	-1
Sn4+	4
loop_
_atom_site_label
_atom_site_type_symbol
_atom_site_symmetry_multiplicity
_atom_site_Wyckoff_symbol
_atom_site_fract_x
_atom_site_fract_y
_atom_site_fract_z
_atom_site_occupancy
_atom_site_attached_hydrogens
_atom_site_U_iso_or_equiv
Ag1 Ag2+ 1 a 0.0 0.0 0.0 1. 0 0.0161(1) 
Sn1 Sn4+ 1 f 0.5 0.0 0.5 1. 0 0.0158(1) 
F1 F1- 2 i 0.2508(7) 0.8537(8) 0.7367(7) 1. 0 0.0269(6) 
F2 F1- 2 i 0.8644(7) 0.1243(9) 0.7376(6) 1. 0 0.0275(6) 
F3 F1- 2 i 0.5758(8) 0.4399(8) 0.7232(7) 1. 0 0.0298(7) 

loop_
_atom_site_aniso_label
_atom_site_aniso_type_symbol
_atom_site_aniso_U_11
_atom_site_aniso_U_22
_atom_site_aniso_U_33
_atom_site_aniso_U_12
_atom_site_aniso_U_13
_atom_site_aniso_U_23
Ag1 Ag2+ 0.0162(2) 0.0195(2) 0.0137(2) 0.0099(1) 0.0040(1) 0.0083(1)
Sn1 Sn4+ 0.0163(2) 0.0185(2) 0.0134(1) 0.0098(1) 0.0041(1) 0.0078(1)
F1 F1- 0.030(1) 0.035(1) 0.027(1) 0.020(1) 0.016(1) 0.021(1)
F2 F1- 0.024(1) 0.037(2) 0.026(1) 0.015(1) 0.003(1) 0.019(1)
F3 F1- 0.031(1) 0.020(1) 0.030(1) 0.013(1) 0.005(1) 0.006(1)
#End of data_51505-ICSD


