data_250186-ICSD
#?2014 by Fachinformationszentrum Karlsruhe, and the U.S. Secretary of 
#Commerce on behalf of the United States.  All rights reserved.
_database_code_ICSD                250186
_audit_creation_date               2005/04/01
_chemical_name_systematic
;
Hexaaquamagnesium Bis(dihydrogenphosphate(I))
;
_chemical_formula_structural       '(Mg (H2 O)6) (H2 P O2)2'
_chemical_formula_sum              'H16 Mg1 O10 P2'
_publ_section_title
;
The synthesis and crystal structure of two polymorphs of 
hexaaquamagnesium(II) hypophosphite
;
loop_
_citation_id
_citation_journal_abbrev
_citation_year
_citation_journal_volume
_citation_page_first
_citation_page_last
_citation_journal_id_ASTM
primary 'Zhurnal Strukturnoi Khimii (Issue-No. from 1981)'
 2004 45 296 301 ZSTKAI
_publ_author_name
;
Kuratieva, N.V.;Naumova, M.I.;Naumov, D.Yu.;Podberezskaya, N.V.
;
_cell_length_a                     10.3501(7)
_cell_length_b                     10.3501(7)
_cell_length_c                     20.4296(11)
_cell_angle_alpha                  90
_cell_angle_beta                   90
_cell_angle_gamma                  90
_cell_volume                       2188.51
_cell_formula_units_Z              8
_symmetry_space_group_name_H-M     'I 41/a c d Z'
_symmetry_Int_Tables_number        142
_refine_ls_R_factor_all            .0294
loop_
_symmetry_equiv_pos_site_id
_symmetry_equiv_pos_as_xyz
  1	'y+.25, x+.75, -z+.75'
  2	'-y+.75, x+.75, -z+.25'
  3	'x, y+.5, -z'
  4	'-x, y+.5, -z+.5'
  5	'-y+.75, -x+.25, z+.25'
  6	'y+.25, -x+.25, z+.75'
  7	'-x, -y+.5, z'
  8	'x, -y+.5, z+.5'
  9	'y+.25, -x+.75, -z+.25'
 10	'-y+.75, -x+.75, -z+.75'
 11	'x, -y, -z+.5'
 12	'-x, -y, -z'
 13	'-y+.75, x+.25, z+.75'
 14	'y+.25, x+.25, z+.25'
 15	'-x, y, z+.5'
 16	'x, y, z'
 17	'y+.75, x+.25, -z+.25'
 18	'-y+.25, x+.25, -z+.75'
 19	'x+.5, y, -z+.5'
 20	'-x+.5, y, -z'
 21	'-y+.25, -x+.75, z+.75'
 22	'y+.75, -x+.75, z+.25'
 23	'-x+.5, -y, z+.5'
 24	'x+.5, -y, z'
 25	'y+.75, -x+.25, -z+.75'
 26	'-y+.25, -x+.25, -z+.25'
 27	'x+.5, -y+.5, -z'
 28	'-x+.5, -y+.5, -z+.5'
 29	'-y+.25, x+.75, z+.25'
 30	'y+.75, x+.75, z+.75'
 31	'-x+.5, y+.5, z'
 32	'x+.5, y+.5, z+.5'
loop_
_atom_type_symbol
_atom_type_oxidation_number
H1+	1
Mg2+	2
O2-	-2
P1+	1
loop_
_atom_site_label
_atom_site_type_symbol
_atom_site_symmetry_multiplicity
_atom_site_Wyckoff_symbol
_atom_site_fract_x
_atom_site_fract_y
_atom_site_fract_z
_atom_site_occupancy
_atom_site_attached_hydrogens
_atom_site_U_iso_or_equiv
Mg1 Mg2+ 8 b 0 0.25 0.125 1. 0 0.0298(3) 
P1 P1+ 16 e 0.24063(7) 0 0.25 1. 0 0.0315(2) 
O1 O2- 32 g 0.16307(14) 0.08684(14) 0.29448(6) 1. 0 0.0351(4) 
H1 H1+ 32 g 0.320(2) -0.068(2) 0.2846(8) 1. 0 0.039(5) 
O2 O2- 16 d 0 0.25 0.22626(11) 1. 0 0.0456(5) 
O3 O2- 32 g 0.00232(16) 0.05137(15) 0.12343(10) 1. 0 0.0457(4) 
H2 H1+ 32 g 0.039(2) 0.208(3) 0.2498(12) 1. 0 0.038(6) 
H3 H1+ 32 g 0.043(3) 0.000(3) 0.1429(13) 1. 0 0.065(9) 
H4 H1+ 32 g -0.045(3) 0.004(3) 0.1036(12) 1. 0 0.057(8) 

loop_
_atom_site_aniso_label
_atom_site_aniso_type_symbol
_atom_site_aniso_U_11
_atom_site_aniso_U_22
_atom_site_aniso_U_33
_atom_site_aniso_U_12
_atom_site_aniso_U_13
_atom_site_aniso_U_23
Mg1 Mg2+ 0.0291(4) 0.0291(4) 0.0311(6) -0.0021(4) 0 0
P1 P1+ 0.0264(5) 0.0344(6) 0.0337(4) 0 0 -0.0071(2)
O1 O2- 0.0347(9) 0.0353(9) 0.0353(7) 0.0004(5) 0.0020(6) -0.0084(6)
O2 O2- 0.049(2) 0.056(3) 0.0317(9) 0.0229(10) 0 0
O3 O2- 0.0513(9) 0.0296(7) 0.0561(9) -0.0038(6) -0.0267(7) 0.0000(15)
#End of data_250186-ICSD


