data_172996-ICSD
#?2014 by Fachinformationszentrum Karlsruhe, and the U.S. Secretary of 
#Commerce on behalf of the United States.  All rights reserved.
_database_code_ICSD                172996
_audit_creation_date               2008/02/01
_audit_update_record               2013/08/01
_chemical_name_systematic
;
Pentacalcium Tris(arsenate(V)) Fluoride
;
_chemical_formula_structural       'Ca5 (As O4)3 F'
_chemical_formula_sum              'As3 Ca5 F1 O12'
_chemical_name_mineral             Svabite
_publ_section_title                'Triclinic apatites'
loop_
_citation_id
_citation_journal_abbrev
_citation_year
_citation_journal_volume
_citation_journal_issue
_citation_page_first
_citation_page_last
_citation_journal_id_ASTM
primary 'Acta Crystallographica, Section B: Structural Science'
 2007 63 2 251 256 ASBSDK
_publ_author_name
;
Baikie, T.;Mercier, P.H.J.;Elcombe, M.M.;Kim, J.Y.;le Page, 
Y.;Mitchell, L.D.;White, T.J.;Whitfield, P.S.
;
_cell_length_a                     9.6841(5)
_cell_length_b                     9.6906(5)
_cell_length_c                     6.9815(3)
_cell_angle_alpha                  90.623(3)
_cell_angle_beta                   88.869(3)
_cell_angle_gamma                  120.371(3)
_cell_volume                       565.16
_cell_formula_units_Z              2
_symmetry_space_group_name_H-M     'P -1'
_symmetry_Int_Tables_number        2
loop_
_symmetry_equiv_pos_site_id
_symmetry_equiv_pos_as_xyz
  1	'-x, -y, -z'
  2	'x, y, z'
loop_
_atom_type_symbol
_atom_type_oxidation_number
As5+	5
Ca2+	2
F1-	-1
O2-	-2
loop_
_atom_site_label
_atom_site_type_symbol
_atom_site_symmetry_multiplicity
_atom_site_Wyckoff_symbol
_atom_site_fract_x
_atom_site_fract_y
_atom_site_fract_z
_atom_site_occupancy
_atom_site_attached_hydrogens
Ca1 Ca2+ 2 i 0.234(2) 0.990(2) 0.249(3) 1 0 
Ca2 Ca2+ 2 i 0.005(2) 0.251(2) 0.262(3) 1 0 
Ca3 Ca2+ 2 i 0.770(2) 0.767(2) 0.245(2) 1 0 
Ca4 Ca2+ 2 i 0.345(2) 0.653(2) 0.003(2) 1 0 
Ca5 Ca2+ 2 i 0.343(2) 0.681(2) 0.499(2) 1 0 
As1 As5+ 2 i 0.3980(10) 0.3740(10) 0.261(2) 1 0 
As2 As5+ 2 i 0.6280(10) 0.0240(10) 0.239(2) 1 0 
As3 As5+ 2 i 0.975(2) 0.6060(10) 0.243(2) 1 0 
O1 O2- 2 i 0.311(2) 0.480(2) 0.275(2) 1 0 
O2 O2- 2 i 0.510(2) 0.827(2) 0.243(2) 1 0 
O3 O2- 2 i 0.173(2) 0.681(2) 0.226(2) 1 0 
O4 O2- 2 i 0.604(2) 0.475(2) 0.277(2) 1 0 
O5 O2- 2 i 0.530(2) 0.124(2) 0.220(2) 1 0 
O6 O2- 2 i 0.878(2) 0.407(2) 0.274(2) 1 0 
O7 O2- 2 i 0.351(2) 0.263(2) 0.063(2) 1 0 
O8 O2- 2 i 0.774(2) 0.079(2) 0.072(2) 1 0 
O9 O2- 2 i 0.905(2) 0.639(2) 0.040(2) 1 0 
O10 O2- 2 i 0.669(2) 0.766(2) 0.552(2) 1 0 
O11 O2- 2 i 0.274(2) 0.907(2) 0.555(2) 1 0 
O12 O2- 2 i 0.068(2) 0.301(2) 0.584(2) 1 0 
F1 F1- 2 i 0.007(2) 0.007(2) 0.245(2) 1 0 

#End of data_172996-ICSD


