data_200543-ICSD
#?2014 by Fachinformationszentrum Karlsruhe, and the U.S. Secretary of 
#Commerce on behalf of the United States.  All rights reserved.
_database_code_ICSD                200543
_audit_creation_date               1980/01/01
_audit_update_record               2012/02/01
_chemical_name_systematic
;
Potassium Praseodymium Bis(sulfate(VI))
;
_chemical_formula_structural       'K Pr (S O4)2'
_chemical_formula_sum              'K1 O8 Pr1 S2'
_publ_section_title
;
Crystal structure of the anhydrous double sulfate K Pr (S O4)2
;
loop_
_citation_id
_citation_journal_abbrev
_citation_year
_citation_journal_volume
_citation_page_first
_citation_page_last
_citation_journal_id_ASTM
primary Kristallografiya 1978 23 840 843 KRISAJ
2 'Soviet Physics, Crystallography (= Kristallografiya)'
 1978 23 473 475 SPHCA6
_publ_author_name
;
Degtyarev, P.A.;Pokrovskii, A.N.;Kovba, L.M.
;
_cell_length_a                     6.94(2)
_cell_length_b                     5.39(2)
_cell_length_c                     8.47(1)
_cell_angle_alpha                  91.27(3)
_cell_angle_beta                   93.51(3)
_cell_angle_gamma                  88.33(3)
_cell_volume                       316.04
_cell_formula_units_Z              2
_symmetry_space_group_name_H-M     'P -1'
_symmetry_Int_Tables_number        2
_refine_ls_R_factor_all            .048
loop_
_symmetry_equiv_pos_site_id
_symmetry_equiv_pos_as_xyz
  1	'-x, -y, -z'
  2	'x, y, z'
loop_
_atom_type_symbol
_atom_type_oxidation_number
K1+	1
O2-	-2
Pr3+	3
S6+	6
loop_
_atom_site_label
_atom_site_type_symbol
_atom_site_symmetry_multiplicity
_atom_site_Wyckoff_symbol
_atom_site_fract_x
_atom_site_fract_y
_atom_site_fract_z
_atom_site_occupancy
_atom_site_attached_hydrogens
Pr1 Pr3+ 2 i 0.8185 0.1894(1) 0.2039 1. 0 
K1 K1+ 2 i 0.6548(4) 0.2474(5) 0.6867(4) 1. 0 
S1 S6+ 2 i 0.1753(4) 0.2581(5) 0.5686(4) 1. 0 
S2 S6+ 2 i 0.3014(4) 0.2785(6) 0.0466(4) 1. 0 
O1 O2- 2 i 0.042(1) 0.230(2) 0.696(1) 1. 0 
O2 O2- 2 i 0.227(1) 0.533(2) 0.016(1) 1. 0 
O3 O2- 2 i 0.308(1) 0.037(2) 0.579(1) 1. 0 
O4 O2- 2 i 0.077(1) 0.271(2) 0.412(1) 1. 0 
O5 O2- 2 i 0.140(1) 0.123(2) 0.089(1) 1. 0 
O6 O2- 2 i 0.286(1) 0.479(2) 0.602(1) 1. 0 
O7 O2- 2 i 0.378(1) 0.168(2) 0.905(1) 1. 0 
O8 O2- 2 i 0.449(1) 0.286(2) 0.177(1) 1. 0 

#End of data_200543-ICSD


