data_65178-ICSD
#?2014 by Fachinformationszentrum Karlsruhe, and the U.S. Secretary of 
#Commerce on behalf of the United States.  All rights reserved.
_database_code_ICSD                65178
_audit_creation_date               1989/12/04
_chemical_name_systematic          'Trisilver(II) Dihafnium Fluoride'
_chemical_formula_structural       'Ag3 Hf2 F14'
_chemical_formula_sum              'Ag3 F14 Hf2'
_publ_section_title
;
Neue ternaere Silber(II)-fluoride: Ag3 M2 F14 (M = Zr, Hf)
;
loop_
_citation_id
_citation_journal_abbrev
_citation_year
_citation_journal_volume
_citation_page_first
_citation_page_last
_citation_journal_id_ASTM
primary 'Zeitschrift fuer Anorganische und Allgemeine Chemie (1950) (DE)'
 1987 553 196 204 ZAACAB
_publ_author_name                  'Mueller, B.G.'
_cell_length_a                     9.249
_cell_length_b                     6.686
_cell_length_c                     9.073
_cell_angle_alpha                  90.
_cell_angle_beta                   90.3
_cell_angle_gamma                  90.
_cell_volume                       561.06
_cell_formula_units_Z              2
_symmetry_space_group_name_H-M     'C 1 2/m 1'
_symmetry_Int_Tables_number        12
_refine_ls_R_factor_all            .046
loop_
_symmetry_equiv_pos_site_id
_symmetry_equiv_pos_as_xyz
  1	'-x, y, -z'
  2	'-x, -y, -z'
  3	'x, -y, z'
  4	'x, y, z'
  5	'-x+.5, y+.5, -z'
  6	'-x+.5, -y+.5, -z'
  7	'x+.5, -y+.5, z'
  8	'x+.5, y+.5, z'
loop_
_atom_type_symbol
_atom_type_oxidation_number
Ag2+	2
F1-	-1
Hf4+	4
loop_
_atom_site_label
_atom_site_type_symbol
_atom_site_symmetry_multiplicity
_atom_site_Wyckoff_symbol
_atom_site_fract_x
_atom_site_fract_y
_atom_site_fract_z
_atom_site_occupancy
_atom_site_attached_hydrogens
Ag1 Ag2+ 2 a 0 0 0 1. 0 
Ag2 Ag2+ 4 i 0.1892(1) 0 0.3975(1) 1. 0 
Hf1 Hf4+ 4 i 0.4073 0 0.7843 1. 0 
F1 F1- 2 b 0 0.5 0 1. 0 
F2 F1- 2 c 0 0 0.5 1. 0 
F3 F1- 4 i 0.3902(7) 0 0.2956(8) 1. 0 
F4 F1- 4 i 0.7762(8) 0 0.1193(9) 1. 0 
F5 F1- 8 j 0.1738(5) 0.3205(7) 0.3857(5) 1. 0 
F6 F1- 8 j 0.0628(7) 0.2047(7) 0.1598(5) 1. 0 

loop_
_atom_site_aniso_label
_atom_site_aniso_type_symbol
_atom_site_aniso_U_11
_atom_site_aniso_U_22
_atom_site_aniso_U_33
_atom_site_aniso_U_12
_atom_site_aniso_U_13
_atom_site_aniso_U_23
Ag1 Ag2+ 0.0117(4) 0.0081(4) 0.0066(4) 0 0.0005(3) 0
Ag2 Ag2+ 0.0106(3) 0.0081(3) 0.0130(3) 0 0.0048(2) 0
Hf1 Hf4+ 0.0078(2) 0.0077(3) 0.0072(2) 0 0.0011(1) 0
F1 F1- 0.0288(36) 0.0217(35) 0.0189(32) 0 -.0096(31) 0
F2 F1- 0.0208(35) 0.0345(39) 0.0369(38) 0 0.0164(33) 0
F3 F1- 0.0166(28) 0.0423(33) 0.0270(29) 0 0.0111(24) 0
F4 F1- 0.0178(31) 0.1088(46) 0.0343(34) 0 0.0154(29) 0
F5 F1- 0.0335(24) 0.0108(19) 0.0201(19) 0.0006(16) -.0148(18) 0.0001(15)
F6 F1- 0.0763(33) 0.0129(20) 0.0235(21) -.0054(22) -.0249(24) -.0026(17)
#End of data_65178-ICSD


