data_151577-ICSD
#?2014 by Fachinformationszentrum Karlsruhe, and the U.S. Secretary of 
#Commerce on behalf of the United States.  All rights reserved.
_database_code_ICSD                151577
_audit_creation_date               2006/10/01
_chemical_name_systematic          'Calcium Digermanate'
_chemical_formula_structural       'Ca (Ge2 O5)'
_chemical_formula_sum              'Ca1 Ge2 O5'
_publ_section_title
;
Structure and phase transition of Ca Ge2 O5 revisited
;
loop_
_citation_id
_citation_journal_abbrev
_citation_year
_citation_journal_volume
_citation_page_first
_citation_page_last
_citation_journal_id_ASTM
primary 'Physics and Chemistry of Minerals' 2004 31 224 231 PCMIDU
_publ_author_name                  'Malcherek, T.;Bosenick, A.'
_cell_length_a                     6.5684(4)
_cell_length_b                     8.8193(5)
_cell_length_c                     6.8834(4)
_cell_angle_alpha                  89.866(2)
_cell_angle_beta                   112.959(1)
_cell_angle_gamma                  90.068(2)
_cell_volume                       367.16
_cell_formula_units_Z              4
_symmetry_space_group_name_H-M     'C -1'
_symmetry_Int_Tables_number        2
_refine_ls_R_factor_all            .08
loop_
_symmetry_equiv_pos_site_id
_symmetry_equiv_pos_as_xyz
  1	'-x, -y, -z'
  2	'x, y, z'
  3	'-x+.5, -y+.5, -z'
  4	'x+.5, y+.5, z'
loop_
_atom_type_symbol
_atom_type_oxidation_number
Ca2+	2
Ge4+	4
O2-	-2
loop_
_atom_site_label
_atom_site_type_symbol
_atom_site_symmetry_multiplicity
_atom_site_Wyckoff_symbol
_atom_site_fract_x
_atom_site_fract_y
_atom_site_fract_z
_atom_site_occupancy
_atom_site_attached_hydrogens
_atom_site_U_iso_or_equiv
Ca1 Ca2+ 4 i 0.9999(18) 0.6697(5) 0.2530(17) 1. 0 0.0090(16) 
Ge1 Ge4+ 4 i 0.9985(11) 0.3144(31) 0.2480(10) 1. 0 0.0081(10) 
Ge2 Ge4+ 2 a 0 0 0 1. 0 0.0056(22) 
Ge3 Ge4+ 2 b 0 0 0.5 1. 0 0.0083(23) 
O1 O2- 4 i 0.990(5) 0.9250(13) 0.2463(40) 1. 0 0.0044(18) 
O2 O2- 4 i 0.383(4) 0.2975(22) 0.9045(33) 1. 0 0.0044(18) 
O3 O2- 4 i 0.822(4) 0.4412(24) 0.0849(30) 1. 0 0.0044(18) 
O4 O2- 4 i 0.194(4) 0.4345(24) 0.4314(30) 1. 0 0.0044(18) 
O5 O2- 4 i 0.107(4) 0.7960(22) 0.6068(34) 1. 0 0.0044(18) 

#End of data_151577-ICSD


