data_173626-ICSD
#?2014 by Fachinformationszentrum Karlsruhe, and the U.S. Secretary of 
#Commerce on behalf of the United States.  All rights reserved.
_database_code_ICSD                173626
_audit_creation_date               2009/02/01
_chemical_name_systematic          'Dicalcium Stannate'
_chemical_formula_structural       'Ca2 (Sn O4)'
_chemical_formula_sum              'Ca2 O4 Sn1'
_publ_section_title
;
Preparation, crystal structure, and photoluminescence of Ca2 Sn 
O4:Eu(3+), Y(3+)
;
loop_
_citation_id
_citation_journal_abbrev
_citation_year
_citation_journal_volume
_citation_journal_issue
_citation_page_first
_citation_page_last
_citation_journal_id_ASTM
primary 'Journal of Solid State Chemistry' 2008 181 10 2559 2564 JSSCBI
_publ_author_name
;
Yamane, H.;Kaminaga, Y.;Abe, S.;Yamada, T.
;
_cell_length_a                     5.75379(14)
_cell_length_b                     9.7016(3)
_cell_length_c                     3.26641(8)
_cell_angle_alpha                  90.
_cell_angle_beta                   90.
_cell_angle_gamma                  90.
_cell_volume                       182.33
_cell_formula_units_Z              2
_symmetry_space_group_name_H-M     'P b a m'
_symmetry_Int_Tables_number        55
_refine_ls_R_factor_all            .0245
loop_
_symmetry_equiv_pos_site_id
_symmetry_equiv_pos_as_xyz
  1	'x+.5, -y+.5, z'
  2	'-x+.5, y+.5, z'
  3	'x, y, -z'
  4	'-x, -y, -z'
  5	'-x+.5, y+.5, -z'
  6	'x+.5, -y+.5, -z'
  7	'-x, -y, z'
  8	'x, y, z'
loop_
_atom_type_symbol
_atom_type_oxidation_number
Ca2+	2
O2-	-2
Sn4+	4
loop_
_atom_site_label
_atom_site_type_symbol
_atom_site_symmetry_multiplicity
_atom_site_Wyckoff_symbol
_atom_site_fract_x
_atom_site_fract_y
_atom_site_fract_z
_atom_site_occupancy
_atom_site_attached_hydrogens
_atom_site_B_iso_or_equiv
Ca1 Ca2+ 4 h 0.0718(2) 0.31768(13) 0.5 1. 0 0.87(3) 
Sn1 Sn4+ 2 a 0 0 0 1. 0 0.620(14) 
O1 O2- 4 h 0.2257(6) 0.0502(4) 0.5 1. 0 0.47(6) 
O2 O2- 4 g 0.3631(6) 0.3097(4) 0 1. 0 0.47(6) 

#End of data_173626-ICSD


