data_4280-ICSD
#?2014 by Fachinformationszentrum Karlsruhe, and the U.S. Secretary of 
#Commerce on behalf of the United States.  All rights reserved.
_database_code_ICSD                4280
_audit_creation_date               1980/01/01
_audit_update_record               2008/02/01
_chemical_name_systematic
;
Dimagnesium Cyclo-tetraphosphate(V)
;
_chemical_formula_structural       'Mg2 (P4 O12)'
_chemical_formula_sum              'Mg2 O12 P4'
_publ_section_title
;
The crystal structure of magnesium tetrametaphosphate, Mg2 P4 O12
;
loop_
_citation_id
_citation_journal_abbrev
_citation_year
_citation_journal_volume
_citation_page_first
_citation_page_last
_citation_journal_id_ASTM
primary 'Acta Chemica Scandinavica, Series A: (28,1974-)'
 1975 29 1 6 ACAPCT
_publ_author_name                  'Nord, A.G.;Lindberg, K.B.'
_cell_length_a                     11.756(2)
_cell_length_b                     8.285(1)
_cell_length_c                     9.917(1)
_cell_angle_alpha                  90.
_cell_angle_beta                   118.96(2)
_cell_angle_gamma                  90.
_cell_volume                       845.12
_cell_formula_units_Z              4
_symmetry_space_group_name_H-M     'C 1 2/c 1'
_symmetry_Int_Tables_number        15
_refine_ls_R_factor_all            .06
loop_
_symmetry_equiv_pos_site_id
_symmetry_equiv_pos_as_xyz
  1	'x, -y, z+.5'
  2	'-x, -y, -z'
  3	'-x, y, -z+.5'
  4	'x, y, z'
  5	'x+.5, -y+.5, z+.5'
  6	'-x+.5, -y+.5, -z'
  7	'-x+.5, y+.5, -z+.5'
  8	'x+.5, y+.5, z'
loop_
_atom_type_symbol
_atom_type_oxidation_number
Mg2+	2
O2-	-2
P5+	5
loop_
_atom_site_label
_atom_site_type_symbol
_atom_site_symmetry_multiplicity
_atom_site_Wyckoff_symbol
_atom_site_fract_x
_atom_site_fract_y
_atom_site_fract_z
_atom_site_occupancy
_atom_site_attached_hydrogens
_atom_site_B_iso_or_equiv
Mg1 Mg2+ 4 e 0 0.0513(2) 0.25 1. 0 0.36 
Mg2 Mg2+ 4 d 0.25 0.25 0.5 1. 0 0.38 
P1 P5+ 8 f 0.0089(1) 0.2627(1) -.0242(1) 1. 0 0.33 
P2 P5+ 8 f 0.1967(1) 0.4915(1) 0.1968(1) 1. 0 0.34 
O1 O2- 8 f 0.2329(3) 0.4198(4) 0.3469(3) 1. 0 0.77 
O2 O2- 8 f 0.2988(3) 0.5809(4) 0.1765(3) 1. 0 0.48 
O3 O2- 8 f 0.0779(3) 0.6102(4) 0.1554(3) 1. 0 0.81 
O4 O2- 8 f 0.1421(3) 0.3589(4) 0.0643(3) 1. 0 0.73 
O5 O2- 8 f -.0491(3) 0.2410(4) 0.0811(3) 1. 0 0.56 
O6 O2- 8 f 0.0316(3) 0.1200(4) -.0952(3) 1. 0 0.79 

#End of data_4280-ICSD


