data_426264-ICSD
#?2014 by Fachinformationszentrum Karlsruhe, and the U.S. Secretary of 
#Commerce on behalf of the United States.  All rights reserved.
_database_code_ICSD                426264
_audit_creation_date               2014/02/01
_chemical_name_systematic          'Dipotassium Tetratitanate'
_chemical_formula_structural       'K2 (Ti4 O9)'
_chemical_formula_sum              'K2 O9 Ti4'
_publ_section_title
;
On the crystal energy and structure of A2 Tin O2n+1 (A=Li, Na, K) 
titanates by DFT calculations and neutron diffraction
;
loop_
_citation_id
_citation_journal_abbrev
_citation_year
_citation_journal_volume
_citation_page_first
_citation_page_last
_citation_journal_id_ASTM
primary 'Journal of Solid State Chemistry' 2013 205 64 70 JSSCBI
_publ_author_name
;
Catti, Michele;Pinus, Ilya;Scherillo, Antonella
;
_cell_length_a                     18.2578(8)
_cell_length_b                     3.79160(9)
_cell_length_c                     12.0242(4)
_cell_angle_alpha                  90.0
_cell_angle_beta                   106.459(4)
_cell_angle_gamma                  90.0
_cell_volume                       798.28
_cell_formula_units_Z              4
_symmetry_space_group_name_H-M     'C 1 2/m 1'
_symmetry_Int_Tables_number        12
_refine_ls_R_factor_all            .0658
loop_
_symmetry_equiv_pos_site_id
_symmetry_equiv_pos_as_xyz
  1	'-x, y, -z'
  2	'-x, -y, -z'
  3	'x, -y, z'
  4	'x, y, z'
  5	'-x+.5, y+.5, -z'
  6	'-x+.5, -y+.5, -z'
  7	'x+.5, -y+.5, z'
  8	'x+.5, y+.5, z'
loop_
_atom_type_symbol
_atom_type_oxidation_number
K1+	1
O2-	-2
Ti4+	4
loop_
_atom_site_label
_atom_site_type_symbol
_atom_site_symmetry_multiplicity
_atom_site_Wyckoff_symbol
_atom_site_fract_x
_atom_site_fract_y
_atom_site_fract_z
_atom_site_occupancy
_atom_site_attached_hydrogens
_atom_site_U_iso_or_equiv
Ti1 Ti4+ 4 i 0.2477(8) 0.0 0.1648(13) 1.0 0 0.0035(19) 
Ti2 Ti4+ 4 i 0.8370(9) 0.0 0.3796(13) 1.0 0 0.0022(18) 
Ti3 Ti4+ 4 i 0.8786(7) 0.0 0.1338(12) 1.0 0 0.0018(18) 
Ti4 Ti4+ 4 i 0.2007(8) 0.0 0.3986(13) 1.0 0 0.0024(18) 
K1 K1+ 4 i 0.5846(8) 0.0 0.0845(12) 1.0 0 0.0047(18) 
K2 K1+ 4 i 0.5277(10) 0.0 0.3325(17) 1.0 0 0.0173(30) 
O1 O2- 4 i 0.7652(5) 0.0 0.1974(9) 1.0 0 0.0033(12) 
O2 O2- 4 i 0.3058(5) 0.0 0.3548(9) 1.0 0 0.0042(13) 
O3 O2- 4 i 0.3518(5) 0.0 0.1445(9) 1.0 0 0.0043(13) 
O4 O2- 4 i 0.7300(5) 0.0 0.4229(9) 1.0 0 0.0032(13) 
O5 O2- 4 i 0.9146(6) 0.0 0.3145(10) 1.0 0 0.0085(15) 
O6 O2- 4 i 0.9674(6) 0.0 0.1186(10) 1.0 0 0.0084(16) 
O7 O2- 4 i 0.1209(6) 0.0 0.4603(9) 1.0 0 0.0065(16) 
O8 O2- 4 i 0.1609(6) 0.0 0.2433(10) 1.0 0 0.0097(19) 
O9 O2- 4 i 0.1788(5) 0.0 0.0244(8) 1.0 0 0.0048(11) 

#End of data_426264-ICSD


