data_249016-ICSD
#?2014 by Fachinformationszentrum Karlsruhe, and the U.S. Secretary of 
#Commerce on behalf of the United States.  All rights reserved.
_database_code_ICSD                249016
_audit_creation_date               2007/08/01
_chemical_name_systematic          'Tetraneodymium Dioxo Dialuminate'
_chemical_formula_structural       'Nd4 (Al2 O7) O2'
_chemical_formula_sum              'Al2 Nd4 O9'
_chemical_name_mineral             'Cuspidine, neodymian'
_publ_section_title
;
Stability and oxide ion conductivity in rare-earth aluminium 
cuspinides
;
loop_
_citation_id
_citation_journal_abbrev
_citation_year
_citation_journal_volume
_citation_journal_issue
_citation_page_first
_citation_page_last
_citation_journal_id_ASTM
primary 'Journal of Solid State Chemistry' 2006 179 11 3445 3455 JSSCBI
_publ_author_name
;
Martin-Sedeno, M.C.;Marrero-Lopez, D.;Losilla, E.R.;Bruque, S.;Nunez, 
P.;Aranda, M.A.G.
;
_cell_length_a                     7.74024(12)
_cell_length_b                     10.85435(18)
_cell_length_c                     11.30831(18)
_cell_angle_alpha                  90.0
_cell_angle_beta                   109.4495(8)
_cell_angle_gamma                  90.0
_cell_volume                       895.86
_cell_formula_units_Z              4
_symmetry_space_group_name_H-M     'P 1 21/c 1'
_symmetry_Int_Tables_number        14
_refine_ls_R_factor_all            .0151
loop_
_symmetry_equiv_pos_site_id
_symmetry_equiv_pos_as_xyz
  1	'x, -y+.5, z+.5'
  2	'-x, -y, -z'
  3	'-x, y+.5, -z+.5'
  4	'x, y, z'
loop_
_atom_type_symbol
_atom_type_oxidation_number
Al3+	3
Nd3+	3
O2-	-2
loop_
_atom_site_label
_atom_site_type_symbol
_atom_site_symmetry_multiplicity
_atom_site_Wyckoff_symbol
_atom_site_fract_x
_atom_site_fract_y
_atom_site_fract_z
_atom_site_occupancy
_atom_site_attached_hydrogens
_atom_site_U_iso_or_equiv
Al1 Al3+ 4 e 0.2198(13) 0.1942(9) 0.1283(8) 1.0 0 0.0067(26) 
Al2 Al3+ 4 e 0.6527(13) 0.1856(9) 0.1171(8) 1.0 0 0.0056(26) 
Nd1 Nd3+ 4 e 0.5251(4) 0.09888(23) 0.79057(22) 1.0 0 0.0038(8) 
Nd2 Nd3+ 4 e 0.0262(4) 0.08600(22) 0.80992(22) 1.0 0 0.0041(9) 
Nd3 Nd3+ 4 e 0.3347(5) 0.12552(29) 0.42757(26) 1.0 0 0.0030(7) 
Nd4 Nd3+ 4 e 0.8362(5) 0.12347(30) 0.41662(27) 1.0 0 0.0034(7) 
O1 O2- 4 e 0.7802(10) 0.2204(8) 0.7470(6) 1.0 0 0.0097(17) 
O2 O2- 4 e 0.2368(8) 0.2247(7) 0.7642(6) 1.0 0 0.0016(16) 
O3 O2- 4 e 0.2114(12) 0.0366(9) 0.1668(8) 1.0 0 0.0176(21) 
O4 O2- 4 e 0.0834(9) 0.2357(7) 0.9805(6) 1.0 0 0.0094(15) 
O5 O2- 4 e 0.4362(11) 0.2386(5) 0.1173(6) 1.0 0 0.0091(12) 
O6 O2- 4 e 0.6355(10) 0.2291(7) 0.9658(6) 1.0 0 0.0101(16) 
O7 O2- 4 e 0.7052(11) 0.0365(8) 0.1711(7) 1.0 0 0.0074(17) 
O8 O2- 4 e 0.0757(13) 0.0000(7) 0.3937(9) 1.0 0 0.0014(12) 
O9 O2- 4 e 0.5659(15) 0.0051(7) 0.3969(9) 1.0 0 0.0079(18) 

#End of data_249016-ICSD


