data_412393-ICSD
#?2014 by Fachinformationszentrum Karlsruhe, and the U.S. Secretary of 
#Commerce on behalf of the United States.  All rights reserved.
_database_code_ICSD                412393
_audit_creation_date               2003/04/01
_chemical_name_systematic          'Tripotassium Bismuthate(V)'
_chemical_formula_structural       'K3 (Bi O4)'
_chemical_formula_sum              'Bi1 K3 O4'
_publ_section_title
;
Neue Oxopnictate A(I)3 M(V) O4: Darstellung und Kristallstruktur von 
A3 As O4 (A = K, Rb, Cs) und K3 Bi O4
;
loop_
_citation_id
_citation_journal_abbrev
_citation_year
_citation_journal_volume
_citation_page_first
_citation_page_last
_citation_journal_id_ASTM
primary 'Zeitschrift fuer Naturforschung, B: Chemical Sciences'
 2002 57 599 604 ZNBSEN
_publ_author_name                  'Emmerling, F.;Idilbi, M.;Roehr, C.'
_cell_length_a                     6.4318(6)
_cell_length_b                     6.5727(6)
_cell_length_c                     7.6241(7)
_cell_angle_alpha                  101.724(2)
_cell_angle_beta                   96.472(2)
_cell_angle_gamma                  105.465(2)
_cell_volume                       299.36
_cell_formula_units_Z              2
_symmetry_space_group_name_H-M     'P -1'
_symmetry_Int_Tables_number        2
_refine_ls_R_factor_all            .0287
loop_
_symmetry_equiv_pos_site_id
_symmetry_equiv_pos_as_xyz
  1	'-x, -y, -z'
  2	'x, y, z'
loop_
_atom_type_symbol
_atom_type_oxidation_number
Bi5+	5
K1+	1
O2-	-2
loop_
_atom_site_label
_atom_site_type_symbol
_atom_site_symmetry_multiplicity
_atom_site_Wyckoff_symbol
_atom_site_fract_x
_atom_site_fract_y
_atom_site_fract_z
_atom_site_occupancy
_atom_site_attached_hydrogens
_atom_site_U_iso_or_equiv
K1 K1+ 2 i 0.1629(3) 0.7680(3) 0.1675(2) 1. 0 0.0128(3) 
K2 K1+ 2 i 0.3304(3) 0.2260(3) 0.0241(2) 1. 0 0.0143(3) 
K3 K1+ 2 i 0.3489(3) 0.2271(3) 0.5393(2) 1. 0 0.0151(4) 
Bi1 Bi5+ 2 i 0.83999(4) 0.29928(4) 0.31531(3) 1. 0 0.00698(12) 
O1 O2- 2 i 0.1826(10) 0.5563(9) 0.4253(8) 1. 0 0.0120(11) 
O2 O2- 2 i 0.5508(9) 0.0606(9) 0.2698(8) 1. 0 0.0121(11) 
O3 O2- 2 i 0.7628(9) 0.4766(9) 0.1470(8) 1. 0 0.0140(11) 
O4 O2- 2 i 0.0162(10) 0.1015(10) 0.2333(10) 1. 0 0.0224(14) 

loop_
_atom_site_aniso_label
_atom_site_aniso_type_symbol
_atom_site_aniso_U_11
_atom_site_aniso_U_22
_atom_site_aniso_U_33
_atom_site_aniso_U_12
_atom_site_aniso_U_13
_atom_site_aniso_U_23
K1 K1+ 0.0110(8) 0.0106(7) 0.0151(8) 0.0019(6) 0.0022(6) 0.0010(6)
K2 K1+ 0.0125(8) 0.0126(8) 0.0161(8) 0.0012(6) -0.0002(6) 0.0043(6)
K3 K1+ 0.0163(9) 0.0145(8) 0.0143(8) 0.0059(7) 0.0007(7) 0.0021(6)
Bi1 Bi5+ 0.00667(17) 0.00603(16) 0.00697(17) 0.00102(11) 0.00022(10) 
0.00049(10)
O1 O2- 0.011(3) 0.014(3) 0.009(3) 0.003(2) 0.002(2) -0.001(2)
O2 O2- 0.009(3) 0.010(3) 0.015(3) 0.000(2) 0.002(2) 0.003(2)
O3 O2- 0.014(3) 0.012(3) 0.014(3) 0.002(2) -0.003(2) 0.006(2)
O4 O2- 0.010(3) 0.016(3) 0.036(4) 0.008(2) 0.001(3) -0.008(3)
#End of data_412393-ICSD


