data_30203-ICSD
#?2014 by Fachinformationszentrum Karlsruhe, and the U.S. Secretary of 
#Commerce on behalf of the United States.  All rights reserved.
_database_code_ICSD                30203
_audit_creation_date               1980/01/01
_audit_update_record               2005/10/01
_chemical_name_systematic          'Potassium Tetrachloroiodate(III)'
_chemical_formula_structural       'K (I Cl4)'
_chemical_formula_sum              'Cl4 I1 K1'
_publ_section_title
;
The configuration of the pentahalogen anion group from the X-ray 
structure determination of potassium tetra-chloroiodide crystals
;
loop_
_citation_id
_citation_journal_abbrev
_citation_year
_citation_journal_volume
_citation_page_first
_citation_page_last
_citation_journal_id_ASTM
primary
;
Zeitschrift fuer Kristallographie, Kristallgeometrie, Kristallphysik, 
Kristallchemie (-144,1977)
;
 1938 98 377 393 ZEKGAX
_publ_author_name                  'Mooney, R.C.L.'
_cell_length_a                     13.12
_cell_length_b                     14.21
_cell_length_c                     4.21
_cell_angle_alpha                  90.
_cell_angle_beta                   95.116
_cell_angle_gamma                  90.
_cell_volume                       781.77
_cell_formula_units_Z              4
_symmetry_space_group_name_H-M     'P 1 21/n 1'
_symmetry_Int_Tables_number        14
loop_
_symmetry_equiv_pos_site_id
_symmetry_equiv_pos_as_xyz
  1	'-x+.5, y+.5, -z+.5'
  2	'-x, -y, -z'
  3	'x+.5, -y+.5, z+.5'
  4	'x, y, z'
loop_
_atom_type_symbol
_atom_type_oxidation_number
Cl1-	-1
I3+	3
K1+	1
loop_
_atom_site_label
_atom_site_type_symbol
_atom_site_symmetry_multiplicity
_atom_site_Wyckoff_symbol
_atom_site_fract_x
_atom_site_fract_y
_atom_site_fract_z
_atom_site_occupancy
_atom_site_attached_hydrogens
K1 K1+ 4 e 0.075 0.1528 0.3194 1. 0 
I1 I3+ 4 e 0.2056 0.4361 0.5 1. 0 
Cl1 Cl1- 4 e 0.2194 0.2889 0.7361 1. 0 
Cl2 Cl1- 4 e 0.1917 0.5833 0.5417 1. 0 
Cl3 Cl1- 4 e 0.3722 0.4694 0.7361 1. 0 
Cl4 Cl1- 4 e 0.0389 0.4028 0.2639 1. 0 

#End of data_30203-ICSD


