data_20101-ICSD
#?2014 by Fachinformationszentrum Karlsruhe, and the U.S. Secretary of 
#Commerce on behalf of the United States.  All rights reserved.
_database_code_ICSD                20101
_audit_creation_date               1980/01/01
_audit_update_record               2008/02/01
_chemical_name_systematic          'Disodium Zirconium Silicate Oxide'
_chemical_formula_structural       'Na2 Zr (Si O4) O'
_chemical_formula_sum              'Na2 O5 Si1 Zr1'
_publ_section_title
;
Crystal structure of Na2 Zr Si O5 = Na2 O Zr (Si O4)
;
loop_
_citation_id
_citation_journal_abbrev
_citation_year
_citation_journal_volume
_citation_page_first
_citation_page_last
_citation_journal_id_ASTM
primary 'Doklady Akademii Nauk SSSR' 1970 190 334 337 DANKAS
_publ_author_name
;
Treushnikov, E.N.;Ilyukhin, V.V.;Belov, N.V.
;
_cell_length_a                     13.92
_cell_length_b                     5.46
_cell_length_c                     13.7
_cell_angle_alpha                  90.
_cell_angle_beta                   120.
_cell_angle_gamma                  90.
_cell_volume                       901.74
_cell_formula_units_Z              8
_symmetry_space_group_name_H-M     'P 1 21/c 1'
_symmetry_Int_Tables_number        14
_refine_ls_R_factor_all            .131
loop_
_symmetry_equiv_pos_site_id
_symmetry_equiv_pos_as_xyz
  1	'x, -y+.5, z+.5'
  2	'-x, -y, -z'
  3	'-x, y+.5, -z+.5'
  4	'x, y, z'
loop_
_atom_type_symbol
_atom_type_oxidation_number
Na1+	1
O2-	-2
Si4+	4
Zr4+	4
loop_
_atom_site_label
_atom_site_type_symbol
_atom_site_symmetry_multiplicity
_atom_site_Wyckoff_symbol
_atom_site_fract_x
_atom_site_fract_y
_atom_site_fract_z
_atom_site_occupancy
_atom_site_attached_hydrogens
_atom_site_B_iso_or_equiv
Zr1 Zr4+ 4 e 0.0647 0.7608 0.3719 1. 0 0.4 
Zr2 Zr4+ 4 e 0.4349 0.2612 0.3068 1. 0 0.4 
Si1 Si4+ 4 e 0.1583 0.2277 0.0688 1. 0 0.4 
Si2 Si4+ 4 e 0.3413 0.7711 0.4088 1. 0 0.4 
Na1 Na1+ 4 e 0.314 0.741 0.145 1. 0 0.4 
Na2 Na1+ 4 e 0.079 0.733 0.148 1. 0 0.4 
Na3 Na1+ 4 e 0.184 0.264 0.33 1. 0 0.4 
Na4 Na1+ 4 e 0.42 0.231 0.067 1. 0 0.4 
O1 O2- 4 e 0.127 0.102 0.461 1. 0 0.4 
O2 O2- 4 e 0.289 0.254 0.15 1. 0 0.4 
O3 O2- 4 e 0.408 0.789 0.041 1. 0 0.4 
O4 O2- 4 e 0.211 0.714 0.362 1. 0 0.4 
O5 O2- 4 e 0.091 0.303 0.129 1. 0 0.4 
O6 O2- 4 e 0.378 0.596 0.338 1. 0 0.4 
O7 O2- 4 e 0.134 0.937 0.027 1. 0 0.4 
O8 O2- 4 e 0.363 0.064 0.392 1. 0 0.4 
O9 O2- 4 e 0.007 0.474 0.271 1. 0 0.4 
O10 O2- 4 e 0.492 0.966 0.265 1. 0 0.4 

#End of data_20101-ICSD


