data_89722-ICSD
#?2014 by Fachinformationszentrum Karlsruhe, and the U.S. Secretary of 
#Commerce on behalf of the United States.  All rights reserved.
_database_code_ICSD                89722
_audit_creation_date               2002/04/01
_chemical_name_systematic          'Thallium Aluminium Silicon Oxide'
_chemical_formula_structural       'Tl Al Si O4'
_chemical_formula_sum              'Al1 O4 Si1 Tl1'
_publ_section_title
;
The crystal structure of Tl Al Si O4: the role of inert pairs in 
exclusion of Tl from silicate minerals
;
loop_
_citation_id
_citation_journal_abbrev
_citation_year
_citation_journal_volume
_citation_page_first
_citation_page_last
_citation_journal_id_ASTM
primary 'American Mineralogist' 2000 85 1287 1293 AMMIAY
_publ_author_name                  'Kyono, A.;Kimata, M.;Shimizu, M.'
_cell_length_a                     5.4095(3)
_cell_length_b                     9.4232(7)
_cell_length_c                     8.2629(6)
_cell_angle_alpha                  90.
_cell_angle_beta                   90.01(2)
_cell_angle_gamma                  90.
_cell_volume                       421.2
_cell_formula_units_Z              4
_symmetry_space_group_name_H-M     'P 1 21/n 1'
_symmetry_Int_Tables_number        14
_refine_ls_R_factor_all            .038
loop_
_symmetry_equiv_pos_site_id
_symmetry_equiv_pos_as_xyz
  1	'-x+.5, y+.5, -z+.5'
  2	'-x, -y, -z'
  3	'x+.5, -y+.5, z+.5'
  4	'x, y, z'
loop_
_atom_type_symbol
_atom_type_oxidation_number
Al3+	3
O2-	-2
Si4+	4
Tl1+	1
loop_
_atom_site_label
_atom_site_type_symbol
_atom_site_symmetry_multiplicity
_atom_site_Wyckoff_symbol
_atom_site_fract_x
_atom_site_fract_y
_atom_site_fract_z
_atom_site_occupancy
_atom_site_attached_hydrogens
Tl1 Tl1+ 4 e 0.7502(1) 0.1891(1) 0.4973(1) 1. 0 
Si1 Si4+ 4 e 0.2503(6) 0.0765(4) 0.2052(4) 1. 0 
Al1 Al3+ 4 e 0.2490(6) 0.4168(3) 0.3082(4) 1. 0 
O1 O2- 4 e 0.2500(22) 0.0657(17) 0.014(1) 1. 0 
O2 O2- 4 e 0.2447(24) 0.2379(10) 0.2639(19) 1. 0 
O3 O2- 4 e 0.0066(15) 0.9982(9) 0.2788(15) 1. 0 
O4 O2- 4 e 0.4932(13) -.0012(9) 0.2824(13) 1. 0 

loop_
_atom_site_aniso_label
_atom_site_aniso_type_symbol
_atom_site_aniso_U_11
_atom_site_aniso_U_22
_atom_site_aniso_U_33
_atom_site_aniso_U_12
_atom_site_aniso_U_13
_atom_site_aniso_U_23
Tl1 Tl1+ 0.0428(5) 0.0260(4) 0.0328(4) 0.0008(3) -.0002(2) 0.0010(2)
Si1 Si4+ 0.0236(14) 0.0231(14) 0.0231(14) 0.0002(11) -.0021(10) 0.0006(11)
Al1 Al3+ 0.0106(12) 0.0106(12) 0.0140(12) 0.0021(9) 0.0001(9) -.0018(9)
O1 O2- 0.0263(45) 0.0611(88) 0.0172(38) 0.0017(48) -.0015(28) -.0018(36)
O2 O2- 0.071(10) 0.0172(46) 0.075(12) 0.0167(56) 0.0128(88) 0.0014(61)
O3 O2- 0.0274(44) 0.0334(52) 0.0275(52) -.0034(37) 0.0020(28) -.0044(30)
O4 O2- 0.0198(37) 0.0368(52) 0.0202(42) 0.0131(34) 0.0022(23) 0.0012(27)
#End of data_89722-ICSD


