data_78089-ICSD
#?2014 by Fachinformationszentrum Karlsruhe, and the U.S. Secretary of 
#Commerce on behalf of the United States.  All rights reserved.
_database_code_ICSD                78089
_audit_creation_date               1995/10/17
_audit_update_record               2008/02/01
_chemical_name_systematic          'Calcium Dibismuth Oxide'
_chemical_formula_structural       'Ca Bi2 O4'
_chemical_formula_sum              'Bi2 Ca1 O4'
_publ_section_title
;
X-ray and neutron diffraction study of Ca Bi2 O4
;
loop_
_citation_id
_citation_journal_abbrev
_citation_year
_citation_journal_volume
_citation_page_first
_citation_page_last
_citation_journal_id_ASTM
primary 'Journal of Solid State Chemistry' 1994 109 251 258 JSSCBI
_publ_author_name
;
Sora, I.N.;Wong-Ng, W.;Huang, Q.;Roth, R.S.;Rawn, C.J.;Burton, 
B.P.;Santoro, A.
;
_cell_length_a                     16.6430(40)
_cell_length_b                     11.580(4)
_cell_length_c                     13.994(5)
_cell_angle_alpha                  90.
_cell_angle_beta                   133.92(2)
_cell_angle_gamma                  90.
_cell_volume                       1942.68
_cell_formula_units_Z              16
_symmetry_space_group_name_H-M     'C 1 2/c 1'
_symmetry_Int_Tables_number        15
_refine_ls_R_factor_all            .035
loop_
_symmetry_equiv_pos_site_id
_symmetry_equiv_pos_as_xyz
  1	'x, -y, z+.5'
  2	'-x, -y, -z'
  3	'-x, y, -z+.5'
  4	'x, y, z'
  5	'x+.5, -y+.5, z+.5'
  6	'-x+.5, -y+.5, -z'
  7	'-x+.5, y+.5, -z+.5'
  8	'x+.5, y+.5, z'
loop_
_atom_type_symbol
_atom_type_oxidation_number
Bi3+	3
Ca2+	2
O2-	-2
loop_
_atom_site_label
_atom_site_type_symbol
_atom_site_symmetry_multiplicity
_atom_site_Wyckoff_symbol
_atom_site_fract_x
_atom_site_fract_y
_atom_site_fract_z
_atom_site_occupancy
_atom_site_attached_hydrogens
_atom_site_B_iso_or_equiv
Bi1 Bi3+ 8 f 0.87206(5) 0.15711(8) 0.56083(6) 1. 0 0.59(2) 
Bi2 Bi3+ 8 f 0.87250(5) 0.34963(8) 0.27022(6) 1. 0 0.69(2) 
Bi3 Bi3+ 8 f 0.65495(5) 0.21447(8) 0.21573(6) 1. 0 0.63(2) 
Bi4 Bi3+ 8 f 0.65015(5) 0.01048(8) 0.48483(6) 1. 0 0.66(2) 
Ca1 Ca2+ 8 f 0.8761(3) 0.0363(3) 0.3317(3) 1. 0 -.5(3) 
Ca2 Ca2+ 8 f 0.8772(3) 0.1504(4) 0.0799(3) 1. 0 0.48(8) 
O1 O2- 8 f 0.704(1) 0.109(2) 0.391(1) 1. 0 1.4(3) 
O2 O2- 8 f 0.682(1) 0.930(2) 0.659(1) 1. 0 1.2(3) 
O3 O2- 8 f 0.8295(9) 0.241(2) 0.382(1) 1. 0 0.7(3) 
O4 O2- 8 f 0.699(1) 0.338(2) 0.137(1) 1. 0 1.3(3) 
O5 O2- 8 f 0.824(1) 0.035(2) 0.640(1) 1. 0 1.3(3) 
O6 O2- 8 f 0.6685(9) 0.860(1) 0.422(1) 1. 0 0.9(3) 
O7 O2- 8 f 0.945(1) 0.026(1) 0.551(1) 1. 0 0.8(3) 
O8 O2- 8 f 0.9306(5) 0.189(1) 0.285 1. 0 0.4(3) 

#End of data_78089-ICSD


