data_1883-ICSD
#?2014 by Fachinformationszentrum Karlsruhe, and the U.S. Secretary of 
#Commerce on behalf of the United States.  All rights reserved.
_database_code_ICSD                1883
_audit_creation_date               1980/01/01
_audit_update_record               2006/04/01
_chemical_name_systematic          'Disodium Ditungstate'
_chemical_formula_structural       'Na2 (W2 O7)'
_chemical_formula_sum              'Na2 O7 W2'
_publ_section_title                'Disodium ditungstate'
loop_
_citation_id
_citation_journal_abbrev
_citation_year
_citation_journal_volume
_citation_page_first
_citation_page_last
_citation_journal_id_ASTM
primary 'Acta Crystallographica B (24,1968-38,1982)' 1975 31 1200 1201 ACBCAR
2 'Golden Book of Phase Transitions, Wroclaw' 2002 1 1 123 GBOPT5
_publ_author_name
;
Okada, K.;Morikawa, H.;Marumo, F.;Iwai, S.I.
;
_cell_length_a                     7.216(1)
_cell_length_b                     11.899(1)
_cell_length_c                     14.716(3)
_cell_angle_alpha                  90.
_cell_angle_beta                   90.
_cell_angle_gamma                  90.
_cell_volume                       1263.56
_cell_formula_units_Z              8
_symmetry_space_group_name_H-M     'C m c a'
_symmetry_Int_Tables_number        64
_refine_ls_R_factor_all            .054
loop_
_symmetry_equiv_pos_site_id
_symmetry_equiv_pos_as_xyz
  1	'-x, -y+.5, z+.5'
  2	'-x, y+.5, -z+.5'
  3	'-x, y, z'
  4	'-x, -y, -z'
  5	'x, y+.5, -z+.5'
  6	'x, -y+.5, z+.5'
  7	'x, -y, -z'
  8	'x, y, z'
  9	'-x+.5, -y, z+.5'
 10	'-x+.5, y, -z+.5'
 11	'-x+.5, y+.5, z'
 12	'-x+.5, -y+.5, -z'
 13	'x+.5, y, -z+.5'
 14	'x+.5, -y, z+.5'
 15	'x+.5, -y+.5, -z'
 16	'x+.5, y+.5, z'
loop_
_atom_type_symbol
_atom_type_oxidation_number
Na1+	1
O2-	-2
W6+	6
loop_
_atom_site_label
_atom_site_type_symbol
_atom_site_symmetry_multiplicity
_atom_site_Wyckoff_symbol
_atom_site_fract_x
_atom_site_fract_y
_atom_site_fract_z
_atom_site_occupancy
_atom_site_attached_hydrogens
_atom_site_B_iso_or_equiv
W1 W6+ 8 e 0.25 0.08606(4) 0.25 1. 0 0 
W2 W6+ 8 f 0 0.24688(5) 0.08537(4) 1. 0 0 
Na1 Na1+ 8 d 0.2507(22) 0 0 1. 0 1.67 
Na2 Na1+ 8 f 0 0.3259(8) 0.3443(6) 1. 0 1.76 
O1 O2- 16 g 0.2042(13) 0.2323(7) 0.1554(6) 1. 0 1.33 
O2 O2- 16 g 0.1991(14) 0.4927(7) 0.3361(7) 1. 0 1.34 
O3 O2- 8 f 0 0.1256(10) 0.2816(8) 1. 0 0.99 
O4 O2- 8 f 0 0.3755(11) 0.0289(9) 1. 0 1.31 
O5 O2- 8 f 0 0.3590(13) 0.5019(9) 1. 0 1.42 

#End of data_1883-ICSD


