data_65291-ICSD
#?2014 by Fachinformationszentrum Karlsruhe, and the U.S. Secretary of 
#Commerce on behalf of the United States.  All rights reserved.
_database_code_ICSD                65291
_audit_creation_date               1989/12/04
_audit_update_record               2012/08/01
_chemical_name_systematic          'Tripotassium Catena-lithosilicate'
_chemical_formula_structural       'K3 (Li Si O4)'
_chemical_formula_sum              'K3 Li1 O4 Si1'
_publ_section_title
;
Ein Lithosilicat: K3 Li Si O4 = K3 (Li Si O4)
;
loop_
_citation_id
_citation_journal_abbrev
_citation_year
_citation_journal_volume
_citation_page_first
_citation_page_last
_citation_journal_id_ASTM
primary 'Zeitschrift fuer Anorganische und Allgemeine Chemie (1950) (DE)'
 1988 560 35 46 ZAACAB
_publ_author_name                  'Hofmann, R.;Hoppe, R.'
_cell_length_a                     11.328(4)
_cell_length_b                     9.738(2)
_cell_length_c                     11.771(3)
_cell_angle_alpha                  90.
_cell_angle_beta                   121.30(2)
_cell_angle_gamma                  90.
_cell_volume                       1109.5
_cell_formula_units_Z              8
_symmetry_space_group_name_H-M     'P 1 21/c 1'
_symmetry_Int_Tables_number        14
_refine_ls_R_factor_all            .099
loop_
_symmetry_equiv_pos_site_id
_symmetry_equiv_pos_as_xyz
  1	'x, -y+.5, z+.5'
  2	'-x, -y, -z'
  3	'-x, y+.5, -z+.5'
  4	'x, y, z'
loop_
_atom_type_symbol
_atom_type_oxidation_number
K1+	1
Li1+	1
O2-	-2
Si4+	4
loop_
_atom_site_label
_atom_site_type_symbol
_atom_site_symmetry_multiplicity
_atom_site_Wyckoff_symbol
_atom_site_fract_x
_atom_site_fract_y
_atom_site_fract_z
_atom_site_occupancy
_atom_site_attached_hydrogens
K1 K1+ 4 e 0.8374(1) 0.5879(2) 0.9077(1) 1. 0 
K2 K1+ 4 e 0.8559(1) 0.9178(1) 0.8907(1) 1. 0 
K3 K1+ 4 e 0.6466(1) 0.5809(2) 0.5596(1) 1. 0 
K4 K1+ 4 e 0.3136(1) 0.7701(1) 0.3415(1) 1. 0 
K5 K1+ 4 e 0.1849(1) 0.7409(1) 0.5277(1) 1. 0 
K6 K1+ 4 e 0.6541(1) 0.5881(2) 0.0424(1) 1. 0 
Si1 Si4+ 4 e 0.5183(2) 0.8734(2) 0.7338(2) 1. 0 
Si2 Si4+ 4 e 0.0231(2) 0.1109(2) 0.7823(1) 1. 0 
Li1 Li1+ 4 e 0.4840(12) 0.1198(11) 0.7645(11) 1. 0 
Li2 Li1+ 4 e 0.0122(11) 0.3626(10) 0.7819(9) 1. 0 
O1 O2- 4 e 0.3981(4) 0.9412(4) 0.7560(4) 1. 0 
O2 O2- 4 e 0.5996(4) 0.4925(4) 0.2225(4) 1. 0 
O3 O2- 4 e 0.1203(4) 0.2195(4) 0.7617(4) 1. 0 
O4 O2- 4 e 0.6190(4) 0.7712(4) 0.8569(3) 1. 0 
O5 O2- 4 e 0.4530(4) 0.7756(4) 0.6012(4) 1. 0 
O6 O2- 4 e 0.8905(4) 0.0215(4) 0.1265(4) 1. 0 
O7 O2- 4 e 0.9539(4) 0.2019(4) 0.8506(4) 1. 0 
O8 O2- 4 e 0.9060(4) 0.4561(4) 0.1387(4) 1. 0 

loop_
_atom_site_aniso_label
_atom_site_aniso_type_symbol
_atom_site_aniso_U_11
_atom_site_aniso_U_22
_atom_site_aniso_U_33
_atom_site_aniso_U_12
_atom_site_aniso_U_13
_atom_site_aniso_U_23
K1 K1+ 0.0225(8) 0.0309(9) 0.0209(7) 0.0007(6) 0.0189(6) 0.0112(6)
K2 K1+ 0.0135(7) 0.0178(7) 0.0153(7) 0.0001(5) 0.0065(5) -.0022(5)
K3 K1+ 0.0143(7) 0.0290(9) 0.0195(7) -.0007(6) 0.0071(6) 0.0083(6)
K4 K1+ 0.0189(6) 0.0183(7) 0.0121(6) 0.0008(5) 0.0067(5) -.0008(5)
K5 K1+ 0.0196(6) 0.0175(7) 0.0162(6) -.0025(6) 0.0117(5) -.0013(6)
K6 K1+ 0.0221(8) 0.0279(9) 0.0201(7) 0.0049(6) 0.0126(7) 0.0098(6)
Si1 Si4+ 0.0098(8) 0.0098(8) 0.0088(8) 0.0000(6) 0.0054(7) 0.0009(6)
Si2 Si4+ 0.0113(8) 0.0080(8) 0.0090(8) 0.0008(6) 0.0048(7) 0.0019(6)
Li1 Li1+ 0.024(6) 0.009(5) 0.029(6) 0.001(4) 0.013(6) 0.009(5)
Li2 Li1+ 0.014(6) 0.020(5) 0.011(5) 0.002(4) 0.010(5) 0.001(4)
O1 O2- 0.021(2) 0.015(2) 0.035(3) 0.002(2) 0.020(2) 0.003(2)
O2 O2- 0.015(2) 0.012(2) 0.019(2) -.002(2) 0.011(2) -.002(2)
O3 O2- 0.016(2) 0.011(2) 0.018(2) 0.001(2) 0.012(2) 0.003(2)
O4 O2- 0.015(2) 0.013(2) 0.008(2) -.004(2) 0.003(2) 0.001(2)
O5 O2- 0.017(2) 0.021(3) 0.008(2) -.001(2) 0.003(2) -.001(2)
O6 O2- 0.013(2) 0.011(2) 0.010(2) -.001(2) 0.001(2) 0.002(2)
O7 O2- 0.018(2) 0.018(2) 0.016(2) 0.003(2) 0.013(2) 0.000(2)
O8 O2- 0.022(3) 0.012(2) 0.011(2) 0.000(2) 0.002(2) -.001(2)
#End of data_65291-ICSD


