data_161260-ICSD
#?2014 by Fachinformationszentrum Karlsruhe, and the U.S. Secretary of 
#Commerce on behalf of the United States.  All rights reserved.
_database_code_ICSD                161260
_audit_creation_date               2009/02/01
_chemical_name_systematic
;
Decamagnesium Tetradceaoxotetrahydroxotrigermanate
;
_chemical_formula_structural       'Mg10 (Ge3 O14 (O H)4)'
_chemical_formula_sum              'H4 Ge3 Mg10 O18'
_publ_section_title
;
Protonation in germanium equivalents of ringwoodite, anhydrous phase 
B and superhydrous phase B
;
loop_
_citation_id
_citation_journal_abbrev
_citation_year
_citation_journal_volume
_citation_page_first
_citation_page_last
_citation_journal_id_ASTM
primary 'American Mineralogist' 2008 93 1282 1294 AMMIAY
_publ_author_name
;
Thomas, S.-M.;Koch-Mueller, M.;Kahlenberg, V.;Thomas, R.;Rhede, 
D.;Wirth, R.;Wunder, B.
;
_cell_length_a                     14.202(1)
_cell_length_b                     5.1676(2)
_cell_length_c                     8.8756(4)
_cell_angle_alpha                  90.
_cell_angle_beta                   90.
_cell_angle_gamma                  90.
_cell_volume                       651.38
_cell_formula_units_Z              2
_symmetry_space_group_name_H-M     'P n n 2'
_symmetry_Int_Tables_number        34
loop_
_symmetry_equiv_pos_site_id
_symmetry_equiv_pos_as_xyz
  1	'x+.5, -y+.5, z+.5'
  2	'-x+.5, y+.5, z+.5'
  3	'-x, -y, z'
  4	'x, y, z'
loop_
_atom_type_symbol
_atom_type_oxidation_number
Ge4+	4
H1+	1
Mg2+	2
O2-	-2
loop_
_atom_site_label
_atom_site_type_symbol
_atom_site_symmetry_multiplicity
_atom_site_Wyckoff_symbol
_atom_site_fract_x
_atom_site_fract_y
_atom_site_fract_z
_atom_site_occupancy
_atom_site_attached_hydrogens
Ge1 Ge4+ 2 a 0 0 -0.096(6) 1. 0 
Ge2 Ge4+ 4 c 0.377(1) 0.012(2) -0.092(6) 1. 0 
H1 H1+ 4 c 0.300 0.600 0.100 1. 0 
H2 H1+ 4 c 0.270 0.180 0.310 1. 0 
Mg1 Mg2+ 4 c 0.174(2) 0.332(4) -0.086(6) 1. 0 
Mg2 Mg2+ 4 c 0.174(3) 0.862(9) 0.086(6) 1. 0 
Mg3 Mg2+ 4 c 0.323(3) 0.334(9) 0.234(6) 1. 0 
Mg4 Mg2+ 2 b 0 0.5 0.732(8) 1. 0 
Mg5 Mg2+ 2 b 0 0.5 0.089(8) 1. 0 
Mg6 Mg2+ 2 a 0 0 0.567(9) 1. 0 
Mg7 Mg2+ 2 a 0 0 0.234(9) 1. 0 
O1 O2- 4 c 0.413(3) 0.680(8) 0.893(11) 1. 0 
O2 O2- 4 c 0.085(4) 0.685(8) -0.113(9) 1. 0 
O3 O2- 4 c 0.253(3) 0.019(14) -0.078(10) 1. 0 
O4 O2- 4 c 0.257(4) 0.006(20) 0.244(10) 1. 0 
O5 O2- 4 c 0.263(4) 0.506(18) 0.057(9) 1. 0 
O6 O2- 4 c 0.067(5) 0.142(15) 0.068(9) 1. 0 
O7 O2- 4 c 0.419(5) 0.647(16) 0.268(9) 1. 0 
O8 O2- 4 c 0.408(4) 0.163(14) 0.069(9) 1. 0 
O9 O2- 4 c 0.077(4) 0.695(14) 0.234(9) 1. 0 

#End of data_161260-ICSD


