data_1570-ICSD
#?2014 by Fachinformationszentrum Karlsruhe, and the U.S. Secretary of 
#Commerce on behalf of the United States.  All rights reserved.
_database_code_ICSD                1570
_audit_creation_date               1980/01/01
_audit_update_record               2012/08/01
_chemical_name_systematic          'Potassium Thallium Oxide'
_chemical_formula_structural       'K Tl O'
_chemical_formula_sum              'K1 O1 Tl1'
_publ_section_title
;
Oxothallate(I) der Alkalimetalle: K Tl O, Rb Tl O und Cs Tl O
;
loop_
_citation_id
_citation_journal_abbrev
_citation_year
_citation_journal_volume
_citation_page_first
_citation_page_last
_citation_journal_id_ASTM
primary 'Zeitschrift fuer Anorganische und Allgemeine Chemie (1950) (DE)'
 1978 438 213 221 ZAACAB
_publ_author_name                  'Sabrowsky, H.'
_cell_length_a                     12.87
_cell_length_b                     3.621
_cell_length_c                     6.286
_cell_angle_alpha                  90.
_cell_angle_beta                   106.5
_cell_angle_gamma                  90.
_cell_volume                       280.88
_cell_formula_units_Z              4
_symmetry_space_group_name_H-M     'C 1 2/m 1'
_symmetry_Int_Tables_number        12
_refine_ls_R_factor_all            .13
loop_
_symmetry_equiv_pos_site_id
_symmetry_equiv_pos_as_xyz
  1	'-x, y, -z'
  2	'-x, -y, -z'
  3	'x, -y, z'
  4	'x, y, z'
  5	'-x+.5, y+.5, -z'
  6	'-x+.5, -y+.5, -z'
  7	'x+.5, -y+.5, z'
  8	'x+.5, y+.5, z'
loop_
_atom_type_symbol
_atom_type_oxidation_number
K1+	1
O2-	-2
Tl1+	1
loop_
_atom_site_label
_atom_site_type_symbol
_atom_site_symmetry_multiplicity
_atom_site_Wyckoff_symbol
_atom_site_fract_x
_atom_site_fract_y
_atom_site_fract_z
_atom_site_occupancy
_atom_site_attached_hydrogens
_atom_site_B_iso_or_equiv
K1 K1+ 4 i 0.128 0 0.346 1. 0 0.46 
Tl1 Tl1+ 4 i 0.362 0 0.149 1. 0 0.77 
O1 O2- 4 i 0.748 0 0.24 1. 0 1.71 

#End of data_1570-ICSD


