data_415378-ICSD
#?2014 by Fachinformationszentrum Karlsruhe, and the U.S. Secretary of 
#Commerce on behalf of the United States.  All rights reserved.
_database_code_ICSD                415378
_audit_creation_date               2007/08/01
_chemical_name_systematic
;
Dipotassium Sulfato(VI)trifluoromanganate(III) - Lt
;
_chemical_formula_structural       'K2 (Mn F3 (S O4))'
_chemical_formula_sum              'F3 K2 Mn1 O4 S1'
_publ_section_title
;
Jahn-Teller-Ordnung in Mangan(III)-fluoridsulfaten.  II. 
Phasen?bergang und Verzwillingung bei K2 (Mn F3 (S O4)) und 1D 
Magnetismus in Verbindungen A2 (Mn F3 (S O4)) (A = K, N H4, Rb, Cs)
;
loop_
_citation_id
_citation_journal_abbrev
_citation_year
_citation_journal_volume
_citation_page_first
_citation_page_last
_citation_journal_id_ASTM
primary 'Zeitschrift fuer Anorganische und Allgemeine Chemie (1950) (DE)'
 2005 631 1785 1792 ZAACAB
_publ_author_name
;
Klein, U.;Hahn, F.;Massa, W.;Pebler, J.
;
_cell_length_a                     7.2193(9)
_cell_length_b                     10.7386(13)
_cell_length_c                     8.4468(13)
_cell_angle_alpha                  90.00
_cell_angle_beta                   91.345(11)
_cell_angle_gamma                  90.00
_cell_volume                       654.66
_cell_formula_units_Z              4
_symmetry_space_group_name_H-M     'P 1 21/c 1'
_symmetry_Int_Tables_number        14
_refine_ls_R_factor_all            .0234
loop_
_symmetry_equiv_pos_site_id
_symmetry_equiv_pos_as_xyz
  1	'x, -y+.5, z+.5'
  2	'-x, -y, -z'
  3	'-x, y+.5, -z+.5'
  4	'x, y, z'
loop_
_atom_type_symbol
_atom_type_oxidation_number
F1-	-1
K1+	1
Mn3+	3
O2-	-2
S6+	6
loop_
_atom_site_label
_atom_site_type_symbol
_atom_site_symmetry_multiplicity
_atom_site_Wyckoff_symbol
_atom_site_fract_x
_atom_site_fract_y
_atom_site_fract_z
_atom_site_occupancy
_atom_site_attached_hydrogens
_atom_site_U_iso_or_equiv
K1 K1+ 4 e 0.19347(5) 0.19091(3) 0.32780(4) 1 0 0.02237(8) 
K2 K1+ 4 e -0.30391(5) 0.30919(3) 0.17335(4) 1 0 0.02184(7) 
Mn1 Mn3+ 2 b 0.5000 0.0000 0.0000 1 0 0.01062(6) 
Mn2 Mn3+ 2 a 0.0000 0.0000 0.0000 1 0 0.01051(6) 
S1 S6+ 4 e 0.74936(5) -0.00045(3) 0.31163(4) 1 0 0.01394(7) 
F1 F1- 4 e 0.47627(12) 0.33771(8) 0.44209(10) 1 0 0.01757(16) 
F2 F1- 4 e -0.02617(12) 0.16189(8) 0.05373(11) 1 0 0.01794(16) 
F3 F1- 4 e 0.24320(12) 0.00053(9) 0.10991(10) 1 0 0.01800(16) 
O1 O2- 4 e 0.10901(15) 0.43907(10) 0.28817(12) 1 0 0.01804(19) 
O2 O2- 4 e 0.60684(14) 0.05927(10) 0.20173(12) 1 0 0.01697(18) 
O3 O2- 4 e 0.66190(17) -0.09564(13) 0.40504(15) 1 0 0.0288(3) 
O4 O2- 4 e 0.83240(17) 0.09962(12) 0.40441(14) 1 0 0.0265(2) 

loop_
_atom_site_aniso_label
_atom_site_aniso_type_symbol
_atom_site_aniso_U_11
_atom_site_aniso_U_22
_atom_site_aniso_U_33
_atom_site_aniso_U_12
_atom_site_aniso_U_13
_atom_site_aniso_U_23
K1 K1+ 0.02833(17) 0.01702(14) 0.02142(14) -0.00171(11) -0.00634(11) 
-0.00036(11)
K2 K1+ 0.02667(16) 0.01761(14) 0.02154(14) 0.00160(11) 0.00709(11) 
-0.00065(11)
Mn1 Mn3+ 0.00941(11) 0.00995(12) 0.01251(12) 0.00065(8) 0.00068(8) 
0.00051(8)
Mn2 Mn3+ 0.00933(12) 0.00967(12) 0.01254(12) 0.00070(8) 0.00062(8) 
-0.00061(8)
S1 S6+ 0.01411(14) 0.01637(14) 0.01137(13) -0.00129(10) 0.00062(10) 
0.00036(10)
F1 F1- 0.0210(4) 0.0113(4) 0.0203(4) -0.0019(3) -0.0012(3) -0.0023(3)
F2 F1- 0.0208(4) 0.0112(4) 0.0219(4) 0.0018(3) 0.0021(3) -0.0018(3)
F3 F1- 0.0137(4) 0.0232(4) 0.0172(4) 0.0003(3) 0.0012(3) -0.0004(3)
O1 O2- 0.0193(5) 0.0169(5) 0.0180(4) -0.0026(3) 0.0030(3) -0.0008(4)
O2 O2- 0.0194(5) 0.0162(5) 0.0152(4) 0.0019(3) -0.0018(3) -0.0011(3)
O3 O2- 0.0243(6) 0.0360(7) 0.0263(6) -0.0046(5) 0.0021(4) 0.0160(5)
O4 O2- 0.0245(5) 0.0313(6) 0.0237(5) -0.0031(4) -0.0031(4) -0.0147(5)
#End of data_415378-ICSD


