data_165358-ICSD
#?2014 by Fachinformationszentrum Karlsruhe, and the U.S. Secretary of 
#Commerce on behalf of the United States.  All rights reserved.
_database_code_ICSD                165358
_audit_creation_date               2010/02/01
_chemical_name_systematic
;
Dipotassium Iron Hexaselenodiphosphate(V)
;
_chemical_formula_structural       'K2 Fe (P2 Se6)'
_chemical_formula_sum              'Fe1 K2 P2 Se6'
_publ_section_title
;
Synthesis in molten alkali polyselenophosphate fluxes: a new family 
of transition metal selenophosphate compounds, A2 M P2 Se6 (A= K, Rb, 
Cs; M= Mn, Fe) and A2 M'2 P2 Se6 (A= K, Cs; M'= Cu, Ag)
;
loop_
_citation_id
_citation_journal_abbrev
_citation_year
_citation_journal_volume
_citation_journal_issue
_citation_page_first
_citation_page_last
_citation_journal_id_ASTM
primary 'Inorganic Chemistry' 1995 34 5 1257 1267 INOCAJ
_publ_author_name                  'McCarthy, T.J.;Kanatzidis, M.G.'
_cell_length_a                     6.421(2)
_cell_length_b                     12.720(5)
_cell_length_c                     7.535(3)
_cell_angle_alpha                  90
_cell_angle_beta                   102.58(3)
_cell_angle_gamma                  90.
_cell_volume                       600.65
_cell_formula_units_Z              2
_symmetry_space_group_name_H-M     'P 1 21/n 1'
_symmetry_Int_Tables_number        14
_refine_ls_R_factor_all            .039
loop_
_symmetry_equiv_pos_site_id
_symmetry_equiv_pos_as_xyz
  1	'-x+.5, y+.5, -z+.5'
  2	'-x, -y, -z'
  3	'x+.5, -y+.5, z+.5'
  4	'x, y, z'
loop_
_atom_type_symbol
_atom_type_oxidation_number
Fe2+	2
K1+	1
P4+	4
Se2-	-2
loop_
_atom_site_label
_atom_site_type_symbol
_atom_site_symmetry_multiplicity
_atom_site_Wyckoff_symbol
_atom_site_fract_x
_atom_site_fract_y
_atom_site_fract_z
_atom_site_occupancy
_atom_site_attached_hydrogens
_atom_site_B_iso_or_equiv
Se1 Se2- 4 e 0.2218(2) 0.3298(1) 0.9321(2) 1. 0 2.50(6) 
Se2 Se2- 4 e 0.1876(2) 0.5841(1) 0.7458(2) 1. 0 2.29(6) 
Se3 Se2- 4 e -0.3185(2) 0.4410(1) 0.7334(2) 1. 0 2.35(6) 
Fe1 Fe2+ 2 b 0.5 0.5 0 1. 0 1.8(1) 
P1 P4+ 4 e 0.0144(5) 0.4667(2) 0.8667(5) 1. 0 1.4(1) 
K1 K1+ 4 e 0.2246(6) 0.8077(3) 0.0432(5) 1. 0 3.6(2) 

#End of data_165358-ICSD


