data_35339-ICSD
#?2014 by Fachinformationszentrum Karlsruhe, and the U.S. Secretary of 
#Commerce on behalf of the United States.  All rights reserved.
_database_code_ICSD                35339
_audit_creation_date               1983/12/31
_chemical_name_systematic          'Zinc Platinum Diplatinum(IV) Oxide'
_chemical_formula_structural       'Zn Pt3 O6'
_chemical_formula_sum              'O6 Pt3 Zn1'
_publ_section_title
;
Structure and Crystal Chemistry of Mixed-Valence Ternary Platinum 
Oxides: Mn Pt3 O6, Co Pt3 O6, Zn Pt3 O6, Mg Pt3 O6, and Ni Pt3 O6
;
loop_
_citation_id
_citation_journal_abbrev
_citation_year
_citation_journal_volume
_citation_page_first
_citation_page_last
_citation_journal_id_ASTM
primary 'Acta Crystallographica, Section B: Structural Science'
 1983 39 217 226 ASBSDK
_publ_author_name
;
Schwartz, K.B.;Parise, J.B.;Prewitt, C.T.;Shannon, R.D.
;
_cell_length_a                     7.133(3)
_cell_length_b                     9.956(4)
_cell_length_c                     3.138(1)
_cell_angle_alpha                  90.
_cell_angle_beta                   90.
_cell_angle_gamma                  90.
_cell_volume                       222.85
_cell_formula_units_Z              2
_symmetry_space_group_name_H-M     'C m m m'
_symmetry_Int_Tables_number        65
_refine_ls_R_factor_all            .046
loop_
_symmetry_equiv_pos_site_id
_symmetry_equiv_pos_as_xyz
  1	'x, -y, z'
  2	'-x, y, z'
  3	'x, y, -z'
  4	'-x, -y, -z'
  5	'-x, y, -z'
  6	'x, -y, -z'
  7	'-x, -y, z'
  8	'x, y, z'
  9	'x+.5, -y+.5, z'
 10	'-x+.5, y+.5, z'
 11	'x+.5, y+.5, -z'
 12	'-x+.5, -y+.5, -z'
 13	'-x+.5, y+.5, -z'
 14	'x+.5, -y+.5, -z'
 15	'-x+.5, -y+.5, z'
 16	'x+.5, y+.5, z'
loop_
_atom_type_symbol
_atom_type_oxidation_number
O2-	-2
Pt2+	2
Pt4+	4
Zn2+	2
loop_
_atom_site_label
_atom_site_type_symbol
_atom_site_symmetry_multiplicity
_atom_site_Wyckoff_symbol
_atom_site_fract_x
_atom_site_fract_y
_atom_site_fract_z
_atom_site_occupancy
_atom_site_attached_hydrogens
_atom_site_B_iso_or_equiv
Zn1 Zn2+ 2 b 0.5 0 0 1. 0 -.2 
Pt1 Pt2+ 2 a 0 0 0 1. 0 -.2 
Pt2 Pt4+ 4 f 0.25 0.25 0.5 1. 0 -.2 
O1 O2- 4 j 0 0.349(2) 0.5 1. 0 -.2 
O2 O2- 8 p 0.211(1) 0.124(1) 0 1. 0 -.2 

#End of data_35339-ICSD


