data_65025-ICSD
#?2014 by Fachinformationszentrum Karlsruhe, and the U.S. Secretary of 
#Commerce on behalf of the United States.  All rights reserved.
_database_code_ICSD                65025
_audit_creation_date               1989/06/19
_chemical_name_systematic          'Dilithium Dimagnesium Trisulfate'
_chemical_formula_structural       'Li2 Mg2 (S O4)3'
_chemical_formula_sum              'Li2 Mg2 O12 S3'
_publ_section_title
;
Structure of dilithium dimagnesium trisulfate
;
loop_
_citation_id
_citation_journal_abbrev
_citation_year
_citation_journal_volume
_citation_page_first
_citation_page_last
_citation_journal_id_ASTM
primary 'Acta Crystallographica, Section C: Crystal Structure Communications'
 1988 44 1887 1889 ACSCEE
_publ_author_name
;
Touboul, M.;Quarton, M.;Lokaj, J.;Kettmann, V.
;
_cell_length_a                     12.165(2)
_cell_length_b                     8.538(1)
_cell_length_c                     8.689(1)
_cell_angle_alpha                  90.
_cell_angle_beta                   90.
_cell_angle_gamma                  90.
_cell_volume                       902.48
_cell_formula_units_Z              4
_symmetry_space_group_name_H-M     'P b c n'
_symmetry_Int_Tables_number        60
_refine_ls_R_factor_all            .026
loop_
_symmetry_equiv_pos_site_id
_symmetry_equiv_pos_as_xyz
  1	'x, -y, z+.5'
  2	'-x+.5, y+.5, z'
  3	'x+.5, y+.5, -z+.5'
  4	'-x, -y, -z'
  5	'-x, y, -z+.5'
  6	'x+.5, -y+.5, -z'
  7	'-x+.5, -y+.5, z+.5'
  8	'x, y, z'
loop_
_atom_type_symbol
_atom_type_oxidation_number
Li1+	1
Mg2+	2
O2-	-2
S6+	6
loop_
_atom_site_label
_atom_site_type_symbol
_atom_site_symmetry_multiplicity
_atom_site_Wyckoff_symbol
_atom_site_fract_x
_atom_site_fract_y
_atom_site_fract_z
_atom_site_occupancy
_atom_site_attached_hydrogens
Li1 Li1+ 8 d 0.67910(23) 0.28535(34) 0.77911(30) 1. 0 
Mg1 Mg2+ 8 d 0.60926(4) 0.24586(5) 0.45804(5) 1. 0 
S1 S6+ 4 c 0.5 0.04719(4) 0.75 1. 0 
S2 S6+ 8 d 0.64889(2) 0.60518(3) 0.60478(3) 1. 0 
O1 O2- 8 d 0.57742(8) 0.15038(13) 0.66711(12) 1. 0 
O2 O2- 8 d 0.56354(10) -.04633(14) 0.85730(13) 1. 0 
O3 O2- 8 d 0.65915(8) 0.43325(11) 0.60719(11) 1. 0 
O4 O2- 8 d 0.68170(8) 0.66642(11) 0.75702(11) 1. 0 
O5 O2- 8 d 0.53697(9) 0.64993(13) 0.56848(14) 1. 0 
O6 O2- 8 d 0.72370(8) 0.66920(13) 0.48597(11) 1. 0 

#End of data_65025-ICSD


