data_166705-ICSD
#?2014 by Fachinformationszentrum Karlsruhe, and the U.S. Secretary of 
#Commerce on behalf of the United States.  All rights reserved.
_database_code_ICSD                166705
_audit_creation_date               2010/08/01
_chemical_name_systematic          'Dirubidium Tetrachlorozincate'
_chemical_formula_structural       'Rb2 (Zn Cl4)'
_chemical_formula_sum              'Cl4 Rb2 Zn1'
_publ_section_title
;
Pressure-induced disorder in Rb2 Zn Cl4
;
loop_
_citation_id
_citation_journal_abbrev
_citation_year
_citation_journal_volume
_citation_page_first
_citation_page_last
_citation_journal_id_ASTM
primary 'Journal of Physics: Condensed Matter' 2009 21 405405-1 405405-11 JCOMEL
_publ_author_name                  'Machon, D;Grzechnik, A.;Friese, K.'
_cell_length_a                     7.168(2)
_cell_length_b                     12.550(2)
_cell_length_c                     9.184(3)
_cell_angle_alpha                  90.
_cell_angle_beta                   90.
_cell_angle_gamma                  90.
_cell_volume                       826.18
_cell_formula_units_Z              4
_symmetry_space_group_name_H-M     'P m c n'
_symmetry_Int_Tables_number        62
_refine_ls_R_factor_all            .1221
loop_
_symmetry_equiv_pos_site_id
_symmetry_equiv_pos_as_xyz
  1	'x, -y+.5, z+.5'
  2	'-x+.5, y, z'
  3	'x+.5, y+.5, -z+.5'
  4	'-x, -y, -z'
  5	'-x, y+.5, -z+.5'
  6	'x+.5, -y, -z'
  7	'-x+.5, -y+.5, z+.5'
  8	'x, y, z'
loop_
_atom_type_symbol
_atom_type_oxidation_number
Cl1-	-1
Rb1+	1
Zn2+	2
loop_
_atom_site_label
_atom_site_type_symbol
_atom_site_symmetry_multiplicity
_atom_site_Wyckoff_symbol
_atom_site_fract_x
_atom_site_fract_y
_atom_site_fract_z
_atom_site_occupancy
_atom_site_attached_hydrogens
_atom_site_U_iso_or_equiv
Rb1 Rb1+ 4 c 0.250 0.8210(5) 0.4825(6) 1. 0 0.026(2) 
Rb2 Rb1+ 4 c 0.250 0.4038(6) 0.6300(8) 1. 0 0.052(3) 
Zn1 Zn2+ 4 c 0.250 0.4244(5) 0.2255(7) 1. 0 0.016(2) 
Cl1 Cl1- 4 c 0.250 0.414(2) -0.014(2) 1. 0 0.062(6) 
Cl2 Cl1- 4 c 0.250 0.590(2) 0.321(2) 1. 0 0.068(7) 
Cl3 Cl1- 8 d 0.008(3) 0.342(1) 0.317(2) 1. 0 0.067(5) 

#End of data_166705-ICSD


