data_236561-ICSD
#?2014 by Fachinformationszentrum Karlsruhe, and the U.S. Secretary of 
#Commerce on behalf of the United States.  All rights reserved.
_database_code_ICSD                236561
_audit_creation_date               2014/08/01
_chemical_name_systematic          'Bismuth Aluminium Oxide (2/4/9)'
_chemical_formula_structural       'Bi2 Al4 O9'
_chemical_formula_sum              'Al4 Bi2 O9'
_publ_section_title
;
Liebau density vector: a new approach to characterize lone electron 
pairs in mullite-type materials
;
loop_
_citation_id
_citation_journal_abbrev
_citation_year
_citation_journal_volume
_citation_journal_issue
_citation_page_first
_citation_page_last
_citation_journal_id_ASTM
primary 'Zeitschrift fuer Kristallographie - Crystalline Materials'
 2013 228 12 629 634 ZKCMAJ
_publ_author_name
;
Curti, Mariano;Gesing, Thorsten M.;Murshed, M. Mangir;Bredow, 
Thomas;Mendive, Cecilia B.
;
_cell_length_a                     7.7385(5)
_cell_length_b                     8.1221(4)
_cell_length_c                     5.7070(4)
_cell_angle_alpha                  90.
_cell_angle_beta                   90.
_cell_angle_gamma                  90.
_cell_volume                       358.7
_cell_formula_units_Z              2
_symmetry_space_group_name_H-M     'P b a m'
_symmetry_Int_Tables_number        55
_refine_ls_R_factor_all            .0238
loop_
_symmetry_equiv_pos_site_id
_symmetry_equiv_pos_as_xyz
  1	'x+.5, -y+.5, z'
  2	'-x+.5, y+.5, z'
  3	'x, y, -z'
  4	'-x, -y, -z'
  5	'-x+.5, y+.5, -z'
  6	'x+.5, -y+.5, -z'
  7	'-x, -y, z'
  8	'x, y, z'
loop_
_atom_type_symbol
_atom_type_oxidation_number
Al3+	3
Bi3+	3
O2-	-2
loop_
_atom_site_label
_atom_site_type_symbol
_atom_site_symmetry_multiplicity
_atom_site_Wyckoff_symbol
_atom_site_fract_x
_atom_site_fract_y
_atom_site_fract_z
_atom_site_occupancy
_atom_site_attached_hydrogens
_atom_site_U_iso_or_equiv
Bi1 Bi3+ 4 g 0.32955(3) 0.16749(4) 0 1. 0 0.0087(2) 
Al1 Al3+ 4 e 0 0 0.2610(3) 1. 0 0.0078(4) 
Al2 Al3+ 4 h 0.1468(3) 0.3406(3) 0.5 1. 0 0.0082(5) 
O1 O2- 4 g 0.3578(8) 0.4293(7) 0 1. 0 0.0090(11) 
O2 O2- 4 h 0.3642(8) 0.4123(7) 0.5 1. 0 0.0086(11) 
O3 O2- 8 i 0.1286(6) 0.2063(5) 0.2502(8) 1. 0 0.0103(8) 
O4 O2- 2 d 0 0.5 0.5 1. 0 0.0181(16) 

loop_
_atom_site_aniso_label
_atom_site_aniso_type_symbol
_atom_site_aniso_U_11
_atom_site_aniso_U_22
_atom_site_aniso_U_33
_atom_site_aniso_U_12
_atom_site_aniso_U_13
_atom_site_aniso_U_23
Bi1 Bi3+ 0.0085(2) 0.0075(2) 0.0102(2) 0 0 -0.00031(9)
Al1 Al3+ 0.0080(9) 0.0086(9) 0.0069(9) 0.0000 0.0000 0.0005(8)
Al2 Al3+ 0.0093(11) 0.0074(11) 0.008(1) 0.0000 0.0000 -0.0044(8)
O1 O2- 0.008(3) 0.005(2) 0.014(3) 0.000 0.000 -0.001(2)
O2 O2- 0.010(3) 0.009(3) 0.006(2) 0.000 0.000 -0.002(2)
O3 O2- 0.0120(16) 0.0097(16) 0.009(2) -0.001(2) 0.003(2) -0.0019(14)
O4 O2- 0.020(4) 0.012(3) 0.023(4) 0.000 0.000 0.006(4)
#End of data_236561-ICSD


