data_25793-ICSD
#?2014 by Fachinformationszentrum Karlsruhe, and the U.S. Secretary of 
#Commerce on behalf of the United States.  All rights reserved.
_database_code_ICSD                25793
_audit_creation_date               1980/01/01
_audit_update_record               2000/12/16
_chemical_name_systematic
;
Calcium Manganese Catena-disilicate
;
_chemical_formula_structural       'Ca Mn (Si2 O6)'
_chemical_formula_sum              'Ca1 Mn1 O6 Si2'
_chemical_name_mineral             Johannsenite
_publ_section_title
;
Oriented transformation of johannsenite to bustamite
;
loop_
_citation_id
_citation_journal_abbrev
_citation_year
_citation_journal_volume
_citation_page_first
_citation_page_last
_citation_journal_id_ASTM
primary 'Mineralogical Journal (Japan)' 1966 5 44 64 MJTOAS
_publ_author_name
;
Morimoto, N.;Koto, K.;Shinohara, T.
;
_cell_length_a                     9.93
_cell_length_b                     9.11
_cell_length_c                     5.26
_cell_angle_alpha                  90.
_cell_angle_beta                   105.18
_cell_angle_gamma                  90.
_cell_volume                       459.23
_cell_formula_units_Z              4
_symmetry_space_group_name_H-M     'C 1 2/c 1'
_symmetry_Int_Tables_number        15
_refine_ls_R_factor_all            .11
loop_
_symmetry_equiv_pos_site_id
_symmetry_equiv_pos_as_xyz
  1	'x, -y, z+.5'
  2	'-x, -y, -z'
  3	'-x, y, -z+.5'
  4	'x, y, z'
  5	'x+.5, -y+.5, z+.5'
  6	'-x+.5, -y+.5, -z'
  7	'-x+.5, y+.5, -z+.5'
  8	'x+.5, y+.5, z'
loop_
_atom_type_symbol
_atom_type_oxidation_number
Ca2+	2
Mn2+	2
O2-	-2
Si4+	4
loop_
_atom_site_label
_atom_site_type_symbol
_atom_site_symmetry_multiplicity
_atom_site_Wyckoff_symbol
_atom_site_fract_x
_atom_site_fract_y
_atom_site_fract_z
_atom_site_occupancy
_atom_site_attached_hydrogens
_atom_site_B_iso_or_equiv
Ca1 Ca2+ 4 e 0 0.3001(5) 0.25 1. 0 0.65 
Mn1 Mn2+ 4 e 0 0.9 0.25 1. 0 0.46 
Si1 Si4+ 8 f 0.2977(4) 0.0915(5) 0.2350(18) 1. 0 0.5 
O1 O2- 8 f 0.1219(12) 0.0918(14) 0.1504(45) 1. 0 0.58 
O2 O2- 8 f 0.3634(15) 0.2421(16) 0.3261(48) 1. 0 0.89 
O3 O2- 8 f 0.3498(14) 0.0195(13) 0.0003(44) 1. 0 1.05 

#End of data_25793-ICSD


