data_79711-ICSD
#?2014 by Fachinformationszentrum Karlsruhe, and the U.S. Secretary of 
#Commerce on behalf of the United States.  All rights reserved.
_database_code_ICSD                79711
_audit_creation_date               1996/10/14
_audit_update_record               2012/02/01
_chemical_name_systematic          'Potassium Alumodiarsenate(V)'
_chemical_formula_structural       'K (Al As2 O7)'
_chemical_formula_sum              'Al1 As2 K1 O7'
_publ_section_title                'K Al As2 O7'
loop_
_citation_id
_citation_journal_abbrev
_citation_year
_citation_journal_volume
_citation_page_first
_citation_page_last
_citation_journal_id_ASTM
primary 'Acta Crystallographica, Section C: Crystal Structure Communications'
 1995 51 179 181 ACSCEE
_publ_author_name                  'Boughzala, H.;Jouini, T.'
_cell_length_a                     6.192(4)
_cell_length_b                     6.297(3)
_cell_length_c                     8.106(1)
_cell_angle_alpha                  96.600(8)
_cell_angle_beta                   104.517(8)
_cell_angle_gamma                  102.864(7)
_cell_volume                       293.37
_cell_formula_units_Z              2
_symmetry_space_group_name_H-M     'P -1'
_symmetry_Int_Tables_number        2
_refine_ls_R_factor_all            .033
loop_
_symmetry_equiv_pos_site_id
_symmetry_equiv_pos_as_xyz
  1	'-x, -y, -z'
  2	'x, y, z'
loop_
_atom_type_symbol
_atom_type_oxidation_number
Al3+	3
As5+	5
K1+	1
O2-	-2
loop_
_atom_site_label
_atom_site_type_symbol
_atom_site_symmetry_multiplicity
_atom_site_Wyckoff_symbol
_atom_site_fract_x
_atom_site_fract_y
_atom_site_fract_z
_atom_site_occupancy
_atom_site_attached_hydrogens
As1 As5+ 2 i 0.48649(9) 0.24567(9) 0.33563(7) 1. 0 
As2 As5+ 2 i 0.82650(9) 0.53194(9) 0.18966(7) 1. 0 
K1 K1+ 1 a 0 0 0 1. 0 
K2 K1+ 1 b 0 0 0.5 1. 0 
Al1 Al3+ 2 i 0.3752(3) 0.6911(3) 0.2262(2) 1. 0 
O1 O2- 2 i 0.4218(7) -.0059(7) 0.2210(6) 1. 0 
O2 O2- 2 i 0.4569(7) 0.2484(7) 0.5329(5) 1. 0 
O3 O2- 2 i 0.3179(7) 0.3807(7) 0.2200(5) 1. 0 
O4 O2- 2 i 0.7743(7) 0.3726(7) 0.3477(5) 1. 0 
O5 O2- 2 i 0.7847(7) 0.3495(7) 0.0129(5) 1. 0 
O6 O2- 2 i 0.6607(7) 0.7086(7) 0.1776(6) 1. 0 
O7 O2- 2 i 0.0944(7) 0.6892(7) 0.2787(5) 1. 0 

loop_
_atom_site_aniso_label
_atom_site_aniso_type_symbol
_atom_site_aniso_U_11
_atom_site_aniso_U_22
_atom_site_aniso_U_33
_atom_site_aniso_U_12
_atom_site_aniso_U_13
_atom_site_aniso_U_23
As1 As5+ 0.0042(4) 0.0099(4) 0.0082(4) 0.0038(2) 0.0026(2) 0.0030(2)
As2 As5+ 0.0029(4) 0.0110(4) 0.0091(4) 0.0039(2) 0.0031(2) 0.0026(2)
K1 K1+ 0.0316(13) 0.0190(12) 0.045(2) 0.008(1) -.0220(11) 0.0016(10)
K2 K1+ 0.0273(14) 0.044(2) 0.058(2) -.0036(12) 0.0236(13) -.0218(14)
Al1 Al3+ 0.0001(7) 0.0079(8) 0.0052(8) 0.0033(6) 0.0013(6) 0.0017(6)
O1 O2- 0.015(2) 0.012(2) 0.017(2) 0.007(2) 0.007(2) 0.005(2)
O2 O2- 0.008(2) 0.019(2) 0.010(2) 0.004(2) 0.003(2) 0.004(2)
O3 O2- 0.007(2) 0.011(2) 0.015(2) 0.006(2) 0.000(2) 0.003(2)
O4 O2- 0.004(2) 0.016(2) 0.015(2) 0.004(2) 0.003(2) 0.008(2)
O5 O2- 0.009(2) 0.018(2) 0.011(2) 0.008(2) 0.003(2) 0.002(2)
O6 O2- 0.008(2) 0.012(2) 0.017(2) 0.006(2) 0.007(2) 0.005(2)
O7 O2- 0.006(2) 0.014(2) 0.010(2) 0.004(2) 0.003(2) 0.000(2)
#End of data_79711-ICSD


