data_404249-ICSD
#?2014 by Fachinformationszentrum Karlsruhe, and the U.S. Secretary of 
#Commerce on behalf of the United States.  All rights reserved.
_database_code_ICSD                404249
_audit_creation_date               1996/10/14
_audit_update_record               2000/07/15
_chemical_name_systematic          'Potassium Barium Vanadate(V)'
_chemical_formula_structural       'K Ba (V O4)'
_chemical_formula_sum              'Ba1 K1 O4 V1'
_publ_section_title
;
Geordnete Metallverteilung in K Ba V O4 und K Sr V O4 mit beta - K2 S 
O4 - Struktur
;
loop_
_citation_id
_citation_journal_abbrev
_citation_year
_citation_journal_volume
_citation_page_first
_citation_page_last
_citation_journal_id_ASTM
primary 'Zeitschrift fuer Naturforschung, B: Chemical Sciences'
 1996 51 477 480 ZNBSEN
_publ_author_name                  'Mueller Buschbaum, H.;Schrandt, O.'
_cell_length_a                     7.7736(14)
_cell_length_b                     5.899(1)
_cell_length_c                     10.3752(12)
_cell_angle_alpha                  90.
_cell_angle_beta                   90.
_cell_angle_gamma                  90.
_cell_volume                       475.77
_cell_formula_units_Z              4
_symmetry_space_group_name_H-M     'P n m a'
_symmetry_Int_Tables_number        62
_refine_ls_R_factor_all            .0974
loop_
_symmetry_equiv_pos_site_id
_symmetry_equiv_pos_as_xyz
  1	'x+.5, y, -z+.5'
  2	'x, -y+.5, z'
  3	'-x+.5, y+.5, z+.5'
  4	'-x, -y, -z'
  5	'-x+.5, -y, z+.5'
  6	'-x, y+.5, -z'
  7	'x+.5, -y+.5, -z+.5'
  8	'x, y, z'
loop_
_atom_type_symbol
_atom_type_oxidation_number
Ba2+	2
K1+	1
O2-	-2
V5+	5
loop_
_atom_site_label
_atom_site_type_symbol
_atom_site_symmetry_multiplicity
_atom_site_Wyckoff_symbol
_atom_site_fract_x
_atom_site_fract_y
_atom_site_fract_z
_atom_site_occupancy
_atom_site_attached_hydrogens
Ba1 Ba2+ 4 c 0.99295(10) 0.25 0.69532(7) 1. 0 
V1 V5+ 4 c 0.7315(3) 0.25 0.0827(2) 1. 0 
K1 K1+ 4 c 0.1605(4) 0.25 0.0800(4) 1. 0 
O1 O2- 4 c 0.0117(13) 0.25 0.4237(9) 1. 0 
O2 O2- 4 c 0.8071(12) 0.25 0.9237(9) 1. 0 
O3 O2- 8 d 0.7976(9) 0.0101(13) 0.1623(7) 1. 0 

loop_
_atom_site_aniso_label
_atom_site_aniso_type_symbol
_atom_site_aniso_U_11
_atom_site_aniso_U_22
_atom_site_aniso_U_33
_atom_site_aniso_U_12
_atom_site_aniso_U_13
_atom_site_aniso_U_23
Ba1 Ba2+ 0.0116(2) 0.0128(3) 0.0126(2) 0 0.0005(3) 0
V1 V5+ 0.0125(8) 0.0068(8) 0.0086(8) 0 0.0011(7) 0
K1 K1+ 0.0200(12) 0.0190(14) 0.0237(14) 0 0.0031(12) 0
O1 O2- 0.015(4) 0.038(6) 0.011(3) 0 -.006(4) 0
O2 O2- 0.018(4) 0.021(5) 0.006(4) 0 0.007(3) 0
O3 O2- 0.024(3) 0.008(3) 0.026(4) -.001(3) -.006(3) 0.000(3)
#End of data_404249-ICSD


