data_417354-ICSD
#?2014 by Fachinformationszentrum Karlsruhe, and the U.S. Secretary of 
#Commerce on behalf of the United States.  All rights reserved.
_database_code_ICSD                417354
_audit_creation_date               2008/02/01
_chemical_name_systematic          'Disilver Hexaoxoditellurate(V)'
_chemical_formula_structural       'Ag2 (Te2 O6)'
_chemical_formula_sum              'Ag2 O6 Te2'
_publ_section_title
;
New silver tellurates - the crystal structures of a third 
modification of Ag2 T2 O6 and of Ag4 Te O5
;
loop_
_citation_id
_citation_journal_abbrev
_citation_year
_citation_journal_volume
_citation_journal_issue
_citation_page_first
_citation_page_last
_citation_journal_id_ASTM
primary 'Zeitschrift fuer Anorganische und Allgemeine Chemie (1950) (DE)'
 2007 633 8 1217 1222 ZAACAB
_publ_author_name                  'Weil, M.'
_cell_length_a                     6.4255(10)
_cell_length_b                     6.9852(11)
_cell_length_c                     13.204(2)
_cell_angle_alpha                  90.00
_cell_angle_beta                   90.090(3)
_cell_angle_gamma                  90.00
_cell_volume                       592.64
_cell_formula_units_Z              4
_symmetry_space_group_name_H-M     'P 1 21/c 1'
_symmetry_Int_Tables_number        14
_refine_ls_R_factor_all            .0414
loop_
_symmetry_equiv_pos_site_id
_symmetry_equiv_pos_as_xyz
  1	'x, -y+.5, z+.5'
  2	'-x, -y, -z'
  3	'-x, y+.5, -z+.5'
  4	'x, y, z'
loop_
_atom_type_symbol
_atom_type_oxidation_number
Ag1+	1
O2-	-2
Te5+	5
loop_
_atom_site_label
_atom_site_type_symbol
_atom_site_symmetry_multiplicity
_atom_site_Wyckoff_symbol
_atom_site_fract_x
_atom_site_fract_y
_atom_site_fract_z
_atom_site_occupancy
_atom_site_attached_hydrogens
_atom_site_U_iso_or_equiv
Ag1 Ag1+ 4 e 0.50423(12) 0.19594(11) 0.05124(7) 1 0 0.0436(2) 
Ag2 Ag1+ 4 e 0.53148(14) 0.07444(13) 0.29439(8) 1 0 0.0543(3) 
Te1 Te5+ 4 e 0.00172(6) 0.86836(5) 0.40776(3) 1 0 0.00956(10) 
Te2 Te5+ 4 e 0.13211(6) 0.34651(5) 0.35795(3) 1 0 0.01100(10) 
O1 O2- 4 e 0.1577(8) 0.1850(6) 0.0155(4) 1 0 0.0134(8) 
O2 O2- 4 e 0.1587(8) 0.0640(6) 0.3365(3) 1 0 0.0139(9) 
O3 O2- 4 e 0.1649(7) 0.5795(6) 0.0322(3) 1 0 0.0130(8) 
O4 O2- 4 e 0.1927(8) 0.6865(6) 0.3623(4) 1 0 0.0147(9) 
O5 O2- 4 e 0.1986(7) 0.3528(6) 0.1971(4) 1 0 0.0138(9) 
O6 O2- 4 e 0.4203(8) 0.3626(6) 0.3630(4) 1 0 0.0140(9) 

loop_
_atom_site_aniso_label
_atom_site_aniso_type_symbol
_atom_site_aniso_U_11
_atom_site_aniso_U_22
_atom_site_aniso_U_33
_atom_site_aniso_U_12
_atom_site_aniso_U_13
_atom_site_aniso_U_23
Ag1 Ag1+ 0.0264(4) 0.0383(4) 0.0661(5) 0.0045(3) -0.0239(3) -0.0049(3)
Ag2 Ag1+ 0.0451(5) 0.0473(5) 0.0704(6) 0.0274(4) 0.0146(4) -0.0152(4)
Te1 Te5+ 0.0134(2) 0.00492(15) 0.01032(17) 0.00061(12) 0.00021(13) 
-0.00063(12)
Te2 Te5+ 0.0124(2) 0.00736(16) 0.01323(19) -0.00031(12) 0.00035(14) 
0.00069(12)
O1 O2- 0.017(2) 0.0103(17) 0.013(2) 0.0016(16) -0.0006(17) -0.0035(16)
O2 O2- 0.020(2) 0.0066(17) 0.015(2) -0.0010(16) 0.0045(18) -0.0017(15)
O3 O2- 0.015(2) 0.0107(17) 0.013(2) -0.0012(16) -0.0016(16) 0.0020(16)
O4 O2- 0.016(2) 0.0076(17) 0.020(2) 0.0019(16) 0.0026(18) -0.0029(16)
O5 O2- 0.013(2) 0.0135(19) 0.015(2) -0.0021(16) 0.0000(17) 0.0020(16)
O6 O2- 0.014(2) 0.0118(18) 0.017(2) -0.0005(16) 0.0000(17) -0.0014(16)
#End of data_417354-ICSD


