data_414469-ICSD
#?2014 by Fachinformationszentrum Karlsruhe, and the U.S. Secretary of 
#Commerce on behalf of the United States.  All rights reserved.
_database_code_ICSD                414469
_audit_creation_date               2010/08/01
_chemical_name_systematic
;
Pentacalcium Octanitridodialumodisilicate
;
_chemical_formula_structural       'Ca5 (Si2 Al2 N8)'
_chemical_formula_sum              'Al2 Ca5 N8 Si2'
_publ_section_title
;
Synthesis, crystal and electronic structure of the 
nitridoaluminosilicate Ca5 [Si2 Al2 N8]
;
loop_
_citation_id
_citation_journal_abbrev
_citation_year
_citation_journal_volume
_citation_journal_issue
_citation_page_first
_citation_page_last
_citation_journal_id_ASTM
primary 'Zeitschrift fuer Anorganische und Allgemeine Chemie (1950) (DE)'
 2010 636 6 1085 1089 ZAACAB
_publ_author_name
;
Ottinger, F.;Cuervo-Reyes, E.;Nesper, R.
;
_cell_length_a                     9.2551(15)
_cell_length_b                     6.1400(10)
_cell_length_c                     15.578(3)
_cell_angle_alpha                  90.00
_cell_angle_beta                   90.00
_cell_angle_gamma                  90.00
_cell_volume                       885.24
_cell_formula_units_Z              4
_symmetry_space_group_name_H-M     'P b c n'
_symmetry_Int_Tables_number        60
_refine_ls_R_factor_all            .0161
loop_
_symmetry_equiv_pos_site_id
_symmetry_equiv_pos_as_xyz
  1	'x, -y, z+.5'
  2	'-x+.5, y+.5, z'
  3	'x+.5, y+.5, -z+.5'
  4	'-x, -y, -z'
  5	'-x, y, -z+.5'
  6	'x+.5, -y+.5, -z'
  7	'-x+.5, -y+.5, z+.5'
  8	'x, y, z'
loop_
_atom_type_symbol
_atom_type_oxidation_number
Al3+	3
Ca2+	2
N3-	-3
Si4+	4
loop_
_atom_site_label
_atom_site_type_symbol
_atom_site_symmetry_multiplicity
_atom_site_Wyckoff_symbol
_atom_site_fract_x
_atom_site_fract_y
_atom_site_fract_z
_atom_site_occupancy
_atom_site_attached_hydrogens
_atom_site_U_iso_or_equiv
Ca1 Ca2+ 8 d 0.35824(3) 0.12806(4) 0.424990(15) 1 0 0.00971(6) 
Ca2 Ca2+ 4 c 0.0000 0.36431(6) 0.2500 1 0 0.01235(7) 
Ca3 Ca2+ 8 d 0.30157(2) 0.17327(4) 0.102466(15) 1 0 0.00901(6) 
Al1 Al3+ 8 d 0.35530(4) 0.41191(6) 0.26270(2) 1 0 0.00635(7) 
Si1 Si4+ 8 d 0.00493(3) 0.09420(5) 0.07098(2) 1 0 0.00743(7) 
N1 N3- 8 d 0.04619(11) 0.36304(15) 0.09172(6) 1 0 0.00960(18) 
N2 N3- 8 d 0.14321(10) 0.01341(16) 0.49546(6) 1 0 0.00955(18) 
N3 N3- 8 d 0.27115(12) 0.14142(16) 0.26730(6) 1 0 0.01144(19) 
N4 N3- 8 d 0.48172(10) 0.42485(16) 0.16252(6) 1 0 0.00976(18) 

loop_
_atom_site_aniso_label
_atom_site_aniso_type_symbol
_atom_site_aniso_U_11
_atom_site_aniso_U_22
_atom_site_aniso_U_33
_atom_site_aniso_U_12
_atom_site_aniso_U_13
_atom_site_aniso_U_23
Ca1 Ca2+ 0.00878(10) 0.00902(10) 0.01132(11) -0.00048(7) 0.00175(8) 
-0.00039(7)
Ca2 Ca2+ 0.01506(16) 0.01265(15) 0.00933(14) 0.000 0.00123(12) 0.000
Ca3 Ca2+ 0.00859(10) 0.00813(10) 0.01032(11) -0.00020(7) -0.00120(8) 
-0.00084(7)
Al1 Al3+ 0.00647(15) 0.00612(15) 0.00645(15) -0.00012(11) -0.00023(12) 
0.00002(11)
Si1 Si4+ 0.00774(14) 0.00762(14) 0.00692(14) -0.00047(10) -0.00037(10) 
0.00005(10)
N1 N3- 0.0093(4) 0.0087(4) 0.0108(4) 0.0002(3) 0.0004(3) 0.0011(3)
N2 N3- 0.0086(4) 0.0098(4) 0.0103(4) 0.0000(3) 0.0009(3) 0.0013(3)
N3 N3- 0.0121(4) 0.0118(4) 0.0104(4) -0.0020(3) -0.0001(4) 0.0004(3)
N4 N3- 0.0104(4) 0.0106(4) 0.0083(4) -0.0010(3) -0.0007(3) 0.0004(3)
#End of data_414469-ICSD


