data_181464-ICSD
#?2014 by Fachinformationszentrum Karlsruhe, and the U.S. Secretary of 
#Commerce on behalf of the United States.  All rights reserved.
_database_code_ICSD                181464
_audit_creation_date               2012/02/01
_chemical_name_systematic          'Magnesium Oxide - C1m1, Unstable'
_chemical_formula_structural       'Mg O'
_chemical_formula_sum              'Mg1 O1'
_publ_section_title
;
Structural richness of ionic binary materials: an exploration of the 
energy landscape of magnesium oxide
;
loop_
_citation_id
_citation_journal_abbrev
_citation_year
_citation_journal_volume
_citation_page_first
_citation_page_last
_citation_journal_id_ASTM
primary 'Physical Review, Serie 3. B - Condensed Matter (18,1978-)'
 2011 83 024104-1 024104-9 PRBMDO
_publ_author_name                  'Zwijnenburg, M.A.;Bromley, S.T.'
_cell_length_a                     25.5178
_cell_length_b                     3.4696
_cell_length_c                     7.5690
_cell_angle_alpha                  90.
_cell_angle_beta                   94.384
_cell_angle_gamma                  90.
_cell_volume                       668.17
_cell_formula_units_Z              24
_symmetry_space_group_name_H-M     'C 1 m 1'
_symmetry_Int_Tables_number        8
loop_
_symmetry_equiv_pos_site_id
_symmetry_equiv_pos_as_xyz
  1	'x, -y, z'
  2	'x, y, z'
  3	'x+.5, -y+.5, z'
  4	'x+.5, y+.5, z'
loop_
_atom_type_symbol
_atom_type_oxidation_number
Mg2+	2
O2-	-2
loop_
_atom_site_label
_atom_site_type_symbol
_atom_site_symmetry_multiplicity
_atom_site_Wyckoff_symbol
_atom_site_fract_x
_atom_site_fract_y
_atom_site_fract_z
_atom_site_occupancy
_atom_site_attached_hydrogens
Mg1 Mg2+ 2 a 0.03195 0 0.15523 1. 0 
Mg2 Mg2+ 2 a 0.31324 0 0.07323 1. 0 
Mg3 Mg2+ 2 a 0.14843 0 0.53688 1. 0 
Mg4 Mg2+ 2 a 0.28591 0 0.62713 1. 0 
Mg5 Mg2+ 2 a 0.44880 0 0.44270 1. 0 
Mg6 Mg2+ 2 a 0.48825 0.5 0.73972 1. 0 
Mg7 Mg2+ 2 a 0.37240 0.5 0.75159 1. 0 
Mg8 Mg2+ 2 a 0.07806 0.5 0.82003 1. 0 
Mg9 Mg2+ 2 a 0.24350 0.5 0.35842 1. 0 
Mg10 Mg2+ 2 a 0.06342 0.5 0.44417 1. 0 
Mg11 Mg2+ 2 a 0.35870 0.5 0.34928 1. 0 
Mg12 Mg2+ 2 a 0.43256 0 0.05556 1. 0 
O1 O2- 2 a 0.49696 0 0.23359 1. 0 
O2 O2- 2 a 0.22040 0 0.45684 1. 0 
O3 O2- 2 a 0.38132 0 0.24372 1. 0 
O4 O2- 2 a 0.08658 0 0.35484 1. 0 
O5 O2- 2 a 0.05651 0 0.91697 1. 0 
O6 O2- 2 a 0.33828 0 0.83501 1. 0 
O7 O2- 2 a 0.28849 0.5 0.16069 1. 0 
O8 O2- 2 a 0.42140 0.5 0.54221 1. 0 
O9 O2- 2 a 0.12895 0.5 0.64040 1. 0 
O10 O2- 2 a 0.43712 0.5 0.92951 1. 0 
O11 O2- 2 a 0.30898 0.5 0.54144 1. 0 
O12 O2- 2 a 0.01160 0.5 0.63338 1. 0 

#End of data_181464-ICSD


