data_91673-ICSD
#?2014 by Fachinformationszentrum Karlsruhe, and the U.S. Secretary of 
#Commerce on behalf of the United States.  All rights reserved.
_database_code_ICSD                91673
_audit_creation_date               2002/10/01
_chemical_name_systematic          'Aluminium Phosphate(V) - 5'
_chemical_formula_structural       'Al (P O4)'
_chemical_formula_sum              'Al1 O4 P1'
_chemical_name_mineral             'Zeolite AlPO-5'
_publ_section_title
;
Absolute configuration and domain structure of (Al P O4)-5 studied by 
single-crystal X-ray diffraction
;
loop_
_citation_id
_citation_journal_abbrev
_citation_year
_citation_journal_volume
_citation_page_first
_citation_page_last
_citation_journal_id_ASTM
primary 'Microporous and Mesoporous Materials' 2000 38 403 412 MIMMFJ
_publ_author_name
;
Klap, G.J.;van Koningsveld, H.;Graafsma, H.;Schreurs, A.M.M.
;
_cell_length_a                     13.718(1)
_cell_length_b                     13.718(1)
_cell_length_c                     8.4526(5)
_cell_angle_alpha                  90.
_cell_angle_beta                   90.
_cell_angle_gamma                  120.
_cell_volume                       1377.53
_cell_formula_units_Z              12
_symmetry_space_group_name_H-M     'P 6 c c'
_symmetry_Int_Tables_number        184
_refine_ls_R_factor_all            .069
loop_
_symmetry_equiv_pos_site_id
_symmetry_equiv_pos_as_xyz
  1	'x, x-y, z+.5'
  2	'-x+y, y, z+.5'
  3	'-y, -x, z+.5'
  4	'-x, -x+y, z+.5'
  5	'x-y, -y, z+.5'
  6	'y, x, z+.5'
  7	'x-y, x, z'
  8	'y, -x+y, z'
  9	'-x, -y, z'
 10	'-x+y, -x, z'
 11	'-y, x-y, z'
 12	'x, y, z'
loop_
_atom_type_symbol
_atom_type_oxidation_number
Al3+	3
O2-	-2
P5+	5
loop_
_atom_site_label
_atom_site_type_symbol
_atom_site_symmetry_multiplicity
_atom_site_Wyckoff_symbol
_atom_site_fract_x
_atom_site_fract_y
_atom_site_fract_z
_atom_site_occupancy
_atom_site_attached_hydrogens
P1 P5+ 12 d 0.4531(4) 0.3292(3) 0.05248 1. 0 
Al1 Al3+ 12 d 0.4555(5) 0.3360(3) 0.4260(4) 1. 0 
O1 O2- 12 d 0.4200(5) 0.213(1) 0.013(2) 1. 0 
O2 O2- 12 d 0.4543(8) 0.333(1) 0.241(3) 1. 0 
O3 O2- 12 d 0.365(1) 0.360(1) 0.010(2) 1. 0 
O4 O2- 12 d 0.568(1) 0.414(1) -.008(2) 1. 0 

loop_
_atom_site_aniso_label
_atom_site_aniso_type_symbol
_atom_site_aniso_U_11
_atom_site_aniso_U_22
_atom_site_aniso_U_33
_atom_site_aniso_U_12
_atom_site_aniso_U_13
_atom_site_aniso_U_23
P1 P5+ 0.033(2) 0.045(2) 0.069(4) 0.023(2) -.006(3) -.005(3)
Al1 Al3+ 0.070(4) 0.031(2) 0.043(3) 0.027(3) -.014(4) -.008(3)
O1 O2- 0.062(3) 0.044(7) 0.117(7) 0.028(6) 0.008(8) -.022(6)
O2 O2- 0.19(1) 0.162(7) 0.065(4) 0.106(9) 0.01(1) 0.00(2)
O3 O2- 0.065(6) 0.076(8) 0.114(8) 0.049(3) -.022(9) 0.003(9)
O4 O2- 0.057(7) 0.048(6) 0.163(8) 0.029(5) 0.027(8) 0.020(7)
#End of data_91673-ICSD


