data_187778-ICSD
#?2014 by Fachinformationszentrum Karlsruhe, and the U.S. Secretary of 
#Commerce on behalf of the United States.  All rights reserved.
_database_code_ICSD                187778
_audit_creation_date               2013/08/01
_chemical_name_systematic          'Dizinc Arsenate Hydroxide Hydrate'
_chemical_formula_structural       'Zn2 (As O4) (O H) (H2 O)'
_chemical_formula_sum              'H3 As1 O6 Zn2'
_chemical_name_mineral             Legrandite
_publ_section_title
;
Hydrogen bonding in the crystal structure of Legrandite: Zn2 (As O4) 
(O H) (H2 O)
;
loop_
_citation_id
_citation_journal_abbrev
_citation_year
_citation_journal_volume
_citation_journal_issue
_citation_page_first
_citation_page_last
_citation_journal_id_ASTM
primary 'Canadian Mineralogist' 2013 51 2 233 241 CAMIA6
_publ_author_name
;
Hawthorne, F.C.;Abdu, Y.A.;Tait, K.T.
;
_cell_length_a                     12.8052(3)
_cell_length_b                     7.9249(2)
_cell_length_c                     10.2173(2)
_cell_angle_alpha                  90
_cell_angle_beta                   104.4329(3)
_cell_angle_gamma                  90
_cell_volume                       1004.13
_cell_formula_units_Z              8
_symmetry_space_group_name_H-M     'P 1 21/c 1'
_symmetry_Int_Tables_number        14
_refine_ls_R_factor_all            .0134
loop_
_symmetry_equiv_pos_site_id
_symmetry_equiv_pos_as_xyz
  1	'x, -y+.5, z+.5'
  2	'-x, -y, -z'
  3	'-x, y+.5, -z+.5'
  4	'x, y, z'
loop_
_atom_type_symbol
_atom_type_oxidation_number
As5+	5
H1+	1
O2-	-2
Zn2+	2
loop_
_atom_site_label
_atom_site_type_symbol
_atom_site_symmetry_multiplicity
_atom_site_Wyckoff_symbol
_atom_site_fract_x
_atom_site_fract_y
_atom_site_fract_z
_atom_site_occupancy
_atom_site_attached_hydrogens
_atom_site_U_iso_or_equiv
Zn1 Zn2+ 4 e 0.40327(2) 0.04976(3) 0.38962(3) 1. 0 0.01127(6) 
Zn2 Zn2+ 4 e 0.25255(2) 0.33083(3) 0.46242(3) 1. 0 0.01033(6) 
Zn3 Zn2+ 4 e 0.36202(2) 0.80578(3) 0.12765(3) 1. 0 0.01284(6) 
Zn4 Zn2+ 4 e 0.01007(2) 0.24192(3) 0.44038(3) 1. 0 0.01313(7) 
As1 As5+ 4 e 0.14963(2) 0.05491(3) 0.21980(2) 1. 0 0.00768(6) 
As2 As5+ 4 e 0.38529(2) 0.42165(4) 0.21410(2) 1. 0 0.00770(6) 
O1 O2- 4 e 0.26801(14) 0.9532(2) 0.26147(18) 1. 0 0.0127(3) 
O2 O2- 4 e 0.13880(13) 0.1602(2) 0.07322(16) 1. 0 0.0121(3) 
O3 O2- 4 e 0.13303(13) 0.1895(2) 0.34154(17) 1. 0 0.0128(3) 
O4 O2- 4 e 0.04897(14) 0.9126(2) 0.20262(17) 1. 0 0.0132(3) 
O5 O2- 4 e 0.47910(13) 0.9513(2) 0.24071(17) 1. 0 0.0131(3) 
O6 O2- 4 e 0.35330(14) 0.3422(2) 0.05675(16) 1. 0 0.0141(3) 
O7 O2- 4 e 0.34595(14) 0.2901(2) 0.31982(17) 1. 0 0.0120(3) 
O8 O2- 4 e 0.32021(15) 0.6062(2) 0.21800(18) 1. 0 0.0157(3) 
O9 O2- 4 e 0.07895(17) 0.5313(3) 0.1396(2) 1. 0 0.0238(4) 
O10 O2- 4 e 0.44584(14) 0.6626(2) 0.01455(17) 1. 0 0.0118(3) 
O11 O2- 4 e 0.27353(14) 0.5767(2) 0.46950(17) 1. 0 0.0119(3) 
O12 O2- 4 e 0.08807(16) 0.7338(3) 0.4346(2) 1. 0 0.0219(4) 
H1 H1+ 4 e 0.461(4) 0.748(4) -0.047(4) 1. 0 0.05 
H2 H1+ 4 e 0.267(4) 0.622(6) 0.379(2) 1. 0 0.05 
H3 H1+ 4 e 0.1576(4) 0.543(6) 0.163(5) 1. 0 0.05 
H4 H1+ 4 e 0.054(4) 0.468(5) 0.208(4) 1. 0 0.05 
H5 H1+ 4 e 0.060(4) 0.774(6) 0.3417(18) 1. 0 0.05 
H6 H1+ 4 e 0.150(2) 0.659(5) 0.444(5) 1. 0 0.05 

loop_
_atom_site_aniso_label
_atom_site_aniso_type_symbol
_atom_site_aniso_U_11
_atom_site_aniso_U_22
_atom_site_aniso_U_33
_atom_site_aniso_U_12
_atom_site_aniso_U_13
_atom_site_aniso_U_23
Zn1 Zn2+ 0.01089(12) 0.01209(13) 0.01040(12) 0.00177(9) 0.00185(9) 
0.00014(9)
Zn2 Zn2+ 0.01025(12) 0.00927(12) 0.01152(12) 0.00041(9) 0.00282(9) 
-0.00071(9)
Zn3 Zn2+ 0.01449(13) 0.01042(12) 0.01209(12) -0.00093(9) 0.00046(10) 
0.00182(9)
Zn4 Zn2+ 0.01113(12) 0.01557(13) 0.01250(13) -0.00091(9) 0.00259(10) 
-0.00073(10)
As1 As5+ 0.00802(10) 0.00822(10) 0.00689(10) -0.00007(7) 0.00203(7) 
-0.00034(7)
As2 As5+ 0.00833(10) 0.00779(10) 0.00740(10) 0.00002(7) 0.00278(7) 
0.00019(7)
O1 O2- 0.0100(7) 0.0124(8) 0.0145(8) 0.0030(6) 0.0005(6) -0.0022(6)
O2 O2- 0.0108(7) 0.0165(8) 0.0094(7) 0.0021(6) 0.0035(6) 0.0049(6)
O3 O2- 0.0114(7) 0.0152(8) 0.0127(7) -0.0019(6) 0.0047(6) -0.0065(6)
O4 O2- 0.0133(8) 0.0137(8) 0.0127(8) -0.0049(6) 0.0036(6) -0.0023(6)
O5 O2- 0.0090(7) 0.0164(8) 0.0129(7) 0.0020(6) 0.0012(6) -0.0043(6)
O6 O2- 0.0178(8) 0.0168(8) 0.0085(7) -0.0080(7) 0.0047(6) -0.0037(6)
O7 O2- 0.0151(8) 0.0102(7) 0.0131(7) 0.0009(6) 0.0078(6) 0.0034(6)
O8 O2- 0.0220(9) 0.0096(7) 0.0193(8) 0.0051(7) 0.0124(7) 0.0037(6)
O9 O2- 0.0233(10) 0.0217(10) 0.0290(10) 0.0059(8) 0.0117(8) 0.0092(6)
O10 O2- 0.0128(7) 0.0112(7) 0.0116(7) 0.0003(6) 0.0037(6) 0.0002(6)
O11 O2- 0.0141(8) 0.0111(7) 0.0108(7) -0.0024(6) 0.0040(6) -0.0009(6)
O12 O2- 0.0199(9) 0.0294(10) 0.0193(9) 0.0090(8) 0.0101(7) 0.0088(8)
#End of data_187778-ICSD


