data_173492-ICSD
#?2014 by Fachinformationszentrum Karlsruhe, and the U.S. Secretary of 
#Commerce on behalf of the United States.  All rights reserved.
_database_code_ICSD                173492
_audit_creation_date               2009/02/01
_chemical_name_systematic          'Distrontium Zinc Rhenium(VI) Oxide'
_chemical_formula_structural       'Sr2 (Zn Re O6)'
_chemical_formula_sum              'O6 Re1 Sr2 Zn1'
_chemical_name_mineral             'Perovskite, double'
_publ_section_title
;
Crystal and magnetic structure of Sr2 M Re O6 (M = Ni, Co, Zn) double 
perovskites: a neutron diffraction study
;
loop_
_citation_id
_citation_journal_abbrev
_citation_year
_citation_journal_volume
_citation_journal_issue
_citation_page_first
_citation_page_last
_citation_journal_id_ASTM
primary 'European Journal of Inorganic Chemistry  (online)'
 2008 2008 4 588 595 EJICFO
_publ_author_name
;
Retuerto, M.;Martinez Lope, M.J.;Garcia Hernandez, M.;Fernandez Diaz, 
M.T.;Alonso, J.A.
;
_cell_length_a                     5.614(1)
_cell_length_b                     5.5813(8)
_cell_length_c                     7.887(1)
_cell_angle_alpha                  90.
_cell_angle_beta                   90.
_cell_angle_gamma                  90.
_cell_volume                       247.13
_cell_formula_units_Z              2
_symmetry_space_group_name_H-M     'P 1 21/n 1'
_symmetry_Int_Tables_number        14
_refine_ls_R_factor_all            .0101
loop_
_symmetry_equiv_pos_site_id
_symmetry_equiv_pos_as_xyz
  1	'-x+.5, y+.5, -z+.5'
  2	'-x, -y, -z'
  3	'x+.5, -y+.5, z+.5'
  4	'x, y, z'
loop_
_atom_type_symbol
_atom_type_oxidation_number
O2-	-2
Re6+	6
Sr2+	2
Zn2+	2
loop_
_atom_site_label
_atom_site_type_symbol
_atom_site_symmetry_multiplicity
_atom_site_Wyckoff_symbol
_atom_site_fract_x
_atom_site_fract_y
_atom_site_fract_z
_atom_site_occupancy
_atom_site_attached_hydrogens
_atom_site_B_iso_or_equiv
Sr1 Sr2+ 4 e 0.993(3) 0.016(2) 0.257(3) 1. 0 -.03(8) 
Zn1 Zn2+ 2 c 0.5 0 0.5 1. 0 -.03(8) 
Re1 Re6+ 2 d 0.5 0 0 1. 0 -.03(8) 
O1 O2- 4 e 0.056(2) 0.496(3) 0.265(3) 1. 0 .13(9) 
O2 O2- 4 e 0.720(3) 0.247(4) 0.017(3) 1. 0 .13(9) 
O3 O2- 4 e 0.230(4) 0.204(4) 0.970(3) 1. 0 .13(9) 

#End of data_173492-ICSD


