data_81871-ICSD
#?2014 by Fachinformationszentrum Karlsruhe, and the U.S. Secretary of 
#Commerce on behalf of the United States.  All rights reserved.
_database_code_ICSD                81871
_audit_creation_date               1999/11/30
_audit_update_record               2010/02/01
_chemical_name_systematic          'Rubidium Dicalcium Tritantalate'
_chemical_formula_structural       'Rb Ca2 (Ta3 O10)'
_chemical_formula_sum              'Ca2 O10 Rb1 Ta3'
_publ_section_title
;
Synthesis and structure determination of new layered perovskite 
compounds, A La Ta2 O7 and A Ca2 Ta3 O10 (A= Rb, Li)
;
loop_
_citation_id
_citation_journal_abbrev
_citation_year
_citation_journal_volume
_citation_journal_issue
_citation_page_first
_citation_page_last
_citation_journal_id_ASTM
primary 'Journal of Materials Chemistry' 1996 6 6 1067 1071 JMACEP
_publ_author_name                  'Toda, K.;Sato, M.'
_cell_length_a                     3.8650(2)
_cell_length_b                     3.8650(2)
_cell_length_c                     15.035(1)
_cell_angle_alpha                  90.
_cell_angle_beta                   90.
_cell_angle_gamma                  90.
_cell_volume                       224.6
_cell_formula_units_Z              1
_symmetry_space_group_name_H-M     'P 4/m m m'
_symmetry_Int_Tables_number        123
_refine_ls_R_factor_all            .02
loop_
_symmetry_equiv_pos_site_id
_symmetry_equiv_pos_as_xyz
  1	'y, x, -z'
  2	'-y, -x, -z'
  3	'-y, x, -z'
  4	'y, -x, -z'
  5	'-x, y, -z'
  6	'x, -y, -z'
  7	'x, y, -z'
  8	'-x, -y, -z'
  9	'-y, -x, z'
 10	'y, x, z'
 11	'y, -x, z'
 12	'-y, x, z'
 13	'x, -y, z'
 14	'-x, y, z'
 15	'-x, -y, z'
 16	'x, y, z'
loop_
_atom_type_symbol
_atom_type_oxidation_number
Ca2+	2
O2-	-2
Rb1+	1
Ta5+	5
loop_
_atom_site_label
_atom_site_type_symbol
_atom_site_symmetry_multiplicity
_atom_site_Wyckoff_symbol
_atom_site_fract_x
_atom_site_fract_y
_atom_site_fract_z
_atom_site_occupancy
_atom_site_attached_hydrogens
_atom_site_B_iso_or_equiv
Rb1 Rb1+ 1 d 0.5 0.5 0.5 1. 0 3.4(7) 
Ca1 Ca2+ 2 h 0.5 0.5 0.146(2) 1. 0 2.4(7) 
Ta1 Ta5+ 1 a 0 0 0 1. 0 0.2(3) 
Ta2 Ta5+ 2 g 0 0 0.2833(5) 1. 0 0.3(3) 
O1 O2- 2 f 0 0.5 0 1. 0 2.20(16) 
O2 O2- 2 g 0 0 0.123(5) 1. 0 2.20(16) 
O3 O2- 4 i 0 0.5 0.266(3) 1. 0 2.20(16) 
O4 O2- 2 g 0 0 0.405(6) 1. 0 2.20(16) 

#End of data_81871-ICSD


