data_96243-ICSD
#?2014 by Fachinformationszentrum Karlsruhe, and the U.S. Secretary of 
#Commerce on behalf of the United States.  All rights reserved.
_database_code_ICSD                96243
_audit_creation_date               2004/04/01
_audit_update_record               2008/08/01
_chemical_name_systematic          'Calcium Dimanganese(III) Oxide'
_chemical_formula_structural       'Ca Mn2 O4'
_chemical_formula_sum              'Ca1 Mn2 O4'
_chemical_name_mineral             Marokite
_publ_section_title
;
New model for the magnetic structure of the marokite-type oxide Ca 
Mn2 O4
;
loop_
_citation_id
_citation_journal_abbrev
_citation_year
_citation_journal_volume
_citation_page_first
_citation_page_last
_citation_journal_id_ASTM
primary 'Journal of Alloys and Compounds' 2003 353 5 11 JALCEU
_publ_author_name
;
Zouari, S.;Ranno, L.;Cheikhrouhou, A.;Isnard, O.;Pernet, M.;Wolfers, 
P.;Strobel, P.
;
_cell_length_a                     3.1492(6)
_cell_length_b                     9.98(2)
_cell_length_c                     9.66(2)
_cell_angle_alpha                  90
_cell_angle_beta                   90
_cell_angle_gamma                  90
_cell_volume                       303.6
_cell_formula_units_Z              4
_symmetry_space_group_name_H-M     'P b c m'
_symmetry_Int_Tables_number        57
_refine_ls_R_factor_all            .033
loop_
_symmetry_equiv_pos_site_id
_symmetry_equiv_pos_as_xyz
  1	'x, -y+.5, z+.5'
  2	'-x, y+.5, z'
  3	'x, y, -z+.5'
  4	'-x, -y, -z'
  5	'-x, y+.5, -z+.5'
  6	'x, -y+.5, -z'
  7	'-x, -y, z+.5'
  8	'x, y, z'
loop_
_atom_type_symbol
_atom_type_oxidation_number
Ca2+	2
Mn3+	3
O2-	-2
loop_
_atom_site_label
_atom_site_type_symbol
_atom_site_symmetry_multiplicity
_atom_site_Wyckoff_symbol
_atom_site_fract_x
_atom_site_fract_y
_atom_site_fract_z
_atom_site_occupancy
_atom_site_attached_hydrogens
_atom_site_B_iso_or_equiv
Ca1 Ca2+ 4 d 0.685(5) 0.150(2) 0.750 1. 0 1.10(30) 
Mn1 Mn3+ 8 e 0.208(4) 0.113(1) 0.067(1) 1. 0 0.93(24) 
O1 O2- 4 c 0.599(3) 0.250 0 1. 0 0.83(24) 
O2 O2- 4 d 0.190(5) 0.186(1) 0.250 1. 0 1.16(24) 
O3 O2- 8 e 0.795(3) 0.9737(8) 0.1085(7) 1. 0 0.71(15) 

#End of data_96243-ICSD


