data_78373-ICSD
#?2014 by Fachinformationszentrum Karlsruhe, and the U.S. Secretary of 
#Commerce on behalf of the United States.  All rights reserved.
_database_code_ICSD                78373
_audit_creation_date               1996/04/22
_chemical_name_systematic
;
Sodium Tecto-nonaoxonitridoalumotriphosphate(V)
;
_chemical_formula_structural       'Na3 (Al P3 O9 N)'
_chemical_formula_sum              'Al1 N1 Na3 O9 P3'
_publ_section_title
;
Crystal structure of sodium-aluminium nitridophosphate Na3 Al P3 O9 N
;
loop_
_citation_id
_citation_journal_abbrev
_citation_year
_citation_journal_volume
_citation_page_first
_citation_page_last
_citation_journal_id_ASTM
primary 'Latvijas Kimijas Zurnals, Neorganika Kimija' 1993 6 662 665 LKZUE8
_publ_author_name
;
Ronis, J.;Bondars, B.Ya.;Vitola, A.A.;Millers, T.
;
_cell_length_a                     9.299(1)
_cell_length_b                     9.299(1)
_cell_length_c                     9.299(1)
_cell_angle_alpha                  90.
_cell_angle_beta                   90.
_cell_angle_gamma                  90.
_cell_volume                       804.1
_cell_formula_units_Z              4
_symmetry_space_group_name_H-M     'P 21 3'
_symmetry_Int_Tables_number        198
_refine_ls_R_factor_all            .0234
loop_
_symmetry_equiv_pos_site_id
_symmetry_equiv_pos_as_xyz
  1	'-z+.5, -x, y+.5'
  2	'-y+.5, -z, x+.5'
  3	'-x+.5, -y, z+.5'
  4	'-z, x+.5, -y+.5'
  5	'-y, z+.5, -x+.5'
  6	'-x, y+.5, -z+.5'
  7	'z+.5, -x+.5, -y'
  8	'y+.5, -z+.5, -x'
  9	'x+.5, -y+.5, -z'
 10	'z, x, y'
 11	'y, z, x'
 12	'x, y, z'
loop_
_atom_type_symbol
_atom_type_oxidation_number
Al3+	3
N3-	-3
Na1+	1
O2-	-2
P5+	5
loop_
_atom_site_label
_atom_site_type_symbol
_atom_site_symmetry_multiplicity
_atom_site_Wyckoff_symbol
_atom_site_fract_x
_atom_site_fract_y
_atom_site_fract_z
_atom_site_occupancy
_atom_site_attached_hydrogens
_atom_site_B_iso_or_equiv
P1 P5+ 12 b 0.3264(3) 0.0786(3) 0.5091(3) 1. 0 0.51(8) 
O1 O2- 12 b 0.2485(7) 0.1177(7) 0.6508(6) 1. 0 0.37(15) 
O2 O2- 12 b 0.2148(7) 0.0141(8) 0.4053(8) 1. 0 1.26(17) 
O3 O2- 12 b 0.4133(8) 0.2053(7) 0.4406(7) 1. 0 0.73(17) 
Al1 Al3+ 4 a 0.6691(4) 0.6691(4) 0.6691(4) 1. 0 0.59(13) 
Na1 Na1+ 4 a 0.4535(4) 0.4535(4) 0.4535(4) 1. 0 0.99(19) 
Na2 Na1+ 4 a 0.8555(4) 0.8555(4) 0.8555(4) 1. 0 0.59(17) 
Na3 Na1+ 4 a 0.2363(4) 0.2363(4) 0.2363(4) 1. 0 1.03(17) 
N1 N3- 4 a 0.0541(10) 0.0541(10) 0.0541(10) 1. 0 2.29(40) 

#End of data_78373-ICSD


