data_15927-ICSD
#?2014 by Fachinformationszentrum Karlsruhe, and the U.S. Secretary of 
#Commerce on behalf of the United States.  All rights reserved.
_database_code_ICSD                15927
_audit_creation_date               1980/01/01
_audit_update_record               2012/08/01
_chemical_name_systematic          'Magnesium Vanadate(IV)'
_chemical_formula_structural       'Mg (V O3)'
_chemical_formula_sum              'Mg1 O3 V1'
_publ_section_title
;
Equilibres de phases dans les systemes vanadium-metal-oxygene. II. -
Structure cristalline du compose Mg V O3 obtenu sous faible pression
;
loop_
_citation_id
_citation_journal_abbrev
_citation_year
_citation_journal_volume
_citation_page_first
_citation_page_last
_citation_journal_id_ASTM
primary 'Bulletin de la Societe Chimique de France (Vol=Year)'
 1975 1975 1583 1586 BSCFAS
_publ_author_name                  'Cros, B.;Tourne, G.;Philippot, E.'
_cell_length_a                     5.291(3)
_cell_length_b                     10.018(5)
_cell_length_c                     5.239(3)
_cell_angle_alpha                  90.
_cell_angle_beta                   90.
_cell_angle_gamma                  90.
_cell_volume                       277.69
_cell_formula_units_Z              4
_symmetry_space_group_name_H-M     'C m m m'
_symmetry_Int_Tables_number        65
_refine_ls_R_factor_all            .079
loop_
_symmetry_equiv_pos_site_id
_symmetry_equiv_pos_as_xyz
  1	'x, -y, z'
  2	'-x, y, z'
  3	'x, y, -z'
  4	'-x, -y, -z'
  5	'-x, y, -z'
  6	'x, -y, -z'
  7	'-x, -y, z'
  8	'x, y, z'
  9	'x+.5, -y+.5, z'
 10	'-x+.5, y+.5, z'
 11	'x+.5, y+.5, -z'
 12	'-x+.5, -y+.5, -z'
 13	'-x+.5, y+.5, -z'
 14	'x+.5, -y+.5, -z'
 15	'-x+.5, -y+.5, z'
 16	'x+.5, y+.5, z'
loop_
_atom_type_symbol
_atom_type_oxidation_number
Mg2+	2
O2-	-2
V4+	4
loop_
_atom_site_label
_atom_site_type_symbol
_atom_site_symmetry_multiplicity
_atom_site_Wyckoff_symbol
_atom_site_fract_x
_atom_site_fract_y
_atom_site_fract_z
_atom_site_occupancy
_atom_site_attached_hydrogens
V1 V4+ 4 i 0 0.3263(5) 0 1. 0 
Mg1 Mg2+ 4 j 0 0.1887(6) 0.5 1. 0 
O1 O2- 8 m 0.25 0.25 0.248(2) 1. 0 
O2 O2- 2 b 0.5 0 0 1. 0 
O3 O2- 2 d 0 0 0.5 1. 0 

loop_
_atom_site_aniso_label
_atom_site_aniso_type_symbol
_atom_site_aniso_U_11
_atom_site_aniso_U_22
_atom_site_aniso_U_33
_atom_site_aniso_U_12
_atom_site_aniso_U_13
_atom_site_aniso_U_23
V1 V4+ 0.004(1) 0.013(2) 0.003(1) 0 0 0
Mg1 Mg2+ 0.022(5) 0.026(2) 0.021(5) 0 0 0
O1 O2- 0.009(4) 0.015(4) 0.003(3) -.005(4) 0 0
O2 O2- 0.004(8) 0.02(2) 0.03(2) 0 0 0
O3 O2- 0.05(2) 0.05(3) 0.01(1) 0 0 0
#End of data_15927-ICSD


