data_158516-ICSD
#?2014 by Fachinformationszentrum Karlsruhe, and the U.S. Secretary of 
#Commerce on behalf of the United States.  All rights reserved.
_database_code_ICSD                158516
_audit_creation_date               2008/02/01
_chemical_name_systematic          'Zinc Catena-silicate'
_chemical_formula_structural       'Zn (Si O3)'
_chemical_formula_sum              'O3 Si1 Zn1'
_chemical_name_mineral             Unnamed_Clinopyroxene
_publ_section_title
;
Displacive phase transitions in C-centred clinopyroxenes: spodumene, 
Li Sc Si2 O6 and Zn Si O3
;
loop_
_citation_id
_citation_journal_abbrev
_citation_year
_citation_journal_volume
_citation_page_first
_citation_page_last
_citation_journal_id_ASTM
primary 'Physics and Chemistry of Minerals' 2000 27 719 731 PCMIDU
_publ_author_name                  'Arlt, T.;Angel, R.J.'
_cell_length_a                     9.5781(5)
_cell_length_b                     8.8905(5)
_cell_length_c                     5.1798(2)
_cell_angle_alpha                  90.
_cell_angle_beta                   109.443(3)
_cell_angle_gamma                  90.
_cell_volume                       415.93
_cell_formula_units_Z              8
_symmetry_space_group_name_H-M     'P 1 21/c 1'
_symmetry_Int_Tables_number        14
_refine_ls_R_factor_all            .049
loop_
_symmetry_equiv_pos_site_id
_symmetry_equiv_pos_as_xyz
  1	'x, -y+.5, z+.5'
  2	'-x, -y, -z'
  3	'-x, y+.5, -z+.5'
  4	'x, y, z'
loop_
_atom_type_symbol
_atom_type_oxidation_number
O2-	-2
Si4+	4
Zn2+	2
loop_
_atom_site_label
_atom_site_type_symbol
_atom_site_symmetry_multiplicity
_atom_site_Wyckoff_symbol
_atom_site_fract_x
_atom_site_fract_y
_atom_site_fract_z
_atom_site_occupancy
_atom_site_attached_hydrogens
_atom_site_B_iso_or_equiv
Zn1 Zn2+ 4 e 0.2508(3) 0.6509(2) 0.2247(4) 1. 0 0.36 
Zn2 Zn2+ 4 e 0.2551(3) 0.0034(2) 0.2211(4) 1. 0 0.38 
Si1 Si4+ 4 e 0.0468(5) 0.3403(7) 0.2924(8) 1. 0 0.14 
O1 O2- 4 e 0.8691(13) 0.3386(15) 0.1800(18) 1. 0 0.57 
O2 O2- 4 e 0.1169(13) 0.5033(14) 0.3365(19) 1. 0 0.39 
O3 O2- 4 e 0.1090(16) 0.2662(11) 0.5982(21) 1. 0 0.41 
Si2 Si4+ 4 e 0.5568(5) 0.8338(7) 0.2397(7) 1. 0 0.14 
O4 O2- 4 e 0.3779(12) 0.8367(15) 0.1300(18) 1. 0 0.57 
O5 O2- 4 e 0.6341(13) 0.9828(12) 0.3895(18) 1. 0 0.39 
O6 O2- 4 e 0.6078(12) 0.6965(12) 0.4702(18) 1. 0 0.41 

#End of data_158516-ICSD


