data_9319-ICSD
#?2014 by Fachinformationszentrum Karlsruhe, and the U.S. Secretary of 
#Commerce on behalf of the United States.  All rights reserved.
_database_code_ICSD                9319
_audit_creation_date               1980/01/01
_audit_update_record               2010/08/01
_chemical_name_systematic
;
Tripotassium Dipraseodymium Nonanitrate(V)
;
_chemical_formula_structural       'K3 Pr2 (N O3)9'
_chemical_formula_sum              'K3 N9 O27 Pr2'
_publ_section_title
;
A new series of anhydrous double nitrate salts of the lanthanides. 
Structural and spectral characterization
;
loop_
_citation_id
_citation_journal_abbrev
_citation_year
_citation_journal_volume
_citation_page_first
_citation_page_last
_citation_journal_id_ASTM
primary 'Inorganic Chemistry' 1973 12 560 564 INOCAJ
_publ_author_name
;
Carnall, W.T.;Siegel, S.;Ferraro, J.R.;Tani, B.S.;Gebert, E.
;
_cell_length_a                     13.52(1)
_cell_length_b                     13.52(1)
_cell_length_c                     13.52(1)
_cell_angle_alpha                  90.
_cell_angle_beta                   90.
_cell_angle_gamma                  90.
_cell_volume                       2471.33
_cell_formula_units_Z              4
_symmetry_space_group_name_H-M     'P 43 3 2'
_symmetry_Int_Tables_number        212
_refine_ls_R_factor_all            .058
loop_
_symmetry_equiv_pos_site_id
_symmetry_equiv_pos_as_xyz
  1	'z+.25, y+.75, -x+.75'
  2	'-z+.75, y+.25, x+.75'
  3	'y+.25, x+.75, -z+.75'
  4	'-y+.75, x+.25, z+.75'
  5	'x+.25, z+.75, -y+.75'
  6	'-x+.75, z+.25, y+.75'
  7	'z+.75, -y+.75, x+.25'
  8	'-z+.25, -y+.25, -x+.25'
  9	'y+.75, -x+.75, z+.25'
 10	'-y+.25, -x+.25, -z+.25'
 11	'x+.75, -z+.75, y+.25'
 12	'-x+.25, -z+.25, -y+.25'
 13	'-y+.5, -z, x+.5'
 14	'-y, z+.5, -x+.5'
 15	'y+.5, -z+.5, -x'
 16	'y, z, x'
 17	'z+.5, -x+.5, -y'
 18	'-z+.5, -x, y+.5'
 19	'-z, x+.5, -y+.5'
 20	'z, x, y'
 21	'-x+.5, -y, z+.5'
 22	'-x, y+.5, -z+.5'
 23	'x+.5, -y+.5, -z'
 24	'x, y, z'
loop_
_atom_type_symbol
_atom_type_oxidation_number
K1+	1
N5+	5
O2-	-2
Pr3+	3
loop_
_atom_site_label
_atom_site_type_symbol
_atom_site_symmetry_multiplicity
_atom_site_Wyckoff_symbol
_atom_site_fract_x
_atom_site_fract_y
_atom_site_fract_z
_atom_site_occupancy
_atom_site_attached_hydrogens
_atom_site_B_iso_or_equiv
K1 K1+ 12 d 0.3116(1) -.0616(1) 0.125 1. 0 2.33 
Pr1 Pr3+ 8 c 0.29952(2) 0.29952(2) 0.29952(2) 1. 0 0.86 
N1 N5+ 12 d 0.4852(4) -.2352(4) 0.125 1. 0 1.37 
N2 N5+ 24 e 0.3876(4) 0.1645(4) 0.1478(4) 1. 0 1.79 
O1 O2- 24 e 0.4039(3) 0.7426(3) 0.0920(3) 1. 0 1.53 
O2 O2- 12 d 0.5539(3) -.3039(3) 0.125 1. 0 1.31 
O3 O2- 24 e 0.3108(3) 0.1400(3) 0.1959(3) 1. 0 1.7 
O4 O2- 24 e 0.4272(4) 0.1071(4) 0.0900(4) 1. 0 2.7 
O5 O2- 24 e 0.4255(3) 0.2466(4) 0.1664(3) 1. 0 1.91 

#End of data_9319-ICSD


