data_413546-ICSD
#?2014 by Fachinformationszentrum Karlsruhe, and the U.S. Secretary of 
#Commerce on behalf of the United States.  All rights reserved.
_database_code_ICSD                413546
_audit_creation_date               2005/04/01
_chemical_name_systematic          'Tribarium Dodecafluorodialumiate'
_chemical_formula_structural       'Ba3 (Al2 F12)'
_chemical_formula_sum              'Al2 Ba3 F12'
_publ_section_title
;
Zur Kristallstruktur von Ba3 Al2 F12
;
loop_
_citation_id
_citation_journal_abbrev
_citation_year
_citation_journal_volume
_citation_page_first
_citation_page_last
_citation_journal_id_ASTM
primary 'Zeitschrift fuer Anorganische und Allgemeine Chemie (1950) (DE)'
 2004 630 794 798 ZAACAB
_publ_author_name                  'Kaiser, V.;Babel, D.'
_cell_length_a                     10.203(2)
_cell_length_b                     9.8850(10)
_cell_length_c                     9.5220(10)
_cell_angle_alpha                  90.00
_cell_angle_beta                   90.00
_cell_angle_gamma                  90.00
_cell_volume                       960.36
_cell_formula_units_Z              4
_symmetry_space_group_name_H-M     'P n n m'
_symmetry_Int_Tables_number        58
_refine_ls_R_factor_all            .0539
loop_
_symmetry_equiv_pos_site_id
_symmetry_equiv_pos_as_xyz
  1	'x+.5, -y+.5, z+.5'
  2	'-x+.5, y+.5, z+.5'
  3	'x, y, -z'
  4	'-x, -y, -z'
  5	'-x+.5, y+.5, -z+.5'
  6	'x+.5, -y+.5, -z+.5'
  7	'-x, -y, z'
  8	'x, y, z'
loop_
_atom_type_symbol
_atom_type_oxidation_number
Al3+	3
Ba2+	2
F1-	-1
loop_
_atom_site_label
_atom_site_type_symbol
_atom_site_symmetry_multiplicity
_atom_site_Wyckoff_symbol
_atom_site_fract_x
_atom_site_fract_y
_atom_site_fract_z
_atom_site_occupancy
_atom_site_attached_hydrogens
_atom_site_U_iso_or_equiv
Ba1 Ba2+ 4 f 0.0000 0.5000 0.24839(3) 1 0 0.00945(6) 
Ba2 Ba2+ 4 g 0.22891(3) 0.21000(3) 0.0000 1 0 0.00980(6) 
Ba3 Ba2+ 4 g 0.64465(3) 0.35061(3) 0.0000 1 0 0.01038(6) 
Al1 Al3+ 8 h 0.39852(11) 0.35746(11) 0.31415(12) 1 0 0.00719(17) 
F1 F1- 4 e 0.0000 0.0000 0.1348(4) 1 0 0.0167(7) 
F2 F1- 4 g 0.0927(4) 0.8003(3) 0.0000 1 0 0.0100(5) 
F3 F1- 4 g 0.4751(4) 0.1442(3) 0.0000 1 0 0.0149(6) 
F4 F1- 4 g 0.1416(4) 0.4654(4) 0.0000 1 0 0.0168(7) 
F5 F1- 8 h 0.3121(2) 0.2032(2) 0.2786(3) 1 0 0.0114(4) 
F6 F1- 8 h 0.0508(2) 0.2323(2) 0.2150(3) 1 0 0.0135(4) 
F7 F1- 8 h 0.3965(3) 0.4075(2) 0.1363(2) 1 0 0.0150(5) 
F8 F1- 8 h 0.2530(3) 0.4472(3) 0.3515(3) 1 0 0.0179(5) 

loop_
_atom_site_aniso_label
_atom_site_aniso_type_symbol
_atom_site_aniso_U_11
_atom_site_aniso_U_22
_atom_site_aniso_U_33
_atom_site_aniso_U_12
_atom_site_aniso_U_13
_atom_site_aniso_U_23
Ba1 Ba2+ 0.00940(10) 0.00751(10) 0.01143(11) -0.00037(9) 0.000 0.000
Ba2 Ba2+ 0.00914(12) 0.01239(12) 0.00786(11) 0.00100(10) 0.000 0.000
Ba3 Ba2+ 0.00965(12) 0.01107(12) 0.01042(12) 0.00036(10) 0.000 0.000
Al1 Al3+ 0.0081(4) 0.0079(4) 0.0056(4) -0.0005(4) -0.0005(3) 0.0000(4)
F1 F1- 0.0284(19) 0.0110(13) 0.0106(13) 0.0115(14) 0.000 0.000
F2 F1- 0.0159(15) 0.0085(12) 0.0057(11) -0.0002(11) 0.000 0.000
F3 F1- 0.0170(16) 0.0105(13) 0.0171(15) 0.0035(12) 0.000 0.000
F4 F1- 0.0158(16) 0.0163(15) 0.0183(16) 0.0027(14) 0.000 0.000
F5 F1- 0.0109(9) 0.0109(8) 0.0125(10) -0.0012(8) -0.0018(8) -0.0004(8)
F6 F1- 0.0116(10) 0.0152(10) 0.0137(10) -0.0015(8) 0.0019(8) -0.0034(8)
F7 F1- 0.0225(12) 0.0146(10) 0.0079(9) -0.0012(9) -0.0026(9) 0.0033(8)
F8 F1- 0.0164(11) 0.0228(12) 0.0144(11) 0.0114(10) -0.0015(9) -0.0021(9)
#End of data_413546-ICSD


