data_86168-ICSD
#?2014 by Fachinformationszentrum Karlsruhe, and the U.S. Secretary of 
#Commerce on behalf of the United States.  All rights reserved.
_database_code_ICSD                86168
_audit_creation_date               1999/11/30
_chemical_name_systematic          'Dilithium Niccolotrigermanate'
_chemical_formula_structural       'Li2 (Ni Ge3 O8)'
_chemical_formula_sum              'Ge3 Li2 Ni1 O8'
_publ_section_title
;
Crystal chemistry and physical properties of complex lithium spinels 
Li2 M (M')3 O8 (M = Mg, Co, Ni, Zn; M' = Ti, Ge)
;
loop_
_citation_id
_citation_journal_abbrev
_citation_year
_citation_journal_volume
_citation_page_first
_citation_page_last
_citation_journal_id_ASTM
primary 'Journal of Materials Chemistry' 1998 8 1273 1280 JMACEP
_publ_author_name
;
Kawai, H.;Tabuchi, M.;Nagata, M.;Tukamoto, H.;West, A.R.
;
_cell_length_a                     8.1799(2)
_cell_length_b                     8.1799(2)
_cell_length_c                     8.1799(2)
_cell_angle_alpha                  90.
_cell_angle_beta                   90.
_cell_angle_gamma                  90.
_cell_volume                       547.32
_cell_formula_units_Z              4
_symmetry_space_group_name_H-M     'P 43 3 2'
_symmetry_Int_Tables_number        212
_refine_ls_R_factor_all            .08
loop_
_symmetry_equiv_pos_site_id
_symmetry_equiv_pos_as_xyz
  1	'z+.25, y+.75, -x+.75'
  2	'-z+.75, y+.25, x+.75'
  3	'y+.25, x+.75, -z+.75'
  4	'-y+.75, x+.25, z+.75'
  5	'x+.25, z+.75, -y+.75'
  6	'-x+.75, z+.25, y+.75'
  7	'z+.75, -y+.75, x+.25'
  8	'-z+.25, -y+.25, -x+.25'
  9	'y+.75, -x+.75, z+.25'
 10	'-y+.25, -x+.25, -z+.25'
 11	'x+.75, -z+.75, y+.25'
 12	'-x+.25, -z+.25, -y+.25'
 13	'-y+.5, -z, x+.5'
 14	'-y, z+.5, -x+.5'
 15	'y+.5, -z+.5, -x'
 16	'y, z, x'
 17	'z+.5, -x+.5, -y'
 18	'-z+.5, -x, y+.5'
 19	'-z, x+.5, -y+.5'
 20	'z, x, y'
 21	'-x+.5, -y, z+.5'
 22	'-x, y+.5, -z+.5'
 23	'x+.5, -y+.5, -z'
 24	'x, y, z'
loop_
_atom_type_symbol
_atom_type_oxidation_number
Ge4+	4
Li1+	1
Ni2+	2
O2-	-2
loop_
_atom_site_label
_atom_site_type_symbol
_atom_site_symmetry_multiplicity
_atom_site_Wyckoff_symbol
_atom_site_fract_x
_atom_site_fract_y
_atom_site_fract_z
_atom_site_occupancy
_atom_site_attached_hydrogens
_atom_site_U_iso_or_equiv
Li1 Li1+ 8 c 0.018(8) 0.018(8) 0.018(8) 1. 0 0.05 
Ni1 Ni2+ 4 b 0.625 0.625 0.625 1. 0 0.012(4) 
Ge1 Ge4+ 12 d 0.125 0.3777(7) 0.8723(7) 1. 0 0.013(1) 
O1 O2- 8 c 0.385(3) 0.385(3) 0.385(3) 1. 0 0.01(1) 
O2 O2- 24 e 0.094(3) 0.127(2) 0.394(2) 1. 0 0.012(5) 

#End of data_86168-ICSD


