data_202422-ICSD
#?2014 by Fachinformationszentrum Karlsruhe, and the U.S. Secretary of 
#Commerce on behalf of the United States.  All rights reserved.
_database_code_ICSD                202422
_audit_creation_date               1988/05/17
_audit_update_record               2012/08/01
_chemical_name_systematic          'Calcium Nickel Arsenate Hydroxide'
_chemical_formula_structural       'Ca Ni (As O4) (O H)'
_chemical_formula_sum              'H1 As1 Ca1 Ni1 O5'
_chemical_name_mineral             Nickelaustinite
_publ_section_title
;
La nickelaustinite, Ca (Ni, Zn) (As O4) (O H): Nouvelle espece 
minerale du district Cobalto-Nickelifere de Bou-Azzer, Maroc
;
loop_
_citation_id
_citation_journal_abbrev
_citation_year
_citation_journal_volume
_citation_page_first
_citation_page_last
_citation_journal_id_ASTM
primary 'Canadian Mineralogist' 1987 25 401 407 CAMIA6
_publ_author_name
;
Cesbron, F.;Ginderow, D.;Giraud, R.;Pelisson, P.;Pillard, F.
;
_cell_length_a                     7.455(3)
_cell_length_b                     8.955(3)
_cell_length_c                     5.916(2)
_cell_angle_alpha                  90.
_cell_angle_beta                   90.
_cell_angle_gamma                  90.
_cell_volume                       394.95
_cell_formula_units_Z              4
_symmetry_space_group_name_H-M     'P 21 21 21'
_symmetry_Int_Tables_number        19
_refine_ls_R_factor_all            .068
loop_
_symmetry_equiv_pos_site_id
_symmetry_equiv_pos_as_xyz
  1	'-x, y+.5, -z+.5'
  2	'x+.5, -y+.5, -z'
  3	'-x+.5, -y, z+.5'
  4	'x, y, z'
loop_
_atom_type_symbol
_atom_type_oxidation_number
As5+	5
Ca2+	2
H1+	1
Ni2+	2
O2-	-2
loop_
_atom_site_label
_atom_site_type_symbol
_atom_site_symmetry_multiplicity
_atom_site_Wyckoff_symbol
_atom_site_fract_x
_atom_site_fract_y
_atom_site_fract_z
_atom_site_occupancy
_atom_site_attached_hydrogens
_atom_site_B_iso_or_equiv
Ca1 Ca2+ 4 a 0.3687(5) 0.1704(3) 0.4761(6) 1. 0 0.8(1) 
Ni1 Ni2+ 4 a 0.2405(4) 0.5049(3) 0.2558(6) 1. 0 0.8(1) 
As1 As5+ 4 a 0.1182(3) 0.1812(2) 0.0165(3) 1. 0 0.6(1) 
O1 O2- 4 a -.0549(18) 0.0627(14) -.0106(26) 1. 0 1.1(4) 
O2 O2- 4 a 0.2839(21) 0.0668(15) 0.0842(22) 1. 0 1.1(5) 
O3 O2- 4 a 0.1463(19) 0.2749(15) -.2322(23) 1. 0 0.8(4) 
O4 O2- 4 a 0.1024(21) 0.2960(14) 0.2430(22) 1. 0 0.9(4) 
O5 O2- 4 a 0.3978(17) 0.4255(11) 0.4967(24) 1. 0 0.7(3) 
H1 H1+ 4 a 0.475(28) 0.971(22) 0.010(44) 1. 0 0.7(3) 

#End of data_202422-ICSD


