data_16155-ICSD
#?2014 by Fachinformationszentrum Karlsruhe, and the U.S. Secretary of 
#Commerce on behalf of the United States.  All rights reserved.
_database_code_ICSD                16155
_audit_creation_date               1986/10/06
_audit_update_record               2011/02/01
_chemical_name_systematic          'Potassium Pentafluorotellurate(IV)'
_chemical_formula_structural       'K (Te F5)'
_chemical_formula_sum              'F5 K1 Te1'
_publ_section_title
;
Fluoride crystal structures. Part V. Potassium 
pentafluorotellurate(IV)
;
loop_
_citation_id
_citation_journal_abbrev
_citation_year
_citation_journal_volume
_citation_page_first
_citation_page_last
_citation_journal_id_ASTM
primary
;
Journal of the Chemical Society A: Inorganic, Physical, Theoretical 
(1966-1971)
;
 1969 1969 703 706 JCSIAP
_publ_author_name                  'Edwards, A.J.;Mouty, M.A.'
_cell_length_a                     4.72(1)
_cell_length_b                     9.18(1)
_cell_length_c                     11.24(1)
_cell_angle_alpha                  90.
_cell_angle_beta                   90.
_cell_angle_gamma                  90.
_cell_volume                       487.02
_cell_formula_units_Z              4
_symmetry_space_group_name_H-M     'P b c m'
_symmetry_Int_Tables_number        57
_refine_ls_R_factor_all            .106
loop_
_symmetry_equiv_pos_site_id
_symmetry_equiv_pos_as_xyz
  1	'x, -y+.5, z+.5'
  2	'-x, y+.5, z'
  3	'x, y, -z+.5'
  4	'-x, -y, -z'
  5	'-x, y+.5, -z+.5'
  6	'x, -y+.5, -z'
  7	'-x, -y, z+.5'
  8	'x, y, z'
loop_
_atom_type_symbol
_atom_type_oxidation_number
F1-	-1
K1+	1
Te4+	4
loop_
_atom_site_label
_atom_site_type_symbol
_atom_site_symmetry_multiplicity
_atom_site_Wyckoff_symbol
_atom_site_fract_x
_atom_site_fract_y
_atom_site_fract_z
_atom_site_occupancy
_atom_site_attached_hydrogens
_atom_site_U_iso_or_equiv
Te1 Te4+ 4 d 0.1128(6) 0.0558(3) 0.25 1. 0 0.0265(6) 
K1 K1+ 4 c 0.4965(19) 0.25 0 1. 0 0.026(1) 
F1 F1- 8 e 0.3776(46) -.0140(21) 0.1284(18) 1. 0 0.054(5) 
F2 F1- 8 e -.0398(50) 0.1855(21) 0.1272(18) 1. 0 0.055(5) 
F3 F1- 4 d 0.3787(57) 0.2020(21) 0.25 1. 0 0.030(4) 

#End of data_16155-ICSD


