data_247818-ICSD
#?2014 by Fachinformationszentrum Karlsruhe, and the U.S. Secretary of 
#Commerce on behalf of the United States.  All rights reserved.
_database_code_ICSD                247818
_audit_creation_date               2013/08/01
_chemical_name_systematic          'Lithium Sodium Tetraborate'
_chemical_formula_structural       'Li Na B4 O7'
_chemical_formula_sum              'B4 Li1 Na1 O7'
_publ_section_title
;
Structural, electronic properties and charge density distribution of 
the Li Na B4 O7: Theory and experiment
;
loop_
_citation_id
_citation_journal_abbrev
_citation_year
_citation_journal_volume
_citation_journal_issue
_citation_page_first
_citation_page_last
_citation_journal_id_ASTM
primary 'Materials Chemistry and Physics' 2012 137 1 346 352 MCHPDR
_publ_author_name
;
Reshak, A.H.;Chen Xuean;Auluck, S.;Kamarudin, H.
;
_cell_length_a                     13.326(3)
_cell_length_b                     14.072(3)
_cell_length_c                     10.238(2)
_cell_angle_alpha                  90.
_cell_angle_beta                   90.
_cell_angle_gamma                  90.
_cell_volume                       1919.87
_cell_formula_units_Z              16
_symmetry_space_group_name_H-M     'F d d 2'
_symmetry_Int_Tables_number        43
_refine_ls_R_factor_all            .0327
loop_
_symmetry_equiv_pos_site_id
_symmetry_equiv_pos_as_xyz
  1	'x+.25, -y+.25, z+.25'
  2	'-x+.25, y+.25, z+.25'
  3	'-x, -y, z'
  4	'x, y, z'
  5	'x+.25, -y+.75, z+.75'
  6	'x+.75, -y+.25, z+.75'
  7	'x+.75, -y+.75, z+.25'
  8	'-x+.25, y+.75, z+.75'
  9	'-x+.75, y+.25, z+.75'
 10	'-x+.75, y+.75, z+.25'
 11	'-x, -y+.5, z+.5'
 12	'-x+.5, -y, z+.5'
 13	'-x+.5, -y+.5, z'
 14	'x, y+.5, z+.5'
 15	'x+.5, y, z+.5'
 16	'x+.5, y+.5, z'
loop_
_atom_type_symbol
_atom_type_oxidation_number
B3+	3
Li1+	1
Na1+	1
O2-	-2
loop_
_atom_site_label
_atom_site_type_symbol
_atom_site_symmetry_multiplicity
_atom_site_Wyckoff_symbol
_atom_site_fract_x
_atom_site_fract_y
_atom_site_fract_z
_atom_site_occupancy
_atom_site_attached_hydrogens
_atom_site_U_iso_or_equiv
Li1 Li1+ 16 b 0.0047(5) 0.3569(7) 0.1220(8) 1. 0 0.040(2) 
Na1 Na1+ 16 b 0.10116(11) 0.23889(10) 0.37457(16) 1. 0 0.0244(4) 
B1 B3+ 16 b 0.1646(2) 0.22276(18) 0.0797(3) 1. 0 0.0073(5) 
B2 B3+ 16 b 0.0447(2) 0.1219(2) -0.0521(3) 1. 0 0.0091(5) 
B3 B3+ 16 b 0.2153(2) 0.17260(19) 0.5971(3) 1. 0 0.0066(5) 
B4 B3+ 16 b 0.1264(2) 0.0443(2) 0.4655(3) 1. 0 0.0072(5) 
O1 O2- 16 b 0.07228(15) 0.20174(14) 0.0105(2) 1. 0 0.0119(4) 
O2 O2- 8 a 0.25 0.25 -0.0025(3) 1. 0 0.0106(5) 
O3 O2- 16 b 0.19556(15) 0.14068(14) 0.1644(2) 1. 0 0.0133(4) 
O4 O2- 16 b 0.13551(15) 0.30374(14) 0.1680(2) 1. 0 0.0116(4) 
O5 O2- 16 b 0.20520(13) 0.08226(14) 0.5287(2) 1. 0 0.0100(4) 
O6 O2- 8 a 0.25 0.25 0.5145(3) 1. 0 0.0079(5) 
O7 O2- 16 b 0.29022(15) 0.15260(14) 0.7021(2) 1. 0 0.0096(4) 
O8 O2- 16 b 0.11986(14) 0.20357(14) 0.6642(2) 1. 0 0.0091(4) 

#End of data_247818-ICSD


