data_15098-ICSD
#?2014 by Fachinformationszentrum Karlsruhe, and the U.S. Secretary of 
#Commerce on behalf of the United States.  All rights reserved.
_database_code_ICSD                15098
_audit_creation_date               1980/01/01
_audit_update_record               2002/04/01
_chemical_name_systematic          'Sodium Dioxocuprate(III)'
_chemical_formula_structural       'Na (Cu O2)'
_chemical_formula_sum              'Cu1 Na1 O2'
_publ_section_title                'Zur Kristallstruktur von Na Cu O2'
loop_
_citation_id
_citation_journal_abbrev
_citation_year
_citation_journal_volume
_citation_page_first
_citation_page_last
_citation_journal_id_ASTM
primary 'Zeitschrift fuer Anorganische und Allgemeine Chemie (1950) (DE)'
 1969 367 261 269 ZAACAB
_publ_author_name                  'Hestermann, K.;Hoppe, R.'
_cell_length_a                     2.748
_cell_length_b                     6.672
_cell_length_c                     3.462
_cell_angle_alpha                  76.24
_cell_angle_beta                   113.41
_cell_angle_gamma                  128.16
_cell_volume                       45.8
_cell_formula_units_Z              1
_symmetry_space_group_name_H-M     'P -1'
_symmetry_Int_Tables_number        2
_refine_ls_R_factor_all            .09
loop_
_symmetry_equiv_pos_site_id
_symmetry_equiv_pos_as_xyz
  1	'-x, -y, -z'
  2	'x, y, z'
loop_
_atom_type_symbol
_atom_type_oxidation_number
Cu3+	3
Na1+	1
O2-	-2
loop_
_atom_site_label
_atom_site_type_symbol
_atom_site_symmetry_multiplicity
_atom_site_Wyckoff_symbol
_atom_site_fract_x
_atom_site_fract_y
_atom_site_fract_z
_atom_site_occupancy
_atom_site_attached_hydrogens
_atom_site_B_iso_or_equiv
Na1 Na1+ 1 h 0.5 0.5 0.5 1. 0 1.08 
Cu1 Cu3+ 1 a 0 0 0 1. 0 1.08 
O1 O2- 2 i 0.805 0.23 0.92 1. 0 1.08 

#End of data_15098-ICSD


