data_60897-ICSD
#?2014 by Fachinformationszentrum Karlsruhe, and the U.S. Secretary of 
#Commerce on behalf of the United States.  All rights reserved.
_database_code_ICSD                60897
_audit_creation_date               1988/02/22
_audit_update_record               2004/10/01
_chemical_name_systematic
;
Dipotassium Dichlorohexafluorotrichromate(II)
;
_chemical_formula_structural       'K2 (Cr3 Cl2 F6)'
_chemical_formula_sum              'Cl2 Cr3 F6 K2'
_publ_section_title
;
Structural studies of potassium tetrafluorochromate(III), K (Cr F4), 
and the novel mixed chloride fluoride, dipotassium 
dichlorohexafluorotrichromate(II), K2 (Cr3 Cl2 F6)
;
loop_
_citation_id
_citation_journal_abbrev
_citation_year
_citation_journal_volume
_citation_page_first
_citation_page_last
_citation_journal_id_ASTM
primary
;
Journal of the Chemical Society. Dalton Transactions, Inorganic 
Chemistry (1972-)
;
 1986 1986 2623 2627 JCDTBI
_publ_author_name
;
Dewan, J.C.;Edwards, A.J.;Guy, J.J.
;
_cell_length_a                     6.726(1)
_cell_length_b                     11.157(5)
_cell_length_c                     7.391(3)
_cell_angle_alpha                  90.
_cell_angle_beta                   125.31(4)
_cell_angle_gamma                  90.
_cell_volume                       452.6
_cell_formula_units_Z              2
_symmetry_space_group_name_H-M     'P 1 21/c 1'
_symmetry_Int_Tables_number        14
_refine_ls_R_factor_all            .041
loop_
_symmetry_equiv_pos_site_id
_symmetry_equiv_pos_as_xyz
  1	'x, -y+.5, z+.5'
  2	'-x, -y, -z'
  3	'-x, y+.5, -z+.5'
  4	'x, y, z'
loop_
_atom_type_symbol
_atom_type_oxidation_number
Cl1-	-1
Cr2+	2
F1-	-1
K1+	1
loop_
_atom_site_label
_atom_site_type_symbol
_atom_site_symmetry_multiplicity
_atom_site_Wyckoff_symbol
_atom_site_fract_x
_atom_site_fract_y
_atom_site_fract_z
_atom_site_occupancy
_atom_site_attached_hydrogens
Cr1 Cr2+ 2 a 0 0 0 1. 0 
Cr2 Cr2+ 4 e 0.16207(13) 0.25303(6) -.11610(11) 1. 0 
K1 K1+ 4 e 0.69941(18) 0.04748(9) 0.33588(17) 1. 0 
Cl1 Cl1- 4 e -.33552(21) 0.17124(10) -.30827(19) 1. 0 
F1 F1- 4 e 0.2595(4) 0.0908(2) 0.0127(4) 1. 0 
F2 F1- 4 e 0.0584(5) 0.0848(2) 0.2621(4) 1. 0 
F3 F1- 4 e 0.1424(5) 0.1887(2) -.3739(4) 1. 0 

loop_
_atom_site_aniso_label
_atom_site_aniso_type_symbol
_atom_site_aniso_U_11
_atom_site_aniso_U_22
_atom_site_aniso_U_33
_atom_site_aniso_U_12
_atom_site_aniso_U_13
_atom_site_aniso_U_23
Cr1 Cr2+ 0.0168(4) 0.0104(4) 0.0137(4) 0 0.0106(4) 0
Cr2 Cr2+ 0.0232(3) 0.0088(3) 0.0135(3) -.0024(2) 0.0132(3) -.0020(2)
K1 K1+ 0.0197(4) 0.0238(5) 0.0239(5) 0.0028(4) 0.0105(4) 0.0028(4)
Cl1 Cl1- 0.0233(5) 0.0203(5) 0.0277(5) -.0021(4) 0.0145(4) 0.0007(4)
F1 F1- 0.0172(11) 0.0123(11) 0.0200(12) -.0012(9) 0.0101(10) 0.0026(9)
F2 F1- 0.0296(13) 0.0127(11) 0.0157(11) -.0062(10) 0.0146(11) -.0057(9)
F3 F1- 0.0304(14) 0.0162(12) 0.0168(11) -.0012(10) 0.0173(11) 0.000(1)
#End of data_60897-ICSD


