data_201974-ICSD
#?2014 by Fachinformationszentrum Karlsruhe, and the U.S. Secretary of 
#Commerce on behalf of the United States.  All rights reserved.
_database_code_ICSD                201974
_audit_creation_date               1988/12/19
_audit_update_record               2013/02/01
_chemical_name_systematic
;
Lithium Vanadium Oxide (1/2/5) - Delta
;
_chemical_formula_structural       'Li V2 O5'
_chemical_formula_sum              'Li1 O5 V2'
_publ_section_title
;
The structure of the lithium-inserted metal oxide delta lithium 
vanadium oxide Li V2 O5
;
loop_
_citation_id
_citation_journal_abbrev
_citation_year
_citation_journal_volume
_citation_page_first
_citation_page_last
_citation_journal_id_ASTM
primary 'Journal of Solid State Chemistry' 1986 65 63 71 JSSCBI
_publ_author_name
;
Cava, R.J.;Santoro, A.;Murphy, D.W.;Zahurak, S.M.;Fleming, 
R.M.;Marsh, P.;Roth, R.S.
;
_cell_length_a                     11.2423(8)
_cell_length_b                     9.9054(9)
_cell_length_c                     3.6018(3)
_cell_angle_alpha                  90.
_cell_angle_beta                   90.
_cell_angle_gamma                  90.
_cell_volume                       401.09
_cell_formula_units_Z              4
_symmetry_space_group_name_H-M     'A m a m'
_symmetry_Int_Tables_number        63
_refine_ls_R_factor_all            .067
loop_
_symmetry_equiv_pos_site_id
_symmetry_equiv_pos_as_xyz
  1	'-x+.5, y, -z'
  2	'x+.5, -y, -z'
  3	'x, y, -z'
  4	'-x, -y, -z'
  5	'x+.5, -y, z'
  6	'-x+.5, y, z'
  7	'-x, -y, z'
  8	'x, y, z'
  9	'-x+.5, y+.5, -z+.5'
 10	'x+.5, -y+.5, -z+.5'
 11	'x, y+.5, -z+.5'
 12	'-x, -y+.5, -z+.5'
 13	'x+.5, -y+.5, z+.5'
 14	'-x+.5, y+.5, z+.5'
 15	'-x, -y+.5, z+.5'
 16	'x, y+.5, z+.5'
loop_
_atom_type_symbol
_atom_type_oxidation_number
Li1+	1
O2-	-2
V4.5+	4.5
loop_
_atom_site_label
_atom_site_type_symbol
_atom_site_symmetry_multiplicity
_atom_site_Wyckoff_symbol
_atom_site_fract_x
_atom_site_fract_y
_atom_site_fract_z
_atom_site_occupancy
_atom_site_attached_hydrogens
_atom_site_B_iso_or_equiv
Li1 Li1+ 4 c 0.75 0.109(2) 0 1. 0 4.1(3) 
O1 O2- 8 f 0.1269(3) 0.0464(4) 0 1. 0 0 
O2 O2- 8 f 0.0729(3) 0.2626(5) 0.5 1. 0 0 
O3 O2- 4 c 0.25 0.2855(5) 0 1. 0 0 
V1 V4.5+ 8 f 0.401(3) 0.206(3) 0 1. 0 0.5 

loop_
_atom_site_aniso_label
_atom_site_aniso_type_symbol
_atom_site_aniso_B_11
_atom_site_aniso_B_22
_atom_site_aniso_B_33
_atom_site_aniso_B_12
_atom_site_aniso_B_13
_atom_site_aniso_B_23
O1 O2- 1.2(1) 2.4(2) 4.3(2) 0.1(2) 0 0
O2 O2- 0.5(1) 4.4(2) 0.5(1) 0.7(2) 0 0
O3 O2- 0.1(2) 1.9(3) 1.6(3) 0 0 0
#End of data_201974-ICSD


