data_35677-ICSD
#?2014 by Fachinformationszentrum Karlsruhe, and the U.S. Secretary of 
#Commerce on behalf of the United States.  All rights reserved.
_database_code_ICSD                35677
_audit_creation_date               1983/12/31
_chemical_name_systematic
;
Potassium Trifluorobis(nitrato)antimonate(III) Nitrate
;
_chemical_formula_structural       'K3 Sb F3 (N O3)3'
_chemical_formula_sum              'F3 K3 N3 O9 Sb1'
_publ_section_title
;
Sur un nouveau compose doubleur de frequence, synthese, et structure 
du nitrate-bis-nitratotrifluoroantimonate de potassium K2 Sb F3 (N 
O3)2 * K N O3
;
loop_
_citation_id
_citation_journal_abbrev
_citation_year
_citation_journal_volume
_citation_page_first
_citation_page_last
_citation_journal_id_ASTM
primary 'Journal of Solid State Chemistry' 1983 50 79 85 JSSCBI
_publ_author_name
;
Bourgault, M.;Ducourant, M.B.;Fourcade, R.
;
_cell_length_a                     11.500(5)
_cell_length_b                     13.877(5)
_cell_length_c                     7.236(5)
_cell_angle_alpha                  90.
_cell_angle_beta                   90.
_cell_angle_gamma                  90.
_cell_volume                       1154.76
_cell_formula_units_Z              4
_symmetry_space_group_name_H-M     'C m c 21'
_symmetry_Int_Tables_number        36
_refine_ls_R_factor_all            .045
loop_
_symmetry_equiv_pos_site_id
_symmetry_equiv_pos_as_xyz
  1	'x, -y, z+.5'
  2	'-x, -y, z+.5'
  3	'-x, y, z'
  4	'x, y, z'
  5	'x+.5, -y+.5, z+.5'
  6	'-x+.5, -y+.5, z+.5'
  7	'-x+.5, y+.5, z'
  8	'x+.5, y+.5, z'
loop_
_atom_type_symbol
_atom_type_oxidation_number
F1-	-1
K1+	1
N5+	5
O2-	-2
Sb3+	3
loop_
_atom_site_label
_atom_site_type_symbol
_atom_site_symmetry_multiplicity
_atom_site_Wyckoff_symbol
_atom_site_fract_x
_atom_site_fract_y
_atom_site_fract_z
_atom_site_occupancy
_atom_site_attached_hydrogens
Sb1 Sb3+ 4 a 0.5 0.3619(1) 0.653 1. 0 
K1 K1+ 8 b 0.2084(1) 0.1737(1) 0.7294(3) 1. 0 
K2 K1+ 4 a 0 0.4067(2) 0.9994(6) 1. 0 
F1 F1- 8 b 0.3869(4) 0.2703(3) 0.5557(8) 1. 0 
F2 F1- 4 a 0.5 0.4163(5) 0.411(1) 1. 0 
O1 O2- 8 b 0.1821(4) 0.0335(4) 0.131(1) 1. 0 
O2 O2- 4 a 0 0.281(1) 0.672(2) 1. 0 
O3 O2- 8 b 0.7537(7) 0.3737(4) 0.844(1) 1. 0 
O4 O2- 8 b 0.6535(5) 0.9997(3) 0.755(1) 1. 0 
O5 O2- 8 b 0.406(1) 0.197(2) 0.937(3) 1. 0 
N1 N5+ 4 a 0.5 0.1970(7) 0.008(1) 1. 0 
N2 N5+ 8 b 0.2610(6) 0.0541(4) 0.245(1) 1. 0 

loop_
_atom_site_aniso_label
_atom_site_aniso_type_symbol
_atom_site_aniso_U_11
_atom_site_aniso_U_22
_atom_site_aniso_U_33
_atom_site_aniso_U_12
_atom_site_aniso_U_13
_atom_site_aniso_U_23
Sb1 Sb3+ 0.0280(8) 0.0314(2) 0.0225(3) 0 0 0.0021(5)
K1 K1+ 0.0287(5) 0.0354(7) 0.0362(6) 0.000(6) 0.004(1) -.002(1)
K2 K1+ 0.0270(7) 0.0398(9) 0.039(1) 0 0 0.000(3)
F1 F1- 0.034(1) 0.040(2) 0.040(4) -.001(4) 0.001(4) 0.003(3)
F2 F1- 0.036(3) 0.054(4) 0.031(3) 0 0 0.013(5)
O1 O2- 0.031(3) 0.045(4) 0.052(9) 0.001(2) -.009(5) -.019(5)
O2 O2- 0.098(9) 0.103(9) 0.026(5) 0.001(1) 0 0
O3 O2- 0.067(6) 0.028(3) 0.039(6) 0.004(3) -.004(6) 0.005(5)
O4 O2- 0.039(4) 0.059(6) 0.061(7) 0.008(8) 0.012(6) 0.010(7)
O5 O2- 0.100(9) 0.021(2) 0.170(9) -.02(2) -.09(2) -.003(9)
N1 N5+ 0.050(5) 0.033(3) 0.028(3) 0 0 0.004(7)
N2 N5+ 0.034(3) 0.031(3) 0.034(3) 0.00(2) 0.000(4) -.005(4)
#End of data_35677-ICSD


