data_25709-ICSD
#?2014 by Fachinformationszentrum Karlsruhe, and the U.S. Secretary of 
#Commerce on behalf of the United States.  All rights reserved.
_database_code_ICSD                25709
_audit_creation_date               1986/08/12
_audit_update_record               2007/08/01
_chemical_name_systematic
;
Dizinc Manganese Dihydroxide Silicate
;
_chemical_formula_structural       'Zn2 Mn ((O H)2 (Si O4))'
_chemical_formula_sum              'H2 Mn1 O6 Si1 Zn2'
_chemical_name_mineral             Hodgkinsonite
_publ_section_title
;
The crystal structure of hodgkinsonite Zn2 Mn ((O H)2 Si O4)
;
loop_
_citation_id
_citation_journal_abbrev
_citation_year
_citation_journal_volume
_citation_page_first
_citation_page_last
_citation_journal_id_ASTM
primary
;
Zeitschrift fuer Kristallographie, Kristallgeometrie, Kristallphysik, 
Kristallchemie (-144,1977)
;
 1963 119 117 138 ZEKGAX
2 'Acta Crystallographica (1,1948-23,1967)' 1958 11 448 448 ACCRA9
_publ_author_name                  'Rentzeperis, P.J.'
_cell_length_a                     8.170(2)
_cell_length_b                     5.316(2)
_cell_length_c                     11.761(2)
_cell_angle_alpha                  90.
_cell_angle_beta                   95.25(8)
_cell_angle_gamma                  90.
_cell_volume                       508.66
_cell_formula_units_Z              4
_symmetry_space_group_name_H-M     'P 1 21/a 1'
_symmetry_Int_Tables_number        14
_refine_ls_R_factor_all            .067
loop_
_symmetry_equiv_pos_site_id
_symmetry_equiv_pos_as_xyz
  1	'x+.5, -y+.5, z'
  2	'-x, -y, -z'
  3	'-x+.5, y+.5, -z'
  4	'x, y, z'
loop_
_atom_type_symbol
_atom_type_oxidation_number
H1+	1
Mn2+	2
O2-	-2
Si4+	4
Zn2+	2
loop_
_atom_site_label
_atom_site_type_symbol
_atom_site_symmetry_multiplicity
_atom_site_Wyckoff_symbol
_atom_site_fract_x
_atom_site_fract_y
_atom_site_fract_z
_atom_site_occupancy
_atom_site_attached_hydrogens
_atom_site_B_iso_or_equiv
Zn1 Zn2+ 4 e 0.2732(2) 0.0657(3) 0.0788(1) 1. 0 0.864(23) 
Zn2 Zn2+ 4 e 0.6084(2) 0.0623(3) 0.2491(1) 1. 0 0.886(23) 
Mn1 Mn2+ 4 e 0.1063(2) 0.2420(3) 0.5482(1) 1. 0 0.541(28) 
Si1 Si4+ 4 e 0.0673(3) 0.0666(5) 0.8292(2) 1. 0 0.137(45) 
O1 O2- 4 e 0.1067(9) 0.0810(14) 0.1911(6) 1. 0 0.52(12) 
O2 O2- 4 e 0.1657(9) 0.0405(14) 0.7151(6) 1. 0 0.40(12) 
O3 O2- 4 e 0.8193(9) 0.0702(15) 0.0660(6) 1. 0 0.45(12) 
O4 O2- 4 e 0.5384(8) 0.1441(14) 0.8621(6) 1. 0 0.26(12) 
O5 O2- 4 e 0.4902(9) 0.0892(15) 0.3836(6) 1. 0 0.49(11) 
O6 O2- 4 e 0.8491(9) 0.0882(15) 0.5560(6) 1. 0 0.56(12) 
H1 H1+ 4 e 0.466(27) 0.26(4) 0.333(18) 1. 0 2.50(124) 
H2 H1+ 4 e 0.842(27) -.83(4) 0.600(18) 1. 0 2.50(124) 

#End of data_25709-ICSD


