data_100166-ICSD
#?2014 by Fachinformationszentrum Karlsruhe, and the U.S. Secretary of 
#Commerce on behalf of the United States.  All rights reserved.
_database_code_ICSD                100166
_audit_creation_date               1980/01/01
_audit_update_record               2011/02/01
_chemical_name_systematic
;
Pentapotassium Dilithium Neodymium Fluoride
;
_chemical_formula_structural       'K5 Li2 Nd F10'
_chemical_formula_sum              'F10 K5 Li2 Nd1'
_publ_section_title                'Crystal structure of K5 Nd Li2 F10'
loop_
_citation_id
_citation_journal_abbrev
_citation_year
_citation_journal_volume
_citation_page_first
_citation_page_last
_citation_journal_id_ASTM
primary 'Materials Research Bulletin' 1979 14 137 142 MRBUAC
_publ_author_name                  'Hong, H.Y.-P.;McCollum, B.C.'
_cell_length_a                     20.65
_cell_length_b                     7.779
_cell_length_c                     6.902
_cell_angle_alpha                  90.
_cell_angle_beta                   90.
_cell_angle_gamma                  90.
_cell_volume                       1108.71
_cell_formula_units_Z              4
_symmetry_space_group_name_H-M     'P n m a'
_symmetry_Int_Tables_number        62
_refine_ls_R_factor_all            .08
loop_
_symmetry_equiv_pos_site_id
_symmetry_equiv_pos_as_xyz
  1	'x+.5, y, -z+.5'
  2	'x, -y+.5, z'
  3	'-x+.5, y+.5, z+.5'
  4	'-x, -y, -z'
  5	'-x+.5, -y, z+.5'
  6	'-x, y+.5, -z'
  7	'x+.5, -y+.5, -z+.5'
  8	'x, y, z'
loop_
_atom_type_symbol
_atom_type_oxidation_number
F1-	-1
K1+	1
Li1+	1
Nd3+	3
loop_
_atom_site_label
_atom_site_type_symbol
_atom_site_symmetry_multiplicity
_atom_site_Wyckoff_symbol
_atom_site_fract_x
_atom_site_fract_y
_atom_site_fract_z
_atom_site_occupancy
_atom_site_attached_hydrogens
_atom_site_B_iso_or_equiv
K1 K1+ 8 d 0.4572(3) 0.981(1) 0.249(1) 1. 0 1.9 
K2 K1+ 8 d 0.2823(3) 0.025(1) 0.424(1) 1. 0 1.6 
K3 K1+ 4 c 0.3622(5) 0.25 0.938(1) 1. 0 1.6 
Nd1 Nd3+ 4 c 0.1070(1) 0.25 0.2350(4) 1. 0 0.5 
Li1 Li1+ 4 c 0.922(4) 0.25 0.962(9) 1. 0 0.3 
Li2 Li1+ 4 c 0.677(5) 0.25 0.869(9) 1. 0 0.3 
F1 F1- 4 c 0.007(1) 0.25 0.046(4) 1. 0 1.3 
F2 F1- 4 c 0.021(1) 0.25 0.448(4) 1. 0 1.4 
F3 F1- 8 d 0.092(1) 0.961(2) 0.138(2) 1. 0 2.2 
F4 F1- 8 d 0.144(1) 0.070(2) 0.509(3) 1. 0 2.3 
F5 F1- 4 c 0.223(1) 0.25 0.181(4) 1. 0 2.2 
F6 F1- 4 c 0.376(1) 0.25 0.314(4) 1. 0 1.4 
F7 F1- 4 c 0.760(1) 0.25 0.799(4) 1. 0 2. 
F8 F1- 4 c 0.631(1) 0.25 0.598(4) 1. 0 2.4 

#End of data_100166-ICSD


