data_170818-ICSD
#?2014 by Fachinformationszentrum Karlsruhe, and the U.S. Secretary of 
#Commerce on behalf of the United States.  All rights reserved.
_database_code_ICSD                170818
_audit_creation_date               2006/04/01
_chemical_name_systematic          'Calcium Copper Germanate'
_chemical_formula_structural       'Ca Cu Ge2 O6'
_chemical_formula_sum              'Ca1 Cu1 Ge2 O6'
_chemical_name_mineral             Clinopyroxene
_publ_section_title
;
Crystal structure of the clinopyroxene-type compound Ca Cu Ge2 O6 
between 15 K and 700 K
;
loop_
_citation_id
_citation_journal_abbrev
_citation_year
_citation_journal_volume
_citation_page_first
_citation_page_last
_citation_journal_id_ASTM
primary 'Acta Crystallographica, Section B: Structural Science'
 2005 61 367 380 ASBSDK
_publ_author_name
;
Redhammer, G.J.;Tippelt, G.;Merz, M.;Roth, G.;Treutmann, W.;Amthauer, 
G.
;
_cell_length_a                     10.2165(12)
_cell_length_b                     9.2483(7)
_cell_length_c                     5.2429(6)
_cell_angle_alpha                  90
_cell_angle_beta                   105.942(12)
_cell_angle_gamma                  90
_cell_volume                       476.32
_cell_formula_units_Z              4
_symmetry_space_group_name_H-M     'P 1 21/c 1'
_symmetry_Int_Tables_number        14
_refine_ls_R_factor_all            .047
loop_
_symmetry_equiv_pos_site_id
_symmetry_equiv_pos_as_xyz
  1	'x, -y+.5, z+.5'
  2	'-x, -y, -z'
  3	'-x, y+.5, -z+.5'
  4	'x, y, z'
loop_
_atom_type_symbol
_atom_type_oxidation_number
Ca2+	2
Cu2+	2
Ge4+	4
O2-	-2
loop_
_atom_site_label
_atom_site_type_symbol
_atom_site_symmetry_multiplicity
_atom_site_Wyckoff_symbol
_atom_site_fract_x
_atom_site_fract_y
_atom_site_fract_z
_atom_site_occupancy
_atom_site_attached_hydrogens
_atom_site_U_iso_or_equiv
Ca1 Ca2+ 4 e 0.2804(2) 0.4521(2) 0.8019(4) 1 0 0.0177(4) 
Cu1 Cu2+ 4 e 0.22939(11) 0.66019(12) 0.2549(2) 1 0 0.0140(3) 
Ge1 Ge4+ 4 e 0.04816(8) 0.34923(11) 0.21112(19) 1 0 0.0103(2) 
Ge2 Ge4+ 4 e 0.48893(9) 0.34985(11) 0.3863(2) 1 0 0.0139(3) 
O1 O2- 4 e -0.1273(2) 0.3598(2) 0.1155(8) 1 0 0.0156(14) 
O2 O2- 4 e 0.6578(2) 0.3205(2) 0.3822(3) 1 0 0.0128(14) 
O3 O2- 4 e 0.1423(5) 0.4914(5) 0.3732(8) 1 0 0.0210(17) 
O4 O2- 4 e 0.4306(5) 0.5190(7) 0.2560(16) 1 0 0.0233(17) 
O5 O2- 4 e 0.1038(6) 0.1975(7) 0.4284(15) 1 0 0.0160(15) 
O6 O2- 4 e 0.4003(6) 0.2539(8) 0.5785(15) 1 0 0.0170(15) 

loop_
_atom_site_aniso_label
_atom_site_aniso_type_symbol
_atom_site_aniso_U_11
_atom_site_aniso_U_22
_atom_site_aniso_U_33
_atom_site_aniso_U_12
_atom_site_aniso_U_13
_atom_site_aniso_U_23
Ca1 Ca2+ 0.0207(9) 0.0149(8) 0.0172(10) 0.0004(8) 0.0048(8) 0.0036(8)
Cu1 Cu2+ 0.0159(5) 0.0128(5) 0.0112(6) -0.0028(5) 0.0000(4) 0.0003(4)
Ge1 Ge4+ 0.0099(4) 0.0095(4) 0.0107(5) -0.0006(4) 0.0016(3) -0.0006(4)
Ge2 Ge4+ 0.0119(5) 0.0106(5) 0.0206(5) 0.0016(4) 0.0068(4) 0.0045(4)
O1 O2- 0.013(3) 0.018(3) 0.015(3) 0.004(3) 0.003(3) 0.000(3)
O2 O2- 0.017(3) 0.010(3) 0.013(4) 0.002(2) 0.006(3) 0.004(2)
O3 O2- 0.027(4) 0.012(3) 0.021(4) -0.011(3) 0.002(3) -0.001(3)
O4 O2- 0.036(4) 0.015(3) 0.019(4) 0.005(3) 0.008(3) 0.004(3)
O5 O2- 0.015(3) 0.016(3) 0.018(4) 0.005(2) 0.008(3) 0.003(3)
O6 O2- 0.012(3) 0.023(4) 0.017(4) -0.006(2) 0.007(3) 0.001(3)
#End of data_170818-ICSD


