data_69537-ICSD
#?2014 by Fachinformationszentrum Karlsruhe, and the U.S. Secretary of 
#Commerce on behalf of the United States.  All rights reserved.
_database_code_ICSD                69537
_audit_creation_date               1992/08/20
_audit_update_record               2012/08/01
_chemical_name_systematic          'Calcium Tris(borate) Fluoride'
_chemical_formula_structural       'Ca5 (B O3)3 F'
_chemical_formula_sum              'B3 Ca5 F1 O9'
_publ_section_title
;
Pentacalcium triborate fluoride and its relationship to fluorapatite
;
loop_
_citation_id
_citation_journal_abbrev
_citation_year
_citation_journal_volume
_citation_page_first
_citation_page_last
_citation_journal_id_ASTM
primary 'Acta Crystallographica, Section C: Crystal Structure Communications'
 1991 47 12 14 ACSCEE
_publ_author_name
;
Fletcher, J.G.;Glasser, F.P.;Howie, R.A.
;
_cell_length_a                     8.125(3)
_cell_length_b                     16.051(5)
_cell_length_c                     3.538(2)
_cell_angle_alpha                  90.
_cell_angle_beta                   100.90(4)
_cell_angle_gamma                  90.
_cell_volume                       453.08
_cell_formula_units_Z              2
_symmetry_space_group_name_H-M     'C 1 m 1'
_symmetry_Int_Tables_number        8
_refine_ls_R_factor_all            .042
loop_
_symmetry_equiv_pos_site_id
_symmetry_equiv_pos_as_xyz
  1	'x, -y, z'
  2	'x, y, z'
  3	'x+.5, -y+.5, z'
  4	'x+.5, y+.5, z'
loop_
_atom_type_symbol
_atom_type_oxidation_number
B3+	3
Ca2+	2
F1-	-1
O2-	-2
loop_
_atom_site_label
_atom_site_type_symbol
_atom_site_symmetry_multiplicity
_atom_site_Wyckoff_symbol
_atom_site_fract_x
_atom_site_fract_y
_atom_site_fract_z
_atom_site_occupancy
_atom_site_attached_hydrogens
_atom_site_B_iso_or_equiv
Ca1 Ca2+ 2 a 0.7961(2) 0 0.6443(5) 1. 0 0 
Ca2 Ca2+ 4 b 0.0617(2) 0.6784(1) 0.0096(4) 1. 0 0 
Ca3 Ca2+ 4 b 0.6838(2) 0.6174(1) 0.3477(4) 1. 0 0 
O1 O2- 2 a 0.1133(8) 0.5 0.0538(20) 1. 0 0 
O2 O2- 4 b 0.8538(6) 0.5743(3) 0.9162(14) 1. 0 0 
O3 O2- 4 b 0.0320(6) 0.8238(3) 0.7901(13) 1. 0 0 
O4 O2- 4 b 0.8626(6) 0.7289(3) 0.4024(13) 1. 0 0 
O5 O2- 4 b 0.7389(6) 0.8552(3) 0.5837(13) 1. 0 0 
B1 B3+ 2 a 0.9408(10) 0.5 0.9677(25) 1. 0 0.52(8) 
B2 B3+ 4 b 0.8753(8) 0.8042(4) 0.5912(19) 1. 0 0.33(11) 
F1 F1- 2 a 0 0 0.25 1. 0 0 

#End of data_69537-ICSD


