data_26521-ICSD
#?2014 by Fachinformationszentrum Karlsruhe, and the U.S. Secretary of 
#Commerce on behalf of the United States.  All rights reserved.
_database_code_ICSD                26521
_audit_creation_date               1981/12/31
_audit_update_record               2012/02/01
_chemical_name_systematic          'Silver Borate'
_chemical_formula_structural       'Ag3 B O3'
_chemical_formula_sum              'Ag3 B1 O3'
_publ_section_title                Silber(I)-orthoborat
loop_
_citation_id
_citation_journal_abbrev
_citation_year
_citation_journal_volume
_citation_page_first
_citation_page_last
_citation_journal_id_ASTM
primary 'Zeitschrift fuer Anorganische und Allgemeine Chemie (1950) (DE)'
 1981 477 85 89 ZAACAB
_publ_author_name                  'Jansen, M.;Scheld, W.'
_cell_length_a                     9.873(2)
_cell_length_b                     9.873(2)
_cell_length_c                     3.381(1)
_cell_angle_alpha                  90.
_cell_angle_beta                   90.
_cell_angle_gamma                  120.
_cell_volume                       285.41
_cell_formula_units_Z              3
_symmetry_space_group_name_H-M     'R 3 2 H'
_symmetry_Int_Tables_number        155
_refine_ls_R_factor_all            .049
loop_
_symmetry_equiv_pos_site_id
_symmetry_equiv_pos_as_xyz
  1	'-x, -x+y, -z'
  2	'x-y, -y, -z'
  3	'y, x, -z'
  4	'-x+y, -x, z'
  5	'-y, x-y, z'
  6	'x, y, z'
  7	'-x+.6666, -x+y+.3333, -z+.3333'
  8	'-x+.3333, -x+y+.6666, -z+.6666'
  9	'x-y+.6666, -y+.3333, -z+.3333'
 10	'x-y+.3333, -y+.6666, -z+.6666'
 11	'y+.6666, x+.3333, -z+.3333'
 12	'y+.3333, x+.6666, -z+.6666'
 13	'-x+y+.6666, -x+.3333, z+.3333'
 14	'-x+y+.3333, -x+.6666, z+.6666'
 15	'-y+.6666, x-y+.3333, z+.3333'
 16	'-y+.3333, x-y+.6666, z+.6666'
 17	'x+.6666, y+.3333, z+.3333'
 18	'x+.3333, y+.6666, z+.6666'
loop_
_atom_type_symbol
_atom_type_oxidation_number
Ag1+	1
B3+	3
O2-	-2
loop_
_atom_site_label
_atom_site_type_symbol
_atom_site_symmetry_multiplicity
_atom_site_Wyckoff_symbol
_atom_site_fract_x
_atom_site_fract_y
_atom_site_fract_z
_atom_site_occupancy
_atom_site_attached_hydrogens
Ag1 Ag1+ 9 d 0.5005(4) 0 0 1. 0 
B1 B3+ 3 a 0 0 0 1. 0 
O1 O2- 9 d 0.8620(6) 0 0 1. 0 

loop_
_atom_site_aniso_label
_atom_site_aniso_type_symbol
_atom_site_aniso_U_11
_atom_site_aniso_U_22
_atom_site_aniso_U_33
_atom_site_aniso_U_12
_atom_site_aniso_U_13
_atom_site_aniso_U_23
Ag1 Ag1+ 0.0198(2) 0.0154(2) 0.0285(3) 0.0077(1) -.0012(1) -.0024(2)
B1 B3+ 0.0485(40) 0.0485(40) 0.0250(46) 0.0242(20) 0 0
O1 O2- 0.0244(21) 0.0307(28) 0.0331(32) 0.0153(14) 0.0059(15) 0.0118(30)
#End of data_26521-ICSD


