data_84299-ICSD
#?2014 by Fachinformationszentrum Karlsruhe, and the U.S. Secretary of 
#Commerce on behalf of the United States.  All rights reserved.
_database_code_ICSD                84299
_audit_creation_date               1999/01/19
_chemical_name_systematic
;
Trisodium Phyllo-tetraselenocuprostannate
;
_chemical_formula_structural       'Na3 (Cu Sn Se4)'
_chemical_formula_sum              'Cu1 Na3 Se4 Sn1'
_publ_section_title
;
Preparation and crystal structure of Na3 Cu Sn Se4. A novel 
selenostannate(IV) with a layered structure
;
loop_
_citation_id
_citation_journal_abbrev
_citation_year
_citation_journal_volume
_citation_page_first
_citation_page_last
_citation_journal_id_ASTM
primary 'European Journal of Solid State Inorganic Chemistry'
 1997 34 1155 1163 EJSCE5
_publ_author_name                  'Klepp, K.O.;Fabian, F.'
_cell_length_a                     6.805(5)
_cell_length_b                     10.226(2)
_cell_length_c                     13.03(1)
_cell_angle_alpha                  90.
_cell_angle_beta                   90.39(4)
_cell_angle_gamma                  90.
_cell_volume                       906.71
_cell_formula_units_Z              4
_symmetry_space_group_name_H-M     'P 1 21/n 1'
_symmetry_Int_Tables_number        14
_refine_ls_R_factor_all            .039
loop_
_symmetry_equiv_pos_site_id
_symmetry_equiv_pos_as_xyz
  1	'-x+.5, y+.5, -z+.5'
  2	'-x, -y, -z'
  3	'x+.5, -y+.5, z+.5'
  4	'x, y, z'
loop_
_atom_type_symbol
_atom_type_oxidation_number
Cu1+	1
Na1+	1
Se2-	-2
Sn4+	4
loop_
_atom_site_label
_atom_site_type_symbol
_atom_site_symmetry_multiplicity
_atom_site_Wyckoff_symbol
_atom_site_fract_x
_atom_site_fract_y
_atom_site_fract_z
_atom_site_occupancy
_atom_site_attached_hydrogens
_atom_site_B_iso_or_equiv
Na1 Na1+ 4 e 0.0474(8) 0.1399(5) 0.8766(4) 1. 0 2.9(1) 
Na2 Na1+ 4 e 0.2249(7) 0.1032(5) 0.4835(4) 1. 0 1.78(9) 
Na3 Na1+ 4 e 0.5088(8) 0.1171(5) 0.1238(5) 1. 0 3.0(1) 
Cu1 Cu1+ 4 e 0.9087(2) 0.1013(2) 0.2861(1) 1. 0 2.45(3) 
Sn1 Sn4+ 4 e 0.5831(1) 0.13853(7) 0.69542(6) 1. 0 0.86(1) 
Se1 Se2- 4 e 0.5824(2) 0.0706(1) 0.3575(1) 1. 0 1.25(2) 
Se2 Se2- 4 e 0.9627(2) 0.1613(1) 0.10135(9) 1. 0 1.54(2) 
Se3 Se2- 4 e 0.5085(2) 0.1778(1) 0.88210(9) 1. 0 1.42(2) 
Se4 Se2- 4 e 0.9421(2) 0.1062(1) 0.65879(9) 1. 0 1.16(2) 

#End of data_84299-ICSD


