data_67827-ICSD
#?2014 by Fachinformationszentrum Karlsruhe, and the U.S. Secretary of 
#Commerce on behalf of the United States.  All rights reserved.
_database_code_ICSD                67827
_audit_creation_date               1995/01/10
_chemical_name_systematic
;
Potassium Ruthenium(II) Sulfate Hexahydrate
;
_chemical_formula_structural       'K2 Ru (S O4)2 (H2 O)6'
_chemical_formula_sum              'H12 K2 O14 Ru1 S2'
_publ_section_title
;
Analysis of atomic displacement parameters and molecular motion in 
crystals. Part 2. X-ray crystal structure of K2Ru(SO4)2 * H2O at 160 
K and 295 K
;
loop_
_citation_id
_citation_journal_abbrev
_citation_year
_citation_journal_volume
_citation_journal_issue
_citation_page_first
_citation_page_last
_citation_journal_id_ASTM
primary 'Structural Chemistry' 1993 4 1 23 31 STCHES
_publ_author_name                  'Buergi, H.B.;Raselli, A.'
_cell_length_a                     6.1211(7)
_cell_length_b                     12.226(2)
_cell_length_c                     8.916(2)
_cell_angle_alpha                  90.
_cell_angle_beta                   105.11(1)
_cell_angle_gamma                  90.
_cell_volume                       644.17
_cell_formula_units_Z              2
_symmetry_space_group_name_H-M     'P 1 21/c 1'
_symmetry_Int_Tables_number        14
_refine_ls_R_factor_all            .017
loop_
_symmetry_equiv_pos_site_id
_symmetry_equiv_pos_as_xyz
  1	'x, -y+.5, z+.5'
  2	'-x, -y, -z'
  3	'-x, y+.5, -z+.5'
  4	'x, y, z'
loop_
_atom_type_symbol
_atom_type_oxidation_number
H1+	1
K1+	1
O2-	-2
Ru2+	2
S6+	6
loop_
_atom_site_label
_atom_site_type_symbol
_atom_site_symmetry_multiplicity
_atom_site_Wyckoff_symbol
_atom_site_fract_x
_atom_site_fract_y
_atom_site_fract_z
_atom_site_occupancy
_atom_site_attached_hydrogens
_atom_site_U_iso_or_equiv
Ru1 Ru2+ 2 a 0 0 0 1. 0 0 
O1 O2- 4 e -.1677(2) 0.1131(1) -.1730(1) 1. 0 0 
O2 O2- 4 e 0.0406(2) -.1174(1) -.1676(1) 1. 0 0 
O3 O2- 4 e 0.3162(2) 0.0690(1) 0.0059(1) 1. 0 0 
S1 S6+ 4 e 0.27169(5) 0.36763(2) 0.08447(3) 1. 0 0 
O4 O2- 4 e 0.0497(2) 0.3282(1) 0.1005(1) 1. 0 0 
O5 O2- 4 e 0.3785(2) 0.4399(1) 0.2158(1) 1. 0 0 
O6 O2- 4 e 0.4239(2) 0.2733(1) 0.0857(2) 1. 0 0 
O7 O2- 4 e 0.2436(2) 0.4290(1) -.0613(1) 1. 0 0 
K1 K1+ 4 e 0.34974(5) 0.65503(5) 0.14086(3) 1. 0 0 
H1 H1+ 4 e -.2966 0.0852 -.2158 1. 0 0.0359 
H2 H1+ 4 e -.0847 0.121 -.2298 1. 0 0.0359 
H3 H1+ 4 e 0.0209 -.1841 -.1366 1. 0 0.0359 
H4 H1+ 4 e -.0354 -.1062 -.2491 1. 0 0.0359 
H5 H1+ 4 e 0.3193 0.1383 0.0191 1. 0 0.0359 
H6 H1+ 4 e 0.3672 0.0636 -.0686 1. 0 0.0359 

loop_
_atom_site_aniso_label
_atom_site_aniso_type_symbol
_atom_site_aniso_U_11
_atom_site_aniso_U_22
_atom_site_aniso_U_33
_atom_site_aniso_U_12
_atom_site_aniso_U_13
_atom_site_aniso_U_23
Ru1 Ru2+ 0.0067(1) 0.0066(1) 0.0057(1) 0.00000(3) 0.00131(4) 0.00040(3)
O1 O2- 0.0105(3) 0.0126(3) 0.0107(3) 0.0003(3) 0.0016(2) 0.0020(2)
O2 O2- 0.0135(3) 0.0111(3) 0.0100(3) -.0004(3) 0.0032(3) -.0004(2)
O3 O2- 0.0110(3) 0.0113(3) 0.0149(3) -.0005(3) 0.0048(3) -.0003(3)
S1 S6+ 0.0088(1) 0.0094(1) 0.0079(1) -.0010(1) 0.0017(1) -.0009(1)
O4 O2- 0.0103(4) 0.0135(4) 0.0194(4) -.0027(3) 0.0054(3) -.0018(3)
O5 O2- 0.0147(4) 0.0141(4) 0.0102(3) -.0035(3) 0.0030(3) -.0051(3)
O6 O2- 0.0130(4) 0.0125(4) 0.0254(5) 0.0012(3) 0.0050(3) -.0052(3)
O7 O2- 0.0233(5) 0.0251(5) 0.0100(3) -.0050(4) 0.0001(3) 0.0054(3)
K1 K1+ 0.0151(1) 0.0161(1) 0.0167(1) -.0001(1) 0.0063(1) 0.0010(1)
#End of data_67827-ICSD


