data_26438-ICSD
#?2014 by Fachinformationszentrum Karlsruhe, and the U.S. Secretary of 
#Commerce on behalf of the United States.  All rights reserved.
_database_code_ICSD                26438
_audit_creation_date               1981/12/31
_audit_update_record               2012/08/01
_chemical_name_systematic
;
Potassium Sulfate Bis(antimony Fluoride)
;
_chemical_formula_structural       'K2 S O4 (Sb F3)2'
_chemical_formula_sum              'F6 K2 O4 S1 Sb2'
_publ_section_title
;
Structure cristalline de K2 S O4 (Sb F3)2
;
loop_
_citation_id
_citation_journal_abbrev
_citation_year
_citation_journal_volume
_citation_page_first
_citation_page_last
_citation_journal_id_ASTM
primary 'Journal of Solid State Chemistry' 1981 36 183 189 JSSCBI
_publ_author_name
;
Bourgault, M.;Ducourant, M.B.;Bonnet, B.;Fourcade, R.
;
_cell_length_a                     9.225(2)
_cell_length_b                     5.632(1)
_cell_length_c                     19.3790(4)
_cell_angle_alpha                  90.
_cell_angle_beta                   103.14
_cell_angle_gamma                  90.
_cell_volume                       980.48
_cell_formula_units_Z              4
_symmetry_space_group_name_H-M     'P 1 21/c 1'
_symmetry_Int_Tables_number        14
_refine_ls_R_factor_all            .035
loop_
_symmetry_equiv_pos_site_id
_symmetry_equiv_pos_as_xyz
  1	'x, -y+.5, z+.5'
  2	'-x, -y, -z'
  3	'-x, y+.5, -z+.5'
  4	'x, y, z'
loop_
_atom_type_symbol
_atom_type_oxidation_number
F1-	-1
K1+	1
O2-	-2
S6+	6
Sb3+	3
loop_
_atom_site_label
_atom_site_type_symbol
_atom_site_symmetry_multiplicity
_atom_site_Wyckoff_symbol
_atom_site_fract_x
_atom_site_fract_y
_atom_site_fract_z
_atom_site_occupancy
_atom_site_attached_hydrogens
Sb1 Sb3+ 4 e 0.32310(8) 0.2414(1) 0.22201(3) 1. 0 
Sb2 Sb3+ 4 e 0.18599(8) 0.2801(1) 0.99948(4) 1. 0 
S1 S6+ 4 e 0.8697(3) 0.2621(5) 0.3779(1) 1. 0 
K1 K1+ 4 e 0.8610(3) 0.2517(5) 0.1730(1) 1. 0 
K2 K1+ 4 e 0.5196(3) 0.2517(5) 0.4251(1) 1. 0 
F1 F1- 4 e 0.3625(9) 0.028(1) 0.3035(4) 1. 0 
F2 F1- 4 e 0.3896(8) 0.215(1) 0.0548(4) 1. 0 
F3 F1- 4 e 0.2393(9) 0.444(1) 0.4353(4) 1. 0 
F4 F1- 4 e 0.4298(9) 0.472(1) 0.2912(4) 1. 0 
F5 F1- 4 e 0.1481(8) 0.345(1) 0.2510(4) 1. 0 
F6 F1- 4 e 0.7069(8) 0.480(1) 0.0425(4) 1. 0 
O1 O2- 4 e 0.740(1) 0.112(2) 0.3564(6) 1. 0 
O2 O2- 4 e 0.124(1) 0.934(2) 0.1778(5) 1. 0 
O3 O2- 4 e 0.138(1) 0.880(2) 0.0562(5) 1. 0 
O4 O2- 4 e 0.9942(9) 0.616(1) 0.1083(4) 1. 0 

loop_
_atom_site_aniso_label
_atom_site_aniso_type_symbol
_atom_site_aniso_U_11
_atom_site_aniso_U_22
_atom_site_aniso_U_33
_atom_site_aniso_U_12
_atom_site_aniso_U_13
_atom_site_aniso_U_23
Sb1 Sb3+ 0.0097 0.0189 0.0188 0.0014 0.0063 0.0006
Sb2 Sb3+ 0.0097 0.0222 0.0209 -.0009 0.0080 -.0035
S1 S6+ 0.0087 0.0147 0.0202 0.0006 0.0059 0.0016
K1 K1+ 0.0126 0.0211 0.0279 0.0008 0.0081 0.0004
K2 K1+ 0.0103 0.0337 0.0276 0.0029 0.0104 0.0035
F1 F1- 0.0204 0.0253 0.0257 -.0058 0.0018 0.0069
F2 F1- 0.0138 0.0393 0.036 0.0024 -.0013 0.0005
F3 F1- 0.0192 0.0187 0.0324 -.0002 0.0224 0.0077
F4 F1- 0.0182 0.0281 0.0338 -.0169 -.0051 -.0027
F5 F1- 0.014 0.0278 0.0369 0.0012 0.0198 -.0099
F6 F1- 0.0117 0.023 0.0365 -.0063 0.0077 0.0011
O1 O2- 0.0117 0.0363 0.0681 -.0055 0.0128 -.0179
O2 O2- 0.0224 0.0539 0.057 -.0208 0.0303 -.0392
O3 O2- 0.0248 0.045 0.036 -.0213 0.0149 0.0149
O4 O2- 0.0096 0.0232 0.032 -.0129 0.0064 -.0031
#End of data_26438-ICSD


