data_158510-ICSD
#?2014 by Fachinformationszentrum Karlsruhe, and the U.S. Secretary of 
#Commerce on behalf of the United States.  All rights reserved.
_database_code_ICSD                158510
_audit_creation_date               2008/02/01
_chemical_name_systematic
;
Lithium Aluminium Catena-disilicate
;
_chemical_formula_structural       'Li Al (Si2 O6)'
_chemical_formula_sum              'Al1 Li1 O6 Si2'
_chemical_name_mineral             Spodumene
_publ_section_title
;
Displacive phase transitions in C-centred clinopyroxenes: spodumene, 
Li Sc Si2 O6 and Zn Si O3
;
loop_
_citation_id
_citation_journal_abbrev
_citation_year
_citation_journal_volume
_citation_page_first
_citation_page_last
_citation_journal_id_ASTM
primary 'Physics and Chemistry of Minerals' 2000 27 719 731 PCMIDU
_publ_author_name                  'Arlt, T.;Angel, R.J.'
_cell_length_a                     9.3895(4)
_cell_length_b                     8.3240(6)
_cell_length_c                     5.1865(3)
_cell_angle_alpha                  90.
_cell_angle_beta                   110.023(4)
_cell_angle_gamma                  90.
_cell_volume                       380.87
_cell_formula_units_Z              4
_symmetry_space_group_name_H-M     'C 1 2/c 1'
_symmetry_Int_Tables_number        15
_refine_ls_R_factor_all            .036
loop_
_symmetry_equiv_pos_site_id
_symmetry_equiv_pos_as_xyz
  1	'x, -y, z+.5'
  2	'-x, -y, -z'
  3	'-x, y, -z+.5'
  4	'x, y, z'
  5	'x+.5, -y+.5, z+.5'
  6	'-x+.5, -y+.5, -z'
  7	'-x+.5, y+.5, -z+.5'
  8	'x+.5, y+.5, z'
loop_
_atom_type_symbol
_atom_type_oxidation_number
Al3+	3
Li1+	1
O2-	-2
Si4+	4
loop_
_atom_site_label
_atom_site_type_symbol
_atom_site_symmetry_multiplicity
_atom_site_Wyckoff_symbol
_atom_site_fract_x
_atom_site_fract_y
_atom_site_fract_z
_atom_site_occupancy
_atom_site_attached_hydrogens
_atom_site_B_iso_or_equiv
Al1 Al3+ 4 e 0 0.90682(3) 0.250 1. 0 0.32(3) 
Li1 Li1+ 4 e 0 0.2777(17) 0.250 1. 0 2.1(2) 
Si1 Si4+ 8 f 0.29460(13) 0.09429(16) 0.2566(2) 1. 0 0.37(2) 
O1 O2- 8 f 0.1088(4) 0.0843(4) 0.1415(5) 1. 0 0.44(5) 
O2 O2- 8 f 0.3641(3) 0.2689(4) 0.3018(5) 1. 0 0.61(5) 
O3 O2- 8 f 0.3574(3) 0.9870(5) 0.0576(5) 1. 0 0.56(5) 

#End of data_158510-ICSD


