data_14045-ICSD
#?2014 by Fachinformationszentrum Karlsruhe, and the U.S. Secretary of 
#Commerce on behalf of the United States.  All rights reserved.
_database_code_ICSD                14045
_audit_creation_date               1980/01/01
_audit_update_record               2012/02/01
_chemical_name_systematic          'Rubidium Dilithium Tris(iodate(V))'
_chemical_formula_structural       'Rb Li2 (I O3)3'
_chemical_formula_sum              'I3 Li2 O9 Rb1'
_publ_section_title
;
Crystal structure of Rb I O3 (Li I O3)2
;
loop_
_citation_id
_citation_journal_abbrev
_citation_year
_citation_journal_volume
_citation_page_first
_citation_page_last
_citation_journal_id_ASTM
primary 'Koordinatsionnaya Khimiya (= Coordination Chemistry (USSR))'
 1978 4 444 447 KOKHDC
_publ_author_name
;
Kalinin, V.P.;Karataeva, I.M.;Vinogradov, E.E.;Vavilin, 
V.I.;Plyukhin, V.V.;Pakhomov, V.I.
;
_cell_length_a                     8.46(2)
_cell_length_b                     11.22(2)
_cell_length_c                     11.09(2)
_cell_angle_alpha                  90.
_cell_angle_beta                   90.
_cell_angle_gamma                  112.0(1)
_cell_volume                       976.02
_cell_formula_units_Z              4
_symmetry_space_group_name_H-M     'P 1 1 21/b'
_symmetry_Int_Tables_number        14
_refine_ls_R_factor_all            .085
loop_
_symmetry_equiv_pos_site_id
_symmetry_equiv_pos_as_xyz
  1	'x, y+.5, -z+.5'
  2	'-x, -y, -z'
  3	'-x, -y+.5, z+.5'
  4	'x, y, z'
loop_
_atom_type_symbol
_atom_type_oxidation_number
I5+	5
Li1+	1
O2-	-2
Rb1+	1
loop_
_atom_site_label
_atom_site_type_symbol
_atom_site_symmetry_multiplicity
_atom_site_Wyckoff_symbol
_atom_site_fract_x
_atom_site_fract_y
_atom_site_fract_z
_atom_site_occupancy
_atom_site_attached_hydrogens
_atom_site_B_iso_or_equiv
I1 I5+ 4 e 0.219(1) 0.174(1) 0.053(1) 1. 0 0.554(1) 
I2 I5+ 4 e 0.412(1) 0.046(1) 0.320(1) 1. 0 0.490(1) 
I3 I5+ 4 e 0.915(1) 0.064(1) 0.369(1) 1. 0 0.441(1) 
Rb1 Rb1+ 4 e 0.708(1) 0.162(2) 0.044(2) 1. 0 0.891(1) 
O1 O2- 4 e 0.964(3) 0.334(4) 0.453(6) 1. 0 2.30(1) 
O2 O2- 4 e 0.661(6) 0.391(6) 0.460(5) 1. 0 0.98(1) 
O3 O2- 4 e 0.656(4) 0.158(4) 0.536(3) 1. 0 1.36(1) 
O4 O2- 4 e 0.256(3) 0.443(5) 0.285(4) 1. 0 0.91(1) 
O5 O2- 4 e 0.456(4) 0.191(4) 0.237(4) 1. 0 1.64(1) 
O6 O2- 4 e 0.599(4) 0.011(5) 0.280(4) 1. 0 0.71(1) 
O7 O2- 4 e 0.976(6) 0.172(4) 0.242(4) 1. 0 1.28(1) 
O8 O2- 4 e 0.139(5) 0.086(4) 0.702(3) 1. 0 1.11(1) 
O9 O2- 4 e 0.128(4) 0.085(3) 0.423(5) 1. 0 2.11(1) 
Li1 Li1+ 4 e 0.009(22) 0.335(17) 0.278(15) 1. 0 0.91(1) 
Li2 Li1+ 4 e 0.619(20) 0.375(15) 0.284(14) 1. 0 0.71(1) 

#End of data_14045-ICSD


