data_202627-ICSD
#?2014 by Fachinformationszentrum Karlsruhe, and the U.S. Secretary of 
#Commerce on behalf of the United States.  All rights reserved.
_database_code_ICSD                202627
_audit_creation_date               1989/06/19
_audit_update_record               2013/02/01
_chemical_name_systematic          'Dilithium Tetrachlorochromate(II)'
_chemical_formula_structural       'Li2 (Cr Cl4)'
_chemical_formula_sum              'Cl4 Cr1 Li2'
_publ_section_title
;
Synthesis, structure, ionic conductivity, and phase transformation of 
new double chloride spinel, Li2 Cr Cl4
;
loop_
_citation_id
_citation_journal_abbrev
_citation_year
_citation_journal_volume
_citation_page_first
_citation_page_last
_citation_journal_id_ASTM
primary 'Journal of Solid State Chemistry' 1988 75 41 51 JSSCBI
_publ_author_name
;
Kanno, R.;Takeda, Y.;Matsumoto, A.;Yamamoto, O.;Suyama, R.;Kume, S.
;
_cell_length_a                     7.446(1)
_cell_length_b                     10.162(2)
_cell_length_c                     10.172(2)
_cell_angle_alpha                  90.
_cell_angle_beta                   90.
_cell_angle_gamma                  132.11(1)
_cell_volume                       570.99
_cell_formula_units_Z              4
_symmetry_space_group_name_H-M     'A 1 1 2/a'
_symmetry_Int_Tables_number        15
_refine_ls_R_factor_all            .1752
loop_
_symmetry_equiv_pos_site_id
_symmetry_equiv_pos_as_xyz
  1	'-x+.5, -y, z'
  2	'-x, -y, -z'
  3	'x+.5, y, -z'
  4	'x, y, z'
  5	'-x+.5, -y+.5, z+.5'
  6	'-x, -y+.5, -z+.5'
  7	'x+.5, y+.5, -z+.5'
  8	'x, y+.5, z+.5'
loop_
_atom_type_symbol
_atom_type_oxidation_number
Cl1-	-1
Cr2+	2
Li1+	1
loop_
_atom_site_label
_atom_site_type_symbol
_atom_site_symmetry_multiplicity
_atom_site_Wyckoff_symbol
_atom_site_fract_x
_atom_site_fract_y
_atom_site_fract_z
_atom_site_occupancy
_atom_site_attached_hydrogens
_atom_site_B_iso_or_equiv
Li1 Li1+ 4 e 0.25 0 -.188(2) 1. 0 14.0(1) 
Li2 Li1+ 4 b 0 0 0.5 1. 0 3.50(24) 
Cr1 Cr2+ 4 d 0.5 0.25 0.25 1. 0 0.19(35) 
Cl1 Cl1- 8 f -.0023(17) -.0080(14) 0.258(4) 1. 0 0.21(43) 
Cl2 Cl1- 8 f 0.0018(55) 0.746(6) 0.0073(12) 1. 0 0.78(37) 

#End of data_202627-ICSD


