data_93369-ICSD
#?2014 by Fachinformationszentrum Karlsruhe, and the U.S. Secretary of 
#Commerce on behalf of the United States.  All rights reserved.
_database_code_ICSD                93369
_audit_creation_date               2003/04/01
_chemical_name_systematic
;
Tripotassium Pentabismuth Dicopper(I) Sulfide
;
_chemical_formula_structural       'K3 Bi5 Cu2 S10'
_chemical_formula_sum              'Bi5 Cu2 K3 S10'
_publ_section_title
;
Syntheses and structures of the quaternary alkali-metal bismuth 
coinage-metal chalcogenides K3 Bi5 Cu2 S10, Cs Bi2 Cu S4, Rb Bi2.66 
Cu Se5 and Cs Bi Ag2 S3
;
loop_
_citation_id
_citation_journal_abbrev
_citation_year
_citation_journal_volume
_citation_page_first
_citation_page_last
_citation_journal_id_ASTM
primary 'Journal of Alloys and Compounds' 2001 325 84 90 JALCEU
_publ_author_name
;
Huang, F.-Q.;Mitchell, K.;Ibers, J.A.
;
_cell_length_a                     14.173(2)
_cell_length_b                     17.690(2)
_cell_length_c                     4.0362(5)
_cell_angle_alpha                  90
_cell_angle_beta                   90
_cell_angle_gamma                  90
_cell_volume                       1011.96
_cell_formula_units_Z              2
_symmetry_space_group_name_H-M     'P n n m'
_symmetry_Int_Tables_number        58
_refine_ls_R_factor_all            .024
loop_
_symmetry_equiv_pos_site_id
_symmetry_equiv_pos_as_xyz
  1	'x+.5, -y+.5, z+.5'
  2	'-x+.5, y+.5, z+.5'
  3	'x, y, -z'
  4	'-x, -y, -z'
  5	'-x+.5, y+.5, -z+.5'
  6	'x+.5, -y+.5, -z+.5'
  7	'-x, -y, z'
  8	'x, y, z'
loop_
_atom_type_symbol
_atom_type_oxidation_number
Bi3+	3
Cu1+	1
K1+	1
S2-	-2
loop_
_atom_site_label
_atom_site_type_symbol
_atom_site_symmetry_multiplicity
_atom_site_Wyckoff_symbol
_atom_site_fract_x
_atom_site_fract_y
_atom_site_fract_z
_atom_site_occupancy
_atom_site_attached_hydrogens
_atom_site_U_iso_or_equiv
K1 K1+ 4 g 0.4749(1) 0.25255(9) 0 1. 0 0.0156(4) 
K2 K1+ 2 c 0 0.5 0 1. 0 0.0052(4) 
Bi1 Bi3+ 4 g 0.27993(2) 0.59831(1) 0 1. 0 0.0084(1) 
Bi2 Bi3+ 4 g 0.73038(2) 0.10093(2) 0 1. 0 0.0093(1) 
Bi3 Bi3+ 2 a 0 0 0 1. 0 0.0115(1) 
Cu1 Cu1+ 4 g 0.21655(8) 0.24691(5) 0 1. 0 0.0134(2) 
S1 S2- 4 g 0.0939(1) 0.14074(9) 0 1. 0 0.0088(3) 
S2 S2- 4 g 0.1167(1) 0.3525(1) 0 1. 0 0.0103(3) 
S3 S2- 4 g 0.1985(1) 0.7318(1) 0 1. 0 0.0104(4) 
S4 S2- 4 g 0.3399(1) 0.0372(1) 0 1. 0 0.0105(4) 
S5 S2- 4 g 0.3781(1) 0.4432(1) 0 1. 0 0.0118(4) 

#End of data_93369-ICSD


