data_25616-ICSD
#?2014 by Fachinformationszentrum Karlsruhe, and the U.S. Secretary of 
#Commerce on behalf of the United States.  All rights reserved.
_database_code_ICSD                25616
_audit_creation_date               1986/10/02
_audit_update_record               2006/10/01
_chemical_name_systematic          'Dithallium Aluminium Fluoride'
_chemical_formula_structural       'Tl2 Al F5'
_chemical_formula_sum              'Al1 F5 Tl2'
_publ_section_title
;
Herstellung und Kristallbau der Verbindungen Tl Al F4 und Tl2 Al F5
;
loop_
_citation_id
_citation_journal_abbrev
_citation_year
_citation_journal_volume
_citation_page_first
_citation_page_last
_citation_journal_id_ASTM
primary 'Zeitschrift fuer Anorganische und Allgemeine Chemie (1950) (DE)'
 1937 235 139 147 ZAACAB
_publ_author_name                  'Brosset, C.'
_cell_length_a                     10.06(1)
_cell_length_b                     8.24(1)
_cell_length_c                     7.46(1)
_cell_angle_alpha                  90.
_cell_angle_beta                   90.
_cell_angle_gamma                  90.
_cell_volume                       618.39
_cell_formula_units_Z              4
_symmetry_space_group_name_H-M     'C 2 2 21'
_symmetry_Int_Tables_number        20
loop_
_symmetry_equiv_pos_site_id
_symmetry_equiv_pos_as_xyz
  1	'-x, y, -z+.5'
  2	'-x, -y, z+.5'
  3	'x, -y, -z'
  4	'x, y, z'
  5	'-x+.5, y+.5, -z+.5'
  6	'-x+.5, -y+.5, z+.5'
  7	'x+.5, -y+.5, -z'
  8	'x+.5, y+.5, z'
loop_
_atom_type_symbol
_atom_type_oxidation_number
Al3+	3
F1-	-1
Tl1+	1
loop_
_atom_site_label
_atom_site_type_symbol
_atom_site_symmetry_multiplicity
_atom_site_Wyckoff_symbol
_atom_site_fract_x
_atom_site_fract_y
_atom_site_fract_z
_atom_site_occupancy
_atom_site_attached_hydrogens
Tl1 Tl1+ 8 c 0.29 0.2 0 1. 0 
Al1 Al3+ 4 b 0 0 0.25 1. 0 
F1 F1- 4 b 0 0.23 0.25 1. 0 
F2 F1- 4 b 0 0.77 0.25 1. 0 
F3 F1- 4 a 0.033 0 0 1. 0 
F4 F1- 8 c 0.19 0 0.29 1. 0 

#End of data_25616-ICSD


