data_66137-ICSD
#?2014 by Fachinformationszentrum Karlsruhe, and the U.S. Secretary of 
#Commerce on behalf of the United States.  All rights reserved.
_database_code_ICSD                66137
_audit_creation_date               1992/01/20
_audit_update_record               2005/10/01
_chemical_name_systematic          'Lithium Tecto-alumosilicate'
_chemical_formula_structural       'Li (Al Si O4)'
_chemical_formula_sum              'Al1 Li1 O4 Si1'
_chemical_name_mineral             'Eucryptite gamma'
_publ_section_title
;
Thermal transformation of zeolite Li-A(BW). The crystal structure of 
gamma-eucryptite, a polymorph of Li Al Si O4
;
loop_
_citation_id
_citation_journal_abbrev
_citation_year
_citation_journal_volume
_citation_page_first
_citation_page_last
_citation_journal_id_ASTM
primary Zeolites 1990 10 193 199 ZEOLD3
_publ_author_name                  'Norby, P.'
_cell_length_a                     8.228(2)
_cell_length_b                     5.032(1)
_cell_length_c                     8.274(1)
_cell_angle_alpha                  90.
_cell_angle_beta                   107.46(1)
_cell_angle_gamma                  90.
_cell_volume                       326.79
_cell_formula_units_Z              4
_symmetry_space_group_name_H-M     'P 1 a 1'
_symmetry_Int_Tables_number        7
_refine_ls_R_factor_all            .042
loop_
_symmetry_equiv_pos_site_id
_symmetry_equiv_pos_as_xyz
  1	'x+.5, -y, z'
  2	'x, y, z'
loop_
_atom_type_symbol
_atom_type_oxidation_number
Al3+	3
Li1+	1
O2-	-2
Si4+	4
loop_
_atom_site_label
_atom_site_type_symbol
_atom_site_symmetry_multiplicity
_atom_site_Wyckoff_symbol
_atom_site_fract_x
_atom_site_fract_y
_atom_site_fract_z
_atom_site_occupancy
_atom_site_attached_hydrogens
_atom_site_B_iso_or_equiv
Si1 Si4+ 2 a 0.5 0.319(2) 0.25 1. 0 0.1(2) 
Si2 Si4+ 2 a -.155(1) 0.191(2) -.262(1) 1. 0 0.1(2) 
Al1 Al3+ 2 a 0.375(1) 0.830(2) 0.368(1) 1. 0 0.1(2) 
Al2 Al3+ 2 a -.268(1) -.318(2) -.126(1) 1. 0 0.1(2) 
O1 O2- 2 a 0.674(1) 0.189(3) 0.225(2) 1. 0 0.8(4) 
O2 O2- 2 a 0.366(2) 0.272(2) 0.073(2) 1. 0 0.8(4) 
O3 O2- 2 a 0.440(2) 0.175(2) 0.401(1) 1. 0 0.8(4) 
O4 O2- 2 a 0.518(2) 0.641(2) 0.292(1) 1. 0 0.8(4) 
O5 O2- 2 a -.298(2) 0.358(2) -.209(2) 1. 0 0.8(4) 
O6 O2- 2 a 0.025(1) 0.225(3) -.113(2) 1. 0 0.8(4) 
O7 O2- 2 a -.161(2) 0.296(2) -.452(2) 1. 0 0.8(4) 
O8 O2- 2 a -.205(2) -.135(2) -.274(2) 1. 0 0.8(4) 
Li1 Li1+ 2 a 0.279(4) 0.337(6) 0.511(4) 1. 0 2.0(5) 
Li2 Li1+ 2 a 0.563(3) 0.162(6) -.045(3) 1. 0 2.0(5) 

#End of data_66137-ICSD


