data_380466-ICSD
#?2014 by Fachinformationszentrum Karlsruhe, and the U.S. Secretary of 
#Commerce on behalf of the United States.  All rights reserved.
_database_code_ICSD                380466
_audit_creation_date               2011/02/01
_chemical_name_systematic
;
Pentapotassium Tetralanthanum Neso-tetraoxosilicate
;
_chemical_formula_structural       'K5 La4 F (Si O4)4'
_chemical_formula_sum              'F1 K5 La4 O16 Si4'
_publ_section_title
;
K5 La4 F [Si O4]4: A fluoride-poor quinary lanthanum neso-oxosilicate
;
loop_
_citation_id
_citation_journal_abbrev
_citation_year
_citation_journal_volume
_citation_journal_issue
_citation_page_first
_citation_page_last
_citation_journal_id_ASTM
primary 'Zeitschrift fuer Anorganische und Allgemeine Chemie (1950) (DE)'
 2010 636 11 2069 2069 ZAACAB
_publ_author_name                  'Schaefer, M.C.;Schleid, T.'
_cell_length_a                     12.5139(8)
_cell_length_b                     12.5139(8)
_cell_length_c                     5.5153(4)
_cell_angle_alpha                  90.00
_cell_angle_beta                   90.00
_cell_angle_gamma                  90.00
_cell_volume                       863.68
_cell_formula_units_Z              2
_symmetry_space_group_name_H-M     'I -4'
_symmetry_Int_Tables_number        82
_refine_ls_R_factor_all            .023
loop_
_symmetry_equiv_pos_site_id
_symmetry_equiv_pos_as_xyz
  1	'-y, x, -z'
  2	'y, -x, -z'
  3	'-x, -y, z'
  4	'x, y, z'
  5	'-y+.5, x+.5, -z+.5'
  6	'y+.5, -x+.5, -z+.5'
  7	'-x+.5, -y+.5, z+.5'
  8	'x+.5, y+.5, z+.5'
loop_
_atom_type_symbol
_atom_type_oxidation_number
F1-	-1
K1+	1
La3+	3
O2-	-2
Si4+	4
loop_
_atom_site_label
_atom_site_type_symbol
_atom_site_symmetry_multiplicity
_atom_site_Wyckoff_symbol
_atom_site_fract_x
_atom_site_fract_y
_atom_site_fract_z
_atom_site_occupancy
_atom_site_attached_hydrogens
_atom_site_U_iso_or_equiv
K1 K1+ 2 b 0.0000 0.0000 0.5000 1 0 0.0102(4) 
K2 K1+ 8 g 0.10240(8) 0.40750(8) 0.5001(3) 1 0 0.0094(2) 
La1 La3+ 8 g 0.11814(2) 0.18549(2) 0.00984(7) 1 0 0.00540(11) 
F1 F1- 2 a 0.0000 0.0000 0.0000 1 0 0.0112(13) 
Si1 Si4+ 8 g 0.24524(9) 0.10289(9) 0.4945(4) 1 0 0.0046(3) 
O1 O2- 8 g 0.2982(4) 0.4535(4) 0.2398(9) 1 0 0.0088(12) 
O2 O2- 8 g 0.2027(4) 0.0393(4) 0.2552(9) 1 0 0.0101(12) 
O3 O2- 8 g 0.1249(3) 0.3853(3) 0.0028(9) 1 0 0.0075(10) 
O4 O2- 8 g 0.1989(3) 0.2246(3) 0.4676(9) 1 0 0.0110(11) 

loop_
_atom_site_aniso_label
_atom_site_aniso_type_symbol
_atom_site_aniso_U_11
_atom_site_aniso_U_22
_atom_site_aniso_U_33
_atom_site_aniso_U_12
_atom_site_aniso_U_13
_atom_site_aniso_U_23
K1 K1+ 0.0112(6) 0.0112(6) 0.0083(11) 0.000 0.000 0.000
K2 K1+ 0.0091(5) 0.0096(4) 0.0096(6) 0.0011(3) 0.0002(7) 0.0003(8)
La1 La3+ 0.00504(15) 0.00474(15) 0.00641(17) 0.00037(9) -0.00013(17) 
-0.00015(19)
F1 F1- 0.0094(16) 0.0094(16) 0.015(4) 0.000 0.000 0.000
Si1 Si4+ 0.0058(6) 0.0047(6) 0.0032(7) 0.0003(4) 0.0003(9) -0.0002(10)
O1 O2- 0.010(3) 0.009(3) 0.008(3) -0.006(3) -0.0020(18) 0.003(2)
O2 O2- 0.013(3) 0.012(3) 0.006(3) -0.001(3) -0.0009(19) -0.006(2)
O3 O2- 0.007(3) 0.009(3) 0.007(2) -0.0012(19) 0.004(2) -0.006(2)
O4 O2- 0.009(3) 0.008(3) 0.015(2) 0.0016(19) -0.001(2) -0.002(2)
#End of data_380466-ICSD


