data_391382-ICSD
#?2014 by Fachinformationszentrum Karlsruhe, and the U.S. Secretary of 
#Commerce on behalf of the United States.  All rights reserved.
_database_code_ICSD                391382
_audit_creation_date               2007/08/01
_chemical_name_systematic          'Sodium Oxoditellurate(VI)'
_chemical_formula_structural       'Na2 (Te2 O7)'
_chemical_formula_sum              'Na2 O7 Te2'
_publ_section_title
;
Na2 Te2 O7: Ein Natrium-Oxoditellurat(VI) mit eckenverknuepften 
[TeO6]6- - Oktaedern
;
loop_
_citation_id
_citation_journal_abbrev
_citation_year
_citation_journal_volume
_citation_journal_issue
_citation_page_first
_citation_page_last
_citation_journal_id_ASTM
primary 'Zeitschrift fuer Anorganische und Allgemeine Chemie (1950) (DE)'
 2006 632 12-13 2151 2151 ZAACAB
_publ_author_name                  'Meier, S.F.;Schleid, T.'
_cell_length_a                     7.2278(5)
_cell_length_b                     10.0991(7)
_cell_length_c                     7.4403(5)
_cell_angle_alpha                  90.00
_cell_angle_beta                   90.00
_cell_angle_gamma                  90.00
_cell_volume                       543.1
_cell_formula_units_Z              4
_symmetry_space_group_name_H-M     'I m m a'
_symmetry_Int_Tables_number        74
_refine_ls_R_factor_all            .0223
loop_
_symmetry_equiv_pos_site_id
_symmetry_equiv_pos_as_xyz
  1	'-x, y+.5, -z'
  2	'-x, -y+.5, z'
  3	'-x, y, z'
  4	'-x, -y, -z'
  5	'x, -y+.5, z'
  6	'x, y+.5, -z'
  7	'x, -y, -z'
  8	'x, y, z'
  9	'-x+.5, y, -z+.5'
 10	'-x+.5, -y, z+.5'
 11	'-x+.5, y+.5, z+.5'
 12	'-x+.5, -y+.5, -z+.5'
 13	'x+.5, -y, z+.5'
 14	'x+.5, y, -z+.5'
 15	'x+.5, -y+.5, -z+.5'
 16	'x+.5, y+.5, z+.5'
loop_
_atom_type_symbol
_atom_type_oxidation_number
Na1+	1
O2-	-2
Te6+	6
loop_
_atom_site_label
_atom_site_type_symbol
_atom_site_symmetry_multiplicity
_atom_site_Wyckoff_symbol
_atom_site_fract_x
_atom_site_fract_y
_atom_site_fract_z
_atom_site_occupancy
_atom_site_attached_hydrogens
_atom_site_U_iso_or_equiv
Na1 Na1+ 4 b 0.0000 0.0000 0.5000 1 0 0.0102(6) 
Na2 Na1+ 4 c 0.2500 0.2500 0.2500 1 0 0.0118(6) 
Te1 Te6+ 4 a 0.0000 0.0000 0.0000 1 0 0.00768(14) 
Te2 Te6+ 4 d 0.2500 0.2500 0.7500 1 0 0.00674(14) 
O1 O2- 4 e 0.0000 0.2500 0.6596(6) 1 0 0.0113(9) 
O2 O2- 8 h 0.0000 0.0814(3) 0.2178(4) 1 0 0.0140(7) 
O3 O2- 16 j 0.2934(3) 0.1210(2) 0.5702(3) 1 0 0.0129(5) 

loop_
_atom_site_aniso_label
_atom_site_aniso_type_symbol
_atom_site_aniso_U_11
_atom_site_aniso_U_22
_atom_site_aniso_U_33
_atom_site_aniso_U_12
_atom_site_aniso_U_13
_atom_site_aniso_U_23
Na1 Na1+ 0.0101(13) 0.0159(15) 0.0047(12) 0.000 0.000 0.0013(11)
Na2 Na1+ 0.0141(14) 0.0085(14) 0.0129(14) 0.000 -0.0018(11) 0.000
Te1 Te6+ 0.0069(2) 0.0084(2) 0.0078(2) 0.000 0.000 0.00069(18)
Te2 Te6+ 0.0060(2) 0.0070(2) 0.0072(2) 0.000 0.00045(16) 0.000
O1 O2- 0.011(2) 0.015(2) 0.008(2) 0.000 0.000 0.000
O2 O2- 0.0156(15) 0.0150(17) 0.0114(16) 0.000 0.000 -0.0016(13)
O3 O2- 0.0103(10) 0.0150(12) 0.0134(11) 0.0013(9) 0.0012(9) -0.0032(10)
#End of data_391382-ICSD


