data_249407-ICSD
#?2014 by Fachinformationszentrum Karlsruhe, and the U.S. Secretary of 
#Commerce on behalf of the United States.  All rights reserved.
_database_code_ICSD                249407
_audit_creation_date               2008/02/01
_chemical_name_systematic          'Aluminium Trihydride - Gamma'
_chemical_formula_structural       'Al H3'
_chemical_formula_sum              'H3 Al1'
_publ_section_title
;
Double-bridge bonding of aluminium and hydrogen in the crystal 
structure of gamma-AlH3
;
loop_
_citation_id
_citation_journal_abbrev
_citation_year
_citation_journal_volume
_citation_journal_issue
_citation_page_first
_citation_page_last
_citation_journal_id_ASTM
primary 'Inorganic Chemistry' 2007 46 4 1051 1055 INOCAJ
_publ_author_name
;
Yartys', V.A.;Denys, R.V.;Maehlen, J.P.;Frommen, C.;Fichtner, 
M.;Bulychev, B.M.;Emerich, H.
;
_cell_length_a                     5.38062(11)
_cell_length_b                     7.35553(15)
_cell_length_c                     5.77509(5)
_cell_angle_alpha                  90.0
_cell_angle_beta                   90.0
_cell_angle_gamma                  90.0
_cell_volume                       228.56
_cell_formula_units_Z              6
_symmetry_space_group_name_H-M     'P n n m'
_symmetry_Int_Tables_number        58
loop_
_symmetry_equiv_pos_site_id
_symmetry_equiv_pos_as_xyz
  1	'x+.5, -y+.5, z+.5'
  2	'-x+.5, y+.5, z+.5'
  3	'x, y, -z'
  4	'-x, -y, -z'
  5	'-x+.5, y+.5, -z+.5'
  6	'x+.5, -y+.5, -z+.5'
  7	'-x, -y, z'
  8	'x, y, z'
loop_
_atom_type_symbol
_atom_type_oxidation_number
Al3+	3
H1-	-1
loop_
_atom_site_label
_atom_site_type_symbol
_atom_site_symmetry_multiplicity
_atom_site_Wyckoff_symbol
_atom_site_fract_x
_atom_site_fract_y
_atom_site_fract_z
_atom_site_occupancy
_atom_site_attached_hydrogens
_atom_site_U_iso_or_equiv
Al1 Al3+ 2 b 0.0 0.0 0.5 1.0 0 0.0126(5) 
Al2 Al3+ 4 g 0.78742(18) 0.08486(16) 0.0 1.0 0 0.00397(18) 
H1 H1- 2 d 0.0 0.5 0.5 1.0 0 0.02 
H2 H1- 8 h 0.7622(20) 0.0777(22) 0.3088(13) 1.0 0 0.02 
H3 H1- 4 g 0.0936(23) 0.1302(18) 0.0 1.0 0 0.02 
H4 H1- 4 g 0.625(4) 0.2775(17) 0.0 1.0 0 0.02 

#End of data_249407-ICSD


