data_1299-ICSD
#?2014 by Fachinformationszentrum Karlsruhe, and the U.S. Secretary of 
#Commerce on behalf of the United States.  All rights reserved.
_database_code_ICSD                1299
_audit_creation_date               1980/01/01
_audit_update_record               2012/08/01
_chemical_name_systematic          'Hexasilver Disilicate'
_chemical_formula_structural       'Ag6 (Si2 O7)'
_chemical_formula_sum              'Ag6 O7 Si2'
_publ_section_title                Silber(I)-disilikat
loop_
_citation_id
_citation_journal_abbrev
_citation_year
_citation_journal_volume
_citation_page_first
_citation_page_last
_citation_journal_id_ASTM
primary 'Acta Crystallographica B (24,1968-38,1982)' 1977 33 3584 3586 ACBCAR
_publ_author_name                  'Jansen, M.'
_cell_length_a                     10.264(4)
_cell_length_b                     5.259(3)
_cell_length_c                     8.052(4)
_cell_angle_alpha                  90.
_cell_angle_beta                   110.5(1)
_cell_angle_gamma                  90.
_cell_volume                       407.11
_cell_formula_units_Z              2
_symmetry_space_group_name_H-M     'P 1 2/n 1'
_symmetry_Int_Tables_number        13
_refine_ls_R_factor_all            .062
loop_
_symmetry_equiv_pos_site_id
_symmetry_equiv_pos_as_xyz
  1	'x+.5, -y, z+.5'
  2	'-x+.5, y, -z+.5'
  3	'-x, -y, -z'
  4	'x, y, z'
loop_
_atom_type_symbol
_atom_type_oxidation_number
Ag1+	1
O2-	-2
Si4+	4
loop_
_atom_site_label
_atom_site_type_symbol
_atom_site_symmetry_multiplicity
_atom_site_Wyckoff_symbol
_atom_site_fract_x
_atom_site_fract_y
_atom_site_fract_z
_atom_site_occupancy
_atom_site_attached_hydrogens
Ag1 Ag1+ 4 g 0.1323(1) 0.2276(2) 0.5800(1) 1. 0 
Ag2 Ag1+ 4 g 0.6000(1) 0.3018(2) 0.2871(1) 1. 0 
Ag3 Ag1+ 4 g 0.3851(1) 0.2425(2) 0.4495(1) 1. 0 
Si1 Si4+ 4 g -.1380(2) 0.2816(5) 0.6628(3) 1. 0 
O1 O2- 4 g 0.6338(7) 0.5915(14) -.1801(9) 1. 0 
O2 O2- 4 g 0.5142(7) 0.8395(15) 0.2694(9) 1. 0 
O3 O2- 4 g 0.6882(7) 0.1986(15) 0.0435(9) 1. 0 
O4 O2- 2 e 0.25 0.8313(16) 0.25 1. 0 

loop_
_atom_site_aniso_label
_atom_site_aniso_type_symbol
_atom_site_aniso_U_11
_atom_site_aniso_U_22
_atom_site_aniso_U_33
_atom_site_aniso_U_12
_atom_site_aniso_U_13
_atom_site_aniso_U_23
Ag1 Ag1+ 0.0278(4) 0.0260(4) 0.0194(4) 0.0040(3) 0.0137(3) 0.0030(3)
Ag2 Ag1+ 0.0155(3) 0.0231(4) 0.0239(4) 0.0005(3) 0.0047(3) 0.0051(3)
Ag3 Ag1+ 0.0249(4) 0.0303(5) 0.0130(3) 0.0044(3) 0.0038(3) 0.0044(3)
Si1 Si4+ 0.012(1) 0.0128(11) 0.0097(10) -.0012(8) 0.0050(8) -.0020(8)
O1 O2- 0.0212(34) 0.0152(31) 0.0181(33) 0.0028(25) 0.0135(28) 0.0017(25)
O2 O2- 0.0192(32) 0.0238(37) 0.0145(30) -.0005(27) 0.0048(26) -.0051(27)
O3 O2- 0.0209(32) 0.0252(37) 0.0116(28) 0.0038(27) 0.0041(25) -.0015(28)
O4 O2- 0.0196(44) 0.0139(44) 0.0284(52) 0 0.0201(41) 0
#End of data_1299-ICSD


