data_63661-ICSD
#?2014 by Fachinformationszentrum Karlsruhe, and the U.S. Secretary of 
#Commerce on behalf of the United States.  All rights reserved.
_database_code_ICSD                63661
_audit_creation_date               1988/12/19
_audit_update_record               2012/08/01
_chemical_name_systematic
;
Calcium Aluminium Iron Hydrogen Silicon Oxide (2/2/1/1/3/13)
;
_chemical_formula_structural       'Ca2 Al2 Fe Si3 O13 H'
_chemical_formula_sum              'H1 Al2 Ca2 Fe1 O13 Si3'
_chemical_name_mineral             Epidote
_publ_section_title
;
The ferric ion distribution and hydrogen bonding in epidote: a 
neutron diffraction study at 15K
;
loop_
_citation_id
_citation_journal_abbrev
_citation_year
_citation_journal_volume
_citation_page_first
_citation_page_last
_citation_journal_id_ASTM
primary 'Acta Crystallographica, Section B: Structural Science'
 1988 44 351 355 ASBSDK
_publ_author_name
;
Kvick, A.;Pluth, J.J.;Richardson, J.W.jr.;Smith, J.V.
;
_cell_length_a                     8.893(2)
_cell_length_b                     5.630(3)
_cell_length_c                     10.150(2)
_cell_angle_alpha                  90.
_cell_angle_beta                   115.36(1)
_cell_angle_gamma                  90.
_cell_volume                       459.21
_cell_formula_units_Z              2
_symmetry_space_group_name_H-M     'P 1 21/m 1'
_symmetry_Int_Tables_number        11
_refine_ls_R_factor_all            .0246
loop_
_symmetry_equiv_pos_site_id
_symmetry_equiv_pos_as_xyz
  1	'x, -y+.5, z'
  2	'-x, -y, -z'
  3	'-x, y+.5, -z'
  4	'x, y, z'
loop_
_atom_type_symbol
_atom_type_oxidation_number
Al3+	3
Ca2+	2
Fe3+	3
H1+	1
O2-	-2
Si4+	4
loop_
_atom_site_label
_atom_site_type_symbol
_atom_site_symmetry_multiplicity
_atom_site_Wyckoff_symbol
_atom_site_fract_x
_atom_site_fract_y
_atom_site_fract_z
_atom_site_occupancy
_atom_site_attached_hydrogens
Al1 Al3+ 2 a 0 0 0 1. 0 
Al2 Al3+ 2 c 0 0 0.5 1. 0 
Fe1 Fe3+ 2 e 0.29367(4) 0.25 0.22375(3) 1. 0 
Ca1 Ca2+ 2 e 0.75738(7) 0.75 0.15180(6) 1. 0 
Ca2 Ca2+ 2 e 0.60663(7) 0.75 0.42524(6) 1. 0 
Si1 Si4+ 2 e 0.33978(8) 0.75 0.04818(7) 1. 0 
Si2 Si4+ 2 e 0.68397(8) 0.25 0.27497(7) 1. 0 
Si3 Si4+ 2 e 0.18377(8) 0.75 0.31840(7) 1. 0 
O1 O2- 4 f 0.23435(4) -.00501(6) 0.04190(3) 1. 0 
O2 O2- 4 f 0.30358(4) -.01724(7) 0.35511(3) 1. 0 
O3 O2- 4 f 0.79469(4) 0.01316(6) 0.34012(3) 1. 0 
O4 O2- 2 e 0.05187(6) 0.25 0.12964(5) 1. 0 
O5 O2- 2 e 0.04109(6) 0.75 0.14531(5) 1. 0 
O6 O2- 2 e 0.06675(6) 0.75 0.40696(5) 1. 0 
O7 O2- 2 e 0.51549(6) 0.75 0.18136(5) 1. 0 
O8 O2- 2 e 0.52512(6) 0.25 0.30915(6) 1. 0 
O9 O2- 2 e 0.62775(6) 0.25 0.09925(5) 1. 0 
O10 O2- 2 e 0.08203(6) 0.25 0.42787(5) 1. 0 
H1 H1+ 2 e 0.05362(13) 0.25 0.32379(10) 1. 0 

loop_
_atom_site_aniso_label
_atom_site_aniso_type_symbol
_atom_site_aniso_U_11
_atom_site_aniso_U_22
_atom_site_aniso_U_33
_atom_site_aniso_U_12
_atom_site_aniso_U_13
_atom_site_aniso_U_23
Al1 Al3+ 0.0201(36) 0.0221(41) 0.0231(35) 0.0033(24) 0.0068(24) -.0004(25)
Al2 Al3+ 0.0250(27) 0.0148(32) 0.0232(25) -.0008(25) 0.0067(22) 0.0003(25)
Fe1 Fe3+ 0.0196(18) 0.0324(19) 0.0177(17) 0 0.0046(12) 0
Ca1 Ca2+ 0.0423(23) 0.0421(25) 0.0407(22) 0 0.0243(19) 0
Ca2 Ca2+ 0.0285(22) 0.0611(25) 0.0168(21) 0 0.0043(18) 0
Si1 Si4+ 0.0239(25) 0.0167(26) 0.0142(23) 0 0.0059(20) 0
Si2 Si4+ 0.0308(25) 0.0258(27) 0.0179(23) 0 0.0084(20) 0
Si3 Si4+ 0.0163(25) 0.0309(28) 0.0178(23) 0 0.0066(20) 0
O1 O2- 0.0301(12) 0.0354(15) 0.0501(12) 0.0049(11) 0.0163(10) 0.0036(12)
O2 O2- 0.0397(12) 0.0521(15) 0.0411(12) -.0151(11) 0.0193(10) -.0088(11)
O3 O2- 0.0361(12) 0.0329(15) 0.0477(12) 0.0033(11) -.0085(10) 0.0008(12)
O4 O2- 0.0314(18) 0.0315(21) 0.0280(18) 0 0.0069(15) 0
O5 O2- 0.0246(18) 0.0396(20) 0.0269(18) 0 0.0080(15) 0
O6 O2- 0.0389(19) 0.0386(20) 0.0443(19) 0 0.0303(16) 0
O7 O2- 0.0229(18) 0.063(2) 0.0306(17) 0 -.0010(15) 0
O8 O2- 0.0742(21) 0.0727(22) 0.0987(20) 0 0.0681(17) 0
O9 O2- 0.0790(21) 0.0908(22) 0.0330(18) 0 0.0321(16) 0
O10 O2- 0.0403(19) 0.0285(20) 0.0397(20) 0 0.0238(16) 0
H1 H1+ 0.2141(43) 0.1880(45) 0.0925(38) 0 0.0692(32) 0
#End of data_63661-ICSD


