data_91672-ICSD
#?2014 by Fachinformationszentrum Karlsruhe, and the U.S. Secretary of 
#Commerce on behalf of the United States.  All rights reserved.
_database_code_ICSD                91672
_audit_creation_date               2002/10/01
_chemical_name_systematic          'Aluminium Phosphate(V) - 5'
_chemical_formula_structural       'Al (P O4)'
_chemical_formula_sum              'Al1 O4 P1'
_chemical_name_mineral             'Zeolite AlPO-5'
_publ_section_title
;
Absolute configuration and domain structure of (Al P O4)-5 studied by 
single-crystal X-ray diffraction
;
loop_
_citation_id
_citation_journal_abbrev
_citation_year
_citation_journal_volume
_citation_page_first
_citation_page_last
_citation_journal_id_ASTM
primary 'Microporous and Mesoporous Materials' 2000 38 403 412 MIMMFJ
_publ_author_name
;
Klap, G.J.;van Koningsveld, H.;Graafsma, H.;Schreurs, A.M.M.
;
_cell_length_a                     13.718(1)
_cell_length_b                     13.718(1)
_cell_length_c                     8.4526(5)
_cell_angle_alpha                  90.
_cell_angle_beta                   90.
_cell_angle_gamma                  120.
_cell_volume                       1377.53
_cell_formula_units_Z              12
_symmetry_space_group_name_H-M     'P 6 c c'
_symmetry_Int_Tables_number        184
_refine_ls_R_factor_all            .079
loop_
_symmetry_equiv_pos_site_id
_symmetry_equiv_pos_as_xyz
  1	'x, x-y, z+.5'
  2	'-x+y, y, z+.5'
  3	'-y, -x, z+.5'
  4	'-x, -x+y, z+.5'
  5	'x-y, -y, z+.5'
  6	'y, x, z+.5'
  7	'x-y, x, z'
  8	'y, -x+y, z'
  9	'-x, -y, z'
 10	'-x+y, -x, z'
 11	'-y, x-y, z'
 12	'x, y, z'
loop_
_atom_type_symbol
_atom_type_oxidation_number
Al3+	3
O2-	-2
P5+	5
loop_
_atom_site_label
_atom_site_type_symbol
_atom_site_symmetry_multiplicity
_atom_site_Wyckoff_symbol
_atom_site_fract_x
_atom_site_fract_y
_atom_site_fract_z
_atom_site_occupancy
_atom_site_attached_hydrogens
P1 P5+ 12 d 0.45239(4) 0.32991(3) 0.05386 1. 0 
Al1 Al3+ 12 d 0.45615(6) 0.33521(3) 0.42558(5) 1. 0 
O1 O2- 12 d 0.41934(6) 0.21383(7) 0.0030(3) 1. 0 
O2 O2- 12 d 0.45149(8) 0.3287(1) 0.2231(2) 1. 0 
O3 O2- 12 d 0.36599(2) 0.35687(8) -.0003(3) 1. 0 
O4 O2- 12 d 0.56801(9) 0.41552(9) -.0127(3) 1. 0 

loop_
_atom_site_aniso_label
_atom_site_aniso_type_symbol
_atom_site_aniso_U_11
_atom_site_aniso_U_22
_atom_site_aniso_U_33
_atom_site_aniso_U_12
_atom_site_aniso_U_13
_atom_site_aniso_U_23
P1 P5+ 0.0508(3) 0.0525(3) 0.0721(3) 0.0300(2) -.0009(5) 0.0002(3)
Al1 Al3+ 0.0592(4) 0.0415(4) 0.0726(4) 0.0285(3) -.0143(5) -.0110(3)
O1 O2- 0.0653(5) 0.0363(6) 0.1509(7) 0.0239(5) 0.006(1) -.0186(7)
O2 O2- 0.1708(9) 0.220(1) 0.0272(7) 0.1102(9) 0.019(1) 0.040(1)
O3 O2- 0.0607(6) 0.0733(7) 0.1664(9) 0.0501(5) -.021(1) 0.000(1)
O4 O2- 0.0499(6) 0.0542(7) 0.1763(8) 0.0214(5) 0.0231(9) 0.0013(8)
#End of data_91672-ICSD


