data_246277-ICSD
#?2014 by Fachinformationszentrum Karlsruhe, and the U.S. Secretary of 
#Commerce on behalf of the United States.  All rights reserved.
_database_code_ICSD                246277
_audit_creation_date               2009/08/01
_chemical_name_systematic
;
Dilanthanum Strontium Ditantalate(V)
;
_chemical_formula_structural       'Li2 Sr (Ta2 O7)'
_chemical_formula_sum              'Li2 O7 Sr1 Ta2'
_publ_section_title
;
Phase transition in the Ruddlesdon-Popper layered perovskite Li2 Sr 
Ta2 O7
;
loop_
_citation_id
_citation_journal_abbrev
_citation_year
_citation_journal_volume
_citation_journal_issue
_citation_page_first
_citation_page_last
_citation_journal_id_ASTM
primary 'Journal of Solid State Chemistry' 2009 182 2 317 326 JSSCBI
_publ_author_name
;
Pagnier, T.;Rosman, N.;Galven, C.;Suard, E.;Fourquet, J.L.;le Berre, 
F.;Crosnier-Lopez, M.P.
;
_cell_length_a                     18.1822(3)
_cell_length_b                     5.5844(2)
_cell_length_c                     5.5797(2)
_cell_angle_alpha                  90.
_cell_angle_beta                   90.
_cell_angle_gamma                  90.
_cell_volume                       566.54
_cell_formula_units_Z              4
_symmetry_space_group_name_H-M     'C m c m'
_symmetry_Int_Tables_number        63
_refine_ls_R_factor_all            .0546
loop_
_symmetry_equiv_pos_site_id
_symmetry_equiv_pos_as_xyz
  1	'-x, y, -z+.5'
  2	'-x, -y, z+.5'
  3	'-x, y, z'
  4	'-x, -y, -z'
  5	'x, -y, z+.5'
  6	'x, y, -z+.5'
  7	'x, -y, -z'
  8	'x, y, z'
  9	'-x+.5, y+.5, -z+.5'
 10	'-x+.5, -y+.5, z+.5'
 11	'-x+.5, y+.5, z'
 12	'-x+.5, -y+.5, -z'
 13	'x+.5, -y+.5, z+.5'
 14	'x+.5, y+.5, -z+.5'
 15	'x+.5, -y+.5, -z'
 16	'x+.5, y+.5, z'
loop_
_atom_type_symbol
_atom_type_oxidation_number
Li1+	1
O2-	-2
Sr2+	2
Ta5+	5
loop_
_atom_site_label
_atom_site_type_symbol
_atom_site_symmetry_multiplicity
_atom_site_Wyckoff_symbol
_atom_site_fract_x
_atom_site_fract_y
_atom_site_fract_z
_atom_site_occupancy
_atom_site_attached_hydrogens
_atom_site_U_iso_or_equiv
Ta1 Ta5+ 8 g 0.11448(8) 0.7530(6) 0.25 1. 0 0.0056(2) 
Sr1 Sr2+ 4 c 0 0.2553(9) 0.25 1. 0 0.0086(3) 
O1 O2- 8 e 0.6117(1) 0 0 1. 0 0.0111(4) 
O2 O2- 8 e 0.0968(1) 0 0 1. 0 0.0072(4) 
O3 O2- 8 g 0.2176(1) 0.7701(7) 0.25 1. 0 0.0080(4) 
O4 O2- 4 c 0 0.7187(9) 0.25 1. 0 0.0091(6) 
Li1 Li1+ 8 e 0.2579(4) 0 0 1. 0 0.0076(7) 

#End of data_246277-ICSD


