data_424363-ICSD
#?2014 by Fachinformationszentrum Karlsruhe, and the U.S. Secretary of 
#Commerce on behalf of the United States.  All rights reserved.
_database_code_ICSD                424363
_audit_creation_date               2013/02/01
_audit_update_record               2013/08/01
_chemical_name_systematic
;
Tetrapotassium Diphosphate(IV) Octahydrate
;
_chemical_formula_structural       'K4 P2 O6 (H2 O)8'
_chemical_formula_sum              'H16 K4 O14 P2'
_publ_section_title
;
New quaternary alkali-metal hypodiphosphate hydrates: preparation, 
crystal structure, vibrational spectrum, and thermal behavior of K4 
P2 O6 ¨² 8 H2 O and Na2 K2 P2 O6 ¨² 8 H2 O in comparison to Na4 P2 O6 ¨² 
10 H2 O
;
loop_
_citation_id
_citation_journal_abbrev
_citation_year
_citation_journal_volume
_citation_journal_issue
_citation_page_first
_citation_page_last
_citation_journal_id_ASTM
primary 'Zeitschrift fuer Anorganische und Allgemeine Chemie (1950) (DE)'
 2012 638 12-13 2144 2149 ZAACAB
_publ_author_name                  'Gjikaj, M.;Wu Peng;Brockner, W.'
_cell_length_a                     11.1459(10)
_cell_length_b                     11.7909(12)
_cell_length_c                     11.9130(16)
_cell_angle_alpha                  90.00
_cell_angle_beta                   90.00
_cell_angle_gamma                  90.00
_cell_volume                       1565.61
_cell_formula_units_Z              4
_symmetry_space_group_name_H-M     'P b c a'
_symmetry_Int_Tables_number        61
_refine_ls_R_factor_all            .0348
loop_
_symmetry_equiv_pos_site_id
_symmetry_equiv_pos_as_xyz
  1	'x+.5, y, -z+.5'
  2	'x, -y+.5, z+.5'
  3	'-x+.5, y+.5, z'
  4	'-x, -y, -z'
  5	'-x+.5, -y, z+.5'
  6	'-x, y+.5, -z+.5'
  7	'x+.5, -y+.5, -z'
  8	'x, y, z'
loop_
_atom_type_symbol
_atom_type_oxidation_number
H1+	1
K1+	1
O2-	-2
P4+	4
loop_
_atom_site_label
_atom_site_type_symbol
_atom_site_symmetry_multiplicity
_atom_site_Wyckoff_symbol
_atom_site_fract_x
_atom_site_fract_y
_atom_site_fract_z
_atom_site_occupancy
_atom_site_attached_hydrogens
_atom_site_U_iso_or_equiv
K1 K1+ 8 c 0.98149(6) -0.00685(6) 0.63772(6) 1 0 0.02228(18) 
K2 K1+ 8 c 0.68749(7) 0.15304(6) 0.68234(6) 1 0 0.0282(2) 
P1 P4+ 8 c 0.48984(6) 0.08168(6) 0.45606(6) 1 0 0.01164(17) 
O1 O2- 8 c 0.43365(18) 0.05953(17) 0.34126(17) 1 0 0.0179(5) 
O2 O2- 8 c 0.61582(18) 0.13215(17) 0.44669(18) 1 0 0.0208(5) 
O3 O2- 8 c 0.40874(19) 0.15498(17) 0.53013(17) 1 0 0.0195(5) 
O4 O2- 8 c 0.7948(2) -0.1138(2) 0.7223(2) 1 0 0.0324(6) 
O5 O2- 8 c 0.8568(2) 0.1228(2) 0.4925(2) 1 0 0.0250(5) 
O6 O2- 8 c 0.9382(2) 0.1944(2) 0.7493(2) 1 0 0.0265(5) 
O7 O2- 8 c 0.8388(3) -0.1364(2) 0.4240(3) 1 0 0.0346(7) 
H1 H1+ 8 c 0.727(4) -0.103(4) 0.709(4) 1 0 0.047(14) 
H2 H1+ 8 c 0.813(4) -0.117(4) 0.793(4) 1 0 0.051(14) 
H3 H1+ 8 c 0.796(4) 0.117(3) 0.472(3) 1 0 0.022(11) 
H4 H1+ 8 c 0.872(4) 0.191(4) 0.489(4) 1 0 0.041(12) 
H5 H1+ 8 c 0.940(4) 0.261(4) 0.732(4) 1 0 0.053(14) 
H6 H1+ 8 c 0.920(4) 0.187(4) 0.817(4) 1 0 0.060(15) 
H7 H1+ 8 c 0.777(5) -0.130(4) 0.442(4) 1 0 0.058(17) 
H8 H1+ 8 c 0.865(4) -0.209(4) 0.437(4) 1 0 0.053(13) 

loop_
_atom_site_aniso_label
_atom_site_aniso_type_symbol
_atom_site_aniso_U_11
_atom_site_aniso_U_22
_atom_site_aniso_U_33
_atom_site_aniso_U_12
_atom_site_aniso_U_13
_atom_site_aniso_U_23
K1 K1+ 0.0218(4) 0.0255(3) 0.0196(3) 0.0039(3) 0.0019(3) 0.0050(3)
K2 K1+ 0.0246(4) 0.0324(4) 0.0275(4) -0.0057(3) 0.0027(3) -0.0084(3)
P1 P4+ 0.0120(4) 0.0111(3) 0.0118(3) 0.0006(3) 0.0002(3) -0.0001(3)
O1 O2- 0.0192(11) 0.0207(10) 0.0139(11) 0.0034(9) -0.0035(8) -0.0024(8)
O2 O2- 0.0164(11) 0.0190(11) 0.0268(12) -0.0035(9) -0.0011(10) 0.0044(9)
O3 O2- 0.0254(12) 0.0153(10) 0.0177(11) 0.0051(9) 0.0028(9) -0.0012(8)
O4 O2- 0.0214(15) 0.0500(16) 0.0258(15) 0.0010(11) -0.0035(11) 0.0027(11)
O5 O2- 0.0219(14) 0.0158(13) 0.0374(15) -0.0002(10) -0.0073(12) 0.0022(10)
O6 O2- 0.0384(14) 0.0218(13) 0.0195(13) 0.0034(11) 0.0042(11) 0.0007(11)
O7 O2- 0.0261(16) 0.0203(13) 0.0573(18) 0.0016(11) 0.0153(13) 0.0057(12)
#End of data_424363-ICSD


