data_80466-ICSD
#?2014 by Fachinformationszentrum Karlsruhe, and the U.S. Secretary of 
#Commerce on behalf of the United States.  All rights reserved.
_database_code_ICSD                80466
_audit_creation_date               1997/05/13
_chemical_name_systematic          'Tricalcium Tin(IV) Disilicon Oxide'
_chemical_formula_structural       'Ca3 Sn Si2 O9'
_chemical_formula_sum              'Ca3 O9 Si2 Sn1'
_publ_section_title
;
Synthesis, structure and luminescence of new Ca3 Sn Si2 O9
;
loop_
_citation_id
_citation_journal_abbrev
_citation_year
_citation_journal_volume
_citation_journal_issue
_citation_page_first
_citation_page_last
_citation_journal_id_ASTM
primary 'Materials Research Bulletin' 1995 30 8 967 973 MRBUAC
_publ_author_name
;
Blasse, G.;Hamstra, M.A.;Ijdo, D.J.W.;Plaisier, J.R.
;
_cell_length_a                     7.3283(7)
_cell_length_b                     10.0743(8)
_cell_length_c                     10.4388(9)
_cell_angle_alpha                  90.
_cell_angle_beta                   91.064(2)
_cell_angle_gamma                  90.
_cell_volume                       770.54
_cell_formula_units_Z              4
_symmetry_space_group_name_H-M     'P 1 21/c 1'
_symmetry_Int_Tables_number        14
_refine_ls_R_factor_all            .025
loop_
_symmetry_equiv_pos_site_id
_symmetry_equiv_pos_as_xyz
  1	'x, -y+.5, z+.5'
  2	'-x, -y, -z'
  3	'-x, y+.5, -z+.5'
  4	'x, y, z'
loop_
_atom_type_symbol
_atom_type_oxidation_number
Ca2+	2
O2-	-2
Si4+	4
Sn4+	4
loop_
_atom_site_label
_atom_site_type_symbol
_atom_site_symmetry_multiplicity
_atom_site_Wyckoff_symbol
_atom_site_fract_x
_atom_site_fract_y
_atom_site_fract_z
_atom_site_occupancy
_atom_site_attached_hydrogens
_atom_site_B_iso_or_equiv
Sn1 Sn4+ 4 e 0.1191(8) 0.0584(5) 0.1167(5) 1. 0 0.27 
Ca1 Ca2+ 4 e 0.6282(8) 0.8057(6) 0.5993(7) 1. 0 0.27 
Ca2 Ca2+ 4 e 0.1182(9) 0.8360(6) 0.5842(6) 1. 0 0.27 
Ca3 Ca2+ 4 e 0.6351(11) 0.4213(5) 0.6096(6) 1. 0 0.27 
Si1 Si4+ 4 e 0.8302(10) 0.6275(7) 0.8147(8) 1. 0 0.27 
Si2 Si4+ 4 e 0.3965(11) 0.6362(10) 0.8008(9) 1. 0 0.27 
O1 O2- 4 e 0.6161(8) 0.6094(5) 0.7697(4) 1. 0 0.27 
O2 O2- 4 e 0.0811(9) 0.0007(7) 0.7610(6) 1. 0 0.27 
O3 O2- 4 e 0.1484(8) 0.3940(5) 0.0353(5) 1. 0 0.27 
O4 O2- 4 e 0.1033(10) 0.2703(5) 0.7362(6) 1. 0 0.27 
O5 O2- 4 e 0.3551(8) 0.7317(6) 0.2196(5) 1. 0 0.27 
O6 O2- 4 e 0.3042(7) 0.4988(5) 0.7603(5) 1. 0 0.27 
O7 O2- 4 e 0.3817(8) 0.6629(5) 0.9533(5) 1. 0 0.27 
O8 O2- 4 e 0.0900(6) 0.6164(6) 0.5080(5) 1. 0 0.27 
O9 O2- 4 e 0.6617(7) 0.8908(6) -.0152(6) 1. 0 0.27 

#End of data_80466-ICSD


