data_8118-ICSD
#?2014 by Fachinformationszentrum Karlsruhe, and the U.S. Secretary of 
#Commerce on behalf of the United States.  All rights reserved.
_database_code_ICSD                8118
_audit_creation_date               1980/01/01
_audit_update_record               2012/08/01
_chemical_name_systematic          'Cesium Tetrachloroaluminate'
_chemical_formula_structural       'Cs Al Cl4'
_chemical_formula_sum              'Al1 Cl4 Cs1'
_publ_section_title
;
Comparison of the crystal structures of alkaline (M = Li, Na, K, Rb, 
Cs) and Pseudo-alkaline (M = N O, N H4) Tetrachloroaluminates, M Al 
Cl4
;
loop_
_citation_id
_citation_journal_abbrev
_citation_year
_citation_journal_volume
_citation_page_first
_citation_page_last
_citation_journal_id_ASTM
primary 'Acta Crystallographica B (24,1968-38,1982)' 1979 35 1573 1580 ACBCAR
_publ_author_name
;
Mairesse, G.;Barbier, P.;Wignacourt, J.P.
;
_cell_length_a                     11.641(8)
_cell_length_b                     7.116(5)
_cell_length_c                     9.373(7)
_cell_angle_alpha                  90.
_cell_angle_beta                   90.
_cell_angle_gamma                  90.
_cell_volume                       776.43
_cell_formula_units_Z              4
_symmetry_space_group_name_H-M     'P n m a'
_symmetry_Int_Tables_number        62
_refine_ls_R_factor_all            .047
loop_
_symmetry_equiv_pos_site_id
_symmetry_equiv_pos_as_xyz
  1	'x+.5, y, -z+.5'
  2	'x, -y+.5, z'
  3	'-x+.5, y+.5, z+.5'
  4	'-x, -y, -z'
  5	'-x+.5, -y, z+.5'
  6	'-x, y+.5, -z'
  7	'x+.5, -y+.5, -z+.5'
  8	'x, y, z'
loop_
_atom_type_symbol
_atom_type_oxidation_number
Al3+	3
Cl1-	-1
Cs1+	1
loop_
_atom_site_label
_atom_site_type_symbol
_atom_site_symmetry_multiplicity
_atom_site_Wyckoff_symbol
_atom_site_fract_x
_atom_site_fract_y
_atom_site_fract_z
_atom_site_occupancy
_atom_site_attached_hydrogens
_atom_site_B_iso_or_equiv
Al1 Al3+ 4 c 0.57016(19) 0.25 0.69293(23) 1. 0 0 
Cl1 Cl1- 4 c 0.71186(26) 0.25 0.55165(27) 1. 0 0 
Cl2 Cl1- 4 c 0.40999(29) 0.25 0.58962(46) 1. 0 0 
Cl3 Cl1- 8 d 0.58375(13) 0.00915(22) 0.82699(15) 1. 0 5.0 
Cs1 Cs1+ 4 c 0.68056(4) 0.25 0.16536(6) 1. 0 0 

#End of data_8118-ICSD


