data_200311-ICSD
#?2014 by Fachinformationszentrum Karlsruhe, and the U.S. Secretary of 
#Commerce on behalf of the United States.  All rights reserved.
_database_code_ICSD                200311
_audit_creation_date               1980/01/01
_audit_update_record               1987/02/20
_chemical_name_systematic          'Lithium Praseodymium Sulfate'
_chemical_formula_structural       'Li Pr (S O4)2'
_chemical_formula_sum              'Li1 O8 Pr1 S2'
_publ_section_title
;
Crystal structure of lithium praseodymium sulfate Li Pr (S O4)2
;
loop_
_citation_id
_citation_journal_abbrev
_citation_year
_citation_journal_volume
_citation_page_first
_citation_page_last
_citation_journal_id_ASTM
primary Kristallografiya 1978 23 406 408 KRISAJ
2 'Soviet Physics, Crystallography (= Kristallografiya)'
 1978 23 227 228 SPHCA6
_publ_author_name
;
Sirotinkin, S.P.;Efremov, V.A.;Kovba, L.M.;Pokrovskii, A.N.
;
_cell_length_a                     13.69(2)
_cell_length_b                     7.005(6)
_cell_length_c                     6.692(6)
_cell_angle_alpha                  90.
_cell_angle_beta                   90.
_cell_angle_gamma                  105.25(4)
_cell_volume                       619.15
_cell_formula_units_Z              4
_symmetry_space_group_name_H-M     'P 1 1 21/b'
_symmetry_Int_Tables_number        14
_refine_ls_R_factor_all            .064
loop_
_symmetry_equiv_pos_site_id
_symmetry_equiv_pos_as_xyz
  1	'x, y+.5, -z+.5'
  2	'-x, -y, -z'
  3	'-x, -y+.5, z+.5'
  4	'x, y, z'
loop_
_atom_type_symbol
_atom_type_oxidation_number
Li1+	1
O2-	-2
Pr3+	3
S6+	6
loop_
_atom_site_label
_atom_site_type_symbol
_atom_site_symmetry_multiplicity
_atom_site_Wyckoff_symbol
_atom_site_fract_x
_atom_site_fract_y
_atom_site_fract_z
_atom_site_occupancy
_atom_site_attached_hydrogens
_atom_site_U_iso_or_equiv
Pr1 Pr3+ 4 e 0.1845(1) 0.3472(2) 0.6093(2) 1. 0 0.00865(4) 
S1 S6+ 4 e 0.1039(3) 0.3069(6) 0.0721(6) 1. 0 0.00924(4) 
S2 S6+ 4 e 0.3835(3) 0.1848(6) 0.5963(7) 1. 0 0.00986(4) 
O1 O2- 4 e 0.3789(11) 0.5024(21) 0.0102(22) 1. 0 0.01245(4) 
O2 O2- 4 e 0.3537(10) 0.3355(19) 0.4682(20) 1. 0 0.01306(4) 
O3 O2- 4 e 0.0028(10) 0.2601(19) 0.6126(22) 1. 0 0.01311(4) 
O4 O2- 4 e 0.1272(11) 0.4873(21) 0.9472(20) 1. 0 0.01378(4) 
O5 O2- 4 e 0.4829(11) 0.2639(21) 0.6849(22) 1. 0 0.01381(4) 
O6 O2- 4 e 0.1392(10) 0.1601(20) -.0543(21) 1. 0 0.01421(4) 
O7 O2- 4 e 0.3020(11) 0.1424(21) 0.7516(20) 1. 0 0.01305(4) 
O8 O2- 4 e 0.1635(10) 0.3431(21) 0.2580(22) 1. 0 0.01450(4) 
Li1 Li1+ 4 e 0.4445(3) 0.462(5) 0.245(5) 1. 0 0.01820(4) 

#End of data_200311-ICSD


