data_36632-ICSD
#?2014 by Fachinformationszentrum Karlsruhe, and the U.S. Secretary of 
#Commerce on behalf of the United States.  All rights reserved.
_database_code_ICSD                36632
_audit_creation_date               1993/01/06
_audit_update_record               2013/08/01
_chemical_name_systematic          'Tripotassium Tetraoxonitrate'
_chemical_formula_structural       'K3 (N O4)'
_chemical_formula_sum              'K3 N1 O4'
_publ_section_title
;
Einkristallzuechtung und Strukturanalyse von Trikaliumorthonitrat
;
loop_
_citation_id
_citation_journal_abbrev
_citation_year
_citation_journal_volume
_citation_page_first
_citation_page_last
_citation_journal_id_ASTM
primary 'Zeitschrift fuer Anorganische und Allgemeine Chemie (1950) (DE)'
 1992 608 56 59 ZAACAB
_publ_author_name                  'Bremm, T.;Jansen, M.'
_cell_length_a                     10.921(1)
_cell_length_b                     7.952(1)
_cell_length_c                     5.667(1)
_cell_angle_alpha                  90.
_cell_angle_beta                   90.
_cell_angle_gamma                  90.
_cell_volume                       492.14
_cell_formula_units_Z              4
_symmetry_space_group_name_H-M     'P n m a'
_symmetry_Int_Tables_number        62
_refine_ls_R_factor_all            .024
loop_
_symmetry_equiv_pos_site_id
_symmetry_equiv_pos_as_xyz
  1	'x+.5, y, -z+.5'
  2	'x, -y+.5, z'
  3	'-x+.5, y+.5, z+.5'
  4	'-x, -y, -z'
  5	'-x+.5, -y, z+.5'
  6	'-x, y+.5, -z'
  7	'x+.5, -y+.5, -z+.5'
  8	'x, y, z'
loop_
_atom_type_symbol
_atom_type_oxidation_number
K1+	1
N5+	5
O2-	-2
loop_
_atom_site_label
_atom_site_type_symbol
_atom_site_symmetry_multiplicity
_atom_site_Wyckoff_symbol
_atom_site_fract_x
_atom_site_fract_y
_atom_site_fract_z
_atom_site_occupancy
_atom_site_attached_hydrogens
K1 K1+ 4 c 0.06916(4) 0.25 0.37333(7) 1. 0 
K2 K1+ 8 d 0.14358(2) 0.00799(3) 0.82411(5) 1. 0 
N1 N5+ 4 c 0.38292(12) 0.25 0.71532(23) 1. 0 
O1 O2- 4 c 0.47924(12) 0.25 0.55315(25) 1. 0 
O2 O2- 4 c 0.27299(11) 0.25 0.59234(21) 1. 0 
O3 O2- 8 d 0.39128(10) 0.10594(12) 0.85231(19) 1. 0 

loop_
_atom_site_aniso_label
_atom_site_aniso_type_symbol
_atom_site_aniso_U_11
_atom_site_aniso_U_22
_atom_site_aniso_U_33
_atom_site_aniso_U_12
_atom_site_aniso_U_13
_atom_site_aniso_U_23
K1 K1+ 0.0152(2) 0.0266(2) 0.0178(2) 0 -.0040(1) 0
K2 K1+ 0.0166(1) 0.0155(1) 0.0225(1) -.0005(1) 0.0011(1) 0.0050(1)
N1 N5+ 0.0094(5) 0.0104(5) 0.0115(6) 0 -.0010(4) 0
O1 O2- 0.0109(5) 0.0201(6) 0.0221(6) 0 0.0046(4) 0
O2 O2- 0.0082(4) 0.0155(5) 0.0173(5) 0 -.0041(4) 0
O3 O2- 0.0225(4) 0.0202(4) 0.0255(5) -.0024(3) -.0045(4) 0.0124(4)
#End of data_36632-ICSD


