data_165801-ICSD
#?2014 by Fachinformationszentrum Karlsruhe, and the U.S. Secretary of 
#Commerce on behalf of the United States.  All rights reserved.
_database_code_ICSD                165801
_audit_creation_date               2010/08/01
_chemical_name_systematic          'Calcium Titanate'
_chemical_formula_structural       'Ca (Ti O3)'
_chemical_formula_sum              'Ca1 O3 Ti1'
_publ_section_title
;
Solid state synthesis, structure and transport properties of 
compositions in the Ca Ru1-x Tix O3-d system
;
loop_
_citation_id
_citation_journal_abbrev
_citation_year
_citation_journal_volume
_citation_page_first
_citation_page_last
_citation_journal_id_ASTM
primary 'Journal of Alloys and Compounds' 2009 485 73 81 JALCEU
_publ_author_name
;
Vashook, V.;Nitsche, D.;Vasylechko, L.;Rebello, J.;Zosel, J.;Guth, U.
;
_cell_length_a                     5.44079(5)
_cell_length_b                     7.64246(7)
_cell_length_c                     5.38135(4)
_cell_angle_alpha                  90.
_cell_angle_beta                   90.
_cell_angle_gamma                  90.
_cell_volume                       223.76
_cell_formula_units_Z              4
_symmetry_space_group_name_H-M     'P n m a'
_symmetry_Int_Tables_number        62
_refine_ls_R_factor_all            .0741
loop_
_symmetry_equiv_pos_site_id
_symmetry_equiv_pos_as_xyz
  1	'x+.5, y, -z+.5'
  2	'x, -y+.5, z'
  3	'-x+.5, y+.5, z+.5'
  4	'-x, -y, -z'
  5	'-x+.5, -y, z+.5'
  6	'-x, y+.5, -z'
  7	'x+.5, -y+.5, -z+.5'
  8	'x, y, z'
loop_
_atom_type_symbol
_atom_type_oxidation_number
Ca2+	2
O2-	-2
Ti4+	4
loop_
_atom_site_label
_atom_site_type_symbol
_atom_site_symmetry_multiplicity
_atom_site_Wyckoff_symbol
_atom_site_fract_x
_atom_site_fract_y
_atom_site_fract_z
_atom_site_occupancy
_atom_site_attached_hydrogens
_atom_site_B_iso_or_equiv
Ca1 Ca2+ 4 c 0.9645(1) 0.250 0.0103(3) 1. 0 0.91(2) 
Ti1 Ti4+ 4 b 0 0 0.5 1. 0 0.63(2) 
O1 O2- 4 c 0.0199(6) 0.250 0.5699(6) 1. 0 1.75(8) 
O2 O2- 8 d 0.2083(4) 0.4630(3) 0.2097(5) 1. 0 1.04(5) 

#End of data_165801-ICSD


