data_249902-ICSD
#?2014 by Fachinformationszentrum Karlsruhe, and the U.S. Secretary of 
#Commerce on behalf of the United States.  All rights reserved.
_database_code_ICSD                249902
_audit_creation_date               2010/02/01
_chemical_name_systematic
;
Tripotassium Tetracesium Fluoride Tris(uranyl(VI))bis(disilicate)
;
_chemical_formula_structural       '(K3 Cs4 F) ((U O2)3 (Si2 O7)2)'
_chemical_formula_sum              'Cs4 F1 K3 O20 Si4 U3'
_publ_section_title
;
Flux synthesis of salt-inclusion uranyl silicates: [K3 Cs4 F] [(U 
O2)3 (Si2 O7)2] and [Na Rb6 F] [(U O2)3 (Si2 O7)2]
;
loop_
_citation_id
_citation_journal_abbrev
_citation_year
_citation_journal_volume
_citation_journal_issue
_citation_page_first
_citation_page_last
_citation_journal_id_ASTM
primary 'Inorganic Chemistry' 2009 48 17 8357 8361 INOCAJ
_publ_author_name
;
Lee Cheng shiuan;Wang Sue Lein;Chen Yenhung;Lii Kwanghwa
;
_cell_length_a                     7.8095(3)
_cell_length_b                     22.2819(7)
_cell_length_c                     14.0861(4)
_cell_angle_alpha                  90.00
_cell_angle_beta                   90.00
_cell_angle_gamma                  90.00
_cell_volume                       2451.13
_cell_formula_units_Z              4
_symmetry_space_group_name_H-M     'C m c 21'
_symmetry_Int_Tables_number        36
_refine_ls_R_factor_all            .0262
loop_
_symmetry_equiv_pos_site_id
_symmetry_equiv_pos_as_xyz
  1	'x, -y, z+.5'
  2	'-x, -y, z+.5'
  3	'-x, y, z'
  4	'x, y, z'
  5	'x+.5, -y+.5, z+.5'
  6	'-x+.5, -y+.5, z+.5'
  7	'-x+.5, y+.5, z'
  8	'x+.5, y+.5, z'
loop_
_atom_type_symbol
_atom_type_oxidation_number
Cs1+	1
F1-	-1
K1+	1
O2-	-2
Si4+	4
U6+	6
loop_
_atom_site_label
_atom_site_type_symbol
_atom_site_symmetry_multiplicity
_atom_site_Wyckoff_symbol
_atom_site_fract_x
_atom_site_fract_y
_atom_site_fract_z
_atom_site_occupancy
_atom_site_attached_hydrogens
_atom_site_U_iso_or_equiv
Cs1 Cs1+ 8 b -0.25220(10) -0.03829(6) 0.16889(8) 1 0 0.0241(3) 
Cs2 Cs1+ 8 b 0.24588(12) 0.28682(6) 0.28251(8) 1 0 0.0276(3) 
K1 K1+ 4 a -0.5000 -0.1190(2) -0.2678(3) 1 0 0.0144(8) 
K2 K1+ 4 a 0.5000 0.3329(2) 0.0224(3) 1 0 0.0177(10) 
K3 K1+ 4 a 0.0000 0.0874(2) -0.0653(4) 1 0 0.0186(10) 
U1 U6+ 4 a 0.0000 0.12589(4) 0.22010(5) 1 0 0.00853(12) 
U2 U6+ 4 a -0.5000 -0.17415(3) -0.00432(4) 1 0 0.00636(14) 
U3 U6+ 4 a -0.5000 -0.07434(3) 0.44694(4) 1 0 0.00683(14) 
Si1 Si4+ 8 b -0.2997(5) -0.19888(14) 0.5537(2) 1 0 0.0075(5) 
Si2 Si4+ 8 b -0.2011(4) -0.05394(13) -0.0919(2) 1 0 0.0068(5) 
O1 O2- 8 b -0.2856(12) -0.2402(4) 0.0174(6) 1 0 0.0099(17) 
O2 O2- 8 b 0.2109(13) 0.1766(4) 0.1489(6) 1 0 0.0127(17) 
O3 O2- 8 b -0.3062(11) -0.1473(3) 0.4719(6) 1 0 0.0120(17) 
O4 O2- 4 a 0.5000 0.2158(5) 0.0841(7) 1 0 0.011(2) 
O5 O2- 8 b -0.2843(13) -0.0125(4) 0.4186(7) 1 0 0.018(2) 
O6 O2- 4 a 0.0000 -0.0500(5) -0.0539(7) 1 0 0.011(2) 
O7 O2- 8 b 0.1954(13) 0.0714(4) 0.2961(6) 1 0 0.0158(18) 
O8 O2- 8 b -0.2970(12) -0.1037(4) -0.0261(6) 1 0 0.0129(16) 
O9 O2- 4 a 0.0000 0.1804(5) 0.3161(10) 1 0 0.017(3) 
O10 O2- 4 a 0.0000 0.0695(6) 0.1276(9) 1 0 0.018(3) 
O11 O2- 4 a -0.5000 -0.1950(6) -0.1298(8) 1 0 0.014(2) 
O12 O2- 4 a -0.5000 -0.1557(6) 0.1230(9) 1 0 0.017(3) 
O13 O2- 4 a -0.5000 -0.0936(6) 0.3223(8) 1 0 0.016(3) 
O14 O2- 4 a -0.5000 -0.0547(6) 0.5727(9) 1 0 0.019(3) 
F1 F1- 4 a 0.0000 -0.1246(8) 0.2287(13) 1 0 0.044(3) 

loop_
_atom_site_aniso_label
_atom_site_aniso_type_symbol
_atom_site_aniso_U_11
_atom_site_aniso_U_22
_atom_site_aniso_U_33
_atom_site_aniso_U_12
_atom_site_aniso_U_13
_atom_site_aniso_U_23
Cs1 Cs1+ 0.0219(8) 0.0222(6) 0.0282(6) 0.0002(3) -0.0021(3) -0.0023(5)
Cs2 Cs1+ 0.0285(9) 0.0245(7) 0.0297(6) -0.0026(3) 0.0005(3) -0.0031(5)
K1 K1+ 0.0137(16) 0.022(2) 0.008(2) 0.000 0.000 -0.0003(15)
K2 K1+ 0.010(2) 0.0115(17) 0.032(3) 0.000 0.000 0.0099(16)
K3 K1+ 0.011(2) 0.0160(19) 0.028(2) 0.000 0.000 -0.0032(18)
U1 U6+ 0.0070(2) 0.0109(2) 0.0076(2) 0.000 0.000 0.00242(17)
U2 U6+ 0.0051(3) 0.0061(3) 0.0079(3) 0.000 0.000 0.0013(2)
U3 U6+ 0.0062(3) 0.0063(3) 0.0080(3) 0.000 0.000 0.0008(2)
Si1 Si4+ 0.0059(15) 0.0090(13) 0.0076(12) 0.0002(12) -0.0028(11) 
-0.0023(10)
Si2 Si4+ 0.0040(14) 0.0059(13) 0.0105(13) 0.0016(11) 0.0011(11) -0.0006(10)
O1 O2- 0.008(4) 0.004(4) 0.018(4) 0.002(3) -0.004(4) 0.004(3)
O2 O2- 0.013(4) 0.016(4) 0.010(4) -0.004(4) 0.006(4) -0.003(3)
O3 O2- 0.007(4) 0.007(4) 0.021(5) 0.005(3) -0.001(3) 0.005(3)
O4 O2- 0.009(5) 0.012(5) 0.012(5) 0.000 0.000 -0.004(4)
O5 O2- 0.005(4) 0.015(5) 0.035(6) -0.005(4) 0.000(4) 0.006(4)
O6 O2- 0.006(5) 0.014(5) 0.012(5) 0.000 0.000 -0.008(5)
O7 O2- 0.010(5) 0.021(5) 0.016(4) 0.004(4) 0.002(4) 0.005(3)
O8 O2- 0.011(4) 0.013(4) 0.014(4) -0.002(3) 0.001(3) 0.004(3)
O9 O2- 0.018(7) 0.013(6) 0.022(7) 0.000 0.000 -0.003(5)
O10 O2- 0.023(8) 0.018(7) 0.014(6) 0.000 0.000 0.002(5)
O11 O2- 0.016(6) 0.018(6) 0.009(5) 0.000 0.000 -0.008(5)
O12 O2- 0.024(7) 0.014(6) 0.013(6) 0.000 0.000 -0.002(5)
O13 O2- 0.021(7) 0.018(6) 0.009(5) 0.000 0.000 -0.002(5)
O14 O2- 0.016(7) 0.021(7) 0.018(7) 0.000 0.000 0.002(6)
F1 F1- 0.040(7) 0.043(6) 0.048(7) 0.000 0.000 0.008(6)
#End of data_249902-ICSD


