data_65653-ICSD
#?2014 by Fachinformationszentrum Karlsruhe, and the U.S. Secretary of 
#Commerce on behalf of the United States.  All rights reserved.
_database_code_ICSD                65653
_audit_creation_date               1990/06/08
_chemical_name_systematic          'Calcium Catena-phosphate'
_chemical_formula_structural       'Ca (P O3)2'
_chemical_formula_sum              'Ca1 O6 P2'
_publ_section_title
;
Structure of calcium metaphosphate Ca (P O3)2
;
loop_
_citation_id
_citation_journal_abbrev
_citation_year
_citation_journal_volume
_citation_page_first
_citation_page_last
_citation_journal_id_ASTM
primary 'Acta Crystallographica, Section C: Crystal Structure Communications'
 1989 45 551 553 ACSCEE
_publ_author_name
;
Rothammel, W.;Burzlaff, H.;Specht, R.
;
_cell_length_a                     16.960(9)
_cell_length_b                     7.7144(2)
_cell_length_c                     6.9963(2)
_cell_angle_alpha                  90.
_cell_angle_beta                   90.394(5)
_cell_angle_gamma                  90.
_cell_volume                       915.35
_cell_formula_units_Z              8
_symmetry_space_group_name_H-M     'P 1 21/a 1'
_symmetry_Int_Tables_number        14
_refine_ls_R_factor_all            .0395
loop_
_symmetry_equiv_pos_site_id
_symmetry_equiv_pos_as_xyz
  1	'x+.5, -y+.5, z'
  2	'-x, -y, -z'
  3	'-x+.5, y+.5, -z'
  4	'x, y, z'
loop_
_atom_type_symbol
_atom_type_oxidation_number
Ca2+	2
O2-	-2
P5+	5
loop_
_atom_site_label
_atom_site_type_symbol
_atom_site_symmetry_multiplicity
_atom_site_Wyckoff_symbol
_atom_site_fract_x
_atom_site_fract_y
_atom_site_fract_z
_atom_site_occupancy
_atom_site_attached_hydrogens
Ca1 Ca2+ 4 e 0.10331(2) 0.11351(4) 0.47545(6) 1. 0 
Ca2 Ca2+ 4 e 0.32826(2) 0.63719(4) 0.01847(6) 1. 0 
P1 P5+ 4 e 0.14531(2) 0.50873(5) 0.21951(7) 1. 0 
O1 O2- 4 e 0.19561(8) 0.5645(2) 0.0598(2) 1. 0 
O2 O2- 4 e 0.19150(7) 0.5533(2) 0.4093(2) 1. 0 
O3 O2- 4 e 0.11869(7) 0.3243(2) 0.2237(2) 1. 0 
O4 O2- 4 e 0.06784(7) 0.6236(1) 0.2331(2) 1. 0 
P2 P5+ 4 e 0.19485(2) 0.50060(5) 0.62862(7) 1. 0 
P3 P5+ 4 e 0.03731(2) 0.79959(5) 0.13975(7) 1. 0 
O5 O2- 4 e 0.18182(7) 0.3112(1) 0.6581(2) 1. 0 
O6 O2- 4 e 0.26853(7) 0.5799(2) 0.7006(2) 1. 0 
O7 O2- 4 e 0.11699(7) 0.5920(1) 0.7033(2) 1. 0 
O8 O2- 4 e -.04644(7) 0.8196(2) 0.1948(2) 1. 0 
O9 O2- 4 e 0.03768(7) 0.7574(2) -.0815(2) 1. 0 
O10 O2- 4 e 0.09281(7) 0.9452(2) 0.1794(2) 1. 0 
P4 P5+ 4 e 0.08846(2) 0.78530(5) 0.73345(7) 1. 0 
O11 O2- 4 e 0.15602(7) 0.9073(1) 0.7601(2) 1. 0 
O12 O2- 4 e 0.46618(7) 0.3375(2) 0.4243(2) 1. 0 

#End of data_65653-ICSD


