data_415684-ICSD
#?2014 by Fachinformationszentrum Karlsruhe, and the U.S. Secretary of 
#Commerce on behalf of the United States.  All rights reserved.
_database_code_ICSD                415684
_audit_creation_date               2006/10/01
_chemical_name_systematic
;
Tetrapotassium Neptunyl Bis(sulfate) Chloride
;
_chemical_formula_structural       'K4 ((Np O2) (S O4)2) Cl'
_chemical_formula_sum              'Cl1 K4 Np1 O10 S2'
_publ_section_title
;
Structures and syntheses of four Np(5+) sulfate chain structures: 
Divergence from U(6+) crystal chemistry
;
loop_
_citation_id
_citation_journal_abbrev
_citation_year
_citation_journal_volume
_citation_journal_issue
_citation_page_first
_citation_page_last
_citation_journal_id_ASTM
primary 'Journal of Solid State Chemistry' 2005 178 11 3445 3452 JSSCBI
_publ_author_name                  'Forbes, T.Z.;Burns, P.C.'
_cell_length_a                     10.0873(4)
_cell_length_b                     4.5354(2)
_cell_length_c                     14.3518(6)
_cell_angle_alpha                  90.00
_cell_angle_beta                   103.3830(10)
_cell_angle_gamma                  90.00
_cell_volume                       638.76
_cell_formula_units_Z              2
_symmetry_space_group_name_H-M     'P 1 2/n 1'
_symmetry_Int_Tables_number        13
_refine_ls_R_factor_all            .0302
loop_
_symmetry_equiv_pos_site_id
_symmetry_equiv_pos_as_xyz
  1	'x+.5, -y, z+.5'
  2	'-x+.5, y, -z+.5'
  3	'-x, -y, -z'
  4	'x, y, z'
loop_
_atom_type_symbol
_atom_type_oxidation_number
Cl1-	-1
K1+	1
Np5+	5
O2-	-2
S6+	6
loop_
_atom_site_label
_atom_site_type_symbol
_atom_site_symmetry_multiplicity
_atom_site_Wyckoff_symbol
_atom_site_fract_x
_atom_site_fract_y
_atom_site_fract_z
_atom_site_occupancy
_atom_site_attached_hydrogens
_atom_site_U_iso_or_equiv
Np1 Np5+ 2 e 0.2500 0.25602(3) 0.2500 1 0 0.01146(5) 
S1 S6+ 4 g 0.22722(8) -0.34160(16) 0.43119(5) 1 0 0.01629(13) 
K1 K1+ 4 g 0.56133(8) -0.23632(13) 0.39439(6) 1 0 0.02431(14) 
K2 K1+ 4 g -0.06554(9) 0.22852(14) 0.37050(6) 1 0 0.02668(15) 
Cl1 Cl1- 2 f 0.7500 -0.2681(2) 0.2500 1 0 0.0275(2) 
O1 O2- 4 g 0.4358(2) 0.2587(4) 0.28613(19) 1 0 0.0205(4) 
O2 O2- 4 g 0.2517(3) -0.2289(4) 0.33903(17) 1 0 0.0209(5) 
O3 O2- 4 g 0.0948(3) -0.2489(4) 0.4440(2) 1 0 0.0294(6) 
O4 O2- 4 g 0.3372(4) -0.2528(4) 0.5105(2) 1 0 0.0333(7) 
O5 O2- 4 g 0.2298(3) -0.6690(5) 0.41932(17) 1 0 0.0232(5) 

loop_
_atom_site_aniso_label
_atom_site_aniso_type_symbol
_atom_site_aniso_U_11
_atom_site_aniso_U_22
_atom_site_aniso_U_33
_atom_site_aniso_U_12
_atom_site_aniso_U_13
_atom_site_aniso_U_23
Np1 Np5+ 0.01270(8) 0.01018(7) 0.01131(7) 0.000 0.00242(5) 0.000
S1 S6+ 0.0226(3) 0.0146(3) 0.0119(3) 0.0000(3) 0.0044(2) 0.0002(2)
K1 K1+ 0.0252(3) 0.0210(3) 0.0255(3) -0.0001(2) 0.0035(3) 0.0002(2)
K2 K1+ 0.0275(4) 0.0271(4) 0.0257(4) 0.0000(3) 0.0068(3) -0.0002(3)
Cl1 Cl1- 0.0257(6) 0.0282(6) 0.0288(6) 0.000 0.0069(5) 0.000
O1 O2- 0.0158(10) 0.0232(11) 0.0216(11) -0.0013(8) 0.0022(8) 0.0010(8)
O2 O2- 0.0325(13) 0.0161(10) 0.0170(10) -0.0005(8) 0.0114(9) 0.0036(7)
O3 O2- 0.0323(14) 0.0240(12) 0.0388(16) 0.0065(9) 0.0224(12) 0.0036(9)
O4 O2- 0.0457(18) 0.0211(12) 0.0236(13) -0.0043(10) -0.0117(12) -0.0030(9)
O5 O2- 0.0366(14) 0.0156(9) 0.0181(11) -0.0013(9) 0.0078(10) -0.0006(8)
#End of data_415684-ICSD


