data_280520-ICSD
#?2014 by Fachinformationszentrum Karlsruhe, and the U.S. Secretary of 
#Commerce on behalf of the United States.  All rights reserved.
_database_code_ICSD                280520
_audit_creation_date               2002/04/01
_chemical_name_systematic          'Tribarium Aluminate Hydride'
_chemical_formula_structural       'Ba3 (Al O4) H'
_chemical_formula_sum              'H1 Al1 Ba3 O4'
_publ_section_title                'Barium oxoaluminate hydride'
loop_
_citation_id
_citation_journal_abbrev
_citation_year
_citation_journal_volume
_citation_page_first
_citation_page_last
_citation_journal_id_ASTM
primary 'Acta Crystallographica, Section C: Crystal Structure Communications'
 2001 57 339 340 ACSCEE
_publ_author_name                  'Zumdick, M.;Althoff, G.;Roehr, C.'
_cell_length_a                     10.4889(8)
_cell_length_b                     8.1503(9)
_cell_length_c                     7.2440(12)
_cell_angle_alpha                  90.
_cell_angle_beta                   90.
_cell_angle_gamma                  90.
_cell_volume                       619.27
_cell_formula_units_Z              4
_symmetry_space_group_name_H-M     'P n m a'
_symmetry_Int_Tables_number        62
_refine_ls_R_factor_all            .0251
loop_
_symmetry_equiv_pos_site_id
_symmetry_equiv_pos_as_xyz
  1	'x+.5, y, -z+.5'
  2	'x, -y+.5, z'
  3	'-x+.5, y+.5, z+.5'
  4	'-x, -y, -z'
  5	'-x+.5, -y, z+.5'
  6	'-x, y+.5, -z'
  7	'x+.5, -y+.5, -z+.5'
  8	'x, y, z'
loop_
_atom_type_symbol
_atom_type_oxidation_number
Al3+	3
Ba2+	2
H1-	-1
O2-	-2
loop_
_atom_site_label
_atom_site_type_symbol
_atom_site_symmetry_multiplicity
_atom_site_Wyckoff_symbol
_atom_site_fract_x
_atom_site_fract_y
_atom_site_fract_z
_atom_site_occupancy
_atom_site_attached_hydrogens
_atom_site_U_iso_or_equiv
Ba1 Ba2+ 8 d 0.33491(2) 0.02502(3) 0.10190(4) 1. 0 0 
Ba2 Ba2+ 4 c 0.46337(3) 0.25 0.59881(5) 1. 0 0 
Al1 Al3+ 4 c 0.10373(15) 0.25 0.3110(3) 1. 0 0 
O1 O2- 8 d 0.0725(3) 0.0660(4) 0.1951(5) 1. 0 0 
O2 O2- 4 c 0.0113(4) 0.25 0.5170(7) 1. 0 0 
O3 O2- 4 c 0.2678(4) 0.25 0.3706(6) 1. 0 0 
H1 H1- 4 c 0.224(7) 0.25 0.822(13) 1. 0 0.07(2) 

loop_
_atom_site_aniso_label
_atom_site_aniso_type_symbol
_atom_site_aniso_U_11
_atom_site_aniso_U_22
_atom_site_aniso_U_33
_atom_site_aniso_U_12
_atom_site_aniso_U_13
_atom_site_aniso_U_23
Ba1 Ba2+ 0.01116(17) 0.00649(17) 0.01310(17) 0.00021(8) 0.00083(9) 
-.00146(8)
Ba2 Ba2+ 0.01006(19) 0.00640(19) 0.0097(2) 0 -.00052(12) 0
Al1 Al3+ 0.0094(8) 0.0041(7) 0.0080(8) 0 -.0013(7) 0
O1 O2- 0.0165(15) 0.0075(14) 0.0173(16) -.0019(11) 0.0025(13) -.0031(13)
O2 O2- 0.012(2) 0.0094(18) 0.012(2) 0 0.0045(17) 0
O3 O2- 0.0105(19) 0.015(2) 0.012(2) 0 -.0024(17) 0
#End of data_280520-ICSD


