data_69631-ICSD
#?2014 by Fachinformationszentrum Karlsruhe, and the U.S. Secretary of 
#Commerce on behalf of the United States.  All rights reserved.
_database_code_ICSD                69631
_audit_creation_date               1992/08/20
_audit_update_record               2000/07/15
_chemical_name_systematic
;
Nonastrontium Tetrazinc Dicopper(I) Oxide
;
_chemical_formula_structural       'Sr9 Zn4 Cu2 O14'
_chemical_formula_sum              'Cu2 O14 Sr9 Zn4'
_publ_section_title
;
Ein neues Strontium-Oxometallat Sr9 Zn4 Cu2 O14, mit Sr2+ in 
flaechenverknuepften Oktaedern
;
loop_
_citation_id
_citation_journal_abbrev
_citation_year
_citation_journal_volume
_citation_page_first
_citation_page_last
_citation_journal_id_ASTM
primary 'Zeitschrift fuer Anorganische und Allgemeine Chemie (1950) (DE)'
 1990 583 17 23 ZAACAB
_publ_author_name                  'Boehlke, A.;Mueller Buschbaum, H.'
_cell_length_a                     22.217(14)
_cell_length_b                     3.612(1)
_cell_length_c                     11.286(6)
_cell_angle_alpha                  90.
_cell_angle_beta                   98.63(5)
_cell_angle_gamma                  90.
_cell_volume                       895.42
_cell_formula_units_Z              2
_symmetry_space_group_name_H-M     'C 1 2/m 1'
_symmetry_Int_Tables_number        12
_refine_ls_R_factor_all            .067
loop_
_symmetry_equiv_pos_site_id
_symmetry_equiv_pos_as_xyz
  1	'-x, y, -z'
  2	'-x, -y, -z'
  3	'x, -y, z'
  4	'x, y, z'
  5	'-x+.5, y+.5, -z'
  6	'-x+.5, -y+.5, -z'
  7	'x+.5, -y+.5, z'
  8	'x+.5, y+.5, z'
loop_
_atom_type_symbol
_atom_type_oxidation_number
Cu1+	1
O2-	-2
Sr2+	2
Zn2+	2
loop_
_atom_site_label
_atom_site_type_symbol
_atom_site_symmetry_multiplicity
_atom_site_Wyckoff_symbol
_atom_site_fract_x
_atom_site_fract_y
_atom_site_fract_z
_atom_site_occupancy
_atom_site_attached_hydrogens
_atom_site_B_iso_or_equiv
Sr1 Sr2+ 4 i 0.3132(1) 0 0.1029(2) 1. 0 0.79(3) 
Sr2 Sr2+ 4 i 0.4902(1) 0 0.1920(2) 1. 0 0.71(2) 
Sr3 Sr2+ 2 d 0 0.5 0.5 1. 0 0.67(3) 
Sr4 Sr2+ 4 i 0.6938(1) 0 0.5704(2) 1. 0 0.58(2) 
Sr5 Sr2+ 4 i 0.6867(1) 0 0.2255(2) 1. 0 0.57(2) 
Zn1 Zn2+ 4 i 0.8905(1) 0 0.2976(2) 1. 0 0.68(3) 
Zn2 Zn2+ 4 i 0.1024(1) 0 0.0379(2) 1. 0 0.64(3) 
Cu1 Cu1+ 4 i 0.1061(1) 0 0.3755(3) 1. 0 0.84(4) 
O1 O2- 4 i 0.197(1) 0 0.069(1) 1. 0 0.46(16) 
O2 O2- 4 i 0.809(1) 0 0.598(1) 1. 0 0.72(16) 
O3 O2- 4 i 0.406(1) 0 0.359(1) 1. 0 0.85(17) 
O4 O2- 4 i 0.797(1) 0 0.269(1) 1. 0 0.86(18) 
O5 O2- 4 i 0.581(1) 0 0.094(1) 1. 0 1.08(19) 
O6 O2- 4 i 0.024(1) 0 0.350(1) 1. 0 0.59(15) 
O7 O2- 4 i 0.911(1) 0 0.134(1) 1. 0 0.93(18) 

#End of data_69631-ICSD


