data_279615-ICSD
#?2014 by Fachinformationszentrum Karlsruhe, and the U.S. Secretary of 
#Commerce on behalf of the United States.  All rights reserved.
_database_code_ICSD                279615
_audit_creation_date               2002/10/01
_chemical_name_systematic
;
Potassium Europium Tetraselenophosphate(V)
;
_chemical_formula_structural       'K Eu (P Se4)'
_chemical_formula_sum              'Eu1 K1 P1 Se4'
_publ_section_title
;
Selenophosphate phase diagrams developed in conjunction with the 
synthesis of the new compounds K2 La (P2 Se6)1/2 (P Se4), K3 La (P 
Se4)2, K4 La0.67 (P Se4)2, K9-x La1+x/3 (P Se4)4 (x = 0.5) and K Eu P 
Se4
;
loop_
_citation_id
_citation_journal_abbrev
_citation_year
_citation_journal_volume
_citation_page_first
_citation_page_last
_citation_journal_id_ASTM
primary 'Inorganic Chemistry' 2001 40 2875 2883 INOCAJ
_publ_author_name                  'Evenson, C.R.IV.;Dohout, P.K.'
_cell_length_a                     17.5156(11)
_cell_length_b                     7.0126(5)
_cell_length_c                     6.9015(4)
_cell_angle_alpha                  90.
_cell_angle_beta                   90.
_cell_angle_gamma                  90.
_cell_volume                       847.71
_cell_formula_units_Z              4
_symmetry_space_group_name_H-M     'P n m a'
_symmetry_Int_Tables_number        62
_refine_ls_R_factor_all            .0237
loop_
_symmetry_equiv_pos_site_id
_symmetry_equiv_pos_as_xyz
  1	'x+.5, y, -z+.5'
  2	'x, -y+.5, z'
  3	'-x+.5, y+.5, z+.5'
  4	'-x, -y, -z'
  5	'-x+.5, -y, z+.5'
  6	'-x, y+.5, -z'
  7	'x+.5, -y+.5, -z+.5'
  8	'x, y, z'
loop_
_atom_type_symbol
_atom_type_oxidation_number
Eu2+	2
K1+	1
P5+	5
Se2-	-2
loop_
_atom_site_label
_atom_site_type_symbol
_atom_site_symmetry_multiplicity
_atom_site_Wyckoff_symbol
_atom_site_fract_x
_atom_site_fract_y
_atom_site_fract_z
_atom_site_occupancy
_atom_site_attached_hydrogens
Eu1 Eu2+ 4 c 0.47536(2) 0.25 0.28926(5) 1. 0 
Se1 Se2- 4 c 0.32745(4) 0.25 0.03414(9) 1. 0 
Se2 Se2- 4 c 0.47269(4) -.25 0.14918(10) 1. 0 
Se3 Se2- 8 d 0.37951(3) -.00281(6) 0.59475(7) 1. 0 
P1 P5+ 4 c 0.40347(9) 0.25 -.2212(2) 1. 0 
K1 K1+ 4 c 0.21351(9) 0.25 0.4768(3) 1. 0 

loop_
_atom_site_aniso_label
_atom_site_aniso_type_symbol
_atom_site_aniso_U_11
_atom_site_aniso_U_22
_atom_site_aniso_U_33
_atom_site_aniso_U_12
_atom_site_aniso_U_13
_atom_site_aniso_U_23
Eu1 Eu2+ 0.0115(2) 0.0210(2) 0.0133(2) 0 0.00068(11) 0
Se1 Se2- 0.0113(3) 0.0232(4) 0.0163(3) 0 0.0045(2) 0
Se2 Se2- 0.0086(3) 0.0306(4) 0.0155(3) 0 0.0009(2) 0
Se3 Se2- 0.0157(2) 0.0082(2) 0.0203(3) -.0008(2) -.0017(2) -.0032(2)
P1 P5+ 0.0089(7) 0.0081(7) 0.0117(7) 0 0.0002(5) 0
K1 K1+ 0.0167(8) 0.0214(8) 0.0372(9) 0 -.0042(6) 0
#End of data_279615-ICSD


