data_417267-ICSD
#?2014 by Fachinformationszentrum Karlsruhe, and the U.S. Secretary of 
#Commerce on behalf of the United States.  All rights reserved.
_database_code_ICSD                417267
_audit_creation_date               2007/08/01
_chemical_name_systematic
;
Gold(III) Potassium Tetrakis(iodate(V))
;
_chemical_formula_structural       'Au K (I O3)4'
_chemical_formula_sum              'Au1 I4 K1 O12'
_publ_section_title
;
Square-Planar Noble Metal Iodate [M(IO3)4]n- (M = PdII, AuIII; n = 2, 
1) Anions and Their Ability to Form Polar and Centrosymmetric 
Architectures
;
loop_
_citation_id
_citation_journal_abbrev
_citation_year
_citation_journal_volume
_citation_journal_issue
_citation_page_first
_citation_page_last
_citation_journal_id_ASTM
primary 'European Journal of Inorganic Chemistry  (online)'
 2007 2007 5 652 655 EJICFO
_publ_author_name                  'Ling Jie;Albrecht Schmitt, T.E.'
_cell_length_a                     5.6484(5)
_cell_length_b                     7.1935(7)
_cell_length_c                     8.1377(8)
_cell_angle_alpha                  105.264(2)
_cell_angle_beta                   93.585(2)
_cell_angle_gamma                  111.840(2)
_cell_volume                       291.3
_cell_formula_units_Z              1
_symmetry_space_group_name_H-M     'P 1'
_symmetry_Int_Tables_number        1
_refine_ls_R_factor_all            .0296
loop_
_symmetry_equiv_pos_site_id
_symmetry_equiv_pos_as_xyz
  1	'x, y, z'
loop_
_atom_type_symbol
_atom_type_oxidation_number
Au3+	3
I5+	5
K1+	1
O2-	-2
loop_
_atom_site_label
_atom_site_type_symbol
_atom_site_symmetry_multiplicity
_atom_site_Wyckoff_symbol
_atom_site_fract_x
_atom_site_fract_y
_atom_site_fract_z
_atom_site_occupancy
_atom_site_attached_hydrogens
_atom_site_U_iso_or_equiv
Au1 Au3+ 1 a 0.40972(8) 0.09765(7) 0.37339(6) 1 0 0.00840(13) 
I1 I5+ 1 a -0.18916(14) 0.44270(12) 0.74400(10) 1 0 0.00854(17) 
I2 I5+ 1 a 0.88463(15) 0.40748(11) 0.23713(10) 1 0 0.00989(18) 
I3 I5+ 1 a 0.51116(14) -0.25519(12) 0.06471(10) 1 0 0.00852(16) 
I4 I5+ 1 a 0.50105(14) -0.21500(11) 0.58220(9) 1 0 0.00867(17) 
O1 O2- 1 a -0.5207(18) 0.3010(15) 0.6070(11) 1 0 0.0116(19) 
O2 O2- 1 a 0.2626(18) -0.1377(15) 0.4707(12) 1 0 0.0113(19) 
O3 O2- 1 a 0.5430(19) 0.3344(15) 0.2748(13) 1 0 0.0129(19) 
O4 O2- 1 a -0.3205(19) 0.4244(17) 0.9409(12) 1 0 0.015(2) 
O5 O2- 1 a 0.758(2) 0.0414(15) 0.6604(13) 1 0 0.0139(19) 
O6 O2- 1 a 0.221(2) -0.4986(15) 0.0031(14) 1 0 0.016(2) 
O7 O2- 1 a 0.027(2) 0.4290(15) 0.4505(11) 1 0 0.016(2) 
O8 O2- 1 a 0.868(2) 0.1564(16) 0.1185(12) 1 0 0.016(2) 
K1 K1+ 1 a 0.1929(6) -0.8993(5) -0.1145(4) 1 0 0.0139(6) 
O9 O2- 1 a 0.3084(17) -0.1009(14) 0.1346(12) 1 0 0.0076(17) 
O10 O2- 1 a 0.3499(18) -0.2237(14) 0.7687(12) 1 0 0.0123(19) 
O11 O2- 1 a 0.650(2) -0.2392(16) 0.2748(13) 1 0 0.018(2) 
O12 O2- 1 a -0.179(2) 0.6959(15) 0.7527(13) 1 0 0.0149(19) 

loop_
_atom_site_aniso_label
_atom_site_aniso_type_symbol
_atom_site_aniso_U_11
_atom_site_aniso_U_22
_atom_site_aniso_U_33
_atom_site_aniso_U_12
_atom_site_aniso_U_13
_atom_site_aniso_U_23
Au1 Au3+ 0.0088(2) 0.0081(2) 0.0073(2) 0.00286(16) 0.00141(16) 0.00163(15)
I1 I5+ 0.0082(4) 0.0096(4) 0.0071(3) 0.0039(3) 0.0013(3) 0.0009(3)
I2 I5+ 0.0106(4) 0.0089(4) 0.0077(4) 0.0015(3) 0.0020(3) 0.0021(3)
I3 I5+ 0.0080(3) 0.0087(3) 0.0072(3) 0.0018(3) 0.0019(3) 0.0018(3)
I4 I5+ 0.0089(4) 0.0097(4) 0.0066(4) 0.0030(3) 0.0019(3) 0.0023(3)
O1 O2- 0.007(4) 0.019(5) 0.005(4) 0.008(4) -0.002(3) -0.006(4)
O2 O2- 0.006(4) 0.012(5) 0.014(5) 0.003(4) -0.006(4) 0.005(4)
O3 O2- 0.015(5) 0.009(5) 0.019(5) 0.006(4) 0.007(4) 0.007(4)
O4 O2- 0.010(5) 0.036(6) 0.003(4) 0.016(5) 0.001(4) 0.002(4)
O5 O2- 0.012(5) 0.008(4) 0.019(5) 0.002(4) -0.005(4) 0.005(4)
O6 O2- 0.010(5) 0.012(5) 0.023(5) 0.002(4) 0.004(4) 0.005(4)
O7 O2- 0.007(4) 0.019(5) 0.005(4) 0.008(4) -0.002(3) -0.006(4)
O8 O2- 0.017(5) 0.017(5) 0.014(5) 0.011(4) 0.006(4) 0.000(4)
K1 K1+ 0.0138(14) 0.0103(12) 0.0172(15) 0.0049(10) 0.0029(11) 0.0036(11)
#End of data_417267-ICSD


