data_245924-ICSD
#?2014 by Fachinformationszentrum Karlsruhe, and the U.S. Secretary of 
#Commerce on behalf of the United States.  All rights reserved.
_database_code_ICSD                245924
_audit_creation_date               2009/02/01
_chemical_name_systematic          'Tripotassium Samarium Bis(borate)'
_chemical_formula_structural       'K3 Sm (B O3)2'
_chemical_formula_sum              'B2 K3 O6 Sm1'
_publ_section_title
;
Potassium rich rare earth (RE) borates K3 RE (B O3)2
;
loop_
_citation_id
_citation_journal_abbrev
_citation_year
_citation_journal_volume
_citation_journal_issue
_citation_page_first
_citation_page_last
_citation_journal_id_ASTM
primary 'Solid State Sciences' 2008 10 1 26 30 SSSCFJ
_publ_author_name                  'Gao, J.H.;Li, R.-K.'
_cell_length_a                     9.046(3)
_cell_length_b                     7.100(2)
_cell_length_c                     11.186(3)
_cell_angle_alpha                  90.
_cell_angle_beta                   90.
_cell_angle_gamma                  90.
_cell_volume                       718.44
_cell_formula_units_Z              4
_symmetry_space_group_name_H-M     'P n m a'
_symmetry_Int_Tables_number        62
_refine_ls_R_factor_all            .0464
loop_
_symmetry_equiv_pos_site_id
_symmetry_equiv_pos_as_xyz
  1	'x+.5, y, -z+.5'
  2	'x, -y+.5, z'
  3	'-x+.5, y+.5, z+.5'
  4	'-x, -y, -z'
  5	'-x+.5, -y, z+.5'
  6	'-x, y+.5, -z'
  7	'x+.5, -y+.5, -z+.5'
  8	'x, y, z'
loop_
_atom_type_symbol
_atom_type_oxidation_number
B3+	3
K1+	1
O2-	-2
Sm3+	3
loop_
_atom_site_label
_atom_site_type_symbol
_atom_site_symmetry_multiplicity
_atom_site_Wyckoff_symbol
_atom_site_fract_x
_atom_site_fract_y
_atom_site_fract_z
_atom_site_occupancy
_atom_site_attached_hydrogens
_atom_site_U_iso_or_equiv
Sm1 Sm3+ 4 c 0.62567(4) 0.25 0.66844(3) 1. 0 0.00774(18) 
K1 K1+ 8 d 0.30032(13) 0.99527(16) 0.59782(10) 1. 0 0.0170(3) 
K2 K1+ 4 c 0.4389(3) 0.75 0.8695(2) 1. 0 0.0480(8) 
O1 O2- 4 c 0.8792(4) 0.25 0.7424(5) 1. 0 0.0112(10) 
O2 O2- 8 d 0.6284(5) 0.9196(7) 0.6697(3) 1. 0 0.0184(10) 
O3 O2- 4 c 0.5886(6) 0.25 0.8837(5) 1. 0 0.0157(10) 
O4 O2- 4 c 0.4919(6) 0.25 0.4893(4) 1. 0 0.0118(9) 
O5 O2- 4 c 0.8387(6) 0.25 0.5334(5) 1. 0 0.0137(9) 
B1 B3+ 4 c 0.4103(9) 0.25 0.3835(7) 1. 0 0.0100(11) 
B2 B3+ 4 c 0.4375(9) 0.25 0.8746(7) 1. 0 0.0110(12) 

#End of data_245924-ICSD


