data_68904-ICSD
#?2014 by Fachinformationszentrum Karlsruhe, and the U.S. Secretary of 
#Commerce on behalf of the United States.  All rights reserved.
_database_code_ICSD                68904
_audit_creation_date               1992/01/20
_chemical_name_systematic
;
Dipotassium Dizinc Tecto-octasilicate
;
_chemical_formula_structural       'K2 Zn2 (Si8 O19)'
_chemical_formula_sum              'K2 O19 Si8 Zn2'
_publ_section_title
;
Structure of synthetic potassium zinc silicate: K2Zn2Si8O19
;
loop_
_citation_id
_citation_journal_abbrev
_citation_year
_citation_journal_volume
_citation_page_first
_citation_page_last
_citation_journal_id_ASTM
primary 'Acta Crystallographica, Section C: Crystal Structure Communications'
 1991 47 15 17 ACSCEE
_publ_author_name
;
Kawahara, A.;Kohara, S.;Konishi, N.;Horiuchi, J.;Kawamura, K.
;
_cell_length_a                     13.769(3)
_cell_length_b                     5.079(1)
_cell_length_c                     12.403(4)
_cell_angle_alpha                  90.
_cell_angle_beta                   107.25(4)
_cell_angle_gamma                  90.
_cell_volume                       828.36
_cell_formula_units_Z              2
_symmetry_space_group_name_H-M     'C 1 2 1'
_symmetry_Int_Tables_number        5
_refine_ls_R_factor_all            .047
loop_
_symmetry_equiv_pos_site_id
_symmetry_equiv_pos_as_xyz
  1	'-x, y, -z'
  2	'x, y, z'
  3	'-x+.5, y+.5, -z'
  4	'x+.5, y+.5, z'
loop_
_atom_type_symbol
_atom_type_oxidation_number
K1+	1
O2-	-2
Si4+	4
Zn2+	2
loop_
_atom_site_label
_atom_site_type_symbol
_atom_site_symmetry_multiplicity
_atom_site_Wyckoff_symbol
_atom_site_fract_x
_atom_site_fract_y
_atom_site_fract_z
_atom_site_occupancy
_atom_site_attached_hydrogens
_atom_site_B_iso_or_equiv
Zn1 Zn2+ 4 c 0.19993(7) 0.5 0.41159(8) 1. 0 0 
K1 K1+ 4 c 0.3768(2) 0.0312(6) 0.3510(2) 1. 0 0 
Si1 Si4+ 4 c 0.0731(2) 0.0028(7) 0.4246(2) 1. 0 0 
Si2 Si4+ 4 c 0.2042(2) 0.5914(6) 0.1598(2) 1. 0 0 
Si3 Si4+ 4 c 0.3743(2) 0.8455(6) 0.0729(2) 1. 0 0 
Si4 Si4+ 4 c 0.0022(2) 0.8567(6) 0.1672(2) 1. 0 0 
O1 O2- 4 c 0.4220(5) 0.1215(16) 0.1262(6) 1. 0 1.35(12) 
O2 O2- 4 c 0.2917(5) 0.7803(16) 0.1366(6) 1. 0 1.31(12) 
O3 O2- 4 c 0.1074(5) 0.7835(16) 0.1452(6) 1. 0 1.34(12) 
O4 O2- 4 c 0.2443(5) 0.4671(16) 0.2812(5) 1. 0 1.21(12) 
O5 O2- 4 c 0.0134(5) 0.8912(15) 0.2989(5) 1. 0 0.99(11) 
O6 O2- 4 c 0.1812(5) 0.8544(15) 0.4663(5) 1. 0 0.78(10) 
O7 O2- 2 b 0.5 0.4039(20) 0.5 1. 0 1.12(16) 
O8 O2- 4 c 0.0830(5) 0.3129(15) 0.4278(6) 1. 0 1.17(12) 
O9 O2- 4 c 0.1749(5) 0.3700(16) 0.0608(6) 1. 0 1.22(12) 
O10 O2- 4 c 0.4592(5) 0.6194(15) 0.1008(5) 1. 0 1.17(12) 

#End of data_68904-ICSD


