data_240748-ICSD
#?2014 by Fachinformationszentrum Karlsruhe, and the U.S. Secretary of 
#Commerce on behalf of the United States.  All rights reserved.
_database_code_ICSD                240748
_audit_creation_date               2007/08/01
_chemical_name_systematic
;
Tetrapotassium Strontium Cyclo-trisilicate
;
_chemical_formula_structural       'K4 Sr (Si3 O9)'
_chemical_formula_sum              'K4 O9 Si3 Sr1'
_publ_section_title
;
Synthesis, Rietveld Analysis and Solid State Raman Spectroscopy of K4 
Sr Si 3O9
;
loop_
_citation_id
_citation_journal_abbrev
_citation_year
_citation_journal_volume
_citation_journal_issue
_citation_page_first
_citation_page_last
_citation_journal_id_ASTM
primary 'Zeitschrift fuer Anorganische und Allgemeine Chemie (1950) (DE)'
 2006 632 12-13 2037 2042 ZAACAB
_publ_author_name
;
Kahlenberg, V.;Kaindl, R.;Toebbens, D.M.
;
_cell_length_a                     16.16957(5)
_cell_length_b                     16.16957(5)
_cell_length_c                     16.16957(5)
_cell_angle_alpha                  90.
_cell_angle_beta                   90.
_cell_angle_gamma                  90.
_cell_volume                       4227.61
_cell_formula_units_Z              16
_symmetry_space_group_name_H-M     'P a -3'
_symmetry_Int_Tables_number        205
loop_
_symmetry_equiv_pos_site_id
_symmetry_equiv_pos_as_xyz
  1	'-z+.5, x+.5, y'
  2	'z+.5, x, -y+.5'
  3	'z, -x+.5, y+.5'
  4	'-z, -x, -y'
  5	'y, -z+.5, x+.5'
  6	'-y+.5, z+.5, x'
  7	'y+.5, z, -x+.5'
  8	'-y, -z, -x'
  9	'x+.5, y, -z+.5'
 10	'x, -y+.5, z+.5'
 11	'-x+.5, y+.5, z'
 12	'-x, -y, -z'
 13	'z+.5, -x+.5, -y'
 14	'-z+.5, -x, y+.5'
 15	'-z, x+.5, -y+.5'
 16	'z, x, y'
 17	'-y, z+.5, -x+.5'
 18	'y+.5, -z+.5, -x'
 19	'-y+.5, -z, x+.5'
 20	'y, z, x'
 21	'-x+.5, -y, z+.5'
 22	'-x, y+.5, -z+.5'
 23	'x+.5, -y+.5, -z'
 24	'x, y, z'
loop_
_atom_type_symbol
_atom_type_oxidation_number
K1+	1
O2-	-2
Si4+	4
Sr2+	2
loop_
_atom_site_label
_atom_site_type_symbol
_atom_site_symmetry_multiplicity
_atom_site_Wyckoff_symbol
_atom_site_fract_x
_atom_site_fract_y
_atom_site_fract_z
_atom_site_occupancy
_atom_site_attached_hydrogens
_atom_site_B_iso_or_equiv
K1 K1+ 4 a 0 0 0 1. 0 2.10(6) 
K2 K1+ 4 b 0.5 0.5 0.5 1. 0 2.10(6) 
K3 K1+ 8 c 0.2489(4) 0.2489(4) 0.2489(4) 1. 0 2.10(6) 
K4 K1+ 24 d 0.3895(4) 0.1424(3) 0.3903(4) 1. 0 2.10(6) 
K5 K1+ 24 d 0.0877(3) 0.3475(4) 0.1440(4) 1. 0 2.10(6) 
O1 O2- 24 d 0.2626(9) 0.2748(9) 0.4217(7) 1. 0 1.33(9) 
O2 O2- 24 d 0.3255(7) 0.4843(9) 0.4699(9) 1. 0 1.33(9) 
O3 O2- 24 d 0.1210(4) 0.2169(9) 0.4587(8) 1. 0 1.33(9) 
O4 O2- 24 d 0.0829(5) 0.2209(9) 0.2420(9) 1. 0 1.33(9) 
O5 O2- 24 d 0.0109(8) 0.0264(9) 0.1679(5) 1. 0 1.33(9) 
O6 O2- 24 d 0.2510(8) 0.1259(4) 0.4897(6) 1. 0 1.33(9) 
Si1 Si4+ 24 d 0.4910(3) 0.2170(3) 0.2215(3) 1. 0 1.47(8) 
Si2 Si4+ 24 d 0.4700(3) 0.0224(3) 0.2415(3) 1. 0 1.47(8) 
Sr1 Sr2+ 8 c 0.1221(3) 0.1221(3) 0.1221(3) 1. 0 1.46(9) 
Sr2 Sr2+ 8 c 0.3725(3) 0.3725(3) 0.3725(3) 1. 0 1.14(8) 

#End of data_240748-ICSD


