data_98020-ICSD
#?2014 by Fachinformationszentrum Karlsruhe, and the U.S. Secretary of 
#Commerce on behalf of the United States.  All rights reserved.
_database_code_ICSD                98020
_audit_creation_date               2004/10/01
_chemical_name_systematic          'Lithium Hydrogen Sulfide - Lt'
_chemical_formula_structural       'Li S H'
_chemical_formula_sum              'H1 Li1 S1'
_publ_section_title
;
The low-temperature structure of Li S H
;
loop_
_citation_id
_citation_journal_abbrev
_citation_year
_citation_journal_volume
_citation_journal_issue
_citation_page_first
_citation_page_last
_citation_journal_id_ASTM
primary 'Phase Transition' 2003 76 1 187 195 PHTRDP
_publ_author_name                  'Winkler, B.;Hytha, M.;Milman, V.'
_cell_length_a                     6.14925
_cell_length_b                     3.93794
_cell_length_c                     7.83367
_cell_angle_alpha                  90
_cell_angle_beta                   90
_cell_angle_gamma                  90
_cell_volume                       189.7
_cell_formula_units_Z              4
_symmetry_space_group_name_H-M     'P m c 21'
_symmetry_Int_Tables_number        26
loop_
_symmetry_equiv_pos_site_id
_symmetry_equiv_pos_as_xyz
  1	'x, -y, z+.5'
  2	'-x, -y, z+.5'
  3	'-x, y, z'
  4	'x, y, z'
loop_
_atom_type_symbol
_atom_type_oxidation_number
H1+	1
Li1+	1
S2-	-2
loop_
_atom_site_label
_atom_site_type_symbol
_atom_site_symmetry_multiplicity
_atom_site_Wyckoff_symbol
_atom_site_fract_x
_atom_site_fract_y
_atom_site_fract_z
_atom_site_occupancy
_atom_site_attached_hydrogens
S1 S2- 2 a 0 -.00242 0.26209 1. 0 
S2 S2- 2 b 0.5 0.46666 -.00018 1. 0 
H1 H1+ 2 a 0 -.01413 0.43394 1. 0 
H2 H1+ 2 b 0.5 0.12447 -.00036 1. 0 
Li1 Li1+ 4 c 0.25018 0.50050 0.74856 1. 0 

#End of data_98020-ICSD


