data_85626-ICSD
#?2014 by Fachinformationszentrum Karlsruhe, and the U.S. Secretary of 
#Commerce on behalf of the United States.  All rights reserved.
_database_code_ICSD                85626
_audit_creation_date               1999/11/30
_chemical_name_systematic
;
Dipotassium Copper(I) Nonathiotriphosphate(V)
;
_chemical_formula_structural       'K2 Cu (P3 S9)'
_chemical_formula_sum              'Cu1 K2 P3 S9'
_publ_section_title
;
A2 Cu P3 S9 (A = K, Rb), Cs2 Cu2 P2 S6, and K3 Cu P2 S7: new phases 
from the dissolution of copper in molten polythiophosphate fluxes
;
loop_
_citation_id
_citation_journal_abbrev
_citation_year
_citation_journal_volume
_citation_page_first
_citation_page_last
_citation_journal_id_ASTM
primary 'Chemistry of Materials' 1998 10 3040 3049 CMATEX
_publ_author_name
;
Hanko, J.A.;Sayettat, J.;Jobic, S.;Brec, R.;Kanatzidis, M.G.
;
_cell_length_a                     6.8331(6)
_cell_length_b                     23.562(2)
_cell_length_c                     9.5415(7)
_cell_angle_alpha                  90.
_cell_angle_beta                   100.242(7)
_cell_angle_gamma                  90.
_cell_volume                       1511.72
_cell_formula_units_Z              4
_symmetry_space_group_name_H-M     'P 1 21/n 1'
_symmetry_Int_Tables_number        14
_refine_ls_R_factor_all            .034
loop_
_symmetry_equiv_pos_site_id
_symmetry_equiv_pos_as_xyz
  1	'-x+.5, y+.5, -z+.5'
  2	'-x, -y, -z'
  3	'x+.5, -y+.5, z+.5'
  4	'x, y, z'
loop_
_atom_type_symbol
_atom_type_oxidation_number
Cu1+	1
K1+	1
P5+	5
S2-	-2
loop_
_atom_site_label
_atom_site_type_symbol
_atom_site_symmetry_multiplicity
_atom_site_Wyckoff_symbol
_atom_site_fract_x
_atom_site_fract_y
_atom_site_fract_z
_atom_site_occupancy
_atom_site_attached_hydrogens
_atom_site_U_iso_or_equiv
Cu1 Cu1+ 4 e 0.5680(2) 0.10816(4) 0.3090(1) 1. 0 0.0282(3) 
P1 P5+ 4 e 0.0638(3) 0.09784(8) 0.3424(2) 1. 0 0.0195(6) 
P2 P5+ 4 e 0.8170(3) 0.22278(8) 0.2188(2) 1. 0 0.0222(6) 
P3 P5+ 4 e 0.7605(3) 0.10134(9) 0.0083(2) 1. 0 0.0221(6) 
S1 S2- 4 e 0.5812(3) 0.20591(8) 0.3076(2) 1. 0 0.0296(7) 
S2 S2- 4 e 0.3344(3) 0.07180(9) 0.4305(2) 1. 0 0.0256(6) 
S3 S2- 4 e 0.8552(3) 0.07125(8) 0.4477(2) 1. 0 0.0244(6) 
S4 S2- 4 e 0.5203(3) 0.07496(9) 0.0784(2) 1. 0 0.0304(7) 
S5 S2- 4 e 0.2202(4) 0.92047(9) 0.1886(2) 1. 0 0.0330(7) 
S6 S2- 4 e 0.0275(3) 0.06800(8) 0.1301(2) 1. 0 0.0249(6) 
S7 S2- 4 e 0.0840(3) 0.18772(8) 0.3359(2) 1. 0 0.0243(6) 
S8 S2- 4 e 0.7991(3) 0.19013(8) 0.0110(2) 1. 0 0.0283(7) 
S9 S2- 4 e 0.8756(3) 0.30300(8) 0.1970(2) 1. 0 0.0328(7) 
K1 K1+ 4 e 0.1718(4) 0.80449(9) 0.3710(2) 1. 0 0.0459(8) 
K2 K1+ 4 e 0.2324(4) 0.54614(9) 0.7398(2) 1. 0 0.0486(8) 

#End of data_85626-ICSD


