data_40218-ICSD
#?2014 by Fachinformationszentrum Karlsruhe, and the U.S. Secretary of 
#Commerce on behalf of the United States.  All rights reserved.
_database_code_ICSD                40218
_audit_creation_date               1999/11/30
_chemical_name_systematic          'Rubidium Lithium Vanadate'
_chemical_formula_structural       'Rb2 (Li V O4)'
_chemical_formula_sum              'Li1 O4 Rb2 V1'
_publ_section_title
;
Ueber "Lithovanadate": Zur Kenntnis von Rb2 (Li V O4)und Cs2 (Li V 
O4)
;
loop_
_citation_id
_citation_journal_abbrev
_citation_year
_citation_journal_volume
_citation_page_first
_citation_page_last
_citation_journal_id_ASTM
primary 'Zeitschrift fuer Anorganische und Allgemeine Chemie (1950) (DE)'
 1989 571 113 126 ZAACAB
_publ_author_name                  'Kissel, J.;Hoppe, R.'
_cell_length_a                     5.879(1)
_cell_length_b                     11.701(1)
_cell_length_c                     7.933(1)
_cell_angle_alpha                  90.
_cell_angle_beta                   90.
_cell_angle_gamma                  90.
_cell_volume                       545.71
_cell_formula_units_Z              4
_symmetry_space_group_name_H-M     'C m c 21'
_symmetry_Int_Tables_number        36
_refine_ls_R_factor_all            .0775
loop_
_symmetry_equiv_pos_site_id
_symmetry_equiv_pos_as_xyz
  1	'x, -y, z+.5'
  2	'-x, -y, z+.5'
  3	'-x, y, z'
  4	'x, y, z'
  5	'x+.5, -y+.5, z+.5'
  6	'-x+.5, -y+.5, z+.5'
  7	'-x+.5, y+.5, z'
  8	'x+.5, y+.5, z'
loop_
_atom_type_symbol
_atom_type_oxidation_number
Li1+	1
O2-	-2
Rb1+	1
V5+	5
loop_
_atom_site_label
_atom_site_type_symbol
_atom_site_symmetry_multiplicity
_atom_site_Wyckoff_symbol
_atom_site_fract_x
_atom_site_fract_y
_atom_site_fract_z
_atom_site_occupancy
_atom_site_attached_hydrogens
V1 V5+ 4 a 0 0.3095(2) 0.3894(3) 1. 0 
Rb1 Rb1+ 4 a 0 0.3950(1) 0.9488(1) 1. 0 
Rb2 Rb1+ 4 a 0 0.9383(2) 0.5932(2) 1. 0 
Li1 Li1+ 4 a 0 0.8011(20) 0.1716(28) 1. 0 
O1 O2- 4 a 0 0.1650(8) 0.4236(11) 1. 0 
O2 O2- 4 a 0 0.3660(8) 0.5887(14) 1. 0 
O3 O2- 8 b 0.7639(14) 0.3552(7) 0.2817(11) 1. 0 

loop_
_atom_site_aniso_label
_atom_site_aniso_type_symbol
_atom_site_aniso_U_11
_atom_site_aniso_U_22
_atom_site_aniso_U_33
_atom_site_aniso_U_12
_atom_site_aniso_U_13
_atom_site_aniso_U_23
V1 V5+ 0.0116(12) 0.0117(11) 0.0111(9) 0 0 0.0001(9)
Rb1 Rb1+ 0.0189(8) 0.0230(8) 0.0176(6) 0 0 -.0002(7)
Rb2 Rb1+ 0.0184(8) 0.0204(7) 0.0204(7) 0 0 0.0027(7)
Li1 Li1+ 0.0308(89) 0.0104(58) 0.0089(24) 0 0 -.0042(82)
O1 O2- 0.0396(69) 0.0156(52) 0.0066(54) 0 0 -.0062(37)
O2 O2- 0.0244(54) 0.0204(51) 0.0140(42) 0 0 -.0001(49)
O3 O2- 0.0130(31) 0.0385(54) 0.0281(35) 0.0029(33) -.0073(32) 0.0042(39)
#End of data_40218-ICSD


