data_35030-ICSD
#?2014 by Fachinformationszentrum Karlsruhe, and the U.S. Secretary of 
#Commerce on behalf of the United States.  All rights reserved.
_database_code_ICSD                35030
_audit_creation_date               1982/12/31
_audit_update_record               2012/08/01
_chemical_name_systematic          'Tetrapotassium Hexaniobium Oxide'
_chemical_formula_structural       'K4 Nb6 O17'
_chemical_formula_sum              'K4 Nb6 O17'
_publ_section_title
;
Mecanisme d'hydratation des niobates alcalins lamellaires de formule 
A4 Nb4 O17 (A=K,Rb,Cs)
;
loop_
_citation_id
_citation_journal_abbrev
_citation_year
_citation_journal_volume
_citation_page_first
_citation_page_last
_citation_journal_id_ASTM
primary 'Journal of Solid State Chemistry' 1982 43 346 353 JSSCBI
_publ_author_name                  'Gasperin, M.;le Bihan, M.T.'
_cell_length_a                     7.83
_cell_length_b                     33.20999
_cell_length_c                     6.46
_cell_angle_alpha                  90.
_cell_angle_beta                   90.
_cell_angle_gamma                  90.
_cell_volume                       1679.82
_cell_formula_units_Z              4
_symmetry_space_group_name_H-M     'P 21 n b'
_symmetry_Int_Tables_number        33
_refine_ls_R_factor_all            .147
loop_
_symmetry_equiv_pos_site_id
_symmetry_equiv_pos_as_xyz
  1	'x, y+.5, -z+.5'
  2	'x+.5, -y+.5, z+.5'
  3	'x+.5, -y, -z'
  4	'x, y, z'
loop_
_atom_type_symbol
_atom_type_oxidation_number
K1+	1
Nb5+	5
O2-	-2
loop_
_atom_site_label
_atom_site_type_symbol
_atom_site_symmetry_multiplicity
_atom_site_Wyckoff_symbol
_atom_site_fract_x
_atom_site_fract_y
_atom_site_fract_z
_atom_site_occupancy
_atom_site_attached_hydrogens
_atom_site_B_iso_or_equiv
Nb1 Nb5+ 4 a 0 0.1741(3) 0.2017(11) 1. 0 2.1 
Nb2 Nb5+ 4 a 0.0078(7) 0.8259(2) 0.7941(9) 1. 0 0.7 
Nb3 Nb5+ 4 a -.0011(11) 0.1252(2) 0.7558(10) 1. 0 1.1 
Nb4 Nb5+ 4 a 0.0147(10) 0.8728(2) 0.2325(11) 1. 0 1.7 
Nb5 Nb5+ 4 a 0.2617(11) 0.0954(1) 0.1369(6) 1. 0 1.3 
Nb6 Nb5+ 4 a 0.2614(11) 0.0499(1) 0.6802(6) 1. 0 1.6 
K1 K1+ 4 a 0.2484(18) 0.2209(2) 0.6511(13) 1. 0 0.7 
K2 K1+ 4 a 0.7509(28) 0.2177(3) 0.6453(16) 1. 0 1.6 
K3 K1+ 4 a 0.7499(26) 0.0819(3) 0.3339(16) 1. 0 1.4 
K4 K1+ 4 a 0.7542(34) 0.0214(3) 0.7948(17) 1. 0 1.9 
O1 O2- 4 a 0.0431(89) 0.2219(20) 0.278(12) 1. 0 3.2 
O2 O2- 4 a 0.4862(73) 0.2279(15) 0.2786(88) 1. 0 1.7 
O3 O2- 4 a 0.0131(34) 0.1445(7) 0.4976(50) 1. 0 0.1 
O4 O2- 4 a 0.5189(40) 0.1536(9) 0.5162(59) 1. 0 0.5 
O5 O2- 4 a 0.0228(32) 0.0680(9) 0.6711(49) 1. 0 0.1 
O6 O2- 4 a 0.5142(73) 0.0683(17) 0.7100(89) 1. 0 3. 
O7 O2- 4 a 0.0053(41) 0.1783(8) 0.9048(56) 1. 0 0.4 
O8 O2- 4 a 0.5091(82) 0.1902(15) 0.916(11) 1. 0 3.6 
O9 O2- 4 a 0.0189(35) 0.1099(8) 0.0918(53) 1. 0 0.1 
O10 O2- 4 a 0.4885(73) 0.1026(15) 0.0729(87) 1. 0 2.8 
O11 O2- 4 a 0.2599(58) 0.1209(7) 0.8112(41) 1. 0 0.4 
O12 O2- 4 a 0.7567(75) 0.1169(10) 0.7814(63) 1. 0 2.4 
O13 O2- 4 a 0.2354(68) 0.0426(11) 0.9830(65) 1. 0 2.4 
O14 O2- 4 a 0.750(10) 0.1676(9) 0.2327(56) 1. 0 1.9 
O15 O2- 4 a 0.239(6) 0.1561(8) 0.2230(46) 1. 0 0.9 
O16 O2- 4 a 0.2758(62) 0.996(1) 0.6252(64) 1. 0 2.4 
O17 O2- 4 a 0.278(3) 0.0737(7) 0.3874(40) 1. 0 0.1 

#End of data_35030-ICSD


