data_151381-ICSD
#?2014 by Fachinformationszentrum Karlsruhe, and the U.S. Secretary of 
#Commerce on behalf of the United States.  All rights reserved.
_database_code_ICSD                151381
_audit_creation_date               2006/10/01
_chemical_name_systematic          'Sodium Nitrate(V)'
_chemical_formula_structural       'Na (N O3)'
_chemical_formula_sum              'N1 Na1 O3'
_publ_section_title
;
The crystal structure of sodium nitrate
;
loop_
_citation_id
_citation_journal_abbrev
_citation_year
_citation_journal_volume
_citation_page_first
_citation_page_last
_citation_journal_id_ASTM
primary 'Physical Review (1,1893-132,1963/141,1966-188,1969)'
 1920 16 149 157 PHRVAO
_publ_author_name                  'Wyckoff, R.W.G.'
_cell_length_a                     6.32
_cell_length_b                     6.32
_cell_length_c                     6.32
_cell_angle_alpha                  47.23
_cell_angle_beta                   47.23
_cell_angle_gamma                  47.23
_cell_volume                       124.41
_cell_formula_units_Z              2
_symmetry_space_group_name_H-M     'R -3 c R'
_symmetry_Int_Tables_number        167
loop_
_symmetry_equiv_pos_site_id
_symmetry_equiv_pos_as_xyz
  1	'-x+.5, -z+.5, -y+.5'
  2	'-z+.5, -y+.5, -x+.5'
  3	'-y+.5, -x+.5, -z+.5'
  4	'x+.5, z+.5, y+.5'
  5	'z+.5, y+.5, x+.5'
  6	'y+.5, x+.5, z+.5'
  7	'-z, -x, -y'
  8	'-y, -z, -x'
  9	'-x, -y, -z'
 10	'z, x, y'
 11	'y, z, x'
 12	'x, y, z'
loop_
_atom_type_symbol
_atom_type_oxidation_number
N5+	5
Na1+	1
O2-	-2
loop_
_atom_site_label
_atom_site_type_symbol
_atom_site_symmetry_multiplicity
_atom_site_Wyckoff_symbol
_atom_site_fract_x
_atom_site_fract_y
_atom_site_fract_z
_atom_site_occupancy
_atom_site_attached_hydrogens
Na1 Na1+ 2 b 0 0 0 1. 0 
N1 N5+ 2 a 0.250 0.250 0.250 1. 0 
O1 O2- 6 e 0.5 0 0.25 1. 0 

#End of data_151381-ICSD


