data_200029-ICSD
#?2014 by Fachinformationszentrum Karlsruhe, and the U.S. Secretary of 
#Commerce on behalf of the United States.  All rights reserved.
_database_code_ICSD                200029
_audit_creation_date               1980/01/01
_audit_update_record               2003/04/01
_chemical_name_systematic
;
Dicesium Sodium Hexacyanoferrate(III)
;
_chemical_formula_structural       'Cs2 Na (Fe (C N)6)'
_chemical_formula_sum              'C6 Cs2 Fe1 N6 Na1'
_publ_section_title
;
Study by X-ray crystallography and Moessbauer spectroscopy of the 
hexacyanoferrate(III) compounds Cs2 M (Fe (C N)6) (M= Li, Na, or K)
;
loop_
_citation_id
_citation_journal_abbrev
_citation_year
_citation_journal_volume
_citation_page_first
_citation_page_last
_citation_journal_id_ASTM
primary
;
Journal of the Chemical Society. Dalton Transactions, Inorganic 
Chemistry (1972-)
;
 1977 1977 309 316 JCDTBI
2 'Phase Transition' 1992 38 127 220 PHTRDP
_publ_author_name                  'Fletcher, S.R.;Gibb, T.C.'
_cell_length_a                     10.870(1)
_cell_length_b                     7.709(1)
_cell_length_c                     7.573(1)
_cell_angle_alpha                  90.
_cell_angle_beta                   89.994(6)
_cell_angle_gamma                  90.
_cell_volume                       634.59
_cell_formula_units_Z              2
_symmetry_space_group_name_H-M     'P 1 21/n 1'
_symmetry_Int_Tables_number        14
_refine_ls_R_factor_all            .06
loop_
_symmetry_equiv_pos_site_id
_symmetry_equiv_pos_as_xyz
  1	'-x+.5, y+.5, -z+.5'
  2	'-x, -y, -z'
  3	'x+.5, -y+.5, z+.5'
  4	'x, y, z'
loop_
_atom_type_symbol
_atom_type_oxidation_number
C2+	2
Cs1+	1
Fe3+	3
N3-	-3
Na1+	1
loop_
_atom_site_label
_atom_site_type_symbol
_atom_site_symmetry_multiplicity
_atom_site_Wyckoff_symbol
_atom_site_fract_x
_atom_site_fract_y
_atom_site_fract_z
_atom_site_occupancy
_atom_site_attached_hydrogens
Cs1 Cs1+ 4 e 0.24996(8) 0.45960(11) -.00918(11) 1. 0 
Na1 Na1+ 2 d 0 0.5 0.5 1. 0 
Fe1 Fe3+ 2 a 0 0 0 1. 0 
C1 C2+ 4 e 0.0192(10) 0.1422(14) -.2059(13) 1. 0 
C2 C2+ 4 e 0.0242(9) -.2054(14) -.1435(13) 1. 0 
C3 C2+ 4 e 0.1747(10) 0.0061(14) 0.0405(14) 1. 0 
N1 N3- 4 e 0.0328(11) 0.2274(14) -.3299(13) 1. 0 
N2 N3- 4 e 0.0378(10) -.3232(14) -.2307(12) 1. 0 
N3 N3- 4 e 0.2787(9) 0.0147(16) 0.0680(16) 1. 0 

#End of data_200029-ICSD


