data_408440-ICSD
#?2014 by Fachinformationszentrum Karlsruhe, and the U.S. Secretary of 
#Commerce on behalf of the United States.  All rights reserved.
_database_code_ICSD                408440
_audit_creation_date               1999/11/30
_audit_update_record               2008/08/01
_chemical_name_systematic
;
Dibismuth(II) Tetraaluminium Selenide
;
_chemical_formula_structural       'Bi2 Al4 Se8'
_chemical_formula_sum              'Al4 Bi2 Se8'
_publ_section_title
;
Bismut(II)-chalkogenometallate(III) Bi2 M4 X8, Verbindungen mit 
Bi2(4+)-Hanteln (M= Al, Ga; X= S, Se)
;
loop_
_citation_id
_citation_journal_abbrev
_citation_year
_citation_journal_volume
_citation_page_first
_citation_page_last
_citation_journal_id_ASTM
primary 'Zeitschrift fuer Anorganische und Allgemeine Chemie (1950) (DE)'
 1998 624 1137 1147 ZAACAB
_publ_author_name
;
Kalpen, H.;Hoenle, W.;Somer, M.;Schwarz, U.;Peters, K.;von Schnering, 
H.G.;Blachnik, R.
;
_cell_length_a                     7.764(2)
_cell_length_b                     7.764(2)
_cell_length_c                     12.395(5)
_cell_angle_alpha                  90.
_cell_angle_beta                   90.
_cell_angle_gamma                  90.
_cell_volume                       747.17
_cell_formula_units_Z              2
_symmetry_space_group_name_H-M     'P 4/n n c Z'
_symmetry_Int_Tables_number        126
_refine_ls_R_factor_all            .018
loop_
_symmetry_equiv_pos_site_id
_symmetry_equiv_pos_as_xyz
  1	'-y, x+.5, -z'
  2	'y+.5, -x, -z'
  3	'y+.5, x+.5, z+.5'
  4	'-y, -x, z+.5'
  5	'y, -x+.5, z'
  6	'-y+.5, x, z'
  7	'-y+.5, -x+.5, -z+.5'
  8	'y, x, -z+.5'
  9	'x+.5, -y, z+.5'
 10	'-x, y+.5, z+.5'
 11	'x+.5, y+.5, -z'
 12	'-x, -y, -z'
 13	'-x+.5, y, -z+.5'
 14	'x, -y+.5, -z+.5'
 15	'-x+.5, -y+.5, z'
 16	'x, y, z'
loop_
_atom_type_symbol
_atom_type_oxidation_number
Al3+	3
Bi2+	2
Se2-	-2
loop_
_atom_site_label
_atom_site_type_symbol
_atom_site_symmetry_multiplicity
_atom_site_Wyckoff_symbol
_atom_site_fract_x
_atom_site_fract_y
_atom_site_fract_z
_atom_site_occupancy
_atom_site_attached_hydrogens
Bi1 Bi2+ 4 e 0.25 0.25 0.12341(5) 1. 0 
Al1 Al3+ 4 d 0.25 0.75 0 1. 0 
Al2 Al3+ 4 c 0.25 0.75 0.75 1. 0 
Se1 Se2- 16 k -.09041(9) 0.07689(9) 0.1247(2) 1. 0 

loop_
_atom_site_aniso_label
_atom_site_aniso_type_symbol
_atom_site_aniso_U_11
_atom_site_aniso_U_22
_atom_site_aniso_U_33
_atom_site_aniso_U_12
_atom_site_aniso_U_13
_atom_site_aniso_U_23
Bi1 Bi2+ 0.0158(2) 0.0158(2) 0.0166(3) 0 0 0
Al1 Al3+ 0.0183(73) 0.0183(73) 0.0090(45) 0 0 0
Al2 Al3+ 0.0073(66) 0.0152(77) 0.0080(43) 0 0 0
Se1 Se2- 0.0121(4) 0.0149(4) 0.0126(5) 0.0022(3) -.0003(7) 0.0000(7)
#End of data_408440-ICSD


