data_345-ICSD
#?2014 by Fachinformationszentrum Karlsruhe, and the U.S. Secretary of 
#Commerce on behalf of the United States.  All rights reserved.
_database_code_ICSD                345
_audit_creation_date               1980/01/01
_audit_update_record               2011/08/01
_chemical_name_systematic
;
Trisodium Cyclo-triphosphate(V) Hexahydrate
;
_chemical_formula_structural       'Na3 (P3 O9) (H2 O)6'
_chemical_formula_sum              'H12 Na3 O15 P3'
_publ_section_title
;
Structure cristalline du trimetaphosphate de sodium hexahydrate Na3 
P3 O9 (H2 O)6
;
loop_
_citation_id
_citation_journal_abbrev
_citation_year
_citation_journal_volume
_citation_page_first
_citation_page_last
_citation_journal_id_ASTM
primary 'Acta Crystallographica B (24,1968-38,1982)' 1976 32 1871 1874 ACBCAR
_publ_author_name                  'Tordjman, I.;Guitel, J.C.'
_cell_length_a                     7.826(4)
_cell_length_b                     9.530(5)
_cell_length_c                     10.828(5)
_cell_angle_alpha                  112.79(3)
_cell_angle_beta                   106.10(3)
_cell_angle_gamma                  88.55(3)
_cell_volume                       712.24
_cell_formula_units_Z              2
_symmetry_space_group_name_H-M     'P -1'
_symmetry_Int_Tables_number        2
_refine_ls_R_factor_all            .04
loop_
_symmetry_equiv_pos_site_id
_symmetry_equiv_pos_as_xyz
  1	'-x, -y, -z'
  2	'x, y, z'
loop_
_atom_type_symbol
_atom_type_oxidation_number
H1+	1
Na1+	1
O2-	-2
P5+	5
loop_
_atom_site_label
_atom_site_type_symbol
_atom_site_symmetry_multiplicity
_atom_site_Wyckoff_symbol
_atom_site_fract_x
_atom_site_fract_y
_atom_site_fract_z
_atom_site_occupancy
_atom_site_attached_hydrogens
_atom_site_B_iso_or_equiv
P1 P5+ 2 i 0.26526(7) 0.11053(6) 0.20855(6) 1. 0 0 
P2 P5+ 2 i 0.29352(7) 0.25181(6) 0.50424(6) 1. 0 0 
P3 P5+ 2 i 0.03502(7) -.00705(6) 0.31952(6) 1. 0 0 
O1 O2- 2 i 0.3076(2) 0.2521(1) 0.3593(1) 1. 0 0 
O2 O2- 2 i 0.1039(2) 0.1538(1) 0.4535(1) 1. 0 0 
O3 O2- 2 i 0.0782(2) 0.0343(1) 0.1996(1) 1. 0 0 
O4 O2- 2 i 0.4055(2) 0.0031(1) 0.2140(1) 1. 0 0 
O5 O2- 2 i 0.2298(2) 0.1767(1) 0.1018(1) 1. 0 0 
O6 O2- 2 i 0.2730(2) 0.4106(1) 0.5945(1) 1. 0 0 
O7 O2- 2 i 0.4378(2) 0.1696(1) 0.5604(1) 1. 0 0 
O8 O2- 2 i 0.1470(2) -.1281(1) 0.3420(1) 1. 0 0 
O9 O2- 2 i -.1604(2) -.0283(1) 0.2888(1) 1. 0 0 
Na1 Na1+ 2 i 0.3772(1) 0.0920(1) 0.9243(1) 1. 0 0 
Na2 Na1+ 2 i 0.3447(1) 0.7461(1) 0.2041(1) 1. 0 0 
Na3 Na1+ 2 i 0.3514(1) 0.9255(1) 0.5684(1) 1. 0 0 
O10 O2- 2 i 0.2451(3) 0.6938(2) 0.5792(3) 1. 0 0 
O11 O2- 2 i 0.3762(2) 0.4912(2) 0.1973(2) 1. 0 0 
O12 O2- 2 i 0.4180(2) 0.3314(2) 0.9160(2) 1. 0 0 
O13 O2- 2 i 0.1082(2) 0.7013(2) 0.9863(2) 1. 0 0 
O14 O2- 2 i 0.3465(2) 0.8287(2) 0.8894(2) 1. 0 0 
O15 O2- 2 i 0.0819(2) 0.4111(2) 0.7773(2) 1. 0 3.21 
H1 H1+ 2 i 0.278(6) 0.596(5) 0.537(4) 1. 0 6. 
H2 H1+ 2 i 0.115(7) 0.693(15) 0.523(5) 1. 0 7.4 
H3 H1+ 2 i 0.320(5) 0.412(4) 0.193(4) 1. 0 5.7 
H4 H1+ 2 i 0.489(6) 0.501(5) 0.268(5) 1. 0 5.9 
H5 H1+ 2 i 0.311(4) 0.347(3) 0.872(3) 1. 0 5.1 
H6 H1+ 2 i 0.439(5) 0.398(4) 0.007(4) 1. 0 5.4 
H7 H1+ 2 i 0.083(5) 0.607(4) 0.919(4) 1. 0 5.4 
H8 H1+ 2 i -.001(7) 0.748(6) 0.974(5) 1. 0 6.1 
H9 H1+ 2 i 0.320(5) 0.782(4) 0.800(4) 1. 0 5.2 
H10 H1+ 2 i 0.274(5) 0.783(4) 0.911(4) 1. 0 4.9 
H11 H1+ 2 i 0.120(5) 0.414(4) 0.704(4) 1. 0 4.9 
H12 H1+ 2 i -.007(5) 0.323(4) 0.718(4) 1. 0 5.5 

#End of data_345-ICSD


