data_33797-ICSD
#?2014 by Fachinformationszentrum Karlsruhe, and the U.S. Secretary of 
#Commerce on behalf of the United States.  All rights reserved.
_database_code_ICSD                33797
_audit_creation_date               1991/07/10
_audit_update_record               2010/08/01
_chemical_name_systematic
;
Dirubidium Tetrapotassium Mue-oxo-bis(dioxocobaltate(II))
;
_chemical_formula_structural       'Rb2 K4 ((Co O2) O (Co O2))'
_chemical_formula_sum              'Co2 K4 O5 Rb2'
_publ_section_title
;
Zur Kenntnis von Unordnungsphaenomenen bei Oxiden mit dem 
"Schmetterlingsmotiv". Ueber Rb2 K4 (O2 Co O Co O2)
;
loop_
_citation_id
_citation_journal_abbrev
_citation_year
_citation_journal_volume
_citation_page_first
_citation_page_last
_citation_journal_id_ASTM
primary 'Zeitschrift fuer Anorganische und Allgemeine Chemie (1950) (DE)'
 1990 591 67 76 ZAACAB
_publ_author_name                  'Birx, J.;Hoppe, R.'
_cell_length_a                     6.742(4)
_cell_length_b                     6.742(4)
_cell_length_c                     11.722(6)
_cell_angle_alpha                  90.
_cell_angle_beta                   90.
_cell_angle_gamma                  90.
_cell_volume                       532.82
_cell_formula_units_Z              2
_symmetry_space_group_name_H-M     'P 42/m n m'
_symmetry_Int_Tables_number        136
_refine_ls_R_factor_all            .0552
loop_
_symmetry_equiv_pos_site_id
_symmetry_equiv_pos_as_xyz
  1	'-y+.5, x+.5, -z+.5'
  2	'y+.5, -x+.5, -z+.5'
  3	'y, x, -z'
  4	'-y, -x, -z'
  5	'y+.5, -x+.5, z+.5'
  6	'-y+.5, x+.5, z+.5'
  7	'-y, -x, z'
  8	'y, x, z'
  9	'x+.5, -y+.5, -z+.5'
 10	'-x+.5, y+.5, -z+.5'
 11	'x, y, -z'
 12	'-x, -y, -z'
 13	'-x+.5, y+.5, z+.5'
 14	'x+.5, -y+.5, z+.5'
 15	'-x, -y, z'
 16	'x, y, z'
loop_
_atom_type_symbol
_atom_type_oxidation_number
Co2+	2
K1+	1
O2-	-2
Rb1+	1
loop_
_atom_site_label
_atom_site_type_symbol
_atom_site_symmetry_multiplicity
_atom_site_Wyckoff_symbol
_atom_site_fract_x
_atom_site_fract_y
_atom_site_fract_z
_atom_site_occupancy
_atom_site_attached_hydrogens
Co1 Co2+ 4 g 0.2028(2) 0.7972(2) 0 1. 0 
Rb1 Rb1+ 4 f 0.3149(2) 0.3149(2) 0 1. 0 
K1 K1+ 4 d 0 0.5 0.25 1. 0 
K2 K1+ 4 e 0 0 0.7775(3) 1. 0 
O1 O2- 8 j 0.2186(8) 0.2186(8) 0.6410(7) 1. 0 
O2 O2- 2 a 0 0 0 1. 0 

loop_
_atom_site_aniso_label
_atom_site_aniso_type_symbol
_atom_site_aniso_U_11
_atom_site_aniso_U_22
_atom_site_aniso_U_33
_atom_site_aniso_U_12
_atom_site_aniso_U_13
_atom_site_aniso_U_23
Co1 Co2+ 0.0136(8) 0.0136(8) 0.0125(11) 0.0028(11) 0 0
Rb1 Rb1+ 0.0270(8) 0.0270(8) 0.0442(13) -.0017(11) 0 0
K1 K1+ 0.0177(9) 0.0177(9) 0.0266(17) 0 0 0
K2 K1+ 0.0183(10) 0.0183(10) 0.0100(15) -.0025(16) 0 0
O1 O2- 0.0278(30) 0.0278(30) 0.0216(39) -.0071(42) 0.0090(26) 0.0090(26)
O2 O2- 0.0485(79) 0.0485(79) 0.0073(72) 0.030(12) 0 0
#End of data_33797-ICSD


