data_413147-ICSD
#?2014 by Fachinformationszentrum Karlsruhe, and the U.S. Secretary of 
#Commerce on behalf of the United States.  All rights reserved.
_database_code_ICSD                413147
_audit_creation_date               2005/10/01
_chemical_name_systematic          'Sodium Antimony Molybdenum Oxide'
_chemical_formula_structural       'Na Sb Mo O5'
_chemical_formula_sum              'Mo1 Na1 O5 Sb1'
_publ_section_title
;
Synthesis, structure and spectral properties of a novel 
molybdoantimonate Na Sb Mo O5
;
loop_
_citation_id
_citation_journal_abbrev
_citation_year
_citation_journal_volume
_citation_page_first
_citation_page_last
_citation_journal_id_ASTM
primary 'Inorganic Chemistry Communications' 2004 7 21 23 ICCOFP
_publ_author_name
;
Wang, Y.;Zhang, H.;Huang, C.;Sun, Q.;Yu, X.
;
_cell_length_a                     8.5743(15)
_cell_length_b                     10.9256(11)
_cell_length_c                     5.5985(6)
_cell_angle_alpha                  90.00
_cell_angle_beta                   102.984(6)
_cell_angle_gamma                  90.00
_cell_volume                       511.05
_cell_formula_units_Z              4
_symmetry_space_group_name_H-M     'P 1 21/c 1'
_symmetry_Int_Tables_number        14
_refine_ls_R_factor_all            .031
loop_
_symmetry_equiv_pos_site_id
_symmetry_equiv_pos_as_xyz
  1	'x, -y+.5, z+.5'
  2	'-x, -y, -z'
  3	'-x, y+.5, -z+.5'
  4	'x, y, z'
loop_
_atom_type_symbol
_atom_type_oxidation_number
Mo6+	6
Na1+	1
O2-	-2
Sb3+	3
loop_
_atom_site_label
_atom_site_type_symbol
_atom_site_symmetry_multiplicity
_atom_site_Wyckoff_symbol
_atom_site_fract_x
_atom_site_fract_y
_atom_site_fract_z
_atom_site_occupancy
_atom_site_attached_hydrogens
_atom_site_U_iso_or_equiv
Sb1 Sb3+ 4 e 0.04885(3) 0.16083(2) 0.17699(4) 1 0 0.01214(18) 
Mo1 Mo6+ 4 e 0.29836(4) -0.09232(3) 0.44180(6) 1 0 0.01160(18) 
Na1 Na1+ 4 e 0.4110(2) 0.14117(17) -0.0353(3) 1 0 0.0196(4) 
O1 O2- 4 e 0.1625(4) 0.2396(3) -0.0487(5) 1 0 0.0150(6) 
O2 O2- 4 e 0.2545(4) 0.0430(3) 0.2503(6) 1 0 0.0181(6) 
O3 O2- 4 e 0.4362(4) -0.1816(3) 0.3405(6) 1 0 0.0200(7) 
O4 O2- 4 e 0.1141(4) -0.1724(3) 0.4185(7) 1 0 0.0232(8) 
O5 O2- 4 e 0.3709(4) -0.0475(3) 0.7415(6) 1 0 0.0223(7) 

loop_
_atom_site_aniso_label
_atom_site_aniso_type_symbol
_atom_site_aniso_U_11
_atom_site_aniso_U_22
_atom_site_aniso_U_33
_atom_site_aniso_U_12
_atom_site_aniso_U_13
_atom_site_aniso_U_23
Sb1 Sb3+ 0.0075(2) 0.0154(2) 0.0131(2) -0.00231(9) 0.00145(14) -0.00103(9)
Mo1 Mo6+ 0.0057(3) 0.0131(3) 0.0155(2) -0.00084(12) 0.00125(16) 
-0.00007(11)
Na1 Na1+ 0.0136(10) 0.0217(9) 0.0244(9) 0.0004(7) 0.0059(8) -0.0007(7)
O1 O2- 0.0088(14) 0.0224(14) 0.0145(13) 0.0060(12) 0.0044(11) 0.0061(12)
O2 O2- 0.0100(15) 0.0207(15) 0.0243(14) 0.0037(12) 0.0055(12) 0.0052(12)
O3 O2- 0.0130(17) 0.0203(15) 0.0292(18) 0.0036(12) 0.0096(14) 0.0037(13)
O4 O2- 0.0120(18) 0.0300(19) 0.0283(17) -0.0072(13) 0.0060(14) -0.0015(13)
O5 O2- 0.0244(19) 0.0199(15) 0.0195(14) -0.0014(13) -0.0013(13) -0.0018(12)
#End of data_413147-ICSD


