data_62168-ICSD
#?2014 by Fachinformationszentrum Karlsruhe, and the U.S. Secretary of 
#Commerce on behalf of the United States.  All rights reserved.
_database_code_ICSD                62168
_audit_creation_date               1988/02/22
_audit_update_record               2007/04/01
_chemical_name_systematic          'Calcium Manganese Oxide (2/1/3.5)'
_chemical_formula_structural       'Ca2 Mn O3.5'
_chemical_formula_sum              'Ca2 Mn1 O3.5'
_publ_section_title
;
Structure determination of Ca2 Mn O4 and Ca2 Mn O3.5 by X-ray and 
neutron methods
;
loop_
_citation_id
_citation_journal_abbrev
_citation_year
_citation_journal_volume
_citation_page_first
_citation_page_last
_citation_journal_id_ASTM
primary 'Journal of Solid State Chemistry' 1985 59 71 80 JSSCBI
2 'Journal of Solid State Chemistry' 1982 44 89 98 JSSCBI
_publ_author_name
;
Leonowicz, M.E.;Poeppelmeier, K.R.;Longo, J.M.
;
_cell_length_a                     5.3029(3)
_cell_length_b                     10.0540(5)
_cell_length_c                     12.2300(6)
_cell_angle_alpha                  90.
_cell_angle_beta                   90.
_cell_angle_gamma                  90.
_cell_volume                       652.05
_cell_formula_units_Z              8
_symmetry_space_group_name_H-M     'B b c m'
_symmetry_Int_Tables_number        64
_refine_ls_R_factor_all            .107
loop_
_symmetry_equiv_pos_site_id
_symmetry_equiv_pos_as_xyz
  1	'-x+.5, y+.5, -z'
  2	'x+.5, -y+.5, -z'
  3	'x, y, -z'
  4	'-x, -y, -z'
  5	'x+.5, -y+.5, z'
  6	'-x+.5, y+.5, z'
  7	'-x, -y, z'
  8	'x, y, z'
  9	'-x, y+.5, -z+.5'
 10	'x, -y+.5, -z+.5'
 11	'x+.5, y, -z+.5'
 12	'-x+.5, -y, -z+.5'
 13	'x, -y+.5, z+.5'
 14	'-x, y+.5, z+.5'
 15	'-x+.5, -y, z+.5'
 16	'x+.5, y, z+.5'
loop_
_atom_type_symbol
_atom_type_oxidation_number
Ca2+	2
Mn3+	3
O2-	-2
loop_
_atom_site_label
_atom_site_type_symbol
_atom_site_symmetry_multiplicity
_atom_site_Wyckoff_symbol
_atom_site_fract_x
_atom_site_fract_y
_atom_site_fract_z
_atom_site_occupancy
_atom_site_attached_hydrogens
_atom_site_B_iso_or_equiv
Ca1 Ca2+ 16 g 0.7862(5) 0.1244(7) 0.1521(2) 1. 0 1.76(7) 
Mn1 Mn3+ 8 f 0.2672(7) 0.1241(7) 0 1. 0 1.81(9) 
O1 O2- 16 g 0.2759(15) 0.1193(17) 0.1645(6) 1. 0 1.85(15) 
O2 O2- 8 f 0.0637(26) 0.2960(13) 0 1. 0 1.42(31) 
O3 O2- 4 a 0 0 0 1. 0 1.92(57) 

#End of data_62168-ICSD


