data_1564-ICSD
#?2014 by Fachinformationszentrum Karlsruhe, and the U.S. Secretary of 
#Commerce on behalf of the United States.  All rights reserved.
_database_code_ICSD                1564
_audit_creation_date               1980/01/01
_audit_update_record               2010/02/01
_chemical_name_systematic          'Tetrapotassium Plumbate(II)'
_chemical_formula_structural       'K4 Pb O3'
_chemical_formula_sum              'K4 O3 Pb1'
_publ_section_title
;
Das erste Oxoplumbat(II) mit Inselstruktur: K4 Pb O3
;
loop_
_citation_id
_citation_journal_abbrev
_citation_year
_citation_journal_volume
_citation_page_first
_citation_page_last
_citation_journal_id_ASTM
primary 'Zeitschrift fuer Anorganische und Allgemeine Chemie (1950) (DE)'
 1978 438 105 114 ZAACAB
_publ_author_name                  'Martens, K.P.;Hoppe, R.'
_cell_length_a                     6.543
_cell_length_b                     11.405
_cell_length_c                     18.709
_cell_angle_alpha                  90.
_cell_angle_beta                   90.
_cell_angle_gamma                  90.
_cell_volume                       1396.12
_cell_formula_units_Z              8
_symmetry_space_group_name_H-M     'P b c a'
_symmetry_Int_Tables_number        61
_refine_ls_R_factor_all            .096
loop_
_symmetry_equiv_pos_site_id
_symmetry_equiv_pos_as_xyz
  1	'x+.5, y, -z+.5'
  2	'x, -y+.5, z+.5'
  3	'-x+.5, y+.5, z'
  4	'-x, -y, -z'
  5	'-x+.5, -y, z+.5'
  6	'-x, y+.5, -z+.5'
  7	'x+.5, -y+.5, -z'
  8	'x, y, z'
loop_
_atom_type_symbol
_atom_type_oxidation_number
K1+	1
O2-	-2
Pb2+	2
loop_
_atom_site_label
_atom_site_type_symbol
_atom_site_symmetry_multiplicity
_atom_site_Wyckoff_symbol
_atom_site_fract_x
_atom_site_fract_y
_atom_site_fract_z
_atom_site_occupancy
_atom_site_attached_hydrogens
_atom_site_B_iso_or_equiv
Pb1 Pb2+ 8 c 0.112(2) 0.067(4) 0.155(8) 1. 0 0 
K1 K1+ 8 c 0.125 0.170(1) 0.347(4) 1. 0 0 
K2 K1+ 8 c 0.250(7) 0.056(8) 0.963(2) 1. 0 0 
K3 K1+ 8 c 0.278(6) 0.187(8) 0.556 1. 0 0 
K4 K1+ 8 c 0.456(7) 0.376(4) 0.299(9) 1. 0 0 
O1 O2- 8 c 0.384(9) 0.485(3) 0.601(7) 1. 0 1.12 
O2 O2- 8 c 0.042(9) 0.397(8) 0.344(7) 1. 0 1.79 
O3 O2- 8 c 0.452 0.340(2) 0.930(7) 1. 0 1.1 

loop_
_atom_site_aniso_label
_atom_site_aniso_type_symbol
_atom_site_aniso_U_11
_atom_site_aniso_U_22
_atom_site_aniso_U_33
_atom_site_aniso_U_12
_atom_site_aniso_U_13
_atom_site_aniso_U_23
Pb1 Pb2+ 0.007(3) 0.07(6) 0.015(4) 0.001(8) 0.000(9) 0.014(7)
K1 K1+ 0.014(5) 0.012 0.040(3) 0 0 0.001(1)
K2 K1+ 0.018(9) 0.024 0.027(5) 0.012(7) 0.000(6) 0.004(5)
K3 K1+ 0.012(6) 0.030(1) 0.031(3) 0.012(7) 0.011(4) 0.016(3)
K4 K1+ 0.016(3) 0.026(3) 0.022 0.000(4) 0.000(6) 0.001(8)
#End of data_1564-ICSD


