data_50583-ICSD
#?2014 by Fachinformationszentrum Karlsruhe, and the U.S. Secretary of 
#Commerce on behalf of the United States.  All rights reserved.
_database_code_ICSD                50583
_audit_creation_date               2000/07/15
_chemical_name_systematic
;
Potassium Hexaaquacobalt Sulfate(VI)
;
_chemical_formula_structural       'K2 (Co (H2 O)6) (S O4)2'
_chemical_formula_sum              'H12 Co1 K2 O14 S2'
_publ_section_title
;
The crystal structure of Tutton's salt type K2 (Co (H2 O)6) (S O4)2. 
A combined x-ray and neutron study
;
loop_
_citation_id
_citation_journal_abbrev
_citation_year
_citation_journal_volume
_citation_page_first
_citation_page_last
_citation_journal_id_ASTM
primary 'Zeitschrift fuer Kristallographie (1979-2010)' 1998 213 456 460 ZEKRDZ
_publ_author_name
;
Kirfel, A.;Klapper, H.;Schaefer, W.;Schwabenlaender, F.
;
_cell_length_a                     9.057(1)
_cell_length_b                     12.211(2)
_cell_length_c                     6.155(1)
_cell_angle_alpha                  90.
_cell_angle_beta                   104.82(1)
_cell_angle_gamma                  90.
_cell_volume                       658.07
_cell_formula_units_Z              2
_symmetry_space_group_name_H-M     'P 1 21/a 1'
_symmetry_Int_Tables_number        14
_refine_ls_R_factor_all            .0188
loop_
_symmetry_equiv_pos_site_id
_symmetry_equiv_pos_as_xyz
  1	'x+.5, -y+.5, z'
  2	'-x, -y, -z'
  3	'-x+.5, y+.5, -z'
  4	'x, y, z'
loop_
_atom_type_symbol
_atom_type_oxidation_number
Co2+	2
H1+	1
K1+	1
O2-	-2
S6+	6
loop_
_atom_site_label
_atom_site_type_symbol
_atom_site_symmetry_multiplicity
_atom_site_Wyckoff_symbol
_atom_site_fract_x
_atom_site_fract_y
_atom_site_fract_z
_atom_site_occupancy
_atom_site_attached_hydrogens
_atom_site_U_iso_or_equiv
Co1 Co2+ 2 a 0 0 0 1. 0 0 
S1 S6+ 4 e 0.41149(5) 0.13505(4) 0.72552(8) 1. 0 0 
O1 O2- 4 e 0.40741(19) 0.22978(12) 0.5756(2) 1. 0 0 
O2 O2- 4 e 0.55565(17) 0.07614(15) 0.7524(3) 1. 0 0 
O3 O2- 4 e 0.28487(15) 0.06094(11) 0.6190(2) 1. 0 0 
O4 O2- 4 e 0.39428(17) 0.17277(12) 0.9465(2) 1. 0 0 
O5 O2- 4 e 0.17022(15) 0.11223(12) 0.1668(2) 1. 0 0 
O6 O2- 4 e -.17027(15) 0.11494(11) 0.0339(2) 1. 0 0 
O7 O2- 4 e -.00412(16) -.06908(11) 0.2999(2) 1. 0 0 
K1 K1+ 4 e 0.13278(5) 0.34541(4) 0.34167(8) 1. 0 0 
H1 H1+ 4 e 0.2202(17) 0.0916(3) 0.316(3) 1. 0 0.0060(5) 
H2 H1+ 4 e 0.2545(15) 0.1218(13) 0.089(3) 1. 0 0.0055(10) 
H3 H1+ 4 e -.2690(17) 0.1017(14) -.073(3) 1. 0 0.0053(9) 
H4 H1+ 4 e -.1454(18) 0.1936(13) 0.001(3) 1. 0 0.0058(9) 
H5 H1+ 4 e -.1029(18) -.0594(11) 0.333(2) 1. 0 0.0074(11) 
H6 H1+ 4 e 0.0250(18) -.1444(12) 0.337(2) 1. 0 0.0056(9) 

loop_
_atom_site_aniso_label
_atom_site_aniso_type_symbol
_atom_site_aniso_U_11
_atom_site_aniso_U_22
_atom_site_aniso_U_33
_atom_site_aniso_U_12
_atom_site_aniso_U_13
_atom_site_aniso_U_23
Co1 Co2+ 0.0137(2) 0.0154(2) 0.0150(2) -.0011(1) 0.0039(1) 0.0030(1)
S1 S6+ 0.0154(2) 0.0183(3) 0.0172(2) -.0023(2) 0.0045(2) -.0020(2)
O1 O2- 0.0495(10) 0.0257(8) 0.0241(8) -.0123(7) 0.0087(7) 0.0012(6)
O2 O2- 0.0183(8) 0.0534(11) 0.0423(10) 0.0084(7) 0.0016(7) -.0113(8)
O3 O2- 0.0204(7) 0.0254(7) 0.0265(8) -.0070(6) 0.0070(6) -.0055(6)
O4 O2- 0.0364(8) 0.0256(8) 0.0196(7) -.0034(6) 0.0106(6) -.0045(6)
O5 O2- 0.0211(7) 0.0266(8) 0.0203(7) -.0065(6) 0.0029(6) -.0012(6)
O6 O2- 0.0191(7) 0.0212(7) 0.0262(7) 0.0021(6) 0.0070(6) 0.0006(6)
O7 O2- 0.0269(7) 0.0223(7) 0.0219(7) 0.0021(6) 0.0109(6) 0.0030(6)
K1 K1+ 0.0315(3) 0.0297(3) 0.0282(3) -.0021(2) 0.0119(2) -.0003(2)
#End of data_50583-ICSD


