data_191226-ICSD
#?2014 by Fachinformationszentrum Karlsruhe, and the U.S. Secretary of 
#Commerce on behalf of the United States.  All rights reserved.
_database_code_ICSD                191226
_audit_creation_date               2014/08/01
_chemical_name_systematic          'Tripotassium Lutetium Diphosphate'
_chemical_formula_structural       'K3 Lu (P O4)2'
_chemical_formula_sum              'K3 Lu1 O8 P2'
_publ_section_title
;
Polymorphism, phase transitions, and thermal expansion of K3 Lu (P 
O4)2
;
loop_
_citation_id
_citation_journal_abbrev
_citation_year
_citation_journal_volume
_citation_page_first
_citation_page_last
_citation_journal_id_ASTM
primary 'Journal of Alloys and Compounds' 2014 588 182 189 JALCEU
_publ_author_name
;
Farmer, J.Matt;Boatner, Lynn A.;Chakoumakos, Bryan C.;Rawn, Claudia 
J.;Mandrus, David;Jin, Rongying;Bryan, Jeff C.
;
_cell_length_a                     7.3350(9)
_cell_length_b                     5.5718(9)
_cell_length_c                     9.2469(18)
_cell_angle_alpha                  90.
_cell_angle_beta                   90.83
_cell_angle_gamma                  90.
_cell_volume                       377.87
_cell_formula_units_Z              2
_symmetry_space_group_name_H-M     'P 1 21/m 1'
_symmetry_Int_Tables_number        11
_refine_ls_R_factor_all            .0557
loop_
_symmetry_equiv_pos_site_id
_symmetry_equiv_pos_as_xyz
  1	'x, -y+.5, z'
  2	'-x, -y, -z'
  3	'-x, y+.5, -z'
  4	'x, y, z'
loop_
_atom_type_symbol
_atom_type_oxidation_number
K1+	1
Lu3+	3
O2-	-2
P5+	5
loop_
_atom_site_label
_atom_site_type_symbol
_atom_site_symmetry_multiplicity
_atom_site_Wyckoff_symbol
_atom_site_fract_x
_atom_site_fract_y
_atom_site_fract_z
_atom_site_occupancy
_atom_site_attached_hydrogens
_atom_site_U_iso_or_equiv
Lu1 Lu3+ 2 e 0.0088(1) 0.250 0.2865(1) 1. 0 0.006(1) 
P1 P5+ 2 e -0.1843(7) 0.250 0.5733(5) 1. 0 0.008(1) 
P2 P5+ 2 e -0.2259(7) 0.750 0.0917(5) 1. 0 0.006(1) 
O1 O2- 2 e 0.0176(18) 0.250 0.5332(13) 1. 0 0.006(3) 
O2 O2- 2 e -0.2907(18) 0.250 0.4268(14) 1. 0 0.009(3) 
O3 O2- 4 f -0.2330(12) 0.0250(17) 0.6633(9) 1. 0 0.009(2) 
O4 O2- 4 f -0.1514(13) -0.0256(16) 0.1677(9) 1. 0 0.009(2) 
O5 O2- 2 e -0.1694(19) 0.750 -0.0656(14) 1. 0 0.011(3) 
O6 O2- 2 e -0.4328(17) 0.750 0.1042(12) 1. 0 0.004(3) 
K1 K1+ 2 e -0.2053(6) 0.250 -0.0797(4) 1. 0 0.009(1) 
K2 K1+ 2 e 0.3644(6) 0.250 0.5866(4) 1. 0 0.010(1) 
K3 K1+ 2 e -0.4963(6) 0.250 0.1919(4) 1. 0 0.009(1) 

#End of data_191226-ICSD


