data_161499-ICSD
#?2014 by Fachinformationszentrum Karlsruhe, and the U.S. Secretary of 
#Commerce on behalf of the United States.  All rights reserved.
_database_code_ICSD                161499
_audit_creation_date               2009/02/01
_chemical_name_systematic          'Lithium Scandium Diarsenate(V)'
_chemical_formula_structural       'Li Sc (As2 O7)'
_chemical_formula_sum              'As2 Li1 O7 Sc1'
_publ_section_title
;
Gittinsite-type M(1+)-M(3+)-diarsenates (M(1+)= Li, Na; M(3+)= Al, 
Sc, Ga): insights into an unexpected isotypy and crystal chemistry of 
diarsenates
;
loop_
_citation_id
_citation_journal_abbrev
_citation_year
_citation_journal_volume
_citation_journal_issue
_citation_page_first
_citation_page_last
_citation_journal_id_ASTM
primary 'Mineralogical Magazine (1969-)' 2007 71 3 249 263 MNLMBB
_publ_author_name                  'Schwendtner, K.;Kolitsch, U.'
_cell_length_a                     6.790(1)
_cell_length_b                     8.532(2)
_cell_length_c                     4.845(1)
_cell_angle_alpha                  90.
_cell_angle_beta                   103.75(3)
_cell_angle_gamma                  90.
_cell_volume                       272.64
_cell_formula_units_Z              2
_symmetry_space_group_name_H-M     'C 1 2 1'
_symmetry_Int_Tables_number        5
_refine_ls_R_factor_all            .0157
loop_
_symmetry_equiv_pos_site_id
_symmetry_equiv_pos_as_xyz
  1	'-x, y, -z'
  2	'x, y, z'
  3	'-x+.5, y+.5, -z'
  4	'x+.5, y+.5, z'
loop_
_atom_type_symbol
_atom_type_oxidation_number
As5+	5
Li1+	1
O2-	-2
Sc3+	3
loop_
_atom_site_label
_atom_site_type_symbol
_atom_site_symmetry_multiplicity
_atom_site_Wyckoff_symbol
_atom_site_fract_x
_atom_site_fract_y
_atom_site_fract_z
_atom_site_occupancy
_atom_site_attached_hydrogens
_atom_site_U_iso_or_equiv
Li1 Li1+ 2 b 0 0.7515(18) 0.5 1. 0 0.047(4) 
Sc1 Sc3+ 2 b 0 0.37091(11) 0.5 1. 0 0.00564(19) 
As1 As5+ 4 c 0.21561(4) 0.03687(3) 0.90935(5) 1. 0 0.00642(9) 
O1 O2- 2 a 0 0.9671(4) 0 1. 0 0.0189(7) 
O2 O2- 4 c 0.3865(3) 0.0532(3) 0.2191(4) 1. 0 0.0090(5) 
O3 O2- 4 c 0.1750(5) 0.2089(3) 0.7499(5) 1. 0 0.0178(6) 
O4 O2- 4 c 0.2479(4) 0.8941(3) 0.6887(5) 1. 0 0.0101(4) 

loop_
_atom_site_aniso_label
_atom_site_aniso_type_symbol
_atom_site_aniso_U_11
_atom_site_aniso_U_22
_atom_site_aniso_U_33
_atom_site_aniso_U_12
_atom_site_aniso_U_13
_atom_site_aniso_U_23
Li1 Li1+ 0.033(7) 0.048(9) 0.046(8) 0. -0.019(6) 0.
Sc1 Sc3+ 0.0064(4) 0.0060(4) 0.0043(4) 0. 0.0008(3) 0.
As1 As5+ 0.00633(13) 0.00682(13) 0.00574(13) 0.00083(17) 0.00070(8) 
0.00068(14)
O1 O2- 0.0112(16) 0.0176(16) 0.031(2) 0. 0.0112(14) 0.
O2 O2- 0.0098(8) 0.0075(13) 0.0070(8) 0.0026(10) -0.0036(6) 0.0004(9)
O3 O2- 0.0266(16) 0.0077(11) 0.0142(11) 0.0051(11) -0.0047(10) 0.0037(10)
O4 O2- 0.0127(11) 0.0092(10) 0.0098(10) -0.0019(9) 0.0054(8) -0.0030(8)
#End of data_161499-ICSD


