data_16607-ICSD
#?2014 by Fachinformationszentrum Karlsruhe, and the U.S. Secretary of 
#Commerce on behalf of the United States.  All rights reserved.
_database_code_ICSD                16607
_audit_creation_date               1980/01/01
_audit_update_record               2012/02/01
_chemical_name_systematic
;
Hexasodium Magnesium Tetrakis(sulfate(VI))
;
_chemical_formula_structural       'Na6 Mg (S O4)4'
_chemical_formula_sum              'Mg1 Na6 O16 S4'
_chemical_name_mineral             Vanthoffite
_publ_section_title                'Ueber die Struktur des Vanthoffits'
loop_
_citation_id
_citation_journal_abbrev
_citation_year
_citation_journal_volume
_citation_page_first
_citation_page_last
_citation_journal_id_ASTM
primary 'Acta Crystallographica (1,1948-23,1967)' 1964 17 1613 1613 ACCRA9
_publ_author_name                  'Fischer, W.;Hellner, E.'
_cell_length_a                     9.797(3)
_cell_length_b                     9.217(3)
_cell_length_c                     8.199(3)
_cell_angle_alpha                  90.
_cell_angle_beta                   113.5(1)
_cell_angle_gamma                  90.
_cell_volume                       678.96
_cell_formula_units_Z              2
_symmetry_space_group_name_H-M     'P 1 21/c 1'
_symmetry_Int_Tables_number        14
_refine_ls_R_factor_all            .064
loop_
_symmetry_equiv_pos_site_id
_symmetry_equiv_pos_as_xyz
  1	'x, -y+.5, z+.5'
  2	'-x, -y, -z'
  3	'-x, y+.5, -z+.5'
  4	'x, y, z'
loop_
_atom_type_symbol
_atom_type_oxidation_number
Mg2+	2
Na1+	1
O2-	-2
S6+	6
loop_
_atom_site_label
_atom_site_type_symbol
_atom_site_symmetry_multiplicity
_atom_site_Wyckoff_symbol
_atom_site_fract_x
_atom_site_fract_y
_atom_site_fract_z
_atom_site_occupancy
_atom_site_attached_hydrogens
_atom_site_B_iso_or_equiv
Mg1 Mg2+ 2 a 0 0 0 1. 0 0.86(8) 
Na1 Na1+ 4 e 0.3108(5) 0.0155(5) 0.4676(6) 1. 0 1.19(8) 
Na2 Na1+ 4 e 0.4453(5) 0.1516(5) 0.0910(6) 1. 0 2.02(8) 
Na3 Na1+ 4 e 0.8891(5) 0.1382(5) 0.3164(6) 1. 0 1.57(8) 
S1 S6+ 4 e 0.1400(2) 0.3053(3) 0.2246(3) 1. 0 0.50(6) 
O1 O2- 4 e 0.0309(7) 0.1845(8) 0.1546(9) 1. 0 1.21(12) 
O2 O2- 4 e 0.1366(7) 0.3972(8) 0.0762(9) 1. 0 1.23(12) 
O3 O2- 4 e 0.0956(7) 0.3938(8) 0.3433(9) 1. 0 1.38(12) 
O4 O2- 4 e 0.2887(7) 0.2461(8) 0.3201(9) 1. 0 1.63(12) 
S2 S6+ 4 e 0.6615(2) 0.3529(3) 0.3471(3) 1. 0 0.58(6) 
O5 O2- 4 e 0.6692(7) 0.1926(8) 0.3601(9) 1. 0 1.49(12) 
O6 O2- 4 e 0.6479(7) 0.4150(8) 0.5026(9) 1. 0 1.51(12) 
O7 O2- 4 e 0.8011(7) 0.4063(8) 0.3338(9) 1. 0 1.24(12) 
O8 O2- 4 e 0.5376(7) 0.3971(8) 0.1830(9) 1. 0 1.40(12) 

#End of data_16607-ICSD


