data_85671-ICSD
#?2014 by Fachinformationszentrum Karlsruhe, and the U.S. Secretary of 
#Commerce on behalf of the United States.  All rights reserved.
_database_code_ICSD                85671
_audit_creation_date               1999/11/30
_audit_update_record               2003/04/01
_chemical_name_systematic          'Sodium Iron Phosphate(V)'
_chemical_formula_structural       'Na Fe (P O4)'
_chemical_formula_sum              'Fe1 Na1 O4 P1'
_chemical_name_mineral             Maricite
_publ_section_title
;
Synthesis and crystal structure of maricite and sodium iron(III) 
hydroxyphosphate
;
loop_
_citation_id
_citation_journal_abbrev
_citation_year
_citation_journal_volume
_citation_page_first
_citation_page_last
_citation_journal_id_ASTM
primary 'Chemistry of Materials' 1998 10 763 768 CMATEX
_publ_author_name
;
Bridson, J.N.;Quinlan, S.E.;Tremaine, P.R.
;
_cell_length_a                     8.99
_cell_length_b                     6.862
_cell_length_c                     5.047
_cell_angle_alpha                  90.
_cell_angle_beta                   90.
_cell_angle_gamma                  90.
_cell_volume                       311.35
_cell_formula_units_Z              4
_symmetry_space_group_name_H-M     'P n m a'
_symmetry_Int_Tables_number        62
_refine_ls_R_factor_all            .026
loop_
_symmetry_equiv_pos_site_id
_symmetry_equiv_pos_as_xyz
  1	'x+.5, y, -z+.5'
  2	'x, -y+.5, z'
  3	'-x+.5, y+.5, z+.5'
  4	'-x, -y, -z'
  5	'-x+.5, -y, z+.5'
  6	'-x, y+.5, -z'
  7	'x+.5, -y+.5, -z+.5'
  8	'x, y, z'
loop_
_atom_type_symbol
_atom_type_oxidation_number
Fe2+	2
Na1+	1
O2-	-2
P5+	5
loop_
_atom_site_label
_atom_site_type_symbol
_atom_site_symmetry_multiplicity
_atom_site_Wyckoff_symbol
_atom_site_fract_x
_atom_site_fract_y
_atom_site_fract_z
_atom_site_occupancy
_atom_site_attached_hydrogens
Fe1 Fe2+ 4 a 0.5 0.5 0.5 1. 0 
P1 P5+ 4 c 0.3242(1) 0.25 0.0357(2) 1. 0 
Na1 Na1+ 4 c 0.6504(2) 0.25 -.0296(4) 1. 0 
O1 O2- 8 d 0.3786(3) 0.4317(3) 0.1819(5) 1. 0 
O2 O2- 4 c 0.3838(4) 0.25 0.75 1. 0 
O3 O2- 4 c 0.1516(4) 0.25 0.05 1. 0 

#End of data_85671-ICSD


