data_69343-ICSD
#?2014 by Fachinformationszentrum Karlsruhe, and the U.S. Secretary of 
#Commerce on behalf of the United States.  All rights reserved.
_database_code_ICSD                69343
_audit_creation_date               1992/08/20
_chemical_name_systematic          'Disodium Magnesium Chloride'
_chemical_formula_structural       'Na2 Mg Cl4'
_chemical_formula_sum              'Cl4 Mg1 Na2'
_publ_section_title
;
Crystal structure of double chlorides, Na2MCl4(M=Mg,Cr,Cd): 
correlation with ionic conductivity
;
loop_
_citation_id
_citation_journal_abbrev
_citation_year
_citation_journal_volume
_citation_page_first
_citation_page_last
_citation_journal_id_ASTM
primary 'Solid State Ionics' 1990 39 233 244 SSIOD3
_publ_author_name
;
Kanno, R.;Takeda, Y.;Murata, K.;Yamamoto, O.
;
_cell_length_a                     6.9067(3)
_cell_length_b                     11.8854(7)
_cell_length_c                     3.8142(2)
_cell_angle_alpha                  90.
_cell_angle_beta                   90.
_cell_angle_gamma                  90.
_cell_volume                       313.1
_cell_formula_units_Z              2
_symmetry_space_group_name_H-M     'P b a m'
_symmetry_Int_Tables_number        55
_refine_ls_R_factor_all            .042
loop_
_symmetry_equiv_pos_site_id
_symmetry_equiv_pos_as_xyz
  1	'x+.5, -y+.5, z'
  2	'-x+.5, y+.5, z'
  3	'x, y, -z'
  4	'-x, -y, -z'
  5	'-x+.5, y+.5, -z'
  6	'x+.5, -y+.5, -z'
  7	'-x, -y, z'
  8	'x, y, z'
loop_
_atom_type_symbol
_atom_type_oxidation_number
Cl1-	-1
Mg2+	2
Na1+	1
loop_
_atom_site_label
_atom_site_type_symbol
_atom_site_symmetry_multiplicity
_atom_site_Wyckoff_symbol
_atom_site_fract_x
_atom_site_fract_y
_atom_site_fract_z
_atom_site_occupancy
_atom_site_attached_hydrogens
_atom_site_B_iso_or_equiv
Mg1 Mg2+ 2 a 0 0 0 1. 0 1.0(4) 
Na1 Na1+ 4 h 0.4160(19) 0.1842(14) 0.5 1. 0 1.8(3) 
Cl1 Cl1- 4 g 0.1185(11) 0.2038(11) 0 1. 0 1.7(2) 
Cl2 Cl1- 4 h 0.2457(11) -.047(1) 0.5 1. 0 0.9(2) 

#End of data_69343-ICSD


