data_51083-ICSD
#?2014 by Fachinformationszentrum Karlsruhe, and the U.S. Secretary of 
#Commerce on behalf of the United States.  All rights reserved.
_database_code_ICSD                51083
_audit_creation_date               2001/07/16
_chemical_name_systematic          'Silver Tecto-beryllophosphate(V)'
_chemical_formula_structural       'Ag (Be P O4)'
_chemical_formula_sum              'Ag1 Be1 O4 P1'
_publ_section_title
;
Crystal structures and crystal chemistry of Ag X P O4 (X= Be, Zn)
;
loop_
_citation_id
_citation_journal_abbrev
_citation_year
_citation_journal_volume
_citation_page_first
_citation_page_last
_citation_journal_id_ASTM
primary 'Journal of Solid State Chemistry' 1998 141 177 185 JSSCBI
_publ_author_name
;
Hammond, R.P.;Barbier, J.;Gallardo, C.
;
_cell_length_a                     8.213(3)
_cell_length_b                     7.884(3)
_cell_length_c                     14.424(7)
_cell_angle_alpha                  90.
_cell_angle_beta                   90.20(3)
_cell_angle_gamma                  90.
_cell_volume                       933.97
_cell_formula_units_Z              12
_symmetry_space_group_name_H-M     'P 1 21/n 1'
_symmetry_Int_Tables_number        14
_refine_ls_R_factor_all            .044
loop_
_symmetry_equiv_pos_site_id
_symmetry_equiv_pos_as_xyz
  1	'-x+.5, y+.5, -z+.5'
  2	'-x, -y, -z'
  3	'x+.5, -y+.5, z+.5'
  4	'x, y, z'
loop_
_atom_type_symbol
_atom_type_oxidation_number
Ag1+	1
Be2+	2
O2-	-2
P5+	5
loop_
_atom_site_label
_atom_site_type_symbol
_atom_site_symmetry_multiplicity
_atom_site_Wyckoff_symbol
_atom_site_fract_x
_atom_site_fract_y
_atom_site_fract_z
_atom_site_occupancy
_atom_site_attached_hydrogens
Ag1 Ag1+ 4 e 0.25005(4) 0.01193(4) 0.24868(2) 1. 0 
Ag2 Ag1+ 4 e 0.72343(4) 0.48046(4) 0.08613(2) 1. 0 
Ag3 Ag1+ 4 e 0.78699(4) 0.01441(4) 0.06469(2) 1. 0 
P1 P5+ 4 e 0.58152(11) 0.29167(11) 0.26205(6) 1. 0 
P2 P5+ 4 e 0.10561(11) 0.29595(11) 0.08252(6) 1. 0 
P3 P5+ 4 e 0.07024(11) 0.29382(11) 0.40988(6) 1. 0 
Be1 Be2+ 4 e 0.9208(6) 0.1742(6) 0.2416(3) 1. 0 
Be2 Be2+ 4 e 0.4044(6) 0.1730(6) 0.4193(3) 1. 0 
Be3 Be2+ 4 e 0.4344(6) 0.1705(6) 0.0916(3) 1. 0 
O1 O2- 4 e 0.4470(3) 0.2683(3) 0.1895(2) 1. 0 
O2 O2- 4 e 0.0627(3) 0.2743(3) 0.1849(2) 1. 0 
O3 O2- 4 e 0.2501(3) 0.2819(3) 0.3811(2) 1. 0 
O4 O2- 4 e 0.7466(3) 0.2551(4) 0.2177(2) 1. 0 
O5 O2- 4 e 0.9577(3) 0.2527(3) 0.0213(2) 1. 0 
O6 O2- 4 e 0.5534(3) 0.2546(3) 0.0126(2) 1. 0 
O7 O2- 4 e 0.5530(3) 0.1756(3) 0.3461(2) 1. 0 
O8 O2- 4 e 0.2459(3) 0.1768(3) 0.0568(2) 1. 0 
O9 O2- 4 e 0.9671(3) 0.1727(3) 0.3508(2) 1. 0 
O10 O2- 4 e 0.5731(3) 0.4775(3) 0.2955(2) 1. 0 
O11 O2- 4 e 0.1607(3) 0.4787(3) 0.0664(2) 1. 0 
O12 O2- 4 e 0.0099(3) 0.4745(3) 0.3933(2) 1. 0 

loop_
_atom_site_aniso_label
_atom_site_aniso_type_symbol
_atom_site_aniso_U_11
_atom_site_aniso_U_22
_atom_site_aniso_U_33
_atom_site_aniso_U_12
_atom_site_aniso_U_13
_atom_site_aniso_U_23
Ag1 Ag1+ 0.0155(1) 0.0155(1) 0.0161(1) 0.0005(1) 0.0001(1) 0.0006(1)
Ag2 Ag1+ 0.0220(1) 0.0146(1) 0.0179(1) -.0014(1) 0.0092(1) -.0032(1)
Ag3 Ag1+ 0.0199(1) 0.0155(1) 0.0134(1) -.0021(1) -.0057(1) -.0006(1)
P1 P5+ 0.0069(3) 0.0071(3) 0.059(3) 0.0004(3) 0.0005(3) 0.0004(3)
P2 P5+ 0.0070(4) 0.0066(3) 0.062(3) 0.0000(3) -.0001(3) 0.0003(3)
P3 P5+ 0.0064(3) 0.0066(3) 0.059(3) 0.0004(3) 0.0000(3) -.0001(3)
Be1 Be2+ 0.0070(2) 0.0100(2) 0.080(2) 0.0027(14) 0.0002(15) 0.0020(14)
Be2 Be2+ 0.0090(2) 0.0070(2) 0.070(2) -.0005(14) -.0005(15) 0.0004(13)
Be3 Be2+ 0.0070(2) 0.0100(2) 0.0120(2) 0.0003(14) 0.0010(2) -.0022(15)
O1 O2- 0.0066(10) 0.0153(12) 0.0094(10) 0.0010(9) 0.0006(8) -.0040(8)
O2 O2- 0.0092(10) 0.0163(12) 0.0085(10) -.0043(9) 0.0023(8) 0.0004(9)
O3 O2- 0.0078(10) 0.0129(11) 0.0118(10) 0.0016(9) -.0002(8) 0.0026(9)
O4 O2- 0.0098(10) 0.0203(13) 0.0098(10) 0.0031(10) 0.0035(9) 0.0036(9)
O5 O2- 0.0066(9) 0.0127(11) 0.0114(11) -.0018(8) -.0006(8) 0.0032(8)
O6 O2- 0.0123(11) 0.0113(10) 0.0082(10) -.0029(9) 0.0005(8) -.0008(8)
O7 O2- 0.011(1) 0.0096(10) 0.009(1) 0.0033(8) 0.0028(8) 0.0033(8)
O8 O2- 0.0097(10) 0.0076(10) 0.012(1) 0.0024(8) -.0022(8) -.0044(8)
O9 O2- 0.0133(11) 0.0081(9) 0.0083 -.0047(9) -.0022(8) -.0006(8)
O10 O2- 0.0219(12) 0.0076(9) 0.0103(10) 0.0001(10) -.0039(9) 0.0007(9)
O11 O2- 0.0112(10) 0.0067(8) 0.0131(10) 0.0003(9) 0.0041(8) 0.0009(8)
O12 O2- 0.0115(10) 0.0062(8) 0.0142(10) -.0008(8) -.0011(8) -.0015(8)
#End of data_51083-ICSD


