data_67894-ICSD
#?2014 by Fachinformationszentrum Karlsruhe, and the U.S. Secretary of 
#Commerce on behalf of the United States.  All rights reserved.
_database_code_ICSD                67894
_audit_creation_date               1995/01/10
_audit_update_record               2002/04/01
_chemical_name_systematic
;
Dibarium Lanthanum Pentasilver Sulfide
;
_chemical_formula_structural       'Ba2 La Ag5 S6'
_chemical_formula_sum              'Ag5 Ba2 La1 S6'
_publ_section_title
;
Synthesis and structure of Ba2 La Ag5 S6 and Ba2 Y Ag5 S6
;
loop_
_citation_id
_citation_journal_abbrev
_citation_year
_citation_journal_volume
_citation_page_first
_citation_page_last
_citation_journal_id_ASTM
primary 'Zeitschrift fuer Kristallographie (1979-2010)' 1993 208 35 41 ZEKRDZ
_publ_author_name                  'Wu, P.;Ibers, J.A.'
_cell_length_a                     13.909(9)
_cell_length_b                     4.229(3)
_cell_length_c                     11.213(7)
_cell_angle_alpha                  90.
_cell_angle_beta                   94.81(3)
_cell_angle_gamma                  90.
_cell_volume                       657.24
_cell_formula_units_Z              2
_symmetry_space_group_name_H-M     'C 1 2/m 1'
_symmetry_Int_Tables_number        12
_refine_ls_R_factor_all            .069
loop_
_symmetry_equiv_pos_site_id
_symmetry_equiv_pos_as_xyz
  1	'-x, y, -z'
  2	'-x, -y, -z'
  3	'x, -y, z'
  4	'x, y, z'
  5	'-x+.5, y+.5, -z'
  6	'-x+.5, -y+.5, -z'
  7	'x+.5, -y+.5, z'
  8	'x+.5, y+.5, z'
loop_
_atom_type_symbol
_atom_type_oxidation_number
Ag1+	1
Ba2+	2
La3+	3
S2-	-2
loop_
_atom_site_label
_atom_site_type_symbol
_atom_site_symmetry_multiplicity
_atom_site_Wyckoff_symbol
_atom_site_fract_x
_atom_site_fract_y
_atom_site_fract_z
_atom_site_occupancy
_atom_site_attached_hydrogens
La1 La3+ 2 d 0 0.5 0.5 1. 0 
Ba1 Ba2+ 4 i 0.25106(4) 0 0.70761(6) 1. 0 
Ag1 Ag1+ 4 i 0.01946(6) 0 0.25460(8) 1. 0 
Ag2 Ag1+ 4 i 0.35050(8) 0 0.03486(9) 1. 0 
Ag3 Ag1+ 2 a 0 0 0 1. 0 
S1 S2- 4 i 0.1336(2) 0 0.4485(3) 1. 0 
S2 S2- 4 i 0.1570(2) 0 0.1016(3) 1. 0 
S3 S2- 4 i 0.4136(2) 0 0.2563(3) 1. 0 

loop_
_atom_site_aniso_label
_atom_site_aniso_type_symbol
_atom_site_aniso_U_11
_atom_site_aniso_U_22
_atom_site_aniso_U_33
_atom_site_aniso_U_12
_atom_site_aniso_U_13
_atom_site_aniso_U_23
La1 La3+ 0.0039(3) 0.0027(4) 0.0096(4) 0 -0.0013(2) 0
Ba1 Ba2+ 0.0048(3) 0.0029(3) 0.0109(3) 0 -0.0010(2) 0
Ag1 Ag1+ 0.0073(3) 0.0075(4) 0.0121(4) 0 -0.0012(3) 0
Ag2 Ag1+ 0.0194(4) 0.0134(5) 0.0131(4) 0 -0.0018(3) 0
Ag3 Ag1+ 0.0083(5) 0.0216(7) 0.0132(5) 0 -0.0035(4) 0
S1 S2- 0.0051(9) 0.0050(11) 0.0109(11) 0 -0.0028(8) 0
S2 S2- 0.0075(10) 0.0059(11) 0.0126(11) 0 -0.0005(8) 0
S3 S2- 0.0053(9) 0.0043(11) 0.0132(11) 0 -0.0018 0
#End of data_67894-ICSD


