data_200795-ICSD
#?2014 by Fachinformationszentrum Karlsruhe, and the U.S. Secretary of 
#Commerce on behalf of the United States.  All rights reserved.
_database_code_ICSD                200795
_audit_creation_date               1980/12/31
_audit_update_record               1999/11/30
_chemical_name_systematic
;
Potassium Erbium Cyclo-tetraphosphate - Alpha
;
_chemical_formula_structural       'K Er (P O3)4'
_chemical_formula_sum              'Er1 K1 O12 P4'
_publ_section_title
;
Crystal structure of alpha-K Er (P O3)4
;
loop_
_citation_id
_citation_journal_abbrev
_citation_year
_citation_journal_volume
_citation_page_first
_citation_page_last
_citation_journal_id_ASTM
primary 'Doklady Akademii Nauk SSSR' 1980 252 607 610 DANKAS
_publ_author_name
;
Krutik, V.M.;Pushcharovskii, D.Yu.;Pobedimskaya, E.A.;Belov, N.V.
;
_cell_length_a                     7.285(1)
_cell_length_b                     8.012(2)
_cell_length_c                     8.444(1)
_cell_angle_alpha                  90.
_cell_angle_beta                   90.
_cell_angle_gamma                  91.96(2)
_cell_volume                       492.57
_cell_formula_units_Z              2
_symmetry_space_group_name_H-M     'P 1 1 21'
_symmetry_Int_Tables_number        4
_refine_ls_R_factor_all            .048
loop_
_symmetry_equiv_pos_site_id
_symmetry_equiv_pos_as_xyz
  1	'-x, -y, z+.5'
  2	'x, y, z'
loop_
_atom_type_symbol
_atom_type_oxidation_number
Er3+	3
K1+	1
O2-	-2
P5+	5
loop_
_atom_site_label
_atom_site_type_symbol
_atom_site_symmetry_multiplicity
_atom_site_Wyckoff_symbol
_atom_site_fract_x
_atom_site_fract_y
_atom_site_fract_z
_atom_site_occupancy
_atom_site_attached_hydrogens
Er1 Er3+ 2 a 0.2346(1) 0.2420(1) 0 1. 0 
K1 K1+ 2 a 0.2733(5) 0.7184(5) 0.3065(5) 1. 0 
P1 P5+ 2 a 0.4337(4) 0.0979(4) 0.3797(4) 1. 0 
P2 P5+ 2 a 0.6216(4) 0.3962(4) 0.2493(4) 1. 0 
P3 P5+ 2 a 0.0005(4) 0.3804(4) 0.3543(4) 1. 0 
P4 P5+ 2 a 0.8972(4) 0.8964(4) 0.0815(4) 1. 0 
O1 O2- 2 a 0.545(1) 0.275(1) 0.384(1) 1. 0 
O2 O2- 2 a 0.686(1) 0.875(1) 0.034(1) 1. 0 
O3 O2- 2 a 0.566(1) 0.962(1) 0.409(1) 1. 0 
O4 O2- 2 a 0.316(1) 0.071(1) 0.236(1) 1. 0 
O5 O2- 2 a 0.611(1) 0.569(1) 0.308(1) 1. 0 
O6 O2- 2 a 0.830(1) 0.344(1) 0.241(1) 1. 0 
O7 O2- 2 a 0.537(1) 0.347(1) 0.095(1) 1. 0 
O8 O2- 2 a 0.992(1) 0.216(1) 0.462(1) 1. 0 
O9 O2- 2 a 0.170(1) 0.385(1) 0.255(1) 1. 0 
O10 O2- 2 a 0.969(1) 0.528(1) 0.457(1) 1. 0 
O11 O2- 2 a 0.964(1) 0.069(1) 0.050(1) 1. 0 
O12 O2- 2 a 0.915(1) 0.825(1) 0.243(1) 1. 0 

loop_
_atom_site_aniso_label
_atom_site_aniso_type_symbol
_atom_site_aniso_B_11
_atom_site_aniso_B_22
_atom_site_aniso_B_33
_atom_site_aniso_B_12
_atom_site_aniso_B_13
_atom_site_aniso_B_23
Er1 Er3+ 0.38(1) 0.53(1) 0.56(1) 0.06(1) -.03(2) 0.00(2)
K1 K1+ 0.69(7) 0.72(7) 3.34(16) 0.06(4) -.65(9) 0.05(9)
P1 P5+ 0.06(6) 0.21(7) 0.34(8) 0.08(5) 0.08(6) 0.09(6)
P2 P5+ 0.08(6) 0.21(7) 0.25(7) 0.03(5) -.06(5) -.03(6)
P3 P5+ 0.06(6) 0.31(7) 0.21(7) 0.13(5) -.04(5) -.04(6)
P4 P5+ 0.15(6) 0.23(7) 0.19(7) -.02(5) -.02(5) -.01(6)
O1 O2- 0.6(2) 0.7(2) 0.4(2) -.3(2) 0.1(1) -.1(1)
O2 O2- 0.2(2) 1.3(2) 0.6(2) -.1(1) -.2(1) 0.2(2)
O3 O2- 1.0(2) 0.89(2) 1.1(3) 0.7(2) -.4(2) 0.2(2)
O4 O2- 0.8(2) 0.6(2) 0.4(2) -.1(2) -.3(1) -.1(1)
O5 O2- 0.4(2) 0.4(2) 0.8(2) 0.1(1) -.2(1) -.1(1)
O6 O2- 0.2(2) 0.8(2) 0.3(2) 0.2(1) -.2(1) -.3(2)
O7 O2- 0.4(2) 0.7(2) 0.4(2) -.1(1) -.2(1) -.1(1)
O8 O2- 0.7(2) 1.2(2) 0.8(2) 0.2(2) -.2(2) 0.7(2)
O9 O2- 0.2(2) 0.8(2) 0.5(2) 0.2(1) 0.1(1) 0.0(2)
O10 O2- 0.6(2) 0.8(2) 0.8(2) 0.5(1) -.1(1) -.5(2)
O11 O2- 0.5(2) 0.3(2) 0.9(2) -.1(1) 0.2(2) -.2(1)
O12 O2- 0.5(2) 1.3(2) 0.2(2) 0.1(2) -.2(1) 0.2(2)
#End of data_200795-ICSD


