data_4165-ICSD
#?2014 by Fachinformationszentrum Karlsruhe, and the U.S. Secretary of 
#Commerce on behalf of the United States.  All rights reserved.
_database_code_ICSD                4165
_audit_creation_date               1980/01/01
_audit_update_record               1985/04/17
_chemical_name_systematic
;
Octasilver Tetrakis(tungstate) - High-temperature Phase
;
_chemical_formula_structural       'Ag8 W4 O16'
_chemical_formula_sum              'Ag8 O16 W4'
_publ_section_title
;
(W4 (W4 O16)(-VIII) polyion in the high temperature modification of 
silver tungstate
;
loop_
_citation_id
_citation_journal_abbrev
_citation_year
_citation_journal_volume
_citation_page_first
_citation_page_last
_citation_journal_id_ASTM
primary 'Materials Research Bulletin' 1975 10 791 800 MRBUAC
_publ_author_name                  'Skarstad, P.M.;Geller, S.'
_cell_length_a                     10.89(2)
_cell_length_b                     12.03(2)
_cell_length_c                     5.92(2)
_cell_angle_alpha                  90.
_cell_angle_beta                   90.
_cell_angle_gamma                  90.
_cell_volume                       775.56
_cell_formula_units_Z              2
_symmetry_space_group_name_H-M     'P n 2 n'
_symmetry_Int_Tables_number        34
_refine_ls_R_factor_all            .071
loop_
_symmetry_equiv_pos_site_id
_symmetry_equiv_pos_as_xyz
  1	'x+.5, y+.5, -z+.5'
  2	'-x+.5, y+.5, z+.5'
  3	'-x, y, -z'
  4	'x, y, z'
loop_
_atom_type_symbol
_atom_type_oxidation_number
Ag1+	1
O2-	-2
W6+	6
loop_
_atom_site_label
_atom_site_type_symbol
_atom_site_symmetry_multiplicity
_atom_site_Wyckoff_symbol
_atom_site_fract_x
_atom_site_fract_y
_atom_site_fract_z
_atom_site_occupancy
_atom_site_attached_hydrogens
_atom_site_B_iso_or_equiv
W1 W6+ 4 c 0.2540(6) 0 0.5255(5) 1. 0 0 
W2 W6+ 2 b 0 0.8475 0.5 1. 0 0 
W3 W6+ 2 b 0 0.1380(8) 0.5 1. 0 0 
Ag1 Ag1+ 4 c 0.7509(13) 0.1711(17) 0.9877(28) 1. 0 0 
Ag2 Ag1+ 4 c 0.2349(15) 0.8176(18) 0.0092(32) 1. 0 0 
Ag3 Ag1+ 2 a 0 0.9872(31) 0 1. 0 0 
Ag4 Ag1+ 2 a 0 0.6531(12) 0 1. 0 0 
Ag5 Ag1+ 2 a 0 0.3148(18) 0 1. 0 0 
Ag6 Ag1+ 2 b 0 0.5092(25) 0.5 1. 0 0 
O1 O2- 4 c 0.368 0.612 0.195 1. 0 2.3 
O2 O2- 4 c 0.368 0.378 0.188 1. 0 2.3 
O3 O2- 4 c 0.419 0.735 0.815 1. 0 2.3 
O4 O2- 4 c 0.425 0.263 0.792 1. 0 2.3 
O5 O2- 4 c 0.162 0.494 0.282 1. 0 2.3 
O6 O2- 4 c 0.414 0.496 0.847 1. 0 2.3 
O7 O2- 4 c 0.189 0.612 0.857 1. 0 2.3 
O8 O2- 4 c 0.193 0.379 0.9 1. 0 2.3 

#End of data_4165-ICSD


