data_166540-ICSD
#?2014 by Fachinformationszentrum Karlsruhe, and the U.S. Secretary of 
#Commerce on behalf of the United States.  All rights reserved.
_database_code_ICSD                166540
_audit_creation_date               2010/08/01
_chemical_name_systematic          'Tripotassium Aluminate'
_chemical_formula_structural       'K3 (Al O3)'
_chemical_formula_sum              'Al1 K3 O3'
_publ_section_title
;
Synthese et structure cristalline d'un nouvel aluminate de potassium
;
loop_
_citation_id
_citation_journal_abbrev
_citation_year
_citation_journal_volume
_citation_page_first
_citation_page_last
_citation_journal_id_ASTM
primary
;
Comptes Rendus Hebdomadaires des Seances de l`Academie des Sciences, 
Serie C, Sciences Chimiques (1966-)
;
 1974 278 785 788 CHDCAQ
_publ_author_name
;
Bon, A.;Gleitzer, C.;Courtois, A.;Protas, J.
;
_cell_length_a                     6.97(1)
_cell_length_b                     11.01(2)
_cell_length_c                     6.45(1)
_cell_angle_alpha                  90.
_cell_angle_beta                   102.50(17)
_cell_angle_gamma                  90.
_cell_volume                       483.24
_cell_formula_units_Z              4
_symmetry_space_group_name_H-M     'C 1 2/m 1'
_symmetry_Int_Tables_number        12
_refine_ls_R_factor_all            .08
loop_
_symmetry_equiv_pos_site_id
_symmetry_equiv_pos_as_xyz
  1	'-x, y, -z'
  2	'-x, -y, -z'
  3	'x, -y, z'
  4	'x, y, z'
  5	'-x+.5, y+.5, -z'
  6	'-x+.5, -y+.5, -z'
  7	'x+.5, -y+.5, z'
  8	'x+.5, y+.5, z'
loop_
_atom_type_symbol
_atom_type_oxidation_number
Al3+	3
K1+	1
O2-	-2
loop_
_atom_site_label
_atom_site_type_symbol
_atom_site_symmetry_multiplicity
_atom_site_Wyckoff_symbol
_atom_site_fract_x
_atom_site_fract_y
_atom_site_fract_z
_atom_site_occupancy
_atom_site_attached_hydrogens
_atom_site_B_iso_or_equiv
K1 K1+ 4 g 0 0.272 0 1. 0 1.68 
K2 K1+ 4 h 0 0.202 0.5 1. 0 1.68 
K3 K1+ 4 i 0.366 0 0.663 1. 0 1.68 
Al1 Al3+ 4 i 0.157 0 0.136 1. 0 1.68 
O1 O2- 4 i 0.916 0 0.136 1. 0 1.68 
O2 O2- 8 j 0.278 0.130 0.264 1. 0 1.68 

#End of data_166540-ICSD


