data_157073-ICSD
#?2014 by Fachinformationszentrum Karlsruhe, and the U.S. Secretary of 
#Commerce on behalf of the United States.  All rights reserved.
_database_code_ICSD                157073
_audit_creation_date               2008/02/01
_chemical_name_systematic          'Potassium Dilead Chloride'
_chemical_formula_structural       'K Pb2 Cl5'
_chemical_formula_sum              'Cl5 K1 Pb2'
_chemical_name_mineral             Challacolloite
_publ_section_title
;
The new mineral challacolloite, K Pb2 Cl5, the natural occurrence of 
a technically known laser material
;
loop_
_citation_id
_citation_journal_abbrev
_citation_year
_citation_journal_volume
_citation_journal_issue
_citation_page_first
_citation_page_last
_citation_journal_id_ASTM
primary 'Neues Jahrbuch fuer Mineralogie. Abhandlungen (Band-Nr) (1950-)'
 2005 182 1 95 101 NJMIAK
_publ_author_name                  'Schlueter, J.;Pohl, D.;Britvin, S.'
_cell_length_a                     8.864(8)
_cell_length_b                     7.932(8)
_cell_length_c                     12.491(11)
_cell_angle_alpha                  90.
_cell_angle_beta                   90.153(5)
_cell_angle_gamma                  90.
_cell_volume                       878.23
_cell_formula_units_Z              4
_symmetry_space_group_name_H-M     'P 1 21/c 1'
_symmetry_Int_Tables_number        14
_refine_ls_R_factor_all            .0948
loop_
_symmetry_equiv_pos_site_id
_symmetry_equiv_pos_as_xyz
  1	'x, -y+.5, z+.5'
  2	'-x, -y, -z'
  3	'-x, y+.5, -z+.5'
  4	'x, y, z'
loop_
_atom_type_symbol
_atom_type_oxidation_number
Cl1-	-1
K1+	1
Pb2+	2
loop_
_atom_site_label
_atom_site_type_symbol
_atom_site_symmetry_multiplicity
_atom_site_Wyckoff_symbol
_atom_site_fract_x
_atom_site_fract_y
_atom_site_fract_z
_atom_site_occupancy
_atom_site_attached_hydrogens
_atom_site_B_iso_or_equiv
K1 K1+ 4 e 0.0151(36) 0.0429(28) 0.8295(17) 1. 0 2.63(7) 
Pb1 Pb2+ 4 e 0.5054(12) 0.9863(9) 0.1736(3) 1. 0 2.63(7) 
Pb2 Pb2+ 4 e 0.2449(5) 0.9353(4) 0.4937(6) 1. 0 2.63(7) 
Cl1 Cl1- 4 e 0.0413(32) 0.3082(31) 0.0715(20) 1. 0 2.63(7) 
Cl2 Cl1- 4 e 0.4660(35) 0.3455(30) 0.1011(19) 1. 0 2.63(7) 
Cl3 Cl1- 4 e 0.2555(43) 0.1471(28) 0.3110(19) 1. 0 2.63(7) 
Cl4 Cl1- 4 e 0.2728(23) 0.5306(20) 0.4873(28) 1. 0 2.63(7) 
Cl5 Cl1- 4 e 0.2175(36) 0.6941(28) 0.2195(12) 1. 0 2.63(7) 

#End of data_157073-ICSD


