data_281258-ICSD
#?2014 by Fachinformationszentrum Karlsruhe, and the U.S. Secretary of 
#Commerce on behalf of the United States.  All rights reserved.
_database_code_ICSD                281258
_audit_creation_date               2003/10/01
_audit_update_record               2013/08/01
_chemical_name_systematic          'Potassium Borodigermanate'
_chemical_formula_structural       'K (B Ge2 O6)'
_chemical_formula_sum              'B1 Ge2 K1 O6'
_publ_section_title
;
Synthesis and structure of K B Ge2 O6: the first chiral zeotype with 
7-ring channels
;
loop_
_citation_id
_citation_journal_abbrev
_citation_year
_citation_journal_volume
_citation_page_first
_citation_page_last
_citation_journal_id_ASTM
primary 'Inorganic Chemistry' 2003 42 1797 1799 INOCAJ
_publ_author_name                  'Lin, Z.-E.;Zhang, J.;Yang, G.-Y.'
_cell_length_a                     4.8037(3)
_cell_length_b                     10.2063(7)
_cell_length_c                     10.7402(1)
_cell_angle_alpha                  90.
_cell_angle_beta                   90.
_cell_angle_gamma                  90.
_cell_volume                       526.57
_cell_formula_units_Z              4
_symmetry_space_group_name_H-M     'P 21 21 21'
_symmetry_Int_Tables_number        19
_refine_ls_R_factor_all            .0568
loop_
_symmetry_equiv_pos_site_id
_symmetry_equiv_pos_as_xyz
  1	'-x, y+.5, -z+.5'
  2	'x+.5, -y+.5, -z'
  3	'-x+.5, -y, z+.5'
  4	'x, y, z'
loop_
_atom_type_symbol
_atom_type_oxidation_number
B3+	3
Ge4+	4
K1+	1
O2-	-2
loop_
_atom_site_label
_atom_site_type_symbol
_atom_site_symmetry_multiplicity
_atom_site_Wyckoff_symbol
_atom_site_fract_x
_atom_site_fract_y
_atom_site_fract_z
_atom_site_occupancy
_atom_site_attached_hydrogens
_atom_site_U_iso_or_equiv
Ge1 Ge4+ 4 a 0.2014(4) 0.11393(18) 0.56729(18) 1. 0 0.0088(5) 
Ge2 Ge4+ 4 a 0.7315(4) 0.30113(18) 0.92002(17) 1. 0 0.0089(5) 
K1 K1+ 4 a 0.1942(10) 0.4690(4) 0.6865(4) 1. 0 0.0196(11) 
O1 O2- 4 a 0.998(3) 0.2089(15) 0.6669(13) 1. 0 0.011(3) 
O2 O2- 4 a 0.642(3) 0.3594(14) 0.5921(13) 1. 0 0.016(3) 
O3 O2- 4 a 0.557(3) 0.1225(14) 0.5964(12) 1. 0 0.011(3) 
O4 O2- 4 a 0.578(3) 0.2520(15) 0.7846(12) 1. 0 0.011(3) 
O5 O2- 4 a 0.972(3) 0.1839(15) 0.9667(13) 1. 0 0.014(3) 
O6 O2- 4 a 0.904(3) 0.4486(13) 0.9083(13) 1. 0 0.012(3) 
B1 B3+ 4 a 0.690(5) 0.232(2) 0.6578(19) 1. 0 0.008(4) 

loop_
_atom_site_aniso_label
_atom_site_aniso_type_symbol
_atom_site_aniso_U_11
_atom_site_aniso_U_22
_atom_site_aniso_U_33
_atom_site_aniso_U_12
_atom_site_aniso_U_13
_atom_site_aniso_U_23
Ge1 Ge4+ 0.0077(10) 0.0071(9) 0.0117(10) -0.0011(8) 0.0002(9) 0.0002(8)
Ge2 Ge4+ 0.0086(9) 0.0068(9) 0.0111(9) -0.0004(8) 0.0006(9) 0.0016(7)
K1 K1+ 0.024(3) 0.016(2) 0.019(2) 0.001(2) 0.005(2) 0.0001(18)
O1 O2- 0.009(7) 0.011(7) 0.014(7) -0.001(6) 0.006(5) -0.010(6)
O2 O2- 0.015(7) 0.019(8) 0.013(7) 0.001(6) 0.006(6) -0.008(6)
O3 O2- 0.010(3) 0.010(3) 0.011(3) 0.0003(10) 0.0001(10) 0.0003(10)
O4 O2- 0.003(6) 0.025(8) 0.005(7) 0.000(6) -0.003(5) 0.001(6)
O5 O2- 0.013(7) 0.018(8) 0.011(7) -0.001(7) -0.006(5) 0.005(6)
O6 O2- 0.014(7) 0.007(7) 0.014(7) 0.002(5) -0.002(6) 0.000(6)
B1 B3+ 0.008(4) 0.008(4) 0.008(4) 0.0001(10) -0.0001(10) 0.0001(10)
#End of data_281258-ICSD


