data_170815-ICSD
#?2014 by Fachinformationszentrum Karlsruhe, and the U.S. Secretary of 
#Commerce on behalf of the United States.  All rights reserved.
_database_code_ICSD                170815
_audit_creation_date               2006/04/01
_chemical_name_systematic          'Calcium Copper Germanate'
_chemical_formula_structural       'Ca Cu Ge2 O6'
_chemical_formula_sum              'Ca1 Cu1 Ge2 O6'
_chemical_name_mineral             Clinopyroxene
_publ_section_title
;
Crystal structure of the clinopyroxene-type compound Ca Cu Ge2 O6 
between 15 K and 700 K
;
loop_
_citation_id
_citation_journal_abbrev
_citation_year
_citation_journal_volume
_citation_page_first
_citation_page_last
_citation_journal_id_ASTM
primary 'Acta Crystallographica, Section B: Structural Science'
 2005 61 367 380 ASBSDK
_publ_author_name
;
Redhammer, G.J.;Tippelt, G.;Merz, M.;Roth, G.;Treutmann, W.;Amthauer, 
G.
;
_cell_length_a                     10.2047(12)
_cell_length_b                     9.2255(7)
_cell_length_c                     5.2249(6)
_cell_angle_alpha                  90
_cell_angle_beta                   105.785(12)
_cell_angle_gamma                  90
_cell_volume                       473.34
_cell_formula_units_Z              4
_symmetry_space_group_name_H-M     'P 1 21/c 1'
_symmetry_Int_Tables_number        14
_refine_ls_R_factor_all            .04
loop_
_symmetry_equiv_pos_site_id
_symmetry_equiv_pos_as_xyz
  1	'x, -y+.5, z+.5'
  2	'-x, -y, -z'
  3	'-x, y+.5, -z+.5'
  4	'x, y, z'
loop_
_atom_type_symbol
_atom_type_oxidation_number
Ca2+	2
Cu2+	2
Ge4+	4
O2-	-2
loop_
_atom_site_label
_atom_site_type_symbol
_atom_site_symmetry_multiplicity
_atom_site_Wyckoff_symbol
_atom_site_fract_x
_atom_site_fract_y
_atom_site_fract_z
_atom_site_occupancy
_atom_site_attached_hydrogens
_atom_site_U_iso_or_equiv
Ca1 Ca2+ 4 e 0.28207(16) 0.45236(17) 0.8061(3) 1 0 0.0125(3) 
Cu1 Cu2+ 4 e 0.22814(9) 0.66100(10) 0.25558(18) 1 0 0.0102(3) 
Ge1 Ge4+ 4 e 0.04877(8) 0.34914(9) 0.21022(16) 1 0 0.0075(2) 
Ge2 Ge4+ 4 e 0.49029(8) 0.35038(9) 0.39552(17) 1 0 0.0091(2) 
O1 O2- 4 e -0.1266(2) 0.36097(19) 0.1159(3) 1 0 0.0111(11) 
O2 O2- 4 e 0.6583(5) 0.3203(6) 0.3804(11) 1 0 0.0079(11) 
O3 O2- 4 e 0.1447(6) 0.4899(6) 0.3751(13) 1 0 0.0155(13) 
O4 O2- 4 e 0.4315(6) 0.5209(6) 0.2594(7) 1 0 0.0144(12) 
O5 O2- 4 e 0.1038(6) 0.1953(6) 0.4239(12) 1 0 0.0114(12) 
O6 O2- 4 e 0.4003(6) 0.2524(6) 0.5852(12) 1 0 0.0128(12) 

loop_
_atom_site_aniso_label
_atom_site_aniso_type_symbol
_atom_site_aniso_U_11
_atom_site_aniso_U_22
_atom_site_aniso_U_33
_atom_site_aniso_U_12
_atom_site_aniso_U_13
_atom_site_aniso_U_23
Ca1 Ca2+ 0.0141(7) 0.0114(7) 0.0114(8) 0.0005(6) 0.0024(6) 0.0009(6)
Cu1 Cu2+ 0.0114(4) 0.0095(4) 0.0079(5) -0.0025(4) -0.0006(4) -0.0005(4)
Ge1 Ge4+ 0.0069(4) 0.0076(4) 0.0071(4) -0.0010(3) 0.0004(3) -0.0002(3)
Ge2 Ge4+ 0.0081(4) 0.0070(4) 0.0129(4) 0.0014(3) 0.0039(3) 0.0018(3)
O1 O2- 0.006(2) 0.018(3) 0.008(3) 0.004(2) 0.001(2) -0.001(2)
O2 O2- 0.007(2) 0.007(2) 0.009(3) 0.0009(18) 0.001(2) 0.0002(19)
O3 O2- 0.021(3) 0.011(3) 0.012(3) -0.008(2) 0.000(3) -0.001(2)
O4 O2- 0.023(3) 0.005(2) 0.014(3) 0.002(2) 0.003(2) 0.003(2)
O5 O2- 0.015(3) 0.010(3) 0.010(3) 0.0035(19) 0.005(2) 0.005(2)
O6 O2- 0.012(3) 0.018(3) 0.009(3) -0.004(2) 0.004(2) 0.001(2)
#End of data_170815-ICSD


