data_34803-ICSD
#?2014 by Fachinformationszentrum Karlsruhe, and the U.S. Secretary of 
#Commerce on behalf of the United States.  All rights reserved.
_database_code_ICSD                34803
_audit_creation_date               1982/12/31
_audit_update_record               2007/04/01
_chemical_name_systematic
;
Strontium Tetraaluminate - Beta, Hp
;
_chemical_formula_structural       'Sr (Al4 O7)'
_chemical_formula_sum              'Al4 O7 Sr1'
_publ_section_title
;
Structure of strontium tetraaluminate beta-Sr Al4 O7
;
loop_
_citation_id
_citation_journal_abbrev
_citation_year
_citation_journal_volume
_citation_page_first
_citation_page_last
_citation_journal_id_ASTM
primary 'Acta Crystallographica B (24,1968-38,1982)' 1982 38 889 891 ACBCAR
_publ_author_name
;
Machida, K.I.;Adachi, G.Y.;Shiokawa, J.;Shimada, M.;Koizumi, M.
;
_cell_length_a                     8.085(5)
_cell_length_b                     11.845(8)
_cell_length_c                     4.407(3)
_cell_angle_alpha                  90.
_cell_angle_beta                   90.
_cell_angle_gamma                  90.
_cell_volume                       422.04
_cell_formula_units_Z              4
_symmetry_space_group_name_H-M     'C m m a'
_symmetry_Int_Tables_number        67
_refine_ls_R_factor_all            .047
loop_
_symmetry_equiv_pos_site_id
_symmetry_equiv_pos_as_xyz
  1	'x+.5, y, -z'
  2	'x+.5, -y, z'
  3	'-x, y, z'
  4	'-x, -y, -z'
  5	'-x+.5, -y, z'
  6	'-x+.5, y, -z'
  7	'x, -y, -z'
  8	'x, y, z'
  9	'x, y+.5, -z'
 10	'x, -y+.5, z'
 11	'-x+.5, y+.5, z'
 12	'-x+.5, -y+.5, -z'
 13	'-x, -y+.5, z'
 14	'-x, y+.5, -z'
 15	'x+.5, -y+.5, -z'
 16	'x+.5, y+.5, z'
loop_
_atom_type_symbol
_atom_type_oxidation_number
Al3+	3
O2-	-2
Sr2+	2
loop_
_atom_site_label
_atom_site_type_symbol
_atom_site_symmetry_multiplicity
_atom_site_Wyckoff_symbol
_atom_site_fract_x
_atom_site_fract_y
_atom_site_fract_z
_atom_site_occupancy
_atom_site_attached_hydrogens
_atom_site_B_iso_or_equiv
Sr1 Sr2+ 4 e 0.25 0.25 0 1. 0 0.34 
Al1 Al3+ 4 c 0 0 0 1. 0 0.26 
Al2 Al3+ 4 b 0.25 0 0.5 1. 0 1.12 
Al3 Al3+ 8 m 0 0.136(4) 0.454(4) 1. 0 1.3 
O1 O2- 4 g 0 0.25 0.335(10) 1. 0 0.45 
O2 O2- 8 m 0 0.128(7) 0.782(7) 1. 0 0.39 
O3 O2- 16 o 0.144(5) 0.0730(5) 0.302(5) 1. 0 0.33 

#End of data_34803-ICSD


