data_51313-ICSD
#?2014 by Fachinformationszentrum Karlsruhe, and the U.S. Secretary of 
#Commerce on behalf of the United States.  All rights reserved.
_database_code_ICSD                51313
_audit_creation_date               2002/10/01
_audit_update_record               2005/10/01
_chemical_name_systematic
;
Dipotassium Phyllo-titanohexasilicate
;
_chemical_formula_structural       'K2 ((Ti O3) (Si O2)6)'
_chemical_formula_sum              'K2 O15 Si6 Ti1'
_publ_section_title
;
A new mixed framework compound with corrugated (Si O15) layers: K2 Ti 
Si6 O15
;
loop_
_citation_id
_citation_journal_abbrev
_citation_year
_citation_journal_volume
_citation_page_first
_citation_page_last
_citation_journal_id_ASTM
primary 'Journal of Solid State Chemistry' 2001 156 135 142 JSSCBI
_publ_author_name                  'Zou, X.;Dadachov, M.S.'
_cell_length_a                     6.916(3)
_cell_length_b                     12.812(3)
_cell_length_c                     7.661(2)
_cell_angle_alpha                  90.
_cell_angle_beta                   106.25(4)
_cell_angle_gamma                  90.
_cell_volume                       651.71
_cell_formula_units_Z              2
_symmetry_space_group_name_H-M     'P 1 21 1'
_symmetry_Int_Tables_number        4
_refine_ls_R_factor_all            .0329
loop_
_symmetry_equiv_pos_site_id
_symmetry_equiv_pos_as_xyz
  1	'-x, y+.5, -z'
  2	'x, y, z'
loop_
_atom_type_symbol
_atom_type_oxidation_number
K1+	1
O2-	-2
Si4+	4
Ti4+	4
loop_
_atom_site_label
_atom_site_type_symbol
_atom_site_symmetry_multiplicity
_atom_site_Wyckoff_symbol
_atom_site_fract_x
_atom_site_fract_y
_atom_site_fract_z
_atom_site_occupancy
_atom_site_attached_hydrogens
_atom_site_U_iso_or_equiv
Ti1 Ti4+ 2 a 0.7564(1) 0.2495(1) 0.2487(1) 1. 0 0.0082(2) 
Si1 Si4+ 2 a 0.0069(2) 0.6780(1) 0.3311(2) 1. 0 0.0089(2) 
Si2 Si4+ 2 a 0.4502(2) 0.6661(1) 0.4433(2) 1. 0 0.0085(2) 
Si3 Si4+ 2 a 0.6714(2) 0.5090(1) 0.2924(2) 1. 0 0.0085(2) 
Si4 Si4+ 2 a 0.0127(2) 0.8423(1) 0.0441(2) 1. 0 0.0089(2) 
Si5 Si4+ 2 a 0.5439(2) 0.3340(1) -.1641(2) 1. 0 0.0090(2) 
Si6 Si4+ 2 a 0.3061(2) 0.5069(1) -.0688(2) 1. 0 0.0082(2) 
K1 K1+ 2 a 0.1943(2) 0.4064(1) 0.4206(2) 1. 0 0.0296(3) 
K2 K1+ 2 a 0.2022(2) 0.1081(1) 0.1500(2) 1. 0 0.0267(3) 
O1 O2- 2 a 0.2352(5) 0.8825(3) 0.1629(5) 1. 0 0.0141(7) 
O2 O2- 2 a 0.5375(5) 0.7588(3) 0.3409(5) 1. 0 0.0131(6) 
O3 O2- 2 a 0.7333(5) 0.3911(3) 0.3346(5) 1. 0 0.0150(7) 
O4 O2- 2 a 0.2064(5) 0.6088(3) -.1702(5) 1. 0 0.0133(6) 
O5 O2- 2 a 0.5585(5) 0.2779(3) 0.0241(5) 1. 0 0.0127(7) 
O6 O2- 2 a 0.0235(5) 0.7927(3) -.1431(5) 1. 0 0.0125(7) 
O7 O2- 2 a -.1330(5) 0.5755(3) 0.2778(5) 1. 0 0.0160(7) 
O8 O2- 2 a 0.5889(5) 0.5620(3) 0.4533(5) 1. 0 0.0129(7) 
O9 O2- 2 a -.1358(5) 0.9435(2) 0.0014(5) 1. 0 0.0126(6) 
O10 O2- 2 a 0.4997(5) 0.5284(3) 0.1028(5) 1. 0 0.0165(7) 
O11 O2- 2 a -.0757(5) 0.7604(3) 0.1649(5) 1. 0 0.0142(6) 
O12 O2- 2 a 0.3861(5) 0.4318(3) -.2082(5) 1. 0 0.0122(6) 
O13 O2- 2 a 0.2265(5) 0.6356(3) 0.3191(5) 1. 0 0.0149(7) 
O14 O2- 2 a 0.4519(5) 0.7006(3) 0.6437(5) 1. 0 0.0123(6) 
O15 O2- 2 a 0.0245(5) 0.7260(3) 0.5265(5) 1. 0 0.0132(7) 

#End of data_51313-ICSD


