data_35676-ICSD
#?2014 by Fachinformationszentrum Karlsruhe, and the U.S. Secretary of 
#Commerce on behalf of the United States.  All rights reserved.
_database_code_ICSD                35676
_audit_creation_date               1983/12/31
_chemical_name_systematic          'Lithium Germanium(III) Telluride'
_chemical_formula_structural       'Li Ge Te2'
_chemical_formula_sum              'Ge1 Li1 Te2'
_publ_section_title
;
Li Ge Te2, das erste Kettenhypotelluridogermanat
;
loop_
_citation_id
_citation_journal_abbrev
_citation_year
_citation_journal_volume
_citation_page_first
_citation_page_last
_citation_journal_id_ASTM
primary 'Materials Research Bulletin' 1983 18 1189 1194 MRBUAC
_publ_author_name
;
Eisenmann, B.;Schwerer, H.;Schaefer, H.
;
_cell_length_a                     7.255(3)
_cell_length_b                     9.132(4)
_cell_length_c                     11.340(4)
_cell_angle_alpha                  75.75(5)
_cell_angle_beta                   77.11(5)
_cell_angle_gamma                  70.77(5)
_cell_volume                       679.23
_cell_formula_units_Z              6
_symmetry_space_group_name_H-M     'P -1'
_symmetry_Int_Tables_number        2
_refine_ls_R_factor_all            .0641
loop_
_symmetry_equiv_pos_site_id
_symmetry_equiv_pos_as_xyz
  1	'-x, -y, -z'
  2	'x, y, z'
loop_
_atom_type_symbol
_atom_type_oxidation_number
Ge3+	3
Li1+	1
Te2-	-2
loop_
_atom_site_label
_atom_site_type_symbol
_atom_site_symmetry_multiplicity
_atom_site_Wyckoff_symbol
_atom_site_fract_x
_atom_site_fract_y
_atom_site_fract_z
_atom_site_occupancy
_atom_site_attached_hydrogens
_atom_site_U_iso_or_equiv
Te1 Te2- 2 i 0.7441(2) 0.9877(1) 0.7472(1) 1. 0 0 
Te2 Te2- 2 i 0.2489(2) 0.1497(1) 0.5927(1) 1. 0 0 
Te3 Te2- 2 i 0.7330(2) 0.3330(1) 0.4198(1) 1. 0 0 
Te4 Te2- 2 i 0.7267(2) 0.4791(1) 0.7569(1) 1. 0 0 
Te5 Te2- 2 i 0.2988(2) 0.7992(1) 0.8994(1) 1. 0 0 
Te6 Te2- 2 i 0.2441(2) 0.3330(1) 0.9279(1) 1. 0 0 
Ge1 Ge3+ 2 i 0.9523(3) 0.2580(2) 0.9030(2) 1. 0 0 
Ge2 Ge3+ 2 i 0.0384(3) 0.0398(2) 0.7936(2) 1. 0 0 
Ge3 Ge3+ 2 i 0.9344(3) 0.3893(2) 0.5504(2) 1. 0 0 
Li1 Li1+ 1 b 0 0 0.5 1. 0 0.0342 
Li2 Li1+ 1 d 0.5 0 0 1. 0 0.0289 
Li3 Li1+ 2 i 0.4740(62) 0.3202(50) 0.6787(39) 1. 0 0.0334 
Li4 Li1+ 2 i 0.0077(59) 0.3456(48) 0.1903(37) 1. 0 0.0307 

loop_
_atom_site_aniso_label
_atom_site_aniso_type_symbol
_atom_site_aniso_U_11
_atom_site_aniso_U_22
_atom_site_aniso_U_33
_atom_site_aniso_U_12
_atom_site_aniso_U_13
_atom_site_aniso_U_23
Te1 Te2- 0.0174(5) 0.0184(5) 0.0195(5) -.0080(4) -.0056(4) -.0008(4)
Te2 Te2- 0.0141(5) 0.0136(5) 0.0136(5) -.0024(4) -.0023(4) 0.0007(4)
Te3 Te2- 0.0190(5) 0.0182(5) 0.0168(5) -.0057(4) -.0077(4) -.0024(4)
Te4 Te2- 0.0146(5) 0.0128(5) 0.0129(5) -.0002(4) -.0042(4) -.0006(4)
Te5 Te2- 0.0126(5) 0.0147(5) 0.0142(5) 0.0002(4) -.0019(4) 0.0022(4)
Te6 Te2- 0.0162(5) 0.0180(5) 0.0190(5) -.0063(4) -.0061(4) -.0017(4)
Ge1 Ge3+ 0.0149(8) 0.0100(7) 0.0117(7) -.0031(6) -.0047(6) 0.0004(6)
Ge2 Ge3+ 0.0142(8) 0.0101(7) 0.0107(7) -.0029(6) -.0050(6) 0.0006(6)
Ge3 Ge3+ 0.0166(8) 0.0105(7) 0.0093(7) -.0041(6) -.0052(6) 0.0017(6)
#End of data_35676-ICSD


