data_50988-ICSD
#?2014 by Fachinformationszentrum Karlsruhe, and the U.S. Secretary of 
#Commerce on behalf of the United States.  All rights reserved.
_database_code_ICSD                50988
_audit_creation_date               2000/12/16
_chemical_name_systematic
;
Potassium Oxochlorophosphato(V)molybdate
;
_chemical_formula_structural       'K (Mo O (P O4) Cl)'
_chemical_formula_sum              'Cl1 K1 Mo1 O5 P1'
_publ_section_title
;
Molybdenum(V) chloromonophosphates with a layer structure: A Mo O PO4 
Cl (A = K, Rb)
;
loop_
_citation_id
_citation_journal_abbrev
_citation_year
_citation_journal_volume
_citation_page_first
_citation_page_last
_citation_journal_id_ASTM
primary 'Journal of Solid State Chemistry' 1998 137 214 217 JSSCBI
_publ_author_name
;
Borel, M.M.;Leclaire, A.;Chardon, J.;Provost, J.;Raveau, B.
;
_cell_length_a                     6.4340(5)
_cell_length_b                     6.4340(5)
_cell_length_c                     7.2715(9)
_cell_angle_alpha                  90.
_cell_angle_beta                   90.
_cell_angle_gamma                  90.
_cell_volume                       301.01
_cell_formula_units_Z              2
_symmetry_space_group_name_H-M     'P 4/n m m Z'
_symmetry_Int_Tables_number        129
_refine_ls_R_factor_all            .026
loop_
_symmetry_equiv_pos_site_id
_symmetry_equiv_pos_as_xyz
  1	'y+.5, x+.5, -z'
  2	'-y, x+.5, -z'
  3	'y+.5, -x, -z'
  4	'-y, -x, -z'
  5	'x+.5, y+.5, -z'
  6	'-x, y+.5, -z'
  7	'x+.5, -y, -z'
  8	'-x, -y, -z'
  9	'-y+.5, -x+.5, z'
 10	'y, -x+.5, z'
 11	'-y+.5, x, z'
 12	'y, x, z'
 13	'-x+.5, -y+.5, z'
 14	'x, -y+.5, z'
 15	'-x+.5, y, z'
 16	'x, y, z'
loop_
_atom_type_symbol
_atom_type_oxidation_number
Cl1-	-1
K1+	1
Mo5+	5
O2-	-2
P5+	5
loop_
_atom_site_label
_atom_site_type_symbol
_atom_site_symmetry_multiplicity
_atom_site_Wyckoff_symbol
_atom_site_fract_x
_atom_site_fract_y
_atom_site_fract_z
_atom_site_occupancy
_atom_site_attached_hydrogens
_atom_site_B_iso_or_equiv
Mo1 Mo5+ 2 c 0.25 0.25 0.0936(1) 1. 0 0.696(8) 
Cl1 Cl1- 2 c 0.25 0.25 0.4495(3) 1. 0 1.47(3) 
P1 P5+ 2 a 0.25 0.75 0 1. 0 0.77(3) 
K1 K1+ 2 b 0.25 0.75 0.5 1. 0 2.17(4) 
O1 O2- 2 c 0.25 0.25 -.132(1) 1. 0 2.5(2) 
O2 O2- 8 i 0.25 0.5617(4) 0.1292(4) 1. 0 1.36(6) 

#End of data_50988-ICSD


