data_87893-ICSD
#?2014 by Fachinformationszentrum Karlsruhe, and the U.S. Secretary of 
#Commerce on behalf of the United States.  All rights reserved.
_database_code_ICSD                87893
_audit_creation_date               2001/07/16
_chemical_name_systematic          'Calcium Borophosphate(V)'
_chemical_formula_structural       'Ca (B P O5)'
_chemical_formula_sum              'B1 Ca1 O5 P1'
_publ_section_title
;
Borophosphates - a neglected class of compounds: the crystal 
structures of M(II) (B P O5) (M(II) = Ca, Sr) and Ba3 (B P3 O12)
;
loop_
_citation_id
_citation_journal_abbrev
_citation_year
_citation_journal_volume
_citation_journal_issue
_citation_page_first
_citation_page_last
_citation_journal_id_ASTM
primary 'Angewandte Chemie (German Edition)' 1994 106 7 791 793 ANCEAD
2 'Angewandte Chemie (Edition international)' 1994 33 7 749 751 ACIEAY
_publ_author_name
;
Kniep, R.;Goezel, G.;Eisenmann, B.;Roehr, C.;Asbrand, M.;Kizilyalli, 
M.
;
_cell_length_a                     6.6799(2)
_cell_length_b                     6.6799(2)
_cell_length_c                     6.6121(3)
_cell_angle_alpha                  90.
_cell_angle_beta                   90.
_cell_angle_gamma                  120.
_cell_volume                       255.51
_cell_formula_units_Z              3
_symmetry_space_group_name_H-M     'P 31 2 1'
_symmetry_Int_Tables_number        152
_refine_ls_R_factor_all            .059
loop_
_symmetry_equiv_pos_site_id
_symmetry_equiv_pos_as_xyz
  1	'x-y, -y, -z+.6667'
  2	'-x, -x+y, -z+.3333'
  3	'y, x, -z'
  4	'-x+y, -x, z+.6667'
  5	'-y, x-y, z+.3333'
  6	'x, y, z'
loop_
_atom_type_symbol
_atom_type_oxidation_number
B3+	3
Ca2+	2
O2-	-2
P5+	5
loop_
_atom_site_label
_atom_site_type_symbol
_atom_site_symmetry_multiplicity
_atom_site_Wyckoff_symbol
_atom_site_fract_x
_atom_site_fract_y
_atom_site_fract_z
_atom_site_occupancy
_atom_site_attached_hydrogens
_atom_site_U_iso_or_equiv
Ca1 Ca2+ 3 b 0.410(1) 0.410(1) 0.5 1. 0 0.043(2) 
B1 B3+ 3 b 0.888 0.888 0.5 1. 0 0.50(9) 
P1 P5+ 3 a 0.418(2) 0.418(2) 0 1. 0 0.057(3) 
O1 O2- 6 c 0.360(4) 0.220(4) 0.862(3) 1. 0 0.061(6) 
O2 O2- 6 c 0.617(3) 0.466(3) 0.134(2) 1. 0 0.038(5) 
O3 O2- 3 a -.051(8) -.051(8) 0 1. 0 0.20(2) 

#End of data_87893-ICSD


