data_35451-ICSD
#?2014 by Fachinformationszentrum Karlsruhe, and the U.S. Secretary of 
#Commerce on behalf of the United States.  All rights reserved.
_database_code_ICSD                35451
_audit_creation_date               1983/12/31
_audit_update_record               2006/04/01
_chemical_name_systematic          'Sodium Copper Phosphate(V) - Alpha'
_chemical_formula_structural       'Na Cu (P O4)'
_chemical_formula_sum              'Cu1 Na1 O4 P1'
_publ_section_title
;
Structure de l'orthophosphate double Na Cu P O4-alpha
;
loop_
_citation_id
_citation_journal_abbrev
_citation_year
_citation_journal_volume
_citation_page_first
_citation_page_last
_citation_journal_id_ASTM
primary 'Acta Crystallographica, Section C: Crystal Structure Communications'
 1983 39 664 667 ACSCEE
2 'Golden Book of Phase Transitions, Wroclaw' 2002 1 1 123 GBOPT5
_publ_author_name                  'Quarton, M.;Kolsi, A.W.'
_cell_length_a                     9.708(5)
_cell_length_b                     4.805(2)
_cell_length_c                     7.166(4)
_cell_angle_alpha                  90.
_cell_angle_beta                   90.
_cell_angle_gamma                  90.
_cell_volume                       334.27
_cell_formula_units_Z              4
_symmetry_space_group_name_H-M     'P 21 21 21'
_symmetry_Int_Tables_number        19
_refine_ls_R_factor_all            .034
loop_
_symmetry_equiv_pos_site_id
_symmetry_equiv_pos_as_xyz
  1	'-x, y+.5, -z+.5'
  2	'x+.5, -y+.5, -z'
  3	'-x+.5, -y, z+.5'
  4	'x, y, z'
loop_
_atom_type_symbol
_atom_type_oxidation_number
Cu2+	2
Na1+	1
O2-	-2
P5+	5
loop_
_atom_site_label
_atom_site_type_symbol
_atom_site_symmetry_multiplicity
_atom_site_Wyckoff_symbol
_atom_site_fract_x
_atom_site_fract_y
_atom_site_fract_z
_atom_site_occupancy
_atom_site_attached_hydrogens
Na1 Na1+ 4 a 0.6876(2) 0.0185(5) 0.2317(3) 1. 0 
Cu1 Cu2+ 4 a 0.54163(5) 0.4975(1) 0.94537(7) 1. 0 
P1 P5+ 4 a 0.6349(1) 0.5625(2) 0.5272(2) 1. 0 
O1 O2- 4 a 0.7794(4) 0.6577(8) 0.4764(6) 1. 0 
O2 O2- 4 a 0.5335(4) 0.7060(7) 0.3935(5) 1. 0 
O3 O2- 4 a 0.6021(4) 0.6918(7) 0.7202(5) 1. 0 
O4 O2- 4 a 0.6228(4) 0.2444(8) 0.5245(5) 1. 0 

#End of data_35451-ICSD


