data_410199-ICSD
#?2014 by Fachinformationszentrum Karlsruhe, and the U.S. Secretary of 
#Commerce on behalf of the United States.  All rights reserved.
_database_code_ICSD                410199
_audit_creation_date               2001/07/16
_audit_update_record               2007/08/01
_chemical_name_systematic
;
Calcium Amidotrioxosulfate(VI) Tetrahydrate
;
_chemical_formula_structural       'Ca ((N H2) S O3)2 (H2 O)4'
_chemical_formula_sum              'H12 Ca1 N2 O10 S2'
_publ_section_title
;
Crystal structure investigations of amide sulfate tetrahydrates with 
divalent cations
;
loop_
_citation_id
_citation_journal_abbrev
_citation_year
_citation_journal_volume
_citation_page_first
_citation_page_last
_citation_journal_id_ASTM
primary 'Croatica Chemica Acta' 1999 72 295 310 CCACAA
2 'Zeitschrift fuer Kristallographie, Supplement Issue' 1997 12 196 196 ZKSUP2
3 'Golden Book of Phase Transitions, Wroclaw' 2002 1 1 123 GBOPT5
_publ_author_name
;
Angerer, P.;Tillmanns, E.;Wildner, M.
;
_cell_length_a                     11.616(3)
_cell_length_b                     7.761(2)
_cell_length_c                     11.638(3)
_cell_angle_alpha                  90.
_cell_angle_beta                   98.93(1)
_cell_angle_gamma                  90.
_cell_volume                       1036.47
_cell_formula_units_Z              4
_symmetry_space_group_name_H-M     'C 1 2/c 1'
_symmetry_Int_Tables_number        15
_refine_ls_R_factor_all            .0486
loop_
_symmetry_equiv_pos_site_id
_symmetry_equiv_pos_as_xyz
  1	'x, -y, z+.5'
  2	'-x, -y, -z'
  3	'-x, y, -z+.5'
  4	'x, y, z'
  5	'x+.5, -y+.5, z+.5'
  6	'-x+.5, -y+.5, -z'
  7	'-x+.5, y+.5, -z+.5'
  8	'x+.5, y+.5, z'
loop_
_atom_type_symbol
_atom_type_oxidation_number
Ca2+	2
H1+	1
N3-	-3
O2-	-2
S6+	6
loop_
_atom_site_label
_atom_site_type_symbol
_atom_site_symmetry_multiplicity
_atom_site_Wyckoff_symbol
_atom_site_fract_x
_atom_site_fract_y
_atom_site_fract_z
_atom_site_occupancy
_atom_site_attached_hydrogens
_atom_site_U_iso_or_equiv
Ca1 Ca2+ 4 e 0 0.07572(5) 0.25 1. 0 0 
S1 S6+ 8 f 0.81712(3) 0.70341(5) 0.31400(4) 1. 0 0 
O1 O2- 8 f 0.69215(9) 0.7269(2) 0.28512(12) 1. 0 0 
O2 O2- 8 f 0.87834(10) 0.8664(2) 0.32894(11) 1. 0 0 
O3 O2- 8 f 0.84612(10) 0.5903(2) 0.41478(11) 1. 0 0 
O4 O2- 8 f 0.01995(12) 0.2755(2) 0.09346(13) 1. 0 0 
O5 O2- 8 f 0.88403(14) 0.9497(2) 0.07433(14) 1. 0 0 
N1 N3- 8 f 0.8646(2) 0.6096(2) 0.2057(2) 1. 0 0 
H1 H1+ 8 f 0.0599(23) 0.3516(40) 0.0942(21) 1. 0 0.055(8) 
H2 H1+ 8 f -.0370(29) 0.3136(38) 0.0439(27) 1. 0 0.077(9) 
H3 H1+ 8 f 0.8218(27) 0.9781(37) 0.0589(24) 1. 0 0.066(9) 
H4 H1+ 8 f 0.9026(27) 0.909(4) 0.0253(25) 1. 0 0.07(1) 
H5 H1+ 8 f 0.8318(22) 0.5081(39) 0.1899(22) 1. 0 0.068(8) 
H6 H1+ 8 f 0.8586(28) 0.6679(40) 0.1577(24) 1. 0 0.07(8) 

loop_
_atom_site_aniso_label
_atom_site_aniso_type_symbol
_atom_site_aniso_U_11
_atom_site_aniso_U_22
_atom_site_aniso_U_33
_atom_site_aniso_U_12
_atom_site_aniso_U_13
_atom_site_aniso_U_23
Ca1 Ca2+ 0.0175(2) 0.0235(2) 0.0265(2) 0 0.0034(2) 0
S1 S6+ 0.0172(2) 0.0236(2) 0.0336(2) -0.00231(13) 0.00053(14) 0.0026(2)
O1 O2- 0.0180(5) 0.0348(7) 0.0461(7) -0.0006(4) -0.0008(5) 0.0053(6)
O2 O2- 0.0308(6) 0.0287(6) 0.0439(8) -0.0106(5) 0.0034(5) -0.0003(6)
O3 O2- 0.0311(6) 0.0343(6) 0.0401(7) -0.0003(5) -0.0035(5) 0.0105(6)
O4 O2- 0.0297(7) 0.0396(7) 0.0380(7) -0.0088(6) -0.0052(5) 0.0086(6)
O5 O2- 0.0356(8) 0.0570(9) 0.0346(8) 0.0119(6) 0.0013(6) -0.0094(7)
N1 N3- 0.0502(9) 0.0297(8) 0.0523(12) -0.0017(7) 0.0196(9) -0.0020(8)
#End of data_410199-ICSD


