data_425820-ICSD
#?2014 by Fachinformationszentrum Karlsruhe, and the U.S. Secretary of 
#Commerce on behalf of the United States.  All rights reserved.
_database_code_ICSD                425820
_audit_creation_date               2014/02/01
_chemical_name_systematic          'Dipotassium Thorium Hexafluoride'
_chemical_formula_structural       'K2 Th F6'
_chemical_formula_sum              'F6 K2 Th1'
_publ_section_title
;
Crystal structures and stability of K2 Th F6 and K7 Th6 F31 on 
compression
;
loop_
_citation_id
_citation_journal_abbrev
_citation_year
_citation_journal_volume
_citation_page_first
_citation_page_last
_citation_journal_id_ASTM
primary 'Journal of Fluorine Chemistry' 2013 150 8 13 JFLCAR
_publ_author_name
;
Grzechnik, Andrzej;Underwood, Christopher C.;Kolis, Joseph W.;Friese, 
Karen
;
_cell_length_a                     6.5727(4)
_cell_length_b                     6.5727(4)
_cell_length_c                     3.8229(2)
_cell_angle_alpha                  90.
_cell_angle_beta                   90.
_cell_angle_gamma                  120.
_cell_volume                       143.02
_cell_formula_units_Z              1
_symmetry_space_group_name_H-M     'P -6 2 m'
_symmetry_Int_Tables_number        189
_refine_ls_R_factor_all            .0152
loop_
_symmetry_equiv_pos_site_id
_symmetry_equiv_pos_as_xyz
  1	'-x, -x+y, -z'
  2	'x-y, -y, -z'
  3	'y, x, -z'
  4	'-x, -x+y, z'
  5	'x-y, -y, z'
  6	'y, x, z'
  7	'-x+y, -x, -z'
  8	'-y, x-y, -z'
  9	'x, y, -z'
 10	'-x+y, -x, z'
 11	'-y, x-y, z'
 12	'x, y, z'
loop_
_atom_type_symbol
_atom_type_oxidation_number
F1-	-1
K1+	1
Th4+	4
loop_
_atom_site_label
_atom_site_type_symbol
_atom_site_symmetry_multiplicity
_atom_site_Wyckoff_symbol
_atom_site_fract_x
_atom_site_fract_y
_atom_site_fract_z
_atom_site_occupancy
_atom_site_attached_hydrogens
_atom_site_U_iso_or_equiv
K1 K1+ 2 d -0.333333 -0.666667 0.5 1 0 0.0235(3) 
Th1 Th4+ 1 a 0 0 0 1 0 0.01341(10) 
F1 F1- 3 g -0.2285(7) -1 0.5 1 0 0.0189(12) 
F2 F1- 3 f 0 -0.6504(9) 1 1 0 0.0244(15) 

loop_
_atom_site_aniso_label
_atom_site_aniso_type_symbol
_atom_site_aniso_U_11
_atom_site_aniso_U_22
_atom_site_aniso_U_33
_atom_site_aniso_U_12
_atom_site_aniso_U_13
_atom_site_aniso_U_23
K1 K1+ 0.0191(3) 0.0191(3) 0.0323(7) 0.00955(17) 0 0
Th1 Th4+ 0.01369(13) 0.01369(13) 0.01285(15) 0.00684(7) 0 0
F1 F1- 0.0173(12) 0.0216(18) 0.0192(16) 0.0108(9) 0 0
F2 F1- 0.030(2) 0.0223(15) 0.023(2) 0.0152(12) 0 0
#End of data_425820-ICSD


