data_156313-ICSD
#?2014 by Fachinformationszentrum Karlsruhe, and the U.S. Secretary of 
#Commerce on behalf of the United States.  All rights reserved.
_database_code_ICSD                156313
_audit_creation_date               2007/08/01
_chemical_name_systematic          'Calcium Aluminium Hydride - Alpha'
_chemical_formula_structural       'Ca Al H5'
_chemical_formula_sum              'H5 Al1 Ca1'
_publ_section_title
;
Structure and bonding in B Al H5 (B = Be, Ca, Sr) from first-
principle calculations
;
loop_
_citation_id
_citation_journal_abbrev
_citation_year
_citation_journal_volume
_citation_page_first
_citation_page_last
_citation_journal_id_ASTM
primary 'Journal of Alloys and Compounds' 2007 433 225 232 JALCEU
_publ_author_name
;
Klaveness, A.;Vajeeston, P.;Ravindran, P.;Fjellvag, H.;Kjekshus, A.
;
_cell_length_a                     8.340
_cell_length_b                     6.948
_cell_length_c                     9.714
_cell_angle_alpha                  90.
_cell_angle_beta                   93.848
_cell_angle_gamma                  90.
_cell_volume                       561.62
_cell_formula_units_Z              8
_symmetry_space_group_name_H-M     'P 1 21/n 1'
_symmetry_Int_Tables_number        14
loop_
_symmetry_equiv_pos_site_id
_symmetry_equiv_pos_as_xyz
  1	'-x+.5, y+.5, -z+.5'
  2	'-x, -y, -z'
  3	'x+.5, -y+.5, z+.5'
  4	'x, y, z'
loop_
_atom_type_symbol
_atom_type_oxidation_number
Al3+	3
Ca2+	2
H1-	-1
loop_
_atom_site_label
_atom_site_type_symbol
_atom_site_symmetry_multiplicity
_atom_site_Wyckoff_symbol
_atom_site_fract_x
_atom_site_fract_y
_atom_site_fract_z
_atom_site_occupancy
_atom_site_attached_hydrogens
Ca1 Ca2+ 4 e 0.260 0.231 0.444 1. 0 
Ca2 Ca2+ 4 e 0.809 0.270 0.151 1. 0 
Al1 Al3+ 4 e 0.005 0.190 0.810 1. 0 
Al2 Al3+ 4 e 0.128 0.221 0.343 1. 0 
H1 H1- 4 e 0.177 0.696 0.224 1. 0 
H2 H1- 4 e 0.971 0.793 0.362 1. 0 
H3 H1- 4 e 0.085 0.357 0.197 1. 0 
H4 H1- 4 e 0.317 0.903 0.045 1. 0 
H5 H1- 4 e 0.929 0.213 0.370 1. 0 
H6 H1- 4 e 0.987 0.195 0.983 1. 0 
H7 H1- 4 e 0.143 0.385 0.836 1. 0 
H8 H1- 4 e 0.302 0.557 0.038 1. 0 
H9 H1- 4 e 0.097 0.031 0.211 1. 0 
H10 H1- 4 e 0.187 0.063 0.837 1. 0 

#End of data_156313-ICSD


