data_33539-ICSD
#?2014 by Fachinformationszentrum Karlsruhe, and the U.S. Secretary of 
#Commerce on behalf of the United States.  All rights reserved.
_database_code_ICSD                33539
_audit_creation_date               1982/12/31
_audit_update_record               2003/04/01
_chemical_name_systematic          'Ammonium Tetrafluoroaluminate - Lt'
_chemical_formula_structural       '(N H4) (Al F4)'
_chemical_formula_sum              'H4 Al1 F4 N1'
_publ_section_title
;
N H4 Al F4: Determination of the ordered and disordered structures by 
neutron powder profile refinement
;
loop_
_citation_id
_citation_journal_abbrev
_citation_year
_citation_journal_volume
_citation_page_first
_citation_page_last
_citation_journal_id_ASTM
primary 'Materials Research Bulletin' 1982 17 391 397 MRBUAC
2 'Acta Crystallographica B (24,1968-38,1982)' 1981 37 32 32 ACBCAR
3 'Phase Transition' 1992 38 127 220 PHTRDP
_publ_author_name                  'Bulou, A.;Leble, A.;Hewat, A.W.'
_cell_length_a                     5.0564(1)
_cell_length_b                     5.0564(1)
_cell_length_c                     12.7113(2)
_cell_angle_alpha                  90.
_cell_angle_beta                   90.
_cell_angle_gamma                  90.
_cell_volume                       324.99
_cell_formula_units_Z              4
_symmetry_space_group_name_H-M     'P 42/m b c'
_symmetry_Int_Tables_number        135
_refine_ls_R_factor_all            .0656
loop_
_symmetry_equiv_pos_site_id
_symmetry_equiv_pos_as_xyz
  1	'-y+.5, -x+.5, z+.5'
  2	'-x+.5, y+.5, z'
  3	'y, -x, z+.5'
  4	'-x, -y, z'
  5	'-y+.5, -x+.5, -z+.5'
  6	'-x+.5, y+.5, -z'
  7	'y, -x, -z+.5'
  8	'-x, -y, -z'
  9	'y+.5, x+.5, -z+.5'
 10	'x+.5, -y+.5, -z'
 11	'-y, x, -z+.5'
 12	'x, y, -z'
 13	'y+.5, x+.5, z+.5'
 14	'x+.5, -y+.5, z'
 15	'-y, x, z+.5'
 16	'x, y, z'
loop_
_atom_type_symbol
_atom_type_oxidation_number
Al3+	3
F1-	-1
H1+	1
N3-	-3
loop_
_atom_site_label
_atom_site_type_symbol
_atom_site_symmetry_multiplicity
_atom_site_Wyckoff_symbol
_atom_site_fract_x
_atom_site_fract_y
_atom_site_fract_z
_atom_site_occupancy
_atom_site_attached_hydrogens
_atom_site_B_iso_or_equiv
N1 N3- 4 b 0 0 0.25 1. 0 -0.01 
H1 H1+ 16 i 0.0017(60) 0.8310(4) 0.2030(2) 1. 0 1.44 
Al1 Al3+ 4 c 0 0.5 0 1. 0 -0.3 
F1 F1- 8 f 0 0.5 0.1394(1) 1. 0 0. 
F2 F1- 8 h 0.2957(7) 0.2980(8) 0 1. 0 0.05 

#End of data_33539-ICSD


