data_170809-ICSD
#?2014 by Fachinformationszentrum Karlsruhe, and the U.S. Secretary of 
#Commerce on behalf of the United States.  All rights reserved.
_database_code_ICSD                170809
_audit_creation_date               2006/04/01
_chemical_name_systematic          'Calcium Copper Germanate'
_chemical_formula_structural       'Ca Cu Ge2 O6'
_chemical_formula_sum              'Ca1 Cu1 Ge2 O6'
_chemical_name_mineral             Clinopyroxene
_publ_section_title
;
Crystal structure of the clinopyroxene-type compound Ca Cu Ge2 O6 
between 15 K and 700 K
;
loop_
_citation_id
_citation_journal_abbrev
_citation_year
_citation_journal_volume
_citation_page_first
_citation_page_last
_citation_journal_id_ASTM
primary 'Acta Crystallographica, Section B: Structural Science'
 2005 61 367 380 ASBSDK
_publ_author_name
;
Redhammer, G.J.;Tippelt, G.;Merz, M.;Roth, G.;Treutmann, W.;Amthauer, 
G.
;
_cell_length_a                     10.1822(12)
_cell_length_b                     9.1912(7)
_cell_length_c                     5.1995(6)
_cell_angle_alpha                  90
_cell_angle_beta                   105.636(12)
_cell_angle_gamma                  90
_cell_volume                       468.6
_cell_formula_units_Z              4
_symmetry_space_group_name_H-M     'P 1 21/c 1'
_symmetry_Int_Tables_number        14
_refine_ls_R_factor_all            .028
loop_
_symmetry_equiv_pos_site_id
_symmetry_equiv_pos_as_xyz
  1	'x, -y+.5, z+.5'
  2	'-x, -y, -z'
  3	'-x, y+.5, -z+.5'
  4	'x, y, z'
loop_
_atom_type_symbol
_atom_type_oxidation_number
Ca2+	2
Cu2+	2
Ge4+	4
O2-	-2
loop_
_atom_site_label
_atom_site_type_symbol
_atom_site_symmetry_multiplicity
_atom_site_Wyckoff_symbol
_atom_site_fract_x
_atom_site_fract_y
_atom_site_fract_z
_atom_site_occupancy
_atom_site_attached_hydrogens
_atom_site_U_iso_or_equiv
Ca1 Ca2+ 4 e 0.28369(6) 0.45272(7) 0.81034(14) 1 0 0.00973(13) 
Cu1 Cu2+ 4 e 0.22723(4) 0.66177(4) 0.25661(8) 1 0 0.00880(10) 
Ge1 Ge4+ 4 e 0.04923(3) 0.34921(4) 0.20908(7) 1 0 0.00786(9) 
Ge2 Ge4+ 4 e 0.49129(3) 0.35094(4) 0.40383(7) 1 0 0.00822(9) 
O1 O2- 4 e -0.1271(2) 0.3617(3) 0.1151(5) 1 0 0.0099(4) 
O2 O2- 4 e 0.6586(2) 0.3198(3) 0.3780(5) 1 0 0.0089(4) 
O3 O2- 4 e 0.1462(3) 0.4887(3) 0.3772(5) 1 0 0.0121(4) 
O4 O2- 4 e 0.4325(3) 0.5225(3) 0.2624(5) 1 0 0.0112(4) 
O5 O2- 4 e 0.1030(2) 0.1940(3) 0.4185(5) 1 0 0.0102(4) 
O6 O2- 4 e 0.3992(2) 0.2511(3) 0.5906(5) 1 0 0.0101(4) 

loop_
_atom_site_aniso_label
_atom_site_aniso_type_symbol
_atom_site_aniso_U_11
_atom_site_aniso_U_22
_atom_site_aniso_U_33
_atom_site_aniso_U_12
_atom_site_aniso_U_13
_atom_site_aniso_U_23
Ca1 Ca2+ 0.0090(3) 0.0100(3) 0.0095(3) -0.0001(2) 0.0013(2) 0.0005(2)
Cu1 Cu2+ 0.00836(17) 0.00903(17) 0.00795(18) -0.00077(13) 0.00040(13) 
-0.00003(14)
Ge1 Ge4+ 0.00674(15) 0.00861(15) 0.00763(16) -0.00042(10) 0.00091(11) 
-0.00036(11)
Ge2 Ge4+ 0.00737(15) 0.00818(15) 0.00895(16) 0.00010(10) 0.00192(11) 
0.00042(11)
O1 O2- 0.0074(9) 0.0117(10) 0.0098(11) 0.0000(8) 0.0010(8) -0.0006(8)
O2 O2- 0.0062(9) 0.0107(10) 0.0095(10) 0.0011(7) 0.0017(7) 0.0002(8)
O3 O2- 0.0122(10) 0.0102(10) 0.0119(11) -0.0024(8) -0.0001(8) -0.0010(9)
O4 O2- 0.0139(10) 0.0089(10) 0.0100(11) 0.0006(8) 0.0017(8) 0.0000(8)
O5 O2- 0.0108(10) 0.0106(10) 0.0100(11) 0.0024(8) 0.0042(8) 0.0020(8)
O6 O2- 0.0094(10) 0.0112(10) 0.0096(11) -0.0018(8) 0.0026(8) 0.0017(8)
#End of data_170809-ICSD


