data_35277-ICSD
#?2014 by Fachinformationszentrum Karlsruhe, and the U.S. Secretary of 
#Commerce on behalf of the United States.  All rights reserved.
_database_code_ICSD                35277
_audit_creation_date               1982/12/31
_chemical_name_systematic          'Lithium Aluminium Chloride'
_chemical_formula_structural       'Li Al Cl4'
_chemical_formula_sum              'Al1 Cl4 Li1'
_publ_section_title
;
Die Strukturen von Li Al Cl4 und Na Al Cl4 als Funktion der 
Temperatur
;
loop_
_citation_id
_citation_journal_abbrev
_citation_year
_citation_journal_volume
_citation_page_first
_citation_page_last
_citation_journal_id_ASTM
primary 'Zeitschrift fuer Anorganische und Allgemeine Chemie (1950) (DE)'
 1982 491 259 265 ZAACAB
_publ_author_name
;
Perenthaler, E.;Schulz, H.;Rabenau, A.
;
_cell_length_a                     7.023(7)
_cell_length_b                     6.554(6)
_cell_length_c                     13.075(9)
_cell_angle_alpha                  90.
_cell_angle_beta                   93.3(1)
_cell_angle_gamma                  90.
_cell_volume                       600.83
_cell_formula_units_Z              4
_symmetry_space_group_name_H-M     'P 1 21/c 1'
_symmetry_Int_Tables_number        14
_refine_ls_R_factor_all            .016
loop_
_symmetry_equiv_pos_site_id
_symmetry_equiv_pos_as_xyz
  1	'x, -y+.5, z+.5'
  2	'-x, -y, -z'
  3	'-x, y+.5, -z+.5'
  4	'x, y, z'
loop_
_atom_type_symbol
_atom_type_oxidation_number
Al3+	3
Cl1-	-1
Li1+	1
loop_
_atom_site_label
_atom_site_type_symbol
_atom_site_symmetry_multiplicity
_atom_site_Wyckoff_symbol
_atom_site_fract_x
_atom_site_fract_y
_atom_site_fract_z
_atom_site_occupancy
_atom_site_attached_hydrogens
Li1 Li1+ 4 e 0.1589(7) 0.9839(9) 0.3646(4) 1. 0 
Al1 Al3+ 4 e 0.7064(1) 0.3216(1) 0.89916(6) 1. 0 
Cl1 Cl1- 4 e 0.69482(9) 0.1843(1) 0.04572(5) 1. 0 
Cl2 Cl1- 4 e 0.8081(1) 0.6258(1) 0.92769(6) 1. 0 
Cl3 Cl1- 4 e 0.92463(9) 0.1815(1) 0.81420(5) 1. 0 
Cl4 Cl1- 4 e 0.44102(9) 0.3134(1) 0.81372(5) 1. 0 

#End of data_35277-ICSD


