data_411635-ICSD
#?2014 by Fachinformationszentrum Karlsruhe, and the U.S. Secretary of 
#Commerce on behalf of the United States.  All rights reserved.
_database_code_ICSD                411635
_audit_creation_date               2002/10/01
_chemical_name_systematic          'Tetrasodium Molybdate'
_chemical_formula_structural       'Na4 (Mo O5)'
_chemical_formula_sum              'Mo1 Na4 O5'
_publ_section_title
;
Na4 Se O5, ein neues Pentaoxoselenat(VI) - Synthese, 
Charakterisierung und Vergleich mit isotypem Na4 Mo O5
;
loop_
_citation_id
_citation_journal_abbrev
_citation_year
_citation_journal_volume
_citation_page_first
_citation_page_last
_citation_journal_id_ASTM
primary 'Zeitschrift fuer Anorganische und Allgemeine Chemie (1950) (DE)'
 2001 627 755 760 ZAACAB
_publ_author_name                  'Haas, H.;Jansen, M.'
_cell_length_a                     9.99522(8)
_cell_length_b                     10.01978(8)
_cell_length_c                     5.65137(5)
_cell_angle_alpha                  96.5430(8)
_cell_angle_beta                   96.2930(8)
_cell_angle_gamma                  113.3530(6)
_cell_volume                       508.75
_cell_formula_units_Z              4
_symmetry_space_group_name_H-M     'P -1'
_symmetry_Int_Tables_number        2
_refine_ls_R_factor_all            .062
loop_
_symmetry_equiv_pos_site_id
_symmetry_equiv_pos_as_xyz
  1	'-x, -y, -z'
  2	'x, y, z'
loop_
_atom_type_symbol
_atom_type_oxidation_number
Mo6+	6
Na1+	1
O2-	-2
loop_
_atom_site_label
_atom_site_type_symbol
_atom_site_symmetry_multiplicity
_atom_site_Wyckoff_symbol
_atom_site_fract_x
_atom_site_fract_y
_atom_site_fract_z
_atom_site_occupancy
_atom_site_attached_hydrogens
_atom_site_U_iso_or_equiv
Mo1 Mo6+ 2 i 0.2158(2) 0.2467(2) 0.7878(3) 1. 0 0.011(1) 
Mo2 Mo6+ 2 i 0.2973(2) 0.7358(2) 0.4790(4) 1. 0 0.013(1) 
O1 O2- 2 i 0.0495(14) 0.2275(15) 0.8820(23) 1. 0 0.002(2) 
O2 O2- 2 i 0.2275(14) 0.0663(10) 0.8638(26) 1. 0 0.020(2) 
O3 O2- 2 i 0.4614(12) 0.7163(13) 0.4136(22) 1. 0 0.009(4) 
O4 O2- 2 i 0.1910(14) 0.5960(16) 0.1998(23) 1. 0 0.008(4) 
O5 O2- 2 i 0.3180(13) 0.9045(9) 0.3777(26) 1. 0 0.001(4) 
O6 O2- 2 i 0.2717(12) 0.4211(8) 0.6700(27) 1. 0 0.007(4) 
O7 O2- 2 i 0.1108(14) 0.6780(13) 0.5901(25) 1. 0 0.014(4) 
O8 O2- 2 i 0.1554(13) 0.1519(13) 0.4652(18) 1. 0 0.012(4) 
O9 O2- 2 i 0.3976(11) 0.8176(12) 0.8036(10) 1. 0 0.001(2) 
O10 O2- 2 i 0.3555(14) 0.3511(13) 0.0591(20) 1. 0 0.009(4) 
Na1 Na1+ 1 a 0 0 0 1. 0 0.046(4) 
Na2 Na1+ 1 h 0.5 0.5 0.5 1. 0 0.024(4) 
Na3 Na1+ 2 i 0.1057(9) 0.9132(10) 0.5155(18) 1. 0 0.006(2) 
Na4 Na1+ 2 i 0.399(1) 0.5994(11) 0.9937(21) 1. 0 0.013(2) 
Na5 Na1+ 2 i 0.1552(9) 0.3602(10) 0.2857(17) 1. 0 0.017(3) 
Na6 Na1+ 2 i 0.1948(10) 0.8085(10) 0.9841(17) 1. 0 0.017(3) 
Na7 Na1+ 2 i 0.3533(9) 0.1544(10) 0.2678(19) 1. 0 0.017(3) 
Na8 Na1+ 2 i 0.4552(8) 0.0699(9) 0.7916(15) 1. 0 0.015(3) 
Na9 Na1+ 2 i 0.0552(9) 0.4681(9) 0.7525(16) 1. 0 0.010(2) 

#End of data_411635-ICSD


