data_411607-ICSD
#?2014 by Fachinformationszentrum Karlsruhe, and the U.S. Secretary of 
#Commerce on behalf of the United States.  All rights reserved.
_database_code_ICSD                411607
_audit_creation_date               2002/10/01
_audit_update_record               2010/02/01
_chemical_name_systematic          'Tripotassium Trithioborate'
_chemical_formula_structural       'K3 (B S3)'
_chemical_formula_sum              'B1 K3 S3'
_publ_section_title
;
Syntheses and crystal structures of the novel thioborates Na3 B S3, 
K3 B S3, and Rb3 B S3
;
loop_
_citation_id
_citation_journal_abbrev
_citation_year
_citation_journal_volume
_citation_page_first
_citation_page_last
_citation_journal_id_ASTM
primary 'Zeitschrift fuer Anorganische und Allgemeine Chemie (1950) (DE)'
 2001 627 896 902 ZAACAB
_publ_author_name
;
Kuchinke, J.;Jansen, C.;Lindemann, A.;Krebs, B.
;
_cell_length_a                     10.061(3)
_cell_length_b                     6.2095(16)
_cell_length_c                     12.538(3)
_cell_angle_alpha                  90.
_cell_angle_beta                   112.973(5)
_cell_angle_gamma                  90.
_cell_volume                       721.17
_cell_formula_units_Z              4
_symmetry_space_group_name_H-M     'P 1 21/c 1'
_symmetry_Int_Tables_number        14
_refine_ls_R_factor_all            .0773
loop_
_symmetry_equiv_pos_site_id
_symmetry_equiv_pos_as_xyz
  1	'x, -y+.5, z+.5'
  2	'-x, -y, -z'
  3	'-x, y+.5, -z+.5'
  4	'x, y, z'
loop_
_atom_type_symbol
_atom_type_oxidation_number
B3+	3
K1+	1
S2-	-2
loop_
_atom_site_label
_atom_site_type_symbol
_atom_site_symmetry_multiplicity
_atom_site_Wyckoff_symbol
_atom_site_fract_x
_atom_site_fract_y
_atom_site_fract_z
_atom_site_occupancy
_atom_site_attached_hydrogens
K1 K1+ 4 e 0.10324(7) 0.05111(10) 0.34974(5) 1. 0 
K2 K1+ 4 e 0.77321(9) 0.33000(11) 0.39382(7) 1. 0 
K3 K1+ 4 e 0.46437(7) 0.22215(10) 0.09001(6) 1. 0 
S1 S2- 4 e 0.21446(8) 0.56926(11) 0.34011(6) 1. 0 
S2 S2- 4 e 0.15709(8) 0.32366(12) 0.10716(6) 1. 0 
S3 S2- 4 e 0.42504(8) 0.19780(12) 0.33173(6) 1. 0 
B1 B3+ 4 e 0.2688(3) 0.3660(5) 0.2593(3) 1. 0 

loop_
_atom_site_aniso_label
_atom_site_aniso_type_symbol
_atom_site_aniso_U_11
_atom_site_aniso_U_22
_atom_site_aniso_U_33
_atom_site_aniso_U_12
_atom_site_aniso_U_13
_atom_site_aniso_U_23
K1 K1+ 0.0312(3) 0.0285(3) 0.0286(3) -.0034(3) 0.0106(3) -.0003(3)
K2 K1+ 0.0706(5) 0.0244(4) 0.0450(4) 0.0001(3) 0.0314(4) -.0027(3)
K3 K1+ 0.0322(4) 0.0323(3) 0.0275(3) 0.0018(3) 0.0132(3) 0.0012(3)
S1 S2- 0.0316(4) 0.0266(4) 0.0260(4) 0.0017(3) 0.0112(3) -.0066(3)
S2 S2- 0.0315(4) 0.0289(4) 0.0192(3) 0.0047(3) 0.0062(3) -.0019(3)
S3 S2- 0.0339(4) 0.0279(4) 0.0227(4) 0.0095(3) 0.0088(3) 0.0056(3)
B1 B3+ 0.0272(16) 0.0164(14) 0.0210(15) -.0034(12) 0.0119(13) 0.0012(11)
#End of data_411607-ICSD


