data_83658-ICSD
#?2014 by Fachinformationszentrum Karlsruhe, and the U.S. Secretary of 
#Commerce on behalf of the United States.  All rights reserved.
_database_code_ICSD                83658
_audit_creation_date               1998/06/26
_audit_update_record               1999/11/30
_chemical_name_systematic
;
Dipotassium Dimanganese Tetrafluoroberyllate
;
_chemical_formula_structural       'K2 Mn2 (Be F4)3'
_chemical_formula_sum              'Be3 F12 K2 Mn2'
_chemical_name_mineral             Manganolangbeinite
_publ_section_title
;
A new langbeinite : dipotassium dimanganese tetrafluoroberyllate
;
loop_
_citation_id
_citation_journal_abbrev
_citation_year
_citation_journal_volume
_citation_page_first
_citation_page_last
_citation_journal_id_ASTM
primary 'Acta Crystallographica, Section C: Crystal Structure Communications'
 1996 52 2951 2954 ACSCEE
_publ_author_name
;
Guelylah, A.;Breczewski, T.;Madariaga, G.
;
_cell_length_a                     10.075(2)
_cell_length_b                     10.075(2)
_cell_length_c                     10.075(2)
_cell_angle_alpha                  90.
_cell_angle_beta                   90.
_cell_angle_gamma                  90.
_cell_volume                       1022.67
_cell_formula_units_Z              4
_symmetry_space_group_name_H-M     'P 21 3'
_symmetry_Int_Tables_number        198
_refine_ls_R_factor_all            .043
loop_
_symmetry_equiv_pos_site_id
_symmetry_equiv_pos_as_xyz
  1	'-z+.5, -x, y+.5'
  2	'-y+.5, -z, x+.5'
  3	'-x+.5, -y, z+.5'
  4	'-z, x+.5, -y+.5'
  5	'-y, z+.5, -x+.5'
  6	'-x, y+.5, -z+.5'
  7	'z+.5, -x+.5, -y'
  8	'y+.5, -z+.5, -x'
  9	'x+.5, -y+.5, -z'
 10	'z, x, y'
 11	'y, z, x'
 12	'x, y, z'
loop_
_atom_type_symbol
_atom_type_oxidation_number
Be2+	2
F1-	-1
K1+	1
Mn2+	2
loop_
_atom_site_label
_atom_site_type_symbol
_atom_site_symmetry_multiplicity
_atom_site_Wyckoff_symbol
_atom_site_fract_x
_atom_site_fract_y
_atom_site_fract_z
_atom_site_occupancy
_atom_site_attached_hydrogens
K1 K1+ 4 a 0.18818(9) 0.31182(9) 0.68818(9) 1. 0 
K2 K1+ 4 a 0.45198(14) 0.95198(14) 0.54802(14) 1. 0 
Mn1 Mn2+ 4 a 0.33300(5) 0.33300(5) 0.33300(5) 1. 0 
Mn2 Mn2+ 4 a 0.59513(5) 0.59513(5) 0.59513(5) 1. 0 
Be1 Be2+ 12 b 0.2812(5) 0.6250(4) 0.5163(4) 1. 0 
F1 F1- 12 b 0.1871(3) 0.7243(4) 0.4506(5) 1. 0 
F2 F1- 12 b 0.4221(3) 0.6752(3) 0.5106(5) 1. 0 
F3 F1- 12 b 0.2650(5) 0.5017(5) 0.4295(5) 1. 0 
F4 F1- 12 b 0.2402(5) 0.5869(4) 0.6542(3) 1. 0 

loop_
_atom_site_aniso_label
_atom_site_aniso_type_symbol
_atom_site_aniso_U_11
_atom_site_aniso_U_22
_atom_site_aniso_U_33
_atom_site_aniso_U_12
_atom_site_aniso_U_13
_atom_site_aniso_U_23
K1 K1+ 0.0359(4) 0.0359(4) 0.0359(4) 0.0036(4) -.0036(4) 0.0036(4)
K2 K1+ 0.0424(4) 0.0424(4) 0.0424(4) 0.0031(5) -.0031(5) -.0031(5)
Mn1 Mn2+ 0.0193(2) 0.0193(2) 0.0193(2) -.0036(2) -.0036(2) -.0036(2)
Mn2 Mn2+ 0.0172(2) 0.0172(2) 0.0172(2) 0.0000(2) 0.0000(2) 0.0000(2)
Be1 Be2+ 0.020(2) 0.021(2) 0.013(1) 0.004(1) 0.005(1) -.008(1)
F1 F1- 0.031(1) 0.055(2) 0.086(3) 0.024(1) 0.001(1) 0.031(2)
F2 F1- 0.021(3) 0.050(2) 0.106(3) -.004(2) -.007(2) 0.032(2)
F3 F1- 0.093(2) 0.063(2) 0.085(3) 0.006(2) -.007(3) -.057(2)
F4 F1- 0.082(3) 0.064(2) 0.029(1) 0.011(2) 0.024(2) 0.015(2)
#End of data_83658-ICSD


