data_72543-ICSD
#?2014 by Fachinformationszentrum Karlsruhe, and the U.S. Secretary of 
#Commerce on behalf of the United States.  All rights reserved.
_database_code_ICSD                72543
_audit_creation_date               1994/01/19
_audit_update_record               1997/11/10
_chemical_name_systematic          'Dicalcium Cobalt Disilicate'
_chemical_formula_structural       'Ca2 Co (Si2 O7)'
_chemical_formula_sum              'Ca2 Co1 O7 Si2'
_chemical_name_mineral             'Akermanite (Co-exchanged)'
_publ_section_title
;
The modulated structure of synthetic co-akermanite, Ca2CoSi2O7
;
loop_
_citation_id
_citation_journal_abbrev
_citation_year
_citation_journal_volume
_citation_page_first
_citation_page_last
_citation_journal_id_ASTM
primary 'Acta Crystallographica, Section B: Structural Science'
 1993 49 172 179 ASBSDK
_publ_author_name                  'Hagiya, K.;Ohmasa, M.;Iishi, K.'
_cell_length_a                     7.8417(6)
_cell_length_b                     7.8417(6)
_cell_length_c                     5.0249(3)
_cell_angle_alpha                  90.
_cell_angle_beta                   90.
_cell_angle_gamma                  90.
_cell_volume                       308.99
_cell_formula_units_Z              2
_symmetry_space_group_name_H-M     'P -4 21 m'
_symmetry_Int_Tables_number        113
_refine_ls_R_factor_all            .048
loop_
_symmetry_equiv_pos_site_id
_symmetry_equiv_pos_as_xyz
  1	'-y+.5, -x+.5, z'
  2	'y, -x, -z'
  3	'y+.5, x+.5, z'
  4	'-y, x, -z'
  5	'x+.5, -y+.5, -z'
  6	'-x, -y, z'
  7	'-x+.5, y+.5, -z'
  8	'x, y, z'
loop_
_atom_type_symbol
_atom_type_oxidation_number
Ca2+	2
Co2+	2
O2-	-2
Si4+	4
loop_
_atom_site_label
_atom_site_type_symbol
_atom_site_symmetry_multiplicity
_atom_site_Wyckoff_symbol
_atom_site_fract_x
_atom_site_fract_y
_atom_site_fract_z
_atom_site_occupancy
_atom_site_attached_hydrogens
Ca1 Ca2+ 4 e 0.3310(1) 0.1690(1) 0.5059(2) 1. 0 
Co1 Co2+ 2 a 0 0 0 1. 0 
Si1 Si4+ 4 e 0.1390(1) 0.3610(1) 0.9386(2) 1. 0 
O1 O2- 2 c 0 0.5 0.8229(10) 1. 0 
O2 O2- 4 e 0.1411(3) 0.3589(3) 0.2548(7) 1. 0 
O3 O2- 8 f 0.0800(4) 0.1894(3) 0.7854(5) 1. 0 

#End of data_72543-ICSD


