data_246091-ICSD
#?2014 by Fachinformationszentrum Karlsruhe, and the U.S. Secretary of 
#Commerce on behalf of the United States.  All rights reserved.
_database_code_ICSD                246091
_audit_creation_date               2009/02/01
_chemical_name_systematic          'Dicalcium Mangano(III)tantalate(V)'
_chemical_formula_structural       'Ca2 (Mn Ta O6)'
_chemical_formula_sum              'Ca2 Mn1 O6 Ta1'
_publ_section_title
;
Synthesis, structure and magnetic properties of A2 Mn B' O6 (A = Ca, 
Sr; B' = Sb, Ta)
;
loop_
_citation_id
_citation_journal_abbrev
_citation_year
_citation_journal_volume
_citation_journal_issue
_citation_page_first
_citation_page_last
_citation_journal_id_ASTM
primary 'Journal of Solid State Chemistry' 2008 181 9 2325 2331 JSSCBI
_publ_author_name
;
Mandal, T.K.;Poltavets, V.V.;Croft, M.;Greenblatt, M.
;
_cell_length_a                     5.4600(1)
_cell_length_b                     7.7200(1)
_cell_length_c                     5.5674(1)
_cell_angle_alpha                  90
_cell_angle_beta                   90.078(3)
_cell_angle_gamma                  90
_cell_volume                       234.67
_cell_formula_units_Z              2
_symmetry_space_group_name_H-M     'P 1 21/m 1'
_symmetry_Int_Tables_number        11
_refine_ls_R_factor_all            .038
loop_
_symmetry_equiv_pos_site_id
_symmetry_equiv_pos_as_xyz
  1	'x, -y+.5, z'
  2	'-x, -y, -z'
  3	'-x, y+.5, -z'
  4	'x, y, z'
loop_
_atom_type_symbol
_atom_type_oxidation_number
Ca2+	2
Mn3+	3
O2-	-2
Ta5+	5
loop_
_atom_site_label
_atom_site_type_symbol
_atom_site_symmetry_multiplicity
_atom_site_Wyckoff_symbol
_atom_site_fract_x
_atom_site_fract_y
_atom_site_fract_z
_atom_site_occupancy
_atom_site_attached_hydrogens
_atom_site_B_iso_or_equiv
Ca1 Ca2+ 2 e 0.017(2) 0.25 -0.039(2) 1. 0 0.5(3) 
Ca2 Ca2+ 2 e 0.496(2) 0.25 0.452(2) 1. 0 1.8(4) 
Mn1 Mn3+ 2 b 0.5 0 0 1. 0 0.1 
Ta1 Ta5+ 2 c 0 0 0.5 1. 0 0.1 
O1 O2- 2 e -0.072(5) 0.25 0.541(3) 1. 0 0.2(1) 
O2 O2- 2 e 0.603(5) 0.25 0.015(4) 1. 0 0.2(1) 
O3 O2- 4 f 0.208(3) 0.024(2) 0.209(3) 1. 0 0.2(1) 
O4 O2- 4 f 0.297(3) 0.059(2) 0.698(3) 1. 0 0.2(1) 

#End of data_246091-ICSD


