data_34614-ICSD
#?2014 by Fachinformationszentrum Karlsruhe, and the U.S. Secretary of 
#Commerce on behalf of the United States.  All rights reserved.
_database_code_ICSD                34614
_audit_creation_date               1980/12/31
_chemical_name_systematic          'Magnesium Silicon Nitride'
_chemical_formula_structural       'Mg Si N2'
_chemical_formula_sum              'Mg1 N2 Si1'
_publ_section_title
;
Verfeinerung der Struktur des Nitrids Mg Si N2 - eine 
Neutronenbeugungsuntersuchung
;
loop_
_citation_id
_citation_journal_abbrev
_citation_year
_citation_journal_volume
_citation_page_first
_citation_page_last
_citation_journal_id_ASTM
primary
;
Zeitschrift fuer Naturforschung, Teil B. Anorganische Chemie, 
Organische Chemie (33,1978-41,1986)
;
 1980 35 604 606 ZNBAD2
_publ_author_name
;
Wintenberger, M.;Tcheou, F.;David, J.;Lang, J.
;
_cell_length_a                     5.279
_cell_length_b                     6.476
_cell_length_c                     4.992
_cell_angle_alpha                  90.
_cell_angle_beta                   90.
_cell_angle_gamma                  90.
_cell_volume                       170.66
_cell_formula_units_Z              4
_symmetry_space_group_name_H-M     'P n a 21'
_symmetry_Int_Tables_number        33
_refine_ls_R_factor_all            .033
loop_
_symmetry_equiv_pos_site_id
_symmetry_equiv_pos_as_xyz
  1	'x+.5, -y+.5, z'
  2	'-x+.5, y+.5, z+.5'
  3	'-x, -y, z+.5'
  4	'x, y, z'
loop_
_atom_type_symbol
_atom_type_oxidation_number
Mg2+	2
N3-	-3
Si4+	4
loop_
_atom_site_label
_atom_site_type_symbol
_atom_site_symmetry_multiplicity
_atom_site_Wyckoff_symbol
_atom_site_fract_x
_atom_site_fract_y
_atom_site_fract_z
_atom_site_occupancy
_atom_site_attached_hydrogens
Mg1 Mg2+ 4 a 0.076(2) 0.625(5) 0.00(5) 1. 0 
Si1 Si4+ 4 a 0.072(2) 0.131(5) 0 1. 0 
N1 N3- 4 a 0.049(2) 0.095(2) 0.356(3) 1. 0 
N2 N3- 4 a 0.110(1) 0.652(4) 0.414(2) 1. 0 

#End of data_34614-ICSD


