data_26772-ICSD
#?2014 by Fachinformationszentrum Karlsruhe, and the U.S. Secretary of 
#Commerce on behalf of the United States.  All rights reserved.
_database_code_ICSD                26772
_audit_creation_date               1980/01/01
_audit_update_record               2010/08/01
_chemical_name_systematic
;
Magnesium Dipotassium Bis(sulfate(VI)) Hexahydrate
;
_chemical_formula_structural       'Mg K2 (S O4)2 (H2 O)6'
_chemical_formula_sum              'H12 K2 Mg1 O14 S2'
_chemical_name_mineral             Picromerite
_publ_section_title
;
Crystal structure of magnesium potassium sulfate hexahydrate Mg K2 (S 
O4)2 (H2 O)6
;
loop_
_citation_id
_citation_journal_abbrev
_citation_year
_citation_journal_volume
_citation_page_first
_citation_page_last
_citation_journal_id_ASTM
primary
;
Zeitschrift fuer Kristallographie, Kristallgeometrie, Kristallphysik, 
Kristallchemie (-144,1977)
;
 1965 122 161 174 ZEKGAX
_publ_author_name                  'Kannan, K.K.;Viswamitra, M.A.'
_cell_length_a                     9.072(15)
_cell_length_b                     12.212(15)
_cell_length_c                     6.113(15)
_cell_angle_alpha                  90.
_cell_angle_beta                   104.83
_cell_angle_gamma                  90.
_cell_volume                       654.68
_cell_formula_units_Z              2
_symmetry_space_group_name_H-M     'P 1 21/a 1'
_symmetry_Int_Tables_number        14
_refine_ls_R_factor_all            .102
loop_
_symmetry_equiv_pos_site_id
_symmetry_equiv_pos_as_xyz
  1	'x+.5, -y+.5, z'
  2	'-x, -y, -z'
  3	'-x+.5, y+.5, -z'
  4	'x, y, z'
loop_
_atom_type_symbol
_atom_type_oxidation_number
H1+	1
K1+	1
Mg2+	2
O2-	-2
S6+	6
loop_
_atom_site_label
_atom_site_type_symbol
_atom_site_symmetry_multiplicity
_atom_site_Wyckoff_symbol
_atom_site_fract_x
_atom_site_fract_y
_atom_site_fract_z
_atom_site_occupancy
_atom_site_attached_hydrogens
_atom_site_B_iso_or_equiv
Mg1 Mg2+ 2 a 0 0 0 1. 0 0.96 
K1 K1+ 4 e 0.131 0.346 0.345 1. 0 1.29 
S1 S6+ 4 e 0.41 0.137 -.271 1. 0 0.78 
O1 O2- 4 e 0.285 0.06 -.379 1. 0 1.46 
O2 O2- 4 e 0.403 0.232 -.431 1. 0 1.46 
O3 O2- 4 e 0.388 0.173 -.055 1. 0 1.46 
O4 O2- 4 e 0.553 0.08 -.242 1. 0 1.46 
O5 O2- 4 e 0.172 0.111 0.169 1. 0 1.46 
O6 O2- 4 e -.169 0.113 0.026 1. 0 1.46 
O7 O2- 4 e 0.004 0.066 -.307 1. 0 1.46 
H1 H1+ 4 e 0.243 0.127 0.102 1. 0 1.51 
H2 H1+ 4 e 0.214 0.095 0.327 1. 0 1.51 
H3 H1+ 4 e 0.139 -.176 -.02 1. 0 1.51 
H4 H1+ 4 e 0.27 -.094 0.063 1. 0 1.51 
H5 H1+ 4 e 0.013 -.15 0.321 1. 0 1.51 
H6 H1+ 4 e 0.104 0.06 -.335 1. 0 1.51 

#End of data_26772-ICSD


