data_9268-ICSD
#?2014 by Fachinformationszentrum Karlsruhe, and the U.S. Secretary of 
#Commerce on behalf of the United States.  All rights reserved.
_database_code_ICSD                9268
_audit_creation_date               1980/01/01
_audit_update_record               1985/04/19
_chemical_name_systematic
;
Zinc Oxovanadium(IV) Divanadate - Alpha
;
_chemical_formula_structural       'Zn V3 O8'
_chemical_formula_sum              'O8 V3 Zn1'
_publ_section_title
;
Alpha zinc vanadium(IV) divanadate(V), alpha-Zn V3 O8
;
loop_
_citation_id
_citation_journal_abbrev
_citation_year
_citation_journal_volume
_citation_page_first
_citation_page_last
_citation_journal_id_ASTM
primary 'Crystal Structure Communications' 1973 2 209 211 CSCMCS
_publ_author_name                  'Lloyd, D.J.;Galy, J.'
_cell_length_a                     14.298(5)
_cell_length_b                     9.908(3)
_cell_length_c                     8.430(3)
_cell_angle_alpha                  90.
_cell_angle_beta                   90.
_cell_angle_gamma                  90.
_cell_volume                       1194.23
_cell_formula_units_Z              8
_symmetry_space_group_name_H-M     'I b a 2'
_symmetry_Int_Tables_number        45
_refine_ls_R_factor_all            .042
loop_
_symmetry_equiv_pos_site_id
_symmetry_equiv_pos_as_xyz
  1	'x, -y, z+.5'
  2	'-x, y, z+.5'
  3	'-x, -y, z'
  4	'x, y, z'
  5	'x+.5, -y+.5, z'
  6	'-x+.5, y+.5, z'
  7	'-x+.5, -y+.5, z+.5'
  8	'x+.5, y+.5, z+.5'
loop_
_atom_type_symbol
_atom_type_oxidation_number
O2-	-2
V4+	4
V5+	5
Zn2+	2
loop_
_atom_site_label
_atom_site_type_symbol
_atom_site_symmetry_multiplicity
_atom_site_Wyckoff_symbol
_atom_site_fract_x
_atom_site_fract_y
_atom_site_fract_z
_atom_site_occupancy
_atom_site_attached_hydrogens
Zn1 Zn2+ 8 c 0.3465(3) 0.1683(3) 0.1694 1. 0 
V1 V4+ 8 c 0.0223(1) 0.1658(2) -.0221(9) 1. 0 
V2 V5+ 8 c 0.3469(3) 0.1660(4) 0.7890(2) 1. 0 
V3 V5+ 8 c 0.2017(1) 0.0574(1) 0.4809(10) 1. 0 
O1 O2- 8 c 0.0766(9) 0.2181(12) 0.1422(16) 1. 0 
O2 O2- 8 c 0.2339(12) 0.1488(17) 0.3179(22) 1. 0 
O3 O2- 8 c 0.0796(4) 0.0173(7) 0.4665(17) 1. 0 
O4 O2- 8 c 0.2309(15) 0.1437(21) 0.6462(30) 1. 0 
O5 O2- 8 c 0.0794(14) 0.2301(18) 0.8341(21) 1. 0 
O6 O2- 8 c 0.3905(5) 0.0148(12) 0.7369(18) 1. 0 
O7 O2- 8 c 0.2660(5) 0.0866(7) 0.9711(25) 1. 0 
O8 O2- 8 c 0.4169(5) 0.2266(7) 0.9888(22) 1. 0 

#End of data_9268-ICSD


