data_32744-ICSD
#?2014 by Fachinformationszentrum Karlsruhe, and the U.S. Secretary of 
#Commerce on behalf of the United States.  All rights reserved.
_database_code_ICSD                32744
_audit_creation_date               1981/12/31
_chemical_name_systematic
;
Yttrium Aluminium Pentaoxogermanate
;
_chemical_formula_structural       'Y Al Ge O5'
_chemical_formula_sum              'Al1 Ge1 O5 Y1'
_publ_section_title
;
Erste Seltene Erden-Aluminium-Germanate vom Typ RE Al Ge O5
;
loop_
_citation_id
_citation_journal_abbrev
_citation_year
_citation_journal_volume
_citation_page_first
_citation_page_last
_citation_journal_id_ASTM
primary Naturwissenschaften 1981 68 92 92 NATWAY
_publ_author_name                  'Jarchow, O.;Klaska, K.H.;Werk, M.'
_cell_length_a                     7.235
_cell_length_b                     8.338
_cell_length_c                     5.603
_cell_angle_alpha                  90.
_cell_angle_beta                   90.
_cell_angle_gamma                  90.
_cell_volume                       338
_cell_formula_units_Z              4
_symmetry_space_group_name_H-M     'P b a m'
_symmetry_Int_Tables_number        55
_refine_ls_R_factor_all            .0239
loop_
_symmetry_equiv_pos_site_id
_symmetry_equiv_pos_as_xyz
  1	'x+.5, -y+.5, z'
  2	'-x+.5, y+.5, z'
  3	'x, y, -z'
  4	'-x, -y, -z'
  5	'-x+.5, y+.5, -z'
  6	'x+.5, -y+.5, -z'
  7	'-x, -y, z'
  8	'x, y, z'
loop_
_atom_type_symbol
_atom_type_oxidation_number
Al3+	3
Ge4+	4
O2-	-2
Y3+	3
loop_
_atom_site_label
_atom_site_type_symbol
_atom_site_symmetry_multiplicity
_atom_site_Wyckoff_symbol
_atom_site_fract_x
_atom_site_fract_y
_atom_site_fract_z
_atom_site_occupancy
_atom_site_attached_hydrogens
Y1 Y3+ 4 g 0.3585(1) 0.3272 0 1. 0 
Ge1 Ge4+ 4 h 0.1181(1) 0.1438(1) 0.5 1. 0 
Al1 Al3+ 4 f 0.5 0 0.2505(2) 1. 0 
O1 O2- 4 g 0.3390(4) 0.0536(3) 0 1. 0 
O2 O2- 4 h 0.3451(6) 0.0683(7) 0.5 1. 0 
O3 O2- 8 i 0.1059(3) 0.2877(8) 0.2537(4) 1. 0 
O4 O2- 4 e 0 0 0.2839(5) 1. 0 

#End of data_32744-ICSD


