data_260253-ICSD
#?2014 by Fachinformationszentrum Karlsruhe, and the U.S. Secretary of 
#Commerce on behalf of the United States.  All rights reserved.
_database_code_ICSD                260253
_audit_creation_date               2009/08/01
_audit_update_record               2014/08/01
_chemical_name_systematic
;
Potassium Gadolinium Selenoarsenate (2/2/9/2)
;
_chemical_formula_structural       'K2 Gd2 As2 Se9'
_chemical_formula_sum              'As2 Gd2 K2 Se9'
_publ_section_title
;
K2 Ln2 As2 Se9 (Ln = Sm, Gd): The first quaternary rare-earth 
selenoarsenate compounds with a 3D framework containing chairlike As2 
Se4 units
;
loop_
_citation_id
_citation_journal_abbrev
_citation_year
_citation_journal_volume
_citation_journal_issue
_citation_page_first
_citation_page_last
_citation_journal_id_ASTM
primary 'Inorganic Chemistry' 2009 48 7 2729 2731 INOCAJ
_publ_author_name                  'Wu Yuan Dong;Bensch, W.'
_cell_length_a                     17.1836(4)
_cell_length_b                     8.3743(2)
_cell_length_c                     22.6192(5)
_cell_angle_alpha                  90.00
_cell_angle_beta                   90.00
_cell_angle_gamma                  90.00
_cell_volume                       3254.92
_cell_formula_units_Z              8
_symmetry_space_group_name_H-M     'P n m a'
_symmetry_Int_Tables_number        62
_refine_ls_R_factor_all            .0393
loop_
_symmetry_equiv_pos_site_id
_symmetry_equiv_pos_as_xyz
  1	'x+.5, y, -z+.5'
  2	'x, -y+.5, z'
  3	'-x+.5, y+.5, z+.5'
  4	'-x, -y, -z'
  5	'-x+.5, -y, z+.5'
  6	'-x, y+.5, -z'
  7	'x+.5, -y+.5, -z+.5'
  8	'x, y, z'
loop_
_atom_type_symbol
_atom_type_oxidation_number
As5+	5
Gd3+	3
K1+	1
Se2-	-2
loop_
_atom_site_label
_atom_site_type_symbol
_atom_site_symmetry_multiplicity
_atom_site_Wyckoff_symbol
_atom_site_fract_x
_atom_site_fract_y
_atom_site_fract_z
_atom_site_occupancy
_atom_site_attached_hydrogens
_atom_site_U_iso_or_equiv
Gd1 Gd3+ 8 d 0.25100(2) 0.50054(4) 0.068489(15) 1 0 0.02318(10) 
Gd2 Gd3+ 8 d 0.32598(2) 0.00330(4) 0.325331(16) 1 0 0.02359(10) 
As1 As5+ 4 c 0.06938(8) 0.2500 0.65338(5) 1 0 0.0268(2) 
As2 As5+ 4 c 0.37204(8) 0.2500 0.88497(5) 1 0 0.0284(2) 
As3 As5+ 4 c 0.15805(8) 0.2500 0.40354(5) 1 0 0.0260(2) 
As4 As5+ 4 c 0.39276(8) 0.2500 0.16544(5) 1 0 0.0269(2) 
Se1 Se2- 4 c 0.12747(7) 0.2500 0.55550(5) 1 0 0.0242(2) 
Se2 Se2- 8 d 0.03017(5) 0.54048(10) 0.35896(4) 1 0 0.02898(17) 
Se3 Se2- 4 c 0.29158(7) 0.2500 0.79713(5) 1 0 0.0250(2) 
Se4 Se2- 8 d 0.22877(5) 0.01679(9) 0.43519(3) 1 0 0.02593(17) 
Se5 Se2- 4 c 0.20602(7) 0.2500 0.30322(5) 1 0 0.0257(2) 
Se6 Se2- 8 d 0.31508(6) 0.02198(9) 0.18971(3) 1 0 0.02740(17) 
Se7 Se2- 4 c 0.37024(7) 0.2500 0.05906(5) 1 0 0.0253(2) 
Se8 Se2- 4 c 0.15015(8) 0.2500 0.01737(6) 1 0 0.0322(3) 
Se9 Se2- 4 c 0.15615(9) 0.2500 0.12195(6) 1 0 0.0333(3) 
Se10 Se2- 4 c 0.44298(7) 0.2500 0.29301(5) 1 0 0.0275(2) 
Se11 Se2- 4 c 0.40635(8) 0.2500 0.39452(5) 1 0 0.0296(2) 
Se12 Se2- 4 c 0.35739(8) 0.2500 0.53241(5) 1 0 0.0296(2) 
Se13 Se2- 4 c 0.33105(8) 0.2500 0.63512(5) 1 0 0.0302(3) 
Se14 Se2- 4 c 0.06737(7) 0.2500 0.78760(5) 1 0 0.0279(2) 
Se15 Se2- 4 c 0.58960(8) 0.2500 0.60816(5) 1 0 0.0301(2) 
K1 K1+ 8 d 0.08973(13) 0.0016(2) 0.22351(9) 1 0 0.0354(4) 
K2 K1+ 4 b 0.0000 0.0000 0.5000 1 0 0.0419(7) 
K3 K1+ 4 a 0.0000 0.0000 0.0000 1 0 0.0466(8) 

loop_
_atom_site_aniso_label
_atom_site_aniso_type_symbol
_atom_site_aniso_U_11
_atom_site_aniso_U_22
_atom_site_aniso_U_33
_atom_site_aniso_U_12
_atom_site_aniso_U_13
_atom_site_aniso_U_23
Gd1 Gd3+ 0.03233(19) 0.01665(17) 0.02055(16) -0.00015(14) -0.00019(13) 
-0.00012(13)
Gd2 Gd3+ 0.03304(19) 0.01689(17) 0.02083(17) -0.00010(14) -0.00039(13) 
0.00004(13)
As1 As5+ 0.0366(6) 0.0238(5) 0.0198(5) 0.000 0.0018(4) 0.000
As2 As5+ 0.0388(6) 0.0222(5) 0.0242(5) 0.000 -0.0022(5) 0.000
As3 As5+ 0.0335(6) 0.0214(5) 0.0232(5) 0.000 0.0004(5) 0.000
As4 As5+ 0.0363(6) 0.0205(5) 0.0239(5) 0.000 -0.0023(5) 0.000
Se1 Se2- 0.0315(5) 0.0203(5) 0.0208(5) 0.000 0.0012(4) 0.000
Se2 Se2- 0.0344(4) 0.0194(3) 0.0332(4) 0.0001(3) 0.0040(3) -0.0011(3)
Se3 Se2- 0.0317(5) 0.0197(5) 0.0237(5) 0.000 0.0006(4) 0.000
Se4 Se2- 0.0391(4) 0.0191(3) 0.0196(3) -0.0001(3) 0.0004(3) 0.0005(3)
Se5 Se2- 0.0345(6) 0.0204(5) 0.0221(5) 0.000 -0.0031(4) 0.000
Se6 Se2- 0.0425(4) 0.0200(3) 0.0196(3) -0.0013(3) -0.0023(3) 0.0004(3)
Se7 Se2- 0.0335(6) 0.0198(5) 0.0225(5) 0.000 0.0021(4) 0.000
Se8 Se2- 0.0419(7) 0.0242(5) 0.0305(6) 0.000 -0.0098(5) 0.000
Se9 Se2- 0.0474(7) 0.0234(5) 0.0292(6) 0.000 0.0099(5) 0.000
Se10 Se2- 0.0343(6) 0.0235(5) 0.0248(5) 0.000 0.0008(4) 0.000
Se11 Se2- 0.0423(6) 0.0251(5) 0.0214(5) 0.000 -0.0024(5) 0.000
Se12 Se2- 0.0381(6) 0.0237(5) 0.0270(5) 0.000 0.0050(5) 0.000
Se13 Se2- 0.0444(7) 0.0226(5) 0.0237(5) 0.000 -0.0059(5) 0.000
Se14 Se2- 0.0369(6) 0.0225(5) 0.0242(5) 0.000 -0.0045(5) 0.000
Se15 Se2- 0.0438(7) 0.0248(5) 0.0215(5) 0.000 -0.0038(5) 0.000
K1 K1+ 0.0472(11) 0.0275(9) 0.0316(9) 0.0021(8) 0.0030(8) 0.0012(7)
K2 K1+ 0.0569(17) 0.0309(13) 0.0378(14) 0.0016(13) -0.0173(13) -0.0041(11)
K3 K1+ 0.0417(15) 0.0270(13) 0.071(2) 0.0021(13) -0.0001(15) 0.0034(13)
#End of data_260253-ICSD


