data_68494-ICSD
#?2014 by Fachinformationszentrum Karlsruhe, and the U.S. Secretary of 
#Commerce on behalf of the United States.  All rights reserved.
_database_code_ICSD                68494
_audit_creation_date               1991/07/10
_audit_update_record               2009/08/01
_chemical_name_systematic          'Decalithium Tetrazinc Oxide'
_chemical_formula_structural       'Li10 (Zn4 O9)'
_chemical_formula_sum              'Li10 O9 Zn4'
_publ_section_title
;
Li10 Zn4 O9, eine neue Defektvariante der 
FlussspatstrukturVerzwilligung und systematische Verwaxhsung mit Li6 
Zn O4
;
loop_
_citation_id
_citation_journal_abbrev
_citation_year
_citation_journal_volume
_citation_page_first
_citation_page_last
_citation_journal_id_ASTM
primary 'Zeitschrift fuer Kristallographie (1979-2010)' 1999 214 550 557 ZEKRDZ
_publ_author_name
;
Henseler, U.;Jansen, M.;Yamamoto, N.
;
_cell_length_a                     9.7263(3)
_cell_length_b                     9.7263(3)
_cell_length_c                     4.6501(2)
_cell_angle_alpha                  90.
_cell_angle_beta                   90.
_cell_angle_gamma                  90.
_cell_volume                       439.9
_cell_formula_units_Z              2
_symmetry_space_group_name_H-M     'P 42/n m c Z'
_symmetry_Int_Tables_number        137
_refine_ls_R_factor_all            .0668
loop_
_symmetry_equiv_pos_site_id
_symmetry_equiv_pos_as_xyz
  1	'y+.5, x+.5, -z+.5'
  2	'-y, x+.5, -z+.5'
  3	'y+.5, -x, -z+.5'
  4	'-y, -x, -z+.5'
  5	'x+.5, y+.5, -z'
  6	'-x, y+.5, -z'
  7	'x+.5, -y, -z'
  8	'-x, -y, -z'
  9	'-y+.5, -x+.5, z+.5'
 10	'y, -x+.5, z+.5'
 11	'-y+.5, x, z+.5'
 12	'y, x, z+.5'
 13	'-x+.5, -y+.5, z'
 14	'x, -y+.5, z'
 15	'-x+.5, y, z'
 16	'x, y, z'
loop_
_atom_type_symbol
_atom_type_oxidation_number
Li1+	1
O2-	-2
Zn2+	2
loop_
_atom_site_label
_atom_site_type_symbol
_atom_site_symmetry_multiplicity
_atom_site_Wyckoff_symbol
_atom_site_fract_x
_atom_site_fract_y
_atom_site_fract_z
_atom_site_occupancy
_atom_site_attached_hydrogens
_atom_site_U_iso_or_equiv
Zn1 Zn2+ 8 g 0.08751(9) 0.75 0.0169(2) 1. 0 0.00329(1) 
O1 O2- 8 g 0.0953(3) 0.25 0.1823(6) 1. 0 0.00950(1) 
O2 O2- 2 b 0.75 0.25 0.25 1. 0 0.01209(1) 
O3 O2- 8 f 0.0765(3) -.0765(3) 0.25 1. 0 0.01084(1) 
Li1 Li1+ 4 d 0.75 0.75 0.087(1) 1. 0 0.01238(1) 
Li2 Li1+ 16 h -.1103(6) -.0652(6) 0.030(1) 1. 0 0.01176(1) 

#End of data_68494-ICSD


