data_191247-ICSD
#?2014 by Fachinformationszentrum Karlsruhe, and the U.S. Secretary of 
#Commerce on behalf of the United States.  All rights reserved.
_database_code_ICSD                191247
_audit_creation_date               2014/08/01
_chemical_name_systematic
;
Potassium Vanadium(IV) Oxide Trifluoride
;
_chemical_formula_structural       'K V O F3'
_chemical_formula_sum              'F3 K1 O1 V1'
_publ_section_title
;
Synthesis and magnetic properties of beta - K V O F3
;
loop_
_citation_id
_citation_journal_abbrev
_citation_year
_citation_journal_volume
_citation_journal_issue
_citation_page_first
_citation_page_last
_citation_journal_id_ASTM
primary 'Zeitschrift fuer Anorganische und Allgemeine Chemie (1950) (DE)'
 2014 640 6 1109 1114 ZAACAB
_publ_author_name
;
Donakowski, Martin D.;Lu, Hongcheng;Gautier, Romain;Saha, 
Rana;Sundaresan, A.;Poeppelmeier, Kenneth R.
;
_cell_length_a                     7.1596(2)
_cell_length_b                     7.5392(2)
_cell_length_c                     13.0506(4)
_cell_angle_alpha                  90.
_cell_angle_beta                   90.
_cell_angle_gamma                  90.
_cell_volume                       704.44
_cell_formula_units_Z              8
_symmetry_space_group_name_H-M     'P n m a'
_symmetry_Int_Tables_number        62
_refine_ls_R_factor_all            .0154
loop_
_symmetry_equiv_pos_site_id
_symmetry_equiv_pos_as_xyz
  1	'x+.5, y, -z+.5'
  2	'x, -y+.5, z'
  3	'-x+.5, y+.5, z+.5'
  4	'-x, -y, -z'
  5	'-x+.5, -y, z+.5'
  6	'-x, y+.5, -z'
  7	'x+.5, -y+.5, -z+.5'
  8	'x, y, z'
loop_
_atom_type_symbol
_atom_type_oxidation_number
F1-	-1
K1+	1
O2-	-2
V4+	4
loop_
_atom_site_label
_atom_site_type_symbol
_atom_site_symmetry_multiplicity
_atom_site_Wyckoff_symbol
_atom_site_fract_x
_atom_site_fract_y
_atom_site_fract_z
_atom_site_occupancy
_atom_site_attached_hydrogens
_atom_site_U_iso_or_equiv
V1 V4+ 8 d 0.1368(1) 0.4959(1) 0.3972(1) 1. 0 0.006(1) 
K1 K1+ 4 c -0.3229(1) 0.750 0.3556(1) 1. 0 0.009(1) 
K2 K1+ 4 c 0.4121(1) 0.750 0.5992(1) 1. 0 0.008(1) 
F1 F1- 4 c 0.0721(2) 0.750 0.3854(1) 1. 0 0.009(1) 
F2 F1- 8 d 0.3886(1) 0.5546(1) 0.4143(1) 1. 0 0.010(1) 
F3 F1- 4 c 0.2006(2) 0.250 0.4408(1) 1. 0 0.008(1) 
F4 F1- 8 d 0.1247(1) 0.5378(1) 0.5611(1) 1. 0 0.008(1) 
O1 O2- 8 d 0.1206(2) 0.4550(2) 0.2761(1) 1. 0 0.010(1) 

loop_
_atom_site_aniso_label
_atom_site_aniso_type_symbol
_atom_site_aniso_U_11
_atom_site_aniso_U_22
_atom_site_aniso_U_33
_atom_site_aniso_U_12
_atom_site_aniso_U_13
_atom_site_aniso_U_23
V1 V4+ 0.007(1) 0.006(1) 0.006(1) 0.000(1) 0.001(1) 0.000(1)
K1 K1+ 0.009(1) 0.009(1) 0.010(1) 0. 0.000(1) 0.
K2 K1+ 0.008(1) 0.008(1) 0.009(1) 0. 0.000(1) 0.
F1 F1- 0.010(1) 0.006(1) 0.013(1) 0. -0.001(1) 0.
F2 F1- 0.008(1) 0.009(1) 0.012(1) -0.001(1) 0.001(1) 0.000(1)
F3 F1- 0.010(1) 0.006(1) 0.008(1) 0. -0.001(1) 0.
F4 F1- 0.008(1) 0.009(1) 0.007(1) 0.000(1) 0.000(1) 0.000(1)
O1 O2- 0.014(1) 0.009(1) 0.008(1) 0.000(1) 0.000(1) 0.000(1)
#End of data_191247-ICSD


