data_413719-ICSD
#?2014 by Fachinformationszentrum Karlsruhe, and the U.S. Secretary of 
#Commerce on behalf of the United States.  All rights reserved.
_database_code_ICSD                413719
_audit_creation_date               2006/10/01
_audit_update_record               2007/08/01
_chemical_name_systematic
;
Tetrarubidium Lithium Trihydrogen Tetrakis(sulfate(VI))
;
_chemical_formula_structural       'Rb4 Li H3 (S O4)4'
_chemical_formula_sum              'H3 Li1 O16 Rb4 S4'
_publ_section_title
;
X-ray and neutron diffraction studies of Rb4 Li H3 (X O4)4 (X = S, 
Se) single crystals
;
loop_
_citation_id
_citation_journal_abbrev
_citation_year
_citation_journal_volume
_citation_page_first
_citation_page_last
_citation_journal_id_ASTM
primary Kristallografiya 2004 49 1066 1072 KRISAJ
2 'Crystallography Reports' 2004 49 969 974 CYSTE3
3 'Golden Book of Phase Transitions, Wroclaw' 2002 1 1 123 GBOPT5
_publ_author_name
;
Troyanov, S.I.;Snigireva, E.M.;Ling, C.-D.
;
_cell_length_a                     7.6699(2)
_cell_length_b                     7.6699(2)
_cell_length_c                     29.7120(10)
_cell_angle_alpha                  90.00
_cell_angle_beta                   90.00
_cell_angle_gamma                  90.00
_cell_volume                       1747.88
_cell_formula_units_Z              4
_symmetry_space_group_name_H-M     'P 41'
_symmetry_Int_Tables_number        76
_refine_ls_R_factor_all            .0962
loop_
_symmetry_equiv_pos_site_id
_symmetry_equiv_pos_as_xyz
  1	'y, -x, z+.75'
  2	'-y, x, z+.25'
  3	'-x, -y, z+.5'
  4	'x, y, z'
loop_
_atom_type_symbol
_atom_type_oxidation_number
H1+	1
Li1+	1
O2-	-2
Rb1+	1
S6+	6
loop_
_atom_site_label
_atom_site_type_symbol
_atom_site_symmetry_multiplicity
_atom_site_Wyckoff_symbol
_atom_site_fract_x
_atom_site_fract_y
_atom_site_fract_z
_atom_site_occupancy
_atom_site_attached_hydrogens
_atom_site_U_iso_or_equiv
Rb1 Rb1+ 4 a 0.1341(3) 0.1144(3) 0.53925(7) 1 0 0.0507(5) 
Rb2 Rb1+ 4 a 0.4406(3) 0.6134(3) 0.55078(6) 1 0 0.0509(5) 
Rb3 Rb1+ 4 a 0.5303(3) 0.0282(3) 0.66734(7) 1 0 0.0534(5) 
Rb4 Rb1+ 4 a 0.0249(3) 0.7201(3) 0.65848(6) 1 0 0.0502(5) 
S1 S6+ 4 a 0.0420(5) 0.1974(6) 0.66675(13) 1 0 0.0383(9) 
S2 S6+ 4 a 0.5097(5) 0.5350(6) 0.67062(12) 1 0 0.0349(8) 
S3 S6+ 4 a 0.9098(5) 0.6234(6) 0.79030(13) 1 0 0.0378(9) 
S4 S6+ 4 a 1.3770(5) 0.9645(6) 0.78942(14) 1 0 0.0375(8) 
O1 O2- 4 a -0.1028(4) 0.0977(4) 0.68463(11) 1 0 0.0629(7) 
O2 O2- 4 a 0.1677(4) 0.0837(4) 0.64466(11) 1 0 0.0646(8) 
O3 O2- 4 a -0.0083(4) 0.3389(4) 0.63858(12) 1 0 0.0677(8) 
O4 O2- 4 a 0.1301(5) 0.2748(5) 0.70925(9) 1 0 0.0661(9) 
O5 O2- 4 a 0.4013(4) 0.6675(4) 0.64902(10) 1 0 0.0617(8) 
O6 O2- 4 a 0.5729(4) 0.4128(4) 0.63655(10) 1 0 0.0599(7) 
O7 O2- 4 a 0.4174(4) 0.4384(5) 0.70542(8) 1 0 0.0699(10) 
O8 O2- 4 a 0.6568(4) 0.6300(4) 0.69255(10) 1 0 0.0616(8) 
O9 O2- 4 a 1.0120(5) 0.4942(5) 0.81345(12) 1 0 0.0729(9) 
O10 O2- 4 a 0.8449(4) 0.7512(4) 0.82132(13) 1 0 0.0730(9) 
O11 O2- 4 a 0.7609(4) 0.5261(4) 0.76810(10) 1 0 0.0599(8) 
O12 O2- 4 a 1.0071(5) 0.7092(6) 0.75507(9) 1 0 0.0856(14) 
O13 O2- 4 a 1.5220(4) 1.0601(4) 0.77086(10) 1 0 0.0604(7) 
O14 O2- 4 a 1.2479(4) 1.0755(4) 0.80938(9) 1 0 0.0566(7) 
O15 O2- 4 a 1.4234(4) 0.8226(4) 0.81919(10) 1 0 0.0614(7) 
O16 O2- 4 a 1.2929(4) 0.8782(4) 0.74712(8) 1 0 0.0588(8) 
H1 H1+ 4 a 0.2359(6) 0.3387(6) 0.70337(14) 1 0 0.0578(10) 
H2 H1+ 4 a 0.7104(8) 0.5766(8) 0.7318(2) 1 0 0.0798(14) 
H3 H1+ 4 a 1.1853(7) 0.8128(6) 0.75421(14) 1 0 0.0619(11) 
Li1 Li1+ 4 a 0.7832(8) 0.3658(8) 0.6036(3) 1 0 0.0425(12) 

loop_
_atom_site_aniso_label
_atom_site_aniso_type_symbol
_atom_site_aniso_U_11
_atom_site_aniso_U_22
_atom_site_aniso_U_33
_atom_site_aniso_U_12
_atom_site_aniso_U_13
_atom_site_aniso_U_23
Rb1 Rb1+ 0.0525(10) 0.0459(10) 0.0537(11) 0.0030(7) 0.0028(8) 0.0030(8)
Rb2 Rb1+ 0.0477(10) 0.0626(12) 0.0423(9) 0.0040(8) -0.0038(8) -0.0106(9)
Rb3 Rb1+ 0.0442(10) 0.0595(11) 0.0565(11) -0.0037(8) -0.0028(8) 0.0040(9)
Rb4 Rb1+ 0.0614(11) 0.0487(10) 0.0405(10) -0.0053(8) 0.0075(8) -0.0064(8)
S1 S6+ 0.0302(18) 0.046(2) 0.0384(19) -0.0024(15) -0.0065(15) -0.0010(17)
S2 S6+ 0.037(2) 0.048(2) 0.0198(16) -0.0087(16) -0.0012(14) 0.0012(14)
S3 S6+ 0.0298(18) 0.053(2) 0.0308(19) 0.0004(15) -0.0036(15) 0.0036(16)
S4 S6+ 0.0283(17) 0.046(2) 0.038(2) -0.0024(15) -0.0017(15) 0.0059(17)
O1 O2- 0.0487(14) 0.0669(16) 0.0731(18) -0.0190(12) 0.0049(13) 0.0017(14)
O2 O2- 0.0541(15) 0.0680(17) 0.0719(19) 0.0104(13) 0.0071(13) -0.0097(14)
O3 O2- 0.0627(16) 0.0495(14) 0.091(2) -0.0033(11) -0.0321(16) 0.0222(14)
O4 O2- 0.0674(19) 0.091(2) 0.0404(13) -0.0276(17) -0.0052(12) -0.0047(13)
O5 O2- 0.0658(17) 0.0573(15) 0.0619(16) 0.0194(12) -0.0144(13) -0.0068(12)
O6 O2- 0.0607(15) 0.0560(15) 0.0629(15) 0.0074(12) 0.0220(13) -0.0075(12)
O7 O2- 0.0673(18) 0.111(2) 0.0314(12) -0.0475(18) 0.0031(11) 0.0060(13)
O8 O2- 0.0541(15) 0.0724(17) 0.0585(15) -0.0253(13) -0.0148(12) 0.0128(13)
O9 O2- 0.0708(19) 0.0673(18) 0.080(2) 0.0196(13) -0.0289(16) -0.0014(15)
O10 O2- 0.0692(18) 0.0560(16) 0.094(2) 0.0047(13) 0.0281(17) -0.0206(16)
O11 O2- 0.0528(14) 0.0717(16) 0.0552(15) -0.0261(12) -0.0153(12) 0.0131(12)
O12 O2- 0.083(2) 0.141(3) 0.0332(13) -0.064(2) 0.0062(12) 0.0042(16)
O13 O2- 0.0479(14) 0.0644(15) 0.0690(17) -0.0170(11) 0.0034(12) 0.0005(13)
O14 O2- 0.0563(14) 0.0605(15) 0.0531(14) 0.0128(11) 0.0008(11) -0.0061(12)
O15 O2- 0.0599(15) 0.0546(15) 0.0697(16) 0.0046(11) -0.0223(13) 0.0137(12)
O16 O2- 0.0587(17) 0.081(2) 0.0366(12) -0.0197(15) -0.0049(10) -0.0099(12)
H1 H1+ 0.061(3) 0.063(2) 0.049(2) -0.006(2) -0.0134(19) -0.0051(18)
H2 H1+ 0.059(2) 0.081(3) 0.099(4) -0.033(2) 0.009(2) -0.019(3)
H3 H1+ 0.068(3) 0.066(2) 0.052(2) -0.013(2) -0.015(2) -0.0036(19)
Li1 Li1+ 0.029(3) 0.043(4) 0.055(3) -0.002(3) -0.005(2) 0.004(3)
#End of data_413719-ICSD


