data_202658-ICSD
#?2014 by Fachinformationszentrum Karlsruhe, and the U.S. Secretary of 
#Commerce on behalf of the United States.  All rights reserved.
_database_code_ICSD                202658
_audit_creation_date               1989/06/19
_audit_update_record               2008/02/01
_chemical_name_systematic          'Dialuminium Tris(molybdate)'
_chemical_formula_structural       'Al2 (Mo O4)3'
_chemical_formula_sum              'Al2 Mo3 O12'
_publ_section_title
;
The crystal structure of aluminium molybdate, Al2 (M O4)3, determined 
by time-of-flight powder neutron diffraction
;
loop_
_citation_id
_citation_journal_abbrev
_citation_year
_citation_journal_volume
_citation_page_first
_citation_page_last
_citation_journal_id_ASTM
primary 'Journal of Solid State Chemistry' 1988 76 328 333 JSSCBI
2 'Golden Book of Phase Transitions, Wroclaw' 2002 1 1 123 GBOPT5
_publ_author_name
;
Harrison, W.T.A.;Cheetham, A.K.;Faber, J.jr
;
_cell_length_a                     15.3803(9)
_cell_length_b                     9.0443(1)
_cell_length_c                     17.888(1)
_cell_angle_alpha                  90.
_cell_angle_beta                   125.382(2)
_cell_angle_gamma                  90.
_cell_volume                       2028.73
_cell_formula_units_Z              8
_symmetry_space_group_name_H-M     'P 1 21/a 1'
_symmetry_Int_Tables_number        14
_refine_ls_R_factor_all            .034
loop_
_symmetry_equiv_pos_site_id
_symmetry_equiv_pos_as_xyz
  1	'x+.5, -y+.5, z'
  2	'-x, -y, -z'
  3	'-x+.5, y+.5, -z'
  4	'x, y, z'
loop_
_atom_type_symbol
_atom_type_oxidation_number
Al3+	3
Mo6+	6
O2-	-2
loop_
_atom_site_label
_atom_site_type_symbol
_atom_site_symmetry_multiplicity
_atom_site_Wyckoff_symbol
_atom_site_fract_x
_atom_site_fract_y
_atom_site_fract_z
_atom_site_occupancy
_atom_site_attached_hydrogens
_atom_site_B_iso_or_equiv
Al1 Al3+ 4 e 0.381(1) 0.974(2) 0.313(1) 1. 0 0.85(14) 
Al2 Al3+ 4 e 0.373(1) 0.454(2) 0.050(1) 1. 0 0.85(14) 
Al3 Al3+ 4 e 0.117(1) 0.471(2) 0.179(1) 1. 0 0.85(14) 
Al4 Al3+ 4 e 0.109(1) 0.979(2) 0.420(1) 1. 0 0.85(14) 
Mo1 Mo6+ 4 e -.0035(8) 0.247(1) 0.4888(6) 1. 0 1.31(5) 
Mo2 Mo6+ 4 e 0.3580(7) 0.122(1) 0.1318(6) 1. 0 1.31(5) 
Mo3 Mo6+ 4 e 0.1433(7) 0.111(1) 0.2563(6) 1. 0 1.31(5) 
Mo4 Mo6+ 4 e 0.1470(8) 0.618(1) 0.3805(6) 1. 0 1.31(5) 
Mo5 Mo6+ 4 e 0.3531(8) 0.626(1) 0.2194(6) 1. 0 1.31(5) 
Mo6 Mo6+ 4 e 0.0026(8) 0.745(1) 0.0180(8) 1. 0 1.31(5) 
O1 O2- 4 e 0.5802(8) 0.392(1) -.0095(7) 1. 0 1.44(4) 
O2 O2- 4 e 0.9897(9) 0.417(1) 0.1676(8) 1. 0 1.44(4) 
O3 O2- 4 e 0.831(1) 0.190(1) 0.0958(7) 1. 0 1.44(4) 
O4 O2- 4 e 0.7655(9) 0.501(1) 0.0460(8) 1. 0 1.44(4) 
O5 O2- 4 e 0.5200(8) 0.431(1) 0.1482(7) 1. 0 1.44(4) 
O6 O2- 4 e 0.7358(9) 0.515(1) 0.2727(7) 1. 0 1.44(4) 
O7 O2- 4 e 0.4176(8) 0.115(1) 0.4036(7) 1. 0 1.44(4) 
O8 O2- 4 e 0.1798(9) 0.292(1) 0.2506(7) 1. 0 1.44(4) 
O9 O2- 4 e 0.5554(9) 0.361(1) 0.4471(7) 1. 0 1.44(4) 
O10 O2- 4 e 0.3909(9) 0.320(1) 0.9845(7) 1. 0 1.44(4) 
O11 O2- 4 e 0.0715(8) 0.372(1) 0.0737(7) 1. 0 1.44(4) 
O12 O2- 4 e 0.4116(9) 0.358(1) 0.5020(8) 1. 0 1.44(4) 
O13 O2- 4 e 0.8607(9) 0.395(1) 0.2314(7) 1. 0 1.44(4) 
O14 O2- 4 e 0.2500(9) 0.020(1) 0.5183(7) 1. 0 1.44(4) 
O15 O2- 4 e 0.127(1) 0.098(1) 0.3445(7) 1. 0 1.44(4) 
O16 O2- 4 e 0.525(1) 0.937(1) 0.3562(7) 1. 0 1.44(4) 
O17 O2- 4 e 0.745(1) 0.972(1) 0.2013(7) 1. 0 1.44(4) 
O18 O2- 4 e 0.662(1) 0.930(1) 0.2946(8) 1. 0 1.44(4) 
O19 O2- 4 e 0.973(1) 0.943(1) 0.3225(8) 1. 0 1.44(4) 
O20 O2- 4 e 0.0974(9) 0.327(1) 0.5927(7) 1. 0 1.44(4) 
O21 O2- 4 e 0.1607(9) 0.803(1) 0.3970(8) 1. 0 1.44(4) 
O22 O2- 4 e 0.053(1) 0.646(1) 0.1197(8) 1. 0 1.44(4) 
O23 O2- 4 e 0.3620(9) 0.599(1) 0.1236(7) 1. 0 1.44(4) 
O24 O2- 4 e 0.3415(8) 0.817(1) 0.2307(7) 1. 0 1.44(4) 

#End of data_202658-ICSD


