data_39585-ICSD
#?2014 by Fachinformationszentrum Karlsruhe, and the U.S. Secretary of 
#Commerce on behalf of the United States.  All rights reserved.
_database_code_ICSD                39585
_audit_creation_date               1993/08/22
_audit_update_record               2012/08/01
_chemical_name_systematic          'Potassium Tantalum Oxide Germanate'
_chemical_formula_structural       'K Ta O (Ge O4)'
_chemical_formula_sum              'Ge1 K1 O5 Ta1'
_publ_section_title
;
Crystal structures of K Ta O Ge O4 and Rb Sb O Ge O4.
;
loop_
_citation_id
_citation_journal_abbrev
_citation_year
_citation_journal_volume
_citation_page_first
_citation_page_last
_citation_journal_id_ASTM
primary 'Zhurnal Neorganicheskoi Khimii' 1992 37 998 1003 ZNOKAQ
2 'Golden Book of Phase Transitions, Wroclaw' 2002 1 1 123 GBOPT5
3 'Russian Journal of Inorganic Chemistry' 1992 37 502 505 RJICAQ
_publ_author_name
;
Belokoneva, E.L.;Mill', B.V.
;
_cell_length_a                     13.386(3)
_cell_length_b                     6.658(2)
_cell_length_c                     10.997(2)
_cell_angle_alpha                  90.
_cell_angle_beta                   90.
_cell_angle_gamma                  90.
_cell_volume                       980.1
_cell_formula_units_Z              8
_symmetry_space_group_name_H-M     'P n a 21'
_symmetry_Int_Tables_number        33
_refine_ls_R_factor_all            .033
loop_
_symmetry_equiv_pos_site_id
_symmetry_equiv_pos_as_xyz
  1	'x+.5, -y+.5, z'
  2	'-x+.5, y+.5, z+.5'
  3	'-x, -y, z+.5'
  4	'x, y, z'
loop_
_atom_type_symbol
_atom_type_oxidation_number
Ge4+	4
K1+	1
O2-	-2
Ta5+	5
loop_
_atom_site_label
_atom_site_type_symbol
_atom_site_symmetry_multiplicity
_atom_site_Wyckoff_symbol
_atom_site_fract_x
_atom_site_fract_y
_atom_site_fract_z
_atom_site_occupancy
_atom_site_attached_hydrogens
K1 K1+ 4 a 0.3743(4) 0.7744(7) 0.6985(6) 1. 0 
K2 K1+ 4 a 0.1098(4) 0.7074(8) 0.9360(6) 1. 0 
Ta1 Ta5+ 4 a 0.24424(4) 0.26014(10) 0.75345(17) 1. 0 
Ta2 Ta5+ 4 a 0.38403(4) 0.50453(14) 0 1. 0 
Ge1 Ge4+ 4 a 0.49566(15) 0.3222(2) 0.7478 1. 0 
Ge2 Ge4+ 4 a 0.18216(10) 0.5047(4) 0.4971(3) 1. 0 
O1 O2- 4 a 0.4888(12) 0.4934(26) 0.8667(13) 1. 0 
O2 O2- 4 a 0.9944(12) 0.9660(28) 0.1125(13) 1. 0 
O3 O2- 4 a 0.3888(10) 0.1831(20) 0.7324(17) 1. 0 
O4 O2- 4 a 0.8987(4) 0.6678(19) 0.2699(15) 1. 0 
O5 O2- 4 a 0.1078(10) 0.3044(18) 0.4610(14) 1. 0 
O6 O2- 4 a 0.6073(11) 0.7851(18) 0.5277(14) 1. 0 
O7 O2- 4 a 0.2652(13) 0.5442(25) 0.3739(14) 1. 0 
O8 O2- 4 a 0.7565(14) 0.0382(27) 0.6209(14) 1. 0 
O9 O2- 4 a 0.2225(12) 0.9577(23) 0.3742(14) 1. 0 
O10 O2- 4 a 0.7114(11) 0.4408(25) 0.6218(16) 1. 0 

loop_
_atom_site_aniso_label
_atom_site_aniso_type_symbol
_atom_site_aniso_B_11
_atom_site_aniso_B_22
_atom_site_aniso_B_33
_atom_site_aniso_B_12
_atom_site_aniso_B_13
_atom_site_aniso_B_23
K1 K1+ 2.55(19) 1.15(14) 2.60(19) 0.26(14) -.74(16) -.35(14)
K2 K1+ 1.39(14) 1.74(16) 3.37(24) 0.30(14) 0.04(17) 0.10(16)
Ta1 Ta5+ 0.38(1) 0.48(1) 0.41(1) -.02(1) -.04(2) 0.02(2)
Ta2 Ta5+ 0.48(1) 0.38(1) 0.41(1) -.02(3) 0.04(2) -.04(2)
Ge1 Ge4+ 0.36(4) 0.49 0.53(5) -.01(4) 0.06(4) 0.02(7)
Ge2 Ge4+ 0.69(3) 0.44(3) 0.55(4) -.05(6) 0.05(6) 0.00(4)
O1 O2- 1.0(4) 1.2(5) 0.8(4) -.5(4) 0.6(3) -.7(4)
O2 O2- 1.3(5) 1.4(5) 0.7(4) -.5(4) 0.7(4) -.1(4)
O3 O2- 0.8(4) 0.7(3) 1.5(6) 0.6(3) -.2(4) -.2(4)
O4 O2- 0.6(3) 0.8(3) 0.8(5) -.1(2) -.5(3) 0.1(3)
O5 O2- 1.0(4) 0.2(3) 1.1(5) 0.1(3) 0.2(3) 0.2(3)
O6 O2- 1.3(4) 0.1(2) 1.1(4) -.2(3) 0.4(4) -.3(3)
O7 O2- 0.6(4) 0.9(4) 0.6(4) 0.3(3) 0.3(4) 0.4(3)
O8 O2- 1.2(6) 1.3(4) 0.3(4) 0.3(4) 0.1(4) -.5(3)
O9 O2- 0.8(4) 0.5(3) 0.4(4) -.5(3) 0.5(3) -.2(3)
O10 O2- 0.3(3) 0.9(4) 1.4(5) 0.0(3) -.4(4) 0.2(4)
#End of data_39585-ICSD


