data_85491-ICSD
#?2014 by Fachinformationszentrum Karlsruhe, and the U.S. Secretary of 
#Commerce on behalf of the United States.  All rights reserved.
_database_code_ICSD                85491
_audit_creation_date               1999/06/02
_chemical_name_systematic          'Potassium Nitrate(V) - Iv'
_chemical_formula_structural       'K (N O3)'
_chemical_formula_sum              'K1 N1 O3'
_publ_section_title
;
Structure of high-pressure K N O3 - IV
;
loop_
_citation_id
_citation_journal_abbrev
_citation_year
_citation_journal_volume
_citation_page_first
_citation_page_last
_citation_journal_id_ASTM
primary 'Physica B and C (Netherland) (79,1975-)' 1986 136 503 506 PHBCDQ
_publ_author_name
;
Worlton, T.G.;Decker, D.L.;Jorgensen, J.D.;Kleb, R.
;
_cell_length_a                     7.4867(2)
_cell_length_b                     5.5648(2)
_cell_length_c                     6.7629(2)
_cell_angle_alpha                  90.
_cell_angle_beta                   90.
_cell_angle_gamma                  90.
_cell_volume                       281.76
_cell_formula_units_Z              4
_symmetry_space_group_name_H-M     'P n m a'
_symmetry_Int_Tables_number        62
_refine_ls_R_factor_all            .041
loop_
_symmetry_equiv_pos_site_id
_symmetry_equiv_pos_as_xyz
  1	'x+.5, y, -z+.5'
  2	'x, -y+.5, z'
  3	'-x+.5, y+.5, z+.5'
  4	'-x, -y, -z'
  5	'-x+.5, -y, z+.5'
  6	'-x, y+.5, -z'
  7	'x+.5, -y+.5, -z+.5'
  8	'x, y, z'
loop_
_atom_type_symbol
_atom_type_oxidation_number
K1+	1
N5+	5
O2-	-2
loop_
_atom_site_label
_atom_site_type_symbol
_atom_site_symmetry_multiplicity
_atom_site_Wyckoff_symbol
_atom_site_fract_x
_atom_site_fract_y
_atom_site_fract_z
_atom_site_occupancy
_atom_site_attached_hydrogens
_atom_site_B_iso_or_equiv
K1 K1+ 4 c 0.4863(5) 0.25 0.6897(5) 1. 0 1.32(7) 
N1 N5+ 4 c 0.3465(2) 0.25 0.1321(2) 1. 0 1.09(3) 
O1 O2- 4 c 0.4411(3) 0.25 0.2806(4) 1. 0 1.46(5) 
O2 O2- 8 d 0.2985(3) 0.4432(3) 0.0556(3) 1. 0 1.64(3) 

#End of data_85491-ICSD


