data_95408-ICSD
#?2014 by Fachinformationszentrum Karlsruhe, and the U.S. Secretary of 
#Commerce on behalf of the United States.  All rights reserved.
_database_code_ICSD                95408
_audit_creation_date               2003/10/01
_chemical_name_systematic          'Beryllium Hexaaluminate'
_chemical_formula_structural       'Be (Al6 O10)'
_chemical_formula_sum              'Al6 Be1 O10'
_publ_section_title
;
Growth and crystal structure of the Be Al6 O10 single crystals
;
loop_
_citation_id
_citation_journal_abbrev
_citation_year
_citation_journal_volume
_citation_page_first
_citation_page_last
_citation_journal_id_ASTM
primary 'Journal of Crystal Growth' 2002 237 884 889 JCRGAE
_publ_author_name
;
Alimpiev, A.I.;Merkulov, A.A.;Solntsev, V.P.;Tsvetkov, E.G.;Matrosov, 
V.N.;Pestryakov, E.V.
;
_cell_length_a                     8.924
_cell_length_b                     13.8123
_cell_length_c                     9.5483
_cell_angle_alpha                  90
_cell_angle_beta                   90.026
_cell_angle_gamma                  90
_cell_volume                       1176.93
_cell_formula_units_Z              8
_symmetry_space_group_name_H-M     'P 1 21/c 1'
_symmetry_Int_Tables_number        14
_refine_ls_R_factor_all            .027
loop_
_symmetry_equiv_pos_site_id
_symmetry_equiv_pos_as_xyz
  1	'x, -y+.5, z+.5'
  2	'-x, -y, -z'
  3	'-x, y+.5, -z+.5'
  4	'x, y, z'
loop_
_atom_type_symbol
_atom_type_oxidation_number
Al3+	3
Be2+	2
O2-	-2
loop_
_atom_site_label
_atom_site_type_symbol
_atom_site_symmetry_multiplicity
_atom_site_Wyckoff_symbol
_atom_site_fract_x
_atom_site_fract_y
_atom_site_fract_z
_atom_site_occupancy
_atom_site_attached_hydrogens
_atom_site_U_iso_or_equiv
O1 O2- 4 e 0.24544 0.15011 -.02958 1. 0 0.00443 
O2 O2- 4 e 0.49190 0.15329 0.62039 1. 0 0.00432 
O3 O2- 4 e 0.25311 0.84903 0.71790 1. 0 0.00438 
O4 O2- 4 e 0.25898 -.05196 0.46096 1. 0 0.00473 
O5 O2- 4 e 0.50644 0.04970 0.89201 1. 0 0.00468 
O6 O2- 4 e 0.00802 0.04969 0.36243 1. 0 0.00460 
O7 O2- 4 e 0.00868 0.84445 0.36917 1. 0 0.00468 
O8 O2- 4 e -.00458 0.25679 0.36884 1. 0 0.00418 
O9 O2- 4 e 0.49569 0.25691 0.88317 1. 0 0.00428 
O10 O2- 4 e 0.75840 0.14870 0.78925 1. 0 0.00405 
O11 O2- 4 e -.01999 0.14641 0.12334 1. 0 0.00416 
O12 O2- 4 e 0.24921 0.05352 0.19985 1. 0 0.00416 
O13 O2- 4 e 0.24471 0.23792 0.20595 1. 0 0.00456 
O14 O2- 4 e 0.26041 0.14984 0.46098 1. 0 0.00402 
O15 O2- 4 e 0.24504 0.05570 0.70967 1. 0 0.00478 
O16 O2- 4 e 0.47972 0.14854 0.12852 1. 0 0.00423 
O17 O2- 4 e 0.74521 0.23865 0.04535 1. 0 0.00443 
O18 O2- 4 e 0.50281 0.05921 0.39476 1. 0 0.00434 
O19 O2- 4 e 0.00046 0.05904 0.85202 1. 0 0.00438 
O20 O2- 4 e 0.24821 -.05548 -.05276 1. 0 0.00432 
Al1 Al3+ 4 e 0.13010 0.74841 0.29439 1. 0 0.00384 
Al2 Al3+ 4 e 0.85946 0.04197 0.69264 1. 0 0.00411 
Al3 Al3+ 4 e 0.37015 0.25164 0.54561 1. 0 0.00376 
Al4 Al3+ 4 e 0.36574 0.04257 0.55861 1. 0 0.00385 
Al5 Al3+ 4 e 0.63470 -.03967 0.96995 1. 0 0.00417 
Al6 Al3+ 4 e 0.64648 0.15536 0.46113 1. 0 0.00405 
Al7 Al3+ 4 e 0.12886 -.04124 0.77973 1. 0 0.00415 
Al8 Al3+ 4 e 0.14562 0.15585 0.79043 1. 0 0.00407 
Al9 Al3+ 4 e 0.05856 0.14942 0.45885 1. 0 0.00373 
Al10 Al3+ 4 e 0.55667 0.14894 0.79453 1. 0 0.00370 
Al11 Al3+ 4 e 0.37678 0.14049 0.29508 1. 0 0.00385 
Al12 Al3+ 4 e 0.87706 0.14065 -.04509 1. 0 0.00406 
Be1 Be2+ 4 e 0.15566 0.14410 0.12541 1. 0 0.00575 
Be2 Be2+ 4 e 0.65558 0.14503 0.12777 1. 0 0.00626 

#End of data_95408-ICSD


