data_162100-ICSD
#?2014 by Fachinformationszentrum Karlsruhe, and the U.S. Secretary of 
#Commerce on behalf of the United States.  All rights reserved.
_database_code_ICSD                162100
_audit_creation_date               2009/08/01
_chemical_name_systematic          'Calcium Tricopper Tetrastannate'
_chemical_formula_structural       'Ca Cu3 (Sn4 O12)'
_chemical_formula_sum              'Ca1 Cu3 O12 Sn4'
_publ_section_title
;
Structural and magnetic properties of A-site-ordered perovskites A 
Cu3 Sn4 O12 with A= Ca(2+), Sr(2+) and Pb(2+)
;
loop_
_citation_id
_citation_journal_abbrev
_citation_year
_citation_journal_volume
_citation_page_first
_citation_page_last
_citation_journal_id_ASTM
primary 'Chemistry of Materials' 2008 20 7077 7080 CMATEX
_publ_author_name
;
Shiraki, H.;Saito, T.;Shimakawa, Y.
;
_cell_length_a                     7.64240(8)
_cell_length_b                     7.64240(8)
_cell_length_c                     7.64240(8)
_cell_angle_alpha                  90.
_cell_angle_beta                   90.
_cell_angle_gamma                  90.
_cell_volume                       446.36
_cell_formula_units_Z              2
_symmetry_space_group_name_H-M     'I m -3'
_symmetry_Int_Tables_number        204
_refine_ls_R_factor_all            .0217
loop_
_symmetry_equiv_pos_site_id
_symmetry_equiv_pos_as_xyz
  1	'-z, x, y'
  2	'z, x, -y'
  3	'z, -x, y'
  4	'-z, -x, -y'
  5	'y, -z, x'
  6	'-y, z, x'
  7	'y, z, -x'
  8	'-y, -z, -x'
  9	'x, y, -z'
 10	'x, -y, z'
 11	'-x, y, z'
 12	'-x, -y, -z'
 13	'z, -x, -y'
 14	'-z, -x, y'
 15	'-z, x, -y'
 16	'z, x, y'
 17	'-y, z, -x'
 18	'y, -z, -x'
 19	'-y, -z, x'
 20	'y, z, x'
 21	'-x, -y, z'
 22	'-x, y, -z'
 23	'x, -y, -z'
 24	'x, y, z'
 25	'-z+.5, x+.5, y+.5'
 26	'z+.5, x+.5, -y+.5'
 27	'z+.5, -x+.5, y+.5'
 28	'-z+.5, -x+.5, -y+.5'
 29	'y+.5, -z+.5, x+.5'
 30	'-y+.5, z+.5, x+.5'
 31	'y+.5, z+.5, -x+.5'
 32	'-y+.5, -z+.5, -x+.5'
 33	'x+.5, y+.5, -z+.5'
 34	'x+.5, -y+.5, z+.5'
 35	'-x+.5, y+.5, z+.5'
 36	'-x+.5, -y+.5, -z+.5'
 37	'z+.5, -x+.5, -y+.5'
 38	'-z+.5, -x+.5, y+.5'
 39	'-z+.5, x+.5, -y+.5'
 40	'z+.5, x+.5, y+.5'
 41	'-y+.5, z+.5, -x+.5'
 42	'y+.5, -z+.5, -x+.5'
 43	'-y+.5, -z+.5, x+.5'
 44	'y+.5, z+.5, x+.5'
 45	'-x+.5, -y+.5, z+.5'
 46	'-x+.5, y+.5, -z+.5'
 47	'x+.5, -y+.5, -z+.5'
 48	'x+.5, y+.5, z+.5'
loop_
_atom_type_symbol
_atom_type_oxidation_number
Ca2+	2
Cu2+	2
O2-	-2
Sn4+	4
loop_
_atom_site_label
_atom_site_type_symbol
_atom_site_symmetry_multiplicity
_atom_site_Wyckoff_symbol
_atom_site_fract_x
_atom_site_fract_y
_atom_site_fract_z
_atom_site_occupancy
_atom_site_attached_hydrogens
_atom_site_B_iso_or_equiv
Ca1 Ca2+ 2 a 0 0 0 1. 0 1.00(7) 
Cu1 Cu2+ 6 b 0 0.5 0.5 1. 0 0.27(1) 
Sn1 Sn4+ 8 c 0.250 0.250 0.250 1. 0 0.128(4) 
O1 O2- 24 g 0.3050(3) 0.1719(3) 0 1. 0 0.53(4) 

#End of data_162100-ICSD


