data_249706-ICSD
#?2014 by Fachinformationszentrum Karlsruhe, and the U.S. Secretary of 
#Commerce on behalf of the United States.  All rights reserved.
_database_code_ICSD                249706
_audit_creation_date               2009/02/01
_audit_update_record               2012/02/01
_chemical_name_systematic
;
Potassium Europium(II) Trithioarsenate(III)
;
_chemical_formula_structural       'K Eu (As S3)'
_chemical_formula_sum              'As1 Eu1 K1 S3'
_publ_section_title
;
A Eu As S3 (A= Li, K, Rb, and Cs): New As3+ species from an arsenic-
rich polysulfide flux
;
loop_
_citation_id
_citation_journal_abbrev
_citation_year
_citation_journal_volume
_citation_journal_issue
_citation_page_first
_citation_page_last
_citation_journal_id_ASTM
primary 'Inorganic Chemistry' 2008 47 16 7068 7070 INOCAJ
_publ_author_name                  'Bera, T.K.;Kanatzidis, M.G.'
_cell_length_a                     8.8306(8)
_cell_length_b                     8.3455(9)
_cell_length_c                     8.6224(9)
_cell_angle_alpha                  90.00
_cell_angle_beta                   106.591(8)
_cell_angle_gamma                  90.00
_cell_volume                       608.98
_cell_formula_units_Z              4
_symmetry_space_group_name_H-M     'P 1 21/c 1'
_symmetry_Int_Tables_number        14
_refine_ls_R_factor_all            .0232
loop_
_symmetry_equiv_pos_site_id
_symmetry_equiv_pos_as_xyz
  1	'x, -y+.5, z+.5'
  2	'-x, -y, -z'
  3	'-x, y+.5, -z+.5'
  4	'x, y, z'
loop_
_atom_type_symbol
_atom_type_oxidation_number
As3+	3
Eu2+	2
K1+	1
S2-	-2
loop_
_atom_site_label
_atom_site_type_symbol
_atom_site_symmetry_multiplicity
_atom_site_Wyckoff_symbol
_atom_site_fract_x
_atom_site_fract_y
_atom_site_fract_z
_atom_site_occupancy
_atom_site_attached_hydrogens
_atom_site_U_iso_or_equiv
K1 K1+ 4 e 0.09197(11) 0.41947(9) 0.22175(12) 1 0 0.01014(19) 
Eu1 Eu2+ 4 e 0.57312(2) 0.284853(18) 0.03387(3) 1 0 0.00507(8) 
As1 As3+ 4 e 0.26454(5) 0.04674(4) 0.14001(5) 1 0 0.00540(10) 
S1 S2- 4 e 0.47259(11) 0.48501(10) 0.28114(12) 1 0 0.00548(19) 
S2 S2- 4 e 0.24045(11) 0.09324(10) 0.38597(13) 1 0 0.0065(2) 
S3 S2- 4 e 0.15694(12) 0.80537(10) 0.08344(14) 1 0 0.0104(2) 

loop_
_atom_site_aniso_label
_atom_site_aniso_type_symbol
_atom_site_aniso_U_11
_atom_site_aniso_U_22
_atom_site_aniso_U_33
_atom_site_aniso_U_12
_atom_site_aniso_U_13
_atom_site_aniso_U_23
K1 K1+ 0.0069(3) 0.0115(3) 0.0115(5) 0.0018(3) 0.0018(3) 0.0030(3)
Eu1 Eu2+ 0.00615(11) 0.00386(8) 0.00572(12) 0.00026(6) 0.00252(7) 
-0.00049(6)
As1 As3+ 0.00682(17) 0.00489(14) 0.0041(2) 0.00100(13) 0.00085(14) 
0.00097(13)
S1 S2- 0.0057(4) 0.0065(3) 0.0045(5) 0.0006(3) 0.0018(4) -0.0004(3)
S2 S2- 0.0066(4) 0.0071(3) 0.0059(5) -0.0001(3) 0.0020(4) -0.0009(3)
S3 S2- 0.0076(4) 0.0095(3) 0.0149(6) -0.0020(3) 0.0042(4) -0.0065(3)
#End of data_249706-ICSD


