data_16879-ICSD
#?2014 by Fachinformationszentrum Karlsruhe, and the U.S. Secretary of 
#Commerce on behalf of the United States.  All rights reserved.
_database_code_ICSD                16879
_audit_creation_date               1980/01/01
_audit_update_record               2007/08/01
_chemical_name_systematic
;
Tetrapotassium Bis(nitrosodisulfonate)
;
_chemical_formula_structural       'K4 ((S O3)2 (N O))2'
_chemical_formula_sum              'K4 N2 O14 S4'
_publ_section_title
;
Nitrosodisulphonates. Part II. Crystal structure of the orange-brown 
triclinic modification of Fremy's salt (potassium nitrosodisulfonate)
;
loop_
_citation_id
_citation_journal_abbrev
_citation_year
_citation_journal_volume
_citation_page_first
_citation_page_last
_citation_journal_id_ASTM
primary
;
Journal of the Chemical Society A: Inorganic, Physical, Theoretical 
(1966-1971)
;
 1968 1968 3043 3047 JCSIAP
_publ_author_name
;
Howie, R.A.;Dent Glasser, L.S.;Moser, W.
;
_cell_length_a                     7.45(2)
_cell_length_b                     7.14(2)
_cell_length_c                     7.16(2)
_cell_angle_alpha                  105.0(5)
_cell_angle_beta                   82.0(5)
_cell_angle_gamma                  113.0(5)
_cell_volume                       338.33
_cell_formula_units_Z              1
_symmetry_space_group_name_H-M     'P -1'
_symmetry_Int_Tables_number        2
_refine_ls_R_factor_all            .16
loop_
_symmetry_equiv_pos_site_id
_symmetry_equiv_pos_as_xyz
  1	'-x, -y, -z'
  2	'x, y, z'
loop_
_atom_type_symbol
_atom_type_oxidation_number
K1+	1
N4+	4
O2-	-2
S4+	4
loop_
_atom_site_label
_atom_site_type_symbol
_atom_site_symmetry_multiplicity
_atom_site_Wyckoff_symbol
_atom_site_fract_x
_atom_site_fract_y
_atom_site_fract_z
_atom_site_occupancy
_atom_site_attached_hydrogens
_atom_site_B_iso_or_equiv
O1 O2- 2 i 0.549(3) 0.444(3) 0.677(4) 1. 0 3.5(5) 
O2 O2- 2 i 0.218(3) 0.609(4) 0.956(4) 1. 0 3.7(5) 
O3 O2- 2 i 0.049(5) 0.354(4) 0.592(5) 1. 0 4.7(5) 
O4 O2- 2 i 0.557(5) 0.785(3) 0.895(4) 1. 0 3.6(5) 
O5 O2- 2 i 0.336(5) 0.792(3) 0.693(4) 1. 0 2.7(5) 
O6 O2- 2 i 0.224(3) 0.150(3) 0.494(4) 1. 0 3.9(5) 
O7 O2- 2 i 0.109(6) 0.159(4) 0.822(5) 1. 0 5.0(5) 
K1 K1+ 2 i 0.076(2) 0.278(1) 0.193(1) 1. 0 3.5(5) 
K2 K1+ 2 i 0.663(1) 0.146(1) 0.692(1) 1. 0 3.3(5) 
S1 S4+ 2 i 0.375(2) 0.689(1) 0.825(1) 1. 0 2.9(5) 
S2 S4+ 2 i 0.172(1) 0.259(1) 0.655(2) 1. 0 2.9(5) 
N1 N4+ 2 i 0.383(3) 0.464(4) 0.699(5) 1. 0 2.4(5) 

#End of data_16879-ICSD


