data_417733-ICSD
#?2014 by Fachinformationszentrum Karlsruhe, and the U.S. Secretary of 
#Commerce on behalf of the United States.  All rights reserved.
_database_code_ICSD                417733
_audit_creation_date               2009/02/01
_chemical_name_systematic          'Trizinc Bis(phosphate(V)) Hydrate'
_chemical_formula_structural       'Zn3 (P O4)2 (H2 O)'
_chemical_formula_sum              'H2 O9 P2 Zn3'
_publ_section_title                'Trizinc diphosphate hydrate'
loop_
_citation_id
_citation_journal_abbrev
_citation_year
_citation_journal_volume
_citation_page_first
_citation_page_last
_citation_journal_id_ASTM
primary 'Private Communication' 2007 2007 1 1 PRICO6
_publ_author_name                  'Clegg, J.'
_cell_length_a                     8.7099(13)
_cell_length_b                     4.8725(7)
_cell_length_c                     16.688(2)
_cell_angle_alpha                  90.00
_cell_angle_beta                   94.971(2)
_cell_angle_gamma                  90.00
_cell_volume                       705.56
_cell_formula_units_Z              4
_symmetry_space_group_name_H-M     'P 1 21/c 1'
_symmetry_Int_Tables_number        14
_refine_ls_R_factor_all            .0206
loop_
_symmetry_equiv_pos_site_id
_symmetry_equiv_pos_as_xyz
  1	'x, -y+.5, z+.5'
  2	'-x, -y, -z'
  3	'-x, y+.5, -z+.5'
  4	'x, y, z'
loop_
_atom_type_symbol
_atom_type_oxidation_number
H1+	1
O2-	-2
P5+	5
Zn2+	2
loop_
_atom_site_label
_atom_site_type_symbol
_atom_site_symmetry_multiplicity
_atom_site_Wyckoff_symbol
_atom_site_fract_x
_atom_site_fract_y
_atom_site_fract_z
_atom_site_occupancy
_atom_site_attached_hydrogens
_atom_site_U_iso_or_equiv
O1 O2- 4 e 0.53582(18) -0.1484(3) 0.40272(9) 1 0 0.0066(3) 
O2 O2- 4 e 0.74270(18) 0.2344(3) 0.28246(9) 1 0 0.0064(3) 
O3 O2- 4 e 0.81500(19) -0.2548(3) 0.39293(10) 1 0 0.0071(3) 
O4 O2- 4 e 0.19393(18) -0.3440(3) 0.35961(9) 1 0 0.0071(3) 
O5 O2- 4 e 1.09355(18) -0.6687(3) 0.25800(10) 1 0 0.0064(3) 
O6 O2- 4 e 0.63738(18) 0.3985(3) 0.45083(9) 1 0 0.0059(3) 
O7 O2- 4 e 0.9718(2) -0.7665(3) 0.41774(10) 1 0 0.0096(3) 
H1 H1+ 4 e 0.939(4) -0.960(2) 0.4064(19) 1 0 0.014 
H2 H1+ 4 e 1.0832(10) -0.783(7) 0.4374(18) 1 0 0.014 
O8 O2- 4 e 0.71752(19) -0.1760(3) 0.52874(10) 1 0 0.0073(3) 
O9 O2- 4 e 0.38325(19) 0.3446(4) 0.29050(10) 1 0 0.0097(3) 
P1 P5+ 4 e 1.23610(6) -0.48988(11) 0.28281(3) 1 0 0.00460(13) 
P2 P5+ 4 e 0.68200(6) -0.29358(11) 0.44413(3) 1 0 0.00441(13) 
Zn1 Zn2+ 4 e 0.56461(3) 0.20113(5) 0.345642(15) 1 0 0.00547(10) 
Zn2 Zn2+ 4 e 0.32845(3) -0.20120(5) 0.444495(15) 1 0 0.00552(10) 
Zn3 Zn2+ 4 e 0.91980(3) -0.50555(5) 0.319668(15) 1 0 0.00588(10) 

loop_
_atom_site_aniso_label
_atom_site_aniso_type_symbol
_atom_site_aniso_U_11
_atom_site_aniso_U_22
_atom_site_aniso_U_33
_atom_site_aniso_U_12
_atom_site_aniso_U_13
_atom_site_aniso_U_23
O1 O2- 0.0045(7) 0.0063(7) 0.0090(7) -0.0007(6) 0.0006(6) 0.0022(6)
O2 O2- 0.0044(7) 0.0081(7) 0.0069(7) -0.0002(6) 0.0014(6) -0.0013(6)
O3 O2- 0.0061(8) 0.0074(7) 0.0083(7) -0.0005(6) 0.0045(6) -0.0003(6)
O4 O2- 0.0059(7) 0.0094(7) 0.0059(7) -0.0020(6) 0.0003(6) -0.0018(6)
O5 O2- 0.0020(7) 0.0086(7) 0.0087(7) -0.0010(5) 0.0020(6) -0.0015(6)
O6 O2- 0.0071(7) 0.0052(7) 0.0052(7) -0.0004(6) 0.0005(6) 0.0002(5)
O7 O2- 0.0070(8) 0.0100(7) 0.0113(8) -0.0003(6) -0.0014(6) 0.0007(6)
O8 O2- 0.0074(8) 0.0076(7) 0.0066(7) 0.0007(6) -0.0008(6) -0.0008(6)
O9 O2- 0.0054(8) 0.0120(7) 0.0116(7) 0.0024(6) -0.0009(6) 0.0005(6)
P1 P5+ 0.0024(3) 0.0060(3) 0.0054(3) -0.00005(18) 0.0003(2) -0.00021(19)
P2 P5+ 0.0030(3) 0.0051(3) 0.0052(3) -0.00010(18) 0.0006(2) -0.00006(18)
Zn1 Zn2+ 0.00303(15) 0.00698(16) 0.00635(15) 0.00058(8) 0.00018(10) 
0.00092(8)
Zn2 Zn2+ 0.00433(15) 0.00651(15) 0.00567(15) -0.00013(9) 0.00023(10) 
-0.00046(8)
Zn3 Zn2+ 0.00395(15) 0.00665(15) 0.00734(15) 0.00032(8) 0.00210(10) 
0.00005(9)
#End of data_417733-ICSD


