data_71806-ICSD
#?2014 by Fachinformationszentrum Karlsruhe, and the U.S. Secretary of 
#Commerce on behalf of the United States.  All rights reserved.
_database_code_ICSD                71806
_audit_creation_date               1993/08/22
_audit_update_record               2009/08/01
_chemical_name_systematic
;
Calcium Dodecaaluminate Bis(tungstate)
;
_chemical_formula_structural       'Ca8 (Al12 O24) (W O4)2'
_chemical_formula_sum              'Al12 Ca8 O32 W2'
_publ_section_title
;
Powder profile refinement of a commensurately modulated aluminate 
sodalite
;
loop_
_citation_id
_citation_journal_abbrev
_citation_year
_citation_journal_volume
_citation_page_first
_citation_page_last
_citation_journal_id_ASTM
primary 'Materials Science Forum' 1991 79 763 768 MSFOEP
2 'Golden Book of Phase Transitions, Wroclaw' 2002 1 1 123 GBOPT5
_publ_author_name                  'Depmeier, W.;Yamamoto, A.'
_cell_length_a                     13.075(1)
_cell_length_b                     13.075(1)
_cell_length_c                     9.319(1)
_cell_angle_alpha                  90.
_cell_angle_beta                   90.
_cell_angle_gamma                  90.
_cell_volume                       1593.14
_cell_formula_units_Z              2
_symmetry_space_group_name_H-M     'A b m 2'
_symmetry_Int_Tables_number        39
_refine_ls_R_factor_all            .103
loop_
_symmetry_equiv_pos_site_id
_symmetry_equiv_pos_as_xyz
  1	'x, -y+.5, z'
  2	'-x, y+.5, z'
  3	'-x, -y, z'
  4	'x, y, z'
  5	'x, -y, z+.5'
  6	'-x, y, z+.5'
  7	'-x, -y+.5, z+.5'
  8	'x, y+.5, z+.5'
loop_
_atom_type_symbol
_atom_type_oxidation_number
Al3+	3
Ca2+	2
O2-	-2
W6+	6
loop_
_atom_site_label
_atom_site_type_symbol
_atom_site_symmetry_multiplicity
_atom_site_Wyckoff_symbol
_atom_site_fract_x
_atom_site_fract_y
_atom_site_fract_z
_atom_site_occupancy
_atom_site_attached_hydrogens
Al1 Al3+ 8 d 0.3752 0.1248 0.5074 1. 0 
Al2 Al3+ 8 d 0.1228 0.1241 0.4859 1. 0 
Al3 Al3+ 4 b 0.5 0 0.2585 1. 0 
Al4 Al3+ 4 a 0 0 0.2363 1. 0 
Ca1 Ca2+ 8 d 0.2583 -.0177 0.2622 1. 0 
Ca2 Ca2+ 4 c 0.0334 0.25 0.2028 1. 0 
Ca3 Ca2+ 4 c 0.4998 0.25 0.249 1. 0 
O1 O2- 8 d 0.2483 0.0958 0.5313 1. 0 
O2 O2- 4 c 0.0916 0.25 0.4373 1. 0 
O3 O2- 4 c 0.4186 0.25 0.4813 1. 0 
O4 O2- 8 d 0.0508 0.1003 0.6386 1. 0 
O5 O2- 8 d 0.4268 0.0887 0.6671 1. 0 
O6 O2- 8 d 0.1002 0.0534 0.3307 1. 0 
O7 O2- 8 d 0.4092 0.0644 0.3503 1. 0 
O8 O2- 8 d 0.1948 0.1587 -.0004 1. 0 
O9 O2- 8 d 0.3493 0.3121 0.0038 1. 0 
W1 W6+ 4 c 0.2726 0.25 0 1. 0 

#End of data_71806-ICSD


