data_422709-ICSD
#?2014 by Fachinformationszentrum Karlsruhe, and the U.S. Secretary of 
#Commerce on behalf of the United States.  All rights reserved.
_database_code_ICSD                422709
_audit_creation_date               2012/02/01
_chemical_name_systematic
;
Potassium Sodium Tungsten Dioxide Tetrafluoride
;
_chemical_formula_structural       'K Na W O2 F4'
_chemical_formula_sum              'F4 K1 Na1 O2 W1'
_publ_section_title
;
New layered oxide-fluoride perovskites: K Na Nb O F5 and K Na M O2 F4 
(M = Mo(6+), W(6+))
;
loop_
_citation_id
_citation_journal_abbrev
_citation_year
_citation_journal_volume
_citation_page_first
_citation_page_last
_citation_journal_id_ASTM
primary Crystals 2011 1 3 14 CRYSBC
_publ_author_name
;
Pinlac, R.A.F.;Stern, C.L.;Poeppelmeier, K.R.
;
_cell_length_a                     5.86350(10)
_cell_length_b                     5.86350(10)
_cell_length_c                     8.49070(10)
_cell_angle_alpha                  90.
_cell_angle_beta                   90.
_cell_angle_gamma                  90.
_cell_volume                       291.92
_cell_formula_units_Z              2
_symmetry_space_group_name_H-M     'P 4/n m m Z'
_symmetry_Int_Tables_number        129
_refine_ls_R_factor_all            .0111
loop_
_symmetry_equiv_pos_site_id
_symmetry_equiv_pos_as_xyz
  1	'y+.5, x+.5, -z'
  2	'-y, x+.5, -z'
  3	'y+.5, -x, -z'
  4	'-y, -x, -z'
  5	'x+.5, y+.5, -z'
  6	'-x, y+.5, -z'
  7	'x+.5, -y, -z'
  8	'-x, -y, -z'
  9	'-y+.5, -x+.5, z'
 10	'y, -x+.5, z'
 11	'-y+.5, x, z'
 12	'y, x, z'
 13	'-x+.5, -y+.5, z'
 14	'x, -y+.5, z'
 15	'-x+.5, y, z'
 16	'x, y, z'
loop_
_atom_type_symbol
_atom_type_oxidation_number
F1-	-1
K1+	1
Na1+	1
O2-	-2
W6+	6
loop_
_atom_site_label
_atom_site_type_symbol
_atom_site_symmetry_multiplicity
_atom_site_Wyckoff_symbol
_atom_site_fract_x
_atom_site_fract_y
_atom_site_fract_z
_atom_site_occupancy
_atom_site_attached_hydrogens
_atom_site_U_iso_or_equiv
Na1 Na1+ 2 c 0.2500 0.2500 0.26786(17) 1 0 0.0090(3) 
K1 K1+ 2 a 0.2500 -0.2500 1.0000 1 0 0.00985(12) 
W1 W6+ 2 c 0.2500 0.2500 0.738580(15) 1 0 0.01029(6) 
O1 O2- 2 c 0.2500 0.2500 0.5386(3) 1 0 0.0166(5) 
O2 O2- 2 c 0.2500 0.2500 0.9859(3) 1 0 0.0119(4) 
F1 F1- 8 j 0.02332(16) 0.47668(16) 0.77375(16) 1 0 0.0162(2) 

loop_
_atom_site_aniso_label
_atom_site_aniso_type_symbol
_atom_site_aniso_U_11
_atom_site_aniso_U_22
_atom_site_aniso_U_33
_atom_site_aniso_U_12
_atom_site_aniso_U_13
_atom_site_aniso_U_23
Na1 Na1+ 0.0093(4) 0.0093(4) 0.0082(6) 0.000 0.000 0.000
K1 K1+ 0.00988(18) 0.00988(18) 0.0098(3) 0.000 0.000 0.000
W1 W6+ 0.01244(7) 0.01244(7) 0.00598(8) 0.000 0.000 0.000
O1 O2- 0.0210(8) 0.0210(8) 0.0079(10) 0.000 0.000 0.000
O2 O2- 0.0140(6) 0.0140(6) 0.0077(8) 0.000 0.000 0.000
F1 F1- 0.0132(3) 0.0132(3) 0.0220(5) 0.0045(4) -0.0008(3) 0.0008(3)
#End of data_422709-ICSD


