data_72286-ICSD
#?2014 by Fachinformationszentrum Karlsruhe, and the U.S. Secretary of 
#Commerce on behalf of the United States.  All rights reserved.
_database_code_ICSD                72286
_audit_creation_date               1994/01/19
_chemical_name_systematic
;
Tetraamminedichloroaluminium Tetrachloroaluminate
;
_chemical_formula_structural       '(Al (N H3)4 Cl2) (Al Cl4)'
_chemical_formula_sum              'H12 Al2 Cl6 N4'
_publ_section_title
;
AlCl3*2NH3- eine Verbindung mit der Kristallstruktur eines 
Tetraammindichloroaluminium-tetrachloroaluminats 
(AlCl2(NH3)4)(+)(AlCl4)(-)
;
loop_
_citation_id
_citation_journal_abbrev
_citation_year
_citation_journal_volume
_citation_page_first
_citation_page_last
_citation_journal_id_ASTM
primary 'Zeitschrift fuer Anorganische und Allgemeine Chemie (1950) (DE)'
 1992 614 25 29 ZAACAB
_publ_author_name                  'Jacobs, H.;Noecker, B.'
_cell_length_a                     11.300(2)
_cell_length_b                     18.318(6)
_cell_length_c                     6.415(2)
_cell_angle_alpha                  90.
_cell_angle_beta                   90.
_cell_angle_gamma                  90.
_cell_volume                       1327.86
_cell_formula_units_Z              4
_symmetry_space_group_name_H-M     'P n m a'
_symmetry_Int_Tables_number        62
_refine_ls_R_factor_all            .035
loop_
_symmetry_equiv_pos_site_id
_symmetry_equiv_pos_as_xyz
  1	'x+.5, y, -z+.5'
  2	'x, -y+.5, z'
  3	'-x+.5, y+.5, z+.5'
  4	'-x, -y, -z'
  5	'-x+.5, -y, z+.5'
  6	'-x, y+.5, -z'
  7	'x+.5, -y+.5, -z+.5'
  8	'x, y, z'
loop_
_atom_type_symbol
_atom_type_oxidation_number
Al3+	3
Cl1-	-1
H1+	1
N3-	-3
loop_
_atom_site_label
_atom_site_type_symbol
_atom_site_symmetry_multiplicity
_atom_site_Wyckoff_symbol
_atom_site_fract_x
_atom_site_fract_y
_atom_site_fract_z
_atom_site_occupancy
_atom_site_attached_hydrogens
_atom_site_B_iso_or_equiv
Al1 Al3+ 4 b 0 0.5 0.5 1. 0 0 
Al2 Al3+ 4 c 0.2602(3) 0.25 0.4459(5) 1. 0 0 
Cl1 Cl1- 8 d 0.1308(2) 0.4662(1) 0.2389(3) 1. 0 0 
Cl2 Cl1- 8 d 0.3539(2) 0.3444(1) 0.5479(3) 1. 0 0 
Cl3 Cl1- 4 c 0.0880(3) 0.25 0.5790(6) 1. 0 0 
Cl4 Cl1- 4 c 0.7466(3) 0.25 0.3837(4) 1. 0 0 
N1 N3- 8 d 0.4015(6) 0.5553(4) 0.207(1) 1. 0 0 
N2 N3- 8 d 0.0933(7) 0.5910(4) 0.552(1) 1. 0 0 
H1 H1+ 8 d 0.100(9) 0.392(6) 0.72(2) 1. 0 8.(3) 
H2 H1+ 8 d 0.181(9) 0.432(6) 0.68(2) 1. 0 9.(4) 
H3 H1+ 8 d 0.084(8) 0.457(5) 0.80(1) 1. 0 4.(3) 
H4 H1+ 8 d 0.050(7) 0.626(5) 0.61(1) 1. 0 5.(2) 
H5 H1+ 8 d 0.153(8) 0.580(5) 0.60(1) 1. 0 5.(3) 
H6 H1+ 8 d 0.110(9) 0.624(6) 0.47(2) 1. 0 6.(3) 

loop_
_atom_site_aniso_label
_atom_site_aniso_type_symbol
_atom_site_aniso_U_11
_atom_site_aniso_U_22
_atom_site_aniso_U_33
_atom_site_aniso_U_12
_atom_site_aniso_U_13
_atom_site_aniso_U_23
Al1 Al3+ 0.018(1) 0.023(1) 0.013(1) -.002(1) -.001(1) 0.000(1)
Al2 Al3+ 0.034(2) 0.026(2) 0.022(1) 0 0.001(2) 0
Cl1 Cl1- 0.027(1) 0.040(1) 0.021(1) -.004(1) 0.006(1) 0.003(1)
Cl2 Cl1- 0.050(1) 0.034(1) 0.034(1) -.006(1) -.005(1) -.009(1)
Cl3 Cl1- 0.036(2) 0.048(2) 0.066(2) 0 0.017(2) 0
Cl4 Cl1- 0.074(2) 0.043(2) 0.024(1) 0 0.008(2) 0
N1 N3- 0.031(4) 0.036(4) 0.015(3) 0.001(3) 0.004(3) 0.008(2)
N2 N3- 0.031(4) 0.024(4) 0.037(4) -.002(3) -.001(4) -.004(2)
#End of data_72286-ICSD


