data_248405-ICSD
#?2014 by Fachinformationszentrum Karlsruhe, and the U.S. Secretary of 
#Commerce on behalf of the United States.  All rights reserved.
_database_code_ICSD                248405
_audit_creation_date               2014/08/01
_chemical_name_systematic
;
Dilithium Manganese(II) Catena-tetrakis(polyphosphate)
;
_chemical_formula_structural       'Li2 Mn (P O3)4'
_chemical_formula_sum              'Li2 Mn1 O12 P4'
_publ_section_title
;
Dilithium manganese(II) catena-tetrakis(polyphosphate), Li2Mn(PO3)4
;
loop_
_citation_id
_citation_journal_abbrev
_citation_year
_citation_journal_volume
_citation_journal_issue
_citation_page_first
_citation_page_last
_citation_journal_id_ASTM
primary 'Acta Crystallographica, Section E. Structure Reports Online'
 2014 70 1 i1 i1 ACSEBH
_publ_author_name
;
Moutataouia, Meryem;Lamire, Mohammed;Saadi, Mohamed;El Ammari, Lahcen
;
_cell_length_a                     9.4295(2)
_cell_length_b                     9.2755(2)
_cell_length_c                     10.0972(2)
_cell_angle_alpha                  90.00
_cell_angle_beta                   90.00
_cell_angle_gamma                  90.00
_cell_volume                       883.13
_cell_formula_units_Z              4
_symmetry_space_group_name_H-M     'P n m a'
_symmetry_Int_Tables_number        62
_refine_ls_R_factor_all            .0181
loop_
_symmetry_equiv_pos_site_id
_symmetry_equiv_pos_as_xyz
  1	'x+.5, y, -z+.5'
  2	'x, -y+.5, z'
  3	'-x+.5, y+.5, z+.5'
  4	'-x, -y, -z'
  5	'-x+.5, -y, z+.5'
  6	'-x, y+.5, -z'
  7	'x+.5, -y+.5, -z+.5'
  8	'x, y, z'
loop_
_atom_type_symbol
_atom_type_oxidation_number
Li1+	1
Mn2+	2
O2-	-2
P5+	5
loop_
_atom_site_label
_atom_site_type_symbol
_atom_site_symmetry_multiplicity
_atom_site_Wyckoff_symbol
_atom_site_fract_x
_atom_site_fract_y
_atom_site_fract_z
_atom_site_occupancy
_atom_site_attached_hydrogens
_atom_site_U_iso_or_equiv
Mn1 Mn2+ 4 c 0.012320(17) 0.2500 0.697042(16) 1 0 0.00824(4) 
P1 P5+ 4 c 0.30533(3) 0.2500 0.39321(3) 1 0 0.00708(5) 
P2 P5+ 8 d 0.29220(2) 0.03744(2) 0.610286(19) 1 0 0.00742(4) 
P3 P5+ 4 c 0.22718(3) 0.2500 0.98429(3) 1 0 0.00661(5) 
O1 O2- 4 c 0.14967(9) 0.2500 0.37467(9) 1 0 0.01356(15) 
O2 O2- 4 c 0.40037(9) 0.2500 0.27630(8) 1 0 0.01232(14) 
O3 O2- 8 d 0.35189(7) 0.11634(8) 0.48227(7) 1 0 0.01946(13) 
O4 O2- 8 d 0.13548(6) 0.05951(7) 0.62027(6) 1 0 0.01146(10) 
O5 O2- 8 d 0.38358(7) 0.07235(7) 0.72611(7) 1 0 0.01537(11) 
O6 O2- 8 d 0.32753(6) -0.12374(7) 0.57702(7) 1 0 0.01270(10) 
O7 O2- 4 c 0.14661(10) 0.2500 0.86024(9) 1 0 0.01801(18) 
O8 O2- 4 c 0.38557(9) 0.2500 0.98024(8) 1 0 0.01291(15) 
Li1 Li1+ 8 d 0.0036(2) 0.1031(3) 0.3305(3) 1 0 0.0319(5) 

loop_
_atom_site_aniso_label
_atom_site_aniso_type_symbol
_atom_site_aniso_U_11
_atom_site_aniso_U_22
_atom_site_aniso_U_33
_atom_site_aniso_U_12
_atom_site_aniso_U_13
_atom_site_aniso_U_23
Mn1 Mn2+ 0.00776(6) 0.00889(7) 0.00807(7) 0.000 -0.00102(5) 0.000
P1 P5+ 0.00667(10) 0.00812(11) 0.00646(10) 0.000 0.00036(7) 0.000
P2 P5+ 0.00715(7) 0.00576(8) 0.00935(8) -0.00010(5) 0.00026(5) -0.00046(6)
P3 P5+ 0.00626(10) 0.00710(11) 0.00645(10) 0.000 -0.00036(7) 0.000
O1 O2- 0.0071(3) 0.0192(4) 0.0144(3) 0.000 -0.0017(3) 0.000
O2 O2- 0.0121(3) 0.0163(4) 0.0086(3) 0.000 0.0034(3) 0.000
O3 O2- 0.0135(2) 0.0205(3) 0.0243(3) 0.0064(2) 0.0071(2) 0.0153(3)
O4 O2- 0.0076(2) 0.0110(2) 0.0158(2) 0.00088(18) 0.00164(17) -0.0008(2)
O5 O2- 0.0134(2) 0.0165(3) 0.0162(3) -0.0019(2) -0.0040(2) -0.0070(2)
O6 O2- 0.0125(2) 0.0068(2) 0.0188(3) 0.00120(18) -0.0044(2) -0.0039(2)
O7 O2- 0.0158(4) 0.0279(5) 0.0103(3) 0.000 -0.0058(3) 0.000
O8 O2- 0.0065(3) 0.0222(4) 0.0099(3) 0.000 0.0015(2) 0.000
Li1 Li1+ 0.0186(8) 0.0241(10) 0.0530(14) -0.0087(7) -0.0128(8) 0.0163(10)
#End of data_248405-ICSD


