data_48191-ICSD
#?2014 by Fachinformationszentrum Karlsruhe, and the U.S. Secretary of 
#Commerce on behalf of the United States.  All rights reserved.
_database_code_ICSD                48191
_audit_creation_date               1985/06/13
_chemical_name_systematic          'Dipotassium Praseodymium Bromide'
_chemical_formula_structural       'K2 Pr Br5'
_chemical_formula_sum              'Br5 K2 Pr1'
_publ_section_title
;
Ternaere Halogenide der seltenen Erden vom Typ A2 M X5. (A= K, In, N 
H4, Rb, Cs; X= Cl, Br, I)
;
loop_
_citation_id
_citation_journal_abbrev
_citation_year
_citation_journal_volume
_citation_page_first
_citation_page_last
_citation_journal_id_ASTM
primary 'Zeitschrift fuer Anorganische und Allgemeine Chemie (1950) (DE)'
 1985 521 161 172 ZAACAB
_publ_author_name
;
Meyer, G.;Soose, J.;Moritz, A.;Vitt, V.;Holljes, T.H.
;
_cell_length_a                     13.322(2)
_cell_length_b                     9.186(2)
_cell_length_c                     8.422(1)
_cell_angle_alpha                  90.
_cell_angle_beta                   90.
_cell_angle_gamma                  90.
_cell_volume                       1030.65
_cell_formula_units_Z              4
_symmetry_space_group_name_H-M     'P n m a'
_symmetry_Int_Tables_number        62
_refine_ls_R_factor_all            .041
loop_
_symmetry_equiv_pos_site_id
_symmetry_equiv_pos_as_xyz
  1	'x+.5, y, -z+.5'
  2	'x, -y+.5, z'
  3	'-x+.5, y+.5, z+.5'
  4	'-x, -y, -z'
  5	'-x+.5, -y, z+.5'
  6	'-x, y+.5, -z'
  7	'x+.5, -y+.5, -z+.5'
  8	'x, y, z'
loop_
_atom_type_symbol
_atom_type_oxidation_number
Br1-	-1
K1+	1
Pr3+	3
loop_
_atom_site_label
_atom_site_type_symbol
_atom_site_symmetry_multiplicity
_atom_site_Wyckoff_symbol
_atom_site_fract_x
_atom_site_fract_y
_atom_site_fract_z
_atom_site_occupancy
_atom_site_attached_hydrogens
K1 K1+ 8 d 0.6711(3) 0.4940(4) 0.5572(5) 1. 0 
Pr1 Pr3+ 4 c 0.50677(9) 0.25 0.0787(1) 1. 0 
Br1 Br1- 4 c -.0066(2) 0.75 0.9311(3) 1. 0 
Br2 Br1- 4 c 0.7916(2) 0.25 0.3371(3) 1. 0 
Br3 Br1- 4 c 0.6838(2) 0.25 0.8743(3) 1. 0 
Br4 Br1- 8 d 0.5764(1) 0.5455(2) 0.1706(2) 1. 0 

loop_
_atom_site_aniso_label
_atom_site_aniso_type_symbol
_atom_site_aniso_U_11
_atom_site_aniso_U_22
_atom_site_aniso_U_33
_atom_site_aniso_U_12
_atom_site_aniso_U_13
_atom_site_aniso_U_23
K1 K1+ 0.0333(20) 0.0280(21) 0.0320(21) -.0079(17) -.0035(16) 0.0027(17)
Pr1 Pr3+ 0.0168(6) 0.0120(6) 0.0142(6) 0 0.0024(5) 0
Br1 Br1- 0.0235(11) 0.0248(12) 0.0178(11) 0 0.0003(9) 0
Br2 Br1- 0.0188(11) 0.0301(13) 0.0215(12) 0 0.0021(9) 0
Br3 Br1- 0.0237(12) 0.0293(13) 0.0235(12) 0 0.0076(10) 0
Br4 Br1- 0.0354(9) 0.0150(7) 0.0209(8) 0.0012(7) -.0085(7) -.0035(7)
#End of data_48191-ICSD


