data_184714-ICSD
#?2014 by Fachinformationszentrum Karlsruhe, and the U.S. Secretary of 
#Commerce on behalf of the United States.  All rights reserved.
_database_code_ICSD                184714
_audit_creation_date               2012/08/01
_chemical_name_systematic
;
Magnesium Tellurium Molybdenum Hexaoxide
;
_chemical_formula_structural       'Mg Te Mo O6'
_chemical_formula_sum              'Mg1 Mo1 O6 Te1'
_publ_section_title
;
Mg Te Mo O6: A neutral layered material showing strong second-
harmonic generation
;
loop_
_citation_id
_citation_journal_abbrev
_citation_year
_citation_journal_volume
_citation_journal_issue
_citation_page_first
_citation_page_last
_citation_journal_id_ASTM
primary 'Journal of Materials Chemistry' 2012 19 19 9921 9927 JMACEP
_publ_author_name
;
Zhang Junjie;Zhang Zhonghan;Sun Youxuan;Zhang Chengqian;Zhang 
Shaojun;Liu Yang;Tao Xutang
;
_cell_length_a                     5.03780(10)
_cell_length_b                     5.26910(10)
_cell_length_c                     8.8985(2)
_cell_angle_alpha                  90.00
_cell_angle_beta                   90.00
_cell_angle_gamma                  90.00
_cell_volume                       236.21
_cell_formula_units_Z              2
_symmetry_space_group_name_H-M     'P 21 21 2'
_symmetry_Int_Tables_number        18
_refine_ls_R_factor_all            .0149
loop_
_symmetry_equiv_pos_site_id
_symmetry_equiv_pos_as_xyz
  1	'-x+.5, y+.5, -z'
  2	'x+.5, -y+.5, -z'
  3	'-x, -y, z'
  4	'x, y, z'
loop_
_atom_type_symbol
_atom_type_oxidation_number
Mg2+	2
Mo6+	6
O2-	-2
Te4+	4
loop_
_atom_site_label
_atom_site_type_symbol
_atom_site_symmetry_multiplicity
_atom_site_Wyckoff_symbol
_atom_site_fract_x
_atom_site_fract_y
_atom_site_fract_z
_atom_site_occupancy
_atom_site_attached_hydrogens
_atom_site_U_iso_or_equiv
Te1 Te4+ 2 a 0.0000 0.0000 0.24334(3) 1 0 0.00656(12) 
Mo1 Mo6+ 2 a 0.0000 0.0000 0.69134(4) 1 0 0.00827(12) 
Mg1 Mg2+ 2 b 0.0000 0.5000 0.03086(16) 1 0 0.0093(3) 
O1 O2- 4 c 0.2219(5) 0.1697(5) 0.1058(3) 1 0 0.0105(5) 
O2 O2- 4 c 0.2351(5) 0.6741(6) 0.2052(3) 1 0 0.0110(5) 
O3 O2- 4 c 0.3539(6) 0.2854(5) 0.4250(3) 1 0 0.0153(6) 

loop_
_atom_site_aniso_label
_atom_site_aniso_type_symbol
_atom_site_aniso_U_11
_atom_site_aniso_U_22
_atom_site_aniso_U_33
_atom_site_aniso_U_12
_atom_site_aniso_U_13
_atom_site_aniso_U_23
Te1 Te4+ 0.00579(17) 0.00598(16) 0.00789(17) 0.00029(18) 0.000 0.000
Mo1 Mo6+ 0.00604(19) 0.00853(19) 0.0102(2) -0.0028(3) 0.000 0.000
Mg1 Mg2+ 0.0079(7) 0.0082(7) 0.0118(8) -0.0005(11) 0.000 0.000
O1 O2- 0.0096(12) 0.0080(11) 0.0140(12) 0.0010(9) 0.0046(13) 0.0040(12)
O2 O2- 0.0090(14) 0.0119(12) 0.0121(13) 0.0036(10) -0.0023(12) -0.0006(11)
O3 O2- 0.0138(14) 0.0158(14) 0.0164(16) -0.0017(13) 0.0010(12) 0.0010(12)
#End of data_184714-ICSD


