data_245266-ICSD
#?2014 by Fachinformationszentrum Karlsruhe, and the U.S. Secretary of 
#Commerce on behalf of the United States.  All rights reserved.
_database_code_ICSD                245266
_audit_creation_date               2007/08/01
_audit_update_record               2008/02/01
_chemical_name_systematic          'Cerium(III) Aluminium Oxide'
_chemical_formula_structural       'Ce Al O3'
_chemical_formula_sum              'Al1 Ce1 O3'
_publ_section_title
;
"Unusual" phase transition in Ce Al O3
;
loop_
_citation_id
_citation_journal_abbrev
_citation_year
_citation_journal_volume
_citation_journal_issue
_citation_page_first
_citation_page_last
_citation_journal_id_ASTM
primary 'Journal of Solid State Chemistry' 2006 179 8 2732 2738 JSSCBI
_publ_author_name                  'Fu, W.T.;Ijdo, D.J.W.'
_cell_length_a                     5.35834(3)
_cell_length_b                     5.33759(2)
_cell_length_c                     7.53647(3)
_cell_angle_alpha                  90.
_cell_angle_beta                   90.
_cell_angle_gamma                  90.
_cell_volume                       215.55
_cell_formula_units_Z              4
_symmetry_space_group_name_H-M     'I b m m'
_symmetry_Int_Tables_number        74
loop_
_symmetry_equiv_pos_site_id
_symmetry_equiv_pos_as_xyz
  1	'-x, -y, z+.5'
  2	'x, -y, -z+.5'
  3	'x, -y, z'
  4	'-x, -y, -z'
  5	'x, y, -z+.5'
  6	'-x, y, z+.5'
  7	'-x, y, -z'
  8	'x, y, z'
  9	'-x+.5, -y+.5, z'
 10	'x+.5, -y+.5, -z'
 11	'x+.5, -y+.5, z+.5'
 12	'-x+.5, -y+.5, -z+.5'
 13	'x+.5, y+.5, -z'
 14	'-x+.5, y+.5, z'
 15	'-x+.5, y+.5, -z+.5'
 16	'x+.5, y+.5, z+.5'
loop_
_atom_type_symbol
_atom_type_oxidation_number
Al3+	3
Ce3+	3
O2-	-2
loop_
_atom_site_label
_atom_site_type_symbol
_atom_site_symmetry_multiplicity
_atom_site_Wyckoff_symbol
_atom_site_fract_x
_atom_site_fract_y
_atom_site_fract_z
_atom_site_occupancy
_atom_site_attached_hydrogens
_atom_site_U_iso_or_equiv
Al1 Al3+ 4 a 0 0 0 1. 0 0.0106(3) 
Ce1 Ce3+ 4 e 0.4996(3) 0 0.25 1. 0 0.0111(3) 
O1 O2- 4 e 0.0429(2) 0 0.25 1. 0 0.0120(4) 
O2 O2- 8 g 0.25 0.25 -0.02158(9) 1. 0 0.0126(2) 

#End of data_245266-ICSD


