data_426622-ICSD
#?2014 by Fachinformationszentrum Karlsruhe, and the U.S. Secretary of 
#Commerce on behalf of the United States.  All rights reserved.
_database_code_ICSD                426622
_audit_creation_date               2014/08/01
_chemical_name_systematic
;
Vanadium(IV) Potassium Oxotrifluoride
;
_chemical_formula_structural       'V K O F3'
_chemical_formula_sum              'F3 K1 O1 V1'
_publ_section_title
;
Structural diversity in hybrid vanadium(IV) oxyfluorides based on a 
common building block
;
loop_
_citation_id
_citation_journal_abbrev
_citation_year
_citation_journal_volume
_citation_journal_issue
_citation_page_first
_citation_page_last
_citation_journal_id_ASTM
primary 'Dalton Transactions' 2014 43 2 568 575 DTARAF
_publ_author_name
;
Farida H. Aidoudi;Cameron Black;Kasun S. Athukorala 
Arachchige;Alexandra M. Z. Slawin;Russell E. Morris;Philip Lightfoot
;
_cell_length_a                     7.176(7)
_cell_length_b                     7.540(7)
_cell_length_c                     13.106(13)
_cell_angle_alpha                  90.00
_cell_angle_beta                   90.00
_cell_angle_gamma                  90.00
_cell_volume                       709.12
_cell_formula_units_Z              8
_symmetry_space_group_name_H-M     'P n m a'
_symmetry_Int_Tables_number        62
_refine_ls_R_factor_all            .0268
loop_
_symmetry_equiv_pos_site_id
_symmetry_equiv_pos_as_xyz
  1	'x+.5, y, -z+.5'
  2	'x, -y+.5, z'
  3	'-x+.5, y+.5, z+.5'
  4	'-x, -y, -z'
  5	'-x+.5, -y, z+.5'
  6	'-x, y+.5, -z'
  7	'x+.5, -y+.5, -z+.5'
  8	'x, y, z'
loop_
_atom_type_symbol
_atom_type_oxidation_number
F1-	-1
K1+	1
O2-	-2
V4+	4
loop_
_atom_site_label
_atom_site_type_symbol
_atom_site_symmetry_multiplicity
_atom_site_Wyckoff_symbol
_atom_site_fract_x
_atom_site_fract_y
_atom_site_fract_z
_atom_site_occupancy
_atom_site_attached_hydrogens
_atom_site_U_iso_or_equiv
V1 V4+ 8 d 0.63637(8) -0.00406(7) 0.60303(4) 1 0 0.0089(3) 
K1 K1+ 4 c -0.08898(17) 0.2500 0.40027(8) 1 0 0.0129(4) 
K2 K1+ 4 c 0.17645(15) 0.2500 0.64387(9) 1 0 0.0147(4) 
F1 F1- 4 c 0.5732(4) 0.2500 0.6138(2) 1 0 0.0144(7) 
F2 F1- 4 c 0.6993(4) -0.2500 0.5598(2) 1 0 0.0116(6) 
F3 F1- 8 d 0.8880(3) 0.0537(3) 0.58559(17) 1 0 0.0154(5) 
F4 F1- 8 d 0.3752(2) -0.0369(3) 0.56086(15) 1 0 0.0110(6) 
O1 O2- 8 d 0.6200(3) -0.0441(4) 0.7230(2) 1 0 0.0161(7) 

loop_
_atom_site_aniso_label
_atom_site_aniso_type_symbol
_atom_site_aniso_U_11
_atom_site_aniso_U_22
_atom_site_aniso_U_33
_atom_site_aniso_U_12
_atom_site_aniso_U_13
_atom_site_aniso_U_23
V1 V4+ 0.0092(5) 0.0072(5) 0.0102(5) 0.0002(2) -0.0011(2) -0.0006(2)
K1 K1+ 0.0121(6) 0.0113(7) 0.0154(7) 0.000 0.0003(4) 0.000
K2 K1+ 0.0147(6) 0.0129(6) 0.0165(7) 0.000 0.0012(4) 0.000
F1 F1- 0.0146(17) 0.0066(14) 0.0219(17) 0.000 -0.0016(12) 0.000
F2 F1- 0.0149(15) 0.0056(12) 0.0144(16) 0.000 0.0004(12) 0.000
F3 F1- 0.0112(11) 0.0141(11) 0.0209(12) -0.0014(9) -0.0012(8) 0.0002(10)
F4 F1- 0.0096(11) 0.0120(11) 0.0114(12) -0.0025(7) 0.0009(8) 0.0011(9)
O1 O2- 0.0224(15) 0.0131(13) 0.0127(14) 0.0008(10) 0.0012(10) 0.0005(12)
#End of data_426622-ICSD


