data_92312-ICSD
#?2014 by Fachinformationszentrum Karlsruhe, and the U.S. Secretary of 
#Commerce on behalf of the United States.  All rights reserved.
_database_code_ICSD                92312
_audit_creation_date               2002/10/01
_audit_update_record               2013/08/01
_chemical_name_systematic          'Trilithium Trisodium Nitride'
_chemical_formula_structural       'Li3 Na3 N2'
_chemical_formula_sum              'Li3 N2 Na3'
_publ_section_title
;
Investigation of the possible ternary nitrides in the system (Li3 
N)/(Na3 N)
;
loop_
_citation_id
_citation_journal_abbrev
_citation_year
_citation_journal_volume
_citation_page_first
_citation_page_last
_citation_journal_id_ASTM
primary 'Solid State Sciences' 2000 2 449 456 SSSCFJ
_publ_author_name
;
Schoen, J.C.;Wevers, M.A.C.;Jansen, M.
;
_cell_length_a                     3.854
_cell_length_b                     3.676
_cell_length_c                     6.32
_cell_angle_alpha                  90.
_cell_angle_beta                   90.31
_cell_angle_gamma                  90.
_cell_volume                       89.54
_cell_formula_units_Z              1
_symmetry_space_group_name_H-M     'P 1 m 1'
_symmetry_Int_Tables_number        6
loop_
_symmetry_equiv_pos_site_id
_symmetry_equiv_pos_as_xyz
  1	'x, -y, z'
  2	'x, y, z'
loop_
_atom_type_symbol
_atom_type_oxidation_number
Li1+	1
N3-	-3
Na1+	1
loop_
_atom_site_label
_atom_site_type_symbol
_atom_site_symmetry_multiplicity
_atom_site_Wyckoff_symbol
_atom_site_fract_x
_atom_site_fract_y
_atom_site_fract_z
_atom_site_occupancy
_atom_site_attached_hydrogens
N1 N3- 1 b 0.498 0.5 0.186 1. 0 
Na1 Na1+ 1 b 0.605 0.5 0.527 1. 0 
Na2 Na1+ 1 b 0.383 0.5 0.857 1. 0 
Li1 Li1+ 1 b 0 0.5 0.181 1. 0 
N2 N3- 1 a 0.5 0 0.703 1. 0 
Na3 Na1+ 1 a 0.434 0 0.362 1. 0 
Li2 Li1+ 1 a 0.538 0 0.028 1. 0 
Li3 Li1+ 1 a 0 0 0.717 1. 0 

#End of data_92312-ICSD


