data_167888-ICSD
#?2014 by Fachinformationszentrum Karlsruhe, and the U.S. Secretary of 
#Commerce on behalf of the United States.  All rights reserved.
_database_code_ICSD                167888
_audit_creation_date               2011/02/01
_chemical_name_systematic          'Calcium Titanate'
_chemical_formula_structural       'Ca (Ti O3)'
_chemical_formula_sum              'Ca1 O3 Ti1'
_chemical_name_mineral             Perovskite
_publ_section_title
;
Thermomechanical properties of calcium series perovskite-type oxides
;
loop_
_citation_id
_citation_journal_abbrev
_citation_year
_citation_journal_volume
_citation_page_first
_citation_page_last
_citation_journal_id_ASTM
primary 'Journal of Alloys and Compounds' 2010 504 201 204 JALCEU
2 'Acta Crystallographica, Section C: Crystal Structure Communications'
 1987 43 1668 1674 ACSCEE
_publ_author_name
;
Yang Hong Yan;Ohishi, Y.;Kurosaki, K.;Muta, H.;Yamanaka, S.
;
_cell_length_a                     5.3828
_cell_length_b                     5.4460
_cell_length_c                     7.6391
_cell_angle_alpha                  90.
_cell_angle_beta                   90.
_cell_angle_gamma                  90.
_cell_volume                       223.94
_cell_formula_units_Z              4
_symmetry_space_group_name_H-M     'P b n m'
_symmetry_Int_Tables_number        62
loop_
_symmetry_equiv_pos_site_id
_symmetry_equiv_pos_as_xyz
  1	'-x+.5, y+.5, z'
  2	'x, y, -z+.5'
  3	'x+.5, -y+.5, z+.5'
  4	'-x, -y, -z'
  5	'x+.5, -y+.5, -z'
  6	'-x, -y, z+.5'
  7	'-x+.5, y+.5, -z+.5'
  8	'x, y, z'
loop_
_atom_type_symbol
_atom_type_oxidation_number
Ca2+	2
O2-	-2
Ti4+	4
loop_
_atom_site_label
_atom_site_type_symbol
_atom_site_symmetry_multiplicity
_atom_site_Wyckoff_symbol
_atom_site_fract_x
_atom_site_fract_y
_atom_site_fract_z
_atom_site_occupancy
_atom_site_attached_hydrogens
Ca1 Ca2+ 4 c -.00676 0.03602 0.25 1. 0 
Ti1 Ti4+ 4 b 0 0.5 0 1. 0 
O1 O2- 4 c 0.0714 0.4838 0.25 1. 0 
O2 O2- 8 d 0.7108 0.2888 0.0371 1. 0 

loop_
_atom_site_aniso_label
_atom_site_aniso_type_symbol
_atom_site_aniso_U_11
_atom_site_aniso_U_22
_atom_site_aniso_U_33
_atom_site_aniso_U_12
_atom_site_aniso_U_13
_atom_site_aniso_U_23
Ca1 Ca2+ 0.0077(1) 0.0079(1) 0.0077(1) -.0013(1) 0 0
Ti1 Ti4+ 0.0052(1) 0.0049(1) 0.0049(1) 0.00016(9) 0.00001(8) 0.00021(6)
O1 O2- 0.0080(5) 0.0084(5) 0.0037(4) 0.0001(4) 0 0
O2 O2- 0.0062(3) 0.0050(3) 0.0078(3) -.0024(2) 0.0009(2) -.0006(2)
#End of data_167888-ICSD


