data_162235-ICSD
#?2014 by Fachinformationszentrum Karlsruhe, and the U.S. Secretary of 
#Commerce on behalf of the United States.  All rights reserved.
_database_code_ICSD                162235
_audit_creation_date               2009/08/01
_chemical_name_systematic          'Zinc Tungstate'
_chemical_formula_structural       'Zn (W O4)'
_chemical_formula_sum              'O4 W1 Zn1'
_publ_section_title
;
Combined Raman scattering and ab initio investigation of pressure-
induced structural phase transitions in the scintillator Zn W O4
;
loop_
_citation_id
_citation_journal_abbrev
_citation_year
_citation_journal_volume
_citation_page_first
_citation_page_last
_citation_journal_id_ASTM
primary 'Physical Review, Serie 3. B - Condensed Matter (18,1978-)'
 2008 78 054116-1 054116-12 PRBMDO
_publ_author_name
;
Errandonea, D.;Manjon, F.J.;Garro, N.;Rodriguez Hernandez, 
P.;Radescu, S.;Mujica, A.;Munoz, A.;Tu, C.-Y.
;
_cell_length_a                     4.741
_cell_length_b                     5.824
_cell_length_c                     4.977
_cell_angle_alpha                  90.
_cell_angle_beta                   90.759
_cell_angle_gamma                  90.
_cell_volume                       137.41
_cell_formula_units_Z              2
_symmetry_space_group_name_H-M     'P 1 2/c 1'
_symmetry_Int_Tables_number        13
loop_
_symmetry_equiv_pos_site_id
_symmetry_equiv_pos_as_xyz
  1	'x, -y, z+.5'
  2	'-x, -y, -z'
  3	'-x, y, -z+.5'
  4	'x, y, z'
loop_
_atom_type_symbol
_atom_type_oxidation_number
O2-	-2
W6+	6
Zn2+	2
loop_
_atom_site_label
_atom_site_type_symbol
_atom_site_symmetry_multiplicity
_atom_site_Wyckoff_symbol
_atom_site_fract_x
_atom_site_fract_y
_atom_site_fract_z
_atom_site_occupancy
_atom_site_attached_hydrogens
Zn1 Zn2+ 2 f 0.5 0.6811 0.250 1. 0 
W1 W6+ 2 e 0 0.1813 0.250 1. 0 
O1 O2- 4 g 0.2561 0.3741 0.4025 1. 0 
O2 O2- 4 g 0.2153 0.8943 0.4365 1. 0 

#End of data_162235-ICSD


