data_63418-ICSD
#?2014 by Fachinformationszentrum Karlsruhe, and the U.S. Secretary of 
#Commerce on behalf of the United States.  All rights reserved.
_database_code_ICSD                63418
_audit_creation_date               1990/12/27
_chemical_name_systematic          'Zinc Hydrogensulfate'
_chemical_formula_structural       'Zn (H S O4)2'
_chemical_formula_sum              'H2 O8 S2 Zn1'
_publ_section_title                'Crystal structure of Zn (H S O4)2'
loop_
_citation_id
_citation_journal_abbrev
_citation_year
_citation_journal_volume
_citation_page_first
_citation_page_last
_citation_journal_id_ASTM
primary Kristallografiya 1989 34 233 234 KRISAJ
2 'Soviet Physics, Crystallography (= Kristallografiya)'
 1989 34 136 137 SPHCA6
_publ_author_name                  'Troyanov, S.I.;Simonov, M.A.'
_cell_length_a                     7.216(3)
_cell_length_b                     8.345(3)
_cell_length_c                     4.883(1)
_cell_angle_alpha                  90.
_cell_angle_beta                   98.82(2)
_cell_angle_gamma                  90.
_cell_volume                       290.57
_cell_formula_units_Z              2
_symmetry_space_group_name_H-M     'P 1 21/n 1'
_symmetry_Int_Tables_number        14
_refine_ls_R_factor_all            .052
loop_
_symmetry_equiv_pos_site_id
_symmetry_equiv_pos_as_xyz
  1	'-x+.5, y+.5, -z+.5'
  2	'-x, -y, -z'
  3	'x+.5, -y+.5, z+.5'
  4	'x, y, z'
loop_
_atom_type_symbol
_atom_type_oxidation_number
H1+	1
O2-	-2
S6+	6
Zn2+	2
loop_
_atom_site_label
_atom_site_type_symbol
_atom_site_symmetry_multiplicity
_atom_site_Wyckoff_symbol
_atom_site_fract_x
_atom_site_fract_y
_atom_site_fract_z
_atom_site_occupancy
_atom_site_attached_hydrogens
_atom_site_B_iso_or_equiv
Zn1 Zn2+ 2 a 0 0 0 1. 0 0.58(1) 
S1 S6+ 4 e 0.2260(1) 0.17760(9) 0.5521(2) 1. 0 0.52(1) 
O1 O2- 4 e 0.2194(4) 0.8475(3) 0.9213(6) 1. 0 1.03(4) 
O2 O2- 4 e 0.0645(4) 0.1469(3) 0.6880(6) 1. 0 0.93(4) 
O3 O2- 4 e 0.1017(4) 0.5868(4) 0.7902(7) 1. 0 1.32(5) 
O4 O2- 4 e 0.2012(4) 0.1248(4) 0.2661(6) 1. 0 1.27(5) 
H1 H1+ 4 e 0.139 0.49 0.639 1. 0 2.0(5) 

#End of data_63418-ICSD


