data_40959-ICSD
#?2014 by Fachinformationszentrum Karlsruhe, and the U.S. Secretary of 
#Commerce on behalf of the United States.  All rights reserved.
_database_code_ICSD                40959
_audit_creation_date               2000/07/15
_audit_update_record               2010/08/01
_chemical_name_systematic          'Silver Gadolinium Sulfide'
_chemical_formula_structural       'Ag Gd S2'
_chemical_formula_sum              'Ag1 Gd1 S2'
_publ_section_title
;
Syntheses and structures of Ag Ln S2 (Ln= Sm-Yb) compounds
;
loop_
_citation_id
_citation_journal_abbrev
_citation_year
_citation_journal_volume
_citation_page_first
_citation_page_last
_citation_journal_id_ASTM
primary 'Journal of Alloys and Compounds' 1992 178 57 70 JALCEU
_publ_author_name
;
van der Lee, A.;van de Belt, R.;Wiegers, G.A.
;
_cell_length_a                     7.718(5)
_cell_length_b                     7.718(2)
_cell_length_c                     12.166(9)
_cell_angle_alpha                  90.
_cell_angle_beta                   90.04(3)
_cell_angle_gamma                  90.
_cell_volume                       724.7
_cell_formula_units_Z              8
_symmetry_space_group_name_H-M     'P 1 21 1'
_symmetry_Int_Tables_number        4
_refine_ls_R_factor_all            .122
loop_
_symmetry_equiv_pos_site_id
_symmetry_equiv_pos_as_xyz
  1	'-x, y+.5, -z'
  2	'x, y, z'
loop_
_atom_type_symbol
_atom_type_oxidation_number
Ag1+	1
Gd3+	3
S2-	-2
loop_
_atom_site_label
_atom_site_type_symbol
_atom_site_symmetry_multiplicity
_atom_site_Wyckoff_symbol
_atom_site_fract_x
_atom_site_fract_y
_atom_site_fract_z
_atom_site_occupancy
_atom_site_attached_hydrogens
_atom_site_B_iso_or_equiv
Ag1 Ag1+ 2 a 0.496(1) 0.751(1) 0.221(1) 1. 0 11.8(3) 
Ag2 Ag1+ 2 a 0.000(1) 0.252(1) 0.2947(5) 1. 0 8.3(2) 
Ag3 Ag1+ 2 a 0.2480(7) 0.503(1) -.017(1) 1. 0 10.8(3) 
Ag4 Ag1+ 2 a 0.2521(9) -.002(1) 0.486(1) 1. 0 11.1(4) 
Gd1 Gd3+ 2 a 0.2528(1) 0 -.0013(1) 1. 0 1.00(2) 
Gd2 Gd3+ 2 a 0.0003(1) 0.7514(1) 0.24670(7) 1. 0 0.72(2) 
Gd3 Gd3+ 2 a 0.5016(1) 0.2474(2) 0.25314(8) 1. 0 0.77(2) 
Gd4 Gd3+ 2 a 0.2462(1) 0.4999(2) 0.49719(9) 1. 0 0.80(2) 
S1 S2- 2 a -.017(1) 0.271(2) 0.5287(6) 1. 0 2.1(1) 
S2 S2- 2 a 0.5099(8) 0.745(1) 0.5181(5) 1. 0 1.32(8) 
S3 S2- 2 a 0.2733(7) 0.025(1) -.2304(4) 1. 0 0.80(6) 
S4 S2- 2 a 0.2749(7) -.018(1) 0.2253(4) 1. 0 0.72(6) 
S5 S2- 2 a 0.2295(6) 0.479(1) 0.2675(4) 1. 0 0.62(6) 
S6 S2- 2 a 0.7787(6) 0.0319(9) 0.2782(4) 1. 0 0.54(5) 
S7 S2- 2 a -.0244(8) 0.778(1) 0.0187(5) 1. 0 1.18(7) 
S8 S2- 2 a 0.5231(7) 0.229(1) 0.0279(4) 1. 0 0.74(6) 

#End of data_40959-ICSD


