data_16400-ICSD
#?2014 by Fachinformationszentrum Karlsruhe, and the U.S. Secretary of 
#Commerce on behalf of the United States.  All rights reserved.
_database_code_ICSD                16400
_audit_creation_date               1980/12/31
_audit_update_record               2012/08/01
_chemical_name_systematic
;
Dirubidium Lithium Hexafluoroferrate(III)
;
_chemical_formula_structural       'Rb2 Li Fe F6'
_chemical_formula_sum              'F6 Fe1 Li1 Rb2'
_publ_section_title
;
Verfeinerung der 12L-Struktur des hexagonal-rhomboedrischen 
Elpasoliths Rb2 Li Fe F6
;
loop_
_citation_id
_citation_journal_abbrev
_citation_year
_citation_journal_volume
_citation_page_first
_citation_page_last
_citation_journal_id_ASTM
primary 'Zeitschrift fuer Anorganische und Allgemeine Chemie (1950) (DE)'
 1980 469 75 80 ZAACAB
_publ_author_name                  'Massa, W.;Babel, D.'
_cell_length_a                     5.880(3)
_cell_length_b                     5.880(3)
_cell_length_c                     28.790(8)
_cell_angle_alpha                  90.
_cell_angle_beta                   90.
_cell_angle_gamma                  120.
_cell_volume                       862.04
_cell_formula_units_Z              6
_symmetry_space_group_name_H-M     'R -3 m H'
_symmetry_Int_Tables_number        166
_refine_ls_R_factor_all            .024
loop_
_symmetry_equiv_pos_site_id
_symmetry_equiv_pos_as_xyz
  1	'x-y, -y, -z'
  2	'-x, -x+y, -z'
  3	'y, x, -z'
  4	'x-y, x, -z'
  5	'y, -x+y, -z'
  6	'-x, -y, -z'
  7	'-x+y, y, z'
  8	'x, x-y, z'
  9	'-y, -x, z'
 10	'-x+y, -x, z'
 11	'-y, x-y, z'
 12	'x, y, z'
 13	'x-y+.6666, -y+.3333, -z+.3333'
 14	'x-y+.3333, -y+.6666, -z+.6666'
 15	'-x+.6666, -x+y+.3333, -z+.3333'
 16	'-x+.3333, -x+y+.6666, -z+.6666'
 17	'y+.6666, x+.3333, -z+.3333'
 18	'y+.3333, x+.6666, -z+.6666'
 19	'x-y+.6666, x+.3333, -z+.3333'
 20	'x-y+.3333, x+.6666, -z+.6666'
 21	'y+.6666, -x+y+.3333, -z+.3333'
 22	'y+.3333, -x+y+.6666, -z+.6666'
 23	'-x+.6666, -y+.3333, -z+.3333'
 24	'-x+.3333, -y+.6666, -z+.6666'
 25	'-x+y+.6666, y+.3333, z+.3333'
 26	'-x+y+.3333, y+.6666, z+.6666'
 27	'x+.6666, x-y+.3333, z+.3333'
 28	'x+.3333, x-y+.6666, z+.6666'
 29	'-y+.6666, -x+.3333, z+.3333'
 30	'-y+.3333, -x+.6666, z+.6666'
 31	'-x+y+.6666, -x+.3333, z+.3333'
 32	'-x+y+.3333, -x+.6666, z+.6666'
 33	'-y+.6666, x-y+.3333, z+.3333'
 34	'-y+.3333, x-y+.6666, z+.6666'
 35	'x+.6666, y+.3333, z+.3333'
 36	'x+.3333, y+.6666, z+.6666'
loop_
_atom_type_symbol
_atom_type_oxidation_number
F1-	-1
Fe3+	3
Li1+	1
Rb1+	1
loop_
_atom_site_label
_atom_site_type_symbol
_atom_site_symmetry_multiplicity
_atom_site_Wyckoff_symbol
_atom_site_fract_x
_atom_site_fract_y
_atom_site_fract_z
_atom_site_occupancy
_atom_site_attached_hydrogens
Fe1 Fe3+ 3 a 0 0 0 1. 0 
Fe2 Fe3+ 3 b 0 0 0.5 1. 0 
Li1 Li1+ 6 c 0 0 0.4024(6) 1. 0 
Rb1 Rb1+ 6 c 0 0 0.12738(3) 1. 0 
Rb2 Rb1+ 6 c 0 0 0.28213(2) 1. 0 
F1 F1- 18 h 0.1490(3) -.1490(3) 0.4592(1) 1. 0 
F2 F1- 18 h 0.1767(3) -.1767(3) 0.06285(1) 1. 0 

loop_
_atom_site_aniso_label
_atom_site_aniso_type_symbol
_atom_site_aniso_U_11
_atom_site_aniso_U_22
_atom_site_aniso_U_33
_atom_site_aniso_U_12
_atom_site_aniso_U_13
_atom_site_aniso_U_23
Fe1 Fe3+ 0.0052(4) 0.0052(4) 0.0047(7) 0.0026(4) 0 0
Fe2 Fe3+ 0.0073(4) 0.0073(4) 0.0047(6) 0.0037(4) 0 0
Li1 Li1+ 0.012(4) 0.012(4) 0.017(8) 0.006(4) 0 0
Rb1 Rb1+ 0.0109(4) 0.0109(4) 0.0125(4) 0.0055(4) 0 0
Rb2 Rb1+ 0.0104(3) 0.0104(3) 0.0130(4) 0.0052(3) 0 0
F1 F1- 0.0160(1) 0.0160(1) 0.0140(14) 0.0087(2) 0.0037(6) -.0037(6)
F2 F1- 0.0139(10) 0.0139(10) 0.0128(13) 0.0082(11) 0.0028(5) -.0018(5)
#End of data_16400-ICSD


