data_79100-ICSD
#?2014 by Fachinformationszentrum Karlsruhe, and the U.S. Secretary of 
#Commerce on behalf of the United States.  All rights reserved.
_database_code_ICSD                79100
_audit_creation_date               1996/04/22
_audit_update_record               2002/04/01
_chemical_name_systematic          'Disodium Europium Chloride'
_chemical_formula_structural       'Na2 Eu Cl5'
_chemical_formula_sum              'Cl5 Eu1 Na2'
_publ_section_title
;
Synthese und Kristallstruktur der ternaeren Selten-Erd-Chloride Na2 M 
Cl5 (M= Sm, Eu, Gd)
;
loop_
_citation_id
_citation_journal_abbrev
_citation_year
_citation_journal_volume
_citation_page_first
_citation_page_last
_citation_journal_id_ASTM
primary 'Zeitschrift fuer Anorganische und Allgemeine Chemie (1950) (DE)'
 1995 621 740 742 ZAACAB
_publ_author_name                  'Wickleder, M.S.;Meyer, G.'
_cell_length_a                     12.040(3)
_cell_length_b                     8.339(3)
_cell_length_c                     7.682(3)
_cell_angle_alpha                  90.
_cell_angle_beta                   90.
_cell_angle_gamma                  90.
_cell_volume                       771.28
_cell_formula_units_Z              4
_symmetry_space_group_name_H-M     'P n m a'
_symmetry_Int_Tables_number        62
_refine_ls_R_factor_all            .035
loop_
_symmetry_equiv_pos_site_id
_symmetry_equiv_pos_as_xyz
  1	'x+.5, y, -z+.5'
  2	'x, -y+.5, z'
  3	'-x+.5, y+.5, z+.5'
  4	'-x, -y, -z'
  5	'-x+.5, -y, z+.5'
  6	'-x, y+.5, -z'
  7	'x+.5, -y+.5, -z+.5'
  8	'x, y, z'
loop_
_atom_type_symbol
_atom_type_oxidation_number
Cl1-	-1
Eu3+	3
Na1+	1
loop_
_atom_site_label
_atom_site_type_symbol
_atom_site_symmetry_multiplicity
_atom_site_Wyckoff_symbol
_atom_site_fract_x
_atom_site_fract_y
_atom_site_fract_z
_atom_site_occupancy
_atom_site_attached_hydrogens
Na1 Na1+ 8 d 0.8280(2) 0.5017(3) 0.5345(3) 1. 0 
Eu1 Eu3+ 4 c 0.0068(1) 0.25 0.9170(2) 1. 0 
Cl1 Cl1- 4 c 0.5062(1) 0.25 0.9410(2) 1. 0 
Cl2 Cl1- 4 c 0.6817(1) 0.25 0.3602(3) 1. 0 
Cl3 Cl1- 8 d 0.4129(1) 0.4549(1) 0.3356(2) 1. 0 
Cl4 Cl1- 4 c 0.2879(1) 0.25 0.6788(3) 1. 0 

loop_
_atom_site_aniso_label
_atom_site_aniso_type_symbol
_atom_site_aniso_U_11
_atom_site_aniso_U_22
_atom_site_aniso_U_33
_atom_site_aniso_U_12
_atom_site_aniso_U_13
_atom_site_aniso_U_23
Na1 Na1+ 0.037(1) 0.044(1) 0.042(1) 0.003(1) 0.004(1) 0.017(1)
Eu1 Eu3+ 0.023(1) 0.018(1) 0.015(1) 0 -0.001(1) 0
Cl1 Cl1- 0.035(1) 0.042(1) 0.017(1) 0 0.002(1) 0
Cl2 Cl1- 0.029(1) 0.046(1) 0.028(1) 0 0.008(1) 0
Cl3 Cl1- 0.044(1) 0.021(1) 0.027(1) -0.002(1) -0.014(1) 0.001(1)
Cl4 Cl1- 0.023(1) 0.050(1) 0.034(1) 0 0.003(1) 0
#End of data_79100-ICSD


