data_419628-ICSD
#?2014 by Fachinformationszentrum Karlsruhe, and the U.S. Secretary of 
#Commerce on behalf of the United States.  All rights reserved.
_database_code_ICSD                419628
_audit_creation_date               2009/02/01
_chemical_name_systematic          'Silver Dinitramide'
_chemical_formula_structural       'Ag (N (N O2)2)'
_chemical_formula_sum              'Ag1 N3 O4'
_publ_section_title
;
First structural characterization of solvate-free silver dinitramide, 
Ag (N (N O2)2)
;
loop_
_citation_id
_citation_journal_abbrev
_citation_year
_citation_journal_volume
_citation_page_first
_citation_page_last
_citation_journal_id_ASTM
primary 'Dalton Transactions' 2008 2008 5876 5878 DTARAF
_publ_author_name
;
Klapoetke, T.M.;Krumm, B.;Scherr, M.
;
_cell_length_a                     5.8040(4)
_cell_length_b                     9.7496(6)
_cell_length_c                     13.9105(8)
_cell_angle_alpha                  90.
_cell_angle_beta                   90.
_cell_angle_gamma                  90.
_cell_volume                       787.15
_cell_formula_units_Z              8
_symmetry_space_group_name_H-M     'P b c a'
_symmetry_Int_Tables_number        61
_refine_ls_R_factor_all            .0352
loop_
_symmetry_equiv_pos_site_id
_symmetry_equiv_pos_as_xyz
  1	'x+.5, y, -z+.5'
  2	'x, -y+.5, z+.5'
  3	'-x+.5, y+.5, z'
  4	'-x, -y, -z'
  5	'-x+.5, -y, z+.5'
  6	'-x, y+.5, -z+.5'
  7	'x+.5, -y+.5, -z'
  8	'x, y, z'
loop_
_atom_type_symbol
_atom_type_oxidation_number
Ag1+	1
N1+	1
N3+	3
O2-	-2
loop_
_atom_site_label
_atom_site_type_symbol
_atom_site_symmetry_multiplicity
_atom_site_Wyckoff_symbol
_atom_site_fract_x
_atom_site_fract_y
_atom_site_fract_z
_atom_site_occupancy
_atom_site_attached_hydrogens
_atom_site_U_iso_or_equiv
N1 N1+ 8 c 0.0932(7) -0.1860(5) 0.3704(3) 1. 0 0.0179(10) 
N2 N3+ 8 c 0.1560(7) -0.1429(4) 0.4613(3) 1. 0 0.0167(9) 
N3 N3+ 8 c 0.0984(7) -0.0879(5) 0.3005(4) 1. 0 0.0190(10) 
O1 O2- 8 c 0.1102(7) -0.2277(4) 0.5243(3) 1. 0 0.0239(9) 
O2 O2- 8 c 0.2608(6) -0.0362(4) 0.4779(3) 1. 0 0.0226(8) 
O3 O2- 8 c 0.0885(7) -0.1341(5) 0.2187(3) 1. 0 0.0281(10) 
O4 O2- 8 c 0.0969(7) 0.0368(4) 0.3166(3) 1. 0 0.0300(10) 
Ag1 Ag1+ 8 c 0.08057(9) 0.10455(5) 0.14168(3) 1. 0 0.0348(3) 

loop_
_atom_site_aniso_label
_atom_site_aniso_type_symbol
_atom_site_aniso_U_11
_atom_site_aniso_U_22
_atom_site_aniso_U_33
_atom_site_aniso_U_12
_atom_site_aniso_U_13
_atom_site_aniso_U_23
N1 N1+ 0.026(2) 0.012(2) 0.016(2) -0.0022(18) -0.0030(19) 0.003(2)
N2 N3+ 0.014(2) 0.020(2) 0.016(2) 0.0018(19) -0.0011(19) 0.001(2)
N3 N3+ 0.013(2) 0.024(3) 0.020(3) 0.0002(18) -0.0005(19) 0.0046(19)
O1 O2- 0.026(2) 0.026(2) 0.020(2) -0.0001(17) 0.0000(17) 0.0086(18)
O2 O2- 0.024(2) 0.0193(19) 0.0240(19) -0.0046(17) -0.0058(18) -0.0028(17)
O3 O2- 0.025(2) 0.044(3) 0.0155(19) 0.0028(19) -0.0021(17) -0.001(2)
O4 O2- 0.044(2) 0.018(2) 0.028(2) 0.0001(19) -0.001(2) 0.0082(19)
Ag1 Ag1+ 0.0488(4) 0.0297(4) 0.0259(3) 0.0151(2) 0.0128(2) 0.0129(2)
#End of data_419628-ICSD


