data_413484-ICSD
#?2014 by Fachinformationszentrum Karlsruhe, and the U.S. Secretary of 
#Commerce on behalf of the United States.  All rights reserved.
_database_code_ICSD                413484
_audit_creation_date               2010/02/01
_chemical_name_systematic
;
Potassium Tellurium Tris(octadecaantimonate) Octadecahydrate
;
_chemical_formula_structural       'K18 Te36 (Sb12 O18)3 (H2 O)18'
_chemical_formula_sum              'H36 K18 O72 Sb36 Te36'
_chemical_name_mineral             SBC-1
_publ_section_title
;
A crystalline microporous narrow-bandgap semiconductor
;
loop_
_citation_id
_citation_journal_abbrev
_citation_year
_citation_journal_volume
_citation_journal_issue
_citation_page_first
_citation_page_last
_citation_journal_id_ASTM
primary 'Angewandte Chemie. International Edition' 2004 43 6 700 704 ACIEF5
_publ_author_name
;
Palmquist, A.E.C.;Iversen, B.B.;Zanghellini, E.;Behm, M.;Stucky, G.D.
;
_cell_length_a                     27.3361(11)
_cell_length_b                     27.3361(11)
_cell_length_c                     5.6909(3)
_cell_angle_alpha                  90.00
_cell_angle_beta                   90.00
_cell_angle_gamma                  120.00
_cell_volume                       3682.86
_cell_formula_units_Z              1
_symmetry_space_group_name_H-M     'R -3 H'
_symmetry_Int_Tables_number        148
_refine_ls_R_factor_all            .0233
loop_
_symmetry_equiv_pos_site_id
_symmetry_equiv_pos_as_xyz
  1	'x-y, x, -z'
  2	'y, -x+y, -z'
  3	'-x, -y, -z'
  4	'-x+y, -x, z'
  5	'-y, x-y, z'
  6	'x, y, z'
  7	'x-y+.6666, x+.3333, -z+.3333'
  8	'x-y+.3333, x+.6666, -z+.6666'
  9	'y+.6666, -x+y+.3333, -z+.3333'
 10	'y+.3333, -x+y+.6666, -z+.6666'
 11	'-x+.6666, -y+.3333, -z+.3333'
 12	'-x+.3333, -y+.6666, -z+.6666'
 13	'-x+y+.6666, -x+.3333, z+.3333'
 14	'-x+y+.3333, -x+.6666, z+.6666'
 15	'-y+.6666, x-y+.3333, z+.3333'
 16	'-y+.3333, x-y+.6666, z+.6666'
 17	'x+.6666, y+.3333, z+.3333'
 18	'x+.3333, y+.6666, z+.6666'
loop_
_atom_type_symbol
_atom_type_oxidation_number
H1+	1
K1+	1
O2-	-2
Sb.5+	.5
Te2+	2
loop_
_atom_site_label
_atom_site_type_symbol
_atom_site_symmetry_multiplicity
_atom_site_Wyckoff_symbol
_atom_site_fract_x
_atom_site_fract_y
_atom_site_fract_z
_atom_site_occupancy
_atom_site_attached_hydrogens
_atom_site_U_iso_or_equiv
Sb1 Sb.5+ 18 f 0.535282(14) 0.440666(14) 0.07020(5) 1 0 0.01476(13) 
Sb2 Sb.5+ 18 f 0.468650(14) 0.350069(14) 0.57293(5) 1 0 0.01510(13) 
Te1 Te2+ 18 f 0.441847(18) 0.463343(16) 0.50096(6) 1 0 0.02886(14) 
Te2 Te2+ 18 f 0.384311(15) 0.370430(16) 0.09963(6) 1 0 0.02173(14) 
K1 K1+ 18 f 0.52397(7) 0.29538(6) 0.0849(2) 1 0 0.0342(3) 
O1 O2- 18 f 0.52582(15) 0.38550(15) 0.3206(5) 1 0 0.0180(7) 
O2 O2- 18 f 0.48333(16) 0.28483(14) 0.5880(6) 1 0 0.0198(7) 
O3 O2- 18 f 0.52691(16) 0.38555(15) 0.8220(6) 1 0 0.0196(8) 
O4 O2- 18 f 0.5937(4) 0.3138(4) 0.591(2) 1 0 0.107(4) 
H1 H1+ 18 f 0.566(5) 0.315(7) 0.56(2) 1 0 0.128 
H2 H1+ 18 f 0.613(6) 0.321(7) 0.480(18) 1 0 0.128 

loop_
_atom_site_aniso_label
_atom_site_aniso_type_symbol
_atom_site_aniso_U_11
_atom_site_aniso_U_22
_atom_site_aniso_U_33
_atom_site_aniso_U_12
_atom_site_aniso_U_13
_atom_site_aniso_U_23
Sb1 Sb.5+ 0.01413(19) 0.01430(19) 0.01460(18) 0.00616(14) 0.00031(11) 
-0.00086(11)
Sb2 Sb.5+ 0.01390(19) 0.01468(19) 0.01560(19) 0.00630(14) 0.00103(11) 
0.00032(11)
Te1 Te2+ 0.0270(2) 0.0215(2) 0.0323(2) 0.00773(16) 0.00417(15) -0.00984(14)
Te2 Te2+ 0.0206(2) 0.0275(2) 0.0208(2) 0.01480(16) 0.00086(12) 0.00103(13)
K1 K1+ 0.0523(9) 0.0222(6) 0.0273(6) 0.0181(6) -0.0007(6) -0.0020(5)
O1 O2- 0.0193(18) 0.0205(19) 0.0134(15) 0.0094(16) 0.0030(13) 0.0040(13)
O2 O2- 0.0231(19) 0.0117(18) 0.0252(18) 0.0091(15) -0.0029(15) -0.0022(14)
O3 O2- 0.0217(19) 0.0204(19) 0.0148(15) 0.0090(16) -0.0021(14) -0.0050(13)
O4 O2- 0.046(5) 0.074(5) 0.202(12) 0.032(5) 0.011(5) -0.008(6)
#End of data_413484-ICSD


