data_81691-ICSD
#?2014 by Fachinformationszentrum Karlsruhe, and the U.S. Secretary of 
#Commerce on behalf of the United States.  All rights reserved.
_database_code_ICSD                81691
_audit_creation_date               1997/05/13
_audit_update_record               2006/04/01
_chemical_name_systematic          'Dipotassium Selenate(VI)'
_chemical_formula_structural       'K2 (Se O4)'
_chemical_formula_sum              'K2 O4 Se1'
_publ_section_title
;
Study on K2 Se O4 at different temperatures
;
loop_
_citation_id
_citation_journal_abbrev
_citation_year
_citation_journal_volume
_citation_page_first
_citation_page_last
_citation_journal_id_ASTM
primary Ferroelectrics 1996 177 191 199 FEROA8
2 'Golden Book of Phase Transitions, Wroclaw' 2002 1 1 123 GBOPT5
_publ_author_name
;
Gonzalez-Silgo, C.;Solans, X.;Ruiz Perez, C.;Martinez-Sarrion, 
M.L.;Mestres, L.
;
_cell_length_a                     7.605(10)
_cell_length_b                     10.383(3)
_cell_length_c                     5.949(6)
_cell_angle_alpha                  90.
_cell_angle_beta                   90.
_cell_angle_gamma                  90.
_cell_volume                       469.75
_cell_formula_units_Z              4
_symmetry_space_group_name_H-M     'P n a m'
_symmetry_Int_Tables_number        62
_refine_ls_R_factor_all            .064
loop_
_symmetry_equiv_pos_site_id
_symmetry_equiv_pos_as_xyz
  1	'x+.5, -y+.5, z'
  2	'x, y, -z+.5'
  3	'-x+.5, y+.5, z+.5'
  4	'-x, -y, -z'
  5	'-x+.5, y+.5, -z'
  6	'-x, -y, z+.5'
  7	'x+.5, -y+.5, -z+.5'
  8	'x, y, z'
loop_
_atom_type_symbol
_atom_type_oxidation_number
K1+	1
O2-	-2
Se6+	6
loop_
_atom_site_label
_atom_site_type_symbol
_atom_site_symmetry_multiplicity
_atom_site_Wyckoff_symbol
_atom_site_fract_x
_atom_site_fract_y
_atom_site_fract_z
_atom_site_occupancy
_atom_site_attached_hydrogens
_atom_site_U_iso_or_equiv
K1 K1+ 4 c 0.1667(2) 0.0818(1) 0.25 1. 0 0.005(1) 
K2 K1+ 4 c -.0030(1) 0.7076(1) 0.25 1. 0 0.004(1) 
Se1 Se6+ 4 c 0.2225(1) 0.4193(1) 0.25 1. 0 0.002(1) 
O1 O2- 8 d 0.2906(4) 0.3437(3) 0.0268(5) 1. 0 0.013(1) 
O2 O2- 4 c 0.3091(6) 0.5642(5) 0.25 1. 0 0.012(1) 
O3 O2- 4 c 0.0092(7) 0.4280(4) 0.25 1. 0 0.016(1) 

#End of data_81691-ICSD


