data_167183-ICSD
#?2014 by Fachinformationszentrum Karlsruhe, and the U.S. Secretary of 
#Commerce on behalf of the United States.  All rights reserved.
_database_code_ICSD                167183
_audit_creation_date               2010/08/01
_chemical_name_systematic          'Zinc Silicate - O'
_chemical_formula_structural       'Zn (Si O3)'
_chemical_formula_sum              'O3 Si1 Zn1'
_publ_section_title
;
Phase stability and pressure-induced structural transitions at zero 
temperature in Zn Si O3 and Zn2 Si O4
;
loop_
_citation_id
_citation_journal_abbrev
_citation_year
_citation_journal_volume
_citation_page_first
_citation_page_last
_citation_journal_id_ASTM
primary 'Journal of Physics: Condensed Matter' 2009 21 485801-01 485801-09 JCOMEL
_publ_author_name
;
Karazhanov, S.Z.;Ravindran, P.;Vajeeston, P.;Ulyashin, A.G.;Fjellvag, 
H.;Svensson, B.G.
;
_cell_length_a                     17.4224
_cell_length_b                     8.7544
_cell_length_c                     5.0881
_cell_angle_alpha                  90.
_cell_angle_beta                   90.
_cell_angle_gamma                  90.
_cell_volume                       776.05
_cell_formula_units_Z              16
_symmetry_space_group_name_H-M     'P b c a'
_symmetry_Int_Tables_number        61
loop_
_symmetry_equiv_pos_site_id
_symmetry_equiv_pos_as_xyz
  1	'x+.5, y, -z+.5'
  2	'x, -y+.5, z+.5'
  3	'-x+.5, y+.5, z'
  4	'-x, -y, -z'
  5	'-x+.5, -y, z+.5'
  6	'-x, y+.5, -z+.5'
  7	'x+.5, -y+.5, -z'
  8	'x, y, z'
loop_
_atom_type_symbol
_atom_type_oxidation_number
O2-	-2
Si4+	4
Zn2+	2
loop_
_atom_site_label
_atom_site_type_symbol
_atom_site_symmetry_multiplicity
_atom_site_Wyckoff_symbol
_atom_site_fract_x
_atom_site_fract_y
_atom_site_fract_z
_atom_site_occupancy
_atom_site_attached_hydrogens
Zn1 Zn2+ 8 c 0.1253 0.3557 0.4007 1. 0 
Zn2 Zn2+ 8 c 0.3760 0.5140 0.3949 1. 0 
Si1 Si4+ 8 c 0.2742 0.3373 0.0852 1. 0 
Si2 Si4+ 8 c 0.4717 0.1677 0.2872 1. 0 
O1 O2- 8 c 0.1840 0.3318 0.0831 1. 0 
O2 O2- 8 c 0.3108 0.4995 0.1045 1. 0 
O3 O2- 8 c 0.3032 0.2503 0.3368 1. 0 
O4 O2- 8 c 0.5624 0.3355 0.7863 1. 0 
O5 O2- 8 c 0.4301 0.4811 0.6999 1. 0 
O6 O2- 8 c 0.4473 0.2049 0.5805 1. 0 

#End of data_167183-ICSD


