data_9276-ICSD
#?2014 by Fachinformationszentrum Karlsruhe, and the U.S. Secretary of 
#Commerce on behalf of the United States.  All rights reserved.
_database_code_ICSD                9276
_audit_creation_date               1980/01/01
_audit_update_record               2010/02/01
_chemical_name_systematic          'Calcium Digallium Oxide - Lt'
_chemical_formula_structural       'Ca Ga2 O4'
_chemical_formula_sum              'Ca1 Ga2 O4'
_publ_section_title
;
Ueber Erdalkalimetalloxogallate. V. Die Kristallstruktur von 
monoklinem Ca Ga2 O4
;
loop_
_citation_id
_citation_journal_abbrev
_citation_year
_citation_journal_volume
_citation_page_first
_citation_page_last
_citation_journal_id_ASTM
primary 'Zeitschrift fuer Anorganische und Allgemeine Chemie (1950) (DE)'
 1973 402 201 205 ZAACAB
2
;
Zeitschrift fuer Kristallographie, Kristallgeometrie, Kristallphysik, 
Kristallchemie (-144,1977)
;
 1963 118 252 262 ZEKGAX
_publ_author_name
;
Deiseroth, H.J.;Mueller Buschbaum, H.
;
_cell_length_a                     7.992
_cell_length_b                     8.83
_cell_length_c                     10.585
_cell_angle_alpha                  90.
_cell_angle_beta                   94.72
_cell_angle_gamma                  90.
_cell_volume                       744.44
_cell_formula_units_Z              8
_symmetry_space_group_name_H-M     'P 1 21/c 1'
_symmetry_Int_Tables_number        14
_refine_ls_R_factor_all            .082
loop_
_symmetry_equiv_pos_site_id
_symmetry_equiv_pos_as_xyz
  1	'x, -y+.5, z+.5'
  2	'-x, -y, -z'
  3	'-x, y+.5, -z+.5'
  4	'x, y, z'
loop_
_atom_type_symbol
_atom_type_oxidation_number
Ca2+	2
Ga3+	3
O2-	-2
loop_
_atom_site_label
_atom_site_type_symbol
_atom_site_symmetry_multiplicity
_atom_site_Wyckoff_symbol
_atom_site_fract_x
_atom_site_fract_y
_atom_site_fract_z
_atom_site_occupancy
_atom_site_attached_hydrogens
_atom_site_B_iso_or_equiv
Ga1 Ga3+ 4 e 0.29017(28) 0.39009(27) 0.11798(22) 1. 0 0.517 
Ga2 Ga3+ 4 e 0.69825(29) 0.40502(26) 0.10924(21) 1. 0 0.499 
Ga3 Ga3+ 4 e 0.82427(28) 0.55424(28) 0.36079(21) 1. 0 0.527 
Ga4 Ga3+ 4 e 0.23428(30) 0.55976(27) 0.36928(22) 1. 0 0.524 
Ca1 Ca2+ 4 e 0.53730(54) 0.23678(50) 0.35334(40) 1. 0 0.784 
Ca2 Ca2+ 4 e -.00033(53) 0.21374(50) 0.37087(42) 1. 0 0.9 
O1 O2- 4 e 0.3698(18) 0.4358(18) 0.2825(14) 1. 0 0.87 
O2 O2- 4 e 0.7273(17) 0.4146(16) 0.4587(13) 1. 0 0.64 
O3 O2- 4 e 0.1370(18) 0.2391(17) 0.0696(14) 1. 0 0.65 
O4 O2- 4 e 0.4846(19) 0.3390(17) 0.0525(14) 1. 0 1.02 
O5 O2- 4 e 0.2085(17) 0.5703(16) 0.0441(13) 1. 0 0.44 
O6 O2- 4 e 0.7218(17) 0.5873(16) 0.1977(13) 1. 0 0.53 
O7 O2- 4 e 0.7695(17) 0.2469(16) 0.2134(13) 1. 0 0.39 
O8 O2- 4 e 0.0301(18) 0.4732(17) 0.3250(13) 1. 0 0.8 

#End of data_9276-ICSD


