data_1439-ICSD
#?2014 by Fachinformationszentrum Karlsruhe, and the U.S. Secretary of 
#Commerce on behalf of the United States.  All rights reserved.
_database_code_ICSD                1439
_audit_creation_date               1980/01/01
_audit_update_record               2010/02/01
_chemical_name_systematic
;
Lithium Ammonium Fluorotrioxophosphate(V)
;
_chemical_formula_structural       'Li (N H4) (P O3 F)'
_chemical_formula_sum              'H4 F1 Li1 N1 O3 P1'
_publ_section_title
;
Etudes structurales de composes oxyfluores du P(V). V. Structure 
cristalline de  Li N H4 P O3 F
;
loop_
_citation_id
_citation_journal_abbrev
_citation_year
_citation_journal_volume
_citation_page_first
_citation_page_last
_citation_journal_id_ASTM
primary 'Acta Crystallographica B (24,1968-38,1982)' 1978 34 388 391 ACBCAR
_publ_author_name
;
Durand, J.;le Cot, L.;Galigne, J.L.
;
_cell_length_a                     5.463(3)
_cell_length_b                     5.049(3)
_cell_length_c                     14.362(9)
_cell_angle_alpha                  90.
_cell_angle_beta                   90.82(3)
_cell_angle_gamma                  90.
_cell_volume                       396.1
_cell_formula_units_Z              4
_symmetry_space_group_name_H-M     'P 1 21/c 1'
_symmetry_Int_Tables_number        14
_refine_ls_R_factor_all            .047
loop_
_symmetry_equiv_pos_site_id
_symmetry_equiv_pos_as_xyz
  1	'x, -y+.5, z+.5'
  2	'-x, -y, -z'
  3	'-x, y+.5, -z+.5'
  4	'x, y, z'
loop_
_atom_type_symbol
_atom_type_oxidation_number
F1-	-1
H1+	1
Li1+	1
N3-	-3
O2-	-2
P5+	5
loop_
_atom_site_label
_atom_site_type_symbol
_atom_site_symmetry_multiplicity
_atom_site_Wyckoff_symbol
_atom_site_fract_x
_atom_site_fract_y
_atom_site_fract_z
_atom_site_occupancy
_atom_site_attached_hydrogens
_atom_site_B_iso_or_equiv
Li1 Li1+ 4 e 0.1862(14) 0.9424(18) 0.2455(5) 1. 0 0 
N1 N3- 4 e 0.7545(6) 0.9504(9) 0.0786(2) 1. 0 0 
P1 P5+ 4 e 0.7017(2) 0.9414(3) 0.3562(1) 1. 0 0 
O1 O2- 4 e 0.8733(6) 0.0780(7) 0.2905(2) 1. 0 0 
O2 O2- 4 e 0.4335(5) 0.9926(7) 0.3383(2) 1. 0 0 
O3 O2- 4 e 0.7600(6) 0.6524(7) 0.3732(2) 1. 0 0 
F1 F1- 4 e 0.7553(5) 0.0782(6) 0.4543(2) 1. 0 0 
H1 H1+ 4 e 0.750(6) 0.045(9) 0.021(3) 1. 0 4. 
H2 H1+ 4 e 0.693(6) 0.802(9) 0.105(3) 1. 0 4. 
H3 H1+ 4 e 0.904(6) 0.013(9) 0.094(3) 1. 0 4. 
H4 H1+ 4 e 0.653(6) 0.058(9) 0.125(3) 1. 0 4. 

#End of data_1439-ICSD


