data_72520-ICSD
#?2014 by Fachinformationszentrum Karlsruhe, and the U.S. Secretary of 
#Commerce on behalf of the United States.  All rights reserved.
_database_code_ICSD                72520
_audit_creation_date               1994/01/19
_chemical_name_systematic          'Calcium Beryllium Diborate'
_chemical_formula_structural       'Ca Be (B2 O5)'
_chemical_formula_sum              'B2 Be1 Ca1 O5'
_publ_section_title
;
Alkaline-earth beryllium borate CaBeB2O5
;
loop_
_citation_id
_citation_journal_abbrev
_citation_year
_citation_journal_volume
_citation_page_first
_citation_page_last
_citation_journal_id_ASTM
primary 'Acta Crystallographica, Section C: Crystal Structure Communications'
 1993 49 647 650 ACSCEE
_publ_author_name                  'Schaffers, K.I.;Keszler, D.A.'
_cell_length_a                     5.167(2)
_cell_length_b                     3.756(2)
_cell_length_c                     17.160(2)
_cell_angle_alpha                  90.
_cell_angle_beta                   98.12(2)
_cell_angle_gamma                  90.
_cell_volume                       329.69
_cell_formula_units_Z              4
_symmetry_space_group_name_H-M     'P 1 21/n 1'
_symmetry_Int_Tables_number        14
_refine_ls_R_factor_all            .039
loop_
_symmetry_equiv_pos_site_id
_symmetry_equiv_pos_as_xyz
  1	'-x+.5, y+.5, -z+.5'
  2	'-x, -y, -z'
  3	'x+.5, -y+.5, z+.5'
  4	'x, y, z'
loop_
_atom_type_symbol
_atom_type_oxidation_number
B3+	3
Be2+	2
Ca2+	2
O2-	-2
loop_
_atom_site_label
_atom_site_type_symbol
_atom_site_symmetry_multiplicity
_atom_site_Wyckoff_symbol
_atom_site_fract_x
_atom_site_fract_y
_atom_site_fract_z
_atom_site_occupancy
_atom_site_attached_hydrogens
Ca1 Ca2+ 4 e 0.7915(1) 0.6212(2) 0.07348(5) 1. 0 
Be1 Be2+ 4 e 0.604(1) 0.238(2) 0.2122(3) 1. 0 
B1 B3+ 4 e 0.300(1) 0.974(1) 0.0963(3) 1. 0 
B2 B3+ 4 e 0.1122(9) 0.252(1) 0.2119(3) 1. 0 
O1 O2- 4 e 0.3561(5) 0.479(1) 0.2236(2) 1. 0 
O2 O2- 4 e 0.0854(5) 0.0934(8) 0.1302(2) 1. 0 
O3 O2- 4 e 0.8679(5) 0.457(1) 0.2178(2) 1. 0 
O4 O2- 4 e 0.5484(6) 0.0793(8) 0.1265(2) 1. 0 
O5 O2- 4 e 0.2560(6) 0.763(1) 0.0321(2) 1. 0 

loop_
_atom_site_aniso_label
_atom_site_aniso_type_symbol
_atom_site_aniso_U_11
_atom_site_aniso_U_22
_atom_site_aniso_U_33
_atom_site_aniso_U_12
_atom_site_aniso_U_13
_atom_site_aniso_U_23
Ca1 Ca2+ 0.0224(6) 0.0189(6) 0.0293(6) -.0006(4) 0.0025(4) -.0035(4)
Be1 Be2+ 0.018(3) 0.014(3) 0.024(3) 0.004(2) 0.002(2) 0.001(2)
B1 B3+ 0.023(3) 0.014(2) 0.025(2) -.002(2) 0.002(2) 0.001(2)
B2 B3+ 0.017(2) 0.018(3) 0.031(3) 0.001(2) 0.004(2) 0.001(2)
O1 O2- 0.019(2) 0.017(2) 0.027(2) -.002(1) 0.000(1) -.001(1)
O2 O2- 0.018(2) 0.018(2) 0.033(2) 0.000(1) 0.004(1) -.001(1)
O3 O2- 0.021(2) 0.019(2) 0.027(2) 0.003(1) 0.002(1) -.001(1)
O4 O2- 0.017(1) 0.018(2) 0.034(2) 0.000(1) 0.002(1) -.002(1)
O5 O2- 0.033(2) 0.026(2) 0.031(2) 0.001(2) 0.004(1) -.008(1)
#End of data_72520-ICSD


