data_280012-ICSD
#?2014 by Fachinformationszentrum Karlsruhe, and the U.S. Secretary of 
#Commerce on behalf of the United States.  All rights reserved.
_database_code_ICSD                280012
_audit_creation_date               2000/07/15
_chemical_name_systematic
;
Potassium Mue-fluorohexafluorotetraoxodirhenate
;
_chemical_formula_structural       'K (Re2 O4 F7)'
_chemical_formula_sum              'F7 K1 O4 Re2'
_publ_section_title
;
Lewis acid behavior of ReO2F3: Synthesis of (ReO2F3),ReO2F4-, Re2O4F7-
, Re3O6F10-, and ReO2F3(CH3CN) and study by NMR-, Raman Spectroscopy, 
and DFT-calculations; and x-ray structures of 
Li(ReO2F4),K(Re2O4F7),K(Re2O4F7)2.2ReO2F3, Cs(Re3O6F10)
;
loop_
_citation_id
_citation_journal_abbrev
_citation_year
_citation_journal_volume
_citation_page_first
_citation_page_last
_citation_journal_id_ASTM
primary 'Inorganic Chemistry' 1999 38 2340 2358 INOCAJ
_publ_author_name
;
Casteel, W.J.jr.;Dixon, D.A.;LeBlond, N.;Lock, P.E.;Mercier, 
H.P.A.;Schrobilgen, G.J.D.
;
_cell_length_a                     5.4990(11)
_cell_length_b                     5.153(1)
_cell_length_c                     14.753(3)
_cell_angle_alpha                  90.
_cell_angle_beta                   95.68(3)
_cell_angle_gamma                  90.
_cell_volume                       415.99
_cell_formula_units_Z              2
_symmetry_space_group_name_H-M     'P 1 2/n 1'
_symmetry_Int_Tables_number        13
_refine_ls_R_factor_all            .0553
loop_
_symmetry_equiv_pos_site_id
_symmetry_equiv_pos_as_xyz
  1	'x+.5, -y, z+.5'
  2	'-x+.5, y, -z+.5'
  3	'-x, -y, -z'
  4	'x, y, z'
loop_
_atom_type_symbol
_atom_type_oxidation_number
F1-	-1
K1+	1
O2-	-2
Re7+	7
loop_
_atom_site_label
_atom_site_type_symbol
_atom_site_symmetry_multiplicity
_atom_site_Wyckoff_symbol
_atom_site_fract_x
_atom_site_fract_y
_atom_site_fract_z
_atom_site_occupancy
_atom_site_attached_hydrogens
Re1 Re7+ 4 g 0.24386(8) 0.76160(9) 0.11275(4) 1. 0 
K1 K1+ 2 f -.25 0.3224(11) 0.25 1. 0 
F1 F1- 2 e 0.25 0.6168(25) 0.25 1. 0 
O1 O2- 4 g 0.2590(18) 0.8697(22) 0.0072(9) 1. 0 
F4 F1- 4 g 0.4196(16) 0.4544(16) 0.1040(7) 1. 0 
F2 F1- 4 g 0.5499(14) 0.8840(19) 0.1658(7) 1. 0 
F3 F1- 4 g 0.1133(16) 1.0389(16) 0.1619(8) 1. 0 
O2 O2- 4 g -.0302(16) 0.5859(20) 0.0984(8) 1. 0 

loop_
_atom_site_aniso_label
_atom_site_aniso_type_symbol
_atom_site_aniso_U_11
_atom_site_aniso_U_22
_atom_site_aniso_U_33
_atom_site_aniso_U_12
_atom_site_aniso_U_13
_atom_site_aniso_U_23
Re1 Re7+ 0.0138(4) 0.0186(5) 0.0143(4) 0.0007(2) 0.0015(2) 0.0018(2)
K1 K1+ 0.025(2) 0.029(2) 0.041(3) 0 -.004(2) 0
F1 F1- 0.041(7) 0.026(7) 0.023(8) 0 0.004(6) 0
O1 O2- 0.025(5) 0.032(6) 0.029(7) 0.007(4) 0.002(4) 0.020(6)
F4 F1- 0.030(5) 0.026(5) 0.032(6) 0.008(3) 0.009(4) -.004(4)
F2 F1- 0.017(4) 0.045(6) 0.038(6) -.008(4) -.001(4) -.017(5)
F3 F1- 0.038(5) 0.019(4) 0.050(7) 0.003(3) 0.007(5) 0.002(4)
O2 O2- 0.010(4) 0.034(6) 0.025(6) -.002(4) 0.004(4) 0.006(5)
#End of data_280012-ICSD


