data_4307-ICSD
#?2014 by Fachinformationszentrum Karlsruhe, and the U.S. Secretary of 
#Commerce on behalf of the United States.  All rights reserved.
_database_code_ICSD                4307
_audit_creation_date               1980/01/01
_audit_update_record               1987/04/16
_chemical_name_systematic
;
Dipotassium Hexaaquacopper Selenate
;
_chemical_formula_structural       'K2 Cu (H2 O)6 (Se O4)2'
_chemical_formula_sum              'H12 Cu1 K2 O14 Se2'
_publ_section_title
;
Potassium hexaaquacopper(II) selenate, Cu H12 K2 O14 Se (neutron)
;
loop_
_citation_id
_citation_journal_abbrev
_citation_year
_citation_journal_volume
_citation_page_first
_citation_page_last
_citation_journal_id_ASTM
primary 'Crystal Structure Communications' 1975 4 709 712 CSCMCS
_publ_author_name
;
Whitnall, J.;Kennard, C.H.L.;Nimmo, J.K.;Moore, F.H.
;
_cell_length_a                     9.165(3)
_cell_length_b                     12.224(7)
_cell_length_c                     6.336(2)
_cell_angle_alpha                  90.
_cell_angle_beta                   103.359(8)
_cell_angle_gamma                  90.
_cell_volume                       690.63
_cell_formula_units_Z              2
_symmetry_space_group_name_H-M     'P 1 21/a 1'
_symmetry_Int_Tables_number        14
_refine_ls_R_factor_all            .028
loop_
_symmetry_equiv_pos_site_id
_symmetry_equiv_pos_as_xyz
  1	'x+.5, -y+.5, z'
  2	'-x, -y, -z'
  3	'-x+.5, y+.5, -z'
  4	'x, y, z'
loop_
_atom_type_symbol
_atom_type_oxidation_number
Cu2+	2
H1+	1
K1+	1
O2-	-2
Se6+	6
loop_
_atom_site_label
_atom_site_type_symbol
_atom_site_symmetry_multiplicity
_atom_site_Wyckoff_symbol
_atom_site_fract_x
_atom_site_fract_y
_atom_site_fract_z
_atom_site_occupancy
_atom_site_attached_hydrogens
Cu1 Cu2+ 2 a 0 0 0 1. 0 
Se1 Se6+ 4 e 0.4218(1) 0.13733(9) 0.7359(2) 1. 0 
O1 O2- 4 e 0.4146(2) 0.2426(1) 0.5755(3) 1. 0 
O2 O2- 4 e 0.5784(2) 0.0732(2) 0.7496(3) 1. 0 
O3 O2- 4 e 0.2831(2) 0.0564(1) 0.6291(3) 1. 0 
O4 O2- 4 e 0.4081(2) 0.1784(1) 0.9758(3) 1. 0 
O5 O2- 4 e 0.1787(2) 0.1192(2) 0.1836(4) 1. 0 
O6 O2- 4 e -.1627(3) 0.1092(2) 0.0311(3) 1. 0 
O7 O2- 4 e -.0130(3) -.0613(2) 0.2769(3) 1. 0 
K1 K1+ 4 e 0.1433(3) 0.3385(2) 0.3438(4) 1. 0 
H1 H1+ 4 e 0.2204(4) 0.0897(3) 0.3247(6) 1. 0 
H2 H1+ 4 e 0.2611(4) 0.1286(3) 0.1132(6) 1. 0 
H3 H1+ 4 e -.2581(3) 0.0970(3) -.0725(5) 1. 0 
H4 H1+ 4 e -.1325(4) 0.1861(2) 0.0071(5) 1. 0 
H5 H1+ 4 e -.1111(4) -.0547(2) 0.3128(4) 1. 0 
H6 H1+ 4 e 0.0236(3) -.1374(3) 0.3186(5) 1. 0 

#End of data_4307-ICSD


