data_1025-ICSD
#?2014 by Fachinformationszentrum Karlsruhe, and the U.S. Secretary of 
#Commerce on behalf of the United States.  All rights reserved.
_database_code_ICSD                1025
_audit_creation_date               1980/01/01
_audit_update_record               2013/08/01
_chemical_name_systematic          'Tetrasodium Pentaoxodiferrate(III)'
_chemical_formula_structural       'Na4 Fe2 O5'
_chemical_formula_sum              'Fe2 Na4 O5'
_publ_section_title
;
Das erste Oxoferrat(III) mit Blattstruktur: Na4 Fe2 O5
;
loop_
_citation_id
_citation_journal_abbrev
_citation_year
_citation_journal_volume
_citation_page_first
_citation_page_last
_citation_journal_id_ASTM
primary Naturwissenschaften 1977 64 271 271 NATWAY
_publ_author_name                  'Brachtel, G.;Hoppe, R.'
_cell_length_a                     11.872
_cell_length_b                     5.679
_cell_length_c                     9.178
_cell_angle_alpha                  90.
_cell_angle_beta                   104.5
_cell_angle_gamma                  90.
_cell_volume                       599.08
_cell_formula_units_Z              4
_symmetry_space_group_name_H-M     'P 1 21/n 1'
_symmetry_Int_Tables_number        14
_refine_ls_R_factor_all            .105
loop_
_symmetry_equiv_pos_site_id
_symmetry_equiv_pos_as_xyz
  1	'-x+.5, y+.5, -z+.5'
  2	'-x, -y, -z'
  3	'x+.5, -y+.5, z+.5'
  4	'x, y, z'
loop_
_atom_type_symbol
_atom_type_oxidation_number
Fe3+	3
Na1+	1
O2-	-2
loop_
_atom_site_label
_atom_site_type_symbol
_atom_site_symmetry_multiplicity
_atom_site_Wyckoff_symbol
_atom_site_fract_x
_atom_site_fract_y
_atom_site_fract_z
_atom_site_occupancy
_atom_site_attached_hydrogens
Na1 Na1+ 4 e 0.1257(1) 0.8838(11) 0.5166(7) 1. 0 
Na2 Na1+ 4 e 0.3679(6) 0.1202(12) 0.4908(7) 1. 0 
Na3 Na1+ 4 e 0.4621(6) 0.9132(12) 0.1634(7) 1. 0 
Na4 Na1+ 4 e 0.5351(6) 0.4280(13) 0.3373(8) 1. 0 
Fe1 Fe3+ 4 e 0.6992(2) 0.1200(4) 0.1564(2) 1. 0 
Fe2 Fe3+ 4 e 0.2015(2) 0.1512(4) 0.1569(2) 1. 0 
O1 O2- 4 e 0.5568(9) 0.260(2) 0.1039(12) 1. 0 
O2 O2- 4 e 0.4466(9) 0.7604(20) 0.4120(12) 1. 0 
O3 O2- 4 e 0.8174(9) 0.3409(20) 0.2364(12) 1. 0 
O4 O2- 4 e 0.7427(10) 0.0102(21) 0.9878(13) 1. 0 
O5 O2- 4 e 0.2996(9) 0.4165(19) 0.1978(12) 1. 0 

#End of data_1025-ICSD


