data_95535-ICSD
#?2014 by Fachinformationszentrum Karlsruhe, and the U.S. Secretary of 
#Commerce on behalf of the United States.  All rights reserved.
_database_code_ICSD                95535
_audit_creation_date               2003/10/01
_chemical_name_systematic          'Decatrontium Hexaaluminium Oxide'
_chemical_formula_structural       'Sr10 Al6 O19'
_chemical_formula_sum              'Al6 O19 Sr10'
_publ_section_title
;
Synthesis and crystal structure of Sr10 Al6 O19: a derivative of the 
perovskite structure type in the system Sr O - Al2 O3
;
loop_
_citation_id
_citation_journal_abbrev
_citation_year
_citation_journal_volume
_citation_page_first
_citation_page_last
_citation_journal_id_ASTM
primary 'Materials Research Bulletin' 2002 37 715 726 MRBUAC
_publ_author_name                  'Kahlenberg, V.'
_cell_length_a                     34.5823(21)
_cell_length_b                     7.8460(6)
_cell_length_c                     15.7485(9)
_cell_angle_alpha                  90
_cell_angle_beta                   103.68(1)
_cell_angle_gamma                  90
_cell_volume                       4151.86
_cell_formula_units_Z              8
_symmetry_space_group_name_H-M     'C 1 2/c 1'
_symmetry_Int_Tables_number        15
_refine_ls_R_factor_all            .038
loop_
_symmetry_equiv_pos_site_id
_symmetry_equiv_pos_as_xyz
  1	'x, -y, z+.5'
  2	'-x, -y, -z'
  3	'-x, y, -z+.5'
  4	'x, y, z'
  5	'x+.5, -y+.5, z+.5'
  6	'-x+.5, -y+.5, -z'
  7	'-x+.5, y+.5, -z+.5'
  8	'x+.5, y+.5, z'
loop_
_atom_type_symbol
_atom_type_oxidation_number
Al3+	3
O2-	-2
Sr2+	2
loop_
_atom_site_label
_atom_site_type_symbol
_atom_site_symmetry_multiplicity
_atom_site_Wyckoff_symbol
_atom_site_fract_x
_atom_site_fract_y
_atom_site_fract_z
_atom_site_occupancy
_atom_site_attached_hydrogens
_atom_site_U_iso_or_equiv
Sr1 Sr2+ 8 f 0.12600(3) 0.2503(1) 0.32715(6) 1. 0 0.0165(2) 
Sr2 Sr2+ 8 f 0.11981(3) 0.7034(1) 0.07483(6) 1. 0 0.0159(2) 
Sr3 Sr2+ 8 f 0.06428(3) 0.4573(1) 0.16782(6) 1. 0 0.0147(2) 
Sr4 Sr2+ 8 f 0.00065(3) 0.7555(1) 0.02490(6) 1. 0 0.0178(2) 
Sr5 Sr2+ 8 f 0.18651(3) 0.0237(1) 0.47679(6) 1. 0 0.0142(2) 
Sr6 Sr2+ 8 f 0.12498(3) 0.7504(1) 0.32137(7) 1. 0 0.0181(1) 
Sr7 Sr2+ 8 f 0.25029(3) 0.2291(1) 0.34998(7) 1. 0 0.0194(2) 
Sr8 Sr2+ 8 f 0.13060(3) 0.2398(1) 0.06258(6) 1. 0 0.0184(2) 
Sr9 Sr2+ 4 e 0 0.7175(2) 0.250 1. 0 0.0216(3) 
Sr10 Sr2+ 4 e 0 0.1632(2) 0.250 1. 0 0.0195(3) 
Sr11 Sr2+ 8 f 0.25108(3) 0.2523(1) 0.11738(6) 1. 0 0.0180(2) 
Al1 Al3+ 8 f 0.05658(9) 0.5355(3) -0.0898(2) 1. 0 0.0130(6) 
Al2 Al3+ 8 f 0.06441(9) 0.9810(3) -0.0671(2) 1. 0 0.0124(5) 
Al3 Al3+ 8 f 0.07395(9) 0.9900(3) 0.1513(2) 1. 0 0.0127(5) 
Al4 Al3+ 8 f 0.17882(9) 0.9654(4) 0.2152(2) 1. 0 0.0135(6) 
Al5 Al3+ 8 f 0.18513(8) 0.5132(3) 0.2381(2) 1. 0 0.0117(5) 
Al6 Al3+ 8 f 0.19423(9) 0.4933(3) 0.4615(2) 1. 0 0.0139(6) 
O1 O2- 8 f 0.1858(2) 0.0543(8) 0.3200(4) 1. 0 0.021(2) 
O2 O2- 8 f 0.1675(2) 0.3225(7) 0.4913(4) 1. 0 0.018(1) 
O3 O2- 8 f 0.0233(2) 0.0690(8) 0.8602(5) 1. 0 0.021(1) 
O4 O2- 8 f 0.0625(2) 0.7741(7) 0.1680(4) 1. 0 0.021(2) 
O5 O2- 8 f 0.2271(2) 0.4373(8) 0.2087(5) 1. 0 0.022(2) 
O6 O2- 8 f 0.0558(2) 0.0337(8) 0.0378(5) 1. 0 0.023(2) 
O7 O2- 8 f 0.1892(3) 0.4682(9) 0.3484(5) 1. 0 0.030(2) 
O8 O2- 8 f 0.1372(2) 0.4519(8) 0.1827(4) 1. 0 0.018(1) 
O9 O2- 8 f 0.0646(2) 0.1594(8) 0.2141(4) 1. 0 0.019(1) 
O10 O2- 8 f 0.0816(2) 0.4848(8) 0.8287(4) 1. 0 0.019(1) 
O11 O2- 8 f 0.0623(2) 0.7560(8) -0.0675(5) 1. 0 0.027(2) 
O12 O2- 8 f 0.1261(2) 0.9811(9) 0.1658(5) 1. 0 0.023(2) 
O13 O2- 8 f 0.2447(2) 0.4843(9) 0.5129(5) 1. 0 0.026(2) 
O14 O2- 8 f 0.0734(2) 0.4417(8) 0.0147(5) 1. 0 0.021(2) 
O15 O2- 8 f 0.1129(2) 0.0333(8) -0.0732(5) 1. 0 0.020(1) 
O16 O2- 8 f 0.1863(2) 0.7400(8) 0.2304(5) 1. 0 0.021(1) 
O17 O2- 8 f 0.0050(2) 0.5027(8) 0.8759(5) 1. 0 0.022(2) 
O18 O2- 8 f 0.1789(2) 0.7071(7) 0.4715(4) 1. 0 0.023(2) 
O19 O2- 8 f 0.2005(2) 0.0377(8) 0.1336(4) 1. 0 0.022(2) 

loop_
_atom_site_aniso_label
_atom_site_aniso_type_symbol
_atom_site_aniso_U_11
_atom_site_aniso_U_22
_atom_site_aniso_U_33
_atom_site_aniso_U_12
_atom_site_aniso_U_13
_atom_site_aniso_U_23
Sr1 Sr2+ 0.016(1) 0.015(1) 0.018(1) 0.000(1) 0.002(1) 0.000(1)
Sr2 Sr2+ 0.017(1) 0.016(1) 0.016(1) -0.001(1) 0.005(1) -0.001(1)
Sr3 Sr2+ 0.013(1) 0.015(1) 0.016(1) 0.000(1) 0.004(1) 0.001(1)
Sr4 Sr2+ 0.019(1) 0.018(1) 0.017(1) 0.002(1) 0.005(1) 0.001(1)
Sr5 Sr2+ 0.013(1) 0.015(1) 0.015(1) 0.002(1) 0.003(1) 0.000(1)
Sr6 Sr2+ 0.021(1) 0.017(1) 0.017(1) -0.002(1) 0.006(1) -0.001(1)
Sr7 Sr2+ 0.018(1) 0.018(1) 0.024(1) 0.000(1) 0.008(1) 0.002(1)
Sr8 Sr2+ 0.022(1) 0.017(1) 0.017(1) 0.001(1) 0.007(1) -0.001(1)
Sr9 Sr2+ 0.032(1) 0.018(1) 0.014(1) 0. 0.005(1) 0.
Sr10 Sr2+ 0.018(1) 0.020(1) 0.022(1) 0. 0.008(1) 0.
Sr11 Sr2+ 0.019(1) 0.018(1) 0.018(1) 0.001(1) 0.006(1) -0.001(1)
Al1 Al3+ 0.015(2) 0.011(1) 0.014(2) 0.000(1) 0.004(1) 0.001(1)
Al2 Al3+ 0.014(2) 0.014(1) 0.011(2) -0.001(1) 0.003(1) -0.001(1)
Al3 Al3+ 0.009(1) 0.014(1) 0.015(2) 0.001(1) 0.003(1) -0.001(1)
Al4 Al3+ 0.014(2) 0.013(1) 0.013(2) 0.001(1) 0.002(1) -0.001(1)
Al5 Al3+ 0.013(2) 0.010(1) 0.013(2) -0.001(1) 0.004(1) -0.002(1)
Al6 Al3+ 0.014(2) 0.012(1) 0.015(2) -0.001(1) 0.004(1) 0.001(1)
O1 O2- 0.019(4) 0.027(3) 0.017(4) -0.001(3) 0.007(3) -0.002(3)
O2 O2- 0.024(4) 0.013(3) 0.022(4) 0.001(3) 0.012(3) 0.003(3)
O3 O2- 0.018(4) 0.027(3) 0.019(4) 0.003(3) 0.005(3) -0.001(3)
O4 O2- 0.025(4) 0.012(3) 0.024(4) 0.001(3) 0.002(3) 0.000(3)
O5 O2- 0.011(3) 0.027(3) 0.029(4) 0.004(3) 0.005(3) 0.000(3)
O6 O2- 0.028(4) 0.020(3) 0.019(4) 0.006(3) 0.004(3) 0.001(3)
O7 O2- 0.042(4) 0.030(4) 0.015(4) -0.007(4) 0.002(3) 0.000(3)
O8 O2- 0.013(3) 0.023(3) 0.018(4) -0.002(3) 0.002(3) -0.003(3)
O9 O2- 0.023(4) 0.016(3) 0.019(4) -0.004(3) 0.006(3) -0.001(3)
O10 O2- 0.030(4) 0.016(3) 0.014(4) 0.004(3) 0.010(3) 0.000(3)
O11 O2- 0.037(4) 0.014(3) 0.028(4) -0.005(3) 0.006(3) 0.003(3)
O12 O2- 0.016(3) 0.019(3) 0.034(4) -0.002(3) 0.003(3) -0.004(3)
O13 O2- 0.013(3) 0.039(4) 0.025(4) -0.001(3) 0.005(3) 0.002(3)
O14 O2- 0.026(4) 0.022(3) 0.019(4) 0.004(3) 0.010(3) 0.004(3)
O15 O2- 0.014(3) 0.023(3) 0.023(4) 0.000(3) 0.005(3) 0.003(3)
O16 O2- 0.025(4) 0.012(3) 0.027(4) 0.000(3) 0.007(3) -0.001(3)
O17 O2- 0.011(3) 0.025(4) 0.029(4) 0.001(3) 0.000(3) 0.003(3)
O18 O2- 0.038(4) 0.010(3) 0.024(4) -0.001(3) 0.013(3) -0.001(3)
O19 O2- 0.030(4) 0.026(3) 0.013(4) -0.004(3) 0.008(3) 0.000(3)
#End of data_95535-ICSD


