data_203031-ICSD
#?2014 by Fachinformationszentrum Karlsruhe, and the U.S. Secretary of 
#Commerce on behalf of the United States.  All rights reserved.
_database_code_ICSD                203031
_audit_creation_date               1990/12/27
_chemical_name_systematic          'Pentalithium Bismuth(V) Oxide'
_chemical_formula_structural       'Li5 Bi O5'
_chemical_formula_sum              'Bi1 Li5 O5'
_publ_section_title
;
The Structures of Li5 Bi O5 and Li5 Sb O5 From Powder Neutron 
Diffraction
;
loop_
_citation_id
_citation_journal_abbrev
_citation_year
_citation_journal_volume
_citation_page_first
_citation_page_last
_citation_journal_id_ASTM
primary 'Materials Research Bulletin' 1989 24 973 980 MRBUAC
_publ_author_name                  'Greaves, C.;Katib, S.M.A.'
_cell_length_a                     9.9640(2)
_cell_length_b                     4.1480(2)
_cell_length_c                     5.9409(2)
_cell_angle_alpha                  90.
_cell_angle_beta                   109.49(2)
_cell_angle_gamma                  90.
_cell_volume                       231.47
_cell_formula_units_Z              2
_symmetry_space_group_name_H-M     'C 1 m 1'
_symmetry_Int_Tables_number        8
_refine_ls_R_factor_all            .069
loop_
_symmetry_equiv_pos_site_id
_symmetry_equiv_pos_as_xyz
  1	'x, -y, z'
  2	'x, y, z'
  3	'x+.5, -y+.5, z'
  4	'x+.5, y+.5, z'
loop_
_atom_type_symbol
_atom_type_oxidation_number
Bi5+	5
Li1+	1
O2-	-2
loop_
_atom_site_label
_atom_site_type_symbol
_atom_site_symmetry_multiplicity
_atom_site_Wyckoff_symbol
_atom_site_fract_x
_atom_site_fract_y
_atom_site_fract_z
_atom_site_occupancy
_atom_site_attached_hydrogens
_atom_site_B_iso_or_equiv
Bi1 Bi5+ 2 a 0 0 0 1. 0 0.54(5) 
Li1 Li1+ 2 a 0.989(2) 0 0.543(3) 1. 0 1.79(9) 
Li2 Li1+ 2 a 0.293(2) 0 0.138(3) 1. 0 1.79(9) 
Li3 Li1+ 2 a 0.670(2) 0 0.852(3) 1. 0 1.79(9) 
Li4 Li1+ 2 a 0.287(2) 0 0.663(3) 1. 0 1.79(9) 
Li5 Li1+ 2 a 0.717(2) 0 0.345(4) 1. 0 1.79(9) 
O1 O2- 2 a 0.501(1) 0 0.071(1) 1. 0 1.70(4) 
O2 O2- 2 a 0.154(1) 0 0.336(2) 1. 0 1.70(4) 
O3 O2- 2 a 0.833(1) 0 0.693(2) 1. 0 1.70(4) 
O4 O2- 2 a 0.139(1) 0 0.838(1) 1. 0 1.70(4) 
O5 O2- 2 a 0.849(1) 0 0.191(2) 1. 0 1.70(4) 

#End of data_203031-ICSD


