data_201713-ICSD
#?2014 by Fachinformationszentrum Karlsruhe, and the U.S. Secretary of 
#Commerce on behalf of the United States.  All rights reserved.
_database_code_ICSD                201713
_audit_creation_date               1986/04/14
_chemical_name_systematic          'Silver Dithiomercurate'
_chemical_formula_structural       'Ag2 Hg S2'
_chemical_formula_sum              'Ag2 Hg1 S2'
_chemical_name_mineral             Imiterite
_publ_section_title
;
L'imiterite, Ag2 Hg S2 nouvelle espece minerale; proprietes et 
structure cristalline
;
loop_
_citation_id
_citation_journal_abbrev
_citation_year
_citation_journal_volume
_citation_page_first
_citation_page_last
_citation_journal_id_ASTM
primary 'Bulletin de Mineralogie (101,1978-)' 1985 108 457 464 BULMD9
_publ_author_name
;
Guillou, J.J.;Monthel, J.;Picot, P.;Pillard, F.;Protas, J.;Samama, 
J.C.
;
_cell_length_a                     4.0394(8)
_cell_length_b                     8.0050(6)
_cell_length_c                     6.5812(8)
_cell_angle_alpha                  90.
_cell_angle_beta                   107.12(2)
_cell_angle_gamma                  90.
_cell_volume                       203.38
_cell_formula_units_Z              2
_symmetry_space_group_name_H-M     'P 1 21/c 1'
_symmetry_Int_Tables_number        14
_refine_ls_R_factor_all            .0352
loop_
_symmetry_equiv_pos_site_id
_symmetry_equiv_pos_as_xyz
  1	'x, -y+.5, z+.5'
  2	'-x, -y, -z'
  3	'-x, y+.5, -z+.5'
  4	'x, y, z'
loop_
_atom_type_symbol
_atom_type_oxidation_number
Ag1+	1
Hg2+	2
S2-	-2
loop_
_atom_site_label
_atom_site_type_symbol
_atom_site_symmetry_multiplicity
_atom_site_Wyckoff_symbol
_atom_site_fract_x
_atom_site_fract_y
_atom_site_fract_z
_atom_site_occupancy
_atom_site_attached_hydrogens
_atom_site_B_iso_or_equiv
Hg1 Hg2+ 2 a 0 0 0 1. 0 1.47(1) 
Ag1 Ag1+ 4 e 0.6297(2) 0.1511(1) 0.4081(1) 1. 0 2.40(2) 
S1 S2- 4 e 0.2014(5) 0.3705(2) 0.2338(2) 1. 0 1.11(5) 

#End of data_201713-ICSD


