data_62588-ICSD
#?2014 by Fachinformationszentrum Karlsruhe, and the U.S. Secretary of 
#Commerce on behalf of the United States.  All rights reserved.
_database_code_ICSD                62588
_audit_creation_date               1988/02/22
_chemical_name_systematic          'Potassium Erbium Bis(sulfate)'
_chemical_formula_structural       'K Er (S O4)2'
_chemical_formula_sum              'Er1 K1 O8 S2'
_publ_section_title
;
The crystal structure of K Er (S O4)2.
;
loop_
_citation_id
_citation_journal_abbrev
_citation_year
_citation_journal_volume
_citation_page_first
_citation_page_last
_citation_journal_id_ASTM
primary Kristallografiya 1985 30 274 278 KRISAJ
2 'Soviet Physics, Crystallography (= Kristallografiya)'
 1985 30 158 160 SPHCA6
_publ_author_name
;
Sarukhanyan, N.L.;Iskhakova, L.D.;Trunov, V.K.
;
_cell_length_a                     5.435(1)
_cell_length_b                     13.342(1)
_cell_length_c                     8.738(1)
_cell_angle_alpha                  90.
_cell_angle_beta                   92.80(1)
_cell_angle_gamma                  90.
_cell_volume                       632.87
_cell_formula_units_Z              4
_symmetry_space_group_name_H-M     'P 1 21/n 1'
_symmetry_Int_Tables_number        14
_refine_ls_R_factor_all            .044
loop_
_symmetry_equiv_pos_site_id
_symmetry_equiv_pos_as_xyz
  1	'-x+.5, y+.5, -z+.5'
  2	'-x, -y, -z'
  3	'x+.5, -y+.5, z+.5'
  4	'x, y, z'
loop_
_atom_type_symbol
_atom_type_oxidation_number
Er3+	3
K1+	1
O2-	-2
S6+	6
loop_
_atom_site_label
_atom_site_type_symbol
_atom_site_symmetry_multiplicity
_atom_site_Wyckoff_symbol
_atom_site_fract_x
_atom_site_fract_y
_atom_site_fract_z
_atom_site_occupancy
_atom_site_attached_hydrogens
_atom_site_B_iso_or_equiv
Er1 Er3+ 4 e 0.27945(6) 0.14923(2) 0.19311(3) 1. 0 0.4 
K1 K1+ 4 e 0.7464(4) 0.4115(2) 0.1652(3) 1. 0 1.58 
S1 S6+ 4 e 0.7531(3) 0.1610(1) 0.3945(2) 1. 0 0.38 
S2 S6+ 4 e 0.2515(3) 0.3843(1) 0.4230(2) 1. 0 0.46 
O1 O2- 4 e 0.694(1) 0.2324(5) 0.2702(7) 1. 0 1. 
O2 O2- 4 e 0.295(1) 0.2914(5) 0.0441(7) 1. 0 1.07 
O3 O2- 4 e 0.973(1) 0.1010(5) 0.3621(7) 1. 0 0.86 
O4 O2- 4 e 0.537(1) 0.0929(5) 0.3997(7) 1. 0 0.93 
O5 O2- 4 e 0.207(1) 0.2873(5) 0.3438(7) 1. 0 1.01 
O6 O2- 4 e 0.055(1) 0.4020(5) 0.5301(7) 1. 0 1.27 
O7 O2- 4 e -.010(1) 0.1165(5) 0.0068(7) 1. 0 1.07 
O8 O2- 4 e 0.245(1) 0.4648(5) 0.3068(6) 1. 0 0.84 

#End of data_62588-ICSD


