data_710000-ICSD
#?2014 by Fachinformationszentrum Karlsruhe, and the U.S. Secretary of 
#Commerce on behalf of the United States.  All rights reserved.
_database_code_ICSD                710000
_audit_creation_date               2010/02/01
_chemical_name_systematic
;
Dipotassium Hexaaquanickel(II) Bis(selenate)
;
_chemical_formula_structural       'K2 (Ni (H2 O)6) (Se O4)2'
_chemical_formula_sum              'H12 K2 Ni1 O14 Se2'
_publ_section_title
;
Crystal structure of Tutton¡§s salts K2 [M(II) (H2 O)6] (Se O4)2, 
M(II) = Co, Ni, Zn and refinement of the crystal structure of 
potassium hexaaquamagnesium(II) selenate, K2 [Mg (H2 O)6] (Se O4)2
;
loop_
_citation_id
_citation_journal_abbrev
_citation_year
_citation_journal_volume
_citation_journal_issue
_citation_page_first
_citation_page_last
_citation_journal_id_ASTM
primary 'Zeitschrift fuer Kristallographie - New Crystal Structures'
 2009 224 3 351 354 ZKNSFT
_publ_author_name
;
Euler, H.;Barbier, B.;Meents, A.;Kirfel, A.
;
_cell_length_a                     9.179(2)
_cell_length_b                     12.367(2)
_cell_length_c                     6.254(2)
_cell_angle_alpha                  90.00
_cell_angle_beta                   104.46(2)
_cell_angle_gamma                  90.00
_cell_volume                       687.44
_cell_formula_units_Z              2
_symmetry_space_group_name_H-M     'P 1 21/a 1'
_symmetry_Int_Tables_number        14
_refine_ls_R_factor_all            .0187
loop_
_symmetry_equiv_pos_site_id
_symmetry_equiv_pos_as_xyz
  1	'x+.5, -y+.5, z'
  2	'-x, -y, -z'
  3	'-x+.5, y+.5, -z'
  4	'x, y, z'
loop_
_atom_type_symbol
_atom_type_oxidation_number
H1+	1
K1+	1
Ni2+	2
O2-	-2
Se6+	6
loop_
_atom_site_label
_atom_site_type_symbol
_atom_site_symmetry_multiplicity
_atom_site_Wyckoff_symbol
_atom_site_fract_x
_atom_site_fract_y
_atom_site_fract_z
_atom_site_occupancy
_atom_site_attached_hydrogens
_atom_site_U_iso_or_equiv
Ni1 Ni2+ 2 a 0.0000 0.0000 0.0000 1 0 0.01723(14) 
Se1 Se6+ 4 e 0.41351(3) 0.13437(2) 0.72698(4) 1 0 0.01970(12) 
O1 O2- 4 e 0.4104(3) 0.23743(17) 0.5620(3) 1 0 0.0365(5) 
O2 O2- 4 e 0.5715(2) 0.0700(2) 0.7564(4) 1 0 0.0467(6) 
O3 O2- 4 e 0.2759(2) 0.05333(15) 0.6111(3) 1 0 0.0273(4) 
O4 O2- 4 e 0.3935(2) 0.17649(16) 0.9664(3) 1 0 0.0293(5) 
O5 O2- 4 e 0.1637(2) 0.10813(17) 0.1641(4) 1 0 0.0249(4) 
O6 O2- 4 e -0.1636(2) 0.11031(17) 0.0364(3) 1 0 0.0247(4) 
O7 O2- 4 e -0.0031(3) -0.06395(19) 0.2941(3) 1 0 0.0248(4) 
K1 K1+ 4 e 0.13813(8) 0.34002(5) 0.33830(11) 1 0 0.03289(17) 
H1 H1+ 4 e 0.195(4) 0.088(3) 0.278(6) 1 0 0.028(10) 
H2 H1+ 4 e 0.226(4) 0.125(3) 0.105(6) 1 0 0.027(9) 
H3 H1+ 4 e -0.253(5) 0.100(3) -0.071(6) 1 0 0.044(10) 
H4 H1+ 4 e -0.144(4) 0.166(3) 0.008(6) 1 0 0.036(11) 
H5 H1+ 4 e -0.078(4) -0.054(3) 0.330(6) 1 0 0.031(9) 
H6 H1+ 4 e 0.013(5) -0.117(3) 0.327(7) 1 0 0.040(12) 

loop_
_atom_site_aniso_label
_atom_site_aniso_type_symbol
_atom_site_aniso_U_11
_atom_site_aniso_U_22
_atom_site_aniso_U_33
_atom_site_aniso_U_12
_atom_site_aniso_U_13
_atom_site_aniso_U_23
Ni1 Ni2+ 0.0166(2) 0.0169(2) 0.0182(2) -0.00078(17) 0.00435(18) 0.00034(17)
Se1 Se6+ 0.01784(16) 0.02030(16) 0.02072(16) -0.00209(10) 0.00439(10) 
-0.00217(10)
O1 O2- 0.0549(14) 0.0270(11) 0.0285(10) -0.0134(10) 0.0118(10) 0.0027(9)
O2 O2- 0.0241(11) 0.0557(15) 0.0549(14) 0.0121(10) 0.0000(10) -0.0145(12)
O3 O2- 0.0242(10) 0.0286(10) 0.0294(10) -0.0086(8) 0.0070(8) -0.0065(8)
O4 O2- 0.0403(12) 0.0266(10) 0.0222(10) -0.0067(9) 0.0103(9) -0.0039(8)
O5 O2- 0.0243(11) 0.0276(10) 0.0213(11) -0.0064(8) 0.0032(10) -0.0011(9)
O6 O2- 0.0226(11) 0.0221(10) 0.0294(10) 0.0016(8) 0.0066(9) 0.0009(9)
O7 O2- 0.0267(11) 0.0234(11) 0.0267(10) 0.0029(9) 0.0111(9) 0.0033(9)
K1 K1+ 0.0350(4) 0.0324(3) 0.0326(3) -0.0019(3) 0.0110(3) 0.0003(3)
#End of data_710000-ICSD


