data_641254-ICSD
#?2014 by Fachinformationszentrum Karlsruhe, and the U.S. Secretary of 
#Commerce on behalf of the United States.  All rights reserved.
_database_code_ICSD                641254
_audit_creation_date               2012/08/01
_chemical_name_systematic
;
Potassium Molybdenum Sulfide (2/1/4)
;
_chemical_formula_structural       'K2 Mo S4'
_chemical_formula_sum              'K2 Mo1 S4'
_publ_section_title
;
Roentgenographische Untersuchungen und Strukturchemie von 
Chalkogenomolybdaten und -wolframaten.I
;
loop_
_citation_id
_citation_journal_abbrev
_citation_year
_citation_journal_volume
_citation_page_first
_citation_page_last
_citation_journal_id_ASTM
primary 'Zeitschrift fuer Anorganische und Allgemeine Chemie (1950) (DE)'
 1974 403 251 266 ZAACAB
_publ_author_name                  'Mueller, A.;Sievert, W.'
_cell_length_a                     9.36
_cell_length_b                     6.95
_cell_length_c                     12.13
_cell_angle_alpha                  90.0
_cell_angle_beta                   90.0
_cell_angle_gamma                  90.0
_cell_volume                       789.08
_cell_formula_units_Z              4
_symmetry_space_group_name_H-M     'P n m a'
_symmetry_Int_Tables_number        62
loop_
_symmetry_equiv_pos_site_id
_symmetry_equiv_pos_as_xyz
  1	'x+.5, y, -z+.5'
  2	'x, -y+.5, z'
  3	'-x+.5, y+.5, z+.5'
  4	'-x, -y, -z'
  5	'-x+.5, -y, z+.5'
  6	'-x, y+.5, -z'
  7	'x+.5, -y+.5, -z+.5'
  8	'x, y, z'
loop_
_atom_type_symbol
_atom_type_oxidation_number
K1+	1
Mo6+	6
S2-	-2
loop_
_atom_site_label
_atom_site_type_symbol
_atom_site_symmetry_multiplicity
_atom_site_Wyckoff_symbol
_atom_site_fract_x
_atom_site_fract_y
_atom_site_fract_z
_atom_site_occupancy
_atom_site_attached_hydrogens
K1 K1+ 4 c 0.456 0.25 0.163 1. 0 
K2 K1+ 4 c 0.159 0.25 0.896 1. 0 
Mo1 Mo6+ 4 c 0.248 0.25 0.568 1. 0 
S1 S2- 8 d 0.150 0.494 0.140 1. 0 
S2 S2- 4 c 0.483 0.25 0.892 1. 0 
S3 S2- 4 c 0.284 0.25 0.390 1. 0 

#End of data_641254-ICSD


