data_174116-ICSD
#?2014 by Fachinformationszentrum Karlsruhe, and the U.S. Secretary of 
#Commerce on behalf of the United States.  All rights reserved.
_database_code_ICSD                174116
_audit_creation_date               2010/02/01
_chemical_name_systematic
;
Potassium Tetrafluorocuprate - Low Pressure Phase
;
_chemical_formula_structural       'K2 Cu F4'
_chemical_formula_sum              'Cu1 F4 K2'
_publ_section_title
;
Structural changes and Jahn-Teller-effect of K2 Cu F4 under pressure
;
loop_
_citation_id
_citation_journal_abbrev
_citation_year
_citation_journal_volume
_citation_journal_issue
_citation_page_first
_citation_page_last
_citation_journal_id_ASTM
primary 'Journal of the Physical Society of Japan' 2005 74 12 3221 3226 JUPSAU
_publ_author_name                  'Liang Chingtarng;Schotte, K.D.'
_cell_length_a                     5.8655
_cell_length_b                     5.8655
_cell_length_c                     12.734
_cell_angle_alpha                  90.
_cell_angle_beta                   90.
_cell_angle_gamma                  90.
_cell_volume                       438.1
_cell_formula_units_Z              4
_symmetry_space_group_name_H-M     'B b c m'
_symmetry_Int_Tables_number        64
loop_
_symmetry_equiv_pos_site_id
_symmetry_equiv_pos_as_xyz
  1	'-x+.5, y+.5, -z'
  2	'x+.5, -y+.5, -z'
  3	'x, y, -z'
  4	'-x, -y, -z'
  5	'x+.5, -y+.5, z'
  6	'-x+.5, y+.5, z'
  7	'-x, -y, z'
  8	'x, y, z'
  9	'-x, y+.5, -z+.5'
 10	'x, -y+.5, -z+.5'
 11	'x+.5, y, -z+.5'
 12	'-x+.5, -y, -z+.5'
 13	'x, -y+.5, z+.5'
 14	'-x, y+.5, z+.5'
 15	'-x+.5, -y, z+.5'
 16	'x+.5, y, z+.5'
loop_
_atom_type_symbol
_atom_type_oxidation_number
Cu2+	2
F1-	-1
K1+	1
loop_
_atom_site_label
_atom_site_type_symbol
_atom_site_symmetry_multiplicity
_atom_site_Wyckoff_symbol
_atom_site_fract_x
_atom_site_fract_y
_atom_site_fract_z
_atom_site_occupancy
_atom_site_attached_hydrogens
Cu1 Cu2+ 4 a 0 0 0 1. 0 
K1 K1+ 8 d 0 0 0.3568 1. 0 
F1 F1- 8 d 0 0 0.1523 1. 0 
F2 F1- 8 f 0.2324 0.2324 0 1. 0 

#End of data_174116-ICSD


