data_39387-ICSD
#?2014 by Fachinformationszentrum Karlsruhe, and the U.S. Secretary of 
#Commerce on behalf of the United States.  All rights reserved.
_database_code_ICSD                39387
_audit_creation_date               1991/07/10
_chemical_name_systematic
;
Dipotassium Calcium Tetrakis(catena-vanadate) Heptahydrate
;
_chemical_formula_structural       'K2 Ca (V O3)4 (H2 O)7'
_chemical_formula_sum              'H14 Ca1 K2 O19 V4'
_publ_section_title
;
Crystal structure of potassium-calcium (2/1) metavanadate 7-hydrate
;
loop_
_citation_id
_citation_journal_abbrev
_citation_year
_citation_journal_volume
_citation_page_first
_citation_page_last
_citation_journal_id_ASTM
primary 'Zhurnal Strukturnoi Khimii (Issue-No. from 1981)'
 1991 32 174 177 ZSTKAI
_publ_author_name                  'Avtamonova, N.V.;Trunov, V.K.'
_cell_length_a                     8.025(3)
_cell_length_b                     14.733(3)
_cell_length_c                     15.203(3)
_cell_angle_alpha                  90.
_cell_angle_beta                   99.14(2)
_cell_angle_gamma                  90.
_cell_volume                       1774.66
_cell_formula_units_Z              4
_symmetry_space_group_name_H-M     'P 1 21/n 1'
_symmetry_Int_Tables_number        14
_refine_ls_R_factor_all            .051
loop_
_symmetry_equiv_pos_site_id
_symmetry_equiv_pos_as_xyz
  1	'-x+.5, y+.5, -z+.5'
  2	'-x, -y, -z'
  3	'x+.5, -y+.5, z+.5'
  4	'x, y, z'
loop_
_atom_type_symbol
_atom_type_oxidation_number
Ca2+	2
H1+	1
K1+	1
O2-	-2
V5+	5
loop_
_atom_site_label
_atom_site_type_symbol
_atom_site_symmetry_multiplicity
_atom_site_Wyckoff_symbol
_atom_site_fract_x
_atom_site_fract_y
_atom_site_fract_z
_atom_site_occupancy
_atom_site_attached_hydrogens
_atom_site_B_iso_or_equiv
V1 V5+ 4 e 0.4689(2) 0.0616(1) 0.0787(1) 1. 0 0.88(2) 
V2 V5+ 4 e 0.4687(2) 0.3122(2) 0.07791(8) 1. 0 0.77(2) 
V3 V5+ 4 e 0.5455(2) 0.4376(1) -.0749(1) 1. 0 0.76(2) 
V4 V5+ 4 e 0.5590(2) 0.1873(2) -.0715(1) 1. 0 0.72(2) 
Ca1 Ca2+ 4 e 0.3931(2) 0.3160(2) 0.2795(1) 1. 0 1.41(3) 
K1 K1+ 4 e 0.8450(3) 0.1840(2) 0.1983(1) 1. 0 1.99(3) 
K2 K1+ 4 e 0.8507(3) 0.4410(2) 0.1917(2) 1. 0 2.21(4) 
O1 O2- 4 e 0.5440(9) 0.0589(5) -.0391(4) 1. 0 1.6(1) 
O2 O2- 4 e 0.4997(9) 0.1906(5) 0.0494(4) 1. 0 1.9(1) 
O3 O2- 4 e 0.2812(8) 0.0693(5) 0.1088(4) 1. 0 1.3(1) 
O4 O2- 4 e 0.603(1) 0.0498(5) 0.1700(5) 1. 0 2.2(1) 
O5 O2- 4 e 0.5406(8) 0.3084(5) -.0405(4) 1. 0 1.4(1) 
O6 O2- 4 e 0.2779(8) 0.3111(8) 0.1051(5) 1. 0 2.2(1) 
O7 O2- 4 e 0.476(1) 0.4415(5) 0.0431(4) 1. 0 1.8(1) 
O8 O2- 4 e 0.5955(7) 0.3147(7) 0.1743(4) 1. 0 1.8(1) 
O9 O2- 4 e 0.4099(9) 0.4382(6) -.1648(4) 1. 0 1.9(1) 
O10 O2- 4 e 0.7410(9) 0.4397(6) -.1019(5) 1. 0 2.0(1) 
O11 O2- 4 e 0.7533(7) 0.1867(7) -.0945(4) 1. 0 1.4(1) 
O12 O2- 4 e 0.4236(8) 0.1906(7) -.1648(4) 1. 0 1.9(1) 
O13 O2- 4 e 0.2269(9) 0.1847(8) 0.2489(5) 1. 0 2.1(1) 
O14 O2- 4 e 0.227(1) 0.4489(5) 0.2467(6) 1. 0 2.2(2) 
O15 O2- 4 e 0.606(1) 0.4158(7) 0.3564(8) 1. 0 4.3(2) 
O16 O2- 4 e 0.608(1) 0.2156(7) 0.3495(7) 1. 0 3.6(2) 
O17 O2- 4 e 0.9315(9) 0.3106(8) 0.0719(5) 1. 0 2.9(2) 
O18 O2- 4 e 0.929(1) 0.0783(6) 0.0643(5) 1. 0 2.6(2) 
O19 O2- 4 e 0.917(1) 0.5616(8) 0.0615(6) 1. 0 3.7(2) 
H1 H1+ 4 e 0.22(2) 0.144(9) 0.195(8) 1. 0 3.(3) 
H2 H1+ 4 e 0.24(1) 0.142(8) 0.298(7) 1. 0 2.(3) 
H3 H1+ 4 e 0.25(2) 0.480(9) 0.208(8) 1. 0 3.(3) 
H4 H1+ 4 e 0.21(2) 0.50(1) 0.288(9) 1. 0 4.(4) 
H5 H1+ 4 e 0.61(1) 0.49(1) 0.38(1) 1. 0 3.(3) 
H6 H1+ 4 e 0.73(1) 0.40(1) 0.38(1) 1. 0 5.(3) 
H7 H1+ 4 e 0.62(1) 0.146(7) 0.368(7) 1. 0 1.(2) 
H8 H1+ 4 e 0.73(2) 0.237(9) 0.370(9) 1. 0 3.(3) 
H9 H1+ 4 e 1.05(2) 0.278(9) 0.078(8) 1. 0 3.(3) 
H10 H1+ 4 e 0.88(1) 0.297(9) 0.019(8) 1. 0 3.(3) 
H11 H1+ 4 e 1.04(2) 0.089(9) 0.062(8) 1. 0 3.(3) 
H12 H1+ 4 e 0.86(2) 0.082(9) 0.021(8) 1. 0 3.(3) 
H13 H1+ 4 e 1.07(2) 0.56(1) 0.073(8) 1. 0 3.(3) 
H14 H1+ 4 e 0.91(2) 0.53(1) 0.01(1) 1. 0 5.(4) 

#End of data_39387-ICSD


