data_164649-ICSD
#?2014 by Fachinformationszentrum Karlsruhe, and the U.S. Secretary of 
#Commerce on behalf of the United States.  All rights reserved.
_database_code_ICSD                164649
_audit_creation_date               2010/02/01
_audit_update_record               2013/02/01
_chemical_name_systematic
;
Disodium Dodecahydro-closo-dodecaborate
;
_chemical_formula_structural       'Na2 (H12 B12)'
_chemical_formula_sum              'H12 B12 Na2'
_publ_section_title
;
Role of cation size on the structural behavior of the alkali-metal 
dodecahydro-closo-dodecaborates
;
loop_
_citation_id
_citation_journal_abbrev
_citation_year
_citation_journal_volume
_citation_page_first
_citation_page_last
_citation_journal_id_ASTM
primary 'Journal of Physical Chemistry C' 2009 113 11187 11189 JPCCCK
_publ_author_name
;
Her Jae-Hyuk;Zhou Wei;Stavila, V.;Brown, C.M.;Udovic, T.J.
;
_cell_length_a                     7.03062(28)
_cell_length_b                     10.65399(43)
_cell_length_c                     7.00930(47)
_cell_angle_alpha                  90
_cell_angle_beta                   94.6759(38)
_cell_angle_gamma                  90
_cell_volume                       523.28
_cell_formula_units_Z              2
_symmetry_space_group_name_H-M     'P 1 21/n 1'
_symmetry_Int_Tables_number        14
_refine_ls_R_factor_all            .069
loop_
_symmetry_equiv_pos_site_id
_symmetry_equiv_pos_as_xyz
  1	'-x+.5, y+.5, -z+.5'
  2	'-x, -y, -z'
  3	'x+.5, -y+.5, z+.5'
  4	'x, y, z'
loop_
_atom_type_symbol
_atom_type_oxidation_number
B.833+	.833
H1-	-1
Na1+	1
loop_
_atom_site_label
_atom_site_type_symbol
_atom_site_symmetry_multiplicity
_atom_site_Wyckoff_symbol
_atom_site_fract_x
_atom_site_fract_y
_atom_site_fract_z
_atom_site_occupancy
_atom_site_attached_hydrogens
_atom_site_B_iso_or_equiv
Na1 Na1+ 4 e 0.01007(37) 0.69465(22) 0.12213(37) 1 0 0 
B1 B.833+ 4 e -0.07072278 -0.1026578 0.665898 1 0 1.645(97) 
B2 B.833+ 4 e -0.2237376 0.01997944 0.5704174 1 0 1.645(97) 
B3 B.833+ 4 e 0.07759441 -0.1504426 0.4836795 1 0 1.645(97) 
B4 B.833+ 4 e -0.1699887 0.04798867 0.3291886 1 0 1.645(97) 
B5 B.833+ 4 e -0.1657418 -0.108436 0.4216326 1 0 1.645(97) 
B6 B.833+ 4 e 0.01624469 -0.05733795 0.2755817 1 0 1.645(97) 
H1 H1- 4 e -0.1197086 -0.1737634 0.7808066 1 0 1.645(97) 
H2 H1- 4 e -0.3787085 0.03381812 0.6191917 1 0 1.645(97) 
H3 H1- 4 e 0.1313399 -0.2546461 0.4723751 1 0 1.645(97) 
H4 H1- 4 e -0.2877307 0.08122783 0.2108768 1 0 1.645(97) 
H5 H1- 4 e -0.2805422 -0.1835438 0.3673517 1 0 1.645(97) 
H6 H1- 4 e 0.02749651 -0.09705284 0.1201392 1 0 1.645(97) 

loop_
_atom_site_aniso_label
_atom_site_aniso_type_symbol
_atom_site_aniso_U_11
_atom_site_aniso_U_22
_atom_site_aniso_U_33
_atom_site_aniso_U_12
_atom_site_aniso_U_13
_atom_site_aniso_U_23
Na1 Na1+ 0.0492(30) 0.0461(20) 0.0716(30) -0.0037(31) -0.0016(17) 
-0.0148(28)
#End of data_164649-ICSD


