data_404486-ICSD
#?2014 by Fachinformationszentrum Karlsruhe, and the U.S. Secretary of 
#Commerce on behalf of the United States.  All rights reserved.
_database_code_ICSD                404486
_audit_creation_date               1996/10/14
_chemical_name_systematic          'Dibarium Zinc Bis(cyclo-triborate)'
_chemical_formula_structural       'Ba2 Zn (B3 O6)2'
_chemical_formula_sum              'B6 Ba2 O12 Zn1'
_publ_section_title
;
Zur Synthese und Kristallstruktur von Dibariumzink-bis(cyclo-
triborat) Ba2 Zn (B3 O6)2
;
loop_
_citation_id
_citation_journal_abbrev
_citation_year
_citation_journal_volume
_citation_page_first
_citation_page_last
_citation_journal_id_ASTM
primary 'Zeitschrift fuer Naturforschung, B: Chemical Sciences'
 1996 51 309 312 ZNBSEN
_publ_author_name                  'Busche, S.;Bluhm, K.'
_cell_length_a                     7.155(2)
_cell_length_b                     7.205(2)
_cell_length_c                     11.789(4)
_cell_angle_alpha                  78.96(2)
_cell_angle_beta                   85.45(2)
_cell_angle_gamma                  60.120(12)
_cell_volume                       517.11
_cell_formula_units_Z              2
_symmetry_space_group_name_H-M     'P -1'
_symmetry_Int_Tables_number        2
_refine_ls_R_factor_all            .1458
loop_
_symmetry_equiv_pos_site_id
_symmetry_equiv_pos_as_xyz
  1	'-x, -y, -z'
  2	'x, y, z'
loop_
_atom_type_symbol
_atom_type_oxidation_number
B3+	3
Ba2+	2
O2-	-2
Zn2+	2
loop_
_atom_site_label
_atom_site_type_symbol
_atom_site_symmetry_multiplicity
_atom_site_Wyckoff_symbol
_atom_site_fract_x
_atom_site_fract_y
_atom_site_fract_z
_atom_site_occupancy
_atom_site_attached_hydrogens
_atom_site_U_iso_or_equiv
Ba1 Ba2+ 2 i 0.31731(4) 0.42096(4) 0.70736(3) 1. 0 0 
Ba2 Ba2+ 2 i 0.33589(4) 0.31818(4) 0.05361(3) 1. 0 0 
Zn1 Zn2+ 2 i 0.03070(8) 0.86063(8) 0.41447(6) 1. 0 0 
B1 B3+ 2 i 0.2209(7) -.2190(7) 0.1312(5) 1. 0 0.0127(8) 
B2 B3+ 2 i 0.4254(7) 0.9544(8) 0.6321(5) 1. 0 0.0139(8) 
B3 B3+ 2 i 0.9682(7) 0.1717(7) 0.1309(5) 1. 0 0.0138(8) 
B4 B3+ 2 i 0.1895(7) 0.1763(7) 0.3796(5) 1. 0 0.0116(7) 
B5 B3+ 2 i 0.8288(7) -.0793(8) 0.1242(5) 1. 0 0.0145(8) 
B6 B3+ 2 i 0.3220(8) 0.4271(8) 0.3792(5) 1. 0 0.0172(9) 
O1 O2- 2 i -.2294(5) 0.8746(5) 0.3741(3) 1. 0 0 
O2 O2- 2 i 0.5814(5) 0.3825(5) 0.8732(4) 1. 0 0 
O3 O2- 2 i 0.7972(5) 0.1283(5) 0.1241(4) 1. 0 0 
O4 O2- 2 i 0.1504(5) 0.3869(5) 0.3704(4) 1. 0 0 
O5 O2- 2 i 0.6018(5) -.0126(5) 0.6351(4) 1. 0 0 
O6 O2- 2 i 0.4704(5) 0.7416(5) 0.6351(4) 1. 0 0 
O7 O2- 2 i 0.9360(5) 0.3689(5) 0.1279(3) 1. 0 0 
O8 O2- 2 i 0.2949(5) 0.6148(5) 0.3952(4) 1. 0 0 
O9 O2- 2 i 0.6622(5) -.1093(5) 0.1188(3) 1. 0 0 
O10 O2- 2 i 0.0234(5) 0.1394(5) 0.4036(3) 1. 0 0 
O11 O2- 2 i 0.0417(5) -.2495(5) 0.1282(4) 1. 0 0 
O12 O2- 2 i 0.1752(5) -.0081(5) 0.1389(4) 1. 0 0 

loop_
_atom_site_aniso_label
_atom_site_aniso_type_symbol
_atom_site_aniso_U_11
_atom_site_aniso_U_22
_atom_site_aniso_U_33
_atom_site_aniso_U_12
_atom_site_aniso_U_13
_atom_site_aniso_U_23
Ba1 Ba2+ 0.01241(8) 0.01182(7) 0.01447(11) -.00505(6) 0.00212(8) -.00289(7)
Ba2 Ba2+ 0.01180(8) 0.01197(8) 0.01477(12) -.00481(6) 0.00197(8) -.00281(8)
Zn1 Zn2+ 0.0118(2) 0.0128(2) 0.0183(3) -.00462(13) 0.0023(2) -.0047(2)
O1 O2- 0.012(1) 0.0111(10) 0.018(2) -.0022(8) 0.0000(11) -.0041(10)
O2 O2- 0.0114(11) 0.0151(11) 0.022(2) -.0029(9) 0.0028(12) -.0063(11)
O3 O2- 0.0099(10) 0.0096(10) 0.032(2) -.0035(8) 0.0020(12) -.0038(11)
O4 O2- 0.0131(10) 0.0113(10) 0.025(2) -.0042(8) -.0010(12) -.0002(11)
O5 O2- 0.0124(10) 0.0116(10) 0.031(2) -.0050(8) 0.0056(12) -.0066(11)
O6 O2- 0.0096(9) 0.0099(9) 0.033(2) -.0036(8) 0.0059(12) -.0063(11)
O7 O2- 0.0215(11) 0.0126(10) 0.0143(14) -.0090(8) 0.0070(11) -.0059(10)
O8 O2- 0.0141(11) 0.0102(10) 0.029(2) -.0007(9) 0.0002(13) -.0079(12)
O9 O2- 0.0135(10) 0.0142(10) 0.017(2) -.0070(8) 0.0002(11) -.0028(10)
O10 O2- 0.0126(9) 0.0146(10) 0.018(2) -.0081(8) 0.0043(11) -.0049(10)
O11 O2- 0.0105(9) 0.0124(10) 0.027(2) -.0064(8) 0.0014(12) -.0022(11)
O12 O2- 0.0105(10) 0.0131(10) 0.033(2) -.0042(8) 0.0002(12) -.0061(12)
#End of data_404486-ICSD


