data_51095-ICSD
#?2014 by Fachinformationszentrum Karlsruhe, and the U.S. Secretary of 
#Commerce on behalf of the United States.  All rights reserved.
_database_code_ICSD                51095
_audit_creation_date               2001/07/16
_chemical_name_systematic          'Dizinc Diphosphate(V) - Gamma'
_chemical_formula_structural       'Zn2 (P2 O7)'
_chemical_formula_sum              'O7 P2 Zn2'
_publ_section_title
;
Thermal behavior of zinc phenylphosphonate and structure 
determination of gamma-Zn2 P2 O7 from x-ray powder diffraction data
;
loop_
_citation_id
_citation_journal_abbrev
_citation_year
_citation_journal_volume
_citation_page_first
_citation_page_last
_citation_journal_id_ASTM
primary 'Journal of Solid State Chemistry' 1998 140 62 70 JSSCBI
_publ_author_name
;
Bataille, T.;Benard-Rocherulle, P.;Louer, D.
;
_cell_length_a                     4.9504(5)
_cell_length_b                     13.335(2)
_cell_length_c                     16.4820(30)
_cell_angle_alpha                  90.
_cell_angle_beta                   90.
_cell_angle_gamma                  90.
_cell_volume                       1088.04
_cell_formula_units_Z              8
_symmetry_space_group_name_H-M     'P b c m'
_symmetry_Int_Tables_number        57
_refine_ls_R_factor_all            .041
loop_
_symmetry_equiv_pos_site_id
_symmetry_equiv_pos_as_xyz
  1	'x, -y+.5, z+.5'
  2	'-x, y+.5, z'
  3	'x, y, -z+.5'
  4	'-x, -y, -z'
  5	'-x, y+.5, -z+.5'
  6	'x, -y+.5, -z'
  7	'-x, -y, z+.5'
  8	'x, y, z'
loop_
_atom_type_symbol
_atom_type_oxidation_number
O2-	-2
P5+	5
Zn2+	2
loop_
_atom_site_label
_atom_site_type_symbol
_atom_site_symmetry_multiplicity
_atom_site_Wyckoff_symbol
_atom_site_fract_x
_atom_site_fract_y
_atom_site_fract_z
_atom_site_occupancy
_atom_site_attached_hydrogens
_atom_site_B_iso_or_equiv
Zn1 Zn2+ 8 e 0.0948(4) 0.0453(2) 0.5867(2) 1. 0 1.25(5) 
Zn2 Zn2+ 8 e 0.3202(4) 0.2575(2) 0.6564(1) 1. 0 1.13(5) 
P1 P5+ 8 e 0.5777(9) 0.1435(3) 0.4974(3) 1. 0 0.89(9) 
P2 P5+ 4 d 0.825(1) 0.1502(5) 0.75 1. 0 1.3(1) 
P3 P5+ 4 d -.033(1) -.0578(5) 0.75 1. 0 1.0(1) 
O1 O2- 8 e 0.118(2) -.0501(7) 0.6745(5) 1. 0 0.8(2) 
O2 O2- 8 e 0.408(2) 0.1415(6) 0.5710(6) 1. 0 0.5(2) 
O3 O2- 8 e 0.810(2) 0.0637(7) 0.5007(6) 1. 0 1.2(2) 
O4 O2- 8 e 0.406(2) 0.3635(6) 0.5793(6) 1. 0 0.3(2) 
O5 O2- 4 d 0.558(3) 0.209(1) 0.75 1. 0 0.6(3) 
O6 O2- 4 c 0.734(2) 0.25 0.5 1. 0 0.8(3) 
O7 O2- 8 e -.023(2) 0.1692(7) 0.6725(6) 1. 0 1.4(3) 
O8 O2- 4 d 0.744(2) 0.035(1) 0.75 1. 0 0.6(3) 
O9 O2- 4 d 0.215(3) 0.349(1) 0.75 1. 0 2.1(4) 

#End of data_51095-ICSD


