data_27539-ICSD
#?2014 by Fachinformationszentrum Karlsruhe, and the U.S. Secretary of 
#Commerce on behalf of the United States.  All rights reserved.
_database_code_ICSD                27539
_audit_creation_date               1980/01/01
_audit_update_record               1999/01/19
_chemical_name_systematic          'Trisilver Gold Telluride'
_chemical_formula_structural       'Ag3 Au Te2'
_chemical_formula_sum              'Ag3 Au1 Te2'
_chemical_name_mineral             Petzite
_publ_section_title
;
The crystallography of petzite, Ag3 Au Te2
;
loop_
_citation_id
_citation_journal_abbrev
_citation_year
_citation_journal_volume
_citation_page_first
_citation_page_last
_citation_journal_id_ASTM
primary 'American Mineralogist' 1959 44 693 701 AMMIAY
_publ_author_name                  'Frueh, A.J.jr.'
_cell_length_a                     10.38
_cell_length_b                     10.38
_cell_length_c                     10.38
_cell_angle_alpha                  90.
_cell_angle_beta                   90.
_cell_angle_gamma                  90.
_cell_volume                       1118.39
_cell_formula_units_Z              8
_symmetry_space_group_name_H-M     'I 41 3 2'
_symmetry_Int_Tables_number        214
_refine_ls_R_factor_all            .25
loop_
_symmetry_equiv_pos_site_id
_symmetry_equiv_pos_as_xyz
  1	'y+.25, x+.75, -z+.75'
  2	'-y+.75, x+.25, z+.75'
  3	'y+.75, -x+.75, z+.25'
  4	'-y+.25, -x+.25, -z+.25'
  5	'z+.5, -x+.5, -y'
  6	'-z+.5, -x, y+.5'
  7	'-z, x+.5, -y+.5'
  8	'z, x, y'
  9	'-z+.75, y+.25, x+.75'
 10	'z+.75, -y+.75, x+.25'
 11	'z+.25, y+.75, -x+.75'
 12	'-z+.25, -y+.25, -x+.25'
 13	'-y, z+.5, -x+.5'
 14	'y+.5, -z+.5, -x'
 15	'-y+.5, -z, x+.5'
 16	'y, z, x'
 17	'x+.75, -z+.75, y+.25'
 18	'x+.25, z+.75, -y+.75'
 19	'-x+.75, z+.25, y+.75'
 20	'-x+.25, -z+.25, -y+.25'
 21	'-x+.5, -y, z+.5'
 22	'-x, y+.5, -z+.5'
 23	'x+.5, -y+.5, -z'
 24	'x, y, z'
 25	'y+.75, x+.25, -z+.25'
 26	'-y+.25, x+.75, z+.25'
 27	'y+.25, -x+.25, z+.75'
 28	'-y+.75, -x+.75, -z+.75'
 29	'z, -x, -y+.5'
 30	'-z, -x+.5, y'
 31	'-z+.5, x, -y'
 32	'z+.5, x+.5, y+.5'
 33	'-z+.25, y+.75, x+.25'
 34	'z+.25, -y+.25, x+.75'
 35	'z+.75, y+.25, -x+.25'
 36	'-z+.75, -y+.75, -x+.75'
 37	'-y+.5, z, -x'
 38	'y, -z, -x+.5'
 39	'-y, -z+.5, x'
 40	'y+.5, z+.5, x+.5'
 41	'x+.25, -z+.25, y+.75'
 42	'x+.75, z+.25, -y+.25'
 43	'-x+.25, z+.75, y+.25'
 44	'-x+.75, -z+.75, -y+.75'
 45	'-x, -y+.5, z'
 46	'-x+.5, y, -z'
 47	'x, -y, -z+.5'
 48	'x+.5, y+.5, z+.5'
loop_
_atom_type_symbol
_atom_type_oxidation_number
Ag1+	1
Au1+	1
Te2-	-2
loop_
_atom_site_label
_atom_site_type_symbol
_atom_site_symmetry_multiplicity
_atom_site_Wyckoff_symbol
_atom_site_fract_x
_atom_site_fract_y
_atom_site_fract_z
_atom_site_occupancy
_atom_site_attached_hydrogens
Ag1 Ag1+ 24 f 0.365 0 0.25 1. 0 
Au1 Au1+ 8 a 0.125 0.125 0.125 1. 0 
Te1 Te2- 16 e 0.266 0.266 0.266 1. 0 

#End of data_27539-ICSD


