data_8225-ICSD
#?2014 by Fachinformationszentrum Karlsruhe, and the U.S. Secretary of 
#Commerce on behalf of the United States.  All rights reserved.
_database_code_ICSD                8225
_audit_creation_date               1980/01/01
_audit_update_record               2012/02/01
_chemical_name_systematic
;
Aluminium Copper Chloride Bis(sulfate(VI)) Tetradecahydrate
;
_chemical_formula_structural       'Al Cu Cl (S O4)2 (H2 O)14'
_chemical_formula_sum              'H28 Al1 Cl1 Cu1 O22 S2'
_chemical_name_mineral             Aubertite
_publ_section_title
;
Structure cristalline de l'aubertite, Al Cu Cl (S O4)2 (H2 O)14
;
loop_
_citation_id
_citation_journal_abbrev
_citation_year
_citation_journal_volume
_citation_page_first
_citation_page_last
_citation_journal_id_ASTM
primary 'Acta Crystallographica B (24,1968-38,1982)' 1979 35 2499 2502 ACBCAR
_publ_author_name                  'Ginderow, D.;Cesbron, F.'
_cell_length_a                     6.282(3)
_cell_length_b                     13.192(5)
_cell_length_c                     6.260(3)
_cell_angle_alpha                  91.85(3)
_cell_angle_beta                   94.70(3)
_cell_angle_gamma                  82.46(3)
_cell_volume                       512.44
_cell_formula_units_Z              1
_symmetry_space_group_name_H-M     'P -1'
_symmetry_Int_Tables_number        2
_refine_ls_R_factor_all            .043
loop_
_symmetry_equiv_pos_site_id
_symmetry_equiv_pos_as_xyz
  1	'-x, -y, -z'
  2	'x, y, z'
loop_
_atom_type_symbol
_atom_type_oxidation_number
Al3+	3
Cl1-	-1
Cu2+	2
H1+	1
O2-	-2
S6+	6
loop_
_atom_site_label
_atom_site_type_symbol
_atom_site_symmetry_multiplicity
_atom_site_Wyckoff_symbol
_atom_site_fract_x
_atom_site_fract_y
_atom_site_fract_z
_atom_site_occupancy
_atom_site_attached_hydrogens
_atom_site_B_iso_or_equiv
Cu1 Cu2+ 1 e 0.5 0.5 0 1. 0 0 
Cl1 Cl1- 1 g 0 0.5 0.5 1. 0 0 
Al1 Al3+ 1 f 0.5 0 0.5 1. 0 0 
S1 S6+ 2 i 0.9838(1) 0.1895(1) 0.0647(1) 1. 0 0 
O1 O2- 2 i 0.0495(4) 0.2922(2) 0.0883(5) 1. 0 0 
O2 O2- 2 i 0.9497(4) 0.1527(2) 0.2769(4) 1. 0 0 
O3 O2- 2 i 0.1586(4) 0.1201(2) 0.9740(4) 1. 0 0 
O4 O2- 2 i 0.7847(4) 0.1926(2) 0.9245(4) 1. 0 0 
O5 O2- 2 i 0.5765(4) 0.1221(2) 0.4043(4) 1. 0 0 
O6 O2- 2 i 0.2371(4) 0.0710(2) 0.5760(4) 1. 0 0 
O7 O2- 2 i 0.6241(4) 0.0246(2) 0.7783(4) 1. 0 0 
O8 O2- 2 i 0.5852(5) 0.4419(3) 0.2818(5) 1. 0 0 
O9 O2- 2 i 0.7929(4) 0.4557(2) 0.9183(5) 1. 0 0 
O10 O2- 2 i 0.4085(4) 0.3358(2) 0.8865(5) 1. 0 0 
O11 O2- 2 i 0.3643(4) 0.3042(2) 0.4479(5) 1. 0 0 
H1 H1+ 2 i 0.713 0.128 0.362 1. 0 2. 
H2 H1+ 2 i 0.492 0.175 0.406 1. 0 2. 
H3 H1+ 2 i 0.145 0.095 0.49 1. 0 2. 
H4 H1+ 2 i 0.204 0.09 0.715 1. 0 2. 
H5 H1+ 2 i 0.675 0.079 0.799 1. 0 2. 
H6 H1+ 2 i 0.302 0.03 0.143 1. 0 2. 
H7 H1+ 2 i 0.504 0.386 0.357 1. 0 2. 
H8 H1+ 2 i 0.701 0.457 0.37 1. 0 2. 
H9 H1+ 2 i 0.159 0.531 0.192 1. 0 2. 
H10 H1+ 2 i 0.911 0.407 0.996 1. 0 2. 
H11 H1+ 2 i 0.299 0.316 0.965 1. 0 2. 
H12 H1+ 2 i 0.492 0.286 0.919 1. 0 2. 
H13 H1+ 2 i 0.36 0.32 0.6 1. 0 2. 
H14 H1+ 2 i 0.257 0.306 0.392 1. 0 2. 

#End of data_8225-ICSD


