data_15588-ICSD
#?2014 by Fachinformationszentrum Karlsruhe, and the U.S. Secretary of 
#Commerce on behalf of the United States.  All rights reserved.
_database_code_ICSD                15588
_audit_creation_date               1980/01/01
_audit_update_record               2012/08/01
_chemical_name_systematic
;
Dicerium Trimagnesium Nitrate Tetracosahydrate
;
_chemical_formula_structural       'Ce2 Mg3 (N O3)12 (H2 O)24'
_chemical_formula_sum              'H48 Ce2 Mg3 N12 O60'
_publ_section_title
;
Crystal structure of cerium magnesium nitrate hydrate
;
loop_
_citation_id
_citation_journal_abbrev
_citation_year
_citation_journal_volume
_citation_page_first
_citation_page_last
_citation_journal_id_ASTM
primary 'Journal of Chemical Physics' 1963 39 2881 2891 JCPSA6
2 'Bulletin of the American Physical Society, Folge 2 (1,1956-)'
 1962 7 608 608 BAPS2X
_publ_author_name
;
Zalkin, A.;Forrester, J.D.;Templeton, D.H.
;
_cell_length_a                     11.004(6)
_cell_length_b                     11.004(6)
_cell_length_c                     34.592(12)
_cell_angle_alpha                  90.
_cell_angle_beta                   90.
_cell_angle_gamma                  120.
_cell_volume                       3627.5
_cell_formula_units_Z              3
_symmetry_space_group_name_H-M     'R -3 H'
_symmetry_Int_Tables_number        148
_refine_ls_R_factor_all            .036
loop_
_symmetry_equiv_pos_site_id
_symmetry_equiv_pos_as_xyz
  1	'x-y, x, -z'
  2	'y, -x+y, -z'
  3	'-x, -y, -z'
  4	'-x+y, -x, z'
  5	'-y, x-y, z'
  6	'x, y, z'
  7	'x-y+.6666, x+.3333, -z+.3333'
  8	'x-y+.3333, x+.6666, -z+.6666'
  9	'y+.6666, -x+y+.3333, -z+.3333'
 10	'y+.3333, -x+y+.6666, -z+.6666'
 11	'-x+.6666, -y+.3333, -z+.3333'
 12	'-x+.3333, -y+.6666, -z+.6666'
 13	'-x+y+.6666, -x+.3333, z+.3333'
 14	'-x+y+.3333, -x+.6666, z+.6666'
 15	'-y+.6666, x-y+.3333, z+.3333'
 16	'-y+.3333, x-y+.6666, z+.6666'
 17	'x+.6666, y+.3333, z+.3333'
 18	'x+.3333, y+.6666, z+.6666'
loop_
_atom_type_symbol
_atom_type_oxidation_number
Ce3+	3
H1+	1
Mg2+	2
N5+	5
O2-	-2
loop_
_atom_site_label
_atom_site_type_symbol
_atom_site_symmetry_multiplicity
_atom_site_Wyckoff_symbol
_atom_site_fract_x
_atom_site_fract_y
_atom_site_fract_z
_atom_site_occupancy
_atom_site_attached_hydrogens
_atom_site_B_iso_or_equiv
Ce1 Ce3+ 6 c 0 0 0.24966(2) 1. 0 0 
Mg1 Mg2+ 3 a 0 0 0 1. 0 0 
Mg2 Mg2+ 6 c 0 0 0.4279(1) 1. 0 0 
O1 O2- 18 f -.0563(5) 0.1202(5) 0.3089(1) 1. 0 0 
O2 O2- 18 f 0.0441(5) 0.3454(5) 0.3185(1) 1. 0 0 
O3 O2- 18 f 0.1088(5) 0.2614(5) 0.2712(1) 1. 0 0 
O4 O2- 18 f 0.1256(5) 0.1782(5) 0.1926(1) 1. 0 0 
O5 O2- 18 f 0.3500(5) 0.3044(5) 0.1844(1) 1. 0 0 
O6 O2- 18 f 0.2650(5) 0.1526(5) 0.2310(1) 1. 0 0 
O7 O2- 18 f 0.0128(5) 0.1576(5) 0.0349(1) 1. 0 0 
O8 O2- 18 f 0.1607(5) 0.0173(5) 0.3938(1) 1. 0 0 
O9 O2- 18 f 0.1567(5) 0.1548(5) 0.4609(1) 1. 0 0 
O10 O2- 18 f 0.1669(5) 0.2282(5) 0.1044(1) 1. 0 0 
N1 N5+ 18 f 0.0316(5) 0.2450(5) 0.3002(1) 1. 0 0 
N2 N5+ 18 f 0.2495(5) 0.2136(5) 0.2023(1) 1. 0 0 
H1 H1+ 18 f 0.0554 0.1962 0.0524 1. 0 3.6 
H2 H1+ 18 f -.0065 0.2062 0.0278 1. 0 4. 
H3 H1+ 18 f 0.1761 0.05 0.3813 1. 0 1.3 
H4 H1+ 18 f 0.1649 -.0535 0.3976 1. 0 1.2 
H5 H1+ 18 f 0.2337 0.1977 0.455 1. 0 5.4 
H6 H1+ 18 f 0.1418 0.1874 0.4734 1. 0 0.7 
H7 H1+ 18 f 0.2131 0.1871 0.1114 1. 0 1.8 
H8 H1+ 18 f 0.1171 0.2006 0.1237 1. 0 3.2 

#End of data_15588-ICSD


