data_19023-ICSD
#?2014 by Fachinformationszentrum Karlsruhe, and the U.S. Secretary of 
#Commerce on behalf of the United States.  All rights reserved.
_database_code_ICSD                19023
_audit_creation_date               1980/01/01
_chemical_name_systematic          'Dilithium Calcium Silicate'
_chemical_formula_structural       'Li2 Ca Si O4'
_chemical_formula_sum              'Ca1 Li2 O4 Si1'
_publ_section_title
;
Preparation and crystal structure of Li2 Ca Si O4 and isostructural 
Li2 Ca Ge O4
;
loop_
_citation_id
_citation_journal_abbrev
_citation_year
_citation_journal_volume
_citation_page_first
_citation_page_last
_citation_journal_id_ASTM
primary 'Journal of Solid State Chemistry' 1973 7 422 427 JSSCBI
_publ_author_name                  'Gard, J.A.;West, A.R.'
_cell_length_a                     5.047(5)
_cell_length_b                     5.047(5)
_cell_length_c                     6.486(6)
_cell_angle_alpha                  90.
_cell_angle_beta                   90.
_cell_angle_gamma                  90.
_cell_volume                       165.21
_cell_formula_units_Z              2
_symmetry_space_group_name_H-M     'I -4 2 m'
_symmetry_Int_Tables_number        121
_refine_ls_R_factor_all            .076
loop_
_symmetry_equiv_pos_site_id
_symmetry_equiv_pos_as_xyz
  1	'-y, -x, z'
  2	'y, x, z'
  3	'y, -x, -z'
  4	'-y, x, -z'
  5	'x, -y, -z'
  6	'-x, y, -z'
  7	'-x, -y, z'
  8	'x, y, z'
  9	'-y+.5, -x+.5, z+.5'
 10	'y+.5, x+.5, z+.5'
 11	'y+.5, -x+.5, -z+.5'
 12	'-y+.5, x+.5, -z+.5'
 13	'x+.5, -y+.5, -z+.5'
 14	'-x+.5, y+.5, -z+.5'
 15	'-x+.5, -y+.5, z+.5'
 16	'x+.5, y+.5, z+.5'
loop_
_atom_type_symbol
_atom_type_oxidation_number
Ca2+	2
Li1+	1
O2-	-2
Si4+	4
loop_
_atom_site_label
_atom_site_type_symbol
_atom_site_symmetry_multiplicity
_atom_site_Wyckoff_symbol
_atom_site_fract_x
_atom_site_fract_y
_atom_site_fract_z
_atom_site_occupancy
_atom_site_attached_hydrogens
_atom_site_B_iso_or_equiv
Li1 Li1+ 4 d 0 0.5 0.25 1. 0 3.319 
Ca1 Ca2+ 2 b 0 0 0.5 1. 0 0.564 
Si1 Si4+ 2 a 0 0 0 1. 0 0.533 
O1 O2- 8 i 0.189(3) 0.189(3) 0.142(2) 1. 0 0.905 

#End of data_19023-ICSD


