data_201190-ICSD
#?2014 by Fachinformationszentrum Karlsruhe, and the U.S. Secretary of 
#Commerce on behalf of the United States.  All rights reserved.
_database_code_ICSD                201190
_audit_creation_date               1980/12/31
_chemical_name_systematic
;
Potassium Mue-nitridobis(sulfate) Hydrate
;
_chemical_formula_structural       'K3 (N (S O3)2) (H2 O)'
_chemical_formula_sum              'H2 K3 N1 O7 S2'
_publ_section_title
;
Crystal structure and the infrared and Raman spectra of potassium 
nitridosulphonate hydrate, K3 (N (S O3)2 (H2 O)
;
loop_
_citation_id
_citation_journal_abbrev
_citation_year
_citation_journal_volume
_citation_page_first
_citation_page_last
_citation_journal_id_ASTM
primary
;
Journal of the Chemical Society. Dalton Transactions, Inorganic 
Chemistry (1972-)
;
 1980 1980 1091 1097 JCDTBI
_publ_author_name
;
Hall, J.R.;Johnson, R.A.;Kennard, C.H.L.;Smith, G.;Skelton, 
B.W.;White, A.H.
;
_cell_length_a                     7.972(2)
_cell_length_b                     6.758(2)
_cell_length_c                     8.125(2)
_cell_angle_alpha                  91.02(2)
_cell_angle_beta                   97.85(2)
_cell_angle_gamma                  103.33(2)
_cell_volume                       421.4
_cell_formula_units_Z              2
_symmetry_space_group_name_H-M     'P -1'
_symmetry_Int_Tables_number        2
_refine_ls_R_factor_all            .042
loop_
_symmetry_equiv_pos_site_id
_symmetry_equiv_pos_as_xyz
  1	'-x, -y, -z'
  2	'x, y, z'
loop_
_atom_type_symbol
_atom_type_oxidation_number
H1+	1
K1+	1
N3-	-3
O2-	-2
S6+	6
loop_
_atom_site_label
_atom_site_type_symbol
_atom_site_symmetry_multiplicity
_atom_site_Wyckoff_symbol
_atom_site_fract_x
_atom_site_fract_y
_atom_site_fract_z
_atom_site_occupancy
_atom_site_attached_hydrogens
_atom_site_U_iso_or_equiv
K1 K1+ 2 i 0.82649(9) 0.33231(11) 0.57658(9) 1. 0 0 
K2 K1+ 2 i 0.55580(9) 0.68718(11) 0.75916(9) 1. 0 0 
K3 K1+ 2 i 0.15554(9) 0.80161(10) 0.93595(9) 1. 0 0 
S1 S6+ 2 i 0.43811(9) 0.15125(11) 0.72276(9) 1. 0 0 
S2 S6+ 2 i 0.19350(9) 0.31984(11) 0.85438(9) 1. 0 0 
N1 N3- 2 i 0.3731(3) 0.2493(4) 0.8771(3) 1. 0 0 
O1 O2- 2 i 0.4576(3) 0.2945(4) 0.5894(3) 1. 0 0 
O2 O2- 2 i 0.6060(3) 0.1132(4) 0.7899(3) 1. 0 0 
O3 O2- 2 i 0.3143(3) -.0400(4) 0.6618(3) 1. 0 0 
O4 O2- 2 i 0.1938(3) 0.4784(3) 0.7327(3) 1. 0 0 
O5 O2- 2 i 0.1830(3) 0.4010(3) 0.0206(3) 1. 0 0 
O6 O2- 2 i 0.0435(3) 0.1468(3) 0.8020(3) 1. 0 0 
O7 O2- 2 i 0.0990(4) 0.2275(4) 0.3911(3) 1. 0 0 
H1 H1+ 2 i 0.037(6) 0.1025(77) 0.3656(61) 1. 0 0.05 
H2 H1+ 2 i 0.1701(61) 0.2088(75) 0.4372(63) 1. 0 0.05 

loop_
_atom_site_aniso_label
_atom_site_aniso_type_symbol
_atom_site_aniso_U_11
_atom_site_aniso_U_22
_atom_site_aniso_U_33
_atom_site_aniso_U_12
_atom_site_aniso_U_13
_atom_site_aniso_U_23
K1 K1+ 0.0256(5) 0.0285(5) 0.0223(5) 0.0035(3) 0.0023(3) 0.0030(3)
K2 K1+ 0.0292(5) 0.0233(5) 0.0206(5) 0.0087(3) 0.0001(3) 0.0003(3)
K3 K1+ 0.0300(5) 0.0210(5) 0.0192(5) 0.0081(3) 0.0063(3) 0.0025(3)
S1 S6+ 0.0201(5) 0.0160(5) 0.0123(5) 0.0054(3) 0.0027(3) 0.0010(3)
S2 S6+ 0.0207(5) 0.0169(5) 0.0128(5) 0.0068(3) 0.0023(3) 0.0019(3)
N1 N3- 0.0232(14) 0.0212(14) 0.0105(12) 0.0082(11) 0.0015(10) 0.0005(10)
O1 O2- 0.0485(16) 0.0320(14) 0.0208(12) 0.0201(12) 0.0153(11) 0.0105(10)
O2 O2- 0.0256(12) 0.0324(14) 0.0254(13) 0.0131(10) 0.0026(10) 0.0011(10)
O3 O2- 0.0315(13) 0.0286(14) 0.0293(14) -.0201(10) 0.0080(11) -.0126(10)
O4 O2- 0.0306(13) 0.0324(12) 0.0219(12) 0.0117(10) 0.0036(10) 0.0079(10)
O5 O2- 0.0305(13) 0.0255(12) 0.0156(12) 0.0108(10) 0.0046(9) -.0029(9)
O6 O2- 0.0223(12) 0.0215(12) 0.0272(13) 0.0040(9) 0.0010(9) -.0005(10)
O7 O2- 0.0400(16) 0.0328(15) 0.0260(14) 0.0101(12) -.0084(11) 0.0001(11)
#End of data_201190-ICSD


