data_108957-ICSD
#?2014 by Fachinformationszentrum Karlsruhe, and the U.S. Secretary of 
#Commerce on behalf of the United States.  All rights reserved.
_database_code_ICSD                108957
_audit_creation_date               2007/04/01
_audit_update_record               2008/02/01
_chemical_name_systematic          'Calcium Tetrahafnium Oxide'
_chemical_formula_structural       'Ca Hf4 O9'
_chemical_formula_sum              'Ca1 Hf4 O9'
_publ_section_title
;
Crystal structures of the fluorite-related phases  Ca Hf4 O9  and  
Ca6 Hf19 O44
;
loop_
_citation_id
_citation_journal_abbrev
_citation_year
_citation_journal_volume
_citation_page_first
_citation_page_last
_citation_journal_id_ASTM
primary 'Journal of Solid State Chemistry' 1975 14 264 273 JSSCBI
_publ_author_name
;
Allpress, J.G.;Rossell, H.J.;Scott, H.G.
;
_cell_length_a                     17.698(2)
_cell_length_b                     14.500(1)
_cell_length_c                     12.021(1)
_cell_angle_alpha                  90.
_cell_angle_beta                   119.468(6)
_cell_angle_gamma                  90.
_cell_volume                       2685.76
_cell_formula_units_Z              16
_symmetry_space_group_name_H-M     'C 1 2/c 1'
_symmetry_Int_Tables_number        15
_refine_ls_R_factor_all            .062
loop_
_symmetry_equiv_pos_site_id
_symmetry_equiv_pos_as_xyz
  1	'x, -y, z+.5'
  2	'-x, -y, -z'
  3	'-x, y, -z+.5'
  4	'x, y, z'
  5	'x+.5, -y+.5, z+.5'
  6	'-x+.5, -y+.5, -z'
  7	'-x+.5, y+.5, -z+.5'
  8	'x+.5, y+.5, z'
loop_
_atom_type_symbol
_atom_type_oxidation_number
Ca2+	2
Hf4+	4
O2-	-2
loop_
_atom_site_label
_atom_site_type_symbol
_atom_site_symmetry_multiplicity
_atom_site_Wyckoff_symbol
_atom_site_fract_x
_atom_site_fract_y
_atom_site_fract_z
_atom_site_occupancy
_atom_site_attached_hydrogens
_atom_site_B_iso_or_equiv
Hf1 Hf4+ 4 e 0 0.190(4) 0.25 1. 0 0 
Hf2 Hf4+ 4 e 0.5 0.183(4) 0.25 1. 0 0 
Hf3 Hf4+ 8 f 0.395(3) 0.179(3) 0.457(3) 1. 0 0 
Hf4 Hf4+ 8 f 0.891(3) 0.178(3) 0.456(3) 1. 0 0 
Hf5 Hf4+ 8 f 0.804(3) 0.194(3) 0.669(3) 1. 0 0 
Hf6 Hf4+ 8 f 0.595(2) 0.077(3) 0.546(3) 1. 0 0 
Hf7 Hf4+ 8 f 0.105(3) 0.057(3) 0.552(3) 1. 0 0 
Hf8 Hf4+ 8 f 0.697(3) 0.052(3) 0.363(3) 1. 0 0 
Hf9 Hf4+ 8 f 0.187(3) 0.064(3) 0.338(4) 1. 0 0 
Ca1 Ca2+ 4 e 0 0.053(14) 0.750 1. 0 1.0 
Ca2 Ca2+ 4 e 0.5 0.060(14) 0.750 1. 0 1.0 
Ca3 Ca2+ 8 f 0.310(10) 0.182(9) 0.643(12) 1. 0 1.0 
O1 O2- 8 f 0.125 0.1875 0.25 1. 0 3.0 
O2 O2- 8 f 0.625 0.1875 0.25 1. 0 3.0 
O3 O2- 8 f 0.525 0.1875 0.45 1. 0 3.0 
O4 O2- 8 f 0.275 0.1875 0.45 1. 0 3.0 
O5 O2- 8 f 0.775 0.1875 0.45 1. 0 3.0 
O6 O2- 8 f 0.925 0.1875 0.65 1. 0 3.0 
O7 O2- 8 f 0.675 0.1875 0.65 1. 0 3.0 
O8 O2- 8 f 0.725 0.0625 0.55 1. 0 3.0 
O9 O2- 8 f 0.475 0.0625 0.55 1. 0 3.0 
O10 O2- 8 f 0.225 0.0625 0.55 1. 0 3.0 
O11 O2- 8 f 0.975 0.0625 0.55 1. 0 3.0 
O12 O2- 8 f 0.825 0.0625 0.35 1. 0 3.0 
O13 O2- 8 f 0.575 0.0625 0.35 1. 0 3.0 
O14 O2- 8 f 0.075 0.0625 0.35 1. 0 3.0 
O15 O2- 8 f 0.125 0.0625 0.75 1. 0 3.0 
O16 O2- 8 f 0.625 0.0625 0.75 1. 0 3.0 
O17 O2- 8 f 0.43 0.1875 0.65 1. 0 3.0 
O18 O2- 8 f 0.175 0.1875 0.65 1. 0 3.0 

#End of data_108957-ICSD


