data_59983-ICSD
#?2014 by Fachinformationszentrum Karlsruhe, and the U.S. Secretary of 
#Commerce on behalf of the United States.  All rights reserved.
_database_code_ICSD                59983
_audit_creation_date               2005/10/01
_audit_update_record               2012/08/01
_chemical_name_systematic          'Potassium Dichromate - Ii'
_chemical_formula_structural       'K2 Cr2 O7'
_chemical_formula_sum              'Cr2 K2 O7'
_publ_section_title
;
Phase transitions in K2 Cr2 O7 and structural redetermination of 
phase II
;
loop_
_citation_id
_citation_journal_abbrev
_citation_year
_citation_journal_volume
_citation_page_first
_citation_page_last
_citation_journal_id_ASTM
primary 'Acta Crystallographica, Section B: Structural Science'
 2004 60 705 715 ASBSDK
_publ_author_name
;
Weakley, T.J.R.;Ylvisaker, E.R.;Yager, R.J.;Stephens, J.E.;Wiegel, 
R.D.;Mengis, M.;Wu, P.;Photinos, P.;Abrahams, S.C.
;
_cell_length_a                     7.3807(9)
_cell_length_b                     7.4593(11)
_cell_length_c                     13.3910(16)
_cell_angle_alpha                  96.205(11)
_cell_angle_beta                   98.033(10)
_cell_angle_gamma                  90.914(12)
_cell_volume                       725.37
_cell_formula_units_Z              4
_symmetry_space_group_name_H-M     'P -1'
_symmetry_Int_Tables_number        2
_refine_ls_R_factor_all            .036
loop_
_symmetry_equiv_pos_site_id
_symmetry_equiv_pos_as_xyz
  1	'-x, -y, -z'
  2	'x, y, z'
loop_
_atom_type_symbol
_atom_type_oxidation_number
Cr6+	6
K1+	1
O2-	-2
loop_
_atom_site_label
_atom_site_type_symbol
_atom_site_symmetry_multiplicity
_atom_site_Wyckoff_symbol
_atom_site_fract_x
_atom_site_fract_y
_atom_site_fract_z
_atom_site_occupancy
_atom_site_attached_hydrogens
_atom_site_U_iso_or_equiv
Cr1 Cr6+ 2 i 0.59179(4) 0.76891(5) 0.60724(2) 1.000 0 0.01925(8) 
Cr2 Cr6+ 2 i 0.79289(4) 0.80674(5) 0.41375(2) 1.000 0 0.01880(8) 
Cr3 Cr6+ 2 i 0.81711(4) 0.42584(5) 0.11354(2) 1.000 0 0.01890(8) 
Cr4 Cr6+ 2 i 0.81344(4) 0.15250(4) -0.08323(2) 1.000 0 0.01835(8) 
K1 K1+ 2 i 1.10341(8) 0.66917(7) 0.64038(4) 1.000 0 0.03104(13) 
K2 K1+ 2 i 0.25001(7) 0.76710(7) 0.34950(4) 1.000 0 0.02929(12) 
K3 K1+ 2 i 0.66252(6) -0.08518(7) 0.15847(4) 1.000 0 0.02480(11) 
K4 K1+ 2 i 0.69509(8) 0.65240(7) -0.13583(4) 1.000 0 0.03184(13) 
O1 O2- 2 i 0.7201(3) 0.6124(3) 0.64937(14) 1.000 0 0.0342(5) 
O2 O2- 2 i 0.5550(3) 0.9102(3) 0.70198(13) 1.000 0 0.0349(5) 
O3 O2- 2 i 0.4024(2) 0.6849(3) 0.54525(14) 1.000 0 0.0361(5) 
O4 O2- 2 i 0.7076(2) 0.8937(2) 0.52700(13) 1.000 0 0.0296(4) 
O5 O2- 2 i 0.9595(2) 0.6749(2) 0.44295(12) 1.000 0 0.0288(4) 
O6 O2- 2 i 0.8687(3) 0.9709(2) 0.36065(13) 1.000 0 0.0331(5) 
O7 O2- 2 i 0.6345(2) 0.6952(3) 0.33667(14) 1.000 0 0.0362(5) 
O8 O2- 2 i 0.6891(2) 0.2927(2) 0.16402(13) 1.000 0 0.0306(4) 
O9 O2- 2 i 0.9757(2) 0.5181(3) 0.19989(12) 1.000 0 0.0304(4) 
O10 O2- 2 i 0.6948(3) 0.5751(3) 0.06114(13) 1.000 0 0.0345(5) 
O11 O2- 2 i 0.9299(2) 0.2957(2) 0.02274(12) 1.000 0 0.0246(4) 
O12 O2- 2 i 0.6919(2) -0.0006(2) -0.04330(13) 1.000 0 0.0296(4) 
O13 O2- 2 i 0.9600(2) 0.0608(3) -0.14886(15) 1.000 0 0.0373(5) 
O14 O2- 2 i 0.6770(2) 0.2738(2) -0.15168(12) 1.000 0 0.0270(4) 

loop_
_atom_site_aniso_label
_atom_site_aniso_type_symbol
_atom_site_aniso_U_11
_atom_site_aniso_U_22
_atom_site_aniso_U_33
_atom_site_aniso_U_12
_atom_site_aniso_U_13
_atom_site_aniso_U_23
Cr1 Cr6+ 0.0190(2) 0.0207(2) 0.0186(2) 0.00273(12) 0.00384(12) 0.00238(12)
Cr2 Cr6+ 0.0181(2) 0.0203(2) 0.0188(2) 0.00215(12) 0.00358(11) 0.00476(12)
Cr3 Cr6+ 0.0192(2) 0.0183(2) 0.0185(2) -0.00111(11) 0.00035(11) 0.00206(12)
Cr4 Cr6+ 0.0171(2) 0.0182(2) 0.0197(2) 0.00068(11) 0.00301(11) 0.00111(12)
K1 K1+ 0.0375(3) 0.0315(3) 0.0237(2) -0.0073(2) 0.0020(2) 0.0055(2)
K2 K1+ 0.0327(3) 0.0273(2) 0.0290(2) -0.0025(2) 0.0094(2) 0.00208(19)
K3 K1+ 0.0236(2) 0.0243(2) 0.0261(2) -0.00002(17) 0.00360(17) 0.009(2)
K4 K1+ 0.0373(3) 0.0302(3) 0.0278(2) 0.0102(2) 0.0035(2) 0.0023(2)
O1 O2- 0.0328(9) 0.0319(9) 0.0380(10) 0.0093(7) -0.0001(7) 0.0100(8)
O2 O2- 0.0434(10) 0.0336(9) 0.0294(9) 0.0031(8) 0.0162(8) -0.0029(7)
O3 O2- 0.0264(8) 0.0461(11) 0.0338(9) -0.0043(8) -0.0020(7) 0.0044(8)
O4 O2- 0.0381(9) 0.0248(8) 0.0294(8) 0.0010(7) 0.0168(7) 0.0027(6)
O5 O2- 0.0272(8) 0.0328(9) 0.0274(8) 0.0107(7) 0.0032(6) 0.0068(7)
O6 O2- 0.0423(10) 0.0280(9) 0.0324(9) -0.0014(7) 0.0109(7) 0.0117(7)
O7 O2- 0.0273(8) 0.0438(11) 0.0344(9) -0.0053(8) -0.0018(7) -0.0003(8)
O8 O2- 0.0302(8) 0.0290(9) 0.0336(9) -0.0070(7) 0.0084(7) 0.0045(7)
O9 O2- 0.0301(8) 0.0366(9) 0.0220(7) -0.0105(7) 0.0000(6) -0.0010(7)
O10 O2- 0.0407(10) 0.0317(9) 0.0310(9) 0.0140(8) 0.0024(7) 0.0053(7)
O11 O2- 0.0195(7) 0.0269(8) 0.0254(7) 0.0000(6) 0.0004(6) -0.0026(6)
O12 O2- 0.0368(9) 0.0245(8) 0.0278(8) -0.0078(7) 0.0055(7) 0.0046(6)
O13 O2- 0.0290(9) 0.0431(11) 0.0396(10) 0.0067(8) 0.0123(7) -0.0068(8)
O14 O2- 0.0269(8) 0.0249(8) 0.0286(8) 0.0022(6) -0.0016(6) 0.0065(6)
#End of data_59983-ICSD


