data_93880-ICSD
#?2014 by Fachinformationszentrum Karlsruhe, and the U.S. Secretary of 
#Commerce on behalf of the United States.  All rights reserved.
_database_code_ICSD                93880
_audit_creation_date               2003/04/01
_chemical_name_systematic          'Silver Copper(III) Oxide'
_chemical_formula_structural       'Ag Cu O2'
_chemical_formula_sum              'Ag1 Cu1 O2'
_publ_section_title
;
Ag Cu O2 - synthesis, crystal structure and structural relationships 
with Cu O and Ag(I) Ag(III) O2
;
loop_
_citation_id
_citation_journal_abbrev
_citation_year
_citation_journal_volume
_citation_page_first
_citation_page_last
_citation_journal_id_ASTM
primary 'Journal of Solid State Chemistry' 2001 162 220 224 JSSCBI
_publ_author_name                  'Curda, J.;Klein, W.;Jansen, M.'
_cell_length_a                     5.8657(3)
_cell_length_b                     2.8062(2)
_cell_length_c                     6.0770(3)
_cell_angle_alpha                  90
_cell_angle_beta                   108.106(4)
_cell_angle_gamma                  90
_cell_volume                       95.08
_cell_formula_units_Z              2
_symmetry_space_group_name_H-M     'P 1 21/c 1'
_symmetry_Int_Tables_number        14
_refine_ls_R_factor_all            .028
loop_
_symmetry_equiv_pos_site_id
_symmetry_equiv_pos_as_xyz
  1	'x, -y+.5, z+.5'
  2	'-x, -y, -z'
  3	'-x, y+.5, -z+.5'
  4	'x, y, z'
loop_
_atom_type_symbol
_atom_type_oxidation_number
Ag1+	1
Cu3+	3
O2-	-2
loop_
_atom_site_label
_atom_site_type_symbol
_atom_site_symmetry_multiplicity
_atom_site_Wyckoff_symbol
_atom_site_fract_x
_atom_site_fract_y
_atom_site_fract_z
_atom_site_occupancy
_atom_site_attached_hydrogens
_atom_site_U_iso_or_equiv
Ag1 Ag1+ 2 a 0 0 0 1. 0 0.0057(7) 
Cu1 Cu3+ 2 d 0.5 0 0.5 1. 0 0.0058(5) 
O1 O2- 4 e 0.2969(4) 0.5040(3) 0.3561(4) 1. 0 0.0156(6) 

#End of data_93880-ICSD


