data_83580-ICSD
#?2014 by Fachinformationszentrum Karlsruhe, and the U.S. Secretary of 
#Commerce on behalf of the United States.  All rights reserved.
_database_code_ICSD                83580
_audit_creation_date               1998/06/26
_chemical_name_systematic          'Calcium Manganese Diphosphate'
_chemical_formula_structural       'Ca Mn (P2 O7)'
_chemical_formula_sum              'Ca1 Mn1 O7 P2'
_publ_section_title
;
Synthesis and characterization of the solid solution Ca2-x Mnx P2 O7, 
0<x<2, crystal structure of Ca Mn P2 O7
;
loop_
_citation_id
_citation_journal_abbrev
_citation_year
_citation_journal_volume
_citation_page_first
_citation_page_last
_citation_journal_id_ASTM
primary 'European Journal of Solid State Inorganic Chemistry'
 1997 34 161 168 EJSCE5
_publ_author_name
;
Amroussi, F.;Moqine, A.;Boukhari, A.
;
_cell_length_a                     6.562(3)
_cell_length_b                     6.604(3)
_cell_length_c                     6.610(3)
_cell_angle_alpha                  65.90(3)
_cell_angle_beta                   83.49(4)
_cell_angle_gamma                  87.29(4)
_cell_volume                       259.79
_cell_formula_units_Z              2
_symmetry_space_group_name_H-M     'P -1'
_symmetry_Int_Tables_number        2
_refine_ls_R_factor_all            .057
loop_
_symmetry_equiv_pos_site_id
_symmetry_equiv_pos_as_xyz
  1	'-x, -y, -z'
  2	'x, y, z'
loop_
_atom_type_symbol
_atom_type_oxidation_number
Ca2+	2
Mn2+	2
O2-	-2
P5+	5
loop_
_atom_site_label
_atom_site_type_symbol
_atom_site_symmetry_multiplicity
_atom_site_Wyckoff_symbol
_atom_site_fract_x
_atom_site_fract_y
_atom_site_fract_z
_atom_site_occupancy
_atom_site_attached_hydrogens
_atom_site_U_iso_or_equiv
Mn1 Mn2+ 2 i 0.1497(1) 0.2654(2) 0.1067(2) 1. 0 0.020(1) 
Ca1 Ca2+ 2 i 0.3754(2) 0.6917(2) 0.2650(2) 1. 0 0.019(1) 
P1 P5+ 2 i 0.6453(2) 0.2373(3) 0.2353(3) 1. 0 0.015(1) 
O1 O2- 2 i 0.4830(6) 0.1777(9) 0.1239(8) 1. 0 0.026(2) 
O2 O2- 2 i 0.7458(6) 0.0183(8) 0.3985(7) 1. 0 0.020(2) 
O3 O2- 2 i 0.8151(6) 0.3647(8) 0.0529(7) 1. 0 0.022(2) 
O4 O2- 2 i 0.5652(6) 0.3541(8) 0.3794(7) 1. 0 0.019(2) 
P2 P5+ 2 i 0.8694(2) 0.8156(3) 0.3641(3) 1. 0 0.015(1) 
O5 O2- 2 i 0.8694(6) 0.6419(8) 0.5987(8) 1. 0 0.020(2) 
O6 O2- 2 i 0.7540(6) 0.7572(8) 0.2115(7) 1. 0 0.019(2) 
O7 O2- 2 i 0.0813(6) -.0917(8) 0.2569(7) 1. 0 0.019(2) 

#End of data_83580-ICSD


