data_201343-ICSD
#?2014 by Fachinformationszentrum Karlsruhe, and the U.S. Secretary of 
#Commerce on behalf of the United States.  All rights reserved.
_database_code_ICSD                201343
_audit_creation_date               1982/12/31
_audit_update_record               1999/06/02
_chemical_name_systematic
;
Distrontium Disodium Dialuminium Phosphate Nonafluoride
;
_chemical_formula_structural       'Sr2 Na2 Al2 P O4 F9'
_chemical_formula_sum              'Al2 F9 Na2 O4 P1 Sr2'
_chemical_name_mineral             Boggildite
_publ_section_title
;
The crystal structure of Boggildite
;
loop_
_citation_id
_citation_journal_abbrev
_citation_year
_citation_journal_volume
_citation_page_first
_citation_page_last
_citation_journal_id_ASTM
primary 'Canadian Mineralogist' 1982 20 263 270 CAMIA6
_publ_author_name                  'Hawthorne, F.C.'
_cell_length_a                     5.251(3)
_cell_length_b                     10.464(5)
_cell_length_c                     18.577(9)
_cell_angle_alpha                  90.
_cell_angle_beta                   107.53(3)
_cell_angle_gamma                  90.
_cell_volume                       973.34
_cell_formula_units_Z              4
_symmetry_space_group_name_H-M     'P 1 21/c 1'
_symmetry_Int_Tables_number        14
_refine_ls_R_factor_all            .055
loop_
_symmetry_equiv_pos_site_id
_symmetry_equiv_pos_as_xyz
  1	'x, -y+.5, z+.5'
  2	'-x, -y, -z'
  3	'-x, y+.5, -z+.5'
  4	'x, y, z'
loop_
_atom_type_symbol
_atom_type_oxidation_number
Al3+	3
F1-	-1
Na1+	1
O2-	-2
P5+	5
Sr2+	2
loop_
_atom_site_label
_atom_site_type_symbol
_atom_site_symmetry_multiplicity
_atom_site_Wyckoff_symbol
_atom_site_fract_x
_atom_site_fract_y
_atom_site_fract_z
_atom_site_occupancy
_atom_site_attached_hydrogens
Sr1 Sr2+ 4 e 0.3393(2) 0.0396(1) 0.33111(5) 1. 0 
Sr2 Sr2+ 4 e 0.3566(2) 0.4632(1) 0.35754(5) 1. 0 
P1 P5+ 4 e 0.9466(6) 0.2500(3) 0.9092(2) 1. 0 
Al1 Al3+ 2 a 0 0 0 1. 0 
Al2 Al3+ 2 c 0 0 0.5 1. 0 
Al3 Al3+ 4 e 0.6951(7) 0.2469(3) 0.2404(2) 1. 0 
Na1 Na1+ 4 e 0.1105(11) 0.2425(6) 0.6310(3) 1. 0 
Na2 Na1+ 4 e 0.5408(10) 0.2194(5) 0.5194(3) 1. 0 
O1 O2- 4 e 0.2226(16) 0.2435(8) 0.3990(4) 1. 0 
O2 O2- 4 e 0.8644(17) 0.1121(8) 0.9189(4) 1. 0 
O3 O2- 4 e 0.9347(18) 0.1730(8) 0.4784(4) 1. 0 
O4 O2- 4 e 0.7299(18) 0.3031(8) 0.8390(4) 1. 0 
F1 F1- 4 e 0.3030(14) 0.0913(7) 0.0365(4) 1. 0 
F2 F1- 4 e 0.4397(14) 0.1243(7) 0.2111(3) 1. 0 
F3 F1- 4 e 0.8513(15) 0.0919(7) 0.0604(4) 1. 0 
F4 F1- 4 e 0.9380(14) 0.1315(7) 0.2324(4) 1. 0 
F5 F1- 4 e 0.9332(14) 0.1261(7) 0.7629(3) 1. 0 
F6 F1- 4 e 0.6396(15) 0.2141(7) 0.6431(3) 1. 0 
F7 F1- 4 e 0.3431(14) 0.0339(8) 0.5480(4) 1. 0 
F8 F1- 4 e 0.4413(15) 0.1359(7) 0.7395(4) 1. 0 
F9 F1- 4 e 0.0709(14) 0.9663(7) 0.4117(3) 1. 0 

#End of data_201343-ICSD


