data_26181-ICSD
#?2014 by Fachinformationszentrum Karlsruhe, and the U.S. Secretary of 
#Commerce on behalf of the United States.  All rights reserved.
_database_code_ICSD                26181
_audit_creation_date               1980/01/01
_audit_update_record               2012/08/01
_chemical_name_systematic          'Dipotassium Tungstate'
_chemical_formula_structural       'K2 (W O4)'
_chemical_formula_sum              'K2 O4 W1'
_publ_section_title
;
The crystal structure of potassium tungstate, K2 W O4
;
loop_
_citation_id
_citation_journal_abbrev
_citation_year
_citation_journal_volume
_citation_page_first
_citation_page_last
_citation_journal_id_ASTM
primary 'Acta Crystallographica B (24,1968-38,1982)' 1969 25 1704 1708 ACBCAR
2 'Golden Book of Phase Transitions, Wroclaw' 2002 1 1 123 GBOPT5
_publ_author_name
;
Koster, A.S.;Kools, F.X.N.M.;Rieck, G.D.
;
_cell_length_a                     12.39(1)
_cell_length_b                     6.105(5)
_cell_length_c                     7.560(5)
_cell_angle_alpha                  90.
_cell_angle_beta                   115.96(3)
_cell_angle_gamma                  90.
_cell_volume                       514.15
_cell_formula_units_Z              4
_symmetry_space_group_name_H-M     'C 1 2/m 1'
_symmetry_Int_Tables_number        12
_refine_ls_R_factor_all            .147
loop_
_symmetry_equiv_pos_site_id
_symmetry_equiv_pos_as_xyz
  1	'-x, y, -z'
  2	'-x, -y, -z'
  3	'x, -y, z'
  4	'x, y, z'
  5	'-x+.5, y+.5, -z'
  6	'-x+.5, -y+.5, -z'
  7	'x+.5, -y+.5, z'
  8	'x+.5, y+.5, z'
loop_
_atom_type_symbol
_atom_type_oxidation_number
K1+	1
O2-	-2
W6+	6
loop_
_atom_site_label
_atom_site_type_symbol
_atom_site_symmetry_multiplicity
_atom_site_Wyckoff_symbol
_atom_site_fract_x
_atom_site_fract_y
_atom_site_fract_z
_atom_site_occupancy
_atom_site_attached_hydrogens
_atom_site_B_iso_or_equiv
W1 W6+ 4 i 0.1755(3) 0 0.2275(5) 1. 0 0 
K1 K1+ 4 i 0.010(1) 0.5 0.235(2) 1. 0 2.5 
K2 K1+ 4 i 0.346(1) 0.5 0.259(2) 1. 0 2.5 
O1 O2- 4 i 0.084(2) 0 0.351(4) 1. 0 4. 
O2 O2- 4 i 0.336(2) 0 0.377(4) 1. 0 4. 
O3 O2- 8 j 0.141(2) 0.239(3) 0.074(4) 1. 0 4. 

#End of data_26181-ICSD


