data_1446-ICSD
#?2014 by Fachinformationszentrum Karlsruhe, and the U.S. Secretary of 
#Commerce on behalf of the United States.  All rights reserved.
_database_code_ICSD                1446
_audit_creation_date               1980/01/01
_audit_update_record               2010/02/01
_chemical_name_systematic          'Dipotassium Dioxalatoberyllate'
_chemical_formula_structural       'K2 (Be (C2 O4)2)'
_chemical_formula_sum              'C4 Be1 K2 O8'
_publ_section_title
;
Structure cristalline du bis(oxalato)beryllate de potassium : K2 (Be 
(C2 O4)2)
;
loop_
_citation_id
_citation_journal_abbrev
_citation_year
_citation_journal_volume
_citation_page_first
_citation_page_last
_citation_journal_id_ASTM
primary 'Acta Crystallographica B (24,1968-38,1982)' 1978 34 429 431 ACBCAR
_publ_author_name                  'Jaber, M.;Faure, R.;Loiseleur, H.'
_cell_length_a                     13.355(2)
_cell_length_b                     8.917(2)
_cell_length_c                     6.621(1)
_cell_angle_alpha                  90.
_cell_angle_beta                   90.
_cell_angle_gamma                  90.
_cell_volume                       788.47
_cell_formula_units_Z              4
_symmetry_space_group_name_H-M     'P n m a'
_symmetry_Int_Tables_number        62
_refine_ls_R_factor_all            .027
loop_
_symmetry_equiv_pos_site_id
_symmetry_equiv_pos_as_xyz
  1	'x+.5, y, -z+.5'
  2	'x, -y+.5, z'
  3	'-x+.5, y+.5, z+.5'
  4	'-x, -y, -z'
  5	'-x+.5, -y, z+.5'
  6	'-x, y+.5, -z'
  7	'x+.5, -y+.5, -z+.5'
  8	'x, y, z'
loop_
_atom_type_symbol
_atom_type_oxidation_number
Be2+	2
C3+	3
K1+	1
O2-	-2
loop_
_atom_site_label
_atom_site_type_symbol
_atom_site_symmetry_multiplicity
_atom_site_Wyckoff_symbol
_atom_site_fract_x
_atom_site_fract_y
_atom_site_fract_z
_atom_site_occupancy
_atom_site_attached_hydrogens
K1 K1+ 8 d 0.39530(3) -.00226(6) 0.31080(6) 1. 0 
O1 O2- 4 c 0.0047(1) 0.25 0.3172(4) 1. 0 
O2 O2- 4 c 0.1233(1) 0.25 0.0769(3) 1. 0 
O3 O2- 4 c 0.2653(1) 0.25 0.3182(3) 1. 0 
O4 O2- 4 c 0.1682(2) 0.25 0.5938(3) 1. 0 
C1 C3+ 4 c 0.0919(2) 0.25 0.2619(4) 1. 0 
C2 C3+ 4 c 0.1803(2) 0.25 0.4124(4) 1. 0 
O5 O2- 8 d 0.4090(1) 0.0892(2) -.2911(2) 1. 0 
O6 O2- 8 d 0.2972(1) 0.1111(1) -.0411(2) 1. 0 
C3 C3+ 8 d 0.3574(1) 0.1633(2) -.1774(3) 1. 0 
Be1 Be2+ 4 c 0.2452(3) 0.25 0.0768(6) 1. 0 

#End of data_1446-ICSD


