data_64630-ICSD
#?2014 by Fachinformationszentrum Karlsruhe, and the U.S. Secretary of 
#Commerce on behalf of the United States.  All rights reserved.
_database_code_ICSD                64630
_audit_creation_date               1989/06/19
_audit_update_record               2012/08/01
_chemical_name_systematic          'Calcium Copper Digermanium Oxide'
_chemical_formula_structural       'Ca Cu Ge2 O6'
_chemical_formula_sum              'Ca1 Cu1 Ge2 O6'
_publ_section_title
;
Copper(II) silicates and germanates with chain structures. I. Ca Cu 
Ge2 O6, a strongly deformed pyroxene.
;
loop_
_citation_id
_citation_journal_abbrev
_citation_year
_citation_journal_volume
_citation_page_first
_citation_page_last
_citation_journal_id_ASTM
primary 'Zeitschrift fuer Kristallographie (1979-2010)' 1986 176 205 217 ZEKRDZ
_publ_author_name                  'Behruzi, M.;Breuer, K.H.;Eysel, W.'
_cell_length_a                     10.198(1)
_cell_length_b                     9.209(1)
_cell_length_c                     5.213(1)
_cell_angle_alpha                  90.
_cell_angle_beta                   105.73(1)
_cell_angle_gamma                  90.
_cell_volume                       471.24
_cell_formula_units_Z              4
_symmetry_space_group_name_H-M     'P 1 21/c 1'
_symmetry_Int_Tables_number        14
_refine_ls_R_factor_all            .055
loop_
_symmetry_equiv_pos_site_id
_symmetry_equiv_pos_as_xyz
  1	'x, -y+.5, z+.5'
  2	'-x, -y, -z'
  3	'-x, y+.5, -z+.5'
  4	'x, y, z'
loop_
_atom_type_symbol
_atom_type_oxidation_number
Ca2+	2
Cu2+	2
Ge4+	4
O2-	-2
loop_
_atom_site_label
_atom_site_type_symbol
_atom_site_symmetry_multiplicity
_atom_site_Wyckoff_symbol
_atom_site_fract_x
_atom_site_fract_y
_atom_site_fract_z
_atom_site_occupancy
_atom_site_attached_hydrogens
Ca1 Ca2+ 4 e 0.7170(1) 0.5475(1) 0.1916(3) 1. 0 
Cu1 Cu2+ 4 e 0.7727(1) 0.1617(1) 0.2436(1) 1. 0 
Ge1 Ge4+ 4 e 0.0490(1) 0.3492(1) 0.2099(1) 1. 0 
Ge2 Ge4+ 4 e 0.4910(1) 0.3510(8) 0.4008(1) 1. 0 
O1 O2- 4 e 0.8728(4) 0.3608(5) 0.1158(7) 1. 0 
O2 O2- 4 e 0.1459(4) 0.4893(5) 0.3762(8) 1. 0 
O3 O2- 4 e 0.1016(4) 0.1944(4) 0.4194(8) 1. 0 
O4 O2- 4 e 0.6581(4) 0.3206(4) 0.3764(7) 1. 0 
O5 O2- 4 e 0.4321(4) 0.5223(4) 0.2603(8) 1. 0 
O6 O2- 4 e 0.4006(4) 0.2517(5) 0.5903(8) 1. 0 

loop_
_atom_site_aniso_label
_atom_site_aniso_type_symbol
_atom_site_aniso_U_11
_atom_site_aniso_U_22
_atom_site_aniso_U_33
_atom_site_aniso_U_12
_atom_site_aniso_U_13
_atom_site_aniso_U_23
Ca1 Ca2+ 0.0097(5) 0.0079(5) 0.0069(4) 0.0007(5) 0.0023(4) 0.0003(5)
Cu1 Cu2+ 0.0083(3) 0.0066(3) 0.0069(3) 0.0011(3) 0.0003(2) 0.0002(3)
Ge1 Ge4+ 0.0048(2) 0.0044(2) 0.0057(2) -.0006(3) 0.0011(2) -.0005(3)
Ge2 Ge4+ 0.0054(2) 0.0044(2) 0.0076(2) 0.0005(3) 0.0030(2) 0.0007(3)
O1 O2- 0.0071(20) 0.001(2) 0.0096(20) -.002(1) 0.0021(10) -.0003(10)
O2 O2- 0.0174(20) 0.0055(20) 0.0068(20) 0.0029(20) 0.0009(20) 0.0032(20)
O3 O2- 0.0071(20) 0.008(2) 0.0065(20) 0.0009(20) 0.0035(10) 0.0022(20)
O4 O2- 0.0066(20) 0.0041(20) 0.0104(20) -.0002(20) 0.0013(10) -.0014(20)
O5 O2- 0.0108(20) 0.0067(20) 0.0113(20) -.0058(20) -.001(2) -.0011(20)
O6 O2- 0.0063(20) 0.0093(20) 0.0083(20) 0.0031(20) 0.0018(10) 0.0014(20)
#End of data_64630-ICSD


