data_68984-ICSD
#?2014 by Fachinformationszentrum Karlsruhe, and the U.S. Secretary of 
#Commerce on behalf of the United States.  All rights reserved.
_database_code_ICSD                68984
_audit_creation_date               1992/01/20
_audit_update_record               2006/04/01
_chemical_name_systematic          'Sodium Ferrate(III)'
_chemical_formula_structural       'Na (Fe O2)'
_chemical_formula_sum              'Fe1 Na1 O2'
_publ_section_title
;
A structural study of the incorporation of silica into sodium 
ferrites, Na1-x (Fe1-x Six O2), x= O to 0.20
;
loop_
_citation_id
_citation_journal_abbrev
_citation_year
_citation_journal_volume
_citation_page_first
_citation_page_last
_citation_journal_id_ASTM
primary 'Journal of Solid State Chemistry' 1990 85 202 219 JSSCBI
2 'Phase Transition' 1992 38 127 220 PHTRDP
_publ_author_name
;
Grey, I.E.;Hoskins, B.F.;Madsen, I.C.
;
_cell_length_a                     5.6731(2)
_cell_length_b                     5.3853(2)
_cell_length_c                     7.1440(2)
_cell_angle_alpha                  90.
_cell_angle_beta                   90.
_cell_angle_gamma                  90.
_cell_volume                       218.26
_cell_formula_units_Z              4
_symmetry_space_group_name_H-M     'P n 21 a'
_symmetry_Int_Tables_number        33
_refine_ls_R_factor_all            .039
loop_
_symmetry_equiv_pos_site_id
_symmetry_equiv_pos_as_xyz
  1	'x+.5, y, -z+.5'
  2	'-x+.5, y+.5, z+.5'
  3	'-x, y+.5, -z'
  4	'x, y, z'
loop_
_atom_type_symbol
_atom_type_oxidation_number
Fe3+	3
Na1+	1
O2-	-2
loop_
_atom_site_label
_atom_site_type_symbol
_atom_site_symmetry_multiplicity
_atom_site_Wyckoff_symbol
_atom_site_fract_x
_atom_site_fract_y
_atom_site_fract_z
_atom_site_occupancy
_atom_site_attached_hydrogens
_atom_site_B_iso_or_equiv
Fe1 Fe3+ 4 a 0.0672(4) 0 0.1280(6) 1. 0 0.31(5) 
Na1 Na1+ 4 a 0.4248(8) -.484(2) 0.123(2) 1. 0 1.01(14) 
O1 O2- 4 a 0.043(2) -.341(1) 0.092(2) 1. 0 0.51(30) 
O2 O2- 4 a 0.390(2) 0.079(2) 0.157(2) 1. 0 1.49(37) 

#End of data_68984-ICSD


