data_200930-ICSD
#?2014 by Fachinformationszentrum Karlsruhe, and the U.S. Secretary of 
#Commerce on behalf of the United States.  All rights reserved.
_database_code_ICSD                200930
_audit_creation_date               1980/12/31
_chemical_name_systematic          'Pentasodium Lutetium Tungstate'
_chemical_formula_structural       'Na5 Lu (W O4)4'
_chemical_formula_sum              'Lu1 Na5 O16 W4'
_publ_section_title
;
Structure of Na5 Tb (Mo O4)4, Na5 Lu (Mo O4)4, and Na5 Lu (W O4)4
;
loop_
_citation_id
_citation_journal_abbrev
_citation_year
_citation_journal_volume
_citation_page_first
_citation_page_last
_citation_journal_id_ASTM
primary Kristallografiya 1980 25 254 261 KRISAJ
2 'Soviet Physics, Crystallography (= Kristallografiya)'
 1980 25 146 150 SPHCA6
_publ_author_name
;
Efremov, V.A.;Berezina, T.A.;Averina, I.M.;Trunov, V.K.
;
_cell_length_a                     11.387(4)
_cell_length_b                     11.387(4)
_cell_length_c                     11.282(4)
_cell_angle_alpha                  90.
_cell_angle_beta                   90.
_cell_angle_gamma                  90.
_cell_volume                       1462.87
_cell_formula_units_Z              4
_symmetry_space_group_name_H-M     'I 41/a Z'
_symmetry_Int_Tables_number        88
_refine_ls_R_factor_all            .032
loop_
_symmetry_equiv_pos_site_id
_symmetry_equiv_pos_as_xyz
  1	'-y+.75, x+.75, -z+.75'
  2	'y+.25, -x+.75, -z+.75'
  3	'x, y+.5, -z'
  4	'-x, -y, -z'
  5	'y+.25, -x+.25, z+.25'
  6	'-y+.75, x+.25, z+.25'
  7	'-x, -y+.5, z'
  8	'x, y, z'
  9	'-y+.25, x+.25, -z+.25'
 10	'y+.75, -x+.25, -z+.25'
 11	'x+.5, y, -z+.5'
 12	'-x+.5, -y+.5, -z+.5'
 13	'y+.75, -x+.75, z+.75'
 14	'-y+.25, x+.75, z+.75'
 15	'-x+.5, -y, z+.5'
 16	'x+.5, y+.5, z+.5'
loop_
_atom_type_symbol
_atom_type_oxidation_number
Lu3+	3
Na1+	1
O2-	-2
W6+	6
loop_
_atom_site_label
_atom_site_type_symbol
_atom_site_symmetry_multiplicity
_atom_site_Wyckoff_symbol
_atom_site_fract_x
_atom_site_fract_y
_atom_site_fract_z
_atom_site_occupancy
_atom_site_attached_hydrogens
_atom_site_B_iso_or_equiv
W1 W6+ 16 f 0.18307(10) 0.34167(10) 0.38333(8) 1. 0 0.69 
Lu1 Lu3+ 4 a 0 0.25 0.125 1. 0 0.6 
Na1 Na1+ 4 b 0 0.25 0.625 1. 0 1.83 
Na2 Na1+ 16 f 0.119(1) 0.0436(10) 0.346(1) 1. 0 1.26 
O1 O2- 16 f 0.1811(18) 0.4651(19) 0.4758(18) 1. 0 1.4 
O2 O2- 16 f 0.1476(17) 0.2196(18) 0.4733(18) 1. 0 1.23 
O3 O2- 16 f 0.0605(16) 0.3626(18) 0.2858(16) 1. 0 0.95 
O4 O2- 16 f 0.3227(16) 0.3309(18) 0.3080(16) 1. 0 0.88 

#End of data_200930-ICSD


