data_30967-ICSD
#?2014 by Fachinformationszentrum Karlsruhe, and the U.S. Secretary of 
#Commerce on behalf of the United States.  All rights reserved.
_database_code_ICSD                30967
_audit_creation_date               1986/12/03
_audit_update_record               2012/02/01
_chemical_name_systematic
;
Calcium Tecto-dialumotrisilicate Trihydrate
;
_chemical_formula_structural       'Ca (Al2 Si3 O10) (H2 O)3'
_chemical_formula_sum              'H6 Al2 Ca1 O13 Si3'
_chemical_name_mineral             Scolecite
_publ_section_title
;
A neutron diffraction study of the bonding of zeolitic water in 
scolecite at 20 K
;
loop_
_citation_id
_citation_journal_abbrev
_citation_year
_citation_journal_volume
_citation_page_first
_citation_page_last
_citation_journal_id_ASTM
primary 'Zeitschrift fuer Kristallographie (1979-2010)' 1985 171 141 154 ZEKRDZ
2 'Proc. Int. Zeolite Conf., 12th, Baltimore, July 1998'
 1983 6 842 850 68DCAH
_publ_author_name                  'Kvick, A.;Stahl, K.;Smith, J.V.'
_cell_length_a                     6.516(2)
_cell_length_b                     18.950(3)
_cell_length_c                     9.762(1)
_cell_angle_alpha                  90.
_cell_angle_beta                   108.98(1)
_cell_angle_gamma                  90.
_cell_volume                       1139.86
_cell_formula_units_Z              4
_symmetry_space_group_name_H-M     'C 1 c 1'
_symmetry_Int_Tables_number        9
_refine_ls_R_factor_all            .016
loop_
_symmetry_equiv_pos_site_id
_symmetry_equiv_pos_as_xyz
  1	'x, -y, z+.5'
  2	'x, y, z'
  3	'x+.5, -y+.5, z+.5'
  4	'x+.5, y+.5, z'
loop_
_atom_type_symbol
_atom_type_oxidation_number
Al3+	3
Ca2+	2
H1+	1
O2-	-2
Si4+	4
loop_
_atom_site_label
_atom_site_type_symbol
_atom_site_symmetry_multiplicity
_atom_site_Wyckoff_symbol
_atom_site_fract_x
_atom_site_fract_y
_atom_site_fract_z
_atom_site_occupancy
_atom_site_attached_hydrogens
Ca1 Ca2+ 4 a 0.10857(17) 0.39247(3) 0.44656(11) 1. 0 
Al1 Al3+ 4 a 0.92088(18) 0.46711(4) 0.06385(12) 1. 0 
Al2 Al3+ 4 a 0.33452(19) 0.21213(4) 0.39966(12) 1. 0 
Si1 Si4+ 4 a 0.5 0.37979(3) 0 1. 0 
Si2 Si4+ 4 a 0.20868(17) 0.33281(3) 0.16795(11) 1. 0 
Si3 Si4+ 4 a 0.52867(17) 0.08218(3) 0.29795(11) 1. 0 
O1 O2- 4 a 0.49619(15) 0.02099(2) 0.40706(10) 1. 0 
O2 O2- 4 a 0.49558(15) 0.05015(2) 0.13903(10) 1. 0 
O3 O2- 4 a 0.35812(15) 0.14529(2) 0.28311(10) 1. 0 
O4 O2- 4 a 0.12988(16) 0.18667(2) 0.4687(1) 1. 0 
O5 O2- 4 a 0.27101(15) 0.29608(2) 0.32487(10) 1. 0 
O6 O2- 4 a 0.08482(15) 0.28141(2) 0.03707(10) 1. 0 
O7 O2- 4 a 0.43357(15) 0.36135(3) 0.14451(10) 1. 0 
O8 O2- 4 a 0.06350(15) 0.40119(2) 0.1823(1) 1. 0 
O9 O2- 4 a 0.77875(15) 0.10996(3) 0.3646(1) 1. 0 
O10 O2- 4 a 0.64503(15) 0.45055(2) 0.02902(10) 1. 0 
O11 O2- 4 a 0.96816(16) 0.07723(3) 0.05948(11) 1. 0 
O12 O2- 4 a 0.70347(16) 0.19566(3) 0.1252(1) 1. 0 
O13 O2- 4 a 0.78292(16) 0.32853(3) 0.38989(10) 1. 0 
H1 H1+ 4 a 0.03335(27) 0.03167(6) 0.05193(19) 1. 0 
H2 H1+ 4 a 0.07991(29) 0.10611(7) 0.12408(21) 1. 0 
H3 H1+ 4 a 0.67161(29) 0.24463(6) 0.09773(18) 1. 0 
H4 H1+ 4 a 0.77320(35) 0.19127(8) 0.22667(18) 1. 0 
H5 H1+ 4 a 0.74029(32) 0.29949(8) 0.45750(19) 1. 0 
H6 H1+ 4 a 0.65043(26) 0.34097(7) 0.31304(19) 1. 0 

#End of data_30967-ICSD


