data_89725-ICSD
#?2014 by Fachinformationszentrum Karlsruhe, and the U.S. Secretary of 
#Commerce on behalf of the United States.  All rights reserved.
_database_code_ICSD                89725
_audit_creation_date               2002/04/01
_chemical_name_systematic          'Tetracalcium Catena-hexaaluminate'
_chemical_formula_structural       'Ca4 (Al6 O13)'
_chemical_formula_sum              'Al6 Ca4 O13'
_publ_section_title
;
High-pressure Ca4 Al6 O13: an example of a calcium aluminate with 
three different types of coordination polyhedra for aluminium
;
loop_
_citation_id
_citation_journal_abbrev
_citation_year
_citation_journal_volume
_citation_page_first
_citation_page_last
_citation_journal_id_ASTM
primary 'American Mineralogist' 2000 85 1492 1496 AMMIAY
_publ_author_name
;
Kahlenberg, V.;Fischer, R.X.;Shaw, C.S.J.
;
_cell_length_a                     5.3002(2)
_cell_length_b                     17.76099(50)
_cell_length_c                     21.0887(9)
_cell_angle_alpha                  90.
_cell_angle_beta                   90.
_cell_angle_gamma                  90.
_cell_volume                       1985.22
_cell_formula_units_Z              8
_symmetry_space_group_name_H-M     'P c a n'
_symmetry_Int_Tables_number        60
_refine_ls_R_factor_all            .064
loop_
_symmetry_equiv_pos_site_id
_symmetry_equiv_pos_as_xyz
  1	'-x, y, z+.5'
  2	'x+.5, -y+.5, z'
  3	'x+.5, y+.5, -z+.5'
  4	'-x, -y, -z'
  5	'x, -y, -z+.5'
  6	'-x+.5, y+.5, -z'
  7	'-x+.5, -y+.5, z+.5'
  8	'x, y, z'
loop_
_atom_type_symbol
_atom_type_oxidation_number
Al3+	3
Ca2+	2
O2-	-2
loop_
_atom_site_label
_atom_site_type_symbol
_atom_site_symmetry_multiplicity
_atom_site_Wyckoff_symbol
_atom_site_fract_x
_atom_site_fract_y
_atom_site_fract_z
_atom_site_occupancy
_atom_site_attached_hydrogens
_atom_site_U_iso_or_equiv
Al1 Al3+ 4 a 0 0 0.5 1. 0 0.006(1) 
Al2 Al3+ 4 c 0.9846(6) 0 0.25 1. 0 0.005(1) 
Al3 Al3+ 8 d 0.5635(4) 0.7966(1) 0.3754(1) 1. 0 0.005(1) 
Al4 Al3+ 8 d 0.0023(4) 0.7166(1) 0.6248(2) 1. 0 0.004(1) 
Al5 Al3+ 8 d 0.0040(4) 0.5096(1) 0.6252(2) 1. 0 0.006(1) 
Al6 Al3+ 8 d 0.8920(5) 0.7930(1) 0.2573(1) 1. 0 0.008(1) 
Al7 Al3+ 8 d 0.8986(5) 0.7932(1) 0.4927(1) 1. 0 0.008(1) 
Ca1 Ca2+ 8 d 0.9933(3) 0.0983(1) 0.3750(1) 1. 0 0.011(1) 
Ca2 Ca2+ 8 d 0.0095(3) -.0826(1) 0.3753(1) 1. 0 0.005(1) 
Ca3 Ca2+ 8 d 0.4780(3) -.0871(1) 0.4943(1) 1. 0 0.007(1) 
Ca4 Ca2+ 8 d 0.4707(3) -.0872(1) 0.2562(1) 1. 0 0.007(1) 
O1 O2- 8 d 0.7515(10) 0.0045(3) 0.4371(3) 1. 0 0.006(1) 
O2 O2- 8 d 0.8203(12) 0.7755(3) 0.1760(3) 1. 0 0.013(1) 
O3 O2- 8 d 0.7383(10) 0.0055(3) 0.3118(3) 1. 0 0.007(1) 
O4 O2- 8 d 0.8277(12) 0.7773(3) 0.5747(3) 1. 0 0.012(1) 
O5 O2- 8 d 0.2361(10) 0.0085(3) 0.3128(3) 1. 0 0.005(1) 
O6 O2- 8 d 0.0692(11) 0.7133(3) 0.2829(3) 1. 0 0.007(1) 
O7 O2- 8 d 0.2484(10) 0.0096(3) 0.4382(3) 1. 0 0.005(1) 
O8 O2- 8 d 0.4698(10) 0.8917(3) 0.3751(3) 1. 0 0.007(1) 
O9 O2- 8 d 0.5745(11) 0.7877(3) 0.4676(3) 1. 0 0.008(1) 
O10 O2- 8 d 0.0044(9) 0.8846(3) 0.2596(3) 1. 0 0.006(1) 
O11 O2- 8 d 0.020(1) 0.8840(4) 0.4905(3) 1. 0 0.008(1) 
O12 O2- 8 d 0.9957(11) 0.6185(3) 0.6241(4) 1. 0 0.015(1) 
O13 O2- 8 d 0.8991(12) 0.7901(4) 0.3759(3) 1. 0 0.017(1) 

#End of data_89725-ICSD


