data_250040-ICSD
#?2014 by Fachinformationszentrum Karlsruhe, and the U.S. Secretary of 
#Commerce on behalf of the United States.  All rights reserved.
_database_code_ICSD                250040
_audit_creation_date               2003/10/01
_audit_update_record               2011/02/01
_chemical_name_systematic
;
Tetrasilver Dipotassium Tris(tetranitropalladate)
;
_chemical_formula_structural       'Ag4 K2 (Pd (N O2)4)3'
_chemical_formula_sum              'Ag4 K2 N12 O24 Pd3'
_publ_section_title
;
Configurations of (Pd (N O2)4)2- complex anion. Crystal structure of 
Ag4 A2 (M (N O2)4)3 phases (M= Pd, Pt; A= K, Rb)
;
loop_
_citation_id
_citation_journal_abbrev
_citation_year
_citation_journal_volume
_citation_page_first
_citation_page_last
_citation_journal_id_ASTM
primary 'Zhurnal Strukturnoi Khimii (Issue-No. from 1981)'
 2003 44 90 98 ZSTKAI
_publ_author_name
;
Gromilov, S.A.;Baidina, I.A.;Khranenko, S.P.;Alekseev, V.I.;Belyaev, 
A.V.
;
_cell_length_a                     7.2231(5)
_cell_length_b                     23.6487(16)
_cell_length_c                     7.5677(6)
_cell_angle_alpha                  90
_cell_angle_beta                   98.984(7)
_cell_angle_gamma                  90
_cell_volume                       1276.83
_cell_formula_units_Z              2
_symmetry_space_group_name_H-M     'P 1 21/n 1'
_symmetry_Int_Tables_number        14
_refine_ls_R_factor_all            .0195
loop_
_symmetry_equiv_pos_site_id
_symmetry_equiv_pos_as_xyz
  1	'-x+.5, y+.5, -z+.5'
  2	'-x, -y, -z'
  3	'x+.5, -y+.5, z+.5'
  4	'x, y, z'
loop_
_atom_type_symbol
_atom_type_oxidation_number
Ag1+	1
K1+	1
N3+	3
O2-	-2
Pd2+	2
loop_
_atom_site_label
_atom_site_type_symbol
_atom_site_symmetry_multiplicity
_atom_site_Wyckoff_symbol
_atom_site_fract_x
_atom_site_fract_y
_atom_site_fract_z
_atom_site_occupancy
_atom_site_attached_hydrogens
_atom_site_U_iso_or_equiv
Pd1 Pd2+ 2 c 0.5 0.0 0.5 1. 0 0.019(1) 
Pd2 Pd2+ 4 e 0.3869(1) 0.1756(1) 0.2286(1) 1. 0 0.021(1) 
Ag1 Ag1+ 4 e 0.3896(1) 0.1820(1) -0.1810(1) 1. 0 0.032(1) 
Ag2 Ag1+ 4 e 0.8670(1) 0.0271(1) 0.1156(1) 1. 0 0.037(1) 
K1 K1+ 4 e -0.0960(3) 0.1342(1) 0.5833(3) 1. 0 0.040(1) 
N1 N3+ 4 e 0.3798(11) 0.0679(3) 0.5990(9) 1. 0 0.025(2) 
N2 N3+ 4 e 0.3013(11) -0.0049(3) 0.2805(10) 1. 0 0.027(2) 
N3 N3+ 4 e 0.5689(10) 0.1164(3) 0.1600(10) 1. 0 0.026(2) 
N4 N3+ 4 e 0.6045(11) 0.2298(3) 0.2929(10) 1. 0 0.026(2) 
N5 N3+ 4 e 0.2101(11) 0.2342(3) 0.2995(10) 1. 0 0.027(2) 
N6 N3+ 4 e 0.1630(11) 0.1224(3) 0.1558(11) 1. 0 0.028(2) 
O1 O2- 4 e 0.2377(10) 0.0641(3) 0.6650(9) 1. 0 0.046(2) 
O2 O2- 4 e 0.4621(10) 0.1141(2) 0.5983(8) 1. 0 0.039(2) 
O3 O2- 4 e 0.1434(8) -0.0254(3) 0.2895(8) 1. 0 0.033(2) 
O4 O2- 4 e 0.3376(9) 0.0095(3) 0.1332(8) 1. 0 0.032(2) 
O5 O2- 4 e 0.5876(9) 0.1107(3) 0.0018(8) 1. 0 0.036(2) 
O6 O2- 4 e 0.6632(8) 0.0869(3) 0.2754(8) 1. 0 0.029(2) 
O7 O2- 4 e 0.1578(10) 0.2294(3) 0.4446(9) 1. 0 0.045(2) 
O8 O2- 4 e 0.7668(9) 0.2129(3) 0.3199(9) 1. 0 0.044(2) 
O9 O2- 4 e 0.5788(9) 0.2812(2) 0.2971(9) 1. 0 0.036(2) 
O10 O2- 4 e 0.1572(10) 0.2736(3) 0.1992(9) 1. 0 0.045(2) 
O11 O2- 4 e 0.0836(9) 0.1021(3) 0.2746(9) 1. 0 0.038(2) 
O12 O2- 4 e 0.1157(11) 0.1110(3) -0.0024(9) 1. 0 0.045(2) 

#End of data_250040-ICSD


