data_262933-ICSD
#?2014 by Fachinformationszentrum Karlsruhe, and the U.S. Secretary of 
#Commerce on behalf of the United States.  All rights reserved.
_database_code_ICSD                262933
_audit_creation_date               2012/08/01
_chemical_name_systematic
;
Potassium Copper Uranium Sulfide (6/12/2/15)
;
_chemical_formula_structural       'K6 Cu12 U2 S15'
_chemical_formula_sum              'Cu12 K6 S15 U2'
_publ_section_title
;
Oxidation state of uranium in A6 Cu12 U2 S15 (A = K, Rb, Cs) 
compounds
;
loop_
_citation_id
_citation_journal_abbrev
_citation_year
_citation_journal_volume
_citation_journal_issue
_citation_page_first
_citation_page_last
_citation_journal_id_ASTM
primary 'Inorganic Chemistry' 2012 51 11 6153 6163 INOCAJ
_publ_author_name
;
Malliakas, C.D.;Yao Jiyong;Wells, D.M.;Jin Geng Bang;Skanthakumar, 
S.;Choi Eun Sang;Balasubramanian, M.;Soderholm, L.;Ellis, 
D.E.;Kanatzidis, M.G.;Ibers, J.A.
;
_cell_length_a                     18.5520(3)
_cell_length_b                     18.5520(3)
_cell_length_c                     18.5520(3)
_cell_angle_alpha                  90.00
_cell_angle_beta                   90.00
_cell_angle_gamma                  90.00
_cell_volume                       6385.17
_cell_formula_units_Z              8
_symmetry_space_group_name_H-M     'P a -3'
_symmetry_Int_Tables_number        205
_refine_ls_R_factor_all            .0457
loop_
_symmetry_equiv_pos_site_id
_symmetry_equiv_pos_as_xyz
  1	'-z+.5, x+.5, y'
  2	'z+.5, x, -y+.5'
  3	'z, -x+.5, y+.5'
  4	'-z, -x, -y'
  5	'y, -z+.5, x+.5'
  6	'-y+.5, z+.5, x'
  7	'y+.5, z, -x+.5'
  8	'-y, -z, -x'
  9	'x+.5, y, -z+.5'
 10	'x, -y+.5, z+.5'
 11	'-x+.5, y+.5, z'
 12	'-x, -y, -z'
 13	'z+.5, -x+.5, -y'
 14	'-z+.5, -x, y+.5'
 15	'-z, x+.5, -y+.5'
 16	'z, x, y'
 17	'-y, z+.5, -x+.5'
 18	'y+.5, -z+.5, -x'
 19	'-y+.5, -z, x+.5'
 20	'y, z, x'
 21	'-x+.5, -y, z+.5'
 22	'-x, y+.5, -z+.5'
 23	'x+.5, -y+.5, -z'
 24	'x, y, z'
loop_
_atom_type_symbol
_atom_type_oxidation_number
Cu1+	1
K1+	1
S2-	-2
U6+	6
loop_
_atom_site_label
_atom_site_type_symbol
_atom_site_symmetry_multiplicity
_atom_site_Wyckoff_symbol
_atom_site_fract_x
_atom_site_fract_y
_atom_site_fract_z
_atom_site_occupancy
_atom_site_attached_hydrogens
_atom_site_U_iso_or_equiv
U1 U6+ 8 c 0.258168(13) 0.258168(13) 0.258168(13) 1 0 0.00721(8) 
U2 U6+ 4 b 0.5000 0.5000 0.5000 1 0 0.00766(10) 
U3 U6+ 4 a 0.0000 0.0000 0.0000 1 0 0.00777(10) 
Cu1 Cu1+ 24 d 0.00989(6) 0.14267(5) 0.07558(5) 1 0 0.01077(16) 
Cu2 Cu1+ 24 d 0.11668(5) 0.24798(5) 0.18060(6) 1 0 0.01065(16) 
Cu3 Cu1+ 24 d 0.26263(5) 0.33158(5) 0.40196(5) 1 0 0.01108(17) 
Cu4 Cu1+ 24 d 0.35739(5) 0.42372(5) 0.49547(5) 1 0 0.01120(16) 
S1 S2- 24 d 0.01207(10) 0.25016(9) 0.12512(11) 1 0 0.0106(3) 
S2 S2- 24 d 0.03750(10) 0.45793(10) 0.12913(9) 1 0 0.0105(3) 
S3 S2- 24 d 0.04491(10) 0.37247(9) 0.46109(10) 1 0 0.0107(3) 
S4 S2- 24 d 0.12905(10) 0.21490(10) 0.29592(10) 1 0 0.0103(3) 
S5 S2- 24 d 0.21938(10) 0.38566(10) 0.30284(10) 1 0 0.0100(3) 
K1 K1+ 24 d 0.04146(9) 0.38013(10) 0.28488(9) 1 0 0.0135(3) 
K2 K1+ 24 d 0.12997(10) 0.21916(9) 0.47540(9) 1 0 0.0139(3) 

loop_
_atom_site_aniso_label
_atom_site_aniso_type_symbol
_atom_site_aniso_U_11
_atom_site_aniso_U_22
_atom_site_aniso_U_33
_atom_site_aniso_U_12
_atom_site_aniso_U_13
_atom_site_aniso_U_23
U1 U6+ 0.00721(8) 0.00721(8) 0.00721(8) -0.00022(7) -0.00022(7) -0.00022(7)
U2 U6+ 0.00766(10) 0.00766(10) 0.00766(10) -0.00046(9) -0.00046(9) 
-0.00046(9)
U3 U6+ 0.00777(10) 0.00777(10) 0.00777(10) -0.00074(9) -0.00074(9) 
-0.00074(9)
Cu1 Cu1+ 0.0123(4) 0.0087(3) 0.0113(4) 0.0001(3) -0.0008(3) -0.0009(3)
Cu2 Cu1+ 0.0089(3) 0.0111(4) 0.0120(4) 0.0003(3) -0.0017(3) -0.0009(3)
Cu3 Cu1+ 0.0115(4) 0.0125(4) 0.0093(3) -0.0009(3) 0.0001(3) -0.0018(3)
Cu4 Cu1+ 0.0097(4) 0.0128(4) 0.0111(4) -0.0015(3) 0.0007(3) -0.0009(3)
S1 S2- 0.0102(6) 0.0098(7) 0.0117(7) 0.0010(5) -0.0003(5) -0.0005(5)
S2 S2- 0.0117(7) 0.0100(7) 0.0099(7) 0.0010(5) 0.0004(5) 0.0012(5)
S3 S2- 0.0126(7) 0.0097(7) 0.0100(7) 0.0009(5) -0.0005(5) -0.0005(5)
S4 S2- 0.0106(7) 0.0100(7) 0.0101(7) 0.0004(5) 0.0001(5) -0.0005(5)
S5 S2- 0.0096(6) 0.0098(7) 0.0106(7) 0.0003(5) -0.0003(5) -0.0020(5)
K1 K1+ 0.0135(6) 0.0142(6) 0.0126(6) -0.0006(5) 0.0008(5) 0.0011(5)
K2 K1+ 0.0150(7) 0.0131(6) 0.0136(7) 0.0015(5) -0.0005(5) 0.0018(5)
#End of data_262933-ICSD


