data_60085-ICSD
#?2014 by Fachinformationszentrum Karlsruhe, and the U.S. Secretary of 
#Commerce on behalf of the United States.  All rights reserved.
_database_code_ICSD                60085
_audit_creation_date               1986/04/14
_audit_update_record               2010/08/01
_chemical_name_systematic          'Potassium Gadolinium Fluoride'
_chemical_formula_structural       'K2 Gd F5'
_chemical_formula_sum              'F5 Gd1 K2'
_publ_section_title
;
Preparation and X-ray studies on K2LnF5-type compounds
;
loop_
_citation_id
_citation_journal_abbrev
_citation_year
_citation_journal_volume
_citation_page_first
_citation_page_last
_citation_journal_id_ASTM
primary
;
Zeitschrift fuer Naturforschung, Teil B. Anorganische Chemie, 
Organische Chemie (33,1978-41,1986)
;
 1985 40 864 867 ZNBAD2
_publ_author_name                  'Guede, K.;Hebecker, C.'
_cell_length_a                     10.814(4)
_cell_length_b                     6.623(1)
_cell_length_c                     7.389(3)
_cell_angle_alpha                  90.
_cell_angle_beta                   90.
_cell_angle_gamma                  90.
_cell_volume                       529.21
_cell_formula_units_Z              4
_symmetry_space_group_name_H-M     'P n a m'
_symmetry_Int_Tables_number        62
_refine_ls_R_factor_all            .089
loop_
_symmetry_equiv_pos_site_id
_symmetry_equiv_pos_as_xyz
  1	'x+.5, -y+.5, z'
  2	'x, y, -z+.5'
  3	'-x+.5, y+.5, z+.5'
  4	'-x, -y, -z'
  5	'-x+.5, y+.5, -z'
  6	'-x, -y, z+.5'
  7	'x+.5, -y+.5, -z+.5'
  8	'x, y, z'
loop_
_atom_type_symbol
_atom_type_oxidation_number
F1-	-1
Gd3+	3
K1+	1
loop_
_atom_site_label
_atom_site_type_symbol
_atom_site_symmetry_multiplicity
_atom_site_Wyckoff_symbol
_atom_site_fract_x
_atom_site_fract_y
_atom_site_fract_z
_atom_site_occupancy
_atom_site_attached_hydrogens
Gd1 Gd3+ 4 c 0.5041(1) 0.0659(2) 0.25 1. 0 
K1 K1+ 8 d 0.6700(3) 0.5334(5) 0.4926(6) 1. 0 
F1 F1- 4 c 0.5092(11) 0.4012(13) 0.25 1. 0 
F2 F1- 8 d 0.4240(10) 0.8496(13) 0.4652(13) 1. 0 
F3 F1- 4 c 0.6706(13) 0.8703(23) 0.25 1. 0 
F4 F1- 4 c 0.3050(13) 0.1689(25) 0.25 1. 0 

loop_
_atom_site_aniso_label
_atom_site_aniso_type_symbol
_atom_site_aniso_U_11
_atom_site_aniso_U_22
_atom_site_aniso_U_33
_atom_site_aniso_U_12
_atom_site_aniso_U_13
_atom_site_aniso_U_23
Gd1 Gd3+ 0.0107(4) 0.0109(4) 0.0091(4) 0.0071(59) 0 0
K1 K1+ 0.0191(14) 0.0162(16) 0.0161(15) 0.0006(11) 0.0006(14) 0.0081(17)
F1 F1- 0.0156(60) 0.0232(65) 0.0231(61) 0.0060(39) 0 0
F2 F1- 0.0269(48) 0.0129(39) 0.0111(40) -.0051(35) -.0001(40) 0.000(4)
F3 F1- 0.0134(58) 0.0120(57) 0.0360(79) 0.0075(52) 0 0
F4 F1- 0.0167(61) 0.0252(77) 0.0219(69) 0.0068(57) 0 0
#End of data_60085-ICSD


