data_420522-ICSD
#?2014 by Fachinformationszentrum Karlsruhe, and the U.S. Secretary of 
#Commerce on behalf of the United States.  All rights reserved.
_database_code_ICSD                420522
_audit_creation_date               2010/02/01
_chemical_name_systematic          'Distrontium Magnesium Digermanate'
_chemical_formula_structural       'Sr2 Mg (Ge2 O7)'
_chemical_formula_sum              'Ge2 Mg1 O7 Sr2'
_publ_section_title
;
Optical properties of the germanate melilites Sr2 Mg Ge2 O7, Sr2 Zn 
Ge2 O7 and Ba2 Zn Ge2 O7
;
loop_
_citation_id
_citation_journal_abbrev
_citation_year
_citation_journal_volume
_citation_journal_issue
_citation_page_first
_citation_page_last
_citation_journal_id_ASTM
primary 'Crystal Research and Technology' 2009 44 6 603 612 CRTEDF
_publ_author_name
;
Becker, P.;Held, P.;Liebertz, J.;Bohaty, L.
;
_cell_length_a                     8.1725(6)
_cell_length_b                     8.1725(6)
_cell_length_c                     5.3150(7)
_cell_angle_alpha                  90.
_cell_angle_beta                   90.
_cell_angle_gamma                  90.
_cell_volume                       354.99
_cell_formula_units_Z              2
_symmetry_space_group_name_H-M     'P -4 21 m'
_symmetry_Int_Tables_number        113
_refine_ls_R_factor_all            .0306
loop_
_symmetry_equiv_pos_site_id
_symmetry_equiv_pos_as_xyz
  1	'-y+.5, -x+.5, z'
  2	'y, -x, -z'
  3	'y+.5, x+.5, z'
  4	'-y, x, -z'
  5	'x+.5, -y+.5, -z'
  6	'-x, -y, z'
  7	'-x+.5, y+.5, -z'
  8	'x, y, z'
loop_
_atom_type_symbol
_atom_type_oxidation_number
Ge4+	4
Mg2+	2
O2-	-2
Sr2+	2
loop_
_atom_site_label
_atom_site_type_symbol
_atom_site_symmetry_multiplicity
_atom_site_Wyckoff_symbol
_atom_site_fract_x
_atom_site_fract_y
_atom_site_fract_z
_atom_site_occupancy
_atom_site_attached_hydrogens
_atom_site_U_iso_or_equiv
Sr1 Sr2+ 4 e 0.33474(7) 0.16526(7) 0.50788(12) 1 0 0.0079(2) 
Ge1 Ge4+ 4 e 0.14234(8) 0.35766(8) 0.94985(13) 1 0 0.0042(2) 
Mg1 Mg2+ 2 a 0.0000 0.0000 0.0000 1 0 0.0059(8) 
O1 O2- 2 c 0.5000 0.0000 0.1840(15) 1 0 0.012(2) 
O2 O2- 4 e 0.1388(6) 0.3612(6) 0.2725(8) 1 0 0.0078(12) 
O3 O2- 8 f 0.0825(6) 0.1781(6) 0.7954(7) 1 0 0.0097(9) 

loop_
_atom_site_aniso_label
_atom_site_aniso_type_symbol
_atom_site_aniso_U_11
_atom_site_aniso_U_22
_atom_site_aniso_U_33
_atom_site_aniso_U_12
_atom_site_aniso_U_13
_atom_site_aniso_U_23
Sr1 Sr2+ 0.0091(3) 0.0091(3) 0.0055(3) 0.0030(3) 0.0006(2) -0.0006(2)
Ge1 Ge4+ 0.0046(3) 0.0046(3) 0.0034(3) 0.0005(3) 0.0000(2) 0.0000(2)
Mg1 Mg2+ 0.0058(11) 0.0058(11) 0.0061(15) 0.000 0.000 0.000
O1 O2- 0.011(4) 0.011(4) 0.009(4) -0.006(4) 0.000 0.000
O2 O2- 0.0108(19) 0.0108(19) 0.002(2) -0.004(3) -0.0009(15) 0.0009(15)
O3 O2- 0.016(3) 0.005(2) 0.0084(16) -0.006(2) 0.0010(17) -0.0005(18)
#End of data_420522-ICSD


