data_26632-ICSD
#?2014 by Fachinformationszentrum Karlsruhe, and the U.S. Secretary of 
#Commerce on behalf of the United States.  All rights reserved.
_database_code_ICSD                26632
_audit_creation_date               1980/01/01
_audit_update_record               2011/02/01
_chemical_name_systematic          'Potassium Silver Carbonate'
_chemical_formula_structural       'K Ag (C O3)'
_chemical_formula_sum              'C1 Ag1 K1 O3'
_publ_section_title
;
The crystal structure of potassium silver carbonate, K Ag C O3
;
loop_
_citation_id
_citation_journal_abbrev
_citation_year
_citation_journal_volume
_citation_page_first
_citation_page_last
_citation_journal_id_ASTM
primary 'Journal of the American Chemical Society' 1944 66 295 298 JACSAT
_publ_author_name                  'Donohue, J.;Helmholz, L.'
_cell_length_a                     20.23(10)
_cell_length_b                     5.75(3)
_cell_length_c                     5.95(3)
_cell_angle_alpha                  90.
_cell_angle_beta                   90.
_cell_angle_gamma                  90.
_cell_volume                       692.12
_cell_formula_units_Z              8
_symmetry_space_group_name_H-M     'I b c a'
_symmetry_Int_Tables_number        73
loop_
_symmetry_equiv_pos_site_id
_symmetry_equiv_pos_as_xyz
  1	'x, y+.5, -z'
  2	'x+.5, -y, z'
  3	'-x, y, z+.5'
  4	'-x, -y, -z'
  5	'-x, -y+.5, z'
  6	'-x+.5, y, -z'
  7	'x, -y, -z+.5'
  8	'x, y, z'
  9	'x+.5, y, -z+.5'
 10	'x, -y+.5, z+.5'
 11	'-x+.5, y+.5, z'
 12	'-x+.5, -y+.5, -z+.5'
 13	'-x+.5, -y, z+.5'
 14	'-x, y+.5, -z+.5'
 15	'x+.5, -y+.5, -z'
 16	'x+.5, y+.5, z+.5'
loop_
_atom_type_symbol
_atom_type_oxidation_number
Ag1+	1
C4+	4
K1+	1
O2-	-2
loop_
_atom_site_label
_atom_site_type_symbol
_atom_site_symmetry_multiplicity
_atom_site_Wyckoff_symbol
_atom_site_fract_x
_atom_site_fract_y
_atom_site_fract_z
_atom_site_occupancy
_atom_site_attached_hydrogens
_atom_site_B_iso_or_equiv
K1 K1+ 8 c -.182(2) 0 0.25 1. 0 1.5 
C1 C4+ 8 c 0.122(2) 0 0.25 1. 0 1.5 
O1 O2- 8 c 0.187(2) 0 0.25 1. 0 1.5 
Ag1 Ag1+ 8 e 0 0.25 0.128(2) 1. 0 1.5 
O2 O2- 16 f 0.089(2) 0.146(2) 0.378(2) 1. 0 1.5 

#End of data_26632-ICSD


