data_180306-ICSD
#?2014 by Fachinformationszentrum Karlsruhe, and the U.S. Secretary of 
#Commerce on behalf of the United States.  All rights reserved.
_database_code_ICSD                180306
_audit_creation_date               2011/08/01
_chemical_name_systematic          'Sodium Iron Digermanate'
_chemical_formula_structural       'Na Fe (Ge2 O6)'
_chemical_formula_sum              'Fe1 Ge2 Na1 O6'
_publ_section_title
;
Nuclear and incommensurate magnetic structure of Na Fe Ge2 O6 between 
5 K and 298 K and new data on multiferroic Na Fe Si2 O6
;
loop_
_citation_id
_citation_journal_abbrev
_citation_year
_citation_journal_volume
_citation_page_first
_citation_page_last
_citation_journal_id_ASTM
primary 'Physics and Chemistry of Minerals' 2011 38 139 157 PCMIDU
_publ_author_name
;
Redhammer, G.J.;Senyshyn, A.;Meven, M.;Roth, G.;Prinz, S.;Pachler, 
A.;Tippelt, G.;Pietzonka, C.;Treutmann, W.;Hoelzel, M.;Pedersen, 
B.;Amthauer, G.
;
_cell_length_a                     10.0002(7)
_cell_length_b                     8.9258(6)
_cell_length_c                     5.5147(4)
_cell_angle_alpha                  90.
_cell_angle_beta                   107.528(1)
_cell_angle_gamma                  90.
_cell_volume                       469.39
_cell_formula_units_Z              4
_symmetry_space_group_name_H-M     'C 1 2/c 1'
_symmetry_Int_Tables_number        15
_refine_ls_R_factor_all            .0199
loop_
_symmetry_equiv_pos_site_id
_symmetry_equiv_pos_as_xyz
  1	'x, -y, z+.5'
  2	'-x, -y, -z'
  3	'-x, y, -z+.5'
  4	'x, y, z'
  5	'x+.5, -y+.5, z+.5'
  6	'-x+.5, -y+.5, -z'
  7	'-x+.5, y+.5, -z+.5'
  8	'x+.5, y+.5, z'
loop_
_atom_type_symbol
_atom_type_oxidation_number
Fe3+	3
Ge4+	4
Na1+	1
O2-	-2
loop_
_atom_site_label
_atom_site_type_symbol
_atom_site_symmetry_multiplicity
_atom_site_Wyckoff_symbol
_atom_site_fract_x
_atom_site_fract_y
_atom_site_fract_z
_atom_site_occupancy
_atom_site_attached_hydrogens
_atom_site_U_iso_or_equiv
Na1 Na1+ 4 e 0 0.3009(2) 0.250 1. 0 0.011(4) 
Fe1 Fe3+ 4 e 0 0.90376(4) 0.250 1. 0 0.0038(2) 
Ge1 Ge4+ 8 f 0.28809(2) 0.09395(2) 0.22916(5) 1. 0 0.0039(2) 
O1 O2- 8 f 0.1053(2) 0.0808(2) 0.1305(3) 1. 0 0.0052(4) 
O2 O2- 8 f 0.3570(2) 0.2718(2) 0.2996(3) 1. 0 0.0083(4) 
O3 O2- 8 f 0.3614(2) 0.0069(2) 0.0143(3) 1. 0 0.0074(5) 

loop_
_atom_site_aniso_label
_atom_site_aniso_type_symbol
_atom_site_aniso_U_11
_atom_site_aniso_U_22
_atom_site_aniso_U_33
_atom_site_aniso_U_12
_atom_site_aniso_U_13
_atom_site_aniso_U_23
Na1 Na1+ 0.0114(8) 0.00806(7) 0.0114(8) 0. 0.0014(6) 0.
Fe1 Fe3+ 0.0028(3) 0.0037(3) 0.0050(3) 0. 0.0013(2) 0.
Ge1 Ge4+ 0.0029(2) 0.0039(3) 0.0051(3) -0.0004 0.0015(3) -0.0002(7)
O1 O2- 0.0041(8) 0.0050(8) 0.0064(8) -0.0007 0.0014(7) -0.0001(6)
O2 O2- 0.0081(7) 0.0068(7) 0.0107(8) -0.0030 0.0036(6) -0.0015(6)
O3 O2- 0.0047(8) 0.0098(8) 0.0076(7) 0.0005 0.0017(6) -0.0030(7)
#End of data_180306-ICSD


