data_21059-ICSD
#?2014 by Fachinformationszentrum Karlsruhe, and the U.S. Secretary of 
#Commerce on behalf of the United States.  All rights reserved.
_database_code_ICSD                21059
_audit_creation_date               1980/01/01
_audit_update_record               1987/06/02
_chemical_name_systematic          'Hexasodium Lead Oxide'
_chemical_formula_structural       'Na6 Pb O4'
_chemical_formula_sum              'Na6 O4 Pb1'
_publ_section_title
;
Ueber ternaere Oxide des Bleis: zur Kenntnis von Na6 Pb O4
;
loop_
_citation_id
_citation_journal_abbrev
_citation_year
_citation_journal_volume
_citation_page_first
_citation_page_last
_citation_journal_id_ASTM
primary 'Zeitschrift fuer Anorganische und Allgemeine Chemie (1950) (DE)'
 1973 400 229 241 ZAACAB
_publ_author_name                  'Panek, P.;Hoppe, R.'
_cell_length_a                     11.01
_cell_length_b                     11.01
_cell_length_c                     11.01
_cell_angle_alpha                  90.
_cell_angle_beta                   90.
_cell_angle_gamma                  90.
_cell_volume                       1334.63
_cell_formula_units_Z              8
_symmetry_space_group_name_H-M     'I -4 3 m'
_symmetry_Int_Tables_number        217
_refine_ls_R_factor_all            .0823
loop_
_symmetry_equiv_pos_site_id
_symmetry_equiv_pos_as_xyz
  1	'-z, -y, x'
  2	'-y, -x, z'
  3	'-x, -z, y'
  4	'-z, -x, y'
  5	'-y, -z, x'
  6	'-x, -y, z'
  7	'-z, y, -x'
  8	'-y, x, -z'
  9	'-x, z, -y'
 10	'-z, x, -y'
 11	'-y, z, -x'
 12	'-x, y, -z'
 13	'z, -y, -x'
 14	'y, -x, -z'
 15	'x, -z, -y'
 16	'z, -x, -y'
 17	'y, -z, -x'
 18	'x, -y, -z'
 19	'z, y, x'
 20	'y, x, z'
 21	'x, z, y'
 22	'z, x, y'
 23	'y, z, x'
 24	'x, y, z'
 25	'-z+.5, -y+.5, x+.5'
 26	'-y+.5, -x+.5, z+.5'
 27	'-x+.5, -z+.5, y+.5'
 28	'-z+.5, -x+.5, y+.5'
 29	'-y+.5, -z+.5, x+.5'
 30	'-x+.5, -y+.5, z+.5'
 31	'-z+.5, y+.5, -x+.5'
 32	'-y+.5, x+.5, -z+.5'
 33	'-x+.5, z+.5, -y+.5'
 34	'-z+.5, x+.5, -y+.5'
 35	'-y+.5, z+.5, -x+.5'
 36	'-x+.5, y+.5, -z+.5'
 37	'z+.5, -y+.5, -x+.5'
 38	'y+.5, -x+.5, -z+.5'
 39	'x+.5, -z+.5, -y+.5'
 40	'z+.5, -x+.5, -y+.5'
 41	'y+.5, -z+.5, -x+.5'
 42	'x+.5, -y+.5, -z+.5'
 43	'z+.5, y+.5, x+.5'
 44	'y+.5, x+.5, z+.5'
 45	'x+.5, z+.5, y+.5'
 46	'z+.5, x+.5, y+.5'
 47	'y+.5, z+.5, x+.5'
 48	'x+.5, y+.5, z+.5'
loop_
_atom_type_symbol
_atom_type_oxidation_number
Na1+	1
O2-	-2
Pb2+	2
loop_
_atom_site_label
_atom_site_type_symbol
_atom_site_symmetry_multiplicity
_atom_site_Wyckoff_symbol
_atom_site_fract_x
_atom_site_fract_y
_atom_site_fract_z
_atom_site_occupancy
_atom_site_attached_hydrogens
_atom_site_B_iso_or_equiv
Pb1 Pb2+ 8 c 0.1252(1) 0.1252(1) 0.1252(1) 1. 0 0.71 
O1 O2- 2 a 0 0 0 1. 0 1.6 
O2 O2- 6 b 0.5 0.5 0 1. 0 0.1 
O3 O2- 24 g 0.256(3) 0.256(3) 0.039(4) 1. 0 3.8 
Na1 Na1+ 24 g 0.134(1) 0.134(1) 0.409(1) 1. 0 2.2 
Na2 Na1+ 24 g 0.107(1) 0.107(1) 0.670(2) 1. 0 3.3 

#End of data_21059-ICSD


