data_415783-ICSD
#?2014 by Fachinformationszentrum Karlsruhe, and the U.S. Secretary of 
#Commerce on behalf of the United States.  All rights reserved.
_database_code_ICSD                415783
_audit_creation_date               2011/02/01
_chemical_name_systematic
;
Zinc Tetrakis(sulfur Dioxide) Bis(hexafluoroarsenate)
;
_chemical_formula_structural       'Zn (S O2)4 (As F6)2'
_chemical_formula_sum              'As2 F12 O8 S4 Zn1'
_publ_section_title
;
Complexes formed by the reactions of fluorinated and non-fluorinated 
organonitriles with (Zn (S O2)2) (As F6)2: a structural study
;
loop_
_citation_id
_citation_journal_abbrev
_citation_year
_citation_journal_volume
_citation_journal_issue
_citation_page_first
_citation_page_last
_citation_journal_id_ASTM
primary 'Journal of Chemical Crystallography' 2006 36 5 321 329 JCCYEV
_publ_author_name
;
Akkus, O.N.;Decken, A.;Knapp, C.;Passmore, J.
;
_cell_length_a                     8.5176(8)
_cell_length_b                     13.5787(14)
_cell_length_c                     14.7661(15)
_cell_angle_alpha                  90.00
_cell_angle_beta                   99.296(2)
_cell_angle_gamma                  90.00
_cell_volume                       1685.39
_cell_formula_units_Z              4
_symmetry_space_group_name_H-M     'P 1 21/c 1'
_symmetry_Int_Tables_number        14
_refine_ls_R_factor_all            .0253
loop_
_symmetry_equiv_pos_site_id
_symmetry_equiv_pos_as_xyz
  1	'x, -y+.5, z+.5'
  2	'-x, -y, -z'
  3	'-x, y+.5, -z+.5'
  4	'x, y, z'
loop_
_atom_type_symbol
_atom_type_oxidation_number
As5+	5
F1-	-1
O2-	-2
S4+	4
Zn2+	2
loop_
_atom_site_label
_atom_site_type_symbol
_atom_site_symmetry_multiplicity
_atom_site_Wyckoff_symbol
_atom_site_fract_x
_atom_site_fract_y
_atom_site_fract_z
_atom_site_occupancy
_atom_site_attached_hydrogens
_atom_site_U_iso_or_equiv
Zn1 Zn2+ 4 e 0.77496(4) 0.68516(2) 0.25846(2) 1 0 0.02129(8) 
As1 As5+ 4 e 0.96302(3) 0.85381(2) 0.108585(19) 1 0 0.02438(8) 
As2 As5+ 4 e 0.58911(3) 0.88675(2) 0.369357(18) 1 0 0.02282(8) 
F1 F1- 4 e 0.8424(2) 0.79702(14) 0.18278(13) 1 0 0.0422(5) 
F2 F1- 4 e 1.0768(2) 0.90760(15) 0.03757(13) 1 0 0.0411(4) 
F3 F1- 4 e 0.7993(2) 0.85635(19) 0.02635(14) 1 0 0.0532(6) 
F4 F1- 4 e 1.0086(3) 0.73909(15) 0.07416(14) 1 0 0.0472(5) 
F5 F1- 4 e 1.1204(3) 0.84680(18) 0.19560(14) 1 0 0.0569(6) 
F6 F1- 4 e 0.9120(3) 0.96469(15) 0.14888(15) 1 0 0.0532(6) 
F7 F1- 4 e 0.7091(2) 0.78567(15) 0.34754(12) 1 0 0.0427(5) 
F8 F1- 4 e 0.4744(3) 0.98327(16) 0.39135(14) 1 0 0.0527(5) 
F9 F1- 4 e 0.5459(3) 0.90637(18) 0.25417(13) 1 0 0.0590(6) 
F10 F1- 4 e 0.7515(3) 0.96061(18) 0.37595(17) 1 0 0.0623(6) 
F11 F1- 4 e 0.6403(3) 0.86111(16) 0.48374(12) 1 0 0.0478(5) 
F12 F1- 4 e 0.4347(3) 0.80734(18) 0.3631(2) 1 0 0.0674(7) 
O1 O2- 4 e 0.7158(2) 0.56886(16) 0.33664(14) 1 0 0.0324(5) 
O2 O2- 4 e 0.4779(3) 0.5682(2) 0.40879(15) 1 0 0.0422(6) 
O3 O2- 4 e 0.8462(2) 0.57553(16) 0.17401(13) 1 0 0.0310(5) 
O4 O2- 4 e 0.8753(3) 0.4285(2) 0.0866(2) 1 0 0.0631(8) 
O5 O2- 4 e 0.9948(2) 0.69050(16) 0.34209(14) 1 0 0.0300(5) 
O6 O2- 4 e 1.2077(3) 0.64222(19) 0.26056(15) 1 0 0.0389(5) 
O7 O2- 4 e 0.5497(2) 0.68310(18) 0.18145(15) 1 0 0.0366(5) 
O8 O2- 4 e 0.4116(4) 0.7937(2) 0.06594(18) 1 0 0.0554(7) 
S1 S4+ 4 e 0.62109(8) 0.52229(6) 0.39662(5) 1 0 0.02672(15) 
S2 S4+ 4 e 0.90997(10) 0.52729(7) 0.10309(6) 1 0 0.03877(19) 
S3 S4+ 4 e 1.16182(8) 0.67189(6) 0.34374(5) 1 0 0.03124(17) 
S4 S4+ 4 e 0.41826(9) 0.70177(6) 0.10978(5) 1 0 0.03323(17) 

loop_
_atom_site_aniso_label
_atom_site_aniso_type_symbol
_atom_site_aniso_U_11
_atom_site_aniso_U_22
_atom_site_aniso_U_33
_atom_site_aniso_U_12
_atom_site_aniso_U_13
_atom_site_aniso_U_23
Zn1 Zn2+ 0.02289(15) 0.01985(17) 0.02220(15) 0.00140(12) 0.00689(11) 
0.00069(12)
As1 As5+ 0.02764(15) 0.01949(15) 0.02538(14) -0.00253(11) 0.00237(11) 
0.00412(11)
As2 As5+ 0.02374(14) 0.01876(15) 0.02620(15) 0.00249(11) 0.00470(10) 
-0.00127(11)
F1 F1- 0.0571(12) 0.0304(11) 0.0439(10) -0.0016(9) 0.0229(9) 0.0117(8)
F2 F1- 0.0423(10) 0.0355(11) 0.0492(11) -0.0076(9) 0.0181(8) 0.0082(9)
F3 F1- 0.0364(10) 0.0700(16) 0.0474(12) -0.0098(10) -0.0111(9) 0.0213(11)
F4 F1- 0.0581(12) 0.0271(10) 0.0615(12) -0.0023(9) 0.0247(10) -0.0050(9)
F5 F1- 0.0534(13) 0.0580(15) 0.0493(12) -0.0110(11) -0.0213(10) 0.0137(11)
F6 F1- 0.0791(15) 0.0221(10) 0.0665(13) 0.0007(10) 0.0364(12) -0.0007(9)
F7 F1- 0.0535(11) 0.0437(12) 0.0306(9) 0.0262(10) 0.0056(8) -0.0079(8)
F8 F1- 0.0585(12) 0.0369(12) 0.0626(13) 0.0229(10) 0.0095(10) -0.0079(10)
F9 F1- 0.0838(16) 0.0593(15) 0.0297(10) 0.0263(13) -0.0032(10) 0.0062(10)
F10 F1- 0.0460(12) 0.0530(15) 0.0887(17) -0.0219(11) 0.0130(11) 0.0062(13)
F11 F1- 0.0686(14) 0.0486(13) 0.0280(9) 0.0153(11) 0.0138(9) -0.0011(9)
F12 F1- 0.0406(11) 0.0486(15) 0.111(2) -0.0154(11) 0.0073(12) -0.0009(13)
O1 O2- 0.0377(11) 0.0304(12) 0.0306(10) -0.0060(9) 0.0095(9) 0.0037(9)
O2 O2- 0.0297(11) 0.0543(16) 0.0434(13) 0.0068(11) 0.0085(9) -0.0024(11)
O3 O2- 0.0330(10) 0.0318(12) 0.0290(10) 0.0021(9) 0.0077(8) -0.0066(9)
O4 O2- 0.0593(17) 0.0441(17) 0.089(2) -0.0014(14) 0.0224(15) -0.0332(15)
O5 O2- 0.0258(10) 0.0296(12) 0.0343(11) 0.0006(9) 0.0039(8) -0.0024(9)
O6 O2- 0.0332(11) 0.0432(14) 0.0418(13) 0.0048(10) 0.0112(10) 0.0040(10)
O7 O2- 0.0301(11) 0.0435(14) 0.0345(11) 0.0072(10) 0.0001(9) -0.0042(10)
O8 O2- 0.0767(19) 0.0420(16) 0.0480(14) 0.0181(14) 0.0117(13) 0.0081(12)
S1 S4+ 0.0276(3) 0.0239(4) 0.0298(3) 0.0006(3) 0.0081(3) 0.0057(3)
S2 S4+ 0.0419(4) 0.0361(5) 0.0428(4) 0.0044(4) 0.0203(3) -0.0058(4)
S3 S4+ 0.0224(3) 0.0365(4) 0.0336(4) -0.0019(3) 0.0008(3) 0.0010(3)
S4 S4+ 0.0285(3) 0.0348(4) 0.0348(4) 0.0028(3) 0.0004(3) 0.0029(3)
#End of data_415783-ICSD


