data_411124-ICSD
#?2014 by Fachinformationszentrum Karlsruhe, and the U.S. Secretary of 
#Commerce on behalf of the United States.  All rights reserved.
_database_code_ICSD                411124
_audit_creation_date               2002/04/01
_chemical_name_systematic
;
Dicesium Potassium Hexacyanoferrate(III)
;
_chemical_formula_structural       'Cs2 K (Fe (C N)6)'
_chemical_formula_sum              'C6 Cs2 Fe1 K1 N6'
_publ_section_title
;
Kristallstrukturbestimmungen an Cs2 Na Cr (C N)6 und weiteren 
Verbindungen A2 B M (C N)6 (A= Rb, Cs; B= Na, K, Rb, NH4; M= Cr, Mn, 
Fe, Co): Oktaederkippung und Toleranzfaktor von Cyanokryolithen
;
loop_
_citation_id
_citation_journal_abbrev
_citation_year
_citation_journal_volume
_citation_page_first
_citation_page_last
_citation_journal_id_ASTM
primary 'Zeitschrift fuer Anorganische und Allgemeine Chemie (1950) (DE)'
 2000 626 1561 1566 ZAACAB
_publ_author_name
;
Peschel, S.;Ziegler, B.;Schwarten, M.;Babel, D.
;
_cell_length_a                     7.663
_cell_length_b                     8.145
_cell_length_c                     11.143
_cell_angle_alpha                  90.
_cell_angle_beta                   90.19
_cell_angle_gamma                  90.
_cell_volume                       695.49
_cell_formula_units_Z              2
_symmetry_space_group_name_H-M     'P 1 21/n 1'
_symmetry_Int_Tables_number        14
_refine_ls_R_factor_all            .03
loop_
_symmetry_equiv_pos_site_id
_symmetry_equiv_pos_as_xyz
  1	'-x+.5, y+.5, -z+.5'
  2	'-x, -y, -z'
  3	'x+.5, -y+.5, z+.5'
  4	'x, y, z'
loop_
_atom_type_symbol
_atom_type_oxidation_number
C2+	2
Cs1+	1
Fe3+	3
K1+	1
N3-	-3
loop_
_atom_site_label
_atom_site_type_symbol
_atom_site_symmetry_multiplicity
_atom_site_Wyckoff_symbol
_atom_site_fract_x
_atom_site_fract_y
_atom_site_fract_z
_atom_site_occupancy
_atom_site_attached_hydrogens
Cs1 Cs1+ 4 e -.02121 0.43164 0.25056 1. 0 
Fe1 Fe3+ 2 a 0.5 0.5 0.5 1. 0 
K1 K1+ 2 b 0.5 0.5 0 1. 0 
N1 N3- 4 e 0.38628 0.53989 0.23618 1. 0 
N2 N3- 4 e 0.66819 0.20131 0.05215 1. 0 
N3 N3- 4 e 0.19682 0.31696 -.06396 1. 0 
C1 C2+ 4 e 0.42898 0.52269 0.33411 1. 0 
C2 C2+ 4 e 0.79181 0.1278 0.03176 1. 0 
C3 C2+ 4 e 0.12453 0.20056 -.03978 1. 0 

loop_
_atom_site_aniso_label
_atom_site_aniso_type_symbol
_atom_site_aniso_U_11
_atom_site_aniso_U_22
_atom_site_aniso_U_33
_atom_site_aniso_U_12
_atom_site_aniso_U_13
_atom_site_aniso_U_23
Cs1 Cs1+ 0.05 0.0404 0.0502 0.0055 0.0013 -.0012
Fe1 Fe3+ 0.0246 0.0201 0.0227 -.001 0.0007 -.0012
K1 K1+ 0.0291 0.0245 0.0264 0.0012 -.0018 -.0006
N1 N3- 0.0627 0.0638 0.0286 -.0088 -.004 0.0042
N2 N3- 0.046 0.0452 0.0719 0.0193 0.0131 0.0102
N3 N3- 0.05 0.0398 0.0687 -.0148 -.009 0.0122
C1 C2+ 0.0372 0.0313 0.0313 -.0045 0.0022 0.0014
C2 C2+ 0.0366 0.024 0.0339 0.0026 0.0034 0.0037
C3 C2+ 0.0294 0.0282 0.0345 -.0014 -.0013 0.0026
#End of data_411124-ICSD


