data_404539-ICSD
#?2014 by Fachinformationszentrum Karlsruhe, and the U.S. Secretary of 
#Commerce on behalf of the United States.  All rights reserved.
_database_code_ICSD                404539
_audit_creation_date               1997/11/10
_chemical_name_systematic          'Terbium Zinc Pentaborate'
_chemical_formula_structural       'Tb Zn (B5 O10)'
_chemical_formula_sum              'B5 O10 Tb1 Zn1'
_publ_section_title
;
Synthese und Kristallstruktur von Lanthanoidzinkboraten Ln Zn (B5 
O10) mit Ln = Ce, Nd, Tb
;
loop_
_citation_id
_citation_journal_abbrev
_citation_year
_citation_journal_volume
_citation_page_first
_citation_page_last
_citation_journal_id_ASTM
primary 'Zeitschrift fuer Naturforschung, B: Chemical Sciences'
 1996 51 671 676 ZNBSEN
_publ_author_name                  'Busche, S.;Bluhm, K.'
_cell_length_a                     8.582(2)
_cell_length_b                     7.605(2)
_cell_length_c                     9.393(2)
_cell_angle_alpha                  90.
_cell_angle_beta                   93.561(15)
_cell_angle_gamma                  90.
_cell_volume                       611.86
_cell_formula_units_Z              4
_symmetry_space_group_name_H-M     'P 1 21/n 1'
_symmetry_Int_Tables_number        14
_refine_ls_R_factor_all            .1079
loop_
_symmetry_equiv_pos_site_id
_symmetry_equiv_pos_as_xyz
  1	'-x+.5, y+.5, -z+.5'
  2	'-x, -y, -z'
  3	'x+.5, -y+.5, z+.5'
  4	'x, y, z'
loop_
_atom_type_symbol
_atom_type_oxidation_number
B3+	3
O2-	-2
Tb3+	3
Zn2+	2
loop_
_atom_site_label
_atom_site_type_symbol
_atom_site_symmetry_multiplicity
_atom_site_Wyckoff_symbol
_atom_site_fract_x
_atom_site_fract_y
_atom_site_fract_z
_atom_site_occupancy
_atom_site_attached_hydrogens
_atom_site_U_iso_or_equiv
Zn1 Zn2+ 4 e 0.60639(5) 0.40944(6) 0.12620(5) 1. 0 0 
Tb1 Tb3+ 4 e 0.18425(2) 0.18213(2) 0.23852(2) 1. 0 0 
B1 B3+ 4 e 0.9162(4) 0.5753(5) 0.2576(4) 1. 0 0.0075(5) 
B2 B3+ 4 e 0.4813(4) 0.3267(5) 0.3958(4) 1. 0 0.0069(5) 
B3 B3+ 4 e 0.7224(4) 0.5329(6) 0.4449(4) 1. 0 0.0104(6) 
B4 B3+ 4 e 0.8415(4) 0.6017(5) -.0050(4) 1. 0 0.0073(5) 
B5 B3+ 4 e 0.9354(4) 0.3122(6) 0.4120(4) 1. 0 0.0075(5) 
O1 O2- 4 e 0.0360(3) 0.7066(3) 0.2292(3) 1. 0 0 
O2 O2- 4 e 0.8160(3) 0.5327(4) 0.1260(3) 1. 0 0 
O3 O2- 4 e 0.9898(3) 0.4096(3) 0.3040(3) 1. 0 0 
O4 O2- 4 e 0.8174(3) 0.6503(3) 0.3638(3) 1. 0 0 
O5 O2- 4 e 0.5842(3) 0.4709(3) 0.3510(3) 1. 0 0 
O6 O2- 4 e 0.3242(3) 0.3928(3) 0.4192(3) 1. 0 0 
O7 O2- 4 e 0.5439(3) 0.2285(3) 0.5208(2) 1. 0 0 
O8 O2- 4 e 0.8168(3) 0.3730(4) 0.4906(3) 1. 0 0 
O9 O2- 4 e 0.4939(3) 0.6498(3) 0.0706(3) 1. 0 0 
O10 O2- 4 e 0.2425(3) 0.4471(3) 0.1249(3) 1. 0 0 

loop_
_atom_site_aniso_label
_atom_site_aniso_type_symbol
_atom_site_aniso_U_11
_atom_site_aniso_U_22
_atom_site_aniso_U_33
_atom_site_aniso_U_12
_atom_site_aniso_U_13
_atom_site_aniso_U_23
Zn1 Zn2+ 0.01099(15) 0.0089(2) 0.0114(2) -.00029(13) -.00066(13) 
-.00045(14)
Tb1 Tb3+ 0.00729(4) 0.00684(5) 0.00761(4) 0.00032(6) -.00056(3) 0.00123(7)
O1 O2- 0.0082(8) 0.0089(11) 0.0103(9) 0.0005(7) -.0025(7) 0.0034(8)
O2 O2- 0.0060(8) 0.0109(10) 0.0077(9) -.0015(8) 0.0002(7) 0.0020(8)
O3 O2- 0.0091(8) 0.0073(9) 0.0095(9) -.0001(7) 0.0030(7) 0.0020(8)
O4 O2- 0.0086(8) 0.0061(9) 0.0097(9) -.0009(7) 0.0024(7) 0.0013(7)
O5 O2- 0.0071(8) 0.0087(10) 0.0082(9) -.0006(8) -.0004(7) -.0004(8)
O6 O2- 0.0072(8) 0.0095(10) 0.0061(8) -.0002(7) 0.0016(7) -.0032(8)
O7 O2- 0.0076(8) 0.0077(9) 0.0066(8) 0.0018(7) 0.0007(7) 0.0005(8)
O8 O2- 0.0066(8) 0.0109(9) 0.0092(9) 0.0024(8) 0.0015(7) 0.0027(8)
O9 O2- 0.0075(8) 0.0076(10) 0.0117(10) -.0011(7) -.0005(7) 0.0000(8)
O10 O2- 0.0106(8) 0.0085(9) 0.0052(8) -.0007(8) -.0006(7) -.0023(8)
#End of data_404539-ICSD


