data_73812-ICSD
#?2014 by Fachinformationszentrum Karlsruhe, and the U.S. Secretary of 
#Commerce on behalf of the United States.  All rights reserved.
_database_code_ICSD                73812
_audit_creation_date               1995/01/10
_chemical_name_systematic          'Manganese Aluminium Fluoride'
_chemical_formula_structural       'Mn Al F5'
_chemical_formula_sum              'Al1 F5 Mn1'
_publ_section_title
;
A new refinement of the crystal structure of MnAlF5: new structural 
correlations with MnCrF5 and Cr2F5 using orthogonal subcell twinning
;
loop_
_citation_id
_citation_journal_abbrev
_citation_year
_citation_journal_volume
_citation_page_first
_citation_page_last
_citation_journal_id_ASTM
primary 'Journal of Solid State Chemistry' 1993 102 9 19 JSSCBI
_publ_author_name
;
Ferey, G.;le Blanc, M.;Mercier, A.M.
;
_cell_length_a                     3.5837(4)
_cell_length_b                     9.854(1)
_cell_length_c                     9.537(1)
_cell_angle_alpha                  90.
_cell_angle_beta                   90.
_cell_angle_gamma                  90.
_cell_volume                       336.79
_cell_formula_units_Z              4
_symmetry_space_group_name_H-M     'C m c m'
_symmetry_Int_Tables_number        63
_refine_ls_R_factor_all            .023
loop_
_symmetry_equiv_pos_site_id
_symmetry_equiv_pos_as_xyz
  1	'-x, y, -z+.5'
  2	'-x, -y, z+.5'
  3	'-x, y, z'
  4	'-x, -y, -z'
  5	'x, -y, z+.5'
  6	'x, y, -z+.5'
  7	'x, -y, -z'
  8	'x, y, z'
  9	'-x+.5, y+.5, -z+.5'
 10	'-x+.5, -y+.5, z+.5'
 11	'-x+.5, y+.5, z'
 12	'-x+.5, -y+.5, -z'
 13	'x+.5, -y+.5, z+.5'
 14	'x+.5, y+.5, -z+.5'
 15	'x+.5, -y+.5, -z'
 16	'x+.5, y+.5, z'
loop_
_atom_type_symbol
_atom_type_oxidation_number
Al3+	3
F1-	-1
Mn2+	2
loop_
_atom_site_label
_atom_site_type_symbol
_atom_site_symmetry_multiplicity
_atom_site_Wyckoff_symbol
_atom_site_fract_x
_atom_site_fract_y
_atom_site_fract_z
_atom_site_occupancy
_atom_site_attached_hydrogens
Mn1 Mn2+ 4 b 0.5 0 0 1. 0 
Al1 Al3+ 4 c 0 0.2059(1) 0.25 1. 0 
F1 F1- 8 f 0 0.3296(1) 0.1176(1) 1. 0 
F2 F1- 8 f 0 0.0731(1) 0.1156(1) 1. 0 
F3 F1- 4 c 0 0.6923(1) 0.25 1. 0 

loop_
_atom_site_aniso_label
_atom_site_aniso_type_symbol
_atom_site_aniso_U_11
_atom_site_aniso_U_22
_atom_site_aniso_U_33
_atom_site_aniso_U_12
_atom_site_aniso_U_13
_atom_site_aniso_U_23
Mn1 Mn2+ 0.0072(1) 0.0084(1) 0.0106(1) 0 0 0.0041(1)
Al1 Al3+ 0.0040(2) 0.0049(2) 0.0060(2) 0 0 0
F1 F1- 0.0254(6) 0.0134(5) 0.0191(5) 0 0 0.0107(4)
F2 F1- 0.0144(4) 0.0121(4) 0.0094(3) 0 0 -.0049(3)
F3 F1- 0.0039(5) 0.0230(8) 0.0315(8) 0 0 0
#End of data_73812-ICSD


