data_34602-ICSD
#?2014 by Fachinformationszentrum Karlsruhe, and the U.S. Secretary of 
#Commerce on behalf of the United States.  All rights reserved.
_database_code_ICSD                34602
_audit_creation_date               1986/09/30
_audit_update_record               2012/08/01
_chemical_name_systematic          'Disodium Tetrafluorocuprate'
_chemical_formula_structural       'Na2 (Cu F4)'
_chemical_formula_sum              'Cu1 F4 Na2'
_publ_section_title
;
Untersuchungen an ternaeren Fluoriden.III Die Struktur des Na2 Cu F4
;
loop_
_citation_id
_citation_journal_abbrev
_citation_year
_citation_journal_volume
_citation_page_first
_citation_page_last
_citation_journal_id_ASTM
primary 'Zeitschrift fuer Anorganische und Allgemeine Chemie (1950) (DE)'
 1965 336 200 206 ZAACAB
_publ_author_name                  'Babel, D.'
_cell_length_a                     3.26
_cell_length_b                     9.35
_cell_length_c                     5.6
_cell_angle_alpha                  90.
_cell_angle_beta                   87.5
_cell_angle_gamma                  90.
_cell_volume                       170.53
_cell_formula_units_Z              2
_symmetry_space_group_name_H-M     'P 1 21/c 1'
_symmetry_Int_Tables_number        14
_refine_ls_R_factor_all            .094
loop_
_symmetry_equiv_pos_site_id
_symmetry_equiv_pos_as_xyz
  1	'x, -y+.5, z+.5'
  2	'-x, -y, -z'
  3	'-x, y+.5, -z+.5'
  4	'x, y, z'
loop_
_atom_type_symbol
_atom_type_oxidation_number
Cu2+	2
F1-	-1
Na1+	1
loop_
_atom_site_label
_atom_site_type_symbol
_atom_site_symmetry_multiplicity
_atom_site_Wyckoff_symbol
_atom_site_fract_x
_atom_site_fract_y
_atom_site_fract_z
_atom_site_occupancy
_atom_site_attached_hydrogens
_atom_site_B_iso_or_equiv
Cu1 Cu2+ 2 a 0 0 0 1. 0 0.234 
F1 F1- 4 e 0.4265 0.4495 0.2691 1. 0 0.1 
F2 F1- 4 e -.0013 0.1881 0.1284 1. 0 0.269 
Na1 Na1+ 4 e 0.4855 0.1819 0.4233 1. 0 0.115 

#End of data_34602-ICSD


