data_262992-ICSD
#?2014 by Fachinformationszentrum Karlsruhe, and the U.S. Secretary of 
#Commerce on behalf of the United States.  All rights reserved.
_database_code_ICSD                262992
_audit_creation_date               2013/02/01
_audit_update_record               2013/08/01
_chemical_name_systematic
;
Strontium Yttrium Aluminium Oxide (6/2/4/15)
;
_chemical_formula_structural       'Sr6 Y2 Al4 O15'
_chemical_formula_sum              'Al4 O15 Sr6 Y2'
_publ_section_title
;
Crystal structure of Sr6 Y2 Al4 O15: XRD refinements and first-
principle calculations
;
loop_
_citation_id
_citation_journal_abbrev
_citation_year
_citation_journal_volume
_citation_journal_issue
_citation_page_first
_citation_page_last
_citation_journal_id_ASTM
primary 'Journal of Solid State Chemistry' 2012 192 8 195 200 JSSCBI
_publ_author_name
;
Wang Chunhai;Guo Dongfang;Li Zhaofei;Wang Xiaoming;Lin Jianhua;Zeng 
Zhengzhi;Jing Xiping
;
_cell_length_a                     17.597(1)
_cell_length_b                     5.7408(1)
_cell_length_c                     7.6860(1)
_cell_angle_alpha                  90
_cell_angle_beta                   90.7659(3)
_cell_angle_gamma                  90
_cell_volume                       776.38
_cell_formula_units_Z              2
_symmetry_space_group_name_H-M     'C 1 2 1'
_symmetry_Int_Tables_number        5
_refine_ls_R_factor_all            .039
loop_
_symmetry_equiv_pos_site_id
_symmetry_equiv_pos_as_xyz
  1	'-x, y, -z'
  2	'x, y, z'
  3	'-x+.5, y+.5, -z'
  4	'x+.5, y+.5, z'
loop_
_atom_type_symbol
_atom_type_oxidation_number
Al3+	3
O2-	-2
Sr2+	2
Y3+	3
loop_
_atom_site_label
_atom_site_type_symbol
_atom_site_symmetry_multiplicity
_atom_site_Wyckoff_symbol
_atom_site_fract_x
_atom_site_fract_y
_atom_site_fract_z
_atom_site_occupancy
_atom_site_attached_hydrogens
_atom_site_B_iso_or_equiv
Y1 Y3+ 4 c 0.3429(1) 0.4915(9) 0.7543(2) 1. 0 0.7(1) 
Sr1 Sr2+ 4 c 0.1721(1) 0.4870(8) 0.5044(2) 1. 0 1.0(1) 
Sr2 Sr2+ 4 c 0.1590(1) 0.4668(8) 0.9676(2) 1. 0 1.0(1) 
Sr3 Sr2+ 2 a 0 0.0306(8) 0 1. 0 1.0(1) 
Sr4 Sr2+ 2 b 0 0.0890(7) 0.5 1. 0 1.0(1) 
Al1 Al3+ 4 c 0.310(1) 0.481(1) 0.247(1) 1. 0 0.5(1) 
Al2 Al3+ 4 c 0.013(1) 0.530(1) 0.227(1) 1. 0 0.5(1) 
O1 O2- 4 c 0.365(1) 0.500(2) 0.046(1) 1. 0 1.3(1) 
O2 O2- 4 c 0.256(1) 0.212(1) 0.234(1) 1. 0 1.3(1) 
O3 O2- 4 c 0.238(1) 0.714(1) 0.226(1) 1. 0 1.3(1) 
O4 O2- 4 c 0.094(1) 0.323(1) 0.251(1) 1. 0 1.3(1) 
O5 O2- 4 c 0.042(1) 0.815(1) 0.267(1) 1. 0 1.3(1) 
O6 O2- 4 c 0.925(1) 0.409(1) 0.319(1) 1. 0 1.3(1) 
O7 O2- 4 c 0.344(1) 0.503(2) 0.463(1) 1. 0 1.3(1) 
O8 O2- 2 a 0 0.545(2) 0 1. 0 1.3(1) 

#End of data_262992-ICSD


