data_46005-ICSD
#?2014 by Fachinformationszentrum Karlsruhe, and the U.S. Secretary of 
#Commerce on behalf of the United States.  All rights reserved.
_database_code_ICSD                46005
_audit_creation_date               1983/12/31
_chemical_name_systematic          'Dipotassium Tantalum Fluoride'
_chemical_formula_structural       'K2 Ta F7'
_chemical_formula_sum              'F7 K2 Ta1'
_publ_section_title
;
An X-Ray, NMR, infrared and Raman study of K2 Ta F7
;
loop_
_citation_id
_citation_journal_abbrev
_citation_year
_citation_journal_volume
_citation_page_first
_citation_page_last
_citation_journal_id_ASTM
primary 'Journal of Physics C' 1983 16 829 840 JPSOAW
_publ_author_name
;
English, R.B.;Heyns, E.C.;Reynhardt, E.C.
;
_cell_length_a                     5.861(5)
_cell_length_b                     12.78(5)
_cell_length_c                     8.522(5)
_cell_angle_alpha                  90.
_cell_angle_beta                   90.23(2)
_cell_angle_gamma                  90.
_cell_volume                       638.32
_cell_formula_units_Z              4
_symmetry_space_group_name_H-M     'P 1 21/c 1'
_symmetry_Int_Tables_number        14
_refine_ls_R_factor_all            .044
loop_
_symmetry_equiv_pos_site_id
_symmetry_equiv_pos_as_xyz
  1	'x, -y+.5, z+.5'
  2	'-x, -y, -z'
  3	'-x, y+.5, -z+.5'
  4	'x, y, z'
loop_
_atom_type_symbol
_atom_type_oxidation_number
F1-	-1
K1+	1
Ta5+	5
loop_
_atom_site_label
_atom_site_type_symbol
_atom_site_symmetry_multiplicity
_atom_site_Wyckoff_symbol
_atom_site_fract_x
_atom_site_fract_y
_atom_site_fract_z
_atom_site_occupancy
_atom_site_attached_hydrogens
K1 K1+ 4 e 0.2378(5) 0.4405(2) 0.1826(4) 1. 0 
K2 K1+ 4 e 0.7632(5) 0.2841(4) 0.4441(4) 1. 0 
Ta1 Ta5+ 4 e 0.2726(1) 0.129 0.2225(1) 1. 0 
F1 F1- 4 e 0.5602(14) 0.0790(7) 0.1322(10) 1. 0 
F2 F1- 4 e 0.4584(13) 0.2576(6) 0.2111(10) 1. 0 
F3 F1- 4 e 0.1876(16) 0.1234(8) 0.0036(11) 1. 0 
F4 F1- 4 e 0.2138(17) -.0209(7) 0.2140(13) 1. 0 
F5 F1- 4 e 0.4577(14) 0.1107(7) 0.4113(10) 1. 0 
F6 F1- 4 e 0.0457(14) 0.2425(6) 0.1938(9) 1. 0 
F7 F1- 4 e 0.0436(13) 0.1068(6) 0.3857(10) 1. 0 

loop_
_atom_site_aniso_label
_atom_site_aniso_type_symbol
_atom_site_aniso_U_11
_atom_site_aniso_U_22
_atom_site_aniso_U_33
_atom_site_aniso_U_12
_atom_site_aniso_U_13
_atom_site_aniso_U_23
K1 K1+ 0.024(2) 0.014(2) 0.018(2) 0.002(1) -.001(1) -.001(1)
K2 K1+ 0.018(2) 0.026(2) 0.014(1) -.001(1) -.002(1) -.006(1)
Ta1 Ta5+ 0.01 0.008 0.006 0 -.001 0.001
F1 F1- 0.024(5) 0.027(5) 0.026(5) 0.008(4) 0.009(4) 0.0(4)
F2 F1- 0.017(4) 0.015(4) 0.032(5) -.001(3) -.002(4) -.009(4)
F3 F1- 0.038(5) 0.055(7) 0.027(5) 0.029(5) -.012(4) -.008(5)
F4 F1- 0.047(6) 0.014(4) 0.056(7) -.005(4) 0.018(5) -.004(4)
F5 F1- 0.025(4) 0.032(5) 0.019(4) -.004(4) -.008(4) 0.009(4)
F6 F1- 0.020(4) 0.016(4) 0.019(4) 0.003(3) 0.004(3) -.001(3)
F7 F1- 0.015(4) 0.024(5) 0.022(4) -.003(3) 0.003(3) -.001(4)
#End of data_46005-ICSD


