data_41482-ICSD
#?2014 by Fachinformationszentrum Karlsruhe, and the U.S. Secretary of 
#Commerce on behalf of the United States.  All rights reserved.
_database_code_ICSD                41482
_audit_creation_date               2002/04/01
_chemical_name_systematic          'Aluminium Nitride'
_chemical_formula_structural       'Al N'
_chemical_formula_sum              'Al1 N1'
_publ_section_title
;
Electronic, optical, and structural properties of some wurtzite 
crystals
;
loop_
_citation_id
_citation_journal_abbrev
_citation_year
_citation_journal_volume
_citation_page_first
_citation_page_last
_citation_journal_id_ASTM
primary 'Physical Review, Serie 3. B - Condensed Matter (18,1978-)'
 1993 48 4335 4351 PRBMDO
2 'Applied Physics Letters' 1978 33 319 319 APPLAB
_publ_author_name                  'Xu, Y.-N.;Ching, W.Y.'
_cell_length_a                     3.11
_cell_length_b                     3.11
_cell_length_c                     4.98
_cell_angle_alpha                  90.
_cell_angle_beta                   90.
_cell_angle_gamma                  120.
_cell_volume                       41.71
_cell_formula_units_Z              2
_symmetry_space_group_name_H-M     'P 63 m c'
_symmetry_Int_Tables_number        186
loop_
_symmetry_equiv_pos_site_id
_symmetry_equiv_pos_as_xyz
  1	'-x, -x+y, z+.5'
  2	'x-y, -y, z+.5'
  3	'y, x, z+.5'
  4	'x-y, x, z+.5'
  5	'y, -x+y, z+.5'
  6	'-x, -y, z+.5'
  7	'x, x-y, z'
  8	'-x+y, y, z'
  9	'-y, -x, z'
 10	'-x+y, -x, z'
 11	'-y, x-y, z'
 12	'x, y, z'
loop_
_atom_type_symbol
_atom_type_oxidation_number
Al3+	3
N3-	-3
loop_
_atom_site_label
_atom_site_type_symbol
_atom_site_symmetry_multiplicity
_atom_site_Wyckoff_symbol
_atom_site_fract_x
_atom_site_fract_y
_atom_site_fract_z
_atom_site_occupancy
_atom_site_attached_hydrogens
Al1 Al3+ 2 b -.3333 -.6667 0 1. 0 
N1 N3- 2 b -.3333 -.6667 0.382 1. 0 

#End of data_41482-ICSD


