data_261232-ICSD
#?2014 by Fachinformationszentrum Karlsruhe, and the U.S. Secretary of 
#Commerce on behalf of the United States.  All rights reserved.
_database_code_ICSD                261232
_audit_creation_date               2011/02/01
_chemical_name_systematic
;
Cesium Aluminium Dizirconium Tetrakis(phosphate(V))
;
_chemical_formula_structural       'Cs Al Zr2 (P O4)4'
_chemical_formula_sum              'Al1 Cs1 O16 P4 Zr2'
_publ_section_title
;
Cs Al Zr2 (P O4)4: an anhydrous aluminium zirconium phosphate with a 
novel three-dimensional framework
;
loop_
_citation_id
_citation_journal_abbrev
_citation_year
_citation_journal_volume
_citation_journal_issue
_citation_page_first
_citation_page_last
_citation_journal_id_ASTM
primary 'Acta Crystallographica, Section C: Crystal Structure Communications'
 2011 67 1 i4 i6 ACSCEE
_publ_author_name
;
Zhao Dan;Li Feifei;Zhang Aiyun;Yang Lei;Zhu Rui
;
_cell_length_a                     8.742(2)
_cell_length_b                     9.403(3)
_cell_length_c                     17.979(3)
_cell_angle_alpha                  90.00
_cell_angle_beta                   90.00
_cell_angle_gamma                  90.00
_cell_volume                       1477.89
_cell_formula_units_Z              4
_symmetry_space_group_name_H-M     'P b c m'
_symmetry_Int_Tables_number        57
_refine_ls_R_factor_all            .0279
loop_
_symmetry_equiv_pos_site_id
_symmetry_equiv_pos_as_xyz
  1	'x, -y+.5, z+.5'
  2	'-x, y+.5, z'
  3	'x, y, -z+.5'
  4	'-x, -y, -z'
  5	'-x, y+.5, -z+.5'
  6	'x, -y+.5, -z'
  7	'-x, -y, z+.5'
  8	'x, y, z'
loop_
_atom_type_symbol
_atom_type_oxidation_number
Al3+	3
Cs1+	1
O2-	-2
P5+	5
Zr4+	4
loop_
_atom_site_label
_atom_site_type_symbol
_atom_site_symmetry_multiplicity
_atom_site_Wyckoff_symbol
_atom_site_fract_x
_atom_site_fract_y
_atom_site_fract_z
_atom_site_occupancy
_atom_site_attached_hydrogens
_atom_site_U_iso_or_equiv
Cs1 Cs1+ 4 d 0.34872(5) 0.75153(4) 0.7500 1 0 0.02454(12) 
Zr1 Zr4+ 8 e 0.24879(4) 0.46864(3) 0.928485(18) 1 0 0.00506(10) 
P1 P5+ 4 d 0.09892(14) 0.42270(13) 0.7500 1 0 0.0066(2) 
Al1 Al3+ 4 d 0.79989(17) 0.60136(15) 0.7500 1 0 0.0063(3) 
O1 O2- 4 d 0.1042(5) 0.2611(4) 0.7500 1 0 0.0169(8) 
P2 P5+ 4 c 0.03635(13) 0.7500 1.0000 1 0 0.0053(2) 
O2 O2- 4 d -0.0711(4) 0.4619(4) 0.7500 1 0 0.0171(8) 
P3 P5+ 8 e 0.60769(10) 0.62612(9) 0.89837(5) 1 0 0.00688(18) 
O3 O2- 8 e 0.1770(3) 0.4834(3) 0.81800(15) 1 0 0.0164(6) 
O4 O2- 8 e 0.0641(3) 0.3407(3) 0.94850(16) 1 0 0.0159(6) 
O5 O2- 8 e 0.1357(3) 0.6526(3) 0.95246(16) 1 0 0.0147(6) 
O6 O2- 8 e 0.4391(3) 0.5871(3) 0.89610(15) 1 0 0.0132(5) 
O7 O2- 8 e 0.6852(3) 0.5524(3) 0.96277(15) 1 0 0.0163(6) 
O8 O2- 8 e 0.6245(3) 0.7866(3) 0.90189(17) 1 0 0.0177(6) 
O9 O2- 8 e 0.6802(3) 0.5740(3) 0.82518(15) 1 0 0.0170(6) 

loop_
_atom_site_aniso_label
_atom_site_aniso_type_symbol
_atom_site_aniso_U_11
_atom_site_aniso_U_22
_atom_site_aniso_U_33
_atom_site_aniso_U_12
_atom_site_aniso_U_13
_atom_site_aniso_U_23
Cs1 Cs1+ 0.0319(2) 0.01503(19) 0.0267(2) 0.00488(14) 0.000 0.000
Zr1 Zr4+ 0.00625(17) 0.00477(17) 0.00416(17) -0.00025(10) -0.00008(11) 
0.00026(11)
P1 P5+ 0.0068(6) 0.0074(6) 0.0054(6) 0.0013(4) 0.000 0.000
Al1 Al3+ 0.0066(7) 0.0066(7) 0.0057(7) 0.0002(5) 0.000 0.000
O1 O2- 0.020(2) 0.0068(17) 0.024(2) 0.0052(15) 0.000 0.000
P2 P5+ 0.0055(5) 0.0032(5) 0.0071(6) 0.000 0.000 -0.0009(4)
O2 O2- 0.0092(18) 0.0111(18) 0.031(2) 0.0026(14) 0.000 0.000
P3 P5+ 0.0088(4) 0.0074(4) 0.0044(4) -0.0022(3) 0.0001(3) 0.0003(3)
O3 O2- 0.0211(14) 0.0217(15) 0.0064(12) -0.0059(11) -0.0046(11) 0.0001(11)
O4 O2- 0.0128(13) 0.0167(13) 0.0181(14) -0.0080(10) 0.0013(11) 0.0017(11)
O5 O2- 0.0172(14) 0.0106(13) 0.0163(13) 0.0055(10) -0.0004(11) -0.0030(10)
O6 O2- 0.0101(12) 0.0138(13) 0.0158(13) -0.0042(10) 0.0007(10) 0.0016(10)
O7 O2- 0.0179(14) 0.0214(14) 0.0097(13) 0.0009(11) -0.0044(11) 0.0024(11)
O8 O2- 0.0168(14) 0.0101(13) 0.0261(16) -0.0058(10) -0.0033(12) -0.0006(11)
O9 O2- 0.0225(14) 0.0201(14) 0.0085(12) -0.0031(11) 0.0073(11) -0.0043(11)
#End of data_261232-ICSD


