data_391095-ICSD
#?2014 by Fachinformationszentrum Karlsruhe, and the U.S. Secretary of 
#Commerce on behalf of the United States.  All rights reserved.
_database_code_ICSD                391095
_audit_creation_date               2003/10/01
_chemical_name_systematic
;
Copper Zinc Tellurate(IV) Dichloride
;
_chemical_formula_structural       'Cu Zn (Te O3) Cl2'
_chemical_formula_sum              'Cl2 Cu1 O3 Te1 Zn1'
_publ_section_title
;
Synthesis and crystal structure of the layered compound Cu Zn (Te O3) 
Cl2
;
loop_
_citation_id
_citation_journal_abbrev
_citation_year
_citation_journal_volume
_citation_page_first
_citation_page_last
_citation_journal_id_ASTM
primary 'Solid State Sciences' 2003 5 263 266 SSSCFJ
_publ_author_name                  'Johnsson, M.;Tornroos, K.W.'
_cell_length_a                     10.1897(8)
_cell_length_b                     15.5389(12)
_cell_length_c                     7.4512(6)
_cell_angle_alpha                  90.
_cell_angle_beta                   90.
_cell_angle_gamma                  90.
_cell_volume                       1179.8
_cell_formula_units_Z              8
_symmetry_space_group_name_H-M     'P c c n'
_symmetry_Int_Tables_number        56
_refine_ls_R_factor_all            .0135
loop_
_symmetry_equiv_pos_site_id
_symmetry_equiv_pos_as_xyz
  1	'x, -y+.5, z+.5'
  2	'-x+.5, y, z+.5'
  3	'x+.5, y+.5, -z'
  4	'-x, -y, -z'
  5	'-x, y+.5, -z+.5'
  6	'x+.5, -y, -z+.5'
  7	'-x+.5, -y+.5, z'
  8	'x, y, z'
loop_
_atom_type_symbol
_atom_type_oxidation_number
Cl1-	-1
Cu2+	2
O2-	-2
Te4+	4
Zn2+	2
loop_
_atom_site_label
_atom_site_type_symbol
_atom_site_symmetry_multiplicity
_atom_site_Wyckoff_symbol
_atom_site_fract_x
_atom_site_fract_y
_atom_site_fract_z
_atom_site_occupancy
_atom_site_attached_hydrogens
_atom_site_U_iso_or_equiv
Te1 Te4+ 8 e 0.015337(10) 0.406327(7) 0.201263(14) 1. 0 0.00747(3) 
Cu1 Cu2+ 8 e 0.263447(19) 0.453867(14) 0.38591(3) 1. 0 0.00891(5) 
Zn1 Zn2+ 8 e 0.007631(19) 0.617128(14) 0.34410(3) 1. 0 0.00947(5) 
Cl1 Cl1- 8 e -.07850(5) 0.71710(3) 0.16555(6) 1. 0 0.01713(9) 
Cl2 Cl1- 8 e 0.21008(4) 0.62301(3) 0.45916(6) 1. 0 0.01459(8) 
O1 O2- 8 e 0.08325(11) 0.41803(8) 0.43527(15) 1. 0 0.0093(2) 
O2 O2- 8 e 0.18774(11) 0.43993(8) 0.13637(15) 1. 0 0.0097(2) 
O3 O2- 8 e -.05692(12) 0.51914(8) 0.18850(15) 1. 0 0.0095(2) 

loop_
_atom_site_aniso_label
_atom_site_aniso_type_symbol
_atom_site_aniso_U_11
_atom_site_aniso_U_22
_atom_site_aniso_U_33
_atom_site_aniso_U_12
_atom_site_aniso_U_13
_atom_site_aniso_U_23
Te1 Te4+ 0.00670(5) 0.00847(6) 0.00723(5) -0.00013(3) -0.00071(3) 
-0.00072(3)
Cu1 Cu2+ 0.00631(9) 0.01434(10) 0.00607(9) -0.00153(7) -0.00024(7) 
0.00085(7)
Zn1 Zn2+ 0.00984(9) 0.01086(10) 0.00772(9) -0.00079(7) 0.00005(6) 
0.00067(7)
Cl1 Cl1- 0.0264(2) 0.01131(19) 0.01369(19) 0.00127(17) -0.00542(16) 
0.00138(15)
Cl2 Cl1- 0.00911(17) 0.0145(2) 0.0202(2) -0.00081(15) -0.00188(15) 
-0.00046(16)
O1 O2- 0.0080(5) 0.0139(6) 0.0060(5) -0.0017(4) -0.0006(4) 0.0004(4)
O2 O2- 0.0066(5) 0.0159(6) 0.0068(5) -0.0005(4) 0.0009(4) 0.0002(4)
O3 O2- 0.0076(5) 0.0108(6) 0.0101(5) 0.0011(4) -0.0013(4) -0.0014(4)
#End of data_391095-ICSD


