data_260238-ICSD
#?2014 by Fachinformationszentrum Karlsruhe, and the U.S. Secretary of 
#Commerce on behalf of the United States.  All rights reserved.
_database_code_ICSD                260238
_audit_creation_date               2009/08/01
_chemical_name_systematic
;
Calcium(II) Tellurium(IV) Oxide (1/1/3) - Idealised
;
_chemical_formula_structural       'Ca (Te O3)'
_chemical_formula_sum              'Ca1 O3 Te1'
_publ_section_title
;
Polymorphism of Ca Te O3 and solid solutions Ca(x) Sr(1-x) Te O3
;
loop_
_citation_id
_citation_journal_abbrev
_citation_year
_citation_journal_volume
_citation_journal_issue
_citation_page_first
_citation_page_last
_citation_journal_id_ASTM
primary 'Acta Crystallographica, Section B: Structural Science'
 2009 65 2 167 181 ASBSDK
_publ_author_name
;
Stoeger, B.;Weil, M.;Zobetz, E.;Giester, G.
;
_cell_length_a                     8.5689(17)
_cell_length_b                     5.7805(11)
_cell_length_c                     11.553(2)
_cell_angle_alpha                  90.00
_cell_angle_beta                   109.975(3)
_cell_angle_gamma                  90.00
_cell_volume                       537.82
_cell_formula_units_Z              6
_symmetry_space_group_name_H-M     'P 1 21 1'
_symmetry_Int_Tables_number        4
loop_
_symmetry_equiv_pos_site_id
_symmetry_equiv_pos_as_xyz
  1	'-x, y+.5, -z'
  2	'x, y, z'
loop_
_atom_type_symbol
_atom_type_oxidation_number
Ca2+	2
O2-	-2
Te4+	4
loop_
_atom_site_label
_atom_site_type_symbol
_atom_site_symmetry_multiplicity
_atom_site_Wyckoff_symbol
_atom_site_fract_x
_atom_site_fract_y
_atom_site_fract_z
_atom_site_occupancy
_atom_site_attached_hydrogens
Te1 Te4+ 2 a 0.6645 0.2500 0.2472 1 0 
Te2 Te4+ 2 a 0.3123 0.2500 0.4736 1 0 
Ca1 Ca2+ 2 a 0.0155 0.2500 0.6140 1 0 
O1 O2- 2 a 0.2561 0.2500 0.3062 1 0 
O2 O2- 2 a 0.1818 0.4801 0.5018 1 0 
O3 O2- 2 a 0.1818 0.0199 0.5018 1 0 
Te3 Te4+ 2 a 0.7456 0.1876 0.8315 1 0 
Ca2 Ca2+ 2 a 0.0059 0.1847 0.1387 1 0 
Ca3 Ca2+ 2 a 0.7004 0.6945 0.0549 1 0 
O4 O2- 2 a 0.8401 0.4375 0.2482 1 0 
O5 O2- 2 a 0.7594 0.9805 0.2081 1 0 
O6 O2- 2 a 0.5333 0.3523 0.0918 1 0 
O7 O2- 2 a 0.7891 0.4256 0.9462 1 0 
O8 O2- 2 a 0.8372 0.9575 0.9482 1 0 
O9 O2- 2 a 0.9317 0.2599 0.7907 1 0 

#End of data_260238-ICSD


