data_10229-ICSD
#?2014 by Fachinformationszentrum Karlsruhe, and the U.S. Secretary of 
#Commerce on behalf of the United States.  All rights reserved.
_database_code_ICSD                10229
_audit_creation_date               1980/01/01
_audit_update_record               1999/06/02
_chemical_name_systematic          'Calcium Iron Catena-silicate'
_chemical_formula_structural       'Ca Fe Si2 O6'
_chemical_formula_sum              'Ca1 Fe1 O6 Si2'
_chemical_name_mineral             Hedenbergite
_publ_section_title
;
High-temperature crystal chemistry of acmite, diposide, hedenbergite, 
jadeite, spodumene, and ureyite
;
loop_
_citation_id
_citation_journal_abbrev
_citation_year
_citation_journal_volume
_citation_page_first
_citation_page_last
_citation_journal_id_ASTM
primary 'American Mineralogist' 1973 58 594 618 AMMIAY
_publ_author_name
;
Cameron, M.;Sueno, S.;Prewitt, C.T.;Papike, J.J.
;
_cell_length_a                     9.897(1)
_cell_length_b                     9.138(1)
_cell_length_c                     5.269(1)
_cell_angle_alpha                  90.
_cell_angle_beta                   105.17(1)
_cell_angle_gamma                  90.
_cell_volume                       459.92
_cell_formula_units_Z              4
_symmetry_space_group_name_H-M     'C 1 2/c 1'
_symmetry_Int_Tables_number        15
_refine_ls_R_factor_all            .078
loop_
_symmetry_equiv_pos_site_id
_symmetry_equiv_pos_as_xyz
  1	'x, -y, z+.5'
  2	'-x, -y, -z'
  3	'-x, y, -z+.5'
  4	'x, y, z'
  5	'x+.5, -y+.5, z+.5'
  6	'-x+.5, -y+.5, -z'
  7	'-x+.5, y+.5, -z+.5'
  8	'x+.5, y+.5, z'
loop_
_atom_type_symbol
_atom_type_oxidation_number
Ca2+	2
Fe2+	2
O2-	-2
Si4+	4
loop_
_atom_site_label
_atom_site_type_symbol
_atom_site_symmetry_multiplicity
_atom_site_Wyckoff_symbol
_atom_site_fract_x
_atom_site_fract_y
_atom_site_fract_z
_atom_site_occupancy
_atom_site_attached_hydrogens
_atom_site_B_iso_or_equiv
O1 O2- 8 f 0.1195(2) 0.0892(2) 0.1517(4) 1. 0 1.69(3) 
O2 O2- 8 f 0.3618(3) 0.2436(2) 0.3193(5) 1. 0 2.30(4) 
O3 O2- 8 f 0.3490(2) 0.0164(3) 0.9976(4) 1. 0 1.86(3) 
Si1 Si4+ 8 f 0.2872(1) 0.0916(1) 0.2324(1) 1. 0 1.17(1) 
Fe1 Fe2+ 4 e 0 0.9054(1) 0.25 1. 0 1.54(1) 
Ca1 Ca2+ 4 e 0 0.2989(1) 0.25 1. 0 2.31(2) 

#End of data_10229-ICSD


