data_69168-ICSD
#?2014 by Fachinformationszentrum Karlsruhe, and the U.S. Secretary of 
#Commerce on behalf of the United States.  All rights reserved.
_database_code_ICSD                69168
_audit_creation_date               1992/01/20
_audit_update_record               2012/08/01
_chemical_name_systematic          'Calcium Tetrazirconium Oxide'
_chemical_formula_structural       'Ca Zr4 O9'
_chemical_formula_sum              'Ca1 O9 Zr4'
_publ_section_title
;
The structure of the phi1-phase Ca Zr4 O9 in calcium stabilized 
zirconia
;
loop_
_citation_id
_citation_journal_abbrev
_citation_year
_citation_journal_volume
_citation_page_first
_citation_page_last
_citation_journal_id_ASTM
primary 'Materials Research Bulletin' 1990 25 435 442 MRBUAC
_publ_author_name
;
Marxreiter, H.;Boysen, H.;Frey, F.;Schulz, H.
;
_cell_length_a                     17.79(8)
_cell_length_b                     14.52(6)
_cell_length_c                     12.00(6)
_cell_angle_alpha                  90.
_cell_angle_beta                   119.47(2)
_cell_angle_gamma                  90.
_cell_volume                       2698.67
_cell_formula_units_Z              16
_symmetry_space_group_name_H-M     'C 1 2/c 1'
_symmetry_Int_Tables_number        15
_refine_ls_R_factor_all            .022
loop_
_symmetry_equiv_pos_site_id
_symmetry_equiv_pos_as_xyz
  1	'x, -y, z+.5'
  2	'-x, -y, -z'
  3	'-x, y, -z+.5'
  4	'x, y, z'
  5	'x+.5, -y+.5, z+.5'
  6	'-x+.5, -y+.5, -z'
  7	'-x+.5, y+.5, -z+.5'
  8	'x+.5, y+.5, z'
loop_
_atom_type_symbol
_atom_type_oxidation_number
Ca2+	2
O2-	-2
Zr4+	4
loop_
_atom_site_label
_atom_site_type_symbol
_atom_site_symmetry_multiplicity
_atom_site_Wyckoff_symbol
_atom_site_fract_x
_atom_site_fract_y
_atom_site_fract_z
_atom_site_occupancy
_atom_site_attached_hydrogens
_atom_site_B_iso_or_equiv
Zr1 Zr4+ 4 e 0 0.185(3) 0.25 1. 0 0.2(2) 
Zr2 Zr4+ 4 e 0.5 0.193(2) 0.25 1. 0 6.(3) 
Zr3 Zr4+ 8 f 0.408(5) 0.184(5) 0.461(5) 1. 0 3.4(3) 
Zr4 Zr4+ 8 f 0.890(4) 0.184(2) 0.435(2) 1. 0 5.50(11) 
Zr5 Zr4+ 8 f 0.798(5) 0.165(3) 0.655(4) 1. 0 2.6(6) 
Zr6 Zr4+ 8 f 0.590(4) 0.069(4) 0.561(3) 1. 0 5.(1) 
Zr7 Zr4+ 8 f 0.113(6) 0.041(2) 0.586(4) 1. 0 7.(2) 
Zr8 Zr4+ 8 f 0.691(6) 0.071(5) 0.357(2) 1. 0 0.8(3) 
Zr9 Zr4+ 8 f 0.194(3) 0.067(5) 0.339(4) 1. 0 2.7(6) 
Ca1 Ca2+ 4 e 0 0.055(2) 0.75 1. 0 1.3(5) 
Ca2 Ca2+ 4 e 0.5 0.061(2) 0.75 1. 0 2.8(6) 
Ca3 Ca2+ 8 f 0.308(4) 0.191(5) 0.680(4) 1. 0 1.4(5) 
O1 O2- 8 f 0.124(3) 0.163(4) 0.253(4) 1. 0 2.6(7) 
O2 O2- 8 f 0.623(4) 0.195(3) 0.252(3) 1. 0 2.(2) 
O3 O2- 8 f 0.513(3) 0.174(4) 0.443(1) 1. 0 7.(2) 
O4 O2- 8 f 0.276(1) 0.182(2) 0.351(3) 1. 0 0.1(2) 
O5 O2- 8 f 0.781(6) 0.175(6) 0.477(1) 1. 0 3.4(8) 
O6 O2- 8 f 0.905(2) 0.177(3) 0.628(5) 1. 0 4.2(9) 
O7 O2- 8 f 0.690(3) 0.189(1) 0.650(6) 1. 0 0.8(3) 
O8 O2- 8 f 0.688(4) 0.062(2) 0.507(2) 1. 0 8.(3) 
O9 O2- 8 f 0.469(3) 0.050(3) 0.562(4) 1. 0 6.(2) 
O10 O2- 8 f 0.217(5) 0.071(2) 0.547(4) 1. 0 1.0(5) 
O11 O2- 8 f 0.983(5) 0.066(2) 0.548(2) 1. 0 2.1(6) 
O12 O2- 8 f 0.751(6) 0.113(4) 0.280(5) 1. 0 10.(3) 
O13 O2- 8 f 0.596(2) 0.072(1) 0.357(2) 1. 0 1.1(6) 
O14 O2- 8 f 0.083(4) 0.089(4) 0.402(3) 1. 0 4.7(9) 
O15 O2- 8 f 0.123(3) 0.067(3) 0.746(4) 1. 0 2.4(6) 
O16 O2- 8 f 0.624(4) 0.065(3) 0.747(4) 1. 0 1.8(5) 
O17 O2- 8 f 0.409(2) 0.197(2) 0.606(1) 1. 0 18.(6) 
O18 O2- 8 f 0.122(4) 0.200(3) 0.602(4) 1. 0 2.1(6) 

#End of data_69168-ICSD


