data_99697-ICSD
#?2014 by Fachinformationszentrum Karlsruhe, and the U.S. Secretary of 
#Commerce on behalf of the United States.  All rights reserved.
_database_code_ICSD                99697
_audit_creation_date               2005/04/01
_chemical_name_systematic          'Dicalcium Hexaoxoindioniobate'
_chemical_formula_structural       'Ca2 (In Nb O6)'
_chemical_formula_sum              'Ca2 In1 Nb1 O6'
_publ_section_title
;
An electron diffraction and bond valence sum study of the space group 
symmetries and structures of the photocatalytic 1:1 ordered A2 In Nb 
O6 double perovskites (A = Ca(2+), Sr(2+), Ba(2+))
;
loop_
_citation_id
_citation_journal_abbrev
_citation_year
_citation_journal_volume
_citation_page_first
_citation_page_last
_citation_journal_id_ASTM
primary 'Journal of Solid State Chemistry' 2004 177 979 986 JSSCBI
_publ_author_name
;
Ting, V.;Liu, Y.;Withers, R.L.;Krausz, E.
;
_cell_length_a                     5.5284
_cell_length_b                     5.7109
_cell_length_c                     7.9290
_cell_angle_alpha                  90
_cell_angle_beta                   90(0)
_cell_angle_gamma                  90
_cell_volume                       250.34
_cell_formula_units_Z              2
_symmetry_space_group_name_H-M     'P 1 21/n 1'
_symmetry_Int_Tables_number        14
loop_
_symmetry_equiv_pos_site_id
_symmetry_equiv_pos_as_xyz
  1	'-x+.5, y+.5, -z+.5'
  2	'-x, -y, -z'
  3	'x+.5, -y+.5, z+.5'
  4	'x, y, z'
loop_
_atom_type_symbol
_atom_type_oxidation_number
Ca2+	2
In3+	3
Nb5+	5
O2-	-2
loop_
_atom_site_label
_atom_site_type_symbol
_atom_site_symmetry_multiplicity
_atom_site_Wyckoff_symbol
_atom_site_fract_x
_atom_site_fract_y
_atom_site_fract_z
_atom_site_occupancy
_atom_site_attached_hydrogens
Ca1 Ca2+ 4 e 0.5 0 0.250 1. 0 
In1 In3+ 2 a 0 0 0 1. 0 
Nb1 Nb5+ 2 b 0 0 0.5 1. 0 
O1 O2- 4 e 0.3133 0.7907 0.9480 1. 0 
O2 O2- 4 e 0.2093 0.3133 0.9480 1. 0 
O3 O2- 4 e 0.1040 0 0.2613 1. 0 

#End of data_99697-ICSD


