data_9170-ICSD
#?2014 by Fachinformationszentrum Karlsruhe, and the U.S. Secretary of 
#Commerce on behalf of the United States.  All rights reserved.
_database_code_ICSD                9170
_audit_creation_date               1980/01/01
_audit_update_record               1988/03/29
_chemical_name_systematic
;
Calcium Dihydrogenphosphate Hydrate
;
_chemical_formula_structural       'Ca (H2 P O4)2 (H2 O)'
_chemical_formula_sum              'H6 Ca1 O9 P2'
_publ_section_title
;
Refinement of the Crystal Structure of Ca (H2 P O4)2 (H2 O)
;
loop_
_citation_id
_citation_journal_abbrev
_citation_year
_citation_journal_volume
_citation_page_first
_citation_page_last
_citation_journal_id_ASTM
primary 'Acta Crystallographica B (24,1968-38,1982)' 1971 27 2247 2255 ACBCAR
_publ_author_name                  'Dickens, B.;Bowen, J.S.'
_cell_length_a                     5.6261(5)
_cell_length_b                     11.889(2)
_cell_length_c                     6.4731(8)
_cell_angle_alpha                  98.633(6)
_cell_angle_beta                   118.262(6)
_cell_angle_gamma                  83.344(6)
_cell_volume                       376.54
_cell_formula_units_Z              2
_symmetry_space_group_name_H-M     'P -1'
_symmetry_Int_Tables_number        2
_refine_ls_R_factor_all            .069
loop_
_symmetry_equiv_pos_site_id
_symmetry_equiv_pos_as_xyz
  1	'-x, -y, -z'
  2	'x, y, z'
loop_
_atom_type_symbol
_atom_type_oxidation_number
Ca2+	2
H1+	1
O2-	-2
P5+	5
loop_
_atom_site_label
_atom_site_type_symbol
_atom_site_symmetry_multiplicity
_atom_site_Wyckoff_symbol
_atom_site_fract_x
_atom_site_fract_y
_atom_site_fract_z
_atom_site_occupancy
_atom_site_attached_hydrogens
_atom_site_B_iso_or_equiv
Ca1 Ca2+ 2 i 0.73260(9) 0.10247(4) 0.77263(8) 1. 0 0 
P1 P5+ 2 i 0.7463(1) 0.09747(5) 0.2771(1) 1. 0 0 
P2 P5+ 2 i 0.3483(1) 0.37290(5) 0.6128(1) 1. 0 0 
O1 O2- 2 i 0.5810(3) 0.0332(1) 0.3406(3) 1. 0 0 
O2 O2- 2 i 0.9168(3) 0.0338(1) 0.1730(3) 1. 0 0 
O3 O2- 2 i 0.9207(3) 0.1719(1) 0.5143(3) 1. 0 0 
O4 O2- 2 i 0.5661(3) 0.1808(2) 0.0864(2) 1. 0 0 
O5 O2- 2 i 0.3804(3) 0.2451(1) 0.6034(3) 1. 0 0 
O6 O2- 2 i 0.1903(4) 0.4121(2) 0.7587(4) 1. 0 0 
O7 O2- 2 i 0.6345(4) 0.4207(2) 0.7581(4) 1. 0 0 
O8 O2- 2 i 0.1984(3) 0.4191(1) 0.3761(3) 1. 0 0 
O9 O2- 2 i 0.0624(4) 0.2541(1) -.0025(3) 1. 0 0 
H1 H1+ 2 i 1.078 0.191 0.552 1. 0 1. 
H2 H1+ 2 i 0.442 0.2 0.081 1. 0 1. 
H3 H1+ 2 i 0.097 0.474 0.726 1. 0 1. 
H4 H1+ 2 i 0.65 0.472 0.718 1. 0 1. 
H5 H1+ 2 i 0.078 0.294 0.126 1. 0 1. 
H6 H1+ 2 i 0.026 0.299 0.923 1. 0 1. 

loop_
_atom_site_aniso_label
_atom_site_aniso_type_symbol
_atom_site_aniso_B_11
_atom_site_aniso_B_22
_atom_site_aniso_B_33
_atom_site_aniso_B_12
_atom_site_aniso_B_13
_atom_site_aniso_B_23
Ca1 Ca2+ 0.85(1) 0.96(1) 0.90(2) -.01(1) 0.50(1) 0.12(1)
P1 P5+ 0.85(2) 1.06(2) 0.84(2) -.02(1) 0.52(1) 0.15(2)
P2 P5+ 1.14(2) 0.93(2) 1.26(2) -.04(1) 0.57(2) 0.25(2)
O1 O2- 1.17(6) 1.27(6) 1.19(6) -.39(4) 0.70(5) 0.13(5)
O2 O2- 1.21(6) 1.46(6) 1.19(6) 0.37(5) 0.88(5) 0.24(5)
O3 O2- 1.26(6) 1.80(7) 1.37(7) -.66(5) 0.82(6) -.43(5)
O4 O2- 1.30(7) 1.98(7) 1.78(8) 0.70(5) 0.95(6) -1.06(6)
O5 O2- 1.24(6) 0.89(5) 1.86(7) 0.05(4) 0.78(6) 0.28(5)
O6 O2- 3.02(9) 1.98(7) 2.41(8) 1.06(7) 2.02(8) 0.81(6)
O7 O2- 1.78(8) 2.24(8) 2.49(9) -.77(6) 0.13(7) 1.07(7)
O8 O2- 1.49(7) 1.38(6) 1.56(7) 0.05(5) 0.62(6) 0.58(5)
O9 O2- 1.75(7) 1.20(6) 1.34(7) -.07(5) 0.67(6) 0.09(5)
#End of data_9170-ICSD


