data_36097-ICSD
#?2014 by Fachinformationszentrum Karlsruhe, and the U.S. Secretary of 
#Commerce on behalf of the United States.  All rights reserved.
_database_code_ICSD                36097
_audit_creation_date               1980/01/01
_audit_update_record               1988/01/19
_chemical_name_systematic          'Dipotassium Dititanium Oxide'
_chemical_formula_structural       'K2 Ti2 O5'
_chemical_formula_sum              'K2 O5 Ti2'
_publ_section_title                'The crystal structure of K2 Ti2 O5'
loop_
_citation_id
_citation_journal_abbrev
_citation_year
_citation_journal_volume
_citation_page_first
_citation_page_last
_citation_journal_id_ASTM
primary 'Acta Chemica Scandinavica (1-27,1973-42,1988)' 1961 15 663 669 ACSAA4
_publ_author_name                  'Andersson, S.;Wadsley, A.D.'
_cell_length_a                     11.37
_cell_length_b                     3.8
_cell_length_c                     6.62
_cell_angle_alpha                  90.
_cell_angle_beta                   100.1
_cell_angle_gamma                  90.
_cell_volume                       281.59
_cell_formula_units_Z              2
_symmetry_space_group_name_H-M     'C 1 2/m 1'
_symmetry_Int_Tables_number        12
_refine_ls_R_factor_all            .134
loop_
_symmetry_equiv_pos_site_id
_symmetry_equiv_pos_as_xyz
  1	'-x, y, -z'
  2	'-x, -y, -z'
  3	'x, -y, z'
  4	'x, y, z'
  5	'-x+.5, y+.5, -z'
  6	'-x+.5, -y+.5, -z'
  7	'x+.5, -y+.5, z'
  8	'x+.5, y+.5, z'
loop_
_atom_type_symbol
_atom_type_oxidation_number
K1+	1
O2-	-2
Ti4+	4
loop_
_atom_site_label
_atom_site_type_symbol
_atom_site_symmetry_multiplicity
_atom_site_Wyckoff_symbol
_atom_site_fract_x
_atom_site_fract_y
_atom_site_fract_z
_atom_site_occupancy
_atom_site_attached_hydrogens
Ti1 Ti4+ 4 i 0.1495(8) 0 0.9072(17) 1. 0 
K1 K1+ 4 i 0.4022(10) 0 0.6439(21) 1. 0 
O1 O2- 2 a 0 0 0 1. 0 
O2 O2- 4 i 0.128(3) 0 0.664(6) 1. 0 
O3 O2- 4 i 0.325(3) 0 0.008(7) 1. 0 

#End of data_36097-ICSD


