data_72313-ICSD
#?2014 by Fachinformationszentrum Karlsruhe, and the U.S. Secretary of 
#Commerce on behalf of the United States.  All rights reserved.
_database_code_ICSD                72313
_audit_creation_date               1994/01/19
_chemical_name_systematic          'Potassium Hexahydroxoscandate(III)'
_chemical_formula_structural       'K3 (Sc (O H)6)'
_chemical_formula_sum              'H6 K3 O6 Sc1'
_publ_section_title
;
Strukturchemische Verwandtschaft von 
Kaliumhexahydroxoscandat(III),K3(Sc(OH)6) mit den isotypen 
Hydroxometallaten Rb3(Sc(OH)6), K3(Cr(OH)6) und Rb3(Cr(OH)6)
;
loop_
_citation_id
_citation_journal_abbrev
_citation_year
_citation_journal_volume
_citation_page_first
_citation_page_last
_citation_journal_id_ASTM
primary 'Zeitschrift fuer Anorganische und Allgemeine Chemie (1950) (DE)'
 1992 616 71 78 ZAACAB
_publ_author_name                  'Hennig, T.J.;Jacobs, H.'
_cell_length_a                     9.927(2)
_cell_length_b                     11.297(2)
_cell_length_c                     6.931(2)
_cell_angle_alpha                  90.
_cell_angle_beta                   99.95(1)
_cell_angle_gamma                  90.
_cell_volume                       765.59
_cell_formula_units_Z              4
_symmetry_space_group_name_H-M     'C 1 2/c 1'
_symmetry_Int_Tables_number        15
_refine_ls_R_factor_all            .032
loop_
_symmetry_equiv_pos_site_id
_symmetry_equiv_pos_as_xyz
  1	'x, -y, z+.5'
  2	'-x, -y, -z'
  3	'-x, y, -z+.5'
  4	'x, y, z'
  5	'x+.5, -y+.5, z+.5'
  6	'-x+.5, -y+.5, -z'
  7	'-x+.5, y+.5, -z+.5'
  8	'x+.5, y+.5, z'
loop_
_atom_type_symbol
_atom_type_oxidation_number
H1+	1
K1+	1
O2-	-2
Sc3+	3
loop_
_atom_site_label
_atom_site_type_symbol
_atom_site_symmetry_multiplicity
_atom_site_Wyckoff_symbol
_atom_site_fract_x
_atom_site_fract_y
_atom_site_fract_z
_atom_site_occupancy
_atom_site_attached_hydrogens
_atom_site_U_iso_or_equiv
Sc1 Sc3+ 4 d 0.25 0.75 0 1. 0 0 
K1 K1+ 4 e 0.5 0.1313(2) 0.25 1. 0 0 
K2 K1+ 8 f 0.3207(1) 0.4549(1) 0.1428(2) 1. 0 0 
O1 O2- 8 f 0.1374(4) 0.4067(3) 0.4130(5) 1. 0 0 
O2 O2- 8 f 0.2311(4) 0.1952(4) 0.2040(6) 1. 0 0 
O3 O2- 8 f 0.4319(4) 0.3439(4) 0.4777(6) 1. 0 0 
H1 H1+ 8 f 0.009(7) 0.164(7) 0.43(1) 1. 0 0.024(11) 
H2 H1+ 8 f 0.187(7) 0.230(7) 0.131(9) 1. 0 0.024(11) 
H3 H1+ 8 f 0.078(7) 0.396(7) 0.34(1) 1. 0 0.024(11) 

loop_
_atom_site_aniso_label
_atom_site_aniso_type_symbol
_atom_site_aniso_U_11
_atom_site_aniso_U_22
_atom_site_aniso_U_33
_atom_site_aniso_U_12
_atom_site_aniso_U_13
_atom_site_aniso_U_23
Sc1 Sc3+ 0.0161(5) 0.0146(5) 0.0201(5) 0.0009(6) 0.0064(4) -.0009(6)
K1 K1+ 0.0260(7) 0.037(1) 0.066(1) 0 0.0208(7) 0
K2 K1+ 0.0403(6) 0.0271(5) 0.0262(5) 0.0035(6) 0.0110(4) 0.0040(5)
O1 O2- 0.025(2) 0.024(2) 0.030(2) 0.005(2) 0.003(1) 0.004(2)
O2 O2- 0.034(2) 0.039(2) 0.027(2) 0.006(2) 0.002(2) -.006(2)
O3 O2- 0.020(2) 0.031(2) 0.038(2) -.007(2) 0.006(1) 0.004(2)
#End of data_72313-ICSD


