data_31021-ICSD
#?2014 by Fachinformationszentrum Karlsruhe, and the U.S. Secretary of 
#Commerce on behalf of the United States.  All rights reserved.
_database_code_ICSD                31021
_audit_creation_date               1980/01/01
_chemical_name_systematic          'Potassium Silver Carbonate'
_chemical_formula_structural       'K Ag C O3'
_chemical_formula_sum              'C1 Ag1 K1 O3'
_publ_section_title
;
A Reinvestigation of the Crystal Structure of Potassium Silver 
Carbonate
;
loop_
_citation_id
_citation_journal_abbrev
_citation_year
_citation_journal_volume
_citation_page_first
_citation_page_last
_citation_journal_id_ASTM
primary 'Journal of the Chemical Society' 1963 1963 2807 2812 JCSOA9
2 'Journal of the American Chemical Society' 1944 66 295 298 JACSAT
_publ_author_name                  'Barclay, G.A.;Hoskins, B.F.'
_cell_length_a                     20.5(2)
_cell_length_b                     5.82(6)
_cell_length_c                     6.00(6)
_cell_angle_alpha                  90.
_cell_angle_beta                   90.
_cell_angle_gamma                  90.
_cell_volume                       715.86
_cell_formula_units_Z              8
_symmetry_space_group_name_H-M     'I b c a'
_symmetry_Int_Tables_number        73
_refine_ls_R_factor_all            .18
loop_
_symmetry_equiv_pos_site_id
_symmetry_equiv_pos_as_xyz
  1	'x, y+.5, -z'
  2	'x+.5, -y, z'
  3	'-x, y, z+.5'
  4	'-x, -y, -z'
  5	'-x, -y+.5, z'
  6	'-x+.5, y, -z'
  7	'x, -y, -z+.5'
  8	'x, y, z'
  9	'x+.5, y, -z+.5'
 10	'x, -y+.5, z+.5'
 11	'-x+.5, y+.5, z'
 12	'-x+.5, -y+.5, -z+.5'
 13	'-x+.5, -y, z+.5'
 14	'-x, y+.5, -z+.5'
 15	'x+.5, -y+.5, -z'
 16	'x+.5, y+.5, z+.5'
loop_
_atom_type_symbol
_atom_type_oxidation_number
Ag1+	1
C4+	4
K1+	1
O2-	-2
loop_
_atom_site_label
_atom_site_type_symbol
_atom_site_symmetry_multiplicity
_atom_site_Wyckoff_symbol
_atom_site_fract_x
_atom_site_fract_y
_atom_site_fract_z
_atom_site_occupancy
_atom_site_attached_hydrogens
_atom_site_B_iso_or_equiv
K1 K1+ 8 c -.1815 0 0.25 1. 0 1.5 
Ag1 Ag1+ 8 e 0 0.25 0.1369 1. 0 1.8 
C1 C4+ 8 c 0.1282 0 0.25 1. 0 2.6 
O1 O2- 8 c 0.1888 0 0.25 1. 0 2.5 
O2 O2- 16 f 0.0962 0.1346 0.1074 1. 0 2.5 

#End of data_31021-ICSD


