data_404761-ICSD
#?2014 by Fachinformationszentrum Karlsruhe, and the U.S. Secretary of 
#Commerce on behalf of the United States.  All rights reserved.
_database_code_ICSD                404761
_audit_creation_date               1997/11/10
_chemical_name_systematic          'Disodium Zincate'
_chemical_formula_structural       'Na2 (Zn O2)'
_chemical_formula_sum              'Na2 O2 Zn1'
_publ_section_title                'Na2 Zn O2, ein neues Natriumzinkat'
loop_
_citation_id
_citation_journal_abbrev
_citation_year
_citation_journal_volume
_citation_page_first
_citation_page_last
_citation_journal_id_ASTM
primary 'Zeitschrift fuer Naturforschung, B: Chemical Sciences'
 1996 51 711 714 ZNBSEN
_publ_author_name                  'Trinschek, D.;Jansen, M.'
_cell_length_a                     7.7352(2)
_cell_length_b                     5.9782(2)
_cell_length_c                     5.7248(2)
_cell_angle_alpha                  90.
_cell_angle_beta                   94.934(3)
_cell_angle_gamma                  90.
_cell_volume                       263.75
_cell_formula_units_Z              4
_symmetry_space_group_name_H-M     'P 1 21/c 1'
_symmetry_Int_Tables_number        14
_refine_ls_R_factor_all            .1335
loop_
_symmetry_equiv_pos_site_id
_symmetry_equiv_pos_as_xyz
  1	'x, -y+.5, z+.5'
  2	'-x, -y, -z'
  3	'-x, y+.5, -z+.5'
  4	'x, y, z'
loop_
_atom_type_symbol
_atom_type_oxidation_number
Na1+	1
O2-	-2
Zn2+	2
loop_
_atom_site_label
_atom_site_type_symbol
_atom_site_symmetry_multiplicity
_atom_site_Wyckoff_symbol
_atom_site_fract_x
_atom_site_fract_y
_atom_site_fract_z
_atom_site_occupancy
_atom_site_attached_hydrogens
Zn1 Zn2+ 4 e 0.36721(10) 0.10588(14) 0.35445(13) 1. 0 
Na1 Na1+ 4 e 0.6775(5) 0.1448(6) 0.0706(6) 1. 0 
Na2 Na1+ 4 e 0.0274(5) 0.2583(6) 0.0087(6) 1. 0 
O1 O2- 4 e 0.5634(7) 0.6231(9) 0.8004(8) 1. 0 
O2 O2- 4 e 0.1492(7) 0.534(1) 0.7515(9) 1. 0 

loop_
_atom_site_aniso_label
_atom_site_aniso_type_symbol
_atom_site_aniso_U_11
_atom_site_aniso_U_22
_atom_site_aniso_U_33
_atom_site_aniso_U_12
_atom_site_aniso_U_13
_atom_site_aniso_U_23
Zn1 Zn2+ 0.0114(3) 0.0086(3) 0.0071(3) -.0006(3) 0.0006(2) 0.0002(2)
Na1 Na1+ 0.0191(14) 0.0146(14) 0.0141(13) -.0005(11) 0.0063(11) -.0013(11)
Na2 Na1+ 0.0177(14) 0.0163(14) 0.0102(11) 0.0006(11) 0.0021(10) -.0001(10)
O1 O2- 0.016(2) 0.012(2) 0.0053(15) -.004(2) 0.0029(14) 0.0033(14)
O2 O2- 0.011(2) 0.013(2) 0.011(2) 0.000(2) 0.0008(14) -.001(2)
#End of data_404761-ICSD


