data_411141-ICSD
#?2014 by Fachinformationszentrum Karlsruhe, and the U.S. Secretary of 
#Commerce on behalf of the United States.  All rights reserved.
_database_code_ICSD                411141
_audit_creation_date               2002/04/01
_audit_update_record               2013/02/01
_chemical_name_systematic
;
Decastrontium Hexasamarium 
Heptaoxotetrapentacontanitrohexaalumotriacontasilicate
;
_chemical_formula_structural       'Sr10 Sm6 (Si30 Al6 O7 N54)'
_chemical_formula_sum              'Al6 N54 O7 Si30 Sm6 Sr10'
_publ_section_title
;
High-temperature synthesis and single-crystal x-ray structure 
determination of Sr10 Sm6 Si30 Al6 O7 N54 A layered sialon with an 
ordered distribution of Si, Al, O, and N
;
loop_
_citation_id
_citation_journal_abbrev
_citation_year
_citation_journal_volume
_citation_page_first
_citation_page_last
_citation_journal_id_ASTM
primary 'Solid State Sciences' 2000 2 463 472 SSSCFJ
_publ_author_name                  'Lauterbach, R.;Schnick, W.'
_cell_length_a                     17.0694(9)
_cell_length_b                     33.3236(17)
_cell_length_c                     9.9536(5)
_cell_angle_alpha                  90.
_cell_angle_beta                   90.
_cell_angle_gamma                  90.
_cell_volume                       5661.75
_cell_formula_units_Z              4
_symmetry_space_group_name_H-M     'F m m 2'
_symmetry_Int_Tables_number        42
_refine_ls_R_factor_all            .0706
loop_
_symmetry_equiv_pos_site_id
_symmetry_equiv_pos_as_xyz
  1	'x, -y, z'
  2	'-x, y, z'
  3	'-x, -y, z'
  4	'x, y, z'
  5	'x, -y+.5, z+.5'
  6	'x+.5, -y, z+.5'
  7	'x+.5, -y+.5, z'
  8	'-x, y+.5, z+.5'
  9	'-x+.5, y, z+.5'
 10	'-x+.5, y+.5, z'
 11	'-x, -y+.5, z+.5'
 12	'-x+.5, -y, z+.5'
 13	'-x+.5, -y+.5, z'
 14	'x, y+.5, z+.5'
 15	'x+.5, y, z+.5'
 16	'x+.5, y+.5, z'
loop_
_atom_type_symbol
_atom_type_oxidation_number
Al3+	3
N3-	-3
O2-	-2
Si4+	4
Sm3+	3
Sr2+	2
loop_
_atom_site_label
_atom_site_type_symbol
_atom_site_symmetry_multiplicity
_atom_site_Wyckoff_symbol
_atom_site_fract_x
_atom_site_fract_y
_atom_site_fract_z
_atom_site_occupancy
_atom_site_attached_hydrogens
Sm1 Sm3+ 8 c 1 0.80639(4) 0.85915(9) 1. 0 
Sm2 Sm3+ 8 c 1 0.80492(5) 0.48936(9) 1. 0 
Sm3 Sm3+ 8 b 0.75 0.75 0.9295(4) 1. 0 
Sr1 Sr2+ 16 e 0.83807(5) 0.84963(2) 0.6727(2) 1. 0 
Sr2 Sr2+ 8 c 1 0.85366(3) 1.1769(3) 1. 0 
Sr3 Sr2+ 8 d 1.15756(7) 1 1.1827(3) 1. 0 
Sr4 Sr2+ 4 a 0 0 0.8758(6) 1. 0 
Sr5 Sr2+ 4 a 0 0 0.4981(3) 1. 0 
Si1 Si4+ 8 c 1 0.90351(10) 0.6798(10) 1. 0 
Si2 Si4+ 16 e 0.6657(3) 0.66783(18) 1.0165(5) 1. 0 
Si3 Si4+ 16 e 0.9124(3) 0.90920(15) 0.9301(5) 1. 0 
Si4 Si4+ 16 e 0.7509(4) 0.95021(7) 0.4261(6) 1. 0 
Si5 Si4+ 16 e 0.65452(13) 0.95178(7) 1.1788(6) 1. 0 
Si6 Si4+ 16 e 0.59260(17) 0.73603(8) 1.1776(8) 1. 0 
Si7 Si4+ 16 e 1.0879(3) 0.90753(15) 0.4272(5) 1. 0 
Si8 Si4+ 16 e 0.6687(3) 0.66911(18) 1.3331(5) 1. 0 
Al1 Al3+ 16 e 0.82404(13) 0.91072(7) 1.1771(7) 1. 0 
Al2 Al3+ 8 c 1 0.94674(10) 1.1825(9) 1. 0 
O1 O2- 8 c 1 0.8537(3) 0.676(2) 1. 0 
N1 N3- 16 e 0.6089(9) 0.7129(4) 1.0380(11) 1. 0 
O2 O2- 16 e 0.5941(5) 0.7850(2) 1.1739(19) 1. 0 
N2 N3- 8 d 0.7580(13) 1 1.397(2) 1. 0 
N3 N3- 16 e 0.6835(5) 0.6439(2) 1.176(2) 1. 0 
O3 O2- 4 a 1 1 1.191(7) 1. 0 
N4 N3- 8 c 1 0.9235(4) 0.8456(14) 1. 0 
N5 N3- 16 e 0.7464(6) 0.9414(3) 1.1014(11) 1. 0 
N6 N3- 16 e 1.1655(5) 0.9307(3) 0.3444(11) 1. 0 
N7 N3- 16 e 0.9156(6) 0.9202(3) 0.5976(10) 1. 0 
N8 N3- 16 e 0.8359(6) 0.9329(4) 0.8464(12) 1. 0 
N9 N3- 16 e 0.9143(6) 0.9267(3) 1.0947(10) 1. 0 
N10 N3- 16 e 0.7480(15) 0.6744(3) 0.924(2) 1. 0 
N11 N3- 16 e 0.655(1) 0.7192(4) 1.3056(14) 1. 0 
N12 N3- 8 c 0.5 0.7251(5) 1.256(2) 1. 0 
N13 N3- 8 c 1 0.9240(4) 0.3545(13) 1. 0 
N14 N3- 8 d 0.6188(8) 1 1.1615(19) 1. 0 
N15 N3- 16 e 1.0933(10) 0.8566(6) 0.4132(18) 1. 0 
N16 N3- 16 e 0.5961(10) 0.6414(5) 0.9278(15) 1. 0 

loop_
_atom_site_aniso_label
_atom_site_aniso_type_symbol
_atom_site_aniso_U_11
_atom_site_aniso_U_22
_atom_site_aniso_U_33
_atom_site_aniso_U_12
_atom_site_aniso_U_13
_atom_site_aniso_U_23
Sm1 Sm3+ 0.0182(6) 0.0149(7) 0.0156(6) 0 0 0.0014(5)
Sm2 Sm3+ 0.0223(6) 0.0184(7) 0.0121(6) 0 0 0.0005(5)
Sm3 Sm3+ 0.1170(13) 0.0164(4) 0.0671(10) -.0008(19) 0 0
Sr1 Sr2+ 0.0085(3) 0.0094(3) 0.0181(4) 0.0015(3) -.0015(7) 0.0000(8)
Sr2 Sr2+ 0.0148(5) 0.0127(5) 0.0099(6) 0 0 -.0009(11)
Sr3 Sr2+ 0.0088(5) 0.0046(4) 0.0298(9) 0 0.0005(10) 0
Sr4 Sr2+ 0.356(16) 0.015(2) 0.032(3) 0 0 0
Sr5 Sr2+ 0.0133(10) 0.0205(14) 0.0113(12) 0 0 0
Si1 Si4+ 0.0058(12) 0.0104(13) 0.0064(14) 0 0 0.001(3)
Si2 Si4+ 0.021(2) 0.006(2) 0.010(2) 0.0024(17) 0.0010(17) -.0010(15)
Si3 Si4+ 0.007(2) 0.011(2) 0.008(2) -.0011(15) 0.0002(16) -.0026(16)
Si4 Si4+ 0.0085(10) 0.0079(9) 0.0071(11) 0.001(2) -.0012(7) 0.001(2)
Si5 Si4+ 0.0086(9) 0.0113(10) 0.0061(11) -.0002(7) 0.001(2) 0.003(2)
Si6 Si4+ 0.0214(13) 0.0102(10) 0.0312(16) 0.0038(9) -.007(3) 0.001(3)
Si7 Si4+ 0.005(2) 0.019(3) 0.006(2) -.0029(16) 0.0008(15) -.0027(17)
Si8 Si4+ 0.023(2) 0.010(2) 0.003(2) 0.0028(17) 0.0001(17) 0.0000(15)
Al1 Al3+ 0.0057(10) 0.0046(9) 0.0059(11) 0.0014(7) 0.003(2) 0.000(2)
Al2 Al3+ 0.0044(14) 0.0039(13) 0.008(2) 0 0 -.003(3)
O1 O2- 0.017(4) 0.019(4) 0.010(4) 0 0 -.001(9)
N1 N3- 0.035(7) 0.018(5) 0.013(5) 0.015(5) 0.000(5) -.006(4)
O2 O2- 0.029(4) 0.010(3) 0.029(4) 0.003(3) 0.004(7) 0.015(6)
N2 N3- 0.023(10) 0.007(6) 0.052(17) 0 -.011(9) 0
N3 N3- 0.019(4) 0.012(3) 0.012(4) 0.000(3) 0.012(7) 0.005(7)
O3 O2- 0.026(10) 0.031(10) 0.09(3) 0 0 0
N4 N3- 0.014(6) 0.006(5) 0.007(6) 0 0 0.002(4)
N5 N3- 0.019(5) 0.016(4) 0.010(5) -.002(4) 0.001(4) 0.000(4)
N6 N3- 0.011(4) 0.014(4) 0.013(5) -.002(3) 0.002(4) 0.005(4)
N7 N3- 0.011(4) 0.020(5) 0.008(5) 0.002(3) 0.006(3) -.001(4)
N8 N3- 0.013(4) 0.030(6) 0.016(5) 0.010(4) 0.000(4) 0.010(4)
N9 N3- 0.013(5) 0.017(5) 0.007(4) -.004(3) 0.005(3) 0.001(3)
N10 N3- 0.024(5) 0.027(5) 0.021(5) 0.006(9) 0.005(3) -.010(8)
N11 N3- 0.039(8) 0.020(6) 0.027(7) 0.015(6) -.009(6) 0.004(5)
N12 N3- 0.030(8) 0.014(7) 0.032(10) 0 0 -.002(6)
N13 N3- 0.006(5) 0.023(7) 0.003(5) 0 0 0.008(5)
N14 N3- 0.025(6) 0.008(4) 0.003(8) 0 -.008(6) 0
N15 N3- 0.010(7) 0.023(8) 0.032(9) -.001(6) -.001(5) -.003(6)
N16 N3- 0.019(8) 0.020(7) 0.008(6) -.001(5) -.008(5) 0.005(5)
#End of data_411141-ICSD


