data_186263-ICSD
#?2014 by Fachinformationszentrum Karlsruhe, and the U.S. Secretary of 
#Commerce on behalf of the United States.  All rights reserved.
_database_code_ICSD                186263
_audit_creation_date               2013/02/01
_chemical_name_systematic          'Lithium Tetrahydridoborate'
_chemical_formula_structural       'Li (B H4)'
_chemical_formula_sum              'H4 B1 Li1'
_publ_section_title
;
Lightest borohydride probed by synchrotron x-ray diffraction: 
experiment calls for a new theoretical revision
;
loop_
_citation_id
_citation_journal_abbrev
_citation_year
_citation_journal_volume
_citation_page_first
_citation_page_last
_citation_journal_id_ASTM
primary 'Journal of Physical Chemistry C' 2008 112 10579 10584 JPCCCK
_publ_author_name
;
Filinchuk, Y.;Chernyshov, D.;Cerny, R.
;
_cell_length_a                     7.14838(15)
_cell_length_b                     4.41900(8)
_cell_length_c                     6.69829(14)
_cell_angle_alpha                  90.
_cell_angle_beta                   90.
_cell_angle_gamma                  90.
_cell_volume                       211.59
_cell_formula_units_Z              4
_symmetry_space_group_name_H-M     'P n m a'
_symmetry_Int_Tables_number        62
_refine_ls_R_factor_all            .0566
loop_
_symmetry_equiv_pos_site_id
_symmetry_equiv_pos_as_xyz
  1	'x+.5, y, -z+.5'
  2	'x, -y+.5, z'
  3	'-x+.5, y+.5, z+.5'
  4	'-x, -y, -z'
  5	'-x+.5, -y, z+.5'
  6	'-x, y+.5, -z'
  7	'x+.5, -y+.5, -z+.5'
  8	'x, y, z'
loop_
_atom_type_symbol
_atom_type_oxidation_number
B3+	3
H1-	-1
Li1+	1
loop_
_atom_site_label
_atom_site_type_symbol
_atom_site_symmetry_multiplicity
_atom_site_Wyckoff_symbol
_atom_site_fract_x
_atom_site_fract_y
_atom_site_fract_z
_atom_site_occupancy
_atom_site_attached_hydrogens
_atom_site_U_iso_or_equiv
Li1 Li1+ 4 c 0.1580(3) 0.25000 0.1142(2) 1.00000 0 0.0212(13) 
B1 B3+ 4 c 0.30480(19) 0.25000 0.42947(20) 1.00000 0 0.0118(4) 
H1 H1- 4 c 0.8969(7) 0.25000 0.9374(13) 1.00000 0 0.003(2) 
H2 H1- 4 c 0.3965(11) 0.25000 0.2883(12) 1.00000 0 0.027(3) 
H3 H1- 8 d 0.2075(7) 0.0450(9) 0.4253(8) 1.00000 0 0.0215(17) 

loop_
_atom_site_aniso_label
_atom_site_aniso_type_symbol
_atom_site_aniso_U_11
_atom_site_aniso_U_22
_atom_site_aniso_U_33
_atom_site_aniso_U_12
_atom_site_aniso_U_13
_atom_site_aniso_U_23
Li1 Li1+ 0.0331(16) 0.0135(11) 0.0170(12) 0.00000 0.0015(10) 0.00000
#End of data_186263-ICSD


