data_190732-ICSD
#?2014 by Fachinformationszentrum Karlsruhe, and the U.S. Secretary of 
#Commerce on behalf of the United States.  All rights reserved.
_database_code_ICSD                190732
_audit_creation_date               2014/08/01
_chemical_name_systematic          'Silver Bismuth Ditungstate'
_chemical_formula_structural       'Ag Bi (W O4)2'
_chemical_formula_sum              'Ag1 Bi1 O8 W2'
_publ_section_title
;
Crystal structure and microwave dielectric properties of an Ultralow-
Temperature-Fired (Ag Bi)0.5 W O4 ceramic
;
loop_
_citation_id
_citation_journal_abbrev
_citation_year
_citation_journal_volume
_citation_journal_issue
_citation_page_first
_citation_page_last
_citation_journal_id_ASTM
primary 'European Journal of Inorganic Chemistry  (online)'
 2014 2014 2 296 301 EJICFO
_publ_author_name
;
Zhou, Di;Pang, Li-Xia;Xie, Hui-Dong;Guo, Jing;He, Bin;Qi, Ze-
Ming;Shao, Tao;Yao, Xi;Randall, Clive A.
;
_cell_length_a                     10.1330(8)
_cell_length_b                     11.0013(0)
_cell_length_c                     7.2756(4)
_cell_angle_alpha                  90.
_cell_angle_beta                   127.712(3)
_cell_angle_gamma                  90.
_cell_volume                       641.62
_cell_formula_units_Z              4
_symmetry_space_group_name_H-M     'C 1 2/m 1'
_symmetry_Int_Tables_number        12
_refine_ls_R_factor_all            .15
loop_
_symmetry_equiv_pos_site_id
_symmetry_equiv_pos_as_xyz
  1	'-x, y, -z'
  2	'-x, -y, -z'
  3	'x, -y, z'
  4	'x, y, z'
  5	'-x+.5, y+.5, -z'
  6	'-x+.5, -y+.5, -z'
  7	'x+.5, -y+.5, z'
  8	'x+.5, y+.5, z'
loop_
_atom_type_symbol
_atom_type_oxidation_number
Ag1+	1
Bi3+	3
O2-	-2
W6+	6
loop_
_atom_site_label
_atom_site_type_symbol
_atom_site_symmetry_multiplicity
_atom_site_Wyckoff_symbol
_atom_site_fract_x
_atom_site_fract_y
_atom_site_fract_z
_atom_site_occupancy
_atom_site_attached_hydrogens
Bi1 Bi3+ 4 g 0 0.2900(2) 0 1. 0 
W1 W6+ 4 h 0.5 0.3396(4) 0.5 1. 0 
W2 W6+ 4 i 0.2900(0) 0.5 0.0311(5) 1. 0 
Ag1 Ag1+ 4 i 0.1978(2) 0.5 0.5265(9) 1. 0 
O1 O2- 8 j 0.2732(0) 0.3805(5) 0.2565(9) 1. 0 
O2 O2- 8 j 0.0663(4) 0.2826(5) 0.3635(5) 1. 0 
O3 O2- 4 i 0.4332(7) 0 0.1320(5) 1. 0 
O4 O2- 8 j 0.1689(4) 0.1277(6) 0.0824(7) 1. 0 
O5 O2- 4 i 0.0292(3) 0 0.3359(9) 1. 0 

#End of data_190732-ICSD


