data_97093-ICSD
#?2014 by Fachinformationszentrum Karlsruhe, and the U.S. Secretary of 
#Commerce on behalf of the United States.  All rights reserved.
_database_code_ICSD                97093
_audit_creation_date               2004/10/01
_audit_update_record               2007/08/01
_chemical_name_systematic          'Dicalcium Diosmate(V)'
_chemical_formula_structural       'Ca2 (Os2 O7)'
_chemical_formula_sum              'Ca2 O7 Os2'
_publ_section_title
;
Syntheses, structures and properties of some osmates(IV,V) adopting 
the pyrochlore and weberite structures
;
loop_
_citation_id
_citation_journal_abbrev
_citation_year
_citation_journal_volume
_citation_page_first
_citation_page_last
_citation_journal_id_ASTM
primary 'Journal of Materials Chemistry' 2002 12 2376 2382 JMACEP
2 'Golden Book of Phase Transitions, Wroclaw' 2002 1 1 123 GBOPT5
_publ_author_name
;
Reading, J.;Knee, C.S.;Weller, M.T.
;
_cell_length_a                     7.2104(2)
_cell_length_b                     10.1211(3)
_cell_length_c                     7.3813(2)
_cell_angle_alpha                  90
_cell_angle_beta                   90
_cell_angle_gamma                  90
_cell_volume                       538.67
_cell_formula_units_Z              4
_symmetry_space_group_name_H-M     'I m m a'
_symmetry_Int_Tables_number        74
_refine_ls_R_factor_all            .0344
loop_
_symmetry_equiv_pos_site_id
_symmetry_equiv_pos_as_xyz
  1	'-x, y+.5, -z'
  2	'-x, -y+.5, z'
  3	'-x, y, z'
  4	'-x, -y, -z'
  5	'x, -y+.5, z'
  6	'x, y+.5, -z'
  7	'x, -y, -z'
  8	'x, y, z'
  9	'-x+.5, y, -z+.5'
 10	'-x+.5, -y, z+.5'
 11	'-x+.5, y+.5, z+.5'
 12	'-x+.5, -y+.5, -z+.5'
 13	'x+.5, -y, z+.5'
 14	'x+.5, y, -z+.5'
 15	'x+.5, -y+.5, -z+.5'
 16	'x+.5, y+.5, z+.5'
loop_
_atom_type_symbol
_atom_type_oxidation_number
Ca2+	2
O2-	-2
Os5+	5
loop_
_atom_site_label
_atom_site_type_symbol
_atom_site_symmetry_multiplicity
_atom_site_Wyckoff_symbol
_atom_site_fract_x
_atom_site_fract_y
_atom_site_fract_z
_atom_site_occupancy
_atom_site_attached_hydrogens
_atom_site_U_iso_or_equiv
Ca1 Ca2+ 4 a 0 0 0 1. 0 0.0080(8) 
Ca2 Ca2+ 4 d 0.250 0.250 0.750 1. 0 0.0074(8) 
Os1 Os5+ 4 c 0.250 0.250 0.250 1. 0 0.0015(3) 
Os2 Os5+ 4 b 0 0 0.5 1. 0 0.0015(3) 
O1 O2- 4 e 0 0.250 0.1597(5) 1. 0 0.0094(5) 
O2 O2- 8 h 0 0.4036(2) 0.7282(3) 1. 0 0.0054(4) 
O3 O2- 16 j 0.2051(2) 0.3830(2) 0.4350(2) 1. 0 0.0048(2) 

#End of data_97093-ICSD


