data_65827-ICSD
#?2014 by Fachinformationszentrum Karlsruhe, and the U.S. Secretary of 
#Commerce on behalf of the United States.  All rights reserved.
_database_code_ICSD                65827
_audit_creation_date               1990/12/27
_chemical_name_systematic
;
Trizinc Dipotassium Tetrakis(hydrogenphosphate(III))
;
_chemical_formula_structural       'Zn3 K2 (H P O3)4'
_chemical_formula_sum              'H4 K2 O12 P4 Zn3'
_publ_section_title
;
Synthesis and chracterization of a new series of zinc phosphites
;
loop_
_citation_id
_citation_journal_abbrev
_citation_year
_citation_journal_volume
_citation_page_first
_citation_page_last
_citation_journal_id_ASTM
primary 'Inorganic Chemistry' 1989 28 2608 2615 INOCAJ
_publ_author_name
;
Ortiz-Avila, C.Y.;Squattrito, P.J.;Shieh, M.;Clearfield, A.
;
_cell_length_a                     12.373(2)
_cell_length_b                     13.635(2)
_cell_length_c                     8.571(2)
_cell_angle_alpha                  90.
_cell_angle_beta                   90.24(2)
_cell_angle_gamma                  90.
_cell_volume                       1445.97
_cell_formula_units_Z              4
_symmetry_space_group_name_H-M     'P 1 21/c 1'
_symmetry_Int_Tables_number        14
_refine_ls_R_factor_all            .037
loop_
_symmetry_equiv_pos_site_id
_symmetry_equiv_pos_as_xyz
  1	'x, -y+.5, z+.5'
  2	'-x, -y, -z'
  3	'-x, y+.5, -z+.5'
  4	'x, y, z'
loop_
_atom_type_symbol
_atom_type_oxidation_number
H1+	1
K1+	1
O2-	-2
P3+	3
Zn2+	2
loop_
_atom_site_label
_atom_site_type_symbol
_atom_site_symmetry_multiplicity
_atom_site_Wyckoff_symbol
_atom_site_fract_x
_atom_site_fract_y
_atom_site_fract_z
_atom_site_occupancy
_atom_site_attached_hydrogens
_atom_site_B_iso_or_equiv
Zn1 Zn2+ 4 e 0.75089(8) 0.43576(8) 0.5592(1) 1. 0 0 
Zn2 Zn2+ 4 e 0.57359(9) 0.67656(8) 0.8827(1) 1. 0 0 
Zn3 Zn2+ 4 e 0.07447(9) 0.18308(8) 0.5869(1) 1. 0 0 
K1 K1+ 4 e 0.0198(2) 0.4469(2) 0.7385(3) 1. 0 0 
K2 K1+ 4 e 0.4734(2) 0.4456(2) 0.7547(2) 1. 0 0 
P1 P3+ 4 e 0.5795(2) 0.2991(2) 0.4040(3) 1. 0 0 
P2 P3+ 4 e 0.7535(2) 0.5096(2) 0.9315(3) 1. 0 0 
P3 P3+ 4 e 0.9214(2) 0.3030(2) 0.3722(3) 1. 0 0 
P4 P3+ 4 e 0.7454(2) 0.6565(2) 0.4369(3) 1. 0 0 
O1 O2- 4 e 0.7397(5) 0.5456(4) 0.4155(8) 1. 0 0 
O2 O2- 4 e 0.8826(5) 0.3680(5) 0.5052(8) 1. 0 0 
O3 O2- 4 e 0.6204(5) 0.3581(5) 0.5422(7) 1. 0 0 
O4 O2- 4 e 0.7766(6) 0.4763(6) 0.7676(8) 1. 0 0 
O5 O2- 4 e 0.6431(5) 0.5563(5) 0.9502(8) 1. 0 0 
O6 O2- 4 e 0.5304(5) 0.2026(5) 0.4533(7) 1. 0 0 
O7 O2- 4 e 0.5038(6) 0.3617(5) 0.3036(7) 1. 0 0 
O8 O2- 4 e 0.6511(5) 0.7052(5) 0.3517(8) 1. 0 0 
O9 O2- 4 e 0.8520(5) 0.6932(5) 0.3817(9) 1. 0 0 
O10 O2- 4 e 0.8453(5) 0.5719(5) 0.9919(7) 1. 0 0 
O11 O2- 4 e 0.9998(6) 0.3596(5) 0.2725(8) 1. 0 0 
O12 O2- 4 e 0.9649(5) 0.2051(5) 0.4288(7) 1. 0 0 
H1 H1+ 4 e 0.654(7) 0.271(7) 0.31(1) 1. 0 1.(2) 
H2 H1+ 4 e 0.767(7) 0.429(7) 0.03(1) 1. 0 3.(2) 
H3 H1+ 4 e 0.815(7) 0.280(7) 0.27(1) 1. 0 2.(2) 
H4 H1+ 4 e 0.729(8) 0.680(7) 0.56(1) 1. 0 4.(3) 

loop_
_atom_site_aniso_label
_atom_site_aniso_type_symbol
_atom_site_aniso_U_11
_atom_site_aniso_U_22
_atom_site_aniso_U_33
_atom_site_aniso_U_12
_atom_site_aniso_U_13
_atom_site_aniso_U_23
Zn1 Zn2+ 0.0157(5) 0.0137(5) 0.0186(5) 0.0004(5) -.0005(4) -.0011(5)
Zn2 Zn2+ 0.0211(6) 0.0142(6) 0.0284(6) -.0016(5) -.0026(4) -.0006(6)
Zn3 Zn2+ 0.0215(6) 0.0161(6) 0.0245(6) 0.0006(5) 0.0007(4) -.0005(5)
K1 K1+ 0.033(1) 0.019(1) 0.032(1) 0.004(1) -.002(1) 0.001(1)
K2 K1+ 0.034(1) 0.018(1) 0.030(1) -.003(1) -.002(1) 0.002(1)
P1 P3+ 0.019(1) 0.020(1) 0.021(1) -.006(1) 0.000(1) -.003(1)
P2 P3+ 0.017(1) 0.013(1) 0.020(1) 0.001(1) -.001(1) 0.000(1)
P3 P3+ 0.018(1) 0.020(1) 0.020(1) 0.006(1) 0.000(1) -.005(1)
P4 P3+ 0.020(1) 0.013(1) 0.024(1) -.001(1) -.001(1) 0.000(1)
O1 O2- 0.039(4) 0.013(4) 0.034(4) -.001(3) -.002(3) 0.002(3)
O2 O2- 0.024(4) 0.041(5) 0.030(4) 0.012(3) -.002(3) -.016(3)
O3 O2- 0.018(1) 0.014(1) 0.036(1) -.001(1) 0.003(1) -.003(1)
O4 O2- 0.040(5) 0.054(5) 0.026(4) 0.003(4) -.003(3) -.015(4)
O5 O2- 0.030(4) 0.020(4) 0.043(4) 0.012(3) 0.007(3) 0.005(3)
O6 O2- 0.025(4) 0.015(3) 0.032(4) -.007(3) 0.001(3) -.001(3)
O7 O2- 0.047(5) 0.018(4) 0.031(4) -.007(3) -.016(3) 0.004(3)
O8 O2- 0.024(4) 0.018(4) 0.043(4) 0.006(3) -.015(3) -.012(3)
O9 O2- 0.019(4) 0.021(4) 0.060(5) -.004(3) 0.008(3) -.016(4)
O10 O2- 0.030(4) 0.031(4) 0.031(4) -.020(4) -.006(3) 0.013(3)
O11 O2- 0.044(5) 0.021(4) 0.029(4) 0.005(3) 0.017(3) 0.001(3)
O12 O2- 0.034(4) 0.013(4) 0.032(4) 0.000(3) -.009(3) 0.003(3)
#End of data_65827-ICSD


