data_50582-ICSD
#?2014 by Fachinformationszentrum Karlsruhe, and the U.S. Secretary of 
#Commerce on behalf of the United States.  All rights reserved.
_database_code_ICSD                50582
_audit_creation_date               2000/07/15
_chemical_name_systematic
;
Potassium Hexaaquacobalt Sulfate(VI)
;
_chemical_formula_structural       'K2 (Co (H2 O)6) (S O4)2'
_chemical_formula_sum              'H12 Co1 K2 O14 S2'
_publ_section_title
;
The crystal structure of Tutton's salt type K2 (Co (H2 O)6) (S O4)2. 
A combined x-ray and neutron study
;
loop_
_citation_id
_citation_journal_abbrev
_citation_year
_citation_journal_volume
_citation_page_first
_citation_page_last
_citation_journal_id_ASTM
primary 'Zeitschrift fuer Kristallographie (1979-2010)' 1998 213 456 460 ZEKRDZ
_publ_author_name
;
Kirfel, A.;Klapper, H.;Schaefer, W.;Schwabenlaender, F.
;
_cell_length_a                     9.057(1)
_cell_length_b                     12.211(2)
_cell_length_c                     6.155(1)
_cell_angle_alpha                  90.
_cell_angle_beta                   104.82(1)
_cell_angle_gamma                  90.
_cell_volume                       658.07
_cell_formula_units_Z              2
_symmetry_space_group_name_H-M     'P 1 21/a 1'
_symmetry_Int_Tables_number        14
_refine_ls_R_factor_all            .0171
loop_
_symmetry_equiv_pos_site_id
_symmetry_equiv_pos_as_xyz
  1	'x+.5, -y+.5, z'
  2	'-x, -y, -z'
  3	'-x+.5, y+.5, -z'
  4	'x, y, z'
loop_
_atom_type_symbol
_atom_type_oxidation_number
Co2+	2
H1+	1
K1+	1
O2-	-2
S6+	6
loop_
_atom_site_label
_atom_site_type_symbol
_atom_site_symmetry_multiplicity
_atom_site_Wyckoff_symbol
_atom_site_fract_x
_atom_site_fract_y
_atom_site_fract_z
_atom_site_occupancy
_atom_site_attached_hydrogens
_atom_site_U_iso_or_equiv
Co1 Co2+ 2 a 0 0 0 1. 0 0.0144(2) 
S1 S6+ 4 e 0.41152(4) 0.13500(3) 0.72560(6) 1. 0 0.0167(2) 
O1 O2- 4 e 0.40734(16) 0.22982(10) 0.5753(2) 1. 0 0.0330(3) 
O2 O2- 4 e 0.55538(15) 0.07610(13) 0.7522(3) 1. 0 0.0389(4) 
O3 O2- 4 e 0.28488(13) 0.06104(9) 0.61881(19) 1. 0 0.0239(3) 
O4 O2- 4 e 0.39438(15) 0.17274(9) 0.94645(19) 1. 0 0.0265(3) 
O5 O2- 4 e 0.17022(14) 0.11228(10) 0.1666(2) 1. 0 0.0229(3) 
O6 O2- 4 e -.17012(15) 0.11481(10) 0.0343(2) 1. 0 0.0219(3) 
O7 O2- 4 e -.00362(16) -.06891(11) 0.2997(2) 1. 0 0.0230(3) 
K1 K1+ 4 e 0.13277(5) 0.34543(3) 0.34170(7) 1. 0 0.0287(2) 
H1 H1+ 4 e 0.207(3) 0.093(2) 0.282(5) 1. 0 0.0035(7) 
H2 H1+ 4 e 0.244(3) 0.122(2) 0.106(4) 1. 0 0.0042(7) 
H3 H1+ 4 e -.253(3) 0.105(2) -.046(4) 1. 0 0.0033(6) 
H4 H1+ 4 e -.143(3) 0.176(2) 0.009(4) 1. 0 0.0036(6) 
H5 H1+ 4 e -.071(4) -.065(2) 0.336(5) 1. 0 0.0048(9) 
H6 H1+ 4 e 0.030(3) -.134(3) 0.338(5) 1. 0 0.0053(8) 

#End of data_50582-ICSD


