data_9849-ICSD
#?2014 by Fachinformationszentrum Karlsruhe, and the U.S. Secretary of 
#Commerce on behalf of the United States.  All rights reserved.
_database_code_ICSD                9849
_audit_creation_date               1980/01/01
_audit_update_record               2007/08/01
_chemical_name_systematic          'Trimagnesium Bis(phosphate(V))'
_chemical_formula_structural       'Mg3 (P O4)2'
_chemical_formula_sum              'Mg3 O8 P2'
_publ_section_title
;
Vacancies ordering in new metastable orthophosphates (Co3 ) P2 O8 and 
(Mg3 ) P2 O8 with olivin-related structure
;
loop_
_citation_id
_citation_journal_abbrev
_citation_year
_citation_journal_volume
_citation_page_first
_citation_page_last
_citation_journal_id_ASTM
primary
;
Zeitschrift fuer Kristallographie, Kristallgeometrie, Kristallphysik, 
Kristallchemie (-144,1977)
;
 1972 136 98 105 ZEKGAX
_publ_author_name
;
Berthet, G.;Joubert, J.C.;Bertaut, E.F.
;
_cell_length_a                     5.911(20)
_cell_length_b                     10.214(30)
_cell_length_c                     4.734(20)
_cell_angle_alpha                  90.
_cell_angle_beta                   90.
_cell_angle_gamma                  90.99
_cell_volume                       285.77
_cell_formula_units_Z              2
_symmetry_space_group_name_H-M     'P 1 1 21/b'
_symmetry_Int_Tables_number        14
_refine_ls_R_factor_all            .12
loop_
_symmetry_equiv_pos_site_id
_symmetry_equiv_pos_as_xyz
  1	'x, y+.5, -z+.5'
  2	'-x, -y, -z'
  3	'-x, -y+.5, z+.5'
  4	'x, y, z'
loop_
_atom_type_symbol
_atom_type_oxidation_number
Mg2+	2
O2-	-2
P5+	5
loop_
_atom_site_label
_atom_site_type_symbol
_atom_site_symmetry_multiplicity
_atom_site_Wyckoff_symbol
_atom_site_fract_x
_atom_site_fract_y
_atom_site_fract_z
_atom_site_occupancy
_atom_site_attached_hydrogens
Mg1 Mg2+ 2 d 0.5 0 0 1. 0 
Mg2 Mg2+ 4 e 0.263(8) 0.277(8) -.023(8) 1. 0 
P1 P5+ 4 e 0.242(8) 0.103(8) 0.426(8) 1. 0 
O1 O2- 4 e 0.266(8) 0.079(8) 0.746(8) 1. 0 
O2 O2- 4 e 0.239(8) 0.453(8) 0.202(8) 1. 0 
O3 O2- 4 e 0.059(8) 0.190(8) 0.350(8) 1. 0 
O4 O2- 4 e 0.439(8) 0.145(8) 0.272(8) 1. 0 

#End of data_9849-ICSD


