data_1391-ICSD
#?2014 by Fachinformationszentrum Karlsruhe, and the U.S. Secretary of 
#Commerce on behalf of the United States.  All rights reserved.
_database_code_ICSD                1391
_audit_creation_date               1980/01/01
_audit_update_record               2010/02/01
_chemical_name_systematic          'Calcium Bis(iodate(V))'
_chemical_formula_structural       'Ca (I O3)2'
_chemical_formula_sum              'Ca1 I2 O6'
_chemical_name_mineral             Lautarite
_publ_section_title
;
The crystal structure of synthetic lautarite, Ca (I O3)2
;
loop_
_citation_id
_citation_journal_abbrev
_citation_year
_citation_journal_volume
_citation_page_first
_citation_page_last
_citation_journal_id_ASTM
primary 'Acta Crystallographica B (24,1968-38,1982)' 1978 34 84 88 ACBCAR
_publ_author_name                  'Ghose, S.;Wan, C.'
_cell_length_a                     7.1432(13)
_cell_length_b                     11.297(3)
_cell_length_c                     7.2804(9)
_cell_angle_alpha                  90.
_cell_angle_beta                   106.35(1)
_cell_angle_gamma                  90.
_cell_volume                       563.75
_cell_formula_units_Z              4
_symmetry_space_group_name_H-M     'P 1 21/n 1'
_symmetry_Int_Tables_number        14
_refine_ls_R_factor_all            .039
loop_
_symmetry_equiv_pos_site_id
_symmetry_equiv_pos_as_xyz
  1	'-x+.5, y+.5, -z+.5'
  2	'-x, -y, -z'
  3	'x+.5, -y+.5, z+.5'
  4	'x, y, z'
loop_
_atom_type_symbol
_atom_type_oxidation_number
Ca2+	2
I5+	5
O2-	-2
loop_
_atom_site_label
_atom_site_type_symbol
_atom_site_symmetry_multiplicity
_atom_site_Wyckoff_symbol
_atom_site_fract_x
_atom_site_fract_y
_atom_site_fract_z
_atom_site_occupancy
_atom_site_attached_hydrogens
Ca1 Ca2+ 4 e 0.77440(15) 0.09843(9) 0.00640(14) 1. 0 
I1 I5+ 4 e 0.23138(5) 0.07390(3) 0.46486(4) 1. 0 
I2 I5+ 4 e 0.76040(4) 0.28536(3) 0.44618(4) 1. 0 
O1 O2- 4 e -.02904(60) 0.09112(38) 0.34813(56) 1. 0 
O2 O2- 4 e 0.30628(66) -.03936(37) 0.32746(58) 1. 0 
O3 O2- 4 e 0.32176(66) 0.20510(36) 0.37796(63) 1. 0 
O4 O2- 4 e 0.65225(61) 0.24528(40) 0.19753(58) 1. 0 
O5 O2- 4 e 0.93334(64) 0.39066(41) 0.40685(63) 1. 0 
O6 O2- 4 e 0.59174(61) 0.39804(35) 0.47438(56) 1. 0 

#End of data_1391-ICSD


