data_261426-ICSD
#?2014 by Fachinformationszentrum Karlsruhe, and the U.S. Secretary of 
#Commerce on behalf of the United States.  All rights reserved.
_database_code_ICSD                261426
_audit_creation_date               2011/08/01
_chemical_name_systematic
;
Barium Aluminium Fluoride (20/12/76)
;
_chemical_formula_structural       'Ba20 Al12 F76'
_chemical_formula_sum              'Al12 Ba20 F76'
_publ_section_title
;
Structure resolution of Ba5 Al3 F19 and investigation of fluorine ion 
dynamics by synchrotron powder diffraction, variable-temperature 
solid-state NMR, and quantum computations
;
loop_
_citation_id
_citation_journal_abbrev
_citation_year
_citation_journal_volume
_citation_journal_issue
_citation_page_first
_citation_page_last
_citation_journal_id_ASTM
primary 'Inorganic Chemistry' 2011 50 6 2644 2653 INOCAJ
_publ_author_name
;
Martineau, C.;Fayon, F.;Suchomel, M.R.;Allix, M.;Massiot, 
D.;Taulelle, F.
;
_cell_length_a                     14.5758(10)
_cell_length_b                     14.5758(10)
_cell_length_c                     7.4597(10)
_cell_angle_alpha                  90.000
_cell_angle_beta                   90.000
_cell_angle_gamma                  90.000
_cell_volume                       1584.84
_cell_formula_units_Z              1
_symmetry_space_group_name_H-M     'I 4/m'
_symmetry_Int_Tables_number        87
_refine_ls_R_factor_all            .074
loop_
_symmetry_equiv_pos_site_id
_symmetry_equiv_pos_as_xyz
  1	'-y, x, -z'
  2	'y, -x, -z'
  3	'x, y, -z'
  4	'-x, -y, -z'
  5	'y, -x, z'
  6	'-y, x, z'
  7	'-x, -y, z'
  8	'x, y, z'
  9	'-y+.5, x+.5, -z+.5'
 10	'y+.5, -x+.5, -z+.5'
 11	'x+.5, y+.5, -z+.5'
 12	'-x+.5, -y+.5, -z+.5'
 13	'y+.5, -x+.5, z+.5'
 14	'-y+.5, x+.5, z+.5'
 15	'-x+.5, -y+.5, z+.5'
 16	'x+.5, y+.5, z+.5'
loop_
_atom_type_symbol
_atom_type_oxidation_number
Al3+	3
Ba2+	2
F1-	-1
loop_
_atom_site_label
_atom_site_type_symbol
_atom_site_symmetry_multiplicity
_atom_site_Wyckoff_symbol
_atom_site_fract_x
_atom_site_fract_y
_atom_site_fract_z
_atom_site_occupancy
_atom_site_attached_hydrogens
_atom_site_U_iso_or_equiv
Ba1 Ba2+ 8 h 0.08485(4) -0.24030(4) 0.0000 1.000 0 0.0098(1) 
Ba2 Ba2+ 8 h -0.05750(5) -0.21398(4) 0.5000 1.000 0 0.0151(1) 
Ba3 Ba2+ 4 d 0.0000 0.5000 0.2500 1.000 0 0.0151(1) 
Al1 Al3+ 8 h 0.1606(3) 0.3208(2) 0.0000 1.000 0 0.0091(5) 
Al2 Al3+ 4 e 0.0000 0.0000 0.2435(9) 1.000 0 0.0138(8) 
F1 F1- 16 i 0.3894(2) 0.4497(3) 0.2383(5) 1.000 0 0.0220(1) 
F2 F1- 16 i 0.1984(2) 0.4076(3) 0.1679(5) 1.000 0 0.019(2) 
F3 F1- 16 i 0.3882(3) 0.2528(3) 0.6602(5) 1.000 0 0.0304(1) 
F4 F1- 8 h 0.2610(5) 0.2650(4) 0.0000 1.000 0 0.0375(1) 
F5 F1- 8 h 0.4471(4) 0.1201(4) 0.5000 1.000 0 0.0232(1) 
F6 F1- 8 h 0.4203(4) 0.1180(3) 0.0000 1.000 0 0.0080(2) 
F7 F1- 2 a 0.0000 0.0000 0.0000 1.000 0 0.0309(2) 
F8 F1- 2 b 0.0000 0.0000 0.5000 1.000 0 0.0309(2) 

#End of data_261426-ICSD


