data_260237-ICSD
#?2014 by Fachinformationszentrum Karlsruhe, and the U.S. Secretary of 
#Commerce on behalf of the United States.  All rights reserved.
_database_code_ICSD                260237
_audit_creation_date               2009/08/01
_chemical_name_systematic
;
Calcium(II) Tellurium(IV) Oxide - Gamma Mdo2 Idealised
;
_chemical_formula_structural       'Ca (Te O3)'
_chemical_formula_sum              'Ca1 O3 Te1'
_publ_section_title
;
Polymorphism of Ca Te O3 and solid solutions Ca(x) Sr(1-x) Te O3
;
loop_
_citation_id
_citation_journal_abbrev
_citation_year
_citation_journal_volume
_citation_journal_issue
_citation_page_first
_citation_page_last
_citation_journal_id_ASTM
primary 'Acta Crystallographica, Section B: Structural Science'
 2009 65 2 167 181 ASBSDK
_publ_author_name
;
Stoeger, B.;Weil, M.;Zobetz, E.;Giester, G.
;
_cell_length_a                     8.4010(17)
_cell_length_b                     5.6913(11)
_cell_length_c                     22.680(5)
_cell_angle_alpha                  90.00
_cell_angle_beta                   110.82(3)
_cell_angle_gamma                  90.00
_cell_volume                       1013.58
_cell_formula_units_Z              12
_symmetry_space_group_name_H-M     'P 1 21/c 1'
_symmetry_Int_Tables_number        14
loop_
_symmetry_equiv_pos_site_id
_symmetry_equiv_pos_as_xyz
  1	'x, -y+.5, z+.5'
  2	'-x, -y, -z'
  3	'-x, y+.5, -z+.5'
  4	'x, y, z'
loop_
_atom_type_symbol
_atom_type_oxidation_number
Ca2+	2
O2-	-2
Te4+	4
loop_
_atom_site_label
_atom_site_type_symbol
_atom_site_symmetry_multiplicity
_atom_site_Wyckoff_symbol
_atom_site_fract_x
_atom_site_fract_y
_atom_site_fract_z
_atom_site_occupancy
_atom_site_attached_hydrogens
Te1 Te4+ 4 e 0.3299 0.2500 0.1255 1 0 
Te2 Te4+ 4 e 0.6859 0.2500 0.0121 1 0 
Ca1 Ca2+ 4 e 0.0188 0.7500 0.0584 1 0 
O1 O2- 4 e 0.7478 0.2500 0.0983 1 0 
O2 O2- 4 e 0.8177 0.0159 0.9973 1 0 
O3 O2- 4 e 0.8177 0.4841 0.9973 1 0 
Te3 Te4+ 4 e 0.7415 0.8351 0.1639 1 0 
Ca2 Ca2+ 4 e 0.9925 0.3423 0.1826 1 0 
Ca3 Ca2+ 4 e 0.2950 0.8267 0.2227 1 0 
O4 O2- 4 e 0.1462 0.0884 0.1278 1 0 
O5 O2- 4 e 0.2419 0.5475 0.1449 1 0 
O6 O2- 4 e 0.4707 0.1572 0.2037 1 0 
O7 O2- 4 e 0.7825 0.5963 0.2221 1 0 
O8 O2- 4 e 0.8466 0.0650 0.2245 1 0 
O9 O2- 4 e 0.9257 0.7416 0.1439 1 0 

#End of data_260237-ICSD


