data_49003-ICSD
#?2014 by Fachinformationszentrum Karlsruhe, and the U.S. Secretary of 
#Commerce on behalf of the United States.  All rights reserved.
_database_code_ICSD                49003
_audit_creation_date               1985/07/17
_audit_update_record               1985/07/26
_chemical_name_systematic          'Sodium Triselenidogermanate'
_chemical_formula_structural       'Na2 Ge Se3'
_chemical_formula_sum              'Ge1 Na2 Se3'
_publ_section_title
;
Zur Kenntnis der Selenidosilikate und -germanate Na4 Si4 Se10, Na2 Ge 
Se3 und Na8 Ge4 Se10
;
loop_
_citation_id
_citation_journal_abbrev
_citation_year
_citation_journal_volume
_citation_page_first
_citation_page_last
_citation_journal_id_ASTM
primary
;
Zeitschrift fuer Naturforschung, Teil B. Anorganische Chemie, 
Organische Chemie (33,1978-41,1986)
;
 1985 40 450 457 ZNBAD2
_publ_author_name
;
Eisenmann, B.;Hansa, J.;Schaefer, H.
;
_cell_length_a                     7.097(2)
_cell_length_b                     16.068(5)
_cell_length_c                     6.073(2)
_cell_angle_alpha                  90.
_cell_angle_beta                   113.69(8)
_cell_angle_gamma                  90.
_cell_volume                       634.17
_cell_formula_units_Z              4
_symmetry_space_group_name_H-M     'P 1 21/c 1'
_symmetry_Int_Tables_number        14
_refine_ls_R_factor_all            .092
loop_
_symmetry_equiv_pos_site_id
_symmetry_equiv_pos_as_xyz
  1	'x, -y+.5, z+.5'
  2	'-x, -y, -z'
  3	'-x, y+.5, -z+.5'
  4	'x, y, z'
loop_
_atom_type_symbol
_atom_type_oxidation_number
Ge4+	4
Na1+	1
Se2-	-2
loop_
_atom_site_label
_atom_site_type_symbol
_atom_site_symmetry_multiplicity
_atom_site_Wyckoff_symbol
_atom_site_fract_x
_atom_site_fract_y
_atom_site_fract_z
_atom_site_occupancy
_atom_site_attached_hydrogens
Se1 Se2- 4 e 0.1959(3) 0.5615(1) 0.3372(3) 1. 0 
Se2 Se2- 4 e 0.9407(3) 0.3063(1) 0.1779(4) 1. 0 
Se3 Se2- 4 e 0.6269(3) 0.6472(1) 0.0564(4) 1. 0 
Ge1 Ge4+ 4 e 0.0268(3) 0.1703(1) 0.3402(3) 1. 0 
Na1 Na1+ 4 e 0.7806(16) 0.4738(5) 0.1664(18) 1. 0 
Na2 Na1+ 4 e 0.5689(16) 0.8346(7) 0.0282(19) 1. 0 

loop_
_atom_site_aniso_label
_atom_site_aniso_type_symbol
_atom_site_aniso_U_11
_atom_site_aniso_U_22
_atom_site_aniso_U_33
_atom_site_aniso_U_12
_atom_site_aniso_U_13
_atom_site_aniso_U_23
Se1 Se2- 0.0203(8) 0.0172(8) 0.0232(9) 0.0028(6) 0.0081(7) 0.0034(7)
Se2 Se2- 0.0377(11) 0.0204(9) 0.0268(10) 0.0104(8) 0.0242(8) 0.0063(7)
Se3 Se2- 0.0158(8) 0.0227(9) 0.0267(9) -.0032(7) 0.0084(7) -.0029(7)
Ge1 Ge4+ 0.0148(8) 0.0129(8) 0.0186(8) -.0011(6) 0.0076(7) -.0021(7)
Na1 Na1+ 0.0475(53) 0.0190(38) 0.0428(52) 0.0013(37) 0.0238(45) 0.0025(36)
Na2 Na1+ 0.0469(58) 0.0450(56) 0.0406(54) 0.0225(47) 0.0208(48) 0.0094(45)
#End of data_49003-ICSD


