data_10499-ICSD
#?2014 by Fachinformationszentrum Karlsruhe, and the U.S. Secretary of 
#Commerce on behalf of the United States.  All rights reserved.
_database_code_ICSD                10499
_audit_creation_date               1980/01/01
_audit_update_record               2013/08/01
_chemical_name_systematic          'Sodium Nonaoxotetracobaltate(II)'
_chemical_formula_structural       'Na10 Co4 O9'
_chemical_formula_sum              'Co4 Na10 O9'
_publ_section_title
;
The preparation and crystal structures of the ternary oxides Na4 Co 
O3 and Na10 Co4 O9
;
loop_
_citation_id
_citation_journal_abbrev
_citation_year
_citation_journal_volume
_citation_page_first
_citation_page_last
_citation_journal_id_ASTM
primary 'Journal of Chemical Research (Synopsis)' 1979 1979 371 371 JRPSDC
_publ_author_name                  'Barker, M.G.;Fairhall, G.A.'
_cell_length_a                     8.5404
_cell_length_b                     8.4515
_cell_length_c                     11.3433
_cell_angle_alpha                  93.492
_cell_angle_beta                   105.626
_cell_angle_gamma                  121.165
_cell_volume                       654.46
_cell_formula_units_Z              2
_symmetry_space_group_name_H-M     'P -1'
_symmetry_Int_Tables_number        2
loop_
_symmetry_equiv_pos_site_id
_symmetry_equiv_pos_as_xyz
  1	'-x, -y, -z'
  2	'x, y, z'
loop_
_atom_type_symbol
_atom_type_oxidation_number
Co2+	2
Na1+	1
O2-	-2
loop_
_atom_site_label
_atom_site_type_symbol
_atom_site_symmetry_multiplicity
_atom_site_Wyckoff_symbol
_atom_site_fract_x
_atom_site_fract_y
_atom_site_fract_z
_atom_site_occupancy
_atom_site_attached_hydrogens
Co1 Co2+ 2 i 0.5761(1) 0.8301(1) 0.64906(6) 1. 0 
Co2 Co2+ 2 i 0.06331(9) 0.59571(9) 0.85716(6) 1. 0 
Co3 Co2+ 2 i 0.29216(9) 0.97833(9) 0.64203(6) 1. 0 
Co4 Co2+ 2 i 0.7593(1) 0.7207(1) 0.85006(6) 1. 0 
Na1 Na1+ 2 i 0.8280(3) 0.9855(3) 0.1296(2) 1. 0 
Na2 Na1+ 2 i 0.8458(3) 0.4597(3) 0.3868(2) 1. 0 
Na3 Na1+ 2 i 0.6534(3) 0.5735(3) 0.1266(2) 1. 0 
Na4 Na1+ 2 i 0.5016(3) 0.1171(3) 0.1074(2) 1. 0 
Na5 Na1+ 2 i 0.3746(3) 0.7100(3) 0.1362(2) 1. 0 
Na6 Na1+ 2 i 0.5235(3) 0.5983(3) 0.3781(2) 1. 0 
Na7 Na1+ 2 i 0.9935(3) 0.8631(3) 0.3555(2) 1. 0 
Na8 Na1+ 2 i 0.1412(3) 0.3153(3) 0.3832(2) 1. 0 
Na9 Na1+ 2 i 0.2622(3) 0.7362(3) 0.3844(2) 1. 0 
Na10 Na1+ 2 i 0.1038(3) 0.8279(3) 0.1212(2) 1. 0 
O1 O2- 2 i 0.4493(5) 0.9794(5) 0.2880(3) 1. 0 
O2 O2- 2 i 0.1626(5) 0.0968(5) 0.2529(3) 1. 0 
O3 O2- 2 i 0.7488(5) 0.1825(5) 0.0263(3) 1. 0 
O4 O2- 2 i 0.9394(5) 0.5971(5) 0.2247(3) 1. 0 
O5 O2- 2 i 0.2000(5) 0.4574(5) 0.2153(3) 1. 0 
O6 O2- 2 i 0.9066(5) 0.2400(5) 0.4720(3) 1. 0 
O7 O2- 2 i 0.3507(5) 0.2802(5) 0.0373(3) 1. 0 
O8 O2- 2 i 0.6006(5) 0.3924(5) 0.4659(3) 1. 0 
O9 O2- 2 i 0.6903(5) 0.8188(5) 0.2739(3) 1. 0 

loop_
_atom_site_aniso_label
_atom_site_aniso_type_symbol
_atom_site_aniso_U_11
_atom_site_aniso_U_22
_atom_site_aniso_U_33
_atom_site_aniso_U_12
_atom_site_aniso_U_13
_atom_site_aniso_U_23
Co1 Co2+ 0.0134(3) 0.0165(3) 0.0121(3) 0.0084(3) 0.0053(2) 0.0035(2)
Co2 Co2+ 0.0132(3) 0.0155(3) 0.0122(3) 0.0086(3) 0.0051(2) 0.0032(2)
Co3 Co2+ 0.0134(3) 0.0157(3) 0.0121(3) 0.0087(3) 0.0052(2) 0.0034(2)
Co4 Co2+ 0.0130(3) 0.0179(3) 0.0129(3) 0.0091(3) 0.0060(2) 0.0042(2)
Na1 Na1+ 0.0163(9) 0.019(1) 0.016(1) 0.0106(8) 0.0061(8) 0.0069(8)
Na2 Na1+ 0.0157(9) 0.020(1) 0.0150(9) 0.0102(8) 0.0070(8) 0.0052(8)
Na3 Na1+ 0.0154(9) 0.019(1) 0.017(1) 0.0095(8) 0.0054(8) 0.0049(8)
Na4 Na1+ 0.0170(9) 0.020(1) 0.0161(9) 0.0113(8) 0.0065(8) 0.0048(8)
Na5 Na1+ 0.018(1) 0.023(1) 0.019(1) 0.0119(9) 0.0048(8) 0.0079(8)
Na6 Na1+ 0.019(1) 0.021(1) 0.0163(9) 0.0131(8) 0.0098(8) 0.0087(8)
Na7 Na1+ 0.0157(9) 0.020(1) 0.0158(9) 0.0112(8) 0.0059(8) 0.0068(8)
Na8 Na1+ 0.020(1) 0.020(1) 0.017(1) 0.0106(9) 0.0095(8) 0.0041(8)
Na9 Na1+ 0.018(1) 0.025(1) 0.018(1) 0.0139(9) 0.0074(8) 0.0090(9)
Na10 Na1+ 0.026(1) 0.022(1) 0.021(1) 0.0136(9) 0.0157(9) 0.0069(9)
O1 O2- 0.016(2) 0.017(2) 0.018(2) 0.012(1) 0.008(1) 0.005(1)
O2 O2- 0.012(1) 0.019(2) 0.016(2) 0.010(1) 0.007(1) 0.007(1)
O3 O2- 0.015(2) 0.018(2) 0.011(2) 0.009(1) 0.005(1) 0.002(1)
O4 O2- 0.015(2) 0.017(2) 0.013(2) 0.011(1) 0.006(1) 0.004(1)
O5 O2- 0.018(2) 0.020(2) 0.018(2) 0.013(1) 0.008(1) 0.008(1)
O6 O2- 0.016(2) 0.016(2) 0.012(2) 0.009(1) 0.004(1) 0.002(1)
O7 O2- 0.021(2) 0.021(2) 0.015(2) 0.012(2) 0.010(1) 0.005(1)
O8 O2- 0.017(2) 0.019(2) 0.012(2) 0.012(1) 0.006(1) 0.004(1)
O9 O2- 0.015(2) 0.018(2) 0.015(2) 0.010(1) 0.007(1) 0.005(1)
#End of data_10499-ICSD


