data_30384-ICSD
#?2014 by Fachinformationszentrum Karlsruhe, and the U.S. Secretary of 
#Commerce on behalf of the United States.  All rights reserved.
_database_code_ICSD                30384
_audit_creation_date               1980/01/01
_audit_update_record               2009/02/01
_chemical_name_systematic          'Sodium Yttrium Silicate'
_chemical_formula_structural       'Na Y (Si O4)'
_chemical_formula_sum              'Na1 O4 Si1 Y1'
_publ_section_title
;
Crystal structure of the Na-Y orthosilicate Na Y (Si O4)
;
loop_
_citation_id
_citation_journal_abbrev
_citation_year
_citation_journal_volume
_citation_page_first
_citation_page_last
_citation_journal_id_ASTM
primary Kristallografiya 1966 11 681 683 KRISAJ
2 'Soviet Physics, Crystallography (= Kristallografiya)'
 1966 11 583 584 SPHCA6
_publ_author_name
;
Maksimov, B.A.;Ilyukhin, V.V.;Belov, N.V.
;
_cell_length_a                     4.95
_cell_length_b                     11.3
_cell_length_c                     6.3
_cell_angle_alpha                  90.
_cell_angle_beta                   90.
_cell_angle_gamma                  90.
_cell_volume                       352.39
_cell_formula_units_Z              4
_symmetry_space_group_name_H-M     'P b n 21'
_symmetry_Int_Tables_number        33
loop_
_symmetry_equiv_pos_site_id
_symmetry_equiv_pos_as_xyz
  1	'-x+.5, y+.5, z'
  2	'x+.5, -y+.5, z+.5'
  3	'-x, -y, z+.5'
  4	'x, y, z'
loop_
_atom_type_symbol
_atom_type_oxidation_number
Na1+	1
O2-	-2
Si4+	4
Y3+	3
loop_
_atom_site_label
_atom_site_type_symbol
_atom_site_symmetry_multiplicity
_atom_site_Wyckoff_symbol
_atom_site_fract_x
_atom_site_fract_y
_atom_site_fract_z
_atom_site_occupancy
_atom_site_attached_hydrogens
Y1 Y3+ 4 a 0.002 0.22 0 1. 0 
Na1 Na1+ 4 a 0.5 0.01 0.254 1. 0 
Si1 Si4+ 4 a 0.066 0.105 0.489 1. 0 
O1 O2- 4 a 0.225 0.162 0.705 1. 0 
O2 O2- 4 a 0.185 0.184 0.32 1. 0 
O3 O2- 4 a 0.349 0.457 0.478 1. 0 
O4 O2- 4 a 0.261 0.4 0.017 1. 0 

#End of data_30384-ICSD


