data_261231-ICSD
#?2014 by Fachinformationszentrum Karlsruhe, and the U.S. Secretary of 
#Commerce on behalf of the United States.  All rights reserved.
_database_code_ICSD                261231
_audit_creation_date               2011/02/01
_chemical_name_systematic          'Trimagnesium Diphosphate'
_chemical_formula_structural       'Mg3 (P2 O8)'
_chemical_formula_sum              'Mg3 O8 P2'
_publ_section_title
;
Strontium magnesium phosphate, Sr(2+x) Mg(3-x) P4 O15 (x ~ 0.36), 
from laboratory X-ray powder data
;
loop_
_citation_id
_citation_journal_abbrev
_citation_year
_citation_journal_volume
_citation_journal_issue
_citation_page_first
_citation_page_last
_citation_journal_id_ASTM
primary 'Acta Crystallographica, Section C: Crystal Structure Communications'
 2011 67 1 i1 i3 ACSCEE
_publ_author_name
;
Hong Junghwa;Song Seungwan;Hong Seungtae
;
_cell_length_a                     7.594(3)
_cell_length_b                     8.282(8)
_cell_length_c                     5.071(4)
_cell_angle_alpha                  90.0
_cell_angle_beta                   94.01(6)
_cell_angle_gamma                  90.0
_cell_volume                       318.15
_cell_formula_units_Z              2
_symmetry_space_group_name_H-M     'P 1 21/n 1'
_symmetry_Int_Tables_number        14
_refine_ls_R_factor_all            .049
loop_
_symmetry_equiv_pos_site_id
_symmetry_equiv_pos_as_xyz
  1	'-x+.5, y+.5, -z+.5'
  2	'-x, -y, -z'
  3	'x+.5, -y+.5, z+.5'
  4	'x, y, z'
loop_
_atom_type_symbol
_atom_type_oxidation_number
Mg2+	2
O2-	-2
P5+	5
loop_
_atom_site_label
_atom_site_type_symbol
_atom_site_symmetry_multiplicity
_atom_site_Wyckoff_symbol
_atom_site_fract_x
_atom_site_fract_y
_atom_site_fract_z
_atom_site_occupancy
_atom_site_attached_hydrogens
_atom_site_U_iso_or_equiv
Mg1 Mg2+ 4 e 0.6095 0.1432 0.092 1.0 0 0.015 
Mg2 Mg2+ 2 b 0.0 0.0 0.5 1.0 0 0.015 
P1 P5+ 4 e 0.1996 0.1946 0.0355 1.0 0 0.015 
O1 O2- 4 e 0.0589 0.1446 0.8188 1.0 0 0.015 
O2 O2- 4 e 0.1262 0.1995 0.3036 1.0 0 0.015 
O3 O2- 4 e 0.2592 0.3629 0.947 1.0 0 0.015 
O4 O2- 4 e 0.3545 0.0759 0.0459 1.0 0 0.015 

#End of data_261231-ICSD


