data_30892-ICSD
#?2014 by Fachinformationszentrum Karlsruhe, and the U.S. Secretary of 
#Commerce on behalf of the United States.  All rights reserved.
_database_code_ICSD                30892
_audit_creation_date               1985/05/29
_audit_update_record               2004/04/01
_chemical_name_systematic          'Potassium Hydrogen Catena-silicate'
_chemical_formula_structural       'K H (Si O3)'
_chemical_formula_sum              'H1 K1 O3 Si1'
_publ_section_title
;
A re-investigation of the crystal structure of potassium hydrogen 
metasilicate, K H Si O3
;
loop_
_citation_id
_citation_journal_abbrev
_citation_year
_citation_journal_volume
_citation_page_first
_citation_page_last
_citation_journal_id_ASTM
primary 'Zeitschrift fuer Kristallographie (1979-2010)' 1984 168 307 312 ZEKRDZ
_publ_author_name
;
Dent Glasser, L.S.;Howie, R.A.;Xi Yaozhong
;
_cell_length_a                     11.537(7)
_cell_length_b                     9.694(6)
_cell_length_c                     11.245(9)
_cell_angle_alpha                  90.
_cell_angle_beta                   90.
_cell_angle_gamma                  90.
_cell_volume                       1257.64
_cell_formula_units_Z              16
_symmetry_space_group_name_H-M     'C m c a'
_symmetry_Int_Tables_number        64
_refine_ls_R_factor_all            .041
loop_
_symmetry_equiv_pos_site_id
_symmetry_equiv_pos_as_xyz
  1	'-x, -y+.5, z+.5'
  2	'-x, y+.5, -z+.5'
  3	'-x, y, z'
  4	'-x, -y, -z'
  5	'x, y+.5, -z+.5'
  6	'x, -y+.5, z+.5'
  7	'x, -y, -z'
  8	'x, y, z'
  9	'-x+.5, -y, z+.5'
 10	'-x+.5, y, -z+.5'
 11	'-x+.5, y+.5, z'
 12	'-x+.5, -y+.5, -z'
 13	'x+.5, y, -z+.5'
 14	'x+.5, -y, z+.5'
 15	'x+.5, -y+.5, -z'
 16	'x+.5, y+.5, z'
loop_
_atom_type_symbol
_atom_type_oxidation_number
H1+	1
K1+	1
O2-	-2
Si4+	4
loop_
_atom_site_label
_atom_site_type_symbol
_atom_site_symmetry_multiplicity
_atom_site_Wyckoff_symbol
_atom_site_fract_x
_atom_site_fract_y
_atom_site_fract_z
_atom_site_occupancy
_atom_site_attached_hydrogens
_atom_site_B_iso_or_equiv
O1 O2- 16 g 0.1125(3) 0.4544(3) 0.1118(3) 1. 0 0 
O2 O2- 16 g 0.2727(3) 0.1326(3) 0.4658(3) 1. 0 0 
O3 O2- 8 f 0 0.4343(5) 0.3116(4) 1. 0 0 
O4 O2- 8 f 0 0.1750(5) 0.2980(4) 1. 0 0 
Si1 Si4+ 8 f 0 0.0145(2) 0.3156(2) 1. 0 0 
Si2 Si4+ 8 d 0.1968(2) 0 0.5 1. 0 0 
K1 K1+ 8 f 0 0.1785(2) 0.0413(1) 1. 0 0 
K2 K1+ 8 e 0.25 0.2382(2) 0.75 1. 0 0 
H1 H1+ 8 f 0 0.339(11) 0.3156(92) 1. 0 2.3(25) 
H2 H1+ 8 c 0.25 0.25 0.5 1. 0 6.3(38) 

loop_
_atom_site_aniso_label
_atom_site_aniso_type_symbol
_atom_site_aniso_B_11
_atom_site_aniso_B_22
_atom_site_aniso_B_33
_atom_site_aniso_B_12
_atom_site_aniso_B_13
_atom_site_aniso_B_23
O1 O2- 3.2(3) 3.6(3) 4.2(3) 0.9(5) 2.6(4) 0.9(5)
O2 O2- 2.5(3) 4.0(3) 5.4(3) -.1(5) 1.3(4) -1.9(5)
O3 O2- 5.7(4) 2.2(4) 2.3(4) 0.4(6) 0 0
O4 O2- 5.2(4) 2.1(5) 4.1(4) 1.1(7) 0 0
Si1 Si4+ 2.1(1) 1.8(2) 1.8(1) 0.1(2) 0 0
Si2 Si4+ 1.7(1) 3.3(2) 2.2(1) -.2(2) 0 0
K1 K1+ 2.4(1) 4.6(2) 2.8(1) -.7(2) 0 0
K2 K1+ 4.1(1) 6.0(2) 3.4(1) 0 -1.5(2) 0
#End of data_30892-ICSD


