data_62594-ICSD
#?2014 by Fachinformationszentrum Karlsruhe, and the U.S. Secretary of 
#Commerce on behalf of the United States.  All rights reserved.
_database_code_ICSD                62594
_audit_creation_date               1988/02/22
_audit_update_record               2010/02/01
_chemical_name_systematic          'Tetrasodium Silicate'
_chemical_formula_structural       'Na4 (Si O4)'
_chemical_formula_sum              'Na4 O4 Si1'
_publ_section_title
;
Comparison of the crystal structures of sodium orthosilicate, Na4 Si 
O4, and sodium orthogermanate Na4 Ge O4.
;
loop_
_citation_id
_citation_journal_abbrev
_citation_year
_citation_journal_volume
_citation_page_first
_citation_page_last
_citation_journal_id_ASTM
primary 'Monatshefte fuer Chemie' 1986 117 793 797 MOCMB7
_publ_author_name
;
Baur, W.H.;Halwax, E.;Voellenkle, H.
;
_cell_length_a                     5.576
_cell_length_b                     5.576
_cell_length_c                     8.393
_cell_angle_alpha                  80.92
_cell_angle_beta                   71.84
_cell_angle_gamma                  67.44
_cell_volume                       228.76
_cell_formula_units_Z              2
_symmetry_space_group_name_H-M     'P -1'
_symmetry_Int_Tables_number        2
_refine_ls_R_factor_all            .0547
loop_
_symmetry_equiv_pos_site_id
_symmetry_equiv_pos_as_xyz
  1	'-x, -y, -z'
  2	'x, y, z'
loop_
_atom_type_symbol
_atom_type_oxidation_number
Na1+	1
O2-	-2
Si4+	4
loop_
_atom_site_label
_atom_site_type_symbol
_atom_site_symmetry_multiplicity
_atom_site_Wyckoff_symbol
_atom_site_fract_x
_atom_site_fract_y
_atom_site_fract_z
_atom_site_occupancy
_atom_site_attached_hydrogens
Na1 Na1+ 2 i 0.4545(2) 0.7319(2) 0.1113(1) 1. 0 
Na2 Na1+ 2 i 0.7351(2) 0.2565(2) 0.4803(1) 1. 0 
Na3 Na1+ 2 i 0.9038(2) 0.7640(2) 0.3318(1) 1. 0 
Na4 Na1+ 2 i 0.9828(2) 0.2323(2) 0.0617(2) 1. 0 
Si1 Si4+ 2 i 0.3438(1) 0.2252(1) 0.2521(1) 1. 0 
O1 O2- 2 i 0.1564(3) 0.0428(3) 0.3074(2) 1. 0 
O2 O2- 2 i 0.2093(3) 0.4625(3) 0.1259(2) 1. 0 
O3 O2- 2 i 0.3473(3) 0.3558(4) 0.4116(2) 1. 0 
O4 O2- 2 i 0.6498(3) 0.0443(3) 0.1486(2) 1. 0 

#End of data_62594-ICSD


