data_80669-ICSD
#?2014 by Fachinformationszentrum Karlsruhe, and the U.S. Secretary of 
#Commerce on behalf of the United States.  All rights reserved.
_database_code_ICSD                80669
_audit_creation_date               1997/05/13
_audit_update_record               1999/01/19
_chemical_name_systematic          'Magnesium Catena-silicate - Hp'
_chemical_formula_structural       'Mg Si O3'
_chemical_formula_sum              'Mg1 O3 Si1'
_chemical_name_mineral             'Clinoenstatite HP'
_publ_section_title
;
Stability of high-density clinoenstatite at upper-mantle pressures
;
loop_
_citation_id
_citation_journal_abbrev
_citation_year
_citation_journal_volume
_citation_page_first
_citation_page_last
_citation_journal_id_ASTM
primary 'Nature (London)' 1992 358 322 324 NATUAS
_publ_author_name
;
Angel, R.J.;Chopelas, A.;Ross, N.L.
;
_cell_length_a                     9.201(3)
_cell_length_b                     8.621(1)
_cell_length_c                     4.908(1)
_cell_angle_alpha                  90.
_cell_angle_beta                   101.50(3)
_cell_angle_gamma                  90.
_cell_volume                       381.5
_cell_formula_units_Z              8
_symmetry_space_group_name_H-M     'C 1 2/c 1'
_symmetry_Int_Tables_number        15
_refine_ls_R_factor_all            .041
loop_
_symmetry_equiv_pos_site_id
_symmetry_equiv_pos_as_xyz
  1	'x, -y, z+.5'
  2	'-x, -y, -z'
  3	'-x, y, -z+.5'
  4	'x, y, z'
  5	'x+.5, -y+.5, z+.5'
  6	'-x+.5, -y+.5, -z'
  7	'-x+.5, y+.5, -z+.5'
  8	'x+.5, y+.5, z'
loop_
_atom_type_symbol
_atom_type_oxidation_number
Mg2+	2
O2-	-2
Si4+	4
loop_
_atom_site_label
_atom_site_type_symbol
_atom_site_symmetry_multiplicity
_atom_site_Wyckoff_symbol
_atom_site_fract_x
_atom_site_fract_y
_atom_site_fract_z
_atom_site_occupancy
_atom_site_attached_hydrogens
_atom_site_B_iso_or_equiv
Mg1 Mg2+ 4 e 0 0.9057(6) 0.25 1. 0 0.34(7) 
Mg2 Mg2+ 4 e 0 0.2742(5) 0.25 1. 0 0.57(8) 
Si1 Si4+ 8 f 0.2988(4) 0.0915(3) 0.2112(4) 1. 0 0.29(4) 
O1 O2- 8 f 0.1215(9) 0.0914(8) 0.139(1) 1. 0 0.4(1) 
O2 O2- 8 f 0.380(1) 0.2376(7) 0.367(1) 1. 0 0.4(1) 
O3 O2- 8 f 0.357(1) 0.0613(6) 0.915(1) 1. 0 0.3(1) 

#End of data_80669-ICSD


