data_413762-ICSD
#?2014 by Fachinformationszentrum Karlsruhe, and the U.S. Secretary of 
#Commerce on behalf of the United States.  All rights reserved.
_database_code_ICSD                413762
_audit_creation_date               2005/10/01
_chemical_name_systematic
;
Tetrasodium Bis(triphosphimato(V))niccolate Dodecahydrate
;
_chemical_formula_structural       'Na4 (Ni ((P O2 N H)3)2) (H2 O)12'
_chemical_formula_sum              'H30 N6 Na4 Ni1 O24 P6'
_publ_section_title
;
Synthesis, crystal structures and properties of the bis-
(trimetaphosphimato)-metallates Na4 (Co ((P O2 N)3)2).12H2 O and Na4 
(Ni ((P O2 N H)3)2).12H2 O
;
loop_
_citation_id
_citation_journal_abbrev
_citation_year
_citation_journal_volume
_citation_page_first
_citation_page_last
_citation_journal_id_ASTM
primary 'Solid State Sciences' 2004 6 953 965 SSSCFJ
_publ_author_name                  'Correll, S.;Stock, N.;Schnick, W.'
_cell_length_a                     8.903(1)
_cell_length_b                     18.902(2)
_cell_length_c                     17.133(2)
_cell_angle_alpha                  90.00
_cell_angle_beta                   104.62(1)
_cell_angle_gamma                  90.00
_cell_volume                       2789.86
_cell_formula_units_Z              4
_symmetry_space_group_name_H-M     'P 1 21/n 1'
_symmetry_Int_Tables_number        14
_refine_ls_R_factor_all            .0521
loop_
_symmetry_equiv_pos_site_id
_symmetry_equiv_pos_as_xyz
  1	'-x+.5, y+.5, -z+.5'
  2	'-x, -y, -z'
  3	'x+.5, -y+.5, z+.5'
  4	'x, y, z'
loop_
_atom_type_symbol
_atom_type_oxidation_number
H1+	1
N3-	-3
Na1+	1
Ni2+	2
O2-	-2
P5+	5
loop_
_atom_site_label
_atom_site_type_symbol
_atom_site_symmetry_multiplicity
_atom_site_Wyckoff_symbol
_atom_site_fract_x
_atom_site_fract_y
_atom_site_fract_z
_atom_site_occupancy
_atom_site_attached_hydrogens
_atom_site_U_iso_or_equiv
Ni1 Ni2+ 2 a 0.0000 0.0000 0.0000 1 0 0.00957(18) 
Ni2 Ni2+ 2 b 0.5000 0.5000 0.0000 1 0 0.00805(18) 
Na1 Na1+ 4 e 0.3300(2) 0.02415(10) -0.07060(12) 1 0 0.0350(5) 
Na2 Na1+ 4 e 0.82229(17) 0.52612(8) -0.06384(9) 1 0 0.0176(3) 
Na3 Na1+ 4 e -0.01312(16) 0.64407(9) -0.24956(8) 1 0 0.0180(4) 
Na4 Na1+ 4 e 0.56608(19) 0.45535(9) 0.19556(9) 1 0 0.0225(4) 
P1 P5+ 4 e 0.09005(11) 0.15515(5) -0.04338(5) 1 0 0.0097(2) 
P2 P5+ 4 e -0.18225(10) 0.13967(5) 0.01851(5) 1 0 0.0104(2) 
P3 P5+ 4 e 0.12468(10) 0.12405(5) 0.12549(5) 1 0 0.0099(2) 
P4 P5+ 4 e 0.57845(10) 0.65835(5) -0.04143(5) 1 0 0.0087(2) 
P5 P5+ 4 e 0.30390(10) 0.63783(5) 0.01629(5) 1 0 0.0092(2) 
P6 P5+ 4 e 0.60761(10) 0.62466(5) 0.12596(5) 1 0 0.0094(2) 
N1 N3- 4 e -0.0932(3) 0.18025(16) -0.04570(17) 1 0 0.0112(6) 
H1 H1+ 4 e -0.1045 0.2238 -0.0401 1 0 0.013 
N2 N3- 4 e -0.0611(3) 0.15065(17) 0.11045(18) 1 0 0.0130(6) 
H2 H1+ 4 e -0.0750 0.1875 0.1374 1 0 0.016 
N3 N3- 4 e 0.1926(3) 0.16311(16) 0.05294(17) 1 0 0.0114(6) 
H3 H1+ 4 e 0.2431 0.2037 0.0626 1 0 0.014 
N4 N3- 4 e 0.3926(3) 0.68020(16) -0.04642(17) 1 0 0.0100(6) 
H4 H1+ 4 e 0.3781 0.7227 -0.0383 1 0 0.012 
N5 N3- 4 e 0.4199(3) 0.64791(16) 0.10947(17) 1 0 0.0113(6) 
H5 H1+ 4 e 0.4042 0.6839 0.1352 1 0 0.014 
N6 N3- 4 e 0.6754(3) 0.66652(16) 0.05515(17) 1 0 0.0117(6) 
H6 H1+ 4 e 0.7225 0.7047 0.0648 1 0 0.014 
O1 O2- 4 e 0.0838(3) 0.07736(13) -0.06392(14) 1 0 0.0117(5) 
O2 O2- 4 e 0.1546(3) 0.20351(14) -0.09583(15) 1 0 0.0143(6) 
O3 O2- 4 e -0.1902(3) 0.06181(13) -0.00080(15) 1 0 0.0139(5) 
O4 O2- 4 e -0.3334(3) 0.17579(14) 0.01535(16) 1 0 0.0149(6) 
O5 O2- 4 e 0.1172(3) 0.04573(14) 0.10794(15) 1 0 0.0143(5) 
O6 O2- 4 e 0.2188(3) 0.14723(14) 0.20641(15) 1 0 0.0154(6) 
O7 O2- 4 e 0.5770(3) 0.58069(13) -0.06311(14) 1 0 0.0100(5) 
O8 O2- 4 e 0.6424(3) 0.70808(13) -0.09269(15) 1 0 0.0133(5) 
O9 O2- 4 e 0.3010(3) 0.56021(13) -0.00507(14) 1 0 0.0105(5) 
O10 O2- 4 e 0.1512(3) 0.67251(14) 0.01229(15) 1 0 0.0138(5) 
O11 O2- 4 e 0.6072(3) 0.54676(13) 0.10750(14) 1 0 0.0115(5) 
O12 O2- 4 e 0.6955(3) 0.64827(14) 0.20783(15) 1 0 0.0147(6) 
O13 O2- 4 e 0.4273(3) 0.13565(17) -0.12371(17) 1 0 0.0257(7) 
H7 H1+ 4 e 0.5014 0.1527 -0.0826 1 0 0.031 
H8 H1+ 4 e 0.3489 0.1639 -0.1240 1 0 0.031 
O14 O2- 4 e 0.5217(4) -0.0653(2) -0.0576(2) 1 0 0.0487(10) 
H9 H1+ 4 e 0.4816 -0.1028 -0.0433 1 0 0.058 
H10 H1+ 4 e 0.6029 -0.0750 -0.0729 1 0 0.058 
O15 O2- 4 e 0.6656(4) 0.51895(19) 0.31253(18) 1 0 0.0331(8) 
H11 H1+ 4 e 0.6956 0.5578 0.2982 1 0 0.040 
H12 H1+ 4 e 0.5848 0.5312 0.3305 1 0 0.040 
O16 O2- 4 e 0.9053(3) 0.63718(15) -0.12148(16) 1 0 0.0196(6) 
H13 H1+ 4 e 0.9863 0.6523 -0.0790 1 0 0.023 
H14 H1+ 4 e 0.8244 0.6614 -0.1202 1 0 0.023 
O17 O2- 4 e 0.9853(3) 0.56275(15) 0.06181(16) 1 0 0.0195(6) 
H15 H1+ 4 e 1.0242 0.6041 0.0448 1 0 0.023 
H16 H1+ 4 e 0.9618 0.5687 0.1047 1 0 0.023 
O18 O2- 4 e 0.6819(3) 0.48782(16) -0.19198(17) 1 0 0.0238(6) 
H17 H1+ 4 e 0.6844 0.4424 -0.2039 1 0 0.029 
H18 H1+ 4 e 0.7013 0.5088 -0.2353 1 0 0.029 
O19 O2- 4 e 0.1663(3) 0.73466(15) -0.20187(16) 1 0 0.0193(6) 
H19 H1+ 4 e 0.1823 0.7674 -0.2339 1 0 0.023 
H20 H1+ 4 e 0.2527 0.7205 -0.1739 1 0 0.023 
O20 O2- 4 e -0.1851(3) 0.73874(15) -0.29852(16) 1 0 0.0204(6) 
H21 H1+ 4 e -0.2032 0.7742 -0.2653 1 0 0.024 
H22 H1+ 4 e -0.2806 0.7279 -0.3315 1 0 0.024 
O21 O2- 4 e 0.7703(4) 0.57263(19) -0.3059(2) 1 0 0.0464(10) 
H23 H1+ 4 e 0.7497 0.5516 -0.3512 1 0 0.056 
H24 H1+ 4 e 0.7046 0.6090 -0.3091 1 0 0.056 
O22 O2- 4 e 0.1620(4) 0.55646(17) -0.18597(17) 1 0 0.0274(7) 
H25 H1+ 4 e 0.1103 0.5215 -0.2056 1 0 0.033 
H26 H1+ 4 e 0.1875 0.5544 -0.1359 1 0 0.033 
O23 O2- 4 e 0.4987(4) 0.3477(2) 0.24886(18) 1 0 0.0441(11) 
H27 H1+ 4 e 0.4596 0.3195 0.2088 1 0 0.053 
H28 H1+ 4 e 0.5468 0.3223 0.2914 1 0 0.053 
O24 O2- 4 e 0.9835(4) 0.5831(2) 0.2316(3) 1 0 0.0479(10) 
H29 H1+ 4 e 1.0690 0.6051 0.2593 1 0 0.058 
H30 H1+ 4 e 0.9073 0.6099 0.2380 1 0 0.058 

loop_
_atom_site_aniso_label
_atom_site_aniso_type_symbol
_atom_site_aniso_U_11
_atom_site_aniso_U_22
_atom_site_aniso_U_33
_atom_site_aniso_U_12
_atom_site_aniso_U_13
_atom_site_aniso_U_23
Ni1 Ni2+ 0.0119(3) 0.0056(3) 0.0104(3) -0.0004(2) 0.0015(2) -0.0002(2)
Ni2 Ni2+ 0.0102(3) 0.0055(3) 0.0087(3) 0.0000(2) 0.0029(2) -0.0003(2)
Na1 Na1+ 0.0274(10) 0.0275(10) 0.0460(11) -0.0010(8) 0.0016(8) 0.0034(8)
Na2 Na1+ 0.0144(7) 0.0143(8) 0.0234(8) 0.0005(6) 0.0034(6) 0.0020(6)
Na3 Na1+ 0.0180(8) 0.0157(8) 0.0194(8) 0.0001(6) 0.0030(6) 0.0012(6)
Na4 Na1+ 0.0269(9) 0.0209(9) 0.0192(8) -0.0024(7) 0.0049(6) 0.0010(6)
P1 P5+ 0.0124(5) 0.0074(5) 0.0095(4) -0.0008(3) 0.0029(3) -0.0001(3)
P2 P5+ 0.0099(4) 0.0075(5) 0.0134(5) 0.0002(3) 0.0022(3) -0.0001(3)
P3 P5+ 0.0117(4) 0.0087(5) 0.0087(4) -0.0006(3) 0.0014(3) -0.0001(3)
P4 P5+ 0.0105(4) 0.0060(5) 0.0101(4) -0.0007(3) 0.0036(3) -0.0003(3)
P5 P5+ 0.0096(4) 0.0070(5) 0.0113(4) 0.0008(3) 0.0030(3) -0.0004(3)
P6 P5+ 0.0110(4) 0.0082(5) 0.0089(4) 0.0002(3) 0.0020(3) -0.0012(3)
N1 N3- 0.0143(15) 0.0062(14) 0.0122(15) 0.0014(12) 0.0019(12) 0.0005(11)
N2 N3- 0.0153(16) 0.0133(16) 0.0115(15) 0.0030(12) 0.0052(12) -0.0009(12)
N3 N3- 0.0126(15) 0.0112(15) 0.0101(15) -0.0035(12) 0.0025(12) -0.0005(12)
N4 N3- 0.0122(15) 0.0058(14) 0.0115(14) 0.0007(12) 0.0021(12) 0.0004(11)
N5 N3- 0.0145(15) 0.0096(15) 0.0107(15) 0.0009(12) 0.0047(12) -0.0024(12)
N6 N3- 0.0145(15) 0.0088(15) 0.0116(15) -0.0040(12) 0.0029(12) -0.0013(12)
O1 O2- 0.0175(13) 0.0071(13) 0.0110(12) 0.0011(10) 0.0042(10) -0.0006(10)
O2 O2- 0.0198(14) 0.0117(13) 0.0117(12) -0.0041(11) 0.0043(10) 0.0003(10)
O3 O2- 0.0133(13) 0.0082(13) 0.0191(13) -0.0004(10) 0.0022(10) 0.0000(10)
O4 O2- 0.0117(13) 0.0111(13) 0.0212(14) 0.0010(10) 0.0029(10) -0.0006(11)
O5 O2- 0.0187(13) 0.0087(13) 0.0132(12) 0.0010(10) 0.0001(10) 0.0013(10)
O6 O2- 0.0183(14) 0.0146(14) 0.0112(13) -0.0001(11) -0.0003(10) -0.0017(10)
O7 O2- 0.0132(12) 0.0067(12) 0.0112(12) 0.0000(10) 0.0048(9) -0.0016(10)
O8 O2- 0.0159(13) 0.0104(13) 0.0140(12) -0.0026(10) 0.0048(10) 0.0005(10)
O9 O2- 0.0126(12) 0.0064(12) 0.0128(12) -0.0007(10) 0.0037(10) -0.0009(10)
O10 O2- 0.0102(13) 0.0116(13) 0.0202(14) 0.0005(10) 0.0049(10) -0.0013(10)
O11 O2- 0.0150(13) 0.0088(13) 0.0100(12) 0.0009(10) 0.0021(10) 0.0006(10)
O12 O2- 0.0159(13) 0.0137(13) 0.0127(13) 0.0012(10) 0.0003(10) -0.0032(10)
O13 O2- 0.0177(14) 0.0372(19) 0.0208(15) 0.0046(13) 0.0023(11) -0.0017(13)
O14 O2- 0.043(2) 0.064(3) 0.047(2) 0.014(2) 0.0278(18) 0.010(2)
O15 O2- 0.0343(18) 0.040(2) 0.0264(16) -0.0054(15) 0.0104(14) -0.0125(14)
O16 O2- 0.0158(14) 0.0237(16) 0.0189(14) 0.0021(11) 0.0039(11) -0.0005(11)
O17 O2- 0.0227(15) 0.0182(15) 0.0202(14) -0.0013(12) 0.0101(11) -0.0003(11)
O18 O2- 0.0281(16) 0.0221(16) 0.0202(15) 0.0021(13) 0.0045(12) -0.0018(12)
O19 O2- 0.0190(14) 0.0173(15) 0.0188(14) -0.0012(11) -0.0003(11) 0.0043(11)
O20 O2- 0.0231(14) 0.0159(15) 0.0191(14) 0.0009(12) -0.0004(11) -0.0008(11)
O21 O2- 0.056(2) 0.032(2) 0.038(2) -0.0168(18) -0.0108(17) 0.0046(16)
O22 O2- 0.0318(17) 0.0252(17) 0.0233(15) 0.0097(13) 0.0035(13) 0.0038(13)
O23 O2- 0.069(3) 0.028(2) 0.0224(18) -0.0141(17) -0.0130(17) 0.0079(13)
O24 O2- 0.0213(17) 0.033(2) 0.086(3) 0.0027(15) 0.0087(18) -0.015(2)
#End of data_413762-ICSD


