data_280739-ICSD
#?2014 by Fachinformationszentrum Karlsruhe, and the U.S. Secretary of 
#Commerce on behalf of the United States.  All rights reserved.
_database_code_ICSD                280739
_audit_creation_date               2002/10/01
_chemical_name_systematic
;
Tetrasilver 
Dioxobis(trioxoiodato(V))bis(tetraoxoiodato(V))tetrakis(di Xouranate)
;
_chemical_formula_structural       'Ag4 ((U O2)4 (I O3)2 (I O4)2 O2)'
_chemical_formula_sum              'Ag4 I4 O24 U4'
_publ_section_title
;
A new oxoanion: (I O4)(3-) containing I(V) with a stereochemically 
active lone-pair in the silver uranyl iodate tetraoxoiodate(V), Ag4 
(U O2)4 (I O3)2 (I O4)2 O2
;
loop_
_citation_id
_citation_journal_abbrev
_citation_year
_citation_journal_volume
_citation_page_first
_citation_page_last
_citation_journal_id_ASTM
primary 'Journal of the American Chemical Society' 2001 123 8806 8810 JACSAT
_publ_author_name
;
Bean, A.C.;Campana, C.F.;Kwon, O.;Albrecht Schmitt, T.E.
;
_cell_length_a                     15.040(7)
_cell_length_b                     8.051(4)
_cell_length_c                     18.3320(80)
_cell_angle_alpha                  90.
_cell_angle_beta                   100.738(7)
_cell_angle_gamma                  90.
_cell_volume                       2180.9
_cell_formula_units_Z              4
_symmetry_space_group_name_H-M     'P 1 21/n 1'
_symmetry_Int_Tables_number        14
_refine_ls_R_factor_all            .0514
loop_
_symmetry_equiv_pos_site_id
_symmetry_equiv_pos_as_xyz
  1	'-x+.5, y+.5, -z+.5'
  2	'-x, -y, -z'
  3	'x+.5, -y+.5, z+.5'
  4	'x, y, z'
loop_
_atom_type_symbol
_atom_type_oxidation_number
Ag1+	1
I5+	5
O2-	-2
U6+	6
loop_
_atom_site_label
_atom_site_type_symbol
_atom_site_symmetry_multiplicity
_atom_site_Wyckoff_symbol
_atom_site_fract_x
_atom_site_fract_y
_atom_site_fract_z
_atom_site_occupancy
_atom_site_attached_hydrogens
_atom_site_U_iso_or_equiv
U1 U6+ 4 e 0.12728(6) 0.76352(11) 0.08997(5) 1. 0 0 
U2 U6+ 4 e -.09049(6) 0.76183(11) 0.37983(5) 1. 0 0 
U3 U6+ 4 e -.00535(6) 0.53208(11) 0.21907(5) 1. 0 0 
U4 U6+ 4 e -.00690(6) 0.9961(1) 0.22029(5) 1. 0 0 
I1 I5+ 4 e 0.10838(10) 0.2672(2) 0.10389(8) 1. 0 0 
I2 I5+ 4 e -.08337(10) 0.2642(2) 0.35695(8) 1. 0 0 
I3 I5+ 4 e 0.35144(10) 0.9638(2) 0.05877(9) 1. 0 0 
I4 I5+ 4 e 0.32003(10) 0.4696(2) 0.04403(9) 1. 0 0 
Ag1 Ag1+ 4 e 0.24304(13) 0.0175(2) 0.24333(12) 1. 0 0 
Ag2 Ag1+ 4 e 0.1802(2) 0.2280(3) -.09522(12) 1. 0 0 
Ag3 Ag1+ 4 e 0.16929(15) 0.7374(3) -.09033(11) 1. 0 0 
Ag4 Ag1+ 4 e 0.25001(14) 0.9836(2) -.25654(13) 1. 0 0 
O1 O2- 4 e -.0532(10) 0.7627(18) 0.2710(8) 1. 0 0.010(3) 
O2 O2- 4 e 0.0228(11) 0.7688(20) 0.1619(9) 1. 0 0.018(4) 
O3 O2- 4 e 0.0785(10) 0.5033(19) 0.1156(9) 1. 0 0.015(4) 
O4 O2- 4 e 0.0249(11) 0.2624(20) 0.1683(9) 1. 0 0.015(4) 
O5 O2- 4 e -.0432(11) 0.261(2) 0.2686(9) 1. 0 0.015(4) 
O6 O2- 4 e -.0556(11) 0.5018(20) 0.3423(10) 1. 0 0.023(4) 
O7 O2- 4 e -.1193(10) 0.5513(20) 0.4695(9) 1. 0 0.017(4) 
O8 O2- 4 e -.1413(11) 0.9512(21) 0.4631(9) 1. 0 0.022(4) 
O9 O2- 4 e 0.0251(11) 0.7862(20) 0.4309(9) 1. 0 0.019(4) 
O10 O2- 4 e 0.1042(11) 0.0289(20) 0.1262(9) 1. 0 0.020(4) 
O11 O2- 4 e 0.2302(10) 0.9186(19) 0.0302(9) 1. 0 0.016(4) 
O12 O2- 4 e 0.2089(11) 0.5689(20) 0.0236(9) 1. 0 0.019(4) 
O13 O2- 4 e 0.0501(11) 0.7841(20) 0.0032(9) 1. 0 0.019(4) 
O14 O2- 4 e 0.2162(11) 0.7469(20) 0.1678(9) 1. 0 0.018(4) 
O15 O2- 4 e 0.3880(11) 0.7625(20) 0.0937(9) 1. 0 0.021(4) 
O16 O2- 4 e 0.0975(11) 0.9917(19) 0.2874(9) 1. 0 0.017(4) 
O17 O2- 4 e 0.3941(11) 0.0354(20) 0.2203(9) 1. 0 0.019(4) 
O18 O2- 4 e 0.2815(11) 0.7918(19) 0.3360(9) 1. 0 0.016(4) 
O19 O2- 4 e 0.1178(11) 0.4799(20) -.1613(9) 1. 0 0.021(4) 
O20 O2- 4 e 0.2837(11) 0.2684(19) 0.0086(9) 1. 0 0.017(4) 
O21 O2- 4 e 0.2958(11) 0.2138(20) -.1774(9) 1. 0 0.020(4) 
O22 O2- 4 e 0.1159(10) 0.9874(18) -.1542(9) 1. 0 0.012(4) 
O23 O2- 4 e 0.2899(11) 0.7606(20) -.1628(9) 1. 0 0.021(4) 
O24 O2- 4 e 0.0875(11) 0.9742(20) -.3302(9) 1. 0 0.018(4) 

loop_
_atom_site_aniso_label
_atom_site_aniso_type_symbol
_atom_site_aniso_U_11
_atom_site_aniso_U_22
_atom_site_aniso_U_33
_atom_site_aniso_U_12
_atom_site_aniso_U_13
_atom_site_aniso_U_23
U1 U6+ 0.0119(5) 0.0043(5) 0.0131(5) 0.0008(4) 0.0053(4) 0.0001(4)
U2 U6+ 0.0121(5) 0.0056(5) 0.0163(5) -.0007(4) 0.0045(4) -.0006(4)
U3 U6+ 0.0130(5) 0.0046(5) 0.0146(6) 0.0002(4) 0.0065(4) 0.0009(4)
U4 U6+ 0.0126(5) 0.0033(5) 0.0154(6) 0.0003(4) 0.0061(4) 0.0001(4)
I1 I5+ 0.0111(8) 0.0057(8) 0.0158(9) -.0013(6) 0.0073(7) -.0002(7)
I2 I5+ 0.0126(9) 0.0060(8) 0.0132(8) 0.0008(6) 0.0075(7) 0.0007(7)
I3 I5+ 0.0129(8) 0.0079(8) 0.0149(9) -.0012(7) 0.0051(7) -.0019(7)
I4 I5+ 0.0114(8) 0.0066(8) 0.0131(9) 0.0001(6) 0.0050(7) 0.0008(6)
Ag1 Ag1+ 0.0160(11) 0.0203(11) 0.0288(13) -.0027(9) 0.0042(9) -.0037(9)
Ag2 Ag1+ 0.0325(14) 0.0342(13) 0.0299(13) -.0044(11) -.0016(10) -.0051(11)
Ag3 Ag1+ 0.0337(13) 0.0232(12) 0.0235(12) 0.0034(10) 0.0087(10) 0.0028(10)
Ag4 Ag1+ 0.0296(13) 0.0164(10) 0.0334(14) -.0015(9) -.004(1) 0.0001(10)
#End of data_280739-ICSD


