data_67112-ICSD
#?2014 by Fachinformationszentrum Karlsruhe, and the U.S. Secretary of 
#Commerce on behalf of the United States.  All rights reserved.
_database_code_ICSD                67112
_audit_creation_date               1990/12/27
_audit_update_record               2003/04/01
_chemical_name_systematic          'Tetrasodium Oxide Diiodide'
_chemical_formula_structural       'Na4 O I2'
_chemical_formula_sum              'I2 Na4 O1'
_publ_section_title                'Structure of Na4 O I2'
loop_
_citation_id
_citation_journal_abbrev
_citation_year
_citation_journal_volume
_citation_page_first
_citation_page_last
_citation_journal_id_ASTM
primary 'Acta Crystallographica, Section C: Crystal Structure Communications'
 1990 46 368 369 ACSCEE
2 'Zeitschrift fuer Kristallographie (1979-2010)' 1989 186 130 131 ZEKRDZ
_publ_author_name
;
Sabrowsky, H.;Hippler, K.;Sitta, S.;Vogt, P.
;
_cell_length_a                     4.655(2)
_cell_length_b                     4.655(2)
_cell_length_c                     15.940(4)
_cell_angle_alpha                  90.
_cell_angle_beta                   90.
_cell_angle_gamma                  90.
_cell_volume                       345.4
_cell_formula_units_Z              2
_symmetry_space_group_name_H-M     'I 4/m m m'
_symmetry_Int_Tables_number        139
_refine_ls_R_factor_all            .0448
loop_
_symmetry_equiv_pos_site_id
_symmetry_equiv_pos_as_xyz
  1	'y, x, -z'
  2	'-y, -x, -z'
  3	'-y, x, -z'
  4	'y, -x, -z'
  5	'-x, y, -z'
  6	'x, -y, -z'
  7	'x, y, -z'
  8	'-x, -y, -z'
  9	'-y, -x, z'
 10	'y, x, z'
 11	'y, -x, z'
 12	'-y, x, z'
 13	'x, -y, z'
 14	'-x, y, z'
 15	'-x, -y, z'
 16	'x, y, z'
 17	'y+.5, x+.5, -z+.5'
 18	'-y+.5, -x+.5, -z+.5'
 19	'-y+.5, x+.5, -z+.5'
 20	'y+.5, -x+.5, -z+.5'
 21	'-x+.5, y+.5, -z+.5'
 22	'x+.5, -y+.5, -z+.5'
 23	'x+.5, y+.5, -z+.5'
 24	'-x+.5, -y+.5, -z+.5'
 25	'-y+.5, -x+.5, z+.5'
 26	'y+.5, x+.5, z+.5'
 27	'y+.5, -x+.5, z+.5'
 28	'-y+.5, x+.5, z+.5'
 29	'x+.5, -y+.5, z+.5'
 30	'-x+.5, y+.5, z+.5'
 31	'-x+.5, -y+.5, z+.5'
 32	'x+.5, y+.5, z+.5'
loop_
_atom_type_symbol
_atom_type_oxidation_number
I1-	-1
Na1+	1
O2-	-2
loop_
_atom_site_label
_atom_site_type_symbol
_atom_site_symmetry_multiplicity
_atom_site_Wyckoff_symbol
_atom_site_fract_x
_atom_site_fract_y
_atom_site_fract_z
_atom_site_occupancy
_atom_site_attached_hydrogens
Na1 Na1+ 4 c 0 0.5 0 1. 0 
Na2 Na1+ 4 e 0 0 0.1429(6) 1. 0 
O1 O2- 2 a 0 0 0 1. 0 
I1 I1- 4 e 0 0 0.3467(1) 1. 0 

loop_
_atom_site_aniso_label
_atom_site_aniso_type_symbol
_atom_site_aniso_U_11
_atom_site_aniso_U_22
_atom_site_aniso_U_33
_atom_site_aniso_U_12
_atom_site_aniso_U_13
_atom_site_aniso_U_23
Na1 Na1+ 0.02459(330) 0.01492(289) 0.03550(557) 0 0 0
Na2 Na1+ 0.02979(215) 0.02979(215) 0.02195(525) 0 0 0
O1 O2- 0.02361(488) 0.02361(488) 0.00888(1045 0 0 0
I1 I1- 0.01974(47) 0.01974(47) 0.02145(86) 0 0 0
#End of data_67112-ICSD


