data_82032-ICSD
#?2014 by Fachinformationszentrum Karlsruhe, and the U.S. Secretary of 
#Commerce on behalf of the United States.  All rights reserved.
_database_code_ICSD                82032
_audit_creation_date               1999/11/30
_audit_update_record               2005/10/01
_chemical_name_systematic
;
Nonacalcium Iron(III) Heptakis(phosphate(V))
;
_chemical_formula_structural       'Ca9 Fe (P O4)7'
_chemical_formula_sum              'Ca9 Fe1 O28 P7'
_publ_section_title
;
Crystal structures and characterization of Ca9 Fe (P O4)7 and Ca9 Fe 
H0.9 (P O4)7
;
loop_
_citation_id
_citation_journal_abbrev
_citation_year
_citation_journal_volume
_citation_page_first
_citation_page_last
_citation_journal_id_ASTM
primary 'Journal of Solid State Chemistry' 1996 122 15 21 JSSCBI
2 'Golden Book of Phase Transitions, Wroclaw' 2002 1 1 123 GBOPT5
_publ_author_name
;
Lazoryak, B.I.;Morozov, V.A.;Belik, A.A.;Khasanov, S.S.;Shekhtman, 
V.Sh.
;
_cell_length_a                     10.3406(2)
_cell_length_b                     10.3406(2)
_cell_length_c                     37.157(1)
_cell_angle_alpha                  90.
_cell_angle_beta                   90.
_cell_angle_gamma                  120.
_cell_volume                       3440.83
_cell_formula_units_Z              6
_symmetry_space_group_name_H-M     'R 3 c H'
_symmetry_Int_Tables_number        161
_refine_ls_R_factor_all            .024
loop_
_symmetry_equiv_pos_site_id
_symmetry_equiv_pos_as_xyz
  1	'-x+y, y, z+.5'
  2	'x, x-y, z+.5'
  3	'-y, -x, z+.5'
  4	'-x+y, -x, z'
  5	'-y, x-y, z'
  6	'x, y, z'
  7	'-x+y+.6666, y+.3333, z+.8333'
  8	'-x+y+.3333, y+.6666, z+.1666'
  9	'x+.6666, x-y+.3333, z+.8333'
 10	'x+.3333, x-y+.6666, z+.1666'
 11	'-y+.6666, -x+.3333, z+.8333'
 12	'-y+.3333, -x+.6666, z+.1666'
 13	'-x+y+.6666, -x+.3333, z+.3333'
 14	'-x+y+.3333, -x+.6666, z+.6666'
 15	'-y+.6666, x-y+.3333, z+.3333'
 16	'-y+.3333, x-y+.6666, z+.6666'
 17	'x+.6666, y+.3333, z+.3333'
 18	'x+.3333, y+.6666, z+.6666'
loop_
_atom_type_symbol
_atom_type_oxidation_number
Ca2+	2
Fe3+	3
O2-	-2
P5+	5
loop_
_atom_site_label
_atom_site_type_symbol
_atom_site_symmetry_multiplicity
_atom_site_Wyckoff_symbol
_atom_site_fract_x
_atom_site_fract_y
_atom_site_fract_z
_atom_site_occupancy
_atom_site_attached_hydrogens
_atom_site_B_iso_or_equiv
Ca1 Ca2+ 18 b 0.7204(9) 0.854(2) 0.4344(5) 1. 0 0.5(2) 
Ca2 Ca2+ 18 b 0.6220(9) 0.825(2) 0.2335(5) 1. 0 1.1(2) 
Ca3 Ca2+ 18 b 0.128(1) 0.2749(7) 0.3275(5) 1. 0 0.7(2) 
Fe1 Fe3+ 6 a 0 0 0 1. 0 0.8(2) 
P1 P5+ 6 a 0 0 0.2712(6) 1. 0 1.4(4) 
P2 P5+ 18 b 0.683(1) 0.852(2) 0.1376(5) 1. 0 0.2(2) 
P3 P5+ 18 b 0.655(2) 0.850(2) 0.0332(5) 1. 0 1.5(3) 
O1 O2- 6 a 0 0 0.3131(8) 1. 0 2.0(6) 
O2 O2- 18 b 0.018(2) 0.868(2) 0.2592(9) 1. 0 0.0(5) 
O3 O2- 18 b 0.729(3) 0.912(3) 0.1759(9) 1. 0 1.8(8) 
O4 O2- 18 b 0.745(4) 0.760(4) 0.1233(9) 1. 0 1.5(9) 
O5 O2- 18 b 0.723(3) 0.005(3) 0.1158(8) 1. 0 2.5(6) 
O6 O2- 18 b 0.507(3) 0.758(4) 0.1350(9) 1. 0 0.5(5) 
O7 O2- 18 b 0.612(3) 0.948(3) 0.0476(9) 1. 0 2.0(6) 
O8 O2- 18 b 0.579(3) 0.695(3) 0.0530(8) 1. 0 2.4(5) 
O9 O2- 18 b 0.825(3) 0.918(4) 0.0403(7) 1. 0 2.4(5) 
O10 O2- 18 b 0.624(2) 0.817(4) 0.9928(8) 1. 0 1.0(5) 

#End of data_82032-ICSD


