data_20662-ICSD
#?2014 by Fachinformationszentrum Karlsruhe, and the U.S. Secretary of 
#Commerce on behalf of the United States.  All rights reserved.
_database_code_ICSD                20662
_audit_creation_date               1983/12/31
_audit_update_record               2005/10/01
_chemical_name_systematic          'Magnesium Oxohexahydroxodiborate'
_chemical_formula_structural       'Mg (B2 O (O H)6)'
_chemical_formula_sum              'H6 B2 Mg1 O7'
_chemical_name_mineral             Pinnoite
_publ_section_title
;
Refinement of the structure of pinnoite: Location of hydrogen atoms
;
loop_
_citation_id
_citation_journal_abbrev
_citation_year
_citation_journal_volume
_citation_page_first
_citation_page_last
_citation_journal_id_ASTM
primary Kristallografiya 1983 28 803 805 KRISAJ
2 'Acta Crystallographica (1,1948-23,1967)' 1957 10 653 656 ACCRA9
3 'Acta Crystallographica (1,1948-23,1967)' 1967 23 500 501 ACCRA9
4 'Soviet Physics, Crystallography (= Kristallografiya)'
 1983 28 475 477 SPHCA6
_publ_author_name                  'Genkina, E.A.;Malinovskii, Yu.A.'
_cell_length_a                     7.6140(13)
_cell_length_b                     7.6140(13)
_cell_length_c                     8.1898(8)
_cell_angle_alpha                  90.
_cell_angle_beta                   90.
_cell_angle_gamma                  90.
_cell_volume                       474.79
_cell_formula_units_Z              4
_symmetry_space_group_name_H-M     'P 42'
_symmetry_Int_Tables_number        77
_refine_ls_R_factor_all            .033
loop_
_symmetry_equiv_pos_site_id
_symmetry_equiv_pos_as_xyz
  1	'y, -x, z+.5'
  2	'-y, x, z+.5'
  3	'-x, -y, z'
  4	'x, y, z'
loop_
_atom_type_symbol
_atom_type_oxidation_number
B3+	3
H1+	1
Mg2+	2
O2-	-2
loop_
_atom_site_label
_atom_site_type_symbol
_atom_site_symmetry_multiplicity
_atom_site_Wyckoff_symbol
_atom_site_fract_x
_atom_site_fract_y
_atom_site_fract_z
_atom_site_occupancy
_atom_site_attached_hydrogens
_atom_site_B_iso_or_equiv
Mg1 Mg2+ 4 d 0.2483(3) 0.2509(3) 0.228(3) 1. 0 0.91(2) 
O1 O2- 4 d 0.2398(5) 0.4812(5) 0.803(3) 1. 0 1.04(11) 
O2 O2- 4 d 0.2684(5) 0.0166(5) 0.639(3) 1. 0 0.89(9) 
O3 O2- 4 d 0.3356(5) 0.2423(5) 0.984(3) 1. 0 0.91(10) 
O4 O2- 4 d 0.1594(6) 0.2635(6) 0.467(3) 1. 0 1.22(11) 
O5 O2- 4 d 0.4818(5) 0.2881(4) 0.730(3) 1. 0 0.89(9) 
O6 O2- 4 d 0.0192(5) 0.1992(4) 0.723(3) 1. 0 0.87(9) 
O7 O2- 2 a 0 0 0.990(3) 1. 0 1.10(11) 
O8 O2- 2 b 0.5 0.5 0.455(3) 1. 0 0.64(11) 
B1 B3+ 4 d 0.3833(8) 0.3797(8) 0.873(3) 1. 0 0.61(11) 
B2 B3+ 4 d 0.1080(8) 0.1183(8) 0.587(3) 1. 0 1.12(12) 
H1 H1+ 4 d 0.138(9) 0.401(10) 0.799(10) 1. 0 1.7(17) 
H2 H1+ 4 d 0.364(7) 0.107(8) 0.651(7) 1. 0 2.1(18) 
H3 H1+ 4 d 0.308(10) 0.145(10) 0.932(10) 1. 0 0.2(17) 
H4 H1+ 4 d 0.188(7) 0.367(7) 0.520(7) 1. 0 3.8(17) 
H5 H1+ 4 d 0.472(10) 0.360(11) 0.630(11) 1. 0 1.9(14) 
H6 H1+ 4 d 0.030(7) 0.150(9) 0.810(8) 1. 0 2.1(14) 

#End of data_20662-ICSD


