data_182877-ICSD
#?2014 by Fachinformationszentrum Karlsruhe, and the U.S. Secretary of 
#Commerce on behalf of the United States.  All rights reserved.
_database_code_ICSD                182877
_audit_creation_date               2012/08/01
_chemical_name_systematic          'Dimagnesium Silicate'
_chemical_formula_structural       'Mg2 (Si O4)'
_chemical_formula_sum              'Mg2 O4 Si1'
_chemical_name_mineral             'Wadsleyite (hydrous)'
_publ_section_title
;
Structural study of the coherent dehydration of wadsleyite
;
loop_
_citation_id
_citation_journal_abbrev
_citation_year
_citation_journal_volume
_citation_page_first
_citation_page_last
_citation_journal_id_ASTM
primary 'American Mineralogist' 2011 96 1760 1767 AMMIAY
_publ_author_name                  'Ye, Yu;Smyth, J.R.;Frost, D.J.'
_cell_length_a                     5.7120(5)
_cell_length_b                     11.509(1)
_cell_length_c                     8.2931(7)
_cell_angle_alpha                  90.
_cell_angle_beta                   90.019(5)
_cell_angle_gamma                  90.
_cell_volume                       545.18
_cell_formula_units_Z              8
_symmetry_space_group_name_H-M     'I 1 2/m 1'
_symmetry_Int_Tables_number        12
_refine_ls_R_factor_all            .0589
loop_
_symmetry_equiv_pos_site_id
_symmetry_equiv_pos_as_xyz
  1	'x, -y, z'
  2	'-x, -y, -z'
  3	'-x, y, -z'
  4	'x, y, z'
  5	'x+.5, -y+.5, z+.5'
  6	'-x+.5, -y+.5, -z+.5'
  7	'-x+.5, y+.5, -z+.5'
  8	'x+.5, y+.5, z+.5'
loop_
_atom_type_symbol
_atom_type_oxidation_number
Mg2+	2
O2-	-2
Si4+	4
loop_
_atom_site_label
_atom_site_type_symbol
_atom_site_symmetry_multiplicity
_atom_site_Wyckoff_symbol
_atom_site_fract_x
_atom_site_fract_y
_atom_site_fract_z
_atom_site_occupancy
_atom_site_attached_hydrogens
Mg1 Mg2+ 4 e 0.250 0.250 0.250 1.00(1) 0 
Mg2 Mg2+ 4 i 0.2498(3) 0.5 0.2194(2) 1.00(1) 0 
Mg3 Mg2+ 4 g 0.5 0.3723(1) 0.5 1.00(1) 0 
Mg4 Mg2+ 4 h 0 0.6229(1) 0.5 1.00(1) 0 
Si1 Si4+ 8 j 0.2500(1) 0.36988(8) 0.8668(1) 1.00(1) 0 
O1 O2- 4 i 0.2499(6) 0.5 0.4671(5) 1. 0 
O2 O2- 4 i 0.2496(6) 0.5 0.9656(4) 1. 0 
O3 O2- 8 j 0.2501(4) 0.2394(2) 0.5063(3) 1. 0 
O4 O2- 8 j 0.5123(4) 0.3725(2) 0.2424(3) 1. 0 
O5 O2- 8 j 0.9887(4) 0.6274(2) 0.2421(3) 1. 0 

#End of data_182877-ICSD


