data_92625-ICSD
#?2014 by Fachinformationszentrum Karlsruhe, and the U.S. Secretary of 
#Commerce on behalf of the United States.  All rights reserved.
_database_code_ICSD                92625
_audit_creation_date               2003/04/01
_chemical_name_systematic          'Disodium Tetranitrato(V)palladate'
_chemical_formula_structural       'Na2 (Pd (N O3)4)'
_chemical_formula_sum              'N4 Na2 O12 Pd1'
_publ_section_title
;
Synthesis and crystal structure of Na2 (Pd (N O3)4)
;
loop_
_citation_id
_citation_journal_abbrev
_citation_year
_citation_journal_volume
_citation_journal_issue
_citation_page_first
_citation_page_last
_citation_journal_id_ASTM
primary 'Zhurnal Strukturnoi Khimii (Issue-No. from 1981)'
 2000 41 4 862 866 ZSTKAI
2 'Journal of Structural Chemistry (USSR) (= Zhurnal Strukturnoi Khimii)'
 2000 41 4 709 712 JSTCAM
_publ_author_name
;
Khranenko, S.P.;Baidina, I.A.;Gromilov, S.A.;Belyaev, A.V.
;
_cell_length_a                     7.093(1)
_cell_length_b                     7.782(2)
_cell_length_c                     8.994(2)
_cell_angle_alpha                  90
_cell_angle_beta                   91.67(3)
_cell_angle_gamma                  90
_cell_volume                       496.24
_cell_formula_units_Z              2
_symmetry_space_group_name_H-M     'P 1 21/c 1'
_symmetry_Int_Tables_number        14
_refine_ls_R_factor_all            .025
loop_
_symmetry_equiv_pos_site_id
_symmetry_equiv_pos_as_xyz
  1	'x, -y+.5, z+.5'
  2	'-x, -y, -z'
  3	'-x, y+.5, -z+.5'
  4	'x, y, z'
loop_
_atom_type_symbol
_atom_type_oxidation_number
N5+	5
Na1+	1
O2-	-2
Pd2+	2
loop_
_atom_site_label
_atom_site_type_symbol
_atom_site_symmetry_multiplicity
_atom_site_Wyckoff_symbol
_atom_site_fract_x
_atom_site_fract_y
_atom_site_fract_z
_atom_site_occupancy
_atom_site_attached_hydrogens
_atom_site_U_iso_or_equiv
Pd1 Pd2+ 2 b 0.5 0 0 1. 0 0.017(1) 
Na1 Na1+ 4 e 0.2232(2) 0.4379(2) 0.1182(2) 1. 0 0.032(1) 
N1 N5+ 4 e 0.3540(4) 0.1063(4) 0.2767(3) 1. 0 0.021(1) 
O1 O2- 4 e 0.3525(4) 0.1488(3) 0.1358(2) 1. 0 0.025(1) 
O2 O2- 4 e 0.2581(4) 0.1963(4) 0.3576(3) 1. 0 0.033(1) 
O3 O2- 4 e 0.4465(4) -0.0183(3) 0.3199(3) 1. 0 0.030(1) 
N2 N5+ 4 e 0.8163(4) 0.2132(4) 0.0635(3) 1. 0 0.024(1) 
O4 O2- 4 e 0.6776(3) 0.1972(3) -0.0327(3) 1. 0 0.027(1) 
O5 O2- 4 e 0.9152(4) 0.3430(4) 0.0489(3) 1. 0 0.038(1) 
O6 O2- 4 e 0.8441(4) 0.1058(4) 0.1583(3) 1. 0 0.050(1) 

#End of data_92625-ICSD


