data_281242-ICSD
#?2014 by Fachinformationszentrum Karlsruhe, and the U.S. Secretary of 
#Commerce on behalf of the United States.  All rights reserved.
_database_code_ICSD                281242
_audit_creation_date               2003/10/01
_audit_update_record               2007/08/01
_chemical_name_systematic          'Dipotassium Hexaiodorhenate(IV)'
_chemical_formula_structural       'K2 (Re I6)'
_chemical_formula_sum              'I6 K2 Re1'
_publ_section_title
;
Magnetic studies on hexaiodorhenate(IV) salts of univalent cations. 
Spin canting and magnetic ordering in K2 (Re I6) with Tc = 24 K
;
loop_
_citation_id
_citation_journal_abbrev
_citation_year
_citation_journal_volume
_citation_page_first
_citation_page_last
_citation_journal_id_ASTM
primary 'Inorganic Chemistry' 2003 42 2512 2518 INOCAJ
2 'Golden Book of Phase Transitions, Wroclaw' 2002 1 1 123 GBOPT5
_publ_author_name
;
Gonzalez, R.;Chiozzone, R.;Kremer, C.;de Munno, G.;Nicolo, F.;Lloret, 
F.;Julve, M.;Faus, J.
;
_cell_length_a                     7.8148(7)
_cell_length_b                     7.8739(9)
_cell_length_c                     11.3349(8)
_cell_angle_alpha                  90.
_cell_angle_beta                   90.376(7)
_cell_angle_gamma                  90.
_cell_volume                       697.45
_cell_formula_units_Z              2
_symmetry_space_group_name_H-M     'P 1 n 1'
_symmetry_Int_Tables_number        7
_refine_ls_R_factor_all            .068
loop_
_symmetry_equiv_pos_site_id
_symmetry_equiv_pos_as_xyz
  1	'x+.5, -y, z+.5'
  2	'x, y, z'
loop_
_atom_type_symbol
_atom_type_oxidation_number
I1-	-1
K1+	1
Re4+	4
loop_
_atom_site_label
_atom_site_type_symbol
_atom_site_symmetry_multiplicity
_atom_site_Wyckoff_symbol
_atom_site_fract_x
_atom_site_fract_y
_atom_site_fract_z
_atom_site_occupancy
_atom_site_attached_hydrogens
_atom_site_U_iso_or_equiv
Re1 Re4+ 2 a 0.4866(3) 0.2495(2) 0.55247(18) 1. 0 0.0216(4) 
I1 I1- 2 a 0.2036(4) 0.4466(4) 0.5829(3) 1. 0 0.0385(8) 
I2 I1- 2 a 0.7643(4) 0.0453(3) 0.5281(2) 1. 0 0.0329(8) 
I3 I1- 2 a 0.4290(5) 0.2516(5) 0.3170(2) 1. 0 0.0450(11) 
I4 I1- 2 a 0.5335(4) 0.2475(5) 0.7920(2) 1. 0 0.0398(10) 
I5 I1- 2 a 0.2874(5) -.0313(4) 0.5777(3) 1. 0 0.0383(9) 
I6 I1- 2 a 0.6862(4) 0.5315(4) 0.5364(2) 1. 0 0.0359(8) 
K1 K1+ 2 a 0.4881(17) -.2093(17) 0.3003(10) 1. 0 0.049(3) 
K2 K1+ 2 a 0.453(2) -.299(2) 0.7978(15) 1. 0 0.074(4) 

loop_
_atom_site_aniso_label
_atom_site_aniso_type_symbol
_atom_site_aniso_U_11
_atom_site_aniso_U_22
_atom_site_aniso_U_33
_atom_site_aniso_U_12
_atom_site_aniso_U_13
_atom_site_aniso_U_23
Re1 Re4+ 0.0190(6) 0.0246(6) 0.0212(6) 0.0004(3) 0.0029(4) 0.0014(3)
I1 I1- 0.0279(18) 0.0345(15) 0.0533(18) 0.0043(14) 0.0077(16) 0.0030(15)
I2 I1- 0.0237(17) 0.0342(15) 0.0408(14) 0.0149(14) 0.0034(13) 0.0006(13)
I3 I1- 0.059(3) 0.059(3) 0.0175(14) 0.0076(19) -0.0015(15) -0.0015(13)
I4 I1- 0.039(2) 0.058(2) 0.0217(13) -0.0013(16) 0.0007(13) 0.0035(12)
I5 I1- 0.0373(19) 0.0309(16) 0.0466(16) 0.0020(15) -0.0011(15) 0.0053(16)
I6 I1- 0.0256(16) 0.0313(14) 0.0509(16) -0.0205(14) 0.0043(15) -0.0010(15)
K1 K1+ 0.043(6) 0.071(7) 0.033(4) 0.023(6) -0.009(4) 0.007(5)
K2 K1+ 0.044(7) 0.085(10) 0.092(9) -0.009(7) 0.007(7) -0.045(8)
#End of data_281242-ICSD


