data_30264-ICSD
#?2014 by Fachinformationszentrum Karlsruhe, and the U.S. Secretary of 
#Commerce on behalf of the United States.  All rights reserved.
_database_code_ICSD                30264
_audit_creation_date               1980/01/01
_audit_update_record               2005/10/01
_chemical_name_systematic          'Disilver Tetraiodomercurate'
_chemical_formula_structural       'Ag2 (Hg I4)'
_chemical_formula_sum              'Ag2 Hg1 I4'
_publ_section_title
;
Strukturbestimmung der komplexen Quecksilber-Verbindungen Ag2 Hg I4 
und Cu2 Hg I4
;
loop_
_citation_id
_citation_journal_abbrev
_citation_year
_citation_journal_volume
_citation_page_first
_citation_page_last
_citation_journal_id_ASTM
primary
;
Zeitschrift fuer Kristallographie, Kristallgeometrie, Kristallphysik, 
Kristallchemie (-144,1977)
;
 1931 80 190 203 ZEKGAX
_publ_author_name                  'Ketelaar, J.A.A.'
_cell_length_a                     6.353(5)
_cell_length_b                     6.353(5)
_cell_length_c                     6.353(5)
_cell_angle_alpha                  90.
_cell_angle_beta                   90.
_cell_angle_gamma                  90.
_cell_volume                       256.41
_cell_formula_units_Z              1
_symmetry_space_group_name_H-M     'P -4 2 m'
_symmetry_Int_Tables_number        111
loop_
_symmetry_equiv_pos_site_id
_symmetry_equiv_pos_as_xyz
  1	'-y, -x, z'
  2	'y, x, z'
  3	'y, -x, -z'
  4	'-y, x, -z'
  5	'x, -y, -z'
  6	'-x, y, -z'
  7	'-x, -y, z'
  8	'x, y, z'
loop_
_atom_type_symbol
_atom_type_oxidation_number
Ag1+	1
Hg2+	2
I1-	-1
loop_
_atom_site_label
_atom_site_type_symbol
_atom_site_symmetry_multiplicity
_atom_site_Wyckoff_symbol
_atom_site_fract_x
_atom_site_fract_y
_atom_site_fract_z
_atom_site_occupancy
_atom_site_attached_hydrogens
Hg1 Hg2+ 1 a 0 0 0 1. 0 
Ag1 Ag1+ 2 f 0 0.5 0.5 1. 0 
I1 I1- 4 n 0.270(5) 0.270(5) 0.225(5) 1. 0 

#End of data_30264-ICSD


