data_154121-ICSD
#?2014 by Fachinformationszentrum Karlsruhe, and the U.S. Secretary of 
#Commerce on behalf of the United States.  All rights reserved.
_database_code_ICSD                154121
_audit_creation_date               2007/04/01
_chemical_name_systematic
;
Tetrasilver Dimanganese Zirconium Hexakis(molybdate)
;
_chemical_formula_structural       'Ag4 Mn2 Zr (Mo O4)6'
_chemical_formula_sum              'Ag4 Mn2 Mo6 O24 Zr1'
_publ_section_title
;
New molybdenum oxides Ag4 M2 Zr (Mo O4)6 (M= Mg, Mn, Co, Zn) with a 
channel-like structure
;
loop_
_citation_id
_citation_journal_abbrev
_citation_year
_citation_journal_volume
_citation_page_first
_citation_page_last
_citation_journal_id_ASTM
primary 'Solid State Sciences' 2005 7 1397 1405 SSSCFJ
_publ_author_name
;
Khobrakova, E.T.;Morozov, V.A.;Khasanov, S.S.;Tsyrenova, 
G.D.;Khaikina, E.G.;Lebedev, O.I.;van Tendeloo, G.;Lazoryak, B.I.
;
_cell_length_a                     5.3632(1)
_cell_length_b                     18.9463(3)
_cell_length_c                     21.3621(4)
_cell_angle_alpha                  90.
_cell_angle_beta                   90.
_cell_angle_gamma                  90.
_cell_volume                       2170.66
_cell_formula_units_Z              4
_symmetry_space_group_name_H-M     'P 21 21 21'
_symmetry_Int_Tables_number        19
_refine_ls_R_factor_all            .029
loop_
_symmetry_equiv_pos_site_id
_symmetry_equiv_pos_as_xyz
  1	'-x, y+.5, -z+.5'
  2	'x+.5, -y+.5, -z'
  3	'-x+.5, -y, z+.5'
  4	'x, y, z'
loop_
_atom_type_symbol
_atom_type_oxidation_number
Ag1+	1
Mn2+	2
Mo6+	6
O2-	-2
Zr4+	4
loop_
_atom_site_label
_atom_site_type_symbol
_atom_site_symmetry_multiplicity
_atom_site_Wyckoff_symbol
_atom_site_fract_x
_atom_site_fract_y
_atom_site_fract_z
_atom_site_occupancy
_atom_site_attached_hydrogens
_atom_site_U_iso_or_equiv
Ag1 Ag1+ 4 a -0.5106(3) -0.22252(6) 0.95997(5) 1. 0 0.0212(3) 
Ag2 Ag1+ 4 a 0.0046(3) 0.22441(6) 0.95893(5) 1. 0 0.0192(3) 
Ag3 Ag1+ 4 a -0.5138(3) -0.21278(6) 0.81174(5) 1. 0 0.0211(3) 
Ag4 Ag1+ 4 a 0.0002(2) 0.07916(6) 0.88443(5) 1. 0 0.0210(3) 
Mn1 Mn2+ 4 a -0.0230(5) -0.26675(10) 0.71923(10) 1. 0 0.0107(5) 
Mn2 Mn2+ 4 a 0.4863(4) -0.03856(10) 0.88293(9) 1. 0 0.0114(5) 
Zr1 Zr4+ 4 a -0.1415(3) -0.00018(7) 0.13201(6) 1. 0 0.0091(4) 
Mo1 Mo6+ 4 a -0.0402(3) -0.08619(6) 0.77567(6) 1. 0 0.0095(3) 
Mo2 Mo6+ 4 a -0.5362(3) -0.18641(6) 0.63458(6) 1. 0 0.0102(3) 
Mo3 Mo6+ 4 a -0.0122(2) -0.32664(6) 0.87456(5) 1. 0 0.0113(3) 
Mo4 Mo6+ 4 a -0.5124(3) 0.10376(6) 0.77007(5) 1. 0 0.0097(3) 
Mo5 Mo6+ 4 a 0.4953(3) 0.09153(6) 0.00060(5) 1. 0 0.0106(3) 
Mo6 Mo6+ 4 a 0.0134(3) -0.08641(6) 0.98464(5) 1. 0 0.0108(3) 
O1 O2- 4 a -0.2970(17) -0.1060(5) 0.8243(4) 1. 0 0.017(2) 
O2 O2- 4 a 0.1104(18) -0.1658(4) 0.7582(4) 1. 0 0.017(3) 
O3 O2- 4 a 0.1717(18) -0.0318(5) 0.8170(4) 1. 0 0.015(2) 
O4 O2- 4 a -0.1417(19) -0.0433(5) 0.7067(4) 1. 0 0.017(2) 
O5 O2- 4 a -0.3521(18) -0.2063(5) 0.7009(4) 1. 0 0.017(2) 
O6 O2- 4 a -0.360(2) -0.2166(5) 0.5726(4) 1. 0 0.023(3) 
O7 O2- 4 a -0.5734(18) -0.0917(4) 0.6359(4) 1. 0 0.013(2) 
O8 O2- 4 a -0.8187(17) -0.2349(5) 0.6409(4) 1. 0 0.016(2) 
O9 O2- 4 a -0.1859(19) -0.3021(5) 0.8072(4) 1. 0 0.017(2) 
O10 O2- 4 a 0.2260(18) -0.2637(5) 0.8831(4) 1. 0 0.026(3) 
O11 O2- 4 a -0.2057(19) -0.3205(5) 0.9399(4) 1. 0 0.021(3) 
O12 O2- 4 a 0.1196(17) -0.4125(4) 0.8685(5) 1. 0 0.021(3) 
O13 O2- 4 a -0.5719(19) 0.0536(4) 0.7012(4) 1. 0 0.015(3) 
O14 O2- 4 a -0.7811(17) 0.1391(5) 0.8073(4) 1. 0 0.013(2) 
O15 O2- 4 a -0.3013(18) 0.1717(5) 0.7537(4) 1. 0 0.016(2) 
O16 O2- 4 a -0.3665(19) 0.0470(4) 0.8242(4) 1. 0 0.019(2) 
O17 O2- 4 a 0.3270(19) 0.0343(5) 0.9500(4) 1. 0 0.017(2) 
O18 O2- 4 a 0.7290(18) 0.1316(5) 0.9564(4) 1. 0 0.020(2) 
O19 O2- 4 a 0.6206(18) 0.0460(5) 0.0659(4) 1. 0 0.017(2) 
O20 O2- 4 a 0.2935(19) 0.1579(5) 0.0273(5) 1. 0 0.022(3) 
O21 O2- 4 a 0.058(2) -0.0426(4) 0.0587(4) 1. 0 0.017(2) 
O22 O2- 4 a 0.2764(17) -0.1079(5) 0.9403(4) 1. 0 0.016(2) 
O23 O2- 4 a -0.1845(18) -0.0304(5) 0.9402(4) 1. 0 0.018(2) 
O24 O2- 4 a -0.161(2) -0.1632(5) 0.9950(5) 1. 0 0.028(3) 

#End of data_154121-ICSD


