data_78734-ICSD
#?2014 by Fachinformationszentrum Karlsruhe, and the U.S. Secretary of 
#Commerce on behalf of the United States.  All rights reserved.
_database_code_ICSD                78734
_audit_creation_date               1997/05/13
_audit_update_record               2012/02/01
_chemical_name_systematic          'Hydroxodipotassium Bromide'
_chemical_formula_structural       '(K2 (O H)) Br'
_chemical_formula_sum              'H1 Br1 K2 O1'
_publ_section_title
;
K2 Br (O H) und Rb2 Br (O H): Zwei neue ternaere 
Alkalimetallhalogenidhydroxide mit ausgepraegter 
Strukturverwandtschaft zu K O H bzw. Rb O H
;
loop_
_citation_id
_citation_journal_abbrev
_citation_year
_citation_journal_volume
_citation_page_first
_citation_page_last
_citation_journal_id_ASTM
primary 'Zeitschrift fuer Anorganische und Allgemeine Chemie (1950) (DE)'
 1995 621 1193 1196 ZAACAB
_publ_author_name                  'Barlage, H.;Jacobs, H.'
_cell_length_a                     6.724(1)
_cell_length_b                     4.272(4)
_cell_length_c                     8.442(2)
_cell_angle_alpha                  90.
_cell_angle_beta                   108.14(2)
_cell_angle_gamma                  90.
_cell_volume                       230.44
_cell_formula_units_Z              2
_symmetry_space_group_name_H-M     'P 1 21/m 1'
_symmetry_Int_Tables_number        11
_refine_ls_R_factor_all            .041
loop_
_symmetry_equiv_pos_site_id
_symmetry_equiv_pos_as_xyz
  1	'x, -y+.5, z'
  2	'-x, -y, -z'
  3	'-x, y+.5, -z'
  4	'x, y, z'
loop_
_atom_type_symbol
_atom_type_oxidation_number
Br1-	-1
H1+	1
K1+	1
O2-	-2
loop_
_atom_site_label
_atom_site_type_symbol
_atom_site_symmetry_multiplicity
_atom_site_Wyckoff_symbol
_atom_site_fract_x
_atom_site_fract_y
_atom_site_fract_z
_atom_site_occupancy
_atom_site_attached_hydrogens
_atom_site_B_iso_or_equiv
Br1 Br1- 2 e 0.1817(1) 0.25 0.3001(1) 1. 0 0 
K1 K1+ 2 e 0.7069(3) 0.25 0.3845(2) 1. 0 0 
K2 K1+ 2 e 0.7101(3) 0.25 0.9642(2) 1. 0 0 
O1 O2- 2 e 0.3105(9) 0.25 0.8269(7) 1. 0 0 
H1 H1+ 2 e 0.17(2) 0.25 0.79(1) 1. 0 1. 

loop_
_atom_site_aniso_label
_atom_site_aniso_type_symbol
_atom_site_aniso_U_11
_atom_site_aniso_U_22
_atom_site_aniso_U_33
_atom_site_aniso_U_12
_atom_site_aniso_U_13
_atom_site_aniso_U_23
Br1 Br1- 0.0330(3) 0.0310(4) 0.0238(3) 0 0.0111(2) 0
K1 K1+ 0.0360(8) 0.0273(8) 0.0244(6) 0 0.0098(6) 0
K2 K1+ 0.0287(7) 0.0258(8) 0.0252(6) 0 0.0103(6) 0
O1 O2- 0.0036(3) 0.0023(3) 0.0027(2) 0 0.0011(2) 0
#End of data_78734-ICSD


