data_182916-ICSD
#?2014 by Fachinformationszentrum Karlsruhe, and the U.S. Secretary of 
#Commerce on behalf of the United States.  All rights reserved.
_database_code_ICSD                182916
_audit_creation_date               2012/08/01
_audit_update_record               2013/08/01
_chemical_name_systematic          'Disilver Sulfide - Beta'
_chemical_formula_structural       'Ag2 S'
_chemical_formula_sum              'Ag2 S1'
_publ_section_title
;
In situ high-temperature X-ray diffraction characterization of silver 
sulfide, Ag2 S
;
loop_
_citation_id
_citation_journal_abbrev
_citation_year
_citation_journal_volume
_citation_journal_issue
_citation_page_first
_citation_page_last
_citation_journal_id_ASTM
primary 'Powder Diffraction' 2011 26 2 114 116 PODIE2
_publ_author_name
;
Blanton, T.;Misture, s.;Dontula, N.;Zdzieszynski, S.
;
_cell_length_a                     4.2275(4)
_cell_length_b                     6.9303(5)
_cell_length_c                     8.2855(7)
_cell_angle_alpha                  90.
_cell_angle_beta                   110.564(3)
_cell_angle_gamma                  90.
_cell_volume                       227.28
_cell_formula_units_Z              4
_symmetry_space_group_name_H-M     'P 1 21/c 1'
_symmetry_Int_Tables_number        14
_refine_ls_R_factor_all            .082
loop_
_symmetry_equiv_pos_site_id
_symmetry_equiv_pos_as_xyz
  1	'x, -y+.5, z+.5'
  2	'-x, -y, -z'
  3	'-x, y+.5, -z+.5'
  4	'x, y, z'
loop_
_atom_type_symbol
_atom_type_oxidation_number
Ag1+	1
S2-	-2
loop_
_atom_site_label
_atom_site_type_symbol
_atom_site_symmetry_multiplicity
_atom_site_Wyckoff_symbol
_atom_site_fract_x
_atom_site_fract_y
_atom_site_fract_z
_atom_site_occupancy
_atom_site_attached_hydrogens
_atom_site_B_iso_or_equiv
Ag1 Ag1+ 4 e 0.0412(7) 0.0154(5) 0.3075(4) 1. 0 3.1(1) 
Ag2 Ag1+ 4 e 0.6456(8) 0.3222(4) 0.4369(4) 1. 0 3.1(1) 
S1 S2- 4 e 0.272(2) 0.229(1) 0.128(1) 1. 0 1. 

#End of data_182916-ICSD


