data_174351-ICSD
#?2014 by Fachinformationszentrum Karlsruhe, and the U.S. Secretary of 
#Commerce on behalf of the United States.  All rights reserved.
_database_code_ICSD                174351
_audit_creation_date               2010/08/01
_chemical_name_systematic
;
Nonapotassium Trialuminium Hexakis(phosphate(V))
;
_chemical_formula_structural       'K9 Al3 (P O4)6'
_chemical_formula_sum              'Al3 K9 O24 P6'
_publ_section_title
;
Nonapotassium trialuminium hexaphosphate
;
loop_
_citation_id
_citation_journal_abbrev
_citation_year
_citation_journal_volume
_citation_journal_issue
_citation_page_first
_citation_page_last
_citation_journal_id_ASTM
primary 'Acta Crystallographica, Section E. Structure Reports Online'
 2010 66 5 i37 i38 ACSEBH
_publ_author_name
;
Liu Zuoliang;Zhang Guochun;Zhang Jianxiu;Fu Pei Zhen;Wu Yi cheng
;
_cell_length_a                     20.289(4)
_cell_length_b                     9.835(2)
_cell_length_c                     13.521(3)
_cell_angle_alpha                  90.00
_cell_angle_beta                   100.56(3)
_cell_angle_gamma                  90.00
_cell_volume                       2652.32
_cell_formula_units_Z              4
_symmetry_space_group_name_H-M     'P 1 21/c 1'
_symmetry_Int_Tables_number        14
_refine_ls_R_factor_all            .0227
loop_
_symmetry_equiv_pos_site_id
_symmetry_equiv_pos_as_xyz
  1	'x, -y+.5, z+.5'
  2	'-x, -y, -z'
  3	'-x, y+.5, -z+.5'
  4	'x, y, z'
loop_
_atom_type_symbol
_atom_type_oxidation_number
Al3+	3
K1+	1
O2-	-2
P5+	5
loop_
_atom_site_label
_atom_site_type_symbol
_atom_site_symmetry_multiplicity
_atom_site_Wyckoff_symbol
_atom_site_fract_x
_atom_site_fract_y
_atom_site_fract_z
_atom_site_occupancy
_atom_site_attached_hydrogens
_atom_site_U_iso_or_equiv
P1 P5+ 4 e 0.298252(13) 0.34947(3) 0.33480(2) 1 0 0.00581(5) 
P2 P5+ 4 e 0.533853(13) 0.58644(3) 0.36009(2) 1 0 0.00594(5) 
P3 P5+ 4 e 0.187195(13) 0.57954(3) 0.69175(2) 1 0 0.00569(5) 
P4 P5+ 4 e -0.043493(13 0.14690(3) 0.10689(2) 1 0 0.00566(5) 
P5 P5+ 4 e 0.356473(13) 0.65268(3) 0.99111(2) 1 0 0.00556(5) 
P6 P5+ 4 e 0.134551(13) 0.14154(3) 0.50989(2) 1 0 0.00546(5) 
Al1 Al3+ 4 e 0.089399(16) 0.07540(3) 0.02839(2) 1 0 0.00532(6) 
Al2 Al3+ 4 e 0.248584(16) 0.06371(3) 0.38928(2) 1 0 0.00494(6) 
Al3 Al3+ 4 e 0.404521(16) 0.56335(3) 0.44487(2) 1 0 0.00506(6) 
O1 O2- 4 e 0.30136(4) 0.20134(8) 0.37989(6) 1 0 0.01040(14) 
O2 O2- 4 e 0.30827(5) 0.34641(8) 0.22768(6) 1 0 0.01385(16) 
O3 O2- 4 e 0.23519(4) 0.41939(8) 0.35084(7) 1 0 0.01469(16) 
O4 O2- 4 e 0.36066(5) 0.41798(8) 0.40128(7) 1 0 0.01553(18) 
O5 O2- 4 e 0.57090(4) 0.71131(8) 0.40329(6) 1 0 0.01132(15) 
O6 O2- 4 e 0.54290(4) 0.54825(8) 0.25534(6) 1 0 0.00961(14) 
O7 O2- 4 e 0.45662(4) 0.60301(9) 0.35924(6) 1 0 0.01063(14) 
O8 O2- 4 e 0.55470(4) 0.45990(7) 0.43131(6) 1 0 0.00885(14) 
O9 O2- 4 e 0.24384(4) 0.56940(8) 0.63432(6) 1 0 0.01142(15) 
O10 O2- 4 e 0.11777(4) 0.54245(7) 0.62321(6) 1 0 0.00823(14) 
O11 O2- 4 e 0.17814(4) 0.71622(8) 0.73771(6) 1 0 0.01017(14) 
O12 O2- 4 e 0.19385(4) 0.46544(8) 0.77559(6) 1 0 0.00888(14) 
O13 O2- 4 e -0.09231(4) 0.25724(7) 0.06586(6) 1 0 0.00840(13) 
O14 O2- 4 e 0.01158(4) 0.14074(7) 0.03954(6) 1 0 0.00818(14) 
O15 O2- 4 e -0.07987(4) 0.00350(7) 0.09080(6) 1 0 0.00757(13) 
O16 O2- 4 e -0.01117(4) 0.16378(8) 0.21565(6) 1 0 0.01014(14) 
O17 O2- 4 e 0.34118(4) 0.65873(8) 1.09580(6) 1 0 0.01213(15) 
O18 O2- 4 e 0.35063(4) 0.79852(7) 0.94185(6) 1 0 0.00881(14) 
O19 O2- 4 e 0.42285(4) 0.58847(8) 0.98471(7) 1 0 0.01214(15) 
O20 O2- 4 e 0.29847(4) 0.57812(8) 0.91867(6) 1 0 0.01111(15) 
O21 O2- 4 e 0.20437(4) 0.09364(8) 0.48639(6) 1 0 0.00835(13) 
O22 O2- 4 e 0.11949(4) 0.05905(7) 0.59700(6) 1 0 0.00888(14) 
O23 O2- 4 e 0.14854(4) 0.29353(7) 0.54464(6) 1 0 0.00891(14) 
O24 O2- 4 e 0.08212(4) 0.14116(8) 0.41564(6) 1 0 0.01017(14) 
K1 K1+ 4 e 0.287854(12) 0.17131(2) 0.079146(18) 1 0 0.00949(4) 
K2 K1+ 4 e 0.420108(12) 0.44811(2) 0.178588(19) 1 0 0.01038(4) 
K3 K1+ 4 e 0.233669(12) 0.57239(2) 0.160286(19) 1 0 0.01005(4) 
K4 K1+ 4 e 0.551481(12) 0.66477(2) 0.075535(18) 1 0 0.00984(4) 
K5 K1+ 4 e 0.370503(13) 0.84243(2) 0.243608(19) 1 0 0.01203(5) 
K6 K1+ 4 e 0.054431(12) 0.67635(2) 0.106782(18) 1 0 0.00886(4) 
K7 K1+ 4 e 0.213027(11) 0.66267(2) 0.427477(18) 1 0 0.00950(4) 
K8 K1+ 4 e 0.058558(12) 0.93957(2) 0.292875(18) 1 0 0.01007(4) 
K9 K1+ 4 e 0.116931(12) 0.29859(2) 0.266699(19) 1 0 0.01164(5) 

loop_
_atom_site_aniso_label
_atom_site_aniso_type_symbol
_atom_site_aniso_U_11
_atom_site_aniso_U_22
_atom_site_aniso_U_33
_atom_site_aniso_U_12
_atom_site_aniso_U_13
_atom_site_aniso_U_23
P1 P5+ 0.00581(11) 0.00550(10) 0.00599(12) -0.00069(8) 0.00070(9) 
-0.00048(8)
P2 P5+ 0.00578(11) 0.00678(10) 0.00535(11) 0.00080(8) 0.00123(9) 0.00050(8)
P3 P5+ 0.00625(11) 0.00554(10) 0.00511(11) -0.00021(8) 0.00058(9) 
0.00017(8)
P4 P5+ 0.00518(11) 0.00625(10) 0.00552(11) -0.00004(8) 0.00088(8) 
-0.00072(8)
P5 P5+ 0.00535(11) 0.00497(10) 0.00632(12) -0.00068(8) 0.00096(9) 
-0.00019(8)
P6 P5+ 0.00536(11) 0.00549(10) 0.00549(11) 0.00029(8) 0.00088(8) 0.00015(8)
Al1 Al3+ 0.00504(13) 0.00500(12) 0.00582(14) -0.00004(9) 0.00069(11) 
-0.00028(10)
Al2 Al3+ 0.00504(13) 0.00437(12) 0.00522(14) 0.00060(9) 0.00042(10) 
-0.00012(10)
Al3 Al3+ 0.00478(13) 0.00426(12) 0.00582(14) 0.00029(9) 0.00011(10) 
-0.00015(10)
O1 O2- 0.0108(3) 0.0065(3) 0.0133(4) -0.0026(2) 0.0007(3) 0.0015(3)
O2 O2- 0.0213(4) 0.0131(4) 0.0086(4) 0.0002(3) 0.0065(3) 0.0005(3)
O3 O2- 0.0110(4) 0.0129(4) 0.0217(5) 0.0031(3) 0.0072(3) -0.0006(3)
O4 O2- 0.0157(4) 0.0068(3) 0.0195(4) -0.0029(3) -0.0091(3) 0.0002(3)
O5 O2- 0.0147(4) 0.0073(3) 0.0115(4) -0.0024(3) 0.0013(3) 0.0000(3)
O6 O2- 0.0100(3) 0.0133(3) 0.0060(3) 0.0015(3) 0.0026(3) -0.0003(3)
O7 O2- 0.0071(3) 0.0172(4) 0.0079(4) 0.0033(3) 0.0023(3) 0.0021(3)
O8 O2- 0.0114(3) 0.0071(3) 0.0071(3) 0.0011(2) -0.0006(3) 0.0011(3)
O9 O2- 0.0096(3) 0.0145(4) 0.0112(4) -0.0004(3) 0.0045(3) -0.0001(3)
O10 O2- 0.0077(3) 0.0085(3) 0.0073(3) 0.0005(2) -0.0018(3) -0.0011(3)
O11 O2- 0.0130(4) 0.0069(3) 0.0100(4) 0.0001(3) 0.0004(3) -0.0022(3)
O12 O2- 0.0094(3) 0.0087(3) 0.0073(3) -0.0019(2) -0.0016(3) 0.0030(3)
O13 O2- 0.0081(3) 0.0079(3) 0.0094(3) 0.0018(2) 0.0020(3) 0.0008(3)
O14 O2- 0.0064(3) 0.0083(3) 0.0108(4) 0.0005(2) 0.0042(3) 0.0004(3)
O15 O2- 0.0091(3) 0.0068(3) 0.0072(3) -0.0023(2) 0.0026(3) -0.0008(2)
O16 O2- 0.0112(4) 0.0116(3) 0.0069(4) 0.0002(3) -0.0004(3) -0.0022(3)
O17 O2- 0.0165(4) 0.0117(3) 0.0093(4) -0.0007(3) 0.0054(3) 0.0000(3)
O18 O2- 0.0083(3) 0.0057(3) 0.0119(4) -0.0020(2) 0.0005(3) 0.0018(3)
O19 O2- 0.0080(3) 0.0113(3) 0.0175(4) 0.0025(3) 0.0033(3) 0.0004(3)
O20 O2- 0.0107(3) 0.0078(3) 0.0130(4) -0.0045(3) -0.0027(3) 0.0008(3)
O21 O2- 0.0077(3) 0.0107(3) 0.0070(3) 0.0023(2) 0.0022(3) 0.0001(3)
O22 O2- 0.0101(3) 0.0092(3) 0.0078(3) -0.0004(2) 0.0028(3) 0.0015(3)
O23 O2- 0.0072(3) 0.0051(3) 0.0139(4) 0.0009(2) 0.0006(3) -0.0007(3)
O24 O2- 0.0083(3) 0.0133(3) 0.0079(4) 0.0006(3) -0.0011(3) -0.0007(3)
K1 K1+ 0.00909(9) 0.00962(9) 0.00989(10) -0.00004(7) 0.00210(8) 0.00004(7)
K2 K1+ 0.01006(9) 0.00876(9) 0.01141(11) -0.00028(7) -0.00044(8) 
-0.00135(8)
K3 K1+ 0.00859(9) 0.00980(9) 0.01165(11) -0.00057(7) 0.00156(8) -0.00163(8)
K4 K1+ 0.01018(9) 0.01036(9) 0.00913(10) -0.00115(7) 0.00219(8) 0.00072(7)
K5 K1+ 0.01415(11) 0.01086(10) 0.01155(11) -0.00281(7) 0.00362(8) 
-0.00148(8)
K6 K1+ 0.00872(9) 0.00997(9) 0.00819(10) 0.00093(7) 0.00236(7) 0.00127(7)
K7 K1+ 0.00723(9) 0.01039(9) 0.01103(10) 0.00059(7) 0.00207(8) 0.00037(7)
K8 K1+ 0.01277(10) 0.00765(9) 0.01026(10) 0.00019(7) 0.00335(8) 0.00097(7)
K9 K1+ 0.01126(10) 0.01316(10) 0.01026(10) -0.00163(7) 0.00134(8) 
0.00316(8)
#End of data_174351-ICSD


