data_152001-ICSD
#?2014 by Fachinformationszentrum Karlsruhe, and the U.S. Secretary of 
#Commerce on behalf of the United States.  All rights reserved.
_database_code_ICSD                152001
_audit_creation_date               2006/10/01
_chemical_name_systematic          'Potassium Ditin Chloride'
_chemical_formula_structural       'K Sn2 Cl5'
_chemical_formula_sum              'Cl5 K1 Sn2'
_publ_section_title
;
High pressure study of (N H4 Pb2 Br5)-type compounds. I. Structural 
parameters and their evolution under high pressure
;
loop_
_citation_id
_citation_journal_abbrev
_citation_year
_citation_journal_volume
_citation_page_first
_citation_page_last
_citation_journal_id_ASTM
primary 'Zeitschrift fuer Anorganische und Allgemeine Chemie (1950) (DE)'
 2004 630 1924 1932 ZAACAB
_publ_author_name                  'Becker, D.;Beck, H.P.'
_cell_length_a                     7.6958
_cell_length_b                     7.6958
_cell_length_c                     13.007
_cell_angle_alpha                  90.
_cell_angle_beta                   90.
_cell_angle_gamma                  90.
_cell_volume                       770.34
_cell_formula_units_Z              4
_symmetry_space_group_name_H-M     'I 4/m c m'
_symmetry_Int_Tables_number        140
loop_
_symmetry_equiv_pos_site_id
_symmetry_equiv_pos_as_xyz
  1	'y, x, -z+.5'
  2	'-y, -x, -z+.5'
  3	'-y, x, -z'
  4	'y, -x, -z'
  5	'x, -y, -z+.5'
  6	'-x, y, -z+.5'
  7	'x, y, -z'
  8	'-x, -y, -z'
  9	'-y, -x, z+.5'
 10	'y, x, z+.5'
 11	'y, -x, z'
 12	'-y, x, z'
 13	'-x, y, z+.5'
 14	'x, -y, z+.5'
 15	'-x, -y, z'
 16	'x, y, z'
 17	'y+.5, x+.5, -z'
 18	'-y+.5, -x+.5, -z'
 19	'-y+.5, x+.5, -z+.5'
 20	'y+.5, -x+.5, -z+.5'
 21	'x+.5, -y+.5, -z'
 22	'-x+.5, y+.5, -z'
 23	'x+.5, y+.5, -z+.5'
 24	'-x+.5, -y+.5, -z+.5'
 25	'-y+.5, -x+.5, z'
 26	'y+.5, x+.5, z'
 27	'y+.5, -x+.5, z+.5'
 28	'-y+.5, x+.5, z+.5'
 29	'-x+.5, y+.5, z'
 30	'x+.5, -y+.5, z'
 31	'-x+.5, -y+.5, z+.5'
 32	'x+.5, y+.5, z+.5'
loop_
_atom_type_symbol
_atom_type_oxidation_number
Cl1-	-1
K1+	1
Sn2+	2
loop_
_atom_site_label
_atom_site_type_symbol
_atom_site_symmetry_multiplicity
_atom_site_Wyckoff_symbol
_atom_site_fract_x
_atom_site_fract_y
_atom_site_fract_z
_atom_site_occupancy
_atom_site_attached_hydrogens
K1 K1+ 4 a 0 0 0.250 1. 0 
Sn1 Sn2+ 8 h 0.1610 0.6610 0 1. 0 
Cl1 Cl1- 4 c 0 0 0 1. 0 
Cl2 Cl1- 16 l 0.1599 0.6599 0.3575 1. 0 

#End of data_152001-ICSD


