data_24819-ICSD
#?2014 by Fachinformationszentrum Karlsruhe, and the U.S. Secretary of 
#Commerce on behalf of the United States.  All rights reserved.
_database_code_ICSD                24819
_audit_creation_date               1982/12/31
_audit_update_record               2012/02/01
_chemical_name_systematic          'Pentasodium Niobium Oxide'
_chemical_formula_structural       'Na5 Nb O5'
_chemical_formula_sum              'Na5 Nb1 O5'
_publ_section_title
;
Les phases Na5 Nb O5 et Na5 Ta O5. Structure cristalline de Na5 Nb O5
;
loop_
_citation_id
_citation_journal_abbrev
_citation_year
_citation_journal_volume
_citation_page_first
_citation_page_last
_citation_journal_id_ASTM
primary 'Zeitschrift fuer Anorganische und Allgemeine Chemie (1950) (DE)'
 1982 485 115 121 ZAACAB
_publ_author_name
;
Darriet, J.;Maazaz, A.;Bouloux, J.C.;Delmas, C.
;
_cell_length_a                     6.24(1)
_cell_length_b                     10.20(1)
_cell_length_c                     10.16(1)
_cell_angle_alpha                  90.
_cell_angle_beta                   109.3(1)
_cell_angle_gamma                  90.
_cell_volume                       610.32
_cell_formula_units_Z              4
_symmetry_space_group_name_H-M     'C 1 2/c 1'
_symmetry_Int_Tables_number        15
_refine_ls_R_factor_all            .03
loop_
_symmetry_equiv_pos_site_id
_symmetry_equiv_pos_as_xyz
  1	'x, -y, z+.5'
  2	'-x, -y, -z'
  3	'-x, y, -z+.5'
  4	'x, y, z'
  5	'x+.5, -y+.5, z+.5'
  6	'-x+.5, -y+.5, -z'
  7	'-x+.5, y+.5, -z+.5'
  8	'x+.5, y+.5, z'
loop_
_atom_type_symbol
_atom_type_oxidation_number
Na1+	1
Nb5+	5
O2-	-2
loop_
_atom_site_label
_atom_site_type_symbol
_atom_site_symmetry_multiplicity
_atom_site_Wyckoff_symbol
_atom_site_fract_x
_atom_site_fract_y
_atom_site_fract_z
_atom_site_occupancy
_atom_site_attached_hydrogens
Nb1 Nb5+ 4 e 0.5 0.34240(4) 0.75 1. 0 
Na1 Na1+ 4 e 0 0.41907(20) 0.75 1. 0 
Na2 Na1+ 8 f 0.12950(27) 0.36469(13) 0.04976(17) 1. 0 
Na3 Na1+ 8 f 0.33875(28) 0.40725(15) 0.42127(18) 1. 0 
O1 O2- 8 f 0.15150(38) 0.14343(20) 0.10592(24) 1. 0 
O2 O2- 8 f 0.26004(43) 0.07875(25) 0.38000(27) 1. 0 
O3 O2- 4 e 0 0.34186(32) 0.25 1. 0 

#End of data_24819-ICSD


