data_245729-ICSD
#?2014 by Fachinformationszentrum Karlsruhe, and the U.S. Secretary of 
#Commerce on behalf of the United States.  All rights reserved.
_database_code_ICSD                245729
_audit_creation_date               2008/08/01
_chemical_name_systematic          'Barium Tecto-dialumodisilicate'
_chemical_formula_structural       'Ba (Al2 Si2 O8)'
_chemical_formula_sum              'Al2 Ba1 O8 Si2'
_publ_section_title
;
Resolving the aluminium ordering in alumosilicates by a combined 
experimental/theoretical study of 27Al electric field gradients
;
loop_
_citation_id
_citation_journal_abbrev
_citation_year
_citation_journal_volume
_citation_journal_issue
_citation_page_first
_citation_page_last
_citation_journal_id_ASTM
primary 'Inorganic Chemistry' 2007 46 14 5456 5458 INOCAJ
_publ_author_name
;
Rocquefelte, X.;Clabau, F.;Paris, M.;Deniard, P.;le Mercier, 
T.;Jobic, S.;Whangbo Myunghwan
;
_cell_length_a                     14.4075
_cell_length_b                     13.0811
_cell_length_c                     8.6368
_cell_angle_alpha                  90
_cell_angle_beta                   115.05
_cell_angle_gamma                  90
_cell_volume                       1474.64
_cell_formula_units_Z              8
_symmetry_space_group_name_H-M     'I 1 2/c 1'
_symmetry_Int_Tables_number        15
loop_
_symmetry_equiv_pos_site_id
_symmetry_equiv_pos_as_xyz
  1	'-x, y, -z+.5'
  2	'-x, -y, -z'
  3	'x, -y, z+.5'
  4	'x, y, z'
  5	'-x+.5, y+.5, -z'
  6	'-x+.5, -y+.5, -z+.5'
  7	'x+.5, -y+.5, z'
  8	'x+.5, y+.5, z+.5'
loop_
_atom_type_symbol
_atom_type_oxidation_number
Al3+	3
Ba2+	2
O2-	-2
Si4+	4
loop_
_atom_site_label
_atom_site_type_symbol
_atom_site_symmetry_multiplicity
_atom_site_Wyckoff_symbol
_atom_site_fract_x
_atom_site_fract_y
_atom_site_fract_z
_atom_site_occupancy
_atom_site_attached_hydrogens
Ba1 Ba2+ 8 f 0.8144 0.7494 0.0302 1. 0 
Si1 Si4+ 8 f 0.8581 0.5687 0.7585 1. 0 
Al1 Al3+ 8 f 0.3673 0.5671 0.7564 1. 0 
Al2 Al3+ 8 f 0.9233 0.6268 0.4544 1. 0 
Si2 Si4+ 8 f 0.4234 0.6354 0.4456 1. 0 
O1 O2- 8 f 0.7498 0.6129 0.7526 1. 0 
O2 O2- 8 f 0.8933 0.7495 0.3652 1. 0 
O3 O2- 8 f 0.8598 0.6155 0.5857 1. 0 
O4 O2- 8 f 0.3631 0.6145 0.5648 1. 0 
O5 O2- 8 f 0.8684 0.4451 0.7655 1. 0 
O6 O2- 8 f 0.3828 0.4352 0.7741 1. 0 
O7 O2- 8 f 0.9438 0.6181 0.9356 1. 0 
O8 O2- 8 f 0.453 0.6291 0.9431 1. 0 

#End of data_245729-ICSD


