data_75525-ICSD
#?2014 by Fachinformationszentrum Karlsruhe, and the U.S. Secretary of 
#Commerce on behalf of the United States.  All rights reserved.
_database_code_ICSD                75525
_audit_creation_date               1996/04/22
_audit_update_record               2005/10/01
_chemical_name_systematic          'Lithium Pentaferrate(III)'
_chemical_formula_structural       'Li (Fe5 O8)'
_chemical_formula_sum              'Fe5 Li1 O8'
_publ_section_title
;
Structures and crystal chemistry of ordered spinels: Li Fe5 O8, Li Zn 
Nb O4, and Zn2 Ti O4
;
loop_
_citation_id
_citation_journal_abbrev
_citation_year
_citation_journal_volume
_citation_page_first
_citation_page_last
_citation_journal_id_ASTM
primary 'Journal of Solid State Chemistry' 1994 113 413 419 JSSCBI
2 'Golden Book of Phase Transitions, Wroclaw' 2002 1 1 123 GBOPT5
_publ_author_name
;
Marin, S.J.;O'Keeffe, M.;Partin, D.E.
;
_cell_length_a                     8.3185(1)
_cell_length_b                     8.3185(1)
_cell_length_c                     8.3185(1)
_cell_angle_alpha                  90.
_cell_angle_beta                   90.
_cell_angle_gamma                  90.
_cell_volume                       575.62
_cell_formula_units_Z              4
_symmetry_space_group_name_H-M     'P 43 3 2'
_symmetry_Int_Tables_number        212
_refine_ls_R_factor_all            .058
loop_
_symmetry_equiv_pos_site_id
_symmetry_equiv_pos_as_xyz
  1	'z+.25, y+.75, -x+.75'
  2	'-z+.75, y+.25, x+.75'
  3	'y+.25, x+.75, -z+.75'
  4	'-y+.75, x+.25, z+.75'
  5	'x+.25, z+.75, -y+.75'
  6	'-x+.75, z+.25, y+.75'
  7	'z+.75, -y+.75, x+.25'
  8	'-z+.25, -y+.25, -x+.25'
  9	'y+.75, -x+.75, z+.25'
 10	'-y+.25, -x+.25, -z+.25'
 11	'x+.75, -z+.75, y+.25'
 12	'-x+.25, -z+.25, -y+.25'
 13	'-y+.5, -z, x+.5'
 14	'-y, z+.5, -x+.5'
 15	'y+.5, -z+.5, -x'
 16	'y, z, x'
 17	'z+.5, -x+.5, -y'
 18	'-z+.5, -x, y+.5'
 19	'-z, x+.5, -y+.5'
 20	'z, x, y'
 21	'-x+.5, -y, z+.5'
 22	'-x, y+.5, -z+.5'
 23	'x+.5, -y+.5, -z'
 24	'x, y, z'
loop_
_atom_type_symbol
_atom_type_oxidation_number
Fe3+	3
Li1+	1
O2-	-2
loop_
_atom_site_label
_atom_site_type_symbol
_atom_site_symmetry_multiplicity
_atom_site_Wyckoff_symbol
_atom_site_fract_x
_atom_site_fract_y
_atom_site_fract_z
_atom_site_occupancy
_atom_site_attached_hydrogens
_atom_site_U_iso_or_equiv
Li1 Li1+ 4 b 0.625 0.625 0.625 1. 0 0.023(2) 
Fe1 Fe3+ 8 c 0.9981(1) 0.9981(1) 0.9981(1) 1. 0 0.0033(1) 
Fe2 Fe3+ 12 d 0.125 0.3674(1) 0.8826(1) 1. 0 0.0031(3) 
O1 O2- 8 c 0.3849(1) 0.3849(1) 0.3849(1) 1. 0 0.0039(3) 
O2 O2- 24 e 0.1169(1) 0.1272(1) 0.3835(1) 1. 0 0.0043(3) 

#End of data_75525-ICSD


