data_421548-ICSD
#?2014 by Fachinformationszentrum Karlsruhe, and the U.S. Secretary of 
#Commerce on behalf of the United States.  All rights reserved.
_database_code_ICSD                421548
_audit_creation_date               2011/02/01
_audit_update_record               2014/08/01
_chemical_name_systematic
;
Calcium Dilithium Tetranitrido Disilicate
;
_chemical_formula_structural       'Ca Li2 N4 Si2'
_chemical_formula_sum              'Ca1 Li2 N4 Si2'
_publ_section_title
;
Li2 Ca Si2 N4 and Li2 Sr Si2 N4 - a synthetic approach to three-
dimensional lithium nitridosilicates
;
loop_
_citation_id
_citation_journal_abbrev
_citation_year
_citation_journal_volume
_citation_journal_issue
_citation_page_first
_citation_page_last
_citation_journal_id_ASTM
primary 'European Journal of Inorganic Chemistry  (online)'
 2010 2010 31 4945 4951 EJICFO
_publ_author_name
;
Zeuner, M.;Pagano, S.;Hug, S.;Pust, P.;Schmiechen, S.;Scheu, 
C.;Schnick, W.
;
_cell_length_a                     10.5685(12)
_cell_length_b                     10.5685(12)
_cell_length_c                     10.5685(12)
_cell_angle_alpha                  90.00
_cell_angle_beta                   90.00
_cell_angle_gamma                  90.00
_cell_volume                       1180.43
_cell_formula_units_Z              12
_symmetry_space_group_name_H-M     'P a -3'
_symmetry_Int_Tables_number        205
_refine_ls_R_factor_all            .0331
loop_
_symmetry_equiv_pos_site_id
_symmetry_equiv_pos_as_xyz
  1	'-z+.5, x+.5, y'
  2	'z+.5, x, -y+.5'
  3	'z, -x+.5, y+.5'
  4	'-z, -x, -y'
  5	'y, -z+.5, x+.5'
  6	'-y+.5, z+.5, x'
  7	'y+.5, z, -x+.5'
  8	'-y, -z, -x'
  9	'x+.5, y, -z+.5'
 10	'x, -y+.5, z+.5'
 11	'-x+.5, y+.5, z'
 12	'-x, -y, -z'
 13	'z+.5, -x+.5, -y'
 14	'-z+.5, -x, y+.5'
 15	'-z, x+.5, -y+.5'
 16	'z, x, y'
 17	'-y, z+.5, -x+.5'
 18	'y+.5, -z+.5, -x'
 19	'-y+.5, -z, x+.5'
 20	'y, z, x'
 21	'-x+.5, -y, z+.5'
 22	'-x, y+.5, -z+.5'
 23	'x+.5, -y+.5, -z'
 24	'x, y, z'
loop_
_atom_type_symbol
_atom_type_oxidation_number
Ca2+	2
Li1+	1
N3-	-3
Si4+	4
loop_
_atom_site_label
_atom_site_type_symbol
_atom_site_symmetry_multiplicity
_atom_site_Wyckoff_symbol
_atom_site_fract_x
_atom_site_fract_y
_atom_site_fract_z
_atom_site_occupancy
_atom_site_attached_hydrogens
_atom_site_U_iso_or_equiv
Ca1 Ca2+ 8 c 0.20499(5) 0.20499(5) 0.20499(5) 1 0 0.0103(3) 
Ca2 Ca2+ 4 b 0.5000 0.0000 0.0000 1 0 0.0169(3) 
Si1 Si4+ 24 d 0.48475(7) 0.37258(7) 0.25162(7) 1 0 0.0073(2) 
N1 N3- 24 d 0.2813(2) 0.1097(2) 0.0036(2) 1 0 0.0096(5) 
N2 N3- 24 d 0.2759(2) 0.1378(2) 0.4214(2) 1 0 0.0128(5) 
Li1 Li1+ 24 d 0.2217(6) -0.0476(5) 0.1136(5) 1 0 0.0207(11) 

loop_
_atom_site_aniso_label
_atom_site_aniso_type_symbol
_atom_site_aniso_U_11
_atom_site_aniso_U_22
_atom_site_aniso_U_33
_atom_site_aniso_U_12
_atom_site_aniso_U_13
_atom_site_aniso_U_23
Ca1 Ca2+ 0.0103(3) 0.0103(3) 0.0103(3) 0.00039(18) 0.00039(18) 0.00039(18)
Ca2 Ca2+ 0.0169(3) 0.0169(3) 0.0169(3) 0.0037(3) -0.0037(3) 0.0037(3)
Si1 Si4+ 0.0080(4) 0.0074(4) 0.0064(4) 0.0001(2) 0.0003(2) -0.0003(2)
N1 N3- 0.0109(10) 0.0095(10) 0.0085(10) -0.0003(8) 0.0002(8) 0.0013(8)
N2 N3- 0.0124(11) 0.0121(11) 0.0141(12) -0.0005(8) 0.0001(9) -0.0012(9)
Li1 Li1+ 0.026(3) 0.014(3) 0.021(3) 0.004(2) 0.003(2) -0.002(2)
#End of data_421548-ICSD


