data_20125-ICSD
#?2014 by Fachinformationszentrum Karlsruhe, and the U.S. Secretary of 
#Commerce on behalf of the United States.  All rights reserved.
_database_code_ICSD                20125
_audit_creation_date               1980/01/01
_audit_update_record               1999/01/19
_chemical_name_systematic          'Pentasilver Antimony Sulfide'
_chemical_formula_structural       'Ag5 Sb S4'
_chemical_formula_sum              'Ag5 S4 Sb1'
_chemical_name_mineral             Stephanite
_publ_section_title
;
The crystal structure of stephanite Ag5 Sb S4
;
loop_
_citation_id
_citation_journal_abbrev
_citation_year
_citation_journal_volume
_citation_page_first
_citation_page_last
_citation_journal_id_ASTM
primary 'Doklady Akademii Nauk SSSR' 1969 188 342 344 DANKAS
_publ_author_name
;
Petrunina, A.A.;Maksimov, B.A.;Ilyukhin, V.V.;Belov, N.V.
;
_cell_length_a                     7.830(2)
_cell_length_b                     12.450(5)
_cell_length_c                     8.538(2)
_cell_angle_alpha                  90.
_cell_angle_beta                   90.
_cell_angle_gamma                  90.
_cell_volume                       832.31
_cell_formula_units_Z              4
_symmetry_space_group_name_H-M     'C m c 21'
_symmetry_Int_Tables_number        36
_refine_ls_R_factor_all            .15
loop_
_symmetry_equiv_pos_site_id
_symmetry_equiv_pos_as_xyz
  1	'x, -y, z+.5'
  2	'-x, -y, z+.5'
  3	'-x, y, z'
  4	'x, y, z'
  5	'x+.5, -y+.5, z+.5'
  6	'-x+.5, -y+.5, z+.5'
  7	'-x+.5, y+.5, z'
  8	'x+.5, y+.5, z'
loop_
_atom_type_symbol
_atom_type_oxidation_number
Ag1+	1
S2-	-2
Sb3+	3
loop_
_atom_site_label
_atom_site_type_symbol
_atom_site_symmetry_multiplicity
_atom_site_Wyckoff_symbol
_atom_site_fract_x
_atom_site_fract_y
_atom_site_fract_z
_atom_site_occupancy
_atom_site_attached_hydrogens
_atom_site_B_iso_or_equiv
Ag1 Ag1+ 4 a 0.5 0.145 0.842 1. 0 1.6 
Ag2 Ag1+ 8 b 0.312 0.378 0 1. 0 1.6 
Ag3 Ag1+ 8 b 0.326 0.063 0.19 1. 0 1.6 
Sb1 Sb3+ 4 a 0 0.169 0.917 1. 0 1.6 
S1 S2- 8 b 0.229 0.231 0.754 1. 0 1.6 
S2 S2- 4 a 0 0.467 0 1. 0 1.6 
S3 S2- 4 a 0.5 0.486 0.8 1. 0 1.6 

#End of data_20125-ICSD


