data_158928-ICSD
#?2014 by Fachinformationszentrum Karlsruhe, and the U.S. Secretary of 
#Commerce on behalf of the United States.  All rights reserved.
_database_code_ICSD                158928
_audit_creation_date               2008/08/01
_chemical_name_systematic          'Sodium Magnesium Trifluoride'
_chemical_formula_structural       'Na (Mg F3)'
_chemical_formula_sum              'F3 Mg1 Na1'
_chemical_name_mineral             Neighborite
_publ_section_title
;
A powder neutron diffraction study of the crystal structure of the 
fluoroperovskite Na Mg F3 (neighborite) from 300 to 3.6 K
;
loop_
_citation_id
_citation_journal_abbrev
_citation_year
_citation_journal_volume
_citation_page_first
_citation_page_last
_citation_journal_id_ASTM
primary 'Physics and Chemistry of Minerals' 2007 34 705 712 PCMIDU
_publ_author_name
;
Mitchell, R.H.;Alexander, M.;Cranswick, L.M.D.;Swainson, I.P.
;
_cell_length_a                     5.3308
_cell_length_b                     5.4814
_cell_length_c                     7.6352
_cell_angle_alpha                  90.
_cell_angle_beta                   90.
_cell_angle_gamma                  90.
_cell_volume                       223.1
_cell_formula_units_Z              4
_symmetry_space_group_name_H-M     'P b n m'
_symmetry_Int_Tables_number        62
_refine_ls_R_factor_all            .0383
loop_
_symmetry_equiv_pos_site_id
_symmetry_equiv_pos_as_xyz
  1	'-x+.5, y+.5, z'
  2	'x, y, -z+.5'
  3	'x+.5, -y+.5, z+.5'
  4	'-x, -y, -z'
  5	'x+.5, -y+.5, -z'
  6	'-x, -y, z+.5'
  7	'-x+.5, y+.5, -z+.5'
  8	'x, y, z'
loop_
_atom_type_symbol
_atom_type_oxidation_number
F1-	-1
Mg2+	2
Na1+	1
loop_
_atom_site_label
_atom_site_type_symbol
_atom_site_symmetry_multiplicity
_atom_site_Wyckoff_symbol
_atom_site_fract_x
_atom_site_fract_y
_atom_site_fract_z
_atom_site_occupancy
_atom_site_attached_hydrogens
Mg1 Mg2+ 4 b 0 0.5 0 1. 0 
Na1 Na1+ 4 c 0.9867(18) 0.0484(16) 0.250 1. 0 
F1 F1- 4 c 0.0929(9) 0.4701(9) 0.250 1. 0 
F2 F1- 8 d 0.7009(7) 0.2955(7) 0.0485(5) 1. 0 

#End of data_158928-ICSD


