data_73824-ICSD
#?2014 by Fachinformationszentrum Karlsruhe, and the U.S. Secretary of 
#Commerce on behalf of the United States.  All rights reserved.
_database_code_ICSD                73824
_audit_creation_date               1995/01/10
_chemical_name_systematic
;
Silver Tecto-vanadato(IV)vanadatodiphosphate
;
_chemical_formula_structural       'Ag (V2 P2 O10)'
_chemical_formula_sum              'Ag1 O10 P2 V2'
_publ_section_title
;
A mixed valent vanadium phosphate closely related to BaV2P2O10: 
AgV2P2O10
;
loop_
_citation_id
_citation_journal_abbrev
_citation_year
_citation_journal_volume
_citation_page_first
_citation_page_last
_citation_journal_id_ASTM
primary 'Journal of Solid State Chemistry' 1993 104 226 231 JSSCBI
_publ_author_name
;
Grandin, A.;Chardon, J.;Borel, M.M.;Leclaire, A.;Raveau, B.
;
_cell_length_a                     5.256(1)
_cell_length_b                     8.117(1)
_cell_length_c                     16.966(1)
_cell_angle_alpha                  90.
_cell_angle_beta                   91.46(1)
_cell_angle_gamma                  90.
_cell_volume                       723.58
_cell_formula_units_Z              4
_symmetry_space_group_name_H-M     'P 1 21/c 1'
_symmetry_Int_Tables_number        14
_refine_ls_R_factor_all            .028
loop_
_symmetry_equiv_pos_site_id
_symmetry_equiv_pos_as_xyz
  1	'x, -y+.5, z+.5'
  2	'-x, -y, -z'
  3	'-x, y+.5, -z+.5'
  4	'x, y, z'
loop_
_atom_type_symbol
_atom_type_oxidation_number
Ag1+	1
O2-	-2
P5+	5
V4+	4
V5+	5
loop_
_atom_site_label
_atom_site_type_symbol
_atom_site_symmetry_multiplicity
_atom_site_Wyckoff_symbol
_atom_site_fract_x
_atom_site_fract_y
_atom_site_fract_z
_atom_site_occupancy
_atom_site_attached_hydrogens
_atom_site_B_iso_or_equiv
Ag1 Ag1+ 4 e 0.07526(5) 0.20627(3) 0.18857(2) 1. 0 1.352(3) 
V1 V4+ 4 e 0.14413(8) 0.86962(6) 0.06988(3) 1. 0 0.433(5) 
V2 V5+ 4 e 0.46419(9) 0.03216(6) 0.35275(3) 1. 0 0.490(5) 
P1 P5+ 4 e 0.3664(1) 0.26446(8) 0.01677(4) 1. 0 0.383(8) 
P2 P5+ 4 e 0.3564(1) 0.42347(8) 0.31759(4) 1. 0 0.376(8) 
O1 O2- 4 e 0.1727(4) 0.6911(3) 0.1095(1) 1. 0 0.86(3) 
O2 O2- 4 e 0.8632(4) 0.8546(3) -.0134(1) 1. 0 0.63(3) 
O3 O2- 4 e 0.8820(4) 0.9710(3) 0.1386(1) 1. 0 0.73(3) 
O4 O2- 4 e 0.3837(4) 0.8271(3) -.0141(1) 1. 0 0.72(3) 
O5 O2- 4 e 0.3988(4) 0.9799(3) 0.1413(1) 1. 0 0.70(3) 
O6 O2- 4 e 0.2285(4) -.0757(3) 0.3237(2) 1. 0 1.14(3) 
O7 O2- 4 e 0.3582(4) 0.2360(3) 0.3028(1) 1. 0 0.78(3) 
O8 O2- 4 e 0.6749(4) 0.0052(3) 0.2649(1) 1. 0 0.75(3) 
O9 O2- 4 e 0.6566(4) 0.8633(3) 0.4057(1) 1. 0 0.76(3) 
O10 O2- 4 e 0.3416(4) 0.1103(3) 0.4478(1) 1. 0 0.68(3) 

#End of data_73824-ICSD


