data_427122-ICSD
#?2014 by Fachinformationszentrum Karlsruhe, and the U.S. Secretary of 
#Commerce on behalf of the United States.  All rights reserved.
_database_code_ICSD                427122
_audit_creation_date               2014/08/01
_chemical_name_systematic
;
Tetrabarium Magnesium Difluoride Tetra(carbodiimide)
;
_chemical_formula_structural       'Ba4 Mg F2 (C N2)4'
_chemical_formula_sum              'C4 Ba4 F2 Mg1 N8'
_publ_section_title
;
Preparation and crystal structure of Ba4 Mg F2 (C N2)4
;
loop_
_citation_id
_citation_journal_abbrev
_citation_year
_citation_journal_volume
_citation_journal_issue
_citation_page_first
_citation_page_last
_citation_journal_id_ASTM
primary 'Zeitschrift fuer Anorganische und Allgemeine Chemie (1950) (DE)'
 2014 640 5 902 904 ZAACAB
_publ_author_name
;
Olive Corral, Anna;Kubus, Mariusz;Stroebele, Markus;Meyer, H. Juergen
;
_cell_length_a                     8.351(2)
_cell_length_b                     8.617(1)
_cell_length_c                     8.442(2)
_cell_angle_alpha                  90.00
_cell_angle_beta                   109.09(2)
_cell_angle_gamma                  90.00
_cell_volume                       574.08
_cell_formula_units_Z              2
_symmetry_space_group_name_H-M     'P 1 21/c 1'
_symmetry_Int_Tables_number        14
_refine_ls_R_factor_all            .0258
loop_
_symmetry_equiv_pos_site_id
_symmetry_equiv_pos_as_xyz
  1	'x, -y+.5, z+.5'
  2	'-x, -y, -z'
  3	'-x, y+.5, -z+.5'
  4	'x, y, z'
loop_
_atom_type_symbol
_atom_type_oxidation_number
Ba2+	2
C4+	4
F1-	-1
Mg2+	2
N3-	-3
loop_
_atom_site_label
_atom_site_type_symbol
_atom_site_symmetry_multiplicity
_atom_site_Wyckoff_symbol
_atom_site_fract_x
_atom_site_fract_y
_atom_site_fract_z
_atom_site_occupancy
_atom_site_attached_hydrogens
_atom_site_U_iso_or_equiv
Ba1 Ba2+ 4 e -0.21459(4) 0.16973(4) 0.40931(4) 1 0 0.01942(13) 
Ba2 Ba2+ 4 e -0.24017(4) -0.32743(4) 0.26178(4) 1 0 0.01959(13) 
Mg1 Mg2+ 2 b -0.5000 0.0000 0.0000 1 0 0.0195(6) 
F1 F1- 4 e -0.1284(5) -0.1297(4) 0.5016(5) 1 0 0.0270(8) 
C1 C4+ 4 e -0.5046(7) -0.1427(7) 0.3582(8) 1 0 0.0218(13) 
C2 C4+ 4 e -0.0726(8) -0.0542(6) 0.1632(8) 1 0 0.0200(13) 
N1 N3- 4 e -0.4972(8) -0.0420(6) 0.2575(8) 1 0 0.0289(12) 
N2 N3- 4 e -0.4906(7) 0.2540(6) 0.0447(7) 1 0 0.0290(13) 
N3 N3- 4 e -0.2086(8) 0.0041(7) 0.0878(7) 1 0 0.0345(14) 
N4 N3- 4 e -0.0642(8) 0.3839(7) 0.2593(8) 1 0 0.0332(13) 

loop_
_atom_site_aniso_label
_atom_site_aniso_type_symbol
_atom_site_aniso_U_11
_atom_site_aniso_U_22
_atom_site_aniso_U_33
_atom_site_aniso_U_12
_atom_site_aniso_U_13
_atom_site_aniso_U_23
Ba1 Ba2+ 0.0175(2) 0.0227(2) 0.0185(2) -0.00036(13) 0.00652(15) 0.00127(14)
Ba2 Ba2+ 0.0193(2) 0.0190(2) 0.0204(2) -0.00137(13) 0.00635(16) 
-0.00208(14)
Mg1 Mg2+ 0.0208(14) 0.0195(12) 0.0183(14) 0.0009(11) 0.0067(11) 0.0005(12)
F1 F1- 0.025(2) 0.0260(17) 0.029(2) 0.0013(15) 0.0076(16) 0.0007(15)
C1 C4+ 0.016(3) 0.020(3) 0.030(4) -0.001(2) 0.010(3) -0.008(3)
C2 C4+ 0.021(3) 0.018(3) 0.027(3) -0.005(2) 0.015(3) -0.004(2)
N1 N3- 0.031(3) 0.028(3) 0.028(3) 0.004(2) 0.011(2) 0.003(2)
N2 N3- 0.029(3) 0.029(3) 0.031(3) 0.002(2) 0.012(3) -0.008(3)
N3 N3- 0.040(4) 0.037(3) 0.026(3) 0.017(3) 0.010(3) 0.002(3)
N4 N3- 0.027(3) 0.040(3) 0.034(3) -0.008(3) 0.011(3) 0.000(3)
#End of data_427122-ICSD


