data_86097-ICSD
#?2014 by Fachinformationszentrum Karlsruhe, and the U.S. Secretary of 
#Commerce on behalf of the United States.  All rights reserved.
_database_code_ICSD                86097
_audit_creation_date               1999/11/30
_chemical_name_systematic
;
Potassium Tecto-antimono(V)divanadate(V)
;
_chemical_formula_structural       'K (Sb V2 O8)'
_chemical_formula_sum              'K1 O8 Sb1 V2'
_publ_section_title
;
Synthesis and characterization of new vanadates of antimony, A Sb V2 
O8 (A = K, Rb, Tl or Cs)
;
loop_
_citation_id
_citation_journal_abbrev
_citation_year
_citation_journal_volume
_citation_page_first
_citation_page_last
_citation_journal_id_ASTM
primary
;
Journal of the Chemical Society. Dalton Transactions, Inorganic 
Chemistry (1972-)
;
 1998 1998 3013 3019 JCDTBI
_publ_author_name                  'Nandini Devi, R.;Vidyasagar, K.'
_cell_length_a                     14.6248(10)
_cell_length_b                     5.5633(10)
_cell_length_c                     8.5168(10)
_cell_angle_alpha                  90.
_cell_angle_beta                   90.
_cell_angle_gamma                  90.
_cell_volume                       692.95
_cell_formula_units_Z              4
_symmetry_space_group_name_H-M     'P n m a'
_symmetry_Int_Tables_number        62
_refine_ls_R_factor_all            .025
loop_
_symmetry_equiv_pos_site_id
_symmetry_equiv_pos_as_xyz
  1	'x+.5, y, -z+.5'
  2	'x, -y+.5, z'
  3	'-x+.5, y+.5, z+.5'
  4	'-x, -y, -z'
  5	'-x+.5, -y, z+.5'
  6	'-x, y+.5, -z'
  7	'x+.5, -y+.5, -z+.5'
  8	'x, y, z'
loop_
_atom_type_symbol
_atom_type_oxidation_number
K1+	1
O2-	-2
Sb5+	5
V5+	5
loop_
_atom_site_label
_atom_site_type_symbol
_atom_site_symmetry_multiplicity
_atom_site_Wyckoff_symbol
_atom_site_fract_x
_atom_site_fract_y
_atom_site_fract_z
_atom_site_occupancy
_atom_site_attached_hydrogens
K1 K1+ 4 c 0.38118(4) 0.25 0.5490(3) 1. 0 
Sb1 Sb5+ 4 c 0.11784(4) 0.25 0.68743(6) 1. 0 
V1 V5+ 4 c 0.28398(9) 0.25 0.9920(2) 1. 0 
V2 V5+ 4 c 0.02718(10) 0.25 0.2933(2) 1. 0 
O1 O2- 4 c 0.1796(4) 0.25 0.8917(7) 1. 0 
O2 O2- 8 d 0.2046(3) 0.0089(8) 0.6083(5) 1. 0 
O3 O2- 4 c 0.3643(4) 0.25 0.8660(8) 1. 0 
O4 O2- 4 c 0.0457(4) 0.25 0.4916(7) 1. 0 
O5 O2- 8 d 0.0357(3) 0.0029(8) 0.7745(5) 1. 0 
O6 O2- 4 c 0.3787(4) 0.75 0.6993(8) 1. 0 

loop_
_atom_site_aniso_label
_atom_site_aniso_type_symbol
_atom_site_aniso_U_11
_atom_site_aniso_U_22
_atom_site_aniso_U_33
_atom_site_aniso_U_12
_atom_site_aniso_U_13
_atom_site_aniso_U_23
K1 K1+ 0.0226(11) 0.0224(11) 0.0200(11) 0 0.0036(9) 0
Sb1 Sb5+ 0.0074(3) 0.0012(3) 0.0072(3) 0 -.0007(2) 0
V1 V5+ 0.0091(7) 0.0025(7) 0.0106(7) 0 -.0025(6) 0
V2 V5+ 0.0089(7) 0.0019(7) 0.0070(7) 0 -.0012(5) 0
O1 O2- 0.010(3) 0.010(3) 0.016(3) 0 -.003(3) 0
O2 O2- 0.014(2) 0.013(2) 0.017(2) 0.004(2) 0.001(2) -.005(2)
O3 O2- 0.013(3) 0.018(4) 0.020(3) 0 0.003(3) 0
O4 O2- 0.014(3) 0.004(3) 0.014(3) 0 -.003(2) 0
O5 O2- 0.015(2) 0.007(2) 0.012(2) -.003(2) -.003(2) 0.002(2)
O6 O2- 0.014(3) 0.010(3) 0.024(4) 0 -.004(3) 0
#End of data_86097-ICSD


