data_15415-ICSD
#?2014 by Fachinformationszentrum Karlsruhe, and the U.S. Secretary of 
#Commerce on behalf of the United States.  All rights reserved.
_database_code_ICSD                15415
_audit_creation_date               1980/01/01
_audit_update_record               2014/08/01
_chemical_name_systematic          'Lithium Phyllo-alumotetrasilicate'
_chemical_formula_structural       'Li (Al Si4 O10)'
_chemical_formula_sum              'Al1 Li1 O10 Si4'
_chemical_name_mineral             'Petalite 1M'
_publ_section_title
;
Untersuchungen an Schichtsilikaten des Formeltyps Am (Si2 O5)n. III. 
Zur Kristallstruktur von Petalit, Li Al Si4 O10
;
loop_
_citation_id
_citation_journal_abbrev
_citation_year
_citation_journal_volume
_citation_page_first
_citation_page_last
_citation_journal_id_ASTM
primary 'Acta Crystallographica (1,1948-23,1967)' 1961 14 399 406 ACCRA9
2 'Acta Crystallographica (1,1948-23,1967)' 1955 8 781 781 ACCRA9
_publ_author_name                  'Liebau, F.'
_cell_length_a                     11.76
_cell_length_b                     5.14
_cell_length_c                     7.62
_cell_angle_alpha                  90.
_cell_angle_beta                   112.4
_cell_angle_gamma                  90.
_cell_volume                       425.85
_cell_formula_units_Z              2
_symmetry_space_group_name_H-M     'P 1 a 1'
_symmetry_Int_Tables_number        7
_refine_ls_R_factor_all            .091
loop_
_symmetry_equiv_pos_site_id
_symmetry_equiv_pos_as_xyz
  1	'x+.5, -y, z'
  2	'x, y, z'
loop_
_atom_type_symbol
_atom_type_oxidation_number
Al3+	3
Li1+	1
O2-	-2
Si4+	4
loop_
_atom_site_label
_atom_site_type_symbol
_atom_site_symmetry_multiplicity
_atom_site_Wyckoff_symbol
_atom_site_fract_x
_atom_site_fract_y
_atom_site_fract_z
_atom_site_occupancy
_atom_site_attached_hydrogens
_atom_site_B_iso_or_equiv
Si1 Si4+ 2 a 0.9985 0.519 0.2893 1. 0 0.4 
Si2 Si4+ 2 a 0.5015 0.519 0.7107 1. 0 0.4 
Si3 Si4+ 2 a 0.1467 0.011 0.2893 1. 0 0.4 
Si4 Si4+ 2 a 0.3533 0.011 0.7107 1. 0 0.4 
O1 O2- 2 a 0.0155 0.48 0.5115 1. 0 1.8 
O2 O2- 2 a 0.26 0.975 0.492 1. 0 1.8 
O3 O2- 2 a 0.0902 0.2985 0.2635 1. 0 1.45 
O4 O2- 2 a 0.4098 0.2985 0.7365 1. 0 1.45 
O5 O2- 2 a 0.3603 0.5337 0.1335 1. 0 1.05 
O6 O2- 2 a 0.1397 0.5337 0.8665 1. 0 1.05 
O7 O2- 2 a 0.0403 0.8075 0.2635 1. 0 1.45 
O8 O2- 2 a 0.4597 0.8075 0.7365 1. 0 1.45 
O9 O2- 2 a 0.2057 0.9685 0.1335 1. 0 1.05 
O10 O2- 2 a 0.2943 0.9685 0.8665 1. 0 1.05 
Li1 Li1+ 2 a 0.25 0.26 0 1. 0 0.55 
Al1 Al3+ 2 a 0.25 0.755 0 1. 0 0.55 

#End of data_15415-ICSD


