data_100172-ICSD
#?2014 by Fachinformationszentrum Karlsruhe, and the U.S. Secretary of 
#Commerce on behalf of the United States.  All rights reserved.
_database_code_ICSD                100172
_audit_creation_date               1980/12/31
_audit_update_record               2005/10/01
_chemical_name_systematic          'Potassium Copper Phosphate(V) - Lt'
_chemical_formula_structural       'K Cu (P O4)'
_chemical_formula_sum              'Cu1 K1 O4 P1'
_publ_section_title
;
The structure of potassium copper(II) phosphate K Cu P O4, an example 
of a three-dimensional network
;
loop_
_citation_id
_citation_journal_abbrev
_citation_year
_citation_journal_volume
_citation_page_first
_citation_page_last
_citation_journal_id_ASTM
primary 'Zeitschrift fuer Kristallographie (1979-2010)' 1980 152 317 332 ZEKRDZ
_publ_author_name
;
Shoemaker, G.L.;Kostiner, E.;Anderson, J.B.
;
_cell_length_a                     8.2778(5)
_cell_length_b                     9.7201(6)
_cell_length_c                     4.9421(3)
_cell_angle_alpha                  90.
_cell_angle_beta                   92.13(1)
_cell_angle_gamma                  90.
_cell_volume                       397.37
_cell_formula_units_Z              4
_symmetry_space_group_name_H-M     'P 1 21 1'
_symmetry_Int_Tables_number        4
_refine_ls_R_factor_all            .031
loop_
_symmetry_equiv_pos_site_id
_symmetry_equiv_pos_as_xyz
  1	'-x, y+.5, -z'
  2	'x, y, z'
loop_
_atom_type_symbol
_atom_type_oxidation_number
Cu2+	2
K1+	1
O2-	-2
P5+	5
loop_
_atom_site_label
_atom_site_type_symbol
_atom_site_symmetry_multiplicity
_atom_site_Wyckoff_symbol
_atom_site_fract_x
_atom_site_fract_y
_atom_site_fract_z
_atom_site_occupancy
_atom_site_attached_hydrogens
Cu1 Cu2+ 2 a 0.09220(7) 0 0.1617(1) 1. 0 
Cu2 Cu2+ 2 a 0.41692(8) 0.10096(9) 0 1. 0 
K1 K1+ 2 a 0.2354(2) 0.3461(2) 0.2745(3) 1. 0 
K2 K1+ 2 a 0.7411(2) 0.2319(2) 0.2622(3) 1. 0 
P1 P5+ 2 a 0.0577(2) 0.1844(2) 0.7670(3) 1. 0 
P2 P5+ 2 a 0.5549(2) 0.4203(2) 0.7453(3) 1. 0 
O1 O2- 2 a 0.9316(5) 0.1003(5) 0.9183(8) 1. 0 
O2 O2- 2 a 0.2190(5) 0.1313(4) 0.9168(8) 1. 0 
O3 O2- 2 a 0.0559(6) 0.1542(5) 0.4671(9) 1. 0 
O4 O2- 2 a 0.0477(5) 0.3393(4) 0.8146(10) 1. 0 
O5 O2- 2 a 0.5309(5) 0.0423(4) 0.4162(8) 1. 0 
O6 O2- 2 a 0.4556(5) 0.2895(4) 0.6521(9) 1. 0 
O7 O2- 2 a 0.7230(5) 0.4065(6) 0.6828(10) 1. 0 
O8 O2- 2 a 0.5228(5) 0.4114(5) 0.0503(8) 1. 0 

loop_
_atom_site_aniso_label
_atom_site_aniso_type_symbol
_atom_site_aniso_B_11
_atom_site_aniso_B_22
_atom_site_aniso_B_33
_atom_site_aniso_B_12
_atom_site_aniso_B_13
_atom_site_aniso_B_23
Cu1 Cu2+ 0.81(2) 0.98(2) 1.16(2) -.05(2) -.12(2) 0.29(2)
Cu2 Cu2+ 1.00(2) 0.70(2) 0.88(2) 0.09(2) 0.20(2) 0.09(2)
K1 K1+ 1.45(4) 1.70(5) 1.55(4) -.32(4) -.50(3) 0.32(4)
K2 K1+ 1.69(5) 1.62(5) 1.71(4) 0.09(4) 0.33(2) -.19(4)
P1 P5+ 0.95(4) 0.77(4) 0.67(4) 0.11(3) -.02(3) -.05(3)
P2 P5+ 0.89(4) 0.66(4) 0.70(4) -.09(3) 0.05(3) -.14(3)
O1 O2- 1.21(13) 1.35(13) 1.28(13) -.22(13) 0.06(10) 0.29(13)
O2 O2- 1.03(13) 1.37(14) 1.13(13) 0.22(11) 0.12(10) 0.41(11)
O3 O2- 3.08(20) 1.62(16) 0.74(13) 0.25(15) 0.18(13) -.14(13)
O4 O2- 1.68(15) 0.93(13) 2.02(16) 0.51(12) -.49(13) -.37(13)
O5 O2- 1.86(15) 0.82(12) 1.09(13) -.24(12) 0.39(12) -.13(12)
O6 O2- 1.84(15) 0.75(12) 1.15(13) -.32(12) 0.09(12) 0.01(12)
O7 O2- 0.76(13) 2.55(19) 2.05(16) -.22(13) 0.10(12) -1.36(16)
O8 O2- 2.07(16) 1.37(15) 0.63(12) -.49(12) 0.11(11) -.14(11)
#End of data_100172-ICSD


