data_4317-ICSD
#?2014 by Fachinformationszentrum Karlsruhe, and the U.S. Secretary of 
#Commerce on behalf of the United States.  All rights reserved.
_database_code_ICSD                4317
_audit_creation_date               1980/01/01
_audit_update_record               1987/04/16
_chemical_name_systematic          'Lithium Trioxotellurate(IV)'
_chemical_formula_structural       'Li2 Te O3'
_chemical_formula_sum              'Li2 O3 Te1'
_publ_section_title
;
Die Kristallstruktur von  Li2 Te O3
;
loop_
_citation_id
_citation_journal_abbrev
_citation_year
_citation_journal_volume
_citation_page_first
_citation_page_last
_citation_journal_id_ASTM
primary 'Zeitschrift fuer Anorganische und Allgemeine Chemie (1950) (DE)'
 1975 411 103 110 ZAACAB
_publ_author_name                  'Folger, F.'
_cell_length_a                     5.069
_cell_length_b                     9.566
_cell_length_c                     13.727
_cell_angle_alpha                  90.
_cell_angle_beta                   95.4
_cell_angle_gamma                  90.
_cell_volume                       662.67
_cell_formula_units_Z              8
_symmetry_space_group_name_H-M     'C 1 2/c 1'
_symmetry_Int_Tables_number        15
_refine_ls_R_factor_all            .101
loop_
_symmetry_equiv_pos_site_id
_symmetry_equiv_pos_as_xyz
  1	'x, -y, z+.5'
  2	'-x, -y, -z'
  3	'-x, y, -z+.5'
  4	'x, y, z'
  5	'x+.5, -y+.5, z+.5'
  6	'-x+.5, -y+.5, -z'
  7	'-x+.5, y+.5, -z+.5'
  8	'x+.5, y+.5, z'
loop_
_atom_type_symbol
_atom_type_oxidation_number
Li1+	1
O2-	-2
Te4+	4
loop_
_atom_site_label
_atom_site_type_symbol
_atom_site_symmetry_multiplicity
_atom_site_Wyckoff_symbol
_atom_site_fract_x
_atom_site_fract_y
_atom_site_fract_z
_atom_site_occupancy
_atom_site_attached_hydrogens
_atom_site_B_iso_or_equiv
Te1 Te4+ 8 f 0.26045(85) 0.09450(14) 0.0896(1) 1. 0 0.42 
O1 O2- 8 f 0.6414(44) 0.0923(22) 0.1140(12) 1. 0 1.03 
O2 O2- 8 f 0.1841(46) -.0549(20) 0.1676(14) 1. 0 1.29 
O3 O2- 8 f 0.1832(47) 0.2448(17) 0.1694(15) 1. 0 1.21 
Li1 Li1+ 8 f 0.798(10) -.0675(60) 0.1870(56) 1. 0 1. 
Li2 Li1+ 8 f 0.799(13) 0.2531(52) 0.1828(36) 1. 0 1. 

#End of data_4317-ICSD


