data_85766-ICSD
#?2014 by Fachinformationszentrum Karlsruhe, and the U.S. Secretary of 
#Commerce on behalf of the United States.  All rights reserved.
_database_code_ICSD                85766
_audit_creation_date               1999/11/30
_chemical_name_systematic
;
Dipotassium Dicopper Decaselenophosphate(IV)
;
_chemical_formula_structural       'K2 Cu2 (P4 Se10)'
_chemical_formula_sum              'Cu2 K2 P4 Se10'
_publ_section_title
;
Flux synthesis of K2 Cu2 P4 Se10 : a layered selenophosphate with a 
new cyclohexane-like (P4 Se10)(4-) group
;
loop_
_citation_id
_citation_journal_abbrev
_citation_year
_citation_journal_volume
_citation_page_first
_citation_page_last
_citation_journal_id_ASTM
primary 'Inorganic Chemistry' 1998 37 2098 2099 INOCAJ
_publ_author_name                  'Chondroudis, K.;Kanatzidis, M.G.'
_cell_length_a                     10.627(2)
_cell_length_b                     7.767(1)
_cell_length_c                     11.966(1)
_cell_angle_alpha                  90.
_cell_angle_beta                   109.125(8)
_cell_angle_gamma                  90.
_cell_volume                       933.16
_cell_formula_units_Z              2
_symmetry_space_group_name_H-M     'P 1 21/n 1'
_symmetry_Int_Tables_number        14
_refine_ls_R_factor_all            .028
loop_
_symmetry_equiv_pos_site_id
_symmetry_equiv_pos_as_xyz
  1	'-x+.5, y+.5, -z+.5'
  2	'-x, -y, -z'
  3	'x+.5, -y+.5, z+.5'
  4	'x, y, z'
loop_
_atom_type_symbol
_atom_type_oxidation_number
Cu1+	1
K1+	1
P4+	4
Se2-	-2
loop_
_atom_site_label
_atom_site_type_symbol
_atom_site_symmetry_multiplicity
_atom_site_Wyckoff_symbol
_atom_site_fract_x
_atom_site_fract_y
_atom_site_fract_z
_atom_site_occupancy
_atom_site_attached_hydrogens
_atom_site_B_iso_or_equiv
Se1 Se2- 4 e 0.2043(1) 0.0313(1) 0.27653(8) 1. 0 1.51(2) 
Se2 Se2- 4 e 0.3457(1) 0.3105(1) 0.96591(9) 1. 0 1.65(2) 
Se3 Se2- 4 e 0.0432(1) 0.2426(1) 0.00758(9) 1. 0 1.26(2) 
Se4 Se2- 4 e 0.0481(1) 0.5624(1) 0.74145(8) 1. 0 1.62(2) 
Se5 Se2- 4 e 0.7468(1) 0.1333(1) 0.04101(9) 1. 0 1.56(2) 
Cu1 Cu1+ 4 e 0.6830(1) 0.1634(2) 0.8306(1) 1. 0 2.43(3) 
K1 K1+ 4 e 0.1012(2) 0.1262(4) 0.7216(2) 1. 0 2.54(6) 
P1 P4+ 4 e 0.7862(3) 0.5656(3) -.0425(2) 1. 0 1.12(5) 
P2 P4+ 4 e 0.1162(3) 0.6521(3) -.0785(2) 1. 0 1.15(5) 

#End of data_85766-ICSD


