data_279579-ICSD
#?2014 by Fachinformationszentrum Karlsruhe, and the U.S. Secretary of 
#Commerce on behalf of the United States.  All rights reserved.
_database_code_ICSD                279579
_audit_creation_date               2002/10/01
_chemical_name_systematic          'Tripotassium Antimonate(III)'
_chemical_formula_structural       'K3 (Sb O3)'
_chemical_formula_sum              'K3 O3 Sb1'
_publ_section_title
;
Alkaline metal oxoantimonates(III), A3 (Sb O3) (A = K or Cs)
;
loop_
_citation_id
_citation_journal_abbrev
_citation_year
_citation_journal_volume
_citation_page_first
_citation_page_last
_citation_journal_id_ASTM
primary 'Acta Crystallographica, Section C: Crystal Structure Communications'
 2001 57 1127 1128 ACSCEE
_publ_author_name                  'Emmerling, F.;Roehr, C.'
_cell_length_a                     8.352(5)
_cell_length_b                     8.352(5)
_cell_length_c                     8.352(5)
_cell_angle_alpha                  90.
_cell_angle_beta                   90.
_cell_angle_gamma                  90.
_cell_volume                       582.6
_cell_formula_units_Z              4
_symmetry_space_group_name_H-M     'P 21 3'
_symmetry_Int_Tables_number        198
_refine_ls_R_factor_all            .045
loop_
_symmetry_equiv_pos_site_id
_symmetry_equiv_pos_as_xyz
  1	'-z+.5, -x, y+.5'
  2	'-y+.5, -z, x+.5'
  3	'-x+.5, -y, z+.5'
  4	'-z, x+.5, -y+.5'
  5	'-y, z+.5, -x+.5'
  6	'-x, y+.5, -z+.5'
  7	'z+.5, -x+.5, -y'
  8	'y+.5, -z+.5, -x'
  9	'x+.5, -y+.5, -z'
 10	'z, x, y'
 11	'y, z, x'
 12	'x, y, z'
loop_
_atom_type_symbol
_atom_type_oxidation_number
K1+	1
O2-	-2
Sb3+	3
loop_
_atom_site_label
_atom_site_type_symbol
_atom_site_symmetry_multiplicity
_atom_site_Wyckoff_symbol
_atom_site_fract_x
_atom_site_fract_y
_atom_site_fract_z
_atom_site_occupancy
_atom_site_attached_hydrogens
Sb1 Sb3+ 4 a 0.51456(4) 0.51456(4) 0.51456(4) 1. 0 
K1 K1+ 4 a 0.7890(2) 0.7890(2) 0.7890(2) 1. 0 
K2 K1+ 4 a 0.2839(2) 0.2839(2) 0.2839(2) 1. 0 
K3 K1+ 4 a 0.02565(16) 0.02565(16) 0.02565(16) 1. 0 
O1 O2- 12 b 0.0051(5) 0.2108(4) 0.4391(4) 1. 0 

loop_
_atom_site_aniso_label
_atom_site_aniso_type_symbol
_atom_site_aniso_U_11
_atom_site_aniso_U_22
_atom_site_aniso_U_33
_atom_site_aniso_U_12
_atom_site_aniso_U_13
_atom_site_aniso_U_23
Sb1 Sb3+ 0.01377(18) 0.01377(18) 0.01377(18) -.00078(16) -.00078(16) 
-.00078(16)
K1 K1+ 0.0192(5) 0.0192(5) 0.0192(5) 0.0025(8) 0.0025(8) 0.0025(8)
K2 K1+ 0.0177(5) 0.0177(5) 0.0177(5) -.0006(7) -.0006(7) -.0006(7)
K3 K1+ 0.0242(4) 0.0242(4) 0.0242(4) -.0008(5) -.0008(5) -.0008(5)
O1 O2- 0.0165(19) 0.0179(17) 0.0274(17) -.003(2) -.0001(19) 0.0076(13)
#End of data_279579-ICSD


