data_36589-ICSD
#?2014 by Fachinformationszentrum Karlsruhe, and the U.S. Secretary of 
#Commerce on behalf of the United States.  All rights reserved.
_database_code_ICSD                36589
_audit_creation_date               1993/01/06
_chemical_name_systematic          'Silver Catena-silicate'
_chemical_formula_structural       'Ag2 Si O3'
_chemical_formula_sum              'Ag2 O3 Si1'
_publ_section_title
;
Silber(I)-catena-Polysilicat: Kristallzuechtung und Strukturanalyse
;
loop_
_citation_id
_citation_journal_abbrev
_citation_year
_citation_journal_volume
_citation_page_first
_citation_page_last
_citation_journal_id_ASTM
primary 'Zeitschrift fuer Anorganische und Allgemeine Chemie (1950) (DE)'
 1991 601 5 11 ZAACAB
_publ_author_name
;
Jansen, M.;Heidebrecht, K.;Matthes, R.;Eysel, W.
;
_cell_length_a                     4.527(1)
_cell_length_b                     7.108(1)
_cell_length_c                     9.959(1)
_cell_angle_alpha                  90.
_cell_angle_beta                   90.
_cell_angle_gamma                  90.
_cell_volume                       320.46
_cell_formula_units_Z              4
_symmetry_space_group_name_H-M     'P 21 21 21'
_symmetry_Int_Tables_number        19
_refine_ls_R_factor_all            .045
loop_
_symmetry_equiv_pos_site_id
_symmetry_equiv_pos_as_xyz
  1	'-x, y+.5, -z+.5'
  2	'x+.5, -y+.5, -z'
  3	'-x+.5, -y, z+.5'
  4	'x, y, z'
loop_
_atom_type_symbol
_atom_type_oxidation_number
Ag1+	1
O2-	-2
Si4+	4
loop_
_atom_site_label
_atom_site_type_symbol
_atom_site_symmetry_multiplicity
_atom_site_Wyckoff_symbol
_atom_site_fract_x
_atom_site_fract_y
_atom_site_fract_z
_atom_site_occupancy
_atom_site_attached_hydrogens
Ag1 Ag1+ 4 a 0.5244(2) 0.4065(1) 0.2241(1) 1. 0 
Ag2 Ag1+ 4 a 0.9225(2) 0.6359(1) 0.3889(1) 1. 0 
Si1 Si4+ 4 a 0.9451(6) 0.1413(4) 0.4372(2) 1. 0 
O1 O2- 4 a 0.2005(16) 0.3082(10) 0.4458(8) 1. 0 
O2 O2- 4 a 0.5887(21) 0.5621(11) 0.5328(8) 1. 0 
O3 O2- 4 a 1.2118(16) 0.6568(11) 0.2078(7) 1. 0 

loop_
_atom_site_aniso_label
_atom_site_aniso_type_symbol
_atom_site_aniso_U_11
_atom_site_aniso_U_22
_atom_site_aniso_U_33
_atom_site_aniso_U_12
_atom_site_aniso_U_13
_atom_site_aniso_U_23
Ag1 Ag1+ 0.0198(4) 0.0195(4) 0.0199(4) 0.0048(3) -.0023(3) 0.0030(3)
Ag2 Ag1+ 0.0207(4) 0.0180(3) 0.0156(3) -.0012(3) 0.0056(3) 0.0028(3)
Si1 Si4+ 0.0079(9) 0.0113(9) 0.0064(9) 0.0016(9) -.0016(8) -.0009(7)
O1 O2- 0.0131(29) 0.0156(30) 0.0117(27) 0.0003(23) -.0035(23) 0.0011(22)
O2 O2- 0.0255(40) 0.0169(31) 0.0172(31) -.0088(29) 0.0058(30) -.0013(26)
O3 O2- 0.0158(30) 0.0176(31) 0.0091(25) -.0007(25) -.0007(23) -.0025(23)
#End of data_36589-ICSD


