data_424076-ICSD
#?2014 by Fachinformationszentrum Karlsruhe, and the U.S. Secretary of 
#Commerce on behalf of the United States.  All rights reserved.
_database_code_ICSD                424076
_audit_creation_date               2014/08/01
_chemical_name_systematic
;
Dipotassium Triselenium(IV) Diborate
;
_chemical_formula_structural       'K2 Se3 B2 O10'
_chemical_formula_sum              'B2 K2 O10 Se3'
_publ_section_title
;
A series of boroselenite-based open frameworks mediated by the 
cationic sizes of the alkali metals
;
loop_
_citation_id
_citation_journal_abbrev
_citation_year
_citation_journal_volume
_citation_journal_issue
_citation_page_first
_citation_page_last
_citation_journal_id_ASTM
primary CrystEngComm 2012 14 24 8727 8733 CRECF4
_publ_author_name
;
Jian-Han Zhang;Fang Kong;Bing-Ping Yang;Jiang-Gao Mao
;
_cell_length_a                     14.208(19)
_cell_length_b                     15.79(2)
_cell_length_c                     4.716(6)
_cell_angle_alpha                  90.00
_cell_angle_beta                   90.00
_cell_angle_gamma                  90.00
_cell_volume                       1058
_cell_formula_units_Z              4
_symmetry_space_group_name_H-M     'P n m a'
_symmetry_Int_Tables_number        62
_refine_ls_R_factor_all            .0308
loop_
_symmetry_equiv_pos_site_id
_symmetry_equiv_pos_as_xyz
  1	'x+.5, y, -z+.5'
  2	'x, -y+.5, z'
  3	'-x+.5, y+.5, z+.5'
  4	'-x, -y, -z'
  5	'-x+.5, -y, z+.5'
  6	'-x, y+.5, -z'
  7	'x+.5, -y+.5, -z+.5'
  8	'x, y, z'
loop_
_atom_type_symbol
_atom_type_oxidation_number
B3+	3
K1+	1
O2-	-2
Se4+	4
loop_
_atom_site_label
_atom_site_type_symbol
_atom_site_symmetry_multiplicity
_atom_site_Wyckoff_symbol
_atom_site_fract_x
_atom_site_fract_y
_atom_site_fract_z
_atom_site_occupancy
_atom_site_attached_hydrogens
_atom_site_U_iso_or_equiv
K1 K1+ 8 d 0.63454(6) 0.45227(5) 0.26456(15) 1 0 0.0239(2) 
Se1 Se4+ 8 d 0.38647(3) 0.36007(2) 0.26122(6) 1 0 0.01660(18) 
Se2 Se4+ 4 c 0.66907(4) 0.2500 0.73891(10) 1 0 0.0261(2) 
B1 B3+ 8 d 0.4904(3) 0.3317(2) 0.7620(7) 1 0 0.0169(8) 
O1 O2- 8 d 0.32400(19) 0.44480(18) 0.1962(6) 1 0 0.0300(6) 
O2 O2- 8 d 0.44257(19) 0.39334(13) 0.5696(5) 1 0 0.0254(6) 
O3 O2- 8 d 0.48523(17) 0.37167(14) 0.0471(5) 1 0 0.0224(5) 
O4 O2- 8 d 0.5925(2) 0.33386(16) 0.6857(6) 1 0 0.0263(6) 
O5 O2- 4 c 0.6896(4) 0.2500 1.0769(10) 1 0 0.0669(16) 
O6 O2- 4 c 0.4481(3) 0.2500 0.7444(6) 1 0 0.0168(7) 

loop_
_atom_site_aniso_label
_atom_site_aniso_type_symbol
_atom_site_aniso_U_11
_atom_site_aniso_U_22
_atom_site_aniso_U_33
_atom_site_aniso_U_12
_atom_site_aniso_U_13
_atom_site_aniso_U_23
K1 K1+ 0.0194(5) 0.0234(5) 0.0289(5) -0.0027(3) 0.0005(3) 0.0009(3)
Se1 Se4+ 0.0194(3) 0.0160(2) 0.0144(2) 0.00037(12) 0.00096(12) 0.00132(10)
Se2 Se4+ 0.0175(3) 0.0371(3) 0.0236(3) 0.000 0.00115(18) 0.000
B1 B3+ 0.020(2) 0.0194(16) 0.0116(17) 0.0027(16) 0.0015(13) -0.0012(12)
O1 O2- 0.0263(15) 0.0303(13) 0.0335(14) 0.0116(12) -0.0009(12) 0.0071(11)
O2 O2- 0.0435(16) 0.0193(10) 0.0136(11) 0.0068(11) -0.0043(11) -0.0020(9)
O3 O2- 0.0209(12) 0.0327(11) 0.0137(11) -0.0036(10) 0.0020(10) -0.0061(9)
O4 O2- 0.0201(13) 0.0222(12) 0.0366(13) -0.0020(11) 0.0099(12) -0.0017(11)
O5 O2- 0.044(3) 0.123(5) 0.034(3) 0.000 -0.011(2) 0.000
O6 O2- 0.0146(17) 0.0175(15) 0.0183(17) 0.000 -0.0013(12) 0.000
#End of data_424076-ICSD


