data_43741-ICSD
#?2014 by Fachinformationszentrum Karlsruhe, and the U.S. Secretary of 
#Commerce on behalf of the United States.  All rights reserved.
_database_code_ICSD                43741
_audit_creation_date               2000/07/15
_chemical_name_systematic          'Silver Oxide (1/1)'
_chemical_formula_structural       'Ag O'
_chemical_formula_sum              'Ag1 O1'
_publ_section_title
;
Structure of silver oxide Ag O by neutron diffraction
;
loop_
_citation_id
_citation_journal_abbrev
_citation_year
_citation_journal_volume
_citation_page_first
_citation_page_last
_citation_journal_id_ASTM
primary 'Ricerca Scientifica' 1960 30 1034 1044 RISCAZ
_publ_author_name
;
Scatturin, V.;Bellon, P.;Salkind, A.J.
;
_cell_length_a                     5.852
_cell_length_b                     3.478
_cell_length_c                     5.495
_cell_angle_alpha                  90.
_cell_angle_beta                   107.5
_cell_angle_gamma                  90.
_cell_volume                       106.66
_cell_formula_units_Z              4
_symmetry_space_group_name_H-M     'P 1 21/c 1'
_symmetry_Int_Tables_number        14
loop_
_symmetry_equiv_pos_site_id
_symmetry_equiv_pos_as_xyz
  1	'x, -y+.5, z+.5'
  2	'-x, -y, -z'
  3	'-x, y+.5, -z+.5'
  4	'x, y, z'
loop_
_atom_type_symbol
_atom_type_oxidation_number
Ag1+	1
Ag3+	3
O2-	-2
loop_
_atom_site_label
_atom_site_type_symbol
_atom_site_symmetry_multiplicity
_atom_site_Wyckoff_symbol
_atom_site_fract_x
_atom_site_fract_y
_atom_site_fract_z
_atom_site_occupancy
_atom_site_attached_hydrogens
Ag1 Ag3+ 2 a 0 0 0 1. 0 
Ag2 Ag1+ 2 d 0.5 0 0.5 1. 0 
O1 O2- 4 e 0.295 0.35 0.23 1. 0 

#End of data_43741-ICSD


