data_23875-ICSD
#?2014 by Fachinformationszentrum Karlsruhe, and the U.S. Secretary of 
#Commerce on behalf of the United States.  All rights reserved.
_database_code_ICSD                23875
_audit_creation_date               1986/10/03
_audit_update_record               2010/02/01
_chemical_name_systematic
;
Tripotassium Hexafluorosilicate Fluoride
;
_chemical_formula_structural       'K3 (Si F6) F'
_chemical_formula_sum              'F7 K3 Si1'
_publ_section_title                'The crystal structure of K3 Si F7'
loop_
_citation_id
_citation_journal_abbrev
_citation_year
_citation_journal_volume
_citation_page_first
_citation_page_last
_citation_journal_id_ASTM
primary 'Acta Crystallographica (1,1948-23,1967)' 1962 15 186 189 ACCRA9
_publ_author_name                  'Deadmore, D.L.;Bradley, W.F.'
_cell_length_a                     7.740(4)
_cell_length_b                     7.740(4)
_cell_length_c                     5.564(3)
_cell_angle_alpha                  90.
_cell_angle_beta                   90.
_cell_angle_gamma                  90.
_cell_volume                       333.33
_cell_formula_units_Z              2
_symmetry_space_group_name_H-M     'P 4/m b m'
_symmetry_Int_Tables_number        127
_refine_ls_R_factor_all            .26
loop_
_symmetry_equiv_pos_site_id
_symmetry_equiv_pos_as_xyz
  1	'y+.5, x+.5, -z'
  2	'-y+.5, -x+.5, -z'
  3	'-y, x, -z'
  4	'y, -x, -z'
  5	'x+.5, -y+.5, -z'
  6	'-x+.5, y+.5, -z'
  7	'x, y, -z'
  8	'-x, -y, -z'
  9	'-y+.5, -x+.5, z'
 10	'y+.5, x+.5, z'
 11	'y, -x, z'
 12	'-y, x, z'
 13	'-x+.5, y+.5, z'
 14	'x+.5, -y+.5, z'
 15	'-x, -y, z'
 16	'x, y, z'
loop_
_atom_type_symbol
_atom_type_oxidation_number
F1-	-1
K1+	1
Si4+	4
loop_
_atom_site_label
_atom_site_type_symbol
_atom_site_symmetry_multiplicity
_atom_site_Wyckoff_symbol
_atom_site_fract_x
_atom_site_fract_y
_atom_site_fract_z
_atom_site_occupancy
_atom_site_attached_hydrogens
K1 K1+ 2 a 0 0 0 1. 0 
K2 K1+ 4 h 0.205 0.705 0.5 1. 0 
Si1 Si4+ 2 d 0 0.5 0 1. 0 
F1 F1- 2 b 0 0 0.5 1. 0 
F2 F1- 4 g 0.155 0.655 0 1. 0 
F3 F1- 8 k 0.39 0.89 0.216 1. 0 

#End of data_23875-ICSD


