data_79780-ICSD
#?2014 by Fachinformationszentrum Karlsruhe, and the U.S. Secretary of 
#Commerce on behalf of the United States.  All rights reserved.
_database_code_ICSD                79780
_audit_creation_date               1996/10/14
_audit_update_record               2006/04/01
_chemical_name_systematic          'Dipotassium Sulfate(VI)'
_chemical_formula_structural       'K2 (S O4)'
_chemical_formula_sum              'K2 O4 S1'
_publ_section_title
;
Structure of potassium sulfate at temperatures from 296 K down to 15 
K
;
loop_
_citation_id
_citation_journal_abbrev
_citation_year
_citation_journal_volume
_citation_page_first
_citation_page_last
_citation_journal_id_ASTM
primary 'Acta Crystallographica, Section B: Structural Science'
 1995 51 287 293 ASBSDK
2 'Golden Book of Phase Transitions, Wroclaw' 2002 1 1 123 GBOPT5
_publ_author_name                  'Ojima, K.;Nishihata, Y.;Sawada, A.'
_cell_length_a                     5.7224(5)
_cell_length_b                     10.000(1)
_cell_length_c                     7.4226(6)
_cell_angle_alpha                  90.
_cell_angle_beta                   90.
_cell_angle_gamma                  90.
_cell_volume                       424.75
_cell_formula_units_Z              4
_symmetry_space_group_name_H-M     'P m c n'
_symmetry_Int_Tables_number        62
_refine_ls_R_factor_all            .022
loop_
_symmetry_equiv_pos_site_id
_symmetry_equiv_pos_as_xyz
  1	'x, -y+.5, z+.5'
  2	'-x+.5, y, z'
  3	'x+.5, y+.5, -z+.5'
  4	'-x, -y, -z'
  5	'-x, y+.5, -z+.5'
  6	'x+.5, -y, -z'
  7	'-x+.5, -y+.5, z+.5'
  8	'x, y, z'
loop_
_atom_type_symbol
_atom_type_oxidation_number
K1+	1
O2-	-2
S6+	6
loop_
_atom_site_label
_atom_site_type_symbol
_atom_site_symmetry_multiplicity
_atom_site_Wyckoff_symbol
_atom_site_fract_x
_atom_site_fract_y
_atom_site_fract_z
_atom_site_occupancy
_atom_site_attached_hydrogens
K1 K1+ 4 c 0.25 0.08941(3) 0.17138(4) 1. 0 
K2 K1+ 4 c 0.25 0.79729(3) 0.48885(4) 1. 0 
S1 S6+ 4 c 0.25 0.42003(3) 0.23262(4) 1. 0 
O1 O2- 4 c 0.25 0.4171(1) 0.0342(1) 1. 0 
O2 O2- 4 c 0.25 0.5601(1) 0.2991(2) 1. 0 
O3 O2- 8 d 0.0390(1) 0.3515(1) 0.3021(1) 1. 0 

loop_
_atom_site_aniso_label
_atom_site_aniso_type_symbol
_atom_site_aniso_U_11
_atom_site_aniso_U_22
_atom_site_aniso_U_33
_atom_site_aniso_U_12
_atom_site_aniso_U_13
_atom_site_aniso_U_23
K1 K1+ 0.0038(1) 0.0043(1) 0.0036(1) 0 0 0.0002(1)
K2 K1+ 0.0041(1) 0.0033(1) 0.0028(1) 0 0 0.0000(1)
S1 S6+ 0.0021(1) 0.0020(1) 0.0021(1) 0 0 0.0000(1)
O1 O2- 0.0088(4) 0.0077(4) 0.0015(3) 0 0 0.0004(3)
O2 O2- 0.0062(2) 0.0029(3) 0.0055(3) 0 0 -.0012(3)
O3 O2- 0.0034(2) 0.0059(2) 0.0062(2) -.0018(2) 0.0009(2) 0.0013(2)
#End of data_79780-ICSD


