data_2030-ICSD
#?2014 by Fachinformationszentrum Karlsruhe, and the U.S. Secretary of 
#Commerce on behalf of the United States.  All rights reserved.
_database_code_ICSD                2030
_audit_creation_date               1980/01/01
_audit_update_record               2010/02/01
_chemical_name_systematic
;
Tetrapotassium Diphosphate(V) Trihydrate
;
_chemical_formula_structural       'K4 (P2 O7) (H2 O)3'
_chemical_formula_sum              'H6 K4 O10 P2'
_publ_section_title
;
Structure cristalline du pyrophsphate tetrapotassique trihydrate, K4 
P2 O7 (H2 O)3
;
loop_
_citation_id
_citation_journal_abbrev
_citation_year
_citation_journal_volume
_citation_page_first
_citation_page_last
_citation_journal_id_ASTM
primary 'Acta Crystallographica B (24,1968-38,1982)' 1974 30 390 395 ACBCAR
_publ_author_name                  'Dumas, Y.;Galigne, J.L.'
_cell_length_a                     9.694(6)
_cell_length_b                     10.031(6)
_cell_length_c                     12.048(8)
_cell_angle_alpha                  90.
_cell_angle_beta                   108.1(1)
_cell_angle_gamma                  90.
_cell_volume                       1113.58
_cell_formula_units_Z              4
_symmetry_space_group_name_H-M     'P 1 21/c 1'
_symmetry_Int_Tables_number        14
_refine_ls_R_factor_all            .055
loop_
_symmetry_equiv_pos_site_id
_symmetry_equiv_pos_as_xyz
  1	'x, -y+.5, z+.5'
  2	'-x, -y, -z'
  3	'-x, y+.5, -z+.5'
  4	'x, y, z'
loop_
_atom_type_symbol
_atom_type_oxidation_number
H1+	1
K1+	1
O2-	-2
P5+	5
loop_
_atom_site_label
_atom_site_type_symbol
_atom_site_symmetry_multiplicity
_atom_site_Wyckoff_symbol
_atom_site_fract_x
_atom_site_fract_y
_atom_site_fract_z
_atom_site_occupancy
_atom_site_attached_hydrogens
_atom_site_B_iso_or_equiv
K1 K1+ 4 e 0.6513(2) 0.6058(2) 0.1473(1) 1. 0 0 
K2 K1+ 4 e 0.2647(2) 0.5810(2) 0.1042(1) 1. 0 0 
K3 K1+ 4 e 0.5101(2) 0.4425(2) 0.3665(1) 1. 0 0 
K4 K1+ 4 e 0.8639(2) 0.6859(2) 0.4950(2) 1. 0 0 
P1 P5+ 4 e 0.1863(2) 0.6999(2) 0.3595(2) 1. 0 0 
P2 P5+ 4 e 0.4879(2) 0.7745(2) 0.3747(1) 1. 0 0 
O1 O2- 4 e 0.1059(8) 0.7446(9) 0.4404(7) 1. 0 0 
O2 O2- 4 e 0.1026(6) 0.7285(6) 0.2354(5) 1. 0 0 
O3 O2- 4 e 0.2373(7) 0.5574(6) 0.3765(8) 1. 0 0 
O4 O2- 4 e 0.3276(5) 0.7965(5) 0.3926(4) 1. 0 0 
O5 O2- 4 e 0.5743(5) 0.6913(5) 0.4763(4) 1. 0 0 
O6 O2- 4 e 0.4628(5) 0.7069(5) 0.2583(4) 1. 0 0 
O7 O2- 4 e 0.5433(5) 0.9165(4) 0.3790(5) 1. 0 0 
O8 O2- 4 e 0.8151(7) 0.4538(7) 0.2695(6) 1. 0 0 
O9 O2- 4 e 0.1776(8) 0.3346(7) 0.2482(7) 1. 0 0 
O10 O2- 4 e 0.0873(6) 0.0505(7) 0.3956(6) 1. 0 0 
H1 H1+ 4 e 0.841(10) 0.417(10) 0.437(9) 1. 0 3.41 
H2 H1+ 4 e 0.836(10) 0.395(10) 0.325(9) 1. 0 3.41 
H3 H1+ 4 e 0.072(11) 0.321(10) 0.227(8) 1. 0 4.02 
H4 H1+ 4 e 0.198(12) 0.415(11) 0.294(10) 1. 0 4.02 
H5 H1+ 4 e 0.045(11) -.006(10) 0.374(9) 1. 0 2.91 
H6 H1+ 4 e 0.015(10) 0.096(10) 0.361(8) 1. 0 2.91 

#End of data_2030-ICSD


