data_73188-ICSD
#?2014 by Fachinformationszentrum Karlsruhe, and the U.S. Secretary of 
#Commerce on behalf of the United States.  All rights reserved.
_database_code_ICSD                73188
_audit_creation_date               1994/06/30
_audit_update_record               2000/07/15
_chemical_name_systematic
;
Tricalcium Iridium(IV) Copper Oxide
;
_chemical_formula_structural       'Ca3 Ir Cu O6'
_chemical_formula_sum              'Ca3 Cu1 Ir1 O6'
_publ_section_title                'Zur Kenntnis von Ca3 Ir Cu O6'
loop_
_citation_id
_citation_journal_abbrev
_citation_year
_citation_journal_volume
_citation_page_first
_citation_page_last
_citation_journal_id_ASTM
primary 'Zeitschrift fuer Anorganische und Allgemeine Chemie (1950) (DE)'
 1993 619 534 536 ZAACAB
_publ_author_name
;
Tomaszewska, A.;Mueller Buschbaum, H.
;
_cell_length_a                     9.032(3)
_cell_length_b                     9.295(2)
_cell_length_c                     6.466(2)
_cell_angle_alpha                  90.
_cell_angle_beta                   91.35(2)
_cell_angle_gamma                  90.
_cell_volume                       542.69
_cell_formula_units_Z              4
_symmetry_space_group_name_H-M     'C 1 2/c 1'
_symmetry_Int_Tables_number        15
_refine_ls_R_factor_all            .054
loop_
_symmetry_equiv_pos_site_id
_symmetry_equiv_pos_as_xyz
  1	'x, -y, z+.5'
  2	'-x, -y, -z'
  3	'-x, y, -z+.5'
  4	'x, y, z'
  5	'x+.5, -y+.5, z+.5'
  6	'-x+.5, -y+.5, -z'
  7	'-x+.5, y+.5, -z+.5'
  8	'x+.5, y+.5, z'
loop_
_atom_type_symbol
_atom_type_oxidation_number
Ca2+	2
Cu2+	2
Ir4+	4
O2-	-2
loop_
_atom_site_label
_atom_site_type_symbol
_atom_site_symmetry_multiplicity
_atom_site_Wyckoff_symbol
_atom_site_fract_x
_atom_site_fract_y
_atom_site_fract_z
_atom_site_occupancy
_atom_site_attached_hydrogens
_atom_site_B_iso_or_equiv
Ca1 Ca2+ 4 e 0.5 0.8971(5) 0.25 1. 0 0.53(5) 
Ca2 Ca2+ 8 f 0.6840(3) 0.5725(3) 0.3849(5) 1. 0 0.51(4) 
Ir1 Ir4+ 4 c 0.75 0.75 0 1. 0 0.20(1) 
Cu1 Cu2+ 4 e 0.5 0.6977(5) 0.75 1. 0 1.83(6) 
O1 O2- 8 f 0.941(1) 0.145(1) 0.452(2) 1. 0 0.64(15) 
O2 O2- 8 f 0.278(1) 0.688(1) 0.792(2) 1. 0 0.73(16) 
O3 O2- 8 f 0.362(1) 0.929(1) 0.571(2) 1. 0 0.81(15) 

#End of data_73188-ICSD


