data_170267-ICSD
#?2014 by Fachinformationszentrum Karlsruhe, and the U.S. Secretary of 
#Commerce on behalf of the United States.  All rights reserved.
_database_code_ICSD                170267
_audit_creation_date               2006/04/01
_chemical_name_systematic          'Calcium Silicon Dinitride'
_chemical_formula_structural       'Ca Si N2'
_chemical_formula_sum              'Ca1 N2 Si1'
_publ_section_title
;
Synthesis and structure of alkaline earth silicon nitrides: Ba Si N2, 
Sr Si N2, and Ca Si N2
;
loop_
_citation_id
_citation_journal_abbrev
_citation_year
_citation_journal_volume
_citation_journal_issue
_citation_page_first
_citation_page_last
_citation_journal_id_ASTM
primary 'Inorganic Chemistry' 2004 43 13 3998 4006 INOCAJ
_publ_author_name
;
Gal, Z.A.;Mallinson, P.R.;Orchard, H.J.;Clarke, S.J.
;
_cell_length_a                     5.1229(3)
_cell_length_b                     10.2074(6)
_cell_length_c                     14.8233(9)
_cell_angle_alpha                  90
_cell_angle_beta                   90
_cell_angle_gamma                  90
_cell_volume                       775.13
_cell_formula_units_Z              16
_symmetry_space_group_name_H-M     'P b c a'
_symmetry_Int_Tables_number        61
_refine_ls_R_factor_all            .0781
loop_
_symmetry_equiv_pos_site_id
_symmetry_equiv_pos_as_xyz
  1	'x+.5, y, -z+.5'
  2	'x, -y+.5, z+.5'
  3	'-x+.5, y+.5, z'
  4	'-x, -y, -z'
  5	'-x+.5, -y, z+.5'
  6	'-x, y+.5, -z+.5'
  7	'x+.5, -y+.5, -z'
  8	'x, y, z'
loop_
_atom_type_symbol
_atom_type_oxidation_number
Ca2+	2
N3-	-3
Si4+	4
loop_
_atom_site_label
_atom_site_type_symbol
_atom_site_symmetry_multiplicity
_atom_site_Wyckoff_symbol
_atom_site_fract_x
_atom_site_fract_y
_atom_site_fract_z
_atom_site_occupancy
_atom_site_attached_hydrogens
_atom_site_U_iso_or_equiv
Ca1 Ca2+ 8 c 0.24137(14) 0.00968(7) 0.06500(4) 1 0 0.0119(2) 
Ca2 Ca2+ 8 c 0.34622(14) 0.27408(7) 0.18759(4) 1 0 0.0115(2) 
Si1 Si4+ 8 c 0.22653(18) 0.01663(9) 0.31208(6) 1 0 0.0084(2) 
Si2 Si4+ 8 c 0.3172(2) 0.27003(9) 0.43722(6) 1 0 0.0089(2) 
N1 N3- 8 c 0.0949(6) 0.4774(3) 0.21549(18) 1 0 0.0113(6) 
N2 N3- 8 c 0.1495(6) 0.2761(3) 0.03544(19) 1 0 0.0125(7) 
N3 N3- 8 c 0.1972(5) 0.4268(3) 0.40904(19) 1 0 0.0111(6) 
N4 N3- 8 c 0.2762(6) 0.1798(3) 0.33824(18) 1 0 0.0127(6) 

loop_
_atom_site_aniso_label
_atom_site_aniso_type_symbol
_atom_site_aniso_U_11
_atom_site_aniso_U_22
_atom_site_aniso_U_33
_atom_site_aniso_U_12
_atom_site_aniso_U_13
_atom_site_aniso_U_23
Ca1 Ca2+ 0.0120(4) 0.0146(4) 0.0092(4) -0.0018(3) -0.0014(2) 0.0014(3)
Ca2 Ca2+ 0.0114(4) 0.0139(4) 0.0092(4) 0.0017(3) 0.0004(3) 0.0000(3)
Si1 Si4+ 0.0084(5) 0.0099(5) 0.0069(5) 0.0003(4) 0.0005(4) 0.0000(4)
Si2 Si4+ 0.0093(5) 0.0100(5) 0.0074(5) -0.0003(4) 0.0007(3) 0.0002(4)
N1 N3- 0.0098(15) 0.0133(15) 0.0108(13) -0.0009(12) -0.0006(11) -0.0019(12)
N2 N3- 0.0128(16) 0.0125(16) 0.0121(14) -0.0015(13) 0.0018(12) -0.0010(12)
N3 N3- 0.0119(14) 0.0101(15) 0.0113(13) -0.0006(12) 0.0011(12) -0.0013(12)
N4 N3- 0.0131(15) 0.0123(15) 0.0126(14) -0.0010(13) -0.0001(12) 0.0009(12)
#End of data_170267-ICSD


