data_34700-ICSD
#?2014 by Fachinformationszentrum Karlsruhe, and the U.S. Secretary of 
#Commerce on behalf of the United States.  All rights reserved.
_database_code_ICSD                34700
_audit_creation_date               1980/01/01
_audit_update_record               2012/08/01
_chemical_name_systematic          'Potassium Borate Hydrate *'
_chemical_formula_structural       'K2 (B5 O8 (O H)) (H2 O)2'
_chemical_formula_sum              'H5 B5 K2 O11'
_publ_section_title
;
The crystal structure of K2 (B5 O8 (O H)) (H2 O)2
;
loop_
_citation_id
_citation_journal_abbrev
_citation_year
_citation_journal_volume
_citation_page_first
_citation_page_last
_citation_journal_id_ASTM
primary 'Acta Crystallographica B (24,1968-38,1982)' 1969 25 1787 1795 ACBCAR
_publ_author_name                  'Marezio, M.'
_cell_length_a                     12.566(5)
_cell_length_b                     6.671(3)
_cell_length_c                     11.587(5)
_cell_angle_alpha                  90.
_cell_angle_beta                   90.
_cell_angle_gamma                  90.
_cell_volume                       971.31
_cell_formula_units_Z              4
_symmetry_space_group_name_H-M     'P n a 21'
_symmetry_Int_Tables_number        33
_refine_ls_R_factor_all            .044
loop_
_symmetry_equiv_pos_site_id
_symmetry_equiv_pos_as_xyz
  1	'x+.5, -y+.5, z'
  2	'-x+.5, y+.5, z+.5'
  3	'-x, -y, z+.5'
  4	'x, y, z'
loop_
_atom_type_symbol
_atom_type_oxidation_number
B3+	3
H1+	1
K1+	1
O2-	-2
loop_
_atom_site_label
_atom_site_type_symbol
_atom_site_symmetry_multiplicity
_atom_site_Wyckoff_symbol
_atom_site_fract_x
_atom_site_fract_y
_atom_site_fract_z
_atom_site_occupancy
_atom_site_attached_hydrogens
K1 K1+ 4 a 0.0432(1) 0.1431(2) 0 1. 0 
K2 K1+ 4 a 0.2495(1) 0.4978(2) 0.1902(2) 1. 0 
B1 B3+ 4 a 0.2906(4) 0.9945(7) 0.0285(4) 1. 0 
B2 B3+ 4 a 0.1624(4) 0.1613(6) 0.4373(4) 1. 0 
B3 B3+ 4 a 0.0209(4) 0.3879(7) 0.5138(5) 1. 0 
B4 B3+ 4 a 0.2204(4) 0.0433(7) 0.2405(4) 1. 0 
B5 B3+ 4 a 0.2785(4) 0.3096(7) 0.8992(4) 1. 0 
O1 O2- 4 a 0.4063(3) 0.0219(5) 0.0542(3) 1. 0 
O2 O2- 4 a 0.2281(3) 0.0810(5) 0.1252(3) 1. 0 
O3 O2- 4 a 0.1785(3) 0.1865(5) 0.3103(3) 1. 0 
O4 O2- 4 a 0.0486(3) 0.2145(5) 0.4588(3) 1. 0 
O5 O2- 4 a 0.2334(2) 0.2848(4) 0.5063(3) 1. 0 
O6 O2- 4 a 0.2605(3) 0.1157(4) 0.9249(3) 1. 0 
O7 O2- 4 a 0.3243(3) 0.4472(4) 0.9690(3) 1. 0 
O8 O2- 4 a 0.4154(3) 0.0620(7) 0.5292(5) 1. 0 
O9 O2- 4 a 0.2443(3) 0.3634(5) 0.7873(3) 1. 0 
O10 O2- 4 a 0.4474(5) 0.3132(1) 0.2236(5) 1. 0 
O11 O2- 4 a 0.0089(8) 0.2506(3) 0.7729(9) 1. 0 
H1 H1+ 4 a 0.36(2) 0.15(3) 0.53(2) 1. 0 
H2 H1+ 4 a 0.44(2) 0.20(3) 0.19(2) 1. 0 
H3 H1+ 4 a 0.51(2) 0.25(3) 0.27(2) 1. 0 
H4 H1+ 4 a 0.43(2) 0.79(3) 0.24(2) 1. 0 
H5 H1+ 4 a 0.53(2) 0.63(3) 0.21(2) 1. 0 

#End of data_34700-ICSD


