data_63508-ICSD
#?2014 by Fachinformationszentrum Karlsruhe, and the U.S. Secretary of 
#Commerce on behalf of the United States.  All rights reserved.
_database_code_ICSD                63508
_audit_creation_date               1988/12/19
_chemical_name_systematic          'Potassium Diselenite'
_chemical_formula_structural       'K2 Se2 O5'
_chemical_formula_sum              'K2 O5 Se2'
_publ_section_title
;
Neutron-diffraction investigation of the structure of potassium 
pyroselenite K2Se2O5
;
loop_
_citation_id
_citation_journal_abbrev
_citation_year
_citation_journal_volume
_citation_page_first
_citation_page_last
_citation_journal_id_ASTM
primary Kristallografiya 1985 30 1007 1009 KRISAJ
2 'Soviet Physics, Crystallography (= Kristallografiya)'
 1985 30 587 588 SPHCA6
_publ_author_name
;
Rider, E.E.;Sarin, V.A.;Bydanov, N.N.;Vinogradova, I.S.
;
_cell_length_a                     9.701(4)
_cell_length_b                     25.042(10)
_cell_length_c                     10.645(3)
_cell_angle_alpha                  90.
_cell_angle_beta                   90.
_cell_angle_gamma                  90.
_cell_volume                       2586.02
_cell_formula_units_Z              16
_symmetry_space_group_name_H-M     'P b c a'
_symmetry_Int_Tables_number        61
_refine_ls_R_factor_all            .013
loop_
_symmetry_equiv_pos_site_id
_symmetry_equiv_pos_as_xyz
  1	'x+.5, y, -z+.5'
  2	'x, -y+.5, z+.5'
  3	'-x+.5, y+.5, z'
  4	'-x, -y, -z'
  5	'-x+.5, -y, z+.5'
  6	'-x, y+.5, -z+.5'
  7	'x+.5, -y+.5, -z'
  8	'x, y, z'
loop_
_atom_type_symbol
_atom_type_oxidation_number
K1+	1
O2-	-2
Se4+	4
loop_
_atom_site_label
_atom_site_type_symbol
_atom_site_symmetry_multiplicity
_atom_site_Wyckoff_symbol
_atom_site_fract_x
_atom_site_fract_y
_atom_site_fract_z
_atom_site_occupancy
_atom_site_attached_hydrogens
_atom_site_B_iso_or_equiv
K1 K1+ 8 c 0.0050(4) 0.0064(2) 0.7881(3) 1. 0 2.19(9) 
K2 K1+ 8 c 0.0271(3) 0.1287(2) 0.0034(5) 1. 0 1.95(8) 
K3 K1+ 8 c 0.3912(3) 0.1264(2) -.0027(4) 1. 0 1.61(7) 
K4 K1+ 8 c 0.4623(4) 0.2456(2) 0.2499(4) 1. 0 2.04(8) 
Se1 Se4+ 8 c 0.2113(2) 0.0127(1) 0.4944(2) 1. 0 1.39(3) 
Se2 Se4+ 8 c 0.2130(2) 0.2391(1) 0.5020(2) 1. 0 1.36(3) 
Se3 Se4+ 8 c 0.1775(2) 0.1114(1) 0.3001(2) 1. 0 1.52(4) 
Se4 Se4+ 8 c 0.1993(2) 0.1392(1) 0.6982(1) 1. 0 1.36(4) 
O1 O2- 8 c 0.1047(2) 0.0615(1) 0.4106(2) 1. 0 1.77(6) 
O2 O2- 8 c 0.1199(2) 0.1868(1) 0.5873(2) 1. 0 1.92(6) 
O3 O2- 8 c 0.2210(3) -.0353(1) 0.3892(2) 1. 0 2.03(6) 
O4 O2- 8 c 0.2123(3) 0.2882(1) 0.6043(2) 1. 0 2.01(6) 
O5 O2- 8 c 0.3628(2) 0.0430(1) 0.4936(3) 1. 0 2.18(6) 
O6 O2- 8 c 0.3731(3) 0.2164(1) 0.5022(3) 1. 0 2.47(7) 
O7 O2- 8 c 0.0292(3) 0.1420(1) 0.2781(2) 1. 0 2.35(7) 
O8 O2- 8 c 0.0533(3) 0.1100(1) 0.7350(3) 1. 0 2.66(8) 
O9 O2- 8 c 0.2025(3) 0.0749(1) 0.1738(2) 1. 0 1.98(6) 
O10 O2- 8 c 0.2363(3) 0.1785(1) 0.8168(2) 1. 0 2.05(7) 

#End of data_63508-ICSD


