data_162948-ICSD
#?2014 by Fachinformationszentrum Karlsruhe, and the U.S. Secretary of 
#Commerce on behalf of the United States.  All rights reserved.
_database_code_ICSD                162948
_audit_creation_date               2009/08/01
_chemical_name_systematic          'Lithium Iron(III) Digermanate'
_chemical_formula_structural       'Li Fe (Ge2 O6)'
_chemical_formula_sum              'Fe1 Ge2 Li1 O6'
_chemical_name_mineral             Unnamed_Clinopyroxene
_publ_section_title
;
High-pressure phase transformation in Li Fe Ge2 O6 pyroxene
;
loop_
_citation_id
_citation_journal_abbrev
_citation_year
_citation_journal_volume
_citation_page_first
_citation_page_last
_citation_journal_id_ASTM
primary 'American Mineralogist' 2009 94 616 621 AMMIAY
_publ_author_name
;
Nestola, F.;Redhammer, G.J.;Pamato, M.G.;Secco, L.;dal Negro, A.
;
_cell_length_a                     9.500(9)
_cell_length_b                     8.711(8)
_cell_length_c                     5.127(6)
_cell_angle_alpha                  90.00
_cell_angle_beta                   101.55(9)
_cell_angle_gamma                  90.00
_cell_volume                       415.69
_cell_formula_units_Z              4
_symmetry_space_group_name_H-M     'C 1 2/c 1'
_symmetry_Int_Tables_number        15
_refine_ls_R_factor_all            .0814
loop_
_symmetry_equiv_pos_site_id
_symmetry_equiv_pos_as_xyz
  1	'x, -y, z+.5'
  2	'-x, -y, -z'
  3	'-x, y, -z+.5'
  4	'x, y, z'
  5	'x+.5, -y+.5, z+.5'
  6	'-x+.5, -y+.5, -z'
  7	'-x+.5, y+.5, -z+.5'
  8	'x+.5, y+.5, z'
loop_
_atom_type_symbol
_atom_type_oxidation_number
Fe3+	3
Ge4+	4
Li1+	1
O2-	-2
loop_
_atom_site_label
_atom_site_type_symbol
_atom_site_symmetry_multiplicity
_atom_site_Wyckoff_symbol
_atom_site_fract_x
_atom_site_fract_y
_atom_site_fract_z
_atom_site_occupancy
_atom_site_attached_hydrogens
_atom_site_U_iso_or_equiv
Ge1 Ge4+ 8 f 0.3014(2) 0.0929(2) 0.2164(4) 1 0 0.021(1) 
O1 O2- 8 f 0.1119(16) 0.0814(14) 0.1310(30) 1 0 0.020(3) 
O2 O2- 8 f 0.3795(18) 0.2538(18) 0.3750(20) 1 0 0.028(3) 
O3 O2- 8 f 0.3603(18) 0.0646(18) 0.9180(30) 1 0 0.029(3) 
Fe1 Fe3+ 4 e 0 0.9004(4) 0.2500 1 0 0.021(1) 
Li1 Li1+ 4 e 0 0.2710(50) 0.2500 1 0 0.018(8) 

#End of data_162948-ICSD


