data_248011-ICSD
#?2014 by Fachinformationszentrum Karlsruhe, and the U.S. Secretary of 
#Commerce on behalf of the United States.  All rights reserved.
_database_code_ICSD                248011
_audit_creation_date               2010/08/01
_chemical_name_systematic          'Lanthanum Zinc Pentaborate'
_chemical_formula_structural       'La Zn (B5 O10)'
_chemical_formula_sum              'B5 La1 O10 Zn1'
_publ_section_title
;
La Zn B5 O10, the first lanthanum zinc borate
;
loop_
_citation_id
_citation_journal_abbrev
_citation_year
_citation_journal_volume
_citation_journal_issue
_citation_page_first
_citation_page_last
_citation_journal_id_ASTM
primary 'Acta Crystallographica, Section E. Structure Reports Online'
 2010 66 1 i1 i1 ACSEBH
_publ_author_name
;
Jiao Zhiwei;Wang Ru Ji;Wang Xiao Qing;Shen De Zhong;Shen Guang Qiu
;
_cell_length_a                     8.7923(19)
_cell_length_b                     7.629(2)
_cell_length_c                     9.566(2)
_cell_angle_alpha                  90.00
_cell_angle_beta                   92.667(19)
_cell_angle_gamma                  90.00
_cell_volume                       640.96
_cell_formula_units_Z              4
_symmetry_space_group_name_H-M     'P 1 21/n 1'
_symmetry_Int_Tables_number        14
_refine_ls_R_factor_all            .0355
loop_
_symmetry_equiv_pos_site_id
_symmetry_equiv_pos_as_xyz
  1	'-x+.5, y+.5, -z+.5'
  2	'-x, -y, -z'
  3	'x+.5, -y+.5, z+.5'
  4	'x, y, z'
loop_
_atom_type_symbol
_atom_type_oxidation_number
B3+	3
La3+	3
O2-	-2
Zn2+	2
loop_
_atom_site_label
_atom_site_type_symbol
_atom_site_symmetry_multiplicity
_atom_site_Wyckoff_symbol
_atom_site_fract_x
_atom_site_fract_y
_atom_site_fract_z
_atom_site_occupancy
_atom_site_attached_hydrogens
_atom_site_U_iso_or_equiv
La1 La3+ 4 e 0.18084(3) 0.68446(4) 0.23425(3) 1 0 0.00861(13) 
Zn1 Zn2+ 4 e 0.88916(7) 0.41215(8) 0.38049(7) 1 0 0.01160(16) 
O1 O2- 4 e 0.4743(4) 0.7209(5) 0.2592(4) 1 0 0.0097(6) 
O2 O2- 4 e 0.5128(4) 0.4196(5) 0.1869(4) 1 0 0.0105(6) 
O3 O2- 4 e 0.6830(4) 0.5372(5) 0.3613(4) 1 0 0.0104(6) 
O4 O2- 4 e 0.5839(4) 0.9780(5) 0.3570(4) 1 0 0.0099(6) 
O5 O2- 4 e 0.3289(4) 0.8921(5) 0.4150(4) 1 0 0.0097(6) 
O6 O2- 4 e 0.5383(4) 0.7202(5) 0.5088(4) 1 0 0.0102(6) 
O7 O2- 4 e 0.8125(4) 1.1547(5) 0.3721(4) 1 0 0.0100(6) 
O8 O2- 4 e 0.6912(4) 0.3737(5) 0.0101(4) 1 0 0.0098(6) 
O9 O2- 4 e 0.5056(4) 0.1522(5) 0.0688(4) 1 0 0.0101(6) 
O10 O2- 4 e 0.7299(4) 0.5391(5) 0.6081(4) 1 0 0.0112(6) 
B1 B3+ 4 e 0.5877(6) 0.5824(7) 0.2330(5) 1 0 0.0082(8) 
B2 B3+ 4 e 0.5734(6) 0.3144(7) 0.0839(6) 1 0 0.0096(9) 
B3 B3+ 4 e 0.4843(6) 0.8275(7) 0.3895(6) 1 0 0.0092(9) 
B4 B3+ 4 e 0.7168(6) 1.0340(7) 0.4479(5) 1 0 0.0093(9) 
B5 B3+ 4 e 0.6498(6) 0.5943(7) 0.4924(6) 1 0 0.0092(8) 

loop_
_atom_site_aniso_label
_atom_site_aniso_type_symbol
_atom_site_aniso_U_11
_atom_site_aniso_U_22
_atom_site_aniso_U_33
_atom_site_aniso_U_12
_atom_site_aniso_U_13
_atom_site_aniso_U_23
La1 La3+ 0.00934(16) 0.00822(17) 0.00831(16) 0.00018(8) 0.00087(9) 
0.00037(8)
Zn1 Zn2+ 0.0114(3) 0.0094(3) 0.0140(3) 0.0001(2) 0.0000(2) -0.0002(2)
O1 O2- 0.0091(14) 0.0105(15) 0.0095(14) -0.0007(12) 0.0003(11) 0.0014(12)
O2 O2- 0.0115(15) 0.0104(15) 0.0098(14) -0.0014(12) 0.0028(12) -0.0009(12)
O3 O2- 0.0126(15) 0.0104(15) 0.0083(14) 0.0029(12) 0.0006(11) -0.0016(12)
O4 O2- 0.0096(14) 0.0099(15) 0.0100(14) -0.0025(12) -0.0002(11) 0.0007(12)
O5 O2- 0.0073(14) 0.0135(16) 0.0085(14) 0.0028(12) 0.0008(11) -0.0006(12)
O6 O2- 0.0107(14) 0.0082(14) 0.0117(15) 0.0026(12) 0.0010(12) 0.0003(12)
O7 O2- 0.0100(15) 0.0087(14) 0.0116(15) -0.0003(12) 0.0033(12) -0.0006(12)
O8 O2- 0.0108(15) 0.0085(15) 0.0103(14) -0.0028(12) 0.0036(12) -0.0011(12)
O9 O2- 0.0121(15) 0.0087(15) 0.0098(15) -0.0018(12) 0.0018(12) -0.0004(12)
O10 O2- 0.0121(15) 0.0114(16) 0.0099(14) 0.0014(13) -0.0001(12) 0.0020(12)
B1 B3+ 0.010(2) 0.007(2) 0.0076(19) 0.0018(16) 0.0003(16) 0.0002(16)
B2 B3+ 0.008(2) 0.012(2) 0.009(2) 0.0015(17) 0.0019(16) -0.0001(17)
B3 B3+ 0.009(2) 0.010(2) 0.009(2) 0.0031(17) 0.0014(16) -0.0008(16)
B4 B3+ 0.010(2) 0.010(2) 0.0080(19) 0.0003(17) 0.0009(16) 0.0005(16)
B5 B3+ 0.009(2) 0.009(2) 0.010(2) 0.0006(16) 0.0027(16) 0.0002(17)
#End of data_248011-ICSD


