data_262388-ICSD
#?2014 by Fachinformationszentrum Karlsruhe, and the U.S. Secretary of 
#Commerce on behalf of the United States.  All rights reserved.
_database_code_ICSD                262388
_audit_creation_date               2012/08/01
_chemical_name_systematic          'Copper Tin Zinc Sulfide (2/1/1/4)'
_chemical_formula_structural       'Cu2 Sn Zn S4'
_chemical_formula_sum              'Cu2 S4 Sn1 Zn1'
_publ_section_title
;
Structure flexibility of the Cu2 Zn Sn S4 absorber in low-cost 
photovoltaic cells: from the stoichiometric to the copper-poor 
compounds
;
loop_
_citation_id
_citation_journal_abbrev
_citation_year
_citation_journal_volume
_citation_journal_issue
_citation_page_first
_citation_page_last
_citation_journal_id_ASTM
primary 'Inorganic Chemistry' 2012 51 7 3346 3348 INOCAJ
_publ_author_name
;
Choubrac, L.;Lafond, A.;Guillot-Deudon, C.;Moelo, Y.;Jobic, S.
;
_cell_length_a                     5.43420(10)
_cell_length_b                     5.43420(10)
_cell_length_c                     10.8496(2)
_cell_angle_alpha                  90
_cell_angle_beta                   90
_cell_angle_gamma                  90
_cell_volume                       320.39
_cell_formula_units_Z              2
_symmetry_space_group_name_H-M     'I -4'
_symmetry_Int_Tables_number        82
_refine_ls_R_factor_all            .0336
loop_
_symmetry_equiv_pos_site_id
_symmetry_equiv_pos_as_xyz
  1	'-y, x, -z'
  2	'y, -x, -z'
  3	'-x, -y, z'
  4	'x, y, z'
  5	'-y+.5, x+.5, -z+.5'
  6	'y+.5, -x+.5, -z+.5'
  7	'-x+.5, -y+.5, z+.5'
  8	'x+.5, y+.5, z+.5'
loop_
_atom_type_symbol
_atom_type_oxidation_number
Cu1+	1
S2-	-2
Sn4+	4
Zn2+	2
loop_
_atom_site_label
_atom_site_type_symbol
_atom_site_symmetry_multiplicity
_atom_site_Wyckoff_symbol
_atom_site_fract_x
_atom_site_fract_y
_atom_site_fract_z
_atom_site_occupancy
_atom_site_attached_hydrogens
_atom_site_U_iso_or_equiv
Cu1 Cu1+ 2 a 0 0 0 1 0 0.01923(15) 
Cu2 Cu1+ 2 c 0 0.5 0.25 1 0 0.0162(5) 
Zn1 Zn2+ 2 d 0 0.5 0.75 1 0 0.0195(5) 
Sn1 Sn4+ 2 b 0 0 0.5 1 0 0.01191(9) 
S1 S2- 8 g 0.7562(2) 0.2434(2) 0.12821(6) 1 0 0.0120(2) 

loop_
_atom_site_aniso_label
_atom_site_aniso_type_symbol
_atom_site_aniso_U_11
_atom_site_aniso_U_22
_atom_site_aniso_U_33
_atom_site_aniso_U_12
_atom_site_aniso_U_13
_atom_site_aniso_U_23
Cu1 Cu1+ 0.0199(2) 0.0199(2) 0.0178(3) 0 0 0
Cu2 Cu1+ 0.0168(8) 0.0168(8) 0.0152(10) 0 0 0
Zn1 Zn2+ 0.0197(8) 0.0197(8) 0.0192(11) 0 0 0
Sn1 Sn4+ 0.01241(16) 0.01241(16) 0.01091(17) 0 0 0
S1 S2- 0.01241(16) 0.01241(16) 0.01091(17) 0 0 0
#End of data_262388-ICSD


