data_72886-ICSD
#?2014 by Fachinformationszentrum Karlsruhe, and the U.S. Secretary of 
#Commerce on behalf of the United States.  All rights reserved.
_database_code_ICSD                72886
_audit_creation_date               1994/01/19
_chemical_name_systematic
;
Calcium Bis(oxovanadium) Bis(phosphate)
;
_chemical_formula_structural       'Ca (V O)2 (P O4)2'
_chemical_formula_sum              'Ca1 O10 P2 V2'
_publ_section_title
;
Synthesis and crystal structure of Ca(VO)2(PO4)2
;
loop_
_citation_id
_citation_journal_abbrev
_citation_year
_citation_journal_volume
_citation_page_first
_citation_page_last
_citation_journal_id_ASTM
primary 'Journal of Solid State Chemistry' 1992 99 72 77 JSSCBI
_publ_author_name
;
Lii, K.-H.;Chueh, B.R.;Kang, H.-Y.;Wang, S.-L.
;
_cell_length_a                     11.795(4)
_cell_length_b                     15.784(6)
_cell_length_c                     7.190(4)
_cell_angle_alpha                  90.
_cell_angle_beta                   90.
_cell_angle_gamma                  90.
_cell_volume                       1338.58
_cell_formula_units_Z              8
_symmetry_space_group_name_H-M     'F d d 2'
_symmetry_Int_Tables_number        43
_refine_ls_R_factor_all            .035
loop_
_symmetry_equiv_pos_site_id
_symmetry_equiv_pos_as_xyz
  1	'x+.25, -y+.25, z+.25'
  2	'-x+.25, y+.25, z+.25'
  3	'-x, -y, z'
  4	'x, y, z'
  5	'x+.25, -y+.75, z+.75'
  6	'x+.75, -y+.25, z+.75'
  7	'x+.75, -y+.75, z+.25'
  8	'-x+.25, y+.75, z+.75'
  9	'-x+.75, y+.25, z+.75'
 10	'-x+.75, y+.75, z+.25'
 11	'-x, -y+.5, z+.5'
 12	'-x+.5, -y, z+.5'
 13	'-x+.5, -y+.5, z'
 14	'x, y+.5, z+.5'
 15	'x+.5, y, z+.5'
 16	'x+.5, y+.5, z'
loop_
_atom_type_symbol
_atom_type_oxidation_number
Ca2+	2
O2-	-2
P5+	5
V4+	4
loop_
_atom_site_label
_atom_site_type_symbol
_atom_site_symmetry_multiplicity
_atom_site_Wyckoff_symbol
_atom_site_fract_x
_atom_site_fract_y
_atom_site_fract_z
_atom_site_occupancy
_atom_site_attached_hydrogens
_atom_site_U_iso_or_equiv
Ca1 Ca2+ 8 a 0.25 0.25 0.5 1. 0 0.0083(8) 
V1 V4+ 16 b 0.1102(1) 0.1182(1) 0.8540(6) 1. 0 0.0044(4) 
P1 P5+ 16 b -.0007(2) 0.2923(1) 0.7469(9) 1. 0 0.0053(6) 
O1 O2- 16 b 0.1033(6) 0.2332(4) 0.729(1) 1. 0 0.006(1) 
O2 O2- 16 b 0.2361(6) 0.0998(4) 0.668(1) 1. 0 0.005(2) 
O3 O2- 16 b 0.2529(6) 0.1688(3) 0.995(1) 1. 0 0.004(1) 
O4 O2- 16 b 0.0124(5) 0.1483(4) 0.080(1) 1. 0 0.008(2) 
O5 O2- 16 b 0.1427(6) 0.0134(4) 0.015(1) 1. 0 0.005(1) 

#End of data_72886-ICSD


