data_280184-ICSD
#?2014 by Fachinformationszentrum Karlsruhe, and the U.S. Secretary of 
#Commerce on behalf of the United States.  All rights reserved.
_database_code_ICSD                280184
_audit_creation_date               2002/04/01
_chemical_name_systematic
;
Trisodium Vanadatononaoxohexaborate
;
_chemical_formula_structural       'Na3 (B6 O9 (V O4))'
_chemical_formula_sum              'B6 Na3 O13 V1'
_publ_section_title
;
Synthesis and crystal structure of the first fully characterized 
vanadoborate Na3 (B6 O9 (V O4))
;
loop_
_citation_id
_citation_journal_abbrev
_citation_year
_citation_journal_volume
_citation_page_first
_citation_page_last
_citation_journal_id_ASTM
primary 'Journal of Solid State Chemistry' 2000 150 342 346 JSSCBI
_publ_author_name
;
Touboul, M.;Penin, N.;Nowogrocki, G.
;
_cell_length_a                     7.723(7)
_cell_length_b                     10.155(4)
_cell_length_c                     12.505(4)
_cell_angle_alpha                  90.
_cell_angle_beta                   90.
_cell_angle_gamma                  90.
_cell_volume                       980.73
_cell_formula_units_Z              4
_symmetry_space_group_name_H-M     'P 21 21 21'
_symmetry_Int_Tables_number        19
_refine_ls_R_factor_all            .029
loop_
_symmetry_equiv_pos_site_id
_symmetry_equiv_pos_as_xyz
  1	'-x, y+.5, -z+.5'
  2	'x+.5, -y+.5, -z'
  3	'-x+.5, -y, z+.5'
  4	'x, y, z'
loop_
_atom_type_symbol
_atom_type_oxidation_number
B3+	3
Na1+	1
O2-	-2
V5+	5
loop_
_atom_site_label
_atom_site_type_symbol
_atom_site_symmetry_multiplicity
_atom_site_Wyckoff_symbol
_atom_site_fract_x
_atom_site_fract_y
_atom_site_fract_z
_atom_site_occupancy
_atom_site_attached_hydrogens
V1 V5+ 4 a 0.04796(7) 0.50738(6) 0.24833(5) 1. 0 
B1 B3+ 4 a -.0317(7) 0.3698(4) -.0752(4) 1. 0 
B2 B3+ 4 a -.0305(7) 0.6298(4) -.0743(4) 1. 0 
B3 B3+ 4 a -.2248(4) 0.4988(5) 0.0590(3) 1. 0 
B4 B3+ 4 a -.3009(9) 0.2746(4) -.0054(5) 1. 0 
B5 B3+ 4 a -.3010(9) 0.7261(4) -.0049(5) 1. 0 
B6 B3+ 4 a 0.0961(4) 0.4998(5) -.2226(3) 1. 0 
Na1 Na1+ 4 a 0.2315(3) 0.2114(2) 0.7620(2) 1. 0 
Na2 Na1+ 4 a 0.1308(2) 0.4980(2) 0.5246(1) 1. 0 
Na3 Na1+ 4 a 0.2639(3) 0.2208(2) 0.2617(2) 1. 0 
O1 O2- 4 a -.1104(3) 0.5001(3) -.0391(2) 1. 0 
O2 O2- 4 a 0.0363(5) 0.6165(2) -.1839(3) 1. 0 
O3 O2- 4 a 0.2751(3) 0.5004(4) 0.2016(2) 1. 0 
O4 O2- 4 a -.3388(4) 0.3844(3) 0.0542(3) 1. 0 
O5 O2- 4 a 0.0309(5) 0.3829(3) -.1850(3) 1. 0 
O6 O2- 4 a -.1668(5) 0.7275(3) -.0770(3) 1. 0 
O7 O2- 4 a 0.1116(4) 0.3415(3) -.0045(3) 1. 0 
O8 O2- 4 a -.1648(5) 0.2717(3) -.0755(3) 1. 0 
O9 O2- 4 a -.3289(4) 0.6197(3) 0.0606(3) 1. 0 
O10 O2- 4 a 0.1075(4) 0.6603(3) -.0019(3) 1. 0 
O11 O2- 4 a -.1242(3) 0.4894(3) 0.1571(2) 1. 0 
O12 O2- 4 a 0.0269(5) 0.6482(3) 0.3116(3) 1. 0 
O13 O2- 4 a 0.0375(5) 0.3911(3) 0.3385(3) 1. 0 

#End of data_280184-ICSD


