data_33663-ICSD
#?2014 by Fachinformationszentrum Karlsruhe, and the U.S. Secretary of 
#Commerce on behalf of the United States.  All rights reserved.
_database_code_ICSD                33663
_audit_creation_date               1984/11/05
_audit_update_record               2005/10/01
_chemical_name_systematic          'Potassium Bromate(V)'
_chemical_formula_structural       'K (Br O3)'
_chemical_formula_sum              'Br1 K1 O3'
_publ_section_title
;
Untersuchungen ueber die Kristallstruktur von Sesquioxyden und 
Verbindungen ABO3
;
loop_
_citation_id
_citation_journal_abbrev
_citation_year
_citation_journal_volume
_citation_page_first
_citation_page_last
_citation_journal_id_ASTM
primary
;
Skrifter utgitt av det Norske Videnskaps-Akademi i Oslo 1: Matematisk-
Naturvidenskapelig Klasse
;
 1928 1928 1 165 SUNVAQ
_publ_author_name                  'Zachariasen, W.H.'
_cell_length_a                     4.403(3)
_cell_length_b                     4.403(3)
_cell_length_c                     4.403(3)
_cell_angle_alpha                  86.0(1)
_cell_angle_beta                   86.0(1)
_cell_angle_gamma                  86.0(1)
_cell_volume                       84.76
_cell_formula_units_Z              1
_symmetry_space_group_name_H-M     'R 3 m R'
_symmetry_Int_Tables_number        160
loop_
_symmetry_equiv_pos_site_id
_symmetry_equiv_pos_as_xyz
  1	'z, y, x'
  2	'z, x, y'
  3	'x, z, y'
  4	'y, z, x'
  5	'y, x, z'
  6	'x, y, z'
loop_
_atom_type_symbol
_atom_type_oxidation_number
Br5+	5
K1+	1
O2-	-2
loop_
_atom_site_label
_atom_site_type_symbol
_atom_site_symmetry_multiplicity
_atom_site_Wyckoff_symbol
_atom_site_fract_x
_atom_site_fract_y
_atom_site_fract_z
_atom_site_occupancy
_atom_site_attached_hydrogens
K1 K1+ 1 a 0 0 0 1. 0 
Br1 Br5+ 1 a 0.500(15) 0.500(15) 0.500(15) 1. 0 
O1 O2- 3 b 0.58(3) 0.58(3) 0.125(30) 1. 0 

#End of data_33663-ICSD


