data_42697-ICSD
#?2014 by Fachinformationszentrum Karlsruhe, and the U.S. Secretary of 
#Commerce on behalf of the United States.  All rights reserved.
_database_code_ICSD                42697
_audit_creation_date               2002/04/01
_audit_update_record               2007/04/01
_chemical_name_systematic
;
Pentalithium Aluminum Oxide - Alpha
;
_chemical_formula_structural       'Li5 Al O4'
_chemical_formula_sum              'Al1 Li5 O4'
_publ_section_title
;
Zur Kristallstruktur von alpha-Li5 Al O4
;
loop_
_citation_id
_citation_journal_abbrev
_citation_year
_citation_journal_volume
_citation_page_first
_citation_page_last
_citation_journal_id_ASTM
primary 'Zeitschrift fuer Anorganische und Allgemeine Chemie (1950) (DE)'
 1971 380 241 243 ZAACAB
_publ_author_name                  'Stewner, F.;Hoppe, R.'
_cell_length_a                     9.087(3)
_cell_length_b                     8.947(3)
_cell_length_c                     9.120(3)
_cell_angle_alpha                  90.
_cell_angle_beta                   90.
_cell_angle_gamma                  90.
_cell_volume                       741.47
_cell_formula_units_Z              8
_symmetry_space_group_name_H-M     'P b c a'
_symmetry_Int_Tables_number        61
loop_
_symmetry_equiv_pos_site_id
_symmetry_equiv_pos_as_xyz
  1	'x+.5, y, -z+.5'
  2	'x, -y+.5, z+.5'
  3	'-x+.5, y+.5, z'
  4	'-x, -y, -z'
  5	'-x+.5, -y, z+.5'
  6	'-x, y+.5, -z+.5'
  7	'x+.5, -y+.5, -z'
  8	'x, y, z'
loop_
_atom_type_symbol
_atom_type_oxidation_number
Al3+	3
Li1+	1
O2-	-2
loop_
_atom_site_label
_atom_site_type_symbol
_atom_site_symmetry_multiplicity
_atom_site_Wyckoff_symbol
_atom_site_fract_x
_atom_site_fract_y
_atom_site_fract_z
_atom_site_occupancy
_atom_site_attached_hydrogens
Al1 Al3+ 8 c 0.145 0.1171 0.1185 1. 0 
O1 O2- 8 c 0.25 -.012 0.005 1. 0 
O2 O2- 8 c 0.038 0.002 0.243 1. 0 
O3 O2- 8 c 0.012 0.242 0.037 1. 0 
O4 O2- 8 c 0.246 0.236 0.244 1. 0 
Li1 Li1+ 8 c 0.093 0.153 0.409 1. 0 
Li2 Li1+ 8 c 0.131 0.085 0.661 1. 0 
Li3 Li1+ 8 c 0.356 0.093 0.347 1. 0 
Li4 Li1+ 8 c 0.398 0.164 0.609 1. 0 
Li5 Li1+ 8 c 0.364 0.124 0.883 1. 0 

#End of data_42697-ICSD


