data_200779-ICSD
#?2014 by Fachinformationszentrum Karlsruhe, and the U.S. Secretary of 
#Commerce on behalf of the United States.  All rights reserved.
_database_code_ICSD                200779
_audit_creation_date               1981/12/31
_chemical_name_systematic
;
Potassium Bis(carbonato)cuprate(II)
;
_chemical_formula_structural       'K2 (Cu (C O3)2)'
_chemical_formula_sum              'C2 Cu1 K2 O6'
_publ_section_title
;
The electronic structure of copper in the polymer potassium 
bis(carbonato)cuprate(II) as determined from precise X-Ray 
diffraction data
;
loop_
_citation_id
_citation_journal_abbrev
_citation_year
_citation_journal_volume
_citation_page_first
_citation_page_last
_citation_journal_id_ASTM
primary
;
Journal of the Chemical Society. Dalton Transactions, Inorganic 
Chemistry (1972-)
;
 1981 1981 371 376 JCDTBI
_publ_author_name
;
Figgis, B.N.;Reynolds, P.A.;White, A.H.;Geoffrey, A.W.
;
_cell_length_a                     11.425(3)
_cell_length_b                     17.658(4)
_cell_length_c                     6.154(2)
_cell_angle_alpha                  90.
_cell_angle_beta                   90.
_cell_angle_gamma                  90.
_cell_volume                       1241.52
_cell_formula_units_Z              8
_symmetry_space_group_name_H-M     'F d d 2'
_symmetry_Int_Tables_number        43
_refine_ls_R_factor_all            .03
loop_
_symmetry_equiv_pos_site_id
_symmetry_equiv_pos_as_xyz
  1	'x+.25, -y+.25, z+.25'
  2	'-x+.25, y+.25, z+.25'
  3	'-x, -y, z'
  4	'x, y, z'
  5	'x+.25, -y+.75, z+.75'
  6	'x+.75, -y+.25, z+.75'
  7	'x+.75, -y+.75, z+.25'
  8	'-x+.25, y+.75, z+.75'
  9	'-x+.75, y+.25, z+.75'
 10	'-x+.75, y+.75, z+.25'
 11	'-x, -y+.5, z+.5'
 12	'-x+.5, -y, z+.5'
 13	'-x+.5, -y+.5, z'
 14	'x, y+.5, z+.5'
 15	'x+.5, y, z+.5'
 16	'x+.5, y+.5, z'
loop_
_atom_type_symbol
_atom_type_oxidation_number
C4+	4
Cu2+	2
K1+	1
O2-	-2
loop_
_atom_site_label
_atom_site_type_symbol
_atom_site_symmetry_multiplicity
_atom_site_Wyckoff_symbol
_atom_site_fract_x
_atom_site_fract_y
_atom_site_fract_z
_atom_site_occupancy
_atom_site_attached_hydrogens
Cu1 Cu2+ 8 a 0 0 0 1. 0 
K1 K1+ 16 b 0.57805(3) 0.20006(2) 0.19612(9) 1. 0 
C1 C4+ 16 b 0.08174(13) 0.12670(8) 0.20497(36) 1. 0 
O1 O2- 16 b 0.08268(11) 0.09540(7) 0.01286(26) 1. 0 
O2 O2- 16 b 0.10133(11) 0.19983(7) 0.21306(32) 1. 0 
O3 O2- 16 b 0.05964(12) 0.08878(8) 0.37206(28) 1. 0 

loop_
_atom_site_aniso_label
_atom_site_aniso_type_symbol
_atom_site_aniso_U_11
_atom_site_aniso_U_22
_atom_site_aniso_U_33
_atom_site_aniso_U_12
_atom_site_aniso_U_13
_atom_site_aniso_U_23
Cu1 Cu2+ 0.01278(8) 0.0085(7) 0.01669(12) 0.00125(9) 0 0
K1 K1+ 0.0208(2) 0.0193(1) 0.0249(2) 0.0028(1) 0.0039(1) 0.0029(1)
C1 C4+ 0.0103(4) 0.0123(5) 0.0274(8) 0.0011(4) -.0014(5) -.0020(6)
O1 O2- 0.0208(5) 0.0135(4) 0.0252(6) -.0018(4) 0.0002(5) -.0017(5)
O2 O2- 0.0168(5) 0.0105(4) 0.0446(9) -.0019(3) -.0045(6) -.0045(5)
O3 O2- 0.0260(6) 0.0236(6) 0.0258(7) 0.0004(5) 0.0021(6) 0.0037(6)
#End of data_200779-ICSD


