data_39859-ICSD
#?2014 by Fachinformationszentrum Karlsruhe, and the U.S. Secretary of 
#Commerce on behalf of the United States.  All rights reserved.
_database_code_ICSD                39859
_audit_creation_date               1995/10/17
_chemical_name_systematic
;
Potassium Carbonylpentabromoosmate(III)
;
_chemical_formula_structural       'K2 (Os (C O) Br5)'
_chemical_formula_sum              'C1 Br5 K2 O1 Os1'
_publ_section_title
;
Synthesis and crystal structure of potassium 
monocarbonylpentabromoosmate K2 (Os C O Br5)
;
loop_
_citation_id
_citation_journal_abbrev
_citation_year
_citation_journal_volume
_citation_page_first
_citation_page_last
_citation_journal_id_ASTM
primary 'Zhurnal Neorganicheskoi Khimii' 1995 40 92 93 ZNOKAQ
_publ_author_name
;
Berngardt, E.A.;Buslaev, Yu.A.;Gorbunova, Yu.E.;Kanishcheva, 
A.S.;Mikhailov, Yu.N.;Sinitsyn, N.M.
;
_cell_length_a                     14.294(3)
_cell_length_b                     7.304(1)
_cell_length_c                     10.677(2)
_cell_angle_alpha                  90.
_cell_angle_beta                   90.
_cell_angle_gamma                  90.
_cell_volume                       1114.71
_cell_formula_units_Z              4
_symmetry_space_group_name_H-M     'P n a 21'
_symmetry_Int_Tables_number        33
_refine_ls_R_factor_all            .043
loop_
_symmetry_equiv_pos_site_id
_symmetry_equiv_pos_as_xyz
  1	'x+.5, -y+.5, z'
  2	'-x+.5, y+.5, z+.5'
  3	'-x, -y, z+.5'
  4	'x, y, z'
loop_
_atom_type_symbol
_atom_type_oxidation_number
Br1-	-1
C2+	2
K1+	1
O2-	-2
Os3+	3
loop_
_atom_site_label
_atom_site_type_symbol
_atom_site_symmetry_multiplicity
_atom_site_Wyckoff_symbol
_atom_site_fract_x
_atom_site_fract_y
_atom_site_fract_z
_atom_site_occupancy
_atom_site_attached_hydrogens
_atom_site_B_iso_or_equiv
Os1 Os3+ 4 a 0.11415(5) 0.1925(1) 0.1341 1. 0 1.49(1) 
Br1 Br1- 4 a 0.1174(4) 0.202(1) -.0979(7) 1. 0 3.2(1) 
Br2 Br1- 4 a 0.2296(2) -.0641(3) 0.1364(9) 1. 0 3.10(6) 
Br3 Br1- 4 a 0.0036(2) 0.4591(3) 0.140(1) 1. 0 3.15(6) 
Br4 Br1- 4 a 0.2531(2) 0.4167(3) 0.1410(8) 1. 0 2.67(5) 
Br5 Br1- 4 a 0.1105(4) 0.193(1) 0.3684(6) 1. 0 3.1(1) 
K1 K1+ 4 a 0.3555(7) 0.172(2) 0.388(1) 1. 0 3.2(3) 
K2 K1+ 4 a 0.357(1) 0.176(3) -.113(2) 1. 0 5.7(5) 
O1 O2- 4 a -.038(1) -.088(3) 0.138(4) 1. 0 3.0(6) 
C1 C2+ 4 a 0.023(1) 0.016(3) 0.140(4) 1. 0 1.5(6) 

#End of data_39859-ICSD


