data_72685-ICSD
#?2014 by Fachinformationszentrum Karlsruhe, and the U.S. Secretary of 
#Commerce on behalf of the United States.  All rights reserved.
_database_code_ICSD                72685
_audit_creation_date               1994/01/19
_chemical_name_systematic          'Potassium Amidoselenate'
_chemical_formula_structural       'K (Se O3 (N H2))'
_chemical_formula_sum              'H2 K1 N1 O3 Se1'
_publ_section_title
;
Structure of potassium amidoselenate K(+)SeO3NH2(-)
;
loop_
_citation_id
_citation_journal_abbrev
_citation_year
_citation_journal_volume
_citation_page_first
_citation_page_last
_citation_journal_id_ASTM
primary 'Acta Crystallographica, Section C: Crystal Structure Communications'
 1992 48 2254 2255 ACSCEE
_publ_author_name                  'Zak, Z.;Ruzicka, A.'
_cell_length_a                     8.075(2)
_cell_length_b                     7.306(1)
_cell_length_c                     7.533(2)
_cell_angle_alpha                  90.
_cell_angle_beta                   96.65(2)
_cell_angle_gamma                  90.
_cell_volume                       441.43
_cell_formula_units_Z              4
_symmetry_space_group_name_H-M     'P 1 21/c 1'
_symmetry_Int_Tables_number        14
_refine_ls_R_factor_all            .065
loop_
_symmetry_equiv_pos_site_id
_symmetry_equiv_pos_as_xyz
  1	'x, -y+.5, z+.5'
  2	'-x, -y, -z'
  3	'-x, y+.5, -z+.5'
  4	'x, y, z'
loop_
_atom_type_symbol
_atom_type_oxidation_number
H1+	1
K1+	1
N3-	-3
O2-	-2
Se6+	6
loop_
_atom_site_label
_atom_site_type_symbol
_atom_site_symmetry_multiplicity
_atom_site_Wyckoff_symbol
_atom_site_fract_x
_atom_site_fract_y
_atom_site_fract_z
_atom_site_occupancy
_atom_site_attached_hydrogens
_atom_site_B_iso_or_equiv
K1 K1+ 4 e 0.3530(1) 0.6249(1) 0.1145(1) 1. 0 0 
Se1 Se6+ 4 e 0.25081(3) 0.10687(3) 0.09533(3) 1. 0 0 
O1 O2- 4 e 0.2736(4) -.0396(3) 0.2593(3) 1. 0 0 
O2 O2- 4 e 0.4106(3) 0.2415(3) 0.0967(3) 1. 0 0 
O3 O2- 4 e 0.2050(3) -.0020(3) -.0935(3) 1. 0 0 
N1 N3- 4 e 0.0762(3) 0.2566(3) 0.1060(4) 1. 0 0 
H1 H1+ 4 e -.0203 0.1887 0.1251 1. 0 3.5 
H2 H1+ 4 e 0.0938 0.3125 0.2188 1. 0 3.5 

loop_
_atom_site_aniso_label
_atom_site_aniso_type_symbol
_atom_site_aniso_B_11
_atom_site_aniso_B_22
_atom_site_aniso_B_33
_atom_site_aniso_B_12
_atom_site_aniso_B_13
_atom_site_aniso_B_23
K1 K1+ 3.03(2) 1.86(2) 2.01(2) -.07(2) 0.62(2) -.17(1)
Se1 Se6+ 1.63(1) 1.30(1) 1.53(1) -.04(1) 0.09(1) 0.00(1)
O1 O2- 4.0(1) 2.25(8) 2.13(8) 0.67(7) 0.13(7) 0.64(6)
O2 O2- 1.83(6) 2.27(7) 3.28(7) -.54(6) 0.34(6) -.21(6)
O3 O2- 2.90(8) 2.19(7) 1.81(6) -.24(7) 0.38(5) -.58(5)
N1 N3- 2.26(8) 2.04(7) 2.46(8) 0.41(6) 0.31(7) -.08(6)
#End of data_72685-ICSD


