data_201843-ICSD
#?2014 by Fachinformationszentrum Karlsruhe, and the U.S. Secretary of 
#Commerce on behalf of the United States.  All rights reserved.
_database_code_ICSD                201843
_audit_creation_date               1986/04/14
_audit_update_record               2014/08/01
_chemical_name_systematic
;
Sodium Potassium Zirconium Cyclo-trisilicate Dihydrate
;
_chemical_formula_structural       'Na K Zr (Si3 O9) (H2 O)2'
_chemical_formula_sum              'H4 K1 Na1 O11 Si3 Zr1'
_chemical_name_mineral             Georgechaoite
_publ_section_title
;
The crystal structure of georgechaoite Na K Zr Si3 O9 (H2 O)2
;
loop_
_citation_id
_citation_journal_abbrev
_citation_year
_citation_journal_volume
_citation_page_first
_citation_page_last
_citation_journal_id_ASTM
primary 'Canadian Mineralogist' 1985 23 5 10 CAMIA6
2 'Canadian Mineralogist' 1985 23 1 4 CAMIA6
_publ_author_name                  'Ghose, S.;Thakur, P.'
_cell_length_a                     11.836(4)
_cell_length_b                     12.940(6)
_cell_length_c                     6.735(4)
_cell_angle_alpha                  90.
_cell_angle_beta                   90.
_cell_angle_gamma                  90.
_cell_volume                       1031.52
_cell_formula_units_Z              4
_symmetry_space_group_name_H-M     'P 21 n b'
_symmetry_Int_Tables_number        33
_refine_ls_R_factor_all            .053
loop_
_symmetry_equiv_pos_site_id
_symmetry_equiv_pos_as_xyz
  1	'x, y+.5, -z+.5'
  2	'x+.5, -y+.5, z+.5'
  3	'x+.5, -y, -z'
  4	'x, y, z'
loop_
_atom_type_symbol
_atom_type_oxidation_number
H1+	1
K1+	1
Na1+	1
O2-	-2
Si4+	4
Zr4+	4
loop_
_atom_site_label
_atom_site_type_symbol
_atom_site_symmetry_multiplicity
_atom_site_Wyckoff_symbol
_atom_site_fract_x
_atom_site_fract_y
_atom_site_fract_z
_atom_site_occupancy
_atom_site_attached_hydrogens
_atom_site_U_iso_or_equiv
Na1 Na1+ 4 a -.0041 0.3891(4) 0.3287(8) 1. 0 0 
K1 K1+ 4 a 0.7515(4) 0.1499(2) 0.4136(5) 1. 0 0 
Zr1 Zr4+ 4 a 0.2499(1) 0.0521(1) 0.1468(1) 1. 0 0 
Si1 Si4+ 4 a 0.2820(2) 0.2869(2) 0.3883(4) 1. 0 0 
Si2 Si4+ 4 a 0.4981(2) 0.4165(2) 0.3911(4) 1. 0 0 
Si3 Si4+ 4 a 0.7116(2) 0.3910(2) 0.1459(4) 1. 0 0 
O1 O2- 4 a 0.2163(6) 0.3939(5) 0.3627(11) 1. 0 0 
O2 O2- 4 a 0.4160(6) 0.3150(5) 0.4196(12) 1. 0 0 
O3 O2- 4 a 0.7424(8) 0.2709(5) 0.094(1) 1. 0 0 
O4 O2- 4 a 0.2693(6) 0.2083(5) 0.2052(9) 1. 0 0 
O5 O2- 4 a 0.4200(6) 0.0155(6) 0.1542(10) 1. 0 0 
O6 O2- 4 a 0.5761(6) 0.3910(6) 0.1953(11) 1. 0 0 
O7 O2- 4 a 0.0756(6) 0.0706(5) 0.0882(11) 1. 0 0 
O8 O2- 4 a 0.2347(7) 0.0378(5) 0.4549(10) 1. 0 0 
O9 O2- 4 a 0.7786(6) 0.4273(6) 0.3411(9) 1. 0 0 
O10 O2- 4 a 0.5265(11) 0.1271(8) 0.4753(19) 1. 0 0 
O11 O2- 4 a 0.9718(13) 0.2061(10) 0.3714(13) 1. 0 0 
H1 H1+ 4 a 0.484 0.19 0.425 1. 0 0.03 
H2 H1+ 4 a 0.498 0.063 0.406 1. 0 0.03 
H3 H1+ 4 a 0.016 0.184 0.49 1. 0 0.03 
H4 H1+ 4 a 0 0.17 0.255 1. 0 0.03 

loop_
_atom_site_aniso_label
_atom_site_aniso_type_symbol
_atom_site_aniso_U_11
_atom_site_aniso_U_22
_atom_site_aniso_U_33
_atom_site_aniso_U_12
_atom_site_aniso_U_13
_atom_site_aniso_U_23
Na1 Na1+ 0.013(2) 0.031(3) 0.042(3) 0.003(2) 0.003(2) -.006(2)
K1 K1+ 0.048(2) 0.032(1) 0.044(1) -.001(2) -.010(2) 0.010(1)
Zr1 Zr4+ 0.0088(2) 0.0068(2) 0.0141(2) 0.000(3) -.0002(4) 0
Si1 Si4+ 0.0042(9) 0.0014(9) 0.0086(10) -.0010(8) 0.0002(8) 0
Si2 Si4+ 0.0019(9) 0.0021(9) 0.0106(10) 0.0000(8) -.0006(9) 0
Si3 Si4+ 0.0060(9) 0.0048(9) 0.008(1) -.0006(8) 0.0018(9) 0
O1 O2- 0.012(3) 0.002(2) 0.024(4) -.002(2) -.002(3) 0.004(3)
O2 O2- 0.005(3) 0.004(3) 0.030(4) 0.000(2) -.005(3) 0.006(3)
O3 O2- 0.015(3) 0.018(3) 0.013(3) 0.004(3) 0.005(4) 0.002(2)
O4 O2- 0.019(4) 0.003(3) 0.011(3) -.003(2) 0.008(3) 0.002(2)
O5 O2- 0.008(3) 0.008(3) 0.018(3) 0.000(2) 0.001(3) 0.001(3)
O6 O2- 0.006(3) 0.018(3) 0.019(4) 0.002(3) 0.002(3) -.008(3)
O7 O2- 0.07(3) 0.07(3) 0.17(3) 0.01(2) -.03(3) -.02(2)
O8 O2- 0.025(5) 0.003(3) 0.011(3) 0.002(3) 0.006(3) -.001(2)
O9 O2- 0.007(3) 0.014(3) 0.011(3) -.003(2) -.001(3) -.005(2)
O10 O2- 0.055(7) 0.027(5) 0.059(7) 0.017(5) -.027(6) -.011(5)
O11 O2- 0.070(9) 0.055(8) 0.026(5) 0.046(7) -.014(5) -.004(5)
#End of data_201843-ICSD


