data_100078-ICSD
#?2014 by Fachinformationszentrum Karlsruhe, and the U.S. Secretary of 
#Commerce on behalf of the United States.  All rights reserved.
_database_code_ICSD                100078
_audit_creation_date               1980/01/01
_audit_update_record               2011/02/01
_chemical_name_systematic
;
Dizinc Iron Bis(phosphate(V)) Tetrahydrate
;
_chemical_formula_structural       'Zn2 Fe (P O4)2 (H2 O)4'
_chemical_formula_sum              'H8 Fe1 O12 P2 Zn2'
_chemical_name_mineral             Phosphophyllite
_publ_section_title
;
The crystal structure of phosphophyllite
;
loop_
_citation_id
_citation_journal_abbrev
_citation_year
_citation_journal_volume
_citation_page_first
_citation_page_last
_citation_journal_id_ASTM
primary 'American Mineralogist' 1977 62 812 817 AMMIAY
_publ_author_name                  'Hill, R.J.'
_cell_length_a                     10.378(3)
_cell_length_b                     5.084(1)
_cell_length_c                     10.553(3)
_cell_angle_alpha                  90.
_cell_angle_beta                   121.14(2)
_cell_angle_gamma                  90.
_cell_volume                       476.56
_cell_formula_units_Z              2
_symmetry_space_group_name_H-M     'P 1 21/c 1'
_symmetry_Int_Tables_number        14
_refine_ls_R_factor_all            .032
loop_
_symmetry_equiv_pos_site_id
_symmetry_equiv_pos_as_xyz
  1	'x, -y+.5, z+.5'
  2	'-x, -y, -z'
  3	'-x, y+.5, -z+.5'
  4	'x, y, z'
loop_
_atom_type_symbol
_atom_type_oxidation_number
Fe2+	2
H1+	1
O2-	-2
P5+	5
Zn2+	2
loop_
_atom_site_label
_atom_site_type_symbol
_atom_site_symmetry_multiplicity
_atom_site_Wyckoff_symbol
_atom_site_fract_x
_atom_site_fract_y
_atom_site_fract_z
_atom_site_occupancy
_atom_site_attached_hydrogens
_atom_site_B_iso_or_equiv
Fe1 Fe2+ 2 a 0 0 0 1. 0 0 
Zn1 Zn2+ 4 e 0.50024(3) 0.31002(5) 0.35646(3) 1. 0 0 
P1 P5+ 4 e 0.68924(6) 0.28707(11) 0.19476(6) 1. 0 0 
O1 O2- 4 e -.0046(3) 0.2958(4) 0.1392(3) 1. 0 0 
O2 O2- 4 e 0.1803(3) 0.2897(5) 0.5030(3) 1. 0 0 
O3 O2- 4 e 0.8542(2) 0.2582(4) 0.3158(2) 1. 0 0 
O4 O2- 4 e 0.3526(2) 0.0728(3) 0.3420(2) 1. 0 0 
O5 O2- 4 e 0.6617(2) 0.1323(4) 0.0582(2) 1. 0 0 
O6 O2- 4 e 0.5860(2) 0.1527(3) 0.2445(2) 1. 0 0 
H1 H1+ 4 e -.030(4) 0.276(8) 0.195(4) 1. 0 2.0(8) 
H2 H1+ 4 e 0.054(6) 0.403(11) 0.177(6) 1. 0 4.40(12) 
H3 H1+ 4 e 0.231(8) 0.358(17) 0.491(8) 1. 0 8.(2) 
H4 H1+ 4 e 0.219(8) 0.154(17) 0.547(9) 1. 0 10.(2) 

#End of data_100078-ICSD


