data_262894-ICSD
#?2014 by Fachinformationszentrum Karlsruhe, and the U.S. Secretary of 
#Commerce on behalf of the United States.  All rights reserved.
_database_code_ICSD                262894
_audit_creation_date               2012/08/01
_chemical_name_systematic          'Sodium Niobate'
_chemical_formula_structural       'Na (Nb O3)'
_chemical_formula_sum              'Na1 Nb1 O3'
_publ_section_title
;
New twists on the perovskite theme: crystal structures of the elusive 
phases R and S of Na Nb O3
;
loop_
_citation_id
_citation_journal_abbrev
_citation_year
_citation_journal_volume
_citation_journal_issue
_citation_page_first
_citation_page_last
_citation_journal_id_ASTM
primary 'Inorganic Chemistry' 2012 51 12 6876 6889 INOCAJ
_publ_author_name
;
Peel, M.D.;Thompson, S.P.;Daoud-Aladine, A.;Ashbrook, S.E.;Lightfoot, 
P.
;
_cell_length_a                     7.85371(7)
_cell_length_b                     23.54620(14)
_cell_length_c                     7.85676(7)
_cell_angle_alpha                  90.
_cell_angle_beta                   90.
_cell_angle_gamma                  90.
_cell_volume                       1452.91
_cell_formula_units_Z              24
_symmetry_space_group_name_H-M     'P m m n Z'
_symmetry_Int_Tables_number        59
_refine_ls_R_factor_all            .048
loop_
_symmetry_equiv_pos_site_id
_symmetry_equiv_pos_as_xyz
  1	'x+.5, y+.5, -z'
  2	'-x, y+.5, -z'
  3	'x+.5, -y, -z'
  4	'-x, -y, -z'
  5	'-x+.5, -y+.5, z'
  6	'x, -y+.5, z'
  7	'-x+.5, y, z'
  8	'x, y, z'
loop_
_atom_type_symbol
_atom_type_oxidation_number
Na1+	1
Nb5+	5
O2-	-2
loop_
_atom_site_label
_atom_site_type_symbol
_atom_site_symmetry_multiplicity
_atom_site_Wyckoff_symbol
_atom_site_fract_x
_atom_site_fract_y
_atom_site_fract_z
_atom_site_occupancy
_atom_site_attached_hydrogens
_atom_site_U_iso_or_equiv
Na1 Na1+ 4 e 0.25 0.0799(29) 0.262(10) 1.0 0 0.0321(16) 
Na2 Na1+ 4 e 0.25 0.0822(31) 0.756(10) 1.0 0 0.0321(16) 
Na3 Na1+ 2 a 0.25 0.25 0.221(8) 1.0 0 0.0321(16) 
Na4 Na1+ 2 a 0.25 0.25 0.760(14) 1.0 0 0.0321(16) 
Na5 Na1+ 4 e 0.25 0.5831(30) 0.258(10) 1.0 0 0.0321(16) 
Na6 Na1+ 4 e 0.25 0.5795(28) 0.743(10) 1.0 0 0.0321(16) 
Na7 Na1+ 2 b 0.25 0.75 0.233(13) 1.0 0 0.0321(16) 
Na8 Na1+ 2 b 0.25 0.75 0.721(6) 1.0 0 0.0321(16) 
Nb1 Nb5+ 4 c 0.0 0.0 0.0 1.0 0 0.00798(23) 
Nb2 Nb5+ 4 d 0.0 0.0 0.5 1.0 0 0.00798(23) 
Nb3 Nb5+ 8 g -0.0010(21) 0.1682(6) -0.0018(32) 1.0 0 0.00798(23) 
Nb4 Nb5+ 8 g 0.0026(21) 0.1659(6) 0.4993(32) 1.0 0 0.00798(23) 
O1 O2- 8 g 0.03153(26) -0.00925(4) 0.25 1.0 0 0.01785(21) 
O2 O2- 8 g -0.01577(13) 0.17592(4) 0.25 1.0 0 0.01785(21) 
O3 O2- 8 g 0.01577(13) 0.15743(4) 0.75 1.0 0 0.01785(21) 
O4 O2- 8 g -0.02524(13) 0.08333 0.02774(13) 1.0 0 0.01785(21) 
O5 O2- 8 g 0.02524(13) 0.08333 0.47226(13) 1.0 0 0.01785(21) 
O6 O2- 4 f 0.02524(13) 0.25 -0.02774(13) 1.0 0 0.01785(21) 
O7 O2- 4 f -0.02524(13) 0.25 0.52774(13) 1.0 0 0.01785(21) 
O8 O2- 4 e 0.25 0.00841(4) -0.03153(26) 1.0 0 0.01785(21) 
O9 O2- 4 e 0.25 -0.00841(4) 0.53153(26) 1.0 0 0.01785(21) 
O10 O2- 4 e 0.25 0.15825(4) 0.01577(13) 1.0 0 0.01785(21) 
O11 O2- 4 e 0.25 0.17508(4) 0.48423(13) 1.0 0 0.01785(21) 
O12 O2- 4 e 0.25 0.67508(4) 0.01577(13) 1.0 0 0.01785(21) 
O13 O2- 4 e 0.25 0.65825(4) 0.48423(13) 1.0 0 0.01785(21) 

#End of data_262894-ICSD


