data_10504-ICSD
#?2014 by Fachinformationszentrum Karlsruhe, and the U.S. Secretary of 
#Commerce on behalf of the United States.  All rights reserved.
_database_code_ICSD                10504
_audit_creation_date               1980/12/31
_audit_update_record               2006/04/01
_chemical_name_systematic          'Calcium Hydrogenphosphate(V) - Lt'
_chemical_formula_structural       'Ca (H P O4)'
_chemical_formula_sum              'H1 Ca1 O4 P1'
_chemical_name_mineral             'Monetite low'
_publ_section_title
;
low-temperature ordering of hydrogen atoms in Ca H P O4 (monetite): X-
ray and neutron diffraction study at 145K
;
loop_
_citation_id
_citation_journal_abbrev
_citation_year
_citation_journal_volume
_citation_page_first
_citation_page_last
_citation_journal_id_ASTM
primary 'Acta Crystallographica B (24,1968-38,1982)' 1980 36 254 259 ACBCAR
2 'Golden Book of Phase Transitions, Wroclaw' 2002 1 1 123 GBOPT5
_publ_author_name                  'Catti, M.;Ferraris, G.;Mason, S.A.'
_cell_length_a                     6.916(2)
_cell_length_b                     6.619(2)
_cell_length_c                     6.946(3)
_cell_angle_alpha                  96.18(3)
_cell_angle_beta                   103.82(3)
_cell_angle_gamma                  88.34(3)
_cell_volume                       306.97
_cell_formula_units_Z              4
_symmetry_space_group_name_H-M     'P 1'
_symmetry_Int_Tables_number        1
_refine_ls_R_factor_all            .022
loop_
_symmetry_equiv_pos_site_id
_symmetry_equiv_pos_as_xyz
  1	'x, y, z'
loop_
_atom_type_symbol
_atom_type_oxidation_number
Ca2+	2
H1+	1
O2-	-2
P5+	5
loop_
_atom_site_label
_atom_site_type_symbol
_atom_site_symmetry_multiplicity
_atom_site_Wyckoff_symbol
_atom_site_fract_x
_atom_site_fract_y
_atom_site_fract_z
_atom_site_occupancy
_atom_site_attached_hydrogens
P1 P5+ 1 a 0.21149(7) 0.38303(7) 0.72509(7) 1. 0 
P2 P5+ 1 a 0.78851 0.61697 0.27491 1. 0 
P3 P5+ 1 a 0.29128(7) -.07032(8) 0.20458(7) 1. 0 
P4 P5+ 1 a 0.70872 0.07032(8) 0.79542 1. 0 
Ca1 Ca2+ 1 a 0.29053(8) 0.41801(9) 0.28088(8) 1. 0 
Ca2 Ca2+ 1 a 0.70947 0.58199 0.71912 1. 0 
Ca3 Ca2+ 1 a 0.17828(8) 0.83749(9) 0.65969(8) 1. 0 
Ca4 Ca2+ 1 a 0.82172 0.16251 0.34031 1. 0 
O1 O2- 1 a 0.32276(6) 0.33161(7) 0.94331(7) 1. 0 
O2 O2- 1 a 0.67724 0.66839 0.05669 1. 0 
O3 O2- 1 a 0.35911(6) 0.49508(7) 0.63958(7) 1. 0 
O4 O2- 1 a 0.64089 0.50492 0.36042 1. 0 
O5 O2- 1 a 0.14291(6) 0.18577(7) 0.59581(7) 1. 0 
O6 O2- 1 a 0.85709 0.81423 0.40419 1. 0 
O7 O2- 1 a 0.04484(6) 0.53003(7) 0.74827(7) 1. 0 
O8 O2- 1 a 0.95516 0.46997 0.25173 1. 0 
O9 O2- 1 a 0.33626(6) -.15869(7) 0.00839(7) 1. 0 
O10 O2- 1 a 0.66374 0.15869 0.99161 1. 0 
O11 O2- 1 a 0.46149(7) 0.07873(7) 0.32141(7) 1. 0 
O12 O2- 1 a 0.53851 0.92127 0.67859 1. 0 
O13 O2- 1 a 0.10346(6) 0.06935(7) 0.16364(7) 1. 0 
O14 O2- 1 a 0.89654 0.93065 0.83636 1. 0 
O15 O2- 1 a 0.26774(7) -.22972(7) 0.33720(7) 1. 0 
O16 O2- 1 a 0.73226 0.22972 0.6628 1. 0 
H1 H1+ 1 a 0.0058(8) -.01606(9) -.0026(10) 1. 0 
H2 H1+ 1 a 0.4596(1) 0.2588(2) 0.9557(2) 1. 0 
H3 H1+ 1 a 0.5404 0.7412 0.0443 1. 0 
H4 H1+ 1 a 0.4991(2) 0.0312(3) 0.4647(2) 1. 0 

loop_
_atom_site_aniso_label
_atom_site_aniso_type_symbol
_atom_site_aniso_B_11
_atom_site_aniso_B_22
_atom_site_aniso_B_33
_atom_site_aniso_B_12
_atom_site_aniso_B_13
_atom_site_aniso_B_23
P1 P5+ 0.26(1) 0.28(1) 0.32(1) -.01(1) 0.08(1) 0.04(1)
P2 P5+ 0.26(1) 0.28(1) 0.32(1) -.01(1) 0.08(1) 0.04(1)
P3 P5+ 0.47(1) 0.37(1) 0.36(1) 0.07(1) 0.14(1) 0.06(1)
P4 P5+ 0.47(1) 0.37(1) 0.36(1) 0.07(1) 0.14(1) 0.06(1)
Ca1 Ca2+ 0.35(1) 0.51(1) 0.49(1) -.02(1) 0.11(1) -.07(1)
Ca2 Ca2+ 0.35(1) 0.51(1) 0.49(1) -.02(1) 0.11(1) -.07(1)
Ca3 Ca2+ 0.74(1) 0.34(1) 0.42(1) -.04(1) 0.06(1) 0.07(1)
Ca4 Ca2+ 0.74(1) 0.34(1) 0.42(1) -.04(1) 0.06(1) 0.07(1)
O1 O2- 0.54(1) 0.68(1) 0.36(1) 0.12(1) 0.13(1) 0.13(1)
O2 O2- 0.54(1) 0.68(1) 0.36(1) 0.12(1) 0.13(1) 0.13(1)
O3 O2- 0.39(1) 0.54(1) 0.48(1) -.09(1) 0.16(1) 0.13(1)
O4 O2- 0.39(1) 0.54(1) 0.48(1) -.09(1) 0.16(1) 0.13(1)
O5 O2- 0.56(1) 0.35(1) 0.56(1) -.04(1) 0.07(1) -.07(1)
O6 O2- 0.56(1) 0.35(1) 0.56(1) -.04(1) 0.07(1) -.07(1)
O7 O2- 0.32(1) 0.43(1) 0.73(1) 0.06(1) 0.16(1) 0.04(1)
O8 O2- 0.32(1) 0.43(1) 0.73(1) 0.06(1) 0.16(1) 0.04(1)
O9 O2- 0.49(1) 0.72(1) 0.40(1) 0.08(1) 0.12(1) -.04(1)
O10 O2- 0.49(1) 0.72(1) 0.40(1) 0.08(1) 0.12(1) -.04(1)
O11 O2- 0.47(1) 0.72(1) 0.63(1) -.23(1) 0.09(1) -.15(1)
O12 O2- 0.47(1) 0.72(1) 0.63(1) -.23(1) 0.09(1) -.15(1)
O13 O2- 0.45(1) 0.61(1) 0.54(1) 0.19(1) 0.11(1) 0.07(1)
O14 O2- 0.45(1) 0.61(1) 0.54(1) 0.19(1) 0.11(1) 0.07(1)
O15 O2- 0.72(1) 0.51(1) 0.60(1) 0.07(1) 0.25(1) 0.24(1)
O16 O2- 0.72(1) 0.51(1) 0.60(1) 0.07(1) 0.25(1) 0.24(1)
H1 H1+ 1.68(6) 1.43(6) 3.40(6) 0.87(6) 1.35(6) 0.69(6)
H2 H1+ 1.55(5) 1.83(5) 1.30(5) 0.29(5) 0.38(5) 0.19(5)
H3 H1+ 1.55(5) 1.83(5) 1.30(5) 0.29(5) 0.38(5) 0.19(5)
H4 H1+ 1.56(5) 2.99(5) 1.14(5) -.36(5) 0.09(5) 0.04(5)
#End of data_10504-ICSD


