data_50038-ICSD
#?2014 by Fachinformationszentrum Karlsruhe, and the U.S. Secretary of 
#Commerce on behalf of the United States.  All rights reserved.
_database_code_ICSD                50038
_audit_creation_date               1999/01/19
_chemical_name_systematic
;
Dipotassium Diiron Tetraniobium Oxide
;
_chemical_formula_structural       'K2 Fe2 Nb4 O13'
_chemical_formula_sum              'Fe2 K2 Nb4 O13'
_publ_section_title
;
Preparation and crystal structure of new potassium niobium oxides: K2 
M2 Nb4 O13 (M= Mg, Fe)
;
loop_
_citation_id
_citation_journal_abbrev
_citation_year
_citation_journal_volume
_citation_journal_issue
_citation_page_first
_citation_page_last
_citation_journal_id_ASTM
primary 'Materials Research Bulletin' 1997 32 5 559 567 MRBUAC
_publ_author_name                  'Kumada, N.;Kinomura, N.'
_cell_length_a                     16.0950(20)
_cell_length_b                     3.886(2)
_cell_length_c                     9.474(1)
_cell_angle_alpha                  90.
_cell_angle_beta                   99.62(1)
_cell_angle_gamma                  90.
_cell_volume                       584.22
_cell_formula_units_Z              2
_symmetry_space_group_name_H-M     'C 1 2/m 1'
_symmetry_Int_Tables_number        12
_refine_ls_R_factor_all            .026
loop_
_symmetry_equiv_pos_site_id
_symmetry_equiv_pos_as_xyz
  1	'-x, y, -z'
  2	'-x, -y, -z'
  3	'x, -y, z'
  4	'x, y, z'
  5	'-x+.5, y+.5, -z'
  6	'-x+.5, -y+.5, -z'
  7	'x+.5, -y+.5, z'
  8	'x+.5, y+.5, z'
loop_
_atom_type_symbol
_atom_type_oxidation_number
Fe2+	2
K1+	1
Nb5+	5
O2-	-2
loop_
_atom_site_label
_atom_site_type_symbol
_atom_site_symmetry_multiplicity
_atom_site_Wyckoff_symbol
_atom_site_fract_x
_atom_site_fract_y
_atom_site_fract_z
_atom_site_occupancy
_atom_site_attached_hydrogens
K1 K1+ 4 i -.04942(6) 0.5 0.2465(1) 1. 0 
Nb1 Nb5+ 4 i 0.11835(2) 0 0.08439(3) 1. 0 
Nb2 Nb5+ 4 i 0.16445(2) 0 0.4372(3) 1. 0 
Fe1 Fe2+ 4 i 0.23577(3) 0 -.22942(6) 1. 0 
O1 O2- 4 i 0.2269(2) 0 0.2409(3) 1. 0 
O2 O2- 4 i 0.1276(2) 0 0.6077(3) 1. 0 
O3 O2- 4 i 0.0705(2) 0 0.3008(3) 1. 0 
O4 O2- 4 i 0.1633(2) 0 -.0782(3) 1. 0 
O5 O2- 4 i 0.2015(2) 0.5 0.4393(3) 1. 0 
O6 O2- 2 a 0 0 0 1. 0 
O7 O2- 4 i 0.1245(2) 0.5 0.1146(3) 1. 0 

loop_
_atom_site_aniso_label
_atom_site_aniso_type_symbol
_atom_site_aniso_U_11
_atom_site_aniso_U_22
_atom_site_aniso_U_33
_atom_site_aniso_U_12
_atom_site_aniso_U_13
_atom_site_aniso_U_23
K1 K1+ 0.0154(3) 0.0123(3) 0.0238(4) 0 0.0031(3) 0
Nb1 Nb5+ 0.0078(1) 0.0060(1) 0.0067(1) 0 -.00020(8) 0
Nb2 Nb5+ 0.0060(1) 0.0050(1) 0.0060(1) 0 0.00051(8) 0
Fe1 Fe2+ 0.0074(2) 0.0055(2) 0.0099(2) 0 0.0026(1) 0
O1 O2- 0.009(1) 0.0077(9) 0.008(1) 0 -.0007(7) 0
O2 O2- 0.015(1) 0.015(1) 0.008(1) 0 0.0044(8) 0
O3 O2- 0.008(1) 0.011(1) 0.009(1) 0 -.0016(7) 0
O4 O2- 0.016(1) 0.014(1) 0.010(1) 0 0.0049(8) 0
O5 O2- 0.0071(9) 0.0060(9) 0.011(1) 0 0.0006(7) 0
O6 O2- 0.007(1) 0.022(2) 0.016(2) 0 -.004(1) 0
O7 O2- 0.022(1) 0.0035(9) 0.012(1) 0 0.0011(9) 0
#End of data_50038-ICSD


