data_16701-ICSD
#?2014 by Fachinformationszentrum Karlsruhe, and the U.S. Secretary of 
#Commerce on behalf of the United States.  All rights reserved.
_database_code_ICSD                16701
_audit_creation_date               1985/09/19
_audit_update_record               2012/02/01
_chemical_name_systematic          'Dipotassium Duo-disulfate(IV)'
_chemical_formula_structural       'K2 (S2 O5)'
_chemical_formula_sum              'K2 O5 S2'
_publ_section_title
;
The structure of potassium pyrosulfite and the nature of the 
pyrosulfite ion
;
loop_
_citation_id
_citation_journal_abbrev
_citation_year
_citation_journal_volume
_citation_page_first
_citation_page_last
_citation_journal_id_ASTM
primary 'Acta Crystallographica (1,1948-23,1967)' 1957 10 406 409 ACCRA9
_publ_author_name                  'Lindqvist, I.;Moertsell, M.'
_cell_length_a                     6.936(5)
_cell_length_b                     6.166(8)
_cell_length_c                     7.548(6)
_cell_angle_alpha                  90.
_cell_angle_beta                   102.61(10)
_cell_angle_gamma                  90.
_cell_volume                       315.02
_cell_formula_units_Z              2
_symmetry_space_group_name_H-M     'P 1 21/m 1'
_symmetry_Int_Tables_number        11
_refine_ls_R_factor_all            .136
loop_
_symmetry_equiv_pos_site_id
_symmetry_equiv_pos_as_xyz
  1	'x, -y+.5, z'
  2	'-x, -y, -z'
  3	'-x, y+.5, -z'
  4	'x, y, z'
loop_
_atom_type_symbol
_atom_type_oxidation_number
K1+	1
O2-	-2
S3+	3
S5+	5
loop_
_atom_site_label
_atom_site_type_symbol
_atom_site_symmetry_multiplicity
_atom_site_Wyckoff_symbol
_atom_site_fract_x
_atom_site_fract_y
_atom_site_fract_z
_atom_site_occupancy
_atom_site_attached_hydrogens
_atom_site_B_iso_or_equiv
K1 K1+ 2 e 0.215 0.25 0.936 1. 0 1.7 
K2 K1+ 2 e 0.639 0.25 0.673 1. 0 1.2 
S1 S3+ 2 e 0.027 0.25 0.329 1. 0 1.4 
S2 S5+ 2 e 0.702 0.25 0.238 1. 0 1.1 
O1 O2- 4 f 0.078 0.051 0.235 1. 0 2.4 
O2 O2- 4 f 0.632 0.053 0.314 1. 0 2.5 
O3 O2- 2 e 0.66 0.25 0.043 1. 0 2.7 

#End of data_16701-ICSD


