data_249215-ICSD
#?2014 by Fachinformationszentrum Karlsruhe, and the U.S. Secretary of 
#Commerce on behalf of the United States.  All rights reserved.
_database_code_ICSD                249215
_audit_creation_date               2008/02/01
_audit_update_record               2013/02/01
_chemical_name_systematic          'Hexalithium Copper(II) Tetraborate'
_chemical_formula_structural       'Li6 Cu (B4 O10)'
_chemical_formula_sum              'B4 Cu1 Li6 O10'
_publ_section_title
;
Synthesis, crystal structure and nonlinear optical properties of Li6 
Cu B4 O10: A congruently melting compound with isolated [Cu B4 O10]6- 
units
;
loop_
_citation_id
_citation_journal_abbrev
_citation_year
_citation_journal_volume
_citation_page_first
_citation_page_last
_citation_journal_id_ASTM
primary 'Journal of the American Chemical Society' 2006 128 11631 11634 JACSAT
_publ_author_name
;
Pan, S.;Smit, J.P.;Watkins, B.;Marvel, M.R.;Stern, C.L.;Poeppelmeier, 
K.R.
;
_cell_length_a                     4.8131(6)
_cell_length_b                     6.4288(8)
_cell_length_c                     7.0223(9)
_cell_angle_alpha                  83.369(2)
_cell_angle_beta                   71.623(2)
_cell_angle_gamma                  73.364(2)
_cell_volume                       197.5
_cell_formula_units_Z              1
_symmetry_space_group_name_H-M     'P 1'
_symmetry_Int_Tables_number        1
_refine_ls_R_factor_all            .0625
loop_
_symmetry_equiv_pos_site_id
_symmetry_equiv_pos_as_xyz
  1	'x, y, z'
loop_
_atom_type_symbol
_atom_type_oxidation_number
B3+	3
Cu2+	2
Li1+	1
O2-	-2
loop_
_atom_site_label
_atom_site_type_symbol
_atom_site_symmetry_multiplicity
_atom_site_Wyckoff_symbol
_atom_site_fract_x
_atom_site_fract_y
_atom_site_fract_z
_atom_site_occupancy
_atom_site_attached_hydrogens
_atom_site_U_iso_or_equiv
Li1 Li1+ 1 a 0.463(3) 0.6382(17) 0.2626(16) 1 0 0.010(2) 
Li2 Li1+ 1 a 0.540(3) 0.1516(19) 0.2228(16) 1 0 0.010(2) 
Li3 Li1+ 1 a -0.147(4) 0.335(3) 0.442(3) 1 0 0.044(5) 
Li4 Li1+ 1 a 0.963(4) -0.129(3) 0.322(3) 1 0 0.040(4) 
Li5 Li1+ 1 a -0.255(5) 0.867(3) 0.952(4) 1 0 0.050(5) 
Li6 Li1+ 1 a 0.883(5) -0.044(4) 0.664(3) 1 0 0.056(5) 
Cu1 Cu2+ 1 a 0.7553(6) 0.3216(5) 0.8425(4) 1 0 0.0251(3) 
B1 B3+ 1 a 0.120(3) 0.537(2) 0.070(2) 1 0 0.007(3) 
B2 B3+ 1 a 0.270(3) 0.610(3) 0.686(3) 1 0 0.015(3) 
B3 B3+ 1 a 0.375(4) 0.103(3) 0.622(3) 1 0 0.017(3) 
B4 B3+ 1 a 0.211(3) 0.035(3) 0.999(2) 1 0 0.011(3) 
O1 O2- 1 a 0.109(2) 0.2048(17) 0.6037(14) 1 0 0.014(2) 
O2 O2- 1 a 0.918(2) 0.105(2) 0.0121(16) 1 0 0.022(2) 
O3 O2- 1 a 0.4212(19) 0.4385(17) 0.0740(14) 1 0 0.012(2) 
O4 O2- 1 a 0.577(3) 0.507(2) 0.6504(16) 1 0 0.038(3) 
O5 O2- 1 a 0.0787(18) 0.6033(14) 0.8779(12) 1 0 0.0075(19) 
O6 O2- 1 a -0.122(3) 0.584(3) 0.2275(18) 1 0 0.034(3) 
O7 O2- 1 a 0.169(2) 0.7060(18) 0.5337(15) 1 0 0.011(2) 
O8 O2- 1 a 0.336(2) -0.0561(18) 0.1472(15) 1 0 0.018(2) 
O9 O2- 1 a 0.448(2) 0.0307(16) 0.8054(13) 1 0 0.012(2) 
O10 O2- 1 a 0.627(2) 0.050(3) 0.4577(18) 1 0 0.031(4) 

loop_
_atom_site_aniso_label
_atom_site_aniso_type_symbol
_atom_site_aniso_U_11
_atom_site_aniso_U_22
_atom_site_aniso_U_33
_atom_site_aniso_U_12
_atom_site_aniso_U_13
_atom_site_aniso_U_23
Li1 Li1+ 0.014(6) 0.003(4) 0.001(5) 0.004(4) 0.008(4) 0.005(4)
Li2 Li1+ 0.018(6) 0.006(5) 0.001(5) 0.004(5) -0.002(4) 0.005(4)
Li3 Li1+ 0.038(10) 0.039(10) 0.040(10) 0.012(8) -0.015(8) 0.007(8)
Li4 Li1+ 0.022(8) 0.038(9) 0.047(10) -0.002(7) 0.001(7) 0.001(8)
Li5 Li1+ 0.031(10) 0.042(10) 0.068(14) 0.002(8) -0.014(9) -0.002(10)
Li6 Li1+ 0.045(12) 0.060(13) 0.051(13) -0.005(10) -0.009(10) 0.007(10)
Cu1 Cu2+ 0.0120(4) 0.0287(5) 0.0142(4) 0.0113(3) 0.0046(3) 0.0135(3)
B1 B3+ 0.001(5) 0.013(7) 0.007(6) 0.005(5) -0.008(4) 0.005(5)
B2 B3+ 0.006(6) 0.011(6) 0.021(8) 0.006(5) -0.003(5) 0.006(6)
B3 B3+ 0.021(7) 0.012(7) 0.011(7) -0.009(6) 0.008(5) -0.002(5)
B4 B3+ 0.010(5) 0.019(7) 0.001(6) -0.007(5) 0.006(4) 0.001(5)
O1 O2- 0.009(4) 0.016(5) 0.008(5) 0.002(4) 0.004(3) 0.001(4)
O2 O2- 0.007(4) 0.036(5) 0.010(4) 0.006(3) 0.001(3) 0.012(3)
O3 O2- 0.005(4) 0.017(5) 0.016(5) 0.006(3) -0.007(3) -0.004(4)
O4 O2- 0.019(5) 0.047(7) 0.009(4) 0.025(4) 0.012(3) 0.023(4)
O5 O2- 0.002(3) 0.008(4) 0.001(4) 0.010(3) 0.008(3) -0.008(3)
O6 O2- 0.010(5) 0.075(10) 0.008(6) -0.005(6) -0.002(4) 0.016(5)
O7 O2- 0.008(4) 0.015(5) 0.006(4) -0.003(4) 0.004(3) 0.005(4)
O8 O2- 0.023(5) 0.011(5) 0.010(5) 0.013(4) -0.005(4) -0.003(4)
O9 O2- 0.013(4) 0.017(5) 0.012(5) -0.008(4) -0.010(4) 0.011(4)
O10 O2- 0.003(5) 0.059(10) 0.010(6) 0.021(5) 0.001(4) -0.003(6)
#End of data_249215-ICSD


