data_93453-ICSD
#?2014 by Fachinformationszentrum Karlsruhe, and the U.S. Secretary of 
#Commerce on behalf of the United States.  All rights reserved.
_database_code_ICSD                93453
_audit_creation_date               2003/04/01
_audit_update_record               2005/04/01
_chemical_name_systematic          'Disilver Tetravanadate'
_chemical_formula_structural       'Ag2 (V4 O11)'
_chemical_formula_sum              'Ag2 O11 V4'
_publ_section_title
;
Crystal structure and electronic properties of the Ag2 V4 O11 
insertion electrode
;
loop_
_citation_id
_citation_journal_abbrev
_citation_year
_citation_journal_volume
_citation_page_first
_citation_page_last
_citation_journal_id_ASTM
primary 'Journal of Physics: Condensed Matter' 2001 13 6675 6685 JCOMEL
_publ_author_name                  'Onoda, M.;Kanbe, K.'
_cell_length_a                     15.480(3)
_cell_length_b                     3.582(1)
_cell_length_c                     9.537(2)
_cell_angle_alpha                  90
_cell_angle_beta                   128.741(9)
_cell_angle_gamma                  90
_cell_volume                       412.47
_cell_formula_units_Z              2
_symmetry_space_group_name_H-M     'C 1 2/m 1'
_symmetry_Int_Tables_number        12
_refine_ls_R_factor_all            .055
loop_
_symmetry_equiv_pos_site_id
_symmetry_equiv_pos_as_xyz
  1	'-x, y, -z'
  2	'-x, -y, -z'
  3	'x, -y, z'
  4	'x, y, z'
  5	'-x+.5, y+.5, -z'
  6	'-x+.5, -y+.5, -z'
  7	'x+.5, -y+.5, z'
  8	'x+.5, y+.5, z'
loop_
_atom_type_symbol
_atom_type_oxidation_number
Ag1+	1
O2-	-2
V5+	5
loop_
_atom_site_label
_atom_site_type_symbol
_atom_site_symmetry_multiplicity
_atom_site_Wyckoff_symbol
_atom_site_fract_x
_atom_site_fract_y
_atom_site_fract_z
_atom_site_occupancy
_atom_site_attached_hydrogens
_atom_site_B_iso_or_equiv
Ag1 Ag1+ 4 i 0.11973(5) 0 0.51088(9) 1. 0 1.71(1) 
V1 V5+ 4 i 0.1493(1) 0 0.1432(2) 1. 0 1.17(2) 
V2 V5+ 4 i 0.36639(9) 0 0.1501(1) 1. 0 0.73(2) 
O1 O2- 2 a 0 0 0 1. 0 1.3(1) 
O2 O2- 4 i 0.3453(4) 0 0.9071(7) 1. 0 0.89(8) 
O3 O2- 4 i 0.1671(4) 0 0.9272(7) 1. 0 0.83(7) 
O4 O2- 4 i 0.1805(4) 0 0.3393(8) 1. 0 1.36(10) 
O5 O2- 4 i 0.3245(4) 0 0.2816(7) 1. 0 1.06(8) 
O6 O2- 4 i 0.5003(4) 0 0.2993(8) 1. 0 1.39(9) 

loop_
_atom_site_aniso_label
_atom_site_aniso_type_symbol
_atom_site_aniso_U_11
_atom_site_aniso_U_22
_atom_site_aniso_U_33
_atom_site_aniso_U_12
_atom_site_aniso_U_13
_atom_site_aniso_U_23
Ag1 Ag1+ 0.0301(4) 0.0168(3) 0.0206(3) 0. 0.0171(3) 0.
V1 V5+ 0.0210(5) 0.0105(6) 0.0178(5) 0. 0.0145(5) 0.
V2 V5+ 0.0099(4) 0.0090(5) 0.0105(4) 0. 0.0072(3) 0.
O1 O2- 0.010(3) 0.012(3) 0.023(4) 0. 0.009(3) 0.
O2 O2- 0.008(2) 0.012(2) 0.013(2) 0. 0.007(2) 0.
O3 O2- 0.013(2) 0.007(2) 0.015(2) 0. 0.011(2) 0.
O4 O2- 0.018(2) 0.022(3) 0.017(2) 0. 0.013(2) 0.
O5 O2- 0.013(2) 0.015(2) 0.015(2) 0. 0.010(2) 0.
O6 O2- 0.009(2) 0.016(3) 0.024(3) 0. 0.009(2) 0.
#End of data_93453-ICSD


