data_109946-ICSD
#?2014 by Fachinformationszentrum Karlsruhe, and the U.S. Secretary of 
#Commerce on behalf of the United States.  All rights reserved.
_database_code_ICSD                109946
_audit_creation_date               2008/02/01
_chemical_name_systematic
;
Disodium Mue-oxalato-bis(trifluoroantimonate)
;
_chemical_formula_structural       'Na2 ((C2 O4) (Sb F3)2)'
_chemical_formula_sum              'C2 F6 Na2 O4 Sb2'
_publ_section_title                'The perils of Cc revisted'
loop_
_citation_id
_citation_journal_abbrev
_citation_year
_citation_journal_volume
_citation_page_first
_citation_page_last
_citation_journal_id_ASTM
primary 'Acta Crystallographica, Section B: Structural Science'
 1997 53 317 322 ASBSDK
_publ_author_name                  'Marsh, R.E.'
_cell_length_a                     17.213(7)
_cell_length_b                     6.342(3)
_cell_length_c                     8.168(4)
_cell_angle_alpha                  90
_cell_angle_beta                   97.70(3)
_cell_angle_gamma                  90
_cell_volume                       883.62
_cell_formula_units_Z              4
_symmetry_space_group_name_H-M     'C 1 2/c 1'
_symmetry_Int_Tables_number        15
_refine_ls_R_factor_all            .039
loop_
_symmetry_equiv_pos_site_id
_symmetry_equiv_pos_as_xyz
  1	'x, -y, z+.5'
  2	'-x, -y, -z'
  3	'-x, y, -z+.5'
  4	'x, y, z'
  5	'x+.5, -y+.5, z+.5'
  6	'-x+.5, -y+.5, -z'
  7	'-x+.5, y+.5, -z+.5'
  8	'x+.5, y+.5, z'
loop_
_atom_type_symbol
_atom_type_oxidation_number
C3+	3
F1-	-1
Na1+	1
O2-	-2
Sb3+	3
loop_
_atom_site_label
_atom_site_type_symbol
_atom_site_symmetry_multiplicity
_atom_site_Wyckoff_symbol
_atom_site_fract_x
_atom_site_fract_y
_atom_site_fract_z
_atom_site_occupancy
_atom_site_attached_hydrogens
Sb1 Sb3+ 8 f -0.10600 -0.37660 0.11120 1. 0 
Na1 Na1+ 8 f 0.28800 -0.38800 0.17600 1. 0 
F1 F1- 8 f -0.19400 -0.23000 0.19600 1. 0 
F2 F1- 8 f -0.19200 -0.58400 0.05200 1. 0 
F3 F1- 8 f -0.13400 -0.31000 -0.11900 1. 0 
O1 O2- 8 f -0.07900 -0.01800 0.10600 1. 0 
O2 O2- 8 f -0.03000 0.26400 -0.00300 1. 0 
C1 C3+ 8 f -0.03400 0.07400 0.02400 1. 0 

#End of data_109946-ICSD


