data_28616-ICSD
#?2014 by Fachinformationszentrum Karlsruhe, and the U.S. Secretary of 
#Commerce on behalf of the United States.  All rights reserved.
_database_code_ICSD                28616
_audit_creation_date               1980/01/01
_audit_update_record               2009/02/01
_chemical_name_systematic          'Sodium Tantalate'
_chemical_formula_structural       'Na (Ta O3)'
_chemical_formula_sum              'Na1 O3 Ta1'
_publ_section_title
;
An X-ray diffraction study of phase transitions in sodium tantalate
;
loop_
_citation_id
_citation_journal_abbrev
_citation_year
_citation_journal_volume
_citation_page_first
_citation_page_last
_citation_journal_id_ASTM
primary Kristallografiya 1962 7 718 723 KRISAJ
2 'Soviet Physics, Crystallography (= Kristallografiya)'
 1962 7 584 587 SPHCA6
_publ_author_name                  'Ismailzade, I.G.'
_cell_length_a                     3.927
_cell_length_b                     3.927
_cell_length_c                     3.927
_cell_angle_alpha                  90.
_cell_angle_beta                   90.
_cell_angle_gamma                  90.
_cell_volume                       60.56
_cell_formula_units_Z              1
_symmetry_space_group_name_H-M     'P 4/m m m'
_symmetry_Int_Tables_number        123
loop_
_symmetry_equiv_pos_site_id
_symmetry_equiv_pos_as_xyz
  1	'y, x, -z'
  2	'-y, -x, -z'
  3	'-y, x, -z'
  4	'y, -x, -z'
  5	'-x, y, -z'
  6	'x, -y, -z'
  7	'x, y, -z'
  8	'-x, -y, -z'
  9	'-y, -x, z'
 10	'y, x, z'
 11	'y, -x, z'
 12	'-y, x, z'
 13	'x, -y, z'
 14	'-x, y, z'
 15	'-x, -y, z'
 16	'x, y, z'
loop_
_atom_type_symbol
_atom_type_oxidation_number
Na1+	1
O2-	-2
Ta5+	5
loop_
_atom_site_label
_atom_site_type_symbol
_atom_site_symmetry_multiplicity
_atom_site_Wyckoff_symbol
_atom_site_fract_x
_atom_site_fract_y
_atom_site_fract_z
_atom_site_occupancy
_atom_site_attached_hydrogens
Na1 Na1+ 1 a 0 0 0 1. 0 
Ta1 Ta5+ 1 d 0.5 0.5 0.5 1. 0 
O1 O2- 2 e 0.5 0 0.5 1. 0 
O2 O2- 1 c 0.5 0.5 0 1. 0 

#End of data_28616-ICSD


