data_100632-ICSD
#?2014 by Fachinformationszentrum Karlsruhe, and the U.S. Secretary of 
#Commerce on behalf of the United States.  All rights reserved.
_database_code_ICSD                100632
_audit_creation_date               1986/08/12
_audit_update_record               1998/06/26
_chemical_name_systematic
;
Calcium Dialuminium Disilicate Dihydroxide Hydrate
;
_chemical_formula_structural       'Ca Al2 (Si2 O7) (O H)2 (H2 O)'
_chemical_formula_sum              'H4 Al2 Ca1 O10 Si2'
_chemical_name_mineral             Lawsonite
_publ_section_title
;
Crystal structure refinement of Lawsonite
;
loop_
_citation_id
_citation_journal_abbrev
_citation_year
_citation_journal_volume
_citation_page_first
_citation_page_last
_citation_journal_id_ASTM
primary 'American Mineralogist' 1978 63 311 315 AMMIAY
_publ_author_name                  'Baur, W.H.'
_cell_length_a                     8.795(3)
_cell_length_b                     5.847(1)
_cell_length_c                     13.142(6)
_cell_angle_alpha                  90.
_cell_angle_beta                   90.
_cell_angle_gamma                  90.
_cell_volume                       675.82
_cell_formula_units_Z              4
_symmetry_space_group_name_H-M     'C c m m'
_symmetry_Int_Tables_number        63
_refine_ls_R_factor_all            .0256
loop_
_symmetry_equiv_pos_site_id
_symmetry_equiv_pos_as_xyz
  1	'x, -y, -z+.5'
  2	'-x, -y, z+.5'
  3	'x, -y, z'
  4	'-x, -y, -z'
  5	'-x, y, z+.5'
  6	'x, y, -z+.5'
  7	'-x, y, -z'
  8	'x, y, z'
  9	'x+.5, -y+.5, -z+.5'
 10	'-x+.5, -y+.5, z+.5'
 11	'x+.5, -y+.5, z'
 12	'-x+.5, -y+.5, -z'
 13	'-x+.5, y+.5, z+.5'
 14	'x+.5, y+.5, -z+.5'
 15	'-x+.5, y+.5, -z'
 16	'x+.5, y+.5, z'
loop_
_atom_type_symbol
_atom_type_oxidation_number
Al3+	3
Ca2+	2
H1+	1
O2-	-2
Si4+	4
loop_
_atom_site_label
_atom_site_type_symbol
_atom_site_symmetry_multiplicity
_atom_site_Wyckoff_symbol
_atom_site_fract_x
_atom_site_fract_y
_atom_site_fract_z
_atom_site_occupancy
_atom_site_attached_hydrogens
_atom_site_B_iso_or_equiv
Ca1 Ca2+ 4 c 0.33305(5) 0 0.25 1. 0 0 
Al1 Al3+ 8 d 0.25 0.25 0 1. 0 0 
Si1 Si4+ 8 f 0.98040(5) 0 0.13298(3) 1. 0 0 
O1 O2- 4 c 0.0495(2) 0 0.25 1. 0 0 
O2 O2- 16 h 0.3788(1) 0.2726(1) 0.11690(6) 1. 0 0 
O3 O2- 8 f 0.1378(1) 0 0.06505(8) 1. 0 0 
O4 O2- 8 f 0.6391(1) 0 0.0479(1) 1. 0 0 
O5 O2- 4 c 0.6097(2) 0 0.25 1. 0 0 
H1 H1+ 8 f 0.639(4) 0 0.194(3) 1. 0 2.6(9) 
H2 H1+ 8 f 0.587(6) 0 0.056(4) 1. 0 7.00(16) 

#End of data_100632-ICSD


