data_417107-ICSD
#?2014 by Fachinformationszentrum Karlsruhe, and the U.S. Secretary of 
#Commerce on behalf of the United States.  All rights reserved.
_database_code_ICSD                417107
_audit_creation_date               2008/08/01
_chemical_name_systematic          'Neodymium Potassium Palladate(II)'
_chemical_formula_structural       'Nd K Pd O3'
_chemical_formula_sum              'K1 Nd1 O3 Pd1'
_publ_section_title
;
Crystal growth and structural characterization of the new ordered 
palladates, Ln K Pd O3 (Ln = La, Pr, Nd, Sm - Gd) and the 
isostructural, partially Cu-substituted palladate, Pr K (Cu0.14 
Pd0.86) O3
;
loop_
_citation_id
_citation_journal_abbrev
_citation_year
_citation_journal_volume
_citation_journal_issue
_citation_page_first
_citation_page_last
_citation_journal_id_ASTM
primary 'Inorganic Chemistry' 2007 46 8 3116 3122 INOCAJ
_publ_author_name
;
Mugavero, S.J.;Smith, M.D.;zur Loye, H.C.
;
_cell_length_a                     13.2053(6)
_cell_length_b                     3.9444(2)
_cell_length_c                     7.3711(4)
_cell_angle_alpha                  90.00
_cell_angle_beta                   104.970(2)
_cell_angle_gamma                  90.00
_cell_volume                       370.91
_cell_formula_units_Z              4
_symmetry_space_group_name_H-M     'C 1 2/m 1'
_symmetry_Int_Tables_number        12
_refine_ls_R_factor_all            .0291
loop_
_symmetry_equiv_pos_site_id
_symmetry_equiv_pos_as_xyz
  1	'-x, y, -z'
  2	'-x, -y, -z'
  3	'x, -y, z'
  4	'x, y, z'
  5	'-x+.5, y+.5, -z'
  6	'-x+.5, -y+.5, -z'
  7	'x+.5, -y+.5, z'
  8	'x+.5, y+.5, z'
loop_
_atom_type_symbol
_atom_type_oxidation_number
K1+	1
Nd3+	3
O2-	-2
Pd2+	2
loop_
_atom_site_label
_atom_site_type_symbol
_atom_site_symmetry_multiplicity
_atom_site_Wyckoff_symbol
_atom_site_fract_x
_atom_site_fract_y
_atom_site_fract_z
_atom_site_occupancy
_atom_site_attached_hydrogens
_atom_site_U_iso_or_equiv
Nd1 Nd3+ 4 i 0.65034(2) 0.0000 0.07947(4) 1 0 0.00818(10) 
Pd1 Pd2+ 4 i 0.00657(3) 0.0000 0.77782(6) 1 0 0.00726(11) 
K1 K1+ 4 i 0.35705(11) 0.0000 0.43599(19) 1 0 0.0138(3) 
O1 O2- 4 i 0.8318(3) 0.0000 0.1326(6) 1 0 0.0100(8) 
O2 O2- 4 i 0.4937(3) 0.0000 0.1981(6) 1 0 0.0109(8) 
O3 O2- 4 i 0.1516(3) 0.0000 0.2788(6) 1 0 0.0100(8) 

loop_
_atom_site_aniso_label
_atom_site_aniso_type_symbol
_atom_site_aniso_U_11
_atom_site_aniso_U_22
_atom_site_aniso_U_33
_atom_site_aniso_U_12
_atom_site_aniso_U_13
_atom_site_aniso_U_23
Nd1 Nd3+ 0.00625(15) 0.00683(17) 0.01158(16) 0.000 0.00251(11) 0.000
Pd1 Pd2+ 0.0063(2) 0.0049(2) 0.0104(2) 0.000 0.00201(15) 0.000
K1 K1+ 0.0124(6) 0.0163(7) 0.0125(5) 0.000 0.0032(5) 0.000
O1 O2- 0.0073(18) 0.011(2) 0.0107(19) 0.000 0.0009(15) 0.000
O2 O2- 0.010(2) 0.004(2) 0.017(2) 0.000 0.0018(16) 0.000
O3 O2- 0.0080(18) 0.009(2) 0.0128(18) 0.000 0.0031(16) 0.000
#End of data_417107-ICSD


