data_24732-ICSD
#?2014 by Fachinformationszentrum Karlsruhe, and the U.S. Secretary of 
#Commerce on behalf of the United States.  All rights reserved.
_database_code_ICSD                24732
_audit_creation_date               1980/01/01
_audit_update_record               2012/08/01
_chemical_name_systematic          'Potassium Uranyl Vanadate'
_chemical_formula_structural       'K U O2 V O4'
_chemical_formula_sum              'K1 O6 U1 V1'
_chemical_name_mineral             'Carnotite (anhydrous)'
_publ_section_title
;
On the crystal structure of K U O2 V O4 (Synthetic anhydrous 
carnotite)
;
loop_
_citation_id
_citation_journal_abbrev
_citation_year
_citation_journal_volume
_citation_page_first
_citation_page_last
_citation_journal_id_ASTM
primary 'Arkiv foer Kemi' 1949 1 337 351 ARKEAD
_publ_author_name                  'Sundberg, I.;Sillen, L.G.'
_cell_length_a                     6.59(1)
_cell_length_b                     8.403(10)
_cell_length_c                     10.43(1)
_cell_angle_alpha                  90.
_cell_angle_beta                   104.2
_cell_angle_gamma                  90.
_cell_volume                       559.92
_cell_formula_units_Z              4
_symmetry_space_group_name_H-M     'P 1 21/c 1'
_symmetry_Int_Tables_number        14
loop_
_symmetry_equiv_pos_site_id
_symmetry_equiv_pos_as_xyz
  1	'x, -y+.5, z+.5'
  2	'-x, -y, -z'
  3	'-x, y+.5, -z+.5'
  4	'x, y, z'
loop_
_atom_type_symbol
_atom_type_oxidation_number
K1+	1
O2-	-2
U6+	6
V5+	5
loop_
_atom_site_label
_atom_site_type_symbol
_atom_site_symmetry_multiplicity
_atom_site_Wyckoff_symbol
_atom_site_fract_x
_atom_site_fract_y
_atom_site_fract_z
_atom_site_occupancy
_atom_site_attached_hydrogens
K1 K1+ 4 e 0.54(2) 0.25(2) 0.33(2) 1. 0 
U1 U6+ 4 e 0.986(3) 0.026(3) 0.184(3) 1. 0 
V1 V5+ 4 e 0.11(2) 0.17(2) 0.41(2) 1. 0 
O1 O2- 4 e 0.69(4) 0.05(4) 0.15(4) 1. 0 
O2 O2- 4 e 0.28(4) 0.005(40) 0.22(4) 1. 0 
O3 O2- 4 e 0.31(4) 0.04(4) 0.47(4) 1. 0 
O4 O2- 4 e 0.11(4) 0.21(4) 0.28(4) 1. 0 
O5 O2- 4 e 0.11(4) 0.21(4) 0.54(4) 1. 0 
O6 O2- 4 e 0.90(4) 0.06(4) 0.38(4) 1. 0 

#End of data_24732-ICSD


