data_62539-ICSD
#?2014 by Fachinformationszentrum Karlsruhe, and the U.S. Secretary of 
#Commerce on behalf of the United States.  All rights reserved.
_database_code_ICSD                62539
_audit_creation_date               1988/02/22
_audit_update_record               1999/01/19
_chemical_name_systematic          'Distrontium Calcium Uranate'
_chemical_formula_structural       'Sr2 Ca (U O6)'
_chemical_formula_sum              'Ca1 O6 Sr2 U1'
_chemical_name_mineral             Perovskite-(Sr,Ca,U)
_publ_section_title
;
The monoclinic perovskites Sr2 Ca U O6 and Ba2 Sr U O6. A Rietveld 
refinement of neutron powder diffraction data.
;
loop_
_citation_id
_citation_journal_abbrev
_citation_year
_citation_journal_volume
_citation_page_first
_citation_page_last
_citation_journal_id_ASTM
primary 'Acta Crystallographica, Section C: Crystal Structure Communications'
 1987 43 1033 1036 ACSCEE
_publ_author_name                  'Groen, W.A.;Ijdo, D.J.W.'
_cell_length_a                     5.9377(2)
_cell_length_b                     6.0734(2)
_cell_length_c                     8.4563(3)
_cell_angle_alpha                  90.
_cell_angle_beta                   90.14(1)
_cell_angle_gamma                  90.
_cell_volume                       304.95
_cell_formula_units_Z              2
_symmetry_space_group_name_H-M     'P 1 21/n 1'
_symmetry_Int_Tables_number        14
_refine_ls_R_factor_all            .0636
loop_
_symmetry_equiv_pos_site_id
_symmetry_equiv_pos_as_xyz
  1	'-x+.5, y+.5, -z+.5'
  2	'-x, -y, -z'
  3	'x+.5, -y+.5, z+.5'
  4	'x, y, z'
loop_
_atom_type_symbol
_atom_type_oxidation_number
Ca2+	2
O2-	-2
Sr2+	2
U6+	6
loop_
_atom_site_label
_atom_site_type_symbol
_atom_site_symmetry_multiplicity
_atom_site_Wyckoff_symbol
_atom_site_fract_x
_atom_site_fract_y
_atom_site_fract_z
_atom_site_occupancy
_atom_site_attached_hydrogens
_atom_site_B_iso_or_equiv
Sr1 Sr2+ 4 e 0.5101(5) 0.5459(3) 0.2476(9) 1. 0 0.63(5) 
Ca1 Ca2+ 2 d 0.5 0 0 1. 0 0.6(1) 
U1 U6+ 2 c 0 0.5 0 1. 0 0.4(1) 
O1 O2- 4 e 0.1853(7) 0.2193(8) -.0572(6) 1. 0 0.7(1) 
O2 O2- 4 e 0.2818(7) 0.6878(8) -.0478(6) 1. 0 0.4(1) 
O3 O2- 4 e 0.3993(5) 0.9598(4) 0.2657(8) 1. 0 0.5(1) 

#End of data_62539-ICSD


