data_248138-ICSD
#?2014 by Fachinformationszentrum Karlsruhe, and the U.S. Secretary of 
#Commerce on behalf of the United States.  All rights reserved.
_database_code_ICSD                248138
_audit_creation_date               2010/08/01
_audit_update_record               2012/02/01
_chemical_name_systematic
;
Lithium Samarium Tetrakis(catena-phosphate(V))
;
_chemical_formula_structural       'Li Sm (P O3)4'
_chemical_formula_sum              'Li1 O12 P4 Sm1'
_publ_section_title
;
Lithium samarium polyphosphate, Li Sm (P O3)4
;
loop_
_citation_id
_citation_journal_abbrev
_citation_year
_citation_journal_volume
_citation_journal_issue
_citation_page_first
_citation_page_last
_citation_journal_id_ASTM
primary 'Acta Crystallographica, Section E. Structure Reports Online'
 2010 66 2 i3 i3 ACSEBH
2 'Acta Crystallographica, Section E. Structure Reports Online'
 2007 63 1 i1 i2 ACSEBH
_publ_author_name
;
Zhao Dan;Li Feifei;Cheng Wen Dan;Zhang Hao
;
_cell_length_a                     16.379(2)
_cell_length_b                     7.0499(9)
_cell_length_c                     9.6936(12)
_cell_angle_alpha                  90.00
_cell_angle_beta                   126.138(2)
_cell_angle_gamma                  90.00
_cell_volume                       903.96
_cell_formula_units_Z              4
_symmetry_space_group_name_H-M     'C 1 2/c 1'
_symmetry_Int_Tables_number        15
_refine_ls_R_factor_all            .0186
loop_
_symmetry_equiv_pos_site_id
_symmetry_equiv_pos_as_xyz
  1	'x, -y, z+.5'
  2	'-x, -y, -z'
  3	'-x, y, -z+.5'
  4	'x, y, z'
  5	'x+.5, -y+.5, z+.5'
  6	'-x+.5, -y+.5, -z'
  7	'-x+.5, y+.5, -z+.5'
  8	'x+.5, y+.5, z'
loop_
_atom_type_symbol
_atom_type_oxidation_number
Li1+	1
O2-	-2
P5+	5
Sm3+	3
loop_
_atom_site_label
_atom_site_type_symbol
_atom_site_symmetry_multiplicity
_atom_site_Wyckoff_symbol
_atom_site_fract_x
_atom_site_fract_y
_atom_site_fract_z
_atom_site_occupancy
_atom_site_attached_hydrogens
_atom_site_U_iso_or_equiv
Li1 Li1+ 4 e 0.5000 0.2975(12) 0.7500 1 0 0.014(2) 
Sm1 Sm3+ 4 e 0.5000 0.20102(3) 0.2500 1 0 0.00541(15) 
P1 P5+ 8 f 0.36163(7) 0.55515(13) 0.33744(11) 1 0 0.0057(2) 
P2 P5+ 8 f 0.35188(7) 0.15529(14) 0.40335(12) 1 0 0.0056(2) 
O1 O2- 8 f 0.3857(2) 0.7182(4) 0.4524(4) 1 0 0.0117(6) 
O2 O2- 8 f 0.3410(2) 0.3787(4) 0.4149(3) 1 0 0.0094(5) 
O3 O2- 8 f 0.4267(2) 0.0930(4) 0.5830(3) 1 0 0.0104(5) 
O4 O2- 8 f 0.3705(2) 0.1147(4) 0.2737(3) 1 0 0.0104(5) 
O5 O2- 8 f 0.43430(19) 0.5038(4) 0.2978(3) 1 0 0.0094(5) 
O6 O2- 8 f 0.25564(19) 0.5836(4) 0.1557(3) 1 0 0.0091(5) 

loop_
_atom_site_aniso_label
_atom_site_aniso_type_symbol
_atom_site_aniso_U_11
_atom_site_aniso_U_22
_atom_site_aniso_U_33
_atom_site_aniso_U_12
_atom_site_aniso_U_13
_atom_site_aniso_U_23
Li1 Li1+ 0.018(5) 0.011(5) 0.016(5) 0.000 0.011(5) 0.000
Sm1 Sm3+ 0.00650(19) 0.00499(19) 0.00591(19) 0.000 0.00431(14) 0.000
P1 P5+ 0.0060(4) 0.0046(4) 0.0068(5) 0.0004(3) 0.0040(4) 0.0004(3)
P2 P5+ 0.0059(4) 0.0053(4) 0.0062(5) -0.0005(3) 0.0040(4) 0.0004(4)
O1 O2- 0.0130(14) 0.0093(14) 0.0112(15) -0.0007(10) 0.0063(13) -0.0026(10)
O2 O2- 0.0167(13) 0.0052(13) 0.0133(13) 0.0000(10) 0.0126(12) 0.0009(10)
O3 O2- 0.0108(13) 0.0076(12) 0.0094(13) 0.0003(10) 0.0041(11) 0.0016(10)
O4 O2- 0.0127(13) 0.0110(13) 0.0126(13) -0.0019(11) 0.0102(11) -0.0026(11)
O5 O2- 0.0076(12) 0.0107(13) 0.0111(13) 0.0012(10) 0.0061(11) 0.0021(10)
O6 O2- 0.0083(12) 0.0125(13) 0.0073(12) 0.0027(10) 0.0049(11) 0.0012(10)
#End of data_248138-ICSD


