data_50280-ICSD
#?2014 by Fachinformationszentrum Karlsruhe, and the U.S. Secretary of 
#Commerce on behalf of the United States.  All rights reserved.
_database_code_ICSD                50280
_audit_creation_date               1999/06/02
_audit_update_record               2012/08/01
_chemical_name_systematic          'Calcium Titanium Silicate Oxide'
_chemical_formula_structural       'Ca Ti (Si O4) O'
_chemical_formula_sum              'Ca1 O5 Si1 Ti1'
_chemical_name_mineral             Titanite
_publ_section_title
;
The two-step phase transition of titanate, Ca Ti Si O5: a synchroton 
radiation study
;
loop_
_citation_id
_citation_journal_abbrev
_citation_year
_citation_journal_volume
_citation_page_first
_citation_page_last
_citation_journal_id_ASTM
primary 'Zeitschrift fuer Kristallographie (1979-2010)' 1997 212 9 19 ZEKRDZ
2 'Golden Book of Phase Transitions, Wroclaw' 2002 1 1 123 GBOPT5
_publ_author_name
;
Kek, S.;Aroyo, M.;Bismayer, U.;Schmidt, C.;Eichhorn, K.D.;Krane, H.G.
;
_cell_length_a                     7.0671(10)
_cell_length_b                     8.7168(12)
_cell_length_c                     6.5646(9)
_cell_angle_alpha                  90.
_cell_angle_beta                   113.873(12)
_cell_angle_gamma                  90.
_cell_volume                       369.8
_cell_formula_units_Z              4
_symmetry_space_group_name_H-M     'P 1 21/a 1'
_symmetry_Int_Tables_number        14
_refine_ls_R_factor_all            .034
loop_
_symmetry_equiv_pos_site_id
_symmetry_equiv_pos_as_xyz
  1	'x+.5, -y+.5, z'
  2	'-x, -y, -z'
  3	'-x+.5, y+.5, -z'
  4	'x, y, z'
loop_
_atom_type_symbol
_atom_type_oxidation_number
Ca2+	2
O2-	-2
Si4+	4
Ti4+	4
loop_
_atom_site_label
_atom_site_type_symbol
_atom_site_symmetry_multiplicity
_atom_site_Wyckoff_symbol
_atom_site_fract_x
_atom_site_fract_y
_atom_site_fract_z
_atom_site_occupancy
_atom_site_attached_hydrogens
Ca1 Ca2+ 4 e 0.24098(4) 0.41845(3) 0.25115(1) 1. 0 
Ti1 Ti4+ 4 e 0.51492(6) 0.25456(2) 0.74926(1) 1. 0 
Si1 Si4+ 4 e 0.74800(5) 0.43282(5) 0.24877(2) 1. 0 
O1 O2- 4 e 0.74951(6) 0.32074(8) 0.74976(5) 1. 0 
O2 O2- 4 e 0.91046(9) 0.31572(6) 0.43491(10) 1. 0 
O3 O2- 4 e 0.08664(9) 0.18465(6) 0.06217(10) 1. 0 
O4 O2- 4 e 0.38394(12) 0.46096(6) 0.64660(14) 1. 0 
O5 O2- 4 e 0.61845(12) 0.04022(7) 0.85350(14) 1. 0 

loop_
_atom_site_aniso_label
_atom_site_aniso_type_symbol
_atom_site_aniso_U_11
_atom_site_aniso_U_22
_atom_site_aniso_U_33
_atom_site_aniso_U_12
_atom_site_aniso_U_13
_atom_site_aniso_U_23
Ca1 Ca2+ 0.0098(3) 0.0029(3) 0.0032(3) 0.0003(1) -0.0003(2) 0.0000(1)
Ti1 Ti4+ 0.0021(3) 0.0027(3) 0.0019(3) 0.0000(1) 0.0008(2) 0.0004(1)
Si1 Si4+ 0.0007(3) 0.0006(3) 0.0004(3) 0.0000(1) 0.0003(2) 0.0000(1)
O1 O2- 0.0042(5) 0.0048(3) 0.0041(5) 0.0002(2) 0.0020(4) 0.0000(1)
O2 O2- 0.0059(4) 0.0055(5) 0.0041(4) -0.0005(2) 0.0022(3) -0.0002(2)
O3 O2- 0.0060(5) 0.0056(5) 0.0039(4) -0.0004(2) 0.0025(3) -0.0001(2)
O4 O2- 0.0061(5) 0.0033(4) 0.0051(4) 0.0007(2) 0.0033(3) 0.0014(2)
O5 O2- 0.0060(5) 0.0027(4) 0.0052(4) 0.0004(2) 0.0029(3) 0.0014(2)
#End of data_50280-ICSD


