data_14233-ICSD
#?2014 by Fachinformationszentrum Karlsruhe, and the U.S. Secretary of 
#Commerce on behalf of the United States.  All rights reserved.
_database_code_ICSD                14233
_audit_creation_date               1980/12/31
_audit_update_record               2012/08/01
_chemical_name_systematic          'Silver Bismuth Dichromate'
_chemical_formula_structural       'Ag Bi (Cr2 O7)2'
_chemical_formula_sum              'Ag1 Bi1 Cr4 O14'
_publ_section_title
;
Etude par Diffraction X et par Diffraction Neutronique en Temps de 
Vol de la Structure de Ag Bi (Cr2 O7)2
;
loop_
_citation_id
_citation_journal_abbrev
_citation_year
_citation_journal_volume
_citation_page_first
_citation_page_last
_citation_journal_id_ASTM
primary 'Acta Crystallographica B (24,1968-38,1982)' 1980 36 1327 1331 ACBCAR
_publ_author_name                  'Riou, A.;Roult, G.'
_cell_length_a                     8.4944(3)
_cell_length_b                     8.4944(3)
_cell_length_c                     8.1313(5)
_cell_angle_alpha                  90.
_cell_angle_beta                   90.
_cell_angle_gamma                  90.
_cell_volume                       586.71
_cell_formula_units_Z              2
_symmetry_space_group_name_H-M     'I 4'
_symmetry_Int_Tables_number        79
_refine_ls_R_factor_all            .1
loop_
_symmetry_equiv_pos_site_id
_symmetry_equiv_pos_as_xyz
  1	'y, -x, z'
  2	'-y, x, z'
  3	'-x, -y, z'
  4	'x, y, z'
  5	'y+.5, -x+.5, z+.5'
  6	'-y+.5, x+.5, z+.5'
  7	'-x+.5, -y+.5, z+.5'
  8	'x+.5, y+.5, z+.5'
loop_
_atom_type_symbol
_atom_type_oxidation_number
Ag1+	1
Bi3+	3
Cr6+	6
O2-	-2
loop_
_atom_site_label
_atom_site_type_symbol
_atom_site_symmetry_multiplicity
_atom_site_Wyckoff_symbol
_atom_site_fract_x
_atom_site_fract_y
_atom_site_fract_z
_atom_site_occupancy
_atom_site_attached_hydrogens
_atom_site_B_iso_or_equiv
Ag1 Ag1+ 2 a 0 0 0.4203(19) 1. 0 0 
Bi1 Bi3+ 2 a 0 0 0 1. 0 0 
Cr1 Cr6+ 8 c 0.1608(3) 0.3814(3) 0.2081(8) 1. 0 0 
O1 O2- 8 c 0.243(2) 0.429(2) 0.046(4) 1. 0 5.1 
O2 O2- 8 c 0.099(2) 0.203(2) 0.199(4) 1. 0 2.5 
O3 O2- 8 c 0.279(3) 0.402(3) 0.362(5) 1. 0 3.8 
O4 O2- 4 b 0 0.5 0.241(7) 1. 0 4.2 

#End of data_14233-ICSD


