data_36519-ICSD
#?2014 by Fachinformationszentrum Karlsruhe, and the U.S. Secretary of 
#Commerce on behalf of the United States.  All rights reserved.
_database_code_ICSD                36519
_audit_creation_date               1992/08/20
_audit_update_record               2006/04/01
_chemical_name_systematic          'Sodium Hexachlorotantalate'
_chemical_formula_structural       'Na (Ta Cl6)'
_chemical_formula_sum              'Cl6 Na1 Ta1'
_publ_section_title
;
Zur kristallchemischen Einordnung von Na Sb Cl6, Na Nb Cl6 und Na Ta 
Cl6
;
loop_
_citation_id
_citation_journal_abbrev
_citation_year
_citation_journal_volume
_citation_page_first
_citation_page_last
_citation_journal_id_ASTM
primary 'Zeitschrift fuer Kristallographie (1979-2010)' 1992 198 1 16 ZEKRDZ
2 'Phase Transition' 1992 38 127 220 PHTRDP
_publ_author_name                  'Henke, H.'
_cell_length_a                     6.449(2)
_cell_length_b                     6.880(2)
_cell_length_c                     18.989(6)
_cell_angle_alpha                  90.
_cell_angle_beta                   90.87(2)
_cell_angle_gamma                  90.
_cell_volume                       842.43
_cell_formula_units_Z              4
_symmetry_space_group_name_H-M     'P 1 21/c 1'
_symmetry_Int_Tables_number        14
_refine_ls_R_factor_all            .024
loop_
_symmetry_equiv_pos_site_id
_symmetry_equiv_pos_as_xyz
  1	'x, -y+.5, z+.5'
  2	'-x, -y, -z'
  3	'-x, y+.5, -z+.5'
  4	'x, y, z'
loop_
_atom_type_symbol
_atom_type_oxidation_number
Cl1-	-1
Na1+	1
Ta5+	5
loop_
_atom_site_label
_atom_site_type_symbol
_atom_site_symmetry_multiplicity
_atom_site_Wyckoff_symbol
_atom_site_fract_x
_atom_site_fract_y
_atom_site_fract_z
_atom_site_occupancy
_atom_site_attached_hydrogens
Ta1 Ta5+ 4 e 0.25581(3) 0.21729(3) 0.11335(1) 1. 0 
Cl1 Cl1- 4 e 0.3750(2) 0.1876(2) 0.23698(6) 1. 0 
Cl2 Cl1- 4 e 0.5469(2) 0.3970(2) 0.09118(8) 1. 0 
Cl3 Cl1- 4 e 0.0783(2) 0.5039(2) 0.15290(7) 1. 0 
Cl4 Cl1- 4 e 0.1150(2) 0.2519(2) 0.00459(6) 1. 0 
Cl5 Cl1- 4 e -.0428(2) 0.0386(2) 0.15351(6) 1. 0 
Cl6 Cl1- 4 e 0.4123(2) -.0748(2) 0.09093(8) 1. 0 
Na1 Na1+ 4 e 0.7869(3) 0.3072(3) 0.2480(1) 1. 0 

loop_
_atom_site_aniso_label
_atom_site_aniso_type_symbol
_atom_site_aniso_U_11
_atom_site_aniso_U_22
_atom_site_aniso_U_33
_atom_site_aniso_U_12
_atom_site_aniso_U_13
_atom_site_aniso_U_23
Ta1 Ta5+ 0.0287(1) 0.0242(1) 0.0244(1) -0.0001(1) 0.0004(1) 0.0011(1)
Cl1 Cl1- 0.0454(6) 0.0416(6) 0.0300(5) -0.0066(5) -0.0105(4) 0.0063(5)
Cl2 Cl1- 0.0370(6) 0.0473(7) 0.0532(8) -0.0108(5) 0.0056(5) 0.0103(6)
Cl3 Cl1- 0.0442(6) 0.0274(4) 0.0407(6) 0.0054(4) 0.0021(5) -0.0036(4)
Cl4 Cl1- 0.0609(8) 0.0500(7) 0.0294(5) 0.0008(6) -0.0094(5) 0.0022(5)
Cl5 Cl1- 0.0331(5) 0.0329(5) 0.0391(6) -0.0076(4) 0.0029(4) -0.0013(5)
Cl6 Cl1- 0.0519(7) 0.0330(6) 0.0575(8) 0.0113(5) 0.0099(6) -0.0025(6)
Na1 Na1+ 0.0470(12) 0.0470(13) 0.0716(16) -0.0002(9) 0.0084(11) -0.054(12)
#End of data_36519-ICSD


