data_31385-ICSD
#?2014 by Fachinformationszentrum Karlsruhe, and the U.S. Secretary of 
#Commerce on behalf of the United States.  All rights reserved.
_database_code_ICSD                31385
_audit_creation_date               1984/12/31
_audit_update_record               2008/02/01
_chemical_name_systematic          'Trimagnesium Bis(borate)'
_chemical_formula_structural       'Mg3 (B O3)2'
_chemical_formula_sum              'B2 Mg3 O6'
_chemical_name_mineral             Kotoite
_publ_section_title
;
Verfeinerung der Kristallstrukturen der isotypen Verbindungen M3(B 
O3)2 mit M= Mg, Co und Ni (Strukturtyp: Kotoit)
;
loop_
_citation_id
_citation_journal_abbrev
_citation_year
_citation_journal_volume
_citation_page_first
_citation_page_last
_citation_journal_id_ASTM
primary 'Zeitschrift fuer Kristallographie (1979-2010)' 1984 166 129 140 ZEKRDZ
2
;
Oesterreische Akademie der Wissenschaften, Mathematich-
Naturwissenschaftliche Klasse, Sitzungsberichte
;
 1982 119 61 62 OAWCAY
3 'Acta Chemica Scandinavica (1-27,1973-42,1988)' 1949 3 660 675 ACSAA4
4 'Powder Diffraction' 1987 2 41 52 PODIE2
_publ_author_name                  'Effenberger, H.;Pertlik, F.'
_cell_length_a                     5.398(2)
_cell_length_b                     8.416(2)
_cell_length_c                     4.497(2)
_cell_angle_alpha                  90.
_cell_angle_beta                   90.
_cell_angle_gamma                  90.
_cell_volume                       204.3
_cell_formula_units_Z              2
_symmetry_space_group_name_H-M     'P n m n'
_symmetry_Int_Tables_number        58
_refine_ls_R_factor_all            .047
loop_
_symmetry_equiv_pos_site_id
_symmetry_equiv_pos_as_xyz
  1	'x+.5, y+.5, -z+.5'
  2	'-x+.5, y+.5, z+.5'
  3	'x, -y, z'
  4	'-x, -y, -z'
  5	'-x+.5, -y+.5, z+.5'
  6	'x+.5, -y+.5, -z+.5'
  7	'-x, y, -z'
  8	'x, y, z'
loop_
_atom_type_symbol
_atom_type_oxidation_number
B3+	3
Mg2+	2
O2-	-2
loop_
_atom_site_label
_atom_site_type_symbol
_atom_site_symmetry_multiplicity
_atom_site_Wyckoff_symbol
_atom_site_fract_x
_atom_site_fract_y
_atom_site_fract_z
_atom_site_occupancy
_atom_site_attached_hydrogens
Mg1 Mg2+ 2 a 0 0 0 1. 0 
Mg2 Mg2+ 4 f 0 0.3128(2) 0.5 1. 0 
B1 B3+ 4 g 0.2546(9) 0 0.5453(12) 1. 0 
O1 O2- 4 g 0.3222(6) 0 0.2502(7) 1. 0 
O2 O2- 8 h 0.2045(4) 0.1387(3) 0.7029(5) 1. 0 

#End of data_31385-ICSD


