data_83526-ICSD
#?2014 by Fachinformationszentrum Karlsruhe, and the U.S. Secretary of 
#Commerce on behalf of the United States.  All rights reserved.
_database_code_ICSD                83526
_audit_creation_date               1998/06/26
_chemical_name_systematic          'Cadmium Dialuminium Tetrasulfide'
_chemical_formula_structural       'Cd Al2 S4'
_chemical_formula_sum              'Al2 Cd1 S4'
_publ_section_title
;
Growth and characterization of Cd Al2 S4 and Cd Al2 Se4 single 
crystals
;
loop_
_citation_id
_citation_journal_abbrev
_citation_year
_citation_journal_volume
_citation_journal_issue
_citation_page_first
_citation_page_last
_citation_journal_id_ASTM
primary 'Crystal Research and Technology' 1997 32 2 223 227 CRTEDF
_publ_author_name
;
Krauss, G.;Kraemer, V.;Eifler, A.;Riede, V.;Wenger, S.
;
_cell_length_a                     5.5528(1)
_cell_length_b                     5.5528(1)
_cell_length_c                     10.1081(2)
_cell_angle_alpha                  90.
_cell_angle_beta                   90.
_cell_angle_gamma                  90.
_cell_volume                       311.67
_cell_formula_units_Z              2
_symmetry_space_group_name_H-M     'I -4'
_symmetry_Int_Tables_number        82
_refine_ls_R_factor_all            .072
loop_
_symmetry_equiv_pos_site_id
_symmetry_equiv_pos_as_xyz
  1	'-y, x, -z'
  2	'y, -x, -z'
  3	'-x, -y, z'
  4	'x, y, z'
  5	'-y+.5, x+.5, -z+.5'
  6	'y+.5, -x+.5, -z+.5'
  7	'-x+.5, -y+.5, z+.5'
  8	'x+.5, y+.5, z+.5'
loop_
_atom_type_symbol
_atom_type_oxidation_number
Al3+	3
Cd2+	2
S2-	-2
loop_
_atom_site_label
_atom_site_type_symbol
_atom_site_symmetry_multiplicity
_atom_site_Wyckoff_symbol
_atom_site_fract_x
_atom_site_fract_y
_atom_site_fract_z
_atom_site_occupancy
_atom_site_attached_hydrogens
_atom_site_U_iso_or_equiv
Cd1 Cd2+ 2 a 0 0 0 1. 0 0.0194(5) 
Al1 Al3+ 2 b 0 0 0.5 1. 0 0.017(2) 
Al2 Al3+ 2 c 0 0.5 0.25 1. 0 0.022(2) 
S1 S2- 8 g 0.2610(9) 0.287(2) 0.1358(3) 1. 0 0.031(2) 

#End of data_83526-ICSD


