data_100831-ICSD
#?2014 by Fachinformationszentrum Karlsruhe, and the U.S. Secretary of 
#Commerce on behalf of the United States.  All rights reserved.
_database_code_ICSD                100831
_audit_creation_date               1981/12/31
_audit_update_record               2003/04/01
_chemical_name_systematic
;
Gadolinium Trialuminium Tetrakis(borate)
;
_chemical_formula_structural       'Gd Al3 (B O3)4'
_chemical_formula_sum              'Al3 B4 Gd1 O12'
_publ_section_title
;
Crystal structure and single-crystal spectra of Gd0.97 Eu0.03 Al3 (B 
O3)4
;
loop_
_citation_id
_citation_journal_abbrev
_citation_year
_citation_journal_volume
_citation_page_first
_citation_page_last
_citation_journal_id_ASTM
primary 'Journal of the Chemical Society. Faraday Transactions 2.'
 1981 77 2125 2140 JCFTBS
2 'Inorganic Chemistry' 1962 1 960 961 INOCAJ
3 'Phase Transition' 1992 38 127 220 PHTRDP
_publ_author_name                  'Kuroda, R.;Mason, S.F.;Rosini, C.'
_cell_length_a                     9.3014(7)
_cell_length_b                     9.3014(7)
_cell_length_c                     7.2571(7)
_cell_angle_alpha                  90.
_cell_angle_beta                   90.
_cell_angle_gamma                  120.
_cell_volume                       543.74
_cell_formula_units_Z              3
_symmetry_space_group_name_H-M     'R 3 2 H'
_symmetry_Int_Tables_number        155
_refine_ls_R_factor_all            .058
loop_
_symmetry_equiv_pos_site_id
_symmetry_equiv_pos_as_xyz
  1	'-x, -x+y, -z'
  2	'x-y, -y, -z'
  3	'y, x, -z'
  4	'-x+y, -x, z'
  5	'-y, x-y, z'
  6	'x, y, z'
  7	'-x+.6666, -x+y+.3333, -z+.3333'
  8	'-x+.3333, -x+y+.6666, -z+.6666'
  9	'x-y+.6666, -y+.3333, -z+.3333'
 10	'x-y+.3333, -y+.6666, -z+.6666'
 11	'y+.6666, x+.3333, -z+.3333'
 12	'y+.3333, x+.6666, -z+.6666'
 13	'-x+y+.6666, -x+.3333, z+.3333'
 14	'-x+y+.3333, -x+.6666, z+.6666'
 15	'-y+.6666, x-y+.3333, z+.3333'
 16	'-y+.3333, x-y+.6666, z+.6666'
 17	'x+.6666, y+.3333, z+.3333'
 18	'x+.3333, y+.6666, z+.6666'
loop_
_atom_type_symbol
_atom_type_oxidation_number
Al3+	3
B3+	3
Gd3+	3
O2-	-2
loop_
_atom_site_label
_atom_site_type_symbol
_atom_site_symmetry_multiplicity
_atom_site_Wyckoff_symbol
_atom_site_fract_x
_atom_site_fract_y
_atom_site_fract_z
_atom_site_occupancy
_atom_site_attached_hydrogens
_atom_site_U_iso_or_equiv
Gd1 Gd3+ 3 a 0 0 0 1. 0 0.0024(2) 
Al1 Al3+ 9 d 0.5559(5) 0 0 1. 0 0.0062(7) 
B1 B3+ 3 b 0 0 0.5 1. 0 0.006(2) 
B2 B3+ 9 e 0.4407(17) 0 0.5 1. 0 0.005(2) 
O1 O2- 9 e -.1495(11) 0 0.5 1. 0 0.007(1) 
O2 O2- 9 e 0.5915(15) 0 0.5 1. 0 0.010(2) 
O3 O2- 18 f 0.8508(9) 0.2994(9) 0.5236(10) 1. 0 0.007(1) 

#End of data_100831-ICSD


