data_71489-ICSD
#?2014 by Fachinformationszentrum Karlsruhe, and the U.S. Secretary of 
#Commerce on behalf of the United States.  All rights reserved.
_database_code_ICSD                71489
_audit_creation_date               1993/01/06
_chemical_name_systematic          'Dilithium Zirconium Tellurate'
_chemical_formula_structural       'Li2 Zr (Te O6)'
_chemical_formula_sum              'Li2 O6 Te1 Zr1'
_publ_section_title
;
Lithium defect and ordering phenomena in the new LiNbO3 like mixed 
tellurates: Li2-x(Zr(4+),Nb(5+),Te(6+))2 O6 (x<0.5)
;
loop_
_citation_id
_citation_journal_abbrev
_citation_year
_citation_journal_volume
_citation_page_first
_citation_page_last
_citation_journal_id_ASTM
primary 'Materials Chemistry and Physics' 1992 30 245 252 MCHPDR
_publ_author_name
;
Archaimbault, F.;Choisnet, J.;Rulmont, A.;Tarte, P.
;
_cell_length_a                     5.1732(25)
_cell_length_b                     5.1732(5)
_cell_length_c                     13.8508(7)
_cell_angle_alpha                  90.
_cell_angle_beta                   90.
_cell_angle_gamma                  120.
_cell_volume                       321.01
_cell_formula_units_Z              3
_symmetry_space_group_name_H-M     'R 3 H'
_symmetry_Int_Tables_number        146
_refine_ls_R_factor_all            .06
loop_
_symmetry_equiv_pos_site_id
_symmetry_equiv_pos_as_xyz
  1	'-x+y, -x, z'
  2	'-y, x-y, z'
  3	'x, y, z'
  4	'-x+y+.6666, -x+.3333, z+.3333'
  5	'-x+y+.3333, -x+.6666, z+.6666'
  6	'-y+.6666, x-y+.3333, z+.3333'
  7	'-y+.3333, x-y+.6666, z+.6666'
  8	'x+.6666, y+.3333, z+.3333'
  9	'x+.3333, y+.6666, z+.6666'
loop_
_atom_type_symbol
_atom_type_oxidation_number
Li1+	1
O2-	-2
Te6+	6
Zr4+	4
loop_
_atom_site_label
_atom_site_type_symbol
_atom_site_symmetry_multiplicity
_atom_site_Wyckoff_symbol
_atom_site_fract_x
_atom_site_fract_y
_atom_site_fract_z
_atom_site_occupancy
_atom_site_attached_hydrogens
_atom_site_B_iso_or_equiv
Li1 Li1+ 3 a 0 0 0.286(4) 1. 0 1. 
Li2 Li1+ 3 a 0 0 0.765(3) 1. 0 1. 
Zr1 Zr4+ 3 a 0 0 0.0002(6) 1. 0 0.44(7) 
Te1 Te6+ 3 a 0 0 0.4942(5) 1. 0 0.18(4) 
O1 O2- 9 b 0.056(4) 0.360(4) 0.071(1) 1. 0 2.4(2) 
O2 O2- 9 b 0.646(3) 0.960(4) 0.577(1) 1. 0 2.3(2) 

#End of data_71489-ICSD


