data_290374-ICSD
#?2014 by Fachinformationszentrum Karlsruhe, and the U.S. Secretary of 
#Commerce on behalf of the United States.  All rights reserved.
_database_code_ICSD                290374
_audit_creation_date               2014/02/01
_audit_update_record               2014/08/01
_chemical_name_systematic          'Silver Sulfate(VI)'
_chemical_formula_structural       'Ag (S O4)'
_chemical_formula_sum              'Ag1 O4 S1'
_publ_section_title
;
Redetermination of crystal structure of Ag(II) S O4 and its high-
pressure behavior up to 30 GPa
;
loop_
_citation_id
_citation_journal_abbrev
_citation_year
_citation_journal_volume
_citation_journal_issue
_citation_page_first
_citation_page_last
_citation_journal_id_ASTM
primary CrystEngComm 2013 15 1 192 198 CRECF4
_publ_author_name
;
Derzsi, Mariana;Budzianowski, Armand;Struzhkin, Viktor V.;Malinowski, 
Przemyslaw J.;Leszczynski, Piotr J.;Mazej, Zoran;Grochala, Wojciech
;
_cell_length_a                     12.955
_cell_length_b                     13.787
_cell_length_c                     9.480
_cell_angle_alpha                  90.09
_cell_angle_beta                   48.07
_cell_angle_gamma                  90.01
_cell_volume                       1259.69
_cell_formula_units_Z              16
_symmetry_space_group_name_H-M     'P -1'
_symmetry_Int_Tables_number        2
loop_
_symmetry_equiv_pos_site_id
_symmetry_equiv_pos_as_xyz
  1	'-x, -y, -z'
  2	'x, y, z'
loop_
_atom_type_symbol
_atom_type_oxidation_number
Ag2+	2
O2-	-2
S6+	6
loop_
_atom_site_label
_atom_site_type_symbol
_atom_site_symmetry_multiplicity
_atom_site_Wyckoff_symbol
_atom_site_fract_x
_atom_site_fract_y
_atom_site_fract_z
_atom_site_occupancy
_atom_site_attached_hydrogens
Ag1 Ag2+ 2 i 0.25 0.25 0.5 1. 0 
Ag2 Ag2+ 1 g 0 0.5 0.5 1. 0 
Ag3 Ag2+ 1 c 0 0.5 0 1. 0 
Ag4 Ag2+ 1 f 0.5 0 0.5 1. 0 
Ag5 Ag2+ 1 d 0.5 0 0 1. 0 
Ag6 Ag2+ 2 i 0.25 0.25 0 1. 0 
Ag7 Ag2+ 2 i 0.75 0.25 0 1. 0 
Ag8 Ag2+ 1 a 0 0 0 1. 0 
Ag9 Ag2+ 1 b 0 0 0.5 1. 0 
Ag10 Ag2+ 1 e 0.5 0.5 0 1. 0 
Ag11 Ag2+ 1 h 0.5 0.5 0.5 1. 0 
Ag12 Ag2+ 2 i 0.75 0.25 0.5 1. 0 
S1 S6+ 2 i 0.97135 0.26575 0.05706 1 0 
S2 S6+ 2 i 0.02835 0.26574 0.44370 1 0 
S3 S6+ 2 i 0.47135 0.76575 0.05706 1 0 
S4 S6+ 2 i 0.52835 0.76574 0.44370 1 0 
S5 S6+ 2 i 0.27255 0.52444 0.95711 1 0 
S6 S6+ 2 i 0.72814 0.52429 0.54149 1 0 
S7 S6+ 2 i 0.77255 0.02444 0.95711 1 0 
S8 S6+ 2 i 0.22814 0.02429 0.54149 1 0 
O1 O2- 2 i 0.90444 0.19680 0.21742 1 0 
O2 O2- 2 i 0.09545 0.19687 0.28281 1 0 
O3 O2- 2 i 0.40444 0.69680 0.21742 1 0 
O4 O2- 2 i 0.59545 0.69687 0.28281 1 0 
O5 O2- 2 i 0.91822 0.36402 0.14143 1 0 
O6 O2- 2 i 0.08184 0.36397 0.35919 1 0 
O7 O2- 2 i 0.41822 0.86402 0.14143 1 0 
O8 O2- 2 i 0.58184 0.86397 0.35919 1 0 
O9 O2- 2 i 0.94027 0.23948 0.93758 1 0 
O10 O2- 2 i 0.05963 0.23959 0.56283 1 0 
O11 O2- 2 i 0.44027 0.73948 0.93758 1 0 
O12 O2- 2 i 0.55963 0.73959 0.56283 1 0 
O13 O2- 2 i 0.12400 0.25826 0.92899 1 0 
O14 O2- 2 i 0.87576 0.25852 0.57171 1 0 
O15 O2- 2 i 0.62400 0.75826 0.92899 1 0 
O16 O2- 2 i 0.37576 0.75852 0.57171 1 0 
O17 O2- 2 i 0.34621 0.45904 0.98868 1 0 
O18 O2- 2 i 0.65491 0.45908 0.50873 1 0 
O19 O2- 2 i 0.84621 0.95904 0.98868 1 0 
O20 O2- 2 i 0.15491 0.95908 0.50873 1 0 
O21 O2- 2 i 0.20026 0.60329 0.10175 1 0 
O22 O2- 2 i 0.79970 0.60363 0.39844 1 0 
O23 O2- 2 i 0.70026 0.10329 0.10175 1 0 
O24 O2- 2 i 0.29970 0.10363 0.39844 1 0 
O25 O2- 2 i 0.17032 0.46161 0.97796 1 0 
O26 O2- 2 i 0.83168 0.46151 0.51801 1 0 
O27 O2- 2 i 0.67032 0.96161 0.97796 1 0 
O28 O2- 2 i 0.33168 0.96151 0.51801 1 0 
O29 O2- 2 i 0.36902 0.57201 0.76877 1 0 
O30 O2- 2 i 0.63168 0.57075 0.73064 1 0 
O31 O2- 2 i 0.86902 0.07201 0.76877 1 0 
O32 O2- 2 i 0.13168 0.07075 0.73064 1 0 

#End of data_290374-ICSD


