data_27924-ICSD
#?2014 by Fachinformationszentrum Karlsruhe, and the U.S. Secretary of 
#Commerce on behalf of the United States.  All rights reserved.
_database_code_ICSD                27924
_audit_creation_date               1980/01/01
_audit_update_record               2008/08/01
_chemical_name_systematic          'Potassium Dicyanocuprate(I)'
_chemical_formula_structural       'K (Cu (C N)2)'
_chemical_formula_sum              'C2 Cu1 K1 N2'
_publ_section_title
;
The crystal structure of K Cu (C N)2
;
loop_
_citation_id
_citation_journal_abbrev
_citation_year
_citation_journal_volume
_citation_page_first
_citation_page_last
_citation_journal_id_ASTM
primary 'Journal of Physical Chemistry' 1957 61 1388 1392 JPCHAX
_publ_author_name                  'Cromer, D.T.'
_cell_length_a                     7.57
_cell_length_b                     7.82
_cell_length_c                     7.45
_cell_angle_alpha                  90.
_cell_angle_beta                   102.2
_cell_angle_gamma                  90.
_cell_volume                       431.06
_cell_formula_units_Z              4
_symmetry_space_group_name_H-M     'P 1 21/c 1'
_symmetry_Int_Tables_number        14
_refine_ls_R_factor_all            .155
loop_
_symmetry_equiv_pos_site_id
_symmetry_equiv_pos_as_xyz
  1	'x, -y+.5, z+.5'
  2	'-x, -y, -z'
  3	'-x, y+.5, -z+.5'
  4	'x, y, z'
loop_
_atom_type_symbol
_atom_type_oxidation_number
C2+	2
Cu1+	1
K1+	1
N3-	-3
loop_
_atom_site_label
_atom_site_type_symbol
_atom_site_symmetry_multiplicity
_atom_site_Wyckoff_symbol
_atom_site_fract_x
_atom_site_fract_y
_atom_site_fract_z
_atom_site_occupancy
_atom_site_attached_hydrogens
_atom_site_B_iso_or_equiv
K1 K1+ 4 e 0.3075(8) 0.5701(8) 0.1882(8) 1. 0 2.42 
Cu1 Cu1+ 4 e 0.1219(4) 0.1181(5) 0.1072(5) 1. 0 2.29 
C1 C2+ 4 e 0.3351(30) 0.2005(33) 0.0346(33) 1. 0 1.78 
C2 C2+ 4 e 0.0634(36) 0.9178(40) 0.2396(39) 1. 0 2.79 
N1 N3- 4 e 0.4658(33) 0.2473(38) 0.0031(37) 1. 0 3.41 
N2 N3- 4 e 0.0337(29) 0.8156(32) 0.3334(31) 1. 0 2.61 

#End of data_27924-ICSD


