data_52356-ICSD
#?2014 by Fachinformationszentrum Karlsruhe, and the U.S. Secretary of 
#Commerce on behalf of the United States.  All rights reserved.
_database_code_ICSD                52356
_audit_creation_date               2003/04/01
_chemical_name_systematic          'Silver Sulfate(VI)'
_chemical_formula_structural       'Ag2 (S O4)'
_chemical_formula_sum              'Ag2 O4 S1'
_publ_section_title
;
Note on the crystal structure of silver sulphate, Ag2 S O4
;
loop_
_citation_id
_citation_journal_abbrev
_citation_year
_citation_journal_volume
_citation_page_first
_citation_page_last
_citation_journal_id_ASTM
primary
;
Zeitschrift fuer Kristallographie, Kristallgeometrie, Kristallphysik, 
Kristallchemie (-144,1977)
;
 1932 82 161 162 ZEKGAX
2
;
Zeitschrift fuer Kristallographie, Kristallgeometrie, Kristallphysik, 
Kristallchemie (-144,1977)
;
 1931 80 402 415 ZEKGAX
_publ_author_name                  'Zachariasen, W.H.'
_cell_length_a                     5.83
_cell_length_b                     12.68
_cell_length_c                     10.27
_cell_angle_alpha                  90.
_cell_angle_beta                   90.
_cell_angle_gamma                  90.
_cell_volume                       759.2
_cell_formula_units_Z              8
_symmetry_space_group_name_H-M     'F d d d Z'
_symmetry_Int_Tables_number        70
loop_
_symmetry_equiv_pos_site_id
_symmetry_equiv_pos_as_xyz
  1	'x+.75, y+.75, -z'
  2	'x+.75, -y, z+.75'
  3	'-x, y+.75, z+.75'
  4	'-x, -y, -z'
  5	'-x+.25, -y+.25, z'
  6	'-x+.25, y, -z+.25'
  7	'x, -y+.25, -z+.25'
  8	'x, y, z'
  9	'x+.75, y+.25, -z+.5'
 10	'x+.25, y+.75, -z+.5'
 11	'x+.25, y+.25, -z'
 12	'x+.75, -y+.5, z+.25'
 13	'x+.25, -y, z+.25'
 14	'x+.25, -y+.5, z+.75'
 15	'-x, y+.25, z+.25'
 16	'-x+.5, y+.75, z+.25'
 17	'-x+.5, y+.25, z+.75'
 18	'-x, -y+.5, -z+.5'
 19	'-x+.5, -y, -z+.5'
 20	'-x+.5, -y+.5, -z'
 21	'-x+.25, -y+.75, z+.5'
 22	'-x+.75, -y+.25, z+.5'
 23	'-x+.75, -y+.75, z'
 24	'-x+.25, y+.5, -z+.75'
 25	'-x+.75, y, -z+.75'
 26	'-x+.75, y+.5, -z+.25'
 27	'x, -y+.75, -z+.75'
 28	'x+.5, -y+.25, -z+.75'
 29	'x+.5, -y+.75, -z+.25'
 30	'x, y+.5, z+.5'
 31	'x+.5, y, z+.5'
 32	'x+.5, y+.5, z'
loop_
_atom_type_symbol
_atom_type_oxidation_number
Ag1+	1
O2-	-2
S6+	6
loop_
_atom_site_label
_atom_site_type_symbol
_atom_site_symmetry_multiplicity
_atom_site_Wyckoff_symbol
_atom_site_fract_x
_atom_site_fract_y
_atom_site_fract_z
_atom_site_occupancy
_atom_site_attached_hydrogens
Ag1 Ag1+ 16 g 0.125 0.125 0.450(3) 1. 0 
S1 S6+ 8 a 0.125 0.125 0.125 1. 0 
O1 O2- 32 h -.022 0.058 0.208 1. 0 

#End of data_52356-ICSD


