data_50447-ICSD
#?2014 by Fachinformationszentrum Karlsruhe, and the U.S. Secretary of 
#Commerce on behalf of the United States.  All rights reserved.
_database_code_ICSD                50447
_audit_creation_date               1999/11/30
_audit_update_record               2012/02/01
_chemical_name_systematic          'Zinc Hydroxide - Epsilon'
_chemical_formula_structural       'Zn (O H)2'
_chemical_formula_sum              'H2 O2 Zn1'
_publ_section_title
;
Kristallstrukturen und Wasserstoffbrueckenbindungen bei beta-Be (O 
H)2 und epsilon-Zn (O H)2
;
loop_
_citation_id
_citation_journal_abbrev
_citation_year
_citation_journal_volume
_citation_page_first
_citation_page_last
_citation_journal_id_ASTM
primary 'Zeitschrift fuer Anorganische und Allgemeine Chemie (1950) (DE)'
 1998 624 1130 1136 ZAACAB
_publ_author_name
;
Stahl, R.;Jung, C.;Lutz, H.D.;Kockelmann, W.;Jacobs, H.
;
_cell_length_a                     4.905(3)
_cell_length_b                     5.143(4)
_cell_length_c                     8.473(2)
_cell_angle_alpha                  90.
_cell_angle_beta                   90.
_cell_angle_gamma                  90.
_cell_volume                       213.74
_cell_formula_units_Z              4
_symmetry_space_group_name_H-M     'P 21 21 21'
_symmetry_Int_Tables_number        19
_refine_ls_R_factor_all            .025
loop_
_symmetry_equiv_pos_site_id
_symmetry_equiv_pos_as_xyz
  1	'-x, y+.5, -z+.5'
  2	'x+.5, -y+.5, -z'
  3	'-x+.5, -y, z+.5'
  4	'x, y, z'
loop_
_atom_type_symbol
_atom_type_oxidation_number
H1+	1
O2-	-2
Zn2+	2
loop_
_atom_site_label
_atom_site_type_symbol
_atom_site_symmetry_multiplicity
_atom_site_Wyckoff_symbol
_atom_site_fract_x
_atom_site_fract_y
_atom_site_fract_z
_atom_site_occupancy
_atom_site_attached_hydrogens
_atom_site_B_iso_or_equiv
Zn1 Zn2+ 4 a 0.07096(6) 0.64832(6) 0.62420(4) 1. 0 0 
O1 O2- 4 a 0.1155(4) 0.1256(4) 0.0795(2) 1. 0 0 
O2 O2- 4 a 0.1670(4) 0.3172(4) 0.7198(2) 1. 0 0 
H1 H1+ 4 a 0.501(9) 0.36(1) 0.857(6) 1. 0 1.0(7) 
H2 H1+ 4 a 0.28(1) 0.79(1) 0.170(6) 1. 0 1.0(7) 

loop_
_atom_site_aniso_label
_atom_site_aniso_type_symbol
_atom_site_aniso_U_11
_atom_site_aniso_U_22
_atom_site_aniso_U_33
_atom_site_aniso_U_12
_atom_site_aniso_U_13
_atom_site_aniso_U_23
Zn1 Zn2+ 0.01323(7) 0.01253(7) 0.01256(7) 0.0002(1) -.0003(1) 0.0005(1)
O1 O2- 0.0132(7) 0.0164(7) 0.0148(7) -.0018(6) -.0011(5) 0.0008(6)
O2 O2- 0.0179(7) 0.0118(7) 0.0149(7) 0.0025(6) 0.0035(6) 0.0016(6)
#End of data_50447-ICSD


