data_2055-ICSD
#?2014 by Fachinformationszentrum Karlsruhe, and the U.S. Secretary of 
#Commerce on behalf of the United States.  All rights reserved.
_database_code_ICSD                2055
_audit_creation_date               1980/01/01
_audit_update_record               2011/02/01
_chemical_name_systematic          'Sodium Calcium Hydrogensilicate'
_chemical_formula_structural       'Na Ca (H Si O4)'
_chemical_formula_sum              'H1 Ca1 Na1 O4 Si1'
_publ_section_title
;
Crystal structure of monoclinic Na Ca H Si O4
;
loop_
_citation_id
_citation_journal_abbrev
_citation_year
_citation_journal_volume
_citation_page_first
_citation_page_last
_citation_journal_id_ASTM
primary 'Acta Crystallographica B (24,1968-38,1982)' 1974 30 864 867 ACBCAR
2 Kristallografiya 1974 19 954 957 KRISAJ
_publ_author_name                  'Cooksley, B.G.;Taylor, H.F.W.'
_cell_length_a                     5.72
_cell_length_b                     7.06
_cell_length_c                     5.48
_cell_angle_alpha                  90.
_cell_angle_beta                   122.5
_cell_angle_gamma                  90.
_cell_volume                       186.64
_cell_formula_units_Z              2
_symmetry_space_group_name_H-M     'P 1 21 1'
_symmetry_Int_Tables_number        4
_refine_ls_R_factor_all            .122
loop_
_symmetry_equiv_pos_site_id
_symmetry_equiv_pos_as_xyz
  1	'-x, y+.5, -z'
  2	'x, y, z'
loop_
_atom_type_symbol
_atom_type_oxidation_number
Ca2+	2
H1+	1
Na1+	1
O2-	-2
Si4+	4
loop_
_atom_site_label
_atom_site_type_symbol
_atom_site_symmetry_multiplicity
_atom_site_Wyckoff_symbol
_atom_site_fract_x
_atom_site_fract_y
_atom_site_fract_z
_atom_site_occupancy
_atom_site_attached_hydrogens
_atom_site_B_iso_or_equiv
Ca1 Ca2+ 2 a -.013(1) 0 -.007(2) 1. 0 0.86 
Na1 Na1+ 2 a 0.640(2) 0.271(3) 0.379(2) 1. 0 2.2 
Si1 Si4+ 2 a 0.340(1) 0.259(2) 0.714(1) 1. 0 0.9 
O1 O2- 2 a 0.670(2) 0.261(5) 0.870(2) 1. 0 1.5 
O2 O2- 2 a 0.233(3) 0.264(5) 0.934(2) 1. 0 1.4 
O3 O2- 2 a 0.214(3) 0.073(3) 0.501(3) 1. 0 1.6 
O4 O2- 2 a 0.206(3) 0.454(3) 0.505(3) 1. 0 1.4 
H1 H1+ 2 a 0.039 0.501 0.501 1. 0 4. 

#End of data_2055-ICSD


