data_26970-ICSD
#?2014 by Fachinformationszentrum Karlsruhe, and the U.S. Secretary of 
#Commerce on behalf of the United States.  All rights reserved.
_database_code_ICSD                26970
_audit_creation_date               1980/01/01
_audit_update_record               2012/02/01
_chemical_name_systematic          'Dimagnesium Phosphate(V) Fluoride'
_chemical_formula_structural       'Mg2 (P O4) F'
_chemical_formula_sum              'F1 Mg2 O4 P1'
_chemical_name_mineral             Wagnerite
_publ_section_title
;
The crystal structure of wagnerite.
;
loop_
_citation_id
_citation_journal_abbrev
_citation_year
_citation_journal_volume
_citation_page_first
_citation_page_last
_citation_journal_id_ASTM
primary
;
Atti della Accademia Nazionale dei Lincei, Classe di Scienze Fisiche, 
Matematiche e Naturali, Rendiconti, Serie 8 (1, 1946-)
;
 1967 43 212 224 AANL8V
_publ_author_name
;
Coda, A.;Giuseppetti, G.;Tadini, C.;Carobbi, S.G.
;
_cell_length_a                     9.644(7)
_cell_length_b                     12.679(8)
_cell_length_c                     11.957(8)
_cell_angle_alpha                  90.
_cell_angle_beta                   108.30(15)
_cell_angle_gamma                  90.
_cell_volume                       1388.11
_cell_formula_units_Z              16
_symmetry_space_group_name_H-M     'P 1 21/c 1'
_symmetry_Int_Tables_number        14
_refine_ls_R_factor_all            .064
loop_
_symmetry_equiv_pos_site_id
_symmetry_equiv_pos_as_xyz
  1	'x, -y+.5, z+.5'
  2	'-x, -y, -z'
  3	'-x, y+.5, -z+.5'
  4	'x, y, z'
loop_
_atom_type_symbol
_atom_type_oxidation_number
F1-	-1
Mg2+	2
O2-	-2
P5+	5
loop_
_atom_site_label
_atom_site_type_symbol
_atom_site_symmetry_multiplicity
_atom_site_Wyckoff_symbol
_atom_site_fract_x
_atom_site_fract_y
_atom_site_fract_z
_atom_site_occupancy
_atom_site_attached_hydrogens
_atom_site_B_iso_or_equiv
Mg1 Mg2+ 4 e 0.5519(3) 0.0708(4) 0.9131(2) 1. 0 0.71(5) 
Mg2 Mg2+ 4 e 0.4661(3) 0.0697(4) 0.6003(2) 1. 0 0.73(5) 
Mg3 Mg2+ 4 e 0.0458(3) 0.1820(3) 0.9195(2) 1. 0 0.47(5) 
Mg4 Mg2+ 4 e 0.9648(3) 0.1782(4) 0.6071(2) 1. 0 0.43(5) 
Mg5 Mg2+ 4 e 0.1907(3) 0.0193(3) 0.1900(2) 1. 0 0.35(4) 
Mg6 Mg2+ 4 e 0.7896(3) 0.0040(3) 0.3071(2) 1. 0 0.28(4) 
Mg7 Mg2+ 4 e 0.3066(3) 0.2316(3) 0.3134(2) 1. 0 0.54(5) 
Mg8 Mg2+ 4 e 0.7069(3) 0.2457(3) 0.1947(2) 1. 0 0.36(4) 
P1 P5+ 4 e 0.1165(2) 0.0764(3) 0.4257(2) 1. 0 0.36(3) 
P2 P5+ 4 e 0.8787(2) 0.0716(3) 0.0760(2) 1. 0 0.34(3) 
P3 P5+ 4 e 0.3836(2) 0.1753(3) 0.0752(2) 1. 0 0.35(4) 
P4 P5+ 4 e 0.6200(2) 0.1781(3) 0.4235(2) 1. 0 0.36(4) 
O1 O2- 4 e 0.1766(6) 0.1114(6) 0.3258(5) 1. 0 0.65(10) 
O2 O2- 4 e 0.7981(6) 0.0943(6) 0.1646(5) 1. 0 0.63(9) 
O3 O2- 4 e 0.3160(6) 0.1430(7) 0.1708(5) 1. 0 0.9(1) 
O4 O2- 4 e 0.6921(6) 0.1501(7) 0.3296(5) 1. 0 0.97(10) 
O5 O2- 4 e 0.2436(6) 0.0469(6) 0.5355(5) 1. 0 0.68(9) 
O6 O2- 4 e 0.7674(6) 0.0539(6) 0.9529(5) 1. 0 0.74(9) 
O7 O2- 4 e 0.2635(6) 0.2030(6) 0.9601(5) 1. 0 0.68(10) 
O8 O2- 4 e 0.7387(6) 0.2032(6) 0.5398(5) 1. 0 0.67(10) 
O9 O2- 4 e 0.9858(6) 0.0180(7) 0.6208(5) 1. 0 0.92(10) 
O10 O2- 4 e 0.0227(6) 0.0272(7) 0.8844(5) 1. 0 0.66(10) 
O11 O2- 4 e 0.4843(6) 0.2291(7) 0.6180(5) 1. 0 0.76(10) 
O12 O2- 4 e 0.5190(6) 0.2252(7) 0.8817(5) 1. 0 0.82(10) 
O13 O2- 4 e 0.4731(6) 0.0836(8) 0.0511(5) 1. 0 0.98(10) 
O14 O2- 4 e 0.5190(6) 0.0877(8) 0.4393(5) 1. 0 1.01(10) 
O15 O2- 4 e 0.0265(6) 0.1659(7) 0.4561(5) 1. 0 0.65(10) 
O16 O2- 4 e 0.9831(6) 0.1611(8) 0.0688(5) 1. 0 0.85(10) 
F1 F1- 4 e 0.4171(5) 0.0475(5) 0.7548(4) 1. 0 1.16(8) 
F2 F1- 4 e 0.6706(5) 0.0828(5) 0.7146(4) 1. 0 1.17(8) 
F3 F1- 4 e 0.1724(5) 0.1625(5) 0.7200(4) 1. 0 1.22(8) 
F4 F1- 4 e 0.9139(5) 0.2044(5) 0.7598(4) 1. 0 1.18(8) 

#End of data_26970-ICSD


