data_423680-ICSD
#?2014 by Fachinformationszentrum Karlsruhe, and the U.S. Secretary of 
#Commerce on behalf of the United States.  All rights reserved.
_database_code_ICSD                423680
_audit_creation_date               2012/08/01
_audit_update_record               2014/08/01
_chemical_name_systematic
;
Potassium Uranyl(VI) Chromate(VI) Nitrate(V)
;
_chemical_formula_structural       'K ((U O2) (Cr O4) (N O3))'
_chemical_formula_sum              'Cr1 K1 N1 O9 U1'
_publ_section_title
;
Highly kinked uranyl chromate nitrate layers in the crystal 
structures of A [(U O2) (Cr O4) (N O3)] (A = K, Rb)
;
loop_
_citation_id
_citation_journal_abbrev
_citation_year
_citation_journal_volume
_citation_journal_issue
_citation_page_first
_citation_page_last
_citation_journal_id_ASTM
primary 'Zeitschrift fuer Anorganische und Allgemeine Chemie (1950) (DE)'
 2012 638 6 982 986 ZAACAB
_publ_author_name
;
Siidra, O.I.;Nazarchuk, E.V.;Krivovichev, S.V.
;
_cell_length_a                     9.881(5)
_cell_length_b                     7.215(4)
_cell_length_c                     14.226(6)
_cell_angle_alpha                  90.00
_cell_angle_beta                   124.85(3)
_cell_angle_gamma                  90.00
_cell_volume                       832.3
_cell_formula_units_Z              4
_symmetry_space_group_name_H-M     'P 1 21/c 1'
_symmetry_Int_Tables_number        14
_refine_ls_R_factor_all            .0226
loop_
_symmetry_equiv_pos_site_id
_symmetry_equiv_pos_as_xyz
  1	'x, -y+.5, z+.5'
  2	'-x, -y, -z'
  3	'-x, y+.5, -z+.5'
  4	'x, y, z'
loop_
_atom_type_symbol
_atom_type_oxidation_number
Cr6+	6
K1+	1
N5+	5
O2-	-2
U6+	6
loop_
_atom_site_label
_atom_site_type_symbol
_atom_site_symmetry_multiplicity
_atom_site_Wyckoff_symbol
_atom_site_fract_x
_atom_site_fract_y
_atom_site_fract_z
_atom_site_occupancy
_atom_site_attached_hydrogens
_atom_site_U_iso_or_equiv
U1 U6+ 4 e -0.315374(13 -0.303535(14 -0.539131(8) 1 0 0.01541(3) 
Cr1 Cr6+ 4 e -0.36688(7) -0.42842(7) -0.81504(4) 1 0 0.01953(10) 
O1 O2- 4 e -0.5051(3) -0.4224(3) -0.6113(2) 1 0 0.0290(5) 
O2 O2- 4 e -0.3268(4) -0.3018(3) -0.7038(2) 1 0 0.0310(6) 
O3 O2- 4 e -0.4458(3) -0.0215(4) -0.6196(2) 1 0 0.0327(6) 
O4 O2- 4 e -0.1240(3) -0.1854(3) -0.4723(2) 1 0 0.0300(5) 
O5 O2- 4 e -0.3556(4) -0.2058(4) -0.4038(2) 1 0 0.0377(7) 
O6 O2- 4 e -0.1734(3) -0.5350(4) -0.3811(2) 1 0 0.0365(6) 
O7 O2- 4 e -0.1809(4) -0.6043(4) -0.5309(3) 1 0 0.0398(7) 
O8 O2- 4 e -0.2359(4) -0.5881(4) -0.7708(3) 1 0 0.0411(7) 
O9 O2- 4 e -0.0498(5) -0.7837(5) -0.3822(4) 1 0 0.0628(11) 
N1 N5+ 4 e -0.1317(4) -0.6470(5) -0.4296(3) 1 0 0.0358(7) 
K1 K1+ 4 e 0.18574(10) -0.05883(11) -0.31704(7) 1 0 0.03481(18) 

loop_
_atom_site_aniso_label
_atom_site_aniso_type_symbol
_atom_site_aniso_U_11
_atom_site_aniso_U_22
_atom_site_aniso_U_33
_atom_site_aniso_U_12
_atom_site_aniso_U_13
_atom_site_aniso_U_23
U1 U6+ 0.01642(5) 0.01723(5) 0.01347(5) 0.00028(4) 0.00906(4) -0.00157(4)
Cr1 Cr6+ 0.0304(3) 0.0164(2) 0.0179(2) -0.00383(19) 0.0174(2) -0.00254(17)
O1 O2- 0.0219(11) 0.0312(13) 0.0303(12) -0.0063(10) 0.0128(10) 0.0007(10)
O2 O2- 0.0472(16) 0.0321(14) 0.0222(11) -0.0095(12) 0.0249(12) -0.0070(10)
O3 O2- 0.0361(13) 0.0276(13) 0.0364(13) 0.0107(11) 0.0218(12) 0.0114(11)
O4 O2- 0.0218(11) 0.0350(14) 0.0279(12) -0.0086(10) 0.0111(10) -0.0087(11)
O5 O2- 0.064(2) 0.0346(15) 0.0331(13) 0.0066(13) 0.0390(15) 0.0000(11)
O6 O2- 0.0428(15) 0.0367(15) 0.0337(14) 0.0148(12) 0.0240(13) 0.0116(11)
O7 O2- 0.0543(18) 0.0331(15) 0.0463(16) 0.0140(14) 0.0371(15) 0.0063(13)
O8 O2- 0.0435(16) 0.0310(15) 0.0485(17) 0.0098(13) 0.0261(14) 0.0050(13)
O9 O2- 0.064(2) 0.0410(19) 0.099(3) 0.0320(17) 0.056(2) 0.0358(19)
N1 N5+ 0.0354(17) 0.0263(15) 0.053(2) 0.0088(13) 0.0296(17) 0.0124(14)
K1 K1+ 0.0250(3) 0.0306(4) 0.0323(4) -0.0025(3) 0.0066(3) 0.0066(3)
#End of data_423680-ICSD


