data_18300-ICSD
#?2014 by Fachinformationszentrum Karlsruhe, and the U.S. Secretary of 
#Commerce on behalf of the United States.  All rights reserved.
_database_code_ICSD                18300
_audit_creation_date               1980/01/01
_audit_update_record               2012/08/01
_chemical_name_systematic          'Silver 31-oxodecamolybdate'
_chemical_formula_structural       'Ag6 Mo10 O33'
_chemical_formula_sum              'Ag6 Mo10 O33'
_publ_section_title
;
The crystal structure of Ag6 Mo10 O33
;
loop_
_citation_id
_citation_journal_abbrev
_citation_year
_citation_journal_volume
_citation_page_first
_citation_page_last
_citation_journal_id_ASTM
primary 'Journal of Solid State Chemistry' 1970 1 484 496 JSSCBI
2 'Chemical Communications (1965 - 1969)' 1969 1969 1093 1094 CCOMA8
_publ_author_name                  'Gatehouse, B.M.;Leverett, P.'
_cell_length_a                     7.59(2)
_cell_length_b                     8.31(2)
_cell_length_c                     11.42(2)
_cell_angle_alpha                  82.6(2)
_cell_angle_beta                   102.9(2)
_cell_angle_gamma                  106.4(2)
_cell_volume                       671.88
_cell_formula_units_Z              1
_symmetry_space_group_name_H-M     'P -1'
_symmetry_Int_Tables_number        2
_refine_ls_R_factor_all            .076
loop_
_symmetry_equiv_pos_site_id
_symmetry_equiv_pos_as_xyz
  1	'-x, -y, -z'
  2	'x, y, z'
loop_
_atom_type_symbol
_atom_type_oxidation_number
Ag1+	1
Mo6+	6
O2-	-2
loop_
_atom_site_label
_atom_site_type_symbol
_atom_site_symmetry_multiplicity
_atom_site_Wyckoff_symbol
_atom_site_fract_x
_atom_site_fract_y
_atom_site_fract_z
_atom_site_occupancy
_atom_site_attached_hydrogens
_atom_site_B_iso_or_equiv
Ag1 Ag1+ 2 i 0.6519(5) 0.0065(4) 0.2515(3) 1. 0 0 
Ag2 Ag1+ 2 i 0.8398(6) 0.4832(4) 0.2075(3) 1. 0 0 
Ag3 Ag1+ 2 i 0.4438(8) 0.5227(5) 0.2388(3) 1. 0 0 
Mo1 Mo6+ 2 i 0.5691(5) 0.2249(3) 0.4887(3) 1. 0 0.17 
Mo2 Mo6+ 2 i 0.0731(5) 0.2334(3) 0.4909(3) 1. 0 0.16 
Mo3 Mo6+ 2 i 0.1404(5) 0.8005(3) 0.0282(3) 1. 0 0.18 
Mo4 Mo6+ 2 i 0.3011(5) 0.2048(3) 0.0144(3) 1. 0 0.17 
Mo5 Mo6+ 2 i 0.1823(5) 0.9993(3) 0.3179(3) 1. 0 0.16 
O1 O2- 1 a 0 0 0 1. 0 1.19 
O2 O2- 2 i 0.8794(40) 0.6701(28) 0.02115(21) 1. 0 0.19 
O3 O2- 2 i 0.3466(41) 0.9952(29) 0.0790(22) 1. 0 0.36 
O4 O2- 2 i 0.4921(43) 0.3519(31) 0.0847(24) 1. 0 0.57 
O5 O2- 2 i 0.2423(40) 0.6484(28) 0.1080(22) 1. 0 0.26 
O6 O2- 2 i 0.8310(47) 0.2029(35) 0.1161(26) 1. 0 1.26 
O7 O2- 2 i 0.6694(41) 0.7948(28) 0.1334(22) 1. 0 0.21 
O8 O2- 2 i 0.2178(41) 0.1738(29) 0.2130(22) 1. 0 0.3 
O9 O2- 2 i 0.0940(41) 0.8312(28) 0.2262(22) 1. 0 0.26 
O10 O2- 2 i 0.5999(44) 0.3322(31) 0.3516(23) 1. 0 0.77 
O11 O2- 2 i 0.0427(47) 0.3725(35) 0.3709(26) 1. 0 1.3 
O12 O2- 2 i 0.9688(41) 0.0067(29) 0.3762(22) 1. 0 0.26 
O13 O2- 2 i 0.4436(41) 0.9884(29) 0.3820(22) 1. 0 0.31 
O14 O2- 2 i 0.8143(41) 0.6537(28) 0.3888(22) 1. 0 0.22 
O15 O2- 2 i 0.3864(42) 0.6202(29) 0.4129(22) 1. 0 0.42 
O16 O2- 2 i 0.2982(42) 0.1742(30) 0.4625(22) 1. 0 0.44 
O17 O2- 2 i 0.1792(42) 0.8214(30) 0.4821(22) 1. 0 0.37 

#End of data_18300-ICSD


