data_71510-ICSD
#?2014 by Fachinformationszentrum Karlsruhe, and the U.S. Secretary of 
#Commerce on behalf of the United States.  All rights reserved.
_database_code_ICSD                71510
_audit_creation_date               1993/01/06
_audit_update_record               2003/10/01
_chemical_name_systematic          'Dirubidium Tetrachlorozincate'
_chemical_formula_structural       'Rb2 (Zn Cl4)'
_chemical_formula_sum              'Cl4 Rb2 Zn1'
_publ_section_title
;
Simulations of phase transitions in Rb2ZnCl4
;
loop_
_citation_id
_citation_journal_abbrev
_citation_year
_citation_journal_volume
_citation_journal_issue
_citation_page_first
_citation_page_last
_citation_journal_id_ASTM
primary 'Physical Review, Serie 3. B - Condensed Matter (18,1978-)'
 1992 45 14 7609 7620 PRBMDO
2 'Phase Transition' 1992 38- 127 220 PHTRDP
_publ_author_name                  'Lu, H.M.;Hardy, J.R.'
_cell_length_a                     8.808
_cell_length_b                     12.492
_cell_length_c                     7.097
_cell_angle_alpha                  90.
_cell_angle_beta                   90.
_cell_angle_gamma                  90.
_cell_volume                       780.88
_cell_formula_units_Z              4
_symmetry_space_group_name_H-M     'P n a m'
_symmetry_Int_Tables_number        62
loop_
_symmetry_equiv_pos_site_id
_symmetry_equiv_pos_as_xyz
  1	'x+.5, -y+.5, z'
  2	'x, y, -z+.5'
  3	'-x+.5, y+.5, z+.5'
  4	'-x, -y, -z'
  5	'-x+.5, y+.5, -z'
  6	'-x, -y, z+.5'
  7	'x+.5, -y+.5, -z+.5'
  8	'x, y, z'
loop_
_atom_type_symbol
_atom_type_oxidation_number
Cl1-	-1
Rb1+	1
Zn2+	2
loop_
_atom_site_label
_atom_site_type_symbol
_atom_site_symmetry_multiplicity
_atom_site_Wyckoff_symbol
_atom_site_fract_x
_atom_site_fract_y
_atom_site_fract_z
_atom_site_occupancy
_atom_site_attached_hydrogens
Zn1 Zn2+ 4 c 0.212 0.4263 0.25 1. 0 
Rb1 Rb1+ 4 c 0.1189 0.0701 0.25 1. 0 
Rb2 Rb1+ 4 c 0.9859 0.6893 0.25 1. 0 
Cl1 Cl1- 8 d 0.3173 0.3464 -.0017 1. 0 
Cl2 Cl1- 4 c 0.319 0.5909 0.25 1. 0 
Cl3 Cl1- 4 c -.0406 0.4319 0.25 1. 0 

#End of data_71510-ICSD


