data_402926-ICSD
#?2014 by Fachinformationszentrum Karlsruhe, and the U.S. Secretary of 
#Commerce on behalf of the United States.  All rights reserved.
_database_code_ICSD                402926
_audit_creation_date               1997/05/13
_chemical_name_systematic          'Barium Tetrafluorozincate'
_chemical_formula_structural       'Ba (Zn F4)'
_chemical_formula_sum              'Ba1 F4 Zn1'
_publ_section_title
;
Crystal structures of barium zincate fluoride, Ba Zn F4 at 295 and 
113 K
;
loop_
_citation_id
_citation_journal_abbrev
_citation_year
_citation_journal_volume
_citation_page_first
_citation_page_last
_citation_journal_id_ASTM
primary 'Zeitschrift fuer Kristallographie (1979-2010)' 1996 211 934 935 ZEKRDZ
_publ_author_name
;
Lapasset, J.;Bordallo, H.N.;Almairac, R.;Nouet, J.
;
_cell_length_a                     4.1843(12)
_cell_length_b                     14.496(4)
_cell_length_c                     5.8253(15)
_cell_angle_alpha                  90.
_cell_angle_beta                   90.
_cell_angle_gamma                  90.
_cell_volume                       353.34
_cell_formula_units_Z              4
_symmetry_space_group_name_H-M     'C m c 21'
_symmetry_Int_Tables_number        36
_refine_ls_R_factor_all            .0252
loop_
_symmetry_equiv_pos_site_id
_symmetry_equiv_pos_as_xyz
  1	'x, -y, z+.5'
  2	'-x, -y, z+.5'
  3	'-x, y, z'
  4	'x, y, z'
  5	'x+.5, -y+.5, z+.5'
  6	'-x+.5, -y+.5, z+.5'
  7	'-x+.5, y+.5, z'
  8	'x+.5, y+.5, z'
loop_
_atom_type_symbol
_atom_type_oxidation_number
Ba2+	2
F1-	-1
Zn2+	2
loop_
_atom_site_label
_atom_site_type_symbol
_atom_site_symmetry_multiplicity
_atom_site_Wyckoff_symbol
_atom_site_fract_x
_atom_site_fract_y
_atom_site_fract_z
_atom_site_occupancy
_atom_site_attached_hydrogens
Ba1 Ba2+ 4 a 0.5 0.35232(2) 0.46138(11) 1. 0 
Zn1 Zn2+ 4 a 0 0.41301(4) 0 1. 0 
F1 F1- 4 a 0 0.3020(3) 0.1997(7) 1. 0 
F2 F1- 4 a 0 0.3331(3) -.2708(7) 1. 0 
F3 F1- 4 a 0 0.4709(2) 0.3256(7) 1. 0 
F4 F1- 4 a 0.5 0.4225(3) 0.0126(8) 1. 0 

loop_
_atom_site_aniso_label
_atom_site_aniso_type_symbol
_atom_site_aniso_U_11
_atom_site_aniso_U_22
_atom_site_aniso_U_33
_atom_site_aniso_U_12
_atom_site_aniso_U_13
_atom_site_aniso_U_23
Ba1 Ba2+ 0.00257(7) 0.00830(8) 0.00660(8) 0 0 0.00306(8)
Zn1 Zn2+ 0.0035(2) 0.00402(15) 0.0039(2) 0 0 0.00019(12)
F1 F1- 0.0095(12) 0.0052(10) 0.0068(11) 0 0 0.0004(8)
F2 F1- 0.0074(11) 0.0085(11) 0.0055(10) 0 0 -.0002(9)
F3 F1- 0.0102(12) 0.0046(10) 0.0092(11) 0 0 -.0024(9)
F4 F1- 0.0048(10) 0.0161(14) 0.0126(13) 0 0 0.0041(12)
#End of data_402926-ICSD


