data_63182-ICSD
#?2014 by Fachinformationszentrum Karlsruhe, and the U.S. Secretary of 
#Commerce on behalf of the United States.  All rights reserved.
_database_code_ICSD                63182
_audit_creation_date               1989/12/04
_audit_update_record               2006/04/01
_chemical_name_systematic          'Lithium Cesium Sulfate(VI)'
_chemical_formula_structural       'Li Cs (S O4)'
_chemical_formula_sum              'Cs1 Li1 O4 S1'
_publ_section_title
;
X-ray study of Li Cs S O4 in connection with its ferroelastic phase 
transition
;
loop_
_citation_id
_citation_journal_abbrev
_citation_year
_citation_journal_volume
_citation_page_first
_citation_page_last
_citation_journal_id_ASTM
primary 'Journal of the Physical Society of Japan' 1988 57 4184 4190 JUPSAU
2 'Golden Book of Phase Transitions, Wroclaw' 2002 1 1 123 GBOPT5
_publ_author_name                  'Asahi, T.;Hasebe, K.'
_cell_length_a                     5.430(2)
_cell_length_b                     9.415(3)
_cell_length_c                     8.787(3)
_cell_angle_alpha                  90.
_cell_angle_beta                   90.
_cell_angle_gamma                  90.20(2)
_cell_volume                       449.22
_cell_formula_units_Z              4
_symmetry_space_group_name_H-M     'P 1 1 21/n'
_symmetry_Int_Tables_number        14
_refine_ls_R_factor_all            .058
loop_
_symmetry_equiv_pos_site_id
_symmetry_equiv_pos_as_xyz
  1	'x+.5, y+.5, -z+.5'
  2	'-x, -y, -z'
  3	'-x+.5, -y+.5, z+.5'
  4	'x, y, z'
loop_
_atom_type_symbol
_atom_type_oxidation_number
Cs1+	1
Li1+	1
O2-	-2
S6+	6
loop_
_atom_site_label
_atom_site_type_symbol
_atom_site_symmetry_multiplicity
_atom_site_Wyckoff_symbol
_atom_site_fract_x
_atom_site_fract_y
_atom_site_fract_z
_atom_site_occupancy
_atom_site_attached_hydrogens
_atom_site_U_iso_or_equiv
Cs1 Cs1+ 4 e 0.7550(1) 0.2174(1) 0.4986(1) 1. 0 0 
S1 S6+ 4 e 0.2491(7) 0.0823(1) 0.2046(1) 1. 0 0 
O1 O2- 4 e 0.2455(24) 0.0841(9) 0.0399(5) 1. 0 0 
O2 O2- 4 e 0.2059(14) 0.2247(7) 0.2615(9) 1. 0 0 
O3 O2- 4 e 0.0514(13) -.0107(9) 0.2606(8) 1. 0 0 
O4 O2- 4 e 0.4848(14) 0.030(1) 0.2619(9) 1. 0 0 
Li1 Li1+ 4 e 0.2271(48) 0.4137(20) 0.334(2) 1. 0 0.0252(36) 

loop_
_atom_site_aniso_label
_atom_site_aniso_type_symbol
_atom_site_aniso_U_11
_atom_site_aniso_U_22
_atom_site_aniso_U_33
_atom_site_aniso_U_12
_atom_site_aniso_U_13
_atom_site_aniso_U_23
Cs1 Cs1+ 0.0136(1) 0.0137(1) 0.0120(1) -.0006(1) 0.0003(2) 0.0002(4)
S1 S6+ 0.0060(4) 0.0070(4) 0.0073(4) 0.0004(6) 0.0012(6) -.0005(3)
O1 O2- 0.0190(11) 0.0400(32) 0.0051(13) 0.0042(30) -.0009(20) 0.0027(9)
O2 O2- 0.0311(14) 0.0122(23) 0.0355(37) 0.0037(12) 0.0006(14) -.0041
O3 O2- 0.0191(26) 0.0245(31) 0.0176(27) -.0036(13) -.0061(10) 0.0042
O4 O2- 0.0167(26) 0.0323(37) 0.021(3) 0.0072(13) -.0053(11) 0.0006(14)
#End of data_63182-ICSD


