data_403035-ICSD
#?2014 by Fachinformationszentrum Karlsruhe, and the U.S. Secretary of 
#Commerce on behalf of the United States.  All rights reserved.
_database_code_ICSD                403035
_audit_creation_date               1997/11/10
_audit_update_record               2003/04/01
_chemical_name_systematic          'Dilithium Chromium(II) Chloride'
_chemical_formula_structural       'Li2 Cr Cl4'
_chemical_formula_sum              'Cl4 Cr1 Li2'
_publ_section_title
;
Neutron powder diffraction on monoclinic 
dilithiumchromium(II)chloride
;
loop_
_citation_id
_citation_journal_abbrev
_citation_year
_citation_journal_volume
_citation_page_first
_citation_page_last
_citation_journal_id_ASTM
primary 'Zeitschrift fuer Kristallographie (1979-2010)' 1996 211 8 12 ZEKRDZ
2 'Phase Transition' 1992 38 127 220 PHTRDP
_publ_author_name
;
Lutz, H.D.;Wickel, C.;Schneider, M.
;
_cell_length_a                     7.430(1)
_cell_length_b                     10.142(2)
_cell_length_c                     3.7760(7)
_cell_angle_alpha                  90.
_cell_angle_beta                   94.89(1)
_cell_angle_gamma                  90.
_cell_volume                       283.51
_cell_formula_units_Z              2
_symmetry_space_group_name_H-M     'C 1 2/m 1'
_symmetry_Int_Tables_number        12
_refine_ls_R_factor_all            .024
loop_
_symmetry_equiv_pos_site_id
_symmetry_equiv_pos_as_xyz
  1	'-x, y, -z'
  2	'-x, -y, -z'
  3	'x, -y, z'
  4	'x, y, z'
  5	'-x+.5, y+.5, -z'
  6	'-x+.5, -y+.5, -z'
  7	'x+.5, -y+.5, z'
  8	'x+.5, y+.5, z'
loop_
_atom_type_symbol
_atom_type_oxidation_number
Cl1-	-1
Cr2+	2
Li1+	1
loop_
_atom_site_label
_atom_site_type_symbol
_atom_site_symmetry_multiplicity
_atom_site_Wyckoff_symbol
_atom_site_fract_x
_atom_site_fract_y
_atom_site_fract_z
_atom_site_occupancy
_atom_site_attached_hydrogens
_atom_site_U_iso_or_equiv
Li1 Li1+ 4 f 0.25 0.25 0.5 1. 0 0.15(2) 
Cr1 Cr2+ 2 a 0 0 0 1. 0 0.024(7) 
Cl1 Cl1- 4 i 0.242(2) 0 0.475(4) 1. 0 0.026(4) 
Cl2 Cl1- 4 g 0 0.234(2) 0 1. 0 0.036(4) 

#End of data_403035-ICSD


