data_30803-ICSD
#?2014 by Fachinformationszentrum Karlsruhe, and the U.S. Secretary of 
#Commerce on behalf of the United States.  All rights reserved.
_database_code_ICSD                30803
_audit_creation_date               1984/11/06
_audit_update_record               2012/08/01
_chemical_name_systematic          'Zinc Bromide'
_chemical_formula_structural       'Zn Br2'
_chemical_formula_sum              'Br2 Zn1'
_publ_section_title
;
Crystal structure of anhydrous zinc bromide
;
loop_
_citation_id
_citation_journal_abbrev
_citation_year
_citation_journal_volume
_citation_page_first
_citation_page_last
_citation_journal_id_ASTM
primary 'Zeitschrift fuer Kristallographie (1979-2010)' 1984 166 189 197 ZEKRDZ
2 'Helvetica Chimica Acta' 1960 43 77 80 HCACAV
_publ_author_name                  'Chieh, C.;White, M.A.'
_cell_length_a                     11.389(4)
_cell_length_b                     11.389(4)
_cell_length_c                     21.773(9)
_cell_angle_alpha                  90.
_cell_angle_beta                   90.
_cell_angle_gamma                  90.
_cell_volume                       2824.16
_cell_formula_units_Z              32
_symmetry_space_group_name_H-M     'I 41/a c d S'
_symmetry_Int_Tables_number        142
_refine_ls_R_factor_all            .074
loop_
_symmetry_equiv_pos_site_id
_symmetry_equiv_pos_as_xyz
  1	'-y+.5, -x, z+.25'
  2	'y+.5, -x, z+.75'
  3	'-y, -x, -z+.5'
  4	'y, -x, -z'
  5	'y+.5, x, z+.25'
  6	'-y+.5, x, z+.75'
  7	'y, x, -z+.5'
  8	'-y, x, -z'
  9	'-x, y+.5, -z+.75'
 10	'-x, -y+.5, -z+.25'
 11	'-x, y, z+.5'
 12	'-x, -y, z'
 13	'x, -y+.5, -z+.75'
 14	'x, y+.5, -z+.25'
 15	'x, -y, z+.5'
 16	'x, y, z'
 17	'-y, -x+.5, z+.75'
 18	'y, -x+.5, z+.25'
 19	'-y+.5, -x+.5, -z'
 20	'y+.5, -x+.5, -z+.5'
 21	'y, x+.5, z+.75'
 22	'-y, x+.5, z+.25'
 23	'y+.5, x+.5, -z'
 24	'-y+.5, x+.5, -z+.5'
 25	'-x+.5, y, -z+.25'
 26	'-x+.5, -y, -z+.75'
 27	'-x+.5, y+.5, z'
 28	'-x+.5, -y+.5, z+.5'
 29	'x+.5, -y, -z+.25'
 30	'x+.5, y, -z+.75'
 31	'x+.5, -y+.5, z'
 32	'x+.5, y+.5, z+.5'
loop_
_atom_type_symbol
_atom_type_oxidation_number
Br1-	-1
Zn2+	2
loop_
_atom_site_label
_atom_site_type_symbol
_atom_site_symmetry_multiplicity
_atom_site_Wyckoff_symbol
_atom_site_fract_x
_atom_site_fract_y
_atom_site_fract_z
_atom_site_occupancy
_atom_site_attached_hydrogens
Zn1 Zn2+ 32 g 0.1257(6) 0.1112(6) 0.0627(3) 1. 0 
Br1 Br1- 16 d 0 0 0.1293(5) 1. 0 
Br2 Br1- 16 e 0.25 0.2366(9) 0.125 1. 0 
Br3 Br1- 32 g 0.2472(5) -.0135(9) -.0004(8) 1. 0 

loop_
_atom_site_aniso_label
_atom_site_aniso_type_symbol
_atom_site_aniso_U_11
_atom_site_aniso_U_22
_atom_site_aniso_U_33
_atom_site_aniso_U_12
_atom_site_aniso_U_13
_atom_site_aniso_U_23
Zn1 Zn2+ 0.028(6) 0.033(6) 0.003(5) -.002(6) 0.000(3) -.004(4)
Br1 Br1- 0.023(8) 0.027(8) 0.006(6) 0 0 0
Br2 Br1- 0.015(7) 0.019(8) 0.015(7) 0 0 0
Br3 Br1- 0.055(8) 0.078(9) 0.007(6) 0.000(5) -.003(8) -.015(4)
#End of data_30803-ICSD


