data_72741-ICSD
#?2014 by Fachinformationszentrum Karlsruhe, and the U.S. Secretary of 
#Commerce on behalf of the United States.  All rights reserved.
_database_code_ICSD                72741
_audit_creation_date               1994/01/19
_chemical_name_systematic          'Dilithium Palladium Diphosphate'
_chemical_formula_structural       'Li2 Pd (P2 O7)'
_chemical_formula_sum              'Li2 O7 P2 Pd1'
_publ_section_title
;
Crystal structure of Li2PdP2O7 solved from X-ray powder diffraction
;
loop_
_citation_id
_citation_journal_abbrev
_citation_year
_citation_journal_volume
_citation_page_first
_citation_page_last
_citation_journal_id_ASTM
primary 'European Journal of Solid State Inorganic Chemistry'
 1992 29 239 247 EJSCE5
_publ_author_name                  'Laligant, Y.'
_cell_length_a                     12.5858(9)
_cell_length_b                     7.4955(5)
_cell_length_c                     5.8116(4)
_cell_angle_alpha                  90.
_cell_angle_beta                   90.
_cell_angle_gamma                  90.
_cell_volume                       548.25
_cell_formula_units_Z              4
_symmetry_space_group_name_H-M     'I m m a'
_symmetry_Int_Tables_number        74
_refine_ls_R_factor_all            .051
loop_
_symmetry_equiv_pos_site_id
_symmetry_equiv_pos_as_xyz
  1	'-x, y+.5, -z'
  2	'-x, -y+.5, z'
  3	'-x, y, z'
  4	'-x, -y, -z'
  5	'x, -y+.5, z'
  6	'x, y+.5, -z'
  7	'x, -y, -z'
  8	'x, y, z'
  9	'-x+.5, y, -z+.5'
 10	'-x+.5, -y, z+.5'
 11	'-x+.5, y+.5, z+.5'
 12	'-x+.5, -y+.5, -z+.5'
 13	'x+.5, -y, z+.5'
 14	'x+.5, y, -z+.5'
 15	'x+.5, -y+.5, -z+.5'
 16	'x+.5, y+.5, z+.5'
loop_
_atom_type_symbol
_atom_type_oxidation_number
Li1+	1
O2-	-2
P5+	5
Pd2+	2
loop_
_atom_site_label
_atom_site_type_symbol
_atom_site_symmetry_multiplicity
_atom_site_Wyckoff_symbol
_atom_site_fract_x
_atom_site_fract_y
_atom_site_fract_z
_atom_site_occupancy
_atom_site_attached_hydrogens
_atom_site_B_iso_or_equiv
Pd1 Pd2+ 4 a 0 0 0 1. 0 0.28(2) 
P1 P5+ 8 i 0.1136(2) 0.25 0.3587(5) 1. 0 0.58(7) 
Li1 Li1+ 8 f 0.25 0 0 1. 0 2.2(5) 
O1 O2- 4 e 0 0.25 0.5008(22) 1. 0 0.9(2) 
O2 O2- 8 i 0.3017(5) 0.25 0.9515(11) 1. 0 0.6(2) 
O3 O2- 16 j 0.1162(4) 0.0785(6) 0.2104(7) 1. 0 0.8(1) 

#End of data_72741-ICSD


