data_107569-ICSD
#?2014 by Fachinformationszentrum Karlsruhe, and the U.S. Secretary of 
#Commerce on behalf of the United States.  All rights reserved.
_database_code_ICSD                107569
_audit_creation_date               2005/10/01
_chemical_name_systematic          'Cesium Sodium Telluride (1/1/1)'
_chemical_formula_structural       'Cs Na Te'
_chemical_formula_sum              'Cs1 Na1 Te1'
_publ_section_title
;
Cs Na Te - Darstellung und Charakterisierung von 
Caesiumnatriumtelluride
;
loop_
_citation_id
_citation_journal_abbrev
_citation_year
_citation_journal_volume
_citation_page_first
_citation_page_last
_citation_journal_id_ASTM
primary 'Zeitschrift fuer Naturforschung, B: Chemical Sciences'
 1996 51 605 606 ZNBSEN
_publ_author_name
;
Fischer, K.;Feldbaum-Moeller, E.;Vogt, P.;Winter, V.;Sabrowsky, H.
;
_cell_length_a                     5.308(4)
_cell_length_b                     5.308
_cell_length_c                     8.532(1)
_cell_angle_alpha                  90.
_cell_angle_beta                   90.
_cell_angle_gamma                  90.
_cell_volume                       240.39
_cell_formula_units_Z              2
_symmetry_space_group_name_H-M     'P 4/n m m S'
_symmetry_Int_Tables_number        129
loop_
_symmetry_equiv_pos_site_id
_symmetry_equiv_pos_as_xyz
  1	'-y+.5, -x+.5, z'
  2	'y+.5, x+.5, z'
  3	'-y, -x, -z'
  4	'y, x, -z'
  5	'y+.5, -x+.5, z'
  6	'-y+.5, x+.5, z'
  7	'y, -x, -z'
  8	'-y, x, -z'
  9	'x+.5, -y+.5, -z'
 10	'-x+.5, y+.5, -z'
 11	'x, -y, z'
 12	'-x, y, z'
 13	'-x+.5, -y+.5, -z'
 14	'x+.5, y+.5, -z'
 15	'-x, -y, z'
 16	'x, y, z'
loop_
_atom_type_symbol
_atom_type_oxidation_number
Cs1+	1
Na1+	1
Te2-	-2
loop_
_atom_site_label
_atom_site_type_symbol
_atom_site_symmetry_multiplicity
_atom_site_Wyckoff_symbol
_atom_site_fract_x
_atom_site_fract_y
_atom_site_fract_z
_atom_site_occupancy
_atom_site_attached_hydrogens
Na1 Na1+ 2 a 0 0 0 1. 0 
Cs1 Cs1+ 2 c 0 0.5 0.64 1. 0 
Te1 Te2- 2 c 0 0.5 0.19 1. 0 

#End of data_107569-ICSD


