data_6302-ICSD
#?2014 by Fachinformationszentrum Karlsruhe, and the U.S. Secretary of 
#Commerce on behalf of the United States.  All rights reserved.
_database_code_ICSD                6302
_audit_creation_date               1980/01/01
_audit_update_record               2012/02/01
_chemical_name_systematic          'Magnesium Sulfate Hydrate'
_chemical_formula_structural       'Mg (S O4) (H2 O)'
_chemical_formula_sum              'H2 Mg1 O5 S1'
_chemical_name_mineral             Kieserite
_publ_section_title
;
Affinement de la structure de la Kieserite Mg (S O4) (H2 O)
;
loop_
_citation_id
_citation_journal_abbrev
_citation_year
_citation_journal_volume
_citation_page_first
_citation_page_last
_citation_journal_id_ASTM
primary 'Bulletin de la Societe Chimique de France (Vol=Year)'
 1970 1970 4243 4248 BSCFAS
2 'Bulletin de la Societe Chimique de France (Vol=Year)'
 1972 1972 2247 2251 BSCFAS
_publ_author_name
;
Bregeault, J.M.;Herpin, P.;Manoli, J.M.;Pannetier, G.
;
_cell_length_a                     6.891
_cell_length_b                     7.624
_cell_length_c                     7.645
_cell_angle_alpha                  90.
_cell_angle_beta                   117.683
_cell_angle_gamma                  90.
_cell_volume                       355.67
_cell_formula_units_Z              4
_symmetry_space_group_name_H-M     'C 1 2/c 1'
_symmetry_Int_Tables_number        15
_refine_ls_R_factor_all            .057
loop_
_symmetry_equiv_pos_site_id
_symmetry_equiv_pos_as_xyz
  1	'x, -y, z+.5'
  2	'-x, -y, -z'
  3	'-x, y, -z+.5'
  4	'x, y, z'
  5	'x+.5, -y+.5, z+.5'
  6	'-x+.5, -y+.5, -z'
  7	'-x+.5, y+.5, -z+.5'
  8	'x+.5, y+.5, z'
loop_
_atom_type_symbol
_atom_type_oxidation_number
H1+	1
Mg2+	2
O2-	-2
S6+	6
loop_
_atom_site_label
_atom_site_type_symbol
_atom_site_symmetry_multiplicity
_atom_site_Wyckoff_symbol
_atom_site_fract_x
_atom_site_fract_y
_atom_site_fract_z
_atom_site_occupancy
_atom_site_attached_hydrogens
_atom_site_B_iso_or_equiv
Mg1 Mg2+ 4 b 0 0.5 0 1. 0 0 
S1 S6+ 4 e 0 0.1548(2) 0.25 1. 0 0 
O1 O2- 8 f 0.1755(9) 0.0445(5) 0.3942(6) 1. 0 0 
O2 O2- 8 f 0.0895(9) 0.2667(5) 0.1485(6) 1. 0 0 
O3 O2- 4 e 0 0.6366(7) 0.25 1. 0 0 
H1 H1+ 8 f 0.125(20) 0.708(13) 0.298(15) 1. 0 1.32 

#End of data_6302-ICSD


