data_86184-ICSD
#?2014 by Fachinformationszentrum Karlsruhe, and the U.S. Secretary of 
#Commerce on behalf of the United States.  All rights reserved.
_database_code_ICSD                86184
_audit_creation_date               1999/11/30
_chemical_name_systematic          'Lithium Zinc Arsenate(V) - Alpha'
_chemical_formula_structural       'Li Zn (As O4)'
_chemical_formula_sum              'As1 Li1 O4 Zn1'
_publ_section_title
;
Hydrothermal synthesis and crystal structure of alpha-(Li Zn As O4)
;
loop_
_citation_id
_citation_journal_abbrev
_citation_year
_citation_journal_volume
_citation_journal_issue
_citation_page_first
_citation_page_last
_citation_journal_id_ASTM
primary 'Journal of Materials Chemistry' 1998 8 4 969 975 JMACEP
_publ_author_name
;
Jensen, T.R.;Norby, P.;Hanson, J.C.;Simonsen, O.;Skou, E.M.;Stein, 
P.C.;Boye, H.A.
;
_cell_length_a                     14.009(2)
_cell_length_b                     14.009(2)
_cell_length_c                     9.386(2)
_cell_angle_alpha                  90.
_cell_angle_beta                   90.
_cell_angle_gamma                  120.
_cell_volume                       1595.24
_cell_formula_units_Z              18
_symmetry_space_group_name_H-M     'R 3 H'
_symmetry_Int_Tables_number        146
_refine_ls_R_factor_all            .07
loop_
_symmetry_equiv_pos_site_id
_symmetry_equiv_pos_as_xyz
  1	'-x+y, -x, z'
  2	'-y, x-y, z'
  3	'x, y, z'
  4	'-x+y+.6666, -x+.3333, z+.3333'
  5	'-x+y+.3333, -x+.6666, z+.6666'
  6	'-y+.6666, x-y+.3333, z+.3333'
  7	'-y+.3333, x-y+.6666, z+.6666'
  8	'x+.6666, y+.3333, z+.3333'
  9	'x+.3333, y+.6666, z+.6666'
loop_
_atom_type_symbol
_atom_type_oxidation_number
As5+	5
Li1+	1
O2-	-2
Zn2+	2
loop_
_atom_site_label
_atom_site_type_symbol
_atom_site_symmetry_multiplicity
_atom_site_Wyckoff_symbol
_atom_site_fract_x
_atom_site_fract_y
_atom_site_fract_z
_atom_site_occupancy
_atom_site_attached_hydrogens
_atom_site_U_iso_or_equiv
As1 As5+ 9 b 0.1967(2) 0.2136(2) 0.8120(2) 1. 0 0 
As2 As5+ 9 b 0.3166(2) 0.8630(2) 0.9787(2) 1. 0 0 
Zn1 Zn2+ 9 b 0.2117(3) 0.0198(2) 0.9752(2) 1. 0 0 
Zn2 Zn2+ 9 b 0.5264(2) 0.8808(3) 0.1427(2) 1. 0 0 
Li1 Li1+ 9 b 0.526(3) 0.873(3) 0.801(5) 1. 0 0.008 
Li2 Li1+ 9 b 0.214(3) 0.021(4) 0.634(5) 1. 0 0.008 
O1 O2- 9 b 0.2448(13) 0.7912(13) 0.1241(14) 1. 0 0.009(3) 
O2 O2- 9 b 0.2488(10) 0.7919(10) 0.8288(12) 1. 0 0.004(2) 
O3 O2- 9 b 0.6685(11) 0.0083(11) 0.1346(19) 1. 0 0.006(4) 
O4 O2- 9 b 0.4584(10) 0.8764(10) 0.3291(12) 1. 0 0.006(2) 
O5 O2- 9 b 0.0802(12) 0.8753(11) 0.9597(13) 1. 0 0.008(3) 
O6 O2- 9 b 0.4438(15) 0.8771(15) 0.9751(17) 1. 0 0.015(4) 
O7 O2- 9 b 0.2189(12) 0.1051(12) 0.8109(14) 1. 0 0.006(3) 
O8 O2- 9 b 0.3326(13) 0.9919(14) 0.9670(23) 1. 0 0.019(5) 

loop_
_atom_site_aniso_label
_atom_site_aniso_type_symbol
_atom_site_aniso_U_11
_atom_site_aniso_U_22
_atom_site_aniso_U_33
_atom_site_aniso_U_12
_atom_site_aniso_U_13
_atom_site_aniso_U_23
As1 As5+ 0.0058(13) 0.0093(14) 0.0093(14) 0.0045(10) 0.0005(9) -.0003(10)
As2 As5+ 0.0079(14) 0.010(2) 0.0100(14) 0.0059(11) -.0008(10) 0.0001(9)
Zn1 Zn2+ 0.010(2) 0.009(2) 0.008(2) 0.0041(12) -.0023(11) -.0020(11)
Zn2 Zn2+ 0.009(2) 0.014(2) 0.008(2) 0.0070(13) -.0016(10) 0.0000(11)
#End of data_86184-ICSD


