data_46004-ICSD
#?2014 by Fachinformationszentrum Karlsruhe, and the U.S. Secretary of 
#Commerce on behalf of the United States.  All rights reserved.
_database_code_ICSD                46004
_audit_creation_date               1984/09/03
_audit_update_record               2007/04/01
_chemical_name_systematic          'Sodium Nickel Arsenate(V)'
_chemical_formula_structural       'Na Ni (As O4)'
_chemical_formula_sum              'As1 Na1 Ni1 O4'
_publ_section_title
;
The crystal structure of sodium nickel arsenate, Na Ni As O4
;
loop_
_citation_id
_citation_journal_abbrev
_citation_year
_citation_journal_volume
_citation_page_first
_citation_page_last
_citation_journal_id_ASTM
primary
;
Zeitschrift fuer Naturforschung, Teil B. Anorganische Chemie, 
Organische Chemie (33,1978-41,1986)
;
 1984 39 118 120 ZNBAD2
2 'Zeitschrift fuer Naturforschung, B: Chemical Sciences'
 1987 42 1365 1366 ZNBSEN
_publ_author_name                  'Range, K.G.;Meister, H.'
_cell_length_a                     4.955(3)
_cell_length_b                     4.955(3)
_cell_length_c                     26.470(30)
_cell_angle_alpha                  90.
_cell_angle_beta                   90.
_cell_angle_gamma                  120.
_cell_volume                       562.82
_cell_formula_units_Z              6
_symmetry_space_group_name_H-M     'R 3 H'
_symmetry_Int_Tables_number        146
_refine_ls_R_factor_all            .045
loop_
_symmetry_equiv_pos_site_id
_symmetry_equiv_pos_as_xyz
  1	'-x+y, -x, z'
  2	'-y, x-y, z'
  3	'x, y, z'
  4	'-x+y+.6666, -x+.3333, z+.3333'
  5	'-x+y+.3333, -x+.6666, z+.6666'
  6	'-y+.6666, x-y+.3333, z+.3333'
  7	'-y+.3333, x-y+.6666, z+.6666'
  8	'x+.6666, y+.3333, z+.3333'
  9	'x+.3333, y+.6666, z+.6666'
loop_
_atom_type_symbol
_atom_type_oxidation_number
As5+	5
Na1+	1
Ni2+	2
O2-	-2
loop_
_atom_site_label
_atom_site_type_symbol
_atom_site_symmetry_multiplicity
_atom_site_Wyckoff_symbol
_atom_site_fract_x
_atom_site_fract_y
_atom_site_fract_z
_atom_site_occupancy
_atom_site_attached_hydrogens
_atom_site_B_iso_or_equiv
Ni1 Ni2+ 3 a 0 0 0.1240(3) 1. 0 0.67(9) 
Ni2 Ni2+ 3 a 0 0 0.4528(3) 1. 0 0.41(7) 
As1 As5+ 3 a 0 0 0.7214(3) 1. 0 0.69(7) 
As2 As5+ 3 a 0 0 0.8534(4) 1. 0 0.35(6) 
O1 O2- 9 b 0.0015(12) 0.3506(12) 0.4083(3) 1. 0 0.58(6) 
O2 O2- 9 b 0.6625(13) 0.9956(12) 0.4994(3) 1. 0 0.66(6) 
O3 O2- 3 a 0 0 0.6597(4) 1. 0 2.7(4) 
O4 O2- 3 a 0 0 0.9163(4) 1. 0 1.0(3) 
Na1 Na1+ 3 a 0 0 0 1. 0 2.0(3) 
Na2 Na1+ 3 a 0 0 0.5774(4) 1. 0 2.5(2) 

#End of data_46004-ICSD


