data_86319-ICSD
#?2014 by Fachinformationszentrum Karlsruhe, and the U.S. Secretary of 
#Commerce on behalf of the United States.  All rights reserved.
_database_code_ICSD                86319
_audit_creation_date               1999/11/30
_audit_update_record               2003/04/01
_chemical_name_systematic          'Calcium Tecto-dialumodisilicate'
_chemical_formula_structural       'Ca (Al2 Si2 O8)'
_chemical_formula_sum              'Al2 Ca1 O8 Si2'
_chemical_name_mineral             Anorthite
_publ_section_title
;
Structural variation associated with compositional variation and 
order-disorder behavior in anorthite-rich feldspars
;
loop_
_citation_id
_citation_journal_abbrev
_citation_year
_citation_journal_volume
_citation_page_first
_citation_page_last
_citation_journal_id_ASTM
primary 'American Mineralogist' 1990 75 150 162 AMMIAY
_publ_author_name
;
Angel, R.J.;Carpenter, M.A.;Finger, L.W.
;
_cell_length_a                     8.178(2)
_cell_length_b                     12.870(3)
_cell_length_c                     14.175(3)
_cell_angle_alpha                  93.17(2)
_cell_angle_beta                   115.97(1)
_cell_angle_gamma                  91.15(2)
_cell_volume                       1337.6
_cell_formula_units_Z              8
_symmetry_space_group_name_H-M     'P -1'
_symmetry_Int_Tables_number        2
_refine_ls_R_factor_all            .064
loop_
_symmetry_equiv_pos_site_id
_symmetry_equiv_pos_as_xyz
  1	'-x, -y, -z'
  2	'x, y, z'
loop_
_atom_type_symbol
_atom_type_oxidation_number
Al3+	3
Ca2+	2
O2-	-2
Si4+	4
loop_
_atom_site_label
_atom_site_type_symbol
_atom_site_symmetry_multiplicity
_atom_site_Wyckoff_symbol
_atom_site_fract_x
_atom_site_fract_y
_atom_site_fract_z
_atom_site_occupancy
_atom_site_attached_hydrogens
Ca1 Ca2+ 2 i 0.2655(3) 0.9871(2) 0.0856(2) 1. 0 
Ca2 Ca2+ 2 i 0.2681(2) 0.0301(1) 0.5445(1) 1. 0 
Ca3 Ca2+ 2 i 0.7735(3) 0.5344(2) 0.5431(1) 1. 0 
Ca4 Ca2+ 2 i 0.7654(3) 0.5135(2) 0.0660(2) 1. 0 
Si1 Si4+ 2 i 0.0089(3) 0.1590(2) 0.1042(2) 1. 0 
Si2 Si4+ 2 i 0.5068(3) 0.6569(2) 0.6044(2) 1. 0 
Al1 Al3+ 2 i 0.0053(3) 0.1626(2) 0.6113(2) 1. 0 
Al2 Al3+ 2 i 0.4996(3) 0.6658(2) 0.1124(2) 1. 0 
Al3 Al3+ 2 i 0.9938(3) 0.8154(2) 0.1185(2) 1. 0 
Al4 Al3+ 2 i 0.5061(3) 0.3147(2) 0.6202(2) 1. 0 
Si3 Si4+ 2 i 0.0057(3) 0.8162(2) 0.6135(2) 1. 0 
Si4 Si4+ 2 i 0.5061(3) 0.3197(2) 0.1102(2) 1. 0 
Al5 Al3+ 2 i 0.6855(3) 0.1130(2) 0.1530(2) 1. 0 
Al6 Al3+ 2 i 0.1906(3) 0.6112(2) 0.6647(2) 1. 0 
Si5 Si4+ 2 i 0.6797(3) 0.1046(2) 0.6631(2) 1. 0 
Si6 Si4+ 2 i 0.1733(3) 0.6062(2) 0.1523(2) 1. 0 
Si7 Si4+ 2 i 0.6752(3) 0.8829(2) 0.1864(2) 1. 0 
Si8 Si4+ 2 i 0.1766(3) 0.3800(2) 0.6759(2) 1. 0 
Al7 Al3+ 2 i 0.6814(3) 0.8735(2) 0.6738(2) 1. 0 
Al8 Al3+ 2 i 0.1849(4) 0.3761(2) 0.1798(2) 1. 0 
O1 O2- 2 i 0.0222(8) 0.1252(5) -.0047(4) 1. 0 
O2 O2- 2 i 0.4939(8) 0.6243(5) 0.4881(4) 1. 0 
O3 O2- 2 i 0.9822(8) 0.1255(4) 0.4838(4) 1. 0 
O4 O2- 2 i 0.5115(8) 0.6241(5) 0.9944(4) 1. 0 
O5 O2- 2 i 0.5774(8) 0.9910(5) 0.1434(5) 1. 0 
O6 O2- 2 i 0.0738(8) 0.4890(4) 0.6358(5) 1. 0 
O7 O2- 2 i 0.5721(8) 0.9898(4) 0.6373(4) 1. 0 
O8 O2- 2 i 0.0719(8) 0.4933(4) 0.1375(5) 1. 0 
O9 O2- 2 i 0.8156(8) 0.1011(5) 0.0822(5) 1. 0 
O10 O2- 2 i 0.3281(8) 0.5973(4) 0.6000(5) 1. 0 
O11 O2- 2 i 0.8098(8) 0.0987(4) 0.6037(5) 1. 0 
O12 O2- 2 i 0.2882(8) 0.6029(5) 0.0827(5) 1. 0 
O13 O2- 2 i 0.8167(8) 0.8553(5) 0.1414(5) 1. 0 
O14 O2- 2 i 0.3003(8) 0.3544(5) 0.6152(5) 1. 0 
O15 O2- 2 i 0.8132(8) 0.8543(5) 0.6058(5) 1. 0 
O16 O2- 2 i 0.3342(9) 0.3550(5) 0.1276(6) 1. 0 
O17 O2- 2 i 0.0117(8) 0.2798(4) 0.1360(5) 1. 0 
O18 O2- 2 i 0.5122(8) 0.7777(4) 0.6347(5) 1. 0 
O19 O2- 2 i 0.0161(8) 0.2926(4) 0.6480(4) 1. 0 
O20 O2- 2 i 0.5132(8) 0.7959(4) 0.1494(5) 1. 0 
O21 O2- 2 i 0.0022(8) 0.6816(4) 0.1054(5) 1. 0 
O22 O2- 2 i 0.5132(8) 0.1780(4) 0.6090(4) 1. 0 
O23 O2- 2 i 0.0083(8) 0.6908(4) 0.6005(5) 1. 0 
O24 O2- 2 i 0.5077(8) 0.1932(5) 0.0983(5) 1. 0 
O25 O2- 2 i 0.1852(8) 0.1057(4) 0.1913(4) 1. 0 
O26 O2- 2 i 0.6977(8) 0.6073(5) 0.6829(5) 1. 0 
O27 O2- 2 i 0.2106(8) 0.1029(5) 0.6843(5) 1. 0 
O28 O2- 2 i 0.6946(8) 0.6038(4) 0.1986(4) 1. 0 
O29 O2- 2 i 0.2023(7) 0.8723(4) 0.2108(4) 1. 0 
O30 O2- 2 i 0.6915(8) 0.3638(5) 0.7292(5) 1. 0 
O31 O2- 2 i 0.1762(9) 0.8590(5) 0.7181(5) 1. 0 
O32 O2- 2 i 0.6956(9) 0.3664(5) 0.2026(5) 1. 0 

#End of data_86319-ICSD


