data_59888-ICSD
#?2014 by Fachinformationszentrum Karlsruhe, and the U.S. Secretary of 
#Commerce on behalf of the United States.  All rights reserved.
_database_code_ICSD                59888
_audit_creation_date               2005/10/01
_chemical_name_systematic
;
Sodium Tetramagnesium Tris(arsenate)
;
_chemical_formula_structural       'Na Mg4 (As O4)3'
_chemical_formula_sum              'As3 Mg4 Na1 O12'
_publ_section_title                'Na Mg4 (As O4)3'
loop_
_citation_id
_citation_journal_abbrev
_citation_year
_citation_journal_volume
_citation_page_first
_citation_page_last
_citation_journal_id_ASTM
primary 'Acta Crystallographica, Section E. Structure Reports Online'
 2004 60 i77 i79 ACSEBH
_publ_author_name                  'Anissa, H.A.;Brahim, A.;Amor, H.'
_cell_length_a                     6.8170(10)
_cell_length_b                     6.8170(10)
_cell_length_c                     19.242(3)
_cell_angle_alpha                  90.
_cell_angle_beta                   90.
_cell_angle_gamma                  90.
_cell_volume                       894.2
_cell_formula_units_Z              4
_symmetry_space_group_name_H-M     'I -4 2 d'
_symmetry_Int_Tables_number        122
_refine_ls_R_factor_all            .0206
loop_
_symmetry_equiv_pos_site_id
_symmetry_equiv_pos_as_xyz
  1	'-y, -x+.5, z+.25'
  2	'y, -x, -z'
  3	'y, x+.5, z+.25'
  4	'-y, x, -z'
  5	'x, -y+.5, -z+.25'
  6	'-x, -y, z'
  7	'-x, y+.5, -z+.25'
  8	'x, y, z'
  9	'-y+.5, -x, z+.75'
 10	'y+.5, -x+.5, -z+.5'
 11	'y+.5, x, z+.75'
 12	'-y+.5, x+.5, -z+.5'
 13	'x+.5, -y, -z+.75'
 14	'-x+.5, -y+.5, z+.5'
 15	'-x+.5, y, -z+.75'
 16	'x+.5, y+.5, z+.5'
loop_
_atom_type_symbol
_atom_type_oxidation_number
As5+	5
Mg2+	2
Na1+	1
O2-	-2
loop_
_atom_site_label
_atom_site_type_symbol
_atom_site_symmetry_multiplicity
_atom_site_Wyckoff_symbol
_atom_site_fract_x
_atom_site_fract_y
_atom_site_fract_z
_atom_site_occupancy
_atom_site_attached_hydrogens
_atom_site_U_iso_or_equiv
As1 As5+ 4 a 0.0000 0.0000 0.0000 1 0 0.00350(18) 
As2 As5+ 8 d 0.34467(8) -0.7500 0.1250 1 0 0.00424(15) 
Mg1 Mg2+ 8 c 0.0000 -0.5000 0.02054(9) 1 0 0.0061(4) 
Mg2 Mg2+ 8 d 0.7588(3) -0.7500 0.1250 1 0 0.0064(4) 
Na1 Na1+ 4 b 0.5000 -0.5000 0.0000 1 0 0.0128(7) 
O1 O2- 16 e 0.5064(4) -0.7959(4) 0.05961(13) 1 0 0.0077(6) 
O2 O2- 16 e 0.2227(4) -0.5460(4) 0.09958(12) 1 0 0.0070(5) 
O3 O2- 16 e -0.0581(4) 0.2068(4) 0.04410(13) 1 0 0.0073(6) 

loop_
_atom_site_aniso_label
_atom_site_aniso_type_symbol
_atom_site_aniso_U_11
_atom_site_aniso_U_22
_atom_site_aniso_U_33
_atom_site_aniso_U_12
_atom_site_aniso_U_13
_atom_site_aniso_U_23
As1 As5+ 0.0037(2) 0.0037(2) 0.0032(3) 0.000 0.000 0.000
As2 As5+ 0.0048(3) 0.0038(3) 0.0041(2) 0.000 0.000 0.0000(2)
Mg1 Mg2+ 0.0090(9) 0.0052(9) 0.0041(7) 0.0000(8) 0.000 0.000
Mg2 Mg2+ 0.0059(8) 0.0076(8) 0.0056(9) 0.000 0.000 0.0014(7)
Na1 Na1+ 0.0121(10) 0.0121(10) 0.0141(15) 0.000 0.000 0.000
O1 O2- 0.0078(11) 0.0104(14) 0.0050(10) 0.0004(10) 0.0000(10) -0.0023(10)
O2 O2- 0.0096(13) 0.0026(12) 0.0089(11) 0.0013(11) -0.0022(11) 0.0000(9)
O3 O2- 0.0101(12) 0.0048(14) 0.0072(12) -0.0006(10) 0.0016(10) -0.0038(10)
#End of data_59888-ICSD


