data_424963-ICSD
#?2014 by Fachinformationszentrum Karlsruhe, and the U.S. Secretary of 
#Commerce on behalf of the United States.  All rights reserved.
_database_code_ICSD                424963
_audit_creation_date               2013/08/01
_chemical_name_systematic          'Lithium Yttrium Bis(carbodiimide)'
_chemical_formula_structural       'Li Y (C N2)2'
_chemical_formula_sum              'C2 Li1 N4 Y1'
_publ_section_title
;
Synthesis and crystal structure of Li Y (C N2)2, having a structure 
related to that of Ni As
;
loop_
_citation_id
_citation_journal_abbrev
_citation_year
_citation_journal_volume
_citation_journal_issue
_citation_page_first
_citation_page_last
_citation_journal_id_ASTM
primary 'Zeitschrift fuer Anorganische und Allgemeine Chemie (1950) (DE)'
 2013 639 1 22 24 ZAACAB
_publ_author_name
;
Unverfehrt, Leonid;Stroebele, Markus;Meyer, H.-Juergen
;
_cell_length_a                     9.820(3)
_cell_length_b                     6.9846(18)
_cell_length_c                     6.134(2)
_cell_angle_alpha                  90.00
_cell_angle_beta                   90.00
_cell_angle_gamma                  90.00
_cell_volume                       420.72
_cell_formula_units_Z              4
_symmetry_space_group_name_H-M     'P b c n'
_symmetry_Int_Tables_number        60
_refine_ls_R_factor_all            .0186
loop_
_symmetry_equiv_pos_site_id
_symmetry_equiv_pos_as_xyz
  1	'x, -y, z+.5'
  2	'-x+.5, y+.5, z'
  3	'x+.5, y+.5, -z+.5'
  4	'-x, -y, -z'
  5	'-x, y, -z+.5'
  6	'x+.5, -y+.5, -z'
  7	'-x+.5, -y+.5, z+.5'
  8	'x, y, z'
loop_
_atom_type_symbol
_atom_type_oxidation_number
C4+	4
Li1+	1
N3-	-3
Y3+	3
loop_
_atom_site_label
_atom_site_type_symbol
_atom_site_symmetry_multiplicity
_atom_site_Wyckoff_symbol
_atom_site_fract_x
_atom_site_fract_y
_atom_site_fract_z
_atom_site_occupancy
_atom_site_attached_hydrogens
_atom_site_U_iso_or_equiv
Y1 Y3+ 4 c 1.0000 0.13871(6) 0.2500 1 0 0.01431(18) 
N1 N3- 8 d 0.8759(3) 0.1075(5) 0.5733(6) 1 0 0.0207(8) 
N2 N3- 8 d 0.8734(3) 0.3812(5) 0.0904(7) 1 0 0.0241(8) 
C1 C4+ 8 d 0.7494(4) 0.1133(5) 0.5823(8) 1 0 0.0186(8) 
Li1 Li1+ 4 c 1.0000 0.6149(11) 0.2500 1 0 0.0261(18) 

loop_
_atom_site_aniso_label
_atom_site_aniso_type_symbol
_atom_site_aniso_U_11
_atom_site_aniso_U_22
_atom_site_aniso_U_33
_atom_site_aniso_U_12
_atom_site_aniso_U_13
_atom_site_aniso_U_23
Y1 Y3+ 0.0120(2) 0.0164(3) 0.0145(3) 0.000 0.0000(7) 0.000
N1 N3- 0.0141(16) 0.027(2) 0.0206(17) 0.0068(14) 0.0032(16) 0.0025(17)
N2 N3- 0.0159(17) 0.0238(19) 0.033(2) 0.0021(14) -0.0043(17) 0.0037(17)
C1 C4+ 0.027(2) 0.0149(17) 0.0141(17) 0.0066(17) 0.0042(18) 0.0009(15)
Li1 Li1+ 0.035(5) 0.016(4) 0.027(4) 0.000 -0.001(16) 0.000
#End of data_424963-ICSD


