data_402643-ICSD
#?2014 by Fachinformationszentrum Karlsruhe, and the U.S. Secretary of 
#Commerce on behalf of the United States.  All rights reserved.
_database_code_ICSD                402643
_audit_creation_date               1997/11/10
_chemical_name_systematic          'Potassium Diselenotriargentate'
_chemical_formula_structural       'K (Ag3 Se2)'
_chemical_formula_sum              'Ag3 K1 Se2'
_publ_section_title
;
Crystal structure of potassium diselenotriargentate, K Ag3 Se2
;
loop_
_citation_id
_citation_journal_abbrev
_citation_year
_citation_journal_volume
_citation_page_first
_citation_page_last
_citation_journal_id_ASTM
primary 'Zeitschrift fuer Kristallographie - New Crystal Structures'
 1997 212 97 98 ZKNSFT
_publ_author_name                  'Bensch, W.;Duerichen, P.'
_cell_length_a                     16.6100(40)
_cell_length_b                     4.384(1)
_cell_length_c                     8.759(2)
_cell_angle_alpha                  90.
_cell_angle_beta                   115.55(2)
_cell_angle_gamma                  90.
_cell_volume                       575.44
_cell_formula_units_Z              4
_symmetry_space_group_name_H-M     'C 1 2/m 1'
_symmetry_Int_Tables_number        12
_refine_ls_R_factor_all            .08
loop_
_symmetry_equiv_pos_site_id
_symmetry_equiv_pos_as_xyz
  1	'-x, y, -z'
  2	'-x, -y, -z'
  3	'x, -y, z'
  4	'x, y, z'
  5	'-x+.5, y+.5, -z'
  6	'-x+.5, -y+.5, -z'
  7	'x+.5, -y+.5, z'
  8	'x+.5, y+.5, z'
loop_
_atom_type_symbol
_atom_type_oxidation_number
Ag1+	1
K1+	1
Se2-	-2
loop_
_atom_site_label
_atom_site_type_symbol
_atom_site_symmetry_multiplicity
_atom_site_Wyckoff_symbol
_atom_site_fract_x
_atom_site_fract_y
_atom_site_fract_z
_atom_site_occupancy
_atom_site_attached_hydrogens
Ag1 Ag1+ 4 i 0.59465(5) 0 0.64871(11) 1. 0 
Ag2 Ag1+ 4 i 0.68846(6) 0 0.44013(15) 1. 0 
Ag3 Ag1+ 4 i 0.05605(6) 0 0.39838(11) 1. 0 
Se1 Se2- 4 i 0.20383(5) 0 0.70614(11) 1. 0 
Se2 Se2- 4 i 0.51514(5) 0 0.21286(11) 1. 0 
K1 K1+ 4 i 0.13545(13) 0 0.0474(3) 1. 0 

loop_
_atom_site_aniso_label
_atom_site_aniso_type_symbol
_atom_site_aniso_U_11
_atom_site_aniso_U_22
_atom_site_aniso_U_33
_atom_site_aniso_U_12
_atom_site_aniso_U_13
_atom_site_aniso_U_23
Ag1 Ag1+ 0.0330(4) 0.0267(4) 0.0383(4) 0 0.0215(3) 0
Ag2 Ag1+ 0.0315(4) 0.0682(8) 0.0477(5) 0 0.0240(4) 0
Ag3 Ag1+ 0.0562(6) 0.0195(4) 0.0286(4) 0 0.0148(3) 0
Se1 Se2- 0.0167(3) 0.0174(4) 0.0238(4) 0 0.0075(3) 0
Se2 Se2- 0.0201(4) 0.0184(4) 0.0221(4) 0 0.0077(3) 0
K1 K1+ 0.0281(9) 0.0243(10) 0.0301(9) 0 0.0029(7) 0
#End of data_402643-ICSD


