data_261230-ICSD
#?2014 by Fachinformationszentrum Karlsruhe, and the U.S. Secretary of 
#Commerce on behalf of the United States.  All rights reserved.
_database_code_ICSD                261230
_audit_creation_date               2011/02/01
_chemical_name_systematic          'Dimagnesium Diphosphate'
_chemical_formula_structural       'Mg2 (P2 O7)'
_chemical_formula_sum              'Mg2 O7 P2'
_publ_section_title
;
Strontium magnesium phosphate, Sr(2+x) Mg(3-x) P4 O15 (x ~ 0.36), 
from laboratory X-ray powder data
;
loop_
_citation_id
_citation_journal_abbrev
_citation_year
_citation_journal_volume
_citation_journal_issue
_citation_page_first
_citation_page_last
_citation_journal_id_ASTM
primary 'Acta Crystallographica, Section C: Crystal Structure Communications'
 2011 67 1 i1 i3 ACSCEE
_publ_author_name
;
Hong Junghwa;Song Seungwan;Hong Seungtae
;
_cell_length_a                     6.9443(4)
_cell_length_b                     8.2861(4)
_cell_length_c                     9.0438(5)
_cell_angle_alpha                  90.0
_cell_angle_beta                   113.816(3)
_cell_angle_gamma                  90.0
_cell_volume                       476.08
_cell_formula_units_Z              4
_symmetry_space_group_name_H-M     'P 1 21/c 1'
_symmetry_Int_Tables_number        14
_refine_ls_R_factor_all            .0478
loop_
_symmetry_equiv_pos_site_id
_symmetry_equiv_pos_as_xyz
  1	'x, -y+.5, z+.5'
  2	'-x, -y, -z'
  3	'-x, y+.5, -z+.5'
  4	'x, y, z'
loop_
_atom_type_symbol
_atom_type_oxidation_number
Mg2+	2
O2-	-2
P5+	5
loop_
_atom_site_label
_atom_site_type_symbol
_atom_site_symmetry_multiplicity
_atom_site_Wyckoff_symbol
_atom_site_fract_x
_atom_site_fract_y
_atom_site_fract_z
_atom_site_occupancy
_atom_site_attached_hydrogens
_atom_site_U_iso_or_equiv
Mg1 Mg2+ 4 e 0.24957 0.92491 0.12118 1.0 0 0.02084 
Mg2 Mg2+ 4 e 0.69861 0.43311 0.82859 1.0 0 0.02084 
P1 P5+ 4 e 0.94785 0.76438 0.76493 1.0 0 0.02084 
P2 P5+ 4 e 0.52451 0.77297 0.46834 1.0 0 0.02084 
O1 O2- 4 e 0.72902 0.83262 0.59014 1.0 0 0.02084 
O2 O2- 4 e 0.37623 0.76109 0.55127 1.0 0 0.02084 
O3 O2- 4 e 1.12756 0.76909 0.69986 1.0 0 0.02084 
O4 O2- 4 e 1.01129 0.90711 0.89533 1.0 0 0.02084 
O5 O2- 4 e 0.92364 0.5963 0.82874 1.0 0 0.02084 
O6 O2- 4 e 0.47096 0.89728 0.32033 1.0 0 0.02084 
O7 O2- 4 e 0.59983 0.60601 0.4192 1.0 0 0.02084 

#End of data_261230-ICSD


