data_280809-ICSD
#?2014 by Fachinformationszentrum Karlsruhe, and the U.S. Secretary of 
#Commerce on behalf of the United States.  All rights reserved.
_database_code_ICSD                280809
_audit_creation_date               2002/10/01
_chemical_name_systematic
;
Sodium Cerium Hexaselenodiphosphate(V)
;
_chemical_formula_structural       'Na Ce (P2 Se6)'
_chemical_formula_sum              'Ce1 Na1 P2 Se6'
_publ_section_title
;
Na Ce P2 Se6, Cu0.4 Ce1.2 P2 Se6, Ce4 (P2 Se6)3, and the 
incommensurately modulated Ag Ce P2 Se6: new selenophosphates 
featuring the ethane-like (P2 Se6)(4-) anion
;
loop_
_citation_id
_citation_journal_abbrev
_citation_year
_citation_journal_volume
_citation_journal_issue
_citation_page_first
_citation_page_last
_citation_journal_id_ASTM
primary 'Inorganic Chemistry' 2002 41 2 180 191 INOCAJ
_publ_author_name
;
Aitken, J.A.;Evain, M.;Iordanidis, L.;Kanatzidis, M.G.
;
_cell_length_a                     12.1422(2)
_cell_length_b                     7.6982(1)
_cell_length_c                     11.7399(2)
_cell_angle_alpha                  90.
_cell_angle_beta                   111.545(1)
_cell_angle_gamma                  90.
_cell_volume                       1020.69
_cell_formula_units_Z              4
_symmetry_space_group_name_H-M     'P 1 21/c 1'
_symmetry_Int_Tables_number        14
_refine_ls_R_factor_all            .0352
loop_
_symmetry_equiv_pos_site_id
_symmetry_equiv_pos_as_xyz
  1	'x, -y+.5, z+.5'
  2	'-x, -y, -z'
  3	'-x, y+.5, -z+.5'
  4	'x, y, z'
loop_
_atom_type_symbol
_atom_type_oxidation_number
Ce3+	3
Na1+	1
P4+	4
Se2-	-2
loop_
_atom_site_label
_atom_site_type_symbol
_atom_site_symmetry_multiplicity
_atom_site_Wyckoff_symbol
_atom_site_fract_x
_atom_site_fract_y
_atom_site_fract_z
_atom_site_occupancy
_atom_site_attached_hydrogens
Ce1 Ce3+ 4 e 0.34312(3) 0.10588(5) 0.58852(4) 1. 0 
Se1 Se2- 4 e 0.08634(6) 0.00172(9) 0.34318(7) 1. 0 
Se2 Se2- 4 e 0.11320(6) 0.20147(9) 0.05944(7) 1. 0 
Se3 Se2- 4 e 0.79687(6) 0.20738(9) 0.37312(7) 1. 0 
Se4 Se2- 4 e 0.31010(6) 0.17940(9) 0.85407(6) 1. 0 
Se5 Se2- 4 e 0.44848(6) 0.02568(9) 0.18201(7) 1. 0 
Se6 Se2- 4 e 0.59375(6) 0.19512(9) 0.56352(6) 1. 0 
P1 P4+ 4 e 0.19343(16) 0.1123(2) 0.24898(17) 1. 0 
P2 P4+ 4 e 0.68140(16) 0.0991(2) 0.75217(17) 1. 0 
Na1 Na1+ 4 e 0.8598(3) 0.1071(4) 0.1233(3) 1. 0 

loop_
_atom_site_aniso_label
_atom_site_aniso_type_symbol
_atom_site_aniso_U_11
_atom_site_aniso_U_22
_atom_site_aniso_U_33
_atom_site_aniso_U_12
_atom_site_aniso_U_13
_atom_site_aniso_U_23
Ce1 Ce3+ 0.0023(2) 0.0046(2) 0.0056(2) 0.00032(14) 0.00128(17) 0.00012(15)
Se1 Se2- 0.0063(4) 0.0081(4) 0.0096(4) 0.0001(3) 0.0054(3) 0.0012(3)
Se2 Se2- 0.0023(4) 0.0084(4) 0.0054(4) 0.0000(3) -.0008(3) 0.0016(3)
Se3 Se2- 0.0025(4) 0.0063(4) 0.0087(4) -.0002(2) -.0003(3) 0.0027(3)
Se4 Se2- 0.0039(4) 0.0060(4) 0.0057(4) 0.0012(3) 0.0002(3) 0.0001(3)
Se5 Se2- 0.0022(4) 0.0075(4) 0.0074(4) 0.0011(3) 0.0022(3) 0.0017(3)
Se6 Se2- 0.0031(4) 0.0063(4) 0.0042(4) 0.0011(2) -.0001(3) 0.0007(3)
P1 P4+ 0.0016(9) 0.0047(9) 0.0039(9) 0.0003(7) -.0006(7) 0.0004(7)
P2 P4+ 0.0015(9) 0.0043(9) 0.0041(9) 0.0009(6) 0.0008(7) 0.0009(7)
Na1 Na1+ 0.0069(15) 0.0117(16) 0.0156(16) -.0012(12) 0.0006(13) 0.0012(13)
#End of data_280809-ICSD


