data_39266-ICSD
#?2014 by Fachinformationszentrum Karlsruhe, and the U.S. Secretary of 
#Commerce on behalf of the United States.  All rights reserved.
_database_code_ICSD                39266
_audit_creation_date               1990/12/27
_audit_update_record               1991/04/20
_chemical_name_systematic          'Lithium Ammonium Molybdate Hydrate'
_chemical_formula_structural       'Li (N H4) (Mo O4) H2 O'
_chemical_formula_sum              'H6 Li1 Mo1 N1 O5'
_publ_section_title
;
Crystal structure of monohydrate lithiumammonium molybdate 
LiNH4MoO4*H2O
;
loop_
_citation_id
_citation_journal_abbrev
_citation_year
_citation_journal_volume
_citation_journal_issue
_citation_page_first
_citation_page_last
_citation_journal_id_ASTM
primary 'Koordinatsionnaya Khimiya (= Coordination Chemistry (USSR))'
 1990 16 6 793 795 KOKHDC
_publ_author_name
;
Makitova, D.D.;Tkachev, V.V.;Atovmyan, L.O.
;
_cell_length_a                     7.865(2)
_cell_length_b                     10.883(2)
_cell_length_c                     12.956(2)
_cell_angle_alpha                  90.
_cell_angle_beta                   90.
_cell_angle_gamma                  90.
_cell_volume                       1108.97
_cell_formula_units_Z              8
_symmetry_space_group_name_H-M     'P c a b'
_symmetry_Int_Tables_number        61
_refine_ls_R_factor_all            .058
loop_
_symmetry_equiv_pos_site_id
_symmetry_equiv_pos_as_xyz
  1	'x+.5, -y+.5, z'
  2	'x, y+.5, -z+.5'
  3	'-x+.5, y, z+.5'
  4	'-x, -y, -z'
  5	'-x+.5, y+.5, -z'
  6	'-x, -y+.5, z+.5'
  7	'x+.5, -y, -z+.5'
  8	'x, y, z'
loop_
_atom_type_symbol
_atom_type_oxidation_number
H1+	1
Li1+	1
Mo6+	6
N3-	-3
O2-	-2
loop_
_atom_site_label
_atom_site_type_symbol
_atom_site_symmetry_multiplicity
_atom_site_Wyckoff_symbol
_atom_site_fract_x
_atom_site_fract_y
_atom_site_fract_z
_atom_site_occupancy
_atom_site_attached_hydrogens
_atom_site_B_iso_or_equiv
Mo1 Mo6+ 8 c 0.4297 0.1252 0.1276 1. 0 1.25 
O1 O2- 8 c 0.5479(5) 0.0132(4) 0.1937(3) 1. 0 1.35 
O2 O2- 8 c 0.4201(6) 0.2584(4) 0.2048(3) 1. 0 1.77 
O3 O2- 8 c 0.2203(5) 0.0716(4) 0.1038(3) 1. 0 1.75 
O4 O2- 8 c 0.5250(5) 0.1595(4) 0.0108(3) 1. 0 1.79 
O5 O2- 8 c 0.3579(5) 0.5334(4) 0.1031(3) 1. 0 1.95 
N1 N3- 8 c 0.1977(7) 0.3010(5) 0.3740(4) 1. 0 2.03 
Li1 Li1+ 8 c 0.5109(11) 0.4219(9) 0.1766(8) 1. 0 5.31 
H1 H1+ 8 c 0.331 0.535 0.039 1. 0 0 
H2 H1+ 8 c 0.263 0.512 0.127 1. 0 0 
H3 H1+ 8 c 0.108 0.244 0.407 1. 0 0 
H4 H1+ 8 c 0.24 0.297 0.31 1. 0 0 
H5 H1+ 8 c 0.225 0.335 -.066 1. 0 0 
H6 H1+ 8 c 0.38 0.245 -.085 1. 0 0 

#End of data_39266-ICSD


