data_173756-ICSD
#?2014 by Fachinformationszentrum Karlsruhe, and the U.S. Secretary of 
#Commerce on behalf of the United States.  All rights reserved.
_database_code_ICSD                173756
_audit_creation_date               2009/08/01
_chemical_name_systematic          'Sodium Niobate'
_chemical_formula_structural       'Na (Nb O3)'
_chemical_formula_sum              'Na1 Nb1 O3'
_publ_section_title
;
Nanocrystalline Na Nb O3 and Na Ta O3: Rietveld studies, Raman 
spectroscopy and dielectric properties
;
loop_
_citation_id
_citation_journal_abbrev
_citation_year
_citation_journal_volume
_citation_journal_issue
_citation_page_first
_citation_page_last
_citation_journal_id_ASTM
primary 'Solid State Sciences' 2009 11 2 562 569 SSSCFJ
_publ_author_name
;
Shanker, V.;Samal, S.L.;Pradhan, G.K.;Narayana, C.;Ganguli, A.K.
;
_cell_length_a                     7.8636(7)
_cell_length_b                     5.6306(9)
_cell_length_c                     5.5483(9)
_cell_angle_alpha                  90.
_cell_angle_beta                   90.
_cell_angle_gamma                  90.
_cell_volume                       245.66
_cell_formula_units_Z              4
_symmetry_space_group_name_H-M     'P m c 21'
_symmetry_Int_Tables_number        26
_refine_ls_R_factor_all            .09
loop_
_symmetry_equiv_pos_site_id
_symmetry_equiv_pos_as_xyz
  1	'x, -y, z+.5'
  2	'-x, -y, z+.5'
  3	'-x, y, z'
  4	'x, y, z'
loop_
_atom_type_symbol
_atom_type_oxidation_number
Na1+	1
Nb5+	5
O2-	-2
loop_
_atom_site_label
_atom_site_type_symbol
_atom_site_symmetry_multiplicity
_atom_site_Wyckoff_symbol
_atom_site_fract_x
_atom_site_fract_y
_atom_site_fract_z
_atom_site_occupancy
_atom_site_attached_hydrogens
Nb1 Nb5+ 4 c 0.749(1) 0.753(1) 0.781(2) 1. 0 
Na1 Na1+ 2 a 0 0.259(2) 0.75 1. 0 
Na2 Na1+ 2 b 0.5 0.262(2) 0.778(1) 1. 0 
O1 O2- 2 a 0 0.192(3) 0.317(4) 1. 0 
O2 O2- 2 b 0.5 0.316(5) 0.313(2) 1. 0 
O3 O2- 4 c 0.220(2) 0.507(3) 0.081(1) 1. 0 
O4 O2- 4 c 0.272(1) 0.943(3) 0.512(5) 1. 0 

#End of data_173756-ICSD


