data_201817-ICSD
#?2014 by Fachinformationszentrum Karlsruhe, and the U.S. Secretary of 
#Commerce on behalf of the United States.  All rights reserved.
_database_code_ICSD                201817
_audit_creation_date               1985/07/17
_audit_update_record               2006/04/01
_chemical_name_systematic          'Lithium Iodate(V) - Gamma'
_chemical_formula_structural       'Li (I O3)'
_chemical_formula_sum              'I1 Li1 O3'
_publ_section_title
;
Neutron structure refinement of gamma- and beta-lithium: Comparison 
between alpha, gamma, and beta phases
;
loop_
_citation_id
_citation_journal_abbrev
_citation_year
_citation_journal_volume
_citation_page_first
_citation_page_last
_citation_journal_id_ASTM
primary 'Journal of Solid State Chemistry' 1985 56 133 147 JSSCBI
2 'Golden Book of Phase Transitions, Wroclaw' 2002 1 1 123 GBOPT5
_publ_author_name
;
Crettez, J.M.;Coquet, E.;Pannetier, J.;Bouillot, J.;Durand-Le Floch, 
M.
;
_cell_length_a                     9.4039(4)
_cell_length_b                     5.8539(3)
_cell_length_c                     5.2915(3)
_cell_angle_alpha                  90.
_cell_angle_beta                   90.
_cell_angle_gamma                  90.
_cell_volume                       291.29
_cell_formula_units_Z              4
_symmetry_space_group_name_H-M     'P n a 21'
_symmetry_Int_Tables_number        33
_refine_ls_R_factor_all            .095
loop_
_symmetry_equiv_pos_site_id
_symmetry_equiv_pos_as_xyz
  1	'x+.5, -y+.5, z'
  2	'-x+.5, y+.5, z+.5'
  3	'-x, -y, z+.5'
  4	'x, y, z'
loop_
_atom_type_symbol
_atom_type_oxidation_number
I5+	5
Li1+	1
O2-	-2
loop_
_atom_site_label
_atom_site_type_symbol
_atom_site_symmetry_multiplicity
_atom_site_Wyckoff_symbol
_atom_site_fract_x
_atom_site_fract_y
_atom_site_fract_z
_atom_site_occupancy
_atom_site_attached_hydrogens
_atom_site_B_iso_or_equiv
Li1 Li1+ 4 a -.0236(10) -.0901(15) 0.0086(41) 1. 0 4.9(3) 
I1 I5+ 4 a 0.3203(3) 0.0733(5) 0 1. 0 0.8(1) 
O1 O2- 4 a 0.1499(3) 0.0231(6) -.1842(9) 1. 0 2.9(1) 
O2 O2- 4 a 0.4269(4) -.1447(5) -.1685(13) 1. 0 3.8(1) 
O3 O2- 4 a 0.3738(4) 0.3147(6) -.1891(12) 1. 0 2.9(1) 

#End of data_201817-ICSD


