data_262932-ICSD
#?2014 by Fachinformationszentrum Karlsruhe, and the U.S. Secretary of 
#Commerce on behalf of the United States.  All rights reserved.
_database_code_ICSD                262932
_audit_creation_date               2012/08/01
_chemical_name_systematic
;
Aluminium Orthophosphate - High Pressure Phase
;
_chemical_formula_structural       'Al (P O4)'
_chemical_formula_sum              'Al1 O4 P1'
_publ_section_title
;
Structural characterization of moganite-type Al P O4 by NMR and 
powder X-ray diffraction
;
loop_
_citation_id
_citation_journal_abbrev
_citation_year
_citation_journal_volume
_citation_journal_issue
_citation_page_first
_citation_page_last
_citation_journal_id_ASTM
primary 'Inorganic Chemistry' 2012 51 11 6164 6172 INOCAJ
_publ_author_name                  'Kanzaki, M.;Xue Xianyu'
_cell_length_a                     8.7438(1)
_cell_length_b                     4.85855(7)
_cell_length_c                     10.8602(2)
_cell_angle_alpha                  90
_cell_angle_beta                   90.1276(9)
_cell_angle_gamma                  90
_cell_volume                       461.36
_cell_formula_units_Z              6
_symmetry_space_group_name_H-M     'P 1 2/a 1'
_symmetry_Int_Tables_number        13
_refine_ls_R_factor_all            .0419
loop_
_symmetry_equiv_pos_site_id
_symmetry_equiv_pos_as_xyz
  1	'x+.5, -y, z'
  2	'-x, -y, -z'
  3	'-x+.5, y, -z'
  4	'x, y, z'
loop_
_atom_type_symbol
_atom_type_oxidation_number
Al3+	3
O2-	-2
P5+	5
loop_
_atom_site_label
_atom_site_type_symbol
_atom_site_symmetry_multiplicity
_atom_site_Wyckoff_symbol
_atom_site_fract_x
_atom_site_fract_y
_atom_site_fract_z
_atom_site_occupancy
_atom_site_attached_hydrogens
_atom_site_U_iso_or_equiv
Al1 Al3+ 2 f 0.25 0.529(2) 0.5 1 0 0.007(1) 
Al2 Al3+ 4 g 0.0162(6) 0.2597(9) 0.1666(5) 1 0 0.007(1) 
P1 P5+ 2 e 0.25 -0.042(1) 0 1 0 0.0061(8) 
P2 P5+ 4 g 0.0126(6) 0.2409(9) 0.6665(5) 1 0 0.0061(8) 
O1 O2- 4 g 1.029(1) -0.063(1) 0.7059(8) 1 0 0.0100(6) 
O2 O2- 4 g 0.975(1) 0.406(1) 0.7840(8) 1 0 0.0100(6) 
O3 O2- 4 g 0.1856(9) 0.154(2) 0.0994(8) 1 0 0.0100(6) 
O4 O2- 4 g 0.1659(8) 0.338(2) 0.6132(8) 1 0 0.0100(6) 
O5 O2- 4 g 0.8744(8) 0.211(1) 0.0559(7) 1 0 0.0100(6) 
O6 O2- 4 g 0.8863(8) 0.250(2) 0.5676(7) 1 0 0.0100(6) 

#End of data_262932-ICSD


