data_79070-ICSD
#?2014 by Fachinformationszentrum Karlsruhe, and the U.S. Secretary of 
#Commerce on behalf of the United States.  All rights reserved.
_database_code_ICSD                79070
_audit_creation_date               1996/04/22
_audit_update_record               2013/08/01
_chemical_name_systematic          'Dicalcium Octanitridopentasilicate'
_chemical_formula_structural       'Ca2 (Si5 N8)'
_chemical_formula_sum              'Ca2 N8 Si5'
_publ_section_title
;
Hochtemperatur-Synthese und Kristallstruktur von Ca2 Si5 N8
;
loop_
_citation_id
_citation_journal_abbrev
_citation_year
_citation_journal_volume
_citation_page_first
_citation_page_last
_citation_journal_id_ASTM
primary 'Zeitschrift fuer Anorganische und Allgemeine Chemie (1950) (DE)'
 1995 621 1037 1041 ZAACAB
_publ_author_name                  'Schlieper, T.;Schnick, W.'
_cell_length_a                     14.352(3)
_cell_length_b                     5.610(1)
_cell_length_c                     9.689(2)
_cell_angle_alpha                  90.
_cell_angle_beta                   112.06(3)
_cell_angle_gamma                  90.
_cell_volume                       723
_cell_formula_units_Z              4
_symmetry_space_group_name_H-M     'C 1 c 1'
_symmetry_Int_Tables_number        9
_refine_ls_R_factor_all            .023
loop_
_symmetry_equiv_pos_site_id
_symmetry_equiv_pos_as_xyz
  1	'x, -y, z+.5'
  2	'x, y, z'
  3	'x+.5, -y+.5, z+.5'
  4	'x+.5, y+.5, z'
loop_
_atom_type_symbol
_atom_type_oxidation_number
Ca2+	2
N3-	-3
Si4+	4
loop_
_atom_site_label
_atom_site_type_symbol
_atom_site_symmetry_multiplicity
_atom_site_Wyckoff_symbol
_atom_site_fract_x
_atom_site_fract_y
_atom_site_fract_z
_atom_site_occupancy
_atom_site_attached_hydrogens
Ca1 Ca2+ 4 a 0 0.7637(3) 0 1. 0 
Ca2 Ca2+ 4 a 0.6112(1) 0.7457(2) 0.2000(8) 1. 0 
Si1 Si4+ 4 a 0.0581(2) 0.8055(2) 0.3539(2) 1. 0 
Si2 Si4+ 4 a 0.7557(1) 0.2097(3) 0.3182(2) 1. 0 
Si3 Si4+ 4 a 0.7545(1) 0.4966(4) 0.0631(2) 1. 0 
Si4 Si4+ 4 a 0.3627(1) 0.2078(4) 0.3681(2) 1. 0 
Si5 Si4+ 4 a 0.8552(2) 0.0027(4) 0.1264(2) 1. 0 
N1 N3- 4 a 0.9866(5) 0.638(1) 0.4289(6) 1. 0 
N2 N3- 4 a 0.1286(4) 0.009(1) 0.9959(5) 1. 0 
N3 N3- 4 a 0.7959(2) 0.2424(6) 0.1702(3) 1. 0 
N4 N3- 4 a 0.8027(3) 0.7484(6) 0.1752(3) 1. 0 
N5 N3- 4 a 0.9798(3) 0.999(1) 0.2178(6) 1. 0 
N6 N3- 4 a 0.8335(2) 0.0145(5) 0.9349(4) 1. 0 
N7 N3- 4 a 0.6309(5) 0.157(1) 0.2732(7) 1. 0 
N8 N3- 4 a 0.7960(3) 0.4826(6) 0.4161(3) 1. 0 

loop_
_atom_site_aniso_label
_atom_site_aniso_type_symbol
_atom_site_aniso_U_11
_atom_site_aniso_U_22
_atom_site_aniso_U_33
_atom_site_aniso_U_12
_atom_site_aniso_U_13
_atom_site_aniso_U_23
Ca1 Ca2+ 0.093(5) 0.0081(6) 0.0143(5) -.0014(4) 0.0058(4) -.0023(4)
Ca2 Ca2+ 0.0105(5) 0.0082(5) 0.0142(5) -.0018(4) 0.0059(4) -.0025(4)
Si1 Si4+ 0.0048(3) 0.0082(3) 0.0058(4) -.0005(9) 0.0015(3) 0.0001(7)
Si2 Si4+ 0.0058(7) 0.0052(6) 0.0056(6) -.0003(5) 0.0024(5) -.006(5)
Si3 Si4+ 0.0051(6) 0.0052(7) 0.0052(7) 0.0013(6) 0.0016(5) 0.0003(5)
Si4 Si4+ 0.0055(6) 0.0054(6) 0.0051(6) -.0007(5) 0.0019(5) -.0008(5)
Si5 Si4+ 0.0050(6) 0.0052(7) 0.0058(6) -.0005(7) 0.0019(5) 0.0004(6)
N1 N3- 0.006(2) 0.0119(2) 0.006(1) -.0004(1) 0.003(1) 0.003(1)
N2 N3- 0.007(2) 0.011(2) 0.010(2) 0.005(2) 0.004(2) 0.003(2)
N3 N3- 0.008(1) 0.006(1) 0.004(1) 0.003(1) 0.002(1) 0.001(1)
N4 N3- 0.008(1) 0.006(1) 0.006(1) -.002(1) 0.002(1) 0.000(1)
N5 N3- 0.003(1) 0.008(2) 0.008(2) -.004(2) 0.000(1) 0.002(1)
N6 N3- 0.005(1) 0.008(1) 0.006(1) 0.000(1) 0.002(1) 0.000(1)
N7 N3- 0.006(2) 0.003(2) 0.013(2) 0.000(1) 0.004(1) 0.000(2)
N8 N3- 0.0090(1) 0.0090(1) 0.008(1) -.002(1) 0.005(1) -.001(1)
#End of data_79070-ICSD


