data_407225-ICSD
#?2014 by Fachinformationszentrum Karlsruhe, and the U.S. Secretary of 
#Commerce on behalf of the United States.  All rights reserved.
_database_code_ICSD                407225
_audit_creation_date               1998/06/26
_chemical_name_systematic          'Potassium Neodymium Carbonate'
_chemical_formula_structural       'K Nd (C O3)2'
_chemical_formula_sum              'C2 K1 Nd1 O6'
_publ_section_title
;
Kalium-Lanthanoid-Carbonate, K M (C O3)2 (M= Nd, Gd, Dy, Ho, Yb)
;
loop_
_citation_id
_citation_journal_abbrev
_citation_year
_citation_journal_volume
_citation_page_first
_citation_page_last
_citation_journal_id_ASTM
primary 'Zeitschrift fuer Anorganische und Allgemeine Chemie (1950) (DE)'
 1997 623 1753 1758 ZAACAB
_publ_author_name
;
Kutlu, I.;Kalz, H.J.;Wartchow, R.;Ehrhardt, H.;Seidel, H.;Meyer, G.
;
_cell_length_a                     9.731(2)
_cell_length_b                     6.4569(8)
_cell_length_c                     8.5558(14)
_cell_angle_alpha                  90.
_cell_angle_beta                   90.
_cell_angle_gamma                  90.
_cell_volume                       537.58
_cell_formula_units_Z              4
_symmetry_space_group_name_H-M     'P m n 21'
_symmetry_Int_Tables_number        31
_refine_ls_R_factor_all            .0763
loop_
_symmetry_equiv_pos_site_id
_symmetry_equiv_pos_as_xyz
  1	'x+.5, -y, z+.5'
  2	'-x+.5, -y, z+.5'
  3	'-x, y, z'
  4	'x, y, z'
loop_
_atom_type_symbol
_atom_type_oxidation_number
C4+	4
K1+	1
Nd3+	3
O2-	-2
loop_
_atom_site_label
_atom_site_type_symbol
_atom_site_symmetry_multiplicity
_atom_site_Wyckoff_symbol
_atom_site_fract_x
_atom_site_fract_y
_atom_site_fract_z
_atom_site_occupancy
_atom_site_attached_hydrogens
Nd1 Nd3+ 2 a 0.5 0.9657(2) 0.9528(2) 1. 0 
Nd2 Nd3+ 2 a 0.5 0.0298(2) 0.4506(2) 1. 0 
K1 K1+ 4 b 0.7588(5) 0.4694(19) 0.6927(24) 1. 0 
O1 O2- 2 a 0.5 0.3689(42) 0.5767(32) 1. 0 
O2 O2- 2 a 0.5 0.6717(27) 0.4306(34) 1. 0 
O3 O2- 2 a 0.5 0.3767(50) 0.3178(33) 1. 0 
C1 C4+ 2 a 0.5 0.4745(25) 0.4496(40) 1. 0 
O4 O2- 4 b 0.6378(12) 0.9637(36) 0.2033(44) 1. 0 
O5 O2- 4 b 0.6326(14) 0.9736(46) 0.6926(39) 1. 0 
O6 O2- 4 b 0.7466(12) 0.1108(22) 0.3961(16) 1. 0 
C2 C4+ 4 b 0.7480(17) 0.9695(27) 0.7608(23) 1. 0 
O7 O2- 2 a 0.5 0.6077(30) 0.9677(56) 1. 0 
O8 O2- 4 b 0.613(1) 0.3069(16) 0.9551(32) 1. 0 
C3 C4+ 2 a 0.5 0.4052(29) 0.9532(62) 1. 0 

loop_
_atom_site_aniso_label
_atom_site_aniso_type_symbol
_atom_site_aniso_U_11
_atom_site_aniso_U_22
_atom_site_aniso_U_33
_atom_site_aniso_U_12
_atom_site_aniso_U_13
_atom_site_aniso_U_23
Nd1 Nd3+ 0.0183(6) 0.0167(6) 0.0191(8) 0 0 0.000(2)
Nd2 Nd3+ 0.0171(6) 0.0179(6) 0.0166(7) 0 0 0.001(2)
K1 K1+ 0.034(2) 0.051(8) 0.043(5) -.004(3) 0.004(3) 0.014(6)
O1 O2- 0.025(12) 0.017(14) 0.029(12) 0 0 0.006(11)
O2 O2- 0.150(24) 0.029(9) 0.007(14) 0 0 0.009(9)
O3 O2- 0.045(15) 0.040(21) 0.027(14) 0 0 0.000(13)
C1 C4+ 0.028(13) 0.016(10) 0.052(18) 0 0 0.018(32)
O4 O2- 0.005(4) 0.041(14) 0.041(8) -.012(8) -.001(10) -.010(11)
O5 O2- 0.016(5) 0.062(16) 0.007(8) -.001(9) 0.000(9) -.002(9)
O6 O2- 0.028(6) 0.025(7) 0.026(6) -.002(5) -.012(5) -.004(5)
C2 C4+ 0.022(9) 0.019(8) 0.014(7) -.011(7) 0.006(7) -.002(5)
O7 O2- 0.051(11) 0.024(9) 0.061(19) 0 0 -.034(15)
O8 O2- 0.013(4) 0.025(5) 0.048(7) 0.005(4) -.007(9) -.007(12)
C3 C4+ 0.039(11) 0.005(8) 0.031(13) 0 0 -.016(24)
#End of data_407225-ICSD


