data_409063-ICSD
#?2014 by Fachinformationszentrum Karlsruhe, and the U.S. Secretary of 
#Commerce on behalf of the United States.  All rights reserved.
_database_code_ICSD                409063
_audit_creation_date               1999/06/02
_chemical_name_systematic          'Potassium Tetrabromoindate'
_chemical_formula_structural       'K (In Br4)'
_chemical_formula_sum              'Br4 In1 K1'
_publ_section_title
;
Crystal structure of potassium tetrabromoindate(III), K In Br4
;
loop_
_citation_id
_citation_journal_abbrev
_citation_year
_citation_journal_volume
_citation_page_first
_citation_page_last
_citation_journal_id_ASTM
primary 'Zeitschrift fuer Kristallographie - New Crystal Structures'
 1998 213 231 231 ZKNSFT
_publ_author_name
;
Quadflieg, J.;Scholten, M.;Dronskowski, R.
;
_cell_length_a                     7.8947(3)
_cell_length_b                     10.3943(5)
_cell_length_c                     10.3895(4)
_cell_angle_alpha                  90.
_cell_angle_beta                   90.
_cell_angle_gamma                  90.
_cell_volume                       852.56
_cell_formula_units_Z              4
_symmetry_space_group_name_H-M     'P n n a'
_symmetry_Int_Tables_number        52
_refine_ls_R_factor_all            .024
loop_
_symmetry_equiv_pos_site_id
_symmetry_equiv_pos_as_xyz
  1	'x+.5, -y+.5, z+.5'
  2	'-x, y+.5, z+.5'
  3	'x+.5, y, -z'
  4	'-x, -y, -z'
  5	'-x+.5, y+.5, -z+.5'
  6	'x, -y+.5, -z+.5'
  7	'-x+.5, -y, z'
  8	'x, y, z'
loop_
_atom_type_symbol
_atom_type_oxidation_number
Br1-	-1
In3+	3
K1+	1
loop_
_atom_site_label
_atom_site_type_symbol
_atom_site_symmetry_multiplicity
_atom_site_Wyckoff_symbol
_atom_site_fract_x
_atom_site_fract_y
_atom_site_fract_z
_atom_site_occupancy
_atom_site_attached_hydrogens
_atom_site_B_iso_or_equiv
In1 In3+ 4 c 0.25 0 0.1812(3) 1. 0 1.46(7) 
K1 K1+ 4 d 0.6874(15) 0.25 0.25 1. 0 1.9(3) 
Br1 Br1- 8 e 0.3420(4) 0.1889(3) 0.0490(4) 1. 0 1.83(9) 
Br2 Br1- 8 e 0.9952(5) 0.0447(3) 0.3203(4) 1. 0 1.94(8) 

#End of data_409063-ICSD


