data_109365-ICSD
#?2014 by Fachinformationszentrum Karlsruhe, and the U.S. Secretary of 
#Commerce on behalf of the United States.  All rights reserved.
_database_code_ICSD                109365
_audit_creation_date               2007/04/01
_chemical_name_systematic          'Dithallium Pentafluoroaluminate'
_chemical_formula_structural       'Tl2 (Al F5)'
_chemical_formula_sum              'Al1 F5 Tl2'
_publ_section_title
;
Electrochemical and X-ray investigations of complex aluminium 
fluorides
;
loop_
_citation_id
_citation_journal_abbrev
_citation_year
_citation_journal_volume
_citation_page_first
_citation_page_last
_citation_journal_id_ASTM
primary 'Thesis, Univ. Stockholm' 1942 1942 97 105 THUSTP
_publ_author_name                  'Brosset, C.'
_cell_length_a                     10.06(1)
_cell_length_b                     8.24(1)
_cell_length_c                     7.46(1)
_cell_angle_alpha                  90.
_cell_angle_beta                   90.
_cell_angle_gamma                  90.
_cell_volume                       618.39
_cell_formula_units_Z              4
_symmetry_space_group_name_H-M     'C m c m'
_symmetry_Int_Tables_number        63
loop_
_symmetry_equiv_pos_site_id
_symmetry_equiv_pos_as_xyz
  1	'-x, y, -z+.5'
  2	'-x, -y, z+.5'
  3	'-x, y, z'
  4	'-x, -y, -z'
  5	'x, -y, z+.5'
  6	'x, y, -z+.5'
  7	'x, -y, -z'
  8	'x, y, z'
  9	'-x+.5, y+.5, -z+.5'
 10	'-x+.5, -y+.5, z+.5'
 11	'-x+.5, y+.5, z'
 12	'-x+.5, -y+.5, -z'
 13	'x+.5, -y+.5, z+.5'
 14	'x+.5, y+.5, -z+.5'
 15	'x+.5, -y+.5, -z'
 16	'x+.5, y+.5, z'
loop_
_atom_type_symbol
_atom_type_oxidation_number
Al3+	3
F1-	-1
Tl1+	1
loop_
_atom_site_label
_atom_site_type_symbol
_atom_site_symmetry_multiplicity
_atom_site_Wyckoff_symbol
_atom_site_fract_x
_atom_site_fract_y
_atom_site_fract_z
_atom_site_occupancy
_atom_site_attached_hydrogens
Tl1 Tl1+ 8 g 0.21 0.3 0.25 1. 0 
Al1 Al3+ 4 a 0 0 0 1. 0 
F1 F1- 8 e 0.18 0 0 1. 0 
F2 F1- 8 f 0 0.23 -.03 1. 0 
F3 F1- 4 c 0 0.05 0.25 1. 0 

#End of data_109365-ICSD


