data_200294-ICSD
#?2014 by Fachinformationszentrum Karlsruhe, and the U.S. Secretary of 
#Commerce on behalf of the United States.  All rights reserved.
_database_code_ICSD                200294
_audit_creation_date               1980/01/01
_audit_update_record               2012/08/01
_chemical_name_systematic
;
Dipotassium Dicadmium Tris(sulfate(VI))
;
_chemical_formula_structural       'K2 Cd2 (S O4)3'
_chemical_formula_sum              'Cd2 K2 O12 S3'
_publ_section_title
;
Piezoelectric langbeinite-type K2 Cd2 (S O4)3 structure at four 
temperatures below and one above the 432 K ferroelastic- paraelastic 
transition
;
loop_
_citation_id
_citation_journal_abbrev
_citation_year
_citation_journal_volume
_citation_page_first
_citation_page_last
_citation_journal_id_ASTM
primary 'Journal of Chemical Physics' 1978 68 1926 1935 JCPSA6
2 'Golden Book of Phase Transitions, Wroclaw' 2002 1 1 123 GBOPT5
_publ_author_name
;
Abrahams, S.C.;Lissalde, F.;Bernstein, J.L.
;
_cell_length_a                     10.2501(10)
_cell_length_b                     10.2972(8)
_cell_length_c                     10.2132(9)
_cell_angle_alpha                  90.
_cell_angle_beta                   90.
_cell_angle_gamma                  90.
_cell_volume                       1077.98
_cell_formula_units_Z              4
_symmetry_space_group_name_H-M     'P 21 21 21'
_symmetry_Int_Tables_number        19
_refine_ls_R_factor_all            .0368
loop_
_symmetry_equiv_pos_site_id
_symmetry_equiv_pos_as_xyz
  1	'-x, y+.5, -z+.5'
  2	'x+.5, -y+.5, -z'
  3	'-x+.5, -y, z+.5'
  4	'x, y, z'
loop_
_atom_type_symbol
_atom_type_oxidation_number
Cd2+	2
K1+	1
O2-	-2
S6+	6
loop_
_atom_site_label
_atom_site_type_symbol
_atom_site_symmetry_multiplicity
_atom_site_Wyckoff_symbol
_atom_site_fract_x
_atom_site_fract_y
_atom_site_fract_z
_atom_site_occupancy
_atom_site_attached_hydrogens
K1 K1+ 4 a 0.17315(21) 0.31260(19) 0.69123(23) 1. 0 
K2 K1+ 4 a 0.04203(25) 0.05334(24) 0.05926(23) 1. 0 
Cd1 Cd2+ 4 a 0.31304(6) 0.33944(4) 0.33198(6) 1. 0 
Cd2 Cd2+ 4 a 0.40262(6) 0.08920(5) 0.92298(5) 1. 0 
S1 S6+ 4 a 0.21810(17) 0.37313(15) 0.02209(18) 1. 0 
S2 S6+ 4 a 0.38141(19) 0.00895(15) 0.24202(17) 1. 0 
S3 S6+ 4 a 0.00030(17) 0.21873(14) 0.37001(19) 1. 0 
O1 O2- 4 a 0.3067(10) 0.2645(7) 0.0189(9) 1. 0 
O2 O2- 4 a 0.0848(7) 0.3261(7) 0.9909(8) 1. 0 
O3 O2- 4 a 0.2582(10) 0.4659(8) 0.9223(7) 1. 0 
O4 O2- 4 a 0.2206(9) 0.4318(7) 0.1542(8) 1. 0 
O5 O2- 4 a 0.2981(7) 0.9418(8) 0.3349(6) 1. 0 
O6 O2- 4 a 0.3968(9) 0.1460(6) 0.2796(7) 1. 0 
O7 O2- 4 a 0.5129(8) 0.9499(8) 0.2476(9) 1. 0 
O8 O2- 4 a 0.3245(8) 0.9941(8) 0.1122(6) 1. 0 
O9 O2- 4 a 0.0441(9) 0.0939(7) 0.3187(9) 1. 0 
O10 O2- 4 a 0.9089(9) 0.1979(12) 0.4736(9) 1. 0 
O11 O2- 4 a 0.9417(10) 0.2928(9) 0.2654(9) 1. 0 
O12 O2- 4 a 0.1155(9) 0.2896(10) 0.4230(8) 1. 0 

#End of data_200294-ICSD


