data_167235-ICSD
#?2014 by Fachinformationszentrum Karlsruhe, and the U.S. Secretary of 
#Commerce on behalf of the United States.  All rights reserved.
_database_code_ICSD                167235
_audit_creation_date               2010/08/01
_chemical_name_systematic          'Sodium Tetrahydridoborate'
_chemical_formula_structural       'Na (B H4)'
_chemical_formula_sum              'H4 B1 Na1'
_publ_section_title
;
Structural and dynamical properties of Na B H4 and K B H4: NMR and 
synchrotron X-ray diffraction studies
;
loop_
_citation_id
_citation_journal_abbrev
_citation_year
_citation_journal_volume
_citation_page_first
_citation_page_last
_citation_journal_id_ASTM
primary 'Journal of Physical Chemistry C' 2010 114 3712 3718 JPCCCK
_publ_author_name
;
Babanova, O.A.;Soloninin, A.V.;Stepanov, A.P.;Skripov, 
A.V.;Filinchuk, Ya.
;
_cell_length_a                     4.37062(4)
_cell_length_b                     4.37062(4)
_cell_length_c                     5.95094(9)
_cell_angle_alpha                  90.
_cell_angle_beta                   90.
_cell_angle_gamma                  90.
_cell_volume                       113.68
_cell_formula_units_Z              2
_symmetry_space_group_name_H-M     'P 42/n m c Z'
_symmetry_Int_Tables_number        137
_refine_ls_R_factor_all            .018
loop_
_symmetry_equiv_pos_site_id
_symmetry_equiv_pos_as_xyz
  1	'y+.5, x+.5, -z+.5'
  2	'-y, x+.5, -z+.5'
  3	'y+.5, -x, -z+.5'
  4	'-y, -x, -z+.5'
  5	'x+.5, y+.5, -z'
  6	'-x, y+.5, -z'
  7	'x+.5, -y, -z'
  8	'-x, -y, -z'
  9	'-y+.5, -x+.5, z+.5'
 10	'y, -x+.5, z+.5'
 11	'-y+.5, x, z+.5'
 12	'y, x, z+.5'
 13	'-x+.5, -y+.5, z'
 14	'x, -y+.5, z'
 15	'-x+.5, y, z'
 16	'x, y, z'
loop_
_atom_type_symbol
_atom_type_oxidation_number
B3+	3
H1-	-1
Na1+	1
loop_
_atom_site_label
_atom_site_type_symbol
_atom_site_symmetry_multiplicity
_atom_site_Wyckoff_symbol
_atom_site_fract_x
_atom_site_fract_y
_atom_site_fract_z
_atom_site_occupancy
_atom_site_attached_hydrogens
_atom_site_B_iso_or_equiv
Na1 Na1+ 2 a 0.750 0.250 0.750 1. 0 2.52(1) 
B1 B3+ 2 b 0.750 0.250 0.250 1. 0 2.17(2) 
H1 H1- 8 g 0.750 0.0290(2) 0.1444(2) 1. 0 3.5(2) 

#End of data_167235-ICSD


