data_8007-ICSD
#?2014 by Fachinformationszentrum Karlsruhe, and the U.S. Secretary of 
#Commerce on behalf of the United States.  All rights reserved.
_database_code_ICSD                8007
_audit_creation_date               1980/01/01
_audit_update_record               2007/04/01
_chemical_name_systematic          'Potassium Tetrafluorotitanate(III)'
_chemical_formula_structural       'K (Ti F4)'
_chemical_formula_sum              'F4 K1 Ti1'
_publ_section_title
;
La structure cristalline du fluorotitanate de potassium K Ti F4
;
loop_
_citation_id
_citation_journal_abbrev
_citation_year
_citation_journal_volume
_citation_page_first
_citation_page_last
_citation_journal_id_ASTM
primary 'Acta Crystallographica B (24,1968-38,1982)' 1979 35 1333 1336 ACBCAR
2 'Phase Transition' 1992 38 127 220 PHTRDP
_publ_author_name
;
Sabatier, R.;Charroin, G.;Avignant, D.;Cousseins, J.C.
;
_cell_length_a                     7.944(10)
_cell_length_b                     7.75(1)
_cell_length_c                     12.195(8)
_cell_angle_alpha                  90.
_cell_angle_beta                   90.
_cell_angle_gamma                  90.
_cell_volume                       750.8
_cell_formula_units_Z              8
_symmetry_space_group_name_H-M     'P c m n'
_symmetry_Int_Tables_number        62
_refine_ls_R_factor_all            .026
loop_
_symmetry_equiv_pos_site_id
_symmetry_equiv_pos_as_xyz
  1	'-x+.5, y, z+.5'
  2	'x, -y+.5, z'
  3	'x+.5, y+.5, -z+.5'
  4	'-x, -y, -z'
  5	'x+.5, -y, -z+.5'
  6	'-x, y+.5, -z'
  7	'-x+.5, -y+.5, z+.5'
  8	'x, y, z'
loop_
_atom_type_symbol
_atom_type_oxidation_number
F1-	-1
K1+	1
Ti3+	3
loop_
_atom_site_label
_atom_site_type_symbol
_atom_site_symmetry_multiplicity
_atom_site_Wyckoff_symbol
_atom_site_fract_x
_atom_site_fract_y
_atom_site_fract_z
_atom_site_occupancy
_atom_site_attached_hydrogens
_atom_site_B_iso_or_equiv
Ti1 Ti3+ 8 d 0.1320(8) 0.0006(1) 0.2517(1) 1. 0 0.6 
K1 K1+ 4 c 0.1291(17) 0.25 0.5269(1) 1. 0 1.4 
K2 K1+ 4 c 0.6280(18) 0.25 0.5156 1. 0 1.4 
F1 F1- 8 d 0.1201(14) 0.0508(3) 0.1007(2) 1. 0 1.6 
F2 F1- 8 d 0.6374(9) 0.0490(3) 0.0966(2) 1. 0 1.3 
F3 F1- 8 d 0.3747(7) 0.0375(2) 0.2461(2) 1. 0 1.9 
F4 F1- 4 c 0.0939(8) 0.25 0.2904(4) 1. 0 1.8 
F5 F1- 4 c 0.6599(4) 0.25 0.2857(4) 1. 0 1.2 

#End of data_8007-ICSD


