data_66147-ICSD
#?2014 by Fachinformationszentrum Karlsruhe, and the U.S. Secretary of 
#Commerce on behalf of the United States.  All rights reserved.
_database_code_ICSD                66147
_audit_creation_date               1992/01/20
_audit_update_record               2012/08/01
_chemical_name_systematic          'Trizinc Diniobium Oxide'
_chemical_formula_structural       'Zn3 Nb2 O8'
_chemical_formula_sum              'Nb2 O8 Zn3'
_publ_section_title
;
The crystal structure of Zn3 Nb2 O8
;
loop_
_citation_id
_citation_journal_abbrev
_citation_year
_citation_journal_volume
_citation_page_first
_citation_page_last
_citation_journal_id_ASTM
primary 'Bulletin of the Tokyo Institute of Technology' 1974 120 1 6 BTITA5
_publ_author_name
;
Isobe, M.;Marumo, F.;Iwai, S.I.;Kondo, Y.
;
_cell_length_a                     19.093(8)
_cell_length_b                     5.927(2)
_cell_length_c                     5.220(3)
_cell_angle_alpha                  90.
_cell_angle_beta                   90.0(1)
_cell_angle_gamma                  90.
_cell_volume                       590.72
_cell_formula_units_Z              4
_symmetry_space_group_name_H-M     'C 1 2/c 1'
_symmetry_Int_Tables_number        15
_refine_ls_R_factor_all            .083
loop_
_symmetry_equiv_pos_site_id
_symmetry_equiv_pos_as_xyz
  1	'x, -y, z+.5'
  2	'-x, -y, -z'
  3	'-x, y, -z+.5'
  4	'x, y, z'
  5	'x+.5, -y+.5, z+.5'
  6	'-x+.5, -y+.5, -z'
  7	'-x+.5, y+.5, -z+.5'
  8	'x+.5, y+.5, z'
loop_
_atom_type_symbol
_atom_type_oxidation_number
Nb5+	5
O2-	-2
Zn2+	2
loop_
_atom_site_label
_atom_site_type_symbol
_atom_site_symmetry_multiplicity
_atom_site_Wyckoff_symbol
_atom_site_fract_x
_atom_site_fract_y
_atom_site_fract_z
_atom_site_occupancy
_atom_site_attached_hydrogens
_atom_site_B_iso_or_equiv
Zn1 Zn2+ 4 e 0 0.6560(7) 0.25 1. 0 0.19(6) 
Zn2 Zn2+ 8 f 0.2792(1) 0.1533(5) 0.2409(5) 1. 0 0.25(4) 
Nb1 Nb5+ 8 f 0.1149(1) 0.1637(3) 0.2596(4) 1. 0 0.31(3) 
O1 O2- 8 f 0.3193(8) 0.3997(26) 0.4482(29) 1. 0 0.13(21) 
O2 O2- 8 f 0.1919(7) 0.3554(27) 0.1278(27) 1. 0 0.10(20) 
O3 O2- 8 f 0.4311(8) 0.3856(28) 0.0745(30) 1. 0 0.20(22) 
O4 O2- 8 f 0.0591(8) 0.3760(27) 0.4127(29) 1. 0 0.18(22) 

#End of data_66147-ICSD


