data_91681-ICSD
#?2014 by Fachinformationszentrum Karlsruhe, and the U.S. Secretary of 
#Commerce on behalf of the United States.  All rights reserved.
_database_code_ICSD                91681
_audit_creation_date               2002/10/01
_chemical_name_systematic          'Aluminium Phosphate(V) - 53'
_chemical_formula_structural       'Al (P O4)'
_chemical_formula_sum              'Al1 O4 P1'
_chemical_name_mineral             'Zeolite AlPO-53'
_publ_section_title
;
The structures of as-synthesized Al P O4 - 53(A), calcined dehydrated 
Al P O4 - 53(B), and Al P O4 - 53(C), a new phase determined by the 
FOCUS method
;
loop_
_citation_id
_citation_journal_abbrev
_citation_year
_citation_journal_volume
_citation_page_first
_citation_page_last
_citation_journal_id_ASTM
primary 'Microporous and Mesoporous Materials' 2000 39 319 332 MIMMFJ
_publ_author_name
;
Kirchner, R.M.;Grosse-Kunstleve, R.W.;Pluth, J.J.;Wilson, 
S.T.;Broach, R.W.;Smith, J.V.
;
_cell_length_a                     16.44398(40)
_cell_length_b                     5.1075(1)
_cell_length_c                     13.4846(4)
_cell_angle_alpha                  90.
_cell_angle_beta                   88.259(1)
_cell_angle_gamma                  90.
_cell_volume                       1132.02
_cell_formula_units_Z              12
_symmetry_space_group_name_H-M     'C 1 2 1'
_symmetry_Int_Tables_number        5
_refine_ls_R_factor_all            .124
loop_
_symmetry_equiv_pos_site_id
_symmetry_equiv_pos_as_xyz
  1	'-x, y, -z'
  2	'x, y, z'
  3	'-x+.5, y+.5, -z'
  4	'x+.5, y+.5, z'
loop_
_atom_type_symbol
_atom_type_oxidation_number
Al3+	3
O2-	-2
P5+	5
loop_
_atom_site_label
_atom_site_type_symbol
_atom_site_symmetry_multiplicity
_atom_site_Wyckoff_symbol
_atom_site_fract_x
_atom_site_fract_y
_atom_site_fract_z
_atom_site_occupancy
_atom_site_attached_hydrogens
_atom_site_U_iso_or_equiv
Al1 Al3+ 4 c 0.9554(7) 0.5478(24) 0.2349(9) 1. 0 0.0185 
Al2 Al3+ 4 c 0.8265(7) 0.1033(23) 0.9191(9) 1. 0 0.0185 
Al3 Al3+ 4 c 0.6466(7) 0.5864(24) 0.4642(9) 1. 0 0.0185 
P1 P5+ 4 c 0.4369(7) 0.5297(23) 0.7364(10) 1. 0 0.041 
P2 P5+ 4 c 0.3340(7) 0.0941(27) 0.4102(9) 1. 0 0.041 
P3 P5+ 4 c 0.1444(7) 0.6198(24) 0.9613(9) 1. 0 0.041 
O1 O2- 4 c 0.8651(11) 0.5711(48) 0.3037(12) 1. 0 0.0226 
O2 O2- 4 c 0.9862(10) 0.2092(31) 0.2454(16) 1. 0 0.0226 
O3 O2- 4 c 0.042(1) 0.7281(30) 0.2461(15) 1. 0 0.0226 
O4 O2- 4 c 0.9267(10) 0.6236(40) 0.1034(11) 1. 0 0.0226 
O5 O2- 4 c 0.3672(12) 0.6291(43) 0.8031(13) 1. 0 0.0226 
O6 O2- 4 c 0.4195(11) 0.6367(38) 0.6265(11) 1. 0 0.0226 
O7 O2- 4 c 0.3746(11) 0.3573(31) 0.4507(13) 1. 0 0.0226 
O8 O2- 4 c 0.3697(11) 0.9071(28) 0.4877(14) 1. 0 0.0226 
O9 O2- 4 c 0.2413(8) 0.0748(46) 0.4095(15) 1. 0 0.0226 
O10 O2- 4 c 0.8670(12) 0.3209(29) 0.9997(13) 1. 0 0.0226 
O11 O2- 4 c 0.8579(12) 0.7643(27) 0.9378(12) 1. 0 0.0226 
O12 O2- 4 c 0.7228(8) 0.1215(46) 0.9002(15) 1. 0 0.0226 

#End of data_91681-ICSD


