data_50224-ICSD
#?2014 by Fachinformationszentrum Karlsruhe, and the U.S. Secretary of 
#Commerce on behalf of the United States.  All rights reserved.
_database_code_ICSD                50224
_audit_creation_date               1999/06/02
_chemical_name_systematic          'Dimagnesium Phosphorous Trinitride'
_chemical_formula_structural       'Mg2 P N3'
_chemical_formula_sum              'Mg2 N3 P1'
_publ_section_title
;
Mg2 P N3 und Ca2 P N3 - Phosphor(V)-nitride mit eindimensional 
unendlichen Ketten eckenverknuepfter PN4-Tetraeder
;
loop_
_citation_id
_citation_journal_abbrev
_citation_year
_citation_journal_volume
_citation_page_first
_citation_page_last
_citation_journal_id_ASTM
primary 'Zeitschrift fuer Anorganische und Allgemeine Chemie (1950) (DE)'
 1997 623 69 74 ZAACAB
_publ_author_name                  'Schultz-Coulon, V.;Schnick, W.'
_cell_length_a                     9.7264(8)
_cell_length_b                     5.6430(5)
_cell_length_c                     4.7302(2)
_cell_angle_alpha                  90.
_cell_angle_beta                   90.
_cell_angle_gamma                  90.
_cell_volume                       259.62
_cell_formula_units_Z              4
_symmetry_space_group_name_H-M     'C m c 21'
_symmetry_Int_Tables_number        36
_refine_ls_R_factor_all            .0609
loop_
_symmetry_equiv_pos_site_id
_symmetry_equiv_pos_as_xyz
  1	'x, -y, z+.5'
  2	'-x, -y, z+.5'
  3	'-x, y, z'
  4	'x, y, z'
  5	'x+.5, -y+.5, z+.5'
  6	'-x+.5, -y+.5, z+.5'
  7	'-x+.5, y+.5, z'
  8	'x+.5, y+.5, z'
loop_
_atom_type_symbol
_atom_type_oxidation_number
Mg2+	2
N3-	-3
P5+	5
loop_
_atom_site_label
_atom_site_type_symbol
_atom_site_symmetry_multiplicity
_atom_site_Wyckoff_symbol
_atom_site_fract_x
_atom_site_fract_y
_atom_site_fract_z
_atom_site_occupancy
_atom_site_attached_hydrogens
_atom_site_B_iso_or_equiv
Mg1 Mg2+ 8 b 0.1653(2) 0.3331(4) -.0333(6) 1. 0 0.47(1) 
P1 P5+ 4 a 0 0.1602(4) 0.4867(5) 1. 0 0.71(2) 
N1 N3- 8 b 0.1448(5) 0.306(1) 0.4244(7) 1. 0 1.61(3) 
N2 N3- 4 a 0 0.1173(9) 0.851(1) 1. 0 1.16(3) 

#End of data_50224-ICSD


