data_2061-ICSD
#?2014 by Fachinformationszentrum Karlsruhe, and the U.S. Secretary of 
#Commerce on behalf of the United States.  All rights reserved.
_database_code_ICSD                2061
_audit_creation_date               1980/01/01
_audit_update_record               2012/08/01
_chemical_name_systematic          'Dipotassium Tecto-tetraantimonate'
_chemical_formula_structural       'K2 (Sb4 O11)'
_chemical_formula_sum              'K2 O11 Sb4'
_publ_section_title
;
The two-dimensional tunnel structures of K3 Sb5 O14 and K2 Sb4 O11
;
loop_
_citation_id
_citation_journal_abbrev
_citation_year
_citation_journal_volume
_citation_page_first
_citation_page_last
_citation_journal_id_ASTM
primary 'Acta Crystallographica B (24,1968-38,1982)' 1974 30 945 952 ACBCAR
_publ_author_name                  'Hong, H.Y.-P.'
_cell_length_a                     19.473(4)
_cell_length_b                     7.542(1)
_cell_length_c                     7.198(1)
_cell_angle_alpha                  90.
_cell_angle_beta                   94.82(2)
_cell_angle_gamma                  90.
_cell_volume                       1053.4
_cell_formula_units_Z              4
_symmetry_space_group_name_H-M     'C 1 2/m 1'
_symmetry_Int_Tables_number        12
_refine_ls_R_factor_all            .067
loop_
_symmetry_equiv_pos_site_id
_symmetry_equiv_pos_as_xyz
  1	'-x, y, -z'
  2	'-x, -y, -z'
  3	'x, -y, z'
  4	'x, y, z'
  5	'-x+.5, y+.5, -z'
  6	'-x+.5, -y+.5, -z'
  7	'x+.5, -y+.5, z'
  8	'x+.5, y+.5, z'
loop_
_atom_type_symbol
_atom_type_oxidation_number
K1+	1
O2-	-2
Sb5+	5
loop_
_atom_site_label
_atom_site_type_symbol
_atom_site_symmetry_multiplicity
_atom_site_Wyckoff_symbol
_atom_site_fract_x
_atom_site_fract_y
_atom_site_fract_z
_atom_site_occupancy
_atom_site_attached_hydrogens
K1 K1+ 4 i 0.2383(9) 0 0.005(2) 1. 0 
K2 K1+ 4 i 0.0103(6) 0 0.261(1) 1. 0 
Sb1 Sb5+ 4 i 0.4246(1) 0 0.3827(3) 1. 0 
Sb2 Sb5+ 4 i 0.4281(1) 0 0.9029(3) 1. 0 
Sb3 Sb5+ 8 j 0.17445(8) 0.2418(2) 0.4349(2) 1. 0 
O1 O2- 4 g 0 0.335(3) 0 1. 0 
O2 O2- 4 i 0.160(1) 0 0.348(3) 1. 0 
O3 O2- 4 i 0.382(1) 0 0.131(4) 1. 0 
O4 O2- 4 i 0.335(1) 0 0.483(3) 1. 0 
O5 O2- 4 i 0.522(1) 0 0.353(3) 1. 0 
O6 O2- 8 j 0.412(1) 0.257(3) 0.433(2) 1. 0 
O7 O2- 8 j 0.2654(9) 0.296(2) 0.342(2) 1. 0 
O8 O2- 8 j 0.1296(9) 0.309(2) 0.189(2) 1. 0 

#End of data_2061-ICSD


