data_99702-ICSD
#?2014 by Fachinformationszentrum Karlsruhe, and the U.S. Secretary of 
#Commerce on behalf of the United States.  All rights reserved.
_database_code_ICSD                99702
_audit_creation_date               2005/04/01
_audit_update_record               2006/04/01
_chemical_name_systematic          'Dipotassium Tetrabromozincate - P'
_chemical_formula_structural       'K2 (Zn Br4)'
_chemical_formula_sum              'Br4 K2 Zn1'
_publ_section_title
;
Molecular dynamics simulation and X-ray structural studies of mode-
coupling in monoclinic K2 Zn Br4
;
loop_
_citation_id
_citation_journal_abbrev
_citation_year
_citation_journal_volume
_citation_journal_issue
_citation_page_first
_citation_page_last
_citation_journal_id_ASTM
primary 'Journal of the Physical Society of Japan' 2003 72 10 2533 2538 JUPSAU
2 'Golden Book of Phase Transitions, Wroclaw' 2002 1- 1 123 GBOPT5
_publ_author_name                  'Machida, M.;Itho, H.;Koyano, N.'
_cell_length_a                     9.188(3)
_cell_length_b                     7.508(3)
_cell_length_c                     7.215(2)
_cell_angle_alpha                  90
_cell_angle_beta                   109.04(3)
_cell_angle_gamma                  90
_cell_volume                       470.49
_cell_formula_units_Z              2
_symmetry_space_group_name_H-M     'P 1 21/m 1'
_symmetry_Int_Tables_number        11
_refine_ls_R_factor_all            .053
loop_
_symmetry_equiv_pos_site_id
_symmetry_equiv_pos_as_xyz
  1	'x, -y+.5, z'
  2	'-x, -y, -z'
  3	'-x, y+.5, -z'
  4	'x, y, z'
loop_
_atom_type_symbol
_atom_type_oxidation_number
Br1-	-1
K1+	1
Zn2+	2
loop_
_atom_site_label
_atom_site_type_symbol
_atom_site_symmetry_multiplicity
_atom_site_Wyckoff_symbol
_atom_site_fract_x
_atom_site_fract_y
_atom_site_fract_z
_atom_site_occupancy
_atom_site_attached_hydrogens
K1 K1+ 2 e 0.0438(5) 0.250 0.7049(7) 1. 0 
K2 K1+ 2 e 0.5751(5) 0.250 0.7823(7) 1. 0 
Zn1 Zn2+ 2 e 0.2064(2) 0.250 0.2818(3) 1. 0 
Br1 Br1- 2 e -0.0664(2) 0.250 0.1073(3) 1. 0 
Br2 Br1- 2 e 0.3644(3) 0.250 0.0759(3) 1. 0 
Br3 Br1- 4 f 0.2667(2) 0.5017(2) 0.5021(2) 1. 0 

loop_
_atom_site_aniso_label
_atom_site_aniso_type_symbol
_atom_site_aniso_U_11
_atom_site_aniso_U_22
_atom_site_aniso_U_33
_atom_site_aniso_U_12
_atom_site_aniso_U_13
_atom_site_aniso_U_23
K1 K1+ .045(2) .071(3) .041(2) 0. .020(2) 0.
K2 K1+ .041(2) .077(4) .049(2) 0. .021(2) 0.
Zn1 Zn2+ .040(1) .033(1) .030(1) 0. .016(1) 0.
Br1 Br1- .038(1) .102(2) .047(1) 0. .014(1) 0.
Br2 Br1- .046(1) .118(2) .036(1) 0. .025(1) 0.
Br3 Br1- .057(1) .026(1) .045(1) .000(1) .020(1) -.004(1)
#End of data_99702-ICSD


