data_710002-ICSD
#?2014 by Fachinformationszentrum Karlsruhe, and the U.S. Secretary of 
#Commerce on behalf of the United States.  All rights reserved.
_database_code_ICSD                710002
_audit_creation_date               2010/02/01
_chemical_name_systematic
;
Dithallium Hexaaquamanganese(II) Bis(sulfate)
;
_chemical_formula_structural       'Tl2 (Mg (H2 O)6) (S O4)2'
_chemical_formula_sum              'H12 Mg1 O14 S2 Tl2'
_publ_section_title
;
Crystal structures of Tutton's salts Tl2 [M(II) (H2 O)6] (S O4)2, 
M(II) = Mg, Mn, Fe, Co, Ni, Zn
;
loop_
_citation_id
_citation_journal_abbrev
_citation_year
_citation_journal_volume
_citation_journal_issue
_citation_page_first
_citation_page_last
_citation_journal_id_ASTM
primary 'Zeitschrift fuer Kristallographie - New Crystal Structures'
 2009 224 3 355 359 ZKNSFT
_publ_author_name
;
Euler, H.;Barbier, B.;Meents, A.;Kirfel, A.
;
_cell_length_a                     9.262(2)
_cell_length_b                     12.459(2)
_cell_length_c                     6.207(1)
_cell_angle_alpha                  90.00
_cell_angle_beta                   106.39(2)
_cell_angle_gamma                  90.00
_cell_volume                       687.15
_cell_formula_units_Z              2
_symmetry_space_group_name_H-M     'P 1 21/a 1'
_symmetry_Int_Tables_number        14
_refine_ls_R_factor_all            .0176
loop_
_symmetry_equiv_pos_site_id
_symmetry_equiv_pos_as_xyz
  1	'x+.5, -y+.5, z'
  2	'-x, -y, -z'
  3	'-x+.5, y+.5, -z'
  4	'x, y, z'
loop_
_atom_type_symbol
_atom_type_oxidation_number
H1+	1
Mg2+	2
O2-	-2
S6+	6
Tl1+	1
loop_
_atom_site_label
_atom_site_type_symbol
_atom_site_symmetry_multiplicity
_atom_site_Wyckoff_symbol
_atom_site_fract_x
_atom_site_fract_y
_atom_site_fract_z
_atom_site_occupancy
_atom_site_attached_hydrogens
_atom_site_U_iso_or_equiv
Mg1 Mg2+ 2 a 0 0 0 1. 0 0 
S1 S6+ 4 e 0.4065(1) 0.1376(1) 0.7367(2) 1. 0 0 
O1 O2- 4 e 0.4155(5) 0.2292(3) 0.5915(7) 1. 0 0 
O2 O2- 4 e 0.5445(5) 0.0739(4) 0.7865(8) 1. 0 0 
O3 O2- 4 e 0.2802(4) 0.0687(3) 0.6152(7) 1. 0 0 
O4 O2- 4 e 0.3797(5) 0.1757(3) 0.9462(7) 1. 0 0 
O5 O2- 4 e 0.1659(4) 0.1064(3) 0.1623(7) 1. 0 0 
O6 O2- 4 e -0.1642(4) 0.1108(3) 0.0209(7) 1. 0 0 
O7 O2- 4 e -0.0048(4) -0.0673(3) 0.2974(7) 1. 0 0 
Tl1 Tl1+ 4 e 0.12634(3) 0.35470(2) 0.35039(4) 1. 0 0 
H1 H1+ 4 e 0.2030 0.0962 0.2740 1. 0 0.029(7) 
H2 H1+ 4 e 0.2287 0.1232 0.0963 1. 0 0.029(7) 
H8 H1+ 4 e -0.2457 0.1016 -0.0463 1. 0 0.029(7) 
H3 H1+ 4 e -0.1484 0.1716 -0.0076 1. 0 0.029(7) 
H4 H1+ 4 e -0.0749 -0.0611 0.3417 1. 0 0.029(7) 
H5 H1+ 4 e 0.0195 -0.1275 0.3272 1. 0 0.029(7) 

loop_
_atom_site_aniso_label
_atom_site_aniso_type_symbol
_atom_site_aniso_U_11
_atom_site_aniso_U_22
_atom_site_aniso_U_33
_atom_site_aniso_U_12
_atom_site_aniso_U_13
_atom_site_aniso_U_23
Mg1 Mg2+ 0.019(1) 0.019(1) 0.022(2) -0.001(1) 0.004(1) -0.000(1)
S1 S6+ 0.0181(6) 0.0229(7) 0.0248(7) -0.0027(6) 0.0049(5) -0.0023(6)
O1 O2- 0.052(3) 0.030(2) 0.035(3) -0.010(2) 0.019(2) 0.003(2)
O2 O2- 0.021(2) 0.044(3) 0.059(3) 0.007(2) 0.003(2) -0.004(2)
O3 O2- 0.025(2) 0.034(2) 0.036(2) -0.007(2) 0.008(2) -0.007(2)
O4 O2- 0.042(2) 0.031(2) 0.023(2) -0.005(2) 0.012(2) -0.005(2)
O5 O2- 0.026(2) 0.036(2) 0.028(2) -0.007(2) 0.006(2) -0.001(2)
O6 O2- 0.020(2) 0.026(2) 0.040(3) 0.002(2) 0.009(2) -0.001(2)
O7 O2- 0.029(2) 0.026(2) 0.032(2) 0.005(2) 0.016(2) 0.003(2)
Tl1 Tl1+ 0.0358(2) 0.0352(2) 0.0374(2) -0.0018(1) 0.0131(1) 0.0006(1)
#End of data_710002-ICSD


