data_261699-ICSD
#?2014 by Fachinformationszentrum Karlsruhe, and the U.S. Secretary of 
#Commerce on behalf of the United States.  All rights reserved.
_database_code_ICSD                261699
_audit_creation_date               2012/02/01
_audit_update_record               2013/08/01
_chemical_name_systematic          'Dizinc Molybdate(VI) Selenate(IV)'
_chemical_formula_structural       'Zn2 (Mo O4) (Se O3)'
_chemical_formula_sum              'Mo1 O7 Se1 Zn2'
_publ_section_title
;
Synthesis, characterization, and structure-property relationships in 
two new polar oxides: Zn2 (Mo O4) (Se O3) and Zn2 (Mo O4) (Te O3)
;
loop_
_citation_id
_citation_journal_abbrev
_citation_year
_citation_journal_volume
_citation_journal_issue
_citation_page_first
_citation_page_last
_citation_journal_id_ASTM
primary 'Inorganic Chemistry' 2011 50 11 5215 5233 INOCAJ
_publ_author_name
;
Nguyen Sau Doan;Kim Sang-Hwan;Halasyamani, P.S.
;
_cell_length_a                     5.1809(4)
_cell_length_b                     8.3238(7)
_cell_length_c                     7.1541(6)
_cell_angle_alpha                  90
_cell_angle_beta                   98.4130(10)
_cell_angle_gamma                  90
_cell_volume                       305.2
_cell_formula_units_Z              2
_symmetry_space_group_name_H-M     'P 1 21 1'
_symmetry_Int_Tables_number        4
_refine_ls_R_factor_all            .0179
loop_
_symmetry_equiv_pos_site_id
_symmetry_equiv_pos_as_xyz
  1	'-x, y+.5, -z'
  2	'x, y, z'
loop_
_atom_type_symbol
_atom_type_oxidation_number
Mo6+	6
O2-	-2
Se4+	4
Zn2+	2
loop_
_atom_site_label
_atom_site_type_symbol
_atom_site_symmetry_multiplicity
_atom_site_Wyckoff_symbol
_atom_site_fract_x
_atom_site_fract_y
_atom_site_fract_z
_atom_site_occupancy
_atom_site_attached_hydrogens
_atom_site_U_iso_or_equiv
Se1 Se4+ 2 a 0.54288(8) 0.24248(7) 0.38224(5) 1 0 0.01265(12) 
Mo1 Mo6+ 2 a 0.07413(7) 0.53138(4) 0.01514(5) 1 0 0.01352(11) 
Zn1 Zn2+ 2 a 0.93870(9) 0.54411(7) 0.49386(7) 1 0 0.01514(13) 
Zn2 Zn2+ 2 a 0.53258(10) 0.36329(7) 0.77272(7) 1 0 0.01462(14) 
O1 O2- 2 a 0.7018(6) 0.0620(4) 0.3757(5) 1 0 0.0181(7) 
O2 O2- 2 a 0.7667(6) 0.3364(4) 0.5444(5) 1 0 0.0173(7) 
O3 O2- 2 a 0.8040(6) 0.5505(4) 0.8297(5) 1 0 0.0205(7) 
O4 O2- 2 a 0.3378(6) 0.2079(4) 0.5468(5) 1 0 0.0168(7) 
O5 O2- 2 a 0.2793(7) 0.3778(5) 0.9553(5) 1 0 0.0226(8) 
O6 O2- 2 a 0.2493(6) 0.7108(5) 0.0449(5) 1 0 0.0219(8) 
O7 O2- 2 a 0.9735(7) 0.4806(6) 0.2305(5) 1 0 0.0266(9) 

loop_
_atom_site_aniso_label
_atom_site_aniso_type_symbol
_atom_site_aniso_U_11
_atom_site_aniso_U_22
_atom_site_aniso_U_33
_atom_site_aniso_U_12
_atom_site_aniso_U_13
_atom_site_aniso_U_23
Se1 Se4+ 0.0123(2) 0.0121(2) 0.0136(2) 0.00086(18) 0.00219(14) 0.00007(16)
Mo1 Mo6+ 0.01154(18) 0.0159(2) 0.01313(17) -0.00009(15) 0.00177(12) 
-0.00106(15)
Zn1 Zn2+ 0.0113(2) 0.0152(3) 0.0188(2) -0.0005(2) 0.00183(17) -0.0006(2)
Zn2 Zn2+ 0.0139(2) 0.0150(3) 0.0152(2) 0.0004(2) 0.00304(18) 0.0003(2)
O1 O2- 0.0149(15) 0.0132(19) 0.0256(17) 0.0022(13) 0.0010(12) -0.0035(14)
O2 O2- 0.0193(16) 0.0167(18) 0.0161(16) -0.0040(14) 0.0037(12) -0.0004(13)
O3 O2- 0.0177(16) 0.0157(19) 0.0260(16) 0.0010(14) -0.0039(12) -0.0036(15)
O4 O2- 0.0153(15) 0.018(2) 0.0186(15) -0.0034(13) 0.0093(12) -0.0042(13)
O5 O2- 0.0198(17) 0.025(2) 0.0247(19) 0.0074(16) 0.0090(14) 0.0063(15)
O6 O2- 0.0173(17) 0.022(2) 0.0251(18) -0.0057(14) -0.0001(13) -0.0049(15)
O7 O2- 0.0280(19) 0.035(3) 0.0186(18) -0.0051(17) 0.0112(15) -0.0045(14)
#End of data_261699-ICSD


