data_408684-ICSD
#?2014 by Fachinformationszentrum Karlsruhe, and the U.S. Secretary of 
#Commerce on behalf of the United States.  All rights reserved.
_database_code_ICSD                408684
_audit_creation_date               1999/06/02
_chemical_name_systematic
;
Dipotassium Hexathioiaurodigermanate
;
_chemical_formula_structural       'K2 (Au2 Ge2 S6)'
_chemical_formula_sum              'Au2 Ge2 K2 S6'
_publ_section_title
;
Synthesis, Structures, and Properties of New Quaternary Gold-
Chalcogenides: K2 Au2 Ge2 S6, K2 Au2 Sn2 Se6, and Cs2 Au2 Sn S4
;
loop_
_citation_id
_citation_journal_abbrev
_citation_year
_citation_journal_volume
_citation_page_first
_citation_page_last
_citation_journal_id_ASTM
primary 'Zeitschrift fuer Anorganische und Allgemeine Chemie (1950) (DE)'
 1998 624 1588 1594 ZAACAB
_publ_author_name                  'Loeken, S.;Tremel, W.'
_cell_length_a                     10.633(2)
_cell_length_b                     11.127(2)
_cell_length_c                     11.303(2)
_cell_angle_alpha                  90.
_cell_angle_beta                   115.37(3)
_cell_angle_gamma                  90.
_cell_volume                       1208.33
_cell_formula_units_Z              4
_symmetry_space_group_name_H-M     'P 1 21/n 1'
_symmetry_Int_Tables_number        14
_refine_ls_R_factor_all            .0897
loop_
_symmetry_equiv_pos_site_id
_symmetry_equiv_pos_as_xyz
  1	'-x+.5, y+.5, -z+.5'
  2	'-x, -y, -z'
  3	'x+.5, -y+.5, z+.5'
  4	'x, y, z'
loop_
_atom_type_symbol
_atom_type_oxidation_number
Au1+	1
Ge4+	4
K1+	1
S2-	-2
loop_
_atom_site_label
_atom_site_type_symbol
_atom_site_symmetry_multiplicity
_atom_site_Wyckoff_symbol
_atom_site_fract_x
_atom_site_fract_y
_atom_site_fract_z
_atom_site_occupancy
_atom_site_attached_hydrogens
Au1 Au1+ 4 e 0.16441(6) 0.91712(8) 0.17988(5) 1. 0 
Au2 Au1+ 4 e 0.37158(6) 0.09018(8) 0.35989(6) 1. 0 
Ge1 Ge4+ 4 e 0.1093(2) 0.0031(2) 0.44463(15) 1. 0 
Ge2 Ge4+ 4 e 0.4159(2) 0.0019(2) 0.0816(2) 1. 0 
K1 K1+ 4 e 0.0351(4) 0.2321(4) 0.1233(4) 1. 0 
K2 K1+ 4 e 0.6754(5) 0.2669(5) 0.2919(5) 1. 0 
S1 S2- 4 e 0.1569(5) 0.8363(5) 0.3651(4) 1. 0 
S2 S2- 4 e 0.8739(4) 0.0278(5) 0.3520(4) 1. 0 
S3 S2- 4 e 0.2122(4) 0.1694(4) 0.4279(4) 1. 0 
S4 S2- 4 e 0.4923(5) 0.1479(5) 0.9913(4) 1. 0 
S5 S2- 4 e 0.5309(4) 0.0052(6) 0.2966(4) 1. 0 
S6 S2- 4 e 0.1839(4) 0.0011(4) 0.0016(4) 1. 0 

loop_
_atom_site_aniso_label
_atom_site_aniso_type_symbol
_atom_site_aniso_U_11
_atom_site_aniso_U_22
_atom_site_aniso_U_33
_atom_site_aniso_U_12
_atom_site_aniso_U_13
_atom_site_aniso_U_23
Au1 Au1+ 0.0110(3) 0.0159(4) 0.0151(3) -.0013(3) 0.0081(3) -.0022(3)
Au2 Au1+ 0.0124(3) 0.0212(4) 0.0155(3) -.0044(4) 0.0092(3) -.0040(3)
Ge1 Ge4+ 0.0101(8) 0.0159(11) 0.0145(8) 0.0009(9) 0.0089(7) 0.0017(7)
Ge2 Ge4+ 0.0165(9) 0.0199(12) 0.0215(9) 0.0019(9) 0.0136(8) 0.0021(8)
K1 K1+ 0.028(2) 0.020(3) 0.025(2) 0.003(2) 0.002(2) 0.001(2)
K2 K1+ 0.030(3) 0.020(3) 0.054(3) 0.005(2) 0.002(2) 0.002(2)
S1 S2- 0.018(2) 0.018(3) 0.021(2) -.002(2) 0.014(2) 0.000(2)
S2 S2- 0.013(2) 0.019(3) 0.020(2) 0.003(2) 0.012(2) 0.000(2)
S3 S2- 0.017(2) 0.016(3) 0.016(2) 0.001(2) 0.011(2) 0.001(2)
S4 S2- 0.025(2) 0.019(3) 0.023(2) 0.003(2) 0.017(2) 0.003(2)
S5 S2- 0.009(2) 0.048(4) 0.014(2) 0.007(2) 0.010(2) 0.002(2)
S6 S2- 0.017(2) 0.014(3) 0.020(2) 0.003(2) 0.008(2) 0.000(2)
#End of data_408684-ICSD


