data_9122-ICSD
#?2014 by Fachinformationszentrum Karlsruhe, and the U.S. Secretary of 
#Commerce on behalf of the United States.  All rights reserved.
_database_code_ICSD                9122
_audit_creation_date               1980/01/01
_audit_update_record               2010/08/01
_chemical_name_systematic          'Dipotassium Dioxotrifluorovanadate'
_chemical_formula_structural       'K2 (V O2 F3)'
_chemical_formula_sum              'F3 K2 O2 V1'
_publ_section_title
;
The crystal structure of K2 V O2 F3, a nonlinear dioxovanadium(V) 
group
;
loop_
_citation_id
_citation_journal_abbrev
_citation_year
_citation_journal_volume
_citation_page_first
_citation_page_last
_citation_journal_id_ASTM
primary 'Acta Crystallographica B (24,1968-38,1982)' 1971 27 1270 1274 ACBCAR
_publ_author_name
;
Ryan, R.R.;Mastin, S.H.;Reisfeld, M.J.
;
_cell_length_a                     7.379(4)
_cell_length_b                     5.640(2)
_cell_length_c                     11.413(7)
_cell_angle_alpha                  90.
_cell_angle_beta                   90.
_cell_angle_gamma                  90.
_cell_volume                       474.98
_cell_formula_units_Z              4
_symmetry_space_group_name_H-M     'P n m a'
_symmetry_Int_Tables_number        62
_refine_ls_R_factor_all            .0258
loop_
_symmetry_equiv_pos_site_id
_symmetry_equiv_pos_as_xyz
  1	'x+.5, y, -z+.5'
  2	'x, -y+.5, z'
  3	'-x+.5, y+.5, z+.5'
  4	'-x, -y, -z'
  5	'-x+.5, -y, z+.5'
  6	'-x, y+.5, -z'
  7	'x+.5, -y+.5, -z+.5'
  8	'x, y, z'
loop_
_atom_type_symbol
_atom_type_oxidation_number
F1-	-1
K1+	1
O2-	-2
V5+	5
loop_
_atom_site_label
_atom_site_type_symbol
_atom_site_symmetry_multiplicity
_atom_site_Wyckoff_symbol
_atom_site_fract_x
_atom_site_fract_y
_atom_site_fract_z
_atom_site_occupancy
_atom_site_attached_hydrogens
K1 K1+ 4 c 0.1908(2) 0.25 0.40712(9) 1. 0 
K2 K1+ 4 c 0.4775(1) 0.25 0.71706(9) 1. 0 
V1 V5+ 4 c 0.1995(1) 0.25 0.0694(7) 1. 0 
O1 O2- 8 d 0.3222(3) 0.0233(4) 0.1106(2) 1. 0 
F1 F1- 4 a 0 0 0 1. 0 
F2 F1- 4 c 0.0371(4) 0.25 0.1943(2) 1. 0 
F3 F1- 4 c 0.2726(4) 0.25 0.9085(2) 1. 0 

#End of data_9122-ICSD


