data_200931-ICSD
#?2014 by Fachinformationszentrum Karlsruhe, and the U.S. Secretary of 
#Commerce on behalf of the United States.  All rights reserved.
_database_code_ICSD                200931
_audit_creation_date               1980/12/31
_audit_update_record               2005/10/01
_chemical_name_systematic
;
Dipotassium Dimagnesium Tris(molybdate) - Beta
;
_chemical_formula_structural       'K2 Mg2 (Mo O4)3'
_chemical_formula_sum              'K2 Mg2 Mo3 O12'
_publ_section_title
;
Thermal stability and synthesis of crystals of double molybdates (K2 
R2)(2+) (Mo O4)3 (R = Mg, Ni, Co, or Zn), and crystal structure of 
beta-K2 Mg2 (Mo O4)3
;
loop_
_citation_id
_citation_journal_abbrev
_citation_year
_citation_journal_volume
_citation_page_first
_citation_page_last
_citation_journal_id_ASTM
primary Kristallografiya 1980 25 301 311 KRISAJ
2 'Soviet Physics, Crystallography (= Kristallografiya)'
 1980 25 175 180 SPHCA6
3 'Golden Book of Phase Transitions, Wroclaw' 2002 1 1 123 GBOPT5
_publ_author_name
;
Klevtsov, P.V.;Kim, V.G.;Klevtsova, R.F.
;
_cell_length_a                     31.775
_cell_length_b                     10.594
_cell_length_c                     10.603
_cell_angle_alpha                  90.
_cell_angle_beta                   90.
_cell_angle_gamma                  90.
_cell_volume                       3569.23
_cell_formula_units_Z              12
_symmetry_space_group_name_H-M     'P 21 21 21'
_symmetry_Int_Tables_number        19
_refine_ls_R_factor_all            .048
loop_
_symmetry_equiv_pos_site_id
_symmetry_equiv_pos_as_xyz
  1	'-x, y+.5, -z+.5'
  2	'x+.5, -y+.5, -z'
  3	'-x+.5, -y, z+.5'
  4	'x, y, z'
loop_
_atom_type_symbol
_atom_type_oxidation_number
K1+	1
Mg2+	2
Mo6+	6
O2-	-2
loop_
_atom_site_label
_atom_site_type_symbol
_atom_site_symmetry_multiplicity
_atom_site_Wyckoff_symbol
_atom_site_fract_x
_atom_site_fract_y
_atom_site_fract_z
_atom_site_occupancy
_atom_site_attached_hydrogens
_atom_site_B_iso_or_equiv
Mo1 Mo6+ 4 a 0.2337 0.6308(1) 0.4774(1) 1. 0 0.73 
Mo2 Mo6+ 4 a 0.0954 0.1153(1) 0.0324(1) 1. 0 0.85 
Mo3 Mo6+ 4 a 0.0671 0.8831(1) 0.5174(1) 1. 0 0.81 
Mo4 Mo6+ 4 a 0.043 0.4780(1) 0.1948(1) 1. 0 0.78 
Mo5 Mo6+ 4 a 0.1199 0.5203(1) 0.7034(1) 1. 0 0.85 
Mo6 Mo6+ 4 a 0.2045 0.0281(1) 0.8086(1) 1. 0 0.76 
Mo7 Mo6+ 4 a 0.1605 0.3045(1) 0.3824(1) 1. 0 0.74 
Mo8 Mo6+ 4 a 0.0081 0.6910(1) 0.8749(1) 1. 0 0.82 
Mo9 Mo6+ 4 a 0.1807 0.7828(1) 0.1172(1) 1. 0 0.85 
Mg1 Mg2+ 4 a 0.2071(1) 0.1014(3) 0.1287(3) 1. 0 0.65 
Mg2 Mg2+ 4 a 0.1332(1) 0.6216(3) 0.3745(4) 1. 0 0.87 
Mg3 Mg2+ 4 a 0.0348(1) 0.3693(3) 0.8969(4) 1. 0 0.82 
Mg4 Mg2+ 4 a 0.2146(1) 0.3532(3) 0.6832(3) 1. 0 0.7 
Mg5 Mg2+ 4 a 0.1107(1) 0.8356(3) 0.8434(3) 1. 0 0.77 
Mg6 Mg2+ 4 a 0.0509(1) 0.1865(4) 0.3525(3) 1. 0 0.71 
K1 K1+ 4 a 0.0616(1) 0.8100(3) 0.1812(3) 1. 0 1.44 
K2 K1+ 4 a 0.1045(1) 0.1793(3) 0.6744(3) 1. 0 1.53 
K3 K1+ 4 a 0.2252(1) 0.6853(2) 0.8122(3) 1. 0 1.44 
K4 K1+ 4 a 0.1849(1) 0.9663(3) 0.4534(3) 1. 0 1.98 
K5 K1+ 4 a 0.0226(1) 0.5381(3) 0.5323(3) 1. 0 2.62 
K6 K1+ 4 a 0.1558(1) 0.4266(3) 0.0397(3) 1. 0 2.37 
O1 O2- 4 a 0.2184(3) 0.5184(8) 0.5909(8) 1. 0 1.3 
O2 O2- 4 a 0.2618(3) 0.5602(8) 0.3517(8) 1. 0 1.3 
O3 O2- 4 a 0.1891(2) 0.7150(7) 0.4237(7) 1. 0 1. 
O4 O2- 4 a 0.2680(3) 0.7345(8) 0.5580(8) 1. 0 1.2 
O5 O2- 4 a 0.0742(3) 0.2152(9) -.0859(9) 1. 0 1.9 
O6 O2- 4 a 0.1493(3) 0.1534(9) 0.0551(9) 1. 0 1.7 
O7 O2- 4 a 0.0671(3) 0.1218(10) 0.1732(9) 1. 0 2.1 
O8 O2- 4 a 0.0892(3) -.0425(9) -.0208(8) 1. 0 1.6 
O9 O2- 4 a 0.0163(2) 0.8223(8) 0.4830(7) 1. 0 1. 
O10 O2- 4 a 0.0797(3) 0.8804(9) 0.6780(9) 1. 0 1.7 
O11 O2- 4 a 0.0767(3) 0.0368(8) 0.4543(8) 1. 0 1.5 
O12 O2- 4 a 0.1021(3) 0.7832(8) 0.4355(8) 1. 0 1.6 
O13 O2- 4 a 0.0036(2) 0.5909(8) 0.1574(7) 1. 0 1.2 
O14 O2- 4 a 0.0788(3) 0.5561(8) 0.2954(8) 1. 0 1.4 
O15 O2- 4 a 0.0700(2) 0.4338(7) 0.0541(7) 1. 0 0.9 
O16 O2- 4 a 0.0218(3) 0.3508(8) 0.2793(8) 1. 0 1.3 
O17 O2- 4 a 0.1331(3) 0.6696(9) 0.7624(9) 1. 0 1.7 
O18 O2- 4 a 0.1177(3) 0.5255(8) 0.5367(8) 1. 0 1.3 
O19 O2- 4 a 0.1569(3) 0.4095(8) 0.7606(8) 1. 0 1.2 
O20 O2- 4 a 0.0699(3) 0.4621(8) 0.7529(8) 1. 0 1.3 
O21 O2- 4 a 0.2113(3) 0.1856(9) 0.7683(8) 1. 0 1.5 
O22 O2- 4 a 0.2244(2) 0.0058(8) 0.9637(8) 1. 0 1.2 
O23 O2- 4 a 0.2335(3) -.0673(8) 0.7016(9) 1. 0 1.6 
O24 O2- 4 a 0.1511(3) -.0088(8) 0.7869(8) 1. 0 1.3 
O25 O2- 4 a 0.1068(3) 0.271(1) 0.3669(10) 1. 0 2.2 
O26 O2- 4 a 0.1903(3) 0.1980(9) 0.2904(9) 1. 0 1.7 
O27 O2- 4 a 0.1765(3) 0.2769(9) 0.5402(9) 1. 0 1.7 
O28 O2- 4 a 0.1707(3) 0.4589(8) 0.3255(8) 1. 0 1.4 
O29 O2- 4 a -.0290(3) 0.7652(8) 0.9770(8) 1. 0 1.3 
O30 O2- 4 a 0.0602(3) 0.7291(8) 0.9222(8) 1. 0 1.3 
O31 O2- 4 a -.0029(3) 0.7497(8) 0.7246(8) 1. 0 1.4 
O32 O2- 4 a -.0016(2) 0.5256(8) 0.8720(8) 1. 0 1.3 
O33 O2- 4 a 0.1857(2) 0.9322(8) 0.1961(8) 1. 0 1.2 
O34 O2- 4 a 0.1436(3) 0.6911(8) 0.1968(8) 1. 0 1.3 
O35 O2- 4 a 0.1613(3) 0.7964(9) -.0369(9) 1. 0 1.7 
O36 O2- 4 a 0.2282(3) 0.6978(9) 0.1038(9) 1. 0 1.8 

#End of data_200931-ICSD


