data_68510-ICSD
#?2014 by Fachinformationszentrum Karlsruhe, and the U.S. Secretary of 
#Commerce on behalf of the United States.  All rights reserved.
_database_code_ICSD                68510
_audit_creation_date               1991/07/10
_chemical_name_systematic          'Calcium Copper Diphosphate'
_chemical_formula_structural       'Ca Cu (P2 O7)'
_chemical_formula_sum              'Ca1 Cu1 O7 P2'
_publ_section_title
;
CaCuP2O7:a structure closely related to alphaCa2P2O7
;
loop_
_citation_id
_citation_journal_abbrev
_citation_year
_citation_journal_volume
_citation_page_first
_citation_page_last
_citation_journal_id_ASTM
primary 'Acta Crystallographica, Section C: Crystal Structure Communications'
 1990 46 1191 1193 ACSCEE
_publ_author_name                  'Riou, D.;Goreaud, M.'
_cell_length_a                     5.2104(4)
_cell_length_b                     8.0574(5)
_cell_length_c                     12.344(1)
_cell_angle_alpha                  90.
_cell_angle_beta                   91.356(6)
_cell_angle_gamma                  90.
_cell_volume                       518.08
_cell_formula_units_Z              4
_symmetry_space_group_name_H-M     'P 1 21/n 1'
_symmetry_Int_Tables_number        14
_refine_ls_R_factor_all            .029
loop_
_symmetry_equiv_pos_site_id
_symmetry_equiv_pos_as_xyz
  1	'-x+.5, y+.5, -z+.5'
  2	'-x, -y, -z'
  3	'x+.5, -y+.5, z+.5'
  4	'x, y, z'
loop_
_atom_type_symbol
_atom_type_oxidation_number
Ca2+	2
Cu2+	2
O2-	-2
P5+	5
loop_
_atom_site_label
_atom_site_type_symbol
_atom_site_symmetry_multiplicity
_atom_site_Wyckoff_symbol
_atom_site_fract_x
_atom_site_fract_y
_atom_site_fract_z
_atom_site_occupancy
_atom_site_attached_hydrogens
Cu1 Cu2+ 4 e 0.79798(8) 0.14058(6) 0.11019(4) 1. 0 
Ca1 Ca2+ 4 e 0.2878(1) 0.32276(9) 0.27641(6) 1. 0 
P1 P5+ 4 e 0.7523(2) 0.5280(1) 0.16483(7) 1. 0 
P2 P5+ 4 e 0.3116(2) 0.2020(1) 0.98402(7) 1. 0 
O1 O2- 4 e 0.6608(5) 0.3508(3) 0.1542(2) 1. 0 
O2 O2- 4 e 0.6524(5) 0.3979(3) 0.4005(2) 1. 0 
O3 O2- 4 e 0.9384(5) 0.1207(3) 0.2653(2) 1. 0 
O4 O2- 4 e 0.7641(5) 0.1067(3) 0.4535(2) 1. 0 
O5 O2- 4 e 0.4747(5) 0.0450(3) 0.2929(2) 1. 0 
O6 O2- 4 e 0.0980(5) 0.3338(3) 0.4715(2) 1. 0 
O7 O2- 4 e 0.2124(5) 0.1867(4) 0.0967(2) 1. 0 

loop_
_atom_site_aniso_label
_atom_site_aniso_type_symbol
_atom_site_aniso_U_11
_atom_site_aniso_U_22
_atom_site_aniso_U_33
_atom_site_aniso_U_12
_atom_site_aniso_U_13
_atom_site_aniso_U_23
Cu1 Cu2+ 0.0071(1) 0.0057(1) 0.0063(1) 0.0004(1) -.0014(1) -.0002(1)
Ca1 Ca2+ 0.0066(2) 0.0089(2) 0.0099(2) 0.0002(2) -.0009(2) 0.0005(2)
P1 P5+ 0.0053(5) 0.0051(3) 0.0048(3) 0.0002(2) -.0002(2) -.0007(3)
P2 P5+ 0.0055(3) 0.0055(3) 0.0050(3) -.0002(3) 0.0006(2) -.0002(3)
O1 O2- 0.0095(8) 0.0062(9) 0.0093(8) -.0022(8) -.0005(7) -.0006(8)
O2 O2- 0.0089(9) 0.0080(9) 0.0070(8) -.0007(7) -.0006(7) 0.0007(8)
O3 O2- 0.0078(8) 0.010(1) 0.0062(8) -.0024(7) 0.0014(7) 0.0008(8)
O4 O2- 0.014(1) 0.0065(9) 0.0058(8) -.0020(8) 0.0007(8) -.0007(7)
O5 O2- 0.0072(8) 0.010(1) 0.013(1) 0.0002(8) -.0029(8) 0.0005(9)
O6 O2- 0.0066(8) 0.010(1) 0.0081(8) -.0013(8) 0.0000(7) 0.0005(8)
O7 O2- 0.0091(9) 0.011(1) 0.0068(8) -.0016(8) 0.0013(7) -.0001(9)
#End of data_68510-ICSD


