data_155150-ICSD
#?2014 by Fachinformationszentrum Karlsruhe, and the U.S. Secretary of 
#Commerce on behalf of the United States.  All rights reserved.
_database_code_ICSD                155150
_audit_creation_date               2007/04/01
_audit_update_record               2013/02/01
_chemical_name_systematic          'Trizinc Heptaborate Bromide'
_chemical_formula_structural       'Zn3 (B7 O13) Br'
_chemical_formula_sum              'B7 Br1 O13 Zn3'
_publ_section_title
;
Nano and micro reoriented domains and their relation with the crystal 
structure in the new ferroelectric boracite Zn3 B7 O13 Br
;
loop_
_citation_id
_citation_journal_abbrev
_citation_year
_citation_journal_volume
_citation_page_first
_citation_page_last
_citation_journal_id_ASTM
primary 'Journal of Physics: Condensed Matter' 2006 18 4827 4837 JCOMEL
2 'Golden Book of Phase Transitions, Wroclaw' 2002 1 1 123 GBOPT5
_publ_author_name
;
Campa-Molina, J.;Ulloa-Godinez, S.;Barrera, A.;Bucio, L.;Mata, J.
;
_cell_length_a                     8.5506(2)
_cell_length_b                     8.5599(2)
_cell_length_c                     12.0994(2)
_cell_angle_alpha                  90.
_cell_angle_beta                   90.
_cell_angle_gamma                  90.
_cell_volume                       885.58
_cell_formula_units_Z              4
_symmetry_space_group_name_H-M     'P c a 21'
_symmetry_Int_Tables_number        29
_refine_ls_R_factor_all            .0324
loop_
_symmetry_equiv_pos_site_id
_symmetry_equiv_pos_as_xyz
  1	'x+.5, -y, z'
  2	'-x+.5, y, z+.5'
  3	'-x, -y, z+.5'
  4	'x, y, z'
loop_
_atom_type_symbol
_atom_type_oxidation_number
B3+	3
Br1-	-1
O2-	-2
Zn2+	2
loop_
_atom_site_label
_atom_site_type_symbol
_atom_site_symmetry_multiplicity
_atom_site_Wyckoff_symbol
_atom_site_fract_x
_atom_site_fract_y
_atom_site_fract_z
_atom_site_occupancy
_atom_site_attached_hydrogens
_atom_site_B_iso_or_equiv
Br1 Br1- 4 a 0.7628(4) 0.2504(8) 0.521(6) 1. 0 0.80(9) 
Zn1 Zn2+ 4 a 0.7580(6) 0.247(1) 0.236(1) 1. 0 0.62(6) 
Zn2 Zn2+ 4 a 0.4906(8) 0.528(1) 0.515(6) 1. 0 0.62(6) 
Zn3 Zn2+ 4 a -0.0152(8) 0.029(1) 0.511(6) 1. 0 0.62(6) 
B1 B3+ 4 a 0.496(2) 0.508(2) 0.773(6) 1. 0 0.165 
B2 B3+ 4 a 0.260(1) 0.247(2) 0.528(6) 1. 0 0.165 
B3 B3+ 4 a 0.004(3) -0.016(2) 0.272(6) 1. 0 0.165 
B4 B3+ 4 a 0.420(4) 0.251(8) 0.350(6) 1. 0 0.165 
B5 B3+ 4 a 0.205(6) 0.385(1) 0.200(7) 1. 0 0.165 
B6 B3+ 4 a 0.887(6) 0.76(1) 0.859(7) 1. 0 0.165 
B7 B3+ 4 a 0.7579 0.9054 0.677(6) 1. 0 0.165 
O1 O2- 4 a 0.230(3) 0.251(6) 0.268(6) 1. 0 0.1 
O2 O2- 4 a 0.541(2) 0.344(2) 0.294(6) 1. 0 0.1 
O3 O2- 4 a 0.383(1) 0.333(2) 0.463(6) 1. 0 0.1 
O4 O2- 4 a -0.028(3) 0.158(2) 0.285(6) 1. 0 0.1 
O5 O2- 4 a 0.177(1) 0.365(2) 0.594(6) 1. 0 0.1 
O6 O2- 4 a 0.175(3) -0.032(2) 0.247(6) 1. 0 0.1 
O7 O2- 4 a 0.142(1) 0.173(2) 0.453(6) 1. 0 0.1 
O8 O2- 4 a 0.334(2) 0.536(2) 0.253(6) 1. 0 0.1 
O9 O2- 4 a 0.333(1) 0.127(2) 0.593(6) 1. 0 0.1 
O10 O2- 4 a 0.550(2) 0.604(2) 0.369(6) 1. 0 0.1 
O11 O2- 4 a -0.034(2) -.092(2) 0.371(6) 1. 0 0.1 
O12 O2- 4 a 0.588(2) 0.558(2) 0.172(6) 1. 0 0.1 
O13 O2- 4 a -0.080(3) -.064(2) 0.170(6) 1. 0 0.1 

#End of data_155150-ICSD


