data_280795-ICSD
#?2014 by Fachinformationszentrum Karlsruhe, and the U.S. Secretary of 
#Commerce on behalf of the United States.  All rights reserved.
_database_code_ICSD                280795
_audit_creation_date               2002/10/01
_audit_update_record               2005/10/01
_chemical_name_systematic          'Tricalcium Dimanganate(IV)'
_chemical_formula_structural       'Ca3 (Mn2 O7)'
_chemical_formula_sum              'Ca3 Mn2 O7'
_publ_section_title                'Ca3 Mn2 O7'
loop_
_citation_id
_citation_journal_abbrev
_citation_year
_citation_journal_volume
_citation_page_first
_citation_page_last
_citation_journal_id_ASTM
primary 'Acta Crystallographica, Section C: Crystal Structure Communications'
 2002 58 i3 i5 ACSCEE
_publ_author_name
;
Guiblin, N.;Grebille, D.;Leligny, H.;Martin, C.
;
_cell_length_a                     5.2347(6)
_cell_length_b                     5.2421(2)
_cell_length_c                     19.4177(19)
_cell_angle_alpha                  90.
_cell_angle_beta                   90.
_cell_angle_gamma                  90.
_cell_volume                       532.84
_cell_formula_units_Z              4
_symmetry_space_group_name_H-M     'A 21 a m'
_symmetry_Int_Tables_number        36
_refine_ls_R_factor_all            .023
loop_
_symmetry_equiv_pos_site_id
_symmetry_equiv_pos_as_xyz
  1	'x+.5, -y, z'
  2	'x+.5, -y, -z'
  3	'x, y, -z'
  4	'x, y, z'
  5	'x+.5, -y+.5, z+.5'
  6	'x+.5, -y+.5, -z+.5'
  7	'x, y+.5, -z+.5'
  8	'x, y+.5, z+.5'
loop_
_atom_type_symbol
_atom_type_oxidation_number
Ca2+	2
Mn4+	4
O2-	-2
loop_
_atom_site_label
_atom_site_type_symbol
_atom_site_symmetry_multiplicity
_atom_site_Wyckoff_symbol
_atom_site_fract_x
_atom_site_fract_y
_atom_site_fract_z
_atom_site_occupancy
_atom_site_attached_hydrogens
Mn1 Mn4+ 8 b 0.3033(7) 0.2507(3) 0.09816(1) 1. 0 
Ca1 Ca2+ 4 a 0.8276(8) 0.2505(5) 0 1. 0 
Ca2 Ca2+ 8 b 0.7907(8) 0.2457(3) 0.18642(2) 1. 0 
O1 O2- 4 a 0.3031(7) 0.2937(4) 0 1. 0 
O2 O2- 8 b 0.0954(9) 0.9618(6) 0.08924(8) 1. 0 
O3 O2- 8 b 0.0221(9) 0.4649(6) 0.10545(9) 1. 0 
O4 O2- 8 b 0.3101(10) 0.2176(4) 0.19583(5) 1. 0 

loop_
_atom_site_aniso_label
_atom_site_aniso_type_symbol
_atom_site_aniso_U_11
_atom_site_aniso_U_22
_atom_site_aniso_U_33
_atom_site_aniso_U_12
_atom_site_aniso_U_13
_atom_site_aniso_U_23
Mn1 Mn4+ 0.00362(9) 0.00376(10) 0.00390(6) 0.0004(3) 0.00067(11) 0.0001(2)
Ca1 Ca2+ 0.0071(4) 0.0078(2) 0.00703(14) -.0025(8) 0 0
Ca2 Ca2+ 0.00889(18) 0.00776(19) 0.00520(8) -.0017(6) 0.00032(16) 0.0007(3)
O1 O2- 0.0106(10) 0.0103(12) 0.0045(4) 0.0011(16) 0 0
O2 O2- 0.0037(8) 0.0049(9) 0.0103(6) -.0017(5) 0.0010(6) -.0019(6)
O3 O2- 0.0066(9) 0.0084(11) 0.0121(6) 0.0028(6) 0.0013(8) -.0007(8)
O4 O2- 0.0093(7) 0.0104(11) 0.0044(4) -.0003(12) 0.0011(9) 0.0007(3)
#End of data_280795-ICSD


