data_44678-ICSD
#?2014 by Fachinformationszentrum Karlsruhe, and the U.S. Secretary of 
#Commerce on behalf of the United States.  All rights reserved.
_database_code_ICSD                44678
_audit_creation_date               2008/07/07
_audit_update_record               2012/02/01
_chemical_name_systematic          'Potassium Antimony Selenide'
_chemical_formula_structural       'K Sb Se2'
_chemical_formula_sum              'K1 Sb1 Se2'
_publ_section_title                'Crystal structure of K Sb Se2'
loop_
_citation_id
_citation_journal_abbrev
_citation_year
_citation_journal_volume
_citation_journal_issue
_citation_page_first
_citation_page_last
_citation_journal_id_ASTM
primary 'Izvestiya Akademii Nauk SSSR, Neorganicheskie Materialy'
 1976 12- 537 538 IVNMAW
2 'Inorganic Materials' 1976 12 3 465 466 INOMAF
_publ_author_name
;
Kanishcheva, A.S.;Palkina, K.K.;Kuznetsov, V.G.;Lazarev, 
V.B.;Tarasova, T.G.
;
_cell_length_a                     6.451(1)
_cell_length_b                     6.451(1)
_cell_length_c                     12.482(1)
_cell_angle_alpha                  99.26
_cell_angle_beta                   99.48
_cell_angle_gamma                  103.21(3)
_cell_volume                       488.01
_cell_formula_units_Z              4
_symmetry_space_group_name_H-M     'P 1'
_symmetry_Int_Tables_number        1
_refine_ls_R_factor_all            .149
loop_
_symmetry_equiv_pos_site_id
_symmetry_equiv_pos_as_xyz
  1	'x, y, z'
loop_
_atom_type_symbol
_atom_type_oxidation_number
K1+	1
Sb3+	3
Se2-	-2
loop_
_atom_site_label
_atom_site_type_symbol
_atom_site_symmetry_multiplicity
_atom_site_Wyckoff_symbol
_atom_site_fract_x
_atom_site_fract_y
_atom_site_fract_z
_atom_site_occupancy
_atom_site_attached_hydrogens
K1 K1+ 1 a 0.842 0.889 0.728 1. 0 
K2 K1+ 1 a 0.674 0.333 0.9 1. 0 
K3 K1+ 1 a 0.178 0.279 0.162 1. 0 
K4 K1+ 1 a 0.31 0.931 0.47 1. 0 
Sb1 Sb3+ 1 a 0.173 0.414 0.669 1. 0 
Sb2 Sb3+ 1 a 0.76 0.849 0.229 1. 0 
Sb3 Sb3+ 1 a 0.748 0.402 0.405 1. 0 
Sb4 Sb3+ 1 a 0.339 0.813 0.968 1. 0 
Se1 Se2- 1 a 0.192 0.413 0.913 1. 0 
Se2 Se2- 1 a 0.778 0.364 0.639 1. 0 
Se3 Se2- 1 a 0.726 0.429 0.178 1. 0 
Se4 Se2- 1 a 0.143 0.395 0.435 1. 0 
Se5 Se2- 1 a 0.312 0.839 0.726 1. 0 
Se6 Se2- 1 a 0.347 0.823 0.196 1. 0 
Se7 Se2- 1 a 0.778 0.795 0.452 1. 0 
Se8 Se2- 1 a 0.767 0.872 0.995 1. 0 

#End of data_44678-ICSD


