data_414130-ICSD
#?2014 by Fachinformationszentrum Karlsruhe, and the U.S. Secretary of 
#Commerce on behalf of the United States.  All rights reserved.
_database_code_ICSD                414130
_audit_creation_date               2005/10/01
_chemical_name_systematic
;
Calcium Bis(hexafluoroarsenate) Hexakis(hydrogen Fluoride)
;
_chemical_formula_structural       'Ca (H F)6 (As F6)2'
_chemical_formula_sum              'H6 As2 Ca1 F18'
_publ_section_title
;
Calcium hexafluoroarsenates with metal coordinated HF molecules
;
loop_
_citation_id
_citation_journal_abbrev
_citation_year
_citation_journal_volume
_citation_page_first
_citation_page_last
_citation_journal_id_ASTM
primary 'Acta Chimica Slovenica' 2004 51 769 778 ACSLE7
_publ_author_name                  'Tramsek, M.;Benkic, P.'
_cell_length_a                     10.049(5)
_cell_length_b                     14.987(7)
_cell_length_c                     9.840(5)
_cell_angle_alpha                  90.0
_cell_angle_beta                   109.56(11)
_cell_angle_gamma                  90.00
_cell_volume                       1396.43
_cell_formula_units_Z              4
_symmetry_space_group_name_H-M     'P 1 21/c 1'
_symmetry_Int_Tables_number        14
_refine_ls_R_factor_all            .1222
loop_
_symmetry_equiv_pos_site_id
_symmetry_equiv_pos_as_xyz
  1	'x, -y+.5, z+.5'
  2	'-x, -y, -z'
  3	'-x, y+.5, -z+.5'
  4	'x, y, z'
loop_
_atom_type_symbol
_atom_type_oxidation_number
As5+	5
Ca2+	2
F1-	-1
H1+	1
loop_
_atom_site_label
_atom_site_type_symbol
_atom_site_symmetry_multiplicity
_atom_site_Wyckoff_symbol
_atom_site_fract_x
_atom_site_fract_y
_atom_site_fract_z
_atom_site_occupancy
_atom_site_attached_hydrogens
_atom_site_U_iso_or_equiv
As1 As5+ 4 e 0.3885(3) 0.6469(2) 0.8762(3) 1 0 0.0245(9) 
As2 As5+ 4 e 0.9007(3) 0.6750(2) 0.4073(3) 1 0 0.0243(10) 
Ca1 Ca2+ 4 e 0.7003(6) 0.4938(4) 0.7914(6) 1 0 0.0230(14) 
F1 F1- 4 e 0.702(2) 0.4352(17) 0.559(2) 1 0 0.052(6) 
F2 F1- 4 e 0.824(2) 0.5575(17) 1.005(3) 1 0 0.057(6) 
F3 F1- 4 e 0.939(2) 0.5412(15) 0.782(2) 1 0 0.048(5) 
F4 F1- 4 e 0.636(2) 0.6279(15) 0.648(2) 1 0 0.048(6) 
F5 F1- 4 e 0.472(2) 0.4350(16) 0.663(2) 1 0 0.052(6) 
F6 F1- 4 e 0.834(3) 0.3622(17) 0.870(3) 1 0 0.056(6) 
F7 F1- 4 e 0.534(2) 0.5838(14) 0.876(2) 1 0 0.046(5) 
F8 F1- 4 e 0.247(3) 0.7091(17) 0.880(2) 1 0 0.057(7) 
F9 F1- 4 e 0.394(2) 0.5958(14) 1.0344(19) 1 0 0.042(5) 
F10 F1- 4 e 0.278(3) 0.5657(18) 0.781(3) 1 0 0.066(7) 
F11 F1- 4 e 0.387(2) 0.6961(14) 0.717(2) 1 0 0.048(6) 
F12 F1- 4 e 0.499(3) 0.7271(16) 0.971(2) 1 0 0.060(7) 
F13 F1- 4 e 0.994(3) 0.6300(17) 0.306(3) 1 0 0.063(7) 
F14 F1- 4 e 0.804(3) 0.719(2) 0.503(3) 1 0 0.076(8) 
F15 F1- 4 e 0.926(2) 0.7791(14) 0.349(2) 1 0 0.051(6) 
F16 F1- 4 e 1.052(2) 0.6853(16) 0.551(2) 1 0 0.060(7) 
F17 F1- 4 e 0.873(2) 0.5702(14) 0.465(3) 1 0 0.061(7) 
F18 F1- 4 e 0.750(2) 0.6633(15) 0.262(2) 1 0 0.049(6) 
H1 H1+ 4 e 0.6415 0.4824 0.4825 1 0 0.022 
H2 H1+ 4 e 0.9069 0.5229 1.0807 1 0 0.022 
H3 H1+ 4 e 0.9165 0.5511 0.6743 1 0 0.022 
H4 H1+ 4 e 0.5482 0.6519 0.6725 1 0 0.022 
H5 H1+ 4 e 0.3943 0.4016 0.6902 1 0 0.022 
H6 H1+ 4 e 0.8982 0.3656 0.8030 1 0 0.002 

loop_
_atom_site_aniso_label
_atom_site_aniso_type_symbol
_atom_site_aniso_U_11
_atom_site_aniso_U_22
_atom_site_aniso_U_33
_atom_site_aniso_U_12
_atom_site_aniso_U_13
_atom_site_aniso_U_23
As1 As5+ 0.0257(16) 0.0243(18) 0.0241(17) 0.0027(12) 0.0093(13) 0.0009(11)
As2 As5+ 0.0253(16) 0.0230(17) 0.0245(17) -0.0007(12) 0.0080(13) 
-0.0008(11)
Ca1 Ca2+ 0.023(3) 0.021(3) 0.023(3) 0.002(2) 0.005(2) 0.001(2)
F1 F1- 0.052(13) 0.064(16) 0.042(12) -0.001(11) 0.018(11) -0.010(11)
F2 F1- 0.053(13) 0.059(16) 0.063(15) -0.003(11) 0.022(12) -0.005(12)
F3 F1- 0.051(12) 0.048(14) 0.047(12) -0.001(10) 0.019(11) -0.001(10)
F4 F1- 0.049(12) 0.041(13) 0.054(13) 0.004(10) 0.018(11) 0.010(10)
F5 F1- 0.047(12) 0.067(16) 0.043(12) -0.015(11) 0.014(11) -0.001(11)
F6 F1- 0.058(14) 0.052(15) 0.067(16) 0.014(11) 0.033(13) 0.015(11)
F7 F1- 0.051(12) 0.045(13) 0.053(13) 0.026(10) 0.031(11) 0.017(10)
F8 F1- 0.057(14) 0.069(17) 0.060(14) 0.033(12) 0.038(12) 0.019(12)
F9 F1- 0.052(12) 0.047(13) 0.030(10) 0.013(10) 0.018(9) 0.015(8)
F10 F1- 0.070(16) 0.066(17) 0.056(15) -0.036(13) 0.015(13) -0.021(12)
F11 F1- 0.059(14) 0.046(14) 0.046(12) 0.014(11) 0.027(11) 0.020(10)
F12 F1- 0.067(15) 0.051(15) 0.058(14) -0.037(12) 0.016(13) -0.020(12)
F13 F1- 0.058(14) 0.066(17) 0.078(17) 0.005(12) 0.039(13) -0.031(14)
F14 F1- 0.09(2) 0.08(2) 0.073(17) 0.000(16) 0.058(16) -0.012(15)
F15 F1- 0.067(14) 0.029(11) 0.056(13) -0.007(10) 0.018(12) 0.007(10)
F16 F1- 0.052(14) 0.056(15) 0.046(14) -0.010(11) -0.017(12) 0.001(11)
F17 F1- 0.066(15) 0.029(12) 0.071(16) -0.015(11) 0.001(13) 0.023(11)
F18 F1- 0.030(10) 0.060(15) 0.043(12) -0.007(9) -0.010(10) 0.004(10)
#End of data_414130-ICSD


