data_280857-ICSD
#?2014 by Fachinformationszentrum Karlsruhe, and the U.S. Secretary of 
#Commerce on behalf of the United States.  All rights reserved.
_database_code_ICSD                280857
_audit_creation_date               2002/10/01
_chemical_name_systematic          'Potassium Iodato(V)trioxomolybdate'
_chemical_formula_structural       'K (Mo O3 (I O3))'
_chemical_formula_sum              'I1 K1 Mo1 O6'
_publ_section_title
;
Structural modulation of molybdenyl iodate architectures by alkali 
metal cations in A Mo O3 (I O3) (A = K, Rb, Cs): a facile route to 
new polar materials with large SHG responses
;
loop_
_citation_id
_citation_journal_abbrev
_citation_year
_citation_journal_volume
_citation_journal_issue
_citation_page_first
_citation_page_last
_citation_journal_id_ASTM
primary 'Journal of the American Chemical Society' 2002 124 9 1951 1957 JACSAT
_publ_author_name
;
Sykora, R.E.;Ok, K.M.;Halasyamani, P.S.;Albrecht Schmitt, T.E.
;
_cell_length_a                     7.7991(3)
_cell_length_b                     7.3372(3)
_cell_length_c                     19.26949(80)
_cell_angle_alpha                  90.
_cell_angle_beta                   90.
_cell_angle_gamma                  90.
_cell_volume                       1102.67
_cell_formula_units_Z              8
_symmetry_space_group_name_H-M     'P b c a'
_symmetry_Int_Tables_number        61
_refine_ls_R_factor_all            .0216
loop_
_symmetry_equiv_pos_site_id
_symmetry_equiv_pos_as_xyz
  1	'x+.5, y, -z+.5'
  2	'x, -y+.5, z+.5'
  3	'-x+.5, y+.5, z'
  4	'-x, -y, -z'
  5	'-x+.5, -y, z+.5'
  6	'-x, y+.5, -z+.5'
  7	'x+.5, -y+.5, -z'
  8	'x, y, z'
loop_
_atom_type_symbol
_atom_type_oxidation_number
I5+	5
K1+	1
Mo6+	6
O2-	-2
loop_
_atom_site_label
_atom_site_type_symbol
_atom_site_symmetry_multiplicity
_atom_site_Wyckoff_symbol
_atom_site_fract_x
_atom_site_fract_y
_atom_site_fract_z
_atom_site_occupancy
_atom_site_attached_hydrogens
K1 K1+ 8 c -.19038(9) -.16445(10) 0.42872(4) 1. 0 
Mo1 Mo6+ 8 c -.21954(3) -.08062(3) 0.105350(14) 1. 0 
I1 I5+ 8 c -.00338(2) 0.07544(3) 0.27560(1) 1. 0 
O1 O2- 8 c -.0245(3) -.0091(4) 0.07536(13) 1. 0 
O2 O2- 8 c -.3374(3) -.1096(3) 0.03076(12) 1. 0 
O3 O2- 8 c -.3179(3) 0.1690(3) 0.12465(12) 1. 0 
O4 O2- 8 c -.1840(3) 0.1448(4) 0.32545(13) 1. 0 
O5 O2- 8 c -.1205(3) -.0560(3) 0.21108(13) 1. 0 
O6 O2- 8 c 0.0562(3) -.1307(3) 0.32488(12) 1. 0 

loop_
_atom_site_aniso_label
_atom_site_aniso_type_symbol
_atom_site_aniso_U_11
_atom_site_aniso_U_22
_atom_site_aniso_U_33
_atom_site_aniso_U_12
_atom_site_aniso_U_13
_atom_site_aniso_U_23
K1 K1+ 0.0157(3) 0.0164(4) 0.0157(3) -.0030(3) 0.0011(3) -.0017(3)
Mo1 Mo6+ 0.0089(2) 0.00674(15) 0.0092(2) 0.00025(8) 0.00050(9) 0.00026(8)
I1 I5+ 0.00851(13) 0.00708(14) 0.00976(13) 0.00017(6) -.00087(6) -.00045(6)
O1 O2- 0.0133(11) 0.0166(13) 0.0201(12) -.0006(9) 0.0032(9) 0.0018(10)
O2 O2- 0.0153(11) 0.0137(11) 0.0135(11) 0.0023(9) -.0015(9) -.0014(9)
O3 O2- 0.0124(11) 0.0084(10) 0.0132(11) 0.0000(8) 0.0014(8) -.0014(8)
O4 O2- 0.0127(12) 0.0209(13) 0.0203(12) 0.0040(9) 0.0049(9) -.0029(10)
O5 O2- 0.0229(13) 0.0121(11) 0.0140(11) -.0026(9) -.0079(10) -.0013(9)
O6 O2- 0.0113(11) 0.009(1) 0.0146(11) -.0007(8) -.0028(8) 0.0018(9)
#End of data_280857-ICSD


