data_158946-ICSD
#?2014 by Fachinformationszentrum Karlsruhe, and the U.S. Secretary of 
#Commerce on behalf of the United States.  All rights reserved.
_database_code_ICSD                158946
_audit_creation_date               2008/08/01
_audit_update_record               2011/02/01
_chemical_name_systematic
;
Potassium Dioxovanadium Sulfate(VI)
;
_chemical_formula_structural       'K (V O2) (S O4)'
_chemical_formula_sum              'K1 O6 S1 V1'
_publ_section_title
;
Crystal structure and spectroscopic properties of A V O2 S O4 (A= K, 
Rb) compounds
;
loop_
_citation_id
_citation_journal_abbrev
_citation_year
_citation_journal_volume
_citation_journal_issue
_citation_page_first
_citation_page_last
_citation_journal_id_ASTM
primary 'Zhurnal Neorganicheskoi Khimii' 2007 52 9 1521 1526 ZNOKAQ
2 'Russian Journal of Inorganic Chemistry' 2007 52 9 1424 1429 RJICAQ
_publ_author_name
;
Tyutyunnik, A.P.;Zubkov, V.G.;Berger, I.F.;Krasil'nikov, 
V.N.;Perelyaeva, L.A.;Baklanova, I.V.
;
_cell_length_a                     11.1004(2)
_cell_length_b                     8.2626(2)
_cell_length_c                     5.4772(1)
_cell_angle_alpha                  90.
_cell_angle_beta                   90.
_cell_angle_gamma                  90.
_cell_volume                       502.36
_cell_formula_units_Z              4
_symmetry_space_group_name_H-M     'P 21 21 21'
_symmetry_Int_Tables_number        19
_refine_ls_R_factor_all            .0182
loop_
_symmetry_equiv_pos_site_id
_symmetry_equiv_pos_as_xyz
  1	'-x, y+.5, -z+.5'
  2	'x+.5, -y+.5, -z'
  3	'-x+.5, -y, z+.5'
  4	'x, y, z'
loop_
_atom_type_symbol
_atom_type_oxidation_number
K1+	1
O2-	-2
S6+	6
V5+	5
loop_
_atom_site_label
_atom_site_type_symbol
_atom_site_symmetry_multiplicity
_atom_site_Wyckoff_symbol
_atom_site_fract_x
_atom_site_fract_y
_atom_site_fract_z
_atom_site_occupancy
_atom_site_attached_hydrogens
_atom_site_U_iso_or_equiv
K1 K1+ 4 a 0.8914(2) 0.0634(3) -0.2226(5) 1. 0 0.0182(7) 
V1 V5+ 4 a 0.8147(2) 0.4110(3) 0.2791(5) 1. 0 0.0053(7) 
S1 S6+ 4 a 0.0427(2) 0.2998(3) 0.2133(5) 1. 0 0.0090(8) 
O1 O2- 4 a 0.7495(3) 0.2403(3) 0.2394(7) 1. 0 0.0214(7) 
O2 O2- 4 a 0.0616(2) 0.1354(4) 0.1341(4) 1. 0 0.0158(7) 
O3 O2- 4 a 0.1497(2) 0.3977(4) 0.2307(7) 1. 0 0.0198(8) 
O4 O2- 4 a 0.9539(3) 0.3803(3) 0.0388(5) 1. 0 0.0153(7) 
O5 O2- 4 a 0.0304(3) -0.1950(3) 0.0516(5) 1. 0 0.0137(7) 
O6 O2- 4 a 0.7378(3) 0.5413(3) 0.0910(5) 1. 0 0.0150(7) 

#End of data_158946-ICSD


