data_6063-ICSD
#?2014 by Fachinformationszentrum Karlsruhe, and the U.S. Secretary of 
#Commerce on behalf of the United States.  All rights reserved.
_database_code_ICSD                6063
_audit_creation_date               1980/01/01
_chemical_name_systematic          'Potassium Tetrabromoplatinate(II)'
_chemical_formula_structural       'K2 Pt Br4'
_chemical_formula_sum              'Br4 K2 Pt1'
_publ_section_title
;
Polarized crystal absorption spectra and crystal structure for 
potassium tetrabromoplatinate(II)
;
loop_
_citation_id
_citation_journal_abbrev
_citation_year
_citation_journal_volume
_citation_page_first
_citation_page_last
_citation_journal_id_ASTM
primary 'Inorganic Chemistry' 1974 13 1366 1373 INOCAJ
_publ_author_name
;
Kroening, R.F.;Rush, R.M.;Martin, D.S.;Clardy, J.C.
;
_cell_length_a                     7.350(1)
_cell_length_b                     7.350(1)
_cell_length_c                     4.326(1)
_cell_angle_alpha                  90.
_cell_angle_beta                   90.
_cell_angle_gamma                  90.
_cell_volume                       233.7
_cell_formula_units_Z              1
_symmetry_space_group_name_H-M     'P 4/m m m'
_symmetry_Int_Tables_number        123
_refine_ls_R_factor_all            .094
loop_
_symmetry_equiv_pos_site_id
_symmetry_equiv_pos_as_xyz
  1	'y, x, -z'
  2	'-y, -x, -z'
  3	'-y, x, -z'
  4	'y, -x, -z'
  5	'-x, y, -z'
  6	'x, -y, -z'
  7	'x, y, -z'
  8	'-x, -y, -z'
  9	'-y, -x, z'
 10	'y, x, z'
 11	'y, -x, z'
 12	'-y, x, z'
 13	'x, -y, z'
 14	'-x, y, z'
 15	'-x, -y, z'
 16	'x, y, z'
loop_
_atom_type_symbol
_atom_type_oxidation_number
Br1-	-1
K1+	1
Pt2+	2
loop_
_atom_site_label
_atom_site_type_symbol
_atom_site_symmetry_multiplicity
_atom_site_Wyckoff_symbol
_atom_site_fract_x
_atom_site_fract_y
_atom_site_fract_z
_atom_site_occupancy
_atom_site_attached_hydrogens
Pt1 Pt2+ 1 a 0 0 0 1. 0 
K1 K1+ 2 e 0.5 0 0.5 1. 0 
Br1 Br1- 4 j 0.2352 0.2352 0 1. 0 

#End of data_6063-ICSD


