data_60769-ICSD
#?2014 by Fachinformationszentrum Karlsruhe, and the U.S. Secretary of 
#Commerce on behalf of the United States.  All rights reserved.
_database_code_ICSD                60769
_audit_creation_date               1988/02/22
_chemical_name_systematic          'Lithium Oxoterbateiv) (6/7/2)'
_chemical_formula_structural       'Li6 Tb2 O7'
_chemical_formula_sum              'Li6 O7 Tb2'
_publ_section_title
;
Neue Oxoterbate(IV) mit Lithium Rb2Li14(Tb3O14) und Li6Tb2O7
;
loop_
_citation_id
_citation_journal_abbrev
_citation_year
_citation_journal_volume
_citation_page_first
_citation_page_last
_citation_journal_id_ASTM
primary 'Zeitschrift fuer Anorganische und Allgemeine Chemie (1950) (DE)'
 1986 539 127 140 ZAACAB
_publ_author_name                  'Wolf, R.;Hoppe, R.'
_cell_length_a                     10.563(1)
_cell_length_b                     6.1350(4)
_cell_length_c                     5.4656(5)
_cell_angle_alpha                  90.
_cell_angle_beta                   109.668(7)
_cell_angle_gamma                  90.
_cell_volume                       333.53
_cell_formula_units_Z              2
_symmetry_space_group_name_H-M     'P 1 21/a 1'
_symmetry_Int_Tables_number        14
_refine_ls_R_factor_all            .0523
loop_
_symmetry_equiv_pos_site_id
_symmetry_equiv_pos_as_xyz
  1	'x+.5, -y+.5, z'
  2	'-x, -y, -z'
  3	'-x+.5, y+.5, -z'
  4	'x, y, z'
loop_
_atom_type_symbol
_atom_type_oxidation_number
Li1+	1
O2-	-2
Tb4+	4
loop_
_atom_site_label
_atom_site_type_symbol
_atom_site_symmetry_multiplicity
_atom_site_Wyckoff_symbol
_atom_site_fract_x
_atom_site_fract_y
_atom_site_fract_z
_atom_site_occupancy
_atom_site_attached_hydrogens
_atom_site_U_iso_or_equiv
Tb1 Tb4+ 4 e 0.1340(1) 0.0109(1) 0.2729(1) 1. 0 0 
O1 O2- 2 d 0 0 0.5 1. 0 0 
O2 O2- 4 e 0.0065(14) 0.7630(11) 0.0201(22) 1. 0 0 
O3 O2- 4 e 0.2562(7) 0.0048(22) 0.0392(13) 1. 0 0 
O4 O2- 4 e 0.2296(10) 0.2932(19) 0.4672(18) 1. 0 0 
Li1 Li1+ 4 e 0.3499(26) 0.7323(29) 0.1976(32) 1. 0 0.0271(32) 
Li2 Li1+ 4 e 0.1351(27) 0.7687(29) 0.7750(32) 1. 0 0.0275(31) 
Li3 Li1+ 4 e 0.1276(15) 0.5299(25) 0.1505(25) 1. 0 0.0098(26) 

loop_
_atom_site_aniso_label
_atom_site_aniso_type_symbol
_atom_site_aniso_U_11
_atom_site_aniso_U_22
_atom_site_aniso_U_33
_atom_site_aniso_U_12
_atom_site_aniso_U_13
_atom_site_aniso_U_23
Tb1 Tb4+ 0.0109(2) 0.0102(1) 0.0108(2) 0.0002(4) 0.0045(1) -.0011(4)
O1 O2- 0.0224(30) 0.0367(32) 0.0252(30) -.0167(35) 0.0121(27) -.0183(35)
O2 O2- 0.0100(25) 0.0168(25) 0.0080(27) -.0012(28) -.0017(23) -.0075(29)
O3 O2- 0.0194(24) 0.0189(26) 0.0181(25) -.0098(32) 0.0106(21) -.0118(32)
O4 O2- 0.0164(31) 0.0381(33) 0.0185(30) -.0033(28) 0.0023(28) -.0032(28)
#End of data_60769-ICSD


