data_97970-ICSD
#?2014 by Fachinformationszentrum Karlsruhe, and the U.S. Secretary of 
#Commerce on behalf of the United States.  All rights reserved.
_database_code_ICSD                97970
_audit_creation_date               2004/10/01
_chemical_name_systematic          'Calcium Tetrathiodiborate'
_chemical_formula_structural       'Ca (B2 S4)'
_chemical_formula_sum              'B2 Ca1 S4'
_publ_section_title
;
High-pressure synthesis of a new calcium thioborate, Ca B2 S4
;
loop_
_citation_id
_citation_journal_abbrev
_citation_year
_citation_journal_volume
_citation_page_first
_citation_page_last
_citation_journal_id_ASTM
primary 'Materials Research Bulletin' 2003 38 33 39 MRBUAC
_publ_author_name
;
Sasaki, T.;Takizawa, H.;Takeda, T.;Endo, T.
;
_cell_length_a                     11.210(4)
_cell_length_b                     11.210(4)
_cell_length_c                     11.210(4)
_cell_angle_alpha                  90
_cell_angle_beta                   90
_cell_angle_gamma                  90
_cell_volume                       1408.69
_cell_formula_units_Z              12
_symmetry_space_group_name_H-M     'P a -3'
_symmetry_Int_Tables_number        205
_refine_ls_R_factor_all            .033
loop_
_symmetry_equiv_pos_site_id
_symmetry_equiv_pos_as_xyz
  1	'-z+.5, x+.5, y'
  2	'z+.5, x, -y+.5'
  3	'z, -x+.5, y+.5'
  4	'-z, -x, -y'
  5	'y, -z+.5, x+.5'
  6	'-y+.5, z+.5, x'
  7	'y+.5, z, -x+.5'
  8	'-y, -z, -x'
  9	'x+.5, y, -z+.5'
 10	'x, -y+.5, z+.5'
 11	'-x+.5, y+.5, z'
 12	'-x, -y, -z'
 13	'z+.5, -x+.5, -y'
 14	'-z+.5, -x, y+.5'
 15	'-z, x+.5, -y+.5'
 16	'z, x, y'
 17	'-y, z+.5, -x+.5'
 18	'y+.5, -z+.5, -x'
 19	'-y+.5, -z, x+.5'
 20	'y, z, x'
 21	'-x+.5, -y, z+.5'
 22	'-x, y+.5, -z+.5'
 23	'x+.5, -y+.5, -z'
 24	'x, y, z'
loop_
_atom_type_symbol
_atom_type_oxidation_number
B3+	3
Ca2+	2
S2-	-2
loop_
_atom_site_label
_atom_site_type_symbol
_atom_site_symmetry_multiplicity
_atom_site_Wyckoff_symbol
_atom_site_fract_x
_atom_site_fract_y
_atom_site_fract_z
_atom_site_occupancy
_atom_site_attached_hydrogens
_atom_site_B_iso_or_equiv
Ca1 Ca2+ 4 a 0 0 0 1. 0 1.07(5) 
Ca2 Ca2+ 8 c 0.3734(2) 0.3734(2) 0.3734(2) 1. 0 1.07(5) 
S1 S2- 24 d 0.3520(3) 0.2885(3) 0.1293(3) 1. 0 1.07(5) 
S2 S2- 24 d 0.0845(3) 0.2772(2) 0.0222(2) 1. 0 1.07(5) 
B1 B3+ 24 d 0.131(1) 0.192(1) 0.351(1) 1. 0 1.07(5) 

#End of data_97970-ICSD


