data_191094-ICSD
#?2014 by Fachinformationszentrum Karlsruhe, and the U.S. Secretary of 
#Commerce on behalf of the United States.  All rights reserved.
_database_code_ICSD                191094
_audit_creation_date               2014/08/01
_chemical_name_systematic
;
Potassium Bismuth Dicopper Trisulfide
;
_chemical_formula_structural       'K Bi Cu2 S3'
_chemical_formula_sum              'Bi1 Cu2 K1 S3'
_publ_section_title
;
Synthesis and characterization of a novel quaternary chalcogenide K 
Bi Cu2 S3
;
loop_
_citation_id
_citation_journal_abbrev
_citation_year
_citation_journal_volume
_citation_page_first
_citation_page_last
_citation_journal_id_ASTM
primary 'Journal of Alloys and Compounds' 2014 591 6 10 JALCEU
_publ_author_name
;
Zhang, Ganghua;Zhang, Bowen;Chen, Haijie;Zhang, Xian;Zheng, 
Chong;Lin, Jianhua;Huang, Fuqiang
;
_cell_length_a                     6.268(1)
_cell_length_b                     8.900(1)
_cell_length_c                     10.271(1)
_cell_angle_alpha                  90.
_cell_angle_beta                   90.
_cell_angle_gamma                  90.
_cell_volume                       572.97
_cell_formula_units_Z              4
_symmetry_space_group_name_H-M     'P -1'
_symmetry_Int_Tables_number        2
_refine_ls_R_factor_all            .0442
loop_
_symmetry_equiv_pos_site_id
_symmetry_equiv_pos_as_xyz
  1	'-x, -y, -z'
  2	'x, y, z'
loop_
_atom_type_symbol
_atom_type_oxidation_number
Bi3+	3
Cu1+	1
K1+	1
S2-	-2
loop_
_atom_site_label
_atom_site_type_symbol
_atom_site_symmetry_multiplicity
_atom_site_Wyckoff_symbol
_atom_site_fract_x
_atom_site_fract_y
_atom_site_fract_z
_atom_site_occupancy
_atom_site_attached_hydrogens
_atom_site_U_iso_or_equiv
Bi1 Bi3+ 2 i 0.4656(3) 0.6885(1) 0.1523(2) 1. 0 0.0096(4) 
Bi2 Bi3+ 2 i -0.0215(1) 0.4478(1) 0.3543(2) 1. 0 0.0096(2) 
Cu1 Cu1+ 2 i 0.4939(1) 0.4041(1) 0.1632(3) 1. 0 0.0181(1) 
Cu2 Cu1+ 2 i -0.0150(1) 0.7456(1) 0.3557(4) 1. 0 0.0183(1) 
Cu3 Cu1+ 2 i -0.0698(3) 0.6443(2) 0.0391(1) 1. 0 0.0220(1) 
Cu4 Cu1+ 2 i 0.4314(1) 0.6520(1) 0.4557(1) 1. 0 0.0234(2) 
K1 K1+ 2 i 0.7962(2) 0.0668(6) 0.1320(5) 1. 0 0.0201(1) 
K2 K1+ 2 i 0.2990(1) 0.0694(1) 0.3705(4) 1. 0 0.0249(4) 
S1 S2- 2 i 0.1516(3) 0.8084(5) 0.1641(2) 1. 0 0.0121(1) 
S2 S2- 2 i 0.6324(3) 0.8069(6) 0.3245(2) 1. 0 0.0119(4) 
S3 S2- 2 i 0.6321(1) 0.7801(5) -0.0232(2) 1. 0 0.0117(6) 
S4 S2- 2 i 0.3373(1) 0.4177(1) 0.3597(4) 1. 0 0.0125(6) 
S5 S2- 2 i 0.8647(2) 0.4163(1) 0.1456(4) 1. 0 0.0126(9) 
S6 S2- 2 i 0.8515(1) 0.2287(7) 0.4398(1) 1. 0 0.0121(5) 

#End of data_191094-ICSD


