data_158137-ICSD
#?2014 by Fachinformationszentrum Karlsruhe, and the U.S. Secretary of 
#Commerce on behalf of the United States.  All rights reserved.
_database_code_ICSD                158137
_audit_creation_date               2008/02/01
_chemical_name_systematic          'Dialuminium Silicate Difluoride'
_chemical_formula_structural       'Al2 (Si O4) F2'
_chemical_formula_sum              'Al2 F2 O4 Si1'
_chemical_name_mineral             Topaz
_publ_section_title
;
Elastic behaviour and structural evolution of topaz at high pressure
;
loop_
_citation_id
_citation_journal_abbrev
_citation_year
_citation_journal_volume
_citation_page_first
_citation_page_last
_citation_journal_id_ASTM
primary 'Physics and Chemistry of Minerals' 2006 33 235 242 PCMIDU
_publ_author_name
;
Gatta, G.D.;Nestola, F.;Boffa Ballaran, T.
;
_cell_length_a                     4.5841(4)
_cell_length_b                     8.7308(5)
_cell_length_c                     8.2316(3)
_cell_angle_alpha                  90
_cell_angle_beta                   90
_cell_angle_gamma                  90
_cell_volume                       329.45
_cell_formula_units_Z              4
_symmetry_space_group_name_H-M     'P b n m'
_symmetry_Int_Tables_number        62
_refine_ls_R_factor_all            .062
loop_
_symmetry_equiv_pos_site_id
_symmetry_equiv_pos_as_xyz
  1	'-x+.5, y+.5, z'
  2	'x, y, -z+.5'
  3	'x+.5, -y+.5, z+.5'
  4	'-x, -y, -z'
  5	'x+.5, -y+.5, -z'
  6	'-x, -y, z+.5'
  7	'-x+.5, y+.5, -z+.5'
  8	'x, y, z'
loop_
_atom_type_symbol
_atom_type_oxidation_number
Al3+	3
F1-	-1
O2-	-2
Si4+	4
loop_
_atom_site_label
_atom_site_type_symbol
_atom_site_symmetry_multiplicity
_atom_site_Wyckoff_symbol
_atom_site_fract_x
_atom_site_fract_y
_atom_site_fract_z
_atom_site_occupancy
_atom_site_attached_hydrogens
_atom_site_U_iso_or_equiv
Al1 Al3+ 8 d 0.9069(7) 0.1313(3) 0.0807(2) 1. 0 0.0041(7) 
Si1 Si4+ 4 c 0.4016(8) 0.9413(4) 0.25000 1. 0 0.0041(7) 
O1 O2- 4 c 0.7882(19) 0.5276(9) 0.25000 1. 0 0.0037(9) 
O2 O2- 4 c 0.4490(19) 0.7546(9) 0.25000 1. 0 0.0037(9) 
O3 O2- 8 d 0.7845(12) 0.0086(7) 0.9094(4) 1. 0 0.0037(9) 
F1 F1- 8 d 0.9075(15) 0.7531(5) 0.0653(4) 1. 0 0.0112(11) 

#End of data_158137-ICSD


