data_26466-ICSD
#?2014 by Fachinformationszentrum Karlsruhe, and the U.S. Secretary of 
#Commerce on behalf of the United States.  All rights reserved.
_database_code_ICSD                26466
_audit_creation_date               1981/12/31
_audit_update_record               2010/02/01
_chemical_name_systematic          'Strontium Dialuminium Oxide'
_chemical_formula_structural       'Sr Al2 O4'
_chemical_formula_sum              'Al2 O4 Sr1'
_publ_section_title
;
Zur Struktur von monoklinem Sr Al2 O4
;
loop_
_citation_id
_citation_journal_abbrev
_citation_year
_citation_journal_volume
_citation_page_first
_citation_page_last
_citation_journal_id_ASTM
primary 'Zeitschrift fuer Anorganische und Allgemeine Chemie (1950) (DE)'
 1981 475 205 210 ZAACAB
_publ_author_name
;
Schulze, A.R.;Mueller Buschbaum, H.
;
_cell_length_a                     8.447
_cell_length_b                     8.816
_cell_length_c                     5.163
_cell_angle_alpha                  90.
_cell_angle_beta                   93.42
_cell_angle_gamma                  90.
_cell_volume                       383.8
_cell_formula_units_Z              4
_symmetry_space_group_name_H-M     'P 1 21 1'
_symmetry_Int_Tables_number        4
_refine_ls_R_factor_all            .096
loop_
_symmetry_equiv_pos_site_id
_symmetry_equiv_pos_as_xyz
  1	'-x, y+.5, -z'
  2	'x, y, z'
loop_
_atom_type_symbol
_atom_type_oxidation_number
Al3+	3
O2-	-2
Sr2+	2
loop_
_atom_site_label
_atom_site_type_symbol
_atom_site_symmetry_multiplicity
_atom_site_Wyckoff_symbol
_atom_site_fract_x
_atom_site_fract_y
_atom_site_fract_z
_atom_site_occupancy
_atom_site_attached_hydrogens
_atom_site_B_iso_or_equiv
Sr1 Sr2+ 2 a 0.4905 0 0.2507 1. 0 0.46 
Sr2 Sr2+ 2 a 0.0292 0.9929 0.202 1. 0 0.4 
Al1 Al3+ 2 a 0.1895 0.8314 0.7158 1. 0 0.8 
Al2 Al3+ 2 a 0.7997 0.8394 0.7287 1. 0 0.68 
Al3 Al3+ 2 a 0.7087 0.6685 0.2236 1. 0 0.7 
Al4 Al3+ 2 a 0.6809 0.1707 0.7975 1. 0 0.74 
O1 O2- 2 a 0.265 0.174 0.436 1. 0 0.71 
O2 O2- 2 a 0.736 0.316 0.589 1. 0 1.31 
O3 O2- 2 a 0.327 0.493 0.345 1. 0 1.24 
O4 O2- 2 a 0.265 0.984 0.898 1. 0 0.82 
O5 O2- 2 a 0.174 0.297 0.936 1. 0 1.14 
O6 O2- 2 a 0.206 0.669 0.906 1. 0 0.89 
O7 O2- 2 a 0.487 0.219 0.876 1. 0 0.95 
O8 O2- 2 a 0.99 0.888 0.651 1. 0 1.08 

#End of data_26466-ICSD


