data_185679-ICSD
#?2014 by Fachinformationszentrum Karlsruhe, and the U.S. Secretary of 
#Commerce on behalf of the United States.  All rights reserved.
_database_code_ICSD                185679
_audit_creation_date               2013/02/01
_chemical_name_systematic          'Magnesium Hexahydroxosilicate'
_chemical_formula_structural       'Mg (Si (O H)6)'
_chemical_formula_sum              'H6 Mg1 O6 Si1'
_publ_section_title
;
The 3.65 A phase Mg Si (O H)6: structural insights from DFT-
calculations and T-dependent IR spectroscopy
;
loop_
_citation_id
_citation_journal_abbrev
_citation_year
_citation_journal_volume
_citation_journal_issue
_citation_page_first
_citation_page_last
_citation_journal_id_ASTM
primary 'American Mineralogist' 2012 97 7 1043 1048 AMMIAY
_publ_author_name
;
Wunder, B.;Jahn, S.;Joch-Mueller, M.;Speziale, S.
;
_cell_length_a                     5.1131(3)
_cell_length_b                     5.1898(3)
_cell_length_c                     7.3303(4)
_cell_angle_alpha                  90
_cell_angle_beta                   90.03(1)
_cell_angle_gamma                  90
_cell_volume                       194.52
_cell_formula_units_Z              2
_symmetry_space_group_name_H-M     'P 1 21 1'
_symmetry_Int_Tables_number        4
_refine_ls_R_factor_all            .075
loop_
_symmetry_equiv_pos_site_id
_symmetry_equiv_pos_as_xyz
  1	'-x, y+.5, -z'
  2	'x, y, z'
loop_
_atom_type_symbol
_atom_type_oxidation_number
H1+	1
Mg2+	2
O2-	-2
Si4+	4
loop_
_atom_site_label
_atom_site_type_symbol
_atom_site_symmetry_multiplicity
_atom_site_Wyckoff_symbol
_atom_site_fract_x
_atom_site_fract_y
_atom_site_fract_z
_atom_site_occupancy
_atom_site_attached_hydrogens
_atom_site_U_iso_or_equiv
Mg1 Mg2+ 2 a 0.759(2) 0.514(2) 0.251(2) 1. 0 0.0004(3) 
Si1 Si4+ 2 a 0.250(1) 0.013(2) 0.250(2) 1. 0 0.0004(3) 
O1 O2- 2 a 0.363(3) 0.977(1) 0.482(2) 1. 0 0.0007(5) 
O2 O2- 2 a 0.863(3) 0.550(1) 0.978(2) 1. 0 0.0007(5) 
O3 O2- 2 a 0.907(3) 0.803(2) 0.693(2) 1. 0 0.0007(5) 
O4 O2- 2 a 0.450(3) 0.661(1) 0.802(2) 1. 0 0.0007(5) 
O5 O2- 2 a 0.948(3) 0.839(2) 0.320(2) 1. 0 0.0007(5) 
O6 O2- 2 a 0.391(3) 0.705(2) 0.180(2) 1. 0 0.0007(5) 
H1 H1+ 2 a 0.45700 0.80300 0.48900 1. 0 0.00100 
H2 H1+ 2 a 0.96300 0.69900 0.98500 1. 0 0.00100 
H3 H1+ 2 a 0.30600 0.54600 0.77400 1. 0 0.00100 
H4 H1+ 2 a 0.77500 0.95100 0.73100 1. 0 0.00100 
H5 H1+ 2 a 0.93500 0.85200 0.44500 1. 0 0.00100 
H6 H1+ 2 a 0.41200 0.69300 0.05300 1. 0 0.00100 

#End of data_185679-ICSD


