data_30955-ICSD
#?2014 by Fachinformationszentrum Karlsruhe, and the U.S. Secretary of 
#Commerce on behalf of the United States.  All rights reserved.
_database_code_ICSD                30955
_audit_creation_date               1986/12/03
_audit_update_record               2012/08/01
_chemical_name_systematic
;
Magnesium Dihydrogenphosphate Dihydrate
;
_chemical_formula_structural       'Mg (H2 P O4)2 (H2 O)2'
_chemical_formula_sum              'H8 Mg1 O10 P2'
_publ_section_title
;
The crystal structure of magnesium-dihydrogen phosphate dihydrate Mg 
(H2 P O4)2 (H2 O)2
;
loop_
_citation_id
_citation_journal_abbrev
_citation_year
_citation_journal_volume
_citation_page_first
_citation_page_last
_citation_journal_id_ASTM
primary 'Neues Jahrbuch fuer Mineralogie. Monatshefte (Band=Jahr) (1950-)'
 1985 1985 439 445 NJMMAW
_publ_author_name                  'Hinsch, T.R.'
_cell_length_a                     7.289(4)
_cell_length_b                     9.938(5)
_cell_length_c                     5.334(1)
_cell_angle_alpha                  90.
_cell_angle_beta                   95.48(4)
_cell_angle_gamma                  90.
_cell_volume                       384.62
_cell_formula_units_Z              2
_symmetry_space_group_name_H-M     'P 1 21/n 1'
_symmetry_Int_Tables_number        14
_refine_ls_R_factor_all            .0259
loop_
_symmetry_equiv_pos_site_id
_symmetry_equiv_pos_as_xyz
  1	'-x+.5, y+.5, -z+.5'
  2	'-x, -y, -z'
  3	'x+.5, -y+.5, z+.5'
  4	'x, y, z'
loop_
_atom_type_symbol
_atom_type_oxidation_number
H1+	1
Mg2+	2
O2-	-2
P5+	5
loop_
_atom_site_label
_atom_site_type_symbol
_atom_site_symmetry_multiplicity
_atom_site_Wyckoff_symbol
_atom_site_fract_x
_atom_site_fract_y
_atom_site_fract_z
_atom_site_occupancy
_atom_site_attached_hydrogens
Mg1 Mg2+ 2 a 0.5 0.5 0.5 1. 0 
P1 P5+ 4 e 0.8406(1) 0.2869 0.7439(1) 1. 0 
O1 O2- 4 e 0.3047(2) 0.4648(1) 0.7628(3) 1. 0 
O2 O2- 4 e 0.6503(2) 0.3378(1) 0.6545(3) 1. 0 
O3 O2- 4 e 0.8609(2) 0.1355(1) 0.7440(3) 1. 0 
O4 O2- 4 e 0.9757(2) 0.3520(2) 0.5662(3) 1. 0 
O5 O2- 4 e 0.8940(2) 0.3430(1) 0.0174(3) 1. 0 
H1 H1+ 4 e 0.341(5) 0.427(4) 0.904(7) 1. 0 
H2 H1+ 4 e 0.249(5) 0.541(4) 0.818(7) 1. 0 
H3 H1+ 4 e 0.067(5) 0.371(4) 0.620(6) 1. 0 
H4 H1+ 4 e 0.975(5) 0.299(4) 0.0092(7) 1. 0 

#End of data_30955-ICSD


