data_73814-ICSD
#?2014 by Fachinformationszentrum Karlsruhe, and the U.S. Secretary of 
#Commerce on behalf of the United States.  All rights reserved.
_database_code_ICSD                73814
_audit_creation_date               1995/01/10
_chemical_name_systematic
;
Tetrasodium Phyllo-selenidotricadmate
;
_chemical_formula_structural       'Na4 (Cd3 Se5)'
_chemical_formula_sum              'Cd3 Na4 Se5'
_publ_section_title
;
Synthesis and structure of the new layered ternary selenide Na4Cd3Se5
;
loop_
_citation_id
_citation_journal_abbrev
_citation_year
_citation_journal_volume
_citation_page_first
_citation_page_last
_citation_journal_id_ASTM
primary 'Journal of Solid State Chemistry' 1993 103 293 297 JSSCBI
_publ_author_name                  'Ansari, M.A.;Ibers, J.A.'
_cell_length_a                     14.026(1)
_cell_length_b                     4.234(2)
_cell_length_c                     20.105(1)
_cell_angle_alpha                  90.
_cell_angle_beta                   90.
_cell_angle_gamma                  90.
_cell_volume                       1193.96
_cell_formula_units_Z              4
_symmetry_space_group_name_H-M     'P n m a'
_symmetry_Int_Tables_number        62
_refine_ls_R_factor_all            .055
loop_
_symmetry_equiv_pos_site_id
_symmetry_equiv_pos_as_xyz
  1	'x+.5, y, -z+.5'
  2	'x, -y+.5, z'
  3	'-x+.5, y+.5, z+.5'
  4	'-x, -y, -z'
  5	'-x+.5, -y, z+.5'
  6	'-x, y+.5, -z'
  7	'x+.5, -y+.5, -z+.5'
  8	'x, y, z'
loop_
_atom_type_symbol
_atom_type_oxidation_number
Cd2+	2
Na1+	1
Se2-	-2
loop_
_atom_site_label
_atom_site_type_symbol
_atom_site_symmetry_multiplicity
_atom_site_Wyckoff_symbol
_atom_site_fract_x
_atom_site_fract_y
_atom_site_fract_z
_atom_site_occupancy
_atom_site_attached_hydrogens
Cd1 Cd2+ 4 c 0.20642(4) 0.25 0.464440(28) 1. 0 
Cd2 Cd2+ 4 c 0.31710(4) 0.25 0.783090(28) 1. 0 
Cd3 Cd2+ 4 c 0.575900(42) 0.25 0.629720(28) 1. 0 
Se1 Se2- 4 c 0.116200(57) 0.25 0.348260(39) 1. 0 
Se2 Se2- 4 c 0.138600(57) 0.25 0.74739(4) 1. 0 
Se3 Se2- 4 c 0.35307(6) 0.25 0.03119(4) 1. 0 
Se4 Se2- 4 c 0.386150(56) 0.25 0.656750(38) 1. 0 
Se5 Se2- 4 c 0.392810(57) 0.25 0.445340(39) 1. 0 
Na1 Na1+ 4 c 0.00098(27) 0.25 0.23326(17) 1. 0 
Na2 Na1+ 4 c 0.00809(31) 0.25 0.58250(21) 1. 0 
Na3 Na1+ 4 c 0.11215(27) 0.25 0.05172(18) 1. 0 
Na4 Na1+ 4 c 0.27593(29) 0.25 0.16594(18) 1. 0 

loop_
_atom_site_aniso_label
_atom_site_aniso_type_symbol
_atom_site_aniso_U_11
_atom_site_aniso_U_22
_atom_site_aniso_U_33
_atom_site_aniso_U_12
_atom_site_aniso_U_13
_atom_site_aniso_U_23
Cd1 Cd2+ 0.00651(18) 0.00686(21) 0.00841(20) 0 0.00026(16) 0
Cd2 Cd2+ 0.00706(19) 0.00709(21) 0.00743(19) 0 -.00033(16) 0
Cd3 Cd2+ 0.00803(20) 0.00710(21) 0.00682(19) 0 0.00081(16) 0
Se1 Se2- 0.00760(28) 0.00598(31) 0.00597(27) 0 -.00056(23) 0
Se2 Se2- 0.00551(25) 0.00731(30) 0.00817(29) 0 0.00109(23) 0
Se3 Se2- 0.00905(30) 0.00562(31) 0.00698(29) 0 -.00146(24) 0
Se4 Se2- 0.00533(26) 0.00680(31) 0.00627(27) 0 0.00078(22) 0
Se5 Se2- 0.00609(27) 0.00629(30) 0.00775(29) 0 0.00104(23) 0
Na1 Na1+ 0.0101(14) 0.0080(15) 0.0139(14) 0 -.0013(12) 0
Na2 Na1+ 0.0137(18) 0.0146(20) 0.0219(20) 0 0.0029(15) 0
Na3 Na1+ 0.0122(15) 0.0140(16) 0.0101(14) 0 0.0013(12) 0
Na4 Na1+ 0.0150(16) 0.0092(16) 0.0113(15) 0 -.0053(13) 0
#End of data_73814-ICSD


