data_29098-ICSD
#?2014 by Fachinformationszentrum Karlsruhe, and the U.S. Secretary of 
#Commerce on behalf of the United States.  All rights reserved.
_database_code_ICSD                29098
_audit_creation_date               1984/09/06
_audit_update_record               2005/10/01
_chemical_name_systematic          'Sodium Iodate(V)'
_chemical_formula_structural       'Na (I O3)'
_chemical_formula_sum              'I1 Na1 O3'
_publ_section_title
;
The crystal structure of sodium iodate
;
loop_
_citation_id
_citation_journal_abbrev
_citation_year
_citation_journal_volume
_citation_page_first
_citation_page_last
_citation_journal_id_ASTM
primary 'Journal of the American Chemical Society' 1947 69 1280 1283 JACSAT
2 'Acta Crystallographica (1,1948-23,1967)' 1962 15 89 90 ACCRA9
_publ_author_name                  'Naray-Szabo, I.;Neugebauer, J.'
_cell_length_a                     5.75
_cell_length_b                     6.37
_cell_length_c                     8.1
_cell_angle_alpha                  90.
_cell_angle_beta                   90.
_cell_angle_gamma                  90.
_cell_volume                       296.68
_cell_formula_units_Z              4
_symmetry_space_group_name_H-M     'P b n m'
_symmetry_Int_Tables_number        62
loop_
_symmetry_equiv_pos_site_id
_symmetry_equiv_pos_as_xyz
  1	'-x+.5, y+.5, z'
  2	'x, y, -z+.5'
  3	'x+.5, -y+.5, z+.5'
  4	'-x, -y, -z'
  5	'x+.5, -y+.5, -z'
  6	'-x, -y, z+.5'
  7	'-x+.5, y+.5, -z+.5'
  8	'x, y, z'
loop_
_atom_type_symbol
_atom_type_oxidation_number
I5+	5
Na1+	1
O2-	-2
loop_
_atom_site_label
_atom_site_type_symbol
_atom_site_symmetry_multiplicity
_atom_site_Wyckoff_symbol
_atom_site_fract_x
_atom_site_fract_y
_atom_site_fract_z
_atom_site_occupancy
_atom_site_attached_hydrogens
Na1 Na1+ 4 b 0.5 0 0 1. 0 
I1 I5+ 4 c 0.01 0.01 0.25 1. 0 
O1 O2- 4 c 0.656 0.08 0.25 1. 0 
O2 O2- 8 d 0.122 0.165 0.043 1. 0 

#End of data_29098-ICSD


