data_14296-ICSD
#?2014 by Fachinformationszentrum Karlsruhe, and the U.S. Secretary of 
#Commerce on behalf of the United States.  All rights reserved.
_database_code_ICSD                14296
_audit_creation_date               1980/01/01
_audit_update_record               2012/02/01
_chemical_name_systematic          'Dicalcium Diiron(III) Oxide'
_chemical_formula_structural       'Ca2 Fe2 O5'
_chemical_formula_sum              'Ca2 Fe2 O5'
_chemical_name_mineral             Srebrodolskite
_publ_section_title
;
The crystal structure of Ca2 Fe2 O5 and its relation to the nuclear 
electric field gradient at the iron sites
;
loop_
_citation_id
_citation_journal_abbrev
_citation_year
_citation_journal_volume
_citation_page_first
_citation_page_last
_citation_journal_id_ASTM
primary 'Acta Crystallographica B (24,1968-38,1982)' 1970 26 1469 1473 ACBCAR
_publ_author_name                  'Colville, A.A.'
_cell_length_a                     5.599(1)
_cell_length_b                     14.771(2)
_cell_length_c                     5.429(1)
_cell_angle_alpha                  90.
_cell_angle_beta                   90.
_cell_angle_gamma                  90.
_cell_volume                       448.99
_cell_formula_units_Z              4
_symmetry_space_group_name_H-M     'P c m n'
_symmetry_Int_Tables_number        62
_refine_ls_R_factor_all            .034
loop_
_symmetry_equiv_pos_site_id
_symmetry_equiv_pos_as_xyz
  1	'-x+.5, y, z+.5'
  2	'x, -y+.5, z'
  3	'x+.5, y+.5, -z+.5'
  4	'-x, -y, -z'
  5	'x+.5, -y, -z+.5'
  6	'-x, y+.5, -z'
  7	'-x+.5, -y+.5, z+.5'
  8	'x, y, z'
loop_
_atom_type_symbol
_atom_type_oxidation_number
Ca2+	2
Fe3+	3
O2-	-2
loop_
_atom_site_label
_atom_site_type_symbol
_atom_site_symmetry_multiplicity
_atom_site_Wyckoff_symbol
_atom_site_fract_x
_atom_site_fract_y
_atom_site_fract_z
_atom_site_occupancy
_atom_site_attached_hydrogens
Ca1 Ca2+ 8 d 0.0233(2) 0.1079(1) 0.4806(2) 1. 0 
Fe1 Fe3+ 4 a 0 0 0 1. 0 
Fe2 Fe3+ 4 c 0.9338(2) 0.25 0.9459(2) 1. 0 
O1 O2- 8 d 0.2366(7) 0.9839(2) 0.2632(8) 1. 0 
O2 O2- 8 d 0.0716(7) 0.1403(2) 0.0234(8) 1. 0 
O3 O2- 4 c 0.8746(8) 0.25 0.6005(9) 1. 0 

#End of data_14296-ICSD


