data_163221-ICSD
#?2014 by Fachinformationszentrum Karlsruhe, and the U.S. Secretary of 
#Commerce on behalf of the United States.  All rights reserved.
_database_code_ICSD                163221
_audit_creation_date               2009/08/01
_chemical_name_systematic          'Selenium Zincate'
_chemical_formula_structural       'Se (Zn O3)'
_chemical_formula_sum              'O3 Se1 Zn1'
_publ_section_title
;
High-pressure synthesis and study of the crystal and magnetic 
structures of the distorted Se M O3 (M= Mn, Co, Ni, Zn) perovskites
;
loop_
_citation_id
_citation_journal_abbrev
_citation_year
_citation_journal_volume
_citation_page_first
_citation_page_last
_citation_journal_id_ASTM
primary 'Journal of Physics: Conference Series' 2008 121 032004-1 032004-8 JPCSDZ
_publ_author_name
;
Alonso, J.A.;Martinez Lope, M.J.;de la Calle, C.;Munoz, A.;Moran, 
E.;Demazeau, G.
;
_cell_length_a                     5.9239(2)
_cell_length_b                     7.6684(3)
_cell_length_c                     5.0421(2)
_cell_angle_alpha                  90.
_cell_angle_beta                   90.
_cell_angle_gamma                  90.
_cell_volume                       229.05
_cell_formula_units_Z              4
_symmetry_space_group_name_H-M     'P n m a'
_symmetry_Int_Tables_number        62
_refine_ls_R_factor_all            .0896
loop_
_symmetry_equiv_pos_site_id
_symmetry_equiv_pos_as_xyz
  1	'x+.5, y, -z+.5'
  2	'x, -y+.5, z'
  3	'-x+.5, y+.5, z+.5'
  4	'-x, -y, -z'
  5	'-x+.5, -y, z+.5'
  6	'-x, y+.5, -z'
  7	'x+.5, -y+.5, -z+.5'
  8	'x, y, z'
loop_
_atom_type_symbol
_atom_type_oxidation_number
O2-	-2
Se4+	4
Zn2+	2
loop_
_atom_site_label
_atom_site_type_symbol
_atom_site_symmetry_multiplicity
_atom_site_Wyckoff_symbol
_atom_site_fract_x
_atom_site_fract_y
_atom_site_fract_z
_atom_site_occupancy
_atom_site_attached_hydrogens
_atom_site_B_iso_or_equiv
Se1 Se4+ 4 c 0.0256(4) 0.250 -0.0146(6) 1. 0 0.23(9) 
Zn1 Zn2+ 4 b 0 0 0.5 1. 0 1.4(1) 
O1 O2- 4 c 0.105(2) 0.250 0.333(3) 1. 0 1.6(2) 
O2 O2- 8 d 0.2102(16) 0.0859(15) 0.8752(18) 1. 0 1.6(2) 

#End of data_163221-ICSD


