data_418903-ICSD
#?2014 by Fachinformationszentrum Karlsruhe, and the U.S. Secretary of 
#Commerce on behalf of the United States.  All rights reserved.
_database_code_ICSD                418903
_audit_creation_date               2008/08/01
_chemical_name_systematic          'Trisilver Iodide Tellurate(VI)'
_chemical_formula_structural       'Ag3 I (Te O4)'
_chemical_formula_sum              'Ag3 I1 O4 Te1'
_publ_section_title
;
Ag4 I2 Se O4 and Ag3 I Te O4 - two new silver solid electrolytes
;
loop_
_citation_id
_citation_journal_abbrev
_citation_year
_citation_journal_volume
_citation_journal_issue
_citation_page_first
_citation_page_last
_citation_journal_id_ASTM
primary 'Zeitschrift fuer Anorganische und Allgemeine Chemie (1950) (DE)'
 2008 634 6-7 1071 1076 ZAACAB
_publ_author_name
;
Pitzschke, D.;Curda, J.;Cakmak, G.;Jansen, M.
;
_cell_length_a                     19.6597(2)
_cell_length_b                     7.1240(4)
_cell_length_c                     13.3598(3)
_cell_angle_alpha                  90.00
_cell_angle_beta                   97.795(2)
_cell_angle_gamma                  90.00
_cell_volume                       1853.83
_cell_formula_units_Z              12
_symmetry_space_group_name_H-M     'P 1 21/c 1'
_symmetry_Int_Tables_number        14
_refine_ls_R_factor_all            .0448
loop_
_symmetry_equiv_pos_site_id
_symmetry_equiv_pos_as_xyz
  1	'x, -y+.5, z+.5'
  2	'-x, -y, -z'
  3	'-x, y+.5, -z+.5'
  4	'x, y, z'
loop_
_atom_type_symbol
_atom_type_oxidation_number
Ag1+	1
I1-	-1
O2-	-2
Te6+	6
loop_
_atom_site_label
_atom_site_type_symbol
_atom_site_symmetry_multiplicity
_atom_site_Wyckoff_symbol
_atom_site_fract_x
_atom_site_fract_y
_atom_site_fract_z
_atom_site_occupancy
_atom_site_attached_hydrogens
_atom_site_U_iso_or_equiv
Te1 Te6+ 4 e 0.24620(5) 0.82683(13) 0.00061(7) 1 0 0.0184(2) 
Te2 Te6+ 4 e 0.15849(5) 0.49026(13) 0.05494(7) 1 0 0.0183(2) 
Te3 Te6+ 4 e 0.24359(5) 0.15515(13) 0.14981(7) 1 0 0.0183(2) 
I1 I1- 4 e 0.43908(6) 0.24568(17) 0.47389(9) 1 0 0.0338(3) 
I2 I1- 4 e 0.01503(7) 0.59932(17) 0.32783(9) 1 0 0.0370(3) 
I3 I1- 4 e 0.43987(6) 0.75922(16) 0.75036(9) 1 0 0.0316(3) 
Ag1 Ag1+ 4 e 0.37060(8) 0.0099(2) 0.60188(11) 1 0 0.0384(4) 
Ag2 Ag1+ 4 e 0.14090(8) 0.3300(2) 0.34888(11) 1 0 0.0444(4) 
Ag3 Ag1+ 4 e 0.00937(8) 0.9762(3) 0.38805(14) 1 0 0.0522(4) 
Ag4 Ag1+ 4 e 0.30357(8) 0.8332(3) 0.77668(11) 1 0 0.0498(5) 
Ag5 Ag1+ 4 e 0.14326(8) 0.7985(2) 0.25736(10) 1 0 0.0427(4) 
Ag6 Ag1+ 4 e 0.41760(9) 0.1319(3) 0.2409(2) 1 0 0.0846(8) 
Ag7 Ag1+ 4 e 0.93463(8) 0.4458(3) 0.46242(14) 1 0 0.0613(5) 
Ag8 Ag1+ 4 e 0.41700(10) 0.6371(3) 0.4698(2) 1 0 0.0782(7) 
Ag9 Ag1+ 4 e 0.30034(8) 0.1723(3) 0.39351(10) 1 0 0.0462(4) 
O1 O2- 4 e 0.2369(6) 0.9669(16) 0.8822(8) 1 0 0.028(2) 
O2 O2- 4 e 0.3209(5) 0.6881(14) 0.9688(8) 1 0 0.022(2) 
O3 O2- 4 e 0.3072(5) 0.9901(14) 0.0890(8) 1 0 0.023(2) 
O4 O2- 4 e 0.1716(5) 0.6594(14) 0.9418(7) 1 0 0.020(2) 
O5 O2- 4 e 0.2348(5) 0.6591(13) 0.1163(7) 1 0 0.018(2) 
O6 O2- 4 e 0.1791(5) 0.9903(13) 0.0595(7) 1 0 0.017(2) 
O7 O2- 4 e 0.0938(5) 0.6350(14) 0.1103(8) 1 0 0.022(2) 
O8 O2- 4 e 0.0960(6) 0.3464(15) 0.9706(9) 1 0 0.031(3) 
O9 O2- 4 e 0.1690(5) 0.3242(14) 0.1728(7) 1 0 0.020(2) 
O10 O2- 4 e 0.2355(5) 0.3236(13) 0.0298(7) 1 0 0.019(2) 
O11 O2- 4 e 0.3179(6) 0.2945(15) 0.2123(8) 1 0 0.026(2) 
O12 O2- 4 e 0.2317(6) 0.0152(16) 0.2634(8) 1 0 0.029(3) 

loop_
_atom_site_aniso_label
_atom_site_aniso_type_symbol
_atom_site_aniso_U_11
_atom_site_aniso_U_22
_atom_site_aniso_U_33
_atom_site_aniso_U_12
_atom_site_aniso_U_13
_atom_site_aniso_U_23
Te1 Te6+ 0.0224(5) 0.0127(4) 0.0207(5) 0.0008(4) 0.0047(4) 0.0005(4)
Te2 Te6+ 0.0208(5) 0.0132(4) 0.0210(5) 0.0003(4) 0.0039(4) -0.0009(4)
Te3 Te6+ 0.0229(5) 0.0130(4) 0.0191(5) -0.0005(4) 0.0030(4) 0.0004(4)
I1 I1- 0.0287(6) 0.0353(6) 0.0371(6) -0.0061(5) 0.0032(5) 0.0021(5)
I2 I1- 0.0456(7) 0.0345(6) 0.0324(6) 0.0000(5) 0.0105(5) 0.0021(5)
I3 I1- 0.0260(6) 0.0300(6) 0.0391(6) 0.0019(4) 0.0050(5) 0.0031(5)
Ag1 Ag1+ 0.0426(8) 0.0322(7) 0.0406(8) -0.0007(6) 0.0060(6) -0.0060(6)
Ag2 Ag1+ 0.0465(9) 0.0527(9) 0.0347(8) -0.0168(7) 0.0081(6) 0.0051(7)
Ag3 Ag1+ 0.0343(8) 0.0576(10) 0.0610(10) 0.0039(7) -0.0075(7) -0.0118(8)
Ag4 Ag1+ 0.0363(8) 0.0891(13) 0.0247(7) 0.0153(8) 0.0068(6) -0.0017(8)
Ag5 Ag1+ 0.0495(9) 0.0510(9) 0.0275(7) -0.0231(7) 0.0050(6) -0.0058(6)
Ag6 Ag1+ 0.0348(9) 0.0487(11) 0.164(2) 0.0109(8) -0.0099(12) -0.0006(13)
Ag7 Ag1+ 0.0279(8) 0.0979(15) 0.0569(10) -0.0226(9) 0.0016(7) 0.0037(10)
Ag8 Ag1+ 0.0375(9) 0.0639(12) 0.135(2) 0.0166(9) 0.0195(11) 0.0110(13)
Ag9 Ag1+ 0.0379(8) 0.0783(12) 0.0229(7) -0.0122(8) 0.0055(6) -0.0034(7)
O1 O2- 0.037(7) 0.028(6) 0.018(5) 0.007(5) 0.003(5) 0.003(5)
O2 O2- 0.028(6) 0.018(5) 0.019(5) 0.008(4) 0.005(4) 0.003(4)
O3 O2- 0.028(6) 0.016(5) 0.025(6) 0.005(4) 0.005(4) 0.002(4)
O4 O2- 0.022(5) 0.019(5) 0.018(5) -0.002(4) 0.004(4) 0.001(4)
O5 O2- 0.028(6) 0.011(5) 0.016(5) 0.000(4) 0.004(4) 0.007(4)
O6 O2- 0.022(5) 0.013(5) 0.018(5) 0.000(4) 0.005(4) -0.006(4)
O7 O2- 0.023(5) 0.022(5) 0.022(5) 0.008(4) 0.007(4) -0.002(4)
O8 O2- 0.033(6) 0.020(5) 0.038(7) -0.003(5) -0.001(5) -0.012(5)
O9 O2- 0.028(6) 0.018(5) 0.016(5) -0.003(4) 0.006(4) 0.000(4)
O10 O2- 0.031(6) 0.010(5) 0.018(5) 0.007(4) 0.009(4) 0.006(4)
O11 O2- 0.028(6) 0.019(5) 0.031(6) -0.005(5) 0.000(5) -0.004(5)
O12 O2- 0.032(6) 0.027(6) 0.026(6) -0.010(5) 0.000(5) 0.013(5)
#End of data_418903-ICSD


