data_31106-ICSD
#?2014 by Fachinformationszentrum Karlsruhe, and the U.S. Secretary of 
#Commerce on behalf of the United States.  All rights reserved.
_database_code_ICSD                31106
_audit_creation_date               1980/01/01
_audit_update_record               2012/08/01
_chemical_name_systematic          'Calcium Magnesium Silicate'
_chemical_formula_structural       'Ca Mg (Si O4)'
_chemical_formula_sum              'Ca1 Mg1 O4 Si1'
_chemical_name_mineral             Monticellite
_publ_section_title
;
The structure of monticellite (Mg Ca Si O4).
;
loop_
_citation_id
_citation_journal_abbrev
_citation_year
_citation_journal_volume
_citation_page_first
_citation_page_last
_citation_journal_id_ASTM
primary
;
Zeitschrift fuer Kristallographie, Kristallgeometrie, Kristallphysik, 
Kristallchemie (-144,1977)
;
 1927 66 154 161 ZEKGAX
_publ_author_name                  'Brown, G.B.;West, J.'
_cell_length_a                     4.815
_cell_length_b                     11.08
_cell_length_c                     6.37
_cell_angle_alpha                  90.
_cell_angle_beta                   90.
_cell_angle_gamma                  90.
_cell_volume                       339.84
_cell_formula_units_Z              4
_symmetry_space_group_name_H-M     'P b n m'
_symmetry_Int_Tables_number        62
loop_
_symmetry_equiv_pos_site_id
_symmetry_equiv_pos_as_xyz
  1	'-x+.5, y+.5, z'
  2	'x, y, -z+.5'
  3	'x+.5, -y+.5, z+.5'
  4	'-x, -y, -z'
  5	'x+.5, -y+.5, -z'
  6	'-x, -y, z+.5'
  7	'-x+.5, y+.5, -z+.5'
  8	'x, y, z'
loop_
_atom_type_symbol
_atom_type_oxidation_number
Ca2+	2
Mg2+	2
O2-	-2
Si4+	4
loop_
_atom_site_label
_atom_site_type_symbol
_atom_site_symmetry_multiplicity
_atom_site_Wyckoff_symbol
_atom_site_fract_x
_atom_site_fract_y
_atom_site_fract_z
_atom_site_occupancy
_atom_site_attached_hydrogens
Mg1 Mg2+ 4 a 0 0 0 1. 0 
Ca1 Ca2+ 4 c -.017 0.257 0.25 1. 0 
Si1 Si4+ 4 c 0.403 0.086 0.25 1. 0 
O1 O2- 4 c -.236 0.067 0.25 1. 0 
O2 O2- 4 c 0.264 0.464 0.25 1. 0 
O3 O2- 8 d 0.25 0.153 0.03 1. 0 

#End of data_31106-ICSD


