data_15368-ICSD
#?2014 by Fachinformationszentrum Karlsruhe, and the U.S. Secretary of 
#Commerce on behalf of the United States.  All rights reserved.
_database_code_ICSD                15368
_audit_creation_date               1980/01/01
_audit_update_record               2012/08/01
_chemical_name_systematic
;
Sodium Aluminium Bis(sulfate(VI)) Dodecahydrate
;
_chemical_formula_structural       'Na Al (S O4)2 (H2 O)12'
_chemical_formula_sum              'H24 Al1 Na1 O20 S2'
_chemical_name_mineral             Alum-(Na)
_publ_section_title
;
Refinement of the alum structures. II. X-ray and neutron diffraction 
of Na Al (S O4)2*(H2 O)12, gamma alum
;
loop_
_citation_id
_citation_journal_abbrev
_citation_year
_citation_journal_volume
_citation_page_first
_citation_page_last
_citation_journal_id_ASTM
primary 'Acta Crystallographica (1,1948-23,1967)' 1967 22 182 187 ACCRA9
2
;
Proceedings of the Royal Society of London, Series A: Mathematical 
and Physical Sciences (76,1906-)
;
 1935 151 347 356 PRLAAZ
_publ_author_name
;
Cromer, D.T.;Kay, M.I.;Larson, A.C.
;
_cell_length_a                     12.213(3)
_cell_length_b                     12.213(3)
_cell_length_c                     12.213(3)
_cell_angle_alpha                  90.
_cell_angle_beta                   90.
_cell_angle_gamma                  90.
_cell_volume                       1821.66
_cell_formula_units_Z              4
_symmetry_space_group_name_H-M     'P a -3'
_symmetry_Int_Tables_number        205
_refine_ls_R_factor_all            .0343
loop_
_symmetry_equiv_pos_site_id
_symmetry_equiv_pos_as_xyz
  1	'-z+.5, x+.5, y'
  2	'z+.5, x, -y+.5'
  3	'z, -x+.5, y+.5'
  4	'-z, -x, -y'
  5	'y, -z+.5, x+.5'
  6	'-y+.5, z+.5, x'
  7	'y+.5, z, -x+.5'
  8	'-y, -z, -x'
  9	'x+.5, y, -z+.5'
 10	'x, -y+.5, z+.5'
 11	'-x+.5, y+.5, z'
 12	'-x, -y, -z'
 13	'z+.5, -x+.5, -y'
 14	'-z+.5, -x, y+.5'
 15	'-z, x+.5, -y+.5'
 16	'z, x, y'
 17	'-y, z+.5, -x+.5'
 18	'y+.5, -z+.5, -x'
 19	'-y+.5, -z, x+.5'
 20	'y, z, x'
 21	'-x+.5, -y, z+.5'
 22	'-x, y+.5, -z+.5'
 23	'x+.5, -y+.5, -z'
 24	'x, y, z'
loop_
_atom_type_symbol
_atom_type_oxidation_number
Al3+	3
H1+	1
Na1+	1
O2-	-2
S6+	6
loop_
_atom_site_label
_atom_site_type_symbol
_atom_site_symmetry_multiplicity
_atom_site_Wyckoff_symbol
_atom_site_fract_x
_atom_site_fract_y
_atom_site_fract_z
_atom_site_occupancy
_atom_site_attached_hydrogens
_atom_site_B_iso_or_equiv
Na1 Na1+ 4 b 0.5 0.5 0.5 1. 0 0 
Al1 Al3+ 4 a 0 0 0 1. 0 0 
S1 S6+ 8 c 0.2652(1) 0.2652(1) 0.2652(1) 1. 0 0 
O1 O2- 8 c 0.3343(2) 0.3343(2) 0.3343(2) 1. 0 0 
O2 O2- 24 d 0.2957(2) 0.2783(2) 0.1508(2) 1. 0 0 
O3 O2- 24 d 0.0767(2) 0.0403(2) 0.3188(2) 1. 0 0 
O4 O2- 24 d 0.1371(2) 0.9596(2) 0.0573(2) 1. 0 0 
H1 H1+ 24 d 0.585(3) 0.319(3) 0.378(3) 1. 0 3.40(12) 
H2 H1+ 24 d 0.486(3) 0.308(3) 0.383(4) 1. 0 4.00(14) 
H3 H1+ 24 d 0.555(3) 0.202(3) 0.502(3) 1. 0 3.2(1) 
H4 H1+ 24 d 0.588(3) 0.339(3) 0.113(3) 1. 0 2.4(9) 

#End of data_15368-ICSD


