data_9912-ICSD
#?2014 by Fachinformationszentrum Karlsruhe, and the U.S. Secretary of 
#Commerce on behalf of the United States.  All rights reserved.
_database_code_ICSD                9912
_audit_creation_date               1986/10/02
_chemical_name_systematic          'Aluminium Pentafluoromanganate(II)'
_chemical_formula_structural       'Al Mn F5'
_chemical_formula_sum              'Al1 F5 Mn1'
_publ_section_title
;
Structure cristalline du fluorure ternaire Al Mn F5
;
loop_
_citation_id
_citation_journal_abbrev
_citation_year
_citation_journal_volume
_citation_page_first
_citation_page_last
_citation_journal_id_ASTM
primary
;
Comptes Rendus Hebdomadaires des Seances de l`Academie des Sciences, 
Serie C, Sciences Chimiques (1966-)
;
 1970 270 407 409 CHDCAQ
_publ_author_name
;
Rimsky, A.;Thoret, J.;Freundlich, W.
;
_cell_length_a                     9.54
_cell_length_b                     9.85
_cell_length_c                     3.58
_cell_angle_alpha                  90.
_cell_angle_beta                   90.
_cell_angle_gamma                  90.
_cell_volume                       336.41
_cell_formula_units_Z              4
_symmetry_space_group_name_H-M     'A m a 2'
_symmetry_Int_Tables_number        40
_refine_ls_R_factor_all            .155
loop_
_symmetry_equiv_pos_site_id
_symmetry_equiv_pos_as_xyz
  1	'x+.5, -y, z'
  2	'-x+.5, y, z'
  3	'-x, -y, z'
  4	'x, y, z'
  5	'x+.5, -y+.5, z+.5'
  6	'-x+.5, y+.5, z+.5'
  7	'-x, -y+.5, z+.5'
  8	'x, y+.5, z+.5'
loop_
_atom_type_symbol
_atom_type_oxidation_number
Al3+	3
F1-	-1
Mn2+	2
loop_
_atom_site_label
_atom_site_type_symbol
_atom_site_symmetry_multiplicity
_atom_site_Wyckoff_symbol
_atom_site_fract_x
_atom_site_fract_y
_atom_site_fract_z
_atom_site_occupancy
_atom_site_attached_hydrogens
_atom_site_B_iso_or_equiv
Al1 Al3+ 4 b 0.25 0.204 0.022 1. 0 -.25 
Mn1 Mn2+ 4 a 0 0 0.499 1. 0 -1.355 
F1 F1- 4 b 0.25 0.196 0.482 1. 0 0.998 
F2 F1- 8 c 0.115 0.329 0.05 1. 0 0.278 
F3 F1- 8 c 0.112 0.062 0 1. 0 -1.563 

#End of data_9912-ICSD


