data_423335-ICSD
#?2014 by Fachinformationszentrum Karlsruhe, and the U.S. Secretary of 
#Commerce on behalf of the United States.  All rights reserved.
_database_code_ICSD                423335
_audit_creation_date               2012/08/01
_chemical_name_systematic          'Tetracesium Neso-oxozincate(II)'
_chemical_formula_structural       'Cs4 (Zn O3)'
_chemical_formula_sum              'Cs4 O3 Zn1'
_publ_section_title
;
The new oxometallates Cs4 [Fe O3], Cs4 [Zn O3] and Cs3 [B O3] with 
trigonal-planar anions - Decomposition products of alkali metal 
suboxometallates
;
loop_
_citation_id
_citation_journal_abbrev
_citation_year
_citation_journal_volume
_citation_journal_issue
_citation_page_first
_citation_page_last
_citation_journal_id_ASTM
primary 'Zeitschrift fuer Naturforschung, B: Chemical Sciences'
 2011 66 12 1248 1249 ZNBSEN
_publ_author_name                  'Hoch, C.'
_cell_length_a                     7.146(4)
_cell_length_b                     18.572(10)
_cell_length_c                     7.050(4)
_cell_angle_alpha                  90.00
_cell_angle_beta                   115.47(4)
_cell_angle_gamma                  90.00
_cell_volume                       844.71
_cell_formula_units_Z              4
_symmetry_space_group_name_H-M     'P 1 21/c 1'
_symmetry_Int_Tables_number        14
_refine_ls_R_factor_all            .061
loop_
_symmetry_equiv_pos_site_id
_symmetry_equiv_pos_as_xyz
  1	'x, -y+.5, z+.5'
  2	'-x, -y, -z'
  3	'-x, y+.5, -z+.5'
  4	'x, y, z'
loop_
_atom_type_symbol
_atom_type_oxidation_number
Cs1+	1
O2-	-2
Zn2+	2
loop_
_atom_site_label
_atom_site_type_symbol
_atom_site_symmetry_multiplicity
_atom_site_Wyckoff_symbol
_atom_site_fract_x
_atom_site_fract_y
_atom_site_fract_z
_atom_site_occupancy
_atom_site_attached_hydrogens
_atom_site_U_iso_or_equiv
Cs1 Cs1+ 4 e 0.1555(3) 0.57548(10) 0.1560(2) 1 0 0.0333(5) 
Cs2 Cs1+ 4 e 0.2103(3) 0.19706(10) 0.1774(2) 1 0 0.0337(5) 
Cs3 Cs1+ 4 e 0.2940(3) 0.00031(10) 0.2066(2) 1 0 0.0309(5) 
Cs4 Cs1+ 4 e 0.6748(3) 0.30389(10) 0.2148(3) 1 0 0.0331(5) 
Zn1 Zn2+ 4 e 0.2862(5) 0.38359(17) 0.2876(4) 1 0 0.0241(7) 
O1 O2- 4 e 0.041(3) 0.4075(10) 0.311(2) 1 0 0.032(5) 
O2 O2- 4 e 0.309(3) 0.4026(12) 0.034(3) 1 0 0.041(6) 
O3 O2- 4 e 0.508(3) 0.1643(11) 0.019(2) 1 0 0.035(5) 

loop_
_atom_site_aniso_label
_atom_site_aniso_type_symbol
_atom_site_aniso_U_11
_atom_site_aniso_U_22
_atom_site_aniso_U_33
_atom_site_aniso_U_12
_atom_site_aniso_U_13
_atom_site_aniso_U_23
Cs1 Cs1+ 0.0325(11) 0.0433(11) 0.0243(7) 0.0008(8) 0.0125(7) 0.0009(7)
Cs2 Cs1+ 0.0400(11) 0.0409(11) 0.0251(8) -0.0016(9) 0.0188(8) -0.0031(7)
Cs3 Cs1+ 0.0339(10) 0.0409(10) 0.0226(7) 0.0010(8) 0.0164(7) 0.0008(6)
Cs4 Cs1+ 0.0337(11) 0.0392(10) 0.0333(8) -0.0026(8) 0.0210(8) -0.0048(7)
Zn1 Zn2+ 0.0281(18) 0.0316(17) 0.0176(12) 0.0007(14) 0.0145(12) 0.0004(12)
O1 O2- 0.041(12) 0.037(13) 0.024(8) 0.018(9) 0.019(9) 0.026(7)
O2 O2- 0.044(13) 0.074(17) 0.020(8) 0.009(10) 0.027(9) -0.006(8)
O3 O2- 0.030(12) 0.066(14) 0.014(8) -0.009(9) 0.012(8) 0.001(8)
#End of data_423335-ICSD


