data_262995-ICSD
#?2014 by Fachinformationszentrum Karlsruhe, and the U.S. Secretary of 
#Commerce on behalf of the United States.  All rights reserved.
_database_code_ICSD                262995
_audit_creation_date               2013/02/01
_chemical_name_systematic
;
Calcium Scandium Antimony Oxide (2/1/1/6)
;
_chemical_formula_structural       'Ca2 Sc Sb O6'
_chemical_formula_sum              'Ca2 O6 Sb1 Sc1'
_publ_section_title
;
A study of the crystal structures and the phase transitions of the 
ordered double perovskites Sr2 Sc Sb O6 and Ca2 Sc Sb O6
;
loop_
_citation_id
_citation_journal_abbrev
_citation_year
_citation_journal_volume
_citation_journal_issue
_citation_page_first
_citation_page_last
_citation_journal_id_ASTM
primary 'Journal of Solid State Chemistry' 2012 192 8 273 283 JSSCBI
_publ_author_name
;
Faik, A.;Orobengoa, D.;Iturbe-Zabalo, E.;Igartua, J.M.
;
_cell_length_a                     5.5088(1)
_cell_length_b                     5.6226(1)
_cell_length_c                     7.8601(1)
_cell_angle_alpha                  90
_cell_angle_beta                   90.02(1)
_cell_angle_gamma                  90
_cell_volume                       243.46
_cell_formula_units_Z              2
_symmetry_space_group_name_H-M     'P 1 21/n 1'
_symmetry_Int_Tables_number        14
_refine_ls_R_factor_all            .0524
loop_
_symmetry_equiv_pos_site_id
_symmetry_equiv_pos_as_xyz
  1	'-x+.5, y+.5, -z+.5'
  2	'-x, -y, -z'
  3	'x+.5, -y+.5, z+.5'
  4	'x, y, z'
loop_
_atom_type_symbol
_atom_type_oxidation_number
Ca2+	2
O2-	-2
Sb5+	5
Sc3+	3
loop_
_atom_site_label
_atom_site_type_symbol
_atom_site_symmetry_multiplicity
_atom_site_Wyckoff_symbol
_atom_site_fract_x
_atom_site_fract_y
_atom_site_fract_z
_atom_site_occupancy
_atom_site_attached_hydrogens
_atom_site_B_iso_or_equiv
Ca1 Ca2+ 4 e 0.0150(9) 0.0461(4) 0.2490(4) 1. 0 0.28(6) 
Sb1 Sb5+ 2 c 0 0.5 0 1. 0 0.18(3) 
Sc1 Sc3+ 2 d 0.5 0 0 1. 0 0.59(6) 
O1 O2- 4 e 0.292(2) 0.303(2) 0.052(2) 1. 0 0.48(3) 
O2 O2- 4 e 0.299(2) 0.284(2) 0.444(2) 1. 0 0.48(3) 
O3 O2- 4 e 0.908(2) 0.468(1) 0.244(1) 1. 0 0.48(3) 

#End of data_262995-ICSD


