data_202679-ICSD
#?2014 by Fachinformationszentrum Karlsruhe, and the U.S. Secretary of 
#Commerce on behalf of the United States.  All rights reserved.
_database_code_ICSD                202679
_audit_creation_date               1989/06/19
_audit_update_record               1990/05/24
_chemical_name_systematic          'Sodium Iodate'
_chemical_formula_structural       'Na I O3'
_chemical_formula_sum              'I1 Na1 O3'
_publ_section_title
;
The Crystal Structure of Na I O3 at 293K
;
loop_
_citation_id
_citation_journal_abbrev
_citation_year
_citation_journal_volume
_citation_page_first
_citation_page_last
_citation_journal_id_ASTM
primary 'Journal of Solid State Chemistry' 1988 77 112 116 JSSCBI
_publ_author_name                  'Svensson, C.;Stahl, K.'
_cell_length_a                     5.7500(3)
_cell_length_b                     6.3953(3)
_cell_length_c                     8.1280(4)
_cell_angle_alpha                  90.
_cell_angle_beta                   90.
_cell_angle_gamma                  90.
_cell_volume                       298.89
_cell_formula_units_Z              4
_symmetry_space_group_name_H-M     'P b n m'
_symmetry_Int_Tables_number        62
_refine_ls_R_factor_all            .018
loop_
_symmetry_equiv_pos_site_id
_symmetry_equiv_pos_as_xyz
  1	'-x+.5, y+.5, z'
  2	'x, y, -z+.5'
  3	'x+.5, -y+.5, z+.5'
  4	'-x, -y, -z'
  5	'x+.5, -y+.5, -z'
  6	'-x, -y, z+.5'
  7	'-x+.5, y+.5, -z+.5'
  8	'x, y, z'
loop_
_atom_type_symbol
_atom_type_oxidation_number
I5+	5
Na1+	1
O2-	-2
loop_
_atom_site_label
_atom_site_type_symbol
_atom_site_symmetry_multiplicity
_atom_site_Wyckoff_symbol
_atom_site_fract_x
_atom_site_fract_y
_atom_site_fract_z
_atom_site_occupancy
_atom_site_attached_hydrogens
Na1 Na1+ 4 b 0.5 0 0 1. 0 
I1 I5+ 4 c 0.01137(1) 0.01360(1) 0.25 1. 0 
O1 O2- 4 c -.28739(13) 0.0985(11) 0.25 1. 0 
O2 O2- 8 d 0.13664(11) 0.16501(11) 0.08384(8) 1. 0 

#End of data_202679-ICSD


