data_39553-ICSD
#?2014 by Fachinformationszentrum Karlsruhe, and the U.S. Secretary of 
#Commerce on behalf of the United States.  All rights reserved.
_database_code_ICSD                39553
_audit_creation_date               1992/08/20
_chemical_name_systematic          'Potassium Germanium Silicate *'
_chemical_formula_structural       'K2 Ge (Si6 O15)'
_chemical_formula_sum              'Ge1 K2 O15 Si6'
_publ_section_title                'Crystal structure of K2Ge(Si6O15)'
loop_
_citation_id
_citation_journal_abbrev
_citation_year
_citation_journal_volume
_citation_page_first
_citation_page_last
_citation_journal_id_ASTM
primary Kristallografiya 1992 37 70 76 KRISAJ
2 'Soviet Physics, Crystallography (= Kristallografiya)'
 1992 37 33 37 SPHCA6
_publ_author_name
;
Mikheeva, M.G.;Yamnova, N.A.;Rastsvetaeva, R.K.;Pushcharovskii, 
D.Yu.;Sorokina, S.L.
;
_cell_length_a                     14.788(2)
_cell_length_b                     7.174(1)
_cell_length_c                     12.572(2)
_cell_angle_alpha                  90.
_cell_angle_beta                   106.88(1)
_cell_angle_gamma                  90.
_cell_volume                       1276.29
_cell_formula_units_Z              4
_symmetry_space_group_name_H-M     'A 1 n 1'
_symmetry_Int_Tables_number        9
_refine_ls_R_factor_all            .032
loop_
_symmetry_equiv_pos_site_id
_symmetry_equiv_pos_as_xyz
  1	'x+.5, -y, z+.5'
  2	'x, y, z'
  3	'x+.5, -y+.5, z'
  4	'x, y+.5, z+.5'
loop_
_atom_type_symbol
_atom_type_oxidation_number
Ge4+	4
K1+	1
O2-	-2
Si4+	4
loop_
_atom_site_label
_atom_site_type_symbol
_atom_site_symmetry_multiplicity
_atom_site_Wyckoff_symbol
_atom_site_fract_x
_atom_site_fract_y
_atom_site_fract_z
_atom_site_occupancy
_atom_site_attached_hydrogens
_atom_site_B_iso_or_equiv
Ge1 Ge4+ 4 a 0.1729 0.999 0.3981 1. 0 0.60(1) 
K1 K1+ 4 a 0.0974(1) 0.4345(2) 0.1425(1) 1. 0 2.02(3) 
K2 K1+ 4 a 0.2895(1) 0.8124(1) 0.1061(1) 1. 0 1.84(3) 
Si1 Si4+ 4 a 0.0409 0.3365(1) 0.4353(1) 1. 0 0.48(2) 
Si2 Si4+ 4 a 0.3289 0.2965(1) 0.0956(1) 1. 0 0.48(2) 
Si3 Si4+ 4 a 0.3115 0.6755(1) 0.3718(1) 1. 0 0.51(2) 
Si4 Si4+ 4 a 0.0061 0.7117(1) 0.3314(1) 1. 0 0.41(2) 
Si5 Si4+ 4 a 0.0227 0.9735(1) 0.1628(1) 1. 0 0.53(2) 
Si6 Si4+ 4 a 0.3307 0.2596(1) 0.3283(1) 1. 0 0.46(2) 
O1 O2- 4 a 0.2409(2) 0.4275(5) 0.0440(2) 1. 0 0.95(6) 
O2 O2- 4 a 0.1285(2) 0.1996(5) 0.4626(3) 1. 0 0.99(6) 
O3 O2- 4 a 0.1034(2) 0.0805(5) 0.2542(2) 1. 0 0.95(6) 
O4 O2- 4 a 0.0729(2) 0.8528(5) 0.4159(3) 1. 0 0.97(7) 
O5 O2- 4 a 0.2178(2) 0.7971(5) 0.3293(3) 1. 0 0.92(6) 
O6 O2- 4 a 0.3172(2) 0.1789(4) 0.2024(2) 1. 0 0.96(6) 
O7 O2- 4 a 0.2773(2) 0.1422(6) 0.3966(3) 1. 0 1.23(7) 
O8 O2- 4 a 0.0511(3) 0.9549(5) 0.0488(3) 1. 0 1.38(7) 
O9 O2- 4 a 0.4416(2) 0.2741(5) 0.3978(3) 1. 0 1.18(7) 
O10 O2- 4 a 0.4267(3) 0.4099(6) 0.1365(4) 1. 0 1.95(9) 
O11 O2- 4 a 0.3982(2) 0.7803(5) 0.3399(3) 1. 0 1.24(7) 
O12 O2- 4 a 0.0400(2) 0.4951(4) 0.3412(2) 1. 0 1.08(7) 
O13 O2- 4 a -.0006(2) 0.7645(4) 0.2004(2) 1. 0 1.05(7) 
O14 O2- 4 a 0.3407(2) 0.1387(7) 0.0061(2) 1. 0 1.12(6) 
O15 O2- 4 a 0.2918(2) 0.4747(4) 0.3087(3) 1. 0 1.22(7) 

#End of data_39553-ICSD


