data_35656-ICSD
#?2014 by Fachinformationszentrum Karlsruhe, and the U.S. Secretary of 
#Commerce on behalf of the United States.  All rights reserved.
_database_code_ICSD                35656
_audit_creation_date               1983/12/31
_audit_update_record               2003/10/01
_chemical_name_systematic          'Dirubidium Tetrachlorozincate'
_chemical_formula_structural       'Rb2 (Zn Cl4)'
_chemical_formula_sum              'Cl4 Rb2 Zn1'
_publ_section_title
;
Neutron Structural Study of the Successive Phase Transitions in Rb2 
Zn Cl4
;
loop_
_citation_id
_citation_journal_abbrev
_citation_year
_citation_journal_volume
_citation_page_first
_citation_page_last
_citation_journal_id_ASTM
primary 'Acta Crystallographica, Section B: Structural Science'
 1983 39 657 663 ASBSDK
2 'Phase Transition' 1992 38 127 220 PHTRDP
_publ_author_name                  'Quilichini, M.;Pannetier, J.'
_cell_length_a                     9.233(4)
_cell_length_b                     7.278(5)
_cell_length_c                     12.736(8)
_cell_angle_alpha                  90.
_cell_angle_beta                   90.
_cell_angle_gamma                  90.
_cell_volume                       855.83
_cell_formula_units_Z              4
_symmetry_space_group_name_H-M     'P n m a'
_symmetry_Int_Tables_number        62
_refine_ls_R_factor_all            .0882
loop_
_symmetry_equiv_pos_site_id
_symmetry_equiv_pos_as_xyz
  1	'x+.5, y, -z+.5'
  2	'x, -y+.5, z'
  3	'-x+.5, y+.5, z+.5'
  4	'-x, -y, -z'
  5	'-x+.5, -y, z+.5'
  6	'-x, y+.5, -z'
  7	'x+.5, -y+.5, -z+.5'
  8	'x, y, z'
loop_
_atom_type_symbol
_atom_type_oxidation_number
Cl1-	-1
Rb1+	1
Zn2+	2
loop_
_atom_site_label
_atom_site_type_symbol
_atom_site_symmetry_multiplicity
_atom_site_Wyckoff_symbol
_atom_site_fract_x
_atom_site_fract_y
_atom_site_fract_z
_atom_site_occupancy
_atom_site_attached_hydrogens
Rb1 Rb1+ 4 c 0.6314(3) 0.25 0.4075(3) 1. 0 
Rb2 Rb1+ 4 c 0.4851(2) 0.25 0.8196(2) 1. 0 
Zn1 Zn2+ 4 c 0.2246(3) 0.25 0.4225(2) 1. 0 
Cl1 Cl1- 4 c 0.9839(2) 0.25 0.4173(2) 1. 0 
Cl2 Cl1- 4 c 0.3185(2) 0.25 0.5854(2) 1. 0 
Cl3 Cl1- 8 d 0.3159(2) 1.0007(2) 0.3425(2) 1. 0 

loop_
_atom_site_aniso_label
_atom_site_aniso_type_symbol
_atom_site_aniso_U_11
_atom_site_aniso_U_22
_atom_site_aniso_U_33
_atom_site_aniso_U_12
_atom_site_aniso_U_13
_atom_site_aniso_U_23
Rb1 Rb1+ 0.0270(14) 0.0706(21) 0.0922(28) 0 -0.0036(14) 0
Rb2 Rb1+ 0.0241(12) 0.0637(16) 0.0289(15) 0 -0.0031(9) 0
Zn1 Zn2+ 0.0204(13) 0.0345(15) 0.0192(14) 0 -0.0001(9) 0
Cl1 Cl1- 0.0165(11) 0.1387(25) 0.0482(15) 0 -0.0057(8) 0
Cl2 Cl1- 0.0298(12) 0.1603(31) 0.0249(13) 0 -0.0098(8) 0
Cl3 Cl1- 0.0554(12) 0.0487(12) 0.1189(19) -0.0421(11) 0.0361(10) -0.0112(7)
#End of data_35656-ICSD


