data_88905-ICSD
#?2014 by Fachinformationszentrum Karlsruhe, and the U.S. Secretary of 
#Commerce on behalf of the United States.  All rights reserved.
_database_code_ICSD                88905
_audit_creation_date               2001/07/16
_audit_update_record               2007/08/01
_chemical_name_systematic          'Aluminium Phosphate(V) (24/24)'
_chemical_formula_structural       'Al24 (P O4)24'
_chemical_formula_sum              'Al24 O96 P24'
_chemical_name_mineral             'Zeolite SAPO-56'
_publ_section_title
;
Synthesis, characterization and structure of SAPO-56, a member of the 
ABC double-six-ring family of materials with stacking sequence 
AABBCCBB
;
loop_
_citation_id
_citation_journal_abbrev
_citation_year
_citation_journal_volume
_citation_page_first
_citation_page_last
_citation_journal_id_ASTM
primary 'Microporous and Mesoporous Materials' 1999 28 125 137 MIMMFJ
_publ_author_name
;
Wilson, S.T.;Broach, R.W.;Blackwell, C.S.;Bateman, C.A.;McGuire, 
N.K.;Kirchner, R.M.
;
_cell_length_a                     13.7571(3)
_cell_length_b                     13.7571(3)
_cell_length_c                     19.93619(70)
_cell_angle_alpha                  90.
_cell_angle_beta                   90.
_cell_angle_gamma                  120.
_cell_volume                       3267.58
_cell_formula_units_Z              1
_symmetry_space_group_name_H-M     'P -3 1 c'
_symmetry_Int_Tables_number        163
_refine_ls_R_factor_all            .042
loop_
_symmetry_equiv_pos_site_id
_symmetry_equiv_pos_as_xyz
  1	'-x+y, y, -z+.5'
  2	'x, x-y, -z+.5'
  3	'-y, -x, -z+.5'
  4	'x-y, x, -z'
  5	'y, -x+y, -z'
  6	'-x, -y, -z'
  7	'x-y, -y, z+.5'
  8	'-x, -x+y, z+.5'
  9	'y, x, z+.5'
 10	'-x+y, -x, z'
 11	'-y, x-y, z'
 12	'x, y, z'
loop_
_atom_type_symbol
_atom_type_oxidation_number
Al3+	3
O2-	-2
P5+	5
loop_
_atom_site_label
_atom_site_type_symbol
_atom_site_symmetry_multiplicity
_atom_site_Wyckoff_symbol
_atom_site_fract_x
_atom_site_fract_y
_atom_site_fract_z
_atom_site_occupancy
_atom_site_attached_hydrogens
_atom_site_U_iso_or_equiv
Al1 Al3+ 12 i -.0022(17) 0.2295(13) 0.0791(9) 1. 0 0.036(5) 
Al2 Al3+ 12 i 0.3325(12) 0.4374(11) 0.1672(8) 1. 0 0.020(4) 
P1 P5+ 12 i 0.1059(11) 0.4444(11) 0.1731(7) 1. 0 0.016(4) 
P2 P5+ 12 i 0.2299(12) 0.2253(11) 0.0755(7) 1. 0 0.012(3) 
O1 O2- 12 i 0.8680(22) 0.1106(22) 0.0990(9) 1. 0 0.018(1) 
O2 O2- 12 i 0.1098(20) 0.1961(10) 0.0895(7) 1. 0 0.018(1) 
O3 O2- 12 i 0.0190(16) 0.3495(14) 0.1190(14) 1. 0 0.018(1) 
O4 O2- 12 i 0.0181(16) 0.2844(12) -.0011(15) 1. 0 0.018(1) 
O5 O2- 12 i 0.2140(11) 0.4683(11) 0.1605(9) 1. 0 0.018(1) 
O6 O2- 12 i 0.0935(11) 0.5395(22) 0.1481(8) 1. 0 0.018(1) 
O7 O2- 12 i 0.0734(10) 0.4033(10) 0.2404(13) 1. 0 0.018(1) 
O8 O2- 12 i 0.3059(15) 0.3255(17) 0.1259(14) 1. 0 0.018(1) 

#End of data_88905-ICSD


