data_2462-ICSD
#?2014 by Fachinformationszentrum Karlsruhe, and the U.S. Secretary of 
#Commerce on behalf of the United States.  All rights reserved.
_database_code_ICSD                2462
_audit_creation_date               1980/01/01
_audit_update_record               2014/08/01
_chemical_name_systematic          'Potassium Tecto-pentatantalate'
_chemical_formula_structural       'K (Ta5 O13)'
_chemical_formula_sum              'K1 O13 Ta5'
_publ_section_title
;
Crystal structure of some niobium and tantalum oxides. IV. The 
structure of K Ta5 O13 and its relationship to the alpha Pb O2 
structure
;
loop_
_citation_id
_citation_journal_abbrev
_citation_year
_citation_journal_volume
_citation_page_first
_citation_page_last
_citation_journal_id_ASTM
primary 'Journal of Solid State Chemistry' 1978 24 183 187 JSSCBI
_publ_author_name                  'Awadalla, A.A.;Gatehouse, B.M.'
_cell_length_a                     5.653(3)
_cell_length_b                     10.708
_cell_length_c                     16.799(7)
_cell_angle_alpha                  90.
_cell_angle_beta                   90.
_cell_angle_gamma                  90.
_cell_volume                       1016.88
_cell_formula_units_Z              4
_symmetry_space_group_name_H-M     'P b c m'
_symmetry_Int_Tables_number        57
_refine_ls_R_factor_all            .053
loop_
_symmetry_equiv_pos_site_id
_symmetry_equiv_pos_as_xyz
  1	'x, -y+.5, z+.5'
  2	'-x, y+.5, z'
  3	'x, y, -z+.5'
  4	'-x, -y, -z'
  5	'-x, y+.5, -z+.5'
  6	'x, -y+.5, -z'
  7	'-x, -y, z+.5'
  8	'x, y, z'
loop_
_atom_type_symbol
_atom_type_oxidation_number
K1+	1
O2-	-2
Ta5+	5
loop_
_atom_site_label
_atom_site_type_symbol
_atom_site_symmetry_multiplicity
_atom_site_Wyckoff_symbol
_atom_site_fract_x
_atom_site_fract_y
_atom_site_fract_z
_atom_site_occupancy
_atom_site_attached_hydrogens
_atom_site_U_iso_or_equiv
Ta1 Ta5+ 8 e 0.1615(2) 0.0622(1) 0.0765(1) 1. 0 0 
Ta2 Ta5+ 8 e 0.3431(2) 0.3659(1) 0.1370(1) 1. 0 0 
Ta3 Ta5+ 4 c 0.3349 0.75 0 1. 0 0 
K1 K1+ 4 d 0.2056(20) 0.6744(10) 0.25 1. 0 0 
O1 O2- 8 e 0.090(3) 0.484(2) 0.138(1) 1. 0 0.007(4) 
O2 O2- 8 e 0.127(3) 0.218(2) 0.126(1) 1. 0 0.007(3) 
O3 O2- 8 e 0.124(3) 0.604(2) -.004(1) 1. 0 0.001(3) 
O4 O2- 4 d 0.369(4) 0.346(2) 0.25 1. 0 0.006(5) 
O5 O2- 8 e 0.366(3) 0.373(2) 0.012(1) 1. 0 0.009(4) 
O6 O2- 8 e 0.408(3) -.004(2) 0.136(1) 1. 0 0.009(4) 
O7 O2- 8 e 0.394(3) 0.749(2) 0.111(1) 1. 0 0.004(3) 

loop_
_atom_site_aniso_label
_atom_site_aniso_type_symbol
_atom_site_aniso_U_11
_atom_site_aniso_U_22
_atom_site_aniso_U_33
_atom_site_aniso_U_12
_atom_site_aniso_U_13
_atom_site_aniso_U_23
Ta1 Ta5+ 0.0075(4) 0.0017(4) 0.0022(4) 0.0000(4) 0.0002(4) -.0002(4)
Ta2 Ta5+ 0.0083(4) 0.0018(4) 0.0023(4) 0.0012(4) 0.0005(4) 0.0000(3)
Ta3 Ta5+ 0.0074(6) 0.0014(6) 0.0026(5) 0 0 -.0006(4)
K1 K1+ 0.0358(59) 0.0258(49) 0.0070(36) 0 0 -0.011(13)
#End of data_2462-ICSD


