data_261246-ICSD
#?2014 by Fachinformationszentrum Karlsruhe, and the U.S. Secretary of 
#Commerce on behalf of the United States.  All rights reserved.
_database_code_ICSD                261246
_audit_creation_date               2011/08/01
_chemical_name_systematic
;
Disodium Calcium Dinickel(II) Bis(diphosphate(V)) Decahydrate
;
_chemical_formula_structural       'Na2 Ca Ni2 (P2 O7)2 (H2 O)10'
_chemical_formula_sum              'H20 Ca1 Na2 Ni2 O24 P4'
_publ_section_title
;
Disodium calcium dinickel(II) bis[diphosphate(V)] decahydrate
;
loop_
_citation_id
_citation_journal_abbrev
_citation_year
_citation_journal_volume
_citation_journal_issue
_citation_page_first
_citation_page_last
_citation_journal_id_ASTM
primary 'Acta Crystallographica, Section E. Structure Reports Online'
 2011 67 2 i13 i14 ACSEBH
_publ_author_name                  'Cui Yuncheng;Zhao Yanhui'
_cell_length_a                     11.9340(11)
_cell_length_b                     32.774(4)
_cell_length_c                     10.9860(11)
_cell_angle_alpha                  90.00
_cell_angle_beta                   90.00
_cell_angle_gamma                  90.00
_cell_volume                       4296.9
_cell_formula_units_Z              8
_symmetry_space_group_name_H-M     'F d d 2'
_symmetry_Int_Tables_number        43
_refine_ls_R_factor_all            .0214
loop_
_symmetry_equiv_pos_site_id
_symmetry_equiv_pos_as_xyz
  1	'x+.25, -y+.25, z+.25'
  2	'-x+.25, y+.25, z+.25'
  3	'-x, -y, z'
  4	'x, y, z'
  5	'x+.25, -y+.75, z+.75'
  6	'x+.75, -y+.25, z+.75'
  7	'x+.75, -y+.75, z+.25'
  8	'-x+.25, y+.75, z+.75'
  9	'-x+.75, y+.25, z+.75'
 10	'-x+.75, y+.75, z+.25'
 11	'-x, -y+.5, z+.5'
 12	'-x+.5, -y, z+.5'
 13	'-x+.5, -y+.5, z'
 14	'x, y+.5, z+.5'
 15	'x+.5, y, z+.5'
 16	'x+.5, y+.5, z'
loop_
_atom_type_symbol
_atom_type_oxidation_number
Ca2+	2
H1+	1
Na1+	1
Ni2+	2
O2-	-2
P5+	5
loop_
_atom_site_label
_atom_site_type_symbol
_atom_site_symmetry_multiplicity
_atom_site_Wyckoff_symbol
_atom_site_fract_x
_atom_site_fract_y
_atom_site_fract_z
_atom_site_occupancy
_atom_site_attached_hydrogens
_atom_site_U_iso_or_equiv
Ca1 Ca2+ 8 a 0.5000 0.0000 0.62448(8) 1 0 0.01385(17) 
Ni1 Ni2+ 16 b 0.86875(3) 0.110744(11) 0.47330(3) 1 0 0.01615(10) 
Na1 Na1+ 16 b 0.71250(14) 0.09782(5) 0.71990(15) 1 0 0.0492(4) 
P1 P5+ 16 b 0.64133(7) 0.07042(2) 0.42464(7) 1 0 0.01640(16) 
P2 P5+ 16 b 0.79550(6) 0.06891(2) 0.22939(7) 1 0 0.01653(16) 
O1 O2- 16 b 0.88590(18) 0.08175(6) 0.3187(2) 1 0 0.0249(5) 
O2 O2- 16 b 0.73480(18) 0.07854(7) 0.51498(19) 1 0 0.0238(5) 
O3 O2- 16 b 0.8414(2) 0.14096(6) 0.6234(2) 1 0 0.0296(5) 
O4 O2- 16 b 0.9793(3) 0.06393(10) 0.5826(3) 1 0 0.0684(11) 
H1 H1+ 16 b 1.0545 0.0553 0.5590 1 0 0.082 
H2 H1+ 16 b 0.9577 0.0581 0.6632 1 0 0.082 
O5 O2- 16 b 0.9895(2) 0.14533(6) 0.4175(2) 1 0 0.0305(5) 
O6 O2- 16 b 0.83644(18) 0.03723(6) 0.14145(19) 1 0 0.0221(5) 
O7 O2- 16 b 0.69943(17) 0.04685(6) 0.31024(19) 1 0 0.0180(4) 
O8 O2- 16 b 0.55500(18) 0.04126(6) 0.4715(2) 1 0 0.0246(5) 
O9 O2- 16 b 0.5427(3) 0.13839(8) 0.6683(3) 1 0 0.0494(8) 
H3 H1+ 16 b 0.5308 0.1648 0.6733 1 0 0.059 
H4 H1+ 16 b 0.4990 0.1317 0.7274 1 0 0.059 
O10 O2- 16 b 0.58195(19) 0.04368(6) 0.7792(2) 1 0 0.0275(5) 
H5 H1+ 16 b 0.6151 0.0351 0.8478 1 0 0.033 
H6 H1+ 16 b 0.5175 0.0595 0.7980 1 0 0.033 
O11 O2- 16 b 0.8778(2) 0.03869(7) 0.8000(3) 1 0 0.0375(6) 
H7 H1+ 16 b 0.8544 0.0120 0.7960 1 0 0.045 
H8 H1+ 16 b 0.9425 0.0387 0.8564 1 0 0.045 
O12 O2- 16 b 0.6562(2) 0.01268(7) 0.0001(2) 1 0 0.0369(6) 
H9 H1+ 16 b 0.7193 0.0151 0.0491 1 0 0.044 
H10 H1+ 16 b 0.6269 -0.0124 -0.0117 1 0 0.044 

loop_
_atom_site_aniso_label
_atom_site_aniso_type_symbol
_atom_site_aniso_U_11
_atom_site_aniso_U_22
_atom_site_aniso_U_33
_atom_site_aniso_U_12
_atom_site_aniso_U_13
_atom_site_aniso_U_23
Ca1 Ca2+ 0.0133(4) 0.0136(4) 0.0147(4) 0.0007(3) 0.000 0.000
Ni1 Ni2+ 0.01661(18) 0.01719(17) 0.01464(17) -0.00632(16) 0.00368(16) 
-0.00529(14)
Na1 Na1+ 0.0593(10) 0.0601(9) 0.0283(7) -0.0349(9) 0.0115(8) -0.0071(8)
P1 P5+ 0.0166(4) 0.0160(3) 0.0166(4) -0.0011(3) 0.0018(3) 0.0013(3)
P2 P5+ 0.0168(4) 0.0169(3) 0.0159(3) 0.0026(3) 0.0006(3) -0.0005(3)
O1 O2- 0.0189(12) 0.0328(12) 0.0230(12) -0.0051(10) 0.0009(10) -0.0112(10)
O2 O2- 0.0220(12) 0.0326(11) 0.0169(11) -0.0081(10) 0.0014(9) -0.0028(9)
O3 O2- 0.0385(14) 0.0263(11) 0.0241(12) -0.0140(11) 0.0132(11) -0.0087(10)
O4 O2- 0.0506(19) 0.108(3) 0.0462(18) 0.042(2) 0.0165(15) 0.0406(18)
O5 O2- 0.0346(14) 0.0267(11) 0.0301(13) -0.0153(11) 0.0136(12) -0.0113(10)
O6 O2- 0.0208(11) 0.0243(10) 0.0212(11) 0.0050(10) -0.0013(9) -0.0080(9)
O7 O2- 0.0182(11) 0.0160(9) 0.0198(10) -0.0015(9) 0.0020(9) -0.0029(8)
O8 O2- 0.0219(11) 0.0281(11) 0.0238(11) -0.0075(10) 0.0015(10) 0.0040(10)
O9 O2- 0.066(2) 0.0474(16) 0.0347(14) -0.0080(15) 0.0152(14) 0.0011(12)
O10 O2- 0.0240(12) 0.0317(12) 0.0269(13) 0.0031(11) -0.0025(10) -0.0016(10)
O11 O2- 0.0377(15) 0.0262(11) 0.0487(17) -0.0059(11) -0.0046(12) 0.0052(12)
O12 O2- 0.0335(15) 0.0386(13) 0.0385(16) -0.0031(12) -0.0104(11) 
-0.0029(12)
#End of data_261246-ICSD


