data_171984-ICSD
#?2014 by Fachinformationszentrum Karlsruhe, and the U.S. Secretary of 
#Commerce on behalf of the United States.  All rights reserved.
_database_code_ICSD                171984
_audit_creation_date               2007/04/01
_chemical_name_systematic          'Dibarium Calcium Tungstate'
_chemical_formula_structural       'Ba2 Ca W O6'
_chemical_formula_sum              'Ba2 Ca1 O6 W1'
_chemical_name_mineral             'Perovskite, double'
_publ_section_title
;
Structural phase transition and magnetic properties of double 
perovskites Ba2 Ca M O6 (M = W, Re, Os)
;
loop_
_citation_id
_citation_journal_abbrev
_citation_year
_citation_journal_volume
_citation_journal_issue
_citation_page_first
_citation_page_last
_citation_journal_id_ASTM
primary 'Journal of Solid State Chemistry' 2006 179 3 605 612 JSSCBI
_publ_author_name
;
Yamamura, Y.;Wakeshima, M.;Hinatsu, Y.
;
_cell_length_a                     5.930(1)
_cell_length_b                     5.930(1)
_cell_length_c                     8.397(1)
_cell_angle_alpha                  90.
_cell_angle_beta                   90.
_cell_angle_gamma                  90.
_cell_volume                       295.28
_cell_formula_units_Z              2
_symmetry_space_group_name_H-M     'I 4/m'
_symmetry_Int_Tables_number        87
_refine_ls_R_factor_all            .0801
loop_
_symmetry_equiv_pos_site_id
_symmetry_equiv_pos_as_xyz
  1	'-y, x, -z'
  2	'y, -x, -z'
  3	'x, y, -z'
  4	'-x, -y, -z'
  5	'y, -x, z'
  6	'-y, x, z'
  7	'-x, -y, z'
  8	'x, y, z'
  9	'-y+.5, x+.5, -z+.5'
 10	'y+.5, -x+.5, -z+.5'
 11	'x+.5, y+.5, -z+.5'
 12	'-x+.5, -y+.5, -z+.5'
 13	'y+.5, -x+.5, z+.5'
 14	'-y+.5, x+.5, z+.5'
 15	'-x+.5, -y+.5, z+.5'
 16	'x+.5, y+.5, z+.5'
loop_
_atom_type_symbol
_atom_type_oxidation_number
Ba2+	2
Ca2+	2
O2-	-2
W6+	6
loop_
_atom_site_label
_atom_site_type_symbol
_atom_site_symmetry_multiplicity
_atom_site_Wyckoff_symbol
_atom_site_fract_x
_atom_site_fract_y
_atom_site_fract_z
_atom_site_occupancy
_atom_site_attached_hydrogens
_atom_site_B_iso_or_equiv
Ba1 Ba2+ 4 d 0 0.5 0.25 1. 0 .4 
Ca1 Ca2+ 2 b 0 0 0.5 1. 0 .6 
W1 W6+ 2 a 0 0 0 1. 0 .3 
O1 O2- 4 e 0 0 0.223(3) 1. 0 1.0 
O2 O2- 8 h 0.211(3) 0.275(2) 0 1. 0 1.0 

#End of data_171984-ICSD


