data_1860-ICSD
#?2014 by Fachinformationszentrum Karlsruhe, and the U.S. Secretary of 
#Commerce on behalf of the United States.  All rights reserved.
_database_code_ICSD                1860
_audit_creation_date               1980/01/01
_audit_update_record               2010/02/01
_chemical_name_systematic          'Zinc Catena-silicate'
_chemical_formula_structural       'Zn (Si O3)'
_chemical_formula_sum              'O3 Si1 Zn1'
_publ_section_title
;
Crystal structures of pyroxene-type Zn Si O3 and Zn Mg Si2 O6
;
loop_
_citation_id
_citation_journal_abbrev
_citation_year
_citation_journal_volume
_citation_page_first
_citation_page_last
_citation_journal_id_ASTM
primary 'Acta Crystallographica B (24,1968-38,1982)' 1975 31 1041 1049 ACBCAR
_publ_author_name
;
Morimoto, N.;Nakajima, Y.;Syono, Y.;Akimoto, S.;Matsui, Y.
;
_cell_length_a                     9.787(3)
_cell_length_b                     9.161(2)
_cell_length_c                     5.296(1)
_cell_angle_alpha                  90.
_cell_angle_beta                   111.42(3)
_cell_angle_gamma                  90.
_cell_volume                       442.04
_cell_formula_units_Z              8
_symmetry_space_group_name_H-M     'C 1 2/c 1'
_symmetry_Int_Tables_number        15
_refine_ls_R_factor_all            .046
loop_
_symmetry_equiv_pos_site_id
_symmetry_equiv_pos_as_xyz
  1	'x, -y, z+.5'
  2	'-x, -y, -z'
  3	'-x, y, -z+.5'
  4	'x, y, z'
  5	'x+.5, -y+.5, z+.5'
  6	'-x+.5, -y+.5, -z'
  7	'-x+.5, y+.5, -z+.5'
  8	'x+.5, y+.5, z'
loop_
_atom_type_symbol
_atom_type_oxidation_number
O2-	-2
Si4+	4
Zn2+	2
loop_
_atom_site_label
_atom_site_type_symbol
_atom_site_symmetry_multiplicity
_atom_site_Wyckoff_symbol
_atom_site_fract_x
_atom_site_fract_y
_atom_site_fract_z
_atom_site_occupancy
_atom_site_attached_hydrogens
_atom_site_B_iso_or_equiv
Zn1 Zn2+ 4 e 0.5 0.3919(1) 0.25 1. 0 0.58 
Zn2 Zn2+ 4 e 0 0.2361(1) 0.25 1. 0 0.53 
Si1 Si4+ 8 f 0.3016(1) 0.0849(1) 0.2668(2) 1. 0 0 
O1 O2- 8 f 0.1241(3) 0.0868(3) 0.1473(6) 1. 0 0 
O2 O2- 8 f 0.3787(3) 0.2393(3) 0.3719(6) 1. 0 0 
O3 O2- 8 f 0.3533(3) 0.0238(3) 0.0273(5) 1. 0 0 

#End of data_1860-ICSD


