data_380307-ICSD
#?2014 by Fachinformationszentrum Karlsruhe, and the U.S. Secretary of 
#Commerce on behalf of the United States.  All rights reserved.
_database_code_ICSD                380307
_audit_creation_date               2010/02/01
_audit_update_record               2012/02/01
_chemical_name_systematic
;
Tetragadolinium Dipotassium Disodium Diniobium Oxide
;
_chemical_formula_structural       'Gd4 K2 Na2 Nb2 O13'
_chemical_formula_sum              'Gd4 K2 Na2 Nb2 O13'
_publ_section_title
;
Crystal growth, structural properties, and photophysical 
characterization of Ln4 Na2 K2 M2 O13 (M= Nb, Ta; Ln= Nd, Sm, Eu, Gd)
;
loop_
_citation_id
_citation_journal_abbrev
_citation_year
_citation_journal_volume
_citation_journal_issue
_citation_page_first
_citation_page_last
_citation_journal_id_ASTM
primary 'Inorganic Chemistry' 2009 48 17 8220 8226 INOCAJ
_publ_author_name
;
Jagau, T.C.;Roof, I.P.;Smith, M.D.;zur Loye, H.C.
;
_cell_length_a                     24.030(2)
_cell_length_b                     5.6427(6)
_cell_length_c                     11.1706(11)
_cell_angle_alpha                  90.00
_cell_angle_beta                   116.4220(10)
_cell_angle_gamma                  90.00
_cell_volume                       1356.45
_cell_formula_units_Z              4
_symmetry_space_group_name_H-M     'C 1 2/c 1'
_symmetry_Int_Tables_number        15
_refine_ls_R_factor_all            .0366
loop_
_symmetry_equiv_pos_site_id
_symmetry_equiv_pos_as_xyz
  1	'x, -y, z+.5'
  2	'-x, -y, -z'
  3	'-x, y, -z+.5'
  4	'x, y, z'
  5	'x+.5, -y+.5, z+.5'
  6	'-x+.5, -y+.5, -z'
  7	'-x+.5, y+.5, -z+.5'
  8	'x+.5, y+.5, z'
loop_
_atom_type_symbol
_atom_type_oxidation_number
Gd3+	3
K1+	1
Na1+	1
Nb5+	5
O2-	-2
loop_
_atom_site_label
_atom_site_type_symbol
_atom_site_symmetry_multiplicity
_atom_site_Wyckoff_symbol
_atom_site_fract_x
_atom_site_fract_y
_atom_site_fract_z
_atom_site_occupancy
_atom_site_attached_hydrogens
_atom_site_U_iso_or_equiv
Gd1 Gd3+ 8 f 0.437424(13) 0.04528(5) 0.55072(3) 1 0 0.00891(7) 
Gd2 Gd3+ 8 f 0.062369(12) 0.03618(5) 0.17213(3) 1 0 0.00930(7) 
Nb1 Nb5+ 8 f 0.34968(2) 0.03493(9) 0.21803(5) 1 0 0.00883(10) 
K1 K1+ 8 f 0.25053(7) 0.0548(2) 0.36635(15) 1 0 0.0201(3) 
Na1 Na1+ 8 f 0.15882(11) 0.0392(4) 0.0225(2) 1 0 0.0115(5) 
O1 O2- 8 f 0.3681(2) 0.2757(8) 0.3598(4) 1 0 0.0105(8) 
O2 O2- 8 f 0.36514(19) 0.2251(8) 0.6232(4) 1 0 0.0117(8) 
O3 O2- 8 f 0.1297(2) 0.3116(8) 0.1373(4) 1 0 0.0119(8) 
O4 O2- 8 f 0.26543(19) 0.0671(7) 0.1244(5) 1 0 0.0140(8) 
O5 O2- 4 e 0.0000 0.2416(13) 0.2500 1 0 0.0121(11) 
O6 O2- 8 f 0.40062(19) -0.2302(8) 0.6619(4) 1 0 0.0123(8) 
O7 O2- 8 f 0.5010(2) 0.2514(8) 0.4765(4) 1 0 0.0096(8) 

loop_
_atom_site_aniso_label
_atom_site_aniso_type_symbol
_atom_site_aniso_U_11
_atom_site_aniso_U_22
_atom_site_aniso_U_33
_atom_site_aniso_U_12
_atom_site_aniso_U_13
_atom_site_aniso_U_23
Gd1 Gd3+ 0.00830(12) 0.00906(13) 0.00856(13) -0.00054(9) 0.00302(10) 
-0.00024(10)
Gd2 Gd3+ 0.00885(12) 0.00856(13) 0.00936(13) 0.00048(9) 0.00304(10) 
0.00008(10)
Nb1 Nb5+ 0.00770(19) 0.0091(2) 0.0086(2) 0.00002(16) 0.00261(17) 
-0.00001(18)
K1 K1+ 0.0255(7) 0.0171(6) 0.0197(7) 0.0014(5) 0.0118(6) 0.0021(5)
Na1 Na1+ 0.0129(11) 0.0101(12) 0.0102(11) -0.0003(8) 0.0039(9) -0.0001(9)
O1 O2- 0.010(2) 0.0089(19) 0.013(2) -0.0021(15) 0.0053(17) -0.0013(15)
O2 O2- 0.0129(17) 0.009(2) 0.012(2) 0.0023(17) 0.0051(16) -0.0001(16)
O3 O2- 0.014(2) 0.011(2) 0.0098(19) 0.0020(16) 0.0040(17) 0.0009(15)
O4 O2- 0.0080(17) 0.016(2) 0.016(2) 0.0014(14) 0.0040(16) -0.0013(17)
O5 O2- 0.011(2) 0.012(3) 0.013(3) 0.000 0.005(2) 0.000
O6 O2- 0.0154(18) 0.0080(19) 0.015(2) 0.0016(17) 0.0078(17) 0.0024(16)
O7 O2- 0.0104(18) 0.0076(18) 0.012(2) 0.0005(13) 0.0055(16) -0.0004(15)
#End of data_380307-ICSD


