data_15732-ICSD
#?2014 by Fachinformationszentrum Karlsruhe, and the U.S. Secretary of 
#Commerce on behalf of the United States.  All rights reserved.
_database_code_ICSD                15732
_audit_creation_date               1980/01/01
_audit_update_record               2005/10/01
_chemical_name_systematic          'Trisilver Gold Sulfide - Beta'
_chemical_formula_structural       'Ag3 Au S2'
_chemical_formula_sum              'Ag3 Au1 S2'
_chemical_name_mineral             Uytenbogaardite
_publ_section_title
;
Structure cristalline du sulfure mixte d'argent et d'or
;
loop_
_citation_id
_citation_journal_abbrev
_citation_year
_citation_journal_volume
_citation_page_first
_citation_page_last
_citation_journal_id_ASTM
primary 'Bulletin de la Societe Royal des Sciences de Liege'
 1966 35 727 733 BSRSA6
2 'Golden Book of Phase Transitions, Wroclaw' 2002 1 1 123 GBOPT5
_publ_author_name
;
Messien, P.;Baiwir, M.;Tavernier, B.
;
_cell_length_a                     9.72
_cell_length_b                     9.72
_cell_length_c                     9.72
_cell_angle_alpha                  90.
_cell_angle_beta                   90.
_cell_angle_gamma                  90.
_cell_volume                       918.33
_cell_formula_units_Z              8
_symmetry_space_group_name_H-M     'P 41 3 2'
_symmetry_Int_Tables_number        213
_refine_ls_R_factor_all            .22
loop_
_symmetry_equiv_pos_site_id
_symmetry_equiv_pos_as_xyz
  1	'-z+.25, y+.75, x+.25'
  2	'z+.25, -y+.25, x+.75'
  3	'z+.75, y+.25, -x+.25'
  4	'-z+.75, -y+.75, -x+.75'
  5	'y+.75, x+.25, -z+.25'
  6	'-y+.25, x+.75, z+.25'
  7	'y+.25, -x+.25, z+.75'
  8	'-y+.75, -x+.75, -z+.75'
  9	'x+.25, -z+.25, y+.75'
 10	'x+.75, z+.25, -y+.25'
 11	'-x+.25, z+.75, y+.25'
 12	'-x+.75, -z+.75, -y+.75'
 13	'z+.5, -x+.5, -y'
 14	'-z+.5, -x, y+.5'
 15	'-z, x+.5, -y+.5'
 16	'z, x, y'
 17	'-y, z+.5, -x+.5'
 18	'y+.5, -z+.5, -x'
 19	'-y+.5, -z, x+.5'
 20	'y, z, x'
 21	'-x+.5, -y, z+.5'
 22	'-x, y+.5, -z+.5'
 23	'x+.5, -y+.5, -z'
 24	'x, y, z'
loop_
_atom_type_symbol
_atom_type_oxidation_number
Ag1+	1
Au1+	1
S2-	-2
loop_
_atom_site_label
_atom_site_type_symbol
_atom_site_symmetry_multiplicity
_atom_site_Wyckoff_symbol
_atom_site_fract_x
_atom_site_fract_y
_atom_site_fract_z
_atom_site_occupancy
_atom_site_attached_hydrogens
Au1 Au1+ 8 c 0.13 0.13 0.13 1. 0 
Ag1 Ag1+ 24 e 0.36 0.042 0.255 1. 0 
S1 S2- 8 c 0.305 0.305 0.305 1. 0 
S2 S2- 8 c 0.965 0.965 0.965 1. 0 

#End of data_15732-ICSD


