data_158513-ICSD
#?2014 by Fachinformationszentrum Karlsruhe, and the U.S. Secretary of 
#Commerce on behalf of the United States.  All rights reserved.
_database_code_ICSD                158513
_audit_creation_date               2008/02/01
_chemical_name_systematic          'Lithium Scandium Catena-disilicate'
_chemical_formula_structural       'Li Sc (Si2 O6)'
_chemical_formula_sum              'Li1 O6 Sc1 Si2'
_chemical_name_mineral             Unnamed_Clinopyroxene
_publ_section_title
;
Displacive phase transitions in C-centred clinopyroxenes: spodumene, 
Li Sc Si2 O6 and Zn Si O3
;
loop_
_citation_id
_citation_journal_abbrev
_citation_year
_citation_journal_volume
_citation_page_first
_citation_page_last
_citation_journal_id_ASTM
primary 'Physics and Chemistry of Minerals' 2000 27 719 731 PCMIDU
_publ_author_name                  'Arlt, T.;Angel, R.J.'
_cell_length_a                     9.6937(2)
_cell_length_b                     8.8958(4)
_cell_length_c                     5.3047(1)
_cell_angle_alpha                  90.
_cell_angle_beta                   109.992(2)
_cell_angle_gamma                  90.
_cell_volume                       429.88
_cell_formula_units_Z              4
_symmetry_space_group_name_H-M     'P 1 21/c 1'
_symmetry_Int_Tables_number        14
_refine_ls_R_factor_all            .045
loop_
_symmetry_equiv_pos_site_id
_symmetry_equiv_pos_as_xyz
  1	'x, -y+.5, z+.5'
  2	'-x, -y, -z'
  3	'-x, y+.5, -z+.5'
  4	'x, y, z'
loop_
_atom_type_symbol
_atom_type_oxidation_number
Li1+	1
O2-	-2
Sc3+	3
Si4+	4
loop_
_atom_site_label
_atom_site_type_symbol
_atom_site_symmetry_multiplicity
_atom_site_Wyckoff_symbol
_atom_site_fract_x
_atom_site_fract_y
_atom_site_fract_z
_atom_site_occupancy
_atom_site_attached_hydrogens
_atom_site_B_iso_or_equiv
Sc1 Sc3+ 4 e 0.2510(3) 0.6453(2) 0.2360(3) 1. 0 0.34(3) 
Li1 Li1+ 4 e 0.247(3) 0.008(2) 0.236(3) 1. 0 2.4(3) 
Si1 Si4+ 4 e 0.0506(3) 0.3360(5) 0.2900(4) 1. 0 0.44(4) 
O1 O2- 4 e 0.8724(7) 0.3313(9) 0.1715(10) 1. 0 0.60(10) 
O2 O2- 4 e 0.1170(7) 0.5007(8) 0.3297(10) 1. 0 0.64(10) 
O3 O2- 4 e 0.1088(6) 0.2630(8) 0.5861(10) 1. 0 0.27(8) 
Si2 Si4+ 4 e 0.5508(3) 0.8368(4) 0.2641(4) 1. 0 0.45(4) 
O4 O2- 4 e 0.3711(7) 0.8356(9) 0.1459(10) 1. 0 0.43(9) 
O5 O2- 4 e 0.6260(7) 0.9946(9) 0.3701(10) 1. 0 0.70(10) 
O6 O2- 4 e 0.6036(6) 0.7192(9) 0.5171(9) 1. 0 0.51(10) 

#End of data_158513-ICSD


