data_81133-ICSD
#?2014 by Fachinformationszentrum Karlsruhe, and the U.S. Secretary of 
#Commerce on behalf of the United States.  All rights reserved.
_database_code_ICSD                81133
_audit_creation_date               1997/05/13
_audit_update_record               1999/01/19
_chemical_name_systematic          'Dimagnesium Catena-disilicate'
_chemical_formula_structural       'Mg2 (Si2 O6)'
_chemical_formula_sum              'Mg2 O6 Si2'
_chemical_name_mineral             Protoenstatite
_publ_section_title
;
High temperature single crystal X-ray diffraction studies of the 
ortho-proto phase transition in enstatite, Mg2 Si2 O6 at 1360 K
;
loop_
_citation_id
_citation_journal_abbrev
_citation_year
_citation_journal_volume
_citation_page_first
_citation_page_last
_citation_journal_id_ASTM
primary 'Physics and Chemistry of Minerals' 1995 22 300 310 PCMIDU
_publ_author_name                  'Yang, H.-X.;Ghose, S.'
_cell_length_a                     9.315(2)
_cell_length_b                     8.899(2)
_cell_length_c                     5.365(1)
_cell_angle_alpha                  90.
_cell_angle_beta                   90.
_cell_angle_gamma                  90.
_cell_volume                       444.73
_cell_formula_units_Z              4
_symmetry_space_group_name_H-M     'P b c n'
_symmetry_Int_Tables_number        60
_refine_ls_R_factor_all            .079
loop_
_symmetry_equiv_pos_site_id
_symmetry_equiv_pos_as_xyz
  1	'x, -y, z+.5'
  2	'-x+.5, y+.5, z'
  3	'x+.5, y+.5, -z+.5'
  4	'-x, -y, -z'
  5	'-x, y, -z+.5'
  6	'x+.5, -y+.5, -z'
  7	'-x+.5, -y+.5, z+.5'
  8	'x, y, z'
loop_
_atom_type_symbol
_atom_type_oxidation_number
Mg2+	2
O2-	-2
Si4+	4
loop_
_atom_site_label
_atom_site_type_symbol
_atom_site_symmetry_multiplicity
_atom_site_Wyckoff_symbol
_atom_site_fract_x
_atom_site_fract_y
_atom_site_fract_z
_atom_site_occupancy
_atom_site_attached_hydrogens
Mg1 Mg2+ 4 c 0 0.0999(4) 0.75 1. 0 
Mg2 Mg2+ 4 c 0 0.2612(4) 0.25 1. 0 
Si1 Si4+ 8 d 0.2931(2) 0.0898(2) 0.0741(3) 1. 0 
O1 O2- 8 d 0.1189(6) 0.0937(5) 0.0787(8) 1. 0 
O2 O2- 8 d 0.3761(7) 0.2458(6) 0.0661(9) 1. 0 
O3 O2- 8 d 0.3488(6) 0.9852(6) 0.3074(9) 1. 0 

#End of data_81133-ICSD


