data_629079-ICSD
#?2014 by Fachinformationszentrum Karlsruhe, and the U.S. Secretary of 
#Commerce on behalf of the United States.  All rights reserved.
_database_code_ICSD                629079
_audit_creation_date               2013/02/01
_chemical_name_systematic
;
Dicopper(I) Zinc Tetraselenosilicate
;
_chemical_formula_structural       'Cu2 Zn (Si Se4)'
_chemical_formula_sum              'Cu2 Se4 Si1 Zn1'
_publ_section_title                'Structure magnetique de Cr2 WO6'
loop_
_citation_id
_citation_journal_abbrev
_citation_year
_citation_journal_volume
_citation_page_first
_citation_page_last
_citation_journal_id_ASTM
primary 'Solid State Ionics' 1987 24 249 252 SSIOD3
_publ_author_name
;
Yao, G.Q.;Shen, H.-S.;Honig, E.D.;Kershaw, R.;Dwight, K.;Wold, A.
;
_cell_length_a                     7.826(3)
_cell_length_b                     6.727(2)
_cell_length_c                     6.445(1)
_cell_angle_alpha                  90.0
_cell_angle_beta                   90.0
_cell_angle_gamma                  90.0
_cell_volume                       339.3
_cell_formula_units_Z              2
_symmetry_space_group_name_H-M     'P m n 21'
_symmetry_Int_Tables_number        31
loop_
_symmetry_equiv_pos_site_id
_symmetry_equiv_pos_as_xyz
  1	'x+.5, -y, z+.5'
  2	'-x+.5, -y, z+.5'
  3	'-x, y, z'
  4	'x, y, z'
loop_
_atom_type_symbol
_atom_type_oxidation_number
Cu1+	1
Se2-	-2
Si4+	4
Zn2+	2
loop_
_atom_site_label
_atom_site_type_symbol
_atom_site_symmetry_multiplicity
_atom_site_Wyckoff_symbol
_atom_site_fract_x
_atom_site_fract_y
_atom_site_fract_z
_atom_site_occupancy
_atom_site_attached_hydrogens
Cu1 Cu1+ 4 b 0.247 0.326 0.987 1. 0 
Zn1 Zn2+ 2 a 0 0.151 0.498 1. 0 
Si1 Si4+ 2 a 0 0.827 0 1. 0 
Se1 Se2- 2 a 0 0.883 0.645 1. 0 
Se2 Se2- 2 a 0 0.144 0.117 1. 0 
Se3 Se2- 4 b 0.260 0.336 0.619 1. 0 

#End of data_629079-ICSD


