data_421466-ICSD
#?2014 by Fachinformationszentrum Karlsruhe, and the U.S. Secretary of 
#Commerce on behalf of the United States.  All rights reserved.
_database_code_ICSD                421466
_audit_creation_date               2012/02/01
_chemical_name_systematic
;
Sodium Trithallium Tetracopper Ditellurate
;
_chemical_formula_structural       'Na Tl3 Cu4 (Te O6)2'
_chemical_formula_sum              'Cu4 Na1 O12 Te2 Tl3'
_publ_section_title
;
Crystal structure of a new quinternary oxide : Na Tl3 Cu4 Te2 O12
;
loop_
_citation_id
_citation_journal_abbrev
_citation_year
_citation_journal_volume
_citation_page_first
_citation_page_last
_citation_journal_id_ASTM
primary 'Journal of Chemical Crystallography' 2011 41 328 331 JCCYEV
_publ_author_name
;
Yeon Jeong Ho;Kim Sang-Hwan;Halasyamani, P.S.
;
_cell_length_a                     12.9800(17)
_cell_length_b                     9.3455(12)
_cell_length_c                     5.2335(7)
_cell_angle_alpha                  90
_cell_angle_beta                   104.276(2)
_cell_angle_gamma                  90
_cell_volume                       615.24
_cell_formula_units_Z              2
_symmetry_space_group_name_H-M     'C 1 2/m 1'
_symmetry_Int_Tables_number        12
_refine_ls_R_factor_all            .0242
loop_
_symmetry_equiv_pos_site_id
_symmetry_equiv_pos_as_xyz
  1	'-x, y, -z'
  2	'-x, -y, -z'
  3	'x, -y, z'
  4	'x, y, z'
  5	'-x+.5, y+.5, -z'
  6	'-x+.5, -y+.5, -z'
  7	'x+.5, -y+.5, z'
  8	'x+.5, y+.5, z'
loop_
_atom_type_symbol
_atom_type_oxidation_number
Cu2+	2
Na1+	1
O2-	-2
Te6+	6
Tl1+	1
loop_
_atom_site_label
_atom_site_type_symbol
_atom_site_symmetry_multiplicity
_atom_site_Wyckoff_symbol
_atom_site_fract_x
_atom_site_fract_y
_atom_site_fract_z
_atom_site_occupancy
_atom_site_attached_hydrogens
_atom_site_U_iso_or_equiv
Na1 Na1+ 2 a 0 0 0 1 0 0.0161(11) 
Tl1 Tl1+ 4 h 0 0.25337(4) 0.5 1 0 0.02494(16) 
Tl2 Tl1+ 2 b 0.5 0 0 1 0 0.0478(3) 
Te1 Te6+ 4 i 0.21475(4) 0 0.76216(10) 1 0 0.00696(16) 
Cu1 Cu2+ 8 j 0.23685(6) 0.16442(8) 0.25659(13) 1 0 0.0101(2) 
O1 O2- 8 j 0.1421(3) 0.1512(5) 0.8998(8) 1 0 0.0115(9) 
O2 O2- 8 j 0.3033(3) 0.1430(4) 0.6457(8) 1 0 0.0094(8) 
O3 O2- 4 i 0.3062(4) 0 0.1267(11) 1 0 0.0094(12) 
O4 O2- 4 i 0.1167(5) 0 0.4317(12) 1 0 0.0164(13) 

loop_
_atom_site_aniso_label
_atom_site_aniso_type_symbol
_atom_site_aniso_U_11
_atom_site_aniso_U_22
_atom_site_aniso_U_33
_atom_site_aniso_U_12
_atom_site_aniso_U_13
_atom_site_aniso_U_23
Na1 Na1+ 0.011(2) 0.026(3) 0.011(3) 0 0.0019(19) 0
Tl1 Tl1+ 0.0193(2) 0.0265(3) 0.0258(3) 0 -0.00051(16) 0
Tl2 Tl1+ 0.0281(4) 0.0778(7) 0.0404(4) 0 0.0141(3) 0
Te1 Te6+ 0.0080(3) 0.0067(3) 0.0062(3) 0 0.00182(18) 0
Cu1 Cu2+ 0.0138(4) 0.0079(4) 0.0083(4) 0.0018(3) 0.0022(3) -0.0011(3)
O1 O2- 0.012(2) 0.014(2) 0.009(2) 0.0043(16) 0.0025(16) 0.0017(16)
O2 O2- 0.0087(18) 0.011(2) 0.009(2) 0.0002(16) 0.0023(15) 0.0020(16)
O3 O2- 0.005(2) 0.015(3) 0.007(3) 0 0.000(2) 0
O4 O2- 0.016(3) 0.023(4) 0.008(3) 0 -0.002(2) 0
#End of data_421466-ICSD


