data_71587-ICSD
#?2014 by Fachinformationszentrum Karlsruhe, and the U.S. Secretary of 
#Commerce on behalf of the United States.  All rights reserved.
_database_code_ICSD                71587
_audit_creation_date               1993/01/06
_chemical_name_systematic          'Tetracesium Trimagnesium Fluoride'
_chemical_formula_structural       'Cs4 Mg3 F10'
_chemical_formula_sum              'Cs4 F10 Mg3'
_publ_section_title
;
Structures of cesium containing fluorides,X: crystal structure 
refinements of the ternary fluorides Cs4M3F10 (M=Mg,Co,Ni, Zn) and 
magnetism of Cs4Ni3F10
;
loop_
_citation_id
_citation_journal_abbrev
_citation_year
_citation_journal_volume
_citation_page_first
_citation_page_last
_citation_journal_id_ASTM
primary 'European Journal of Solid State Inorganic Chemistry'
 1992 29 679 690 EJSCE5
_publ_author_name                  'Schmidt, R.E.;Pebler, J.;Babel, D.'
_cell_length_a                     6.143(1)
_cell_length_b                     14.576(4)
_cell_length_c                     13.650(3)
_cell_angle_alpha                  90.
_cell_angle_beta                   90.
_cell_angle_gamma                  90.
_cell_volume                       1222.23
_cell_formula_units_Z              4
_symmetry_space_group_name_H-M     'C m c a'
_symmetry_Int_Tables_number        64
_refine_ls_R_factor_all            .043
loop_
_symmetry_equiv_pos_site_id
_symmetry_equiv_pos_as_xyz
  1	'-x, -y+.5, z+.5'
  2	'-x, y+.5, -z+.5'
  3	'-x, y, z'
  4	'-x, -y, -z'
  5	'x, y+.5, -z+.5'
  6	'x, -y+.5, z+.5'
  7	'x, -y, -z'
  8	'x, y, z'
  9	'-x+.5, -y, z+.5'
 10	'-x+.5, y, -z+.5'
 11	'-x+.5, y+.5, z'
 12	'-x+.5, -y+.5, -z'
 13	'x+.5, y, -z+.5'
 14	'x+.5, -y, z+.5'
 15	'x+.5, -y+.5, -z'
 16	'x+.5, y+.5, z'
loop_
_atom_type_symbol
_atom_type_oxidation_number
Cs1+	1
F1-	-1
Mg2+	2
loop_
_atom_site_label
_atom_site_type_symbol
_atom_site_symmetry_multiplicity
_atom_site_Wyckoff_symbol
_atom_site_fract_x
_atom_site_fract_y
_atom_site_fract_z
_atom_site_occupancy
_atom_site_attached_hydrogens
Cs1 Cs1+ 8 f 0 0.55186(2) 0.13883(2) 1. 0 
Cs2 Cs1+ 8 f 0 0.24581(2) 0.10619(3) 1. 0 
Mg1 Mg2+ 4 a 0 0 0 1. 0 
Mg2 Mg2+ 8 f 0 0.8830(1) 0.1579(1) 1. 0 
F1 F1- 8 e 0.25 0.3902(3) 0.25 1. 0 
F2 F1- 8 f 0 0.7527(3) 0.1485(3) 1. 0 
F3 F1- 8 f 0 0.0260(2) 0.1425(2) 1. 0 
F4 F1- 16 g 0.2901(4) 0.4040(2) 0.0401(2) 1. 0 

loop_
_atom_site_aniso_label
_atom_site_aniso_type_symbol
_atom_site_aniso_U_11
_atom_site_aniso_U_22
_atom_site_aniso_U_33
_atom_site_aniso_U_12
_atom_site_aniso_U_13
_atom_site_aniso_U_23
Cs1 Cs1+ 0.0132(2) 0.0164(2) 0.0118(1) 0 0 0.0010(1)
Cs2 Cs1+ 0.0160(2) 0.0167(2) 0.0229(2) 0 0 -.0026(1)
Mg1 Mg2+ 0.011(1) 0.0139(11) 0.0066(8) 0 0 0.0012(7)
Mg2 Mg2+ 0.0100(7) 0.0123(7) 0.0066(6) 0 0 -.0001(5)
F1 F1- 0.0159(14) 0.0232(15) 0.0125(11) 0 0.0064(12) 0
F2 F1- 0.0235(20) 0.0140(16) 0.0326(21) 0 0 -.0022(12)
F3 F1- 0.0194(15) 0.0147(13) 0.0077(11) 0 0 0.0004(9)
F4 F1- 0.0137(10) 0.0192(10) 0.0114(7) -.0038(8) -.0019(7) 0.0020(7)
#End of data_71587-ICSD


