data_96482-ICSD
#?2014 by Fachinformationszentrum Karlsruhe, and the U.S. Secretary of 
#Commerce on behalf of the United States.  All rights reserved.
_database_code_ICSD                96482
_audit_creation_date               2004/04/01
_chemical_name_systematic
;
Tricalcium Copper Rhodium(IV) Oxide
;
_chemical_formula_structural       'Ca3 Cu Rh O6'
_chemical_formula_sum              'Ca3 Cu1 O6 Rh1'
_publ_section_title
;
Crystal growth, structural characterization and magnetic properties 
of Ca3 Cu Rh O6, Ca3 Co1.34 Rh0.66 O6 and Ca3 Fe Rh O6
;
loop_
_citation_id
_citation_journal_abbrev
_citation_year
_citation_journal_volume
_citation_page_first
_citation_page_last
_citation_journal_id_ASTM
primary 'Journal of Solid State Chemistry' 2003 173 122 129 JSSCBI
_publ_author_name
;
Davis, M.J.;Smith, M.D.;zur Loye, H.C.
;
_cell_length_a                     9.004(2)
_cell_length_b                     9.218(2)
_cell_length_c                     6.453(1)
_cell_angle_alpha                  90
_cell_angle_beta                   91.672(5)
_cell_angle_gamma                  90
_cell_volume                       535.36
_cell_formula_units_Z              4
_symmetry_space_group_name_H-M     'C 1 2/c 1'
_symmetry_Int_Tables_number        15
_refine_ls_R_factor_all            .0709
loop_
_symmetry_equiv_pos_site_id
_symmetry_equiv_pos_as_xyz
  1	'x, -y, z+.5'
  2	'-x, -y, -z'
  3	'-x, y, -z+.5'
  4	'x, y, z'
  5	'x+.5, -y+.5, z+.5'
  6	'-x+.5, -y+.5, -z'
  7	'-x+.5, y+.5, -z+.5'
  8	'x+.5, y+.5, z'
loop_
_atom_type_symbol
_atom_type_oxidation_number
Ca2+	2
Cu2+	2
O2-	-2
Rh4+	4
loop_
_atom_site_label
_atom_site_type_symbol
_atom_site_symmetry_multiplicity
_atom_site_Wyckoff_symbol
_atom_site_fract_x
_atom_site_fract_y
_atom_site_fract_z
_atom_site_occupancy
_atom_site_attached_hydrogens
_atom_site_U_iso_or_equiv
Ca1 Ca2+ 4 e 0 0.8960(3) 0.250 1. 0 0.0123(7) 
Ca2 Ca2+ 8 f 0.3129(2) 0.9250(2) 0.6218(3) 1. 0 0.0102(5) 
Cu1 Cu2+ 4 e 0 0.3049(2) 0.250 1. 0 0.0143(5) 
Rh1 Rh4+ 4 d 0.250 0.250 0.5 1. 0 0.0080(4) 
O1 O2- 8 f 0.1407(10) 0.0715(10) 0.4325(16) 1. 0 0.0144(18) 
O2 O2- 8 f 0.2183(10) 0.3162(9) 0.2067(15) 1. 0 0.0146(17) 
O3 O2- 8 f 0.4447(8) 0.1522(8) 0.4542(13) 1. 0 0.0115(15) 

#End of data_96482-ICSD


