data_401122-ICSD
#?2014 by Fachinformationszentrum Karlsruhe, and the U.S. Secretary of 
#Commerce on behalf of the United States.  All rights reserved.
_database_code_ICSD                401122
_audit_creation_date               1996/10/14
_audit_update_record               2000/07/15
_chemical_name_systematic
;
Tetrabarium Lithium Copper Tetraoxide Bis(carbonate)
;
_chemical_formula_structural       'Ba4 Li Cu O4 (C O3)2'
_chemical_formula_sum              'C2 Ba4 Cu1 Li1 O10'
_publ_section_title
;
Synthese und Roentgenstrukturanalyse von Ba4 Li Cu O4 (C O3)2
;
loop_
_citation_id
_citation_journal_abbrev
_citation_year
_citation_journal_volume
_citation_page_first
_citation_page_last
_citation_journal_id_ASTM
primary 'Zeitschrift fuer Naturforschung, B: Chemical Sciences'
 1995 50 56 60 ZNBSEN
_publ_author_name                  'Tams, G.;Mueller Buschbaum, H.'
_cell_length_a                     5.7666(12)
_cell_length_b                     5.7666(12)
_cell_length_c                     15.2614(7)
_cell_angle_alpha                  90.
_cell_angle_beta                   90.
_cell_angle_gamma                  90.
_cell_volume                       507.5
_cell_formula_units_Z              2
_symmetry_space_group_name_H-M     'I -4 2 m'
_symmetry_Int_Tables_number        121
_refine_ls_R_factor_all            .1468
loop_
_symmetry_equiv_pos_site_id
_symmetry_equiv_pos_as_xyz
  1	'-y, -x, z'
  2	'y, x, z'
  3	'y, -x, -z'
  4	'-y, x, -z'
  5	'x, -y, -z'
  6	'-x, y, -z'
  7	'-x, -y, z'
  8	'x, y, z'
  9	'-y+.5, -x+.5, z+.5'
 10	'y+.5, x+.5, z+.5'
 11	'y+.5, -x+.5, -z+.5'
 12	'-y+.5, x+.5, -z+.5'
 13	'x+.5, -y+.5, -z+.5'
 14	'-x+.5, y+.5, -z+.5'
 15	'-x+.5, -y+.5, z+.5'
 16	'x+.5, y+.5, z+.5'
loop_
_atom_type_symbol
_atom_type_oxidation_number
Ba2+	2
C4+	4
Cu3+	3
Li1+	1
O2-	-2
loop_
_atom_site_label
_atom_site_type_symbol
_atom_site_symmetry_multiplicity
_atom_site_Wyckoff_symbol
_atom_site_fract_x
_atom_site_fract_y
_atom_site_fract_z
_atom_site_occupancy
_atom_site_attached_hydrogens
Ba1 Ba2+ 8 h 0 0.5 0.1175(1) 1. 0 
Cu1 Cu3+ 2 a 0 0 0 1. 0 
Li1 Li1+ 2 b 0 0 0.5 1. 0 
C1 C4+ 4 e 0 0 0.7302(2) 1. 0 
O1 O2- 8 i 0.226(1) 0.226(1) 0.008(2) 1. 0 
O2 O2- 4 e 0 0 0.650(2) 1. 0 
O3 O2- 8 i 0.859(2) 0.859(2) 0.227(2) 1. 0 

loop_
_atom_site_aniso_label
_atom_site_aniso_type_symbol
_atom_site_aniso_U_11
_atom_site_aniso_U_22
_atom_site_aniso_U_33
_atom_site_aniso_U_12
_atom_site_aniso_U_13
_atom_site_aniso_U_23
Ba1 Ba2+ 0.009(2) 0.009(2) 0.009(1) 0.000(1) 0 0
Cu1 Cu3+ 0.007(2) 0.007(2) 0.007(2) 0 0 0
Li1 Li1+ 0.028(2) 0.028(2) 0.031(2) 0 0 0
C1 C4+ 0.003(1) 0.003(1) 0.002(1) 0.000(4) 0 0
O1 O2- 0.003(1) 0.003(1) 0.002(1) 0.000(1) 0.000(1) 0.000(1)
O2 O2- 0.008(1) 0.008(1) 0.008(1) 0.000(5) 0 0
O3 O2- 0.015(1) 0.015(1) 0.015(1) 0.001 0.000(1) 0.000(1)
#End of data_401122-ICSD


