data_14162-ICSD
#?2014 by Fachinformationszentrum Karlsruhe, and the U.S. Secretary of 
#Commerce on behalf of the United States.  All rights reserved.
_database_code_ICSD                14162
_audit_creation_date               1980/12/31
_audit_update_record               1999/05/18
_chemical_name_systematic
;
Nonapotassium Nickel Nickel(III) Oxide
;
_chemical_formula_structural       'K9 Ni2 O7'
_chemical_formula_sum              'K9 Ni2 O7'
_publ_section_title
;
Ueber neue Oxoniccolate: Zur Kenntnis von K9 Ni2 O7
;
loop_
_citation_id
_citation_journal_abbrev
_citation_year
_citation_journal_volume
_citation_page_first
_citation_page_last
_citation_journal_id_ASTM
primary 'Zeitschrift fuer Anorganische und Allgemeine Chemie (1950) (DE)'
 1980 462 80 91 ZAACAB
_publ_author_name                  'Zentgraf, H.;Hoppe, R.'
_cell_length_a                     10.91(8)
_cell_length_b                     10.91(8)
_cell_length_c                     10.91(8)
_cell_angle_alpha                  90.
_cell_angle_beta                   90.
_cell_angle_gamma                  90.
_cell_volume                       1298.6
_cell_formula_units_Z              4
_symmetry_space_group_name_H-M     'P 21 3'
_symmetry_Int_Tables_number        198
_refine_ls_R_factor_all            .099
loop_
_symmetry_equiv_pos_site_id
_symmetry_equiv_pos_as_xyz
  1	'-z+.5, -x, y+.5'
  2	'-y+.5, -z, x+.5'
  3	'-x+.5, -y, z+.5'
  4	'-z, x+.5, -y+.5'
  5	'-y, z+.5, -x+.5'
  6	'-x, y+.5, -z+.5'
  7	'z+.5, -x+.5, -y'
  8	'y+.5, -z+.5, -x'
  9	'x+.5, -y+.5, -z'
 10	'z, x, y'
 11	'y, z, x'
 12	'x, y, z'
loop_
_atom_type_symbol
_atom_type_oxidation_number
K1+	1
Ni2+	2
Ni3+	3
O2-	-2
loop_
_atom_site_label
_atom_site_type_symbol
_atom_site_symmetry_multiplicity
_atom_site_Wyckoff_symbol
_atom_site_fract_x
_atom_site_fract_y
_atom_site_fract_z
_atom_site_occupancy
_atom_site_attached_hydrogens
_atom_site_U_iso_or_equiv
K1 K1+ 4 a 0.4048(5) 0.4048(5) 0.4048(5) 1. 0 0 
K2 K1+ 4 a 0.0697(5) 0.0697(5) 0.0697(5) 1. 0 0 
K3 K1+ 4 a 0.2328(6) 0.2328(6) 0.2328(6) 1. 0 0 
K4 K1+ 12 b 0.7115(4) 0.3334(4) 0.4989(4) 1. 0 0 
K5 K1+ 12 b 0.8313(4) 0.5366(5) 0.7161(5) 1. 0 0 
Ni1 Ni3+ 4 a 0.9052(3) 0.9052(3) 0.9052(3) 1. 0 0 
Ni2 Ni2+ 4 a 0.5729(2) 0.5729(2) 0.5729(2) 1. 0 0 
O1 O2- 12 b 0.9360(12) 0.3383(12) 0.5837(12) 1. 0 0.0243(29) 
O2 O2- 12 b 0.5807(14) 0.4496(12) 0.6821(12) 1. 0 0.0296(33) 
O3 O2- 4 a 0.8019(12) 0.8019(12) 0.8019(12) 1. 0 0.0297(51) 

loop_
_atom_site_aniso_label
_atom_site_aniso_type_symbol
_atom_site_aniso_U_11
_atom_site_aniso_U_22
_atom_site_aniso_U_33
_atom_site_aniso_U_12
_atom_site_aniso_U_13
_atom_site_aniso_U_23
K1 K1+ 0.0385(21) 0.0385(21) 0.0385(21) 0.0001(26) 0.0001(26) 0.0001(26)
K2 K1+ 0.0321(19) 0.0321(19) 0.0321(19) 0.0053(23) 0.0053(23) 0.0053(23)
K3 K1+ 0.062(3) 0.062(3) 0.062(3) 0.0081(37) 0.0081(37) 0.0081(37)
K4 K1+ 0.0206(21) 0.0307(22) 0.0332(24) 0.0012(21) 0.0019(21) -.0013(23)
K5 K1+ 0.0266(22) 0.0384(27) 0.0308(25) -.0027(22) 0.0027(23) 0.0052(23)
Ni1 Ni3+ 0.0253(11) 0.0253(11) 0.0253(11) 0.0073(13) 0.0073(13) 0.0073(13)
Ni2 Ni2+ 0.0204(10) 0.0204(10) 0.0204(10) 0.0035(12) 0.0035(12) 0.0035(12)
#End of data_14162-ICSD


