data_72300-ICSD
#?2014 by Fachinformationszentrum Karlsruhe, and the U.S. Secretary of 
#Commerce on behalf of the United States.  All rights reserved.
_database_code_ICSD                72300
_audit_creation_date               1994/01/19
_chemical_name_systematic          'Potassium Dipalladium Fluoride'
_chemical_formula_structural       'K Pd2 F5'
_chemical_formula_sum              'F5 K1 Pd2'
_publ_section_title
;
Ueber komplexe Fluoride des zweiwertigen Palladiums
;
loop_
_citation_id
_citation_journal_abbrev
_citation_year
_citation_journal_volume
_citation_page_first
_citation_page_last
_citation_journal_id_ASTM
primary 'Zeitschrift fuer Anorganische und Allgemeine Chemie (1950) (DE)'
 1992 616 7 13 ZAACAB
_publ_author_name                  'Bachmann, B.;Mueller, B.G.'
_cell_length_a                     6.1412(9)
_cell_length_b                     7.487(1)
_cell_length_c                     10.650(2)
_cell_angle_alpha                  90.
_cell_angle_beta                   90.
_cell_angle_gamma                  90.
_cell_volume                       489.68
_cell_formula_units_Z              4
_symmetry_space_group_name_H-M     'P n m a'
_symmetry_Int_Tables_number        62
_refine_ls_R_factor_all            .039
loop_
_symmetry_equiv_pos_site_id
_symmetry_equiv_pos_as_xyz
  1	'x+.5, y, -z+.5'
  2	'x, -y+.5, z'
  3	'-x+.5, y+.5, z+.5'
  4	'-x, -y, -z'
  5	'-x+.5, -y, z+.5'
  6	'-x, y+.5, -z'
  7	'x+.5, -y+.5, -z+.5'
  8	'x, y, z'
loop_
_atom_type_symbol
_atom_type_oxidation_number
F1-	-1
K1+	1
Pd2+	2
loop_
_atom_site_label
_atom_site_type_symbol
_atom_site_symmetry_multiplicity
_atom_site_Wyckoff_symbol
_atom_site_fract_x
_atom_site_fract_y
_atom_site_fract_z
_atom_site_occupancy
_atom_site_attached_hydrogens
K1 K1+ 4 c 0.0155(3) 0.25 0.3657(2) 1. 0 
Pd1 Pd2+ 4 a 0 0 0 1. 0 
Pd2 Pd2+ 4 c 0.1903(1) 0.25 0.7129(1) 1. 0 
F1 F1- 4 c 0.0406(7) 0.25 0.0905(4) 1. 0 
F2 F1- 8 d 0.3104(5) 0.9326(4) 0.0801(2) 1. 0 
F3 F1- 8 d 0.1962(5) 0.0582(4) 0.8386(3) 1. 0 

loop_
_atom_site_aniso_label
_atom_site_aniso_type_symbol
_atom_site_aniso_U_11
_atom_site_aniso_U_22
_atom_site_aniso_U_33
_atom_site_aniso_U_12
_atom_site_aniso_U_13
_atom_site_aniso_U_23
K1 K1+ 0.0285(8) 0.0234(8) 0.0305(8) 0 -.0018(7) 0
Pd1 Pd2+ 0.0195(2) 0.0120(2) 0.0123(2) -.0002(2) -.0001(2) 0.0017(2)
Pd2 Pd2+ 0.0135(2) 0.0123(2) 0.0100(2) 0 0.0026(2) 0
F1 F1- 0.0425(23) 0.0133(18) 0.0250(18) 0 -.0011(17) 0
F2 F1- 0.0249(13) 0.0188(13) 0.0226(12) -.0029(12) -.0047(11) 0.0081(11)
F3 F1- 0.0336(16) 0.0327(16) 0.0247(13) -.0091(14) 0.0102(12) 0.0165(13)
#End of data_72300-ICSD


