data_186949-ICSD
#?2014 by Fachinformationszentrum Karlsruhe, and the U.S. Secretary of 
#Commerce on behalf of the United States.  All rights reserved.
_database_code_ICSD                186949
_audit_creation_date               2013/08/01
_chemical_name_systematic
;
Dicalcium Cobalt Heptaoxodisilicate
;
_chemical_formula_structural       'Ca2 Co (Si2 O7)'
_chemical_formula_sum              'Ca2 Co1 O7 Si2'
_chemical_name_mineral             'Akermanite (Co)'
_publ_section_title
;
Local structural relaxation around Co(2+) along the hardystonite - Co-
akermanite melilite solid solution
;
loop_
_citation_id
_citation_journal_abbrev
_citation_year
_citation_journal_volume
_citation_journal_issue
_citation_page_first
_citation_page_last
_citation_journal_id_ASTM
primary 'Physics and Chemistry of Minerals' 2012 39 9 713 723 PCMIDU
_publ_author_name
;
Ardit, Matteo;Cruciani, Giuseppe;Dondi, Michele
;
_cell_length_a                     7.8394(1)
_cell_length_b                     7.8394(1)
_cell_length_c                     5.0247(1)
_cell_angle_alpha                  90.
_cell_angle_beta                   90.
_cell_angle_gamma                  90.
_cell_volume                       308.8
_cell_formula_units_Z              2
_symmetry_space_group_name_H-M     'P -4 21 m'
_symmetry_Int_Tables_number        113
_refine_ls_R_factor_all            .0615
loop_
_symmetry_equiv_pos_site_id
_symmetry_equiv_pos_as_xyz
  1	'-y+.5, -x+.5, z'
  2	'y, -x, -z'
  3	'y+.5, x+.5, z'
  4	'-y, x, -z'
  5	'x+.5, -y+.5, -z'
  6	'-x, -y, z'
  7	'-x+.5, y+.5, -z'
  8	'x, y, z'
loop_
_atom_type_symbol
_atom_type_oxidation_number
Ca2+	2
Co2+	2
O2-	-2
Si4+	4
loop_
_atom_site_label
_atom_site_type_symbol
_atom_site_symmetry_multiplicity
_atom_site_Wyckoff_symbol
_atom_site_fract_x
_atom_site_fract_y
_atom_site_fract_z
_atom_site_occupancy
_atom_site_attached_hydrogens
_atom_site_U_iso_or_equiv
Ca1 Ca2+ 4 e 0.3306(5) 0.1694(5) 0.5052(16) 1. 0 0.0278(15) 
Co1 Co2+ 2 a 0 0 0 1. 0 0.0199(16) 
Si1 Si4+ 4 e 0.1416(4) 0.3584(4) 0.9352(7) 1. 0 0.0104(23) 
O1 O2- 2 c 0.5 0 0.1646(33) 1. 0 0.0080(6) 
O2 O2- 4 e 0.1393(16) 0.3607(16) 0.2521(7) 1. 0 0.0160(5) 
O3 O2- 8 f 0.0780(9) 0.1886(4) 0.7825(2) 1. 0 0.0199(16) 

#End of data_186949-ICSD


