data_156194-ICSD
#?2014 by Fachinformationszentrum Karlsruhe, and the U.S. Secretary of 
#Commerce on behalf of the United States.  All rights reserved.
_database_code_ICSD                156194
_audit_creation_date               2007/08/01
_chemical_name_systematic          'Calcium Digermanate - Hp'
_chemical_formula_structural       'Ca (Ge2 O5)'
_chemical_formula_sum              'Ca1 Ge2 O5'
_publ_section_title
;
A new high-pressure Ca Ge2 O5 polymorph with 5- and 6-coordinated 
germanium
;
loop_
_citation_id
_citation_journal_abbrev
_citation_year
_citation_journal_volume
_citation_page_first
_citation_page_last
_citation_journal_id_ASTM
primary 'American Mineralogist' 2007 92 441 443 AMMIAY
_publ_author_name
;
Nemeth, P.;Leinenweber, K.;Groy, T.L.;Buseck, P.R.
;
_cell_length_a                     7.306(2)
_cell_length_b                     8.268(2)
_cell_length_c                     5.714(1)
_cell_angle_alpha                  90.
_cell_angle_beta                   90.
_cell_angle_gamma                  90.
_cell_volume                       345.16
_cell_formula_units_Z              4
_symmetry_space_group_name_H-M     'P b a m'
_symmetry_Int_Tables_number        55
_refine_ls_R_factor_all            .0159
loop_
_symmetry_equiv_pos_site_id
_symmetry_equiv_pos_as_xyz
  1	'x+.5, -y+.5, z'
  2	'-x+.5, y+.5, z'
  3	'x, y, -z'
  4	'-x, -y, -z'
  5	'-x+.5, y+.5, -z'
  6	'x+.5, -y+.5, -z'
  7	'-x, -y, z'
  8	'x, y, z'
loop_
_atom_type_symbol
_atom_type_oxidation_number
Ca2+	2
Ge4+	4
O2-	-2
loop_
_atom_site_label
_atom_site_type_symbol
_atom_site_symmetry_multiplicity
_atom_site_Wyckoff_symbol
_atom_site_fract_x
_atom_site_fract_y
_atom_site_fract_z
_atom_site_occupancy
_atom_site_attached_hydrogens
_atom_site_U_iso_or_equiv
Ge1 Ge4+ 4 e 0 0 0.25331(5) 1. 0 0.0045(2) 
Ge2 Ge4+ 4 g 0.89175(4) 0.64576(4) 0 1. 0 0.0045(2) 
Ca1 Ca2+ 4 h 0.1355(1) 0.66590(9) 0.5 1. 0 0.0062(2) 
O1 O2- 8 i 0.1055(3) 0.2076(2) 0.2389(3) 1. 0 0.0066(4) 
O2 O2- 4 f 0 0.5 0.2071(5) 1. 0 0.0074(5) 
O3 O2- 4 h 0.1567(3) 0.9446(3) 0.5 1. 0 0.0060(5) 
O4 O2- 4 g 0.6564(3) 0.5719(3) 0 1. 0 0.0064(5) 

loop_
_atom_site_aniso_label
_atom_site_aniso_type_symbol
_atom_site_aniso_U_11
_atom_site_aniso_U_22
_atom_site_aniso_U_33
_atom_site_aniso_U_12
_atom_site_aniso_U_13
_atom_site_aniso_U_23
Ge1 Ge4+ 0.0055(2) 0.0045(2) 0.0036(2) -0.0001(1) 0. 0.
Ge2 Ge4+ 0.0045(2) 0.0048(2) 0.0041(2) -0.0001(1) 0. 0.
Ca1 Ca2+ 0.0069(3) 0.0058(3) 0.0059(4) 0.0006(2) 0. 0.
O1 O2- 0.0105(9) 0.0052(8) 0.0041(8) -0.0009(6) -0.0001(6) 0.0013(6)
O2 O2- 0.009(1) 0.008(1) 0.005(1) 0.0019(8) 0. 0.
O3 O2- 0.006(1) 0.008(1) 0.004(1) 0.0010(9) 0. 0.
O4 O2- 0.006(1) 0.009(1) 0.004(1) -0.0008(9) 0. 0.
#End of data_156194-ICSD


