data_187839-ICSD
#?2014 by Fachinformationszentrum Karlsruhe, and the U.S. Secretary of 
#Commerce on behalf of the United States.  All rights reserved.
_database_code_ICSD                187839
_audit_creation_date               2013/08/01
_chemical_name_systematic          'Dizinc Silicate'
_chemical_formula_structural       'Zn2 (Si O4)'
_chemical_formula_sum              'O4 Si1 Zn2'
_publ_section_title
;
Crystal structures of Zn2 Si O4 III and IV synthesized at 6.5-8 GPa 
and 1273 K
;
loop_
_citation_id
_citation_journal_abbrev
_citation_year
_citation_journal_volume
_citation_journal_issue
_citation_page_first
_citation_page_last
_citation_journal_id_ASTM
primary 'Physics and Chemistry of Minerals' 2013 40 6 467 478 PCMIDU
_publ_author_name
;
Liu, Xianyu;Kanzaki, Masami;Xue, Xianyu
;
_cell_length_a                     10.9179(4)
_cell_length_b                     9.6728(4)
_cell_length_c                     6.1184(2)
_cell_angle_alpha                  90.
_cell_angle_beta                   90.
_cell_angle_gamma                  90.
_cell_volume                       646.14
_cell_formula_units_Z              8
_symmetry_space_group_name_H-M     'P b c a'
_symmetry_Int_Tables_number        61
_refine_ls_R_factor_all            .006
loop_
_symmetry_equiv_pos_site_id
_symmetry_equiv_pos_as_xyz
  1	'x+.5, y, -z+.5'
  2	'x, -y+.5, z+.5'
  3	'-x+.5, y+.5, z'
  4	'-x, -y, -z'
  5	'-x+.5, -y, z+.5'
  6	'-x, y+.5, -z+.5'
  7	'x+.5, -y+.5, -z'
  8	'x, y, z'
loop_
_atom_type_symbol
_atom_type_oxidation_number
O2-	-2
Si4+	4
Zn2+	2
loop_
_atom_site_label
_atom_site_type_symbol
_atom_site_symmetry_multiplicity
_atom_site_Wyckoff_symbol
_atom_site_fract_x
_atom_site_fract_y
_atom_site_fract_z
_atom_site_occupancy
_atom_site_attached_hydrogens
_atom_site_B_iso_or_equiv
Zn1 Zn2+ 8 c 0.5647(1) 0.5817(1) 0.3470(1) 1. 0 0.76(3) 
Zn2 Zn2+ 8 c 0.6607(1) 0.3151(1) 0.0602(1) 1. 0 0.73(2) 
Si1 Si4+ 8 c 0.3777(2) 0.1204(2) 0.6368(4) 1. 0 0.32(5) 
O1 O2- 8 c 0.2474(4) 0.2153(4) 0.6677(8) 1. 0 0.43(5) 
O2 O2- 8 c 0.3985(3) 0.0248(4) 0.8473(8) 1. 0 0.43(5) 
O3 O2- 8 c 0.4897(4) 0.2268(5) 0.5966(7) 1. 0 0.43(5) 
O4 O2- 8 c 0.3687(4) 0.0192(5) 0.4306(7) 1. 0 0.43(5) 

#End of data_187839-ICSD


