data_24742-ICSD
#?2014 by Fachinformationszentrum Karlsruhe, and the U.S. Secretary of 
#Commerce on behalf of the United States.  All rights reserved.
_database_code_ICSD                24742
_audit_creation_date               1986/10/06
_audit_update_record               2010/08/01
_chemical_name_systematic
;
Dipotassium Pentafluoroantimonate(III)
;
_chemical_formula_structural       'K2 (Sb F5)'
_chemical_formula_sum              'F5 K2 Sb1'
_publ_section_title
;
The crystal structure of K2 Sb F5 and isomorphous compounds
;
loop_
_citation_id
_citation_journal_abbrev
_citation_year
_citation_journal_volume
_citation_page_first
_citation_page_last
_citation_journal_id_ASTM
primary 'Arkiv foer Kemi' 1951 3 461 467 ARKEAD
2 'Golden Book of Phase Transitions, Wroclaw' 2002 1 1 123 GBOPT5
_publ_author_name                  'Bystroem, A.;Wilhelmi, K.A.'
_cell_length_a                     6.244(5)
_cell_length_b                     13.67(1)
_cell_length_c                     6.491(5)
_cell_angle_alpha                  90.
_cell_angle_beta                   90.
_cell_angle_gamma                  90.
_cell_volume                       554.04
_cell_formula_units_Z              4
_symmetry_space_group_name_H-M     'C m c m'
_symmetry_Int_Tables_number        63
loop_
_symmetry_equiv_pos_site_id
_symmetry_equiv_pos_as_xyz
  1	'-x, y, -z+.5'
  2	'-x, -y, z+.5'
  3	'-x, y, z'
  4	'-x, -y, -z'
  5	'x, -y, z+.5'
  6	'x, y, -z+.5'
  7	'x, -y, -z'
  8	'x, y, z'
  9	'-x+.5, y+.5, -z+.5'
 10	'-x+.5, -y+.5, z+.5'
 11	'-x+.5, y+.5, z'
 12	'-x+.5, -y+.5, -z'
 13	'x+.5, -y+.5, z+.5'
 14	'x+.5, y+.5, -z+.5'
 15	'x+.5, -y+.5, -z'
 16	'x+.5, y+.5, z'
loop_
_atom_type_symbol
_atom_type_oxidation_number
F1-	-1
K1+	1
Sb3+	3
loop_
_atom_site_label
_atom_site_type_symbol
_atom_site_symmetry_multiplicity
_atom_site_Wyckoff_symbol
_atom_site_fract_x
_atom_site_fract_y
_atom_site_fract_z
_atom_site_occupancy
_atom_site_attached_hydrogens
K1 K1+ 4 c 0 0.250(5) 0.25 1. 0 
K2 K1+ 4 c 0 0.578(5) 0.25 1. 0 
Sb1 Sb3+ 4 c 0 -.089(3) 0.25 1. 0 
F1 F1- 4 c 0 -.241(10) 0.25 1. 0 
F2 F1- 16 h 0.222(10) 0.111(10) -.028(10) 1. 0 

#End of data_24742-ICSD


