data_423762-ICSD
#?2014 by Fachinformationszentrum Karlsruhe, and the U.S. Secretary of 
#Commerce on behalf of the United States.  All rights reserved.
_database_code_ICSD                423762
_audit_creation_date               2012/08/01
_chemical_name_systematic
;
Dibarium Strontium Tetramagnesium Tetradecafluoride
;
_chemical_formula_structural       'Ba2 Sr Mg4 F14'
_chemical_formula_sum              'Ba2 F14 Mg4 Sr1'
_publ_section_title
;
Structural Studies on Ba2 Sr Mg4 F14 and Ba2 M M' Mg4 F14 (M = Ca, 
Sr, Ba)
;
loop_
_citation_id
_citation_journal_abbrev
_citation_year
_citation_journal_volume
_citation_journal_issue
_citation_page_first
_citation_page_last
_citation_journal_id_ASTM
primary 'Zeitschrift fuer Naturforschung, B: Chemical Sciences'
 2012 67 1 70 74 ZNBSEN
_publ_author_name                  'Kubel, F.;Wandl, N.;Pantazi, M.'
_cell_length_a                     12.45514(4)
_cell_length_b                     12.45514(4)
_cell_length_c                     7.46092(3)
_cell_angle_alpha                  90.
_cell_angle_beta                   90.
_cell_angle_gamma                  90.
_cell_volume                       1157.42
_cell_formula_units_Z              4
_symmetry_space_group_name_H-M     'P 42/m n m'
_symmetry_Int_Tables_number        136
_refine_ls_R_factor_all            .035
loop_
_symmetry_equiv_pos_site_id
_symmetry_equiv_pos_as_xyz
  1	'-y+.5, x+.5, -z+.5'
  2	'y+.5, -x+.5, -z+.5'
  3	'y, x, -z'
  4	'-y, -x, -z'
  5	'y+.5, -x+.5, z+.5'
  6	'-y+.5, x+.5, z+.5'
  7	'-y, -x, z'
  8	'y, x, z'
  9	'x+.5, -y+.5, -z+.5'
 10	'-x+.5, y+.5, -z+.5'
 11	'x, y, -z'
 12	'-x, -y, -z'
 13	'-x+.5, y+.5, z+.5'
 14	'x+.5, -y+.5, z+.5'
 15	'-x, -y, z'
 16	'x, y, z'
loop_
_atom_type_symbol
_atom_type_oxidation_number
Ba2+	2
F1-	-1
Mg2+	2
Sr2+	2
loop_
_atom_site_label
_atom_site_type_symbol
_atom_site_symmetry_multiplicity
_atom_site_Wyckoff_symbol
_atom_site_fract_x
_atom_site_fract_y
_atom_site_fract_z
_atom_site_occupancy
_atom_site_attached_hydrogens
_atom_site_U_iso_or_equiv
Ba1 Ba2+ 8 i .02000(4) .31107(4) .00000 1.00000 0 .0185(2) 
Sr1 Sr2+ 4 e .00000 .00000 .24662(14) 1.00000 0 .0092(3) 
Mg1 Mg2+ 8 j .29616(17) .29616(17) .2461(4) 1.00000 0 .0120(5) 
Mg2 Mg2+ 8 i .2461(2) .5485(2) .00000 1.00000 0 .0120(5) 
F1 F1- 16 k .1449(2) .3087(3) .3096(4) 1.00000 0 .0172(6) 
F2 F1- 16 k .3001(2) .4549(2) .1970(4) 1.00000 0 .0172(6) 
F3 F1- 8 i .1081(3) .4896(4) .00000 1.00000 0 .0172(6) 
F4 F1- 4 g .1629(3) .8371(3) .00000 1.00000 0 .0172(6) 
F5 F1- 4 g .4013(3) .5987(3) .00000 1.00000 0 .0172(6) 
F6 F1- 4 f .2586(3) .2586(3) .00000 1.00000 0 .0172(6) 
F7 F1- 4 f .0845(3) .0845(3) .00000 1.00000 0 .0172(6) 

#End of data_423762-ICSD


