data_98572-ICSD
#?2014 by Fachinformationszentrum Karlsruhe, and the U.S. Secretary of 
#Commerce on behalf of the United States.  All rights reserved.
_database_code_ICSD                98572
_audit_creation_date               2005/04/01
_chemical_name_systematic          'Lead Alumoborate - Alpha'
_chemical_formula_structural       'Pb (Al B O4)'
_chemical_formula_sum              'Al1 B1 O4 Pb1'
_publ_section_title
;
Crystal structure and polymorphism of Pb Al B O4
;
loop_
_citation_id
_citation_journal_abbrev
_citation_year
_citation_journal_volume
_citation_page_first
_citation_page_last
_citation_journal_id_ASTM
primary 'Solid State Sciences' 2003 5 565 571 SSSCFJ
_publ_author_name
;
Park Hyun-Soo;Barbier, J.;Hammond, R.P.
;
_cell_length_a                     6.9209(5)
_cell_length_b                     5.7134(4)
_cell_length_c                     8.0215(6)
_cell_angle_alpha                  90
_cell_angle_beta                   90
_cell_angle_gamma                  90
_cell_volume                       317.19
_cell_formula_units_Z              4
_symmetry_space_group_name_H-M     'P n m a'
_symmetry_Int_Tables_number        62
_refine_ls_R_factor_all            .0231
loop_
_symmetry_equiv_pos_site_id
_symmetry_equiv_pos_as_xyz
  1	'x+.5, y, -z+.5'
  2	'x, -y+.5, z'
  3	'-x+.5, y+.5, z+.5'
  4	'-x, -y, -z'
  5	'-x+.5, -y, z+.5'
  6	'-x, y+.5, -z'
  7	'x+.5, -y+.5, -z+.5'
  8	'x, y, z'
loop_
_atom_type_symbol
_atom_type_oxidation_number
Al3+	3
B3+	3
O2-	-2
Pb2+	2
loop_
_atom_site_label
_atom_site_type_symbol
_atom_site_symmetry_multiplicity
_atom_site_Wyckoff_symbol
_atom_site_fract_x
_atom_site_fract_y
_atom_site_fract_z
_atom_site_occupancy
_atom_site_attached_hydrogens
_atom_site_B_iso_or_equiv
Pb1 Pb2+ 4 c 0.0623(5) 0.250 0.3619(4) 1. 0 0.54(8) 
Al1 Al3+ 4 a 0 0 0 1. 0 0.60(10) 
B1 B3+ 4 c 0.7701(8) 0.250 0.7415(7) 1. 0 0.52(9) 
O1 O2- 4 c 0.0998(8) 0.750 0.8885(8) 1. 0 0.40(10) 
O2 O2- 8 d 0.1722(6) -0.0436(7) 0.1844(5) 1. 0 0.55(7) 
O3 O2- 4 c 0.8331(8) 0.750 0.0961(7) 1. 0 0.60(10) 

#End of data_98572-ICSD


