data_160679-ICSD
#?2014 by Fachinformationszentrum Karlsruhe, and the U.S. Secretary of 
#Commerce on behalf of the United States.  All rights reserved.
_database_code_ICSD                160679
_audit_creation_date               2009/02/01
_chemical_name_systematic          'Dirubidium Tetrachlorozincate'
_chemical_formula_structural       'Rb2 (Zn Cl4)'
_chemical_formula_sum              'Cl4 Rb2 Zn1'
_publ_section_title
;
A modulated crystal structure in Rb2 Zn X4 (X = Cl, Br) - a neutron 
time-of-flight single-crystal study
;
loop_
_citation_id
_citation_journal_abbrev
_citation_year
_citation_journal_volume
_citation_page_first
_citation_page_last
_citation_journal_id_ASTM
primary 'Measurement science and technology, IOP publishing'
 2008 19 034005-1 034005-5 MSTCEP
_publ_author_name
;
Gutmann, M.J.;Petricek, V.;Daoud-Aladine, M.A.;Martin, C.Y.
;
_cell_length_a                     12.696(4)
_cell_length_b                     7.285(2)
_cell_length_c                     9.232(3)
_cell_angle_alpha                  90.
_cell_angle_beta                   90.
_cell_angle_gamma                  90.
_cell_volume                       853.87
_cell_formula_units_Z              4
_symmetry_space_group_name_H-M     'P c m n'
_symmetry_Int_Tables_number        62
_refine_ls_R_factor_all            .0922
loop_
_symmetry_equiv_pos_site_id
_symmetry_equiv_pos_as_xyz
  1	'-x+.5, y, z+.5'
  2	'x, -y+.5, z'
  3	'x+.5, y+.5, -z+.5'
  4	'-x, -y, -z'
  5	'x+.5, -y, -z+.5'
  6	'-x, y+.5, -z'
  7	'-x+.5, -y+.5, z+.5'
  8	'x, y, z'
loop_
_atom_type_symbol
_atom_type_oxidation_number
Cl1-	-1
Rb1+	1
Zn2+	2
loop_
_atom_site_label
_atom_site_type_symbol
_atom_site_symmetry_multiplicity
_atom_site_Wyckoff_symbol
_atom_site_fract_x
_atom_site_fract_y
_atom_site_fract_z
_atom_site_occupancy
_atom_site_attached_hydrogens
_atom_site_U_iso_or_equiv
Rb1 Rb1+ 4 c 0.4058(2) 0.250 0.6301(2) 1. 0 0.0425(7) 
Rb2 Rb1+ 4 c 0.8192(1) 0.250 0.4866(2) 1. 0 0.0235(5) 
Zn1 Zn2+ 4 c 0.4220(1) 0.250 0.2239(2) 1. 0 0.0138(4) 
Cl1 Cl1- 4 c 0.4194(1) 0.250 -0.0179(1) 1. 0 0.0377(5) 
Cl2 Cl1- 4 c 0.5844(1) 0.250 0.3217(2) 1. 0 0.0295(5) 
Cl3 Cl1- 8 d 0.3395(1) 0.0017(1) 0.3126(1) 1. 0 0.0353(4) 

#End of data_160679-ICSD


