data_43284-ICSD
#?2014 by Fachinformationszentrum Karlsruhe, and the U.S. Secretary of 
#Commerce on behalf of the United States.  All rights reserved.
_database_code_ICSD                43284
_audit_creation_date               2000/07/15
_audit_update_record               2010/08/01
_chemical_name_systematic          'Silver Thallium(III) Telluride'
_chemical_formula_structural       'Ag Tl Te2'
_chemical_formula_sum              'Ag1 Te2 Tl1'
_publ_section_title
;
Electron diffraction study of the semiconducting compound Ag Tl Te2
;
loop_
_citation_id
_citation_journal_abbrev
_citation_year
_citation_journal_volume
_citation_page_first
_citation_page_last
_citation_journal_id_ASTM
primary Kristallografiya 1964 9 743 747 KRISAJ
2 'Soviet Physics, Crystallography (= Kristallografiya)'
 1964 9 626 629 SPHCA6
_publ_author_name                  'Imamov, R.M.;Pinsker, Z.G.'
_cell_length_a                     3.92(2)
_cell_length_b                     3.92
_cell_length_c                     15.22(4)
_cell_angle_alpha                  90.
_cell_angle_beta                   90.
_cell_angle_gamma                  90.
_cell_volume                       233.88
_cell_formula_units_Z              2
_symmetry_space_group_name_H-M     'I -4 m 2'
_symmetry_Int_Tables_number        119
_refine_ls_R_factor_all            .15
loop_
_symmetry_equiv_pos_site_id
_symmetry_equiv_pos_as_xyz
  1	'y, x, -z'
  2	'-y, -x, -z'
  3	'y, -x, -z'
  4	'-y, x, -z'
  5	'x, -y, z'
  6	'-x, y, z'
  7	'-x, -y, z'
  8	'x, y, z'
  9	'y+.5, x+.5, -z+.5'
 10	'-y+.5, -x+.5, -z+.5'
 11	'y+.5, -x+.5, -z+.5'
 12	'-y+.5, x+.5, -z+.5'
 13	'x+.5, -y+.5, z+.5'
 14	'-x+.5, y+.5, z+.5'
 15	'-x+.5, -y+.5, z+.5'
 16	'x+.5, y+.5, z+.5'
loop_
_atom_type_symbol
_atom_type_oxidation_number
Ag1+	1
Te2-	-2
Tl3+	3
loop_
_atom_site_label
_atom_site_type_symbol
_atom_site_symmetry_multiplicity
_atom_site_Wyckoff_symbol
_atom_site_fract_x
_atom_site_fract_y
_atom_site_fract_z
_atom_site_occupancy
_atom_site_attached_hydrogens
_atom_site_B_iso_or_equiv
Ag1 Ag1+ 2 c 0 0.5 0.25 1. 0 1. 
Tl1 Tl3+ 2 a 0 0 0 1. 0 1. 
Te1 Te2- 4 e 0 0 0.369 1. 0 1. 

#End of data_43284-ICSD


