data_659302-ICSD
#?2014 by Fachinformationszentrum Karlsruhe, and the U.S. Secretary of 
#Commerce on behalf of the United States.  All rights reserved.
_database_code_ICSD                659302
_audit_creation_date               2013/08/01
_chemical_name_systematic
;
Silver Barium Yttrium Sulfide (5/2/1/6)
;
_chemical_formula_structural       'Ag5 Ba2 Y S6'
_chemical_formula_sum              'Ag5 Ba2 S6 Y1'
_publ_section_title
;
Synthesis and structure of Ba2 La Ag5 S6 and Ba2 Y Ag5 S6
;
loop_
_citation_id
_citation_journal_abbrev
_citation_year
_citation_journal_volume
_citation_page_first
_citation_page_last
_citation_journal_id_ASTM
primary 'Zeitschrift fuer Kristallographie (1979-2010)' 1993 208 35 41 ZEKRDZ
_publ_author_name                  'Ping Wu;Ibers, J.A.'
_cell_length_a                     14.02(2)
_cell_length_b                     4.18(1)
_cell_length_c                     11.28(2)
_cell_angle_alpha                  90.0
_cell_angle_beta                   95.0(2)
_cell_angle_gamma                  90.0
_cell_volume                       658.53
_cell_formula_units_Z              2
_symmetry_space_group_name_H-M     'C 1 2/m 1'
_symmetry_Int_Tables_number        12
loop_
_symmetry_equiv_pos_site_id
_symmetry_equiv_pos_as_xyz
  1	'-x, y, -z'
  2	'-x, -y, -z'
  3	'x, -y, z'
  4	'x, y, z'
  5	'-x+.5, y+.5, -z'
  6	'-x+.5, -y+.5, -z'
  7	'x+.5, -y+.5, z'
  8	'x+.5, y+.5, z'
loop_
_atom_type_symbol
_atom_type_oxidation_number
Ag1+	1
Ba2+	2
S2-	-2
Y3+	3
loop_
_atom_site_label
_atom_site_type_symbol
_atom_site_symmetry_multiplicity
_atom_site_Wyckoff_symbol
_atom_site_fract_x
_atom_site_fract_y
_atom_site_fract_z
_atom_site_occupancy
_atom_site_attached_hydrogens
Y1 Y3+ 2 d 0 0.5 0.5 1. 0 
Ba1 Ba2+ 4 i 0.251 0 0.708 1. 0 
Ag1 Ag1+ 4 i 0.019 0 0.255 1. 0 
Ag2 Ag1+ 4 i 0.350 0 0.035 1. 0 
Ag3 Ag1+ 2 a 0 0 0 1. 0 
S1 S2- 4 i 0.134 0 0.448 1. 0 
S2 S2- 4 i 0.157 0 0.102 1. 0 
S3 S2- 4 i 0.414 0 0.256 1. 0 

#End of data_659302-ICSD


