data_413704-ICSD
#?2014 by Fachinformationszentrum Karlsruhe, and the U.S. Secretary of 
#Commerce on behalf of the United States.  All rights reserved.
_database_code_ICSD                413704
_audit_creation_date               2005/10/01
_chemical_name_systematic
;
Dipotassium Tetracyanodichloroplatinate(IV)
;
_chemical_formula_structural       'K2 (Pt (C N)4 Cl2)'
_chemical_formula_sum              'C4 Cl2 K2 N4 Pt1'
_publ_section_title
;
Kristallzucht und Strukturaufklaerung von K2 (Pt (C N)4 Cl2), K2 (Pt 
(C N)4 Br2), K2 (Pt (C N)4 I2) und K2 (Pt (C N)4 Cl2).2 H2 O
;
loop_
_citation_id
_citation_journal_abbrev
_citation_year
_citation_journal_volume
_citation_page_first
_citation_page_last
_citation_journal_id_ASTM
primary 'Zeitschrift fuer Naturforschung, B: Chemical Sciences'
 2004 59 567 572 ZNBSEN
_publ_author_name
;
Muehle, C.;Karpov, A.;Nuss, J.;Jansen, M.
;
_cell_length_a                     7.0848
_cell_length_b                     9.0328
_cell_length_c                     8.5313
_cell_angle_alpha                  90
_cell_angle_beta                   106.37
_cell_angle_gamma                  90
_cell_volume                       523.83
_cell_formula_units_Z              2
_symmetry_space_group_name_H-M     'P 1 21/c 1'
_symmetry_Int_Tables_number        14
_refine_ls_R_factor_all            .0341
loop_
_symmetry_equiv_pos_site_id
_symmetry_equiv_pos_as_xyz
  1	'x, -y+.5, z+.5'
  2	'-x, -y, -z'
  3	'-x, y+.5, -z+.5'
  4	'x, y, z'
loop_
_atom_type_symbol
_atom_type_oxidation_number
C2+	2
Cl1-	-1
K1+	1
N3-	-3
Pt4+	4
loop_
_atom_site_label
_atom_site_type_symbol
_atom_site_symmetry_multiplicity
_atom_site_Wyckoff_symbol
_atom_site_fract_x
_atom_site_fract_y
_atom_site_fract_z
_atom_site_occupancy
_atom_site_attached_hydrogens
_atom_site_U_iso_or_equiv
Pt1 Pt4+ 2 a 0 0 0 1 0 0.0317(5) 
Cl1 Cl1- 4 e 0.1033(5) 0.2443(5) 0.0322(6) 1 0 0.0403(18) 
K1 K1+ 4 e 0.5193(6) 0.7705(4) 0.6260(5) 1 0 0.0435(16) 
C1 C2+ 4 e 0.2047(8) -0.0375(18) -0.1153(5) 1 0 0.008(3) 
N1 N3- 4 e 0.3209(8) -0.0588(13) -0.1800(8) 1 0 0.008(3) 
C2 C2+ 4 e 0.1956(9) -0.0485(14) 0.2128(3) 1 0 0.008(3) 
N2 N3- 4 e 0.3066(10) -0.0762(10) 0.3328(5) 1 0 0.008(3) 

#End of data_413704-ICSD


