data_414006-ICSD
#?2014 by Fachinformationszentrum Karlsruhe, and the U.S. Secretary of 
#Commerce on behalf of the United States.  All rights reserved.
_database_code_ICSD                414006
_audit_creation_date               2005/10/01
_audit_update_record               2012/02/01
_chemical_name_systematic          'Dicalcium Dinitridoborate Hydride'
_chemical_formula_structural       'Ca2 (B N2) H'
_chemical_formula_sum              'H1 B1 Ca2 N2'
_publ_section_title
;
Ca2 (B N2) H: The first nitrido-borate hydride - synthesis, crystal 
structure and vibrational spectra
;
loop_
_citation_id
_citation_journal_abbrev
_citation_year
_citation_journal_volume
_citation_page_first
_citation_page_last
_citation_journal_id_ASTM
primary 'Zeitschrift fuer Anorganische und Allgemeine Chemie (1950) (DE)'
 2004 630 1068 1073 ZAACAB
_publ_author_name
;
Somer, M.;Yaren, O.;Reckeweg, O.;Prots', Yu.M.;Carrillo Cabrera, W.
;
_cell_length_a                     9.2015(8)
_cell_length_b                     3.6676(2)
_cell_length_c                     9.9874(12)
_cell_angle_alpha                  90.00
_cell_angle_beta                   90.00
_cell_angle_gamma                  90.00
_cell_volume                       337.05
_cell_formula_units_Z              4
_symmetry_space_group_name_H-M     'P n m a'
_symmetry_Int_Tables_number        62
_refine_ls_R_factor_all            .0234
loop_
_symmetry_equiv_pos_site_id
_symmetry_equiv_pos_as_xyz
  1	'x+.5, y, -z+.5'
  2	'x, -y+.5, z'
  3	'-x+.5, y+.5, z+.5'
  4	'-x, -y, -z'
  5	'-x+.5, -y, z+.5'
  6	'-x, y+.5, -z'
  7	'x+.5, -y+.5, -z+.5'
  8	'x, y, z'
loop_
_atom_type_symbol
_atom_type_oxidation_number
B3+	3
Ca2+	2
H1-	-1
N3-	-3
loop_
_atom_site_label
_atom_site_type_symbol
_atom_site_symmetry_multiplicity
_atom_site_Wyckoff_symbol
_atom_site_fract_x
_atom_site_fract_y
_atom_site_fract_z
_atom_site_occupancy
_atom_site_attached_hydrogens
_atom_site_U_iso_or_equiv
Ca1 Ca2+ 4 c 0.02620(4) 0.2500 0.65564(4) 1 0 0.01023(9) 
Ca2 Ca2+ 4 c 0.17686(4) 0.2500 0.02365(4) 1 0 0.01137(10) 
N1 N3- 4 c 0.32117(17) 0.2500 0.21756(17) 1 0 0.0129(3) 
N2 N3- 4 c 0.15210(16) 0.2500 0.43518(15) 1 0 0.0121(3) 
B1 B3+ 4 c 0.2345(2) 0.2500 0.3234(2) 1 0 0.0101(3) 
H1 H1- 4 c 0.459(3) 0.2500 0.599(3) 1 0 0.028(8) 

loop_
_atom_site_aniso_label
_atom_site_aniso_type_symbol
_atom_site_aniso_U_11
_atom_site_aniso_U_22
_atom_site_aniso_U_33
_atom_site_aniso_U_12
_atom_site_aniso_U_13
_atom_site_aniso_U_23
Ca1 Ca2+ 0.01018(16) 0.00969(14) 0.01082(18) 0.000 -0.00077(11) 0.000
Ca2 Ca2+ 0.00995(15) 0.01024(15) 0.0139(2) 0.000 0.00032(11) 0.000
N1 N3- 0.0140(6) 0.0119(6) 0.0129(8) 0.000 0.0026(5) 0.000
N2 N3- 0.0120(6) 0.0132(6) 0.0111(7) 0.000 0.0015(5) 0.000
B1 B3+ 0.0094(7) 0.0065(6) 0.0144(9) 0.000 -0.0012(6) 0.000
#End of data_414006-ICSD


