data_636952-ICSD
#?2014 by Fachinformationszentrum Karlsruhe, and the U.S. Secretary of 
#Commerce on behalf of the United States.  All rights reserved.
_database_code_ICSD                636952
_audit_creation_date               2013/08/01
_chemical_name_systematic          'Dimagnesium Tetrathiogermanate'
_chemical_formula_structural       'Mg2 (Ge S4)'
_chemical_formula_sum              'Ge1 Mg2 S4'
_publ_section_title
;
Ternary chalcogenides with group IVA elements and their olivine 
structure
;
loop_
_citation_id
_citation_journal_abbrev
_citation_year
_citation_journal_volume
_citation_page_first
_citation_page_last
_citation_journal_id_ASTM
primary
;
Zeitschrift fuer Naturforschung, Teil B. Anorganische Chemie, 
Organische Chemie (2,1947-32,1977)
;
 1964 19 958 . ZENBAX
_publ_author_name
;
Rocktaeschel, G.;Ritter, W.;Weiss, A.
;
_cell_length_a                     12.84
_cell_length_b                     7.47
_cell_length_c                     6.07
_cell_angle_alpha                  90.0
_cell_angle_beta                   90.0
_cell_angle_gamma                  90.0
_cell_volume                       582.2
_cell_formula_units_Z              4
_symmetry_space_group_name_H-M     'P n m a'
_symmetry_Int_Tables_number        62
loop_
_symmetry_equiv_pos_site_id
_symmetry_equiv_pos_as_xyz
  1	'x+.5, y, -z+.5'
  2	'x, -y+.5, z'
  3	'-x+.5, y+.5, z+.5'
  4	'-x, -y, -z'
  5	'-x+.5, -y, z+.5'
  6	'-x, y+.5, -z'
  7	'x+.5, -y+.5, -z+.5'
  8	'x, y, z'
loop_
_atom_type_symbol
_atom_type_oxidation_number
Ge4+	4
Mg2+	2
S2-	-2
loop_
_atom_site_label
_atom_site_type_symbol
_atom_site_symmetry_multiplicity
_atom_site_Wyckoff_symbol
_atom_site_fract_x
_atom_site_fract_y
_atom_site_fract_z
_atom_site_occupancy
_atom_site_attached_hydrogens
Mg1 Mg2+ 4 a 0 0 0 1. 0 
Mg2 Mg2+ 4 c 0.230 0.25 0.485 1. 0 
Ge1 Ge4+ 4 c 0.403 0.25 0.079 1. 0 
S1 S2- 8 d 0.329 0.020 0.252 1. 0 
S2 S2- 4 c 0.410 0.25 0.724 1. 0 
S3 S2- 4 c 0.561 0.25 0.234 1. 0 

#End of data_636952-ICSD


