data_245146-ICSD
#?2014 by Fachinformationszentrum Karlsruhe, and the U.S. Secretary of 
#Commerce on behalf of the United States.  All rights reserved.
_database_code_ICSD                245146
_audit_creation_date               2007/08/01
_chemical_name_systematic
;
Cesium Potassium Sulfate Tellurium Hexahydroxide
;
_chemical_formula_structural       'Cs K (S O4) Te (O H)6'
_chemical_formula_sum              'H6 Cs1 K1 O10 S1 Te1'
_publ_section_title
;
Structural and conductivity studies of Cs K (S O4) Te (O H)6 and 
Rb1.25 K0.75 (S O4) Te (O H)6 materials
;
loop_
_citation_id
_citation_journal_abbrev
_citation_year
_citation_journal_volume
_citation_journal_issue
_citation_page_first
_citation_page_last
_citation_journal_id_ASTM
primary 'Journal of Solid State Chemistry' 2006 179 7 2164 2173 JSSCBI
_publ_author_name
;
Chabchoub, N.;Darriet, J.;Khemakhem, H.
;
_cell_length_a                     12.5463(6)
_cell_length_b                     6.5765(2)
_cell_length_c                     12.6916(7)
_cell_angle_alpha                  90
_cell_angle_beta                   106.53(2)
_cell_angle_gamma                  90
_cell_volume                       1003.91
_cell_formula_units_Z              4
_symmetry_space_group_name_H-M     'P 1 n 1'
_symmetry_Int_Tables_number        7
_refine_ls_R_factor_all            .0284
loop_
_symmetry_equiv_pos_site_id
_symmetry_equiv_pos_as_xyz
  1	'x+.5, -y, z+.5'
  2	'x, y, z'
loop_
_atom_type_symbol
_atom_type_oxidation_number
Cs1+	1
H1+	1
K1+	1
O2-	-2
S6+	6
Te6+	6
loop_
_atom_site_label
_atom_site_type_symbol
_atom_site_symmetry_multiplicity
_atom_site_Wyckoff_symbol
_atom_site_fract_x
_atom_site_fract_y
_atom_site_fract_z
_atom_site_occupancy
_atom_site_attached_hydrogens
_atom_site_U_iso_or_equiv
Cs1 Cs1+ 2 a 0 0.52167(15) 0 1. 0 0.0258(3) 
Cs2 Cs1+ 2 a 0.23362(2) -0.97837(14) -0.77278(3) 1. 0 0.0263(3) 
K1 K1+ 2 a 0.9855(3) -0.0353(5) 0.5161(3) 1. 0 0.0304(9) 
K2 K1+ 2 a -0.7510(3) -0.5327(5) -1.2914(3) 1. 0 0.0261(8) 
Te1 Te6+ 2 a 0.14091(8) 0.00572(12) -0.15061(7) 1. 0 0.01421(19) 
Te2 Te6+ 2 a 0.09402(7) -0.49413(12) -0.61978(7) 1. 0 0.01282(18) 
S1 S6+ 2 a -0.12935(18) 0.0003(4) 0.0922(2) 1. 0 0.0137(6) 
S2 S6+ 2 a 0.3630(2) -0.4987(4) -0.8616(2) 1. 0 0.0160(6) 
O1 O2- 2 a -0.2277(6) 0.0118(12) -0.0096(6) 1. 0 0.0225(16) 
O2 O2- 2 a -0.1231(6) -0.2042(9) 0.1389(6) 1. 0 0.031(2) 
O3 O2- 2 a -0.1425(6) 0.1497(9) 0.1759(5) 1. 0 0.0174(16) 
O4 O2- 2 a -0.0294(7) 0.0474(13) 0.0604(7) 1. 0 0.036(3) 
O5 O2- 2 a 0.4585(7) -0.4808(12) -0.7681(7) 1. 0 0.031(2) 
O6 O2- 2 a 0.3744(7) -0.3475(12) -0.9432(6) 1. 0 0.033(2) 
O7 O2- 2 a 0.2599(5) -0.4593(12) -0.8328(6) 1. 0 0.0223(19) 
O8 O2- 2 a 0.3590(6) -0.7058(9) -0.9077(6) 1. 0 0.024(2) 
O9 O2- 2 a 0.2923(6) 0.0140(13) -0.1538(6) 1. 0 0.024(2) 
O10 O2- 2 a -0.0082(6) -0.0052(13) -0.1466(6) 1. 0 0.027(2) 
O11 O2- 2 a 0.1642(6) 0.2505(12) -0.0710(7) 1. 0 0.035(2) 
O12 O2- 2 a 0.0908(7) 0.1528(15) -0.2813(6) 1. 0 0.033(2) 
O13 O2- 2 a 0.1196(7) -0.2309(14) -0.2410(7) 1. 0 0.029(2) 
O14 O2- 2 a 0.1817(6) -0.1503(14) -0.0202(6) 1. 0 0.0344(19) 
O15 O2- 2 a -0.0554(6) -0.4846(12) -0.6116(6) 1. 0 0.023(2) 
O16 O2- 2 a 0.2436(6) -0.5079(11) -0.6313(6) 1. 0 0.0202(17) 
O17 O2- 2 a 0.0488(7) -0.6307(15) -0.7576(6) 1. 0 0.038(2) 
O18 O2- 2 a 0.1100(7) -0.7363(14) -0.5364(8) 1. 0 0.037(3) 
O19 O2- 2 a 0.1435(6) -0.3365(12) -0.4850(6) 1. 0 0.0236(17) 
O20 O2- 2 a 0.0697(7) -0.2376(12) -0.6980(6) 1. 0 0.034(2) 
H1 H1+ 2 a 0.311(5) -0.067(7) -0.211(3) 1. 0 0.040(5) 
H2 H1+ 2 a -0.025(5) 0.043(9) -0.080(3) 1. 0 0.040(5) 
H3 H1+ 2 a 0.233(3) 0.265(10) -0.011(3) 1. 0 0.040(5) 
H4 H1+ 2 a 0.0464(4) 0.277(6) -0.279(6) 1. 0 0.040(5) 
H5 H1+ 2 a 0.067(4) -0.324(8) -0.225(4) 1. 0 0.040(5) 
H6 H1+ 2 a 0.247(4) -0.236(12) -0.018(7) 1. 0 0.040(5) 
H7 H1+ 2 a -0.074(6) -0.503(6) -0.542(3) 1. 0 0.040(5) 
H8 H1+ 2 a 0.250(6) -0.512(8) -0.707(3) 1. 0 0.040(5) 
H9 H1+ 2 a -0.020(4) -0.712(11) -0.769(7) 1. 0 0.040(5) 
H10 H1+ 2 a 0.184(3) -0.798(9) -0.510(5) 1. 0 0.040(5) 
H11 H1+ 2 a 0.210(3) -0.262(8) -0.490(6) 1. 0 0.040(5) 
H12 H1+ 2 a -0.0103(19) -0.221(10) -0.728(4) 1. 0 0.040(5) 

#End of data_245146-ICSD


