data_27681-ICSD
#?2014 by Fachinformationszentrum Karlsruhe, and the U.S. Secretary of 
#Commerce on behalf of the United States.  All rights reserved.
_database_code_ICSD                27681
_audit_creation_date               1980/01/01
_audit_update_record               1985/05/21
_chemical_name_systematic          'Dialuminium Titanium Oxide'
_chemical_formula_structural       'Al2 Ti O5'
_chemical_formula_sum              'Al2 O5 Ti1'
_publ_section_title
;
The crystal structure of aluminium titanate.
;
loop_
_citation_id
_citation_journal_abbrev
_citation_year
_citation_journal_volume
_citation_page_first
_citation_page_last
_citation_journal_id_ASTM
primary 'Acta Crystallographica (1,1948-23,1967)' 1953 6 812 813 ACCRA9
_publ_author_name                  'Austin, A.E.;Schwartz, C.M.'
_cell_length_a                     3.557(2)
_cell_length_b                     9.436(5)
_cell_length_c                     9.648(5)
_cell_angle_alpha                  90.
_cell_angle_beta                   90.
_cell_angle_gamma                  90.
_cell_volume                       323.82
_cell_formula_units_Z              4
_symmetry_space_group_name_H-M     'C m c m'
_symmetry_Int_Tables_number        63
loop_
_symmetry_equiv_pos_site_id
_symmetry_equiv_pos_as_xyz
  1	'-x, y, -z+.5'
  2	'-x, -y, z+.5'
  3	'-x, y, z'
  4	'-x, -y, -z'
  5	'x, -y, z+.5'
  6	'x, y, -z+.5'
  7	'x, -y, -z'
  8	'x, y, z'
  9	'-x+.5, y+.5, -z+.5'
 10	'-x+.5, -y+.5, z+.5'
 11	'-x+.5, y+.5, z'
 12	'-x+.5, -y+.5, -z'
 13	'x+.5, -y+.5, z+.5'
 14	'x+.5, y+.5, -z+.5'
 15	'x+.5, -y+.5, -z'
 16	'x+.5, y+.5, z'
loop_
_atom_type_symbol
_atom_type_oxidation_number
Al3+	3
O2-	-2
Ti4+	4
loop_
_atom_site_label
_atom_site_type_symbol
_atom_site_symmetry_multiplicity
_atom_site_Wyckoff_symbol
_atom_site_fract_x
_atom_site_fract_y
_atom_site_fract_z
_atom_site_occupancy
_atom_site_attached_hydrogens
Ti1 Ti4+ 4 c 0 0.190(3) 0.25 1. 0 
Al1 Al3+ 8 f 0 0.145(3) 0.560(3) 1. 0 
O1 O2- 4 c 0 0.760(3) 0.25 1. 0 
O2 O2- 8 f 0 0.040(3) 0.120(3) 1. 0 
O3 O2- 8 f 0 0.320(3) 0.090(3) 1. 0 

#End of data_27681-ICSD


