data_408170-ICSD
#?2014 by Fachinformationszentrum Karlsruhe, and the U.S. Secretary of 
#Commerce on behalf of the United States.  All rights reserved.
_database_code_ICSD                408170
_audit_creation_date               1999/06/02
_chemical_name_systematic
;
Strontium Silicon Dialuminium Dinitride Trioxide
;
_chemical_formula_structural       'Sr Si Al2 N2 O3'
_chemical_formula_sum              'Al2 N2 O3 Si1 Sr1'
_publ_section_title
;
Synthese, Kristallstruktur und Eigenschaften eines neuen Sialons Sr 
Si Al2 O3 N2
;
loop_
_citation_id
_citation_journal_abbrev
_citation_year
_citation_journal_volume
_citation_page_first
_citation_page_last
_citation_journal_id_ASTM
primary 'Zeitschrift fuer Anorganische und Allgemeine Chemie (1950) (DE)'
 1998 624 1154 1158 ZAACAB
_publ_author_name                  'Lauterbach, R.;Schnick, W.'
_cell_length_a                     4.9198(6)
_cell_length_b                     7.8973(7)
_cell_length_c                     11.349(2)
_cell_angle_alpha                  90.
_cell_angle_beta                   90.
_cell_angle_gamma                  90.
_cell_volume                       440.94
_cell_formula_units_Z              4
_symmetry_space_group_name_H-M     'P 21 21 21'
_symmetry_Int_Tables_number        19
_refine_ls_R_factor_all            .0626
loop_
_symmetry_equiv_pos_site_id
_symmetry_equiv_pos_as_xyz
  1	'-x, y+.5, -z+.5'
  2	'x+.5, -y+.5, -z'
  3	'-x+.5, -y, z+.5'
  4	'x, y, z'
loop_
_atom_type_symbol
_atom_type_oxidation_number
Al3+	3
N3-	-3
O2-	-2
Si4+	4
Sr2+	2
loop_
_atom_site_label
_atom_site_type_symbol
_atom_site_symmetry_multiplicity
_atom_site_Wyckoff_symbol
_atom_site_fract_x
_atom_site_fract_y
_atom_site_fract_z
_atom_site_occupancy
_atom_site_attached_hydrogens
Sr1 Sr2+ 4 a -.0088(2) 0.95868(8) 0.66580(5) 1. 0 
Al1 Al3+ 4 a -.0039(6) 0.8332(2) 0.34360(14) 1. 0 
Al2 Al3+ 4 a -.0134(5) 0.5311(2) 0.54293(14) 1. 0 
Si1 Si4+ 4 a 0.0138(5) 1.2013(2) 0.41952(14) 1. 0 
O1 O2- 4 a -.0414(13) 0.6542(7) 0.4235(5) 1. 0 
O2 O2- 4 a -.1671(10) 0.6230(7) 0.6616(5) 1. 0 
O3 O2- 4 a 0.1288(11) 1.2870(8) 0.2903(5) 1. 0 
N1 N3- 4 a -.1782(12) 1.0084(7) 0.4101(5) 1. 0 
N2 N3- 4 a -.1874(12) 1.3485(7) 0.4977(5) 1. 0 

loop_
_atom_site_aniso_label
_atom_site_aniso_type_symbol
_atom_site_aniso_U_11
_atom_site_aniso_U_22
_atom_site_aniso_U_33
_atom_site_aniso_U_12
_atom_site_aniso_U_13
_atom_site_aniso_U_23
Sr1 Sr2+ 0.0189(3) 0.0156(3) 0.0152(3) -.0010(5) 0.0021(5) -.0028(2)
Al1 Al3+ 0.0056(7) 0.0017(6) 0.0061(7) -.0004(10) 0.0018(12) -.0001(6)
Al2 Al3+ 0.0038(7) 0.0031(6) 0.0067(7) -.0005(11) 0.0001(10) 0.0000(6)
Si1 Si4+ 0.0077(8) 0.0078(6) 0.0102(7) 0.0002(11) 0.0010(11) -.0003(5)
O1 O2- 0.020(3) 0.020(2) 0.022(3) -.008(2) -.006(3) 0.007(2)
O2 O2- 0.015(3) 0.016(2) 0.021(3) 0.004(2) 0.001(2) -.002(2)
O3 O2- 0.020(3) 0.027(3) 0.016(3) -.005(3) 0.004(2) 0.005(2)
N1 N3- 0.008(3) 0.011(3) 0.018(3) -.001(2) 0.000(2) -.006(2)
N2 N3- 0.007(2) 0.010(3) 0.015(3) -.001(2) 0.003(2) 0.002(2)
#End of data_408170-ICSD


