data_27178-ICSD
#?2014 by Fachinformationszentrum Karlsruhe, and the U.S. Secretary of 
#Commerce on behalf of the United States.  All rights reserved.
_database_code_ICSD                27178
_audit_creation_date               1980/01/01
_audit_update_record               1991/04/19
_chemical_name_systematic
;
Silver Molybdenum Dioxide Phosphate
;
_chemical_formula_structural       'Ag (Mo O2) P O4'
_chemical_formula_sum              'Ag1 Mo1 O6 P1'
_publ_section_title
;
The crystal Structure of Ag Mo O2 P O4
;
loop_
_citation_id
_citation_journal_abbrev
_citation_year
_citation_journal_volume
_citation_page_first
_citation_page_last
_citation_journal_id_ASTM
primary 'Arkiv foer Kemi' 1965 23 213 221 ARKEAD
_publ_author_name                  'Kierkegaard, P.;Holmen, S.'
_cell_length_a                     12.142(3)
_cell_length_b                     11.887(4)
_cell_length_c                     6.3577(4)
_cell_angle_alpha                  90.
_cell_angle_beta                   92.25(1)
_cell_angle_gamma                  90.
_cell_volume                       916.91
_cell_formula_units_Z              8
_symmetry_space_group_name_H-M     'P 1 21/n 1'
_symmetry_Int_Tables_number        14
_refine_ls_R_factor_all            .2
loop_
_symmetry_equiv_pos_site_id
_symmetry_equiv_pos_as_xyz
  1	'-x+.5, y+.5, -z+.5'
  2	'-x, -y, -z'
  3	'x+.5, -y+.5, z+.5'
  4	'x, y, z'
loop_
_atom_type_symbol
_atom_type_oxidation_number
Ag1+	1
Mo6+	6
O2-	-2
P5+	5
loop_
_atom_site_label
_atom_site_type_symbol
_atom_site_symmetry_multiplicity
_atom_site_Wyckoff_symbol
_atom_site_fract_x
_atom_site_fract_y
_atom_site_fract_z
_atom_site_occupancy
_atom_site_attached_hydrogens
_atom_site_B_iso_or_equiv
Ag1 Ag1+ 4 e 0.3765(5) 0.2171(5) 0.9703(15) 1. 0 0.4 
Ag2 Ag1+ 4 e 0.3566(5) 0.3080(5) 0.4797(15) 1. 0 0.4 
Mo1 Mo6+ 4 e 0.1309(4) 0.1001(4) 0.2574(12) 1. 0 0.4 
Mo2 Mo6+ 4 e 0.1142(4) 0.4001(4) 0.7603(12) 1. 0 0.4 
P1 P5+ 4 e 0.067(1) 0.111(1) 0.756(4) 1. 0 0 
P2 P5+ 4 e 0.120(1) 0.458(1) 0.265(4) 1. 0 0 
O1 O2- 4 e 0.623(4) 0.442(4) 0.065(10) 1. 0 0 
O2 O2- 4 e 0.647(4) 0.398(4) 0.445(10) 1. 0 0 
O3 O2- 4 e 0.079(4) 0.383(4) 0.064(10) 1. 0 0 
O4 O2- 4 e 0.092(4) 0.387(4) 0.437(10) 1. 0 0 
O5 O2- 4 e 0.459(4) 0.449(4) 0.282(10) 1. 0 0 
O6 O2- 4 e 0.039(4) 0.232(4) 0.736(10) 1. 0 0 
O7 O2- 4 e 0.241(4) 0.470(4) 0.246(10) 1. 0 0 
O8 O2- 4 e 0.439(4) 0.071(4) 0.232(10) 1. 0 0 
O9 O2- 4 e 0.003(4) 0.176(4) 0.235(10) 1. 0 0 
O10 O2- 4 e 0.232(4) 0.205(4) 0.287(10) 1. 0 0 
O11 O2- 4 e 0.357(4) 0.043(4) 0.758(10) 1. 0 0 
O12 O2- 4 e 0.249(4) 0.341(4) 0.784(10) 1. 0 0 

#End of data_27178-ICSD


