data_63512-ICSD
#?2014 by Fachinformationszentrum Karlsruhe, and the U.S. Secretary of 
#Commerce on behalf of the United States.  All rights reserved.
_database_code_ICSD                63512
_audit_creation_date               1988/12/19
_chemical_name_systematic
;
Dipotassium Hexachloro Ditechnetate(II)
;
_chemical_formula_structural       'K2 (Tc2 Cl6)'
_chemical_formula_sum              'Cl6 K2 Tc2'
_publ_section_title
;
The crystal structure of potassium hexachloro ditechnetate (II) - the 
first complex with a "fivefold" metal-metal bond
;
loop_
_citation_id
_citation_journal_abbrev
_citation_year
_citation_journal_volume
_citation_page_first
_citation_page_last
_citation_journal_id_ASTM
primary 'Doklady Akademii Nauk SSSR' 1986 288 389 393 DANKAS
_publ_author_name
;
Kryuchkov, S.V.;Grigor'ev, M.S.;Kuzina, A.F.
;
_cell_length_a                     8.287(2)
_cell_length_b                     13.956(3)
_cell_length_c                     8.664(2)
_cell_angle_alpha                  90.
_cell_angle_beta                   93.99
_cell_angle_gamma                  90.
_cell_volume                       999.59
_cell_formula_units_Z              4
_symmetry_space_group_name_H-M     'C 1 c 1'
_symmetry_Int_Tables_number        9
_refine_ls_R_factor_all            .0339
loop_
_symmetry_equiv_pos_site_id
_symmetry_equiv_pos_as_xyz
  1	'x, -y, z+.5'
  2	'x, y, z'
  3	'x+.5, -y+.5, z+.5'
  4	'x+.5, y+.5, z'
loop_
_atom_type_symbol
_atom_type_oxidation_number
Cl1-	-1
K1+	1
Tc2+	2
loop_
_atom_site_label
_atom_site_type_symbol
_atom_site_symmetry_multiplicity
_atom_site_Wyckoff_symbol
_atom_site_fract_x
_atom_site_fract_y
_atom_site_fract_z
_atom_site_occupancy
_atom_site_attached_hydrogens
_atom_site_B_iso_or_equiv
Tc1 Tc2+ 4 a 0.098 0.04925(4) 0.43 1. 0 1.95(1) 
Tc2 Tc2+ 4 a 0.2805(1) 0.04873(4) 0.28290(7) 1. 0 1.85(1) 
K1 K1+ 4 a 0.6532(3) 0.1662(1) 0.6136(3) 1. 0 3.86(5) 
K2 K1+ 4 a 0.7207(3) 0.1659(2) 0.1027(3) 1. 0 3.31(4) 
Cl1 Cl1- 4 a 0.1196(4) 0.1050(1) 0.0451(2) 1. 0 3.61(5) 
Cl2 Cl1- 4 a -.0248(3) 0.2035(1) 0.3924(3) 1. 0 2.64(4) 
Cl3 Cl1- 4 a 0.2259(5) -.1083(3) 0.1603(2) 1. 0 4.97(8) 
Cl4 Cl1- 4 a 0.4081(3) 0.2038(1) 0.3165(3) 1. 0 2.83(4) 
Cl5 Cl1- 4 a -.1318(5) -.0162(2) 0.3021(4) 1. 0 5.97(6) 
Cl6 Cl1- 4 a 0.4948(4) -.0163(2) 0.4608(5) 1. 0 7.59(8) 

#End of data_63512-ICSD


