data_66967-ICSD
#?2014 by Fachinformationszentrum Karlsruhe, and the U.S. Secretary of 
#Commerce on behalf of the United States.  All rights reserved.
_database_code_ICSD                66967
_audit_creation_date               1998/06/26
_chemical_name_systematic          'Zinc Bis(hydrogenselenate(VI))'
_chemical_formula_structural       'Zn (H Se O4)2'
_chemical_formula_sum              'H2 O8 Se2 Zn1'
_publ_section_title
;
Synthese und Kristallstruktur von Hydrogenselenaten zweiwertiger 
Metalle - M (H Se O4)2 (M= Mg, Mn, Zn) und M (H Se O4)2 . (H2 O) (M= 
Mn, Cd)
;
loop_
_citation_id
_citation_journal_abbrev
_citation_year
_citation_journal_volume
_citation_page_first
_citation_page_last
_citation_journal_id_ASTM
primary 'Zeitschrift fuer Anorganische und Allgemeine Chemie (1950) (DE)'
 1998 624 135 140 ZAACAB
_publ_author_name
;
Morosov, I.;Troyanov, S.I.;Stiewe, A.;Kemnitz, E.
;
_cell_length_a                     5.0519(5)
_cell_length_b                     8.6837(7)
_cell_length_c                     7.3054(5)
_cell_angle_alpha                  90.
_cell_angle_beta                   98.096(9)
_cell_angle_gamma                  90.
_cell_volume                       317.29
_cell_formula_units_Z              2
_symmetry_space_group_name_H-M     'P 1 21/n 1'
_symmetry_Int_Tables_number        14
_refine_ls_R_factor_all            .024
loop_
_symmetry_equiv_pos_site_id
_symmetry_equiv_pos_as_xyz
  1	'-x+.5, y+.5, -z+.5'
  2	'-x, -y, -z'
  3	'x+.5, -y+.5, z+.5'
  4	'x, y, z'
loop_
_atom_type_symbol
_atom_type_oxidation_number
H1+	1
O2-	-2
Se6+	6
Zn2+	2
loop_
_atom_site_label
_atom_site_type_symbol
_atom_site_symmetry_multiplicity
_atom_site_Wyckoff_symbol
_atom_site_fract_x
_atom_site_fract_y
_atom_site_fract_z
_atom_site_occupancy
_atom_site_attached_hydrogens
_atom_site_U_iso_or_equiv
Zn1 Zn2+ 2 a 0 0 0 1. 0 0.0125(1) 
Se1 Se6+ 4 e 0.0445(6) 0.31657(4) 0.71661(4) 1. 0 0.0102(1) 
O1 O2- 4 e 0.1858(5) 0.3557(3) 0.5360(3) 1. 0 0.0154(5) 
O2 O2- 4 e -.2664(5) 0.3658(3) 0.6956(4) 1. 0 0.0201(5) 
O3 O2- 4 e 0.0873(5) 0.1362(3) 0.7742(3) 1. 0 0.0166(5) 
O4 O2- 4 e 0.2074(6) 0.4099(3) 0.9041(4) 1. 0 0.0225(6) 
H1 H1+ 4 e 0.26(1) 0.502(5) 0.87(1) 1. 0 0.11(3) 

#End of data_66967-ICSD


