data_18315-ICSD
#?2014 by Fachinformationszentrum Karlsruhe, and the U.S. Secretary of 
#Commerce on behalf of the United States.  All rights reserved.
_database_code_ICSD                18315
_audit_creation_date               1980/01/01
_audit_update_record               2012/02/01
_chemical_name_systematic          'Dizinc Diphosphate(V) - Alpha'
_chemical_formula_structural       'Zn2 (P2 O7)'
_chemical_formula_sum              'O7 P2 Zn2'
_publ_section_title
;
Crystal structure of alpha Zn2 P2 O7
;
loop_
_citation_id
_citation_journal_abbrev
_citation_year
_citation_journal_volume
_citation_page_first
_citation_page_last
_citation_journal_id_ASTM
primary 'Journal of Solid State Chemistry' 1970 1 120 133 JSSCBI
2 'Phase Transition' 1992 38 127 220 PHTRDP
_publ_author_name                  'Robertson, B.E.;Calvo, C.'
_cell_length_a                     20.068(15)
_cell_length_b                     8.259(6)
_cell_length_c                     9.099(8)
_cell_angle_alpha                  90.
_cell_angle_beta                   106.35(5)
_cell_angle_gamma                  90.
_cell_volume                       1447.1
_cell_formula_units_Z              12
_symmetry_space_group_name_H-M     'I 1 2/c 1'
_symmetry_Int_Tables_number        15
_refine_ls_R_factor_all            .098
loop_
_symmetry_equiv_pos_site_id
_symmetry_equiv_pos_as_xyz
  1	'-x, y, -z+.5'
  2	'-x, -y, -z'
  3	'x, -y, z+.5'
  4	'x, y, z'
  5	'-x+.5, y+.5, -z'
  6	'-x+.5, -y+.5, -z+.5'
  7	'x+.5, -y+.5, z'
  8	'x+.5, y+.5, z+.5'
loop_
_atom_type_symbol
_atom_type_oxidation_number
O2-	-2
P5+	5
Zn2+	2
loop_
_atom_site_label
_atom_site_type_symbol
_atom_site_symmetry_multiplicity
_atom_site_Wyckoff_symbol
_atom_site_fract_x
_atom_site_fract_y
_atom_site_fract_z
_atom_site_occupancy
_atom_site_attached_hydrogens
_atom_site_B_iso_or_equiv
Zn1 Zn2+ 8 f 0.01302(5) 0.31182(22) -.02382(11) 1. 0 0 
P1 P5+ 8 f 0.06618(11) 0.02024(43) 0.20417(23) 1. 0 0 
O1 O2- 4 e 0 0.0886(17) 0.25 1. 0 0.88 
O2 O2- 8 f -.12407(29) 0.0059(11) 0.1437(6) 1. 0 0.47 
O3 O2- 8 f -.08360(31) 0.1574(11) 0.3928(8) 1. 0 0.54 
O4 O2- 8 f 0.05120(37) -.1393(12) 0.1197(8) 1. 0 0.95 
Zn2 Zn2+ 8 f 0.16348(6) 0.18296(18) 0.00104(14) 1. 0 0 
Zn3 Zn2+ 8 f 0.18239(5) 0.81089(19) -.02402(12) 1. 0 0 
P2 P5+ 8 f 0.10189(11) 0.50679(45) 0.28423(22) 1. 0 0 
P3 P5+ 8 f 0.2388(1) 0.51842(45) 0.20192(22) 1. 0 0 
O5 O2- 8 f 0.1645(3) 0.5564(12) 0.2168(7) 1. 0 0.6 
O6 O2- 8 f 0.04049(29) 0.4939(11) 0.1422(6) 1. 0 0.31 
O7 O2- 8 f 0.28953(28) 0.5101(10) 0.3612(6) 1. 0 0.51 
O8 O2- 8 f 0.09400(33) 0.6513(11) 0.3829(8) 1. 0 0.56 
O9 O2- 8 f 0.25367(32) 0.6595(11) 0.1090(7) 1. 0 0.64 
O10 O2- 8 f 0.11792(39) 0.3550(12) 0.3758(9) 1. 0 1.11 
O11 O2- 8 f 0.23510(37) 0.3576(12) 0.1162(9) 1. 0 0.89 

loop_
_atom_site_aniso_label
_atom_site_aniso_type_symbol
_atom_site_aniso_U_11
_atom_site_aniso_U_22
_atom_site_aniso_U_33
_atom_site_aniso_U_12
_atom_site_aniso_U_13
_atom_site_aniso_U_23
Zn1 Zn2+ 0.0072(4) 0.0052(9) 0.0056(4) 0.0004(5) -.0004(3) 0.0004(6)
P1 P5+ 0.0047(7) 0.0049(18) 0.0025(6) -.0016(11) 0.0009(8) 0.0003(10)
Zn2 Zn2+ 0.0056(3) 0.0063(8) 0.0056(3) 0.0009(6) 0.0003(2) 0.0003(6)
Zn3 Zn2+ 0.0070(4) 0.0038(8) 0.0061(4) 0.0001(6) -.0011(3) 0.0001(8)
P2 P5+ 0.0047(7) 0.0053(17) 0.0020(6) -.0003(9) 0.0003(5) 0.001(1)
P3 P5+ 0.0033(6) 0.0072(18) 0.0024(6) 0.0007(8) 0.0007(7) 0.0001(10)
#End of data_18315-ICSD


