data_409472-ICSD
#?2014 by Fachinformationszentrum Karlsruhe, and the U.S. Secretary of 
#Commerce on behalf of the United States.  All rights reserved.
_database_code_ICSD                409472
_audit_creation_date               2002/04/01
_audit_update_record               2013/02/01
_chemical_name_systematic
;
Dibarium Calcium Tetranitridotungstate
;
_chemical_formula_structural       'Ba2 Ca (W N4)'
_chemical_formula_sum              'Ba2 Ca1 N4 W1'
_publ_section_title
;
Crystal structure of dibarium calcium (tetranitridotungstate(VI)), 
Ba2 Ca (W N4)
;
loop_
_citation_id
_citation_journal_abbrev
_citation_year
_citation_journal_volume
_citation_page_first
_citation_page_last
_citation_journal_id_ASTM
primary 'Zeitschrift fuer Kristallographie - New Crystal Structures'
 2000 215 331 332 ZKNSFT
_publ_author_name                  'Hoehn, P.;Kniep, R.'
_cell_length_a                     10.873(1)
_cell_length_b                     11.993(1)
_cell_length_c                     17.937(2)
_cell_angle_alpha                  90.
_cell_angle_beta                   90.
_cell_angle_gamma                  90.
_cell_volume                       2338.98
_cell_formula_units_Z              16
_symmetry_space_group_name_H-M     'F d d d Z'
_symmetry_Int_Tables_number        70
_refine_ls_R_factor_all            .0423
loop_
_symmetry_equiv_pos_site_id
_symmetry_equiv_pos_as_xyz
  1	'x+.75, y+.75, -z'
  2	'x+.75, -y, z+.75'
  3	'-x, y+.75, z+.75'
  4	'-x, -y, -z'
  5	'-x+.25, -y+.25, z'
  6	'-x+.25, y, -z+.25'
  7	'x, -y+.25, -z+.25'
  8	'x, y, z'
  9	'x+.75, y+.25, -z+.5'
 10	'x+.25, y+.75, -z+.5'
 11	'x+.25, y+.25, -z'
 12	'x+.75, -y+.5, z+.25'
 13	'x+.25, -y, z+.25'
 14	'x+.25, -y+.5, z+.75'
 15	'-x, y+.25, z+.25'
 16	'-x+.5, y+.75, z+.25'
 17	'-x+.5, y+.25, z+.75'
 18	'-x, -y+.5, -z+.5'
 19	'-x+.5, -y, -z+.5'
 20	'-x+.5, -y+.5, -z'
 21	'-x+.25, -y+.75, z+.5'
 22	'-x+.75, -y+.25, z+.5'
 23	'-x+.75, -y+.75, z'
 24	'-x+.25, y+.5, -z+.75'
 25	'-x+.75, y, -z+.75'
 26	'-x+.75, y+.5, -z+.25'
 27	'x, -y+.75, -z+.75'
 28	'x+.5, -y+.25, -z+.75'
 29	'x+.5, -y+.75, -z+.25'
 30	'x, y+.5, z+.5'
 31	'x+.5, y, z+.5'
 32	'x+.5, y+.5, z'
loop_
_atom_type_symbol
_atom_type_oxidation_number
Ba2+	2
Ca2+	2
N3-	-3
W6+	6
loop_
_atom_site_label
_atom_site_type_symbol
_atom_site_symmetry_multiplicity
_atom_site_Wyckoff_symbol
_atom_site_fract_x
_atom_site_fract_y
_atom_site_fract_z
_atom_site_occupancy
_atom_site_attached_hydrogens
W1 W6+ 16 f 0.125 0.88263(3) 0.625 1. 0 
Ba1 Ba2+ 16 g 0.125 0.125 0.51380(4) 1. 0 
Ba2 Ba2+ 16 e 0.05485(6) 0.875 0.875 1. 0 
Ca1 Ca2+ 16 g 0.125 0.125 0.28572(12) 1. 0 
N1 N3- 32 h 0.1154(7) 0.9580(7) 0.0398(5) 1. 0 
N2 N3- 32 h 0.0145(6) 0.0257(6) 0.3833(4) 1. 0 

loop_
_atom_site_aniso_label
_atom_site_aniso_type_symbol
_atom_site_aniso_U_11
_atom_site_aniso_U_22
_atom_site_aniso_U_33
_atom_site_aniso_U_12
_atom_site_aniso_U_13
_atom_site_aniso_U_23
W1 W6+ 0.0069(3) 0.0068(3) 0.0010(3) 0 0.00010(12) 0
Ba1 Ba2+ 0.0135(4) 0.0113(3) 0.0010(3) -.0016(2) 0 0
Ba2 Ba2+ 0.0103(4) 0.0105(3) 0.0094(4) 0 0 0.0011(2)
Ca1 Ca2+ 0.0101(9) 0.0107(8) 0.0010(9) -.0019(7) 0 0
N1 N3- 0.020(3) 0.020(3) 0.012(3) 0.003(3) 0.001(3) 0.012(3)
N2 N3- 0.009(2) 0.012(3) 0.007(3) 0.005(3) -.002(2) -.003(2)
#End of data_409472-ICSD


