data_28177-ICSD
#?2014 by Fachinformationszentrum Karlsruhe, and the U.S. Secretary of 
#Commerce on behalf of the United States.  All rights reserved.
_database_code_ICSD                28177
_audit_creation_date               1980/01/01
_chemical_name_systematic          'Diiron(III) Calcium Oxide'
_chemical_formula_structural       'Fe2 Ca O4'
_chemical_formula_sum              'Ca1 Fe2 O4'
_publ_section_title
;
Refinement of the Structure of Calcium Ferrite
;
loop_
_citation_id
_citation_journal_abbrev
_citation_year
_citation_journal_volume
_citation_page_first
_citation_page_last
_citation_journal_id_ASTM
primary 'Godishnik na Sofiiskiya Universitet, Fizicheski Fakultet'
 1971 63 177 187 GSUFA3
_publ_author_name                  'Apostolov, A.;Bassi, G.'
_cell_length_a                     10.66
_cell_length_b                     9.2
_cell_length_c                     3.01
_cell_angle_alpha                  90.
_cell_angle_beta                   90.
_cell_angle_gamma                  90.
_cell_volume                       295.2
_cell_formula_units_Z              4
_symmetry_space_group_name_H-M     'P b n m'
_symmetry_Int_Tables_number        62
_refine_ls_R_factor_all            .0484
loop_
_symmetry_equiv_pos_site_id
_symmetry_equiv_pos_as_xyz
  1	'-x+.5, y+.5, z'
  2	'x, y, -z+.5'
  3	'x+.5, -y+.5, z+.5'
  4	'-x, -y, -z'
  5	'x+.5, -y+.5, -z'
  6	'-x, -y, z+.5'
  7	'-x+.5, y+.5, -z+.5'
  8	'x, y, z'
loop_
_atom_type_symbol
_atom_type_oxidation_number
Ca2+	2
Fe3+	3
O2-	-2
loop_
_atom_site_label
_atom_site_type_symbol
_atom_site_symmetry_multiplicity
_atom_site_Wyckoff_symbol
_atom_site_fract_x
_atom_site_fract_y
_atom_site_fract_z
_atom_site_occupancy
_atom_site_attached_hydrogens
Fe1 Fe3+ 4 c 0.108(1) 0.059(5) 0.25 1. 0 
Fe2 Fe3+ 4 c 0.602(3) 0.079(3) 0.25 1. 0 
Ca1 Ca2+ 4 c 0.345(7) 0.233(5) 0.25 1. 0 
O1 O2- 4 c 0.647(4) 0.306(3) 0.25 1. 0 
O2 O2- 4 c 0.980(4) 0.381(3) 0.25 1. 0 
O3 O2- 4 c 0.219(3) 0.473(3) 0.25 1. 0 
O4 O2- 4 c 0.920(3) 0.088(5) 0.25 1. 0 

#End of data_28177-ICSD


