data_290956-ICSD
#?2014 by Fachinformationszentrum Karlsruhe, and the U.S. Secretary of 
#Commerce on behalf of the United States.  All rights reserved.
_database_code_ICSD                290956
_audit_creation_date               2014/08/01
_chemical_name_systematic          'Tricalcium Dimanganate(IV)'
_chemical_formula_structural       'Ca3 Mn2 O7'
_chemical_formula_sum              'Ca3 Mn2 O7'
_publ_section_title
;
A first - principles study of the structural and elastic properties 
of orthorhombic and tetragonal Ca3 Mn2 O7
;
loop_
_citation_id
_citation_journal_abbrev
_citation_year
_citation_journal_volume
_citation_journal_issue
_citation_page_first
_citation_page_last
_citation_journal_id_ASTM
primary 'Chinese Physics B' 2013 22 6 066201-1 066201-7 CPBHAJ
_publ_author_name                  'Zhang, Wei;Tong, Pei-Qing'
_cell_length_a                     19.466
_cell_length_b                     5.292
_cell_length_c                     5.302
_cell_angle_alpha                  90.
_cell_angle_beta                   90.
_cell_angle_gamma                  90.
_cell_volume                       546.18
_cell_formula_units_Z              4
_symmetry_space_group_name_H-M     'C m c 21'
_symmetry_Int_Tables_number        36
loop_
_symmetry_equiv_pos_site_id
_symmetry_equiv_pos_as_xyz
  1	'x, -y, z+.5'
  2	'-x, -y, z+.5'
  3	'-x, y, z'
  4	'x, y, z'
  5	'x+.5, -y+.5, z+.5'
  6	'-x+.5, -y+.5, z+.5'
  7	'-x+.5, y+.5, z'
  8	'x+.5, y+.5, z'
loop_
_atom_type_symbol
_atom_type_oxidation_number
Ca2+	2
Mn4+	4
O2-	-2
loop_
_atom_site_label
_atom_site_type_symbol
_atom_site_symmetry_multiplicity
_atom_site_Wyckoff_symbol
_atom_site_fract_x
_atom_site_fract_y
_atom_site_fract_z
_atom_site_occupancy
_atom_site_attached_hydrogens
Ca1 Ca2+ 4 a 0.5 0.7458 0.7149 1. 0 
Ca2 Ca2+ 8 b 0.3133 0.7427 0.7808 1. 0 
Mn1 Mn4+ 8 b 0.0980 0.7489 0.7509 1. 0 
O1 O2- 4 a 0 0.6883 0.7602 1. 0 
O2 O2- 8 b 0.0856 0.0396 0.9602 1. 0 
O3 O2- 8 b 0.1092 0.5386 0.0378 1. 0 
O4 O2- 8 b 0.1958 0.7958 0.7432 1. 0 

#End of data_290956-ICSD


