data_262369-ICSD
#?2014 by Fachinformationszentrum Karlsruhe, and the U.S. Secretary of 
#Commerce on behalf of the United States.  All rights reserved.
_database_code_ICSD                262369
_audit_creation_date               2012/08/01
_chemical_name_systematic
;
Dimagnesium Phosphate Hydroxide Trihydrate
;
_chemical_formula_structural       'Mg2 P O4 (O H) (H2 O)3'
_chemical_formula_sum              'H7 Mg2 O8 P1'
_chemical_name_mineral             Kovdorskite
_publ_section_title
;
Redetermination of kovdorskite, Mg2 P O4 (O H) * 3 H2 O
;
loop_
_citation_id
_citation_journal_abbrev
_citation_year
_citation_journal_volume
_citation_journal_issue
_citation_page_first
_citation_page_last
_citation_journal_id_ASTM
primary 'Acta Crystallographica, Section E. Structure Reports Online'
 2012 68 2 i12 i13 ACSEBH
_publ_author_name
;
Morrison, S.M.;Downs, R.T.;Yang Hexiong
;
_cell_length_a                     10.47850(10)
_cell_length_b                     12.9336(2)
_cell_length_c                     4.73080(10)
_cell_angle_alpha                  90.00
_cell_angle_beta                   105.0540(10)
_cell_angle_gamma                  90.00
_cell_volume                       619.14
_cell_formula_units_Z              4
_symmetry_space_group_name_H-M     'P 1 21/a 1'
_symmetry_Int_Tables_number        14
_refine_ls_R_factor_all            .0222
loop_
_symmetry_equiv_pos_site_id
_symmetry_equiv_pos_as_xyz
  1	'x+.5, -y+.5, z'
  2	'-x, -y, -z'
  3	'-x+.5, y+.5, -z'
  4	'x, y, z'
loop_
_atom_type_symbol
_atom_type_oxidation_number
H1+	1
Mg2+	2
O2-	-2
P5+	5
loop_
_atom_site_label
_atom_site_type_symbol
_atom_site_symmetry_multiplicity
_atom_site_Wyckoff_symbol
_atom_site_fract_x
_atom_site_fract_y
_atom_site_fract_z
_atom_site_occupancy
_atom_site_attached_hydrogens
_atom_site_U_iso_or_equiv
Mg1 Mg2+ 4 e 0.15418(3) 0.48809(3) 0.04828(7) 1 0 0.00906(8) 
Mg2 Mg2+ 4 e 0.49666(3) 0.21171(3) 0.93433(7) 1 0 0.00854(8) 
P1 P5+ 4 e 0.21969(2) 0.321419(19) 0.59573(5) 1 0 0.00682(7) 
O1 O2- 4 e 0.34918(7) 0.26654(6) 0.58522(15) 1 0 0.01002(14) 
O2 O2- 4 e 0.13841(7) 0.24609(5) 0.73290(15) 1 0 0.01022(14) 
O3 O2- 4 e 0.14008(7) 0.35212(6) 0.28575(14) 1 0 0.01018(14) 
O4 O2- 4 e 0.25621(7) 0.41919(6) 0.78609(15) 1 0 0.01050(14) 
O5 O2- 4 e 0.01976(7) 0.56414(5) 0.22485(15) 1 0 0.00943(13) 
O6 O2- 4 e 0.16539(8) 0.64623(6) -0.12401(16) 1 0 0.01279(14) 
O7 O2- 4 e 0.32209(8) 0.53186(7) 0.35888(18) 1 0 0.01745(16) 
O8 O2- 4 e 0.48594(8) 0.34594(7) 1.16317(18) 1 0 0.01686(16) 
H1 H1+ 4 e 0.0319(18) 0.5627(14) 0.419(4) 1 0 0.034(5) 
H2 H1+ 4 e 0.160(2) 0.6770(16) -0.298(5) 1 0 0.051(6) 
H3 H1+ 4 e 0.2345(18) 0.6736(13) -0.005(4) 1 0 0.030(4) 
H4 H1+ 4 e 0.3228(19) 0.5108(14) 0.536(4) 1 0 0.035(5) 
H5 H1+ 4 e 0.353(3) 0.591(2) 0.371(5) 1 0 0.070(8) 
H6 H1+ 4 e 0.4269(19) 0.3840(15) 1.068(4) 1 0 0.038(5) 
H7 H1+ 4 e 0.468(3) 0.3322(18) 1.312(6) 1 0 0.063(7) 

loop_
_atom_site_aniso_label
_atom_site_aniso_type_symbol
_atom_site_aniso_U_11
_atom_site_aniso_U_22
_atom_site_aniso_U_33
_atom_site_aniso_U_12
_atom_site_aniso_U_13
_atom_site_aniso_U_23
Mg1 Mg2+ 0.00832(15) 0.00862(16) 0.00998(15) 0.00010(12) 0.00191(11) 
-0.00105(11)
Mg2 Mg2+ 0.00828(15) 0.00792(16) 0.00926(15) 0.00010(12) 0.00198(11) 
-0.00018(11)
P1 P5+ 0.00668(11) 0.00727(12) 0.00646(11) 0.00097(8) 0.00160(7) 0.00004(7)
O1 O2- 0.0086(3) 0.0122(3) 0.0093(3) 0.0028(3) 0.0025(2) -0.0001(2)
O2 O2- 0.0105(3) 0.0093(3) 0.0120(3) 0.0004(3) 0.0051(2) 0.0011(2)
O3 O2- 0.0106(3) 0.0101(3) 0.0082(3) 0.0000(3) -0.0006(2) 0.0015(2)
O4 O2- 0.0115(3) 0.0097(3) 0.0105(3) -0.0007(3) 0.0033(2) -0.0028(2)
O5 O2- 0.0103(3) 0.0095(3) 0.0082(3) 0.0003(2) 0.0018(2) 0.0000(2)
O6 O2- 0.0143(3) 0.0130(3) 0.0106(3) -0.0037(3) 0.0024(3) 0.0006(3)
O7 O2- 0.0181(4) 0.0163(4) 0.0149(4) -0.0043(3) -0.0011(3) -0.0001(3)
O8 O2- 0.0172(4) 0.0150(4) 0.0162(4) 0.0034(3) 0.0004(3) -0.0031(3)
#End of data_262369-ICSD


