data_4309-ICSD
#?2014 by Fachinformationszentrum Karlsruhe, and the U.S. Secretary of 
#Commerce on behalf of the United States.  All rights reserved.
_database_code_ICSD                4309
_audit_creation_date               1980/01/01
_chemical_name_systematic          'Dipotassium Hexaaquazinc Sulfate'
_chemical_formula_structural       'K2 Zn (H2 O)6 (S O4)2'
_chemical_formula_sum              'H12 K2 O14 S2 Zn1'
_publ_section_title
;
Potassium hexaaquazinc(II) sulfate, H12 K2 O14 S2 Zn
;
loop_
_citation_id
_citation_journal_abbrev
_citation_year
_citation_journal_volume
_citation_page_first
_citation_page_last
_citation_journal_id_ASTM
primary 'Crystal Structure Communications' 1975 4 717 720 CSCMCS
_publ_author_name
;
Whitnall, J.;Kennard, C.H.L.;Nimmo, J.K.;Moore, F.H.
;
_cell_length_a                     9.034(3)
_cell_length_b                     12.184(4)
_cell_length_c                     6.148(2)
_cell_angle_alpha                  90.
_cell_angle_beta                   104.79(1)
_cell_angle_gamma                  90.
_cell_volume                       654.29
_cell_formula_units_Z              2
_symmetry_space_group_name_H-M     'P 1 21/a 1'
_symmetry_Int_Tables_number        14
_refine_ls_R_factor_all            .058
loop_
_symmetry_equiv_pos_site_id
_symmetry_equiv_pos_as_xyz
  1	'x+.5, -y+.5, z'
  2	'-x, -y, -z'
  3	'-x+.5, y+.5, -z'
  4	'x, y, z'
loop_
_atom_type_symbol
_atom_type_oxidation_number
H1+	1
K1+	1
O2-	-2
S6+	6
Zn2+	2
loop_
_atom_site_label
_atom_site_type_symbol
_atom_site_symmetry_multiplicity
_atom_site_Wyckoff_symbol
_atom_site_fract_x
_atom_site_fract_y
_atom_site_fract_z
_atom_site_occupancy
_atom_site_attached_hydrogens
Zn1 Zn2+ 2 a 0 0 0 1. 0 
S1 S6+ 4 e 0.4113(7) 0.1349(5) 0.726(1) 1. 0 
O1 O2- 4 e 0.4086(4) 0.2297(3) 0.5762(6) 1. 0 
O2 O2- 4 e 0.5553(4) 0.0756(4) 0.7522(7) 1. 0 
O3 O2- 4 e 0.2848(4) 0.0614(3) 0.6214(5) 1. 0 
O4 O2- 4 e 0.3948(4) 0.1724(3) 0.9474(5) 1. 0 
O5 O2- 4 e 0.1720(5) 0.1125(3) 0.1686(9) 1. 0 
O6 O2- 4 e -.1704(6) 0.1144(4) 0.0341(7) 1. 0 
O7 O2- 4 e -.0011(5) -.0687(5) 0.3008(6) 1. 0 
K1 K1+ 4 e 0.1352(6) 0.3463(5) 0.3437(9) 1. 0 
H1 H1+ 4 e 0.2193(8) 0.012(5) 0.321(2) 1. 0 
H2 H1+ 4 e 0.2518(9) 0.1256(6) 0.0920(15) 1. 0 
H3 H1+ 4 e -.270(1) 0.0998(5) -.069(1) 1. 0 
H4 H1+ 4 e -.1419(8) 0.1907(7) -.0006(10) 1. 0 
H5 H1+ 4 e -.102(1) -.0586(6) 0.3373(10) 1. 0 
H6 H1+ 4 e 0.0256(7) -.1450(7) 0.3313(10) 1. 0 

#End of data_4309-ICSD


