data_65074-ICSD
#?2014 by Fachinformationszentrum Karlsruhe, and the U.S. Secretary of 
#Commerce on behalf of the United States.  All rights reserved.
_database_code_ICSD                65074
_audit_creation_date               1989/06/19
_audit_update_record               2006/04/01
_chemical_name_systematic          'Potassium Thiocyanate'
_chemical_formula_structural       'K (S C N)'
_chemical_formula_sum              'C1 K1 N1 S1'
_publ_section_title
;
Structure analysis of the phase transition in K S C N
;
loop_
_citation_id
_citation_journal_abbrev
_citation_year
_citation_journal_volume
_citation_page_first
_citation_page_last
_citation_journal_id_ASTM
primary 'Journal of the Physical Society of Japan' 1987 56 4393 4399 JUPSAU
2 'Golden Book of Phase Transitions, Wroclaw' 2002 1 1 123 GBOPT5
_publ_author_name
;
Yamamoto, S.;Sakuno, M.;Shinnaka, Y.
;
_cell_length_a                     6.715(1)
_cell_length_b                     6.699(2)
_cell_length_c                     7.684(2)
_cell_angle_alpha                  90.
_cell_angle_beta                   90.
_cell_angle_gamma                  90.
_cell_volume                       345.66
_cell_formula_units_Z              4
_symmetry_space_group_name_H-M     'P b c m'
_symmetry_Int_Tables_number        57
_refine_ls_R_factor_all            .0415
loop_
_symmetry_equiv_pos_site_id
_symmetry_equiv_pos_as_xyz
  1	'x, -y+.5, z+.5'
  2	'-x, y+.5, z'
  3	'x, y, -z+.5'
  4	'-x, -y, -z'
  5	'-x, y+.5, -z+.5'
  6	'x, -y+.5, -z'
  7	'-x, -y, z+.5'
  8	'x, y, z'
loop_
_atom_type_symbol
_atom_type_oxidation_number
C4+	4
K1+	1
N3-	-3
S2-	-2
loop_
_atom_site_label
_atom_site_type_symbol
_atom_site_symmetry_multiplicity
_atom_site_Wyckoff_symbol
_atom_site_fract_x
_atom_site_fract_y
_atom_site_fract_z
_atom_site_occupancy
_atom_site_attached_hydrogens
K1 K1+ 4 c 0.7891(1) 0.25 0 1. 0 
S1 S2- 4 d 0.3956(1) 0.1076(1) 0.25 1. 0 
N1 N3- 4 d 0.1101(4) 0.4109(4) 0.25 1. 0 
C1 C4+ 4 d 0.2295(4) 0.2859(4) 0.25 1. 0 

#End of data_65074-ICSD


