data_183919-ICSD
#?2014 by Fachinformationszentrum Karlsruhe, and the U.S. Secretary of 
#Commerce on behalf of the United States.  All rights reserved.
_database_code_ICSD                183919
_audit_creation_date               2012/08/01
_chemical_name_systematic          'Calcium Sulfate'
_chemical_formula_structural       'Ca (S O4)'
_chemical_formula_sum              'Ca1 O4 S1'
_chemical_name_mineral             Anhydrite
_publ_section_title
;
Crystal-structure analysis of four mineral samples of anhydrite, Ca 
(S O4), using synchrotron high-resolution powder X-ray diffraction 
data
;
loop_
_citation_id
_citation_journal_abbrev
_citation_year
_citation_journal_volume
_citation_journal_issue
_citation_page_first
_citation_page_last
_citation_journal_id_ASTM
primary 'Powder Diffraction' 2011 26 4 326 330 PODIE2
_publ_author_name                  'Antao, S.M.'
_cell_length_a                     7.00136(3)
_cell_length_b                     6.99339(3)
_cell_length_c                     6.24171(2)
_cell_angle_alpha                  90.
_cell_angle_beta                   90.
_cell_angle_gamma                  90.
_cell_volume                       305.61
_cell_formula_units_Z              4
_symmetry_space_group_name_H-M     'A m m a'
_symmetry_Int_Tables_number        63
_refine_ls_R_factor_all            .0543
loop_
_symmetry_equiv_pos_site_id
_symmetry_equiv_pos_as_xyz
  1	'-x+.5, -y, z'
  2	'x+.5, -y, -z'
  3	'x, -y, z'
  4	'-x, -y, -z'
  5	'x+.5, y, -z'
  6	'-x+.5, y, z'
  7	'-x, y, -z'
  8	'x, y, z'
  9	'-x+.5, -y+.5, z+.5'
 10	'x+.5, -y+.5, -z+.5'
 11	'x, -y+.5, z+.5'
 12	'-x, -y+.5, -z+.5'
 13	'x+.5, y+.5, -z+.5'
 14	'-x+.5, y+.5, z+.5'
 15	'-x, y+.5, -z+.5'
 16	'x, y+.5, z+.5'
loop_
_atom_type_symbol
_atom_type_oxidation_number
Ca2+	2
O2-	-2
S6+	6
loop_
_atom_site_label
_atom_site_type_symbol
_atom_site_symmetry_multiplicity
_atom_site_Wyckoff_symbol
_atom_site_fract_x
_atom_site_fract_y
_atom_site_fract_z
_atom_site_occupancy
_atom_site_attached_hydrogens
_atom_site_U_iso_or_equiv
Ca1 Ca2+ 4 c 0.75 0 0.34631(9) 1. 0 0.0081(1) 
S1 S6+ 4 c 0.25 0 0.1551(1) 1. 0 0.0075(2) 
O1 O2- 8 g 0.25 0.1721(1) 0.0159(1) 1. 0 0.0088(3) 
O2 O2- 8 f 0.0798(2) 0 0.2976(2) 1. 0 0.0091(2) 

#End of data_183919-ICSD


