data_88375-ICSD
#?2014 by Fachinformationszentrum Karlsruhe, and the U.S. Secretary of 
#Commerce on behalf of the United States.  All rights reserved.
_database_code_ICSD                88375
_audit_creation_date               2001/07/16
_audit_update_record               2003/04/01
_chemical_name_systematic          'Sodium Tantalate'
_chemical_formula_structural       'Na (Ta O3)'
_chemical_formula_sum              'Na1 O3 Ta1'
_publ_section_title
;
Powder neutron diffraction study of the high temperature phase 
transitions in Na Ta O3
;
loop_
_citation_id
_citation_journal_abbrev
_citation_year
_citation_journal_volume
_citation_page_first
_citation_page_last
_citation_journal_id_ASTM
primary 'Journal of Physics: Condensed Matter' 1999 11 6319 6327 JCOMEL
2 'Phase Transition' 1992 38 127 220 PHTRDP
_publ_author_name
;
Kennedy, B.J.;Prodjosantoso, A.K.;Howard, C.J.
;
_cell_length_a                     5.4768(1)
_cell_length_b                     5.5212(1)
_cell_length_c                     7.7890(2)
_cell_angle_alpha                  90.
_cell_angle_beta                   90.
_cell_angle_gamma                  90.
_cell_volume                       235.53
_cell_formula_units_Z              4
_symmetry_space_group_name_H-M     'P b n m'
_symmetry_Int_Tables_number        62
_refine_ls_R_factor_all            .024
loop_
_symmetry_equiv_pos_site_id
_symmetry_equiv_pos_as_xyz
  1	'-x+.5, y+.5, z'
  2	'x, y, -z+.5'
  3	'x+.5, -y+.5, z+.5'
  4	'-x, -y, -z'
  5	'x+.5, -y+.5, -z'
  6	'-x, -y, z+.5'
  7	'-x+.5, y+.5, -z+.5'
  8	'x, y, z'
loop_
_atom_type_symbol
_atom_type_oxidation_number
Na1+	1
O2-	-2
Ta5+	5
loop_
_atom_site_label
_atom_site_type_symbol
_atom_site_symmetry_multiplicity
_atom_site_Wyckoff_symbol
_atom_site_fract_x
_atom_site_fract_y
_atom_site_fract_z
_atom_site_occupancy
_atom_site_attached_hydrogens
_atom_site_B_iso_or_equiv
Na1 Na1+ 4 c 0.0023(8) 0.5180(9) 0.25 1. 0 1.1(2) 
Ta1 Ta5+ 4 a 0 0 0 1. 0 0.3(1) 
O1 O2- 4 c -.0616(4) -.0101(5) 0.25 1. 0 0.6(1) 
O2 O2- 8 d 0.2143(3) 0.2845(3) 0.0310(2) 1. 0 0.6(1) 

#End of data_88375-ICSD


