data_50736-ICSD
#?2014 by Fachinformationszentrum Karlsruhe, and the U.S. Secretary of 
#Commerce on behalf of the United States.  All rights reserved.
_database_code_ICSD                50736
_audit_creation_date               2000/07/15
_audit_update_record               2012/08/01
_chemical_name_systematic          'Tristrontium Aluminate Fluoride'
_chemical_formula_structural       'Sr3 (Al O4) F'
_chemical_formula_sum              'Al1 F1 O4 Sr3'
_publ_section_title
;
Sr3 M O4 F (M = Al, Ga) - a new family of ordered oxyfluorides
;
loop_
_citation_id
_citation_journal_abbrev
_citation_year
_citation_journal_volume
_citation_page_first
_citation_page_last
_citation_journal_id_ASTM
primary 'Journal of Solid State Chemistry' 1999 144 228 231 JSSCBI
2 'Journal of Solid State Chemistry' 2003 172 89 94 JSSCBI
_publ_author_name
;
Vogt, T.;Woodward, P.M.;Hunter, B.A.;Prodjosantoso, A.K.;Kennedy, 
B.J.
;
_cell_length_a                     6.78221(9)
_cell_length_b                     6.78221(9)
_cell_length_c                     11.1437(2)
_cell_angle_alpha                  90.
_cell_angle_beta                   90.
_cell_angle_gamma                  90.
_cell_volume                       512.59
_cell_formula_units_Z              4
_symmetry_space_group_name_H-M     'I 4/m c m'
_symmetry_Int_Tables_number        140
loop_
_symmetry_equiv_pos_site_id
_symmetry_equiv_pos_as_xyz
  1	'y, x, -z+.5'
  2	'-y, -x, -z+.5'
  3	'-y, x, -z'
  4	'y, -x, -z'
  5	'x, -y, -z+.5'
  6	'-x, y, -z+.5'
  7	'x, y, -z'
  8	'-x, -y, -z'
  9	'-y, -x, z+.5'
 10	'y, x, z+.5'
 11	'y, -x, z'
 12	'-y, x, z'
 13	'-x, y, z+.5'
 14	'x, -y, z+.5'
 15	'-x, -y, z'
 16	'x, y, z'
 17	'y+.5, x+.5, -z'
 18	'-y+.5, -x+.5, -z'
 19	'-y+.5, x+.5, -z+.5'
 20	'y+.5, -x+.5, -z+.5'
 21	'x+.5, -y+.5, -z'
 22	'-x+.5, y+.5, -z'
 23	'x+.5, y+.5, -z+.5'
 24	'-x+.5, -y+.5, -z+.5'
 25	'-y+.5, -x+.5, z'
 26	'y+.5, x+.5, z'
 27	'y+.5, -x+.5, z+.5'
 28	'-y+.5, x+.5, z+.5'
 29	'-x+.5, y+.5, z'
 30	'x+.5, -y+.5, z'
 31	'-x+.5, -y+.5, z+.5'
 32	'x+.5, y+.5, z+.5'
loop_
_atom_type_symbol
_atom_type_oxidation_number
Al3+	3
F1-	-1
O2-	-2
Sr2+	2
loop_
_atom_site_label
_atom_site_type_symbol
_atom_site_symmetry_multiplicity
_atom_site_Wyckoff_symbol
_atom_site_fract_x
_atom_site_fract_y
_atom_site_fract_z
_atom_site_occupancy
_atom_site_attached_hydrogens
_atom_site_B_iso_or_equiv
Sr1 Sr2+ 4 a 0 0 0.25 1. 0 1.11(5) 
Sr2 Sr2+ 8 h 0.1696(1) 0.6696(1) 0 1. 0 0.77(2) 
Al1 Al3+ 4 b 0 0.5 0.25 1. 0 0.43(7) 
F1 F1- 4 c 0 0 0 1. 0 0.6(2) 
O1 O2- 16 l 0.1418(5) 0.6418(4) 0.6496(3) 1. 0 0.21(9) 

#End of data_50736-ICSD


