data_51262-ICSD
#?2014 by Fachinformationszentrum Karlsruhe, and the U.S. Secretary of 
#Commerce on behalf of the United States.  All rights reserved.
_database_code_ICSD                51262
_audit_creation_date               2002/04/01
_audit_update_record               2011/02/01
_chemical_name_systematic
;
Copper Dicalcium Triniobium Decaoxide Chloride
;
_chemical_formula_structural       '(Cu Cl) Ca2 Nb3 O10'
_chemical_formula_sum              'Ca2 Cl1 Cu1 Nb3 O10'
_publ_section_title
;
Construction of copper halide networks within layered perovskites. 
Synthesis and characterization of new low-temperature copper 
oxyhalides
;
loop_
_citation_id
_citation_journal_abbrev
_citation_year
_citation_journal_volume
_citation_page_first
_citation_page_last
_citation_journal_id_ASTM
primary 'Inorganic Chemistry' 2001 40 710 714 INOCAJ
_publ_author_name
;
Kodenkandath, T.A.;Kumbhar, A.S.;Zhou, W.L.;Wiley, J.B.
;
_cell_length_a                     3.8496(2)
_cell_length_b                     3.8496(2)
_cell_length_c                     15.6593(7)
_cell_angle_alpha                  90.
_cell_angle_beta                   90.
_cell_angle_gamma                  90.
_cell_volume                       232.06
_cell_formula_units_Z              1
_symmetry_space_group_name_H-M     'P 4/m m m'
_symmetry_Int_Tables_number        123
_refine_ls_R_factor_all            .0649
loop_
_symmetry_equiv_pos_site_id
_symmetry_equiv_pos_as_xyz
  1	'y, x, -z'
  2	'-y, -x, -z'
  3	'-y, x, -z'
  4	'y, -x, -z'
  5	'-x, y, -z'
  6	'x, -y, -z'
  7	'x, y, -z'
  8	'-x, -y, -z'
  9	'-y, -x, z'
 10	'y, x, z'
 11	'y, -x, z'
 12	'-y, x, z'
 13	'x, -y, z'
 14	'-x, y, z'
 15	'-x, -y, z'
 16	'x, y, z'
loop_
_atom_type_symbol
_atom_type_oxidation_number
Ca2+	2
Cl1-	-1
Cu2+	2
Nb5+	5
O2-	-2
loop_
_atom_site_label
_atom_site_type_symbol
_atom_site_symmetry_multiplicity
_atom_site_Wyckoff_symbol
_atom_site_fract_x
_atom_site_fract_y
_atom_site_fract_z
_atom_site_occupancy
_atom_site_attached_hydrogens
_atom_site_U_iso_or_equiv
Cu1 Cu2+ 1 b 0 0 0.5 1. 0 0.022(6) 
Cl1 Cl1- 1 d 0.5 0.5 0.5 1. 0 0.165(7) 
Ca1 Ca2+ 2 h 0.5 0.5 0.1424(4) 1. 0 0.0067(5) 
Nb1 Nb5+ 1 a 0 0 0 1. 0 0.0126(6) 
Nb2 Nb5+ 2 g 0 0 0.2695(2) 1. 0 0.0093(1) 
O1 O2- 2 f 0 0.5 0 1. 0 0.0214(3) 
O2 O2- 2 g 0 0 0.124(1) 1. 0 0.0237(1) 
O3 O2- 4 i 0 0.5 0.242(1) 1. 0 0.01879(3) 
O4 O2- 2 g 0 0 0.3727(5) 1. 0 0.0231(5) 

#End of data_51262-ICSD


