data_170805-ICSD
#?2014 by Fachinformationszentrum Karlsruhe, and the U.S. Secretary of 
#Commerce on behalf of the United States.  All rights reserved.
_database_code_ICSD                170805
_audit_creation_date               2006/04/01
_chemical_name_systematic
;
Disodium 1,2,3,4-tetraoxo-5-cyclohexene-5,6-diolate
;
_chemical_formula_structural       'Na2 C6 O6'
_chemical_formula_sum              'C6 Na2 O6'
_publ_section_title
;
Disodium rhodizonte. A powder diffraction study
;
loop_
_citation_id
_citation_journal_abbrev
_citation_year
_citation_journal_volume
_citation_page_first
_citation_page_last
_citation_journal_id_ASTM
primary 'Acta Crystallographica, Section E. Structure Reports Online'
 2005 61 m2148 m2150 ACSEBH
_publ_author_name                  'Dinnebier, R.;Nuss, H.;Jansen, M.'
_cell_length_a                     11.48349(5)
_cell_length_b                     14.32080(6)
_cell_length_c                     7.92477(3)
_cell_angle_alpha                  90.
_cell_angle_beta                   90.
_cell_angle_gamma                  90.
_cell_volume                       1303.25
_cell_formula_units_Z              8
_symmetry_space_group_name_H-M     'F d d d Z'
_symmetry_Int_Tables_number        70
_refine_ls_R_factor_all            .058
loop_
_symmetry_equiv_pos_site_id
_symmetry_equiv_pos_as_xyz
  1	'x+.75, y+.75, -z'
  2	'x+.75, -y, z+.75'
  3	'-x, y+.75, z+.75'
  4	'-x, -y, -z'
  5	'-x+.25, -y+.25, z'
  6	'-x+.25, y, -z+.25'
  7	'x, -y+.25, -z+.25'
  8	'x, y, z'
  9	'x+.75, y+.25, -z+.5'
 10	'x+.25, y+.75, -z+.5'
 11	'x+.25, y+.25, -z'
 12	'x+.75, -y+.5, z+.25'
 13	'x+.25, -y, z+.25'
 14	'x+.25, -y+.5, z+.75'
 15	'-x, y+.25, z+.25'
 16	'-x+.5, y+.75, z+.25'
 17	'-x+.5, y+.25, z+.75'
 18	'-x, -y+.5, -z+.5'
 19	'-x+.5, -y, -z+.5'
 20	'-x+.5, -y+.5, -z'
 21	'-x+.25, -y+.75, z+.5'
 22	'-x+.75, -y+.25, z+.5'
 23	'-x+.75, -y+.75, z'
 24	'-x+.25, y+.5, -z+.75'
 25	'-x+.75, y, -z+.75'
 26	'-x+.75, y+.5, -z+.25'
 27	'x, -y+.75, -z+.75'
 28	'x+.5, -y+.25, -z+.75'
 29	'x+.5, -y+.75, -z+.25'
 30	'x, y+.5, z+.5'
 31	'x+.5, y, z+.5'
 32	'x+.5, y+.5, z'
loop_
_atom_type_symbol
_atom_type_oxidation_number
C1.6667+	1.6667
Na1+	1
O2-	-2
loop_
_atom_site_label
_atom_site_type_symbol
_atom_site_symmetry_multiplicity
_atom_site_Wyckoff_symbol
_atom_site_fract_x
_atom_site_fract_y
_atom_site_fract_z
_atom_site_occupancy
_atom_site_attached_hydrogens
_atom_site_U_iso_or_equiv
Na1 Na1+ 16 e 0.47634(6) 0.125 0.125 1.0 0 0.0268(3) 
C1 C1.6667+ 16 f 0.125 0.22737(11) 0.125 1.0 0 0.0181(6) 
C2 C1.6667+ 32 h 0.12995(16) 0.17552(8) 0.28431(12) 1.0 0 0.0214(4) 
O1 O2- 16 f 0.125 -0.06472(8) 0.125 1.0 0 0.0270(4) 
O2 O2- 32 h 0.14364(7) 0.03213(5) -0.17135(9) 1.0 0 0.0274(3) 

#End of data_170805-ICSD


