data_190595-ICSD
#?2014 by Fachinformationszentrum Karlsruhe, and the U.S. Secretary of 
#Commerce on behalf of the United States.  All rights reserved.
_database_code_ICSD                190595
_audit_creation_date               2014/08/01
_chemical_name_systematic
;
Distrontium Zinc Tungsten Hexaoxide
;
_chemical_formula_structural       'Sr2 Zn W O6'
_chemical_formula_sum              'O6 Sr2 W1 Zn1'
_publ_section_title
;
X - ray powder diffraction results for the phase transitions in Sr2 M 
W O6 (M = Ni, Zn, Co, Cu) double perovskite oxides
;
loop_
_citation_id
_citation_journal_abbrev
_citation_year
_citation_journal_volume
_citation_journal_issue
_citation_page_first
_citation_page_last
_citation_journal_id_ASTM
primary 'Journal of Physics: Condensed Matter' 2003 15 36 6199 6217 JCOMEL
_publ_author_name
;
Gateshki, M.;Igartua, J.M.;Hernandez-Bocanegra, E.
;
_cell_length_a                     5.6312(1)
_cell_length_b                     5.0063(1)
_cell_length_c                     7.9222(1)
_cell_angle_alpha                  90.
_cell_angle_beta                   89.958(1)
_cell_angle_gamma                  90.
_cell_volume                       223.34
_cell_formula_units_Z              2
_symmetry_space_group_name_H-M     'P 1 21/n 1'
_symmetry_Int_Tables_number        14
_refine_ls_R_factor_all            .0454
loop_
_symmetry_equiv_pos_site_id
_symmetry_equiv_pos_as_xyz
  1	'-x+.5, y+.5, -z+.5'
  2	'-x, -y, -z'
  3	'x+.5, -y+.5, z+.5'
  4	'x, y, z'
loop_
_atom_type_symbol
_atom_type_oxidation_number
O2-	-2
Sr2+	2
W6+	6
Zn2+	2
loop_
_atom_site_label
_atom_site_type_symbol
_atom_site_symmetry_multiplicity
_atom_site_Wyckoff_symbol
_atom_site_fract_x
_atom_site_fract_y
_atom_site_fract_z
_atom_site_occupancy
_atom_site_attached_hydrogens
_atom_site_B_iso_or_equiv
W1 W6+ 2 a 0 0 0 1. 0 0.12(1) 
Zn1 Zn2+ 2 b 0 0 0.5 1. 0 0.37(1) 
Sr1 Sr2+ 4 e -0.0020(4) 0.5084(1) 0.2503(1) 1. 0 0.54(1) 
O1 O2- 4 e 0.045(1) -0.008(1) 0.236(1) 1. 0 0.45(6) 
O2 O2- 4 e -0.220(1) 0.261(1) 0.028(2) 1. 0 0.45(6) 
O3 O2- 4 e 0.251(1) 0.220(1) -0.021(2) 1. 0 0.45(6) 

#End of data_190595-ICSD


