data_84225-ICSD
#?2014 by Fachinformationszentrum Karlsruhe, and the U.S. Secretary of 
#Commerce on behalf of the United States.  All rights reserved.
_database_code_ICSD                84225
_audit_creation_date               1999/01/19
_audit_update_record               2000/07/15
_chemical_name_systematic          'Zinc Calcium Tellurate (1.5/1.5/1)'
_chemical_formula_structural       '(Zn1.5 Ca1.5) (Te O6)'
_chemical_formula_sum              'Ca1.5 O6 Te1 Zn1.5'
_chemical_name_mineral             Yafsoanite
_publ_section_title
;
Crystal structure of a zinc calcium tellurate - yafsoanite
;
loop_
_citation_id
_citation_journal_abbrev
_citation_year
_citation_journal_volume
_citation_journal_issue
_citation_page_first
_citation_page_last
_citation_journal_id_ASTM
primary 'Mineralogiceskij Zhurnal' 1984 6 2 75 79 MINZDR
_publ_author_name
;
Rozhdestvenskaya, I.V.;Zayakina, N.V.;Kim, A.A.
;
_cell_length_a                     12.621(5)
_cell_length_b                     12.621(5)
_cell_length_c                     12.621(5)
_cell_angle_alpha                  90.
_cell_angle_beta                   90.
_cell_angle_gamma                  90.
_cell_volume                       2010.39
_cell_formula_units_Z              16
_symmetry_space_group_name_H-M     'I 41 3 2'
_symmetry_Int_Tables_number        214
_refine_ls_R_factor_all            .049
loop_
_symmetry_equiv_pos_site_id
_symmetry_equiv_pos_as_xyz
  1	'y+.25, x+.75, -z+.75'
  2	'-y+.75, x+.25, z+.75'
  3	'y+.75, -x+.75, z+.25'
  4	'-y+.25, -x+.25, -z+.25'
  5	'z+.5, -x+.5, -y'
  6	'-z+.5, -x, y+.5'
  7	'-z, x+.5, -y+.5'
  8	'z, x, y'
  9	'-z+.75, y+.25, x+.75'
 10	'z+.75, -y+.75, x+.25'
 11	'z+.25, y+.75, -x+.75'
 12	'-z+.25, -y+.25, -x+.25'
 13	'-y, z+.5, -x+.5'
 14	'y+.5, -z+.5, -x'
 15	'-y+.5, -z, x+.5'
 16	'y, z, x'
 17	'x+.75, -z+.75, y+.25'
 18	'x+.25, z+.75, -y+.75'
 19	'-x+.75, z+.25, y+.75'
 20	'-x+.25, -z+.25, -y+.25'
 21	'-x+.5, -y, z+.5'
 22	'-x, y+.5, -z+.5'
 23	'x+.5, -y+.5, -z'
 24	'x, y, z'
 25	'y+.75, x+.25, -z+.25'
 26	'-y+.25, x+.75, z+.25'
 27	'y+.25, -x+.25, z+.75'
 28	'-y+.75, -x+.75, -z+.75'
 29	'z, -x, -y+.5'
 30	'-z, -x+.5, y'
 31	'-z+.5, x, -y'
 32	'z+.5, x+.5, y+.5'
 33	'-z+.25, y+.75, x+.25'
 34	'z+.25, -y+.25, x+.75'
 35	'z+.75, y+.25, -x+.25'
 36	'-z+.75, -y+.75, -x+.75'
 37	'-y+.5, z, -x'
 38	'y, -z, -x+.5'
 39	'-y, -z+.5, x'
 40	'y+.5, z+.5, x+.5'
 41	'x+.25, -z+.25, y+.75'
 42	'x+.75, z+.25, -y+.25'
 43	'-x+.25, z+.75, y+.25'
 44	'-x+.75, -z+.75, -y+.75'
 45	'-x, -y+.5, z'
 46	'-x+.5, y, -z'
 47	'x, -y, -z+.5'
 48	'x+.5, y+.5, z+.5'
loop_
_atom_type_symbol
_atom_type_oxidation_number
Ca2+	2
O2-	-2
Te6+	6
Zn2+	2
loop_
_atom_site_label
_atom_site_type_symbol
_atom_site_symmetry_multiplicity
_atom_site_Wyckoff_symbol
_atom_site_fract_x
_atom_site_fract_y
_atom_site_fract_z
_atom_site_occupancy
_atom_site_attached_hydrogens
_atom_site_B_iso_or_equiv
Te1 Te6+ 16 e 0.00443(2) 0.00443(2) 0.00443(2) 1. 0 0.7(1) 
Zn1 Zn2+ 24 f 0 0.25 0.375 1. 0 0 
Ca1 Ca2+ 12 c 0 0.25 0.125 1. 0 0 
Ca2 Ca2+ 12 d 0.625 0 0.25 1. 0 0 
O1 O2- 48 i 0.1398(33) -.026 0.039 1. 0 0 
O2 O2- 48 i 0.8575(40) 0.031 -.059 1. 0 0 

loop_
_atom_site_aniso_label
_atom_site_aniso_type_symbol
_atom_site_aniso_B_11
_atom_site_aniso_B_22
_atom_site_aniso_B_33
_atom_site_aniso_B_12
_atom_site_aniso_B_13
_atom_site_aniso_B_23
Zn1 Zn2+ 0.58(12) 0.58(12) 1.58(21) -.11(54) 0 0
Ca1 Ca2+ 0.33(14) 0.33(14) 0.59(20) 1.07(45) 0 0
O1 O2- 0.25(75) 1.73(98) 0.560(12) -.48(76) -.40(68) 0.16(68)
O2 O2- 0.980(11) 1.34(84) 1.080(11) 0.49(92) 0.01(82) 0.25(83)
#End of data_84225-ICSD


