data_20405-ICSD
#?2014 by Fachinformationszentrum Karlsruhe, and the U.S. Secretary of 
#Commerce on behalf of the United States.  All rights reserved.
_database_code_ICSD                20405
_audit_creation_date               1981/12/31
_audit_update_record               2014/08/01
_chemical_name_systematic          'Disodium Zirconium Tungstate'
_chemical_formula_structural       'Na2 Zr W3 O12'
_chemical_formula_sum              'Na2 O12 W3 Zr1'
_publ_section_title
;
The combination of the Wolframite's and Scheelite's motives in the 
crystal structure of sodium and zirconium tungstate Na2 Zr W3 O12 = 
Na2 Zr W2 O8 (W O4)
;
loop_
_citation_id
_citation_journal_abbrev
_citation_year
_citation_journal_volume
_citation_page_first
_citation_page_last
_citation_journal_id_ASTM
primary 'Zhurnal Strukturnoi Khimii (Issue-No. from 1981)'
 1981 22 6 11 ZSTKAI
_publ_author_name
;
Klevtsova, R.F.;Bakakin, V.V.;Solodovnikov, S.F.;Glinskaya, L.A.
;
_cell_length_a                     5.040(2)
_cell_length_b                     5.040(2)
_cell_length_c                     36.743(11)
_cell_angle_alpha                  90.
_cell_angle_beta                   90.
_cell_angle_gamma                  90.
_cell_volume                       933.33
_cell_formula_units_Z              4
_symmetry_space_group_name_H-M     'I 41'
_symmetry_Int_Tables_number        80
_refine_ls_R_factor_all            .063
loop_
_symmetry_equiv_pos_site_id
_symmetry_equiv_pos_as_xyz
  1	'y, -x+.5, z+.25'
  2	'-y, x+.5, z+.25'
  3	'-x, -y, z'
  4	'x, y, z'
  5	'y+.5, -x, z+.75'
  6	'-y+.5, x, z+.75'
  7	'-x+.5, -y+.5, z+.5'
  8	'x+.5, y+.5, z+.5'
loop_
_atom_type_symbol
_atom_type_oxidation_number
Na1+	1
O2-	-2
W6+	6
Zr4+	4
loop_
_atom_site_label
_atom_site_type_symbol
_atom_site_symmetry_multiplicity
_atom_site_Wyckoff_symbol
_atom_site_fract_x
_atom_site_fract_y
_atom_site_fract_z
_atom_site_occupancy
_atom_site_attached_hydrogens
_atom_site_B_iso_or_equiv
W1 W6+ 4 a 0.5 0.5 0.5 1. 0 0.6 
W2 W6+ 4 a 0.5 0.5 0.3466(2) 1. 0 0.4 
W3 W6+ 4 a 0 0.5 0.4040(1) 1. 0 0.6 
Zr1 Zr4+ 4 a 0.5 0 0.4279(2) 1. 0 0.7 
Na1 Na1+ 4 a 0 0 0.4922(5) 1. 0 1.5 
Na2 Na1+ 4 a 0 0 0.3257(13) 1. 0 3.6 
O1 O2- 8 b 0.758(9) 0.358(9) 0.527(1) 1. 0 1.1 
O2 O2- 8 b 0.357(9) 0.238(9) 0.474(1) 1. 0 1.9 
O3 O2- 8 b 0.312(7) 0.263(7) 0.394(1) 1. 0 1.7 
O4 O2- 8 b 0.374(8) 0.278(8) 0.314(1) 1. 0 2.6 
O5 O2- 8 b 0.203(5) 0.685(5) 0.361(1) 1. 0 0.6 
O6 O2- 8 b 0.828(5) 0.248(5) 0.432(1) 1. 0 0.6 

#End of data_20405-ICSD


