data_411491-ICSD
#?2014 by Fachinformationszentrum Karlsruhe, and the U.S. Secretary of 
#Commerce on behalf of the United States.  All rights reserved.
_database_code_ICSD                411491
_audit_creation_date               2002/10/01
_chemical_name_systematic
;
Disodium Dicesium Tricopper Bis(diphosphate(V)) Dichloride
;
_chemical_formula_structural       'Na2 Cs2 Cu3 (P2 O7)2 Cl2'
_chemical_formula_sum              'Cl2 Cs2 Cu3 Na2 O14 P4'
_publ_section_title
;
High-temperature synthesis of an open-framework compound, Na2 Cs2 Cu3 
(P2 O7)2 Cl2 (CU-4), by molten-salt methods
;
loop_
_citation_id
_citation_journal_abbrev
_citation_year
_citation_journal_volume
_citation_journal_issue
_citation_page_first
_citation_page_last
_citation_journal_id_ASTM
primary 'Angewandte Chemie. International Edition' 2000 40 9 1690 1693 ACIEF5
_publ_author_name                  'Huang, Q.;Hwu, S.-J.;Mo, X.-H.'
_cell_length_a                     15.868(2)
_cell_length_b                     15.868(2)
_cell_length_c                     13.238(2)
_cell_angle_alpha                  90.
_cell_angle_beta                   90.
_cell_angle_gamma                  90.
_cell_volume                       3333.24
_cell_formula_units_Z              8
_symmetry_space_group_name_H-M     'P 42/m n m'
_symmetry_Int_Tables_number        136
_refine_ls_R_factor_all            .0432
loop_
_symmetry_equiv_pos_site_id
_symmetry_equiv_pos_as_xyz
  1	'-y+.5, x+.5, -z+.5'
  2	'y+.5, -x+.5, -z+.5'
  3	'y, x, -z'
  4	'-y, -x, -z'
  5	'y+.5, -x+.5, z+.5'
  6	'-y+.5, x+.5, z+.5'
  7	'-y, -x, z'
  8	'y, x, z'
  9	'x+.5, -y+.5, -z+.5'
 10	'-x+.5, y+.5, -z+.5'
 11	'x, y, -z'
 12	'-x, -y, -z'
 13	'-x+.5, y+.5, z+.5'
 14	'x+.5, -y+.5, z+.5'
 15	'-x, -y, z'
 16	'x, y, z'
loop_
_atom_type_symbol
_atom_type_oxidation_number
Cl1-	-1
Cs1+	1
Cu2+	2
Na1+	1
O2-	-2
P5+	5
loop_
_atom_site_label
_atom_site_type_symbol
_atom_site_symmetry_multiplicity
_atom_site_Wyckoff_symbol
_atom_site_fract_x
_atom_site_fract_y
_atom_site_fract_z
_atom_site_occupancy
_atom_site_attached_hydrogens
Cs1 Cs1+ 4 c 0 0.5 0 1. 0 
Cs2 Cs1+ 8 j 0.5843(1) 0.4157(1) 0.2371(1) 1. 0 
Cs3 Cs1+ 4 f 0.2030(1) 0.2030(1) 0 1. 0 
Cu1 Cu2+ 16 k 0.6013(1) 0.1477(1) 0.2247(1) 1. 0 
Cu2 Cu2+ 4 f 0.3912(1) 0.3912(1) 0 1. 0 
Cu3 Cu2+ 4 g 0.8843(1) 0.1157(1) 0 1. 0 
Cl1 Cl1- 4 d 0.5 0 0.25 1. 0 
Cl2 Cl1- 8 j 0.7191(1) 0.2809(1) 0.1471(1) 1. 0 
Cl3 Cl1- 2 a 0 0 0 1. 0 
Cl4 Cl1- 2 b 0.5 0.5 0 1. 0 
P1 P5+ 16 k 0.4393(1) 0.2246(1) -.1089(1) 1. 0 
P2 P5+ 16 k 0.2697(1) -.0214(1) -.1095(1) 1. 0 
Na1 Na1+ 8 i -.1952(2) 0.3640(1) 0 1. 0 
Na2 Na1+ 8 j 0.3288(1) 0.3288(1) -.2605(2) 1. 0 
O1 O2- 16 k 0.3198(2) 0.4411(2) 0.1076(2) 1. 0 
O2 O2- 8 i 0.4020(3) 0.1949(3) 0 1. 0 
O3 O2- 16 k 0.7708(2) 0.4484(2) 0.3180(2) 1. 0 
O4 O2- 16 k 0.5246(2) 0.1832(2) 0.1167(2) 1. 0 
O5 O2- 16 k 0.4344(2) 0.3155(2) 0.3906(2) 1. 0 
O6 O2- 16 k 0.6940(2) 0.1263(2) 0.3167(2) 1. 0 
O7 O2- 16 k 0.6566(2) 0.0813(2) 0.1174(2) 1. 0 
O8 O2- 8 i 0.2796(2) 0.0226(3) 0 1. 0 

loop_
_atom_site_aniso_label
_atom_site_aniso_type_symbol
_atom_site_aniso_U_11
_atom_site_aniso_U_22
_atom_site_aniso_U_33
_atom_site_aniso_U_12
_atom_site_aniso_U_13
_atom_site_aniso_U_23
Cs1 Cs1+ 0.020(1) 0.020(1) 0.012(1) -.004(1) 0 0
Cs2 Cs1+ 0.025(1) 0.025(1) 0.038(1) -.001(1) -.001(1) 0.001(1)
Cs3 Cs1+ 0.021(1) 0.021(1) 0.160(1) 0.005(1) 0 0
Cu1 Cu2+ 0.014(1) 0.018(1) 0.007(1) 0.006(1) -.001(1) -.001(1)
Cu2 Cu2+ 0.011(1) 0.011(1) 0.008(1) 0.001(1) 0 0
Cu3 Cu2+ 0.012(1) 0.012(1) 0.007(1) -.004(1) 0 0
Cl1 Cl1- 0.028(1) 0.028(1) 0.012(1) 0 0 0
Cl2 Cl1- 0.022(1) 0.022(1) 0.019(1) -.002(1) -.002(1) 0.002(1)
Cl3 Cl1- 0.055(2) 0.055(2) 0.047(3) 0.044(3) 0 0
Cl4 Cl1- 0.026(1) 0.026(1) 0.030(2) -.016(2) 0 0
P1 P5+ 0.011(1) 0.010(1) 0.006(1) 0.001(1) 0.000(1) -.001(1)
P2 P5+ 0.010(1) 0.010(1) 0.008(1) -.001(1) 0.000(1) 0.000(1)
Na1 Na1+ 0.022(2) 0.021(2) 0.009(1) -.001(1) 0 0
Na2 Na1+ 0.020(1) 0.020(1) 0.016(1) 0.004(1) 0.002(1) 0.002(1)
O1 O2- 0.015(2) 0.023(2) 0.012(1) -.002(1) -.002(1) -.004(1)
O2 O2- 0.010(3) 0.015(3) 0.008(2) -.003(2) 0 0
O3 O2- 0.018(2) 0.014(2) 0.011(1) 0.000(1) 0.000(1) -.008(1)
O4 O2- 0.014(2) 0.024(2) 0.009(1) 0.005(1) 0.000(1) 0.000(1)
O5 O2- 0.020(2) 0.019(2) 0.011(1) 0.005(1) -.001(1) -.002(1)
O6 O2- 0.017(2) 0.016(2) 0.010(1) -.001(1) -.001(1) 0.005(1)
O7 O2- 0.014(2) 0.018(2) 0.011(1) 0.006(1) -.001(1) -.003(1)
O8 O2- 0.015(3) 0.006(2) 0.009(2) -.002(2) 0 0
#End of data_411491-ICSD


