data_73957-ICSD
#?2014 by Fachinformationszentrum Karlsruhe, and the U.S. Secretary of 
#Commerce on behalf of the United States.  All rights reserved.
_database_code_ICSD                73957
_audit_creation_date               1995/01/10
_audit_update_record               2003/10/01
_chemical_name_systematic
;
Potassium Dicopper(I) Tantalum Selenide
;
_chemical_formula_structural       'K Cu2 Ta Se4'
_chemical_formula_sum              'Cu2 K1 Se4 Ta1'
_publ_section_title
;
Synthesis and characterization of Cu3 Nb Se4 and K Cu2 Ta Se4
;
loop_
_citation_id
_citation_journal_abbrev
_citation_year
_citation_journal_volume
_citation_page_first
_citation_page_last
_citation_journal_id_ASTM
primary 'Journal of Solid State Chemistry' 1993 107 58 62 JSSCBI
_publ_author_name                  'Lu, Y.-J.;Ibers, J.A.'
_cell_length_a                     5.660(1)
_cell_length_b                     18.829(4)
_cell_length_c                     7.662(2)
_cell_angle_alpha                  90.
_cell_angle_beta                   90.04(3)
_cell_angle_gamma                  90.
_cell_volume                       816.56
_cell_formula_units_Z              4
_symmetry_space_group_name_H-M     'C 1 c 1'
_symmetry_Int_Tables_number        9
_refine_ls_R_factor_all            .03
loop_
_symmetry_equiv_pos_site_id
_symmetry_equiv_pos_as_xyz
  1	'x, -y, z+.5'
  2	'x, y, z'
  3	'x+.5, -y+.5, z+.5'
  4	'x+.5, y+.5, z'
loop_
_atom_type_symbol
_atom_type_oxidation_number
Cu1+	1
K1+	1
Se2-	-2
Ta5+	5
loop_
_atom_site_label
_atom_site_type_symbol
_atom_site_symmetry_multiplicity
_atom_site_Wyckoff_symbol
_atom_site_fract_x
_atom_site_fract_y
_atom_site_fract_z
_atom_site_occupancy
_atom_site_attached_hydrogens
_atom_site_U_iso_or_equiv
Ta1 Ta5+ 4 a 0.1389 0.11048(1) 0.9056 1. 0 0.0066(1) 
Se1 Se2- 4 a 0.3859(2) 0.00369(3) 0.9057(2) 1. 0 0.0076(3) 
Se2 Se2- 4 a 0.3866(2) 0.21335(4) 0.9058(2) 1. 0 0.0151(3) 
Se3 Se2- 4 a 0.8928(2) 0.10951(5) 0.1629(1) 1. 0 0.0098(3) 
Se4 Se2- 4 a 0.8928(2) 0.10954(5) 0.6484(1) 1. 0 0.0099(3) 
Cu1 Cu1+ 4 a 0.6387(4) 0.10805(4) 0.9057(3) 1. 0 0.0104(3) 
Cu2 Cu1+ 4 a 0.1185(3) 0.00005(9) 0.1556(2) 1. 0 0.0103(4) 
K1 K1+ 4 a 0.8822(4) 0.68254(9) 0.4059(3) 1. 0 0.0215(7) 

#End of data_73957-ICSD


