data_31236-ICSD
#?2014 by Fachinformationszentrum Karlsruhe, and the U.S. Secretary of 
#Commerce on behalf of the United States.  All rights reserved.
_database_code_ICSD                31236
_audit_creation_date               1983/12/31
_audit_update_record               2006/04/01
_chemical_name_systematic          'Dicalcium Cobalt Disilicate'
_chemical_formula_structural       'Ca2 Co (Si2 O7)'
_chemical_formula_sum              'Ca2 Co1 O7 Si2'
_chemical_name_mineral             Akermanite-(Co)
_publ_section_title
;
The crystal structure and stability of Co-akermanite, Ca2 Co Si2 O7, 
compared with the mineralogical behaviour of Mg cation
;
loop_
_citation_id
_citation_journal_abbrev
_citation_year
_citation_journal_volume
_citation_page_first
_citation_page_last
_citation_journal_id_ASTM
primary 'Neues Jahrbuch fuer Mineralogie. Abhandlungen (Band-Nr) (1950-)'
 1983 146 221 241 NJMIAK
2 Naturwissenschaften 1982 69 40 41 NATWAY
_publ_author_name                  'Kimata, M.'
_cell_length_a                     7.8258(4)
_cell_length_b                     7.8258(4)
_cell_length_c                     5.0148(5)
_cell_angle_alpha                  90.
_cell_angle_beta                   90.
_cell_angle_gamma                  90.
_cell_volume                       307.12
_cell_formula_units_Z              2
_symmetry_space_group_name_H-M     'P -4 21 m'
_symmetry_Int_Tables_number        113
_refine_ls_R_factor_all            .045
loop_
_symmetry_equiv_pos_site_id
_symmetry_equiv_pos_as_xyz
  1	'-y+.5, -x+.5, z'
  2	'y, -x, -z'
  3	'y+.5, x+.5, z'
  4	'-y, x, -z'
  5	'x+.5, -y+.5, -z'
  6	'-x, -y, z'
  7	'-x+.5, y+.5, -z'
  8	'x, y, z'
loop_
_atom_type_symbol
_atom_type_oxidation_number
Ca2+	2
Co2+	2
O2-	-2
Si4+	4
loop_
_atom_site_label
_atom_site_type_symbol
_atom_site_symmetry_multiplicity
_atom_site_Wyckoff_symbol
_atom_site_fract_x
_atom_site_fract_y
_atom_site_fract_z
_atom_site_occupancy
_atom_site_attached_hydrogens
Ca1 Ca2+ 4 e 0.3307(1) 0.1693 0.5064(4) 1. 0 
Co1 Co2+ 2 a 0 0 0 1. 0 
Si1 Si4+ 4 e 0.1388(2) 0.3612 0.9382(4) 1. 0 
O1 O2- 2 c 0.5 0 0.1745(17) 1. 0 
O2 O2- 4 e 0.1395(6) 0.3605 0.2542(11) 1. 0 
O3 O2- 8 f 0.0807(8) 0.1892(7) 0.7890(9) 1. 0 

#End of data_31236-ICSD


