data_62037-ICSD
#?2014 by Fachinformationszentrum Karlsruhe, and the U.S. Secretary of 
#Commerce on behalf of the United States.  All rights reserved.
_database_code_ICSD                62037
_audit_creation_date               1988/02/22
_chemical_name_systematic
;
Cadmium Bis(aluminium Tetrachloride)
;
_chemical_formula_structural       'Cd (Al Cl4)2'
_chemical_formula_sum              'Al2 Cd1 Cl8'
_publ_section_title
;
Synthesis and Crystal Structures of Cd(AlCl4)2 and Cd2(AlCl4)2
;
loop_
_citation_id
_citation_journal_abbrev
_citation_year
_citation_journal_volume
_citation_page_first
_citation_page_last
_citation_journal_id_ASTM
primary 'Zeitschrift fuer Anorganische und Allgemeine Chemie (1950) (DE)'
 1987 548 45 54 ZAACAB
_publ_author_name                  'Staffel, T.;Meyer, G.'
_cell_length_a                     12.887(2)
_cell_length_b                     6.602(1)
_cell_length_c                     7.051(1)
_cell_angle_alpha                  90.
_cell_angle_beta                   92.89(1)
_cell_angle_gamma                  90.
_cell_volume                       599.14
_cell_formula_units_Z              2
_symmetry_space_group_name_H-M     'P 1 a 1'
_symmetry_Int_Tables_number        7
_refine_ls_R_factor_all            .052
loop_
_symmetry_equiv_pos_site_id
_symmetry_equiv_pos_as_xyz
  1	'x+.5, -y, z'
  2	'x, y, z'
loop_
_atom_type_symbol
_atom_type_oxidation_number
Al3+	3
Cd2+	2
Cl1-	-1
loop_
_atom_site_label
_atom_site_type_symbol
_atom_site_symmetry_multiplicity
_atom_site_Wyckoff_symbol
_atom_site_fract_x
_atom_site_fract_y
_atom_site_fract_z
_atom_site_occupancy
_atom_site_attached_hydrogens
Cd1 Cd2+ 2 a 0 0.2527(1) 0 1. 0 
Al1 Al3+ 2 a 0.5426(2) 0.9348(5) 0.5641(4) 1. 0 
Al2 Al3+ 2 a 0.7414(2) 0.5666(4) 0.1495(5) 1. 0 
Cl1 Cl1- 2 a 0.5596(2) 0.6246(4) 0.6576(4) 1. 0 
Cl2 Cl1- 2 a 0.4453(2) 0.9430(5) 0.3002(4) 1. 0 
Cl3 Cl1- 2 a 0.5883(2) 0.4294(4) 0.1563(4) 1. 0 
Cl4 Cl1- 2 a 0.4534(2) 0.0627(4) 0.7862(4) 1. 0 
Cl5 Cl1- 2 a 0.2011(2) 0.1320(4) 0.0524(5) 1. 0 
Cl6 Cl1- 2 a 0.3265(2) 0.4408(5) 0.4040(5) 1. 0 
Cl7 Cl1- 2 a 0.3192(2) 0.5826(5) 0.9240(5) 1. 0 
Cl8 Cl1- 2 a 0.6816(2) 0.0846(5) 0.5371(5) 1. 0 

loop_
_atom_site_aniso_label
_atom_site_aniso_type_symbol
_atom_site_aniso_U_11
_atom_site_aniso_U_22
_atom_site_aniso_U_33
_atom_site_aniso_U_12
_atom_site_aniso_U_13
_atom_site_aniso_U_23
Cd1 Cd2+ 0.0250(2) 0.0362(3) 0.0253(2) -.0028(4) -.0002(2) -.0036(4)
Al1 Al3+ 0.0293(14) 0.0327(15) 0.0201(14) 0.0021(11) -.0029(12) -.0010(12)
Al2 Al3+ 0.0204(13) 0.0330(16) 0.0325(16) 0.0038(12) -.0036(12) 0.0011(13)
Cl1 Cl1- 0.0442(15) 0.0338(15) 0.0225(13) 0.0027(11) 0.0007(11) -.0019(11)
Cl2 Cl1- 0.0362(13) 0.0456(16) 0.0253(13) 0.0077(12) -.0027(10) 0.0012(12)
Cl3 Cl1- 0.0252(12) 0.0359(13) 0.0499(16) -.0019(10) 0.0004(11) 0.0122(13)
Cl4 Cl1- 0.0481(16) 0.0370(13) 0.0275(13) 0.0141(12) 0.0064(11) 0.0017(11)
Cl5 Cl1- 0.0278(12) 0.0298(13) 0.0499(18) 0.0027(11) -.0039(12) -.0045(13)
Cl6 Cl1- 0.0437(16) 0.0518(18) 0.0366(16) -.0040(14) -.0151(12) -.0014(14)
Cl7 Cl1- 0.0328(14) 0.0617(20) 0.0344(15) -.0171(13) -.0026(12) 0.0057(14)
Cl8 Cl1- 0.0421(17) 0.060(2) 0.0459(18) -.0174(14) -.0008(14) 0.0103(16)
#End of data_62037-ICSD


