data_33869-ICSD
#?2014 by Fachinformationszentrum Karlsruhe, and the U.S. Secretary of 
#Commerce on behalf of the United States.  All rights reserved.
_database_code_ICSD                33869
_audit_creation_date               1992/01/20
_chemical_name_systematic          'Dicesium Trisodium Tetraoxoindate'
_chemical_formula_structural       'Cs2 Na3 (In O4)'
_chemical_formula_sum              'Cs2 In1 Na3 O4'
_publ_section_title
;
Neue Vertreter des A2A3'(MO4)-Typs: Rb2Na3(InO4), Cs2Na3(InO4) und 
Cs2Na3(TlO4)
;
loop_
_citation_id
_citation_journal_abbrev
_citation_year
_citation_journal_volume
_citation_page_first
_citation_page_last
_citation_journal_id_ASTM
primary 'Zeitschrift fuer Anorganische und Allgemeine Chemie (1950) (DE)'
 1991 595 95 114 ZAACAB
_publ_author_name                  'Glaum, H.;Hoppe, R.'
_cell_length_a                     6.348
_cell_length_b                     10.267
_cell_length_c                     12.546
_cell_angle_alpha                  90.
_cell_angle_beta                   111.52
_cell_angle_gamma                  90.
_cell_volume                       760.68
_cell_formula_units_Z              4
_symmetry_space_group_name_H-M     'P 1 21/c 1'
_symmetry_Int_Tables_number        14
_refine_ls_R_factor_all            .055
loop_
_symmetry_equiv_pos_site_id
_symmetry_equiv_pos_as_xyz
  1	'x, -y+.5, z+.5'
  2	'-x, -y, -z'
  3	'-x, y+.5, -z+.5'
  4	'x, y, z'
loop_
_atom_type_symbol
_atom_type_oxidation_number
Cs1+	1
In3+	3
Na1+	1
O2-	-2
loop_
_atom_site_label
_atom_site_type_symbol
_atom_site_symmetry_multiplicity
_atom_site_Wyckoff_symbol
_atom_site_fract_x
_atom_site_fract_y
_atom_site_fract_z
_atom_site_occupancy
_atom_site_attached_hydrogens
In1 In3+ 4 e 0.8965(1) 0.7838(1) 0.5645(1) 1. 0 
Cs1 Cs1+ 4 e 0.7168(1) 0.2742(1) 0.6072(1) 1. 0 
Cs2 Cs1+ 4 e 0.7233(1) 0.4977(1) 0.3648 1. 0 
Na1 Na1+ 4 e 0.6086(5) 0.7447(3) 0.2019(3) 1. 0 
Na2 Na1+ 4 e 0.9118(5) 0.9700(3) 0.2948(3) 1. 0 
Na3 Na1+ 4 e 0.3629(5) 0.5123(3) 0.0683(3) 1. 0 
O1 O2- 4 e 0.2382(9) 0.6832(6) 0.1490(5) 1. 0 
O2 O2- 4 e 0.7784(9) 0.8091(6) 0.3881(4) 1. 0 
O3 O2- 4 e 0.7863(9) 0.8911(6) 0.1076(5) 1. 0 
O4 O2- 4 e 0.7383(9) 0.9335(6) 0.6213(5) 1. 0 

loop_
_atom_site_aniso_label
_atom_site_aniso_type_symbol
_atom_site_aniso_U_11
_atom_site_aniso_U_22
_atom_site_aniso_U_33
_atom_site_aniso_U_12
_atom_site_aniso_U_13
_atom_site_aniso_U_23
In1 In3+ 0.0118(2) 0.0161(3) 0.0151(2) 0.0007(2) 0.0064(2) 0.0004(2)
Cs1 Cs1+ 0.0273(3) 0.0425(4) 0.0292(3) -.0011(3) 0.0152(2) -.0042(3)
Cs2 Cs1+ 0.0303(3) 0.0226(3) 0.0303(3) 0.0011(2) 0.0087(2) 0.0012(2)
Na1 Na1+ 0.0135(14) 0.0198(16) 0.0183(12) -.0025(12) 0.0076(13) -.0023(12)
Na2 Na1+ 0.0166(15) 0.0240(17) 0.0192(16) -.0045(13) 0.0075(13) -.0013(12)
Na3 Na1+ 0.0141(15) 0.0229(17) 0.0191(15) -.0034(13) 0.0078(13) -.0060(13)
O1 O2- 0.0104(25) 0.0236(30) 0.0219(28) -.0007(21) 0.0072(22) -.0039(22)
O2 O2- 0.0298(32) 0.0196(28) 0.0121(24) 0.0005(24) 0.0080(24) 0.0003(20)
O3 O2- 0.0240(32) 0.0242(31) 0.0279(32) 0.0032(25) 0.0108(28) -.0030(25)
O4 O2- 0.0100(25) 0.0206(28) 0.024(3) -.0018(21) 0.0084(23) -.0012(22)
#End of data_33869-ICSD


