data_413706-ICSD
#?2014 by Fachinformationszentrum Karlsruhe, and the U.S. Secretary of 
#Commerce on behalf of the United States.  All rights reserved.
_database_code_ICSD                413706
_audit_creation_date               2005/10/01
_chemical_name_systematic
;
Dipotassium Tetracyanodiiodoplatinate(IV)
;
_chemical_formula_structural       'K2 (Pt (C N)4 I2)'
_chemical_formula_sum              'C4 I2 K2 N4 Pt1'
_publ_section_title
;
Kristallzucht und Strukturaufklaerung von K2 (Pt (C N)4 Cl2), K2 (Pt 
(C N)4 Br2), K2 (Pt (C N)4 I2) und K2 (Pt (C N)4 Cl2).2 H2 O
;
loop_
_citation_id
_citation_journal_abbrev
_citation_year
_citation_journal_volume
_citation_page_first
_citation_page_last
_citation_journal_id_ASTM
primary 'Zeitschrift fuer Naturforschung, B: Chemical Sciences'
 2004 59 567 572 ZNBSEN
_publ_author_name
;
Muehle, C.;Karpov, A.;Nuss, J.;Jansen, M.
;
_cell_length_a                     7.2476(11)
_cell_length_b                     9.1450(14)
_cell_length_c                     8.9205(13)
_cell_angle_alpha                  90.00
_cell_angle_beta                   107.558(3)
_cell_angle_gamma                  90.00
_cell_volume                       563.7
_cell_formula_units_Z              2
_symmetry_space_group_name_H-M     'P 1 21/c 1'
_symmetry_Int_Tables_number        14
_refine_ls_R_factor_all            .0273
loop_
_symmetry_equiv_pos_site_id
_symmetry_equiv_pos_as_xyz
  1	'x, -y+.5, z+.5'
  2	'-x, -y, -z'
  3	'-x, y+.5, -z+.5'
  4	'x, y, z'
loop_
_atom_type_symbol
_atom_type_oxidation_number
C2+	2
I1-	-1
K1+	1
N3-	-3
Pt4+	4
loop_
_atom_site_label
_atom_site_type_symbol
_atom_site_symmetry_multiplicity
_atom_site_Wyckoff_symbol
_atom_site_fract_x
_atom_site_fract_y
_atom_site_fract_z
_atom_site_occupancy
_atom_site_attached_hydrogens
_atom_site_U_iso_or_equiv
Pt1 Pt4+ 2 a 0.0000 0.0000 0.0000 1 0 0.01433(6) 
I1 I1- 4 e 0.10087(3) 0.282514(19) 0.03006(2) 1 0 0.02577(7) 
K1 K1+ 4 e 0.47337(11) 0.78608(8) 0.61733(8) 1 0 0.02989(14) 
C1 C2+ 4 e 0.7973(4) 0.0387(3) 0.1073(3) 1 0 0.0203(5) 
C2 C2+ 4 e 0.1997(4) 0.9576(3) 0.2066(3) 1 0 0.0193(5) 
N1 N3- 4 e 0.6771(5) 0.0628(4) 0.1622(4) 1 0 0.0339(6) 
N2 N3- 4 e 0.3196(4) 0.9323(3) 0.3203(3) 1 0 0.0285(5) 

loop_
_atom_site_aniso_label
_atom_site_aniso_type_symbol
_atom_site_aniso_U_11
_atom_site_aniso_U_22
_atom_site_aniso_U_33
_atom_site_aniso_U_12
_atom_site_aniso_U_13
_atom_site_aniso_U_23
Pt1 Pt4+ 0.01485(8) 0.01425(8) 0.01360(8) -0.00001(4) 0.00386(6) 
-0.00021(4)
I1 I1- 0.02985(11) 0.01700(10) 0.03062(12) -0.00393(7) 0.00933(9) 
-0.00167(7)
K1 K1+ 0.0326(3) 0.0336(3) 0.0237(3) -0.0084(3) 0.0089(3) -0.0024(3)
C1 C2+ 0.0207(11) 0.0209(11) 0.0191(11) 0.0004(10) 0.0058(10) 0.0002(10)
C2 C2+ 0.0210(11) 0.0196(11) 0.0174(11) -0.0011(10) 0.0061(9) -0.0004(9)
N1 N3- 0.0314(13) 0.0391(16) 0.0355(15) 0.0022(12) 0.0167(13) -0.0016(13)
N2 N3- 0.0289(12) 0.0282(13) 0.0248(12) -0.0013(10) 0.0027(10) 0.0014(10)
#End of data_413706-ICSD


