data_89077-ICSD
#?2014 by Fachinformationszentrum Karlsruhe, and the U.S. Secretary of 
#Commerce on behalf of the United States.  All rights reserved.
_database_code_ICSD                89077
_audit_creation_date               2001/07/16
_chemical_name_systematic          'Calcium Tin(IV) Oxide Silicate'
_chemical_formula_structural       'Ca Sn O (Si O4)'
_chemical_formula_sum              'Ca1 O5 Si1 Sn1'
_chemical_name_mineral             Malayaite
_publ_section_title
;
An infrared spectroscopic and single-crystal X-ray study of 
malayaite, Ca Sn Si O5
;
loop_
_citation_id
_citation_journal_abbrev
_citation_year
_citation_journal_volume
_citation_page_first
_citation_page_last
_citation_journal_id_ASTM
primary 'Physics and Chemistry of Minerals' 1999 26 546 553 PCMIDU
_publ_author_name
;
Zhang, M.;Meyer, H.W.;Groat, L.A.;Bismayer, U.;Salje, 
E.K.H.;Adiwidjaja, G.
;
_cell_length_a                     7.156(1)
_cell_length_b                     8.875(1)
_cell_length_c                     6.660(1)
_cell_angle_alpha                  90.
_cell_angle_beta                   113.38(1)
_cell_angle_gamma                  90.
_cell_volume                       388.24
_cell_formula_units_Z              4
_symmetry_space_group_name_H-M     'A 1 2/a 1'
_symmetry_Int_Tables_number        15
_refine_ls_R_factor_all            .021
loop_
_symmetry_equiv_pos_site_id
_symmetry_equiv_pos_as_xyz
  1	'-x+.5, y, -z'
  2	'-x, -y, -z'
  3	'x+.5, -y, z'
  4	'x, y, z'
  5	'-x+.5, y+.5, -z+.5'
  6	'-x, -y+.5, -z+.5'
  7	'x+.5, -y+.5, z+.5'
  8	'x, y+.5, z+.5'
loop_
_atom_type_symbol
_atom_type_oxidation_number
Ca2+	2
O2-	-2
Si4+	4
Sn4+	4
loop_
_atom_site_label
_atom_site_type_symbol
_atom_site_symmetry_multiplicity
_atom_site_Wyckoff_symbol
_atom_site_fract_x
_atom_site_fract_y
_atom_site_fract_z
_atom_site_occupancy
_atom_site_attached_hydrogens
Si1 Si4+ 4 e 0.75 0.6819(1) 0.5 1. 0 
Sn1 Sn4+ 4 b 0.5 0.5 0 1. 0 
Ca1 Ca2+ 4 e 0.25 0.66268(8) 0.5 1. 0 
O1 O2- 4 e 0.75 0.5869(1) 0 1. 0 
O2 O2- 8 f 0.9132(1) 0.5678(1) 0.6751(1) 1. 0 
O3 O2- 8 f 0.3718(1) 0.71225(9) 0.8810(1) 1. 0 

loop_
_atom_site_aniso_label
_atom_site_aniso_type_symbol
_atom_site_aniso_U_11
_atom_site_aniso_U_22
_atom_site_aniso_U_33
_atom_site_aniso_U_12
_atom_site_aniso_U_13
_atom_site_aniso_U_23
Si1 Si4+ 0.00534(17) 0.00498(21) 0.00394(19) 0 0.00156(13) 0
Sn1 Sn4+ 0.00365(11) 0.00495(11) 0.00348(11) 0 0.00126(7) 0
Ca1 Ca2+ 0.03403(26) 0.00510(16) 0.00686(16) 0 -.00125(14) 0
O1 O2- 0.00424(31) 0.00614(36) 0.01369(40) 0 0.00539(28) 0
O2 O2- 0.00825(25) 0.00862(29) 0.00500(24) 0.00237(16) 0.00148(19) 
0.00147(19)
O3 O2- 0.00855(25) 0.00650(26) 0.00740(26) 0.00260(16) 0.00454(21) 
0.00063(18)
#End of data_89077-ICSD


