data_89803-ICSD
#?2014 by Fachinformationszentrum Karlsruhe, and the U.S. Secretary of 
#Commerce on behalf of the United States.  All rights reserved.
_database_code_ICSD                89803
_audit_creation_date               2002/04/01
_chemical_name_systematic
;
Dicerium Calcium Difluoride Tricarbonate
;
_chemical_formula_structural       'Ce2 Ca F2 (C O3)3'
_chemical_formula_sum              'C3 Ca1 Ce2 F2 O9'
_chemical_name_mineral             Parisite-(Ce)
_publ_section_title
;
The crystal structure of parisite-(Ce), Ce2 Ca F2 (C O3)3
;
loop_
_citation_id
_citation_journal_abbrev
_citation_year
_citation_journal_volume
_citation_page_first
_citation_page_last
_citation_journal_id_ASTM
primary 'American Mineralogist' 2000 85 251 258 AMMIAY
_publ_author_name                  'Ni, Y.-X.;Post, J.E.;Hughes, J.M.'
_cell_length_a                     12.305(2)
_cell_length_b                     7.1053(5)
_cell_length_c                     28.250(5)
_cell_angle_alpha                  90.
_cell_angle_beta                   98.257(14)
_cell_angle_gamma                  90.
_cell_volume                       2444.31
_cell_formula_units_Z              12
_symmetry_space_group_name_H-M     'C 1 c 1'
_symmetry_Int_Tables_number        9
_refine_ls_R_factor_all            .044
loop_
_symmetry_equiv_pos_site_id
_symmetry_equiv_pos_as_xyz
  1	'x, -y, z+.5'
  2	'x, y, z'
  3	'x+.5, -y+.5, z+.5'
  4	'x+.5, y+.5, z'
loop_
_atom_type_symbol
_atom_type_oxidation_number
C4+	4
Ca2+	2
Ce3+	3
F1-	-1
O2-	-2
loop_
_atom_site_label
_atom_site_type_symbol
_atom_site_symmetry_multiplicity
_atom_site_Wyckoff_symbol
_atom_site_fract_x
_atom_site_fract_y
_atom_site_fract_z
_atom_site_occupancy
_atom_site_attached_hydrogens
_atom_site_B_iso_or_equiv
Ce1 Ce3+ 4 a 0.473 0.2448(1) 0.163 1. 0 0.40(1) 
Ce2 Ce3+ 4 a 0.80237(7) 0.2519(2) 0.16344(3) 1. 0 0.62(1) 
Ce3 Ce3+ 4 a 0.14029(6) 0.2547(1) 0.16362(3) 1. 0 0.26(1) 
Ce4 Ce3+ 4 a 0.52991(8) 0.2433(1) 0.33671(4) 1. 0 0.44(1) 
Ce5 Ce3+ 4 a 0.19867(6) 0.2522(1) 0.33687(3) 1. 0 0.24(1) 
Ce6 Ce3+ 4 a 0.85919(7) 0.2487(2) 0.33632(3) 1. 0 0.68(1) 
Ca1 Ca2+ 4 a 0.0838(2) 0.2600(4) -.0001(1) 1. 0 0.24(3) 
Ca2 Ca2+ 4 a 0.4130(3) 0.2543(5) 0.9996(1) 1. 0 0.29(3) 
Ca3 Ca2+ 4 a 0.7471(3) 0.2434(5) 0.0008(1) 1. 0 0.32(3) 
F1 F1- 4 a 0.970(1) 0.083(1) 0.1633(5) 1. 0 0.8(1) 
F2 F1- 4 a 0.2981(8) 0.082(1) 0.1481(4) 1. 0 0.6(1) 
F3 F1- 4 a 0.645(1) 0.084(2) 0.1799(5) 1. 0 1.5(2) 
F4 F1- 4 a 0.028(1) 0.080(1) 0.3384(5) 1. 0 0.9(1) 
F5 F1- 4 a 0.6904(8) 0.080(1) 0.3213(4) 1. 0 0.6(1) 
F6 F1- 4 a 0.368(1) 0.086(2) 0.3535(5) 1. 0 1.5(2) 
O1 O2- 4 a 0.390(1) 0.317(2) 0.0803(6) 1. 0 1.6(2) 
O2 O2- 4 a 0.243(1) 0.427(2) 0.0378(6) 1. 0 1.4(2) 
O3 O2- 4 a 0.264(1) 0.447(2) 0.1147(6) 1. 0 1.9(3) 
O4 O2- 4 a 0.098(1) 0.134(2) 0.0801(6) 1. 0 1.1(2) 
O5 O2- 4 a 0.591(1) 0.382(2) 0.0343(6) 1. 0 1.9(3) 
O6 O2- 4 a 0.621(1) 0.347(2) 0.1116(6) 1. 0 1.5(2) 
O7 O2- 4 a 0.838(1) 0.298(2) 0.0793(5) 1. 0 1.2(2) 
O8 O2- 4 a 0.985(1) 0.445(2) 0.1129(5) 1. 0 1.1(2) 
O9 O2- 4 a 0.941(1) 0.431(2) 0.0328(6) 1. 0 1.4(2) 
O10 O2- 4 a 0.106(1) 0.295(2) 0.2510(5) 1. 0 1.1(2) 
O11 O2- 4 a 0.959(1) 0.435(2) 0.2114(6) 1. 0 1.7(3) 
O12 O2- 4 a 0.985(1) 0.436(2) 0.2884(6) 1. 0 1.7(2) 
O13 O2- 4 a 0.836(1) 0.132(2) 0.2508(7) 1. 0 1.8(3) 
O14 O2- 4 a 0.348(1) 0.379(2) 0.2916(5) 1. 0 1.1(2) 
O15 O2- 4 a 0.324(1) 0.364(2) 0.2118(5) 1. 0 1.0(2) 
O16 O2- 4 a 0.555(1) 0.319(2) 0.2505(5) 1. 0 0.8(2) 
O17 O2- 4 a 0.700(1) 0.447(2) 0.2906(5) 1. 0 1.0(2) 
O18 O2- 4 a 0.679(1) 0.453(2) 0.2113(5) 1. 0 0.9(2) 
O19 O2- 4 a 0.951(1) 0.292(2) 0.4205(6) 1. 0 1.8(3) 
O20 O2- 4 a 0.079(1) 0.443(2) 0.3857(5) 1. 0 0.6(2) 
O21 O2- 4 a 0.0836(9) 0.432(2) 0.4678(4) 1. 0 0.3(2) 
O22 O2- 4 a 0.505(1) 0.315(3) 0.4218(7) 1. 0 2.4(3) 
O23 O2- 4 a 0.346(1) 0.449(2) 0.3899(6) 1. 0 1.3(2) 
O24 O2- 4 a 0.3961(9) 0.425(2) 0.4695(4) 1. 0 0.3(2) 
O25 O2- 4 a 0.710(1) 0.347(2) 0.3877(6) 1. 0 1.1(2) 
O26 O2- 4 a 0.211(1) 0.134(2) 0.4219(5) 1. 0 0.9(2) 
O27 O2- 4 a 0.737(1) 0.393(2) 0.4687(5) 1. 0 0.7(2) 
C1 C4+ 4 a 0.293(2) 0.403(3) 0.0768(9) 1. 0 1.8(3) 
C2 C4+ 4 a 0.608(1) 0.453(2) 0.0744(7) 1. 0 0.6(2) 
C3 C4+ 4 a 0.920(1) 0.395(2) 0.0763(6) 1. 0 0.2(2) 
C4 C4+ 4 a 0.012(2) 0.389(3) 0.252(1) 1. 0 1.7(3) 
C5 C4+ 4 a 0.341(2) 0.453(3) 0.2505(8) 1. 0 0.9(2) 
C6 C4+ 4 a 0.646(1) 0.407(2) 0.2492(7) 1. 0 0.5(2) 
C7 C4+ 4 a 0.038(1) 0.393(2) 0.4234(6) 1. 0 0.1(2) 
C8 C4+ 4 a 0.406(2) 0.403(3) 0.4258(8) 1. 0 1.3(3) 
C9 C4+ 4 a 0.723(2) 0.447(3) 0.4240(8) 1. 0 1.2(3) 

#End of data_89803-ICSD


