data_24666-ICSD
#?2014 by Fachinformationszentrum Karlsruhe, and the U.S. Secretary of 
#Commerce on behalf of the United States.  All rights reserved.
_database_code_ICSD                24666
_audit_creation_date               1980/01/01
_audit_update_record               1999/01/19
_chemical_name_systematic          'Pentacalcium Disilicate Carbonate'
_chemical_formula_structural       'Ca5 (Si2 O7) (C O3)2'
_chemical_formula_sum              'C2 Ca5 O13 Si2'
_chemical_name_mineral             Tilleyite
_publ_section_title                'The crystal structure of tilleyite'
loop_
_citation_id
_citation_journal_abbrev
_citation_year
_citation_journal_volume
_citation_page_first
_citation_page_last
_citation_journal_id_ASTM
primary 'Acta Crystallographica (1,1948-23,1967)' 1953 6 9 18 ACCRA9
_publ_author_name                  'Smith, J.V.'
_cell_length_a                     15.025(7)
_cell_length_b                     10.269(5)
_cell_length_c                     7.628(7)
_cell_angle_alpha                  90.
_cell_angle_beta                   105.83(17)
_cell_angle_gamma                  90.
_cell_volume                       1132.3
_cell_formula_units_Z              4
_symmetry_space_group_name_H-M     'P 1 21/a 1'
_symmetry_Int_Tables_number        14
_refine_ls_R_factor_all            .13
loop_
_symmetry_equiv_pos_site_id
_symmetry_equiv_pos_as_xyz
  1	'x+.5, -y+.5, z'
  2	'-x, -y, -z'
  3	'-x+.5, y+.5, -z'
  4	'x, y, z'
loop_
_atom_type_symbol
_atom_type_oxidation_number
C4+	4
Ca2+	2
O2-	-2
Si4+	4
loop_
_atom_site_label
_atom_site_type_symbol
_atom_site_symmetry_multiplicity
_atom_site_Wyckoff_symbol
_atom_site_fract_x
_atom_site_fract_y
_atom_site_fract_z
_atom_site_occupancy
_atom_site_attached_hydrogens
_atom_site_B_iso_or_equiv
Ca1 Ca2+ 4 e 0.0056 0 0.7542 1. 0 2.4 
Ca2 Ca2+ 4 e 0.181 0.2112 0.0978 1. 0 2.4 
Ca3 Ca2+ 4 e 0.1806 0.2112 0.6148 1. 0 2.4 
Ca4 Ca2+ 4 e 0.128 0.5867 0.052 1. 0 2.4 
Ca5 Ca2+ 4 e 0.1325 0.5867 0.5561 1. 0 2.4 
Si1 Si4+ 4 e 0.2071 0.9153 0.1502 1. 0 2.4 
Si2 Si4+ 4 e 0.2052 0.9153 0.5792 1. 0 2.4 
C1 C4+ 4 e 0.0297 0.2992 0.347 1. 0 2.4 
C2 C4+ 4 e 0.0205 0.2992 0.822 1. 0 2.4 
O1 O2- 4 e 0.077 0.2093 0.286 1. 0 2.4 
O2 O2- 4 e 0.0681 0.2093 0.758 1. 0 2.4 
O3 O2- 4 e 0.0713 0.3625 0.479 1. 0 2.4 
O4 O2- 4 e 0.058 0.3625 0.958 1. 0 2.4 
O5 O2- 4 e 0.0622 0.6742 0.7724 1. 0 2.4 
O6 O2- 4 e 0.0671 0.6742 0.3094 1. 0 2.4 
O7 O2- 4 e 0.2295 0.7732 0.07 1. 0 2.4 
O8 O2- 4 e 0.2255 0.7732 0.6188 1. 0 2.4 
O9 O2- 4 e 0.105 0.9708 0.0575 1. 0 2.4 
O10 O2- 4 e 0.1 0.9708 0.539 1. 0 2.4 
O11 O2- 4 e 0.2176 0.5263 0.88 1. 0 2.4 
O12 O2- 4 e 0.2282 0.5263 0.3444 1. 0 2.4 
O13 O2- 4 e 0.2206 0.9153 0.3679 1. 0 2.4 

#End of data_24666-ICSD


