data_91134-ICSD
#?2014 by Fachinformationszentrum Karlsruhe, and the U.S. Secretary of 
#Commerce on behalf of the United States.  All rights reserved.
_database_code_ICSD                91134
_audit_creation_date               2002/10/01
_chemical_name_systematic
;
Disodium Zinc Diphosphate(V) - Sc Model
;
_chemical_formula_structural       'Na2 Zn (P2 O7)'
_chemical_formula_sum              'Na2 O7 P2 Zn1'
_publ_section_title
;
Crystal structure of Na2 Zn P2 O7: reinvestigation
;
loop_
_citation_id
_citation_journal_abbrev
_citation_year
_citation_journal_volume
_citation_page_first
_citation_page_last
_citation_journal_id_ASTM
primary 'Journal of Solid State Chemistry' 2000 152 466 473 JSSCBI
_publ_author_name
;
Belharouak, I.;Gravereau, P.;Parent, C.;Chaminade, J.P.;Lebraud, 
E.;le Flem, G.
;
_cell_length_a                     7.685
_cell_length_b                     7.685
_cell_length_c                     10.265
_cell_angle_alpha                  90.
_cell_angle_beta                   90.
_cell_angle_gamma                  90.
_cell_volume                       606.24
_cell_formula_units_Z              4
_symmetry_space_group_name_H-M     'P 42/m n m'
_symmetry_Int_Tables_number        136
_refine_ls_R_factor_all            .034
loop_
_symmetry_equiv_pos_site_id
_symmetry_equiv_pos_as_xyz
  1	'-y+.5, x+.5, -z+.5'
  2	'y+.5, -x+.5, -z+.5'
  3	'y, x, -z'
  4	'-y, -x, -z'
  5	'y+.5, -x+.5, z+.5'
  6	'-y+.5, x+.5, z+.5'
  7	'-y, -x, z'
  8	'y, x, z'
  9	'x+.5, -y+.5, -z+.5'
 10	'-x+.5, y+.5, -z+.5'
 11	'x, y, -z'
 12	'-x, -y, -z'
 13	'-x+.5, y+.5, z+.5'
 14	'x+.5, -y+.5, z+.5'
 15	'-x, -y, z'
 16	'x, y, z'
loop_
_atom_type_symbol
_atom_type_oxidation_number
Na1+	1
O2-	-2
P5+	5
Zn2+	2
loop_
_atom_site_label
_atom_site_type_symbol
_atom_site_symmetry_multiplicity
_atom_site_Wyckoff_symbol
_atom_site_fract_x
_atom_site_fract_y
_atom_site_fract_z
_atom_site_occupancy
_atom_site_attached_hydrogens
_atom_site_U_iso_or_equiv
Zn1 Zn2+ 4 d 0 0.5 0.25 1. 0 0.0226(7) 
Na1 Na1+ 4 f 0.3589(4) 0.3589(4) 0 1. 0 0.0283(12) 
Na2 Na1+ 4 g 0.3024(4) 0.3024(4) 0.5 1. 0 0.0324(13) 
P1 P5+ 8 j 0.1364(2) 0.1364(2) 0.2117(2) 1. 0 0.0208(8) 
O1 O2- 4 e 0 0 0.1570(8) 1. 0 0.0810(5) 
O2 O2- 8 j 0.1353(5) 0.1353(5) 0.3567(5) 1. 0 0.0272(14) 
O3 O2- 16 k 0.0773(8) 0.3028(6) 0.1484(4) 1. 0 0.0590(2) 

#End of data_91134-ICSD


