data_36039-ICSD
#?2014 by Fachinformationszentrum Karlsruhe, and the U.S. Secretary of 
#Commerce on behalf of the United States.  All rights reserved.
_database_code_ICSD                36039
_audit_creation_date               1983/12/31
_chemical_name_systematic
;
Tripotassium Diiron(III) Tetraoxophosphate
;
_chemical_formula_structural       'K3 Fe2 (P O4)3'
_chemical_formula_sum              'Fe2 K3 O12 P3'
_publ_section_title
;
Structure de l'Orthophosphate de Difer(III) et de Tripotassium, K3 
Fe2 (P O4)3
;
loop_
_citation_id
_citation_journal_abbrev
_citation_year
_citation_journal_volume
_citation_page_first
_citation_page_last
_citation_journal_id_ASTM
primary 'Acta Crystallographica, Section C: Crystal Structure Communications'
 1983 39 9 12 ACSCEE
_publ_author_name
;
Pintard-Screpel, M.;d'Yvoire, F.
;
_cell_length_a                     16.303(2)
_cell_length_b                     9.463(1)
_cell_length_c                     16.691(2)
_cell_angle_alpha                  90.
_cell_angle_beta                   118.39(1)
_cell_angle_gamma                  90.
_cell_volume                       2265.32
_cell_formula_units_Z              8
_symmetry_space_group_name_H-M     'C 1 2/c 1'
_symmetry_Int_Tables_number        15
_refine_ls_R_factor_all            .022
loop_
_symmetry_equiv_pos_site_id
_symmetry_equiv_pos_as_xyz
  1	'x, -y, z+.5'
  2	'-x, -y, -z'
  3	'-x, y, -z+.5'
  4	'x, y, z'
  5	'x+.5, -y+.5, z+.5'
  6	'-x+.5, -y+.5, -z'
  7	'-x+.5, y+.5, -z+.5'
  8	'x+.5, y+.5, z'
loop_
_atom_type_symbol
_atom_type_oxidation_number
Fe3+	3
K1+	1
O2-	-2
P5+	5
loop_
_atom_site_label
_atom_site_type_symbol
_atom_site_symmetry_multiplicity
_atom_site_Wyckoff_symbol
_atom_site_fract_x
_atom_site_fract_y
_atom_site_fract_z
_atom_site_occupancy
_atom_site_attached_hydrogens
Fe1 Fe3+ 8 f 0.46819(7) 0.74433(11) 0.46654(7) 1. 0 
Fe2 Fe3+ 8 f 0.32094(7) 0.48720(11) 0.17578(7) 1. 0 
K1 K1+ 4 c 0.25 0.75 0.5 1. 0 
K2 K1+ 8 f 0.2949(1) 0.3666(2) 0.4184(1) 1. 0 
K3 K1+ 8 f 0.4207(1) 0.1092(2) 0.3166(1) 1. 0 
K4 K1+ 4 e 0.5 0.7739(3) 0.25 1. 0 
P1 P5+ 8 f 0.3066(1) 0.7292(2) 0.3098(2) 1. 0 
P2 P5+ 8 f 0.3740(1) 0.0251(2) 0.5189(1) 1. 0 
P3 P5+ 8 f 0.5143(1) 0.4741(2) 0.3778(1) 1. 0 
O1 O2- 8 f 0.3413(4) 0.6352(6) 0.3945(4) 1. 0 
O2 O2- 8 f 0.2800(4) 0.3147(6) 0.2021(4) 1. 0 
O3 O2- 8 f 0.2285(4) 0.1455(6) 0.2807(4) 1. 0 
O4 O2- 8 f 0.3897(4) 0.8276(6) 0.3297(4) 1. 0 
O5 O2- 8 f 0.3883(4) 0.0517(6) 0.6135(4) 1. 0 
O6 O2- 8 f 0.4047(4) 0.8739(6) 0.5123(4) 1. 0 
O7 O2- 8 f 0.2685(3) 0.0388(6) 0.4482(3) 1. 0 
O8 O2- 8 f 0.4265(4) 0.1288(6) 0.4896(4) 1. 0 
O9 O2- 8 f 0.4360(3) 0.5103(6) 0.2831(3) 1. 0 
O10 O2- 8 f 0.5406(3) 0.6133(6) 0.4305(3) 1. 0 
O11 O2- 8 f 0.6022(3) 0.4175(6) 0.3764(3) 1. 0 
O12 O2- 8 f 0.4793(3) 0.3598(6) 0.4187(3) 1. 0 

#End of data_36039-ICSD


