data_75220-ICSD
#?2014 by Fachinformationszentrum Karlsruhe, and the U.S. Secretary of 
#Commerce on behalf of the United States.  All rights reserved.
_database_code_ICSD                75220
_audit_creation_date               1995/10/17
_chemical_name_systematic
;
Trisodium Vanadium(III) Tris(sulfate)
;
_chemical_formula_structural       'Na3 V (S O4)3'
_chemical_formula_sum              'Na3 O12 S3 V1'
_publ_section_title
;
Synthesis and crystal structure of Na3V(SO4)3. Spectroscopic 
characterization of Na3V(SO4)3 and NaV(SO4)2
;
loop_
_citation_id
_citation_journal_abbrev
_citation_year
_citation_journal_volume
_citation_page_first
_citation_page_last
_citation_journal_id_ASTM
primary 'Acta Chemica Scandinavica (43,1989-)' 1994 48 724 731 ACHSE7
_publ_author_name
;
Boghosian, S.;Fehrmann, R.;Nielsen, K.
;
_cell_length_a                     13.439(1)
_cell_length_b                     13.439(1)
_cell_length_c                     9.091(1)
_cell_angle_alpha                  90.
_cell_angle_beta                   90.
_cell_angle_gamma                  120.
_cell_volume                       1421.92
_cell_formula_units_Z              6
_symmetry_space_group_name_H-M     'R -3 H'
_symmetry_Int_Tables_number        148
_refine_ls_R_factor_all            .027
loop_
_symmetry_equiv_pos_site_id
_symmetry_equiv_pos_as_xyz
  1	'x-y, x, -z'
  2	'y, -x+y, -z'
  3	'-x, -y, -z'
  4	'-x+y, -x, z'
  5	'-y, x-y, z'
  6	'x, y, z'
  7	'x-y+.6666, x+.3333, -z+.3333'
  8	'x-y+.3333, x+.6666, -z+.6666'
  9	'y+.6666, -x+y+.3333, -z+.3333'
 10	'y+.3333, -x+y+.6666, -z+.6666'
 11	'-x+.6666, -y+.3333, -z+.3333'
 12	'-x+.3333, -y+.6666, -z+.6666'
 13	'-x+y+.6666, -x+.3333, z+.3333'
 14	'-x+y+.3333, -x+.6666, z+.6666'
 15	'-y+.6666, x-y+.3333, z+.3333'
 16	'-y+.3333, x-y+.6666, z+.6666'
 17	'x+.6666, y+.3333, z+.3333'
 18	'x+.3333, y+.6666, z+.6666'
loop_
_atom_type_symbol
_atom_type_oxidation_number
Na1+	1
O2-	-2
S6+	6
V3+	3
loop_
_atom_site_label
_atom_site_type_symbol
_atom_site_symmetry_multiplicity
_atom_site_Wyckoff_symbol
_atom_site_fract_x
_atom_site_fract_y
_atom_site_fract_z
_atom_site_occupancy
_atom_site_attached_hydrogens
_atom_site_U_iso_or_equiv
V1 V3+ 3 a 0 0 0 1. 0 0.0092 
V2 V3+ 3 b 0 0 0.5 1. 0 0.008 
S1 S6+ 18 f -.0251(1) 0.1623(1) 0.2599(1) 1. 0 0.0095 
Na1 Na1+ 18 f 0.7443(1) 0.1079(1) 0.4914(1) 1. 0 0.0273 
O1 O2- 18 f 0.0338(1) 0.1366(1) 0.3801(1) 1. 0 0.0208 
O2 O2- 18 f 0.8520(1) 0.1016(1) 0.2802(1) 1. 0 0.0207 
O3 O2- 18 f 0.0284(1) 0.2871(1) 0.2573(1) 1. 0 0.0188 
O4 O2- 18 f 0.0070(1) 0.1291(1) 0.1182(1) 1. 0 0.0234 

#End of data_75220-ICSD


