data_290219-ICSD
#?2014 by Fachinformationszentrum Karlsruhe, and the U.S. Secretary of 
#Commerce on behalf of the United States.  All rights reserved.
_database_code_ICSD                290219
_audit_creation_date               2013/08/01
_chemical_name_systematic          'Magnesium Silicate'
_chemical_formula_structural       'Mg Si O3'
_chemical_formula_sum              'Mg1 O3 Si1'
_chemical_name_mineral             Orthoenstatite
_publ_section_title
;
Re-investigation of the crystal structure of enstatite under high-
pressure conditions
;
loop_
_citation_id
_citation_journal_abbrev
_citation_year
_citation_journal_volume
_citation_journal_issue
_citation_page_first
_citation_page_last
_citation_journal_id_ASTM
primary 'American Mineralogist' 2012 97 10 1741 1748 AMMIAY
_publ_author_name
;
Periotto, B.;Balic-Zunic, T.;Nestola, F.;Katerinopoulou, A.;Angel, 
R.J.
;
_cell_length_a                     18.056(3)
_cell_length_b                     8.692(2)
_cell_length_c                     5.1192(4)
_cell_angle_alpha                  90.
_cell_angle_beta                   90.
_cell_angle_gamma                  90.
_cell_volume                       803.42
_cell_formula_units_Z              16
_symmetry_space_group_name_H-M     'P b c a'
_symmetry_Int_Tables_number        61
_refine_ls_R_factor_all            .042
loop_
_symmetry_equiv_pos_site_id
_symmetry_equiv_pos_as_xyz
  1	'x+.5, y, -z+.5'
  2	'x, -y+.5, z+.5'
  3	'-x+.5, y+.5, z'
  4	'-x, -y, -z'
  5	'-x+.5, -y, z+.5'
  6	'-x, y+.5, -z+.5'
  7	'x+.5, -y+.5, -z'
  8	'x, y, z'
loop_
_atom_type_symbol
_atom_type_oxidation_number
Mg2+	2
O2-	-2
Si4+	4
loop_
_atom_site_label
_atom_site_type_symbol
_atom_site_symmetry_multiplicity
_atom_site_Wyckoff_symbol
_atom_site_fract_x
_atom_site_fract_y
_atom_site_fract_z
_atom_site_occupancy
_atom_site_attached_hydrogens
_atom_site_U_iso_or_equiv
Mg1 Mg2+ 8 c 0.3772(1) 0.4837(2) 0.3511(3) 1. 0 0.0088(6) 
Mg2 Mg2+ 8 c 0.3760(1) 0.6556(2) 0.8585(3) 1. 0 0.0069(5) 
Si1 Si4+ 8 c 0.27123(9) 0.3431(2) 0.0431(3) 1. 0 0.0053(4) 
Si2 Si4+ 8 c 0.47285(9) 0.3375(2) 0.8025(2) 1. 0 0.0053(4) 
O1 O2- 8 c 0.1823(2) 0.3398(4) 0.0265(5) 1. 0 0.0046(8) 
O2 O2- 8 c 0.3102(2) 0.5062(5) 0.0351(6) 1. 0 0.0071(9) 
O3 O2- 8 c 0.3037(2) 0.2230(5) 0.8244(6) 1. 0 0.0060(9) 
O4 O2- 8 c 0.5621(2) 0.3391(4) 0.8053(6) 1. 0 0.0059(8) 
O5 O2- 8 c 0.4326(2) 0.4835(4) 0.6850(6) 1. 0 0.0078(9) 
O6 O2- 8 c 0.4467(2) 0.1922(4) 0.6118(5) 1. 0 0.0040(8) 

#End of data_290219-ICSD


