data_65433-ICSD
#?2014 by Fachinformationszentrum Karlsruhe, and the U.S. Secretary of 
#Commerce on behalf of the United States.  All rights reserved.
_database_code_ICSD                65433
_audit_creation_date               1989/12/04
_chemical_name_systematic          'Potassium Tetrathionate'
_chemical_formula_structural       'K2 (S4 O6)'
_chemical_formula_sum              'K2 O6 S4'
_publ_section_title
;
Experimental charge density in polythionate anions: Part II X-ray 
study of the electron density distribution in potassium 
tetrathionate, K2 S4 O6
;
loop_
_citation_id
_citation_journal_abbrev
_citation_year
_citation_journal_volume
_citation_page_first
_citation_page_last
_citation_journal_id_ASTM
primary 'Zeitschrift fuer Kristallographie (1979-2010)' 1989 188 31 42 ZEKRDZ
_publ_author_name
;
Christidis, P.C.;Rentzeperis, P.J.;Kirfel, A.;Will, G.
;
_cell_length_a                     22.093(5)
_cell_length_b                     8.000(3)
_cell_length_c                     10.109(2)
_cell_angle_alpha                  90.
_cell_angle_beta                   102.25(2)
_cell_angle_gamma                  90.
_cell_volume                       1746.02
_cell_formula_units_Z              8
_symmetry_space_group_name_H-M     'C 1 c 1'
_symmetry_Int_Tables_number        9
_refine_ls_R_factor_all            .025
loop_
_symmetry_equiv_pos_site_id
_symmetry_equiv_pos_as_xyz
  1	'x, -y, z+.5'
  2	'x, y, z'
  3	'x+.5, -y+.5, z+.5'
  4	'x+.5, y+.5, z'
loop_
_atom_type_symbol
_atom_type_oxidation_number
K1+	1
O2-	-2
S2+	2
S4+	4
loop_
_atom_site_label
_atom_site_type_symbol
_atom_site_symmetry_multiplicity
_atom_site_Wyckoff_symbol
_atom_site_fract_x
_atom_site_fract_y
_atom_site_fract_z
_atom_site_occupancy
_atom_site_attached_hydrogens
K1 K1+ 4 a 0.06282(4) -.08692(9) 0.38379(8) 1. 0 
K2 K1+ 4 a 0.01453(3) 0.38616(7) 0.26394(6) 1. 0 
K3 K1+ 4 a 0.21900(3) 0.56910(7) 0.44082(6) 1. 0 
K4 K1+ 4 a 0.42592(3) 0.34242(8) 0.05128(6) 1. 0 
S1 S2+ 4 a 0.1 0.69712(6) 0.1 1. 0 
S2 S2+ 4 a 0.18556(3) 0.81224(7) 0.09550(6) 1. 0 
S3 S2+ 4 a 0.20812(3) 0.95021(7) 0.26558(7) 1. 0 
S4 S4+ 4 a 0.16366(3) 0.18208(7) 0.20639(6) 1. 0 
S5 S2+ 4 a 0.44263(3) 0.16775(7) 0.43244(6) 1. 0 
S6 S2+ 4 a 0.34767(3) 0.20891(8) 0.41836(6) 1. 0 
S7 S2+ 4 a 0.33932(3) 0.13920(8) 0.60571(7) 1. 0 
S8 S4+ 4 a 0.35374(3) 0.36439(7) 0.72145(6) 1. 0 
O1 O2- 4 a 0.05137(7) 0.81799(25) 0.05022(21) 1. 0 
O2 O2- 4 a 0.10189(8) 0.56044(24) 0.00748(16) 1. 0 
O3 O2- 4 a 0.10141(8) 0.64875(25) 0.23907(15) 1. 0 
O4 O2- 4 a 0.10261(8) 0.16659(29) 0.23530(21) 1. 0 
O5 O2- 4 a 0.20301(9) 0.29820(29) 0.29240(23) 1. 0 
O6 O2- 4 a 0.16226(12) 0.19869(30) 0.06455(19) 1. 0 
O7 O2- 4 a 0.44945(8) 0.18731(25) 0.29332(14) 1. 0 
O8 O2- 4 a 0.45623(8) 0.00104(25) 0.48580(17) 1. 0 
O9 O2- 4 a 0.47507(7) 0.29630(26) 0.52157(15) 1. 0 
O10 O2- 4 a 0.32254(8) 0.32409(26) 0.83016(15) 1. 0 
O11 O2- 4 a 0.42036(7) 0.38480(28) 0.76824(16) 1. 0 
O12 O2- 4 a 0.32607(8) 0.49698(26) 0.63157(16) 1. 0 

loop_
_atom_site_aniso_label
_atom_site_aniso_type_symbol
_atom_site_aniso_U_11
_atom_site_aniso_U_22
_atom_site_aniso_U_33
_atom_site_aniso_U_12
_atom_site_aniso_U_13
_atom_site_aniso_U_23
K1 K1+ 0.0504(3) 0.0374(3) 0.0597(3) -.0176(3) 0.0347(3) -.0184(3)
K2 K1+ 0.0269(2) 0.0280(2) 0.0271(2) 0.0039(2) 0.0044(1) -.0033(2)
K3 K1+ 0.0350(2) 0.0276(2) 0.0358(2) -.0006(2) 0.0037(2) -.0006(2)
K4 K1+ 0.0298(2) 0.0504(3) 0.0230(2) 0.0105(2) 0.0054(1) 0.0043(2)
S1 S2+ 0.0200(2) 0.0192(2) 0.0229(2) 0.0007(2) 0.0045(1) 0.0016(2)
S2 S2+ 0.0216(2) 0.0254(2) 0.0329(2) -.0011(2) 0.0105(2) -.0064(2)
S3 S2+ 0.0259(2) 0.0228(2) 0.0286(2) 0.0014(2) -.0011(2) -.0012(2)
S4 S4+ 0.0300(2) 0.0195(2) 0.0277(2) 0.0014(2) 0.0103(2) -.0007(2)
S5 S2+ 0.0213(2) 0.0267(2) 0.0196(2) 0.0026(2) 0.0069(1) 0.0012(2)
S6 S2+ 0.0206(2) 0.0449(3) 0.0259(2) 0.0058(2) 0.0010(2) -.0064(2)
S7 S2+ 0.0293(2) 0.0304(3) 0.0378(2) -.0039(2) 0.0169(2) -.0038(2)
S8 S4+ 0.0228(2) 0.0297(3) 0.0206(2) 0.0016(2) 0.0063(1) -.0038(2)
O1 O2- 0.0219(6) 0.0309(10) 0.0675(11) 0.0066(6) 0.0060(6) 0.0157(8)
O2 O2- 0.0347(7) 0.0317(9) 0.0328(7) -.0049(7) 0.0051(5) -.0105(6)
O3 O2- 0.0413(8) 0.0387(10) 0.0262(7) -.0075(7) 0.0116(6) 0.0027(7)
O4 O2- 0.0277(7) 0.0449(12) 0.0684(12) 0.0086(8) 0.0166(7) 0.007(1)
O5 O2- 0.0433(10) 0.0306(11) 0.0785(14) -.0028(8) 0.0022(9) -.0201(10)
O6 O2- 0.1059(15) 0.0352(11) 0.0357(9) 0.0180(12) 0.0295(10) 0.0130(8)
O7 O2- 0.0414(8) 0.041(1) 0.0215(6) 0.0077(7) 0.0135(5) 0.0032(6)
O8 O2- 0.0360(8) 0.0319(9) 0.0427(8) 0.0102(7) 0.0143(6) 0.0117(7)
O9 O2- 0.0320(7) 0.0428(10) 0.0295(7) -.0103(7) 0.0077(5) -.0067(7)
O10 O2- 0.0367(7) 0.0466(11) 0.0262(6) -.0005(7) 0.0155(6) 0.0008(7)
O11 O2- 0.0238(6) 0.0512(12) 0.0316(7) -.0019(7) 0.0042(5) -.0045(7)
O12 O2- 0.0401(8) 0.0332(9) 0.0308(7) 0.0052(7) 0.0031(6) 0.0027(7)
#End of data_65433-ICSD


