data_202760-ICSD
#?2014 by Fachinformationszentrum Karlsruhe, and the U.S. Secretary of 
#Commerce on behalf of the United States.  All rights reserved.
_database_code_ICSD                202760
_audit_creation_date               1989/12/04
_chemical_name_systematic
;
Dibarium Calcium Copper Dichromium Fluoride
;
_chemical_formula_structural       'Ba2 Ca Cu Cr2 F14'
_chemical_formula_sum              'Ba2 Ca1 Cr2 Cu1 F14'
_publ_section_title
;
New heteronuclear trimers in fluorides with usovite-type structure
;
loop_
_citation_id
_citation_journal_abbrev
_citation_year
_citation_journal_volume
_citation_page_first
_citation_page_last
_citation_journal_id_ASTM
primary 'Materials Research Bulletin' 1988 23 637 645 MRBUAC
_publ_author_name
;
Qiang, X.;Darriet, J.;Tressaud, A.;Soubeyroux, J.L.;Hagenmuller, P.
;
_cell_length_a                     13.724(9)
_cell_length_b                     5.314(1)
_cell_length_c                     14.702(8)
_cell_angle_alpha                  90.
_cell_angle_beta                   91.47
_cell_angle_gamma                  90.
_cell_volume                       1071.85
_cell_formula_units_Z              4
_symmetry_space_group_name_H-M     'C 1 2/c 1'
_symmetry_Int_Tables_number        15
_refine_ls_R_factor_all            .055
loop_
_symmetry_equiv_pos_site_id
_symmetry_equiv_pos_as_xyz
  1	'x, -y, z+.5'
  2	'-x, -y, -z'
  3	'-x, y, -z+.5'
  4	'x, y, z'
  5	'x+.5, -y+.5, z+.5'
  6	'-x+.5, -y+.5, -z'
  7	'-x+.5, y+.5, -z+.5'
  8	'x+.5, y+.5, z'
loop_
_atom_type_symbol
_atom_type_oxidation_number
Ba2+	2
Ca2+	2
Cr3+	3
Cu2+	2
F1-	-1
loop_
_atom_site_label
_atom_site_type_symbol
_atom_site_symmetry_multiplicity
_atom_site_Wyckoff_symbol
_atom_site_fract_x
_atom_site_fract_y
_atom_site_fract_z
_atom_site_occupancy
_atom_site_attached_hydrogens
Ba1 Ba2+ 8 f 0.192(1) -.064(4) 0.118(1) 1. 0 
Cr1 Cr3+ 8 f 0.372(3) 0.480(5) 0.125(2) 1. 0 
Ca1 Ca2+ 4 e 0 0.436(5) 0.25 1. 0 
Cu1 Cu2+ 4 b 0 0.5 0 1. 0 
F1 F1- 8 f 0.158(2) 0.198(3) 0.272(2) 1. 0 
F2 F1- 8 f 0.413(2) 0.292(3) 0.021(2) 1. 0 
F3 F1- 8 f 0.378(2) 0.200(3) 0.209(2) 1. 0 
F4 F1- 8 f 0.369(2) 0.227(2) 0.547(2) 1. 0 
F5 F1- 8 f 0.504(1) 0.417(2) 0.652(2) 1. 0 
F6 F1- 8 f 0.243(2) 0.418(3) 0.091(1) 1. 0 
F7 F1- 8 f 0.444(1) 0.049(3) 0.384(1) 1. 0 

#End of data_202760-ICSD


