data_413089-ICSD
#?2014 by Fachinformationszentrum Karlsruhe, and the U.S. Secretary of 
#Commerce on behalf of the United States.  All rights reserved.
_database_code_ICSD                413089
_audit_creation_date               2004/10/01
_audit_update_record               2007/08/01
_chemical_name_systematic          'Disilver Selenate(VI)'
_chemical_formula_structural       'Ag2 (Se O4)'
_chemical_formula_sum              'Ag2 O4 Se1'
_publ_section_title
;
Investigations in the systems Ag - Hg - X - O (X = As(V), Se(IV), 
Se(VI)): hydrothermal single crystal growth of Ag3 As O4, Ag Hg(I)2 
As O4, Ag Hg(II) As O4, Ag2 Se O4 and the crystal structure of Ag2 
Hg(II) (Se O3)2
;
loop_
_citation_id
_citation_journal_abbrev
_citation_year
_citation_journal_volume
_citation_page_first
_citation_page_last
_citation_journal_id_ASTM
primary 'Zeitschrift fuer Naturforschung, B: Chemical Sciences'
 2003 58 1091 1096 ZNBSEN
2 'Golden Book of Phase Transitions, Wroclaw' 2002 1 1 123 GBOPT5
_publ_author_name                  'Weil, M.'
_cell_length_a                     6.0531(9)
_cell_length_b                     10.3898(11)
_cell_length_c                     13.0001(11)
_cell_angle_alpha                  90.
_cell_angle_beta                   90.
_cell_angle_gamma                  90.
_cell_volume                       817.58
_cell_formula_units_Z              8
_symmetry_space_group_name_H-M     'F d d d Z'
_symmetry_Int_Tables_number        70
_refine_ls_R_factor_all            .0291
loop_
_symmetry_equiv_pos_site_id
_symmetry_equiv_pos_as_xyz
  1	'x+.75, y+.75, -z'
  2	'x+.75, -y, z+.75'
  3	'-x, y+.75, z+.75'
  4	'-x, -y, -z'
  5	'-x+.25, -y+.25, z'
  6	'-x+.25, y, -z+.25'
  7	'x, -y+.25, -z+.25'
  8	'x, y, z'
  9	'x+.75, y+.25, -z+.5'
 10	'x+.25, y+.75, -z+.5'
 11	'x+.25, y+.25, -z'
 12	'x+.75, -y+.5, z+.25'
 13	'x+.25, -y, z+.25'
 14	'x+.25, -y+.5, z+.75'
 15	'-x, y+.25, z+.25'
 16	'-x+.5, y+.75, z+.25'
 17	'-x+.5, y+.25, z+.75'
 18	'-x, -y+.5, -z+.5'
 19	'-x+.5, -y, -z+.5'
 20	'-x+.5, -y+.5, -z'
 21	'-x+.25, -y+.75, z+.5'
 22	'-x+.75, -y+.25, z+.5'
 23	'-x+.75, -y+.75, z'
 24	'-x+.25, y+.5, -z+.75'
 25	'-x+.75, y, -z+.75'
 26	'-x+.75, y+.5, -z+.25'
 27	'x, -y+.75, -z+.75'
 28	'x+.5, -y+.25, -z+.75'
 29	'x+.5, -y+.75, -z+.25'
 30	'x, y+.5, z+.5'
 31	'x+.5, y, z+.5'
 32	'x+.5, y+.5, z'
loop_
_atom_type_symbol
_atom_type_oxidation_number
Ag1+	1
O2-	-2
Se6+	6
loop_
_atom_site_label
_atom_site_type_symbol
_atom_site_symmetry_multiplicity
_atom_site_Wyckoff_symbol
_atom_site_fract_x
_atom_site_fract_y
_atom_site_fract_z
_atom_site_occupancy
_atom_site_attached_hydrogens
_atom_site_U_iso_or_equiv
Ag1 Ag1+ 16 f 0.125 0.44750(5) 0.125 1. 0 0.0174(2) 
Se1 Se6+ 8 a 0.125 0.125 0.125 1. 0 0.0148(2) 
O1 O2- 32 h 0.2790(5) 0.0304(3) 0.0533(2) 1. 0 0.0273(7) 

loop_
_atom_site_aniso_label
_atom_site_aniso_type_symbol
_atom_site_aniso_U_11
_atom_site_aniso_U_22
_atom_site_aniso_U_33
_atom_site_aniso_U_12
_atom_site_aniso_U_13
_atom_site_aniso_U_23
Ag1 Ag1+ 0.0244(3) 0.0385(3) 0.0194(3) 0 -.00230(14) 0
Se1 Se6+ 0.0113(3) 0.0194(4) 0.0139(3) 0 0 0
O1 O2- 0.0251(13) 0.0352(15) 0.0218(12) 0.0129(11) 0.0042(11) -.0016(10)
#End of data_413089-ICSD


