data_33263-ICSD
#?2014 by Fachinformationszentrum Karlsruhe, and the U.S. Secretary of 
#Commerce on behalf of the United States.  All rights reserved.
_database_code_ICSD                33263
_audit_creation_date               1985/03/07
_chemical_name_systematic          'Potassium Heptalithium Octaamide'
_chemical_formula_structural       'K Li7 (N H2)8'
_chemical_formula_sum              'H16 K1 Li7 N8'
_publ_section_title
;
Schichtenweise Substitution von Kationen im Lithiumamid: 
Kaliumtrilithiumamid, K Li3 (N H2)4 und Kaliumheptalithiumamid, K Li7 
(N H2)8
;
loop_
_citation_id
_citation_journal_abbrev
_citation_year
_citation_journal_volume
_citation_page_first
_citation_page_last
_citation_journal_id_ASTM
primary 'Zeitschrift fuer Anorganische und Allgemeine Chemie (1950) (DE)'
 1984 518 87 100 ZAACAB
_publ_author_name                  'Jacobs, H.;Harbrecht, B.'
_cell_length_a                     7.180(3)
_cell_length_b                     7.180(3)
_cell_length_c                     44.39(2)
_cell_angle_alpha                  90.
_cell_angle_beta                   90.
_cell_angle_gamma                  90.
_cell_volume                       2288.41
_cell_formula_units_Z              8
_symmetry_space_group_name_H-M     'I 41/a Z'
_symmetry_Int_Tables_number        88
_refine_ls_R_factor_all            .065
loop_
_symmetry_equiv_pos_site_id
_symmetry_equiv_pos_as_xyz
  1	'-y+.75, x+.75, -z+.75'
  2	'y+.25, -x+.75, -z+.75'
  3	'x, y+.5, -z'
  4	'-x, -y, -z'
  5	'y+.25, -x+.25, z+.25'
  6	'-y+.75, x+.25, z+.25'
  7	'-x, -y+.5, z'
  8	'x, y, z'
  9	'-y+.25, x+.25, -z+.25'
 10	'y+.75, -x+.25, -z+.25'
 11	'x+.5, y, -z+.5'
 12	'-x+.5, -y+.5, -z+.5'
 13	'y+.75, -x+.75, z+.75'
 14	'-y+.25, x+.75, z+.75'
 15	'-x+.5, -y, z+.5'
 16	'x+.5, y+.5, z+.5'
loop_
_atom_type_symbol
_atom_type_oxidation_number
H1+	1
K1+	1
Li1+	1
N3-	-3
loop_
_atom_site_label
_atom_site_type_symbol
_atom_site_symmetry_multiplicity
_atom_site_Wyckoff_symbol
_atom_site_fract_x
_atom_site_fract_y
_atom_site_fract_z
_atom_site_occupancy
_atom_site_attached_hydrogens
_atom_site_B_iso_or_equiv
K1 K1+ 8 c 0 0 0 1. 0 0 
Li1 Li1+ 8 e 0 0.25 0.3726(3) 1. 0 0 
Li2 Li1+ 8 e 0 0.25 0.0652(3) 1. 0 0 
Li3 Li1+ 8 e 0 0.25 0.3145(4) 1. 0 0 
Li4 Li1+ 8 e 0 0.25 0.4295(4) 1. 0 0 
Li5 Li1+ 8 e 0 0.25 0.5690(3) 1. 0 0 
Li6 Li1+ 16 f 0.251(2) -.002(1) 0.182(2) 1. 0 0 
N1 N3- 16 f -.0139(7) 0.0011(7) 0.0923(1) 1. 0 0 
N2 N3- 16 f -.0096(7) -.007(8) 0.2925(1) 1. 0 0 
N3 N3- 16 f -.0169(7) -.0009(7) 0.5954(1) 1. 0 0 
N4 N3- 16 f -.0098(7) -.0056(8) 0.7921(1) 1. 0 0 
H1 H1+ 16 f -.064(8) -.013(9) 0.108(1) 1. 0 2.(1) 
H2 H1+ 16 f 0.085(10) 0.002(12) 0.092(1) 1. 0 5.(2) 
H3 H1+ 16 f -.008(10) -.052(8) 0.277(1) 1. 0 2.(1) 
H4 H1+ 16 f 0.096(16) 0.008(19) 0.292(2) 1. 0 14.(4) 
H5 H1+ 16 f 0.085(10) 0.004(11) 0.599(1) 1. 0 4.(2) 
H6 H1+ 16 f -.075(8) -.007(8) 0.611(1) 1. 0 2.(1) 
H7 H1+ 16 f -.007(12) 0.056(10) 0.777(1) 1. 0 5.(2) 
H8 H1+ 16 f -.084(12) -.033(13) 0.793(2) 1. 0 8.(3) 

loop_
_atom_site_aniso_label
_atom_site_aniso_type_symbol
_atom_site_aniso_U_11
_atom_site_aniso_U_22
_atom_site_aniso_U_33
_atom_site_aniso_U_12
_atom_site_aniso_U_13
_atom_site_aniso_U_23
K1 K1+ 0.036(1) 0.035(1) 0.041(1) 0 0.002(2) -.004(1)
Li1 Li1+ 0.047(9) 0.05(1) 0.026(7) -.001(9) 0 0
Li2 Li1+ 0.016(6) 0.021(6) 0.018(5) -.006(5) 0 0
Li3 Li1+ 0.06(1) 0.050(8) 0.043(9) -.031(8) 0 0
Li4 Li1+ 0.043(7) 0.05(1) 0.05(1) 0.037(7) 0 0
Li5 Li1+ 0.013(5) 0.020(6) 0.016(5) -.004(5) 0 0
Li6 Li1+ 0.039(6) 0.010(3) 0.045(5) -.017(4) 0.002(5) -.002(4)
N1 N3- 0.031(2) 0.020(2) 0.032(2) 0.008(3) -.004(2) 0.006(2)
N2 N3- 0.013(2) 0.046(2) 0.028(2) -.019(3) 0.002(2) -.002(2)
N3 N3- 0.035(2) 0.019(2) 0.024(2) 0.012(3) 0.001(2) -.007(2)
N4 N3- 0.009(2) 0.049(2) 0.033(2) -.018(3) 0.002(2) 0.003(2)
#End of data_33263-ICSD


