data_82364-ICSD
#?2014 by Fachinformationszentrum Karlsruhe, and the U.S. Secretary of 
#Commerce on behalf of the United States.  All rights reserved.
_database_code_ICSD                82364
_audit_creation_date               1997/11/10
_audit_update_record               2002/04/01
_chemical_name_systematic          'Sodium Erbium Tetrachloride'
_chemical_formula_structural       'Na (Er Cl4)'
_chemical_formula_sum              'Cl4 Er1 Na1'
_publ_section_title
;
Synthese und Kristallstrukturen der ternaeren Selten-Erd-Chloride Na 
M Cl4 (M = Eu - Yb, Y)
;
loop_
_citation_id
_citation_journal_abbrev
_citation_year
_citation_journal_volume
_citation_page_first
_citation_page_last
_citation_journal_id_ASTM
primary 'Zeitschrift fuer Anorganische und Allgemeine Chemie (1950) (DE)'
 1995 621 546 549 ZAACAB
_publ_author_name                  'Wickleder, M.S.;Meyer, G.'
_cell_length_a                     6.3224(12)
_cell_length_b                     7.5978(9)
_cell_length_c                     6.7423(10)
_cell_angle_alpha                  90.
_cell_angle_beta                   92.310(3)
_cell_angle_gamma                  90.
_cell_volume                       323.61
_cell_formula_units_Z              2
_symmetry_space_group_name_H-M     'P 1 2/c 1'
_symmetry_Int_Tables_number        13
_refine_ls_R_factor_all            .028
loop_
_symmetry_equiv_pos_site_id
_symmetry_equiv_pos_as_xyz
  1	'x, -y, z+.5'
  2	'-x, -y, -z'
  3	'-x, y, -z+.5'
  4	'x, y, z'
loop_
_atom_type_symbol
_atom_type_oxidation_number
Cl1-	-1
Er3+	3
Na1+	1
loop_
_atom_site_label
_atom_site_type_symbol
_atom_site_symmetry_multiplicity
_atom_site_Wyckoff_symbol
_atom_site_fract_x
_atom_site_fract_y
_atom_site_fract_z
_atom_site_occupancy
_atom_site_attached_hydrogens
Er1 Er3+ 2 e 0 0.8430(1) 0.25 1. 0 
Na1 Na1+ 2 f 0.5 0.6474(6) 0.75 1. 0 
Cl1 Cl1- 4 g 0.2256(3) 0.8960(2) 0.9335(3) 1. 0 
Cl2 Cl1- 4 g 0.7454(3) 0.6223(2) 0.0924(3) 1. 0 

loop_
_atom_site_aniso_label
_atom_site_aniso_type_symbol
_atom_site_aniso_U_11
_atom_site_aniso_U_22
_atom_site_aniso_U_33
_atom_site_aniso_U_12
_atom_site_aniso_U_13
_atom_site_aniso_U_23
Er1 Er3+ 0.021(1) 0.020(1) 0.019(1) 0 -0.002(1) 0
Na1 Na1+ 0.037(2) 0.039(2) 0.032(2) 0 -0.004(2) 0
Cl1 Cl1- 0.029(1) 0.031(1) 0.029(1) 0.011(1) 0.003(1) 0.006(1)
Cl2 Cl1- 0.037(2) 0.039(2) 0.032(2) -0.014(1) -0.009(1) 0.000(1)
#End of data_82364-ICSD


