data_50087-ICSD
#?2014 by Fachinformationszentrum Karlsruhe, and the U.S. Secretary of 
#Commerce on behalf of the United States.  All rights reserved.
_database_code_ICSD                50087
_audit_creation_date               1999/01/19
_audit_update_record               2010/02/01
_chemical_name_systematic          'Dipotassium Tetrachlorozincate'
_chemical_formula_structural       'K2 (Zn Cl4)'
_chemical_formula_sum              'Cl4 K2 Zn1'
_publ_section_title
;
X-ray study of the low temperature phase transitions in K2 Zn Cl4
;
loop_
_citation_id
_citation_journal_abbrev
_citation_year
_citation_journal_volume
_citation_page_first
_citation_page_last
_citation_journal_id_ASTM
primary 'Phase Transition' 1997 60 1 13 PHTRDP
2 'Golden Book of Phase Transitions, Wroclaw' 2002 1 1 123 GBOPT5
_publ_author_name
;
Kusz, J.;Pietraszko, A.;Warczewski, J.
;
_cell_length_a                     7.209(1)
_cell_length_b                     12.303(1)
_cell_length_c                     26.6660(70)
_cell_angle_alpha                  90.
_cell_angle_beta                   90.
_cell_angle_gamma                  90.
_cell_volume                       2365.07
_cell_formula_units_Z              12
_symmetry_space_group_name_H-M     'P 21 c n'
_symmetry_Int_Tables_number        33
_refine_ls_R_factor_all            .033
loop_
_symmetry_equiv_pos_site_id
_symmetry_equiv_pos_as_xyz
  1	'x, -y+.5, z+.5'
  2	'x+.5, y+.5, -z+.5'
  3	'x+.5, -y, -z'
  4	'x, y, z'
loop_
_atom_type_symbol
_atom_type_oxidation_number
Cl1-	-1
K1+	1
Zn2+	2
loop_
_atom_site_label
_atom_site_type_symbol
_atom_site_symmetry_multiplicity
_atom_site_Wyckoff_symbol
_atom_site_fract_x
_atom_site_fract_y
_atom_site_fract_z
_atom_site_occupancy
_atom_site_attached_hydrogens
_atom_site_U_iso_or_equiv
K1 K1+ 4 a 0.7832(6) 0.0813(2) 0.0430(1) 1. 0 0.0432(10) 
K2 K1+ 4 a 0.7205(5) 0.6879(1) 0.3318(1) 1. 0 0.0209(6) 
Zn1 Zn2+ 4 a 0.75 0.4199(1) 0.0718(1) 1. 0 0.0143(4) 
Cl1 Cl1- 4 a 0.6717(6) 0.4455(2) -.0088(1) 1. 0 0.0198(7) 
Cl2 Cl1- 4 a 0.8203(6) 0.5764(2) 0.1130(1) 1. 0 0.0242(8) 
Cl3 Cl1- 4 a -.0202(6) 0.2980(2) 0.0831(1) 1. 0 0.0280(7) 
Cl4 Cl1- 4 a 0.4892(5) 0.3560(2) 0.1110(1) 1. 0 0.0258(7) 
K3 K1+ 4 a 0.7652(6) 0.0838(2) 0.3799(1) 1. 0 0.0398(9) 
K4 K1+ 4 a 0.7359(5) 0.6854(2) 0.6662(1) 1. 0 0.0226(7) 
Zn2 Zn2+ 4 a 0.7769(2) 0.4173(2) 0.4045(1) 1. 0 0.0147(4) 
Cl5 Cl1- 4 a 0.8161(6) 0.4383(2) 0.3223(1) 1. 0 0.0287(8) 
Cl6 Cl1- 4 a 0.8208(7) 0.5780(2) 0.4445(1) 1. 0 0.0462(12) 
Cl7 Cl1- 4 a -.0103(6) 0.2987(3) 0.4344(1) 1. 0 0.0402(9) 
Cl8 Cl1- 4 a 0.5026(6) 0.3528(2) 0.4293(1) 1. 0 0.0430(9) 
K5 K1+ 4 a 0.7200(5) 0.0818(2) 0.7099(1) 1. 0 0.0278(8) 
K6 K1+ 4 a 0.7957(5) 0.6885(1) 0.9990(1) 1. 0 0.0180(6) 
Zn3 Zn2+ 4 a 0.7327(2) 0.4165(1) 0.7405(1) 1. 0 0.0136(4) 
Cl9 Cl1- 4 a 0.8054(6) 0.4348(2) 0.6591(1) 1. 0 0.0280(8) 
Cl10 Cl1- 4 a 0.6629(6) 0.5746(2) 0.7805(1) 1. 0 0.0224(8) 
Cl11 Cl1- 4 a 0.0024(6) 0.3606(2) 0.7785(1) 1. 0 0.0243(7) 
Cl12 Cl1- 4 a 0.5151(6) 0.2910(2) 0.7556(1) 1. 0 0.0245(7) 

#End of data_50087-ICSD


