data_95964-ICSD
#?2014 by Fachinformationszentrum Karlsruhe, and the U.S. Secretary of 
#Commerce on behalf of the United States.  All rights reserved.
_database_code_ICSD                95964
_audit_creation_date               2004/04/01
_chemical_name_systematic          'Sodium Holmium Germanate'
_chemical_formula_structural       'Na Ho (Ge O4)'
_chemical_formula_sum              'Ge1 Ho1 Na1 O4'
_publ_section_title
;
Hydrothermal synthesis and structural characterization of Na Ln Ge O4 
(Ln = Ho, Er, Tb, Tm, Yb, Lu) family of lanthanide germanates
;
loop_
_citation_id
_citation_journal_abbrev
_citation_year
_citation_journal_volume
_citation_journal_issue
_citation_page_first
_citation_page_last
_citation_journal_id_ASTM
primary 'Journal of Chemical Crystallography' 2002 31 5 281 285 JCCYEV
_publ_author_name
;
Emirdag-Eanes, M.;Krawiec, M.;Kolis, J.W.
;
_cell_length_a                     11.418(4)
_cell_length_b                     6.447(3)
_cell_length_c                     5.270(3)
_cell_angle_alpha                  90
_cell_angle_beta                   90
_cell_angle_gamma                  90
_cell_volume                       387.93
_cell_formula_units_Z              4
_symmetry_space_group_name_H-M     'P n m a'
_symmetry_Int_Tables_number        62
_refine_ls_R_factor_all            .018
loop_
_symmetry_equiv_pos_site_id
_symmetry_equiv_pos_as_xyz
  1	'x+.5, y, -z+.5'
  2	'x, -y+.5, z'
  3	'-x+.5, y+.5, z+.5'
  4	'-x, -y, -z'
  5	'-x+.5, -y, z+.5'
  6	'-x, y+.5, -z'
  7	'x+.5, -y+.5, -z+.5'
  8	'x, y, z'
loop_
_atom_type_symbol
_atom_type_oxidation_number
Ge4+	4
Ho3+	3
Na1+	1
O2-	-2
loop_
_atom_site_label
_atom_site_type_symbol
_atom_site_symmetry_multiplicity
_atom_site_Wyckoff_symbol
_atom_site_fract_x
_atom_site_fract_y
_atom_site_fract_z
_atom_site_occupancy
_atom_site_attached_hydrogens
_atom_site_U_iso_or_equiv
Ho1 Ho3+ 4 c 0.27766(2) 0.250 0.50285(4) 1. 0 0.00493(7) 
Ge1 Ge4+ 4 c 0.59707(5) 0.250 0.5557(1) 1. 0 0.0056(4) 
Na1 Na1+ 4 b 0.5 0.5 0 1. 0 0.0131(2) 
O1 O2- 4 c 0.6104(3) 0.250 0.2310(7) 1. 0 0.0093(3) 
O2 O2- 8 d 0.6733(2) 0.4576(4) 0.7080(5) 1. 0 0.0079(2) 
O3 O2- 4 c 0.4551(3) 0.250 0.6747(8) 1. 0 0.0077(2) 

#End of data_95964-ICSD


