data_9358-ICSD
#?2014 by Fachinformationszentrum Karlsruhe, and the U.S. Secretary of 
#Commerce on behalf of the United States.  All rights reserved.
_database_code_ICSD                9358
_audit_creation_date               1980/01/01
_audit_update_record               2007/04/01
_chemical_name_systematic          'Potassium Indium Bis(molybdate)'
_chemical_formula_structural       'K In (Mo O4)2'
_chemical_formula_sum              'In1 K1 Mo2 O8'
_publ_section_title
;
Crystal structure and thermal stability of double potassium indium 
molybdate, K In (Mo O4)2
;
loop_
_citation_id
_citation_journal_abbrev
_citation_year
_citation_journal_volume
_citation_page_first
_citation_page_last
_citation_journal_id_ASTM
primary Kristallografiya 1971 16 292 296 KRISAJ
2 'Soviet Physics, Crystallography (= Kristallografiya)'
 1971 16 241 245 SPHCA6
_publ_author_name                  'Klevtsova, R.F.;Klevtsov, P.V.'
_cell_length_a                     14.79(2)
_cell_length_b                     8.729(6)
_cell_length_c                     5.879(4)
_cell_angle_alpha                  90.
_cell_angle_beta                   90.
_cell_angle_gamma                  90.
_cell_volume                       758.99
_cell_formula_units_Z              4
_symmetry_space_group_name_H-M     'P n a m'
_symmetry_Int_Tables_number        62
_refine_ls_R_factor_all            .11
loop_
_symmetry_equiv_pos_site_id
_symmetry_equiv_pos_as_xyz
  1	'x+.5, -y+.5, z'
  2	'x, y, -z+.5'
  3	'-x+.5, y+.5, z+.5'
  4	'-x, -y, -z'
  5	'-x+.5, y+.5, -z'
  6	'-x, -y, z+.5'
  7	'x+.5, -y+.5, -z+.5'
  8	'x, y, z'
loop_
_atom_type_symbol
_atom_type_oxidation_number
In3+	3
K1+	1
Mo6+	6
O2-	-2
loop_
_atom_site_label
_atom_site_type_symbol
_atom_site_symmetry_multiplicity
_atom_site_Wyckoff_symbol
_atom_site_fract_x
_atom_site_fract_y
_atom_site_fract_z
_atom_site_occupancy
_atom_site_attached_hydrogens
_atom_site_B_iso_or_equiv
K1 K1+ 4 c 0.1228(7) 0.4543(12) 0.75 1. 0 1.79(15) 
In1 In3+ 4 c 0.10584(17) 0.80309(27) 0.25 1. 0 0.59(3) 
Mo1 Mo6+ 4 c 0.28412(20) 0.50275(38) 0.25 1. 0 0.94(4) 
Mo2 Mo6+ 4 c 0.03854(20) 0.21654(32) 0.25 1. 0 0.74(4) 
O1 O2- 4 c 0.1399(23) 0.1504(36) 0.75 1. 0 1.9(5) 
O2 O2- 8 d 0.1949(15) 0.8925(26) 0.0017(32) 1. 0 1.5(3) 
O3 O2- 4 c 0.1728(20) 0.5909(35) 0.25 1. 0 1.5(5) 
O4 O2- 4 c 0.1483(20) 0.2860(34) 0.25 1. 0 1.4(4) 
O5 O2- 4 c 0.0303(23) 0.0239(39) 0.25 1. 0 1.3(3) 
O6 O2- 8 d 0.0182(13) 0.7080(25) 0.5071(37) 1. 0 1.4 

#End of data_9358-ICSD


