data_24512-ICSD
#?2014 by Fachinformationszentrum Karlsruhe, and the U.S. Secretary of 
#Commerce on behalf of the United States.  All rights reserved.
_database_code_ICSD                24512
_audit_creation_date               1980/01/01
_audit_update_record               1988/03/30
_chemical_name_systematic          'Aluminium Arsenate'
_chemical_formula_structural       'Al As O4'
_chemical_formula_sum              'Al1 As1 O4'
_publ_section_title
;
La struttura cristallina di alcuni fosfati ed arseniati di metalli 
trivalenti. I. Fosfato ed arseniato di alluminio
;
loop_
_citation_id
_citation_journal_abbrev
_citation_year
_citation_journal_volume
_citation_page_first
_citation_page_last
_citation_journal_id_ASTM
primary 'Gazzetta Chimica Italiana' 1934 64 653 662 GCITA9
_publ_author_name                  'Strada, M.'
_cell_length_a                     4.90(1)
_cell_length_b                     4.90(1)
_cell_length_c                     6.64(1)
_cell_angle_alpha                  90.
_cell_angle_beta                   90.
_cell_angle_gamma                  90.
_cell_volume                       159.43
_cell_formula_units_Z              2
_symmetry_space_group_name_H-M     'I -4'
_symmetry_Int_Tables_number        82
loop_
_symmetry_equiv_pos_site_id
_symmetry_equiv_pos_as_xyz
  1	'-y, x, -z'
  2	'y, -x, -z'
  3	'-x, -y, z'
  4	'x, y, z'
  5	'-y+.5, x+.5, -z+.5'
  6	'y+.5, -x+.5, -z+.5'
  7	'-x+.5, -y+.5, z+.5'
  8	'x+.5, y+.5, z+.5'
loop_
_atom_type_symbol
_atom_type_oxidation_number
Al3+	3
As5+	5
O2-	-2
loop_
_atom_site_label
_atom_site_type_symbol
_atom_site_symmetry_multiplicity
_atom_site_Wyckoff_symbol
_atom_site_fract_x
_atom_site_fract_y
_atom_site_fract_z
_atom_site_occupancy
_atom_site_attached_hydrogens
Al1 Al3+ 2 a 0 0 0 1. 0 
As1 As5+ 2 d 0 0.5 0.75 1. 0 
O1 O2- 8 g 0.232 0.271 0.118 1. 0 

#End of data_24512-ICSD


