data_260723-ICSD
#?2014 by Fachinformationszentrum Karlsruhe, and the U.S. Secretary of 
#Commerce on behalf of the United States.  All rights reserved.
_database_code_ICSD                260723
_audit_creation_date               2010/08/01
_chemical_name_systematic          'Aluminium Hexacyclophosphate'
_chemical_formula_structural       'Al2 (P6 O18)'
_chemical_formula_sum              'Al2 O18 P6'
_publ_section_title                'Aluminium cyclohexaphosphate'
loop_
_citation_id
_citation_journal_abbrev
_citation_year
_citation_journal_volume
_citation_journal_issue
_citation_page_first
_citation_page_last
_citation_journal_id_ASTM
primary 'Acta Crystallographica, Section E. Structure Reports Online'
 2010 66 3 i17 i17 ACSEBH
_publ_author_name
;
Oudahmane, A.;Mbarek, A.;El-Ghozzi, M.;Avignant, D.
;
_cell_length_a                     6.0931(2)
_cell_length_b                     15.0676(4)
_cell_length_c                     8.2016(3)
_cell_angle_alpha                  90.00
_cell_angle_beta                   105.1660(10)
_cell_angle_gamma                  90.00
_cell_volume                       726.75
_cell_formula_units_Z              2
_symmetry_space_group_name_H-M     'P 1 21/c 1'
_symmetry_Int_Tables_number        14
_refine_ls_R_factor_all            .0322
loop_
_symmetry_equiv_pos_site_id
_symmetry_equiv_pos_as_xyz
  1	'x, -y+.5, z+.5'
  2	'-x, -y, -z'
  3	'-x, y+.5, -z+.5'
  4	'x, y, z'
loop_
_atom_type_symbol
_atom_type_oxidation_number
Al3+	3
O2-	-2
P5+	5
loop_
_atom_site_label
_atom_site_type_symbol
_atom_site_symmetry_multiplicity
_atom_site_Wyckoff_symbol
_atom_site_fract_x
_atom_site_fract_y
_atom_site_fract_z
_atom_site_occupancy
_atom_site_attached_hydrogens
_atom_site_U_iso_or_equiv
P1 P5+ 4 e 0.70149(15) 0.33738(5) 0.01706(11) 1 0 0.0049(2) 
P2 P5+ 4 e 0.64525(14) 0.04431(5) 0.21869(11) 1 0 0.0050(2) 
P3 P5+ 4 e 0.08497(14) 0.11301(5) -0.20937(11) 1 0 0.0054(2) 
Al1 Al3+ 4 e 0.61549(17) 0.13831(6) -0.12313(13) 1 0 0.0046(3) 
O1 O2- 4 e 0.3051(4) 0.15855(15) -0.1454(3) 1 0 0.0082(5) 
O2 O2- 4 e -0.0766(4) 0.11484(16) -0.1026(3) 1 0 0.0090(5) 
O3 O2- 4 e 0.6755(4) 0.25850(15) -0.0920(3) 1 0 0.0078(5) 
O4 O2- 4 e 0.6653(4) 0.12162(15) 0.1117(3) 1 0 0.0076(5) 
O5 O2- 4 e 0.5656(4) 0.34555(16) 0.1415(3) 1 0 0.0084(5) 
O6 O2- 4 e 0.4448(4) -0.01495(15) 0.1608(3) 1 0 0.0073(5) 
O7 O2- 4 e 0.6509(5) 0.42395(15) -0.0967(3) 1 0 0.0109(5) 
O8 O2- 4 e 0.8737(4) -0.01227(15) 0.2539(3) 1 0 0.0110(5) 
O9 O2- 4 e 0.9653(4) 0.34779(16) 0.1085(3) 1 0 0.0107(5) 

loop_
_atom_site_aniso_label
_atom_site_aniso_type_symbol
_atom_site_aniso_U_11
_atom_site_aniso_U_22
_atom_site_aniso_U_33
_atom_site_aniso_U_12
_atom_site_aniso_U_13
_atom_site_aniso_U_23
P1 P5+ 0.0052(5) 0.0050(4) 0.0042(5) -0.0007(3) 0.0008(3) 0.0001(3)
P2 P5+ 0.0060(5) 0.0041(4) 0.0050(5) -0.0003(3) 0.0014(3) -0.0009(3)
P3 P5+ 0.0036(5) 0.0058(4) 0.0069(5) 0.0007(3) 0.0015(3) 0.0002(3)
Al1 Al3+ 0.0034(5) 0.0055(5) 0.0052(5) -0.0006(4) 0.0015(4) -0.0003(3)
O1 O2- 0.0045(12) 0.0065(12) 0.0136(13) -0.0012(9) 0.0025(10) -0.0021(9)
O2 O2- 0.0050(12) 0.0127(12) 0.0094(13) -0.0002(9) 0.0024(10) 0.0014(10)
O3 O2- 0.0110(13) 0.0045(11) 0.0077(12) -0.0028(9) 0.0020(10) -0.0015(9)
O4 O2- 0.0119(13) 0.0059(11) 0.0053(12) -0.0022(9) 0.0025(10) -0.0007(9)
O5 O2- 0.0066(13) 0.0132(12) 0.0057(12) 0.0000(9) 0.0020(10) 0.0003(9)
O6 O2- 0.0060(12) 0.0063(12) 0.0098(12) 0.0002(9) 0.0025(10) -0.0012(9)
O7 O2- 0.0221(15) 0.0059(12) 0.0053(12) 0.0033(9) 0.0045(11) 0.0022(9)
O8 O2- 0.0061(12) 0.0073(12) 0.0175(14) -0.0004(9) -0.0007(10) -0.0038(9)
O9 O2- 0.0052(13) 0.0186(13) 0.0084(13) -0.0021(10) 0.0019(10) -0.0062(10)
#End of data_260723-ICSD


