data_173459-ICSD
#?2014 by Fachinformationszentrum Karlsruhe, and the U.S. Secretary of 
#Commerce on behalf of the United States.  All rights reserved.
_database_code_ICSD                173459
_audit_creation_date               2009/02/01
_chemical_name_systematic          'Dicalcium Germanate'
_chemical_formula_structural       'Ca2 (Ge O4)'
_chemical_formula_sum              'Ca2 Ge1 O4'
_publ_section_title
;
On the crystal chemistry of olivine-type germanate compounds, Ca(1+x) 
M(1-x) Ge O4 (M(2+) = Ca, Mg, Co, Mn)
;
loop_
_citation_id
_citation_journal_abbrev
_citation_year
_citation_journal_volume
_citation_journal_issue
_citation_page_first
_citation_page_last
_citation_journal_id_ASTM
primary 'Acta Crystallographica, Section B: Structural Science'
 2008 64 3 261 271 ASBSDK
_publ_author_name
;
Redhammer, G.J.;Roth, G.;Amthauer, G.;Lottermoser, W.
;
_cell_length_a                     11.3919(7)
_cell_length_b                     6.7800(4)
_cell_length_c                     5.2424(3)
_cell_angle_alpha                  90
_cell_angle_beta                   90
_cell_angle_gamma                  90
_cell_volume                       404.91
_cell_formula_units_Z              4
_symmetry_space_group_name_H-M     'P n m a'
_symmetry_Int_Tables_number        62
_refine_ls_R_factor_all            .0187
loop_
_symmetry_equiv_pos_site_id
_symmetry_equiv_pos_as_xyz
  1	'x+.5, y, -z+.5'
  2	'x, -y+.5, z'
  3	'-x+.5, y+.5, z+.5'
  4	'-x, -y, -z'
  5	'-x+.5, -y, z+.5'
  6	'-x, y+.5, -z'
  7	'x+.5, -y+.5, -z+.5'
  8	'x, y, z'
loop_
_atom_type_symbol
_atom_type_oxidation_number
Ca2+	2
Ge4+	4
O2-	-2
loop_
_atom_site_label
_atom_site_type_symbol
_atom_site_symmetry_multiplicity
_atom_site_Wyckoff_symbol
_atom_site_fract_x
_atom_site_fract_y
_atom_site_fract_z
_atom_site_occupancy
_atom_site_attached_hydrogens
_atom_site_U_iso_or_equiv
Ge1 Ge4+ 4 c 0.40390(3) 0.25 0.06928(5) 1 0 0.00632(14) 
Ca1 Ca2+ 4 a 0.5 0 0.5 1 0 0.00852(16) 
Ca2 Ca2+ 4 c 0.22011(5) 0.25 0.50770(11) 1 0 0.00785(16) 
O1 O2- 4 c 0.40739(17) 0.25 -0.2630(4) 1 0 0.0090(4) 
O2 O2- 4 c 0.54566(17) 0.25 0.2119(4) 1 0 0.0084(4) 
O3 O2- 8 d 0.33625(12) 0.0447(2) 0.2146(3) 1 0 0.0093(3) 

loop_
_atom_site_aniso_label
_atom_site_aniso_type_symbol
_atom_site_aniso_U_11
_atom_site_aniso_U_22
_atom_site_aniso_U_33
_atom_site_aniso_U_12
_atom_site_aniso_U_13
_atom_site_aniso_U_23
Ge1 Ge4+ 0.0064(2) 0.00650(18) 0.00606(19) 0 0.00010(10) 0
Ca1 Ca2+ 0.0102(3) 0.0069(3) 0.0084(3) 0.0018(2) -0.0002(2) 0.00047(19)
Ca2 Ca2+ 0.0062(3) 0.0078(3) 0.0096(3) 0 -0.0002(2) 0
O1 O2- 0.0120(10) 0.0092(9) 0.0059(9) 0 0.0002(7) 0
O2 O2- 0.0066(9) 0.0092(9) 0.0095(9) 0 -0.0002(7) 0
O3 O2- 0.0093(6) 0.0083(6) 0.0102(7) -0.0017(5) 0.0004(5) 0.0003(5)
#End of data_173459-ICSD


