data_20692-ICSD
#?2014 by Fachinformationszentrum Karlsruhe, and the U.S. Secretary of 
#Commerce on behalf of the United States.  All rights reserved.
_database_code_ICSD                20692
_audit_creation_date               1983/12/31
_audit_update_record               2012/02/01
_chemical_name_systematic          'Dipotassium Yttrium Fluoride'
_chemical_formula_structural       'K2 Y F5'
_chemical_formula_sum              'F5 K2 Y1'
_publ_section_title
;
The crystal structure of potassium yttrofluoride K2 Y F5
;
loop_
_citation_id
_citation_journal_abbrev
_citation_year
_citation_journal_volume
_citation_page_first
_citation_page_last
_citation_journal_id_ASTM
primary Kristallografiya 1983 28 1031 1032 KRISAJ
2 'Soviet Physics, Crystallography (= Kristallografiya)'
 1983 28 610 611 SPHCA6
_publ_author_name
;
Kharitonov, Yu.A.;Gorbunov, Yu.A.;Maksimov, B.A.
;
_cell_length_a                     10.791(2)
_cell_length_b                     6.607(1)
_cell_length_c                     7.263(1)
_cell_angle_alpha                  90.
_cell_angle_beta                   90.
_cell_angle_gamma                  90.
_cell_volume                       517.82
_cell_formula_units_Z              4
_symmetry_space_group_name_H-M     'P n a 21'
_symmetry_Int_Tables_number        33
_refine_ls_R_factor_all            .064
loop_
_symmetry_equiv_pos_site_id
_symmetry_equiv_pos_as_xyz
  1	'x+.5, -y+.5, z'
  2	'-x+.5, y+.5, z+.5'
  3	'-x, -y, z+.5'
  4	'x, y, z'
loop_
_atom_type_symbol
_atom_type_oxidation_number
F1-	-1
K1+	1
Y3+	3
loop_
_atom_site_label
_atom_site_type_symbol
_atom_site_symmetry_multiplicity
_atom_site_Wyckoff_symbol
_atom_site_fract_x
_atom_site_fract_y
_atom_site_fract_z
_atom_site_occupancy
_atom_site_attached_hydrogens
_atom_site_B_iso_or_equiv
Y1 Y3+ 4 a 0.4970(2) 0.4342(2) 0 1. 0 0.15(4) 
K1 K1+ 4 a 0.1687(4) 0.4687(5) 0.7465(5) 1. 0 0.79(8) 
K2 K1+ 4 a 0.1722(4) 0.4561(4) 0.2559(3) 1. 0 0.65(9) 
F1 F1- 4 a 0.488(2) 0.104(1) -.007(1) 1. 0 0.36(9) 
F2 F1- 4 a 0.193(1) 0.160(1) 0.016(1) 1. 0 0.28(7) 
F3 F1- 4 a 0.169(1) 0.123(2) 0.514(1) 1. 0 0.32(9) 
F4 F1- 4 a 0.438(1) 0.343(1) 0.709(1) 1. 0 0.45(8) 
F5 F1- 4 a 0.418(2) 0.359(1) 0.282(1) 1. 0 0.29(7) 

#End of data_20692-ICSD


