data_414429-ICSD
#?2014 by Fachinformationszentrum Karlsruhe, and the U.S. Secretary of 
#Commerce on behalf of the United States.  All rights reserved.
_database_code_ICSD                414429
_audit_creation_date               2005/10/01
_chemical_name_systematic          'Silver Mercury Vanadate'
_chemical_formula_structural       'Ag Hg (V O4)'
_chemical_formula_sum              'Ag1 Hg1 O4 V1'
_publ_section_title
;
Hydrothermal single-crystal growth in the systems Ag/Hg/X/O (X = 
V(V), As(V)): crystal structures of (Ag3 Hg) V O4, (Ag2 Hg2)3 (V 
O4)4, and (Ag2 Hg2)2 (Hg O2) (As O4)2 with the unusual tetrahedral 
cluster cations (Ag3 Hg)(3+) and (Ag2 Hg2)(4+) and crystal
;
loop_
_citation_id
_citation_journal_abbrev
_citation_year
_citation_journal_volume
_citation_journal_issue
_citation_page_first
_citation_page_last
_citation_journal_id_ASTM
primary 'Inorganic Chemistry' 2005 44 5 1443 1451 INOCAJ
_publ_author_name
;
Weil, M.;Tillmanns, E.;Pushcharovsky, D.Yu.
;
_cell_length_a                     9.9407(18)
_cell_length_b                     5.5730(8)
_cell_length_c                     7.1210(19)
_cell_angle_alpha                  90.00
_cell_angle_beta                   94.561(10)
_cell_angle_gamma                  90.00
_cell_volume                       393.25
_cell_formula_units_Z              4
_symmetry_space_group_name_H-M     'C 1 2 1'
_symmetry_Int_Tables_number        5
_refine_ls_R_factor_all            .0442
loop_
_symmetry_equiv_pos_site_id
_symmetry_equiv_pos_as_xyz
  1	'-x, y, -z'
  2	'x, y, z'
  3	'-x+.5, y+.5, -z'
  4	'x+.5, y+.5, z'
loop_
_atom_type_symbol
_atom_type_oxidation_number
Ag1+	1
Hg2+	2
O2-	-2
V5+	5
loop_
_atom_site_label
_atom_site_type_symbol
_atom_site_symmetry_multiplicity
_atom_site_Wyckoff_symbol
_atom_site_fract_x
_atom_site_fract_y
_atom_site_fract_z
_atom_site_occupancy
_atom_site_attached_hydrogens
_atom_site_U_iso_or_equiv
Hg1 Hg2+ 2 b 0.0000 0.0005(3) 0.5000 1 0 0.01537(19) 
Hg2 Hg2+ 2 a 0.0000 -0.0001(3) 0.0000 1 0 0.01354(19) 
Ag1 Ag1+ 4 c 0.13903(10) 0.4996(8) 0.75522(12) 1 0 0.0259(3) 
V1 V5+ 4 c 0.18596(18) 0.4966(17) 0.2484(2) 1 0 0.0118(4) 
O1 O2- 4 c 0.1410(11) 0.200(2) 0.2315(14) 1 0 0.025(2) 
O2 O2- 4 c 0.3675(9) 0.5548(17) 0.2620(11) 1 0 0.018(2) 
O3 O2- 4 c 0.3755(12) 0.121(2) 0.5519(14) 1 0 0.032(2) 
O4 O2- 4 c 0.6198(10) 0.153(2) 0.0510(14) 1 0 0.023(2) 

loop_
_atom_site_aniso_label
_atom_site_aniso_type_symbol
_atom_site_aniso_U_11
_atom_site_aniso_U_22
_atom_site_aniso_U_33
_atom_site_aniso_U_12
_atom_site_aniso_U_13
_atom_site_aniso_U_23
Hg1 Hg2+ 0.0147(3) 0.0170(3) 0.0137(3) 0.000 -0.00345(17) 0.000
Hg2 Hg2+ 0.0147(3) 0.0129(3) 0.0131(3) 0.000 0.00177(17) 0.000
Ag1 Ag1+ 0.0313(5) 0.0222(4) 0.0243(4) -0.003(3) 0.0026(3) 0.0014(15)
V1 V5+ 0.0108(7) 0.0117(9) 0.0129(7) -0.004(4) 0.0002(5) -0.001(3)
#End of data_414429-ICSD


