data_69563-ICSD
#?2014 by Fachinformationszentrum Karlsruhe, and the U.S. Secretary of 
#Commerce on behalf of the United States.  All rights reserved.
_database_code_ICSD                69563
_audit_creation_date               1992/08/20
_audit_update_record               2006/04/01
_chemical_name_systematic
;
Calcium Pentafluoroaluminate - Alpha
;
_chemical_formula_structural       'Ca (Al F5)'
_chemical_formula_sum              'Al1 Ca1 F5'
_publ_section_title
;
Refinement of the room-temperature structure of alpha-CaAlF5
;
loop_
_citation_id
_citation_journal_abbrev
_citation_year
_citation_journal_volume
_citation_page_first
_citation_page_last
_citation_journal_id_ASTM
primary 'Acta Crystallographica, Section C: Crystal Structure Communications'
 1991 47 1302 1303 ACSCEE
2 'Golden Book of Phase Transitions, Wroclaw' 2002 1 1 123 GBOPT5
_publ_author_name                  'Hemon, A.;Courbion, G.'
_cell_length_a                     8.712(3)
_cell_length_b                     6.317(2)
_cell_length_c                     7.349(3)
_cell_angle_alpha                  90.
_cell_angle_beta                   115.04(3)
_cell_angle_gamma                  90.
_cell_volume                       366.43
_cell_formula_units_Z              4
_symmetry_space_group_name_H-M     'C 1 2/c 1'
_symmetry_Int_Tables_number        15
_refine_ls_R_factor_all            .02
loop_
_symmetry_equiv_pos_site_id
_symmetry_equiv_pos_as_xyz
  1	'x, -y, z+.5'
  2	'-x, -y, -z'
  3	'-x, y, -z+.5'
  4	'x, y, z'
  5	'x+.5, -y+.5, z+.5'
  6	'-x+.5, -y+.5, -z'
  7	'-x+.5, y+.5, -z+.5'
  8	'x+.5, y+.5, z'
loop_
_atom_type_symbol
_atom_type_oxidation_number
Al3+	3
Ca2+	2
F1-	-1
loop_
_atom_site_label
_atom_site_type_symbol
_atom_site_symmetry_multiplicity
_atom_site_Wyckoff_symbol
_atom_site_fract_x
_atom_site_fract_y
_atom_site_fract_z
_atom_site_occupancy
_atom_site_attached_hydrogens
Ca1 Ca2+ 4 e 0 0.5424 0.25 1. 0 
Al1 Al3+ 4 a 0 0 0 1. 0 
F1 F1- 4 e 0 0.9422(1) 0.25 1. 0 
F2 F1- 8 f 0.0114(1) 0.7169(1) 0.9737(1) 1. 0 
F3 F1- 8 f 0.7789(1) 0.9822(1) 0.8870(1) 1. 0 

loop_
_atom_site_aniso_label
_atom_site_aniso_type_symbol
_atom_site_aniso_U_11
_atom_site_aniso_U_22
_atom_site_aniso_U_33
_atom_site_aniso_U_12
_atom_site_aniso_U_13
_atom_site_aniso_U_23
Ca1 Ca2+ 0.0074(1) 0.0077(1) 0.0068(1) 0 0.0031(1) 0.0(1)
Al1 Al3+ 0.0068(1) 0.0059(1) 0.0058(1) -.0002(1) 0.0029(1) 0.0001(1)
F1 F1- 0.0207(3) 0.0110(3) 0.0085(3) 0 0.0089(3) 0
F2 F1- 0.0223(2) 0.0066(2) 0.0114(2) 0.0006(2) 0.0098(2) -.0006(2)
F3 F1- 0.0070(2) 0.0243(3) 0.0191(3) -.0011(2) 0.0029(2) 0.0000(2)
#End of data_69563-ICSD


