data_50474-ICSD
#?2014 by Fachinformationszentrum Karlsruhe, and the U.S. Secretary of 
#Commerce on behalf of the United States.  All rights reserved.
_database_code_ICSD                50474
_audit_creation_date               1999/11/30
_audit_update_record               2010/08/01
_chemical_name_systematic
;
Strontium Tetrafluoroaluminate Fluoride - Supercell
;
_chemical_formula_structural       'Sr (Al F4) F'
_chemical_formula_sum              'Al1 F5 Sr1'
_publ_section_title
;
The crystal structure of Sr Al F5 and Ba0.43(1) Sr0.57(1) Al F5
;
loop_
_citation_id
_citation_journal_abbrev
_citation_year
_citation_journal_volume
_citation_page_first
_citation_page_last
_citation_journal_id_ASTM
primary 'Zeitschrift fuer Anorganische und Allgemeine Chemie (1950) (DE)'
 1998 624 1481 1486 ZAACAB
2 'Phase Transition' 1992 38 127 220 PHTRDP
_publ_author_name                  'Kubel, F.'
_cell_length_a                     19.8822(14)
_cell_length_b                     19.8822(14)
_cell_length_c                     14.3224(19)
_cell_angle_alpha                  90.
_cell_angle_beta                   90.
_cell_angle_gamma                  90.
_cell_volume                       5661.67
_cell_formula_units_Z              64
_symmetry_space_group_name_H-M     'I 41/a Z'
_symmetry_Int_Tables_number        88
_refine_ls_R_factor_all            .027
loop_
_symmetry_equiv_pos_site_id
_symmetry_equiv_pos_as_xyz
  1	'-y+.75, x+.75, -z+.75'
  2	'y+.25, -x+.75, -z+.75'
  3	'x, y+.5, -z'
  4	'-x, -y, -z'
  5	'y+.25, -x+.25, z+.25'
  6	'-y+.75, x+.25, z+.25'
  7	'-x, -y+.5, z'
  8	'x, y, z'
  9	'-y+.25, x+.25, -z+.25'
 10	'y+.75, -x+.25, -z+.25'
 11	'x+.5, y, -z+.5'
 12	'-x+.5, -y+.5, -z+.5'
 13	'y+.75, -x+.75, z+.75'
 14	'-y+.25, x+.75, z+.75'
 15	'-x+.5, -y, z+.5'
 16	'x+.5, y+.5, z+.5'
loop_
_atom_type_symbol
_atom_type_oxidation_number
Al3+	3
F1-	-1
Sr2+	2
loop_
_atom_site_label
_atom_site_type_symbol
_atom_site_symmetry_multiplicity
_atom_site_Wyckoff_symbol
_atom_site_fract_x
_atom_site_fract_y
_atom_site_fract_z
_atom_site_occupancy
_atom_site_attached_hydrogens
_atom_site_U_iso_or_equiv
F1 F1- 16 f 0.0116(2) 0.0046(2) 0.6182(4) 1. 0 0.0106(9) 
F2 F1- 16 f 0.0132(2) 0.0089(2) 0.1224(5) 1. 0 0.015(1) 
F3 F1- 16 f 0.0338(3) 0.3314(3) 0.2699(4) 1. 0 0.012(1) 
F4 F1- 16 f 0.0545(1) 0.2275(1) 0.3754(5) 1. 0 0.0123(5) 
F5 F1- 16 f 0.0671(3) 0.2256(3) 0.5556(4) 1. 0 0.012(1) 
F6 F1- 16 f 0.0672(3) 0.2258(3) 0.1955(3) 1. 0 0.014(1) 
F7 F1- 16 f 0.0692(3) 0.0746(3) 0.2890(4) 1. 0 0.016(1) 
Al1 Al3+ 16 f 0.0768(1) 0.0080(1) 0.3741(1) 1. 0 0.0067(6) 
F8 F1- 16 f 0.0787(2) 0.0756(2) 0.4617(3) 1. 0 0.0070(9) 
Sr1 Sr2+ 16 f 0.08027(4) 0.11363(4) 0.6281(1) 1. 0 0.0089(2) 
Sr2 Sr2+ 16 f 0.08129(4) 0.11493(4) 0.1214(1) 1. 0 0.0082(2) 
F9 F1- 16 f 0.1610(2) 0.0202(2) 0.6182(4) 1. 0 0.0091(9) 
Sr3 Sr2+ 16 f 0.16104(4) 0.15786(4) 0.3753(1) 1. 0 0.0096(2) 
F10 F1- 16 f 0.1635(2) 0.0224(2) 0.1223(5) 1. 0 0.0111(9) 
F11 F1- 16 f 0.1670(2) 0.0274(2) 0.3788(5) 1. 0 0.018(1) 
F12 F1- 16 f 0.1921(2) 0.1644(2) 0.2116(3) 1. 0 0.011(1) 
F13 F1- 16 f 0.1943(2) 0.1534(2) 0.0395(3) 1. 0 0.009(1) 
F14 F1- 16 f 0.1946(3) 0.1561(3) 0.5379(4) 1. 0 0.014(1) 
Al2 Al3+ 16 f 0.2510(1) 0.0016(1) 0.1250(6) 1. 0 0.0056(2) 
F15 F1- 16 f 0.2517(3) 0.0040(3) 0.0026(5) 1. 0 0.0235(7) 
Al3 Al3+ 16 f 0.2566(1) 0.1759(1) 0.1259(4) 1. 0 0.0062(6) 
F16 F1- 16 f 0.2778(2) 0.0859(2) 0.1352(3) 1. 0 0.0064(9) 
F17 F1- 16 f 0.3226(3) 0.1856(3) 0.0396(3) 1. 0 0.012(1) 
F18 F1- 16 f 0.3229(3) 0.1803(3) 0.2112(4) 1. 0 0.016(2) 
Sr4 Sr2+ 16 f 0.40958(4) 0.09028(4) 0.1243(1) 1. 0 0.0087(2) 
F19 F1- 16 f 0.4099(3) 0.5583(3) 0.0413(4) 1. 0 0.011(1) 
F20 F1- 16 f 0.4675(3) 0.1680(3) 0.0142(4) 1. 0 0.017(1) 
Al4 Al3+ 8 e 0 0.25 0.2704(2) 1. 0 0.007(1) 
Al5 Al3+ 8 e 0 0.25 0.4808(2) 1. 0 0.008(2) 

#End of data_50474-ICSD


