data_240292-ICSD
#?2014 by Fachinformationszentrum Karlsruhe, and the U.S. Secretary of 
#Commerce on behalf of the United States.  All rights reserved.
_database_code_ICSD                240292
_audit_creation_date               2005/10/01
_chemical_name_systematic          'Copper Arsenic Fluoride'
_chemical_formula_structural       'Cs Cu (Al F6)'
_chemical_formula_sum              'Al1 Cs1 Cu1 F6'
_publ_section_title
;
Compressed octahedral coordination in chain compounds containing 
divalent copper: Structure and magnetic properties of CuFAsF6 and 
CsCuAlF6
;
loop_
_citation_id
_citation_journal_abbrev
_citation_year
_citation_journal_volume
_citation_page_first
_citation_page_last
_citation_journal_id_ASTM
primary 'Chemistry - A European Journal' 2004 10 5052 5058 CEUJED
_publ_author_name
;
Mazej, Z.;Arcon, I.;Benkic, P.;Kodre, A.;Tressaud, A.
;
_cell_length_a                     7.094(2)
_cell_length_b                     7.134(2)
_cell_length_c                     10.244(3)
_cell_angle_alpha                  90.
_cell_angle_beta                   90.
_cell_angle_gamma                  90.
_cell_volume                       518.43
_cell_formula_units_Z              4
_symmetry_space_group_name_H-M     'P n m a'
_symmetry_Int_Tables_number        62
_refine_ls_R_factor_all            .0334
loop_
_symmetry_equiv_pos_site_id
_symmetry_equiv_pos_as_xyz
  1	'x+.5, y, -z+.5'
  2	'x, -y+.5, z'
  3	'-x+.5, y+.5, z+.5'
  4	'-x, -y, -z'
  5	'-x+.5, -y, z+.5'
  6	'-x, y+.5, -z'
  7	'x+.5, -y+.5, -z+.5'
  8	'x, y, z'
loop_
_atom_type_symbol
_atom_type_oxidation_number
Al3+	3
Cs1+	1
Cu2+	2
F1-	-1
loop_
_atom_site_label
_atom_site_type_symbol
_atom_site_symmetry_multiplicity
_atom_site_Wyckoff_symbol
_atom_site_fract_x
_atom_site_fract_y
_atom_site_fract_z
_atom_site_occupancy
_atom_site_attached_hydrogens
_atom_site_B_iso_or_equiv
Cs1 Cs1+ 4 c .482(3) .25 .129(2) 1 0 .30(2) 
Cu1 Cu2+ 4 c .274(4) .25 .759(2) 1 0 .30(2) 
Al1 Al3+ 4 a 0 0 0 1 0 .30(2) 
F1 F1- 4 c .033(4) .25 .678(2) 1 0 1.00(2) 
F2 F1- 4 c .483(3) .25 .456(2) 1.00 0 1.00(2) 
F3 F1- 8 d .150(2) .971(2) .139(1) 1.00 0 1.00(2) 
F4 F1- 8 d .203 .047(2) .895(1) 1.00 0 1.00(2) 

#End of data_240292-ICSD


