data_414261-ICSD
#?2014 by Fachinformationszentrum Karlsruhe, and the U.S. Secretary of 
#Commerce on behalf of the United States.  All rights reserved.
_database_code_ICSD                414261
_audit_creation_date               2005/10/01
_chemical_name_systematic
;
Dibismuthtetrachloride Bis(aluminiumtetrachloride)
;
_chemical_formula_structural       '(Bi2 Cl4) (Al Cl4)2'
_chemical_formula_sum              'Al2 Bi2 Cl12'
_publ_section_title
;
The Lewis acid-base adducts of bismuth and aluminium trihalides - 
crystal structures of [Bi2 X4] [Al X4]2 (X = Cl, Br)
;
loop_
_citation_id
_citation_journal_abbrev
_citation_year
_citation_journal_volume
_citation_page_first
_citation_page_last
_citation_journal_id_ASTM
primary 'Zeitschrift fuer Kristallographie (1979-2010)' 2005 220 147 151 ZEKRDZ
_publ_author_name
;
Beck, J.;Hengstmann, M.;Schlueter, S.
;
_cell_length_a                     7.7322(2)
_cell_length_b                     11.9565(3)
_cell_length_c                     10.3535(3)
_cell_angle_alpha                  90.00
_cell_angle_beta                   95.090(2)
_cell_angle_gamma                  90.00
_cell_volume                       953.41
_cell_formula_units_Z              2
_symmetry_space_group_name_H-M     'P 1 21/c 1'
_symmetry_Int_Tables_number        14
_refine_ls_R_factor_all            .0423
loop_
_symmetry_equiv_pos_site_id
_symmetry_equiv_pos_as_xyz
  1	'x, -y+.5, z+.5'
  2	'-x, -y, -z'
  3	'-x, y+.5, -z+.5'
  4	'x, y, z'
loop_
_atom_type_symbol
_atom_type_oxidation_number
Al3+	3
Bi3+	3
Cl1-	-1
loop_
_atom_site_label
_atom_site_type_symbol
_atom_site_symmetry_multiplicity
_atom_site_Wyckoff_symbol
_atom_site_fract_x
_atom_site_fract_y
_atom_site_fract_z
_atom_site_occupancy
_atom_site_attached_hydrogens
_atom_site_U_iso_or_equiv
Bi1 Bi3+ 4 e 0.18926(3) 0.46296(2) 0.14839(2) 1 0 0.03644(15) 
Al1 Al3+ 4 e 0.5037(3) 0.72705(16) 0.22129(19) 1 0 0.0355(4) 
Cl1 Cl1- 4 e 0.4761(3) 0.90049(14) 0.17701(18) 1 0 0.0493(4) 
Cl2 Cl1- 4 e 0.2924(2) 0.66086(16) 0.31858(17) 1 0 0.0434(4) 
Cl3 Cl1- 4 e 0.5022(3) 0.62923(15) 0.04943(16) 1 0 0.0478(4) 
Cl4 Cl1- 4 e 0.7475(2) 0.71346(15) 0.33513(19) 1 0 0.0490(4) 
Cl5 Cl1- 4 e 0.0128(3) 0.63568(14) 0.0410(2) 1 0 0.0560(5) 
Cl6 Cl1- 4 e -0.0102(3) 0.4325(2) 0.3086(3) 1 0 0.0727(7) 

loop_
_atom_site_aniso_label
_atom_site_aniso_type_symbol
_atom_site_aniso_U_11
_atom_site_aniso_U_22
_atom_site_aniso_U_33
_atom_site_aniso_U_12
_atom_site_aniso_U_13
_atom_site_aniso_U_23
Bi1 Bi3+ 0.02562(18) 0.0368(2) 0.0456(2) 0.00011(9) -0.00417(10) 0.00333(9)
Al1 Al3+ 0.0325(10) 0.0316(10) 0.0415(9) -0.0049(9) -0.0026(8) -0.0077(8)
Cl1 Cl1- 0.0505(10) 0.0329(9) 0.0608(10) -0.0039(8) -0.0160(8) -0.0006(7)
Cl2 Cl1- 0.0396(9) 0.0460(10) 0.0446(8) -0.0071(7) 0.0034(6) -0.0080(7)
Cl3 Cl1- 0.0600(11) 0.0420(9) 0.0423(9) -0.0099(8) 0.0105(7) -0.0115(6)
Cl4 Cl1- 0.0341(9) 0.0420(9) 0.0682(11) 0.0029(8) -0.0113(7) -0.0094(8)
Cl5 Cl1- 0.0542(11) 0.0320(8) 0.0743(12) 0.0071(8) -0.0361(9) -0.0066(7)
Cl6 Cl1- 0.0639(14) 0.0663(13) 0.0933(17) -0.0109(12) 0.0378(13) 
-0.0031(13)
#End of data_414261-ICSD


