data_60801-ICSD
#?2014 by Fachinformationszentrum Karlsruhe, and the U.S. Secretary of 
#Commerce on behalf of the United States.  All rights reserved.
_database_code_ICSD                60801
_audit_creation_date               1988/02/22
_audit_update_record               1999/06/07
_chemical_name_systematic
;
Sodium Calcium Hexafluoroaluminate Hydrate
;
_chemical_formula_structural       'Na Ca (Al F6) (H2 O)'
_chemical_formula_sum              'H2 Al1 Ca1 F6 Na1 O1'
_chemical_name_mineral             Thomsenolite
_publ_section_title
;
Thomsenolite, Na Ca Al F6 (H2 O): hydrogen bonding and comparison 
with pachnolite
;
loop_
_citation_id
_citation_journal_abbrev
_citation_year
_citation_journal_volume
_citation_page_first
_citation_page_last
_citation_journal_id_ASTM
primary 'Canadian Journal of Chemistry' 1985 63 3322 3327 CJCHAG
_publ_author_name
;
Adhikesavalu, D.;Cameron, T.S.;Knop, O.
;
_cell_length_a                     5.563(2)
_cell_length_b                     5.541(2)
_cell_length_c                     16.1150(10)
_cell_angle_alpha                  90.
_cell_angle_beta                   96.35(3)
_cell_angle_gamma                  90.
_cell_volume                       493.69
_cell_formula_units_Z              4
_symmetry_space_group_name_H-M     'P 1 21/c 1'
_symmetry_Int_Tables_number        14
_refine_ls_R_factor_all            .0472
loop_
_symmetry_equiv_pos_site_id
_symmetry_equiv_pos_as_xyz
  1	'x, -y+.5, z+.5'
  2	'-x, -y, -z'
  3	'-x, y+.5, -z+.5'
  4	'x, y, z'
loop_
_atom_type_symbol
_atom_type_oxidation_number
Al3+	3
Ca2+	2
F1-	-1
H1+	1
Na1+	1
O2-	-2
loop_
_atom_site_label
_atom_site_type_symbol
_atom_site_symmetry_multiplicity
_atom_site_Wyckoff_symbol
_atom_site_fract_x
_atom_site_fract_y
_atom_site_fract_z
_atom_site_occupancy
_atom_site_attached_hydrogens
_atom_site_U_iso_or_equiv
Na1 Na1+ 4 e 0.2545(4) 0.1454(4) 0.2484(1) 1. 0 0 
Ca1 Ca2+ 4 e 0.1894(2) 0.6745(2) 0.0990(1) 1. 0 0 
Al1 Al3+ 4 e 0.7177(2) 0.1796(2) 0.1391(1) 1. 0 0 
F1 F1- 4 e 0.5496(5) 0.4643(5) 0.1267(2) 1. 0 0 
F2 F1- 4 e 0.9880(5) 0.3651(5) 0.1563(2) 1. 0 0 
F3 F1- 4 e 0.4408(5) 0.0102(5) 0.1273(2) 1. 0 0 
F4 F1- 4 e 0.9039(5) -.0834(5) 0.1576(2) 1. 0 0 
F5 F1- 4 e 0.6873(5) 0.1985(5) 0.2497(2) 1. 0 0 
F6 F1- 4 e 0.7357(5) 0.1668(5) 0.0294(2) 1. 0 0 
O1 O2- 4 e 0.8008(6) 0.6599(6) 0.0059(2) 1. 0 0 
H1 H1+ 4 e 0.735(13) 0.622(12) 0.0583(30) 1. 0 0.045(21) 
H2 H1+ 4 e 0.749(15) 0.8216(69) -.0127(46) 1. 0 0.049(26) 

loop_
_atom_site_aniso_label
_atom_site_aniso_type_symbol
_atom_site_aniso_U_11
_atom_site_aniso_U_22
_atom_site_aniso_U_33
_atom_site_aniso_U_12
_atom_site_aniso_U_13
_atom_site_aniso_U_23
Na1 Na1+ 0.0153(10) 0.0193(11) 0.0136(10) 0.0057(9) 0.0011(8) 0.0014(9)
Ca1 Ca2+ 0.0042(5) 0.0053(5) 0.0074(5) -.0004(3) -.0005(3) 0.0002(4)
Al1 Al3+ 0.0045(6) 0.0036(7) 0.0068(7) 0.0001(5) -.0014(5) 0.0006(5)
F1 F1- 0.0079(13) 0.0082(14) 0.0144(15) 0.0044(11) -.0010(11) -.0003(11)
F2 F1- 0.0058(13) 0.0097(14) 0.0140(14) -.0042(11) -.001(1) 0.0021(12)
F3 F1- 0.0084(13) 0.0114(14) 0.0145(15) -.0062(11) 0.0014(11) -.0012(12)
F4 F1- 0.0096(13) 0.0076(14) 0.0134(14) 0.0047(11) 0.0014(11) 0.0008(11)
F5 F1- 0.0082(13) 0.0145(16) 0.0082(13) 0.0010(11) -.0004(10) -.0001(11)
F6 F1- 0.0121(14) 0.0088(14) 0.0099(14) -.0023(11) 0.0003(11) 0.0010(11)
O1 O2- 0.0094(16) 0.0078(16) 0.0136(18) 0.0013(13) 0.0002(14) 0.0013(14)
#End of data_60801-ICSD


