data_28016-ICSD
#?2014 by Fachinformationszentrum Karlsruhe, and the U.S. Secretary of 
#Commerce on behalf of the United States.  All rights reserved.
_database_code_ICSD                28016
_audit_creation_date               1980/01/01
_audit_update_record               2006/04/01
_chemical_name_systematic          'Disodium Tricalcium Trisilicate'
_chemical_formula_structural       'Na2 Ca3 (Si3 O10)'
_chemical_formula_sum              'Ca3 Na2 O10 Si3'
_publ_section_title
;
Crystal structure of Na, Ca triorthosilicate, Na2 Ca3 (Si3 O10)
;
loop_
_citation_id
_citation_journal_abbrev
_citation_year
_citation_journal_volume
_citation_page_first
_citation_page_last
_citation_journal_id_ASTM
primary Kristallografiya 1971 16 76 79 KRISAJ
2 'Soviet Physics, Crystallography (= Kristallografiya)'
 1971 16 56 58 SPHCA6
_publ_author_name
;
Treushnikov, E.N.;Ilyukhin, V.V.;Belov, N.V.
;
_cell_length_a                     16.38
_cell_length_b                     5.16
_cell_length_c                     11.74
_cell_angle_alpha                  90.
_cell_angle_beta                   93.
_cell_angle_gamma                  90.
_cell_volume                       990.91
_cell_formula_units_Z              4
_symmetry_space_group_name_H-M     'C 1 2/c 1'
_symmetry_Int_Tables_number        15
_refine_ls_R_factor_all            .101
loop_
_symmetry_equiv_pos_site_id
_symmetry_equiv_pos_as_xyz
  1	'x, -y, z+.5'
  2	'-x, -y, -z'
  3	'-x, y, -z+.5'
  4	'x, y, z'
  5	'x+.5, -y+.5, z+.5'
  6	'-x+.5, -y+.5, -z'
  7	'-x+.5, y+.5, -z+.5'
  8	'x+.5, y+.5, z'
loop_
_atom_type_symbol
_atom_type_oxidation_number
Ca2+	2
Na1+	1
O2-	-2
Si4+	4
loop_
_atom_site_label
_atom_site_type_symbol
_atom_site_symmetry_multiplicity
_atom_site_Wyckoff_symbol
_atom_site_fract_x
_atom_site_fract_y
_atom_site_fract_z
_atom_site_occupancy
_atom_site_attached_hydrogens
_atom_site_B_iso_or_equiv
Na1 Na1+ 8 f 0.457 0.735 0.034 1. 0 -1.44 
Ca1 Ca2+ 4 d 0.25 0.25 0.5 1. 0 -1.44 
Ca2 Ca2+ 8 f 0.151 0.238 0.207 1. 0 -1.44 
Si1 Si4+ 4 e 0 0.794 0.25 1. 0 -1.44 
Si2 Si4+ 8 f 0.349 0.195 0.103 1. 0 -1.44 
O1 O2- 8 f 0.433 0.084 0.189 1. 0 -1.44 
O2 O2- 8 f 0.273 0.034 0.162 1. 0 -1.44 
O3 O2- 8 f 0.14 0.446 0.026 1. 0 -1.44 
O4 O2- 8 f 0.043 0.964 0.151 1. 0 -1.44 
O5 O2- 8 f 0.343 0.491 0.109 1. 0 -1.44 

#End of data_28016-ICSD


