data_95549-ICSD
#?2014 by Fachinformationszentrum Karlsruhe, and the U.S. Secretary of 
#Commerce on behalf of the United States.  All rights reserved.
_database_code_ICSD                95549
_audit_creation_date               2003/10/01
_audit_update_record               2006/04/01
_chemical_name_systematic          'Sodium Carbonate - Gamma'
_chemical_formula_structural       'Na2 (C O3)'
_chemical_formula_sum              'C1 Na2 O3'
_chemical_name_mineral             Natrite
_publ_section_title
;
Crystal structure of natrite, gamma-(Na2 C O3)
;
loop_
_citation_id
_citation_journal_abbrev
_citation_year
_citation_journal_volume
_citation_journal_issue
_citation_page_first
_citation_page_last
_citation_journal_id_ASTM
primary 'Neues Jahrbuch fuer Mineralogie. Monatshefte (Band=Jahr) (1950-)'
 2002 2002 2 85 96 NJMMAW
2 'Golden Book of Phase Transitions, Wroclaw' 2002 1- 1 123 GBOPT5
_publ_author_name
;
Zubkova, N.V.;Pushcharovskii, D.Yu.;Ivaldi, G.;Ferraris, G.;Pekov, 
I.V.;Chukanov, N.V.
;
_cell_length_a                     8.905(4)
_cell_length_b                     5.237(3)
_cell_length_c                     6.045(2)
_cell_angle_alpha                  90
_cell_angle_beta                   101.32(3)
_cell_angle_gamma                  90
_cell_volume                       276.43
_cell_formula_units_Z              4
_symmetry_space_group_name_H-M     'C 1 2/m 1'
_symmetry_Int_Tables_number        12
_refine_ls_R_factor_all            .029
loop_
_symmetry_equiv_pos_site_id
_symmetry_equiv_pos_as_xyz
  1	'-x, y, -z'
  2	'-x, -y, -z'
  3	'x, -y, z'
  4	'x, y, z'
  5	'-x+.5, y+.5, -z'
  6	'-x+.5, -y+.5, -z'
  7	'x+.5, -y+.5, z'
  8	'x+.5, y+.5, z'
loop_
_atom_type_symbol
_atom_type_oxidation_number
C4+	4
Na1+	1
O2-	-2
loop_
_atom_site_label
_atom_site_type_symbol
_atom_site_symmetry_multiplicity
_atom_site_Wyckoff_symbol
_atom_site_fract_x
_atom_site_fract_y
_atom_site_fract_z
_atom_site_occupancy
_atom_site_attached_hydrogens
_atom_site_B_iso_or_equiv
Na1 Na1+ 2 a 0 0 0 1. 0 2.27(2) 
Na2 Na1+ 2 c 0 0 0.5 1. 0 2.46(2) 
Na3 Na1+ 4 i 0.17047(6) 0.5 0.7478(1) 1. 0 3.22(2) 
C1 C4+ 4 i 0.1645(2) 0.5 0.2497(2) 1. 0 1.85(5) 
O1 O2- 8 j 0.1023(1) 0.2944(2) 0.2859(1) 1. 0 4.58(3) 
O2 O2- 4 i 0.2894(1) 0.5 0.1781(1) 1. 0 1.81(2) 

#End of data_95549-ICSD


