data_31234-ICSD
#?2014 by Fachinformationszentrum Karlsruhe, and the U.S. Secretary of 
#Commerce on behalf of the United States.  All rights reserved.
_database_code_ICSD                31234
_audit_creation_date               1982/12/31
_audit_update_record               2007/08/01
_chemical_name_systematic          'Dicalcium Beryllium Disilicate'
_chemical_formula_structural       'Ca2 Be (Si2 O7)'
_chemical_formula_sum              'Be1 Ca2 O7 Si2'
_chemical_name_mineral             Gugiaite
_publ_section_title
;
The crystal structure of synthetic gugiaite, Ca2 Be Si2 O7
;
loop_
_citation_id
_citation_journal_abbrev
_citation_year
_citation_journal_volume
_citation_page_first
_citation_page_last
_citation_journal_id_ASTM
primary 'Neues Jahrbuch fuer Mineralogie. Abhandlungen (Band-Nr) (1950-)'
 1982 143 210 222 NJMIAK
_publ_author_name                  'Kimata, M.;Ohashi, H.'
_cell_length_a                     7.419(1)
_cell_length_b                     7.419(1)
_cell_length_c                     4.988(1)
_cell_angle_alpha                  90.
_cell_angle_beta                   90.
_cell_angle_gamma                  90.
_cell_volume                       274.55
_cell_formula_units_Z              2
_symmetry_space_group_name_H-M     'P -4 21 m'
_symmetry_Int_Tables_number        113
_refine_ls_R_factor_all            .025
loop_
_symmetry_equiv_pos_site_id
_symmetry_equiv_pos_as_xyz
  1	'-y+.5, -x+.5, z'
  2	'y, -x, -z'
  3	'y+.5, x+.5, z'
  4	'-y, x, -z'
  5	'x+.5, -y+.5, -z'
  6	'-x, -y, z'
  7	'-x+.5, y+.5, -z'
  8	'x, y, z'
loop_
_atom_type_symbol
_atom_type_oxidation_number
Be2+	2
Ca2+	2
O2-	-2
Si4+	4
loop_
_atom_site_label
_atom_site_type_symbol
_atom_site_symmetry_multiplicity
_atom_site_Wyckoff_symbol
_atom_site_fract_x
_atom_site_fract_y
_atom_site_fract_z
_atom_site_occupancy
_atom_site_attached_hydrogens
Ca1 Ca2+ 4 e 0.33581(5) 0.16419 0.51116(11) 1. 0 
Be1 Be2+ 2 a 0 0 0 1. 0 
Si1 Si4+ 4 e 0.14692(7) 0.35308 0.95990(14) 1. 0 
O1 O2- 2 c 0.5 0 0.16536(62) 1. 0 
O2 O2- 4 e 0.14031(20) 0.35969 0.27898(37) 1. 0 
O3 O2- 8 f 0.08613(21) 0.16619(20) 0.81970(28) 1. 0 

#End of data_31234-ICSD


