data_24133-ICSD
#?2014 by Fachinformationszentrum Karlsruhe, and the U.S. Secretary of 
#Commerce on behalf of the United States.  All rights reserved.
_database_code_ICSD                24133
_audit_creation_date               1980/01/01
_audit_update_record               2011/02/01
_chemical_name_systematic          'Dialuminium Titanium Oxide'
_chemical_formula_structural       'Al2 Ti O5'
_chemical_formula_sum              'Al2 O5 Ti1'
_chemical_name_mineral             Tialite
_publ_section_title
;
Structure du compose Ti O2 Al2 O3. Comparaison avec la pseudo-
brookite
;
loop_
_citation_id
_citation_journal_abbrev
_citation_year
_citation_journal_volume
_citation_page_first
_citation_page_last
_citation_journal_id_ASTM
primary 'Bulletin de la Societe Chimique de France (Vol=Year)'
 1958 1958 1559 1566 BSCFAS
_publ_author_name                  'Hamelin, M.'
_cell_length_a                     9.36(3)
_cell_length_b                     3.56(2)
_cell_length_c                     9.68(5)
_cell_angle_alpha                  90.
_cell_angle_beta                   90.
_cell_angle_gamma                  90.
_cell_volume                       322.55
_cell_formula_units_Z              4
_symmetry_space_group_name_H-M     'C c m m'
_symmetry_Int_Tables_number        63
loop_
_symmetry_equiv_pos_site_id
_symmetry_equiv_pos_as_xyz
  1	'x, -y, -z+.5'
  2	'-x, -y, z+.5'
  3	'x, -y, z'
  4	'-x, -y, -z'
  5	'-x, y, z+.5'
  6	'x, y, -z+.5'
  7	'-x, y, -z'
  8	'x, y, z'
  9	'x+.5, -y+.5, -z+.5'
 10	'-x+.5, -y+.5, z+.5'
 11	'x+.5, -y+.5, z'
 12	'-x+.5, -y+.5, -z'
 13	'-x+.5, y+.5, z+.5'
 14	'x+.5, y+.5, -z+.5'
 15	'-x+.5, y+.5, -z'
 16	'x+.5, y+.5, z'
loop_
_atom_type_symbol
_atom_type_oxidation_number
Al3+	3
O2-	-2
Ti4+	4
loop_
_atom_site_label
_atom_site_type_symbol
_atom_site_symmetry_multiplicity
_atom_site_Wyckoff_symbol
_atom_site_fract_x
_atom_site_fract_y
_atom_site_fract_z
_atom_site_occupancy
_atom_site_attached_hydrogens
_atom_site_B_iso_or_equiv
Al1 Al3+ 8 f 0.135(6) 0 0.560(5) 1. 0 0.15 
Ti1 Ti4+ 4 c 0.186(3) 0 0.25 1. 0 1.1 
O1 O2- 4 c 0.756(9) 0 0.25 1. 0 0.47 
O2 O2- 8 f 0.042(9) 0 0.118(9) 1. 0 0.47 
O3 O2- 8 f 0.314(9) 0 0.072(9) 1. 0 1.1 

#End of data_24133-ICSD


