data_417618-ICSD
#?2014 by Fachinformationszentrum Karlsruhe, and the U.S. Secretary of 
#Commerce on behalf of the United States.  All rights reserved.
_database_code_ICSD                417618
_audit_creation_date               2008/08/01
_chemical_name_systematic
;
Tetrasilver Pentaoxodimolybdate Bis(tetraoxoselenate(VI)) 
Trioxoselenate(V)
;
_chemical_formula_structural       'Ag4 (Mo2 O5) (Se O4)2 (Se O3)'
_chemical_formula_sum              'Ag4 Mo2 O16 Se3'
_publ_section_title
;
Syntheses, structures, and properties of Ag4 (Mo2 O5)3 (Se O4)2 (Se 
O3) and Ag2 (Mo O3)3 Se O3
;
loop_
_citation_id
_citation_journal_abbrev
_citation_year
_citation_journal_volume
_citation_journal_issue
_citation_page_first
_citation_page_last
_citation_journal_id_ASTM
primary 'Journal of Solid State Chemistry' 2007 180 5 1601 1607 JSSCBI
_publ_author_name                  'Ling Jie;Albrecht Schmitt, T.E.'
_cell_length_a                     5.6557(3)
_cell_length_b                     15.8904(7)
_cell_length_c                     15.7938(7)
_cell_angle_alpha                  90.00
_cell_angle_beta                   90.00
_cell_angle_gamma                  90.00
_cell_volume                       1419.41
_cell_formula_units_Z              4
_symmetry_space_group_name_H-M     'P b c m'
_symmetry_Int_Tables_number        57
_refine_ls_R_factor_all            .0272
loop_
_symmetry_equiv_pos_site_id
_symmetry_equiv_pos_as_xyz
  1	'x, -y+.5, z+.5'
  2	'-x, y+.5, z'
  3	'x, y, -z+.5'
  4	'-x, -y, -z'
  5	'-x, y+.5, -z+.5'
  6	'x, -y+.5, -z'
  7	'-x, -y, z+.5'
  8	'x, y, z'
loop_
_atom_type_symbol
_atom_type_oxidation_number
Ag1+	1
Mo6+	6
O2-	-2
Se5+	5
Se6+	6
loop_
_atom_site_label
_atom_site_type_symbol
_atom_site_symmetry_multiplicity
_atom_site_Wyckoff_symbol
_atom_site_fract_x
_atom_site_fract_y
_atom_site_fract_z
_atom_site_occupancy
_atom_site_attached_hydrogens
_atom_site_U_iso_or_equiv
Ag1 Ag1+ 4 d 0.17767(10) 0.34503(4) 0.2500 1 0 0.01739(13) 
Ag2 Ag1+ 4 d 0.69721(10) 0.50077(3) 0.2500 1 0 0.01628(13) 
Mo1 Mo6+ 8 e 0.64349(7) 0.67226(3) 0.41167(2) 1 0 0.00993(11) 
Se1 Se5+ 8 e 0.67276(8) 0.35891(3) 0.39988(3) 1 0 0.01122(12) 
Ag3 Ag1+ 8 e 0.17562(7) 0.50367(2) 0.42003(3) 1 0 0.01659(11) 
Se2 Se6+ 4 d 0.24643(12) 0.63408(4) 0.2500 1 0 0.01036(14) 
O1 O2- 4 c 0.6977(8) 0.7500 0.5000 1 0 0.0132(9) 
O2 O2- 8 e 0.7973(6) 0.5849(2) 0.4450(2) 1 0 0.0168(7) 
O3 O2- 8 e 0.4373(6) 0.6037(2) 0.3320(2) 1 0 0.0154(7) 
O4 O2- 8 e 0.4597(7) 0.4102(2) 0.3515(2) 1 0 0.0201(8) 
O5 O2- 8 e 0.9259(7) 0.3933(2) 0.3647(2) 1 0 0.0207(8) 
O6 O2- 8 e 0.1765(7) 0.2146(2) 0.1627(2) 1 0 0.0189(8) 
O7 O2- 8 e 0.3496(6) 0.7579(2) 0.3787(2) 1 0 0.0166(7) 
O8 O2- 8 e 0.6559(6) 0.3745(2) 0.5031(2) 1 0 0.0160(7) 
O9 O2- 4 d 0.0814(10) 0.5493(3) 0.2500 1 0 0.0240(12) 

loop_
_atom_site_aniso_label
_atom_site_aniso_type_symbol
_atom_site_aniso_U_11
_atom_site_aniso_U_22
_atom_site_aniso_U_33
_atom_site_aniso_U_12
_atom_site_aniso_U_13
_atom_site_aniso_U_23
Ag1 Ag1+ 0.0201(3) 0.0203(3) 0.0118(2) 0.0002(2) 0.000 0.000
Ag2 Ag1+ 0.0145(2) 0.0172(3) 0.0171(3) 0.00095(19) 0.000 0.000
Mo1 Mo6+ 0.01229(19) 0.0114(2) 0.00614(19) 0.00103(14) 0.00017(13) 
-0.00055(13)
Se1 Se5+ 0.0137(2) 0.0109(2) 0.0091(2) -0.00157(17) 0.00192(17) 
-0.00077(17)
Ag3 Ag1+ 0.0185(2) 0.01560(19) 0.0157(2) -0.00287(14) 0.00150(14) 
-0.00163(13)
Se2 Se6+ 0.0115(3) 0.0121(3) 0.0075(3) 0.0000(2) 0.000 0.000
O1 O2- 0.011(2) 0.016(2) 0.012(2) 0.000 0.000 -0.0052(19)
O2 O2- 0.0173(17) 0.0161(17) 0.0168(17) 0.0045(14) -0.0036(14) -0.0006(14)
O3 O2- 0.0218(17) 0.0135(15) 0.0110(15) 0.0040(14) -0.0070(14) 0.0004(13)
O4 O2- 0.0238(19) 0.0185(17) 0.0180(17) 0.0019(15) -0.0067(15) 0.0014(15)
O5 O2- 0.0202(18) 0.0196(17) 0.0223(19) -0.0090(15) 0.0114(16) -0.0052(15)
O6 O2- 0.0248(19) 0.0191(18) 0.0127(17) 0.0033(15) 0.0060(15) -0.0017(14)
O7 O2- 0.0221(18) 0.0112(15) 0.0164(17) 0.0040(14) -0.0065(14) -0.0060(14)
O8 O2- 0.0187(17) 0.0210(17) 0.0084(15) -0.0058(14) 0.0019(13) -0.0018(13)
O9 O2- 0.019(3) 0.021(3) 0.032(3) -0.007(2) 0.000 0.000
#End of data_417618-ICSD


