data_31306-ICSD
#?2014 by Fachinformationszentrum Karlsruhe, and the U.S. Secretary of 
#Commerce on behalf of the United States.  All rights reserved.
_database_code_ICSD                31306
_audit_creation_date               1983/12/31
_audit_update_record               2010/02/01
_chemical_name_systematic
;
Hydrogen Calcium Diiron Iron(III) Dioxide Disilicate
;
_chemical_formula_structural       'H Ca Fe3 O2 (Si2 O7)'
_chemical_formula_sum              'H1 Ca1 Fe3 O9 Si2'
_chemical_name_mineral             Ilvaite
_publ_section_title
;
X-ray study on polymorphism of ilvaite, H Ca (Fe2+)2 Fe3+ O2 (Si2 O7)
;
loop_
_citation_id
_citation_journal_abbrev
_citation_year
_citation_journal_volume
_citation_page_first
_citation_page_last
_citation_journal_id_ASTM
primary 'Zeitschrift fuer Kristallographie (1979-2010)' 1983 163 267 283 ZEKRDZ
_publ_author_name                  'Takeuchi, Y.;Haga, N.;Bunno, M.'
_cell_length_a                     13.009(1)
_cell_length_b                     8.8008(3)
_cell_length_c                     5.8589(2)
_cell_angle_alpha                  90.
_cell_angle_beta                   90.324(9)
_cell_angle_gamma                  90.
_cell_volume                       670.77
_cell_formula_units_Z              4
_symmetry_space_group_name_H-M     'P 1 21/a 1'
_symmetry_Int_Tables_number        14
_refine_ls_R_factor_all            .0323
loop_
_symmetry_equiv_pos_site_id
_symmetry_equiv_pos_as_xyz
  1	'x+.5, -y+.5, z'
  2	'-x, -y, -z'
  3	'-x+.5, y+.5, -z'
  4	'x, y, z'
loop_
_atom_type_symbol
_atom_type_oxidation_number
Ca2+	2
Fe2+	2
Fe2.15+	2.15
Fe2.85+	2.85
H1+	1
O2-	-2
Si4+	4
loop_
_atom_site_label
_atom_site_type_symbol
_atom_site_symmetry_multiplicity
_atom_site_Wyckoff_symbol
_atom_site_fract_x
_atom_site_fract_y
_atom_site_fract_z
_atom_site_occupancy
_atom_site_attached_hydrogens
_atom_site_B_iso_or_equiv
Ca1 Ca2+ 4 e 0.18724(2) 0.37015(3) 0.24603(5) 1. 0 0 
Fe1 Fe2.15+ 4 e 0.10986(2) 0.04931(2) 0.99276(4) 1. 0 0 
Fe2 Fe2.85+ 4 e 0.11010(2) 0.05228(2) 0.50717(4) 1. 0 0 
Fe3 Fe2+ 4 e 0.44100(2) 0.24028(2) 0.24832(4) 1. 0 0 
Si1 Si4+ 4 e 0.04048(3) 0.36892(5) 0.75110(8) 1. 0 0 
Si2 Si4+ 4 e 0.32055(3) 0.22714(5) 0.74743(8) 1. 0 0 
O1 O2- 4 e 0.49011(9) 0.4700(1) 0.2664(2) 1. 0 0 
O2 O2- 4 e 0.06257(8) 0.2726(1) 0.9840(2) 1. 0 0 
O3 O2- 4 e 0.06486(9) 0.2730(1) 0.5186(2) 1. 0 0 
O4 O2- 4 e 0.22255(8) 0.1090(1) 0.7419(2) 1. 0 0 
O5 O2- 4 e 0.32861(9) 0.3272(1) 0.9808(2) 1. 0 0 
O6 O2- 4 e 0.32956(9) 0.3318(1) 0.5181(2) 1. 0 0 
O7 O2- 4 e 0.41504(8) 0.1008(1) 0.7460(2) 1. 0 0 
O8 O2- 4 e 0.39855(9) 0.0265(1) 0.2472(2) 1. 0 0 
O9 O2- 4 e 0.20216(8) 0.1091(1) 0.2575(2) 1. 0 0 
H1 H1+ 4 e 0.258(3) 0.068(5) 0.260(8) 1. 0 0.776 

#End of data_31306-ICSD


