data_8117-ICSD
#?2014 by Fachinformationszentrum Karlsruhe, and the U.S. Secretary of 
#Commerce on behalf of the United States.  All rights reserved.
_database_code_ICSD                8117
_audit_creation_date               1980/01/01
_chemical_name_systematic          'Sodium Tetrachloroaluminate'
_chemical_formula_structural       'Na Al Cl4'
_chemical_formula_sum              'Al1 Cl4 Na1'
_publ_section_title
;
Comparison of the crystal structures of alkaline (M = Li, Na, K, Rb, 
Cs) and Pseudo-alkaline (M = N O, N H4) Tetrachloroaluminates, M Al 
Cl4
;
loop_
_citation_id
_citation_journal_abbrev
_citation_year
_citation_journal_volume
_citation_page_first
_citation_page_last
_citation_journal_id_ASTM
primary 'Acta Crystallographica B (24,1968-38,1982)' 1979 35 1573 1580 ACBCAR
_publ_author_name
;
Mairesse, G.;Barbier, P.;Wignacourt, J.P.
;
_cell_length_a                     9.886(3)
_cell_length_b                     6.617(2)
_cell_length_c                     10.322(3)
_cell_angle_alpha                  90.
_cell_angle_beta                   90.
_cell_angle_gamma                  90.
_cell_volume                       675.22
_cell_formula_units_Z              4
_symmetry_space_group_name_H-M     'P 21 21 21'
_symmetry_Int_Tables_number        19
_refine_ls_R_factor_all            .025
loop_
_symmetry_equiv_pos_site_id
_symmetry_equiv_pos_as_xyz
  1	'-x, y+.5, -z+.5'
  2	'x+.5, -y+.5, -z'
  3	'-x+.5, -y, z+.5'
  4	'x, y, z'
loop_
_atom_type_symbol
_atom_type_oxidation_number
Al3+	3
Cl1-	-1
Na1+	1
loop_
_atom_site_label
_atom_site_type_symbol
_atom_site_symmetry_multiplicity
_atom_site_Wyckoff_symbol
_atom_site_fract_x
_atom_site_fract_y
_atom_site_fract_z
_atom_site_occupancy
_atom_site_attached_hydrogens
Al1 Al3+ 4 a 0.51429(6) 0.20707(9) 0.96226(6) 1. 0 
Cl1 Cl1- 4 a 0.68550(5) 0.10957(9) 0.85152(5) 1. 0 
Cl2 Cl1- 4 a 0.33503(5) 0.07337(9) 0.87726(5) 1. 0 
Cl3 Cl1- 4 a 0.55257(6) 0.07458(9) 1.15367(5) 1. 0 
Cl4 Cl1- 4 a 0.50874(6) 0.55281(8) 0.96786(6) 1. 0 
Na1 Na1+ 4 a 0.71343(12) 0.31122(23) 0.37466(15) 1. 0 

#End of data_8117-ICSD


