data_632396-ICSD
#?2014 by Fachinformationszentrum Karlsruhe, and the U.S. Secretary of 
#Commerce on behalf of the United States.  All rights reserved.
_database_code_ICSD                632396
_audit_creation_date               2012/02/01
_chemical_name_systematic          'Potassium Iron Sulfide (1/2/3)'
_chemical_formula_structural       'K Fe2 S3'
_chemical_formula_sum              'Fe2 K1 S3'
_chemical_name_mineral             Rasvumite
_publ_section_title
;
Mixed-valent iron in synthetic rasvumite, K Fe2 S3
;
loop_
_citation_id
_citation_journal_abbrev
_citation_year
_citation_journal_volume
_citation_page_first
_citation_page_last
_citation_journal_id_ASTM
primary Naturwissenschaften 1983 70 146 147 NATWAY
2 'American Mineralogist' 1979 64 776 778 AMMIAY
_publ_author_name                  'Amthauer, G.;Bente, K.'
_cell_length_a                     10.98(4)
_cell_length_b                     9.01(6)
_cell_length_c                     5.40(7)
_cell_angle_alpha                  90.0
_cell_angle_beta                   90.0
_cell_angle_gamma                  90.0
_cell_volume                       534.22
_cell_formula_units_Z              4
_symmetry_space_group_name_H-M     'C m c m'
_symmetry_Int_Tables_number        63
loop_
_symmetry_equiv_pos_site_id
_symmetry_equiv_pos_as_xyz
  1	'-x, y, -z+.5'
  2	'-x, -y, z+.5'
  3	'-x, y, z'
  4	'-x, -y, -z'
  5	'x, -y, z+.5'
  6	'x, y, -z+.5'
  7	'x, -y, -z'
  8	'x, y, z'
  9	'-x+.5, y+.5, -z+.5'
 10	'-x+.5, -y+.5, z+.5'
 11	'-x+.5, y+.5, z'
 12	'-x+.5, -y+.5, -z'
 13	'x+.5, -y+.5, z+.5'
 14	'x+.5, y+.5, -z+.5'
 15	'x+.5, -y+.5, -z'
 16	'x+.5, y+.5, z'
loop_
_atom_type_symbol
_atom_type_oxidation_number
Fe2.5+	2.5
K1+	1
S2-	-2
loop_
_atom_site_label
_atom_site_type_symbol
_atom_site_symmetry_multiplicity
_atom_site_Wyckoff_symbol
_atom_site_fract_x
_atom_site_fract_y
_atom_site_fract_z
_atom_site_occupancy
_atom_site_attached_hydrogens
K1 K1+ 4 c 0 0.670 0.25 1. 0 
S1 S2- 4 c 0 0.119 0.25 1. 0 
Fe1 Fe2.5+ 8 e 0.150 0 0 1. 0 
S2 S2- 8 g 0.217 0.386 0.25 1. 0 

#End of data_632396-ICSD


