data_34408-ICSD
#?2014 by Fachinformationszentrum Karlsruhe, and the U.S. Secretary of 
#Commerce on behalf of the United States.  All rights reserved.
_database_code_ICSD                34408
_audit_creation_date               1980/01/01
_audit_update_record               2007/08/01
_chemical_name_systematic
;
Calcium Trimagnesium Catena-trisilicate Oxide
;
_chemical_formula_structural       'Ca Mg3 (Si3 O9) O'
_chemical_formula_sum              'Ca1 Mg3 O10 Si3'
_chemical_name_mineral             Serendibite
_publ_section_title
;
Serendibite: a new member of the aemigmatite structure group
;
loop_
_citation_id
_citation_journal_abbrev
_citation_year
_citation_journal_volume
_citation_page_first
_citation_page_last
_citation_journal_id_ASTM
primary 'Neues Jahrbuch fuer Mineralogie. Monatshefte (Band=Jahr) (1950-)'
 1974 1974 435 441 NJMMAW
2 Naturwissenschaften 1968 55 176 176 NATWAY
_publ_author_name                  'Machin, M.P.;Suesse, P.'
_cell_length_a                     10.019(3)
_cell_length_b                     10.393(3)
_cell_length_c                     8.63(3)
_cell_angle_alpha                  106.36(1)
_cell_angle_beta                   96.06(1)
_cell_angle_gamma                  124.36(1)
_cell_volume                       670.91
_cell_formula_units_Z              4
_symmetry_space_group_name_H-M     'P -1'
_symmetry_Int_Tables_number        2
_refine_ls_R_factor_all            .119
loop_
_symmetry_equiv_pos_site_id
_symmetry_equiv_pos_as_xyz
  1	'-x, -y, -z'
  2	'x, y, z'
loop_
_atom_type_symbol
_atom_type_oxidation_number
Ca2+	2
Mg2+	2
O2-	-2
Si4+	4
loop_
_atom_site_label
_atom_site_type_symbol
_atom_site_symmetry_multiplicity
_atom_site_Wyckoff_symbol
_atom_site_fract_x
_atom_site_fract_y
_atom_site_fract_z
_atom_site_occupancy
_atom_site_attached_hydrogens
_atom_site_B_iso_or_equiv
Mg1 Mg2+ 1 b 0 0 0.5 1. 0 0.5(1) 
Mg2 Mg2+ 1 c 0 0.5 0 1. 0 0.5(1) 
Mg3 Mg2+ 2 i 0.3117 0.8551 0.1721 1. 0 0.25(1) 
Mg4 Mg2+ 2 i 0.777 0.8221 0.1452 1. 0 0.25(1) 
Mg5 Mg2+ 2 i 0.0936 0.942 0.0617 1. 0 0.25(1) 
Mg6 Mg2+ 2 i 0.5945 0.9398 0.0572 1. 0 0.25(1) 
Mg7 Mg2+ 2 i 0.9983 0.7401 0.2592 1. 0 0.25(1) 
Ca1 Ca2+ 2 i 0.2148 0.625 0.3976 1. 0 0.25(1) 
Ca2 Ca2+ 2 i 0.6477 0.6007 0.3815 1. 0 0.25(1) 
Si1 Si4+ 2 i 0.465 0.2352 0.3306 1. 0 0.25(1) 
Si2 Si4+ 2 i 0.9846 0.2293 0.3409 1. 0 0.25(1) 
Si3 Si4+ 2 i 0.7864 0.3444 0.2334 1. 0 0.25(1) 
Si4 Si4+ 2 i 0.2674 0.3297 0.219 1. 0 0.25(1) 
Si5 Si4+ 2 i 0.6434 0.9431 0.4428 1. 0 0.25(1) 
Si6 Si4+ 2 i 0.3558 0.5539 0.0534 1. 0 0.25(1) 
O1 O2- 2 i 0.3522 0.0636 0.1722 1. 0 0.5(1) 
O2 O2- 2 i 0.8451 0.051 0.1691 1. 0 0.5(1) 
O3 O2- 2 i 0.5414 0.9536 0.2876 1. 0 0.5(1) 
O4 O2- 2 i 0.0154 0.9347 0.2772 1. 0 0.5(1) 
O5 O2- 2 i 0.2412 0.8686 0.3827 1. 0 0.5(1) 
O6 O2- 2 i 0.7606 0.8803 0.3833 1. 0 0.5(1) 
O7 O2- 2 i 0.4917 0.209 0.4952 1. 0 0.5(1) 
O8 O2- 2 i 0.9574 0.7886 0.4824 1. 0 0.5(1) 
O9 O2- 2 i 0.8991 0.3233 0.3788 1. 0 0.5(1) 
O10 O2- 2 i 0.3836 0.3253 0.347 1. 0 0.5(1) 
O11 O2- 2 i 0.6503 0.1644 0.0482 1. 0 0.5(1) 
O12 O2- 2 i 0.1592 0.1757 0.0615 1. 0 0.5(1) 
O13 O2- 2 i 0.5366 0.7114 0.0489 1. 0 0.5(1) 
O14 O2- 2 i 0.0671 0.7252 0.0641 1. 0 0.5(1) 
O15 O2- 2 i 0.2421 0.6156 0.1176 1. 0 0.5(1) 
O16 O2- 2 i 0.7543 0.6136 0.1357 1. 0 0.5(1) 
O17 O2- 2 i 0.3898 0.4881 0.1934 1. 0 0.5(1) 
O18 O2- 2 i 0.9519 0.5254 0.216 1. 0 0.5(1) 
O19 O2- 2 i 0.1647 0.3597 0.3116 1. 0 0.5(1) 
O20 O2- 2 i 0.6576 0.3695 0.3338 1. 0 0.5(1) 

#End of data_34408-ICSD


