data_280772-ICSD
#?2014 by Fachinformationszentrum Karlsruhe, and the U.S. Secretary of 
#Commerce on behalf of the United States.  All rights reserved.
_database_code_ICSD                280772
_audit_creation_date               2002/10/01
_audit_update_record               2012/02/01
_chemical_name_systematic          'Aluminium Phosphate(V) - Ht'
_chemical_formula_structural       'Al (P O4)'
_chemical_formula_sum              'Al1 O4 P1'
_publ_section_title
;
Monoclinic Al P O4 tridymite at 473 and 463 K, from X-ray powder data
;
loop_
_citation_id
_citation_journal_abbrev
_citation_year
_citation_journal_volume
_citation_page_first
_citation_page_last
_citation_journal_id_ASTM
primary 'Acta Crystallographica, Section C: Crystal Structure Communications'
 2002 58 i18 i20 ACSCEE
_publ_author_name                  'Graetsch, H.A.'
_cell_length_a                     5.0800(2)
_cell_length_b                     5.0748(2)
_cell_length_c                     8.3009(3)
_cell_angle_alpha                  90.
_cell_angle_beta                   90.
_cell_angle_gamma                  119.6250(2)
_cell_volume                       186.02
_cell_formula_units_Z              2
_symmetry_space_group_name_H-M     'P 1 1 21'
_symmetry_Int_Tables_number        4
_refine_ls_R_factor_all            .011
loop_
_symmetry_equiv_pos_site_id
_symmetry_equiv_pos_as_xyz
  1	'-x, -y, z+.5'
  2	'x, y, z'
loop_
_atom_type_symbol
_atom_type_oxidation_number
Al3+	3
O2-	-2
P5+	5
loop_
_atom_site_label
_atom_site_type_symbol
_atom_site_symmetry_multiplicity
_atom_site_Wyckoff_symbol
_atom_site_fract_x
_atom_site_fract_y
_atom_site_fract_z
_atom_site_occupancy
_atom_site_attached_hydrogens
Al1 Al3+ 2 a 0.3539(16) 0.6361(15) 0.0625 1. 0 
P1 P5+ 2 a 0.3137(17) 0.6982(16) 0.4371(4) 1. 0 
O1 O2- 2 a 0.3346(17) 0.6673(18) 0.2621(4) 1. 0 
O2 O2- 2 a 0.545(4) -.022(2) -.0226(11) 1. 0 
O3 O2- 2 a 0.007(3) 0.451(4) -.0163(12) 1. 0 
O4 O2- 2 a 0.535(4) 0.441(4) 0.0247(8) 1. 0 

loop_
_atom_site_aniso_label
_atom_site_aniso_type_symbol
_atom_site_aniso_U_11
_atom_site_aniso_U_22
_atom_site_aniso_U_33
_atom_site_aniso_U_12
_atom_site_aniso_U_13
_atom_site_aniso_U_23
Al1 Al3+ 0.057(6) 0.056(6) 0.060(5) 0.032(5) -.022(7) -.030(7)
P1 P5+ 0.053(5) 0.049(5) 0.044(4) 0.024(4) 0.003(8) 0.007(8)
O1 O2- 0.16(2) 0.14(2) 0.034(4) 0.080(8) 0.04(3) 0.02(3)
O2 O2- 0.23(3) 0.10(3) 0.07(2) 0.09(2) 0.04(3) 0.01(2)
O3 O2- 0.024(11) 0.14(2) 0.18(3) 0.016(11) -.05(2) -.03(3)
O4 O2- 0.18(2) 0.12(2) 0.11(2) 0.12(2) -.01(3) -.04(3)
#End of data_280772-ICSD


