data_416589-ICSD
#?2014 by Fachinformationszentrum Karlsruhe, and the U.S. Secretary of 
#Commerce on behalf of the United States.  All rights reserved.
_database_code_ICSD                416589
_audit_creation_date               2007/08/01
_audit_update_record               2011/02/01
_chemical_name_systematic          'Potassium Niobiouranate'
_chemical_formula_structural       'K (Nb U O6)'
_chemical_formula_sum              'K1 Nb1 O6 U1'
_publ_section_title
;
The A(1-x) U Nb O(6-x/2) compounds (x = 0, A = Li, Na, Cs and x = 
0.5, A = Rb, Cs): from layered to tunneled structure
;
loop_
_citation_id
_citation_journal_abbrev
_citation_year
_citation_journal_volume
_citation_journal_issue
_citation_page_first
_citation_page_last
_citation_journal_id_ASTM
primary 'Journal of Solid State Chemistry' 2006 179 10 3238 3251 JSSCBI
_publ_author_name
;
Surble, S.;Obbade, S.;Saad, S.;Yagoubi, S.;Dion, C.;Abraham, F.
;
_cell_length_a                     10.3075(16)
_cell_length_b                     7.5882(12)
_cell_length_c                     13.403(2)
_cell_angle_alpha                  90.00
_cell_angle_beta                   90.00
_cell_angle_gamma                  90.00
_cell_volume                       1048.32
_cell_formula_units_Z              8
_symmetry_space_group_name_H-M     'P n m a'
_symmetry_Int_Tables_number        62
_refine_ls_R_factor_all            .0234
loop_
_symmetry_equiv_pos_site_id
_symmetry_equiv_pos_as_xyz
  1	'x+.5, y, -z+.5'
  2	'x, -y+.5, z'
  3	'-x+.5, y+.5, z+.5'
  4	'-x, -y, -z'
  5	'-x+.5, -y, z+.5'
  6	'-x, y+.5, -z'
  7	'x+.5, -y+.5, -z+.5'
  8	'x, y, z'
loop_
_atom_type_symbol
_atom_type_oxidation_number
K1+	1
Nb5+	5
O2-	-2
U6+	6
loop_
_atom_site_label
_atom_site_type_symbol
_atom_site_symmetry_multiplicity
_atom_site_Wyckoff_symbol
_atom_site_fract_x
_atom_site_fract_y
_atom_site_fract_z
_atom_site_occupancy
_atom_site_attached_hydrogens
_atom_site_U_iso_or_equiv
U1 U6+ 4 c 0.31533(5) 0.2500 0.70083(4) 1 0 0.0103(2) 
U2 U6+ 4 c 0.35526(5) 0.7500 0.72634(4) 1 0 0.0105(2) 
Nb1 Nb5+ 8 d 0.05063(9) 0.00073(11) 0.61061(8) 1 0 0.0135(3) 
K1 K1+ 8 d 0.3589(3) 0.9892(3) 0.4424(2) 1 0 0.0365(8) 
O1 O2- 4 c 0.2487(9) 0.7500 0.8316(8) 1 0 0.015(2) 
O2 O2- 4 c 0.4105(10) 0.2500 0.5883(8) 1 0 0.018(2) 
O3 O2- 4 c 0.1062(9) 0.2500 0.6150(7) 1 0 0.012(2) 
O4 O2- 4 c 0.4544(9) 0.7500 0.6159(7) 1 0 0.018(3) 
O5 O2- 8 d 0.9440(7) 0.0341(9) 0.7310(5) 1 0 0.0137(16) 
O6 O2- 4 c 0.2186(10) 0.2500 0.8119(7) 1 0 0.017(2) 
O7 O2- 8 d 0.2316(6) 0.9692(8) 0.6570(6) 1 0 0.0133(16) 
O8 O2- 4 c 0.0182(9) 0.7500 0.6438(8) 1 0 0.013(2) 
O9 O2- 8 d 0.8930(8) 0.0513(11) 0.5273(6) 1 0 0.030(2) 

loop_
_atom_site_aniso_label
_atom_site_aniso_type_symbol
_atom_site_aniso_U_11
_atom_site_aniso_U_22
_atom_site_aniso_U_33
_atom_site_aniso_U_12
_atom_site_aniso_U_13
_atom_site_aniso_U_23
U1 U6+ 0.0129(4) 0.0095(3) 0.0086(4) 0.000 -0.0002(2) 0.000
U2 U6+ 0.0117(3) 0.0100(3) 0.0098(4) 0.000 0.0008(2) 0.000
Nb1 Nb5+ 0.0128(5) 0.0100(6) 0.0177(6) -0.0005(4) 0.0035(4) -0.0003(4)
K1 K1+ 0.0372(16) 0.0362(18) 0.0362(19) 0.0003(13) -0.0007(14) -0.0041(13)
O1 O2- 0.011(6) 0.015(5) 0.019(6) 0.000 0.003(4) 0.000
O2 O2- 0.019(6) 0.026(6) 0.009(5) 0.000 0.000(5) 0.000
O3 O2- 0.012(6) 0.014(5) 0.010(6) 0.000 0.001(4) 0.000
O4 O2- 0.013(6) 0.023(6) 0.018(6) 0.000 0.001(4) 0.000
O5 O2- 0.015(4) 0.011(3) 0.015(4) 0.000(3) 0.007(3) 0.002(3)
O6 O2- 0.021(6) 0.017(5) 0.013(6) 0.000 0.001(5) 0.000
O7 O2- 0.013(4) 0.009(3) 0.018(4) 0.000(3) -0.007(3) -0.003(3)
O8 O2- 0.011(5) 0.005(5) 0.024(6) 0.000 0.007(5) 0.000
O9 O2- 0.030(5) 0.033(4) 0.029(5) 0.006(4) 0.000(4) -0.004(4)
#End of data_416589-ICSD


