data_1113-ICSD
#?2014 by Fachinformationszentrum Karlsruhe, and the U.S. Secretary of 
#Commerce on behalf of the United States.  All rights reserved.
_database_code_ICSD                1113
_audit_creation_date               1980/01/01
_audit_update_record               2010/02/01
_chemical_name_systematic          'Cadmium Dilithium Silicate'
_chemical_formula_structural       'Cd Li2 (Si O4)'
_chemical_formula_sum              'Cd1 Li2 O4 Si1'
_publ_section_title                'Dilithium cadmium orthosilicate'
loop_
_citation_id
_citation_journal_abbrev
_citation_year
_citation_journal_volume
_citation_page_first
_citation_page_last
_citation_journal_id_ASTM
primary 'Acta Crystallographica B (24,1968-38,1982)' 1977 33 2656 2657 ACBCAR
_publ_author_name                  'Riekel, C.'
_cell_length_a                     6.479(1)
_cell_length_b                     10.715(2)
_cell_length_c                     5.119(1)
_cell_angle_alpha                  90.
_cell_angle_beta                   90.
_cell_angle_gamma                  90.
_cell_volume                       355.37
_cell_formula_units_Z              4
_symmetry_space_group_name_H-M     'P m n b'
_symmetry_Int_Tables_number        62
_refine_ls_R_factor_all            .06
loop_
_symmetry_equiv_pos_site_id
_symmetry_equiv_pos_as_xyz
  1	'x, y+.5, -z+.5'
  2	'-x+.5, y, z'
  3	'x+.5, -y+.5, z+.5'
  4	'-x, -y, -z'
  5	'-x, -y+.5, z+.5'
  6	'x+.5, -y, -z'
  7	'-x+.5, y+.5, -z+.5'
  8	'x, y, z'
loop_
_atom_type_symbol
_atom_type_oxidation_number
Cd2+	2
Li1+	1
O2-	-2
Si4+	4
loop_
_atom_site_label
_atom_site_type_symbol
_atom_site_symmetry_multiplicity
_atom_site_Wyckoff_symbol
_atom_site_fract_x
_atom_site_fract_y
_atom_site_fract_z
_atom_site_occupancy
_atom_site_attached_hydrogens
Cd1 Cd2+ 4 c 0.25 0.16269(4) 0.1745(1) 1. 0 
Si1 Si4+ 4 c 0.25 0.3727(2) 0.6676(4) 1. 0 
O1 O2- 4 c 0.25 0.3535(5) 0.3505(1) 1. 0 
O2 O2- 8 d -.0466(4) 0.0896(3) 0.2890(7) 1. 0 
O3 O2- 4 c 0.25 0.1929(4) 0.7451(8) 1. 0 
Li1 Li1+ 8 d 0.499(1) 0.910(1) 0.327(3) 1. 0 

#End of data_1113-ICSD


