data_249322-ICSD
#?2014 by Fachinformationszentrum Karlsruhe, and the U.S. Secretary of 
#Commerce on behalf of the United States.  All rights reserved.
_database_code_ICSD                249322
_audit_creation_date               2008/02/01
_chemical_name_systematic          'Dicalcium Heptagermanate'
_chemical_formula_structural       'Ca2 Ge7 O16'
_chemical_formula_sum              'Ca2 Ge7 O16'
_publ_section_title
;
Dicalcium heptagermanate Ca2 Ge7 O16 revised
;
loop_
_citation_id
_citation_journal_abbrev
_citation_year
_citation_journal_volume
_citation_journal_issue
_citation_page_first
_citation_page_last
_citation_journal_id_ASTM
primary 'Acta Crystallographica, Section C: Crystal Structure Communications'
 2007 63 7 i47 i50 ACSCEE
_publ_author_name
;
Redhammer, G.J.;Roth, G.;Amthauer, G.
;
_cell_length_a                     11.3391(6)
_cell_length_b                     11.3391(6)
_cell_length_c                     4.6371(2)
_cell_angle_alpha                  90
_cell_angle_beta                   90
_cell_angle_gamma                  90
_cell_volume                       596.22
_cell_formula_units_Z              2
_symmetry_space_group_name_H-M     'P -4 b 2'
_symmetry_Int_Tables_number        117
_refine_ls_R_factor_all            .023
loop_
_symmetry_equiv_pos_site_id
_symmetry_equiv_pos_as_xyz
  1	'-y+.5, -x+.5, -z'
  2	'y, -x, -z'
  3	'y+.5, x+.5, -z'
  4	'-y, x, -z'
  5	'x+.5, -y+.5, z'
  6	'-x, -y, z'
  7	'-x+.5, y+.5, z'
  8	'x, y, z'
loop_
_atom_type_symbol
_atom_type_oxidation_number
Ca2+	2
Ge4+	4
O2-	-2
loop_
_atom_site_label
_atom_site_type_symbol
_atom_site_symmetry_multiplicity
_atom_site_Wyckoff_symbol
_atom_site_fract_x
_atom_site_fract_y
_atom_site_fract_z
_atom_site_occupancy
_atom_site_attached_hydrogens
_atom_site_U_iso_or_equiv
Ge1 Ge4+ 8 i 0.31224(3) 0.43357(3) 0.48963(12) 1 0 0.00708(14) 
Ge2 Ge4+ 4 g 0.13344(3) 0.36656(3) 0 1 0 0.00658(15) 
Ge3 Ge4+ 2 d 0 0.5 0.5 1 0 0.00700(18) 
Ca1 Ca2+ 4 g 0.16515(6) 0.66515(6) 1 1 0 0.0105(2) 
O1 O2- 8 i 0.3594(3) 0.5680(3) 0.3397(7) 1 0 0.0116(7) 
O2 O2- 8 i 0.2653(3) 0.3302(3) 0.2311(7) 1 0 0.0092(6) 
O3 O2- 8 i 0.2192(3) 0.4722(3) 0.7748(6) 1 0 0.0087(6) 
O4 O2- 8 i 0.1160(3) 0.4989(3) 0.2524(6) 1 0 0.0082(6) 

loop_
_atom_site_aniso_label
_atom_site_aniso_type_symbol
_atom_site_aniso_U_11
_atom_site_aniso_U_22
_atom_site_aniso_U_33
_atom_site_aniso_U_12
_atom_site_aniso_U_13
_atom_site_aniso_U_23
Ge1 Ge4+ 0.0075(2) 0.0066(2) 0.0072(2) -0.00045(13) 0.0011(3) -0.0004(2)
Ge2 Ge4+ 0.00643(19) 0.00643(19) 0.0069(2) 0.00044(17) 0.0001(2) 0.0001(2)
Ge3 Ge4+ 0.0071(2) 0.0071(2) 0.0068(3) 0.0007(2) 0 0
Ca1 Ca2+ 0.0099(3) 0.0099(3) 0.0116(5) -0.0036(4) 0.0022(6) -0.0022(6)
O1 O2- 0.0130(16) 0.0083(15) 0.0133(15) -0.0047(12) 0.0014(12) -0.0004(12)
O2 O2- 0.0092(14) 0.0075(13) 0.0108(14) 0.0014(11) -0.0024(12) 0.0009(12)
O3 O2- 0.0086(14) 0.0098(14) 0.0078(12) -0.0011(12) 0.0023(12) 0.0003(11)
O4 O2- 0.0050(13) 0.0100(14) 0.0097(15) -0.0011(9) 0.0027(11) -0.0008(13)
#End of data_249322-ICSD


