data_51618-ICSD
#?2014 by Fachinformationszentrum Karlsruhe, and the U.S. Secretary of 
#Commerce on behalf of the United States.  All rights reserved.
_database_code_ICSD                51618
_audit_creation_date               2003/10/01
_chemical_name_systematic          'Silver Indium Sulfide'
_chemical_formula_structural       'Ag In S2'
_chemical_formula_sum              'Ag1 In1 S2'
_publ_section_title
;
Simultaneous Rietveld refinement of three phases in the Ag-In-S 
semiconducting system from x-ray powder diffraction
;
loop_
_citation_id
_citation_journal_abbrev
_citation_year
_citation_journal_volume
_citation_page_first
_citation_page_last
_citation_journal_id_ASTM
primary 'Materials Research Bulletin' 2001 36 2507 2517 MRBUAC
_publ_author_name
;
Delgado, G.;Mora, A.J.;Pineda, C.;Tinoco, T.
;
_cell_length_a                     6.9972(6)
_cell_length_b                     8.2733(6)
_cell_length_c                     6.6939(6)
_cell_angle_alpha                  90
_cell_angle_beta                   90
_cell_angle_gamma                  90
_cell_volume                       387.51
_cell_formula_units_Z              4
_symmetry_space_group_name_H-M     'P n a 21'
_symmetry_Int_Tables_number        33
_refine_ls_R_factor_all            .052
loop_
_symmetry_equiv_pos_site_id
_symmetry_equiv_pos_as_xyz
  1	'x+.5, -y+.5, z'
  2	'-x+.5, y+.5, z+.5'
  3	'-x, -y, z+.5'
  4	'x, y, z'
loop_
_atom_type_symbol
_atom_type_oxidation_number
Ag1+	1
In3+	3
S2-	-2
loop_
_atom_site_label
_atom_site_type_symbol
_atom_site_symmetry_multiplicity
_atom_site_Wyckoff_symbol
_atom_site_fract_x
_atom_site_fract_y
_atom_site_fract_z
_atom_site_occupancy
_atom_site_attached_hydrogens
_atom_site_B_iso_or_equiv
Ag1 Ag1+ 4 a 0.409(2) 0.128(4) 0.113(5) 1. 0 1.8(2) 
In1 In3+ 4 a 0.067(2) 0.129(5) 0.618(5) 1. 0 1.8(2) 
S1 S2- 4 a 0.096(7) 0.620(9) 0.019(5) 1. 0 1.8(2) 
S2 S2- 4 a 0.078(8) 0.108(9) 0.965(5) 1. 0 1.8(2) 

#End of data_51618-ICSD


