data_81229-ICSD
#?2014 by Fachinformationszentrum Karlsruhe, and the U.S. Secretary of 
#Commerce on behalf of the United States.  All rights reserved.
_database_code_ICSD                81229
_audit_creation_date               1997/11/05
_audit_update_record               1999/11/30
_chemical_name_systematic          'Magnesium Diborate'
_chemical_formula_structural       'Mg2 (B2 O5)'
_chemical_formula_sum              'B2 Mg2 O5'
_chemical_name_mineral             Suanite
_publ_section_title                'Monoclinic Mg2 B2 O5'
loop_
_citation_id
_citation_journal_abbrev
_citation_year
_citation_journal_volume
_citation_page_first
_citation_page_last
_citation_journal_id_ASTM
primary 'Acta Crystallographica, Section C: Crystal Structure Communications'
 1995 51 2469 2471 ACSCEE
_publ_author_name
;
Guo, G.-C.;Cheng, W.-D.;Chen, J.-T.;Zhuang, H.-H.;Huang, J.-S.;Zhang, 
Q.-E.
;
_cell_length_a                     9.197(4)
_cell_length_b                     3.1228(9)
_cell_length_c                     12.303(4)
_cell_angle_alpha                  90.
_cell_angle_beta                   104.26(3)
_cell_angle_gamma                  90.
_cell_volume                       342.46
_cell_formula_units_Z              4
_symmetry_space_group_name_H-M     'P 1 21/c 1'
_symmetry_Int_Tables_number        14
_refine_ls_R_factor_all            .049
loop_
_symmetry_equiv_pos_site_id
_symmetry_equiv_pos_as_xyz
  1	'x, -y+.5, z+.5'
  2	'-x, -y, -z'
  3	'-x, y+.5, -z+.5'
  4	'x, y, z'
loop_
_atom_type_symbol
_atom_type_oxidation_number
B3+	3
Mg2+	2
O2-	-2
loop_
_atom_site_label
_atom_site_type_symbol
_atom_site_symmetry_multiplicity
_atom_site_Wyckoff_symbol
_atom_site_fract_x
_atom_site_fract_y
_atom_site_fract_z
_atom_site_occupancy
_atom_site_attached_hydrogens
Mg1 Mg2+ 4 e 0.1023(2) 0.2133(8) 0.1858(1) 1. 0 
Mg2 Mg2+ 4 e 0.6440(2) 0.2961(8) 0.8947(1) 1. 0 
O1 O2- 4 e 0.4957(4) 0.198(1) 0.1370(3) 1. 0 
O2 O2- 4 e 0.2582(4) 0.722(1) 0.2381(3) 1. 0 
O3 O2- 4 e 0.1804(4) 0.220(1) 0.0463(3) 1. 0 
O4 O2- 4 e -.0535(4) 0.709(1) 0.1522(3) 1. 0 
O5 O2- 4 e 0.3005(4) 0.574(1) -.0693(3) 1. 0 
B1 B3+ 4 e 0.3573(5) 0.772(2) 0.3411(4) 1. 0 
B2 B3+ 4 e 0.1683(6) 0.346(2) -.0606(4) 1. 0 

loop_
_atom_site_aniso_label
_atom_site_aniso_type_symbol
_atom_site_aniso_U_11
_atom_site_aniso_U_22
_atom_site_aniso_U_33
_atom_site_aniso_U_12
_atom_site_aniso_U_13
_atom_site_aniso_U_23
Mg1 Mg2+ 0.0080(8) 0.006(1) 0.0035(7) 0.0000(8) 0.0018(6) 0.0009(8)
Mg2 Mg2+ 0.0067(7) 0.007(1) 0.0063(8) -.0018(8) 0.0021(6) -.0009(9)
O1 O2- 0.003(1) 0.008(2) 0.009(1) 0.001(2) 0.002(1) 0.000(2)
O2 O2- 0.006(1) 0.006(2) 0.005(1) 0.001(2) 0.000(1) 0.002(2)
O3 O2- 0.009(1) 0.008(2) 0.004(1) -.001(2) 0.001(1) 0.001(2)
O4 O2- 0.006(1) 0.008(2) 0.004(1) 0.001(2) -.001(1) 0.002(2)
O5 O2- 0.006(1) 0.011(2) 0.004(1) -.003(1) 0.002(1) 0.000(1)
B1 B3+ 0.006(2) 0.007(3) 0.004(2) 0.000(2) 0.003(1) 0.004(2)
B2 B3+ 0.006(2) 0.004(3) 0.006(2) 0.000(2) 0.003(2) -.001(2)
#End of data_81229-ICSD


