data_79352-ICSD
#?2014 by Fachinformationszentrum Karlsruhe, and the U.S. Secretary of 
#Commerce on behalf of the United States.  All rights reserved.
_database_code_ICSD                79352
_audit_creation_date               1996/10/14
_chemical_name_systematic          'Lithium Zinc Phosphate(V)'
_chemical_formula_structural       'Li Zn (P O4)'
_chemical_formula_sum              'Li1 O4 P1 Zn1'
_publ_section_title
;
Tetrahedral-framework lithium zinc phosphate phases: location of 
light-atom positions in Li Zn P O4 . (H2 O) by powder neutron 
diffraction and structure determination of Li Zn P O4 by ab initio 
methods
;
loop_
_citation_id
_citation_journal_abbrev
_citation_year
_citation_journal_volume
_citation_page_first
_citation_page_last
_citation_journal_id_ASTM
primary 'Journal of Solid State Chemistry' 1995 114 249 257 JSSCBI
_publ_author_name
;
Harrison, W.T.A.;Gier, T.E.;Nicol, J.M.;Stucky, G.D.
;
_cell_length_a                     10.0207(2)
_cell_length_b                     6.6731(2)
_cell_length_c                     4.96548(8)
_cell_angle_alpha                  90.
_cell_angle_beta                   90.
_cell_angle_gamma                  90.
_cell_volume                       332.04
_cell_formula_units_Z              4
_symmetry_space_group_name_H-M     'P n 21 a'
_symmetry_Int_Tables_number        33
_refine_ls_R_factor_all            .116
loop_
_symmetry_equiv_pos_site_id
_symmetry_equiv_pos_as_xyz
  1	'x+.5, y, -z+.5'
  2	'-x+.5, y+.5, z+.5'
  3	'-x, y+.5, -z'
  4	'x, y, z'
loop_
_atom_type_symbol
_atom_type_oxidation_number
Li1+	1
O2-	-2
P5+	5
Zn2+	2
loop_
_atom_site_label
_atom_site_type_symbol
_atom_site_symmetry_multiplicity
_atom_site_Wyckoff_symbol
_atom_site_fract_x
_atom_site_fract_y
_atom_site_fract_z
_atom_site_occupancy
_atom_site_attached_hydrogens
_atom_site_U_iso_or_equiv
Li1 Li1+ 4 a 0.8507(15) 0.721(7) 0.3088(30) 1. 0 0.01 
Zn1 Zn2+ 4 a 0.34486(11) 0.2127(8) 0.18549(24) 1. 0 0.019(3) 
P1 P5+ 4 a 0.40698(23) 0.4613(13) 0.6840(6) 1. 0 0.019(3) 
O1 O2- 4 a 0.3389(6) 0.2695(15) 0.7967(12) 1. 0 0.009(8) 
O2 O2- 4 a 0.1593(6) 0.1483(15) 0.3015(12) 1. 0 0.009(8) 
O3 O2- 4 a 0.3847(6) 0.4640(17) 0.3716(12) 1. 0 0.009(8) 
O4 O2- 4 a 0.4432(6) -.0358(15) 0.2447(12) 1. 0 0.009(8) 

#End of data_79352-ICSD


