data_280877-ICSD
#?2014 by Fachinformationszentrum Karlsruhe, and the U.S. Secretary of 
#Commerce on behalf of the United States.  All rights reserved.
_database_code_ICSD                280877
_audit_creation_date               2002/10/01
_audit_update_record               2005/10/01
_chemical_name_systematic          'Potassium Ytterbium Bis(tungstate)'
_chemical_formula_structural       'K Yb (W O4)2'
_chemical_formula_sum              'K1 O8 W2 Yb1'
_publ_section_title
;
Structure, crystal growth and physical anisotropy of K Yb (W O4)2, a 
new laser matrix
;
loop_
_citation_id
_citation_journal_abbrev
_citation_year
_citation_journal_volume
_citation_page_first
_citation_page_last
_citation_journal_id_ASTM
primary 'Journal of Applied Crystallography' 2002 35 108 112 JACGAR
2 'Golden Book of Phase Transitions, Wroclaw' 2002 1 1 123 GBOPT5
_publ_author_name
;
Pujol, M.C.;Mateos, X.;Sole, R.;Massons, J.;Gavalda, J.;Solans, 
X.;Diaz, F.;Aguilo, M.
;
_cell_length_a                     10.590(4)
_cell_length_b                     10.290(6)
_cell_length_c                     7.478(2)
_cell_angle_alpha                  90.
_cell_angle_beta                   130.70(2)
_cell_angle_gamma                  90.
_cell_volume                       617.79
_cell_formula_units_Z              4
_symmetry_space_group_name_H-M     'C 1 2/c 1'
_symmetry_Int_Tables_number        15
_refine_ls_R_factor_all            .0445
loop_
_symmetry_equiv_pos_site_id
_symmetry_equiv_pos_as_xyz
  1	'x, -y, z+.5'
  2	'-x, -y, -z'
  3	'-x, y, -z+.5'
  4	'x, y, z'
  5	'x+.5, -y+.5, z+.5'
  6	'-x+.5, -y+.5, -z'
  7	'-x+.5, y+.5, -z+.5'
  8	'x+.5, y+.5, z'
loop_
_atom_type_symbol
_atom_type_oxidation_number
K1+	1
O2-	-2
W6+	6
Yb3+	3
loop_
_atom_site_label
_atom_site_type_symbol
_atom_site_symmetry_multiplicity
_atom_site_Wyckoff_symbol
_atom_site_fract_x
_atom_site_fract_y
_atom_site_fract_z
_atom_site_occupancy
_atom_site_attached_hydrogens
Yb1 Yb3+ 4 e 0 0.72860(6) 0.25 1. 0 
W1 W6+ 8 f 0.19722(5) -.00004(3) 0.73560(6) 1. 0 
K1 K1+ 4 e 0.5 0.2049(4) 0.75 1. 0 
O1 O2- 8 f 0.3736(8) -.0860(8) 0.8115(11) 1. 0 
O2 O2- 8 f 0.0241(8) -.1103(7) 0.4636(11) 1. 0 
O3 O2- 8 f 0.2783(7) 0.1584(6) 0.8732(10) 1. 0 
O4 O2- 8 f 0.1907(8) -.0784(7) 0.9378(11) 1. 0 

loop_
_atom_site_aniso_label
_atom_site_aniso_type_symbol
_atom_site_aniso_U_11
_atom_site_aniso_U_22
_atom_site_aniso_U_33
_atom_site_aniso_U_12
_atom_site_aniso_U_13
_atom_site_aniso_U_23
Yb1 Yb3+ 0.0055(3) 0.0057(3) 0.0044(3) 0 0.0022(2) 0
W1 W6+ 0.0037(3) 0.0047(3) 0.0029(3) -.00003(9) 0.0012(2) -.00014(9)
K1 K1+ 0.0138(14) 0.0138(15) 0.0150(14) 0 0.0090(13) 0
O1 O2- 0.010(3) 0.012(4) 0.008(3) -.002(2) 0.004(3) 0.000(2)
O2 O2- 0.005(3) 0.007(3) 0.004(3) -.002(2) 0.001(2) -.003(2)
O3 O2- 0.005(3) 0.003(3) 0.003(3) 0.000(2) 0.001(2) 0.0008(19)
O4 O2- 0.007(3) 0.011(3) 0.008(3) -.001(2) 0.005(2) 0.000(2)
#End of data_280877-ICSD


