data_201605-ICSD
#?2014 by Fachinformationszentrum Karlsruhe, and the U.S. Secretary of 
#Commerce on behalf of the United States.  All rights reserved.
_database_code_ICSD                201605
_audit_creation_date               1985/07/17
_audit_update_record               1985/07/29
_chemical_name_systematic          'Silver Nitrate'
_chemical_formula_structural       'Ag N O3'
_chemical_formula_sum              'Ag1 N1 O3'
_publ_section_title
;
Synthesis and structure of Te(IV) fluoride nitrates and chloride 
fluorides
;
loop_
_citation_id
_citation_journal_abbrev
_citation_year
_citation_journal_volume
_citation_page_first
_citation_page_last
_citation_journal_id_ASTM
primary 'Koordinatsionnaya Khimiya (= Coordination Chemistry (USSR))'
 1984 10 340 349 KOKHDC
_publ_author_name
;
Gorbunova, Yu.E.;Linde, S.A.;Pakhomov, V.I.;Kokunov, 
Yu.V.;Gustyakova, M.P.;Buslaev, Yu.A.
;
_cell_length_a                     6.995(2)
_cell_length_b                     7.335(2)
_cell_length_c                     10.122(2)
_cell_angle_alpha                  90.
_cell_angle_beta                   90.
_cell_angle_gamma                  90.
_cell_volume                       519.34
_cell_formula_units_Z              8
_symmetry_space_group_name_H-M     'P b c a'
_symmetry_Int_Tables_number        61
_refine_ls_R_factor_all            .06
loop_
_symmetry_equiv_pos_site_id
_symmetry_equiv_pos_as_xyz
  1	'x+.5, y, -z+.5'
  2	'x, -y+.5, z+.5'
  3	'-x+.5, y+.5, z'
  4	'-x, -y, -z'
  5	'-x+.5, -y, z+.5'
  6	'-x, y+.5, -z+.5'
  7	'x+.5, -y+.5, -z'
  8	'x, y, z'
loop_
_atom_type_symbol
_atom_type_oxidation_number
Ag1+	1
N5+	5
O2-	-2
loop_
_atom_site_label
_atom_site_type_symbol
_atom_site_symmetry_multiplicity
_atom_site_Wyckoff_symbol
_atom_site_fract_x
_atom_site_fract_y
_atom_site_fract_z
_atom_site_occupancy
_atom_site_attached_hydrogens
Ag1 Ag1+ 8 c 0.1354(2) -.0103(1) 0.12990(9) 1. 0 
N1 N5+ 8 c 0.375(2) 0.362(1) 0.4078(9) 1. 0 
O1 O2- 8 c 0.386(2) 0.316(1) 0.5251(9) 1. 0 
O2 O2- 8 c 0.485(1) 0.294(1) 0.3228(9) 1. 0 
O3 O2- 8 c 0.260(1) 0.475(1) 0.3702(9) 1. 0 

loop_
_atom_site_aniso_label
_atom_site_aniso_type_symbol
_atom_site_aniso_B_11
_atom_site_aniso_B_22
_atom_site_aniso_B_33
_atom_site_aniso_B_12
_atom_site_aniso_B_13
_atom_site_aniso_B_23
Ag1 Ag1+ 3.56(6) 2.39(4) 1.96(4) 0.15(5) 0.67(4) 0.37(4)
N1 N5+ 1.9(4) 1.7(3) 1.0(3) -.4(4) -.1(4) 0.1(3)
O1 O2- 4.3(5) 2.7(4) 1.1(3) -.4(4) 0.1(4) 0.4(3)
O2 O2- 2.4(4) 3.1(4) 1.9(4) 0.3(4) 1.3(4) 0.2(3)
O3 O2- 1.5(3) 2.4(4) 3.8(5) 0.7(3) -.4(4) -.2(4)
#End of data_201605-ICSD


