data_26830-ICSD
#?2014 by Fachinformationszentrum Karlsruhe, and the U.S. Secretary of 
#Commerce on behalf of the United States.  All rights reserved.
_database_code_ICSD                26830
_audit_creation_date               1980/01/01
_audit_update_record               2007/04/01
_chemical_name_systematic          'Aluminium Hydroxide'
_chemical_formula_structural       'Al (O H)3'
_chemical_formula_sum              'H3 Al1 O3'
_chemical_name_mineral             Bayerite
_publ_section_title
;
Verfeinerung der Struktur des Bayerits, Al (O H)3
;
loop_
_citation_id
_citation_journal_abbrev
_citation_year
_citation_journal_volume
_citation_page_first
_citation_page_last
_citation_journal_id_ASTM
primary
;
Zeitschrift fuer Kristallographie, Kristallgeometrie, Kristallphysik, 
Kristallchemie (-144,1977)
;
 1967 125 317 331 ZEKGAX
_publ_author_name
;
Rothbauer, R.;Zigan, F.;O'Daniel, H.
;
_cell_length_a                     5.062(1)
_cell_length_b                     8.671(2)
_cell_length_c                     4.713(1)
_cell_angle_alpha                  90.
_cell_angle_beta                   90.27(3)
_cell_angle_gamma                  90.
_cell_volume                       206.86
_cell_formula_units_Z              4
_symmetry_space_group_name_H-M     'P 1 21/a 1'
_symmetry_Int_Tables_number        14
_refine_ls_R_factor_all            .11
loop_
_symmetry_equiv_pos_site_id
_symmetry_equiv_pos_as_xyz
  1	'x+.5, -y+.5, z'
  2	'-x, -y, -z'
  3	'-x+.5, y+.5, -z'
  4	'x, y, z'
loop_
_atom_type_symbol
_atom_type_oxidation_number
Al3+	3
H1+	1
O2-	-2
loop_
_atom_site_label
_atom_site_type_symbol
_atom_site_symmetry_multiplicity
_atom_site_Wyckoff_symbol
_atom_site_fract_x
_atom_site_fract_y
_atom_site_fract_z
_atom_site_occupancy
_atom_site_attached_hydrogens
_atom_site_B_iso_or_equiv
Al1 Al3+ 4 e 0.527(2) 0.167(2) -.015(2) 1. 0 2.2(5) 
O1 O2- 4 e 0.365(4) -.011(2) 0.215(6) 1. 0 2.4(1) 
O2 O2- 4 e 0.204(4) 0.176(3) 0.777(6) 1. 0 3.(1) 
O3 O2- 4 e 0.344(3) 0.308(2) 0.229(6) 1. 0 0.8(7) 
H1 H1+ 4 e 0.32(1) 0.52(2) 0.77(1) 1. 0 0 
H2 H1+ 4 e 0.79(1) 0.40(2) 0.73(1) 1. 0 0 
H3 H1+ 4 e 0.32(1) 0.31(2) 0.39(1) 1. 0 0 

#End of data_26830-ICSD


