data_18020-ICSD
#?2014 by Fachinformationszentrum Karlsruhe, and the U.S. Secretary of 
#Commerce on behalf of the United States.  All rights reserved.
_database_code_ICSD                18020
_audit_creation_date               1986/09/30
_audit_update_record               2007/04/01
_chemical_name_systematic          'Cesium Lithium Fluoride'
_chemical_formula_structural       'Cs Li F2'
_chemical_formula_sum              'Cs1 F2 Li1'
_publ_section_title
;
Crystal structures of rubidium lithium fluoride, Rb Li F2, and cesium 
lithium fluoride, Cs Li F2
;
loop_
_citation_id
_citation_journal_abbrev
_citation_year
_citation_journal_volume
_citation_page_first
_citation_page_last
_citation_journal_id_ASTM
primary 'Inorganic Chemistry' 1965 4 1510 1512 INOCAJ
2 'American Crystallographic Association: Program and Abstracts'
 1962 1962 E8 E8 PABAD5
_publ_author_name                  'Burns, J.H.;Busing, W.R.'
_cell_length_a                     6.01(2)
_cell_length_b                     11.64(2)
_cell_length_c                     8.18(2)
_cell_angle_alpha                  90.
_cell_angle_beta                   90.81(8)
_cell_angle_gamma                  90.
_cell_volume                       572.19
_cell_formula_units_Z              8
_symmetry_space_group_name_H-M     'C 1 2/c 1'
_symmetry_Int_Tables_number        15
_refine_ls_R_factor_all            .069
loop_
_symmetry_equiv_pos_site_id
_symmetry_equiv_pos_as_xyz
  1	'x, -y, z+.5'
  2	'-x, -y, -z'
  3	'-x, y, -z+.5'
  4	'x, y, z'
  5	'x+.5, -y+.5, z+.5'
  6	'-x+.5, -y+.5, -z'
  7	'-x+.5, y+.5, -z+.5'
  8	'x+.5, y+.5, z'
loop_
_atom_type_symbol
_atom_type_oxidation_number
Cs1+	1
F1-	-1
Li1+	1
loop_
_atom_site_label
_atom_site_type_symbol
_atom_site_symmetry_multiplicity
_atom_site_Wyckoff_symbol
_atom_site_fract_x
_atom_site_fract_y
_atom_site_fract_z
_atom_site_occupancy
_atom_site_attached_hydrogens
_atom_site_B_iso_or_equiv
Cs1 Cs1+ 8 f 0.2528(3) 0.4089(2) 0.0725(2) 1. 0 1.96 
Li1 Li1+ 8 f 0.25(1) 0.209(4) 0.362(7) 1. 0 2.5 
F1 F1- 8 f 0.244(3) 0.357(2) 0.423(2) 1. 0 2.2 
F2 F1- 4 e 0 0.151(2) 0.25 1. 0 2.4 
F3 F1- 4 e 0 0.663(3) 0.25 1. 0 3. 

#End of data_18020-ICSD


