data_183705-ICSD
#?2014 by Fachinformationszentrum Karlsruhe, and the U.S. Secretary of 
#Commerce on behalf of the United States.  All rights reserved.
_database_code_ICSD                183705
_audit_creation_date               2012/08/01
_chemical_name_systematic          'Disilver Zinc Thiosilicate'
_chemical_formula_structural       'Ag2 Zn (Si S4)'
_chemical_formula_sum              'Ag2 S4 Si1 Zn1'
_publ_section_title
;
The crystal and electronnic band structure of the diamond-like 
semiconductor Ag2 Zn Si S4
;
loop_
_citation_id
_citation_journal_abbrev
_citation_year
_citation_journal_volume
_citation_page_first
_citation_page_last
_citation_journal_id_ASTM
primary 'Journal of Alloys and Compounds' 2012 516 65 72 JALCEU
_publ_author_name
;
Brunetta, C.D.;Karuppannan, B.;Rosmus, K.A.;Aitken, J.A.
;
_cell_length_a                     6.4052(1)
_cell_length_b                     6.5484(1)
_cell_length_c                     7.9340(1)
_cell_angle_alpha                  90.
_cell_angle_beta                   90.455(1)
_cell_angle_gamma                  90.
_cell_volume                       332.77
_cell_formula_units_Z              2
_symmetry_space_group_name_H-M     'P 1 n 1'
_symmetry_Int_Tables_number        7
_refine_ls_R_factor_all            .0197
loop_
_symmetry_equiv_pos_site_id
_symmetry_equiv_pos_as_xyz
  1	'x+.5, -y, z+.5'
  2	'x, y, z'
loop_
_atom_type_symbol
_atom_type_oxidation_number
Ag1+	1
S2-	-2
Si4+	4
Zn2+	2
loop_
_atom_site_label
_atom_site_type_symbol
_atom_site_symmetry_multiplicity
_atom_site_Wyckoff_symbol
_atom_site_fract_x
_atom_site_fract_y
_atom_site_fract_z
_atom_site_occupancy
_atom_site_attached_hydrogens
_atom_site_U_iso_or_equiv
Ag1 Ag1+ 2 a 0.23428(4) 0.31806(5) 0.32726(3) 1. 0 0.029(1) 
Ag2 Ag1+ 2 a 0.71991(6) 0.15354(4) 0.57873(5) 1. 0 0.033(1) 
Si1 Si4+ 2 a 0.7199(3) 0.1844(1) 0.0732(2) 1. 0 0.011(1) 
Zn1 Zn2+ 2 a 0.22232(7) 0.31373(7) 0.82066(5) 1. 0 0.016(1) 
S1 S2- 2 a 0.1161(1) 0.1248(1) 0.5868(1) 1. 0 0.014(1) 
S2 S2- 2 a 0.5879(1) 0.3163(1) 0.8534(1) 1. 0 0.015(1) 
S3 S2- 2 a 0.0504(1) 0.2008(1) 0.0614(1) 1. 0 0.016(1) 
S4 S2- 2 a 0.6239(1) 0.3398(1) 0.2966(1) 1. 0 0.014(1) 

#End of data_183705-ICSD


