data_26624-ICSD
#?2014 by Fachinformationszentrum Karlsruhe, and the U.S. Secretary of 
#Commerce on behalf of the United States.  All rights reserved.
_database_code_ICSD                26624
_audit_creation_date               1980/01/01
_chemical_name_systematic          'Magnesium Hydride'
_chemical_formula_structural       'Mg H2'
_chemical_formula_sum              'H2 Mg1'
_publ_section_title
;
The Preparation and Some Properties of Magnesium Hydride
;
loop_
_citation_id
_citation_journal_abbrev
_citation_year
_citation_journal_volume
_citation_page_first
_citation_page_last
_citation_journal_id_ASTM
primary 'Journal of the American Chemical Society' 1955 77 2647 2648 JACSAT
_publ_author_name
;
Ellinger, F.H.;Holley, C.E.jr.;McInteer, B.B.;Pavone, D.;Potter, 
R.M.;Staritzky, E.;Zachariasen, W.H.
;
_cell_length_a                     4.5168
_cell_length_b                     4.5168
_cell_length_c                     3.0205
_cell_angle_alpha                  90.
_cell_angle_beta                   90.
_cell_angle_gamma                  90.
_cell_volume                       61.62
_cell_formula_units_Z              2
_symmetry_space_group_name_H-M     'P 42/m n m'
_symmetry_Int_Tables_number        136
loop_
_symmetry_equiv_pos_site_id
_symmetry_equiv_pos_as_xyz
  1	'-y+.5, x+.5, -z+.5'
  2	'y+.5, -x+.5, -z+.5'
  3	'y, x, -z'
  4	'-y, -x, -z'
  5	'y+.5, -x+.5, z+.5'
  6	'-y+.5, x+.5, z+.5'
  7	'-y, -x, z'
  8	'y, x, z'
  9	'x+.5, -y+.5, -z+.5'
 10	'-x+.5, y+.5, -z+.5'
 11	'x, y, -z'
 12	'-x, -y, -z'
 13	'-x+.5, y+.5, z+.5'
 14	'x+.5, -y+.5, z+.5'
 15	'-x, -y, z'
 16	'x, y, z'
loop_
_atom_type_symbol
_atom_type_oxidation_number
H1-	-1
Mg2+	2
loop_
_atom_site_label
_atom_site_type_symbol
_atom_site_symmetry_multiplicity
_atom_site_Wyckoff_symbol
_atom_site_fract_x
_atom_site_fract_y
_atom_site_fract_z
_atom_site_occupancy
_atom_site_attached_hydrogens
Mg1 Mg2+ 2 a 0 0 0 1. 0 
H1 H1- 4 f 0.306 0.306 0 1. 0 

#End of data_26624-ICSD


