data_26547-ICSD
#?2014 by Fachinformationszentrum Karlsruhe, and the U.S. Secretary of 
#Commerce on behalf of the United States.  All rights reserved.
_database_code_ICSD                26547
_audit_creation_date               1981/12/31
_chemical_name_systematic
;
Dipotassium Hydrogenphosphate Tetrahydrogendiphosphate
;
_chemical_formula_structural       'K2 H5 (P O4) (P2 O7)'
_chemical_formula_sum              'H5 K2 O11 P3'
_publ_section_title
;
Structure d'un Phosphate Acide de Potassium, K2 H5 ((P O4), (P2 O7))
;
loop_
_citation_id
_citation_journal_abbrev
_citation_year
_citation_journal_volume
_citation_page_first
_citation_page_last
_citation_journal_id_ASTM
primary 'Acta Crystallographica B (24,1968-38,1982)' 1981 37 1023 1027 ACBCAR
_publ_author_name
;
Larbot, A.;Durand, J.;Vilminot, S.;Norbert, A.
;
_cell_length_a                     31.272(7)
_cell_length_b                     7.428(1)
_cell_length_c                     9.253(1)
_cell_angle_alpha                  90.
_cell_angle_beta                   99.85(1)
_cell_angle_gamma                  90.
_cell_volume                       2117.68
_cell_formula_units_Z              8
_symmetry_space_group_name_H-M     'C 1 2/c 1'
_symmetry_Int_Tables_number        15
_refine_ls_R_factor_all            .075
loop_
_symmetry_equiv_pos_site_id
_symmetry_equiv_pos_as_xyz
  1	'x, -y, z+.5'
  2	'-x, -y, -z'
  3	'-x, y, -z+.5'
  4	'x, y, z'
  5	'x+.5, -y+.5, z+.5'
  6	'-x+.5, -y+.5, -z'
  7	'-x+.5, y+.5, -z+.5'
  8	'x+.5, y+.5, z'
loop_
_atom_type_symbol
_atom_type_oxidation_number
H1+	1
K1+	1
O2-	-2
P5+	5
loop_
_atom_site_label
_atom_site_type_symbol
_atom_site_symmetry_multiplicity
_atom_site_Wyckoff_symbol
_atom_site_fract_x
_atom_site_fract_y
_atom_site_fract_z
_atom_site_occupancy
_atom_site_attached_hydrogens
_atom_site_B_iso_or_equiv
K1 K1+ 8 f 0.6770(2) 0.5328(12) 0.8764(5) 1. 0 0 
K2 K1+ 4 e 0 0.4981(17) 0.25 1. 0 0 
K3 K1+ 4 a 0 0 0 1. 0 0 
P1 P5+ 8 f 0.2757(2) 0.9559(13) 0.2058(7) 1. 0 0 
P2 P5+ 8 f 0.0956(2) 0.3172(15) 0.0568(8) 1. 0 0 
P3 P5+ 8 f 0.0874(2) 0.7090(15) 0.0529(8) 1. 0 0 
O1 O2- 8 f 0.3059(5) 0.8051(33) 0.2100(15) 1. 0 0 
O2 O2- 8 f 0.2291(5) 0.8936(30) 0.1413(17) 1. 0 0 
O3 O2- 8 f 0.2239(5) 0.5540(38) 0.1458(17) 1. 0 0 
O4 O2- 8 f 0.2859(5) 0.1123(29) 0.1019(18) 1. 0 0 
O5 O2- 8 f 0.1394(5) 0.2226(29) 0.0807(15) 1. 0 0 
O6 O2- 8 f 0.0699(5) 0.2921(40) 0.1793(16) 1. 0 0 
O7 O2- 8 f 0.0690(5) 0.2742(39) 0.9082(15) 1. 0 0 
O8 O2- 8 f 0.1093(6) 0.5188(39) 0.0585(25) 1. 0 0 
O9 O2- 8 f 0.0400(5) 0.6811(33) 0.0243(17) 1. 0 0 
O10 O2- 8 f 0.1044(5) 0.8195(36) 0.9341(17) 1. 0 0 
O11 O2- 8 f 0.1055(5) 0.8094(39) 0.1965(16) 1. 0 0 
H1 H1+ 8 f 0.225 0.694 0.144 1. 0 4. 
H2 H1+ 8 f 0.217 0.454 0.994 1. 0 4. 
H3 H1+ 8 f 0.338 0.756 0.332 1. 0 4. 
H4 H1+ 8 f 0.091 0.225 0.333 1. 0 4. 
H5 H1+ 8 f 0.909 0.775 0.217 1. 0 4. 

#End of data_26547-ICSD


