data_96263-ICSD
#?2014 by Fachinformationszentrum Karlsruhe, and the U.S. Secretary of 
#Commerce on behalf of the United States.  All rights reserved.
_database_code_ICSD                96263
_audit_creation_date               2004/04/01
_chemical_name_systematic
;
Potassium Bismuth Tetrakis(phosphate(V)) - Iv
;
_chemical_formula_structural       'K Bi (P O3)4'
_chemical_formula_sum              'Bi1 K1 O12 P4'
_publ_section_title
;
Synthesis and crystal structure of a new form of potassium - bismuth 
polyphosphate K Bi (P O3)4
;
loop_
_citation_id
_citation_journal_abbrev
_citation_year
_citation_journal_volume
_citation_page_first
_citation_page_last
_citation_journal_id_ASTM
primary 'Journal of Alloys and Compounds' 2003 354 104 114 JALCEU
_publ_author_name
;
Jaouadi, K.;Naili, H.;Zouari, N.;Mhiri, T.;Daoud, A.
;
_cell_length_a                     10.443(4)
_cell_length_b                     8.989(2)
_cell_length_c                     10.757(4)
_cell_angle_alpha                  90
_cell_angle_beta                   105.76(2)
_cell_angle_gamma                  90
_cell_volume                       971.82
_cell_formula_units_Z              4
_symmetry_space_group_name_H-M     'P 1 21/n 1'
_symmetry_Int_Tables_number        14
_refine_ls_R_factor_all            .042
loop_
_symmetry_equiv_pos_site_id
_symmetry_equiv_pos_as_xyz
  1	'-x+.5, y+.5, -z+.5'
  2	'-x, -y, -z'
  3	'x+.5, -y+.5, z+.5'
  4	'x, y, z'
loop_
_atom_type_symbol
_atom_type_oxidation_number
Bi3+	3
K1+	1
O2-	-2
P5+	5
loop_
_atom_site_label
_atom_site_type_symbol
_atom_site_symmetry_multiplicity
_atom_site_Wyckoff_symbol
_atom_site_fract_x
_atom_site_fract_y
_atom_site_fract_z
_atom_site_occupancy
_atom_site_attached_hydrogens
_atom_site_U_iso_or_equiv
Bi1 Bi3+ 4 e 0.999665(12) 0.275088(18) 0.816631(14) 1. 0 0.00889(8) 
K1 K1+ 4 e 0.20381(11) 0.4285(3) 0.45402(11) 1. 0 0.0355(4) 
P1 P5+ 4 e 0.03953(9) 0.67185(14) 0.85664(11) 1. 0 0.00979(19) 
P2 P5+ 4 e 0.85649(9) 0.90533(14) 0.73884(10) 1. 0 0.00970(19) 
P3 P5+ 4 e 0.24758(8) 0.52317(14) 0.76495(10) 1. 0 0.0098(2) 
P4 P5+ 4 e 0.32177(9) 0.39396(15) 0.01675(10) 1. 0 0.01010(19) 
O1 O2- 4 e 0.0660(3) 0.7378(5) 0.9875(3) 1. 0 0.0139(6) 
O2 O2- 4 e -0.0211(3) 0.7940(4) 0.7511(4) 1. 0 0.0149(6) 
O3 O2- 4 e 0.1821(3) 0.6537(4) 0.8294(3) 1. 0 0.0129(6) 
O4 O2- 4 e 0.3246(3) 0.5919(5) 0.6819(3) 1. 0 0.0154(6) 
O5 O2- 4 e 0.7419(3) 0.8160(5) 0.7512(4) 1. 0 0.0183(7) 
O6 O2- 4 e 0.1442(3) 0.4138(5) 0.7021(3) 1. 0 0.0136(6) 
O7 O2- 4 e 0.8968(3) 0.0346(4) 0.8278(3) 1. 0 0.0168(6) 
O8 O2- 4 e 0.3520(3) 0.4528(5) 0.8877(3) 1. 0 0.0139(6) 
O9 O2- 4 e 0.1802(3) 0.3495(6) 0.9847(3) 1. 0 0.0164(7) 
O10 O2- 4 e -0.0422(3) 0.5342(4) 0.8214(3) 1. 0 0.0152(6) 
O11 O2- 4 e 0.4269(3) 0.2869(5) 0.0820(4) 1. 0 0.0183(7) 
O12 O2- 4 e 0.8375(3) 0.9524(5) 0.5940(3) 1. 0 0.0176(6) 

loop_
_atom_site_aniso_label
_atom_site_aniso_type_symbol
_atom_site_aniso_U_11
_atom_site_aniso_U_22
_atom_site_aniso_U_33
_atom_site_aniso_U_12
_atom_site_aniso_U_13
_atom_site_aniso_U_23
Bi1 Bi3+ 0.00588(9) 0.01025(11) 0.01001(10) -0.00031(5) 0.00124(5) 
-0.00039(5)
K1 K1+ 0.0265(4) 0.0585(11) 0.0209(4) 0.0009(8) 0.0056(4) -0.0079(8)
P1 P5+ 0.0062(3) 0.0101(4) 0.0132(4) 0.0003(4) 0.0028(3) 0.0003(4)
P2 P5+ 0.0065(3) 0.0117(4) 0.0105(4) 0.0000(4) 0.0017(3) 0.0009(5)
P3 P5+ 0.0061(3) 0.0124(5) 0.0109(4) -0.0009(5) 0.0023(3) 0.0001(5)
P4 P5+ 0.0055(3) 0.0129(4) 0.0107(4) 0.0004(4) 0.0003(3) -0.0015(5)
O1 O2- 0.0142(12) 0.0205(16) 0.0082(12) -0.0019(15) 0.0051(10) -0.0017(15)
O2 O2- 0.0129(12) 0.0150(13) 0.0180(14) 0.0045(15) 0.0060(10) 0.0024(17)
O3 O2- 0.0067(10) 0.0152(13) 0.0184(13) -0.0008(13) 0.0062(9) -0.0045(15)
O4 O2- 0.0145(11) 0.0168(14) 0.0172(13) 0.0005(16) 0.0083(10) 0.0018(16)
O5 O2- 0.0085(10) 0.0216(17) 0.0233(14) -0.0023(16) 0.0018(9) 0.0073(18)
O6 O2- 0.0114(10) 0.0153(15) 0.0126(12) -0.0055(14) 0.0008(9) -0.0026(15)
O7 O2- 0.0225(13) 0.0108(13) 0.0176(13) -0.0039(16) 0.0061(11) -0.0036(16)
O8 O2- 0.0077(10) 0.0176(16) 0.0155(12) 0.0043(14) 0.0014(9) 0.0051(15)
O9 O2- 0.0085(10) 0.0281(18) 0.0119(12) -0.0013(15) 0.0014(9) -0.0018(16)
O10 O2- 0.0115(11) 0.0138(14) 0.0216(15) -0.0030(15) 0.0064(10) -0.0030(16)
O11 O2- 0.0162(13) 0.0200(17) 0.0157(14) 0.0092(16) -0.0006(11) 0.0027(16)
O12 O2- 0.0234(13) 0.0160(15) 0.0108(12) 0.0022(16) 0.0003(10) 0.0063(16)
#End of data_96263-ICSD


