data_607139-ICSD
#?2014 by Fachinformationszentrum Karlsruhe, and the U.S. Secretary of 
#Commerce on behalf of the United States.  All rights reserved.
_database_code_ICSD                607139
_audit_creation_date               2010/02/01
_chemical_name_systematic          'Aluminium Copper(I) Telluride'
_chemical_formula_structural       'Al Cu Te2'
_chemical_formula_sum              'Al1 Cu1 Te2'
_publ_section_title
;
Thermal expansion in Cu Al Te2 compound
;
loop_
_citation_id
_citation_journal_abbrev
_citation_year
_citation_journal_volume
_citation_journal_issue
_citation_page_first
_citation_page_last
_citation_journal_id_ASTM
primary 'Crystal Research and Technology' 1987 22 11 1409 1414 CRTEDF
2 'Inorganic Materials' 1991 27- 1484 1486 INOMAF
_publ_author_name
;
Orlova, N.S.;Bodnar', I.V.
;
_cell_length_a                     6.02307
_cell_length_b                     6.02307
_cell_length_c                     11.92332
_cell_angle_alpha                  90.0
_cell_angle_beta                   90.0
_cell_angle_gamma                  90.0
_cell_volume                       432.55
_cell_formula_units_Z              4
_symmetry_space_group_name_H-M     'I -4 2 d'
_symmetry_Int_Tables_number        122
loop_
_symmetry_equiv_pos_site_id
_symmetry_equiv_pos_as_xyz
  1	'-y, -x+.5, z+.25'
  2	'y, -x, -z'
  3	'y, x+.5, z+.25'
  4	'-y, x, -z'
  5	'x, -y+.5, -z+.25'
  6	'-x, -y, z'
  7	'-x, y+.5, -z+.25'
  8	'x, y, z'
  9	'-y+.5, -x, z+.75'
 10	'y+.5, -x+.5, -z+.5'
 11	'y+.5, x, z+.75'
 12	'-y+.5, x+.5, -z+.5'
 13	'x+.5, -y, -z+.75'
 14	'-x+.5, -y+.5, z+.5'
 15	'-x+.5, y, -z+.75'
 16	'x+.5, y+.5, z+.5'
loop_
_atom_type_symbol
_atom_type_oxidation_number
Al3+	3
Cu1+	1
Te2-	-2
loop_
_atom_site_label
_atom_site_type_symbol
_atom_site_symmetry_multiplicity
_atom_site_Wyckoff_symbol
_atom_site_fract_x
_atom_site_fract_y
_atom_site_fract_z
_atom_site_occupancy
_atom_site_attached_hydrogens
Cu1 Cu1+ 4 a 0 0 0 1. 0 
Al1 Al3+ 4 b 0 0 0.5 1. 0 
Te1 Te2- 8 d 0.25 0.25 0.125 1. 0 

#End of data_607139-ICSD


