data_172781-ICSD
#?2014 by Fachinformationszentrum Karlsruhe, and the U.S. Secretary of 
#Commerce on behalf of the United States.  All rights reserved.
_database_code_ICSD                172781
_audit_creation_date               2007/08/01
_chemical_name_systematic          'Calcium Dialuminium Oxide'
_chemical_formula_structural       'Ca Al2 O4'
_chemical_formula_sum              'Al2 Ca1 O4'
_publ_section_title
;
On the polymorphism of Ca Al2 O4 - structural investigations of two 
high pressure modifications
;
loop_
_citation_id
_citation_journal_abbrev
_citation_year
_citation_journal_volume
_citation_journal_issue
_citation_page_first
_citation_page_last
_citation_journal_id_ASTM
primary 'Solid State Sciences' 2006 8 6 589 597 SSSCFJ
_publ_author_name
;
Lazic, B.;Kahlenberg, V.;Konzett, J.;Kaindl, R.
;
_cell_length_a                     8.92004(5)
_cell_length_b                     10.31550(6)
_cell_length_c                     2.87129(1)
_cell_angle_alpha                  90.
_cell_angle_beta                   90.
_cell_angle_gamma                  90.
_cell_volume                       264.2
_cell_formula_units_Z              4
_symmetry_space_group_name_H-M     'P n a m'
_symmetry_Int_Tables_number        62
_refine_ls_R_factor_all            .0431
loop_
_symmetry_equiv_pos_site_id
_symmetry_equiv_pos_as_xyz
  1	'x+.5, -y+.5, z'
  2	'x, y, -z+.5'
  3	'-x+.5, y+.5, z+.5'
  4	'-x, -y, -z'
  5	'-x+.5, y+.5, -z'
  6	'-x, -y, z+.5'
  7	'x+.5, -y+.5, -z+.5'
  8	'x, y, z'
loop_
_atom_type_symbol
_atom_type_oxidation_number
Al3+	3
Ca2+	2
O2-	-2
loop_
_atom_site_label
_atom_site_type_symbol
_atom_site_symmetry_multiplicity
_atom_site_Wyckoff_symbol
_atom_site_fract_x
_atom_site_fract_y
_atom_site_fract_z
_atom_site_occupancy
_atom_site_attached_hydrogens
_atom_site_U_iso_or_equiv
Ca1 Ca2+ 4 c 0.7576(1) 0.65615(9) 0.25 1. 0 0.029(4) 
Al1 Al3+ 4 c 0.4372(2) 0.6099(1) 0.25 1. 0 0.030(3) 
Al2 Al3+ 4 c 0.4183(2) 0.1027(1) 0.25 1. 0 0.030(4) 
O1 O2- 4 c 0.2034(3) 0.1539(3) 0.25 1. 0 0.035(6) 
O2 O2- 4 c 0.1154(3) 0.4812(3) 0.25 1. 0 0.035(6) 
O3 O2- 4 c 0.5273(3) 0.7851(3) 0.25 1. 0 0.035(6) 
O4 O2- 4 c 0.4226(3) 0.4294(3) 0.25 1. 0 0.035(6) 

#End of data_172781-ICSD


