data_200572-ICSD
#?2014 by Fachinformationszentrum Karlsruhe, and the U.S. Secretary of 
#Commerce on behalf of the United States.  All rights reserved.
_database_code_ICSD                200572
_audit_creation_date               1980/01/01
_audit_update_record               2005/10/01
_chemical_name_systematic
;
Potassium Cyclo-tetrakis(tetrafluoroantimonate(III))
;
_chemical_formula_structural       'K (Sb F4)'
_chemical_formula_sum              'F4 K1 Sb1'
_publ_section_title
;
Redetermination de la structure cristalline de K Sb F4 - liaison 
fluor dans les fluoroantimonates III
;
loop_
_citation_id
_citation_journal_abbrev
_citation_year
_citation_journal_volume
_citation_page_first
_citation_page_last
_citation_journal_id_ASTM
primary 'Journal of Fluorine Chemistry' 1978 12 63 72 JFLCAR
2 'Golden Book of Phase Transitions, Wroclaw' 2002 1 1 123 GBOPT5
_publ_author_name
;
Habibi, N.;Ducourant, M.B.;Bonnet, B.;Fourcade, R.
;
_cell_length_a                     16.276(3)
_cell_length_b                     11.549(3)
_cell_length_c                     4.543(2)
_cell_angle_alpha                  90.
_cell_angle_beta                   90.
_cell_angle_gamma                  90.
_cell_volume                       853.95
_cell_formula_units_Z              8
_symmetry_space_group_name_H-M     'P m m n S'
_symmetry_Int_Tables_number        59
_refine_ls_R_factor_all            .039
loop_
_symmetry_equiv_pos_site_id
_symmetry_equiv_pos_as_xyz
  1	'x+.5, -y+.5, -z'
  2	'x+.5, y+.5, -z'
  3	'x, -y, z'
  4	'-x, y, z'
  5	'-x+.5, y+.5, -z'
  6	'-x+.5, -y+.5, -z'
  7	'-x, -y, z'
  8	'x, y, z'
loop_
_atom_type_symbol
_atom_type_oxidation_number
F1-	-1
K1+	1
Sb3+	3
loop_
_atom_site_label
_atom_site_type_symbol
_atom_site_symmetry_multiplicity
_atom_site_Wyckoff_symbol
_atom_site_fract_x
_atom_site_fract_y
_atom_site_fract_z
_atom_site_occupancy
_atom_site_attached_hydrogens
Sb1 Sb3+ 4 e 0 0.2496(1) 0.9620(4) 1. 0 
Sb2 Sb3+ 4 f 0.1546(1) 0 0.4304(4) 1. 0 
K1 K1+ 4 c 0.25 0.25 0 1. 0 
K2 K1+ 4 f 0.3841(4) 0 0.588(1) 1. 0 
F1 F1- 8 g 0.2398(6) 0.1164(8) 0.520(2) 1. 0 
F2 F1- 8 g 0.0881(7) 0.3650(9) 0.898(2) 1. 0 
F3 F1- 8 g 0.0968(8) 0.153(1) 0.200(4) 1. 0 
F4 F1- 4 f 0.210(1) 0 0.059(3) 1. 0 
F5 F1- 4 e 0 0.327(2) 0.346(3) 1. 0 

loop_
_atom_site_aniso_label
_atom_site_aniso_type_symbol
_atom_site_aniso_U_11
_atom_site_aniso_U_22
_atom_site_aniso_U_33
_atom_site_aniso_U_12
_atom_site_aniso_U_13
_atom_site_aniso_U_23
Sb1 Sb3+ 0.0099 0.0012 0.0238 0 0 -.0007
Sb2 Sb3+ 0.0097 0.0129 0.0233 0 -.0032 0
K1 K1+ 0.0175 0.0204 0.0168 -.0129 0.0003 -.0054
K2 K1+ 0.0107 0.0244 0.0281 0 -.0092 0
F1 F1- 0.0182 0.0168 0.0183 -.0099 -.0068 0.0004
F2 F1- 0.0188 0.0302 0.0239 -.0332 0.008 0.0109
F3 F1- 0.0255 0.0434 0.1169 0.0137 -.0661 0.0744
F4 F1- 0.0369 0.039 0.0067 0 0.0093 0
F5 F1- 0.039 0.0418 0.0067 0 0 -.0044
#End of data_200572-ICSD


