data_34447-ICSD
#?2014 by Fachinformationszentrum Karlsruhe, and the U.S. Secretary of 
#Commerce on behalf of the United States.  All rights reserved.
_database_code_ICSD                34447
_audit_creation_date               1980/01/01
_audit_update_record               2006/04/01
_chemical_name_systematic          'Potassium Dihydrogenphosphate(V)'
_chemical_formula_structural       'K (H2 P O4)'
_chemical_formula_sum              'H2 K1 O4 P1'
_publ_section_title
;
A neutron-diffraction study of the ferroelectric transition of 
potassium dihydrogen phosphate
;
loop_
_citation_id
_citation_journal_abbrev
_citation_year
_citation_journal_volume
_citation_page_first
_citation_page_last
_citation_journal_id_ASTM
primary
;
Proceedings of the Royal Society of London, Series A: Mathematical 
and Physical Sciences (76,1906-)
;
 1955 230 359 381 PRLAAZ
2 'Golden Book of Phase Transitions, Wroclaw' 2002 1 1 123 GBOPT5
_publ_author_name                  'Bacon, G.E.;Pease, R.S.'
_cell_length_a                     10.53
_cell_length_b                     10.44
_cell_length_c                     6.9
_cell_angle_alpha                  90.
_cell_angle_beta                   90.
_cell_angle_gamma                  90.
_cell_volume                       758.54
_cell_formula_units_Z              8
_symmetry_space_group_name_H-M     'F d d 2'
_symmetry_Int_Tables_number        43
_refine_ls_R_factor_all            .079
loop_
_symmetry_equiv_pos_site_id
_symmetry_equiv_pos_as_xyz
  1	'x+.25, -y+.25, z+.25'
  2	'-x+.25, y+.25, z+.25'
  3	'-x, -y, z'
  4	'x, y, z'
  5	'x+.25, -y+.75, z+.75'
  6	'x+.75, -y+.25, z+.75'
  7	'x+.75, -y+.75, z+.25'
  8	'-x+.25, y+.75, z+.75'
  9	'-x+.75, y+.25, z+.75'
 10	'-x+.75, y+.75, z+.25'
 11	'-x, -y+.5, z+.5'
 12	'-x+.5, -y, z+.5'
 13	'-x+.5, -y+.5, z'
 14	'x, y+.5, z+.5'
 15	'x+.5, y, z+.5'
 16	'x+.5, y+.5, z'
loop_
_atom_type_symbol
_atom_type_oxidation_number
H1+	1
K1+	1
O2-	-2
P5+	5
loop_
_atom_site_label
_atom_site_type_symbol
_atom_site_symmetry_multiplicity
_atom_site_Wyckoff_symbol
_atom_site_fract_x
_atom_site_fract_y
_atom_site_fract_z
_atom_site_occupancy
_atom_site_attached_hydrogens
P1 P5+ 8 a 0.25 0.25 0 1. 0 
O1 O2- 16 b 0.3658(3) 0.2839(3) 0.1386(17) 1. 0 
O2 O2- 16 b 0.2161(3) 0.3664(3) -.1169(17) 1. 0 
H1 H1+ 16 b 0.4366(10) 0.2128(10) 0.1383(33) 1. 0 
K1 K1+ 8 a 0.25 0.25 0.5164(19) 1. 0 

#End of data_34447-ICSD


