data_248085-ICSD
#?2014 by Fachinformationszentrum Karlsruhe, and the U.S. Secretary of 
#Commerce on behalf of the United States.  All rights reserved.
_database_code_ICSD                248085
_audit_creation_date               2010/08/01
_chemical_name_systematic          'Pentapotassium Triindium Fluoride'
_chemical_formula_structural       'K5 (In3 F14)'
_chemical_formula_sum              'F14 In3 K5'
_chemical_name_mineral             Chiolite
_publ_section_title
;
Solvothermal indium fluoride chemistry: Syntheses and crystal 
structures of K5 In3 F14, beta-(N H4)3 In F6 and [N H4]3 [C6 H21 N4]2 
[In4 F21]
;
loop_
_citation_id
_citation_journal_abbrev
_citation_year
_citation_journal_volume
_citation_journal_issue
_citation_page_first
_citation_page_last
_citation_journal_id_ASTM
primary 'Journal of Solid State Chemistry' 2010 183 2 356 360 JSSCBI
2 'Zeitschrift fuer Anorganische und Allgemeine Chemie (1950) (DE)'
 1938 238- 201 208 ZAACAB
3 'Journal of Solid State Chemistry' 1981 36- 297 304 JSSCBI
_publ_author_name
;
Jayasundera, A.C.A.;Goff, R.J.;Li Yang;Finch, A.A.;Lightfoot, P.
;
_cell_length_a                     7.910(2)
_cell_length_b                     7.910(2)
_cell_length_c                     11.883(3)
_cell_angle_alpha                  90.00
_cell_angle_beta                   90.00
_cell_angle_gamma                  90.00
_cell_volume                       743.5
_cell_formula_units_Z              2
_symmetry_space_group_name_H-M     'P 4/m n c'
_symmetry_Int_Tables_number        128
_refine_ls_R_factor_all            .0268
loop_
_symmetry_equiv_pos_site_id
_symmetry_equiv_pos_as_xyz
  1	'y+.5, x+.5, -z+.5'
  2	'-y+.5, -x+.5, -z+.5'
  3	'-y, x, -z'
  4	'y, -x, -z'
  5	'x+.5, -y+.5, -z+.5'
  6	'-x+.5, y+.5, -z+.5'
  7	'x, y, -z'
  8	'-x, -y, -z'
  9	'-y+.5, -x+.5, z+.5'
 10	'y+.5, x+.5, z+.5'
 11	'y, -x, z'
 12	'-y, x, z'
 13	'-x+.5, y+.5, z+.5'
 14	'x+.5, -y+.5, z+.5'
 15	'-x, -y, z'
 16	'x, y, z'
loop_
_atom_type_symbol
_atom_type_oxidation_number
F1-	-1
In3+	3
K1+	1
loop_
_atom_site_label
_atom_site_type_symbol
_atom_site_symmetry_multiplicity
_atom_site_Wyckoff_symbol
_atom_site_fract_x
_atom_site_fract_y
_atom_site_fract_z
_atom_site_occupancy
_atom_site_attached_hydrogens
_atom_site_U_iso_or_equiv
In1 In3+ 4 c 0.5000 0.0000 0.0000 1 0 0.0087(4) 
In2 In3+ 2 a 1.0000 0.0000 0.0000 1 0 0.0179(4) 
K1 K1+ 8 g 0.7121(2) 0.2121(2) 0.2500 1 0 0.0211(5) 
K2 K1+ 2 b 0.5000 0.5000 0.0000 1 0 0.0356(14) 
F1 F1- 8 h 0.0869(5) 0.2485(5) 0.0000 1 0 0.0375(12) 
F2 F1- 16 i 0.4516(4) 0.1780(5) 0.1192(3) 1 0 0.0516(11) 
F3 F1- 4 e 1.0000 0.0000 0.1729(6) 1 0 0.0285(15) 

loop_
_atom_site_aniso_label
_atom_site_aniso_type_symbol
_atom_site_aniso_U_11
_atom_site_aniso_U_22
_atom_site_aniso_U_33
_atom_site_aniso_U_12
_atom_site_aniso_U_13
_atom_site_aniso_U_23
In1 In3+ 0.0070(5) 0.0109(6) 0.0084(7) 0.00012(18) 0.000 0.000
In2 In3+ 0.0070(5) 0.0070(5) 0.0397(9) 0.000 0.000 0.000
K1 K1+ 0.0233(7) 0.0233(7) 0.0167(10) -0.0065(9) -0.0020(3) 0.0020(3)
K2 K1+ 0.024(2) 0.024(2) 0.059(4) 0.000 0.000 0.000
F1 F1- 0.016(2) 0.009(2) 0.088(4) 0.0008(14) 0.000 0.000
F2 F1- 0.0262(16) 0.077(3) 0.052(2) 0.024(2) -0.0137(15) -0.052(2)
F3 F1- 0.022(2) 0.022(2) 0.043(4) 0.000 0.000 0.000
#End of data_248085-ICSD


