data_185595-ICSD
#?2014 by Fachinformationszentrum Karlsruhe, and the U.S. Secretary of 
#Commerce on behalf of the United States.  All rights reserved.
_database_code_ICSD                185595
_audit_creation_date               2013/02/01
_chemical_name_systematic
;
Lithium Vanadium Oxide Phosphate Dihydrate
;
_chemical_formula_structural       'Li V O (P O4) (H2 O)2'
_chemical_formula_sum              'H4 Li1 O7 P1 V1'
_publ_section_title
;
Synthesis and electrochemical studies of layer-structured alphaI - Li 
V O PO4
;
loop_
_citation_id
_citation_journal_abbrev
_citation_year
_citation_journal_volume
_citation_journal_issue
_citation_page_first
_citation_page_last
_citation_journal_id_ASTM
primary 'Journal of Materials Chemistry' 2012 22 15 7206 7213 JMACEP
_publ_author_name
;
Shahul Hameed, A.;Nagarathinam, M.;Reddy, M.V.;Chowdari, 
B.V.R.;Vittal, J.J.
;
_cell_length_a                     8.9454(7)
_cell_length_b                     9.0406(7)
_cell_length_c                     12.7473(10)
_cell_angle_alpha                  90.
_cell_angle_beta                   90.
_cell_angle_gamma                  90.
_cell_volume                       1030.9
_cell_formula_units_Z              8
_symmetry_space_group_name_H-M     'C m c a'
_symmetry_Int_Tables_number        64
_refine_ls_R_factor_all            .025
loop_
_symmetry_equiv_pos_site_id
_symmetry_equiv_pos_as_xyz
  1	'-x, -y+.5, z+.5'
  2	'-x, y+.5, -z+.5'
  3	'-x, y, z'
  4	'-x, -y, -z'
  5	'x, y+.5, -z+.5'
  6	'x, -y+.5, z+.5'
  7	'x, -y, -z'
  8	'x, y, z'
  9	'-x+.5, -y, z+.5'
 10	'-x+.5, y, -z+.5'
 11	'-x+.5, y+.5, z'
 12	'-x+.5, -y+.5, -z'
 13	'x+.5, y, -z+.5'
 14	'x+.5, -y, z+.5'
 15	'x+.5, -y+.5, -z'
 16	'x+.5, y+.5, z'
loop_
_atom_type_symbol
_atom_type_oxidation_number
H1+	1
Li1+	1
O2-	-2
P5+	5
V4+	4
loop_
_atom_site_label
_atom_site_type_symbol
_atom_site_symmetry_multiplicity
_atom_site_Wyckoff_symbol
_atom_site_fract_x
_atom_site_fract_y
_atom_site_fract_z
_atom_site_occupancy
_atom_site_attached_hydrogens
_atom_site_U_iso_or_equiv
V1 V4+ 8 f 0.5000 0.62335(4) 0.79062(3) 1 0 0.00458(17) 
Li1 Li1+ 8 f 0.5000 0.8776(5) 0.9344(4) 1 0 0.0178(10) 
P1 P5+ 8 e 0.2500 0.87610(6) 0.7500 1 0 0.00421(19) 
O1 O2- 16 g 0.65668(13) 0.47274(13) 0.82570(10) 1 0 0.0080(3) 
O2 O2- 8 f 0.5000 0.6125(2) 0.66636(16) 1 0 0.0120(4) 
O3 O2- 16 g 0.35070(13) 0.78219(13) 0.82088(10) 1 0 0.0077(3) 
O4 O2- 8 d 0.3359(2) 1.0000 1.0000 1 0 0.0130(4) 
H1 H1+ 16 g 0.279(3) 0.986(3) 1.050(2) 1 0 0.031(7) 
O5 O2- 8 f 0.5000 0.6676(2) 0.98991(16) 1 0 0.0135(4) 
H2 H1+ 16 g 0.436(4) 0.654(4) 1.029(3) 1 0 0.052(11) 

loop_
_atom_site_aniso_label
_atom_site_aniso_type_symbol
_atom_site_aniso_U_11
_atom_site_aniso_U_22
_atom_site_aniso_U_33
_atom_site_aniso_U_12
_atom_site_aniso_U_13
_atom_site_aniso_U_23
V1 V4+ 0.0032(2) 0.0040(3) 0.0066(3) 0.000 0.000 -0.00024(13)
Li1 Li1+ 0.020(2) 0.014(2) 0.019(3) 0.000 0.000 -0.0051(18)
P1 P5+ 0.0025(3) 0.0034(3) 0.0067(4) 0.000 0.0000(2) 0.000
O1 O2- 0.0064(5) 0.0077(6) 0.0100(6) 0.0036(5) 0.0000(5) -0.0017(5)
O2 O2- 0.0115(9) 0.0146(9) 0.0100(10) 0.000 0.000 -0.0012(7)
O3 O2- 0.0068(5) 0.0071(5) 0.0093(6) 0.0032(4) -0.0015(5) 0.0000(4)
O4 O2- 0.0107(9) 0.0205(10) 0.0077(8) 0.000 0.000 -0.0011(7)
O5 O2- 0.0153(10) 0.0139(9) 0.0112(9) 0.000 0.000 0.0020(8)
#End of data_185595-ICSD


