data_90071-ICSD
#?2014 by Fachinformationszentrum Karlsruhe, and the U.S. Secretary of 
#Commerce on behalf of the United States.  All rights reserved.
_database_code_ICSD                90071
_audit_creation_date               2002/04/01
_chemical_name_systematic          'Silver Tetrafluoroaurate'
_chemical_formula_structural       'Ag (Au F4)'
_chemical_formula_sum              'Ag1 Au1 F4'
_publ_section_title
;
Structural features of Ag (Au F4) and Ag (Au F6) and the 
structuralrelationship of Ag (Ag F4)2 and Au (Au F4)2 to Ag (Au F4)2
;
loop_
_citation_id
_citation_journal_abbrev
_citation_year
_citation_journal_volume
_citation_page_first
_citation_page_last
_citation_journal_id_ASTM
primary 'Inorganic Chemistry' 2000 39 1545 1548 INOCAJ
_publ_author_name
;
Graudejus, O.;Wilkinson, A.P.;Bartlett, N.
;
_cell_length_a                     5.79109(6)
_cell_length_b                     5.79109(6)
_cell_length_c                     10.8168(2)
_cell_angle_alpha                  90.
_cell_angle_beta                   90.
_cell_angle_gamma                  90.
_cell_volume                       362.76
_cell_formula_units_Z              4
_symmetry_space_group_name_H-M     'I 4/m c m'
_symmetry_Int_Tables_number        140
_refine_ls_R_factor_all            .06
loop_
_symmetry_equiv_pos_site_id
_symmetry_equiv_pos_as_xyz
  1	'y, x, -z+.5'
  2	'-y, -x, -z+.5'
  3	'-y, x, -z'
  4	'y, -x, -z'
  5	'x, -y, -z+.5'
  6	'-x, y, -z+.5'
  7	'x, y, -z'
  8	'-x, -y, -z'
  9	'-y, -x, z+.5'
 10	'y, x, z+.5'
 11	'y, -x, z'
 12	'-y, x, z'
 13	'-x, y, z+.5'
 14	'x, -y, z+.5'
 15	'-x, -y, z'
 16	'x, y, z'
 17	'y+.5, x+.5, -z'
 18	'-y+.5, -x+.5, -z'
 19	'-y+.5, x+.5, -z+.5'
 20	'y+.5, -x+.5, -z+.5'
 21	'x+.5, -y+.5, -z'
 22	'-x+.5, y+.5, -z'
 23	'x+.5, y+.5, -z+.5'
 24	'-x+.5, -y+.5, -z+.5'
 25	'-y+.5, -x+.5, z'
 26	'y+.5, x+.5, z'
 27	'y+.5, -x+.5, z+.5'
 28	'-y+.5, x+.5, z+.5'
 29	'-x+.5, y+.5, z'
 30	'x+.5, -y+.5, z'
 31	'-x+.5, -y+.5, z+.5'
 32	'x+.5, y+.5, z+.5'
loop_
_atom_type_symbol
_atom_type_oxidation_number
Ag1+	1
Au3+	3
F1-	-1
loop_
_atom_site_label
_atom_site_type_symbol
_atom_site_symmetry_multiplicity
_atom_site_Wyckoff_symbol
_atom_site_fract_x
_atom_site_fract_y
_atom_site_fract_z
_atom_site_occupancy
_atom_site_attached_hydrogens
_atom_site_U_iso_or_equiv
Ag1 Ag1+ 4 a 0 0 0.25 1. 0 0.0217(7) 
Au1 Au3+ 4 d 0 0.5 0 1. 0 0.0146(4) 
F1 F1- 16 l 0.1674(12) 0.6674(12) 0.8804(11) 1. 0 0.033(3) 

#End of data_90071-ICSD


