data_81441-ICSD
#?2014 by Fachinformationszentrum Karlsruhe, and the U.S. Secretary of 
#Commerce on behalf of the United States.  All rights reserved.
_database_code_ICSD                81441
_audit_creation_date               1997/11/05
_audit_update_record               2002/04/01
_chemical_name_systematic          'Dibarium Sodium Pentaniobate(V)'
_chemical_formula_structural       'Ba2 Na (Nb5 O15)'
_chemical_formula_sum              'Ba2 Na1 Nb5 O15'
_publ_section_title
;
Obtention of good quality Ba2 Na Nb5 O15 crystals: growth, 
characterization and structure of Nd(3+)-doped single-crystal fibres
;
loop_
_citation_id
_citation_journal_abbrev
_citation_year
_citation_journal_volume
_citation_page_first
_citation_page_last
_citation_journal_id_ASTM
primary 'European Journal of Solid State Inorganic Chemistry'
 1996 33 673 686 EJSCE5
2 'Phase Transition' 1992 38 127 220 PHTRDP
_publ_author_name
;
Foulon, G.;Ferriol, M.;Brenier, A.;Boulon, G.;Lecocq, S.
;
_cell_length_a                     12.425(2)
_cell_length_b                     12.484(9)
_cell_length_c                     3.977(2)
_cell_angle_alpha                  90.
_cell_angle_beta                   90.
_cell_angle_gamma                  90.
_cell_volume                       616.89
_cell_formula_units_Z              2
_symmetry_space_group_name_H-M     'P b a 2'
_symmetry_Int_Tables_number        32
_refine_ls_R_factor_all            .052
loop_
_symmetry_equiv_pos_site_id
_symmetry_equiv_pos_as_xyz
  1	'x+.5, -y+.5, z'
  2	'-x+.5, y+.5, z'
  3	'-x, -y, z'
  4	'x, y, z'
loop_
_atom_type_symbol
_atom_type_oxidation_number
Ba2+	2
Na1+	1
Nb5+	5
O2-	-2
loop_
_atom_site_label
_atom_site_type_symbol
_atom_site_symmetry_multiplicity
_atom_site_Wyckoff_symbol
_atom_site_fract_x
_atom_site_fract_y
_atom_site_fract_z
_atom_site_occupancy
_atom_site_attached_hydrogens
_atom_site_U_iso_or_equiv
Ba1 Ba2+ 4 c 0.17233(6) 0.17229(6) 0.1998(2) 1. 0 0.0165(2) 
Nb1 Nb5+ 4 c 0.29072(6) 0.92641(6) 0.6848(4) 1. 0 0.0046(2) 
Nb2 Nb5+ 4 c 0.92644(6) 0.29076(6) 0.6845(4) 1. 0 0.0046(2) 
Nb3 Nb5+ 2 a 0 0 0.6843(7) 1. 0 0.0055(2) 
Na1 Na1+ 2 b 0.5 0 0.203(3) 1. 0 0.0006(7) 
O1 O2- 4 c 0.1563(6) 0.0070(7) 0.738(2) 1. 0 0.010(2) 
O2 O2- 4 c 0.0069(6) 0.1566(7) 0.739(2) 1. 0 0.010(1) 
O3 O2- 4 c 0.2839(6) 0.2835(6) 0.714(4) 1. 0 0.011(1) 
O4 O2- 4 c 0.3585(8) 0.0697(8) 0.741(3) 1. 0 0.017(2) 
O5 O2- 4 c 0.0702(7) 0.3591(8) 0.741(3) 1. 0 0.017(2) 
O6 O2- 4 c 0.206(1) 0.421(1) 0.209(7) 1. 0 0.040(3) 
O7 O2- 2 a 0 0 0.193(12) 1. 0 0.041(4) 
O8 O2- 4 c 0.424(1) 0.208(1) 0.196(9) 1. 0 0.046(3) 

#End of data_81441-ICSD


