data_94458-ICSD
#?2014 by Fachinformationszentrum Karlsruhe, and the U.S. Secretary of 
#Commerce on behalf of the United States.  All rights reserved.
_database_code_ICSD                94458
_audit_creation_date               2003/10/01
_chemical_name_systematic
;
Potassium Di-mue-fluoro-pentafluorovanado(II)zirconate
;
_chemical_formula_structural       'K (V Zr F7)'
_chemical_formula_sum              'F7 K1 V1 Zr1'
_publ_section_title
;
Neue Fluorozirconate und -hafnate mit V(2+) und Ti(2+)
;
loop_
_citation_id
_citation_journal_abbrev
_citation_year
_citation_journal_volume
_citation_page_first
_citation_page_last
_citation_journal_id_ASTM
primary 'Zeitschrift fuer Anorganische und Allgemeine Chemie (1950) (DE)'
 2001 627 2344 2350 ZAACAB
_publ_author_name
;
Schmidt, R.;Kraus, M.;Mueller, B.G.
;
_cell_length_a                     11.098(6)
_cell_length_b                     7.880(7)
_cell_length_c                     6.480(15)
_cell_angle_alpha                  90
_cell_angle_beta                   90
_cell_angle_gamma                  90
_cell_volume                       566.69
_cell_formula_units_Z              4
_symmetry_space_group_name_H-M     'P n n a'
_symmetry_Int_Tables_number        52
_refine_ls_R_factor_all            .1068
loop_
_symmetry_equiv_pos_site_id
_symmetry_equiv_pos_as_xyz
  1	'x+.5, -y+.5, z+.5'
  2	'-x, y+.5, z+.5'
  3	'x+.5, y, -z'
  4	'-x, -y, -z'
  5	'-x+.5, y+.5, -z+.5'
  6	'x, -y+.5, -z+.5'
  7	'-x+.5, -y, z'
  8	'x, y, z'
loop_
_atom_type_symbol
_atom_type_oxidation_number
F1-	-1
K1+	1
V2+	2
Zr4+	4
loop_
_atom_site_label
_atom_site_type_symbol
_atom_site_symmetry_multiplicity
_atom_site_Wyckoff_symbol
_atom_site_fract_x
_atom_site_fract_y
_atom_site_fract_z
_atom_site_occupancy
_atom_site_attached_hydrogens
K1 K1+ 4 c 0.250 0 0.73334(75) 1. 0 
Zr1 Zr4+ 4 d 0.40725(17) 0.250 0.250 1. 0 
V1 V2+ 4 d 0.09478(30) 0.250 0.250 1. 0 
F1 F1- 8 e 0.25016(67) 0.2091(15) 0.0717(15) 1. 0 
F2 F1- 8 e 0.10607(83) 0.9965(10) 0.3316(18) 1. 0 
F3 F1- 4 d 0.5829(12) 0.250 0.250 1. 0 
F4 F1- 8 e -.04437(83) 0.3050(14) 0.4484(15) 1. 0 

loop_
_atom_site_aniso_label
_atom_site_aniso_type_symbol
_atom_site_aniso_U_11
_atom_site_aniso_U_22
_atom_site_aniso_U_33
_atom_site_aniso_U_12
_atom_site_aniso_U_13
_atom_site_aniso_U_23
K1 K1+ 0.04040(270) 0.03083(317) 0.03243(254) 0.00900(171) 0. 0.
Zr1 Zr4+ 0.01977(90) 0.01445(104) 0.01888(92) 0. 0. -0.00005(62)
V1 V2+ 0.01956(141) 0.01687(172) 0.02080(151) 0. 0. 0.00024(113)
F1 F1- 0.01699(336) 0.05431(602) 0.02764(448) -0.00031(310 -0.00184(320 
-0.00421(465
F2 F1- 0.02981(443) 0.01850(477) 0.05646(614) 0.00330(295) -0.01555(453 
-0.00325(381
F3 F1- 0.02243(600) 0.0718(116) 0.04167(820) 0. 0. -0.00537(702
F4 F1- 0.03218(414) 0.05800(614) 0.02264(401) 0.00587(416) 0.00603(368) 
0.00494(435)
#End of data_94458-ICSD


