data_34678-ICSD
#?2014 by Fachinformationszentrum Karlsruhe, and the U.S. Secretary of 
#Commerce on behalf of the United States.  All rights reserved.
_database_code_ICSD                34678
_audit_creation_date               1980/01/01
_audit_update_record               2013/02/01
_chemical_name_systematic          'Calcium Nitride - Alpha, Ht'
_chemical_formula_structural       'Ca3 N2'
_chemical_formula_sum              'Ca3 N2'
_publ_section_title
;
Structure du nitrure de calcium alpha
;
loop_
_citation_id
_citation_journal_abbrev
_citation_year
_citation_journal_volume
_citation_page_first
_citation_page_last
_citation_journal_id_ASTM
primary 'Acta Crystallographica B (24,1968-38,1982)' 1968 24 494 499 ACBCAR
2 'Phase Transition' 1992 38 127 220 PHTRDP
3
;
Zeitschrift fuer Physikalische Chemie, Abteilung B: Chemie der 
Elementarprozesse, Aufbau der Materie
;
 1933 22 305 322 ZPCBAL
_publ_author_name
;
Laurent, Y.;Lang, J.;le Bihan, M.T.
;
_cell_length_a                     11.473(1)
_cell_length_b                     11.473(1)
_cell_length_c                     11.473(1)
_cell_angle_alpha                  90.
_cell_angle_beta                   90.
_cell_angle_gamma                  90.
_cell_volume                       1510.19
_cell_formula_units_Z              16
_symmetry_space_group_name_H-M     'I a -3'
_symmetry_Int_Tables_number        206
_refine_ls_R_factor_all            .06
loop_
_symmetry_equiv_pos_site_id
_symmetry_equiv_pos_as_xyz
  1	'-z, x, y+.5'
  2	'z, x+.5, -y'
  3	'z+.5, -x, y'
  4	'-z, -x, -y'
  5	'y+.5, -z, x'
  6	'-y, z, x+.5'
  7	'y, z+.5, -x'
  8	'-y, -z, -x'
  9	'x, y+.5, -z'
 10	'x+.5, -y, z'
 11	'-x, y, z+.5'
 12	'-x, -y, -z'
 13	'z, -x, -y+.5'
 14	'-z, -x+.5, y'
 15	'-z+.5, x, -y'
 16	'z, x, y'
 17	'-y+.5, z, -x'
 18	'y, -z, -x+.5'
 19	'-y, -z+.5, x'
 20	'y, z, x'
 21	'-x, -y+.5, z'
 22	'-x+.5, y, -z'
 23	'x, -y, -z+.5'
 24	'x, y, z'
 25	'-z+.5, x+.5, y'
 26	'z+.5, x, -y+.5'
 27	'z, -x+.5, y+.5'
 28	'-z+.5, -x+.5, -y+.5'
 29	'y, -z+.5, x+.5'
 30	'-y+.5, z+.5, x'
 31	'y+.5, z, -x+.5'
 32	'-y+.5, -z+.5, -x+.5'
 33	'x+.5, y, -z+.5'
 34	'x, -y+.5, z+.5'
 35	'-x+.5, y+.5, z'
 36	'-x+.5, -y+.5, -z+.5'
 37	'z+.5, -x+.5, -y'
 38	'-z+.5, -x, y+.5'
 39	'-z, x+.5, -y+.5'
 40	'z+.5, x+.5, y+.5'
 41	'-y, z+.5, -x+.5'
 42	'y+.5, -z+.5, -x'
 43	'-y+.5, -z, x+.5'
 44	'y+.5, z+.5, x+.5'
 45	'-x+.5, -y, z+.5'
 46	'-x, y+.5, -z+.5'
 47	'x+.5, -y+.5, -z'
 48	'x+.5, y+.5, z+.5'
loop_
_atom_type_symbol
_atom_type_oxidation_number
Ca2+	2
N3-	-3
loop_
_atom_site_label
_atom_site_type_symbol
_atom_site_symmetry_multiplicity
_atom_site_Wyckoff_symbol
_atom_site_fract_x
_atom_site_fract_y
_atom_site_fract_z
_atom_site_occupancy
_atom_site_attached_hydrogens
N1 N3- 8 b 0.25 0.25 0.25 1. 0 
N2 N3- 24 d -.040(2) 0 0.25 1. 0 
Ca1 Ca2+ 48 e 0.389(1) 0.153(1) 0.382(1) 1. 0 

#End of data_34678-ICSD


