data_14127-ICSD
#?2014 by Fachinformationszentrum Karlsruhe, and the U.S. Secretary of 
#Commerce on behalf of the United States.  All rights reserved.
_database_code_ICSD                14127
_audit_creation_date               1986/10/02
_audit_update_record               2012/08/01
_chemical_name_systematic          'Potassium Nonafluorothorate - Beta'
_chemical_formula_structural       'K5 Th F9'
_chemical_formula_sum              'F9 K5 Th1'
_publ_section_title
;
The Crystal Structure of Potassium Enneafluorothorate
;
loop_
_citation_id
_citation_journal_abbrev
_citation_year
_citation_journal_volume
_citation_page_first
_citation_page_last
_citation_journal_id_ASTM
primary 'Acta Crystallographica B (24,1968-38,1982)' 1971 27 829 833 ACBCAR
_publ_author_name                  'Ryan, R.R.;Penneman, R.A.'
_cell_length_a                     7.848(2)
_cell_length_b                     12.840(2)
_cell_length_c                     10.785(3)
_cell_angle_alpha                  90.
_cell_angle_beta                   90.
_cell_angle_gamma                  90.
_cell_volume                       1086.79
_cell_formula_units_Z              4
_symmetry_space_group_name_H-M     'C m c 21'
_symmetry_Int_Tables_number        36
_refine_ls_R_factor_all            .018
loop_
_symmetry_equiv_pos_site_id
_symmetry_equiv_pos_as_xyz
  1	'x, -y, z+.5'
  2	'-x, -y, z+.5'
  3	'-x, y, z'
  4	'x, y, z'
  5	'x+.5, -y+.5, z+.5'
  6	'-x+.5, -y+.5, z+.5'
  7	'-x+.5, y+.5, z'
  8	'x+.5, y+.5, z'
loop_
_atom_type_symbol
_atom_type_oxidation_number
F1-	-1
K1+	1
Th4+	4
loop_
_atom_site_label
_atom_site_type_symbol
_atom_site_symmetry_multiplicity
_atom_site_Wyckoff_symbol
_atom_site_fract_x
_atom_site_fract_y
_atom_site_fract_z
_atom_site_occupancy
_atom_site_attached_hydrogens
Th1 Th4+ 4 a 0 0.16186(3) 0.25 1. 0 
K1 K1+ 4 a 0 0.5769(2) 0.2134(3) 1. 0 
K2 K1+ 8 b 0.2588(4) 0.8642(2) 0.0527(2) 1. 0 
K3 K1+ 8 b 0.2468(4) 0.8933(2) 0.4013(2) 1. 0 
F1 F1- 4 a 0 0.0397(4) 0.4054(7) 1. 0 
F2 F1- 4 a 0 0.2033(6) 0.0414(8) 1. 0 
F3 F1- 4 a 0 0.3475(4) 0.2250(8) 1. 0 
F4 F1- 4 a 0 0.2476(6) 0.4476(9) 1. 0 
F5 F1- 4 a 0 0.5167(6) 0.4619(6) 1. 0 
F6 F1- 8 b 0.1829(6) 0.0327(3) 0.1780(5) 1. 0 
F7 F1- 8 b 0.2743(5) 0.2194(3) 0.2729(9) 1. 0 

#End of data_14127-ICSD


