data_60525-ICSD
#?2014 by Fachinformationszentrum Karlsruhe, and the U.S. Secretary of 
#Commerce on behalf of the United States.  All rights reserved.
_database_code_ICSD                60525
_audit_creation_date               1986/12/03
_audit_update_record               2012/08/01
_chemical_name_systematic
;
Potassium Tetrafluoroaluminate - Lt
;
_chemical_formula_structural       'K (Al F4)'
_chemical_formula_sum              'Al1 F4 K1'
_publ_section_title
;
Shear transformation in the layered compound K Al F4: low temperature 
phase structure and transformation mechanism
;
loop_
_citation_id
_citation_journal_abbrev
_citation_year
_citation_journal_volume
_citation_page_first
_citation_page_last
_citation_journal_id_ASTM
primary 'Journal de Physique (Paris)' 1985 46 771 782 JOPQAG
2 'Phase Transition' 1992 38 127 220 PHTRDP
_publ_author_name
;
Launay, J.M.;Bulou, A.;Hewat, A.W.;Gibaud, A.;Laval, J.Y.;Nouet, J.
;
_cell_length_a                     7.3403(2)
_cell_length_b                     7.2370(2)
_cell_length_c                     6.4070(2)
_cell_angle_alpha                  90.
_cell_angle_beta                   106.801(4)
_cell_angle_gamma                  90.
_cell_volume                       325.82
_cell_formula_units_Z              4
_symmetry_space_group_name_H-M     'P 1 21/m 1'
_symmetry_Int_Tables_number        11
loop_
_symmetry_equiv_pos_site_id
_symmetry_equiv_pos_as_xyz
  1	'x, -y+.5, z'
  2	'-x, -y, -z'
  3	'-x, y+.5, -z'
  4	'x, y, z'
loop_
_atom_type_symbol
_atom_type_oxidation_number
Al3+	3
F1-	-1
K1+	1
loop_
_atom_site_label
_atom_site_type_symbol
_atom_site_symmetry_multiplicity
_atom_site_Wyckoff_symbol
_atom_site_fract_x
_atom_site_fract_y
_atom_site_fract_z
_atom_site_occupancy
_atom_site_attached_hydrogens
_atom_site_B_iso_or_equiv
Al1 Al3+ 2 a 0 0 0 1. 0 0.04(5) 
Al2 Al3+ 2 b 0.5 0 0 1. 0 0.04(5) 
K1 K1+ 2 e 0.131(2) 0.25 0.541(2) 1. 0 0 
K2 K1+ 2 e 0.633(2) 0.25 0.544(2) 1. 0 0 
F1 F1- 4 f 0.2581(8) -.0205(3) 0.0077(9) 1. 0 0 
F2 F1- 2 e 0.029(1) 0.25 0.051(1) 1. 0 0 
F3 F1- 2 e 0.4874(8) 0.25 0.044(1) 1. 0 0 
F4 F1- 4 f 0.0712(7) -.0370(5) 0.2836(8) 1. 0 0 
F5 F1- 4 f 0.5738(6) -.0361(5) 0.2840(7) 1. 0 0 

loop_
_atom_site_aniso_label
_atom_site_aniso_type_symbol
_atom_site_aniso_B_11
_atom_site_aniso_B_22
_atom_site_aniso_B_33
_atom_site_aniso_B_12
_atom_site_aniso_B_13
_atom_site_aniso_B_23
K1 K1+ 0.9(1) 0.1(1) 1.1(2) 0 0.32(4) 0
K2 K1+ 0.9(1) 0.1(1) 1.1(2) 0 0.32(4) 0
F1 F1- 0.38(6) 1.0(1) 1.5(1) 0 0.42(3) 0
F2 F1- 1.04(5) 0.28(6) 1.5(1) 0 0.42(3) 0
F3 F1- 1.04(5) 0.28(6) 1.5(1) 0 0.42(3) 0
F4 F1- 0.98(4) 0.27(5) 0.87(8) 0 0.24 0
F5 F1- 0.98(4) 0.27(5) 0.87(8) 0 0.24 0
#End of data_60525-ICSD


