data_410825-ICSD
#?2014 by Fachinformationszentrum Karlsruhe, and the U.S. Secretary of 
#Commerce on behalf of the United States.  All rights reserved.
_database_code_ICSD                410825
_audit_creation_date               2002/04/01
_audit_update_record               2010/08/01
_chemical_name_systematic          'Tetracalcium Dinitride Cyanamide'
_chemical_formula_structural       'Ca4 N2 (N C N)'
_chemical_formula_sum              'C1 Ca4 N4'
_publ_section_title
;
Ca11 N6 (C N2)2 and Ca4 N2 (C N2): The true nature of an "unusual 
binary nitride" is finally revealed
;
loop_
_citation_id
_citation_journal_abbrev
_citation_year
_citation_journal_volume
_citation_page_first
_citation_page_last
_citation_journal_id_ASTM
primary 'Angewandte Chemie. International Edition' 2000 39 412 414 ACIEF5
_publ_author_name                  'Reckeweg, O.;DiSalvo, F.J.'
_cell_length_a                     11.439(2)
_cell_length_b                     3.5772(7)
_cell_length_c                     13.844(3)
_cell_angle_alpha                  90.
_cell_angle_beta                   90.
_cell_angle_gamma                  90.
_cell_volume                       566.49
_cell_formula_units_Z              4
_symmetry_space_group_name_H-M     'P n m a'
_symmetry_Int_Tables_number        62
_refine_ls_R_factor_all            .085
loop_
_symmetry_equiv_pos_site_id
_symmetry_equiv_pos_as_xyz
  1	'x+.5, y, -z+.5'
  2	'x, -y+.5, z'
  3	'-x+.5, y+.5, z+.5'
  4	'-x, -y, -z'
  5	'-x+.5, -y, z+.5'
  6	'-x, y+.5, -z'
  7	'x+.5, -y+.5, -z+.5'
  8	'x, y, z'
loop_
_atom_type_symbol
_atom_type_oxidation_number
C4+	4
Ca2+	2
N3-	-3
loop_
_atom_site_label
_atom_site_type_symbol
_atom_site_symmetry_multiplicity
_atom_site_Wyckoff_symbol
_atom_site_fract_x
_atom_site_fract_y
_atom_site_fract_z
_atom_site_occupancy
_atom_site_attached_hydrogens
_atom_site_U_iso_or_equiv
Ca1 Ca2+ 4 c 0.6140(2) 0.25 0.32809(14) 1. 0 0 
Ca2 Ca2+ 4 c 0.3800(2) 0.25 0.46002(15) 1. 0 0 
Ca3 Ca2+ 4 c 0.8772(2) 0.25 0.61600(15) 1. 0 0 
Ca4 Ca2+ 4 c 0.6404(2) 0.25 0.73953(15) 1. 0 0 
N1 N3- 4 c 0.2332(7) 0.25 0.3157(6) 1. 0 0 
N2 N3- 4 c 0.4988(7) 0.25 0.6174(6) 1. 0 0 
N3 N3- 4 c 0.7670(8) 0.25 0.4567(6) 1. 0 0 
N4 N3- 4 c 0.9550(8) 0.25 0.3704(7) 1. 0 0 
C1 C4+ 4 c 0.8600(9) 0.25 0.4138(7) 1. 0 0.004(2) 

loop_
_atom_site_aniso_label
_atom_site_aniso_type_symbol
_atom_site_aniso_U_11
_atom_site_aniso_U_22
_atom_site_aniso_U_33
_atom_site_aniso_U_12
_atom_site_aniso_U_13
_atom_site_aniso_U_23
Ca1 Ca2+ 0.0048(13) 0.006(2) 0.0105(13) 0 0.0022(10) 0
Ca2 Ca2+ 0.0057(13) 0.005(2) 0.0108(13) 0 -.0008(9) 0
Ca3 Ca2+ 0.0046(12) 0.0059(15) 0.0107(13) 0 -.0006(10) 0
Ca4 Ca2+ 0.0030(12) 0.0070(15) 0.0094(12) 0 0.0012(10) 0
N1 N3- 0.010(5) 0.009(6) 0.005(5) 0 -.001(4) 0
N2 N3- 0.004(5) 0.012(6) 0.008(5) 0 -.001(4) 0
N3 N3- 0.010(5) 0.026(7) 0.008(5) 0 -.005(4) 0
N4 N3- 0.019(6) 0.007(6) 0.017(5) 0 -.001(5) 0
#End of data_410825-ICSD


