data_174209-ICSD
#?2014 by Fachinformationszentrum Karlsruhe, and the U.S. Secretary of 
#Commerce on behalf of the United States.  All rights reserved.
_database_code_ICSD                174209
_audit_creation_date               2010/08/01
_chemical_name_systematic
;
Potassium Heptafluorodititanate(III)
;
_chemical_formula_structural       'K Ti2 F7'
_chemical_formula_sum              'F7 K1 Ti2'
_publ_section_title
;
High pressure synthesis and properties of ternary titanium (III) 
fluorides in the system K F - Ti F3 containing regular pentagonal 
bipyramids [Ti F7]
;
loop_
_citation_id
_citation_journal_abbrev
_citation_year
_citation_journal_volume
_citation_journal_issue
_citation_page_first
_citation_page_last
_citation_journal_id_ASTM
primary 'Journal of Solid State Chemistry' 2010 183 1 256 261 JSSCBI
_publ_author_name                  'Yamanaka, S.;Yasuda, A.;Miyata, H.'
_cell_length_a                     6.371(3)
_cell_length_b                     10.448(6)
_cell_length_c                     3.958(2)
_cell_angle_alpha                  90.
_cell_angle_beta                   90.
_cell_angle_gamma                  90.
_cell_volume                       263.46
_cell_formula_units_Z              2
_symmetry_space_group_name_H-M     'C m m m'
_symmetry_Int_Tables_number        65
_refine_ls_R_factor_all            .022
loop_
_symmetry_equiv_pos_site_id
_symmetry_equiv_pos_as_xyz
  1	'x, -y, z'
  2	'-x, y, z'
  3	'x, y, -z'
  4	'-x, -y, -z'
  5	'-x, y, -z'
  6	'x, -y, -z'
  7	'-x, -y, z'
  8	'x, y, z'
  9	'x+.5, -y+.5, z'
 10	'-x+.5, y+.5, z'
 11	'x+.5, y+.5, -z'
 12	'-x+.5, -y+.5, -z'
 13	'-x+.5, y+.5, -z'
 14	'x+.5, -y+.5, -z'
 15	'-x+.5, -y+.5, z'
 16	'x+.5, y+.5, z'
loop_
_atom_type_symbol
_atom_type_oxidation_number
F1-	-1
K1+	1
Ti3+	3
loop_
_atom_site_label
_atom_site_type_symbol
_atom_site_symmetry_multiplicity
_atom_site_Wyckoff_symbol
_atom_site_fract_x
_atom_site_fract_y
_atom_site_fract_z
_atom_site_occupancy
_atom_site_attached_hydrogens
_atom_site_U_iso_or_equiv
Ti1 Ti3+ 4 j 0.5 0.19206(5) 0.5 1. 0 0.0099(3) 
K1 K1+ 2 a 0 0 0 1. 0 0.0261(4) 
F1 F1- 2 c 0.5 0 0.5 1. 0 0.0253(8) 
F2 F1- 4 i 0.5 0.1980(2) 0 1. 0 0.0235(7) 
F3 F1- 8 q 0.1900(2) 0.1457(2) 0.5 1. 0 0.0170(4) 

loop_
_atom_site_aniso_label
_atom_site_aniso_type_symbol
_atom_site_aniso_U_11
_atom_site_aniso_U_22
_atom_site_aniso_U_33
_atom_site_aniso_U_12
_atom_site_aniso_U_13
_atom_site_aniso_U_23
Ti1 Ti3+ 0.0084(4) 0.0095(4) 0.0119(4) 0 0 0
K1 K1+ 0.0414(8) 0.0199(7) 0.0173(6) 0 0 0
F1 F1- 0.015(2) 0.015(2) 0.046(2) 0 0 0
F2 F1- 0.026(1) 0.036(2) 0.009(1) 0 0 0
F3 F1- 0.0125(8) 0.0121(9) 0.0266(8) -0.0013(6) 0 0
#End of data_174209-ICSD


