data_260824-ICSD
#?2014 by Fachinformationszentrum Karlsruhe, and the U.S. Secretary of 
#Commerce on behalf of the United States.  All rights reserved.
_database_code_ICSD                260824
_audit_creation_date               2011/02/01
_chemical_name_systematic
;
Tripotassium Trans-tetracyanidodioxidotechnetate(V)
;
_chemical_formula_structural       'K3 (Tc O2 (C N)4)'
_chemical_formula_sum              'C4 K3 N4 O2 Tc1'
_publ_section_title                'trans - K3 [Tc O2 (C N)4]'
loop_
_citation_id
_citation_journal_abbrev
_citation_year
_citation_journal_volume
_citation_journal_issue
_citation_page_first
_citation_page_last
_citation_journal_id_ASTM
primary 'Acta Crystallographica, Section E. Structure Reports Online'
 2010 66 8 i61 i62 ACSEBH
_publ_author_name
;
Chatterjee, S.;del Negro, A.S.;Edwards, M.K.;Twamley, B.;Krause, 
J.A.;Bryan, S.A.
;
_cell_length_a                     6.2539(6)
_cell_length_b                     6.9389(6)
_cell_length_c                     7.4347(7)
_cell_angle_alpha                  108.3050(10)
_cell_angle_beta                   109.816(2)
_cell_angle_gamma                  104.1430(10)
_cell_volume                       265.01
_cell_formula_units_Z              1
_symmetry_space_group_name_H-M     'P -1'
_symmetry_Int_Tables_number        2
_refine_ls_R_factor_all            .0199
loop_
_symmetry_equiv_pos_site_id
_symmetry_equiv_pos_as_xyz
  1	'-x, -y, -z'
  2	'x, y, z'
loop_
_atom_type_symbol
_atom_type_oxidation_number
C2+	2
K1+	1
N3-	-3
O2-	-2
Tc5+	5
loop_
_atom_site_label
_atom_site_type_symbol
_atom_site_symmetry_multiplicity
_atom_site_Wyckoff_symbol
_atom_site_fract_x
_atom_site_fract_y
_atom_site_fract_z
_atom_site_occupancy
_atom_site_attached_hydrogens
_atom_site_U_iso_or_equiv
K1 K1+ 1 d 0.5000 0.0000 1.0000 1 0 0.01358(15) 
K2 K1+ 2 i 0.04367(6) 0.33536(7) 0.69923(6) 1 0 0.01283(13) 
Tc1 Tc5+ 1 h 0.5000 0.5000 0.5000 1 0 0.00885(11) 
O1 O2- 2 i 0.6628(2) 0.3641(2) 0.39016(18) 1 0 0.0123(3) 
N1 N3- 2 i 0.6522(3) 0.3389(3) 0.8804(2) 1 0 0.0159(4) 
N2 N3- 2 i -0.0098(3) 0.0509(3) 0.2506(2) 1 0 0.0161(4) 
C1 C2+ 2 i 0.5999(3) 0.3996(3) 0.7507(3) 1 0 0.0120(4) 
C2 C2+ 2 i 0.1707(3) 0.2034(3) 0.3254(3) 1 0 0.0123(4) 

loop_
_atom_site_aniso_label
_atom_site_aniso_type_symbol
_atom_site_aniso_U_11
_atom_site_aniso_U_22
_atom_site_aniso_U_33
_atom_site_aniso_U_12
_atom_site_aniso_U_13
_atom_site_aniso_U_23
K1 K1+ 0.0127(3) 0.0130(3) 0.0118(3) 0.0033(2) 0.0024(2) 0.0064(2)
K2 K1+ 0.0118(2) 0.0155(3) 0.0129(2) 0.00591(17) 0.00588(15) 0.00746(18)
Tc1 Tc5+ 0.00763(14) 0.01073(17) 0.00889(14) 0.00383(10) 0.00354(9) 
0.00513(10)
O1 O2- 0.0110(6) 0.0132(7) 0.0131(6) 0.0052(5) 0.0050(5) 0.0063(5)
N1 N3- 0.0157(7) 0.0175(10) 0.0145(7) 0.0059(7) 0.0061(6) 0.0084(7)
N2 N3- 0.0139(7) 0.0172(9) 0.0164(7) 0.0056(7) 0.0055(6) 0.0085(7)
C1 C2+ 0.0100(8) 0.0120(10) 0.0121(8) 0.0033(7) 0.0055(6) 0.0035(7)
C2 C2+ 0.0136(8) 0.0157(11) 0.0106(8) 0.0084(8) 0.0055(6) 0.0071(7)
#End of data_260824-ICSD


