data_72343-ICSD
#?2014 by Fachinformationszentrum Karlsruhe, and the U.S. Secretary of 
#Commerce on behalf of the United States.  All rights reserved.
_database_code_ICSD                72343
_audit_creation_date               1994/01/19
_audit_update_record               2011/02/01
_chemical_name_systematic          'Potassium Thulium(II) Iodide'
_chemical_formula_structural       'K Tm I3'
_chemical_formula_sum              'I3 K1 Tm1'
_publ_section_title
;
Metallothermische Reduktion der Tribromide und -iodide von Thulium 
und Ytterbium mit Alkalimetallen
;
loop_
_citation_id
_citation_journal_abbrev
_citation_year
_citation_journal_volume
_citation_page_first
_citation_page_last
_citation_journal_id_ASTM
primary 'Zeitschrift fuer Anorganische und Allgemeine Chemie (1950) (DE)'
 1992 618 7 12 ZAACAB
2 'Zeitschrift fuer Anorganische und Allgemeine Chemie (1950) (DE)'
 1996 622 759 765 ZAACAB
_publ_author_name
;
Schilling, G.;Kunert, C.;Schleid, T.;Meyer, G.
;
_cell_length_a                     4.5835(4)
_cell_length_b                     15.1256(14)
_cell_length_c                     11.6786(9)
_cell_angle_alpha                  90.
_cell_angle_beta                   90.
_cell_angle_gamma                  90.
_cell_volume                       809.66
_cell_formula_units_Z              4
_symmetry_space_group_name_H-M     'C m c m'
_symmetry_Int_Tables_number        63
_refine_ls_R_factor_all            .038
loop_
_symmetry_equiv_pos_site_id
_symmetry_equiv_pos_as_xyz
  1	'-x, y, -z+.5'
  2	'-x, -y, z+.5'
  3	'-x, y, z'
  4	'-x, -y, -z'
  5	'x, -y, z+.5'
  6	'x, y, -z+.5'
  7	'x, -y, -z'
  8	'x, y, z'
  9	'-x+.5, y+.5, -z+.5'
 10	'-x+.5, -y+.5, z+.5'
 11	'-x+.5, y+.5, z'
 12	'-x+.5, -y+.5, -z'
 13	'x+.5, -y+.5, z+.5'
 14	'x+.5, y+.5, -z+.5'
 15	'x+.5, -y+.5, -z'
 16	'x+.5, y+.5, z'
loop_
_atom_type_symbol
_atom_type_oxidation_number
I1-	-1
K1+	1
Tm2+	2
loop_
_atom_site_label
_atom_site_type_symbol
_atom_site_symmetry_multiplicity
_atom_site_Wyckoff_symbol
_atom_site_fract_x
_atom_site_fract_y
_atom_site_fract_z
_atom_site_occupancy
_atom_site_attached_hydrogens
K1 K1+ 4 c 0 0.2518(3) 0.25 1. 0 
Tm1 Tm2+ 4 a 0 0 0 1. 0 
I1 I1- 4 c 0 0.92663(8) 0.25 1. 0 
I2 I1- 8 f 0 0.63735(5) 0.05792(7) 1. 0 

loop_
_atom_site_aniso_label
_atom_site_aniso_type_symbol
_atom_site_aniso_U_11
_atom_site_aniso_U_22
_atom_site_aniso_U_33
_atom_site_aniso_U_12
_atom_site_aniso_U_13
_atom_site_aniso_U_23
K1 K1+ 0.0424(23) 0.0546(24) 0.0582(26) 0 0 0
Tm1 Tm2+ 0.0310(4) 0.0330(4) 0.0301(4) 0 0.0115(19) 0
I1 I1- 0.0483(7) 0.0466(6) 0.0254(5) 0 0 0
I2 I1- 0.0335(5) 0.0339(4) 0.0439(5) 0.0142 -0.0012(24) -0.0057(4)
#End of data_72343-ICSD


