data_261810-ICSD
#?2014 by Fachinformationszentrum Karlsruhe, and the U.S. Secretary of 
#Commerce on behalf of the United States.  All rights reserved.
_database_code_ICSD                261810
_audit_creation_date               2012/02/01
_chemical_name_systematic          'Tetrazinc Hexaborate Oxide'
_chemical_formula_structural       'Zn4 (B6 O12) O'
_chemical_formula_sum              'B6 O13 Zn4'
_publ_section_title
;
Electron density and chemical bonds in ultramarine Zn4 [Ba6 O12] O
;
loop_
_citation_id
_citation_journal_abbrev
_citation_year
_citation_journal_volume
_citation_journal_issue
_citation_page_first
_citation_page_last
_citation_journal_id_ASTM
primary 'Doklady Akad. Nauk' 2001 376 5 662 664 DAKNEQ
2 'Doklady Earth Sciences' 2001 377 2 172 174 DESOAP
_publ_author_name                  'Gubina, Yu. K.;Belokoneva, E.L.'
_cell_length_a                     7.480(3)
_cell_length_b                     7.480(3)
_cell_length_c                     7.480(3)
_cell_angle_alpha                  90.
_cell_angle_beta                   90.
_cell_angle_gamma                  90.
_cell_volume                       418.51
_cell_formula_units_Z              2
_symmetry_space_group_name_H-M     'I -4 3 m'
_symmetry_Int_Tables_number        217
_refine_ls_R_factor_all            .0197
loop_
_symmetry_equiv_pos_site_id
_symmetry_equiv_pos_as_xyz
  1	'-z, -y, x'
  2	'-y, -x, z'
  3	'-x, -z, y'
  4	'-z, -x, y'
  5	'-y, -z, x'
  6	'-x, -y, z'
  7	'-z, y, -x'
  8	'-y, x, -z'
  9	'-x, z, -y'
 10	'-z, x, -y'
 11	'-y, z, -x'
 12	'-x, y, -z'
 13	'z, -y, -x'
 14	'y, -x, -z'
 15	'x, -z, -y'
 16	'z, -x, -y'
 17	'y, -z, -x'
 18	'x, -y, -z'
 19	'z, y, x'
 20	'y, x, z'
 21	'x, z, y'
 22	'z, x, y'
 23	'y, z, x'
 24	'x, y, z'
 25	'-z+.5, -y+.5, x+.5'
 26	'-y+.5, -x+.5, z+.5'
 27	'-x+.5, -z+.5, y+.5'
 28	'-z+.5, -x+.5, y+.5'
 29	'-y+.5, -z+.5, x+.5'
 30	'-x+.5, -y+.5, z+.5'
 31	'-z+.5, y+.5, -x+.5'
 32	'-y+.5, x+.5, -z+.5'
 33	'-x+.5, z+.5, -y+.5'
 34	'-z+.5, x+.5, -y+.5'
 35	'-y+.5, z+.5, -x+.5'
 36	'-x+.5, y+.5, -z+.5'
 37	'z+.5, -y+.5, -x+.5'
 38	'y+.5, -x+.5, -z+.5'
 39	'x+.5, -z+.5, -y+.5'
 40	'z+.5, -x+.5, -y+.5'
 41	'y+.5, -z+.5, -x+.5'
 42	'x+.5, -y+.5, -z+.5'
 43	'z+.5, y+.5, x+.5'
 44	'y+.5, x+.5, z+.5'
 45	'x+.5, z+.5, y+.5'
 46	'z+.5, x+.5, y+.5'
 47	'y+.5, z+.5, x+.5'
 48	'x+.5, y+.5, z+.5'
loop_
_atom_type_symbol
_atom_type_oxidation_number
B3+	3
O2-	-2
Zn2+	2
loop_
_atom_site_label
_atom_site_type_symbol
_atom_site_symmetry_multiplicity
_atom_site_Wyckoff_symbol
_atom_site_fract_x
_atom_site_fract_y
_atom_site_fract_z
_atom_site_occupancy
_atom_site_attached_hydrogens
Zn1 Zn2+ 8 c 0.15323(3) 0.15323(3) 0.15323(3) 1. 0 
B1 B3+ 12 d 0.25 0.5 0 1. 0 
O1 O2- 2 a 0 0 0 1. 0 
O2 O2- 24 g 0.1402(9) 0.1402(9) 0.4151(9) 1. 0 

loop_
_atom_site_aniso_label
_atom_site_aniso_type_symbol
_atom_site_aniso_B_11
_atom_site_aniso_B_22
_atom_site_aniso_B_33
_atom_site_aniso_B_12
_atom_site_aniso_B_13
_atom_site_aniso_B_23
Zn1 Zn2+ 0.00466(3) 0.00466(3) 0.00466(3) -0.00037(3) -0.00037(3) 
-0.00037(3)
B1 B3+ 0.0048(2) 0.0037(2) 0.0037(2) 0.0000 0.0000 0.0000
O1 O2- 0.0050(2) 0.0050(2) 0.0050(2) 0.0000 0.0000 0.0000
O2 O2- 0.0051(2) 0.0051(2) 0.0043(2) 0.0016(2) -0.00009(2) -0.0009(2)
#End of data_261810-ICSD


