data_417469-ICSD
#?2014 by Fachinformationszentrum Karlsruhe, and the U.S. Secretary of 
#Commerce on behalf of the United States.  All rights reserved.
_database_code_ICSD                417469
_audit_creation_date               2008/08/01
_chemical_name_systematic          'Trisilver(I) Vanadate(V) - Alpha'
_chemical_formula_structural       'Ag3 (V O4)'
_chemical_formula_sum              'Ag3 O4 V1'
_publ_section_title                'Polymorphism of Ag3 V O4'
loop_
_citation_id
_citation_journal_abbrev
_citation_year
_citation_journal_volume
_citation_journal_issue
_citation_page_first
_citation_page_last
_citation_journal_id_ASTM
primary 'Zeitschrift fuer Kristallographie - New Crystal Structures'
 2007 222 8 420 426 ZKNSFT
_publ_author_name
;
Dinnebier, R.E.;Kowalevsky, A.;Reichertt, H.;Jansen, M.
;
_cell_length_a                     10.2672(2)
_cell_length_b                     4.9814(1)
_cell_length_c                     10.2240(2)
_cell_angle_alpha                  90.0
_cell_angle_beta                   116.0(10)
_cell_angle_gamma                  90.0
_cell_volume                       469.99
_cell_formula_units_Z              4
_symmetry_space_group_name_H-M     'C 1 2/c 1'
_symmetry_Int_Tables_number        15
_refine_ls_R_factor_all            .0517
loop_
_symmetry_equiv_pos_site_id
_symmetry_equiv_pos_as_xyz
  1	'x, -y, z+.5'
  2	'-x, -y, -z'
  3	'-x, y, -z+.5'
  4	'x, y, z'
  5	'x+.5, -y+.5, z+.5'
  6	'-x+.5, -y+.5, -z'
  7	'-x+.5, y+.5, -z+.5'
  8	'x+.5, y+.5, z'
loop_
_atom_type_symbol
_atom_type_oxidation_number
Ag1+	1
O2-	-2
V5+	5
loop_
_atom_site_label
_atom_site_type_symbol
_atom_site_symmetry_multiplicity
_atom_site_Wyckoff_symbol
_atom_site_fract_x
_atom_site_fract_y
_atom_site_fract_z
_atom_site_occupancy
_atom_site_attached_hydrogens
_atom_site_U_iso_or_equiv
Ag1 Ag1+ 4 a 0.0 0.0 0.5 1.0 0 0.0221(11) 
Ag2 Ag1+ 8 f 0.25837(26) -0.0390(5) -0.59917(24) 1.0 0 0.0187(7) 
V1 V5+ 4 e 0.5 0.0289(15) 0.25 1.0 0 0.0056(19) 
O1 O2- 8 f 0.4105(21) -0.1631(30) 0.0981(18) 1.0 0 0.035(6) 
O2 O2- 8 f 0.3903(19) 0.2434(24) 0.2902(19) 1.0 0 0.009(4) 

#End of data_417469-ICSD


