data_72977-ICSD
#?2014 by Fachinformationszentrum Karlsruhe, and the U.S. Secretary of 
#Commerce on behalf of the United States.  All rights reserved.
_database_code_ICSD                72977
_audit_creation_date               1994/06/30
_chemical_name_systematic          'Dipotassium Catena-vanadophosphate'
_chemical_formula_structural       'K2 (V P O6)'
_chemical_formula_sum              'K2 O6 P1 V1'
_publ_section_title
;
Synthesis and crystal structure of potassium and sodium vanadium 
phosphates
;
loop_
_citation_id
_citation_journal_abbrev
_citation_year
_citation_journal_volume
_citation_page_first
_citation_page_last
_citation_journal_id_ASTM
primary 'Chemistry of Materials' 1993 5 206 209 CMATEX
_publ_author_name
;
Korthuis, V.C.;Hoffmann, R.D.;Huang, J.-F.;Sleight, A.W.
;
_cell_length_a                     6.863(2)
_cell_length_b                     13.479(5)
_cell_length_c                     7.505(1)
_cell_angle_alpha                  90.
_cell_angle_beta                   111.02(10)
_cell_angle_gamma                  90.
_cell_volume                       648.06
_cell_formula_units_Z              4
_symmetry_space_group_name_H-M     'P 1 21/n 1'
_symmetry_Int_Tables_number        14
_refine_ls_R_factor_all            .047
loop_
_symmetry_equiv_pos_site_id
_symmetry_equiv_pos_as_xyz
  1	'-x+.5, y+.5, -z+.5'
  2	'-x, -y, -z'
  3	'x+.5, -y+.5, z+.5'
  4	'x, y, z'
loop_
_atom_type_symbol
_atom_type_oxidation_number
K1+	1
O2-	-2
P5+	5
V5+	5
loop_
_atom_site_label
_atom_site_type_symbol
_atom_site_symmetry_multiplicity
_atom_site_Wyckoff_symbol
_atom_site_fract_x
_atom_site_fract_y
_atom_site_fract_z
_atom_site_occupancy
_atom_site_attached_hydrogens
V1 V5+ 4 e 0.29598(7) 0.20049(3) 0.90012(7) 1. 0 
P1 P5+ 4 e 0.9247(1) 0.12171(5) 0.6971(1) 1. 0 
K1 K1+ 4 e 0.3617(1) 0.13192(5) 0.4469(1) 1. 0 
K2 K1+ 4 e 0.8050(1) 0.08066(5) 0.0893(1) 1. 0 
O1 O2- 4 e 0.9862(3) 0.1958(1) 0.8661(3) 1. 0 
O2 O2- 4 e 0.1469(3) 0.1044(2) 0.6907(3) 1. 0 
O3 O2- 4 e 0.2801(4) 0.3283(2) 0.0117(3) 1. 0 
O4 O2- 4 e 0.4593(4) 0.2349(2) 0.7969(4) 1. 0 
O5 O2- 4 e 0.8250(4) 0.0291(2) 0.7339(3) 1. 0 
O6 O2- 4 e 0.4230(4) 0.1281(2) 0.0763(3) 1. 0 

loop_
_atom_site_aniso_label
_atom_site_aniso_type_symbol
_atom_site_aniso_U_11
_atom_site_aniso_U_22
_atom_site_aniso_U_33
_atom_site_aniso_U_12
_atom_site_aniso_U_13
_atom_site_aniso_U_23
V1 V5+ 0.0177(2) 0.0149(2) 0.0184(2) -.0005(2) 0.0107(2) -.0008(2)
P1 P5+ 0.0181(3) 0.0098(3) 0.0204(3) -.0007(2) 0.0104(3) 0.0001(2)
K1 K1+ 0.0390(4) 0.0201(3) 0.0311(4) -.0122(3) 0.0231(3) -.0064(2)
K2 K1+ 0.0322(4) 0.0239(3) 0.0396(4) 0.0070(3) 0.0228(3) 0.0060(3)
O1 O2- 0.0191(9) 0.0144(8) 0.027(1) -.0008(7) 0.0134(8) -.0046(7)
O2 O2- 0.0195(9) 0.0193(9) 0.0233(9) -.0002(7) 0.0122(7) -.0060(8)
O3 O2- 0.023(1) 0.0162(9) 0.030(1) 0.0010(8) 0.0071(8) -.0056(8)
O4 O2- 0.037(1) 0.040(1) 0.037(1) -.017(1) 0.029(1) -.012(1)
O5 O2- 0.033(1) 0.0133(8) 0.031(1) -.0066(8) 0.017(1) -.0005(8)
O6 O2- 0.030(1) 0.028(1) 0.026(1) 0.010(1) 0.012(1) 0.0036(9)
#End of data_72977-ICSD


