data_203149-ICSD
#?2014 by Fachinformationszentrum Karlsruhe, and the U.S. Secretary of 
#Commerce on behalf of the United States.  All rights reserved.
_database_code_ICSD                203149
_audit_creation_date               1990/12/27
_audit_update_record               2006/04/01
_chemical_name_systematic          'Disodium Beryllium Silicate'
_chemical_formula_structural       'Na2 Be (Si O4)'
_chemical_formula_sum              'Be1 Na2 O4 Si1'
_publ_section_title
;
Rietveld profile refinement of the sodium ion conductors Na1.8 (Ga.2 
Zn.8) Si O4 and Na1.8 (Ga.2 Zn.8) Ge O4
;
loop_
_citation_id
_citation_journal_abbrev
_citation_year
_citation_journal_volume
_citation_page_first
_citation_page_last
_citation_journal_id_ASTM
primary 'Materials Research Bulletin' 1989 24 833 843 MRBUAC
_publ_author_name                  'Frostaeng, S.;Werner, P.E.'
_cell_length_a                     9.866
_cell_length_b                     4.911
_cell_length_c                     13.888
_cell_angle_alpha                  90.
_cell_angle_beta                   90.
_cell_angle_gamma                  90.
_cell_volume                       672.9
_cell_formula_units_Z              8
_symmetry_space_group_name_H-M     'P c a 21'
_symmetry_Int_Tables_number        29
_refine_ls_R_factor_all            .062
loop_
_symmetry_equiv_pos_site_id
_symmetry_equiv_pos_as_xyz
  1	'x+.5, -y, z'
  2	'-x+.5, y, z+.5'
  3	'-x, -y, z+.5'
  4	'x, y, z'
loop_
_atom_type_symbol
_atom_type_oxidation_number
Be2+	2
Na1+	1
O2-	-2
Si4+	4
loop_
_atom_site_label
_atom_site_type_symbol
_atom_site_symmetry_multiplicity
_atom_site_Wyckoff_symbol
_atom_site_fract_x
_atom_site_fract_y
_atom_site_fract_z
_atom_site_occupancy
_atom_site_attached_hydrogens
Be1 Be2+ 4 a 0.234(1) 0.014(2) 0.437(1) 1. 0 
Si1 Si4+ 4 a 0.018(2) 0.527(3) 0.693(1) 1. 0 
Be2 Be2+ 4 a 0.018(2) 0.027(3) 0.807(1) 1. 0 
Si2 Si4+ 4 a 0.234(1) 0.514(2) 0.063(1) 1. 0 
Na1 Na1+ 4 a 0.008(2) 0.518(3) 0.940(1) 1. 0 
Na2 Na1+ 4 a 0.008(2) 0.018(3) 0.560(1) 1. 0 
Na3 Na1+ 4 a 0.232(1) 0.534(2) 0.317(1) 1. 0 
Na4 Na1+ 4 a 0.232(1) 0.034(2) 0.183(1) 1. 0 
O1 O2- 4 a 0.172(1) 0.096(4) 0.844(1) 1. 0 
O2 O2- 4 a 0.172(1) 0.596(4) 0.656(1) 1. 0 
O3 O2- 4 a 0.192(1) 0.281(3) 0.500(1) 1. 0 
O4 O2- 4 a 0.192(1) 0.781(3) 0.000(1) 1. 0 
O5 O2- 4 a 0.088(1) 0.882(4) 0.397(1) 1. 0 
O6 O2- 4 a 0.088(2) 0.382(4) 0.103(1) 1. 0 
O7 O2- 4 a 0.007(2) 0.806(3) 0.211(1) 1. 0 
O8 O2- 4 a 0.007(2) 0.306(3) 0.289(1) 1. 0 

#End of data_203149-ICSD


