data_34263-ICSD
#?2014 by Fachinformationszentrum Karlsruhe, and the U.S. Secretary of 
#Commerce on behalf of the United States.  All rights reserved.
_database_code_ICSD                34263
_audit_creation_date               1980/01/01
_audit_update_record               1984/11/02
_chemical_name_systematic          'Lithium Sulfate Hydrate'
_chemical_formula_structural       'Li2 S O4 H2 O'
_chemical_formula_sum              'H2 Li2 O5 S1'
_publ_section_title
;
Neutron-diffraction study of lithium sulfate monohydrate
;
loop_
_citation_id
_citation_journal_abbrev
_citation_year
_citation_journal_volume
_citation_page_first
_citation_page_last
_citation_journal_id_ASTM
primary 'Journal of Chemical Physics' 1968 48 5561 5565 JCPSA6
_publ_author_name
;
Smith, H.G.;Peterson, S.W.;Levy, H.A.
;
_cell_length_a                     5.4537
_cell_length_b                     4.857
_cell_length_c                     8.1734
_cell_angle_alpha                  90.
_cell_angle_beta                   107.367
_cell_angle_gamma                  90.
_cell_volume                       206.63
_cell_formula_units_Z              2
_symmetry_space_group_name_H-M     'P 1 21 1'
_symmetry_Int_Tables_number        4
_refine_ls_R_factor_all            .061
loop_
_symmetry_equiv_pos_site_id
_symmetry_equiv_pos_as_xyz
  1	'-x, y+.5, -z'
  2	'x, y, z'
loop_
_atom_type_symbol
_atom_type_oxidation_number
H1+	1
Li1+	1
O2-	-2
S6+	6
loop_
_atom_site_label
_atom_site_type_symbol
_atom_site_symmetry_multiplicity
_atom_site_Wyckoff_symbol
_atom_site_fract_x
_atom_site_fract_y
_atom_site_fract_z
_atom_site_occupancy
_atom_site_attached_hydrogens
Li1 Li1+ 2 a 0.3033(12) 0.4969(35) 0.9938(8) 1. 0 
Li2 Li1+ 2 a 0.5609(14) 0.4866(78) 0.3943(8) 1. 0 
S1 S6+ 2 a 0.2924(38) 0 0.2078(11) 1. 0 
O1 O2- 2 a 0.0220(4) 0.0710(19) 0.1703(3) 1. 0 
O2 O2- 2 a 0.4338(4) 0.1139(23) 0.3783(2) 1. 0 
O3 O2- 2 a 0.3997(4) 0.1230(26) 0.0783(2) 1. 0 
O4 O2- 2 a 0.331(2) 0.7014(18) 0.2104(6) 1. 0 
O5 O2- 2 a 0.9127(6) 0.4720(46) 0.3970(5) 1. 0 
H1 H1+ 2 a 0.9673(13) 0.3908(69) 0.3082(9) 1. 0 
H2 H1+ 2 a 0.0045(23) 0.6296(83) 0.4366(19) 1. 0 

#End of data_34263-ICSD


