data_172720-ICSD
#?2014 by Fachinformationszentrum Karlsruhe, and the U.S. Secretary of 
#Commerce on behalf of the United States.  All rights reserved.
_database_code_ICSD                172720
_audit_creation_date               2007/04/01
_chemical_name_systematic          'Dialuminium Silicate'
_chemical_formula_structural       'Al2 Si O5'
_chemical_formula_sum              'Al2 O5 Si1'
_chemical_name_mineral             Sillimanite
_publ_section_title
;
Equations of state and structures of andalusite to 9.8 GPa and 
sillimanite to 8.5 GPa
;
loop_
_citation_id
_citation_journal_abbrev
_citation_year
_citation_journal_volume
_citation_journal_issue
_citation_page_first
_citation_page_last
_citation_journal_id_ASTM
primary 'American Mineralogist' 2006 91 2-3 319 326 AMMIAY
_publ_author_name
;
Burt, J.B.;Ross, N.L.;Angel, R.J.;Koch, M.
;
_cell_length_a                     7.48388(17)
_cell_length_b                     7.6726(3)
_cell_length_c                     5.76807(13)
_cell_angle_alpha                  90
_cell_angle_beta                   90
_cell_angle_gamma                  90
_cell_volume                       331.21
_cell_formula_units_Z              4
_symmetry_space_group_name_H-M     'P b n m'
_symmetry_Int_Tables_number        62
_refine_ls_R_factor_all            .029
loop_
_symmetry_equiv_pos_site_id
_symmetry_equiv_pos_as_xyz
  1	'-x+.5, y+.5, z'
  2	'x, y, -z+.5'
  3	'x+.5, -y+.5, z+.5'
  4	'-x, -y, -z'
  5	'x+.5, -y+.5, -z'
  6	'-x, -y, z+.5'
  7	'-x+.5, y+.5, -z+.5'
  8	'x, y, z'
loop_
_atom_type_symbol
_atom_type_oxidation_number
Al3+	3
O2-	-2
Si4+	4
loop_
_atom_site_label
_atom_site_type_symbol
_atom_site_symmetry_multiplicity
_atom_site_Wyckoff_symbol
_atom_site_fract_x
_atom_site_fract_y
_atom_site_fract_z
_atom_site_occupancy
_atom_site_attached_hydrogens
_atom_site_U_iso_or_equiv
Al1 Al3+ 4 a 0.0 0.0 0.0 1. 0 0.00418 
Al2 Al3+ 4 c 0.14181(13) 0.3451(5) 0.25 1. 0 0.00507 
Si1 Si4+ 4 c 0.15318(12) 0.3407(5) 0.75 1. 0 0.00494 
O1 O2- 4 c 0.3607(3) 0.4075(12) 0.75 1. 0 0.00443 
O2 O2- 4 c 0.3572(3) 0.4348(13) 0.25 1. 0 0.00532 
O3 O2- 4 c 0.4762(3) 0.0022(12) 0.75 1. 0 0.01191 
O4 O2- 8 d 0.1258(2) 0.2228(10) 0.5151(2) 1. 0 0.00684 

#End of data_172720-ICSD


