data_83435-ICSD
#?2014 by Fachinformationszentrum Karlsruhe, and the U.S. Secretary of 
#Commerce on behalf of the United States.  All rights reserved.
_database_code_ICSD                83435
_audit_creation_date               1998/06/26
_chemical_name_systematic          'Cesium Tetrabromoaluminate'
_chemical_formula_structural       'Cs (Al Br4)'
_chemical_formula_sum              'Al1 Br4 Cs1'
_publ_section_title
;
The Cs Br - Al Br3 phase diagram and the crystal structure of Cs Al 
Br4
;
loop_
_citation_id
_citation_journal_abbrev
_citation_year
_citation_journal_volume
_citation_page_first
_citation_page_last
_citation_journal_id_ASTM
primary 'Acta Chemica Scandinavica (43,1989-)' 1997 51 455 461 ACHSE7
_publ_author_name                  'Berg, R.W.'
_cell_length_a                     12.2137(20)
_cell_length_b                     7.5304(14)
_cell_length_c                     9.9293(16)
_cell_angle_alpha                  90.
_cell_angle_beta                   90.
_cell_angle_gamma                  90.
_cell_volume                       913.24
_cell_formula_units_Z              4
_symmetry_space_group_name_H-M     'P n m a'
_symmetry_Int_Tables_number        62
_refine_ls_R_factor_all            .051
loop_
_symmetry_equiv_pos_site_id
_symmetry_equiv_pos_as_xyz
  1	'x+.5, y, -z+.5'
  2	'x, -y+.5, z'
  3	'-x+.5, y+.5, z+.5'
  4	'-x, -y, -z'
  5	'-x+.5, -y, z+.5'
  6	'-x, y+.5, -z'
  7	'x+.5, -y+.5, -z+.5'
  8	'x, y, z'
loop_
_atom_type_symbol
_atom_type_oxidation_number
Al3+	3
Br1-	-1
Cs1+	1
loop_
_atom_site_label
_atom_site_type_symbol
_atom_site_symmetry_multiplicity
_atom_site_Wyckoff_symbol
_atom_site_fract_x
_atom_site_fract_y
_atom_site_fract_z
_atom_site_occupancy
_atom_site_attached_hydrogens
_atom_site_B_iso_or_equiv
Cs1 Cs1+ 4 c 0.1758(4) 0.25 0.1763(6) 1. 0 3.44(16) 
Al1 Al3+ 4 c 0.0663(20) 0.25 0.6927(4) 1. 0 2.18(68) 
Br1 Br1- 4 c -.0890(12) 0.25 0.5800(9) 1. 0 0 
Br2 Br1- 4 c 0.2191(8) 0.25 0.5493(8) 1. 0 4.37(32) 
Br3 Br1- 8 d 0.0808(4) 0.0097(7) 0.8315(5) 1. 0 2.05(12) 

loop_
_atom_site_aniso_label
_atom_site_aniso_type_symbol
_atom_site_aniso_B_11
_atom_site_aniso_B_22
_atom_site_aniso_B_33
_atom_site_aniso_B_12
_atom_site_aniso_B_13
_atom_site_aniso_B_23
Br1 Br1- 0.76(1) 2.02(8) 1.16(2) 0 0 0
#End of data_83435-ICSD


