data_30964-ICSD
#?2014 by Fachinformationszentrum Karlsruhe, and the U.S. Secretary of 
#Commerce on behalf of the United States.  All rights reserved.
_database_code_ICSD                30964
_audit_creation_date               1986/12/03
_audit_update_record               2006/04/01
_chemical_name_systematic          'Potassium Lithium Oxide'
_chemical_formula_structural       'K Li O'
_chemical_formula_sum              'K1 Li1 O1'
_publ_section_title
;
K Li O: Ein Oxid mit dreifach koordiniertem Lithium
;
loop_
_citation_id
_citation_journal_abbrev
_citation_year
_citation_journal_volume
_citation_page_first
_citation_page_last
_citation_journal_id_ASTM
primary 'Zeitschrift fuer Kristallographie (1979-2010)' 1985 171 1 6 ZEKRDZ
2
;
Zeitschrift fuer Naturforschung, Teil B. Anorganische Chemie, 
Organische Chemie (33,1978-41,1986)
;
 1985 40 122 123 ZNBAD2
_publ_author_name
;
Sabrowsky, H.;Mertens, P.;Thimm, A.
;
_cell_length_a                     8.618(4)
_cell_length_b                     6.403(2)
_cell_length_c                     6.417(2)
_cell_angle_alpha                  90.
_cell_angle_beta                   90.
_cell_angle_gamma                  90.
_cell_volume                       354.1
_cell_formula_units_Z              8
_symmetry_space_group_name_H-M     'C m c a'
_symmetry_Int_Tables_number        64
_refine_ls_R_factor_all            .05
loop_
_symmetry_equiv_pos_site_id
_symmetry_equiv_pos_as_xyz
  1	'-x, -y+.5, z+.5'
  2	'-x, y+.5, -z+.5'
  3	'-x, y, z'
  4	'-x, -y, -z'
  5	'x, y+.5, -z+.5'
  6	'x, -y+.5, z+.5'
  7	'x, -y, -z'
  8	'x, y, z'
  9	'-x+.5, -y, z+.5'
 10	'-x+.5, y, -z+.5'
 11	'-x+.5, y+.5, z'
 12	'-x+.5, -y+.5, -z'
 13	'x+.5, y, -z+.5'
 14	'x+.5, -y, z+.5'
 15	'x+.5, -y+.5, -z'
 16	'x+.5, y+.5, z'
loop_
_atom_type_symbol
_atom_type_oxidation_number
K1+	1
Li1+	1
O2-	-2
loop_
_atom_site_label
_atom_site_type_symbol
_atom_site_symmetry_multiplicity
_atom_site_Wyckoff_symbol
_atom_site_fract_x
_atom_site_fract_y
_atom_site_fract_z
_atom_site_occupancy
_atom_site_attached_hydrogens
K1 K1+ 8 d -.1777(1) 0 0 1. 0 
O1 O2- 8 f 0 0.1692(3) 0.6668(3) 1. 0 
Li1 Li1+ 8 f 0 0.1260(6) 0.3746(7) 1. 0 

loop_
_atom_site_aniso_label
_atom_site_aniso_type_symbol
_atom_site_aniso_U_11
_atom_site_aniso_U_22
_atom_site_aniso_U_33
_atom_site_aniso_U_12
_atom_site_aniso_U_13
_atom_site_aniso_U_23
K1 K1+ 0.0237(3) 0.0217(2) 0.0185(3) 0 0 -.0012(1)
O1 O2- 0.0450(12) 0.0121(6) 0.0081(6) 0 0 -.0013(5)
Li1 Li1+ 0.0237(23) 0.0143(15) 0.0107(16) 0 0 -.0008(13)
#End of data_30964-ICSD


