data_158659-ICSD
#?2014 by Fachinformationszentrum Karlsruhe, and the U.S. Secretary of 
#Commerce on behalf of the United States.  All rights reserved.
_database_code_ICSD                158659
_audit_creation_date               2008/08/01
_chemical_name_systematic
;
Calcium Titanosilicate - Ht Paraelectric
;
_chemical_formula_structural       'Ca (Ti Si O5)'
_chemical_formula_sum              'Ca1 O5 Si1 Ti1'
_chemical_name_mineral             Titanite
_publ_section_title
;
Paraelectric - antiferroelectric phase transition in titanite, Ca Ti 
Si O5
;
loop_
_citation_id
_citation_journal_abbrev
_citation_year
_citation_journal_volume
_citation_page_first
_citation_page_last
_citation_journal_id_ASTM
primary 'Physics and Chemistry of Minerals' 1991 17 591 603 PCMIDU
_publ_author_name                  'Ghose, S.;Ito, Y.;Hatch, D.M.'
_cell_length_a                     7.0719(5)
_cell_length_b                     8.7464(7)
_cell_length_c                     6.5783(5)
_cell_angle_alpha                  90.
_cell_angle_beta                   113.751(2)
_cell_angle_gamma                  90.
_cell_volume                       372.43
_cell_formula_units_Z              4
_symmetry_space_group_name_H-M     'A 1 2/a 1'
_symmetry_Int_Tables_number        15
_refine_ls_R_factor_all            .028
loop_
_symmetry_equiv_pos_site_id
_symmetry_equiv_pos_as_xyz
  1	'-x+.5, y, -z'
  2	'-x, -y, -z'
  3	'x+.5, -y, z'
  4	'x, y, z'
  5	'-x+.5, y+.5, -z+.5'
  6	'-x, -y+.5, -z+.5'
  7	'x+.5, -y+.5, z+.5'
  8	'x, y+.5, z+.5'
loop_
_atom_type_symbol
_atom_type_oxidation_number
Ca2+	2
O2-	-2
Si4+	4
Ti4+	4
loop_
_atom_site_label
_atom_site_type_symbol
_atom_site_symmetry_multiplicity
_atom_site_Wyckoff_symbol
_atom_site_fract_x
_atom_site_fract_y
_atom_site_fract_z
_atom_site_occupancy
_atom_site_attached_hydrogens
Ca1 Ca2+ 4 e 0.250 0.6689(1) 0.5 1. 0 
Ti1 Ti4+ 4 b 0.5 0.5 0 1. 0 
Si1 Si4+ 4 e 0.750 0.6827(1) 0.5 1. 0 
O1 O2- 4 e 0.750 0.5703(3) 0 1. 0 
O2 O2- 8 f 0.9113(3) 0.5658(2) 0.6857(2) 1. 0 
O3 O2- 8 f 0.3829(3) 0.7108(2) 0.8974(3) 1. 0 

#End of data_158659-ICSD


