data_240696-ICSD
#?2014 by Fachinformationszentrum Karlsruhe, and the U.S. Secretary of 
#Commerce on behalf of the United States.  All rights reserved.
_database_code_ICSD                240696
_audit_creation_date               2007/08/01
_chemical_name_systematic          'Magnesium Gallium Tetrahydride'
_chemical_formula_structural       'Mg Ga H4'
_chemical_formula_sum              'H4 Ga1 Mg1'
_publ_section_title
;
Coordination Preference of Ga in Hydrides
;
loop_
_citation_id
_citation_journal_abbrev
_citation_year
_citation_journal_volume
_citation_journal_issue
_citation_page_first
_citation_page_last
_citation_journal_id_ASTM
primary 'Inorganic Chemistry' 2006 45 26 10698 10701 INOCAJ
_publ_author_name
;
Klaveness, A.;Swang, O.;Kjekshus, A.;Fjellvag, H.
;
_cell_length_a                     7.85297
_cell_length_b                     6.95408
_cell_length_c                     6.59977
_cell_angle_alpha                  90.00
_cell_angle_beta                   90.461
_cell_angle_gamma                  90.00
_cell_volume                       360.4
_cell_formula_units_Z              4
_symmetry_space_group_name_H-M     'P 1 21/n 1'
_symmetry_Int_Tables_number        14
loop_
_symmetry_equiv_pos_site_id
_symmetry_equiv_pos_as_xyz
  1	'-x+.5, y+.5, -z+.5'
  2	'-x, -y, -z'
  3	'x+.5, -y+.5, z+.5'
  4	'x, y, z'
loop_
_atom_type_symbol
_atom_type_oxidation_number
Ga2+	2
H1-	-1
Mg2+	2
loop_
_atom_site_label
_atom_site_type_symbol
_atom_site_symmetry_multiplicity
_atom_site_Wyckoff_symbol
_atom_site_fract_x
_atom_site_fract_y
_atom_site_fract_z
_atom_site_occupancy
_atom_site_attached_hydrogens
Mg1 Mg2+ 4 e 0.2430119 0.8688925 0.2465318 1 0 
Ga1 Ga2+ 4 e 0.1188602 0.8756062 0.7530388 1 0 
H1 H1- 4 e 0.9901189 0.9299026 0.2319534 1 0 
H2 H1- 4 e 0.3160575 0.1166890 0.2475738 1 0 
H3 H1- 4 e 0.0007575 0.3097456 0.2473400 1 0 
H4 H1- 4 e 0.7691657 0.1173438 0.4472946 1 0 

#End of data_240696-ICSD


