data_187943-ICSD
#?2014 by Fachinformationszentrum Karlsruhe, and the U.S. Secretary of 
#Commerce on behalf of the United States.  All rights reserved.
_database_code_ICSD                187943
_audit_creation_date               2013/08/01
_chemical_name_systematic          'Lithium Chromium Disilicate'
_chemical_formula_structural       'Li Cr (Si2 O6)'
_chemical_formula_sum              'Cr1 Li1 O6 Si2'
_chemical_name_mineral             'Clinopyroxene - (Li,Cr)'
_publ_section_title
;
High-pressure X-ray study of Li Cr Si2 O6 clinopyroxene and the 
general compressibility trends for Li - clinopyroxenes
;
loop_
_citation_id
_citation_journal_abbrev
_citation_year
_citation_journal_volume
_citation_journal_issue
_citation_page_first
_citation_page_last
_citation_journal_id_ASTM
primary 'Physics and Chemistry of Minerals' 2013 40 5 387 399 PCMIDU
_publ_author_name
;
Periotto, Benedetta;Angel, Ross J.;Nestola, Fabrizio;Balic-Zunic, 
Tonci;Fontana, Cinzia;Pasqual, Daria;Alvaro, Matteo;Redhammer, 
Guenther J.
;
_cell_length_a                     9.3679(4)
_cell_length_b                     8.4487(8)
_cell_length_c                     5.1235(3)
_cell_angle_alpha                  90.
_cell_angle_beta                   109.144(4)
_cell_angle_gamma                  90.
_cell_volume                       383.08
_cell_formula_units_Z              4
_symmetry_space_group_name_H-M     'P 1 21/c 1'
_symmetry_Int_Tables_number        14
_refine_ls_R_factor_all            .1114
loop_
_symmetry_equiv_pos_site_id
_symmetry_equiv_pos_as_xyz
  1	'x, -y+.5, z+.5'
  2	'-x, -y, -z'
  3	'-x, y+.5, -z+.5'
  4	'x, y, z'
loop_
_atom_type_symbol
_atom_type_oxidation_number
Cr3+	3
Li1+	1
O2-	-2
Si4+	4
loop_
_atom_site_label
_atom_site_type_symbol
_atom_site_symmetry_multiplicity
_atom_site_Wyckoff_symbol
_atom_site_fract_x
_atom_site_fract_y
_atom_site_fract_z
_atom_site_occupancy
_atom_site_attached_hydrogens
_atom_site_U_iso_or_equiv
Li1 Li1+ 4 e 0.255(5) 0.019(5) 0.218(7) 1 0 0.021(9) 
Cr1 Cr3+ 4 e 0.2508(4) 0.6584(4) 0.2210(6) 1 0 0.0070(10) 
Si1 Si4+ 4 e 0.0495(7) 0.3419(7) 0.2814(10) 1 0 0.0082(15) 
Si2 Si4+ 4 e 0.5547(7) 0.8395(7) 0.2380(10) 1 0 0.0059(14) 
O1 O2- 4 e 0.8664(16) 0.3326(14) 0.176(2) 1 0 0.006(3) 
O2 O2- 4 e 0.1161(17) 0.5157(16) 0.301(3) 1 0 0.013(3) 
O3 O2- 4 e 0.1093(17) 0.2730(15) 0.600(2) 1 0 0.007(3) 
O4 O2- 4 e 0.3693(17) 0.8339(15) 0.122(2) 1 0 0.008(3) 
O5 O2- 4 e 0.6267(15) 0.0018(14) 0.369(2) 1 0 0.001(3) 
O6 O2- 4 e 0.6073(16) 0.7010(15) 0.472(2) 1 0 0.004(3) 

#End of data_187943-ICSD


