data_4097-ICSD
#?2014 by Fachinformationszentrum Karlsruhe, and the U.S. Secretary of 
#Commerce on behalf of the United States.  All rights reserved.
_database_code_ICSD                4097
_audit_creation_date               1980/01/01
_audit_update_record               2011/02/01
_chemical_name_systematic          'Potassium Triisocyanatocadmate'
_chemical_formula_structural       'K (Cd (N C O)3)'
_chemical_formula_sum              'C3 Cd1 K1 N3 O3'
_publ_section_title
;
Die Kristallstruktur des Kalium-tri-isocyanatocadmats K Cd (N C O)3
;
loop_
_citation_id
_citation_journal_abbrev
_citation_year
_citation_journal_volume
_citation_page_first
_citation_page_last
_citation_journal_id_ASTM
primary
;
Zeitschrift fuer Naturforschung, Teil B. Anorganische Chemie, 
Organische Chemie (2,1947-32,1977)
;
 1975 30 19 21 ZENBAX
_publ_author_name                  'Thiele, G.;Hilfrich, P.'
_cell_length_a                     9.993
_cell_length_b                     3.671
_cell_length_c                     18.354
_cell_angle_alpha                  90.
_cell_angle_beta                   90.
_cell_angle_gamma                  90.
_cell_volume                       673.3
_cell_formula_units_Z              4
_symmetry_space_group_name_H-M     'P n m a'
_symmetry_Int_Tables_number        62
_refine_ls_R_factor_all            .035
loop_
_symmetry_equiv_pos_site_id
_symmetry_equiv_pos_as_xyz
  1	'x+.5, y, -z+.5'
  2	'x, -y+.5, z'
  3	'-x+.5, y+.5, z+.5'
  4	'-x, -y, -z'
  5	'-x+.5, -y, z+.5'
  6	'-x, y+.5, -z'
  7	'x+.5, -y+.5, -z+.5'
  8	'x, y, z'
loop_
_atom_type_symbol
_atom_type_oxidation_number
C4+	4
Cd2+	2
K1+	1
N3-	-3
O2-	-2
loop_
_atom_site_label
_atom_site_type_symbol
_atom_site_symmetry_multiplicity
_atom_site_Wyckoff_symbol
_atom_site_fract_x
_atom_site_fract_y
_atom_site_fract_z
_atom_site_occupancy
_atom_site_attached_hydrogens
K1 K1+ 4 c 0.0699(1) 0.25 0.66442(8) 1. 0 
Cd1 Cd2+ 4 c 0.13667(4) 0.25 0.04420(2) 1. 0 
C1 C4+ 4 c 0.1471(5) 0.25 0.2111(4) 1. 0 
C2 C4+ 4 c 0.1389(5) 0.25 0.4709(3) 1. 0 
C3 C4+ 4 c 0.5881(7) 0.25 0.6230(4) 1. 0 
N1 N3- 4 c 0.2140(5) 0.25 0.1587(3) 1. 0 
N2 N3- 4 c 0.2331(5) 0.25 0.5104(3) 1. 0 
N3 N3- 4 c 0.0219(5) 0.25 0.9314(3) 1. 0 
O1 O2- 4 c 0.0840(9) 0.25 0.2666(4) 1. 0 
O2 O2- 4 c 0.0354(6) 0.25 0.4321(5) 1. 0 
O3 O2- 4 c 0.1458(8) 0.25 0.8197(8) 1. 0 

#End of data_4097-ICSD


