data_607074-ICSD
#?2014 by Fachinformationszentrum Karlsruhe, and the U.S. Secretary of 
#Commerce on behalf of the United States.  All rights reserved.
_database_code_ICSD                607074
_audit_creation_date               2010/02/01
_chemical_name_systematic          'Aluminium Copper(I) Sulfide'
_chemical_formula_structural       'Al Cu S2'
_chemical_formula_sum              'Al1 Cu1 S2'
_publ_section_title
;
Growth and characterization of Cu Ga S2, Cu Al S2 and Cu Ga0.9 
Al0.1S2 single crystals
;
loop_
_citation_id
_citation_journal_abbrev
_citation_year
_citation_journal_volume
_citation_journal_issue
_citation_page_first
_citation_page_last
_citation_journal_id_ASTM
primary 'Materials Research Bulletin' 1988 23 6 799 803 MRBUAC
2 'Oyo Butsuri (= Applied Physics)' 1987 56- 1209 1217 OYBSA9
_publ_author_name
;
He, X.C.;Shen, H.-S.;Wu, P.;Dwight, K.;Wold, A.
;
_cell_length_a                     5.33(1)
_cell_length_b                     5.33(1)
_cell_length_c                     10.43(1)
_cell_angle_alpha                  90.0
_cell_angle_beta                   90.0
_cell_angle_gamma                  90.0
_cell_volume                       296.3
_cell_formula_units_Z              4
_symmetry_space_group_name_H-M     'I -4 2 d'
_symmetry_Int_Tables_number        122
loop_
_symmetry_equiv_pos_site_id
_symmetry_equiv_pos_as_xyz
  1	'-y, -x+.5, z+.25'
  2	'y, -x, -z'
  3	'y, x+.5, z+.25'
  4	'-y, x, -z'
  5	'x, -y+.5, -z+.25'
  6	'-x, -y, z'
  7	'-x, y+.5, -z+.25'
  8	'x, y, z'
  9	'-y+.5, -x, z+.75'
 10	'y+.5, -x+.5, -z+.5'
 11	'y+.5, x, z+.75'
 12	'-y+.5, x+.5, -z+.5'
 13	'x+.5, -y, -z+.75'
 14	'-x+.5, -y+.5, z+.5'
 15	'-x+.5, y, -z+.75'
 16	'x+.5, y+.5, z+.5'
loop_
_atom_type_symbol
_atom_type_oxidation_number
Al3+	3
Cu1+	1
S2-	-2
loop_
_atom_site_label
_atom_site_type_symbol
_atom_site_symmetry_multiplicity
_atom_site_Wyckoff_symbol
_atom_site_fract_x
_atom_site_fract_y
_atom_site_fract_z
_atom_site_occupancy
_atom_site_attached_hydrogens
Cu1 Cu1+ 4 a 0 0 0 1. 0 
Al1 Al3+ 4 b 0 0 0.5 1. 0 
S1 S2- 8 d 0.268 0.25 0.125 1. 0 

#End of data_607074-ICSD


