data_63544-ICSD
#?2014 by Fachinformationszentrum Karlsruhe, and the U.S. Secretary of 
#Commerce on behalf of the United States.  All rights reserved.
_database_code_ICSD                63544
_audit_creation_date               1988/12/19
_audit_update_record               2007/08/01
_chemical_name_systematic          'Potassium Nickel Arsenate(V)'
_chemical_formula_structural       'K Ni (As O4)'
_chemical_formula_sum              'As1 K1 Ni1 O4'
_publ_section_title
;
The crystal structure of potassium nickel arsenate K Ni As O4
;
loop_
_citation_id
_citation_journal_abbrev
_citation_year
_citation_journal_volume
_citation_page_first
_citation_page_last
_citation_journal_id_ASTM
primary 'Zeitschrift fuer Naturforschung, B: Chemical Sciences'
 1988 43 1053 1055 ZNBSEN
_publ_author_name
;
Buckley, A.M.;Bramwell, S.T.;Day, P.
;
_cell_length_a                     4.97208(2)
_cell_length_b                     4.97208(2)
_cell_length_c                     28.52606(10)
_cell_angle_alpha                  90.
_cell_angle_beta                   90.
_cell_angle_gamma                  120.
_cell_volume                       610.73
_cell_formula_units_Z              6
_symmetry_space_group_name_H-M     'R -3 H'
_symmetry_Int_Tables_number        148
loop_
_symmetry_equiv_pos_site_id
_symmetry_equiv_pos_as_xyz
  1	'x-y, x, -z'
  2	'y, -x+y, -z'
  3	'-x, -y, -z'
  4	'-x+y, -x, z'
  5	'-y, x-y, z'
  6	'x, y, z'
  7	'x-y+.6666, x+.3333, -z+.3333'
  8	'x-y+.3333, x+.6666, -z+.6666'
  9	'y+.6666, -x+y+.3333, -z+.3333'
 10	'y+.3333, -x+y+.6666, -z+.6666'
 11	'-x+.6666, -y+.3333, -z+.3333'
 12	'-x+.3333, -y+.6666, -z+.6666'
 13	'-x+y+.6666, -x+.3333, z+.3333'
 14	'-x+y+.3333, -x+.6666, z+.6666'
 15	'-y+.6666, x-y+.3333, z+.3333'
 16	'-y+.3333, x-y+.6666, z+.6666'
 17	'x+.6666, y+.3333, z+.3333'
 18	'x+.3333, y+.6666, z+.6666'
loop_
_atom_type_symbol
_atom_type_oxidation_number
As5+	5
K1+	1
Ni2+	2
O2-	-2
loop_
_atom_site_label
_atom_site_type_symbol
_atom_site_symmetry_multiplicity
_atom_site_Wyckoff_symbol
_atom_site_fract_x
_atom_site_fract_y
_atom_site_fract_z
_atom_site_occupancy
_atom_site_attached_hydrogens
_atom_site_B_iso_or_equiv
K1 K1+ 6 c 0 0 0.28933(11) 1. 0 0.24(60) 
Ni1 Ni2+ 6 c 0 0 0.16512(5) 1. 0 0.04(23) 
As1 As5+ 6 c 0 0 0.56040(6) 1. 0 -.03(33) 
O1 O2- 18 f 0.00471(55) 0.34392(46) 0.12465(4) 1. 0 0.0(33) 
O2 O2- 6 c 0 0 0.61853(8) 1. 0 0.0(33) 

#End of data_63544-ICSD


