data_15558-ICSD
#?2014 by Fachinformationszentrum Karlsruhe, and the U.S. Secretary of 
#Commerce on behalf of the United States.  All rights reserved.
_database_code_ICSD                15558
_audit_creation_date               1980/01/01
_audit_update_record               2012/08/01
_chemical_name_systematic          'Sodium Dithiochromate(III)'
_chemical_formula_structural       'Na (Cr S2)'
_chemical_formula_sum              'Cr1 Na1 S2'
_chemical_name_mineral             Caswellsilverite
_publ_section_title
;
The crystal structure of potassium thioferrite K Fe S2 and sodium 
thiochromite Na Cr S2
;
loop_
_citation_id
_citation_journal_abbrev
_citation_year
_citation_journal_volume
_citation_page_first
_citation_page_last
_citation_journal_id_ASTM
primary 'Recueil des Travaux Chimiques des Pays-Bas et de la Belgique'
 1942 61 910 920 RTCPA3
_publ_author_name                  'Boon, J.W.;MacGillavry, C.H.'
_cell_length_a                     6.87
_cell_length_b                     6.87
_cell_length_c                     6.87
_cell_angle_alpha                  29.8
_cell_angle_beta                   29.8
_cell_angle_gamma                  29.8
_cell_volume                       70.91
_cell_formula_units_Z              1
_symmetry_space_group_name_H-M     'R -3 m R'
_symmetry_Int_Tables_number        166
loop_
_symmetry_equiv_pos_site_id
_symmetry_equiv_pos_as_xyz
  1	'-z, -y, -x'
  2	'-z, -x, -y'
  3	'-x, -z, -y'
  4	'-y, -z, -x'
  5	'-y, -x, -z'
  6	'-x, -y, -z'
  7	'z, y, x'
  8	'z, x, y'
  9	'x, z, y'
 10	'y, z, x'
 11	'y, x, z'
 12	'x, y, z'
loop_
_atom_type_symbol
_atom_type_oxidation_number
Cr3+	3
Na1+	1
S2-	-2
loop_
_atom_site_label
_atom_site_type_symbol
_atom_site_symmetry_multiplicity
_atom_site_Wyckoff_symbol
_atom_site_fract_x
_atom_site_fract_y
_atom_site_fract_z
_atom_site_occupancy
_atom_site_attached_hydrogens
Cr1 Cr3+ 1 a 0 0 0 1. 0 
Na1 Na1+ 1 b 0.5 0.5 0.5 1. 0 
S1 S2- 2 c 0.264 0.264 0.264 1. 0 

#End of data_15558-ICSD


