data_300031-ICSD
#?2014 by Fachinformationszentrum Karlsruhe, and the U.S. Secretary of 
#Commerce on behalf of the United States.  All rights reserved.
_database_code_ICSD                300031
_audit_creation_date               1982/12/31
_audit_update_record               2003/04/01
_chemical_name_systematic          'Ammonium Lithium Selenate(VI)'
_chemical_formula_structural       '(N H4) Li (Se O4)'
_chemical_formula_sum              'H4 Li1 N1 O4 Se1'
_publ_section_title
;
Ammonium lithium selenate, N H4 Li Se O4
;
loop_
_citation_id
_citation_journal_abbrev
_citation_year
_citation_journal_volume
_citation_page_first
_citation_page_last
_citation_journal_id_ASTM
primary 'Crystal Structure Communications' 1982 11 2029 2034 CSCMCS
2 'Phase Transition' 1992 38 127 220 PHTRDP
_publ_author_name                  'Waskowska, A.;Allmann, R.'
_cell_length_a                     5.278(4)
_cell_length_b                     17.346(11)
_cell_length_c                     5.116(4)
_cell_angle_alpha                  90.
_cell_angle_beta                   90.
_cell_angle_gamma                  90.
_cell_volume                       468.38
_cell_formula_units_Z              4
_symmetry_space_group_name_H-M     'P b n 21'
_symmetry_Int_Tables_number        33
_refine_ls_R_factor_all            .059
loop_
_symmetry_equiv_pos_site_id
_symmetry_equiv_pos_as_xyz
  1	'-x+.5, y+.5, z'
  2	'x+.5, -y+.5, z+.5'
  3	'-x, -y, z+.5'
  4	'x, y, z'
loop_
_atom_type_symbol
_atom_type_oxidation_number
H1+	1
Li1+	1
N3-	-3
O2-	-2
Se6+	6
loop_
_atom_site_label
_atom_site_type_symbol
_atom_site_symmetry_multiplicity
_atom_site_Wyckoff_symbol
_atom_site_fract_x
_atom_site_fract_y
_atom_site_fract_z
_atom_site_occupancy
_atom_site_attached_hydrogens
Se1 Se6+ 4 a 0.1960(2) 0.0993(1) 0.32 1. 0 
O1 O2- 4 a 0.2123(18) 0.0903(4) 0.6775(15) 1. 0 
O2 O2- 4 a 0.3583(12) 0.0213(4) 0.2323(19) 1. 0 
O3 O2- 4 a 0.3196(14) 0.1806(4) 0.2962(41) 1. 0 
O4 O2- 4 a -.1029(12) 0.0938(3) 0.3348(50) 1. 0 
Li1 Li1+ 4 a 0.6934(32) 0.0018(9) 0.3314(84) 1. 0 
N1 N3- 4 a 0.1890(15) 0.3349(4) 0.3298(46) 1. 0 
H1 H1+ 4 a 0.258 0.362 0.173 1. 0 
H2 H1+ 4 a 0.258 0.359 0.499 1. 0 
H3 H1+ 4 a 0.031 0.347 0.291 1. 0 
H4 H1+ 4 a 0.235 0.283 0.325 1. 0 

loop_
_atom_site_aniso_label
_atom_site_aniso_type_symbol
_atom_site_aniso_U_11
_atom_site_aniso_U_22
_atom_site_aniso_U_33
_atom_site_aniso_U_12
_atom_site_aniso_U_13
_atom_site_aniso_U_23
Se1 Se6+ 0.0149(3) 0.0165(3) 0.105(1) 0.0018(3) 0.0075(9) 0.0038(11)
O1 O2- 0.059(5) 0.040(4) 0.012(2) 0.016(3) 0.011(3) -0.005(3)
O2 O2- 0.017(3) 0.025(3) 0.067(7) 0.007(2) 0.005(3) -0.005(3)
O3 O2- 0.036(3) 0.020(2) 0.101(9) -0.006(2) 0.020(6) 0.011(6)
O4 O2- 0.013(2) 0.027(3) 0.122(9) 0.002(2) -0.006(7) -0.017(8)
Li1 Li1+ 0.029(7) 0.026(7) 0.078(16) 0.005(6) 0.019(13) 0.020(16)
N1 N3- 0.026(3) 0.030(6) 0.067(6) 0.003(3) 0.003(7) -0.002(10)
#End of data_300031-ICSD


