data_10080-ICSD
#?2014 by Fachinformationszentrum Karlsruhe, and the U.S. Secretary of 
#Commerce on behalf of the United States.  All rights reserved.
_database_code_ICSD                10080
_audit_creation_date               1980/01/01
_chemical_name_systematic          'Magnesium Phosphate 22-hydrate'
_chemical_formula_structural       'Mg3 (P O4)2 (H2 O)22'
_chemical_formula_sum              'H44 Mg3 O30 P2'
_publ_section_title
;
(X O4)(-n) ion hydration. The crystal structure of Mg3 (P O4)2 (H2 
O)22
;
loop_
_citation_id
_citation_journal_abbrev
_citation_year
_citation_journal_volume
_citation_page_first
_citation_page_last
_citation_journal_id_ASTM
primary 'Journal of Physical Chemistry' 1978 82 2335 2340 JPCHAX
_publ_author_name
;
Schroeder, L.W.;Mathew, M.;Brown, W.E.
;
_cell_length_a                     6.902(2)
_cell_length_b                     6.961(2)
_cell_length_c                     15.982(4)
_cell_angle_alpha                  87.66(2)
_cell_angle_beta                   85.22(2)
_cell_angle_gamma                  60.81(2)
_cell_volume                       668.01
_cell_formula_units_Z              1
_symmetry_space_group_name_H-M     'P -1'
_symmetry_Int_Tables_number        2
_refine_ls_R_factor_all            .058
loop_
_symmetry_equiv_pos_site_id
_symmetry_equiv_pos_as_xyz
  1	'-x, -y, -z'
  2	'x, y, z'
loop_
_atom_type_symbol
_atom_type_oxidation_number
H1+	1
Mg2+	2
O2-	-2
P5+	5
loop_
_atom_site_label
_atom_site_type_symbol
_atom_site_symmetry_multiplicity
_atom_site_Wyckoff_symbol
_atom_site_fract_x
_atom_site_fract_y
_atom_site_fract_z
_atom_site_occupancy
_atom_site_attached_hydrogens
_atom_site_B_iso_or_equiv
Mg1 Mg2+ 1 a 0 0 0 1. 0 0 
Mg2 Mg2+ 2 i 0.2168(4) 0.8871(4) 0.3431(1) 1. 0 0 
P1 P5+ 2 i 0.0953(3) 0.4470(3) 0.7592(1) 1. 0 0 
O1 O2- 2 i 0.0995(7) 0.4481(7) 0.6622(2) 1. 0 0 
O2 O2- 2 i 0.2136(7) 0.2060(6) 0.7898(2) 1. 0 0 
O3 O2- 2 i 0.2149(6) 0.5696(7) 0.7861(2) 1. 0 0 
O4 O2- 2 i 0.1492(6) 0.4359(7) 0.2040(2) 1. 0 0 
O5 O2- 2 i 0.0744(7) 0.7476(8) 0.4261(2) 1. 0 0 
O6 O2- 2 i 0.1272(6) 0.1745(6) 0.4110(2) 1. 0 0 
O7 O2- 2 i 0.0903(7) 0.9560(8) 0.7080(3) 1. 0 0 
O8 O2- 2 i 0.1823(8) 0.8651(8) 0.1050(3) 1. 0 0 
O9 O2- 2 i 0.1937(8) 0.6977(7) 0.9423(2) 1. 0 0 
O10 O2- 2 i 0.2232(8) 0.0960(8) 0.9504(3) 1. 0 0 
O11 O2- 2 i 0.3447(7) 0.0012(7) 0.2405(2) 1. 0 0 
O12 O2- 2 i 0.3330(8) 0.3383(8) 0.0460(3) 1. 0 0 
O13 O2- 2 i 0.3661(7) 0.5924(7) 0.2799(3) 1. 0 0 
O14 O2- 2 i 0.4944(8) 0.7634(8) 0.4098(3) 1. 0 0 
O15 O2- 2 i 0.5050(8) 0.2496(7) 0.4163(3) 1. 0 0 
H1 H1+ 2 i 0.032(10) 0.666(11) 0.388(4) 1. 0 3. 
H2 H1+ 2 i -.007(11) 0.205(11) 0.517(4) 1. 0 3. 
H3 H1+ 2 i 0.047(11) 0.296(11) 0.382(4) 1. 0 3. 
H4 H1+ 2 i 0.269(11) 0.184(10) 0.421(4) 1. 0 3. 
H5 H1+ 2 i 0.155(10) 0.822(10) 0.737(4) 1. 0 3. 
H6 H1+ 2 i 0.129(10) 0.017(10) 0.740(4) 1. 0 3. 
H7 H1+ 2 i 0.205(9) 0.93(1) 0.142(3) 1. 0 3. 
H8 H1+ 2 i 0.232(9) 0.714(10) 0.117(3) 1. 0 3. 
H9 H1+ 2 i 0.208(11) 0.632(11) 0.898(4) 1. 0 3. 
H10 H1+ 2 i 0.242(10) 0.589(11) 0.989(4) 1. 0 3. 
H11 H1+ 2 i 0.236(9) 0.133(10) 0.898(3) 1. 0 3. 
H12 H1+ 2 i 0.246(9) 0.149(9) -.005(4) 1. 0 3. 
H13 H1+ 2 i 0.475(12) 0.069(10) 0.775(4) 1. 0 3. 
H14 H1+ 2 i 0.289(11) 0.141(12) 0.225(4) 1. 0 3. 
H15 H1+ 2 i 0.275(10) 0.357(10) 0.098(4) 1. 0 3. 
H16 H1+ 2 i 0.464(10) 0.287(10) 0.055(3) 1. 0 3. 
H17 H1+ 2 i 0.298(11) 0.533(11) 0.255(4) 1. 0 3. 
H18 H1+ 2 i 0.510(11) 0.536(11) 0.248(4) 1. 0 3. 
H19 H1+ 2 i 0.375(10) 0.232(10) 0.610(4) 1. 0 3. 
H20 H1+ 2 i 0.483(10) 0.258(10) 0.537(4) 1. 0 3. 
H21 H1+ 2 i 0.482(10) 0.377(11) 0.399(4) 1. 0 3. 
H22 H1+ 2 i 0.372(11) 0.844(11) 0.605(4) 1. 0 3. 

loop_
_atom_site_aniso_label
_atom_site_aniso_type_symbol
_atom_site_aniso_U_11
_atom_site_aniso_U_22
_atom_site_aniso_U_33
_atom_site_aniso_U_12
_atom_site_aniso_U_13
_atom_site_aniso_U_23
Mg1 Mg2+ 0.030(2) 0.023(2) 0.016(2) -.015(2) -.001(2) 0.002(1)
Mg2 Mg2+ 0.018(1) 0.017(1) 0.022(1) -.007(1) -.001(1) -.001(1)
P1 P5+ 0.016(1) 0.016(1) 0.018(1) -.008(1) 0.001(1) -.003(1)
O1 O2- 0.024(3) 0.024(3) 0.012(2) -.013(2) -.001(2) 0.000(2)
O2 O2- 0.029(3) 0.017(3) 0.024(3) -.011(2) -.004(2) 0.001(2)
O3 O2- 0.020(3) 0.022(3) 0.027(3) -.014(2) 0.000(2) -.005(2)
O4 O2- 0.012(2) 0.029(3) 0.023(3) -.008(2) 0.005(2) -.011(2)
O5 O2- 0.047(3) 0.051(4) 0.021(3) -.036(3) 0.001(2) -.005(2)
O6 O2- 0.025(3) 0.017(3) 0.022(3) -.008(2) -.006(2) -.004(2)
O7 O2- 0.026(3) 0.023(3) 0.036(3) -.014(2) -.014(2) 0.003(2)
O8 O2- 0.063(4) 0.031(3) 0.029(3) -.022(3) 0.021(3) 0.001(2)
O9 O2- 0.061(4) 0.024(3) 0.018(3) -.013(3) -.002(2) -.006(2)
O10 O2- 0.057(3) 0.050(3) 0.017(3) -.040(3) -.002(2) 0.005(2)
O11 O2- 0.023(3) 0.020(3) 0.030(3) -.009(2) 0.004(2) 0.004(2)
O12 O2- 0.031(3) 0.047(4) 0.026(3) -.019(3) -.001(3) 0.001(3)
O13 O2- 0.023(3) 0.027(3) 0.045(3) -.014(2) 0.010(2) -.022(2)
O14 O2- 0.023(3) 0.050(4) 0.015(3) -.004(3) -.004(2) -.001(2)
O15 O2- 0.045(3) 0.030(3) 0.031(3) -.015(3) 0.002(2) 0.006(2)
#End of data_10080-ICSD


