data_36203-ICSD
#?2014 by Fachinformationszentrum Karlsruhe, and the U.S. Secretary of 
#Commerce on behalf of the United States.  All rights reserved.
_database_code_ICSD                36203
_audit_creation_date               1980/01/01
_audit_update_record               2006/04/01
_chemical_name_systematic          'Potassium Thiocyanate'
_chemical_formula_structural       'K (S C N)'
_chemical_formula_sum              'C1 K1 N1 S1'
_publ_section_title
;
The crystal structure of potassium thiocyanate
;
loop_
_citation_id
_citation_journal_abbrev
_citation_year
_citation_journal_volume
_citation_page_first
_citation_page_last
_citation_journal_id_ASTM
primary
;
Zeitschrift fuer Kristallographie, Kristallgeometrie, Kristallphysik, 
Kristallchemie (-144,1977)
;
 1933 85 214 222 ZEKGAX
2
;
Zeitschrift fuer Physikalische Chemie, Abteilung B: Chemie der 
Elementarprozesse, Aufbau der Materie
;
 1934 24 1 21 ZPCBAL
_publ_author_name                  'Klug, H.P.'
_cell_length_a                     6.67
_cell_length_b                     7.595
_cell_length_c                     6.648
_cell_angle_alpha                  90.
_cell_angle_beta                   90.
_cell_angle_gamma                  90.
_cell_volume                       336.78
_cell_formula_units_Z              4
_symmetry_space_group_name_H-M     'P c m b'
_symmetry_Int_Tables_number        57
loop_
_symmetry_equiv_pos_site_id
_symmetry_equiv_pos_as_xyz
  1	'x, y+.5, -z+.5'
  2	'-x, y, z+.5'
  3	'x, -y+.5, z'
  4	'-x, -y, -z'
  5	'-x, -y+.5, z+.5'
  6	'x, -y, -z+.5'
  7	'-x, y+.5, -z'
  8	'x, y, z'
loop_
_atom_type_symbol
_atom_type_oxidation_number
C4+	4
K1+	1
N3-	-3
S2-	-2
loop_
_atom_site_label
_atom_site_type_symbol
_atom_site_symmetry_multiplicity
_atom_site_Wyckoff_symbol
_atom_site_fract_x
_atom_site_fract_y
_atom_site_fract_z
_atom_site_occupancy
_atom_site_attached_hydrogens
K1 K1+ 4 c 0.212 0 0.75 1. 0 
N1 N3- 4 d 0.08 0.25 0.4 1. 0 
C1 C4+ 4 d 0.205 0.25 0.28 1. 0 
S1 S2- 4 d 0.385 0.25 0.095 1. 0 

#End of data_36203-ICSD


