data_190402-ICSD
#?2014 by Fachinformationszentrum Karlsruhe, and the U.S. Secretary of 
#Commerce on behalf of the United States.  All rights reserved.
_database_code_ICSD                190402
_audit_creation_date               2014/08/01
_chemical_name_systematic          'Calcium Trivanadate(IV)'
_chemical_formula_structural       'Ca (V3 O7)'
_chemical_formula_sum              'Ca1 O7 V3'
_publ_section_title
;
Superexchange interactions in the two-dimensional S = 1/2 system M V3 
O7
;
loop_
_citation_id
_citation_journal_abbrev
_citation_year
_citation_journal_volume
_citation_journal_issue
_citation_page_first
_citation_page_last
_citation_journal_id_ASTM
primary 'Journal of Physics: Condensed Matter' 2002 14 23 5731 5746 JCOMEL
_publ_author_name
;
Nishiguchi, Noriaki;Onoda, Masashige;Kubo, Kenn
;
_cell_length_a                     10.446(2)
_cell_length_b                     10.369(1)
_cell_length_c                     5.293(1)
_cell_angle_alpha                  90.
_cell_angle_beta                   90.
_cell_angle_gamma                  90.
_cell_volume                       573.31
_cell_formula_units_Z              4
_symmetry_space_group_name_H-M     'P n m a'
_symmetry_Int_Tables_number        62
_refine_ls_R_factor_all            .051
loop_
_symmetry_equiv_pos_site_id
_symmetry_equiv_pos_as_xyz
  1	'x+.5, y, -z+.5'
  2	'x, -y+.5, z'
  3	'-x+.5, y+.5, z+.5'
  4	'-x, -y, -z'
  5	'-x+.5, -y, z+.5'
  6	'-x, y+.5, -z'
  7	'x+.5, -y+.5, -z+.5'
  8	'x, y, z'
loop_
_atom_type_symbol
_atom_type_oxidation_number
Ca2+	2
O2-	-2
V4+	4
loop_
_atom_site_label
_atom_site_type_symbol
_atom_site_symmetry_multiplicity
_atom_site_Wyckoff_symbol
_atom_site_fract_x
_atom_site_fract_y
_atom_site_fract_z
_atom_site_occupancy
_atom_site_attached_hydrogens
_atom_site_B_iso_or_equiv
V1 V4+ 8 d 0.31243(4) 0.02041(4) 0.28326(9) 1. 0 0.477(5) 
V2 V4+ 4 c 0.28858(6) 0.250 0.7921(1) 1. 0 0.465(7) 
Ca1 Ca2+ 4 c 0.08455(8) 0.250 0.2996(2) 1. 0 0.649(10) 
O1 O2- 8 d 0.2202(2) 0.1202(2) 0.0257(4) 1. 0 0.58(3) 
O2 O2- 8 d 0.2259(2) 0.1202(3) 0.5477(4) 1. 0 0.63(3) 
O3 O2- 8 d 0.4597(2) 0.0659(2) 0.2666(5) 1. 0 1.11(4) 
O4 O2- 4 c 0.4440(3) 0.250 0.8082(7) 1. 0 1.09(5) 

#End of data_190402-ICSD


