data_245002-ICSD
#?2014 by Fachinformationszentrum Karlsruhe, and the U.S. Secretary of 
#Commerce on behalf of the United States.  All rights reserved.
_database_code_ICSD                245002
_audit_creation_date               2007/04/01
_audit_update_record               2008/02/01
_chemical_name_systematic
;
Trisilver Diindium Tris(phosphate(V)) - Beta
;
_chemical_formula_structural       'Ag3 In2 (P O4)3'
_chemical_formula_sum              'Ag3 In2 O12 P3'
_publ_section_title
;
Synthesis and crystal structure of three silver indium double 
phosphates
;
loop_
_citation_id
_citation_journal_abbrev
_citation_year
_citation_journal_volume
_citation_page_first
_citation_page_last
_citation_journal_id_ASTM
primary 'Journal of Solid State Chemistry' 2006 179 3664 3671 JSSCBI
_publ_author_name
;
Strelkov, M.A.;Zhizhin, M.G.;Komissarova, L.N.
;
_cell_length_a                     12.6305(1)
_cell_length_b                     12.8549(1)
_cell_length_c                     6.5989(1)
_cell_angle_alpha                  90
_cell_angle_beta                   113.842(1)
_cell_angle_gamma                  90
_cell_volume                       979.99
_cell_formula_units_Z              4
_symmetry_space_group_name_H-M     'C 1 2/c 1'
_symmetry_Int_Tables_number        15
_refine_ls_R_factor_all            .0567
loop_
_symmetry_equiv_pos_site_id
_symmetry_equiv_pos_as_xyz
  1	'x, -y, z+.5'
  2	'-x, -y, -z'
  3	'-x, y, -z+.5'
  4	'x, y, z'
  5	'x+.5, -y+.5, z+.5'
  6	'-x+.5, -y+.5, -z'
  7	'-x+.5, y+.5, -z+.5'
  8	'x+.5, y+.5, z'
loop_
_atom_type_symbol
_atom_type_oxidation_number
Ag1+	1
In3+	3
O2-	-2
P5+	5
loop_
_atom_site_label
_atom_site_type_symbol
_atom_site_symmetry_multiplicity
_atom_site_Wyckoff_symbol
_atom_site_fract_x
_atom_site_fract_y
_atom_site_fract_z
_atom_site_occupancy
_atom_site_attached_hydrogens
_atom_site_B_iso_or_equiv
In1 In3+ 8 f 0.2289(1) 0.1561(1) 0.1539(1) 1. 0 1.34(1) 
P1 P5+ 8 f 0.2403(2) -0.1021(2) 0.1354(4) 1. 0 1.26(1) 
P2 P5+ 4 e 0 0.2690(2) 0.75 1. 0 .39(1) 
O1 O2- 8 f 0.3625(2) -0.0774(3) 0.1629(4) 1. 0 2.45(3) 
O2 O2- 8 f 0.2465(3) -0.1701(3) 0.3336(4) 1. 0 2.45(3) 
O3 O2- 8 f 0.1739(3) -0.0026(2) 0.1321(4) 1. 0 2.45(3) 
O4 O2- 8 f 0.1752(3) -0.1623(3) -0.0786(4) 1. 0 2.45(3) 
O5 O2- 8 f 0.0506(4) 0.1935(3) 0.9406(4) 1. 0 1.66(4) 
O6 O2- 8 f 0.0909(4) 0.3365(3) 0.722(1) 1. 0 1.66(4) 
Ag1 Ag1+ 4 e 0 0.2784(1) .25 1. 0 2.05(1) 
Ag2 Ag1+ 4 e 0 -0.0031(1) .75 1. 0 2.68(1) 
Ag3 Ag1+ 4 b 0.5 0 0.5 1. 0 2.29(1) 

#End of data_245002-ICSD


