data_20639-ICSD
#?2014 by Fachinformationszentrum Karlsruhe, and the U.S. Secretary of 
#Commerce on behalf of the United States.  All rights reserved.
_database_code_ICSD                20639
_audit_creation_date               1983/12/31
_chemical_name_systematic          'Sodium Barium Neodymium Disilicate'
_chemical_formula_structural       'Na Ba Nd (Si2 O7)'
_chemical_formula_sum              'Ba1 Na1 Nd1 O7 Si2'
_publ_section_title
;
The crystal structure of diorthosilicate Na Ba Nd (Si2 O7)
;
loop_
_citation_id
_citation_journal_abbrev
_citation_year
_citation_journal_volume
_citation_page_first
_citation_page_last
_citation_journal_id_ASTM
primary 'Doklady Akademii Nauk SSSR' 1983 271 349 353 DANKAS
_publ_author_name
;
Baturin, S.V.;Malinovskii, Yu.A.;Bondareva, O.S.
;
_cell_length_a                     9.3274(9)
_cell_length_b                     10.497(2)
_cell_length_c                     14.195(2)
_cell_angle_alpha                  90.
_cell_angle_beta                   90.
_cell_angle_gamma                  90.
_cell_volume                       1389.83
_cell_formula_units_Z              8
_symmetry_space_group_name_H-M     'P c a b'
_symmetry_Int_Tables_number        61
_refine_ls_R_factor_all            .038
loop_
_symmetry_equiv_pos_site_id
_symmetry_equiv_pos_as_xyz
  1	'x+.5, -y+.5, z'
  2	'x, y+.5, -z+.5'
  3	'-x+.5, y, z+.5'
  4	'-x, -y, -z'
  5	'-x+.5, y+.5, -z'
  6	'-x, -y+.5, z+.5'
  7	'x+.5, -y, -z+.5'
  8	'x, y, z'
loop_
_atom_type_symbol
_atom_type_oxidation_number
Ba2+	2
Na1+	1
Nd3+	3
O2-	-2
Si4+	4
loop_
_atom_site_label
_atom_site_type_symbol
_atom_site_symmetry_multiplicity
_atom_site_Wyckoff_symbol
_atom_site_fract_x
_atom_site_fract_y
_atom_site_fract_z
_atom_site_occupancy
_atom_site_attached_hydrogens
Na1 Na1+ 8 c 0.4385(6) 0.9121(5) 0.1945(4) 1. 0 
Ba1 Ba2+ 8 c 0.0829(1) 0.3219(1) 0.1053(1) 1. 0 
Nd1 Nd3+ 8 c 0.1006(1) 0.9175(1) 0.1039(1) 1. 0 
Si1 Si4+ 8 c 0.2528(4) 0.6478(3) 0.2233(2) 1. 0 
Si2 Si4+ 8 c 0.2199(4) 0.6061(3) 0.0167(2) 1. 0 
O1 O2- 8 c 0.2350(8) 0.8009(6) 0.2137(5) 1. 0 
O2 O2- 8 c 0.1774(8) 0.5786(7) 0.1287(5) 1. 0 
O3 O2- 8 c 0.4204(8) 0.6088(7) 0.2301(5) 1. 0 
O4 O2- 8 c 0.1477(8) 0.0998(7) 0.1949(5) 1. 0 
O5 O2- 8 c 0.3424(8) 0.9893(7) 0.0440(5) 1. 0 
O6 O2- 8 c 0.3407(8) 0.2453(7) 0.0101(5) 1. 0 
O7 O2- 8 c 0.3940(8) 0.6011(7) 0.0084(5) 1. 0 

#End of data_20639-ICSD


