data_30657-ICSD
#?2014 by Fachinformationszentrum Karlsruhe, and the U.S. Secretary of 
#Commerce on behalf of the United States.  All rights reserved.
_database_code_ICSD                30657
_audit_creation_date               1986/10/14
_chemical_name_systematic          'Dicesium Silver Chloride'
_chemical_formula_structural       'Cs2 Ag Cl3'
_chemical_formula_sum              'Ag1 Cl3 Cs2'
_publ_section_title
;
The Crystal Structure of K2 Cu Cl3 and Isomorphous Substances
;
loop_
_citation_id
_citation_journal_abbrev
_citation_year
_citation_journal_volume
_citation_page_first
_citation_page_last
_citation_journal_id_ASTM
primary 'Acta Crystallographica (1,1948-23,1967)' 1949 2 158 163 ACCRA9
_publ_author_name                  'Brink, C.'
_cell_length_a                     13.19(2)
_cell_length_b                     13.74(2)
_cell_length_c                     4.57(2)
_cell_angle_alpha                  90.
_cell_angle_beta                   90.
_cell_angle_gamma                  90.
_cell_volume                       828.22
_cell_formula_units_Z              4
_symmetry_space_group_name_H-M     'P n a m'
_symmetry_Int_Tables_number        62
loop_
_symmetry_equiv_pos_site_id
_symmetry_equiv_pos_as_xyz
  1	'x+.5, -y+.5, z'
  2	'x, y, -z+.5'
  3	'-x+.5, y+.5, z+.5'
  4	'-x, -y, -z'
  5	'-x+.5, y+.5, -z'
  6	'-x, -y, z+.5'
  7	'x+.5, -y+.5, -z+.5'
  8	'x, y, z'
loop_
_atom_type_symbol
_atom_type_oxidation_number
Ag1+	1
Cl1-	-1
Cs1+	1
loop_
_atom_site_label
_atom_site_type_symbol
_atom_site_symmetry_multiplicity
_atom_site_Wyckoff_symbol
_atom_site_fract_x
_atom_site_fract_y
_atom_site_fract_z
_atom_site_occupancy
_atom_site_attached_hydrogens
Ag1 Ag1+ 4 c 0.252 0.197 0.25 1. 0 
Cl1 Cl1- 4 c 0.133 0.052 0.25 1. 0 
Cl2 Cl1- 4 c 0.435 0.138 0.25 1. 0 
Cl3 Cl1- 4 c 0.277 0.791 0.25 1. 0 
Cs1 Cs1+ 4 c 0.172 0.48 0.25 1. 0 
Cs2 Cs1+ 4 c -.488 -.327 0.25 1. 0 

#End of data_30657-ICSD


