data_248036-ICSD
#?2014 by Fachinformationszentrum Karlsruhe, and the U.S. Secretary of 
#Commerce on behalf of the United States.  All rights reserved.
_database_code_ICSD                248036
_audit_creation_date               2010/08/01
_chemical_name_systematic
;
Tetrapotassium Tetraindium(III) Icosaselenohexaphosphate(IV)
;
_chemical_formula_structural       'K4 In4 P6 Se20'
_chemical_formula_sum              'In4 K4 P6 Se20'
_publ_section_title
;
Structural diversity by mixing chalcogen atoms in the chalcophosphate 
system K/In/P/Q (Q = S, Se)
;
loop_
_citation_id
_citation_journal_abbrev
_citation_year
_citation_journal_volume
_citation_journal_issue
_citation_page_first
_citation_page_last
_citation_journal_id_ASTM
primary 'Inorganic Chemistry' 2010 49 3 1144 1151 INOCAJ
_publ_author_name
;
Rothenberger, A.;Wang Hsienhau;Chung Duck Young;Kanatzidis, M.G.
;
_cell_length_a                     19.707(4)
_cell_length_b                     7.7120(15)
_cell_length_c                     13.229(3)
_cell_angle_alpha                  90.00
_cell_angle_beta                   106.42(3)
_cell_angle_gamma                  90.00
_cell_volume                       1928.55
_cell_formula_units_Z              2
_symmetry_space_group_name_H-M     'P 1 21/c 1'
_symmetry_Int_Tables_number        14
_refine_ls_R_factor_all            .0321
loop_
_symmetry_equiv_pos_site_id
_symmetry_equiv_pos_as_xyz
  1	'x, -y+.5, z+.5'
  2	'-x, -y, -z'
  3	'-x, y+.5, -z+.5'
  4	'x, y, z'
loop_
_atom_type_symbol
_atom_type_oxidation_number
In3+	3
K1+	1
P4+	4
Se2-	-2
loop_
_atom_site_label
_atom_site_type_symbol
_atom_site_symmetry_multiplicity
_atom_site_Wyckoff_symbol
_atom_site_fract_x
_atom_site_fract_y
_atom_site_fract_z
_atom_site_occupancy
_atom_site_attached_hydrogens
_atom_site_U_iso_or_equiv
P1 P4+ 4 e 0.02007(7) 0.11429(17) 0.05187(10) 1 0 0.0084(2) 
P2 P4+ 4 e 0.33555(7) 0.06295(16) 0.27443(10) 1 0 0.0075(2) 
P3 P4+ 4 e 0.65209(7) 0.32451(16) 0.31622(10) 1 0 0.0070(2) 
Se1 Se2- 4 e 0.07175(3) 0.28183(7) -0.03826(4) 1 0 0.01107(10) 
Se2 Se2- 4 e 0.07187(3) 0.72804(7) 0.41512(4) 1 0 0.01098(10) 
Se3 Se2- 4 e 0.10390(3) 0.01585(7) 0.18552(4) 1 0 0.01055(10) 
Se4 Se2- 4 e 0.21789(3) 0.41871(6) 0.36469(4) 1 0 0.00851(10) 
Se5 Se2- 4 e 0.24299(3) 0.72250(6) 0.10478(4) 1 0 0.00836(10) 
Se6 Se2- 4 e 0.27622(3) 0.24140(6) 0.15397(4) 1 0 0.00832(10) 
Se7 Se2- 4 e 0.44006(3) 0.16153(7) 0.34763(4) 1 0 0.00926(10) 
Se8 Se2- 4 e 0.58858(3) 0.40040(7) 0.42164(4) 1 0 0.00877(10) 
Se9 Se2- 4 e 0.59142(3) 0.13011(6) 0.20566(4) 1 0 0.00852(10) 
Se10 Se2- 4 e 0.72316(3) 0.47169(6) 0.11416(4) 1 0 0.00921(10) 
K1 K1+ 4 e 0.08052(8) 0.54946(18) 0.17961(11) 1 0 0.0260(3) 
K2 K1+ 4 e 0.42686(7) 0.35475(15) 0.09723(9) 1 0 0.0143(2) 
In1 In3+ 4 e 0.176328(19) 0.02887(5) 0.03192(3) 1 0 0.00870(8) 
In2 In3+ 4 e 0.68826(2) 0.14451(4) 0.10199(3) 1 0 0.00844(8) 

loop_
_atom_site_aniso_label
_atom_site_aniso_type_symbol
_atom_site_aniso_U_11
_atom_site_aniso_U_22
_atom_site_aniso_U_33
_atom_site_aniso_U_12
_atom_site_aniso_U_13
_atom_site_aniso_U_23
P1 P4+ 0.0080(6) 0.0080(6) 0.0097(5) 0.0005(5) 0.0034(5) -0.0002(4)
P2 P4+ 0.0099(6) 0.0072(5) 0.0059(5) 0.0001(4) 0.0029(5) 0.0003(4)
P3 P4+ 0.0071(6) 0.0083(5) 0.0054(5) -0.0012(4) 0.0017(4) -0.0006(4)
Se1 Se2- 0.0102(2) 0.0090(2) 0.0145(2) 0.00069(18) 0.00428(19) 0.00348(18)
Se2 Se2- 0.0095(2) 0.0106(2) 0.0137(2) -0.00065(18) 0.00470(19) 0.00285(18)
Se3 Se2- 0.0099(2) 0.0142(2) 0.0075(2) 0.00036(19) 0.00239(18) 0.00091(18)
Se4 Se2- 0.0100(2) 0.0086(2) 0.0070(2) -0.00088(17) 0.00260(18) 
-0.00107(17)
Se5 Se2- 0.0091(2) 0.0077(2) 0.0082(2) -0.00004(17) 0.00224(17) 0.00012(17)
Se6 Se2- 0.0099(2) 0.0075(2) 0.0072(2) 0.00095(17) 0.00191(18) 0.00114(16)
Se7 Se2- 0.0093(2) 0.0103(2) 0.0075(2) -0.00104(17) 0.00128(18) 
-0.00017(17)
Se8 Se2- 0.0089(2) 0.0116(2) 0.0061(2) 0.00016(18) 0.00247(17) -0.00045(17)
Se9 Se2- 0.0098(2) 0.0090(2) 0.0070(2) -0.00247(18) 0.00286(18) 
-0.00177(17)
Se10 Se2- 0.0120(2) 0.0084(2) 0.0088(2) -0.00050(18) 0.00532(18) 
-0.00052(17)
K1 K1+ 0.0278(7) 0.0229(7) 0.0185(6) 0.0087(6) -0.0077(5) -0.0053(5)
K2 K1+ 0.0173(6) 0.0149(5) 0.0118(5) -0.0022(4) 0.0060(4) -0.0008(4)
In1 In3+ 0.00903(16) 0.00975(16) 0.00772(15) 0.00115(12) 0.00299(12) 
0.00092(12)
In2 In3+ 0.00998(17) 0.00831(16) 0.00714(15) 0.00064(12) 0.00261(12) 
-0.00091(12)
#End of data_248036-ICSD


