data_41022-ICSD
#?2014 by Fachinformationszentrum Karlsruhe, and the U.S. Secretary of 
#Commerce on behalf of the United States.  All rights reserved.
_database_code_ICSD                41022
_audit_creation_date               2000/07/15
_audit_update_record               2005/10/01
_chemical_name_systematic          'Trilithium Boron Nitride - Lt'
_chemical_formula_structural       'Li3 B N2'
_chemical_formula_sum              'B1 Li3 N2'
_publ_section_title
;
Structure of a new polymorph of lithium boron nitride, Li3 B N2
;
loop_
_citation_id
_citation_journal_abbrev
_citation_year
_citation_journal_volume
_citation_page_first
_citation_page_last
_citation_journal_id_ASTM
primary 'Journal of Solid State Chemistry' 1986 65 6 12 JSSCBI
_publ_author_name
;
Yamane, H.;Kikkawa, S.;Horiuchi, H.;Koizumi, M.
;
_cell_length_a                     5.1502(2)
_cell_length_b                     7.0824(2)
_cell_length_c                     6.7908(3)
_cell_angle_alpha                  90.
_cell_angle_beta                   112.956(2)
_cell_angle_gamma                  90.
_cell_volume                       228.08
_cell_formula_units_Z              4
_symmetry_space_group_name_H-M     'P 1 21/c 1'
_symmetry_Int_Tables_number        14
_refine_ls_R_factor_all            .023
loop_
_symmetry_equiv_pos_site_id
_symmetry_equiv_pos_as_xyz
  1	'x, -y+.5, z+.5'
  2	'-x, -y, -z'
  3	'-x, y+.5, -z+.5'
  4	'x, y, z'
loop_
_atom_type_symbol
_atom_type_oxidation_number
B3+	3
Li1+	1
N3-	-3
loop_
_atom_site_label
_atom_site_type_symbol
_atom_site_symmetry_multiplicity
_atom_site_Wyckoff_symbol
_atom_site_fract_x
_atom_site_fract_y
_atom_site_fract_z
_atom_site_occupancy
_atom_site_attached_hydrogens
Li1 Li1+ 4 e 0.24995(17) 0.48518(12) 0.49811(12) 1. 0 
Li2 Li1+ 4 e 0.25228(18) 0.01212(13) 0.37502(13) 1. 0 
Li3 Li1+ 4 e 0.74360(16) 0.20714(11) 0.31402(12) 1. 0 
B1 B3+ 4 e 0.21509(7) 0.31982(5) 0.17648(5) 1. 0 
N1 N3- 4 e 0.43403(6) 0.43735(4) 0.21904(5) 1. 0 
N2 N3- 4 e 0.99439(6) 0.20472(5) 0.13461(5) 1. 0 

#End of data_41022-ICSD


