data_250012-ICSD
#?2014 by Fachinformationszentrum Karlsruhe, and the U.S. Secretary of 
#Commerce on behalf of the United States.  All rights reserved.
_database_code_ICSD                250012
_audit_creation_date               2003/10/01
_chemical_name_systematic
;
Lanthanum Tetracalcium Oxide Tris(borate)
;
_chemical_formula_structural       'La Ca4 O (B O3)3'
_chemical_formula_sum              'B3 Ca4 La1 O10'
_publ_section_title
;
Crystallization and crystal structure of La Ca4 O (B O3)3
;
loop_
_citation_id
_citation_journal_abbrev
_citation_year
_citation_journal_volume
_citation_page_first
_citation_page_last
_citation_journal_id_ASTM
primary 'Zhurnal Neorganicheskoi Khimii' 2003 48 5 7 ZNOKAQ
_publ_author_name
;
Belokoneva, E.L.;Mill', B.V.;Ershova, G.I.
;
_cell_length_a                     8.183(2)
_cell_length_b                     16.11(1)
_cell_length_c                     3.623(2)
_cell_angle_alpha                  90.
_cell_angle_beta                   101.36(3)
_cell_angle_gamma                  90.
_cell_volume                       468.26
_cell_formula_units_Z              2
_symmetry_space_group_name_H-M     'C 1 m 1'
_symmetry_Int_Tables_number        8
_refine_ls_R_factor_all            .0362
loop_
_symmetry_equiv_pos_site_id
_symmetry_equiv_pos_as_xyz
  1	'x, -y, z'
  2	'x, y, z'
  3	'x+.5, -y+.5, z'
  4	'x+.5, y+.5, z'
loop_
_atom_type_symbol
_atom_type_oxidation_number
B3+	3
Ca2+	2
La3+	3
O2-	-2
loop_
_atom_site_label
_atom_site_type_symbol
_atom_site_symmetry_multiplicity
_atom_site_Wyckoff_symbol
_atom_site_fract_x
_atom_site_fract_y
_atom_site_fract_z
_atom_site_occupancy
_atom_site_attached_hydrogens
_atom_site_B_iso_or_equiv
La1 La3+ 2 a 0.0 0.0 0.0 1. 0 0.737(5) 
Ca1 Ca2+ 4 b 0.1495(1) 0.38622(4) 0.3349(2) 1. 0 0.70(1) 
Ca2 Ca2+ 4 b 0.2735(1) 0.1800(5) 0.6656(2) 1. 0 0.79(1) 
B1 B3+ 2 a 0.3914(7) 0.0 0.711(2) 1. 0 0.46(7) 
B2 B3+ 4 b 0.9622(5) 0.1954(3) 0.088(1) 1. 0 0.63(6) 
O1 O2- 2 a 0.8247(5) 0.0 0.416(1) 1. 0 0.56(6) 
O2 O2- 4 b 0.4769(5) -0.0744(2) 0.7601(9) 1. 0 0.85(5) 
O3 O2- 2 a 0.2202(7) 0.0 0.614(2) 1. 0 1.4(1) 
O4 O2- 4 b 0.1035(4) 0.1478(2) 0.0936(9) 1. 0 0.94(5) 
O5 O2- 4 b 0.9733(5) 0.2703(2) 0.277(1) 1. 0 1.12(6) 
O6 O2- 4 b 0.8086(4) 0.1699(2) -0.1069(9) 1. 0 1.03(5) 

#End of data_250012-ICSD


