data_641246-ICSD
#?2014 by Fachinformationszentrum Karlsruhe, and the U.S. Secretary of 
#Commerce on behalf of the United States.  All rights reserved.
_database_code_ICSD                641246
_audit_creation_date               2012/08/01
_chemical_name_systematic
;
Potassium Molybdenum Sulfide (2/15/19)
;
_chemical_formula_structural       'K2 Mo15 S19'
_chemical_formula_sum              'K2 Mo15 S19'
_publ_section_title
;
Chimie du solide. Nouveaux clusters dans les chalcogenures ternaire 
derivant du molybdene(II): Mo9, Mo12, (Mo3)
;
loop_
_citation_id
_citation_journal_abbrev
_citation_year
_citation_journal_volume
_citation_page_first
_citation_page_last
_citation_journal_id_ASTM
primary
;
Comptes Rendus Hebdomadaires des Seances de l`Academie des Sciences, 
Serie C, Sciences Chimiques (1966-)
;
 1979 288 429 432 CHDCAQ
_publ_author_name
;
Potel, M.;Chevrel, R.;Sergent, M.;Decroux, M.;Fischer, O.
;
_cell_length_a                     19.51
_cell_length_b                     19.51
_cell_length_c                     19.51
_cell_angle_alpha                  27.77
_cell_angle_beta                   27.77
_cell_angle_gamma                  27.77
_cell_volume                       1423.45
_cell_formula_units_Z              2
_symmetry_space_group_name_H-M     'R -3 c R'
_symmetry_Int_Tables_number        167
loop_
_symmetry_equiv_pos_site_id
_symmetry_equiv_pos_as_xyz
  1	'-x+.5, -z+.5, -y+.5'
  2	'-z+.5, -y+.5, -x+.5'
  3	'-y+.5, -x+.5, -z+.5'
  4	'x+.5, z+.5, y+.5'
  5	'z+.5, y+.5, x+.5'
  6	'y+.5, x+.5, z+.5'
  7	'-z, -x, -y'
  8	'-y, -z, -x'
  9	'-x, -y, -z'
 10	'z, x, y'
 11	'y, z, x'
 12	'x, y, z'
loop_
_atom_type_symbol
_atom_type_oxidation_number
K1+	1
Mo2.4+	2.4
S2-	-2
loop_
_atom_site_label
_atom_site_type_symbol
_atom_site_symmetry_multiplicity
_atom_site_Wyckoff_symbol
_atom_site_fract_x
_atom_site_fract_y
_atom_site_fract_z
_atom_site_occupancy
_atom_site_attached_hydrogens
K1 K1+ 4 c 0.385 0.385 0.385 1. 0 
Mo1 Mo2.4+ 12 f 0.500 0.686 0.373 1. 0 
Mo2 Mo2.4+ 12 f 0.221 0.050 0.361 1. 0 
Mo3 Mo2.4+ 6 e 0.408 0.092 0.25 1. 0 
S1 S2- 12 f 0.193 0.802 0.557 1. 0 
S2 S2- 12 f 0.533 0.921 0.188 1. 0 
S3 S2- 6 e 0.057 0.443 0.75 1. 0 
S4 S2- 4 c 0.445 0.445 0.445 1. 0 
S5 S2- 4 c 0.175 0.175 0.175 1. 0 

#End of data_641246-ICSD


