data_66309-ICSD
#?2014 by Fachinformationszentrum Karlsruhe, and the U.S. Secretary of 
#Commerce on behalf of the United States.  All rights reserved.
_database_code_ICSD                66309
_audit_creation_date               1993/01/06
_audit_update_record               2003/04/01
_chemical_name_systematic
;
Potassium Tricopper Oxide Chloride Bis(sulfate(VI))
;
_chemical_formula_structural       'K Cu3 O Cl (S O4)2'
_chemical_formula_sum              'Cl1 Cu3 K1 O9 S2'
_chemical_name_mineral             Kamchatkite
_publ_section_title
;
The crystal structure of kamchatkite, a new naturally occuring 
oxychloride sulphate of potassium and copper
;
loop_
_citation_id
_citation_journal_abbrev
_citation_year
_citation_journal_volume
_citation_page_first
_citation_page_last
_citation_journal_id_ASTM
primary 'Mineralogical Magazine (1969-)' 1990 54 613 616 MNLMBB
_publ_author_name
;
Varaksina, T.V.;Fundamenskii, V.S.;Filatov, S.K.;Vergasova, L.P.
;
_cell_length_a                     9.741(5)
_cell_length_b                     12.858(6)
_cell_length_c                     7.001(3)
_cell_angle_alpha                  90.
_cell_angle_beta                   90.
_cell_angle_gamma                  90.
_cell_volume                       876.87
_cell_formula_units_Z              4
_symmetry_space_group_name_H-M     'P n a 21'
_symmetry_Int_Tables_number        33
_refine_ls_R_factor_all            .055
loop_
_symmetry_equiv_pos_site_id
_symmetry_equiv_pos_as_xyz
  1	'x+.5, -y+.5, z'
  2	'-x+.5, y+.5, z+.5'
  3	'-x, -y, z+.5'
  4	'x, y, z'
loop_
_atom_type_symbol
_atom_type_oxidation_number
Cl1-	-1
Cu2+	2
K1+	1
O2-	-2
S6+	6
loop_
_atom_site_label
_atom_site_type_symbol
_atom_site_symmetry_multiplicity
_atom_site_Wyckoff_symbol
_atom_site_fract_x
_atom_site_fract_y
_atom_site_fract_z
_atom_site_occupancy
_atom_site_attached_hydrogens
_atom_site_B_iso_or_equiv
Cu1 Cu2+ 4 a 0.1520(1) 0.14914(9) 0.8363 1. 0 0.97(2) 
Cu2 Cu2+ 4 a 0.2221(1) 0.90739(9) 0.8353(14) 1. 0 0.95(2) 
Cu3 Cu2+ 4 a -.0012(8) -.0009(7) 0.0811(12) 1. 0 0.88(2) 
S1 S6+ 4 a 0.1694(2) 0.8542(2) 0.3394(26) 1. 0 0.81(3) 
S2 S6+ 4 a 0.0710(2) 0.2097(2) 0.3353(19) 1. 0 0.92(4) 
K1 K1+ 4 a 0.1346(3) 0.5745(2) 0.8472(25) 1. 0 2.19(5) 
O1 O2- 4 a 0.1759(33) 0.9250(25) 0.5069(41) 1. 0 1.0(5) 
O2 O2- 4 a 0.0455(8) 0.7907(6) 0.3188(41) 1. 0 1.03(13) 
O3 O2- 4 a 0.2065(7) 0.2930(5) 0.8423(49) 1. 0 1.32(12) 
O4 O2- 4 a 0.1722(33) 0.9221(25) 0.1645(41) 1. 0 1.7(3) 
O5 O2- 4 a 0.0793(8) 0.7888(6) 0.8458(45) 1. 0 1.1(4) 
O6 O2- 4 a 0.1287(33) 0.1569(22) 0.4991(35) 1. 0 1.6(2) 
O7 O2- 4 a 0.1154(7) 0.3211(6) 0.3509(47) 1. 0 1.35(14) 
O8 O2- 4 a 0.1171(33) 0.1540(23) 0.1623(36) 1. 0 0.9(2) 
O9 O2- 4 a 0.0797(8) 0.0101(6) 0.8227(5) 1. 0 0.7(3) 
Cl1 Cl1- 4 a 0.1344(2) 0.5586(2) 0.3396(25) 1. 0 1.68(5) 

#End of data_66309-ICSD


