data_100356-ICSD
#?2014 by Fachinformationszentrum Karlsruhe, and the U.S. Secretary of 
#Commerce on behalf of the United States.  All rights reserved.
_database_code_ICSD                100356
_audit_creation_date               1981/12/31
_audit_update_record               2000/07/15
_chemical_name_systematic          'Tricalcium Tetragallium Oxide'
_chemical_formula_structural       'Ca3 Ga4 O9'
_chemical_formula_sum              'Ca3 Ga4 O9'
_publ_section_title
;
Ueber Erdalkalimetalloxogallate (VIII) Synthese und Aufbau eines 
neuen Calciumoxogallats Ca3 Ga4 O9
;
loop_
_citation_id
_citation_journal_abbrev
_citation_year
_citation_journal_volume
_citation_page_first
_citation_page_last
_citation_journal_id_ASTM
primary 'Monatshefte fuer Chemie' 1981 112 149 156 MOCMB7
_publ_author_name
;
Schulze, A.R.;Mueller Buschbaum, H.
;
_cell_length_a                     14.358
_cell_length_b                     16.825
_cell_length_c                     5.321
_cell_angle_alpha                  90.
_cell_angle_beta                   90.
_cell_angle_gamma                  90.
_cell_volume                       1285.41
_cell_formula_units_Z              6
_symmetry_space_group_name_H-M     'C m m 2'
_symmetry_Int_Tables_number        35
_refine_ls_R_factor_all            .062
loop_
_symmetry_equiv_pos_site_id
_symmetry_equiv_pos_as_xyz
  1	'x, -y, z'
  2	'-x, y, z'
  3	'-x, -y, z'
  4	'x, y, z'
  5	'x+.5, -y+.5, z'
  6	'-x+.5, y+.5, z'
  7	'-x+.5, -y+.5, z'
  8	'x+.5, y+.5, z'
loop_
_atom_type_symbol
_atom_type_oxidation_number
Ca2+	2
Ga3+	3
O2-	-2
loop_
_atom_site_label
_atom_site_type_symbol
_atom_site_symmetry_multiplicity
_atom_site_Wyckoff_symbol
_atom_site_fract_x
_atom_site_fract_y
_atom_site_fract_z
_atom_site_occupancy
_atom_site_attached_hydrogens
_atom_site_B_iso_or_equiv
Ca1 Ca2+ 2 a 0 0 0 1. 0 0.32 
Ca2 Ca2+ 4 e 0 0.4017(3) 0.9098(14) 1. 0 0.74 
Ca3 Ca2+ 8 f 0.1293(2) 0.2096(2) 0.99623(14) 1. 0 0.4 
Ca4 Ca2+ 4 d 0.2399(3) 0 0.9491(15) 1. 0 0.62 
Ga1 Ga3+ 8 f 0.1088(1) 0.0939(1) 0.4873(13) 1. 0 0.38 
Ga2 Ga3+ 8 f 0.2005(1) 0.3346(1) 0.4366(13) 1. 0 0.36 
Ga3 Ga3+ 4 d 0.3878(2) 0 0.3898(13) 1. 0 0.47 
Ga4 Ga3+ 4 e 0 0.2623(1) 0.4705(13) 1. 0 0.38 
O1 O2- 4 d 0.391(1) 0 0.728(3) 1. 0 0.46 
O2 O2- 4 d 0.104(1) 0 0.654(3) 1. 0 0.45 
O3 O2- 8 f 0.102(1) 0.304(1) 0.636(2) 1. 0 0.37 
O4 O2- 4 e 0 0.154(1) 0.598(3) 1. 0 0.22 
O5 O2- 8 f 0.294(1) 0.361(1) 0.657(3) 1. 0 0.64 
O6 O2- 2 b 0 0.5 0.226(5) 1. 0 0.49 
O7 O2- 8 f 0.115(1) 0.089(1) 0.150(3) 1. 0 0.66 
O8 O2- 4 e 0 0.272(1) 0.133(4) 1. 0 0.71 
O9 O2- 8 f 0.169(1) 0.415(1) 0.227(3) 1. 0 0.55 
O10 O2- 4 c 0.25 0.25 0.243(3) 1. 0 0.44 

#End of data_100356-ICSD


