data_150769-ICSD
#?2014 by Fachinformationszentrum Karlsruhe, and the U.S. Secretary of 
#Commerce on behalf of the United States.  All rights reserved.
_database_code_ICSD                150769
_audit_creation_date               2006/04/01
_chemical_name_systematic          'Tetrabarium Dialuminate'
_chemical_formula_structural       'Ba4 (Al2 O7)'
_chemical_formula_sum              'Al2 Ba4 O7'
_publ_section_title
;
Crystal structure of Ba8 (Al3 O10) (Al O4), a novel mixed-anion Ba 
aluminate related to kilchoanite
;
loop_
_citation_id
_citation_journal_abbrev
_citation_year
_citation_journal_volume
_citation_journal_issue
_citation_page_first
_citation_page_last
_citation_journal_id_ASTM
primary 'Mineralogical Magazine (1969-)' 2001 65 4 533 541 MNLMBB
_publ_author_name                  'Kahlenberg, V.'
_cell_length_a                     11.3126(5)
_cell_length_b                     11.7045(9)
_cell_length_c                     27.1850(14)
_cell_angle_alpha                  90.
_cell_angle_beta                   90.
_cell_angle_gamma                  90.
_cell_volume                       3599.52
_cell_formula_units_Z              16
_symmetry_space_group_name_H-M     'C m c a'
_symmetry_Int_Tables_number        64
_refine_ls_R_factor_all            .048
loop_
_symmetry_equiv_pos_site_id
_symmetry_equiv_pos_as_xyz
  1	'-x, -y+.5, z+.5'
  2	'-x, y+.5, -z+.5'
  3	'-x, y, z'
  4	'-x, -y, -z'
  5	'x, y+.5, -z+.5'
  6	'x, -y+.5, z+.5'
  7	'x, -y, -z'
  8	'x, y, z'
  9	'-x+.5, -y, z+.5'
 10	'-x+.5, y, -z+.5'
 11	'-x+.5, y+.5, z'
 12	'-x+.5, -y+.5, -z'
 13	'x+.5, y, -z+.5'
 14	'x+.5, -y, z+.5'
 15	'x+.5, -y+.5, -z'
 16	'x+.5, y+.5, z'
loop_
_atom_type_symbol
_atom_type_oxidation_number
Al3+	3
Ba2+	2
O2-	-2
loop_
_atom_site_label
_atom_site_type_symbol
_atom_site_symmetry_multiplicity
_atom_site_Wyckoff_symbol
_atom_site_fract_x
_atom_site_fract_y
_atom_site_fract_z
_atom_site_occupancy
_atom_site_attached_hydrogens
_atom_site_U_iso_or_equiv
O1 O2- 16 g 0.6864(11) 0.1311(9) 0.1818(5) 1. 0 0.027(3) 
O2 O2- 8 f 0 0.7497(12) 0.2664(6) 1. 0 0.022(3) 
O3 O2- 16 g 0.6221(11) 0.8971(10) 0.1691(5) 1. 0 0.028(3) 
O4 O2- 16 g 0.8628(9) 0.9394(7) 0.1839(4) 1. 0 0.015(2) 
O5 O2- 16 g 0.7520(9) 0.0091(9) 0.0942(4) 1. 0 0.017(2) 
O6 O2- 8 f 0 0.7137(14) 0.3757(7) 1. 0 0.026(4) 
O7 O2- 8 f 0 0.7527(13) 0.0761(6) 1. 0 0.024(4) 
O8 O2- 8 f 0 0.8720(14) 0.9826(7) 1. 0 0.044(6) 
O9 O2- 16 g 0.1259(9) 0.6574(10) 0.9949(8) 1. 0 0.026(6) 
Al1 Al3+ 8 f 0 0.7407(5) 0.0102(2) 1. 0 0.012(1) 
Al2 Al3+ 8 f 0 0.8045(5) 0.3255(2) 1. 0 0.010(1) 
Al3 Al3+ 16 g 0.7338(4) 0.9995(4) 0.1583(1) 1. 0 0.009(1) 
Ba1 Ba2+ 8 f 0 0.0048(1) 0.1015(1) 1. 0 0.017(1) 
Ba2 Ba2+ 8 f 0 0.0267(1) 0.2491(1) 1. 0 0.016(1) 
Ba3 Ba2+ 8 f 0 0.7571(1) 0.1686(1) 1. 0 0.015(1) 
Ba4 Ba2+ 8 d 0.7947(1) 0 0 1. 0 0.024(1) 
Ba5 Ba2+ 16 g 0.7775(1) 0.7516(1) 0.9125(1) 1. 0 0.030(1) 
Ba6 Ba2+ 8 e 0.750 0.7806(1) 0.250 1. 0 0.014(1) 
Ba7 Ba2+ 8 f 0 0.5031(1) 0.0737(1) 1. 0 0.022(1) 

loop_
_atom_site_aniso_label
_atom_site_aniso_type_symbol
_atom_site_aniso_U_11
_atom_site_aniso_U_22
_atom_site_aniso_U_33
_atom_site_aniso_U_12
_atom_site_aniso_U_13
_atom_site_aniso_U_23
O1 O2- 0.028(8) 0.019(5) 0.035(7) 0.011(5) 0.006(5) -0.001(4)
O2 O2- 0.017(9) 0.031(7) 0.018(8) 0.000 0.000 0.002(5)
O3 O2- 0.024(7) 0.030(6) 0.031(7) -0.003(5) 0.001(5) 0.006(5)
O4 O2- 0.011(6) 0.012(4) 0.023(6) 0.003(4) 0.008(4) -0.003(3)
O5 O2- 0.008(5) 0.033(5) 0.010(5) 0.002(4) -0.004(3) -0.005(4)
O6 O2- 0.021(9) 0.027(8) 0.030(9) 0.000 0.000 0.010(7)
O7 O2- 0.043(9) 0.021(7) 0.007(4) 0.000 0.000 -0.003(6)
O8 O2- 0.093(20) 0.019(8) 0.020(9) 0.000 0.000 0.004(6)
O9 O2- 0.030(9) 0.025(11) 0.022(10) 0.006(5) 0.003(2) -0.005(4)
Al1 Al3+ 0.020(4) 0.013(3) 0.008(3) 0.000 0.000 0.001(2)
Al2 Al3+ 0.009(3) 0.012(2) 0.010(3) 0.000 0.000 0.006(2)
Al3 Al3+ 0.009(2) 0.010(2) 0.008(2) 0.000(2) 0.001(1) 0.001(2)
Ba1 Ba2+ 0.0105(7) 0.0230(6) 0.0178(6) 0.0000 0.0000 0.0066(5)
Ba2 Ba2+ 0.0174(8) 0.0143(7) 0.0169(7) 0.0000 0.0000 -0.0037(4)
Ba3 Ba2+ 0.0171(7) 0.0165(6) 0.0120(7) 0. 0. 0.000(4)
Ba4 Ba2+ 0.0145(7) 0.0448(8) 0.0125(7) 0. 0. -0.004(6)
Ba5 Ba2+ 0.0301(7) 0.0182(5) 0.0403(7) 0.0052(5) 0.0127(5) 0.0067(4)
Ba6 Ba2+ 0.0113(7) 0.01553(7) 0.0137(7) 0.0000 0.0069(5) 0.0000
Ba7 Ba2+ 0.0151(8) 0.0290(7) 0.0205(7) 0.0000 0.0000 0.0070(5)
#End of data_150769-ICSD


