data_202601-ICSD
#?2014 by Fachinformationszentrum Karlsruhe, and the U.S. Secretary of 
#Commerce on behalf of the United States.  All rights reserved.
_database_code_ICSD                202601
_audit_creation_date               1989/06/19
_audit_update_record               2007/08/01
_chemical_name_systematic
;
Calcium Uranium Tetramolybdenum Oxide
;
_chemical_formula_structural       'Ca U Mo4 O16'
_chemical_formula_sum              'Ca1 Mo4 O16 U1'
_publ_section_title
;
On the structure of the series of oxides M(II) U Mo4 O16
;
loop_
_citation_id
_citation_journal_abbrev
_citation_year
_citation_journal_volume
_citation_page_first
_citation_page_last
_citation_journal_id_ASTM
primary 'Journal of Solid State Chemistry' 1988 73 577 578 JSSCBI
2 'Journal of Solid State Chemistry' 1987 67 364 368 JSSCBI
3 'Powder Diffraction' 1988 3 106 109 PODIE2
_publ_author_name                  'Marsh, R.E.'
_cell_length_a                     11.447
_cell_length_b                     6.651
_cell_length_c                     8.236
_cell_angle_alpha                  90.
_cell_angle_beta                   90.44
_cell_angle_gamma                  90.
_cell_volume                       627.02
_cell_formula_units_Z              2
_symmetry_space_group_name_H-M     'P 1 2/n 1'
_symmetry_Int_Tables_number        13
loop_
_symmetry_equiv_pos_site_id
_symmetry_equiv_pos_as_xyz
  1	'x+.5, -y, z+.5'
  2	'-x+.5, y, -z+.5'
  3	'-x, -y, -z'
  4	'x, y, z'
loop_
_atom_type_symbol
_atom_type_oxidation_number
Ca2+	2
Mo6+	6
O2-	-2
U6+	6
loop_
_atom_site_label
_atom_site_type_symbol
_atom_site_symmetry_multiplicity
_atom_site_Wyckoff_symbol
_atom_site_fract_x
_atom_site_fract_y
_atom_site_fract_z
_atom_site_occupancy
_atom_site_attached_hydrogens
U1 U6+ 2 f 0.25 0.7041 0.75 1. 0 
Ca1 Ca2+ 2 e 0.25 0.7039 0.25 1. 0 
Mo1 Mo6+ 4 g 0.5962 -.1702 0.7956 1. 0 
Mo2 Mo6+ 4 g 0.0928 0.1687 0.7958 1. 0 
O1 O2- 4 g 0.933 0.151 0.246 1. 0 
O2 O2- 4 g 0.9372 0.147 0.749 1. 0 
O3 O2- 4 g 0.096 0.151 0.504 1. 0 
O4 O2- 4 g 0.128 0.418 0.758 1. 0 
O5 O2- 4 g 0.746 0.297 0.035 1. 0 
O6 O2- 4 g 0.097 0.156 0.005 1. 0 
O7 O2- 2 e 0.25 0.072 0.25 1. 0 
O8 O2- 4 g 0.125 0.419 0.263 1. 0 
O9 O2- 2 f 0.25 0.063 0.75 1. 0 

#End of data_202601-ICSD


