data_33237-ICSD
#?2014 by Fachinformationszentrum Karlsruhe, and the U.S. Secretary of 
#Commerce on behalf of the United States.  All rights reserved.
_database_code_ICSD                33237
_audit_creation_date               1983/12/31
_chemical_name_systematic          'Barium Tetraaluminium Sulfide'
_chemical_formula_structural       'Ba Al4 S7'
_chemical_formula_sum              'Al4 Ba1 S7'
_publ_section_title
;
Zur Kenntnis von Ba Al4 S7 und Ba Ga4 S7
;
loop_
_citation_id
_citation_journal_abbrev
_citation_year
_citation_journal_volume
_citation_page_first
_citation_page_last
_citation_journal_id_ASTM
primary 'Revue de Chimie Minerale' 1983 20 329 337 RVCMA8
_publ_author_name
;
Eisenmann, B.;Jakowski, M.;Schaefer, H.
;
_cell_length_a                     14.814(4)
_cell_length_b                     6.218(2)
_cell_length_c                     5.891(2)
_cell_angle_alpha                  90.
_cell_angle_beta                   90.
_cell_angle_gamma                  90.
_cell_volume                       542.64
_cell_formula_units_Z              2
_symmetry_space_group_name_H-M     'P m n 21'
_symmetry_Int_Tables_number        31
_refine_ls_R_factor_all            .054
loop_
_symmetry_equiv_pos_site_id
_symmetry_equiv_pos_as_xyz
  1	'x+.5, -y, z+.5'
  2	'-x+.5, -y, z+.5'
  3	'-x, y, z'
  4	'x, y, z'
loop_
_atom_type_symbol
_atom_type_oxidation_number
Al3+	3
Ba2+	2
S2-	-2
loop_
_atom_site_label
_atom_site_type_symbol
_atom_site_symmetry_multiplicity
_atom_site_Wyckoff_symbol
_atom_site_fract_x
_atom_site_fract_y
_atom_site_fract_z
_atom_site_occupancy
_atom_site_attached_hydrogens
Ba1 Ba2+ 2 a 0 0.3324(3) 0 1. 0 
Al1 Al3+ 4 b 0.3808(4) 0.1732(10) 0.9119(10) 1. 0 
Al2 Al3+ 4 b 0.2517(4) 0.6861(9) 0.9278(11) 1. 0 
S1 S2- 4 b 0.1182(3) 0.8066(7) 0.0339(11) 1. 0 
S2 S2- 4 b 0.3835(3) 0.8302(7) 0.0213(11) 1. 0 
S3 S2- 4 b 0.2498(3) 0.3321(7) 0.0369(9) 1. 0 
S4 S2- 2 a 0 0.6411(9) 0.5296(17) 1. 0 

loop_
_atom_site_aniso_label
_atom_site_aniso_type_symbol
_atom_site_aniso_U_11
_atom_site_aniso_U_22
_atom_site_aniso_U_33
_atom_site_aniso_U_12
_atom_site_aniso_U_13
_atom_site_aniso_U_23
Ba1 Ba2+ 0.0254(7) 0.0184(7) 0.0295(10) 0 0 0.0028(12)
Al1 Al3+ 0.0118(23) 0.0012(20) 0.0256(28) -.0010(19) -.0018(22) -.0001(25)
Al2 Al3+ 0.011(2) 0.0028(19) 0.0216(29) -.0011(19) -.0009(20) -.0026(21)
S1 S2- 0.0158(17) 0.0173(18) 0.0099(30) 0.0033(15) 0.0003(17) -.0018(25)
S2 S2- 0.0136(15) 0.0067(14) 0.0249(33) -.0023(14) -.0035(28) 0.0089(30)
S3 S2- 0.0161(17) 0.0076(15) 0.0199(34) 0.0011(15) 0.0010(17) -.009(24)
S4 S2- 0.0136(22) 0.0068(21) 0.0160(54) 0 0 0.0009(31)
#End of data_33237-ICSD


