data_409920-ICSD
#?2014 by Fachinformationszentrum Karlsruhe, and the U.S. Secretary of 
#Commerce on behalf of the United States.  All rights reserved.
_database_code_ICSD                409920
_audit_creation_date               2008/08/01
_chemical_name_systematic
;
Pentacalcium Bis(dinitridocobaltate(I))
;
_chemical_formula_structural       'Ca5 (Co N2)2'
_chemical_formula_sum              'Ca5 Co2 N4'
_publ_section_title
;
Crystal structure of pentacalcium bis(dinitridocobaltate(I)), Ca5 (Co 
N2)2, and a note on "Ca3 Co N3"
;
loop_
_citation_id
_citation_journal_abbrev
_citation_year
_citation_journal_volume
_citation_journal_issue
_citation_page_first
_citation_page_last
_citation_journal_id_ASTM
primary 'Zeitschrift fuer Kristallographie - New Crystal Structures'
 2007 222 3 165 166 ZKNSFT
_publ_author_name                  'Bendyna, J.K.;Hoehn, P.;Kniep, R.'
_cell_length_a                     8.07670(10)
_cell_length_b                     8.07670(10)
_cell_length_c                     12.14011(16)
_cell_angle_alpha                  90.
_cell_angle_beta                   90.
_cell_angle_gamma                  90.
_cell_volume                       791.94
_cell_formula_units_Z              4
_symmetry_space_group_name_H-M     'P 4/n c c Z'
_symmetry_Int_Tables_number        130
_refine_ls_R_factor_all            .062
loop_
_symmetry_equiv_pos_site_id
_symmetry_equiv_pos_as_xyz
  1	'y+.5, x+.5, -z+.5'
  2	'-y, x+.5, -z'
  3	'y+.5, -x, -z'
  4	'-y, -x, -z+.5'
  5	'x+.5, y+.5, -z'
  6	'-x, y+.5, -z+.5'
  7	'x+.5, -y, -z+.5'
  8	'-x, -y, -z'
  9	'-y+.5, -x+.5, z+.5'
 10	'y, -x+.5, z'
 11	'-y+.5, x, z'
 12	'y, x, z+.5'
 13	'-x+.5, -y+.5, z'
 14	'x, -y+.5, z+.5'
 15	'-x+.5, y, z+.5'
 16	'x, y, z'
loop_
_atom_type_symbol
_atom_type_oxidation_number
Ca2+	2
Co1+	1
N3-	-3
loop_
_atom_site_label
_atom_site_type_symbol
_atom_site_symmetry_multiplicity
_atom_site_Wyckoff_symbol
_atom_site_fract_x
_atom_site_fract_y
_atom_site_fract_z
_atom_site_occupancy
_atom_site_attached_hydrogens
_atom_site_U_iso_or_equiv
Ca1 Ca2+ 4 c 0.25000 0.25000 0.1492(2) 1 0 0.0045(8) 
Ca2 Ca2+ 16 g 0.07705(14) 0.63323(14) 0.09398(9) 1 0 0.0078(6) 
Co1 Co1+ 8 f 0.40829(16) 0.59171(16) 0.25000 1 0 0.0059(6) 
N1 N3- 16 g 0.5508(4) 0.1379(4) 0.1057(3) 1 0 0.01166 

#End of data_409920-ICSD


