data_184742-ICSD
#?2014 by Fachinformationszentrum Karlsruhe, and the U.S. Secretary of 
#Commerce on behalf of the United States.  All rights reserved.
_database_code_ICSD                184742
_audit_creation_date               2012/08/01
_audit_update_record               2013/08/01
_chemical_name_systematic
;
Potassium Molybdenum Oxide Selenate(IV) Hydrate (4/5/15/2/2)
;
_chemical_formula_structural       'K4 Mo5 O15 (Se O3)2 (H2 O)2'
_chemical_formula_sum              'H4 K4 Mo5 O23 Se2'
_publ_section_title
;
Syntheses, crystal structures and SHG properties of a series of polar 
alkali-metal molybdenum(VI) selenites based on strandberg-type (Mo5 
O15 (Se O3)2)4- polyanion
;
loop_
_citation_id
_citation_journal_abbrev
_citation_year
_citation_journal_volume
_citation_page_first
_citation_page_last
_citation_journal_id_ASTM
primary 'Dalton Transactions' 2012 41 5687 5695 DTARAF
_publ_author_name
;
Kong Fang;Hu Chunli;Xu Xiang;Zhou Tianhua;Mao Jianggao
;
_cell_length_a                     19.221(9)
_cell_length_b                     10.078(4)
_cell_length_c                     11.832(6)
_cell_angle_alpha                  90.
_cell_angle_beta                   106.593(6)
_cell_angle_gamma                  90.
_cell_volume                       2196.52
_cell_formula_units_Z              4
_symmetry_space_group_name_H-M     'C 1 2 1'
_symmetry_Int_Tables_number        5
_refine_ls_R_factor_all            .0307
loop_
_symmetry_equiv_pos_site_id
_symmetry_equiv_pos_as_xyz
  1	'-x, y, -z'
  2	'x, y, z'
  3	'-x+.5, y+.5, -z'
  4	'x+.5, y+.5, z'
loop_
_atom_type_symbol
_atom_type_oxidation_number
H1+	1
K1+	1
Mo6+	6
O2-	-2
Se4+	4
loop_
_atom_site_label
_atom_site_type_symbol
_atom_site_symmetry_multiplicity
_atom_site_Wyckoff_symbol
_atom_site_fract_x
_atom_site_fract_y
_atom_site_fract_z
_atom_site_occupancy
_atom_site_attached_hydrogens
_atom_site_U_iso_or_equiv
Se1 Se4+ 4 c 0.50887(3) 0.52818(7) 0.82621(5) 1 0 0.01183(12) 
Se2 Se4+ 4 c 0.48035(3) 0.80044(7) 0.66745(5) 1 0 0.01270(13) 
Mo1 Mo6+ 2 a 0.5000 0.81264(8) 1.0000 1 0 0.01317(16) 
Mo2 Mo6+ 4 c 0.35152(3) 0.61429(6) 0.89701(5) 1 0 0.01404(12) 
Mo3 Mo6+ 4 c 0.39981(3) 0.29820(5) 0.96149(5) 1 0 0.01249(11) 
Mo4 Mo6+ 4 c 0.35390(3) 0.71243(6) 0.37949(5) 1 0 0.01510(12) 
Mo5 Mo6+ 4 c 0.39939(3) 1.03338(6) 0.44499(5) 1 0 0.01409(12) 
Mo6 Mo6+ 2 b 0.5000 0.51457(8) 0.5000 1 0 0.01380(17) 
K1 K1+ 4 c 0.32297(10) 0.34568(19) 0.22810(18) 1 0 0.0382(4) 
K2 K1+ 4 c 0.49078(9) 1.1553(2) 0.75257(18) 1 0 0.0343(4) 
K3 K1+ 4 c 0.17977(9) 0.43610(18) 0.90603(15) 1 0 0.0277(4) 
K4 K1+ 4 c 0.31635(9) 0.3915(2) 0.59720(16) 1 0 0.0322(4) 
O1 O2- 4 c 0.2308(3) 0.3407(6) 0.3721(5) 1 0 0.0472(16) 
H1 H1+ 4 c 0.2110 0.2664 0.3689 1 0 0.057 
H2 H1+ 4 c 0.1985 0.3985 0.3508 1 0 0.057 
O2 O2- 4 c 0.5586(2) 0.3918(5) 0.8526(4) 1 0 0.0156(10) 
O3 O2- 4 c 0.2055(4) 0.4900(6) 0.1420(5) 1 0 0.073(3) 
H3 H1+ 4 c 0.1709 0.4545 0.1596 1 0 0.110 
H4 H1+ 4 c 0.2124 0.5662 0.1709 1 0 0.110 
O4 O2- 4 c 0.5573(2) 0.6383(5) 0.9290(4) 1 0 0.0132(9) 
O5 O2- 4 c 0.4394(2) 0.4808(5) 0.8841(4) 1 0 0.0153(10) 
O6 O2- 4 c 0.4293(2) 0.9369(5) 0.6304(4) 1 0 0.0172(10) 
O7 O2- 4 c 0.4392(2) 0.6893(5) 0.5593(4) 1 0 0.0172(10) 
O8 O2- 4 c 0.5562(2) 0.8463(5) 0.6277(4) 1 0 0.0173(10) 
O9 O2- 4 c 0.3321(2) 0.4416(5) 0.9534(4) 1 0 0.0175(10) 
O10 O2- 4 c 0.4178(2) 0.7529(5) 0.8764(4) 1 0 0.0161(10) 
O11 O2- 4 c 0.3668(2) 0.1854(5) 1.0409(4) 1 0 0.0203(11) 
O12 O2- 4 c 0.2930(3) 0.7062(6) 0.9507(4) 1 0 0.0233(11) 
O13 O2- 4 c 0.4224(2) 0.5709(5) 0.3679(4) 1 0 0.0169(10) 
O14 O2- 4 c 0.2956(3) 0.6267(6) 0.4364(5) 1 0 0.0275(12) 
O15 O2- 4 c 0.3713(2) 0.2376(5) 0.8197(4) 1 0 0.0209(11) 
O16 O2- 4 c 0.3314(2) 0.8905(5) 0.4241(4) 1 0 0.0175(10) 
O17 O2- 2 b 0.5000 1.0773(7) 0.5000 1 0 0.0161(15) 
O18 O2- 4 c 0.3810(3) 1.0965(5) 0.3037(4) 1 0 0.0229(11) 
O19 O2- 4 c 0.4573(3) 0.4086(5) 0.5730(5) 1 0 0.0244(12) 
O20 O2- 4 c 0.4631(3) 0.9183(5) 1.0814(4) 1 0 0.0202(11) 
O21 O2- 4 c 0.3060(3) 0.5973(6) 0.7508(4) 1 0 0.0277(12) 
O22 O2- 4 c 0.3109(3) 0.7193(6) 0.2327(4) 1 0 0.0281(12) 
O23 O2- 4 c 0.3614(3) 1.1489(5) 0.5147(5) 1 0 0.0249(11) 
O24 O2- 2 a 0.5000 0.2466(7) 1.0000 1 0 0.0149(14) 

loop_
_atom_site_aniso_label
_atom_site_aniso_type_symbol
_atom_site_aniso_U_11
_atom_site_aniso_U_22
_atom_site_aniso_U_33
_atom_site_aniso_U_12
_atom_site_aniso_U_13
_atom_site_aniso_U_23
Se1 Se4+ 0.0138(3) 0.0115(3) 0.0106(3) 0.0002(2) 0.0040(2) 0.0009(2)
Se2 Se4+ 0.0146(3) 0.0134(3) 0.0105(3) -0.0006(2) 0.0042(2) 0.0003(3)
Mo1 Mo6+ 0.0123(4) 0.0126(4) 0.0146(4) 0.000 0.0037(3) 0.000
Mo2 Mo6+ 0.0105(2) 0.0132(3) 0.0173(3) 0.0009(2) 0.0022(2) 0.0009(2)
Mo3 Mo6+ 0.0127(2) 0.0108(3) 0.0140(3) -0.0015(2) 0.00375(19) -0.0006(2)
Mo4 Mo6+ 0.0128(3) 0.0145(3) 0.0172(3) -0.0005(2) 0.0029(2) -0.0007(2)
Mo5 Mo6+ 0.0127(3) 0.0126(3) 0.0168(3) 0.0013(2) 0.0040(2) 0.0006(2)
Mo6 Mo6+ 0.0147(4) 0.0120(4) 0.0149(4) 0.000 0.0046(3) 0.000
K1 K1+ 0.0280(9) 0.0453(11) 0.0441(11) 0.0036(7) 0.0149(8) -0.0004(9)
K2 K1+ 0.0274(9) 0.0314(9) 0.0464(10) -0.0058(7) 0.0145(7) -0.0221(7)
K3 K1+ 0.0231(8) 0.0270(9) 0.0339(10) 0.0021(7) 0.0095(7) 0.0018(7)
K4 K1+ 0.0238(8) 0.0419(12) 0.0322(10) 0.0009(8) 0.0098(7) -0.0068(8)
O1 O2- 0.063(4) 0.044(4) 0.043(4) -0.013(3) 0.030(3) -0.014(3)
O2 O2- 0.063(4) 0.044(4) 0.043(4) -0.013(3) 0.030(3) -0.014(3)
O3 O2- 0.116(7) 0.037(4) 0.043(4) 0.045(4) -0.015(4) -0.010(3)
O4 O2- 0.116(7) 0.037(4) 0.043(4) 0.045(4) -0.015(4) -0.010(3)
O5 O2- 0.008(2) 0.016(3) 0.024(2) 0.0029(17) 0.0072(18) 0.0057(19)
O6 O2- 0.018(2) 0.016(3) 0.018(2) 0.0073(18) 0.0060(19) 0.0014(19)
O7 O2- 0.020(2) 0.013(3) 0.016(2) 0.000(2) 0.0013(18) -0.0040(19)
O8 O2- 0.021(2) 0.013(3) 0.019(2) -0.0022(19) 0.009(2) 0.0014(19)
O9 O2- 0.010(2) 0.016(2) 0.027(3) -0.0024(18) 0.0064(19) -0.001(2)
O10 O2- 0.014(2) 0.015(3) 0.018(2) 0.0011(18) 0.0030(18) 0.0035(18)
O11 O2- 0.021(2) 0.018(3) 0.024(3) -0.003(2) 0.011(2) 0.003(2)
O12 O2- 0.021(3) 0.021(3) 0.031(3) 0.005(2) 0.012(2) 0.000(2)
O13 O2- 0.018(2) 0.016(3) 0.015(2) 0.0034(17) 0.0040(19) -0.0016(18)
O14 O2- 0.020(2) 0.024(3) 0.040(3) -0.002(2) 0.010(2) -0.002(3)
O15 O2- 0.021(2) 0.020(3) 0.021(2) -0.007(2) 0.0053(19) -0.010(2)
O16 O2- 0.012(2) 0.016(2) 0.024(3) -0.0013(18) 0.0039(18) -0.002(2)
O17 O2- 0.014(3) 0.017(4) 0.017(3) 0.000 0.002(3) 0.000
O18 O2- 0.022(2) 0.028(3) 0.017(2) -0.002(2) 0.0033(19) 0.005(2)
O19 O2- 0.027(3) 0.021(3) 0.026(3) -0.003(2) 0.010(2) 0.001(2)
O20 O2- 0.023(3) 0.015(3) 0.024(3) 0.005(2) 0.008(2) 0.003(2)
O21 O2- 0.027(3) 0.030(3) 0.021(3) -0.005(2) -0.002(2) -0.001(2)
O22 O2- 0.030(3) 0.031(3) 0.017(2) 0.003(2) -0.001(2) -0.002(2)
O23 O2- 0.027(3) 0.014(3) 0.038(3) 0.004(2) 0.016(2) -0.002(2)
O24 O2- 0.013(3) 0.010(4) 0.022(4) 0.000 0.007(3) 0.000
#End of data_184742-ICSD


