data_33546-ICSD
#?2014 by Fachinformationszentrum Karlsruhe, and the U.S. Secretary of 
#Commerce on behalf of the United States.  All rights reserved.
_database_code_ICSD                33546
_audit_creation_date               1980/01/01
_audit_update_record               2005/10/01
_chemical_name_systematic          'Potassium Catena-antimonate'
_chemical_formula_structural       'K (Sb O3)'
_chemical_formula_sum              'K1 O3 Sb1'
_publ_section_title
;
X-ray studies on potassium antimonates
;
loop_
_citation_id
_citation_journal_abbrev
_citation_year
_citation_journal_volume
_citation_journal_issue
_citation_page_first
_citation_page_last
_citation_journal_id_ASTM
primary 'Arkiv foer Kemi, Mineralogi och Geologi, A' 1940 14 5 1 12 ARKGAJ
2 'Phase Transition' 1992 38- 127 220 PHTRDP
_publ_author_name                  'Spiegelberg, P.'
_cell_length_a                     6.828
_cell_length_b                     6.828
_cell_length_c                     6.828
_cell_angle_alpha                  46.33
_cell_angle_beta                   46.33
_cell_angle_gamma                  46.33
_cell_volume                       152.03
_cell_formula_units_Z              2
_symmetry_space_group_name_H-M     'R -3 R'
_symmetry_Int_Tables_number        148
loop_
_symmetry_equiv_pos_site_id
_symmetry_equiv_pos_as_xyz
  1	'-z, -x, -y'
  2	'-y, -z, -x'
  3	'-x, -y, -z'
  4	'z, x, y'
  5	'y, z, x'
  6	'x, y, z'
loop_
_atom_type_symbol
_atom_type_oxidation_number
K1+	1
O2-	-2
Sb5+	5
loop_
_atom_site_label
_atom_site_type_symbol
_atom_site_symmetry_multiplicity
_atom_site_Wyckoff_symbol
_atom_site_fract_x
_atom_site_fract_y
_atom_site_fract_z
_atom_site_occupancy
_atom_site_attached_hydrogens
K1 K1+ 2 c 0.356 0.356 0.356 1. 0 
Sb1 Sb5+ 2 c 0.161 0.161 0.161 1. 0 
O1 O2- 6 f 0.52 -.09 0.23 1. 0 

#End of data_33546-ICSD


