data_413149-ICSD
#?2014 by Fachinformationszentrum Karlsruhe, and the U.S. Secretary of 
#Commerce on behalf of the United States.  All rights reserved.
_database_code_ICSD                413149
_audit_creation_date               2004/04/01
_audit_update_record               2010/08/01
_chemical_name_systematic          'Potassium Arsenate(III)'
_chemical_formula_structural       'K (As O2)'
_chemical_formula_sum              'As1 K1 O2'
_publ_section_title
;
Die neuen Oxoarsenate(III) A As O2 (A= Na, K, Rb) und Cs3 As5 O9. 
Darstellung, Kristallstrukturen und Raman-Spektren
;
loop_
_citation_id
_citation_journal_abbrev
_citation_year
_citation_journal_volume
_citation_page_first
_citation_page_last
_citation_journal_id_ASTM
primary 'Zeitschrift fuer Naturforschung, B: Chemical Sciences'
 2003 58 620 626 ZNBSEN
_publ_author_name                  'Emmerling, F.;Roehr, C.'
_cell_length_a                     7.1513(16)
_cell_length_b                     7.4804(12)
_cell_length_c                     5.3920(17)
_cell_angle_alpha                  90.
_cell_angle_beta                   90.
_cell_angle_gamma                  90.
_cell_volume                       288.44
_cell_formula_units_Z              4
_symmetry_space_group_name_H-M     'P b c m'
_symmetry_Int_Tables_number        57
_refine_ls_R_factor_all            .0308
loop_
_symmetry_equiv_pos_site_id
_symmetry_equiv_pos_as_xyz
  1	'x, -y+.5, z+.5'
  2	'-x, y+.5, z'
  3	'x, y, -z+.5'
  4	'-x, -y, -z'
  5	'-x, y+.5, -z+.5'
  6	'x, -y+.5, -z'
  7	'-x, -y, z+.5'
  8	'x, y, z'
loop_
_atom_type_symbol
_atom_type_oxidation_number
As3+	3
K1+	1
O2-	-2
loop_
_atom_site_label
_atom_site_type_symbol
_atom_site_symmetry_multiplicity
_atom_site_Wyckoff_symbol
_atom_site_fract_x
_atom_site_fract_y
_atom_site_fract_z
_atom_site_occupancy
_atom_site_attached_hydrogens
_atom_site_U_iso_or_equiv
As1 As3+ 4 d 0.14339(12) 0.87423(10) 0.25 1. 0 0.0117(3) 
K1 K1+ 4 d 0.3654(3) 0.4028(2) 0.25 1. 0 0.0163(5) 
O1 O2- 4 d 0.2826(8) 0.0573(7) 0.25 1. 0 0.0168(13) 
O2 O2- 4 c 0.2623(8) 0.75 0 1. 0 0.0167(13) 

loop_
_atom_site_aniso_label
_atom_site_aniso_type_symbol
_atom_site_aniso_U_11
_atom_site_aniso_U_22
_atom_site_aniso_U_33
_atom_site_aniso_U_12
_atom_site_aniso_U_13
_atom_site_aniso_U_23
As1 As3+ 0.0141(5) 0.0099(5) 0.0112(5) 0.0006(3) 0 0
K1 K1+ 0.0212(9) 0.0126(9) 0.0151(10) -0.0015(7) 0 0
O1 O2- 0.023(3) 0.011(3) 0.017(3) -0.006(3) 0 0
O2 O2- 0.016(3) 0.019(3) 0.015(3) 0 0 -0.008(3)
#End of data_413149-ICSD


