data_262971-ICSD
#?2014 by Fachinformationszentrum Karlsruhe, and the U.S. Secretary of 
#Commerce on behalf of the United States.  All rights reserved.
_database_code_ICSD                262971
_audit_creation_date               2013/02/01
_chemical_name_systematic          'Potassium Aluminium Dioxide'
_chemical_formula_structural       'K Al O2'
_chemical_formula_sum              'Al1 K1 O2'
_publ_section_title
;
The natural tiling approach to cation conductivity in K Al O2 
polymorphs
;
loop_
_citation_id
_citation_journal_abbrev
_citation_year
_citation_journal_volume
_citation_journal_issue
_citation_page_first
_citation_page_last
_citation_journal_id_ASTM
primary 'Acta Crystallographica, Section B: Structural Science'
 2012 68 4 356 363 ASBSDK
_publ_author_name
;
Voronin, V.I.;Shekhtman, G.Sh.;Blatov, V.A.
;
_cell_length_a                     5.4788(5)
_cell_length_b                     11.0123(11)
_cell_length_c                     15.5359(18)
_cell_angle_alpha                  90.00000
_cell_angle_beta                   90.00000
_cell_angle_gamma                  90.00000
_cell_volume                       937.35
_cell_formula_units_Z              16
_symmetry_space_group_name_H-M     'P b c a'
_symmetry_Int_Tables_number        61
_refine_ls_R_factor_all            .047
loop_
_symmetry_equiv_pos_site_id
_symmetry_equiv_pos_as_xyz
  1	'x+.5, y, -z+.5'
  2	'x, -y+.5, z+.5'
  3	'-x+.5, y+.5, z'
  4	'-x, -y, -z'
  5	'-x+.5, -y, z+.5'
  6	'-x, y+.5, -z+.5'
  7	'x+.5, -y+.5, -z'
  8	'x, y, z'
loop_
_atom_type_symbol
_atom_type_oxidation_number
Al3+	3
K1+	1
O2-	-2
loop_
_atom_site_label
_atom_site_type_symbol
_atom_site_symmetry_multiplicity
_atom_site_Wyckoff_symbol
_atom_site_fract_x
_atom_site_fract_y
_atom_site_fract_z
_atom_site_occupancy
_atom_site_attached_hydrogens
_atom_site_U_iso_or_equiv
Al1 Al3+ 8 c 0.255(2) 0.0106(14) 0.1849(12) 1.00000 0 0.0164(13) 
Al2 Al3+ 8 c 0.2783(19) 0.2600(12) 0.0632(12) 1.00000 0 0.0164(13) 
K1 K1+ 8 c 0.749(3) 0.0045(15) 0.067(2) 1.00000 0 0.054(12) 
K2 K1+ 8 c 0.774(2) 0.2593(12) 0.1897(14) 1.00000 0 0.030(8) 
O1 O2- 8 c 0.5622(19) 0.2773(11) 0.0163(6) 1.00000 0 0.042(5) 
O2 O2- 8 c 0.1872(18) 0.3957(9) 0.1095(6) 1.00000 0 0.029(4) 
O3 O2- 8 c 0.2938(16) 0.1493(10) 0.1444(7) 1.00000 0 0.042(6) 
O4 O2- 8 c 0.048(2) 0.4878(10) 0.2750(9) 1.00000 0 0.043(8) 

loop_
_atom_site_aniso_label
_atom_site_aniso_type_symbol
_atom_site_aniso_U_11
_atom_site_aniso_U_22
_atom_site_aniso_U_33
_atom_site_aniso_U_12
_atom_site_aniso_U_13
_atom_site_aniso_U_23
K1 K1+ 0.022(5) 0.031(6) 0.11(2) 0.00000 0.024(14) 0.00000
K2 K1+ 0.022(5) 0.031(6) 0.038(13) 0.00000 -0.010(6) 0.00000
O1 O2- 0.028(4) 0.074(8) 0.025(6) 0.00000 0.0003(4) 0.00000
O2 O2- 0.0053(11) 0.021(5) 0.061(7) 0.00000 -0.006(5) 0.00000
O3 O2- 0.0138(17) 0.056(7) 0.057(8) 0.00000 -0.008(5) 0.00000
O4 O2- 0.021(5) 0.068(10) 0.040(8) 0.00000 0.013(5) 0.00000
#End of data_262971-ICSD


