data_249339-ICSD
#?2014 by Fachinformationszentrum Karlsruhe, and the U.S. Secretary of 
#Commerce on behalf of the United States.  All rights reserved.
_database_code_ICSD                249339
_audit_creation_date               2008/02/01
_chemical_name_systematic
;
Dirubidium Dicalcium Tris(sulfate(VI))
;
_chemical_formula_structural       'Rb2 Ca2 (S O4)3'
_chemical_formula_sum              'Ca2 O12 Rb2 S3'
_publ_section_title                'Langbeinite-type Rb2 Ca2 (S O4)3'
loop_
_citation_id
_citation_journal_abbrev
_citation_year
_citation_journal_volume
_citation_journal_issue
_citation_page_first
_citation_page_last
_citation_journal_id_ASTM
primary 'Acta Crystallographica, Section E. Structure Reports Online'
 2007 63 7 i157 i157 ACSEBH
_publ_author_name                  'Boujelben, M.;Toumi, M.;Mhiri, T.'
_cell_length_a                     10.553(3)
_cell_length_b                     10.553(3)
_cell_length_c                     10.553(3)
_cell_angle_alpha                  90
_cell_angle_beta                   90
_cell_angle_gamma                  90
_cell_volume                       1175.24
_cell_formula_units_Z              4
_symmetry_space_group_name_H-M     'P 21 3'
_symmetry_Int_Tables_number        198
_refine_ls_R_factor_all            .065
loop_
_symmetry_equiv_pos_site_id
_symmetry_equiv_pos_as_xyz
  1	'-z+.5, -x, y+.5'
  2	'-y+.5, -z, x+.5'
  3	'-x+.5, -y, z+.5'
  4	'-z, x+.5, -y+.5'
  5	'-y, z+.5, -x+.5'
  6	'-x, y+.5, -z+.5'
  7	'z+.5, -x+.5, -y'
  8	'y+.5, -z+.5, -x'
  9	'x+.5, -y+.5, -z'
 10	'z, x, y'
 11	'y, z, x'
 12	'x, y, z'
loop_
_atom_type_symbol
_atom_type_oxidation_number
Ca2+	2
O2-	-2
Rb1+	1
S6+	6
loop_
_atom_site_label
_atom_site_type_symbol
_atom_site_symmetry_multiplicity
_atom_site_Wyckoff_symbol
_atom_site_fract_x
_atom_site_fract_y
_atom_site_fract_z
_atom_site_occupancy
_atom_site_attached_hydrogens
_atom_site_U_iso_or_equiv
Ca1 Ca2+ 4 a 0.3314(2) 0.3314(2) 0.3314(2) 1 0 0.0170(9) 
Ca2 Ca2+ 4 a 0.5920(2) 0.5920(2) 0.5920(2) 1 0 0.0170(9) 
Rb1 Rb1+ 4 a 0.81628(13) 0.81628(13) 0.81628(13) 1 0 0.0270(5) 
Rb2 Rb1+ 4 a 0.04991(13) 0.04991(13) 0.04991(13) 1 0 0.0291(6) 
S1 S6+ 12 b 0.2243(3) 0.3749(3) 0.0108(3) 1 0 0.0136(6) 
O1 O2- 12 b 0.3089(9) 0.2795(8) 0.9600(9) 1 0 0.032(2) 
O2 O2- 12 b 0.0954(8) 0.3285(10) 0.0046(10) 1 0 0.039(3) 
O3 O2- 12 b 0.2364(10) 0.4880(10) 0.9326(11) 1 0 0.043(3) 
O4 O2- 12 b 0.2580(10) 0.4059(11) 0.1420(9) 1 0 0.044(3) 

loop_
_atom_site_aniso_label
_atom_site_aniso_type_symbol
_atom_site_aniso_U_11
_atom_site_aniso_U_22
_atom_site_aniso_U_33
_atom_site_aniso_U_12
_atom_site_aniso_U_13
_atom_site_aniso_U_23
Ca1 Ca2+ 0.0170(9) 0.0170(9) 0.0170(9) -0.0002(10) -0.0002(10) -0.0002(10)
Ca2 Ca2+ 0.0170(9) 0.0170(9) 0.0170(9) -0.0004(10) -0.0004(10) -0.0004(10)
Rb1 Rb1+ 0.0270(5) 0.0270(5) 0.0270(5) -0.0023(6) -0.0023(6) -0.0023(6)
Rb2 Rb1+ 0.0291(6) 0.0291(6) 0.0291(6) 0.0012(6) 0.0012(6) 0.0012(6)
S1 S6+ 0.0156(15) 0.0120(13) 0.0131(15) 0.0031(11) 0.0003(11) 0.0015(10)
O1 O2- 0.034(5) 0.023(5) 0.039(6) 0.011(4) 0.012(5) -0.006(4)
O2 O2- 0.015(5) 0.037(6) 0.064(7) -0.007(4) 0.011(5) -0.016(6)
O3 O2- 0.059(7) 0.030(6) 0.041(6) 0.015(5) 0.008(5) 0.023(5)
O4 O2- 0.060(8) 0.047(7) 0.026(6) -0.003(6) -0.009(5) -0.011(5)
#End of data_249339-ICSD


