data_280275-ICSD
#?2014 by Fachinformationszentrum Karlsruhe, and the U.S. Secretary of 
#Commerce on behalf of the United States.  All rights reserved.
_database_code_ICSD                280275
_audit_creation_date               2001/07/16
_chemical_name_systematic          'Dicesium Dialumodiphosphate(V)'
_chemical_formula_structural       'Cs2 Al2 P2 O9'
_chemical_formula_sum              'Al2 Cs2 O9 P2'
_publ_section_title
;
Cs2 Al2 P2 O9: an exception to Loewenstein's rule. Synthesis and 
characterization of a novel layered aluminophosphate containing 
linear Al-O-Al linkages
;
loop_
_citation_id
_citation_journal_abbrev
_citation_year
_citation_journal_volume
_citation_page_first
_citation_page_last
_citation_journal_id_ASTM
primary 'ChemComm - Chemical Communications' 1999 1999 2343 2344 CHCOFS
_publ_author_name                  'Huang, Q.;Hwu, S.-J.'
_cell_length_a                     4.925(2)
_cell_length_b                     7.121(2)
_cell_length_c                     8.066(2)
_cell_angle_alpha                  96.51(2)
_cell_angle_beta                   107.12(2)
_cell_angle_gamma                  108.68(2)
_cell_volume                       249.28
_cell_formula_units_Z              1
_symmetry_space_group_name_H-M     'P -1'
_symmetry_Int_Tables_number        2
_refine_ls_R_factor_all            .0242
loop_
_symmetry_equiv_pos_site_id
_symmetry_equiv_pos_as_xyz
  1	'-x, -y, -z'
  2	'x, y, z'
loop_
_atom_type_symbol
_atom_type_oxidation_number
Al3+	3
Cs1+	1
O2-	-2
P5+	5
loop_
_atom_site_label
_atom_site_type_symbol
_atom_site_symmetry_multiplicity
_atom_site_Wyckoff_symbol
_atom_site_fract_x
_atom_site_fract_y
_atom_site_fract_z
_atom_site_occupancy
_atom_site_attached_hydrogens
Cs1 Cs1+ 2 i 0.2283(1) 0.7940(1) 0.6504(1) 1. 0 
P1 P5+ 2 i -.3882(2) 0.3504(1) 0.7732(1) 1. 0 
Al1 Al3+ 2 i -.1493(2) 0.7646(1) 0.0330(1) 1. 0 
O1 O2- 2 i -.9036(6) 0.6995(4) 0.2020(3) 1. 0 
O2 O2- 2 i -.7186(6) 0.4153(4) 0.1697(3) 1. 0 
O3 O2- 2 i -.5261(6) 0.2572(4) 0.9082(3) 1. 0 
O4 O2- 2 i -.6027(6) 0.2676(4) 0.5863(3) 1. 0 
O5 O2- 1 a 0 0 0 1. 0 

loop_
_atom_site_aniso_label
_atom_site_aniso_type_symbol
_atom_site_aniso_U_11
_atom_site_aniso_U_22
_atom_site_aniso_U_33
_atom_site_aniso_U_12
_atom_site_aniso_U_13
_atom_site_aniso_U_23
Cs1 Cs1+ 0.022(1) 0.023(1) 0.021(1) 0.008(1) 0.006(1) 0.004(1)
P1 P5+ 0.009(1) 0.009(1) 0.010(1) 0.003(1) 0.003(1) 0.001(1)
Al1 Al3+ 0.011(1) 0.006(1) 0.014(1) 0.003(1) 0.007(1) 0.004(1)
O1 O2- 0.015(1) 0.026(1) 0.020(1) 0.013(1) 0.010(1) 0.011(1)
O2 O2- 0.030(1) 0.009(1) 0.016(1) 0.006(1) 0.008(1) 0.003(1)
O3 O2- 0.015(1) 0.021(1) 0.023(1) 0.009(1) 0.012(1) 0.012(1)
O4 O2- 0.018(1) 0.027(1) 0.013(1) 0.007(1) -.002(1) -.001(1)
O5 O2- 0.027(2) 0.011(2) 0.040(2) 0.007(1) 0.020(2) 0.014(2)
#End of data_280275-ICSD


