data_73327-ICSD
#?2014 by Fachinformationszentrum Karlsruhe, and the U.S. Secretary of 
#Commerce on behalf of the United States.  All rights reserved.
_database_code_ICSD                73327
_audit_creation_date               1994/01/19
_chemical_name_systematic          'Potassium Tetraselenoniobate'
_chemical_formula_structural       'K3 (Nb Se4)'
_chemical_formula_sum              'K3 Nb1 Se4'
_publ_section_title
;
Syntheses and structures of K3MQ4(M=Nb,Ta;Q=S,Se)
;
loop_
_citation_id
_citation_journal_abbrev
_citation_year
_citation_journal_volume
_citation_page_first
_citation_page_last
_citation_journal_id_ASTM
primary 'Inorganic Chemistry' 1990 29 1503 1505 INOCAJ
_publ_author_name                  'Latroche, M.;Ibers, J.A.'
_cell_length_a                     9.599(2)
_cell_length_b                     11.042(3)
_cell_length_c                     9.660(2)
_cell_angle_alpha                  90.
_cell_angle_beta                   90.
_cell_angle_gamma                  90.
_cell_volume                       1023.88
_cell_formula_units_Z              4
_symmetry_space_group_name_H-M     'P n m a'
_symmetry_Int_Tables_number        62
_refine_ls_R_factor_all            .069
loop_
_symmetry_equiv_pos_site_id
_symmetry_equiv_pos_as_xyz
  1	'x+.5, y, -z+.5'
  2	'x, -y+.5, z'
  3	'-x+.5, y+.5, z+.5'
  4	'-x, -y, -z'
  5	'-x+.5, -y, z+.5'
  6	'-x, y+.5, -z'
  7	'x+.5, -y+.5, -z+.5'
  8	'x, y, z'
loop_
_atom_type_symbol
_atom_type_oxidation_number
K1+	1
Nb5+	5
Se2-	-2
loop_
_atom_site_label
_atom_site_type_symbol
_atom_site_symmetry_multiplicity
_atom_site_Wyckoff_symbol
_atom_site_fract_x
_atom_site_fract_y
_atom_site_fract_z
_atom_site_occupancy
_atom_site_attached_hydrogens
_atom_site_B_iso_or_equiv
Nb1 Nb5+ 4 c 0.21235(9) 0.75 0.51540(9) 1. 0 0.59(7) 
K1 K1+ 8 d 0.05567(16) 0.45339(14) 0.29262(17) 1. 0 1.06(3) 
K2 K1+ 4 c 0.13112(26) 0.75 0.08898(27) 1. 0 1.54(5) 
Se1 Se2- 4 c 0.98315(10) 0.75 0.41523(11) 1. 0 0.90(2) 
Se2 Se2- 4 c 0.19123(11) 0.75 0.76164(11) 1. 0 0.88(2) 
Se3 Se2- 8 d 0.33399(8) 0.57095(7) 0.44699(9) 1. 0 1.16(1) 

#End of data_73327-ICSD


