data_74937-ICSD
#?2014 by Fachinformationszentrum Karlsruhe, and the U.S. Secretary of 
#Commerce on behalf of the United States.  All rights reserved.
_database_code_ICSD                74937
_audit_creation_date               1995/10/17
_chemical_name_systematic          'Silver Phyllo-molybdophosphate *'
_chemical_formula_structural       'Ag (Mo3 P2 O14)'
_chemical_formula_sum              'Ag1 Mo3 O14 P2'
_publ_section_title
;
New mixed-valent molybdenum monophosphates with the KMo3P2O14 
structure
;
loop_
_citation_id
_citation_journal_abbrev
_citation_year
_citation_journal_volume
_citation_page_first
_citation_page_last
_citation_journal_id_ASTM
primary 'Zeitschrift fuer Anorganische und Allgemeine Chemie (1950) (DE)'
 1994 620 569 573 ZAACAB
_publ_author_name
;
Borel, M.M.;Guesdon, A.;Leclaire, A.;Grandin, A.;Raveau, B.
;
_cell_length_a                     8.174(1)
_cell_length_b                     6.392(1)
_cell_length_c                     10.550(1)
_cell_angle_alpha                  90.
_cell_angle_beta                   111.66(1)
_cell_angle_gamma                  90.
_cell_volume                       512.3
_cell_formula_units_Z              2
_symmetry_space_group_name_H-M     'P 1 21/m 1'
_symmetry_Int_Tables_number        11
_refine_ls_R_factor_all            .026
loop_
_symmetry_equiv_pos_site_id
_symmetry_equiv_pos_as_xyz
  1	'x, -y+.5, z'
  2	'-x, -y, -z'
  3	'-x, y+.5, -z'
  4	'x, y, z'
loop_
_atom_type_symbol
_atom_type_oxidation_number
Ag1+	1
Mo5+	5
Mo6+	6
O2-	-2
P5+	5
loop_
_atom_site_label
_atom_site_type_symbol
_atom_site_symmetry_multiplicity
_atom_site_Wyckoff_symbol
_atom_site_fract_x
_atom_site_fract_y
_atom_site_fract_z
_atom_site_occupancy
_atom_site_attached_hydrogens
_atom_site_B_iso_or_equiv
Mo1 Mo5+ 2 e 0.24667(6) 0.25 0.00951(5) 1. 0 0.505(7) 
Mo2 Mo6+ 2 e 0.26239(6) 0.25 0.33002(5) 1. 0 0.479(6) 
Mo3 Mo6+ 2 e 0.83041(6) 0.25 0.37756(5) 1. 0 0.628(7) 
P1 P5+ 2 e 0.8443(2) 0.25 0.0618(1) 1. 0 0.52(2) 
P2 P5+ 2 e 0.1202(3) 0.75 0.3002(1) 1. 0 0.54(2) 
Ag1 Ag1+ 2 e 0.49748(7) 0.75 0.25652(6) 1. 0 1.700(9) 
O1 O2- 2 e 0.4030(6) 0.25 -.0565(5) 1. 0 1.32(8) 
O2 O2- 2 e 0.0356(6) 0.25 0.8342(4) 1. 0 1.23(8) 
O3 O2- 4 f 0.2297(4) 0.5602(5) 0.0300(3) 1. 0 1.02(5) 
O4 O2- 2 e 0.3731(5) 0.25 0.2039(4) 1. 0 0.63(6) 
O5 O2- 2 e 0.0459(5) 0.25 0.1155(4) 1. 0 0.79(7) 
O6 O2- 2 e 0.4363(5) 0.25 0.4770(4) 1. 0 0.93(7) 
O7 O2- 2 e 0.0711(5) 0.25 0.3862(4) 1. 0 0.88(7) 
O8 O2- 4 f 0.2403(4) 0.5613(4) 0.3100(3) 1. 0 0.91(5) 
O9 O2- 4 f 0.7066(4) 0.0337(6) 0.3683(3) 1. 0 1.47(6) 
O10 O2- 2 e 0.7767(5) 0.25 0.1769(4) 1. 0 1.43(8) 
O11 O2- 2 e 0.9474(5) 0.25 0.5827(4) 1. 0 1.17(8) 

#End of data_74937-ICSD


