data_34278-ICSD
#?2014 by Fachinformationszentrum Karlsruhe, and the U.S. Secretary of 
#Commerce on behalf of the United States.  All rights reserved.
_database_code_ICSD                34278
_audit_creation_date               1980/01/01
_audit_update_record               1984/11/02
_chemical_name_systematic
;
Scandium Aluminium Oxide - Prepared At 1273 K And 120 Kbar
;
_chemical_formula_structural       'Sc Al O3'
_chemical_formula_sum              'Al1 O3 Sc1'
_publ_section_title
;
High-pressure modification of Sc Al O3 and some geophysical 
implications
;
loop_
_citation_id
_citation_journal_abbrev
_citation_year
_citation_journal_volume
_citation_page_first
_citation_page_last
_citation_journal_id_ASTM
primary 'JGR. Journal of Geophysical Research' 1975 80 3363 3370 JGREA2
_publ_author_name                  'Reid, A.F.;Ringwood, A.E.'
_cell_length_a                     4.933(3)
_cell_length_b                     5.226(3)
_cell_length_c                     7.193(5)
_cell_angle_alpha                  90.
_cell_angle_beta                   90.
_cell_angle_gamma                  90.
_cell_volume                       185.43
_cell_formula_units_Z              4
_symmetry_space_group_name_H-M     'P b n m'
_symmetry_Int_Tables_number        62
_refine_ls_R_factor_all            .115
loop_
_symmetry_equiv_pos_site_id
_symmetry_equiv_pos_as_xyz
  1	'-x+.5, y+.5, z'
  2	'x, y, -z+.5'
  3	'x+.5, -y+.5, z+.5'
  4	'-x, -y, -z'
  5	'x+.5, -y+.5, -z'
  6	'-x, -y, z+.5'
  7	'-x+.5, y+.5, -z+.5'
  8	'x, y, z'
loop_
_atom_type_symbol
_atom_type_oxidation_number
Al3+	3
O2-	-2
Sc3+	3
loop_
_atom_site_label
_atom_site_type_symbol
_atom_site_symmetry_multiplicity
_atom_site_Wyckoff_symbol
_atom_site_fract_x
_atom_site_fract_y
_atom_site_fract_z
_atom_site_occupancy
_atom_site_attached_hydrogens
_atom_site_B_iso_or_equiv
Sc1 Sc3+ 4 c 0.974(4) 0.072(4) 0.25 1. 0 0.4 
Al1 Al3+ 4 b 0 0.5 0 1. 0 0.4 
O1 O2- 4 c 0.133(11) 0.446(12) 0.25 1. 0 0.4 
O2 O2- 8 d 0.691(8) 0.312(9) 0.075 1. 0 0.4 

#End of data_34278-ICSD


