data_91679-ICSD
#?2014 by Fachinformationszentrum Karlsruhe, and the U.S. Secretary of 
#Commerce on behalf of the United States.  All rights reserved.
_database_code_ICSD                91679
_audit_creation_date               2002/10/01
_audit_update_record               2010/08/01
_chemical_name_systematic          'Aluminium Phosphate(V) - 53'
_chemical_formula_structural       'Al (P O4)'
_chemical_formula_sum              'Al1 O4 P1'
_chemical_name_mineral             'Zeolite AlPO-53'
_publ_section_title
;
The structures of as-synthesized Al P O4 - 53(A), calcined dehydrated 
Al P O4 - 53(B), and Al P O4 - 53(C), a new phase determined by the 
FOCUS method
;
loop_
_citation_id
_citation_journal_abbrev
_citation_year
_citation_journal_volume
_citation_page_first
_citation_page_last
_citation_journal_id_ASTM
primary 'Microporous and Mesoporous Materials' 2000 39 319 332 MIMMFJ
_publ_author_name
;
Kirchner, R.M.;Grosse-Kunstleve, R.W.;Pluth, J.J.;Wilson, 
S.T.;Broach, R.W.;Smith, J.V.
;
_cell_length_a                     18.02411(13)
_cell_length_b                     13.91737(9)
_cell_length_c                     9.65536(6)
_cell_angle_alpha                  90.
_cell_angle_beta                   90.
_cell_angle_gamma                  90.
_cell_volume                       2422.03
_cell_formula_units_Z              24
_symmetry_space_group_name_H-M     'P b c a'
_symmetry_Int_Tables_number        61
_refine_ls_R_factor_all            .084
loop_
_symmetry_equiv_pos_site_id
_symmetry_equiv_pos_as_xyz
  1	'x+.5, y, -z+.5'
  2	'x, -y+.5, z+.5'
  3	'-x+.5, y+.5, z'
  4	'-x, -y, -z'
  5	'-x+.5, -y, z+.5'
  6	'-x, y+.5, -z+.5'
  7	'x+.5, -y+.5, -z'
  8	'x, y, z'
loop_
_atom_type_symbol
_atom_type_oxidation_number
Al3+	3
O2-	-2
P5+	5
loop_
_atom_site_label
_atom_site_type_symbol
_atom_site_symmetry_multiplicity
_atom_site_Wyckoff_symbol
_atom_site_fract_x
_atom_site_fract_y
_atom_site_fract_z
_atom_site_occupancy
_atom_site_attached_hydrogens
_atom_site_U_iso_or_equiv
P1 P5+ 8 c 0.0817(3) 0.0743(4) 0.1300(4) 1. 0 0.0151(7) 
P2 P5+ 8 c 0.1787(3) 0.0391(3) 0.6620(5) 1. 0 0.0151(7) 
P3 P5+ 8 c 0.3039(3) 0.2461(3) 0.4090(4) 1. 0 0.0151(7) 
Al1 Al3+ 8 c 0.4099(3) 0.0698(4) 0.3731(4) 1. 0 0.0063(7) 
Al2 Al3+ 8 c 0.3228(3) 0.0340(3) 0.8461(5) 1. 0 0.0063(7) 
Al3 Al3+ 8 c 0.2022(3) 0.2440(3) 0.1631(5) 1. 0 0.0063(7) 
O1 O2- 8 c 0.1380(6) 0.1552(7) 0.1179(10) 1. 0 0.0248(7) 
O2 O2- 8 c 0.0021(9) 0.1024(4) 0.1315(7) 1. 0 0.0248(7) 
O3 O2- 8 c 0.1005(6) 0.0169(7) 0.2672(10) 1. 0 0.0248(7) 
O4 O2- 8 c 0.1044(4) 0.0093(8) 0.0093(13) 1. 0 0.0248(7) 
O5 O2- 8 c 0.1111(5) -.0181(7) 0.7155(11) 1. 0 0.0248(7) 
O6 O2- 8 c 0.2481(9) 0.0129(5) 0.7370(12) 1. 0 0.0248(7) 
O7 O2- 8 c 0.1606(6) 0.1472(7) 0.6621(10) 1. 0 0.0248(7) 
O8 O2- 8 c 0.1897(4) 0.0099(8) 0.5056(12) 1. 0 0.0248(7) 
O9 O2- 8 c 0.3362(6) 0.3412(7) 0.3501(10) 1. 0 0.0248(7) 
O10 O2- 8 c 0.2780(5) 0.2646(7) 0.5602(9) 1. 0 0.0248(7) 
O11 O2- 8 c 0.3669(6) 0.1724(7) 0.4028(9) 1. 0 0.0248(7) 
O12 O2- 8 c 0.2357(5) 0.2199(6) 0.3292(10) 1. 0 0.0248(7) 

#End of data_91679-ICSD


