data_95814-ICSD
#?2014 by Fachinformationszentrum Karlsruhe, and the U.S. Secretary of 
#Commerce on behalf of the United States.  All rights reserved.
_database_code_ICSD                95814
_audit_creation_date               2004/04/01
_chemical_name_systematic          'Tricalcium Dinitridoborate Nitride'
_chemical_formula_structural       'Ca3 (B N2) N'
_chemical_formula_sum              'B1 Ca3 N3'
_publ_section_title
;
Ca3 (B N2) N - eine fehlende Verbindung im quasi-binaeren System Ca3 
N2 - B N
;
loop_
_citation_id
_citation_journal_abbrev
_citation_year
_citation_journal_volume
_citation_page_first
_citation_page_last
_citation_journal_id_ASTM
primary 'Zeitschrift fuer Anorganische und Allgemeine Chemie (1950) (DE)'
 2002 628 1959 1962 ZAACAB
_publ_author_name
;
Haeberlen, M.;Glaser, J.;Meyer, H.J.
;
_cell_length_a                     3.5494(1)
_cell_length_b                     3.5494(1)
_cell_length_c                     8.2136(3)
_cell_angle_alpha                  90
_cell_angle_beta                   90
_cell_angle_gamma                  90
_cell_volume                       103.48
_cell_formula_units_Z              1
_symmetry_space_group_name_H-M     'P 4/m m m'
_symmetry_Int_Tables_number        123
_refine_ls_R_factor_all            .0561
loop_
_symmetry_equiv_pos_site_id
_symmetry_equiv_pos_as_xyz
  1	'y, x, -z'
  2	'-y, -x, -z'
  3	'-y, x, -z'
  4	'y, -x, -z'
  5	'-x, y, -z'
  6	'x, -y, -z'
  7	'x, y, -z'
  8	'-x, -y, -z'
  9	'-y, -x, z'
 10	'y, x, z'
 11	'y, -x, z'
 12	'-y, x, z'
 13	'x, -y, z'
 14	'-x, y, z'
 15	'-x, -y, z'
 16	'x, y, z'
loop_
_atom_type_symbol
_atom_type_oxidation_number
B3+	3
Ca2+	2
N3-	-3
loop_
_atom_site_label
_atom_site_type_symbol
_atom_site_symmetry_multiplicity
_atom_site_Wyckoff_symbol
_atom_site_fract_x
_atom_site_fract_y
_atom_site_fract_z
_atom_site_occupancy
_atom_site_attached_hydrogens
_atom_site_B_iso_or_equiv
Ca1 Ca2+ 2 h 0.5 0.5 0.2778(1) 1. 0 1.02(4) 
Ca2 Ca2+ 1 a 0 0 0 1. 0 1.00(5) 
B1 B3+ 1 b 0 0 0.5 1. 0 0.2(2) 
N1 N3- 2 g 0 0 0.3354(4) 1. 0 0.86(9) 
N2 N3- 1 c 0.5 0.5 0 1. 0 0.9(1) 

#End of data_95814-ICSD


