data_77539-ICSD
#?2014 by Fachinformationszentrum Karlsruhe, and the U.S. Secretary of 
#Commerce on behalf of the United States.  All rights reserved.
_database_code_ICSD                77539
_audit_creation_date               2003/04/01
_chemical_name_systematic          'Dialuminium Silicate Oxide'
_chemical_formula_structural       'Al2 (Si O4) O'
_chemical_formula_sum              'Al2 O5 Si1'
_chemical_name_mineral             Kyanite
_publ_section_title
;
High-pressure behavior of kyanite: Compressibility and structural 
deformations
;
loop_
_citation_id
_citation_journal_abbrev
_citation_year
_citation_journal_volume
_citation_page_first
_citation_page_last
_citation_journal_id_ASTM
primary 'American Mineralogist' 1997 82 452 459 AMMIAY
_publ_author_name
;
Comodi, P.;Zanazzi, P.F.;Poli, S.;Schmidt, M.W.
;
_cell_length_a                     7.117(5)
_cell_length_b                     7.860(3)
_cell_length_c                     5.575(2)
_cell_angle_alpha                  90.02(3)
_cell_angle_beta                   101.02(5)
_cell_angle_gamma                  106.06(5)
_cell_volume                       293.7
_cell_formula_units_Z              4
_symmetry_space_group_name_H-M     'P -1'
_symmetry_Int_Tables_number        2
_refine_ls_R_factor_all            .082
loop_
_symmetry_equiv_pos_site_id
_symmetry_equiv_pos_as_xyz
  1	'-x, -y, -z'
  2	'x, y, z'
loop_
_atom_type_symbol
_atom_type_oxidation_number
Al3+	3
O2-	-2
Si4+	4
loop_
_atom_site_label
_atom_site_type_symbol
_atom_site_symmetry_multiplicity
_atom_site_Wyckoff_symbol
_atom_site_fract_x
_atom_site_fract_y
_atom_site_fract_z
_atom_site_occupancy
_atom_site_attached_hydrogens
_atom_site_U_iso_or_equiv
Si1 Si4+ 2 i 0.297(1) 0.0651(5) 0.7070(7) 1. 0 0.0052(8) 
Si2 Si4+ 2 i 0.292(2) 0.3321(5) 0.1893(7) 1. 0 0.0053(8) 
Al1 Al3+ 2 i 0.323(2) 0.7038(5) 0.4582(7) 1. 0 0.006(1) 
Al2 Al3+ 2 i 0.298(2) 0.6991(5) 0.9501(7) 1. 0 0.0061(9) 
Al3 Al3+ 2 i 0.101(2) 0.3856(6) 0.6409(7) 1. 0 0.0052(9) 
Al4 Al3+ 2 i 0.111(2) 0.9170(5) 0.1648(8) 1. 0 0.0053(9) 
O1 O2- 2 i 0.104(4) 0.146(1) 0.128(2) 1. 0 0.01(2) 
O2 O2- 2 i 0.130(5) 0.686(1) 0.184(2) 1. 0 0.003(2) 
O3 O2- 2 i 0.272(3) 0.454(1) 0.954(1) 1. 0 0.004(2) 
O4 O2- 2 i 0.282(4) 0.935(1) 0.934(2) 1. 0 0.006(2) 
O5 O2- 2 i 0.106(5) 0.150(1) 0.664(2) 1. 0 0.004(2) 
O6 O2- 2 i 0.119(4) 0.629(1) 0.637(2) 1. 0 0.005(2) 
O7 O2- 2 i 0.284(4) 0.445(1) 0.429(2) 1. 0 0.009(2) 
O8 O2- 2 i 0.292(3) 0.948(1) 0.463(1) 1. 0 0.005(2) 
O9 O2- 2 i 0.499(4) 0.277(1) 0.245(2) 1. 0 0.008(2) 
O10 O2- 2 i 0.494(6) 0.231(2) 0.753(2) 1. 0 0.005(2) 

#End of data_77539-ICSD


