data_16702-ICSD
#?2014 by Fachinformationszentrum Karlsruhe, and the U.S. Secretary of 
#Commerce on behalf of the United States.  All rights reserved.
_database_code_ICSD                16702
_audit_creation_date               1980/01/01
_audit_update_record               2010/02/01
_chemical_name_systematic
;
Dipotassium Dimagnesium Tris(sulfate(VI))
;
_chemical_formula_structural       'K2 Mg2 (S O4)3'
_chemical_formula_sum              'K2 Mg2 O12 S3'
_publ_section_title
;
Die Kristallstruktur von Langbeinit, K2 Mg2 (S O4)3
;
loop_
_citation_id
_citation_journal_abbrev
_citation_year
_citation_journal_volume
_citation_page_first
_citation_page_last
_citation_journal_id_ASTM
primary 'Acta Crystallographica (1,1948-23,1967)' 1957 10 409 413 ACCRA9
_publ_author_name                  'Zemann, A.;Zemann, J.'
_cell_length_a                     9.920(4)
_cell_length_b                     9.920(4)
_cell_length_c                     9.920(4)
_cell_angle_alpha                  90.
_cell_angle_beta                   90.
_cell_angle_gamma                  90.
_cell_volume                       976.19
_cell_formula_units_Z              4
_symmetry_space_group_name_H-M     'P 21 3'
_symmetry_Int_Tables_number        198
_refine_ls_R_factor_all            .148
loop_
_symmetry_equiv_pos_site_id
_symmetry_equiv_pos_as_xyz
  1	'-z+.5, -x, y+.5'
  2	'-y+.5, -z, x+.5'
  3	'-x+.5, -y, z+.5'
  4	'-z, x+.5, -y+.5'
  5	'-y, z+.5, -x+.5'
  6	'-x, y+.5, -z+.5'
  7	'z+.5, -x+.5, -y'
  8	'y+.5, -z+.5, -x'
  9	'x+.5, -y+.5, -z'
 10	'z, x, y'
 11	'y, z, x'
 12	'x, y, z'
loop_
_atom_type_symbol
_atom_type_oxidation_number
K1+	1
Mg2+	2
O2-	-2
S6+	6
loop_
_atom_site_label
_atom_site_type_symbol
_atom_site_symmetry_multiplicity
_atom_site_Wyckoff_symbol
_atom_site_fract_x
_atom_site_fract_y
_atom_site_fract_z
_atom_site_occupancy
_atom_site_attached_hydrogens
K1 K1+ 4 a 0.568 0.568 0.568 1. 0 
K2 K1+ 4 a 0.797 0.797 0.797 1. 0 
Mg1 Mg2+ 4 a 0.084 0.084 0.084 1. 0 
Mg2 Mg2+ 4 a 0.35 0.35 0.35 1. 0 
S1 S6+ 12 b 0.033 0.268 0.375 1. 0 
O1 O2- 12 b 0.012 0.196 0.246 1. 0 
O2 O2- 12 b 0.173 0.258 0.427 1. 0 
O3 O2- 12 b 0.021 0.057 0.713 1. 0 
O4 O2- 12 b 0.002 0.412 0.349 1. 0 

#End of data_16702-ICSD


