data_240893-ICSD
#?2014 by Fachinformationszentrum Karlsruhe, and the U.S. Secretary of 
#Commerce on behalf of the United States.  All rights reserved.
_database_code_ICSD                240893
_audit_creation_date               2008/08/01
_chemical_name_systematic          'Magnesium Sulfate(VI) - Beta, Ht'
_chemical_formula_structural       'Mg (S O4)'
_chemical_formula_sum              'Mg1 O4 S1'
_publ_section_title
;
The high-temperature modification of magnesium sulfate (beta - Mg S 
O4) from single-crystal data
;
loop_
_citation_id
_citation_journal_abbrev
_citation_year
_citation_journal_volume
_citation_journal_issue
_citation_page_first
_citation_page_last
_citation_journal_id_ASTM
primary 'Acta Crystallographica, Section E. Structure Reports Online'
 2007 63 8 i172 i172 ACSEBH
_publ_author_name                  'Weil, M.'
_cell_length_a                     8.5787(8)
_cell_length_b                     6.6953(6)
_cell_length_c                     4.7438(5)
_cell_angle_alpha                  90.00
_cell_angle_beta                   90.00
_cell_angle_gamma                  90.00
_cell_volume                       272.47
_cell_formula_units_Z              4
_symmetry_space_group_name_H-M     'P n m a'
_symmetry_Int_Tables_number        62
_refine_ls_R_factor_all            .017
loop_
_symmetry_equiv_pos_site_id
_symmetry_equiv_pos_as_xyz
  1	'x+.5, y, -z+.5'
  2	'x, -y+.5, z'
  3	'-x+.5, y+.5, z+.5'
  4	'-x, -y, -z'
  5	'-x+.5, -y, z+.5'
  6	'-x, y+.5, -z'
  7	'x+.5, -y+.5, -z+.5'
  8	'x, y, z'
loop_
_atom_type_symbol
_atom_type_oxidation_number
Mg2+	2
O2-	-2
S6+	6
loop_
_atom_site_label
_atom_site_type_symbol
_atom_site_symmetry_multiplicity
_atom_site_Wyckoff_symbol
_atom_site_fract_x
_atom_site_fract_y
_atom_site_fract_z
_atom_site_occupancy
_atom_site_attached_hydrogens
_atom_site_U_iso_or_equiv
Mg1 Mg2+ 4 a 0.0000 0.0000 0.0000 1 0 0.01046(10) 
S1 S6+ 4 c 0.32046(3) 0.2500 0.02598(5) 1 0 0.00547(8) 
O1 O2- 8 d 0.37429(7) 0.06895(9) 0.16526(13) 1 0 0.01011(12) 
O2 O2- 4 c 0.14650(10) 0.2500 0.03881(18) 1 0 0.00824(14) 
O3 O2- 4 c 0.37517(10) 0.2500 0.73002(17) 1 0 0.00961(15) 

loop_
_atom_site_aniso_label
_atom_site_aniso_type_symbol
_atom_site_aniso_U_11
_atom_site_aniso_U_22
_atom_site_aniso_U_33
_atom_site_aniso_U_12
_atom_site_aniso_U_13
_atom_site_aniso_U_23
Mg1 Mg2+ 0.01031(18) 0.00964(18) 0.01143(19) -0.00266(14) 0.00449(13) 
-0.00363(13)
S1 S6+ 0.00485(11) 0.00647(11) 0.00508(11) 0.000 -0.00029(7) 0.000
O1 O2- 0.0113(3) 0.0090(2) 0.0101(2) 0.00216(19) -0.00221(19) 0.00243(18)
O2 O2- 0.0047(3) 0.0088(3) 0.0112(3) 0.000 0.0004(2) 0.000
O3 O2- 0.0108(4) 0.0121(3) 0.0059(3) 0.000 0.0020(3) 0.000
#End of data_240893-ICSD


