data_62219-ICSD
#?2014 by Fachinformationszentrum Karlsruhe, and the U.S. Secretary of 
#Commerce on behalf of the United States.  All rights reserved.
_database_code_ICSD                62219
_audit_creation_date               1988/07/15
_chemical_name_systematic          'Calcium Molybdate'
_chemical_formula_structural       'Ca Mo O4'
_chemical_formula_sum              'Ca1 Mo1 O4'
_publ_section_title
;
Neutron Powder Diffraction Profile Refinement Studies on CaMoO4. A 
Comparison with Single-Crystal Data
;
loop_
_citation_id
_citation_journal_abbrev
_citation_year
_citation_journal_volume
_citation_page_first
_citation_page_last
_citation_journal_id_ASTM
primary 'Acta Chemica Scandinavica, Series A: (28,1974-)'
 1987 41 358 360 ACAPCT
_publ_author_name                  'Wandahl, G.;Christensen, A.N.'
_cell_length_a                     5.2235(1)
_cell_length_b                     5.2235(1)
_cell_length_c                     11.4298(4)
_cell_angle_alpha                  90.
_cell_angle_beta                   90.
_cell_angle_gamma                  90.
_cell_volume                       311.86
_cell_formula_units_Z              4
_symmetry_space_group_name_H-M     'I 41/a S'
_symmetry_Int_Tables_number        88
_refine_ls_R_factor_all            .0714
loop_
_symmetry_equiv_pos_site_id
_symmetry_equiv_pos_as_xyz
  1	'y, -x+.5, z+.25'
  2	'-y, x+.5, z+.25'
  3	'y, -x, -z'
  4	'-y, x, -z'
  5	'-x, -y+.5, -z+.25'
  6	'x, y+.5, -z+.25'
  7	'-x, -y, z'
  8	'x, y, z'
  9	'y+.5, -x, z+.75'
 10	'-y+.5, x, z+.75'
 11	'y+.5, -x+.5, -z+.5'
 12	'-y+.5, x+.5, -z+.5'
 13	'-x+.5, -y, -z+.75'
 14	'x+.5, y, -z+.75'
 15	'-x+.5, -y+.5, z+.5'
 16	'x+.5, y+.5, z+.5'
loop_
_atom_type_symbol
_atom_type_oxidation_number
Ca2+	2
Mo6+	6
O2-	-2
loop_
_atom_site_label
_atom_site_type_symbol
_atom_site_symmetry_multiplicity
_atom_site_Wyckoff_symbol
_atom_site_fract_x
_atom_site_fract_y
_atom_site_fract_z
_atom_site_occupancy
_atom_site_attached_hydrogens
_atom_site_B_iso_or_equiv
Ca1 Ca2+ 4 b 0 0 0.5 1. 0 0.819(67) 
Mo1 Mo6+ 4 a 0 0 0 1. 0 0.496(47) 
O1 O2- 16 f 0.2436(4) 0.1490(3) 0.0842(2) 1. 0 0.778(27) 

#End of data_62219-ICSD


