data_174288-ICSD
#?2014 by Fachinformationszentrum Karlsruhe, and the U.S. Secretary of 
#Commerce on behalf of the United States.  All rights reserved.
_database_code_ICSD                174288
_audit_creation_date               2010/08/01
_audit_update_record               2013/02/01
_chemical_name_systematic
;
Trisilver Dicobalt Antimony(V) Oxide
;
_chemical_formula_structural       'Ag3 (Co2 Sb O6)'
_chemical_formula_sum              'Ag3 Co2 O6 Sb1'
_publ_section_title
;
Mixed oxides of sodium, antimony (5+) and divalent metals (Ni, Co, Zn 
or Mg)
;
loop_
_citation_id
_citation_journal_abbrev
_citation_year
_citation_journal_volume
_citation_journal_issue
_citation_page_first
_citation_page_last
_citation_journal_id_ASTM
primary 'Journal of Solid State Chemistry' 2010 183 3 684 691 JSSCBI
_publ_author_name
;
Politaev, V.V.;Nalbandyan, V.B.;Petrenko, A.A.;Shukaev, 
I.L.;Volochaev, V.A.;Medvedev, B.S.
;
_cell_length_a                     5.3842(2)
_cell_length_b                     5.3842(2)
_cell_length_c                     18.6613(10)
_cell_angle_alpha                  90.
_cell_angle_beta                   90.
_cell_angle_gamma                  120.
_cell_volume                       468.51
_cell_formula_units_Z              3
_symmetry_space_group_name_H-M     'P 31 1 2'
_symmetry_Int_Tables_number        151
_refine_ls_R_factor_all            .0422
loop_
_symmetry_equiv_pos_site_id
_symmetry_equiv_pos_as_xyz
  1	'-x+y, y, -z+.3333'
  2	'-y, -x, -z+.6667'
  3	'x, x-y, -z'
  4	'-x+y, -x, z+.6667'
  5	'-y, x-y, z+.3333'
  6	'x, y, z'
loop_
_atom_type_symbol
_atom_type_oxidation_number
Ag1+	1
Co2+	2
O2-	-2
Sb5+	5
loop_
_atom_site_label
_atom_site_type_symbol
_atom_site_symmetry_multiplicity
_atom_site_Wyckoff_symbol
_atom_site_fract_x
_atom_site_fract_y
_atom_site_fract_z
_atom_site_occupancy
_atom_site_attached_hydrogens
_atom_site_U_iso_or_equiv
Sb1 Sb5+ 3 a 0.4579(6) 0.2290(3) 0 1. 0 0.027(3) 
Co1 Co2+ 3 a 0.1177(6) 0.5588(3) 0 1. 0 0.021(9) 
Co2 Co2+ 3 a 0.7801(8) 0.8900(4) 0 1. 0 0.0032(5) 
Ag1 Ag1+ 3 b 0.1080(7) -0.1080(7) -0.1667 1. 0 0.0050(7) 
Ag2 Ag1+ 3 b 0.7762(8) 0.2238(8) -0.1667 1. 0 0.026(3) 
Ag3 Ag1+ 3 b 0.4546(4) -0.4546(4) -0.1667 1. 0 0.016(3) 
O1 O2- 6 c 0.1318(11) 0.2272(8) 0.06101(6) 1. 0 0.0010(4) 
O2 O2- 6 c 0.7828(13) 0.5272(9) 0.06054(7) 1. 0 0.0021(9) 
O3 O2- 6 c 0.4460(9) 0.9135(9) 0.06126(6) 1. 0 0.0015(6) 

#End of data_174288-ICSD


