data_171795-ICSD
#?2014 by Fachinformationszentrum Karlsruhe, and the U.S. Secretary of 
#Commerce on behalf of the United States.  All rights reserved.
_database_code_ICSD                171795
_audit_creation_date               2006/10/01
_audit_update_record               2007/08/01
_chemical_name_systematic          'Calcium Titanium Oxide Germanate'
_chemical_formula_structural       'Ca Ti O (Ge O4)'
_chemical_formula_sum              'Ca1 Ge1 O5 Ti1'
_publ_section_title
;
A high-temperature diffraction study of the solid solution Ca Ti O Si 
O4 - Ca Ti O Ge O4
;
loop_
_citation_id
_citation_journal_abbrev
_citation_year
_citation_journal_volume
_citation_page_first
_citation_page_last
_citation_journal_id_ASTM
primary 'American Mineralogist' 2005 90 1325 1334 AMMIAY
2 'Golden Book of Phase Transitions, Wroclaw' 2002 1 1 123 GBOPT5
_publ_author_name                  'Ellemann-Olesen, R.;Malcherek, T.'
_cell_length_a                     7.158(1)
_cell_length_b                     8.885(1)
_cell_length_c                     6.649(1)
_cell_angle_alpha                  90
_cell_angle_beta                   113.834(1)
_cell_angle_gamma                  90
_cell_volume                       386.81
_cell_formula_units_Z              4
_symmetry_space_group_name_H-M     'P 1 21/a 1'
_symmetry_Int_Tables_number        14
_refine_ls_R_factor_all            .0252
loop_
_symmetry_equiv_pos_site_id
_symmetry_equiv_pos_as_xyz
  1	'x+.5, -y+.5, z'
  2	'-x, -y, -z'
  3	'-x+.5, y+.5, -z'
  4	'x, y, z'
loop_
_atom_type_symbol
_atom_type_oxidation_number
Ca2+	2
Ge4+	4
O2-	-2
Ti4+	4
loop_
_atom_site_label
_atom_site_type_symbol
_atom_site_symmetry_multiplicity
_atom_site_Wyckoff_symbol
_atom_site_fract_x
_atom_site_fract_y
_atom_site_fract_z
_atom_site_occupancy
_atom_site_attached_hydrogens
Ca1 Ca2+ 4 e 0.2428(1) 0.4215(1) 0.2503(1) 1. 0 
Ti1 Ti4+ 4 e 0.5161(1) 0.2545(1) 0.7492(1) 1. 0 
Ge1 Ge4+ 4 e 0.7478(1) 0.4334(1) 0.2487(1) 1. 0 
O1 O2- 4 e 0.7498(2) 0.3179(2) 0.7507(2) 1. 0 
O2 O2- 4 e 0.9190(2) 0.3097(2) 0.4385(2) 1. 0 
O3 O2- 4 e 0.0772(2) 0.1902(2) 0.0578(2) 1. 0 
O4 O2- 4 e 0.3926(2) 0.4576(2) 0.6422(2) 1. 0 
O5 O2- 4 e 0.6095(2) 0.0441(2) 0.8567(2) 1. 0 

loop_
_atom_site_aniso_label
_atom_site_aniso_type_symbol
_atom_site_aniso_U_11
_atom_site_aniso_U_22
_atom_site_aniso_U_33
_atom_site_aniso_U_12
_atom_site_aniso_U_13
_atom_site_aniso_U_23
Ca1 Ca2+ 0.0158(2) 0.0071(1) 0.0066(2) .0005(1) 0.0014(1) 0.00001(7)
Ti1 Ti4+ 0.0047(1) 0.0056(6) 0.0041(1) 0.0002(6) 0.0021(9) -0.0002(7)
Ge1 Ge4+ 0.0049(9) 0.0055(1) 0.0039(1) -0.00004(3) 0.0022(6) -0.00006(4)
O1 O2- 0.0051(4) 0.0074(4) 0.0096(5) -0.0005(2) 0.0035(4) -0.0001(3)
O2 O2- 0.0103(4) 0.0095(4) 0.0057(4) 0.0029(3) 0.0018(4) 0.0018(3)
O3 O2- 0.0094(4) 0.0100(4) 0.0056(4) 0.0028(3) 0.0024(3) 0.0021(3)
O4 O2- 0.0085(4) 0.0072(4) 0.0082(4) 0.0023(3) 0.0052(4) 0.0007(3)
O5 O2- 0.0084(4) 0.0072(4) 0.0078(4) 0.0021(3) 0.0050(4) 0.0006(3)
#End of data_171795-ICSD


