data_62097-ICSD
#?2014 by Fachinformationszentrum Karlsruhe, and the U.S. Secretary of 
#Commerce on behalf of the United States.  All rights reserved.
_database_code_ICSD                62097
_audit_creation_date               1988/02/22
_chemical_name_systematic
;
Tripotassium Tetracyano Fluoro Tungstate(IV)
;
_chemical_formula_structural       'K3 W O F (C N)4'
_chemical_formula_sum              'C4 F1 K3 N4 O1 W1'
_publ_section_title
;
Kinetics and mechanism of fluoride ion substitution in trans-
dioxotetracyanotungstate(IV)-ions and the crystal structure of 
K3WoF(CN)4
;
loop_
_citation_id
_citation_journal_abbrev
_citation_year
_citation_journal_volume
_citation_page_first
_citation_page_last
_citation_journal_id_ASTM
primary 'South African Journal of Chemistry' 1986 39 179 183 SAJCDG
_publ_author_name
;
Leipoldt, J.G.;Basson, S.S.;Roodt, A.;Potgieter, I.M.
;
_cell_length_a                     7.952(5)
_cell_length_b                     8.138(4)
_cell_length_c                     8.567(3)
_cell_angle_alpha                  94.45(3)
_cell_angle_beta                   100.92(4)
_cell_angle_gamma                  92.53(4)
_cell_volume                       541.74
_cell_formula_units_Z              2
_symmetry_space_group_name_H-M     'P -1'
_symmetry_Int_Tables_number        2
_refine_ls_R_factor_all            .042
loop_
_symmetry_equiv_pos_site_id
_symmetry_equiv_pos_as_xyz
  1	'-x, -y, -z'
  2	'x, y, z'
loop_
_atom_type_symbol
_atom_type_oxidation_number
C2+	2
F1-	-1
K1+	1
N3-	-3
O2-	-2
W4+	4
loop_
_atom_site_label
_atom_site_type_symbol
_atom_site_symmetry_multiplicity
_atom_site_Wyckoff_symbol
_atom_site_fract_x
_atom_site_fract_y
_atom_site_fract_z
_atom_site_occupancy
_atom_site_attached_hydrogens
W1 W4+ 2 i 0.25529(8) 0.25045(7) 0.27471(8) 1. 0 
O1 O2- 2 i 0.3473(12) 0.3152(13) 0.4759(12) 1. 0 
F1 F1- 2 i 0.1489(10) 0.177(1) 0.0457(9) 1. 0 
C1 C2+ 2 i 0.0229(20) 0.3713(17) 0.2824(17) 1. 0 
C2 C2+ 2 i 0.3474(19) 0.4695(19) 0.1862(19) 1. 0 
C3 C2+ 2 i 0.4708(20) 0.1185(19) 0.2286(19) 1. 0 
C4 C2+ 2 i 0.1358(19) 0.0192(21) 0.3188(19) 1. 0 
N1 N3- 2 i -.1030(18) 0.4374(18) 0.2837(18) 1. 0 
N2 N3- 2 i 0.3904(19) 0.5937(18) 0.1487(18) 1. 0 
N3 N3- 2 i 0.5889(18) 0.0445(18) 0.2089(17) 1. 0 
N4 N3- 2 i 0.0734(19) -.1096(18) 0.3266(17) 1. 0 
K1 K1+ 2 i 0.7137(5) 0.3275(5) 0.5091(5) 1. 0 
K2 K1+ 2 i 0.2625(5) 0.2666(5) 0.7790(5) 1. 0 
K3 K1+ 2 i 0.7973(5) 0.1558(4) 0.0014(5) 1. 0 

#End of data_62097-ICSD


