data_71562-ICSD
#?2014 by Fachinformationszentrum Karlsruhe, and the U.S. Secretary of 
#Commerce on behalf of the United States.  All rights reserved.
_database_code_ICSD                71562
_audit_creation_date               1993/01/06
_audit_update_record               2010/08/01
_chemical_name_systematic
;
Dicalcium Yttrium Arsenate(V) Bis(tungstate)
;
_chemical_formula_structural       'Ca2 Y (As O4) (W O4)2'
_chemical_formula_sum              'As1 Ca2 O12 W2 Y1'
_chemical_name_mineral             Paraniite-(Y)
_publ_section_title
;
Structure of a new natural tungstate arsenate, Ca2 Y (As O4) (W O4)2, 
structurally related to scheelite
;
loop_
_citation_id
_citation_journal_abbrev
_citation_year
_citation_journal_volume
_citation_page_first
_citation_page_last
_citation_journal_id_ASTM
primary 'Acta Crystallographica, Section C: Crystal Structure Communications'
 1992 48 1357 1359 ACSCEE
_publ_author_name
;
Demartin, F.;Gramaccioli, C.M.;Pilati, T.
;
_cell_length_a                     5.135(1)
_cell_length_b                     5.135(1)
_cell_length_c                     33.8820(50)
_cell_angle_alpha                  90.
_cell_angle_beta                   90.
_cell_angle_gamma                  90.
_cell_volume                       893.41
_cell_formula_units_Z              4
_symmetry_space_group_name_H-M     'I 41/a Z'
_symmetry_Int_Tables_number        88
_refine_ls_R_factor_all            .024
loop_
_symmetry_equiv_pos_site_id
_symmetry_equiv_pos_as_xyz
  1	'-y+.75, x+.75, -z+.75'
  2	'y+.25, -x+.75, -z+.75'
  3	'x, y+.5, -z'
  4	'-x, -y, -z'
  5	'y+.25, -x+.25, z+.25'
  6	'-y+.75, x+.25, z+.25'
  7	'-x, -y+.5, z'
  8	'x, y, z'
  9	'-y+.25, x+.25, -z+.25'
 10	'y+.75, -x+.25, -z+.25'
 11	'x+.5, y, -z+.5'
 12	'-x+.5, -y+.5, -z+.5'
 13	'y+.75, -x+.75, z+.75'
 14	'-y+.25, x+.75, z+.75'
 15	'-x+.5, -y, z+.5'
 16	'x+.5, y+.5, z+.5'
loop_
_atom_type_symbol
_atom_type_oxidation_number
As5+	5
Ca2+	2
O2-	-2
W6+	6
Y3+	3
loop_
_atom_site_label
_atom_site_type_symbol
_atom_site_symmetry_multiplicity
_atom_site_Wyckoff_symbol
_atom_site_fract_x
_atom_site_fract_y
_atom_site_fract_z
_atom_site_occupancy
_atom_site_attached_hydrogens
Y1 Y3+ 4 a 0 0.25 0.125 1. 0 
As1 As5+ 4 b 0.5 0.75 0.125 1. 0 
W1 W6+ 8 e 0 0.75 0.04679(1) 1. 0 
Ca1 Ca2+ 8 e 0.5 0.25 0.04167(3) 1. 0 
O1 O2- 16 f 0.2437(8) 0.8853(8) 0.0160(1) 1. 0 
O2 O2- 16 f 0.1559(7) 0.4784(7) 0.0705(1) 1. 0 
O3 O2- 16 f 0.3220(9) -.0340(8) 0.0977(1) 1. 0 

loop_
_atom_site_aniso_label
_atom_site_aniso_type_symbol
_atom_site_aniso_U_11
_atom_site_aniso_U_22
_atom_site_aniso_U_33
_atom_site_aniso_U_12
_atom_site_aniso_U_13
_atom_site_aniso_U_23
Y1 Y3+ 0.0108(2) 0.0108(2) 0.0052(2) 0 0 0
As1 As5+ 0.0103(2) 0.0103(2) 0.0047(3) 0 0 0
W1 W6+ 0.01106(9) 0.00951(9) 0.01038(8) 0.0015(1) 0 0
Ca1 Ca2+ 0.0136(4) 0.0149(4) 0.0091(4) 0.0035(5) 0 0
O1 O2- 0.020(2) 0.020(2) 0.011(1) 0.001(1) 0.002(1) -.001(1)
O2 O2- 0.015(1) 0.019(1) 0.013(1) 0.000(1) 0.000(1) 0.002(1)
O3 O2- 0.025(2) 0.023(2) 0.014(1) 0.007(2) 0.000(2) 0.002(1)
#End of data_71562-ICSD


