data_202919-ICSD
#?2014 by Fachinformationszentrum Karlsruhe, and the U.S. Secretary of 
#Commerce on behalf of the United States.  All rights reserved.
_database_code_ICSD                202919
_audit_creation_date               1990/06/08
_chemical_name_systematic          'Lithium Cobalt(III) Fluoride'
_chemical_formula_structural       'Li Co F4'
_chemical_formula_sum              'Co1 F4 Li1'
_publ_section_title
;
Crystal and Magnetic Structures of Li Co F4: The First Compound with 
a Dirutile Structure
;
loop_
_citation_id
_citation_journal_abbrev
_citation_year
_citation_journal_volume
_citation_page_first
_citation_page_last
_citation_journal_id_ASTM
primary 'Journal of Solid State Chemistry' 1989 79 1 11 JSSCBI
_publ_author_name
;
Lacorre, P.;Pannetier, J.;Averdunk, F.;Hoppe, R.;Ferey, G.
;
_cell_length_a                     5.4296(8)
_cell_length_b                     4.6462(4)
_cell_length_c                     5.5371(4)
_cell_angle_alpha                  90.
_cell_angle_beta                   114.244(5)
_cell_angle_gamma                  90.
_cell_volume                       127.36
_cell_formula_units_Z              2
_symmetry_space_group_name_H-M     'P 1 21/c 1'
_symmetry_Int_Tables_number        14
_refine_ls_R_factor_all            .069
loop_
_symmetry_equiv_pos_site_id
_symmetry_equiv_pos_as_xyz
  1	'x, -y+.5, z+.5'
  2	'-x, -y, -z'
  3	'-x, y+.5, -z+.5'
  4	'x, y, z'
loop_
_atom_type_symbol
_atom_type_oxidation_number
Co3+	3
F1-	-1
Li1+	1
loop_
_atom_site_label
_atom_site_type_symbol
_atom_site_symmetry_multiplicity
_atom_site_Wyckoff_symbol
_atom_site_fract_x
_atom_site_fract_y
_atom_site_fract_z
_atom_site_occupancy
_atom_site_attached_hydrogens
_atom_site_B_iso_or_equiv
Li1 Li1+ 2 d 0.5 0.5 0 1. 0 0.1 
Co1 Co3+ 2 a 0 0 0 1. 0 0.1 
F1 F1- 4 e 0.8532(4) 0.7924(10) 0.6668(9) 1. 0 0.1 
F2 F1- 4 e 0.3249(3) 0.6844(8) 0.6239(9) 1. 0 0.1 

#End of data_202919-ICSD


