data_24078-ICSD
#?2014 by Fachinformationszentrum Karlsruhe, and the U.S. Secretary of 
#Commerce on behalf of the United States.  All rights reserved.
_database_code_ICSD                24078
_audit_creation_date               1980/01/01
_audit_update_record               1999/11/30
_chemical_name_systematic          'Aluminium Niobium Oxide'
_chemical_formula_structural       'Al Nb O4'
_chemical_formula_sum              'Al1 Nb1 O4'
_publ_section_title
;
The crystal structure of aluminium niobium oxide
;
loop_
_citation_id
_citation_journal_abbrev
_citation_year
_citation_journal_volume
_citation_page_first
_citation_page_last
_citation_journal_id_ASTM
primary 'Acta Chemica Scandinavica (1-27,1973-42,1988)' 1962 16 421 430 ACSAA4
_publ_author_name                  'Pedersen, B.F.'
_cell_length_a                     12.13(6)
_cell_length_b                     3.726(19)
_cell_length_c                     6.46(3)
_cell_angle_alpha                  90.
_cell_angle_beta                   107.2
_cell_angle_gamma                  90.
_cell_volume                       278.91
_cell_formula_units_Z              4
_symmetry_space_group_name_H-M     'C 1 2/m 1'
_symmetry_Int_Tables_number        12
_refine_ls_R_factor_all            .12
loop_
_symmetry_equiv_pos_site_id
_symmetry_equiv_pos_as_xyz
  1	'-x, y, -z'
  2	'-x, -y, -z'
  3	'x, -y, z'
  4	'x, y, z'
  5	'-x+.5, y+.5, -z'
  6	'-x+.5, -y+.5, -z'
  7	'x+.5, -y+.5, z'
  8	'x+.5, y+.5, z'
loop_
_atom_type_symbol
_atom_type_oxidation_number
Al3+	3
Nb5+	5
O2-	-2
loop_
_atom_site_label
_atom_site_type_symbol
_atom_site_symmetry_multiplicity
_atom_site_Wyckoff_symbol
_atom_site_fract_x
_atom_site_fract_y
_atom_site_fract_z
_atom_site_occupancy
_atom_site_attached_hydrogens
_atom_site_B_iso_or_equiv
Al1 Al3+ 4 i 0.8071(10) 0 0.1986(20) 1. 0 0.208 
Nb1 Nb5+ 4 i 0.1030(4) 0 0.2354(8) 1. 0 0.208 
O1 O2- 4 i 0.864(2) 0 0.484(4) 1. 0 0.208 
O2 O2- 4 i 0.943(2) 0 0.149(4) 1. 0 0.208 
O3 O2- 4 i 0.274(2) 0 0.149(4) 1. 0 0.208 
O4 O2- 4 i 0.630(2) 0 0.203(4) 1. 0 0.208 

#End of data_24078-ICSD


