data_87082-ICSD
#?2014 by Fachinformationszentrum Karlsruhe, and the U.S. Secretary of 
#Commerce on behalf of the United States.  All rights reserved.
_database_code_ICSD                87082
_audit_creation_date               2000/07/15
_chemical_name_systematic          'Barium Diyttrium Zinc Oxide'
_chemical_formula_structural       'Ba Y2 Zn O5'
_chemical_formula_sum              'Ba1 O5 Y2 Zn1'
_publ_section_title
;
Crystallographic studies of Ba R2 Zn O5 (R = La, Nd, Dy, Ho, Er and 
Y)
;
loop_
_citation_id
_citation_journal_abbrev
_citation_year
_citation_journal_volume
_citation_journal_issue
_citation_page_first
_citation_page_last
_citation_journal_id_ASTM
primary 'Powder Diffraction' 1998 13 3 144 151 PODIE2
_publ_author_name                  'Wong-Ng, W.;Toby, B.;Greenwood, W.'
_cell_length_a                     7.0707(1)
_cell_length_b                     12.3386(1)
_cell_length_c                     5.7095(1)
_cell_angle_alpha                  90.
_cell_angle_beta                   90.
_cell_angle_gamma                  90.
_cell_volume                       498.11
_cell_formula_units_Z              4
_symmetry_space_group_name_H-M     'P b n m'
_symmetry_Int_Tables_number        62
_refine_ls_R_factor_all            .042
loop_
_symmetry_equiv_pos_site_id
_symmetry_equiv_pos_as_xyz
  1	'-x+.5, y+.5, z'
  2	'x, y, -z+.5'
  3	'x+.5, -y+.5, z+.5'
  4	'-x, -y, -z'
  5	'x+.5, -y+.5, -z'
  6	'-x, -y, z+.5'
  7	'-x+.5, y+.5, -z+.5'
  8	'x, y, z'
loop_
_atom_type_symbol
_atom_type_oxidation_number
Ba2+	2
O2-	-2
Y3+	3
Zn2+	2
loop_
_atom_site_label
_atom_site_type_symbol
_atom_site_symmetry_multiplicity
_atom_site_Wyckoff_symbol
_atom_site_fract_x
_atom_site_fract_y
_atom_site_fract_z
_atom_site_occupancy
_atom_site_attached_hydrogens
_atom_site_U_iso_or_equiv
Ba1 Ba2+ 4 c 0.9231(4) 0.9001(2) 0.25 1. 0 0.0093(6) 
Y1 Y3+ 4 c 0.1201(2) 0.29187(12) 0.25 1. 0 0.0055(3) 
Y2 Y3+ 4 c 0.3989(3) 0.0739(1) 0.25 1. 0 0.0063(3) 
Zn1 Zn2+ 4 c 0.6907(3) 0.6501(2) 0.25 1. 0 0.0061(4) 
O1 O2- 8 d 0.1663(2) 0.43442(12) -.0024(3) 1. 0 0.0074(3) 
O2 O2- 8 d 0.3586(2) 0.22508(11) 0.5014(3) 1. 0 0.0093(3) 
O3 O2- 4 c 0.0752(3) 0.1008(2) 0.25 1. 0 0.0077(5) 

#End of data_87082-ICSD


