data_279611-ICSD
#?2014 by Fachinformationszentrum Karlsruhe, and the U.S. Secretary of 
#Commerce on behalf of the United States.  All rights reserved.
_database_code_ICSD                279611
_audit_creation_date               2002/10/01
_audit_update_record               2013/08/01
_chemical_name_systematic
;
Potassium Lanthanum Hexaselenodiphosphate(IV) Tetraselenophosphate(V) 
(2/1/0.5/1)
;
_chemical_formula_structural       'K2 La (P2 Se6)0.5 (P Se4)'
_chemical_formula_sum              'K2 La1 P2 Se7'
_publ_section_title
;
Selenophosphate phase diagrams developed in conjunction with the 
synthesis of the new compounds K2 La (P2 Se6)1/2 (P Se4), K3 La (P 
Se4)2, K4 La0.67 (P Se4)2, K9-x La1+x/3 (P Se4)4 (x=0.5), and K Eu P 
Se4
;
loop_
_citation_id
_citation_journal_abbrev
_citation_year
_citation_journal_volume
_citation_page_first
_citation_page_last
_citation_journal_id_ASTM
primary 'Inorganic Chemistry' 2001 40 2875 2883 INOCAJ
_publ_author_name                  'Evenson, C.R.IV.;Dorhout, P.K.'
_cell_length_a                     9.4269(1)
_cell_length_b                     7.2054(1)
_cell_length_c                     21.02759(50)
_cell_angle_alpha                  90.
_cell_angle_beta                   97.484(1)
_cell_angle_gamma                  90.
_cell_volume                       1416.12
_cell_formula_units_Z              4
_symmetry_space_group_name_H-M     'P 1 21/n 1'
_symmetry_Int_Tables_number        14
_refine_ls_R_factor_all            .0666
loop_
_symmetry_equiv_pos_site_id
_symmetry_equiv_pos_as_xyz
  1	'-x+.5, y+.5, -z+.5'
  2	'-x, -y, -z'
  3	'x+.5, -y+.5, z+.5'
  4	'x, y, z'
loop_
_atom_type_symbol
_atom_type_oxidation_number
K1+	1
La3+	3
P4+	4
P5+	5
Se2-	-2
loop_
_atom_site_label
_atom_site_type_symbol
_atom_site_symmetry_multiplicity
_atom_site_Wyckoff_symbol
_atom_site_fract_x
_atom_site_fract_y
_atom_site_fract_z
_atom_site_occupancy
_atom_site_attached_hydrogens
La1 La3+ 4 e 0.80716(5) 0.47257(6) 0.14994(2) 1. 0 
Se1 Se2- 4 e 0.71750(9) 0.46142(13) -.00399(4) 1. 0 
Se2 Se2- 4 e 0.58379(9) 0.77580(11) 0.10447(4) 1. 0 
Se3 Se2- 4 e 0.80914(9) 0.07801(12) 0.21925(4) 1. 0 
Se4 Se2- 4 e 0.05268(9) 0.47936(14) 0.25922(4) 1. 0 
Se5 Se2- 4 e 0.05649(9) 0.25913(11) 0.09906(4) 1. 0 
Se6 Se2- 4 e 0.02243(9) 0.75115(11) 0.09672(4) 1. 0 
Se7 Se2- 4 e 0.52808(9) 0.25427(11) 0.10679(4) 1. 0 
P1 P5+ 4 e 0.5933(2) 0.0164(3) 0.16848(10) 1. 0 
P2 P4+ 4 e 0.9184(2) 0.4903(3) -.04316(10) 1. 0 
K1 K1+ 4 e 0.2576(2) 0.0075(3) 0.00905(11) 1. 0 
K2 K1+ 4 e 0.3425(3) 0.5411(4) 0.18652(14) 1. 0 

loop_
_atom_site_aniso_label
_atom_site_aniso_type_symbol
_atom_site_aniso_U_11
_atom_site_aniso_U_22
_atom_site_aniso_U_33
_atom_site_aniso_U_12
_atom_site_aniso_U_13
_atom_site_aniso_U_23
La1 La3+ 0.0218(3) 0.0182(2) 0.0162(2) -.0009(2) 0.0035(2) 0.0007(2)
Se1 Se2- 0.0217(4) 0.0344(5) 0.0215(4) -.0021(4) 0.0031(3) -.0014(4)
Se2 Se2- 0.0377(5) 0.0189(4) 0.0230(5) 0.0036(4) -.0025(4) -.0037(3)
Se3 Se2- 0.0207(4) 0.0248(4) 0.0226(4) -.0028(3) -.0004(3) 0.0047(3)
Se4 Se2- 0.0213(5) 0.0586(7) 0.0220(5) 0.0007(4) 0.0057(4) -.0003(4)
Se5 Se2- 0.0366(5) 0.0178(4) 0.0255(5) 0.0056(4) 0.0106(4) 0.0058(3)
Se6 Se2- 0.0361(5) 0.0169(4) 0.0243(5) -.0044(4) 0.0097(4) -.0044(3)
Se7 Se2- 0.0313(5) 0.0186(4) 0.0288(5) -.0014(3) -.0056(4) 0.0069(3)
P1 P5+ 0.0193(10) 0.0173(10) 0.016(1) 0.0010(8) 0.0015(8) 0.0002(8)
P2 P4+ 0.0252(11) 0.0159(10) 0.019(1) -.0001(8) 0.0059(9) 0.0005(8)
K1 K1+ 0.0496(14) 0.0329(12) 0.0417(13) -.0002(10) 0.0170(11) 0.0007(9)
K2 K1+ 0.0359(12) 0.064(2) 0.066(2) -.0120(12) 0.0172(12) -.0154(13)
#End of data_279611-ICSD


