data_20168-ICSD
#?2014 by Fachinformationszentrum Karlsruhe, and the U.S. Secretary of 
#Commerce on behalf of the United States.  All rights reserved.
_database_code_ICSD                20168
_audit_creation_date               1980/01/01
_audit_update_record               2012/08/01
_chemical_name_systematic          'Sodium Iodate'
_chemical_formula_structural       'Na I O3'
_chemical_formula_sum              'I1 Na1 O3'
_publ_section_title
;
About the crystal structure of sodium iodate
;
loop_
_citation_id
_citation_journal_abbrev
_citation_year
_citation_journal_volume
_citation_page_first
_citation_page_last
_citation_journal_id_ASTM
primary 'Doklady Akademii Nauk SSSR' 1979 249 613 616 DANKAS
_publ_author_name
;
Sorokina, N.I.;Ilyukhin, V.V.;Pakhomov, V.I.;Belov, N.V.
;
_cell_length_a                     6.3959(4)
_cell_length_b                     5.7475(4)
_cell_length_c                     8.1286
_cell_angle_alpha                  90.
_cell_angle_beta                   90.
_cell_angle_gamma                  90.
_cell_volume                       298.81
_cell_formula_units_Z              4
_symmetry_space_group_name_H-M     'P b n 21'
_symmetry_Int_Tables_number        33
_refine_ls_R_factor_all            .03
loop_
_symmetry_equiv_pos_site_id
_symmetry_equiv_pos_as_xyz
  1	'-x+.5, y+.5, z'
  2	'x+.5, -y+.5, z+.5'
  3	'-x, -y, z+.5'
  4	'x, y, z'
loop_
_atom_type_symbol
_atom_type_oxidation_number
I5+	5
Na1+	1
O2-	-2
loop_
_atom_site_label
_atom_site_type_symbol
_atom_site_symmetry_multiplicity
_atom_site_Wyckoff_symbol
_atom_site_fract_x
_atom_site_fract_y
_atom_site_fract_z
_atom_site_occupancy
_atom_site_attached_hydrogens
I1 I5+ 4 a 0.01321(2) 0.01123(2) 0.2527(3) 1. 0 
Na1 Na1+ 4 a -.0151(3) 0.4984(6) 0.0023(4) 1. 0 
O1 O2- 4 a 0.0984(4) 0.7123(4) 0.2448(6) 1. 0 
O2 O2- 4 a 0.1556(9) 0.1333(10) 0.0792(6) 1. 0 
O3 O2- 4 a 0.1707(15) 0.1380(7) 0.4128(6) 1. 0 

#End of data_20168-ICSD


