data_100711-ICSD
#?2014 by Fachinformationszentrum Karlsruhe, and the U.S. Secretary of 
#Commerce on behalf of the United States.  All rights reserved.
_database_code_ICSD                100711
_audit_creation_date               1984/09/19
_audit_update_record               2012/02/01
_chemical_name_systematic          'Potassium Silver Nitrate'
_chemical_formula_structural       'K Ag (N O3)2'
_chemical_formula_sum              'Ag1 K1 N2 O6'
_publ_section_title
;
Die Kristallstruktur der isotypen Verbindungen K Ag (N O3)2, (N H4) 
Ag (N O3)2 und Rb Ag (N O3)2
;
loop_
_citation_id
_citation_journal_abbrev
_citation_year
_citation_journal_volume
_citation_page_first
_citation_page_last
_citation_journal_id_ASTM
primary 'Monatshefte fuer Chemie' 1980 111 1253 1263 MOCMB7
_publ_author_name                  'Zobetz, E.'
_cell_length_a                     13.953(5)
_cell_length_b                     4.955(2)
_cell_length_c                     8.220(3)
_cell_angle_alpha                  90.
_cell_angle_beta                   97.76(3)
_cell_angle_gamma                  90.
_cell_volume                       563.1
_cell_formula_units_Z              4
_symmetry_space_group_name_H-M     'P 1 21/a 1'
_symmetry_Int_Tables_number        14
_refine_ls_R_factor_all            .034
loop_
_symmetry_equiv_pos_site_id
_symmetry_equiv_pos_as_xyz
  1	'x+.5, -y+.5, z'
  2	'-x, -y, -z'
  3	'-x+.5, y+.5, -z'
  4	'x, y, z'
loop_
_atom_type_symbol
_atom_type_oxidation_number
Ag1+	1
K1+	1
N5+	5
O2-	-2
loop_
_atom_site_label
_atom_site_type_symbol
_atom_site_symmetry_multiplicity
_atom_site_Wyckoff_symbol
_atom_site_fract_x
_atom_site_fract_y
_atom_site_fract_z
_atom_site_occupancy
_atom_site_attached_hydrogens
Ag1 Ag1+ 4 e 0.28016(3) 0.41715(7) 0.19947(4) 1. 0 
K1 K1+ 4 e 0.0626(1) 0.9503(2) 0.2633(1) 1. 0 
N1 N5+ 4 e 0.1006(3) 0.4621(7) -.0614(5) 1. 0 
N2 N5+ 4 e 0.1629(3) 0.3607(7) 0.5604(5) 1. 0 
O1 O2- 4 e 0.1575(3) 0.6279(7) 0.0154(4) 1. 0 
O2 O2- 4 e 0.1058(3) 0.2189(7) -.0199(4) 1. 0 
O3 O2- 4 e 0.0400(3) 0.5364(7) -.1763(4) 1. 0 
O4 O2- 4 e 0.1236(3) 0.1345(7) 0.5798(4) 1. 0 
O5 O2- 4 e 0.2241(3) 0.4469(7) 0.6746(5) 1. 0 
O6 O2- 4 e 0.1424(4) 0.4811(8) 0.4289(5) 1. 0 

loop_
_atom_site_aniso_label
_atom_site_aniso_type_symbol
_atom_site_aniso_B_11
_atom_site_aniso_B_22
_atom_site_aniso_B_33
_atom_site_aniso_B_12
_atom_site_aniso_B_13
_atom_site_aniso_B_23
Ag1 Ag1+ 2.86(2) 2.39(3) 2.20(2) 0.11(1) 0.08(2) 0.32(1)
K1 K1+ 2.71(4) 2.41(3) 1.83(3) -.29(3) 0.05(3) -.01(3)
N1 N5+ 1.88(11) 1.85(6) 1.78(11) 0.09(9) 0.65(9) -.03(10)
N2 N5+ 2.30(12) 2.08(6) 1.85(12) -.09(11) 0.43(11) -.08(11)
O1 O2- 2.87(13) 2.64(6) 2.42(12) -.48(11) -.10(11) -.24(11)
O2 O2- 3.24(13) 2.76(6) 2.40(12) 0.32(12) 0.98(11) 0.29(11)
O3 O2- 2.76(13) 2.66(6) 2.56(13) 0.55(11) -.11(11) 0.05(11)
O4 O2- 3.15(13) 2.61(6) 2.04(12) -.72(10) 0.26(11) -.12(11)
O5 O2- 2.46(13) 2.84(6) 3.22(14) -.13(11) 0.02(12) -.64(12)
O6 O2- 4.61(17) 3.94(9) 3.25(17) 0.32(16) -.17(16) 1.50(15)
#End of data_100711-ICSD


