data_80558-ICSD
#?2014 by Fachinformationszentrum Karlsruhe, and the U.S. Secretary of 
#Commerce on behalf of the United States.  All rights reserved.
_database_code_ICSD                80558
_audit_creation_date               1997/05/13
_chemical_name_systematic          'Dineodymium Barium Zinc Oxide'
_chemical_formula_structural       'Nd2 Ba Zn O5'
_chemical_formula_sum              'Ba1 Nd2 O5 Zn1'
_publ_section_title
;
Structure cristalline de l'oxyde Nd2 Ba Zn O5
;
loop_
_citation_id
_citation_journal_abbrev
_citation_year
_citation_journal_volume
_citation_page_first
_citation_page_last
_citation_journal_id_ASTM
primary 'Journal of Solid State Chemistry' 1990 86 233 237 JSSCBI
_publ_author_name
;
Taibi, M.;Aride, J.;Darriet, J.;Moqine, A.;Boukhari, A.
;
_cell_length_a                     6.747(2)
_cell_length_b                     6.747(2)
_cell_length_c                     11.537(2)
_cell_angle_alpha                  90.
_cell_angle_beta                   90.
_cell_angle_gamma                  90.
_cell_volume                       525.19
_cell_formula_units_Z              4
_symmetry_space_group_name_H-M     'I 4/m c m'
_symmetry_Int_Tables_number        140
_refine_ls_R_factor_all            .03
loop_
_symmetry_equiv_pos_site_id
_symmetry_equiv_pos_as_xyz
  1	'y, x, -z+.5'
  2	'-y, -x, -z+.5'
  3	'-y, x, -z'
  4	'y, -x, -z'
  5	'x, -y, -z+.5'
  6	'-x, y, -z+.5'
  7	'x, y, -z'
  8	'-x, -y, -z'
  9	'-y, -x, z+.5'
 10	'y, x, z+.5'
 11	'y, -x, z'
 12	'-y, x, z'
 13	'-x, y, z+.5'
 14	'x, -y, z+.5'
 15	'-x, -y, z'
 16	'x, y, z'
 17	'y+.5, x+.5, -z'
 18	'-y+.5, -x+.5, -z'
 19	'-y+.5, x+.5, -z+.5'
 20	'y+.5, -x+.5, -z+.5'
 21	'x+.5, -y+.5, -z'
 22	'-x+.5, y+.5, -z'
 23	'x+.5, y+.5, -z+.5'
 24	'-x+.5, -y+.5, -z+.5'
 25	'-y+.5, -x+.5, z'
 26	'y+.5, x+.5, z'
 27	'y+.5, -x+.5, z+.5'
 28	'-y+.5, x+.5, z+.5'
 29	'-x+.5, y+.5, z'
 30	'x+.5, -y+.5, z'
 31	'-x+.5, -y+.5, z+.5'
 32	'x+.5, y+.5, z+.5'
loop_
_atom_type_symbol
_atom_type_oxidation_number
Ba2+	2
Nd3+	3
O2-	-2
Zn2+	2
loop_
_atom_site_label
_atom_site_type_symbol
_atom_site_symmetry_multiplicity
_atom_site_Wyckoff_symbol
_atom_site_fract_x
_atom_site_fract_y
_atom_site_fract_z
_atom_site_occupancy
_atom_site_attached_hydrogens
Ba1 Ba2+ 4 a 0 0 0.25 1. 0 
Nd1 Nd3+ 8 h 0.17420(4) 0.67420(4) 0 1. 0 
Zn1 Zn2+ 4 b 0 0.5 0.25 1. 0 
O1 O2- 4 c 0 0 0 1. 0 
O2 O2- 16 l 0.3557(5) 0.8557(5) 0.1311(4) 1. 0 

loop_
_atom_site_aniso_label
_atom_site_aniso_type_symbol
_atom_site_aniso_U_11
_atom_site_aniso_U_22
_atom_site_aniso_U_33
_atom_site_aniso_U_12
_atom_site_aniso_U_13
_atom_site_aniso_U_23
Ba1 Ba2+ 0.0068(2) 0.0068(2) 0.0069(2) 0 0 0
Nd1 Nd3+ 0.0044(1) 0.0044(1) 0.0050(2) -.0009(1) 0 0
Zn1 Zn2+ 0.0064(3) 0.0064(3) 0.0038(4) 0 0 0
O1 O2- 0.0105(20) 0.0105(20) 0.0066(29) 0 0 0
O2 O2- 0.011(1) 0.011(1) 0.0091(17) -.0023(13) -.002(1) -.002(1)
#End of data_80558-ICSD


