data_201893-ICSD
#?2014 by Fachinformationszentrum Karlsruhe, and the U.S. Secretary of 
#Commerce on behalf of the United States.  All rights reserved.
_database_code_ICSD                201893
_audit_creation_date               1986/04/14
_audit_update_record               2013/02/01
_chemical_name_systematic
;
Dipotassium Selenate(VI) - Ferroelectric Phase
;
_chemical_formula_structural       'K2 (Se O4)'
_chemical_formula_sum              'K2 O4 Se1'
_publ_section_title
;
A Structural Study of the Incommensurate-to-Ferroelectric Phase 
Transition in K2 Se O4
;
loop_
_citation_id
_citation_journal_abbrev
_citation_year
_citation_journal_volume
_citation_page_first
_citation_page_last
_citation_journal_id_ASTM
primary 'Journal of the Physical Society of Japan' 1984 53 2565 2574 JUPSAU
2 'Phase Transition' 1992 38 127 220 PHTRDP
_publ_author_name                  'Yamada, N.;Ono, Y.;Ikeda, T.'
_cell_length_a                     22.716
_cell_length_b                     10.339
_cell_length_c                     5.967
_cell_angle_alpha                  90.
_cell_angle_beta                   90.
_cell_angle_gamma                  90.
_cell_volume                       1401.41
_cell_formula_units_Z              12
_symmetry_space_group_name_H-M     'P n a 21'
_symmetry_Int_Tables_number        33
_refine_ls_R_factor_all            .038
loop_
_symmetry_equiv_pos_site_id
_symmetry_equiv_pos_as_xyz
  1	'x+.5, -y+.5, z'
  2	'-x+.5, y+.5, z+.5'
  3	'-x, -y, z+.5'
  4	'x, y, z'
loop_
_atom_type_symbol
_atom_type_oxidation_number
K1+	1
O2-	-2
Se6+	6
loop_
_atom_site_label
_atom_site_type_symbol
_atom_site_symmetry_multiplicity
_atom_site_Wyckoff_symbol
_atom_site_fract_x
_atom_site_fract_y
_atom_site_fract_z
_atom_site_occupancy
_atom_site_attached_hydrogens
K1 K1+ 4 a 0.05440(45) 0.079990(46) 0.2556(45) 1. 0 
K2 K1+ 4 a 0.38898(45) 0.07974(47) 0.24407(46) 1. 0 
K3 K1+ 4 a 0.72248(45) 0.08108(47) 0.22956(45) 1. 0 
K4 K1+ 4 a -.00008(46) 0.70804(44) 0.27040(42) 1. 0 
K5 K1+ 4 a 0.33274(46) 0.70595(46) 0.23443(48) 1. 0 
K6 K1+ 4 a 0.66643(45) 0.70814(45) 0.24992(47) 1. 0 
Se1 Se6+ 4 a 0.07401(20) 0.41711(20) 0.24365(21) 1. 0 
Se2 Se6+ 4 a 0.40656(20) 0.41799(21) 0.26063(19) 1. 0 
Se3 Se6+ 4 a 0.74156(20) 0.42032(20) 0.24307(21) 1. 0 
O1 O2- 4 a 0.1018(17) 0.3486(18) 0.0373(15) 1. 0 
O2 O2- 4 a 0.4247(18) 0.3400(19) 0.0314(16) 1. 0 
O3 O2- 4 a 0.7545(17) 0.3291(18) 0.0278(16) 1. 0 
O4 O2- 4 a 0.0942(17) 0.3358(17) 0.4660(14) 1. 0 
O5 O2- 4 a 0.4324(17) 0.3393(18) 0.4888(15) 1. 0 
O6 O2- 4 a 0.7715(19) 0.3518(18) 0.4807(15) 1. 0 
O7 O2- 4 a 0.1012(15) 0.5678(15) 0.2608(15) 1. 0 
O8 O2- 4 a 0.4411(16) 0.5562(15) 0.2539(16) 1. 0 
O9 O2- 4 a 0.7717(16) 0.5618(15) 0.2049(15) 1. 0 
O10 O2- 4 a 0.0024(15) 0.4311(16) 0.2223(17) 1. 0 
O11 O2- 4 a 0.3386(16) 0.4331(17) 0.2952(16) 1. 0 
O12 O2- 4 a 0.6693(16) 0.4295(16) 0.2799(16) 1. 0 

#End of data_201893-ICSD


