data_88775-ICSD
#?2014 by Fachinformationszentrum Karlsruhe, and the U.S. Secretary of 
#Commerce on behalf of the United States.  All rights reserved.
_database_code_ICSD                88775
_audit_creation_date               2001/07/16
_chemical_name_systematic          'Dibismuth Tetraaluminium Oxide'
_chemical_formula_structural       'Bi2 Al4 O9'
_chemical_formula_sum              'Al4 Bi2 O9'
_publ_section_title
;
Structure and oxide ion conductivity mechanism in Bi2 Al4 O9 by 
combined X-ray and high-resolution neutron powder diffraction and 
(27)Al solid NMR
;
loop_
_citation_id
_citation_journal_abbrev
_citation_year
_citation_journal_volume
_citation_page_first
_citation_page_last
_citation_journal_id_ASTM
primary 'Journal of Solid State Chemistry' 1999 147 631 636 JSSCBI
_publ_author_name
;
Abrahams, I.;Bush, A.J.;Hawkes, G.E.;Nunes, T.
;
_cell_length_a                     7.7134(1)
_cell_length_b                     8.1139(2)
_cell_length_c                     5.6914(1)
_cell_angle_alpha                  90.
_cell_angle_beta                   90.
_cell_angle_gamma                  90.
_cell_volume                       356.2
_cell_formula_units_Z              2
_symmetry_space_group_name_H-M     'P b a m'
_symmetry_Int_Tables_number        55
_refine_ls_R_factor_all            .032
loop_
_symmetry_equiv_pos_site_id
_symmetry_equiv_pos_as_xyz
  1	'x+.5, -y+.5, z'
  2	'-x+.5, y+.5, z'
  3	'x, y, -z'
  4	'-x, -y, -z'
  5	'-x+.5, y+.5, -z'
  6	'x+.5, -y+.5, -z'
  7	'-x, -y, z'
  8	'x, y, z'
loop_
_atom_type_symbol
_atom_type_oxidation_number
Al3+	3
Bi3+	3
O2-	-2
loop_
_atom_site_label
_atom_site_type_symbol
_atom_site_symmetry_multiplicity
_atom_site_Wyckoff_symbol
_atom_site_fract_x
_atom_site_fract_y
_atom_site_fract_z
_atom_site_occupancy
_atom_site_attached_hydrogens
Bi1 Bi3+ 4 g 0.1711(1) 0.1677(1) 0 1. 0 
Al1 Al3+ 4 f 0.5 0 0.2645(6) 1. 0 
Al2 Al3+ 4 h 0.3545(4) 0.3399(4) 0.5 1. 0 
O1 O2- 2 b 0 0 0.5 1. 0 
O2 O2- 8 i 0.3718(2) 0.2056(2) 0.2503(3) 1. 0 
O3 O2- 4 h 0.1364(3) 0.4120(2) 0.5 1. 0 
O4 O2- 4 g 0.1421(3) 0.4312(2) 0 1. 0 

loop_
_atom_site_aniso_label
_atom_site_aniso_type_symbol
_atom_site_aniso_U_11
_atom_site_aniso_U_22
_atom_site_aniso_U_33
_atom_site_aniso_U_12
_atom_site_aniso_U_13
_atom_site_aniso_U_23
Bi1 Bi3+ 0.0163(5) 0.0183(5) 0.0274(5) 0.0016(5) 0 0
Al1 Al3+ 0.024(2) 0.019(2) 0.017(2) 0.004(1) 0 0
Al2 Al3+ 0.026(2) 0.026(2) 0.015(2) 0.007(2) 0 0
O1 O2- 0.022(2) 0.030(2) 0.037(2) 0.001(1) 0 0
O2 O2- 0.0228(7) 0.0238(7) 0.0181(7) 0.0012(6) -.006(6) 0.003(6)
O3 O2- 0.023(1) 0.022(1) 0.021(1) 0.0012(9) 0 0
O4 O2- 0.019(1) 0.019(1) 0.024(1) -.0019(7) 0 0
#End of data_88775-ICSD


