data_63632-ICSD
#?2014 by Fachinformationszentrum Karlsruhe, and the U.S. Secretary of 
#Commerce on behalf of the United States.  All rights reserved.
_database_code_ICSD                63632
_audit_creation_date               1988/12/19
_audit_update_record               2014/08/01
_chemical_name_systematic
;
Potassium Indium Bis(sulfate) Tetrahydrate
;
_chemical_formula_structural       'K In (S O4)2 (H2 O)4'
_chemical_formula_sum              'H8 In1 K1 O12 S2'
_publ_section_title
;
Role of univalent cations and hydrogen bonds in stabilizing the 
structures of goldichites
;
loop_
_citation_id
_citation_journal_abbrev
_citation_year
_citation_journal_volume
_citation_page_first
_citation_page_last
_citation_journal_id_ASTM
primary Kristallografiya 1987 32 1419 1427 KRISAJ
2 'Soviet Physics, Crystallography (= Kristallografiya)'
 1987 32 834 839 SPHCA6
3 'Doklady Akademii Nauk SSSR' 1979 245 589 593 DANKAS
_publ_author_name
;
Rastsvetaeva, R.K.;Mukhtarova, N.N.
;
_cell_length_a                     10.606(2)
_cell_length_b                     9.231(2)
_cell_length_c                     10.654(2)
_cell_angle_alpha                  90.
_cell_angle_beta                   90.
_cell_angle_gamma                  103.23(2)
_cell_volume                       1015.39
_cell_formula_units_Z              4
_symmetry_space_group_name_H-M     'P 1 1 21/b'
_symmetry_Int_Tables_number        14
_refine_ls_R_factor_all            .028
loop_
_symmetry_equiv_pos_site_id
_symmetry_equiv_pos_as_xyz
  1	'x, y+.5, -z+.5'
  2	'-x, -y, -z'
  3	'-x, -y+.5, z+.5'
  4	'x, y, z'
loop_
_atom_type_symbol
_atom_type_oxidation_number
H1+	1
In3+	3
K1+	1
O2-	-2
S6+	6
loop_
_atom_site_label
_atom_site_type_symbol
_atom_site_symmetry_multiplicity
_atom_site_Wyckoff_symbol
_atom_site_fract_x
_atom_site_fract_y
_atom_site_fract_z
_atom_site_occupancy
_atom_site_attached_hydrogens
_atom_site_B_iso_or_equiv
H1 H1+ 4 e 0.149 0.48 0.203 1. 0 3. 
H2 H1+ 4 e 0.118 0.048 0.337 1. 0 3. 
H3 H1+ 4 e 0.09 0.423 0.465 1. 0 3. 
H4 H1+ 4 e 0.174 0.508 0.403 1. 0 3. 
H5 H1+ 4 e -.100 0.202 0.688 1. 0 3. 
H6 H1+ 4 e -.182 0.081 0.711 1. 0 3. 
H7 H1+ 4 e 0.603 0.320 0.396 1. 0 3. 
H8 H1+ 4 e 8.625 0.371 0.542 1. 0 3. 
In1 In3+ 4 e 0.290 0.405 0.865 1. 0 0 
K1 K1+ 4 e 0.322 0.462 0.257 1. 0 0 
S1 S6+ 4 e 0.528 0.283 0.015 1. 0 0 
S2 S6+ 4 e 0.896 0.357 0.194 1. 0 0 
O1 O2- 4 e 0.924 0.294 0.076 1. 0 0 
O2 O2- 4 e 0.881 0.513 0.173 1. 0 0 
O3 O2- 4 e 0.407 0.840 0.004 1. 0 0 
O4 O2- 4 e 0.627 0.424 0.008 1. 0 0 
O5 O2- 4 e 0.560 0.713 0.096 1. 0 0 
O6 O2- 4 e 0.458 0.275 0.131 1. 0 0 
O7 O2- 4 e -.004 0.357 0.285 1. 0 0 
O8 O2- 4 e 0.768 0.275 0.242 1. 0 0 
O9 O2- 4 e 0.180 0.293 0.023 1. 0 0 
O10 O2- 4 e 0.158 0.505 0.464 1. 0 0 
O11 O2- 4 e 0.180 0.667 0.179 1. 0 0 
O12 O2- 4 e 0.603 0.500 0.298 1. 0 0 

#End of data_63632-ICSD


