data_90937-ICSD
#?2014 by Fachinformationszentrum Karlsruhe, and the U.S. Secretary of 
#Commerce on behalf of the United States.  All rights reserved.
_database_code_ICSD                90937
_audit_creation_date               2002/04/01
_chemical_name_systematic          'Dialuminium Tris(tungstate)'
_chemical_formula_structural       'Al2 (W O4)3'
_chemical_formula_sum              'Al2 O12 W3'
_publ_section_title
;
Negative thermal expansion in Y2 (W O4)3
;
loop_
_citation_id
_citation_journal_abbrev
_citation_year
_citation_journal_volume
_citation_page_first
_citation_page_last
_citation_journal_id_ASTM
primary 'Journal of Solid State Chemistry' 2000 149 92 98 JSSCBI
_publ_author_name
;
Woodcock, D.A.;Lightfoot, P.;Ritter, C.
;
_cell_length_a                     9.1267(4)
_cell_length_b                     12.6488(6)
_cell_length_c                     9.0546(4)
_cell_angle_alpha                  90.
_cell_angle_beta                   90.
_cell_angle_gamma                  90.
_cell_volume                       1045.28
_cell_formula_units_Z              4
_symmetry_space_group_name_H-M     'P n c a'
_symmetry_Int_Tables_number        60
_refine_ls_R_factor_all            .07
loop_
_symmetry_equiv_pos_site_id
_symmetry_equiv_pos_as_xyz
  1	'x+.5, y, -z'
  2	'x, -y+.5, z+.5'
  3	'-x+.5, y+.5, z+.5'
  4	'-x, -y, -z'
  5	'-x+.5, -y, z'
  6	'-x, y+.5, -z+.5'
  7	'x+.5, -y+.5, -z+.5'
  8	'x, y, z'
loop_
_atom_type_symbol
_atom_type_oxidation_number
Al3+	3
O2-	-2
W6+	6
loop_
_atom_site_label
_atom_site_type_symbol
_atom_site_symmetry_multiplicity
_atom_site_Wyckoff_symbol
_atom_site_fract_x
_atom_site_fract_y
_atom_site_fract_z
_atom_site_occupancy
_atom_site_attached_hydrogens
_atom_site_B_iso_or_equiv
Al1 Al3+ 8 d 0.471(1) 0.382(1) 0.246(2) 1. 0 1.9(2) 
W1 W6+ 4 c 0.25 0 0.471(2) 1. 0 1.4(2) 
W2 W6+ 8 d 0.113(1) 0.355(1) 0.392(1) 1. 0 1.4(2) 
O1 O2- 8 d 0.091(1) 0.138(1) 0.085(1) 1. 0 3.8(3) 
O2 O2- 8 d 0.132(1) 0.070(1) 0.360(1) 1. 0 4.8(3) 
O3 O2- 8 d 0.006(1) 0.257(1) 0.316(1) 1. 0 3.5(2) 
O4 O2- 8 d 0.343(1) 0.410(1) 0.084(1) 1. 0 3.1(2) 
O5 O2- 8 d 0.065(1) 0.480(1) 0.319(1) 1. 0 3.8(3) 
O6 O2- 8 d 0.307(1) 0.336(1) 0.356(1) 1. 0 3.4(2) 

#End of data_90937-ICSD


