data_240273-ICSD
#?2014 by Fachinformationszentrum Karlsruhe, and the U.S. Secretary of 
#Commerce on behalf of the United States.  All rights reserved.
_database_code_ICSD                240273
_audit_creation_date               2005/10/01
_audit_update_record               2006/04/01
_chemical_name_systematic
;
Ammonium Heptafluorodilithiodiberyllate
;
_chemical_formula_structural       '(N H4) (Li2 Be2 F7)'
_chemical_formula_sum              'H4 Be2 F7 Li2 N1'
_publ_section_title
;
3-dimensional methylammonium and ammonium templated 
lithiumberyllofluoro frameworks
;
loop_
_citation_id
_citation_journal_abbrev
_citation_year
_citation_journal_volume
_citation_page_first
_citation_page_last
_citation_journal_id_ASTM
primary 'Chemistry of Materials' 2004 16 1650 1659 CMATEX
_publ_author_name                  'Gerrard, L.A.;Weller, M.T.'
_cell_length_a                     10.0450(4)
_cell_length_b                     12.3370(5)
_cell_length_c                     4.93214(20)
_cell_angle_alpha                  90.0
_cell_angle_beta                   90.0
_cell_angle_gamma                  90.0
_cell_volume                       611.22
_cell_formula_units_Z              4
_symmetry_space_group_name_H-M     'P n m a'
_symmetry_Int_Tables_number        62
loop_
_symmetry_equiv_pos_site_id
_symmetry_equiv_pos_as_xyz
  1	'x+.5, y, -z+.5'
  2	'x, -y+.5, z'
  3	'-x+.5, y+.5, z+.5'
  4	'-x, -y, -z'
  5	'-x+.5, -y, z+.5'
  6	'-x, y+.5, -z'
  7	'x+.5, -y+.5, -z+.5'
  8	'x, y, z'
loop_
_atom_type_symbol
_atom_type_oxidation_number
Be2+	2
F1-	-1
H1+	1
Li1+	1
N3-	-3
loop_
_atom_site_label
_atom_site_type_symbol
_atom_site_symmetry_multiplicity
_atom_site_Wyckoff_symbol
_atom_site_fract_x
_atom_site_fract_y
_atom_site_fract_z
_atom_site_occupancy
_atom_site_attached_hydrogens
_atom_site_U_iso_or_equiv
Be1 Be2+ 8 d -.09968(24) .13087(22) .7193(5) 1.0 0 .01778 
Li1 Li1+ 8 d .1478(7) -.0045(11) .7970(20) 1.0 0 .02434 
F1 F1- 8 d .0437(4) .11509(33) .8123(7) 1.0 0 .0210(10) 
F2 F1- 8 d -.19046(35) .0457(4) .8550(7) 1.0 0 .02054 
F3 F1- 8 d -.1150(4) .1214(4) .4087(9) 1.0 0 .03283 
F4 F1- 4 c -.1437(5) .25 .7906(12) 1.0 0 .01707 
N1 N3- 4 c .1366(4) .25 1.2665(9) 1.0 0 .02639 
H1 H1+ 4 c .1187(18) .25 1.101(4) 1.0 0 .075 
H2 H1+ 8 d .0767(11) .1942(10) 1.3507(23) 1.0 0 .075 
H3 H1+ 4 c .2293(18) .25 1.2221(34) 1.0 0 .075 

loop_
_atom_site_aniso_label
_atom_site_aniso_type_symbol
_atom_site_aniso_U_11
_atom_site_aniso_U_22
_atom_site_aniso_U_33
_atom_site_aniso_U_12
_atom_site_aniso_U_13
_atom_site_aniso_U_23
Be1 Be2+ .0037(10) .0014(11) .0021(13) .0305(14) .0192(16) -.0063(12)
#End of data_240273-ICSD


