data_260476-ICSD
#?2014 by Fachinformationszentrum Karlsruhe, and the U.S. Secretary of 
#Commerce on behalf of the United States.  All rights reserved.
_database_code_ICSD                260476
_audit_creation_date               2010/02/01
_chemical_name_systematic
;
Tetrapotassium Hexaselenodiphosphate Tetrahydrate
;
_chemical_formula_structural       'K4 (P2 Se6) (H2 O)4'
_chemical_formula_sum              'H8 K4 O4 P2 Se6'
_publ_section_title
;
Hydrated alkali metal and ammonium salts of the [P2 Se6]4- anion
;
loop_
_citation_id
_citation_journal_abbrev
_citation_year
_citation_journal_volume
_citation_journal_issue
_citation_page_first
_citation_page_last
_citation_journal_id_ASTM
primary 'Zeitschrift fuer Anorganische und Allgemeine Chemie (1950) (DE)'
 2009 635 9-10 1374 1379 ZAACAB
_publ_author_name
;
Rothenberger, A.;Malliakas, C.D.;Kanatzidis, M.G.
;
_cell_length_a                     11.921(2)
_cell_length_b                     12.460(3)
_cell_length_c                     11.752(2)
_cell_angle_alpha                  90.00
_cell_angle_beta                   90.00
_cell_angle_gamma                  90.00
_cell_volume                       1745.59
_cell_formula_units_Z              4
_symmetry_space_group_name_H-M     'C m c a'
_symmetry_Int_Tables_number        64
_refine_ls_R_factor_all            .0294
loop_
_symmetry_equiv_pos_site_id
_symmetry_equiv_pos_as_xyz
  1	'-x, -y+.5, z+.5'
  2	'-x, y+.5, -z+.5'
  3	'-x, y, z'
  4	'-x, -y, -z'
  5	'x, y+.5, -z+.5'
  6	'x, -y+.5, z+.5'
  7	'x, -y, -z'
  8	'x, y, z'
  9	'-x+.5, -y, z+.5'
 10	'-x+.5, y, -z+.5'
 11	'-x+.5, y+.5, z'
 12	'-x+.5, -y+.5, -z'
 13	'x+.5, y, -z+.5'
 14	'x+.5, -y, z+.5'
 15	'x+.5, -y+.5, -z'
 16	'x+.5, y+.5, z'
loop_
_atom_type_symbol
_atom_type_oxidation_number
H1+	1
K1+	1
O2-	-2
P4+	4
Se2-	-2
loop_
_atom_site_label
_atom_site_type_symbol
_atom_site_symmetry_multiplicity
_atom_site_Wyckoff_symbol
_atom_site_fract_x
_atom_site_fract_y
_atom_site_fract_z
_atom_site_occupancy
_atom_site_attached_hydrogens
_atom_site_U_iso_or_equiv
Se1 Se2- 16 g 0.15199(3) 0.10202(3) 0.13500(3) 1 0 0.01529(9) 
Se2 Se2- 8 f 0.0000 0.31501(4) 0.37881(4) 1 0 0.01684(11) 
K1 K1+ 8 f 0.0000 0.03707(9) 0.35776(9) 1 0 0.0207(2) 
K2 K1+ 8 e 0.2500 0.34839(9) 0.2500 1 0 0.0213(2) 
P1 P4+ 8 f 0.0000 0.08528(9) 0.03169(10) 1 0 0.0126(2) 
O1 O2- 16 g 0.1355(2) 0.3828(2) 0.0480(2) 1 0 0.0201(5) 
H1 H1+ 16 g 0.190(5) 0.396(5) 0.008(6) 1 0 0.053(18) 
H2 H1+ 16 g 0.115(5) 0.325(5) 0.030(4) 1 0 0.032(14) 

loop_
_atom_site_aniso_label
_atom_site_aniso_type_symbol
_atom_site_aniso_U_11
_atom_site_aniso_U_22
_atom_site_aniso_U_33
_atom_site_aniso_U_12
_atom_site_aniso_U_13
_atom_site_aniso_U_23
Se1 Se2- 0.01432(16) 0.01749(16) 0.01408(15) -0.00263(12) -0.00161(12) 
-0.00161(12)
Se2 Se2- 0.0203(2) 0.0139(2) 0.0163(2) 0.000 0.000 -0.00423(18)
K1 K1+ 0.0214(5) 0.0249(5) 0.0158(4) 0.000 0.000 0.0064(4)
K2 K1+ 0.0214(5) 0.0199(5) 0.0224(5) 0.000 0.0019(4) 0.000
P1 P4+ 0.0132(5) 0.0112(5) 0.0134(5) 0.000 0.000 0.0001(4)
O1 O2- 0.0198(13) 0.0188(13) 0.0218(12) -0.0035(11) 0.0028(11) -0.0043(10)
#End of data_260476-ICSD


