data_300169-ICSD
#?2014 by Fachinformationszentrum Karlsruhe, and the U.S. Secretary of 
#Commerce on behalf of the United States.  All rights reserved.
_database_code_ICSD                300169
_audit_creation_date               1991/07/10
_audit_update_record               2008/02/01
_chemical_name_systematic
;
Hexapotassium Di-mue-thio-bis(dithiogallate)
;
_chemical_formula_structural       'K6 (S2 (Ga S2)2)'
_chemical_formula_sum              'Ga2 K6 S6'
_publ_section_title
;
Crystal structure of hexapotassium di-mue-thiobis(dithiogallate)
;
loop_
_citation_id
_citation_journal_abbrev
_citation_year
_citation_journal_volume
_citation_page_first
_citation_page_last
_citation_journal_id_ASTM
primary 'Zeitschrift fuer Kristallographie (1979-2010)' 1991 197 155 156 ZEKRDZ
_publ_author_name                  'Eisenmann, B.;Hofmann, A.'
_cell_length_a                     7.756(3)
_cell_length_b                     12.550(6)
_cell_length_c                     10.128(4)
_cell_angle_alpha                  90.
_cell_angle_beta                   127.66(6)
_cell_angle_gamma                  90.
_cell_volume                       780.44
_cell_formula_units_Z              2
_symmetry_space_group_name_H-M     'P 1 21/c 1'
_symmetry_Int_Tables_number        14
_refine_ls_R_factor_all            .032
loop_
_symmetry_equiv_pos_site_id
_symmetry_equiv_pos_as_xyz
  1	'x, -y+.5, z+.5'
  2	'-x, -y, -z'
  3	'-x, y+.5, -z+.5'
  4	'x, y, z'
loop_
_atom_type_symbol
_atom_type_oxidation_number
Ga3+	3
K1+	1
S2-	-2
loop_
_atom_site_label
_atom_site_type_symbol
_atom_site_symmetry_multiplicity
_atom_site_Wyckoff_symbol
_atom_site_fract_x
_atom_site_fract_y
_atom_site_fract_z
_atom_site_occupancy
_atom_site_attached_hydrogens
K1 K1+ 4 e 0.3416(2) 0.0891(1) 0.6082(1) 1. 0 
K2 K1+ 4 e 0.1381(2) 0.8111(1) 0.4232(1) 1. 0 
K3 K1+ 4 e 0.3830(2) 0.3732(1) 0.5263(1) 1. 0 
Ga1 Ga3+ 4 e 0.0644(1) 0.0598 0.1634 1. 0 
S1 S2- 4 e 0.1561(2) 0.6065(1) 0.6213(1) 1. 0 
S2 S2- 4 e 0.3458(2) 0.3253(1) 0.8106(1) 1. 0 
S3 S2- 4 e 0.8743(2) 0.4539(1) 0.7626(1) 1. 0 

#End of data_300169-ICSD


