data_80357-ICSD
#?2014 by Fachinformationszentrum Karlsruhe, and the U.S. Secretary of 
#Commerce on behalf of the United States.  All rights reserved.
_database_code_ICSD                80357
_audit_creation_date               1997/05/13
_chemical_name_systematic          'Disodium Phyllo-beryllogermanate'
_chemical_formula_structural       'Na2 (Be Ge O4)'
_chemical_formula_sum              'Be1 Ge1 Na2 O4'
_publ_section_title
;
Structure and ionic conductivity of Na2 Be Ge O4
;
loop_
_citation_id
_citation_journal_abbrev
_citation_year
_citation_journal_volume
_citation_page_first
_citation_page_last
_citation_journal_id_ASTM
primary 'Journal of Solid State Chemistry' 1995 118 62 65 JSSCBI
_publ_author_name                  'Grins, J.'
_cell_length_a                     7.2155(4)
_cell_length_b                     5.0214(3)
_cell_length_c                     10.1380(6)
_cell_angle_alpha                  90.
_cell_angle_beta                   90.289(5)
_cell_angle_gamma                  90.
_cell_volume                       367.31
_cell_formula_units_Z              4
_symmetry_space_group_name_H-M     'P 1 21/c 1'
_symmetry_Int_Tables_number        14
_refine_ls_R_factor_all            .047
loop_
_symmetry_equiv_pos_site_id
_symmetry_equiv_pos_as_xyz
  1	'x, -y+.5, z+.5'
  2	'-x, -y, -z'
  3	'-x, y+.5, -z+.5'
  4	'x, y, z'
loop_
_atom_type_symbol
_atom_type_oxidation_number
Be2+	2
Ge4+	4
Na1+	1
O2-	-2
loop_
_atom_site_label
_atom_site_type_symbol
_atom_site_symmetry_multiplicity
_atom_site_Wyckoff_symbol
_atom_site_fract_x
_atom_site_fract_y
_atom_site_fract_z
_atom_site_occupancy
_atom_site_attached_hydrogens
_atom_site_B_iso_or_equiv
Na1 Na1+ 4 e 0.001(1) 0.793(1) 0.110(1) 1. 0 1.7(2) 
Na2 Na1+ 4 e 0.260(1) 0.816(1) 0.363(1) 1. 0 1.7(2) 
Be1 Be2+ 4 e 0.493(3) 0.831(5) 0.082(2) 1. 0 1.1(5) 
Ge1 Ge4+ 4 e 0.7205(4) 0.8440(4) 0.3398(2) 1. 0 0.8(2) 
O1 O2- 4 e 0.949(1) 0.762(2) 0.373(1) 1. 0 0.6(2) 
O2 O2- 4 e 0.685(1) 0.782(2) 0.171(1) 1. 0 0.6(2) 
O3 O2- 4 e 0.545(1) 0.679(2) 0.428(1) 1. 0 0.6(2) 
O4 O2- 4 e 0.316(1) 0.691(2) 0.125(1) 1. 0 0.6(2) 

#End of data_80357-ICSD


