data_416622-ICSD
#?2014 by Fachinformationszentrum Karlsruhe, and the U.S. Secretary of 
#Commerce on behalf of the United States.  All rights reserved.
_database_code_ICSD                416622
_audit_creation_date               2008/08/01
_chemical_name_systematic
;
Potassium Praseodymium Silicium Tetraselenide
;
_chemical_formula_structural       'K (Pr Si Se4)'
_chemical_formula_sum              'K1 Pr1 Se4 Si1'
_publ_section_title
;
Synthesis, Structures, and Properties of Layered Quaternary 
Chalcogenides of the General Formula A Ln E Q4 (A = K, Rb; Ln = Ce, 
Pr, Eu; E = Si, Ge; Q = S, Se)
;
loop_
_citation_id
_citation_journal_abbrev
_citation_year
_citation_journal_volume
_citation_journal_issue
_citation_page_first
_citation_page_last
_citation_journal_id_ASTM
primary 'Zeitschrift fuer Anorganische und Allgemeine Chemie (1950) (DE)'
 2006 632 15 2395 2401 ZAACAB
_publ_author_name
;
Choudhury, A.;Polyakova, L.A.;Hartenbach, I.;Schleid, T.;Dorhout, 
P.K.
;
_cell_length_a                     6.7368(10)
_cell_length_b                     6.9438(10)
_cell_length_c                     8.9905(11)
_cell_angle_alpha                  90.00
_cell_angle_beta                   108.262(2)
_cell_angle_gamma                  90.00
_cell_volume                       399.38
_cell_formula_units_Z              2
_symmetry_space_group_name_H-M     'P 1 21 1'
_symmetry_Int_Tables_number        4
_refine_ls_R_factor_all            .0508
loop_
_symmetry_equiv_pos_site_id
_symmetry_equiv_pos_as_xyz
  1	'-x, y+.5, -z'
  2	'x, y, z'
loop_
_atom_type_symbol
_atom_type_oxidation_number
K1+	1
Pr3+	3
Se2-	-2
Si4+	4
loop_
_atom_site_label
_atom_site_type_symbol
_atom_site_symmetry_multiplicity
_atom_site_Wyckoff_symbol
_atom_site_fract_x
_atom_site_fract_y
_atom_site_fract_z
_atom_site_occupancy
_atom_site_attached_hydrogens
_atom_site_U_iso_or_equiv
K1 K1+ 2 a 0.7666(5) 0.2093(9) 0.0633(4) 1 0 0.0478(9) 
Pr1 Pr3+ 2 a 0.73034(12) 0.19631(15) 0.55137(9) 1 0 0.0313(3) 
Si1 Si4+ 2 a 0.2873(6) 0.2273(8) 0.6838(4) 1 0 0.0311(10) 
Se1 Se2- 2 a 0.0900(2) 0.2273(3) 0.84336(16) 1 0 0.0363(4) 
Se2 Se2- 2 a 0.4889(3) 0.9586(2) 0.7188(2) 1 0 0.0316(4) 
Se3 Se2- 2 a 0.0917(2) 0.2674(2) 0.42964(18) 1 0 0.0349(4) 
Se4 Se2- 2 a 0.5253(3) 0.4658(2) 0.7319(2) 1 0 0.0322(5) 

loop_
_atom_site_aniso_label
_atom_site_aniso_type_symbol
_atom_site_aniso_U_11
_atom_site_aniso_U_22
_atom_site_aniso_U_33
_atom_site_aniso_U_12
_atom_site_aniso_U_13
_atom_site_aniso_U_23
K1 K1+ 0.051(2) 0.056(3) 0.0366(19) 0.001(3) 0.0134(16) -0.001(3)
Pr1 Pr3+ 0.0274(4) 0.0368(5) 0.0284(4) -0.0002(5) 0.0069(3) -0.0006(5)
Si1 Si4+ 0.0218(19) 0.040(3) 0.0288(19) -0.002(2) 0.0039(16) -0.004(2)
Se1 Se2- 0.0296(7) 0.0506(12) 0.0295(7) 0.0011(8) 0.0105(6) -0.0006(9)
Se2 Se2- 0.0307(9) 0.0302(10) 0.0335(11) 0.0016(7) 0.0093(7) 0.0003(8)
Se3 Se2- 0.0291(8) 0.0462(11) 0.0276(8) -0.0050(7) 0.0062(6) 0.0005(7)
Se4 Se2- 0.0300(8) 0.0331(10) 0.0315(10) -0.0006(8) 0.0067(8) -0.0003(8)
#End of data_416622-ICSD


