data_417522-ICSD
#?2014 by Fachinformationszentrum Karlsruhe, and the U.S. Secretary of 
#Commerce on behalf of the United States.  All rights reserved.
_database_code_ICSD                417522
_audit_creation_date               2008/02/01
_chemical_name_systematic
;
Dipotassium Heptaoxochromato(VI)sulfate(VI)
;
_chemical_formula_structural       'K2 (Cr S O7)'
_chemical_formula_sum              'Cr1 K2 O7 S1'
_publ_section_title
;
Synthesis methods for Ce (Cr O4)2 * x H2 O and crystal structures of 
K2 Cr S O7, (N H4)2 Cr2 O7 and Na2 Cr2 O7 * 2 H2 O
;
loop_
_citation_id
_citation_journal_abbrev
_citation_year
_citation_journal_volume
_citation_journal_issue
_citation_page_first
_citation_page_last
_citation_journal_id_ASTM
primary 'Zeitschrift fuer Naturforschung, B: Chemical Sciences'
 2007 62 6 771 777 ZNBSEN
_publ_author_name
;
Casari, B.M.;Eriksson, A.K.;Langer, V.
;
_cell_length_a                     7.4024(1)
_cell_length_b                     7.3908(1)
_cell_length_c                     12.9883(2)
_cell_angle_alpha                  90.00
_cell_angle_beta                   90.021(1)
_cell_angle_gamma                  90.00
_cell_volume                       710.59
_cell_formula_units_Z              4
_symmetry_space_group_name_H-M     'P 1 21/n 1'
_symmetry_Int_Tables_number        14
_refine_ls_R_factor_all            .0752
loop_
_symmetry_equiv_pos_site_id
_symmetry_equiv_pos_as_xyz
  1	'-x+.5, y+.5, -z+.5'
  2	'-x, -y, -z'
  3	'x+.5, -y+.5, z+.5'
  4	'x, y, z'
loop_
_atom_type_symbol
_atom_type_oxidation_number
Cr6+	6
K1+	1
O2-	-2
S6+	6
loop_
_atom_site_label
_atom_site_type_symbol
_atom_site_symmetry_multiplicity
_atom_site_Wyckoff_symbol
_atom_site_fract_x
_atom_site_fract_y
_atom_site_fract_z
_atom_site_occupancy
_atom_site_attached_hydrogens
_atom_site_U_iso_or_equiv
K1 K1+ 4 e 0.6333(2) 0.3784(2) 0.65627(11) 1 0 0.0320(3) 
K2 K1+ 4 e 0.8228(3) 0.2920(3) 0.36568(15) 1 0 0.0449(4) 
Cr1 Cr6+ 4 e 0.32853(16) 0.16828(12) 0.41826(8) 1 0 0.0253(2) 
S1 S6+ 4 e 0.1142(2) 0.20666(17) 0.61429(11) 1 0 0.0205(3) 
O1 O2- 4 e 0.1937(7) 0.2832(7) 0.3482(4) 1 0 0.0315(9) 
O2 O2- 4 e 0.4912(8) 0.2953(8) 0.4561(4) 1 0 0.0341(10) 
O3 O2- 4 e 0.4022(10) -0.0012(9) 0.3553(5) 1 0 0.0461(14) 
O4 O2- 4 e 0.2058(8) 0.0858(6) 0.5290(4) 1 0 0.0327(10) 
O5 O2- 4 e 0.0598(9) 0.0769(9) 0.6944(4) 1 0 0.0429(14) 
O6 O2- 4 e 0.2539(9) 0.3330(9) 0.6560(5) 1 0 0.0435(14) 
O7 O2- 4 e -0.0383(9) 0.3060(8) 0.5669(5) 1 0 0.0388(12) 

loop_
_atom_site_aniso_label
_atom_site_aniso_type_symbol
_atom_site_aniso_U_11
_atom_site_aniso_U_22
_atom_site_aniso_U_33
_atom_site_aniso_U_12
_atom_site_aniso_U_13
_atom_site_aniso_U_23
K1 K1+ 0.0363(7) 0.0275(6) 0.0321(6) -0.0019(5) 0.0027(5) 0.0026(5)
K2 K1+ 0.0384(8) 0.0576(11) 0.0387(8) 0.0146(8) -0.0011(8) -0.0058(7)
Cr1 Cr6+ 0.0290(5) 0.0171(4) 0.0299(4) 0.0000(3) -0.0012(4) -0.0014(3)
S1 S6+ 0.0235(5) 0.0151(4) 0.0230(5) -0.0012(4) -0.0012(5) 0.0020(4)
O1 O2- 0.033(2) 0.029(2) 0.033(2) 0.0004(18) 0.002(2) 0.0056(17)
O2 O2- 0.033(2) 0.033(2) 0.036(2) -0.005(2) -0.001(2) -0.0021(19)
O3 O2- 0.061(3) 0.033(2) 0.045(3) 0.006(3) 0.011(3) -0.015(2)
O4 O2- 0.035(2) 0.0177(17) 0.046(3) -0.0013(16) -0.002(2) 0.0039(18)
O5 O2- 0.056(4) 0.040(3) 0.033(2) 0.004(3) 0.012(2) 0.013(2)
O6 O2- 0.039(3) 0.042(3) 0.049(3) -0.010(2) -0.004(3) -0.014(3)
O7 O2- 0.037(3) 0.041(3) 0.038(3) 0.015(2) -0.001(2) 0.002(2)
#End of data_417522-ICSD


