data_279588-ICSD
#?2014 by Fachinformationszentrum Karlsruhe, and the U.S. Secretary of 
#Commerce on behalf of the United States.  All rights reserved.
_database_code_ICSD                279588
_audit_creation_date               2002/10/01
_chemical_name_systematic          'Strontium Magnesium Fluoride'
_chemical_formula_structural       'Sr Mg F4'
_chemical_formula_sum              'F4 Mg1 Sr1'
_publ_section_title
;
Monoclinic superstructure of Sr Mg F4 with perovskite-type slabs
;
loop_
_citation_id
_citation_journal_abbrev
_citation_year
_citation_journal_volume
_citation_page_first
_citation_page_last
_citation_journal_id_ASTM
primary 'Acta Crystallographica, Section C: Crystal Structure Communications'
 2001 57 784 786 ACSCEE
_publ_author_name
;
Ishizawa, N.;Suda, K.;Etschmann, B.E.;Oya, T.;Kodama, N.
;
_cell_length_a                     7.8249(8)
_cell_length_b                     7.4930(7)
_cell_length_c                     16.9248(17)
_cell_angle_alpha                  90.
_cell_angle_beta                   90.
_cell_angle_gamma                  105.041(11)
_cell_volume                       958.34
_cell_formula_units_Z              12
_symmetry_space_group_name_H-M     'P 1 1 21'
_symmetry_Int_Tables_number        4
_refine_ls_R_factor_all            .044
loop_
_symmetry_equiv_pos_site_id
_symmetry_equiv_pos_as_xyz
  1	'-x, -y, z+.5'
  2	'x, y, z'
loop_
_atom_type_symbol
_atom_type_oxidation_number
F1-	-1
Mg2+	2
Sr2+	2
loop_
_atom_site_label
_atom_site_type_symbol
_atom_site_symmetry_multiplicity
_atom_site_Wyckoff_symbol
_atom_site_fract_x
_atom_site_fract_y
_atom_site_fract_z
_atom_site_occupancy
_atom_site_attached_hydrogens
Sr1 Sr2+ 2 a 0.18015(12) 0.2084(2) 0.51587(7) 1. 0 
Sr2 Sr2+ 2 a 0.33110(9) 0.81636(15) 0.67731(9) 1. 0 
Sr3 Sr2+ 2 a 0.83449(8) 0.83076(12) 0.33420(8) 1. 0 
Sr4 Sr2+ 2 a 0.66509(10) 0.16189(12) 0.5 1. 0 
Sr5 Sr2+ 2 a 0.83511(9) 0.83651(17) 0.67013(8) 1. 0 
Sr6 Sr2+ 2 a 0.31952(10) 0.77828(12) 0.35089(7) 1. 0 
Mg1 Mg2+ 2 a 0.5423(3) 0.6592(4) 0.52297(16) 1. 0 
Mg2 Mg2+ 2 a 0.5403(3) 0.6683(3) 0.19079(16) 1. 0 
Mg3 Mg2+ 2 a 0.4568(3) 0.3296(3) 0.35532(16) 1. 0 
Mg4 Mg2+ 2 a 0.0379(3) 0.6634(4) 0.52280(15) 1. 0 
Mg5 Mg2+ 2 a 0.0432(3) 0.6633(3) 0.19041(16) 1. 0 
Mg6 Mg2+ 2 a 0.9579(3) 0.3290(3) 0.35714(16) 1. 0 
F1 F1- 2 a 0.5964(5) 0.8285(6) 0.4314(3) 1. 0 
F2 F1- 2 a 0.5008(6) 0.4286(5) 0.4660(3) 1. 0 
F3 F1- 2 a 0.5905(6) 0.8897(5) 0.5874(3) 1. 0 
F4 F1- 2 a 0.4749(6) 0.5519(5) 0.6293(3) 1. 0 
F5 F1- 2 a 0.5656(6) 0.8222(6) 0.0958(3) 1. 0 
F6 F1- 2 a 0.5779(6) 0.8994(5) 0.2561(3) 1. 0 
F7 F1- 2 a 0.5463(5) 0.5698(5) 0.3029(2) 1. 0 
F8 F1- 2 a 0.4114(6) 0.2036(6) 0.2564(3) 1. 0 
F9 F1- 2 a 0.3749(5) 0.0934(5) 0.4186(3) 1. 0 
F10 F1- 2 a 0.7898(5) 0.6663(7) 0.5418(3) 1. 0 
F11 F1- 2 a 0.2826(5) 0.6224(6) 0.2042(3) 1. 0 
F12 F1- 2 a 0.2190(5) 0.3753(6) 0.3670(3) 1. 0 
F13 F1- 2 a 0.0584(5) 0.7965(6) 0.4248(3) 1. 0 
F14 F1- 2 a 0.9613(6) 0.4252(5) 0.4700(3) 1. 0 
F15 F1- 2 a 0.1094(5) 0.9048(5) 0.5835(3) 1. 0 
F16 F1- 2 a 0.9534(5) 0.4351(5) 0.1329(3) 1. 0 
F17 F1- 2 a 0.0965(5) 0.8283(5) 0.0972(3) 1. 0 
F18 F1- 2 a 0.1196(6) 0.8921(5) 0.2565(3) 1. 0 
F19 F1- 2 a 0.9808(5) 0.5533(5) 0.2970(3) 1. 0 
F20 F1- 2 a 0.9274(6) 0.1631(6) 0.2637(3) 1. 0 
F21 F1- 2 a 0.9246(5) 0.0993(5) 0.4220(3) 1. 0 
F22 F1- 2 a 0.2901(6) 0.6563(7) 0.5101(3) 1. 0 
F23 F1- 2 a 0.8038(5) 0.7162(6) 0.1893(3) 1. 0 
F24 F1- 2 a 0.6963(5) 0.2872(6) 0.3586(3) 1. 0 

loop_
_atom_site_aniso_label
_atom_site_aniso_type_symbol
_atom_site_aniso_U_11
_atom_site_aniso_U_22
_atom_site_aniso_U_33
_atom_site_aniso_U_12
_atom_site_aniso_U_13
_atom_site_aniso_U_23
Sr1 Sr2+ 0.0076(4) 0.0213(5) 0.0131(4) 0.0051(3) 0.0012(2) 0.0061(2)
Sr2 Sr2+ 0.0067(3) 0.0165(3) 0.0145(3) 0.0039(2) -.0007(3) -.0068(3)
Sr3 Sr2+ 0.0065(3) 0.0119(3) 0.0087(3) 0.0028(2) -.0004(2) -.0024(3)
Sr4 Sr2+ 0.0079(3) 0.0110(3) 0.0086(3) 0.0030(2) 0.0014(3) 0.0020(3)
Sr5 Sr2+ 0.0078(3) 0.0236(6) 0.0084(4) 0.0066(3) -.0008(2) -.0056(3)
Sr6 Sr2+ 0.0082(4) 0.0157(4) 0.0106(4) 0.0043(3) -.0012(2) -.0027(3)
Mg1 Mg2+ 0.0071(12) 0.0085(11) 0.0071(10) 0.0022(9) -.0004(8) 0.0000(8)
Mg2 Mg2+ 0.0076(10) 0.0072(10) 0.0081(12) 0.0024(8) 0.0000(8) -.0010(9)
Mg3 Mg2+ 0.0067(11) 0.0072(10) 0.0072(11) 0.0011(8) -.0003(9) -.0005(9)
Mg4 Mg2+ 0.0066(12) 0.0090(12) 0.0068(10) 0.0012(9) 0.0007(8) 0.0007(8)
Mg5 Mg2+ 0.0057(10) 0.0078(10) 0.0076(11) 0.0011(7) 0.0008(8) -.0003(9)
Mg6 Mg2+ 0.0059(11) 0.0074(10) 0.0077(11) 0.0010(8) 0.0000(8) -.0001(9)
F1 F1- 0.0093(19) 0.015(2) 0.011(2) 0.0000(15) 0.0013(14) -.0010(15)
F2 F1- 0.020(2) 0.0087(17) 0.011(2) 0.0031(14) -.0013(15) -.0042(14)
F3 F1- 0.016(2) 0.0077(19) 0.013(2) -.0004(15) -.0023(15) -.0020(15)
F4 F1- 0.032(3) 0.0123(19) 0.015(2) 0.0100(17) 0.0080(18) 0.0035(15)
F5 F1- 0.016(2) 0.018(2) 0.011(2) 0.0044(17) 0.0020(16) 0.0026(16)
F6 F1- 0.019(2) 0.008(2) 0.012(2) 0.0052(16) 0.0005(16) 0.0012(14)
F7 F1- 0.019(2) 0.0092(18) 0.011(2) 0.0010(15) -.0012(15) 0.0033(13)
F8 F1- 0.016(2) 0.020(2) 0.012(2) 0.0055(17) -.0036(15) -.0042(16)
F9 F1- 0.017(2) 0.009(2) 0.010(2) -.0013(15) -.0031(16) -.0007(14)
F10 F1- 0.011(2) 0.019(2) 0.020(2) 0.0064(16) -.0028(16) -.0064(18)
F11 F1- 0.0064(18) 0.029(2) 0.020(2) 0.0071(15) 0.0008(15) -.0019(18)
F12 F1- 0.010(2) 0.026(2) 0.020(2) 0.0065(16) 0.0002(17) 0.0013(18)
F13 F1- 0.015(2) 0.018(2) 0.013(2) 0.0096(16) 0.0003(15) 0.0084(15)
F14 F1- 0.022(2) 0.0092(18) 0.013(2) -.0004(15) 0.0003(16) -.0062(15)
F15 F1- 0.015(2) 0.005(2) 0.015(2) 0.0015(15) -.0032(15) 0.0006(14)
F16 F1- 0.021(2) 0.0103(18) 0.015(2) -.0019(15) 0.0046(16) -.0078(15)
F17 F1- 0.0103(19) 0.013(2) 0.011(2) 0.0059(15) 0.0006(15) 0.0039(15)
F18 F1- 0.014(2) 0.010(2) 0.013(2) -.0003(15) -.0007(15) -.0005(14)
F19 F1- 0.021(2) 0.0085(17) 0.014(2) 0.0036(14) 0.0046(16) 0.0066(14)
F20 F1- 0.016(2) 0.011(2) 0.012(2) 0.0068(16) 0.0013(15) -.0034(15)
F21 F1- 0.0107(18) 0.0052(19) 0.0113(19) 0.0032(14) 0.0015(14) 0.0003(13)
F22 F1- 0.0076(19) 0.031(3) 0.025(3) 0.0084(17) 0.0013(16) -.001(2)
F23 F1- 0.0097(17) 0.017(2) 0.018(2) 0.0065(14) -.0002(16) -.0007(18)
F24 F1- 0.0050(17) 0.022(2) 0.023(2) 0.0051(14) 0.0013(16) 0.0067(19)
#End of data_279588-ICSD


