data_16439-ICSD
#?2014 by Fachinformationszentrum Karlsruhe, and the U.S. Secretary of 
#Commerce on behalf of the United States.  All rights reserved.
_database_code_ICSD                16439
_audit_creation_date               1980/12/31
_audit_update_record               2014/08/01
_chemical_name_systematic
;
Tripotassium Cis-dichlorohydrogenbis(sulfato(IV))platinate(II)
;
_chemical_formula_structural       'K3 (Pt (S O3)2 H Cl2)'
_chemical_formula_sum              'H1 Cl2 K3 O6 Pt1 S2'
_publ_section_title
;
Tripotassium cis-Dichloro(hydrogendisulfito)platinate(II), K3 (Pt (S 
O3)2 H Cl2). A Case of an Extremely short Hydrogen Bond O..H..O
;
loop_
_citation_id
_citation_journal_abbrev
_citation_year
_citation_journal_volume
_citation_page_first
_citation_page_last
_citation_journal_id_ASTM
primary 'Acta Crystallographica B (24,1968-38,1982)' 1980 36 2545 2550 ACBCAR
_publ_author_name
;
Kehr, W.G.;Breitinger, D.K.;Bauer, G.
;
_cell_length_a                     15.134(3)
_cell_length_b                     10.490(3)
_cell_length_c                     7.054(1)
_cell_angle_alpha                  90.
_cell_angle_beta                   90.
_cell_angle_gamma                  90.
_cell_volume                       1119.86
_cell_formula_units_Z              4
_symmetry_space_group_name_H-M     'C m c 21'
_symmetry_Int_Tables_number        36
_refine_ls_R_factor_all            .0206
loop_
_symmetry_equiv_pos_site_id
_symmetry_equiv_pos_as_xyz
  1	'x, -y, z+.5'
  2	'-x, -y, z+.5'
  3	'-x, y, z'
  4	'x, y, z'
  5	'x+.5, -y+.5, z+.5'
  6	'-x+.5, -y+.5, z+.5'
  7	'-x+.5, y+.5, z'
  8	'x+.5, y+.5, z'
loop_
_atom_type_symbol
_atom_type_oxidation_number
Cl1-	-1
H1+	1
K1+	1
O2-	-2
Pt2+	2
S4+	4
loop_
_atom_site_label
_atom_site_type_symbol
_atom_site_symmetry_multiplicity
_atom_site_Wyckoff_symbol
_atom_site_fract_x
_atom_site_fract_y
_atom_site_fract_z
_atom_site_occupancy
_atom_site_attached_hydrogens
_atom_site_U_iso_or_equiv
Pt1 Pt2+ 4 a 0 0.24626(1) 0.25 1. 0 0 
Cl1 Cl1- 8 b 0.1098(1) 0.1196(1) 0.4038(2) 1. 0 0 
S1 S4+ 8 b 0.1093(1) 0.3484(1) 0.0964(2) 1. 0 0 
K1 K1+ 8 b 0.2201(1) 0.3606(1) 0.6012(1) 1. 0 0 
K2 K1+ 4 a 0 0.1237(1) 0.7826(4) 1. 0 0 
O1 O2- 8 b 0.1882(2) 0.3694(2) 0.2116(4) 1. 0 0 
O2 O2- 8 b 0.1304(3) 0.2726(4) -.0721(6) 1. 0 0 
O3 O2- 8 b 0.0787(2) 0.4805(3) 0.0319(5) 1. 0 0 
H1 H1+ 4 a 0 0.4797(13) 0.0441(13) 1. 0 0.0500(13) 

loop_
_atom_site_aniso_label
_atom_site_aniso_type_symbol
_atom_site_aniso_U_11
_atom_site_aniso_U_22
_atom_site_aniso_U_33
_atom_site_aniso_U_12
_atom_site_aniso_U_13
_atom_site_aniso_U_23
Pt1 Pt2+ 0.0110(1) 0.0146(1) 0.0131(1) 0 0.0007(1) 0
Cl1 Cl1- 0.0189(3) 0.0250(4) 0.0287(4) 0.0024(3) 0.0070(3) -.0020(3)
S1 S4+ 0.0122(3) 0.0195(4) 0.0179(4) -.0020(3) 0.0011(3) 0.0017(3)
K1 K1+ 0.0255(4) 0.0285(4) 0.0255(4) 0.0072(4) -.0001(3) -.0027(3)
K2 K1+ 0.0257(5) 0.0269(5) 0.0220(5) 0 -.0045(4) 0
O1 O2- 0.0289(9) 0.0259(9) 0.0209(10) -.0026(8) -.0009(8) -.0016(9)
O2 O2- 0.0302(11) 0.0461(10) 0.0274(11) -.0134(11) -.0146(11) 0.0095(11)
O3 O2- 0.0186(8) 0.0279(10) 0.0540(11) -.0022(8) 0.0197(10) -.0043(10)
#End of data_16439-ICSD


