data_245460-ICSD
#?2014 by Fachinformationszentrum Karlsruhe, and the U.S. Secretary of 
#Commerce on behalf of the United States.  All rights reserved.
_database_code_ICSD                245460
_audit_creation_date               2008/02/01
_chemical_name_systematic          'Lithium Sodium Heptaoxotetraborate'
_chemical_formula_structural       'Li Na B4 O7'
_chemical_formula_sum              'B4 Li1 Na1 O7'
_publ_section_title
;
Crystal structure and phonon properties of noncentrosymmetric Li Na 
B4 O7
;
loop_
_citation_id
_citation_journal_abbrev
_citation_year
_citation_journal_volume
_citation_journal_issue
_citation_page_first
_citation_page_last
_citation_journal_id_ASTM
primary 'Journal of Solid State Chemistry' 2007 180 2 410 419 JSSCBI
_publ_author_name
;
Maczka, M.;Waskowska, A.;Majchrowski, A.;Zmija, J.;Hanuza, 
J.;Peterson, G.A.;Keszler, D.A.
;
_cell_length_a                     13.325(3)
_cell_length_b                     14.099(3)
_cell_length_c                     10.7243(2)
_cell_angle_alpha                  90.
_cell_angle_beta                   90.
_cell_angle_gamma                  90.
_cell_volume                       2014.77
_cell_formula_units_Z              16
_symmetry_space_group_name_H-M     'F d d 2'
_symmetry_Int_Tables_number        43
_refine_ls_R_factor_all            .0438
loop_
_symmetry_equiv_pos_site_id
_symmetry_equiv_pos_as_xyz
  1	'x+.25, -y+.25, z+.25'
  2	'-x+.25, y+.25, z+.25'
  3	'-x, -y, z'
  4	'x, y, z'
  5	'x+.25, -y+.75, z+.75'
  6	'x+.75, -y+.25, z+.75'
  7	'x+.75, -y+.75, z+.25'
  8	'-x+.25, y+.75, z+.75'
  9	'-x+.75, y+.25, z+.75'
 10	'-x+.75, y+.75, z+.25'
 11	'-x, -y+.5, z+.5'
 12	'-x+.5, -y, z+.5'
 13	'-x+.5, -y+.5, z'
 14	'x, y+.5, z+.5'
 15	'x+.5, y, z+.5'
 16	'x+.5, y+.5, z'
loop_
_atom_type_symbol
_atom_type_oxidation_number
B3+	3
Li1+	1
Na1+	1
O2-	-2
loop_
_atom_site_label
_atom_site_type_symbol
_atom_site_symmetry_multiplicity
_atom_site_Wyckoff_symbol
_atom_site_fract_x
_atom_site_fract_y
_atom_site_fract_z
_atom_site_occupancy
_atom_site_attached_hydrogens
_atom_site_U_iso_or_equiv
O1 O2- 16 b 0.0726(1) 0.2017(1) 0.0100(1) 1. 0 0.014(1) 
O2 O2- 8 a 0.25 0.25 -0.0026(1) 1. 0 0.013(1) 
O3 O2- 16 b 0.1954 0.1410(1) 0.1643(1) 1. 0 0.015(1) 
O4 O2- 16 b 0.1351 0.3034(1) 0.1676(1) 1. 0 0.014(1) 
B1 B3+ 16 b 0.1645(1) 0.2230(1) 0.0803(1) 1. 0 0.011(1) 
B2 B3+ 16 b 0.0449(1) 0.1215(1) -0.0523(2) 1. 0 0.011(1) 
O5 O2- 16 b 0.2053(1) 0.0827(1) 0.5286(1) 1. 0 0.012(1) 
O6 O2- 8 a 0.25 0.25 0.5143(1) 1. 0 0.010(1) 
O7 O2- 16 b 0.2900(1) 0.1526(1) 0.7021(1) 1. 0 0.012(1) 
O8 O2- 16 b 0.1198(1) 0.2039(1) 0.6641(1) 1. 0 0.012(1) 
B3 B3+ 16 b 0.2154(1) 0.1728(1) 0.5974(1) 1. 0 0.009(1) 
B4 B3+ 16 b 0.1261(1) 0.0442(1) 0.4656(1) 1. 0 0.009(1) 
Na1 Na1+ 16 b 0.1012(1) 0.2391(1) 0.3750(1) 1. 0 0.026(1) 
Li1 Li1+ 16 b 0.0045(2) 0.3597(3) 0.1243(4) 1. 0 0.041(1) 

#End of data_245460-ICSD


