data_71018-ICSD
#?2014 by Fachinformationszentrum Karlsruhe, and the U.S. Secretary of 
#Commerce on behalf of the United States.  All rights reserved.
_database_code_ICSD                71018
_audit_creation_date               1993/01/06
_audit_update_record               2012/02/01
_chemical_name_systematic          'Zinc Sulfate(VI)'
_chemical_formula_structural       'Zn (S O4)'
_chemical_formula_sum              'O4 S1 Zn1'
_chemical_name_mineral             Zinkosite
_publ_section_title
;
Crystal structure refinements of synthetic chalcocyanite (Cu S O4) 
and zincosite (Zn S O4)
;
loop_
_citation_id
_citation_journal_abbrev
_citation_year
_citation_journal_volume
_citation_page_first
_citation_page_last
_citation_journal_id_ASTM
primary 'Mineralogy and Petrology' 1988 39 201 209 MIPEE9
2 'Zeitschrift fuer Anorganische und Allgemeine Chemie (1950) (DE)'
 1979 455 16 28 ZAACAB
_publ_author_name                  'Wildner, M.;Giester, G.'
_cell_length_a                     8.604(5)
_cell_length_b                     6.746(5)
_cell_length_c                     4.774(3)
_cell_angle_alpha                  90.
_cell_angle_beta                   90.
_cell_angle_gamma                  90.
_cell_volume                       277.1
_cell_formula_units_Z              4
_symmetry_space_group_name_H-M     'P n m a'
_symmetry_Int_Tables_number        62
_refine_ls_R_factor_all            .037
loop_
_symmetry_equiv_pos_site_id
_symmetry_equiv_pos_as_xyz
  1	'x+.5, y, -z+.5'
  2	'x, -y+.5, z'
  3	'-x+.5, y+.5, z+.5'
  4	'-x, -y, -z'
  5	'-x+.5, -y, z+.5'
  6	'-x, y+.5, -z'
  7	'x+.5, -y+.5, -z+.5'
  8	'x, y, z'
loop_
_atom_type_symbol
_atom_type_oxidation_number
O2-	-2
S6+	6
Zn2+	2
loop_
_atom_site_label
_atom_site_type_symbol
_atom_site_symmetry_multiplicity
_atom_site_Wyckoff_symbol
_atom_site_fract_x
_atom_site_fract_y
_atom_site_fract_z
_atom_site_occupancy
_atom_site_attached_hydrogens
Zn1 Zn2+ 4 a 0 0 0 1. 0 
S1 S6+ 4 c 0.18029(7) 0.25 0.46659(13) 1. 0 
O1 O2- 4 c 0.1279(2) 0.25 0.7622(4) 1. 0 
O2 O2- 4 c 0.3545(2) 0.25 0.4522(4) 1. 0 
O3 O2- 8 d 0.1267(2) 0.0689(2) 0.3295(3) 1. 0 

loop_
_atom_site_aniso_label
_atom_site_aniso_type_symbol
_atom_site_aniso_U_11
_atom_site_aniso_U_22
_atom_site_aniso_U_33
_atom_site_aniso_U_12
_atom_site_aniso_U_13
_atom_site_aniso_U_23
Zn1 Zn2+ 0.0247(2) 0.0218(2) 0.0271(2) 0.0110(1) -0.0164(1) -0.0132(1)
S1 S6+ 0.0082(2) 0.0114(2) 0.0080(2) 0 -0.0007(2) 0
O1 O2- 0.0165(8) 0.0187(8) 0.0090(7) 0 0.0023(6) 0
O2 O2- 0.0085(7) 0.0140(8) 0.0155(8) 0 0.0008(6) 0
O3 O2- 0.0158(5) 0.0141(5) 0.0132(5) -0.0020(5) -0.0030(5) -0.0023(5)
#End of data_71018-ICSD


