data_236186-ICSD
#?2014 by Fachinformationszentrum Karlsruhe, and the U.S. Secretary of 
#Commerce on behalf of the United States.  All rights reserved.
_database_code_ICSD                236186
_audit_creation_date               2013/08/01
_chemical_name_systematic
;
Dipotassium Dihydrogen Hypodiphosphate Dihydrate
;
_chemical_formula_structural       'K2 (H2 P2 O6) (H2 O)2'
_chemical_formula_sum              'H6 K2 O8 P2'
_publ_section_title
;
Potassium salts of hypodiphosphoric acid
;
loop_
_citation_id
_citation_journal_abbrev
_citation_year
_citation_journal_volume
_citation_journal_issue
_citation_page_first
_citation_page_last
_citation_journal_id_ASTM
primary 'Acta Crystallographica, Section C: Crystal Structure Communications'
 2012 68 12 i71 i82 ACSCEE
_publ_author_name
;
Szafranowska, B.;Slepokura, K.;Lis, T.
;
_cell_length_a                     14.279(4)
_cell_length_b                     8.955(3)
_cell_length_c                     6.665(2)
_cell_angle_alpha                  90.00
_cell_angle_beta                   98.33(4)
_cell_angle_gamma                  90.00
_cell_volume                       843.25
_cell_formula_units_Z              4
_symmetry_space_group_name_H-M     'P 1 21/c 1'
_symmetry_Int_Tables_number        14
_refine_ls_R_factor_all            .0181
loop_
_symmetry_equiv_pos_site_id
_symmetry_equiv_pos_as_xyz
  1	'x, -y+.5, z+.5'
  2	'-x, -y, -z'
  3	'-x, y+.5, -z+.5'
  4	'x, y, z'
loop_
_atom_type_symbol
_atom_type_oxidation_number
H1+	1
K1+	1
O2-	-2
P4+	4
loop_
_atom_site_label
_atom_site_type_symbol
_atom_site_symmetry_multiplicity
_atom_site_Wyckoff_symbol
_atom_site_fract_x
_atom_site_fract_y
_atom_site_fract_z
_atom_site_occupancy
_atom_site_attached_hydrogens
_atom_site_U_iso_or_equiv
K1 K1+ 4 e 0.319426(11) 0.617751(17) 0.41629(2) 1 0 0.01025(4) 
K2 K1+ 4 e 0.129378(11) 0.340841(17) 0.11720(2) 1 0 0.00970(4) 
P1 P4+ 4 e 0.510538(13) 0.550009(19) 0.15075(3) 1 0 0.00624(4) 
O1 O2- 4 e 0.45688(4) 0.69650(6) 0.14135(8) 1 0 0.00940(9) 
O2 O2- 4 e 0.61618(4) 0.55739(6) 0.22338(8) 1 0 0.00950(9) 
O3 O2- 4 e 0.45786(4) 0.44064(6) 0.28213(9) 1 0 0.00966(9) 
H1 H1+ 4 e 0.4847(9) 0.3577(8) 0.305(2) 1 0 0.014 
P2 P4+ 4 e 0.060561(13) 0.565691(19) 0.56659(3) 1 0 0.00637(4) 
O4 O2- 4 e 0.12271(4) 0.47037(6) 0.71673(8) 1 0 0.01040(9) 
O5 O2- 4 e 0.02151(4) 0.70891(6) 0.64359(8) 1 0 0.00988(9) 
O6 O2- 4 e 0.11538(4) 0.59930(6) 0.37947(8) 1 0 0.00928(9) 
H2 H1+ 4 e 0.0871(9) 0.6601(12) 0.2957(16) 1 0 0.014 
O7 O2- 4 e 0.25478(4) 0.59597(7) -0.00014(9) 1 0 0.01259(10) 
H3 H1+ 4 e 0.2097(7) 0.5681(16) -0.0873(16) 1 0 0.019 
H4 H1+ 4 e 0.3010(7) 0.5544(15) -0.042(2) 1 0 0.019 
O8 O2- 4 e 0.27642(4) 0.28956(7) 0.44883(9) 1 0 0.01180(10) 
H5 H1+ 4 e 0.3102(9) 0.3257(15) 0.5508(14) 1 0 0.018 
H6 H1+ 4 e 0.3105(8) 0.2274(12) 0.399(2) 1 0 0.018 

loop_
_atom_site_aniso_label
_atom_site_aniso_type_symbol
_atom_site_aniso_U_11
_atom_site_aniso_U_22
_atom_site_aniso_U_33
_atom_site_aniso_U_12
_atom_site_aniso_U_13
_atom_site_aniso_U_23
K1 K1+ 0.00920(6) 0.01053(6) 0.01084(6) 0.00068(4) 0.00080(5) -0.00068(4)
K2 K1+ 0.00959(6) 0.00995(6) 0.00970(6) -0.00067(4) 0.00194(5) -0.00077(4)
P1 P4+ 0.00585(7) 0.00585(7) 0.00690(7) 0.00002(5) 0.00052(5) -0.00061(5)
O1 O2- 0.0098(2) 0.00620(18) 0.0119(2) 0.00129(16) 0.00057(17) -0.00099(16)
O2 O2- 0.0067(2) 0.0113(2) 0.0101(2) -0.00048(16) -0.00028(17) -0.00123(16)
O3 O2- 0.0101(2) 0.0082(2) 0.0114(2) 0.00053(16) 0.00356(18) 0.00180(16)
P2 P4+ 0.00572(7) 0.00639(7) 0.00676(7) -0.00005(5) 0.00015(5) -0.00044(5)
O4 O2- 0.0096(2) 0.0101(2) 0.0103(2) 0.00009(17) -0.00250(17) 0.00164(17)
O5 O2- 0.0102(2) 0.0085(2) 0.0109(2) 0.00066(16) 0.00130(17) -0.00294(16)
O6 O2- 0.0086(2) 0.0095(2) 0.0103(2) 0.00081(16) 0.00317(17) 0.00176(16)
O7 O2- 0.0090(2) 0.0147(2) 0.0134(2) 0.00019(18) -0.00073(18) -0.00276(19)
O8 O2- 0.0102(2) 0.0137(2) 0.0113(2) -0.00006(18) 0.00089(18) -0.00204(18)
#End of data_236186-ICSD


