data_33821-ICSD
#?2014 by Fachinformationszentrum Karlsruhe, and the U.S. Secretary of 
#Commerce on behalf of the United States.  All rights reserved.
_database_code_ICSD                33821
_audit_creation_date               1991/07/10
_audit_update_record               1999/11/30
_chemical_name_systematic          'Cesium Diaquatetrafluoroaluminate'
_chemical_formula_structural       'Cs (Al F4 (H2 O)2)'
_chemical_formula_sum              'H4 Al1 Cs1 F4 O2'
_publ_section_title
;
Zur Strukturchemie der Verbindungen Cs (M F4 (H2 O)2), (M = Al, Cr, 
Mn, Fe)
;
loop_
_citation_id
_citation_journal_abbrev
_citation_year
_citation_journal_volume
_citation_page_first
_citation_page_last
_citation_journal_id_ASTM
primary 'Zeitschrift fuer Anorganische und Allgemeine Chemie (1950) (DE)'
 1991 593 207 216 ZAACAB
_publ_author_name                  'Bentrup, U.;Massa, W.'
_cell_length_a                     8.824(3)
_cell_length_b                     6.678(1)
_cell_length_c                     10.024(3)
_cell_angle_alpha                  90.
_cell_angle_beta                   105.14(1)
_cell_angle_gamma                  90.
_cell_volume                       570.18
_cell_formula_units_Z              4
_symmetry_space_group_name_H-M     'I 1 2/a 1'
_symmetry_Int_Tables_number        15
_refine_ls_R_factor_all            .025
loop_
_symmetry_equiv_pos_site_id
_symmetry_equiv_pos_as_xyz
  1	'x+.5, -y, z'
  2	'-x, -y, -z'
  3	'-x+.5, y, -z'
  4	'x, y, z'
  5	'x, -y+.5, z+.5'
  6	'-x+.5, -y+.5, -z+.5'
  7	'-x, y+.5, -z+.5'
  8	'x+.5, y+.5, z+.5'
loop_
_atom_type_symbol
_atom_type_oxidation_number
Al3+	3
Cs1+	1
F1-	-1
H1+	1
O2-	-2
loop_
_atom_site_label
_atom_site_type_symbol
_atom_site_symmetry_multiplicity
_atom_site_Wyckoff_symbol
_atom_site_fract_x
_atom_site_fract_y
_atom_site_fract_z
_atom_site_occupancy
_atom_site_attached_hydrogens
_atom_site_U_iso_or_equiv
Cs1 Cs1+ 4 e 0.75 0.72637(3) 0.5 1. 0 0 
Al1 Al3+ 4 c 0.75 0.25 0.25 1. 0 0 
F1 F1- 8 f 0.6169(1) 0.1716(2) 0.0921(1) 1. 0 0 
F2 F1- 8 f 0.6649 0.4965 0.2297 1. 0 0 
O1 O2- 8 f 0.6050(2) 0.1641(3) 0.3539(1) 1. 0 0 
H1 H1+ 8 f 0.536(3) 0.101(5) 0.331(2) 1. 0 0.0014(5) 
H2 H1+ 8 f 0.606(5) 0.240(4) 0.436(4) 1. 0 0.0026(9) 

loop_
_atom_site_aniso_label
_atom_site_aniso_type_symbol
_atom_site_aniso_U_11
_atom_site_aniso_U_22
_atom_site_aniso_U_33
_atom_site_aniso_U_12
_atom_site_aniso_U_13
_atom_site_aniso_U_23
Cs1 Cs1+ 0.0241(1) 0.0199(1) 0.0209(1) 0 0.0073(1) 0
Al1 Al3+ 0.0122(3) 0.0179(3) 0.0100(2) 0.0025(2) 0.0024(2) 0.0008(2)
F1 F1- 0.0182(4) 0.0316(6) 0.0120(3) -.0033(4) 0.0010(3) -.0007(4)
F2 F1- 0.0261(5) 0.0232(6) 0.0271(5) 0.0101(5) 0.0045(4) 0.0024(4)
O1 O2- 0.0199(6) 0.0406(9) 0.0173(5) -.0115(6) 0.0087(4) -.0079(5)
#End of data_33821-ICSD


