data_14363-ICSD
#?2014 by Fachinformationszentrum Karlsruhe, and the U.S. Secretary of 
#Commerce on behalf of the United States.  All rights reserved.
_database_code_ICSD                14363
_audit_creation_date               1984/09/04
_audit_update_record               2006/04/01
_chemical_name_systematic          'Potassium Niobate'
_chemical_formula_structural       'K (Nb O3)'
_chemical_formula_sum              'K1 Nb1 O3'
_publ_section_title
;
The structure of potassium niobate at room temperature: The solution 
of a pseudosymmetric structure by Fourier methods
;
loop_
_citation_id
_citation_journal_abbrev
_citation_year
_citation_journal_volume
_citation_page_first
_citation_page_last
_citation_journal_id_ASTM
primary 'Acta Crystallographica (1,1948-23,1967)' 1967 22 639 648 ACCRA9
2 'Golden Book of Phase Transitions, Wroclaw' 2002 1 1 123 GBOPT5
_publ_author_name                  'Katz, L.;Megaw, H.D.'
_cell_length_a                     5.697
_cell_length_b                     3.971
_cell_length_c                     5.721
_cell_angle_alpha                  90.
_cell_angle_beta                   90.
_cell_angle_gamma                  90.
_cell_volume                       129.42
_cell_formula_units_Z              2
_symmetry_space_group_name_H-M     'B m m 2'
_symmetry_Int_Tables_number        38
_refine_ls_R_factor_all            .097
loop_
_symmetry_equiv_pos_site_id
_symmetry_equiv_pos_as_xyz
  1	'-x, y, z'
  2	'x, -y, z'
  3	'-x, -y, z'
  4	'x, y, z'
  5	'-x+.5, y, z+.5'
  6	'x+.5, -y, z+.5'
  7	'-x+.5, -y, z+.5'
  8	'x+.5, y, z+.5'
loop_
_atom_type_symbol
_atom_type_oxidation_number
K1+	1
Nb5+	5
O2-	-2
loop_
_atom_site_label
_atom_site_type_symbol
_atom_site_symmetry_multiplicity
_atom_site_Wyckoff_symbol
_atom_site_fract_x
_atom_site_fract_y
_atom_site_fract_z
_atom_site_occupancy
_atom_site_attached_hydrogens
Nb1 Nb5+ 2 a 0 0 0 1. 0 
K1 K1+ 2 b 0 0.5 0.517(1) 1. 0 
O1 O2- 2 b 0 0.5 0.021(2) 1. 0 
O2 O2- 4 d 0.254(2) 0 0.285(2) 1. 0 

#End of data_14363-ICSD


