data_81327-ICSD
#?2014 by Fachinformationszentrum Karlsruhe, and the U.S. Secretary of 
#Commerce on behalf of the United States.  All rights reserved.
_database_code_ICSD                81327
_audit_creation_date               1997/11/05
_chemical_name_systematic          'Disilver Zinc Silicate'
_chemical_formula_structural       'Ag2 Zn (Si O4)'
_chemical_formula_sum              'Ag2 O4 Si1 Zn1'
_publ_section_title
;
Synthesis, structure and conductivity of Ag2 Zn Si O4, Ag2 Zn Ge O4 
and Ag2 Be Si O4
;
loop_
_citation_id
_citation_journal_abbrev
_citation_year
_citation_journal_volume
_citation_page_first
_citation_page_last
_citation_journal_id_ASTM
primary 'Solid State Ionics' 1995 78 259 267 SSIOD3
_publ_author_name                  'Vaivars, G.;Grins, J.;Hoerlin, T.'
_cell_length_a                     6.9732(6)
_cell_length_b                     5.4967(4)
_cell_length_c                     5.4199(4)
_cell_angle_alpha                  90.
_cell_angle_beta                   89.562(8)
_cell_angle_gamma                  90.
_cell_volume                       207.74
_cell_formula_units_Z              2
_symmetry_space_group_name_H-M     'P 1 n 1'
_symmetry_Int_Tables_number        7
_refine_ls_R_factor_all            .029
loop_
_symmetry_equiv_pos_site_id
_symmetry_equiv_pos_as_xyz
  1	'x+.5, -y, z+.5'
  2	'x, y, z'
loop_
_atom_type_symbol
_atom_type_oxidation_number
Ag1+	1
O2-	-2
Si4+	4
Zn2+	2
loop_
_atom_site_label
_atom_site_type_symbol
_atom_site_symmetry_multiplicity
_atom_site_Wyckoff_symbol
_atom_site_fract_x
_atom_site_fract_y
_atom_site_fract_z
_atom_site_occupancy
_atom_site_attached_hydrogens
_atom_site_B_iso_or_equiv
Ag1 Ag1+ 2 a 0.75 0.700(2) 0 1. 0 1.7(2) 
Ag2 Ag1+ 2 a 0.500(5) 0.198(4) 0.001(7) 1. 0 1.7(2) 
Zn1 Zn2+ 2 a 0.000(8) 0.192(6) 0.001(10) 1. 0 1.1(5) 
Si1 Si4+ 2 a 0.252(11) 0.698(9) 0.022(13) 1. 0 0.8(2) 
O1 O2- 2 a 0.712(12) 0.587(9) 0.429(13) 1. 0 0.6(2) 
O2 O2- 2 a 0.566(9) 0.150(9) 0.440(12) 1. 0 0.6(2) 
O3 O2- 2 a 0.950(9) 0.212(9) 0.352(12) 1. 0 0.6(2) 
O4 O2- 2 a 0.299(9) 0.705(11) 0.303(13) 1. 0 0.6(2) 

#End of data_81327-ICSD


