data_424941-ICSD
#?2014 by Fachinformationszentrum Karlsruhe, and the U.S. Secretary of 
#Commerce on behalf of the United States.  All rights reserved.
_database_code_ICSD                424941
_audit_creation_date               2013/08/01
_chemical_name_systematic
;
Trilithium Manganese(III) Bis(fluorophosphate) Difluoride
;
_chemical_formula_structural       'Li3 Mn (P O3 F)2 F2'
_chemical_formula_sum              'F4 Li3 Mn1 O6 P2'
_publ_section_title
;
Manganese(III) fluorophosphate frameworks
;
loop_
_citation_id
_citation_journal_abbrev
_citation_year
_citation_journal_volume
_citation_journal_issue
_citation_page_first
_citation_page_last
_citation_journal_id_ASTM
primary 'Dalton Transactions' 2013 42 6 2302 2308 DTARAF
_publ_author_name
;
Armstrong, J.A.;Williams, E.R.;Weller, M.T.
;
_cell_length_a                     6.333(5)
_cell_length_b                     7.395(5)
_cell_length_c                     7.575(5)
_cell_angle_alpha                  90.00
_cell_angle_beta                   90.947(11)
_cell_angle_gamma                  90.00
_cell_volume                       354.71
_cell_formula_units_Z              2
_symmetry_space_group_name_H-M     'P 1 21/c 1'
_symmetry_Int_Tables_number        14
_refine_ls_R_factor_all            .0456
loop_
_symmetry_equiv_pos_site_id
_symmetry_equiv_pos_as_xyz
  1	'x, -y+.5, z+.5'
  2	'-x, -y, -z'
  3	'-x, y+.5, -z+.5'
  4	'x, y, z'
loop_
_atom_type_symbol
_atom_type_oxidation_number
F1-	-1
Li1+	1
Mn3+	3
O2-	-2
P5+	5
loop_
_atom_site_label
_atom_site_type_symbol
_atom_site_symmetry_multiplicity
_atom_site_Wyckoff_symbol
_atom_site_fract_x
_atom_site_fract_y
_atom_site_fract_z
_atom_site_occupancy
_atom_site_attached_hydrogens
_atom_site_U_iso_or_equiv
F1 F1- 4 e 0.2301(3) 0.1110(3) 0.6115(3) 1 0 0.0084(4) 
Li1 Li1+ 4 e 0.2595(11) 0.2638(11) 0.3245(11) 1 0 0.0199(15) 
Li2 Li1+ 2 d 0.5000 0.0000 0.5000 1 0 0.0127(18) 
Mn1 Mn3+ 2 c 0.0000 0.0000 0.5000 1 0 0.0064(2) 
P1 P5+ 4 e 0.25097(14) 0.65974(13) 0.63886(12) 1 0 0.0068(2) 
F2 F1- 4 e 0.2384(4) 0.5269(3) 0.4780(3) 1 0 0.0129(5) 
O1 O2- 4 e 0.2357(4) -0.0405(4) 0.2996(3) 1 0 0.0094(5) 
O2 O2- 4 e -0.0506(4) 0.2253(4) 0.3836(3) 1 0 0.0086(5) 
O3 O2- 4 e 0.5503(4) 0.2369(4) 0.3794(3) 1 0 0.0097(5) 

loop_
_atom_site_aniso_label
_atom_site_aniso_type_symbol
_atom_site_aniso_U_11
_atom_site_aniso_U_22
_atom_site_aniso_U_33
_atom_site_aniso_U_12
_atom_site_aniso_U_13
_atom_site_aniso_U_23
F1 F1- 0.0073(9) 0.0077(10) 0.0101(10) -0.0001(8) -0.0008(8) -0.0006(8)
Li1 Li1+ 0.007(3) 0.027(4) 0.025(4) 0.001(3) -0.003(3) 0.011(3)
Li2 Li1+ 0.009(4) 0.011(4) 0.017(5) 0.002(3) 0.000(4) 0.000(4)
Mn1 Mn3+ 0.0054(4) 0.0059(4) 0.0080(4) -0.0004(3) 0.0000(3) 0.0007(3)
P1 P5+ 0.0063(4) 0.0066(4) 0.0075(4) 0.0004(3) 0.0000(3) 0.0004(3)
F2 F1- 0.0143(11) 0.0131(11) 0.0113(10) 0.0003(9) -0.0006(9) -0.0029(8)
O1 O2- 0.0076(11) 0.0116(13) 0.0089(12) -0.0022(10) 0.0013(9) -0.0034(10)
O2 O2- 0.0076(11) 0.0076(12) 0.0105(12) 0.0007(9) -0.0005(9) 0.0033(9)
O3 O2- 0.0065(11) 0.0107(12) 0.0120(12) 0.0012(10) 0.0004(9) 0.0020(10)
#End of data_424941-ICSD


