data_75073-ICSD
#?2014 by Fachinformationszentrum Karlsruhe, and the U.S. Secretary of 
#Commerce on behalf of the United States.  All rights reserved.
_database_code_ICSD                75073
_audit_creation_date               1995/10/17
_chemical_name_systematic
;
Dipotassium Tetrayttrium Ditin(IV) Sulfide
;
_chemical_formula_structural       'K2 Y4 Sn2 S11'
_chemical_formula_sum              'K2 S11 Sn2 Y4'
_publ_section_title
;
Synthesis of the new quaternary sulfides K2Y4Sn2S11 and BaLnAgS3 
(Ln=Er,Y,Gd) and the structures of K2Y4Sn2S11 and BaErAgS3
;
loop_
_citation_id
_citation_journal_abbrev
_citation_year
_citation_journal_volume
_citation_page_first
_citation_page_last
_citation_journal_id_ASTM
primary 'Journal of Solid State Chemistry' 1994 110 156 161 JSSCBI
_publ_author_name                  'Wu, P.;Ibers, J.A.'
_cell_length_a                     8.587(1)
_cell_length_b                     8.587(1)
_cell_length_c                     27.892(4)
_cell_angle_alpha                  90.
_cell_angle_beta                   90.
_cell_angle_gamma                  90.
_cell_volume                       2056.66
_cell_formula_units_Z              4
_symmetry_space_group_name_H-M     'P 4/n c c Z'
_symmetry_Int_Tables_number        130
_refine_ls_R_factor_all            .034
loop_
_symmetry_equiv_pos_site_id
_symmetry_equiv_pos_as_xyz
  1	'y+.5, x+.5, -z+.5'
  2	'-y, x+.5, -z'
  3	'y+.5, -x, -z'
  4	'-y, -x, -z+.5'
  5	'x+.5, y+.5, -z'
  6	'-x, y+.5, -z+.5'
  7	'x+.5, -y, -z+.5'
  8	'-x, -y, -z'
  9	'-y+.5, -x+.5, z+.5'
 10	'y, -x+.5, z'
 11	'-y+.5, x, z'
 12	'y, x, z+.5'
 13	'-x+.5, -y+.5, z'
 14	'x, -y+.5, z+.5'
 15	'-x+.5, y, z+.5'
 16	'x, y, z'
loop_
_atom_type_symbol
_atom_type_oxidation_number
K1+	1
S2-	-2
Sn4+	4
Y3+	3
loop_
_atom_site_label
_atom_site_type_symbol
_atom_site_symmetry_multiplicity
_atom_site_Wyckoff_symbol
_atom_site_fract_x
_atom_site_fract_y
_atom_site_fract_z
_atom_site_occupancy
_atom_site_attached_hydrogens
_atom_site_U_iso_or_equiv
Sn1 Sn4+ 8 e 0.75 0.25 0.1908(1) 1. 0 0.007(1) 
Y1 Y3+ 16 g 0.1439(1) 0.5516(1) 0.0549(1) 1. 0 0.006(1) 
K1 K1+ 4 c 0.25 0.25 0.1966(1) 1. 0 0.016(1) 
K2 K1+ 4 c 0.25 0.25 0.3724(1) 1. 0 0.018(1) 
S1 S2- 16 g 0.0888(2) 0.5733(2) 0.1489(1) 1. 0 0.010(1) 
S2 S2- 16 g 0.6460(1) 0.0574(2) 0.0451(1) 1. 0 0.007(1) 
S3 S2- 8 f 0.3977(1) 0.6023(1) 0.25 1. 0 0.011(1) 
S4 S2- 4 c 0.25 0.25 0.0588(1) 1. 0 0.008(1) 

#End of data_75073-ICSD


