data_30616-ICSD
#?2014 by Fachinformationszentrum Karlsruhe, and the U.S. Secretary of 
#Commerce on behalf of the United States.  All rights reserved.
_database_code_ICSD                30616
_audit_creation_date               1980/01/01
_audit_update_record               2010/08/01
_chemical_name_systematic
;
Trimagnesium Chlorotridecaoxoheptaborate - Lt
;
_chemical_formula_structural       'Mg3 (B7 O13 Cl)'
_chemical_formula_sum              'B7 Cl1 Mg3 O13'
_chemical_name_mineral             'Boracite low'
_publ_section_title                'The crystal structure of Boracite'
loop_
_citation_id
_citation_journal_abbrev
_citation_year
_citation_journal_volume
_citation_page_first
_citation_page_last
_citation_journal_id_ASTM
primary 'Acta Crystallographica (1,1948-23,1967)' 1951 4 310 316 ACCRA9
_publ_author_name                  'Ito, T.;Morimoto, N.;Sadanaga, R.'
_cell_length_a                     8.54
_cell_length_b                     8.54
_cell_length_c                     12.07
_cell_angle_alpha                  90.
_cell_angle_beta                   90.
_cell_angle_gamma                  90.
_cell_volume                       880.28
_cell_formula_units_Z              4
_symmetry_space_group_name_H-M     'P c a 21'
_symmetry_Int_Tables_number        29
_refine_ls_R_factor_all            .18
loop_
_symmetry_equiv_pos_site_id
_symmetry_equiv_pos_as_xyz
  1	'x+.5, -y, z'
  2	'-x+.5, y, z+.5'
  3	'-x, -y, z+.5'
  4	'x, y, z'
loop_
_atom_type_symbol
_atom_type_oxidation_number
B3+	3
Cl1-	-1
Mg2+	2
O2-	-2
loop_
_atom_site_label
_atom_site_type_symbol
_atom_site_symmetry_multiplicity
_atom_site_Wyckoff_symbol
_atom_site_fract_x
_atom_site_fract_y
_atom_site_fract_z
_atom_site_occupancy
_atom_site_attached_hydrogens
O1 O2- 4 a 0.25 0.25 0 1. 0 
O2 O2- 4 a 0.332 -.028 0.479 1. 0 
O3 O2- 4 a 0.409 0.451 0.402 1. 0 
O4 O2- 4 a 0.327 0.131 0.32 1. 0 
O5 O2- 4 a 0.668 0.472 0.479 1. 0 
O6 O2- 4 a 0.591 -.049 0.402 1. 0 
O7 O2- 4 a 0.673 0.631 0.32 1. 0 
O8 O2- 4 a 0.369 0.326 0.18 1. 0 
O9 O2- 4 a 0.451 0.091 0.098 1. 0 
O10 O2- 4 a 0.472 -.168 0.021 1. 0 
O11 O2- 4 a 0.631 -.173 0.18 1. 0 
O12 O2- 4 a 0.549 0.591 0.098 1. 0 
O13 O2- 4 a 0.528 0.332 0.021 1. 0 
Cl1 Cl1- 4 a 0.774 0.25 0.262 1. 0 
Mg1 Mg2+ 4 a 0.75 0.25 0.981 1. 0 
Mg2 Mg2+ 4 a 0.481 -.019 0.25 1. 0 
Mg3 Mg2+ 4 a 0.481 0.519 0.25 1. 0 
B1 B3+ 4 a 0.5 0 0 1. 0 
B2 B3+ 4 a 0.25 0.25 0.25 1. 0 
B3 B3+ 4 a 0 0.5 0 1. 0 
B4 B3+ 4 a 0.75 0.58 0.415 1. 0 
B5 B3+ 4 a 0.75 -.08 0.415 1. 0 
B6 B3+ 4 a 0.42 0.25 0.085 1. 0 
B7 B3+ 4 a 0.42 0.25 -.415 1. 0 

#End of data_30616-ICSD


