data_15824-ICSD
#?2014 by Fachinformationszentrum Karlsruhe, and the U.S. Secretary of 
#Commerce on behalf of the United States.  All rights reserved.
_database_code_ICSD                15824
_audit_creation_date               1980/01/01
_audit_update_record               2009/02/01
_chemical_name_systematic          'Dipotassium Dichromate'
_chemical_formula_structural       'K2 (Cr2 O7)'
_chemical_formula_sum              'Cr2 K2 O7'
_publ_section_title
;
An electron-diffraction study of the structure of potassium 
dichromate
;
loop_
_citation_id
_citation_journal_abbrev
_citation_year
_citation_journal_volume
_citation_page_first
_citation_page_last
_citation_journal_id_ASTM
primary Kristallografiya 1964 9 44 49 KRISAJ
2 'Soviet Physics, Crystallography (= Kristallografiya)'
 1964 9 31 34 SPHCA6
3 'Phase Transition' 1992 38 127 220 PHTRDP
_publ_author_name                  'Zhukova, L.A.;Pinsker, Z.G.'
_cell_length_a                     7.47(1)
_cell_length_b                     7.35(2)
_cell_length_c                     12.97(2)
_cell_angle_alpha                  90.
_cell_angle_beta                   91.92(17)
_cell_angle_gamma                  90.
_cell_volume                       711.71
_cell_formula_units_Z              4
_symmetry_space_group_name_H-M     'P 1 21/c 1'
_symmetry_Int_Tables_number        14
loop_
_symmetry_equiv_pos_site_id
_symmetry_equiv_pos_as_xyz
  1	'x, -y+.5, z+.5'
  2	'-x, -y, -z'
  3	'-x, y+.5, -z+.5'
  4	'x, y, z'
loop_
_atom_type_symbol
_atom_type_oxidation_number
Cr6+	6
K1+	1
O2-	-2
loop_
_atom_site_label
_atom_site_type_symbol
_atom_site_symmetry_multiplicity
_atom_site_Wyckoff_symbol
_atom_site_fract_x
_atom_site_fract_y
_atom_site_fract_z
_atom_site_occupancy
_atom_site_attached_hydrogens
_atom_site_B_iso_or_equiv
Cr1 Cr6+ 4 e 0 0 0.125 1. 0 1. 
Cr2 Cr6+ 4 e 0.438 0 0.125 1. 0 1. 
K1 K1+ 4 e 0.385 0.5 0.125 1. 0 1. 
K2 K1+ 4 e 0.78 0.5 0.125 1. 0 1. 
O1 O2- 4 e 0.892 0.18 0.057 1. 0 1. 
O2 O2- 4 e 0.892 0.82 0.057 1. 0 1. 
O3 O2- 4 e 0.215 0 0.057 1. 0 1. 
O4 O2- 4 e 0.5 0.18 0.057 1. 0 1. 
O5 O2- 4 e 0.5 0.82 0.057 1. 0 1. 
O6 O2- 4 e 0 0 0.245 1. 0 1. 
O7 O2- 4 e 0.485 0 0.245 1. 0 1. 

#End of data_15824-ICSD


