data_38636-ICSD
#?2014 by Fachinformationszentrum Karlsruhe, and the U.S. Secretary of 
#Commerce on behalf of the United States.  All rights reserved.
_database_code_ICSD                38636
_audit_creation_date               1980/01/01
_audit_update_record               2000/07/15
_chemical_name_systematic
;
Sodium Niobium(IV) Dioxide Fluoride
;
_chemical_formula_structural       'Na Nb O2 F'
_chemical_formula_sum              'F1 Na1 Nb1 O2'
_publ_section_title                'Alkaliniob(IV) dioxidfluoride'
loop_
_citation_id
_citation_journal_abbrev
_citation_year
_citation_journal_volume
_citation_page_first
_citation_page_last
_citation_journal_id_ASTM
primary 'Zeitschrift fuer Anorganische und Allgemeine Chemie (1950) (DE)'
 1964 329 211 217 ZAACAB
_publ_author_name                  'Ruedorff, W.;Krug, D.'
_cell_length_a                     5.507
_cell_length_b                     5.52
_cell_length_c                     7.819
_cell_angle_alpha                  90.
_cell_angle_beta                   90.
_cell_angle_gamma                  90.
_cell_volume                       237.69
_cell_formula_units_Z              4
_symmetry_space_group_name_H-M     'P b n m'
_symmetry_Int_Tables_number        62
loop_
_symmetry_equiv_pos_site_id
_symmetry_equiv_pos_as_xyz
  1	'-x+.5, y+.5, z'
  2	'x, y, -z+.5'
  3	'x+.5, -y+.5, z+.5'
  4	'-x, -y, -z'
  5	'x+.5, -y+.5, -z'
  6	'-x, -y, z+.5'
  7	'-x+.5, y+.5, -z+.5'
  8	'x, y, z'
loop_
_atom_type_symbol
_atom_type_oxidation_number
F1-	-1
Na1+	1
Nb4+	4
O2-	-2
loop_
_atom_site_label
_atom_site_type_symbol
_atom_site_symmetry_multiplicity
_atom_site_Wyckoff_symbol
_atom_site_fract_x
_atom_site_fract_y
_atom_site_fract_z
_atom_site_occupancy
_atom_site_attached_hydrogens
Na1 Na1+ 4 c -.01 0.04 0.25 1. 0 
Nb1 Nb4+ 4 b 0.5 0 0 1. 0 
O1 O2- 8 d -.28 0.27 0.04 1. 0 
F1 F1- 4 c 0.05 0.47 0.25 1. 0 

#End of data_38636-ICSD


