data_100202-ICSD
#?2014 by Fachinformationszentrum Karlsruhe, and the U.S. Secretary of 
#Commerce on behalf of the United States.  All rights reserved.
_database_code_ICSD                100202
_audit_creation_date               1980/01/01
_audit_update_record               2012/08/01
_chemical_name_systematic
;
16-potassium Tetrastrontium Cyclo-dodecagermanate
;
_chemical_formula_structural       'K16 Sr4 (Ge12 O36)'
_chemical_formula_sum              'Ge12 K16 O36 Sr4'
_publ_section_title
;
Die Kristallstruktur der Verbindung K4 Sr Ge3 O9, ein cyclogermanat 
mit zwoelferringen
;
loop_
_citation_id
_citation_journal_abbrev
_citation_year
_citation_journal_volume
_citation_page_first
_citation_page_last
_citation_journal_id_ASTM
primary
;
Zeitschrift fuer Kristallographie, Kristallgeometrie, Kristallphysik, 
Kristallchemie (145,1977-148,1979)
;
 1977 146 261 268 ZKKKAJ
_publ_author_name                  'Baumgartner, O.;Voellenkle, H.'
_cell_length_a                     16.625(1)
_cell_length_b                     16.625(1)
_cell_length_c                     16.625(1)
_cell_angle_alpha                  90.
_cell_angle_beta                   90.
_cell_angle_gamma                  90.
_cell_volume                       4594.99
_cell_formula_units_Z              4
_symmetry_space_group_name_H-M     'P a -3'
_symmetry_Int_Tables_number        205
_refine_ls_R_factor_all            .069
loop_
_symmetry_equiv_pos_site_id
_symmetry_equiv_pos_as_xyz
  1	'-z+.5, x+.5, y'
  2	'z+.5, x, -y+.5'
  3	'z, -x+.5, y+.5'
  4	'-z, -x, -y'
  5	'y, -z+.5, x+.5'
  6	'-y+.5, z+.5, x'
  7	'y+.5, z, -x+.5'
  8	'-y, -z, -x'
  9	'x+.5, y, -z+.5'
 10	'x, -y+.5, z+.5'
 11	'-x+.5, y+.5, z'
 12	'-x, -y, -z'
 13	'z+.5, -x+.5, -y'
 14	'-z+.5, -x, y+.5'
 15	'-z, x+.5, -y+.5'
 16	'z, x, y'
 17	'-y, z+.5, -x+.5'
 18	'y+.5, -z+.5, -x'
 19	'-y+.5, -z, x+.5'
 20	'y, z, x'
 21	'-x+.5, -y, z+.5'
 22	'-x, y+.5, -z+.5'
 23	'x+.5, -y+.5, -z'
 24	'x, y, z'
loop_
_atom_type_symbol
_atom_type_oxidation_number
Ge4+	4
K1+	1
O2-	-2
Sr2+	2
loop_
_atom_site_label
_atom_site_type_symbol
_atom_site_symmetry_multiplicity
_atom_site_Wyckoff_symbol
_atom_site_fract_x
_atom_site_fract_y
_atom_site_fract_z
_atom_site_occupancy
_atom_site_attached_hydrogens
_atom_site_B_iso_or_equiv
Ge1 Ge4+ 24 d 0.4893(1) 0.2189(2) 0.2211(2) 1. 0 0.78 
Ge2 Ge4+ 24 d 0.4729(2) 0.0231(2) 0.2418(2) 1. 0 0.82 
Sr1 Sr2+ 8 c 0.1252(1) 0.1252(1) 0.1252(1) 1. 0 0.71 
Sr2 Sr2+ 8 c 0.3729(1) 0.3729(1) 0.3729(1) 1. 0 0.83 
K1 K1+ 4 a 0 0 0 1. 0 4.6 
K2 K1+ 4 b 0.5 0.5 0.5 1. 0 0.1 
K3 K1+ 8 c 0.2498(3) 0.2498(3) 0.2498(3) 1. 0 1.8 
K4 K1+ 24 d 0.3932(4) 0.1469(4) 0.3897(4) 1. 0 2.4 
K5 K1+ 24 d 0.0851(3) 0.3454(3) 0.1444(3) 1. 0 1.3 
O1 O2- 24 d 0.271(1) 0.2751(11) 0.4199(10) 1. 0 1.5 
O2 O2- 24 d 0.3317(12) 0.4806(11) 0.4705(12) 1. 0 2.5 
O3 O2- 24 d 0.1195(11) 0.2038(11) 0.4536(11) 1. 0 2.5 
O4 O2- 24 d 0.0867(11) 0.2129(11) 0.2426(11) 1. 0 2.3 
O5 O2- 24 d 0.0210(12) 0.0279(12) 0.1639(12) 1. 0 2.8 
O6 O2- 24 d 0.2623(8) 0.1233(10) 0.4825(8) 1. 0 1. 

#End of data_100202-ICSD


