data_15125-ICSD
#?2014 by Fachinformationszentrum Karlsruhe, and the U.S. Secretary of 
#Commerce on behalf of the United States.  All rights reserved.
_database_code_ICSD                15125
_audit_creation_date               1980/01/01
_audit_update_record               2000/07/15
_chemical_name_systematic          'Calcium Dilutetium Oxide'
_chemical_formula_structural       'Ca Lu2 O4'
_chemical_formula_sum              'Ca1 Lu2 O4'
_publ_section_title
;
Untersuchungen an Sr Yb2 O4, Ca Yb2 O4 und Ca Lu2 O4: Ein Beitrag zur 
Kristallstruktur des Calciumferrat(III) Typs
;
loop_
_citation_id
_citation_journal_abbrev
_citation_year
_citation_journal_volume
_citation_page_first
_citation_page_last
_citation_journal_id_ASTM
primary 'Zeitschrift fuer Anorganische und Allgemeine Chemie (1950) (DE)'
 1970 377 70 78 ZAACAB
_publ_author_name
;
Mueller Buschbaum, H.;von Schenk, R.
;
_cell_length_a                     9.731
_cell_length_b                     11.573
_cell_length_c                     3.304
_cell_angle_alpha                  90.
_cell_angle_beta                   90.
_cell_angle_gamma                  90.
_cell_volume                       372.09
_cell_formula_units_Z              4
_symmetry_space_group_name_H-M     'P n a m'
_symmetry_Int_Tables_number        62
loop_
_symmetry_equiv_pos_site_id
_symmetry_equiv_pos_as_xyz
  1	'x+.5, -y+.5, z'
  2	'x, y, -z+.5'
  3	'-x+.5, y+.5, z+.5'
  4	'-x, -y, -z'
  5	'-x+.5, y+.5, -z'
  6	'-x, -y, z+.5'
  7	'x+.5, -y+.5, -z+.5'
  8	'x, y, z'
loop_
_atom_type_symbol
_atom_type_oxidation_number
Ca2+	2
Lu3+	3
O2-	-2
loop_
_atom_site_label
_atom_site_type_symbol
_atom_site_symmetry_multiplicity
_atom_site_Wyckoff_symbol
_atom_site_fract_x
_atom_site_fract_y
_atom_site_fract_z
_atom_site_occupancy
_atom_site_attached_hydrogens
Ca1 Ca2+ 4 c 0.7531 0.65 0.25 1. 0 
Lu1 Lu3+ 4 c 0.4238 0.1096 0.25 1. 0 
Lu2 Lu3+ 4 c 0.4209 0.613 0.25 1. 0 
O1 O2- 4 c 0.204 0.191 0.25 1. 0 
O2 O2- 4 c 0.134 0.477 0.25 1. 0 
O3 O2- 4 c 0.514 0.778 0.25 1. 0 
O4 O2- 4 c 0.404 0.432 0.25 1. 0 

#End of data_15125-ICSD


