data_240260-ICSD
#?2014 by Fachinformationszentrum Karlsruhe, and the U.S. Secretary of 
#Commerce on behalf of the United States.  All rights reserved.
_database_code_ICSD                240260
_audit_creation_date               2005/10/01
_chemical_name_systematic          'Indium Rubidium Diphosphate'
_chemical_formula_structural       'In K O7 P2'
_chemical_formula_sum              'In1 K1 O7 P2'
_publ_section_title
;
Crystal and Band Structures, Bonding, and Optical Properties of Solid 
Compounds of Alkaline Indium (III) Pyrophosphates MInP2O7 (M = Na, K, 
Rb, Cs)
;
loop_
_citation_id
_citation_journal_abbrev
_citation_year
_citation_journal_volume
_citation_page_first
_citation_page_last
_citation_journal_id_ASTM
primary 'Chemistry of Materials' 2004 16 4150 4159 CMATEX
_publ_author_name
;
Cheng, W.;Wu, D.-S.;Zhang, H.;Chen, D.;Gong,  Y.;Kan, Z.
;
_cell_length_a                     7.4173(15)
_cell_length_b                     10.407(2)
_cell_length_c                     8.4050(17)
_cell_angle_alpha                  90.00
_cell_angle_beta                   106.223(3)
_cell_angle_gamma                  90.00
_cell_volume                       622.96
_cell_formula_units_Z              4
_symmetry_space_group_name_H-M     'P 1 21/c 1'
_symmetry_Int_Tables_number        14
_refine_ls_R_factor_all            .0524
loop_
_symmetry_equiv_pos_site_id
_symmetry_equiv_pos_as_xyz
  1	'x, -y+.5, z+.5'
  2	'-x, -y, -z'
  3	'-x, y+.5, -z+.5'
  4	'x, y, z'
loop_
_atom_type_symbol
_atom_type_oxidation_number
In3+	3
K1+	1
O2-	-2
P5+	5
loop_
_atom_site_label
_atom_site_type_symbol
_atom_site_symmetry_multiplicity
_atom_site_Wyckoff_symbol
_atom_site_fract_x
_atom_site_fract_y
_atom_site_fract_z
_atom_site_occupancy
_atom_site_attached_hydrogens
_atom_site_U_iso_or_equiv
In1 In3+ 4 e 0.76545(9) 0.90057(7) 0.24344(8) 1 0 0.0120(4) 
P1 P5+ 4 e 0.8668(4) 0.5972(3) 0.1766(4) 1 0 0.0160(7) 
K1 K1+ 4 e 1.1788(4) 0.8201(3) 0.0565(3) 1 0 0.0291(7) 
P2 P5+ 4 e 0.5551(4) 0.6407(3) 0.3099(3) 1 0 0.0134(7) 
O1 O2- 4 e 0.5384(10) 0.7823(7) 0.2658(10) 1 0 0.0189(17) 
O2 O2- 4 e 0.9871(10) 0.4940(7) 0.2828(9) 1 0 0.0156(16) 
O3 O2- 4 e 0.9261(11) 0.7297(8) 0.2547(12) 1 0 0.030(2) 
O4 O2- 4 e 0.6565(11) 0.5707(7) 0.1850(9) 1 0 0.0174(16) 
O5 O2- 4 e 0.6762(15) 0.6082(8) 0.4792(11) 1 0 0.031(2) 
O6 O2- 4 e 0.3592(12) 0.5834(7) 0.2687(12) 1 0 0.028(2) 
O7 O2- 4 e 0.8633(17) 0.5901(12) 0.0024(12) 1 0 0.053(4) 

loop_
_atom_site_aniso_label
_atom_site_aniso_type_symbol
_atom_site_aniso_U_11
_atom_site_aniso_U_22
_atom_site_aniso_U_33
_atom_site_aniso_U_12
_atom_site_aniso_U_13
_atom_site_aniso_U_23
In1 In3+ 0.0096(5) 0.0164(6) 0.0126(5) 0.0013(3) 0.0073(3) 0.0041(3)
P1 P5+ 0.0150(14) 0.0235(16) 0.0138(14) 0.0067(11) 0.0112(11) 0.0001(10)
K1 K1+ 0.0266(15) 0.0402(17) 0.0231(14) 0.0006(11) 0.0110(12) -0.0015(11)
P2 P5+ 0.0122(13) 0.0157(14) 0.0146(13) -0.0009(11) 0.0074(10) -0.0039(11)
O1 O2- 0.019(4) 0.015(4) 0.023(4) 0.000(3) 0.007(3) 0.004(3)
O2 O2- 0.016(4) 0.015(4) 0.020(4) 0.002(3) 0.011(3) -0.006(3)
O3 O2- 0.011(4) 0.029(5) 0.050(6) 0.004(3) 0.010(4) -0.001(4)
O5 O2- 0.049(6) 0.030(5) 0.017(4) -0.001(4) 0.014(4) 0.000(3)
O6 O2- 0.014(4) 0.018(4) 0.057(6) -0.003(3) 0.020(4) -0.009(4)
O7 O2- 0.058(7) 0.088(9) 0.019(5) 0.050(6) 0.020(5) 0.015(5)
#End of data_240260-ICSD


