data_250192-ICSD
#?2014 by Fachinformationszentrum Karlsruhe, and the U.S. Secretary of 
#Commerce on behalf of the United States.  All rights reserved.
_database_code_ICSD                250192
_audit_creation_date               2005/04/01
_chemical_name_systematic
;
Lithium Tetramagnesium Tris(vanadate)
;
_chemical_formula_structural       'Li Mg4 (V O4)3'
_chemical_formula_sum              'Li1 Mg4 O12 V3'
_publ_section_title
;
Synthesis and crystal structure of Li Mg4 (V O4)3
;
loop_
_citation_id
_citation_journal_abbrev
_citation_year
_citation_journal_volume
_citation_page_first
_citation_page_last
_citation_journal_id_ASTM
primary 'Zhurnal Neorganicheskoi Khimii' 2004 49 610 616 ZNOKAQ
_publ_author_name
;
Tyutyunnik, A.P.;Zubkov, V.G.;Surat, L.L.;Slobodin, B.V.
;
_cell_length_a                     6.86707(2)
_cell_length_b                     6.86707(2)
_cell_length_c                     18.9545(1)
_cell_angle_alpha                  90
_cell_angle_beta                   90
_cell_angle_gamma                  90
_cell_volume                       893.83
_cell_formula_units_Z              4
_symmetry_space_group_name_H-M     'I -4 2 d'
_symmetry_Int_Tables_number        122
_refine_ls_R_factor_all            .0259
loop_
_symmetry_equiv_pos_site_id
_symmetry_equiv_pos_as_xyz
  1	'-y, -x+.5, z+.25'
  2	'y, -x, -z'
  3	'y, x+.5, z+.25'
  4	'-y, x, -z'
  5	'x, -y+.5, -z+.25'
  6	'-x, -y, z'
  7	'-x, y+.5, -z+.25'
  8	'x, y, z'
  9	'-y+.5, -x, z+.75'
 10	'y+.5, -x+.5, -z+.5'
 11	'y+.5, x, z+.75'
 12	'-y+.5, x+.5, -z+.5'
 13	'x+.5, -y, -z+.75'
 14	'-x+.5, -y+.5, z+.5'
 15	'-x+.5, y, -z+.75'
 16	'x+.5, y+.5, z+.5'
loop_
_atom_type_symbol
_atom_type_oxidation_number
Li1+	1
Mg2+	2
O2-	-2
V5+	5
loop_
_atom_site_label
_atom_site_type_symbol
_atom_site_symmetry_multiplicity
_atom_site_Wyckoff_symbol
_atom_site_fract_x
_atom_site_fract_y
_atom_site_fract_z
_atom_site_occupancy
_atom_site_attached_hydrogens
_atom_site_U_iso_or_equiv
V1 V5+ 4 a 0 0 0 1. 0 0.0138(9) 
V2 V5+ 8 d 0.6497(2) 0.25 0.125 1. 0 0.0154(5) 
Mg1 Mg2+ 8 c 0 0 0.2247(2) 1. 0 0.0157(9) 
Mg2 Mg2+ 8 d 0.2421(6) 0.25 0.125 1. 0 0.0165(9) 
Li1 Li1+ 4 b 0 0 0.5 1. 0 0.027(8) 
O1 O2- 16 e 0.0529(6) 0.2089(8) 0.0457(2) 1. 0 0.015(2) 
O2 O2- 16 e 0.2277(6) 0.5429(5) 0.1026(2) 1. 0 0.016(1) 
O3 O2- 16 e 0.4892(6) 0.2093(2) 0.0565(2) 1. 0 0.015(1) 

#End of data_250192-ICSD


