data_100074-ICSD
#?2014 by Fachinformationszentrum Karlsruhe, and the U.S. Secretary of 
#Commerce on behalf of the United States.  All rights reserved.
_database_code_ICSD                100074
_audit_creation_date               1986/08/08
_audit_update_record               1999/01/19
_chemical_name_systematic
;
Tricalcium Octaoxodihydroxotrisilicate
;
_chemical_formula_structural       'Ca3 (Si3 O8 (O H)2)'
_chemical_formula_sum              'H2 Ca3 O10 Si3'
_chemical_name_mineral             Rosenhahnite
_publ_section_title
;
Rosenhahnite, Ca3 Si3 O8 (O H)2: crystal structure and the 
stereochemical configuration of the hydroxylated trisilicate group, 
(Si3 O8 (O H)2)
;
loop_
_citation_id
_citation_journal_abbrev
_citation_year
_citation_journal_volume
_citation_page_first
_citation_page_last
_citation_journal_id_ASTM
primary 'American Mineralogist' 1977 62 503 512 AMMIAY
2 'Nature (London)' 1973 241 42 42 NATUAS
_publ_author_name                  'Cheng, W.;Ghose, S.;Gibbs, G.V.'
_cell_length_a                     6.955(2)
_cell_length_b                     9.484(2)
_cell_length_c                     6.812(2)
_cell_angle_alpha                  108.64(2)
_cell_angle_beta                   94.84(2)
_cell_angle_gamma                  95.89(2)
_cell_volume                       420.23
_cell_formula_units_Z              2
_symmetry_space_group_name_H-M     'P -1'
_symmetry_Int_Tables_number        2
_refine_ls_R_factor_all            .035
loop_
_symmetry_equiv_pos_site_id
_symmetry_equiv_pos_as_xyz
  1	'-x, -y, -z'
  2	'x, y, z'
loop_
_atom_type_symbol
_atom_type_oxidation_number
Ca2+	2
H1+	1
O2-	-2
Si4+	4
loop_
_atom_site_label
_atom_site_type_symbol
_atom_site_symmetry_multiplicity
_atom_site_Wyckoff_symbol
_atom_site_fract_x
_atom_site_fract_y
_atom_site_fract_z
_atom_site_occupancy
_atom_site_attached_hydrogens
_atom_site_B_iso_or_equiv
Ca1 Ca2+ 2 i 0.27993(6) 0.34503(5) 0.18405(7) 1. 0 0 
Ca2 Ca2+ 2 i 0.09599(6) 0.68010(5) 0.24285(7) 1. 0 0 
Ca3 Ca2+ 2 i 0.84648(6) 0.00858(5) 0.26704(7) 1. 0 0 
Si1 Si4+ 2 i 0.30412(8) 0.04876(7) 0.27718(9) 1. 0 0 
Si2 Si4+ 2 i 0.62432(8) 0.66151(7) 0.32901(9) 1. 0 0 
Si3 Si4+ 2 i 0.80203(8) 0.37614(7) 0.27028(9) 1. 0 0 
O1 O2- 2 i 0.1928(2) 0.0874(2) 0.0902(3) 1. 0 0 
O2 O2- 2 i 0.5003(2) 0.9696(2) 0.2131(3) 1. 0 0 
O3 O2- 2 i 0.1594(2) 0.9480(2) 0.3668(3) 1. 0 0 
O4 O2- 2 i 0.3938(2) 0.2132(2) 0.4471(3) 1. 0 0 
O5 O2- 2 i 0.7694(2) 0.7254(2) 0.1969(3) 1. 0 0 
O6 O2- 2 i 0.4085(2) 0.5931(2) 0.2071(2) 1. 0 0 
O7 O2- 2 i 0.7211(2) 0.5330(2) 0.4128(2) 1. 0 0 
O8 O2- 2 i 0.6082(2) 0.2950(2) 0.0911(3) 1. 0 0 
O9 O2- 2 i 0.8560(2) 0.2716(2) 0.4015(3) 1. 0 0 
O10 O2- 2 i 0.9748(2) 0.4193(2) 0.1475(3) 1. 0 0 
H1 H1+ 2 i 0.524(8) 0.101(6) -.122(8) 1. 0 3.00(13) 
H2 H1+ 2 i 0.602(6) 0.342(4) -.020(6) 1. 0 0.8(8) 

#End of data_100074-ICSD


