data_85109-ICSD
#?2014 by Fachinformationszentrum Karlsruhe, and the U.S. Secretary of 
#Commerce on behalf of the United States.  All rights reserved.
_database_code_ICSD                85109
_audit_creation_date               1999/06/02
_audit_update_record               2009/02/01
_chemical_name_systematic
;
Nonacalcium Magnesium Potassium Heptakis(phosphate(V))
;
_chemical_formula_structural       'Ca9 Mg K (P O4)7'
_chemical_formula_sum              'Ca9 K1 Mg1 O28 P7'
_publ_section_title
;
Crystal structures of calcium magnesium alkali metal phosphates Ca9 
Mg M (P O4)7 (M= Li, Na, K)
;
loop_
_citation_id
_citation_journal_abbrev
_citation_year
_citation_journal_volume
_citation_journal_issue
_citation_page_first
_citation_page_last
_citation_journal_id_ASTM
primary Kristallografiya 1997 42 5 825 836 KRISAJ
2 'Crystallography Reports' 1997 42- 758 769 CYSTE3
_publ_author_name
;
Morozov, V.A.;Presniakov, I.A.;Belik, A.A.;Khasanov, S.S.;Lazoryak, 
B.I.
;
_cell_length_a                     10.3869(1)
_cell_length_b                     10.3869(1)
_cell_length_c                     36.9690(20)
_cell_angle_alpha                  90.
_cell_angle_beta                   90.
_cell_angle_gamma                  120.
_cell_volume                       3454.14
_cell_formula_units_Z              6
_symmetry_space_group_name_H-M     'R 3 c H'
_symmetry_Int_Tables_number        161
_refine_ls_R_factor_all            .01
loop_
_symmetry_equiv_pos_site_id
_symmetry_equiv_pos_as_xyz
  1	'-x+y, y, z+.5'
  2	'x, x-y, z+.5'
  3	'-y, -x, z+.5'
  4	'-x+y, -x, z'
  5	'-y, x-y, z'
  6	'x, y, z'
  7	'-x+y+.6666, y+.3333, z+.8333'
  8	'-x+y+.3333, y+.6666, z+.1666'
  9	'x+.6666, x-y+.3333, z+.8333'
 10	'x+.3333, x-y+.6666, z+.1666'
 11	'-y+.6666, -x+.3333, z+.8333'
 12	'-y+.3333, -x+.6666, z+.1666'
 13	'-x+y+.6666, -x+.3333, z+.3333'
 14	'-x+y+.3333, -x+.6666, z+.6666'
 15	'-y+.6666, x-y+.3333, z+.3333'
 16	'-y+.3333, x-y+.6666, z+.6666'
 17	'x+.6666, y+.3333, z+.3333'
 18	'x+.3333, y+.6666, z+.6666'
loop_
_atom_type_symbol
_atom_type_oxidation_number
Ca2+	2
K1+	1
Mg2+	2
O2-	-2
P5+	5
loop_
_atom_site_label
_atom_site_type_symbol
_atom_site_symmetry_multiplicity
_atom_site_Wyckoff_symbol
_atom_site_fract_x
_atom_site_fract_y
_atom_site_fract_z
_atom_site_occupancy
_atom_site_attached_hydrogens
_atom_site_B_iso_or_equiv
Ca1 Ca2+ 18 b 0.7277(7) 0.8588(7) 0.4312(5) 1. 0 0.4(1) 
Ca2 Ca2+ 18 b 0.6135(6) 0.8234(7) 0.2311(5) 1. 0 0.4(1) 
Ca3 Ca2+ 18 b 0.1197(7) 0.2658(5) 0.3243(5) 1. 0 0.7(1) 
K1 K1+ 6 a 0 0 0.1824(5) 1. 0 2.7(3) 
Mg1 Mg2+ 6 a 0 0 0 1. 0 0.2(3) 
P1 P5+ 6 a 0 0 0.2667(5) 1. 0 1.2(2) 
P2 P5+ 18 b 0.6830(7) 0.8608(9) 0.1349(5) 1. 0 0.4(1) 
P3 P5+ 18 b 0.656(1) 0.8509(9) 0.0304(5) 1. 0 0.7(2) 
O1 O2- 6 a 0 0 0.3087(8) 1. 0 0.6(6) 
O2 O2- 18 b 0.011(2) 0.863(1) 0.2540(7) 1. 0 0.8(3) 
O3 O2- 18 b 0.732(2) 0.921(2) 0.1746(6) 1. 0 0.9(4) 
O4 O2- 18 b 0.762(2) 0.775(2) 0.1225(7) 1. 0 0.8(4) 
O5 O2- 18 b 0.720(2) 0.004(2) 0.1121(6) 1. 0 0.6(4) 
O6 O2- 18 b 0.512(2) 0.759(2) 0.1320(6) 1. 0 0.4(3) 
O7 O2- 18 b 0.599(2) 0.957(2) 0.0434(7) 1. 0 0.4(3) 
O8 O2- 18 b 0.579(2) 0.699(2) 0.0521(7) 1. 0 0.5(3) 
O9 O2- 18 b 0.827(2) 0.925(2) 0.0387(6) 1. 0 0.4(4) 
O10 O2- 18 b 0.625(2) 0.823(2) 0.9900(6) 1. 0 0.5(3) 

#End of data_85109-ICSD


