data_170810-ICSD
#?2014 by Fachinformationszentrum Karlsruhe, and the U.S. Secretary of 
#Commerce on behalf of the United States.  All rights reserved.
_database_code_ICSD                170810
_audit_creation_date               2006/04/01
_chemical_name_systematic          'Calcium Copper Germanate'
_chemical_formula_structural       'Ca Cu Ge2 O6'
_chemical_formula_sum              'Ca1 Cu1 Ge2 O6'
_chemical_name_mineral             Clinopyroxene
_publ_section_title
;
Crystal structure of the clinopyroxene-type compound Ca Cu Ge2 O6 
between 15 K and 700 K
;
loop_
_citation_id
_citation_journal_abbrev
_citation_year
_citation_journal_volume
_citation_page_first
_citation_page_last
_citation_journal_id_ASTM
primary 'Acta Crystallographica, Section B: Structural Science'
 2005 61 367 380 ASBSDK
_publ_author_name
;
Redhammer, G.J.;Tippelt, G.;Merz, M.;Roth, G.;Treutmann, W.;Amthauer, 
G.
;
_cell_length_a                     10.1853(12)
_cell_length_b                     9.1959(7)
_cell_length_c                     5.2013(6)
_cell_angle_alpha                  90
_cell_angle_beta                   105.649(12)
_cell_angle_gamma                  90
_cell_volume                       469.11
_cell_formula_units_Z              4
_symmetry_space_group_name_H-M     'P 1 21/c 1'
_symmetry_Int_Tables_number        14
_refine_ls_R_factor_all            .025
loop_
_symmetry_equiv_pos_site_id
_symmetry_equiv_pos_as_xyz
  1	'x, -y+.5, z+.5'
  2	'-x, -y, -z'
  3	'-x, y+.5, -z+.5'
  4	'x, y, z'
loop_
_atom_type_symbol
_atom_type_oxidation_number
Ca2+	2
Cu2+	2
Ge4+	4
O2-	-2
loop_
_atom_site_label
_atom_site_type_symbol
_atom_site_symmetry_multiplicity
_atom_site_Wyckoff_symbol
_atom_site_fract_x
_atom_site_fract_y
_atom_site_fract_z
_atom_site_occupancy
_atom_site_attached_hydrogens
_atom_site_U_iso_or_equiv
Ca1 Ca2+ 4 e 0.28359(6) 0.45288(7) 0.80976(13) 1 0 0.01053(12) 
Cu1 Cu2+ 4 e 0.22728(4) 0.66164(4) 0.25643(8) 1 0 0.00936(9) 
Ge1 Ge4+ 4 e 0.04919(3) 0.34920(4) 0.20921(6) 1 0 0.00811(8) 
Ge2 Ge4+ 4 e 0.49121(3) 0.35092(4) 0.40301(7) 1 0 0.00852(8) 
O1 O2- 4 e -0.1269(2) 0.3615(2) 0.1155(5) 1 0 0.0102(4) 
O2 O2- 4 e 0.6588(2) 0.3198(2) 0.3779(5) 1 0 0.0092(4) 
O3 O2- 4 e 0.1460(2) 0.4887(3) 0.3771(5) 1 0 0.0131(4) 
O4 O2- 4 e 0.4323(2) 0.5224(2) 0.2612(5) 1 0 0.0112(4) 
O5 O2- 4 e 0.1032(2) 0.1941(2) 0.4183(5) 1 0 0.0108(4) 
O6 O2- 4 e 0.3995(2) 0.2511(2) 0.5901(5) 1 0 0.0100(4) 

loop_
_atom_site_aniso_label
_atom_site_aniso_type_symbol
_atom_site_aniso_U_11
_atom_site_aniso_U_22
_atom_site_aniso_U_33
_atom_site_aniso_U_12
_atom_site_aniso_U_13
_atom_site_aniso_U_23
Ca1 Ca2+ 0.0102(2) 0.0101(2) 0.0107(3) -0.00004(19) 0.00186(19) 0.0005(2)
Cu1 Cu2+ 0.00908(16) 0.00932(16) 0.00860(17) -0.00096(12) 0.00050(12) 
-0.00023(13)
Ge1 Ge4+ 0.00707(13) 0.00836(14) 0.00846(15) -0.00045(10) 0.00133(10) 
-0.00050(11)
Ge2 Ge4+ 0.00789(14) 0.00788(14) 0.00999(15) 0.00018(10) 0.00277(10) 
0.00073(11)
O1 O2- 0.0086(9) 0.0117(10) 0.0098(10) 0.0005(7) 0.0017(7) -0.0013(8)
O2 O2- 0.0070(9) 0.0116(9) 0.0090(10) 0.0011(7) 0.0023(7) 0.0003(8)
O3 O2- 0.0138(10) 0.0115(10) 0.0116(11) -0.0030(8) -0.0006(8) -0.0010(8)
O4 O2- 0.0144(10) 0.0084(9) 0.0100(10) 0.0002(8) 0.0016(8) -0.0002(8)
O5 O2- 0.0114(9) 0.0117(9) 0.0106(10) 0.0029(8) 0.0049(8) 0.0024(8)
O6 O2- 0.0098(9) 0.0109(9) 0.0091(10) -0.0013(7) 0.0023(7) 0.0019(8)
#End of data_170810-ICSD


