data_49023-ICSD
#?2014 by Fachinformationszentrum Karlsruhe, and the U.S. Secretary of 
#Commerce on behalf of the United States.  All rights reserved.
_database_code_ICSD                49023
_audit_creation_date               1985/07/17
_audit_update_record               1985/07/26
_chemical_name_systematic
;
Dibarium Calcium(II) Cobalt(II) Divanadium(III) Fluoride
;
_chemical_formula_structural       'Ba2 Ca Co V2 F14'
_chemical_formula_sum              'Ba2 Ca1 Co1 F14 V2'
_publ_section_title
;
Ueber Usovite Ba2 M(II) M(II) M(III)2 F14 und die Hochdruckphasen von 
Ba Mn V F7 und Ba Mn Fe F7: Verbindungen mit Ba Mn Ga F7 - Struktur
;
loop_
_citation_id
_citation_journal_abbrev
_citation_year
_citation_journal_volume
_citation_page_first
_citation_page_last
_citation_journal_id_ASTM
primary 'Zeitschrift fuer Anorganische und Allgemeine Chemie (1950) (DE)'
 1985 522 189 201 ZAACAB
_publ_author_name                  'Holler, H.;Pebler, J.;Babel, D.'
_cell_length_a                     13.697(4)
_cell_length_b                     5.384(1)
_cell_length_c                     14.916(2)
_cell_angle_alpha                  90.
_cell_angle_beta                   91.49
_cell_angle_gamma                  90.
_cell_volume                       1099.6
_cell_formula_units_Z              4
_symmetry_space_group_name_H-M     'C 1 2/c 1'
_symmetry_Int_Tables_number        15
_refine_ls_R_factor_all            .036
loop_
_symmetry_equiv_pos_site_id
_symmetry_equiv_pos_as_xyz
  1	'x, -y, z+.5'
  2	'-x, -y, -z'
  3	'-x, y, -z+.5'
  4	'x, y, z'
  5	'x+.5, -y+.5, z+.5'
  6	'-x+.5, -y+.5, -z'
  7	'-x+.5, y+.5, -z+.5'
  8	'x+.5, y+.5, z'
loop_
_atom_type_symbol
_atom_type_oxidation_number
Ba2+	2
Ca2+	2
Co2+	2
F1-	-1
V3+	3
loop_
_atom_site_label
_atom_site_type_symbol
_atom_site_symmetry_multiplicity
_atom_site_Wyckoff_symbol
_atom_site_fract_x
_atom_site_fract_y
_atom_site_fract_z
_atom_site_occupancy
_atom_site_attached_hydrogens
Ba1 Ba2+ 8 f 0.1915 -.0467 0.1202 1. 0 
Ca1 Ca2+ 4 e 0 0.4408(1) 0.25 1. 0 
Co1 Co2+ 4 b 0 0.5 0 1. 0 
V1 V3+ 8 f 0.3813 0.4937(1) 0.1231 1. 0 
F1 F1- 8 f 0.1623(1) 0.2061(3) 0.2780(1) 1. 0 
F2 F1- 8 f 0.4177(1) 0.3119(3) 0.0158(1) 1. 0 
F3 F1- 8 f 0.3737(1) 0.2111(3) 0.2016(1) 1. 0 
F4 F1- 8 f 0.3759(1) 0.2060(3) 0.5476(1) 1. 0 
F5 F1- 8 f 0.5104(1) 0.4161(3) 0.6583(1) 1. 0 
F6 F1- 8 f 0.2502(1) 0.4434(3) 0.0843(1) 1. 0 
F7 F1- 8 f 0.4429(1) 0.0788(3) 0.3804(1) 1. 0 

loop_
_atom_site_aniso_label
_atom_site_aniso_type_symbol
_atom_site_aniso_U_11
_atom_site_aniso_U_22
_atom_site_aniso_U_33
_atom_site_aniso_U_12
_atom_site_aniso_U_13
_atom_site_aniso_U_23
Ba1 Ba2+ 0.0107 0.013 0.0115 0.0016 -.0012 -.0014
Ca1 Ca2+ 0.0130(2) 0.0094(1) 0.0065(1) 0 0.0(1) 0
Co1 Co2+ 0.0113(1) 0.0087(1) 0.0074(1) 0.0003(1) -.0005(2) -.0013(1)
V1 V3+ 0.0095(1) 0.0080(1) 0.0069(1) -.0001(1) -.0014(1) 0.0002(1)
F1 F1- 0.0169(5) 0.0148(5) 0.0109(4) -.0037(4) 0.0009(4) 0.0009(3)
F2 F1- 0.0208(6) 0.0139(5) 0.0113(4) 0.0049(4) -.0023(4) -.0023(4)
F3 F1- 0.0191(6) 0.0145(5) 0.0197(5) 0.0015(4) 0.0014(4) 0.0075(4)
F4 F1- 0.0185(5) 0.0127(4) 0.0139(4) -.0014(4) 0.0013(4) -.0046(4)
F5 F1- 0.0106(4) 0.0171(5) 0.0148(4) 0.0007(4) -.0015(3) 0.0044(4)
F6 F1- 0.0120(5) 0.0202(6) 0.0302(7) -.0008(4) -.0071(5) -.0019(5)
F7 F1- 0.0187(5) 0.0178(5) 0.0089(4) 0.0028(4) -.0005(4) -.0007(4)
#End of data_49023-ICSD


