data_280601-ICSD
#?2014 by Fachinformationszentrum Karlsruhe, and the U.S. Secretary of 
#Commerce on behalf of the United States.  All rights reserved.
_database_code_ICSD                280601
_audit_creation_date               2002/04/01
_chemical_name_systematic          'Potassium Dinitramide'
_chemical_formula_structural       'K (N3 O4)'
_chemical_formula_sum              'K1 N3 O4'
_publ_section_title
;
Anisotropic thermal expansion of potassium dinitramide: a variable-
temperature crystallographic study
;
loop_
_citation_id
_citation_journal_abbrev
_citation_year
_citation_journal_volume
_citation_page_first
_citation_page_last
_citation_journal_id_ASTM
primary 'Acta Crystallographica, Section B: Structural Science'
 2001 57 113 118 ASBSDK
_publ_author_name
;
Hardie, M.J.;Martin, A.;Pinkerton, A.A.;Zhurova, E.A.
;
_cell_length_a                     6.6029(4)
_cell_length_b                     9.1694(5)
_cell_length_c                     7.1731(4)
_cell_angle_alpha                  90.
_cell_angle_beta                   97.805(1)
_cell_angle_gamma                  90.
_cell_volume                       430.27
_cell_formula_units_Z              4
_symmetry_space_group_name_H-M     'P 1 21/n 1'
_symmetry_Int_Tables_number        14
_refine_ls_R_factor_all            .0372
loop_
_symmetry_equiv_pos_site_id
_symmetry_equiv_pos_as_xyz
  1	'-x+.5, y+.5, -z+.5'
  2	'-x, -y, -z'
  3	'x+.5, -y+.5, z+.5'
  4	'x, y, z'
loop_
_atom_type_symbol
_atom_type_oxidation_number
K1+	1
N1+	1
N3+	3
O2-	-2
loop_
_atom_site_label
_atom_site_type_symbol
_atom_site_symmetry_multiplicity
_atom_site_Wyckoff_symbol
_atom_site_fract_x
_atom_site_fract_y
_atom_site_fract_z
_atom_site_occupancy
_atom_site_attached_hydrogens
K1 K1+ 4 e 0.85932(5) 0.34264(4) 0.83074(5) 1. 0 
O1 O2- 4 e 1.0087(2) 0.34421(13) 0.2144(2) 1. 0 
O2 O2- 4 e 0.7270(2) 0.53812(13) 0.1565(2) 1. 0 
N1 N3+ 4 e 0.6490(2) 0.46223(14) 0.2684(2) 1. 0 
O3 O2- 4 e 0.4642(2) 0.46145(14) 0.2792(2) 1. 0 
N2 N1+ 4 e 0.7587(2) 0.3766(2) 0.4063(2) 1. 0 
N3 N3+ 4 e 0.9489(2) 0.34099(13) 0.3703(2) 1. 0 
O4 O2- 4 e 1.0607(2) 0.29491(13) 0.5113(2) 1. 0 

loop_
_atom_site_aniso_label
_atom_site_aniso_type_symbol
_atom_site_aniso_U_11
_atom_site_aniso_U_22
_atom_site_aniso_U_33
_atom_site_aniso_U_12
_atom_site_aniso_U_13
_atom_site_aniso_U_23
K1 K1+ 0.0205(2) 0.0264(2) 0.0162(2) -.00291(12) 0.00371(13) 0.00034(11)
O1 O2- 0.0227(6) 0.0392(7) 0.0144(6) 0.0030(5) 0.0065(5) 0.0009(4)
O2 O2- 0.0301(7) 0.0266(6) 0.0256(6) -.0020(5) 0.0014(5) 0.0090(5)
N1 N3+ 0.0218(7) 0.0182(6) 0.0189(6) 0.0008(5) 0.0014(5) -.0021(5)
O3 O2- 0.0178(6) 0.0345(7) 0.0336(7) 0.0055(5) 0.0030(5) -.0029(5)
N2 N1+ 0.0208(7) 0.0240(7) 0.0196(7) 0.0055(5) 0.0061(5) 0.0033(5)
N3 N3+ 0.0192(7) 0.0180(6) 0.0140(6) -.0015(4) 0.0031(5) -.0008(4)
O4 O2- 0.0244(6) 0.0295(6) 0.0150(5) 0.0043(5) -.0012(4) 0.0014(5)
#End of data_280601-ICSD


