data_97563-ICSD
#?2014 by Fachinformationszentrum Karlsruhe, and the U.S. Secretary of 
#Commerce on behalf of the United States.  All rights reserved.
_database_code_ICSD                97563
_audit_creation_date               2004/10/01
_chemical_name_systematic
;
Dipotassium Tetraholmium Tetracopper(I) Sulfide
;
_chemical_formula_structural       'K2 Ho4 Cu4 S9'
_chemical_formula_sum              'Cu4 Ho4 K2 S9'
_publ_section_title
;
Syntheses, structures, physical properties and electronic structures 
of K Ln2 Cu S4 (Ln = Dy, Nd, Sm, Tb, Ho) and K2 Ln4 Cu4 S9 (Ln = Dy, 
Ho)
;
loop_
_citation_id
_citation_journal_abbrev
_citation_year
_citation_journal_volume
_citation_page_first
_citation_page_last
_citation_journal_id_ASTM
primary 'Journal of Solid State Chemistry' 2003 176 5 12 JSSCBI
_publ_author_name
;
Yao, J.-Y.;Deng, B.;Ellis, D.E.;Ibers, J.A.
;
_cell_length_a                     13.6760(14)
_cell_length_b                     3.9360(14)
_cell_length_c                     15.7950(16)
_cell_angle_alpha                  90
_cell_angle_beta                   109.666(2)
_cell_angle_gamma                  90
_cell_volume                       800.63
_cell_formula_units_Z              2
_symmetry_space_group_name_H-M     'C 1 2/m 1'
_symmetry_Int_Tables_number        12
_refine_ls_R_factor_all            .0207
loop_
_symmetry_equiv_pos_site_id
_symmetry_equiv_pos_as_xyz
  1	'-x, y, -z'
  2	'-x, -y, -z'
  3	'x, -y, z'
  4	'x, y, z'
  5	'-x+.5, y+.5, -z'
  6	'-x+.5, -y+.5, -z'
  7	'x+.5, -y+.5, z'
  8	'x+.5, y+.5, z'
loop_
_atom_type_symbol
_atom_type_oxidation_number
Cu1+	1
Ho3+	3
K1+	1
S2-	-2
loop_
_atom_site_label
_atom_site_type_symbol
_atom_site_symmetry_multiplicity
_atom_site_Wyckoff_symbol
_atom_site_fract_x
_atom_site_fract_y
_atom_site_fract_z
_atom_site_occupancy
_atom_site_attached_hydrogens
_atom_site_U_iso_or_equiv
K1 K1+ 4 i 0.02912(11) 0 0.76952(10) 1. 0 0.0163(3) 
Ho1 Ho3+ 4 i 0.65436(2) 0 0.054038(17) 1. 0 0.00779(9) 
Ho2 Ho3+ 4 i 0.23340(2) 0 0.605250(18) 1. 0 0.00770(9) 
Cu1 Cu1+ 4 i 0.24616(7) 0 0.22889(5) 1. 0 0.0137(2) 
Cu2 Cu1+ 4 i 0.43268(6) 0 0.54175(6) 1. 0 0.0162(2) 
S1 S2- 4 i 0.13991(12) 0 0.42452(10) 1. 0 0.0080(3) 
S2 S2- 4 i 0.29974(11) 0 0.10224(10) 1. 0 0.0079(3) 
S3 S2- 4 i 0.38927(11) 0 0.37266(10) 1. 0 0.0084(3) 
S4 S2- 4 i 0.64929(12) 0 0.22106(10) 1. 0 0.0096(3) 
S5 S2- 2 a 0 0 0 1. 0 0.0115(4) 

#End of data_97563-ICSD


