data_160149-ICSD
#?2014 by Fachinformationszentrum Karlsruhe, and the U.S. Secretary of 
#Commerce on behalf of the United States.  All rights reserved.
_database_code_ICSD                160149
_audit_creation_date               2008/08/01
_chemical_name_systematic
;
Disodium Oxotitanium Germanate - Lt
;
_chemical_formula_structural       'Na2 (Ti O) (Ge O4)'
_chemical_formula_sum              'Ge1 Na2 O5 Ti1'
_publ_section_title
;
Na2 Ti Ge O5: crystal structure stability at low temperature and high 
pressure
;
loop_
_citation_id
_citation_journal_abbrev
_citation_year
_citation_journal_volume
_citation_page_first
_citation_page_last
_citation_journal_id_ASTM
primary 'Journal of Physics and Chemistry of Solids' 2008 69 815 821 JPCSAW
_publ_author_name
;
Waskowska, A.;Gerward, L.;Staun Olsen, J.;Sieradzki, A.;Morgenroth, 
W.
;
_cell_length_a                     6.664(8)
_cell_length_b                     6.643(8)
_cell_length_c                     5.125(5)
_cell_angle_alpha                  90.
_cell_angle_beta                   90.
_cell_angle_gamma                  90.
_cell_volume                       226.88
_cell_formula_units_Z              2
_symmetry_space_group_name_H-M     'P m m n Z'
_symmetry_Int_Tables_number        59
_refine_ls_R_factor_all            .0241
loop_
_symmetry_equiv_pos_site_id
_symmetry_equiv_pos_as_xyz
  1	'x+.5, y+.5, -z'
  2	'-x, y+.5, -z'
  3	'x+.5, -y, -z'
  4	'-x, -y, -z'
  5	'-x+.5, -y+.5, z'
  6	'x, -y+.5, z'
  7	'-x+.5, y, z'
  8	'x, y, z'
loop_
_atom_type_symbol
_atom_type_oxidation_number
Ge4+	4
Na1+	1
O2-	-2
Ti4+	4
loop_
_atom_site_label
_atom_site_type_symbol
_atom_site_symmetry_multiplicity
_atom_site_Wyckoff_symbol
_atom_site_fract_x
_atom_site_fract_y
_atom_site_fract_z
_atom_site_occupancy
_atom_site_attached_hydrogens
_atom_site_U_iso_or_equiv
Na1 Na1+ 4 c 0 0 0 1. 0 0.00955(18) 
Ti1 Ti4+ 2 a 0.250 0.250 0.42590(7) 1. 0 0.00371(8) 
Ge1 Ge4+ 2 b 0.250 0.750 0.49995(4) 1. 0 0.00363(8) 
O1 O2- 2 a 0.250 0.250 0.75621(31) 1. 0 0.00716(25) 
O2 O2- 4 f 0.53390(18) 0.250 0.30511(21) 1. 0 0.00569(17) 
O3 O2- 4 e 0.250 0.53439(16) 0.30492(20) 1. 0 0.00566(17) 

#End of data_160149-ICSD


