data_415016-ICSD
#?2014 by Fachinformationszentrum Karlsruhe, and the U.S. Secretary of 
#Commerce on behalf of the United States.  All rights reserved.
_database_code_ICSD                415016
_audit_creation_date               2007/08/01
_chemical_name_systematic
;
Potassium Cesium Tin(IV) Zinc Sulfide (5/1/5/4/17)
;
_chemical_formula_structural       'K5 Cs (Sn (Sn4 Zn4 S17))'
_chemical_formula_sum              'Cs1 K5 S17 Sn5 Zn4'
_publ_section_title
;
(Sn (Zn4 Sn4 S17))(6-): a robust open framework based on metal-linked 
penta-supertetrahedral (Zn4 Sn4 S17)(10-) clusters with ion-exchange 
properties
;
loop_
_citation_id
_citation_journal_abbrev
_citation_year
_citation_journal_volume
_citation_page_first
_citation_page_last
_citation_journal_id_ASTM
primary 'Angewandte Chemie. International Edition' 2005 44 3552 3555 ACIEF5
_publ_author_name
;
Manos, M.J.;Iyer, R.G.;Quarez, E.;Liao, J.-H.;Kanatzidis, M.
;
_cell_length_a                     13.7684(11)
_cell_length_b                     13.7684(11)
_cell_length_c                     9.5630(9)
_cell_angle_alpha                  90.
_cell_angle_beta                   90.
_cell_angle_gamma                  90.
_cell_volume                       1812.85
_cell_formula_units_Z              2
_symmetry_space_group_name_H-M     'I -4 m 2'
_symmetry_Int_Tables_number        119
_refine_ls_R_factor_all            .0669
loop_
_symmetry_equiv_pos_site_id
_symmetry_equiv_pos_as_xyz
  1	'y, x, -z'
  2	'-y, -x, -z'
  3	'y, -x, -z'
  4	'-y, x, -z'
  5	'x, -y, z'
  6	'-x, y, z'
  7	'-x, -y, z'
  8	'x, y, z'
  9	'y+.5, x+.5, -z+.5'
 10	'-y+.5, -x+.5, -z+.5'
 11	'y+.5, -x+.5, -z+.5'
 12	'-y+.5, x+.5, -z+.5'
 13	'x+.5, -y+.5, z+.5'
 14	'-x+.5, y+.5, z+.5'
 15	'-x+.5, -y+.5, z+.5'
 16	'x+.5, y+.5, z+.5'
loop_
_atom_type_symbol
_atom_type_oxidation_number
Cs1+	1
K1+	1
S2-	-2
Sn4+	4
Zn2+	2
loop_
_atom_site_label
_atom_site_type_symbol
_atom_site_symmetry_multiplicity
_atom_site_Wyckoff_symbol
_atom_site_fract_x
_atom_site_fract_y
_atom_site_fract_z
_atom_site_occupancy
_atom_site_attached_hydrogens
_atom_site_U_iso_or_equiv
Sn1 Sn4+ 2 a 0.0000 0.0000 0.0000 1 0 0.0259(4) 
Sn2 Sn4+ 8 i 0.0000 0.27548(7) 0.02548(11) 1 0 0.0267(2) 
Zn1 Zn2+ 8 i 0.13891(12) 0.5000 0.10967(19) 1 0 0.0245(4) 
S1 S2- 2 c 0.0000 0.5000 0.2500 1 0 0.0197(11) 
S2 S2- 16 j -0.1421(2) 0.36267(19) -0.0328(3) 1 0 0.0306(5) 
S3 S2- 8 i -0.2170(3) 0.0000 -0.2574(5) 1 0 0.0378(10) 
S4 S2- 8 i 0.1427(3) 0.0000 0.1433(4) 1 0 0.0424(11) 
Cs1 Cs1+ 2 b 0.0000 0.0000 -0.5000 1 0 0.0914(13) 
K1 K1+ 2 d 0.0000 0.5000 -0.2500 1 0 0.0340(15) 
K2 K1+ 8 h -0.2598(2) 0.2402(2) -0.2500 1 0 0.0495(11) 

loop_
_atom_site_aniso_label
_atom_site_aniso_type_symbol
_atom_site_aniso_U_11
_atom_site_aniso_U_22
_atom_site_aniso_U_33
_atom_site_aniso_U_12
_atom_site_aniso_U_13
_atom_site_aniso_U_23
Sn1 Sn4+ 0.0235(5) 0.0235(5) 0.0308(11) 0.000 0.000 0.000
Sn2 Sn4+ 0.0345(5) 0.0191(4) 0.0265(4) 0.000 0.000 -0.0022(4)
Zn1 Zn2+ 0.0218(7) 0.0243(7) 0.0273(8) 0.000 0.0003(6) 0.000
S1 S2- 0.0172(16) 0.0172(16) 0.025(3) 0.000 0.000 0.000
S2 S2- 0.0300(11) 0.0291(11) 0.0326(12) -0.0003(9) -0.0074(11) -0.0058(11)
S3 S2- 0.0219(17) 0.065(3) 0.0263(16) 0.000 -0.0026(15) 0.000
S4 S2- 0.0225(18) 0.076(3) 0.0287(19) 0.000 0.0035(15) 0.000
Cs1 Cs1+ 0.107(2) 0.107(2) 0.061(2) 0.000 0.000 0.000
K1 K1+ 0.034(2) 0.034(2) 0.034(3) 0.000 0.000 0.000
K2 K1+ 0.0566(17) 0.0566(17) 0.035(2) -0.032(2) 0.0017(16) -0.0017(16)
#End of data_415016-ICSD


