data_416928-ICSD
#?2014 by Fachinformationszentrum Karlsruhe, and the U.S. Secretary of 
#Commerce on behalf of the United States.  All rights reserved.
_database_code_ICSD                416928
_audit_creation_date               2007/08/01
_chemical_name_systematic
;
Trilithium Trisodium Bis(hexafluoroindate)
;
_chemical_formula_structural       'Li3 Na3 (In F6)2'
_chemical_formula_sum              'F12 In2 Li3 Na3'
_publ_section_title
;
Thermal expansion of Li3 Na3 In2 F12 garnet
;
loop_
_citation_id
_citation_journal_abbrev
_citation_year
_citation_journal_volume
_citation_page_first
_citation_page_last
_citation_journal_id_ASTM
primary 'Journal of Physics: Condensed Matter' 2006 18 8925 8934 JCOMEL
_publ_author_name
;
Grzechnik, A.;Krueger, H.;Kahlenberg, V.;Friese, K.
;
_cell_length_a                     12.675(1)
_cell_length_b                     12.675(1)
_cell_length_c                     12.675(1)
_cell_angle_alpha                  90.
_cell_angle_beta                   90.
_cell_angle_gamma                  90.
_cell_volume                       2036.31
_cell_formula_units_Z              8
_symmetry_space_group_name_H-M     'I a -3 d'
_symmetry_Int_Tables_number        230
_refine_ls_R_factor_all            .0257
loop_
_symmetry_equiv_pos_site_id
_symmetry_equiv_pos_as_xyz
  1	'-z+.75, y+.25, x+.75'
  2	'z+.75, -y+.75, x+.25'
  3	'z+.25, y+.75, -x+.75'
  4	'-z+.25, -y+.25, -x+.25'
  5	'y+.25, x+.75, -z+.75'
  6	'-y+.75, x+.25, z+.75'
  7	'y+.75, -x+.75, z+.25'
  8	'-y+.25, -x+.25, -z+.25'
  9	'x+.75, -z+.75, y+.25'
 10	'x+.25, z+.75, -y+.75'
 11	'-x+.75, z+.25, y+.75'
 12	'-x+.25, -z+.25, -y+.25'
 13	'z+.75, -y+.25, -x+.75'
 14	'-z+.75, y+.75, -x+.25'
 15	'-z+.25, -y+.75, x+.75'
 16	'z+.25, y+.25, x+.25'
 17	'-y+.25, -x+.75, z+.75'
 18	'y+.75, -x+.25, -z+.75'
 19	'-y+.75, x+.75, -z+.25'
 20	'y+.25, x+.25, z+.25'
 21	'-x+.75, z+.75, -y+.25'
 22	'-x+.25, -z+.75, y+.75'
 23	'x+.75, -z+.25, -y+.75'
 24	'x+.25, z+.25, y+.25'
 25	'-z+.5, x+.5, y'
 26	'z+.5, x, -y+.5'
 27	'z, -x+.5, y+.5'
 28	'-z, -x, -y'
 29	'y, -z+.5, x+.5'
 30	'-y+.5, z+.5, x'
 31	'y+.5, z, -x+.5'
 32	'-y, -z, -x'
 33	'x+.5, y, -z+.5'
 34	'x, -y+.5, z+.5'
 35	'-x+.5, y+.5, z'
 36	'-x, -y, -z'
 37	'z+.5, -x+.5, -y'
 38	'-z+.5, -x, y+.5'
 39	'-z, x+.5, -y+.5'
 40	'z, x, y'
 41	'-y, z+.5, -x+.5'
 42	'y+.5, -z+.5, -x'
 43	'-y+.5, -z, x+.5'
 44	'y, z, x'
 45	'-x+.5, -y, z+.5'
 46	'-x, y+.5, -z+.5'
 47	'x+.5, -y+.5, -z'
 48	'x, y, z'
 49	'-z+.25, y+.75, x+.25'
 50	'z+.25, -y+.25, x+.75'
 51	'z+.75, y+.25, -x+.25'
 52	'-z+.75, -y+.75, -x+.75'
 53	'y+.75, x+.25, -z+.25'
 54	'-y+.25, x+.75, z+.25'
 55	'y+.25, -x+.25, z+.75'
 56	'-y+.75, -x+.75, -z+.75'
 57	'x+.25, -z+.25, y+.75'
 58	'x+.75, z+.25, -y+.25'
 59	'-x+.25, z+.75, y+.25'
 60	'-x+.75, -z+.75, -y+.75'
 61	'z+.25, -y+.75, -x+.25'
 62	'-z+.25, y+.25, -x+.75'
 63	'-z+.75, -y+.25, x+.25'
 64	'z+.75, y+.75, x+.75'
 65	'-y+.75, -x+.25, z+.25'
 66	'y+.25, -x+.75, -z+.25'
 67	'-y+.25, x+.25, -z+.75'
 68	'y+.75, x+.75, z+.75'
 69	'-x+.25, z+.25, -y+.75'
 70	'-x+.75, -z+.25, y+.25'
 71	'x+.25, -z+.75, -y+.25'
 72	'x+.75, z+.75, y+.75'
 73	'-z, x, y+.5'
 74	'z, x+.5, -y'
 75	'z+.5, -x, y'
 76	'-z+.5, -x+.5, -y+.5'
 77	'y+.5, -z, x'
 78	'-y, z, x+.5'
 79	'y, z+.5, -x'
 80	'-y+.5, -z+.5, -x+.5'
 81	'x, y+.5, -z'
 82	'x+.5, -y, z'
 83	'-x, y, z+.5'
 84	'-x+.5, -y+.5, -z+.5'
 85	'z, -x, -y+.5'
 86	'-z, -x+.5, y'
 87	'-z+.5, x, -y'
 88	'z+.5, x+.5, y+.5'
 89	'-y+.5, z, -x'
 90	'y, -z, -x+.5'
 91	'-y, -z+.5, x'
 92	'y+.5, z+.5, x+.5'
 93	'-x, -y+.5, z'
 94	'-x+.5, y, -z'
 95	'x, -y, -z+.5'
 96	'x+.5, y+.5, z+.5'
loop_
_atom_type_symbol
_atom_type_oxidation_number
F1-	-1
In3+	3
Li1+	1
Na1+	1
loop_
_atom_site_label
_atom_site_type_symbol
_atom_site_symmetry_multiplicity
_atom_site_Wyckoff_symbol
_atom_site_fract_x
_atom_site_fract_y
_atom_site_fract_z
_atom_site_occupancy
_atom_site_attached_hydrogens
_atom_site_U_iso_or_equiv
In1 In3+ 16 a 0 0 0 1 0 0.0109(3) 
Na1 Na1+ 24 c 0.125 0 0.25 1 0 0.0165(6) 
F1 F1- 96 h 0.15109(13) 0.03014(13) 0.44758(13) 1 0 0.0152(5) 
Li1 Li1+ 24 d 0 0.25 0.375 1 0 0.0152(19) 

loop_
_atom_site_aniso_label
_atom_site_aniso_type_symbol
_atom_site_aniso_U_11
_atom_site_aniso_U_22
_atom_site_aniso_U_33
_atom_site_aniso_U_12
_atom_site_aniso_U_13
_atom_site_aniso_U_23
In1 In3+ 0.0109(4) 0.0109(4) 0.0109(4) -0.00046(10) -0.00046(10) 
-0.00046(10)
Na1 Na1+ 0.0131(12) 0.0181(9) 0.0181(9) 0 0 0.0023(9)
F1 F1- 0.0112(9) 0.0177(10) 0.0167(9) -0.0014(7) 0.0028(7) -0.0006(7)
#End of data_416928-ICSD


