data_83607-ICSD
#?2014 by Fachinformationszentrum Karlsruhe, and the U.S. Secretary of 
#Commerce on behalf of the United States.  All rights reserved.
_database_code_ICSD                83607
_audit_creation_date               1998/06/26
_audit_update_record               1999/11/30
_chemical_name_systematic          'Calcium Carbonate - Iii'
_chemical_formula_structural       'Ca (C O3)'
_chemical_formula_sum              'C1 Ca1 O3'
_publ_section_title
;
The crystal structure of calcite III
;
loop_
_citation_id
_citation_journal_abbrev
_citation_year
_citation_journal_volume
_citation_journal_issue
_citation_page_first
_citation_page_last
_citation_journal_id_ASTM
primary 'Geophysical Research Letters' 1997 24 13 1595 1598 GPRLAJ
2 'American Mineralogist' 1994 79- 15 23 AMMIAY
_publ_author_name                  'Smyth, J.R.;Ahrens, T.J.'
_cell_length_a                     8.746(8)
_cell_length_b                     4.685(5)
_cell_length_c                     8.275(8)
_cell_angle_alpha                  90.
_cell_angle_beta                   94.4
_cell_angle_gamma                  90.
_cell_volume                       338.07
_cell_formula_units_Z              6
_symmetry_space_group_name_H-M     'C 1 2 1'
_symmetry_Int_Tables_number        5
loop_
_symmetry_equiv_pos_site_id
_symmetry_equiv_pos_as_xyz
  1	'-x, y, -z'
  2	'x, y, z'
  3	'-x+.5, y+.5, -z'
  4	'x+.5, y+.5, z'
loop_
_atom_type_symbol
_atom_type_oxidation_number
C4+	4
Ca2+	2
O2-	-2
loop_
_atom_site_label
_atom_site_type_symbol
_atom_site_symmetry_multiplicity
_atom_site_Wyckoff_symbol
_atom_site_fract_x
_atom_site_fract_y
_atom_site_fract_z
_atom_site_occupancy
_atom_site_attached_hydrogens
Ca1 Ca2+ 2 a 0 0 0 1. 0 
Ca2 Ca2+ 4 c 0.161 0.483 0.333 1. 0 
C1 C4+ 2 b 0.5 0.494 0.5 1. 0 
C2 C4+ 4 c 0.331 -.021 0.167 1. 0 
O1 O2- 2 b 0 0.266 0.5 1. 0 
O2 O2- 4 c 0.373 0.364 0.5 1. 0 
O3 O2- 4 c 0.204 0.136 0.167 1. 0 
O4 O2- 4 c 0.308 0.696 0.167 1. 0 
O5 O2- 4 c 0.464 0.096 0.167 1. 0 

#End of data_83607-ICSD


