data_17064-ICSD
#?2014 by Fachinformationszentrum Karlsruhe, and the U.S. Secretary of 
#Commerce on behalf of the United States.  All rights reserved.
_database_code_ICSD                17064
_audit_creation_date               1982/12/31
_audit_update_record               2004/10/01
_chemical_name_systematic          'Hexapotassium Disilicate'
_chemical_formula_structural       'K6 (Si2 O7)'
_chemical_formula_sum              'K6 O7 Si2'
_publ_section_title
;
Zur Kristallstruktur von Kaliumdisilicat
;
loop_
_citation_id
_citation_journal_abbrev
_citation_year
_citation_journal_volume
_citation_page_first
_citation_page_last
_citation_journal_id_ASTM
primary 'Zeitschrift fuer Kristallographie (1979-2010)' 1982 160 127 133 ZEKRDZ
_publ_author_name                  'Jansen, M.'
_cell_length_a                     6.458(2)
_cell_length_b                     8.887(4)
_cell_length_c                     10.879(5)
_cell_angle_alpha                  90.
_cell_angle_beta                   125.0(1)
_cell_angle_gamma                  90.
_cell_volume                       511.45
_cell_formula_units_Z              2
_symmetry_space_group_name_H-M     'P 1 21/c 1'
_symmetry_Int_Tables_number        14
_refine_ls_R_factor_all            .033
loop_
_symmetry_equiv_pos_site_id
_symmetry_equiv_pos_as_xyz
  1	'x, -y+.5, z+.5'
  2	'-x, -y, -z'
  3	'-x, y+.5, -z+.5'
  4	'x, y, z'
loop_
_atom_type_symbol
_atom_type_oxidation_number
K1+	1
O2-	-2
Si4+	4
loop_
_atom_site_label
_atom_site_type_symbol
_atom_site_symmetry_multiplicity
_atom_site_Wyckoff_symbol
_atom_site_fract_x
_atom_site_fract_y
_atom_site_fract_z
_atom_site_occupancy
_atom_site_attached_hydrogens
Si1 Si4+ 4 e 0.3267(2) 0.6348(1) 0.3741(1) 1. 0 
K1 K1+ 4 e 0.3949(1) 0.2798(1) 0.2768(1) 1. 0 
K2 K1+ 4 e 0.0227(2) 0.3510(1) 0.4119(1) 1. 0 
K3 K1+ 4 e 0.7922(1) 0.0249(1) 0.5448(1) 1. 0 
O1 O2- 4 e 0.7384(5) 0.4198(3) 0.7862(2) 1. 0 
O2 O2- 4 e 0.4975(5) 0.2156(3) 0.5668(3) 1. 0 
O3 O2- 4 e 0.9257(5) 0.3423(3) 0.6287(3) 1. 0 
O4 O2- 2 b 0.5 0.5 0.5 1. 0 

loop_
_atom_site_aniso_label
_atom_site_aniso_type_symbol
_atom_site_aniso_U_11
_atom_site_aniso_U_22
_atom_site_aniso_U_33
_atom_site_aniso_U_12
_atom_site_aniso_U_13
_atom_site_aniso_U_23
Si1 Si4+ 0.0077(4) 0.0078(4) 0.0079(3) 0.0006(3) 0.0043(3) 0.0009(3)
K1 K1+ 0.0175(4) 0.0182(3) 0.0140(3) 0.0020(3) 0.0106(3) -.0005(3)
K2 K1+ 0.0192(4) 0.0175(3) 0.0214(3) -.0029(3) 0.0120(3) -.0016(3)
K3 K1+ 0.0152(4) 0.0148(3) 0.0183(3) 0.0002(3) 0.0002(3) -.0021(3)
O1 O2- 0.0194(13) 0.0178(11) 0.009(1) -.0017(10) 0.0071(10) -.0023(9)
O2 O2- 0.0174(12) 0.0118(10) 0.0176(11) -.0053(9) 0.0115(10) -.0037(9)
O3 O2- 0.0184(13) 0.0212(13) 0.0315(14) -.0007(10) 0.0176(12) -.0019(11)
O4 O2- 0.0246(21) 0.0159(18) 0.0163(16) 0.0071(15) 0.0045(15) 0.0055(13)
#End of data_17064-ICSD


