data_168498-ICSD
#?2014 by Fachinformationszentrum Karlsruhe, and the U.S. Secretary of 
#Commerce on behalf of the United States.  All rights reserved.
_database_code_ICSD                168498
_audit_creation_date               2011/02/01
_chemical_name_systematic
;
Dipotassium Closo-(dodecachlorododecaborate) Octakis(sulfur Dioxide)
;
_chemical_formula_structural       '(K2 (B12 Cl12)) (S O2)8'
_chemical_formula_sum              'B12 Cl12 K2 O16 S8'
_publ_section_title
;
Alkali metal-sulfur dioxide complexes stabilized by halogenated closo-
dodecaborate anions
;
loop_
_citation_id
_citation_journal_abbrev
_citation_year
_citation_journal_volume
_citation_page_first
_citation_page_last
_citation_journal_id_ASTM
primary 'Dalton Transactions' 2010 39 8671 8678 DTARAF
_publ_author_name
;
Derendorf, J.;Kessler, M.;Knapp, C.;Ruehle, M.;Schulz, C.
;
_cell_length_a                     9.5370(19)
_cell_length_b                     20.104(4)
_cell_length_c                     10.242(2)
_cell_angle_alpha                  90.00
_cell_angle_beta                   100.48(3)
_cell_angle_gamma                  90.00
_cell_volume                       1930.96
_cell_formula_units_Z              2
_symmetry_space_group_name_H-M     'P 1 21/c 1'
_symmetry_Int_Tables_number        14
_refine_ls_R_factor_all            .0199
loop_
_symmetry_equiv_pos_site_id
_symmetry_equiv_pos_as_xyz
  1	'x, -y+.5, z+.5'
  2	'-x, -y, -z'
  3	'-x, y+.5, -z+.5'
  4	'x, y, z'
loop_
_atom_type_symbol
_atom_type_oxidation_number
B.833+	.833
Cl1-	-1
K1+	1
O2-	-2
S4+	4
loop_
_atom_site_label
_atom_site_type_symbol
_atom_site_symmetry_multiplicity
_atom_site_Wyckoff_symbol
_atom_site_fract_x
_atom_site_fract_y
_atom_site_fract_z
_atom_site_occupancy
_atom_site_attached_hydrogens
_atom_site_U_iso_or_equiv
B1 B.833+ 4 e 0.63599(16) 0.49787(8) 0.63141(15) 1 0 0.0164(3) 
Cl1 Cl1- 4 e 0.77996(4) 0.497880(17) 0.77212(3) 1 0 0.02240(8) 
B2 B.833+ 4 e 0.62443(16) 0.56090(7) 0.50750(15) 1 0 0.0160(3) 
Cl2 Cl1- 4 e 0.75600(4) 0.625522(17) 0.51813(3) 1 0 0.02173(8) 
B3 B.833+ 4 e 0.66283(16) 0.47686(8) 0.46858(15) 1 0 0.0163(3) 
Cl3 Cl1- 4 e 0.83305(4) 0.452975(18) 0.43418(4) 1 0 0.02333(8) 
B4 B.833+ 4 e 0.56019(16) 0.42308(8) 0.55448(15) 1 0 0.0167(3) 
Cl4 Cl1- 4 e 0.62084(4) 0.341788(17) 0.61081(4) 1 0 0.02416(8) 
B5 B.833+ 4 e 0.45960(16) 0.47419(8) 0.64667(15) 1 0 0.0164(3) 
Cl5 Cl1- 4 e 0.41915(4) 0.447772(17) 0.80306(3) 1 0 0.02217(8) 
B6 B.833+ 4 e 0.49862(16) 0.55917(7) 0.61734(15) 1 0 0.0164(3) 
Cl6 Cl1- 4 e 0.49911(4) 0.621526(17) 0.74242(3) 1 0 0.02275(8) 
K1 K1+ 4 e 0.14917(4) 0.345432(17) 0.14579(3) 1 0 0.02784(8) 
O1 O2- 4 e -0.00822(16) 0.25471(7) -0.01876(13) 1 0 0.0491(4) 
S1 S4+ 4 e -0.11906(5) 0.22709(2) -0.11370(5) 1 0 0.03952(11) 
O2 O2- 4 e -0.07940(16) 0.19151(6) -0.22055(13) 1 0 0.0444(3) 
O3 O2- 4 e 0.29310(14) 0.23480(6) 0.27101(12) 1 0 0.0390(3) 
S2 S4+ 4 e 0.40467(5) 0.22079(2) 0.37994(4) 1 0 0.03005(9) 
O4 O2- 4 e 0.36506(14) 0.19601(6) 0.49770(12) 1 0 0.0401(3) 
O5 O2- 4 e -0.10219(13) 0.42611(7) 0.09278(13) 1 0 0.0416(3) 
S3 S4+ 4 e -0.24971(5) 0.41294(2) 0.05092(4) 1 0 0.03287(10) 
O6 O2- 4 e -0.28952(16) 0.35038(7) -0.00711(15) 1 0 0.0516(4) 
O7 O2- 4 e 0.10760(14) 0.40621(7) -0.10352(12) 1 0 0.0421(3) 
S4 S4+ 4 e 0.05871(4) 0.40107(2) -0.24313(4) 1 0 0.03167(10) 
O8 O2- 4 e -0.01979(15) 0.34356(7) -0.29123(15) 1 0 0.0493(3) 

loop_
_atom_site_aniso_label
_atom_site_aniso_type_symbol
_atom_site_aniso_U_11
_atom_site_aniso_U_22
_atom_site_aniso_U_33
_atom_site_aniso_U_12
_atom_site_aniso_U_13
_atom_site_aniso_U_23
B1 B.833+ 0.0148(7) 0.0178(7) 0.0158(7) -0.0017(6) 0.0008(6) -0.0008(6)
Cl1 Cl1- 0.01977(17) 0.02519(17) 0.01948(16) -0.00110(13) -0.00374(13) 
0.00012(13)
B2 B.833+ 0.0151(7) 0.0156(7) 0.0174(7) -0.0031(5) 0.0030(6) -0.0004(6)
Cl2 Cl1- 0.02081(17) 0.02024(16) 0.02449(17) -0.00792(13) 0.00503(13) 
-0.00223(13)
B3 B.833+ 0.0134(7) 0.0168(7) 0.0188(7) -0.0015(5) 0.0034(6) -0.0001(6)
Cl3 Cl1- 0.01746(16) 0.02557(18) 0.02836(19) 0.00180(13) 0.00786(14) 
-0.00012(14)
B4 B.833+ 0.0170(7) 0.0150(7) 0.0179(7) -0.0010(6) 0.0025(6) -0.0002(6)
Cl4 Cl1- 0.02581(18) 0.01758(16) 0.02851(19) 0.00269(13) 0.00335(14) 
0.00405(13)
B5 B.833+ 0.0174(7) 0.0167(7) 0.0155(7) -0.0018(6) 0.0037(6) -0.0002(6)
Cl5 Cl1- 0.02584(18) 0.02450(17) 0.01731(16) -0.00234(13) 0.00695(13) 
0.00255(13)
B6 B.833+ 0.0172(7) 0.0156(7) 0.0165(7) -0.0025(6) 0.0031(6) -0.0021(5)
Cl6 Cl1- 0.02673(18) 0.02117(16) 0.02122(17) -0.00393(13) 0.00674(13) 
-0.00761(13)
K1 K1+ 0.02866(18) 0.02960(18) 0.02327(17) 0.00104(14) -0.00058(13) 
-0.00028(13)
O1 O2- 0.0666(10) 0.0410(8) 0.0360(7) -0.0102(7) -0.0002(7) -0.0056(6)
S1 S4+ 0.0390(3) 0.0372(2) 0.0439(3) -0.00418(19) 0.0119(2) -0.0133(2)
O2 O2- 0.0634(9) 0.0328(7) 0.0395(7) -0.0071(6) 0.0159(6) -0.0096(6)
O3 O2- 0.0504(8) 0.0309(6) 0.0314(6) 0.0029(6) -0.0039(6) 0.0040(5)
S2 S4+ 0.0308(2) 0.0276(2) 0.0307(2) -0.00229(16) 0.00294(16) 0.00594(16)
O4 O2- 0.0519(8) 0.0377(7) 0.0306(6) 0.0012(6) 0.0075(6) 0.0070(5)
O5 O2- 0.0342(7) 0.0452(8) 0.0438(8) 0.0004(6) 0.0025(6) 0.0114(6)
S3 S4+ 0.0300(2) 0.0365(2) 0.0337(2) 0.00794(17) 0.01007(17) 0.00261(17)
O6 O2- 0.0472(8) 0.0464(8) 0.0567(9) 0.0013(7) -0.0027(7) -0.0064(7)
O7 O2- 0.0428(8) 0.0502(8) 0.0332(7) 0.0036(6) 0.0068(6) 0.0081(6)
S4 S4+ 0.0273(2) 0.0369(2) 0.0321(2) 0.00313(16) 0.00886(17) 0.01070(17)
O8 O2- 0.0474(8) 0.0422(8) 0.0552(9) -0.0007(6) 0.0013(7) 0.0029(7)
#End of data_168498-ICSD


