data_261588-ICSD
#?2014 by Fachinformationszentrum Karlsruhe, and the U.S. Secretary of 
#Commerce on behalf of the United States.  All rights reserved.
_database_code_ICSD                261588
_audit_creation_date               2011/08/01
_chemical_name_systematic          'Dirubidium Tetrachlorozincate'
_chemical_formula_structural       'Rb2 Zn Cl4'
_chemical_formula_sum              'Cl4 Rb2 Zn1'
_publ_section_title
;
Modulated anharmonic ADPs are intrinsic to aperiodic crystals: a case 
study on incommensurate Rb2 Zn Cl4
;
loop_
_citation_id
_citation_journal_abbrev
_citation_year
_citation_journal_volume
_citation_journal_issue
_citation_page_first
_citation_page_last
_citation_journal_id_ASTM
primary 'Acta Crystallographica, Section B: Structural Science'
 2011 67 3 205 217 ASBSDK
_publ_author_name
;
Li Liang;Woelfel, A.;Schoenleber, A.;Swastik, M.;Schreurs, 
A.M.M.;Kroon-Batenburg, L.M.J.;van Smaalen, S.
;
_cell_length_a                     7.2405(6)
_cell_length_b                     12.630(3)
_cell_length_c                     9.2067(6)
_cell_angle_alpha                  90
_cell_angle_beta                   90
_cell_angle_gamma                  90
_cell_volume                       841.93
_cell_formula_units_Z              4
_symmetry_space_group_name_H-M     'P m c n'
_symmetry_Int_Tables_number        62
_refine_ls_R_factor_all            .0563
loop_
_symmetry_equiv_pos_site_id
_symmetry_equiv_pos_as_xyz
  1	'x, -y+.5, z+.5'
  2	'-x+.5, y, z'
  3	'x+.5, y+.5, -z+.5'
  4	'-x, -y, -z'
  5	'-x, y+.5, -z+.5'
  6	'x+.5, -y, -z'
  7	'-x+.5, -y+.5, z+.5'
  8	'x, y, z'
loop_
_atom_type_symbol
_atom_type_oxidation_number
Cl1-	-1
Rb1+	1
Zn2+	2
loop_
_atom_site_label
_atom_site_type_symbol
_atom_site_symmetry_multiplicity
_atom_site_Wyckoff_symbol
_atom_site_fract_x
_atom_site_fract_y
_atom_site_fract_z
_atom_site_occupancy
_atom_site_attached_hydrogens
_atom_site_U_iso_or_equiv
Rb1 Rb1+ 4 c 0.25 0.40659(4) 0.62969(4) 1 0 0.0408(3) 
Rb2 Rb1+ 4 c 0.25 0.81921(2) 0.48673(3) 1 0 0.0232(2) 
Zn1 Zn2+ 4 c 0.25 0.42179(3) 0.22344(3) 1 0 0.01827(10) 
Cl1 Cl1- 4 c 0.25 0.41962(8) -0.01837(9) 1 0 0.0426(3) 
Cl2 Cl1- 4 c 0.25 0.58430(6) 0.32169(9) 1 0 0.0400(3) 
Cl3 Cl1- 8 d 0.00171(7) 0.33945(6) 0.31245(8) 1 0 0.0426(4) 

loop_
_atom_site_aniso_label
_atom_site_aniso_type_symbol
_atom_site_aniso_U_11
_atom_site_aniso_U_22
_atom_site_aniso_U_33
_atom_site_aniso_U_12
_atom_site_aniso_U_13
_atom_site_aniso_U_23
Rb1 Rb1+ 0.0416(4) 0.0634(7) 0.0175(5) 0 0 -0.0017(3)
Rb2 Rb1+ 0.0341(4) 0.0202(4) 0.0154(4) 0 0 -0.00080(19)
Zn1 Zn2+ 0.02085(15) 0.01969(19) 0.01426(18) 0 0 -0.00021(8)
Cl1 Cl1- 0.0766(6) 0.0373(5) 0.0139(4) 0 0 -0.0043(2)
Cl2 Cl1- 0.0750(7) 0.0232(4) 0.0217(4) 0 0 -0.0068(2)
Cl3 Cl1- 0.0273(5) 0.0680(10) 0.0325(8) -0.0224(5) -0.0053(5) 0.0181(6)
#End of data_261588-ICSD


