data_248420-ICSD
#?2014 by Fachinformationszentrum Karlsruhe, and the U.S. Secretary of 
#Commerce on behalf of the United States.  All rights reserved.
_database_code_ICSD                248420
_audit_creation_date               2014/08/01
_chemical_name_systematic
;
Trinatrium Hydrogendiphosphate Nonahydrate
;
_chemical_formula_structural       'Na3 H P2 O7 (H2 O)9'
_chemical_formula_sum              'H19 Na3 O16 P2'
_publ_section_title
;
NMR crystallography of sodium diphosphates: combining dipolar, 
shielding, quadrupolar, diffraction, and computational information
;
loop_
_citation_id
_citation_journal_abbrev
_citation_year
_citation_journal_volume
_citation_journal_issue
_citation_page_first
_citation_page_last
_citation_journal_id_ASTM
primary CrystEngComm 2013 15 43 8727 8738 CRECF4
_publ_author_name
;
Perras, Frederic A.;Korobkov, Ilia;Bryce, David L.
;
_cell_length_a                     6.0867(2)
_cell_length_b                     31.3792(8)
_cell_length_c                     8.2848(2)
_cell_angle_alpha                  90.00
_cell_angle_beta                   108.6180(10)
_cell_angle_gamma                  90.00
_cell_volume                       1499.55
_cell_formula_units_Z              4
_symmetry_space_group_name_H-M     'P 1 21/n 1'
_symmetry_Int_Tables_number        14
_refine_ls_R_factor_all            .0255
loop_
_symmetry_equiv_pos_site_id
_symmetry_equiv_pos_as_xyz
  1	'-x+.5, y+.5, -z+.5'
  2	'-x, -y, -z'
  3	'x+.5, -y+.5, z+.5'
  4	'x, y, z'
loop_
_atom_type_symbol
_atom_type_oxidation_number
H1+	1
Na1+	1
O2-	-2
P5+	5
loop_
_atom_site_label
_atom_site_type_symbol
_atom_site_symmetry_multiplicity
_atom_site_Wyckoff_symbol
_atom_site_fract_x
_atom_site_fract_y
_atom_site_fract_z
_atom_site_occupancy
_atom_site_attached_hydrogens
_atom_site_U_iso_or_equiv
Na1 Na1+ 4 e 0.35802(9) 0.258704(17) 0.11929(7) 1 0 0.01556(12) 
Na2 Na1+ 4 e 0.68045(9) 0.166508(17) 0.16789(7) 1 0 0.01632(12) 
Na3 Na1+ 4 e 0.78917(9) 0.983030(18) 0.59364(7) 1 0 0.01798(12) 
P1 P5+ 4 e 0.39206(5) 0.390969(9) 0.39974(4) 1 0 0.00925(8) 
P2 P5+ 4 e 0.00063(5) 0.336862(10) 0.21737(4) 1 0 0.00946(8) 
O1 O2- 4 e 0.46422(16) 0.36004(3) 0.54515(11) 1 0 0.01469(18) 
O2 O2- 4 e 0.27663(17) 0.43098(3) 0.42969(12) 1 0 0.01684(19) 
O3 O2- 4 e 0.60195(16) 0.40440(3) 0.33870(12) 1 0 0.01523(18) 
H1 H1+ 4 e 0.6911 0.3835 0.3471 1 0 0.018 
O4 O2- 4 e 0.22666(16) 0.36730(3) 0.23455(11) 1 0 0.01351(18) 
O5 O2- 4 e 0.08510(17) 0.29152(3) 0.22611(12) 1 0 0.01604(19) 
O6 O2- 4 e -0.08503(15) 0.34816(3) 0.36599(11) 1 0 0.01300(17) 
O7 O2- 4 e -0.16573(16) 0.34876(3) 0.04523(11) 1 0 0.01671(19) 
O8 O2- 4 e 0.11504(16) 0.21745(3) -0.11377(12) 1 0 0.01598(18) 
H2 H1+ 4 e 0.2256 0.1974 -0.1279 1 0 0.019 
H3 H1+ 4 e -0.0078 0.2025 -0.0781 1 0 0.019 
O9 O2- 4 e 0.38364(17) 0.32526(3) -0.03322(12) 1 0 0.0189(2) 
H4 H1+ 4 e 0.5452 0.3310 -0.0085 1 0 0.023 
H5 H1+ 4 e 0.3145 0.3451 0.0326 1 0 0.023 
O10 O2- 4 e 0.34740(16) 0.18873(3) 0.24265(12) 1 0 0.01715(19) 
H6 H1+ 4 e 0.2154 0.1741 0.1697 1 0 0.021 
H7 H1+ 4 e 0.3728 0.1809 0.3648 1 0 0.021 
O11 O2- 4 e 0.70401(17) 0.23587(3) 0.06295(12) 1 0 0.01842(19) 
H8 H1+ 4 e 0.6717 0.2323 -0.0569 1 0 0.022 
H9 H1+ 4 e 0.8363 0.2563 0.1094 1 0 0.022 
O12 O2- 4 e 0.64203(18) 0.09225(3) 0.22423(13) 1 0 0.0211(2) 
H10 H1+ 4 e 0.4936 0.0868 0.2362 1 0 0.025 
H11 H1+ 4 e 0.6494 0.0803 0.1135 1 0 0.025 
O13 O2- 4 e 0.48773(18) 1.01526(3) 0.69013(13) 1 0 0.0224(2) 
H12 H1+ 4 e 0.5786 1.0373 0.7598 1 0 0.027 
H13 H1+ 4 e 0.3733 1.0036 0.7433 1 0 0.027 
O14 O2- 4 e 0.75215(18) 0.91345(3) 0.68222(13) 1 0 0.0193(2) 
H14 H1+ 4 e 0.8692 0.8993 0.7712 1 0 0.023 
H15 H1+ 4 e 0.6937 0.8943 0.5804 1 0 0.023 
O15 O2- 4 e 1.08294(18) 0.95108(3) 0.48463(12) 1 0 0.0196(2) 
H16 H1+ 4 e 1.0123 0.9315 0.3947 1 0 0.023 
H17 H1+ 4 e 1.1749 0.9353 0.5900 1 0 0.023 
O16 O2- 4 e 0.87261(19) 0.00165(3) 0.15756(13) 1 0 0.0219(2) 
H18 H1+ 4 e 0.8809 -0.0262 0.1132 1 0 0.026 
H19 H1+ 4 e 0.8459 0.0236 0.0649 1 0 0.026 

loop_
_atom_site_aniso_label
_atom_site_aniso_type_symbol
_atom_site_aniso_U_11
_atom_site_aniso_U_22
_atom_site_aniso_U_33
_atom_site_aniso_U_12
_atom_site_aniso_U_13
_atom_site_aniso_U_23
Na1 Na1+ 0.0147(2) 0.0146(3) 0.0174(2) -0.00040(19) 0.00519(19) 
-0.00194(18)
Na2 Na1+ 0.0169(3) 0.0157(3) 0.0171(2) 0.00130(19) 0.0066(2) -0.00021(19)
Na3 Na1+ 0.0183(3) 0.0159(3) 0.0198(3) -0.0001(2) 0.0062(2) 0.00151(19)
P1 P5+ 0.00874(14) 0.00834(15) 0.01020(14) 0.00022(10) 0.00236(10) 
-0.00001(10)
P2 P5+ 0.00932(15) 0.01049(15) 0.00873(14) -0.00090(10) 0.00310(10) 
-0.00081(10)
O1 O2- 0.0132(4) 0.0158(4) 0.0146(4) 0.0021(3) 0.0038(3) 0.0050(3)
O2 O2- 0.0211(5) 0.0122(4) 0.0170(4) 0.0044(4) 0.0058(3) -0.0022(3)
O3 O2- 0.0110(4) 0.0133(4) 0.0223(4) 0.0000(3) 0.0065(3) 0.0045(3)
O4 O2- 0.0140(4) 0.0160(4) 0.0119(4) -0.0054(3) 0.0061(3) -0.0034(3)
O5 O2- 0.0191(5) 0.0114(4) 0.0198(4) 0.0009(3) 0.0093(4) -0.0008(3)
O6 O2- 0.0124(4) 0.0160(4) 0.0123(4) 0.0003(3) 0.0064(3) -0.0009(3)
O7 O2- 0.0154(4) 0.0216(5) 0.0108(4) -0.0020(4) 0.0009(3) 0.0011(3)
O8 O2- 0.0146(4) 0.0163(4) 0.0165(4) 0.0009(3) 0.0041(3) -0.0001(3)
O9 O2- 0.0157(4) 0.0227(5) 0.0183(4) -0.0004(4) 0.0054(4) 0.0006(4)
O10 O2- 0.0173(5) 0.0183(5) 0.0149(4) -0.0035(4) 0.0038(3) 0.0016(3)
O11 O2- 0.0197(5) 0.0169(5) 0.0204(4) -0.0037(4) 0.0089(4) -0.0033(4)
O12 O2- 0.0239(5) 0.0202(5) 0.0217(5) 0.0013(4) 0.0107(4) 0.0027(4)
O13 O2- 0.0209(5) 0.0248(5) 0.0216(5) -0.0061(4) 0.0067(4) -0.0061(4)
O14 O2- 0.0222(5) 0.0155(5) 0.0193(4) 0.0002(4) 0.0053(4) 0.0009(3)
O15 O2- 0.0251(5) 0.0154(5) 0.0176(4) 0.0005(4) 0.0060(4) 0.0004(3)
O16 O2- 0.0300(5) 0.0166(5) 0.0193(5) 0.0037(4) 0.0082(4) 0.0024(4)
#End of data_248420-ICSD


