data_20475-ICSD
#?2014 by Fachinformationszentrum Karlsruhe, and the U.S. Secretary of 
#Commerce on behalf of the United States.  All rights reserved.
_database_code_ICSD                20475
_audit_creation_date               1980/01/01
_audit_update_record               2012/08/01
_chemical_name_systematic
;
Hexasodium Tricadmium Catena-silicate - K
;
_chemical_formula_structural       'Na6 Cd3 (Si6 O18)'
_chemical_formula_sum              'Cd3 Na6 O18 Si6'
_publ_section_title
;
The crystal structure of Na, Cd-silicate Na2 Cd Si2 O6 = Na6 Cd3 (Si6 
O18)
;
loop_
_citation_id
_citation_journal_abbrev
_citation_year
_citation_journal_volume
_citation_page_first
_citation_page_last
_citation_journal_id_ASTM
primary 'Doklady Akademii Nauk SSSR' 1967 175 80 83 DANKAS
_publ_author_name
;
Simonov, M.A.;Egorov Tismenko, Yu.K.;Belov, N.V.
;
_cell_length_a                     10.40(5)
_cell_length_b                     10.40(5)
_cell_length_c                     7.45(3)
_cell_angle_alpha                  90.
_cell_angle_beta                   90.
_cell_angle_gamma                  90.
_cell_volume                       805.79
_cell_formula_units_Z              2
_symmetry_space_group_name_H-M     'P m 21 n'
_symmetry_Int_Tables_number        31
_refine_ls_R_factor_all            .115
loop_
_symmetry_equiv_pos_site_id
_symmetry_equiv_pos_as_xyz
  1	'x+.5, y+.5, -z'
  2	'-x+.5, y+.5, -z'
  3	'-x, y, z'
  4	'x, y, z'
loop_
_atom_type_symbol
_atom_type_oxidation_number
Cd2+	2
Na1+	1
O2-	-2
Si4+	4
loop_
_atom_site_label
_atom_site_type_symbol
_atom_site_symmetry_multiplicity
_atom_site_Wyckoff_symbol
_atom_site_fract_x
_atom_site_fract_y
_atom_site_fract_z
_atom_site_occupancy
_atom_site_attached_hydrogens
_atom_site_U_iso_or_equiv
Cd1 Cd2+ 2 a 0 0 0 1. 0 0.03 
Cd2 Cd2+ 2 a 0 0.25 0.25 1. 0 0.03 
Cd3 Cd2+ 2 a 0 0.25 0.75 1. 0 0.03 
Si1 Si4+ 4 b 0.267 0.263 0.53 1. 0 0.03 
Si2 Si4+ 4 b 0.279 0.26 0.958 1. 0 0.03 
Si3 Si4+ 2 a 0.5 0.032 0.99 1. 0 0.03 
Si4 Si4+ 2 a 0.5 0.46 0.455 1. 0 0.03 
Na1 Na1+ 4 b 0.208 0.499 0.262 1. 0 0.03 
Na2 Na1+ 4 b 0.246 0.475 0.771 1. 0 0.03 
Na3 Na1+ 2 a 0 0.494 0.526 1. 0 0.03 
Na4 Na1+ 2 a 0.5 0.24 0.277 1. 0 0.03 
O1 O2- 4 b 0.28 0.263 0.75 1. 0 0.03 
O2 O2- 4 b 0.373 0.363 0.445 1. 0 0.03 
O3 O2- 4 b 0.37 0.126 0.997 1. 0 0.03 
O4 O2- 4 b 0.133 0.199 1.01 1. 0 0.03 
O5 O2- 4 b 0.138 0.301 0.437 1. 0 0.03 
O6 O2- 4 b 0.314 0.362 1.095 1. 0 0.03 
O7 O2- 4 b 0.322 0.118 0.482 1. 0 0.03 
O8 O2- 2 a 0 0.429 1.153 1. 0 0.03 
O9 O2- 2 a 0.5 0.531 0.642 1. 0 0.03 
O10 O2- 2 a 0.5 0.55 0.295 1. 0 0.03 
O11 O2- 2 a 0 0.458 0.815 1. 0 0.03 

#End of data_20475-ICSD


