data_411489-ICSD
#?2014 by Fachinformationszentrum Karlsruhe, and the U.S. Secretary of 
#Commerce on behalf of the United States.  All rights reserved.
_database_code_ICSD                411489
_audit_creation_date               2002/10/01
_audit_update_record               2012/02/01
_chemical_name_systematic
;
Potassium Hexamanganese Bis(diphosphate(V)) Triphosphate(V)
;
_chemical_formula_structural       'K Mn6 (P2 O7)2 (P3 O10)'
_chemical_formula_sum              'K1 Mn6 O24 P7'
_publ_section_title
;
Identification of a new family of phosphate compounds, AI BII6 (P2 
O7)2 P3 O10: structures of K Mn6 (P2 O7)2P3 O10 and Ag Mn6 (P2 O7)2 
P3 O10
;
loop_
_citation_id
_citation_journal_abbrev
_citation_year
_citation_journal_volume
_citation_page_first
_citation_page_last
_citation_journal_id_ASTM
primary 'Solid State Sciences' 2001 3 587 592 SSSCFJ
_publ_author_name
;
Bennazha, J.;ElMaadi, A.;Boukhari, A.;Holt, E.M.
;
_cell_length_a                     5.405(2)
_cell_length_b                     26.918(11)
_cell_length_c                     6.660(5)
_cell_angle_alpha                  90.
_cell_angle_beta                   107.31(3)
_cell_angle_gamma                  90.
_cell_volume                       925.09
_cell_formula_units_Z              2
_symmetry_space_group_name_H-M     'P 1 21/m 1'
_symmetry_Int_Tables_number        11
_refine_ls_R_factor_all            .049
loop_
_symmetry_equiv_pos_site_id
_symmetry_equiv_pos_as_xyz
  1	'x, -y+.5, z'
  2	'-x, -y, -z'
  3	'-x, y+.5, -z'
  4	'x, y, z'
loop_
_atom_type_symbol
_atom_type_oxidation_number
K1+	1
Mn2+	2
O2-	-2
P5+	5
loop_
_atom_site_label
_atom_site_type_symbol
_atom_site_symmetry_multiplicity
_atom_site_Wyckoff_symbol
_atom_site_fract_x
_atom_site_fract_y
_atom_site_fract_z
_atom_site_occupancy
_atom_site_attached_hydrogens
Mn1 Mn2+ 4 f 0.20809(9) 0.40211(2) 0.08520(8) 1. 0 
Mn2 Mn2+ 4 f -.11912(10) 0.31683(2) -.28043(8) 1. 0 
Mn3 Mn2+ 4 f -.18556(10) 0.45549(2) 0.31413(8) 1. 0 
K1 K1+ 2 e 0.2801(2) 0.25 0.3716(2) 1. 0 
P1 P5+ 2 e -.5393(2) 0.25 -.09514(19) 1. 0 
O1 O2- 2 e -.8247(6) 0.25 -.2195(6) 1. 0 
O2 O2- 2 e -.3478(6) 0.25 -.2216(5) 1. 0 
O3 O2- 4 f -.4971(4) 0.29654(9) 0.0569(4) 1. 0 
P2 P5+ 4 f -.25160(16) 0.33183(3) 0.19000(14) 1. 0 
O4 O2- 4 f -.0615(5) 0.33365(9) 0.0574(4) 1. 0 
O5 O2- 4 f -.3903(5) 0.38058(8) 0.2012(4) 1. 0 
O6 O2- 4 f -.1388(5) 0.30549(9) 0.3983(4) 1. 0 
P3 P5+ 4 f 0.68257(15) 0.60929(3) 0.38372(13) 1. 0 
O7 O2- 4 f 0.8570(5) 0.59573(9) 0.6047(4) 1. 0 
O8 O2- 4 f 0.8452(5) 0.62243(9) 0.2349(4) 1. 0 
O9 O2- 4 f 0.4841(5) 0.64850(11) 0.3843(5) 1. 0 
O10 O2- 4 f 0.5464(5) 0.55735(10) 0.2939(4) 1. 0 
P4 P5+ 4 f 0.29139(16) 0.52435(3) 0.20522(14) 1. 0 
O11 O2- 4 f 0.1300(5) 0.54801(9) -.0017(4) 1. 0 
O12 O2- 4 f 0.4102(4) 0.47432(9) 0.1746(4) 1. 0 
O13 O2- 4 f 0.1416(5) 0.52159(10) 0.3682(4) 1. 0 

loop_
_atom_site_aniso_label
_atom_site_aniso_type_symbol
_atom_site_aniso_U_11
_atom_site_aniso_U_22
_atom_site_aniso_U_33
_atom_site_aniso_U_12
_atom_site_aniso_U_13
_atom_site_aniso_U_23
Mn1 Mn2+ 0.0156(3) 0.0155(3) 0.0171(3) 0.00013(17) 0.0055(2) -.00075(18)
Mn2 Mn2+ 0.0162(3) 0.0152(3) 0.0163(3) -.00027(17) 0.0054(2) 0.00003(18)
Mn3 Mn2+ 0.0161(3) 0.0192(3) 0.0162(3) 0.00210(17) 0.0051(2) -.0011(2)
K1 K1+ 0.0252(6) 0.0373(7) 0.0254(6) 0 0.0103(5) 0
P1 P5+ 0.0125(5) 0.0130(5) 0.0156(6) 0 0.0039(4) 0
O1 O2- 0.0136(14) 0.0202(17) 0.0210(18) 0 0.0041(14) 0
O2 O2- 0.0169(15) 0.0160(15) 0.0186(17) 0 0.0058(14) 0
O3 O2- 0.0186(10) 0.0150(11) 0.0218(12) -.0015(9) 0.0084(10) -.0024(9)
P2 P5+ 0.0147(4) 0.0126(4) 0.0151(4) -.0002(3) 0.0053(3) -.0001(3)
O4 O2- 0.0183(11) 0.0193(12) 0.0197(12) -.0056(9) 0.0088(10) -.0043(10)
O5 O2- 0.0168(11) 0.0105(10) 0.0227(12) 0.0007(8) 0.0054(10) 0.0004(9)
O6 O2- 0.0240(11) 0.0186(12) 0.0156(12) 0.0027(9) 0.0059(10) 0.0006(9)
P3 P5+ 0.0143(4) 0.0134(4) 0.0153(4) -.0004(3) 0.0053(3) 0.0011(3)
O7 O2- 0.0164(10) 0.0182(11) 0.0157(11) 0.0009(8) 0.0038(9) 0.0014(9)
O8 O2- 0.0183(11) 0.0190(12) 0.0181(12) -.0009(9) 0.0093(10) 0.0003(9)
O9 O2- 0.0207(12) 0.0299(15) 0.0251(14) 0.0091(10) 0.0065(11) 0.0045(11)
O10 O2- 0.0230(12) 0.0211(13) 0.0239(13) -.0051(10) 0.0024(11) -.0017(10)
P4 P5+ 0.0136(4) 0.0126(4) 0.0146(4) -.0005(3) 0.0041(3) -.0002(3)
O11 O2- 0.0159(11) 0.0176(11) 0.0158(12) 0.0027(8) 0.0046(10) 0.0027(9)
O12 O2- 0.0177(10) 0.0129(11) 0.0207(12) 0.0018(8) 0.0082(10) -.0002(9)
O13 O2- 0.0222(11) 0.0213(12) 0.0197(12) 0.0021(9) 0.0111(10) -.0006(10)
#End of data_411489-ICSD


