data_24676-ICSD
#?2014 by Fachinformationszentrum Karlsruhe, and the U.S. Secretary of 
#Commerce on behalf of the United States.  All rights reserved.
_database_code_ICSD                24676
_audit_creation_date               1980/01/01
_audit_update_record               2012/08/01
_chemical_name_systematic
;
Sodium Pentapotassium Dichloride Bis(dithionate)
;
_chemical_formula_structural       'Na K5 Cl2 (S2 O6)2'
_chemical_formula_sum              'Cl2 K5 Na1 O12 S4'
_publ_section_title
;
The crystal structures of two potassium sodium chloride dithionates
;
loop_
_citation_id
_citation_journal_abbrev
_citation_year
_citation_journal_volume
_citation_page_first
_citation_page_last
_citation_journal_id_ASTM
primary 'Acta Crystallographica (1,1948-23,1967)' 1953 6 187 196 ACCRA9
_publ_author_name                  'Stanley, E.'
_cell_length_a                     8.5621(6)
_cell_length_b                     8.5621(6)
_cell_length_c                     11.5288(6)
_cell_angle_alpha                  90.
_cell_angle_beta                   90.
_cell_angle_gamma                  90.
_cell_volume                       845.17
_cell_formula_units_Z              2
_symmetry_space_group_name_H-M     'P 4/m n c'
_symmetry_Int_Tables_number        128
_refine_ls_R_factor_all            .15
loop_
_symmetry_equiv_pos_site_id
_symmetry_equiv_pos_as_xyz
  1	'y+.5, x+.5, -z+.5'
  2	'-y+.5, -x+.5, -z+.5'
  3	'-y, x, -z'
  4	'y, -x, -z'
  5	'x+.5, -y+.5, -z+.5'
  6	'-x+.5, y+.5, -z+.5'
  7	'x, y, -z'
  8	'-x, -y, -z'
  9	'-y+.5, -x+.5, z+.5'
 10	'y+.5, x+.5, z+.5'
 11	'y, -x, z'
 12	'-y, x, z'
 13	'-x+.5, y+.5, z+.5'
 14	'x+.5, -y+.5, z+.5'
 15	'-x, -y, z'
 16	'x, y, z'
loop_
_atom_type_symbol
_atom_type_oxidation_number
Cl1-	-1
K1+	1
Na1+	1
O2-	-2
S5+	5
loop_
_atom_site_label
_atom_site_type_symbol
_atom_site_symmetry_multiplicity
_atom_site_Wyckoff_symbol
_atom_site_fract_x
_atom_site_fract_y
_atom_site_fract_z
_atom_site_occupancy
_atom_site_attached_hydrogens
Na1 Na1+ 2 a 0 0 0 1. 0 
K1 K1+ 2 b 0.5 0.5 0 1. 0 
K2 K1+ 8 g 0.187 0.313 0.25 1. 0 
Cl1 Cl1- 4 e 0 0 0.235 1. 0 
S1 S5+ 8 h 0.406 0.077 0 1. 0 
O1 O2- 8 h 0.03 0.275 0 1. 0 
O2 O2- 16 i 0.167 0.59 0.106 1. 0 

#End of data_24676-ICSD


