data_66266-ICSD
#?2014 by Fachinformationszentrum Karlsruhe, and the U.S. Secretary of 
#Commerce on behalf of the United States.  All rights reserved.
_database_code_ICSD                66266
_audit_creation_date               1992/08/20
_chemical_name_systematic          'Heptapotassium Tantalum Sulfate'
_chemical_formula_structural       'K7 Ta (S O4)6'
_chemical_formula_sum              'K7 O24 S6 Ta1'
_publ_section_title
;
The crystal structure of K7Nb(SO4)6 and K7Ta(SO4) 6
;
loop_
_citation_id
_citation_journal_abbrev
_citation_year
_citation_journal_volume
_citation_page_first
_citation_page_last
_citation_journal_id_ASTM
primary 'Acta Chemica Scandinavica (43,1989-)' 1990 44 328 331 ACHSE7
_publ_author_name                  'Borup, F.;Berg, R.W.;Nielson, K.'
_cell_length_a                     14.969(8)
_cell_length_b                     14.969(8)
_cell_length_c                     9.283(5)
_cell_angle_alpha                  90.
_cell_angle_beta                   90.
_cell_angle_gamma                  120.
_cell_volume                       1801.38
_cell_formula_units_Z              3
_symmetry_space_group_name_H-M     'R -3 H'
_symmetry_Int_Tables_number        148
_refine_ls_R_factor_all            .027
loop_
_symmetry_equiv_pos_site_id
_symmetry_equiv_pos_as_xyz
  1	'x-y, x, -z'
  2	'y, -x+y, -z'
  3	'-x, -y, -z'
  4	'-x+y, -x, z'
  5	'-y, x-y, z'
  6	'x, y, z'
  7	'x-y+.6666, x+.3333, -z+.3333'
  8	'x-y+.3333, x+.6666, -z+.6666'
  9	'y+.6666, -x+y+.3333, -z+.3333'
 10	'y+.3333, -x+y+.6666, -z+.6666'
 11	'-x+.6666, -y+.3333, -z+.3333'
 12	'-x+.3333, -y+.6666, -z+.6666'
 13	'-x+y+.6666, -x+.3333, z+.3333'
 14	'-x+y+.3333, -x+.6666, z+.6666'
 15	'-y+.6666, x-y+.3333, z+.3333'
 16	'-y+.3333, x-y+.6666, z+.6666'
 17	'x+.6666, y+.3333, z+.3333'
 18	'x+.3333, y+.6666, z+.6666'
loop_
_atom_type_symbol
_atom_type_oxidation_number
K1+	1
O2-	-2
S6+	6
Ta5+	5
loop_
_atom_site_label
_atom_site_type_symbol
_atom_site_symmetry_multiplicity
_atom_site_Wyckoff_symbol
_atom_site_fract_x
_atom_site_fract_y
_atom_site_fract_z
_atom_site_occupancy
_atom_site_attached_hydrogens
_atom_site_B_iso_or_equiv
Ta1 Ta5+ 3 a 0 0 0 1. 0 1.13(1) 
K1 K1+ 18 f 0.05789(6) 0.27459(6) -.37206(7) 1. 0 3.73(7) 
K2 K1+ 3 b 0 0 0.5 1. 0 3.39(3) 
S1 S6+ 18 f -.15905(4) 0.03215(4) -.22481(5) 1. 0 7.82(1) 
O1 O2- 18 f 0.0022(2) 0.1482(2) 0.3669(2) 1. 0 2.42(6) 
O2 O2- 18 f 0.0167(1) -.0978(1) -.1211(2) 1. 0 4.06(10) 
O3 O2- 18 f -.1922(2) -.4251(2) -.4614(3) 1. 0 4.84(10) 
O4 O2- 18 f -.3470(3) -.4151(2) -.4801(3) 1. 0 5.65(14) 

#End of data_66266-ICSD


