data_1238-ICSD
#?2014 by Fachinformationszentrum Karlsruhe, and the U.S. Secretary of 
#Commerce on behalf of the United States.  All rights reserved.
_database_code_ICSD                1238
_audit_creation_date               1980/01/01
_audit_update_record               2012/02/01
_chemical_name_systematic
;
Hexapotassium Hexatelluroduo-disilicate
;
_chemical_formula_structural       'K6 (Si2 Te6)'
_chemical_formula_sum              'K6 Si2 Te6'
_publ_section_title
;
K6 (Si2 Te6) - Synthese und struktur des ersten tellurodisilikats
;
loop_
_citation_id
_citation_journal_abbrev
_citation_year
_citation_journal_volume
_citation_page_first
_citation_page_last
_citation_journal_id_ASTM
primary 'Angewandte Chemie (German Edition)' 1977 89 566 567 ANCEAD
_publ_author_name                  'Dittmar, G.'
_cell_length_a                     9.652(5)
_cell_length_b                     13.621(8)
_cell_length_c                     8.902(5)
_cell_angle_alpha                  90.
_cell_angle_beta                   117.34(5)
_cell_angle_gamma                  90.
_cell_volume                       1039.61
_cell_formula_units_Z              2
_symmetry_space_group_name_H-M     'C 1 2/m 1'
_symmetry_Int_Tables_number        12
_refine_ls_R_factor_all            .061
loop_
_symmetry_equiv_pos_site_id
_symmetry_equiv_pos_as_xyz
  1	'-x, y, -z'
  2	'-x, -y, -z'
  3	'x, -y, z'
  4	'x, y, z'
  5	'-x+.5, y+.5, -z'
  6	'-x+.5, -y+.5, -z'
  7	'x+.5, -y+.5, z'
  8	'x+.5, y+.5, z'
loop_
_atom_type_symbol
_atom_type_oxidation_number
K1+	1
Si3+	3
Te2-	-2
loop_
_atom_site_label
_atom_site_type_symbol
_atom_site_symmetry_multiplicity
_atom_site_Wyckoff_symbol
_atom_site_fract_x
_atom_site_fract_y
_atom_site_fract_z
_atom_site_occupancy
_atom_site_attached_hydrogens
K1 K1+ 4 e 0.25 0.25 0 1. 0 
K2 K1+ 4 i 0.7896(6) 0 0.3225(7) 1. 0 
K3 K1+ 4 h 0 0.3405(4) 0.5 1. 0 
Si1 Si3+ 4 i 0.8923(6) 0 0.8605(6) 1. 0 
Te1 Te2- 4 i 0.6384(1) 0 0.8775(2) 1. 0 
Te2 Te2- 8 j 0.9024(1) 0.1503(1) 0.7035(1) 1. 0 

loop_
_atom_site_aniso_label
_atom_site_aniso_type_symbol
_atom_site_aniso_U_11
_atom_site_aniso_U_22
_atom_site_aniso_U_33
_atom_site_aniso_U_12
_atom_site_aniso_U_13
_atom_site_aniso_U_23
K1 K1+ 0.033(3) 0.026(2) 0.043(3) -.011(2) -.002(3) 0.006(2)
K2 K1+ 0.025(3) 0.079(5) 0.033(3) 0 0.015(2) 0
K3 K1+ 0.020(2) 0.029(2) 0.034(2) 0 0.010(2) 0
Si1 Si3+ 0.009(2) 0.014(2) 0.017(2) 0 0.006(2) 0
Te1 Te2- 0.0093(5) 0.0206(6) 0.0245(6) 0 0.0094(5) 0
Te2 Te2- 0.0171(4) 0.0238(5) 0.0282(5) -.0038(4) 0.0090(4) 0.0094(4)
#End of data_1238-ICSD


