data_203214-ICSD
#?2014 by Fachinformationszentrum Karlsruhe, and the U.S. Secretary of 
#Commerce on behalf of the United States.  All rights reserved.
_database_code_ICSD                203214
_audit_creation_date               1996/10/14
_chemical_name_systematic
;
Dipotassium Dihydroxobis(vanadato)trimanganate(II)
;
_chemical_formula_structural       'K2 (Mn3 (O H)2 (V O4)2)'
_chemical_formula_sum              'H2 K2 Mn3 O10 V2'
_publ_section_title
;
K2 Mn3 (O H)2 (V O4)2: a new two-dimensional potassium manganese(II) 
hydroxyvanadate
;
loop_
_citation_id
_citation_journal_abbrev
_citation_year
_citation_journal_volume
_citation_page_first
_citation_page_last
_citation_journal_id_ASTM
primary 'Acta Crystallographica, Section C: Crystal Structure Communications'
 1996 52 284 286 ACSCEE
_publ_author_name
;
Liao, J.-H.;Guyomard, D.;Piffard, Y.;Tournoux, M.
;
_cell_length_a                     15.204(2)
_cell_length_b                     6.1593(5)
_cell_length_c                     5.3998(4)
_cell_angle_alpha                  90.
_cell_angle_beta                   105.401(9)
_cell_angle_gamma                  90.
_cell_volume                       487.51
_cell_formula_units_Z              2
_symmetry_space_group_name_H-M     'C 1 2/m 1'
_symmetry_Int_Tables_number        12
_refine_ls_R_factor_all            .04
loop_
_symmetry_equiv_pos_site_id
_symmetry_equiv_pos_as_xyz
  1	'-x, y, -z'
  2	'-x, -y, -z'
  3	'x, -y, z'
  4	'x, y, z'
  5	'-x+.5, y+.5, -z'
  6	'-x+.5, -y+.5, -z'
  7	'x+.5, -y+.5, z'
  8	'x+.5, y+.5, z'
loop_
_atom_type_symbol
_atom_type_oxidation_number
H1+	1
K1+	1
Mn2+	2
O2-	-2
V5+	5
loop_
_atom_site_label
_atom_site_type_symbol
_atom_site_symmetry_multiplicity
_atom_site_Wyckoff_symbol
_atom_site_fract_x
_atom_site_fract_y
_atom_site_fract_z
_atom_site_occupancy
_atom_site_attached_hydrogens
_atom_site_U_iso_or_equiv
Mn1 Mn2+ 2 a 0 0 0 1. 0 0 
Mn2 Mn2+ 4 h 0 0.2644(1) 0.5 1. 0 0 
V1 V5+ 4 i 0.3793(1) 0 0.9076(1) 1. 0 0 
K1 K1+ 4 i 0.2622(1) 0.5 0.7047(2) 1. 0 0 
O1 O2- 4 i 0.0724(2) 0 -.2817(6) 1. 0 0 
O2 O2- 8 j 0.4145(1) 0.2318(3) 0.7767(4) 1. 0 0 
O3 O2- 4 i 0.2648(2) 0 0.8200(6) 1. 0 0 
O4 O2- 4 i 0.4149(2) 0 0.2436(6) 1. 0 0 
H1 H1+ 4 i 0.1396 0 0.792 1. 0 0.05 

loop_
_atom_site_aniso_label
_atom_site_aniso_type_symbol
_atom_site_aniso_U_11
_atom_site_aniso_U_22
_atom_site_aniso_U_33
_atom_site_aniso_U_12
_atom_site_aniso_U_13
_atom_site_aniso_U_23
Mn1 Mn2+ 0.010(1) 0.010(1) 0.009(1) 0 0.003(1) 0
Mn2 Mn2+ 0.010(1) 0.007(1) 0.009(1) 0 0.001(1) 0
V1 V5+ 0.004(1) 0.008(1) 0.007(1) 0 0.001(1) 0
K1 K1+ 0.013(1) 0.025(1) 0.014(1) 0 0.004(1) 0
O1 O2- 0.007(1) 0.009(1) 0.010(1) 0 0.001(1) 0
O2 O2- 0.011(1) 0.009(1) 0.011(1) -.001(1) 0.003(1) 0.001(1)
O3 O2- 0.005(1) 0.025(2) 0.013(1) 0 0.001(1) 0
O4 O2- 0.010(1) 0.009(1) 0.008(1) 0 0.000(1) 0
#End of data_203214-ICSD


