data_62533-ICSD
#?2014 by Fachinformationszentrum Karlsruhe, and the U.S. Secretary of 
#Commerce on behalf of the United States.  All rights reserved.
_database_code_ICSD                62533
_audit_creation_date               1988/02/22
_chemical_name_systematic          'Trisodium Vanadate Trihydrate'
_chemical_formula_structural       'Na3 (V O4) (H2 O)3'
_chemical_formula_sum              'H6 Na3 O7 V1'
_publ_section_title
;
Die Struktur des Trinatriumvanadattrihydrats.
;
loop_
_citation_id
_citation_journal_abbrev
_citation_year
_citation_journal_volume
_citation_page_first
_citation_page_last
_citation_journal_id_ASTM
primary 'Acta Crystallographica, Section C: Crystal Structure Communications'
 1987 43 1030 1032 ACSCEE
_publ_author_name                  'Kato, K.;Takayama Muromachi, E.'
_cell_length_a                     8.5099(3)
_cell_length_b                     8.5099(3)
_cell_length_c                     7.7876(3)
_cell_angle_alpha                  90.
_cell_angle_beta                   90.
_cell_angle_gamma                  120.
_cell_volume                       488.41
_cell_formula_units_Z              3
_symmetry_space_group_name_H-M     'R 3 H'
_symmetry_Int_Tables_number        146
_refine_ls_R_factor_all            .017
loop_
_symmetry_equiv_pos_site_id
_symmetry_equiv_pos_as_xyz
  1	'-x+y, -x, z'
  2	'-y, x-y, z'
  3	'x, y, z'
  4	'-x+y+.6666, -x+.3333, z+.3333'
  5	'-x+y+.3333, -x+.6666, z+.6666'
  6	'-y+.6666, x-y+.3333, z+.3333'
  7	'-y+.3333, x-y+.6666, z+.6666'
  8	'x+.6666, y+.3333, z+.3333'
  9	'x+.3333, y+.6666, z+.6666'
loop_
_atom_type_symbol
_atom_type_oxidation_number
H1+	1
Na1+	1
O2-	-2
V5+	5
loop_
_atom_site_label
_atom_site_type_symbol
_atom_site_symmetry_multiplicity
_atom_site_Wyckoff_symbol
_atom_site_fract_x
_atom_site_fract_y
_atom_site_fract_z
_atom_site_occupancy
_atom_site_attached_hydrogens
_atom_site_U_iso_or_equiv
Na1 Na1+ 9 b 0.10110(7) 0.64996(18) 0.07713(15) 1. 0 0 
V1 V5+ 3 a 0 0 0 1. 0 0 
O1 O2- 3 a 0 0 0.21770(33) 1. 0 0 
O2 O2- 9 b 0.13335(19) 0.21469(18) -.08283(19) 1. 0 0 
O3 O2- 9 b 0.31006(29) 0.87379(28) 0.27244(24) 1. 0 0 
H1 H1+ 9 b 0.372(4) 0.875(4) 0.364(5) 1. 0 0.0127 
H2 H1+ 9 b 0.331 0.997 0.275 1. 0 0.038 

#End of data_62533-ICSD


