data_98669-ICSD
#?2014 by Fachinformationszentrum Karlsruhe, and the U.S. Secretary of 
#Commerce on behalf of the United States.  All rights reserved.
_database_code_ICSD                98669
_audit_creation_date               2005/04/01
_chemical_name_systematic
;
Disilver Dodecachloro-closo-dodecaborate
;
_chemical_formula_structural       'Ag2 (B12 Cl12)'
_chemical_formula_sum              'Ag2 B12 Cl12'
_publ_section_title
;
The crystal structure of solvent-free silver dodecachloro-closo-
dodecaborate Ag2 (B12 Cl12) from aqueous solution
;
loop_
_citation_id
_citation_journal_abbrev
_citation_year
_citation_journal_volume
_citation_page_first
_citation_page_last
_citation_journal_id_ASTM
primary 'Zeitschrift fuer Anorganische und Allgemeine Chemie (1950) (DE)'
 2003 629 581 583 ZAACAB
_publ_author_name                  'Tiritiris, I.;Schleid, T.'
_cell_length_a                     12.3832(7)
_cell_length_b                     12.3832(7)
_cell_length_c                     12.3832(7)
_cell_angle_alpha                  90
_cell_angle_beta                   90
_cell_angle_gamma                  90
_cell_volume                       1898.88
_cell_formula_units_Z              4
_symmetry_space_group_name_H-M     'P a -3'
_symmetry_Int_Tables_number        205
_refine_ls_R_factor_all            .059
loop_
_symmetry_equiv_pos_site_id
_symmetry_equiv_pos_as_xyz
  1	'-z+.5, x+.5, y'
  2	'z+.5, x, -y+.5'
  3	'z, -x+.5, y+.5'
  4	'-z, -x, -y'
  5	'y, -z+.5, x+.5'
  6	'-y+.5, z+.5, x'
  7	'y+.5, z, -x+.5'
  8	'-y, -z, -x'
  9	'x+.5, y, -z+.5'
 10	'x, -y+.5, z+.5'
 11	'-x+.5, y+.5, z'
 12	'-x, -y, -z'
 13	'z+.5, -x+.5, -y'
 14	'-z+.5, -x, y+.5'
 15	'-z, x+.5, -y+.5'
 16	'z, x, y'
 17	'-y, z+.5, -x+.5'
 18	'y+.5, -z+.5, -x'
 19	'-y+.5, -z, x+.5'
 20	'y, z, x'
 21	'-x+.5, -y, z+.5'
 22	'-x, y+.5, -z+.5'
 23	'x+.5, -y+.5, -z'
 24	'x, y, z'
loop_
_atom_type_symbol
_atom_type_oxidation_number
Ag1+	1
B.83+	.83
Cl1-	-1
loop_
_atom_site_label
_atom_site_type_symbol
_atom_site_symmetry_multiplicity
_atom_site_Wyckoff_symbol
_atom_site_fract_x
_atom_site_fract_y
_atom_site_fract_z
_atom_site_occupancy
_atom_site_attached_hydrogens
Ag1 Ag1+ 8 c 0.36892(5) 0.36892(5) 0.36892(5) 1. 0 
B1 B.83+ 24 d 0.0277(5) 0.0317(5) 0.1306(5) 1. 0 
B2 B.83+ 24 d 0.0732(5) 0.4332(5) 0.4056(5) 1. 0 
Cl1 Cl1- 24 d 0.0529(1) 0.0596(1) 0.2711(1) 1. 0 
Cl2 Cl1- 24 d 0.1483(1) 0.3674(1) 0.3032(1) 1. 0 

loop_
_atom_site_aniso_label
_atom_site_aniso_type_symbol
_atom_site_aniso_U_11
_atom_site_aniso_U_22
_atom_site_aniso_U_33
_atom_site_aniso_U_12
_atom_site_aniso_U_13
_atom_site_aniso_U_23
Ag1 Ag1+ .0633(4) .0633(4) .0633(4) -.0022(3) -.0022(3) -.0022(3)
B1 B.83+ .0303(30) .0287(29) .0288(27) -.0016(21) -.0023(23) -.0031(22)
B2 B.83+ .0308(31) .0312(31) .0295(29) .0061(23) .0019(23) .0058(23)
Cl1 Cl1- .0575(10) .0497(9) .0320(8) -.0038(7) -.0097(6) -.0080(6)
Cl2 Cl1- .0481(9) .0547(10) .0422(8) .0124(7) .0045(7) -.0105(7)
#End of data_98669-ICSD


