data_85505-ICSD
#?2014 by Fachinformationszentrum Karlsruhe, and the U.S. Secretary of 
#Commerce on behalf of the United States.  All rights reserved.
_database_code_ICSD                85505
_audit_creation_date               1999/06/02
_chemical_name_systematic
;
Dipotassium Calcium Tetranitrate(III)
;
_chemical_formula_structural       'K2 Ca (N O2)4'
_chemical_formula_sum              'Ca1 K2 N4 O8'
_publ_section_title
;
Crystal structure of dipotassium calcium nitrite K2 Ca (N O2)4
;
loop_
_citation_id
_citation_journal_abbrev
_citation_year
_citation_journal_volume
_citation_journal_issue
_citation_page_first
_citation_page_last
_citation_journal_id_ASTM
primary 'Soobshcheniya Akademii Nauk Gruzinskoi SSR' 1986 122 1 81 84 SAKNAH
_publ_author_name
;
Gordadze, E.G.;Sanadze, V.V.;Soboleva, L.V.;Matsaberidze, L.G.
;
_cell_length_a                     9.4466(20)
_cell_length_b                     5.454(3)
_cell_length_c                     10.908(4)
_cell_angle_alpha                  90.
_cell_angle_beta                   88.57
_cell_angle_gamma                  90.
_cell_volume                       561.82
_cell_formula_units_Z              2
_symmetry_space_group_name_H-M     'C 1 2/m 1'
_symmetry_Int_Tables_number        12
_refine_ls_R_factor_all            .038
loop_
_symmetry_equiv_pos_site_id
_symmetry_equiv_pos_as_xyz
  1	'-x, y, -z'
  2	'-x, -y, -z'
  3	'x, -y, z'
  4	'x, y, z'
  5	'-x+.5, y+.5, -z'
  6	'-x+.5, -y+.5, -z'
  7	'x+.5, -y+.5, z'
  8	'x+.5, y+.5, z'
loop_
_atom_type_symbol
_atom_type_oxidation_number
Ca2+	2
K1+	1
N3+	3
O2-	-2
loop_
_atom_site_label
_atom_site_type_symbol
_atom_site_symmetry_multiplicity
_atom_site_Wyckoff_symbol
_atom_site_fract_x
_atom_site_fract_y
_atom_site_fract_z
_atom_site_occupancy
_atom_site_attached_hydrogens
Ca1 Ca2+ 2 a 0 0 0 1. 0 
K1 K1+ 4 i 0.3321 0 0.6657 1. 0 
O1 O2- 8 j 0.3342 0.2012 0.1657 1. 0 
O2 O2- 8 j 0.0801 0.2998 0.1112 1. 0 
N1 N3+ 4 i 0.3541 0 0.115 1. 0 
N2 N3+ 4 i 0.5302 0 0.0632 1. 0 

loop_
_atom_site_aniso_label
_atom_site_aniso_type_symbol
_atom_site_aniso_B_11
_atom_site_aniso_B_22
_atom_site_aniso_B_33
_atom_site_aniso_B_12
_atom_site_aniso_B_13
_atom_site_aniso_B_23
Ca1 Ca2+ 0.5246 0.3146 0.3034 0 0 0
K1 K1+ 0.3437 0.4256 0.6371 0.2384 0 0
O1 O2- 1.031 0.6421 0.4301 0.217 0.4507 0.5041
O2 O2- 1.102 0.5301 0.4091 -.4132 0.326 0.3416
N1 N3+ 1.115 0.2608 0.1442 -.0414 0 0
N2 N3+ 1.01 0.4701 0.5668 -.1732 0 0
#End of data_85505-ICSD


