data_65132-ICSD
#?2014 by Fachinformationszentrum Karlsruhe, and the U.S. Secretary of 
#Commerce on behalf of the United States.  All rights reserved.
_database_code_ICSD                65132
_audit_creation_date               1989/06/19
_audit_update_record               2011/08/01
_chemical_name_systematic          'Lead Silver Triantimony Sulfide'
_chemical_formula_structural       'Pb Ag Sb3 S6'
_chemical_formula_sum              'Ag1 Pb1 S6 Sb3'
_chemical_name_mineral             Andorite-VI
_publ_section_title
;
The crystal structure of senandorite (andorite VI): Pb Ag Sb3 S6
;
loop_
_citation_id
_citation_journal_abbrev
_citation_year
_citation_journal_volume
_citation_page_first
_citation_page_last
_citation_journal_id_ASTM
primary 'Zeitschrift fuer Kristallographie (1979-2010)' 1987 180 141 150 ZEKRDZ
2 'Neues Jahrbuch fuer Mineralogie. Monatshefte (Band=Jahr) (1950-)'
 1971 1971 551 560 NJMMAW
_publ_author_name
;
Sawada, H.;Kawada, I.;Hellner, E.;Tokonami, M.
;
_cell_length_a                     13.005
_cell_length_b                     19.155
_cell_length_c                     25.622
_cell_angle_alpha                  90.
_cell_angle_beta                   90.
_cell_angle_gamma                  90.
_cell_volume                       6382.72
_cell_formula_units_Z              24
_symmetry_space_group_name_H-M     'P n 21 a'
_symmetry_Int_Tables_number        33
_refine_ls_R_factor_all            .0498
loop_
_symmetry_equiv_pos_site_id
_symmetry_equiv_pos_as_xyz
  1	'x+.5, y, -z+.5'
  2	'-x+.5, y+.5, z+.5'
  3	'-x, y+.5, -z'
  4	'x, y, z'
loop_
_atom_type_symbol
_atom_type_oxidation_number
Ag1+	1
Pb2+	2
S2-	-2
Sb3+	3
loop_
_atom_site_label
_atom_site_type_symbol
_atom_site_symmetry_multiplicity
_atom_site_Wyckoff_symbol
_atom_site_fract_x
_atom_site_fract_y
_atom_site_fract_z
_atom_site_occupancy
_atom_site_attached_hydrogens
_atom_site_B_iso_or_equiv
Pb1 Pb2+ 4 a 0.5723(5) 0.7500(4) 0.0343(2) 1. 0 1.0(1) 
Pb2 Pb2+ 4 a 0.5714(5) 0.7358(4) 0.1971(2) 1. 0 1.2(1) 
Pb3 Pb2+ 4 a 0.5760(4) 0.7473(4) 0.3691(2) 1. 0 0.9(1) 
Pb4 Pb2+ 4 a 0.5988(5) 0.7484(5) 0.5466(3) 1. 0 1.2(1) 
Pb5 Pb2+ 4 a 0.5970(5) 0.7490(6) 0.7095(3) 1. 0 1.5(1) 
Pb6 Pb2+ 4 a 0.5883(5) 0.7383(4) 0.8758(3) 1. 0 1.5(1) 
Ag1 Ag1+ 4 a 0.6601(13) 0.3663(8) 0.0424(6) 1. 0 2.0(3) 
Ag2 Ag1+ 4 a 0.6737(14) 0.3509(9) 0.2116(6) 1. 0 2.9(4) 
Ag3 Ag1+ 4 a 0.6699(13) 0.1353(9) 0.3748(9) 1. 0 3.4(3) 
Ag4 Ag1+ 4 a 0.6852(14) 0.3473(9) 0.5470(6) 1. 0 2.3(3) 
Ag5 Ag1+ 4 a 0.6662(13) 0.3519(9) 0.7073(6) 1. 0 2.3(3) 
Ag6 Ag1+ 4 a 0.6707(11) 0.1280(9) 0.8680(7) 1. 0 2.2(3) 
Sb1 Sb3+ 4 a 0.3801(10) 0.4392(6) 0.0454(4) 1. 0 0.5(2) 
Sb2 Sb3+ 4 a 0.3678(11) 0.4407(7) 0.1987(4) 1. 0 0.8(2) 
Sb3 Sb3+ 4 a 0.3799(9) 0.4366(6) 0.3720(5) 1. 0 1.0(2) 
Sb4 Sb3+ 4 a 0.3867(11) 0.4460(6) 0.5497(4) 1. 0 0.3(2) 
Sb5 Sb3+ 4 a 0.3783(10) 0.4414(7) 0.7070(4) 1. 0 0.5(2) 
Sb6 Sb3+ 4 a 0.3791(9) 0.4352(6) 0.8654(4) 1. 0 0.8(2) 
Sb7 Sb3+ 4 a 0.3662(10) 0.0491(7) 0.0320(4) 1. 0 0.8(2) 
Sb8 Sb3+ 4 a 0.3713(11) 0.0506(6) 0.2066(4) 1. 0 0.5(2) 
Sb9 Sb3+ 4 a 0.3725(9) 0.0355(6) 0.3769(5) 1. 0 1.1(2) 
Sb10 Sb3+ 4 a 0.3804(11) 0.0434(6) 0.5375(4) 1. 0 0.7(2) 
Sb11 Sb3+ 4 a 0.3881(11) 0.0409(7) 0.7157(4) 1. 0 1.1(2) 
Sb12 Sb3+ 4 a 0.3785(9) 0.0408(6) 0.8725(6) 1. 0 1.0(2) 
Sb13 Sb3+ 4 a 0.6464(10) 0.1186(7) 0.0378(4) 1. 0 1.0(2) 
Sb14 Sb3+ 4 a 0.6255(10) 0.1353(7) 0.2094(5) 1. 0 1.2(2) 
Sb15 Sb3+ 4 a 0.6309(8) 0.3497(5) 0.3761(5) 1. 0 0.7(2) 
Sb16 Sb3+ 4 a 0.6226(10) 0.1431(6) 0.5418(5) 1. 0 1.1(2) 
Sb17 Sb3+ 4 a 0.6531(8) 0.1199(7) 0.7107(4) 1. 0 0.4(2) 
Sb18 Sb3+ 4 a 0.6528(8) 0.3670(6) 0.8752(6) 1. 0 0.9(2) 
S1 S2- 4 a 0.273(4) 0.330(3) 0.046(2) 1. 0 1.1(9) 
S2 S2- 4 a 0.290(3) 0.325(3) 0.209(2) 1. 0 0.8(8) 
S3 S2- 4 a 0.273(3) 0.334(2) 0.378(2) 1. 0 0.9(7) 
S4 S2- 4 a 0.281(3) 0.337(3) 0.558(2) 1. 0 0.8(8) 
S5 S2- 4 a 0.262(3) 0.341(3) 0.703(2) 1. 0 1.2(9) 
S6 S2- 4 a 0.294(3) 0.327(2) 0.874(2) 1. 0 0.9(7) 
S7 S2- 4 a 0.531(4) 0.589(3) 0.046(2) 1. 0 1.6(9) 
S8 S2- 4 a 0.494(3) 0.596(3) 0.186(2) 1. 0 0.9(8) 
S9 S2- 4 a 0.507(4) 0.600(3) 0.391(2) 1. 0 1.4(9) 
S10 S2- 4 a 0.505(4) 0.595(3) 0.526(2) 1. 0 1.5(9) 
S11 S2- 4 a 0.508(4) 0.596(3) 0.722(2) 1. 0 1.7(9) 
S12 S2- 4 a 0.510(4) 0.591(3) 0.860(1) 1. 0 0.9(9) 
S13 S2- 4 a 0.574(4) 0.234(2) 0.044(2) 1. 0 1.6(8) 
S14 S2- 4 a 0.551(3) 0.255(3) 0.214(2) 1. 0 1.2(8) 
S15 S2- 4 a 0.551(3) 0.234(2) 0.374(2) 1. 0 0.4(7) 
S16 S2- 4 a 0.548(3) 0.263(2) 0.539(2) 1. 0 1.6(9) 
S17 S2- 4 a 0.571(3) 0.231(2) 0.716(2) 1. 0 0.9(8) 
S18 S2- 4 a 0.581(2) 0.247(2) 0.880(1) 1. 0 0.3(6) 
S19 S2- 4 a 0.772(3) 0.495(3) 0.021(2) 1. 0 0.9(8) 
S20 S2- 4 a 0.716(4) 0.482(3) 0.220(2) 1. 0 1.4(9) 
S21 S2- 4 a 0.738(4) 0.498(3) 0.358(2) 1. 0 1.5(9) 
S22 S2- 4 a 0.719(3) 0.478(2) 0.551(1) 1. 0 0.3(7) 
S23 S2- 4 a 0.746(3) 0.489(2) 0.690(2) 1. 0 0.2(8) 
S24 S2- 4 a 0.793(3) 0.509(2) 0.882(2) 1. 0 1.1(8) 
S25 S2- 4 a 0.497(3) 0.900(2) 0.018(2) 1. 0 0.3(8) 
S26 S2- 4 a 0.520(3) 0.893(2) 0.214(2) 1. 0 0.2(7) 
S27 S2- 4 a 0.501(3) 0.896(3) 0.353(2) 1. 0 0.4(8) 
S28 S2- 4 a 0.508(3) 0.902(2) 0.556(2) 1. 0 0.3(8) 
S29 S2- 4 a 0.505(3) 0.887(3) 0.698(2) 1. 0 0.6(8) 
S30 S2- 4 a 0.517(3) 0.905(2) 0.880(2) 1. 0 0.8(8) 
S31 S2- 4 a 0.279(4) 0.163(2) 0.036(2) 1. 0 0.5(9) 
S32 S2- 4 a 0.266(4) 0.156(3) 0.208(2) 1. 0 1.8(9) 
S33 S2- 4 a 0.271(3) 0.148(2) 0.388(2) 1. 0 0.7(8) 
S34 S2- 4 a 0.263(3) 0.150(2) 0.537(2) 1. 0 0.4(8) 
S35 S2- 4 a 0.285(3) 0.153(3) 0.721(2) 1. 0 1.0(8) 
S36 S2- 4 a 0.268(3) 0.152(2) 0.864(1) 1. 0 0.4(8) 

#End of data_65132-ICSD


