data_260193-ICSD
#?2014 by Fachinformationszentrum Karlsruhe, and the U.S. Secretary of 
#Commerce on behalf of the United States.  All rights reserved.
_database_code_ICSD                260193
_audit_creation_date               2009/08/01
_chemical_name_systematic
;
Silver Europium(III) Tetrakis(phosphate)
;
_chemical_formula_structural       'Ag Eu (P O3)4'
_chemical_formula_sum              'Ag1 Eu1 O12 P4'
_publ_section_title                'Silver europium(III) polyphosphate'
loop_
_citation_id
_citation_journal_abbrev
_citation_year
_citation_journal_volume
_citation_journal_issue
_citation_page_first
_citation_page_last
_citation_journal_id_ASTM
primary 'Acta Crystallographica, Section E. Structure Reports Online'
 2009 65 3 i13 i13 ACSEBH
_publ_author_name                  'Ayadi, M.;Ferid, M.;Moine, B.'
_cell_length_a                     9.9654(3)
_cell_length_b                     13.1445(7)
_cell_length_c                     7.2321(3)
_cell_angle_alpha                  90.00
_cell_angle_beta                   90.420(10)
_cell_angle_gamma                  90.00
_cell_volume                       947.31
_cell_formula_units_Z              4
_symmetry_space_group_name_H-M     'P 1 21/n 1'
_symmetry_Int_Tables_number        14
_refine_ls_R_factor_all            .0422
loop_
_symmetry_equiv_pos_site_id
_symmetry_equiv_pos_as_xyz
  1	'-x+.5, y+.5, -z+.5'
  2	'-x, -y, -z'
  3	'x+.5, -y+.5, z+.5'
  4	'x, y, z'
loop_
_atom_type_symbol
_atom_type_oxidation_number
Ag1+	1
Eu3+	3
O2-	-2
P5+	5
loop_
_atom_site_label
_atom_site_type_symbol
_atom_site_symmetry_multiplicity
_atom_site_Wyckoff_symbol
_atom_site_fract_x
_atom_site_fract_y
_atom_site_fract_z
_atom_site_occupancy
_atom_site_attached_hydrogens
_atom_site_U_iso_or_equiv
Eu1 Eu3+ 4 e 0.52254(4) 0.78212(2) 0.51227(4) 1 0 0.01862(19) 
Ag1 Ag1+ 4 e 0.43355(7) 0.77670(5) 1.00017(8) 1 0 0.0322(2) 
P1 P5+ 4 e 0.25190(18) 0.90008(12) 1.2536(2) 1 0 0.0168(4) 
P2 P5+ 4 e 0.19511(18) 0.87338(12) 1.6486(2) 1 0 0.0167(4) 
P3 P5+ 4 e 0.79921(18) 0.90983(12) 1.2635(2) 1 0 0.0172(4) 
P4 P5+ 4 e 0.73739(18) 0.88594(12) 0.8738(2) 1 0 0.0162(4) 
O1 O2- 4 e 0.1995(5) 0.8356(3) 1.1018(6) 1 0 0.0241(11) 
O2 O2- 4 e 0.3997(5) 0.8951(4) 1.2904(7) 1 0 0.0243(11) 
O3 O2- 4 e 0.2039(5) 1.0133(3) 1.2168(7) 1 0 0.0240(11) 
O4 O2- 4 e 0.1629(5) 0.8769(3) 1.4335(6) 1 0 0.0198(10) 
O5 O2- 4 e 0.3444(5) 0.8678(4) 1.6767(7) 1 0 0.0218(10) 
O6 O2- 4 e 0.1062(6) 0.7906(3) 1.7231(6) 1 0 0.0228(11) 
O7 O2- 4 e 0.8644(5) 1.0214(3) 1.2777(7) 1 0 0.0193(10) 
O8 O2- 4 e 0.9144(5) 0.8395(3) 1.2329(6) 1 0 0.0236(10) 
O9 O2- 4 e 0.7055(5) 0.8919(3) 1.4217(6) 1 0 0.0218(10) 
O10 O2- 4 e 0.7085(5) 0.9202(3) 1.0822(6) 1 0 0.0203(10) 
O11 O2- 4 e 0.8483(5) 0.8097(3) 0.8671(7) 1 0 0.0218(10) 
O12 O2- 4 e 0.6047(5) 0.8557(3) 0.7933(6) 1 0 0.0198(10) 

loop_
_atom_site_aniso_label
_atom_site_aniso_type_symbol
_atom_site_aniso_U_11
_atom_site_aniso_U_22
_atom_site_aniso_U_33
_atom_site_aniso_U_12
_atom_site_aniso_U_13
_atom_site_aniso_U_23
Eu1 Eu3+ 0.0183(3) 0.0189(2) 0.0186(2) -0.00063(12) -0.00048(15) 
-0.00108(12)
Ag1 Ag1+ 0.0262(4) 0.0456(4) 0.0249(3) 0.0034(2) 0.0008(2) -0.0088(2)
P1 P5+ 0.0201(9) 0.0138(7) 0.0165(7) -0.0001(6) 0.0005(6) 0.0001(6)
P2 P5+ 0.0173(9) 0.0155(8) 0.0173(8) 0.0007(6) -0.0001(6) -0.0002(6)
P3 P5+ 0.0206(9) 0.0143(7) 0.0168(8) 0.0004(6) -0.0017(6) -0.0002(6)
P4 P5+ 0.0162(9) 0.0160(8) 0.0165(8) -0.0001(6) -0.0020(6) -0.0012(6)
O1 O2- 0.034(3) 0.019(2) 0.019(2) 0.004(2) -0.002(2) -0.0060(19)
O2 O2- 0.023(3) 0.026(2) 0.023(2) 0.000(2) -0.002(2) -0.002(2)
O3 O2- 0.028(3) 0.016(2) 0.028(3) 0.007(2) -0.004(2) 0.0052(19)
O4 O2- 0.019(3) 0.025(2) 0.016(2) 0.0000(19) -0.0004(18) 0.0039(18)
O5 O2- 0.017(3) 0.024(2) 0.025(2) 0.0021(19) -0.003(2) -0.007(2)
O6 O2- 0.029(3) 0.021(2) 0.018(2) -0.005(2) 0.000(2) 0.0038(18)
O7 O2- 0.013(2) 0.014(2) 0.031(3) -0.0005(18) 0.0063(19) -0.003(2)
O8 O2- 0.027(3) 0.018(2) 0.026(2) 0.003(2) -0.001(2) -0.002(2)
O9 O2- 0.027(3) 0.023(2) 0.016(2) -0.004(2) 0.0040(19) -0.0026(18)
O10 O2- 0.017(2) 0.020(2) 0.024(2) 0.0009(19) -0.0016(18) -0.0023(19)
O11 O2- 0.022(3) 0.018(2) 0.025(2) 0.007(2) -0.001(2) 0.002(2)
O12 O2- 0.023(3) 0.021(2) 0.015(2) 0.005(2) -0.0053(19) -0.0005(18)
#End of data_260193-ICSD


