data_300181-ICSD
#?2014 by Fachinformationszentrum Karlsruhe, and the U.S. Secretary of 
#Commerce on behalf of the United States.  All rights reserved.
_database_code_ICSD                300181
_audit_creation_date               1991/07/10
_audit_update_record               2012/02/01
_chemical_name_systematic
;
Hexacesium Di-mue-telluro-bis(ditelluroaluminate)
;
_chemical_formula_structural       'Cs6 (Te2 (Al Te2)2)'
_chemical_formula_sum              'Al2 Cs6 Te6'
_publ_section_title
;
Crystal structure of hexacesium di-mue-telluro-bis 
(ditelluroaluminate)
;
loop_
_citation_id
_citation_journal_abbrev
_citation_year
_citation_journal_volume
_citation_page_first
_citation_page_last
_citation_journal_id_ASTM
primary 'Zeitschrift fuer Kristallographie (1979-2010)' 1991 197 253 254 ZEKRDZ
_publ_author_name                  'Eisenmann, B.;Jaeger, J.'
_cell_length_a                     9.100(4)
_cell_length_b                     14.427(5)
_cell_length_c                     11.908(4)
_cell_angle_alpha                  90.
_cell_angle_beta                   126.38(6)
_cell_angle_gamma                  90.
_cell_volume                       1258.65
_cell_formula_units_Z              2
_symmetry_space_group_name_H-M     'P 1 21/c 1'
_symmetry_Int_Tables_number        14
_refine_ls_R_factor_all            .06
loop_
_symmetry_equiv_pos_site_id
_symmetry_equiv_pos_as_xyz
  1	'x, -y+.5, z+.5'
  2	'-x, -y, -z'
  3	'-x, y+.5, -z+.5'
  4	'x, y, z'
loop_
_atom_type_symbol
_atom_type_oxidation_number
Al3+	3
Cs1+	1
Te2-	-2
loop_
_atom_site_label
_atom_site_type_symbol
_atom_site_symmetry_multiplicity
_atom_site_Wyckoff_symbol
_atom_site_fract_x
_atom_site_fract_y
_atom_site_fract_z
_atom_site_occupancy
_atom_site_attached_hydrogens
Te1 Te2- 4 e 0.1431(2) 0.6076(1) 0.6120(2) 1. 0 
Te2 Te2- 4 e 0.3520(2) 0.3341(1) 0.8061(2) 1. 0 
Te3 Te2- 4 e 0.1137(2) 0.5579(1) 0.2368(2) 1. 0 
Cs1 Cs1+ 4 e 0.3529(2) 0.0818(1) 0.6128(2) 1. 0 
Cs2 Cs1+ 4 e 0.1269(2) 0.8112(1) 0.4140(2) 1. 0 
Cs3 Cs1+ 4 e 0.3779(2) 0.3750(1) 0.5144(2) 1. 0 
Al1 Al3+ 4 e 0.0672(8) 0.0601(4) 0.1599(7) 1. 0 

#End of data_300181-ICSD


