data_32654-ICSD
#?2014 by Fachinformationszentrum Karlsruhe, and the U.S. Secretary of 
#Commerce on behalf of the United States.  All rights reserved.
_database_code_ICSD                32654
_audit_creation_date               1986/08/08
_audit_update_record               2012/08/01
_chemical_name_systematic
;
Tricalcium Bis(hydroxoberyllium) Trisilicate
;
_chemical_formula_structural       'Ca3 (Be (O H))2 (Si3 O10)'
_chemical_formula_sum              'H2 Be2 Ca3 O12 Si3'
_chemical_name_mineral             Aminoffite
_publ_section_title
;
The crystal structure of aminoffite
;
loop_
_citation_id
_citation_journal_abbrev
_citation_year
_citation_journal_volume
_citation_page_first
_citation_page_last
_citation_journal_id_ASTM
primary
;
Atti della Accademia Nazionale dei Lincei, Classe di Scienze Fisiche, 
Matematiche e Naturali, Rendiconti, Serie 8 (1, 1946-)
;
 1967 43 225 232 AANL8V
_publ_author_name
;
Coda, A.;Rossi, G.;Ungaretti, L.;Carobbi, S.G.
;
_cell_length_a                     9.865(2)
_cell_length_b                     9.865(2)
_cell_length_c                     9.930(2)
_cell_angle_alpha                  90.
_cell_angle_beta                   90.
_cell_angle_gamma                  90.
_cell_volume                       966.37
_cell_formula_units_Z              4
_symmetry_space_group_name_H-M     'P 42/n Z'
_symmetry_Int_Tables_number        86
_refine_ls_R_factor_all            .071
loop_
_symmetry_equiv_pos_site_id
_symmetry_equiv_pos_as_xyz
  1	'-y+.5, x, -z+.5'
  2	'y, -x+.5, -z+.5'
  3	'x+.5, y+.5, -z'
  4	'-x, -y, -z'
  5	'y+.5, -x, z+.5'
  6	'-y, x+.5, z+.5'
  7	'-x+.5, -y+.5, z'
  8	'x, y, z'
loop_
_atom_type_symbol
_atom_type_oxidation_number
Be2+	2
Ca2+	2
H1+	1
O2-	-2
Si4+	4
loop_
_atom_site_label
_atom_site_type_symbol
_atom_site_symmetry_multiplicity
_atom_site_Wyckoff_symbol
_atom_site_fract_x
_atom_site_fract_y
_atom_site_fract_z
_atom_site_occupancy
_atom_site_attached_hydrogens
_atom_site_B_iso_or_equiv
Ca1 Ca2+ 8 g 0.0444(2) 0.0622(2) 0.2422(2) 1. 0 0 
Ca2 Ca2+ 4 e 0.25 0.75 0.2596(3) 1. 0 0 
Si1 Si4+ 8 g 0.0373(3) 0.7384(3) 0.0257(3) 1. 0 0 
Si2 Si4+ 4 f 0.25 0.25 0.0106(4) 1. 0 0 
Be1 Be2+ 8 g 0.0348(16) 0.7343(16) 0.5299(16) 1. 0 0 
O1 O2- 8 g 0.3942(7) 0.6239(7) 0.0920(7) 1. 0 0 
O2 O2- 8 g 0.1247(7) 0.6106(7) 0.0881(7) 1. 0 0 
O3 O2- 8 g 0.2674(7) 0.3869(7) 0.1000(7) 1. 0 0 
O4 O2- 8 g 0.6181(7) 0.7726(7) 0.0897(7) 1. 0 0 
O5 O2- 8 g 0.7127(8) 0.4643(8) 0.1380(7) 1. 0 0 
O6 O2- 8 g 0.9664(7) 0.2651(7) 0.1352(6) 1. 0 0 
H1 H1+ 8 g 0.384 0.65 0.137 1. 0 2.5 

loop_
_atom_site_aniso_label
_atom_site_aniso_type_symbol
_atom_site_aniso_B_11
_atom_site_aniso_B_22
_atom_site_aniso_B_33
_atom_site_aniso_B_12
_atom_site_aniso_B_13
_atom_site_aniso_B_23
Ca1 Ca2+ 10.(2) 25.(2) 24.(2) 4.(2) 9.(2) 0.0(2)
Ca2 Ca2+ 8.(3) 12.(3) 17.(2) 0.0(3) 0 0
Si1 Si4+ 9.(3) 13.(3) 16.(3) 0.0(2) 0 0
Si2 Si4+ 5.(4) 11.(4) 22.(3) 4.(5) 0 0
Be1 Be2+ 39.(16) 42.(17) 26.(12) -18.(18) 9.(13) -9.(14)
O1 O2- 36.(8) 18.(7) 31.(7) -7.(6) 9.(7) 5.(6)
O2 O2- 19.(7) 24.(7) 29.(7) 3.(7) 12.(6) 14.(6)
O3 O2- 8.(7) 19.(7) 39.(8) -4.(7) -7.(6) 2.(6)
O4 O2- 30.(8) 16.(7) 32.(7) 2.(7) 4.(6) -3.(6)
O5 O2- 34.(8) 45.(9) 40.(8) 15.(8) -6.(7) -8.(7)
O6 O2- 34.(8) 19.(7) 24.(6) 5.(8) 7.(6) 3.(6)
#End of data_32654-ICSD


