data_60844-ICSD
#?2014 by Fachinformationszentrum Karlsruhe, and the U.S. Secretary of 
#Commerce on behalf of the United States.  All rights reserved.
_database_code_ICSD                60844
_audit_creation_date               1988/02/22
_audit_update_record               1999/11/30
_chemical_name_systematic          'Copper(I) Aluminium Oxide'
_chemical_formula_structural       'Cu Al O2'
_chemical_formula_sum              'Al1 Cu1 O2'
_chemical_name_mineral             'Delafossite R, aluminous'
_publ_section_title
;
Darstellung und Strukturdaten von "Delafossiten" Cu Mo2 (M= Al, Ga, 
Sc, Y)
;
loop_
_citation_id
_citation_journal_abbrev
_citation_year
_citation_journal_volume
_citation_page_first
_citation_page_last
_citation_journal_id_ASTM
primary 'Zeitschrift fuer Anorganische und Allgemeine Chemie (1950) (DE)'
 1986 543 73 80 ZAACAB
_publ_author_name                  'Koehler, B.U.;Jansen, M.'
_cell_length_a                     2.858(1)
_cell_length_b                     2.858(1)
_cell_length_c                     16.9580(20)
_cell_angle_alpha                  90.
_cell_angle_beta                   90.
_cell_angle_gamma                  120.
_cell_volume                       119.96
_cell_formula_units_Z              3
_symmetry_space_group_name_H-M     'R -3 m H'
_symmetry_Int_Tables_number        166
_refine_ls_R_factor_all            .032
loop_
_symmetry_equiv_pos_site_id
_symmetry_equiv_pos_as_xyz
  1	'x-y, -y, -z'
  2	'-x, -x+y, -z'
  3	'y, x, -z'
  4	'x-y, x, -z'
  5	'y, -x+y, -z'
  6	'-x, -y, -z'
  7	'-x+y, y, z'
  8	'x, x-y, z'
  9	'-y, -x, z'
 10	'-x+y, -x, z'
 11	'-y, x-y, z'
 12	'x, y, z'
 13	'x-y+.6666, -y+.3333, -z+.3333'
 14	'x-y+.3333, -y+.6666, -z+.6666'
 15	'-x+.6666, -x+y+.3333, -z+.3333'
 16	'-x+.3333, -x+y+.6666, -z+.6666'
 17	'y+.6666, x+.3333, -z+.3333'
 18	'y+.3333, x+.6666, -z+.6666'
 19	'x-y+.6666, x+.3333, -z+.3333'
 20	'x-y+.3333, x+.6666, -z+.6666'
 21	'y+.6666, -x+y+.3333, -z+.3333'
 22	'y+.3333, -x+y+.6666, -z+.6666'
 23	'-x+.6666, -y+.3333, -z+.3333'
 24	'-x+.3333, -y+.6666, -z+.6666'
 25	'-x+y+.6666, y+.3333, z+.3333'
 26	'-x+y+.3333, y+.6666, z+.6666'
 27	'x+.6666, x-y+.3333, z+.3333'
 28	'x+.3333, x-y+.6666, z+.6666'
 29	'-y+.6666, -x+.3333, z+.3333'
 30	'-y+.3333, -x+.6666, z+.6666'
 31	'-x+y+.6666, -x+.3333, z+.3333'
 32	'-x+y+.3333, -x+.6666, z+.6666'
 33	'-y+.6666, x-y+.3333, z+.3333'
 34	'-y+.3333, x-y+.6666, z+.6666'
 35	'x+.6666, y+.3333, z+.3333'
 36	'x+.3333, y+.6666, z+.6666'
loop_
_atom_type_symbol
_atom_type_oxidation_number
Al3+	3
Cu1+	1
O2-	-2
loop_
_atom_site_label
_atom_site_type_symbol
_atom_site_symmetry_multiplicity
_atom_site_Wyckoff_symbol
_atom_site_fract_x
_atom_site_fract_y
_atom_site_fract_z
_atom_site_occupancy
_atom_site_attached_hydrogens
Cu1 Cu1+ 3 a 0 0 0 1. 0 
Al1 Al3+ 3 b 0 0 0.5 1. 0 
O1 O2- 6 c 0 0 0.1099(2) 1. 0 

loop_
_atom_site_aniso_label
_atom_site_aniso_type_symbol
_atom_site_aniso_U_11
_atom_site_aniso_U_22
_atom_site_aniso_U_33
_atom_site_aniso_U_12
_atom_site_aniso_U_13
_atom_site_aniso_U_23
Cu1 Cu1+ 0.0063(2) 0.0063(2) 0.0005(3) 0.00315 0 0
Al1 Al3+ 0.0005(4) 0.0005(4) 0.0013(6) 0.00025 0 0
O1 O2- 0.0031(6) 0.0031(6) 0.0013(10) 0.00155 0 0
#End of data_60844-ICSD


