data_187003-ICSD
#?2014 by Fachinformationszentrum Karlsruhe, and the U.S. Secretary of 
#Commerce on behalf of the United States.  All rights reserved.
_database_code_ICSD                187003
_audit_creation_date               2013/08/01
_chemical_name_systematic          'Potassium Ytterbium Tetrafluoride'
_chemical_formula_structural       'K Yb F4'
_chemical_formula_sum              'F4 K1 Yb1'
_publ_section_title
;
Crystal structures and stability of trigonal K Ln F4 fluorides (Ln = 
Y, Ho, Er, Tm, Yb)
;
loop_
_citation_id
_citation_journal_abbrev
_citation_year
_citation_journal_volume
_citation_journal_issue
_citation_page_first
_citation_page_last
_citation_journal_id_ASTM
primary 'Dalton Transactions' 2013 42 2 441 447 DTARAF
_publ_author_name
;
Grzechnik, Andrzej;Khaidukov, Nicholas;Friese, Karen
;
_cell_length_a                     14.026(2)
_cell_length_b                     14.026(2)
_cell_length_c                     10.1190(10)
_cell_angle_alpha                  90
_cell_angle_beta                   90
_cell_angle_gamma                  120
_cell_volume                       1723.99
_cell_formula_units_Z              18
_symmetry_space_group_name_H-M     'P 32'
_symmetry_Int_Tables_number        145
_refine_ls_R_factor_all            .0381
loop_
_symmetry_equiv_pos_site_id
_symmetry_equiv_pos_as_xyz
  1	'-x+y, -x, z+.3333'
  2	'-y, x-y, z+.6667'
  3	'x, y, z'
loop_
_atom_type_symbol
_atom_type_oxidation_number
F1-	-1
K1+	1
Yb3+	3
loop_
_atom_site_label
_atom_site_type_symbol
_atom_site_symmetry_multiplicity
_atom_site_Wyckoff_symbol
_atom_site_fract_x
_atom_site_fract_y
_atom_site_fract_z
_atom_site_occupancy
_atom_site_attached_hydrogens
_atom_site_U_iso_or_equiv
Yb1 Yb3+ 3 a 0.13032(3) 0.88970(4) 0.67154(8) 1 0 0.00581(10) 
Yb2 Yb3+ 3 a 0.27742(5) 0.72800(5) 0.67585(10) 1 0 0.00714(17) 
Yb3 Yb3+ 3 a 0.78381(7) 0.21038(6) 0.66442(6) 1 0 0.00503(14) 
Yb4 Yb3+ 3 a 0.93987(8) 0.05710(8) 0.67429(12) 1 0 0.00646(15) 
Yb5 Yb3+ 3 a 0.45319(9) 0.54605(10) 0.67458(8) 1 0 0.00765(18) 
Yb6 Yb3+ 3 a 0.60253(5) 0.38535(5) 0.65929(5) 1 0 0.00495(11) 
K1 K1+ 3 a 0.2668(3) 0.2173(3) 0.6549(4) 1 0 0.0154(9) 
K2 K1+ 3 a 0.7787(3) 0.7165(3) 0.6877(4) 1 0 0.0223(12) 
K3 K1+ 3 a 0.6052(3) 0.8798(3) 0.6585(4) 1 0 0.0179(10) 
K4 K1+ 3 a 0.1049(3) 0.3975(3) 0.6896(3) 1 0 0.0160(8) 
K5 K1+ 3 a 0.4542(3) 0.0614(3) 0.6859(4) 1 0 0.0195(11) 
K6 K1+ 3 a 0.9458(3) 0.5596(3) 0.6625(3) 1 0 0.0095(7) 
F1 F1- 3 a 0.1328(6) 0.9374(6) 0.8843(9) 1 0 0.0176(16) 
F2 F1- 3 a 0.0690(6) 0.8783(6) 0.4594(6) 1 0 0.0135(13) 
F3 F1- 3 a 0.2067(5) 0.5985(5) 0.5200(7) 1 0 0.0199(10) 
F4 F1- 3 a 0.3440(7) 0.7280(4) 0.3414(9) 1 0 0.0316(11) 
F5 F1- 3 a 0.7372(6) 0.2048(6) 0.4470(8) 1 0 0.0135(13) 
F6 F1- 3 a 0.7919(6) 0.2713(6) 0.8699(7) 1 0 0.0176(16) 
F7 F1- 3 a 0.0015(7) 0.0602(4) 0.3368(10) 1 0 0.0316(11) 
F8 F1- 3 a -0.1236(5) -0.0746(5) 1.5235(7) 1 0 0.0199(10) 
F9 F1- 3 a 0.3948(6) 0.5382(6) 0.4599(7) 1 0 0.0135(13) 
F10 F1- 3 a 0.4593(7) 0.5949(7) 0.8885(8) 1 0 0.0176(16) 
F11 F1- 3 a 0.5449(6) 0.2842(5) 0.4762(8) 1 0 0.0199(10) 
F12 F1- 3 a -0.2745(7) -0.6061(5) 1.3272(11) 1 0 0.0316(11) 
F13 F1- 3 a 0.7665(6) 0.7312(5) 0.9371(8) 1 0 0.0157(13) 
F14 F1- 3 a 0.8053(6) 0.7234(5) 0.4265(8) 1 0 0.0119(11) 
F15 F1- 3 a 0.2483(5) 0.2220(5) 0.3936(8) 1 0 0.0167(14) 
F16 F1- 3 a 0.8101(6) 0.0775(6) 1.5701(8) 1 0 0.0164(15) 
F17 F1- 3 a 0.1328(5) 0.3939(5) 0.4313(8) 1 0 0.0119(11) 
F18 F1- 3 a 0.0961(6) 0.4070(5) 0.9390(8) 1 0 0.0157(13) 
F19 F1- 3 a 0.1509(5) 0.7547(6) 0.5748(7) 1 0 0.0164(15) 
F20 F1- 3 a 0.5896(5) 0.8865(6) 0.3969(8) 1 0 0.0167(14) 
F21 F1- 3 a 0.9339(6) 0.5726(7) 0.3975(10) 1 0 0.0167(14) 
F22 F1- 3 a -0.5272(7) 0.4133(7) 1.5734(9) 1 0 0.0164(15) 
F23 F1- 3 a 0.4844(5) 0.0678(5) 1.4283(8) 1 0 0.0119(11) 
F24 F1- 3 a 0.4492(6) 0.0844(6) 0.9417(8) 1 0 0.0157(13) 

loop_
_atom_site_aniso_label
_atom_site_aniso_type_symbol
_atom_site_aniso_U_11
_atom_site_aniso_U_22
_atom_site_aniso_U_33
_atom_site_aniso_U_12
_atom_site_aniso_U_13
_atom_site_aniso_U_23
Yb1 Yb3+ 0.00222(10) 0.00549(13) 0.00895(16) 0.00135(11) -0.00006(13) 
0.00063(13)
Yb2 Yb3+ 0.00807(17) 0.00616(17) 0.0094(3) 0.00522(15) 0.00393(15) 
0.00372(14)
Yb3 Yb3+ 0.00632(18) 0.00628(17) 0.00371(15) 0.00405(16) -0.00312(14) 
-0.00208(14)
Yb4 Yb3+ 0.00802(16) 0.00673(16) 0.0072(3) 0.00558(12) 0.00143(14) 
0.00278(13)
Yb5 Yb3+ 0.0083(2) 0.0094(2) 0.0081(2) 0.0066(2) 0.00163(15) 0.00224(16)
Yb6 Yb3+ 0.00572(14) 0.00403(13) 0.00566(13) 0.00285(11) -0.00145(13) 
-0.00117(13)
K1 K1+ 0.0190(11) 0.0128(11) 0.0206(14) 0.0127(10) -0.0035(9) -0.0015(8)
K2 K1+ 0.0208(12) 0.042(2) 0.0062(9) 0.0175(13) -0.0080(9) -0.0050(10)
K3 K1+ 0.0170(12) 0.0159(11) 0.0240(17) 0.0107(11) 0.0013(10) 0.0011(11)
K4 K1+ 0.0117(8) 0.0312(13) 0.0047(7) 0.0106(9) -0.0009(6) -0.0083(9)
K5 K1+ 0.0175(13) 0.0336(17) 0.0046(8) 0.0106(12) 0.0031(9) -0.0022(8)
K6 K1+ 0.0154(10) 0.0104(7) 0.0065(9) 0.0092(7) 0.0034(6) 0.0030(6)
F1 F1- 0.022(2) 0.0203(18) 0.017(2) 0.0158(17) -0.0008(16) -0.0084(16)
F2 F1- 0.0178(16) 0.0195(17) 0.0056(14) 0.0111(15) -0.0055(12) -0.0021(12)
F3 F1- 0.0205(8) 0.0153(13) 0.0203(10) 0.0062(13) 0.0039(16) -0.0086(9)
F4 F1- 0.0417(18) 0.0025(5) 0.0374(13) 0.0012(15) 0.0016(13) -0.0020(19)
F5 F1- 0.0178(16) 0.0195(17) 0.0056(14) 0.0111(15) -0.0055(12) -0.0021(12)
F6 F1- 0.022(2) 0.0203(18) 0.017(2) 0.0158(17) -0.0008(16) -0.0084(16)
F7 F1- 0.0417(18) 0.0025(5) 0.0374(13) 0.0012(15) 0.0016(13) -0.0020(19)
F8 F1- 0.0205(8) 0.0153(13) 0.0203(10) 0.0062(13) 0.0039(16) -0.0086(9)
F9 F1- 0.0178(16) 0.0195(17) 0.0056(14) 0.0111(15) -0.0055(12) -0.0021(12)
F10 F1- 0.022(2) 0.0203(18) 0.017(2) 0.0158(17) -0.0008(16) -0.0084(16)
F11 F1- 0.0205(8) 0.0153(13) 0.0203(10) 0.0062(13) 0.0039(16) -0.0086(9)
F12 F1- 0.0417(18) 0.0025(5) 0.0374(13) 0.0012(15) 0.0016(13) -0.0020(19)
F13 F1- 0.0190(16) 0.0156(15) 0.0157(19) 0.0110(15) 0.0006(16) -0.0022(14)
F14 F1- 0.0132(13) 0.0103(13) 0.0107(15) 0.0048(10) 0.0014(12) -0.0004(10)
F15 F1- 0.0132(14) 0.0204(17) 0.020(2) 0.0111(14) 0.0010(14) 0.0047(17)
F16 F1- 0.0231(17) 0.0235(18) 0.0161(19) 0.0219(17) -0.0144(15) -0.0144(16)
F17 F1- 0.0132(13) 0.0103(13) 0.0107(15) 0.0048(10) 0.0014(12) -0.0004(10)
F18 F1- 0.0190(16) 0.0156(15) 0.0157(19) 0.0110(15) 0.0006(16) -0.0022(14)
F19 F1- 0.0231(17) 0.0235(18) 0.0161(19) 0.0219(17) -0.0144(15) -0.0144(16)
F20 F1- 0.0132(14) 0.0204(17) 0.020(2) 0.0111(14) 0.0010(14) 0.0047(17)
F21 F1- 0.0132(14) 0.0204(17) 0.020(2) 0.0111(14) 0.0010(14) 0.0047(17)
F22 F1- 0.0231(17) 0.0235(18) 0.0161(19) 0.0219(17) -0.0144(15) -0.0144(16)
F23 F1- 0.0132(13) 0.0103(13) 0.0107(15) 0.0048(10) 0.0014(12) -0.0004(10)
F24 F1- 0.0190(16) 0.0156(15) 0.0157(19) 0.0110(15) 0.0006(16) -0.0022(14)
#End of data_187003-ICSD


