data_64618-ICSD
#?2014 by Fachinformationszentrum Karlsruhe, and the U.S. Secretary of 
#Commerce on behalf of the United States.  All rights reserved.
_database_code_ICSD                64618
_audit_creation_date               1989/06/19
_audit_update_record               2000/07/15
_chemical_name_systematic
;
Cadmium Magnesium Tetrakis(nitrate(III)) Dihydrate
;
_chemical_formula_structural       'Cd Mg (N O2)4 (H2 O)2'
_chemical_formula_sum              'H4 Cd1 Mg1 N4 O10'
_publ_section_title
;
Structures of cadmium magnesium tetranitrite dihydrate, cadmiun 
calcium tetranitrite tetrahydrate and cadmium strontium tetranitrite 
tetrahydrate.
;
loop_
_citation_id
_citation_journal_abbrev
_citation_year
_citation_journal_volume
_citation_page_first
_citation_page_last
_citation_journal_id_ASTM
primary 'Acta Crystallographica, Section C: Crystal Structure Communications'
 1988 44 1703 1707 ACSCEE
_publ_author_name                  'Aoyama, T.;Ohba, S.;Saito, Y.'
_cell_length_a                     11.441(2)
_cell_length_b                     6.958(2)
_cell_length_c                     12.017(2)
_cell_angle_alpha                  90.
_cell_angle_beta                   91.70(2)
_cell_angle_gamma                  90.
_cell_volume                       956.21
_cell_formula_units_Z              4
_symmetry_space_group_name_H-M     'C 1 2/c 1'
_symmetry_Int_Tables_number        15
_refine_ls_R_factor_all            .018
loop_
_symmetry_equiv_pos_site_id
_symmetry_equiv_pos_as_xyz
  1	'x, -y, z+.5'
  2	'-x, -y, -z'
  3	'-x, y, -z+.5'
  4	'x, y, z'
  5	'x+.5, -y+.5, z+.5'
  6	'-x+.5, -y+.5, -z'
  7	'-x+.5, y+.5, -z+.5'
  8	'x+.5, y+.5, z'
loop_
_atom_type_symbol
_atom_type_oxidation_number
Cd2+	2
H1+	1
Mg2+	2
N3+	3
O2-	-2
loop_
_atom_site_label
_atom_site_type_symbol
_atom_site_symmetry_multiplicity
_atom_site_Wyckoff_symbol
_atom_site_fract_x
_atom_site_fract_y
_atom_site_fract_z
_atom_site_occupancy
_atom_site_attached_hydrogens
Cd1 Cd2+ 4 e 0 0.01472(3) 0.25 1. 0 
Mg1 Mg2+ 4 c 0.25 0.25 0 1. 0 
N1 N3+ 8 f -.0094(2) -.2755(3) 0.0796(2) 1. 0 
O1 O2- 8 f 0.0769(2) -.2346(3) 0.1401(2) 1. 0 
O2 O2- 8 f -.0984(2) -.1732(3) 0.0987(2) 1. 0 
N2 N3+ 8 f 0.1786(2) 0.3105(3) 0.2285(2) 1. 0 
O3 O2- 8 f 0.1227(2) 0.2678(3) 0.3128(2) 1. 0 
O4 O2- 8 f 0.1539(2) 0.2016(2) 0.1467(1) 1. 0 
O5 O2- 8 f 0.2874(2) 0.0322(2) 0.5015(2) 1. 0 
H1 H1+ 8 f 0.314(3) 0.084(5) 0.451(3) 1. 0 
H2 H1+ 8 f 0.325(3) 0.094(5) 0.558(5) 1. 0 

#End of data_64618-ICSD


