data_35761-ICSD
#?2014 by Fachinformationszentrum Karlsruhe, and the U.S. Secretary of 
#Commerce on behalf of the United States.  All rights reserved.
_database_code_ICSD                35761
_audit_creation_date               1983/12/31
_chemical_name_systematic
;
Sodium Hexafluorooxoniobate - !-alpha
;
_chemical_formula_structural       'Na3 (Nb F6 O)'
_chemical_formula_sum              'F6 Na3 Nb1 O1'
_publ_section_title
;
The Crystal Structure of alpha-Sodium Hexafluorooxoniobate(V), alpha-
Na3 (Nb F6 O)
;
loop_
_citation_id
_citation_journal_abbrev
_citation_year
_citation_journal_volume
_citation_page_first
_citation_page_last
_citation_journal_id_ASTM
primary 'Acta Chemica Scandinavica, Series A: (28,1974-)'
 1983 37 453 459 ACAPCT
_publ_author_name                  'Stomberg, R.'
_cell_length_a                     5.6481(4)
_cell_length_b                     5.7661(5)
_cell_length_c                     16.9340(13)
_cell_angle_alpha                  90.
_cell_angle_beta                   90.
_cell_angle_gamma                  90.
_cell_volume                       551.5
_cell_formula_units_Z              4
_symmetry_space_group_name_H-M     'P 21 21 21'
_symmetry_Int_Tables_number        19
_refine_ls_R_factor_all            .034
loop_
_symmetry_equiv_pos_site_id
_symmetry_equiv_pos_as_xyz
  1	'-x, y+.5, -z+.5'
  2	'x+.5, -y+.5, -z'
  3	'-x+.5, -y, z+.5'
  4	'x, y, z'
loop_
_atom_type_symbol
_atom_type_oxidation_number
F1-	-1
Na1+	1
Nb5+	5
O2-	-2
loop_
_atom_site_label
_atom_site_type_symbol
_atom_site_symmetry_multiplicity
_atom_site_Wyckoff_symbol
_atom_site_fract_x
_atom_site_fract_y
_atom_site_fract_z
_atom_site_occupancy
_atom_site_attached_hydrogens
_atom_site_U_iso_or_equiv
Nb1 Nb5+ 4 a 0.25348(6) -.00913(4) 0.12488(2) 1. 0 0.0101 
Na1 Na1+ 4 a 0.2638(4) 0.0124(3) 0.3749(1) 1. 0 0.0204 
Na2 Na1+ 4 a 0.2371(3) 0.4688(3) 0.2562(1) 1. 0 0.0195 
Na3 Na1+ 4 a 0.2198(4) 0.4908(3) -.0034(1) 1. 0 0.0239 
F1 F1- 4 a 0.1566(5) 0.0768(5) 0.2377(2) 1. 0 0.0208 
F2 F1- 4 a 0.1243(5) 0.3187(4) 0.1235(1) 1. 0 0.0226 
F3 F1- 4 a 0.2693(6) 0.1017(4) 0.0116(1) 1. 0 0.0239 
F4 F1- 4 a 0.4459(5) -.2436(5) 0.0604(2) 1. 0 0.0206 
F5 F1- 4 a 0.4193(5) -.2289(4) 0.1992(1) 1. 0 0.0233 
F6 F1- 4 a 0.5780(5) 0.1608(4) 0.1341(1) 1. 0 0.0199 
O1 O2- 4 a -.0098(5) -.1608(5) 0.1123(2) 1. 0 0.0188 

#End of data_35761-ICSD


