data_240497-ICSD
#?2014 by Fachinformationszentrum Karlsruhe, and the U.S. Secretary of 
#Commerce on behalf of the United States.  All rights reserved.
_database_code_ICSD                240497
_audit_creation_date               2007/04/01
_chemical_name_systematic
;
Dimagnesium Mue-oxo-bis(pentachlororuthenate(IV)) Hexadecahydrate
;
_chemical_formula_structural       'Mg2 O (Ru Cl5)2 (H2 O)16'
_chemical_formula_sum              'H32 Cl10 Mg2 O17 Ru2'
_publ_section_title                'Mg2 Ru2 Cl10 O * 16 H2 O'
loop_
_citation_id
_citation_journal_abbrev
_citation_year
_citation_journal_volume
_citation_journal_issue
_citation_page_first
_citation_page_last
_citation_journal_id_ASTM
primary 'Acta Crystallographica, Section C: Crystal Structure Communications'
 2007 63 1 i7 i9 ACSCEE
_publ_author_name
;
Boufas, S.;Merazig, H.;Bendjeddou, L.;Denes, G.;Beghidja, 
A.;Moliterni, A.G.
;
_cell_length_a                     8.256(2)
_cell_length_b                     16.343(3)
_cell_length_c                     10.647(5)
_cell_angle_alpha                  90
_cell_angle_beta                   95.499(3)
_cell_angle_gamma                  90
_cell_volume                       1429.97
_cell_formula_units_Z              2
_symmetry_space_group_name_H-M     'P 1 21/c 1'
_symmetry_Int_Tables_number        14
loop_
_symmetry_equiv_pos_site_id
_symmetry_equiv_pos_as_xyz
  1	'x, -y+.5, z+.5'
  2	'-x, -y, -z'
  3	'-x, y+.5, -z+.5'
  4	'x, y, z'
loop_
_atom_type_symbol
_atom_type_oxidation_number
Cl1-	-1
H1+	1
Mg2+	2
O2-	-2
Ru4+	4
loop_
_atom_site_label
_atom_site_type_symbol
_atom_site_symmetry_multiplicity
_atom_site_Wyckoff_symbol
_atom_site_fract_x
_atom_site_fract_y
_atom_site_fract_z
_atom_site_occupancy
_atom_site_attached_hydrogens
_atom_site_U_iso_or_equiv
Ru1 Ru4+ 4 e 0.46786(3) 0.439501(13) 0.36057(2) 1 0 0.01211(9) 
Cl1 Cl1- 4 e 0.44264(11) 0.55535(4) 0.22846(8) 1 0 0.0223(2) 
Cl2 Cl1- 4 e 0.74948(10) 0.43557(4) 0.33572(8) 1 0 0.01764(19) 
Cl3 Cl1- 4 e 0.18124(10) 0.43860(4) 0.36637(8) 1 0 0.01985(19) 
Cl4 Cl1- 4 e 0.42362(10) 0.35620(5) 0.18105(8) 1 0 0.0246(2) 
Cl5 Cl1- 4 e 0.49101(10) 0.31640(4) 0.47910(8) 1 0 0.0210(2) 
Mg1 Mg2+ 4 e 0.01007(12) 0.18896(5) 0.25193(10) 1 0 0.0173(3) 
O1 O2- 4 e 0.0345(3) 0.30061(12) 0.1593(2) 1 0 0.0222(6) 
H1 H1+ 4 e 0.087(4) 0.3393(16) 0.215(3) 1 0 0.033 
H2 H1+ 4 e -0.067(3) 0.3217(17) 0.120(3) 1 0 0.033 
O2 O2- 4 e 0.1570(3) 0.22248(14) 0.4098(2) 1 0 0.0308(6) 
H3 H1+ 4 e 0.264(3) 0.2452(19) 0.416(4) 1 0 0.046 
H4 H1+ 4 e 0.122(4) 0.227(2) 0.493(2) 1 0 0.046 
O3 O2- 4 e 0.2037(3) 0.14318(14) 0.1661(3) 1 0 0.0326(6) 
H5 H1+ 4 e 0.204(5) 0.0980(16) 0.110(3) 1 0 0.049 
H6 H1+ 4 e 0.304(3) 0.1677(19) 0.204(3) 1 0 0.049 
O4 O2- 4 e -0.0214(3) 0.07874(13) 0.3412(2) 1 0 0.0247(6) 
H7 H1+ 4 e 0.074(3) 0.0545(17) 0.386(3) 1 0 0.037 
H8 H1+ 4 e -0.084(4) 0.0402(17) 0.289(3) 1 0 0.037 
O5 O2- 4 e -0.1394(3) 0.15077(13) 0.0987(2) 1 0 0.0280(6) 
H9 H1+ 4 e -0.117(4) 0.1083(16) 0.041(3) 1 0 0.042 
H10 H1+ 4 e -0.254(2) 0.151(2) 0.105(4) 1 0 0.042 
O6 O2- 4 e -0.1955(3) 0.23270(13) 0.3223(2) 1 0 0.0259(6) 
H11 H1+ 4 e -0.212(4) 0.2876(12) 0.336(3) 1 0 0.039 
H12 H1+ 4 e -0.234(4) 0.2079(18) 0.394(2) 1 0 0.039 
O7 O2- 4 e -0.2495(3) 0.35047(13) 0.0389(2) 1 0 0.0262(6) 
H13 H1+ 4 e -0.250(4) 0.4089(11) 0.030(3) 1 0 0.039 
H14 H1+ 4 e -0.339(3) 0.3416(19) 0.088(3) 1 0 0.039 
O8 O2- 4 e -0.2682(3) 0.52003(14) 0.0458(2) 1 0 0.0288(6) 
H15 H1+ 4 e -0.305(4) 0.5504(17) -0.031(2) 1 0 0.043 
H16 H1+ 4 e -0.349(4) 0.532(2) 0.102(3) 1 0 0.043 
O9 O2- 2 b 0.5 0.5 0.5 1 0 0.0114(6) 

loop_
_atom_site_aniso_label
_atom_site_aniso_type_symbol
_atom_site_aniso_U_11
_atom_site_aniso_U_22
_atom_site_aniso_U_33
_atom_site_aniso_U_12
_atom_site_aniso_U_13
_atom_site_aniso_U_23
Ru1 Ru4+ 0.01097(16) 0.01256(15) 0.01243(15) 0.00045(10) -0.00084(11) 
-0.00163(10)
Cl1 Cl1- 0.0258(5) 0.0221(4) 0.0186(5) 0.0045(3) -0.0011(4) 0.0052(3)
Cl2 Cl1- 0.0122(4) 0.0229(4) 0.0179(5) 0.0013(3) 0.0016(3) -0.0001(3)
Cl3 Cl1- 0.0115(4) 0.0212(4) 0.0265(5) 0.0007(3) 0.0000(4) -0.0031(3)
Cl4 Cl1- 0.0216(5) 0.0306(4) 0.0212(5) -0.0010(4) 0.0004(4) -0.0095(4)
Cl5 Cl1- 0.0202(5) 0.0153(4) 0.0272(5) 0.0002(3) 0.0004(4) 0.0036(3)
Mg1 Mg2+ 0.0157(6) 0.0175(6) 0.0185(7) -0.0006(5) 0.0002(5) -0.0001(4)
O1 O2- 0.0229(15) 0.0178(12) 0.0251(15) -0.0042(10) -0.0024(11) 0.0007(10)
O2 O2- 0.0336(17) 0.0353(13) 0.0220(15) -0.0166(12) -0.0054(13) -0.0003(12)
O3 O2- 0.0257(15) 0.0356(15) 0.0377(18) 0.0058(12) 0.0094(13) -0.0045(12)
O4 O2- 0.0214(15) 0.0203(12) 0.0315(16) -0.0034(10) -0.0022(12) 0.0038(10)
O5 O2- 0.0295(15) 0.0283(13) 0.0246(15) 0.0005(11) -0.0055(12) -0.0052(11)
O6 O2- 0.0276(15) 0.0206(12) 0.0320(16) 0.0053(11) 0.0150(12) 0.0033(11)
O7 O2- 0.0262(15) 0.0251(12) 0.0278(15) 0.0016(11) 0.0056(12) 0.0014(11)
O8 O2- 0.0271(16) 0.0366(14) 0.0221(16) -0.0015(12) -0.0016(12) -0.0002(11)
O9 O2- 0.0229(15) 0.0178(12) 0.0251(15) -0.0042(10) -0.0024(11) 0.0007(10)
#End of data_240497-ICSD


