data_4332-ICSD
#?2014 by Fachinformationszentrum Karlsruhe, and the U.S. Secretary of 
#Commerce on behalf of the United States.  All rights reserved.
_database_code_ICSD                4332
_audit_creation_date               1986/08/12
_audit_update_record               2007/08/01
_chemical_name_systematic
;
Pentacalcium Bis(silicate) Sulfate(VI)
;
_chemical_formula_structural       'Ca5 (Si O4)2 (S O4)'
_chemical_formula_sum              'Ca5 O12 S1 Si2'
_chemical_name_mineral             Silicocarnotite
_publ_section_title
;
Crystal structure of calcium sulphosilicate, Ca5 (Si O4)2 (S O4)
;
loop_
_citation_id
_citation_journal_abbrev
_citation_year
_citation_journal_volume
_citation_page_first
_citation_page_last
_citation_journal_id_ASTM
primary 'Australian Journal of Chemistry' 1974 27 657 660 AJCHAS
_publ_author_name
;
Brotherton, P.D.;Epstein, J.M.;Pryce, M.W.;White, A.H.
;
_cell_length_a                     10.182(1)
_cell_length_b                     15.398(2)
_cell_length_c                     6.8500(9)
_cell_angle_alpha                  90.
_cell_angle_beta                   90.
_cell_angle_gamma                  90.
_cell_volume                       1073.96
_cell_formula_units_Z              4
_symmetry_space_group_name_H-M     'P c m n'
_symmetry_Int_Tables_number        62
_refine_ls_R_factor_all            .042
loop_
_symmetry_equiv_pos_site_id
_symmetry_equiv_pos_as_xyz
  1	'-x+.5, y, z+.5'
  2	'x, -y+.5, z'
  3	'x+.5, y+.5, -z+.5'
  4	'-x, -y, -z'
  5	'x+.5, -y, -z+.5'
  6	'-x, y+.5, -z'
  7	'-x+.5, -y+.5, z+.5'
  8	'x, y, z'
loop_
_atom_type_symbol
_atom_type_oxidation_number
Ca2+	2
O2-	-2
S6+	6
Si4+	4
loop_
_atom_site_label
_atom_site_type_symbol
_atom_site_symmetry_multiplicity
_atom_site_Wyckoff_symbol
_atom_site_fract_x
_atom_site_fract_y
_atom_site_fract_z
_atom_site_occupancy
_atom_site_attached_hydrogens
Ca1 Ca2+ 4 c 0.1898(3) 0.25 0.0497(4) 1. 0 
Ca2 Ca2+ 8 d 0.1588(2) -.0971(1) 0.1431(3) 1. 0 
Ca3 Ca2+ 8 d 0.0660(2) 0.0865(1) 0.3623(1) 1. 0 
O1 O2- 4 c 0.603(1) 0.25 0.232(1) 1. 0 
O2 O2- 4 c 0.4499(9) 0.25 -.047(1) 1. 0 
O3 O2- 8 d 0.6495(7) 0.1715(4) -.0611(1) 1. 0 
O4 O2- 8 d 0.2707(6) -.0089(4) 0.3871(9) 1. 0 
O5 O2- 8 d 0.4754(6) 0.0504(4) 0.1798(9) 1. 0 
O6 O2- 8 d 0.2683(6) 0.1539(4) 0.2870(9) 1. 0 
O7 O2- 8 d 0.4541(6) 0.1099(4) 0.5340(9) 1. 0 
S1 S6+ 4 c 0.5894(3) 0.25 0.0172(6) 1. 0 
Si1 Si4+ 8 d 0.3658(2) 0.0744(2) 0.3457(4) 1. 0 

loop_
_atom_site_aniso_label
_atom_site_aniso_type_symbol
_atom_site_aniso_U_11
_atom_site_aniso_U_22
_atom_site_aniso_U_33
_atom_site_aniso_U_12
_atom_site_aniso_U_13
_atom_site_aniso_U_23
Ca1 Ca2+ 0.011(2) 0.019(2) 0.005(2) 0 0.0(1) 0
Ca2 Ca2+ 0.004(1) 0.021(1) 0.010(1) 0.001(1) 0.001(1) 0.0(1)
Ca3 Ca2+ 0.007(1) 0.019(1) 0.006(1) 0.0(1) 0.002(1) 0.0(1)
O1 O2- 0.021(7) 0.052(8) 0.017(6) 0 -.013(6) 0
O2 O2- 0.002(5) 0.034(7) 0.009(6) 0 -.003(7) 0
O3 O2- 0.009(3) 0.013(4) 0.045(5) 0.004(4) 0.004(4) -.007(4)
O4 O2- 0.005(4) 0.017(4) 0.010(4) 0.0(3) 0.005(3) 0.0(3)
O5 O2- 0.008(3) 0.015(4) 0.002(4) -.002(3) 0.002(3) -.004(3)
O6 O2- 0.007(4) 0.010(4) 0.006(3) -.001(3) -.003(3) 0.002(5)
O7 O2- 0.011(4) 0.021(4) 0.007(4) 0.003(3) -.002(3) -.005(3)
S1 S6+ 0.003(2) 0.018(2) 0.020(2) 0 0.0(2) 0
Si1 Si4+ 0.003(1) 0.017(2) 0.004(2) 0.001(1) 0.001(1) -.001(1)
#End of data_4332-ICSD


