data_423428-ICSD
#?2014 by Fachinformationszentrum Karlsruhe, and the U.S. Secretary of 
#Commerce on behalf of the United States.  All rights reserved.
_database_code_ICSD                423428
_audit_creation_date               2012/08/01
_chemical_name_systematic
;
Aluminium Lithium Nitrogen Oxygen Strontium Tantalum (2/2/8/1/4/2)
;
_chemical_formula_structural       'Al2 Li2 N8 O Sr4 Ta2'
_chemical_formula_sum              'Al2 Li2 N8 O1 Sr4 Ta2'
_publ_section_title
;
Li2 Sr4 Al2 Ta2 N8 O, a nitridoalumotantalate with BCT-zeolite type 
structure
;
loop_
_citation_id
_citation_journal_abbrev
_citation_year
_citation_journal_volume
_citation_journal_issue
_citation_page_first
_citation_page_last
_citation_journal_id_ASTM
primary 'Zeitschrift fuer Anorganische und Allgemeine Chemie (1950) (DE)'
 2012 638 2 352 356 ZAACAB
_publ_author_name                  'Pust, P.;Schnick, W.'
_cell_length_a                     9.4081(19)
_cell_length_b                     10.012(2)
_cell_length_c                     5.9823(12)
_cell_angle_alpha                  90.00
_cell_angle_beta                   93.44(3)
_cell_angle_gamma                  90.00
_cell_volume                       562.48
_cell_formula_units_Z              2
_symmetry_space_group_name_H-M     'P 1 21/n 1'
_symmetry_Int_Tables_number        14
_refine_ls_R_factor_all            .0182
loop_
_symmetry_equiv_pos_site_id
_symmetry_equiv_pos_as_xyz
  1	'-x+.5, y+.5, -z+.5'
  2	'-x, -y, -z'
  3	'x+.5, -y+.5, z+.5'
  4	'x, y, z'
loop_
_atom_type_symbol
_atom_type_oxidation_number
Al3+	3
Li1+	1
N3-	-3
O2-	-2
Sr2+	2
Ta5+	5
loop_
_atom_site_label
_atom_site_type_symbol
_atom_site_symmetry_multiplicity
_atom_site_Wyckoff_symbol
_atom_site_fract_x
_atom_site_fract_y
_atom_site_fract_z
_atom_site_occupancy
_atom_site_attached_hydrogens
_atom_site_U_iso_or_equiv
Ta1 Ta5+ 4 e 0.261276(17) 0.902979(17) 0.03390(3) 1 0 0.00589(8) 
Sr1 Sr2+ 4 e 0.57008(4) 0.74011(4) 0.00350(7) 1 0 0.00666(10) 
Sr2 Sr2+ 4 e 0.19686(5) 0.56655(5) -0.03540(8) 1 0 0.01308(11) 
Al1 Al3+ 4 e 0.39968(14) 0.74419(14) -0.4834(2) 1 0 0.0066(2) 
N1 N3- 4 e 0.3976(4) 0.8665(4) -0.7158(7) 1 0 0.0100(7) 
N2 N3- 4 e 0.3330(4) 0.8338(4) -0.2368(7) 1 0 0.0110(7) 
N3 N3- 4 e 0.5856(4) 0.6888(4) -0.4241(7) 1 0 0.0110(7) 
N4 N3- 4 e 0.2870(5) 0.5904(4) -0.5201(9) 1 0 0.0143(8) 
O1 O2- 2 b 0.5000 0.5000 0.0000 1 0 0.0242(13) 
Li1 Li1+ 4 e 0.4969(10) 0.4938(10) 0.3077(17) 1 0 0.0171(18) 

loop_
_atom_site_aniso_label
_atom_site_aniso_type_symbol
_atom_site_aniso_U_11
_atom_site_aniso_U_22
_atom_site_aniso_U_33
_atom_site_aniso_U_12
_atom_site_aniso_U_13
_atom_site_aniso_U_23
Ta1 Ta5+ 0.00544(10) 0.00607(10) 0.00617(11) 0.00030(5) 0.00051(6) 
-0.00020(6)
Sr1 Sr2+ 0.00425(17) 0.00699(18) 0.00864(19) 0.00032(12) -0.00030(13) 
-0.00050(14)
Sr2 Sr2+ 0.0238(2) 0.00556(19) 0.0101(2) 0.00060(16) 0.00244(16) 
-0.00022(15)
Al1 Al3+ 0.0060(5) 0.0065(6) 0.0073(6) 0.0009(4) 0.0006(4) -0.0006(5)
N1 N3- 0.0092(17) 0.0128(18) 0.0078(18) 0.0011(14) -0.0004(13) -0.0006(14)
N2 N3- 0.0093(16) 0.0155(19) 0.0087(19) 0.0034(14) 0.0026(14) -0.0025(15)
N3 N3- 0.0084(16) 0.0106(17) 0.014(2) 0.0028(13) 0.0029(14) 0.0020(15)
N4 N3- 0.0121(18) 0.0070(18) 0.024(2) -0.0008(13) 0.0003(16) -0.0009(15)
O1 O2- 0.045(4) 0.016(3) 0.012(3) -0.013(2) 0.002(2) 0.001(2)
Li1 Li1+ 0.014(4) 0.023(5) 0.014(4) -0.005(3) -0.002(3) 0.000(4)
#End of data_423428-ICSD


