data_37118-ICSD
#?2014 by Fachinformationszentrum Karlsruhe, and the U.S. Secretary of 
#Commerce on behalf of the United States.  All rights reserved.
_database_code_ICSD                37118
_audit_creation_date               1983/12/31
_chemical_name_systematic          'Lithium Rhenate(VII)'
_chemical_formula_structural       'Li Re O4'
_chemical_formula_sum              'Li1 O4 Re1'
_publ_section_title                'Zur Kenntnis von Li Re O4'
loop_
_citation_id
_citation_journal_abbrev
_citation_year
_citation_journal_volume
_citation_page_first
_citation_page_last
_citation_journal_id_ASTM
primary 'Zeitschrift fuer Anorganische und Allgemeine Chemie (1950) (DE)'
 1983 500 23 30 ZAACAB
_publ_author_name                  'Betz, T.;Hoppe, R.'
_cell_length_a                     9.652(1)
_cell_length_b                     8.455(1)
_cell_length_c                     6.928(1)
_cell_angle_alpha                  101.53(1)
_cell_angle_beta                   106.55(1)
_cell_angle_gamma                  97.22(1)
_cell_volume                       520.88
_cell_formula_units_Z              6
_symmetry_space_group_name_H-M     'P -1'
_symmetry_Int_Tables_number        2
_refine_ls_R_factor_all            .073
loop_
_symmetry_equiv_pos_site_id
_symmetry_equiv_pos_as_xyz
  1	'-x, -y, -z'
  2	'x, y, z'
loop_
_atom_type_symbol
_atom_type_oxidation_number
Li1+	1
O2-	-2
Re7+	7
loop_
_atom_site_label
_atom_site_type_symbol
_atom_site_symmetry_multiplicity
_atom_site_Wyckoff_symbol
_atom_site_fract_x
_atom_site_fract_y
_atom_site_fract_z
_atom_site_occupancy
_atom_site_attached_hydrogens
_atom_site_U_iso_or_equiv
Re1 Re7+ 2 i 0.3429(1) 0.0963(1) 0.2044(1) 1. 0 0 
Re2 Re7+ 2 i 0.2553(1) 0.4955(1) 0.0056(1) 1. 0 0 
Re3 Re7+ 2 i 0.1229(1) 0.7955(1) 0.5220(1) 1. 0 0 
O1 O2- 2 i 0.4315(20) 0.1998(22) 0.0693(29) 1. 0 0.0196(38) 
O2 O2- 2 i 0.8227(19) 0.6267(21) 0.8625(29) 1. 0 0.0180(37) 
O3 O2- 2 i 0.0449(24) 0.8036(27) 0.2711(35) 1. 0 0.0326(48) 
O4 O2- 2 i 0.8518(22) 0.3604(24) 0.0424(33) 1. 0 0.0272(44) 
O5 O2- 2 i 0.5728(21) 0.0619(23) 0.7466(31) 1. 0 0.0240(42) 
O6 O2- 2 i 0.7411(19) 0.6240(21) 0.2184(28) 1. 0 0.0158(36) 
O7 O2- 2 i 0.1556(21) 0.0218(23) 0.0496(30) 1. 0 0.0214(40) 
O8 O2- 2 i 0.7903(23) 0.3711(26) 0.4817(34) 1. 0 0.0311(48) 
O9 O2- 2 i 0.7507(23) 0.0272(25) 0.3448(34) 1. 0 0.0300(46) 
O10 O2- 2 i 0.5737(21) 0.4076(23) 0.8366(31) 1. 0 0.0236(42) 
O11 O2- 2 i 0.9868(21) 0.7656(23) 0.6296(31) 1. 0 0.0235(42) 
O12 O2- 2 i 0.3507(21) 0.2263(23) 0.4316(31) 1. 0 0.0242(42) 
Li1 Li1+ 2 i 0.2209(52) 0.3930(57) 0.4663(75) 1. 0 0.0235(98) 
Li2 Li1+ 2 i 0.0077(52) 0.8092(57) 0.9544(76) 1. 0 0.0245(99) 
Li3 Li1+ 2 i 0.4111(57) 0.1870(63) 0.7452(83) 1. 0 0.030(11) 

loop_
_atom_site_aniso_label
_atom_site_aniso_type_symbol
_atom_site_aniso_U_11
_atom_site_aniso_U_22
_atom_site_aniso_U_33
_atom_site_aniso_U_12
_atom_site_aniso_U_13
_atom_site_aniso_U_23
Re1 Re7+ 0.0062(5) 0.0111(5) 0.0083(5) -.0047(4) 0.0014(4) -.0009(4)
Re2 Re7+ 0.0062(5) 0.0116(5) 0.0089(5) -.0043(4) 0.0011(4) 0.0006(4)
Re3 Re7+ 0.0099(5) 0.0130(5) 0.0096(5) -.0052(4) 0.0030(4) 0.0003(4)
#End of data_37118-ICSD


