data_9891-ICSD
#?2014 by Fachinformationszentrum Karlsruhe, and the U.S. Secretary of 
#Commerce on behalf of the United States.  All rights reserved.
_database_code_ICSD                9891
_audit_creation_date               1986/10/03
_chemical_name_systematic          'Sodium Decafluorotristannate(II)'
_chemical_formula_structural       'Na4 Sn3 F10'
_chemical_formula_sum              'F10 Na4 Sn3'
_publ_section_title
;
Die Kristallstruktur des Tetranatrium-Dekafluorotristannat(II), Na4 
Sn3 F10
;
loop_
_citation_id
_citation_journal_abbrev
_citation_year
_citation_journal_volume
_citation_page_first
_citation_page_last
_citation_journal_id_ASTM
primary 'Acta Crystallographica B (24,1968-38,1982)' 1970 26 19 23 ACBCAR
_publ_author_name                  'Bergerhoff, G.;Goost, L.'
_cell_length_a                     12.18
_cell_length_b                     18.47
_cell_length_c                     5.5
_cell_angle_alpha                  90.
_cell_angle_beta                   91.
_cell_angle_gamma                  90.
_cell_volume                       1237.12
_cell_formula_units_Z              4
_symmetry_space_group_name_H-M     'C 1 2/c 1'
_symmetry_Int_Tables_number        15
_refine_ls_R_factor_all            .092
loop_
_symmetry_equiv_pos_site_id
_symmetry_equiv_pos_as_xyz
  1	'x, -y, z+.5'
  2	'-x, -y, -z'
  3	'-x, y, -z+.5'
  4	'x, y, z'
  5	'x+.5, -y+.5, z+.5'
  6	'-x+.5, -y+.5, -z'
  7	'-x+.5, y+.5, -z+.5'
  8	'x+.5, y+.5, z'
loop_
_atom_type_symbol
_atom_type_oxidation_number
F1-	-1
Na1+	1
Sn2+	2
loop_
_atom_site_label
_atom_site_type_symbol
_atom_site_symmetry_multiplicity
_atom_site_Wyckoff_symbol
_atom_site_fract_x
_atom_site_fract_y
_atom_site_fract_z
_atom_site_occupancy
_atom_site_attached_hydrogens
_atom_site_B_iso_or_equiv
Na1 Na1+ 8 f 0.1714(8) 0.2712(6) 0.7497(3) 1. 0 1.2 
Na2 Na1+ 4 e 0 0.342(1) 0.25 1. 0 2.9 
Na3 Na1+ 4 e 0 0.546(1) 0.25 1. 0 1.7 
Sn1 Sn2+ 8 f 0.2522(1) 0.0814(1) 0.6690(5) 1. 0 1.17 
Sn2 Sn2+ 4 e 0 0.1569(2) 0.25 1. 0 1.92 
F1 F1- 8 f 0.120(1) 0.377(1) 0.541(4) 1. 0 1.3 
F2 F1- 8 f 0.165(2) 0.180(1) 0.428(4) 1. 0 2. 
F3 F1- 8 f 0.107(1) 0.452(1) 0.118(4) 1. 0 2.2 
F4 F1- 8 f 0.232(1) 0.332(1) 0.120(4) 1. 0 2.7 
F5 F1- 8 f 0.041(1) 0.238(1) 0.016(4) 1. 0 2.1 

#End of data_9891-ICSD


