data_90013-ICSD
#?2014 by Fachinformationszentrum Karlsruhe, and the U.S. Secretary of 
#Commerce on behalf of the United States.  All rights reserved.
_database_code_ICSD                90013
_audit_creation_date               2002/04/01
_chemical_name_systematic
;
Potassium Titano(III)diphosphate(V)
;
_chemical_formula_structural       'K (Ti P2 O7)'
_chemical_formula_sum              'K1 O7 P2 Ti1'
_publ_section_title
;
Synthesis and structure of binary diphosphate K Ti P2 O7
;
loop_
_citation_id
_citation_journal_abbrev
_citation_year
_citation_journal_volume
_citation_journal_issue
_citation_page_first
_citation_page_last
_citation_journal_id_ASTM
primary 'Dopov. Nats. Akad. Nauk. Ukr.' 2000 2000 3 151 155 DNAUFL
_publ_author_name
;
Zatovsky, I.V.;Slobodyanik, N.S.;Kowalski, A.;Slyva, T.Yu.
;
_cell_length_a                     7.399(8)
_cell_length_b                     10.259(2)
_cell_length_c                     8.207(8)
_cell_angle_alpha                  90.
_cell_angle_beta                   106.48(1)
_cell_angle_gamma                  90.
_cell_volume                       597.37
_cell_formula_units_Z              4
_symmetry_space_group_name_H-M     'P 1 21/c 1'
_symmetry_Int_Tables_number        14
_refine_ls_R_factor_all            .037
loop_
_symmetry_equiv_pos_site_id
_symmetry_equiv_pos_as_xyz
  1	'x, -y+.5, z+.5'
  2	'-x, -y, -z'
  3	'-x, y+.5, -z+.5'
  4	'x, y, z'
loop_
_atom_type_symbol
_atom_type_oxidation_number
K1+	1
O2-	-2
P5+	5
Ti3+	3
loop_
_atom_site_label
_atom_site_type_symbol
_atom_site_symmetry_multiplicity
_atom_site_Wyckoff_symbol
_atom_site_fract_x
_atom_site_fract_y
_atom_site_fract_z
_atom_site_occupancy
_atom_site_attached_hydrogens
_atom_site_U_iso_or_equiv
Ti1 Ti3+ 4 e 0.7652(1) 0.6008(1) 0.2400(1) 1. 0 0.006(1) 
K1 K1+ 4 e 0.1804(1) 0.6783(1) 0.0562(1) 1. 0 0.022(1) 
P1 P5+ 4 e 0.5554(1) 0.8608(1) 0.3096(1) 1. 0 0.007(1) 
P2 P5+ 4 e 0.8657(1) 0.9030(1) 0.1729(1) 1. 0 0.007(1) 
O1 O2- 4 e 0.5445(4) 0.7174(3) 0.2630(4) 1. 0 0.012(1) 
O2 O2- 4 e 0.6408(4) 0.4189(3) 0.2291(4) 1. 0 0.013(1) 
O3 O2- 4 e 0.6765(4) 0.6103(3) -.0117(4) 1. 0 0.017(1) 
O4 O2- 4 e 0.6572(4) 0.9350(3) 0.1865(4) 1. 0 0.012(1) 
O5 O2- 4 e 0.0062(4) 0.5057(3) 0.2218(3) 1. 0 0.011(1) 
O6 O2- 4 e 0.9205(4) 0.7680(3) 0.2463(4) 1. 0 0.011(1) 
O7 O2- 4 e 0.8543(5) 0.9092(3) -.0123(4) 1. 0 0.016(1) 

#End of data_90013-ICSD


