data_9535-ICSD
#?2014 by Fachinformationszentrum Karlsruhe, and the U.S. Secretary of 
#Commerce on behalf of the United States.  All rights reserved.
_database_code_ICSD                9535
_audit_creation_date               1980/01/01
_audit_update_record               2010/02/01
_chemical_name_systematic          'Potassium Niobate'
_chemical_formula_structural       'K (Nb O3)'
_chemical_formula_sum              'K1 Nb1 O3'
_publ_section_title
;
Soft modes and the structure, spontaneous polarization and Curie 
constants of perovskite ferroelectrics. Tetragonal potassium niobate
;
loop_
_citation_id
_citation_journal_abbrev
_citation_year
_citation_journal_volume
_citation_page_first
_citation_page_last
_citation_journal_id_ASTM
primary 'Journal of Physics C' 1973 6 1074 1084 JPSOAW
2 'Physical Review (1,1893-132,1963/141,1966-188,1969)' 1954 96 581 588 PHRVAO
3 'Golden Book of Phase Transitions, Wroclaw' 2002 1 1 123 GBOPT5
_publ_author_name                  'Hewat, A.W.'
_cell_length_a                     3.997
_cell_length_b                     3.997
_cell_length_c                     4.063
_cell_angle_alpha                  90.
_cell_angle_beta                   90.
_cell_angle_gamma                  90.
_cell_volume                       64.91
_cell_formula_units_Z              1
_symmetry_space_group_name_H-M     'P 4 m m'
_symmetry_Int_Tables_number        99
_refine_ls_R_factor_all            .019
loop_
_symmetry_equiv_pos_site_id
_symmetry_equiv_pos_as_xyz
  1	'y, -x, z'
  2	'-y, x, z'
  3	'-y, -x, z'
  4	'y, x, z'
  5	'x, -y, z'
  6	'-x, y, z'
  7	'-x, -y, z'
  8	'x, y, z'
loop_
_atom_type_symbol
_atom_type_oxidation_number
K1+	1
Nb5+	5
O2-	-2
loop_
_atom_site_label
_atom_site_type_symbol
_atom_site_symmetry_multiplicity
_atom_site_Wyckoff_symbol
_atom_site_fract_x
_atom_site_fract_y
_atom_site_fract_z
_atom_site_occupancy
_atom_site_attached_hydrogens
K1 K1+ 1 b 0.5 0.5 0.4926(86) 1. 0 
Nb1 Nb5+ 1 a 0 0 0.0158 1. 0 
O1 O2- 1 a 0 0 0.4766(30) 1. 0 
O2 O2- 2 c 0 0.5 -.0251(30) 1. 0 

loop_
_atom_site_aniso_label
_atom_site_aniso_type_symbol
_atom_site_aniso_U_11
_atom_site_aniso_U_22
_atom_site_aniso_U_33
_atom_site_aniso_U_12
_atom_site_aniso_U_13
_atom_site_aniso_U_23
K1 K1+ 0.021(5) 0.021(5) 0.015(6) 0 0 0
Nb1 Nb5+ 0.010(2) 0.010(2) 0.003(2) 0 0 0
O1 O2- 0.012(3) 0.012(3) 0.016(6) 0 0 0
O2 O2- 0.011(3) 0.010(1) 0.016(6) 0 0 0
#End of data_9535-ICSD


