data_89856-ICSD
#?2014 by Fachinformationszentrum Karlsruhe, and the U.S. Secretary of 
#Commerce on behalf of the United States.  All rights reserved.
_database_code_ICSD                89856
_audit_creation_date               2002/04/01
_chemical_name_systematic
;
Calcium Magnesium Catena-disilicate
;
_chemical_formula_structural       'Ca Mg (Si2 O6)'
_chemical_formula_sum              'Ca1 Mg1 O6 Si2'
_chemical_name_mineral             Diopside
_publ_section_title
;
A single-crystal neutron-diffraction investigation of diopside at 10 
K
;
loop_
_citation_id
_citation_journal_abbrev
_citation_year
_citation_journal_volume
_citation_page_first
_citation_page_last
_citation_journal_id_ASTM
primary 'Canadian Mineralogist' 2000 38 183 189 CAMIA6
_publ_author_name
;
Prencipe, M.;Tribaudino, M.;Pavese, A.;Hoser, A.;Reehuis, M.
;
_cell_length_a                     9.735(1)
_cell_length_b                     8.898(1)
_cell_length_c                     5.242(1)
_cell_angle_alpha                  90.
_cell_angle_beta                   105.72(1)
_cell_angle_gamma                  90.
_cell_volume                       437.09
_cell_formula_units_Z              4
_symmetry_space_group_name_H-M     'C 1 2/c 1'
_symmetry_Int_Tables_number        15
_refine_ls_R_factor_all            .046
loop_
_symmetry_equiv_pos_site_id
_symmetry_equiv_pos_as_xyz
  1	'x, -y, z+.5'
  2	'-x, -y, -z'
  3	'-x, y, -z+.5'
  4	'x, y, z'
  5	'x+.5, -y+.5, z+.5'
  6	'-x+.5, -y+.5, -z'
  7	'-x+.5, y+.5, -z+.5'
  8	'x+.5, y+.5, z'
loop_
_atom_type_symbol
_atom_type_oxidation_number
Ca2+	2
Mg2+	2
O2-	-2
Si4+	4
loop_
_atom_site_label
_atom_site_type_symbol
_atom_site_symmetry_multiplicity
_atom_site_Wyckoff_symbol
_atom_site_fract_x
_atom_site_fract_y
_atom_site_fract_z
_atom_site_occupancy
_atom_site_attached_hydrogens
_atom_site_B_iso_or_equiv
Ca1 Ca2+ 4 e 0 0.3020(3) 0.25 1. 0 0.26(4) 
Mg1 Mg2+ 4 e 0 0.9085(2) 0.25 1. 0 0.11(6) 
Si1 Si4+ 8 f 0.2865(2) 0.0936(2) 0.2293(6) 1. 0 0.08(3) 
O1 O2- 8 f 0.1155(2) 0.0880(2) 0.1425(5) 1. 0 0.13(3) 
O2 O2- 8 f 0.3612(2) 0.2504(2) 0.3193(5) 1. 0 0.18(3) 
O3 O2- 8 f 0.3510(1) 0.0180(2) 0.9946(4) 1. 0 0.18(3) 

#End of data_89856-ICSD


