data_30853-ICSD
#?2014 by Fachinformationszentrum Karlsruhe, and the U.S. Secretary of 
#Commerce on behalf of the United States.  All rights reserved.
_database_code_ICSD                30853
_audit_creation_date               1985/03/07
_audit_update_record               1985/05/24
_chemical_name_systematic
;
Telluric Acid Dipotassium Nitrate Dihydrate
;
_chemical_formula_structural       'Te (O H)6 K2 (N O3)2 (H2 O)2'
_chemical_formula_sum              'H10 K2 N2 O14 Te1'
_publ_section_title
;
Crystal structure of Te(O H)6 * 2 K N O3 * 2 H2 O: an addition 
compound of telluric acid
;
loop_
_citation_id
_citation_journal_abbrev
_citation_year
_citation_journal_volume
_citation_page_first
_citation_page_last
_citation_journal_id_ASTM
primary 'Zeitschrift fuer Kristallographie (1979-2010)' 1984 167 247 252 ZEKRDZ
_publ_author_name                  'Averbuch-Pouchot, M.T.'
_cell_length_a                     13.34(1)
_cell_length_b                     7.160(5)
_cell_length_c                     6.939(5)
_cell_angle_alpha                  90.
_cell_angle_beta                   100.14
_cell_angle_gamma                  90.
_cell_volume                       652.42
_cell_formula_units_Z              2
_symmetry_space_group_name_H-M     'P 1 21/a 1'
_symmetry_Int_Tables_number        14
_refine_ls_R_factor_all            .023
loop_
_symmetry_equiv_pos_site_id
_symmetry_equiv_pos_as_xyz
  1	'x+.5, -y+.5, z'
  2	'-x, -y, -z'
  3	'-x+.5, y+.5, -z'
  4	'x, y, z'
loop_
_atom_type_symbol
_atom_type_oxidation_number
H1+	1
K1+	1
N5+	5
O2-	-2
Te6+	6
loop_
_atom_site_label
_atom_site_type_symbol
_atom_site_symmetry_multiplicity
_atom_site_Wyckoff_symbol
_atom_site_fract_x
_atom_site_fract_y
_atom_site_fract_z
_atom_site_occupancy
_atom_site_attached_hydrogens
_atom_site_B_iso_or_equiv
Te1 Te6+ 2 a 0 0 0 1. 0 1.054(3) 
K1 K1+ 4 e 0.15917(5) -.0194(1) 0.49110(9) 1. 0 1.81(1) 
O1 O2- 4 e 0.4418(2) 0.2844(3) 0.8585(3) 1. 0 1.68(4) 
O2 O2- 4 e 0.4740(2) 0.4003(3) 0.2417(3) 1. 0 1.65(4) 
O3 O2- 4 e 0.1315(2) 0.1151(3) 0.0551(4) 1. 0 1.81(5) 
O4 O2- 4 e 0.3380(2) 0.1207(4) 0.4031(5) 1. 0 3.31(6) 
O5 O2- 4 e 0.1508(3) 0.3260(4) 0.6421(5) 1. 0 3.83(7) 
O6 O2- 4 e 0.0442(2) 0.5143(4) 0.7445(4) 1. 0 2.72(5) 
O7 O2- 4 e 0.2827(2) -.0080(5) 0.8644(4) 1. 0 2.49(5) 
N1 N5+ 4 e 0.3806(2) -.0139(4) 0.3419(4) 1. 0 2.01(5) 
H1 H1+ 4 e 0.991(4) 0.302(7) 0.806(7) 1. 0 3.00(11) 
H2 H1+ 4 e 0.473(3) 0.294(7) 0.240(7) 1. 0 2.4(9) 
H3 H1+ 4 e 0.189(5) 0.075(9) 0.983(9) 1. 0 5.50(16) 
H4 H1+ 4 e 0.188(4) 0.395(8) 0.133(8) 1. 0 4.30(13) 
H5 H1+ 4 e 0.331(4) 0.094(9) 0.869(8) 1. 0 5.10(15) 

#End of data_30853-ICSD


