data_16438-ICSD
#?2014 by Fachinformationszentrum Karlsruhe, and the U.S. Secretary of 
#Commerce on behalf of the United States.  All rights reserved.
_database_code_ICSD                16438
_audit_creation_date               1980/12/31
_audit_update_record               2012/08/01
_chemical_name_systematic          'Nonacopper Hexasodium Phosphate'
_chemical_formula_structural       'Cu9 Na6 (P O4)8'
_chemical_formula_sum              'Cu9 Na6 O32 P8'
_publ_section_title
;
The Structure of Synthetic Copper Sodium Phosphate: Cu9 Na6 (P O4)8
;
loop_
_citation_id
_citation_journal_abbrev
_citation_year
_citation_journal_volume
_citation_page_first
_citation_page_last
_citation_journal_id_ASTM
primary 'Acta Crystallographica B (24,1968-38,1982)' 1980 36 2555 2558 ACBCAR
_publ_author_name                  'Senga, Y.;Kawahara, A.'
_cell_length_a                     9.3069(9)
_cell_length_b                     8.9152(6)
_cell_length_c                     8.7838(8)
_cell_angle_alpha                  102.25(1)
_cell_angle_beta                   100.20(1)
_cell_angle_gamma                  113.10(1)
_cell_volume                       627.04
_cell_formula_units_Z              1
_symmetry_space_group_name_H-M     'P -1'
_symmetry_Int_Tables_number        2
_refine_ls_R_factor_all            .04
loop_
_symmetry_equiv_pos_site_id
_symmetry_equiv_pos_as_xyz
  1	'-x, -y, -z'
  2	'x, y, z'
loop_
_atom_type_symbol
_atom_type_oxidation_number
Cu2+	2
Na1+	1
O2-	-2
P5+	5
loop_
_atom_site_label
_atom_site_type_symbol
_atom_site_symmetry_multiplicity
_atom_site_Wyckoff_symbol
_atom_site_fract_x
_atom_site_fract_y
_atom_site_fract_z
_atom_site_occupancy
_atom_site_attached_hydrogens
Cu1 Cu2+ 1 a 0 0 0 1. 0 
Cu2 Cu2+ 1 e 0.5 0.5 0 1. 0 
Cu3 Cu2+ 1 g 0 0.5 0.5 1. 0 
Cu4 Cu2+ 2 i 0.42624(8) 0.87689(8) 0.71034(7) 1. 0 
Cu5 Cu2+ 2 i 0.55093(8) 0.29835(8) 0.66178(7) 1. 0 
Cu6 Cu2+ 2 i 0.06194(8) 0.27281(8) 0.80292(7) 1. 0 
Na1 Na1+ 2 i 0.0633(3) 0.9313(3) 0.6448(3) 1. 0 
Na2 Na1+ 2 i 0.2580(3) 0.7024(3) 0.9950(3) 1. 0 
Na3 Na1+ 2 i 0.3445(3) 0.3059(3) 0.3295(3) 1. 0 
P1 P5+ 2 i 0.0911(2) 0.3762(2) 0.1664(2) 1. 0 
P2 P5+ 2 i 0.2727(2) 0.4263(2) 0.6604(2) 1. 0 
P3 P5+ 2 i 0.2902(2) 0.9456(2) 0.3935(2) 1. 0 
P4 P5+ 2 i 0.3512(2) 0.1225(2) 0.9610(2) 1. 0 
O1 O2- 2 i 0.0702(5) 0.2041(5) 0.1929(4) 1. 0 
O2 O2- 2 i 0.9979(5) 0.3377(5) 0.9885(4) 1. 0 
O3 O2- 2 i 0.0142(5) 0.4611(5) 0.2760(5) 1. 0 
O4 O2- 2 i 0.2736(5) 0.4865(5) 0.1947(5) 1. 0 
O5 O2- 2 i 0.2320(5) 0.5525(5) 0.5885(5) 1. 0 
O6 O2- 2 i 0.2986(5) 0.4741(5) 0.8485(4) 1. 0 
O7 O2- 2 i 0.1245(5) 0.2481(5) 0.6006(5) 1. 0 
O8 O2- 2 i 0.4227(4) 0.4221(5) 0.6175(4) 1. 0 
O9 O2- 2 i 0.2695(5) 0.8957(5) 0.5463(4) 1. 0 
O10 O2- 2 i 0.3377(5) 0.8307(5) 0.2788(4) 1. 0 
O11 O2- 2 i 0.1346(4) 0.9455(5) 0.3032(4) 1. 0 
O12 O2- 2 i 0.4327(4) 0.1305(4) 0.4423(4) 1. 0 
O13 O2- 2 i 0.4592(4) 0.2634(5) 0.8968(4) 1. 0 
O14 O2- 2 i 0.3322(4) 0.9448(5) 0.8751(4) 1. 0 
O15 O2- 2 i 0.4261(5) 0.1709(5) 0.1438(4) 1. 0 
O16 O2- 2 i 0.1821(4) 0.1213(5) 0.9258(4) 1. 0 

#End of data_16438-ICSD


