data_30227-ICSD
#?2014 by Fachinformationszentrum Karlsruhe, and the U.S. Secretary of 
#Commerce on behalf of the United States.  All rights reserved.
_database_code_ICSD                30227
_audit_creation_date               1980/01/01
_audit_update_record               1988/10/11
_chemical_name_systematic          'Silver Chlorate'
_chemical_formula_structural       'Ag Cl O3'
_chemical_formula_sum              'Ag1 Cl1 O3'
_publ_section_title
;
Die Struktur des Silberchlorats Ag Cl O3
;
loop_
_citation_id
_citation_journal_abbrev
_citation_year
_citation_journal_volume
_citation_page_first
_citation_page_last
_citation_journal_id_ASTM
primary
;
Zeitschrift fuer Kristallographie, Kristallgeometrie, Kristallphysik, 
Kristallchemie (-144,1977)
;
 1942 104 28 38 ZEKGAX
_publ_author_name                  'Naray-Szabo, S.;Pocza, J.'
_cell_length_a                     7.486
_cell_length_b                     7.486
_cell_length_c                     7.89
_cell_angle_alpha                  90.
_cell_angle_beta                   90.
_cell_angle_gamma                  90.
_cell_volume                       442.16
_cell_formula_units_Z              8
_symmetry_space_group_name_H-M     'I 4/m'
_symmetry_Int_Tables_number        87
loop_
_symmetry_equiv_pos_site_id
_symmetry_equiv_pos_as_xyz
  1	'-y, x, -z'
  2	'y, -x, -z'
  3	'x, y, -z'
  4	'-x, -y, -z'
  5	'y, -x, z'
  6	'-y, x, z'
  7	'-x, -y, z'
  8	'x, y, z'
  9	'-y+.5, x+.5, -z+.5'
 10	'y+.5, -x+.5, -z+.5'
 11	'x+.5, y+.5, -z+.5'
 12	'-x+.5, -y+.5, -z+.5'
 13	'y+.5, -x+.5, z+.5'
 14	'-y+.5, x+.5, z+.5'
 15	'-x+.5, -y+.5, z+.5'
 16	'x+.5, y+.5, z+.5'
loop_
_atom_type_symbol
_atom_type_oxidation_number
Ag1+	1
Cl5+	5
O2-	-2
loop_
_atom_site_label
_atom_site_type_symbol
_atom_site_symmetry_multiplicity
_atom_site_Wyckoff_symbol
_atom_site_fract_x
_atom_site_fract_y
_atom_site_fract_z
_atom_site_occupancy
_atom_site_attached_hydrogens
Ag1 Ag1+ 4 d 0 0.5 0.25 1. 0 
Ag2 Ag1+ 4 e 0 0 0.277 1. 0 
Cl1 Cl5+ 8 h 0.215 0.235 0 1. 0 
O1 O2- 16 i 0.12 0.25 0.152 1. 0 
O2 O2- 8 h 0.34 0.35 0 1. 0 

#End of data_30227-ICSD


