data_51314-ICSD
#?2014 by Fachinformationszentrum Karlsruhe, and the U.S. Secretary of 
#Commerce on behalf of the United States.  All rights reserved.
_database_code_ICSD                51314
_audit_creation_date               2002/10/01
_audit_update_record               2008/02/01
_chemical_name_systematic          'Lithium Alumodiborate'
_chemical_formula_structural       'Li (Al B2 O5)'
_chemical_formula_sum              'Al1 B2 Li1 O5'
_publ_section_title
;
Ab initio structure determination of new compound Li Al B2 O5
;
loop_
_citation_id
_citation_journal_abbrev
_citation_year
_citation_journal_volume
_citation_page_first
_citation_page_last
_citation_journal_id_ASTM
primary 'Journal of Solid State Chemistry' 2001 156 181 184 JSSCBI
_publ_author_name
;
He, M.;Chen, X.-L.;Lan, Y.C.;Li, H.;Xu, Y.-P.
;
_cell_length_a                     9.9096(1)
_cell_length_b                     10.0634(1)
_cell_length_c                     9.3552(1)
_cell_angle_alpha                  90.
_cell_angle_beta                   120.0680(3)
_cell_angle_gamma                  90.
_cell_volume                       807.4
_cell_formula_units_Z              8
_symmetry_space_group_name_H-M     'C 1 2/c 1'
_symmetry_Int_Tables_number        15
_refine_ls_R_factor_all            .0393
loop_
_symmetry_equiv_pos_site_id
_symmetry_equiv_pos_as_xyz
  1	'x, -y, z+.5'
  2	'-x, -y, -z'
  3	'-x, y, -z+.5'
  4	'x, y, z'
  5	'x+.5, -y+.5, z+.5'
  6	'-x+.5, -y+.5, -z'
  7	'-x+.5, y+.5, -z+.5'
  8	'x+.5, y+.5, z'
loop_
_atom_type_symbol
_atom_type_oxidation_number
Al3+	3
B3+	3
Li1+	1
O2-	-2
loop_
_atom_site_label
_atom_site_type_symbol
_atom_site_symmetry_multiplicity
_atom_site_Wyckoff_symbol
_atom_site_fract_x
_atom_site_fract_y
_atom_site_fract_z
_atom_site_occupancy
_atom_site_attached_hydrogens
_atom_site_B_iso_or_equiv
Li1 Li1+ 4 e 0 0.378(1) 0.25 1. 0 2.6(3) 
Li2 Li1+ 4 e 0 0.159(2) -.25 1. 0 3.2(3) 
Al1 Al3+ 8 f 0.1948(2) 0.1523(2) 0.1510(2) 1. 0 1.18(4) 
B1 B3+ 8 f -.0662(7) 0.3266(7) -.0308(8) 1. 0 1.5(1) 
B2 B3+ 8 f 0.2341(8) -.0050(6) 0.4071(8) 1. 0 1.4(1) 
O1 O2- 8 f 0.0582(4) 0.2754(3) 0.1104(4) 1. 0 1.63(8) 
O2 O2- 8 f -.1232(3) 0.2944(3) -.1897(3) 1. 0 0.98(8) 
O3 O2- 8 f -.1386(4) 0.4271(3) 0.0238(4) 1. 0 1.76(8) 
O4 O2- 8 f 0.1581(4) 0.0184(3) 0.2428(4) 1. 0 1.64(8) 
O5 O2- 8 f 0.1846(3) 0.1071(3) -.0311(4) 1. 0 1.19(8) 

#End of data_51314-ICSD


