data_411285-ICSD
#?2014 by Fachinformationszentrum Karlsruhe, and the U.S. Secretary of 
#Commerce on behalf of the United States.  All rights reserved.
_database_code_ICSD                411285
_audit_creation_date               2002/04/01
_audit_update_record               2006/04/01
_chemical_name_systematic          'Potassium Yttrium Bis(tungstate)'
_chemical_formula_structural       'K Y (W O4)2'
_chemical_formula_sum              'K1 O8 W2 Y1'
_publ_section_title
;
Nonstoichiometric K Y (W O4)2: crystal growth, chemical and physical 
characterization
;
loop_
_citation_id
_citation_journal_abbrev
_citation_year
_citation_journal_volume
_citation_page_first
_citation_page_last
_citation_journal_id_ASTM
primary 'Journal of Crystal Growth' 2000 209 895 905 JCRGAE
2 'Golden Book of Phase Transitions, Wroclaw' 2002 1 1 123 GBOPT5
3 'Journal of Alloys and Compounds' 2000 306 227 234 JALCEU
_publ_author_name
;
Gallucci, E.;Goutaudier, C.;Boulon, G.;Cohen-Addad, M.T.;Mentzen, 
B.F.
;
_cell_length_a                     10.6251(1)
_cell_length_b                     10.3395(1)
_cell_length_c                     7.5494(1)
_cell_angle_alpha                  90.
_cell_angle_beta                   130.74(1)
_cell_angle_gamma                  90.
_cell_volume                       628.39
_cell_formula_units_Z              4
_symmetry_space_group_name_H-M     'C 1 2/c 1'
_symmetry_Int_Tables_number        15
_refine_ls_R_factor_all            .0344
loop_
_symmetry_equiv_pos_site_id
_symmetry_equiv_pos_as_xyz
  1	'x, -y, z+.5'
  2	'-x, -y, -z'
  3	'-x, y, -z+.5'
  4	'x, y, z'
  5	'x+.5, -y+.5, z+.5'
  6	'-x+.5, -y+.5, -z'
  7	'-x+.5, y+.5, -z+.5'
  8	'x+.5, y+.5, z'
loop_
_atom_type_symbol
_atom_type_oxidation_number
K1+	1
O2-	-2
W6+	6
Y3+	3
loop_
_atom_site_label
_atom_site_type_symbol
_atom_site_symmetry_multiplicity
_atom_site_Wyckoff_symbol
_atom_site_fract_x
_atom_site_fract_y
_atom_site_fract_z
_atom_site_occupancy
_atom_site_attached_hydrogens
W1 W6+ 8 f 0.19670(23) 0.00026(21) 0.23566(31) 1. 0 
Y1 Y3+ 4 e 0 0.27193(17) 0.75 1. 0 
K1 K1+ 4 e 0 0.7007(4) 0.75 1. 0 
O1 O2- 8 f 0.12711(20) 0.57954(15) 0.18912(32) 1. 0 
O2 O2- 8 f 0.02319(22) 0.10878(15) 0.96982(32) 1. 0 
O3 O2- 8 f 0.22427(21) 0.34168(15) 0.12456(32) 1. 0 
O4 O2- 8 f 0.19008(19) 0.92343(17) 0.94057(31) 1. 0 

loop_
_atom_site_aniso_label
_atom_site_aniso_type_symbol
_atom_site_aniso_U_11
_atom_site_aniso_U_22
_atom_site_aniso_U_33
_atom_site_aniso_U_12
_atom_site_aniso_U_13
_atom_site_aniso_U_23
W1 W6+ 0.0059(11) 0.0019(10) 0.0112(12) 0.004(1) 0.0052(9) 0.0029(10)
Y1 Y3+ 0.0112(11) 0.0089(11) 0.0058(11) 0 0.0066(10) 0
K1 K1+ 0.0125(23) 0.0172(23) 0.0023(22) 0 0.0032(19) 0
O1 O2- 0.0055(10) 0.0089(9) 0.0108(11) -.0001(9) 0.0050(9) -.0020(9)
O2 O2- 0.0067(9) 0.0045(9) 0.0082(10) 0.0014(8) 0.0055(9) -.0015(8)
O3 O2- 0.0073(10) 0.0043(9) 0.0069(9) -.0027(8) 0.0016(8) -.0005(8)
O4 O2- 0.0068(10) 0.0098(10) 0.0051(11) -.0012(8) 0.0038(9) -.0023(8)
#End of data_411285-ICSD


