data_263061-ICSD
#?2014 by Fachinformationszentrum Karlsruhe, and the U.S. Secretary of 
#Commerce on behalf of the United States.  All rights reserved.
_database_code_ICSD                263061
_audit_creation_date               2013/02/01
_chemical_name_systematic          'Diindium Zinc Tetrakis(selenateIV)'
_chemical_formula_structural       'In2 Zn (Se O3)4'
_chemical_formula_sum              'In2 O12 Se4 Zn1'
_publ_section_title
;
Effect of the framework flexibility on the centricities in 
centrosymmetric In2 Zn (Se O3)4 and noncentrosymmetric Ga2 Zn (Te 
O3)4
;
loop_
_citation_id
_citation_journal_abbrev
_citation_year
_citation_journal_volume
_citation_journal_issue
_citation_page_first
_citation_page_last
_citation_journal_id_ASTM
primary 'Inorganic Chemistry' 2012 51 14 7844 7850 INOCAJ
_publ_author_name
;
Lee Dong Woo;Bak Dan-bee;Kim Saet Byeol;Kim Jiwon;Ok Kang Min
;
_cell_length_a                     8.4331(7)
_cell_length_b                     4.7819(4)
_cell_length_c                     14.6583(13)
_cell_angle_alpha                  90
_cell_angle_beta                   101.684(6)
_cell_angle_gamma                  90
_cell_volume                       578.87
_cell_formula_units_Z              2
_symmetry_space_group_name_H-M     'P 1 21/n 1'
_symmetry_Int_Tables_number        14
_refine_ls_R_factor_all            .0399
loop_
_symmetry_equiv_pos_site_id
_symmetry_equiv_pos_as_xyz
  1	'-x+.5, y+.5, -z+.5'
  2	'-x, -y, -z'
  3	'x+.5, -y+.5, z+.5'
  4	'x, y, z'
loop_
_atom_type_symbol
_atom_type_oxidation_number
In3+	3
O2-	-2
Se4+	4
Zn2+	2
loop_
_atom_site_label
_atom_site_type_symbol
_atom_site_symmetry_multiplicity
_atom_site_Wyckoff_symbol
_atom_site_fract_x
_atom_site_fract_y
_atom_site_fract_z
_atom_site_occupancy
_atom_site_attached_hydrogens
_atom_site_U_iso_or_equiv
In1 In3+ 4 e 0.55780(7) 0.03794(11) 0.71330(4) 1 0 0.01703(19) 
Se1 Se4+ 4 e 0.83624(10) 0.07091(15) 0.61038(5) 1 0 0.0163(2) 
Se2 Se4+ 4 e 0.28029(10) 0.50902(15) 0.62872(6) 1 0 0.0162(2) 
Zn1 Zn2+ 2 a 0.5 0.5 0.5 1 0 0.0125(3) 
O1 O2- 4 e 0.3494(7) 0.2728(10) 0.7119(4) 1 0 0.0206(12) 
O2 O2- 4 e 0.9552(7) 0.3277(10) 0.6629(4) 1 0 0.0194(12) 
O3 O2- 4 e 0.4499(7) 0.7051(10) 0.6246(4) 1 0 0.0188(12) 
O4 O2- 4 e 0.6449(7) 0.2083(11) 0.5950(4) 1 0 0.0203(12) 
O5 O2- 4 e 0.8007(7) -0.1313(10) 0.7017(4) 1 0 0.0192(12) 
O6 O2- 4 e 0.2916(7) 0.3381(12) 0.5299(4) 1 0 0.0244(13) 

loop_
_atom_site_aniso_label
_atom_site_aniso_type_symbol
_atom_site_aniso_U_11
_atom_site_aniso_U_22
_atom_site_aniso_U_33
_atom_site_aniso_U_12
_atom_site_aniso_U_13
_atom_site_aniso_U_23
In1 In3+ 0.0195(3) 0.0143(3) 0.0170(3) -0.0006(2) 0.0029(2) -0.0008(2)
Se1 Se4+ 0.0193(4) 0.0145(4) 0.0152(4) -0.0013(3) 0.0036(3) -0.0018(3)
Se2 Se4+ 0.0174(5) 0.0142(3) 0.0169(4) 0.0001(3) 0.0030(3) 0.0001(3)
Zn1 Zn2+ 0.0144(7) 0.0134(5) 0.0103(6) 0.0003(5) 0.0038(5) 0.0014(4)
O1 O2- 0.022(3) 0.016(2) 0.025(3) 0.005(2) 0.007(3) 0.005(2)
O2 O2- 0.022(3) 0.015(2) 0.022(3) -0.006(2) 0.005(2) -0.003(2)
O3 O2- 0.022(3) 0.017(2) 0.017(3) -0.006(2) 0.005(2) -0.001(2)
O4 O2- 0.022(3) 0.018(2) 0.020(3) 0.003(2) 0.002(2) 0.003(2)
O5 O2- 0.026(3) 0.015(2) 0.017(3) 0.003(2) 0.004(2) 0.005(2)
O6 O2- 0.026(3) 0.024(3) 0.024(3) -0.008(3) 0.007(3) -0.006(3)
#End of data_263061-ICSD


