data_69139-ICSD
#?2014 by Fachinformationszentrum Karlsruhe, and the U.S. Secretary of 
#Commerce on behalf of the United States.  All rights reserved.
_database_code_ICSD                69139
_audit_creation_date               1992/01/20
_audit_update_record               1996/10/14
_chemical_name_systematic          'Dicesium Zinc Bromide'
_chemical_formula_structural       'Cs2 Zn Br4'
_chemical_formula_sum              'Br4 Cs2 Zn1'
_publ_section_title
;
Crystallographic study of a family of Cs2 B X4 compounds
;
loop_
_citation_id
_citation_journal_abbrev
_citation_year
_citation_journal_volume
_citation_page_first
_citation_page_last
_citation_journal_id_ASTM
primary Ferroelectrics 1990 107 229 234 FEROA8
_publ_author_name
;
Puget, R.;Jannin, M.;Perret, R.;Godefroy, L.;Godefroy, G.
;
_cell_length_a                     10.1751
_cell_length_b                     7.725
_cell_length_c                     13.5016
_cell_angle_alpha                  90.
_cell_angle_beta                   90.
_cell_angle_gamma                  90.
_cell_volume                       1061.26
_cell_formula_units_Z              4
_symmetry_space_group_name_H-M     'P n m a'
_symmetry_Int_Tables_number        62
_refine_ls_R_factor_all            .024
loop_
_symmetry_equiv_pos_site_id
_symmetry_equiv_pos_as_xyz
  1	'x+.5, y, -z+.5'
  2	'x, -y+.5, z'
  3	'-x+.5, y+.5, z+.5'
  4	'-x, -y, -z'
  5	'-x+.5, -y, z+.5'
  6	'-x, y+.5, -z'
  7	'x+.5, -y+.5, -z+.5'
  8	'x, y, z'
loop_
_atom_type_symbol
_atom_type_oxidation_number
Br1-	-1
Cs1+	1
Zn2+	2
loop_
_atom_site_label
_atom_site_type_symbol
_atom_site_symmetry_multiplicity
_atom_site_Wyckoff_symbol
_atom_site_fract_x
_atom_site_fract_y
_atom_site_fract_z
_atom_site_occupancy
_atom_site_attached_hydrogens
Cs1 Cs1+ 4 c 0.138 0.25 0.103 1. 0 
Cs2 Cs1+ 4 c -.024 0.25 0.672 1. 0 
Zn1 Zn2+ 4 c 0.236 0.25 0.422 1. 0 
Br1 Br1- 4 c 0.003 0.25 0.401 1. 0 
Br2 Br1- 4 c 0.311 0.25 0.59 1. 0 
Br3 Br1- 8 d 0.327 0.502 0.346 1. 0 

#End of data_69139-ICSD


