data_15967-ICSD
#?2014 by Fachinformationszentrum Karlsruhe, and the U.S. Secretary of 
#Commerce on behalf of the United States.  All rights reserved.
_database_code_ICSD                15967
_audit_creation_date               1980/01/01
_audit_update_record               2005/10/01
_chemical_name_systematic          'Trisodium Tris(borate)'
_chemical_formula_structural       'Na3 (B O2)3'
_chemical_formula_sum              'B3 Na3 O6'
_publ_section_title
;
The crystal structure of sodium metaborate Na3 B3 O6
;
loop_
_citation_id
_citation_journal_abbrev
_citation_year
_citation_journal_volume
_citation_page_first
_citation_page_last
_citation_journal_id_ASTM
primary
;
Zeitschrift fuer Kristallographie, Kristallgeometrie, Kristallphysik, 
Kristallchemie (-144,1977)
;
 1938 99 1 8 ZEKGAX
_publ_author_name                  'Fang Ssu-Mien'
_cell_length_a                     7.22(1)
_cell_length_b                     7.22
_cell_length_c                     7.22
_cell_angle_alpha                  111.48
_cell_angle_beta                   111.48
_cell_angle_gamma                  111.48
_cell_volume                       266.01
_cell_formula_units_Z              2
_symmetry_space_group_name_H-M     'R -3 c R'
_symmetry_Int_Tables_number        167
loop_
_symmetry_equiv_pos_site_id
_symmetry_equiv_pos_as_xyz
  1	'-x+.5, -z+.5, -y+.5'
  2	'-z+.5, -y+.5, -x+.5'
  3	'-y+.5, -x+.5, -z+.5'
  4	'x+.5, z+.5, y+.5'
  5	'z+.5, y+.5, x+.5'
  6	'y+.5, x+.5, z+.5'
  7	'-z, -x, -y'
  8	'-y, -z, -x'
  9	'-x, -y, -z'
 10	'z, x, y'
 11	'y, z, x'
 12	'x, y, z'
loop_
_atom_type_symbol
_atom_type_oxidation_number
B3+	3
Na1+	1
O2-	-2
loop_
_atom_site_label
_atom_site_type_symbol
_atom_site_symmetry_multiplicity
_atom_site_Wyckoff_symbol
_atom_site_fract_x
_atom_site_fract_y
_atom_site_fract_z
_atom_site_occupancy
_atom_site_attached_hydrogens
Na1 Na1+ 6 e 0.696(3) -.196 0.25 1. 0 
B1 B3+ 6 e 0.362(6) 0.138 0.25 1. 0 
O1 O2- 6 e 0.479(6) 0.021 0.25 1. 0 
O2 O2- 6 e 0.138(6) 0.362 0.25 1. 0 

#End of data_15967-ICSD


