data_73276-ICSD
#?2014 by Fachinformationszentrum Karlsruhe, and the U.S. Secretary of 
#Commerce on behalf of the United States.  All rights reserved.
_database_code_ICSD                73276
_audit_creation_date               1994/06/30
_audit_update_record               2005/10/01
_chemical_name_systematic          'Dilithium Magnesium Bromide - Lt'
_chemical_formula_structural       'Li2 Mg Br4'
_chemical_formula_sum              'Br4 Li2 Mg1'
_publ_section_title
;
Kristallstrukturen von Li6 Mg Br8 und Li2 Mg Br4
;
loop_
_citation_id
_citation_journal_abbrev
_citation_year
_citation_journal_volume
_citation_page_first
_citation_page_last
_citation_journal_id_ASTM
primary 'Zeitschrift fuer Naturforschung, B: Chemical Sciences'
 1993 48 1 6 ZNBSEN
2 'Golden Book of Phase Transitions, Wroclaw' 2002 1 1 123 GBOPT5
_publ_author_name                  'Schneider, M.;Kuske, P.;Lutz, H.D.'
_cell_length_a                     7.7794(2)
_cell_length_b                     11.0425(4)
_cell_length_c                     3.8655(1)
_cell_angle_alpha                  90.
_cell_angle_beta                   90.
_cell_angle_gamma                  90.
_cell_volume                       332.06
_cell_formula_units_Z              2
_symmetry_space_group_name_H-M     'C m m m'
_symmetry_Int_Tables_number        65
_refine_ls_R_factor_all            .073
loop_
_symmetry_equiv_pos_site_id
_symmetry_equiv_pos_as_xyz
  1	'x, -y, z'
  2	'-x, y, z'
  3	'x, y, -z'
  4	'-x, -y, -z'
  5	'-x, y, -z'
  6	'x, -y, -z'
  7	'-x, -y, z'
  8	'x, y, z'
  9	'x+.5, -y+.5, z'
 10	'-x+.5, y+.5, z'
 11	'x+.5, y+.5, -z'
 12	'-x+.5, -y+.5, -z'
 13	'-x+.5, y+.5, -z'
 14	'x+.5, -y+.5, -z'
 15	'-x+.5, -y+.5, z'
 16	'x+.5, y+.5, z'
loop_
_atom_type_symbol
_atom_type_oxidation_number
Br1-	-1
Li1+	1
Mg2+	2
loop_
_atom_site_label
_atom_site_type_symbol
_atom_site_symmetry_multiplicity
_atom_site_Wyckoff_symbol
_atom_site_fract_x
_atom_site_fract_y
_atom_site_fract_z
_atom_site_occupancy
_atom_site_attached_hydrogens
_atom_site_B_iso_or_equiv
Li1 Li1+ 4 f 0.25 0.25 0.5 1. 0 3.1(1) 
Mg1 Mg2+ 2 a 0 0 0 1. 0 1.50(9) 
Br1 Br1- 4 h 0.2392(4) 0 0.5 1. 0 1.23(4) 
Br2 Br1- 4 i 0 0.2418(3) 0 1. 0 1.37(4) 

#End of data_73276-ICSD


