data_79778-ICSD
#?2014 by Fachinformationszentrum Karlsruhe, and the U.S. Secretary of 
#Commerce on behalf of the United States.  All rights reserved.
_database_code_ICSD                79778
_audit_creation_date               1996/10/14
_audit_update_record               2006/04/01
_chemical_name_systematic          'Dipotassium Sulfate(VI)'
_chemical_formula_structural       'K2 (S O4)'
_chemical_formula_sum              'K2 O4 S1'
_publ_section_title
;
Structure of potassium sulfate at temperatures from 296 K down to 15 
K
;
loop_
_citation_id
_citation_journal_abbrev
_citation_year
_citation_journal_volume
_citation_page_first
_citation_page_last
_citation_journal_id_ASTM
primary 'Acta Crystallographica, Section B: Structural Science'
 1995 51 287 293 ASBSDK
2 'Golden Book of Phase Transitions, Wroclaw' 2002 1 1 123 GBOPT5
_publ_author_name                  'Ojima, K.;Nishihata, Y.;Sawada, A.'
_cell_length_a                     5.7503(4)
_cell_length_b                     10.0395(6)
_cell_length_c                     7.4513(7)
_cell_angle_alpha                  90.
_cell_angle_beta                   90.
_cell_angle_gamma                  90.
_cell_volume                       430.16
_cell_formula_units_Z              4
_symmetry_space_group_name_H-M     'P m c n'
_symmetry_Int_Tables_number        62
_refine_ls_R_factor_all            .029
loop_
_symmetry_equiv_pos_site_id
_symmetry_equiv_pos_as_xyz
  1	'x, -y+.5, z+.5'
  2	'-x+.5, y, z'
  3	'x+.5, y+.5, -z+.5'
  4	'-x, -y, -z'
  5	'-x, y+.5, -z+.5'
  6	'x+.5, -y, -z'
  7	'-x+.5, -y+.5, z+.5'
  8	'x, y, z'
loop_
_atom_type_symbol
_atom_type_oxidation_number
K1+	1
O2-	-2
S6+	6
loop_
_atom_site_label
_atom_site_type_symbol
_atom_site_symmetry_multiplicity
_atom_site_Wyckoff_symbol
_atom_site_fract_x
_atom_site_fract_y
_atom_site_fract_z
_atom_site_occupancy
_atom_site_attached_hydrogens
K1 K1+ 4 c 0.25 0.08941(4) 0.17280(5) 1. 0 
K2 K1+ 4 c 0.25 0.79627(4) 0.48904(5) 1. 0 
S1 S6+ 4 c 0.25 0.41993(4) 0.23271(6) 1. 0 
O1 O2- 4 c 0.25 0.4171(2) 0.0360(2) 1. 0 
O2 O2- 4 c 0.25 0.5591(1) 0.2981(2) 1. 0 
O3 O2- 8 d 0.0406(2) 0.3520(1) 0.3015(2) 1. 0 

loop_
_atom_site_aniso_label
_atom_site_aniso_type_symbol
_atom_site_aniso_U_11
_atom_site_aniso_U_22
_atom_site_aniso_U_33
_atom_site_aniso_U_12
_atom_site_aniso_U_13
_atom_site_aniso_U_23
K1 K1+ 0.0106(1) 0.0123(1) 0.0104(1) 0 0 0.0008(1)
K2 K1+ 0.0117(1) 0.0089(1) 0.0082(1) 0 0 -.0001(1)
S1 S6+ 0.0059(1) 0.0056(1) 0.0061(1) 0 0 -.0001(1)
O1 O2- 0.0245(7) 0.0189(6) 0.0057(4) 0 0 -.0010(5)
O2 O2- 0.0166(6) 0.0065(4) 0.0138(5) 0 0 -.0035(4)
O3 O2- 0.0090(3) 0.0146(4) 0.0186(4) -.0042(3) 0.0021(3) 0.0037(3)
#End of data_79778-ICSD


