data_1727-ICSD
#?2014 by Fachinformationszentrum Karlsruhe, and the U.S. Secretary of 
#Commerce on behalf of the United States.  All rights reserved.
_database_code_ICSD                1727
_audit_creation_date               1980/01/01
_audit_update_record               2014/08/01
_chemical_name_systematic
;
Tetrasilver Hexaselenido-duo-diphosphate(IV)
;
_chemical_formula_structural       'Ag4 (P2 Se6)'
_chemical_formula_sum              'Ag4 P2 Se6'
_publ_section_title
;
Structure cristalline de l'hexaselenohypodiphosphate d'argent, Ag4 P2 
Se6
;
loop_
_citation_id
_citation_journal_abbrev
_citation_year
_citation_journal_volume
_citation_journal_issue
_citation_page_first
_citation_page_last
_citation_journal_id_ASTM
primary 'Acta Crystallographica B (24,1968-38,1982)' 1978 34- 1779 1781 ACBCAR
2
;
Comptes Rendus Hebdomadaires des Seances de l`Academie des Sciences, 
Serie C, Sciences Chimiques (1966-)
;
 1977 285- 559 561 CHDCAQ
3
;
Izvestiya Vysshikh Uchebnykh Zavedenii, Khimiya i Khimicheskaya 
Tekhnologiya
;
 1985 28 4 7 11 IVUKAR
_publ_author_name
;
Toffoli, P.;Khodadad, P.;Rodier, N.
;
_cell_length_a                     14.169(7)
_cell_length_b                     11.598(6)
_cell_length_c                     6.585(4)
_cell_angle_alpha                  90.
_cell_angle_beta                   90.
_cell_angle_gamma                  90.
_cell_volume                       1082.13
_cell_formula_units_Z              4
_symmetry_space_group_name_H-M     'P 21 21 21'
_symmetry_Int_Tables_number        19
_refine_ls_R_factor_all            .059
loop_
_symmetry_equiv_pos_site_id
_symmetry_equiv_pos_as_xyz
  1	'-x, y+.5, -z+.5'
  2	'x+.5, -y+.5, -z'
  3	'-x+.5, -y, z+.5'
  4	'x, y, z'
loop_
_atom_type_symbol
_atom_type_oxidation_number
Ag1+	1
P4+	4
Se2-	-2
loop_
_atom_site_label
_atom_site_type_symbol
_atom_site_symmetry_multiplicity
_atom_site_Wyckoff_symbol
_atom_site_fract_x
_atom_site_fract_y
_atom_site_fract_z
_atom_site_occupancy
_atom_site_attached_hydrogens
Ag1 Ag1+ 4 a 0.3628(3) 0.1174(4) 0.8436(7) 1. 0 
Ag2 Ag1+ 4 a 0.3680(3) 0.3786(4) 0.8339(7) 1. 0 
Ag3 Ag1+ 4 a 0.1320(4) 0.0529(4) 0.7340(7) 1. 0 
Ag4 Ag1+ 4 a 0.6120(4) 0.0433(4) 0.0532(9) 1. 0 
Se1 Se2- 4 a 0.2286(3) 0.2620(4) 0.6294(7) 1. 0 
Se2 Se2- 4 a 0.2393(3) 0.1092(4) 0.1513(8) 1. 0 
Se3 Se2- 4 a 0.2812(3) 0.4236(4) 0.1782(7) 1. 0 
Se4 Se2- 4 a 0.5055(3) 0.3710(4) 0.5629(7) 1. 0 
Se5 Se2- 4 a 0.5142(3) 0.2348(4) 0.0697(7) 1. 0 
Se6 Se2- 4 a 0.4699(3) 0.0605(4) 0.5269(7) 1. 0 
P1 P4+ 4 a 0.2931(7) 0.2538(9) 0.332(2) 1. 0 
P2 P4+ 4 a 0.4525(7) 0.2266(8) 0.374(2) 1. 0 

#End of data_1727-ICSD


