data_68622-ICSD
#?2014 by Fachinformationszentrum Karlsruhe, and the U.S. Secretary of 
#Commerce on behalf of the United States.  All rights reserved.
_database_code_ICSD                68622
_audit_creation_date               1991/07/10
_chemical_name_systematic          'Dipotassium Thorium Molybdate'
_chemical_formula_structural       'K2 Th (Mo O4)3'
_chemical_formula_sum              'K2 Mo3 O12 Th1'
_publ_section_title
;
Structure cristalline de K2Th(MoO4)3
;
loop_
_citation_id
_citation_journal_abbrev
_citation_year
_citation_journal_volume
_citation_page_first
_citation_page_last
_citation_journal_id_ASTM
primary 'Acta Crystallographica, Section C: Crystal Structure Communications'
 1991 47 244 246 ACSCEE
_publ_author_name
;
Huyghe, M.;Lee, M.-R.;Quarton, M.;Robert, F.
;
_cell_length_a                     17.649(2)
_cell_length_b                     12.143(2)
_cell_length_c                     5.3688(2)
_cell_angle_alpha                  90.
_cell_angle_beta                   105.756(5)
_cell_angle_gamma                  90.
_cell_volume                       1107.37
_cell_formula_units_Z              4
_symmetry_space_group_name_H-M     'C 1 2/c 1'
_symmetry_Int_Tables_number        15
_refine_ls_R_factor_all            .025
loop_
_symmetry_equiv_pos_site_id
_symmetry_equiv_pos_as_xyz
  1	'x, -y, z+.5'
  2	'-x, -y, -z'
  3	'-x, y, -z+.5'
  4	'x, y, z'
  5	'x+.5, -y+.5, z+.5'
  6	'-x+.5, -y+.5, -z'
  7	'-x+.5, y+.5, -z+.5'
  8	'x+.5, y+.5, z'
loop_
_atom_type_symbol
_atom_type_oxidation_number
K1+	1
Mo6+	6
O2-	-2
Th4+	4
loop_
_atom_site_label
_atom_site_type_symbol
_atom_site_symmetry_multiplicity
_atom_site_Wyckoff_symbol
_atom_site_fract_x
_atom_site_fract_y
_atom_site_fract_z
_atom_site_occupancy
_atom_site_attached_hydrogens
Th1 Th4+ 4 e 0.5 0.37375 0.75 1. 0 
Mo1 Mo6+ 4 e 0.5 0.14508(2) 0.75 1. 0 
Mo2 Mo6+ 8 f 0.34353(1) 0.38910(2) 0.10186(4) 1. 0 
K1 K1+ 8 f 0.16630(4) 0.37765(5) 0.4228(1) 1. 0 
O1 O2- 8 f 0.4261(1) 0.4611(1) 0.3486(3) 1. 0 
O2 O2- 8 f 0.4259(1) 0.0626(2) 0.0680(4) 1. 0 
O3 O2- 8 f 0.2752(1) 0.4720(2) 0.8935(4) 1. 0 
O4 O2- 8 f 0.2938(1) 0.3008(2) 0.2505(4) 1. 0 
O5 O2- 8 f 0.4576(1) 0.2290(2) 0.4595(4) 1. 0 
O6 O2- 8 f 0.1095(1) 0.1879(1) 0.1013(4) 1. 0 

loop_
_atom_site_aniso_label
_atom_site_aniso_type_symbol
_atom_site_aniso_U_11
_atom_site_aniso_U_22
_atom_site_aniso_U_33
_atom_site_aniso_U_12
_atom_site_aniso_U_13
_atom_site_aniso_U_23
Th1 Th4+ 0.00701(4) 0.00584(4) 0.00546(4) 0 0.00183(3) 0
Mo1 Mo6+ 0.01054(9) 0.00827(8) 0.00857(9) 0 0.00428(7) 0
Mo2 Mo6+ 0.00692(6) 0.01057(7) 0.00790(7) -.00125(4) 0.00133(5) -.00040(4)
K1 K1+ 0.0140(2) 0.0144(2) 0.0208(2) 0.0016(2) 0.0055(2) -.0021(1)
O1 O2- 0.0100(6) 0.0106(5) 0.0099(6) 0.0002(4) 0.0017(5) -.0016(4)
O2 O2- 0.0211(9) 0.0158(7) 0.0178(8) -.0037(6) 0.0028(7) -.0057(6)
O3 O2- 0.0157(7) 0.0204(8) 0.0150(8) 0.0001(6) 0.0013(6) 0.0067(6)
O4 O2- 0.0149(7) 0.0158(7) 0.0199(8) 0.0003(6) 0.0083(6) -.0019(6)
O5 O2- 0.0117(6) 0.0151(6) 0.0141(7) -.0058(5) 0.0056(5) -.0025(5)
O6 O2- 0.0110(6) 0.0130(6) 0.0159(7) -.0021(5) 0.0067(5) -.0008(5)
#End of data_68622-ICSD


