data_73589-ICSD
#?2014 by Fachinformationszentrum Karlsruhe, and the U.S. Secretary of 
#Commerce on behalf of the United States.  All rights reserved.
_database_code_ICSD                73589
_audit_creation_date               1994/06/30
_audit_update_record               2003/04/01
_chemical_name_systematic          'Potassium Manganese(III) Fluoride'
_chemical_formula_structural       'K Mn F4'
_chemical_formula_sum              'F4 K1 Mn1'
_publ_section_title
;
Crystal and magnetic structures of Rb Mn F4 and K Mn F4 investigated 
by neutron powder diffraction: the relationship between structure and 
magnetic properties in the Mn3+ layered perovskites A Mn F4 (A= Na, 
K, Rb, Cs)
;
loop_
_citation_id
_citation_journal_abbrev
_citation_year
_citation_journal_volume
_citation_page_first
_citation_page_last
_citation_journal_id_ASTM
primary 'Journal of Physics: Condensed Matter' 1993 5 4909 4928 JCOMEL
_publ_author_name
;
Moron, M.C.;Palacio, F.;Rodriguez Carvajal, J.
;
_cell_length_a                     7.7062(2)
_cell_length_b                     7.6568(2)
_cell_length_c                     5.7889(1)
_cell_angle_alpha                  90.
_cell_angle_beta                   90.432(2)
_cell_angle_gamma                  90.
_cell_volume                       341.56
_cell_formula_units_Z              4
_symmetry_space_group_name_H-M     'P 1 21/a 1'
_symmetry_Int_Tables_number        14
_refine_ls_R_factor_all            .051
loop_
_symmetry_equiv_pos_site_id
_symmetry_equiv_pos_as_xyz
  1	'x+.5, -y+.5, z'
  2	'-x, -y, -z'
  3	'-x+.5, y+.5, -z'
  4	'x, y, z'
loop_
_atom_type_symbol
_atom_type_oxidation_number
F1-	-1
K1+	1
Mn3+	3
loop_
_atom_site_label
_atom_site_type_symbol
_atom_site_symmetry_multiplicity
_atom_site_Wyckoff_symbol
_atom_site_fract_x
_atom_site_fract_y
_atom_site_fract_z
_atom_site_occupancy
_atom_site_attached_hydrogens
_atom_site_B_iso_or_equiv
Mn1 Mn3+ 2 a 0 0 0 1. 0 1.12(7) 
Mn2 Mn3+ 2 c 0 0.5 0 1. 0 1.25(7) 
F1 F1- 4 e 0.0034(3) 0.2361(3) 0.1150(3) 1. 0 2.02(4) 
F2 F1- 4 e 0.2625(3) 0.0193(2) -.0948(3) 1. 0 2.12(4) 
F3 F1- 4 e 0.0554(2) -.0761(3) 0.2884(3) 1. 0 1.49(4) 
F4 F1- 4 e -.0641(2) 0.5614(3) 0.2883(4) 1. 0 1.92(4) 
K1 K1+ 4 e 0.7458(6) 0.3024(3) 0.4886(4) 1. 0 1.90(5) 

#End of data_73589-ICSD


