data_25027-ICSD
#?2014 by Fachinformationszentrum Karlsruhe, and the U.S. Secretary of 
#Commerce on behalf of the United States.  All rights reserved.
_database_code_ICSD                25027
_audit_creation_date               1980/12/31
_chemical_name_systematic          'Potassium Selenotrithionate'
_chemical_formula_structural       'K2 Se S2 O6'
_chemical_formula_sum              'K2 O6 S2 Se1'
_publ_section_title
;
The Selenotrithionate Dianion: Crystal and Molecular Structure of K2 
Se S2 O6
;
loop_
_citation_id
_citation_journal_abbrev
_citation_year
_citation_journal_volume
_citation_page_first
_citation_page_last
_citation_journal_id_ASTM
primary 'Inorganic Chemistry' 1980 19 1063 1064 INOCAJ
_publ_author_name                  'Foust, A.S.;Janickis, V.'
_cell_length_a                     9.5032(12)
_cell_length_b                     5.9375(10)
_cell_length_c                     15.3132(21)
_cell_angle_alpha                  90.
_cell_angle_beta                   110.418(12)
_cell_angle_gamma                  90.
_cell_volume                       809.76
_cell_formula_units_Z              4
_symmetry_space_group_name_H-M     'P 1 21/c 1'
_symmetry_Int_Tables_number        14
_refine_ls_R_factor_all            .02
loop_
_symmetry_equiv_pos_site_id
_symmetry_equiv_pos_as_xyz
  1	'x, -y+.5, z+.5'
  2	'-x, -y, -z'
  3	'-x, y+.5, -z+.5'
  4	'x, y, z'
loop_
_atom_type_symbol
_atom_type_oxidation_number
K1+	1
O2-	-2
S6+	6
Se2-	-2
loop_
_atom_site_label
_atom_site_type_symbol
_atom_site_symmetry_multiplicity
_atom_site_Wyckoff_symbol
_atom_site_fract_x
_atom_site_fract_y
_atom_site_fract_z
_atom_site_occupancy
_atom_site_attached_hydrogens
Se1 Se2- 4 e 0.87403(4) 0.16812(6) 0.20090(2) 1. 0 
S1 S6+ 4 e 0.66132(9) 0.29083(13) 0.09046(5) 1. 0 
S2 S6+ 4 e 0.80887(9) 0.23982(15) 0.32647(5) 1. 0 
O1 O2- 4 e 0.53971(25) 0.2315(4) 0.12288(16) 1. 0 
O2 O2- 4 e 0.66425(31) 0.1642(5) 0.01018(16) 1. 0 
O3 O2- 4 e 0.67639(28) 0.5301(4) 0.08192(16) 1. 0 
O4 O2- 4 e 0.73423(29) 0.4558(4) 0.31300(15) 1. 0 
O5 O2- 4 e 0.70942(27) 0.0579(4) 0.32970(16) 1. 0 
O6 O2- 4 e 0.95016(31) 0.2345(6) 0.40221(18) 1. 0 
K1 K1+ 4 e 0.22067(9) 0.23520(13) 0.03267(5) 1. 0 
K2 K1+ 4 e 0.44688(9) 0.27813(13) 0.31912(5) 1. 0 

loop_
_atom_site_aniso_label
_atom_site_aniso_type_symbol
_atom_site_aniso_U_11
_atom_site_aniso_U_22
_atom_site_aniso_U_33
_atom_site_aniso_U_12
_atom_site_aniso_U_13
_atom_site_aniso_U_23
Se1 Se2- 0.0228(2) 0.0456(3) 0.0279(2) 0.0078(2) 0.0078(1) 0.0000(2)
S1 S6+ 0.0268(4) 0.0218(5) 0.0205(4) 0.0012(3) 0.0056(3) 0.0005(3)
S2 S6+ 0.0239(4) 0.0297(5) 0.0203(4) -.0010(4) 0.0037(3) -.0008(3)
O1 O2- 0.0212(13) 0.0405(15) 0.0360(14) 0.0006(11) 0.0047(11) 0.0101(11)
O2 O2- 0.0559(18) 0.0483(17) 0.0228(12) 0.0091(14) 0.0070(12) -.0093(11)
O3 O2- 0.0500(16) 0.0217(14) 0.0435(14) 0.0012(12) 0.0182(13) 0.0074(11)
O4 O2- 0.0508(15) 0.0241(13) 0.0342(13) 0.0009(12) 0.0199(12) -.0016(10)
O5 O2- 0.0430(14) 0.0260(13) 0.0322(12) -.0038(11) 0.0155(11) 0.0029(10)
O6 O2- 0.0332(16) 0.0991(24) 0.0260(13) 0.0010(16) -.0043(12) -.0014(15)
K1 K1+ 0.0290(4) 0.0309(4) 0.0244(4) 0.0007(3) 0.0038(3) 0.0016(3)
K2 K1+ 0.0323(4) 0.0254(4) 0.0379(4) 0.0007(3) 0.0091(3) 0.0017(3)
#End of data_25027-ICSD


