data_410818-ICSD
#?2014 by Fachinformationszentrum Karlsruhe, and the U.S. Secretary of 
#Commerce on behalf of the United States.  All rights reserved.
_database_code_ICSD                410818
_audit_creation_date               2000/07/15
_chemical_name_systematic          'Dicesium Tetranitrato(V)zincate'
_chemical_formula_structural       'Cs2 (Zn (N O3)4)'
_chemical_formula_sum              'Cs2 N4 O12 Zn1'
_publ_section_title
;
Synthesis and crystal structure of cesium nitratometalates(II), Cs2 
(M (N O3)4) (M= Mn, Co, Ni, Zn)
;
loop_
_citation_id
_citation_journal_abbrev
_citation_year
_citation_journal_volume
_citation_page_first
_citation_page_last
_citation_journal_id_ASTM
primary 'Zeitschrift fuer Anorganische und Allgemeine Chemie (1950) (DE)'
 1999 625 1664 1669 ZAACAB
_publ_author_name
;
Morozov, I.V.;Kemnitz, E.;Troyanov, S.I.
;
_cell_length_a                     7.975(4)
_cell_length_b                     12.399(6)
_cell_length_c                     13.395(6)
_cell_angle_alpha                  102.49(3)
_cell_angle_beta                   94.24(3)
_cell_angle_gamma                  105.53(3)
_cell_volume                       1233.67
_cell_formula_units_Z              4
_symmetry_space_group_name_H-M     'P -1'
_symmetry_Int_Tables_number        2
_refine_ls_R_factor_all            .0561
loop_
_symmetry_equiv_pos_site_id
_symmetry_equiv_pos_as_xyz
  1	'-x, -y, -z'
  2	'x, y, z'
loop_
_atom_type_symbol
_atom_type_oxidation_number
Cs1+	1
N5+	5
O2-	-2
Zn2+	2
loop_
_atom_site_label
_atom_site_type_symbol
_atom_site_symmetry_multiplicity
_atom_site_Wyckoff_symbol
_atom_site_fract_x
_atom_site_fract_y
_atom_site_fract_z
_atom_site_occupancy
_atom_site_attached_hydrogens
Cs1 Cs1+ 2 i 0.29630(6) 0.52057(5) 0.62169(4) 1. 0 
Cs2 Cs1+ 2 i 0.08517(6) 0.35273(4) 0.88246(4) 1. 0 
Cs3 Cs1+ 2 i 0.72839(7) 0.89798(6) 0.93811(4) 1. 0 
Cs4 Cs1+ 2 i 0.79465(7) 0.11096(5) 0.56950(5) 1. 0 
Zn1 Zn2+ 2 i 0.08626(13) 0.79684(10) 0.73109(8) 1. 0 
Zn2 Zn2+ 2 i 0.55253(12) 0.31769(10) 0.75797(9) 1. 0 
N1 N5+ 2 i -.2433(11) 0.7083(7) 0.6264(6) 1. 0 
N2 N5+ 2 i 0.0929(9) 0.6772(7) 0.8797(6) 1. 0 
N3 N5+ 2 i 0.4213(11) 0.8793(9) 0.6906(9) 1. 0 
N4 N5+ 2 i 0.0424(9) 1.0118(6) 0.7758(7) 1. 0 
N5 N5+ 2 i 0.2871(9) 0.1895(7) 0.6076(6) 1. 0 
N6 N5+ 2 i 0.7851(8) 0.4156(6) 0.6340(6) 1. 0 
N7 N5+ 2 i 0.5957(9) 0.5230(7) 0.8859(6) 1. 0 
N8 N5+ 2 i 0.5690(9) 0.1831(7) 0.8817(6) 1. 0 
O1 O2- 2 i -.2567(12) 0.7380(8) 0.7173(6) 1. 0 
O2 O2- 2 i -.0905(9) 0.7167(6) 0.6004(6) 1. 0 
O3 O2- 2 i -.3725(9) 0.6687(6) 0.5580(5) 1. 0 
O4 O2- 2 i 0.1251(11) 0.6661(8) 0.7853(6) 1. 0 
O5 O2- 2 i 0.0245(10) 0.7504(7) 0.9166(5) 1. 0 
O6 O2- 2 i 0.1327(8) 0.6125(6) 0.9285(6) 1. 0 
O7 O2- 2 i 0.4156(13) 0.8939(12) 0.7852(9) 1. 0 
O8 O2- 2 i 0.2758(8) 0.8141(7) 0.6365(5) 1. 0 
O9 O2- 2 i 0.5458(13) 0.9195(9) 0.6539(14) 1. 0 
O10 O2- 2 i 0.0534(11) 0.9926(7) 0.6843(6) 1. 0 
O11 O2- 2 i 0.0702(8) 0.9388(6) 0.8264(5) 1. 0 
O12 O2- 2 i 0.0008(11) 1.0943(6) 0.8230(8) 1. 0 
O13 O2- 2 i 0.4366(8) 0.1758(9) 0.6257(6) 1. 0 
O14 O2- 2 i 0.2514(12) 0.2670(6) 0.6663(6) 1. 0 
O15 O2- 2 i 0.1820(8) 0.1268(6) 0.5331(5) 1. 0 
O16 O2- 2 i 0.6497(9) 0.4463(8) 0.6313(7) 1. 0 
O17 O2- 2 i 0.7950(12) 0.3544(7) 0.6979(6) 1. 0 
O18 O2- 2 i 0.8909(8) 0.4352(9) 0.5772(6) 1. 0 
O19 O2- 2 i 0.7295(9) 0.4902(7) 0.8954(6) 1. 0 
O20 O2- 2 i 0.4639(8) 0.4511(6) 0.8207(5) 1. 0 
O21 O2- 2 i 0.5838(10) 0.6149(7) 0.9366(7) 1. 0 
O22 O2- 2 i 0.4246(9) 0.2072(7) 0.8723(5) 1. 0 
O23 O2- 2 i 0.6819(8) 0.2216(7) 0.8285(6) 1. 0 
O24 O2- 2 i 0.5975(9) 0.1273(7) 0.9427(6) 1. 0 

loop_
_atom_site_aniso_label
_atom_site_aniso_type_symbol
_atom_site_aniso_U_11
_atom_site_aniso_U_22
_atom_site_aniso_U_33
_atom_site_aniso_U_12
_atom_site_aniso_U_13
_atom_site_aniso_U_23
Cs1 Cs1+ 0.0329(3) 0.0383(4) 0.0347(3) 0.0196(2) 0.0077(2) 0.0149(3)
Cs2 Cs1+ 0.0293(3) 0.0241(3) 0.0207(3) 0.0052(2) -.00022(19) 0.0058(2)
Cs3 Cs1+ 0.0379(3) 0.0514(4) 0.0295(3) 0.0202(3) 0.0076(2) 0.0150(3)
Cs4 Cs1+ 0.0377(3) 0.0327(3) 0.0430(4) 0.0182(2) -.0050(2) 0.0039(3)
Zn1 Zn2+ 0.0450(6) 0.0338(6) 0.0285(6) 0.0229(5) 0.0101(4) 0.0095(5)
Zn2 Zn2+ 0.0321(5) 0.0385(6) 0.0338(6) 0.0170(4) 0.0060(4) 0.0088(5)
N1 N5+ 0.054(5) 0.024(4) 0.028(5) 0.014(3) 0.001(4) 0.005(4)
N2 N5+ 0.039(4) 0.027(4) 0.023(4) 0.013(3) 0.009(3) 0.011(4)
N3 N5+ 0.039(5) 0.049(6) 0.071(8) 0.027(4) 0.009(4) 0.013(6)
N4 N5+ 0.031(4) 0.017(4) 0.054(6) 0.007(3) 0.007(3) 0.015(4)
N5 N5+ 0.031(4) 0.034(5) 0.031(5) 0.005(3) 0.006(3) 0.016(4)
N6 N5+ 0.031(4) 0.024(4) 0.028(4) 0.013(3) -.001(3) 0.009(3)
N7 N5+ 0.035(4) 0.039(5) 0.027(4) 0.010(3) -.003(3) 0.010(4)
N8 N5+ 0.037(4) 0.032(4) 0.034(5) 0.009(3) -.001(3) 0.009(4)
O1 O2- 0.096(6) 0.073(6) 0.027(4) 0.034(5) 0.010(4) 0.002(5)
O2 O2- 0.047(4) 0.045(4) 0.053(5) 0.019(3) 0.008(3) 0.020(4)
O3 O2- 0.050(4) 0.035(4) 0.039(4) 0.002(3) -.001(3) 0.007(3)
O4 O2- 0.088(5) 0.067(5) 0.033(4) 0.043(4) 0.024(4) 0.019(4)
O5 O2- 0.075(5) 0.049(4) 0.034(4) 0.044(4) 0.015(3) 0.021(4)
O6 O2- 0.055(4) 0.037(4) 0.048(4) 0.024(3) 0.010(3) 0.029(4)
O7 O2- 0.067(6) 0.140(11) 0.066(7) 0.050(6) -.023(5) -.022(7)
O8 O2- 0.036(3) 0.063(5) 0.038(4) 0.013(3) 0.000(3) 0.018(4)
O9 O2- 0.062(6) 0.053(6) 0.254(18) 0.013(5) 0.080(8) 0.030(9)
O10 O2- 0.085(5) 0.047(5) 0.037(5) 0.024(4) 0.007(4) 0.024(4)
O11 O2- 0.058(4) 0.034(4) 0.027(4) 0.024(3) 0.013(3) 0.010(3)
O12 O2- 0.071(5) 0.028(4) 0.100(8) 0.031(4) 0.031(5) 0.013(5)
O13 O2- 0.031(3) 0.106(7) 0.058(5) 0.031(4) 0.004(3) 0.044(5)
O14 O2- 0.112(6) 0.024(4) 0.022(4) 0.024(4) 0.011(4) -.002(4)
O15 O2- 0.042(3) 0.030(3) 0.028(4) 0.001(3) -.004(3) 0.000(3)
O16 O2- 0.038(4) 0.089(7) 0.059(5) 0.037(4) 0.003(3) 0.008(5)
O17 O2- 0.103(6) 0.044(4) 0.038(4) 0.030(4) -.010(4) 0.018(4)
O18 O2- 0.031(3) 0.125(9) 0.043(5) 0.003(4) 0.020(3) 0.033(5)
O19 O2- 0.050(4) 0.062(5) 0.045(5) 0.030(4) -.011(3) -.004(4)
O20 O2- 0.037(3) 0.042(4) 0.026(3) 0.005(3) -.004(3) 0.004(3)
O21 O2- 0.053(4) 0.037(4) 0.057(5) 0.015(3) -.001(3) -.015(4)
O22 O2- 0.051(4) 0.058(5) 0.036(4) 0.036(3) 0.011(3) 0.018(4)
O23 O2- 0.035(3) 0.058(5) 0.049(5) -.002(3) 0.006(3) 0.020(4)
O24 O2- 0.047(4) 0.047(4) 0.062(5) 0.019(3) 0.003(3) 0.029(4)
#End of data_410818-ICSD


