data_417568-ICSD
#?2014 by Fachinformationszentrum Karlsruhe, and the U.S. Secretary of 
#Commerce on behalf of the United States.  All rights reserved.
_database_code_ICSD                417568
_audit_creation_date               2008/02/01
_audit_update_record               2013/02/01
_chemical_name_systematic
;
Hexabismuth(III) Zinc Diphosphate(V)
;
_chemical_formula_structural       'Bi6 Zn P2 O15'
_chemical_formula_sum              'Bi6 O15 P2 Zn1'
_publ_section_title
;
The crystal chemistry of Bi6 T P2 O(15+x), T= Fe, Ni, Zn: Isomorphism 
and polymorphism, structural relationship to Bi6 Ti P2 O16
;
loop_
_citation_id
_citation_journal_abbrev
_citation_year
_citation_journal_volume
_citation_journal_issue
_citation_page_first
_citation_page_last
_citation_journal_id_ASTM
primary 'Journal of Solid State Chemistry' 2007 180 4 1504 1511 JSSCBI
_publ_author_name
;
Arumugam, N.;Lynch, V.;Steinfink, H.
;
_cell_length_a                     19.7271(5)
_cell_length_b                     5.4376(2)
_cell_length_c                     16.9730(6)
_cell_angle_alpha                  90.00
_cell_angle_beta                   131.9320(10)
_cell_angle_gamma                  90.00
_cell_volume                       1354.46
_cell_formula_units_Z              4
_symmetry_space_group_name_H-M     'I 1 2 1'
_symmetry_Int_Tables_number        5
_refine_ls_R_factor_all            .0385
loop_
_symmetry_equiv_pos_site_id
_symmetry_equiv_pos_as_xyz
  1	'-x, y, -z'
  2	'x, y, z'
  3	'-x+.5, y+.5, -z+.5'
  4	'x+.5, y+.5, z+.5'
loop_
_atom_type_symbol
_atom_type_oxidation_number
Bi3+	3
O2-	-2
P5+	5
Zn2+	2
loop_
_atom_site_label
_atom_site_type_symbol
_atom_site_symmetry_multiplicity
_atom_site_Wyckoff_symbol
_atom_site_fract_x
_atom_site_fract_y
_atom_site_fract_z
_atom_site_occupancy
_atom_site_attached_hydrogens
_atom_site_U_iso_or_equiv
Bi1 Bi3+ 4 c 0.64514(5) -0.27704(14) 0.40239(6) 1 0 0.00712(19) 
Bi2 Bi3+ 4 c 0.96996(5) -0.25046(14) 0.71392(6) 1 0 0.00775(19) 
Bi3 Bi3+ 4 c 0.59672(5) 0.19661(18) 0.50820(6) 1 0 0.00713(18) 
Bi4 Bi3+ 4 c 1.02526(5) 0.19172(17) 0.61928(6) 1 0 0.00778(18) 
Bi5 Bi3+ 4 c 0.42836(4) -0.30169(17) 0.35246(5) 1 0 0.00747(17) 
Bi6 Bi3+ 4 c 0.70805(5) 0.17687(17) 0.31650(6) 1 0 0.00767(19) 
Zn1 Zn2+ 4 c 0.81221(14) 0.2050(6) 0.57672(19) 1 0 0.0129(5) 
P1 P5+ 4 c 0.2828(3) 0.1855(12) 0.1806(4) 1 0 0.0050(9) 
P2 P5+ 4 c 0.8632(4) 0.6274(10) 0.4416(4) 1 0 0.0071(11) 
O1 O2- 2 a 0.5000 -0.539(5) 0.5000 1 0 0.013(5) 
O2 O2- 2 a 0.5000 -0.038(4) 0.5000 1 0 0.002(4) 
O3 O2- 4 c 0.1758(9) 0.211(3) 0.0922(10) 1 0 0.007(3) 
O4 O2- 4 c 0.5207(12) 0.432(3) 0.3605(14) 1 0 0.007(3) 
O5 O2- 4 c 0.3266(13) 0.410(3) 0.1682(15) 1 0 0.014(4) 
O6 O2- 4 c 0.3231(9) 0.190(4) 0.2955(11) 1 0 0.013(3) 
O7 O2- 4 c 0.9337(9) 0.121(3) 0.6414(11) 1 0 0.005(3) 
O8 O2- 4 c 1.0927(12) -0.087(3) 0.7538(13) 1 0 0.009(3) 
O9 O2- 4 c 0.5996(11) -0.099(3) 0.2605(13) 1 0 0.008(3) 
O10 O2- 4 c 0.8554(13) 0.460(4) 0.3633(15) 1 0 0.019(4) 
O11 O2- 4 c 0.9567(9) 0.585(3) 0.5554(11) 1 0 0.001(3) 
O12 O2- 4 c 0.7048(11) 0.100(3) 0.4395(13) 1 0 0.013(3) 
O13 O2- 4 c 0.3116(13) -0.051(3) 0.1599(15) 1 0 0.013(4) 
O14 O2- 4 c 0.5319(11) -0.074(3) 0.3722(13) 1 0 0.005(3) 
O15 O2- 4 c 0.8525(13) 0.894(4) 0.4122(15) 1 0 0.020(4) 
O16 O2- 4 c 0.7863(13) 0.539(4) 0.4399(15) 1 0 0.021(4) 

loop_
_atom_site_aniso_label
_atom_site_aniso_type_symbol
_atom_site_aniso_U_11
_atom_site_aniso_U_22
_atom_site_aniso_U_33
_atom_site_aniso_U_12
_atom_site_aniso_U_13
_atom_site_aniso_U_23
Bi1 Bi3+ 0.0067(3) 0.0069(4) 0.0091(3) 0.0000(3) 0.0058(3) 0.0000(3)
Bi2 Bi3+ 0.0081(3) 0.0062(4) 0.0107(4) -0.0009(3) 0.0071(3) -0.0007(3)
Bi3 Bi3+ 0.0060(3) 0.0090(4) 0.0092(3) -0.0008(4) 0.0062(3) 0.0000(4)
Bi4 Bi3+ 0.0075(3) 0.0112(4) 0.0073(3) 0.0015(4) 0.0060(3) 0.0007(4)
Bi5 Bi3+ 0.0057(3) 0.0103(4) 0.0080(3) -0.0003(4) 0.0052(3) -0.0004(4)
Bi6 Bi3+ 0.0061(3) 0.0097(4) 0.0093(3) 0.0011(3) 0.0060(3) 0.0007(3)
Zn1 Zn2+ 0.0033(10) 0.0166(15) 0.0126(11) 0.0038(12) 0.0027(9) -0.0070(14)
#End of data_417568-ICSD


