data_153459-ICSD
#?2014 by Fachinformationszentrum Karlsruhe, and the U.S. Secretary of 
#Commerce on behalf of the United States.  All rights reserved.
_database_code_ICSD                153459
_audit_creation_date               2006/10/01
_audit_update_record               2013/08/01
_chemical_name_systematic
;
Potassium Molybdo(VI)antimonate(III)
;
_chemical_formula_structural       'K (Sb Mo O5)'
_chemical_formula_sum              'K1 Mo1 O5 Sb1'
_publ_section_title
;
Synthesis and characteristics of a new molybdoantimonate K Sb Mo O5
;
loop_
_citation_id
_citation_journal_abbrev
_citation_year
_citation_journal_volume
_citation_journal_issue
_citation_page_first
_citation_page_last
_citation_journal_id_ASTM
primary 'Jiegon Huaxue' 2005 24 6 651 654 JHUADF
_publ_author_name
;
Wang Yongjing;Zhang Hanhui;Huang Chang Cang;Yu Xiaohong;Sun 
Qiaozhen;Sun Ruiqing
;
_cell_length_a                     9.2084(7)
_cell_length_b                     11.3155(7)
_cell_length_c                     5.6691(3)
_cell_angle_alpha                  90.
_cell_angle_beta                   107.624(3)
_cell_angle_gamma                  90.
_cell_volume                       562.98
_cell_formula_units_Z              4
_symmetry_space_group_name_H-M     'P 1 21/c 1'
_symmetry_Int_Tables_number        14
_refine_ls_R_factor_all            .0496
loop_
_symmetry_equiv_pos_site_id
_symmetry_equiv_pos_as_xyz
  1	'x, -y+.5, z+.5'
  2	'-x, -y, -z'
  3	'-x, y+.5, -z+.5'
  4	'x, y, z'
loop_
_atom_type_symbol
_atom_type_oxidation_number
K1+	1
Mo6+	6
O2-	-2
Sb3+	3
loop_
_atom_site_label
_atom_site_type_symbol
_atom_site_symmetry_multiplicity
_atom_site_Wyckoff_symbol
_atom_site_fract_x
_atom_site_fract_y
_atom_site_fract_z
_atom_site_occupancy
_atom_site_attached_hydrogens
_atom_site_U_iso_or_equiv
Sb1 Sb3+ 4 e 0.5332(1) 0.3357(1) 0.2157(1) 1. 0 0.015(1) 
Mo1 Mo6+ 4 e 0.2128(1) 0.0888(1) 0.0674(1) 1. 0 0.015(1) 
K1 K1+ 4 e 0.8871(3) 0.3535(2) -0.0440(4) 1. 0 0.025(1) 
O1 O2- 4 e 0.3786(8) 0.1810(5) 0.1701(12) 1. 0 0.029(2) 
O2 O2- 4 e 0.6402(6) 0.2381(5) 0.0351(10) 1. 0 0.017(1) 
O3 O2- 4 e 0.7366(7) 0.4469(5) 0.2835(10) 1. 0 0.023(1) 
O4 O2- 4 e 0.1680(8) 0.0716(5) -0.2479(11) 1. 0 0.032(2) 
O5 O2- 4 e 0.0586(8) 0.1497(6) 0.1390(15) 1. 0 0.032(2) 

#End of data_153459-ICSD


