data_95780-ICSD
#?2014 by Fachinformationszentrum Karlsruhe, and the U.S. Secretary of 
#Commerce on behalf of the United States.  All rights reserved.
_database_code_ICSD                95780
_audit_creation_date               2004/04/01
_chemical_name_systematic
;
Tripotassium Catena-tris(tetrathiophosphato(V))- Dichromate(III)
;
_chemical_formula_structural       'K3 (Cr2 (P S4)3)'
_chemical_formula_sum              'Cr2 K3 P3 S12'
_publ_section_title
;
K3 Cr2 (P S4)3 : a new chromium thiophosphate with a one-dimensional 
(Cr2 (P S4)3)(3-) anion chain
;
loop_
_citation_id
_citation_journal_abbrev
_citation_year
_citation_journal_volume
_citation_page_first
_citation_page_last
_citation_journal_id_ASTM
primary 'Zeitschrift fuer Anorganische und Allgemeine Chemie (1950) (DE)'
 2002 628 1346 1354 ZAACAB
_publ_author_name
;
Derstroff, V.;Ensling, J.;Ksenofontov, V.;Guetlich, P.;Tremel, W.
;
_cell_length_a                     9.731(2)
_cell_length_b                     11.986(2)
_cell_length_c                     17.727(4)
_cell_angle_alpha                  90
_cell_angle_beta                   96.52(2)
_cell_angle_gamma                  90
_cell_volume                       2054.23
_cell_formula_units_Z              4
_symmetry_space_group_name_H-M     'P 1 21/n 1'
_symmetry_Int_Tables_number        14
_refine_ls_R_factor_all            .0453
loop_
_symmetry_equiv_pos_site_id
_symmetry_equiv_pos_as_xyz
  1	'-x+.5, y+.5, -z+.5'
  2	'-x, -y, -z'
  3	'x+.5, -y+.5, z+.5'
  4	'x, y, z'
loop_
_atom_type_symbol
_atom_type_oxidation_number
Cr3+	3
K1+	1
P5+	5
S2-	-2
loop_
_atom_site_label
_atom_site_type_symbol
_atom_site_symmetry_multiplicity
_atom_site_Wyckoff_symbol
_atom_site_fract_x
_atom_site_fract_y
_atom_site_fract_z
_atom_site_occupancy
_atom_site_attached_hydrogens
_atom_site_U_iso_or_equiv
K1 K1+ 4 e 0.4931(2) 0.3673(2) 0.3004(1) 1. 0 0.034(1) 
K2 K1+ 4 e 0.4244(2) 0.0812(2) 0.1156(2) 1. 0 0.055(1) 
K3 K1+ 4 e 0.2343(3) 0.4305(2) -0.0456(1) 1. 0 0.052(1) 
Cr1 Cr3+ 4 e 0.3782(1) 0.2833(1) 0.6023(1) 1. 0 0.017(1) 
Cr2 Cr3+ 4 e 0.0545(1) 0.2278(1) 0.2899(1) 1. 0 0.017(1) 
P1 P5+ 4 e 0.2047(2) 0.2595(2) 0.4483(1) 1. 0 0.019(1) 
S1 S2- 4 e 0.2540(2) 0.1530(2) 0.3664(1) 1. 0 0.023(1) 
S2 S2- 4 e 0.0192(2) 0.3253(2) 0.4044(1) 1. 0 0.025(1) 
S3 S2- 4 e 0.3593(2) 0.3727(2) 0.4774(1) 1. 0 0.026(1) 
S4 S2- 4 e 0.1764(2) 0.1866(2) 0.5493(1) 1. 0 0.024(1) 
P2 P5+ 4 e 0.1740(2) 0.3198(2) 0.1459(1) 1. 0 0.018(1) 
S5 S2- 4 e 0.1060(2) 0.1559(2) 0.1659(1) 1. 0 0.017(1) 
S6 S2- 4 e 0.1690(2) 0.3901(2) 0.2500(1) 1. 0 0.024(1) 
S7 S2- 4 e 0.3578(2) 0.3297(2) 0.1107(1) 1. 0 0.032(1) 
S8 S2- 4 e 0.0144(2) 0.3728(2) 0.0702(1) 1. 0 0.024(1) 
P3 P5+ 4 e 0.7638(2) 0.1240(2) 0.2471(1) 1. 0 0.018(1) 
S9 S2- 4 e 0.7611(2) 0.0528(2) 0.1415(1) 1. 0 0.022(1) 
S10 S2- 4 e -0.0721(2) 0.0629(2) 0.3173(1) 1. 0 0.022(1) 
S11 S2- 4 e 0.8315(2) 0.2870(2) 0.2264(1) 1. 0 0.017(1) 
S12 S2- 4 e 0.5849(2) 0.1154(2) 0.2885(1) 1. 0 0.030(1) 

#End of data_95780-ICSD


