data_189845-ICSD
#?2014 by Fachinformationszentrum Karlsruhe, and the U.S. Secretary of 
#Commerce on behalf of the United States.  All rights reserved.
_database_code_ICSD                189845
_audit_creation_date               2014/02/01
_chemical_name_systematic          'Nonasodium Scandium Hexamolybdate'
_chemical_formula_structural       'Na9 Sc (Mo O4)6'
_chemical_formula_sum              'Mo6 Na9 O24 Sc1'
_publ_section_title
;
The double molybdate Na9 Sc (Mo O4)6 refined from powder XRD data
;
loop_
_citation_id
_citation_journal_abbrev
_citation_year
_citation_journal_volume
_citation_journal_issue
_citation_page_first
_citation_page_last
_citation_journal_id_ASTM
primary 'Acta Crystallographica, Section C: Crystal Structure Communications'
 2013 69 11 1301 1303 ACSCEE
_publ_author_name
;
Savina, Aleksandra A.;Morozov, Vladimir A.;Basovich, Olga 
M.;Khaikina, Elena G.;Lazoryak, Bogdan I.
;
_cell_length_a                     15.0087(3)
_cell_length_b                     15.0087
_cell_length_c                     19.1943(4)
_cell_angle_alpha                  90.
_cell_angle_beta                   90.
_cell_angle_gamma                  120.
_cell_volume                       3744.46
_cell_formula_units_Z              6
_symmetry_space_group_name_H-M     'R -3 H'
_symmetry_Int_Tables_number        148
_refine_ls_R_factor_all            .036
loop_
_symmetry_equiv_pos_site_id
_symmetry_equiv_pos_as_xyz
  1	'x-y, x, -z'
  2	'y, -x+y, -z'
  3	'-x, -y, -z'
  4	'-x+y, -x, z'
  5	'-y, x-y, z'
  6	'x, y, z'
  7	'x-y+.6666, x+.3333, -z+.3333'
  8	'x-y+.3333, x+.6666, -z+.6666'
  9	'y+.6666, -x+y+.3333, -z+.3333'
 10	'y+.3333, -x+y+.6666, -z+.6666'
 11	'-x+.6666, -y+.3333, -z+.3333'
 12	'-x+.3333, -y+.6666, -z+.6666'
 13	'-x+y+.6666, -x+.3333, z+.3333'
 14	'-x+y+.3333, -x+.6666, z+.6666'
 15	'-y+.6666, x-y+.3333, z+.3333'
 16	'-y+.3333, x-y+.6666, z+.6666'
 17	'x+.6666, y+.3333, z+.3333'
 18	'x+.3333, y+.6666, z+.6666'
loop_
_atom_type_symbol
_atom_type_oxidation_number
Mo6+	6
Na1+	1
O2-	-2
Sc3+	3
loop_
_atom_site_label
_atom_site_type_symbol
_atom_site_symmetry_multiplicity
_atom_site_Wyckoff_symbol
_atom_site_fract_x
_atom_site_fract_y
_atom_site_fract_z
_atom_site_occupancy
_atom_site_attached_hydrogens
_atom_site_U_iso_or_equiv
Sc1 Sc3+ 6 c 0 0 0.2600(5) 1.0 0 0.0146(19) 
Na1 Na1+ 18 f 0.0055(11) 0.2270(7) 0.2568(8) 1.0 0 0.040(3) 
Na2 Na1+ 18 f 0.0130(8) 0.2304(8) 0.0486(6) 1.0 0 0.039(4) 
Na3 Na1+ 18 f 0.0164(7) 0.2428(8) 0.4469(6) 1.0 0 0.032(3) 
Mo1 Mo6+ 18 f 0.5269(2) 0.8610(2) 0.02720(10) 1.0 0 0.0205(7) 
Mo2 Mo6+ 18 f 0.5144(2) 0.6476(2) 0.52480(10) 1.0 0 0.0331(9) 
O1 O2- 18 f 0.5738(16) 0.7833(16) 0.0354(9) 1.0 0 0.042(3) 
O2 O2- 18 f 0.5030(11) 0.8880(12) 0.1099(9) 1.0 0 0.032(4) 
O3 O2- 18 f 0.6082(16) 0.9696(17) -0.0121(11) 1.0 0 0.042(5) 
O4 O2- 18 f 0.4062(14) 0.8060(14) -0.0180(8) 1.0 0 0.028(3) 
O5 O2- 18 f 0.5855(15) 0.7828(15) 0.5247(8) 1.0 0 0.042(3) 
O6 O2- 18 f 0.4693(12) 0.5950(12) 0.6092(9) 1.0 0 0.042(5) 
O7 O2- 18 f 0.6058(15) 0.6161(11) 0.4968(11) 1.0 0 0.032(4) 
O8 O2- 18 f 0.4021(13) 0.6027(12) 0.4681(8) 1.0 0 0.028(3) 

#End of data_189845-ICSD


