data_171747-ICSD
#?2014 by Fachinformationszentrum Karlsruhe, and the U.S. Secretary of 
#Commerce on behalf of the United States.  All rights reserved.
_database_code_ICSD                171747
_audit_creation_date               2007/08/01
_chemical_name_systematic          'Aluminium Phosphate(V)'
_chemical_formula_structural       'Al (P O4)'
_chemical_formula_sum              'Al1 O4 P1'
_publ_section_title
;
Synthesis and characterization of a new microporous material. 1. 
Structure of aluminophosphate EMM-3
;
loop_
_citation_id
_citation_journal_abbrev
_citation_year
_citation_journal_volume
_citation_journal_issue
_citation_page_first
_citation_page_last
_citation_journal_id_ASTM
primary 'Chemistry of Materials' 2006 18 6 1697 1704 CMATEX
_publ_author_name
;
Afeworki, M.;Dorset, D.L.;Kennedy, G.J.;Strohmaier, K.G.
;
_cell_length_a                     10.31317(20)
_cell_length_b                     12.69752(25)
_cell_length_c                     21.8860(4)
_cell_angle_alpha                  89.6565(13)
_cell_angle_beta                   90.0
_cell_angle_gamma                  90.0
_cell_volume                       2865.96
_cell_formula_units_Z              24
_symmetry_space_group_name_H-M     'I 2/m 1 1'
_symmetry_Int_Tables_number        12
_refine_ls_R_factor_all            .0538
loop_
_symmetry_equiv_pos_site_id
_symmetry_equiv_pos_as_xyz
  1	'x, y, z'
  2	'-x, -y, -z'
  3	'-x, y, z'
  4	'x, -y, -z'
  5	'x+.5, y+.5, z+.5'
  6	'-x+.5, -y+.5, -z+.5'
  7	'-x+.5, y+.5, z+.5'
  8	'x+.5, -y+.5, -z+.5'
loop_
_atom_type_symbol
_atom_type_oxidation_number
Al3+	3
O2-	-2
P5+	5
loop_
_atom_site_label
_atom_site_type_symbol
_atom_site_symmetry_multiplicity
_atom_site_Wyckoff_symbol
_atom_site_fract_x
_atom_site_fract_y
_atom_site_fract_z
_atom_site_occupancy
_atom_site_attached_hydrogens
_atom_site_U_iso_or_equiv
Al1 Al3+ 8 j 0.2247(5) 0.3744(4) 0.11190(24) 1.0 0 0.0119(4) 
Al2 Al3+ 4 i 0.0 0.5563(5) 0.65436(29) 1.0 0 0.0119(4) 
Al3 Al3+ 4 i 0.0 0.8722(5) 0.79486(31) 1.0 0 0.0119(4) 
Al4 Al3+ 4 i 0.0 0.8762(5) 0.43411(29) 1.0 0 0.0119(4) 
Al5 Al3+ 4 g 0.2190(7) 0.5 0.5 1.0 0 0.0119(4) 
P1 P5+ 8 j 0.7784(5) 0.1322(4) 0.11182(22) 1.0 0 0.0119(4) 
P2 P5+ 4 i 0.0 0.6216(5) 0.79177(31) 1.0 0 0.0119(4) 
P3 P5+ 4 i 0.0 0.6292(5) 0.43220(28) 1.0 0 0.0119(4) 
P4 P5+ 4 i 0.0 0.9457(4) 0.66029(28) 1.0 0 0.0119(4) 
P5 P5+ 4 h 0.7767(6) 0.0 0.5 1.0 0 0.0119(4) 
O1 O2- 4 i 0.0 0.5584(8) 0.73316(34) 1.0 0 0.0110(7) 
O2 O2- 4 i 0.0 0.7391(6) 0.7734(4) 1.0 0 0.0110(7) 
O3 O2- 4 i 0.0 0.5766(6) 0.3683(4) 1.0 0 0.0110(7) 
O4 O2- 4 i 0.0 0.7454(6) 0.4179(4) 1.0 0 0.0110(7) 
O5 O2- 8 j 0.1950(5) 0.7550(5) 0.91026(30) 1.0 0 0.0110(7) 
O6 O2- 4 i 0.0 0.9520(8) 0.72943(34) 1.0 0 0.0110(7) 
O7 O2- 4 i 0.0 0.9430(6) 0.3667(4) 1.0 0 0.0110(7) 
O8 O2- 8 j 0.1984(7) 0.4528(6) 0.05108(30) 1.0 0 0.0110(7) 
O9 O2- 8 j 0.1196(6) 0.4071(6) 0.17172(30) 1.0 0 0.0110(7) 
O10 O2- 8 j 0.3813(5) 0.3856(6) 0.13894(35) 1.0 0 0.0110(7) 
O11 O2- 8 j 0.8785(5) 0.4039(5) 0.53492(32) 1.0 0 0.0110(7) 
O12 O2- 8 j 0.8097(8) 0.0611(6) 0.05700(30) 1.0 0 0.0110(7) 
O13 O2- 8 j 0.8573(6) 0.1001(6) 0.16663(31) 1.0 0 0.0110(7) 
O14 O2- 8 j 0.6346(5) 0.1171(6) 0.1242(4) 1.0 0 0.0110(7) 
O15 O2- 8 j 0.1348(5) 0.0904(5) 0.5230(4) 1.0 0 0.0110(7) 

#End of data_171747-ICSD


