data_169893-ICSD
#?2014 by Fachinformationszentrum Karlsruhe, and the U.S. Secretary of 
#Commerce on behalf of the United States.  All rights reserved.
_database_code_ICSD                169893
_audit_creation_date               2011/08/01
_chemical_name_systematic          'Calcium Carbonate'
_chemical_formula_structural       'Ca (C O3)'
_chemical_formula_sum              'C1 Ca1 O3'
_chemical_name_mineral             Aragonite
_publ_section_title
;
Temperature dependence of the structural parameters in the 
transformation of aragonite to calcite, as determined from in situ 
synchrotron powder x-ray-diffraction data
;
loop_
_citation_id
_citation_journal_abbrev
_citation_year
_citation_journal_volume
_citation_page_first
_citation_page_last
_citation_journal_id_ASTM
primary 'Canadian Mineralogist' 2010 48 1225 1236 CAMIA6
_publ_author_name                  'Antao, S.M.;Hassan, I.'
_cell_length_a                     4.9586(4)
_cell_length_b                     7.9867(6)
_cell_length_c                     5.7547(5)
_cell_angle_alpha                  90.
_cell_angle_beta                   90.
_cell_angle_gamma                  90.
_cell_volume                       227.9
_cell_formula_units_Z              4
_symmetry_space_group_name_H-M     'P m c n'
_symmetry_Int_Tables_number        62
_refine_ls_R_factor_all            .0323
loop_
_symmetry_equiv_pos_site_id
_symmetry_equiv_pos_as_xyz
  1	'x, -y+.5, z+.5'
  2	'-x+.5, y, z'
  3	'x+.5, y+.5, -z+.5'
  4	'-x, -y, -z'
  5	'-x, y+.5, -z+.5'
  6	'x+.5, -y, -z'
  7	'-x+.5, -y+.5, z+.5'
  8	'x, y, z'
loop_
_atom_type_symbol
_atom_type_oxidation_number
C4+	4
Ca2+	2
O2-	-2
loop_
_atom_site_label
_atom_site_type_symbol
_atom_site_symmetry_multiplicity
_atom_site_Wyckoff_symbol
_atom_site_fract_x
_atom_site_fract_y
_atom_site_fract_z
_atom_site_occupancy
_atom_site_attached_hydrogens
_atom_site_U_iso_or_equiv
Ca1 Ca2+ 4 c 0.25 0.4141(2) 0.7538(5) 1. 0 0.009(1) 
C1 C4+ 4 c 0.25 0.7658(14) -0.0679(13) 1. 0 0.026(1) 
O1 O2- 4 c 0.25 0.9183(9) -0.0889(7) 1. 0 0.026(1) 
O2 O2- 8 d 0.4735(10) 0.6840(5) -0.0983(7) 1. 0 0.026(1) 

#End of data_169893-ICSD


