data_166766-ICSD
#?2014 by Fachinformationszentrum Karlsruhe, and the U.S. Secretary of 
#Commerce on behalf of the United States.  All rights reserved.
_database_code_ICSD                166766
_audit_creation_date               2010/08/01
_chemical_name_systematic
;
Dipotassium Tetranitrato(V)palladate - Beta
;
_chemical_formula_structural       'K2 (Pd (N O3)4)'
_chemical_formula_sum              'K2 N4 O12 Pd1'
_publ_section_title
;
Crystal structure of a new polymorphic modification of beta-(K2 (Pd 
(N O3)4))
;
loop_
_citation_id
_citation_journal_abbrev
_citation_year
_citation_journal_volume
_citation_journal_issue
_citation_page_first
_citation_page_last
_citation_journal_id_ASTM
primary 'Zhurnal Strukturnoi Khimii (Issue-No. from 1981)'
 2009 50 2 374 377 ZSTKAI
2 'Journal of Structural Chemistry (USSR) (= Zhurnal Strukturnoi Khimii)'
 2009 50 2 361 364 JSTCAM
_publ_author_name
;
Khranenko, S.P.;Baidina, I.A.;Gromilov, S.A.
;
_cell_length_a                     7.8640(2)
_cell_length_b                     7.5323(2)
_cell_length_c                     9.4401(2)
_cell_angle_alpha                  90.
_cell_angle_beta                   99.494(1)
_cell_angle_gamma                  90.
_cell_volume                       551.52
_cell_formula_units_Z              2
_symmetry_space_group_name_H-M     'P 1 21/c 1'
_symmetry_Int_Tables_number        14
_refine_ls_R_factor_all            .0189
loop_
_symmetry_equiv_pos_site_id
_symmetry_equiv_pos_as_xyz
  1	'x, -y+.5, z+.5'
  2	'-x, -y, -z'
  3	'-x, y+.5, -z+.5'
  4	'x, y, z'
loop_
_atom_type_symbol
_atom_type_oxidation_number
K1+	1
N5+	5
O2-	-2
Pd2+	2
loop_
_atom_site_label
_atom_site_type_symbol
_atom_site_symmetry_multiplicity
_atom_site_Wyckoff_symbol
_atom_site_fract_x
_atom_site_fract_y
_atom_site_fract_z
_atom_site_occupancy
_atom_site_attached_hydrogens
_atom_site_U_iso_or_equiv
Pd1 Pd2+ 2 a 0 0 0 1. 0 0.00802(6) 
K1 K1+ 4 e 0.65206(5) 0.06651(5) 0.32995(4) 1. 0 0.01703(9) 
N1 N5+ 4 e 0.81945(19) 0.0521(2) 0.71528(16) 1. 0 0.0142(3) 
N2 N5+ 4 e 0.32510(18) 0.14711(19) 0.96888(15) 1. 0 0.0127(3) 
O1 O2- 4 e 0.84082(15) 0.12354(16) 0.84373(12) 1. 0 0.0118(2) 
O2 O2- 4 e 0.91620(18) -0.0649(2) 0.68729(14) 1. 0 0.0214(3) 
O3 O2- 4 e 0.69708(19) 0.1119(2) 0.62922(14) 1. 0 0.0232(3) 
O4 O2- 4 e 0.20308(15) 0.04574(17) 0.90217(13) 1. 0 0.0120(2) 
O5 O2- 4 e 0.45001(16) 0.16967(18) 0.90685(14) 1. 0 0.0180(3) 
O6 O2- 4 e 0.31136(18) 0.21263(18) 0.08573(13) 1. 0 0.0187(3) 

#End of data_166766-ICSD


