data_72378-ICSD
#?2014 by Fachinformationszentrum Karlsruhe, and the U.S. Secretary of 
#Commerce on behalf of the United States.  All rights reserved.
_database_code_ICSD                72378
_audit_creation_date               1994/01/19
_chemical_name_systematic          'Dipotassium Catena-thiodistannate'
_chemical_formula_structural       'K2 (Sn2 S5)'
_chemical_formula_sum              'K2 S5 Sn2'
_publ_section_title
;
Darstellung und Kristallstruktur von K2Sn2S5 und K2Sn2Se5
;
loop_
_citation_id
_citation_journal_abbrev
_citation_year
_citation_journal_volume
_citation_page_first
_citation_page_last
_citation_journal_id_ASTM
primary 'Zeitschrift fuer Naturforschung, B: Chemical Sciences'
 1992 47 197 200 ZNBSEN
_publ_author_name                  'Klepp, K.O.'
_cell_length_a                     11.072(5)
_cell_length_b                     7.806(3)
_cell_length_c                     11.517(5)
_cell_angle_alpha                  90.
_cell_angle_beta                   108.43(2)
_cell_angle_gamma                  90.
_cell_volume                       944.34
_cell_formula_units_Z              4
_symmetry_space_group_name_H-M     'C 1 2/c 1'
_symmetry_Int_Tables_number        15
_refine_ls_R_factor_all            .032
loop_
_symmetry_equiv_pos_site_id
_symmetry_equiv_pos_as_xyz
  1	'x, -y, z+.5'
  2	'-x, -y, -z'
  3	'-x, y, -z+.5'
  4	'x, y, z'
  5	'x+.5, -y+.5, z+.5'
  6	'-x+.5, -y+.5, -z'
  7	'-x+.5, y+.5, -z+.5'
  8	'x+.5, y+.5, z'
loop_
_atom_type_symbol
_atom_type_oxidation_number
K1+	1
S2-	-2
Sn4+	4
loop_
_atom_site_label
_atom_site_type_symbol
_atom_site_symmetry_multiplicity
_atom_site_Wyckoff_symbol
_atom_site_fract_x
_atom_site_fract_y
_atom_site_fract_z
_atom_site_occupancy
_atom_site_attached_hydrogens
K1 K1+ 8 f 0.2204(2) 0.3322(3) 0.3175(2) 1. 0 
Sn1 Sn4+ 8 f 0.40580(5) 0.34610(8) 0.05845(5) 1. 0 
S1 S2- 8 f 0.3037(2) 0.0514(3) 0.9619(2) 1. 0 
S2 S2- 8 f 0.0172(2) 0.1345(3) 0.1161(2) 1. 0 
S3 S2- 4 e 0 0.3145(4) 0.75 1. 0 

loop_
_atom_site_aniso_label
_atom_site_aniso_type_symbol
_atom_site_aniso_U_11
_atom_site_aniso_U_22
_atom_site_aniso_U_33
_atom_site_aniso_U_12
_atom_site_aniso_U_13
_atom_site_aniso_U_23
K1 K1+ 0.0260(9) 0.030(1) 0.0198(8) -.009(1) 0.0073(7) -.0077(9)
Sn1 Sn4+ 0.0044(2) 0.0150(3) 0.0080(2) -.0019(2) 0.0010(2) 0.0016(2)
S1 S2- 0.0066(8) 0.014(1) 0.0172(9) -.0004(7) 0.0030(6) -.0011(8)
S2 S2- 0.0208(8) 0.021(1) 0.0145(8) -.0116(9) 0.0113(6) -.0069(9)
S3 S2- 0.019(1) 0.014(1) 0.009(1) 0 -.003(1) 0
#End of data_72378-ICSD


