data_78659-ICSD
#?2014 by Fachinformationszentrum Karlsruhe, and the U.S. Secretary of 
#Commerce on behalf of the United States.  All rights reserved.
_database_code_ICSD                78659
_audit_creation_date               1997/05/13
_audit_update_record               2012/02/01
_chemical_name_systematic          'Calcium Manganese Diphosphate(V)'
_chemical_formula_structural       'Ca Mn (P2 O7)'
_chemical_formula_sum              'Ca1 Mn1 O7 P2'
_publ_section_title
;
New manganese pyrophosphates: the synthesis, crystallographic 
characterizations and magnetic properties of Ba Mn P2 O7 and Ca Mn P2 
O7
;
loop_
_citation_id
_citation_journal_abbrev
_citation_year
_citation_journal_volume
_citation_journal_issue
_citation_page_first
_citation_page_last
_citation_journal_id_ASTM
primary Polyhedron 1995 14 23 3473 3480 PLYHDE
_publ_author_name
;
Adams, R.D.;Layland, R.C.;Payen, C.
;
_cell_length_a                     6.6203(8)
_cell_length_b                     6.6271(8)
_cell_length_c                     6.5809(6)
_cell_angle_alpha                  96.520(9)
_cell_angle_beta                   92.648(9)
_cell_angle_gamma                  65.943(8)
_cell_volume                       261.94
_cell_formula_units_Z              2
_symmetry_space_group_name_H-M     'P -1'
_symmetry_Int_Tables_number        2
_refine_ls_R_factor_all            .024
loop_
_symmetry_equiv_pos_site_id
_symmetry_equiv_pos_as_xyz
  1	'-x, -y, -z'
  2	'x, y, z'
loop_
_atom_type_symbol
_atom_type_oxidation_number
Ca2+	2
Mn2+	2
O2-	-2
P5+	5
loop_
_atom_site_label
_atom_site_type_symbol
_atom_site_symmetry_multiplicity
_atom_site_Wyckoff_symbol
_atom_site_fract_x
_atom_site_fract_y
_atom_site_fract_z
_atom_site_occupancy
_atom_site_attached_hydrogens
Ca1 Ca2+ 2 i 0.6924(1) 0.7648(1) -.3753(1) 1. 0 
Mn1 Mn2+ 2 i 0.73465(9) 0.39352(9) 0.14945(8) 1. 0 
P1 P5+ 2 i 1.1843(1) 0.1358(1) -.1307(1) 1. 0 
P2 P5+ 2 i 0.7628(1) 0.2650(1) -.3549(1) 1. 0 
O1 O2- 2 i 1.2422(4) 0.2876(4) -.2463(4) 1. 0 
O2 O2- 2 i 1.0918(4) 0.2430(4) 0.0807(3) 1. 0 
O3 O2- 2 i 1.3573(4) -.0995(4) -.1317(4) 1. 0 
O4 O2- 2 i 0.9821(4) 0.1009(4) -.2558(4) 1. 0 
O5 O2- 2 i 0.6456(4) 1.1205(4) -.4351(3) 1. 0 
O6 O2- 2 i 0.8218(4) 0.3767(4) 0.4822(4) 1. 0 
O7 O2- 2 i 0.6372(4) 0.4468(4) -.1848(4) 1. 0 

loop_
_atom_site_aniso_label
_atom_site_aniso_type_symbol
_atom_site_aniso_U_11
_atom_site_aniso_U_22
_atom_site_aniso_U_33
_atom_site_aniso_U_12
_atom_site_aniso_U_13
_atom_site_aniso_U_23
Ca1 Ca2+ 0.0153(9) 0.0086(9) 0.0100(4) -.0052(3) -.0037(3) 0.0019(3)
Mn1 Mn2+ 0.0118(3) 0.0131(3) 0.0113(3) -.0048(2) 0.0007(2) 0.0006(2)
P1 P5+ 0.0072(4) 0.0064(9) 0.0070(4) -.0015(3) 0.0011(3) 0.0007(3)
P2 P5+ 0.0076(5) 0.0061(4) 0.0072(4) -.0019(9) -.0005(3) 0.0008(3)
O1 O2- 0.011(1) 0.013(1) 0.011(1) -.007(1) 0.002(1) 0.002(1)
O2 O2- 0.013(1) 0.011(1) 0.008(1) -.001(1) 0.003(1) 0.000(1)
O3 O2- 0.009(1) 0.010(1) 0.012(1) 0.000(1) -.001(1) 0.001(1)
O4 O2- 0.007(1) 0.009(1) 0.017(1) -.003(1) -.005(1) 0.009(1)
O5 O2- 0.009(1) 0.009(1) 0.011(1) -.003(1) -.002(1) 0.001(1)
O6 O2- 0.026(1) 0.015(1) 0.009(1) -.013(1) -.002(1) 0.005(1)
O7 O2- 0.011(1) 0.011(1) 0.015(1) -.002(1) 0.002(1) -.005(1)
#End of data_78659-ICSD


