data_151877-ICSD
#?2014 by Fachinformationszentrum Karlsruhe, and the U.S. Secretary of 
#Commerce on behalf of the United States.  All rights reserved.
_database_code_ICSD                151877
_audit_creation_date               2006/10/01
_chemical_name_systematic
;
Potassium Trinitrato(V)dioxouranate
;
_chemical_formula_structural       'K (U O2 (N O3)3)'
_chemical_formula_sum              'K1 N3 O11 U1'
_publ_section_title
;
Crystal structure of K(U O2 (N O3)3) and some features of compounds M 
(U O2 (N O3)3) (M = K, Rb and Cs)
;
loop_
_citation_id
_citation_journal_abbrev
_citation_year
_citation_journal_volume
_citation_journal_issue
_citation_page_first
_citation_page_last
_citation_journal_id_ASTM
primary Radiokhimiya 2004 46 1 16 19 RADKAU
2 Radiochemistry 2004 46 1 16 19 RDIOEO
_publ_author_name                  'Krivovichev, S.V.;Burns, P.C.'
_cell_length_a                     13.4877(10)
_cell_length_b                     9.5843(7)
_cell_length_c                     7.9564(6)
_cell_angle_alpha                  90.
_cell_angle_beta                   116.124(2)
_cell_angle_gamma                  90.
_cell_volume                       923.45
_cell_formula_units_Z              4
_symmetry_space_group_name_H-M     'C 1 2/c 1'
_symmetry_Int_Tables_number        15
_refine_ls_R_factor_all            .037
loop_
_symmetry_equiv_pos_site_id
_symmetry_equiv_pos_as_xyz
  1	'x, -y, z+.5'
  2	'-x, -y, -z'
  3	'-x, y, -z+.5'
  4	'x, y, z'
  5	'x+.5, -y+.5, z+.5'
  6	'-x+.5, -y+.5, -z'
  7	'-x+.5, y+.5, -z+.5'
  8	'x+.5, y+.5, z'
loop_
_atom_type_symbol
_atom_type_oxidation_number
K1+	1
N5+	5
O2-	-2
U6+	6
loop_
_atom_site_label
_atom_site_type_symbol
_atom_site_symmetry_multiplicity
_atom_site_Wyckoff_symbol
_atom_site_fract_x
_atom_site_fract_y
_atom_site_fract_z
_atom_site_occupancy
_atom_site_attached_hydrogens
_atom_site_U_iso_or_equiv
U1 U6+ 4 e 0 0.76173(2) 0.250 1. 0 0.03365(12) 
K1 K1+ 4 d 0.750 0.750 0.5 1. 0 0.0527(5) 
N1 N5+ 8 f -0.1615(4) 0.9170(5) -0.0693(7) 1. 0 0.0425(10) 
N2 N5+ 4 e 0 0.4576(7) 0.250 1. 0 0.051(2) 
O1 O2- 8 f -0.0955(4) 0.7608(3) 0.3447(7) 1. 0 0.0442(9) 
O2 O2- 8 f -0.0952(4) 0.9771(4) 0.0820(6) 1. 0 0.0495(10) 
O3 O2- 8 f -0.1493(4) 0.7852(4) -0.0734(6) 1. 0 0.0492(10) 
O4 O2- 8 f -0.0698(4) 0.5289(4) 0.1156(6) 1. 0 0.0502(10) 
O5 O2- 8 f -0.2310(4) 0.9791(4) -0.1980(7) 1. 0 0.0591(12) 
O6 O2- 4 e 0 0.3320(6) 0.250 1. 0 0.074(2) 

loop_
_atom_site_aniso_label
_atom_site_aniso_type_symbol
_atom_site_aniso_U_11
_atom_site_aniso_U_22
_atom_site_aniso_U_33
_atom_site_aniso_U_12
_atom_site_aniso_U_13
_atom_site_aniso_U_23
U1 U6+ 0.0308(2) 0.0384(2) 0.0347(2) 0. 0.0171(1) 0.
K1 K1+ 0.0527(12) 0.0652(12) 0.050(1) -0.0073(8) 0.0315(10) -0.0036(8)
N1 N5+ 0.037(3) 0.051(3) 0.043(3) -0.003(2) 0.022(2) 0.003(2)
N2 N5+ 0.061(5) 0.052(4) 0.047(4) 0. 0.030(4) 0.
O1 O2- 0.039(2) 0.055(2) 0.047(2) -0.001(2) 0.026(2) -0.001(2)
O2 O2- 0.056(3) 0.048(2) 0.043(3) 0.003(2) 0.021(2) 0.003(2)
O3 O2- 0.046(3) 0.047(2) 0.048(3) 0.003(2) 0.015(2) -0.007(2)
O4 O2- 0.047(3) 0.052(2) 0.045(3) 0.001(2) 0.014(2) -0.005(2)
O5 O2- 0.043(3) 0.062(3) 0.060(3) 0.001(2) 0.013(2) 0.018(2)
O6 O2- 0.123(7) 0.036(5) 0.070(5) 0. 0.048(5) 0.
#End of data_151877-ICSD


