data_380287-ICSD
#?2014 by Fachinformationszentrum Karlsruhe, and the U.S. Secretary of 
#Commerce on behalf of the United States.  All rights reserved.
_database_code_ICSD                380287
_audit_creation_date               2010/02/01
_chemical_name_systematic
;
Silver Hexafluoroantimonate Sulfur Dioxide
;
_chemical_formula_structural       '(Ag (O S O)) (Sb F6)'
_chemical_formula_sum              'Ag1 F6 O2 S1 Sb1'
_publ_section_title
;
Silver(I) complexes of the weakly coordinating solvents S O2 and C H2 
Cl2; Crystal Structures, bonding, and energetics of [Ag (O S O)] [Al 
(O C(C F3)3)4], [Ag (O S O)2/2] [Sb F6], and [Ag (C H2 Cl2)2] [Sb F6]
;
loop_
_citation_id
_citation_journal_abbrev
_citation_year
_citation_journal_volume
_citation_journal_issue
_citation_page_first
_citation_page_last
_citation_journal_id_ASTM
primary 'Chemistry - A European Journal' 2009 15 26 6504 6517 CEUJED
_publ_author_name
;
Decken, A.;Knapp, C.;Nikiforov, G.B.;Passmore, J.;Rautiainen, 
J.M.;Wang Xinping;Zeng Xiaoqing
;
_cell_length_a                     7.560(2)
_cell_length_b                     8.167(3)
_cell_length_c                     11.097(4)
_cell_angle_alpha                  90.00
_cell_angle_beta                   90.807(4)
_cell_angle_gamma                  90.00
_cell_volume                       685.09
_cell_formula_units_Z              4
_symmetry_space_group_name_H-M     'P 1 21/n 1'
_symmetry_Int_Tables_number        14
_refine_ls_R_factor_all            .0407
loop_
_symmetry_equiv_pos_site_id
_symmetry_equiv_pos_as_xyz
  1	'-x+.5, y+.5, -z+.5'
  2	'-x, -y, -z'
  3	'x+.5, -y+.5, z+.5'
  4	'x, y, z'
loop_
_atom_type_symbol
_atom_type_oxidation_number
Ag1+	1
F1-	-1
O2-	-2
S4+	4
Sb5+	5
loop_
_atom_site_label
_atom_site_type_symbol
_atom_site_symmetry_multiplicity
_atom_site_Wyckoff_symbol
_atom_site_fract_x
_atom_site_fract_y
_atom_site_fract_z
_atom_site_occupancy
_atom_site_attached_hydrogens
_atom_site_U_iso_or_equiv
Ag1 Ag1+ 4 e -0.25775(9) 0.76020(6) 1.03386(5) 1 0 0.0212(2) 
S1 S4+ 4 e -0.2733(2) 0.9308(2) 0.72703(15) 1 0 0.0243(4) 
O1 O2- 4 e -0.2759(9) 0.9593(7) 0.8535(5) 1 0 0.0336(13) 
O2 O2- 4 e -0.2679(9) 1.0715(8) 0.6523(5) 1 0 0.0352(13) 
Sb1 Sb5+ 4 e 0.24427(6) 0.73943(5) 0.87622(4) 1 0 0.01687(19) 
F1 F1- 4 e 0.0726(7) 0.7761(6) 0.9938(4) 1 0 0.0295(10) 
F2 F1- 4 e 0.4108(6) 0.7032(6) 0.7557(4) 1 0 0.0290(9) 
F3 F1- 4 e 0.3064(7) 0.9622(5) 0.8816(4) 1 0 0.0306(10) 
F4 F1- 4 e 0.0768(7) 0.7798(6) 0.7526(4) 1 0 0.0277(10) 
F5 F1- 4 e 0.1826(6) 0.5157(5) 0.8773(4) 1 0 0.0294(10) 
F6 F1- 4 e 0.4176(6) 0.6976(6) 0.9955(4) 1 0 0.0292(9) 

loop_
_atom_site_aniso_label
_atom_site_aniso_type_symbol
_atom_site_aniso_U_11
_atom_site_aniso_U_22
_atom_site_aniso_U_33
_atom_site_aniso_U_12
_atom_site_aniso_U_13
_atom_site_aniso_U_23
Ag1 Ag1+ 0.0231(3) 0.0197(3) 0.0207(3) 0.00092(18) 0.0005(2) -0.00033(16)
S1 S4+ 0.0288(9) 0.0227(9) 0.0213(8) -0.0011(7) -0.0005(6) -0.0001(6)
O1 O2- 0.047(3) 0.031(3) 0.023(2) 0.004(3) 0.001(2) 0.000(2)
O2 O2- 0.047(3) 0.033(3) 0.026(3) 0.001(3) 0.000(2) 0.009(2)
Sb1 Sb5+ 0.0174(3) 0.0170(3) 0.0163(3) -0.00012(15) 0.0004(2) 0.00020(14)
F1 F1- 0.026(2) 0.038(3) 0.025(2) 0.0015(19) 0.0041(18) -0.0050(18)
F2 F1- 0.030(2) 0.033(2) 0.024(2) -0.002(2) 0.0078(18) -0.0015(19)
F3 F1- 0.045(3) 0.022(2) 0.025(2) -0.005(2) 0.0014(19) -0.0004(17)
F4 F1- 0.026(2) 0.033(2) 0.023(2) 0.0006(19) -0.0066(18) 0.0033(18)
F5 F1- 0.039(3) 0.022(2) 0.028(2) -0.0044(19) 0.0019(18) 0.0012(17)
F6 F1- 0.024(2) 0.039(3) 0.025(2) 0.002(2) -0.0051(17) 0.005(2)
#End of data_380287-ICSD


