data_9062-ICSD
#?2014 by Fachinformationszentrum Karlsruhe, and the U.S. Secretary of 
#Commerce on behalf of the United States.  All rights reserved.
_database_code_ICSD                9062
_audit_creation_date               1980/01/01
_audit_update_record               2007/04/01
_chemical_name_systematic
;
Calcium Hydrogenarsenate(V) Dihydrate
;
_chemical_formula_structural       'Ca (H As O4) (H2 O)2'
_chemical_formula_sum              'H5 As1 Ca1 O6'
_chemical_name_mineral             Pharmacolite
_publ_section_title
;
Determination of hydrogen atom positions in the crystal structure of 
pharmacolite, Ca H As O4 (H2 O)2, by neutron diffraction
;
loop_
_citation_id
_citation_journal_abbrev
_citation_year
_citation_journal_volume
_citation_page_first
_citation_page_last
_citation_journal_id_ASTM
primary 'Acta Crystallographica B (24,1968-38,1982)' 1971 27 349 354 ACBCAR
2 'Acta Crystallographica B (24,1968-38,1982)' 1969 25 1544 1550 ACBCAR
_publ_author_name
;
Ferraris, G.;Jones, D.W.;Yerkess, J.
;
_cell_length_a                     5.9745(5)
_cell_length_b                     15.4340(15)
_cell_length_c                     6.2797(6)
_cell_angle_alpha                  90.
_cell_angle_beta                   114.83(2)
_cell_angle_gamma                  90.
_cell_volume                       525.52
_cell_formula_units_Z              4
_symmetry_space_group_name_H-M     'I 1 a 1'
_symmetry_Int_Tables_number        9
_refine_ls_R_factor_all            .053
loop_
_symmetry_equiv_pos_site_id
_symmetry_equiv_pos_as_xyz
  1	'x+.5, -y, z'
  2	'x, y, z'
  3	'x, -y+.5, z+.5'
  4	'x+.5, y+.5, z+.5'
loop_
_atom_type_symbol
_atom_type_oxidation_number
As5+	5
Ca2+	2
H1+	1
O2-	-2
loop_
_atom_site_label
_atom_site_type_symbol
_atom_site_symmetry_multiplicity
_atom_site_Wyckoff_symbol
_atom_site_fract_x
_atom_site_fract_y
_atom_site_fract_z
_atom_site_occupancy
_atom_site_attached_hydrogens
H1 H1+ 4 a 0.1512(51) 0.3328(15) 0.3009(41) 1. 0 
H2 H1+ 4 a 0.1567(51) 0.9880(14) 0.2466(52) 1. 0 
H3 H1+ 4 a -.0196(50) 0.9137(15) 0.2459(48) 1. 0 
H4 H1+ 4 a 0.2643(68) 1.0075(17) 0.7800(53) 1. 0 
H5 H1+ 4 a 0.2536(58) 0.9348(20) 0.6202(51) 1. 0 
Ca1 Ca2+ 4 a 0.2605(8) 0.8262(1) 0.0093(8) 1. 0 
As1 As5+ 4 a 0.2532 0.32425(6) -.014 1. 0 
O1 O2- 4 a 0.2391(17) 0.3746(6) 0.2260(15) 1. 0 
O2 O2- 4 a 0.5340(15) 0.2786(5) 0.0991(16) 1. 0 
O3 O2- 4 a 0.1941(14) 0.3978(5) -.2238(14) 1. 0 
O4 O2- 4 a 0.0273(14) 0.2503(6) -.1177(16) 1. 0 
O5 O2- 4 a 0.1414(17) 0.9257(5) 0.2435(17) 1. 0 
O6 O2- 4 a 0.2671(20) 0.9456(5) 0.7685(18) 1. 0 

loop_
_atom_site_aniso_label
_atom_site_aniso_type_symbol
_atom_site_aniso_B_11
_atom_site_aniso_B_22
_atom_site_aniso_B_33
_atom_site_aniso_B_12
_atom_site_aniso_B_13
_atom_site_aniso_B_23
H1 H1+ 4.50(11) 2.(1) 2.5(1) -.4(9) 2.3(9) 0.4(8)
H2 H1+ 2.3(8) 1.4(9) 4.20(12) 0.1(8) 2.3(9) -.6(8)
H3 H1+ 3.40(11) 2.8(1) 3.2(1) 0.1(9) 2.6(8) 0.0(9)
H4 H1+ 5.30(15) 2.1(1) 2.70(13) 0.40(11) 1.60(12) 0.3(1)
H5 H1+ 4.40(12) 4.10(13) 3.1(1) -.30(11) 1.1(1) 0.6(1)
Ca1 Ca2+ 0.998(66) 0.772(60) 1.08(12) 0.06(13) 0.44(7) 0.06(12)
As1 As5+ 0.426(33) 0.495(36) 1.020(43) 0.052(78) 0.237(27) -.059(86)
O1 O2- 2.24(35) 0.81(33) 1.54(33) -.17(26) 1.08(28) -.27(24)
O2 O2- 0.60(28) 1.05(31) 1.56(31) -.03(26) -.05(25) -.38(30)
O3 O2- 1.28(29) 1.61(36) 1.46(35) 0.47(27) 0.60(24) 0.59(29)
O4 O2- 0.57(29) 0.93(29) 1.38(32) 0.05(22) 0.19(25) 0.23(24)
O5 O2- 1.96(36) 1.11(32) 2.67(40) -.11(26) 1.58(32) -.66(27)
O6 O2- 3.08(40) 1.31(30) 2.61(40) -.12(30) 1.74(35) 0.25(31)
#End of data_9062-ICSD


