data_187931-ICSD
#?2014 by Fachinformationszentrum Karlsruhe, and the U.S. Secretary of 
#Commerce on behalf of the United States.  All rights reserved.
_database_code_ICSD                187931
_audit_creation_date               2013/08/01
_chemical_name_systematic          'Dicalcium Magnesium Disilicate'
_chemical_formula_structural       'Ca2 Mg (Si2 O7)'
_chemical_formula_sum              'Ca2 Mg1 O7 Si2'
_chemical_name_mineral             Akermanite
_publ_section_title
;
Distribution of cations at two tetrahedral sites in Ca2 Mg Si2 O7 - 
Ca2 Fe(3+) Al Si O7 series synthetic melilite and its relation to 
incommensurate structure
;
loop_
_citation_id
_citation_journal_abbrev
_citation_year
_citation_journal_volume
_citation_journal_issue
_citation_page_first
_citation_page_last
_citation_journal_id_ASTM
primary 'Physics and Chemistry of Minerals' 2013 40 3 259 270 PCMIDU
_publ_author_name                  'Hamada, Maki;Akasaka, Masahide'
_cell_length_a                     7.8330(2)
_cell_length_b                     7.8330(2)
_cell_length_c                     5.0075(2)
_cell_angle_alpha                  90.
_cell_angle_beta                   90.
_cell_angle_gamma                  90.
_cell_volume                       307.24
_cell_formula_units_Z              2
_symmetry_space_group_name_H-M     'P -4 21 m'
_symmetry_Int_Tables_number        113
_refine_ls_R_factor_all            .0346
loop_
_symmetry_equiv_pos_site_id
_symmetry_equiv_pos_as_xyz
  1	'-y+.5, -x+.5, z'
  2	'y, -x, -z'
  3	'y+.5, x+.5, z'
  4	'-y, x, -z'
  5	'x+.5, -y+.5, -z'
  6	'-x, -y, z'
  7	'-x+.5, y+.5, -z'
  8	'x, y, z'
loop_
_atom_type_symbol
_atom_type_oxidation_number
Ca2+	2
Mg2+	2
O2-	-2
Si4+	4
loop_
_atom_site_label
_atom_site_type_symbol
_atom_site_symmetry_multiplicity
_atom_site_Wyckoff_symbol
_atom_site_fract_x
_atom_site_fract_y
_atom_site_fract_z
_atom_site_occupancy
_atom_site_attached_hydrogens
_atom_site_B_iso_or_equiv
Ca1 Ca2+ 4 e 0.3320(2) 0.1680(2) 0.5062(3) 1. 0 1.7(3) 
Mg1 Mg2+ 2 a 0 0 0 1. 0 0.7(3) 
Si1 Si4+ 4 e 0.1413(2) 0.3587(2) 0.9340(4) 1. 0 1.2(3) 
O1 O2- 2 c 0.5 0 0.177(1) 1. 0 0.7(3) 
O2 O2- 4 e 0.1421(5) 0.3579(5) 0.2567(8) 1. 0 1.3(3) 
O3 O2- 8 f 0.0815(4) 0.1839(5) 0.7902(8) 1. 0 1.1(3) 

#End of data_187931-ICSD


