data_405192-ICSD
#?2014 by Fachinformationszentrum Karlsruhe, and the U.S. Secretary of 
#Commerce on behalf of the United States.  All rights reserved.
_database_code_ICSD                405192
_audit_creation_date               1997/11/10
_audit_update_record               2008/02/01
_chemical_name_systematic
;
Dicalcium Hexathio-duo-diphosphate(IV)
;
_chemical_formula_structural       'Ca2 (P2 S6)'
_chemical_formula_sum              'Ca2 P2 S6'
_publ_section_title
;
Kristallstruktur und Eigenschaften von Calcium- und Strontium- 
hexathiodiphosphat(IV), Ca2 P2 S6 und Sr2 P2 S6, mit einem Beitrag zu 
Ca5 P8 und Pb2 P2 S6
;
loop_
_citation_id
_citation_journal_abbrev
_citation_year
_citation_journal_volume
_citation_page_first
_citation_page_last
_citation_journal_id_ASTM
primary 'Zeitschrift fuer Anorganische und Allgemeine Chemie (1950) (DE)'
 1996 622 1495 1500 ZAACAB
_publ_author_name                  'Hadenfeldt, C.;Hoedel, D.'
_cell_length_a                     6.532(2)
_cell_length_b                     7.281(2)
_cell_length_c                     11.101(4)
_cell_angle_alpha                  90.
_cell_angle_beta                   124.00(4)
_cell_angle_gamma                  90.
_cell_volume                       437.7
_cell_formula_units_Z              2
_symmetry_space_group_name_H-M     'P 1 21/c 1'
_symmetry_Int_Tables_number        14
_refine_ls_R_factor_all            .1952
loop_
_symmetry_equiv_pos_site_id
_symmetry_equiv_pos_as_xyz
  1	'x, -y+.5, z+.5'
  2	'-x, -y, -z'
  3	'-x, y+.5, -z+.5'
  4	'x, y, z'
loop_
_atom_type_symbol
_atom_type_oxidation_number
Ca2+	2
P4+	4
S2-	-2
loop_
_atom_site_label
_atom_site_type_symbol
_atom_site_symmetry_multiplicity
_atom_site_Wyckoff_symbol
_atom_site_fract_x
_atom_site_fract_y
_atom_site_fract_z
_atom_site_occupancy
_atom_site_attached_hydrogens
Ca1 Ca2+ 4 e 0.2878(3) 0.1172(3) 0.7480(2) 1. 0 
P1 P4+ 4 e 0.6341(4) 0.1089(3) 0.5659(2) 1. 0 
S1 S2- 4 e 0.8800(4) -.0054(3) 0.7597(2) 1. 0 
S2 S2- 4 e 0.7768(4) 0.1953(3) 0.4542(2) 1. 0 
S3 S2- 4 e 0.4154(4) 0.3068(3) 0.5661(2) 1. 0 

loop_
_atom_site_aniso_label
_atom_site_aniso_type_symbol
_atom_site_aniso_U_11
_atom_site_aniso_U_22
_atom_site_aniso_U_33
_atom_site_aniso_U_12
_atom_site_aniso_U_13
_atom_site_aniso_U_23
Ca1 Ca2+ 0.0141(8) 0.0142(8) 0.0178(8) -.0009(6) 0.0084(7) -.0008(6)
P1 P4+ 0.0099(8) 0.0095(9) 0.0064(8) -.0010(7) 0.0035(7) 0.0009(7)
S1 S2- 0.0114(9) 0.0148(9) 0.0082(8) -.0015(7) 0.0013(7) 0.0024(7)
S2 S2- 0.0149(10) 0.0158(10) 0.0130(9) -.0027(7) 0.0095(8) -.0009(7)
S3 S2- 0.0125(9) 0.0113(9) 0.0133(9) 0.0005(7) 0.0067(7) -.0008(7)
#End of data_405192-ICSD


