data_245327-ICSD
#?2014 by Fachinformationszentrum Karlsruhe, and the U.S. Secretary of 
#Commerce on behalf of the United States.  All rights reserved.
_database_code_ICSD                245327
_audit_creation_date               2008/02/01
_chemical_name_systematic          'Dipotassium Uranyl Diarsenate'
_chemical_formula_structural       'K2 ((U O2) As2 O7)'
_chemical_formula_sum              'As2 K2 O9 U1'
_publ_section_title
;
K2 [(U O2) As2 O7] - the first uranium polyarsenate
;
loop_
_citation_id
_citation_journal_abbrev
_citation_year
_citation_journal_volume
_citation_journal_issue
_citation_page_first
_citation_page_last
_citation_journal_id_ASTM
primary 'Zeitschrift fuer Anorganische und Allgemeine Chemie (1950) (DE)'
 2007 633 8 1125 1126 ZAACAB
_publ_author_name
;
Alekseev, E.S.;Krivovichev, S.V.;Depmeier, W.
;
_cell_length_a                     12.601(2)
_cell_length_b                     13.242(2)
_cell_length_c                     5.621(1)
_cell_angle_alpha                  90.
_cell_angle_beta                   90.
_cell_angle_gamma                  90.
_cell_volume                       937.93
_cell_formula_units_Z              4
_symmetry_space_group_name_H-M     'P m m n Z'
_symmetry_Int_Tables_number        59
_refine_ls_R_factor_all            .049
loop_
_symmetry_equiv_pos_site_id
_symmetry_equiv_pos_as_xyz
  1	'x+.5, y+.5, -z'
  2	'-x, y+.5, -z'
  3	'x+.5, -y, -z'
  4	'-x, -y, -z'
  5	'-x+.5, -y+.5, z'
  6	'x, -y+.5, z'
  7	'-x+.5, y, z'
  8	'x, y, z'
loop_
_atom_type_symbol
_atom_type_oxidation_number
As5+	5
K1+	1
O2-	-2
U6+	6
loop_
_atom_site_label
_atom_site_type_symbol
_atom_site_symmetry_multiplicity
_atom_site_Wyckoff_symbol
_atom_site_fract_x
_atom_site_fract_y
_atom_site_fract_z
_atom_site_occupancy
_atom_site_attached_hydrogens
_atom_site_U_iso_or_equiv
U1 U6+ 4 c 0.5 0.5 0 1. 0 0.0228(2) 
As1 As5+ 4 f 0.36915(11) 0.25 0.0238(2) 1. 0 0.0241(3) 
As2 As5+ 4 e 0.75 0.37738(11) 0.0058(2) 1. 0 0.0238(3) 
K1 K1+ 4 f 0.5806(3) 0.25 0.4943(5) 1. 0 0.0341(7) 
K2 K1+ 4 e 0.75 0.5785(3) 0.4849(6) 1. 0 0.0427(9) 
O1 O2- 4 e 0.75 0.3749(8) -0.2844(17) 1. 0 0.031(2) 
O2 O2- 4 f 0.3646(8) 0.25 -0.2687(19) 1. 0 0.037(2) 
O3 O2- 8 g 0.4834(6) 0.5654(6) 0.2758(12) 1. 0 0.032(2) 
O4 O2- 8 g 0.6488(6) 0.4319(8) 0.1380(13) 1. 0 0.048(2) 
O5 O2- 2 b 0.75 0.25 0.130(3) 1. 0 0.062(6) 
O6 O2- 8 g 0.4194(8) 0.3568(7) 0.1560(14) 1. 0 0.054(3) 
O7 O2- 2 a 0.25 0.25 0.156(3) 1. 0 0.066(7) 

#End of data_245327-ICSD


