data_423274-ICSD
#?2014 by Fachinformationszentrum Karlsruhe, and the U.S. Secretary of 
#Commerce on behalf of the United States.  All rights reserved.
_database_code_ICSD                423274
_audit_creation_date               2013/08/01
_chemical_name_systematic
;
Potassium Sodium Niobium Oxide Pentafluoride
;
_chemical_formula_structural       'K Na (Nb O F5)'
_chemical_formula_sum              'F5 K1 Na1 Nb1 O1'
_publ_section_title
;
Polymorphism of K Na Nb O F5 crystals
;
loop_
_citation_id
_citation_journal_abbrev
_citation_year
_citation_journal_volume
_citation_journal_issue
_citation_page_first
_citation_page_last
_citation_journal_id_ASTM
primary 'Zhurnal Strukturnoi Khimii (Issue-No. from 1981)'
 2012 53 5 922 926 ZSTKAI
2 'Journal of Structural Chemistry (USSR) (= Zhurnal Strukturnoi Khimii)'
 2012 53 5 902 906 JSTCAM
_publ_author_name                  'Vasiliev, A.D.;Laptash, N.M.'
_cell_length_a                     5.9352(2)
_cell_length_b                     5.9352(2)
_cell_length_c                     8.5487(5)
_cell_angle_alpha                  90.
_cell_angle_beta                   90.
_cell_angle_gamma                  90.
_cell_volume                       301.14
_cell_formula_units_Z              2
_symmetry_space_group_name_H-M     'P 4/n m m Z'
_symmetry_Int_Tables_number        129
_refine_ls_R_factor_all            .0095
loop_
_symmetry_equiv_pos_site_id
_symmetry_equiv_pos_as_xyz
  1	'y+.5, x+.5, -z'
  2	'-y, x+.5, -z'
  3	'y+.5, -x, -z'
  4	'-y, -x, -z'
  5	'x+.5, y+.5, -z'
  6	'-x, y+.5, -z'
  7	'x+.5, -y, -z'
  8	'-x, -y, -z'
  9	'-y+.5, -x+.5, z'
 10	'y, -x+.5, z'
 11	'-y+.5, x, z'
 12	'y, x, z'
 13	'-x+.5, -y+.5, z'
 14	'x, -y+.5, z'
 15	'-x+.5, y, z'
 16	'x, y, z'
loop_
_atom_type_symbol
_atom_type_oxidation_number
F1-	-1
K1+	1
Na1+	1
Nb5+	5
O2-	-2
loop_
_atom_site_label
_atom_site_type_symbol
_atom_site_symmetry_multiplicity
_atom_site_Wyckoff_symbol
_atom_site_fract_x
_atom_site_fract_y
_atom_site_fract_z
_atom_site_occupancy
_atom_site_attached_hydrogens
_atom_site_U_iso_or_equiv
Nb1 Nb5+ 2 c 0.2500 0.2500 0.73505(2) 1 0 0.01455(10) 
K1 K1+ 2 a 0.7500 0.2500 1.0000 1 0 0.02400(15) 
Na1 Na1+ 2 c 0.2500 0.2500 0.26597(11) 1 0 0.0180(2) 
F1 F1- 2 c 0.2500 0.2500 0.98653(18) 1 0 0.0289(4) 
F2 F1- 8 j 0.47945(11) 0.02055(11) 0.77185(10) 1 0 0.0303(2) 
O1 O2- 2 c 0.2500 0.2500 0.5351(2) 1 0 0.0352(5) 

loop_
_atom_site_aniso_label
_atom_site_aniso_type_symbol
_atom_site_aniso_U_11
_atom_site_aniso_U_22
_atom_site_aniso_U_33
_atom_site_aniso_U_12
_atom_site_aniso_U_13
_atom_site_aniso_U_23
Nb1 Nb5+ 0.01469(11) 0.01469(11) 0.01425(13) 0.000 0.000 0.000
K1 K1+ 0.0249(2) 0.0249(2) 0.0223(3) 0.000 0.000 0.000
Na1 Na1+ 0.0181(3) 0.0181(3) 0.0178(5) 0.000 0.000 0.000
F1 F1- 0.0361(6) 0.0361(6) 0.0145(7) 0.000 0.000 0.000
F2 F1- 0.0268(3) 0.0268(3) 0.0372(4) 0.0115(4) 0.0007(2) -0.0007(2)
O1 O2- 0.0448(9) 0.0448(9) 0.0160(9) 0.000 0.000 0.000
#End of data_423274-ICSD


