data_190436-ICSD
#?2014 by Fachinformationszentrum Karlsruhe, and the U.S. Secretary of 
#Commerce on behalf of the United States.  All rights reserved.
_database_code_ICSD                190436
_audit_creation_date               2014/08/01
_chemical_name_systematic
;
Pentasodium Europium Tetratungstate
;
_chemical_formula_structural       'Na5 Eu (W O4)4'
_chemical_formula_sum              'Eu1 Na5 O16 W4'
_publ_section_title
;
Synthesis and luminescent properties of Na5 Lax M1-x (W O4)4 (M = Eu, 
Sm, Bi) red phosphors for WLED
;
loop_
_citation_id
_citation_journal_abbrev
_citation_year
_citation_journal_volume
_citation_page_first
_citation_page_last
_citation_journal_id_ASTM
primary 'Advanced Materials Research' 2013 624 244 247 AMREFI
_publ_author_name
;
Huang, Decai;Zhou, Youfu;Xu, Wentao;Yang, Zhangfu;Hong, Maochun;Lin, 
Yuanhua;Yu, Jianchang
;
_cell_length_a                     11.50786(21)
_cell_length_b                     11.50786(21)
_cell_length_c                     11.40645(24)
_cell_angle_alpha                  90.
_cell_angle_beta                   90.
_cell_angle_gamma                  90.
_cell_volume                       1510.57
_cell_formula_units_Z              4
_symmetry_space_group_name_H-M     'I 41/a Z'
_symmetry_Int_Tables_number        88
_refine_ls_R_factor_all            .0459
loop_
_symmetry_equiv_pos_site_id
_symmetry_equiv_pos_as_xyz
  1	'-y+.75, x+.75, -z+.75'
  2	'y+.25, -x+.75, -z+.75'
  3	'x, y+.5, -z'
  4	'-x, -y, -z'
  5	'y+.25, -x+.25, z+.25'
  6	'-y+.75, x+.25, z+.25'
  7	'-x, -y+.5, z'
  8	'x, y, z'
  9	'-y+.25, x+.25, -z+.25'
 10	'y+.75, -x+.25, -z+.25'
 11	'x+.5, y, -z+.5'
 12	'-x+.5, -y+.5, -z+.5'
 13	'y+.75, -x+.75, z+.75'
 14	'-y+.25, x+.75, z+.75'
 15	'-x+.5, -y, z+.5'
 16	'x+.5, y+.5, z+.5'
loop_
_atom_type_symbol
_atom_type_oxidation_number
Eu3+	3
Na1+	1
O2-	-2
W6+	6
loop_
_atom_site_label
_atom_site_type_symbol
_atom_site_symmetry_multiplicity
_atom_site_Wyckoff_symbol
_atom_site_fract_x
_atom_site_fract_y
_atom_site_fract_z
_atom_site_occupancy
_atom_site_attached_hydrogens
_atom_site_U_iso_or_equiv
Na1 Na1+ 4 b 0 0.250 0.625 1. 0 0.0340 
Na2 Na1+ 16 f 0.1332(13) 0.0464(14) 0.3454(14) 1. 0 0.0341 
Eu1 Eu3+ 4 a 0 0.250 0.125 1. 0 0.0462 
W1 W6+ 16 f 0.1828(14) 0.3435(21) 0.3881(16) 1. 0 0.0431 
O1 O2- 16 f 0.2387(25) 0.5724(18) 0.4687(14) 1. 0 0.0314 
O2 O2- 16 f 0.1561(17) 0.2587(21) 0.4992(27) 1. 0 0.0312 
O3 O2- 16 f 0.0758(24) 0.3561(12) 0.3037(21) 1. 0 0.0310 
O4 O2- 16 f 0.3457(21) 0.3258(18) 0.3078(19) 1. 0 0.0302 

#End of data_190436-ICSD


