data_260974-ICSD
#?2014 by Fachinformationszentrum Karlsruhe, and the U.S. Secretary of 
#Commerce on behalf of the United States.  All rights reserved.
_database_code_ICSD                260974
_audit_creation_date               2011/02/01
_chemical_name_systematic          'Silver Zinc Orthophosphate'
_chemical_formula_structural       'Ag Zn (P O4)'
_chemical_formula_sum              'Ag1 O4 P1 Zn1'
_publ_section_title
;
The gamma-polymorph of Ag Zn PO4 with an ABW zeolite-type framework 
topology
;
loop_
_citation_id
_citation_journal_abbrev
_citation_year
_citation_journal_volume
_citation_journal_issue
_citation_page_first
_citation_page_last
_citation_journal_id_ASTM
primary 'Acta Crystallographica, Section E. Structure Reports Online'
 2010 66 11 i74 i74 ACSEBH
_publ_author_name                  'Assani, A.;Saadi, M.;El Ammari, L.'
_cell_length_a                     5.1664(2)
_cell_length_b                     10.4183(3)
_cell_length_c                     7.3263(2)
_cell_angle_alpha                  90.00
_cell_angle_beta                   90.304(2)
_cell_angle_gamma                  90.00
_cell_volume                       394.33
_cell_formula_units_Z              4
_symmetry_space_group_name_H-M     'P 1 21/n 1'
_symmetry_Int_Tables_number        14
_refine_ls_R_factor_all            .0187
loop_
_symmetry_equiv_pos_site_id
_symmetry_equiv_pos_as_xyz
  1	'-x+.5, y+.5, -z+.5'
  2	'-x, -y, -z'
  3	'x+.5, -y+.5, z+.5'
  4	'x, y, z'
loop_
_atom_type_symbol
_atom_type_oxidation_number
Ag1+	1
O2-	-2
P5+	5
Zn2+	2
loop_
_atom_site_label
_atom_site_type_symbol
_atom_site_symmetry_multiplicity
_atom_site_Wyckoff_symbol
_atom_site_fract_x
_atom_site_fract_y
_atom_site_fract_z
_atom_site_occupancy
_atom_site_attached_hydrogens
_atom_site_U_iso_or_equiv
Ag1 Ag1+ 4 e 0.20254(3) 0.891281(15) 0.021499(19) 1 0 0.01931(6) 
Zn1 Zn2+ 4 e 0.19054(4) 0.840764(19) 0.52546(3) 1 0 0.01037(6) 
P1 P5+ 4 e 0.69041(8) 0.89550(4) 0.29147(6) 1 0 0.00877(8) 
O1 O2- 4 e 0.3966(2) 0.87815(14) 0.31182(18) 1 0 0.0159(2) 
O2 O2- 4 e 0.7616(3) 1.03856(12) 0.27484(18) 1 0 0.0161(2) 
O3 O2- 4 e 0.8268(3) 0.83575(14) 0.45641(19) 1 0 0.0166(2) 
O4 O2- 4 e 0.7730(3) 0.83197(12) 0.11089(18) 1 0 0.0155(2) 

loop_
_atom_site_aniso_label
_atom_site_aniso_type_symbol
_atom_site_aniso_U_11
_atom_site_aniso_U_22
_atom_site_aniso_U_33
_atom_site_aniso_U_12
_atom_site_aniso_U_13
_atom_site_aniso_U_23
Ag1 Ag1+ 0.02148(8) 0.02283(8) 0.01363(8) 0.00195(5) 0.00071(5) 0.00377(5)
Zn1 Zn2+ 0.01202(9) 0.00970(9) 0.00939(9) -0.00034(6) -0.00004(6) 
0.00058(6)
P1 P5+ 0.00988(16) 0.00839(16) 0.00805(16) -0.00085(12) 0.00051(12) 
0.00001(12)
O1 O2- 0.0099(5) 0.0272(7) 0.0107(5) -0.0013(5) 0.0007(4) 0.0032(5)
O2 O2- 0.0289(7) 0.0083(5) 0.0110(5) -0.0043(5) 0.0007(5) -0.0006(4)
O3 O2- 0.0139(5) 0.0184(6) 0.0176(6) -0.0014(4) -0.0044(4) 0.0069(5)
O4 O2- 0.0189(6) 0.0130(5) 0.0147(6) -0.0045(4) 0.0059(5) -0.0055(4)
#End of data_260974-ICSD


