data_31930-ICSD
#?2014 by Fachinformationszentrum Karlsruhe, and the U.S. Secretary of 
#Commerce on behalf of the United States.  All rights reserved.
_database_code_ICSD                31930
_audit_creation_date               1980/01/01
_audit_update_record               2010/02/01
_chemical_name_systematic          'Lithium Triniobium Oxide'
_chemical_formula_structural       'Li Nb3 O8'
_chemical_formula_sum              'Li1 Nb3 O8'
_publ_section_title                'The crystal structure of Li Nb3 O8'
loop_
_citation_id
_citation_journal_abbrev
_citation_year
_citation_journal_volume
_citation_page_first
_citation_page_last
_citation_journal_id_ASTM
primary 'Acta Chemica Scandinavica (1-27,1973-42,1988)' 1971 25 3337 3346 ACSAA4
_publ_author_name                  'Lundberg, M.'
_cell_length_a                     15.262(2)
_cell_length_b                     5.033(1)
_cell_length_c                     7.457(1)
_cell_angle_alpha                  90.
_cell_angle_beta                   107.34(1)
_cell_angle_gamma                  90.
_cell_volume                       546.77
_cell_formula_units_Z              4
_symmetry_space_group_name_H-M     'P 1 21/a 1'
_symmetry_Int_Tables_number        14
_refine_ls_R_factor_all            .042
loop_
_symmetry_equiv_pos_site_id
_symmetry_equiv_pos_as_xyz
  1	'x+.5, -y+.5, z'
  2	'-x, -y, -z'
  3	'-x+.5, y+.5, -z'
  4	'x, y, z'
loop_
_atom_type_symbol
_atom_type_oxidation_number
Li1+	1
Nb5+	5
O2-	-2
loop_
_atom_site_label
_atom_site_type_symbol
_atom_site_symmetry_multiplicity
_atom_site_Wyckoff_symbol
_atom_site_fract_x
_atom_site_fract_y
_atom_site_fract_z
_atom_site_occupancy
_atom_site_attached_hydrogens
_atom_site_B_iso_or_equiv
Nb1 Nb5+ 4 e 0.16852(5) 0.26959(27) 0.00831(10) 1. 0 0.402 
Nb2 Nb5+ 4 e 0.07508(5) 0.75486(30) 0.24924(11) 1. 0 0.433 
Nb3 Nb5+ 4 e 0.16458(5) 0.25757(27) 0.51674(10) 1. 0 0.396 
Li1 Li1+ 4 e 0.4201(14) 0.2673(80) 0.2597(29) 1. 0 2.27 
O1 O2- 4 e 0.2817(5) 0.4326(15) 0.0846(11) 1. 0 0.84 
O2 O2- 4 e 0.1558(5) 0.4000(15) 0.7354(10) 1. 0 0.77 
O3 O2- 4 e 0.2157(5) 0.5886(16) 0.4148(11) 1. 0 0.92 
O4 O2- 4 e 0.0389(5) 0.1077(15) 0.8551(11) 1. 0 0.75 
O5 O2- 4 e 0.0989(5) 0.9402(15) 0.5005(10) 1. 0 0.58 
O6 O2- 4 e 0.0485(5) 0.4387(15) 0.3528(10) 1. 0 0.62 
O7 O2- 4 e 0.1006(5) 0.5796(15) 0.0375(11) 1. 0 0.71 
O8 O2- 4 e 0.1551(5) 0.0855(15) 0.2225(11) 1. 0 0.72 

#End of data_31930-ICSD


