data_95895-ICSD
#?2014 by Fachinformationszentrum Karlsruhe, and the U.S. Secretary of 
#Commerce on behalf of the United States.  All rights reserved.
_database_code_ICSD                95895
_audit_creation_date               2004/04/01
_chemical_name_systematic
;
Nonapotassium Tetrabismuthate(III) Bismuthate
;
_chemical_formula_structural       'K9 (Bi4 O9) (Bi O4)'
_chemical_formula_sum              'Bi5 K9 O13'
_publ_section_title
;
Die neuen Oxobismutate(III) Cs6 Bi4 O9, K9 Bi5 O13 und A2 Bi4 O7 (A= 
Rb, Cs)
;
loop_
_citation_id
_citation_journal_abbrev
_citation_year
_citation_journal_volume
_citation_page_first
_citation_page_last
_citation_journal_id_ASTM
primary 'Zeitschrift fuer Naturforschung, B: Chemical Sciences'
 2002 57 1090 1100 ZNBSEN
_publ_author_name                  'Emmerling, F.;Roehr, C.'
_cell_length_a                     15.0998(14)
_cell_length_b                     5.6759(5)
_cell_length_c                     26.856(2)
_cell_angle_alpha                  90
_cell_angle_beta                   111.190(2)
_cell_angle_gamma                  90
_cell_volume                       2146.07
_cell_formula_units_Z              4
_symmetry_space_group_name_H-M     'P 1 21/c 1'
_symmetry_Int_Tables_number        14
_refine_ls_R_factor_all            .0395
loop_
_symmetry_equiv_pos_site_id
_symmetry_equiv_pos_as_xyz
  1	'x, -y+.5, z+.5'
  2	'-x, -y, -z'
  3	'-x, y+.5, -z+.5'
  4	'x, y, z'
loop_
_atom_type_symbol
_atom_type_oxidation_number
Bi3+	3
Bi5+	5
K1+	1
O2-	-2
loop_
_atom_site_label
_atom_site_type_symbol
_atom_site_symmetry_multiplicity
_atom_site_Wyckoff_symbol
_atom_site_fract_x
_atom_site_fract_y
_atom_site_fract_z
_atom_site_occupancy
_atom_site_attached_hydrogens
_atom_site_U_iso_or_equiv
K1 K1+ 4 e 0.8048(2) 0.2453(7) 0.00276(14) 1. 0 0.0192(8) 
K2 K1+ 4 e 0.3566(3) 0.2545(7) 0.05942(14) 1. 0 0.0224(8) 
K3 K1+ 4 e 0.5273(3) 0.2399(6) 0.19880(14) 1. 0 0.0209(8) 
K4 K1+ 4 e 0.4420(2) 0.2662(6) 0.38631(13) 1. 0 0.0173(8) 
K5 K1+ 4 e 0.0858(2) 0.2561(6) 0.28211(13) 1. 0 0.0151(7) 
K6 K1+ 4 e 0.1710(3) 0.1840(7) 0.10117(16) 1. 0 0.0232(8) 
K7 K1+ 4 e 0.2319(2) 0.2541(6) 0.41799(14) 1. 0 0.0152(7) 
K8 K1+ 4 e 0.2982(2) 0.2512(7) 0.24062(14) 1. 0 0.0198(8) 
K9 K1+ 4 e 0.1231(2) 0.7316(7) 0.19826(15) 1. 0 0.0198(8) 
Bi1 Bi3+ 4 e 0.57742(4) 0.27382(10) 0.03045(2) 1. 0 0.0109(1) 
Bi2 Bi3+ 4 e 0.74057(4) 0.25036(10) 0.16248(2) 1. 0 0.0111(1) 
Bi3 Bi3+ 4 e 0.04004(4) 0.75326(10) 0.36511(2) 1. 0 0.0104(1) 
Bi4 Bi3+ 4 e 0.02253(4) 0.20473(10) 0.45795(2) 1. 0 0.0115(2) 
O1 O2- 4 e 0.4142(7) 0.1305(18) 0.4774(4) 1. 0 0.0146(25) 
O2 O2- 4 e 0.5526(7) 0.2676(19) 0.1008(4) 1. 0 0.0177(25) 
O3 O2- 4 e 0.7365(7) 0.2602(18) 0.0841(4) 1. 0 0.0125(22) 
O4 O2- 4 e 0.2662(8) 0.4038(18) 0.3295(4) 1. 0 0.0155(25) 
O5 O2- 4 e 0.1017(7) 0.7655(19) 0.3025(4) 1. 0 0.0137(23) 
O6 O2- 4 e 0.0964(7) 0.2328(19) 0.1849(4) 1. 0 0.0169(25) 
O7 O2- 4 e 0.0448(7) 0.1177(18) 0.3767(4) 1. 0 0.0138(24) 
O8 O2- 4 e 0.1620(7) 0.2404(19) 0.4983(4) 1. 0 0.0163(24) 
O9 O2- 4 e 0.0086(7) 0.8413(18) 0.4619(4) 1. 0 0.0147(24) 
Bi5 Bi5+ 4 e 0.63663(4) 0.20358(11) 0.33800(2) 1. 0 0.0159(2) 
O10 O2- 4 e 0.4970(7) 0.2544(18) 0.3004(4) 1. 0 0.0184(26) 
O11 O2- 4 e 0.3429(8) 0.3582(19) 0.1543(5) 1. 0 0.0211(28) 
O12 O2- 4 e 0.7000(8) 0.297(2) 0.2888(5) 1. 0 0.0361(35) 
O13 O2- 4 e 0.6801(12) 0.331(3) 0.4110(6) 1. 0 0.0661(54) 

#End of data_95895-ICSD


