data_39842-ICSD
#?2014 by Fachinformationszentrum Karlsruhe, and the U.S. Secretary of 
#Commerce on behalf of the United States.  All rights reserved.
_database_code_ICSD                39842
_audit_creation_date               1995/10/17
_audit_update_record               2005/10/01
_chemical_name_systematic
;
Tetrapotassium Hexanitroruthenate(II)
;
_chemical_formula_structural       'K4 (Ru (N O2)6)'
_chemical_formula_sum              'K4 N6 O12 Ru1'
_publ_section_title
;
Synthesis and crystal structure of lithium and potassium 
hexanitroruthenates(II)
;
loop_
_citation_id
_citation_journal_abbrev
_citation_year
_citation_journal_volume
_citation_journal_issue
_citation_page_first
_citation_page_last
_citation_journal_id_ASTM
primary 'Zhurnal Strukturnoi Khimii (Issue-No. from 1981)'
 1994 35 5 171 177 ZSTKAI
_publ_author_name
;
Gromilov, S.A.;Emel'yanov, V.A.;Baidina, I.A.;Alekseev, V.I.;Belyaev, 
A.V.
;
_cell_length_a                     8.595(1)
_cell_length_b                     8.595(1)
_cell_length_c                     8.595(1)
_cell_angle_alpha                  52.23(2)
_cell_angle_beta                   52.23(2)
_cell_angle_gamma                  52.23(2)
_cell_volume                       367.01
_cell_formula_units_Z              1
_symmetry_space_group_name_H-M     'R -3 R'
_symmetry_Int_Tables_number        148
_refine_ls_R_factor_all            .032
loop_
_symmetry_equiv_pos_site_id
_symmetry_equiv_pos_as_xyz
  1	'-z, -x, -y'
  2	'-y, -z, -x'
  3	'-x, -y, -z'
  4	'z, x, y'
  5	'y, z, x'
  6	'x, y, z'
loop_
_atom_type_symbol
_atom_type_oxidation_number
K1+	1
N3+	3
O2-	-2
Ru2+	2
loop_
_atom_site_label
_atom_site_type_symbol
_atom_site_symmetry_multiplicity
_atom_site_Wyckoff_symbol
_atom_site_fract_x
_atom_site_fract_y
_atom_site_fract_z
_atom_site_occupancy
_atom_site_attached_hydrogens
_atom_site_U_iso_or_equiv
Ru1 Ru2+ 1 a 0 0 0 1. 0 0.015(2) 
K1 K1+ 2 c 0.1929(1) 0.1929(1) 0.1929(1) 1. 0 0.027(2) 
K2 K1+ 2 c 0.3806(1) 0.3806(1) 0.3806(1) 1. 0 0.049(2) 
N1 N3+ 6 f -.0738(5) -.0712(4) 0.3080(4) 1. 0 0.022(2) 
O1 O2- 6 f -.2591(5) -.0450(6) 0.4426(4) 1. 0 0.036(2) 
O2 O2- 6 f 0.0656(5) -.1387(5) 0.3680(4) 1. 0 0.034(2) 

#End of data_39842-ICSD


