data_100710-ICSD
#?2014 by Fachinformationszentrum Karlsruhe, and the U.S. Secretary of 
#Commerce on behalf of the United States.  All rights reserved.
_database_code_ICSD                100710
_audit_creation_date               1980/12/31
_audit_update_record               2013/02/01
_chemical_name_systematic          'Thallium Silver Selenide'
_chemical_formula_structural       'Tl Ag Se'
_chemical_formula_sum              'Ag1 Se1 Tl1'
_publ_section_title
;
Thallium silver chalcogenides of the ordered anti-Pb Cl2 - structure 
type
;
loop_
_citation_id
_citation_journal_abbrev
_citation_year
_citation_journal_volume
_citation_page_first
_citation_page_last
_citation_journal_id_ASTM
primary 'Monatshefte fuer Chemie' 1980 111 1433 1436 MOCMB7
2 'Journal of Solid State Chemistry' 1980 33 429 433 JSSCBI
_publ_author_name                  'Klepp, K.O.'
_cell_length_a                     7.4756(3)
_cell_length_b                     4.6375(2)
_cell_length_c                     8.690(1)
_cell_angle_alpha                  90.
_cell_angle_beta                   90.
_cell_angle_gamma                  90.
_cell_volume                       301.27
_cell_formula_units_Z              4
_symmetry_space_group_name_H-M     'P n m a'
_symmetry_Int_Tables_number        62
_refine_ls_R_factor_all            .045
loop_
_symmetry_equiv_pos_site_id
_symmetry_equiv_pos_as_xyz
  1	'x+.5, y, -z+.5'
  2	'x, -y+.5, z'
  3	'-x+.5, y+.5, z+.5'
  4	'-x, -y, -z'
  5	'-x+.5, -y, z+.5'
  6	'-x, y+.5, -z'
  7	'x+.5, -y+.5, -z+.5'
  8	'x, y, z'
loop_
_atom_type_symbol
_atom_type_oxidation_number
Ag1+	1
Se2-	-2
Tl1+	1
loop_
_atom_site_label
_atom_site_type_symbol
_atom_site_symmetry_multiplicity
_atom_site_Wyckoff_symbol
_atom_site_fract_x
_atom_site_fract_y
_atom_site_fract_z
_atom_site_occupancy
_atom_site_attached_hydrogens
_atom_site_U_iso_or_equiv
Tl1 Tl1+ 4 c 0.5005(3) 0.25 0.6772(2) 1. 0 0.0257(5) 
Ag1 Ag1+ 4 c 0.6706(6) 0.25 0.0822(5) 1. 0 0.0004 
Se1 Se2- 4 c 0.3179(6) 0.25 0.1048(5) 1. 0 0.0002 

#End of data_100710-ICSD


