data_409475-ICSD
#?2014 by Fachinformationszentrum Karlsruhe, and the U.S. Secretary of 
#Commerce on behalf of the United States.  All rights reserved.
_database_code_ICSD                409475
_audit_creation_date               2002/04/01
_chemical_name_systematic
;
Pentacalcium Tetranitridotungstate Dioxide
;
_chemical_formula_structural       'Ca5 (W N4) O2'
_chemical_formula_sum              'Ca5 N4 O2 W1'
_publ_section_title
;
Crystal structure of pentacalcium (tetranitridotungstate(VI)) dioxide 
Ca5 (W N4) O2
;
loop_
_citation_id
_citation_journal_abbrev
_citation_year
_citation_journal_volume
_citation_page_first
_citation_page_last
_citation_journal_id_ASTM
primary 'Zeitschrift fuer Kristallographie - New Crystal Structures'
 2000 215 333 334 ZKNSFT
_publ_author_name                  'Hoehn, P.;Kniep, R.'
_cell_length_a                     6.153(1)
_cell_length_b                     6.795(1)
_cell_length_c                     8.506(1)
_cell_angle_alpha                  90.
_cell_angle_beta                   90.39(1)
_cell_angle_gamma                  90.
_cell_volume                       355.62
_cell_formula_units_Z              2
_symmetry_space_group_name_H-M     'P 1 21/m 1'
_symmetry_Int_Tables_number        11
_refine_ls_R_factor_all            .0218
loop_
_symmetry_equiv_pos_site_id
_symmetry_equiv_pos_as_xyz
  1	'x, -y+.5, z'
  2	'-x, -y, -z'
  3	'-x, y+.5, -z'
  4	'x, y, z'
loop_
_atom_type_symbol
_atom_type_oxidation_number
Ca2+	2
N3-	-3
O2-	-2
W6+	6
loop_
_atom_site_label
_atom_site_type_symbol
_atom_site_symmetry_multiplicity
_atom_site_Wyckoff_symbol
_atom_site_fract_x
_atom_site_fract_y
_atom_site_fract_z
_atom_site_occupancy
_atom_site_attached_hydrogens
W1 W6+ 2 e 0.71611(3) 0.25 0.68220(2) 1. 0 
Ca1 Ca2+ 4 f 0.71984(12) 0.00284(12) 0.34508(9) 1. 0 
Ca2 Ca2+ 2 e 0.18188(18) 0.25 0.32849(12) 1. 0 
Ca3 Ca2+ 2 a 0 0 0 1. 0 
Ca4 Ca2+ 2 e 0.52196(18) 0.25 0.02761(12) 1. 0 
N1 N3- 2 e 0.5042(8) 0.25 0.5245(5) 1. 0 
N2 N3- 4 f 0.6610(6) 0.0262(5) 0.8104(4) 1. 0 
N3 N3- 2 e 0.9774(9) 0.25 0.5747(6) 1. 0 
O1 O2- 2 e 0.8506(7) 0.25 0.1727(5) 1. 0 
O2 O2- 2 e 0.2056(8) 0.25 0.8795(6) 1. 0 

loop_
_atom_site_aniso_label
_atom_site_aniso_type_symbol
_atom_site_aniso_U_11
_atom_site_aniso_U_22
_atom_site_aniso_U_33
_atom_site_aniso_U_12
_atom_site_aniso_U_13
_atom_site_aniso_U_23
W1 W6+ 0.00348(12) 0.00367(13) 0.00204(12) 0 -.00003(7) 0
Ca1 Ca2+ 0.0081(3) 0.0054(4) 0.0059(3) -.0011(3) 0.0007(3) 0.0022(3)
Ca2 Ca2+ 0.0055(4) 0.0061(5) 0.0038(4) 0 -.0004(4) 0
Ca3 Ca2+ 0.0063(4) 0.0049(5) 0.0050(4) 0.0004(4) 0.0009(3) -.0011(3)
Ca4 Ca2+ 0.0053(4) 0.0068(5) 0.0038(4) 0 -.0001(4) 0
N1 N3- 0.0056(19) 0.008(2) 0.0027(19) 0 -.0023(16) 0
N2 N3- 0.0091(13) 0.0038(14) 0.0055(13) -.0011(13) -.0001(11) 0.0004(12)
N3 N3- 0.011(2) 0.028(3) 0.006(2) 0 0.0019(18) 0
O1 O2- 0.011(2) 0.015(2) 0.012(2) 0 0.0032(16) 0
O2 O2- 0.014(2) 0.018(2) 0.016(2) 0 -.0001(17) 0
#End of data_409475-ICSD


