data_420106-ICSD
#?2014 by Fachinformationszentrum Karlsruhe, and the U.S. Secretary of 
#Commerce on behalf of the United States.  All rights reserved.
_database_code_ICSD                420106
_audit_creation_date               2009/08/01
_chemical_name_systematic          'Tripotassium Triindium Phosphate'
_chemical_formula_structural       'K3 In3 (P O4)4'
_chemical_formula_sum              'In3 K3 O16 P4'
_publ_section_title
;
Synthesis, crystal structure and optical properties of an indium 
phosphate K3 In3 P4 O16
;
loop_
_citation_id
_citation_journal_abbrev
_citation_year
_citation_journal_volume
_citation_journal_issue
_citation_page_first
_citation_page_last
_citation_journal_id_ASTM
primary 'Journal of Solid State Chemistry' 2009 182 4 855 861 JSSCBI
_publ_author_name
;
Yang, S.-L.;Zhang, H.;Xie, Z.;Zhao, D.;Zhang, W.-L.;Cheng, W.-D.
;
_cell_length_a                     9.7003(18)
_cell_length_b                     9.8065(18)
_cell_length_c                     15.855(3)
_cell_angle_alpha                  90
_cell_angle_beta                   90.346(3)
_cell_angle_gamma                  90
_cell_volume                       1508.2
_cell_formula_units_Z              4
_symmetry_space_group_name_H-M     'P 1 21/n 1'
_symmetry_Int_Tables_number        14
_refine_ls_R_factor_all            .0234
loop_
_symmetry_equiv_pos_site_id
_symmetry_equiv_pos_as_xyz
  1	'-x+.5, y+.5, -z+.5'
  2	'-x, -y, -z'
  3	'x+.5, -y+.5, z+.5'
  4	'x, y, z'
loop_
_atom_type_symbol
_atom_type_oxidation_number
In3+	3
K1+	1
O2-	-2
P5+	5
loop_
_atom_site_label
_atom_site_type_symbol
_atom_site_symmetry_multiplicity
_atom_site_Wyckoff_symbol
_atom_site_fract_x
_atom_site_fract_y
_atom_site_fract_z
_atom_site_occupancy
_atom_site_attached_hydrogens
_atom_site_U_iso_or_equiv
In1 In3+ 4 e 0.32335(2) 0.77156(2) 0.135322(15) 1 0 0.00720(8) 
In2 In3+ 4 e 0.81205(2) 1.14149(2) 0.161132(15) 1 0 0.00893(8) 
In3 In3+ 4 e 0.75551(2) 0.92449(2) -0.009191(15 1 0 0.00705(8) 
P1 P5+ 4 e 0.86649(9) 0.96873(9) -0.21161(5) 1 0 0.00742(17) 
P2 P5+ 4 e 0.63645(9) 0.89595(9) 0.20391(6) 1 0 0.00815(18) 
P3 P5+ 4 e 0.94316(9) 1.23318(9) 0.00457(6) 1 0 0.00755(18) 
P4 P5+ 4 e 0.44687(9) 0.77737(9) -0.02557(5) 1 0 0.00745(18) 
O1 O2- 4 e 0.8627(3) 1.2932(3) -0.06944(16) 1 0 0.0134(5) 
O2 O2- 4 e 0.8899(3) 1.0876(2) 0.02832(16) 1 0 0.0119(5) 
O3 O2- 4 e 0.4246(3) 0.6550(2) 0.03410(16) 1 0 0.0134(5) 
O4 O2- 4 e 0.4810(3) 0.8758(3) 0.20142(17) 1 0 0.0172(6) 
O5 O2- 4 e 0.3867(3) 0.8997(2) 0.02703(15) 1 0 0.0096(5) 
O6 O2- 4 e 0.8066(3) 0.9007(3) -0.29080(16) 1 0 0.0161(6) 
O7 O2- 4 e 0.8170(3) 0.8939(3) -0.13391(16) 1 0 0.0175(6) 
O8 O2- 4 e 0.8121(3) 1.1157(2) -0.21276(16) 1 0 0.0127(5) 
O9 O2- 4 e 1.0963(3) 1.2306(2) -0.02043(17) 1 0 0.0125(5) 
O10 O2- 4 e 0.3704(3) 0.7618(2) -0.10923(16) 1 0 0.0125(5) 
O11 O2- 4 e 0.9216(3) 1.3110(3) 0.08777(16) 1 0 0.0155(5) 
O12 O2- 4 e 0.6755(3) 1.0169(3) 0.25943(18) 1 0 0.0203(6) 
O13 O2- 4 e 1.0243(3) 0.9722(3) -0.21579(17) 1 0 0.0159(6) 
O14 O2- 4 e 0.7060(3) 0.7644(3) 0.23208(17) 1 0 0.0187(6) 
O15 O2- 4 e 0.6000(3) 0.7890(3) -0.04284(18) 1 0 0.0190(6) 
O16 O2- 4 e 0.7012(3) 0.9389(3) 0.11867(18) 1 0 0.0222(6) 
K1 K1+ 4 e 1.17477(11) 1.39214(10) 0.13110(6) 1 0 0.0300(2) 
K2 K1+ 4 e 0.82733(13) 1.02908(11) 0.39843(7) 1 0 0.0416(3) 
K3 K1+ 4 e 1.02349(12) 1.27333(12) -0.21521(9) 1 0 0.0464(4) 

loop_
_atom_site_aniso_label
_atom_site_aniso_type_symbol
_atom_site_aniso_U_11
_atom_site_aniso_U_22
_atom_site_aniso_U_33
_atom_site_aniso_U_12
_atom_site_aniso_U_13
_atom_site_aniso_U_23
In1 In3+ 0.00687(13) 0.00676(13) 0.00796(13) 0.00004(9) -0.00012(9) 
0.00121(8)
In2 In3+ 0.00852(13) 0.00983(13) 0.00845(13) 0.00159(9) -0.00042(9) 
-0.00127(8)
In3 In3+ 0.00711(13) 0.00624(13) 0.00779(12) -0.00041(9) -0.00017(9) 
0.00029(8)
P1 P5+ 0.0076(4) 0.0075(4) 0.0072(4) 0.0006(3) -0.0003(3) -0.0018(3)
P2 P5+ 0.0069(4) 0.0085(4) 0.0091(4) -0.0005(3) -0.0003(3) 0.0030(3)
P3 P5+ 0.0057(4) 0.0092(4) 0.0078(4) -0.0006(3) -0.0009(3) -0.0006(3)
P4 P5+ 0.0061(4) 0.0078(4) 0.0084(4) 0.0003(3) -0.0005(3) -0.0008(3)
O1 O2- 0.0093(13) 0.0154(13) 0.0154(13) -0.0027(10) -0.0046(10) 0.0032(10)
O2 O2- 0.0107(12) 0.0091(12) 0.0158(13) -0.0032(10) -0.0013(10) -0.0008(9)
O3 O2- 0.0190(14) 0.0079(11) 0.0133(13) 0.0051(10) 0.0029(11) 0.0013(9)
O4 O2- 0.0083(13) 0.0263(15) 0.0168(13) -0.0072(11) -0.0031(10) -0.0036(11)
O5 O2- 0.0105(12) 0.0087(11) 0.0094(12) 0.0004(10) 0.0002(9) -0.0006(9)
O6 O2- 0.0246(15) 0.0102(12) 0.0134(13) 0.0039(11) -0.0070(11) -0.0049(10)
O7 O2- 0.0239(15) 0.0189(14) 0.0096(12) 0.0001(12) 0.0053(11) 0.0024(10)
O8 O2- 0.0109(13) 0.0086(12) 0.0186(13) 0.0021(10) 0.0020(10) -0.0037(10)
O9 O2- 0.0065(12) 0.0118(12) 0.0193(14) 0.0009(10) 0.0026(10) 0.0037(10)
O10 O2- 0.0142(13) 0.0120(12) 0.0112(12) 0.0049(10) -0.0055(10) -0.0021(9)
O11 O2- 0.0163(13) 0.0169(13) 0.0135(13) -0.0021(11) 0.0017(10) -0.0066(10)
O12 O2- 0.0183(14) 0.0131(13) 0.0294(16) -0.0028(11) -0.0038(12) 
-0.0042(11)
O13 O2- 0.0077(12) 0.0174(14) 0.0225(14) 0.0034(11) 0.0007(11) 0.0033(11)
O14 O2- 0.0229(15) 0.0155(14) 0.0177(14) 0.0075(11) 0.0057(12) 0.0094(11)
O15 O2- 0.0079(13) 0.0195(14) 0.0295(16) -0.0038(11) 0.0049(11) -0.0111(12)
O16 O2- 0.0093(13) 0.0154(13) 0.0154(13) -0.0027(10) -0.0046(10) 0.0032(10)
K1 K1+ 0.0341(6) 0.0263(5) 0.0294(5) -0.0102(4) -0.0140(4) -0.0057(4)
K2 K1+ 0.0565(7) 0.0270(5) 0.0409(6) -0.0034(5) -0.0276(6) 0.0067(4)
K3 K1+ 0.0351(6) 0.0342(6) 0.0704(9) -0.0220(5) 0.0336(6) -0.0210(6)
#End of data_420106-ICSD


