data_94536-ICSD
#?2014 by Fachinformationszentrum Karlsruhe, and the U.S. Secretary of 
#Commerce on behalf of the United States.  All rights reserved.
_database_code_ICSD                94536
_audit_creation_date               2003/10/01
_chemical_name_systematic
;
Tripotassium Europium Bis(phosphate(V))
;
_chemical_formula_structural       'K3 Eu (P O4)2'
_chemical_formula_sum              'Eu1 K3 O8 P2'
_publ_section_title
;
Structure and spectral properties of double phosphates and vanadates 
K3 Eu (E O4)2 (E = P, V)
;
loop_
_citation_id
_citation_journal_abbrev
_citation_year
_citation_journal_volume
_citation_journal_issue
_citation_page_first
_citation_page_last
_citation_journal_id_ASTM
primary 'Zhurnal Neorganicheskoi Khimii' 2001 46 5 805 813 ZNOKAQ
_publ_author_name
;
Morozov, V.A.;Bobylev, A.P.;Gerasimova, N.V.;Kirichenko, 
A.N.;Mikhailin, V.V.;Pushkina, G.Ya.;Lazoryak, B.I.;Komissarova, L.N.
;
_cell_length_a                     9.4550(1)
_cell_length_b                     5.6229(1)
_cell_length_c                     7.4185(1)
_cell_angle_alpha                  90
_cell_angle_beta                   90.867(1)
_cell_angle_gamma                  90
_cell_volume                       394.36
_cell_formula_units_Z              2
_symmetry_space_group_name_H-M     'P 1 21/m 1'
_symmetry_Int_Tables_number        11
_refine_ls_R_factor_all            .0202
loop_
_symmetry_equiv_pos_site_id
_symmetry_equiv_pos_as_xyz
  1	'x, -y+.5, z'
  2	'-x, -y, -z'
  3	'-x, y+.5, -z'
  4	'x, y, z'
loop_
_atom_type_symbol
_atom_type_oxidation_number
Eu3+	3
K1+	1
O2-	-2
P5+	5
loop_
_atom_site_label
_atom_site_type_symbol
_atom_site_symmetry_multiplicity
_atom_site_Wyckoff_symbol
_atom_site_fract_x
_atom_site_fract_y
_atom_site_fract_z
_atom_site_occupancy
_atom_site_attached_hydrogens
_atom_site_B_iso_or_equiv
K1 K1+ 2 e 0.3093(3) 0.250 0.4945(4) 1. 0 1.07(7) 
K2 K1+ 2 e 0.5812(3) 0.250 0.2051(3) 1. 0 1.00(7) 
P1 P5+ 2 e 0.9264(4) 0.250 0.1905(6) 1. 0 1.18(9) 
O1 O2- 2 e 0.9496(6) 0.250 0.9868(8) 1. 0 0.30(9) 
O2 O2- 2 e 0.0763(7) 0.250 0.2870(8) 1. 0 0.30(9) 
O3 O2- 4 f 0.1562(4) 0.5230(8) 0.7542(6) 1. 0 0.30(9) 
K3 K1+ 2 e 0.9087(3) 0.250 0.6354(3) 1. 0 1.16(7) 
Eu1 Eu3+ 2 e 0.2090(9) 0.250 0.9933(1) 1. 0 0.24(3) 
P2 P5+ 2 e 0.5884(4) 0.250 0.7701(4) 1. 0 0.86(8) 
O4 O2- 2 e 0.6022(6) 0.250 0.5629(8) 1. 0 0.27(8) 
O5 O2- 2 e 0.4326(7) 0.250 0.8261(9) 1. 0 0.27(8) 
O6 O2- 4 f 0.3375(5) 0.5271(8) 0.1542(6) 1. 0 0.27(8) 

#End of data_94536-ICSD


