data_69192-ICSD
#?2014 by Fachinformationszentrum Karlsruhe, and the U.S. Secretary of 
#Commerce on behalf of the United States.  All rights reserved.
_database_code_ICSD                69192
_audit_creation_date               1992/01/20
_chemical_name_systematic          'Dilanthanum Lithium Antimonate'
_chemical_formula_structural       'La2 Li (Sb O6)'
_chemical_formula_sum              'La2 Li1 O6 Sb1'
_publ_section_title
;
Synthesis and crystal structure of La2LiSbO6
;
loop_
_citation_id
_citation_journal_abbrev
_citation_year
_citation_journal_volume
_citation_page_first
_citation_page_last
_citation_journal_id_ASTM
primary 'Materials Research Bulletin' 1990 25 1271 1277 MRBUAC
_publ_author_name
;
Lopez, M.L.;Veiga, M.L.;Jerez, A.;Pico, C.
;
_cell_length_a                     5.6181(8)
_cell_length_b                     5.7179(2)
_cell_length_c                     7.9610(3)
_cell_angle_alpha                  90.
_cell_angle_beta                   89.74(3)
_cell_angle_gamma                  90.
_cell_volume                       255.73
_cell_formula_units_Z              2
_symmetry_space_group_name_H-M     'P 1 21/n 1'
_symmetry_Int_Tables_number        14
_refine_ls_R_factor_all            .083
loop_
_symmetry_equiv_pos_site_id
_symmetry_equiv_pos_as_xyz
  1	'-x+.5, y+.5, -z+.5'
  2	'-x, -y, -z'
  3	'x+.5, -y+.5, z+.5'
  4	'x, y, z'
loop_
_atom_type_symbol
_atom_type_oxidation_number
La3+	3
Li1+	1
O2-	-2
Sb5+	5
loop_
_atom_site_label
_atom_site_type_symbol
_atom_site_symmetry_multiplicity
_atom_site_Wyckoff_symbol
_atom_site_fract_x
_atom_site_fract_y
_atom_site_fract_z
_atom_site_occupancy
_atom_site_attached_hydrogens
La1 La3+ 4 e 0.4972(1) 0.5444(3) 0.2483(6) 1. 0 
Sb1 Sb5+ 2 c 0 0.5 0 1. 0 
O1 O2- 4 e 0.2170(5) 0.2253(5) -.0405(3) 1. 0 
O2 O2- 4 e 0.2951(9) 0.7093(8) -.0407(5) 1. 0 
O3 O2- 4 e 0.4099(6) 0.9887(8) 0.2380(2) 1. 0 
Li1 Li1+ 2 d 0.5 0 0 1. 0 

#End of data_69192-ICSD


