data_183611-ICSD
#?2014 by Fachinformationszentrum Karlsruhe, and the U.S. Secretary of 
#Commerce on behalf of the United States.  All rights reserved.
_database_code_ICSD                183611
_audit_creation_date               2012/08/01
_chemical_name_systematic
;
Dilithium Cobalt Phosphate Fluoride
;
_chemical_formula_structural       'Li2 Co (P O4) F'
_chemical_formula_sum              'Co1 F1 Li2 O4 P1'
_publ_section_title
;
Solving the structure of Li ion battery materials with precession 
electron diffraction: application to Li2 Co P O4 F
;
loop_
_citation_id
_citation_journal_abbrev
_citation_year
_citation_journal_volume
_citation_page_first
_citation_page_last
_citation_journal_id_ASTM
primary 'Chemistry of Materials' 2011 23 3540 3545 CMATEX
_publ_author_name
;
Hadermann, J.;Abakumov, A.M.;Turner, S.;Hafideddine, Z.;Khasanova, 
N.R.;Antipov, E.V.;van Tendeloo, G.
;
_cell_length_a                     10.452(2)
_cell_length_b                     6.3911(8)
_cell_length_c                     10.874(2)
_cell_angle_alpha                  90.
_cell_angle_beta                   90.
_cell_angle_gamma                  90.
_cell_volume                       726.38
_cell_formula_units_Z              8
_symmetry_space_group_name_H-M     'P n m a'
_symmetry_Int_Tables_number        62
_refine_ls_R_factor_all            .24
loop_
_symmetry_equiv_pos_site_id
_symmetry_equiv_pos_as_xyz
  1	'x+.5, y, -z+.5'
  2	'x, -y+.5, z'
  3	'-x+.5, y+.5, z+.5'
  4	'-x, -y, -z'
  5	'-x+.5, -y, z+.5'
  6	'-x, y+.5, -z'
  7	'x+.5, -y+.5, -z+.5'
  8	'x, y, z'
loop_
_atom_type_symbol
_atom_type_oxidation_number
Co2+	2
F1-	-1
Li1+	1
O2-	-2
P5+	5
loop_
_atom_site_label
_atom_site_type_symbol
_atom_site_symmetry_multiplicity
_atom_site_Wyckoff_symbol
_atom_site_fract_x
_atom_site_fract_y
_atom_site_fract_z
_atom_site_occupancy
_atom_site_attached_hydrogens
_atom_site_U_iso_or_equiv
Li1 Li1+ 8 d 0.724(13) 0.963(11) 0.665(5) 1. 0 0.014(2) 
Li2 Li1+ 4 c 0.936(14) 0.750 0.729(9) 1. 0 0.014(2) 
Li3 Li1+ 4 c 0.244(19) 0.250 0.581(7) 1. 0 0.014(2) 
Co1 Co2+ 4 a 0 0 0 1. 0 0.014(2) 
Co2 Co2+ 4 b 0 0 0.5 1. 0 0.014(2) 
P1 P5+ 4 c 0.739(3) 0.750 0.9278(12) 1. 0 0.014(2) 
P2 P5+ 4 c 0.008(3) 0.250 0.7470(13) 1. 0 0.014(2) 
O1 O2- 8 d 0.800(3) 0.945 0.9833(12) 1. 0 0.014(2) 
O2 O2- 4 c 0.596(3) 0.750 0.9562(12) 1. 0 0.014(2) 
O3 O2- 4 c 0.759(3) 0.750 0.7885(12) 1. 0 0.014(2) 
O4 O2- 8 d -0.041(3) 0.445 0.6808(13) 1. 0 0.014(2) 
O5 O2- 4 c 0.154(3) 0.250 0.7466(12) 1. 0 0.014(2) 
O6 O2- 4 c -0.041(3) 0.250 0.8798(13) 1. 0 0.014(2) 
F1 F1- 4 c 0.047(6) 0.750 0.877(4) 1. 0 0.014(2) 
F2 F1- 4 c 0.872(5) 0.750 0.545(5) 1. 0 0.014(2) 

#End of data_183611-ICSD


