data_78752-ICSD
#?2014 by Fachinformationszentrum Karlsruhe, and the U.S. Secretary of 
#Commerce on behalf of the United States.  All rights reserved.
_database_code_ICSD                78752
_audit_creation_date               1997/05/13
_chemical_name_systematic          'Cesium Sodium Titanate'
_chemical_formula_structural       'Cs Na (Ti O3)'
_chemical_formula_sum              'Cs1 Na1 O3 Ti1'
_publ_section_title
;
Zwei neue Metatitanate mit fuenffach koordiniertem Titan: Cs Na Ti O3 
und Rb Na Ti O3
;
loop_
_citation_id
_citation_journal_abbrev
_citation_year
_citation_journal_volume
_citation_page_first
_citation_page_last
_citation_journal_id_ASTM
primary 'Zeitschrift fuer Anorganische und Allgemeine Chemie (1950) (DE)'
 1995 621 1447 1453 ZAACAB
_publ_author_name                  'Weiss, C.;Hoppe, R.'
_cell_length_a                     6.007(1)
_cell_length_b                     11.194(2)
_cell_length_c                     5.623(1)
_cell_angle_alpha                  90.
_cell_angle_beta                   90.
_cell_angle_gamma                  90.
_cell_volume                       378.1
_cell_formula_units_Z              4
_symmetry_space_group_name_H-M     'C m c m'
_symmetry_Int_Tables_number        63
_refine_ls_R_factor_all            .0232
loop_
_symmetry_equiv_pos_site_id
_symmetry_equiv_pos_as_xyz
  1	'-x, y, -z+.5'
  2	'-x, -y, z+.5'
  3	'-x, y, z'
  4	'-x, -y, -z'
  5	'x, -y, z+.5'
  6	'x, y, -z+.5'
  7	'x, -y, -z'
  8	'x, y, z'
  9	'-x+.5, y+.5, -z+.5'
 10	'-x+.5, -y+.5, z+.5'
 11	'-x+.5, y+.5, z'
 12	'-x+.5, -y+.5, -z'
 13	'x+.5, -y+.5, z+.5'
 14	'x+.5, y+.5, -z+.5'
 15	'x+.5, -y+.5, -z'
 16	'x+.5, y+.5, z'
loop_
_atom_type_symbol
_atom_type_oxidation_number
Cs1+	1
Na1+	1
O2-	-2
Ti4+	4
loop_
_atom_site_label
_atom_site_type_symbol
_atom_site_symmetry_multiplicity
_atom_site_Wyckoff_symbol
_atom_site_fract_x
_atom_site_fract_y
_atom_site_fract_z
_atom_site_occupancy
_atom_site_attached_hydrogens
Cs1 Cs1+ 4 c 0 0.2681 0.25 1. 0 
Ti1 Ti4+ 4 c 0 0.9517(1) 0.25 1. 0 
Na1 Na1+ 4 c 0 0.5740(2) 0.25 1. 0 
O1 O2- 4 c 0 0.7958(4) 0.25 1. 0 
O2 O2- 8 e 0.2105(4) 0 0 1. 0 

loop_
_atom_site_aniso_label
_atom_site_aniso_type_symbol
_atom_site_aniso_U_11
_atom_site_aniso_U_22
_atom_site_aniso_U_33
_atom_site_aniso_U_12
_atom_site_aniso_U_13
_atom_site_aniso_U_23
Cs1 Cs1+ 0.0162(2) 0.0151(2) 0.0135(2) 0 0 0
Ti1 Ti4+ 0.0096(3) 0.0078(3) 0.0066(3) 0 0 0
Na1 Na1+ 0.0118(9) 0.0164(13) 0.0156(10) 0 0 0
O1 O2- 0.0255(18) 0.0065(14) 0.0148(16) 0 0 0
O2 O2- 0.0088(10) 0.0212(19) 0.0089(11) 0.001(12) 0.008(10) 0
#End of data_78752-ICSD


