data_421399-ICSD
#?2014 by Fachinformationszentrum Karlsruhe, and the U.S. Secretary of 
#Commerce on behalf of the United States.  All rights reserved.
_database_code_ICSD                421399
_audit_creation_date               2011/02/01
_chemical_name_systematic
;
Pentasilver Ditelluride Chloride - Rt
;
_chemical_formula_structural       'Ag5 Te2 Cl'
_chemical_formula_sum              'Ag5 Cl1 Te2'
_publ_section_title
;
Reversible property switching, thermoelectric performance and d(10)-
d(10) interactions in Ag5 Te2 Cl
;
loop_
_citation_id
_citation_journal_abbrev
_citation_year
_citation_journal_volume
_citation_page_first
_citation_page_last
_citation_journal_id_ASTM
primary 'Chemistry of Materials' 2010 22 2946 2954 CMATEX
_publ_author_name
;
Nilges, T.;Osters, O.;Bawohl, M.;Bobet, J.L.;Chevalier, B.;Decourt, 
R.;Weihrich, R.
;
_cell_length_a                     13.8060(10)
_cell_length_b                     7.6718(4)
_cell_length_c                     13.7641(9)
_cell_angle_alpha                  90
_cell_angle_beta                   89.996(6)
_cell_angle_gamma                  90
_cell_volume                       1457.85
_cell_formula_units_Z              8
_symmetry_space_group_name_H-M     'P 1 21/n 1'
_symmetry_Int_Tables_number        14
_refine_ls_R_factor_all            .041
loop_
_symmetry_equiv_pos_site_id
_symmetry_equiv_pos_as_xyz
  1	'-x+.5, y+.5, -z+.5'
  2	'-x, -y, -z'
  3	'x+.5, -y+.5, z+.5'
  4	'x, y, z'
loop_
_atom_type_symbol
_atom_type_oxidation_number
Ag1+	1
Cl1-	-1
Te2-	-2
loop_
_atom_site_label
_atom_site_type_symbol
_atom_site_symmetry_multiplicity
_atom_site_Wyckoff_symbol
_atom_site_fract_x
_atom_site_fract_y
_atom_site_fract_z
_atom_site_occupancy
_atom_site_attached_hydrogens
_atom_site_U_iso_or_equiv
Te1 Te2- 4 e 0.00932(4) 0.22509(9) 0.40918(4) 1 0 0.02094(16) 
Te2 Te2- 4 e 0.00936(4) 0.22507(9) 0.09080(4) 1 0 0.02094(16) 
Te3 Te2- 4 e 0.68680(4) 0.26639(8) 0.25001(4) 1 0 0.01833(15) 
Te4 Te2- 4 e 0.36863(5) 0.29258(9) 0.24994(5) 1 0 0.02601(18) 
Cl1 Cl1- 4 e 0.24704(19) 0.9779(4) 0.00031(19) 1 0 0.0294(7) 
Cl2 Cl1- 4 e 0.25290(19) 0.4773(4) 0.00045(19) 1 0 0.0302(7) 
Ag1 Ag1+ 4 e -0.0823(2) 0.3699(5) 0.57198(9) 1 0 0.0726(8) 
Ag2 Ag1+ 4 e -0.11934(8) 0.48876(15) 0.35796(8) 1 0 0.0458(3) 
Ag3 Ag1+ 4 e -0.11931(9) 0.48882(16) 0.14217(8) 1 0 0.0458(3) 
Ag4 Ag1+ 4 e -0.12069(6) 0.13744(12) 0.24997(7) 1 0 0.0331(2) 
Ag5 Ag1+ 4 e 0.0843(4) 0.4409(3) 0.24981(9) 1 0 0.0833(13) 
Ag6 Ag1+ 4 e 0.0769(2) 0.1222(2) 0.59500(12) 1 0 0.0583(4) 
Ag7 Ag1+ 4 e -0.0769(2) 0.8774(2) 0.09508(12) 1 0 0.0588(4) 
Ag8 Ag1+ 4 e 0.20476(11) 0.1880(6) 0.3513(2) 1 0 0.0936(10) 
Ag9 Ag1+ 4 e 0.20497(13) 0.1853(6) 0.1488(2) 1 0 0.0986(11) 
Ag10 Ag1+ 4 e -0.08236(20) 0.3695(5) -0.07133(10) 1 0 0.0734(8) 

loop_
_atom_site_aniso_label
_atom_site_aniso_type_symbol
_atom_site_aniso_U_11
_atom_site_aniso_U_22
_atom_site_aniso_U_33
_atom_site_aniso_U_12
_atom_site_aniso_U_13
_atom_site_aniso_U_23
Te1 Te2- 0.0225(3) 0.0209(3) 0.0194(3) 0.0006(2) -0.00345(18) 0.0003(2)
Te2 Te2- 0.0226(3) 0.0208(3) 0.0194(3) 0.0005(2) 0.00334(19) -0.0005(2)
Te3 Te2- 0.0170(3) 0.0172(3) 0.0208(2) -0.0002(2) 0.00011(17) -0.0001(2)
Te4 Te2- 0.0262(3) 0.0238(3) 0.0281(3) -0.0037(3) 0.0001(2) 0.0000(2)
Cl1 Cl1- 0.0277(12) 0.0345(14) 0.0259(11) 0.0016(10) 0.0010(8) -0.0019(9)
Cl2 Cl1- 0.0284(12) 0.0357(14) 0.0265(11) -0.0014(10) -0.0016(9) 
-0.0025(10)
Ag1 Ag1+ 0.0735(9) 0.113(2) 0.0312(6) 0.0360(13) 0.0083(5) -0.0006(6)
Ag2 Ag1+ 0.0527(6) 0.0422(5) 0.0426(5) 0.0237(5) 0.0080(4) 0.0149(4)
Ag3 Ag1+ 0.0527(6) 0.0421(5) 0.0426(5) 0.0231(5) -0.0082(4) -0.0152(4)
Ag4 Ag1+ 0.0276(4) 0.0320(4) 0.0398(4) -0.0002(3) 0.0002(3) -0.0003(3)
Ag5 Ag1+ 0.144(3) 0.0408(16) 0.065(2) -0.0076(7) -0.0009(5) 0.0005(5)
Ag6 Ag1+ 0.0906(9) 0.0389(6) 0.0455(6) -0.0009(5) -0.0388(6) 0.0000(4)
Ag7 Ag1+ 0.0921(10) 0.0396(6) 0.0446(6) -0.0006(6) 0.0377(6) -0.0003(5)
Ag8 Ag1+ 0.0310(6) 0.155(2) 0.0945(17) 0.0000(10) 0.0068(6) 0.0732(16)
Ag9 Ag1+ 0.0339(7) 0.167(3) 0.0949(17) -0.0037(12) -0.0025(9) -0.0758(17)
Ag10 Ag1+ 0.0731(9) 0.116(2) 0.0310(5) 0.0377(13) -0.0097(5) -0.0014(7)
#End of data_421399-ICSD


