data_9271-ICSD
#?2014 by Fachinformationszentrum Karlsruhe, and the U.S. Secretary of 
#Commerce on behalf of the United States.  All rights reserved.
_database_code_ICSD                9271
_audit_creation_date               1980/01/01
_audit_update_record               1997/11/10
_chemical_name_systematic          'Sodium Beryllium Phosphate'
_chemical_formula_structural       'Na Be P O4'
_chemical_formula_sum              'Be1 Na1 O4 P1'
_chemical_name_mineral             Beryllonite
_publ_section_title
;
Refinement of the Crystal Structure of Beryllonite, Na Be P O4
;
loop_
_citation_id
_citation_journal_abbrev
_citation_year
_citation_journal_volume
_citation_page_first
_citation_page_last
_citation_journal_id_ASTM
primary 'Tschermaks Mineralogische und Petrographische Mitteilungen (-1978)'
 1973 20 1 12 MPMTAG
_publ_author_name                  'Giuseppetti, G.;Tadini, C.'
_cell_length_a                     8.178(3)
_cell_length_b                     7.818(2)
_cell_length_c                     14.114(6)
_cell_angle_alpha                  90.
_cell_angle_beta                   90.00(2)
_cell_angle_gamma                  90.
_cell_volume                       902.39
_cell_formula_units_Z              12
_symmetry_space_group_name_H-M     'P 1 21/n 1'
_symmetry_Int_Tables_number        14
_refine_ls_R_factor_all            .063
loop_
_symmetry_equiv_pos_site_id
_symmetry_equiv_pos_as_xyz
  1	'-x+.5, y+.5, -z+.5'
  2	'-x, -y, -z'
  3	'x+.5, -y+.5, z+.5'
  4	'x, y, z'
loop_
_atom_type_symbol
_atom_type_oxidation_number
Be2+	2
Na1+	1
O2-	-2
P5+	5
loop_
_atom_site_label
_atom_site_type_symbol
_atom_site_symmetry_multiplicity
_atom_site_Wyckoff_symbol
_atom_site_fract_x
_atom_site_fract_y
_atom_site_fract_z
_atom_site_occupancy
_atom_site_attached_hydrogens
Na1 Na1+ 4 e 0.2477(3) 0.0046(4) 0.2499(2) 1. 0 
Na2 Na1+ 4 e 0.7308(3) 0.4712(3) 0.0881(2) 1. 0 
Na3 Na1+ 4 e 0.7737(3) 0.0305(3) 0.0682(1) 1. 0 
Be1 Be2+ 4 e 0.9220(8) 0.1699(9) 0.2411(4) 1. 0 
Be2 Be2+ 4 e 0.3991(8) 0.1693(10) 0.4190(5) 1. 0 
Be3 Be2+ 4 e 0.4329(8) 0.171(1) 0.0910(5) 1. 0 
P1 P5+ 4 e 0.5806(1) 0.2858(2) 0.2628(1) 1. 0 
P2 P5+ 4 e 0.1069(1) 0.2902(2) 0.0813(1) 1. 0 
P3 P5+ 4 e 0.0689(1) 0.2887(2) 0.4084(1) 1. 0 
O1 O2- 4 e 0.4411(4) 0.2678(5) 0.1906(2) 1. 0 
O2 O2- 4 e 0.0662(4) 0.2686(5) 0.1855(2) 1. 0 
O3 O2- 4 e 0.2483(4) 0.2770(6) 0.3762(2) 1. 0 
O4 O2- 4 e 0.7430(5) 0.2499(5) 0.2137(3) 1. 0 
O5 O2- 4 e 0.9524(4) 0.2520(5) 0.0223(2) 1. 0 
O6 O2- 4 e 0.5600(4) 0.2534(5) 0.0134(2) 1. 0 
O7 O2- 4 e 0.5550(5) 0.1652(5) 0.3458(3) 1. 0 
O8 O2- 4 e 0.2449(4) 0.1674(5) 0.0527(2) 1. 0 
O9 O2- 4 e 0.9609(4) 0.1645(5) 0.3530(3) 1. 0 
O10 O2- 4 e 0.5769(5) 0.4702(5) 0.2994(2) 1. 0 
O11 O2- 4 e 0.1663(4) 0.4724(5) 0.0642(3) 1. 0 
O12 O2- 4 e 0.0068(5) 0.4701(6) 0.3904(2) 1. 0 

#End of data_9271-ICSD


