data_38049-ICSD
#?2014 by Fachinformationszentrum Karlsruhe, and the U.S. Secretary of 
#Commerce on behalf of the United States.  All rights reserved.
_database_code_ICSD                38049
_audit_creation_date               1983/12/31
_audit_update_record               2011/08/01
_chemical_name_systematic
;
Tetrasodium Phyllo-pentatelluridodisilicate
;
_chemical_formula_structural       'Na4 (Si2 Te5)'
_chemical_formula_sum              'Na4 Si2 Te5'
_publ_section_title
;
Neuartige (Si4 Te10)8- und (Ge4 Te10)8- Anionen im Na8 Si4 Te10 bzw 
Na8 Ge4 Te10
;
loop_
_citation_id
_citation_journal_abbrev
_citation_year
_citation_journal_volume
_citation_page_first
_citation_page_last
_citation_journal_id_ASTM
primary 'Revue de Chimie Minerale' 1983 20 78 87 RVCMA8
_publ_author_name
;
Eisenmann, B.;Schwerer, H.;Schaefer, H.
;
_cell_length_a                     14.073(12)
_cell_length_b                     12.842(12)
_cell_length_c                     14.882(12)
_cell_angle_alpha                  90.
_cell_angle_beta                   92.22(10)
_cell_angle_gamma                  90.
_cell_volume                       2687.54
_cell_formula_units_Z              8
_symmetry_space_group_name_H-M     'P 1 21/c 1'
_symmetry_Int_Tables_number        14
_refine_ls_R_factor_all            .104
loop_
_symmetry_equiv_pos_site_id
_symmetry_equiv_pos_as_xyz
  1	'x, -y+.5, z+.5'
  2	'-x, -y, -z'
  3	'-x, y+.5, -z+.5'
  4	'x, y, z'
loop_
_atom_type_symbol
_atom_type_oxidation_number
Na1+	1
Si3+	3
Te2-	-2
loop_
_atom_site_label
_atom_site_type_symbol
_atom_site_symmetry_multiplicity
_atom_site_Wyckoff_symbol
_atom_site_fract_x
_atom_site_fract_y
_atom_site_fract_z
_atom_site_occupancy
_atom_site_attached_hydrogens
_atom_site_U_iso_or_equiv
Te1 Te2- 4 e 0.3910(1) 0.1162(1) 0.0379(1) 1. 0 0 
Te2 Te2- 4 e 0.1120(1) 0.1278(1) 0.9485(1) 1. 0 0 
Te3 Te2- 4 e 0.1036(1) 0.6271(1) 0.9610(1) 1. 0 0 
Te4 Te2- 4 e 0.5188(1) 0.8422(1) 0.2647(1) 1. 0 0 
Te5 Te2- 4 e 0.9898(1) 0.4044(1) 0.7525(1) 1. 0 0 
Te6 Te2- 4 e 0.3845(1) 0.6150(1) 0.0407(1) 1. 0 0 
Te7 Te2- 4 e 0.2923(1) 0.3769(1) 0.8298(1) 1. 0 0 
Te8 Te2- 4 e 0.2136(1) 0.8412(1) 0.1470(1) 1. 0 0 
Te9 Te2- 4 e 0.1929(1) 0.3658(1) 0.1662(1) 1. 0 0 
Te10 Te2- 4 e 0.2939(1) 0.5913(1) 0.3406(1) 1. 0 0 
Si1 Si3+ 4 e 0.2217(5) 0.6599(5) 0.0866(4) 1. 0 0.0067(11) 
Si2 Si3+ 4 e 0.2779(5) 0.4097(5) 0.4102(4) 1. 0 0.0068(11) 
Si3 Si3+ 4 e 0.1756(5) 0.5574(5) 0.2097(4) 1. 0 0.0070(11) 
Si4 Si3+ 4 e 0.3196(5) 0.1928(5) 0.7857(4) 1. 0 0.0075(11) 
Na1 Na1+ 4 e 0.0973(10) 0.1216(11) 0.4408(10) 1. 0 0.0287(29) 
Na2 Na1+ 4 e 0.383(1) 0.3656(11) 0.0324(9) 1. 0 0.0279(28) 
Na3 Na1+ 4 e 0.1949(11) 0.0875(12) 0.1396(10) 1. 0 0.0326(31) 
Na4 Na1+ 4 e 0.0935(10) 0.6223(11) 0.4531(9) 1. 0 0.0253(36) 
Na5 Na1+ 4 e 0.4926(11) 0.9082(12) 0.7305(10) 1. 0 0.0322(31) 
Na6 Na1+ 4 e 0.0146(11) 0.8430(12) 0.2365(10) 1. 0 0.031(3) 
Na7 Na1+ 4 e 0.5771(10) 0.3650(11) 0.4285(9) 1. 0 0.0282(28) 
Na8 Na1+ 4 e 0.7093(11) 0.3573(13) 0.1534(10) 1. 0 0.0344(32) 

loop_
_atom_site_aniso_label
_atom_site_aniso_type_symbol
_atom_site_aniso_U_11
_atom_site_aniso_U_22
_atom_site_aniso_U_33
_atom_site_aniso_U_12
_atom_site_aniso_U_13
_atom_site_aniso_U_23
Te1 Te2- 0.0146(8) 0.0147(8) 0.0108(7) -.0021(6) -.0056(6) -.0010(6)
Te2 Te2- 0.0106(7) 0.0137(8) 0.0161(8) 0.0025(6) 0.0035(6) 0.0015(6)
Te3 Te2- 0.0141(8) 0.0143(8) 0.0114(8) -.0027(6) -.0050(6) -.0003(6)
Te4 Te2- 0.0067(7) 0.0149(8) 0.0189(8) 0.0012(6) 0.0019(6) 0.0000(6)
Te5 Te2- 0.0075(7) 0.0135(7) 0.0151(7) 0.0035(6) 0.0016(5) 0.0011(6)
Te6 Te2- 0.0089(7) 0.0139(8) 0.0193(8) 0.0013(6) 0.0022(6) -.0014(6)
Te7 Te2- 0.0176(8) 0.0037(6) 0.0158(7) 0.0006(6) 0.0008(6) -.0013(5)
Te8 Te2- 0.0168(8) 0.0060(7) 0.0162(8) 0.0013(6) -.0004(6) -.0020(6)
Te9 Te2- 0.0134(7) 0.0054(6) 0.0098(7) 0.0009(5) -.0049(5) -.0014(5)
Te10 Te2- 0.0116(7) 0.0052(6) 0.0097(7) -.0024(6) -.0040(5) 0.0019(5)
#End of data_38049-ICSD


