data_31176-ICSD
#?2014 by Fachinformationszentrum Karlsruhe, and the U.S. Secretary of 
#Commerce on behalf of the United States.  All rights reserved.
_database_code_ICSD                31176
_audit_creation_date               1982/12/31
_audit_update_record               2002/04/01
_chemical_name_systematic          'Magnesium Catena-silicate - Hp'
_chemical_formula_structural       'Mg (Si O3)'
_chemical_formula_sum              'Mg1 O3 Si1'
_chemical_name_mineral             Unnamed_Corundum
_publ_section_title
;
Mg Si O3 (ilmenite-type): single crystal x-ray diffraction study
;
loop_
_citation_id
_citation_journal_abbrev
_citation_year
_citation_journal_volume
_citation_page_first
_citation_page_last
_citation_journal_id_ASTM
primary 'American Mineralogist' 1982 67 788 793 AMMIAY
_publ_author_name
;
Horiuchi, H.;Hirano, M.;Ito, E.;Matsui, Y.
;
_cell_length_a                     4.7284(4)
_cell_length_b                     4.7284(4)
_cell_length_c                     13.5591(16)
_cell_angle_alpha                  90.
_cell_angle_beta                   90.
_cell_angle_gamma                  120.
_cell_volume                       262.54
_cell_formula_units_Z              6
_symmetry_space_group_name_H-M     'R -3 H'
_symmetry_Int_Tables_number        148
_refine_ls_R_factor_all            .049
loop_
_symmetry_equiv_pos_site_id
_symmetry_equiv_pos_as_xyz
  1	'x-y, x, -z'
  2	'y, -x+y, -z'
  3	'-x, -y, -z'
  4	'-x+y, -x, z'
  5	'-y, x-y, z'
  6	'x, y, z'
  7	'x-y+.6666, x+.3333, -z+.3333'
  8	'x-y+.3333, x+.6666, -z+.6666'
  9	'y+.6666, -x+y+.3333, -z+.3333'
 10	'y+.3333, -x+y+.6666, -z+.6666'
 11	'-x+.6666, -y+.3333, -z+.3333'
 12	'-x+.3333, -y+.6666, -z+.6666'
 13	'-x+y+.6666, -x+.3333, z+.3333'
 14	'-x+y+.3333, -x+.6666, z+.6666'
 15	'-y+.6666, x-y+.3333, z+.3333'
 16	'-y+.3333, x-y+.6666, z+.6666'
 17	'x+.6666, y+.3333, z+.3333'
 18	'x+.3333, y+.6666, z+.6666'
loop_
_atom_type_symbol
_atom_type_oxidation_number
Mg2+	2
O2-	-2
Si4+	4
loop_
_atom_site_label
_atom_site_type_symbol
_atom_site_symmetry_multiplicity
_atom_site_Wyckoff_symbol
_atom_site_fract_x
_atom_site_fract_y
_atom_site_fract_z
_atom_site_occupancy
_atom_site_attached_hydrogens
Mg1 Mg2+ 6 c 0 0 0.35970(12) 1. 0 
Si1 Si4+ 6 c 0 0 0.15768(10) 1. 0 
O1 O2- 18 f 0.3214(5) 0.0361(4) 0.24077(11) 1. 0 

#End of data_31176-ICSD


