data_22064-ICSD
#?2014 by Fachinformationszentrum Karlsruhe, and the U.S. Secretary of 
#Commerce on behalf of the United States.  All rights reserved.
_database_code_ICSD                22064
_audit_creation_date               1980/01/01
_audit_update_record               2012/08/01
_chemical_name_systematic          'Sodium Niobate - Ht'
_chemical_formula_structural       'Na (Nb O3)'
_chemical_formula_sum              'Na1 Nb1 O3'
_publ_section_title
;
The structures of sodium niobate between 483 degrees C and 575 
degrees C, and their relevance to soft-phonon modes
;
loop_
_citation_id
_citation_journal_abbrev
_citation_year
_citation_journal_volume
_citation_page_first
_citation_page_last
_citation_journal_id_ASTM
primary 'Philosophical Magazine, Serie 8(1956-)' 1972 26 995 1014 PHMA83
2 'Phase Transition' 1992 38 127 220 PHTRDP
_publ_author_name                  'Ahtee, M.;Glazer, A.M.;Megaw, H.D.'
_cell_length_a                     7.8608
_cell_length_b                     7.8556
_cell_length_c                     7.8606
_cell_angle_alpha                  90.
_cell_angle_beta                   90.
_cell_angle_gamma                  90.
_cell_volume                       485.4
_cell_formula_units_Z              8
_symmetry_space_group_name_H-M     'P n m m Z'
_symmetry_Int_Tables_number        59
loop_
_symmetry_equiv_pos_site_id
_symmetry_equiv_pos_as_xyz
  1	'-x, y+.5, z+.5'
  2	'-x, y+.5, -z'
  3	'-x, -y, z+.5'
  4	'-x, -y, -z'
  5	'x, -y+.5, -z+.5'
  6	'x, -y+.5, z'
  7	'x, y, -z+.5'
  8	'x, y, z'
loop_
_atom_type_symbol
_atom_type_oxidation_number
Na1+	1
Nb5+	5
O2-	-2
loop_
_atom_site_label
_atom_site_type_symbol
_atom_site_symmetry_multiplicity
_atom_site_Wyckoff_symbol
_atom_site_fract_x
_atom_site_fract_y
_atom_site_fract_z
_atom_site_occupancy
_atom_site_attached_hydrogens
Nb1 Nb5+ 4 c 0 0 0 1. 0 
Nb2 Nb5+ 4 d 0.5 0 0 1. 0 
Na1 Na1+ 2 a 0.25 0.25 0.25 1. 0 
Na2 Na1+ 2 a 0.75 0.25 0.25 1. 0 
Na3 Na1+ 2 b 0.75 0.75 0.25 1. 0 
Na4 Na1+ 2 b 0.25 0.75 0.25 1. 0 
O1 O2- 8 g 0.25 -.013 -.009 1. 0 
O2 O2- 4 e 0.013 0.25 -.013 1. 0 
O3 O2- 4 e 0.487 0.25 0.013 1. 0 
O4 O2- 4 f 0.009 0.013 0.25 1. 0 
O5 O2- 4 f 0.491 -.013 0.25 1. 0 

#End of data_22064-ICSD


