data_82932-ICSD
#?2014 by Fachinformationszentrum Karlsruhe, and the U.S. Secretary of 
#Commerce on behalf of the United States.  All rights reserved.
_database_code_ICSD                82932
_audit_creation_date               1998/06/26
_audit_update_record               2007/08/01
_chemical_name_systematic          'Dicesium Tetraiodozincate'
_chemical_formula_structural       'Cs2 (Zn I4)'
_chemical_formula_sum              'Cs2 I4 Zn1'
_publ_section_title
;
Powder X-ray diffraction study on the phase transitions in Cs2 Zn I4
;
loop_
_citation_id
_citation_journal_abbrev
_citation_year
_citation_journal_volume
_citation_journal_issue
_citation_page_first
_citation_page_last
_citation_journal_id_ASTM
primary 'Chubu Daigaku Kogakubu Kiyo' 1996 32 12 103 111 CDKKER
2 'Golden Book of Phase Transitions, Wroclaw' 2002 1- 1 123 GBOPT5
_publ_author_name                  'Kitada, H.;Kurihama, T.;Izumi, T.'
_cell_length_a                     10.8290(6)
_cell_length_b                     8.3139(5)
_cell_length_c                     14.4714(8)
_cell_angle_alpha                  90.
_cell_angle_beta                   90.
_cell_angle_gamma                  90.
_cell_volume                       1302.88
_cell_formula_units_Z              4
_symmetry_space_group_name_H-M     'P n m a'
_symmetry_Int_Tables_number        62
_refine_ls_R_factor_all            .056
loop_
_symmetry_equiv_pos_site_id
_symmetry_equiv_pos_as_xyz
  1	'x+.5, y, -z+.5'
  2	'x, -y+.5, z'
  3	'-x+.5, y+.5, z+.5'
  4	'-x, -y, -z'
  5	'-x+.5, -y, z+.5'
  6	'-x, y+.5, -z'
  7	'x+.5, -y+.5, -z+.5'
  8	'x, y, z'
loop_
_atom_type_symbol
_atom_type_oxidation_number
Cs1+	1
I1-	-1
Zn2+	2
loop_
_atom_site_label
_atom_site_type_symbol
_atom_site_symmetry_multiplicity
_atom_site_Wyckoff_symbol
_atom_site_fract_x
_atom_site_fract_y
_atom_site_fract_z
_atom_site_occupancy
_atom_site_attached_hydrogens
_atom_site_B_iso_or_equiv
Cs1 Cs1+ 4 c 0.5191(11) 0.25 0.66529(67) 1. 0 4.59(26) 
Cs2 Cs1+ 4 c 0.87484(99) 0.25 0.38640(73) 1. 0 4.59(26) 
Zn1 Zn2+ 4 c 0.2646(16) 0.25 0.4243(13) 1. 0 3.47(58) 
I1 I1- 4 c 0.5016(11) 0.25 0.39895(75) 1. 0 4.28(16) 
I2 I1- 4 c 0.1858(14) 0.25 0.59076(62) 1. 0 4.28(16) 
I3 I1- 8 d 0.17015(75) 0.4991(13) 0.34602(44) 1. 0 4.28(16) 

#End of data_82932-ICSD


