data_48190-ICSD
#?2014 by Fachinformationszentrum Karlsruhe, and the U.S. Secretary of 
#Commerce on behalf of the United States.  All rights reserved.
_database_code_ICSD                48190
_audit_creation_date               1985/06/13
_audit_update_record               2006/04/01
_chemical_name_systematic          'Dipotassium Praseodymium Chloride'
_chemical_formula_structural       'K2 Pr Cl5'
_chemical_formula_sum              'Cl5 K2 Pr1'
_publ_section_title
;
Ternaere Halogenide der seltenen Erden vom Typ A2 M X5. (A= K, In, N 
H4, Rb, Cs; X= Cl, Br, I)
;
loop_
_citation_id
_citation_journal_abbrev
_citation_year
_citation_journal_volume
_citation_page_first
_citation_page_last
_citation_journal_id_ASTM
primary 'Zeitschrift fuer Anorganische und Allgemeine Chemie (1950) (DE)'
 1985 521 161 172 ZAACAB
_publ_author_name
;
Meyer, G.;Soose, J.;Moritz, A.;Vitt, V.;Holljes, T.H.
;
_cell_length_a                     12.710(3)
_cell_length_b                     8.772(2)
_cell_length_c                     7.985(2)
_cell_angle_alpha                  90.
_cell_angle_beta                   90.
_cell_angle_gamma                  90.
_cell_volume                       890.26
_cell_formula_units_Z              4
_symmetry_space_group_name_H-M     'P n m a'
_symmetry_Int_Tables_number        62
_refine_ls_R_factor_all            .043
loop_
_symmetry_equiv_pos_site_id
_symmetry_equiv_pos_as_xyz
  1	'x+.5, y, -z+.5'
  2	'x, -y+.5, z'
  3	'-x+.5, y+.5, z+.5'
  4	'-x, -y, -z'
  5	'-x+.5, -y, z+.5'
  6	'-x, y+.5, -z'
  7	'x+.5, -y+.5, -z+.5'
  8	'x, y, z'
loop_
_atom_type_symbol
_atom_type_oxidation_number
Cl1-	-1
K1+	1
Pr3+	3
loop_
_atom_site_label
_atom_site_type_symbol
_atom_site_symmetry_multiplicity
_atom_site_Wyckoff_symbol
_atom_site_fract_x
_atom_site_fract_y
_atom_site_fract_z
_atom_site_occupancy
_atom_site_attached_hydrogens
K1 K1+ 8 d 0.6706(3) 0.4941(5) 0.5496(5) 1. 0 
Pr1 Pr3+ 4 c 0.5064(1) 0.25 0.0771(2) 1. 0 
Cl1 Cl1- 4 c -.0068(5) 0.75 0.9272(8) 1. 0 
Cl2 Cl1- 4 c 0.7932(5) 0.25 0.3342(8) 1. 0 
Cl3 Cl1- 4 c 0.6817(6) 0.25 0.8721(9) 1. 0 
Cl4 Cl1- 8 d 0.5781(4) 0.5438(5) 0.1660(5) 1. 0 

loop_
_atom_site_aniso_label
_atom_site_aniso_type_symbol
_atom_site_aniso_U_11
_atom_site_aniso_U_22
_atom_site_aniso_U_33
_atom_site_aniso_U_12
_atom_site_aniso_U_13
_atom_site_aniso_U_23
K1 K1+ 0.0337(20) 0.0257(19) 0.0275(21) 0.0023(18) -.0013(16) -.0058(18)
Pr1 Pr3+ 0.0153(6) 0.0109(5) 0.0140(5) 0 0.0020(5) 0
Cl1 Cl1- 0.0264(27) 0.0253(25) 0.0171(23) 0 -.0020(27) 0
Cl2 Cl1- 0.0240(27) 0.0245(28) 0.0149(26) 0 -.0005(23) 0
Cl3 Cl1- 0.0282(32) 0.0285(31) 0.0264(32) 0 0.0053(26) 0
Cl4 Cl1- 0.0421(24) 0.0120(16) 0.0182(19) -.0017(17) -.0084(18) 0.0012(15)
#End of data_48190-ICSD


