data_62612-ICSD
#?2014 by Fachinformationszentrum Karlsruhe, and the U.S. Secretary of 
#Commerce on behalf of the United States.  All rights reserved.
_database_code_ICSD                62612
_audit_creation_date               1988/02/22
_audit_update_record               1997/11/10
_chemical_name_systematic
;
Dialuminium Chromium Beryllium Tetraoxide
;
_chemical_formula_structural       'Al2 Be O4'
_chemical_formula_sum              'Al2 Be1 O4'
_chemical_name_mineral             Chrysoberyl
_publ_section_title
;
Refinement of atomic structure of Alexandrite.
;
loop_
_citation_id
_citation_journal_abbrev
_citation_year
_citation_journal_volume
_citation_page_first
_citation_page_last
_citation_journal_id_ASTM
primary Kristallografiya 1985 30 480 483 KRISAJ
2 'Soviet Physics, Crystallography (= Kristallografiya)'
 1985 30 277 279 SPHCA6
_publ_author_name
;
Dudka, A.P.;Sevast'yanov, B.K.;Simonov, V.I.
;
_cell_length_a                     9.407(4)
_cell_length_b                     5.4781(5)
_cell_length_c                     4.4285(3)
_cell_angle_alpha                  90.
_cell_angle_beta                   90.
_cell_angle_gamma                  90.
_cell_volume                       228.21
_cell_formula_units_Z              4
_symmetry_space_group_name_H-M     'P n m a'
_symmetry_Int_Tables_number        62
_refine_ls_R_factor_all            .0123
loop_
_symmetry_equiv_pos_site_id
_symmetry_equiv_pos_as_xyz
  1	'x+.5, y, -z+.5'
  2	'x, -y+.5, z'
  3	'-x+.5, y+.5, z+.5'
  4	'-x, -y, -z'
  5	'-x+.5, -y, z+.5'
  6	'-x, y+.5, -z'
  7	'x+.5, -y+.5, -z+.5'
  8	'x, y, z'
loop_
_atom_type_symbol
_atom_type_oxidation_number
Al3+	3
Be2+	2
O2-	-2
loop_
_atom_site_label
_atom_site_type_symbol
_atom_site_symmetry_multiplicity
_atom_site_Wyckoff_symbol
_atom_site_fract_x
_atom_site_fract_y
_atom_site_fract_z
_atom_site_occupancy
_atom_site_attached_hydrogens
_atom_site_B_iso_or_equiv
Al1 Al3+ 4 a 0 0 0 1. 0 0.231 
Al2 Al3+ 4 c 0.27283(1) 0.25 -.00506(3) 1. 0 0.24 
Be1 Be2+ 4 c 0.09276(5) 0.25 0.43402(9) 1. 0 0.368 
O1 O2- 4 c 0.09031(2) 0.25 0.78779(5) 1. 0 0.248 
O2 O2- 4 c 0.43302(2) 0.25 0.24137(5) 1. 0 0.263 
O3 O2- 8 d 0.16330(2) 0.01529(3) 0.25687(3) 1. 0 0.273 

#End of data_62612-ICSD


