data_415483-ICSD
#?2014 by Fachinformationszentrum Karlsruhe, and the U.S. Secretary of 
#Commerce on behalf of the United States.  All rights reserved.
_database_code_ICSD                415483
_audit_creation_date               2006/10/01
_audit_update_record               2008/02/01
_chemical_name_systematic
;
Dipotassium Copper(I) Antimony Sulfide
;
_chemical_formula_structural       'K2 Cu Sb S3'
_chemical_formula_sum              'Cu1 K2 S3 Sb1'
_publ_section_title
;
Synthesis, structure, and electronic structure of K2 Cu Sb S3
;
loop_
_citation_id
_citation_journal_abbrev
_citation_year
_citation_journal_volume
_citation_page_first
_citation_page_last
_citation_journal_id_ASTM
primary 'Journal of Solid State Chemistry' 2005 178 3169 3175 JSSCBI
_publ_author_name
;
Deng, B.;Chan, G.-H.;Ellis, D.E.;van Duyne, R.P.;Ibers, J.A.
;
_cell_length_a                     6.2712(6)
_cell_length_b                     17.9470(17)
_cell_length_c                     7.4901(8)
_cell_angle_alpha                  90.00
_cell_angle_beta                   120.5730(10)
_cell_angle_gamma                  90.00
_cell_volume                       725.81
_cell_formula_units_Z              4
_symmetry_space_group_name_H-M     'P 1 21/c 1'
_symmetry_Int_Tables_number        14
_refine_ls_R_factor_all            .0252
loop_
_symmetry_equiv_pos_site_id
_symmetry_equiv_pos_as_xyz
  1	'x, -y+.5, z+.5'
  2	'-x, -y, -z'
  3	'-x, y+.5, -z+.5'
  4	'x, y, z'
loop_
_atom_type_symbol
_atom_type_oxidation_number
Cu1+	1
K1+	1
S2-	-2
Sb3+	3
loop_
_atom_site_label
_atom_site_type_symbol
_atom_site_symmetry_multiplicity
_atom_site_Wyckoff_symbol
_atom_site_fract_x
_atom_site_fract_y
_atom_site_fract_z
_atom_site_occupancy
_atom_site_attached_hydrogens
_atom_site_U_iso_or_equiv
K1 K1+ 4 e 0.08402(11) 0.38126(4) 0.14665(10) 1 0 0.01387(14) 
K2 K1+ 4 e 0.35655(11) 0.04214(3) 0.21114(10) 1 0 0.01210(14) 
Cu1 Cu1+ 4 e 0.38491(7) 0.22090(2) 0.43123(6) 1 0 0.01555(11) 
Sb1 Sb3+ 4 e 0.23570(3) 0.823883(10) 0.00543(3) 1 0 0.00848(8) 
S1 S2- 4 e 0.15831(13) 0.56302(4) 0.31367(11) 1 0 0.01151(15) 
S2 S2- 4 e 0.19114(13) 0.20786(4) 0.07877(11) 1 0 0.01020(15) 
S3 S2- 4 e 0.59297(12) 0.37562(4) 0.14920(11) 1 0 0.00985(15) 

loop_
_atom_site_aniso_label
_atom_site_aniso_type_symbol
_atom_site_aniso_U_11
_atom_site_aniso_U_22
_atom_site_aniso_U_33
_atom_site_aniso_U_12
_atom_site_aniso_U_13
_atom_site_aniso_U_23
K1 K1+ 0.0127(3) 0.0167(3) 0.0140(3) 0.0028(2) 0.0081(3) 0.0030(2)
K2 K1+ 0.0131(3) 0.0106(3) 0.0136(3) -0.0003(2) 0.0074(3) -0.0007(2)
Cu1 Cu1+ 0.0225(2) 0.0141(2) 0.0096(2) 0.00459(15) 0.00789(17) 0.00217(14)
Sb1 Sb3+ 0.00860(11) 0.00850(12) 0.00895(12) 0.00028(6) 0.00491(9) 
-0.00052(6)
S1 S2- 0.0128(3) 0.0123(4) 0.0105(4) 0.0012(3) 0.0066(3) -0.0010(3)
S2 S2- 0.0105(3) 0.0126(4) 0.0080(3) -0.0029(3) 0.0051(3) -0.0004(3)
S3 S2- 0.0097(3) 0.0099(3) 0.0087(3) -0.0005(3) 0.0038(3) 0.0000(2)
#End of data_415483-ICSD


