data_157114-ICSD
#?2014 by Fachinformationszentrum Karlsruhe, and the U.S. Secretary of 
#Commerce on behalf of the United States.  All rights reserved.
_database_code_ICSD                157114
_audit_creation_date               2008/02/01
_chemical_name_systematic          'Calcium Ruthenate(IV)'
_chemical_formula_structural       'Ca (Ru O3)'
_chemical_formula_sum              'Ca1 O3 Ru1'
_publ_section_title
;
Structural, electronic and magnetic properties of Sr Ru O3 under 
epitaxial strain
;
loop_
_citation_id
_citation_journal_abbrev
_citation_year
_citation_journal_volume
_citation_page_first
_citation_page_last
_citation_journal_id_ASTM
primary 'Physical Review, Serie 3. B - Condensed Matter (18,1978-)'
 2006 74 094104-1 094104-11 PRBMDO
_publ_author_name
;
Zayak, A.T.;Huang, X.;Neaton, J.B.;Rabe, K.M.
;
_cell_length_a                     5.2090
_cell_length_b                     5.5297
_cell_length_c                     7.5512
_cell_angle_alpha                  90.
_cell_angle_beta                   90.
_cell_angle_gamma                  90.
_cell_volume                       217.51
_cell_formula_units_Z              4
_symmetry_space_group_name_H-M     'P b n m'
_symmetry_Int_Tables_number        62
loop_
_symmetry_equiv_pos_site_id
_symmetry_equiv_pos_as_xyz
  1	'-x+.5, y+.5, z'
  2	'x, y, -z+.5'
  3	'x+.5, -y+.5, z+.5'
  4	'-x, -y, -z'
  5	'x+.5, -y+.5, -z'
  6	'-x, -y, z+.5'
  7	'-x+.5, y+.5, -z+.5'
  8	'x, y, z'
loop_
_atom_type_symbol
_atom_type_oxidation_number
Ca2+	2
O2-	-2
Ru4+	4
loop_
_atom_site_label
_atom_site_type_symbol
_atom_site_symmetry_multiplicity
_atom_site_Wyckoff_symbol
_atom_site_fract_x
_atom_site_fract_y
_atom_site_fract_z
_atom_site_occupancy
_atom_site_attached_hydrogens
Ca1 Ca2+ 4 c -0.0211 0.0645 0.250 1. 0 
Ru1 Ru4+ 4 b 0.5 0 0 1. 0 
O1 O2- 8 d 0.6929 0.2996 0.0519 1. 0 
O2 O2- 4 c 0.1034 0.4665 0.250 1. 0 

#End of data_157114-ICSD


