data_100001-ICSD
#?2014 by Fachinformationszentrum Karlsruhe, and the U.S. Secretary of 
#Commerce on behalf of the United States.  All rights reserved.
_database_code_ICSD                100001
_audit_creation_date               1980/01/01
_audit_update_record               1999/11/30
_chemical_name_systematic          'Potassium Dithiotricuprate(I)'
_chemical_formula_structural       'K Cu3 S2'
_chemical_formula_sum              'Cu3 K1 S2'
_publ_section_title                'K Cu3 S2, ein neues Thiocuprat'
loop_
_citation_id
_citation_journal_abbrev
_citation_year
_citation_journal_volume
_citation_page_first
_citation_page_last
_citation_journal_id_ASTM
primary
;
Zeitschrift fuer Naturforschung, Teil B. Anorganische Chemie, 
Organische Chemie (2,1947-32,1977)
;
 1977 32 11 14 ZENBAX
_publ_author_name                  'Burschka, C.;Bronger, W.'
_cell_length_a                     14.773
_cell_length_b                     3.946
_cell_length_c                     8.182
_cell_angle_alpha                  90.
_cell_angle_beta                   113.5
_cell_angle_gamma                  90.
_cell_volume                       437.4
_cell_formula_units_Z              4
_symmetry_space_group_name_H-M     'C 1 2/m 1'
_symmetry_Int_Tables_number        12
_refine_ls_R_factor_all            .058
loop_
_symmetry_equiv_pos_site_id
_symmetry_equiv_pos_as_xyz
  1	'-x, y, -z'
  2	'-x, -y, -z'
  3	'x, -y, z'
  4	'x, y, z'
  5	'-x+.5, y+.5, -z'
  6	'-x+.5, -y+.5, -z'
  7	'x+.5, -y+.5, z'
  8	'x+.5, y+.5, z'
loop_
_atom_type_symbol
_atom_type_oxidation_number
Cu1+	1
K1+	1
S2-	-2
loop_
_atom_site_label
_atom_site_type_symbol
_atom_site_symmetry_multiplicity
_atom_site_Wyckoff_symbol
_atom_site_fract_x
_atom_site_fract_y
_atom_site_fract_z
_atom_site_occupancy
_atom_site_attached_hydrogens
K1 K1+ 4 i 0.1346(3) 0 0.0433(6) 1. 0 
Cu1 Cu1+ 4 i 0.0964(2) 0.5 0.6436(3) 1. 0 
Cu2 Cu1+ 4 i 0.1884(2) 0.5 0.4265(4) 1. 0 
Cu3 Cu1+ 4 i 0.0606(2) 0 0.4021(3) 1. 0 
S1 S2- 4 i 0.1953(3) 0 0.6847(6) 1. 0 
S2 S2- 4 i 0.5204(3) 0 0.2395(6) 1. 0 

loop_
_atom_site_aniso_label
_atom_site_aniso_type_symbol
_atom_site_aniso_U_11
_atom_site_aniso_U_22
_atom_site_aniso_U_33
_atom_site_aniso_U_12
_atom_site_aniso_U_13
_atom_site_aniso_U_23
K1 K1+ 0.021(2) 0.020(2) 0.019(2) 0 0.007(1) 0
Cu1 Cu1+ 0.023(1) 0.024(1) 0.025(1) 0 0.016(1) 0
Cu2 Cu1+ 0.019(1) 0.027(1) 0.036(2) 0 0.016(1) 0
Cu3 Cu1+ 0.029(1) 0.024(1) 0.018(1) 0 0.012(1) 0
S1 S2- 0.011(2) 0.014(2) 0.017(2) 0 0.006(2) 0
S2 S2- 0.012(2) 0.014(2) 0.016(2) 0 0.008(2) 0
#End of data_100001-ICSD


