data_34872-ICSD
#?2014 by Fachinformationszentrum Karlsruhe, and the U.S. Secretary of 
#Commerce on behalf of the United States.  All rights reserved.
_database_code_ICSD                34872
_audit_creation_date               1980/01/01
_audit_update_record               1999/06/02
_chemical_name_systematic          'Sodium Tecto-alumotrisilicate'
_chemical_formula_structural       'Na Al Si3 O8'
_chemical_formula_sum              'Al1 Na1 O8 Si3'
_chemical_name_mineral             'Albite low'
_publ_section_title
;
A high-temperature study of the thermal expansion and the anisotropy 
of the sodium atom in low albite
;
loop_
_citation_id
_citation_journal_abbrev
_citation_year
_citation_journal_volume
_citation_page_first
_citation_page_last
_citation_journal_id_ASTM
primary 'American Mineralogist' 1977 62 921 931 AMMIAY
_publ_author_name
;
Winter, J.K.;Ghose, S.;Okamura, F.P.
;
_cell_length_a                     8.277(1)
_cell_length_b                     12.860(2)
_cell_length_c                     7.181(1)
_cell_angle_alpha                  93.33(1)
_cell_angle_beta                   116.15(1)
_cell_angle_gamma                  87.56(1)
_cell_volume                       684.84
_cell_formula_units_Z              4
_symmetry_space_group_name_H-M     'C -1'
_symmetry_Int_Tables_number        2
_refine_ls_R_factor_all            .039
loop_
_symmetry_equiv_pos_site_id
_symmetry_equiv_pos_as_xyz
  1	'-x, -y, -z'
  2	'x, y, z'
  3	'-x+.5, -y+.5, -z'
  4	'x+.5, y+.5, z'
loop_
_atom_type_symbol
_atom_type_oxidation_number
Al3+	3
Na1+	1
O2-	-2
Si4+	4
loop_
_atom_site_label
_atom_site_type_symbol
_atom_site_symmetry_multiplicity
_atom_site_Wyckoff_symbol
_atom_site_fract_x
_atom_site_fract_y
_atom_site_fract_z
_atom_site_occupancy
_atom_site_attached_hydrogens
Na1 Na1+ 4 i 0.2782(3) 0.9883(2) 0.1468(4) 1. 0 
Al1 Al3+ 4 i 0.0098(1) 0.1747(1) 0.2113(1) 1. 0 
Si1 Si4+ 4 i 0.0058(1) 0.8200(1) 0.2370(1) 1. 0 
Si2 Si4+ 4 i 0.6997(1) 0.1135(1) 0.3252(1) 1. 0 
Si3 Si4+ 4 i 0.6911(1) 0.8830(1) 0.3596(1) 1. 0 
O1 O2- 4 i 0.0045(3) 0.1371(2) 0.9717(3) 1. 0 
O2 O2- 4 i 0.6078(2) 0.0001(3) 0.2841(3) 1. 0 
O3 O2- 4 i 0.8155(3) 0.1223(2) 0.2012(4) 1. 0 
O4 O2- 4 i 0.8252(3) 0.8531(3) 0.2549(4) 1. 0 
O5 O2- 4 i 0.0225(3) 0.3080(1) 0.2679(3) 1. 0 
O6 O2- 4 i 0.0298(3) 0.6947(1) 0.2466(3) 1. 0 
O7 O2- 4 i 0.2014(3) 0.1136(2) 0.3934(3) 1. 0 
O8 O2- 4 i 0.1795(3) 0.8706(2) 0.4280(3) 1. 0 

#End of data_34872-ICSD


