data_30445-ICSD
#?2014 by Fachinformationszentrum Karlsruhe, and the U.S. Secretary of 
#Commerce on behalf of the United States.  All rights reserved.
_database_code_ICSD                30445
_audit_creation_date               1980/01/01
_audit_update_record               2011/08/01
_chemical_name_systematic          'Silver Sulfide - Alpha'
_chemical_formula_structural       'Ag2 S'
_chemical_formula_sum              'Ag2 S1'
_chemical_name_mineral             Acanthite
_publ_section_title
;
X-ray study on the alpha - beta transition of Ag2 O
;
loop_
_citation_id
_citation_journal_abbrev
_citation_year
_citation_journal_volume
_citation_page_first
_citation_page_last
_citation_journal_id_ASTM
primary 'Mineralogical Journal (Japan)' 1967 5 124 148 MJTOAS
_publ_author_name                  'Sadanaga, R.;Sueno, S.'
_cell_length_a                     4.231
_cell_length_b                     6.93
_cell_length_c                     9.526
_cell_angle_alpha                  90.
_cell_angle_beta                   125.48
_cell_angle_gamma                  90.
_cell_volume                       227.45
_cell_formula_units_Z              4
_symmetry_space_group_name_H-M     'P 1 21/c 1'
_symmetry_Int_Tables_number        14
_refine_ls_R_factor_all            .168
loop_
_symmetry_equiv_pos_site_id
_symmetry_equiv_pos_as_xyz
  1	'x, -y+.5, z+.5'
  2	'-x, -y, -z'
  3	'-x, y+.5, -z+.5'
  4	'x, y, z'
loop_
_atom_type_symbol
_atom_type_oxidation_number
Ag1+	1
S2-	-2
loop_
_atom_site_label
_atom_site_type_symbol
_atom_site_symmetry_multiplicity
_atom_site_Wyckoff_symbol
_atom_site_fract_x
_atom_site_fract_y
_atom_site_fract_z
_atom_site_occupancy
_atom_site_attached_hydrogens
_atom_site_B_iso_or_equiv
Ag1 Ag1+ 4 e 0.0712(11) 0.0169(8) 0.3075(5) 1. 0 4.27(9) 
Ag2 Ag1+ 4 e 0.7259(9) 0.3213(8) 0.4362(4) 1. 0 3.65(8) 
S1 S2- 4 e 0.5000(25) 0.2383(19) 0.1306(11) 1. 0 1.96(17) 

#End of data_30445-ICSD


