data_73326-ICSD
#?2014 by Fachinformationszentrum Karlsruhe, and the U.S. Secretary of 
#Commerce on behalf of the United States.  All rights reserved.
_database_code_ICSD                73326
_audit_creation_date               1994/01/19
_chemical_name_systematic          'Potassium Tetrathioniobate'
_chemical_formula_structural       'K3 (Nb S4)'
_chemical_formula_sum              'K3 Nb1 S4'
_publ_section_title
;
Syntheses and structures of K3MQ4(M=Nb,Ta;Q=S,Se)
;
loop_
_citation_id
_citation_journal_abbrev
_citation_year
_citation_journal_volume
_citation_page_first
_citation_page_last
_citation_journal_id_ASTM
primary 'Inorganic Chemistry' 1990 29 1503 1505 INOCAJ
_publ_author_name                  'Latroche, M.;Ibers, J.A.'
_cell_length_a                     9.214(8)
_cell_length_b                     10.484(6)
_cell_length_c                     9.319(7)
_cell_angle_alpha                  90.
_cell_angle_beta                   90.
_cell_angle_gamma                  90.
_cell_volume                       900.21
_cell_formula_units_Z              4
_symmetry_space_group_name_H-M     'P n m a'
_symmetry_Int_Tables_number        62
_refine_ls_R_factor_all            .106
loop_
_symmetry_equiv_pos_site_id
_symmetry_equiv_pos_as_xyz
  1	'x+.5, y, -z+.5'
  2	'x, -y+.5, z'
  3	'-x+.5, y+.5, z+.5'
  4	'-x, -y, -z'
  5	'-x+.5, -y, z+.5'
  6	'-x, y+.5, -z'
  7	'x+.5, -y+.5, -z+.5'
  8	'x, y, z'
loop_
_atom_type_symbol
_atom_type_oxidation_number
K1+	1
Nb5+	5
S2-	-2
loop_
_atom_site_label
_atom_site_type_symbol
_atom_site_symmetry_multiplicity
_atom_site_Wyckoff_symbol
_atom_site_fract_x
_atom_site_fract_y
_atom_site_fract_z
_atom_site_occupancy
_atom_site_attached_hydrogens
_atom_site_B_iso_or_equiv
Nb1 Nb5+ 4 c 0.21274(22) 0.75 0.51473(24) 1. 0 3.15(7) 
K1 K1+ 8 d 0.05566(38) 0.45556(51) 0.28834(42) 1. 0 3.6(1) 
K2 K1+ 4 c 0.13557(61) 0.75 0.0797(7) 1. 0 4.4(2) 
S1 S2- 4 c 0.98943(65) 0.75 0.41519(69) 1. 0 3.3(2) 
S2 S2- 4 c 0.19154(71) 0.75 0.75429(79) 1. 0 4.0(2) 
S3 S2- 8 d 0.33272(46) 0.57233(63) 0.44883(51) 1. 0 3.8(1) 

#End of data_73326-ICSD


