data_51506-ICSD
#?2014 by Fachinformationszentrum Karlsruhe, and the U.S. Secretary of 
#Commerce on behalf of the United States.  All rights reserved.
_database_code_ICSD                51506
_audit_creation_date               2003/04/01
_chemical_name_systematic          'Silver Hexafluorotitanate'
_chemical_formula_structural       'Ag (Ti F6)'
_chemical_formula_sum              'Ag1 F6 Ti1'
_publ_section_title
;
Synthese und Kristallstruktur von Silber(II)-Fluoriden Ag M(IV) F6 
(M(IV) = Sn, Ti, Pb, Pd, Pt, Rh)
;
loop_
_citation_id
_citation_journal_abbrev
_citation_year
_citation_journal_volume
_citation_page_first
_citation_page_last
_citation_journal_id_ASTM
primary 'Zeitschrift fuer Anorganische und Allgemeine Chemie (1950) (DE)'
 2001 627 445 452 ZAACAB
_publ_author_name                  'Fischer, R.;Mueller, B.G.'
_cell_length_a                     5.160
_cell_length_b                     5.161
_cell_length_c                     5.675
_cell_angle_alpha                  116.98
_cell_angle_beta                   91.27
_cell_angle_gamma                  118.47
_cell_volume                       112.78
_cell_formula_units_Z              1
_symmetry_space_group_name_H-M     'P -1'
_symmetry_Int_Tables_number        2
_refine_ls_R_factor_all            .1227
loop_
_symmetry_equiv_pos_site_id
_symmetry_equiv_pos_as_xyz
  1	'-x, -y, -z'
  2	'x, y, z'
loop_
_atom_type_symbol
_atom_type_oxidation_number
Ag2+	2
F1-	-1
Ti4+	4
loop_
_atom_site_label
_atom_site_type_symbol
_atom_site_symmetry_multiplicity
_atom_site_Wyckoff_symbol
_atom_site_fract_x
_atom_site_fract_y
_atom_site_fract_z
_atom_site_occupancy
_atom_site_attached_hydrogens
Ag1 Ag2+ 1 a 0.0 0.0 0.0 1. 0 
Ti1 Ti4+ 1 f 0.5 0.0 0.5 1. 0 
F1 F1- 2 i 0.2685(41) 0.8775(34) 0.7277(32) 1. 0 
F2 F1- 2 i 0.8632(33) 0.1258(31) 0.7329(30) 1. 0 
F3 F1- 2 i 0.5802(36) 0.4397(34) 0.7236(33) 1. 0 

loop_
_atom_site_aniso_label
_atom_site_aniso_type_symbol
_atom_site_aniso_U_11
_atom_site_aniso_U_22
_atom_site_aniso_U_33
_atom_site_aniso_U_12
_atom_site_aniso_U_13
_atom_site_aniso_U_23
Ag1 Ag2+ 0.0126(11) 0.0018(10) 0.0095(11) -0.0011(8) -0.0030(9) -0.0016(8)
Ti1 Ti4+ 0.0723(46) 0.0129(29) 0.0188(34) 0.0207(31) -0.0074(33) 
-0.0033(25)
F1 F1- 0.1794(80) 0.0377(59) 0.0376(67) 0.0623(60) -0.0197(68) 0.0070(51)
F2 F1- 0.0837(70) 0.0207(55) 0.0485(68) 0.0232(53) -0.0262(62) 0.0038(50)
F3 F1- 0.0971(72) 0.0347(60) 0.0654(74) 0.0465(56) -0.0459(66) -0.0388(57)
#End of data_51506-ICSD


