data_407356-ICSD
#?2014 by Fachinformationszentrum Karlsruhe, and the U.S. Secretary of 
#Commerce on behalf of the United States.  All rights reserved.
_database_code_ICSD                407356
_audit_creation_date               2000/07/15
_audit_update_record               2002/04/01
_chemical_name_systematic
;
Potassium Aquabis(phosphato(V))hydroxodialuminate Hydrate
;
_chemical_formula_structural
;
K (Al2 (P O4)2 (O H) (H2 O)) (H2 O)
;
_chemical_formula_sum              'H5 Al2 K1 O11 P2'
_chemical_name_mineral             Tinsleyite
_publ_section_title
;
Ueber die Struktur von synthetischem Tinsleyit K(Al2(PO4)2 
(OH)(H2O)).(H2O)
;
loop_
_citation_id
_citation_journal_abbrev
_citation_year
_citation_journal_volume
_citation_page_first
_citation_page_last
_citation_journal_id_ASTM
primary 'Zeitschrift fuer Naturforschung, B: Chemical Sciences'
 1999 54 1385 1390 ZNBSEN
_publ_author_name                  'Dick, S.'
_cell_length_a                     9.499(2)
_cell_length_b                     9.503(2)
_cell_length_c                     9.535(2)
_cell_angle_alpha                  90.
_cell_angle_beta                   103.26(3)
_cell_angle_gamma                  90.
_cell_volume                       837.77
_cell_formula_units_Z              4
_symmetry_space_group_name_H-M     'P 1 21/n 1'
_symmetry_Int_Tables_number        14
_refine_ls_R_factor_all            .071
loop_
_symmetry_equiv_pos_site_id
_symmetry_equiv_pos_as_xyz
  1	'-x+.5, y+.5, -z+.5'
  2	'-x, -y, -z'
  3	'x+.5, -y+.5, z+.5'
  4	'x, y, z'
loop_
_atom_type_symbol
_atom_type_oxidation_number
Al3+	3
H1+	1
K1+	1
O2-	-2
P5+	5
loop_
_atom_site_label
_atom_site_type_symbol
_atom_site_symmetry_multiplicity
_atom_site_Wyckoff_symbol
_atom_site_fract_x
_atom_site_fract_y
_atom_site_fract_z
_atom_site_occupancy
_atom_site_attached_hydrogens
_atom_site_U_iso_or_equiv
K1 K1+ 4 e 0.5188(3) 0.1960(3) 0.8977(2) 1. 0 0.028(1) 
Al1 Al3+ 4 e 0.3908(3) 0.5453(3) 0.3709(3) 1. 0 0.011(1) 
Al2 Al3+ 4 e 0.6019(3) 0.2252(3) 0.3105(2) 1. 0 0.010(1) 
P1 P5+ 4 e 0.79514 0.02612 0.14815 1. 0 0.010(1) 
P2 P5+ 4 e 0.79103 0.1851 0.63329 1. 0 0.010(1) 
O1 O2- 4 e 0.94717 0.08814 0.20296 1. 0 0.013(2) 
O2 O2- 4 e 0.6789 0.11851 0.18519 1. 0 0.013(2) 
O3 O2- 4 e 0.75986 0.01099 -.01789 1. 0 0.011(2) 
O4 O2- 4 e 0.71242 0.38125 0.28391 1. 0 0.011(2) 
O5 O2- 4 e 0.94648 0.234 0.66235 1. 0 0.016(2) 
O6 O2- 4 e 0.78346 0.03978 0.70539 1. 0 0.013(2) 
O7 O2- 4 e 0.69725 0.28635 0.69465 1. 0 0.014(2) 
O8 O2- 4 e 0.73854 0.16728 0.47174 1. 0 0.015(2) 
O9 O2- 4 e 0.49944 0.36383 0.44316 1. 0 0.011(2) 
O10 O2- 4 e 0.49303 0.06135 0.34982 1. 0 0.024(2) 
O11 O2- 4 e 0.30705 0.14881 0.53403 1. 0 0.027(2) 
H1 H1+ 4 e 0.43851 0.32925 0.4961 1. 0 0 
H2 H1+ 4 e 0.5343 -.02601 0.36811 1. 0 0 
H3 H1+ 4 e 0.4184 0.0177 0.2803 1. 0 0 
H4 H1+ 4 e 0.28691 0.06156 0.48116 1. 0 0 
H5 H1+ 4 e 0.26617 0.12571 0.62203 1. 0 0 

#End of data_407356-ICSD


