data_155159-ICSD
#?2014 by Fachinformationszentrum Karlsruhe, and the U.S. Secretary of 
#Commerce on behalf of the United States.  All rights reserved.
_database_code_ICSD                155159
_audit_creation_date               2007/04/01
_chemical_name_systematic
;
Cesium Silver(II) Hexafluoroaluminate
;
_chemical_formula_structural       'Cs Ag (Al F6)'
_chemical_formula_sum              'Ag1 Al1 Cs1 F6'
_publ_section_title
;
Zur Struktur quaternaerer Fluoride mit zweiwertigem Silber: Me(I) 
Ag(II) Me(III) F6 mit Me(I) = Rb, Cs und Me(III) = Al, Ga, Fe
;
loop_
_citation_id
_citation_journal_abbrev
_citation_year
_citation_journal_volume
_citation_page_first
_citation_page_last
_citation_journal_id_ASTM
primary 'Journal of Fluorine Chemistry' 1981 17 317 329 JFLCAR
_publ_author_name                  'Mueller, B.G.'
_cell_length_a                     7.380
_cell_length_b                     7.241
_cell_length_c                     10.352
_cell_angle_alpha                  90.
_cell_angle_beta                   90.
_cell_angle_gamma                  90.
_cell_volume                       553.2
_cell_formula_units_Z              4
_symmetry_space_group_name_H-M     'P n m a'
_symmetry_Int_Tables_number        62
_refine_ls_R_factor_all            .073
loop_
_symmetry_equiv_pos_site_id
_symmetry_equiv_pos_as_xyz
  1	'x+.5, y, -z+.5'
  2	'x, -y+.5, z'
  3	'-x+.5, y+.5, z+.5'
  4	'-x, -y, -z'
  5	'-x+.5, -y, z+.5'
  6	'-x, y+.5, -z'
  7	'x+.5, -y+.5, -z+.5'
  8	'x, y, z'
loop_
_atom_type_symbol
_atom_type_oxidation_number
Ag2+	2
Al3+	3
Cs1+	1
F1-	-1
loop_
_atom_site_label
_atom_site_type_symbol
_atom_site_symmetry_multiplicity
_atom_site_Wyckoff_symbol
_atom_site_fract_x
_atom_site_fract_y
_atom_site_fract_z
_atom_site_occupancy
_atom_site_attached_hydrogens
Cs1 Cs1+ 4 c 0.4787(2) 0.250 0.1327(1) 1. 0 
Ag1 Ag2+ 4 c 0.2835(2) 0.250 0.7549(2) 1. 0 
Al1 Al3+ 4 a 0 0 0 1. 0 
F1 F1- 4 c 0.0356(14) 0.250 0.6590(9) 1. 0 
F2 F1- 4 c 0.4621(14) 0.250 0.4928(13) 1. 0 
F3 F1- 8 d 0.1307(9) 0.0104(10) 0.1439(7) 1. 0 
F4 F1- 8 d 0.1981(10) 0.0332(10) 0.9044(7) 1. 0 

loop_
_atom_site_aniso_label
_atom_site_aniso_type_symbol
_atom_site_aniso_U_11
_atom_site_aniso_U_22
_atom_site_aniso_U_33
_atom_site_aniso_U_12
_atom_site_aniso_U_13
_atom_site_aniso_U_23
Cs1 Cs1+ 0.0211(6) 0.0245(6) 0.0250(6) 0.0000 -0.0019(5) 0.0000
Ag1 Ag2+ 0.0170(5) 0.0168(6) 0.0220(7) 0.0000 -0.0002(5) 0.0000
Al1 Al3+ 0.0141(24) 0.0116(20) 0.0133(20) -0.0026(16) -0.0001(18) 
0.0010(18)
F1 F1- 0.0173(39) 0.0326(44) 0.0145(40) 0.0000 -0.0003(32) 0.0000
F2 F1- 0.0210(41) 0.0089(36) 0.0518(50) 0.0000 -0.0076(44) 0.0000
F3 F1- 0.0289(33) 0.0213(33) 0.0193(30) 0.0033(30) -0.0095(28) -0.0014(30)
F4 F1- 0.0250(33) 0.0215(34) 0.0257(33) 0.0040(30) 0.0091(29) 0.0019(30)
#End of data_155159-ICSD


