data_411094-ICSD
#?2014 by Fachinformationszentrum Karlsruhe, and the U.S. Secretary of 
#Commerce on behalf of the United States.  All rights reserved.
_database_code_ICSD                411094
_audit_creation_date               2002/04/01
_audit_update_record               2012/02/01
_chemical_name_systematic          'Dipotassium Cyanamide'
_chemical_formula_structural       'K2 (C N2)'
_chemical_formula_sum              'C1 K2 N2'
_publ_section_title
;
Synthesis of potassium cyanamide, and crystal structure determination 
by pareto optimisation of the cost functions 'lattice energy' and 
'powder intensities'
;
loop_
_citation_id
_citation_journal_abbrev
_citation_year
_citation_journal_volume
_citation_page_first
_citation_page_last
_citation_journal_id_ASTM
primary 'Solid State Sciences' 2000 2 711 715 SSSCFJ
_publ_author_name                  'Becker, M.;Jansen, M.'
_cell_length_a                     5.7877(1)
_cell_length_b                     5.7030(1)
_cell_length_c                     5.7857(2)
_cell_angle_alpha                  90.
_cell_angle_beta                   109.016(1)
_cell_angle_gamma                  90.
_cell_volume                       180.55
_cell_formula_units_Z              2
_symmetry_space_group_name_H-M     'C 1 2/m 1'
_symmetry_Int_Tables_number        12
_refine_ls_R_factor_all            .0482
loop_
_symmetry_equiv_pos_site_id
_symmetry_equiv_pos_as_xyz
  1	'-x, y, -z'
  2	'-x, -y, -z'
  3	'x, -y, z'
  4	'x, y, z'
  5	'-x+.5, y+.5, -z'
  6	'-x+.5, -y+.5, -z'
  7	'x+.5, -y+.5, z'
  8	'x+.5, y+.5, z'
loop_
_atom_type_symbol
_atom_type_oxidation_number
C4+	4
K1+	1
N3-	-3
loop_
_atom_site_label
_atom_site_type_symbol
_atom_site_symmetry_multiplicity
_atom_site_Wyckoff_symbol
_atom_site_fract_x
_atom_site_fract_y
_atom_site_fract_z
_atom_site_occupancy
_atom_site_attached_hydrogens
_atom_site_B_iso_or_equiv
K1 K1+ 4 i 0.8271(3) 0.5 0.7145(3) 1. 0 1.42(2) 
N1 N3- 4 i 0.6467(5) 0.5 0.2097(3) 1. 0 2.45(1) 
C1 C4+ 2 a 0.5 0.5 0 1. 0 0.84(4) 

#End of data_411094-ICSD


