data_6215-ICSD
#?2014 by Fachinformationszentrum Karlsruhe, and the U.S. Secretary of 
#Commerce on behalf of the United States.  All rights reserved.
_database_code_ICSD                6215
_audit_creation_date               1980/01/01
_audit_update_record               2005/10/01
_chemical_name_systematic
;
Calcium Phyllo-undecaoxotetraphosphate(V)
;
_chemical_formula_structural       'Ca (P4 O11)'
_chemical_formula_sum              'Ca1 O11 P4'
_publ_section_title
;
Structure cristalline de 'ultraphosphate de calcium. Ca P4 O11
;
loop_
_citation_id
_citation_journal_abbrev
_citation_year
_citation_journal_volume
_citation_page_first
_citation_page_last
_citation_journal_id_ASTM
primary
;
Zeitschrift fuer Kristallographie, Kristallgeometrie, Kristallphysik, 
Kristallchemie (-144,1977)
;
 1974 140 145 153 ZEKGAX
2 'Golden Book of Phase Transitions, Wroclaw' 2002 1 1 123 GBOPT5
_publ_author_name
;
Tordjman, I.;Bagieu Beucher, M.;Zilber, R.
;
_cell_length_a                     8.856
_cell_length_b                     12.72
_cell_length_c                     12.148
_cell_angle_alpha                  90.
_cell_angle_beta                   134.26
_cell_angle_gamma                  90.
_cell_volume                       980.06
_cell_formula_units_Z              4
_symmetry_space_group_name_H-M     'P 1 21/c 1'
_symmetry_Int_Tables_number        14
_refine_ls_R_factor_all            .06
loop_
_symmetry_equiv_pos_site_id
_symmetry_equiv_pos_as_xyz
  1	'x, -y+.5, z+.5'
  2	'-x, -y, -z'
  3	'-x, y+.5, -z+.5'
  4	'x, y, z'
loop_
_atom_type_symbol
_atom_type_oxidation_number
Ca2+	2
O2-	-2
P5+	5
loop_
_atom_site_label
_atom_site_type_symbol
_atom_site_symmetry_multiplicity
_atom_site_Wyckoff_symbol
_atom_site_fract_x
_atom_site_fract_y
_atom_site_fract_z
_atom_site_occupancy
_atom_site_attached_hydrogens
_atom_site_B_iso_or_equiv
Ca1 Ca2+ 4 e 0.4970(4) 0.0283(2) 0.2318(6) 1. 0 0.76 
P1 P5+ 4 e 0.1407(5) 0.5018(2) 0.3154(7) 1. 0 0.35 
P2 P5+ 4 e 0.1529(5) 0.1595(3) 0.2611(7) 1. 0 0.49 
P3 P5+ 4 e 0.8483(5) 0.1636(3) 0.6158(7) 1. 0 0.43 
P4 P5+ 4 e 0.5021(5) 0.2876(3) 0.0959(7) 1. 0 0.58 
O1 O2- 4 e 0.033(1) 0.0959(6) 0.287(2) 1. 0 0.1 
O2 O2- 4 e 0.014(1) 0.9020(7) 0.231(2) 1. 0 0.6 
O3 O2- 4 e -.004(1) 0.2488(7) 0.139(2) 1. 0 0.6 
O4 O2- 4 e 0.320(1) 0.2244(8) 0.410(2) 1. 0 0.9 
O5 O2- 4 e 0.707(1) 0.2309(8) 0.624(2) 1. 0 1. 
O6 O2- 4 e 0.255(1) 0.5255(8) 0.473(2) 1. 0 1.3 
O7 O2- 4 e 0.240(1) 0.4837(8) 0.260(2) 1. 0 1.2 
O8 O2- 4 e 0.229(2) 0.0969(9) 0.210(2) 1. 0 2.1 
O9 O2- 4 e 0.261(1) 0.8937(8) 0.526(2) 1. 0 1.3 
O10 O2- 4 e 0.487(2) 0.3030(9) 0.676(2) 1. 0 2.5 
O11 O2- 4 e 0.503(2) 0.1024(8) 0.637(2) 1. 0 1.8 

#End of data_6215-ICSD


