data_24051-ICSD
#?2014 by Fachinformationszentrum Karlsruhe, and the U.S. Secretary of 
#Commerce on behalf of the United States.  All rights reserved.
_database_code_ICSD                24051
_audit_creation_date               1980/01/01
_audit_update_record               2011/02/01
_chemical_name_systematic          'Lithium Antimony(V) Oxide'
_chemical_formula_structural       'Li Sb O3'
_chemical_formula_sum              'Li1 O3 Sb1'
_publ_section_title
;
The crystal structure of the double lithium antimony(V) oxide Li Sb 
O3
;
loop_
_citation_id
_citation_journal_abbrev
_citation_year
_citation_journal_volume
_citation_page_first
_citation_page_last
_citation_journal_id_ASTM
primary 'Acta Chemica Scandinavica (1-27,1973-42,1988)' 1954 8 1021 1031 ACSAA4
2 'Journal of Solid State Chemistry' 1989 82 272 278 JSSCBI
_publ_author_name                  'Edstrand, M.;Ingri, N.'
_cell_length_a                     5.183(3)
_cell_length_b                     4.893(2)
_cell_length_c                     8.491(5)
_cell_angle_alpha                  90.
_cell_angle_beta                   90.
_cell_angle_gamma                  90.
_cell_volume                       215.34
_cell_formula_units_Z              4
_symmetry_space_group_name_H-M     'P n n a'
_symmetry_Int_Tables_number        52
_refine_ls_R_factor_all            .15
loop_
_symmetry_equiv_pos_site_id
_symmetry_equiv_pos_as_xyz
  1	'x+.5, -y+.5, z+.5'
  2	'-x, y+.5, z+.5'
  3	'x+.5, y, -z'
  4	'-x, -y, -z'
  5	'-x+.5, y+.5, -z+.5'
  6	'x, -y+.5, -z+.5'
  7	'-x+.5, -y, z'
  8	'x, y, z'
loop_
_atom_type_symbol
_atom_type_oxidation_number
Li1+	1
O2-	-2
Sb5+	5
loop_
_atom_site_label
_atom_site_type_symbol
_atom_site_symmetry_multiplicity
_atom_site_Wyckoff_symbol
_atom_site_fract_x
_atom_site_fract_y
_atom_site_fract_z
_atom_site_occupancy
_atom_site_attached_hydrogens
Li1 Li1+ 4 c 0.25 0 0.73 1. 0 
Sb1 Sb5+ 4 c 0.25 0 0.0971 1. 0 
O1 O2- 4 d 0.444 0.25 0.25 1. 0 
O2 O2- 8 e 0.907 0.209 0.081 1. 0 

#End of data_24051-ICSD


