data_66092-ICSD
#?2014 by Fachinformationszentrum Karlsruhe, and the U.S. Secretary of 
#Commerce on behalf of the United States.  All rights reserved.
_database_code_ICSD                66092
_audit_creation_date               1994/01/19
_audit_update_record               2012/08/01
_chemical_name_systematic          'Tetrabarium Disodium Decaniobate'
_chemical_formula_structural       'Ba4 Na2 (Nb10 O30)'
_chemical_formula_sum              'Ba4 Na2 Nb10 O30'
_publ_section_title
;
X-ray structural determination of the quasi-commensurate phase of 
barium sodium niobate
;
loop_
_citation_id
_citation_journal_abbrev
_citation_year
_citation_journal_volume
_citation_journal_issue
_citation_page_first
_citation_page_last
_citation_journal_id_ASTM
primary 'Journal of Physics: Condensed Matter' 1990 2 1 25 43 JCOMEL
2 'Phase Transition' 1992 38- 127 220 PHTRDP
_publ_author_name
;
Labbe, P.;Leligny, H.;Raveau, B.;Schneck, J.;Toledano, J.C.
;
_cell_length_a                     35.1869(22)
_cell_length_b                     17.6202(18)
_cell_length_c                     7.9876(10)
_cell_angle_alpha                  90.
_cell_angle_beta                   90.
_cell_angle_gamma                  90.
_cell_volume                       4952.31
_cell_formula_units_Z              8
_symmetry_space_group_name_H-M     'B b m 2'
_symmetry_Int_Tables_number        40
_refine_ls_R_factor_all            .031
loop_
_symmetry_equiv_pos_site_id
_symmetry_equiv_pos_as_xyz
  1	'-x, y+.5, z'
  2	'x, -y+.5, z'
  3	'-x, -y, z'
  4	'x, y, z'
  5	'-x+.5, y+.5, z+.5'
  6	'x+.5, -y+.5, z+.5'
  7	'-x+.5, -y, z+.5'
  8	'x+.5, y, z+.5'
loop_
_atom_type_symbol
_atom_type_oxidation_number
Ba2+	2
Na1+	1
Nb5+	5
O2-	-2
loop_
_atom_site_label
_atom_site_type_symbol
_atom_site_symmetry_multiplicity
_atom_site_Wyckoff_symbol
_atom_site_fract_x
_atom_site_fract_y
_atom_site_fract_z
_atom_site_occupancy
_atom_site_attached_hydrogens
_atom_site_B_iso_or_equiv
Nb1 Nb5+ 4 b 0.87573(3) 0.25 0.00926(9) 1. 0 0.36 
Nb2 Nb5+ 4 b -.12525(3) 0.25 0.50696(9) 1. 0 0.36(2) 
Nb3 Nb5+ 4 b -.12527(3) 0.75 0.00588(9) 1. 0 0.34(2) 
Nb4 Nb5+ 4 b 0.87530(3) 0.75 0.50579(9) 1. 0 0.32(2) 
Nb5 Nb5+ 8 c 0.96505(2) 0.35861(5) 0.00505(6) 1. 0 0.33(2) 
Nb6 Nb5+ 8 c 0.96668(5) 0.35839(5) 0.50649(6) 1. 0 0.36(2) 
Nb7 Nb5+ 8 c 0.21677(2) 0.85823(5) 0.00510(6) 1. 0 0.37(2) 
Nb8 Nb5+ 8 c 0.21551(2) 0.85805(5) 0.50379(6) 1. 0 0.34(2) 
Nb9 Nb5+ 8 c 0.07095(2) 0.43336(4) 0.00609(6) 1. 0 0.31(2) 
Nb10 Nb5+ 8 c 0.07027(2) 0.43068(4) 0.50681(6) 1. 0 0.28(2) 
Nb11 Nb5+ 8 c 0.32070(2) 0.93216(5) 0.00245(6) 1. 0 0.38(2) 
Nb12 Nb5+ 8 c 0.32154(2) 0.93188(5) 0.50486(6) 1. 0 0.38(2) 
Na1 Na1+ 4 a 0 0.5 0.24961(70) 1. 0 0.85(11) 
Na2 Na1+ 4 a 0 0.5 0.75199(70) 1. 0 0.85(11) 
Na3 Na1+ 8 c 0.24985(3) 0.00052(7) 0.2456(10) 1. 0 0.82(11) 
Ba1 Ba2+ 8 c 0.87742(1) 0.42371(2) 0.25 1. 0 0.85(1) 
Ba2 Ba2+ 8 c -.13013(1) 0.41921(2) 0.74843(10) 1. 0 0.80(1) 
Ba3 Ba2+ 4 b 0.03867(1) 0.25 0.24639(12) 1. 0 0.87(2) 
Ba4 Ba2+ 4 b 0.03878(1) 0.25 0.74996(13) 1. 0 0.87(2) 
Ba5 Ba2+ 4 b 0.28835(1) 0.75 0.24853(15) 1. 0 0.92(2) 
Ba6 Ba2+ 4 b 0.28954(1) 0.75 0.74905(15) 1. 0 1.07(2) 
O1 O2- 8 c 0.9120(1) 0.3302(3) -.0451(7) 1. 0 0.58(7) 
O2 O2- 8 c 0.9122(2) 0.3338(4) 0.5050(5) 1. 0 0.52(8) 
O3 O2- 8 c 0.1627(2) 0.8312(4) 0.0055(5) 1. 0 0.53(8) 
O4 O2- 8 c 0.1630(1) 0.8309(3) 0.4546(7) 1. 0 0.69(7) 
O5 O2- 4 b 0.9827(3) 0.25 -.0098(8) 1. 0 0.81(16) 
O6 O2- 4 b 0.9819(2) 0.25 0.4631(11) 1. 0 0.64(9) 
O7 O2- 4 b 0.2333(3) 0.75 -.0165(10) 1. 0 1.14(15) 
O8 O2- 4 b 0.2333(3) 0.75 0.5001(8) 1. 0 0.50(12) 
O9 O2- 8 c 0.8752(1) 0.5334(4) -.0319(7) 1. 0 0.76(7) 
O10 O2- 8 c 0.8754(2) 0.5350(4) 0.5038(5) 1. 0 0.61(8) 
O11 O2- 8 c 0.9473(1) 0.4641(4) -.0451(9) 1. 0 1.16(8) 
O12 O2- 8 c 0.9438(2) 0.4657(5) 0.4972(6) 1. 0 0.85(11) 
O13 O2- 8 c 0.1968(2) 0.9640(6) -.0128(6) 1. 0 1.08(12) 
O14 O2- 8 c 0.1965(2) 0.9638(4) 0.4651(8) 1. 0 0.99(8) 
O15 O2- 8 c 0.9830(1) 0.6046(4) 0.0091(6) 1. 0 0.47(8) 
O16 O2- 8 c 0.9819(1) 0.6092(3) 0.4480(8) 1. 0 0.93(8) 
O17 O2- 8 c 0.2320(2) 0.1037(5) 0.0062(7) 1. 0 0.99(11) 
O18 O2- 8 c 0.2322(1) 0.1062(3) 0.4516(8) 1. 0 0.71(7) 
O19 O2- 8 c 0.9160(2) 0.6747(5) -.0037(5) 1. 0 0.7(1) 
O20 O2- 8 c 0.9146(2) 0.6749(4) 0.4676(8) 1. 0 1.01(8) 
O21 O2- 8 c 0.1657(1) 0.1747(3) -.0348(7) 1. 0 0.58(6) 
O22 O2- 8 c 0.1661(2) 0.1762(5) 0.4881(6) 1. 0 0.88(12) 
O23 O2- 8 c 0.9586(1) 0.3646(3) 0.2329(10) 1. 0 1.24(7) 
O24 O2- 8 c 0.2098(1) 0.8616(3) 0.7343(10) 1. 0 1.16(7) 
O25 O2- 8 c 0.9753(1) 0.3553(3) 0.7329(9) 1. 0 0.97(6) 
O26 O2- 8 c 0.2248(1) 0.8579(3) 0.2334(11) 1. 0 1.25(7) 
O27 O2- 8 c 0.9263(1) 0.5528(3) 0.2310(9) 1. 0 1.02(6) 
O28 O2- 8 c 0.1734(1) 0.0684(3) 0.2359(11) 1. 0 1.37(7) 
O29 O2- 8 c 0.9348(1) 0.5802(3) 0.7331(9) 1. 0 1.19(6) 
O30 O2- 8 c 0.1847(1) 0.0626(3) 0.7322(10) 1. 0 1.48(8) 
O31 O2- 4 b 0.8835(1) 0.25 0.2328(12) 1. 0 0.87(9) 
O32 O2- 4 b -.1328(2) 0.25 0.7347(15) 1. 0 0.87(8) 
O33 O2- 4 b 0.1298(2) 0.25 0.2359(20) 1. 0 1.43(11) 
O34 O2- 4 b 0.1199(2) 0.25 0.7356(15) 1. 0 1.36(11) 

#End of data_66092-ICSD


