data_85723-ICSD
#?2014 by Fachinformationszentrum Karlsruhe, and the U.S. Secretary of 
#Commerce on behalf of the United States.  All rights reserved.
_database_code_ICSD                85723
_audit_creation_date               1999/11/30
_chemical_name_systematic
;
Tetrabarium Dicopper Trialuminium Fluoride
;
_chemical_formula_structural       'Ba4 Cu2 Al3 F21'
_chemical_formula_sum              'Al3 Ba4 Cu2 F21'
_publ_section_title
;
The crystal structure of a complex barium, aluminium, copper(II) 
fluoride: Ba4 Cu2 Al3 F21
;
loop_
_citation_id
_citation_journal_abbrev
_citation_year
_citation_journal_volume
_citation_page_first
_citation_page_last
_citation_journal_id_ASTM
primary 'European Journal of Solid State Inorganic Chemistry'
 1998 35 39 47 EJSCE5
_publ_author_name
;
Dupont, N.;Samouel, M.;Gredin, P.;de Kozak, A.
;
_cell_length_a                     5.299(1)
_cell_length_b                     7.318(1)
_cell_length_c                     41.5290(70)
_cell_angle_alpha                  90.
_cell_angle_beta                   90.
_cell_angle_gamma                  90.
_cell_volume                       1610.41
_cell_formula_units_Z              4
_symmetry_space_group_name_H-M     'P 21 21 21'
_symmetry_Int_Tables_number        19
_refine_ls_R_factor_all            .042
loop_
_symmetry_equiv_pos_site_id
_symmetry_equiv_pos_as_xyz
  1	'-x, y+.5, -z+.5'
  2	'x+.5, -y+.5, -z'
  3	'-x+.5, -y, z+.5'
  4	'x, y, z'
loop_
_atom_type_symbol
_atom_type_oxidation_number
Al3+	3
Ba2+	2
Cu2+	2
F1-	-1
loop_
_atom_site_label
_atom_site_type_symbol
_atom_site_symmetry_multiplicity
_atom_site_Wyckoff_symbol
_atom_site_fract_x
_atom_site_fract_y
_atom_site_fract_z
_atom_site_occupancy
_atom_site_attached_hydrogens
Ba1 Ba2+ 4 a 0.7508(1) 0.0093(1) 0.8514(1) 1. 0 
Ba2 Ba2+ 4 a 0.7510(1) 0.7831(1) 0.7357(1) 1. 0 
Ba3 Ba2+ 4 a 0.2335(1) 0.5154(1) 0.3798(1) 1. 0 
Ba4 Ba2+ 4 a 0.3226(1) 0.4992(1) 0.9887(1) 1. 0 
Cu1 Cu2+ 4 a 0.2981(2) 0.9902(2) 0.9250(1) 1. 0 
Cu2 Cu2+ 4 a 0.3198(3) 0.7303(2) 0.0662(1) 1. 0 
Al1 Al3+ 4 a 0.2638(6) 0.0113(4) 0.1802(1) 1. 0 
Al2 Al3+ 4 a 0.2409(7) 0.1887(4) 0.3002(1) 1. 0 
Al3 Al3+ 4 a 0.3330(6) 0.2087(4) 0.0608(1) 1. 0 
F1 F1- 4 a 0.0093(14) 0.1674(11) 0.1774(2) 1. 0 
F2 F1- 4 a 0.2452(15) 0.0305(10) 0.6386(2) 1. 0 
F3 F1- 4 a 0.0126(14) 0.8083(11) 0.6754(2) 1. 0 
F4 F1- 4 a 0.2403(15) 0.0734(11) 0.3377(2) 1. 0 
F5 F1- 4 a 0.3909(13) 0.2624(10) 0.1015(2) 1. 0 
F6 F1- 4 a 0.3107(13) 0.1582(9) 0.0174(2) 1. 0 
F7 F1- 4 a 0.2749(16) 0.0199(12) 0.2229(2) 1. 0 
F8 F1- 4 a 0.1401(13) 0.8346(10) 0.9569(2) 1. 0 
F9 F1- 4 a 0.4860(11) 0.4979(8) 0.4350(2) 1. 0 
F10 F1- 4 a 0.0172(14) 0.0327(9) 0.2836(2) 1. 0 
F11 F1- 4 a 0.4987(13) 0.1767(10) 0.3959(2) 1. 0 
F12 F1- 4 a 0.4962(13) 0.0568(12) 0.2862(2) 1. 0 
F13 F1- 4 a 0.4630(17) 0.3508(12) 0.3193(2) 1. 0 
F14 F1- 4 a 0.0370(17) 0.8185(13) 0.1834(3) 1. 0 
F15 F1- 4 a 0.2651(16) 0.6692(10) 0.7660(2) 1. 0 
F16 F1- 4 a 0.1681(15) 0.7681(9) 0.0261(2) 1. 0 
F17 F1- 4 a 0.1807(13) 0.4218(9) 0.0529(2) 1. 0 
F18 F1- 4 a 0.0509(12) 0.0844(9) 0.0680(2) 1. 0 
F19 F1- 4 a 0.0100(14) 0.7091(10) 0.0917(2) 1. 0 
F20 F1- 4 a 0.1385(13) 0.1857(9) 0.9494(2) 1. 0 
F21 F1- 4 a 0.1103(13) 0.8633(10) 0.3894(2) 1. 0 

loop_
_atom_site_aniso_label
_atom_site_aniso_type_symbol
_atom_site_aniso_U_11
_atom_site_aniso_U_22
_atom_site_aniso_U_33
_atom_site_aniso_U_12
_atom_site_aniso_U_13
_atom_site_aniso_U_23
Ba1 Ba2+ 0.0093(2) 0.0108(2) 0.0125(2) 0.0003(2) -.0002(2) -.0010(2)
Ba2 Ba2+ 0.0131(2) 0.0100(2) 0.0117(2) -.0015(2) -.0001(2) -.0006(2)
Ba3 Ba2+ 0.0083(2) 0.0119(2) 0.0106(2) -.0007(2) -.0007(2) -.0002(2)
Ba4 Ba2+ 0.0106(2) 0.0096(2) 0.0110(2) -.0010(2) 0.0017(2) -.0004(2)
Cu1 Cu2+ 0.0081(4) 0.0079(4) 0.0114(4) 0.0006(4) 0.0018(3) 0.0000(4)
Cu2 Cu2+ 0.0075(4) 0.0109(4) 0.0099(5) -.0011(4) -.0007(4) 0.0015(4)
Al1 Al3+ 0.0064(9) 0.009(1) 0.0087(11) -.0005(12) -.0004(9) 0.0026(9)
Al2 Al3+ 0.0074(10) 0.009(1) 0.0079(11) -.0012(11) 0.000(1) 0.0002(8)
Al3 Al3+ 0.0052(10) 0.0074(10) 0.0104(13) -.0009(10) -.0006(9) -.0004(10)
F1 F1- 0.0130(29) 0.0140(29) 0.0214(40) 0.0039(25) 0.0028(26) 0.0013(26)
F2 F1- 0.0166(27) 0.0251(31) 0.0122(26) 0.0005(32) 0.0036(25) -.0023(24)
F3 F1- 0.0106(27) 0.014(3) 0.0244(41) -.0050(23) 0.0041(25) 0.0020(28)
F4 F1- 0.0150(28) 0.0305(35) 0.0101(26) -.0039(32) -.0043(25) 0.0094(25)
F5 F1- 0.0113(25) 0.0163(28) 0.0122(28) 0.0000(24) -.0002(20) -.0010(22)
F6 F1- 0.0152(28) 0.0118(23) 0.0121(28) -.0026(22) -.0059(22) 0.0014(20)
F7 F1- 0.0262(36) 0.0270(35) 0.0139(29) -.0039(34) -.0034(26) 0.0005(27)
F8 F1- 0.0079(25) 0.0155(26) 0.0153(32) -.0034(22) -.0036(21) 0.0007(23)
F9 F1- 0.0104(22) 0.0033(20) 0.0204(29) -.0010(21) -.0037(20) 0.0009(23)
F10 F1- 0.0173(28) 0.0087(26) 0.0168(32) -.0029(22) -.0050(23) -.0033(22)
F11 F1- 0.0146(28) 0.019(3) 0.0040(24) -.0016(25) -.0002(20) 0.0003(22)
F12 F1- 0.0094(26) 0.0218(34) 0.0266(42) 0.0076(26) 0.0018(25) 0.0022(31)
F13 F1- 0.0250(38) 0.0199(35) 0.0156(36) -.0129(31) 0.0002(29) -.0044(28)
F14 F1- 0.0191(35) 0.0198(36) 0.0328(52) -.0132(31) 0.0061(34) 0.0053(33)
F15 F1- 0.0303(39) 0.0160(26) 0.0081(25) 0.0023(31) 0.0006(32) -.0076(20)
F16 F1- 0.0175(28) 0.0109(25) 0.0189(32) 0.0066(25) -.0044(25) -.0036(23)
F17 F1- 0.0139(25) 0.0104(24) 0.0169(31) 0.0022(22) 0.0037(23) 0.0006(21)
F18 F1- 0.0086(24) 0.0117(25) 0.0163(31) -.0024(21) 0.0018(21) -.0002(23)
F19 F1- 0.0145(28) 0.0140(28) 0.0213(35) -.0043(24) 0.0010(24) -.0029(27)
F20 F1- 0.0102(26) 0.0107(24) 0.0149(31) 0.0024(20) -.0001(21) 0.0017(21)
F21 F1- 0.0116(25) 0.0150(27) 0.0114(28) 0.0019(23) -.0047(21) -.0013(22)
#End of data_85723-ICSD


