data_82350-ICSD
#?2014 by Fachinformationszentrum Karlsruhe, and the U.S. Secretary of 
#Commerce on behalf of the United States.  All rights reserved.
_database_code_ICSD                82350
_audit_creation_date               1997/11/10
_audit_update_record               2014/08/01
_chemical_name_systematic          'Hexasodium Tetrathiocobaltate'
_chemical_formula_structural       'Na6 (Co S4)'
_chemical_formula_sum              'Co1 Na6 S4'
_publ_section_title
;
Magnetische Wechselwirkungen in Inselstrukturen ternaerer 
Cobaltchalkogenide. Die Spinstrukturen von Na6 Co S4 und Na6 Co Se4
;
loop_
_citation_id
_citation_journal_abbrev
_citation_year
_citation_journal_volume
_citation_page_first
_citation_page_last
_citation_journal_id_ASTM
primary 'Zeitschrift fuer Anorganische und Allgemeine Chemie (1950) (DE)'
 1995 621 412 416 ZAACAB
_publ_author_name
;
Bronger, W.;Koelman, W.;Mueller, P.
;
_cell_length_a                     17.729(11)
_cell_length_b                     15.353(10)
_cell_length_c                     6.850(2)
_cell_angle_alpha                  90.
_cell_angle_beta                   90.
_cell_angle_gamma                  90.
_cell_volume                       1864.52
_cell_formula_units_Z              8
_symmetry_space_group_name_H-M     'P b c 21'
_symmetry_Int_Tables_number        29
_refine_ls_R_factor_all            .058
loop_
_symmetry_equiv_pos_site_id
_symmetry_equiv_pos_as_xyz
  1	'-x, y+.5, z'
  2	'x, -y+.5, z+.5'
  3	'-x, -y, z+.5'
  4	'x, y, z'
loop_
_atom_type_symbol
_atom_type_oxidation_number
Co2+	2
Na1+	1
S2-	-2
loop_
_atom_site_label
_atom_site_type_symbol
_atom_site_symmetry_multiplicity
_atom_site_Wyckoff_symbol
_atom_site_fract_x
_atom_site_fract_y
_atom_site_fract_z
_atom_site_occupancy
_atom_site_attached_hydrogens
_atom_site_B_iso_or_equiv
Na1 Na1+ 4 a 0.125 0.8951(8) 0.5399 1. 0 0.11(9) 
Na2 Na1+ 4 a 0.625 0.8851(8) 0.5399 1. 0 0.11(9) 
Na3 Na1+ 4 a 0.2339(6) 0.6774(4) 0.5399 1. 0 0.11(9) 
Na4 Na1+ 4 a 0.7339(6) 0.6774(4) 0.5399 1. 0 0.11(9) 
Na5 Na1+ 4 a 0.4839(6) 0.1774(4) 0.5399 1. 0 0.11(9) 
Na6 Na1+ 4 a 0.9839(6) 0.1774(4) 0.5399 1. 0 0.11(9) 
Na7 Na1+ 4 a 0.125 0.2805(7) 0.3737(33) 1. 0 0.11(9) 
Na8 Na1+ 4 a 0.625 0.2805(7) 0.3737(33) 1. 0 0.11(9) 
Na9 Na1+ 4 a 0.5229(5) 0.4848(4) 0.3737(33) 1. 0 0.11(9) 
Na10 Na1+ 4 a 0.0229(5) 0.4848(4) 0.3737(33) 1. 0 0.11(9) 
Na11 Na1+ 4 a 0.2729(5) 0.9848(4) 0.3737(33) 1. 0 0.11(9) 
Na12 Na1+ 4 a 0.7729(5) 0.9848(4) 0.3737(33) 1. 0 0.11(9) 
Co1 Co2+ 4 a 0.125 0.0833 0.2426(45) 1. 0 0.11(9) 
Co2 Co2+ 4 a 0.625 0.4167 0.7426(45) 1. 0 0.11(9) 
S1 S2- 4 a 0.125 0.0833 0.5904(47) 1. 0 0.11(9) 
S2 S2- 4 a 0.625 0.0833 0.5904(47) 1. 0 0.11(9) 
S3 S2- 4 a 0.125 0.9391(11) 0.1464(25) 1. 0 0.11(9) 
S4 S2- 4 a 0.625 0.9391(11) 0.1464(25) 1. 0 0.11(9) 
S5 S2- 4 a 0.2669(9) 0.6554(6) 0.1464(25) 1. 0 0.11(9) 
S6 S2- 4 a 0.7669(9) 0.6554(6) 0.1464(25) 1. 0 0.11(9) 
S7 S2- 4 a 0.5169(9) 0.1554(6) 0.1464(25) 1. 0 0.11(9) 
S8 S2- 4 a 0.0169(9) 0.1554(6) 0.1464(25) 1. 0 0.11(9) 

#End of data_82350-ICSD


