data_260380-ICSD
#?2014 by Fachinformationszentrum Karlsruhe, and the U.S. Secretary of 
#Commerce on behalf of the United States.  All rights reserved.
_database_code_ICSD                260380
_audit_creation_date               2009/08/01
_chemical_name_systematic
;
Silver Diiron(II,III) Tris(molybdate(VI))
;
_chemical_formula_structural       'Ag Fe2 (Mo3 O12)'
_chemical_formula_sum              'Ag1 Fe2 Mo3 O12'
_publ_section_title
;
Structure and properties of alpha - Ag Fe2 (Mo O4)3
;
loop_
_citation_id
_citation_journal_abbrev
_citation_year
_citation_journal_volume
_citation_journal_issue
_citation_page_first
_citation_page_last
_citation_journal_id_ASTM
primary 'Solid State Sciences' 2009 11 6 1137 1143 SSSCFJ
_publ_author_name
;
Balsanova, L.;Mikhailova, D.;Senyshyn, A.;Trots, D.;Fuess, 
H.;Lottermoser, W.;Ehrenberg, H.
;
_cell_length_a                     6.9222(6)
_cell_length_b                     6.9168(5)
_cell_length_c                     10.9001(11)
_cell_angle_alpha                  81.573(7)
_cell_angle_beta                   83.562(8)
_cell_angle_gamma                  81.448(7)
_cell_volume                       508.33
_cell_formula_units_Z              2
_symmetry_space_group_name_H-M     'P -1'
_symmetry_Int_Tables_number        2
_refine_ls_R_factor_all            .0369
loop_
_symmetry_equiv_pos_site_id
_symmetry_equiv_pos_as_xyz
  1	'-x, -y, -z'
  2	'x, y, z'
loop_
_atom_type_symbol
_atom_type_oxidation_number
Ag1+	1
Fe2.5+	2.5
Mo6+	6
O2-	-2
loop_
_atom_site_label
_atom_site_type_symbol
_atom_site_symmetry_multiplicity
_atom_site_Wyckoff_symbol
_atom_site_fract_x
_atom_site_fract_y
_atom_site_fract_z
_atom_site_occupancy
_atom_site_attached_hydrogens
_atom_site_U_iso_or_equiv
Mo1 Mo6+ 2 i -0.2397(1) 0.1006(1) -0.1453(1) 1. 0 0.00338(10) 
Mo2 Mo6+ 2 i -0.2838(1) 0.2808(1) 0.1835(1) 1. 0 0.00423(10) 
Mo3 Mo6+ 2 i 0.2804(1) 0.2950(1) -0.4531(1) 1. 0 0.00346(10) 
Fe1 Fe2.5+ 2 i -0.1819(1) 0.1752(1) -0.4940(1) 1. 0 0.00379(13) 
Fe2 Fe2.5+ 2 i -0.2278(1) -0.2303(1) 0.1052(1) 1. 0 0.00376(13) 
Ag1 Ag1+ 2 i -0.1456(1) -0.4129(1) -0.2217(1) 1. 0 0.02041(11) 
O1 O2- 2 i -0.1807(4) -0.1532(4) -0.0795(3) 1. 0 0.0062(6) 
O2 O2- 2 i -0.2126(5) 0.4899(4) 0.0813(3) 1. 0 0.0078(6) 
O3 O2- 2 i -0.0630(4) 0.2573(4) -0.1254(3) 1. 0 0.0074(6) 
O4 O2- 2 i -0.4806(4) 0.2022(4) -0.0978(3) 1. 0 0.0075(6) 
O5 O2- 2 i -0.1430(5) 0.2434(5) 0.3133(3) 1. 0 0.0084(6) 
O6 O2- 2 i -0.2284(5) 0.0954(5) -0.3039(3) 1. 0 0.0094(6) 
O7 O2- 2 i 0.5210(4) 0.2105(5) -0.5011(3) 1. 0 0.0087(6) 
O8 O2- 2 i 0.1252(4) 0.1279(4) -0.4883(3) 1. 0 0.0076(6) 
O9 O2- 2 i 0.2611(5) 0.3018(5) -.2900(3) 1. 0 0.0096(6) 
O10 O2- 2 i 0.2094(5) 0.5300(5) -0.5325(3) 1. 0 0.0086(6) 
O11 O2- 2 i -0.5281(5) 0.3274(5) 0.2350(3) 1. 0 0.0113(7) 
O12 O2- 2 i -0.2463(5) 0.0622(4) 0.1085(3) 1. 0 0.0090(6) 

#End of data_260380-ICSD


