data_49754-ICSD
#?2014 by Fachinformationszentrum Karlsruhe, and the U.S. Secretary of 
#Commerce on behalf of the United States.  All rights reserved.
_database_code_ICSD                49754
_audit_creation_date               1986/04/14
_audit_update_record               2007/08/01
_chemical_name_systematic          'Cesium Silver Oxide'
_chemical_formula_structural       'Cs Ag O'
_chemical_formula_sum              'Ag1 Cs1 O1'
_publ_section_title
;
Zur Kenntnis der K4 (Ag4 O4) - Verwandtschaft
;
loop_
_citation_id
_citation_journal_abbrev
_citation_year
_citation_journal_volume
_citation_page_first
_citation_page_last
_citation_journal_id_ASTM
primary 'Zeitschrift fuer Anorganische und Allgemeine Chemie (1950) (DE)'
 1985 524 7 16 ZAACAB
_publ_author_name                  'Losert, W.;Hoppe, R.'
_cell_length_a                     10.243(1)
_cell_length_b                     10.243(1)
_cell_length_c                     6.168(2)
_cell_angle_alpha                  90.
_cell_angle_beta                   90.
_cell_angle_gamma                  90.
_cell_volume                       647.14
_cell_formula_units_Z              8
_symmetry_space_group_name_H-M     'I -4 m 2'
_symmetry_Int_Tables_number        119
_refine_ls_R_factor_all            .09
loop_
_symmetry_equiv_pos_site_id
_symmetry_equiv_pos_as_xyz
  1	'y, x, -z'
  2	'-y, -x, -z'
  3	'y, -x, -z'
  4	'-y, x, -z'
  5	'x, -y, z'
  6	'-x, y, z'
  7	'-x, -y, z'
  8	'x, y, z'
  9	'y+.5, x+.5, -z+.5'
 10	'-y+.5, -x+.5, -z+.5'
 11	'y+.5, -x+.5, -z+.5'
 12	'-y+.5, x+.5, -z+.5'
 13	'x+.5, -y+.5, z+.5'
 14	'-x+.5, y+.5, z+.5'
 15	'-x+.5, -y+.5, z+.5'
 16	'x+.5, y+.5, z+.5'
loop_
_atom_type_symbol
_atom_type_oxidation_number
Ag1+	1
Cs1+	1
O2-	-2
loop_
_atom_site_label
_atom_site_type_symbol
_atom_site_symmetry_multiplicity
_atom_site_Wyckoff_symbol
_atom_site_fract_x
_atom_site_fract_y
_atom_site_fract_z
_atom_site_occupancy
_atom_site_attached_hydrogens
Ag1 Ag1+ 8 h 0.3583(2) 0.8583(2) 0.25 1. 0 
Cs1 Cs1+ 8 i 0.1935(2) 0 0.7529 1. 0 
O1 O2- 8 i 0.7837(20) 0 0.2380(46) 1. 0 

loop_
_atom_site_aniso_label
_atom_site_aniso_type_symbol
_atom_site_aniso_U_11
_atom_site_aniso_U_22
_atom_site_aniso_U_33
_atom_site_aniso_U_12
_atom_site_aniso_U_13
_atom_site_aniso_U_23
Ag1 Ag1+ 0.0143(10) 0.0143(10) 0.0201(21) 0.0017(14) -.0053(30) 0.0053(30)
Cs1 Cs1+ 0.0223(14) 0.0148(13) 0.0106(14) 0 0.0035(30) 0
O1 O2- 0.016(15) 0.025(15) 0.013(15) 0 0.000(33) 0
#End of data_49754-ICSD


