data_262896-ICSD
#?2014 by Fachinformationszentrum Karlsruhe, and the U.S. Secretary of 
#Commerce on behalf of the United States.  All rights reserved.
_database_code_ICSD                262896
_audit_creation_date               2012/08/01
_chemical_name_systematic          'Sodium Niobate'
_chemical_formula_structural       'Na (Nb O3)'
_chemical_formula_sum              'Na1 Nb1 O3'
_publ_section_title
;
New twists on the perovskite theme: crystal structures of the elusive 
phases R and S of Na Nb O3
;
loop_
_citation_id
_citation_journal_abbrev
_citation_year
_citation_journal_volume
_citation_journal_issue
_citation_page_first
_citation_page_last
_citation_journal_id_ASTM
primary 'Inorganic Chemistry' 2012 51 12 6876 6889 INOCAJ
_publ_author_name
;
Peel, M.D.;Thompson, S.P.;Daoud-Aladine, A.;Ashbrook, S.E.;Lightfoot, 
P.
;
_cell_length_a                     7.85684(4)
_cell_length_b                     7.86748(7)
_cell_length_c                     15.72795(13)
_cell_angle_alpha                  90.
_cell_angle_beta                   90.
_cell_angle_gamma                  90.
_cell_volume                       972.2
_cell_formula_units_Z              16
_symmetry_space_group_name_H-M     'P m m n Z'
_symmetry_Int_Tables_number        59
_refine_ls_R_factor_all            .048
loop_
_symmetry_equiv_pos_site_id
_symmetry_equiv_pos_as_xyz
  1	'x+.5, y+.5, -z'
  2	'-x, y+.5, -z'
  3	'x+.5, -y, -z'
  4	'-x, -y, -z'
  5	'-x+.5, -y+.5, z'
  6	'x, -y+.5, z'
  7	'-x+.5, y, z'
  8	'x, y, z'
loop_
_atom_type_symbol
_atom_type_oxidation_number
Na1+	1
Nb5+	5
O2-	-2
loop_
_atom_site_label
_atom_site_type_symbol
_atom_site_symmetry_multiplicity
_atom_site_Wyckoff_symbol
_atom_site_fract_x
_atom_site_fract_y
_atom_site_fract_z
_atom_site_occupancy
_atom_site_attached_hydrogens
_atom_site_U_iso_or_equiv
Na1 Na1+ 2 a 0.25 0.25 0.122(5) 1.0 0 0.0413(9) 
Na2 Na1+ 2 a 0.25 0.25 0.376(5) 1.0 0 0.0413(9) 
Na3 Na1+ 2 a 0.25 0.25 0.619(5) 1.0 0 0.0413(9) 
Na4 Na1+ 2 a 0.25 0.25 0.875(4) 1.0 0 0.0413(9) 
Na5 Na1+ 2 b 0.25 0.75 0.129(5) 1.0 0 0.0413(9) 
Na6 Na1+ 2 b 0.25 0.75 0.376(4) 1.0 0 0.0413(9) 
Na7 Na1+ 2 b 0.25 0.75 0.626(5) 1.0 0 0.0413(9) 
Na8 Na1+ 2 b 0.25 0.75 0.873(4) 1.0 0 0.0413(9) 
Nb1 Nb5+ 4 c 0.0 0.0 0.0 1.0 0 0.01022(19) 
Nb2 Nb5+ 8 g 0.0010(18) 0.0001(6) 0.2501(5) 1.0 0 0.01022(19) 
Nb3 Nb5+ 4 d 0.0 0.0 0.5 1.0 0 0.01022(19) 
O1 O2- 4 e 0.25 0.0002(16) -0.0165(9) 1.0 0 0.02031(26) 
O2 O2- 4 e 0.25 -0.0319(23) 0.2635(10) 1.0 0 0.02031(26) 
O3 O2- 4 e 0.25 0.0377(19) 0.4944(11) 1.0 0 0.02031(26) 
O4 O2- 4 e 0.25 -0.0342(21) 0.7674(9) 1.0 0 0.02031(26) 
O5 O2- 8 g 0.0212(15) -0.0165(14) 0.1244(11) 1.0 0 0.02031(26) 
O6 O2- 8 g -0.0220(15) -0.0047(13) 0.3755(13) 1.0 0 0.02031(26) 
O7 O2- 4 f 0.0052(15) 0.25 0.0100(10) 1.0 0 0.02031(26) 
O8 O2- 4 f 0.0307(26) 0.25 0.2585(10) 1.0 0 0.02031(26) 
O9 O2- 4 f -0.0357(20) 0.25 0.4981(11) 1.0 0 0.02031(26) 
O10 O2- 4 f 0.0356(24) 0.25 0.7439(10) 1.0 0 0.02031(26) 

#End of data_262896-ICSD


