data_247654-ICSD
#?2014 by Fachinformationszentrum Karlsruhe, and the U.S. Secretary of 
#Commerce on behalf of the United States.  All rights reserved.
_database_code_ICSD                247654
_audit_creation_date               2013/08/01
_chemical_name_systematic          'Iron Magnesium Silicate *'
_chemical_formula_structural       '(Fe0.5 Mg0.5) Si O3'
_chemical_formula_sum              'Fe0.5 Mg0.5 O3 Si1'
_publ_section_title
;
Crystal structures of (Mg1-x,Fex)SiO3 postperovskite at high 
pressures
;
loop_
_citation_id
_citation_journal_abbrev
_citation_year
_citation_journal_volume
_citation_journal_issue
_citation_page_first
_citation_page_last
_citation_journal_id_ASTM
primary 'Proceedings of the National Academy of Sciences, U.S.A.'
 2012 109 4 1035 1040 PNASA6
_publ_author_name
;
Yamanaka, Takamitsu;Hirose, Kei;Mao, Wendy L.;Meng, Yue;Ganesh, 
P.;Shulenburger, Luke;Shen, Guoyin;Hemley, Russell J.
;
_cell_length_a                     2.45266
_cell_length_b                     8.20089
_cell_length_c                     6.13570
_cell_angle_alpha                  90.
_cell_angle_beta                   90.
_cell_angle_gamma                  90.
_cell_volume                       123.41
_cell_formula_units_Z              8
_symmetry_space_group_name_H-M     'P m 2 m'
_symmetry_Int_Tables_number        25
loop_
_symmetry_equiv_pos_site_id
_symmetry_equiv_pos_as_xyz
  1	'-x, y, z'
  2	'x, y, -z'
  3	'-x, y, -z'
  4	'x, y, z'
loop_
_atom_type_symbol
_atom_type_oxidation_number
Fe2+	2
Mg2+	2
O2-	-2
Si4+	4
loop_
_atom_site_label
_atom_site_type_symbol
_atom_site_symmetry_multiplicity
_atom_site_Wyckoff_symbol
_atom_site_fract_x
_atom_site_fract_y
_atom_site_fract_z
_atom_site_occupancy
_atom_site_attached_hydrogens
Fe1 Fe2+ 2 e 0 0.25055 0.25 1. 0 
Fe2 Fe2+ 2 f 0.5 0.75055 0.25 1. 0 
Mg1 Mg2+ 2 e 0 0.7451 0.75 1. 0 
Mg2 Mg2+ 2 f 0.5 0.2451 0.75 1. 0 
Si1 Si4+ 2 e 0 0 0.99816 1. 0 
Si2 Si4+ 2 e 0 0 0.50184 1. 0 
Si3 Si4+ 2 f 0.5 0.49968 0.99816 1. 0 
Si4 Si4+ 2 f 0.5 0.49968 0.50184 1. 0 
O1 O2- 2 e 0 0.93676 0.25 1. 0 
O2 O2- 2 e 0 0.63428 0.45106 1. 0 
O3 O2- 2 e 0 0.07157 0.75 1. 0 
O4 O2- 2 e 0 0.36404 0.93889 1. 0 
O5 O2- 2 e 0 0.63428 0.04894 1. 0 
O6 O2- 2 e 0 0.36404 0.56111 1. 0 
O7 O2- 2 f 0.5 0.43676 0.25 1. 0 
O8 O2- 2 f 0.5 0.13428 0.45106 1. 0 
O9 O2- 2 f 0.5 0.57157 0.75 1. 0 
O10 O2- 2 f 0.5 0.86404 0.93889 1. 0 
O11 O2- 2 f 0.5 0.13428 0.04894 1. 0 
O12 O2- 2 f 0.5 0.86404 0.56111 1. 0 

#End of data_247654-ICSD


