data_31631-ICSD
#?2014 by Fachinformationszentrum Karlsruhe, and the U.S. Secretary of 
#Commerce on behalf of the United States.  All rights reserved.
_database_code_ICSD                31631
_audit_creation_date               1980/01/01
_audit_update_record               2006/04/01
_chemical_name_systematic          'Calcium Uranate'
_chemical_formula_structural       'Ca (U O4)'
_chemical_formula_sum              'Ca1 O4 U1'
_publ_section_title
;
Crystal chemical studies of the 5f-series of elements. IV. The 
crystal structure of Ca U O4 and Sr U O4
;
loop_
_citation_id
_citation_journal_abbrev
_citation_year
_citation_journal_volume
_citation_page_first
_citation_page_last
_citation_journal_id_ASTM
primary 'Acta Crystallographica (1,1948-23,1967)' 1948 1 281 285 ACCRA9
2 'Acta Crystallographica (1,1948-23,1967)' 1948 1 265 268 ACCRA9
_publ_author_name                  'Zachariasen, W.H.'
_cell_length_a                     6.267(1)
_cell_length_b                     6.267(1)
_cell_length_c                     6.267(1)
_cell_angle_alpha                  36.33(2)
_cell_angle_beta                   36.33(2)
_cell_angle_gamma                  36.33(2)
_cell_volume                       77.31
_cell_formula_units_Z              1
_symmetry_space_group_name_H-M     'R -3 m R'
_symmetry_Int_Tables_number        166
loop_
_symmetry_equiv_pos_site_id
_symmetry_equiv_pos_as_xyz
  1	'-z, -y, -x'
  2	'-z, -x, -y'
  3	'-x, -z, -y'
  4	'-y, -z, -x'
  5	'-y, -x, -z'
  6	'-x, -y, -z'
  7	'z, y, x'
  8	'z, x, y'
  9	'x, z, y'
 10	'y, z, x'
 11	'y, x, z'
 12	'x, y, z'
loop_
_atom_type_symbol
_atom_type_oxidation_number
Ca2+	2
O2-	-2
U6+	6
loop_
_atom_site_label
_atom_site_type_symbol
_atom_site_symmetry_multiplicity
_atom_site_Wyckoff_symbol
_atom_site_fract_x
_atom_site_fract_y
_atom_site_fract_z
_atom_site_occupancy
_atom_site_attached_hydrogens
U1 U6+ 1 a 0 0 0 1. 0 
Ca1 Ca2+ 1 b 0.5 0.5 0.5 1. 0 
O1 O2- 2 c 0.109(6) 0.109(6) 0.109(6) 1. 0 
O2 O2- 2 c 0.361(6) 0.361(6) 0.361(6) 1. 0 

#End of data_31631-ICSD


