data_66554-ICSD
#?2014 by Fachinformationszentrum Karlsruhe, and the U.S. Secretary of 
#Commerce on behalf of the United States.  All rights reserved.
_database_code_ICSD                66554
_audit_creation_date               1994/01/19
_audit_update_record               2006/04/01
_chemical_name_systematic          'Disodium Sulfate(VI) - Iii, Ht'
_chemical_formula_structural       'Na2 (S O4)'
_chemical_formula_sum              'Na2 O4 S1'
_publ_section_title
;
Phase-transition process of Na2 S O4(III) to Na2 S O4(I) and 
anharmonic thermal vibration
;
loop_
_citation_id
_citation_journal_abbrev
_citation_year
_citation_journal_volume
_citation_page_first
_citation_page_last
_citation_journal_id_ASTM
primary 'Acta Crystallographica, Section B: Structural Science'
 1991 47 581 588 ASBSDK
2 'Phase Transition' 1992 38 127 220 PHTRDP
_publ_author_name
;
Tanaka, K.;Naruse, H.;Morikawa, H.;Marumo, F.
;
_cell_length_a                     5.6274(4)
_cell_length_b                     8.9664(11)
_cell_length_c                     6.9737(9)
_cell_angle_alpha                  90.
_cell_angle_beta                   90.
_cell_angle_gamma                  90.
_cell_volume                       351.88
_cell_formula_units_Z              4
_symmetry_space_group_name_H-M     'C m c m'
_symmetry_Int_Tables_number        63
_refine_ls_R_factor_all            .019
loop_
_symmetry_equiv_pos_site_id
_symmetry_equiv_pos_as_xyz
  1	'-x, y, -z+.5'
  2	'-x, -y, z+.5'
  3	'-x, y, z'
  4	'-x, -y, -z'
  5	'x, -y, z+.5'
  6	'x, y, -z+.5'
  7	'x, -y, -z'
  8	'x, y, z'
  9	'-x+.5, y+.5, -z+.5'
 10	'-x+.5, -y+.5, z+.5'
 11	'-x+.5, y+.5, z'
 12	'-x+.5, -y+.5, -z'
 13	'x+.5, -y+.5, z+.5'
 14	'x+.5, y+.5, -z+.5'
 15	'x+.5, -y+.5, -z'
 16	'x+.5, y+.5, z'
loop_
_atom_type_symbol
_atom_type_oxidation_number
Na1+	1
O2-	-2
S6+	6
loop_
_atom_site_label
_atom_site_type_symbol
_atom_site_symmetry_multiplicity
_atom_site_Wyckoff_symbol
_atom_site_fract_x
_atom_site_fract_y
_atom_site_fract_z
_atom_site_occupancy
_atom_site_attached_hydrogens
Na1 Na1+ 4 a 0 0 0 1. 0 
Na2 Na1+ 4 c 0 0.6893(1) 0.25 1. 0 
S1 S6+ 4 c 0 0.34926(4) 0.25 1. 0 
O1 O2- 8 g 0.2142(2) 0.4455(1) 0.25 1. 0 
O2 O2- 8 f 0 0.2546(2) 0.0787(2) 1. 0 

loop_
_atom_site_aniso_label
_atom_site_aniso_type_symbol
_atom_site_aniso_U_11
_atom_site_aniso_U_22
_atom_site_aniso_U_33
_atom_site_aniso_U_12
_atom_site_aniso_U_13
_atom_site_aniso_U_23
Na1 Na1+ 0.0193(3) 0.0143(3) 0.0134(3) 0 0 0.0013(2)
Na2 Na1+ 0.0365(6) 0.0161(3) 0.0222(4) 0 0 0
S1 S6+ 0.0082(1) 0.0088(1) 0.0097(1) 0 0 0
O1 O2- 0.0145(4) 0.0206(5) 0.0191(5) 0.0085(4) 0 0
O2 O2- 0.0277(6) 0.0189(5) 0.0188(5) 0 0 0.0097(4)
#End of data_66554-ICSD


