data_247772-ICSD
#?2014 by Fachinformationszentrum Karlsruhe, and the U.S. Secretary of 
#Commerce on behalf of the United States.  All rights reserved.
_database_code_ICSD                247772
_audit_creation_date               2013/08/01
_chemical_name_systematic          'Lithium Manganese Vanadate(V)'
_chemical_formula_structural       'Li Mn (V O4)'
_chemical_formula_sum              'Li1 Mn1 O4 V1'
_publ_section_title
;
Structural and electrical studies of LiMnVO4 cathode material for 
rechargeable lithium batteries
;
loop_
_citation_id
_citation_journal_abbrev
_citation_year
_citation_journal_volume
_citation_journal_issue
_citation_page_first
_citation_page_last
_citation_journal_id_ASTM
primary Ionics 2012 18 1-2 31 37 IONIFA
_publ_author_name
;
Prakash, D.;Masuda, Yoshitake;Sanjeeviraja, C.
;
_cell_length_a                     5.7508(0)
_cell_length_b                     8.7129(1)
_cell_length_c                     6.3462
_cell_angle_alpha                  90.
_cell_angle_beta                   90.
_cell_angle_gamma                  90.
_cell_volume                       317.98
_cell_formula_units_Z              4
_symmetry_space_group_name_H-M     'C m c m'
_symmetry_Int_Tables_number        63
_refine_ls_R_factor_all            .0321
loop_
_symmetry_equiv_pos_site_id
_symmetry_equiv_pos_as_xyz
  1	'-x, y, -z+.5'
  2	'-x, -y, z+.5'
  3	'-x, y, z'
  4	'-x, -y, -z'
  5	'x, -y, z+.5'
  6	'x, y, -z+.5'
  7	'x, -y, -z'
  8	'x, y, z'
  9	'-x+.5, y+.5, -z+.5'
 10	'-x+.5, -y+.5, z+.5'
 11	'-x+.5, y+.5, z'
 12	'-x+.5, -y+.5, -z'
 13	'x+.5, -y+.5, z+.5'
 14	'x+.5, y+.5, -z+.5'
 15	'x+.5, -y+.5, -z'
 16	'x+.5, y+.5, z'
loop_
_atom_type_symbol
_atom_type_oxidation_number
Li1+	1
Mn2+	2
O2-	-2
V5+	5
loop_
_atom_site_label
_atom_site_type_symbol
_atom_site_symmetry_multiplicity
_atom_site_Wyckoff_symbol
_atom_site_fract_x
_atom_site_fract_y
_atom_site_fract_z
_atom_site_occupancy
_atom_site_attached_hydrogens
_atom_site_U_iso_or_equiv
Li1 Li1+ 4 c 0 -0.32666 0.25 1. 0 0.0139 
Mn1 Mn2+ 4 a 0 0 0 1. 0 0.0127 
V1 V5+ 4 c 0 0.35732 0.25 1. 0 0.0103 
O1 O2- 8 f 0 0.24637 0.03778 1. 0 0.0101 
O2 O2- 8 g 0.25409 -0.01195 0.25 1. 0 0.0180 

#End of data_247772-ICSD


