data_63531-ICSD
#?2014 by Fachinformationszentrum Karlsruhe, and the U.S. Secretary of 
#Commerce on behalf of the United States.  All rights reserved.
_database_code_ICSD                63531
_audit_creation_date               1988/12/19
_audit_update_record               2006/04/01
_chemical_name_systematic
;
Potassium Diholmium Fluoride - Alpha
;
_chemical_formula_structural       'K (Ho2 F7)'
_chemical_formula_sum              'F7 Ho2 K1'
_publ_section_title                'More space-group changes'
loop_
_citation_id
_citation_journal_abbrev
_citation_year
_citation_journal_volume
_citation_journal_issue
_citation_page_first
_citation_page_last
_citation_journal_id_ASTM
primary 'Acta Crystallographica, Section B: Structural Science'
 1988 44 1 77 88 ASBSDK
2 'Acta Crystallographica B (24,1968-38,1982)' 1982 38- 1431 1436 ACBCAR
_publ_author_name                  'Marsh, R.E.;Herbstein, F.H.'
_cell_length_a                     14.287(6)
_cell_length_b                     8.004(3)
_cell_length_c                     11.950(4)
_cell_angle_alpha                  90.
_cell_angle_beta                   125.33(3)
_cell_angle_gamma                  90.
_cell_volume                       1114.85
_cell_formula_units_Z              8
_symmetry_space_group_name_H-M     'C 1 2/m 1'
_symmetry_Int_Tables_number        12
_refine_ls_R_factor_all            .025
loop_
_symmetry_equiv_pos_site_id
_symmetry_equiv_pos_as_xyz
  1	'-x, y, -z'
  2	'-x, -y, -z'
  3	'x, -y, z'
  4	'x, y, z'
  5	'-x+.5, y+.5, -z'
  6	'-x+.5, -y+.5, -z'
  7	'x+.5, -y+.5, z'
  8	'x+.5, y+.5, z'
loop_
_atom_type_symbol
_atom_type_oxidation_number
F1-	-1
Ho3+	3
K1+	1
loop_
_atom_site_label
_atom_site_type_symbol
_atom_site_symmetry_multiplicity
_atom_site_Wyckoff_symbol
_atom_site_fract_x
_atom_site_fract_y
_atom_site_fract_z
_atom_site_occupancy
_atom_site_attached_hydrogens
_atom_site_U_iso_or_equiv
Ho1 Ho3+ 4 g 0.5 0.24075(8) 0 1. 0 0.0796(10) 
Ho2 Ho3+ 4 i 0.75946(6) 0 0.67845(6) 1. 0 0.0702(11) 
Ho3 Ho3+ 8 j 0.0237(3) 0.76275(6) 0.68185(3) 1. 0 0.0681(8) 
K1 K1+ 4 i 0.2338(3) 0 0.6526(4) 1. 0 0.0209(7) 
K2 K1+ 4 i 0.2621(3) 0 0.0195(4) 1. 0 0.0136(7) 
F1 F1- 8 j 0.1018(4) 0.2348(7) 0.9160(5) 1. 0 0.0134(8) 
F2 F1- 8 j 0.1170(4) 0.2361(7) 0.2369(5) 1. 0 0.0125(9) 
F3 F1- 4 i 0.3955(6) 0.5 0.2494(7) 1. 0 0.0136(16) 
F4 F1- 4 i 0.3954(7) 0 0.9257(7) 1. 0 0.0140(14) 
F5 F1- 4 i 0.3867(6) 0.5 0.6179(7) 1. 0 0.0111(12) 
F6 F1- 8 j 0.1632(4) 0.3331(7) 0.4999(4) 1. 0 0.0169(10) 
F7 F1- 8 j 0.1742(4) 0.3294(6) 0.7405(5) 1. 0 0.0143(9) 
F8 F1- 4 i 0.4956(7) 0 0.2632(8) 1. 0 0.0168(14) 
F9 F1- 4 h 0.5 0.3213(10) 0.5 1. 0 0.0192(15) 
F10 F1- 4 i 0.3951(6) 0.5 0.9128(8) 1. 0 0.0130(14) 

#End of data_63531-ICSD


