data_300178-ICSD
#?2014 by Fachinformationszentrum Karlsruhe, and the U.S. Secretary of 
#Commerce on behalf of the United States.  All rights reserved.
_database_code_ICSD                300178
_audit_creation_date               1991/07/10
_audit_update_record               1991/10/30
_chemical_name_systematic
;
Heptasodium Catena-octaselenotriindate(III)
;
_chemical_formula_structural       'Na7 In3 Se8'
_chemical_formula_sum              'In3 Na7 Se8'
_publ_section_title
;
Crystal structure of heptasodium catenaoctaselenotriindate(III)
;
loop_
_citation_id
_citation_journal_abbrev
_citation_year
_citation_journal_volume
_citation_page_first
_citation_page_last
_citation_journal_id_ASTM
primary 'Zeitschrift fuer Kristallographie (1979-2010)' 1991 197 159 160 ZEKRDZ
_publ_author_name                  'Eisenmann, B.;Hofmann, A.'
_cell_length_a                     13.506(5)
_cell_length_b                     6.747(3)
_cell_length_c                     10.438(4)
_cell_angle_alpha                  90.159
_cell_angle_beta                   91.243(60)
_cell_angle_gamma                  90.003
_cell_volume                       950.94
_cell_formula_units_Z              2
_symmetry_space_group_name_H-M     'P -1'
_symmetry_Int_Tables_number        2
_refine_ls_R_factor_all            .044
loop_
_symmetry_equiv_pos_site_id
_symmetry_equiv_pos_as_xyz
  1	'-x, -y, -z'
  2	'x, y, z'
loop_
_atom_type_symbol
_atom_type_oxidation_number
In3+	3
Na1+	1
Se2-	-2
loop_
_atom_site_label
_atom_site_type_symbol
_atom_site_symmetry_multiplicity
_atom_site_Wyckoff_symbol
_atom_site_fract_x
_atom_site_fract_y
_atom_site_fract_z
_atom_site_occupancy
_atom_site_attached_hydrogens
Na1 Na1+ 2 i 0.4828(6) 0.7446(16) 0.1272(8) 1. 0 
Na2 Na1+ 2 i 0.2751(6) 0.2779(15) 0.1106(8) 1. 0 
Na3 Na1+ 2 i 0.2344(6) 0.7333(17) 0.3864(8) 1. 0 
Na4 Na1+ 2 i 0.0200(7) 0.2560(18) 0.3606(10) 1. 0 
Na5 Na1+ 2 i 0.3648(6) 0.4827(11) 0.6241(7) 1. 0 
Na6 Na1+ 2 i 0.1249(6) 0.4784(11) 0.8609(8) 1. 0 
Na7 Na1+ 2 i 0.1781(5) 0.1476(13) 0.6243(7) 1. 0 
In1 In3+ 2 i 0.6955(1) 0.1256(2) 0.1565(1) 1. 0 
In2 In3+ 2 i 0.4354(1) 0.1351(2) 0.3826(1) 1. 0 
In3 In3+ 2 i 0.9264(1) 0.1327(2) 0.8886(1) 1. 0 
Se1 Se2- 2 i 0.5103(1) 0.2557(3) 0.1687(2) 1. 0 
Se2 Se2- 2 i 0.7449(1) 0.2503(3) 0.9264(2) 1. 0 
Se3 Se2- 2 i 0.9760(1) 0.2534(3) 0.6695(2) 1. 0 
Se4 Se2- 2 i 0.6931(1) 0.7522(2) 0.1573(2) 1. 0 
Se5 Se2- 2 i 0.0467(1) 0.2480(2) 0.0759(2) 1. 0 
Se6 Se2- 2 i 0.8027(1) 0.2720(3) 0.3365(2) 1. 0 
Se7 Se2- 2 i 0.4536(1) 0.7534(2) 0.4196(2) 1. 0 
Se8 Se2- 2 i 0.2585(1) 0.2579(3) 0.3851(2) 1. 0 

#End of data_300178-ICSD


