data_245843-ICSD
#?2014 by Fachinformationszentrum Karlsruhe, and the U.S. Secretary of 
#Commerce on behalf of the United States.  All rights reserved.
_database_code_ICSD                245843
_audit_creation_date               2008/08/01
_chemical_name_systematic          'Sodium Dithorium(IV) Fluoride'
_chemical_formula_structural       'Na (Th2 F9)'
_chemical_formula_sum              'F9 Na1 Th2'
_publ_section_title
;
Twinned tetragonal structure and equation of state of Na Th2 F9
;
loop_
_citation_id
_citation_journal_abbrev
_citation_year
_citation_journal_volume
_citation_journal_issue
_citation_page_first
_citation_page_last
_citation_journal_id_ASTM
primary 'Journal of Solid State Chemistry' 2008 181 4 971 975 JSSCBI
_publ_author_name
;
Grzechnik, A.;Morgenroth, W.;Friese, K.
;
_cell_length_a                     8.752(3)
_cell_length_b                     8.752(3)
_cell_length_c                     8.534(3)
_cell_angle_alpha                  90.
_cell_angle_beta                   90.
_cell_angle_gamma                  90.
_cell_volume                       653.68
_cell_formula_units_Z              4
_symmetry_space_group_name_H-M     'I -4 2 m'
_symmetry_Int_Tables_number        121
_refine_ls_R_factor_all            .0599
loop_
_symmetry_equiv_pos_site_id
_symmetry_equiv_pos_as_xyz
  1	'-y, -x, z'
  2	'y, x, z'
  3	'y, -x, -z'
  4	'-y, x, -z'
  5	'x, -y, -z'
  6	'-x, y, -z'
  7	'-x, -y, z'
  8	'x, y, z'
  9	'-y+.5, -x+.5, z+.5'
 10	'y+.5, x+.5, z+.5'
 11	'y+.5, -x+.5, -z+.5'
 12	'-y+.5, x+.5, -z+.5'
 13	'x+.5, -y+.5, -z+.5'
 14	'-x+.5, y+.5, -z+.5'
 15	'-x+.5, -y+.5, z+.5'
 16	'x+.5, y+.5, z+.5'
loop_
_atom_type_symbol
_atom_type_oxidation_number
F1-	-1
Na1+	1
Th4+	4
loop_
_atom_site_label
_atom_site_type_symbol
_atom_site_symmetry_multiplicity
_atom_site_Wyckoff_symbol
_atom_site_fract_x
_atom_site_fract_y
_atom_site_fract_z
_atom_site_occupancy
_atom_site_attached_hydrogens
_atom_site_U_iso_or_equiv
Th1 Th4+ 8 i 0.1837(7) 0.1837(7) 0.8032(8) 1. 0 0.018(1) 
Na1 Na1+ 4 c 0 0.5 0 1. 0 0 
F1 F1- 8 f 0.262(6) 0 0 1. 0 0 
F2 F1- 4 e 0 0 0.199(12) 1. 0 0 
F3 F1- 16 j 0.451(5) 0.179(8) 0.804(7) 1. 0 0 
F4 F1- 8 i 0.224(5) 0.224(5) 0.551(8) 1. 0 0 

#End of data_245843-ICSD


