data_6138-ICSD
#?2014 by Fachinformationszentrum Karlsruhe, and the U.S. Secretary of 
#Commerce on behalf of the United States.  All rights reserved.
_database_code_ICSD                6138
_audit_creation_date               1980/01/01
_audit_update_record               2012/02/01
_chemical_name_systematic
;
Potassium Europium Bis(molybdate) - Alpha
;
_chemical_formula_structural       'K Eu (Mo O4)2'
_chemical_formula_sum              'Eu1 K1 Mo2 O8'
_publ_section_title
;
Preparation and structure of crystals of potassium europium 
molybdate, K Eu (Mo O4)2
;
loop_
_citation_id
_citation_journal_abbrev
_citation_year
_citation_journal_volume
_citation_page_first
_citation_page_last
_citation_journal_id_ASTM
primary Kristallografiya 1974 19 89 94 KRISAJ
2 'Soviet Physics, Crystallography (= Kristallografiya)'
 1974 19 50 53 SPHCA6
3 'Phase Transition' 1992 38 127 220 PHTRDP
_publ_author_name
;
Klevtsova, R.F.;Kozeeva, L.P.;Klevtsov, P.V.
;
_cell_length_a                     11.20(3)
_cell_length_b                     5.30(1)
_cell_length_c                     6.94(2)
_cell_angle_alpha                  112.5(5)
_cell_angle_beta                   111.5(5)
_cell_angle_gamma                  91.0(5)
_cell_volume                       348.11
_cell_formula_units_Z              2
_symmetry_space_group_name_H-M     'P -1'
_symmetry_Int_Tables_number        2
_refine_ls_R_factor_all            .11
loop_
_symmetry_equiv_pos_site_id
_symmetry_equiv_pos_as_xyz
  1	'-x, -y, -z'
  2	'x, y, z'
loop_
_atom_type_symbol
_atom_type_oxidation_number
Eu3+	3
K1+	1
Mo6+	6
O2-	-2
loop_
_atom_site_label
_atom_site_type_symbol
_atom_site_symmetry_multiplicity
_atom_site_Wyckoff_symbol
_atom_site_fract_x
_atom_site_fract_y
_atom_site_fract_z
_atom_site_occupancy
_atom_site_attached_hydrogens
_atom_site_B_iso_or_equiv
Eu1 Eu3+ 2 i -.0616(2) 0.1302(5) 0.2529(3) 1. 0 0.54(5) 
Mo1 Mo6+ 2 i 0.1722(3) 0.6257(8) 0.2432(5) 1. 0 1.06(5) 
Mo2 Mo6+ 2 i 0.7161(3) 0.6415(8) 0.2783(5) 1. 0 1.13(5) 
K1 K1+ 2 i 0.450(1) 0.135(3) 0.257(2) 1. 0 1.74(5) 
O1 O2- 2 i 0.196(3) 0.760(6) 0.054(4) 1. 0 1.5(5) 
O2 O2- 2 i 0.320(3) 0.587(6) 0.407(4) 1. 0 1.4(5) 
O3 O2- 2 i 0.084(2) 0.859(6) 0.394(4) 1. 0 1.1(5) 
O4 O2- 2 i 0.068(3) 0.286(6) 0.079(4) 1. 0 1.3(5) 
O5 O2- 2 i 0.597(2) 0.355(6) 0.099(4) 1. 0 1.4(5) 
O6 O2- 2 i 0.651(2) 0.859(6) 0.451(4) 1. 0 1.7(5) 
O7 O2- 2 i 0.872(3) 0.548(6) 0.428(4) 1. 0 0.7(5) 
O8 O2- 2 i 0.745(3) 0.829(6) 0.119(4) 1. 0 1.1(5) 

#End of data_6138-ICSD


