data_81864-ICSD
#?2014 by Fachinformationszentrum Karlsruhe, and the U.S. Secretary of 
#Commerce on behalf of the United States.  All rights reserved.
_database_code_ICSD                81864
_audit_creation_date               1999/11/30
_chemical_name_systematic          'Dipotassium Pentafluoroaluminate'
_chemical_formula_structural       'K2 (Al F5)'
_chemical_formula_sum              'Al1 F5 K2'
_publ_section_title
;
The crystal structure of a new form of the dipotassium 
pentafluoroaluminate hydrate, K2 Al F5 . (H2 O), and of its 
dehydrate, K2 Al F5
;
loop_
_citation_id
_citation_journal_abbrev
_citation_year
_citation_journal_volume
_citation_page_first
_citation_page_last
_citation_journal_id_ASTM
primary 'Journal of Fluorine Chemistry' 1996 77 39 44 JFLCAR
_publ_author_name
;
de Kozak, A.;Gredin, P.;Pierrard, A.;Renaudin, J.
;
_cell_length_a                     5.965(1)
_cell_length_b                     5.965(1)
_cell_length_c                     3.699(1)
_cell_angle_alpha                  90.
_cell_angle_beta                   90.
_cell_angle_gamma                  90.
_cell_volume                       131.61
_cell_formula_units_Z              1
_symmetry_space_group_name_H-M     'P 4/m m m'
_symmetry_Int_Tables_number        123
loop_
_symmetry_equiv_pos_site_id
_symmetry_equiv_pos_as_xyz
  1	'y, x, -z'
  2	'-y, -x, -z'
  3	'-y, x, -z'
  4	'y, -x, -z'
  5	'-x, y, -z'
  6	'x, -y, -z'
  7	'x, y, -z'
  8	'-x, -y, -z'
  9	'-y, -x, z'
 10	'y, x, z'
 11	'y, -x, z'
 12	'-y, x, z'
 13	'x, -y, z'
 14	'-x, y, z'
 15	'-x, -y, z'
 16	'x, y, z'
loop_
_atom_type_symbol
_atom_type_oxidation_number
Al3+	3
F1-	-1
K1+	1
loop_
_atom_site_label
_atom_site_type_symbol
_atom_site_symmetry_multiplicity
_atom_site_Wyckoff_symbol
_atom_site_fract_x
_atom_site_fract_y
_atom_site_fract_z
_atom_site_occupancy
_atom_site_attached_hydrogens
K1 K1+ 2 e 0 0.5 0.5 1. 0 
Al1 Al3+ 1 a 0 0 0 1. 0 
F1 F1- 1 b 0 0 0.5 1. 0 
F2 F1- 4 j 0.219 0.219 0 1. 0 

#End of data_81864-ICSD


