data_15278-ICSD
#?2014 by Fachinformationszentrum Karlsruhe, and the U.S. Secretary of 
#Commerce on behalf of the United States.  All rights reserved.
_database_code_ICSD                15278
_audit_creation_date               1981/12/31
_audit_update_record               1999/11/30
_chemical_name_systematic
;
Dipotassium Heptazirconium 18-chloride
;
_chemical_formula_structural       '(Zr6 Cl12) (K2 Zr Cl6)'
_chemical_formula_sum              'Cl18 K2 Zr7'
_publ_section_title
;
Synthesis by hydrogen-driven disproportionation reactions. Synthesis 
and structure of the hexazirconium dodecahalide clusters Zr6 Cl12 and 
Zr6 Br12 and the double salt Zr6 Cl12 M2 Zr Cl6 (M= Na, K, Cs)
;
loop_
_citation_id
_citation_journal_abbrev
_citation_year
_citation_journal_volume
_citation_page_first
_citation_page_last
_citation_journal_id_ASTM
primary 'Inorganic Chemistry' 1981 20 145 151 INOCAJ
_publ_author_name                  'Imoto, H.;Corbett, J.D.;Cisar, A.'
_cell_length_a                     9.499(2)
_cell_length_b                     9.499(2)
_cell_length_c                     25.8800(60)
_cell_angle_alpha                  90.
_cell_angle_beta                   90.
_cell_angle_gamma                  120.
_cell_volume                       2022.32
_cell_formula_units_Z              3
_symmetry_space_group_name_H-M     'R -3 H'
_symmetry_Int_Tables_number        148
_refine_ls_R_factor_all            .037
loop_
_symmetry_equiv_pos_site_id
_symmetry_equiv_pos_as_xyz
  1	'x-y, x, -z'
  2	'y, -x+y, -z'
  3	'-x, -y, -z'
  4	'-x+y, -x, z'
  5	'-y, x-y, z'
  6	'x, y, z'
  7	'x-y+.6666, x+.3333, -z+.3333'
  8	'x-y+.3333, x+.6666, -z+.6666'
  9	'y+.6666, -x+y+.3333, -z+.3333'
 10	'y+.3333, -x+y+.6666, -z+.6666'
 11	'-x+.6666, -y+.3333, -z+.3333'
 12	'-x+.3333, -y+.6666, -z+.6666'
 13	'-x+y+.6666, -x+.3333, z+.3333'
 14	'-x+y+.3333, -x+.6666, z+.6666'
 15	'-y+.6666, x-y+.3333, z+.3333'
 16	'-y+.3333, x-y+.6666, z+.6666'
 17	'x+.6666, y+.3333, z+.3333'
 18	'x+.3333, y+.6666, z+.6666'
loop_
_atom_type_symbol
_atom_type_oxidation_number
Cl1-	-1
K1+	1
Zr2+	2
Zr4+	4
loop_
_atom_site_label
_atom_site_type_symbol
_atom_site_symmetry_multiplicity
_atom_site_Wyckoff_symbol
_atom_site_fract_x
_atom_site_fract_y
_atom_site_fract_z
_atom_site_occupancy
_atom_site_attached_hydrogens
Zr1 Zr2+ 18 f 0.05086(6) 0.21637(6) 0.04978(2) 1. 0 
Zr2 Zr4+ 3 b 0 0 0.5 1. 0 
K1 K1+ 6 c 0 0 0.22405(15) 1. 0 
Cl1 Cl1- 18 f 0.24009(18) 0.18433(17) 0.11345(5) 1. 0 
Cl2 Cl1- 18 f 0.42839(17) 0.13771(17) 0.00241(5) 1. 0 
Cl3 Cl1- 18 f 0.10325(17) 0.47607(17) 0.11168(5) 1. 0 

loop_
_atom_site_aniso_label
_atom_site_aniso_type_symbol
_atom_site_aniso_B_11
_atom_site_aniso_B_22
_atom_site_aniso_B_33
_atom_site_aniso_B_12
_atom_site_aniso_B_13
_atom_site_aniso_B_23
Zr1 Zr2+ 1.16(3) 1.18(3) 0.97(3) 0.59(2) -.02(1) -.05(1)
Zr2 Zr4+ 1.14(4) 1.14(4) 0.95(5) 0.57(2) 0 0
K1 K1+ 5.31(11) 5.31(11) 3.86(16) 2.655(55) 0 0
Cl1 Cl1- 2.10(6) 1.82(6) 1.34(6) 1.16(5) -.64(4) -.48(4)
Cl2 Cl1- 1.22(6) 1.70(6) 1.64(6) 0.69(5) 0.06(4) 0.35(4)
Cl3 Cl1- 1.71(6) 1.60(6) 1.54(5) 0.78(5) -.45(4) -.50(4)
#End of data_15278-ICSD


