data_158134-ICSD
#?2014 by Fachinformationszentrum Karlsruhe, and the U.S. Secretary of 
#Commerce on behalf of the United States.  All rights reserved.
_database_code_ICSD                158134
_audit_creation_date               2008/02/01
_chemical_name_systematic          'Dialuminium Silicate Difluoride'
_chemical_formula_structural       'Al2 (Si O4) F2'
_chemical_formula_sum              'Al2 F2 O4 Si1'
_chemical_name_mineral             Topaz
_publ_section_title
;
Elastic behaviour and structural evolution of topaz at high pressure
;
loop_
_citation_id
_citation_journal_abbrev
_citation_year
_citation_journal_volume
_citation_page_first
_citation_page_last
_citation_journal_id_ASTM
primary 'Physics and Chemistry of Minerals' 2006 33 235 242 PCMIDU
_publ_author_name
;
Gatta, G.D.;Nestola, F.;Boffa Ballaran, T.
;
_cell_length_a                     4.6627(2)
_cell_length_b                     8.8343(4)
_cell_length_c                     8.3867(2)
_cell_angle_alpha                  90
_cell_angle_beta                   90
_cell_angle_gamma                  90
_cell_volume                       345.46
_cell_formula_units_Z              4
_symmetry_space_group_name_H-M     'P b n m'
_symmetry_Int_Tables_number        62
_refine_ls_R_factor_all            .045
loop_
_symmetry_equiv_pos_site_id
_symmetry_equiv_pos_as_xyz
  1	'-x+.5, y+.5, z'
  2	'x, y, -z+.5'
  3	'x+.5, -y+.5, z+.5'
  4	'-x, -y, -z'
  5	'x+.5, -y+.5, -z'
  6	'-x, -y, z+.5'
  7	'-x+.5, y+.5, -z+.5'
  8	'x, y, z'
loop_
_atom_type_symbol
_atom_type_oxidation_number
Al3+	3
F1-	-1
O2-	-2
Si4+	4
loop_
_atom_site_label
_atom_site_type_symbol
_atom_site_symmetry_multiplicity
_atom_site_Wyckoff_symbol
_atom_site_fract_x
_atom_site_fract_y
_atom_site_fract_z
_atom_site_occupancy
_atom_site_attached_hydrogens
_atom_site_U_iso_or_equiv
Al1 Al3+ 8 d 0.9047(4) 0.1309(2) 0.0817(1) 1. 0 0.0053(4) 
Si1 Si4+ 4 c 0.4005(5) 0.9409(2) 0.25000 1. 0 0.0044(5) 
O1 O2- 4 c 0.7963(11) 0.5321(6) 0.25000 1. 0 0.0057(10) 
O2 O2- 4 c 0.4531(10) 0.7559(5) 0.25000 1. 0 0.0035(10) 
O3 O2- 8 d 0.7904(7) 0.0108(4) 0.9069(3) 1. 0 0.0064(7) 
F1 F1- 8 d 0.9006(8) 0.7533(3) 0.0599(3) 1. 0 0.0117(7) 

#End of data_158134-ICSD


