data_104-ICSD
#?2014 by Fachinformationszentrum Karlsruhe, and the U.S. Secretary of 
#Commerce on behalf of the United States.  All rights reserved.
_database_code_ICSD                104
_audit_creation_date               1980/01/01
_audit_update_record               2011/08/01
_chemical_name_systematic          'Octasodium Digallate'
_chemical_formula_structural       'Na8 (Ga2 O7)'
_chemical_formula_sum              'Ga2 Na8 O7'
_publ_section_title
;
Ein neues Oxogallat mit Inselstruktur: Na8 Ga2 O7
;
loop_
_citation_id
_citation_journal_abbrev
_citation_year
_citation_journal_volume
_citation_page_first
_citation_page_last
_citation_journal_id_ASTM
primary 'Zeitschrift fuer Anorganische und Allgemeine Chemie (1950) (DE)'
 1976 422 1 16 ZAACAB
_publ_author_name                  'Fink, D.;Hoppe, R.'
_cell_length_a                     8.65
_cell_length_b                     10.985
_cell_length_c                     10.043
_cell_angle_alpha                  90.
_cell_angle_beta                   107.6
_cell_angle_gamma                  90.
_cell_volume                       909.62
_cell_formula_units_Z              4
_symmetry_space_group_name_H-M     'P 1 21/c 1'
_symmetry_Int_Tables_number        14
_refine_ls_R_factor_all            .0768
loop_
_symmetry_equiv_pos_site_id
_symmetry_equiv_pos_as_xyz
  1	'x, -y+.5, z+.5'
  2	'-x, -y, -z'
  3	'-x, y+.5, -z+.5'
  4	'x, y, z'
loop_
_atom_type_symbol
_atom_type_oxidation_number
Ga3+	3
Na1+	1
O2-	-2
loop_
_atom_site_label
_atom_site_type_symbol
_atom_site_symmetry_multiplicity
_atom_site_Wyckoff_symbol
_atom_site_fract_x
_atom_site_fract_y
_atom_site_fract_z
_atom_site_occupancy
_atom_site_attached_hydrogens
_atom_site_B_iso_or_equiv
Ga1 Ga3+ 4 e 0.09169(8) 0.20197(5) 0.77340(6) 1. 0 0.61 
Ga2 Ga3+ 4 e 0.6913(1) 0.21456(5) 0.65407(6) 1. 0 0.64 
O1 O2- 4 e 0.1037(7) 0.7940(4) 0.7825(4) 1. 0 1.2 
O2 O2- 4 e 0.4511(7) 0.8464(4) 0.8900(4) 1. 0 1.1 
O3 O2- 4 e 0.6724(7) 0.1168(4) 0.7982(4) 1. 0 1.1 
O4 O2- 4 e 0.2432(7) 0.3246(4) 0.8144(4) 1. 0 1. 
O5 O2- 4 e 0.1061(7) 0.1094(4) 0.9304(4) 1. 0 1.2 
O6 O2- 4 e 0.3293(7) 0.6186(4) 0.0023(4) 1. 0 1.1 
O7 O2- 4 e 0.8923(6) 0.6105(4) 0.8772(4) 1. 0 1. 
Na1 Na1+ 4 e 0.8923(4) 0.2401(2) 0.9672(3) 1. 0 1.5 
Na2 Na1+ 4 e 0.7471(4) 0.4453(2) 0.7882(3) 1. 0 1.7 
Na3 Na1+ 4 e 0.9154(4) 0.9606(2) 0.8571(3) 1. 0 1.42 
Na4 Na1+ 4 e 0.4314(4) 0.4689(2) 0.8556(3) 1. 0 1.8 
Na5 Na1+ 4 e 0.7147(3) 0.7507(2) 0.9298(3) 1. 0 1.36 
Na6 Na1+ 4 e 0.4988(4) 0.2327(2) 0.8707(3) 1. 0 1.5 
Na7 Na1+ 4 e 0.6584(4) 0.0041(2) 0.9808(3) 1. 0 1.7 
Na8 Na1+ 4 e 0.1198(4) 0.4746(2) 0.9236(3) 1. 0 1.36 

#End of data_104-ICSD


