data_9473-ICSD
#?2014 by Fachinformationszentrum Karlsruhe, and the U.S. Secretary of 
#Commerce on behalf of the United States.  All rights reserved.
_database_code_ICSD                9473
_audit_creation_date               1980/01/01
_audit_update_record               2012/02/01
_chemical_name_systematic
;
Dipotassium Tetrathiocyanatopalladate
;
_chemical_formula_structural       'K2 (Pd (S C N)4)'
_chemical_formula_sum              'C4 K2 N4 Pd1 S4'
_publ_section_title
;
The structure of potassium tetrathiocyanatopalladate(II)
;
loop_
_citation_id
_citation_journal_abbrev
_citation_year
_citation_journal_volume
_citation_page_first
_citation_page_last
_citation_journal_id_ASTM
primary 'Journal of Inorganic and Nuclear Chemistry' 1972 34 2213 2217 JINCAO
2 'Journal of the Chemical Society D: Chemical Communication (1970-1971)'
 1970 1970 385 385 CCJDAO
_publ_author_name                  'Mawby, A.;Pringle, G.E.'
_cell_length_a                     11.11(2)
_cell_length_b                     12.90(2)
_cell_length_c                     4.28(3)
_cell_angle_alpha                  90.
_cell_angle_beta                   98.2(2)
_cell_angle_gamma                  90.
_cell_volume                       607.13
_cell_formula_units_Z              2
_symmetry_space_group_name_H-M     'P 1 21/a 1'
_symmetry_Int_Tables_number        14
_refine_ls_R_factor_all            .13
loop_
_symmetry_equiv_pos_site_id
_symmetry_equiv_pos_as_xyz
  1	'x+.5, -y+.5, z'
  2	'-x, -y, -z'
  3	'-x+.5, y+.5, -z'
  4	'x, y, z'
loop_
_atom_type_symbol
_atom_type_oxidation_number
C4+	4
K1+	1
N3-	-3
Pd2+	2
S2-	-2
loop_
_atom_site_label
_atom_site_type_symbol
_atom_site_symmetry_multiplicity
_atom_site_Wyckoff_symbol
_atom_site_fract_x
_atom_site_fract_y
_atom_site_fract_z
_atom_site_occupancy
_atom_site_attached_hydrogens
K1 K1+ 4 e -.4701(8) 0.1463(7) -.315(2) 1. 0 
Pd1 Pd2+ 2 a 0 0 0 1. 0 
S1 S2- 4 e -.0642(8) 0.1637(7) 0.121(3) 1. 0 
S2 S2- 4 e 0.1499(8) 0.0934(7) -.235(2) 1. 0 
C1 C4+ 4 e -.2016(37) 0.1547(27) 0.217(11) 1. 0 
C2 C4+ 4 e 0.2739(35) 0.0754(38) 0.034(14) 1. 0 
N1 N3- 4 e -.3078(28) 0.1503(25) 0.274(9) 1. 0 
N2 N3- 4 e 0.3637(29) 0.0641(26) 0.202(10) 1. 0 

loop_
_atom_site_aniso_label
_atom_site_aniso_type_symbol
_atom_site_aniso_U_11
_atom_site_aniso_U_22
_atom_site_aniso_U_33
_atom_site_aniso_U_12
_atom_site_aniso_U_13
_atom_site_aniso_U_23
K1 K1+ 0.036(5) 0.037(5) 0.044(7) 0.000(4) 0.011(4) -.001(5)
Pd1 Pd2+ 0.013(2) 0.017(2) 0.015 0.001(2) 0.002(1) -.001(2)
S1 S2- 0.024(4) 0.028(4) 0.045(7) -.001(4) 0.008(4) -.001(5)
S2 S2- 0.026(4) 0.026(4) 0.025(6) -.003(4) 0.002(4) -.002(4)
C1 C4+ 0.048(25) 0.014(15) 0.049(31) -.005(16) 0.006(21) -.009(18)
C2 C4+ 0.024(22) 0.064(31) 0.100(46) 0.025(21) 0.036(25) 0.062(32)
N1 N3- 0.026(16) 0.033(18) 0.069(29) 0.010(13) 0.018(18) 0.009(18)
N2 N3- 0.023(16) 0.034(18) 0.062(26) 0.008(14) 0.005(16) 0.000(18)
#End of data_9473-ICSD


