data_80810-ICSD
#?2014 by Fachinformationszentrum Karlsruhe, and the U.S. Secretary of 
#Commerce on behalf of the United States.  All rights reserved.
_database_code_ICSD                80810
_audit_creation_date               1997/05/13
_chemical_name_systematic          'Barium Calcium Divanadate'
_chemical_formula_structural       'Ba Ca (V2 O7)'
_chemical_formula_sum              'Ba1 Ca1 O7 V2'
_publ_section_title
;
The crystal structures of the double pyrovanadates Ba M V2 O7 (M = 
Ca, Cd, Zn)
;
loop_
_citation_id
_citation_journal_abbrev
_citation_year
_citation_journal_volume
_citation_page_first
_citation_page_last
_citation_journal_id_ASTM
primary 'Zhurnal Neorganicheskoi Khimii' 1989 34 1388 1392 ZNOKAQ
2 'Russian Journal of Inorganic Chemistry' 1989 34 782 784 RJICAQ
_publ_author_name
;
Murashova, E.V.;Velikodnyi, Yu.A.;Trunov, V.K.
;
_cell_length_a                     15.508(3)
_cell_length_b                     5.814(21)
_cell_length_c                     7.343(2)
_cell_angle_alpha                  90.
_cell_angle_beta                   90.
_cell_angle_gamma                  90.
_cell_volume                       662.07
_cell_formula_units_Z              4
_symmetry_space_group_name_H-M     'P n m a'
_symmetry_Int_Tables_number        62
_refine_ls_R_factor_all            .036
loop_
_symmetry_equiv_pos_site_id
_symmetry_equiv_pos_as_xyz
  1	'x+.5, y, -z+.5'
  2	'x, -y+.5, z'
  3	'-x+.5, y+.5, z+.5'
  4	'-x, -y, -z'
  5	'-x+.5, -y, z+.5'
  6	'-x, y+.5, -z'
  7	'x+.5, -y+.5, -z+.5'
  8	'x, y, z'
loop_
_atom_type_symbol
_atom_type_oxidation_number
Ba2+	2
Ca2+	2
O2-	-2
V5+	5
loop_
_atom_site_label
_atom_site_type_symbol
_atom_site_symmetry_multiplicity
_atom_site_Wyckoff_symbol
_atom_site_fract_x
_atom_site_fract_y
_atom_site_fract_z
_atom_site_occupancy
_atom_site_attached_hydrogens
_atom_site_B_iso_or_equiv
Ba1 Ba2+ 4 c 0.28830(2) 0.25 0.13213(5) 1. 0 1.060(4) 
Ca1 Ca2+ 4 c 0.05292(8) 0.25 0.3736(2) 1. 0 1.38(2) 
V1 V5+ 4 c 0.35647(6) 0.25 0.6578(1) 1. 0 0.74(1) 
V2 V5+ 4 c 0.55981(6) 0.25 0.6964(1) 1. 0 0.93(1) 
O1 O2- 8 d 0.3441(2) 0.4824(5) 0.7941(4) 1. 0 1.24(4) 
O2 O2- 4 c 0.2769(4) 0.25 0.5061(7) 1. 0 1.92(8) 
O3 O2- 4 c 0.4641(3) 0.25 0.5573(7) 1. 0 1.42(7) 
O4 O2- 8 d 0.5595(2) 0.4797(5) 0.8418(4) 1. 0 1.31(5) 
O5 O2- 4 c 0.6481(4) 0.25 0.573(1) 1. 0 3.6(1) 

#End of data_80810-ICSD


