data_74874-ICSD
#?2014 by Fachinformationszentrum Karlsruhe, and the U.S. Secretary of 
#Commerce on behalf of the United States.  All rights reserved.
_database_code_ICSD                74874
_audit_creation_date               1995/10/17
_chemical_name_systematic          'Tetrapotassium Plumbate(II)'
_chemical_formula_structural       'K4 (Pb O3)'
_chemical_formula_sum              'K4 O3 Pb1'
_publ_section_title
;
Zur Oxydation intermetallischer Phasen: die Oxoplumbate(II) K6(Pb2O5) 
und K4(PbO3)
;
loop_
_citation_id
_citation_journal_abbrev
_citation_year
_citation_journal_volume
_citation_page_first
_citation_page_last
_citation_journal_id_ASTM
primary 'Zeitschrift fuer Anorganische und Allgemeine Chemie (1950) (DE)'
 1994 620 1549 1558 ZAACAB
_publ_author_name                  'Brandes, R.;Hoppe, R.'
_cell_length_a                     6.582(1)
_cell_length_b                     11.318(4)
_cell_length_c                     18.7219(60)
_cell_angle_alpha                  90.
_cell_angle_beta                   90.
_cell_angle_gamma                  90.
_cell_volume                       1394.69
_cell_formula_units_Z              8
_symmetry_space_group_name_H-M     'P b c a'
_symmetry_Int_Tables_number        61
_refine_ls_R_factor_all            .049
loop_
_symmetry_equiv_pos_site_id
_symmetry_equiv_pos_as_xyz
  1	'x+.5, y, -z+.5'
  2	'x, -y+.5, z+.5'
  3	'-x+.5, y+.5, z'
  4	'-x, -y, -z'
  5	'-x+.5, -y, z+.5'
  6	'-x, y+.5, -z+.5'
  7	'x+.5, -y+.5, -z'
  8	'x, y, z'
loop_
_atom_type_symbol
_atom_type_oxidation_number
K1+	1
O2-	-2
Pb2+	2
loop_
_atom_site_label
_atom_site_type_symbol
_atom_site_symmetry_multiplicity
_atom_site_Wyckoff_symbol
_atom_site_fract_x
_atom_site_fract_y
_atom_site_fract_z
_atom_site_occupancy
_atom_site_attached_hydrogens
Pb1 Pb2+ 8 c 0.1129 0.067 0.1557 1. 0 
K1 K1+ 8 c 0.1274(2) 0.1714(1) 0.3483(1) 1. 0 
K2 K1+ 8 c 0.2517(2) 0.0570(1) 0.9648(1) 1. 0 
K3 K1+ 8 c 0.2729(2) 0.1892(1) 0.5561(1) 1. 0 
K4 K1+ 8 c 0.4535(2) 0.3775(1) 0.3007(1) 1. 0 
O1 O2- 8 c 0.3828(7) 0.4839(4) 0.5989(2) 1. 0 
O2 O2- 8 c 0.0437(7) 0.3974(4) 0.3416(3) 1. 0 
O3 O2- 8 c 0.4575(7) 0.3456(4) 0.9320(3) 1. 0 

loop_
_atom_site_aniso_label
_atom_site_aniso_type_symbol
_atom_site_aniso_U_11
_atom_site_aniso_U_22
_atom_site_aniso_U_33
_atom_site_aniso_U_12
_atom_site_aniso_U_13
_atom_site_aniso_U_23
Pb1 Pb2+ 0.0135(1) 0.0109(1) 0.0124(1) 0.0001(1) 0.0000(1) -.0008(1)
K1 K1+ 0.0232(7) 0.0245(8) 0.0168(7) -.0039(6) 0.0032(6) -.0011(7)
K2 K1+ 0.0208(7) 0.0143(6) 0.0271(8) -.0007(5) 0.0007(7) -.0020(6)
K3 K1+ 0.0234(7) 0.0179(7) 0.0205(7) 0.0037(6) -.0032(6) -.0016(6)
K4 K1+ 0.0272(8) 0.0205(8) 0.0208(8) -.0021(6) -.0017(6) 0.0018(6)
O1 O2- 0.0166(21) 0.0217(23) 0.0168(24) 0.0004(20) -.0039(21) -.0009(19)
O2 O2- 0.0178(23) 0.0208(25) 0.0242(28) -.0032(19) 0.0006(21) 0.0066(21)
O3 O2- 0.0233(22) 0.0105(20) 0.0210(25) -.0039(17) -.0036(22) 0.0023(19)
#End of data_74874-ICSD


