data_33739-ICSD
#?2014 by Fachinformationszentrum Karlsruhe, and the U.S. Secretary of 
#Commerce on behalf of the United States.  All rights reserved.
_database_code_ICSD                33739
_audit_creation_date               1991/07/10
_audit_update_record               1998/06/26
_chemical_name_systematic
;
Trisodium Lithium Dititanium Tetrakis(catena-silicate) Dioxide 
Dihydrate
;
_chemical_formula_structural       'Na3 Li Ti2 (Si O3)4 O2 (H2 O)2'
_chemical_formula_sum              'H4 Li1 Na3 O16 Si4 Ti2'
_chemical_name_mineral             Lintisite
_publ_section_title
;
The crystal structure of lintisite, Na3 Li Ti2 (Si2 O6)2 O2 * 2H2O, a 
new titanosilicate from Lovozero (USSR)
;
loop_
_citation_id
_citation_journal_abbrev
_citation_year
_citation_journal_volume
_citation_page_first
_citation_page_last
_citation_journal_id_ASTM
primary 'Zeitschrift fuer Kristallographie (1979-2010)' 1990 193 137 148 ZEKRDZ
_publ_author_name
;
Merlino, S.;Pasero, M.;Khomyakov, A.P.
;
_cell_length_a                     28.5830(40)
_cell_length_b                     8.600(1)
_cell_length_c                     5.219(1)
_cell_angle_alpha                  90.
_cell_angle_beta                   91.03(2)
_cell_angle_gamma                  90.
_cell_volume                       1282.69
_cell_formula_units_Z              4
_symmetry_space_group_name_H-M     'C 1 2/c 1'
_symmetry_Int_Tables_number        15
_refine_ls_R_factor_all            .033
loop_
_symmetry_equiv_pos_site_id
_symmetry_equiv_pos_as_xyz
  1	'x, -y, z+.5'
  2	'-x, -y, -z'
  3	'-x, y, -z+.5'
  4	'x, y, z'
  5	'x+.5, -y+.5, z+.5'
  6	'-x+.5, -y+.5, -z'
  7	'-x+.5, y+.5, -z+.5'
  8	'x+.5, y+.5, z'
loop_
_atom_type_symbol
_atom_type_oxidation_number
H1+	1
Li1+	1
Na1+	1
O2-	-2
Si4+	4
Ti4+	4
loop_
_atom_site_label
_atom_site_type_symbol
_atom_site_symmetry_multiplicity
_atom_site_Wyckoff_symbol
_atom_site_fract_x
_atom_site_fract_y
_atom_site_fract_z
_atom_site_occupancy
_atom_site_attached_hydrogens
_atom_site_U_iso_or_equiv
Ti1 Ti4+ 8 f 0.16503(3) 0.4050(1) 0.6243(2) 1. 0 0 
Na1 Na1+ 8 f 0.1651(7) 0.1872(2) 0.1161(4) 1. 0 0 
Na2 Na1+ 4 e 0 0.3483(3) 0.75 1. 0 0 
Li1 Li1+ 4 e 0 0.0111(14) 0.25 1. 0 0 
Si1 Si4+ 8 f 0.26370(4) 0.4076(1) 0.2903(2) 1. 0 0 
Si2 Si4+ 8 f 0.09250(4) 0.0986(1) 0.5396(2) 1. 0 0 
O1 O2- 8 f 0.21562(10) 0.0124(3) 0.4464(6) 1. 0 0 
O2 O2- 8 f 0.21392(10) 0.2613(3) 0.7423(6) 1. 0 0 
O3 O2- 8 f 0.1250(1) 0.2511(3) 0.4917(6) 1. 0 0 
O4 O2- 8 f 0.03770(9) 0.1261(3) 0.5189(6) 1. 0 0 
O5 O2- 8 f 0.13637(9) 0.4304(3) 0.9273(6) 1. 0 0 
O6 O2- 8 f 0.11023(9) 0.0265(3) 0.8184(6) 1. 0 0 
O7 O2- 8 f 0.20683(9) 0.4164(3) 0.2883(5) 1. 0 0 
O8 O2- 8 f 0.04486(14) 0.3969(6) 0.1178(8) 1. 0 0 
H1 H1+ 8 f 0.0449(20) 0.334(7) 0.201(12) 1. 0 0.045(26) 
H2 H1+ 8 f 0.0736(19) 0.415(7) 0.101(13) 1. 0 0.066(24) 

loop_
_atom_site_aniso_label
_atom_site_aniso_type_symbol
_atom_site_aniso_U_11
_atom_site_aniso_U_22
_atom_site_aniso_U_33
_atom_site_aniso_U_12
_atom_site_aniso_U_13
_atom_site_aniso_U_23
Ti1 Ti4+ 0.0048(3) 0.0048(3) 0.0056(3) 0.0000(3) -.0004(3) 0.0017(4)
Na1 Na1+ 0.0184(9) 0.0129(8) 0.0154(10) 0.0017(8) 0.0050(8) -.0004(10)
Na2 Na1+ 0.0253(15) 0.0278(15) 0.0200(16) 0 -.0040(13) 0
Li1 Li1+ 0.0120(51) 0.0160(52) 0.0208(66) 0 0.0051(51) 0
Si1 Si4+ 0.0055(5) 0.0064(5) 0.0057(6) 0.0008(5) 0.0003(5) 0.0003(5)
Si2 Si4+ 0.0078(5) 0.0072(6) 0.0059(6) -.0001(5) 0.0000(5) 0.0005(6)
O1 O2- 0.0075(12) 0.0088(12) 0.0074(14) 0.0007(14) 0.0008(12) -.0009(14)
O2 O2- 0.0095(14) 0.0064(13) 0.0106(17) 0.0034(12) 0.0007(13) -.0002(13)
O3 O2- 0.0089(14) 0.0096(14) 0.0089(16) -.0004(12) -.0006(13) -.0009(13)
O4 O2- 0.0087(14) 0.0019(15) 0.0118(16) 0.0013(12) -.0017(13) 0.0005(14)
O5 O2- 0.0067(13) 0.0066(14) 0.0092(15) -.0012(11) 0.0018(12) -.0031(13)
O6 O2- 0.0091(14) 0.0104(15) 0.0082(16) 0.0002(12) 0.0014(13) 0.0026(13)
O7 O2- 0.0081(14) 0.0086(13) 0.0042(14) -.0003(13) 0.0022(11) 0.0000(13)
O8 O2- 0.0185(20) 0.0380(25) 0.0238(23) 0.0006(20) -.0028(17) 0.0043(24)
#End of data_33739-ICSD


