data_15769-ICSD
#?2014 by Fachinformationszentrum Karlsruhe, and the U.S. Secretary of 
#Commerce on behalf of the United States.  All rights reserved.
_database_code_ICSD                15769
_audit_creation_date               1980/01/01
_chemical_name_systematic          'Sodium Oxomanganate(III) - Beta'
_chemical_formula_structural       'Na Mn O2'
_chemical_formula_sum              'Mn1 Na1 O2'
_publ_section_title                'Ueber Li Mn O2 und beta Na Mn O2'
loop_
_citation_id
_citation_journal_abbrev
_citation_year
_citation_journal_volume
_citation_page_first
_citation_page_last
_citation_journal_id_ASTM
primary 'Zeitschrift fuer Anorganische und Allgemeine Chemie (1950) (DE)'
 1975 417 1 10 ZAACAB
_publ_author_name                  'Hoppe, R.;Brachtel, G.;Jansen, M.'
_cell_length_a                     2.859
_cell_length_b                     6.338
_cell_length_c                     4.785
_cell_angle_alpha                  90.
_cell_angle_beta                   90.
_cell_angle_gamma                  90.
_cell_volume                       86.71
_cell_formula_units_Z              2
_symmetry_space_group_name_H-M     'P m n m Z'
_symmetry_Int_Tables_number        59
_refine_ls_R_factor_all            .12
loop_
_symmetry_equiv_pos_site_id
_symmetry_equiv_pos_as_xyz
  1	'x+.5, -y, z+.5'
  2	'-x, -y, z+.5'
  3	'x+.5, -y, -z'
  4	'-x, -y, -z'
  5	'-x+.5, y, -z+.5'
  6	'x, y, -z+.5'
  7	'-x+.5, y, z'
  8	'x, y, z'
loop_
_atom_type_symbol
_atom_type_oxidation_number
Mn3+	3
Na1+	1
O2-	-2
loop_
_atom_site_label
_atom_site_type_symbol
_atom_site_symmetry_multiplicity
_atom_site_Wyckoff_symbol
_atom_site_fract_x
_atom_site_fract_y
_atom_site_fract_z
_atom_site_occupancy
_atom_site_attached_hydrogens
_atom_site_B_iso_or_equiv
Mn1 Mn3+ 2 a 0.25 0.6265(4) 0.25 1. 0 0.23 
Na1 Na1+ 2 a 0.25 0.133(1) 0.25 1. 0 0.9 
O1 O2- 2 b 0.25 0.172(2) 0.75 1. 0 0.5 
O2 O2- 2 b 0.25 0.582(2) 0.75 1. 0 0.5 

#End of data_15769-ICSD


