data_71882-ICSD
#?2014 by Fachinformationszentrum Karlsruhe, and the U.S. Secretary of 
#Commerce on behalf of the United States.  All rights reserved.
_database_code_ICSD                71882
_audit_creation_date               1993/08/22
_chemical_name_systematic
;
Potassium Niobium Silicophosphate *
;
_chemical_formula_structural       'K4 Nb8 (Si P4 O34)'
_chemical_formula_sum              'K4 Nb8 O34 P4 Si1'
_publ_section_title
;
A niobium silicophosphate belonging to the niobium phosphate 
bronzeseries: K4Nb8P4SiO34
;
loop_
_citation_id
_citation_journal_abbrev
_citation_year
_citation_journal_volume
_citation_page_first
_citation_page_last
_citation_journal_id_ASTM
primary 'Acta Crystallographica, Section C: Crystal Structure Communications'
 1992 48 1744 1747 ACSCEE
_publ_author_name
;
Leclaire, A.;Borel, M.M.;Chardon, J.;Grandin, A.;Raveau, B.
;
_cell_length_a                     10.6050(9)
_cell_length_b                     10.6050(9)
_cell_length_c                     6.4099(5)
_cell_angle_alpha                  90.
_cell_angle_beta                   90.
_cell_angle_gamma                  90.
_cell_volume                       720.9
_cell_formula_units_Z              1
_symmetry_space_group_name_H-M     'P -4 m 2'
_symmetry_Int_Tables_number        115
_refine_ls_R_factor_all            .03
loop_
_symmetry_equiv_pos_site_id
_symmetry_equiv_pos_as_xyz
  1	'-y, -x, -z'
  2	'x, -y, z'
  3	'y, x, -z'
  4	'-x, y, z'
  5	'y, -x, -z'
  6	'-x, -y, z'
  7	'-y, x, -z'
  8	'x, y, z'
loop_
_atom_type_symbol
_atom_type_oxidation_number
K1+	1
Nb5+	5
O2-	-2
P5+	5
Si4+	4
loop_
_atom_site_label
_atom_site_type_symbol
_atom_site_symmetry_multiplicity
_atom_site_Wyckoff_symbol
_atom_site_fract_x
_atom_site_fract_y
_atom_site_fract_z
_atom_site_occupancy
_atom_site_attached_hydrogens
Nb1 Nb5+ 4 k 0.5 0.1847(1) 0.2035(1) 1. 0 
Nb2 Nb5+ 4 h 0.17750(5) 0.17750(5) 0 1. 0 
Si1 Si4+ 1 b 0.5 0.5 0 1. 0 
P1 P5+ 4 i 0.2397(1) 0.2397(1) 0.5 1. 0 
K1 K1+ 1 d 0 0 0.5 1. 0 
K2 K1+ 2 g 0 0.5 0.2923(8) 1. 0 
K3 K1+ 1 c 0.5 0.5 0.5 1. 0 
O1 O2- 2 g 0.5 0 0.261(2) 1. 0 
O2 O2- 8 l 0.3638(4) 0.1747(5) 0.0215(8) 1. 0 
O3 O2- 8 l 0.3790(4) 0.2154(5) 0.4530(7) 1. 0 
O4 O2- 4 k 0.5 0.3819(7) 0.145(1) 1. 0 
O5 O2- 4 j 0.1756(8) 0 0.032(1) 1. 0 
O6 O2- 8 l 0.1586(4) 0.1982(4) 0.3115(6) 1. 0 

#End of data_71882-ICSD


