data_15395-ICSD
#?2014 by Fachinformationszentrum Karlsruhe, and the U.S. Secretary of 
#Commerce on behalf of the United States.  All rights reserved.
_database_code_ICSD                15395
_audit_creation_date               1980/01/01
_audit_update_record               2005/10/01
_chemical_name_systematic          'Dilithium Tungstate'
_chemical_formula_structural       'Li2 (W O4)'
_chemical_formula_sum              'Li2 O4 W1'
_publ_section_title
;
The crystal structure of lithium tungstate
;
loop_
_citation_id
_citation_journal_abbrev
_citation_year
_citation_journal_volume
_citation_page_first
_citation_page_last
_citation_journal_id_ASTM
primary 'Acta Crystallographica (1,1948-23,1967)' 1961 14 229 230 ACCRA9
2 'Phase Transition' 1992 38 127 220 PHTRDP
_publ_author_name                  'Zachariasen, W.H.;Plettinger, H.A.'
_cell_length_a                     14.361(3)
_cell_length_b                     14.361(3)
_cell_length_c                     9.602(2)
_cell_angle_alpha                  90.
_cell_angle_beta                   90.
_cell_angle_gamma                  120.
_cell_volume                       1714.99
_cell_formula_units_Z              18
_symmetry_space_group_name_H-M     'R -3 H'
_symmetry_Int_Tables_number        148
_refine_ls_R_factor_all            .065
loop_
_symmetry_equiv_pos_site_id
_symmetry_equiv_pos_as_xyz
  1	'x-y, x, -z'
  2	'y, -x+y, -z'
  3	'-x, -y, -z'
  4	'-x+y, -x, z'
  5	'-y, x-y, z'
  6	'x, y, z'
  7	'x-y+.6666, x+.3333, -z+.3333'
  8	'x-y+.3333, x+.6666, -z+.6666'
  9	'y+.6666, -x+y+.3333, -z+.3333'
 10	'y+.3333, -x+y+.6666, -z+.6666'
 11	'-x+.6666, -y+.3333, -z+.3333'
 12	'-x+.3333, -y+.6666, -z+.6666'
 13	'-x+y+.6666, -x+.3333, z+.3333'
 14	'-x+y+.3333, -x+.6666, z+.6666'
 15	'-y+.6666, x-y+.3333, z+.3333'
 16	'-y+.3333, x-y+.6666, z+.6666'
 17	'x+.6666, y+.3333, z+.3333'
 18	'x+.3333, y+.6666, z+.6666'
loop_
_atom_type_symbol
_atom_type_oxidation_number
Li1+	1
O2-	-2
W6+	6
loop_
_atom_site_label
_atom_site_type_symbol
_atom_site_symmetry_multiplicity
_atom_site_Wyckoff_symbol
_atom_site_fract_x
_atom_site_fract_y
_atom_site_fract_z
_atom_site_occupancy
_atom_site_attached_hydrogens
_atom_site_B_iso_or_equiv
W1 W6+ 18 f -.02035(7) 0.19537(7) 0.25069(10) 1. 0 0.176 
O1 O2- 18 f 0.1117(16) 0.2112(16) 0.2500(21) 1. 0 1.11 
O2 O2- 18 f -.0010(16) 0.3275(16) 0.2502(21) 1. 0 1.04 
O3 O2- 18 f -.0909(16) 0.1238(16) 0.0993(21) 1. 0 1.68 
O4 O2- 18 f -.0970(16) 0.1235(16) 0.4028(21) 1. 0 0.95 
Li1 Li1+ 18 f -.014(4) 0.191(4) 0.591(5) 1. 0 2.5 
Li2 Li1+ 18 f -.027(4) 0.187(4) 0.911(5) 1. 0 2.5 

#End of data_15395-ICSD


