data_190809-ICSD
#?2014 by Fachinformationszentrum Karlsruhe, and the U.S. Secretary of 
#Commerce on behalf of the United States.  All rights reserved.
_database_code_ICSD                190809
_audit_creation_date               2014/08/01
_chemical_name_systematic          'Lithium Manganese Oxide (1/2/4)'
_chemical_formula_structural       'Li Mn2 O4'
_chemical_formula_sum              'Li1 Mn2 O4'
_publ_section_title
;
Local lattice distortion caused by short range charge ordering in Li 
Mn2 O4
;
loop_
_citation_id
_citation_journal_abbrev
_citation_year
_citation_journal_volume
_citation_journal_issue
_citation_page_first
_citation_page_last
_citation_journal_id_ASTM
primary 'Journal of the Physical Society of Japan' 2013 82 9 094601-1 094601-6 JUPSAU
_publ_author_name
;
Kodama, Katsuaki;Igawa, Naoki;Shamoto, Shin-ichi;Ikeda, 
Kazutaka;Oshita, Hidetoshi;Kaneko, Naokatsu;Otomo, Toshiya;Suzuya, 
Kentaro
;
_cell_length_a                     24.6388(3)
_cell_length_b                     24.7978(3)
_cell_length_c                     8.21781(8)
_cell_angle_alpha                  90.
_cell_angle_beta                   90.
_cell_angle_gamma                  90.
_cell_volume                       5020.98
_cell_formula_units_Z              72
_symmetry_space_group_name_H-M     'F d d d Z'
_symmetry_Int_Tables_number        70
_refine_ls_R_factor_all            .0694
loop_
_symmetry_equiv_pos_site_id
_symmetry_equiv_pos_as_xyz
  1	'x+.75, y+.75, -z'
  2	'x+.75, -y, z+.75'
  3	'-x, y+.75, z+.75'
  4	'-x, -y, -z'
  5	'-x+.25, -y+.25, z'
  6	'-x+.25, y, -z+.25'
  7	'x, -y+.25, -z+.25'
  8	'x, y, z'
  9	'x+.75, y+.25, -z+.5'
 10	'x+.25, y+.75, -z+.5'
 11	'x+.25, y+.25, -z'
 12	'x+.75, -y+.5, z+.25'
 13	'x+.25, -y, z+.25'
 14	'x+.25, -y+.5, z+.75'
 15	'-x, y+.25, z+.25'
 16	'-x+.5, y+.75, z+.25'
 17	'-x+.5, y+.25, z+.75'
 18	'-x, -y+.5, -z+.5'
 19	'-x+.5, -y, -z+.5'
 20	'-x+.5, -y+.5, -z'
 21	'-x+.25, -y+.75, z+.5'
 22	'-x+.75, -y+.25, z+.5'
 23	'-x+.75, -y+.75, z'
 24	'-x+.25, y+.5, -z+.75'
 25	'-x+.75, y, -z+.75'
 26	'-x+.75, y+.5, -z+.25'
 27	'x, -y+.75, -z+.75'
 28	'x+.5, -y+.25, -z+.75'
 29	'x+.5, -y+.75, -z+.25'
 30	'x, y+.5, z+.5'
 31	'x+.5, y, z+.5'
 32	'x+.5, y+.5, z'
loop_
_atom_type_symbol
_atom_type_oxidation_number
Li1+	1
Mn3.1+	3.1
Mn4+	4
O2-	-2
loop_
_atom_site_label
_atom_site_type_symbol
_atom_site_symmetry_multiplicity
_atom_site_Wyckoff_symbol
_atom_site_fract_x
_atom_site_fract_y
_atom_site_fract_z
_atom_site_occupancy
_atom_site_attached_hydrogens
_atom_site_B_iso_or_equiv
Li1 Li1+ 8 a 0.125 0.125 0.125 1. 0 0.29(1) 
Li2 Li1+ 16 f 0.125 0.7898(2) 0.125 1. 0 0.29(1) 
Li3 Li1+ 16 e 0.7950(2) 0.125 0.125 1. 0 0.29(1) 
Li4 Li1+ 32 h 0.2965(1) 0.3016(1) 0.1162(1) 1. 0 0.29(1) 
Mn1 Mn3.1+ 16 d 0.250 0.250 0.5 1. 0 0.33(1) 
Mn2 Mn3.1+ 32 h 0.0833(1) 0.0836(1) 0.5083(1) 1. 0 0.33(1) 
Mn3 Mn3.1+ 32 h 0.0879(1) 0.3298(1) 0.2512(1) 1. 0 0.33(1) 
Mn4 Mn4+ 32 h 0.2517(1) 0.1674(1) 0.2505(1) 1. 0 0.33(1) 
Mn5 Mn4+ 32 h 0.1644(1) 0.2458(1) 0.2529(2) 1. 0 0.33(1) 
O1 O2- 32 h 0.1744(1) 0.1685(1) 0.2585(2) 1. 0 0.56(1) 
O2 O2- 32 h 0.0782(1) 0.0049(1) 0.4818(1) 1. 0 0.56(1) 
O3 O2- 32 h 0.0785(1) 0.3312(1) 0.4756(1) 1. 0 0.56(1) 
O4 O2- 32 h 0.2526(1) 0.1721(1) 0.4819(1) 1. 0 0.56(1) 
O5 O2- 32 h 0.0035(1) 0.0082(1) 0.2487(2) 1. 0 0.56(1) 
O6 O2- 32 h 0.2530(1) 0.0897(1) 0.2370(1) 1. 0 0.56(1) 
O7 O2- 32 h 0.1627(1) 0.3238(1) 0.2370(2) 1. 0 0.56(1) 
O8 O2- 32 h 0.0908(1) 0.2467(1) 0.2279(1) 1. 0 0.56(1) 
O9 O2- 32 h 0.0843(1) 0.1610(1) 0.5150(1) 1. 0 0.56(1) 

#End of data_190809-ICSD


