data_59936-ICSD
#?2014 by Fachinformationszentrum Karlsruhe, and the U.S. Secretary of 
#Commerce on behalf of the United States.  All rights reserved.
_database_code_ICSD                59936
_audit_creation_date               2005/10/01
_chemical_name_systematic          'Lithium Chlorate(III)'
_chemical_formula_structural       'Li Cl O2'
_chemical_formula_sum              'Cl1 Li1 O2'
_publ_section_title
;
Two alkali metal chlorites, Li Cl O2 and K Cl O2
;
loop_
_citation_id
_citation_journal_abbrev
_citation_year
_citation_journal_volume
_citation_page_first
_citation_page_last
_citation_journal_id_ASTM
primary 'Acta Crystallographica, Section C: Crystal Structure Communications'
 2005 61 i17 i19 ACSCEE
_publ_author_name                  'Smolentsev, A.I.;Naumov, D.Yu.'
_cell_length_a                     4.7223(11)
_cell_length_b                     4.7223(11)
_cell_length_c                     10.298(3)
_cell_angle_alpha                  90.
_cell_angle_beta                   90.
_cell_angle_gamma                  90.
_cell_volume                       229.65
_cell_formula_units_Z              4
_symmetry_space_group_name_H-M     'P 42/n c m Z'
_symmetry_Int_Tables_number        138
_refine_ls_R_factor_all            .087
loop_
_symmetry_equiv_pos_site_id
_symmetry_equiv_pos_as_xyz
  1	'y+.5, x+.5, -z'
  2	'y+.5, -x, -z+.5'
  3	'-y, x+.5, -z+.5'
  4	'-y, -x, -z'
  5	'x+.5, y+.5, -z'
  6	'-x, y+.5, -z+.5'
  7	'x+.5, -y, -z+.5'
  8	'-x, -y, -z'
  9	'-y+.5, -x+.5, z'
 10	'-y+.5, x, z+.5'
 11	'y, -x+.5, z+.5'
 12	'y, x, z'
 13	'-x+.5, -y+.5, z'
 14	'x, -y+.5, z+.5'
 15	'-x+.5, y, z+.5'
 16	'x, y, z'
loop_
_atom_type_symbol
_atom_type_oxidation_number
Cl3+	3
Li1+	1
O2-	-2
loop_
_atom_site_label
_atom_site_type_symbol
_atom_site_symmetry_multiplicity
_atom_site_Wyckoff_symbol
_atom_site_fract_x
_atom_site_fract_y
_atom_site_fract_z
_atom_site_occupancy
_atom_site_attached_hydrogens
_atom_site_U_iso_or_equiv
Li1 Li1+ 4 b 0.2500 0.7500 0.2500 1 0 0.028(3) 
Cl1 Cl3+ 4 e 0.7500 0.7500 0.06960(18) 1 0 0.0256(6) 
O1 O2- 8 i 0.5565(6) 0.5565(6) 0.1575(4) 1 0 0.0248(11) 

loop_
_atom_site_aniso_label
_atom_site_aniso_type_symbol
_atom_site_aniso_U_11
_atom_site_aniso_U_22
_atom_site_aniso_U_33
_atom_site_aniso_U_12
_atom_site_aniso_U_13
_atom_site_aniso_U_23
Li1 Li1+ 0.028(4) 0.028(4) 0.028(6) 0.000 0.000 0.000
Cl1 Cl3+ 0.0256(8) 0.0256(8) 0.0256(10) 0.0001(18) 0.000 0.000
O1 O2- 0.0196(15) 0.0196(15) 0.035(2) 0.0022(18) 0.0049(15) 0.0049(15)
#End of data_59936-ICSD


