data_200086-ICSD
#?2014 by Fachinformationszentrum Karlsruhe, and the U.S. Secretary of 
#Commerce on behalf of the United States.  All rights reserved.
_database_code_ICSD                200086
_audit_creation_date               1980/01/01
_audit_update_record               2012/02/01
_chemical_name_systematic          'Tripotassium Silver Oxide'
_chemical_formula_structural       'K3 Ag O2'
_chemical_formula_sum              'Ag1 K3 O2'
_publ_section_title
;
Determination de la structure cristalline de K3 Ag O2
;
loop_
_citation_id
_citation_journal_abbrev
_citation_year
_citation_journal_volume
_citation_page_first
_citation_page_last
_citation_journal_id_ASTM
primary 'Revue de Chimie Minerale' 1977 14 423 428 RVCMA8
_publ_author_name
;
Darriet, B.;Devalette, M.;Lecart, B.
;
_cell_length_a                     12.30(2)
_cell_length_b                     12.30(2)
_cell_length_c                     13.48(3)
_cell_angle_alpha                  90.
_cell_angle_beta                   90.
_cell_angle_gamma                  90.
_cell_volume                       2039.39
_cell_formula_units_Z              16
_symmetry_space_group_name_H-M     'P 21 21 21'
_symmetry_Int_Tables_number        19
_refine_ls_R_factor_all            .076
loop_
_symmetry_equiv_pos_site_id
_symmetry_equiv_pos_as_xyz
  1	'-x, y+.5, -z+.5'
  2	'x+.5, -y+.5, -z'
  3	'-x+.5, -y, z+.5'
  4	'x, y, z'
loop_
_atom_type_symbol
_atom_type_oxidation_number
Ag1+	1
K1+	1
O2-	-2
loop_
_atom_site_label
_atom_site_type_symbol
_atom_site_symmetry_multiplicity
_atom_site_Wyckoff_symbol
_atom_site_fract_x
_atom_site_fract_y
_atom_site_fract_z
_atom_site_occupancy
_atom_site_attached_hydrogens
Ag1 Ag1+ 4 a -.00034 0.00613 0.32948 1. 0 
Ag2 Ag1+ 4 a 0.0012 0.0099 0.64936 1. 0 
Ag3 Ag1+ 4 a 0.2709 0.23646 0.39971 1. 0 
Ag4 Ag1+ 4 a 0.26311 0.25663 0.08149 1. 0 
K1 K1+ 4 a 0.20847 -.01007 0.49173 1. 0 
K2 K1+ 4 a 0.5253 0.27605 0.50484 1. 0 
K3 K1+ 4 a 0.0083 0.2935 0.00476 1. 0 
K4 K1+ 4 a 0.04845 0.25683 0.24166 1. 0 
K5 K1+ 4 a 0.24469 0.04273 0.23759 1. 0 
K6 K1+ 4 a 0.49103 0.21517 0.26634 1. 0 
K7 K1+ 4 a 0.26773 0.45956 0.23908 1. 0 
K8 K1+ 4 a 0.28284 0.48324 0.50621 1. 0 
K9 K1+ 4 a -.01349 -.00019 0.07032 1. 0 
K10 K1+ 4 a 0.07509 0.08502 0.87364 1. 0 
K11 K1+ 4 a 0.29797 0.30213 0.84685 1. 0 
K12 K1+ 4 a 0.31183 0.19204 0.63403 1. 0 
O1 O2- 4 a 0.1457 0.14298 0.08185 1. 0 
O2 O2- 4 a 0.10977 0.12092 0.66207 1. 0 
O3 O2- 4 a 0.38333 0.11897 0.43604 1. 0 
O4 O2- 4 a 0.39978 0.112 0.83255 1. 0 
O5 O2- 4 a 0.15529 0.35235 0.38839 1. 0 
O6 O2- 4 a 0.12438 0.39462 0.86254 1. 0 
O7 O2- 4 a 0.37666 0.36805 0.07596 1. 0 
O8 O2- 4 a 0.37831 0.37843 0.67326 1. 0 

#End of data_200086-ICSD


