data_73894-ICSD
#?2014 by Fachinformationszentrum Karlsruhe, and the U.S. Secretary of 
#Commerce on behalf of the United States.  All rights reserved.
_database_code_ICSD                73894
_audit_creation_date               1995/01/10
_audit_update_record               2005/10/01
_chemical_name_systematic
;
Bismuth Dimagnesium Dioxide Phosphate
;
_chemical_formula_structural       'Bi Mg2 O2 (P O4)'
_chemical_formula_sum              'Bi1 Mg2 O6 P1'
_publ_section_title
;
Synthesis and characterization of bismuth magnesium phosphate and 
arsenate: BiMg2PO6 and BiMg2AsO6
;
loop_
_citation_id
_citation_journal_abbrev
_citation_year
_citation_journal_volume
_citation_page_first
_citation_page_last
_citation_journal_id_ASTM
primary 'Journal of Solid State Chemistry' 1993 105 599 606 JSSCBI
2 'Golden Book of Phase Transitions, Wroclaw' 2002 1 1 123 GBOPT5
_publ_author_name                  'Huang, J.;Gu, Q.;Sleight, A.W.'
_cell_length_a                     7.801(2)
_cell_length_b                     11.888(3)
_cell_length_c                     5.273(2)
_cell_angle_alpha                  90.
_cell_angle_beta                   90.
_cell_angle_gamma                  90.
_cell_volume                       489.01
_cell_formula_units_Z              4
_symmetry_space_group_name_H-M     'C m c m'
_symmetry_Int_Tables_number        63
_refine_ls_R_factor_all            .031
loop_
_symmetry_equiv_pos_site_id
_symmetry_equiv_pos_as_xyz
  1	'-x, y, -z+.5'
  2	'-x, -y, z+.5'
  3	'-x, y, z'
  4	'-x, -y, -z'
  5	'x, -y, z+.5'
  6	'x, y, -z+.5'
  7	'x, -y, -z'
  8	'x, y, z'
  9	'-x+.5, y+.5, -z+.5'
 10	'-x+.5, -y+.5, z+.5'
 11	'-x+.5, y+.5, z'
 12	'-x+.5, -y+.5, -z'
 13	'x+.5, -y+.5, z+.5'
 14	'x+.5, y+.5, -z+.5'
 15	'x+.5, -y+.5, -z'
 16	'x+.5, y+.5, z'
loop_
_atom_type_symbol
_atom_type_oxidation_number
Bi3+	3
Mg2+	2
O2-	-2
P5+	5
loop_
_atom_site_label
_atom_site_type_symbol
_atom_site_symmetry_multiplicity
_atom_site_Wyckoff_symbol
_atom_site_fract_x
_atom_site_fract_y
_atom_site_fract_z
_atom_site_occupancy
_atom_site_attached_hydrogens
Bi1 Bi3+ 4 c 0.5 0.09642(3) 0.25 1. 0 
P1 P5+ 4 c 0 0.1979(2) 0.25 1. 0 
Mg1 Mg2+ 8 g 0.3040(4) 0.4022(2) 0.25 1. 0 
O1 O2- 8 e 0.3295(7) 0 0.5 1. 0 
O2 O2- 8 f 0 0.8758(5) 0.509(1) 1. 0 
O3 O2- 8 g 0.664(1) 0.7678(6) 0.25 1. 0 

loop_
_atom_site_aniso_label
_atom_site_aniso_type_symbol
_atom_site_aniso_U_11
_atom_site_aniso_U_22
_atom_site_aniso_U_33
_atom_site_aniso_U_12
_atom_site_aniso_U_13
_atom_site_aniso_U_23
Bi1 Bi3+ 0.0064(2) 0.0055(2) 0.0064(2) 0 0 0
P1 P5+ 0.008(1) 0.005(1) 0.006(1) 0 0 0
Mg1 Mg2+ 0.004(1) 0.010(1) 0.006(1) 0.0004(8) 0 0
O1 O2- 0.006(2) 0.011(2) 0.008(8) 0 0 0.000(2)
O2 O2- 0.007(2) 0.011(2) 0.008(2) 0 0 0.004(2)
O3 O2- 0.033(4) 0.025(4) 0.025(3) -.026(3) 0 0
#End of data_73894-ICSD


