data_100631-ICSD
#?2014 by Fachinformationszentrum Karlsruhe, and the U.S. Secretary of 
#Commerce on behalf of the United States.  All rights reserved.
_database_code_ICSD                100631
_audit_creation_date               1980/01/01
_audit_update_record               2007/08/01
_chemical_name_systematic
;
Sodium Lithium Zirconium Phyllo-hexasilicate
;
_chemical_formula_structural       'Na Li Zr (Si6 O15)'
_chemical_formula_sum              'Li1 Na1 O15 Si6 Zr1'
_chemical_name_mineral             Zektzerite
_publ_section_title
;
Zektzerite, Na Li Zr Si6 O15: a silicate with six-tetrahedral-repeat 
double chains
;
loop_
_citation_id
_citation_journal_abbrev
_citation_year
_citation_journal_volume
_citation_page_first
_citation_page_last
_citation_journal_id_ASTM
primary 'American Mineralogist' 1978 63 304 310 AMMIAY
_publ_author_name                  'Ghose, S.;Wan, C.'
_cell_length_a                     14.330(2)
_cell_length_b                     17.3540(20)
_cell_length_c                     10.164(2)
_cell_angle_alpha                  90.
_cell_angle_beta                   90.
_cell_angle_gamma                  90.
_cell_volume                       2527.61
_cell_formula_units_Z              8
_symmetry_space_group_name_H-M     'C m c a'
_symmetry_Int_Tables_number        64
_refine_ls_R_factor_all            .04
loop_
_symmetry_equiv_pos_site_id
_symmetry_equiv_pos_as_xyz
  1	'-x, -y+.5, z+.5'
  2	'-x, y+.5, -z+.5'
  3	'-x, y, z'
  4	'-x, -y, -z'
  5	'x, y+.5, -z+.5'
  6	'x, -y+.5, z+.5'
  7	'x, -y, -z'
  8	'x, y, z'
  9	'-x+.5, -y, z+.5'
 10	'-x+.5, y, -z+.5'
 11	'-x+.5, y+.5, z'
 12	'-x+.5, -y+.5, -z'
 13	'x+.5, y, -z+.5'
 14	'x+.5, -y, z+.5'
 15	'x+.5, -y+.5, -z'
 16	'x+.5, y+.5, z'
loop_
_atom_type_symbol
_atom_type_oxidation_number
Li1+	1
Na1+	1
O2-	-2
Si4+	4
Zr4+	4
loop_
_atom_site_label
_atom_site_type_symbol
_atom_site_symmetry_multiplicity
_atom_site_Wyckoff_symbol
_atom_site_fract_x
_atom_site_fract_y
_atom_site_fract_z
_atom_site_occupancy
_atom_site_attached_hydrogens
Na1 Na1+ 8 e 0.25 0.21648(8) 0.25 1. 0 
Li1 Li1+ 8 d 0.24712(44) 0 0 1. 0 
Zr1 Zr4+ 8 e 0.25 -.08805(1) 0.25 1. 0 
Si1 Si4+ 16 g 0.39091(4) 0.12869(3) 0.01792(5) 1. 0 
Si2 Si4+ 16 g 0.38965(4) 0.07306(3) 0.31148(5) 1. 0 
Si3 Si4+ 16 g 0.39072(4) 0.19281(3) 0.54143(5) 1. 0 
O1 O2- 16 g 0.37070(12) 0.21970(8) -.00542(16) 1. 0 
O2 O2- 16 g 0.32801(10) 0.07851(8) -.07887(14) 1. 0 
O3 O2- 16 g 0.36177(11) 0.11174(9) 0.17054(15) 1. 0 
O4 O2- 16 g 0.32978(10) -.00240(8) 0.34095(14) 1. 0 
O5 O2- 16 g 0.36064(11) 0.14017(8) 0.41591(15) 1. 0 
O6 O2- 16 g 0.32984(11) 0.17405(8) 0.66829(14) 1. 0 
O7 O2- 8 f 0.5 0.11001(15) -.00132(24) 1. 0 
O8 O2- 8 f 0.5 0.05683(13) 0.31751(24) 1. 0 
O9 O2- 8 f 0.5 0.18146(14) 0.57081(25) 1. 0 

#End of data_100631-ICSD


