data_82907-ICSD
#?2014 by Fachinformationszentrum Karlsruhe, and the U.S. Secretary of 
#Commerce on behalf of the United States.  All rights reserved.
_database_code_ICSD                82907
_audit_creation_date               1998/06/26
_audit_update_record               2010/08/01
_chemical_name_systematic          'Dilithium Dilanthanum Trititanate'
_chemical_formula_structural       'Li2 La2 (Ti3 O10)'
_chemical_formula_sum              'La2 Li2 O10 Ti3'
_publ_section_title
;
Crystal structure determination of ion-exchangeable layered 
perovskite compounds, K2 La2 Ti3 O10 and Li2 La2 Ti3 O10
;
loop_
_citation_id
_citation_journal_abbrev
_citation_year
_citation_journal_volume
_citation_journal_issue
_citation_page_first
_citation_page_last
_citation_journal_id_ASTM
primary 'Materials Research Bulletin' 1996 31 11 1427 1435 MRBUAC
_publ_author_name                  'Toda, K.;Watanabe, J.;Sato, M.'
_cell_length_a                     3.84116(1)
_cell_length_b                     3.84116(1)
_cell_length_c                     26.560(1)
_cell_angle_alpha                  90.
_cell_angle_beta                   90.
_cell_angle_gamma                  90.
_cell_volume                       391.88
_cell_formula_units_Z              2
_symmetry_space_group_name_H-M     'I 4/m m m'
_symmetry_Int_Tables_number        139
_refine_ls_R_factor_all            .023
loop_
_symmetry_equiv_pos_site_id
_symmetry_equiv_pos_as_xyz
  1	'y, x, -z'
  2	'-y, -x, -z'
  3	'-y, x, -z'
  4	'y, -x, -z'
  5	'-x, y, -z'
  6	'x, -y, -z'
  7	'x, y, -z'
  8	'-x, -y, -z'
  9	'-y, -x, z'
 10	'y, x, z'
 11	'y, -x, z'
 12	'-y, x, z'
 13	'x, -y, z'
 14	'-x, y, z'
 15	'-x, -y, z'
 16	'x, y, z'
 17	'y+.5, x+.5, -z+.5'
 18	'-y+.5, -x+.5, -z+.5'
 19	'-y+.5, x+.5, -z+.5'
 20	'y+.5, -x+.5, -z+.5'
 21	'-x+.5, y+.5, -z+.5'
 22	'x+.5, -y+.5, -z+.5'
 23	'x+.5, y+.5, -z+.5'
 24	'-x+.5, -y+.5, -z+.5'
 25	'-y+.5, -x+.5, z+.5'
 26	'y+.5, x+.5, z+.5'
 27	'y+.5, -x+.5, z+.5'
 28	'-y+.5, x+.5, z+.5'
 29	'x+.5, -y+.5, z+.5'
 30	'-x+.5, y+.5, z+.5'
 31	'-x+.5, -y+.5, z+.5'
 32	'x+.5, y+.5, z+.5'
loop_
_atom_type_symbol
_atom_type_oxidation_number
La3+	3
Li1+	1
O2-	-2
Ti4+	4
loop_
_atom_site_label
_atom_site_type_symbol
_atom_site_symmetry_multiplicity
_atom_site_Wyckoff_symbol
_atom_site_fract_x
_atom_site_fract_y
_atom_site_fract_z
_atom_site_occupancy
_atom_site_attached_hydrogens
_atom_site_B_iso_or_equiv
Li1 Li1+ 4 d 0 0.5 0.25 1. 0 0.1(1) 
La1 La3+ 4 e 0 0 0.4187(2) 1. 0 0.1(1) 
Ti1 Ti4+ 2 a 0 0 0 1. 0 0.1(1) 
Ti2 Ti4+ 4 e 0 0 0.1591(4) 1. 0 0.1(1) 
O1 O2- 4 c 0 0.5 0 1. 0 0.1(1) 
O2 O2- 4 e 0 0 0.068(1) 1. 0 0.1(1) 
O3 O2- 8 g 0 0.5 0.1437(9) 1. 0 0.1(1) 
O4 O2- 4 e 0 0 0.228(1) 1. 0 0.1(1) 

#End of data_82907-ICSD


