data_201536-ICSD
#?2014 by Fachinformationszentrum Karlsruhe, and the U.S. Secretary of 
#Commerce on behalf of the United States.  All rights reserved.
_database_code_ICSD                201536
_audit_creation_date               1985/07/17
_audit_update_record               2006/04/01
_chemical_name_systematic          'Magnesium Catena-silicate'
_chemical_formula_structural       'Mg (Si O3)'
_chemical_formula_sum              'Mg1 O3 Si1'
_chemical_name_mineral             Enstatite
_publ_section_title
;
Polysynthetically-twinned structures of enstatite and wollastonite
;
loop_
_citation_id
_citation_journal_abbrev
_citation_year
_citation_journal_volume
_citation_page_first
_citation_page_last
_citation_journal_id_ASTM
primary 'Physics and Chemistry of Minerals' 1984 10 217 229 PCMIDU
2 'Golden Book of Phase Transitions, Wroclaw' 2002 1 1 123 GBOPT5
_publ_author_name                  'Ohashi, Y.'
_cell_length_a                     18.2250(20)
_cell_length_b                     8.8128(6)
_cell_length_c                     5.180(1)
_cell_angle_alpha                  90.
_cell_angle_beta                   90.
_cell_angle_gamma                  90.
_cell_volume                       831.98
_cell_formula_units_Z              16
_symmetry_space_group_name_H-M     'P b c a'
_symmetry_Int_Tables_number        61
_refine_ls_R_factor_all            .033
loop_
_symmetry_equiv_pos_site_id
_symmetry_equiv_pos_as_xyz
  1	'x+.5, y, -z+.5'
  2	'x, -y+.5, z+.5'
  3	'-x+.5, y+.5, z'
  4	'-x, -y, -z'
  5	'-x+.5, -y, z+.5'
  6	'-x, y+.5, -z+.5'
  7	'x+.5, -y+.5, -z'
  8	'x, y, z'
loop_
_atom_type_symbol
_atom_type_oxidation_number
Mg2+	2
O2-	-2
Si4+	4
loop_
_atom_site_label
_atom_site_type_symbol
_atom_site_symmetry_multiplicity
_atom_site_Wyckoff_symbol
_atom_site_fract_x
_atom_site_fract_y
_atom_site_fract_z
_atom_site_occupancy
_atom_site_attached_hydrogens
_atom_site_B_iso_or_equiv
Mg1 Mg2+ 8 c 0.37584(4) 0.65383(8) 0.8660(1) 1. 0 0.37(1) 
Mg2 Mg2+ 8 c 0.37677(4) 0.48687(8) 0.3589(1) 1. 0 0.57(1) 
Si1 Si4+ 8 c 0.27173(3) 0.34155(7) 0.0505(1) 1. 0 0.28(1) 
Si2 Si4+ 8 c 0.47353(3) 0.33739(6) 0.7980(1) 1. 0 0.27(1) 
O1 O2- 8 c 0.18343(7) 0.3398(2) 0.0347(3) 1. 0 0.38(2) 
O2 O2- 8 c 0.31106(8) 0.5023(2) 0.0433(3) 1. 0 0.47(2) 
O3 O2- 8 c 0.30322(7) 0.2227(2) 0.8311(3) 1. 0 0.46(2) 
O4 O2- 8 c 0.56243(7) 0.3402(2) 0.8001(3) 1. 0 0.39(2) 
O5 O2- 8 c 0.43258(8) 0.4827(2) 0.6895(3) 1. 0 0.46(2) 
O6 O2- 8 c 0.44742(8) 0.1952(2) 0.6039(3) 1. 0 0.41(2) 

#End of data_201536-ICSD


