data_250468-ICSD
#?2014 by Fachinformationszentrum Karlsruhe, and the U.S. Secretary of 
#Commerce on behalf of the United States.  All rights reserved.
_database_code_ICSD                250468
_audit_creation_date               2008/08/01
_chemical_name_systematic          'Silver Trinitrato(V)cobaltate'
_chemical_formula_structural       'Ag (Co (N O3)3)'
_chemical_formula_sum              'Ag1 Co1 N3 O9'
_publ_section_title
;
Synthesis and crystal structures of nitratocobaltates Na2 [Co (N 
O3)4], K2 [Co (N O3)4], and Ag [Co (N O3)3], and potassium 
nitratonickelate K2 [Ni (N O3)4]
;
loop_
_citation_id
_citation_journal_abbrev
_citation_year
_citation_journal_volume
_citation_journal_issue
_citation_page_first
_citation_page_last
_citation_journal_id_ASTM
primary Kristallografiya 2008 53 2 264 272 KRISAJ
2 'Crystallography Reports' 2008 53 2 237 245 CYSTE3
_publ_author_name
;
Morozov,  I.V.;Fedorova, A.A.;Albov, D.V.;Kuznetsova, N.R.;Romanov, 
I.A.;Rybakov, V.B.;Troyanov, S.I.
;
_cell_length_a                     7.576(5)
_cell_length_b                     7.312(2)
_cell_length_c                     12.838(5)
_cell_angle_alpha                  90.00
_cell_angle_beta                   94.18(4)
_cell_angle_gamma                  90.00
_cell_volume                       709.28
_cell_formula_units_Z              4
_symmetry_space_group_name_H-M     'P 1 21/n 1'
_symmetry_Int_Tables_number        14
_refine_ls_R_factor_all            .0228
loop_
_symmetry_equiv_pos_site_id
_symmetry_equiv_pos_as_xyz
  1	'-x+.5, y+.5, -z+.5'
  2	'-x, -y, -z'
  3	'x+.5, -y+.5, z+.5'
  4	'x, y, z'
loop_
_atom_type_symbol
_atom_type_oxidation_number
Ag1+	1
Co2+	2
N5+	5
O2-	-2
loop_
_atom_site_label
_atom_site_type_symbol
_atom_site_symmetry_multiplicity
_atom_site_Wyckoff_symbol
_atom_site_fract_x
_atom_site_fract_y
_atom_site_fract_z
_atom_site_occupancy
_atom_site_attached_hydrogens
_atom_site_U_iso_or_equiv
Ag1 Ag1+ 4 e 0.76742(4) -0.00474(4) 0.57346(3) 1 0 0.01726(10) 
Co1 Co2+ 4 e 0.32089(7) -0.10705(5) 0.82118(4) 1 0 0.00933(13) 
O1 O2- 4 e 0.5247(4) -0.0826(3) 0.7065(2) 1 0 0.0177(7) 
O2 O2- 4 e 0.9381(4) 0.2351(3) 0.6621(2) 1 0 0.0165(6) 
O3 O2- 4 e 0.7623(4) -0.2563(4) 0.7198(3) 1 0 0.0258(7) 
O4 O2- 4 e 0.7224(4) -0.2440(3) 0.4472(2) 1 0 0.0184(7) 
O5 O2- 4 e 0.0413(4) -0.0767(3) 0.8616(3) 1 0 0.0249(8) 
O6 O2- 4 e 0.5575(4) 0.2492(4) 0.5150(3) 1 0 0.0306(8) 
O7 O2- 4 e 0.2818(3) 0.1837(3) 0.7811(2) 1 0 0.0148(6) 
O8 O2- 4 e 0.4266(3) 0.1063(3) 0.9236(2) 1 0 0.0156(6) 
O9 O2- 4 e 0.8856(4) 0.1042(3) 0.3884(2) 1 0 0.0176(6) 
N1 N5+ 4 e 0.6214(4) -0.2036(4) 0.7543(3) 1 0 0.0139(7) 
N2 N5+ 4 e 0.0603(4) -0.1949(4) 0.9323(3) 1 0 0.0165(7) 
N3 N5+ 4 e 0.3680(4) 0.2334(4) 0.8664(3) 1 0 0.0121(7) 

loop_
_atom_site_aniso_label
_atom_site_aniso_type_symbol
_atom_site_aniso_U_11
_atom_site_aniso_U_22
_atom_site_aniso_U_33
_atom_site_aniso_U_12
_atom_site_aniso_U_13
_atom_site_aniso_U_23
Ag1 Ag1+ 0.01854(14) 0.01543(14) 0.01808(15) -0.00152(12) 0.00303(11) 
-0.00082(13)
Co1 Co2+ 0.0106(2) 0.00646(19) 0.0108(3) -0.00040(17) -0.00014(19) 
0.00020(18)
O1 O2- 0.0194(14) 0.0134(11) 0.0206(17) 0.0016(10) 0.0034(14) 0.0055(11)
O2 O2- 0.0173(14) 0.0187(12) 0.0136(16) 0.0002(10) 0.0016(13) -0.0057(11)
O3 O2- 0.0152(14) 0.0334(15) 0.030(2) 0.0055(11) 0.0112(15) 0.0003(14)
O4 O2- 0.0140(13) 0.0213(12) 0.0200(18) -0.0021(10) 0.0033(13) -0.0037(11)
O5 O2- 0.0242(15) 0.0175(12) 0.032(2) 0.0036(11) -0.0028(16) 0.0020(12)
O6 O2- 0.0236(15) 0.0405(18) 0.029(2) 0.0154(12) 0.0144(16) 0.0103(15)
O7 O2- 0.0184(13) 0.0073(10) 0.0175(15) 0.0001(9) -0.0072(12) -0.0010(10)
O8 O2- 0.0196(13) 0.0121(10) 0.0142(15) -0.0001(10) -0.0054(12) 0.0056(10)
O9 O2- 0.0259(15) 0.0059(10) 0.0208(16) 0.0012(10) 0.0004(14) 0.0040(11)
N1 N5+ 0.0138(16) 0.0133(12) 0.0147(18) -0.0012(11) 0.0016(15) -0.0025(12)
N2 N5+ 0.0167(16) 0.0152(13) 0.018(2) -0.0033(12) 0.0041(15) -0.0051(13)
N3 N5+ 0.0118(15) 0.0122(13) 0.0121(18) -0.0014(11) 0.0005(14) -0.0001(12)
#End of data_250468-ICSD


