data_65680-ICSD
#?2014 by Fachinformationszentrum Karlsruhe, and the U.S. Secretary of 
#Commerce on behalf of the United States.  All rights reserved.
_database_code_ICSD                65680
_audit_creation_date               1990/06/08
_audit_update_record               2012/08/01
_chemical_name_systematic
;
Hexapotassium Cyclo-hexaphosphate(V)
;
_chemical_formula_structural       'K6 (P6 O18)'
_chemical_formula_sum              'K6 O18 P6'
_publ_section_title
;
Crystal chemistry of cyclo-hexaphosphates. I. Structure of anhydrous 
potassium cyclo-hexaphosphate
;
loop_
_citation_id
_citation_journal_abbrev
_citation_year
_citation_journal_volume
_citation_page_first
_citation_page_last
_citation_journal_id_ASTM
primary 'Acta Crystallographica, Section C: Crystal Structure Communications'
 1989 45 1273 1275 ACSCEE
2 'Izvestiya Akademii Nauk SSSR, Neorganicheskie Materialy'
 1989 25 454 458 IVNMAW
_publ_author_name                  'Averbuch-Pouchot, M.T.'
_cell_length_a                     15.753(6)
_cell_length_b                     15.753(6)
_cell_length_c                     15.753(6)
_cell_angle_alpha                  90.
_cell_angle_beta                   90.
_cell_angle_gamma                  90.
_cell_volume                       3909.22
_cell_formula_units_Z              8
_symmetry_space_group_name_H-M     'P a -3'
_symmetry_Int_Tables_number        205
_refine_ls_R_factor_all            .023
loop_
_symmetry_equiv_pos_site_id
_symmetry_equiv_pos_as_xyz
  1	'-z+.5, x+.5, y'
  2	'z+.5, x, -y+.5'
  3	'z, -x+.5, y+.5'
  4	'-z, -x, -y'
  5	'y, -z+.5, x+.5'
  6	'-y+.5, z+.5, x'
  7	'y+.5, z, -x+.5'
  8	'-y, -z, -x'
  9	'x+.5, y, -z+.5'
 10	'x, -y+.5, z+.5'
 11	'-x+.5, y+.5, z'
 12	'-x, -y, -z'
 13	'z+.5, -x+.5, -y'
 14	'-z+.5, -x, y+.5'
 15	'-z, x+.5, -y+.5'
 16	'z, x, y'
 17	'-y, z+.5, -x+.5'
 18	'y+.5, -z+.5, -x'
 19	'-y+.5, -z, x+.5'
 20	'y, z, x'
 21	'-x+.5, -y, z+.5'
 22	'-x, y+.5, -z+.5'
 23	'x+.5, -y+.5, -z'
 24	'x, y, z'
loop_
_atom_type_symbol
_atom_type_oxidation_number
K1+	1
O2-	-2
P5+	5
loop_
_atom_site_label
_atom_site_type_symbol
_atom_site_symmetry_multiplicity
_atom_site_Wyckoff_symbol
_atom_site_fract_x
_atom_site_fract_y
_atom_site_fract_z
_atom_site_occupancy
_atom_site_attached_hydrogens
K1 K1+ 4 b 0 0 0.5 1. 0 
K2 K1+ 4 a 0.5 0 0.5 1. 0 
K3 K1+ 8 c 0.73249(3) 0.73249(3) 0.73249(3) 1. 0 
K4 K1+ 24 d 0.75612(3) 0.62017(3) 0.94141(3) 1. 0 
K5 K1+ 8 c 0.12827(3) 0.12827(3) 0.12827(3) 1. 0 
P1 P5+ 24 d 0.57798(3) 0.55892(3) 0.77471(3) 1. 0 
P2 P5+ 24 d 0.65484(3) 0.82806(3) 0.95358(3) 1. 0 
O1 O2- 24 d 0.59398(9) 0.5116(1) 0.6851(1) 1. 0 
O2 O2- 24 d 0.5236(1) 0.63882(9) 0.7443(1) 1. 0 
O3 O2- 24 d 0.5241(1) 0.5033(1) 0.8271(1) 1. 0 
O4 O2- 24 d 0.6587(1) 0.5923(1) 0.8088(1) 1. 0 
O5 O2- 24 d 0.5748(1) 0.8556(1) 0.9129(1) 1. 0 
O6 O2- 24 d 0.7251(1) 0.7959(1) 0.9003(1) 1. 0 

#End of data_65680-ICSD


