data_71302-ICSD
#?2014 by Fachinformationszentrum Karlsruhe, and the U.S. Secretary of 
#Commerce on behalf of the United States.  All rights reserved.
_database_code_ICSD                71302
_audit_creation_date               1993/01/06
_audit_update_record               2012/02/01
_chemical_name_systematic
;
Potassium Phyllo-tetraselenidodicuprato(I)niobate
;
_chemical_formula_structural       'K (Cu2 Nb Se4)'
_chemical_formula_sum              'Cu2 K1 Nb1 Se4'
_publ_section_title
;
Synthesis and characterization of the new quaternary two-dimensional 
materials KCu2NbQ4(Q=Se,S)
;
loop_
_citation_id
_citation_journal_abbrev
_citation_year
_citation_journal_volume
_citation_page_first
_citation_page_last
_citation_journal_id_ASTM
primary 'Journal of Solid State Chemistry' 1991 94 381 385 JSSCBI
_publ_author_name                  'Lu, Y.-J.;Ibers, J.A.'
_cell_length_a                     5.663(2)
_cell_length_b                     18.791(5)
_cell_length_c                     7.645(3)
_cell_angle_alpha                  90.
_cell_angle_beta                   90.
_cell_angle_gamma                  90.
_cell_volume                       813.53
_cell_formula_units_Z              4
_symmetry_space_group_name_H-M     'C 2 c m'
_symmetry_Int_Tables_number        40
_refine_ls_R_factor_all            .087
loop_
_symmetry_equiv_pos_site_id
_symmetry_equiv_pos_as_xyz
  1	'x, -y, z+.5'
  2	'x, y, -z+.5'
  3	'x, -y, -z'
  4	'x, y, z'
  5	'x+.5, -y+.5, z+.5'
  6	'x+.5, y+.5, -z+.5'
  7	'x+.5, -y+.5, -z'
  8	'x+.5, y+.5, z'
loop_
_atom_type_symbol
_atom_type_oxidation_number
Cu1+	1
K1+	1
Nb5+	5
Se2-	-2
loop_
_atom_site_label
_atom_site_type_symbol
_atom_site_symmetry_multiplicity
_atom_site_Wyckoff_symbol
_atom_site_fract_x
_atom_site_fract_y
_atom_site_fract_z
_atom_site_occupancy
_atom_site_attached_hydrogens
_atom_site_B_iso_or_equiv
Nb1 Nb5+ 4 b 0.50019(62) 0.11099(8) 0.25 1. 0 0.88(3) 
Cu1 Cu1+ 4 a 0.52103(93) 0 0 1. 0 0.08(4) 
Cu2 Cu1+ 4 b 0 0.10775(13) 0.25 1. 0 0.17(4) 
Se1 Se2- 4 b 0.25381(93) 0.00368(9) 0.25 1. 0 0.44(3) 
Se2 Se2- 4 b 0.2498(11) 0.21352(10) 0.25 1. 0 0.96(3) 
Se3 Se2- 8 c 0.74932(96) 0.10923(7) 0.99239(15) 1. 0 0.55(2) 
K1 K1+ 4 b 0.7535(14) 0.31714(23) 0.25 1. 0 1.67(7) 

#End of data_71302-ICSD


