data_174059-ICSD
#?2014 by Fachinformationszentrum Karlsruhe, and the U.S. Secretary of 
#Commerce on behalf of the United States.  All rights reserved.
_database_code_ICSD                174059
_audit_creation_date               2010/02/01
_chemical_name_systematic          'Lithium Rubidium Sulfate(VI)'
_chemical_formula_structural       'Li Rb (S O4)'
_chemical_formula_sum              'Li1 O4 Rb1 S1'
_publ_section_title
;
A structural study of the successive transitions in Li Rb S O4
;
loop_
_citation_id
_citation_journal_abbrev
_citation_year
_citation_journal_volume
_citation_journal_issue
_citation_page_first
_citation_page_last
_citation_journal_id_ASTM
primary 'Journal of the Physical Society of Japan' 1987 56 9 3189 3195 JUPSAU
_publ_author_name                  'Kunishige, A.;Mashiyama, H.'
_cell_length_a                     5.303(1)
_cell_length_b                     9.134(2)
_cell_length_c                     8.717(2)
_cell_angle_alpha                  90
_cell_angle_beta                   90.
_cell_angle_gamma                  89.90(2)
_cell_volume                       422.23
_cell_formula_units_Z              4
_symmetry_space_group_name_H-M     'P 1 1 21/n'
_symmetry_Int_Tables_number        14
_refine_ls_R_factor_all            .041
loop_
_symmetry_equiv_pos_site_id
_symmetry_equiv_pos_as_xyz
  1	'x+.5, y+.5, -z+.5'
  2	'-x, -y, -z'
  3	'-x+.5, -y+.5, z+.5'
  4	'x, y, z'
loop_
_atom_type_symbol
_atom_type_oxidation_number
Li1+	1
O2-	-2
Rb1+	1
S6+	6
loop_
_atom_site_label
_atom_site_type_symbol
_atom_site_symmetry_multiplicity
_atom_site_Wyckoff_symbol
_atom_site_fract_x
_atom_site_fract_y
_atom_site_fract_z
_atom_site_occupancy
_atom_site_attached_hydrogens
_atom_site_B_iso_or_equiv
Li1 Li1+ 4 e 0.2449(29) 0.4131(16) 0.3268(17) 1. 0 3.22(34) 
Rb1 Rb1+ 4 e 0.7405(1) 0.2177(1) 0.5030(1) 1. 0 2.39(2) 
S1 S6+ 4 e 0.2473(3) 0.0808(2) 0.2064(2) 1. 0 1.17(3) 
O1 O2- 4 e 0.2523(13) 0.0928(10) 0.0425(7) 1. 0 5.15(21) 
O2 O2- 4 e 0.1587(11) 0.2176(6) 0.2718(8) 1. 0 3.96(15) 
O3 O2- 4 e 0.4975(10) 0.0481(6) 0.2644(7) 1. 0 2.86(15) 
O4 O2- 4 e 0.0776(10) -0.0355(6) 0.2493(8) 1. 0 3.57(15) 

#End of data_174059-ICSD


