data_96099-ICSD
#?2014 by Fachinformationszentrum Karlsruhe, and the U.S. Secretary of 
#Commerce on behalf of the United States.  All rights reserved.
_database_code_ICSD                96099
_audit_creation_date               2004/04/01
_chemical_name_systematic          'Disodium Dihydrogendiphosphate(V)'
_chemical_formula_structural       'Na2 (H2 P2 O7)'
_chemical_formula_sum              'H2 Na2 O7 P2'
_publ_section_title
;
Refinement of crystal structure of Na2 H2 P2 O7 using X-ray powder 
diffraction data
;
loop_
_citation_id
_citation_journal_abbrev
_citation_year
_citation_journal_volume
_citation_journal_issue
_citation_page_first
_citation_page_last
_citation_journal_id_ASTM
primary 'Zhurnal Neorganicheskoi Khimii' 2002 47 10 1672 1675 ZNOKAQ
_publ_author_name
;
Selevich, K.A.;Ivashkevich, L.S.;Selevich, A.F.;Lyakhov, A.S.
;
_cell_length_a                     27.521(1)
_cell_length_b                     12.3519(4)
_cell_length_c                     6.8597(3)
_cell_angle_alpha                  90
_cell_angle_beta                   90
_cell_angle_gamma                  90
_cell_volume                       2331.86
_cell_formula_units_Z              16
_symmetry_space_group_name_H-M     'F d d d Z'
_symmetry_Int_Tables_number        70
_refine_ls_R_factor_all            .07
loop_
_symmetry_equiv_pos_site_id
_symmetry_equiv_pos_as_xyz
  1	'x+.75, y+.75, -z'
  2	'x+.75, -y, z+.75'
  3	'-x, y+.75, z+.75'
  4	'-x, -y, -z'
  5	'-x+.25, -y+.25, z'
  6	'-x+.25, y, -z+.25'
  7	'x, -y+.25, -z+.25'
  8	'x, y, z'
  9	'x+.75, y+.25, -z+.5'
 10	'x+.25, y+.75, -z+.5'
 11	'x+.25, y+.25, -z'
 12	'x+.75, -y+.5, z+.25'
 13	'x+.25, -y, z+.25'
 14	'x+.25, -y+.5, z+.75'
 15	'-x, y+.25, z+.25'
 16	'-x+.5, y+.75, z+.25'
 17	'-x+.5, y+.25, z+.75'
 18	'-x, -y+.5, -z+.5'
 19	'-x+.5, -y, -z+.5'
 20	'-x+.5, -y+.5, -z'
 21	'-x+.25, -y+.75, z+.5'
 22	'-x+.75, -y+.25, z+.5'
 23	'-x+.75, -y+.75, z'
 24	'-x+.25, y+.5, -z+.75'
 25	'-x+.75, y, -z+.75'
 26	'-x+.75, y+.5, -z+.25'
 27	'x, -y+.75, -z+.75'
 28	'x+.5, -y+.25, -z+.75'
 29	'x+.5, -y+.75, -z+.25'
 30	'x, y+.5, z+.5'
 31	'x+.5, y, z+.5'
 32	'x+.5, y+.5, z'
loop_
_atom_type_symbol
_atom_type_oxidation_number
H1+	1
Na1+	1
O2-	-2
P5+	5
loop_
_atom_site_label
_atom_site_type_symbol
_atom_site_symmetry_multiplicity
_atom_site_Wyckoff_symbol
_atom_site_fract_x
_atom_site_fract_y
_atom_site_fract_z
_atom_site_occupancy
_atom_site_attached_hydrogens
_atom_site_B_iso_or_equiv
Na1 Na1+ 32 h 0.42517(8) 0.2677(2) 0.5258(4) 1. 0 1.76(7) 
P1 P5+ 32 h 0.44740(6) 0.2334(2) 0.0336(3) 1. 0 1.99(5) 
O1 O2- 32 h 0.4936(2) 0.2930(3) -0.0246(5) 1.000 0 2.2(1) 
O2 O2- 32 h 0.4196(1) 0.1957(3) 0.8494(6) 1.000 0 1.2(1) 
O3 O2- 32 h 0.4167(1) 0.2850(3) 0.1828(6) 1. 0 0.6(1) 
O4 O2- 16 e 0.4711(2) 0.125 0.125 1. 0 1.1(2) 
H1 H1+ 16 e 0.488 0.375 0.875 1. 0 5.0 
H2 H1+ 16 f 0.375 0.200 0.875 1. 0 2.0 

#End of data_96099-ICSD


