data_40457-ICSD
#?2014 by Fachinformationszentrum Karlsruhe, and the U.S. Secretary of 
#Commerce on behalf of the United States.  All rights reserved.
_database_code_ICSD                40457
_audit_creation_date               1999/06/02
_chemical_name_systematic          'Lithium Antimony Sulfide (1/1/2)'
_chemical_formula_structural       'Li Sb S2'
_chemical_formula_sum              'Li1 S2 Sb1'
_publ_section_title
;
Etude cristallochimique du systeme Li2 S - Sb2 S3
;
loop_
_citation_id
_citation_journal_abbrev
_citation_year
_citation_journal_volume
_citation_page_first
_citation_page_last
_citation_journal_id_ASTM
primary 'Revue de Chimie Minerale' 1983 20 196 213 RVCMA8
_publ_author_name
;
Olivier Fourcade, J.;Maurin, M.;Philippot, E.
;
_cell_length_a                     13.902(2)
_cell_length_b                     13.902(2)
_cell_length_c                     9.207(1)
_cell_angle_alpha                  90.
_cell_angle_beta                   90.
_cell_angle_gamma                  120.
_cell_volume                       1541
_cell_formula_units_Z              18
_symmetry_space_group_name_H-M     'R -3 H'
_symmetry_Int_Tables_number        148
_refine_ls_R_factor_all            .029
loop_
_symmetry_equiv_pos_site_id
_symmetry_equiv_pos_as_xyz
  1	'x-y, x, -z'
  2	'y, -x+y, -z'
  3	'-x, -y, -z'
  4	'-x+y, -x, z'
  5	'-y, x-y, z'
  6	'x, y, z'
  7	'x-y+.6666, x+.3333, -z+.3333'
  8	'x-y+.3333, x+.6666, -z+.6666'
  9	'y+.6666, -x+y+.3333, -z+.3333'
 10	'y+.3333, -x+y+.6666, -z+.6666'
 11	'-x+.6666, -y+.3333, -z+.3333'
 12	'-x+.3333, -y+.6666, -z+.6666'
 13	'-x+y+.6666, -x+.3333, z+.3333'
 14	'-x+y+.3333, -x+.6666, z+.6666'
 15	'-y+.6666, x-y+.3333, z+.3333'
 16	'-y+.3333, x-y+.6666, z+.6666'
 17	'x+.6666, y+.3333, z+.3333'
 18	'x+.3333, y+.6666, z+.6666'
loop_
_atom_type_symbol
_atom_type_oxidation_number
Li1+	1
S2-	-2
Sb3+	3
loop_
_atom_site_label
_atom_site_type_symbol
_atom_site_symmetry_multiplicity
_atom_site_Wyckoff_symbol
_atom_site_fract_x
_atom_site_fract_y
_atom_site_fract_z
_atom_site_occupancy
_atom_site_attached_hydrogens
_atom_site_B_iso_or_equiv
Sb1 Sb3+ 18 f 0.61056(14) 0.15811(14) 0.00942(17) 1. 0 0 
Li1 Li1+ 18 f 0.689(5) 0.923(4) -.005(7) 1. 0 4.70(15) 
S1 S2- 18 f 0.4920(6) 0.2058(6) 0.1577(7) 1. 0 0 
S2 S2- 18 f 0.5777(5) 0.0022(6) 0.1564(6) 1. 0 0 

loop_
_atom_site_aniso_label
_atom_site_aniso_type_symbol
_atom_site_aniso_U_11
_atom_site_aniso_U_22
_atom_site_aniso_U_33
_atom_site_aniso_U_12
_atom_site_aniso_U_13
_atom_site_aniso_U_23
Sb1 Sb3+ 0.0236(10) 0.0193(9) 0.0186(7) 0.0155(5) 0.0065(5) 0.004(1)
S1 S2- 0.010(3) 0.013(3) 0.016(2) 0.007(3) 0.005(3) 0.000(3)
S2 S2- 0.021(4) 0.015(4) 0.013(3) 0.010(4) 0.000(2) -.003(4)
#End of data_40457-ICSD


