data_63452-ICSD
#?2014 by Fachinformationszentrum Karlsruhe, and the U.S. Secretary of 
#Commerce on behalf of the United States.  All rights reserved.
_database_code_ICSD                63452
_audit_creation_date               1992/01/20
_audit_update_record               2005/10/01
_chemical_name_systematic
;
Dicesium Potassium Hexacyanochromate(III)
;
_chemical_formula_structural       'Cs2 K (Cr (C N)6)'
_chemical_formula_sum              'C6 Cr1 Cs2 K1 N6'
_publ_section_title
;
Structure and Magnetism of Cs2 K Cr (CN)6 at very low temperatures
;
loop_
_citation_id
_citation_journal_abbrev
_citation_year
_citation_journal_volume
_citation_page_first
_citation_page_last
_citation_journal_id_ASTM
primary 'Australian Journal of Chemistry' 1987 40 1277 1282 AJCHAS
_publ_author_name
;
Brown, P.J.;Figgis, B.N.;Forsyth, J.B.
;
_cell_length_a                     11.18(3)
_cell_length_b                     8.29(1)
_cell_length_c                     7.71(1)
_cell_angle_alpha                  90.
_cell_angle_beta                   90.50(5)
_cell_angle_gamma                  90.
_cell_volume                       714.55
_cell_formula_units_Z              2
_symmetry_space_group_name_H-M     'P 1 21/n 1'
_symmetry_Int_Tables_number        14
_refine_ls_R_factor_all            .024
loop_
_symmetry_equiv_pos_site_id
_symmetry_equiv_pos_as_xyz
  1	'-x+.5, y+.5, -z+.5'
  2	'-x, -y, -z'
  3	'x+.5, -y+.5, z+.5'
  4	'x, y, z'
loop_
_atom_type_symbol
_atom_type_oxidation_number
C2+	2
Cr3+	3
Cs1+	1
K1+	1
N3-	-3
loop_
_atom_site_label
_atom_site_type_symbol
_atom_site_symmetry_multiplicity
_atom_site_Wyckoff_symbol
_atom_site_fract_x
_atom_site_fract_y
_atom_site_fract_z
_atom_site_occupancy
_atom_site_attached_hydrogens
_atom_site_U_iso_or_equiv
Cr1 Cr3+ 2 a 0 0 0 1. 0 0.040(25) 
C1 C2+ 4 e 0.0371(6) 0.1325(1) -.2208(1) 1. 0 0.09(1) 
C2 C2+ 4 e 0.0483(6) -.2093(1) -.1289(1) 1. 0 0.095(10) 
C3 C2+ 4 e 0.1752(6) 0.0285(1) 0.0865(1) 1. 0 0.105(15) 
N1 N3- 4 e 0.0604(3) 0.2051(1) -.3448(1) 1. 0 0.14(1) 
N2 N3- 4 e 0.0771(3) -.3243(1) -.2037(1) 1. 0 0.125(10) 
N3 N3- 4 e 0.2735(6) 0.0489(1) 0.1364(1) 1. 0 0.14(1) 
Cs1 Cs1+ 4 e 0.2536(6) 0.4204(1) -.0277(1) 1. 0 0.05(1) 
K1 K1+ 2 d 0 0.5 0.5 1. 0 0.115(25) 

#End of data_63452-ICSD


