data_152446-ICSD
#?2014 by Fachinformationszentrum Karlsruhe, and the U.S. Secretary of 
#Commerce on behalf of the United States.  All rights reserved.
_database_code_ICSD                152446
_audit_creation_date               2006/10/01
_chemical_name_systematic          'Dicalcium Niccoloosmate'
_chemical_formula_structural       'Ca2 (Ni Os O6)'
_chemical_formula_sum              'Ca2 Ni1 O6 Os1'
_publ_section_title
;
Synthesis, structure and magnetic properties of Sr2 Ni Os O6 and Ca2 
Ni Os O6: two new osmium-containing double perovskites
;
loop_
_citation_id
_citation_journal_abbrev
_citation_year
_citation_journal_volume
_citation_page_first
_citation_page_last
_citation_journal_id_ASTM
primary 'Inorganic Chemistry' 2005 44 9676 9683 INOCAJ
_publ_author_name
;
Macquart, R.;Kim Seung-Joo;Gemmill, W.R.;Stalick, J.K.;Lee Yong 
Jae;Vogt, T.;zur Loye, H.C.
;
_cell_length_a                     5.3659(2)
_cell_length_b                     5.5388(1)
_cell_length_c                     7.6271(2)
_cell_angle_alpha                  90.
_cell_angle_beta                   90.275(2)
_cell_angle_gamma                  90.
_cell_volume                       226.68
_cell_formula_units_Z              2
_symmetry_space_group_name_H-M     'P 1 21/n 1'
_symmetry_Int_Tables_number        14
_refine_ls_R_factor_all            .0529
loop_
_symmetry_equiv_pos_site_id
_symmetry_equiv_pos_as_xyz
  1	'-x+.5, y+.5, -z+.5'
  2	'-x, -y, -z'
  3	'x+.5, -y+.5, z+.5'
  4	'x, y, z'
loop_
_atom_type_symbol
_atom_type_oxidation_number
Ca2+	2
Ni2+	2
O2-	-2
Os6+	6
loop_
_atom_site_label
_atom_site_type_symbol
_atom_site_symmetry_multiplicity
_atom_site_Wyckoff_symbol
_atom_site_fract_x
_atom_site_fract_y
_atom_site_fract_z
_atom_site_occupancy
_atom_site_attached_hydrogens
_atom_site_U_iso_or_equiv
Ca1 Ca2+ 4 e 0.9865(9) 0.0555(4) 0.2490(9) 1. 0 0.0061(6) 
Ni1 Ni2+ 2 d 0.5 0 0 1. 0 0.0067(8) 
Os1 Os6+ 2 c 0.5 0 0.5 1. 0 0.0058(8) 
O1 O2- 4 e 0.0920(6) 0.4741(6) 0.2424(5) 1. 0 0.0084(6) 
O2 O2- 4 e 0.7103(8) 0.3052(9) 0.0450(6) 1. 0 0.0071(8) 
O3 O2- 4 e 0.1910(8) 0.2137(9) 0.9515(6) 1. 0 0.0091(9) 

loop_
_atom_site_aniso_label
_atom_site_aniso_type_symbol
_atom_site_aniso_U_11
_atom_site_aniso_U_22
_atom_site_aniso_U_33
_atom_site_aniso_U_12
_atom_site_aniso_U_13
_atom_site_aniso_U_23
O1 O2- 0.004(1) 0.018(2) 0.002(1) -0.004(1) -0.001(1) 0.002(2)
O2 O2- 0.003(2) 0.015(3) 0.008(5) 0.000(2) 0.001(1) -0.002(2)
O3 O2- 0.010(2) 0.010(2) 0.009(2) 0.005(2) 0.001(1) -0.004(2)
#End of data_152446-ICSD


