data_39847-ICSD
#?2014 by Fachinformationszentrum Karlsruhe, and the U.S. Secretary of 
#Commerce on behalf of the United States.  All rights reserved.
_database_code_ICSD                39847
_audit_creation_date               1995/10/17
_audit_update_record               2010/02/01
_chemical_name_systematic
;
Trisodium Phyllo-chromo(III)octaphosphate(V)
;
_chemical_formula_structural       'Na3 (Cr P8 O23)'
_chemical_formula_sum              'Cr1 Na3 O23 P8'
_publ_section_title
;
Double ultraphosphates Na3 M P8 O23 (M= Cr, V, Mn, Al, Ga). Synthesis 
and crystal structure
;
loop_
_citation_id
_citation_journal_abbrev
_citation_year
_citation_journal_volume
_citation_page_first
_citation_page_last
_citation_journal_id_ASTM
primary 'Zhurnal Neorganicheskoi Khimii' 1994 39 1769 1772 ZNOKAQ
2 'Russian Journal of Inorganic Chemistry' 1994 39 1692 1696 RJICAQ
_publ_author_name
;
Chudinova, N.N.;Murashova, E.V.;Karmanovskaya, N.B.
;
_cell_length_a                     11.905(3)
_cell_length_b                     11.905(3)
_cell_length_c                     11.905(3)
_cell_angle_alpha                  90.
_cell_angle_beta                   90.
_cell_angle_gamma                  90.
_cell_volume                       1687.28
_cell_formula_units_Z              4
_symmetry_space_group_name_H-M     'P 41 3 2'
_symmetry_Int_Tables_number        213
_refine_ls_R_factor_all            .046
loop_
_symmetry_equiv_pos_site_id
_symmetry_equiv_pos_as_xyz
  1	'-z+.25, y+.75, x+.25'
  2	'z+.25, -y+.25, x+.75'
  3	'z+.75, y+.25, -x+.25'
  4	'-z+.75, -y+.75, -x+.75'
  5	'y+.75, x+.25, -z+.25'
  6	'-y+.25, x+.75, z+.25'
  7	'y+.25, -x+.25, z+.75'
  8	'-y+.75, -x+.75, -z+.75'
  9	'x+.25, -z+.25, y+.75'
 10	'x+.75, z+.25, -y+.25'
 11	'-x+.25, z+.75, y+.25'
 12	'-x+.75, -z+.75, -y+.75'
 13	'z+.5, -x+.5, -y'
 14	'-z+.5, -x, y+.5'
 15	'-z, x+.5, -y+.5'
 16	'z, x, y'
 17	'-y, z+.5, -x+.5'
 18	'y+.5, -z+.5, -x'
 19	'-y+.5, -z, x+.5'
 20	'y, z, x'
 21	'-x+.5, -y, z+.5'
 22	'-x, y+.5, -z+.5'
 23	'x+.5, -y+.5, -z'
 24	'x, y, z'
loop_
_atom_type_symbol
_atom_type_oxidation_number
Cr3+	3
Na1+	1
O2-	-2
P5+	5
loop_
_atom_site_label
_atom_site_type_symbol
_atom_site_symmetry_multiplicity
_atom_site_Wyckoff_symbol
_atom_site_fract_x
_atom_site_fract_y
_atom_site_fract_z
_atom_site_occupancy
_atom_site_attached_hydrogens
_atom_site_B_iso_or_equiv
Cr1 Cr3+ 4 a 0.375 0.375 0.375 1. 0 0.76(1) 
Na1 Na1+ 12 d 0.125 0.0431(2) 0.2931(2) 1. 0 1.09(4) 
P1 P5+ 24 e 0.1402(1) 0.1456(1) 0.5692(1) 1. 0 0.51(2) 
P2 P5+ 8 c 0.0192(1) 0.0192 0.0192 1. 0 0.47(1) 
O1 O2- 24 e 0.0394(2) 0.1204(3) 0.6376(3) 1. 0 1.14(6) 
O2 O2- 24 e 0.4225(3) 0.0080(2) 0.4053(2) 1. 0 0.83(5) 
O3 O2- 12 d 0.125 0.2676(3) 0.5176(3) 1. 0 1.22(7) 
O4 O2- 24 e 0.3127(3) 0.0691(3) 0.2373(3) 1. 0 0.94(5) 
O5 O2- 8 c 0.0900(2) 0.09 0.09 1. 0 0.84(4) 

#End of data_39847-ICSD


