data_35463-ICSD
#?2014 by Fachinformationszentrum Karlsruhe, and the U.S. Secretary of 
#Commerce on behalf of the United States.  All rights reserved.
_database_code_ICSD                35463
_audit_creation_date               1983/12/31
_audit_update_record               2004/10/01
_chemical_name_systematic
;
Tetrapotassium Octamolybdo(V)dodecaphosphate(V)
;
_chemical_formula_structural       'K4 (Mo8 P12 O52)'
_chemical_formula_sum              'K4 Mo8 O52 P12'
_publ_section_title
;
K4 Mo8 P12 O52, a tunnel structure characterized by an unusual 
valence of molybdenum
;
loop_
_citation_id
_citation_journal_abbrev
_citation_year
_citation_journal_volume
_citation_page_first
_citation_page_last
_citation_journal_id_ASTM
primary 'Journal of Solid State Chemistry' 1983 48 147 153 JSSCBI
_publ_author_name
;
Leclaire, A.;Monier, J.C.;Raveau, B.
;
_cell_length_a                     10.7433(16)
_cell_length_b                     14.0839(9)
_cell_length_c                     8.8519(7)
_cell_angle_alpha                  90.
_cell_angle_beta                   126.42(1)
_cell_angle_gamma                  90.
_cell_volume                       1077.76
_cell_formula_units_Z              1
_symmetry_space_group_name_H-M     'C 1 2/c 1'
_symmetry_Int_Tables_number        15
_refine_ls_R_factor_all            .026
loop_
_symmetry_equiv_pos_site_id
_symmetry_equiv_pos_as_xyz
  1	'x, -y, z+.5'
  2	'-x, -y, -z'
  3	'-x, y, -z+.5'
  4	'x, y, z'
  5	'x+.5, -y+.5, z+.5'
  6	'-x+.5, -y+.5, -z'
  7	'-x+.5, y+.5, -z+.5'
  8	'x+.5, y+.5, z'
loop_
_atom_type_symbol
_atom_type_oxidation_number
K1+	1
Mo5+	5
O2-	-2
P5+	5
loop_
_atom_site_label
_atom_site_type_symbol
_atom_site_symmetry_multiplicity
_atom_site_Wyckoff_symbol
_atom_site_fract_x
_atom_site_fract_y
_atom_site_fract_z
_atom_site_occupancy
_atom_site_attached_hydrogens
Mo1 Mo5+ 8 f 0.24451(1) 0.08184(1) 0.17016(2) 1. 0 
K1 K1+ 4 d 0.25 0.25 0.5 1. 0 
P1 P5+ 8 f 0.44330(4) 0.20465(3) 0.06075(5) 1. 0 
P2 P5+ 4 e 0 0.01061(4) 0.25 1. 0 
O1 O2- 8 f 0.13420(13) 0.07401(9) 0.29269(16) 1. 0 
O2 O2- 8 f 0.41202(12) 0.15738(10) 0.40193(16) 1. 0 
O3 O2- 8 f 0.32876(15) 0.13034(10) 0.03349(18) 1. 0 
O4 O2- 8 f 0.12483(16) 0.22548(9) 0.09672(17) 1. 0 
O5 O2- 8 f 0.05233(13) 0.05186(8) -.08101(15) 1. 0 
O6 O2- 8 f 0.32703(21) -.02462(12) 0.22922(25) 1. 0 
O7 O2- 4 e 0.5 0.26041(12) 0.25 1. 0 

#End of data_35463-ICSD


