data_76501-ICSD
#?2014 by Fachinformationszentrum Karlsruhe, and the U.S. Secretary of 
#Commerce on behalf of the United States.  All rights reserved.
_database_code_ICSD                76501
_audit_creation_date               2000/12/16
_audit_update_record               2003/04/01
_chemical_name_systematic          'Tetrarubidium Magnesium Hydride'
_chemical_formula_structural       'Rb4 Mg3 H10'
_chemical_formula_sum              'H10 Mg3 Rb4'
_publ_section_title
;
A new hydride, rubidium magnesium hydride (Rb4 Mg3 H10)
;
loop_
_citation_id
_citation_journal_abbrev
_citation_year
_citation_journal_volume
_citation_page_first
_citation_page_last
_citation_journal_id_ASTM
primary
;
Comptes Rendus Hebdomadaires des Seances de l`Academie des Sciences, 
Serie 2 (1984-1993)
;
 1988 307 355 359 CRAMED
_publ_author_name
;
Park Hyung-Ho;Pezat, M.;Darriet, B.;Hagenmuller, P.
;
_cell_length_a                     6.076(1)
_cell_length_b                     14.255(2)
_cell_length_c                     13.577(2)
_cell_angle_alpha                  90.
_cell_angle_beta                   90.
_cell_angle_gamma                  90.
_cell_volume                       1175.95
_cell_formula_units_Z              4
_symmetry_space_group_name_H-M     'C m c a'
_symmetry_Int_Tables_number        64
loop_
_symmetry_equiv_pos_site_id
_symmetry_equiv_pos_as_xyz
  1	'-x, -y+.5, z+.5'
  2	'-x, y+.5, -z+.5'
  3	'-x, y, z'
  4	'-x, -y, -z'
  5	'x, y+.5, -z+.5'
  6	'x, -y+.5, z+.5'
  7	'x, -y, -z'
  8	'x, y, z'
  9	'-x+.5, -y, z+.5'
 10	'-x+.5, y, -z+.5'
 11	'-x+.5, y+.5, z'
 12	'-x+.5, -y+.5, -z'
 13	'x+.5, y, -z+.5'
 14	'x+.5, -y, z+.5'
 15	'x+.5, -y+.5, -z'
 16	'x+.5, y+.5, z'
loop_
_atom_type_symbol
_atom_type_oxidation_number
H1-	-1
Mg2+	2
Rb1+	1
loop_
_atom_site_label
_atom_site_type_symbol
_atom_site_symmetry_multiplicity
_atom_site_Wyckoff_symbol
_atom_site_fract_x
_atom_site_fract_y
_atom_site_fract_z
_atom_site_occupancy
_atom_site_attached_hydrogens
Rb1 Rb1+ 8 f 0 0.2542 0.3939 1. 0 
Rb2 Rb1+ 8 f 0 0.4482 0.1389 1. 0 
Mg1 Mg2+ 8 f 0 0.117 0.1575 1. 0 
Mg2 Mg2+ 4 a 0 0 0 1. 0 
H1 H1- 16 g 0.21 0.0958 0.0403 1. 0 
H2 H1- 8 e 0.25 0.1098 0.25 1. 0 
H3 H1- 8 f 0 0.4732 0.3575 1. 0 
H4 H1- 8 f 0 0.2465 0.1482 1. 0 

#End of data_76501-ICSD


