data_16298-ICSD
#?2014 by Fachinformationszentrum Karlsruhe, and the U.S. Secretary of 
#Commerce on behalf of the United States.  All rights reserved.
_database_code_ICSD                16298
_audit_creation_date               1980/01/01
_audit_update_record               1997/11/12
_chemical_name_systematic          'Silver Chromate'
_chemical_formula_structural       'Ag2 Cr O4'
_chemical_formula_sum              'Ag2 Cr1 O4'
_publ_section_title
;
The Crystal Structure of Silver Chromate
;
loop_
_citation_id
_citation_journal_abbrev
_citation_year
_citation_journal_volume
_citation_page_first
_citation_page_last
_citation_journal_id_ASTM
primary 'Journal of Solid State Chemistry' 1971 3 364 368 JSSCBI
_publ_author_name                  'Hackert, M.L.;Jacobson, R.A.'
_cell_length_a                     10.063(11)
_cell_length_b                     7.029(4)
_cell_length_c                     5.540(2)
_cell_angle_alpha                  90.
_cell_angle_beta                   90.
_cell_angle_gamma                  90.
_cell_volume                       391.86
_cell_formula_units_Z              4
_symmetry_space_group_name_H-M     'P n m a'
_symmetry_Int_Tables_number        62
_refine_ls_R_factor_all            .064
loop_
_symmetry_equiv_pos_site_id
_symmetry_equiv_pos_as_xyz
  1	'x+.5, y, -z+.5'
  2	'x, -y+.5, z'
  3	'-x+.5, y+.5, z+.5'
  4	'-x, -y, -z'
  5	'-x+.5, -y, z+.5'
  6	'-x, y+.5, -z'
  7	'x+.5, -y+.5, -z+.5'
  8	'x, y, z'
loop_
_atom_type_symbol
_atom_type_oxidation_number
Ag1+	1
Cr6+	6
O2-	-2
loop_
_atom_site_label
_atom_site_type_symbol
_atom_site_symmetry_multiplicity
_atom_site_Wyckoff_symbol
_atom_site_fract_x
_atom_site_fract_y
_atom_site_fract_z
_atom_site_occupancy
_atom_site_attached_hydrogens
_atom_site_B_iso_or_equiv
Ag1 Ag1+ 4 a 0.5 0.5 0.5 1. 0 0 
Ag2 Ag1+ 4 c 0.1340(2) 0.25 0.5033(7) 1. 0 0 
Cr1 Cr6+ 4 c 0.3161(3) 0.25 -.0161(12) 1. 0 0 
O1 O2- 4 c 0.1506(19) 0.25 -.0677(34) 1. 0 1.9 
O2 O2- 4 c 0.3502(19) 0.25 0.2789(37) 1. 0 1.8 
O3 O2- 8 d 0.3845(14) 0.4353(23) -.1417(26) 1. 0 2.1 

#End of data_16298-ICSD


