data_281612-ICSD
#?2014 by Fachinformationszentrum Karlsruhe, and the U.S. Secretary of 
#Commerce on behalf of the United States.  All rights reserved.
_database_code_ICSD                281612
_audit_creation_date               2004/10/01
_audit_update_record               2013/02/01
_chemical_name_systematic          'Sodium Titanium(III) Disilicate'
_chemical_formula_structural       'Na Ti (Si2 O6)'
_chemical_formula_sum              'Na1 O6 Si2 Ti1'
_chemical_name_mineral             Clinopyroxene
_publ_section_title
;
Single-crystal structure refinement of Na Ti Si2 O6 clinopyroxene at 
low temperatures (298 > T > 100 K)
;
loop_
_citation_id
_citation_journal_abbrev
_citation_year
_citation_journal_volume
_citation_page_first
_citation_page_last
_citation_journal_id_ASTM
primary 'Acta Crystallographica, Section B: Structural Science'
 2003 59 730 746 ASBSDK
_publ_author_name
;
Redhammer, G.J.;Ohashi, H.;Roth, G.
;
_cell_length_a                     5.2989(16)
_cell_length_b                     6.5440(19)
_cell_length_c                     6.596(2)
_cell_angle_alpha                  84.74(2)
_cell_angle_beta                   77.70(2)
_cell_angle_gamma                  77.74(2)
_cell_volume                       218.12
_cell_formula_units_Z              2
_symmetry_space_group_name_H-M     'P -1'
_symmetry_Int_Tables_number        2
_refine_ls_R_factor_all            .0269
loop_
_symmetry_equiv_pos_site_id
_symmetry_equiv_pos_as_xyz
  1	'-x, -y, -z'
  2	'x, y, z'
loop_
_atom_type_symbol
_atom_type_oxidation_number
Na1+	1
O2-	-2
Si4+	4
Ti3+	3
loop_
_atom_site_label
_atom_site_type_symbol
_atom_site_symmetry_multiplicity
_atom_site_Wyckoff_symbol
_atom_site_fract_x
_atom_site_fract_y
_atom_site_fract_z
_atom_site_occupancy
_atom_site_attached_hydrogens
_atom_site_U_iso_or_equiv
Na1 Na1+ 2 i 0.7571(6) 0.8035(4) 0.6993(4) 1. 0 0.0078(3) 
Ti1 Ti3+ 2 i 0.2575(2) 0.59798(17) 0.90401(18) 1. 0 0.00107(13)( 
Si1 Si4+ 2 i 0.7422(3) 0.2997(3) 0.6152(3) 1. 0 0.0012(3) 
Si2 Si4+ 2 i 0.2404(3) 0.1220(3) 0.7956(3) 1. 0 0.0010(3) 
O1 O2- 2 i 0.8063(7) 0.3934(7) 0.3836(7) 1. 0 0.0038(8) 
O2 O2- 2 i 0.6460(6) 0.4643(6) 0.7998(6) 1. 0 0.0014(7) 
O3 O2- 2 i 0.5174(7) 0.1545(7) 0.6406(7) 1. 0 0.0031(7) 
O4 O2- 2 i 0.0147(7) 0.1390(7) 0.6579(7) 1. 0 0.0028(8) 
O5 O2- 2 i 0.1477(7) 0.3062(7) 0.9608(7) 1. 0 0.0034(7) 
O6 O2- 2 i 0.3017(7) -.1125(7) 0.8924(7) 1. 0 0.0037(8) 

loop_
_atom_site_aniso_label
_atom_site_aniso_type_symbol
_atom_site_aniso_U_11
_atom_site_aniso_U_22
_atom_site_aniso_U_33
_atom_site_aniso_U_12
_atom_site_aniso_U_13
_atom_site_aniso_U_23
Na1 Na1+ 0.0053(6) 0.0055(13) 0.0103(15) 0.0017(8) -.0001(9) 0.0011(5)
#End of data_281612-ICSD


