data_247352-ICSD
#?2014 by Fachinformationszentrum Karlsruhe, and the U.S. Secretary of 
#Commerce on behalf of the United States.  All rights reserved.
_database_code_ICSD                247352
_audit_creation_date               2011/02/01
_audit_update_record               2012/02/01
_chemical_name_systematic
;
Calcium Dodecahydro-closo-dodecaborate
;
_chemical_formula_structural       'Ca B12 H12'
_chemical_formula_sum              'H12 B12 Ca1'
_publ_section_title
;
Probing the structure, stability and hydrogen storage properties of 
calcium dodecahydro-closo-dodecaborate
;
loop_
_citation_id
_citation_journal_abbrev
_citation_year
_citation_journal_volume
_citation_journal_issue
_citation_page_first
_citation_page_last
_citation_journal_id_ASTM
primary 'Journal of Solid State Chemistry' 2010 183 5 1133 1140 JSSCBI
_publ_author_name
;
Stavila, V.;Her Jae-Hyuk;Zhou Wei;Hwang Song-Jong;Kim, C.;Ottley, 
L.A.M.;Udovic, T.J.
;
_cell_length_a                     7.242(1)
_cell_length_b                     11.971(3)
_cell_length_c                     10.744(2)
_cell_angle_alpha                  90
_cell_angle_beta                   89.82(3)
_cell_angle_gamma                  90
_cell_volume                       931.44
_cell_formula_units_Z              4
_symmetry_space_group_name_H-M     'C 1 2/c 1'
_symmetry_Int_Tables_number        15
loop_
_symmetry_equiv_pos_site_id
_symmetry_equiv_pos_as_xyz
  1	'x, -y, z+.5'
  2	'-x, -y, -z'
  3	'-x, y, -z+.5'
  4	'x, y, z'
  5	'x+.5, -y+.5, z+.5'
  6	'-x+.5, -y+.5, -z'
  7	'-x+.5, y+.5, -z+.5'
  8	'x+.5, y+.5, z'
loop_
_atom_type_symbol
_atom_type_oxidation_number
B.8333+	.8333
Ca2+	2
H1-	-1
loop_
_atom_site_label
_atom_site_type_symbol
_atom_site_symmetry_multiplicity
_atom_site_Wyckoff_symbol
_atom_site_fract_x
_atom_site_fract_y
_atom_site_fract_z
_atom_site_occupancy
_atom_site_attached_hydrogens
Ca1 Ca2+ 4 e 0 0.832(1) 0.25 1. 0 
B1 B.8333+ 8 f -0.1721 0.2518 0.3242 1. 0 
B2 B.8333+ 8 f -0.1721 0.0992 0.3242 1. 0 
B3 B.8333+ 8 f 0.0677 0.2989 0.3216 1. 0 
B4 B.8333+ 8 f 0.0677 0.0520 0.3216 1. 0 
B5 B.8333+ 8 f 0.0032 0.1755 0.4116 1. 0 
B6 B.8333+ 8 f 0.2159 0.1755 0.3199 1. 0 
H1 H1- 8 f -0.2966 0.3070 0.3779 1. 0 
H2 H1- 8 f -0.2966 0.0440 0.3779 1. 0 
H3 H1- 8 f 0.1167 0.3882 0.3733 1. 0 
H4 H1- 8 f 0.1167 -0.0372 0.3733 1. 0 
H5 H1- 8 f 0.0055 0.1755 0.5286 1. 0 
H6 H1- 8 f 0.3721 0.1755 0.3705 1. 0 

#End of data_247352-ICSD


