data_180417-ICSD
#?2014 by Fachinformationszentrum Karlsruhe, and the U.S. Secretary of 
#Commerce on behalf of the United States.  All rights reserved.
_database_code_ICSD                180417
_audit_creation_date               2012/02/01
_chemical_name_systematic
;
Lanthanum Aluminate - Under +0.5% Biaxial Strain
;
_chemical_formula_structural       'La (Al O3)'
_chemical_formula_sum              'Al1 La1 O3'
_publ_section_title
;
Structural phases of strained La Al O3 driven by octahedral tilt 
instabilities
;
loop_
_citation_id
_citation_journal_abbrev
_citation_year
_citation_journal_volume
_citation_page_first
_citation_page_last
_citation_journal_id_ASTM
primary 'Physical Review, Serie 3. B - Condensed Matter (18,1978-)'
 2010 82 195402-1 195402-5 PRBMDO
_publ_author_name                  'Hatt, A.J.;Spaldin, N.A.'
_cell_length_a                     7.4642
_cell_length_b                     5.3156
_cell_length_c                     5.3156
_cell_angle_alpha                  90.
_cell_angle_beta                   90.
_cell_angle_gamma                  90.
_cell_volume                       210.91
_cell_formula_units_Z              4
_symmetry_space_group_name_H-M     'I m m a'
_symmetry_Int_Tables_number        74
loop_
_symmetry_equiv_pos_site_id
_symmetry_equiv_pos_as_xyz
  1	'-x, y+.5, -z'
  2	'-x, -y+.5, z'
  3	'-x, y, z'
  4	'-x, -y, -z'
  5	'x, -y+.5, z'
  6	'x, y+.5, -z'
  7	'x, -y, -z'
  8	'x, y, z'
  9	'-x+.5, y, -z+.5'
 10	'-x+.5, -y, z+.5'
 11	'-x+.5, y+.5, z+.5'
 12	'-x+.5, -y+.5, -z+.5'
 13	'x+.5, -y, z+.5'
 14	'x+.5, y, -z+.5'
 15	'x+.5, -y+.5, -z+.5'
 16	'x+.5, y+.5, z+.5'
loop_
_atom_type_symbol
_atom_type_oxidation_number
Al3+	3
La3+	3
O2-	-2
loop_
_atom_site_label
_atom_site_type_symbol
_atom_site_symmetry_multiplicity
_atom_site_Wyckoff_symbol
_atom_site_fract_x
_atom_site_fract_y
_atom_site_fract_z
_atom_site_occupancy
_atom_site_attached_hydrogens
La1 La3+ 4 e 0 0.250 -0.2491 1. 0 
Al1 Al3+ 4 c 0.250 0.250 0.250 1. 0 
O1 O2- 8 f -0.2298 0 0 1. 0 
O2 O2- 4 e 0 0.250 0.2894 1. 0 

#End of data_180417-ICSD


