data_66871-ICSD
#?2014 by Fachinformationszentrum Karlsruhe, and the U.S. Secretary of 
#Commerce on behalf of the United States.  All rights reserved.
_database_code_ICSD                66871
_audit_creation_date               1997/11/10
_audit_update_record               2014/08/01
_chemical_name_systematic
;
Potassium Ytterbium Catena-tetrakis(phosphate(V))
;
_chemical_formula_structural       'K Yb (P O3)4'
_chemical_formula_sum              'K1 O12 P4 Yb1'
_publ_section_title
;
The structure of crystals of potassium ytterbium polyphosphate K Yb 
(P O3)4
;
loop_
_citation_id
_citation_journal_abbrev
_citation_year
_citation_journal_volume
_citation_page_first
_citation_page_last
_citation_journal_id_ASTM
primary 'Izvestiya Akademii Nauk SSSR, Neorganicheskie Materialy'
 1981 17 110 115 IVNMAW
2 'Inorganic Materials' 1981 17 82 86 INOMAF
_publ_author_name
;
Palkina, K.K.;Maksimova, S.I.;Chudinova, N.N.;Vinogradova, 
N.V.;Chibiskova, N.T.
;
_cell_length_a                     7.766(1)
_cell_length_b                     8.853(1)
_cell_length_c                     14.831(2)
_cell_angle_alpha                  90.
_cell_angle_beta                   96.36(1)
_cell_angle_gamma                  90.
_cell_volume                       1013.39
_cell_formula_units_Z              4
_symmetry_space_group_name_H-M     'P 1 21/n 1'
_symmetry_Int_Tables_number        14
_refine_ls_R_factor_all            .041
loop_
_symmetry_equiv_pos_site_id
_symmetry_equiv_pos_as_xyz
  1	'-x+.5, y+.5, -z+.5'
  2	'-x, -y, -z'
  3	'x+.5, -y+.5, z+.5'
  4	'x, y, z'
loop_
_atom_type_symbol
_atom_type_oxidation_number
K1+	1
O2-	-2
P5+	5
Yb3+	3
loop_
_atom_site_label
_atom_site_type_symbol
_atom_site_symmetry_multiplicity
_atom_site_Wyckoff_symbol
_atom_site_fract_x
_atom_site_fract_y
_atom_site_fract_z
_atom_site_occupancy
_atom_site_attached_hydrogens
Yb1 Yb3+ 4 e 0.45307(5) 0.15645(4) 0.14711(2) 1. 0 
K1 K1+ 4 e 0.91956(33) 0.35441(32) 0.11064(18) 1. 0 
P1 P5+ 4 e 0.19302(28) 0.03350(26) 0.31161(14) 1. 0 
P2 P5+ 4 e 0.05394(29) 0.27217(26) 0.42676(14) 1. 0 
P3 P5+ 4 e 0.68565(30) 0.26901(27) 0.44849(15) 1. 0 
P4 P5+ 4 e 0.63783(29) 0.45341(26) 0.28389(15) 1. 0 
O1 O2- 4 e 0.63773(89) 0.33879(81) 0.21147(47) 1. 0 
O2 O2- 4 e 0.14991(89) 0.12343(72) 0.39971(43) 1. 0 
O3 O2- 4 e 0.02600(85) 0.06421(74) 0.23910(42) 1. 0 
O4 O2- 4 e 0.85613(86) 0.22439(79) 0.40113(44) 1. 0 
O5 O2- 4 e 0.28805(86) 0.37362(71) 0.16171(46) 1. 0 
O6 O2- 4 e 0.23835(89) 0.13935(79) 0.03184(44) 1. 0 
O7 O2- 4 e 0.34334(89) 0.10527(79) 0.27495(45) 1. 0 
O8 O2- 4 e 0.5754(11) 0.13469(85) 0.45464(54) 1. 0 
O9 O2- 4 e 0.59452(86) 0.21676(80) 0.02719(41) 1. 0 
O10 O2- 4 e 0.5885(10) 0.38203(94) 0.37397(48) 1. 0 
O11 O2- 4 e 0.09647(98) 0.40114(85) 0.37038(47) 1. 0 
O12 O2- 4 e 0.70587(94) 0.04919(84) 0.19773(55) 1. 0 

loop_
_atom_site_aniso_label
_atom_site_aniso_type_symbol
_atom_site_aniso_B_11
_atom_site_aniso_B_22
_atom_site_aniso_B_33
_atom_site_aniso_B_12
_atom_site_aniso_B_13
_atom_site_aniso_B_23
Yb1 Yb3+ 0.31(1) 0.25(1) 0.32(1) 0.01(1) 0.01(1) 0.03(1)
K1 K1+ 1.30(8) 2.34(11) 2.16(9) -.31(8) 0.57(7) -.02(9)
P1 P5+ 0.37(7) 0.24(7) 0.44(7) -.06(6) 0.07(6) -.04(6)
P2 P5+ 0.52(7) 0.38(8) 0.34(7) 0.11(6) 0.02(6) -.06(6)
P3 P5+ 0.52(8) 0.69(8) 0.51(7) -.14(7) -.11(6) 0.24(6)
P4 P5+ 0.36(7) 0.32(7) 0.56(7) 0.02(6) -.21(6) -.06(6)
O1 O2- 0.86(24) 1.12(26) 1.37(25) 0.22(22) -.2(2) -.86(22)
O2 O2- 1.10(25) 0.41(23) 0.85(23) 0.40(19) 0.19(19) 0.04(18)
O3 O2- 0.75(23) 0.63(23) 0.84(22) -.09(20) -.51(18) 0.18(19)
O4 O2- 0.62(23) 1.03(26) 0.99(23) 0.00(21) -.05(19) -.27(20)
O5 O2- 0.69(23) 0.34(23) 1.33(24) 0.00(18) -.32(19) -.13(18)
O6 O2- 0.81(24) 1.18(27) 0.94(23) -.22(21) -.41(19) 0.31(21)
O7 O2- 0.91(24) 0.90(24) 0.98(23) -.24(21) 0.45(19) 0.09(20)
O8 O2- 1.86(31) 1.19(30) 2.05(31) -.96(25) 0.41(25) -.06(24)
O9 O2- 0.75(23) 1.39(27) 0.33(20) -.32(21) 0.02(17) 0.43(20)
O10 O2- 1.38(28) 2.02(33) 1.00(25) 0.86(25) 0.11(21) 0.67(23)
O11 O2- 1.46(28) 0.86(25) 1.37(26) -.08(23) 0.07(22) 0.41(22)
O12 O2- 0.77(26) 0.83(26) 2.89(34) 0.43(22) -.61(24) 0.11(25)
#End of data_66871-ICSD


