data_200202-ICSD
#?2014 by Fachinformationszentrum Karlsruhe, and the U.S. Secretary of 
#Commerce on behalf of the United States.  All rights reserved.
_database_code_ICSD                200202
_audit_creation_date               1980/01/01
_audit_update_record               2009/08/01
_chemical_name_systematic          'Tricalcium Bis(phosphate(V))'
_chemical_formula_structural       'Ca3 (P O4)2'
_chemical_formula_sum              'Ca3 O8 P2'
_publ_section_title
;
Sur une nouvelle forme cristalline du phosphate tricalcique.
;
loop_
_citation_id
_citation_journal_abbrev
_citation_year
_citation_journal_volume
_citation_page_first
_citation_page_last
_citation_journal_id_ASTM
primary
;
Comptes Rendus Hebdomadaires des Seances de l`Academie des Sciences, 
Serie C, Sciences Chimiques (1966-)
;
 1978 286 549 551 CHDCAQ
2 'Phase Transition' 1992 38 127 220 PHTRDP
_publ_author_name                  'Roux, P.;Louer, D.;Bonel, G.'
_cell_length_a                     6.9280(8)
_cell_length_b                     6.9280(8)
_cell_length_c                     6.9280(8)
_cell_angle_alpha                  44.512(9)
_cell_angle_beta                   44.512(9)
_cell_angle_gamma                  44.512(9)
_cell_volume                       148.6
_cell_formula_units_Z              1
_symmetry_space_group_name_H-M     'R -3 m R'
_symmetry_Int_Tables_number        166
_refine_ls_R_factor_all            .051
loop_
_symmetry_equiv_pos_site_id
_symmetry_equiv_pos_as_xyz
  1	'-z, -y, -x'
  2	'-z, -x, -y'
  3	'-x, -z, -y'
  4	'-y, -z, -x'
  5	'-y, -x, -z'
  6	'-x, -y, -z'
  7	'z, y, x'
  8	'z, x, y'
  9	'x, z, y'
 10	'y, z, x'
 11	'y, x, z'
 12	'x, y, z'
loop_
_atom_type_symbol
_atom_type_oxidation_number
Ca2+	2
O2-	-2
P5+	5
loop_
_atom_site_label
_atom_site_type_symbol
_atom_site_symmetry_multiplicity
_atom_site_Wyckoff_symbol
_atom_site_fract_x
_atom_site_fract_y
_atom_site_fract_z
_atom_site_occupancy
_atom_site_attached_hydrogens
_atom_site_B_iso_or_equiv
Ca1 Ca2+ 1 a 0 0 0 1. 0 1.2(9) 
Ca2 Ca2+ 2 c 0.2035(8) 0.2035(8) 0.2035(8) 1. 0 0.8(9) 
P1 P5+ 2 c 0.4030(11) 0.4030(11) 0.4030(11) 1. 0 0.2(9) 
O1 O2- 2 c 0.3223(18) 0.3223(18) 0.3223(18) 1. 0 1.9(9) 
O2 O2- 6 h 0.2726(18) 0.2726(18) 0.7562(23) 1. 0 1.5(9) 

#End of data_200202-ICSD


