data_50718-ICSD
#?2014 by Fachinformationszentrum Karlsruhe, and the U.S. Secretary of 
#Commerce on behalf of the United States.  All rights reserved.
_database_code_ICSD                50718
_audit_creation_date               2000/07/15
_chemical_name_systematic          'Calcium Alumotantalate'
_chemical_formula_structural       'Ca (Al Ta O5)'
_chemical_formula_sum              'Al1 Ca1 O5 Ta1'
_publ_section_title
;
The phase diagram Ca O - Al2 O3 - Ta2 O5 and the crystal structures 
of Ca2 Al Ta O6 and Ca Al Ta O5
;
loop_
_citation_id
_citation_journal_abbrev
_citation_year
_citation_journal_volume
_citation_page_first
_citation_page_last
_citation_journal_id_ASTM
primary 'Journal of Solid State Chemistry' 1999 143 62 68 JSSCBI
_publ_author_name
;
Sales, M.;Eguia, G.;Quintana, P.;Torres Martinez, L.M.;West, A.R.
;
_cell_length_a                     6.6760(3)
_cell_length_b                     8.9546(3)
_cell_length_c                     7.3494(3)
_cell_angle_alpha                  90.
_cell_angle_beta                   114.098(3)
_cell_angle_gamma                  90.
_cell_volume                       401.06
_cell_formula_units_Z              4
_symmetry_space_group_name_H-M     'C 1 2/c 1'
_symmetry_Int_Tables_number        15
_refine_ls_R_factor_all            .0551
loop_
_symmetry_equiv_pos_site_id
_symmetry_equiv_pos_as_xyz
  1	'x, -y, z+.5'
  2	'-x, -y, -z'
  3	'-x, y, -z+.5'
  4	'x, y, z'
  5	'x+.5, -y+.5, z+.5'
  6	'-x+.5, -y+.5, -z'
  7	'-x+.5, y+.5, -z+.5'
  8	'x+.5, y+.5, z'
loop_
_atom_type_symbol
_atom_type_oxidation_number
Al3+	3
Ca2+	2
O2-	-2
Ta5+	5
loop_
_atom_site_label
_atom_site_type_symbol
_atom_site_symmetry_multiplicity
_atom_site_Wyckoff_symbol
_atom_site_fract_x
_atom_site_fract_y
_atom_site_fract_z
_atom_site_occupancy
_atom_site_attached_hydrogens
_atom_site_U_iso_or_equiv
Ca1 Ca2+ 4 e 0 0.3355(7) 0.75 1. 0 0.029(3) 
Al1 Al3+ 4 e 0 0.3163(11) 0.25 1. 0 0.008(3) 
Ta1 Ta5+ 4 a 0 0 0 1. 0 0.0056(2) 
O1 O2- 8 f 0.1939(12) 0.4350(8) 0.4183(13) 1. 0 0.002(1) 
O2 O2- 8 f 0.1058(13) 0.2038(9) 0.132(13) 1. 0 0.002(1) 
O3 O2- 4 e 0 0.0725(13) 0.75 1. 0 0.005(2) 

#End of data_50718-ICSD


