data_26403-ICSD
#?2014 by Fachinformationszentrum Karlsruhe, and the U.S. Secretary of 
#Commerce on behalf of the United States.  All rights reserved.
_database_code_ICSD                26403
_audit_creation_date               1981/12/31
_chemical_name_systematic
;
Dichlorotriiodine Tetrachloroaluminate
;
_chemical_formula_structural       'I3 Cl2 Al Cl4'
_chemical_formula_sum              'Al1 Cl6 I3'
_publ_section_title
;
Interhalogen-Kationen: Darstellung und Kristallstrukturen (143 K) von 
I3 Cl2 Sb Cl6, I3 Cl2 Al Cl4 und I3 Br2 Sb Cl6
;
loop_
_citation_id
_citation_journal_abbrev
_citation_year
_citation_journal_volume
_citation_page_first
_citation_page_last
_citation_journal_id_ASTM
primary
;
Zeitschrift fuer Naturforschung, Teil B. Anorganische Chemie, 
Organische Chemie (33,1978-41,1986)
;
 1981 36 283 288 ZNBAD2
_publ_author_name                  'Pohl, S.;Saak, W.'
_cell_length_a                     27.53(2)
_cell_length_b                     7.120(3)
_cell_length_c                     14.188(6)
_cell_angle_alpha                  90.
_cell_angle_beta                   110.36(4)
_cell_angle_gamma                  90.
_cell_volume                       2607.3
_cell_formula_units_Z              8
_symmetry_space_group_name_H-M     'C 1 2/c 1'
_symmetry_Int_Tables_number        15
_refine_ls_R_factor_all            .079
loop_
_symmetry_equiv_pos_site_id
_symmetry_equiv_pos_as_xyz
  1	'x, -y, z+.5'
  2	'-x, -y, -z'
  3	'-x, y, -z+.5'
  4	'x, y, z'
  5	'x+.5, -y+.5, z+.5'
  6	'-x+.5, -y+.5, -z'
  7	'-x+.5, y+.5, -z+.5'
  8	'x+.5, y+.5, z'
loop_
_atom_type_symbol
_atom_type_oxidation_number
Al3+	3
Cl1-	-1
I1+	1
loop_
_atom_site_label
_atom_site_type_symbol
_atom_site_symmetry_multiplicity
_atom_site_Wyckoff_symbol
_atom_site_fract_x
_atom_site_fract_y
_atom_site_fract_z
_atom_site_occupancy
_atom_site_attached_hydrogens
I1 I1+ 8 f 0.11567(5) 0.04584(18) 0.21555(9) 1. 0 
I2 I1+ 8 f 0.20691(5) -.15762(18) 0.33120(9) 1. 0 
I3 I1+ 8 f 0.02624(5) 0.27364(19) 0.09705(9) 1. 0 
Cl1 Cl1- 8 f 0.24619(21) -.15312(76) 0.2078(4) 1. 0 
Cl2 Cl1- 8 f -.03867(22) 0.07079(84) 0.10566(44) 1. 0 
Al1 Al3+ 8 f 0.13200(23) 0.45113(79) -.03561(43) 1. 0 
Cl3 Cl1- 8 f 0.10870(21) 0.53349(70) 0.09028(36) 1. 0 
Cl4 Cl1- 8 f 0.16719(18) 0.17400(67) -.00129(35) 1. 0 
Cl5 Cl1- 8 f 0.18823(20) 0.64113(71) -.04800(38) 1. 0 
Cl6 Cl1- 8 f 0.06639(20) 0.41941(81) -.16726(38) 1. 0 

loop_
_atom_site_aniso_label
_atom_site_aniso_type_symbol
_atom_site_aniso_B_11
_atom_site_aniso_B_22
_atom_site_aniso_B_33
_atom_site_aniso_B_12
_atom_site_aniso_B_13
_atom_site_aniso_B_23
I1 I1+ 1.71(7) 1.56(7) 1.12(6) 0.09(4) 0.82(5) 0.06(4)
I2 I1+ 1.35(6) 1.65(6) 1.19(6) 0.17(4) 0.65(5) 0.21(4)
I3 I1+ 1.51(6) 1.79(7) 1.45(6) 0.16(4) 0.74(5) 0.02(4)
Cl1 Cl1- 2.85(24) 2.21(25) 2.06(21) 0.51(19) 1.56(20) 0.42(18)
Cl2 Cl1- 2.24(23) 3.14(28) 3.13(26) -.74(20) 1.36(20) -.30(21)
Al1 Al3+ 1.50(25) 1.42(26) 1.23(24) -.28(20) 0.45(21) 0.13(20)
Cl3 Cl1- 3.04(25) 1.80(22) 1.57(21) -.16(19) 1.52(19) -.28(16)
Cl4 Cl1- 1.61(20) 1.68(20) 1.55(20) -.04(16) 1.05(17) -.25(16)
Cl5 Cl1- 2.56(24) 1.96(23) 2.15(23) -.82(19) 1.32(20) 0.19(18)
Cl6 Cl1- 1.85(23) 3.05(26) 1.63(21) 0.31(19) 0.15(18) -.16(19)
#End of data_26403-ICSD


