data_186537-ICSD
#?2014 by Fachinformationszentrum Karlsruhe, and the U.S. Secretary of 
#Commerce on behalf of the United States.  All rights reserved.
_database_code_ICSD                186537
_audit_creation_date               2013/08/01
_chemical_name_systematic          'Lithium Platinum Silicide (4/3/1)'
_chemical_formula_structural       'Li4 Pt3 Si'
_chemical_formula_sum              'Li4 Pt3 Si1'
_publ_section_title
;
Structure and lithium mobility of Li4 Pt3 Si
;
loop_
_citation_id
_citation_journal_abbrev
_citation_year
_citation_journal_volume
_citation_journal_issue
_citation_page_first
_citation_page_last
_citation_journal_id_ASTM
primary 'Journal of Solid State Electrochemistry' 2011 15 2 237 243 JSSEFS
_publ_author_name
;
Dinges, Tim;Hoffmann, Rolf-Dieter;van Wuellen, Leo;Henry, 
Paul;Eckert, Hellmut;Poettgen, Rainer
;
_cell_length_a                     6.937(2)
_cell_length_b                     6.937(2)
_cell_length_c                     16.271(4)
_cell_angle_alpha                  90.
_cell_angle_beta                   90.
_cell_angle_gamma                  120.
_cell_volume                       678.09
_cell_formula_units_Z              6
_symmetry_space_group_name_H-M     'R 3 2 H'
_symmetry_Int_Tables_number        155
_refine_ls_R_factor_all            .0671
loop_
_symmetry_equiv_pos_site_id
_symmetry_equiv_pos_as_xyz
  1	'-x, -x+y, -z'
  2	'x-y, -y, -z'
  3	'y, x, -z'
  4	'-x+y, -x, z'
  5	'-y, x-y, z'
  6	'x, y, z'
  7	'-x+.6666, -x+y+.3333, -z+.3333'
  8	'-x+.3333, -x+y+.6666, -z+.6666'
  9	'x-y+.6666, -y+.3333, -z+.3333'
 10	'x-y+.3333, -y+.6666, -z+.6666'
 11	'y+.6666, x+.3333, -z+.3333'
 12	'y+.3333, x+.6666, -z+.6666'
 13	'-x+y+.6666, -x+.3333, z+.3333'
 14	'-x+y+.3333, -x+.6666, z+.6666'
 15	'-y+.6666, x-y+.3333, z+.3333'
 16	'-y+.3333, x-y+.6666, z+.6666'
 17	'x+.6666, y+.3333, z+.3333'
 18	'x+.3333, y+.6666, z+.6666'
loop_
_atom_type_symbol
_atom_type_oxidation_number
Li1+	1
Pt4+	4
Si4+	4
loop_
_atom_site_label
_atom_site_type_symbol
_atom_site_symmetry_multiplicity
_atom_site_Wyckoff_symbol
_atom_site_fract_x
_atom_site_fract_y
_atom_site_fract_z
_atom_site_occupancy
_atom_site_attached_hydrogens
Li1 Li1+ 6 c 0 0 0.726(1) 1. 0 
Li2 Li1+ 18 f 0.356(2) 0.931(2) 0.0826(9) 1. 0 
Pt1 Pt4+ 9 e 0.6088(4) 0 0.5 1. 0 
Pt2 Pt4+ 9 d 0.7386(4) 0 0 1. 0 
Si1 Si4+ 6 c 0 0 0.1031(5) 1. 0 

#End of data_186537-ICSD


