data_262408-ICSD
#?2014 by Fachinformationszentrum Karlsruhe, and the U.S. Secretary of 
#Commerce on behalf of the United States.  All rights reserved.
_database_code_ICSD                262408
_audit_creation_date               2012/08/01
_audit_update_record               2013/08/01
_chemical_name_systematic          'Barium Magnesium Ditellurate'
_chemical_formula_structural       'Ba (Mg Te2 O7)'
_chemical_formula_sum              'Ba1 Mg1 O7 Te2'
_publ_section_title
;
Two new noncentrosymmetric (NCS) polar oxides: syntheses, 
characterization, and structure-property relationships in Ba M Te2 O7 
(M = Mg2+ or Zn2+)
;
loop_
_citation_id
_citation_journal_abbrev
_citation_year
_citation_journal_volume
_citation_journal_issue
_citation_page_first
_citation_page_last
_citation_journal_id_ASTM
primary 'Inorganic Chemistry' 2012 51 12 2662 2668 INOCAJ
_publ_author_name
;
Yeon Jeongho;Kim Sang-Hwan;Nguyen Sau Doan;Lee Hana;Halasyamani, P.S.
;
_cell_length_a                     5.558(2)
_cell_length_b                     15.215(6)
_cell_length_c                     7.307(3)
_cell_angle_alpha                  90
_cell_angle_beta                   90
_cell_angle_gamma                  90
_cell_volume                       617.92
_cell_formula_units_Z              4
_symmetry_space_group_name_H-M     'A m a 2'
_symmetry_Int_Tables_number        40
_refine_ls_R_factor_all            .0183
loop_
_symmetry_equiv_pos_site_id
_symmetry_equiv_pos_as_xyz
  1	'x+.5, -y, z'
  2	'-x+.5, y, z'
  3	'-x, -y, z'
  4	'x, y, z'
  5	'x+.5, -y+.5, z+.5'
  6	'-x+.5, y+.5, z+.5'
  7	'-x, -y+.5, z+.5'
  8	'x, y+.5, z+.5'
loop_
_atom_type_symbol
_atom_type_oxidation_number
Ba2+	2
Mg2+	2
O2-	-2
Te5+	5
loop_
_atom_site_label
_atom_site_type_symbol
_atom_site_symmetry_multiplicity
_atom_site_Wyckoff_symbol
_atom_site_fract_x
_atom_site_fract_y
_atom_site_fract_z
_atom_site_occupancy
_atom_site_attached_hydrogens
_atom_site_U_iso_or_equiv
Ba1 Ba2+ 4 b 0.25 0.20849(2) 0.87183(11) 1 0 0.00879(12) 
Te1 Te5+ 4 b 0.25 0.42209(3) 0.60961(5) 1 0 0.00534(16) 
Te2 Te5+ 4 b 0.25 0.42625(4) 0.12828(4) 1 0 0.00651(17) 
Mg1 Mg2+ 4 b 0.25 0.61859(13) 0.8586(5) 1 0 0.0055(4) 
O1 O2- 4 b 0.25 0.3641(3) 0.3675(14) 1 0 0.0073(7) 
O2 O2- 8 c 0.9946(18) 0.3566(3) 0.0619(6) 1 0 0.0144(12) 
O3 O2- 4 b 0.25 0.4858(3) 0.8338(6) 1 0 0.0097(11) 
O4 O2- 8 c 0.0047(17) 0.3447(3) 0.6808(7) 1 0 0.0091(10) 
O5 O2- 4 a 0 0.5 0.4956(7) 1 0 0.0104(10) 

loop_
_atom_site_aniso_label
_atom_site_aniso_type_symbol
_atom_site_aniso_U_11
_atom_site_aniso_U_22
_atom_site_aniso_U_33
_atom_site_aniso_U_12
_atom_site_aniso_U_13
_atom_site_aniso_U_23
Ba1 Ba2+ 0.00990(17) 0.00867(19) 0.00779(17) 0 0 0.0001(2)
Te1 Te5+ 0.0064(4) 0.0046(2) 0.0050(3) 0 0 -0.0007(2)
Te2 Te5+ 0.0068(4) 0.0058(2) 0.0070(3) 0 0 -0.0006(2)
O2 O2- 0.011(3) 0.025(2) 0.008(2) -0.004(2) -0.002(2) 0.0006(16)
O3 O2- 0.014(2) 0.009(2) 0.006(3) 0 0 0.0021(16)
O4 O2- 0.008(3) 0.0071(15) 0.012(2) -0.004(2) 0.002(2) 0.0026(12)
O5 O2- 0.012(2) 0.011(2) 0.009(2) 0.010(2) 0 0
#End of data_262408-ICSD


