data_424607-ICSD
#?2014 by Fachinformationszentrum Karlsruhe, and the U.S. Secretary of 
#Commerce on behalf of the United States.  All rights reserved.
_database_code_ICSD                424607
_audit_creation_date               2014/08/01
_chemical_name_systematic
;
Hexacalcium Pentadecaoxopentatellurate(IV) Dinitrate
;
_chemical_formula_structural       'Ca6 Te5 O15 (N O3)2'
_chemical_formula_sum              'Ca6 N2 O21 Te5'
_publ_section_title
;
The calcium oxotellurate(IV) nitrates Ca5 Te4 O12(N O3)2 (H2 O)2 and 
Ca6 Te5 O15 (N O3)2
;
loop_
_citation_id
_citation_journal_abbrev
_citation_year
_citation_journal_volume
_citation_journal_issue
_citation_page_first
_citation_page_last
_citation_journal_id_ASTM
primary 'Mineralogy and Petrology' 2013 107 2 253 263 MIPEE9
_publ_author_name                  'Stoeger, Berthold;Weil, Matthias'
_cell_length_a                     15.494(2)
_cell_length_b                     5.6145(7)
_cell_length_c                     39.338(4)
_cell_angle_alpha                  90.00
_cell_angle_beta                   142.480(5)
_cell_angle_gamma                  90.00
_cell_volume                       2084.16
_cell_formula_units_Z              4
_symmetry_space_group_name_H-M     'P 1 21/c 1'
_symmetry_Int_Tables_number        14
_refine_ls_R_factor_all            .0429
loop_
_symmetry_equiv_pos_site_id
_symmetry_equiv_pos_as_xyz
  1	'x, -y+.5, z+.5'
  2	'-x, -y, -z'
  3	'-x, y+.5, -z+.5'
  4	'x, y, z'
loop_
_atom_type_symbol
_atom_type_oxidation_number
Ca2+	2
N5+	5
O2-	-2
Te4+	4
loop_
_atom_site_label
_atom_site_type_symbol
_atom_site_symmetry_multiplicity
_atom_site_Wyckoff_symbol
_atom_site_fract_x
_atom_site_fract_y
_atom_site_fract_z
_atom_site_occupancy
_atom_site_attached_hydrogens
_atom_site_U_iso_or_equiv
Te1 Te4+ 4 e 0.64351(7) 0.29413(11) 0.11120(3) 1 0 0.01250(15) 
Te2 Te4+ 4 e 0.68846(7) 0.31090(11) 0.00018(3) 1 0 0.01349(15) 
Te3 Te4+ 4 e 0.25041(7) 0.26838(11) 0.05678(3) 1 0 0.01370(15) 
Te4 Te4+ 4 e 0.22359(7) 0.24273(10) 0.17361(3) 1 0 0.01295(14) 
Te5 Te4+ 4 e 0.84306(7) 0.35318(11) 0.26134(3) 1 0 0.01288(15) 
Ca1 Ca2+ 4 e 0.6253(2) 0.7622(3) 0.04611(8) 1 0 0.0122(4) 
Ca2 Ca2+ 4 e 0.9847(2) 0.2346(3) 0.53335(8) 1 0 0.0146(4) 
Ca3 Ca2+ 4 e 0.2813(2) 0.7630(3) 0.12879(8) 1 0 0.0158(4) 
Ca4 Ca2+ 4 e 0.9716(2) 0.7894(3) 0.09571(8) 1 0 0.0139(4) 
Ca5 Ca2+ 4 e 0.9291(2) 0.3345(3) 0.14965(8) 1 0 0.0148(4) 
Ca6 Ca2+ 4 e 0.8788(2) 0.8259(3) 0.20390(8) 1 0 0.0139(4) 
O1 O2- 4 e 0.5212(7) 0.4102(10) 0.0405(3) 1 0 0.0160(15) 
O2 O2- 4 e 0.7380(7) 0.0494(10) 0.1179(2) 1 0 0.0120(15) 
O3 O2- 4 e 0.7818(7) 0.5195(9) 0.1433(3) 1 0 0.0142(16) 
O4 O2- 4 e 0.5970(7) 0.0965(10) 0.0001(3) 1 0 0.0191(16) 
O5 O2- 4 e 0.8400(7) 0.1185(11) 0.0349(3) 1 0 0.0220(17) 
O6 O2- 4 e 0.7826(6) 0.5031(11) 0.0618(3) 1 0 0.0140(15) 
O7 O2- 4 e 0.1326(7) 0.3686(11) -0.0144(3) 1 0 0.0217(17) 
O8 O2- 4 e 0.1537(7) 0.0092(10) 0.0445(3) 1 0 0.0133(15) 
O9 O2- 4 e 0.1669(7) 0.4852(10) 0.0603(3) 1 0 0.0160(16) 
O10 O2- 4 e 0.0986(7) 0.1607(11) 0.1687(3) 1 0 0.0214(16) 
O11 O2- 4 e 0.1346(7) 0.5016(10) 0.1257(3) 1 0 0.0174(16) 
O12 O2- 4 e 0.1470(7) 0.0241(10) 0.1184(3) 1 0 0.0131(15) 
O13 O2- 4 e 0.9821(7) 0.2183(11) 0.3317(3) 1 0 0.0242(16) 
O14 O2- 4 e 0.8825(7) 0.1579(11) 0.2363(3) 1 0 0.0255(17) 
O15 O2- 4 e 0.9498(7) 0.5956(10) 0.2736(3) 1 0 0.0126(15) 
N1 N5+ 4 e 0.5094(11) 0.269(2) 0.2150(5) 1 0 0.032(2) 
O16 O2- 4 e 0.4376(11) 0.095(2) 0.1877(5) 1 0 0.112(5) 
O17 O2- 4 e 0.6273(9) 0.2515(14) 0.2637(4) 1 0 0.059(3) 
O18 O2- 4 e 0.4728(12) 0.478(2) 0.1981(5) 1 0 0.089(4) 
N2 N5+ 4 e 0.5648(11) 0.8079(17) 0.1578(4) 1 0 0.035(3) 
O19 O2- 4 e 0.4412(8) 0.7597(15) 0.1244(3) 1 0 0.043(2) 
O20 O2- 4 e 0.6389(11) 0.900(2) 0.2029(5) 1 0 0.098(4) 
O21 O2- 4 e 0.6248(8) 0.7477(13) 0.1488(3) 1 0 0.039(2) 

loop_
_atom_site_aniso_label
_atom_site_aniso_type_symbol
_atom_site_aniso_U_11
_atom_site_aniso_U_22
_atom_site_aniso_U_33
_atom_site_aniso_U_12
_atom_site_aniso_U_13
_atom_site_aniso_U_23
Te1 Te4+ 0.0157(4) 0.0077(3) 0.0172(4) 0.0008(3) 0.0137(3) 0.0012(3)
Te2 Te4+ 0.0166(4) 0.0095(3) 0.0169(4) 0.0000(3) 0.0139(3) -0.0001(3)
Te3 Te4+ 0.0163(4) 0.0089(3) 0.0190(4) 0.0010(3) 0.0147(3) 0.0014(3)
Te4 Te4+ 0.0161(4) 0.0082(3) 0.0162(4) 0.0003(3) 0.0132(3) 0.0001(3)
Te5 Te4+ 0.0165(4) 0.0090(3) 0.0174(4) -0.0003(3) 0.0144(4) -0.0005(3)
Ca1 Ca2+ 0.0134(10) 0.0081(10) 0.0164(11) -0.0003(8) 0.0121(10) 0.0001(8)
Ca2 Ca2+ 0.0161(11) 0.0101(10) 0.0177(11) 0.0011(9) 0.0134(10) 0.0008(9)
Ca3 Ca2+ 0.0181(11) 0.0089(10) 0.0183(11) -0.0002(9) 0.0139(11) -0.0019(9)
Ca4 Ca2+ 0.0177(11) 0.0107(10) 0.0166(11) 0.0007(9) 0.0144(11) -0.0009(8)
Ca5 Ca2+ 0.0170(12) 0.0119(10) 0.0186(12) 0.0041(9) 0.0148(11) 0.0042(9)
Ca6 Ca2+ 0.0189(12) 0.0070(10) 0.0161(11) -0.0006(9) 0.0140(11) -0.0011(9)
O1 O2- 0.015(4) 0.007(3) 0.013(4) -0.003(3) 0.008(4) -0.004(3)
O2 O2- 0.017(4) 0.005(3) 0.014(4) 0.006(3) 0.012(4) 0.006(3)
O3 O2- 0.011(4) 0.005(3) 0.020(4) -0.005(3) 0.011(4) -0.007(3)
O4 O2- 0.027(4) 0.008(3) 0.034(5) 0.002(3) 0.027(4) 0.002(3)
O5 O2- 0.022(4) 0.019(4) 0.031(5) 0.000(3) 0.022(4) -0.001(3)
O6 O2- 0.008(4) 0.020(4) 0.007(4) 0.001(3) 0.004(4) 0.001(3)
O7 O2- 0.030(4) 0.014(4) 0.021(4) 0.001(3) 0.020(4) -0.002(3)
O8 O2- 0.018(4) 0.009(3) 0.014(4) -0.005(3) 0.013(4) -0.004(3)
O9 O2- 0.020(4) 0.010(3) 0.018(4) 0.000(3) 0.015(4) 0.001(3)
O10 O2- 0.021(4) 0.025(4) 0.021(4) 0.006(3) 0.018(4) 0.005(3)
O11 O2- 0.022(4) 0.016(4) 0.016(4) 0.006(3) 0.016(4) 0.010(3)
O12 O2- 0.021(4) 0.003(3) 0.014(4) -0.004(3) 0.014(4) -0.002(3)
O13 O2- 0.034(4) 0.023(4) 0.024(4) 0.011(3) 0.025(4) 0.009(3)
O14 O2- 0.037(5) 0.017(4) 0.044(5) -0.007(3) 0.037(4) -0.012(3)
O15 O2- 0.022(4) 0.009(3) 0.015(4) -0.001(3) 0.017(4) 0.000(3)
N1 N5+ 0.021(6) 0.038(7) 0.039(7) 0.000(6) 0.025(6) -0.001(6)
O16 O2- 0.068(8) 0.134(10) 0.148(11) -0.087(8) 0.089(9) -0.130(9)
O17 O2- 0.035(6) 0.030(5) 0.040(6) -0.003(5) 0.013(5) 0.000(5)
O18 O2- 0.085(9) 0.085(9) 0.092(9) 0.059(7) 0.069(9) 0.065(7)
N2 N5+ 0.039(7) 0.030(6) 0.041(7) -0.015(5) 0.033(6) -0.014(5)
O19 O2- 0.029(5) 0.058(6) 0.044(5) -0.004(5) 0.030(5) -0.010(5)
O20 O2- 0.076(9) 0.165(12) 0.092(9) -0.058(8) 0.076(8) -0.081(9)
O21 O2- 0.037(5) 0.044(5) 0.048(5) -0.007(4) 0.037(5) -0.017(4)
#End of data_424607-ICSD


