data_174443-ICSD
#?2014 by Fachinformationszentrum Karlsruhe, and the U.S. Secretary of 
#Commerce on behalf of the United States.  All rights reserved.
_database_code_ICSD                174443
_audit_creation_date               2011/02/01
_chemical_name_systematic
;
Hexadecalithium Diniobium Oxooctanitride
;
_chemical_formula_structural       'Li16 Nb2 O N8'
_chemical_formula_sum              'Li16 N8 Nb2 O1'
_publ_section_title
;
Exploring order-disorder structural transitions in the Li-Nb-N-O 
system: The new antifluorite oxynitride Li11 Nb N4 O2
;
loop_
_citation_id
_citation_journal_abbrev
_citation_year
_citation_journal_volume
_citation_journal_issue
_citation_page_first
_citation_page_last
_citation_journal_id_ASTM
primary 'Journal of Solid State Chemistry' 2010 183 7 1609 1614 JSSCBI
_publ_author_name
;
Cabana, J.;Casas-Cabanas, M.;Santner, H.J.;Fuertes, A.;Palacin, M.R.
;
_cell_length_a                     6.0043(2)
_cell_length_b                     6.0043(2)
_cell_length_c                     25.606(1)
_cell_angle_alpha                  90.
_cell_angle_beta                   90.
_cell_angle_gamma                  120.
_cell_volume                       799.46
_cell_formula_units_Z              3
_symmetry_space_group_name_H-M     'R -3 H'
_symmetry_Int_Tables_number        148
_refine_ls_R_factor_all            .189
loop_
_symmetry_equiv_pos_site_id
_symmetry_equiv_pos_as_xyz
  1	'x-y, x, -z'
  2	'y, -x+y, -z'
  3	'-x, -y, -z'
  4	'-x+y, -x, z'
  5	'-y, x-y, z'
  6	'x, y, z'
  7	'x-y+.6666, x+.3333, -z+.3333'
  8	'x-y+.3333, x+.6666, -z+.6666'
  9	'y+.6666, -x+y+.3333, -z+.3333'
 10	'y+.3333, -x+y+.6666, -z+.6666'
 11	'-x+.6666, -y+.3333, -z+.3333'
 12	'-x+.3333, -y+.6666, -z+.6666'
 13	'-x+y+.6666, -x+.3333, z+.3333'
 14	'-x+y+.3333, -x+.6666, z+.6666'
 15	'-y+.6666, x-y+.3333, z+.3333'
 16	'-y+.3333, x-y+.6666, z+.6666'
 17	'x+.6666, y+.3333, z+.3333'
 18	'x+.3333, y+.6666, z+.6666'
loop_
_atom_type_symbol
_atom_type_oxidation_number
Li1+	1
N3-	-3
Nb5+	5
O2-	-2
loop_
_atom_site_label
_atom_site_type_symbol
_atom_site_symmetry_multiplicity
_atom_site_Wyckoff_symbol
_atom_site_fract_x
_atom_site_fract_y
_atom_site_fract_z
_atom_site_occupancy
_atom_site_attached_hydrogens
_atom_site_B_iso_or_equiv
Nb1 Nb5+ 6 c 0 0 0.2485(7) 1. 0 0.1(2) 
N1 N3- 18 f 0.311(1) 0.314(1) 0.2244(5) 1. 0 0.77(9) 
N2 N3- 6 c 0 0 0.3265(4) 1. 0 0.77(9) 
O1 O2- 3 a 0 0 0 1. 0 0.6(5) 
Li1 Li1+ 18 f 0.359(9) 0.308(9) 0.474(1) 1. 0 1.2(3) 
Li2 Li1+ 18 f 0.03(1) 0.333(8) 0.028(2) 1. 0 1.2(3) 
Li3 Li1+ 6 c 0 0 0.079(3) 1. 0 1.2(3) 
Li4 Li1+ 6 c 0 0 0.412(3) 1. 0 1.2(3) 

#End of data_174443-ICSD


