data_20544-ICSD
#?2014 by Fachinformationszentrum Karlsruhe, and the U.S. Secretary of 
#Commerce on behalf of the United States.  All rights reserved.
_database_code_ICSD                20544
_audit_creation_date               1982/12/31
_audit_update_record               2012/08/01
_chemical_name_systematic          'Calcium Strontium Silicate'
_chemical_formula_structural       'Ca Sr (Si O4)'
_chemical_formula_sum              'Ca1 O4 Si1 Sr1'
_publ_section_title
;
The crystal structure of alpha'-modification of dicalcium silicate Ca 
(Ca, Sr) Si O4
;
loop_
_citation_id
_citation_journal_abbrev
_citation_year
_citation_journal_volume
_citation_page_first
_citation_page_last
_citation_journal_id_ASTM
primary 'Doklady Akademii Nauk SSSR' 1982 267 641 644 DANKAS
_publ_author_name
;
Il'inets, A.M.;Nevskii, N.N.;Ilyukhin, V.V.;Bikbau, M.Ya.;Belov, N.V.
;
_cell_length_a                     20.871(2)
_cell_length_b                     9.496(1)
_cell_length_c                     5.600(1)
_cell_angle_alpha                  90.
_cell_angle_beta                   90.
_cell_angle_gamma                  90.
_cell_volume                       1109.87
_cell_formula_units_Z              12
_symmetry_space_group_name_H-M     'P n a 21'
_symmetry_Int_Tables_number        33
_refine_ls_R_factor_all            .07
loop_
_symmetry_equiv_pos_site_id
_symmetry_equiv_pos_as_xyz
  1	'x+.5, -y+.5, z'
  2	'-x+.5, y+.5, z+.5'
  3	'-x, -y, z+.5'
  4	'x, y, z'
loop_
_atom_type_symbol
_atom_type_oxidation_number
Ca2+	2
O2-	-2
Si4+	4
Sr2+	2
loop_
_atom_site_label
_atom_site_type_symbol
_atom_site_symmetry_multiplicity
_atom_site_Wyckoff_symbol
_atom_site_fract_x
_atom_site_fract_y
_atom_site_fract_z
_atom_site_occupancy
_atom_site_attached_hydrogens
Sr1 Sr2+ 4 a 0.279(1) 0.421(2) 0.740(3) 1. 0 
Sr2 Sr2+ 4 a 0.445(1) 0.078(2) 0.766(3) 1. 0 
Sr3 Sr2+ 4 a 0.111(1) 0.078(2) 0.752(3) 1. 0 
Ca1 Ca2+ 4 a 0.001(1) 0.200(2) 0.267(3) 1. 0 
Ca2 Ca2+ 4 a 0.335(1) 0.200(2) 0.237(3) 1. 0 
Ca3 Ca2+ 4 a 0.168(1) 0.299(2) 0.246(3) 1. 0 
Si1 Si4+ 4 a 0.259(2) 0.083(5) 0.740(7) 1. 0 
Si2 Si4+ 4 a 0.427(2) 0.416(5) 0.749(7) 1. 0 
Si3 Si4+ 4 a 0.092(2) 0.416(5) 0.760(7) 1. 0 
O1 O2- 4 a 0.111(2) 0.065(5) 0.318(7) 1. 0 
O2 O2- 4 a 0.445(2) 0.067(5) 0.322(7) 1. 0 
O3 O2- 4 a 0.249(2) 0.194(5) 0.531(7) 1. 0 
O4 O2- 4 a 0.065(2) 0.328(5) 0.987(7) 1. 0 
O5 O2- 4 a 0.227(2) 0.156(5) 0.981(7) 1. 0 
O6 O2- 4 a 0.083(2) 0.309(5) 0.542(7) 1. 0 
O7 O2- 4 a 0.281(2) 0.436(5) 0.305(7) 1. 0 
O8 O2- 4 a 0.333(2) 0.061(5) 0.820(7) 1. 0 
O9 O2- 4 a 0.166(2) 0.431(5) 0.813(7) 1. 0 
O10 O2- 4 a 0.403(2) 0.328(5) 0.978(7) 1. 0 
O11 O2- 4 a 0.002(2) 0.056(5) 0.753(7) 1. 0 
O12 O2- 4 a 0.403(2) 0.341(5) 0.500(7) 1. 0 

#End of data_20544-ICSD


