data_74911-ICSD
#?2014 by Fachinformationszentrum Karlsruhe, and the U.S. Secretary of 
#Commerce on behalf of the United States.  All rights reserved.
_database_code_ICSD                74911
_audit_creation_date               1995/10/17
_chemical_name_systematic          'Pentapotassium Indate'
_chemical_formula_structural       'K5 (In O4)'
_chemical_formula_sum              'In1 K5 O4'
_publ_section_title
;
Ueber "Orthoindate" der Alkalimetalle: Zur Kenntnis von K5(InO4)
;
loop_
_citation_id
_citation_journal_abbrev
_citation_year
_citation_journal_volume
_citation_page_first
_citation_page_last
_citation_journal_id_ASTM
primary 'Zeitschrift fuer Anorganische und Allgemeine Chemie (1950) (DE)'
 1994 620 210 224 ZAACAB
_publ_author_name                  'Lulei, M.;Hoppe, R.'
_cell_length_a                     18.27899
_cell_length_b                     16.94398
_cell_length_c                     13.294
_cell_angle_alpha                  113.28
_cell_angle_beta                   111.39
_cell_angle_gamma                  105.2
_cell_volume                       3098.88
_cell_formula_units_Z              16
_symmetry_space_group_name_H-M     'P -1'
_symmetry_Int_Tables_number        2
_refine_ls_R_factor_all            .056
loop_
_symmetry_equiv_pos_site_id
_symmetry_equiv_pos_as_xyz
  1	'-x, -y, -z'
  2	'x, y, z'
loop_
_atom_type_symbol
_atom_type_oxidation_number
In3+	3
K1+	1
O2-	-2
loop_
_atom_site_label
_atom_site_type_symbol
_atom_site_symmetry_multiplicity
_atom_site_Wyckoff_symbol
_atom_site_fract_x
_atom_site_fract_y
_atom_site_fract_z
_atom_site_occupancy
_atom_site_attached_hydrogens
In1 In3+ 2 i 0.82105(4) 0.66039(4) 0.81616(5) 1. 0 
In2 In3+ 2 i 0.68819(4) 0.84646(4) 0.17506(5) 1. 0 
In3 In3+ 2 i 0.20213(4) 0.71771(4) 0.20384(6) 1. 0 
In4 In3+ 2 i 0.53980(4) 0.52698(4) 0.27393(5) 1. 0 
In5 In3+ 2 i 0.29849(4) 0.77525(4) 0.80601(6) 1. 0 
In6 In3+ 2 i 0.56046(4) 0.90676(4) 0.64640(5) 1. 0 
In7 In3+ 2 i 0.92712(4) 0.59334(4) 0.34113(6) 1. 0 
In8 In3+ 2 i 0.05619(4) 0.03219(4) 0.27710(6) 1. 0 
K1 K1+ 2 i 0.39361(14) 0.23600(15) 0.23134(21) 1. 0 
K2 K1+ 2 i 0.23591(13) 0.95355(15) 0.27226(20) 1. 0 
K3 K1+ 2 i 0.88634(14) 0.72552(16) 0.21155(20) 1. 0 
K4 K1+ 2 i 0.72657(14) 0.44457(15) 0.27353(21) 1. 0 
K5 K1+ 2 i 0.30834(14) 0.8624(16) 0.08337(21) 1. 0 
K6 K1+ 2 i 0.51197(14) 0.91292(15) 0.09017(20) 1. 0 
K7 K1+ 2 i 0.01663(16) 0.40981(17) 0.12085(22) 1. 0 
K8 K1+ 2 i 0.81064(16) 0.35788(16) 0.08628(24) 1. 0 
K9 K1+ 2 i 0.59084(14) 0.09786(16) 0.57995(20) 1. 0 
K10 K1+ 2 i 0.67160(14) 0.6497(18) 0.90700(21) 1. 0 
K11 K1+ 2 i 0.48697(13) 0.70079(14) 0.91124(19) 1. 0 
K12 K1+ 2 i 0.36044(14) 0.84066(16) 0.63117(21) 1. 0 
K13 K1+ 2 i 0.35123(14) 0.01694(15) 0.59985(20) 1. 0 
K14 K1+ 2 i 0.86345(13) 0.51881(15) 0.59300(19) 1. 0 
K15 K1+ 2 i 0.60573(14) 0.57300(16) 0.58085(21) 1. 0 
K16 K1+ 2 i 0.87629(15) 0.90496(17) 0.42119(21) 1. 0 
K17 K1+ 2 i 0.94676(13) 0.88800(15) 0.90963(20) 1. 0 
K18 K1+ 2 i 0.76436(15) 0.65593(17) 0.30829(24) 1. 0 
K19 K1+ 2 i 0.33339(18) 0.20952(19) 0.61300(24) 1. 0 
K20 K1+ 2 i 0.05065(18) 0.43918(20) 0.91133(27) 1. 0 
K21 K1+ 2 i 0.28758(19) 0.64238(22) 0.36634(27) 1. 0 
K22 K1+ 2 i 0.78714(18) 0.67203(20) 0.56723(25) 1. 0 
K23 K1+ 2 i 0.84609(14) 0.85074(16) 0.10315(21) 1. 0 
K24 K1+ 2 i 0.08264(16) 0.60570(18) 0.60459(22) 1. 0 
K25 K1+ 2 i 0.80161(17) 0.94753(19) 0.95649(23) 1. 0 
K26 K1+ 2 i 0.52173(16) 0.30802(17) 0.61938(22) 1. 0 
K27 K1+ 2 i 0.57334(16) 0.60334(16) 0.06897(22) 1. 0 
K28 K1+ 2 i 0.89163(16) 0.17076(20) 0.06083(26) 1. 0 
K29 K1+ 2 i 0.56415(17) 0.93589(18) 0.90330(23) 1. 0 
K30 K1+ 2 i 0.99054(23) 0.7596(2) 0.65602(30) 1. 0 
K31 K1+ 2 i 0.45481(17) 0.80660(18) 0.22085(29) 1. 0 
K32 K1+ 2 i 0.73277(14) 0.83369(16) 0.66419(21) 1. 0 
K33 K1+ 2 i 0.36580(18) 0.59039(20) 0.00438(23) 1. 0 
K34 K1+ 2 i 0.24317(16) 0.94467(18) 0.81131(26) 1. 0 
K35 K1+ 2 i 0.13517(14) 0.68097(17) 0.41270(24) 1. 0 
K36 K1+ 2 i 0.74761(19) 0.49152(19) 0.90733(28) 1. 0 
K37 K1+ 2 i 0.02196(14) 0.80218(15) 0.09956(22) 1. 0 
K38 K1+ 2 i 0.05497(17) 0.91336(20) 0.59689(26) 1. 0 
K39 K1+ 2 i 0.12564(13) 0.87191(15) 0.41718(20) 1. 0 
K40 K1+ 2 i 0.61943(13) 0.37572(15) 0.4096(2) 1. 0 
O1 O2- 2 i 0.32301(39) 0.04186(48) 0.1901(6) 1. 0 
O2 O2- 2 i 0.22198(42) 0.01648(46) 0.65807(61) 1. 0 
O3 O2- 2 i 0.10058(40) 0.98405(46) 0.15313(59) 1. 0 
O4 O2- 2 i 0.50514(41) 0.58442(43) 0.69832(60) 1. 0 
O5 O2- 2 i 0.39236(40) 0.91198(44) 0.87124(62) 1. 0 
O6 O2- 2 i 0.86141(43) 0.66615(48) 0.98619(57) 1. 0 
O7 O2- 2 i 0.18251(43) 0.46330(47) 0.83827(62) 1. 0 
O8 O2- 2 i 0.76795(46) 0.75542(48) 0.81820(68) 1. 0 
O9 O2- 2 i 0.37541(42) 0.34080(47) 0.55239(63) 1. 0 
O10 O2- 2 i 0.15058(45) 0.76002(52) 0.08094(63) 1. 0 
O11 O2- 2 i 0.84487(44) 0.83353(49) 0.55791(65) 1. 0 
O12 O2- 2 i 0.65521(54) 0.85476(52) 0.01408(64) 1. 0 
O13 O2- 2 i 0.98791(43) 0.26330(49) 0.58437(71) 1. 0 
O14 O2- 2 i 0.41129(44) 0.10000(49) 0.49340(62) 1. 0 
O15 O2- 2 i 0.98997(44) 0.50798(49) 0.31399(68) 1. 0 
O16 O2- 2 i 0.48766(42) 0.99418(46) 0.30134(62) 1. 0 
O17 O2- 2 i 0.19032(41) 0.78394(49) 0.81860(63) 1. 0 
O18 O2- 2 i 0.93403(40) 0.71080(46) 0.80800(62) 1. 0 
O19 O2- 2 i 0.75164(42) 0.17498(48) 0.60706(61) 1. 0 
O20 O2- 2 i 0.00859(42) 0.93469(48) 0.32473(65) 1. 0 
O21 O2- 2 i 0.05467(40) 0.95356(45) 0.81606(60) 1. 0 
O22 O2- 2 i 0.74337(40) 0.75422(46) 0.17839(63) 1. 0 
O23 O2- 2 i 0.12039(50) 0.41202(53) 0.54226(66) 1. 0 
O24 O2- 2 i 0.39683(48) 0.50637(51) 0.82646(70) 1. 0 
O25 O2- 2 i 0.31354(47) 0.70644(49) 0.2065(7) 1. 0 
O26 O2- 2 i 0.26718(42) 0.47698(49) 0.34958(67) 1. 0 
O27 O2- 2 i 0.53114(42) 0.22633(45) 0.40664(64) 1. 0 
O28 O2- 2 i 0.35464(38) 0.73682(44) 0.93451(57) 1. 0 
O29 O2- 2 i 0.57368(40) 0.79056(50) 0.17298(63) 1. 0 
O30 O2- 2 i 0.25538(46) 0.67313(47) 0.61733(61) 1. 0 
O31 O2- 2 i 0.11584(45) 0.58463(49) 0.15794(74) 1. 0 
O32 O2- 2 i 0.56960(43) 0.47049(49) 0.84662(61) 1. 0 

loop_
_atom_site_aniso_label
_atom_site_aniso_type_symbol
_atom_site_aniso_U_11
_atom_site_aniso_U_22
_atom_site_aniso_U_33
_atom_site_aniso_U_12
_atom_site_aniso_U_13
_atom_site_aniso_U_23
In1 In3+ 0.01246(26) 0.01114(27) 0.01111(26) 0.00532(22) 0.00663(22) 
0.00659(23)
In2 In3+ 0.01295(26) 0.01148(27) 0.01031(26) 0.00573(22) 0.00595(22) 
0.00685(23)
In3 In3+ 0.01270(26) 0.01083(27) 0.01261(26) 0.00539(22) 0.00669(22) 
0.00723(23)
In4 In3+ 0.01135(25) 0.00951(26) 0.01216(26) 0.00402(21) 0.00518(22) 
0.00687(23)
In5 In3+ 0.01293(26) 0.01049(27) 0.01330(27) 0.00460(22) 0.00715(22) 
0.00730(23)
In6 In3+ 0.01185(25) 0.01136(27) 0.01243(26) 0.00573(22) 0.00682(22) 
0.00832(23)
In7 In3+ 0.01175(26) 0.01132(27) 0.01268(27) 0.00500(22) 0.00595(22) 
0.00829(23)
In8 In3+ 0.01138(26) 0.01172(27) 0.01245(27) 0.00469(22) 0.00536(22) 
0.00722(23)
K1 K1+ 0.0238(10) 0.01817(97) 0.0299(11) 0.00913(82) 0.01479(89) 
0.01564(89)
K2 K1+ 0.02030(93) 0.01987(98) 0.02179(96) 0.0075(8) 0.01002(80) 
0.01199(84)
K3 K1+ 0.0274(10) 0.0267(11) 0.02253(98) 0.01794(90) 0.01670(87) 
0.01722(90)
K4 K1+ 0.02029(95) 0.01609(95) 0.0229(10) 0.00580(79) 0.00417(81) 
0.00837(84)
K5 K1+ 0.0223(10) 0.0205(10) 0.0230(10) 0.00578(84) 0.01222(86) 0.00478(87)
K6 K1+ 0.0241(10) 0.0212(10) 0.02068(97) 0.00830(85) 0.01082(84) 
0.01047(86)
K7 K1+ 0.0317(12) 0.0247(11) 0.0270(11) 0.01260(97) 0.01057(96) 0.01300(97)
K8 K1+ 0.0361(13) 0.0184(11) 0.0374(13) 0.00906(95) 0.0262(11) 0.01048(98)
K9 K1+ 0.02044(94) 0.0241(10) 0.01887(95) 0.00698(82) 0.00833(80) 
0.01104(86)
K10 K1+ 0.01676(93) 0.0309(12) 0.0246(11) 0.00621(87) 0.00930(84) 
0.01289(96)
K11 K1+ 0.01615(86) 0.01712(93) 0.01948(92) 0.00573(75) 0.00703(75) 
0.00813(79)
K12 K1+ 0.02372(98) 0.0237(10) 0.0259(10) 0.01154(85) 0.01567(86) 
0.01642(90)
K13 K1+ 0.02349(98) 0.02100(99) 0.02025(95) 0.01022(83) 0.01236(82) 
0.01062(84)
K14 K1+ 0.02235(94) 0.02079(97) 0.01934(92) 0.01140(81) 0.01134(79) 
0.01264(82)
K15 K1+ 0.01952(94) 0.0271(11) 0.0242(10) 0.01107(86) 0.01168(84) 
0.01180(91)
K16 K1+ 0.0292(11) 0.0259(11) 0.01904(99) 0.01042(93) 0.00768(88) 
0.01104(91)
K17 K1+ 0.01924(92) 0.01713(94) 0.0256(10) 0.00675(78) 0.00852(81) 
0.01326(85)
K18 K1+ 0.0280(11) 0.0245(11) 0.0363(12) 0.01348(93) 0.01645(99) 0.0190(10)
K19 K1+ 0.0471(15) 0.0410(14) 0.0298(12) 0.0266(12) 0.0209(11) 0.0267(12)
K20 K1+ 0.0476(15) 0.0429(15) 0.0457(15) 0.0306(13) 0.0355(13) 0.0297(13)
K21 K1+ 0.0420(15) 0.0507(17) 0.0401(15) 0.0256(14) 0.0174(12) 0.0330(14)
K22 K1+ 0.0497(15) 0.0452(15) 0.0369(13) 0.0332(13) 0.0288(12) 0.0298(13)
K23 K1+ 0.0245(10) 0.0241(11) 0.0277(11) 0.00825(87) 0.0142(9) 0.01625(94)
K24 K1+ 0.0272(11) 0.0304(12) 0.0236(11) 0.00232(96) 0.00762(93) 0.0131(10)
K25 K1+ 0.0379(14) 0.0312(13) 0.0236(12) 0.0192(11) -.0043(10) 0.0093(10)
K26 K1+ 0.0361(13) 0.0249(12) 0.0247(11) 0.0155(10) 0.0132(10) 0.00569(96)
K27 K1+ 0.0334(12) 0.0209(11) 0.0250(11) 0.00561(94) 0.00449(94) 
0.01555(95)
K28 K1+ 0.0279(11) 0.0495(15) 0.0458(14) 0.0227(11) 0.0246(11) 0.0373(13)
K29 K1+ 0.0448(14) 0.0376(13) 0.0312(12) 0.0263(12) 0.0278(11) 0.0241(11)
K30 K1+ 0.0694(21) 0.0215(13) 0.0428(17) 0.0003(13) 0.0311(16) 0.0045(12)
K31 K1+ 0.0355(13) 0.0290(13) 0.0672(18) 0.0176(11) 0.0402(14) 0.0274(13)
K32 K1+ 0.0254(10) 0.0199(10) 0.0243(10) 0.00747(86) 0.01264(88) 
0.00958(88)
K33 K1+ 0.0451(14) 0.0474(15) 0.0263(12) 0.0316(13) 0.0202(11) 0.0239(12)
K34 K1+ 0.0354(13) 0.0265(12) 0.0452(15) 0.0144(10) 0.0204(12) 0.0261(12)
K35 K1+ 0.01890(96) 0.0308(12) 0.0435(13) 0.01262(91) 0.01678(97) 
0.0270(11)
K36 K1+ 0.0401(15) 0.0243(13) 0.0441(16) 0.0054(11) 0.0097(12) 0.0170(12)
K37 K1+ 0.02140(97) 0.01840(99) 0.0326(11) 0.00756(82) 0.01505(90) 
0.01333(92)
K38 K1+ 0.0367(13) 0.0408(15) 0.0411(14) 0.0187(12) 0.0284(12) 0.0222(13)
K39 K1+ 0.01928(91) 0.01882(96) 0.02323(99) 0.00871(78) 0.01088(80) 
0.01153(84)
K40 K1+ 0.01965(91) 0.01897(96) 0.02083(96) 0.00707(78) 0.00788(78) 
0.01173(83)
O1 O2- 0.0115(28) 0.0261(35) 0.0201(32) 0.0076(26) 0.0074(25) 0.0144(29)
O2 O2- 0.0215(32) 0.0161(32) 0.0195(32) 0.0076(27) 0.0121(27) 0.0083(27)
O3 O2- 0.0188(30) 0.0200(32) 0.0198(31) 0.0121(27) 0.0113(26) 0.0126(28)
O4 O2- 0.0209(31) 0.0116(29) 0.0196(31) 0.0043(25) 0.0089(26) 0.0114(26)
O5 O2- 0.0149(29) 0.0118(30) 0.0223(33) -0.0001(25) 0.0061(26) 0.0088(27)
O6 O2- 0.0245(34) 0.0213(34) 0.0086(28) -0.0002(28) 0.0029(26) 0.0091(27)
O7 O2- 0.0237(33) 0.0206(34) 0.0205(33) 0.0120(28) 0.0096(28) 0.0131(29)
O8 O2- 0.0295(36) 0.0201(34) 0.0313(38) 0.0185(30) 0.0165(31) 0.0164(31)
O9 O2- 0.0187(32) 0.0179(33) 0.0210(33) 0.0069(27) 0.0014(27) 0.0095(29)
O10 O2- 0.0280(36) 0.0346(40) 0.0212(34) 0.0227(33) 0.0107(29) 0.0208(33)
O11 O2- 0.0194(33) 0.0190(34) 0.0208(34) -0.0019(27) 0.0001(28) 0.0102(30)
O12 O2- 0.0548(50) 0.0247(38) 0.0138(32) 0.0096(36) 0.0159(34) 0.0136(31)
O13 O2- 0.0181(33) 0.0181(34) 0.0378(42) 0.0029(28) 0.0120(31) 0.0162(33)
O14 O2- 0.0266(35) 0.0243(35) 0.0184(32) 0.0073(29) 0.0142(29) 0.0139(29)
O15 O2- 0.0226(34) 0.0247(36) 0.0347(39) 0.0176(30) 0.0186(31) 0.0176(33)
O16 O2- 0.0205(32) 0.0171(32) 0.0235(33) 0.0121(27) 0.0099(28) 0.0108(28)
O17 O2- 0.0164(30) 0.0259(35) 0.0255(34) 0.0106(28) 0.0145(28) 0.0140(30)
O18 O2- 0.0152(29) 0.0182(32) 0.0225(33) 0.0058(26) 0.0101(27) 0.0098(28)
O19 O2- 0.0210(32) 0.0230(35) 0.0182(32) 0.0101(28) 0.0144(27) 0.0066(28)
O20 O2- 0.0183(32) 0.0222(35) 0.0286(36) 0.0062(28) 0.0097(29) 0.0192(31)
O21 O2- 0.0146(30) 0.0153(32) 0.0163(31) -0.0004(25) 0.0007(25) 0.0071(27)
O22 O2- 0.0136(29) 0.0180(32) 0.0258(34) 0.0092(26) 0.0077(26) 0.0129(29)
O23 O2- 0.0386(42) 0.0299(40) 0.0220(35) 0.0102(34) 0.0221(34) 0.0134(33)
O24 O2- 0.0318(38) 0.0267(38) 0.0330(40) 0.0128(32) 0.0253(34) 0.0171(34)
O25 O2- 0.0309(38) 0.0202(35) 0.0351(40) 0.0149(31) 0.0233(34) 0.0135(32)
O26 O2- 0.0139(31) 0.0190(35) 0.0240(30) 0.0022(27) 0.0002(27) 0.0042(30)
O27 O2- 0.0212(32) 0.0137(31) 0.0275(35) 0.0050(26) 0.0146(29) 0.0119(29)
O28 O2- 0.0135(28) 0.0154(30) 0.0151(29) 0.0041(24) 0.0041(24) 0.0098(26)
O29 O2- 0.0130(29) 0.0338(38) 0.0256(34) 0.0158(28) 0.0136(27) 0.0195(31)
O30 O2- 0.0309(37) 0.0149(32) 0.0155(31) 0.0076(29) 0.0090(29) 0.0050(27)
O31 O2- 0.0235(35) 0.0150(33) 0.0423(45) 0.0015(28) 0.0189(34) 0.0140(33)
O32 O2- 0.0207(32) 0.0252(36) 0.0183(32) 0.0149(29) 0.0019(27) 0.0125(29)
#End of data_74911-ICSD


