data_25102-ICSD
#?2014 by Fachinformationszentrum Karlsruhe, and the U.S. Secretary of 
#Commerce on behalf of the United States.  All rights reserved.
_database_code_ICSD                25102
_audit_creation_date               1980/01/01
_audit_update_record               1999/01/19
_chemical_name_systematic          'Calcium Tetrahydroxodioxodiborate'
_chemical_formula_structural       'Ca (B2 O2 (O H)4)'
_chemical_formula_sum              'H4 B2 Ca1 O6'
_chemical_name_mineral             Vimsite
_publ_section_title
;
Refined crystal structure of vimsite Ca (B2 O2 (O H)4)
;
loop_
_citation_id
_citation_journal_abbrev
_citation_year
_citation_journal_volume
_citation_page_first
_citation_page_last
_citation_journal_id_ASTM
primary Kristallografiya 1976 21 592 594 KRISAJ
2 'Soviet Physics, Crystallography (= Kristallografiya)'
 1976 21 332 333 SPHCA6
_publ_author_name
;
Simonov, M.A.;Egorov Tismenko, Yu.K.;Belov, N.V.
;
_cell_length_a                     10.026(2)
_cell_length_b                     4.440(1)
_cell_length_c                     9.558(3)
_cell_angle_alpha                  90.
_cell_angle_beta                   90.
_cell_angle_gamma                  91.31(2)
_cell_volume                       425.37
_cell_formula_units_Z              4
_symmetry_space_group_name_H-M     'B 1 1 2/b'
_symmetry_Int_Tables_number        15
_refine_ls_R_factor_all            .025
loop_
_symmetry_equiv_pos_site_id
_symmetry_equiv_pos_as_xyz
  1	'x, y+.5, -z'
  2	'-x, -y, -z'
  3	'-x, -y+.5, z'
  4	'x, y, z'
  5	'x+.5, y+.5, -z+.5'
  6	'-x+.5, -y, -z+.5'
  7	'-x+.5, -y+.5, z+.5'
  8	'x+.5, y, z+.5'
loop_
_atom_type_symbol
_atom_type_oxidation_number
B3+	3
Ca2+	2
H1+	1
O2-	-2
loop_
_atom_site_label
_atom_site_type_symbol
_atom_site_symmetry_multiplicity
_atom_site_Wyckoff_symbol
_atom_site_fract_x
_atom_site_fract_y
_atom_site_fract_z
_atom_site_occupancy
_atom_site_attached_hydrogens
_atom_site_B_iso_or_equiv
Ca1 Ca2+ 4 e 0 0.25 0.20806(3) 1. 0 0 
B1 B3+ 8 f 0.20792(9) 0.8075(2) 0.0688(1) 1. 0 0 
O1 O2- 8 f 0.16632(6) 0.1181(1) 0.04814(7) 1. 0 0 
O2 O2- 8 f 0.35778(6) 0.8002(2) 0.08458(7) 1. 0 0 
O3 O2- 8 f 0.14220(7) 0.7035(2) 0.20016(7) 1. 0 0 
H1 H1+ 8 f 0.113(2) 0.355(4) 0.467(2) 1. 0 2.2 
H2 H1+ 8 f 0.199(2) 0.202(5) 0.747(3) 1. 0 6.2 

loop_
_atom_site_aniso_label
_atom_site_aniso_type_symbol
_atom_site_aniso_B_11
_atom_site_aniso_B_22
_atom_site_aniso_B_33
_atom_site_aniso_B_12
_atom_site_aniso_B_13
_atom_site_aniso_B_23
Ca1 Ca2+ 0.56(1) 1.121(1) 0.53(1) -.14(1) 0 0
B1 B3+ 0.67(3) 0.52(3) 0.67(4) 0.00(3) 0.00(3) 0.01(3)
O1 O2- 0.88(3) 0.43(2) 0.85(3) 0.14(2) 0.25(2) 0.08(2)
O2 O2- 0.65(3) 0.81(3) 0.86(3) 0.07(2) -.12(2) -.06(2)
O3 O2- 0.99(3) 1.14(3) 0.76(3) -.20(2) 0.12(2) 0.24(3)
#End of data_25102-ICSD


