data_158030-ICSD
#?2014 by Fachinformationszentrum Karlsruhe, and the U.S. Secretary of 
#Commerce on behalf of the United States.  All rights reserved.
_database_code_ICSD                158030
_audit_creation_date               2008/02/01
_chemical_name_systematic
;
Potassium Trilithium Heptacalcium Dititanium Bis(cyclo-hexasilicate) 
Difluoride
;
_chemical_formula_structural       'K Li3 Ca7 Ti2 (Si6 O18)2 F2'
_chemical_formula_sum              'Ca7 F2 K1 Li3 O36 Si12 Ti2'
_chemical_name_mineral             Katayamalite
_publ_section_title
;
Katayamalite and baratovite are structurally identical
;
loop_
_citation_id
_citation_journal_abbrev
_citation_year
_citation_journal_volume
_citation_journal_issue
_citation_page_first
_citation_page_last
_citation_journal_id_ASTM
primary 'European Journal of Mineralogy' 1992 4- 839 841 EJMIER
2 'Mineralogical Journal (Japan)' 1985 12 5 206 217 MJTOAS
3 'American Mineralogist' 1979 64- 383 389 AMMIAY
_publ_author_name                  'Baur, W.H.;Kassner, D.'
_cell_length_a                     16.923(3)
_cell_length_b                     9.721(2)
_cell_length_c                     20.909(3)
_cell_angle_alpha                  90
_cell_angle_beta                   112.40(10)
_cell_angle_gamma                  90
_cell_volume                       3180.17
_cell_formula_units_Z              4
_symmetry_space_group_name_H-M     'C 1 2/c 1'
_symmetry_Int_Tables_number        15
loop_
_symmetry_equiv_pos_site_id
_symmetry_equiv_pos_as_xyz
  1	'x, -y, z+.5'
  2	'-x, -y, -z'
  3	'-x, y, -z+.5'
  4	'x, y, z'
  5	'x+.5, -y+.5, z+.5'
  6	'-x+.5, -y+.5, -z'
  7	'-x+.5, y+.5, -z+.5'
  8	'x+.5, y+.5, z'
loop_
_atom_type_symbol
_atom_type_oxidation_number
Ca2+	2
F1-	-1
K1+	1
Li1+	1
O2-	-2
Si4+	4
Ti4+	4
loop_
_atom_site_label
_atom_site_type_symbol
_atom_site_symmetry_multiplicity
_atom_site_Wyckoff_symbol
_atom_site_fract_x
_atom_site_fract_y
_atom_site_fract_z
_atom_site_occupancy
_atom_site_attached_hydrogens
K1 K1+ 4 e 0.00000 0.07100 0.25000 1. 0 
Li1 Li1+ 4 e 0.50000 0.08350 0.25000 1. 0 
Li2 Li1+ 8 f 0.24625 0.31675 0.24850 1. 0 
Ca1 Ca2+ 8 f 0.22050 -0.07250 0.51300 1. 0 
Ca2 Ca2+ 8 f 0.14550 0.28350 0.50700 1. 0 
Ca3 Ca2+ 8 f 0.07200 0.63900 0.50000 1. 0 
Ca4 Ca2+ 4 a 0.00000 0.00000 0.00000 1. 0 
Ti1 Ti4+ 8 f 0.33500 0.07050 0.25200 1. 0 
Si1 Si4+ 8 f 0.61400 0.26500 0.36000 1. 0 
Si2 Si4+ 8 f 0.43100 0.32350 0.36000 1. 0 
Si3 Si4+ 8 f 0.36850 0.63500 0.35900 1. 0 
Si4 Si4+ 8 f 0.49100 0.88000 0.36000 1. 0 
Si5 Si4+ 8 f 0.67350 0.81550 0.35900 1. 0 
Si6 Si4+ 8 f 0.73900 0.50800 0.36200 1. 0 
O1 O2- 8 f 0.65850 0.40350 0.34500 1. 0 
O2 O2- 8 f 0.65900 0.22350 0.44100 1. 0 
O3 O2- 8 f 0.61250 0.14350 0.30800 1. 0 
O4 O2- 8 f 0.51525 0.30975 0.34050 1. 0 
O5 O2- 8 f 0.35350 0.23900 0.30600 1. 0 
O6 O2- 8 f 0.45200 0.28300 0.43900 1. 0 
O7 O2- 8 f 0.41025 0.48775 0.35050 1. 0 
O8 O2- 8 f 0.27350 0.65300 0.30400 1. 0 
O9 O2- 8 f 0.37850 0.65150 0.43800 1. 0 
O10 O2- 8 f 0.42675 0.74875 0.34050 1. 0 
O11 O2- 8 f 0.52125 0.91975 0.44150 1. 0 
O12 O2- 8 f 0.44850 0.00450 0.30900 1. 0 
O13 O2- 8 f 0.57250 0.82050 0.34500 1. 0 
O14 O2- 8 f 0.72800 0.85450 0.43800 1. 0 
O15 O2- 8 f 0.69500 0.90700 0.30400 1. 0 
O16 O2- 8 f 0.69250 0.65750 0.34500 1. 0 
O17 O2- 8 f 0.78550 0.47600 0.31000 1. 0 
O18 O2- 8 f 0.80050 0.49850 0.44200 1. 0 
F1 F1- 8 f 0.10100 0.06850 0.45700 1. 0 

#End of data_158030-ICSD


