data_86650-ICSD
#?2014 by Fachinformationszentrum Karlsruhe, and the U.S. Secretary of 
#Commerce on behalf of the United States.  All rights reserved.
_database_code_ICSD                86650
_audit_creation_date               2000/07/15
_chemical_name_systematic
;
Tricesium Sodium Octa-mue3-seleno-octahedrohexakis(cyanorhenate(III))
;
_chemical_formula_structural       'Cs3 Na (Se8 (Re (C N))6)'
_chemical_formula_sum              'C6 Cs3 N6 Na1 Re6 Se8'
_publ_section_title
;
Cyano-bridged Re6 Q8 (Q = S, Se) cluster-metal framework solids: a 
new class of porous materials
;
loop_
_citation_id
_citation_journal_abbrev
_citation_year
_citation_journal_volume
_citation_page_first
_citation_page_last
_citation_journal_id_ASTM
primary 'Chemistry of Materials' 1998 10 3783 3786 CMATEX
_publ_author_name
;
Beauvais, L.G.;Shores, M.P.;Long, J.R.
;
_cell_length_a                     11.3414(2)
_cell_length_b                     8.8725(1)
_cell_length_c                     13.6372(2)
_cell_angle_alpha                  90.
_cell_angle_beta                   90.
_cell_angle_gamma                  90.
_cell_volume                       1372.26
_cell_formula_units_Z              2
_symmetry_space_group_name_H-M     'P m n 21'
_symmetry_Int_Tables_number        31
_refine_ls_R_factor_all            .034
loop_
_symmetry_equiv_pos_site_id
_symmetry_equiv_pos_as_xyz
  1	'x+.5, -y, z+.5'
  2	'-x+.5, -y, z+.5'
  3	'-x, y, z'
  4	'x, y, z'
loop_
_atom_type_symbol
_atom_type_oxidation_number
C2+	2
Cs1+	1
N3-	-3
Na1+	1
Re3+	3
Se2-	-2
loop_
_atom_site_label
_atom_site_type_symbol
_atom_site_symmetry_multiplicity
_atom_site_Wyckoff_symbol
_atom_site_fract_x
_atom_site_fract_y
_atom_site_fract_z
_atom_site_occupancy
_atom_site_attached_hydrogens
_atom_site_U_iso_or_equiv
Re1 Re3+ 2 a 0.5 0.0635(1) 0.6764(1) 1. 0 0 
Re2 Re3+ 4 b 0.3837(1) 0.8511(1) 0.5816(1) 1. 0 0 
Re3 Re3+ 4 b 0.3839(1) 0.1286(1) 0.5148(1) 1. 0 0 
Re4 Re3+ 2 a 0.5 0.9164(1) 0.4200(1) 1. 0 0 
Se1 Se2- 4 b 0.2781(2) 0.9221(2) 0.4252(2) 1. 0 0 
Se2 Se2- 2 a 0.5 0.7928(4) 0.7361(3) 1. 0 0 
Se3 Se2- 4 b 0.2791(2) 0.0587(3) 0.6721(2) 1. 0 0 
Se4 Se2- 2 a 0.5 0.1876(4) 0.3607(3) 1. 0 0 
Se5 Se2- 2 a 0.5 0.6539(3) 0.4896(3) 1. 0 0 
Se6 Se2- 2 a 0.5 0.3263(4) 0.6062(3) 1. 0 0 
C1 C2+ 2 a 0.5 0.1719(40) 0.8118(34) 1. 0 0.022(8) 
N1 N3- 2 a 0.5 0.2417(27) 0.8844(24) 1. 0 0.012(6) 
C2 C2+ 4 b 0.2431(19) 0.7058(27) 0.6098(20) 1. 0 0.015(6) 
N2 N3- 4 b 0.1627(18) 0.6294(20) 0.6289(18) 1. 0 0.019(5) 
C3 C2+ 4 b 0.241(2) 0.2748(26) 0.4815(21) 1. 0 0.015(6) 
N3 N3- 4 b 0.156(2) 0.3478(23) 0.4735(21) 1. 0 0.032(6) 
C4 C2+ 2 a 0.5 0.8090(31) 0.2823(24) 1. 0 0.002(6) 
N4 N3- 2 a 0.5 0.7348(30) 0.2101(24) 1. 0 0.019(7) 
Na1 Na1+ 2 a 0 0.4631(13) 0.5689(10) 1. 0 0 
Cs1 Cs1+ 4 b 0.2394(2) 0.5610(1) 0.3033(2) 1. 0 0 
Cs2 Cs1+ 2 a 0 0.9636(3) 0.5655(2) 1. 0 0 

loop_
_atom_site_aniso_label
_atom_site_aniso_type_symbol
_atom_site_aniso_U_11
_atom_site_aniso_U_22
_atom_site_aniso_U_33
_atom_site_aniso_U_12
_atom_site_aniso_U_13
_atom_site_aniso_U_23
Re1 Re3+ 0.010(1) 0.009(1) 0.007(1) 0 0 -.001(1)
Re2 Re3+ 0.009(1) 0.009(1) 0.008(1) -.001(1) 0.000(1) 0.001(1)
Re3 Re3+ 0.010(1) 0.008(1) 0.007(1) 0.002(1) 0.000(1) 0.001(1)
Re4 Re3+ 0.008(1) 0.009(1) 0.006(1) 0 0 0.001(1)
Se1 Se2- 0.011(1) 0.014(1) 0.010(1) -.002(1) -.003(1) -.001(1)
Se2 Se2- 0.014(2) 0.017(2) 0.009(2) 0 0 0.003(2)
Se3 Se2- 0.010(1) 0.017(1) 0.009(1) 0.000(1) 0.002(1) -.001(1)
Se4 Se2- 0.017(2) 0.011(2) 0.008(2) 0 0 0.002(1)
Se5 Se2- 0.016(2) 0.008(1) 0.014(2) 0 0 0.000(1)
Se6 Se2- 0.019(2) 0.009(1) 0.013(2) 0 0 0.000(1)
Na1 Na1+ 0.008(5) 0.023(6) 0.027(9) 0 0 -.008(6)
Cs1 Cs1+ 0.032(1) 0.018(1) 0.027(1) 0.002(1) 0.003(1) 0.000(1)
Cs2 Cs1+ 0.015(1) 0.056(2) 0.041(2) 0 0 -.032(2)
#End of data_86650-ICSD


