data_260964-ICSD
#?2014 by Fachinformationszentrum Karlsruhe, and the U.S. Secretary of 
#Commerce on behalf of the United States.  All rights reserved.
_database_code_ICSD                260964
_audit_creation_date               2011/02/01
_chemical_name_systematic          'Sodium Octahydrotriborate'
_chemical_formula_structural       'Na B3 H8'
_chemical_formula_sum              'H8 B3 Na1'
_publ_section_title
;
A simple and efficient way to synthesize unsolvated sodium 
octahydrotriborate
;
loop_
_citation_id
_citation_journal_abbrev
_citation_year
_citation_journal_volume
_citation_journal_issue
_citation_page_first
_citation_page_last
_citation_journal_id_ASTM
primary 'Inorganic Chemistry' 2010 49 18 8185 8187 INOCAJ
_publ_author_name
;
Huang Zhenguo;King, G.;Chen Xuenian;Hoy, J.;Yisgedu T.;Lingham, 
H.K.;Shore, S.G.;Woodward, P.M.;Zhao Jicheng
;
_cell_length_a                     7.9244(1)
_cell_length_b                     4.7507(1)
_cell_length_c                     5.8046(1)
_cell_angle_alpha                  90.
_cell_angle_beta                   90.
_cell_angle_gamma                  90.
_cell_volume                       218.52
_cell_formula_units_Z              2
_symmetry_space_group_name_H-M     'P m m n S'
_symmetry_Int_Tables_number        59
_refine_ls_R_factor_all            .0318
loop_
_symmetry_equiv_pos_site_id
_symmetry_equiv_pos_as_xyz
  1	'x+.5, -y+.5, -z'
  2	'x+.5, y+.5, -z'
  3	'x, -y, z'
  4	'-x, y, z'
  5	'-x+.5, y+.5, -z'
  6	'-x+.5, -y+.5, -z'
  7	'-x, -y, z'
  8	'x, y, z'
loop_
_atom_type_symbol
_atom_type_oxidation_number
B2.33+	2.33
H1-	-1
Na1+	1
loop_
_atom_site_label
_atom_site_type_symbol
_atom_site_symmetry_multiplicity
_atom_site_Wyckoff_symbol
_atom_site_fract_x
_atom_site_fract_y
_atom_site_fract_z
_atom_site_occupancy
_atom_site_attached_hydrogens
_atom_site_B_iso_or_equiv
Na1 Na1+ 2 a 0 0 0.9249(4) 1. 0 6.0(1) 
B1 B2.33+ 2 b 0 0.5 0.513(1) 1. 0 6.3(2) 
B2 B2.33+ 4 f 0.3868(5) 0 0.7597(8) 1. 0 4.1(2) 
H1 H1- 4 f 0.345(3) 0 0.582(5) 1. 0 4.6(4) 
H2 H1- 4 e 0 0.731(4) 0.560(4) 1. 0 4.6(4) 
H3 H1- 8 g 0.156(2) 0.295(3) 0.180(3) 1. 0 4.6(4) 

#End of data_260964-ICSD


