data_420877-ICSD
#?2014 by Fachinformationszentrum Karlsruhe, and the U.S. Secretary of 
#Commerce on behalf of the United States.  All rights reserved.
_database_code_ICSD                420877
_audit_creation_date               2010/08/01
_chemical_name_systematic
;
Dipraseodymium(III) Magnesioiridate(IV)
;
_chemical_formula_structural       'Pr2 (Mg Ir O6)'
_chemical_formula_sum              'Ir1 Mg1 O6 Pr2'
_publ_section_title
;
Crystal growth, structure and magnetic properties of the double 
perovskites Ln2 Mg Ir O6 (Ln = Pr, Nd, Sm-Gd)
;
loop_
_citation_id
_citation_journal_abbrev
_citation_year
_citation_journal_volume
_citation_journal_issue
_citation_page_first
_citation_page_last
_citation_journal_id_ASTM
primary 'Journal of Solid State Chemistry' 2010 183 2 465 470 JSSCBI
_publ_author_name
;
Mugavero III, S.J.;Fox, A.H.;Smith, M.D.;zur Loye, H.C.
;
_cell_length_a                     5.5017(2)
_cell_length_b                     5.6576(2)
_cell_length_c                     7.8306(3)
_cell_angle_alpha                  90.00
_cell_angle_beta                   90.006(2)
_cell_angle_gamma                  90.00
_cell_volume                       243.74
_cell_formula_units_Z              2
_symmetry_space_group_name_H-M     'P 1 21/n 1'
_symmetry_Int_Tables_number        14
_refine_ls_R_factor_all            .0296
loop_
_symmetry_equiv_pos_site_id
_symmetry_equiv_pos_as_xyz
  1	'-x+.5, y+.5, -z+.5'
  2	'-x, -y, -z'
  3	'x+.5, -y+.5, z+.5'
  4	'x, y, z'
loop_
_atom_type_symbol
_atom_type_oxidation_number
Ir4+	4
Mg2+	2
O2-	-2
Pr3+	3
loop_
_atom_site_label
_atom_site_type_symbol
_atom_site_symmetry_multiplicity
_atom_site_Wyckoff_symbol
_atom_site_fract_x
_atom_site_fract_y
_atom_site_fract_z
_atom_site_occupancy
_atom_site_attached_hydrogens
_atom_site_U_iso_or_equiv
Ir1 Ir4+ 2 b 0.5000 0.5000 0.0000 1 0 0.00795(8) 
Pr1 Pr3+ 4 e 0.48779(8) 0.05283(6) 0.25041(6) 1 0 0.01036(9) 
Mg1 Mg2+ 2 a 0.0000 0.0000 0.0000 1 0 0.0077(5) 
O1 O2- 4 e 0.2039(13) 0.2987(12) 0.0471(8) 1 0 0.0107(11) 
O2 O2- 4 e 0.5899(10) 0.4734(9) 0.2470(8) 1 0 0.0120(9) 
O3 O2- 4 e 0.3015(14) 0.7925(12) 0.0476(8) 1 0 0.0122(11) 

loop_
_atom_site_aniso_label
_atom_site_aniso_type_symbol
_atom_site_aniso_U_11
_atom_site_aniso_U_22
_atom_site_aniso_U_33
_atom_site_aniso_U_12
_atom_site_aniso_U_13
_atom_site_aniso_U_23
Ir1 Ir4+ 0.00785(14) 0.00712(13) 0.00888(12) 0.00003(11) 0.0000(3) 
-0.00011(11)
Pr1 Pr3+ 0.01023(15) 0.00977(15) 0.01109(14) -0.00085(17) 0.0030(3) 
0.00003(9)
O1 O2- 0.011(2) 0.006(2) 0.015(3) -0.003(2) 0.006(2) -0.0018(19)
O2 O2- 0.013(2) 0.016(2) 0.007(2) -0.0021(16) 0.0038(19) 0.000(3)
O3 O2- 0.015(3) 0.009(2) 0.012(3) 0.001(3) 0.002(2) -0.0011(19)
#End of data_420877-ICSD


