data_93372-ICSD
#?2014 by Fachinformationszentrum Karlsruhe, and the U.S. Secretary of 
#Commerce on behalf of the United States.  All rights reserved.
_database_code_ICSD                93372
_audit_creation_date               2003/04/01
_chemical_name_systematic          'Cesium Bismuth Disilver Sulfide'
_chemical_formula_structural       'Cs Bi Ag2 S3'
_chemical_formula_sum              'Ag2 Bi1 Cs1 S3'
_publ_section_title
;
Syntheses and structures of the quaternary alkali-metal bismuth 
coinage-metal chalcogenides K3 Bi5 Cu2 S10, Cs Bi2 Cu S4, Rb Bi2.66 
Cu Se5 and Cs Bi Ag2 S3
;
loop_
_citation_id
_citation_journal_abbrev
_citation_year
_citation_journal_volume
_citation_page_first
_citation_page_last
_citation_journal_id_ASTM
primary 'Journal of Alloys and Compounds' 2001 325 84 90 JALCEU
_publ_author_name
;
Huang, F.-Q.;Mitchell, K.;Ibers, J.A.
;
_cell_length_a                     13.352(1)
_cell_length_b                     8.1052(8)
_cell_length_c                     6.9162(7)
_cell_angle_alpha                  90
_cell_angle_beta                   99.766(2)
_cell_angle_gamma                  90
_cell_volume                       737.63
_cell_formula_units_Z              4
_symmetry_space_group_name_H-M     'P 1 21/c 1'
_symmetry_Int_Tables_number        14
_refine_ls_R_factor_all            .024
loop_
_symmetry_equiv_pos_site_id
_symmetry_equiv_pos_as_xyz
  1	'x, -y+.5, z+.5'
  2	'-x, -y, -z'
  3	'-x, y+.5, -z+.5'
  4	'x, y, z'
loop_
_atom_type_symbol
_atom_type_oxidation_number
Ag1+	1
Bi3+	3
Cs1+	1
S2-	-2
loop_
_atom_site_label
_atom_site_type_symbol
_atom_site_symmetry_multiplicity
_atom_site_Wyckoff_symbol
_atom_site_fract_x
_atom_site_fract_y
_atom_site_fract_z
_atom_site_occupancy
_atom_site_attached_hydrogens
_atom_site_U_iso_or_equiv
Cs1 Cs1+ 4 e 0.17700(3) 0.61667(4) 0.31435(5) 1. 0 0.0164(1) 
Bi1 Bi3+ 4 e 0.50148(2) 0.36633(2) 0.24285(2) 1. 0 0.0108(1) 
Ag1 Ag1+ 4 e 0.08347(3) 0.25206(5) 0.02886(6) 1. 0 0.0174(1) 
Ag2 Ag1+ 4 e 0.26609(4) 0.13515(5) 0.34742(7) 1. 0 0.0199(1) 
S1 S2- 4 e 0.0868(1) 0.0456(2) 0.2778(2) 1. 0 0.0152(3) 
S2 S2- 4 e 0.3754(1) 0.1406(2) 0.0480(2) 1. 0 0.0113(3) 
S3 S2- 4 e 0.3793(1) 0.6298(2) 0.0423(2) 1. 0 0.0115(3) 

#End of data_93372-ICSD


