data_26406-ICSD
#?2014 by Fachinformationszentrum Karlsruhe, and the U.S. Secretary of 
#Commerce on behalf of the United States.  All rights reserved.
_database_code_ICSD                26406
_audit_creation_date               1981/12/31
_audit_update_record               2006/04/01
_chemical_name_systematic          'Pentasodium Aluminium Oxide'
_chemical_formula_structural       'Na5 Al O4'
_chemical_formula_sum              'Al1 Na5 O4'
_publ_section_title
;
Preparation and crystal structures of the first alkali-rich sodium 
aluminates Na7 Al3 O8 and Na5 Al O4
;
loop_
_citation_id
_citation_journal_abbrev
_citation_year
_citation_journal_volume
_citation_page_first
_citation_page_last
_citation_journal_id_ASTM
primary 'Journal of the Chemical Society. Chemical Communications (1972-)'
 1981 1981 379 381 JCCCAT
2
;
Journal of the Chemical Society. Dalton Transactions, Inorganic 
Chemistry (1972-)
;
 1984 1984 1139 1146 JCDTBI
_publ_author_name
;
Barker, M.G.;Gadd, P.G.;Begley, M.J.
;
_cell_length_a                     5.894
_cell_length_b                     17.87
_cell_length_c                     10.095
_cell_angle_alpha                  90.
_cell_angle_beta                   90.
_cell_angle_gamma                  90.
_cell_volume                       1063.26
_cell_formula_units_Z              8
_symmetry_space_group_name_H-M     'P b c a'
_symmetry_Int_Tables_number        61
_refine_ls_R_factor_all            .034
loop_
_symmetry_equiv_pos_site_id
_symmetry_equiv_pos_as_xyz
  1	'x+.5, y, -z+.5'
  2	'x, -y+.5, z+.5'
  3	'-x+.5, y+.5, z'
  4	'-x, -y, -z'
  5	'-x+.5, -y, z+.5'
  6	'-x, y+.5, -z+.5'
  7	'x+.5, -y+.5, -z'
  8	'x, y, z'
loop_
_atom_type_symbol
_atom_type_oxidation_number
Al3+	3
Na1+	1
O2-	-2
loop_
_atom_site_label
_atom_site_type_symbol
_atom_site_symmetry_multiplicity
_atom_site_Wyckoff_symbol
_atom_site_fract_x
_atom_site_fract_y
_atom_site_fract_z
_atom_site_occupancy
_atom_site_attached_hydrogens
Na1 Na1+ 8 c 0.8940(4) 0.1734(1) 0.6732(2) 1. 0 
Na2 Na1+ 8 c 1.0897(4) 0.0643(1) 0.9383(2) 1. 0 
Na3 Na1+ 8 c 0.9121(4) 0.0011(1) 1.3397(2) 1. 0 
Na4 Na1+ 8 c 0.8950(4) 0.2503(1) 0.9166(3) 1. 0 
Al1 Al3+ 8 c 0.6787(3) 0.12417(9) 1.0391(2) 1. 0 
O1 O2- 8 c 0.7652(6) 0.1266(2) 0.8697(3) 1. 0 
O2 O2- 8 c 0.8037(6) 0.0487(2) 1.1258(4) 1. 0 
O3 O2- 8 c 0.7642(6) 0.2079(2) 1.1223(4) 1. 0 
Na5 Na1+ 8 c 0.0836(4) 0.1372(1) 0.1986(2) 1. 0 
O4 O2- 8 c 0.3805(6) 0.1192(2) 0.0458(4) 1. 0 

loop_
_atom_site_aniso_label
_atom_site_aniso_type_symbol
_atom_site_aniso_U_11
_atom_site_aniso_U_22
_atom_site_aniso_U_33
_atom_site_aniso_U_12
_atom_site_aniso_U_13
_atom_site_aniso_U_23
Na1 Na1+ 0.016(1) 0.014(1) 0.013(1) 0.006(1) 0.001(1) 0.0005(9)
Na2 Na1+ 0.011(1) 0.012(1) 0.024(1) 0.0024(9) -.003(1) -.007(1)
Na3 Na1+ 0.018(1) 0.015(1) 0.017(1) -.003(1) -.003(1) 0.001(1)
Na4 Na1+ 0.016(1) 0.013(1) 0.021(1) -.006(1) 0.004(1) -.002(1)
Al1 Al3+ 0.0042(7) 0.0063(7) 0.0090(7) -.0011(7) -.0007(6) -.0005(7)
O1 O2- 0.009(2) 0.013(2) 0.009(2) -.001(2) 0.004(2) 0.001(2)
O2 O2- 0.008(2) 0.008(2) 0.018(2) -.001(2) -.003(2) 0.004(2)
O3 O2- 0.008(2) 0.007(2) 0.011(2) 0.000(1) -.001(2) -.001(2)
Na5 Na1+ 0.009(1) 0.018(1) 0.015(1) -.0006(9) -.002(1) -.002(1)
O4 O2- 0.003(2) 0.012(2) 0.014(2) 0.001(2) -.002(2) 0.001(2)
#End of data_26406-ICSD


