data_31005-ICSD
#?2014 by Fachinformationszentrum Karlsruhe, and the U.S. Secretary of 
#Commerce on behalf of the United States.  All rights reserved.
_database_code_ICSD                31005
_audit_creation_date               1980/01/01
_audit_update_record               2010/02/01
_chemical_name_systematic          'Trimagnesium Bis(phosphate(V))'
_chemical_formula_structural       'Mg3 (P O4)2'
_chemical_formula_sum              'Mg3 O8 P2'
_chemical_name_mineral             Farringtonite
_publ_section_title
;
The crystal structure of Mg3 (P O4)2
;
loop_
_citation_id
_citation_journal_abbrev
_citation_year
_citation_journal_volume
_citation_page_first
_citation_page_last
_citation_journal_id_ASTM
primary 'Acta Chemica Scandinavica (1-27,1973-42,1988)' 1968 22 1466 1474 ACSAA4
_publ_author_name                  'Nord, A.G.;Kierkegaard, P.'
_cell_length_a                     7.5957(8)
_cell_length_b                     8.2305(5)
_cell_length_c                     5.0775(5)
_cell_angle_alpha                  90.
_cell_angle_beta                   94.05(1)
_cell_angle_gamma                  90.
_cell_volume                       316.63
_cell_formula_units_Z              2
_symmetry_space_group_name_H-M     'P 1 21/n 1'
_symmetry_Int_Tables_number        14
_refine_ls_R_factor_all            .076
loop_
_symmetry_equiv_pos_site_id
_symmetry_equiv_pos_as_xyz
  1	'-x+.5, y+.5, -z+.5'
  2	'-x, -y, -z'
  3	'x+.5, -y+.5, z+.5'
  4	'x, y, z'
loop_
_atom_type_symbol
_atom_type_oxidation_number
Mg2+	2
O2-	-2
P5+	5
loop_
_atom_site_label
_atom_site_type_symbol
_atom_site_symmetry_multiplicity
_atom_site_Wyckoff_symbol
_atom_site_fract_x
_atom_site_fract_y
_atom_site_fract_z
_atom_site_occupancy
_atom_site_attached_hydrogens
_atom_site_B_iso_or_equiv
Mg1 Mg2+ 4 e 0.6095(3) 0.1432(3) 0.0920(8) 1. 0 0.47 
Mg2 Mg2+ 2 b 0 0 0.5 1. 0 0.37 
P1 P5+ 4 e 0.1996(2) 0.1946(2) 0.0355(6) 1. 0 0.33 
O1 O2- 4 e 0.0589(6) 0.1446(6) 0.8188(18) 1. 0 0.51 
O2 O2- 4 e 0.1262(6) 0.1995(6) 0.3036(16) 1. 0 0.56 
O3 O2- 4 e 0.2592(6) 0.3629(6) 0.9470(16) 1. 0 0.37 
O4 O2- 4 e 0.3545(6) 0.0759(6) 0.0459(16) 1. 0 0.27 

#End of data_31005-ICSD


