data_174524-ICSD
#?2014 by Fachinformationszentrum Karlsruhe, and the U.S. Secretary of 
#Commerce on behalf of the United States.  All rights reserved.
_database_code_ICSD                174524
_audit_creation_date               2011/02/01
_audit_update_record               2013/08/01
_chemical_name_systematic
;
Diantimony Ditelluride Bromide Tetrachloroaluminate
;
_chemical_formula_structural       '(Sb2 Te2 Br) (Al Cl4)'
_chemical_formula_sum              'Al1 Br1 Cl4 Sb2 Te2'
_publ_section_title
;
Synthesis in ionic liquids: [Bi2 Te2 Br] (Al Cl4), a direct gap 
semiconductor with a cationic framework
;
loop_
_citation_id
_citation_journal_abbrev
_citation_year
_citation_journal_volume
_citation_journal_issue
_citation_page_first
_citation_page_last
_citation_journal_id_ASTM
primary 'Journal of the American Chemical Society' 2010 132 42 14760 14762 JACSAT
_publ_author_name
;
Biswas, K.;Zhang Qichun;Chung In;Song Jungh Wan;Androulakis, 
J.;Freeman, A.J.;Kanatzidis, M.G.
;
_cell_length_a                     21.216(4)
_cell_length_b                     8.2816(17)
_cell_length_c                     13.126(3)
_cell_angle_alpha                  90.00
_cell_angle_beta                   98.71(3)
_cell_angle_gamma                  90.00
_cell_volume                       2279.67
_cell_formula_units_Z              8
_symmetry_space_group_name_H-M     'C 1 2/c 1'
_symmetry_Int_Tables_number        15
_refine_ls_R_factor_all            .0245
loop_
_symmetry_equiv_pos_site_id
_symmetry_equiv_pos_as_xyz
  1	'x, -y, z+.5'
  2	'-x, -y, -z'
  3	'-x, y, -z+.5'
  4	'x, y, z'
  5	'x+.5, -y+.5, z+.5'
  6	'-x+.5, -y+.5, -z'
  7	'-x+.5, y+.5, -z+.5'
  8	'x+.5, y+.5, z'
loop_
_atom_type_symbol
_atom_type_oxidation_number
Al3+	3
Br1-	-1
Cl1-	-1
Sb3+	3
Te2-	-2
loop_
_atom_site_label
_atom_site_type_symbol
_atom_site_symmetry_multiplicity
_atom_site_Wyckoff_symbol
_atom_site_fract_x
_atom_site_fract_y
_atom_site_fract_z
_atom_site_occupancy
_atom_site_attached_hydrogens
_atom_site_U_iso_or_equiv
Te1 Te2- 8 f 0.070982(13) 0.12653(6) 0.45721(2) 1 0 0.00960(11) 
Te2 Te2- 8 f -0.076290(14 0.37648(6) 0.53793(2) 1 0 0.01020(11) 
Sb1 Sb3+ 8 f -0.063968(14 0.12262(6) 0.39054(2) 1 0 0.01109(11) 
Sb2 Sb3+ 8 f 0.059418(15) 0.37275(6) 0.60982(2) 1 0 0.01138(11) 
Br1 Br1- 4 e 0.0000 0.37488(14) 0.2500 1 0 0.01721(16) 
Br2 Br1- 4 e 0.0000 0.12449(14) 0.7500 1 0 0.01726(16) 
Cl1 Cl1- 8 f -0.20412(6) -0.34101(13) 0.41480(10) 1 0 0.0183(3) 
Cl2 Cl1- 8 f -0.21045(6) 0.08603(13) 0.42302(9) 1 0 0.0181(3) 
Al1 Al3+ 8 f -0.23204(6) -0.12444(18) 0.32799(11) 1 0 0.0139(3) 
Cl3 Cl1- 8 f -0.17108(6) -0.1170(3) 0.21339(9) 1 0 0.0220(3) 
Cl4 Cl1- 8 f -0.33229(5) -0.1294(3) 0.27691(9) 1 0 0.0200(3) 

loop_
_atom_site_aniso_label
_atom_site_aniso_type_symbol
_atom_site_aniso_U_11
_atom_site_aniso_U_22
_atom_site_aniso_U_33
_atom_site_aniso_U_12
_atom_site_aniso_U_13
_atom_site_aniso_U_23
Te1 Te2- 0.01012(16) 0.00776(17) 0.01123(17) -0.00048(15) 0.00265(11) 
-0.00009(17)
Te2 Te2- 0.01107(16) 0.00736(16) 0.01283(17) -0.00026(15) 0.00393(11) 
0.00005(17)
Sb1 Sb3+ 0.01297(18) 0.00780(17) 0.01163(18) -0.00006(16) -0.00093(12) 
0.00017(19)
Sb2 Sb3+ 0.01434(18) 0.00787(17) 0.01142(18) -0.00015(16) 0.00024(12) 
-0.00007(19)
Br1 Br1- 0.0197(4) 0.0151(3) 0.0172(3) 0.000 0.0042(3) 0.000
Br2 Br1- 0.0215(4) 0.0144(3) 0.0167(3) 0.000 0.0055(3) 0.000
Cl1 Cl1- 0.0160(5) 0.0149(7) 0.0242(6) 0.0011(4) 0.0038(4) 0.0034(5)
Cl2 Cl1- 0.0155(5) 0.0159(7) 0.0230(6) -0.0013(4) 0.0031(4) -0.0028(4)
Al1 Al3+ 0.0085(6) 0.0147(6) 0.0183(7) -0.0009(6) 0.0013(5) -0.0002(6)
Cl3 Cl1- 0.0183(6) 0.0277(7) 0.0213(6) -0.0017(7) 0.0075(5) -0.0005(7)
Cl4 Cl1- 0.0094(5) 0.0246(6) 0.0248(6) -0.0001(6) -0.0016(4) 0.0013(7)
#End of data_174524-ICSD


