data_71792-ICSD
#?2014 by Fachinformationszentrum Karlsruhe, and the U.S. Secretary of 
#Commerce on behalf of the United States.  All rights reserved.
_database_code_ICSD                71792
_audit_creation_date               1993/08/22
_audit_update_record               2003/04/01
_chemical_name_systematic
;
Dipotassium Tricopper Oxide Tris(sulfate(VI))
;
_chemical_formula_structural       'K2 Cu3 O (S O4)3'
_chemical_formula_sum              'Cu3 K2 O13 S3'
_chemical_name_mineral             Fedotovite
_publ_section_title
;
The crystal structure of fedotovite, K2 Cu3 O (S O4)3
;
loop_
_citation_id
_citation_journal_abbrev
_citation_year
_citation_journal_volume
_citation_page_first
_citation_page_last
_citation_journal_id_ASTM
primary 'Mineralogical Magazine (1969-)' 1991 55 613 616 MNLMBB
_publ_author_name
;
Starova, G.L.;Filatov, S.K.;Fundamenskii, V.S.;Vergasova, L.P.
;
_cell_length_a                     19.0370(60)
_cell_length_b                     9.479(2)
_cell_length_c                     14.231(5)
_cell_angle_alpha                  90.
_cell_angle_beta                   111.04(3)
_cell_angle_gamma                  90.
_cell_volume                       2396.8
_cell_formula_units_Z              8
_symmetry_space_group_name_H-M     'C 1 2/c 1'
_symmetry_Int_Tables_number        15
_refine_ls_R_factor_all            .07
loop_
_symmetry_equiv_pos_site_id
_symmetry_equiv_pos_as_xyz
  1	'x, -y, z+.5'
  2	'-x, -y, -z'
  3	'-x, y, -z+.5'
  4	'x, y, z'
  5	'x+.5, -y+.5, z+.5'
  6	'-x+.5, -y+.5, -z'
  7	'-x+.5, y+.5, -z+.5'
  8	'x+.5, y+.5, z'
loop_
_atom_type_symbol
_atom_type_oxidation_number
Cu2+	2
K1+	1
O2-	-2
S6+	6
loop_
_atom_site_label
_atom_site_type_symbol
_atom_site_symmetry_multiplicity
_atom_site_Wyckoff_symbol
_atom_site_fract_x
_atom_site_fract_y
_atom_site_fract_z
_atom_site_occupancy
_atom_site_attached_hydrogens
Cu1 Cu2+ 8 f 0.48071(4) 0.01816(7) 0.34265(5) 1. 0 
Cu2 Cu2+ 8 f 0.48587(4) 0.47738(8) 0.14018(5) 1. 0 
Cu3 Cu2+ 8 f 0.42119(4) 0.74635(7) 0.20615(6) 1. 0 
S1 S6+ 8 f 0.50646(9) 0.7505(1) 0.4904(1) 1. 0 
S2 S6+ 8 f 0.64724(9) 0.0261(2) 0.3652(1) 1. 0 
S3 S6+ 8 f 0.35139(9) 0.4648(1) 0.2120(1) 1. 0 
K1 K1+ 8 f 0.32573(9) 0.7519(2) 0.4388(2) 1. 0 
K2 K1+ 8 f 0.1957(1) 0.7346(2) 0.1249(2) 1. 0 
O1 O2- 4 e 0.5 0.8908(5) 0.25 1. 0 
O2 O2- 8 f 0.4501(3) 0.8269(5) 0.4066(3) 1. 0 
O3 O2- 8 f 0.5620(3) 0.6771(5) 0.4582(3) 1. 0 
O4 O2- 8 f 0.4636(3) 0.6480(4) 0.5267(3) 1. 0 
O5 O2- 8 f 0.5891(3) 0.0572(6) 0.4098(4) 1. 0 
O6 O2- 8 f 0.4051(3) 0.4394(5) 0.3183(4) 1. 0 
O7 O2- 8 f 0.3385(3) 0.6195(5) 0.2000(4) 1. 0 
O8 O2- 8 f 0.2803(3) 0.3966(5) 0.2007(4) 1. 0 
O9 O2- 8 f 0.5478(3) 0.8504(3) 0.5706(3) 1. 0 
O10 O2- 8 f 0.6215(3) 0.0720(6) 0.2585(4) 1. 0 
O11 O2- 8 f 0.3844(3) 0.4150(6) 0.1403(4) 1. 0 
O12 O2- 4 e 0.5 0.6045(5) 0.25 1. 0 
O13 O2- 8 f 0.6606(3) 0.8707(5) 0.3699(4) 1. 0 
O14 O2- 8 f 0.7169(3) 0.0959(5) 0.4243(4) 1. 0 

loop_
_atom_site_aniso_label
_atom_site_aniso_type_symbol
_atom_site_aniso_B_11
_atom_site_aniso_B_22
_atom_site_aniso_B_33
_atom_site_aniso_B_12
_atom_site_aniso_B_13
_atom_site_aniso_B_23
Cu1 Cu2+ 1.60(3) 1.32(2) 1.11(2) 0.05(2) 0.58(2) -.18(2)
Cu2 Cu2+ 1.51(3) 1.52(2) 1.17(2) -.06(2) 0.55(2) -.35(2)
Cu3 Cu2+ 1.18(3) 1.14(2) 1.76(3) 0.01(2) 0.42(2) 0.08(2)
S1 S6+ 1.98(5) 1.20(4) 0.89(4) 0.01(4) 0.72(4) 0.01(3)
S2 S6+ 1.51(3) 1.37(4) 1.56(5) 0.19(4) 0.38(4) 0.12(4)
S3 S6+ 1.32(5) 1.44(5) 1.82(5) -.17(4) 0.62(4) 0.08(4)
K1 K1+ 1.66(6) 3.16(7) 3.45(7) 0.46(5) 0.44(5) -.02(6)
K2 K1+ 1.73(6) 4.35(9) 3.92(8) 0.56(6) 0.66(6) -.73(7)
O1 O2- 1.4(2) 1.1(2) 0.9(2) 0 0.5(2) 0
O2 O2- 2.0(2) 1.9(2) 1.56(15) 0.10(14) 0.71(14) 0.45(13)
O3 O2- 2.6(2) 1.8(2) 1.5(2) -.11(15) 1.18(15) 0.42(13)
O4 O2- 2.3(2) 1.6(2) 1.6(2) 0.08(15) 0.74(15) -.46(13)
O5 O2- 1.7(2) 2.9(2) 2.1(2) -.2(2) 0.53(15) -.9(2)
O6 O2- 1.9(2) 2.5(2) 1.8(2) -.1(2) 0.56(15) -.72(15)
O7 O2- 1.4(2) 1.7(2) 3.9(2) 0.04(14) 0.7(2) 0.3(2)
O8 O2- 1.8(2) 2.3(2) 3.1(2) 0.7(2) 1.0(2) 0.1(2)
O9 O2- 1.9(2) 1.53(15) 1.9(2) -.05(14) 0.72(14) -.54(13)
O10 O2- 2.1(2) 2.9(2) 1.8(2) 0.6(2) 0.5(2) -.6(2)
O11 O2- 2.2(2) 2.9(2) 2.3(2) -.9(2) 1.3(2) -.8(2)
O12 O2- 1.1(2) 1.0(2) 1.4(2) 0 0.4(2) 0
O13 O2- 1.6(2) 1.6(2) 3.2(2) 0.16(14) -.1(2) 0.11(15)
O14 O2- 1.7(2) 2.2(2) 2.4(2) 0.5(2) 0.3(2) 0.2(2)
#End of data_71792-ICSD


