data_188311-ICSD
#?2014 by Fachinformationszentrum Karlsruhe, and the U.S. Secretary of 
#Commerce on behalf of the United States.  All rights reserved.
_database_code_ICSD                188311
_audit_creation_date               2014/02/01
_chemical_name_systematic          'Potassium Chlorate(V)'
_chemical_formula_structural       'K (Cl O3)'
_chemical_formula_sum              'Cl1 K1 O3'
_publ_section_title
;
Pressure induced structural phase transition in solid oxidizer K Cl 
O3 : A first - principles study
;
loop_
_citation_id
_citation_journal_abbrev
_citation_year
_citation_journal_volume
_citation_journal_issue
_citation_page_first
_citation_page_last
_citation_journal_id_ASTM
primary 'Journal of Chemical Physics' 2013 138 17 174701-1 174701-8 JCPSA6
_publ_author_name
;
Yedukondalu, N.;Ghule, Vikas D.;Vaitheeswaran, G.
;
_cell_length_a                     4.1789
_cell_length_b                     4.1789
_cell_length_c                     4.1789
_cell_angle_alpha                  84.95
_cell_angle_beta                   84.95
_cell_angle_gamma                  84.95
_cell_volume                       72.17
_cell_formula_units_Z              1
_symmetry_space_group_name_H-M     'R 3 m R'
_symmetry_Int_Tables_number        160
loop_
_symmetry_equiv_pos_site_id
_symmetry_equiv_pos_as_xyz
  1	'z, y, x'
  2	'z, x, y'
  3	'x, z, y'
  4	'y, z, x'
  5	'y, x, z'
  6	'x, y, z'
loop_
_atom_type_symbol
_atom_type_oxidation_number
Cl5+	5
K1+	1
O2-	-2
loop_
_atom_site_label
_atom_site_type_symbol
_atom_site_symmetry_multiplicity
_atom_site_Wyckoff_symbol
_atom_site_fract_x
_atom_site_fract_y
_atom_site_fract_z
_atom_site_occupancy
_atom_site_attached_hydrogens
K1 K1+ 1 a 0 0 0 1. 0 
Cl1 Cl5+ 1 a 0.4747 0.4747 0.4747 1. 0 
O1 O2- 3 b 0.5434 0.5434 0.1176 1. 0 

#End of data_188311-ICSD


