data_280478-ICSD
#?2014 by Fachinformationszentrum Karlsruhe, and the U.S. Secretary of 
#Commerce on behalf of the United States.  All rights reserved.
_database_code_ICSD                280478
_audit_creation_date               2002/04/01
_chemical_name_systematic
;
Octacalcium Tetrakis(digallosilicate) Octahydroxide
;
_chemical_formula_structural       'Ca8 (Ga2 Si O6)4 (O H)8'
_chemical_formula_sum              'H8 Ca8 Ga8 O32 Si4'
_chemical_name_mineral             Gallobicchulite
_publ_section_title
;
Structure of gallobicchulite. A combined EXAFS/neutron powder 
diffraction refinement
;
loop_
_citation_id
_citation_journal_abbrev
_citation_year
_citation_journal_volume
_citation_page_first
_citation_page_last
_citation_journal_id_ASTM
primary 'Acta Crystallographica, Section B: Structural Science'
 1998 54 558 563 ASBSDK
_publ_author_name
;
Binsted, N.;Dann, S.E.;Pack, M.J.;Weller, M.T.
;
_cell_length_a                     8.9345(1)
_cell_length_b                     8.9345(1)
_cell_length_c                     8.9345(1)
_cell_angle_alpha                  90.
_cell_angle_beta                   90.
_cell_angle_gamma                  90.
_cell_volume                       713.2
_cell_formula_units_Z              1
_symmetry_space_group_name_H-M     'I -4'
_symmetry_Int_Tables_number        82
loop_
_symmetry_equiv_pos_site_id
_symmetry_equiv_pos_as_xyz
  1	'-y, x, -z'
  2	'y, -x, -z'
  3	'-x, -y, z'
  4	'x, y, z'
  5	'-y+.5, x+.5, -z+.5'
  6	'y+.5, -x+.5, -z+.5'
  7	'-x+.5, -y+.5, z+.5'
  8	'x+.5, y+.5, z+.5'
loop_
_atom_type_symbol
_atom_type_oxidation_number
Ca2+	2
Ga3+	3
H1+	1
O2-	-2
Si4+	4
loop_
_atom_site_label
_atom_site_type_symbol
_atom_site_symmetry_multiplicity
_atom_site_Wyckoff_symbol
_atom_site_fract_x
_atom_site_fract_y
_atom_site_fract_z
_atom_site_occupancy
_atom_site_attached_hydrogens
Ga1 Ga3+ 8 g 0.5 0.246(1) 0 1. 0 
Si1 Si4+ 2 c 0 0.5 0.25 1. 0 
Si2 Si4+ 2 d 0 0.5 0.75 1. 0 
O1 O2- 8 g 0.4146(9) 0.1266(5) 0.1422(7) 1. 0 
O2 O2- 8 g 0.1513(10) 0.1513(10) 0.4094(16) 1. 0 
O3 O2- 8 g 0.1266(5) 0.4146(9) 0.1422(7) 1. 0 
Ca1 Ca2+ 8 g 0.1415(3) 0.1415(3) 0.1415(3) 1. 0 
O4 O2- 8 g 0.3835(3) 0.3835(3) 0.3835(3) 1. 0 
H1 H1+ 8 g 0.351(2) 0.3112(11) 0.3112(11) 1. 0 

#End of data_280478-ICSD


