data_20800-ICSD
#?2014 by Fachinformationszentrum Karlsruhe, and the U.S. Secretary of 
#Commerce on behalf of the United States.  All rights reserved.
_database_code_ICSD                20800
_audit_creation_date               1984/11/20
_audit_update_record               2012/08/01
_chemical_name_systematic
;
Neodymium Trialuminium Tetrakis(borate)
;
_chemical_formula_structural       'Nd Al3 (B O3)4'
_chemical_formula_sum              'Al3 B4 Nd1 O12'
_publ_section_title
;
The crystal structure of the hightemperature monoclinic modification 
of Na, Al-borate Nd Al3 (B O3)4
;
loop_
_citation_id
_citation_journal_abbrev
_citation_year
_citation_journal_volume
_citation_page_first
_citation_page_last
_citation_journal_id_ASTM
primary 'Doklady Akademii Nauk SSSR' 1980 255 854 858 DANKAS
2 'Zeitschrift fuer Kristallographie (1979-2010)' 1979 149 162 162 ZEKRDZ
3 'Phase Transition' 1992 38 127 220 PHTRDP
_publ_author_name
;
Belokoneva, E.L.;Simonov, M.A.;Pashkova, A.V.;Timchenko, T.I.;Belov, 
N.V.
;
_cell_length_a                     7.262(3)
_cell_length_b                     9.365(3)
_cell_length_c                     11.138(7)
_cell_angle_alpha                  90.
_cell_angle_beta                   103.41(4)
_cell_angle_gamma                  90.
_cell_volume                       736.83
_cell_formula_units_Z              4
_symmetry_space_group_name_H-M     'C 1 2/c 1'
_symmetry_Int_Tables_number        15
_refine_ls_R_factor_all            .045
loop_
_symmetry_equiv_pos_site_id
_symmetry_equiv_pos_as_xyz
  1	'x, -y, z+.5'
  2	'-x, -y, -z'
  3	'-x, y, -z+.5'
  4	'x, y, z'
  5	'x+.5, -y+.5, z+.5'
  6	'-x+.5, -y+.5, -z'
  7	'-x+.5, y+.5, -z+.5'
  8	'x+.5, y+.5, z'
loop_
_atom_type_symbol
_atom_type_oxidation_number
Al3+	3
B3+	3
Nd3+	3
O2-	-2
loop_
_atom_site_label
_atom_site_type_symbol
_atom_site_symmetry_multiplicity
_atom_site_Wyckoff_symbol
_atom_site_fract_x
_atom_site_fract_y
_atom_site_fract_z
_atom_site_occupancy
_atom_site_attached_hydrogens
Nd1 Nd3+ 4 e 0 0.03746(3) 0.25 1. 0 
Al1 Al3+ 4 e 0 0.5894(2) 0.25 1. 0 
Al2 Al3+ 8 f 0.0577(3) 0.2506(1) 0.5288(2) 1. 0 
B1 B3+ 8 f 0.1938(6) 0.3144(4) 0.2224(4) 1. 0 
B2 B3+ 8 f 0.2516(6) 0.0281(4) 0.0057(4) 1. 0 
O1 O2- 8 f 0.1877(4) 0.5417(3) 0.7418(3) 1. 0 
O2 O2- 8 f 0.2492(4) 0.1194(3) 0.4961(3) 1. 0 
O3 O2- 8 f 0.0604(4) 0.2434(3) 0.1376(2) 1. 0 
O4 O2- 8 f 0.4047(4) 0.1025(3) 0.0744(2) 1. 0 
O5 O2- 8 f 0.3399(4) 0.2370(3) 0.2944(2) 1. 0 
O6 O2- 8 f 0.4045(4) 0.4009(3) 0.0625(2) 1. 0 

loop_
_atom_site_aniso_label
_atom_site_aniso_type_symbol
_atom_site_aniso_B_11
_atom_site_aniso_B_22
_atom_site_aniso_B_33
_atom_site_aniso_B_12
_atom_site_aniso_B_13
_atom_site_aniso_B_23
Nd1 Nd3+ 0.31(1) 0.25(1) 0.30(1) 0 0.1 0
Al1 Al3+ 0.18(4) 0.15(4) 0.16(4) 0 0.06(3) 0
Al2 Al3+ 0.19(3) 0.15(3) 0.12(3) 0.00(2) 0.04(2) -.01(2)
B1 B3+ 0.34(9) 0.26(9) 0.36(9) 0.11(8) -.03(7) 0.03(7)
B2 B3+ 0.38(9) 0.14(8) 0.45(9) 0.03(8) 0.04(8) 0.02(8)
O1 O2- 0.38(6) 0.16(6) 0.72(7) -.09(5) 0.22(6) -.01(6)
O2 O2- 0.37(6) 0.10(5) 0.59(7) 0.01(5) 0.18(5) 0.05(5)
O3 O2- 0.37(7) 0.44(7) 0.21(6) -.15(5) -.08(5) 0.00(5)
O4 O2- 0.33(6) 0.23(6) 0.21(5) -.17(5) -.02(5) 0.01(5)
O5 O2- 0.37(7) 0.30(6) 0.22(6) 0.21(5) -.07(5) -.01(5)
O6 O2- 0.32(6) 0.26(6) 0.35(6) 0.14(5) -.03(5) -.07(5)
#End of data_20800-ICSD


