data_250265-ICSD
#?2014 by Fachinformationszentrum Karlsruhe, and the U.S. Secretary of 
#Commerce on behalf of the United States.  All rights reserved.
_database_code_ICSD                250265
_audit_creation_date               2005/10/01
_chemical_name_systematic          'Potassium Dilead Chloride'
_chemical_formula_structural       'K Pb2 Cl5'
_chemical_formula_sum              'Cl5 K1 Pb2'
_publ_section_title
;
Single crystal study of K Pb2 Cl5 and K Pb2 Br5
;
loop_
_citation_id
_citation_journal_abbrev
_citation_year
_citation_journal_volume
_citation_page_first
_citation_page_last
_citation_journal_id_ASTM
primary 'Zhurnal Strukturnoi Khimii (Issue-No. from 1981)'
 2005 46 106 110 ZSTKAI
_publ_author_name
;
Merkulov, A.A.;Isaenko, L.I.;Pashkov, V.M.;Mazur, V.G.;Virovets, 
A.V.;Naumov, D.Yu.
;
_cell_length_a                     8.854(2)
_cell_length_b                     7.927(2)
_cell_length_c                     12.485(3)
_cell_angle_alpha                  90
_cell_angle_beta                   90.05(3)
_cell_angle_gamma                  90
_cell_volume                       876.27
_cell_formula_units_Z              4
_symmetry_space_group_name_H-M     'P 1 21/c 1'
_symmetry_Int_Tables_number        14
_refine_ls_R_factor_all            .0702
loop_
_symmetry_equiv_pos_site_id
_symmetry_equiv_pos_as_xyz
  1	'x, -y+.5, z+.5'
  2	'-x, -y, -z'
  3	'-x, y+.5, -z+.5'
  4	'x, y, z'
loop_
_atom_type_symbol
_atom_type_oxidation_number
Cl1-	-1
K1+	1
Pb2+	2
loop_
_atom_site_label
_atom_site_type_symbol
_atom_site_symmetry_multiplicity
_atom_site_Wyckoff_symbol
_atom_site_fract_x
_atom_site_fract_y
_atom_site_fract_z
_atom_site_occupancy
_atom_site_attached_hydrogens
_atom_site_U_iso_or_equiv
K1 K1+ 4 e 0.5092(5) 0.0514(6) 0.1696(4) 1. 0 0.038(1) 
Pb1 Pb2+ 4 e 0.0065(1) 0.0058(1) 0.1742(1) 1. 0 0.030(1) 
Pb2 Pb2+ 4 e 0.2547(1) 0.4359(1) 0.9937(1) 1. 0 0.027(1) 
Cl1 Cl1- 4 e 0.9585(4) 0.1655(5) 0.4023(3) 1. 0 0.028(1) 
Cl2 Cl1- 4 e 0.2218(4) 0.0405(4) 0.9986(3) 1. 0 0.028(1) 
Cl3 Cl1- 4 e 0.5401(5) 0.1798(6) 0.4186(4) 1. 0 0.036(1) 
Cl4 Cl1- 4 e 0.2355(5) 0.3117(5) 0.2204(3) 1. 0 0.030(1) 
Cl5 Cl1- 4 e 0.7702(6) 0.3449(5) 0.1885(3) 1. 0 0.036(1) 

loop_
_atom_site_aniso_label
_atom_site_aniso_type_symbol
_atom_site_aniso_U_11
_atom_site_aniso_U_22
_atom_site_aniso_U_33
_atom_site_aniso_U_12
_atom_site_aniso_U_13
_atom_site_aniso_U_23
K1 K1+ 0.033(1) 0.039(2) 0.042(2) 0.007(2) 0.001(1) -0.005(1)
Pb1 Pb2+ 0.036 0.029 0.025 -0.002 0.002 0.001
Pb2 Pb2+ 0.027 0.028 0.025 0.001 0.001 0.001
Cl1 Cl1- 0.030(1) 0.024(1) 0.030(1) -0.003(1) 0.000(1) 0.004(1)
Cl2 Cl1- 0.035(1) 0.028(1) 0.020(1) 0.000(1) 0.002(1) 0.000(1)
Cl3 Cl1- 0.028(1) 0.033(1) 0.047(1) 0.000(1) 0.003(1) 0.016(1)
Cl4 Cl1- 0.036(2) 0.029(1) 0.025(1) 0.003(1) 0.003(1) -0.002(1)
Cl5 Cl1- 0.049(2) 0.034(2) 0.025(1) -0.010(2) -0.009(1) 0.005(1)
#End of data_250265-ICSD


