data_160321-ICSD
#?2014 by Fachinformationszentrum Karlsruhe, and the U.S. Secretary of 
#Commerce on behalf of the United States.  All rights reserved.
_database_code_ICSD                160321
_audit_creation_date               2008/08/01
_chemical_name_systematic          'Dilithium Copper Diphosphate(V)'
_chemical_formula_structural       'Li2 Cu (P2 O7)'
_chemical_formula_sum              'Cu1 Li2 O7 P2'
_publ_section_title
;
Structure, thermal and magnetic characterization of hydrothermal 
synthesized Li2 Cu P2 O7 crystals
;
loop_
_citation_id
_citation_journal_abbrev
_citation_year
_citation_journal_volume
_citation_page_first
_citation_page_last
_citation_journal_id_ASTM
primary 'Materials Research Bulletin' 2008 43 1171 1178 MRBUAC
_publ_author_name
;
Gopalakrishna, G.S.;Mahesh, M.J.;Ashamanjari, K.G.;Shashidara Prasad, 
J.
;
_cell_length_a                     15.3360(14)
_cell_length_b                     4.8733(13)
_cell_length_c                     8.6259(16)
_cell_angle_alpha                  90.
_cell_angle_beta                   114.795(10)
_cell_angle_gamma                  90.
_cell_volume                       585.24
_cell_formula_units_Z              4
_symmetry_space_group_name_H-M     'C 1 2/c 1'
_symmetry_Int_Tables_number        15
_refine_ls_R_factor_all            .0746
loop_
_symmetry_equiv_pos_site_id
_symmetry_equiv_pos_as_xyz
  1	'x, -y, z+.5'
  2	'-x, -y, -z'
  3	'-x, y, -z+.5'
  4	'x, y, z'
  5	'x+.5, -y+.5, z+.5'
  6	'-x+.5, -y+.5, -z'
  7	'-x+.5, y+.5, -z+.5'
  8	'x+.5, y+.5, z'
loop_
_atom_type_symbol
_atom_type_oxidation_number
Cu2+	2
Li1+	1
O2-	-2
P5+	5
loop_
_atom_site_label
_atom_site_type_symbol
_atom_site_symmetry_multiplicity
_atom_site_Wyckoff_symbol
_atom_site_fract_x
_atom_site_fract_y
_atom_site_fract_z
_atom_site_occupancy
_atom_site_attached_hydrogens
_atom_site_U_iso_or_equiv
Cu1 Cu2+ 4 a 0 0 0 1. 0 0.0162(3) 
O1 O2- 8 f -0.1020(2) 0.2262(6) -0.1567(3) 1. 0 0.0186(6) 
O2 O2- 8 f 0.0984(2) 0.1544(6) -0.0578(4) 1. 0 0.0189(6) 
O3 O2- 8 f 0.1792(2) -0.5752(6) 0.3889(4) 1. 0 0.0180(5) 
O4 O2- 4 e 0 -0.5313(7) 0.250 1. 0 0.0152(7) 
P1 P5+ 8 f 0.10128(6) -0.3664(2) 0.3146(1) 1. 0 0.0129(3) 
Li1 Li1+ 8 f 0.3090(5) -0.6415(1) 0.4454(1) 1. 0 0.0190(1) 

#End of data_160321-ICSD


