data_25020-ICSD
#?2014 by Fachinformationszentrum Karlsruhe, and the U.S. Secretary of 
#Commerce on behalf of the United States.  All rights reserved.
_database_code_ICSD                25020
_audit_creation_date               1980/01/01
_audit_update_record               2006/04/01
_chemical_name_systematic          'Disodium Platinate - Beta'
_chemical_formula_structural       'Na2 (Pt O3)'
_chemical_formula_sum              'Na2 O3 Pt1'
_publ_section_title
;
Zur Kenntnis der Oxoplatinate Na2 Pt O2, Na2 Pt O3, (K2 Pt O3) und 
(Rb2 Pt O3)
;
loop_
_citation_id
_citation_journal_abbrev
_citation_year
_citation_journal_volume
_citation_page_first
_citation_page_last
_citation_journal_id_ASTM
primary 'Zeitschrift fuer Anorganische und Allgemeine Chemie (1950) (DE)'
 1972 392 23 36 ZAACAB
2 'Phase Transition' 1992 38 127 220 PHTRDP
_publ_author_name                  'Urland, W.;Hoppe, R.'
_cell_length_a                     18.838
_cell_length_b                     6.282
_cell_length_c                     9.062
_cell_angle_alpha                  90.
_cell_angle_beta                   90.
_cell_angle_gamma                  90.
_cell_volume                       1072.4
_cell_formula_units_Z              16
_symmetry_space_group_name_H-M     'F d d d S'
_symmetry_Int_Tables_number        70
_refine_ls_R_factor_all            .0809
loop_
_symmetry_equiv_pos_site_id
_symmetry_equiv_pos_as_xyz
  1	'x+.25, y+.25, -z+.25'
  2	'-x+.25, y+.25, z+.25'
  3	'-x, -y, z'
  4	'x, -y, -z'
  5	'x+.25, -y+.25, z+.25'
  6	'-x+.25, -y+.25, -z+.25'
  7	'-x, y, -z'
  8	'x, y, z'
  9	'x+.25, y+.75, -z+.75'
 10	'x+.75, y+.25, -z+.75'
 11	'x+.75, y+.75, -z+.25'
 12	'-x+.25, y+.75, z+.75'
 13	'-x+.75, y+.25, z+.75'
 14	'-x+.75, y+.75, z+.25'
 15	'-x, -y+.5, z+.5'
 16	'-x+.5, -y, z+.5'
 17	'-x+.5, -y+.5, z'
 18	'x, -y+.5, -z+.5'
 19	'x+.5, -y, -z+.5'
 20	'x+.5, -y+.5, -z'
 21	'x+.25, -y+.75, z+.75'
 22	'x+.75, -y+.25, z+.75'
 23	'x+.75, -y+.75, z+.25'
 24	'-x+.25, -y+.75, -z+.75'
 25	'-x+.75, -y+.25, -z+.75'
 26	'-x+.75, -y+.75, -z+.25'
 27	'-x, y+.5, -z+.5'
 28	'-x+.5, y, -z+.5'
 29	'-x+.5, y+.5, -z'
 30	'x, y+.5, z+.5'
 31	'x+.5, y, z+.5'
 32	'x+.5, y+.5, z'
loop_
_atom_type_symbol
_atom_type_oxidation_number
Na1+	1
O2-	-2
Pt4+	4
loop_
_atom_site_label
_atom_site_type_symbol
_atom_site_symmetry_multiplicity
_atom_site_Wyckoff_symbol
_atom_site_fract_x
_atom_site_fract_y
_atom_site_fract_z
_atom_site_occupancy
_atom_site_attached_hydrogens
_atom_site_B_iso_or_equiv
Na1 Na1+ 16 e 0.258(2) 0 0 1. 0 0.5 
Na2 Na1+ 16 e 0.579(2) 0 0 1. 0 0.4 
Pt1 Pt4+ 16 e 0.0838(2) 0 0 1. 0 -0.47 
O1 O2- 32 h 0.158(1) 0.216(4) 0.023(5) 1. 0 -0.5 
O2 O2- 16 f 0 0.211(8) 0 1. 0 1. 

#End of data_25020-ICSD


