data_200520-ICSD
#?2014 by Fachinformationszentrum Karlsruhe, and the U.S. Secretary of 
#Commerce on behalf of the United States.  All rights reserved.
_database_code_ICSD                200520
_audit_creation_date               1980/01/01
_audit_update_record               2003/04/01
_chemical_name_systematic
;
Lithium Praseodymium Bis(tungstate)
;
_chemical_formula_structural       'Li Pr (W O4)2'
_chemical_formula_sum              'Li1 O8 Pr1 W2'
_publ_section_title
;
Triclinic modification of lithium-rare earth tungstates Li Ln (W 
O4)2, where Ln is La-Sm
;
loop_
_citation_id
_citation_journal_abbrev
_citation_year
_citation_journal_volume
_citation_page_first
_citation_page_last
_citation_journal_id_ASTM
primary Kristallografiya 1979 24 446 454 KRISAJ
2 'Soviet Physics, Crystallography (= Kristallografiya)'
 1979 24 258 263 SPHCA6
3 'Phase Transition' 1992 38 127 220 PHTRDP
_publ_author_name
;
Klevtsova, R.F.;Kharchenko, L.Yu.;Borisov, S.V.;Efremov, 
V.A.;Klevtsov, P.V.
;
_cell_length_a                     7.467(3)
_cell_length_b                     8.030(4)
_cell_length_c                     7.089(2)
_cell_angle_alpha                  114.47(2)
_cell_angle_beta                   115.37(2)
_cell_angle_gamma                  56.23(2)
_cell_volume                       310.37
_cell_formula_units_Z              2
_symmetry_space_group_name_H-M     'P -1'
_symmetry_Int_Tables_number        2
_refine_ls_R_factor_all            .052
loop_
_symmetry_equiv_pos_site_id
_symmetry_equiv_pos_as_xyz
  1	'-x, -y, -z'
  2	'x, y, z'
loop_
_atom_type_symbol
_atom_type_oxidation_number
Li1+	1
O2-	-2
Pr3+	3
W6+	6
loop_
_atom_site_label
_atom_site_type_symbol
_atom_site_symmetry_multiplicity
_atom_site_Wyckoff_symbol
_atom_site_fract_x
_atom_site_fract_y
_atom_site_fract_z
_atom_site_occupancy
_atom_site_attached_hydrogens
_atom_site_B_iso_or_equiv
W1 W6+ 2 i 0.1834(1) 0.1041(1) 0.6455(1) 1. 0 0 
W2 W6+ 2 i 0.7306(1) 0.2958(1) 0.2581(1) 1. 0 0 
Pr1 Pr3+ 2 i 0.1714(1) 0.2839(1) 0.1811(1) 1. 0 0 
Li1 Li1+ 2 i 0.669(5) 0.319(4) 0.755(5) 1. 0 1.7 
O1 O2- 2 i 0.089(1) 0.168(1) 0.384(1) 1. 0 0.85 
O2 O2- 2 i 0.815(1) 0.172(1) 0.515(1) 1. 0 0.54 
O3 O2- 2 i 0.187(1) 0.009(1) 0.861(1) 1. 0 0.72 
O4 O2- 2 i 0.470(1) 0.013(1) 0.705(1) 1. 0 0.97 
O5 O2- 2 i 0.081(1) 0.357(1) 0.820(1) 1. 0 0.73 
O6 O2- 2 i 0.442(1) 0.364(1) 0.182(1) 1. 0 0.81 
O7 O2- 2 i 0.783(1) 0.304(1) 0.040(1) 1. 0 0.82 
O8 O2- 2 i 0.284(1) 0.466(1) 0.555(1) 1. 0 0.92 

loop_
_atom_site_aniso_label
_atom_site_aniso_type_symbol
_atom_site_aniso_B_11
_atom_site_aniso_B_22
_atom_site_aniso_B_33
_atom_site_aniso_B_12
_atom_site_aniso_B_13
_atom_site_aniso_B_23
W1 W6+ 0.05 0.04 0.145 0.1 0.02 -.07
W2 W6+ 0.075 0.09 0.14 0.12 0.03 -.075
Pr1 Pr3+ 0.085 0.11 0.17 0.095 0.055 -.115
#End of data_200520-ICSD


