data_16651-ICSD
#?2014 by Fachinformationszentrum Karlsruhe, and the U.S. Secretary of 
#Commerce on behalf of the United States.  All rights reserved.
_database_code_ICSD                16651
_audit_creation_date               1980/01/01
_audit_update_record               2012/08/01
_chemical_name_systematic          'Aluminium Phosphate(V)'
_chemical_formula_structural       'Al (P O4)'
_chemical_formula_sum              'Al1 O4 P1'
_publ_section_title
;
The crystal structure of aluminum phosphate and gallium phosphate, 
low-cristobalite type
;
loop_
_citation_id
_citation_journal_abbrev
_citation_year
_citation_journal_volume
_citation_page_first
_citation_page_last
_citation_journal_id_ASTM
primary 'Acta Crystallographica (1,1948-23,1967)' 1956 9 728 734 ACCRA9
2 'Phase Transition' 1992 38 127 220 PHTRDP
_publ_author_name                  'Mooney, R.C.L.'
_cell_length_a                     7.099(3)
_cell_length_b                     7.099(3)
_cell_length_c                     7.006(3)
_cell_angle_alpha                  90.
_cell_angle_beta                   90.
_cell_angle_gamma                  90.
_cell_volume                       353.07
_cell_formula_units_Z              4
_symmetry_space_group_name_H-M     'C 2 2 21'
_symmetry_Int_Tables_number        20
_refine_ls_R_factor_all            .11
loop_
_symmetry_equiv_pos_site_id
_symmetry_equiv_pos_as_xyz
  1	'-x, y, -z+.5'
  2	'-x, -y, z+.5'
  3	'x, -y, -z'
  4	'x, y, z'
  5	'-x+.5, y+.5, -z+.5'
  6	'-x+.5, -y+.5, z+.5'
  7	'x+.5, -y+.5, -z'
  8	'x+.5, y+.5, z'
loop_
_atom_type_symbol
_atom_type_oxidation_number
Al3+	3
O2-	-2
P5+	5
loop_
_atom_site_label
_atom_site_type_symbol
_atom_site_symmetry_multiplicity
_atom_site_Wyckoff_symbol
_atom_site_fract_x
_atom_site_fract_y
_atom_site_fract_z
_atom_site_occupancy
_atom_site_attached_hydrogens
P1 P5+ 4 a 0.306 0 0 1. 0 
Al1 Al3+ 4 b 0 0.198 0.25 1. 0 
O1 O2- 8 c 0.179 0.058 0.172 1. 0 
O2 O2- 8 c 0.433 0.17 0.941 1. 0 

#End of data_16651-ICSD


