data_180185-ICSD
#?2014 by Fachinformationszentrum Karlsruhe, and the U.S. Secretary of 
#Commerce on behalf of the United States.  All rights reserved.
_database_code_ICSD                180185
_audit_creation_date               2011/08/01
_chemical_name_systematic          'Dipotassium Dihafnate'
_chemical_formula_structural       'K2 (Hf2 O5)'
_chemical_formula_sum              'Hf2 K2 O5'
_publ_section_title
;
Crystal growth and structure determinations of hafnium hafnates: K2 
Hf2 O5 and K4 Hf5 O12
;
loop_
_citation_id
_citation_journal_abbrev
_citation_year
_citation_journal_volume
_citation_page_first
_citation_page_last
_citation_journal_id_ASTM
primary 'Materials Research Bulletin' 2011 46 166 169 MRBUAC
_publ_author_name
;
Zhao Qingbiao;Bugaris, D.E.;Stackhouse, C.A.;Smith, M.D.;zur Loye, 
H.C
;
_cell_length_a                     5.780(1)
_cell_length_b                     10.640(2)
_cell_length_c                     8.666(2)
_cell_angle_alpha                  90.
_cell_angle_beta                   90.
_cell_angle_gamma                  90.
_cell_volume                       532.95
_cell_formula_units_Z              4
_symmetry_space_group_name_H-M     'P n n a'
_symmetry_Int_Tables_number        52
_refine_ls_R_factor_all            .0216
loop_
_symmetry_equiv_pos_site_id
_symmetry_equiv_pos_as_xyz
  1	'x+.5, -y+.5, z+.5'
  2	'-x, y+.5, z+.5'
  3	'x+.5, y, -z'
  4	'-x, -y, -z'
  5	'-x+.5, y+.5, -z+.5'
  6	'x, -y+.5, -z+.5'
  7	'-x+.5, -y, z'
  8	'x, y, z'
loop_
_atom_type_symbol
_atom_type_oxidation_number
Hf4+	4
K1+	1
O2-	-2
loop_
_atom_site_label
_atom_site_type_symbol
_atom_site_symmetry_multiplicity
_atom_site_Wyckoff_symbol
_atom_site_fract_x
_atom_site_fract_y
_atom_site_fract_z
_atom_site_occupancy
_atom_site_attached_hydrogens
_atom_site_U_iso_or_equiv
K1 K1+ 8 e 0.4334(2) 0.3334(1) 0.0753(2) 1. 0 0.0262(3) 
Hf1 Hf4+ 8 e 0.96799(4) 0.07618(2) 0.15958(2) 1. 0 0.0080(1) 
O1 O2- 8 e 0.1275(6) 0.3932(4) 0.5502(4) 1. 0 0.0111(6) 
O2 O2- 4 c 0.250 0 0.2548(6) 1. 0 0.0106(9) 
O3 O2- 4 c 0.250 0 0.6765(6) 1. 0 0.012(1) 
O4 O2- 4 d 0.005(1) 0.250 0.250 1. 0 0.015(1) 

#End of data_180185-ICSD


