data_99688-ICSD
#?2014 by Fachinformationszentrum Karlsruhe, and the U.S. Secretary of 
#Commerce on behalf of the United States.  All rights reserved.
_database_code_ICSD                99688
_audit_creation_date               2005/04/01
_chemical_name_systematic          'Silver Dioxoaluminate - Beta'
_chemical_formula_structural       'Ag (Al O2)'
_chemical_formula_sum              'Ag1 Al1 O2'
_publ_section_title
;
Structure of beta - Ag Al O2 and structural systematics of 
tetrahedral M M' X2 compounds
;
loop_
_citation_id
_citation_journal_abbrev
_citation_year
_citation_journal_volume
_citation_page_first
_citation_page_last
_citation_journal_id_ASTM
primary 'Journal of Solid State Chemistry' 2004 177 889 894 JSSCBI
_publ_author_name                  'Li, J.;Sleight, A.W.'
_cell_length_a                     5.4306(1)
_cell_length_b                     6.9802(1)
_cell_length_c                     5.3751(1)
_cell_angle_alpha                  90
_cell_angle_beta                   90
_cell_angle_gamma                  90
_cell_volume                       203.75
_cell_formula_units_Z              4
_symmetry_space_group_name_H-M     'P n a 21'
_symmetry_Int_Tables_number        33
_refine_ls_R_factor_all            .0469
loop_
_symmetry_equiv_pos_site_id
_symmetry_equiv_pos_as_xyz
  1	'x+.5, -y+.5, z'
  2	'-x+.5, y+.5, z+.5'
  3	'-x, -y, z+.5'
  4	'x, y, z'
loop_
_atom_type_symbol
_atom_type_oxidation_number
Ag1+	1
Al3+	3
O2-	-2
loop_
_atom_site_label
_atom_site_type_symbol
_atom_site_symmetry_multiplicity
_atom_site_Wyckoff_symbol
_atom_site_fract_x
_atom_site_fract_y
_atom_site_fract_z
_atom_site_occupancy
_atom_site_attached_hydrogens
_atom_site_U_iso_or_equiv
Ag1 Ag1+ 4 a 0.0532(4) 0.6268(4) 0.9968(7) 1. 0 0.0140(5) 
Al1 Al3+ 4 a 0.0610(5) 0.1250(6) 0.0000(0) 1. 0 0.0059(6) 
O1 O2- 4 a 0.0311(3) 0.0723(3) 0.3208(8) 1. 0 0.0087(4) 
O2 O2- 4 a 0.1283(3) 0.6765(3) 0.4344(7) 1. 0 0.0080(4) 

loop_
_atom_site_aniso_label
_atom_site_aniso_type_symbol
_atom_site_aniso_U_11
_atom_site_aniso_U_22
_atom_site_aniso_U_33
_atom_site_aniso_U_12
_atom_site_aniso_U_13
_atom_site_aniso_U_23
Ag1 Ag1+ .0173(9) .0118(8) .0140(9) -.0023(8) -.0023(9) -.0014(7)
Al1 Al3+ .008(2) .006(1) .007(1) -.003(1) -.001(1) .001(1)
O1 O2- .0112(9) .0104(8) .0064(7) -.0006(9) -.0008(9) .0002(8)
O2 O2- .0078(8) .0061(8) .0105(8) -.0021(7) -.0005(8) .0005(7)
#End of data_99688-ICSD


