data_191128-ICSD
#?2014 by Fachinformationszentrum Karlsruhe, and the U.S. Secretary of 
#Commerce on behalf of the United States.  All rights reserved.
_database_code_ICSD                191128
_audit_creation_date               2014/08/01
_chemical_name_systematic          'Disodium Diyttrium Oxide Diborate'
_chemical_formula_structural       'Na2 Y2 O (B O3)2'
_chemical_formula_sum              'B2 Na2 O7 Y2'
_publ_section_title
;
Structure and photoluminescence properties of Na2 Y2 B2 O7 : 
Ce(3+),Tb(3+) phosphors for solid-state lighting application
;
loop_
_citation_id
_citation_journal_abbrev
_citation_year
_citation_journal_volume
_citation_page_first
_citation_page_last
_citation_journal_id_ASTM
primary 'Journal of Solid State Chemistry' 2014 213 65 71 JSSCBI
_publ_author_name
;
Wen, Dawei;Yang, Hui;Yang, Guanhui;Shi, Jianxin;Wu, Mingmei;Su, Qiang
;
_cell_length_a                     10.5708
_cell_length_b                     6.2148
_cell_length_c                     10.1969
_cell_angle_alpha                  90.
_cell_angle_beta                   117.7580
_cell_angle_gamma                  90.
_cell_volume                       592.8
_cell_formula_units_Z              4
_symmetry_space_group_name_H-M     'P 1 21/c 1'
_symmetry_Int_Tables_number        14
loop_
_symmetry_equiv_pos_site_id
_symmetry_equiv_pos_as_xyz
  1	'x, -y+.5, z+.5'
  2	'-x, -y, -z'
  3	'-x, y+.5, -z+.5'
  4	'x, y, z'
loop_
_atom_type_symbol
_atom_type_oxidation_number
B3+	3
Na1+	1
O2-	-2
Y3+	3
loop_
_atom_site_label
_atom_site_type_symbol
_atom_site_symmetry_multiplicity
_atom_site_Wyckoff_symbol
_atom_site_fract_x
_atom_site_fract_y
_atom_site_fract_z
_atom_site_occupancy
_atom_site_attached_hydrogens
Y1 Y3+ 4 e 0.17942 0.08584 0.09051 1. 0 
Y2 Y3+ 4 e 0.98636 0.45828 0.18186 1. 0 
Na1 Na1+ 4 e 0.53885 -0.05207 0.26045 1. 0 
Na2 Na1+ 4 e 0.61615 0.2591 0.04447 1. 0 
O1 O2- 4 e 0.96696 0.15853 0.10004 1. 0 
O2 O2- 4 e 0.31201 -0.25626 0.13193 1. 0 
O3 O2- 4 e 0.16393 0.25081 0.36563 1. 0 
O4 O2- 4 e 0.15769 0.46468 0.06918 1. 0 
O5 O2- 4 e 0.37863 0.16745 0.05922 1. 0 
O6 O2- 4 e 0.86242 0.22933 0.28326 1. 0 
O7 O2- 4 e 0.37237 0.15976 0.33056 1. 0 
B1 B3+ 4 e 0.33199 0.24036 -0.08699 1. 0 
B2 B3+ 4 e 0.20391 -0.26796 0.15699 1. 0 

#End of data_191128-ICSD


