data_415861-ICSD
#?2014 by Fachinformationszentrum Karlsruhe, and the U.S. Secretary of 
#Commerce on behalf of the United States.  All rights reserved.
_database_code_ICSD                415861
_audit_creation_date               2007/04/01
_chemical_name_systematic          'Dirubidium Tetrachlorozincate'
_chemical_formula_structural       'Rb2 (Zn Cl4)'
_chemical_formula_sum              'Cl4 Rb2 Zn1'
_publ_section_title
;
Modulated structure of Rb2 Zn Cl4 in the soliton regime close to the 
lock-in phase transition
;
loop_
_citation_id
_citation_journal_abbrev
_citation_year
_citation_journal_volume
_citation_page_first
_citation_page_last
_citation_journal_id_ASTM
primary 'Physical Review, Serie 3. B - Condensed Matter (18,1978-)'
 2006 73 014112-1 014112-15 PRBMDO
_publ_author_name
;
Aramburu, I.;Friese, K.;Perez-Mato, J.M.;Morgenroth, W.;Aroyo, 
M.;Breczewski, T.;Madariaga, G.
;
_cell_length_a                     7.241(3)
_cell_length_b                     12.648(5)
_cell_length_c                     9.216(3)
_cell_angle_alpha                  90.
_cell_angle_beta                   90.
_cell_angle_gamma                  90.
_cell_volume                       844.04
_cell_formula_units_Z              4
_symmetry_space_group_name_H-M     'P m c n'
_symmetry_Int_Tables_number        62
_refine_ls_R_factor_all            .081
loop_
_symmetry_equiv_pos_site_id
_symmetry_equiv_pos_as_xyz
  1	'x, -y+.5, z+.5'
  2	'-x+.5, y, z'
  3	'x+.5, y+.5, -z+.5'
  4	'-x, -y, -z'
  5	'-x, y+.5, -z+.5'
  6	'x+.5, -y, -z'
  7	'-x+.5, -y+.5, z+.5'
  8	'x, y, z'
loop_
_atom_type_symbol
_atom_type_oxidation_number
Cl1-	-1
Rb1+	1
Zn2+	2
loop_
_atom_site_label
_atom_site_type_symbol
_atom_site_symmetry_multiplicity
_atom_site_Wyckoff_symbol
_atom_site_fract_x
_atom_site_fract_y
_atom_site_fract_z
_atom_site_occupancy
_atom_site_attached_hydrogens
_atom_site_U_iso_or_equiv
Rb1 Rb1+ 4 c 0.250 0.40618(20) 0.6299(2) 1. 0 0.0499(8) 
Rb2 Rb1+ 4 c 0.250 0.81938(12) 0.48683(19) 1. 0 0.0307(6) 
Zn1 Zn2+ 4 c 0.250 0.42184(12) 0.22307(18) 1. 0 0.0236(6) 
Cl1 Cl1- 4 c 0.250 0.4195(3) -0.0179(4) 1. 0 0.0445(14) 
Cl2 Cl1- 4 c 0.250 0.5845(3) 0.3216(5) 1. 0 0.0427(13) 
Cl3 Cl1- 8 d 0.0026(4) 0.3388(3) 0.3108(4) 1. 0 0.0467(10) 

loop_
_atom_site_aniso_label
_atom_site_aniso_type_symbol
_atom_site_aniso_U_11
_atom_site_aniso_U_22
_atom_site_aniso_U_33
_atom_site_aniso_U_12
_atom_site_aniso_U_13
_atom_site_aniso_U_23
Rb1 Rb1+ 0.0496(14) 0.0740(17) 0.0249(11) 0.0000 0.0000 -0.0028(9)
Rb2 Rb1+ 0.0398(11) 0.0253(11) 0.0272(12) 0.0000 0.0000 -0.0003(6)
Zn1 Zn2+ 0.0230(10) 0.0241(10) 0.0238(10) 0.0000 0.0000 0.0007(6)
Cl1 Cl1- 0.074(3) 0.039(2) 0.020(2) 0.000 0.000 -0.0054(15)
Cl2 Cl1- 0.069(3) 0.031(2) 0.027(2) 0.000 0.000 -0.0053(16)
Cl3 Cl1- 0.0307(15) 0.064(2) 0.0458(16) -0.0186(15) -0.0020(13) 0.0135(17)
#End of data_415861-ICSD


