data_180530-ICSD
#?2014 by Fachinformationszentrum Karlsruhe, and the U.S. Secretary of 
#Commerce on behalf of the United States.  All rights reserved.
_database_code_ICSD                180530
_audit_creation_date               2011/08/01
_chemical_name_systematic          'Potassium Iron Dioxide'
_chemical_formula_structural       'K Fe O2'
_chemical_formula_sum              'Fe1 K1 O2'
_publ_section_title
;
A neutron diffraction study of structural and magnetic 
transformations in A Fe O2  (A= K, Rb, Cs)
;
loop_
_citation_id
_citation_journal_abbrev
_citation_year
_citation_journal_volume
_citation_page_first
_citation_page_last
_citation_journal_id_ASTM
primary 'Journal of Physics: Condensed Matter' 2010 22 426001-1 426001-9 JCOMEL
_publ_author_name
;
Sheptyakov, D.;Ali, N.Z.;Jansen, M.
;
_cell_length_a                     5.6002(1)
_cell_length_b                     11.2602(2)
_cell_length_c                     15.9414(2)
_cell_angle_alpha                  90.
_cell_angle_beta                   90.
_cell_angle_gamma                  90.
_cell_volume                       1005.25
_cell_formula_units_Z              16
_symmetry_space_group_name_H-M     'P b c a'
_symmetry_Int_Tables_number        61
loop_
_symmetry_equiv_pos_site_id
_symmetry_equiv_pos_as_xyz
  1	'x+.5, y, -z+.5'
  2	'x, -y+.5, z+.5'
  3	'-x+.5, y+.5, z'
  4	'-x, -y, -z'
  5	'-x+.5, -y, z+.5'
  6	'-x, y+.5, -z+.5'
  7	'x+.5, -y+.5, -z'
  8	'x, y, z'
loop_
_atom_type_symbol
_atom_type_oxidation_number
Fe3+	3
K1+	1
O2-	-2
loop_
_atom_site_label
_atom_site_type_symbol
_atom_site_symmetry_multiplicity
_atom_site_Wyckoff_symbol
_atom_site_fract_x
_atom_site_fract_y
_atom_site_fract_z
_atom_site_occupancy
_atom_site_attached_hydrogens
_atom_site_B_iso_or_equiv
K1 K1+ 8 c 0.745(2) 0.5095(10) 0.4357(11) 1. 0 1.76(10) 
K2 K1+ 8 c 0.3039(14) 0.2370(11) 0.684(1) 1. 0 1.76(10) 
Fe1 Fe3+ 8 c 0.7537(7) 0.0084(4) 0.1884(4) 1. 0 0.85(33) 
Fe2 Fe3+ 8 c 0.7842(5) 0.2352(3) 0.5648(4) 1. 0 0.85(33) 
O1 O2- 8 c 0.4325(14) 0.9805(7) 0.2179(5) 1. 0 1.92(6) 
O2 O2- 8 c 0.8411(14) 0.9082(8) 0.1008(5) 1. 0 1.92(6) 
O3 O2- 8 c 0.7985(14) 0.1649(7) 0.1573(5) 1. 0 1.92(6) 
O4 O2- 8 c 0.5774(15) 0.2934(7) 0.4804(4) 1. 0 1.92(6) 

#End of data_180530-ICSD


