data_52609-ICSD
#?2014 by Fachinformationszentrum Karlsruhe, and the U.S. Secretary of 
#Commerce on behalf of the United States.  All rights reserved.
_database_code_ICSD                52609
_audit_creation_date               2003/04/01
_audit_update_record               2013/08/01
_chemical_name_systematic          'Silver Thallium Telluride'
_chemical_formula_structural       'Ag Tl Te'
_chemical_formula_sum              'Ag1 Te1 Tl1'
_publ_section_title                'Modifications structurales'
loop_
_citation_id
_citation_journal_abbrev
_citation_year
_citation_journal_volume
_citation_page_first
_citation_page_last
_citation_journal_id_ASTM
primary 'Journal of Physics and Chemistry of Solids' 1988 49 939 944 JPCSAW
2 'Golden Book of Phase Transitions, Wroclaw' 2002 1 1 123 GBOPT5
3 'Monatshefte fuer Chemie' 1980 111 1433 1436 MOCMB7
4 'Thermochimica Acta' 1990 165 93 101 THACAS
_publ_author_name
;
Ayral-Marin, R.M.;Liautard, B.;Maurin, M.;Tedenac, J.C.;Brun, G.
;
_cell_length_a                     8.754(2)
_cell_length_b                     4.854(1)
_cell_length_c                     7.750(2)
_cell_angle_alpha                  90.
_cell_angle_beta                   90.
_cell_angle_gamma                  90.
_cell_volume                       329.31
_cell_formula_units_Z              4
_symmetry_space_group_name_H-M     'P n m a'
_symmetry_Int_Tables_number        62
_refine_ls_R_factor_all            .046
loop_
_symmetry_equiv_pos_site_id
_symmetry_equiv_pos_as_xyz
  1	'x+.5, y, -z+.5'
  2	'x, -y+.5, z'
  3	'-x+.5, y+.5, z+.5'
  4	'-x, -y, -z'
  5	'-x+.5, -y, z+.5'
  6	'-x, y+.5, -z'
  7	'x+.5, -y+.5, -z+.5'
  8	'x, y, z'
loop_
_atom_type_symbol
_atom_type_oxidation_number
Ag1+	1
Te2-	-2
Tl1+	1
loop_
_atom_site_label
_atom_site_type_symbol
_atom_site_symmetry_multiplicity
_atom_site_Wyckoff_symbol
_atom_site_fract_x
_atom_site_fract_y
_atom_site_fract_z
_atom_site_occupancy
_atom_site_attached_hydrogens
Ag1 Ag1+ 4 c 0.1613 0.25 0.5794 1. 0 
Tl1 Tl1+ 4 c 0.4899 0.25 0.3254 1. 0 
Te1 Te2- 4 c 0.3141 0.25 0.8933 1. 0 

#End of data_52609-ICSD


