data_75142-ICSD
#?2014 by Fachinformationszentrum Karlsruhe, and the U.S. Secretary of 
#Commerce on behalf of the United States.  All rights reserved.
_database_code_ICSD                75142
_audit_creation_date               1995/10/17
_audit_update_record               2010/02/01
_chemical_name_systematic          'Sodium Aluminium Diarsenate(V)'
_chemical_formula_structural       'Na Al (As2 O7)'
_chemical_formula_sum              'Al1 As2 Na1 O7'
_publ_section_title
;
Structure cristalline de Na Al As2 O7
;
loop_
_citation_id
_citation_journal_abbrev
_citation_year
_citation_journal_volume
_citation_page_first
_citation_page_last
_citation_journal_id_ASTM
primary 'Journal of Solid State Chemistry' 1994 112 277 280 JSSCBI
_publ_author_name                  'Driss, A.;Jouini, T.'
_cell_length_a                     6.9114(7)
_cell_length_b                     8.1345(12)
_cell_length_c                     9.5446(10)
_cell_angle_alpha                  90.
_cell_angle_beta                   107.51(1)
_cell_angle_gamma                  90.
_cell_volume                       511.74
_cell_formula_units_Z              4
_symmetry_space_group_name_H-M     'P 1 21/c 1'
_symmetry_Int_Tables_number        14
_refine_ls_R_factor_all            .039
loop_
_symmetry_equiv_pos_site_id
_symmetry_equiv_pos_as_xyz
  1	'x, -y+.5, z+.5'
  2	'-x, -y, -z'
  3	'-x, y+.5, -z+.5'
  4	'x, y, z'
loop_
_atom_type_symbol
_atom_type_oxidation_number
Al3+	3
As5+	5
Na1+	1
O2-	-2
loop_
_atom_site_label
_atom_site_type_symbol
_atom_site_symmetry_multiplicity
_atom_site_Wyckoff_symbol
_atom_site_fract_x
_atom_site_fract_y
_atom_site_fract_z
_atom_site_occupancy
_atom_site_attached_hydrogens
As1 As5+ 4 e 0.5161(1) 0.4124(1) 0.2916(1) 1. 0 
As2 As5+ 4 e 0.9436(1) 0.5369(1) 0.2979(1) 1. 0 
Al1 Al3+ 4 e 0.2807(4) 0.2745(3) 0.4938(3) 1. 0 
Na1 Na1+ 4 e 0.8059(5) 0.1379(5) 0.4716(4) 1. 0 
O1 O2- 4 e 0.3753(8) 0.4092(7) 0.1177(6) 1. 0 
O2 O2- 4 e 0.5327(9) 0.5974(7) 0.3670(6) 1. 0 
O3 O2- 4 e 0.4804(9) 0.2567(7) 0.3961(6) 1. 0 
O4 O2- 4 e 0.7674(8) 0.3783(7) 0.2878(7) 1. 0 
O5 O2- 4 e 0.1651(8) 0.4422(7) 0.3539(6) 1. 0 
O6 O2- 4 e 0.9269(9) 0.6830(7) 0.4159(6) 1. 0 
O7 O2- 4 e 0.9002(9) 0.6066(7) 0.1261(6) 1. 0 

#End of data_75142-ICSD


