data_2409-ICSD
#?2014 by Fachinformationszentrum Karlsruhe, and the U.S. Secretary of 
#Commerce on behalf of the United States.  All rights reserved.
_database_code_ICSD                2409
_audit_creation_date               1980/01/01
_audit_update_record               2012/08/01
_chemical_name_systematic          'Pentacopper Dilithium Disilicate'
_chemical_formula_structural       'Li2 Cu5 (Si2 O7)2'
_chemical_formula_sum              'Cu5 Li2 O14 Si4'
_publ_section_title
;
The crystal structure of Li Cu5 (Si O7)2 and the proposal of new 
values for the effective ionic radii of Cu(2+)
;
loop_
_citation_id
_citation_journal_abbrev
_citation_year
_citation_journal_volume
_citation_page_first
_citation_page_last
_citation_journal_id_ASTM
primary 'Acta Crystallographica B (24,1968-38,1982)' 1978 34 3181 3185 ACBCAR
_publ_author_name
;
Kawamura, K.;Kawahara, A.;Iiyama, J.
;
_cell_length_a                     7.404(3)
_cell_length_b                     7.754(2)
_cell_length_c                     5.455(1)
_cell_angle_alpha                  90.52(2)
_cell_angle_beta                   106.27(3)
_cell_angle_gamma                  114.64(3)
_cell_volume                       270.4
_cell_formula_units_Z              1
_symmetry_space_group_name_H-M     'P -1'
_symmetry_Int_Tables_number        2
_refine_ls_R_factor_all            .04
loop_
_symmetry_equiv_pos_site_id
_symmetry_equiv_pos_as_xyz
  1	'-x, -y, -z'
  2	'x, y, z'
loop_
_atom_type_symbol
_atom_type_oxidation_number
Cu2+	2
Li1+	1
O2-	-2
Si4+	4
loop_
_atom_site_label
_atom_site_type_symbol
_atom_site_symmetry_multiplicity
_atom_site_Wyckoff_symbol
_atom_site_fract_x
_atom_site_fract_y
_atom_site_fract_z
_atom_site_occupancy
_atom_site_attached_hydrogens
Cu1 Cu2+ 1 a 0 0 0 1. 0 
Cu2 Cu2+ 2 i 0.6126(1) 0.1832(1) 0.9184(1) 1. 0 
Cu3 Cu2+ 2 i 0.4212(1) 0.2877(1) 0.3383(1) 1. 0 
Si1 Si4+ 2 i 0.7723(2) 0.1388(2) 0.5021(3) 1. 0 
Si2 Si4+ 2 i 0.2148(2) 0.4011(2) 0.7991(3) 1. 0 
Li1 Li1+ 2 i 0.1143(12) 0.4513(11) 0.2448(14) 1. 0 
O1 O2- 2 i 0.2251(6) 0.0175(5) 0.3053(7) 1. 0 
O2 O2- 2 i 0.6523(6) 0.0387(5) 0.2078(7) 1. 0 
O3 O2- 2 i 0.6606(6) 0.2615(5) 0.5886(7) 1. 0 
O4 O2- 2 i 0.1876(6) 0.2638(5) 0.0273(7) 1. 0 
O5 O2- 2 i 0.0160(5) 0.2834(5) 0.5353(7) 1. 0 
O6 O2- 2 i 0.8200(6) 0.4215(5) 0.1041(7) 1. 0 
O7 O2- 2 i 0.4146(4) 0.4527(5) 0.7047(7) 1. 0 

#End of data_2409-ICSD


