data_89587-ICSD
#?2014 by Fachinformationszentrum Karlsruhe, and the U.S. Secretary of 
#Commerce on behalf of the United States.  All rights reserved.
_database_code_ICSD                89587
_audit_creation_date               2002/04/01
_chemical_name_systematic
;
Tripotassium Catena-tetraselenodiferrate
;
_chemical_formula_structural       'K3 (Fe2 Se4)'
_chemical_formula_sum              'Fe2 K3 Se4'
_publ_section_title
;
K3 Fe Se3 und K3 Fe2 Se4, zwei neue Verbindungen im System K / Fe /Se
;
loop_
_citation_id
_citation_journal_abbrev
_citation_year
_citation_journal_volume
_citation_page_first
_citation_page_last
_citation_journal_id_ASTM
primary 'Zeitschrift fuer Anorganische und Allgemeine Chemie (1950) (DE)'
 1999 625 274 278 ZAACAB
_publ_author_name
;
Bronger, W.;Genin, H.S.;Mueller, P.
;
_cell_length_a                     7.433(2)
_cell_length_b                     11.341(3)
_cell_length_c                     12.016(3)
_cell_angle_alpha                  90.
_cell_angle_beta                   90.
_cell_angle_gamma                  90.
_cell_volume                       1012.92
_cell_formula_units_Z              4
_symmetry_space_group_name_H-M     'P n m a'
_symmetry_Int_Tables_number        62
_refine_ls_R_factor_all            .051
loop_
_symmetry_equiv_pos_site_id
_symmetry_equiv_pos_as_xyz
  1	'x+.5, y, -z+.5'
  2	'x, -y+.5, z'
  3	'-x+.5, y+.5, z+.5'
  4	'-x, -y, -z'
  5	'-x+.5, -y, z+.5'
  6	'-x, y+.5, -z'
  7	'x+.5, -y+.5, -z+.5'
  8	'x, y, z'
loop_
_atom_type_symbol
_atom_type_oxidation_number
Fe2.5+	2.5
K1+	1
Se2-	-2
loop_
_atom_site_label
_atom_site_type_symbol
_atom_site_symmetry_multiplicity
_atom_site_Wyckoff_symbol
_atom_site_fract_x
_atom_site_fract_y
_atom_site_fract_z
_atom_site_occupancy
_atom_site_attached_hydrogens
K1 K1+ 4 c 0.0807(9) 0.25 0.7649(5) 1. 0 
K2 K1+ 8 d 0.0690(6) 0.4274(5) 0.1367(4) 1. 0 
Fe1 Fe2.5+ 8 d 0.0529(3) 0.3763(3) 0.4678(2) 1. 0 
Se1 Se2- 8 d 0.1597(3) 0.5578(2) 0.3876(2) 1. 0 
Se2 Se2- 4 c 0.2968(3) 0.25 0.5334(3) 1. 0 
Se3 Se2- 4 c 0.4069(4) 0.25 0.1648(2) 1. 0 

loop_
_atom_site_aniso_label
_atom_site_aniso_type_symbol
_atom_site_aniso_U_11
_atom_site_aniso_U_22
_atom_site_aniso_U_33
_atom_site_aniso_U_12
_atom_site_aniso_U_13
_atom_site_aniso_U_23
K1 K1+ 0.012(3) 0.030(3) 0.021(3) 0 0.004(3) 0
K2 K1+ 0.022(2) 0.037(3) 0.025(2) 0.009(3) 0.002(2) 0.003(2)
Fe1 Fe2.5+ 0.010(1) 0.015(1) 0.017(1) -.002(1) 0.000(1) 0.000(1)
Se1 Se2- 0.0120(8) 0.0171(8) 0.0225(9) -.0010(9) 0.0056(8) 0.002(1)
Se2 Se2- 0.006(1) 0.023(1) 0.019(1) 0 -.001(1) 0
Se3 Se2- 0.015(1) 0.018(1) 0.019(1) 0 0.005(1) 0
#End of data_89587-ICSD


