data_35050-ICSD
#?2014 by Fachinformationszentrum Karlsruhe, and the U.S. Secretary of 
#Commerce on behalf of the United States.  All rights reserved.
_database_code_ICSD                35050
_audit_creation_date               1982/12/31
_chemical_name_systematic          'Copper(I) Tetrachloroaluminate'
_chemical_formula_structural       'Cu Al Cl4'
_chemical_formula_sum              'Al1 Cl4 Cu1'
_publ_section_title
;
Darstellung und Kristallstruktur von Kupfer(I)tetrachloro aluminat,Cu 
Al Cl4
;
loop_
_citation_id
_citation_journal_abbrev
_citation_year
_citation_journal_volume
_citation_page_first
_citation_page_last
_citation_journal_id_ASTM
primary
;
Zeitschrift fuer Naturforschung, Teil B. Anorganische Chemie, 
Organische Chemie (33,1978-41,1986)
;
 1982 37 1129 1131 ZNBAD2
_publ_author_name
;
Hildebrandt, K.;Jones, P.G.;Schwarzmann, E.;Sheldrick, G.M.
;
_cell_length_a                     5.430(1)
_cell_length_b                     5.430(1)
_cell_length_c                     10.096(1)
_cell_angle_alpha                  90.
_cell_angle_beta                   90.
_cell_angle_gamma                  90.
_cell_volume                       297.68
_cell_formula_units_Z              2
_symmetry_space_group_name_H-M     'P -4 2 c'
_symmetry_Int_Tables_number        112
_refine_ls_R_factor_all            .034
loop_
_symmetry_equiv_pos_site_id
_symmetry_equiv_pos_as_xyz
  1	'y, x, z+.5'
  2	'-y, -x, z+.5'
  3	'y, -x, -z'
  4	'-y, x, -z'
  5	'x, -y, -z+.5'
  6	'-x, y, -z+.5'
  7	'-x, -y, z'
  8	'x, y, z'
loop_
_atom_type_symbol
_atom_type_oxidation_number
Al3+	3
Cl1-	-1
Cu1+	1
loop_
_atom_site_label
_atom_site_type_symbol
_atom_site_symmetry_multiplicity
_atom_site_Wyckoff_symbol
_atom_site_fract_x
_atom_site_fract_y
_atom_site_fract_z
_atom_site_occupancy
_atom_site_attached_hydrogens
Cu1 Cu1+ 2 e 0 0 0.5 1. 0 
Al1 Al3+ 2 d 0 0.5 0.25 1. 0 
Cl1 Cl1- 8 n 0.2334(3) 0.2761(3) 0.3705(1) 1. 0 

loop_
_atom_site_aniso_label
_atom_site_aniso_type_symbol
_atom_site_aniso_U_11
_atom_site_aniso_U_22
_atom_site_aniso_U_33
_atom_site_aniso_U_12
_atom_site_aniso_U_13
_atom_site_aniso_U_23
Cu1 Cu1+ 0.0047(1) 0.0047(1) 0.0044(1) 0 0 0
Al1 Al3+ 0.0030(2) 0.0032(2) 0.0023(2) 0 0 0
Cl1 Cl1- 0.0026(1) 0.0041(1) 0.0036(1) -.0001(1) -.0004(1) 0.0013(1)
#End of data_35050-ICSD


