data_73780-ICSD
#?2014 by Fachinformationszentrum Karlsruhe, and the U.S. Secretary of 
#Commerce on behalf of the United States.  All rights reserved.
_database_code_ICSD                73780
_audit_creation_date               1995/01/10
_audit_update_record               2008/02/01
_chemical_name_systematic          'Hexacalcium Hexabismuth Oxide'
_chemical_formula_structural       'Ca6 Bi6 O15'
_chemical_formula_sum              'Bi6 Ca6 O15'
_publ_section_title
;
Synthesis and structure of Ca6 Bi6 O15: its relationship to Ca4 Bi6 
O13
;
loop_
_citation_id
_citation_journal_abbrev
_citation_year
_citation_journal_volume
_citation_page_first
_citation_page_last
_citation_journal_id_ASTM
primary 'Journal of Solid State Chemistry' 1993 102 132 139 JSSCBI
2 'Powder Diffraction' 1992 7 109 111 PODIE2
_publ_author_name
;
Parise, J.B.;Torardi, C.C.;Rawn, C.J.;Roth, R.S.;Burton, 
B.P.;Santoro, A.
;
_cell_length_a                     10.101(3)
_cell_length_b                     10.130(2)
_cell_length_c                     10.466(2)
_cell_angle_alpha                  116.86(1)
_cell_angle_beta                   107.18(2)
_cell_angle_gamma                  92.90(2)
_cell_volume                       891.21
_cell_formula_units_Z              2
_symmetry_space_group_name_H-M     'P -1'
_symmetry_Int_Tables_number        2
_refine_ls_R_factor_all            .044
loop_
_symmetry_equiv_pos_site_id
_symmetry_equiv_pos_as_xyz
  1	'-x, -y, -z'
  2	'x, y, z'
loop_
_atom_type_symbol
_atom_type_oxidation_number
Bi3+	3
Ca2+	2
O2-	-2
loop_
_atom_site_label
_atom_site_type_symbol
_atom_site_symmetry_multiplicity
_atom_site_Wyckoff_symbol
_atom_site_fract_x
_atom_site_fract_y
_atom_site_fract_z
_atom_site_occupancy
_atom_site_attached_hydrogens
_atom_site_B_iso_or_equiv
Bi1 Bi3+ 2 i 0.0586(2) 0.7923(2) 0.0146(2) 1. 0 0 
Bi2 Bi3+ 2 i 0.4308(2) 0.9805(2) 0.3068(2) 1. 0 0 
Bi3 Bi3+ 2 i 0.9239(1) 0.8484(2) 0.6492(2) 1. 0 0 
Bi4 Bi3+ 2 i 0.3130(1) 0.5725(2) 0.5332(2) 1. 0 0 
Bi5 Bi3+ 2 i 0.5734(2) 0.6891(2) 0.3329(2) 1. 0 0 
Bi6 Bi3+ 2 i 0.6650(2) 0.7474(2) 0.8173(2) 1. 0 0 
Ca1 Ca2+ 2 i 0.3439(9) 0.9022(10) 0.8520(11) 1. 0 0 
Ca2 Ca2+ 2 i 0.7892(8) 0.7996(9) 0.1869(9) 1. 0 0 
Ca3 Ca2+ 2 i 0.1525(8) 0.8930(9) 0.4835(10) 1. 0 0 
Ca4 Ca2+ 2 i 0.9379(8) 0.5221(10) 0.3369(10) 1. 0 0 
Ca5 Ca2+ 2 i 0.5878(9) 0.3466(9) 0.0250(11) 1. 0 0 
Ca6 Ca2+ 2 i 0.8255(9) 0.4312(10) 0.8395(11) 1. 0 0 
O1 O2- 2 i 0.9254(25) 0.6220(28) 0.5772(30) 1. 0 1.3(4) 
O2 O2- 2 i 0.8395(27) 0.6871(30) 0.9615(33) 1. 0 1.6(5) 
O3 O2- 2 i 0.0981(28) 0.8202(31) 0.2276(34) 1. 0 1.9(5) 
O4 O2- 2 i 0.1718(25) 0.6551(27) 0.4070(29) 1. 0 1.1(4) 
O5 O2- 2 i 0.9127(25) 0.8290(27) 0.4399(29) 1. 0 1.2(4) 
O6 O2- 2 i 0.6270(24) 0.6032(27) 0.1398(29) 1. 0 1.0(4) 
O7 O2- 2 i 0.1368(27) 0.9428(30) 0.7255(32) 1. 0 1.6(5) 
O8 O2- 2 i 0.3845(28) 0.7259(31) 0.2217(33) 1. 0 1.8(5) 
O9 O2- 2 i 0.5924(27) 0.8351(30) 0.9974(32) 1. 0 1.8(5) 
O10 O2- 2 i 0.0887(28) 0.5741(31) 0.9195(32) 1. 0 1.7(5) 
O11 O2- 2 i 0.3420(26) 0.8996(29) 0.0742(30) 1. 0 1.3(4) 
O12 O2- 2 i 0.4559(26) 0.7986(29) 0.6682(31) 1. 0 1.4(4) 
O13 O2- 2 i 0.2682(27) 0.6342(30) 0.7353(31) 1. 0 1.6(5) 
O14 O2- 2 i 0.6358(26) 0.9284(30) 0.3417(32) 1. 0 1.7(5) 
O15 O2- 2 i 0.5615(30) 0.5310(33) 0.7363(36) 1. 0 2.5(6) 

loop_
_atom_site_aniso_label
_atom_site_aniso_type_symbol
_atom_site_aniso_U_11
_atom_site_aniso_U_22
_atom_site_aniso_U_33
_atom_site_aniso_U_12
_atom_site_aniso_U_13
_atom_site_aniso_U_23
Bi1 Bi3+ 0.0115(7) 0.0150(8) 0.0125(9) 0.0042(6) 0.0036(7) 0.0066(7)
Bi2 Bi3+ 0.0107(7) 0.0139(8) 0.0116(8) 0.0053(6) 0.0044(7) 0.0065(7)
Bi3 Bi3+ 0.0109(7) 0.0114(7) 0.0132(8) 0.0017(5) 0.0049(6) 0.0061(7)
Bi4 Bi3+ 0.0102(7) 0.0128(8) 0.0121(9) 0.0029(6) 0.0039(7) 0.0064(7)
Bi5 Bi3+ 0.0124(7) 0.0150(8) 0.0126(8) 0.0053(6) 0.0035(7) 0.0069(7)
Bi6 Bi3+ 0.0115(8) 0.0116(8) 0.0130(9) 0.0026(6) 0.0049(7) 0.0062(7)
Ca1 Ca2+ 0.028(5) 0.015(4) 0.017(5) 0.011(4) 0.007(4) 0.007(4)
Ca2 Ca2+ 0.020(4) 0.013(4) 0.007(4) -.002(3) -.002(3) 0.001(3)
Ca3 Ca2+ 0.007(4) 0.008(4) 0.024(5) -.002(3) 0.000(3) 0.007(4)
Ca4 Ca2+ 0.005(3) 0.016(4) 0.013(4) -.002(3) 0.000(3) 0.009(4)
Ca5 Ca2+ 0.016(4) 0.006(4) 0.024(5) 0.002(2) 0.001(4) 0.005(4)
Ca6 Ca2+ 0.017(4) 0.013(4) 0.019(4) 0.001(3) 0.005(4) 0.008(4)
#End of data_73780-ICSD


