data_78841-ICSD
#?2014 by Fachinformationszentrum Karlsruhe, and the U.S. Secretary of 
#Commerce on behalf of the United States.  All rights reserved.
_database_code_ICSD                78841
_audit_creation_date               1997/11/10
_chemical_name_systematic
;
Tripotassium Catena-triselenobismuthate(III)
;
_chemical_formula_structural       'K3 (Bi Se3)'
_chemical_formula_sum              'Bi1 K3 Se3'
_publ_section_title
;
K3 Bi Se3, Rb3 Bi Se3 und Cs3 Bi Se3 - Substitutionsvarianten des Th3 
P4-Typs
;
loop_
_citation_id
_citation_journal_abbrev
_citation_year
_citation_journal_volume
_citation_page_first
_citation_page_last
_citation_journal_id_ASTM
primary 'Zeitschrift fuer Anorganische und Allgemeine Chemie (1950) (DE)'
 1996 622 1003 1005 ZAACAB
_publ_author_name                  'Bronger, W.;Donike, A.;Schmitz, D.'
_cell_length_a                     9.773(2)
_cell_length_b                     9.773(2)
_cell_length_c                     9.773
_cell_angle_alpha                  90.
_cell_angle_beta                   90.
_cell_angle_gamma                  90.
_cell_volume                       933.43
_cell_formula_units_Z              4
_symmetry_space_group_name_H-M     'P 21 3'
_symmetry_Int_Tables_number        198
_refine_ls_R_factor_all            .031
loop_
_symmetry_equiv_pos_site_id
_symmetry_equiv_pos_as_xyz
  1	'-z+.5, -x, y+.5'
  2	'-y+.5, -z, x+.5'
  3	'-x+.5, -y, z+.5'
  4	'-z, x+.5, -y+.5'
  5	'-y, z+.5, -x+.5'
  6	'-x, y+.5, -z+.5'
  7	'z+.5, -x+.5, -y'
  8	'y+.5, -z+.5, -x'
  9	'x+.5, -y+.5, -z'
 10	'z, x, y'
 11	'y, z, x'
 12	'x, y, z'
loop_
_atom_type_symbol
_atom_type_oxidation_number
Bi3+	3
K1+	1
Se2-	-2
loop_
_atom_site_label
_atom_site_type_symbol
_atom_site_symmetry_multiplicity
_atom_site_Wyckoff_symbol
_atom_site_fract_x
_atom_site_fract_y
_atom_site_fract_z
_atom_site_occupancy
_atom_site_attached_hydrogens
K1 K1+ 4 a 0.3219(5) 0.3219(5) 0.3219(5) 1. 0 
K2 K1+ 4 a 0.5722(5) 0.5722(5) 0.5722(5) 1. 0 
K3 K1+ 4 a 0.8137(4) 0.8137(4) 0.8137(4) 1. 0 
Bi1 Bi3+ 4 a 0.03547(7) 0.03547(7) 0.03547(7) 1. 0 
Se1 Se2- 12 b 0.2236(2) 0.6109(2) 0.4989(2) 1. 0 

loop_
_atom_site_aniso_label
_atom_site_aniso_type_symbol
_atom_site_aniso_U_11
_atom_site_aniso_U_22
_atom_site_aniso_U_33
_atom_site_aniso_U_12
_atom_site_aniso_U_13
_atom_site_aniso_U_23
K1 K1+ 0.022(1) 0.022(1) 0.022(1) 0.004(2) 0.004(2) 0.004(2)
K2 K1+ 0.031(2) 0.031(2) 0.031(2) 0.002(2) 0.002(2) 0.002(2)
K3 K1+ 0.020(1) 0.020(1) 0.020(1) -.001(2) -.001(2) -.001(2)
Bi1 Bi3+ 0.0168(2) 0.0168(2) 0.0168(2) -.0027(3) -.0027(3) -.0027(3)
Se1 Se2- 0.0201(7) 0.0213(8) 0.0173(8) -.0021(8) 0.0026(7) 0.0015(7)
#End of data_78841-ICSD


