data_180575-ICSD
#?2014 by Fachinformationszentrum Karlsruhe, and the U.S. Secretary of 
#Commerce on behalf of the United States.  All rights reserved.
_database_code_ICSD                180575
_audit_creation_date               2011/08/01
_audit_update_record               2013/08/01
_chemical_name_systematic
;
Tripotassium Dioxodisulfatovanadate(V)
;
_chemical_formula_structural       'K3 (V O2 (S O4)2)'
_chemical_formula_sum              'K3 O10 S2 V1'
_publ_section_title
;
K3 V O2 (S O4)2: formation conditions, crystal structure and 
physicochemical properties
;
loop_
_citation_id
_citation_journal_abbrev
_citation_year
_citation_journal_volume
_citation_journal_issue
_citation_page_first
_citation_page_last
_citation_journal_id_ASTM
primary 'Zhurnal Neorganicheskoi Khimii' 2011 56 1 20 28 ZNOKAQ
2 'Russian Journal of Inorganic Chemistry' 2011 56 1 18 25 RJICAQ
_publ_author_name
;
Krasil'nikov, V.N.;Tyutyunnik, A.P.;Zubkov, V.G.;Berger, 
I.F.;Perelyaeva, L.A.;Baklanova, I.V.
;
_cell_length_a                     10.0408(1)
_cell_length_b                     7.2312(1)
_cell_length_c                     7.3821(1)
_cell_angle_alpha                  90.
_cell_angle_beta                   104.457(1)
_cell_angle_gamma                  90.
_cell_volume                       519.02
_cell_formula_units_Z              2
_symmetry_space_group_name_H-M     'P 1 21 1'
_symmetry_Int_Tables_number        4
_refine_ls_R_factor_all            .035
loop_
_symmetry_equiv_pos_site_id
_symmetry_equiv_pos_as_xyz
  1	'-x, y+.5, -z'
  2	'x, y, z'
loop_
_atom_type_symbol
_atom_type_oxidation_number
K1+	1
O2-	-2
S6+	6
V5+	5
loop_
_atom_site_label
_atom_site_type_symbol
_atom_site_symmetry_multiplicity
_atom_site_Wyckoff_symbol
_atom_site_fract_x
_atom_site_fract_y
_atom_site_fract_z
_atom_site_occupancy
_atom_site_attached_hydrogens
_atom_site_U_iso_or_equiv
K1 K1+ 2 a 0.4138(4) 0.1115(6) 0.5835(5) 1. 0 0.029(1) 
K2 K1+ 2 a 0.2705(4) 0.8416(5) 0.9887(4) 1. 0 0.024(1) 
K3 K1+ 2 a 0.0485(4) 0.4158(6) 0.7095(5) 1. 0 0.031(2) 
V1 V5+ 2 a 0.8546(3) 0.8415(6) 0.7531(4) 1. 0 0.026(1) 
S1 S6+ 2 a 0.6553(4) 0.8146(8) 0.9521(6) 1. 0 0.019(1) 
S2 S6+ 2 a 0.7478(5) 0.1525(7) 0.5392(6) 1. 0 0.032(2) 
O1 O2- 2 a 0.8836(7) 0.095(1) 0.6709(9) 1. 0 0.017(2) 
O2 O2- 2 a 0.6593(8) 0.990(1) 0.519(1) 1. 0 0.022(2) 
O3 O2- 2 a 0.7438(7) 0.982(1) 0.9517(9) 1. 0 0.021(2) 
O4 O2- 2 a 0.7052(7) 0.6850(9) 0.813(1) 1. 0 0.019(2) 
O5 O2- 2 a 0.5097(8) 0.853(1) 0.880(1) 1. 0 0.034(2) 
O6 O2- 2 a 0.0085(7) 0.310(1) 0.0832(9) 1. 0 0.029(2) 
O7 O2- 2 a 0.6908(7) 0.303(1) 0.6232(9) 1. 0 0.028(3) 
O8 O2- 2 a 0.7812(8) 0.206(1) 0.360(1) 1. 0 0.029(2) 
O9 O2- 2 a 0.6906(7) 0.7268(9) 0.132(1) 1. 0 0.022(2) 
O10 O2- 2 a 0.8713(7) 0.7102(9) 0.583(1) 1. 0 0.026(2) 

#End of data_180575-ICSD


