data_85670-ICSD
#?2014 by Fachinformationszentrum Karlsruhe, and the U.S. Secretary of 
#Commerce on behalf of the United States.  All rights reserved.
_database_code_ICSD                85670
_audit_creation_date               1999/11/30
_chemical_name_systematic          'Tetracalcium Trimanganate(IV)'
_chemical_formula_structural       'Ca4 Mn3 O10'
_chemical_formula_sum              'Ca4 Mn3 O10'
_publ_section_title
;
Crystal and magnetic structures of Ca4 Mn3 O10, an n=3 Ruddlesden-
Popper compound
;
loop_
_citation_id
_citation_journal_abbrev
_citation_year
_citation_journal_volume
_citation_page_first
_citation_page_last
_citation_journal_id_ASTM
primary 'Chemistry of Materials' 1998 10 658 664 CMATEX
_publ_author_name
;
Battle, P.D.;Green, M.A.;Lago, J.;Millburn, J.E.;Rosseinsky, 
M.J.;Vente, J.F.
;
_cell_length_a                     5.26557(12)
_cell_length_b                     5.26039(11)
_cell_length_c                     26.82759(50)
_cell_angle_alpha                  90.
_cell_angle_beta                   90.
_cell_angle_gamma                  90.
_cell_volume                       743.1
_cell_formula_units_Z              4
_symmetry_space_group_name_H-M     'P b c a'
_symmetry_Int_Tables_number        61
_refine_ls_R_factor_all            .031
loop_
_symmetry_equiv_pos_site_id
_symmetry_equiv_pos_as_xyz
  1	'x+.5, y, -z+.5'
  2	'x, -y+.5, z+.5'
  3	'-x+.5, y+.5, z'
  4	'-x, -y, -z'
  5	'-x+.5, -y, z+.5'
  6	'-x, y+.5, -z+.5'
  7	'x+.5, -y+.5, -z'
  8	'x, y, z'
loop_
_atom_type_symbol
_atom_type_oxidation_number
Ca2+	2
Mn4+	4
O2-	-2
loop_
_atom_site_label
_atom_site_type_symbol
_atom_site_symmetry_multiplicity
_atom_site_Wyckoff_symbol
_atom_site_fract_x
_atom_site_fract_y
_atom_site_fract_z
_atom_site_occupancy
_atom_site_attached_hydrogens
_atom_site_U_iso_or_equiv
Ca1 Ca2+ 8 c 0.5021(6) 0.4784(8) 0.06901(17) 1. 0 0.0057(6) 
Ca2 Ca2+ 8 c -.0024(9) 0.0167(12) 0.20399(12) 1. 0 0.0094(8) 
Mn1 Mn4+ 4 b 0 0.5 0 1. 0 -.0018(5) 
Mn2 Mn4+ 8 c 0.4961(9) -.0002(14) 0.14074(14) 1. 0 -.0018(5) 
O1 O2- 8 c 0.4410(4) 0.0035(7) 0.06997(16) 1. 0 0.0029(6) 
O2 O2- 8 c 0.5349(6) -.0059(9) 0.21082(9) 1. 0 0.0013(6) 
O3 O2- 8 c 0.7853(7) 0.2139(8) 0.13265(10) 1. 0 0.0078(7) 
O4 O2- 8 c 0.2159(6) 0.7824(7) 0.14696(9) 1. 0 0.0051(6) 
O5 O2- 8 c 0.2885(7) 0.2886(8) 0.99141(10) 1. 0 0.0060(7) 

#End of data_85670-ICSD


