data_78593-ICSD
#?2014 by Fachinformationszentrum Karlsruhe, and the U.S. Secretary of 
#Commerce on behalf of the United States.  All rights reserved.
_database_code_ICSD                78593
_audit_creation_date               1997/05/13
_chemical_name_systematic
;
Dithallium Dibarium Calcium Dicopper Oxide
;
_chemical_formula_structural       'Tl2 Ba2 Ca Cu2 O8'
_chemical_formula_sum              'Ba2 Ca1 Cu2 O8 Tl2'
_publ_section_title
;
Superconducting transition in Tl2 Ba2 Ca Cu2 O8 observed by electron-
density distribution
;
loop_
_citation_id
_citation_journal_abbrev
_citation_year
_citation_journal_volume
_citation_page_first
_citation_page_last
_citation_journal_id_ASTM
primary 'Physica C, Superconductivity' 1995 247 289 296 PHYCE6
_publ_author_name
;
Sasaki, S.;Mori, T.;Kawaguchi, K.;Nakao, M.
;
_cell_length_a                     3.838(1)
_cell_length_b                     3.838(1)
_cell_length_c                     29.42(1)
_cell_angle_alpha                  90.
_cell_angle_beta                   90.
_cell_angle_gamma                  90.
_cell_volume                       433.36
_cell_formula_units_Z              2
_symmetry_space_group_name_H-M     'I 4/m m m'
_symmetry_Int_Tables_number        139
_refine_ls_R_factor_all            .01
loop_
_symmetry_equiv_pos_site_id
_symmetry_equiv_pos_as_xyz
  1	'y, x, -z'
  2	'-y, -x, -z'
  3	'-y, x, -z'
  4	'y, -x, -z'
  5	'-x, y, -z'
  6	'x, -y, -z'
  7	'x, y, -z'
  8	'-x, -y, -z'
  9	'-y, -x, z'
 10	'y, x, z'
 11	'y, -x, z'
 12	'-y, x, z'
 13	'x, -y, z'
 14	'-x, y, z'
 15	'-x, -y, z'
 16	'x, y, z'
 17	'y+.5, x+.5, -z+.5'
 18	'-y+.5, -x+.5, -z+.5'
 19	'-y+.5, x+.5, -z+.5'
 20	'y+.5, -x+.5, -z+.5'
 21	'-x+.5, y+.5, -z+.5'
 22	'x+.5, -y+.5, -z+.5'
 23	'x+.5, y+.5, -z+.5'
 24	'-x+.5, -y+.5, -z+.5'
 25	'-y+.5, -x+.5, z+.5'
 26	'y+.5, x+.5, z+.5'
 27	'y+.5, -x+.5, z+.5'
 28	'-y+.5, x+.5, z+.5'
 29	'x+.5, -y+.5, z+.5'
 30	'-x+.5, y+.5, z+.5'
 31	'-x+.5, -y+.5, z+.5'
 32	'x+.5, y+.5, z+.5'
loop_
_atom_type_symbol
_atom_type_oxidation_number
Ba2+	2
Ca2+	2
Cu2+	2
O2-	-2
Tl3+	3
loop_
_atom_site_label
_atom_site_type_symbol
_atom_site_symmetry_multiplicity
_atom_site_Wyckoff_symbol
_atom_site_fract_x
_atom_site_fract_y
_atom_site_fract_z
_atom_site_occupancy
_atom_site_attached_hydrogens
Tl1 Tl3+ 4 e 0.5 0.5 0.21326(1) 1. 0 
Ba1 Ba2+ 4 e 0 0 0.12065(1) 1. 0 
Ca1 Ca2+ 2 a 0 0 0 1. 0 
Cu1 Cu2+ 4 e 0.5 0.5 0.05337(1) 1. 0 
O1 O2- 8 g 0 0.5 0.05233(4) 1. 0 
O2 O2- 4 e 0.5 0.5 0.14505(7) 1. 0 
O3 O2- 4 e 0.5 0.5 0.2817(1) 1. 0 

loop_
_atom_site_aniso_label
_atom_site_aniso_type_symbol
_atom_site_aniso_U_11
_atom_site_aniso_U_22
_atom_site_aniso_U_33
_atom_site_aniso_U_12
_atom_site_aniso_U_13
_atom_site_aniso_U_23
Tl1 Tl3+ 0.0156(1) 0.0156(1) 0.0040(1) 0 0 0
Ba1 Ba2+ 0.00332(8) 0.00332(8) 0.0068(1) 0 0 0
Ca1 Ca2+ 0.00211(7) 0.00211(7) 0.0069(2) 0 0 0
Cu1 Cu2+ 0.00165(6) 0.00165(6) 0.0057(1) 0 0 0
O1 O2- 0.0023(3) 0.0048(3) 0.0085(4) 0 0 0
O2 O2- 0.0090(4) 0.0090(4) 0.0082(6) 0 0 0
O3 O2- 0.112(4) 0.112(4) 0.005(1) 0 0 0
#End of data_78593-ICSD


