data_25713-ICSD
#?2014 by Fachinformationszentrum Karlsruhe, and the U.S. Secretary of 
#Commerce on behalf of the United States.  All rights reserved.
_database_code_ICSD                25713
_audit_creation_date               1980/01/01
_audit_update_record               2000/07/15
_chemical_name_systematic
;
Magnesium Diammonium Bis(sulfate(VI)) Hexahydrate
;
_chemical_formula_structural       'Mg (N H4)2 (S O4)2 (H2 O)6'
_chemical_formula_sum              'H20 Mg1 N2 O14 S2'
_chemical_name_mineral             Boussingaultite
_publ_section_title
;
Crystal structure and hydrogen bonding of magnesium ammonium sulfate 
hexahydrate
;
loop_
_citation_id
_citation_journal_abbrev
_citation_year
_citation_journal_volume
_citation_page_first
_citation_page_last
_citation_journal_id_ASTM
primary
;
Zeitschrift fuer Kristallographie, Kristallgeometrie, Kristallphysik, 
Kristallchemie (-144,1977)
;
 1962 117 344 357 ZEKGAX
_publ_author_name                  'Margulis, T.N.;Templeton, D.H.'
_cell_length_a                     9.324(7)
_cell_length_b                     12.597(9)
_cell_length_c                     6.211(5)
_cell_angle_alpha                  90.
_cell_angle_beta                   107.14(2)
_cell_angle_gamma                  90.
_cell_volume                       697.11
_cell_formula_units_Z              2
_symmetry_space_group_name_H-M     'P 1 21/a 1'
_symmetry_Int_Tables_number        14
_refine_ls_R_factor_all            .04
loop_
_symmetry_equiv_pos_site_id
_symmetry_equiv_pos_as_xyz
  1	'x+.5, -y+.5, z'
  2	'-x, -y, -z'
  3	'-x+.5, y+.5, -z'
  4	'x, y, z'
loop_
_atom_type_symbol
_atom_type_oxidation_number
H1+	1
Mg2+	2
N3-	-3
O2-	-2
S6+	6
loop_
_atom_site_label
_atom_site_type_symbol
_atom_site_symmetry_multiplicity
_atom_site_Wyckoff_symbol
_atom_site_fract_x
_atom_site_fract_y
_atom_site_fract_z
_atom_site_occupancy
_atom_site_attached_hydrogens
_atom_site_B_iso_or_equiv
Mg1 Mg2+ 2 a 0 0 0 1. 0 0 
S1 S6+ 4 e 0.0953(2) -.3605(1) 0.2575(2) 1. 0 0 
O1 O2- 4 e -.0469(5) -.4174(4) 0.2116(8) 1. 0 0 
O2 O2- 4 e 0.2185(4) -.4328(3) 0.3718(7) 1. 0 0 
O3 O2- 4 e 0.1185(5) -.3211(3) 0.0456(7) 1. 0 0 
O4 O2- 4 e 0.0951(5) -.2702(3) 0.4089(7) 1. 0 0 
O5 O2- 4 e 0.1603(5) -.1094(4) -.0307(7) 1. 0 0 
O6 O2- 4 e 0.1685(5) 0.1042(4) 0.1656(8) 1. 0 0 
O7 O2- 4 e -.0017(5) -.0687(3) 0.2986(7) 1. 0 0 
N1 N3- 4 e 0.1321(7) 0.3509(5) 0.3611(11) 1. 0 0 
H1 H1+ 4 e 0.21(1) 0.100(8) 0.30(2) 1. 0 4. 
H2 H1+ 4 e 0.02(1) -.131(8) 0.32(2) 1. 0 4. 
H3 H1+ 4 e 0.26(1) -.090(7) 0.05(1) 1. 0 4. 
H4 H1+ 4 e 0.06(1) 0.333(7) 0.21(2) 1. 0 4. 
H5 H1+ 4 e 0.15(1) -.178(8) -.01(1) 1. 0 4. 
H6 H1+ 4 e 0.21(1) 0.305(8) 0.40(1) 1. 0 4. 
H7 H1+ 4 e 0.17(1) 0.422(8) 0.36(1) 1. 0 4. 
H8 H1+ 4 e 0.40(1) -.438(7) 0.31(1) 1. 0 4. 
H9 H1+ 4 e 0.23(1) 0.120(8) 0.10(2) 1. 0 4. 
H10 H1+ 4 e 0.09(1) 0.346(8) 0.45(2) 1. 0 4. 

#End of data_25713-ICSD


