data_281046-ICSD
#?2014 by Fachinformationszentrum Karlsruhe, and the U.S. Secretary of 
#Commerce on behalf of the United States.  All rights reserved.
_database_code_ICSD                281046
_audit_creation_date               2003/04/01
_chemical_name_systematic
;
Hexasilver Oxopentamolybdatotris(dioxouranate)
;
_chemical_formula_structural       'Ag6 ((U O2)3 O (Mo O4)5)'
_chemical_formula_sum              'Ag6 Mo5 O27 U3'
_publ_section_title
;
Synthesis and structure of Ag6 ((U O2)3 O (Mo O4)5): a novel sheet of 
triuranyl clusters and Mo O4 tetrahedra
;
loop_
_citation_id
_citation_journal_abbrev
_citation_year
_citation_journal_volume
_citation_journal_issue
_citation_page_first
_citation_page_last
_citation_journal_id_ASTM
primary 'Inorganic Chemistry' 2002 41 16 4108 4110 INOCAJ
_publ_author_name                  'Krivovichev, S.V.;Burns, P.C.'
_cell_length_a                     16.4508(14)
_cell_length_b                     11.3236(14)
_cell_length_c                     12.7418(13)
_cell_angle_alpha                  90.
_cell_angle_beta                   100.014(8)
_cell_angle_gamma                  90.
_cell_volume                       2337.41
_cell_formula_units_Z              4
_symmetry_space_group_name_H-M     'C 1 2/c 1'
_symmetry_Int_Tables_number        15
_refine_ls_R_factor_all            .0544
loop_
_symmetry_equiv_pos_site_id
_symmetry_equiv_pos_as_xyz
  1	'x, -y, z+.5'
  2	'-x, -y, -z'
  3	'-x, y, -z+.5'
  4	'x, y, z'
  5	'x+.5, -y+.5, z+.5'
  6	'-x+.5, -y+.5, -z'
  7	'-x+.5, y+.5, -z+.5'
  8	'x+.5, y+.5, z'
loop_
_atom_type_symbol
_atom_type_oxidation_number
Ag1+	1
Mo6+	6
O2-	-2
U6+	6
loop_
_atom_site_label
_atom_site_type_symbol
_atom_site_symmetry_multiplicity
_atom_site_Wyckoff_symbol
_atom_site_fract_x
_atom_site_fract_y
_atom_site_fract_z
_atom_site_occupancy
_atom_site_attached_hydrogens
_atom_site_U_iso_or_equiv
U1 U6+ 4 e 0.5 0.14060(3) 0.25 1. 0 0.00975(9) 
U2 U6+ 8 f 0.630637(16) -.12363(2) 0.22055(2) 1. 0 0.01022(8) 
Mo1 Mo6+ 4 e 0.5 -.37192(8) 0.25 1. 0 0.01406(19) 
Mo2 Mo6+ 8 f 0.35783(4) -.62443(6) 0.32929(6) 1. 0 0.01296(14) 
Mo3 Mo6+ 8 f 0.28088(4) 0.14198(6) 0.10753(6) 1. 0 0.01116(13) 
Ag1 Ag1+ 8 f 0.42792(4) -.61139(7) 0.04238(6) 1. 0 0.02482(16) 
Ag2 Ag1+ 8 f 0.27475(5) -.61241(7) 0.60639(7) 1. 0 0.03022(18) 
Ag3 Ag1+ 8 f 0.43394(6) -.12079(10) 0.03235(8) 1. 0 0.0506(3) 
O1 O2- 8 f 0.5018(4) 0.1460(6) 0.1079(5) 1. 0 0.0196(13) 
O2 O2- 8 f 0.3310(4) 0.2351(5) 0.0317(5) 1. 0 0.0209(13) 
O3 O2- 8 f 0.6447(4) -.1923(5) 0.3508(5) 1. 0 0.0160(11) 
O4 O2- 4 e 0.5 -.0591(7) 0.25 1. 0 0.0188(17) 
O5 O2- 8 f 0.2679(3) -.5501(5) 0.2575(5) 1. 0 0.0162(11) 
O6 O2- 8 f 0.3637(3) 0.0654(5) 0.1991(5) 1. 0 0.0140(11) 
O7 O2- 8 f 0.5388(3) -.2752(5) 0.1569(5) 1. 0 0.0171(12) 
O8 O2- 8 f 0.2186(4) 0.2212(5) 0.1850(5) 1. 0 0.0170(12) 
O9 O2- 8 f 0.6161(4) -.0512(5) 0.0934(5) 1. 0 0.0187(12) 
O10 O2- 8 f 0.4190(4) -.4547(5) 0.1819(5) 1. 0 0.02071(13) 
O11 O2- 8 f 0.4086(4) -.7028(5) 0.2372(5) 1. 0 0.0182(12) 
O12 O2- 8 f 0.2273(4) 0.0339(5) 0.0253(5) 1. 0 0.0187(12) 
O13 O2- 8 f 0.4305(4) -.5330(5) 0.4040(5) 1. 0 0.0212(13) 
O14 O2- 8 f 0.3278(4) -.7288(6) 0.4143(5) 1. 0 0.0264(15) 

loop_
_atom_site_aniso_label
_atom_site_aniso_type_symbol
_atom_site_aniso_U_11
_atom_site_aniso_U_22
_atom_site_aniso_U_33
_atom_site_aniso_U_12
_atom_site_aniso_U_13
_atom_site_aniso_U_23
U1 U6+ 0.00800(16) 0.00983(18) 0.01122(19) 0 0.00110(13) 0
U2 U6+ 0.00930(12) 0.01055(14) 0.01058(14) 0.00064(9) 0.00107(10) 
-0.00071(9)
Mo1 Mo6+ 0.0112(4) 0.0116(4) 0.0181(5) 0 -0.0009(4) 0
Mo2 Mo6+ 0.0099(3) 0.0149(3) 0.0134(3) 0.0019(2) 0.0000(2) -0.0011(2)
Mo3 Mo6+ 0.0096(3) 0.0131(3) 0.0102(3) 0.0017(2) 0.0000(2) -0.0021(2)
Ag1 Ag1+ 0.0217(3) 0.0246(4) 0.0258(4) -0.0077(3) -0.0025(3) 0.0063(3)
Ag2 Ag1+ 0.0278(4) 0.0236(4) 0.0370(5) -0.0021(3) -0.0006(3) 0.0116(3)
Ag3 Ag1+ 0.0488(6) 0.0841(8) 0.0243(5) -0.0005(5) 0.0210(5) 0.0114(5)
O1 O2- 0.015(3) 0.035(4) 0.007(3) 0.001(2) -0.001(2) -0.003(2)
O2 O2- 0.022(3) 0.022(3) 0.019(3) -0.005(2) 0.004(3) 0.004(2)
O3 O2- 0.021(3) 0.017(3) 0.011(3) 0.004(2) 0.003(2) 0.005(2)
O4 O2- 0.013(4) 0.018(4) 0.026(5) 0 0.004(3) 0
O5 O2- 0.009(2) 0.019(3) 0.020(3) -0.002(2) 0.001(2) -0.002(2)
O6 O2- 0.011(2) 0.013(3) 0.017(3) 0.0008(19) 0.001(2) 0.003(2)
O7 O2- 0.014(3) 0.020(3) 0.016(3) -0.005(2) -0.001(2) -0.002(2)
O8 O2- 0.016(3) 0.019(3) 0.016(3) 0.008(2) 0.004(2) 0.003(2)
O9 O2- 0.022(3) 0.018(3) 0.015(3) 0.001(2) 0.003(2) 0.006(2)
O10 O2- 0.016(3) 0.020(3) 0.024(4) -0.002(2) 0.000(3) -0.001(2)
O11 O2- 0.019(3) 0.018(3) 0.017(3) 0.009(2) 0.002(2) -0.002(2)
O12 O2- 0.018(3) 0.019(3) 0.018(3) 0.001(2) 0.001(2) -0.005(2)
O13 O2- 0.018(3) 0.022(3) 0.023(3) -0.001(2) 0.001(3) -0.010(3)
O14 O2- 0.023(3) 0.040(4) 0.016(3) 0.002(3) 0.002(3) 0.006(3)
#End of data_281046-ICSD


