data_261898-ICSD
#?2014 by Fachinformationszentrum Karlsruhe, and the U.S. Secretary of 
#Commerce on behalf of the United States.  All rights reserved.
_database_code_ICSD                261898
_audit_creation_date               2012/02/01
_chemical_name_systematic
;
Dipotassium Tetrahydroxo Decaborate Monohydrate
;
_chemical_formula_structural       'K2 (B10 O14 (O H)4) (H2 O)'
_chemical_formula_sum              'H6 B10 K2 O19'
_publ_section_title                'Potassium decaborate monohydrate'
loop_
_citation_id
_citation_journal_abbrev
_citation_year
_citation_journal_volume
_citation_journal_issue
_citation_page_first
_citation_page_last
_citation_journal_id_ASTM
primary 'Acta Crystallographica, Section E. Structure Reports Online'
 2011 67 10 i57 i57 ACSEBH
_publ_author_name                  'Gao Yihong'
_cell_length_a                     7.5612(7)
_cell_length_b                     9.2236(10)
_cell_length_c                     11.7298(13)
_cell_angle_alpha                  99.038(6)
_cell_angle_beta                   106.595(6)
_cell_angle_gamma                  91.314(6)
_cell_volume                       772.26
_cell_formula_units_Z              2
_symmetry_space_group_name_H-M     'P -1'
_symmetry_Int_Tables_number        2
_refine_ls_R_factor_all            .0453
loop_
_symmetry_equiv_pos_site_id
_symmetry_equiv_pos_as_xyz
  1	'-x, -y, -z'
  2	'x, y, z'
loop_
_atom_type_symbol
_atom_type_oxidation_number
B3+	3
H1+	1
K1+	1
O2-	-2
loop_
_atom_site_label
_atom_site_type_symbol
_atom_site_symmetry_multiplicity
_atom_site_Wyckoff_symbol
_atom_site_fract_x
_atom_site_fract_y
_atom_site_fract_z
_atom_site_occupancy
_atom_site_attached_hydrogens
_atom_site_U_iso_or_equiv
K1 K1+ 2 i 0.02003(11) -0.04398(8) 0.24158(6) 1 0 0.0193(2) 
K2 K1+ 2 i 0.57020(11) 0.25524(8) 0.28774(7) 1 0 0.0228(2) 
O1 O2- 2 i 0.1964(3) -0.0442(2) 0.46853(19) 1 0 0.0157(5) 
H1 H1+ 2 i 0.132(4) -0.108(3) 0.492(3) 1 0 0.019 
O2 O2- 2 i 0.4077(3) 0.1569(2) 0.51318(18) 1 0 0.0135(5) 
O3 O2- 2 i 0.6155(3) 0.3561(2) 0.54323(18) 1 0 0.0133(5) 
O4 O2- 2 i 0.3447(3) 0.0566(2) 0.67480(18) 1 0 0.0137(5) 
O5 O2- 2 i 0.5940(3) 0.2474(2) 0.71450(18) 1 0 0.0129(5) 
O6 O2- 2 i 0.4224(3) 0.2380(2) 0.85610(18) 1 0 0.0135(5) 
O7 O2- 2 i 0.6184(3) 0.1485(2) 1.02546(18) 1 0 0.0133(5) 
O8 O2- 2 i 0.6280(3) 0.0473(2) 0.82680(18) 1 0 0.0137(5) 
O9 O2- 2 i 0.4452(3) 0.3433(2) 1.06130(19) 1 0 0.0158(5) 
H2 H1+ 2 i 0.372(4) 0.410(3) 1.037(3) 1 0 0.019 
O10 O2- 2 i 0.8021(3) 0.5425(2) 0.51410(18) 1 0 0.0142(5) 
O11 O2- 2 i 0.9851(3) 0.7373(2) 0.48289(19) 1 0 0.0162(5) 
H3 H1+ 2 i 0.948(4) 0.698(3) 0.4022(17) 1 0 0.019 
O12 O2- 2 i 0.7542(3) 0.5525(2) 0.70700(18) 1 0 0.0134(5) 
O13 O2- 2 i 0.9867(3) 0.7205(2) 0.67953(18) 1 0 0.0148(5) 
O14 O2- 2 i 0.8285(3) 0.7940(2) 0.82488(18) 1 0 0.0129(5) 
O15 O2- 2 i 0.9989(3) 0.7625(2) 1.02361(18) 1 0 0.0131(5) 
O16 O2- 2 i 1.0478(3) 0.6058(2) 0.85501(19) 1 0 0.0144(5) 
O17 O2- 2 i 0.7994(3) 0.9505(2) 1.00052(18) 1 0 0.0122(5) 
O18 O2- 2 i 1.2111(3) 0.5743(2) 1.04997(19) 1 0 0.0149(5) 
H4 H1+ 2 i 1.247(4) 0.615(3) 1.1280(17) 1 0 0.018 
O19 O2- 2 i -0.0980(4) -0.3366(3) 0.2539(2) 1 0 0.0208(6) 
H5 H1+ 2 i -0.213(4) -0.315(4) 0.214(3) 1 0 0.025 
H6 H1+ 2 i -0.079(5) -0.424(3) 0.213(3) 1 0 0.025 
B1 B3+ 2 i 0.3158(5) 0.0559(4) 0.5553(3) 1 0 0.0130(8) 
B2 B3+ 2 i 0.5436(5) 0.2550(4) 0.5960(3) 1 0 0.0114(8) 
B3 B3+ 2 i 0.4978(5) 0.1472(4) 0.7673(3) 1 0 0.0133(8) 
B4 B3+ 2 i 0.4912(5) 0.2461(4) 0.9766(3) 1 0 0.0130(8) 
B5 B3+ 2 i 0.6787(5) 0.0482(4) 0.9462(3) 1 0 0.0126(8) 
B6 B3+ 2 i 0.7263(5) 0.4844(4) 0.5928(3) 1 0 0.0144(8) 
B7 B3+ 2 i 0.9241(5) 0.6669(4) 0.5601(3) 1 0 0.0145(8) 
B8 B3+ 2 i 0.9041(5) 0.6680(4) 0.7659(3) 1 0 0.0125(8) 
B9 B3+ 2 i 0.8708(5) 0.8327(4) 0.9451(3) 1 0 0.0139(8) 
B10 B3+ 2 i 1.0838(5) 0.6471(4) 0.9752(3) 1 0 0.0131(8) 

loop_
_atom_site_aniso_label
_atom_site_aniso_type_symbol
_atom_site_aniso_U_11
_atom_site_aniso_U_22
_atom_site_aniso_U_33
_atom_site_aniso_U_12
_atom_site_aniso_U_13
_atom_site_aniso_U_23
K1 K1+ 0.0252(5) 0.0164(4) 0.0155(4) -0.0002(3) 0.0045(3) 0.0032(3)
K2 K1+ 0.0245(5) 0.0231(4) 0.0189(4) 0.0053(3) 0.0034(3) 0.0028(3)
O1 O2- 0.0177(14) 0.0115(12) 0.0170(12) -0.0047(10) 0.0038(10) 0.0028(9)
O2 O2- 0.0161(13) 0.0119(12) 0.0119(11) -0.0017(10) 0.0038(10) 0.0015(9)
O3 O2- 0.0137(13) 0.0117(12) 0.0138(11) -0.0025(10) 0.0036(10) 0.0017(9)
O4 O2- 0.0138(13) 0.0139(12) 0.0123(12) -0.0025(10) 0.0025(10) 0.0020(9)
O5 O2- 0.0150(13) 0.0118(12) 0.0123(11) -0.0014(10) 0.0044(10) 0.0029(9)
O6 O2- 0.0152(13) 0.0134(12) 0.0129(12) 0.0023(10) 0.0050(10) 0.0031(9)
O7 O2- 0.0124(13) 0.0140(12) 0.0136(12) 0.0031(10) 0.0040(10) 0.0015(9)
O8 O2- 0.0143(13) 0.0132(12) 0.0132(12) 0.0028(10) 0.0038(10) 0.0016(9)
O9 O2- 0.0181(14) 0.0137(12) 0.0169(12) 0.0052(10) 0.0065(10) 0.0030(10)
O10 O2- 0.0174(14) 0.0122(12) 0.0134(12) -0.0025(10) 0.0065(10) 0.0000(9)
O11 O2- 0.0186(14) 0.0148(12) 0.0155(12) -0.0012(10) 0.0061(11) 0.0016(10)
O12 O2- 0.0131(13) 0.0116(12) 0.0150(12) -0.0032(9) 0.0045(10) 0.0010(9)
O13 O2- 0.0171(14) 0.0125(12) 0.0150(12) -0.0008(10) 0.0048(10) 0.0031(9)
O14 O2- 0.0136(13) 0.0116(12) 0.0132(12) 0.0015(9) 0.0039(10) 0.0014(9)
O15 O2- 0.0136(13) 0.0108(12) 0.0141(12) 0.0041(10) 0.0028(10) 0.0015(9)
O16 O2- 0.0141(13) 0.0128(12) 0.0146(12) 0.0021(10) 0.0019(10) 0.0017(9)
O17 O2- 0.0135(13) 0.0101(11) 0.0126(11) 0.0015(9) 0.0037(9) 0.0010(9)
O18 O2- 0.0161(14) 0.0143(12) 0.0128(12) 0.0027(10) 0.0023(10) 0.0013(10)
O19 O2- 0.0255(16) 0.0176(13) 0.0182(13) 0.0077(12) 0.0048(11) 0.0015(10)
B1 B3+ 0.012(2) 0.0091(18) 0.020(2) 0.0032(16) 0.0077(17) 0.0047(15)
B2 B3+ 0.008(2) 0.0087(18) 0.018(2) 0.0039(15) 0.0052(16) -0.0012(15)
B3 B3+ 0.012(2) 0.014(2) 0.014(2) 0.0037(16) 0.0050(16) 0.0009(15)
B4 B3+ 0.012(2) 0.0109(19) 0.017(2) -0.0034(16) 0.0061(16) 0.0010(15)
B5 B3+ 0.011(2) 0.0112(19) 0.016(2) -0.0019(16) 0.0053(16) 0.0002(15)
B6 B3+ 0.012(2) 0.0109(19) 0.020(2) 0.0038(16) 0.0038(17) 0.0052(16)
B7 B3+ 0.010(2) 0.0108(19) 0.023(2) 0.0028(15) 0.0047(17) 0.0036(16)
B8 B3+ 0.011(2) 0.0099(19) 0.016(2) -0.0008(15) 0.0042(16) 0.0014(15)
B9 B3+ 0.012(2) 0.0108(19) 0.020(2) -0.0033(15) 0.0054(16) 0.0030(16)
B10 B3+ 0.012(2) 0.0094(19) 0.017(2) -0.0020(16) 0.0031(16) 0.0034(15)
#End of data_261898-ICSD


