data_26835-ICSD
#?2014 by Fachinformationszentrum Karlsruhe, and the U.S. Secretary of 
#Commerce on behalf of the United States.  All rights reserved.
_database_code_ICSD                26835
_audit_creation_date               1980/01/01
_audit_update_record               2014/08/01
_chemical_name_systematic          'Lead Silver Trithioarsenate(III)'
_chemical_formula_structural       'Pb Ag (As S3)'
_chemical_formula_sum              'Ag1 As1 Pb1 S3'
_chemical_name_mineral             Marrite
_publ_section_title
;
The crystal structure of marrite, Pb Ag As S3
;
loop_
_citation_id
_citation_journal_abbrev
_citation_year
_citation_journal_volume
_citation_page_first
_citation_page_last
_citation_journal_id_ASTM
primary
;
Zeitschrift fuer Kristallographie, Kristallgeometrie, Kristallphysik, 
Kristallchemie (-144,1977)
;
 1967 125 459 488 ZEKGAX
_publ_author_name                  'Wuensch, B.J.;Nowacki, W.'
_cell_length_a                     7.2705(6)
_cell_length_b                     12.6319(4)
_cell_length_c                     5.9853(3)
_cell_angle_alpha                  90.
_cell_angle_beta                   91.236(3)
_cell_angle_gamma                  90.
_cell_volume                       549.56
_cell_formula_units_Z              4
_symmetry_space_group_name_H-M     'P 1 21/a 1'
_symmetry_Int_Tables_number        14
_refine_ls_R_factor_all            .109
loop_
_symmetry_equiv_pos_site_id
_symmetry_equiv_pos_as_xyz
  1	'x+.5, -y+.5, z'
  2	'-x, -y, -z'
  3	'-x+.5, y+.5, -z'
  4	'x, y, z'
loop_
_atom_type_symbol
_atom_type_oxidation_number
Ag1+	1
As3+	3
Pb2+	2
S2-	-2
loop_
_atom_site_label
_atom_site_type_symbol
_atom_site_symmetry_multiplicity
_atom_site_Wyckoff_symbol
_atom_site_fract_x
_atom_site_fract_y
_atom_site_fract_z
_atom_site_occupancy
_atom_site_attached_hydrogens
As1 As3+ 4 e 0.3557(8) 0.0906(5) 0.2786(9) 1. 0 
Pb1 Pb2+ 4 e 0.3383(3) 0.4111(2) 0.2521(4) 1. 0 
Ag1 Ag1+ 4 e 0.3882(8) 0.7633(5) 0.1851(9) 1. 0 
S1 S2- 4 e 0.146(2) 0.2145(10) 0.3817(22) 1. 0 
S2 S2- 4 e 0.1528(18) 0.6230(11) 0.0926(20) 1. 0 
S3 S2- 4 e 0.1658(20) 0.9481(11) 0.287(2) 1. 0 

#End of data_26835-ICSD


