data_9136-ICSD
#?2014 by Fachinformationszentrum Karlsruhe, and the U.S. Secretary of 
#Commerce on behalf of the United States.  All rights reserved.
_database_code_ICSD                9136
_audit_creation_date               1980/01/01
_audit_update_record               2010/02/01
_chemical_name_systematic          'Disodium Tetrachloromanganate(II)'
_chemical_formula_structural       'Na2 (Mn Cl4)'
_chemical_formula_sum              'Cl4 Mn1 Na2'
_publ_section_title
;
The crystal structure of Na2 Mn Cl4
;
loop_
_citation_id
_citation_journal_abbrev
_citation_year
_citation_journal_volume
_citation_page_first
_citation_page_last
_citation_journal_id_ASTM
primary 'Acta Crystallographica B (24,1968-38,1982)' 1971 27 1672 1674 ACBCAR
_publ_author_name
;
Goodyear, J.;Ali, S.A.D.;Steigmann, G.A.
;
_cell_length_a                     6.93(1)
_cell_length_b                     11.86(2)
_cell_length_c                     3.86(2)
_cell_angle_alpha                  90.
_cell_angle_beta                   90.
_cell_angle_gamma                  90.
_cell_volume                       317.25
_cell_formula_units_Z              2
_symmetry_space_group_name_H-M     'P b a m'
_symmetry_Int_Tables_number        55
_refine_ls_R_factor_all            .104
loop_
_symmetry_equiv_pos_site_id
_symmetry_equiv_pos_as_xyz
  1	'x+.5, -y+.5, z'
  2	'-x+.5, y+.5, z'
  3	'x, y, -z'
  4	'-x, -y, -z'
  5	'-x+.5, y+.5, -z'
  6	'x+.5, -y+.5, -z'
  7	'-x, -y, z'
  8	'x, y, z'
loop_
_atom_type_symbol
_atom_type_oxidation_number
Cl1-	-1
Mn2+	2
Na1+	1
loop_
_atom_site_label
_atom_site_type_symbol
_atom_site_symmetry_multiplicity
_atom_site_Wyckoff_symbol
_atom_site_fract_x
_atom_site_fract_y
_atom_site_fract_z
_atom_site_occupancy
_atom_site_attached_hydrogens
_atom_site_B_iso_or_equiv
Mn1 Mn2+ 2 a 0 0 0 1. 0 2.28 
Na1 Na1+ 4 h 0.4186(18) 0.1818(11) 0.5 1. 0 3.28 
Cl1 Cl1- 4 g 0.1215(9) 0.1952(6) 0 1. 0 1.88 
Cl2 Cl1- 4 h 0.2399(9) -.0449(6) 0.5 1. 0 2.19 

#End of data_9136-ICSD


