data_202543-ICSD
#?2014 by Fachinformationszentrum Karlsruhe, and the U.S. Secretary of 
#Commerce on behalf of the United States.  All rights reserved.
_database_code_ICSD                202543
_audit_creation_date               1988/12/19
_chemical_name_systematic          'Silver Silver(III) Oxide'
_chemical_formula_structural       'Ag2 O2'
_chemical_formula_sum              'Ag2 O2'
_publ_section_title
;
Eine neue Darstellungsmethode fur monoklines Silber(I,III) Oxid (Ag 
O); Einkristallzuechtung und Roentgenstrukturanalyse
;
loop_
_citation_id
_citation_journal_abbrev
_citation_year
_citation_journal_volume
_citation_page_first
_citation_page_last
_citation_journal_id_ASTM
primary 'Journal of the Less-Common Metals' 1988 137 123 131 JCOMAH
_publ_author_name                  'Jansen, M.;Fischer, P.'
_cell_length_a                     5.8592(19)
_cell_length_b                     3.4842(10)
_cell_length_c                     5.4995(13)
_cell_angle_alpha                  90.
_cell_angle_beta                   107.506(24)
_cell_angle_gamma                  90.
_cell_volume                       107.07
_cell_formula_units_Z              2
_symmetry_space_group_name_H-M     'P 1 21/c 1'
_symmetry_Int_Tables_number        14
_refine_ls_R_factor_all            .04
loop_
_symmetry_equiv_pos_site_id
_symmetry_equiv_pos_as_xyz
  1	'x, -y+.5, z+.5'
  2	'-x, -y, -z'
  3	'-x, y+.5, -z+.5'
  4	'x, y, z'
loop_
_atom_type_symbol
_atom_type_oxidation_number
Ag1+	1
Ag3+	3
O2-	-2
loop_
_atom_site_label
_atom_site_type_symbol
_atom_site_symmetry_multiplicity
_atom_site_Wyckoff_symbol
_atom_site_fract_x
_atom_site_fract_y
_atom_site_fract_z
_atom_site_occupancy
_atom_site_attached_hydrogens
Ag1 Ag3+ 2 d 0.5 0 0.5 1. 0 
Ag2 Ag1+ 2 a 0 0 0 1. 0 
O1 O2- 4 e 0.2959(9) 0.3452(16) 0.2221 1. 0 

loop_
_atom_site_aniso_label
_atom_site_aniso_type_symbol
_atom_site_aniso_U_11
_atom_site_aniso_U_22
_atom_site_aniso_U_33
_atom_site_aniso_U_12
_atom_site_aniso_U_13
_atom_site_aniso_U_23
Ag1 Ag3+ 0.0096(2) 0.0076(2) 0.0099(2) 0.0001(2) 0.0043(1) -.0003(2)
Ag2 Ag1+ 0.0127(2) 0.0204(3) 0.0209(3) -.0055(2) 0.0039(2) -.0003(3)
O1 O2- 0.0133(18) 0.0124(15) 0.0124(15) -.0002(13) 0.0044(13) 0.0011(15)
#End of data_202543-ICSD


