data_24975-ICSD
#?2014 by Fachinformationszentrum Karlsruhe, and the U.S. Secretary of 
#Commerce on behalf of the United States.  All rights reserved.
_database_code_ICSD                24975
_audit_creation_date               1980/01/01
_audit_update_record               1984/11/02
_chemical_name_systematic          'Disodium Uranyl Silicate'
_chemical_formula_structural       'Na2 U O2 Si O4'
_chemical_formula_sum              'Na2 O6 Si1 U1'
_publ_section_title
;
Crystal structure of Na2 O U2 Si O4
;
loop_
_citation_id
_citation_journal_abbrev
_citation_year
_citation_journal_volume
_citation_page_first
_citation_page_last
_citation_journal_id_ASTM
primary Kristallografiya 1974 19 958 963 KRISAJ
2 'Soviet Physics, Crystallography (= Kristallografiya)'
 1974 19 595 597 SPHCA6
_publ_author_name
;
Shashkin, D.P.;Lur'e, E.A.;Belov, N.V.
;
_cell_length_a                     12.718(1)
_cell_length_b                     12.718(1)
_cell_length_c                     13.376(1)
_cell_angle_alpha                  90.
_cell_angle_beta                   90.
_cell_angle_gamma                  90.
_cell_volume                       2163.53
_cell_formula_units_Z              16
_symmetry_space_group_name_H-M     'I 41/a c d S'
_symmetry_Int_Tables_number        142
_refine_ls_R_factor_all            .105
loop_
_symmetry_equiv_pos_site_id
_symmetry_equiv_pos_as_xyz
  1	'-y+.5, -x, z+.25'
  2	'y+.5, -x, z+.75'
  3	'-y, -x, -z+.5'
  4	'y, -x, -z'
  5	'y+.5, x, z+.25'
  6	'-y+.5, x, z+.75'
  7	'y, x, -z+.5'
  8	'-y, x, -z'
  9	'-x, y+.5, -z+.75'
 10	'-x, -y+.5, -z+.25'
 11	'-x, y, z+.5'
 12	'-x, -y, z'
 13	'x, -y+.5, -z+.75'
 14	'x, y+.5, -z+.25'
 15	'x, -y, z+.5'
 16	'x, y, z'
 17	'-y, -x+.5, z+.75'
 18	'y, -x+.5, z+.25'
 19	'-y+.5, -x+.5, -z'
 20	'y+.5, -x+.5, -z+.5'
 21	'y, x+.5, z+.75'
 22	'-y, x+.5, z+.25'
 23	'y+.5, x+.5, -z'
 24	'-y+.5, x+.5, -z+.5'
 25	'-x+.5, y, -z+.25'
 26	'-x+.5, -y, -z+.75'
 27	'-x+.5, y+.5, z'
 28	'-x+.5, -y+.5, z+.5'
 29	'x+.5, -y, -z+.25'
 30	'x+.5, y, -z+.75'
 31	'x+.5, -y+.5, z'
 32	'x+.5, y+.5, z+.5'
loop_
_atom_type_symbol
_atom_type_oxidation_number
Na1+	1
O2-	-2
Si4+	4
U6+	6
loop_
_atom_site_label
_atom_site_type_symbol
_atom_site_symmetry_multiplicity
_atom_site_Wyckoff_symbol
_atom_site_fract_x
_atom_site_fract_y
_atom_site_fract_z
_atom_site_occupancy
_atom_site_attached_hydrogens
_atom_site_B_iso_or_equiv
Na1 Na1+ 16 f 0.25 0.25 0.25 1. 0 0.61 
Na2 Na1+ 8 a 0 0 0 1. 0 0.87 
Na3 Na1+ 8 b 0 0 0.25 1. 0 -.36 
U1 U6+ 16 c 0 0.25 0.125 1. 0 0.23 
Si1 Si4+ 16 e 0.25 0.074 0.125 1. 0 -.29 
O1 O2- 32 g 0 0.25 0.278 1. 0 0.24 
O2 O2- 32 g 0.148 0.148 0.125 1. 0 1.45 
O3 O2- 32 g 0.089 0.38 0.125 1. 0 1.45 

#End of data_24975-ICSD


