data_261306-ICSD
#?2014 by Fachinformationszentrum Karlsruhe, and the U.S. Secretary of 
#Commerce on behalf of the United States.  All rights reserved.
_database_code_ICSD                261306
_audit_creation_date               2011/08/01
_chemical_name_systematic          'Aluminium Phosphate'
_chemical_formula_structural       'Al P O4'
_chemical_formula_sum              'Al1 O4 P1'
_publ_section_title
;
Structures of two new high-pressure forms of Al P O4 by X-ray powder 
diffraction and NMR spectroscopy
;
loop_
_citation_id
_citation_journal_abbrev
_citation_year
_citation_journal_volume
_citation_journal_issue
_citation_page_first
_citation_page_last
_citation_journal_id_ASTM
primary 'Acta Crystallographica B (24,1968-38,1982)' 2011 67 1 30 40 ACBCAR
_publ_author_name
;
Kanzaki, M.;Xue Xianyu;Reibstein, S.;Berryman, E.;Namgung, S.
;
_cell_length_a                     6.13219(6)
_cell_length_b                     14.34650(10)
_cell_length_c                     8.57620(9)
_cell_angle_alpha                  90.0
_cell_angle_beta                   104.7426(5)
_cell_angle_gamma                  90.0
_cell_volume                       729.66
_cell_formula_units_Z              12
_symmetry_space_group_name_H-M     'P 1 21/c 1'
_symmetry_Int_Tables_number        14
_refine_ls_R_factor_all            .036
loop_
_symmetry_equiv_pos_site_id
_symmetry_equiv_pos_as_xyz
  1	'x, -y+.5, z+.5'
  2	'-x, -y, -z'
  3	'-x, y+.5, -z+.5'
  4	'x, y, z'
loop_
_atom_type_symbol
_atom_type_oxidation_number
Al3+	3
O2-	-2
P5+	5
loop_
_atom_site_label
_atom_site_type_symbol
_atom_site_symmetry_multiplicity
_atom_site_Wyckoff_symbol
_atom_site_fract_x
_atom_site_fract_y
_atom_site_fract_z
_atom_site_occupancy
_atom_site_attached_hydrogens
Al1 Al3+ 4 e 0.7963(3) 0.59210(10) 0.6194(2) 1.0 0 
Al2 Al3+ 4 e 0.1559(4) 0.69880(10) 0.8504(2) 1.0 0 
Al3 Al3+ 4 e 0.4535(3) 0.10230(10) 0.4374(2) 1.0 0 
P1 P5+ 4 e 0.3214(3) 0.24840(10) 0.1412(2) 1.0 0 
P2 P5+ 4 e 0.6681(3) 0.04740(10) 0.8262(2) 1.0 0 
P3 P5+ 4 e 0.9140(3) 0.10270(10) 0.3284(2) 1.0 0 
O1 O2- 4 e 0.4271(6) 0.1809(2) 0.2734(4) 1.0 0 
O2 O2- 4 e 0.1566(6) 0.3211(2) 0.1907(5) 1.0 0 
O3 O2- 4 e 0.5212(6) 0.3057(3) 0.0988(5) 1.0 0 
O4 O2- 4 e 0.1792(6) 0.2042(2) 0.9896(4) 1.0 0 
O5 O2- 4 e 0.5466(6) 0.0144(2) 0.6494(4) 1.0 0 
O6 O2- 4 e 0.7705(6) 0.9662(2) 0.9264(5) 1.0 0 
O7 O2- 4 e 0.5052(6) 0.1054(3) 0.8955(4) 1.0 0 
O8 O2- 4 e 0.8652(6) 0.1143(3) 0.8068(4) 1.0 0 
O9 O2- 4 e 0.7815(5) 0.1243(2) 0.4700(4) 1.0 0 
O10 O2- 4 e 0.8616(6) 0.1881(2) 0.2109(4) 1.0 0 
O11 O2- 4 e 0.1633(6) 0.0946(3) 0.4195(4) 1.0 0 
O12 O2- 4 e 0.8310(6) 0.0121(2) 0.2476(4) 1.0 0 

#End of data_261306-ICSD


