data_166607-ICSD
#?2014 by Fachinformationszentrum Karlsruhe, and the U.S. Secretary of 
#Commerce on behalf of the United States.  All rights reserved.
_database_code_ICSD                166607
_audit_creation_date               2010/08/01
_chemical_name_systematic          'Disodium Manganese Bis(silicate)'
_chemical_formula_structural       'Na2 Mn (Si O3)2'
_chemical_formula_sum              'Mn1 Na2 O6 Si2'
_publ_section_title
;
Crystal structure of Na2 Mn (Si O3)2
;
loop_
_citation_id
_citation_journal_abbrev
_citation_year
_citation_journal_volume
_citation_journal_issue
_citation_page_first
_citation_page_last
_citation_journal_id_ASTM
primary 'Doklady Akademii Nauk SSSR' 1976 229 2 344 347 DANKAS
_publ_author_name
;
Pushcharovskii, D.Yu.;Burshtein, I.F.;Naumova, I.S.;Pobedimskaya, 
E.A.;Belov, N.V.
;
_cell_length_a                     10.354(2)
_cell_length_b                     7.374(2)
_cell_length_c                     10.251(2)
_cell_angle_alpha                  90.
_cell_angle_beta                   90.
_cell_angle_gamma                  90.
_cell_volume                       782.67
_cell_formula_units_Z              6
_symmetry_space_group_name_H-M     'P n n m'
_symmetry_Int_Tables_number        58
_refine_ls_R_factor_all            .105
loop_
_symmetry_equiv_pos_site_id
_symmetry_equiv_pos_as_xyz
  1	'x+.5, -y+.5, z+.5'
  2	'-x+.5, y+.5, z+.5'
  3	'x, y, -z'
  4	'-x, -y, -z'
  5	'-x+.5, y+.5, -z+.5'
  6	'x+.5, -y+.5, -z+.5'
  7	'-x, -y, z'
  8	'x, y, z'
loop_
_atom_type_symbol
_atom_type_oxidation_number
Mn2+	2
Na1+	1
O2-	-2
Si4+	4
loop_
_atom_site_label
_atom_site_type_symbol
_atom_site_symmetry_multiplicity
_atom_site_Wyckoff_symbol
_atom_site_fract_x
_atom_site_fract_y
_atom_site_fract_z
_atom_site_occupancy
_atom_site_attached_hydrogens
_atom_site_B_iso_or_equiv
Mn1 Mn2+ 2 a 0 0 0 1. 0 0.26 
Mn2 Mn2+ 4 g 0.759 0.264 0 1. 0 1.62 
Si1 Si4+ 8 h -0.005 0.282 0.273 1. 0 0.32 
Si2 Si4+ 4 g 0.279 0.250 0 1. 0 0.47 
Na1 Na1+ 8 h 0.266 0.480 0.266 1. 0 1.19 
Na2 Na1+ 2 c 0.5 0 0.5 1. 0 0.96 
Na3 Na1+ 2 b 0.5 0.5 0 1. 0 2.42 
O1 O2- 4 g 0.201 0.061 0 1. 0 1.24 
O2 O2- 4 g 0.196 0.433 0 1. 0 1.76 
O3 O2- 8 h 0.375 0.252 0.132 1. 0 1.40 
O4 O2- 8 h 0.624 0.293 0.165 1. 0 1.30 
O5 O2- 8 h 0.446 0.302 0.366 1. 0 1.39 
O6 O2- 4 f 0.5 0 0.256 1. 0 2.05 

#End of data_166607-ICSD


