data_50670-ICSD
#?2014 by Fachinformationszentrum Karlsruhe, and the U.S. Secretary of 
#Commerce on behalf of the United States.  All rights reserved.
_database_code_ICSD                50670
_audit_creation_date               2000/07/15
_chemical_name_systematic
;
Potassium Bis(dioxovanadium) Phosphate(V)
;
_chemical_formula_structural       'K (V O2)2 (P O4)'
_chemical_formula_sum              'K1 O8 P1 V2'
_publ_section_title
;
A vanadium(V) monophosphate with a tunnel structure: K V2 O4 P O4
;
loop_
_citation_id
_citation_journal_abbrev
_citation_year
_citation_journal_volume
_citation_page_first
_citation_page_last
_citation_journal_id_ASTM
primary 'Journal of Solid State Chemistry' 1999 145 643 648 JSSCBI
_publ_author_name
;
Berrah, F.;Borel, M.M.;Leclaire, A.;Daturi, M.;Raveau, B.
;
_cell_length_a                     13.9244(6)
_cell_length_b                     19.94589(70)
_cell_length_c                     4.7487(5)
_cell_angle_alpha                  90.
_cell_angle_beta                   90.
_cell_angle_gamma                  90.
_cell_volume                       1318.88
_cell_formula_units_Z              8
_symmetry_space_group_name_H-M     'P n 21 a'
_symmetry_Int_Tables_number        33
_refine_ls_R_factor_all            .04
loop_
_symmetry_equiv_pos_site_id
_symmetry_equiv_pos_as_xyz
  1	'x+.5, y, -z+.5'
  2	'-x+.5, y+.5, z+.5'
  3	'-x, y+.5, -z'
  4	'x, y, z'
loop_
_atom_type_symbol
_atom_type_oxidation_number
K1+	1
O2-	-2
P5+	5
V5+	5
loop_
_atom_site_label
_atom_site_type_symbol
_atom_site_symmetry_multiplicity
_atom_site_Wyckoff_symbol
_atom_site_fract_x
_atom_site_fract_y
_atom_site_fract_z
_atom_site_occupancy
_atom_site_attached_hydrogens
_atom_site_B_iso_or_equiv
V1 V5+ 4 a 0.2885(3) 0.3553 0.2043(7) 1. 0 0.77(6) 
V2 V5+ 4 a 0.4568(3) 0.3979(1) 0.7039(7) 1. 0 1.03(7) 
V3 V5+ 4 a 0.1265(2) 0.1192(3) 0.6542(7) 1. 0 1.09(7) 
V4 V5+ 4 a 0.3763(2) 0.1348(3) 0.8339(7) 1. 0 1.10(7) 
P1 P5+ 4 a 0.2329(3) 0.2603(3) 0.683(1) 1. 0 0.84(6) 
P2 P5+ 4 a 0.0168(3) 0.4970(3) 0.304(1) 1. 0 0.81(6) 
K1 K1+ 4 a 0.2894(5) 0.0036(5) 0.2889(9) 1. 0 2.21(8) 
K2 K1+ 4 a 0.0307(5) 0.2506(4) 0.197(1) 1. 0 1.97(8) 
O1 O2- 4 a 0.2315(8) 0.4202(6) 0.326(3) 1. 0 1.3(2) 
O2 O2- 4 a 0.3885(8) 0.3508(6) 0.400(2) 1. 0 1.3(2) 
O3 O2- 4 a 0.2269(8) 0.2818(7) 0.378(2) 1. 0 1.5(2) 
O4 O2- 4 a 0.2265(8) 0.3231(6) -.125(2) 1. 0 1.2(2) 
O5 O2- 4 a 0.3566(8) 0.4107(6) -.103(2) 1. 0 1.3(2) 
O6 O2- 4 a 0.5143(9) 0.3382(7) 0.828(3) 1. 0 1.7(2) 
O7 O2- 4 a 0.5239(8) 0.4366(6) 0.379(2) 1. 0 1.1(2) 
O8 O2- 4 a 0.5220(8) 0.4766(6) 0.881(2) 1. 0 1.1(2) 
O9 O2- 4 a 0.1203(9) 0.1208(9) 0.315(3) 1. 0 2.0(2) 
O10 O2- 4 a 0.244(1) 0.1047(9) 0.736(2) 1. 0 0.6(3) 
O11 O2- 4 a 0.079(1) 0.0304(9) 0.760(2) 1. 0 1.0(3) 
O12 O2- 4 a 0.147(2) 0.216(1) 0.746(2) 1. 0 0.7(3) 
O13 O2- 4 a 0.490(2) 0.152(1) 0.742(2) 1. 0 2.5(6) 
O14 O2- 4 a 0.3764(9) 0.1367(9) 1.174(3) 1. 0 2.1(2) 
O15 O2- 4 a 0.394(2) 0.044(1) 0.754(2) 1. 0 1.3(4) 
O16 O2- 4 a 0.326(1) 0.2188(9) 0.742(2) 1. 0 1.1(3) 

#End of data_50670-ICSD


