data_26600-ICSD
#?2014 by Fachinformationszentrum Karlsruhe, and the U.S. Secretary of 
#Commerce on behalf of the United States.  All rights reserved.
_database_code_ICSD                26600
_audit_creation_date               1980/01/01
_audit_update_record               2011/02/01
_chemical_name_systematic          'Potassium Dioxodifluoroiodate'
_chemical_formula_structural       'K I O2 F2'
_chemical_formula_sum              'F2 I1 K1 O2'
_publ_section_title
;
The Crystal Structure of Potassium Fluoroiodate, K I O2 F2
;
loop_
_citation_id
_citation_journal_abbrev
_citation_year
_citation_journal_volume
_citation_page_first
_citation_page_last
_citation_journal_id_ASTM
primary 'Journal of the American Chemical Society' 1940 62 1537 1542 JACSAT
_publ_author_name                  'Helmholz, L.;Rogers, M.T.'
_cell_length_a                     8.38(2)
_cell_length_b                     5.97(2)
_cell_length_c                     8.41(2)
_cell_angle_alpha                  90.
_cell_angle_beta                   90.
_cell_angle_gamma                  90.
_cell_volume                       420.74
_cell_formula_units_Z              4
_symmetry_space_group_name_H-M     'P c a 21'
_symmetry_Int_Tables_number        29
loop_
_symmetry_equiv_pos_site_id
_symmetry_equiv_pos_as_xyz
  1	'x+.5, -y, z'
  2	'-x+.5, y, z+.5'
  3	'-x, -y, z+.5'
  4	'x, y, z'
loop_
_atom_type_symbol
_atom_type_oxidation_number
F1-	-1
I5+	5
K1+	1
O2-	-2
loop_
_atom_site_label
_atom_site_type_symbol
_atom_site_symmetry_multiplicity
_atom_site_Wyckoff_symbol
_atom_site_fract_x
_atom_site_fract_y
_atom_site_fract_z
_atom_site_occupancy
_atom_site_attached_hydrogens
I1 I5+ 4 a 0 0.067(1) 0 1. 0 
K1 K1+ 4 a 0.215(5) 0.465(5) 0.290(5) 1. 0 
F1 F1- 4 a -.08(1) 0.355(10) 0.09(1) 1. 0 
F2 F1- 4 a 0.08(1) -.22(1) -.09(1) 1. 0 
O1 O2- 4 a 0.215(10) 0.175(10) 0.035(10) 1. 0 
O2 O2- 4 a -.02(1) 0.19(1) -.21(1) 1. 0 

#End of data_26600-ICSD


