data_16923-ICSD
#?2014 by Fachinformationszentrum Karlsruhe, and the U.S. Secretary of 
#Commerce on behalf of the United States.  All rights reserved.
_database_code_ICSD                16923
_audit_creation_date               1980/01/01
_audit_update_record               2010/02/01
_chemical_name_systematic          'Tricalcium Cyclo-trisilicate - Hp'
_chemical_formula_structural       'Ca3 (Si3 O9)'
_chemical_formula_sum              'Ca3 O9 Si3'
_publ_section_title
;
Crystal structure of a high-pressure polymorph of Ca Si O3
;
loop_
_citation_id
_citation_journal_abbrev
_citation_year
_citation_journal_volume
_citation_page_first
_citation_page_last
_citation_journal_id_ASTM
primary Naturwissenschaften 1968 55 442 442 NATWAY
_publ_author_name                  'Trojer, F.jr.'
_cell_length_a                     6.695
_cell_length_b                     9.257
_cell_length_c                     6.666
_cell_angle_alpha                  86.63
_cell_angle_beta                   76.13
_cell_angle_gamma                  70.4
_cell_volume                       377.74
_cell_formula_units_Z              2
_symmetry_space_group_name_H-M     'P -1'
_symmetry_Int_Tables_number        2
_refine_ls_R_factor_all            .065
loop_
_symmetry_equiv_pos_site_id
_symmetry_equiv_pos_as_xyz
  1	'-x, -y, -z'
  2	'x, y, z'
loop_
_atom_type_symbol
_atom_type_oxidation_number
Ca2+	2
O2-	-2
Si4+	4
loop_
_atom_site_label
_atom_site_type_symbol
_atom_site_symmetry_multiplicity
_atom_site_Wyckoff_symbol
_atom_site_fract_x
_atom_site_fract_y
_atom_site_fract_z
_atom_site_occupancy
_atom_site_attached_hydrogens
Ca1 Ca2+ 2 i 0.7442 0.0001 0.7623 1. 0 
Ca2 Ca2+ 2 i 0.879 0.3513 0.5845 1. 0 
Ca3 Ca2+ 2 i 0.2443 0.3357 0.9244 1. 0 
Si1 Si4+ 2 i 0.3684 0.2951 0.3917 1. 0 
Si2 Si4+ 2 i 0.7583 0.0162 0.2702 1. 0 
Si3 Si4+ 2 i 0.7219 0.3009 0.0416 1. 0 
O1 O2- 2 i 0.215 0.2567 0.2654 1. 0 
O2 O2- 2 i 0.2141 0.4056 0.5842 1. 0 
O3 O2- 2 i 0.5558 0.1359 0.4517 1. 0 
O4 O2- 2 i 0.339 0.0614 0.8717 1. 0 
O5 O2- 2 i 0.063 0.093 0.614 1. 0 
O6 O2- 2 i 0.8651 0.1386 0.1354 1. 0 
O7 O2- 2 i 0.6285 0.2627 0.8591 1. 0 
O8 O2- 2 i 0.8651 0.4029 0.9539 1. 0 
O9 O2- 2 i 0.5152 0.3855 0.2424 1. 0 

#End of data_16923-ICSD


