data_79451-ICSD
#?2014 by Fachinformationszentrum Karlsruhe, and the U.S. Secretary of 
#Commerce on behalf of the United States.  All rights reserved.
_database_code_ICSD                79451
_audit_creation_date               1996/10/14
_chemical_name_systematic          'Distrontium Calcium Iridate(VI)'
_chemical_formula_structural       'Sr2 Ca (Ir O6)'
_chemical_formula_sum              'Ca1 Ir1 O6 Sr2'
_publ_section_title
;
High oxygen pressure and the preparation of new iridium(VI) oxides 
with perovskite structure: Sr2 M Ir O6 (M=Ca,Mg)
;
loop_
_citation_id
_citation_journal_abbrev
_citation_year
_citation_journal_volume
_citation_page_first
_citation_page_last
_citation_journal_id_ASTM
primary 'Journal of Solid State Chemistry' 1995 115 447 455 JSSCBI
_publ_author_name                  'Jung, D.-Y.;Demazeau, G.'
_cell_length_a                     5.7830(2)
_cell_length_b                     5.8283(2)
_cell_length_c                     8.1997(1)
_cell_angle_alpha                  90.
_cell_angle_beta                   90.26(50)
_cell_angle_gamma                  90.
_cell_volume                       276.37
_cell_formula_units_Z              2
_symmetry_space_group_name_H-M     'P 1 21/n 1'
_symmetry_Int_Tables_number        14
_refine_ls_R_factor_all            .045
loop_
_symmetry_equiv_pos_site_id
_symmetry_equiv_pos_as_xyz
  1	'-x+.5, y+.5, -z+.5'
  2	'-x, -y, -z'
  3	'x+.5, -y+.5, z+.5'
  4	'x, y, z'
loop_
_atom_type_symbol
_atom_type_oxidation_number
Ca2+	2
Ir6+	6
O2-	-2
Sr2+	2
loop_
_atom_site_label
_atom_site_type_symbol
_atom_site_symmetry_multiplicity
_atom_site_Wyckoff_symbol
_atom_site_fract_x
_atom_site_fract_y
_atom_site_fract_z
_atom_site_occupancy
_atom_site_attached_hydrogens
_atom_site_B_iso_or_equiv
Sr1 Sr2+ 4 e 0.0061(5) 0.062(2) 0.2412(4) 1. 0 0.66(3) 
Ca1 Ca2+ 2 d 0.5 0 0 1. 0 0.35(4) 
Ir1 Ir6+ 2 c 0.5 0 0.5 1. 0 0.34(3) 
O1 O2- 4 e 0.240(2) 0.273(2) 0.030(2) 1. 0 0.20(11) 
O2 O2- 4 e 0.201(3) 0.761(2) 0.034(2) 1. 0 0.20(11) 
O3 O2- 4 e -.074(3) 0.432(2) 0.224(2) 1. 0 0.20(11) 

#End of data_79451-ICSD


