data_181641-ICSD
#?2014 by Fachinformationszentrum Karlsruhe, and the U.S. Secretary of 
#Commerce on behalf of the United States.  All rights reserved.
_database_code_ICSD                181641
_audit_creation_date               2012/02/01
_chemical_name_systematic
;
Dicalcium Copper Diarsenate Dihydrate
;
_chemical_formula_structural       'Ca2 Cu (As O4)2 (H2 O)2'
_chemical_formula_sum              'H4 As2 Ca2 Cu1 O10'
_chemical_name_mineral             Rruffite
_publ_section_title
;
Rruffite, Ca2 Cu (As O4)2 * 2(H2 O), a new member of the roselite 
group, from Tierra Amarilla, Chile
;
loop_
_citation_id
_citation_journal_abbrev
_citation_year
_citation_journal_volume
_citation_journal_issue
_citation_page_first
_citation_page_last
_citation_journal_id_ASTM
primary 'Canadian Mineralogist' 2011 49 3 877 884 CAMIA6
_publ_author_name
;
Yang He Xiong;Jenkins, R.A.;Downs, R.T.;Evans, S.H.;Tait, K.T.
;
_cell_length_a                     5.8618
_cell_length_b                     12.7854
_cell_length_c                     5.7025
_cell_angle_alpha                  90
_cell_angle_beta                   109.425
_cell_angle_gamma                  90
_cell_volume                       403.05
_cell_formula_units_Z              2
_symmetry_space_group_name_H-M     'P 1 21/c 1'
_symmetry_Int_Tables_number        14
_refine_ls_R_factor_all            .023
loop_
_symmetry_equiv_pos_site_id
_symmetry_equiv_pos_as_xyz
  1	'x, -y+.5, z+.5'
  2	'-x, -y, -z'
  3	'-x, y+.5, -z+.5'
  4	'x, y, z'
loop_
_atom_type_symbol
_atom_type_oxidation_number
As5+	5
Ca2+	2
Cu2+	2
H1+	1
O2-	-2
loop_
_atom_site_label
_atom_site_type_symbol
_atom_site_symmetry_multiplicity
_atom_site_Wyckoff_symbol
_atom_site_fract_x
_atom_site_fract_y
_atom_site_fract_z
_atom_site_occupancy
_atom_site_attached_hydrogens
_atom_site_U_iso_or_equiv
Ca1 Ca2+ 4 e 0.56418(9) 0.12303(4) 0.21155(9) 1. 0 0.0100(1) 
Cu1 Cu2+ 2 a 0.00000 0.00000 0.00000 1. 0 0.0128(1) 
As1 As5+ 4 e 0.22626(4) 0.12128(2) 0.54652(4) 1. 0 0.0080(1) 
O1 O2- 4 e 0.2381(3) 0.0379(1) 0.3183(3) 1. 0 0.0119(3) 
O2 O2- 4 e 0.3018(3) 0.0542(1) 0.8149(3) 1. 0 0.0112(3) 
O3 O2- 4 e 0.9533(3) 0.1749(1) 0.4816(4) 1. 0 0.0121(3) 
O4 O2- 4 e 0.4468(3) 0.2067(1) 0.5496(4) 1. 0 0.0126(4) 
O5 O2- 4 e 0.8261(4) 0.1361(1) 0.9559(4) 1. 0 0.0112(3) 
H1 H1+ 4 e 0.731(7) 0.141(3) 0.855(9) 1. 0 0.04000 
H2 H1+ 4 e 0.897(7) 0.197(3) 0.983(8) 1. 0 0.04000 

loop_
_atom_site_aniso_label
_atom_site_aniso_type_symbol
_atom_site_aniso_U_11
_atom_site_aniso_U_22
_atom_site_aniso_U_33
_atom_site_aniso_U_12
_atom_site_aniso_U_13
_atom_site_aniso_U_23
Ca1 Ca2+ 0.00890 0.00940 0.01190 -0.00030 0.00380 -0.00100
Cu1 Cu2+ 0.01090 0.01210 0.01360 0.00010 0.00160 -0.00440
As1 As5+ 0.00740 0.00760 0.00840 0.00020 0.00190 -0.00010
O1 O2- 0.01020 0.01350 0.01180 -0.00060 0.00320 -0.00480
O2 O2- 0.01240 0.01040 0.01060 0.00110 0.00370 0.00260
O3 O2- 0.00830 0.01260 0.01420 0.00410 0.00200 0.00010
O4 O2- 0.01140 0.01160 0.01560 -0.00490 0.00560 -0.00240
O5 O2- 0.01120 0.00950 0.01050 -0.00090 0.00040 -0.00110
#End of data_181641-ICSD


