data_51545-ICSD
#?2014 by Fachinformationszentrum Karlsruhe, and the U.S. Secretary of 
#Commerce on behalf of the United States.  All rights reserved.
_database_code_ICSD                51545
_audit_creation_date               2003/04/01
_chemical_name_systematic          'Dicalcium Digallate'
_chemical_formula_structural       'Ca2 (Ga2 O5)'
_chemical_formula_sum              'Ca2 Ga2 O5'
_publ_section_title
;
Ca2 Ga2 O5: a new high pressure oxogallate
;
loop_
_citation_id
_citation_journal_abbrev
_citation_year
_citation_journal_volume
_citation_page_first
_citation_page_last
_citation_journal_id_ASTM
primary 'Zeitschrift fuer Kristallographie (1979-2010)' 2001 216 206 209 ZEKRDZ
_publ_author_name                  'Kahlenberg, V.;Shaw, C.S.J.'
_cell_length_a                     5.3525(1)
_cell_length_b                     14.6666(1)
_cell_length_c                     5.5651(1)
_cell_angle_alpha                  90
_cell_angle_beta                   90
_cell_angle_gamma                  90
_cell_volume                       436.88
_cell_formula_units_Z              4
_symmetry_space_group_name_H-M     'I 2 m b'
_symmetry_Int_Tables_number        46
_refine_ls_R_factor_all            .02
loop_
_symmetry_equiv_pos_site_id
_symmetry_equiv_pos_as_xyz
  1	'x, y+.5, -z'
  2	'x, -y+.5, z'
  3	'x, -y, -z'
  4	'x, y, z'
  5	'x+.5, y, -z+.5'
  6	'x+.5, -y, z+.5'
  7	'x+.5, -y+.5, -z+.5'
  8	'x+.5, y+.5, z+.5'
loop_
_atom_type_symbol
_atom_type_oxidation_number
Ca2+	2
Ga3+	3
O2-	-2
loop_
_atom_site_label
_atom_site_type_symbol
_atom_site_symmetry_multiplicity
_atom_site_Wyckoff_symbol
_atom_site_fract_x
_atom_site_fract_y
_atom_site_fract_z
_atom_site_occupancy
_atom_site_attached_hydrogens
_atom_site_U_iso_or_equiv
Ga1 Ga3+ 4 a 0.5 0.5 0.5 1. 0 0.0031(1) 
Ga2 Ga3+ 4 b 0.4516(1) 0.25 0.5705(1) 1. 0 0.0030(1) 
Ca1 Ca2+ 8 c 0.4903(2) 0.60736(4) 0.9730(1) 1. 0 0.0049(1) 
O1 O2- 8 c 0.5254(4) 0.3585(2) 0.4302(5) 1. 0 0.0077(5) 
O2 O2- 4 b 0.6021(6) 0.25 0.8768(6) 1. 0 0.0046(7) 
O3 O2- 8 c 0.2490(5) 0.5136(2) 0.2521(8) 1. 0 0.0045(4) 

loop_
_atom_site_aniso_label
_atom_site_aniso_type_symbol
_atom_site_aniso_U_11
_atom_site_aniso_U_22
_atom_site_aniso_U_33
_atom_site_aniso_U_12
_atom_site_aniso_U_13
_atom_site_aniso_U_23
Ga1 Ga3+ 0.0012(2) 0.0065(3) 0.0017(2) 0 0 0.0002(2)
Ga2 Ga3+ 0.0041(2) 0.0014(2) 0.0036(2) 0 0.0001(2) 0
Ca1 Ca2+ 0.0063(3) 0.0032(3) 0.0052(3) -0.0006(4) 0.0002(3) -0.0004(2)
O1 O2- 0.0109(13) 0.0052(13) 0.0070(11) -0.0022(8) 0.0008(11) 0.0021(8)
O2 O2- 0.0025(14) 0.0070(21) 0.0041(17) 0 -0.0012(11) 0
O3 O2- 0.0026(9) 0.0049(13) 0.0059(10) 0.0002(9) -0.0028(7) -0.0011(15)
#End of data_51545-ICSD


