data_163983-ICSD
#?2014 by Fachinformationszentrum Karlsruhe, and the U.S. Secretary of 
#Commerce on behalf of the United States.  All rights reserved.
_database_code_ICSD                163983
_audit_creation_date               2009/08/01
_chemical_name_systematic          'Trisilver Copper(I) Sulfide'
_chemical_formula_structural       'Ag3 Cu S2'
_chemical_formula_sum              'Ag3 Cu1 S2'
_chemical_name_mineral             Jalpaite
_publ_section_title
;
Phase transitions in jalpaite, Ag3 Cu S2
;
loop_
_citation_id
_citation_journal_abbrev
_citation_year
_citation_journal_volume
_citation_page_first
_citation_page_last
_citation_journal_id_ASTM
primary 'Journal of Physics: Condensed Matter' 2008 20 455204-1 455204-10 JCOMEL
_publ_author_name
;
Trots, D.M.;Senyshyn, A.;Mikhailova, D.A.;Vad, T.;Fuess, H.
;
_cell_length_a                     8.6200(3)
_cell_length_b                     8.6200(3)
_cell_length_c                     11.7091(5)
_cell_angle_alpha                  90.
_cell_angle_beta                   90.
_cell_angle_gamma                  90.
_cell_volume                       870.04
_cell_formula_units_Z              8
_symmetry_space_group_name_H-M     'I 41/a Z'
_symmetry_Int_Tables_number        88
_refine_ls_R_factor_all            .053
loop_
_symmetry_equiv_pos_site_id
_symmetry_equiv_pos_as_xyz
  1	'-y+.75, x+.75, -z+.75'
  2	'y+.25, -x+.75, -z+.75'
  3	'x, y+.5, -z'
  4	'-x, -y, -z'
  5	'y+.25, -x+.25, z+.25'
  6	'-y+.75, x+.25, z+.25'
  7	'-x, -y+.5, z'
  8	'x, y, z'
  9	'-y+.25, x+.25, -z+.25'
 10	'y+.75, -x+.25, -z+.25'
 11	'x+.5, y, -z+.5'
 12	'-x+.5, -y+.5, -z+.5'
 13	'y+.75, -x+.75, z+.75'
 14	'-y+.25, x+.75, z+.75'
 15	'-x+.5, -y, z+.5'
 16	'x+.5, y+.5, z+.5'
loop_
_atom_type_symbol
_atom_type_oxidation_number
Ag1+	1
Cu1+	1
S2-	-2
loop_
_atom_site_label
_atom_site_type_symbol
_atom_site_symmetry_multiplicity
_atom_site_Wyckoff_symbol
_atom_site_fract_x
_atom_site_fract_y
_atom_site_fract_z
_atom_site_occupancy
_atom_site_attached_hydrogens
_atom_site_U_iso_or_equiv
Ag1 Ag1+ 8 c 0 0 0 1. 0 0.0148(6) 
Ag2 Ag1+ 16 f 0.2826(2) 0.0925(2) 0.8560(1) 1. 0 0.0138(4) 
Cu1 Cu1+ 8 e 0 0.25 0.4688(2) 1. 0 0.0019(8) 
S1 S2- 16 f 0.0129(6) 0.0018(5) 0.2177(2) 1. 0 0.001 

#End of data_163983-ICSD


