data_89742-ICSD
#?2014 by Fachinformationszentrum Karlsruhe, and the U.S. Secretary of 
#Commerce on behalf of the United States.  All rights reserved.
_database_code_ICSD                89742
_audit_creation_date               2002/04/01
_chemical_name_systematic          'Calcium Oxotitanium Silicate'
_chemical_formula_structural       'Ca (Ti O) (Si O4)'
_chemical_formula_sum              'Ca1 O5 Si1 Ti1'
_chemical_name_mineral             Titanite
_publ_section_title
;
In situ powder diffraction study of titanite (Ca Ti O Si O4) at high 
pressure and high temperature
;
loop_
_citation_id
_citation_journal_abbrev
_citation_year
_citation_journal_volume
_citation_page_first
_citation_page_last
_citation_journal_id_ASTM
primary 'American Mineralogist' 2000 85 1465 1473 AMMIAY
_publ_author_name                  'Kunz, M.;Arlt, T.;Stolz, J.'
_cell_length_a                     7.0572(3)
_cell_length_b                     8.7108(4)
_cell_length_c                     6.5534(4)
_cell_angle_alpha                  90.
_cell_angle_beta                   113.786(5)
_cell_angle_gamma                  90.
_cell_volume                       368.64
_cell_formula_units_Z              4
_symmetry_space_group_name_H-M     'P 1 21/a 1'
_symmetry_Int_Tables_number        14
_refine_ls_R_factor_all            .009
loop_
_symmetry_equiv_pos_site_id
_symmetry_equiv_pos_as_xyz
  1	'x+.5, -y+.5, z'
  2	'-x, -y, -z'
  3	'-x+.5, y+.5, -z'
  4	'x, y, z'
loop_
_atom_type_symbol
_atom_type_oxidation_number
Ca2+	2
O2-	-2
Si4+	4
Ti4+	4
loop_
_atom_site_label
_atom_site_type_symbol
_atom_site_symmetry_multiplicity
_atom_site_Wyckoff_symbol
_atom_site_fract_x
_atom_site_fract_y
_atom_site_fract_z
_atom_site_occupancy
_atom_site_attached_hydrogens
_atom_site_U_iso_or_equiv
Ca1 Ca2+ 4 e 0.239(4) 0.913(1) 0.750(5) 1. 0 0.008 
Ti1 Ti4+ 4 e 0.527(3) 0.753(3) 0.246(3) 1. 0 0.002 
Si1 Si4+ 4 e 0.759(4) 0.934(2) 0.774(4) 1. 0 0.0015 
O1 O2- 4 e 0.766(10) 0.810(2) 0.270(9) 1. 0 0.004 
O2 O2- 4 e 0.897(5) 0.800(4) 0.928(5) 1. 0 0.004 
O3 O2- 4 e 0.353(6) 0.945(5) 0.125(6) 1. 0 0.004 
O4 O2- 4 e 0.895(5) 0.338(4) 0.436(5) 1. 0 0.004 
O5 O2- 4 e 0.378(5) 0.468(4) 0.646(7) 1. 0 0.004 

#End of data_89742-ICSD


