data_15636-ICSD
#?2014 by Fachinformationszentrum Karlsruhe, and the U.S. Secretary of 
#Commerce on behalf of the United States.  All rights reserved.
_database_code_ICSD                15636
_audit_creation_date               1980/01/01
_audit_update_record               1985/04/24
_chemical_name_systematic          'Zinc Diindium Sulfide'
_chemical_formula_structural       'Zn In2 S4'
_chemical_formula_sum              'In2 S4 Zn1'
_publ_section_title
;
Eine Hochdruckphase des Zn In2 S4 mit Spinellstruktur
;
loop_
_citation_id
_citation_journal_abbrev
_citation_year
_citation_journal_volume
_citation_page_first
_citation_page_last
_citation_journal_id_ASTM
primary
;
Zeitschrift fuer Naturforschung, Teil B. Anorganische Chemie, 
Organische Chemie (2,1947-32,1977)
;
 1969 24 811 812 ZENBAX
_publ_author_name                  'Range, K.J.;Becker, W.;Weiss, A.'
_cell_length_a                     3.85
_cell_length_b                     3.85
_cell_length_c                     37.06
_cell_angle_alpha                  90.
_cell_angle_beta                   90.
_cell_angle_gamma                  120.
_cell_volume                       475.73
_cell_formula_units_Z              3
_symmetry_space_group_name_H-M     'R 3 m H'
_symmetry_Int_Tables_number        160
loop_
_symmetry_equiv_pos_site_id
_symmetry_equiv_pos_as_xyz
  1	'-x+y, y, z'
  2	'x, x-y, z'
  3	'-y, -x, z'
  4	'-x+y, -x, z'
  5	'-y, x-y, z'
  6	'x, y, z'
  7	'-x+y+.6666, y+.3333, z+.3333'
  8	'-x+y+.3333, y+.6666, z+.6666'
  9	'x+.6666, x-y+.3333, z+.3333'
 10	'x+.3333, x-y+.6666, z+.6666'
 11	'-y+.6666, -x+.3333, z+.3333'
 12	'-y+.3333, -x+.6666, z+.6666'
 13	'-x+y+.6666, -x+.3333, z+.3333'
 14	'-x+y+.3333, -x+.6666, z+.6666'
 15	'-y+.6666, x-y+.3333, z+.3333'
 16	'-y+.3333, x-y+.6666, z+.6666'
 17	'x+.6666, y+.3333, z+.3333'
 18	'x+.3333, y+.6666, z+.6666'
loop_
_atom_type_symbol
_atom_type_oxidation_number
In3+	3
S2-	-2
Zn2+	2
loop_
_atom_site_label
_atom_site_type_symbol
_atom_site_symmetry_multiplicity
_atom_site_Wyckoff_symbol
_atom_site_fract_x
_atom_site_fract_y
_atom_site_fract_z
_atom_site_occupancy
_atom_site_attached_hydrogens
In1 In3+ 3 a 0 0 0.166 1. 0 
In2 In3+ 3 a 0 0 0.937 1. 0 
Zn1 Zn2+ 3 a 0 0 0.396 1. 0 
S1 S2- 3 a 0 0 0.04 1. 0 
S2 S2- 3 a 0 0 0.294 1. 0 
S3 S2- 3 a 0 0 0.459 1. 0 
S4 S2- 3 a 0 0 0.872 1. 0 

#End of data_15636-ICSD


