data_249020-ICSD
#?2014 by Fachinformationszentrum Karlsruhe, and the U.S. Secretary of 
#Commerce on behalf of the United States.  All rights reserved.
_database_code_ICSD                249020
_audit_creation_date               2007/08/01
_chemical_name_systematic          'Aluminium Gadolinium Oxide'
_chemical_formula_structural       'Al Gd O3'
_chemical_formula_sum              'Al1 Gd1 O3'
_publ_section_title
;
Stability and oxide ion conductivity in rare-earth aluminium 
cuspinides
;
loop_
_citation_id
_citation_journal_abbrev
_citation_year
_citation_journal_volume
_citation_journal_issue
_citation_page_first
_citation_page_last
_citation_journal_id_ASTM
primary 'Journal of Solid State Chemistry' 2006 179 11 3445 3455 JSSCBI
_publ_author_name
;
Martin-Sedeno, M.C.;Marrero-Lopez, D.;Losilla, E.R.;Bruque, S.;Nunez, 
P.;Aranda, M.A.G.
;
_cell_length_a                     5.25614(28)
_cell_length_b                     5.30421(31)
_cell_length_c                     7.4520(4)
_cell_angle_alpha                  90.0
_cell_angle_beta                   90.0
_cell_angle_gamma                  90.0
_cell_volume                       207.76
_cell_formula_units_Z              4
_symmetry_space_group_name_H-M     'P b n m'
_symmetry_Int_Tables_number        62
_refine_ls_R_factor_all            .0392
loop_
_symmetry_equiv_pos_site_id
_symmetry_equiv_pos_as_xyz
  1	'-x+.5, y+.5, z'
  2	'x, y, -z+.5'
  3	'x+.5, -y+.5, z+.5'
  4	'-x, -y, -z'
  5	'x+.5, -y+.5, -z'
  6	'-x, -y, z+.5'
  7	'-x+.5, y+.5, -z+.5'
  8	'x, y, z'
loop_
_atom_type_symbol
_atom_type_oxidation_number
Al3+	3
Gd3+	3
O2-	-2
loop_
_atom_site_label
_atom_site_type_symbol
_atom_site_symmetry_multiplicity
_atom_site_Wyckoff_symbol
_atom_site_fract_x
_atom_site_fract_y
_atom_site_fract_z
_atom_site_occupancy
_atom_site_attached_hydrogens
_atom_site_U_iso_or_equiv
Gd1 Gd3+ 4 c 0.9916 0.0123 0.25 1.0 0 0.00785 
Al1 Al3+ 4 b 0.5 0.0 0.0 1.0 0 0.0057 
O1 O2- 4 c 0.0586 0.4687 0.25 1.0 0 0.0152 
O2 O2- 8 d 0.713 0.288 0.0371 1.0 0 0.0165 

#End of data_249020-ICSD


