data_65463-ICSD
#?2014 by Fachinformationszentrum Karlsruhe, and the U.S. Secretary of 
#Commerce on behalf of the United States.  All rights reserved.
_database_code_ICSD                65463
_audit_creation_date               1989/12/04
_chemical_name_systematic          'Sodium Tetraiodoindate'
_chemical_formula_structural       'Na (In I4)'
_chemical_formula_sum              'I4 In1 Na1'
_publ_section_title
;
Synthese und Kristallstrukturen von Na In Br4 und Na In I4
;
loop_
_citation_id
_citation_journal_abbrev
_citation_year
_citation_journal_volume
_citation_page_first
_citation_page_last
_citation_journal_id_ASTM
primary 'Zeitschrift fuer Anorganische und Allgemeine Chemie (1950) (DE)'
 1989 574 107 113 ZAACAB
_publ_author_name                  'Staffel, T.;Meyer, G.'
_cell_length_a                     8.521(2)
_cell_length_b                     7.661(2)
_cell_length_c                     15.583(3)
_cell_angle_alpha                  90.
_cell_angle_beta                   92.65(2)
_cell_angle_gamma                  90.
_cell_volume                       1016.16
_cell_formula_units_Z              4
_symmetry_space_group_name_H-M     'P 1 21/c 1'
_symmetry_Int_Tables_number        14
_refine_ls_R_factor_all            .064
loop_
_symmetry_equiv_pos_site_id
_symmetry_equiv_pos_as_xyz
  1	'x, -y+.5, z+.5'
  2	'-x, -y, -z'
  3	'-x, y+.5, -z+.5'
  4	'x, y, z'
loop_
_atom_type_symbol
_atom_type_oxidation_number
I1-	-1
In3+	3
Na1+	1
loop_
_atom_site_label
_atom_site_type_symbol
_atom_site_symmetry_multiplicity
_atom_site_Wyckoff_symbol
_atom_site_fract_x
_atom_site_fract_y
_atom_site_fract_z
_atom_site_occupancy
_atom_site_attached_hydrogens
Na1 Na1+ 4 e 0.8465(4) 0.0013(5) 0.6032(2) 1. 0 
In1 In3+ 4 e 0.70236(6) 0.80829(7) 0.40084(3) 1. 0 
I1 I1- 4 e 0.67830(7) 0.66354(9) 0.55734(3) 1. 0 
I2 I1- 4 e 0.19402(6) 0.85686(7) 0.57147(3) 1. 0 
I3 I1- 4 e 0.94451(6) 0.64936(8) 0.32103(3) 1. 0 
I4 I1- 4 e 0.44017(6) 0.78805(8) 0.29846(3) 1. 0 

loop_
_atom_site_aniso_label
_atom_site_aniso_type_symbol
_atom_site_aniso_U_11
_atom_site_aniso_U_22
_atom_site_aniso_U_33
_atom_site_aniso_U_12
_atom_site_aniso_U_13
_atom_site_aniso_U_23
Na1 Na1+ 0.0564(21) 0.0825(29) 0.0535(19) -.0034(20) 0.0010(15) -.0086(18)
In1 In3+ 0.0349(3) 0.0439(2) 0.0342(2) -.0019(3) 0.0008(2) -.0016(2)
I1 I1- 0.0636(4) 0.0660(4) 0.0428(3) -.0198(3) -.0014(2) 0.0127(3)
I2 I1- 0.0490(3) 0.0384(3) 0.0520(3) -.0003(2) -.0061(2) -.0001(2)
I3 I1- 0.0418(3) 0.0581(4) 0.0592(3) 0.0032(3) 0.0053(2) -.0181(3)
I4 I1- 0.0414(3) 0.0550(3) 0.0462(3) -.0011(3) -.0078(2) -.0061(2)
#End of data_65463-ICSD


