data_411290-ICSD
#?2014 by Fachinformationszentrum Karlsruhe, and the U.S. Secretary of 
#Commerce on behalf of the United States.  All rights reserved.
_database_code_ICSD                411290
_audit_creation_date               2002/04/01
_chemical_name_systematic
;
Dipotassium Diaquapentakis(nitrato)neodymate
;
_chemical_formula_structural       'K2 (Nd (N O3)5 ( H2 O)2)'
_chemical_formula_sum              'H4 K2 N5 Nd1 O17'
_publ_section_title
;
Polar potassium rare earth nitrates K2 (RE (N O3)5 (H2 O)2) (RE= La, 
Ce,Pr and Nd). I. Crystal growth and crystal structures
;
loop_
_citation_id
_citation_journal_abbrev
_citation_year
_citation_journal_volume
_citation_page_first
_citation_page_last
_citation_journal_id_ASTM
primary 'Journal of Applied Crystallography' 2000 33 372 377 JACGAR
_publ_author_name
;
Held, P.;Hellwig, H.;Ruehle, S.;Bohaty, L.
;
_cell_length_a                     11.197(1)
_cell_length_b                     21.3780(10)
_cell_length_c                     12.1951(9)
_cell_angle_alpha                  90.
_cell_angle_beta                   90.
_cell_angle_gamma                  90.
_cell_volume                       2919.13
_cell_formula_units_Z              8
_symmetry_space_group_name_H-M     'F d d 2'
_symmetry_Int_Tables_number        43
_refine_ls_R_factor_all            .0168
loop_
_symmetry_equiv_pos_site_id
_symmetry_equiv_pos_as_xyz
  1	'x+.25, -y+.25, z+.25'
  2	'-x+.25, y+.25, z+.25'
  3	'-x, -y, z'
  4	'x, y, z'
  5	'x+.25, -y+.75, z+.75'
  6	'x+.75, -y+.25, z+.75'
  7	'x+.75, -y+.75, z+.25'
  8	'-x+.25, y+.75, z+.75'
  9	'-x+.75, y+.25, z+.75'
 10	'-x+.75, y+.75, z+.25'
 11	'-x, -y+.5, z+.5'
 12	'-x+.5, -y, z+.5'
 13	'-x+.5, -y+.5, z'
 14	'x, y+.5, z+.5'
 15	'x+.5, y, z+.5'
 16	'x+.5, y+.5, z'
loop_
_atom_type_symbol
_atom_type_oxidation_number
H1+	1
K1+	1
N5+	5
Nd3+	3
O2-	-2
loop_
_atom_site_label
_atom_site_type_symbol
_atom_site_symmetry_multiplicity
_atom_site_Wyckoff_symbol
_atom_site_fract_x
_atom_site_fract_y
_atom_site_fract_z
_atom_site_occupancy
_atom_site_attached_hydrogens
_atom_site_U_iso_or_equiv
Nd1 Nd3+ 8 a 0 0 0.00000(3) 1. 0 0 
O1 O2- 16 b 0.1832(2) 0.04869(10) 0.0913(2) 1. 0 0 
O2 O2- 16 b 0.21939(19) -.03952(10) 0.0125(3) 1. 0 0 
O3 O2- 16 b 0.3670(2) 0.01663(13) 0.0728(3) 1. 0 0 
O4 O2- 16 b 0.1404(2) 0.05836(11) -.1438(2) 1. 0 0 
O5 O2- 16 b -.0480(2) 0.06036(10) -.1779(2) 1. 0 0 
O6 O2- 16 b 0.0768(2) 0.10136(12) -.2945(2) 1. 0 0 
O7 O2- 16 b 0.0390(3) -.04576(12) 0.2026(2) 1. 0 0 
O8 O2- 8 a 0 0 0.3566(4) 1. 0 0 
K1 K1+ 16 b 0.05844(6) 0.10404(3) 0.48018(7) 1. 0 0 
N1 N5+ 16 b 0.2607(2) 0.00891(12) 0.0593(2) 1. 0 0 
N2 N5+ 16 b 0.0572(2) 0.07420(12) -.2080(2) 1. 0 0 
N3 N5+ 8 a 0 0 0.2562(4) 1. 0 0 
O9 O2- 16 b -.0145(2) 0.12206(11) 0.0261(2) 1. 0 0 
H1 H1+ 16 b -.036(5) 0.145(3) -.027(5) 1. 0 0.06(1) 
H2 H1+ 16 b 0.047(5) 0.134(3) 0.030(5) 1. 0 0.06(1) 

loop_
_atom_site_aniso_label
_atom_site_aniso_type_symbol
_atom_site_aniso_U_11
_atom_site_aniso_U_22
_atom_site_aniso_U_33
_atom_site_aniso_U_12
_atom_site_aniso_U_13
_atom_site_aniso_U_23
Nd1 Nd3+ 0.01458(8) 0.01633(9) 0.01666(9) 0.00163(9) 0 0
O1 O2- 0.0247(10) 0.022(1) 0.0309(13) 0.0049(8) -.006(1) -.0078(10)
O2 O2- 0.0214(9) 0.0249(9) 0.0410(16) 0.0023(8) -.0026(10) -.0095(11)
O3 O2- 0.0172(10) 0.0401(12) 0.0527(19) -.0027(9) -.0085(12) -.0029(13)
O4 O2- 0.0206(10) 0.0334(12) 0.0322(13) -.0020(9) -.0074(10) 0.0044(11)
O5 O2- 0.0199(10) 0.0226(10) 0.0259(12) -.0018(8) -.0011(9) 0.0034(9)
O6 O2- 0.0395(13) 0.0379(13) 0.0237(12) -.0065(11) 0.0032(11) 0.0098(11)
O7 O2- 0.0445(14) 0.0273(12) 0.0340(15) 0.0124(12) -.0090(12) -.0054(12)
O8 O2- 0.115(5) 0.054(3) 0.0174(19) -.022(3) 0 0
K1 K1+ 0.0255(3) 0.0280(3) 0.0358(4) 0.0015(2) -.0052(3) -.0005(3)
N1 N5+ 0.0173(10) 0.0226(11) 0.0236(14) 0.0025(8) -.0026(10) 0.000(1)
N2 N5+ 0.0232(12) 0.0191(11) 0.0234(13) -.0057(10) -.0003(11) -.0016(11)
N3 N5+ 0.038(2) 0.0269(18) 0.0186(19) -.0056(13) 0 0
O9 O2- 0.0277(13) 0.0222(9) 0.0292(16) -.0023(9) -.0090(11) 0.0054(9)
#End of data_411290-ICSD


