data_73186-ICSD
#?2014 by Fachinformationszentrum Karlsruhe, and the U.S. Secretary of 
#Commerce on behalf of the United States.  All rights reserved.
_database_code_ICSD                73186
_audit_creation_date               1994/06/30
_chemical_name_systematic
;
Pentabarium Tetrazinc Octaholmium Oxide
;
_chemical_formula_structural       'Ba5 Zn4 Ho8 O21'
_chemical_formula_sum              'Ba5 Ho8 O21 Zn4'
_publ_section_title
;
Zwei neue Verbindungen mit Zink in tetragonal pyramidaler 
Koordination: BaZnDy2O5 und Ba1.25ZnHo2O5.25 (Ba5Zn4Ho8O21)
;
loop_
_citation_id
_citation_journal_abbrev
_citation_year
_citation_journal_volume
_citation_page_first
_citation_page_last
_citation_journal_id_ASTM
primary 'Zeitschrift fuer Anorganische und Allgemeine Chemie (1950) (DE)'
 1993 619 529 533 ZAACAB
_publ_author_name                  'Mueller Buschbaum, H.;Rabbow, C.'
_cell_length_a                     13.7793(15)
_cell_length_b                     13.7793(15)
_cell_length_c                     5.7073(16)
_cell_angle_alpha                  90.
_cell_angle_beta                   90.
_cell_angle_gamma                  90.
_cell_volume                       1083.64
_cell_formula_units_Z              2
_symmetry_space_group_name_H-M     'I 4/m'
_symmetry_Int_Tables_number        87
_refine_ls_R_factor_all            .045
loop_
_symmetry_equiv_pos_site_id
_symmetry_equiv_pos_as_xyz
  1	'-y, x, -z'
  2	'y, -x, -z'
  3	'x, y, -z'
  4	'-x, -y, -z'
  5	'y, -x, z'
  6	'-y, x, z'
  7	'-x, -y, z'
  8	'x, y, z'
  9	'-y+.5, x+.5, -z+.5'
 10	'y+.5, -x+.5, -z+.5'
 11	'x+.5, y+.5, -z+.5'
 12	'-x+.5, -y+.5, -z+.5'
 13	'y+.5, -x+.5, z+.5'
 14	'-y+.5, x+.5, z+.5'
 15	'-x+.5, -y+.5, z+.5'
 16	'x+.5, y+.5, z+.5'
loop_
_atom_type_symbol
_atom_type_oxidation_number
Ba2+	2
Ho3+	3
O2-	-2
Zn2+	2
loop_
_atom_site_label
_atom_site_type_symbol
_atom_site_symmetry_multiplicity
_atom_site_Wyckoff_symbol
_atom_site_fract_x
_atom_site_fract_y
_atom_site_fract_z
_atom_site_occupancy
_atom_site_attached_hydrogens
_atom_site_B_iso_or_equiv
Ba1 Ba2+ 2 a 0 0 0 1. 0 0.96(6) 
Ba2 Ba2+ 8 h 0.5345(1) 0.1392(2) 0 1. 0 1.03(3) 
Zn1 Zn2+ 8 h 0.0409(3) 0.2511(3) 0 1. 0 1.00(6) 
Ho1 Ho3+ 8 h 0.2480(1) 0.1674(1) 0 1. 0 0.84(2) 
Ho2 Ho3+ 8 h 0.4117(1) 0.3575(1) 0 1. 0 0.84(2) 
O1 O2- 2 b 0.5 0.5 0 1. 0 0.87(63) 
O2 O2- 8 h 0.629(2) 0.959(2) 0 1. 0 1.58(39) 
O3 O2- 16 i 0.681(1) 0.548(1) 0.748(3) 1. 0 1.50(32) 
O4 O2- 16 i 0.351(1) 0.243(1) 0.249(3) 1. 0 1.11(24) 

#End of data_73186-ICSD


