data_18114-ICSD
#?2014 by Fachinformationszentrum Karlsruhe, and the U.S. Secretary of 
#Commerce on behalf of the United States.  All rights reserved.
_database_code_ICSD                18114
_audit_creation_date               1980/01/01
_audit_update_record               2007/08/01
_chemical_name_systematic          'Dicalcium Zinc Disilicate'
_chemical_formula_structural       'Ca2 Zn (Si2 O7)'
_chemical_formula_sum              'Ca2 O7 Si2 Zn1'
_chemical_name_mineral             Hardystonite
_publ_section_title
;
Refinemente of the crystal structure of hardystonite, Ca2 Zn Si2 O7
;
loop_
_citation_id
_citation_journal_abbrev
_citation_year
_citation_journal_volume
_citation_page_first
_citation_page_last
_citation_journal_id_ASTM
primary
;
Zeitschrift fuer Kristallographie, Kristallgeometrie, Kristallphysik, 
Kristallchemie (-144,1977)
;
 1969 130 427 437 ZEKGAX
_publ_author_name                  'Louisnathan, S.J.'
_cell_length_a                     7.8279(10)
_cell_length_b                     7.8279(10)
_cell_length_c                     5.0138(6)
_cell_angle_alpha                  90.
_cell_angle_beta                   90.
_cell_angle_gamma                  90.
_cell_volume                       307.23
_cell_formula_units_Z              2
_symmetry_space_group_name_H-M     'P -4 21 m'
_symmetry_Int_Tables_number        113
_refine_ls_R_factor_all            .053
loop_
_symmetry_equiv_pos_site_id
_symmetry_equiv_pos_as_xyz
  1	'-y+.5, -x+.5, z'
  2	'y, -x, -z'
  3	'y+.5, x+.5, z'
  4	'-y, x, -z'
  5	'x+.5, -y+.5, -z'
  6	'-x, -y, z'
  7	'-x+.5, y+.5, -z'
  8	'x, y, z'
loop_
_atom_type_symbol
_atom_type_oxidation_number
Ca2+	2
O2-	-2
Si4+	4
Zn2+	2
loop_
_atom_site_label
_atom_site_type_symbol
_atom_site_symmetry_multiplicity
_atom_site_Wyckoff_symbol
_atom_site_fract_x
_atom_site_fract_y
_atom_site_fract_z
_atom_site_occupancy
_atom_site_attached_hydrogens
Ca1 Ca2+ 4 e 0.3322(1) 0.1678(1) 0.5061(3) 1. 0 
Zn1 Zn2+ 2 a 0 0 0 1. 0 
Si1 Si4+ 4 e 0.1393(2) 0.3607(2) 0.9304(3) 1. 0 
O1 O2- 2 c 0.5 0 0.1771(15) 1. 0 
O2 O2- 4 e 0.1400(5) 0.3600(5) 0.2551(11) 1. 0 
O3 O2- 8 f 0.0818(7) 0.1885(5) 0.7847(9) 1. 0 

#End of data_18114-ICSD


