data_186161-ICSD
#?2014 by Fachinformationszentrum Karlsruhe, and the U.S. Secretary of 
#Commerce on behalf of the United States.  All rights reserved.
_database_code_ICSD                186161
_audit_creation_date               2013/02/01
_chemical_name_systematic          'Zinc Tungstate'
_chemical_formula_structural       'Zn (W O4)'
_chemical_formula_sum              'O4 W1 Zn1'
_publ_section_title
;
Ab-initio studies of the electronic and optical properties of Zn W O4 
and Cd W O4 single crystals
;
loop_
_citation_id
_citation_journal_abbrev
_citation_year
_citation_journal_volume
_citation_journal_issue
_citation_page_first
_citation_page_last
_citation_journal_id_ASTM
primary 'Materials Chemistry and Physics' 2012 134 2-3 1113 1120 MCHPDR
_publ_author_name                  'Brik, M.G.;Nagirnyi, V.;Kirm, M.'
_cell_length_a                     4.7216
_cell_length_b                     5.8381
_cell_length_c                     4.9426
_cell_angle_alpha                  90.
_cell_angle_beta                   90.9486
_cell_angle_gamma                  90.
_cell_volume                       136.22
_cell_formula_units_Z              2
_symmetry_space_group_name_H-M     'P 1 2/c 1'
_symmetry_Int_Tables_number        13
loop_
_symmetry_equiv_pos_site_id
_symmetry_equiv_pos_as_xyz
  1	'x, -y, z+.5'
  2	'-x, -y, -z'
  3	'-x, y, -z+.5'
  4	'x, y, z'
loop_
_atom_type_symbol
_atom_type_oxidation_number
O2-	-2
W6+	6
Zn2+	2
loop_
_atom_site_label
_atom_site_type_symbol
_atom_site_symmetry_multiplicity
_atom_site_Wyckoff_symbol
_atom_site_fract_x
_atom_site_fract_y
_atom_site_fract_z
_atom_site_occupancy
_atom_site_attached_hydrogens
Zn1 Zn2+ 2 f 0.5 0.6772 0.250 1. 0 
W1 W6+ 2 e 0 0.1795 0.250 1. 0 
O1 O2- 4 g 0.2138 0.1069 0.9371 1. 0 
O2 O2- 4 g 0.2555 0.3701 0.4036 1. 0 

#End of data_186161-ICSD


