data_174210-ICSD
#?2014 by Fachinformationszentrum Karlsruhe, and the U.S. Secretary of 
#Commerce on behalf of the United States.  All rights reserved.
_database_code_ICSD                174210
_audit_creation_date               2010/08/01
_chemical_name_systematic
;
Dipotassium Pentafluorotitanate(III)
;
_chemical_formula_structural       'K2 Ti F5'
_chemical_formula_sum              'F5 K2 Ti1'
_publ_section_title
;
High pressure synthesis and properties of ternary titanium (III) 
fluorides in the system K F - Ti F3 containing regular pentagonal 
bipyramids [Ti F7]
;
loop_
_citation_id
_citation_journal_abbrev
_citation_year
_citation_journal_volume
_citation_journal_issue
_citation_page_first
_citation_page_last
_citation_journal_id_ASTM
primary 'Journal of Solid State Chemistry' 2010 183 1 256 261 JSSCBI
_publ_author_name                  'Yamanaka, S.;Yasuda, A.;Miyata, H.'
_cell_length_a                     7.4626(2)
_cell_length_b                     12.9544(4)
_cell_length_c                     20.6906(7)
_cell_angle_alpha                  90.
_cell_angle_beta                   90.
_cell_angle_gamma                  90.
_cell_volume                       2000.23
_cell_formula_units_Z              16
_symmetry_space_group_name_H-M     'P b c n'
_symmetry_Int_Tables_number        60
_refine_ls_R_factor_all            .0268
loop_
_symmetry_equiv_pos_site_id
_symmetry_equiv_pos_as_xyz
  1	'x, -y, z+.5'
  2	'-x+.5, y+.5, z'
  3	'x+.5, y+.5, -z+.5'
  4	'-x, -y, -z'
  5	'-x, y, -z+.5'
  6	'x+.5, -y+.5, -z'
  7	'-x+.5, -y+.5, z+.5'
  8	'x, y, z'
loop_
_atom_type_symbol
_atom_type_oxidation_number
F1-	-1
K1+	1
Ti3+	3
loop_
_atom_site_label
_atom_site_type_symbol
_atom_site_symmetry_multiplicity
_atom_site_Wyckoff_symbol
_atom_site_fract_x
_atom_site_fract_y
_atom_site_fract_z
_atom_site_occupancy
_atom_site_attached_hydrogens
_atom_site_U_iso_or_equiv
Ti1 Ti3+ 8 d 0.66052(4) 0.30146(2) 0.17152(1) 1. 0 0.01700(1) 
Ti2 Ti3+ 8 d 0.33535(4) 0.49938(2) 0.07766(1) 1. 0 0.0179(1) 
K1 K1+ 4 c 0.5 0.06879(4) 0.25 1. 0 0.0210(1) 
K2 K1+ 8 d 0.51110(5) 0.26560(3) 0.00591(2) 1. 0 0.0240(1) 
K3 K1+ 4 c 0.5 0.53660(5) 0.25 1. 0 0.0297(2) 
K4 K1+ 8 d 0.84591(6) 0.51723(4) 0.08317(2) 1. 0 0.03200(1) 
K5 K1+ 8 d 0.14520(6) 0.28592(4) 0.16471(2) 1. 0 0.0318(1) 
F1 F1- 8 d 0.2237(1) 0.37801(8) 0.04025(5) 1. 0 0.0281(2) 
F2 F1- 8 d 0.7936(2) 0.41701(9) 0.20371(6) 1. 0 0.0331(3) 
F3 F1- 8 d 0.1748(2) 0.58807(9) 0.03068(5) 1. 0 0.0338(4) 
F4 F1- 8 d 0.7998(2) 0.20126(9) 0.22107(5) 1. 0 0.0319(3) 
F5 F1- 8 d 0.8143(2) 0.29689(9) 0.09651(5) 1. 0 0.0349(3) 
F6 F1- 8 d 0.5098(2) 0.19552(9) 0.14040(6) 1. 0 0.0349(3) 
F7 F1- 8 d 0.4685(2) 0.60927(9) 0.11217(6) 1. 0 0.0400(3) 
F8 F1- 8 d 0.1790(2) 0.48972(9) 0.15135(6) 1. 0 0.0342(3) 
F9 F1- 4 c 0.5 0.31683(13) 0.25 1. 0 0.0314(3) 
F10 F1- 4 a 0.5 0.5 0 1. 0 0.0359(4) 
F11 F1- 8 d 0.5059(1) 0.40259(9) 0.12293(6) 1. 0 0.0356(3) 

loop_
_atom_site_aniso_label
_atom_site_aniso_type_symbol
_atom_site_aniso_U_11
_atom_site_aniso_U_22
_atom_site_aniso_U_33
_atom_site_aniso_U_12
_atom_site_aniso_U_13
_atom_site_aniso_U_23
Ti1 Ti3+ 0.0200(2) 0.0154(2) 0.0156(2) -0.0014(1) -0.0001(1) -0.0008(1)
Ti2 Ti3+ 0.0214(2) 0.0144(2) 0.0180(2) -0.0016(1) -0.0009(1) -0.0013(1)
K1 K1+ 0.0235(2) 0.0201(3) 0.0194(3) 0 -0.0001(2) 0
K2 K1+ 0.0254(2) 0.0222(2) 0.0243(2) 0.0041(1) 0.00062(14) -0.0030(2)
K3 K1+ 0.0309(3) 0.0193(3) 0.0388(4) 0 0.0092(2) 0
K4 K1+ 0.0362(2) 0.0353(3) 0.0244(2) -0.0088(2) -0.0031(2) 0.0045(2)
K5 K1+ 0.0381(2) 0.0288(2) 0.0286(2) -0.0055(2) -0.0039(2) 0.0074(2)
F1 F1- 0.0270(5) 0.0240(6) 0.0334(6) -0.0068(4) -0.0026(4) -0.0075(5)
F2 F1- 0.0352(6) 0.0334(6) 0.0309(6) -0.0167(5) -0.0012(5) -0.0061(5)
F3 F1- 0.0413(6) 0.0356(7) 0.0244(6) 0.0176(5) 0.0021(5) 0.0061(5)
F4 F1- 0.0378(6) 0.0329(6) 0.0249(6) 0.0150(5) -0.0008(5) 0.0046(5)
F5 F1- 0.0403(6) 0.0424(7) 0.0221(6) 0.0147(5) 0.0112(5) 0.0054(5)
F6 F1- 0.0481(7) 0.0253(6) 0.0313(6) -0.0135(5) -0.0086(5) -0.0028(5)
F7 F1- 0.0473(7) 0.0263(6) 0.0462(7) -0.0121(5) -0.0062(6) -0.0110(5)
F8 F1- 0.0443(7) 0.0317(7) 0.0267(6) 0.0096(5) 0.0160(5) 0.0051(5)
F9 F1- 0.0323(8) 0.0346(9) 0.0273(8) 0 0.0129(6) 0
F10 F1- 0.0352(8) 0.0403(9) 0.0321(9) 0.0033(7) 0.0151(7) 0.0046(7)
F11 F1- 0.0350(6) 0.0361(7) 0.0358(7) 0.0134(5) -0.0049(5) 0.0079(6)
#End of data_174210-ICSD


