data_83986-ICSD
#?2014 by Fachinformationszentrum Karlsruhe, and the U.S. Secretary of 
#Commerce on behalf of the United States.  All rights reserved.
_database_code_ICSD                83986
_audit_creation_date               1999/01/19
_chemical_name_systematic
;
Hexalithium Nitride Tribromide - Ii
;
_chemical_formula_structural       'Li6 N Br3'
_chemical_formula_sum              'Br3 Li6 N1'
_publ_section_title
;
Time-of-flight neutron diffraction study on the Li2 O type phases of 
Li6 N Br3
;
loop_
_citation_id
_citation_journal_abbrev
_citation_year
_citation_journal_volume
_citation_page_first
_citation_page_last
_citation_journal_id_ASTM
primary 'Journal of Alloys and Compounds' 1997 256 196 206 JALCEU
_publ_author_name                  'Marx, R.'
_cell_length_a                     11.50047(4)
_cell_length_b                     11.58345(3)
_cell_length_c                     22.49776(7)
_cell_angle_alpha                  90.
_cell_angle_beta                   90.
_cell_angle_gamma                  90.
_cell_volume                       2997.04
_cell_formula_units_Z              16
_symmetry_space_group_name_H-M     'I b c a'
_symmetry_Int_Tables_number        73
_refine_ls_R_factor_all            .031
loop_
_symmetry_equiv_pos_site_id
_symmetry_equiv_pos_as_xyz
  1	'x, y+.5, -z'
  2	'x+.5, -y, z'
  3	'-x, y, z+.5'
  4	'-x, -y, -z'
  5	'-x, -y+.5, z'
  6	'-x+.5, y, -z'
  7	'x, -y, -z+.5'
  8	'x, y, z'
  9	'x+.5, y, -z+.5'
 10	'x, -y+.5, z+.5'
 11	'-x+.5, y+.5, z'
 12	'-x+.5, -y+.5, -z+.5'
 13	'-x+.5, -y, z+.5'
 14	'-x, y+.5, -z+.5'
 15	'x+.5, -y+.5, -z'
 16	'x+.5, y+.5, z+.5'
loop_
_atom_type_symbol
_atom_type_oxidation_number
Br1-	-1
Li1+	1
N3-	-3
loop_
_atom_site_label
_atom_site_type_symbol
_atom_site_symmetry_multiplicity
_atom_site_Wyckoff_symbol
_atom_site_fract_x
_atom_site_fract_y
_atom_site_fract_z
_atom_site_occupancy
_atom_site_attached_hydrogens
_atom_site_U_iso_or_equiv
N1 N3- 8 a 0 0 0 1. 0 0.0111(10) 
N2 N3- 8 b 0.25 0.25 0.25 1. 0 0.0133(10) 
Br1 Br1- 8 d 0.25 0.2657(5) 0 1. 0 0.0203(13) 
Br2 Br1- 8 c 0.0254(4) 0 0.25 1. 0 0.0174(14) 
Br3 Br1- 8 e 0 0.25 0.1363(2) 1. 0 0.0206(15) 
Br4 Br1- 8 e 0 0.25 0.3849(2) 1. 0 0.0148(13) 
Br5 Br1- 16 f 0.2671(3) -.0092(4) 0.1267(2) 1. 0 0.0162(8) 
Li1 Li1+ 16 f 0.1139(12) -.0699(11) 0.0558(6) 1. 0 0.0369(31) 
Li2 Li1+ 16 f 0.1068(8) 0.1151(9) -.0360(5) 1. 0 0.0199(24) 
Li3 Li1+ 16 f 0.0674(11) 0.8943(11) -.0572(5) 1. 0 0.0320(32) 
Li4 Li1+ 16 f 0.3171(11) 0.3551(12) 0.3071(6) 1. 0 0.0358(32) 
Li5 Li1+ 16 f 0.3653(10) 0.1421(11) 0.2789(5) 1. 0 0.0308(29) 
Li6 Li1+ 16 f 0.1485(11) 0.1800(12) 0.3075(6) 1. 0 0.0385(32) 

#End of data_83986-ICSD


