data_416836-ICSD
#?2014 by Fachinformationszentrum Karlsruhe, and the U.S. Secretary of 
#Commerce on behalf of the United States.  All rights reserved.
_database_code_ICSD                416836
_audit_creation_date               2008/02/01
_audit_update_record               2013/08/01
_chemical_name_systematic
;
Chromium(II) Bis(tetrachloroaluminate)
;
_chemical_formula_structural       'Cr (Al Cl4)2'
_chemical_formula_sum              'Al2 Cl8 Cr1'
_publ_section_title
;
Kristallstruktur und Eigenschaften von Chrom(II)-tetrachloroaluminat
;
loop_
_citation_id
_citation_journal_abbrev
_citation_year
_citation_journal_volume
_citation_journal_issue
_citation_page_first
_citation_page_last
_citation_journal_id_ASTM
primary 'Zeitschrift fuer Naturforschung, B: Chemical Sciences'
 2007 62 5 625 632 ZNBSEN
_publ_author_name
;
Mueller, R.;Vajenine, G.V.;Kessler, U.
;
_cell_length_a                     15.1138(3)
_cell_length_b                     6.04710(10)
_cell_length_c                     13.0176(3)
_cell_angle_alpha                  90.00
_cell_angle_beta                   90.00
_cell_angle_gamma                  90.00
_cell_volume                       1189.74
_cell_formula_units_Z              4
_symmetry_space_group_name_H-M     'P c a 21'
_symmetry_Int_Tables_number        29
_refine_ls_R_factor_all            .0532
loop_
_symmetry_equiv_pos_site_id
_symmetry_equiv_pos_as_xyz
  1	'x+.5, -y, z'
  2	'-x+.5, y, z+.5'
  3	'-x, -y, z+.5'
  4	'x, y, z'
loop_
_atom_type_symbol
_atom_type_oxidation_number
Al3+	3
Cl1-	-1
Cr2+	2
loop_
_atom_site_label
_atom_site_type_symbol
_atom_site_symmetry_multiplicity
_atom_site_Wyckoff_symbol
_atom_site_fract_x
_atom_site_fract_y
_atom_site_fract_z
_atom_site_occupancy
_atom_site_attached_hydrogens
_atom_site_U_iso_or_equiv
Cr1 Cr2+ 4 a 0.37403(4) 0.24462(9) 0.49921(12) 1 0 0.03577(12) 
Al1 Al3+ 4 a 0.24080(6) -0.12205(14) 0.59168(13) 1 0 0.0332(2) 
Cl1 Cl1- 4 a 0.36444(9) 0.01679(15) 0.65124(11) 1 0 0.0420(4) 
Cl2 Cl1- 4 a 0.25391(8) 0.01715(13) 0.43720(13) 1 0 0.0396(3) 
Cl3 Cl1- 4 a 0.24589(7) -0.47147(12) 0.58950(13) 1 0 0.0440(3) 
Cl4 Cl1- 4 a 0.13000(10) -0.00127(16) 0.66824(17) 1 0 0.0512(5) 
Al2 Al3+ 4 a 0.50746(6) 0.61019(14) 0.40696(13) 1 0 0.0328(2) 
Cl5 Cl1- 4 a 0.38392(9) 0.47144(15) 0.34673(11) 1 0 0.0413(3) 
Cl6 Cl1- 4 a 0.49383(8) 0.47313(15) 0.56232(12) 1 0 0.0383(3) 
Cl7 Cl1- 4 a 0.50283(7) 0.95906(13) 0.40922(13) 1 0 0.0446(3) 
Cl8 Cl1- 4 a 0.61739(11) 0.48641(16) 0.33109(19) 1 0 0.0549(5) 

loop_
_atom_site_aniso_label
_atom_site_aniso_type_symbol
_atom_site_aniso_U_11
_atom_site_aniso_U_22
_atom_site_aniso_U_33
_atom_site_aniso_U_12
_atom_site_aniso_U_13
_atom_site_aniso_U_23
Cr1 Cr2+ 0.0383(2) 0.0300(2) 0.0390(2) -0.00812(17) -0.0039(2) 0.00538(19)
Al1 Al3+ 0.0364(5) 0.0256(4) 0.0376(5) -0.0020(4) 0.0031(4) 0.0000(5)
Cl1 Cl1- 0.0461(7) 0.0378(5) 0.0420(9) -0.0096(4) -0.0093(6) 0.0075(4)
Cl2 Cl1- 0.0425(7) 0.0391(4) 0.0372(9) -0.0092(3) -0.0054(6) 0.0028(4)
Cl3 Cl1- 0.0458(6) 0.0262(3) 0.0598(8) -0.0010(4) 0.0059(6) 0.0003(6)
Cl4 Cl1- 0.0477(9) 0.0493(6) 0.0567(13) 0.0036(4) 0.0146(8) -0.0092(4)
Al2 Al3+ 0.0360(6) 0.0250(4) 0.0375(6) -0.0011(4) 0.0025(4) 0.0003(4)
Cl5 Cl1- 0.0479(7) 0.0368(4) 0.0393(9) -0.0093(4) -0.0105(6) 0.0053(5)
Cl6 Cl1- 0.0410(6) 0.0383(4) 0.0355(8) -0.0079(3) -0.0043(6) 0.0041(4)
Cl7 Cl1- 0.0479(6) 0.0255(3) 0.0605(8) -0.0015(4) 0.0047(5) -0.0001(6)
Cl8 Cl1- 0.0547(10) 0.0454(6) 0.0646(15) 0.0056(4) 0.0207(9) -0.0045(5)
#End of data_416836-ICSD


