data_201537-ICSD
#?2014 by Fachinformationszentrum Karlsruhe, and the U.S. Secretary of 
#Commerce on behalf of the United States.  All rights reserved.
_database_code_ICSD                201537
_audit_creation_date               1985/07/17
_audit_update_record               2006/04/01
_chemical_name_systematic          'Calcium Catena-silicate'
_chemical_formula_structural       'Ca (Si O3)'
_chemical_formula_sum              'Ca1 O3 Si1'
_chemical_name_mineral             'Wollastonite 1A'
_publ_section_title
;
Polysynthetically-twinned structures of enstatite and wollastonite
;
loop_
_citation_id
_citation_journal_abbrev
_citation_year
_citation_journal_volume
_citation_page_first
_citation_page_last
_citation_journal_id_ASTM
primary 'Physics and Chemistry of Minerals' 1984 10 217 229 PCMIDU
2 'Golden Book of Phase Transitions, Wroclaw' 2002 1 1 123 GBOPT5
_publ_author_name                  'Ohashi, Y.'
_cell_length_a                     7.9258(4)
_cell_length_b                     7.3202(4)
_cell_length_c                     7.0653(4)
_cell_angle_alpha                  90.055(3)
_cell_angle_beta                   95.217(3)
_cell_angle_gamma                  103.426(3)
_cell_volume                       396.96
_cell_formula_units_Z              6
_symmetry_space_group_name_H-M     'P -1'
_symmetry_Int_Tables_number        2
_refine_ls_R_factor_all            .033
loop_
_symmetry_equiv_pos_site_id
_symmetry_equiv_pos_as_xyz
  1	'-x, -y, -z'
  2	'x, y, z'
loop_
_atom_type_symbol
_atom_type_oxidation_number
Ca2+	2
O2-	-2
Si4+	4
loop_
_atom_site_label
_atom_site_type_symbol
_atom_site_symmetry_multiplicity
_atom_site_Wyckoff_symbol
_atom_site_fract_x
_atom_site_fract_y
_atom_site_fract_z
_atom_site_occupancy
_atom_site_attached_hydrogens
_atom_site_B_iso_or_equiv
Ca1 Ca2+ 2 i 0.19831(8) 0.42266(8) 0.76060(9) 1. 0 0.63(1) 
Ca2 Ca2+ 2 i 0.20241(8) 0.92919(8) 0.76401(9) 1. 0 0.66(1) 
Ca3 Ca2+ 2 i 0.50333(8) 0.75040(8) 0.52691(9) 1. 0 0.58(1) 
Si1 Si4+ 2 i 0.1851(1) 0.3875(1) 0.2684(1) 1. 0 0.49(1) 
Si2 Si4+ 2 i 0.1849(1) 0.9542(1) 0.2691(1) 1. 0 0.49(1) 
Si3 Si4+ 2 i 0.3973(1) 0.7236(1) 0.0561(1) 1. 0 0.49(1) 
O1 O2- 2 i 0.3034(3) 0.4616(3) 0.4628(3) 1. 0 0.74(4) 
O2 O2- 2 i 0.3014(3) 0.9385(3) 0.4641(3) 1. 0 0.77(4) 
O3 O2- 2 i 0.5705(3) 0.7688(3) 0.1988(3) 1. 0 0.59(3) 
O4 O2- 2 i 0.9832(3) 0.3739(3) 0.2655(4) 1. 0 0.91(4) 
O5 O2- 2 i 0.9819(3) 0.8677(3) 0.2648(4) 1. 0 0.96(4) 
O6 O2- 2 i 0.4018(3) 0.7266(3) 0.8296(3) 1. 0 0.70(4) 
O7 O2- 2 i 0.2183(3) 0.1785(3) 0.2254(4) 1. 0 0.98(4) 
O8 O2- 2 i 0.2713(3) 0.8704(3) 0.0938(3) 1. 0 0.76(4) 
O9 O2- 2 i 0.2735(3) 0.5126(3) 0.0931(3) 1. 0 0.75(4) 

#End of data_201537-ICSD


