data_413949-ICSD
#?2014 by Fachinformationszentrum Karlsruhe, and the U.S. Secretary of 
#Commerce on behalf of the United States.  All rights reserved.
_database_code_ICSD                413949
_audit_creation_date               2005/10/01
_audit_update_record               2008/02/01
_chemical_name_systematic
;
Di-mue-chlorato(VII)-bis(triaquahydroxozinc)
;
_chemical_formula_structural       '(((Zn (O H) (H2 O)3))2 (Cl O4)2)'
_chemical_formula_sum              'H14 Cl2 O16 Zn2'
_publ_section_title
;
Crystal structure of the bis(zinc(II)-hydroxide-(mue-perchlorate)-
triaqua) complex
;
loop_
_citation_id
_citation_journal_abbrev
_citation_year
_citation_journal_volume
_citation_page_first
_citation_page_last
_citation_journal_id_ASTM
primary 'Zeitschrift fuer Anorganische und Allgemeine Chemie (1950) (DE)'
 2004 630 1553 1554 ZAACAB
_publ_author_name
;
Li, Y.-H.;Ye, Q.;Tang, Y.-Z.;Xiong, R.-G.
;
_cell_length_a                     5.9031(7)
_cell_length_b                     13.5404(16)
_cell_length_c                     9.7932(8)
_cell_angle_alpha                  90.
_cell_angle_beta                   126.438(5)
_cell_angle_gamma                  90.
_cell_volume                       629.74
_cell_formula_units_Z              2
_symmetry_space_group_name_H-M     'P 1 21/c 1'
_symmetry_Int_Tables_number        14
_refine_ls_R_factor_all            .0314
loop_
_symmetry_equiv_pos_site_id
_symmetry_equiv_pos_as_xyz
  1	'x, -y+.5, z+.5'
  2	'-x, -y, -z'
  3	'-x, y+.5, -z+.5'
  4	'x, y, z'
loop_
_atom_type_symbol
_atom_type_oxidation_number
Cl7+	7
H1+	1
O2-	-2
Zn2+	2
loop_
_atom_site_label
_atom_site_type_symbol
_atom_site_symmetry_multiplicity
_atom_site_Wyckoff_symbol
_atom_site_fract_x
_atom_site_fract_y
_atom_site_fract_z
_atom_site_occupancy
_atom_site_attached_hydrogens
_atom_site_U_iso_or_equiv
Zn1 Zn2+ 4 e -0.15001(7) -0.10348(3) 0.28180(4) 1 0 0.01623(19) 
Cl1 Cl7+ 4 e -0.37057(15) 0.10746(5) 0.32425(9) 1 0 0.0168(2) 
O1 O2- 4 e 0.0085(5) -0.07591(18) 0.1453(3) 1 0 0.0235(5) 
H1 H1+ 4 e -0.0642 -0.0422 0.0596 1 0 0.11(3) 
O2 O2- 4 e -0.5536(6) -0.1263(2) 0.0597(3) 1 0 0.0312(6) 
O3 O2- 4 e -0.3142(6) -0.1409(2) 0.4149(3) 1 0 0.0256(6) 
O4 O2- 4 e -0.2464(5) 0.04838(16) 0.2569(3) 1 0 0.0200(5) 
O5 O2- 4 e -0.0382(5) -0.24898(17) 0.2842(3) 1 0 0.0243(5) 
O6 O2- 4 e -0.2532(4) 0.07377(17) 0.4982(3) 1 0 0.0205(5) 
O7 O2- 4 e -0.3098(4) 0.21154(16) 0.3213(3) 1 0 0.0205(5) 
O8 O2- 4 e -0.6785(5) 0.09171(17) 0.2169(3) 1 0 0.0219(5) 
H2 H1+ 4 e -0.164(16) -0.335(7) 0.301(9) 1 0 0.14(3) 
H3 H1+ 4 e 0.016(10) -0.254(4) 0.238(6) 1 0 0.053(16) 
H4 H1+ 4 e -0.371(12) -0.105(4) 0.461(7) 1 0 0.059(18) 
H5 H1+ 4 e -0.612(9) -0.171(4) 0.059(5) 1 0 0.030(13) 
H6 H1+ 4 e -0.630(11) -0.107(3) -0.055(7) 1 0 0.048(15) 
H7 H1+ 4 e -0.414(19) -0.166(7) 0.396(12) 1 0 0.14(4) 

loop_
_atom_site_aniso_label
_atom_site_aniso_type_symbol
_atom_site_aniso_U_11
_atom_site_aniso_U_22
_atom_site_aniso_U_33
_atom_site_aniso_U_12
_atom_site_aniso_U_13
_atom_site_aniso_U_23
Zn1 Zn2+ 0.0175(3) 0.0149(3) 0.0165(3) -0.00039(13) 0.0103(2) -0.00016(12)
Cl1 Cl7+ 0.0177(4) 0.0145(4) 0.0172(4) 0.0003(3) 0.0098(3) -0.0001(2)
O1 O2- 0.0275(12) 0.0254(13) 0.0227(12) -0.0036(10) 0.0177(10) -0.0006(10)
O2 O2- 0.0302(14) 0.0311(16) 0.0191(12) -0.0145(13) 0.0074(11) 0.0022(11)
O3 O2- 0.0279(13) 0.0287(15) 0.0259(12) -0.0023(12) 0.0190(11) -0.0008(11)
O4 O2- 0.0249(11) 0.0159(11) 0.0230(11) 0.0025(10) 0.0164(9) 0.0004(9)
O5 O2- 0.0300(13) 0.0177(13) 0.0343(13) 0.0004(10) 0.0241(11) -0.0027(10)
O6 O2- 0.0210(11) 0.0218(12) 0.0168(10) -0.0015(9) 0.0102(9) 0.0017(9)
O7 O2- 0.0235(11) 0.0130(12) 0.0250(11) -0.0002(9) 0.0145(9) 0.0001(8)
O8 O2- 0.0173(11) 0.0215(13) 0.0217(12) -0.0021(9) 0.0088(10) -0.0019(9)
#End of data_413949-ICSD


