data_245616-ICSD
#?2014 by Fachinformationszentrum Karlsruhe, and the U.S. Secretary of 
#Commerce on behalf of the United States.  All rights reserved.
_database_code_ICSD                245616
_audit_creation_date               2008/08/01
_chemical_name_systematic
;
Distrontium Zinc Uranium(VI) Hexaoxide
;
_chemical_formula_structural       'Sr2 Zn U O6'
_chemical_formula_sum              'O6 Sr2 U1 Zn1'
_publ_section_title
;
Preparation, crystal structure and magnetic behavior of new double 
perovskites Sr2 B' U O6 with B' = Mn, Fe, Ni, Zn
;
loop_
_citation_id
_citation_journal_abbrev
_citation_year
_citation_journal_volume
_citation_journal_issue
_citation_page_first
_citation_page_last
_citation_journal_id_ASTM
primary 'Journal of Solid State Chemistry' 2007 180 5 1582 1589 JSSCBI
_publ_author_name
;
Pinacca, R.M.;Viola, M.C.;Pedregosa, J.C.;Martinez Lope, 
M.J.;Carbonio, R.E.;Alonso, J.A.
;
_cell_length_a                     5.8320(4)
_cell_length_b                     5.8119(4)
_cell_length_c                     8.2004(6)
_cell_angle_alpha                  90
_cell_angle_beta                   89.958(2)
_cell_angle_gamma                  90
_cell_volume                       277.95
_cell_formula_units_Z              2
_symmetry_space_group_name_H-M     'P 1 21/n 1'
_symmetry_Int_Tables_number        14
_refine_ls_R_factor_all            .0458
loop_
_symmetry_equiv_pos_site_id
_symmetry_equiv_pos_as_xyz
  1	'-x+.5, y+.5, -z+.5'
  2	'-x, -y, -z'
  3	'x+.5, -y+.5, z+.5'
  4	'x, y, z'
loop_
_atom_type_symbol
_atom_type_oxidation_number
O2-	-2
Sr2+	2
U6+	6
Zn2+	2
loop_
_atom_site_label
_atom_site_type_symbol
_atom_site_symmetry_multiplicity
_atom_site_Wyckoff_symbol
_atom_site_fract_x
_atom_site_fract_y
_atom_site_fract_z
_atom_site_occupancy
_atom_site_attached_hydrogens
Sr1 Sr2+ 4 e 1.023(1) 0.0267(9) 0.242(1) 1. 0 
Zn2 Zn2+ 2 d 0.5 0 0 1. 0 
U1 U6+ 2 c 0.5 0 0.5 1. 0 
O1 O2- 4 e 0.052(10) 0.500(6) 0.249(6) 1. 0 
O2 O2- 4 e 0.674(9) 0.336(10) 0.027(9) 1. 0 
O3 O2- 4 e 0.239(10) 0.232(10) 0.957(8) 1. 0 

#End of data_245616-ICSD


