data_19066-ICSD
#?2014 by Fachinformationszentrum Karlsruhe, and the U.S. Secretary of 
#Commerce on behalf of the United States.  All rights reserved.
_database_code_ICSD                19066
_audit_creation_date               1980/01/01
_audit_update_record               2010/02/01
_chemical_name_systematic          'Dipotassium Heptafluoroniobate'
_chemical_formula_structural       'K2 (Nb F7)'
_chemical_formula_sum              'F7 K2 Nb1'
_publ_section_title
;
Structures of complex fluorides. Potassium heptafluocolumbate. The 
configuration of the heptafluocolumbate and heptafluortantalate ions
;
loop_
_citation_id
_citation_journal_abbrev
_citation_year
_citation_journal_volume
_citation_page_first
_citation_page_last
_citation_journal_id_ASTM
primary 'Journal of the American Chemical Society' 1939 61 1252 1259 JACSAT
_publ_author_name                  'Hoard, J.L.'
_cell_length_a                     5.87
_cell_length_b                     12.70
_cell_length_c                     8.52
_cell_angle_alpha                  90.
_cell_angle_beta                   90.
_cell_angle_gamma                  90.
_cell_volume                       635.16
_cell_formula_units_Z              4
_symmetry_space_group_name_H-M     'P 1 21/c 1'
_symmetry_Int_Tables_number        14
loop_
_symmetry_equiv_pos_site_id
_symmetry_equiv_pos_as_xyz
  1	'x, -y+.5, z+.5'
  2	'-x, -y, -z'
  3	'-x, y+.5, -z+.5'
  4	'x, y, z'
loop_
_atom_type_symbol
_atom_type_oxidation_number
F1-	-1
K1+	1
Nb5+	5
loop_
_atom_site_label
_atom_site_type_symbol
_atom_site_symmetry_multiplicity
_atom_site_Wyckoff_symbol
_atom_site_fract_x
_atom_site_fract_y
_atom_site_fract_z
_atom_site_occupancy
_atom_site_attached_hydrogens
Nb1 Nb5+ 4 e 0.266 0.128 0.223 1. 0 
K1 K1+ 4 e 0.236 0.44 0.188 1. 0 
K2 K1+ 4 e 0.757 0.28 0.445 1. 0 
F1 F1- 4 e 0.045 0.245 0.2 1. 0 
F2 F1- 4 e 0.455 0.255 0.205 1. 0 
F3 F1- 4 e 0.045 0.105 0.4 1. 0 
F4 F1- 4 e 0.455 0.11 0.41 1. 0 
F5 F1- 4 e 0.225 -.025 0.215 1. 0 
F6 F1- 4 e 0.18 0.11 0.005 1. 0 
F7 F1- 4 e 0.55 0.075 0.125 1. 0 

#End of data_19066-ICSD


