data_64597-ICSD
#?2014 by Fachinformationszentrum Karlsruhe, and the U.S. Secretary of 
#Commerce on behalf of the United States.  All rights reserved.
_database_code_ICSD                64597
_audit_creation_date               1989/06/19
_audit_update_record               2007/04/01
_chemical_name_systematic
;
Trilithium Diiron(III) Tris(phosphate(V)) - Beta, Ht
;
_chemical_formula_structural       'Li3 Fe2 (P O4)3'
_chemical_formula_sum              'Fe2 Li3 O12 P3'
_publ_section_title
;
Atomic structure of the beta-phase of Li3 Sc2 (P O4)3 and Li3 Fe2 (P 
O4)3 crystals.
;
loop_
_citation_id
_citation_journal_abbrev
_citation_year
_citation_journal_volume
_citation_page_first
_citation_page_last
_citation_journal_id_ASTM
primary 'Doklady Akademii Nauk SSSR' 1987 292 1376 1379 DANKAS
2 'Soviet Physics, Doklady (see: Doklady Akademii Nauk SSR)'
 1987 32 95 97 SPHDA9
3 'Phase Transition' 1992 38 127 220 PHTRDP
4 'Solid State Ionics' 1990 39 31 52 SSIOD3
_publ_author_name
;
Kondratyuk, I.P.;Maksimov, B.A.;Muradyan, L.A.
;
_cell_length_a                     8.588(1)
_cell_length_b                     12.112(2)
_cell_length_c                     8.638(1)
_cell_angle_alpha                  90.
_cell_angle_beta                   90.
_cell_angle_gamma                  90.19(2)
_cell_volume                       898.5
_cell_formula_units_Z              4
_symmetry_space_group_name_H-M     'P 1 1 21/n'
_symmetry_Int_Tables_number        14
_refine_ls_R_factor_all            .038
loop_
_symmetry_equiv_pos_site_id
_symmetry_equiv_pos_as_xyz
  1	'x+.5, y+.5, -z+.5'
  2	'-x, -y, -z'
  3	'-x+.5, -y+.5, z+.5'
  4	'x, y, z'
loop_
_atom_type_symbol
_atom_type_oxidation_number
Fe3+	3
Li1+	1
O2-	-2
P5+	5
loop_
_atom_site_label
_atom_site_type_symbol
_atom_site_symmetry_multiplicity
_atom_site_Wyckoff_symbol
_atom_site_fract_x
_atom_site_fract_y
_atom_site_fract_z
_atom_site_occupancy
_atom_site_attached_hydrogens
_atom_site_B_iso_or_equiv
Fe1 Fe3+ 4 e 0.2479(1) 0.1066(1) 0.4640(1) 1. 0 1.17(5) 
Fe2 Fe3+ 4 e 0.7508(1) 0.3936(1) 0.4648(1) 1. 0 1.29(5) 
P1 P5+ 4 e 0.1071(1) 0.1485(1) 0.1066(2) 1. 0 1.04(5) 
P2 P5+ 4 e 0.6056(1) 0.3525(1) 0.1088(2) 1. 0 1.00(5) 
P3 P5+ 4 e 0.0389(2) 0.4983(1) 0.2489(2) 1. 0 1.05(4) 
O1 O2- 4 e 0.4314(3) 0.3326(2) 0.0907(3) 1. 0 1.64(6) 
O2 O2- 4 e 0.9292(3) 0.1441(2) 0.1103(3) 1. 0 2.26(8) 
O3 O2- 4 e 0.3435(4) 0.2653(3) 0.4843(3) 1. 0 2.10(7) 
O4 O2- 4 e 0.8080(3) 0.2219(2) 0.4917(3) 1. 0 2.04(7) 
O5 O2- 4 e 0.6455(3) 0.4723(3) 0.0775(3) 1. 0 2.34(7) 
O6 O2- 4 e 0.1769(4) 0.0403(3) 0.0580(4) 1. 0 3.06(8) 
O7 O2- 4 e 0.4457(3) 0.0697(3) 0.3639(4) 1. 0 2.07(6) 
O8 O2- 4 e 0.9391(4) 0.4140(3) 0.3343(4) 1. 0 2.65(7) 
O9 O2- 4 e 0.1651(4) 0.4322(3) 0.1653(4) 1. 0 2.21(7) 
O10 O2- 4 e 0.6233(4) 0.0834(3) 0.1488(4) 1. 0 2.38(7) 
O11 O2- 4 e 0.1643(4) 0.1823(3) 0.2671(3) 1. 0 1.77(6) 
O12 O2- 4 e 0.6471(4) 0.3205(3) 0.2761(3) 1. 0 1.86(6) 
Li1 Li1+ 4 e 0.300(2) 0.324(1) 0.278(2) 1. 0 4.8(9) 
Li2 Li1+ 4 e 0.781(2) 0.176(2) 0.282(3) 1. 0 8.5(9) 
Li3 Li1+ 4 e 0.577(3) 0.204(2) 0.426(3) 1. 0 10.20(13) 

#End of data_64597-ICSD


