data_76533-ICSD
#?2014 by Fachinformationszentrum Karlsruhe, and the U.S. Secretary of 
#Commerce on behalf of the United States.  All rights reserved.
_database_code_ICSD                76533
_audit_creation_date               2000/12/16
_audit_update_record               2005/10/01
_chemical_name_systematic          'Disodium Palladium Sulfide'
_chemical_formula_structural       'Na2 Pd S2'
_chemical_formula_sum              'Na2 Pd1 S2'
_publ_section_title
;
Ueber die Kettenstruktur der Verbindungen Na2 Pd S2 und Na Pt S2
;
loop_
_citation_id
_citation_journal_abbrev
_citation_year
_citation_journal_volume
_citation_page_first
_citation_page_last
_citation_journal_id_ASTM
primary 'Journal of the Less-Common Metals' 1976 50 49 55 JCOMAH
2 'Journal of the Less-Common Metals' 1989 154 261 270 JCOMAH
_publ_author_name
;
Bronger, W.;Guenther, O.;Huster, J.;Spangenberg, M.
;
_cell_length_a                     3.539(2)
_cell_length_b                     10.411(4)
_cell_length_c                     10.886(4)
_cell_angle_alpha                  90.
_cell_angle_beta                   90.
_cell_angle_gamma                  90.
_cell_volume                       401.09
_cell_formula_units_Z              4
_symmetry_space_group_name_H-M     'C m c 21'
_symmetry_Int_Tables_number        36
_refine_ls_R_factor_all            .08
loop_
_symmetry_equiv_pos_site_id
_symmetry_equiv_pos_as_xyz
  1	'x, -y, z+.5'
  2	'-x, -y, z+.5'
  3	'-x, y, z'
  4	'x, y, z'
  5	'x+.5, -y+.5, z+.5'
  6	'-x+.5, -y+.5, z+.5'
  7	'-x+.5, y+.5, z'
  8	'x+.5, y+.5, z'
loop_
_atom_type_symbol
_atom_type_oxidation_number
Na1+	1
Pd2+	2
S2-	-2
loop_
_atom_site_label
_atom_site_type_symbol
_atom_site_symmetry_multiplicity
_atom_site_Wyckoff_symbol
_atom_site_fract_x
_atom_site_fract_y
_atom_site_fract_z
_atom_site_occupancy
_atom_site_attached_hydrogens
Na1 Na1+ 4 a 0 0.432 0.124 1. 0 
Na2 Na1+ 4 a 0 0.827 0.411 1. 0 
Pd1 Pd2+ 4 a 0 0.133 0.25 1. 0 
S1 S2- 4 a 0 0.72 0.129 1. 0 
S2 S2- 4 a 0 0.547 0.366 1. 0 

#End of data_76533-ICSD


