data_62676-ICSD
#?2014 by Fachinformationszentrum Karlsruhe, and the U.S. Secretary of 
#Commerce on behalf of the United States.  All rights reserved.
_database_code_ICSD                62676
_audit_creation_date               1988/07/15
_audit_update_record               1998/06/26
_chemical_name_systematic          'Tetrasodium Chromate(IV)'
_chemical_formula_structural       'Na4 (Cr O4)'
_chemical_formula_sum              'Cr1 Na4 O4'
_publ_section_title                'Zur Kenntnis von Na4 (Cr O4).'
loop_
_citation_id
_citation_journal_abbrev
_citation_year
_citation_journal_volume
_citation_page_first
_citation_page_last
_citation_journal_id_ASTM
primary 'Zeitschrift fuer Anorganische und Allgemeine Chemie (1950) (DE)'
 1987 546 137 141 ZAACAB
_publ_author_name                  'Hoppe, R.;Scheld, W.'
_cell_length_a                     8.597
_cell_length_b                     5.698
_cell_length_c                     6.4
_cell_angle_alpha                  124.
_cell_angle_beta                   98.4
_cell_angle_gamma                  98.9
_cell_volume                       246.21
_cell_formula_units_Z              2
_symmetry_space_group_name_H-M     'P -1'
_symmetry_Int_Tables_number        2
_refine_ls_R_factor_all            .067
loop_
_symmetry_equiv_pos_site_id
_symmetry_equiv_pos_as_xyz
  1	'-x, -y, -z'
  2	'x, y, z'
loop_
_atom_type_symbol
_atom_type_oxidation_number
Cr4+	4
Na1+	1
O2-	-2
loop_
_atom_site_label
_atom_site_type_symbol
_atom_site_symmetry_multiplicity
_atom_site_Wyckoff_symbol
_atom_site_fract_x
_atom_site_fract_y
_atom_site_fract_z
_atom_site_occupancy
_atom_site_attached_hydrogens
Na1 Na1+ 2 i 0.5655(3) -.2143(4) 0.5191(4) 1. 0 
Na2 Na1+ 2 i 0.9840(3) 0.0088(4) 0.7613(4) 1. 0 
Na3 Na1+ 2 i 0.8237(3) 0.3372(4) 0.5989(4) 1. 0 
Na4 Na1+ 2 i 0.3942(2) 0.1871(4) -.0503(4) 1. 0 
Cr1 Cr4+ 2 i 0.2446(1) 0.5660(2) 0.8453(2) 1. 0 
O1 O2- 2 i 0.1951(4) 0.1759(6) 0.6439(6) 1. 0 
O2 O2- 2 i 0.6231(4) 0.3242(6) 0.2926(6) 1. 0 
O3 O2- 2 i 0.6434(4) 0.3069(6) 0.8389(6) 1. 0 
O4 O2- 2 i -.0759(4) 0.2998(7) 0.1526(6) 1. 0 

loop_
_atom_site_aniso_label
_atom_site_aniso_type_symbol
_atom_site_aniso_U_11
_atom_site_aniso_U_22
_atom_site_aniso_U_33
_atom_site_aniso_U_12
_atom_site_aniso_U_13
_atom_site_aniso_U_23
Na1 Na1+ 0.0163(8) 0.0090(7) 0.0125(8) 0.0051(6) 0.0063(6) 0.0056(8)
Na2 Na1+ 0.0152(8) 0.0167(8) 0.0123(7) 0.0044(7) 0.0051(6) 0.0099(6)
Na3 Na1+ 0.0173(8) 0.0108(8) 0.0153(8) 0.0024(7) 0.0013(7) 0.0076(6)
Na4 Na1+ 0.0145(8) 0.0093(7) 0.0104(7) 0.0031(7) 0.0012(6) 0.0057(6)
Cr1 Cr4+ 0.0138(4) 0.0088(4) 0.0102(4) 0.0025(3) 0.0027(3) 0.0062(3)
O1 O2- 0.0116(9) 0.0074(9) 0.0069(9) -.0001(8) -.0002(8) 0.0039(8)
O2 O2- 0.0156(10) 0.0047(9) 0.0108(9) 0.0026(8) 0.0048(8) 0.0045(8)
O3 O2- 0.014(1) 0.0107(9) 0.0085(9) 0.0026(9) 0.0018(8) 0.0060(8)
O4 O2- 0.0146(10) 0.0148(9) 0.0152(9) 0.0082(9) 0.0069(8) 0.0088(8)
#End of data_62676-ICSD


