data_421547-ICSD
#?2014 by Fachinformationszentrum Karlsruhe, and the U.S. Secretary of 
#Commerce on behalf of the United States.  All rights reserved.
_database_code_ICSD                421547
_audit_creation_date               2011/02/01
_audit_update_record               2013/02/01
_chemical_name_systematic          'Potassium Tetrazinc Triantimonate'
_chemical_formula_structural       'K Zn4 (Sb3 O12)'
_chemical_formula_sum              'K1 O12 Sb3 Zn4'
_publ_section_title
;
K Zn4 Sb O7 and K Zn4 Sb3 O12: syntheses, structures and photophysics 
of Sb(5+) control materials
;
loop_
_citation_id
_citation_journal_abbrev
_citation_year
_citation_journal_volume
_citation_page_first
_citation_page_last
_citation_journal_id_ASTM
primary 'Dalton Transactions' 2010 39 9547 9553 DTARAF
_publ_author_name
;
Yang Song Lin;Cheng Wen Dan;Zhang Hao;Lin Chen Sheng;Zhang Wei 
Long;He Zhang Zhen
;
_cell_length_a                     10.867(9)
_cell_length_b                     10.867(9)
_cell_length_c                     7.301(8)
_cell_angle_alpha                  90.
_cell_angle_beta                   90.
_cell_angle_gamma                  120.
_cell_volume                       746.68
_cell_formula_units_Z              3
_symmetry_space_group_name_H-M     'R 3 H'
_symmetry_Int_Tables_number        146
_refine_ls_R_factor_all            .0192
loop_
_symmetry_equiv_pos_site_id
_symmetry_equiv_pos_as_xyz
  1	'-x+y, -x, z'
  2	'-y, x-y, z'
  3	'x, y, z'
  4	'-x+y+.6666, -x+.3333, z+.3333'
  5	'-x+y+.3333, -x+.6666, z+.6666'
  6	'-y+.6666, x-y+.3333, z+.3333'
  7	'-y+.3333, x-y+.6666, z+.6666'
  8	'x+.6666, y+.3333, z+.3333'
  9	'x+.3333, y+.6666, z+.6666'
loop_
_atom_type_symbol
_atom_type_oxidation_number
K1+	1
O2-	-2
Sb5+	5
Zn2+	2
loop_
_atom_site_label
_atom_site_type_symbol
_atom_site_symmetry_multiplicity
_atom_site_Wyckoff_symbol
_atom_site_fract_x
_atom_site_fract_y
_atom_site_fract_z
_atom_site_occupancy
_atom_site_attached_hydrogens
_atom_site_U_iso_or_equiv
Sb1 Sb5+ 9 b 0.68189(5) 0.77711(4) 0.971320(8) 1 0 0.00357(15) 
Zn1 Zn2+ 9 b 0.78369(8) 1.08591(8) 0.72262(12) 1 0 0.0054(2) 
Zn2 Zn2+ 3 a 1.0000 1.0000 0.9883(2) 1 0 0.0068(3) 
K1 K1+ 3 a 1.0000 1.0000 0.5070(5) 1 0 0.0170(7) 
O1 O2- 9 b 0.9255(5) 1.2768(5) 0.8093(8) 1 0 0.0064(11) 
O2 O2- 9 b 0.8436(5) 0.8195(5) 1.1415(8) 1 0 0.0062(12) 
O3 O2- 9 b 0.6053(6) 0.8707(6) 1.1231(7) 1 0 0.0079(11) 
O4 O2- 9 b 0.8168(5) 0.9432(6) 0.8391(7) 1 0 0.0062(11) 

loop_
_atom_site_aniso_label
_atom_site_aniso_type_symbol
_atom_site_aniso_U_11
_atom_site_aniso_U_22
_atom_site_aniso_U_33
_atom_site_aniso_U_12
_atom_site_aniso_U_13
_atom_site_aniso_U_23
Sb1 Sb5+ 0.0053(2) 0.0045(2) 0.0010(2) 0.00240(19) -0.00033(17) 
-0.00014(17)
Zn1 Zn2+ 0.0060(4) 0.0060(4) 0.0031(5) 0.0022(3) 0.0001(3) 0.0004(3)
Zn2 Zn2+ 0.0066(4) 0.0066(4) 0.0072(7) 0.0033(2) 0.000 0.000
K1 K1+ 0.0115(9) 0.0115(9) 0.0279(19) 0.0058(4) 0.000 0.000
O1 O2- 0.0064(14) 0.0065(13) 0.0056(13) 0.0027(9) -0.0005(9) 0.0008(9)
O2 O2- 0.0067(14) 0.0061(14) 0.0046(14) 0.0023(10) -0.0006(9) 0.0015(9)
O3 O2- 0.0089(13) 0.0076(14) 0.0081(14) 0.0047(10) 0.0001(9) 0.0000(9)
O4 O2- 0.0060(14) 0.0065(14) 0.0057(14) 0.0028(10) 0.0000(9) 0.0010(9)
#End of data_421547-ICSD


