data_85101-ICSD
#?2014 by Fachinformationszentrum Karlsruhe, and the U.S. Secretary of 
#Commerce on behalf of the United States.  All rights reserved.
_database_code_ICSD                85101
_audit_creation_date               1999/06/02
_audit_update_record               2009/02/01
_chemical_name_systematic          'Calcium Titanate'
_chemical_formula_structural       'Ca (Ti O3)'
_chemical_formula_sum              'Ca1 O3 Ti1'
_chemical_name_mineral             Perovskite
_publ_section_title
;
Crystal structure and microtwinning of natural orthorhombic 
perovskite Ca Ti O3
;
loop_
_citation_id
_citation_journal_abbrev
_citation_year
_citation_journal_volume
_citation_page_first
_citation_page_last
_citation_journal_id_ASTM
primary Kristallografiya 1997 42 54 63 KRISAJ
2 'Crystallography Reports' 1997 42 46 54 CYSTE3
3 'Golden Book of Phase Transitions, Wroclaw' 2002 1 1 123 GBOPT5
_publ_author_name
;
Arakcheeva, A.V.;Pushcharovskii, D.Yu.;Gekimyants, V.M.;Popov, 
V.A.;Lubman, G.U.
;
_cell_length_a                     5.378(1)
_cell_length_b                     5.444(1)
_cell_length_c                     7.637(3)
_cell_angle_alpha                  90.
_cell_angle_beta                   90.
_cell_angle_gamma                  90.
_cell_volume                       223.59
_cell_formula_units_Z              4
_symmetry_space_group_name_H-M     'P b n m'
_symmetry_Int_Tables_number        62
_refine_ls_R_factor_all            .044
loop_
_symmetry_equiv_pos_site_id
_symmetry_equiv_pos_as_xyz
  1	'-x+.5, y+.5, z'
  2	'x, y, -z+.5'
  3	'x+.5, -y+.5, z+.5'
  4	'-x, -y, -z'
  5	'x+.5, -y+.5, -z'
  6	'-x, -y, z+.5'
  7	'-x+.5, y+.5, -z+.5'
  8	'x, y, z'
loop_
_atom_type_symbol
_atom_type_oxidation_number
Ca2+	2
O2-	-2
Ti4+	4
loop_
_atom_site_label
_atom_site_type_symbol
_atom_site_symmetry_multiplicity
_atom_site_Wyckoff_symbol
_atom_site_fract_x
_atom_site_fract_y
_atom_site_fract_z
_atom_site_occupancy
_atom_site_attached_hydrogens
Ti1 Ti4+ 4 a 0 0 0 1. 0 
Ca1 Ca2+ 4 c 0.4930(1) -.0366(1) 0.25 1. 0 
O1 O2- 4 c 0.5726(4) 0.5168(4) 0.25 1. 0 
O2 O2- 8 d 0.2898(2) 0.2111(2) 0.0378(2) 1. 0 

#End of data_85101-ICSD


