data_109325-ICSD
#?2014 by Fachinformationszentrum Karlsruhe, and the U.S. Secretary of 
#Commerce on behalf of the United States.  All rights reserved.
_database_code_ICSD                109325
_audit_creation_date               2007/04/01
_chemical_name_systematic          'Potassium Trichlorocuprate'
_chemical_formula_structural       'K (Cu Cl3)'
_chemical_formula_sum              'Cl3 Cu1 K1'
_publ_section_title
;
The determination of the crystal structure of potassium 
trichlorocuprate
;
loop_
_citation_id
_citation_journal_abbrev
_citation_year
_citation_journal_volume
_citation_page_first
_citation_page_last
_citation_journal_id_ASTM
primary 'Dissertation Abstracts' 1958 18 1634 1635 DIASA9
_publ_author_name                  'Dwiggins, C.jr.'
_cell_length_a                     4.05
_cell_length_b                     13.87
_cell_length_c                     8.87
_cell_angle_alpha                  90.
_cell_angle_beta                   98.12
_cell_angle_gamma                  90.
_cell_volume                       493.26
_cell_formula_units_Z              4
_symmetry_space_group_name_H-M     'P 1 21/c 1'
_symmetry_Int_Tables_number        14
_refine_ls_R_factor_all            .19
loop_
_symmetry_equiv_pos_site_id
_symmetry_equiv_pos_as_xyz
  1	'x, -y+.5, z+.5'
  2	'-x, -y, -z'
  3	'-x, y+.5, -z+.5'
  4	'x, y, z'
loop_
_atom_type_symbol
_atom_type_oxidation_number
Cl1-	-1
Cu2+	2
K1+	1
loop_
_atom_site_label
_atom_site_type_symbol
_atom_site_symmetry_multiplicity
_atom_site_Wyckoff_symbol
_atom_site_fract_x
_atom_site_fract_y
_atom_site_fract_z
_atom_site_occupancy
_atom_site_attached_hydrogens
Cu1 Cu2+ 4 e 0.253 0.050 0.156 1. 0 
Cl1 Cl1- 4 e 0.252 0.199 0.260 1. 0 
Cl2 Cl1- 4 e 0.637 0.004 0.674 1. 0 
Cl3 Cl1- 4 e 0.470 0.097 -.035 1. 0 
K1 K1+ 4 e 0.290 0.168 0.558 1. 0 

#End of data_109325-ICSD


