data_419290-ICSD
#?2014 by Fachinformationszentrum Karlsruhe, and the U.S. Secretary of 
#Commerce on behalf of the United States.  All rights reserved.
_database_code_ICSD                419290
_audit_creation_date               2009/02/01
_chemical_name_systematic
;
Potassium Uranyl Cyclo-triphosphate - Alpha
;
_chemical_formula_structural       'K ((U O2) (P3 O9))'
_chemical_formula_sum              'K1 O11 P3 U1'
_publ_section_title
;
Complex topology of uranyl polyphosphate frameworks: Crystal 
structure of alpha-, beta- K [(U O2) (P3 O9)] and K [(U O2)2 (P3 
O10)]
;
loop_
_citation_id
_citation_journal_abbrev
_citation_year
_citation_journal_volume
_citation_journal_issue
_citation_page_first
_citation_page_last
_citation_journal_id_ASTM
primary 'Zeitschrift fuer Anorganische und Allgemeine Chemie (1950) (DE)'
 2008 634 9 1527 1532 ZAACAB
_publ_author_name
;
Alekseev, E.V.;Krivovichev, S.V.;Depmeier, W.;Knorr, K.
;
_cell_length_a                     8.4970(10)
_cell_length_b                     15.1150(10)
_cell_length_c                     14.7890(10)
_cell_angle_alpha                  90.00
_cell_angle_beta                   91.911(5)
_cell_angle_gamma                  90.00
_cell_volume                       1898.33
_cell_formula_units_Z              8
_symmetry_space_group_name_H-M     'P 1 21/m 1'
_symmetry_Int_Tables_number        11
_refine_ls_R_factor_all            .0734
loop_
_symmetry_equiv_pos_site_id
_symmetry_equiv_pos_as_xyz
  1	'x, -y+.5, z'
  2	'-x, -y, -z'
  3	'-x, y+.5, -z'
  4	'x, y, z'
loop_
_atom_type_symbol
_atom_type_oxidation_number
K1+	1
O2-	-2
P5+	5
U6+	6
loop_
_atom_site_label
_atom_site_type_symbol
_atom_site_symmetry_multiplicity
_atom_site_Wyckoff_symbol
_atom_site_fract_x
_atom_site_fract_y
_atom_site_fract_z
_atom_site_occupancy
_atom_site_attached_hydrogens
_atom_site_U_iso_or_equiv
U1 U6+ 2 e 0.64766(10) 0.2500 0.03663(6) 1 0 0.01615(18) 
U2 U6+ 2 e 0.08799(10) 0.2500 0.54968(6) 1 0 0.01598(18) 
U3 U6+ 4 f 0.58362(7) -0.00556(4) 0.73987(4) 1 0 0.01663(14) 
P1 P5+ 2 e 0.5168(7) 0.2500 0.5500(4) 1 0 0.0168(12) 
P2 P5+ 2 e 1.0751(7) 0.2500 0.0234(4) 1 0 0.0173(12) 
P3 P5+ 4 f 0.7393(5) 0.1048(3) 0.5419(3) 1 0 0.0152(8) 
P4 P5+ 4 f 0.3023(5) 0.1070(3) 0.0366(3) 1 0 0.0168(8) 
P5 P5+ 4 f 0.2391(5) -0.0186(3) 0.8895(3) 1 0 0.0179(8) 
P6 P5+ 4 f 1.0201(5) -0.0575(3) 0.7433(3) 1 0 0.0169(8) 
P7 P5+ 4 f 0.2102(5) 0.0270(3) 0.6008(3) 1 0 0.0161(8) 
K1 K1+ 2 e 0.6918(7) 0.2500 0.3273(4) 1 0 0.0255(12) 
K2 K1+ 2 e -0.1577(7) 0.2500 0.7625(5) 1 0 0.0338(14) 
K3 K1+ 2 e 0.8184(8) -0.2500 0.7288(5) 1 0 0.0322(13) 
K4 K1+ 2 e 0.3792(8) 0.2500 -0.1877(5) 1 0 0.0458(19) 
O1 O2- 4 f 0.2021(13) 0.0554(8) 0.9605(8) 1 0 0.018(2) 
O2 O2- 2 e 1.0961(18) 0.2500 -0.0724(11) 1 0 0.018(3) 
O3 O2- 4 f 0.6014(14) 0.1691(9) 0.5017(8) 1 0 0.020(3) 
O4 O2- 4 f 0.0741(14) -0.0166(9) 0.8397(8) 1 0 0.022(3) 
O5 O2- 4 f 1.1704(14) 0.1701(9) 0.0732(8) 1 0 0.021(3) 
O6 O2- 4 f 0.4264(15) 0.1594(9) -0.0096(9) 1 0 0.025(3) 
O7 O2- 4 f 0.3577(16) 0.0141(10) 0.8263(8) 1 0 0.029(3) 
O8 O2- 2 e 0.9206(17) 0.2500 0.0585(12) 1 0 0.017(3) 
O9 O2- 4 f 0.6731(14) 0.0320(8) 0.5963(9) 1 0 0.022(3) 
O10 O2- 2 e 0.587(2) 0.2500 0.1498(12) 1 0 0.023(4) 
O11 O2- 4 f 0.1964(14) -0.0667(8) 0.5501(9) 1 0 0.022(3) 
O12 O2- 4 f 1.0995(16) -0.1417(9) 0.7284(10) 1 0 0.029(3) 
O13 O2- 4 f 0.8437(14) -0.0534(10) 0.7395(8) 1 0 0.024(3) 
O14 O2- 4 f 0.0798(13) 0.0150(9) 0.6742(8) 1 0 0.020(3) 
O15 O2- 2 e 0.138(2) 0.2500 0.6643(12) 1 0 0.024(4) 
O16 O2- 4 f 0.3685(15) 0.0377(11) 0.6463(10) 1 0 0.031(3) 
O17 O2- 4 f 0.1561(14) 0.0990(8) 0.5377(8) 1 0 0.020(3) 
O18 O2- 4 f 0.6366(17) 0.1041(8) 0.7718(9) 1 0 0.027(3) 
O19 O2- 2 e 0.353(2) 0.2500 0.5118(15) 1 0 0.029(4) 
O20 O2- 4 f 0.3517(15) 0.0475(9) 0.1111(9) 1 0 0.024(3) 
O21 O2- 4 f 0.8647(15) 0.1610(8) 0.5859(9) 1 0 0.022(3) 
O22 O2- 4 f 0.2654(18) -0.1027(10) 0.9379(11) 1 0 0.035(3) 
O23 O2- 2 e 0.692(2) 0.2500 -0.0788(13) 1 0 0.026(4) 
O24 O2- 2 e 0.541(2) 0.2500 0.6469(13) 1 0 0.027(4) 
O25 O2- 2 e 0.029(3) 0.2500 0.4317(14) 1 0 0.034(5) 
O26 O2- 4 f 0.5378(14) -0.1169(9) 0.7098(10) 1 0 0.026(3) 

loop_
_atom_site_aniso_label
_atom_site_aniso_type_symbol
_atom_site_aniso_U_11
_atom_site_aniso_U_22
_atom_site_aniso_U_33
_atom_site_aniso_U_12
_atom_site_aniso_U_13
_atom_site_aniso_U_23
U1 U6+ 0.0162(4) 0.0155(4) 0.0168(4) 0.000 0.0014(3) 0.000
U2 U6+ 0.0163(4) 0.0153(4) 0.0163(4) 0.000 0.0005(3) 0.000
U3 U6+ 0.0145(3) 0.0182(3) 0.0172(3) -0.0007(2) 0.0010(2) 0.0019(2)
P1 P5+ 0.011(2) 0.017(3) 0.023(3) 0.000 0.006(2) 0.000
P2 P5+ 0.013(3) 0.017(3) 0.022(3) 0.000 -0.001(2) 0.000
P3 P5+ 0.0165(18) 0.0150(18) 0.0142(18) 0.0014(15) 0.0021(14) 0.0018(14)
P4 P5+ 0.0185(19) 0.0159(18) 0.0159(18) 0.0012(15) 0.0001(15) -0.0005(15)
P5 P5+ 0.0161(19) 0.0198(19) 0.0177(19) 0.0009(16) 0.0001(15) -0.0022(16)
P6 P5+ 0.0166(18) 0.0179(18) 0.0161(18) 0.0033(15) -0.0002(14) -0.0015(15)
P7 P5+ 0.0148(18) 0.0181(18) 0.0156(18) 0.0036(15) 0.0024(14) 0.0041(15)
K1 K1+ 0.025(3) 0.026(3) 0.025(3) 0.000 0.006(2) 0.000
K2 K1+ 0.030(3) 0.041(3) 0.031(3) 0.000 0.016(2) 0.000
K3 K1+ 0.037(3) 0.024(3) 0.037(3) 0.000 0.012(3) 0.000
K4 K1+ 0.029(3) 0.082(6) 0.027(3) 0.000 0.001(2) 0.000
O1 O2- 0.013(5) 0.025(6) 0.016(5) -0.002(4) 0.000(4) -0.005(4)
O2 O2- 0.011(7) 0.030(9) 0.012(7) 0.000 -0.003(6) 0.000
O3 O2- 0.024(6) 0.027(6) 0.009(5) 0.007(5) -0.001(4) 0.005(4)
O4 O2- 0.019(6) 0.030(6) 0.019(6) 0.005(5) 0.003(4) 0.005(5)
O5 O2- 0.022(6) 0.025(6) 0.018(6) 0.006(5) 0.005(4) -0.005(5)
O6 O2- 0.024(6) 0.027(6) 0.024(6) -0.005(5) 0.004(5) 0.013(5)
O7 O2- 0.035(7) 0.046(8) 0.008(5) 0.001(6) 0.011(5) 0.012(5)
O8 O2- 0.005(6) 0.008(6) 0.036(10) 0.000 0.004(6) 0.000
O9 O2- 0.019(6) 0.011(5) 0.036(7) -0.001(4) 0.004(5) -0.001(5)
O10 O2- 0.023(8) 0.021(8) 0.025(9) 0.000 -0.009(7) 0.000
O11 O2- 0.019(6) 0.015(5) 0.032(7) 0.006(4) 0.009(5) -0.003(5)
O12 O2- 0.031(7) 0.023(6) 0.032(7) 0.007(5) 0.005(6) 0.002(5)
O13 O2- 0.016(5) 0.047(8) 0.009(5) -0.017(5) 0.003(4) -0.003(5)
O14 O2- 0.013(5) 0.033(7) 0.014(5) 0.006(5) 0.002(4) -0.003(5)
O15 O2- 0.027(9) 0.020(8) 0.025(9) 0.000 0.007(7) 0.000
O16 O2- 0.017(6) 0.047(8) 0.030(7) 0.002(6) -0.002(5) 0.009(6)
O17 O2- 0.019(5) 0.017(5) 0.025(6) 0.003(4) 0.005(5) 0.001(5)
O18 O2- 0.038(7) 0.016(6) 0.028(7) -0.001(5) -0.004(6) -0.002(5)
O19 O2- 0.041(11) 0.005(7) 0.041(11) 0.000 0.005(9) 0.000
O20 O2- 0.026(6) 0.024(6) 0.024(6) 0.008(5) 0.006(5) 0.002(5)
O21 O2- 0.023(6) 0.018(5) 0.025(6) -0.004(5) 0.000(5) -0.004(5)
O22 O2- 0.035(8) 0.027(7) 0.043(9) 0.003(6) -0.006(6) 0.007(6)
O23 O2- 0.014(7) 0.037(10) 0.028(10) 0.000 0.009(7) 0.000
O24 O2- 0.029(9) 0.032(10) 0.022(9) 0.000 0.018(7) 0.000
O25 O2- 0.053(13) 0.026(10) 0.024(10) 0.000 0.002(9) 0.000
O26 O2- 0.017(6) 0.025(6) 0.036(7) -0.002(5) 0.002(5) -0.003(6)
#End of data_419290-ICSD


