data_635531-ICSD
#?2014 by Fachinformationszentrum Karlsruhe, and the U.S. Secretary of 
#Commerce on behalf of the United States.  All rights reserved.
_database_code_ICSD                635531
_audit_creation_date               2013/08/01
_chemical_name_systematic          'Tellurium Zinc Gallide (4/1/2)'
_chemical_formula_structural       'Te4 Zn Ga2'
_chemical_formula_sum              'Ga2 Te4 Zn1'
_publ_section_title
;
Effects of solid solution of Ga2 Te3 with AIIBVI tellurides
;
loop_
_citation_id
_citation_journal_abbrev
_citation_year
_citation_journal_volume
_citation_page_first
_citation_page_last
_citation_journal_id_ASTM
primary 'Journal of Physics and Chemistry of Solids' 1960 16 102 106 JPCSAW
_publ_author_name                  'Woolley, J.C.;Ray, B.'
_cell_length_a                     5.95
_cell_length_b                     5.95
_cell_length_c                     11.90
_cell_angle_alpha                  90.
_cell_angle_beta                   90.
_cell_angle_gamma                  90.
_cell_volume                       421.29
_cell_formula_units_Z              2
_symmetry_space_group_name_H-M     'I -4'
_symmetry_Int_Tables_number        82
loop_
_symmetry_equiv_pos_site_id
_symmetry_equiv_pos_as_xyz
  1	'-y, x, -z'
  2	'y, -x, -z'
  3	'-x, -y, z'
  4	'x, y, z'
  5	'-y+.5, x+.5, -z+.5'
  6	'y+.5, -x+.5, -z+.5'
  7	'-x+.5, -y+.5, z+.5'
  8	'x+.5, y+.5, z+.5'
loop_
_atom_type_symbol
_atom_type_oxidation_number
Ga3+	3
Te2-	-2
Zn2+	2
loop_
_atom_site_label
_atom_site_type_symbol
_atom_site_symmetry_multiplicity
_atom_site_Wyckoff_symbol
_atom_site_fract_x
_atom_site_fract_y
_atom_site_fract_z
_atom_site_occupancy
_atom_site_attached_hydrogens
Zn1 Zn2+ 2 a 0 0 0 1. 0 
Ga1 Ga3+ 2 b 0 0 0.5 1. 0 
Ga2 Ga3+ 2 c 0 0.5 0.25 1. 0 
Te1 Te2- 8 g 0.25 0.25 0.125 1. 0 

#End of data_635531-ICSD


