data_281194-ICSD
#?2014 by Fachinformationszentrum Karlsruhe, and the U.S. Secretary of 
#Commerce on behalf of the United States.  All rights reserved.
_database_code_ICSD                281194
_audit_creation_date               2003/10/01
_audit_update_record               2007/04/01
_chemical_name_systematic
;
Dipotassium Hexaselenocupro(I)triindate
;
_chemical_formula_structural       'K2 (Cu In3 Se6)'
_chemical_formula_sum              'Cu1 In3 K2 Se6'
_publ_section_title
;
K2 M M'3 Se6 (M = Cu, Ag; M' = Ga, In), a new series of metal 
chalcogenides with chain-sublayer-chain slabs: (infty 1)(M' Se4) - 
(infty 2)((M Se4) (M' Se4)) - (infty 1)(M' Se4)
;
loop_
_citation_id
_citation_journal_abbrev
_citation_year
_citation_journal_volume
_citation_page_first
_citation_page_last
_citation_journal_id_ASTM
primary 'Inorganic Chemistry' 2003 42 1366 1370 INOCAJ
_publ_author_name
;
Ma, H.-W.;Guo, G.-C.;Wang, M.-S.;Zhou, G.-W.;Lin, S.-H.;Dong 
Zhenchao;Huang, J.-S.
;
_cell_length_a                     11.445(2)
_cell_length_b                     11.495(2)
_cell_length_c                     21.263(4)
_cell_angle_alpha                  90.
_cell_angle_beta                   97.68(3)
_cell_angle_gamma                  90.
_cell_volume                       2772.27
_cell_formula_units_Z              8
_symmetry_space_group_name_H-M     'C 1 2/c 1'
_symmetry_Int_Tables_number        15
_refine_ls_R_factor_all            .0676
loop_
_symmetry_equiv_pos_site_id
_symmetry_equiv_pos_as_xyz
  1	'x, -y, z+.5'
  2	'-x, -y, -z'
  3	'-x, y, -z+.5'
  4	'x, y, z'
  5	'x+.5, -y+.5, z+.5'
  6	'-x+.5, -y+.5, -z'
  7	'-x+.5, y+.5, -z+.5'
  8	'x+.5, y+.5, z'
loop_
_atom_type_symbol
_atom_type_oxidation_number
Cu1+	1
In3+	3
K1+	1
Se2-	-2
loop_
_atom_site_label
_atom_site_type_symbol
_atom_site_symmetry_multiplicity
_atom_site_Wyckoff_symbol
_atom_site_fract_x
_atom_site_fract_y
_atom_site_fract_z
_atom_site_occupancy
_atom_site_attached_hydrogens
_atom_site_U_iso_or_equiv
In1 In3+ 4 e 0 0.06353(4) 0.75 1. 0 0.01090(10) 
In2 In3+ 4 e 0.5 0.06102(4) 0.75 1. 0 0.01148(10) 
In3 In3+ 8 f 0.53417(3) -.18764(3) 0.885094(15) 1. 0 0.01152(7) 
In4 In3+ 8 f 0.21643(3) 0.06293(3) 0.614721(15) 1. 0 0.01098(7) 
Cu1 Cu1+ 8 f 0.25123(6) -.18741(6) 0.74996(3) 1. 0 0.01845(15) 
Se1 Se2- 8 f 0.36296(4) 0.20106(4) 0.67919(2) 1. 0 0.01146(10) 
Se2 Se2- 8 f 0.65676(4) -.31780(4) 0.82044(2) 1. 0 0.01226(10) 
Se3 Se2- 8 f 0.07559(6) 0.19096(6) 0.54039(3) 1. 0 0.03884(16) 
Se4 Se2- 8 f 0.37894(4) -.05804(4) 0.82051(2) 1. 0 0.01257(11) 
Se5 Se2- 8 f 0.31882(6) -.06645(6) 0.54006(3) 1. 0 0.03836(15) 
Se6 Se2- 8 f 0.10192(4) -.07568(4) 0.67925(2) 1. 0 0.01114(10) 
K1 K1+ 8 f -.16322(12) -.05944(13) 0.58256(6) 1. 0 0.0344(3) 
K2 K1+ 8 f 0.07910(13) -.31562(13) 0.58258(6) 1. 0 0.0362(3) 

loop_
_atom_site_aniso_label
_atom_site_aniso_type_symbol
_atom_site_aniso_U_11
_atom_site_aniso_U_22
_atom_site_aniso_U_33
_atom_site_aniso_U_12
_atom_site_aniso_U_13
_atom_site_aniso_U_23
In1 In3+ 0.00730(18) 0.00882(17) 0.01664(19) 0 0.00188(16) 0
In2 In3+ 0.00690(18) 0.00955(18) 0.01762(19) 0 0.00025(16) 0
In3 In3+ 0.00773(13) 0.00903(12) 0.01764(14) -0.00397(11) 0.00115(12) 
-0.00100(12)
In4 In3+ 0.00653(13) 0.01031(13) 0.01597(13) 0.00346(11) 0.00107(11) 
0.00097(12)
Cu1 Cu1+ 0.0161(3) 0.0195(3) 0.0196(3) -0.0001(2) 0.0021(2) 0.0017(2)
Se1 Se2- 0.00762(18) 0.00857(18) 0.01779(19) 0.00202(16) 0.00023(16) 
0.00085(17)
Se2 Se2- 0.00743(19) 0.01073(18) 0.0185(2) -0.00162(16) 0.00110(17) 
-0.00083(18)
Se3 Se2- 0.0480(3) 0.0525(3) 0.0152(2) 0.0470(2) 0.0013(2) 0.0019(2)
Se4 Se2- 0.00751(19) 0.01124(18) 0.0191(2) -0.00153(17) 0.00210(17) 
0.00103(18)
Se5 Se2- 0.0487(3) 0.0517(3) 0.0137(2) 0.0458(2) 0.0006(2) 0.0021(2)
Se6 Se2- 0.00723(18) 0.00922(18) 0.01725(19) 0.00100(16) 0.00267(16) 
-0.00048(17)
K1 K1+ 0.0382(7) 0.0423(7) 0.0210(5) 0.0250(6) -0.0018(5) -0.0016(5)
K2 K1+ 0.0403(7) 0.0472(7) 0.0218(5) 0.0275(6) 0.0068(5) 0.0046(6)
#End of data_281194-ICSD


