data_28200-ICSD
#?2014 by Fachinformationszentrum Karlsruhe, and the U.S. Secretary of 
#Commerce on behalf of the United States.  All rights reserved.
_database_code_ICSD                28200
_audit_creation_date               1980/01/01
_audit_update_record               2011/02/01
_chemical_name_systematic          'Tetrasodium Dicadmium Trisilicate'
_chemical_formula_structural       'Na4 Cd2 Si3 O10'
_chemical_formula_sum              'Cd2 Na4 O10 Si3'
_publ_section_title
;
The New Radikal Si3 O10 in the Structure of Na4 Cd2 Si3 O10
;
loop_
_citation_id
_citation_journal_abbrev
_citation_year
_citation_journal_volume
_citation_page_first
_citation_page_last
_citation_journal_id_ASTM
primary 'Doklady Akademii Nauk SSSR' 1968 179 1329 1332 DANKAS
_publ_author_name
;
Simonov, M.A.;Egorov Tismenko, Yu.K.;Belov, N.V.
;
_cell_length_a                     10.00(3)
_cell_length_b                     5.83(2)
_cell_length_c                     16.80(5)
_cell_angle_alpha                  90.
_cell_angle_beta                   80.
_cell_angle_gamma                  90.
_cell_volume                       964.56
_cell_formula_units_Z              4
_symmetry_space_group_name_H-M     'C 1 2/c 1'
_symmetry_Int_Tables_number        15
_refine_ls_R_factor_all            .164
loop_
_symmetry_equiv_pos_site_id
_symmetry_equiv_pos_as_xyz
  1	'x, -y, z+.5'
  2	'-x, -y, -z'
  3	'-x, y, -z+.5'
  4	'x, y, z'
  5	'x+.5, -y+.5, z+.5'
  6	'-x+.5, -y+.5, -z'
  7	'-x+.5, y+.5, -z+.5'
  8	'x+.5, y+.5, z'
loop_
_atom_type_symbol
_atom_type_oxidation_number
Cd2+	2
Na1+	1
O2-	-2
Si4+	4
loop_
_atom_site_label
_atom_site_type_symbol
_atom_site_symmetry_multiplicity
_atom_site_Wyckoff_symbol
_atom_site_fract_x
_atom_site_fract_y
_atom_site_fract_z
_atom_site_occupancy
_atom_site_attached_hydrogens
_atom_site_B_iso_or_equiv
Na1 Na1+ 8 f 0.329 0.895 0.245 1. 0 0.07 
Na2 Na1+ 8 f 0.747 0.565 0.061 1. 0 0.07 
Cd1 Cd2+ 8 f 0.402 0.599 0.085 1. 0 0.07 
Si1 Si4+ 4 e 0.5 0.381 0.25 1. 0 0.07 
Si2 Si4+ 8 f 0.566 0.107 0.101 1. 0 0.07 
O1 O2- 8 f 0.394 0.531 0.209 1. 0 0.07 
O2 O2- 8 f 0.591 0.202 0.187 1. 0 0.07 
O3 O2- 8 f 0.701 0.953 0.073 1. 0 0.07 
O4 O2- 8 f 0.562 0.331 0.044 1. 0 0.07 
O5 O2- 8 f 0.424 0.961 0.118 1. 0 0.07 

#End of data_28200-ICSD


