data_81413-ICSD
#?2014 by Fachinformationszentrum Karlsruhe, and the U.S. Secretary of 
#Commerce on behalf of the United States.  All rights reserved.
_database_code_ICSD                81413
_audit_creation_date               1997/11/05
_audit_update_record               2012/08/01
_chemical_name_systematic
;
Tripotassium Catena-tetrathiovanadate
;
_chemical_formula_structural       'K3 (V S4)'
_chemical_formula_sum              'K3 S4 V1'
_publ_section_title
;
Synthesis and crystal structures of K2 Cu V S4 and K3 V S4: first 
examples of ternary and quaternary vanadium sulfides prepared via the 
molten flux method
;
loop_
_citation_id
_citation_journal_abbrev
_citation_year
_citation_journal_volume
_citation_page_first
_citation_page_last
_citation_journal_id_ASTM
primary 'European Journal of Solid State Inorganic Chemistry'
 1996 33 309 320 EJSCE5
2
;
Koninklijke Nederlandse Akademie van Wetenschappen, Series B: 
Physical Sciences: Proceedings
;
 1964 67 178 180 KNWBAA
_publ_author_name                  'Duerichen, P.;Bensch, W.'
_cell_length_a                     9.138(2)
_cell_length_b                     10.627(2)
_cell_length_c                     9.131(2)
_cell_angle_alpha                  90.
_cell_angle_beta                   90.
_cell_angle_gamma                  90.
_cell_volume                       886.71
_cell_formula_units_Z              4
_symmetry_space_group_name_H-M     'P n m a'
_symmetry_Int_Tables_number        62
_refine_ls_R_factor_all            .031
loop_
_symmetry_equiv_pos_site_id
_symmetry_equiv_pos_as_xyz
  1	'x+.5, y, -z+.5'
  2	'x, -y+.5, z'
  3	'-x+.5, y+.5, z+.5'
  4	'-x, -y, -z'
  5	'-x+.5, -y, z+.5'
  6	'-x, y+.5, -z'
  7	'x+.5, -y+.5, -z+.5'
  8	'x, y, z'
loop_
_atom_type_symbol
_atom_type_oxidation_number
K1+	1
S2-	-2
V5+	5
loop_
_atom_site_label
_atom_site_type_symbol
_atom_site_symmetry_multiplicity
_atom_site_Wyckoff_symbol
_atom_site_fract_x
_atom_site_fract_y
_atom_site_fract_z
_atom_site_occupancy
_atom_site_attached_hydrogens
_atom_site_U_iso_or_equiv
V1 V5+ 4 c 0.2831(1) 0.25 0.0152(2) 1. 0 0.018(1) 
S1 S2- 4 c 0.5010(2) 0.25 0.9227(3) 1. 0 0.026(1) 
S2 S2- 4 c 0.2998(2) 0.25 0.2502(3) 1. 0 0.025(1) 
S3 S2- 8 d 0.1702(2) 0.0827(2) 0.9473(2) 1. 0 0.033(1) 
K1 K1+ 4 c 0.6429(2) 0.75 0.4118(2) 1. 0 0.042(1) 
K2 K1+ 8 d 0.5493(1) 0.0453(1) 0.2077(2) 1. 0 0.030(1) 

#End of data_81413-ICSD


