data_163528-ICSD
#?2014 by Fachinformationszentrum Karlsruhe, and the U.S. Secretary of 
#Commerce on behalf of the United States.  All rights reserved.
_database_code_ICSD                163528
_audit_creation_date               2009/08/01
_chemical_name_systematic          'Calcium Titanate'
_chemical_formula_structural       'Ca (Ti O3)'
_chemical_formula_sum              'Ca1 O3 Ti1'
_publ_section_title
;
Structural properties of Ca Ti1-x (Nb2/3 Li2/3)x O3-d (CNLTO) and Ca 
Ti1-x (Nb1/2 Ln1/2)x O3 (Ln= Fe (CNFTO), Bi(CNBTO)), modified 
dielectric ceramics for microwave applications
;
loop_
_citation_id
_citation_journal_abbrev
_citation_year
_citation_journal_volume
_citation_page_first
_citation_page_last
_citation_journal_id_ASTM
primary 'Physica B, Condensed Matter' 2009 2009 1409 1414 PHYBE3
_publ_author_name
;
Costa, R.C.S.;Bruno Costa, A.D.S.;Freire, F.N.A.;Santos, 
M.R.P.;Almeida, J.S.;Sohn, R.S.T.M.;Sasaki, J.M.;Sombra, A.S.B.
;
_cell_length_a                     5.3831
_cell_length_b                     5.4366
_cell_length_c                     7.6404
_cell_angle_alpha                  90.
_cell_angle_beta                   90.
_cell_angle_gamma                  90.
_cell_volume                       223.6
_cell_formula_units_Z              4
_symmetry_space_group_name_H-M     'P b n m'
_symmetry_Int_Tables_number        62
loop_
_symmetry_equiv_pos_site_id
_symmetry_equiv_pos_as_xyz
  1	'-x+.5, y+.5, z'
  2	'x, y, -z+.5'
  3	'x+.5, -y+.5, z+.5'
  4	'-x, -y, -z'
  5	'x+.5, -y+.5, -z'
  6	'-x, -y, z+.5'
  7	'-x+.5, y+.5, -z+.5'
  8	'x, y, z'
loop_
_atom_type_symbol
_atom_type_oxidation_number
Ca2+	2
O2-	-2
Ti4+	4
loop_
_atom_site_label
_atom_site_type_symbol
_atom_site_symmetry_multiplicity
_atom_site_Wyckoff_symbol
_atom_site_fract_x
_atom_site_fract_y
_atom_site_fract_z
_atom_site_occupancy
_atom_site_attached_hydrogens
Ca1 Ca2+ 4 c 0.99345 0.03410 0.250 1. 0 
Ti1 Ti4+ 4 b 0 0.5 0 1. 0 
O1 O2- 4 c 0.07813 0.48436 0.250 1. 0 
O2 O2- 8 d 0.71475 0.28520 0.03709 1. 0 

#End of data_163528-ICSD


