data_414137-ICSD
#?2014 by Fachinformationszentrum Karlsruhe, and the U.S. Secretary of 
#Commerce on behalf of the United States.  All rights reserved.
_database_code_ICSD                414137
_audit_creation_date               2005/10/01
_audit_update_record               2011/02/01
_chemical_name_systematic
;
Disodium Decahydro-closo-decaborate
;
_chemical_formula_structural       'Na2 (B10 H10)'
_chemical_formula_sum              'H10 B10 Na2'
_publ_section_title
;
Crystal structures of M2 [B10 H10] (M = Na, K, Rb) via real space 
simulated annealing powder techniques
;
loop_
_citation_id
_citation_journal_abbrev
_citation_year
_citation_journal_volume
_citation_page_first
_citation_page_last
_citation_journal_id_ASTM
primary 'Zeitschrift fuer Kristallographie (1979-2010)' 2005 220 142 146 ZEKRDZ
_publ_author_name                  'Hoffmann, K.;Albert, B.'
_cell_length_a                     10.2828(6)
_cell_length_b                     13.0218(5)
_cell_length_c                     6.6734(3)
_cell_angle_alpha                  90.0
_cell_angle_beta                   93.754(3)
_cell_angle_gamma                  90.0
_cell_volume                       891.65
_cell_formula_units_Z              4
_symmetry_space_group_name_H-M     'P 1 21/n 1'
_symmetry_Int_Tables_number        14
_refine_ls_R_factor_all            .0548
loop_
_symmetry_equiv_pos_site_id
_symmetry_equiv_pos_as_xyz
  1	'-x+.5, y+.5, -z+.5'
  2	'-x, -y, -z'
  3	'x+.5, -y+.5, z+.5'
  4	'x, y, z'
loop_
_atom_type_symbol
_atom_type_oxidation_number
B.8+	.8
H1-	-1
Na1+	1
loop_
_atom_site_label
_atom_site_type_symbol
_atom_site_symmetry_multiplicity
_atom_site_Wyckoff_symbol
_atom_site_fract_x
_atom_site_fract_y
_atom_site_fract_z
_atom_site_occupancy
_atom_site_attached_hydrogens
_atom_site_U_iso_or_equiv
Na1 Na1+ 4 e 0.9880(5) 0.6323(7) 0.7575(8) 1.0 0 0.047(2) 
Na2 Na1+ 4 e 0.4941(5) 0.6298(6) 0.6927(6) 1.0 0 0.020(1) 
B1 B.8+ 4 e 0.091(4) 0.420(3) 0.823(7) 1.0 0 0.050(2) 
B2 B.8+ 4 e 0.350(3) 0.351(3) 0.894(6) 1.0 0 0.050(2) 
B3 B.8+ 4 e 0.230(4) 0.460(3) 0.916(5) 1.0 0 0.050(2) 
B4 B.8+ 4 e 0.266(4) 0.265(2) 0.726(7) 1.0 0 0.050(2) 
B5 B.8+ 4 e 0.353(4) 0.453(3) 0.691(6) 1.0 0 0.050(2) 
B6 B.8+ 4 e 0.110(5) 0.332(3) 0.628(6) 1.0 0 0.050(2) 
B7 B.8+ 4 e 0.175(4) 0.473(3) 0.643(6) 1.0 0 0.050(2) 
B8 B.8+ 4 e 0.394(4) 0.328(3) 0.674(6) 1.0 0 0.050(2) 
B9 B.8+ 4 e 0.258(4) 0.363(3) 0.530(5) 1.0 0 0.050(2) 
B10 B.8+ 4 e 0.176(4) 0.322(3) 0.925(6) 1.0 0 0.050(2) 
H1 H1- 4 e 0.39(1) 0.33(1) 0.06(1) 1.0 0 0.025 
H2 H1- 4 e 0.04(1) 0.27(1) 0.53(2) 1.0 0 0.025 
H3 H1- 4 e 0.41(1) 0.531(6) 0.75(2) 1.0 0 0.025 
H4 H1- 4 e 0.995(9) 0.45(1) 0.88(3) 1.0 0 0.025 
H5 H1- 4 e 0.22(1) 0.51(8) 0.05(1) 1.0 0 0.025 
H6 H1- 4 e 0.28(2) 0.177(3) 0.70(2) 1.0 0 0.025 
H7 H1- 4 e 0.500(8) 0.32(1) 0.62(2) 1.0 0 0.025 
H8 H1- 4 e 0.26(1) 0.36(1) 0.356(5) 1.0 0 0.025 
H9 H1- 4 e 0.12(1) 0.530(8) 0.52(2) 1.0 0 0.025 
H10 H1- 4 e 0.13(2) 0.27(1) 0.04(2) 1.0 0 0.025 

#End of data_414137-ICSD


