data_421527-ICSD
#?2014 by Fachinformationszentrum Karlsruhe, and the U.S. Secretary of 
#Commerce on behalf of the United States.  All rights reserved.
_database_code_ICSD                421527
_audit_creation_date               2011/02/01
_chemical_name_systematic          'Lithium Cerium Nitridosilicate *'
_chemical_formula_structural       'Li5 Ce5 Si4 N12'
_chemical_formula_sum              'Ce5 Li5 N12 Si4'
_publ_section_title
;
Chain-type lithium rare-earth nitridosilicates - Li5 Ln5 Si4 N12 with 
Ln = La, Ce
;
loop_
_citation_id
_citation_journal_abbrev
_citation_year
_citation_journal_volume
_citation_journal_issue
_citation_page_first
_citation_page_last
_citation_journal_id_ASTM
primary 'European Journal of Inorganic Chemistry  (online)'
 2010 2010 18 2636 2641 EJICFO
2 'Zeitschrift fuer Anorganische und Allgemeine Chemie (1950) (DE)'
 2010 636 11 2053 2053 ZAACAB
_publ_author_name
;
Lupart, S.;Zeuner, M.;Pagano, S.;Schnick, W.
;
_cell_length_a                     10.9778(16)
_cell_length_b                     10.9778(16)
_cell_length_c                     5.5143(11)
_cell_angle_alpha                  90.00
_cell_angle_beta                   90.00
_cell_angle_gamma                  90.00
_cell_volume                       664.54
_cell_formula_units_Z              2
_symmetry_space_group_name_H-M     'P -4 b 2'
_symmetry_Int_Tables_number        117
_refine_ls_R_factor_all            .0294
loop_
_symmetry_equiv_pos_site_id
_symmetry_equiv_pos_as_xyz
  1	'-y+.5, -x+.5, -z'
  2	'y, -x, -z'
  3	'y+.5, x+.5, -z'
  4	'-y, x, -z'
  5	'x+.5, -y+.5, z'
  6	'-x, -y, z'
  7	'-x+.5, y+.5, z'
  8	'x, y, z'
loop_
_atom_type_symbol
_atom_type_oxidation_number
Ce3+	3
Li1+	1
N3-	-3
Si4+	4
loop_
_atom_site_label
_atom_site_type_symbol
_atom_site_symmetry_multiplicity
_atom_site_Wyckoff_symbol
_atom_site_fract_x
_atom_site_fract_y
_atom_site_fract_z
_atom_site_occupancy
_atom_site_attached_hydrogens
_atom_site_U_iso_or_equiv
Ce1 Ce3+ 8 i 0.11646(4) 0.12300(4) 0.26516(7) 1 0 0.01176(13) 
Ce2 Ce3+ 2 d 0.5000 0.0000 0.5000 1 0 0.01949(19) 
Si1 Si4+ 8 i 0.26695(18) -0.10984(18) 0.2393(4) 1 0 0.0110(4) 
N1 N3- 8 i 0.3311(6) 0.0307(6) 0.2007(13) 1 0 0.0171(12) 
N2 N3- 8 i 0.1085(7) -0.1040(7) 0.2634(10) 1 0 0.0138(11) 
N3 N3- 4 g 0.2124(6) 0.2876(6) 0.0000 1 0 0.0139(15) 
N4 N3- 4 h 0.3258(6) -0.1742(6) 0.5000 1 0 0.0140(16) 
Li1 Li1+ 8 i 0.3870(16) 0.2070(18) 0.144(4) 1 0 0.024(3) 
Li2 Li1+ 2 c 0.5000 0.0000 0.0000 1 0 0.004(3) 

loop_
_atom_site_aniso_label
_atom_site_aniso_type_symbol
_atom_site_aniso_U_11
_atom_site_aniso_U_22
_atom_site_aniso_U_33
_atom_site_aniso_U_12
_atom_site_aniso_U_13
_atom_site_aniso_U_23
Ce1 Ce3+ 0.0117(2) 0.0102(2) 0.01337(18) -0.00061(10) 0.0007(2) 0.0004(2)
Ce2 Ce3+ 0.0154(2) 0.0154(2) 0.0276(4) -0.0017(4) 0.000 0.000
Si1 Si4+ 0.0109(8) 0.0110(8) 0.0112(9) 0.0004(6) 0.0014(9) 0.0010(9)
N1 N3- 0.018(3) 0.013(3) 0.020(3) 0.002(3) 0.000(3) 0.001(2)
N2 N3- 0.016(3) 0.017(3) 0.009(2) -0.001(2) 0.000(4) 0.000(4)
N3 N3- 0.014(2) 0.014(2) 0.013(4) -0.004(3) -0.001(3) -0.001(3)
N4 N3- 0.015(2) 0.015(2) 0.012(4) 0.003(3) 0.001(3) -0.001(3)
#End of data_421527-ICSD


