data_66405-ICSD
#?2014 by Fachinformationszentrum Karlsruhe, and the U.S. Secretary of 
#Commerce on behalf of the United States.  All rights reserved.
_database_code_ICSD                66405
_audit_creation_date               1993/01/06
_audit_update_record               2006/04/01
_chemical_name_systematic
;
Diiron(III) Trisodium Tris(phosphate(V)) - Lt
;
_chemical_formula_structural       'Fe2 Na3 (P O4)3'
_chemical_formula_sum              'Fe2 Na3 O12 P3'
_publ_section_title
;
Powder neutron diffraction study of Fe2 Na3 (P O4)3 in the low 
temperature phase
;
loop_
_citation_id
_citation_journal_abbrev
_citation_year
_citation_journal_volume
_citation_page_first
_citation_page_last
_citation_journal_id_ASTM
primary 'Journal of Magnetism and Magnetic Materials' 1992 104 933 934 JMMMDC
2 'Golden Book of Phase Transitions, Wroclaw' 2002 1 1 123 GBOPT5
_publ_author_name                  'Fanjat, N.;Soubeyroux, J.L.'
_cell_length_a                     15.07(7)
_cell_length_b                     8.740(5)
_cell_length_c                     8.724(9)
_cell_angle_alpha                  90.
_cell_angle_beta                   125.1(1)
_cell_angle_gamma                  90.
_cell_volume                       940.1
_cell_formula_units_Z              4
_symmetry_space_group_name_H-M     'C 1 2/c 1'
_symmetry_Int_Tables_number        15
_refine_ls_R_factor_all            .0176
loop_
_symmetry_equiv_pos_site_id
_symmetry_equiv_pos_as_xyz
  1	'x, -y, z+.5'
  2	'-x, -y, -z'
  3	'-x, y, -z+.5'
  4	'x, y, z'
  5	'x+.5, -y+.5, z+.5'
  6	'-x+.5, -y+.5, -z'
  7	'-x+.5, y+.5, -z+.5'
  8	'x+.5, y+.5, z'
loop_
_atom_type_symbol
_atom_type_oxidation_number
Fe3+	3
Na1+	1
O2-	-2
P5+	5
loop_
_atom_site_label
_atom_site_type_symbol
_atom_site_symmetry_multiplicity
_atom_site_Wyckoff_symbol
_atom_site_fract_x
_atom_site_fract_y
_atom_site_fract_z
_atom_site_occupancy
_atom_site_attached_hydrogens
Fe1 Fe3+ 8 f 0.109(8) 0.235(1) 0.059(1) 1. 0 
O1 O2- 8 f 0.145(8) 0.43 0.224(7) 1. 0 
O2 O2- 8 f 0.416(2) 0.461(3) 0.059(3) 1. 0 
O3 O2- 8 f 0.258(3) 0.171(2) 0.243(5) 1. 0 
O4 O2- 8 f 0.328(1) 0.144(4) 0.070(2) 1. 0 
O5 O2- 8 f 0.472(9) 0.151(8) 0.436(3) 1. 0 
O6 O2- 8 f 0.074(4) 0.140(8) 0.243(5) 1. 0 
P1 P5+ 8 f 0.358 0.107(8) 0.270(8) 1. 0 
P2 P5+ 4 e 0 0.033(2) 0.25 1. 0 
Na1 Na1+ 4 d 0.25 0.25 0.5 1. 0 
Na2 Na1+ 8 f 0.331(4) 0.368(9) 0.282(2) 1. 0 

#End of data_66405-ICSD


