data_26831-ICSD
#?2014 by Fachinformationszentrum Karlsruhe, and the U.S. Secretary of 
#Commerce on behalf of the United States.  All rights reserved.
_database_code_ICSD                26831
_audit_creation_date               1986/09/26
_audit_update_record               2010/02/01
_chemical_name_systematic          'Sodium Hydroxide - Alpha'
_chemical_formula_structural       'Na (O H)'
_chemical_formula_sum              'H1 Na1 O1'
_publ_section_title
;
Neubestimmung der Kristallstrukturen des dimorphen Natriumhydroxids, 
Na O H, bei verschiedenen Temperaturen mit Roentgenstrahl- und 
Neutronenbeugung
;
loop_
_citation_id
_citation_journal_abbrev
_citation_year
_citation_journal_volume
_citation_page_first
_citation_page_last
_citation_journal_id_ASTM
primary
;
Zeitschrift fuer Kristallographie, Kristallgeometrie, Kristallphysik, 
Kristallchemie (-144,1977)
;
 1967 125 332 359 ZEKGAX
2 'Golden Book of Phase Transitions, Wroclaw' 2002 1 1 123 GBOPT5
_publ_author_name                  'Stehr, H.'
_cell_length_a                     3.3994(10)
_cell_length_b                     3.3994(10)
_cell_length_c                     11.377(5)
_cell_angle_alpha                  90.
_cell_angle_beta                   90.
_cell_angle_gamma                  90.
_cell_volume                       131.47
_cell_formula_units_Z              4
_symmetry_space_group_name_H-M     'B m m b'
_symmetry_Int_Tables_number        63
_refine_ls_R_factor_all            .05
loop_
_symmetry_equiv_pos_site_id
_symmetry_equiv_pos_as_xyz
  1	'-x, -y+.5, z'
  2	'-x, y+.5, -z'
  3	'-x, y, z'
  4	'-x, -y, -z'
  5	'x, y+.5, -z'
  6	'x, -y+.5, z'
  7	'x, -y, -z'
  8	'x, y, z'
  9	'-x+.5, -y+.5, z+.5'
 10	'-x+.5, y+.5, -z+.5'
 11	'-x+.5, y, z+.5'
 12	'-x+.5, -y, -z+.5'
 13	'x+.5, y+.5, -z+.5'
 14	'x+.5, -y+.5, z+.5'
 15	'x+.5, -y, -z+.5'
 16	'x+.5, y, z+.5'
loop_
_atom_type_symbol
_atom_type_oxidation_number
H1+	1
Na1+	1
O2-	-2
loop_
_atom_site_label
_atom_site_type_symbol
_atom_site_symmetry_multiplicity
_atom_site_Wyckoff_symbol
_atom_site_fract_x
_atom_site_fract_y
_atom_site_fract_z
_atom_site_occupancy
_atom_site_attached_hydrogens
Na1 Na1+ 4 c 0 0.25 0.1639(6) 1. 0 
O1 O2- 4 c 0 0.25 0.3662(6) 1. 0 
H1 H1+ 4 c 0 0.25 0.4468(6) 1. 0 

#End of data_26831-ICSD


