data_100607-ICSD
#?2014 by Fachinformationszentrum Karlsruhe, and the U.S. Secretary of 
#Commerce on behalf of the United States.  All rights reserved.
_database_code_ICSD                100607
_audit_creation_date               1980/12/31
_audit_update_record               1997/11/10
_chemical_name_systematic          'Dicalcium Difluoride Carbonate'
_chemical_formula_structural       'Ca2 F2 (C O3)'
_chemical_formula_sum              'C1 Ca2 F2 O3'
_chemical_name_mineral             Brenkite
_publ_section_title
;
Die Kristallstruktur von Brenkit, Ca2 F2 (C O3)
;
loop_
_citation_id
_citation_journal_abbrev
_citation_year
_citation_journal_volume
_citation_page_first
_citation_page_last
_citation_journal_id_ASTM
primary
;
TMPM. Tschermaks Mineralogische und Petrographische Mitteilungen 
(1979-)
;
 1980 27 261 266 TTMMDZ
2 'Fortschritte der Mineralogie, Beiheft' 1978 56 81 82 FMNBB6
_publ_author_name                  'Leufer, U.;Tillmanns, E.'
_cell_length_a                     7.650(2)
_cell_length_b                     7.550(2)
_cell_length_c                     6.548(2)
_cell_angle_alpha                  90.
_cell_angle_beta                   90.
_cell_angle_gamma                  90.
_cell_volume                       378.2
_cell_formula_units_Z              4
_symmetry_space_group_name_H-M     'P b c n'
_symmetry_Int_Tables_number        60
_refine_ls_R_factor_all            .023
loop_
_symmetry_equiv_pos_site_id
_symmetry_equiv_pos_as_xyz
  1	'x, -y, z+.5'
  2	'-x+.5, y+.5, z'
  3	'x+.5, y+.5, -z+.5'
  4	'-x, -y, -z'
  5	'-x, y, -z+.5'
  6	'x+.5, -y+.5, -z'
  7	'-x+.5, -y+.5, z+.5'
  8	'x, y, z'
loop_
_atom_type_symbol
_atom_type_oxidation_number
C4+	4
Ca2+	2
F1-	-1
O2-	-2
loop_
_atom_site_label
_atom_site_type_symbol
_atom_site_symmetry_multiplicity
_atom_site_Wyckoff_symbol
_atom_site_fract_x
_atom_site_fract_y
_atom_site_fract_z
_atom_site_occupancy
_atom_site_attached_hydrogens
Ca1 Ca2+ 8 d 0.32447(3) 0.16198(2) 0.46489(3) 1. 0 
C1 C4+ 4 c 0 0.0283(3) 0.25 1. 0 
O1 O2- 4 c 0 0.2002(2) 0.25 1. 0 
O2 O2- 8 d 0.3675(1) 0.4451(1) 0.3205(2) 1. 0 
F1 F1- 8 d 0.3798(1) 0.1205(1) 0.1010(1) 1. 0 

loop_
_atom_site_aniso_label
_atom_site_aniso_type_symbol
_atom_site_aniso_B_11
_atom_site_aniso_B_22
_atom_site_aniso_B_33
_atom_site_aniso_B_12
_atom_site_aniso_B_13
_atom_site_aniso_B_23
Ca1 Ca2+ 0.69(1) 0.53(1) 0.85(1) -.01(1) -.04(1) -.01(1)
C1 C4+ 0.91(4) 0.64(3) 0.67(4) 0 -.09(3) 0
O1 O2- 1.96(4) 0.57(3) 1.30(4) 0 0.57(3) 0
O2 O2- 0.99(2) 0.98(2) 1.84(3) 0.16(2) 0.66(2) 0.41(2)
F1 F1- 0.87(2) 1.13(2) 1.05(2) -.07(2) -.08(2) -.20(2)
#End of data_100607-ICSD


