data_246210-ICSD
#?2014 by Fachinformationszentrum Karlsruhe, and the U.S. Secretary of 
#Commerce on behalf of the United States.  All rights reserved.
_database_code_ICSD                246210
_audit_creation_date               2009/02/01
_chemical_name_systematic
;
Calcium Manganese(II) Catena-disilicate
;
_chemical_formula_structural       'Ca Mn (Si2 O6)'
_chemical_formula_sum              'Ca1 Mn1 O6 Si2'
_publ_section_title
;
Magnetic ordering and spin structure in Ca-bearing clinopyroxenes Ca 
M2+ (Si, Ge)2 o6, M = Fe, Ni, Co, Mn
;
loop_
_citation_id
_citation_journal_abbrev
_citation_year
_citation_journal_volume
_citation_journal_issue
_citation_page_first
_citation_page_last
_citation_journal_id_ASTM
primary 'Journal of Solid State Chemistry' 2008 181 11 3163 3176 JSSCBI
_publ_author_name
;
Redhammer, G.J.;Roth, G.;Treutmann, W.;Paulus, W.;Andre, 
G.;Pietzonka, C.;Amthauer, G.
;
_cell_length_a                     10.2667(5)
_cell_length_b                     9.1452(5)
_cell_length_c                     5.4599(4)
_cell_angle_alpha                  90
_cell_angle_beta                   104.071(5)
_cell_angle_gamma                  90
_cell_volume                       497.25
_cell_formula_units_Z              4
_symmetry_space_group_name_H-M     'C 1 2/c 1'
_symmetry_Int_Tables_number        15
_refine_ls_R_factor_all            .0148
loop_
_symmetry_equiv_pos_site_id
_symmetry_equiv_pos_as_xyz
  1	'x, -y, z+.5'
  2	'-x, -y, -z'
  3	'-x, y, -z+.5'
  4	'x, y, z'
  5	'x+.5, -y+.5, z+.5'
  6	'-x+.5, -y+.5, -z'
  7	'-x+.5, y+.5, -z+.5'
  8	'x+.5, y+.5, z'
loop_
_atom_type_symbol
_atom_type_oxidation_number
Ca2+	2
Mn2+	2
O2-	-2
Si4+	4
loop_
_atom_site_label
_atom_site_type_symbol
_atom_site_symmetry_multiplicity
_atom_site_Wyckoff_symbol
_atom_site_fract_x
_atom_site_fract_y
_atom_site_fract_z
_atom_site_occupancy
_atom_site_attached_hydrogens
_atom_site_B_iso_or_equiv
Mn1 Mn2+ 4 e 0 0.9032(14) 0.25 1. 0 1.31(12) 
Ca1 Ca2+ 4 e 0 0.3042(11) 0.25 1. 0 1.38(9) 
Si1 Si4+ 8 f 0.2853(5) 0.0979(5) 0.2313(9) 1. 0 1.33(5) 
O1 O2- 8 f 0.1132(7) 0.0961(7) 0.1478(11) 1. 0 1.60(11) 
O2 O2- 8 f 0.3677(5) 0.2571(9) 0.3499(13) 1. 0 1.22(10) 
O3 O2- 8 f 0.3536(4) 0.0286(8) 0.9806(11) 1. 0 0.26(11) 

#End of data_246210-ICSD


