data_68499-ICSD
#?2014 by Fachinformationszentrum Karlsruhe, and the U.S. Secretary of 
#Commerce on behalf of the United States.  All rights reserved.
_database_code_ICSD                68499
_audit_creation_date               1991/07/10
_chemical_name_systematic
;
Dipotassium Zinc Tecto-tetrasilicate
;
_chemical_formula_structural       'K2 Zn (Si4 O10)'
_chemical_formula_sum              'K2 O10 Si4 Zn1'
_publ_section_title
;
Structure of synthetic dipotassium zinc tetrasilicate
;
loop_
_citation_id
_citation_journal_abbrev
_citation_year
_citation_journal_volume
_citation_page_first
_citation_page_last
_citation_journal_id_ASTM
primary 'Acta Crystallographica, Section C: Crystal Structure Communications'
 1990 46 1373 1376 ACSCEE
_publ_author_name                  'Kohara, S.;Kawahara, A.'
_cell_length_a                     10.0676(8)
_cell_length_b                     14.047(1)
_cell_length_c                     7.0673(8)
_cell_angle_alpha                  90.
_cell_angle_beta                   90.
_cell_angle_gamma                  90.
_cell_volume                       999.45
_cell_formula_units_Z              4
_symmetry_space_group_name_H-M     'P 21 21 21'
_symmetry_Int_Tables_number        19
_refine_ls_R_factor_all            .048
loop_
_symmetry_equiv_pos_site_id
_symmetry_equiv_pos_as_xyz
  1	'-x, y+.5, -z+.5'
  2	'x+.5, -y+.5, -z'
  3	'-x+.5, -y, z+.5'
  4	'x, y, z'
loop_
_atom_type_symbol
_atom_type_oxidation_number
K1+	1
O2-	-2
Si4+	4
Zn2+	2
loop_
_atom_site_label
_atom_site_type_symbol
_atom_site_symmetry_multiplicity
_atom_site_Wyckoff_symbol
_atom_site_fract_x
_atom_site_fract_y
_atom_site_fract_z
_atom_site_occupancy
_atom_site_attached_hydrogens
Zn1 Zn2+ 4 a 0.1934(1) 0.3545(1) 0.0166(2) 1. 0 
K1 K1+ 4 a 0.3261(3) 0.3998(2) 0.5102(4) 1. 0 
K2 K1+ 4 a 0.3977(3) 0.1178(2) 0.2315(4) 1. 0 
Si1 Si4+ 4 a 0.4825(2) 0.4215(2) 0.9690(4) 1. 0 
Si2 Si4+ 4 a 0.0973(3) 0.2267(2) 0.3259(4) 1. 0 
Si3 Si4+ 4 a 0.4401(2) 0.0991(2) 0.7336(4) 1. 0 
Si4 Si4+ 4 a 0.3457(2) 0.8209(2) 0.2358(4) 1. 0 
O1 O2- 4 a 0.0753(7) 0.9868(5) 0.078(1) 1. 0 
O2 O2- 4 a 0.1711(7) 0.5510(4) 0.4737(12) 1. 0 
O3 O2- 4 a 0.4667(7) 0.8821(5) 0.3285(10) 1. 0 
O4 O2- 4 a 0.0060(8) 0.1584(5) 0.1905(11) 1. 0 
O5 O2- 4 a 0.2267(8) 0.2673(5) 0.2279(11) 1. 0 
O6 O2- 4 a 0.3648(8) 0.8371(4) 0.009(1) 1. 0 
O7 O2- 4 a 0.0038(8) 0.8102(5) 0.1074(10) 1. 0 
O8 O2- 4 a 0.2092(7) 0.8757(5) 0.3045(10) 1. 0 
O9 O2- 4 a 0.0318(7) 0.4259(5) 0.0919(10) 1. 0 
O10 O2- 4 a 0.3452(7) 0.7112(5) 0.2833(11) 1. 0 

#End of data_68499-ICSD


