data_9366-ICSD
#?2014 by Fachinformationszentrum Karlsruhe, and the U.S. Secretary of 
#Commerce on behalf of the United States.  All rights reserved.
_database_code_ICSD                9366
_audit_creation_date               1980/01/01
_audit_update_record               2010/02/01
_chemical_name_systematic
;
Pentasodium Lutetium Tetrakis(tungstate)
;
_chemical_formula_structural       'Na5 Lu (W O4)4'
_chemical_formula_sum              'Lu1 Na5 O16 W4'
_publ_section_title
;
The double sodium lutetium tungstates, Na Lu (W O4)2 and Na5 Lu (W 
O4)4, and their crystal structures
;
loop_
_citation_id
_citation_journal_abbrev
_citation_year
_citation_journal_volume
_citation_page_first
_citation_page_last
_citation_journal_id_ASTM
primary Kristallografiya 1972 17 768 772 KRISAJ
2 'Soviet Physics, Crystallography (= Kristallografiya)'
 1972 17 672 677 SPHCA6
_publ_author_name
;
Klevtsova, R.F.;Glinskaya, L.A.;Kozeeva, L.P.;Klevtsov, P.V.
;
_cell_length_a                     11.38(1)
_cell_length_b                     11.38(1)
_cell_length_c                     11.29(1)
_cell_angle_alpha                  90.
_cell_angle_beta                   90.
_cell_angle_gamma                  90.
_cell_volume                       1462.1
_cell_formula_units_Z              4
_symmetry_space_group_name_H-M     'I 41/a Z'
_symmetry_Int_Tables_number        88
_refine_ls_R_factor_all            .154
loop_
_symmetry_equiv_pos_site_id
_symmetry_equiv_pos_as_xyz
  1	'-y+.75, x+.75, -z+.75'
  2	'y+.25, -x+.75, -z+.75'
  3	'x, y+.5, -z'
  4	'-x, -y, -z'
  5	'y+.25, -x+.25, z+.25'
  6	'-y+.75, x+.25, z+.25'
  7	'-x, -y+.5, z'
  8	'x, y, z'
  9	'-y+.25, x+.25, -z+.25'
 10	'y+.75, -x+.25, -z+.25'
 11	'x+.5, y, -z+.5'
 12	'-x+.5, -y+.5, -z+.5'
 13	'y+.75, -x+.75, z+.75'
 14	'-y+.25, x+.75, z+.75'
 15	'-x+.5, -y, z+.5'
 16	'x+.5, y+.5, z+.5'
loop_
_atom_type_symbol
_atom_type_oxidation_number
Lu3+	3
Na1+	1
O2-	-2
W6+	6
loop_
_atom_site_label
_atom_site_type_symbol
_atom_site_symmetry_multiplicity
_atom_site_Wyckoff_symbol
_atom_site_fract_x
_atom_site_fract_y
_atom_site_fract_z
_atom_site_occupancy
_atom_site_attached_hydrogens
_atom_site_B_iso_or_equiv
Lu1 Lu3+ 4 a 0 0.75 0.875 1. 0 1.07 
Na1 Na1+ 4 b 0 0.75 0.375 1. 0 2.7 
Na2 Na1+ 16 f 0.210(6) 0.860(6) 0.088(7) 1. 0 2.5 
W1 W6+ 16 f 0.1827(3) 0.8412(2) 0.6158(4) 1. 0 0.1 
O1 O2- 16 f 0.202(6) 0.567(6) 0.235(7) 1. 0 0.8 
O2 O2- 16 f 0.177(6) 0.664(6) 0.797(8) 1. 0 0.4 
O3 O2- 16 f 0.116(5) 0.689(5) 0.041(7) 1. 0 0.2 
O4 O2- 16 f 0.147(5) 0.721(5) 0.518(7) 1. 0 0.8 

#End of data_9366-ICSD


