data_87951-ICSD
#?2014 by Fachinformationszentrum Karlsruhe, and the U.S. Secretary of 
#Commerce on behalf of the United States.  All rights reserved.
_database_code_ICSD                87951
_audit_creation_date               2001/07/16
_chemical_name_systematic          'Calcium Silicate Hydrate'
_chemical_formula_structural       'Ca (Si O3) (H2 O)'
_chemical_formula_sum              'H2 Ca1 O4 Si1'
_chemical_name_mineral             Suolunite
_publ_section_title
;
Crystal structure refinement of suolunite and its significance to the 
cement techniques
;
loop_
_citation_id
_citation_journal_abbrev
_citation_year
_citation_journal_volume
_citation_journal_issue
_citation_page_first
_citation_page_last
_citation_journal_id_ASTM
primary 'Chinese Science Bulletin' 1999 44 23 2125 2130 CSBUEF
_publ_author_name
;
Ma, Z.-S.;Shi, N.-C.;Mou, G.D.;Liao, L.-B.
;
_cell_length_a                     19.7760(30)
_cell_length_b                     5.9900(8)
_cell_length_c                     11.119(3)
_cell_angle_alpha                  90.
_cell_angle_beta                   90.
_cell_angle_gamma                  90.
_cell_volume                       1317.14
_cell_formula_units_Z              16
_symmetry_space_group_name_H-M     'F d 2 d'
_symmetry_Int_Tables_number        43
_refine_ls_R_factor_all            .042
loop_
_symmetry_equiv_pos_site_id
_symmetry_equiv_pos_as_xyz
  1	'x+.25, y+.25, -z+.25'
  2	'-x+.25, y+.25, z+.25'
  3	'-x, y, -z'
  4	'x, y, z'
  5	'x+.25, y+.75, -z+.75'
  6	'x+.75, y+.25, -z+.75'
  7	'x+.75, y+.75, -z+.25'
  8	'-x+.25, y+.75, z+.75'
  9	'-x+.75, y+.25, z+.75'
 10	'-x+.75, y+.75, z+.25'
 11	'-x, y+.5, -z+.5'
 12	'-x+.5, y, -z+.5'
 13	'-x+.5, y+.5, -z'
 14	'x, y+.5, z+.5'
 15	'x+.5, y, z+.5'
 16	'x+.5, y+.5, z'
loop_
_atom_type_symbol
_atom_type_oxidation_number
Ca2+	2
H1+	1
O2-	-2
Si4+	4
loop_
_atom_site_label
_atom_site_type_symbol
_atom_site_symmetry_multiplicity
_atom_site_Wyckoff_symbol
_atom_site_fract_x
_atom_site_fract_y
_atom_site_fract_z
_atom_site_occupancy
_atom_site_attached_hydrogens
_atom_site_U_iso_or_equiv
Ca1 Ca2+ 16 b 0.0761(1) 0.0000(1) 0.1621(1) 1. 0 0 
Si1 Si4+ 16 b 0.1840(1) 0.5022(1) 0.1609(1) 1. 0 0 
O1 O2- 8 a 0.25 0.5033(3) 0.25 1. 0 0 
O2 O2- 16 b 0.1622(1) 0.7505(2) 0.1285(1) 1. 0 0 
O3 O2- 16 b 0.1266(1) 0.3480(2) 0.2186(1) 1. 0 0 
O4 O2- 16 b 0.2142(1) 0.3873(2) 0.0359(1) 1. 0 0 
O5 O2- 8 a 0.25 0.0283(3) 0.25 1. 0 0 
H1 H1+ 16 b 0.2730(3) -.0574(2) 0.2920(3) 1. 0 0.050(2) 
H2 H1+ 16 b 0.1923(3) 0.2603(3) -.0078(3) 1. 0 0.050(3) 

loop_
_atom_site_aniso_label
_atom_site_aniso_type_symbol
_atom_site_aniso_U_11
_atom_site_aniso_U_22
_atom_site_aniso_U_33
_atom_site_aniso_U_12
_atom_site_aniso_U_13
_atom_site_aniso_U_23
Ca1 Ca2+ 0.008(1) 0.009(1) 0.007(1) 0.001(1) 0.001(1) 0.000(1)
Si1 Si4+ 0.006(1) 0.006(1) 0.006(1) 0.000(1) 0.001(1) 0.001(1)
O1 O2- 0.014(1) 0.010(1) 0.016(1) 0 -.010(1) 0
O2 O2- 0.010(1) 0.007(1) 0.010(1) 0.003(1) 0.000(1) 0.003(1)
O3 O2- 0.010(1) 0.008(1) 0.009(1) -.002(1) 0.001(1) 0.000(1)
O4 O2- 0.009(1) 0.013(1) 0.009(1) -.001(1) 0.001(1) -.002(1)
O5 O2- 0.018(1) 0.008(1) 0.025(1) 0 -.007(1) 0
#End of data_87951-ICSD


