data_81130-ICSD
#?2014 by Fachinformationszentrum Karlsruhe, and the U.S. Secretary of 
#Commerce on behalf of the United States.  All rights reserved.
_database_code_ICSD                81130
_audit_creation_date               1997/05/13
_audit_update_record               1999/01/19
_chemical_name_systematic          'Dimagnesium Catena-disilicate'
_chemical_formula_structural       'Mg2 (Si2 O6)'
_chemical_formula_sum              'Mg2 O6 Si2'
_chemical_name_mineral             Enstatite
_publ_section_title
;
High temperature single crystal X-ray diffraction studies of the 
ortho-proto phase transition in enstatite, Mg2 Si2 O6 at 1360 K
;
loop_
_citation_id
_citation_journal_abbrev
_citation_year
_citation_journal_volume
_citation_page_first
_citation_page_last
_citation_journal_id_ASTM
primary 'Physics and Chemistry of Minerals' 1995 22 300 310 PCMIDU
_publ_author_name                  'Yang, H.-X.;Ghose, S.'
_cell_length_a                     18.4130(40)
_cell_length_b                     8.929(2)
_cell_length_c                     5.246(1)
_cell_angle_alpha                  90.
_cell_angle_beta                   90.
_cell_angle_gamma                  90.
_cell_volume                       862.49
_cell_formula_units_Z              8
_symmetry_space_group_name_H-M     'P b c a'
_symmetry_Int_Tables_number        61
_refine_ls_R_factor_all            .031
loop_
_symmetry_equiv_pos_site_id
_symmetry_equiv_pos_as_xyz
  1	'x+.5, y, -z+.5'
  2	'x, -y+.5, z+.5'
  3	'-x+.5, y+.5, z'
  4	'-x, -y, -z'
  5	'-x+.5, -y, z+.5'
  6	'-x, y+.5, -z+.5'
  7	'x+.5, -y+.5, -z'
  8	'x, y, z'
loop_
_atom_type_symbol
_atom_type_oxidation_number
Mg2+	2
O2-	-2
Si4+	4
loop_
_atom_site_label
_atom_site_type_symbol
_atom_site_symmetry_multiplicity
_atom_site_Wyckoff_symbol
_atom_site_fract_x
_atom_site_fract_y
_atom_site_fract_z
_atom_site_occupancy
_atom_site_attached_hydrogens
Mg1 Mg2+ 8 c 0.3753(1) 0.6514(1) 0.8780(2) 1. 0 
Mg2 Mg2+ 8 c 0.3762(1) 0.4876(1) 0.3725(2) 1. 0 
Si1 Si4+ 8 c 0.2720(1) 0.3403(1) 0.0590(1) 1. 0 
Si2 Si4+ 8 c 0.4749(1) 0.3380(1) 0.7895(1) 1. 0 
O1 O2- 8 c 0.1844(1) 0.3396(2) 0.0484(4) 1. 0 
O2 O2- 8 c 0.5629(1) 0.3420(2) 0.7915(4) 1. 0 
O3 O2- 8 c 0.3109(1) 0.4992(2) 0.0572(4) 1. 0 
O4 O2- 8 c 0.4337(1) 0.4847(2) 0.6974(4) 1. 0 
O5 O2- 8 c 0.3025(1) 0.2273(2) 0.8340(3) 1. 0 
O6 O2- 8 c 0.4490(1) 0.2037(2) 0.5875(3) 1. 0 

#End of data_81130-ICSD


