data_29116-ICSD
#?2014 by Fachinformationszentrum Karlsruhe, and the U.S. Secretary of 
#Commerce on behalf of the United States.  All rights reserved.
_database_code_ICSD                29116
_audit_creation_date               1986/08/04
_audit_update_record               2006/04/01
_chemical_name_systematic          'Calcium Titanate'
_chemical_formula_structural       'Ca (Ti O3)'
_chemical_formula_sum              'Ca1 O3 Ti1'
_chemical_name_mineral             Perovskite
_publ_section_title
;
Der Strukturtyp des Perowskits (Ca Ti O3)
;
loop_
_citation_id
_citation_journal_abbrev
_citation_year
_citation_journal_volume
_citation_page_first
_citation_page_last
_citation_journal_id_ASTM
primary Naturwissenschaften 1943 31 202 203 NATWAY
2 'Math. Term. Ert.' 1942 61 913 925 MATEUN
_publ_author_name                  'Naray-Szabo, S.'
_cell_length_a                     7.6
_cell_length_b                     7.6
_cell_length_c                     7.6
_cell_angle_alpha                  90.
_cell_angle_beta                   90.
_cell_angle_gamma                  90.
_cell_volume                       438.98
_cell_formula_units_Z              8
_symmetry_space_group_name_H-M     'P 1 21/m 1'
_symmetry_Int_Tables_number        11
loop_
_symmetry_equiv_pos_site_id
_symmetry_equiv_pos_as_xyz
  1	'x, -y+.5, z'
  2	'-x, -y, -z'
  3	'-x, y+.5, -z'
  4	'x, y, z'
loop_
_atom_type_symbol
_atom_type_oxidation_number
Ca2+	2
O2-	-2
Ti4+	4
loop_
_atom_site_label
_atom_site_type_symbol
_atom_site_symmetry_multiplicity
_atom_site_Wyckoff_symbol
_atom_site_fract_x
_atom_site_fract_y
_atom_site_fract_z
_atom_site_occupancy
_atom_site_attached_hydrogens
Ti1 Ti4+ 2 a 0 0 0 1. 0 
Ti2 Ti4+ 2 b 0.5 0 0 1. 0 
Ti3 Ti4+ 2 c 0 0 0.5 1. 0 
Ti4 Ti4+ 2 d 0.5 0 0.5 1. 0 
Ca1 Ca2+ 2 e 0.25 0.25 0.25 1. 0 
Ca2 Ca2+ 2 e 0.25 0.25 0.75 1. 0 
Ca3 Ca2+ 2 e 0.75 0.25 0.25 1. 0 
Ca4 Ca2+ 2 e 0.75 0.25 0.75 1. 0 
O1 O2- 2 e 0 0.25 0.93 1. 0 
O2 O2- 4 f 0.98 0.455 0.25 1. 0 
O3 O2- 2 e 0 0.25 0.57 1. 0 
O4 O2- 4 f 0.25 0.5 0.455 1. 0 
O5 O2- 4 f 0.54 0.53 0.25 1. 0 
O6 O2- 2 e 0.5 0.25 0.07 1. 0 
O7 O2- 4 f 0.25 0.5 0.045 1. 0 
O8 O2- 2 e 0.5 0.25 0.435 1. 0 

#End of data_29116-ICSD


