data_72115-ICSD
#?2014 by Fachinformationszentrum Karlsruhe, and the U.S. Secretary of 
#Commerce on behalf of the United States.  All rights reserved.
_database_code_ICSD                72115
_audit_creation_date               1993/08/22
_chemical_name_systematic          'Calcium Phosphatoniobate *'
_chemical_formula_structural       'Ca (P2 Nb2 O11)'
_chemical_formula_sum              'Ca1 Nb2 O11 P2'
_publ_section_title
;
CaNb2P2O11: a new calcium niobium(V) oxophosphate with a quasi-one-
dimensional structure
;
loop_
_citation_id
_citation_journal_abbrev
_citation_year
_citation_journal_volume
_citation_page_first
_citation_page_last
_citation_journal_id_ASTM
primary 'Journal of Solid State Chemistry' 1992 98 174 180 JSSCBI
_publ_author_name                  'Serra, D.L.;Hwu, S.-J.'
_cell_length_a                     14.930(3)
_cell_length_b                     10.824(3)
_cell_length_c                     5.214(2)
_cell_angle_alpha                  90.
_cell_angle_beta                   93.59(2)
_cell_angle_gamma                  90.
_cell_volume                       840.94
_cell_formula_units_Z              4
_symmetry_space_group_name_H-M     'C 1 2/c 1'
_symmetry_Int_Tables_number        15
_refine_ls_R_factor_all            .022
loop_
_symmetry_equiv_pos_site_id
_symmetry_equiv_pos_as_xyz
  1	'x, -y, z+.5'
  2	'-x, -y, -z'
  3	'-x, y, -z+.5'
  4	'x, y, z'
  5	'x+.5, -y+.5, z+.5'
  6	'-x+.5, -y+.5, -z'
  7	'-x+.5, y+.5, -z+.5'
  8	'x+.5, y+.5, z'
loop_
_atom_type_symbol
_atom_type_oxidation_number
Ca2+	2
Nb5+	5
O2-	-2
P5+	5
loop_
_atom_site_label
_atom_site_type_symbol
_atom_site_symmetry_multiplicity
_atom_site_Wyckoff_symbol
_atom_site_fract_x
_atom_site_fract_y
_atom_site_fract_z
_atom_site_occupancy
_atom_site_attached_hydrogens
_atom_site_B_iso_or_equiv
Ca1 Ca2+ 4 e 0.5 0.1066(1) 0.25 1. 0 0.80(4) 
Nb1 Nb5+ 8 f 0.37519(2) 0.38030(3) 0.26153(7) 1. 0 0.50(2) 
P1 P5+ 8 f 0.14748(6) 0.3326(1) 0.2456(2) 1. 0 0.46(4) 
O1 O2- 8 f 0.1134(2) 0.0241(3) 0.4275(5) 1. 0 0.8(1) 
O2 O2- 4 e 0.5 0.3351(4) 0.25 1. 0 0.8(2) 
O3 O2- 8 f 0.2440(2) 0.3829(3) 0.2870(6) 1. 0 0.9(1) 
O4 O2- 8 f 0.3816(2) 0.2145(3) 0.4938(5) 1. 0 0.8(1) 
O5 O2- 8 f 0.1485(2) 0.2254(3) 0.0520(5) 1. 0 1.0(1) 
O6 O2- 8 f 0.0844(2) 0.4313(3) 0.1357(6) 1. 0 0.9(1) 

#End of data_72115-ICSD


