data_80040-ICSD
#?2014 by Fachinformationszentrum Karlsruhe, and the U.S. Secretary of 
#Commerce on behalf of the United States.  All rights reserved.
_database_code_ICSD                80040
_audit_creation_date               1996/10/14
_chemical_name_systematic          'Dialuminium Tetrayttrium Oxide'
_chemical_formula_structural       'Al2 Y4 O9'
_chemical_formula_sum              'Al2 O9 Y4'
_publ_section_title
;
Thermogravimetry and Rietveld analysis for the high-temperature X-ray 
powder diffraction pattern of Y4 Al2 O9
;
loop_
_citation_id
_citation_journal_abbrev
_citation_year
_citation_journal_volume
_citation_page_first
_citation_page_last
_citation_journal_id_ASTM
primary 'Journal of Materials Science. Letters' 1995 14 470 473 JMSLD5
_publ_author_name                  'Yamane, H.;Omori, M.;Hirai, T.'
_cell_length_a                     7.4890(4)
_cell_length_b                     10.5669(5)
_cell_length_c                     11.1696(6)
_cell_angle_alpha                  90.
_cell_angle_beta                   108.856(4)
_cell_angle_gamma                  90.
_cell_volume                       836.48
_cell_formula_units_Z              4
_symmetry_space_group_name_H-M     'P 1 21/c 1'
_symmetry_Int_Tables_number        14
_refine_ls_R_factor_all            .04
loop_
_symmetry_equiv_pos_site_id
_symmetry_equiv_pos_as_xyz
  1	'x, -y+.5, z+.5'
  2	'-x, -y, -z'
  3	'-x, y+.5, -z+.5'
  4	'x, y, z'
loop_
_atom_type_symbol
_atom_type_oxidation_number
Al3+	3
O2-	-2
Y3+	3
loop_
_atom_site_label
_atom_site_type_symbol
_atom_site_symmetry_multiplicity
_atom_site_Wyckoff_symbol
_atom_site_fract_x
_atom_site_fract_y
_atom_site_fract_z
_atom_site_occupancy
_atom_site_attached_hydrogens
Y1 Y3+ 4 e 0.521(2) 0.101(1) 0.792(2) 1. 0 
Y2 Y3+ 4 e 0.020(2) 0.095(1) 0.803(1) 1. 0 
Y3 Y3+ 4 e 0.333(2) 0.122(2) 0.433(1) 1. 0 
Y4 Y3+ 4 e 0.841(2) 0.122(2) 0.416(1) 1. 0 
Al1 Al3+ 4 e 0.227(6) 0.177(6) 0.132(4) 1. 0 
Al2 Al3+ 4 e 0.686(8) 0.182(5) 0.104(5) 1. 0 
O1 O2- 4 e 0.207(10) 0.031(7) 0.179(7) 1. 0 
O2 O2- 4 e 0.66(1) 0.011(8) 0.138(6) 1. 0 
O3 O2- 4 e 0.072(13) 0.017(7) 0.386(6) 1. 0 
O4 O2- 4 e 0.580(13) -.004(8) 0.397(7) 1. 0 
O5 O2- 4 e 0.265(10) 0.249(9) 0.271(7) 1. 0 
O6 O2- 4 e 0.082(10) 0.226(7) 0.984(7) 1. 0 
O7 O2- 4 e 0.774(10) 0.269(9) 0.243(7) 1. 0 
O8 O2- 4 e 0.659(10) 0.237(9) 0.960(6) 1. 0 
O9 O2- 4 e 0.451(11) 0.218(6) 0.111(7) 1. 0 

#End of data_80040-ICSD


