data_74022-ICSD
#?2014 by Fachinformationszentrum Karlsruhe, and the U.S. Secretary of 
#Commerce on behalf of the United States.  All rights reserved.
_database_code_ICSD                74022
_audit_creation_date               1995/01/10
_chemical_name_systematic
;
Potassium Catena-tetrathiodiaurato(I)stannate
;
_chemical_formula_structural       'K2 (Au2 Sn S4)'
_chemical_formula_sum              'Au2 K2 S4 Sn1'
_publ_section_title
;
Quaternary Rb2Cu2SnS4,A2Cu2Sn2S6 (A=Na,K,Rb,Cs), A2Cu2Sn2Se6 
(A=K,Rb), K2Au2SnS4 and K2Au2Sn2S6. Syntheses, structures and 
properties of new solid-state chalcogenides based on tetrahedral 
(SnS4)(4-) units
;
loop_
_citation_id
_citation_journal_abbrev
_citation_year
_citation_journal_volume
_citation_page_first
_citation_page_last
_citation_journal_id_ASTM
primary 'Chemistry of Materials' 1993 5 1561 1569 CMATEX
_publ_author_name                  'Liao, J.-H.;Kanatzidis, M.G.'
_cell_length_a                     8.212(4)
_cell_length_b                     9.110(4)
_cell_length_c                     7.314(2)
_cell_angle_alpha                  97.82(3)
_cell_angle_beta                   111.72(2)
_cell_angle_gamma                  72.00(3)
_cell_volume                       483.3
_cell_formula_units_Z              2
_symmetry_space_group_name_H-M     'P -1'
_symmetry_Int_Tables_number        2
_refine_ls_R_factor_all            .048
loop_
_symmetry_equiv_pos_site_id
_symmetry_equiv_pos_as_xyz
  1	'-x, -y, -z'
  2	'x, y, z'
loop_
_atom_type_symbol
_atom_type_oxidation_number
Au1+	1
K1+	1
S2-	-2
Sn4+	4
loop_
_atom_site_label
_atom_site_type_symbol
_atom_site_symmetry_multiplicity
_atom_site_Wyckoff_symbol
_atom_site_fract_x
_atom_site_fract_y
_atom_site_fract_z
_atom_site_occupancy
_atom_site_attached_hydrogens
_atom_site_B_iso_or_equiv
Au1 Au1+ 2 i 0.3306(1) 0.42189(9) 0.2678(1) 1. 0 1.25(4) 
Au2 Au1+ 2 i 0.7123(1) 0.8297(1) 0.4683(1) 1. 0 1.25(4) 
Sn1 Sn4+ 2 i 0.7245(2) 0.1941(2) 0.6254(2) 1. 0 0.96(6) 
K1 K1+ 2 i 0.2549(6) 0.0792(6) 0.9707(7) 1. 0 1.8(2) 
K2 K1+ 2 i 0.1860(7) 0.5796(6) 0.783(1) 1. 0 2.8(3) 
S1 S2- 2 i 0.5829(7) 0.2189(6) 0.2774(7) 1. 0 1.3(2) 
S2 S2- 2 i 0.0852(7) 0.6343(6) 0.240(1) 1. 0 2.2(3) 
S3 S2- 2 i 0.9194(7) 0.9375(6) 0.7084(8) 1. 0 1.4(2) 
S4 S2- 2 i 0.4964(7) 0.7443(6) 0.2133(8) 1. 0 1.5(2) 

#End of data_74022-ICSD


