data_100332-ICSD
#?2014 by Fachinformationszentrum Karlsruhe, and the U.S. Secretary of 
#Commerce on behalf of the United States.  All rights reserved.
_database_code_ICSD                100332
_audit_creation_date               1980/01/01
_audit_update_record               2003/04/01
_chemical_name_systematic
;
Tricalcium Dimanganese Dioxide Cyclo-tetrasilicate
;
_chemical_formula_structural       'Ca3 Mn2 O2 (Si4 O12)'
_chemical_formula_sum              'Ca3 Mn2 O14 Si4'
_publ_section_title
;
Crystal structure of synthetic Ca3 Mn2 O2 (Si4 O12)
;
loop_
_citation_id
_citation_journal_abbrev
_citation_year
_citation_journal_volume
_citation_page_first
_citation_page_last
_citation_journal_id_ASTM
primary 'Zeitschrift fuer Kristallographie (1979-2010)' 1979 150 287 297 ZEKRDZ
_publ_author_name                  'Moore, P.B.;Araki, T.'
_cell_length_a                     14.263(28)
_cell_length_b                     7.620(13)
_cell_length_c                     10.025(4)
_cell_angle_alpha                  90.
_cell_angle_beta                   93.27(5)
_cell_angle_gamma                  90.
_cell_volume                       1087.78
_cell_formula_units_Z              4
_symmetry_space_group_name_H-M     'I 1 2/c 1'
_symmetry_Int_Tables_number        15
_refine_ls_R_factor_all            .038
loop_
_symmetry_equiv_pos_site_id
_symmetry_equiv_pos_as_xyz
  1	'-x, y, -z+.5'
  2	'-x, -y, -z'
  3	'x, -y, z+.5'
  4	'x, y, z'
  5	'-x+.5, y+.5, -z'
  6	'-x+.5, -y+.5, -z+.5'
  7	'x+.5, -y+.5, z'
  8	'x+.5, y+.5, z+.5'
loop_
_atom_type_symbol
_atom_type_oxidation_number
Ca2+	2
Mn3+	3
O2-	-2
Si4+	4
loop_
_atom_site_label
_atom_site_type_symbol
_atom_site_symmetry_multiplicity
_atom_site_Wyckoff_symbol
_atom_site_fract_x
_atom_site_fract_y
_atom_site_fract_z
_atom_site_occupancy
_atom_site_attached_hydrogens
Mn1 Mn3+ 4 a 0 0 0 1. 0 
Mn2 Mn3+ 4 e 0 0.78757(5) 0.25 1. 0 
Ca1 Ca2+ 4 e 0 0.33998(8) 0.25 1. 0 
Ca2 Ca2+ 8 f 0.19855(3) 0.03078(5) 0.23912(4) 1. 0 
Si1 Si4+ 8 f 0.32307(4) 0.21004(7) 0.98037(6) 1. 0 
Si2 Si4+ 8 f 0.37343(4) 0.16181(7) 0.52021(6) 1. 0 
O1 O2- 8 f 0.33375(12) 0.00688(20) 0.92714(16) 1. 0 
O2 O2- 8 f 0.27879(12) 0.22938(20) 0.59499(16) 1. 0 
O3 O2- 8 f 0.31786(12) 0.21005(19) 0.13822(16) 1. 0 
O4 O2- 8 f 0.44706(12) 0.09704(19) 0.63703(16) 1. 0 
O5 O2- 8 f 0.10262(12) 0.16276(18) 0.58584(17) 1. 0 
O6 O2- 8 f 0.08675(12) 0.20621(19) 0.08829(16) 1. 0 
O7 O2- 8 f 0.06569(12) 0.0369(2) 0.84803(17) 1. 0 

#End of data_100332-ICSD


