data_20388-ICSD
#?2014 by Fachinformationszentrum Karlsruhe, and the U.S. Secretary of 
#Commerce on behalf of the United States.  All rights reserved.
_database_code_ICSD                20388
_audit_creation_date               1984/09/05
_audit_update_record               2012/08/01
_chemical_name_systematic
;
Dipotassium Dichlorotetranitroplatinate
;
_chemical_formula_structural       'K2 (Pt (N O2)4 Cl2)'
_chemical_formula_sum              'Cl2 K2 N4 O8 Pt1'
_publ_section_title
;
The X-ray analysis of the compounds K2 (Pt (N O2)4 Cl2) and K2 (Pt (N 
O2)4 Br2)
;
loop_
_citation_id
_citation_journal_abbrev
_citation_year
_citation_journal_volume
_citation_page_first
_citation_page_last
_citation_journal_id_ASTM
primary 'Doklady Akademii Nauk SSSR' 1953 88 975 978 DANKAS
_publ_author_name                  'Bokii, G.B.;Guilinskaja, E.A.'
_cell_length_a                     9.42
_cell_length_b                     9.47
_cell_length_c                     7.4
_cell_angle_alpha                  90.
_cell_angle_beta                   118.68
_cell_angle_gamma                  90.
_cell_volume                       579.15
_cell_formula_units_Z              2
_symmetry_space_group_name_H-M     'P 1 21/a 1'
_symmetry_Int_Tables_number        14
_refine_ls_R_factor_all            .26
loop_
_symmetry_equiv_pos_site_id
_symmetry_equiv_pos_as_xyz
  1	'x+.5, -y+.5, z'
  2	'-x, -y, -z'
  3	'-x+.5, y+.5, -z'
  4	'x, y, z'
loop_
_atom_type_symbol
_atom_type_oxidation_number
Cl1-	-1
K1+	1
N3+	3
O2-	-2
Pt4+	4
loop_
_atom_site_label
_atom_site_type_symbol
_atom_site_symmetry_multiplicity
_atom_site_Wyckoff_symbol
_atom_site_fract_x
_atom_site_fract_y
_atom_site_fract_z
_atom_site_occupancy
_atom_site_attached_hydrogens
_atom_site_B_iso_or_equiv
Pt1 Pt4+ 2 a 0 0 0 1. 0 1.1 
K1 K1+ 4 e 0.658 0.042 0.319 1. 0 1.1 
Cl1 Cl1- 4 e 0 0.113 0.284 1. 0 1.1 
N1 N3+ 4 e -.035 0.197 -.146 1. 0 1.1 
N2 N3+ 4 e 0.253 0.028 0.138 1. 0 1.1 
O1 O2- 4 e -.047 0.306 -.061 1. 0 1.1 
O2 O2- 4 e -.047 0.205 -.321 1. 0 1.1 
O3 O2- 4 e 0.329 0.087 0.31 1. 0 1.1 
O4 O2- 4 e 0.329 -.015 0.05 1. 0 1.1 

#End of data_20388-ICSD


