data_79600-ICSD
#?2014 by Fachinformationszentrum Karlsruhe, and the U.S. Secretary of 
#Commerce on behalf of the United States.  All rights reserved.
_database_code_ICSD                79600
_audit_creation_date               1996/10/14
_audit_update_record               2013/02/01
_chemical_name_systematic          'Thallium Dithiotriargentate'
_chemical_formula_structural       'Tl (Ag3 S2)'
_chemical_formula_sum              'Ag3 S2 Tl1'
_publ_section_title                'The crystal structure of Tl Ag3 S2'
loop_
_citation_id
_citation_journal_abbrev
_citation_year
_citation_journal_volume
_citation_page_first
_citation_page_last
_citation_journal_id_ASTM
primary 'Journal of the Less-Common Metals' 1985 107 139 146 JCOMAH
2 'Phase Transition' 1992 38 127 220 PHTRDP
3 'Zeitschrift fuer Kristallographie (1979-2010)' 1983 162 136 137 ZEKRDZ
_publ_author_name                  'Klepp, K.O.'
_cell_length_a                     8.154(5)
_cell_length_b                     8.792(6)
_cell_length_c                     7.029(4)
_cell_angle_alpha                  90.
_cell_angle_beta                   90.
_cell_angle_gamma                  90.
_cell_volume                       503.91
_cell_formula_units_Z              4
_symmetry_space_group_name_H-M     'P b c n'
_symmetry_Int_Tables_number        60
_refine_ls_R_factor_all            .069
loop_
_symmetry_equiv_pos_site_id
_symmetry_equiv_pos_as_xyz
  1	'x, -y, z+.5'
  2	'-x+.5, y+.5, z'
  3	'x+.5, y+.5, -z+.5'
  4	'-x, -y, -z'
  5	'-x, y, -z+.5'
  6	'x+.5, -y+.5, -z'
  7	'-x+.5, -y+.5, z+.5'
  8	'x, y, z'
loop_
_atom_type_symbol
_atom_type_oxidation_number
Ag1+	1
S2-	-2
Tl1+	1
loop_
_atom_site_label
_atom_site_type_symbol
_atom_site_symmetry_multiplicity
_atom_site_Wyckoff_symbol
_atom_site_fract_x
_atom_site_fract_y
_atom_site_fract_z
_atom_site_occupancy
_atom_site_attached_hydrogens
Tl1 Tl1+ 4 c 0.5 0.4233(2) 0.25 1. 0 
Ag1 Ag1+ 4 c 0.5 0.8015(5) 0.25 1. 0 
Ag2 Ag1+ 8 d 0.6589(5) 0.0914(3) 0.3864(6) 1. 0 
S1 S2- 8 d 0.315(1) 0.1724(8) 0.476(1) 1. 0 

loop_
_atom_site_aniso_label
_atom_site_aniso_type_symbol
_atom_site_aniso_U_11
_atom_site_aniso_U_22
_atom_site_aniso_U_33
_atom_site_aniso_U_12
_atom_site_aniso_U_13
_atom_site_aniso_U_23
Tl1 Tl1+ 0.054(1) 0.020(1) 0.048(1) 0 0.001(2) 0
Ag1 Ag1+ 0.067(4) 0.035(2) 0.047(3) 0 -0.026(2) 0
Ag2 Ag1+ 0.077(3) 0.023(1) 0.078(3) -0.009(2) -0.005(3) 0.008(2)
S1 S2- 0.032(5) 0.018(4) 0.029(5) 0.005(4) 0.006(5) 0.005(4)
#End of data_79600-ICSD


