data_169993-ICSD
#?2014 by Fachinformationszentrum Karlsruhe, and the U.S. Secretary of 
#Commerce on behalf of the United States.  All rights reserved.
_database_code_ICSD                169993
_audit_creation_date               2011/08/01
_chemical_name_systematic
;
Dicalcium Copper Iron Trioxide Selenide
;
_chemical_formula_structural       'Ca2 Cu Fe O3 Se'
_chemical_formula_sum              'Ca2 Cu1 Fe1 O3 Se1'
_publ_section_title
;
Synthesis, crystal structure and properties of novel perovskite 
oxychalcogenides, Ca2 Cu Fe O3 Ch (Ch = S, Se)
;
loop_
_citation_id
_citation_journal_abbrev
_citation_year
_citation_journal_volume
_citation_page_first
_citation_page_last
_citation_journal_id_ASTM
primary 'Materials Research Bulletin' 2010 45 2012 2016 MRBUAC
_publ_author_name
;
Charkin, D.O.;Sadakov, A.V.;Omel'yanovskii, O.E.;Kazakov, S.M.
;
_cell_length_a                     3.8596(1)
_cell_length_b                     3.8596(1)
_cell_length_c                     15.2985(2)
_cell_angle_alpha                  90.
_cell_angle_beta                   90.
_cell_angle_gamma                  90.
_cell_volume                       227.89
_cell_formula_units_Z              2
_symmetry_space_group_name_H-M     'P 4/n m m Z'
_symmetry_Int_Tables_number        129
_refine_ls_R_factor_all            .011
loop_
_symmetry_equiv_pos_site_id
_symmetry_equiv_pos_as_xyz
  1	'y+.5, x+.5, -z'
  2	'-y, x+.5, -z'
  3	'y+.5, -x, -z'
  4	'-y, -x, -z'
  5	'x+.5, y+.5, -z'
  6	'-x, y+.5, -z'
  7	'x+.5, -y, -z'
  8	'-x, -y, -z'
  9	'-y+.5, -x+.5, z'
 10	'y, -x+.5, z'
 11	'-y+.5, x, z'
 12	'y, x, z'
 13	'-x+.5, -y+.5, z'
 14	'x, -y+.5, z'
 15	'-x+.5, y, z'
 16	'x, y, z'
loop_
_atom_type_symbol
_atom_type_oxidation_number
Ca2+	2
Cu2+	2
Fe2+	2
O2-	-2
Se2-	-2
loop_
_atom_site_label
_atom_site_type_symbol
_atom_site_symmetry_multiplicity
_atom_site_Wyckoff_symbol
_atom_site_fract_x
_atom_site_fract_y
_atom_site_fract_z
_atom_site_occupancy
_atom_site_attached_hydrogens
_atom_site_B_iso_or_equiv
Ca1 Ca2+ 2 c 0.750 0.750 0.1981(1) 1. 0 0.66(4) 
Ca2 Ca2+ 2 c 0.750 0.750 0.4163(1) 1. 0 1.28(5) 
Fe1 Fe2+ 2 c 0.250 0.250 0.3167(1) 1. 0 0.71(4) 
Cu1 Cu2+ 2 a 0.250 0.750 0 1. 0 1.48(3) 
Se1 Se2- 2 c 0.250 0.250 0.1044(1) 1. 0 0.92(3) 
O1 O2- 4 f 0.250 0.750 0.2961(2) 1. 0 1.10(7) 
O2 O2- 2 c 0.250 0.250 0.4406(3) 1. 0 1.10(7) 

#End of data_169993-ICSD


