data_290703-ICSD
#?2014 by Fachinformationszentrum Karlsruhe, and the U.S. Secretary of 
#Commerce on behalf of the United States.  All rights reserved.
_database_code_ICSD                290703
_audit_creation_date               2014/08/01
_chemical_name_systematic          'Silver Chlorate(VII)'
_chemical_formula_structural       'Ag (Cl O4)'
_chemical_formula_sum              'Ag1 Cl1 O4'
_publ_section_title
;
Pressure-induced phase transition of Ag Cl O4: A first - principles 
study
;
loop_
_citation_id
_citation_journal_abbrev
_citation_year
_citation_journal_volume
_citation_page_first
_citation_page_last
_citation_journal_id_ASTM
primary 'Solid State Communications' 2013 165 1 5 SSCOA4
_publ_author_name
;
Cui, Shouxin;Huang, Lin;Li, Quanyi;Hu, Haiquan;Feng, Wenxia
;
_cell_length_a                     4.747
_cell_length_b                     4.747
_cell_length_c                     6.614
_cell_angle_alpha                  90.
_cell_angle_beta                   90.
_cell_angle_gamma                  90.
_cell_volume                       149.04
_cell_formula_units_Z              2
_symmetry_space_group_name_H-M     'I -4 2 m'
_symmetry_Int_Tables_number        121
loop_
_symmetry_equiv_pos_site_id
_symmetry_equiv_pos_as_xyz
  1	'-y, -x, z'
  2	'y, x, z'
  3	'y, -x, -z'
  4	'-y, x, -z'
  5	'x, -y, -z'
  6	'-x, y, -z'
  7	'-x, -y, z'
  8	'x, y, z'
  9	'-y+.5, -x+.5, z+.5'
 10	'y+.5, x+.5, z+.5'
 11	'y+.5, -x+.5, -z+.5'
 12	'-y+.5, x+.5, -z+.5'
 13	'x+.5, -y+.5, -z+.5'
 14	'-x+.5, y+.5, -z+.5'
 15	'-x+.5, -y+.5, z+.5'
 16	'x+.5, y+.5, z+.5'
loop_
_atom_type_symbol
_atom_type_oxidation_number
Ag1+	1
Cl7+	7
O2-	-2
loop_
_atom_site_label
_atom_site_type_symbol
_atom_site_symmetry_multiplicity
_atom_site_Wyckoff_symbol
_atom_site_fract_x
_atom_site_fract_y
_atom_site_fract_z
_atom_site_occupancy
_atom_site_attached_hydrogens
Ag1 Ag1+ 2 b 0 0 0.5 1. 0 
Cl1 Cl7+ 2 a 0 0 0 1. 0 
O1 O2- 8 i 0.1730 0.1730 0.1274 1. 0 

#End of data_290703-ICSD


