data_31533-ICSD
#?2014 by Fachinformationszentrum Karlsruhe, and the U.S. Secretary of 
#Commerce on behalf of the United States.  All rights reserved.
_database_code_ICSD                31533
_audit_creation_date               1981/12/31
_audit_update_record               2006/04/01
_chemical_name_systematic          'Dipotassium Sulfate(VI) - Beta, Ht'
_chemical_formula_structural       'K2 (S O4)'
_chemical_formula_sum              'K2 O4 S1'
_publ_section_title
;
The phase transition of K2 S O4 at about 850 K
;
loop_
_citation_id
_citation_journal_abbrev
_citation_year
_citation_journal_volume
_citation_page_first
_citation_page_last
_citation_journal_id_ASTM
primary 'Acta Crystallographica B (24,1968-38,1982)' 1981 37 1643 1651 ACBCAR
2 'Acta Crystallographica B (24,1968-38,1982)' 1972 28 2845 2852 ACBCAR
3 'Journal of Physical Chemistry' 1958 62 925 928 JPCHAX
4
;
Zeitschrift fuer Kristallographie, Kristallgeometrie, Kristallphysik, 
Kristallchemie (-144,1977)
;
 1929 70 163 170 ZEKGAX
5 'Golden Book of Phase Transitions, Wroclaw' 2002 1 1 123 GBOPT5
_publ_author_name
;
Arnold, H.;Kurtz, W.;Richter-Zinnius, A.;Bethke, J.;Heger, G.
;
_cell_length_a                     5.927(4)
_cell_length_b                     10.318(4)
_cell_length_c                     7.882(4)
_cell_angle_alpha                  90.
_cell_angle_beta                   90.
_cell_angle_gamma                  90.
_cell_volume                       482.02
_cell_formula_units_Z              4
_symmetry_space_group_name_H-M     'P m c n'
_symmetry_Int_Tables_number        62
_refine_ls_R_factor_all            .071
loop_
_symmetry_equiv_pos_site_id
_symmetry_equiv_pos_as_xyz
  1	'x, -y+.5, z+.5'
  2	'-x+.5, y, z'
  3	'x+.5, y+.5, -z+.5'
  4	'-x, -y, -z'
  5	'-x, y+.5, -z+.5'
  6	'x+.5, -y, -z'
  7	'-x+.5, -y+.5, z+.5'
  8	'x, y, z'
loop_
_atom_type_symbol
_atom_type_oxidation_number
K1+	1
O2-	-2
S6+	6
loop_
_atom_site_label
_atom_site_type_symbol
_atom_site_symmetry_multiplicity
_atom_site_Wyckoff_symbol
_atom_site_fract_x
_atom_site_fract_y
_atom_site_fract_z
_atom_site_occupancy
_atom_site_attached_hydrogens
K1 K1+ 4 c 0.25 0.2864(5) -.0081(9) 1. 0 
K2 K1+ 4 c 0.25 0.5862(7) 0.6920(11) 1. 0 
S1 S6+ 4 c 0.25 0.5822(7) 0.2401(10) 1. 0 
O1 O2- 4 c 0.25 0.5845(7) 0.0596(8) 1. 0 
O2 O2- 4 c 0.25 0.4488(4) 0.2942(8) 1. 0 
O3 O2- 8 d 0.4496(5) 0.6467(3) 0.2973(6) 1. 0 

loop_
_atom_site_aniso_label
_atom_site_aniso_type_symbol
_atom_site_aniso_U_11
_atom_site_aniso_U_22
_atom_site_aniso_U_33
_atom_site_aniso_U_12
_atom_site_aniso_U_13
_atom_site_aniso_U_23
K1 K1+ 0.077(4) 0.062(5) 0.067(6) 0 0 0
K2 K1+ 0.069(5) 0.066(5) 0.112(7) 0 0 0
S1 S6+ 0.035(4) 0.041(5) 0.041(6) 0 0 0
O1 O2- 0.187(6) 0.165(7) 0.070(5) 0 0 0
O2 O2- 0.092(3) 0.053(3) 0.134(5) 0 0 -0.031(4)
O3 O2- 0.066(2) 0.087(2) 0.173(5) -0.022(2) 0.030(2) 0.024(3)
#End of data_31533-ICSD


