data_83229-ICSD
#?2014 by Fachinformationszentrum Karlsruhe, and the U.S. Secretary of 
#Commerce on behalf of the United States.  All rights reserved.
_database_code_ICSD                83229
_audit_creation_date               1998/06/26
_chemical_name_systematic          'Dipotassium Cadmium Silicate'
_chemical_formula_structural       'K2 Cd (Si O4)'
_chemical_formula_sum              'Cd1 K2 O4 Si1'
_publ_section_title
;
X-ray powder diffraction study of K2 M Si O4, M= Mg, Zn, Co, Cd
;
loop_
_citation_id
_citation_journal_abbrev
_citation_year
_citation_journal_volume
_citation_journal_issue
_citation_page_first
_citation_page_last
_citation_journal_id_ASTM
primary 'Powder Diffraction' 1996 11 1 51 55 PODIE2
_publ_author_name                  'Dollase, W.A.'
_cell_length_a                     11.249(4)
_cell_length_b                     5.607(2)
_cell_length_c                     15.907(5)
_cell_angle_alpha                  90.
_cell_angle_beta                   90.
_cell_angle_gamma                  90.
_cell_volume                       1003.3
_cell_formula_units_Z              8
_symmetry_space_group_name_H-M     'P c a 21'
_symmetry_Int_Tables_number        29
_refine_ls_R_factor_all            .144
loop_
_symmetry_equiv_pos_site_id
_symmetry_equiv_pos_as_xyz
  1	'x+.5, -y, z'
  2	'-x+.5, y, z+.5'
  3	'-x, -y, z+.5'
  4	'x, y, z'
loop_
_atom_type_symbol
_atom_type_oxidation_number
Cd2+	2
K1+	1
O2-	-2
Si4+	4
loop_
_atom_site_label
_atom_site_type_symbol
_atom_site_symmetry_multiplicity
_atom_site_Wyckoff_symbol
_atom_site_fract_x
_atom_site_fract_y
_atom_site_fract_z
_atom_site_occupancy
_atom_site_attached_hydrogens
_atom_site_B_iso_or_equiv
K1 K1+ 4 a 0.0161 0.4975 0.934 1. 0 0.5 
K2 K1+ 4 a 0.2621 0.5498 0.8153 1. 0 0.5 
K3 K1+ 4 a -.0161 0.0025 0.066 1. 0 0.5 
K4 K1+ 4 a 0.7379 -.0498 0.1847 1. 0 0.5 
Cd1 Cd2+ 4 a 0.0088 0.0101 0.8094 1. 0 0.5 
Cd2 Cd2+ 4 a 0.7405 0.4684 0.0597 1. 0 0.5 
Si1 Si4+ 4 a 0.9912 0.4899 0.1906 1. 0 0.5 
Si2 Si4+ 4 a 0.2595 0.0316 0.9403 1. 0 0.5 
O1 O2- 4 a 0.2892 0.3206 0.983 1. 0 1.3 
O2 O2- 4 a 0.4039 0.9136 0.8958 1. 0 1.3 
O3 O2- 4 a 0.1608 0.0745 0.8514 1. 0 1.3 
O4 O2- 4 a 0.9853 0.6922 0.7832 1. 0 1.3 
O5 O2- 4 a 0.7108 0.1794 0.017 1. 0 1.3 
O6 O2- 4 a 0.5961 0.5864 0.1042 1. 0 1.3 
O7 O2- 4 a 0.8392 0.4255 0.1486 1. 0 1.3 
O8 O2- 4 a 0.0147 0.8078 0.2168 1. 0 1.3 

#End of data_83229-ICSD


