data_165267-ICSD
#?2014 by Fachinformationszentrum Karlsruhe, and the U.S. Secretary of 
#Commerce on behalf of the United States.  All rights reserved.
_database_code_ICSD                165267
_audit_creation_date               2010/02/01
_chemical_name_systematic
;
Tetrarubidium Ditin Tetrasilver Tris(hexaselenodiphosphate(IV))
;
_chemical_formula_structural       'Rb4 Sn2 Ag4 (P2 Se6)3'
_chemical_formula_sum              'Ag4 P6 Rb4 Se18 Sn2'
_publ_section_title
;
Rb4 Sn2 Ag4 (P2 Se6)3 : first example of a quinary selenophosphate 
and an unusual Sn-Ag s(2)-d(10) interaction
;
loop_
_citation_id
_citation_journal_abbrev
_citation_year
_citation_journal_volume
_citation_journal_issue
_citation_page_first
_citation_page_last
_citation_journal_id_ASTM
primary 'Inorganic Chemistry' 1998 37 12 2848 2849 INOCAJ
_publ_author_name                  'Chondroudis, K.;Kanatzidis, M.G.'
_cell_length_a                     11.189(2)
_cell_length_b                     7.688(2)
_cell_length_c                     21.850(3)
_cell_angle_alpha                  90.
_cell_angle_beta                   94.31(1)
_cell_angle_gamma                  90.
_cell_volume                       1874.24
_cell_formula_units_Z              2
_symmetry_space_group_name_H-M     'P 1 21/n 1'
_symmetry_Int_Tables_number        14
_refine_ls_R_factor_all            .041
loop_
_symmetry_equiv_pos_site_id
_symmetry_equiv_pos_as_xyz
  1	'-x+.5, y+.5, -z+.5'
  2	'-x, -y, -z'
  3	'x+.5, -y+.5, z+.5'
  4	'x, y, z'
loop_
_atom_type_symbol
_atom_type_oxidation_number
Ag1+	1
P4+	4
Rb1+	1
Se2-	-2
Sn2+	2
loop_
_atom_site_label
_atom_site_type_symbol
_atom_site_symmetry_multiplicity
_atom_site_Wyckoff_symbol
_atom_site_fract_x
_atom_site_fract_y
_atom_site_fract_z
_atom_site_occupancy
_atom_site_attached_hydrogens
_atom_site_B_iso_or_equiv
Sn1 Sn2+ 4 e 0.81995(9) -0.0567(1) 0.11359(4) 1. 0 0.80(2) 
Ag1 Ag1+ 4 e 0.6962(1) 0.2171(2) 0.25155(8) 1. 0 4.25(4) 
Ag2 Ag1+ 4 e 0.5816(1) -0.0734(2) 0.15298(5) 1. 0 1.35(2) 
Rb1 Rb1+ 4 e 0.2451(1) -0.4350(2) 0.32330(6) 1. 0 1.25(3) 
Rb2 Rb1+ 4 e 0.7454(1) 0.4327(2) 0.00414(6) 1. 0 1.31(3) 
Se1 Se2- 4 e 0.2358(1) -0.4680(2) 0.15154(6) 1. 0 1.06(3) 
Se2 Se2- 4 e 0.9706(1) -0.2875(2) 0.06705(6) 1. 0 0.77(3) 
Se3 Se2- 4 e 0.4746(1) 0.3060(2) 0.27246(6) 1. 0 1.03(3) 
Se4 Se2- 4 e 0.4791(1) -0.2397(2) 0.23840(6) 1. 0 0.87(3) 
Se5 Se2- 4 e 0.7561(1) 0.4548(2) 0.17566(6) 1. 0 0.85(3) 
Se6 Se2- 4 e 0.9766(1) 0.2071(2) 0.09601(6) 1. 0 0.74(3) 
Se7 Se2- 4 e 0.5089(1) 0.2206(2) 0.09905(6) 1. 0 0.95(3) 
Se8 Se2- 4 e 0.5340(1) -0.3066(2) 0.06314(6) 1. 0 0.89(3) 
Se9 Se2- 4 e 0.7436(1) -0.0229(2) -0.01049(6) 1. 0 0.88(3) 
P1 P4+ 4 e 0.0549(4) -0.3859(5) 0.1570(2) 1. 0 0.66(7) 
P2 P4+ 4 e 0.9456(4) 0.3745(5) 0.1764(2) 1. 0 0.64(7) 
P3 P4+ 4 e 0.4455(4) 0.1191(5) 0.0094(2) 1. 0 0.64(8) 

loop_
_atom_site_aniso_label
_atom_site_aniso_type_symbol
_atom_site_aniso_U_11
_atom_site_aniso_U_22
_atom_site_aniso_U_33
_atom_site_aniso_U_12
_atom_site_aniso_U_13
_atom_site_aniso_U_23
Sn1 Sn2+ 0.0093(5) 0.0093(5) 0.0117(5) 0.0004(5) 0.0014(4) -0.0015(4)
Ag1 Ag1+ 0.0222(8) 0.064(1) 0.077(1) 0.0088(9) 0.0174(8) 0.059(1)
Ag2 Ag1+ 0.0216(7) 0.0204(7) 0.0094(5) 0.0002(7) 0.0019(5) 0.0034(5)
Rb1 Rb1+ 0.0127(8) 0.0196(8) 0.0150(7) -0.0013(8) -0.0002(6) -0.0005(6)
Rb2 Rb1+ 0.0165(8) 0.0176(8) 0.0150(7) 0.0007(8) -0.0027(6) -0.0018(7)
Se1 Se2- 0.0081(8) 0.0161(9) 0.0158(7) 0.0017(8) -0.0001(6) 0.0016(6)
Se2 Se2- 0.0128(8) 0.0088(8) 0.0072(7) 0.0001(8) -0.0012(6) 0.0006(6)
Se3 Se2- 0.0166(9) 0.0097(9) 0.0129(7) 0.0036(8) 0.0026(7) 0.0056(6)
Se4 Se2- 0.0173(9) 0.0082(8) 0.0073(7) -0.0007(7) 0.0003(6) 0.0003(5)
Se5 Se2- 0.0085(8) 0.0105(8) 0.0131(7) -0.0005(8) -0.0001(6) 0.0026(6)
Se6 Se2- 0.0121(9) 0.0078(8) 0.0086(7) -0.0020(8) 0.0019(6) -0.0032(6)
Se7 Se2- 0.0177(9) 0.0106(8) 0.0073(7) 0.0000(8) -0.0026(6) -0.0014(6)
Se8 Se2- 0.0150(9) 0.0085(8) 0.0103(7) -0.0009(8) -0.0005(6) 0.0043(6)
Se9 Se2- 0.0085(8) 0.0164(9) 0.0086(7) -0.0005(8) 0.0001(6) 0.0011(6)
P1 P4+ 0.011(2) 0.004(2) 0.011(1) 0.001(2) 0.002(1) 0.002(1)
P2 P4+ 0.012(2) 0.006(2) 0.007(2) 0.004(2) 0.001(2) 0.001(1)
P3 P4+ 0.008(2) 0.008(2) 0.007(1) -0.001(2) -0.001(1) 0.001(1)
#End of data_165267-ICSD


