data_64651-ICSD
#?2014 by Fachinformationszentrum Karlsruhe, and the U.S. Secretary of 
#Commerce on behalf of the United States.  All rights reserved.
_database_code_ICSD                64651
_audit_creation_date               1989/12/04
_audit_update_record               2012/02/01
_chemical_name_systematic
;
Dipotassium Dioxouranium Bis(molybdate)
;
_chemical_formula_structural       'K2 (U O2) (Mo O4)2'
_chemical_formula_sum              'K2 Mo2 O10 U1'
_publ_section_title
;
Struktur- und Spektralanalyse von Kaliumdimolybdatouranylat
;
loop_
_citation_id
_citation_journal_abbrev
_citation_year
_citation_journal_volume
_citation_page_first
_citation_page_last
_citation_journal_id_ASTM
primary 'Izvestiya Akademii Nauk SSSR, Neorganicheskie Materialy'
 1988 24 109 115 IVNMAW
_publ_author_name
;
Sadikov, G.G.;Krasovskaya, T.I.;Polyakov, Yu.A.;Nikolaev, V.P.
;
_cell_length_a                     12.269(5)
_cell_length_b                     13.468(5)
_cell_length_c                     12.857(6)
_cell_angle_alpha                  90.
_cell_angle_beta                   95.08(3)
_cell_angle_gamma                  90.
_cell_volume                       2116.13
_cell_formula_units_Z              8
_symmetry_space_group_name_H-M     'P 1 21/c 1'
_symmetry_Int_Tables_number        14
_refine_ls_R_factor_all            .065
loop_
_symmetry_equiv_pos_site_id
_symmetry_equiv_pos_as_xyz
  1	'x, -y+.5, z+.5'
  2	'-x, -y, -z'
  3	'-x, y+.5, -z+.5'
  4	'x, y, z'
loop_
_atom_type_symbol
_atom_type_oxidation_number
K1+	1
Mo6+	6
O2-	-2
U6+	6
loop_
_atom_site_label
_atom_site_type_symbol
_atom_site_symmetry_multiplicity
_atom_site_Wyckoff_symbol
_atom_site_fract_x
_atom_site_fract_y
_atom_site_fract_z
_atom_site_occupancy
_atom_site_attached_hydrogens
_atom_site_B_iso_or_equiv
U1 U6+ 4 e 0.84636(5) 0.18177(4) 0.03224(6) 1. 0 1.19 
U2 U6+ 4 e 0.33139(5) 0.32025(4) -.01239(6) 1. 0 1.22 
Mo1 Mo6+ 4 e 0.5562(1) 0.1232(1) -.0763(1) 1. 0 1.14 
Mo2 Mo6+ 4 e 0.0554(1) 0.3885(1) 0.1003(1) 1. 0 1.12 
Mo3 Mo6+ 4 e 0.1504(1) 0.08708(9) 0.0648(1) 1. 0 0.92 
Mo4 Mo6+ 4 e 0.6419(1) 0.40231(9) -.0513(1) 1. 0 0.92 
K1 K1+ 4 e 0.9635(4) 0.6783(3) 0.1904(4) 1. 0 1.7 
K2 K1+ 4 e 0.7287(4) 0.9544(3) 0.1802(4) 1. 0 1.64 
K3 K1+ 4 e 0.7581(4) 0.3745(3) 0.2140(4) 1. 0 1.5 
K4 K1+ 4 e 0.4616(4) 0.1564(3) 0.2116(4) 1. 0 1.82 
O1 O2- 4 e 0.825(1) 0.1689(8) 0.168(1) 1. 0 1.36 
O2 O2- 4 e 0.873(1) 0.1949(9) -.100(1) 1. 0 1.32 
O3 O2- 4 e 0.364(1) 0.3394(8) 0.123(1) 1. 0 1.28 
O4 O2- 4 e 0.297(1) 0.2993(8) -.149(1) 1. 0 1.03 
O5 O2- 4 e 0.685(1) 0.0913(8) -.007(1) 1. 0 1.24 
O6 O2- 4 e 0.467(1) 0.1933(7) 0.000(1) 1. 0 1.03 
O7 O2- 4 e 0.579(1) 0.192(1) -.185(1) 1. 0 2.08 
O8 O2- 4 e 0.490(1) 0.0153(9) -.121(1) 1. 0 2.01 
O9 O2- 4 e 0.920(1) 0.3376(8) 0.072(1) 1. 0 1.45 
O10 O2- 4 e 0.1482(9) 0.3531(9) 0.004(1) 1. 0 1.05 
O11 O2- 4 e 0.106(1) 0.3471(9) 0.219(1) 1. 0 1.78 
O12 O2- 4 e 0.047(1) 0.5158(9) 0.110(1) 1. 0 1.81 
O13 O2- 4 e 0.033(1) 0.1627(8) 0.081(1) 1. 0 1.58 
O14 O2- 4 e 0.250(1) 0.1650(8) 0.017(1) 1. 0 1.71 
O15 O2- 4 e 0.884(1) 0.0075(8) 0.0281(9) 1. 0 0.66 
O16 O2- 4 e 0.200(1) 0.0413(9) 0.183(1) 1. 0 1.94 
O17 O2- 4 e 0.685(1) 0.5045(8) 0.030(1) 1. 0 0.96 
O18 O2- 4 e 0.498(1) 0.3900(8) -.061(1) 1. 0 1.15 
O19 O2- 4 e 0.701(1) 0.2965(8) 0.013(1) 1. 0 0.93 
O20 O2- 4 e 0.679(1) 0.4166(9) -.174(1) 1. 0 2.08 

#End of data_64651-ICSD


