data_91095-ICSD
#?2014 by Fachinformationszentrum Karlsruhe, and the U.S. Secretary of 
#Commerce on behalf of the United States.  All rights reserved.
_database_code_ICSD                91095
_audit_creation_date               2002/10/01
_audit_update_record               2010/02/01
_chemical_name_systematic
;
Rubidium Disamarium Trisilver Selenide
;
_chemical_formula_structural       'Rb Sm2 Ag3 Se5'
_chemical_formula_sum              'Ag3 Rb1 Se5 Sm2'
_publ_section_title
;
Syntheses and structures of the new quaternary rubidium selenides Rb 
Ln2 Cu Se4 (Ln = Sm, Gd, Dy), Rb1.5 Ln2 Cu2.5 Se5 (Ln = Gd, Dy), and 
Rb Sm2 Ag3 Se5
;
loop_
_citation_id
_citation_journal_abbrev
_citation_year
_citation_journal_volume
_citation_page_first
_citation_page_last
_citation_journal_id_ASTM
primary 'Journal of Solid State Chemistry' 2000 151 317 322 JSSCBI
_publ_author_name                  'Huang Fu qiang;Ibers, J.A.'
_cell_length_a                     4.3223(6)
_cell_length_b                     15.229(2)
_cell_length_c                     17.420(3)
_cell_angle_alpha                  90.
_cell_angle_beta                   90.
_cell_angle_gamma                  90.
_cell_volume                       1146.66
_cell_formula_units_Z              4
_symmetry_space_group_name_H-M     'C m c m'
_symmetry_Int_Tables_number        63
_refine_ls_R_factor_all            .025
loop_
_symmetry_equiv_pos_site_id
_symmetry_equiv_pos_as_xyz
  1	'-x, y, -z+.5'
  2	'-x, -y, z+.5'
  3	'-x, y, z'
  4	'-x, -y, -z'
  5	'x, -y, z+.5'
  6	'x, y, -z+.5'
  7	'x, -y, -z'
  8	'x, y, z'
  9	'-x+.5, y+.5, -z+.5'
 10	'-x+.5, -y+.5, z+.5'
 11	'-x+.5, y+.5, z'
 12	'-x+.5, -y+.5, -z'
 13	'x+.5, -y+.5, z+.5'
 14	'x+.5, y+.5, -z+.5'
 15	'x+.5, -y+.5, -z'
 16	'x+.5, y+.5, z'
loop_
_atom_type_symbol
_atom_type_oxidation_number
Ag1+	1
Rb1+	1
Se2-	-2
Sm3+	3
loop_
_atom_site_label
_atom_site_type_symbol
_atom_site_symmetry_multiplicity
_atom_site_Wyckoff_symbol
_atom_site_fract_x
_atom_site_fract_y
_atom_site_fract_z
_atom_site_occupancy
_atom_site_attached_hydrogens
_atom_site_U_iso_or_equiv
Rb1 Rb1+ 4 c 0 0.43702(6) 0.25 1. 0 0.0149(2) 
Sm1 Sm3+ 8 f 0 0.30862(2) 0.59556(2) 1. 0 0.00838(14) 
Ag1 Ag1+ 4 c 0 0.16055(4) 0.25 1. 0 0.01227(17) 
Ag2 Ag1+ 8 f 0 0.08441(3) 0.53813(3) 1. 0 0.01289(16) 
Se1 Se2- 8 f 0 0.06460(4) 0.11990(3) 1. 0 0.00898(16) 
Se2 Se2- 4 c 0 0.75810(6) 0.25 1. 0 0.0093(2) 
Se3 Se2- 8 f 0 0.32140(4) 0.07123(3) 1. 0 0.00850(17) 

#End of data_91095-ICSD


