data_417497-ICSD
#?2014 by Fachinformationszentrum Karlsruhe, and the U.S. Secretary of 
#Commerce on behalf of the United States.  All rights reserved.
_database_code_ICSD                417497
_audit_creation_date               2008/02/01
_audit_update_record               2012/02/01
_chemical_name_systematic
;
Dipotassium Cerium(IV) Trisulfate(VI) Hydrate
;
_chemical_formula_structural       'K2 Ce (S O4)3 (H2 O)'
_chemical_formula_sum              'H2 Ce1 K2 O13 S3'
_publ_section_title
;
Syntheses and crystal structures of hydrated ternary cerium sulfates: 
mixed-valence K5 Ce2 (S O4)6 * H2O and K2 Ce (S O4)3 * H2O
;
loop_
_citation_id
_citation_journal_abbrev
_citation_year
_citation_journal_volume
_citation_journal_issue
_citation_page_first
_citation_page_last
_citation_journal_id_ASTM
primary 'Zeitschrift fuer Anorganische und Allgemeine Chemie (1950) (DE)'
 2007 633 7 1055 1061 ZAACAB
_publ_author_name                  'Casari, B.M.;Langer, V.'
_cell_length_a                     20.6149(2)
_cell_length_b                     7.0742(1)
_cell_length_c                     17.8570(1)
_cell_angle_alpha                  90.00
_cell_angle_beta                   122.720(1)
_cell_angle_gamma                  90.00
_cell_volume                       2190.93
_cell_formula_units_Z              8
_symmetry_space_group_name_H-M     'C 1 2 1'
_symmetry_Int_Tables_number        5
_refine_ls_R_factor_all            .0283
loop_
_symmetry_equiv_pos_site_id
_symmetry_equiv_pos_as_xyz
  1	'-x, y, -z'
  2	'x, y, z'
  3	'-x+.5, y+.5, -z'
  4	'x+.5, y+.5, z'
loop_
_atom_type_symbol
_atom_type_oxidation_number
Ce4+	4
H1+	1
K1+	1
O2-	-2
S6+	6
loop_
_atom_site_label
_atom_site_type_symbol
_atom_site_symmetry_multiplicity
_atom_site_Wyckoff_symbol
_atom_site_fract_x
_atom_site_fract_y
_atom_site_fract_z
_atom_site_occupancy
_atom_site_attached_hydrogens
_atom_site_U_iso_or_equiv
Ce1 Ce4+ 4 c 0.414806(11) -0.15640(3) 0.584191(12) 1 0 0.00501(4) 
Ce2 Ce4+ 4 c 0.618794(11) 0.15768(3) 0.922441(12) 1 0 0.00648(4) 
K1 K1+ 4 c 0.22002(4) -0.34195(14) 0.33808(5) 1 0 0.01071(13) 
K2 K1+ 4 c 0.35581(4) -0.35551(13) 0.20828(5) 1 0 0.01051(13) 
K3 K1+ 2 b 0.5000 0.3432(2) 0.5000 1 0 0.0241(3) 
K4 K1+ 2 a 0.5000 0.74869(18) 1.0000 1 0 0.0136(2) 
K5 K1+ 4 c 0.22948(5) 0.13625(14) 0.23115(6) 1 0 0.01739(17) 
S1 S6+ 4 c 0.39789(5) -0.17971(13) 0.40374(5) 1 0 0.00642(15) 
S2 S6+ 4 c 0.65963(5) 0.14016(15) 1.11340(6) 1 0 0.00770(16) 
S3 S6+ 4 c 0.82340(5) 0.15828(14) 1.00155(5) 1 0 0.00625(13) 
S4 S6+ 4 c 0.45754(5) -0.17310(15) 0.77770(5) 1 0 0.00704(15) 
S5 S6+ 4 c 0.56771(5) 0.18864(12) 0.72527(6) 1 0 0.00755(17) 
S6 S6+ 4 c 0.26542(5) 0.17102(14) 0.45268(6) 1 0 0.00664(14) 
O1 O2- 4 c 0.42502(19) -0.5025(4) 0.6038(2) 1 0 0.0167(6) 
O2 O2- 4 c 0.51632(15) 0.3530(5) 0.91095(18) 1 0 0.0119(5) 
O3 O2- 4 c 0.46257(16) -0.2397(4) 0.39536(18) 1 0 0.0102(5) 
O4 O2- 4 c 0.38543(14) -0.3311(5) 0.45389(16) 1 0 0.0093(5) 
O5 O2- 4 c 0.32887(14) -0.1535(5) 0.31647(16) 1 0 0.0114(5) 
O6 O2- 4 c 0.41760(16) -0.0103(4) 0.46214(17) 1 0 0.0089(5) 
O7 O2- 4 c 0.70289(16) 0.2248(4) 1.07472(18) 1 0 0.0111(5) 
O8 O2- 4 c 0.63584(18) 0.2848(4) 1.15158(19) 1 0 0.0135(6) 
O9 O2- 4 c 0.59074(16) 0.0578(4) 1.03081(18) 1 0 0.0112(5) 
O10 O2- 4 c 0.70747(18) -0.0020(4) 1.17897(18) 1 0 0.0134(5) 
O11 O2- 4 c 0.84556(17) -0.0051(4) 1.06371(18) 1 0 0.0111(5) 
O12 O2- 4 c 0.85729(15) 0.1461(5) 0.94914(17) 1 0 0.0113(5) 
O13 O2- 4 c 0.84744(16) 0.3341(4) 1.05624(17) 1 0 0.0113(5) 
O14 O2- 4 c 0.73772(14) 0.1637(5) 0.94257(17) 1 0 0.0127(5) 
O15 O2- 4 c 0.50097(16) -0.0195(4) 0.84154(18) 1 0 0.0127(5) 
O16 O2- 4 c 0.50010(16) -0.2492(4) 0.73791(17) 1 0 0.0091(5) 
O17 O2- 4 c 0.38639(16) -0.0943(4) 0.69776(18) 1 0 0.0118(5) 
O18 O2- 4 c 0.43964(17) -0.3199(4) 0.82096(19) 1 0 0.0149(6) 
O19 O2- 4 c 0.49493(16) 0.1093(4) 0.65000(17) 1 0 0.0096(5) 
O20 O2- 4 c 0.61521(16) 0.0397(4) 0.79149(18) 1 0 0.0091(5) 
O21 O2- 4 c 0.54866(16) 0.3192(4) 0.77687(17) 1 0 0.0111(5) 
O22 O2- 4 c 0.60889(17) 0.2880(4) 0.69236(19) 1 0 0.0142(6) 
O23 O2- 4 c 0.20560(16) 0.2210(4) 0.47315(18) 1 0 0.0101(5) 
O24 O2- 4 c 0.33304(16) 0.0993(4) 0.54053(18) 1 0 0.0109(5) 
O25 O2- 4 c 0.29108(17) 0.3397(5) 0.4291(2) 1 0 0.0189(6) 
O26 O2- 4 c 0.23532(17) 0.0251(4) 0.38527(18) 1 0 0.0141(6) 
H1 H1+ 4 c 0.387(3) -0.571(8) 0.566(3) 1 0 0.038(10) 
H2 H1+ 4 c 0.435(4) -0.550(9) 0.651(3) 1 0 0.038(10) 
H3 H1+ 4 c 0.471(2) 0.307(9) 0.899(4) 1 0 0.038(10) 
H4 H1+ 4 c 0.498(4) 0.427(8) 0.866(3) 1 0 0.038(10) 

loop_
_atom_site_aniso_label
_atom_site_aniso_type_symbol
_atom_site_aniso_U_11
_atom_site_aniso_U_22
_atom_site_aniso_U_33
_atom_site_aniso_U_12
_atom_site_aniso_U_13
_atom_site_aniso_U_23
Ce1 Ce4+ 0.00384(7) 0.00612(8) 0.00503(8) 0.00002(7) 0.00237(6) -0.00029(7)
Ce2 Ce4+ 0.00553(8) 0.00767(8) 0.00572(8) 0.00009(7) 0.00270(6) 0.00007(7)
K1 K1+ 0.0104(3) 0.0112(3) 0.0103(3) -0.0028(3) 0.0055(3) -0.0008(3)
K2 K1+ 0.0088(3) 0.0133(3) 0.0097(3) -0.0006(3) 0.0052(3) -0.0019(3)
K3 K1+ 0.0347(7) 0.0177(6) 0.0181(6) 0.000 0.0131(5) 0.000
K4 K1+ 0.0086(5) 0.0184(6) 0.0133(5) 0.000 0.0055(4) 0.000
K5 K1+ 0.0197(4) 0.0142(4) 0.0150(4) 0.0030(3) 0.0073(3) 0.0048(3)
S1 S6+ 0.0045(3) 0.0096(4) 0.0059(3) -0.0003(3) 0.0033(3) -0.0005(3)
S2 S6+ 0.0068(3) 0.0095(4) 0.0066(3) 0.0005(3) 0.0035(3) 0.0010(3)
S3 S6+ 0.0052(3) 0.0068(3) 0.0063(3) -0.0006(3) 0.0029(3) -0.0004(3)
S4 S6+ 0.0062(3) 0.0087(4) 0.0061(3) -0.0002(3) 0.0032(3) 0.0006(3)
S5 S6+ 0.0078(4) 0.0075(4) 0.0056(3) -0.0016(3) 0.0024(3) -0.0012(3)
S6 S6+ 0.0059(3) 0.0063(4) 0.0088(3) 0.0012(3) 0.0047(3) 0.0010(3)
O1 O2- 0.0144(14) 0.0102(13) 0.0190(15) -0.0013(11) 0.0047(12) 0.0007(11)
O2 O2- 0.0087(11) 0.0121(12) 0.0159(12) 0.0003(11) 0.0073(10) 0.0020(12)
O3 O2- 0.0066(12) 0.0167(14) 0.0092(12) 0.0000(10) 0.0055(10) -0.0004(10)
O4 O2- 0.0079(11) 0.0129(12) 0.0085(11) -0.0025(11) 0.0053(9) -0.0007(10)
O5 O2- 0.0053(10) 0.0173(12) 0.0084(11) 0.0019(12) 0.0016(9) -0.0019(11)
O6 O2- 0.0074(12) 0.0107(12) 0.0083(11) -0.0017(10) 0.0040(10) -0.0031(10)
O7 O2- 0.0105(12) 0.0165(13) 0.0069(12) -0.0032(10) 0.0052(10) 0.0005(10)
O8 O2- 0.0154(14) 0.0130(13) 0.0156(13) -0.0006(11) 0.0108(12) -0.0034(10)
O9 O2- 0.0073(12) 0.0178(14) 0.0068(12) -0.0041(10) 0.0027(10) -0.0007(10)
O10 O2- 0.0184(14) 0.0095(12) 0.0086(12) 0.0018(11) 0.0049(11) 0.0034(10)
O11 O2- 0.0117(13) 0.0114(13) 0.0098(12) 0.0006(10) 0.0055(11) 0.0010(10)
O12 O2- 0.0107(11) 0.0152(13) 0.0138(12) -0.0015(12) 0.0103(10) -0.0020(11)
O13 O2- 0.0136(12) 0.0075(11) 0.0107(11) -0.0049(11) 0.0051(10) -0.0034(11)
O14 O2- 0.0055(11) 0.0181(13) 0.0111(11) -0.0002(12) 0.0024(9) 0.0001(12)
O15 O2- 0.0099(13) 0.0163(14) 0.0117(13) -0.0031(11) 0.0057(11) -0.0035(11)
O16 O2- 0.0080(12) 0.0110(12) 0.0078(12) 0.0028(10) 0.0040(10) 0.0009(10)
O17 O2- 0.0085(12) 0.0182(13) 0.0081(12) 0.0021(10) 0.0041(10) -0.0008(10)
O18 O2- 0.0177(14) 0.0133(14) 0.0166(13) -0.0020(12) 0.0111(12) 0.0030(11)
O19 O2- 0.0086(12) 0.0088(12) 0.0075(11) -0.0023(9) 0.0019(10) -0.0013(9)
O20 O2- 0.0089(12) 0.0098(12) 0.0075(11) 0.0009(10) 0.0037(10) -0.0001(9)
O21 O2- 0.0169(13) 0.0081(12) 0.0091(11) 0.0005(11) 0.0076(10) -0.0020(10)
O22 O2- 0.0148(14) 0.0158(13) 0.0142(13) -0.0033(11) 0.0094(11) 0.0021(10)
O23 O2- 0.0073(12) 0.0138(12) 0.0096(12) 0.0014(10) 0.0047(10) 0.0012(9)
O24 O2- 0.0095(12) 0.0135(12) 0.0086(12) 0.0032(10) 0.0040(10) 0.0010(9)
O25 O2- 0.0170(13) 0.0146(13) 0.0327(16) 0.0034(14) 0.0184(13) 0.0116(15)
O26 O2- 0.0168(14) 0.0135(13) 0.0101(12) 0.0024(11) 0.0061(11) -0.0029(10)
#End of data_417497-ICSD


