data_67882-ICSD
#?2014 by Fachinformationszentrum Karlsruhe, and the U.S. Secretary of 
#Commerce on behalf of the United States.  All rights reserved.
_database_code_ICSD                67882
_audit_creation_date               1995/01/10
_audit_update_record               2010/02/01
_chemical_name_systematic          'Dilead Magnesium Tungstate'
_chemical_formula_structural       'Pb2 Mg (W O6)'
_chemical_formula_sum              'Mg1 O6 Pb2 W1'
_publ_section_title
;
Investigation of the orthorhombic structures of Pb2 Mg W O6 and Pb2 
Co W O6
;
loop_
_citation_id
_citation_journal_abbrev
_citation_year
_citation_journal_volume
_citation_journal_issue
_citation_page_first
_citation_page_last
_citation_journal_id_ASTM
primary 'Solid State Communications' 1993 86 9 541 544 SSCOA4
2 'Golden Book of Phase Transitions, Wroclaw' 2002 1- 1 123 GBOPT5
_publ_author_name
;
Baldinozzi, G.;Sciau, P.;Buffat, P.-A.
;
_cell_length_a                     7.9039(4)
_cell_length_b                     5.7035(3)
_cell_length_c                     11.4436(6)
_cell_angle_alpha                  90.
_cell_angle_beta                   90.
_cell_angle_gamma                  90.
_cell_volume                       515.88
_cell_formula_units_Z              4
_symmetry_space_group_name_H-M     'P m c n'
_symmetry_Int_Tables_number        62
_refine_ls_R_factor_all            .035
loop_
_symmetry_equiv_pos_site_id
_symmetry_equiv_pos_as_xyz
  1	'x, -y+.5, z+.5'
  2	'-x+.5, y, z'
  3	'x+.5, y+.5, -z+.5'
  4	'-x, -y, -z'
  5	'-x, y+.5, -z+.5'
  6	'x+.5, -y, -z'
  7	'-x+.5, -y+.5, z+.5'
  8	'x, y, z'
loop_
_atom_type_symbol
_atom_type_oxidation_number
Mg2+	2
O2-	-2
Pb2+	2
W6+	6
loop_
_atom_site_label
_atom_site_type_symbol
_atom_site_symmetry_multiplicity
_atom_site_Wyckoff_symbol
_atom_site_fract_x
_atom_site_fract_y
_atom_site_fract_z
_atom_site_occupancy
_atom_site_attached_hydrogens
_atom_site_B_iso_or_equiv
Pb1 Pb2+ 8 d 0.0063(3) -.2110(3) 0.1462(2) 1. 0 0.18(3) 
Mg1 Mg2+ 4 c 0.25 0.769(6) 0.385(2) 1. 0 0.13(4) 
W1 W6+ 4 c 0.25 0.2546(8) 0.1142(3) 1. 0 0.13(4) 
O1 O2- 8 d 0.493(3) 0.2546(8) 0.1142(3) 1. 0 0 
O2 O2- 4 c 0.25 0.05(12) -.02(4) 1. 0 0 
O3 O2- 4 c 0.25 0.53(11) 0.01(6) 1. 0 0.6(1) 
O4 O2- 4 c 0.25 -.02(11) 0.21(6) 1. 0 0 
O5 O2- 4 c 0.25 0.46(12) 0.25(4) 1. 0 0 

#End of data_67882-ICSD


