data_63623-ICSD
#?2014 by Fachinformationszentrum Karlsruhe, and the U.S. Secretary of 
#Commerce on behalf of the United States.  All rights reserved.
_database_code_ICSD                63623
_audit_creation_date               1988/12/19
_audit_update_record               2013/02/01
_chemical_name_systematic
;
Potassium Mercury Trithioantimonate
;
_chemical_formula_structural       'K Hg (Sb S3)'
_chemical_formula_sum              'Hg1 K1 S3 Sb1'
_publ_section_title
;
The crystal structure of a new synthetic sulfosalt, KHgSbS3
;
loop_
_citation_id
_citation_journal_abbrev
_citation_year
_citation_journal_volume
_citation_journal_issue
_citation_page_first
_citation_page_last
_citation_journal_id_ASTM
primary 'Materials Research Bulletin' 1986 21- 493 501 MRBUAC
2 'Nippon Kagaku Kaishi (= J.Chem.Soc.Japan) (1947-)' 1985 1985 7 1498 1500 NKAKB8
_publ_author_name
;
Imafuku, M.;Nakai, I.;Nagashima, K.
;
_cell_length_a                     17.084(8)
_cell_length_b                     8.647(4)
_cell_length_c                     8.951(3)
_cell_angle_alpha                  90.
_cell_angle_beta                   105.78(5)
_cell_angle_gamma                  90.
_cell_volume                       1272.46
_cell_formula_units_Z              8
_symmetry_space_group_name_H-M     'A 1 2/a 1'
_symmetry_Int_Tables_number        15
_refine_ls_R_factor_all            .082
loop_
_symmetry_equiv_pos_site_id
_symmetry_equiv_pos_as_xyz
  1	'-x+.5, y, -z'
  2	'-x, -y, -z'
  3	'x+.5, -y, z'
  4	'x, y, z'
  5	'-x+.5, y+.5, -z+.5'
  6	'-x, -y+.5, -z+.5'
  7	'x+.5, -y+.5, z+.5'
  8	'x, y+.5, z+.5'
loop_
_atom_type_symbol
_atom_type_oxidation_number
Hg2+	2
K1+	1
S2-	-2
Sb3+	3
loop_
_atom_site_label
_atom_site_type_symbol
_atom_site_symmetry_multiplicity
_atom_site_Wyckoff_symbol
_atom_site_fract_x
_atom_site_fract_y
_atom_site_fract_z
_atom_site_occupancy
_atom_site_attached_hydrogens
_atom_site_B_iso_or_equiv
Hg1 Hg2+ 4 e 0.25 0.4402(3) 0 1. 0 3.6 
Hg2 Hg2+ 4 e 0.25 0.4217(3) 0.5 1. 0 3.8 
Sb1 Sb3+ 8 f 0.4044(1) 0.1613(2) 0.3254(2) 1. 0 2.1 
K1 K1+ 8 f 0.0805(4) 0.1790(8) 0.1532(8) 1. 0 2.9 
S1 S2- 8 f 0.2661(5) 0.2429(9) 0.2535(10) 1. 0 2.4 
S2 S2- 8 f 0.3947(5) 0.4898(9) 0.0375(9) 1. 0 2.5 
S3 S2- 8 f 0.1051(5) 0.4725(9) 0.3828(9) 1. 0 2.5 

#End of data_63623-ICSD


