data_78803-ICSD
#?2014 by Fachinformationszentrum Karlsruhe, and the U.S. Secretary of 
#Commerce on behalf of the United States.  All rights reserved.
_database_code_ICSD                78803
_audit_creation_date               1999/11/30
_chemical_name_systematic          'Tetrasilver Germanate'
_chemical_formula_structural       'Ag4 (Ge O4)'
_chemical_formula_sum              'Ag4 Ge1 O4'
_publ_section_title
;
Darstellung und Kristallstruktur von Silberorthogermanat, Ag4 Ge O4
;
loop_
_citation_id
_citation_journal_abbrev
_citation_year
_citation_journal_volume
_citation_page_first
_citation_page_last
_citation_journal_id_ASTM
primary 'Zeitschrift fuer Kristallographie (1979-2010)' 1995 210 850 855 ZEKRDZ
_publ_author_name                  'Linke, C.;Hundt, R.;Jansen, M.'
_cell_length_a                     6.4099(8)
_cell_length_b                     8.5122(10)
_cell_length_c                     10.0891(14)
_cell_angle_alpha                  106.91(1)
_cell_angle_beta                   92.19(1)
_cell_angle_gamma                  95.80(1)
_cell_volume                       522.66
_cell_formula_units_Z              4
_symmetry_space_group_name_H-M     'P -1'
_symmetry_Int_Tables_number        2
_refine_ls_R_factor_all            .0829
loop_
_symmetry_equiv_pos_site_id
_symmetry_equiv_pos_as_xyz
  1	'-x, -y, -z'
  2	'x, y, z'
loop_
_atom_type_symbol
_atom_type_oxidation_number
Ag1+	1
Ge4+	4
O2-	-2
loop_
_atom_site_label
_atom_site_type_symbol
_atom_site_symmetry_multiplicity
_atom_site_Wyckoff_symbol
_atom_site_fract_x
_atom_site_fract_y
_atom_site_fract_z
_atom_site_occupancy
_atom_site_attached_hydrogens
Ag1 Ag1+ 2 i 0.0205(2) 0.0146(2) 0.2477(2) 1. 0 
Ag2 Ag1+ 2 i 0.4077(3) 0.5951(3) 0.6651(2) 1. 0 
Ag3 Ag1+ 2 i 0.4723(2) 0.9645(2) 0.7443(2) 1. 0 
Ag4 Ag1+ 2 i 0.0955(3) 0.3693(2) 0.3684(2) 1. 0 
Ag5 Ag1+ 2 i 0.2250(3) 0.8219(3) 0.9418(2) 1. 0 
Ag6 Ag1+ 2 i 0.0602(3) 0.4187(2) 0.8555(2) 1. 0 
Ag7 Ag1+ 2 i 0.3185(3) 0.1794(3) 0.5355(2) 1. 0 
Ag8 Ag1+ 2 i 0.4370(3) 0.6447(3) 0.1599(2) 1. 0 
Ge1 Ge4+ 2 i 0.1983(3) 0.7676(3) 0.4404(2) 1. 0 
Ge2 Ge4+ 2 i 0.2796(3) 0.2489(2) 0.0607(2) 1. 0 
O1 O2- 2 i 0.0477(20) 0.3503(19) 0.5763(16) 1. 0 
O2 O2- 2 i 0.2441(21) 0.8214(19) 0.2884(15) 1. 0 
O3 O2- 2 i 0.2346(21) 0.2149(19) 0.8811(14) 1. 0 
O4 O2- 2 i 0.0774(21) 0.3543(19) 0.1487(15) 1. 0 
O5 O2- 2 i 0.2858(21) 0.0635(19) 0.1057(16) 1. 0 
O6 O2- 2 i 0.3895(22) 0.6418(20) 0.4647(15) 1. 0 
O7 O2- 2 i 0.2138(20) 0.9443(19) 0.5875(14) 1. 0 
O8 O2- 2 i 0.4750(19) 0.6251(18) 0.8854(13) 1. 0 

loop_
_atom_site_aniso_label
_atom_site_aniso_type_symbol
_atom_site_aniso_U_11
_atom_site_aniso_U_22
_atom_site_aniso_U_33
_atom_site_aniso_U_12
_atom_site_aniso_U_13
_atom_site_aniso_U_23
Ag1 Ag1+ 0.020(1) 0.019(1) 0.025(1) 0.001(1) 0.003(1) 0.007(1)
Ag2 Ag1+ 0.032(1) 0.031(1) 0.017(1) 0.006(1) -.004(1) 0.005(1)
Ag3 Ag1+ 0.023(1) 0.024(1) 0.022(1) -.002(1) -.006(1) 0.008(1)
Ag4 Ag1+ 0.034(1) 0.021(1) 0.018(1) 0.003(1) 0.006(1) 0.008(1)
Ag5 Ag1+ 0.025(1) 0.028(1) 0.046(1) -.001(1) 0.001(1) 0.001(1)
Ag6 Ag1+ 0.028(1) 0.024(1) 0.023(1) 0.003(1) -.006(1) 0.008(1)
Ag7 Ag1+ 0.021(1) 0.029(1) 0.051(1) 0.003(1) 0.004(1) 0.018(1)
Ag8 Ag1+ 0.043(1) 0.028(1) 0.042(1) 0.008(1) 0.027(1) 0.011(1)
Ge1 Ge4+ 0.012(1) 0.015(1) 0.013(1) 0.000(1) 0.000(1) 0.005(1)
Ge2 Ge4+ 0.013(1) 0.014(1) 0.011(1) 0.001(1) -.001(1) 0.003(1)
O1 O2- 0.017(5) 0.022(7) 0.021(6) -.005(4) -.006(4) 0.003(5)
O2 O2- 0.026(6) 0.022(7) 0.016(6) 0.002(5) 0.004(4) 0.008(5)
O3 O2- 0.024(6) 0.023(7) 0.014(6) -.003(5) 0.000(4) 0.009(5)
O4 O2- 0.022(6) 0.021(7) 0.018(6) 0.003(4) 0.002(4) 0.004(5)
O5 O2- 0.022(6) 0.019(6) 0.026(7) -.003(4) -.001(5) 0.012(5)
O6 O2- 0.022(6) 0.025(7) 0.019(6) 0.006(5) 0.006(4) 0.005(5)
O7 O2- 0.018(5) 0.024(7) 0.012(5) 0.000(4) -.002(4) 0.001(5)
O8 O2- 0.017(5) 0.023(6) 0.010(5) -.003(4) -.007(4) 0.005(4)
#End of data_78803-ICSD


