data_157756-ICSD
#?2014 by Fachinformationszentrum Karlsruhe, and the U.S. Secretary of 
#Commerce on behalf of the United States.  All rights reserved.
_database_code_ICSD                157756
_audit_creation_date               2008/02/01
_chemical_name_systematic
;
Calcium Bismuth Oxide Fluoride Carbonate
;
_chemical_formula_structural       'Ca Bi (O F (C O3))'
_chemical_formula_sum              'C1 Bi1 Ca1 F1 O4'
_chemical_name_mineral             Kettnerite
_publ_section_title
;
Revision of the crystal structure of kettnerite Ca Bi (O F C O3)
;
loop_
_citation_id
_citation_journal_abbrev
_citation_year
_citation_journal_volume
_citation_page_first
_citation_page_last
_citation_journal_id_ASTM
primary 'European Journal of Mineralogy' 2007 19 411 418 EJMIER
_publ_author_name                  'Hybler, J.;Dusek, M.'
_cell_length_a                     5.3641(1)
_cell_length_b                     5.3641(1)
_cell_length_c                     13.5771(2)
_cell_angle_alpha                  90.
_cell_angle_beta                   90.
_cell_angle_gamma                  90.
_cell_volume                       390.66
_cell_formula_units_Z              4
_symmetry_space_group_name_H-M     'P b a a'
_symmetry_Int_Tables_number        54
_refine_ls_R_factor_all            .0184
loop_
_symmetry_equiv_pos_site_id
_symmetry_equiv_pos_as_xyz
  1	'x+.5, y, -z'
  2	'x+.5, -y+.5, z'
  3	'-x, y+.5, z'
  4	'-x, -y, -z'
  5	'-x+.5, -y, z'
  6	'-x+.5, y+.5, -z'
  7	'x, -y+.5, -z'
  8	'x, y, z'
loop_
_atom_type_symbol
_atom_type_oxidation_number
Bi3+	3
C4+	4
Ca2+	2
F1-	-1
O2-	-2
loop_
_atom_site_label
_atom_site_type_symbol
_atom_site_symmetry_multiplicity
_atom_site_Wyckoff_symbol
_atom_site_fract_x
_atom_site_fract_y
_atom_site_fract_z
_atom_site_occupancy
_atom_site_attached_hydrogens
_atom_site_U_iso_or_equiv
Bi1 Bi3+ 4 c 0.250 0 0.09429(3) 1. 0 0.0117(4) 
Ca1 Ca2+ 4 c 0.250 0 0.4002(1) 1. 0 0.008(2) 
F1 F1- 4 e 0.019(1) 0.250 0.5 1. 0 0.005(1) 
O1 O2- 4 d 0.003(1) 0.250 0 1. 0 0.005(1) 
O2 O2- 4 c 0.250 0.5 0.1609(7) 1. 0 0.021(2) 
C1 C4+ 4 c 0.250 0.5 0.2555(9) 1. 0 0.016(3) 
O3 O2- 8 f 0.383(1) 0.344(1) 0.2990(4) 1. 0 0.009(1) 

loop_
_atom_site_aniso_label
_atom_site_aniso_type_symbol
_atom_site_aniso_U_11
_atom_site_aniso_U_22
_atom_site_aniso_U_33
_atom_site_aniso_U_12
_atom_site_aniso_U_13
_atom_site_aniso_U_23
Bi1 Bi3+ 0.0127(9) 0.0124(9) 0.0101(4) 0.0008(2) 0. 0.
Ca1 Ca2+ 0.010(4) 0.003(4) 0.009(1) 0.001(1) 0. 0.
#End of data_157756-ICSD


