data_172428-ICSD
#?2014 by Fachinformationszentrum Karlsruhe, and the U.S. Secretary of 
#Commerce on behalf of the United States.  All rights reserved.
_database_code_ICSD                172428
_audit_creation_date               2007/04/01
_chemical_name_systematic
;
Potassium Tris(trifluoromethyl) Isocyanoborate
;
_chemical_formula_structural       'K (C F3)3 B N C'
_chemical_formula_sum              'C4 B1 F9 K1 N1'
_publ_section_title
;
Cyano-and isocyanotris(trifluoromethyl)borates: syntheses, 
spectroscopic properties, and solid state structures of K [(C F3)3 B 
C N] and K [(C F3)3 B N C]
;
loop_
_citation_id
_citation_journal_abbrev
_citation_year
_citation_journal_volume
_citation_journal_issue
_citation_page_first
_citation_page_last
_citation_journal_id_ASTM
primary 'Journal of the American Chemical Society' 2005 127 30 10712 10722 JACSAT
_publ_author_name
;
Finze, M.;Bernhardt, E.;Willner, H.;Lehmann, C.W.
;
_cell_length_a                     9.7507(2)
_cell_length_b                     10.4377(2)
_cell_length_c                     9.2776(2)
_cell_angle_alpha                  90.00
_cell_angle_beta                   90.00
_cell_angle_gamma                  90.00
_cell_volume                       944.23
_cell_formula_units_Z              4
_symmetry_space_group_name_H-M     'P n m a'
_symmetry_Int_Tables_number        62
_refine_ls_R_factor_all            .0387
loop_
_symmetry_equiv_pos_site_id
_symmetry_equiv_pos_as_xyz
  1	'x+.5, y, -z+.5'
  2	'x, -y+.5, z'
  3	'-x+.5, y+.5, z+.5'
  4	'-x, -y, -z'
  5	'-x+.5, -y, z+.5'
  6	'-x, y+.5, -z'
  7	'x+.5, -y+.5, -z+.5'
  8	'x, y, z'
loop_
_atom_type_symbol
_atom_type_oxidation_number
B3+	3
C2+	2
F1-	-1
K1+	1
N3-	-3
loop_
_atom_site_label
_atom_site_type_symbol
_atom_site_symmetry_multiplicity
_atom_site_Wyckoff_symbol
_atom_site_fract_x
_atom_site_fract_y
_atom_site_fract_z
_atom_site_occupancy
_atom_site_attached_hydrogens
_atom_site_U_iso_or_equiv
K1 K1+ 4 c 0.28184(4) 0.7500 0.00964(4) 1 0 0.01427(9) 
N1 N3- 4 c -0.13283(16) 0.7500 0.01568(16) 1 0 0.0187(3) 
C1 C2+ 4 c -0.0146(2) 0.7500 0.0119(2) 1 0 0.0257(4) 
B1 B3+ 4 c -0.28802(19) 0.7500 0.02111(19) 1 0 0.0128(3) 
C2 C2+ 8 d -0.33837(12) 0.62264(11) 0.10680(12) 1 0 0.0152(2) 
C3 C2+ 4 c -0.34709(17) 0.7500 -0.14282(17) 1 0 0.0151(3) 
F1 F1- 8 d -0.47608(8) 0.61357(8) 0.12150(9) 1 0 0.02707(19) 
F2 F1- 8 d -0.29898(9) 0.51194(7) 0.04265(8) 1 0 0.02506(19) 
F3 F1- 8 d -0.28777(8) 0.61479(7) 0.24292(8) 1 0 0.02312(18) 
F4 F1- 4 c -0.48592(11) 0.7500 -0.14971(12) 1 0 0.0335(3) 
F5 F1- 8 d -0.30726(9) 0.64812(8) -0.22130(8) 1 0 0.0301(2) 

loop_
_atom_site_aniso_label
_atom_site_aniso_type_symbol
_atom_site_aniso_U_11
_atom_site_aniso_U_22
_atom_site_aniso_U_33
_atom_site_aniso_U_12
_atom_site_aniso_U_13
_atom_site_aniso_U_23
K1 K1+ 0.01261(17) 0.01543(16) 0.01476(16) 0.000 0.00123(12) 0.000
N1 N3- 0.0160(7) 0.0231(7) 0.0172(7) 0.000 0.0001(5) 0.000
C1 C2+ 0.0183(9) 0.0372(10) 0.0217(9) 0.000 -0.0008(7) 0.000
B1 B3+ 0.0113(8) 0.0138(7) 0.0132(7) 0.000 -0.0002(6) 0.000
C2 C2+ 0.0174(6) 0.0142(5) 0.0142(5) 0.0005(4) -0.0029(4) -0.0008(4)
C3 C2+ 0.0131(8) 0.0174(7) 0.0146(7) 0.000 0.0012(6) 0.000
F1 F1- 0.0189(4) 0.0276(4) 0.0346(4) -0.0060(3) 0.0024(3) 0.0100(3)
F2 F1- 0.0402(5) 0.0131(3) 0.0219(4) 0.0025(3) -0.0027(3) -0.0032(3)
F3 F1- 0.0372(5) 0.0182(3) 0.0140(3) -0.0010(3) -0.0069(3) 0.0021(3)
F4 F1- 0.0132(5) 0.0717(10) 0.0157(5) 0.000 -0.0015(4) 0.000
F5 F1- 0.0461(5) 0.0281(4) 0.0162(4) 0.0119(4) -0.0039(3) -0.0077(3)
#End of data_172428-ICSD


