data_407226-ICSD
#?2014 by Fachinformationszentrum Karlsruhe, and the U.S. Secretary of 
#Commerce on behalf of the United States.  All rights reserved.
_database_code_ICSD                407226
_audit_creation_date               1998/06/26
_chemical_name_systematic          'Potassium Gadolinium Carbonate'
_chemical_formula_structural       'K Gd (C O3)2'
_chemical_formula_sum              'C2 Gd1 K1 O6'
_publ_section_title
;
Kalium-Lanthanoid-Carbonate, K M (C O3)2 (M= Nd, Gd, Dy, Ho, Yb)
;
loop_
_citation_id
_citation_journal_abbrev
_citation_year
_citation_journal_volume
_citation_page_first
_citation_page_last
_citation_journal_id_ASTM
primary 'Zeitschrift fuer Anorganische und Allgemeine Chemie (1950) (DE)'
 1997 623 1753 1758 ZAACAB
_publ_author_name
;
Kutlu, I.;Kalz, H.J.;Wartchow, R.;Ehrhardt, H.;Seidel, H.;Meyer, G.
;
_cell_length_a                     8.575(2)
_cell_length_b                     9.573(2)
_cell_length_c                     6.9896(15)
_cell_angle_alpha                  90.
_cell_angle_beta                   111.19(2)
_cell_angle_gamma                  90.
_cell_volume                       534.97
_cell_formula_units_Z              4
_symmetry_space_group_name_H-M     'C 1 2/c 1'
_symmetry_Int_Tables_number        15
_refine_ls_R_factor_all            .0387
loop_
_symmetry_equiv_pos_site_id
_symmetry_equiv_pos_as_xyz
  1	'x, -y, z+.5'
  2	'-x, -y, -z'
  3	'-x, y, -z+.5'
  4	'x, y, z'
  5	'x+.5, -y+.5, z+.5'
  6	'-x+.5, -y+.5, -z'
  7	'-x+.5, y+.5, -z+.5'
  8	'x+.5, y+.5, z'
loop_
_atom_type_symbol
_atom_type_oxidation_number
C4+	4
Gd3+	3
K1+	1
O2-	-2
loop_
_atom_site_label
_atom_site_type_symbol
_atom_site_symmetry_multiplicity
_atom_site_Wyckoff_symbol
_atom_site_fract_x
_atom_site_fract_y
_atom_site_fract_z
_atom_site_occupancy
_atom_site_attached_hydrogens
K1 K1+ 4 e 0.5 0.6211(3) 0.25 1. 0 
Gd1 Gd3+ 4 e 0 0.59863(5) 0.25 1. 0 
C1 C4+ 8 f 0.2346(10) 0.3800(9) 0.2589(12) 1. 0 
O1 O2- 8 f 0.2691(7) 0.4814(6) 0.3843(8) 1. 0 
O2 O2- 8 f 0.0861(8) 0.3813(6) 0.1078(9) 1. 0 
O3 O2- 8 f 0.3284(9) 0.2755(7) 0.2818(10) 1. 0 

loop_
_atom_site_aniso_label
_atom_site_aniso_type_symbol
_atom_site_aniso_U_11
_atom_site_aniso_U_22
_atom_site_aniso_U_33
_atom_site_aniso_U_12
_atom_site_aniso_U_13
_atom_site_aniso_U_23
K1 K1+ 0.0185(13) 0.0223(13) 0.0177(13) 0 0.0031(11) 0
Gd1 Gd3+ 0.0109(3) 0.0105(3) 0.0054(3) 0 0.0017(2) 0
C1 C4+ 0.006(3) 0.017(4) 0.012(4) 0.008(3) 0.004(3) 0.000(3)
O1 O2- 0.018(3) 0.016(3) 0.017(3) 0.002(2) 0.003(2) -.004(2)
O2 O2- 0.015(3) 0.020(3) 0.007(3) -.003(2) 0.001(2) 0.002(2)
O3 O2- 0.032(3) 0.028(4) 0.025(3) 0.012(3) 0.002(3) -.004(3)
#End of data_407226-ICSD


