data_261322-ICSD
#?2014 by Fachinformationszentrum Karlsruhe, and the U.S. Secretary of 
#Commerce on behalf of the United States.  All rights reserved.
_database_code_ICSD                261322
_audit_creation_date               2011/08/01
_chemical_name_systematic          'Silver(I) Polyphosphate(V)'
_chemical_formula_structural       'Ag (P O3)'
_chemical_formula_sum              'Ag1 O3 P1'
_publ_section_title                'Redetermination of Ag P O3'
loop_
_citation_id
_citation_journal_abbrev
_citation_year
_citation_journal_volume
_citation_journal_issue
_citation_page_first
_citation_page_last
_citation_journal_id_ASTM
primary 'Acta Crystallographica, Section E. Structure Reports Online'
 2011 67 3 i22 i22 ACSEBH
_publ_author_name
;
Terebilenko, K. V.;Zatovsky, I.V.;Ogorodnyk, I.V.;Baumer, 
V.N.;Slobodyanik, N.S.
;
_cell_length_a                     11.9335(3)
_cell_length_b                     6.06670(10)
_cell_length_c                     7.3278(2)
_cell_angle_alpha                  90
_cell_angle_beta                   93.491(2)
_cell_angle_gamma                  90
_cell_volume                       529.53
_cell_formula_units_Z              8
_symmetry_space_group_name_H-M     'P 1 21/n 1'
_symmetry_Int_Tables_number        14
_refine_ls_R_factor_all            .0238
loop_
_symmetry_equiv_pos_site_id
_symmetry_equiv_pos_as_xyz
  1	'-x+.5, y+.5, -z+.5'
  2	'-x, -y, -z'
  3	'x+.5, -y+.5, z+.5'
  4	'x, y, z'
loop_
_atom_type_symbol
_atom_type_oxidation_number
Ag1+	1
O2-	-2
P5+	5
loop_
_atom_site_label
_atom_site_type_symbol
_atom_site_symmetry_multiplicity
_atom_site_Wyckoff_symbol
_atom_site_fract_x
_atom_site_fract_y
_atom_site_fract_z
_atom_site_occupancy
_atom_site_attached_hydrogens
_atom_site_U_iso_or_equiv
Ag1 Ag1+ 4 e 0.127313(18) 0.33468(3) 0.61230(3) 1 0 0.02461(6) 
Ag2 Ag1+ 4 e 0.03023(2) 0.89757(4) 0.77035(3) 1 0 0.02748(6) 
P1 P5+ 4 e 0.22766(5) 0.81768(10) 0.48624(7) 1 0 0.01372(10) 
P2 P5+ 4 e 0.11152(5) 0.61417(10) 0.18002(8) 1 0 0.01331(10) 
O1 O2- 4 e 0.25346(18) 0.6554(3) 0.6355(3) 1 0 0.0241(4) 
O2 O2- 4 e 0.22388(14) 0.6980(3) 0.2909(2) 1 0 0.0179(3) 
O3 O2- 4 e 0.12509(15) 0.9578(3) 0.4956(3) 1 0 0.0218(3) 
O4 O2- 4 e 0.16402(14) 0.4679(3) 0.0265(2) 1 0 0.0169(3) 
O5 O2- 4 e 0.05294(17) 0.7997(3) 0.0843(3) 1 0 0.0234(3) 
O6 O2- 4 e 0.04724(16) 0.4744(3) 0.3047(3) 1 0 0.0220(3) 

loop_
_atom_site_aniso_label
_atom_site_aniso_type_symbol
_atom_site_aniso_U_11
_atom_site_aniso_U_22
_atom_site_aniso_U_33
_atom_site_aniso_U_12
_atom_site_aniso_U_13
_atom_site_aniso_U_23
Ag1 Ag1+ 0.02707(10) 0.02043(10) 0.02611(10) 0.00056(7) -0.00023(7) 
0.00252(7)
Ag2 Ag1+ 0.03883(12) 0.02340(11) 0.02121(9) 0.00423(8) 0.01011(8) 
0.00068(7)
P1 P5+ 0.0138(2) 0.0153(2) 0.0121(2) -0.00206(17) 0.00169(16) 0.00000(17)
P2 P5+ 0.0124(2) 0.0141(2) 0.0134(2) 0.00133(17) 0.00096(16) -0.00069(17)
O1 O2- 0.0312(9) 0.0223(9) 0.0183(7) -0.0081(7) -0.0021(7) 0.0064(6)
O2 O2- 0.0155(6) 0.0225(8) 0.0157(6) -0.0010(6) 0.0008(5) -0.0059(6)
O3 O2- 0.0169(7) 0.0268(9) 0.0220(8) 0.0031(6) 0.0041(6) -0.0047(7)
O4 O2- 0.0161(6) 0.0200(8) 0.0145(6) 0.0058(6) 0.0000(5) -0.0042(5)
O5 O2- 0.0278(9) 0.0208(8) 0.0211(8) 0.0108(7) -0.0020(6) 0.0000(6)
O6 O2- 0.0218(8) 0.0243(9) 0.0204(7) -0.0050(7) 0.0061(6) 0.0000(7)
#End of data_261322-ICSD


