data_247496-ICSD
#?2014 by Fachinformationszentrum Karlsruhe, and the U.S. Secretary of 
#Commerce on behalf of the United States.  All rights reserved.
_database_code_ICSD                247496
_audit_creation_date               2011/02/01
_chemical_name_systematic          'Lithium Cobalt(II) Phosphate(V)'
_chemical_formula_structural       'Li Co (P O4)'
_chemical_formula_sum              'Co1 Li1 O4 P1'
_publ_section_title
;
Ordered olivine-type lithium-cobalt and lithium-nickel phosphates 
prepared by a new precursor method
;
loop_
_citation_id
_citation_journal_abbrev
_citation_year
_citation_journal_volume
_citation_journal_issue
_citation_page_first
_citation_page_last
_citation_journal_id_ASTM
primary 'European Journal of Inorganic Chemistry  (online)'
 2010 2010 26 4091 4099 EJICFO
_publ_author_name
;
Koleva, V.;Zhecheva, E.;Stoyanova, R.
;
_cell_length_a                     10.2045(2)
_cell_length_b                     5.9213(1)
_cell_length_c                     4.7002(1)
_cell_angle_alpha                  90.
_cell_angle_beta                   90.
_cell_angle_gamma                  90.
_cell_volume                       284
_cell_formula_units_Z              4
_symmetry_space_group_name_H-M     'P n m a'
_symmetry_Int_Tables_number        62
_refine_ls_R_factor_all            .0376
loop_
_symmetry_equiv_pos_site_id
_symmetry_equiv_pos_as_xyz
  1	'x+.5, y, -z+.5'
  2	'x, -y+.5, z'
  3	'-x+.5, y+.5, z+.5'
  4	'-x, -y, -z'
  5	'-x+.5, -y, z+.5'
  6	'-x, y+.5, -z'
  7	'x+.5, -y+.5, -z+.5'
  8	'x, y, z'
loop_
_atom_type_symbol
_atom_type_oxidation_number
Co2+	2
Li1+	1
O2-	-2
P5+	5
loop_
_atom_site_label
_atom_site_type_symbol
_atom_site_symmetry_multiplicity
_atom_site_Wyckoff_symbol
_atom_site_fract_x
_atom_site_fract_y
_atom_site_fract_z
_atom_site_occupancy
_atom_site_attached_hydrogens
_atom_site_B_iso_or_equiv
Li1 Li1+ 4 a 0 0 0 1. 0 1.2 
Co1 Co2+ 4 c 0.2787(1) 0.25 0.9789(4) 1. 0 1.3 
P1 P5+ 4 c 0.0951(3) 0.25 0.4186(6) 1. 0 1.1 
O1 O2- 4 c 0.0958(6) 0.25 0.745(1) 1. 0 0.9 
O2 O2- 4 c 0.4561(8) 0.25 0.2060(9) 1. 0 0.9 
O3 O2- 8 d 0.1670(5) 0.0456(6) 0.2848(7) 1. 0 0.9 

#End of data_247496-ICSD


