data_14007-ICSD
#?2014 by Fachinformationszentrum Karlsruhe, and the U.S. Secretary of 
#Commerce on behalf of the United States.  All rights reserved.
_database_code_ICSD                14007
_audit_creation_date               1980/01/01
_audit_update_record               2011/02/01
_chemical_name_systematic          'Sodium Amide'
_chemical_formula_structural       'Na (N H2)'
_chemical_formula_sum              'H2 N1 Na1'
_publ_section_title
;
Neutronenbeugung am Natriumdeuteroamid Na N D2
;
loop_
_citation_id
_citation_journal_abbrev
_citation_year
_citation_journal_volume
_citation_page_first
_citation_page_last
_citation_journal_id_ASTM
primary Atomkernenergie 1975 26 87 90 ATKEAR
_publ_author_name                  'Nagib, M.;Kistrup, H.;Jacobs, H.'
_cell_length_a                     8.949(6)
_cell_length_b                     10.456(5)
_cell_length_c                     8.061(4)
_cell_angle_alpha                  90.
_cell_angle_beta                   90.
_cell_angle_gamma                  90.
_cell_volume                       754.27
_cell_formula_units_Z              16
_symmetry_space_group_name_H-M     'F d d d S'
_symmetry_Int_Tables_number        70
_refine_ls_R_factor_all            .07
loop_
_symmetry_equiv_pos_site_id
_symmetry_equiv_pos_as_xyz
  1	'x+.25, y+.25, -z+.25'
  2	'-x+.25, y+.25, z+.25'
  3	'-x, -y, z'
  4	'x, -y, -z'
  5	'x+.25, -y+.25, z+.25'
  6	'-x+.25, -y+.25, -z+.25'
  7	'-x, y, -z'
  8	'x, y, z'
  9	'x+.25, y+.75, -z+.75'
 10	'x+.75, y+.25, -z+.75'
 11	'x+.75, y+.75, -z+.25'
 12	'-x+.25, y+.75, z+.75'
 13	'-x+.75, y+.25, z+.75'
 14	'-x+.75, y+.75, z+.25'
 15	'-x, -y+.5, z+.5'
 16	'-x+.5, -y, z+.5'
 17	'-x+.5, -y+.5, z'
 18	'x, -y+.5, -z+.5'
 19	'x+.5, -y, -z+.5'
 20	'x+.5, -y+.5, -z'
 21	'x+.25, -y+.75, z+.75'
 22	'x+.75, -y+.25, z+.75'
 23	'x+.75, -y+.75, z+.25'
 24	'-x+.25, -y+.75, -z+.75'
 25	'-x+.75, -y+.25, -z+.75'
 26	'-x+.75, -y+.75, -z+.25'
 27	'-x, y+.5, -z+.5'
 28	'-x+.5, y, -z+.5'
 29	'-x+.5, y+.5, -z'
 30	'x, y+.5, z+.5'
 31	'x+.5, y, z+.5'
 32	'x+.5, y+.5, z'
loop_
_atom_type_symbol
_atom_type_oxidation_number
H1+	1
N3-	-3
Na1+	1
loop_
_atom_site_label
_atom_site_type_symbol
_atom_site_symmetry_multiplicity
_atom_site_Wyckoff_symbol
_atom_site_fract_x
_atom_site_fract_y
_atom_site_fract_z
_atom_site_occupancy
_atom_site_attached_hydrogens
_atom_site_B_iso_or_equiv
Na1 Na1+ 16 f 0 0.1452(2) 0 1. 0 0 
N1 N3- 16 g 0 0 0.2365(2) 1. 0 0 
H1 H1+ 32 h 0.063(5) 0.903(4) 0.305(3) 1. 0 4.4 

loop_
_atom_site_aniso_label
_atom_site_aniso_type_symbol
_atom_site_aniso_U_11
_atom_site_aniso_U_22
_atom_site_aniso_U_33
_atom_site_aniso_U_12
_atom_site_aniso_U_13
_atom_site_aniso_U_23
Na1 Na1+ 0.0231(4) 0.0039(11) 0.0369(3) 0 -.0099(4) 0
N1 N3- 0.0280(8) 0.0055(22) 0.0300(7) -.0066(9) 0 0
#End of data_14007-ICSD


