data_86310-ICSD
#?2014 by Fachinformationszentrum Karlsruhe, and the U.S. Secretary of 
#Commerce on behalf of the United States.  All rights reserved.
_database_code_ICSD                86310
_audit_creation_date               1999/11/30
_chemical_name_systematic          'Potassium Gallium Diphosphate(V)'
_chemical_formula_structural       'K Ga (P2 O7)'
_chemical_formula_sum              'Ga1 K1 O7 P2'
_publ_section_title
;
Synthesis and structure of double pyrophosphates K Fe P2 O7 and K Ga 
P2 O7
;
loop_
_citation_id
_citation_journal_abbrev
_citation_year
_citation_journal_volume
_citation_journal_issue
_citation_page_first
_citation_page_last
_citation_journal_id_ASTM
primary 'Zhurnal Strukturnoi Khimii (Issue-No. from 1981)'
 1989 30 1 173 175 ZSTKAI
_publ_author_name                  'Genkina, E.A.;Timofeeva, V.A.'
_cell_length_a                     7.3495(4)
_cell_length_b                     9.8657(4)
_cell_length_c                     8.1820(4)
_cell_angle_alpha                  90.
_cell_angle_beta                   106.6(1)
_cell_angle_gamma                  90.
_cell_volume                       568.53
_cell_formula_units_Z              4
_symmetry_space_group_name_H-M     'P 1 21/c 1'
_symmetry_Int_Tables_number        14
_refine_ls_R_factor_all            .048
loop_
_symmetry_equiv_pos_site_id
_symmetry_equiv_pos_as_xyz
  1	'x, -y+.5, z+.5'
  2	'-x, -y, -z'
  3	'-x, y+.5, -z+.5'
  4	'x, y, z'
loop_
_atom_type_symbol
_atom_type_oxidation_number
Ga3+	3
K1+	1
O2-	-2
P5+	5
loop_
_atom_site_label
_atom_site_type_symbol
_atom_site_symmetry_multiplicity
_atom_site_Wyckoff_symbol
_atom_site_fract_x
_atom_site_fract_y
_atom_site_fract_z
_atom_site_occupancy
_atom_site_attached_hydrogens
_atom_site_B_iso_or_equiv
K1 K1+ 4 e 0.1800(1) 0.6824(1) 0.0522(1) 1. 0 1.06(3) 
Ga1 Ga3+ 4 e 0.2368 0.3998 0.7603 1. 0 0.60(2) 
P1 P5+ 4 e 0.4400(1) 0.3646(1) 0.1902(1) 1. 0 0.46(2) 
P2 P5+ 4 e 0.1316(1) 0.0957(1) 0.8310(1) 1. 0 0.44(2) 
O1 O2- 4 e 0.3215(5) 0.3944(3) 0.0119(4) 1. 0 1.30(7) 
O2 O2- 4 e 0.6399(4) 0.4226(3) 0.2332(4) 1. 0 1.00(6) 
O3 O2- 4 e 0.4509(4) 0.2156(3) 0.2426(4) 1. 0 0.99(6) 
O4 O2- 4 e 0.1444(5) 0.4100(4) 0.5155(4) 1. 0 1.31(7) 
O5 O2- 4 e 0.9953(4) 0.5063(3) 0.2226(4) 1. 0 0.81(6) 
O6 O2- 4 e 0.0835(4) 0.2636(3) 0.2541(4) 1. 0 0.93(6) 
O7 O2- 4 e 0.3378(4) 0.0559(3) 0.8123(4) 1. 0 0.82(6) 

#End of data_86310-ICSD


