data_246797-ICSD
#?2014 by Fachinformationszentrum Karlsruhe, and the U.S. Secretary of 
#Commerce on behalf of the United States.  All rights reserved.
_database_code_ICSD                246797
_audit_creation_date               2010/02/01
_chemical_name_systematic          'Trisodium Hydrogenbis(sulfate(VI))'
_chemical_formula_structural       'Na3 (H (S O4)2)'
_chemical_formula_sum              'H1 Na3 O8 S2'
_publ_section_title
;
A very short, and asymmetrical, hydrogen bond in the structure of Na3 
H (S O4)2 and S-OH vs O-H...O correlation
;
loop_
_citation_id
_citation_journal_abbrev
_citation_year
_citation_journal_volume
_citation_page_first
_citation_page_last
_citation_journal_id_ASTM
primary 'Acta Crystallographica B (24,1968-38,1982)' 1979 35 525 529 ACBCAR
_publ_author_name                  'Catti, M.;Ferraris, G.;Ivaldi, G.'
_cell_length_a                     8.648(1)
_cell_length_b                     9.648(1)
_cell_length_c                     9.143(1)
_cell_angle_alpha                  90
_cell_angle_beta                   108.77(1)
_cell_angle_gamma                  90
_cell_volume                       722.28
_cell_formula_units_Z              4
_symmetry_space_group_name_H-M     'P 1 21/c 1'
_symmetry_Int_Tables_number        14
_refine_ls_R_factor_all            .034
loop_
_symmetry_equiv_pos_site_id
_symmetry_equiv_pos_as_xyz
  1	'x, -y+.5, z+.5'
  2	'-x, -y, -z'
  3	'-x, y+.5, -z+.5'
  4	'x, y, z'
loop_
_atom_type_symbol
_atom_type_oxidation_number
H1+	1
Na1+	1
O2-	-2
S6+	6
loop_
_atom_site_label
_atom_site_type_symbol
_atom_site_symmetry_multiplicity
_atom_site_Wyckoff_symbol
_atom_site_fract_x
_atom_site_fract_y
_atom_site_fract_z
_atom_site_occupancy
_atom_site_attached_hydrogens
S1 S6+ 4 e 0.13929(8) 0.30906(7) 0.85771(7) 1. 0 
S2 S6+ 4 e 0.63436(8) 0.31874(7) 0.40524(8) 1. 0 
Na1 Na1+ 2 a 0 0 0 1. 0 
Na2 Na1+ 2 d 0.5 0 0.5 1. 0 
Na3 Na1+ 4 e 0.7453(2) -0.0060(1) 0.2774(1) 1. 0 
Na4 Na1+ 4 e 0.3869(1) 0.1559(1) 0.1279(1) 1. 0 
O1 O2- 4 e 0.1547(3) 0.1578(2) 0.8752(2) 1. 0 
O2 O2- 4 e 0.2554(3) 0.3765(2) 0.9916(2) 1. 0 
O3 O2- 4 e -0.0324(3) 0.3496(2) 0.8547(3) 1. 0 
O4 O2- 4 e 0.1596(3) 0.3568(3) 0.7146(3) 1. 0 
O5 O2- 4 e 0.6162(3) 0.3648(3) 0.5503(3) 1. 0 
O6 O2- 4 e 0.8095(3) 0.3375(2) 0.4152(3) 1. 0 
O7 O2- 4 e 0.5926(3) 0.1718(2) 0.3752(2) 1. 0 
O8 O2- 4 e 0.5334(3) 0.4044(2) 0.2778(3) 1. 0 
H1 H1+ 4 e -0.102(7) 0.270(6) 0.877(6) 1. 0 

#End of data_246797-ICSD


