data_180507-ICSD
#?2014 by Fachinformationszentrum Karlsruhe, and the U.S. Secretary of 
#Commerce on behalf of the United States.  All rights reserved.
_database_code_ICSD                180507
_audit_creation_date               2012/02/01
_audit_update_record               2013/02/01
_chemical_name_systematic          'Dilithium Tetraborate'
_chemical_formula_structural       'Li2 (B4 O7)'
_chemical_formula_sum              'B4 Li2 O7'
_publ_section_title
;
Low-temperature crystal structure, specific heat and dielectric 
properties of lithium tetraborate Li2 (B4 O7)
;
loop_
_citation_id
_citation_journal_abbrev
_citation_year
_citation_journal_volume
_citation_page_first
_citation_page_last
_citation_journal_id_ASTM
primary 'Journal of Applied Physics' 2010 108 093524-1 093524-9 JAPIAU
_publ_author_name
;
Senyshin, A.;Schwarz, B.;Lorenz, T.;Adamiv, V.T.;Burak, Ya.V.;Banys, 
J.;Grigalaitis, R.;Vasylechko, L.;Ehrenberg, H.;Fuess, H.
;
_cell_length_a                     9.45444(6)
_cell_length_b                     9.45444(6)
_cell_length_c                     10.32360(7)
_cell_angle_alpha                  90.
_cell_angle_beta                   90.
_cell_angle_gamma                  90.
_cell_volume                       922.79
_cell_formula_units_Z              8
_symmetry_space_group_name_H-M     'I 41 c d'
_symmetry_Int_Tables_number        110
_refine_ls_R_factor_all            .0201
loop_
_symmetry_equiv_pos_site_id
_symmetry_equiv_pos_as_xyz
  1	'-y, -x+.5, z+.75'
  2	'-y, x+.5, z+.25'
  3	'x, -y, z+.5'
  4	'-x, -y, z'
  5	'y, x+.5, z+.75'
  6	'y, -x+.5, z+.25'
  7	'-x, y, z+.5'
  8	'x, y, z'
  9	'-y+.5, -x, z+.25'
 10	'-y+.5, x, z+.75'
 11	'x+.5, -y+.5, z'
 12	'-x+.5, -y+.5, z+.5'
 13	'y+.5, x, z+.25'
 14	'y+.5, -x, z+.75'
 15	'-x+.5, y+.5, z'
 16	'x+.5, y+.5, z+.5'
loop_
_atom_type_symbol
_atom_type_oxidation_number
B3+	3
Li1+	1
O2-	-2
loop_
_atom_site_label
_atom_site_type_symbol
_atom_site_symmetry_multiplicity
_atom_site_Wyckoff_symbol
_atom_site_fract_x
_atom_site_fract_y
_atom_site_fract_z
_atom_site_occupancy
_atom_site_attached_hydrogens
_atom_site_B_iso_or_equiv
Li1 Li1+ 16 b 0.1523(4) 0.1647(4) 0.8476(4) 1. 0 0.35(6) 
B1 B3+ 16 b 0.1687(1) 0.0870(1) 0.1993(2) 1. 0 0.18(2) 
B2 B3+ 16 b 0.9461(1) 0.1126(1) 0.0812(2) 1. 0 0.10(2) 
O1 O2- 16 b 0.2829(1) 0.1392(1) 0.2651(2) 1. 0 0.10(2) 
O2 O2- 16 b 0.0673(1) 0.1777(1) 0.1565(2) 1. 0 0.24(2) 
O3 O2- 16 b 0.1570(1) 0.9431(1) 0.1804(2) 1. 0 0.20(2) 
O4 O2- 8 a 0 0 0 1. 0 0.10(3) 

#End of data_180507-ICSD


