data_412383-ICSD
#?2014 by Fachinformationszentrum Karlsruhe, and the U.S. Secretary of 
#Commerce on behalf of the United States.  All rights reserved.
_database_code_ICSD                412383
_audit_creation_date               2003/04/01
_chemical_name_systematic
;
Dicalcium Tetrachromium(II) Tetrakis(phosphate(V))
;
_chemical_formula_structural       'Ca2 Cr4 (P O4)4'
_chemical_formula_sum              'Ca2 Cr4 O16 P4'
_publ_section_title
;
Beitraege zum thermischen Verhalten und zur Kristallchemie von 
Wasserfreien Phosphaten XXXII. Neue Orthophosphate des zweiwertigen 
Chroms - Mg3 Cr3 (P O4)4, Mg3.75 Cr2.25 (P O4)4, Ca3 Cr3 (P O4)4 und 
Ca2.00 Cr4.00 (P O4)4
;
loop_
_citation_id
_citation_journal_abbrev
_citation_year
_citation_journal_volume
_citation_page_first
_citation_page_last
_citation_journal_id_ASTM
primary 'Zeitschrift fuer Anorganische und Allgemeine Chemie (1950) (DE)'
 2002 628 1663 1672 ZAACAB
_publ_author_name                  'Maass, K.;Glaum, R.;Gruehn, R.'
_cell_length_a                     17.511(2)
_cell_length_b                     4.9933(6)
_cell_length_c                     16.825(2)
_cell_angle_alpha                  90.
_cell_angle_beta                   117.951(13)
_cell_angle_gamma                  90.
_cell_volume                       1299.53
_cell_formula_units_Z              4
_symmetry_space_group_name_H-M     'C 1 2/c 1'
_symmetry_Int_Tables_number        15
_refine_ls_R_factor_all            .034
loop_
_symmetry_equiv_pos_site_id
_symmetry_equiv_pos_as_xyz
  1	'x, -y, z+.5'
  2	'-x, -y, -z'
  3	'-x, y, -z+.5'
  4	'x, y, z'
  5	'x+.5, -y+.5, z+.5'
  6	'-x+.5, -y+.5, -z'
  7	'-x+.5, y+.5, -z+.5'
  8	'x+.5, y+.5, z'
loop_
_atom_type_symbol
_atom_type_oxidation_number
Ca2+	2
Cr2+	2
O2-	-2
P5+	5
loop_
_atom_site_label
_atom_site_type_symbol
_atom_site_symmetry_multiplicity
_atom_site_Wyckoff_symbol
_atom_site_fract_x
_atom_site_fract_y
_atom_site_fract_z
_atom_site_occupancy
_atom_site_attached_hydrogens
_atom_site_U_iso_or_equiv
Cr1 Cr2+ 4 e 0.5 0.1998(2) 0.75 1. 0 0.0201(3) 
Cr2 Cr2+ 4 c 0.25 0.25 0 1. 0 0.0153(2) 
Cr3 Cr2+ 8 f 0.40170(4) 0.24548(12) 0.53486(5) 1. 0 0.0147(2) 
Ca1 Ca2+ 8 f 0.34756(5) 0.18776(17) 0.86104(6) 1. 0 0.0170(2) 
P1 P5+ 8 f 0.28162(6) 0.23763(17) 0.63049(7) 1. 0 0.0103(2) 
P2 P5+ 8 f 0.51641(6) 0.7125(2) 0.60854(7) 1. 0 0.0151(2) 
O1 O2- 8 f 0.37251(19) 0.2601(6) 0.6384(2) 1. 0 0.0191(6) 
O2 O2- 8 f 0.27846(18) 0.3296(5) 0.71354(19) 1. 0 0.0152(6) 
O3 O2- 8 f 0.22025(17) 0.4230(5) 0.55120(19) 1. 0 0.0139(5) 
O4 O2- 8 f 0.24734(18) -.0487(5) 0.60305(19) 1. 0 0.0140(5) 
O5 O2- 8 f 0.5201(2) 0.4120(7) 0.6303(3) 1. 0 0.0378(9) 
O6 O2- 8 f 0.4563(3) -.1062(8) 0.8117(3) 1. 0 0.0391(9) 
O7 O2- 8 f 0.4175(2) 0.2422(9) 0.4250(3) 1. 0 0.0387(10) 
O8 O2- 8 f 0.4247(2) -.2272(9) 0.5347(3) 1. 0 0.0383(9) 

loop_
_atom_site_aniso_label
_atom_site_aniso_type_symbol
_atom_site_aniso_U_11
_atom_site_aniso_U_22
_atom_site_aniso_U_33
_atom_site_aniso_U_12
_atom_site_aniso_U_13
_atom_site_aniso_U_23
Cr1 Cr2+ 0.0154(4) 0.0275(5) 0.0155(5) 0 0.0057(4) 0
Cr2 Cr2+ 0.0311(5) 0.0077(4) 0.0131(5) 0.0026(3) 0.0153(4) 0.0011(3)
Cr3 Cr2+ 0.0132(3) 0.0174(3) 0.0142(4) -0.0038(2) 0.0071(3) -0.0018(2)
Ca1 Ca2+ 0.0163(4) 0.0229(4) 0.0140(4) 0.0025(3) 0.0091(3) 0.0041(3)
P1 P5+ 0.0139(4) 0.0091(4) 0.0099(5) -0.0017(3) 0.0072(4) -0.0013(3)
P2 P5+ 0.0124(4) 0.0163(5) 0.0178(6) -0.0036(3) 0.0080(4) -0.0037(4)
O1 O2- 0.0192(14) 0.0236(14) 0.0194(17) -0.0031(11) 0.0132(13) -0.0055(11)
O2 O2- 0.0203(13) 0.0169(13) 0.0102(14) -0.0004(10) 0.0087(12) -0.002(1)
O3 O2- 0.0191(12) 0.0101(11) 0.0142(15) -0.0008(10) 0.0093(11) 0.0018(9)
O4 O2- 0.0222(13) 0.0101(11) 0.0133(15) -0.0037(10) 0.0113(12) -0.0017(9)
O5 O2- 0.0254(16) 0.0188(15) 0.069(3) -0.0035(13) 0.0217(18) 0.0005(16)
O6 O2- 0.049(2) 0.039(2) 0.024(2) 0.0009(17) 0.0118(18) 0.0135(15)
O7 O2- 0.0223(16) 0.077(3) 0.023(2) -0.0210(17) 0.0151(15) -0.0089(17)
O8 O2- 0.0181(15) 0.059(3) 0.030(2) 0.0017(15) 0.0050(15) -0.0065(17)
#End of data_412383-ICSD


