data_20477-ICSD
#?2014 by Fachinformationszentrum Karlsruhe, and the U.S. Secretary of 
#Commerce on behalf of the United States.  All rights reserved.
_database_code_ICSD                20477
_audit_creation_date               1980/01/01
_audit_update_record               1984/11/02
_chemical_name_systematic          'Disodium Dizinc Disilicate - B'
_chemical_formula_structural       'Na2 Zn2 (Si2 O7)'
_chemical_formula_sum              'Na2 O7 Si2 Zn2'
_publ_section_title
;
The crystal structure of synthetic Na, Zn-diorthosilicate Na2 Zn2 
(Si2 O7)
;
loop_
_citation_id
_citation_journal_abbrev
_citation_year
_citation_journal_volume
_citation_page_first
_citation_page_last
_citation_journal_id_ASTM
primary 'Doklady Akademii Nauk SSSR' 1967 177 92 95 DANKAS
_publ_author_name
;
Amirov, S.T.;Nikitin, A.V.;Ilyukhin, V.V.;Belov, N.V.
;
_cell_length_a                     5.17
_cell_length_b                     9.41
_cell_length_c                     13.73
_cell_angle_alpha                  90.
_cell_angle_beta                   90.
_cell_angle_gamma                  90.
_cell_volume                       667.96
_cell_formula_units_Z              4
_symmetry_space_group_name_H-M     'C 2 c m'
_symmetry_Int_Tables_number        40
_refine_ls_R_factor_all            .08
loop_
_symmetry_equiv_pos_site_id
_symmetry_equiv_pos_as_xyz
  1	'x, -y, z+.5'
  2	'x, y, -z+.5'
  3	'x, -y, -z'
  4	'x, y, z'
  5	'x+.5, -y+.5, z+.5'
  6	'x+.5, y+.5, -z+.5'
  7	'x+.5, -y+.5, -z'
  8	'x+.5, y+.5, z'
loop_
_atom_type_symbol
_atom_type_oxidation_number
Na1+	1
O2-	-2
Si4+	4
Zn2+	2
loop_
_atom_site_label
_atom_site_type_symbol
_atom_site_symmetry_multiplicity
_atom_site_Wyckoff_symbol
_atom_site_fract_x
_atom_site_fract_y
_atom_site_fract_z
_atom_site_occupancy
_atom_site_attached_hydrogens
_atom_site_B_iso_or_equiv
Zn1 Zn2+ 8 c 0.56 0.215 0.078 1. 0 0.3 
Si1 Si4+ 8 c 0.038 0.38 0.14 1. 0 0.2 
Na1 Na1+ 4 a 0 0 0 1. 0 0.9 
Na2 Na1+ 4 b 0.07 0.037 0.25 1. 0 0.9 
O1 O2- 4 b 0.103 0.31 0.25 1. 0 0.4 
O2 O2- 8 c 0.734 0.389 0.128 1. 0 0.7 
O3 O2- 8 c 0.187 0.265 0.064 1. 0 0.8 
O4 O2- 8 c 0.679 0.033 0.128 1. 0 0.4 

#End of data_20477-ICSD


