data_166620-ICSD
#?2014 by Fachinformationszentrum Karlsruhe, and the U.S. Secretary of 
#Commerce on behalf of the United States.  All rights reserved.
_database_code_ICSD                166620
_audit_creation_date               2010/08/01
_audit_update_record               2013/02/01
_chemical_name_systematic          'Calcium Magnesium Diborate'
_chemical_formula_structural       'Ca Mg (B2 O5)'
_chemical_formula_sum              'B2 Ca1 Mg1 O5'
_chemical_name_mineral             Kurchatovite
_publ_section_title
;
Crystal structure of the Ca,Mg - diorthotriborate (pyroborate) 
kurchatovite Ca Mg (B2 O5)
;
loop_
_citation_id
_citation_journal_abbrev
_citation_year
_citation_journal_volume
_citation_journal_issue
_citation_page_first
_citation_page_last
_citation_journal_id_ASTM
primary 'Doklady Akademii Nauk SSSR' 1976 230 4 837 840 DANKAS
_publ_author_name
;
Yakubovich, O.V.;Simonov, M.A.;Belokoneva, E.L.;Egorov Tismenko, 
Yu.K.;Belov, N.V.
;
_cell_length_a                     36.292(8)
_cell_length_b                     5.491(1)
_cell_length_c                     11.120(2)
_cell_angle_alpha                  90.
_cell_angle_beta                   90.
_cell_angle_gamma                  90.
_cell_volume                       2215.99
_cell_formula_units_Z              24
_symmetry_space_group_name_H-M     'P c 21 b'
_symmetry_Int_Tables_number        29
_refine_ls_R_factor_all            .068
loop_
_symmetry_equiv_pos_site_id
_symmetry_equiv_pos_as_xyz
  1	'-x, y, z+.5'
  2	'x, y+.5, -z+.5'
  3	'-x, y+.5, -z'
  4	'x, y, z'
loop_
_atom_type_symbol
_atom_type_oxidation_number
B3+	3
Ca2+	2
Mg2+	2
O2-	-2
loop_
_atom_site_label
_atom_site_type_symbol
_atom_site_symmetry_multiplicity
_atom_site_Wyckoff_symbol
_atom_site_fract_x
_atom_site_fract_y
_atom_site_fract_z
_atom_site_occupancy
_atom_site_attached_hydrogens
_atom_site_B_iso_or_equiv
Ca1 Ca2+ 4 a 0.0523(2) 0.980(2) 0.6207(7) 1. 0 0.97(9) 
Ca2 Ca2+ 4 a 0.1133(2) 0.278(2) 0.1186(8) 1. 0 0.65(9) 
Ca3 Ca2+ 4 a 0.2197(2) 0.212(2) 0.6255(7) 1. 0 0.42(8) 
Ca4 Ca2+ 4 a 0.2787(2) 0.980(2) 0.3719(8) 1. 0 0.83(10) 
Ca5 Ca2+ 4 a 0.3851(2) 0.909(2) 0.8827(7) 1. 0 0.54(8) 
Ca6 Ca2+ 4 a 0.4474(1) 0.232(1) 0.3815(6) 1. 0 0.31(6) 
Mg1 Mg2+ 4 a 0.0046(2) 0 0.3671(9) 1. 0 0.10(12) 
Mg2 Mg2+ 4 a 0.1696(2) 0.233(2) 0.3714(9) 1. 0 0.10(12) 
Mg3 Mg2+ 4 a 0.1607(2) 0.231(2) 0.8695(8) 1. 0 0.14(12) 
Mg4 Mg2+ 4 a 0.3365(2) 0.959(2) 0.1263(9) 1. 0 0.10(12) 
Mg5 Mg2+ 4 a 0.3279(2) 0.954(2) 0.628(1) 1. 0 0.19(13) 
Mg6 Mg2+ 4 a 0.5042(3) 0.187(1) 0.128(1) 1. 0 0.42(14) 
B1 B3+ 4 a 0.4729(7) 0.182(6) 0.885(4) 1. 0 1.18(59) 
B2 B3+ 4 a 0.1920(8) 0.217(6) 0.123(3) 1. 0 0.22(43) 
B3 B3+ 4 a 0.0250(6) 0.000(5) 0.118(3) 1. 0 0.48(45) 
B4 B3+ 4 a 0.3070(7) 0.468(5) 0.630(3) 1. 0 1.27(35) 
B5 B3+ 4 a 0.3583(7) 0.460(7) 0.115(4) 1. 0 1.49(72) 
B6 B3+ 4 a 0.1408(5) 0.245(5) 0.619(3) 1. 0 0.30(30) 
B7 B3+ 4 a 0.4090(8) 0.191(6) 0.133(3) 1. 0 1.48(70) 
B8 B3+ 4 a 0.0780(6) 0.234(5) 0.373(2) 1. 0 0.15(28) 
B9 B3+ 4 a 0.4212(7) 0.446(6) 0.879(3) 1. 0 1.00(48) 
B10 B3+ 4 a 0.2458(5) 0.447(4) 0.387(2) 1. 0 1.49(68) 
B11 B3+ 4 a 0.0870(6) 0.490(4) 0.630(2) 1. 0 0.48(50) 
B12 B3+ 4 a 0.2533(4) 0.252(3) 0.876(1) 1. 0 0.49(40) 
O1 O2- 4 a 0.3848(4) 0.479(3) 0.829(2) 1. 0 0.89(25) 
O2 O2- 4 a 0.2678(4) 0.019(3) 0.868(1) 1. 0 0.33(20) 
O3 O2- 4 a 0.4366(5) 0.152(4) 0.589(2) 1. 0 1.45(35) 
O4 O2- 4 a 0.4471(4) 0.186(3) 0.167(1) 1. 0 0.13(12) 
O5 O2- 4 a 0.2232(5) 0.250(4) 0.417(2) 1. 0 1.25(34) 
O6 O2- 4 a 0.1146(4) 0.239(3) 0.333(1) 1. 0 0.52(20) 
O7 O2- 4 a 0.2715(4) 0.447(3) 0.917(1) 1. 0 0.10(11) 
O8 O2- 4 a 0.2279(4) 0.185(3) 0.122(2) 1. 0 0.67(23) 
O9 O2- 4 a 0.0648(4) 0.981(4) 0.114(2) 1. 0 0.69(26) 
O10 O2- 4 a 0.4346(4) 0.219(4) 0.898(2) 1. 0 0.62(28) 
O11 O2- 4 a 0.4923(5) 0.331(4) 0.807(2) 1. 0 0.47(26) 
O12 O2- 4 a 0.1020(3) 0.269(3) 0.610(1) 1. 0 0.12(19) 
O13 O2- 4 a 0.3928(5) 0.428(4) 0.409(2) 1. 0 1.48(40) 
O14 O2- 4 a 0.0598(4) 0.038(3) 0.409(1) 1. 0 0.29(21) 
O15 O2- 4 a 0.2161(4) 0.263(4) 0.841(2) 1. 0 0.74(26) 
O16 O2- 4 a 0.1042(3) 0.203(2) 0.901(1) 1. 0 0.14(12) 
O17 O2- 4 a 0.3949(5) 0.430(4) 0.102(2) 1. 0 1.49(38) 
O18 O2- 4 a 0.2790(4) 0.425(3) 0.342(2) 1. 0 0.59(24) 
O19 O2- 4 a 0.3284(4) 0.101(3) 0.953(1) 1. 0 0.26(21) 
O20 O2- 4 a 0.0072(5) 0.159(4) 0.049(2) 1. 0 0.76(29) 
O21 O2- 4 a 0.3374(4) 0.113(4) 0.453(2) 1. 0 1.35(31) 
O22 O2- 4 a 0.1742(4) 0.388(4) 0.198(2) 1. 0 0.71(25) 
O23 O2- 4 a 0.0084(5) 0.355(4) 0.301(2) 1. 0 1.05(32) 
O24 O2- 4 a 0.3356(4) 0.310(3) 0.193(2) 1. 0 1.91(30) 
O25 O2- 4 a 0.0493(5) 0.489(4) 0.667(2) 1. 0 1.48(45) 
O26 O2- 4 a 0.3205(4) 0.300(3) 0.698(2) 1. 0 0.49(24) 
O27 O2- 4 a 0.1590(3) 0.377(2) 0.696(1) 1. 0 0.10(10) 
O28 O2- 4 a 0.1574(3) 0.071(3) 0.541(1) 1. 0 0.10(11) 
O29 O2- 4 a 0.4909(5) 0.522(4) 0.541(2) 1. 0 0.68(28) 
O30 O2- 4 a 0.1681(4) 0.075(3) 0.053(2) 1. 0 0.75(28) 

#End of data_166620-ICSD


