data_86465-ICSD
#?2014 by Fachinformationszentrum Karlsruhe, and the U.S. Secretary of 
#Commerce on behalf of the United States.  All rights reserved.
_database_code_ICSD                86465
_audit_creation_date               1999/11/30
_audit_update_record               2003/10/01
_chemical_name_systematic          'Dirubidium Tetrachlorozincate - Ii'
_chemical_formula_structural       'Rb2 (Zn Cl4)'
_chemical_formula_sum              'Cl4 Rb2 Zn1'
_publ_section_title
;
X-ray determination of average structure of Rb2 Zn Cl4 in the 
intermediate phase
;
loop_
_citation_id
_citation_journal_abbrev
_citation_year
_citation_journal_volume
_citation_page_first
_citation_page_last
_citation_journal_id_ASTM
primary 'Kyoto University, Research Reactor Institute: Annual Report'
 1981 14 51 58 KURAAV
2 'Phase Transition' 1992 38 127 220 PHTRDP
_publ_author_name                  'Harada, M.'
_cell_length_a                     7.28
_cell_length_b                     12.73
_cell_length_c                     9.26
_cell_angle_alpha                  90.
_cell_angle_beta                   90.
_cell_angle_gamma                  90.
_cell_volume                       858.16
_cell_formula_units_Z              4
_symmetry_space_group_name_H-M     'P m c n'
_symmetry_Int_Tables_number        62
_refine_ls_R_factor_all            .076
loop_
_symmetry_equiv_pos_site_id
_symmetry_equiv_pos_as_xyz
  1	'x, -y+.5, z+.5'
  2	'-x+.5, y, z'
  3	'x+.5, y+.5, -z+.5'
  4	'-x, -y, -z'
  5	'-x, y+.5, -z+.5'
  6	'x+.5, -y, -z'
  7	'-x+.5, -y+.5, z+.5'
  8	'x, y, z'
loop_
_atom_type_symbol
_atom_type_oxidation_number
Cl1-	-1
Rb1+	1
Zn2+	2
loop_
_atom_site_label
_atom_site_type_symbol
_atom_site_symmetry_multiplicity
_atom_site_Wyckoff_symbol
_atom_site_fract_x
_atom_site_fract_y
_atom_site_fract_z
_atom_site_occupancy
_atom_site_attached_hydrogens
Rb1 Rb1+ 4 c 0.25 0.4053(5) 0.6315(3) 1. 0 
Rb2 Rb1+ 4 c 0.25 0.8203(4) 0.4849 1. 0 
Zn1 Zn2+ 4 c 0.25 0.4217(5) 0.2246(3) 1. 0 
Cl1 Cl1- 4 c 0.25 0.4144(12) -.0172(7) 1. 0 
Cl2 Cl1- 4 c 0.25 0.5897(12) 0.3192(7) 1. 0 
Cl3 Cl1- 8 d -.0001(7) 0.3413(8) 0.3140(6) 1. 0 

#End of data_86465-ICSD


