data_202106-ICSD
#?2014 by Fachinformationszentrum Karlsruhe, and the U.S. Secretary of 
#Commerce on behalf of the United States.  All rights reserved.
_database_code_ICSD                202106
_audit_creation_date               1988/12/19
_chemical_name_systematic
;
Potassium Hydridofluoride (1/2.5/3.5)
;
_chemical_formula_structural       'K F (H F)2.5'
_chemical_formula_sum              'H2.5 F3.5 K1'
_publ_section_title
;
Fluorides and fluoro acids. 12. Complex-anion homology and isomerism 
in the crystal structures of two potassium poly(hydrogen fluorides), 
K F (H F)2.5 and K F (H F)3
;
loop_
_citation_id
_citation_journal_abbrev
_citation_year
_citation_journal_volume
_citation_page_first
_citation_page_last
_citation_journal_id_ASTM
primary 'Journal of the American Chemical Society' 1986 108 6634 6636 JACSAT
_publ_author_name                  'Mootz, D.;Boenigk, D.'
_cell_length_a                     8.315(6)
_cell_length_b                     8.384(5)
_cell_length_c                     10.031(7)
_cell_angle_alpha                  90.
_cell_angle_beta                   101.63(5)
_cell_angle_gamma                  90.
_cell_volume                       684.93
_cell_formula_units_Z              8
_symmetry_space_group_name_H-M     'P 1 21/a 1'
_symmetry_Int_Tables_number        14
_refine_ls_R_factor_all            .035
loop_
_symmetry_equiv_pos_site_id
_symmetry_equiv_pos_as_xyz
  1	'x+.5, -y+.5, z'
  2	'-x, -y, -z'
  3	'-x+.5, y+.5, -z'
  4	'x, y, z'
loop_
_atom_type_symbol
_atom_type_oxidation_number
F1-	-1
H1+	1
K1+	1
loop_
_atom_site_label
_atom_site_type_symbol
_atom_site_symmetry_multiplicity
_atom_site_Wyckoff_symbol
_atom_site_fract_x
_atom_site_fract_y
_atom_site_fract_z
_atom_site_occupancy
_atom_site_attached_hydrogens
_atom_site_B_iso_or_equiv
K1 K1+ 4 e 0.00015(5) 0.24930(4) 0.50050(4) 1. 0 0 
K2 K1+ 4 e 0.63711(5) 0.27382(6) 0.03869(4) 1. 0 0 
F1 F1- 4 e 0.2150(2) 0.8712(2) 0.3530(1) 1. 0 0 
F2 F1- 4 e 0.1555(2) 0.7544(2) 0.1355(1) 1. 0 0 
F3 F1- 4 e 0.2107(2) 0.1477(2) 0.3378(1) 1. 0 0 
F4 F1- 4 e 0.3514(2) 0.5019(2) 0.3511(1) 1. 0 0 
F5 F1- 4 e 0.0776(2) 0.5025(1) 0.3529(1) 1. 0 0 
F6 F1- 4 e -.0782(2) 0.4519(2) 0.1233(1) 1. 0 0 
F7 F1- 4 e 0.3907(2) 0.4499(2) 0.1244(1) 1. 0 0 
H1 H1+ 4 e 0.179(7) 0.803(7) 0.197(6) 1. 0 7.(1) 
H2 H1+ 4 e 0.215(6) 0.034(6) 0.345(5) 1. 0 5.(1) 
H3 H1+ 4 e 0.209(7) 0.499(6) 0.360(5) 1. 0 6.(1) 
H4 H1+ 4 e -.040(7) 0.474(6) 0.210(5) 1. 0 6.(1) 
H5 H1+ 4 e 0.387(5) 0.475(4) 0.192(4) 1. 0 2.7(7) 

loop_
_atom_site_aniso_label
_atom_site_aniso_type_symbol
_atom_site_aniso_B_11
_atom_site_aniso_B_22
_atom_site_aniso_B_33
_atom_site_aniso_B_12
_atom_site_aniso_B_13
_atom_site_aniso_B_23
K1 K1+ 1.29(2) 0.97(2) 1.24(2) -.02(1) 0.25(1) 0.00(1)
K2 K1+ 1.43(2) 2.31(2) 1.54(2) 0.23(1) 0.32(1) 0.32(1)
F1 F1- 1.89(4) 1.64(5) 1.41(4) -.05(3) 0.34(3) -.12(3)
F2 F1- 2.67(6) 2.77(6) 1.30(5) -.03(4) 0.28(4) -.38(4)
F3 F1- 2.05(5) 1.44(5) 2.38(5) -.04(4) 0.51(4) -.24(4)
F4 F1- 1.53(5) 1.64(5) 1.56(5) -.09(3) 0.22(4) -.02(3)
F5 F1- 1.60(5) 1.75(5) 1.59(4) 0.00(3) 0.38(4) -.04(3)
F6 F1- 2.71(6) 3.58(7) 1.69(5) -.76(5) 0.34(4) -.73(5)
F7 F1- 2.49(5) 2.37(6) 1.46(4) 0.30(4) 0.52(4) -.28(4)
#End of data_202106-ICSD


