data_30295-ICSD
#?2014 by Fachinformationszentrum Karlsruhe, and the U.S. Secretary of 
#Commerce on behalf of the United States.  All rights reserved.
_database_code_ICSD                30295
_audit_creation_date               1980/01/01
_audit_update_record               1999/01/19
_chemical_name_systematic
;
Lithium Aluminium Catena-disilicate *
;
_chemical_formula_structural       'Li Al (Si2 O6)'
_chemical_formula_sum              'Al1 Li1 O6 Si2'
_chemical_name_mineral             Spodumene
_publ_section_title
;
The crystal structure of monoclinic pyroxenes
;
loop_
_citation_id
_citation_journal_abbrev
_citation_year
_citation_journal_volume
_citation_page_first
_citation_page_last
_citation_journal_id_ASTM
primary
;
Zeitschrift fuer Kristallographie, Kristallgeometrie, Kristallphysik, 
Kristallchemie (-144,1977)
;
 1931 80 391 401 ZEKGAX
_publ_author_name                  'Warren, B.E.;Biscoe, J.'
_cell_length_a                     9.5
_cell_length_b                     8.3
_cell_length_c                     5.24
_cell_angle_alpha                  90.
_cell_angle_beta                   69.67
_cell_angle_gamma                  90.
_cell_volume                       387.44
_cell_formula_units_Z              4
_symmetry_space_group_name_H-M     'C 1 2/c 1'
_symmetry_Int_Tables_number        15
loop_
_symmetry_equiv_pos_site_id
_symmetry_equiv_pos_as_xyz
  1	'x, -y, z+.5'
  2	'-x, -y, -z'
  3	'-x, y, -z+.5'
  4	'x, y, z'
  5	'x+.5, -y+.5, z+.5'
  6	'-x+.5, -y+.5, -z'
  7	'-x+.5, y+.5, -z+.5'
  8	'x+.5, y+.5, z'
loop_
_atom_type_symbol
_atom_type_oxidation_number
Al3+	3
Li1+	1
O2-	-2
Si4+	4
loop_
_atom_site_label
_atom_site_type_symbol
_atom_site_symmetry_multiplicity
_atom_site_Wyckoff_symbol
_atom_site_fract_x
_atom_site_fract_y
_atom_site_fract_z
_atom_site_occupancy
_atom_site_attached_hydrogens
Li1 Li1+ 4 e 0 -.31 0.25 1. 0 
Al1 Al3+ 4 e 0 0.09 0.25 1. 0 
Si1 Si4+ 8 f 0.21 0.41 0.25 1. 0 
O1 O2- 8 f 0.39 0.41 0.14 1. 0 
O2 O2- 8 f 0.13 0.25 0.32 1. 0 
O3 O2- 8 f 0.14 0.49 0 1. 0 

#End of data_30295-ICSD


