data_173647-ICSD
#?2014 by Fachinformationszentrum Karlsruhe, and the U.S. Secretary of 
#Commerce on behalf of the United States.  All rights reserved.
_database_code_ICSD                173647
_audit_creation_date               2009/02/01
_chemical_name_systematic          'Tetraluminium Decatungstate'
_chemical_formula_structural       'Al4 W10 O32'
_chemical_formula_sum              'Al4 O32 W10'
_publ_section_title
;
A series of aluminum tungsten oxides crystallizing in a new Re O3 - 
related structure type
;
loop_
_citation_id
_citation_journal_abbrev
_citation_year
_citation_journal_volume
_citation_journal_issue
_citation_page_first
_citation_page_last
_citation_journal_id_ASTM
primary 'Journal of Solid State Chemistry' 2008 181 10 2646 2652 JSSCBI
_publ_author_name                  'Krumeich, F.;Patzke, G.R.'
_cell_length_a                     3.75
_cell_length_b                     3.75
_cell_length_c                     39.5
_cell_angle_alpha                  90.
_cell_angle_beta                   90.
_cell_angle_gamma                  90.
_cell_volume                       555.47
_cell_formula_units_Z              1
_symmetry_space_group_name_H-M     'I 4/m m m'
_symmetry_Int_Tables_number        139
loop_
_symmetry_equiv_pos_site_id
_symmetry_equiv_pos_as_xyz
  1	'y, x, -z'
  2	'-y, -x, -z'
  3	'-y, x, -z'
  4	'y, -x, -z'
  5	'-x, y, -z'
  6	'x, -y, -z'
  7	'x, y, -z'
  8	'-x, -y, -z'
  9	'-y, -x, z'
 10	'y, x, z'
 11	'y, -x, z'
 12	'-y, x, z'
 13	'x, -y, z'
 14	'-x, y, z'
 15	'-x, -y, z'
 16	'x, y, z'
 17	'y+.5, x+.5, -z+.5'
 18	'-y+.5, -x+.5, -z+.5'
 19	'-y+.5, x+.5, -z+.5'
 20	'y+.5, -x+.5, -z+.5'
 21	'-x+.5, y+.5, -z+.5'
 22	'x+.5, -y+.5, -z+.5'
 23	'x+.5, y+.5, -z+.5'
 24	'-x+.5, -y+.5, -z+.5'
 25	'-y+.5, -x+.5, z+.5'
 26	'y+.5, x+.5, z+.5'
 27	'y+.5, -x+.5, z+.5'
 28	'-y+.5, x+.5, z+.5'
 29	'x+.5, -y+.5, z+.5'
 30	'-x+.5, y+.5, z+.5'
 31	'-x+.5, -y+.5, z+.5'
 32	'x+.5, y+.5, z+.5'
loop_
_atom_type_symbol
_atom_type_oxidation_number
Al3+	3
O2-	-2
W5.2+	5.2
loop_
_atom_site_label
_atom_site_type_symbol
_atom_site_symmetry_multiplicity
_atom_site_Wyckoff_symbol
_atom_site_fract_x
_atom_site_fract_y
_atom_site_fract_z
_atom_site_occupancy
_atom_site_attached_hydrogens
Al1 Al3+ 4 d 0.5 0 0.25 1. 0 
W1 W5.2+ 2 a 0 0 0 1. 0 
W2 W5.2+ 4 e 0 0 0.1 1. 0 
W3 W5.2+ 4 e 0 0 0.2 1. 0 
O1 O2- 4 e 0 0 0.05 1. 0 
O2 O2- 4 e 0 0 0.15 1. 0 
O3 O2- 4 e 0 0 0.25 1. 0 
O4 O2- 4 c 0 0.5 0 1. 0 
O5 O2- 8 g 0 0.5 0.1 1. 0 
O6 O2- 8 g 0 0.5 0.2 1. 0 

#End of data_173647-ICSD


