data_93847-ICSD
#?2014 by Fachinformationszentrum Karlsruhe, and the U.S. Secretary of 
#Commerce on behalf of the United States.  All rights reserved.
_database_code_ICSD                93847
_audit_creation_date               2003/04/01
_audit_update_record               2014/08/01
_chemical_name_systematic          'Dicalcium Ditantalate - Ht'
_chemical_formula_structural       'Ca2 (Ta2 O7)'
_chemical_formula_sum              'Ca2 O7 Ta2'
_publ_section_title
;
Characterization of new 5M and 7M polytypes of niobia-doped Ca2 Ta2 
O7
;
loop_
_citation_id
_citation_journal_abbrev
_citation_year
_citation_journal_volume
_citation_page_first
_citation_page_last
_citation_journal_id_ASTM
primary 'Journal of Solid State Chemistry' 2001 161 274 287 JSSCBI
2 'Golden Book of Phase Transitions, Wroclaw' 2002 1 1 123 GBOPT5
_publ_author_name
;
Grey, I.E.;Roth, R.S.;Mumme, W.G.;Planes, J.;Bendersky, L.A.;Li, 
C.;Chenavas, J.
;
_cell_length_a                     12.726(1)
_cell_length_b                     7.380(1)
_cell_length_c                     42.358(1)
_cell_angle_alpha                  90
_cell_angle_beta                   95.77(1)
_cell_angle_gamma                  90
_cell_volume                       3958.02
_cell_formula_units_Z              28
_symmetry_space_group_name_H-M     'C 1 2 1'
_symmetry_Int_Tables_number        5
_refine_ls_R_factor_all            .028
loop_
_symmetry_equiv_pos_site_id
_symmetry_equiv_pos_as_xyz
  1	'-x, y, -z'
  2	'x, y, z'
  3	'-x+.5, y+.5, -z'
  4	'x+.5, y+.5, z'
loop_
_atom_type_symbol
_atom_type_oxidation_number
Ca2+	2
O2-	-2
Ta5+	5
loop_
_atom_site_label
_atom_site_type_symbol
_atom_site_symmetry_multiplicity
_atom_site_Wyckoff_symbol
_atom_site_fract_x
_atom_site_fract_y
_atom_site_fract_z
_atom_site_occupancy
_atom_site_attached_hydrogens
_atom_site_U_iso_or_equiv
Ta1 Ta5+ 2 a 0 0.0289(2) 0 1. 0 0.007(1) 
Ca1 Ca2+ 2 a 0 0.490(1) 0 1. 0 0.010(1) 
Ca2 Ca2+ 4 c 0.2531(3) 0.2322(9) -0.0023(1) 1. 0 0.010(1) 
Ta2 Ta5+ 4 c 0.1894(1) -0.0020(2) 0.0717(1) 1. 0 0.006(1) 
Ta3 Ta5+ 4 c 0.1892(1) 0.4975(2) 0.0707(1) 1. 0 0.006(1) 
Ta4 Ta5+ 4 c 0.4394(1) 0.2509(2) 0.0694(1) 1. 0 0.006(1) 
Ca3 Ca2+ 4 c 0.4357(3) 0.758(1) 0.0731(1) 1. 0 0.015(1) 
Ca4 Ca2+ 4 c 0.1275(3) 0.2657(9) 0.1409(1) 1. 0 0.015(1) 
Ca5 Ca2+ 4 c 0.1274(3) 0.7607(9) 0.1422(1) 1. 0 0.013(1) 
Ta5 Ta5+ 4 c 0.3826(1) 0.0070(2) 0.1441(1) 1. 0 0.006(1) 
Ca6 Ca2+ 4 c 0.3763(3) 0.505(1) 0.1413(1) 1. 0 0.016(1) 
Ta6 Ta5+ 4 c 0.0618(1) 0.0186(1) 0.2112(1) 1. 0 0.006(1) 
Ta7 Ta5+ 4 c 0.0659(1) 0.5184(1) 0.2184(1) 1. 0 0.006(1) 
Ca7 Ca2+ 4 c 0.3162(1) 0.257(1) 0.2125(1) 1. 0 0.010(1) 
Ta8 Ta5+ 4 c 0.3140(1) 0.7660(2) 0.2161(1) 1. 0 0.006(1) 
Ca8 Ca2+ 4 c 0.1764(3) 0.2709(9) 0.2878(1) 1. 0 0.013(1) 
Ca9 Ca2+ 4 c 0.1858(3) 0.7707(9) 0.2889(1) 1. 0 0.022(1) 
Ca10 Ca2+ 4 c 0.4263(2) 0.0161(9) 0.2858(1) 1. 0 0.011(1) 
Ta9 Ta5+ 4 c 0.4285(1) 0.4922(2) 0.2841(1) 1. 0 0.007(1) 
Ta10 Ta5+ 4 c 0.0361(1) 0.2617(2) 0.3559(1) 1. 0 0.006(1) 
Ca11 Ca2+ 4 c 0.0329(3) 0.767(1) 0.3564(1) 1. 0 0.017(1) 
Ta11 Ta5+ 4 c 0.2888(1) 0.0110(2) 0.3580(1) 1. 0 0.006(1) 
Ta12 Ta5+ 4 c 0.2874(1) 0.5130(2) 0.3590(1) 1. 0 0.006(1) 
Ca12 Ca2+ 4 c 0.1521(3) 0.0076(9) 0.4274(1) 1. 0 0.014(1) 
Ta13 Ta5+ 4 c 0.1305(1) 0.5241(2) 0.4284(1) 1. 0 0.007(1) 
Ca13 Ca2+ 4 c 0.3957(3) 0.257(1) 0.4284(1) 1. 0 0.012(1) 
Ca14 Ca2+ 4 c 0.3989(3) 0.7437(9) 0.4307(1) 1. 0 0.012(1) 
Ta14 Ta5+ 2 b 0 0.0051(2) 0.5 1. 0 0.006(1) 
Ca15 Ca2+ 2 b 0 0.507(2) 0.5 1. 0 0.020(2) 
Ta15 Ta5+ 4 c 0.2518(1) 0.7579(2) 0.5018(1) 1. 0 0.006(1) 
O1 O2- 4 c 0.1364(7) 0.005(2) 0.0267(2) 1. 0 0.008(2) 
O2 O2- 4 c 0.1834(8) 0.464(2) 0.0248(3) 1. 0 0.009(2) 
O3 O2- 4 c 0.4339(8) 0.713(2) 0.0228(3) 1. 0 0.007(2) 
O4 O2- 4 c 0.4397(8) 0.313(2) 0.0247(3) 1. 0 0.009(2) 
O5 O2- 4 c 0.3255(8) 0.081(2) 0.0575(3) 1. 0 0.011(2) 
O6 O2- 4 c 0.0361(8) 0.547(2) 0.0629(3) 1. 0 0.008(2) 
O7 O2- 4 c 0.7377(7) 0.252(2) 0.0633(2) 1. 0 0.007(2) 
O8 O2- 4 c 0.1399(8) 0.249(2) 0.0788(2) 1. 0 0.007(2) 
O9 O2- 4 c 0.3437(7) 0.444(2) 0.0777(2) 1. 0 0.003(2) 
O10 O2- 4 c 0.5546(9) 0.416(2) 0.0843(3) 1. 0 0.012(2) 
O11 O2- 4 c 0.9437(8) 0.678(2) 0.1151(3) 1. 0 0.009(2) 
O12 O2- 4 c 0.1969(7) 0.531(2) 0.1171(2) 1. 0 0.009(2) 
O13 O2- 4 c 0.2466(8) 0.982(2) 0.1156(3) 1. 0 0.017(2) 
O14 O2- 4 c 0.4415(8) 0.790(2) 0.1250(3) 1. 0 0.012(2) 
O15 O2- 4 c 0.3135(8) 0.223(2) 0.1601(2) 1. 0 0.007(2) 
O16 O2- 4 c 0.0627(7) 0.002(2) 0.1662(2) 1. 0 0.007(2) 
O17 O2- 4 c 0.0176(7) 0.514(2) 0.1706(2) 1. 0 0.012(2) 
O18 O2- 4 c 0.3054(7) 0.841(2) 0.1709(3) 1. 0 0.006(2) 
O19 O2- 4 c 0.7046(8) 0.091(2) 0.2053(2) 1. 0 0.010(2) 
O20 O2- 4 c 0.4074(8) 0.569(2) 0.2035(3) 1. 0 0.009(2) 
O21 O2- 4 c 0.5185(8) 0.272(2) 0.2163(3) 1. 0 0.009(2) 
O22 O2- 4 c 0.6182(8) 0.771(2) 0.2124(2) 1. 0 0.008(2) 
O23 O2- 4 c 0.2080(8) 0.948(2) 0.2259(3) 1. 0 0.011(2) 
O24 O2- 4 c 0.4197(9) 0.963(2) 0.2262(3) 1. 0 0.017(3) 
O25 O2- 4 c 0.0440(8) 0.052(2) 0.2583(3) 1. 0 0.010(2) 
O26 O2- 4 c 0.3389(9) 0.707(2) 0.2612(3) 1. 0 0.011(2) 
O27 O2- 4 c 0.3400(8) 0.312(2) 0.2637(2) 1. 0 0.008(2) 
O28 O2- 4 c 0.6000(7) 0.024(2) 0.2633(2) 1. 0 0.010(2) 
O29 O2- 4 c 0.5145(8) 0.306(2) 0.3046(3) 1. 0 0.011(2) 
O30 O2- 4 c 0.0022(7) 0.203(2) 0.3122(2) 1. 0 0.005(2) 
O31 O2- 4 c 0.8185(8) 0.010(2) 0.3143(2) 1. 0 0.012(2) 
O32 O2- 4 c 0.7664(7) 0.532(2) 0.3112(2) 1. 0 0.006(2) 
O33 O2- 4 c 0.4405(9) 0.973(2) 0.3511(3) 1. 0 0.014(3) 
O34 O2- 4 c 0.6449(7) 0.927(2) 0.3429(2) 1. 0 0.003(2) 
O35 O2- 4 c 0.2345(8) 0.761(2) 0.3513(2) 1. 0 0.008(2) 
O36 O2- 4 c 0.1408(8) 0.063(2) 0.3629(3) 1. 0 0.011(2) 
O37 O2- 4 c 0.8397(7) 0.764(2) 0.3654(2) 1. 0 0.008(2) 
O38 O2- 4 c 0.4326(8) 0.593(2) 0.3720(3) 1. 0 0.011(2) 
O39 O2- 4 c 0.2652(7) 0.522(2) 0.4038(2) 1. 0 0.008(2) 
O40 O2- 4 c 0.0701(8) 0.730(2) 0.4066(3) 1. 0 0.011(2) 
O41 O2- 4 c 0.8111(7) 0.481(2) 0.4040(2) 1. 0 0.005(2) 
O42 O2- 4 c 0.0728(9) 0.326(2) 0.4020(3) 1. 0 0.013(2) 
O43 O2- 4 c 0.2135(8) 0.309(2) 0.4537(3) 1. 0 0.009(2) 
O44 O2- 4 c 0.5062(7) 0.999(2) 0.4492(2) 1. 0 0.008(2) 
O45 O2- 4 c 0.7142(8) 0.199(2) 0.4563(3) 1. 0 0.007(2) 
O46 O2- 4 c 0.0030(7) 0.007(2) 0.4538(2) 1. 0 0.010(2) 
O47 O2- 4 c 0.2726(7) 0.003(2) 0.4864(2) 1. 0 0.011(2) 
O48 O2- 4 c 0.1004(9) 0.803(2) 0.5069(3) 1. 0 0.009(3) 
O49 O2- 4 c 0.1031(8) 0.210(2) 0.5064(3) 1. 0 0.007(2) 

#End of data_93847-ICSD


