data_170089-ICSD
#?2014 by Fachinformationszentrum Karlsruhe, and the U.S. Secretary of 
#Commerce on behalf of the United States.  All rights reserved.
_database_code_ICSD                170089
_audit_creation_date               2005/10/01
_chemical_name_systematic          'Potassium Chlorate(VII)'
_chemical_formula_structural       'K Cl O4'
_chemical_formula_sum              'Cl1 K1 O4'
_publ_section_title
;
An experimental (120 K) and theoretical electron-density study of K 
Mn O4 and K Cl O4
;
loop_
_citation_id
_citation_journal_abbrev
_citation_year
_citation_journal_volume
_citation_page_first
_citation_page_last
_citation_journal_id_ASTM
primary 'Acta Crystallographica. Section A: Foundations of Crystallography'
 2004 60 494 501 ACACEQ
_publ_author_name
;
Marabello, D.;Bianchi, R.;Gervasio, G.;Cargnoni, F.
;
_cell_length_a                     8.7684(3)
_cell_length_b                     5.6237(2)
_cell_length_c                     7.2039(3)
_cell_angle_alpha                  90.00
_cell_angle_beta                   90.00
_cell_angle_gamma                  90.00
_cell_volume                       355.23
_cell_formula_units_Z              4
_symmetry_space_group_name_H-M     'P n m a'
_symmetry_Int_Tables_number        62
_refine_ls_R_factor_all            .0161
loop_
_symmetry_equiv_pos_site_id
_symmetry_equiv_pos_as_xyz
  1	'x+.5, y, -z+.5'
  2	'x, -y+.5, z'
  3	'-x+.5, y+.5, z+.5'
  4	'-x, -y, -z'
  5	'-x+.5, -y, z+.5'
  6	'-x, y+.5, -z'
  7	'x+.5, -y+.5, -z+.5'
  8	'x, y, z'
loop_
_atom_type_symbol
_atom_type_oxidation_number
Cl7+	7
K1+	1
O2-	-2
loop_
_atom_site_label
_atom_site_type_symbol
_atom_site_symmetry_multiplicity
_atom_site_Wyckoff_symbol
_atom_site_fract_x
_atom_site_fract_y
_atom_site_fract_z
_atom_site_occupancy
_atom_site_attached_hydrogens
K1 K1+ 4 c 0.31965 0.250000 0.66139 1. 0 
Cl1 Cl7+ 4 c 0.43049 0.250000 0.18838 1. 0 
O1 O2- 4 c 0.3060 0.250000 0.0571 1. 0 
O2 O2- 4 c 0.5746 0.250000 0.0939 1. 0 
O3 O2- 8 d 0.41911 0.0406 0.3056 1. 0 

loop_
_atom_site_aniso_label
_atom_site_aniso_type_symbol
_atom_site_aniso_U_11
_atom_site_aniso_U_22
_atom_site_aniso_U_33
_atom_site_aniso_U_12
_atom_site_aniso_U_13
_atom_site_aniso_U_23
K1 K1+ 0.01024 0.01461 0.01239 0.00000 -0.00033 0.00000
Cl1 Cl7+ 0.00852 0.00966 0.00890 0.00000 0.00012 0.00000
O1 O2- 0.0127 0.0241 0.0207 0.00000 -0.0082 0.00000
O2 O2- 0.0152 0.0180 0.0125 0.00000 -0.0057 0.00000
O3 O2- 0.0159 0.0112 0.0144 -0.0001 -0.0012 0.0036
#End of data_170089-ICSD


