data_24091-ICSD
#?2014 by Fachinformationszentrum Karlsruhe, and the U.S. Secretary of 
#Commerce on behalf of the United States.  All rights reserved.
_database_code_ICSD                24091
_audit_creation_date               1980/01/01
_audit_update_record               2012/08/01
_chemical_name_systematic          'Calcium Ditantalate'
_chemical_formula_structural       'Ca (Ta2 O6)'
_chemical_formula_sum              'Ca1 O6 Ta2'
_chemical_name_mineral             Rynersonite
_publ_section_title
;
Crystal structure of orthorhombic Ca Ta2 O6
;
loop_
_citation_id
_citation_journal_abbrev
_citation_year
_citation_journal_volume
_citation_page_first
_citation_page_last
_citation_journal_id_ASTM
primary 'Acta Chemica Scandinavica (1-27,1973-42,1988)' 1963 17 2548 2559 ACSAA4
2 'Powder Diffraction' 1988 3 246 254 PODIE2
_publ_author_name                  'Jahnberg, L.'
_cell_length_a                     11.068
_cell_length_b                     7.505
_cell_length_c                     5.378
_cell_angle_alpha                  90.
_cell_angle_beta                   90.
_cell_angle_gamma                  90.
_cell_volume                       446.73
_cell_formula_units_Z              4
_symmetry_space_group_name_H-M     'P n m a'
_symmetry_Int_Tables_number        62
_refine_ls_R_factor_all            .102
loop_
_symmetry_equiv_pos_site_id
_symmetry_equiv_pos_as_xyz
  1	'x+.5, y, -z+.5'
  2	'x, -y+.5, z'
  3	'-x+.5, y+.5, z+.5'
  4	'-x, -y, -z'
  5	'-x+.5, -y, z+.5'
  6	'-x, y+.5, -z'
  7	'x+.5, -y+.5, -z+.5'
  8	'x, y, z'
loop_
_atom_type_symbol
_atom_type_oxidation_number
Ca2+	2
O2-	-2
Ta5+	5
loop_
_atom_site_label
_atom_site_type_symbol
_atom_site_symmetry_multiplicity
_atom_site_Wyckoff_symbol
_atom_site_fract_x
_atom_site_fract_y
_atom_site_fract_z
_atom_site_occupancy
_atom_site_attached_hydrogens
_atom_site_B_iso_or_equiv
Ca1 Ca2+ 4 c 0.042(1) 0.25 0.540(2) 1. 0 1.0(2) 
Ta1 Ta5+ 8 d 0.1412(2) -.0056(4) 0.0376(4) 1. 0 0.93(4) 
O1 O2- 8 d -.024(2) 0.035(3) 0.225(5) 1. 0 0.1(4) 
O2 O2- 8 d 0.213(2) 0.049(4) 0.383(6) 1. 0 0.6(5) 
O3 O2- 4 c 0.146(4) 0.25 -.033(10) 1. 0 3.20(12) 
O4 O2- 4 c 0.122(3) -.25 0.162(8) 1. 0 1.5(8) 

#End of data_24091-ICSD


