data_641241-ICSD
#?2014 by Fachinformationszentrum Karlsruhe, and the U.S. Secretary of 
#Commerce on behalf of the United States.  All rights reserved.
_database_code_ICSD                641241
_audit_creation_date               2012/08/01
_chemical_name_systematic
;
Potassium Molybdenum Sulfide (1/6/8)
;
_chemical_formula_structural       'K Mo6 S8'
_chemical_formula_sum              'K1 Mo6 S8'
_publ_section_title
;
Chimie du solide. Nouveaux clusters dans les chalcogenures ternaire 
derivant du molybdene(II): Mo9, Mo12, (Mo3)18
;
loop_
_citation_id
_citation_journal_abbrev
_citation_year
_citation_journal_volume
_citation_page_first
_citation_page_last
_citation_journal_id_ASTM
primary
;
Comptes Rendus Hebdomadaires des Seances de l`Academie des Sciences, 
Serie C, Sciences Chimiques (1966-)
;
 1979 288 429 432 CHDCAQ
_publ_author_name
;
Potel, M.;Chevrel, R.;Sergent, M.;Decroux, M.;Fischer, O.
;
_cell_length_a                     9.24
_cell_length_b                     9.24
_cell_length_c                     11.57
_cell_angle_alpha                  90.
_cell_angle_beta                   90.
_cell_angle_gamma                  120.
_cell_volume                       855.48
_cell_formula_units_Z              3
_symmetry_space_group_name_H-M     'R -3 H'
_symmetry_Int_Tables_number        148
loop_
_symmetry_equiv_pos_site_id
_symmetry_equiv_pos_as_xyz
  1	'x-y, x, -z'
  2	'y, -x+y, -z'
  3	'-x, -y, -z'
  4	'-x+y, -x, z'
  5	'-y, x-y, z'
  6	'x, y, z'
  7	'x-y+.6666, x+.3333, -z+.3333'
  8	'x-y+.3333, x+.6666, -z+.6666'
  9	'y+.6666, -x+y+.3333, -z+.3333'
 10	'y+.3333, -x+y+.6666, -z+.6666'
 11	'-x+.6666, -y+.3333, -z+.3333'
 12	'-x+.3333, -y+.6666, -z+.6666'
 13	'-x+y+.6666, -x+.3333, z+.3333'
 14	'-x+y+.3333, -x+.6666, z+.6666'
 15	'-y+.6666, x-y+.3333, z+.3333'
 16	'-y+.3333, x-y+.6666, z+.6666'
 17	'x+.6666, y+.3333, z+.3333'
 18	'x+.3333, y+.6666, z+.6666'
loop_
_atom_type_symbol
_atom_type_oxidation_number
K1+	1
Mo2.5+	2.5
S2-	-2
loop_
_atom_site_label
_atom_site_type_symbol
_atom_site_symmetry_multiplicity
_atom_site_Wyckoff_symbol
_atom_site_fract_x
_atom_site_fract_y
_atom_site_fract_z
_atom_site_occupancy
_atom_site_attached_hydrogens
Mo1 Mo2.5+ 18 f 0.154 0.170 0.406 1. 0 
K1 K1+ 3 a 0 0 0 1. 0 
S1 S2- 6 c 0 0 0.249 1. 0 
S2 S2- 18 f 0.040 0.346 0.083 1. 0 

#End of data_641241-ICSD


