data_27734-ICSD
#?2014 by Fachinformationszentrum Karlsruhe, and the U.S. Secretary of 
#Commerce on behalf of the United States.  All rights reserved.
_database_code_ICSD                27734
_audit_creation_date               1980/01/01
_audit_update_record               2012/02/01
_chemical_name_systematic
;
Dipotassium Thorium Tris(molybdate)
;
_chemical_formula_structural       'K2 Th (Mo O4)3'
_chemical_formula_sum              'K2 Mo3 O12 Th1'
_publ_section_title
;
Crystal structure of K2 Th (Mo O4)3
;
loop_
_citation_id
_citation_journal_abbrev
_citation_year
_citation_journal_volume
_citation_page_first
_citation_page_last
_citation_journal_id_ASTM
primary Kristallografiya 1976 21 69 72 KRISAJ
2 'Soviet Physics, Crystallography (= Kristallografiya)'
 1976 21 34 35 SPHCA6
_publ_author_name                  'Bushuev, N.N.;Trunov, V.K.'
_cell_length_a                     17.62999
_cell_length_b                     12.13
_cell_length_c                     5.363
_cell_angle_alpha                  90.
_cell_angle_beta                   105.8
_cell_angle_gamma                  90.
_cell_volume                       1103.56
_cell_formula_units_Z              4
_symmetry_space_group_name_H-M     'C 1 2/c 1'
_symmetry_Int_Tables_number        15
_refine_ls_R_factor_all            .116
loop_
_symmetry_equiv_pos_site_id
_symmetry_equiv_pos_as_xyz
  1	'x, -y, z+.5'
  2	'-x, -y, -z'
  3	'-x, y, -z+.5'
  4	'x, y, z'
  5	'x+.5, -y+.5, z+.5'
  6	'-x+.5, -y+.5, -z'
  7	'-x+.5, y+.5, -z+.5'
  8	'x+.5, y+.5, z'
loop_
_atom_type_symbol
_atom_type_oxidation_number
K1+	1
Mo6+	6
O2-	-2
Th4+	4
loop_
_atom_site_label
_atom_site_type_symbol
_atom_site_symmetry_multiplicity
_atom_site_Wyckoff_symbol
_atom_site_fract_x
_atom_site_fract_y
_atom_site_fract_z
_atom_site_occupancy
_atom_site_attached_hydrogens
_atom_site_B_iso_or_equiv
Mo1 Mo6+ 8 f 0.1555(1) 0.3745(1) 0.3986(1) 1. 0 1. 
Mo2 Mo6+ 4 e 0 0.1233(1) 0.25 1. 0 0.7 
Th1 Th4+ 4 e 0 0.6369(2) 0.25 1. 0 0.4 
K1 K1+ 8 f 0.1705(2) 0.868(8) 0.4278(12) 1. 0 1. 
O1 O2- 8 f 0.040(2) 0.201(2) 0.027(4) 1. 0 1.9 
O2 O2- 8 f 0.077(1) 0.440(2) 0.17(2) 1. 0 1.5 
O3 O2- 8 f 0.075(8) 0.036(6) 0.43(2) 1. 0 1.4 
O4 O2- 8 f 0.113(8) 0.703(6) 0.117(8) 1. 0 1.7 
O5 O2- 8 f 0.205(2) 0.291(2) 0.214(8) 1. 0 1.5 
O6 O2- 8 f 0.261(8) 0.048(10) 0.381(4) 1. 0 2.6 

#End of data_27734-ICSD


