data_424345-ICSD
#?2014 by Fachinformationszentrum Karlsruhe, and the U.S. Secretary of 
#Commerce on behalf of the United States.  All rights reserved.
_database_code_ICSD                424345
_audit_creation_date               2013/02/01
_chemical_name_systematic
;
Disodium Diaqua Nickel(II) Tetraoxo Divanadium(V) Hexafluoride
;
_chemical_formula_structural       'Na2 (Ni (H2 O)2) (V2 O4 F6)'
_chemical_formula_sum              'H4 F6 Na2 Ni1 O6 V2'
_publ_section_title
;
The dimeric [V2 O4 F6]4- vanadium oxide-fluoride anion in Na2 (M (H2 
O)2) (V2 O4 F6) (M = Co(2+), Ni(2+), and Cu(2+))
;
loop_
_citation_id
_citation_journal_abbrev
_citation_year
_citation_journal_volume
_citation_journal_issue
_citation_page_first
_citation_page_last
_citation_journal_id_ASTM
primary 'Zeitschrift fuer Anorganische und Allgemeine Chemie (1950) (DE)'
 2012 638 12-13 1991 1995 ZAACAB
_publ_author_name
;
Donakowski, M.D.;Vinokur, A.I.;Poeppelmeier, K.R.
;
_cell_length_a                     8.1669(4)
_cell_length_b                     5.2403(3)
_cell_length_c                     10.2450(6)
_cell_angle_alpha                  90.00
_cell_angle_beta                   90.094(3)
_cell_angle_gamma                  90.00
_cell_volume                       438.45
_cell_formula_units_Z              2
_symmetry_space_group_name_H-M     'P 1 21/c 1'
_symmetry_Int_Tables_number        14
_refine_ls_R_factor_all            .0241
loop_
_symmetry_equiv_pos_site_id
_symmetry_equiv_pos_as_xyz
  1	'x, -y+.5, z+.5'
  2	'-x, -y, -z'
  3	'-x, y+.5, -z+.5'
  4	'x, y, z'
loop_
_atom_type_symbol
_atom_type_oxidation_number
F1-	-1
H1+	1
Na1+	1
Ni2+	2
O2-	-2
V5+	5
loop_
_atom_site_label
_atom_site_type_symbol
_atom_site_symmetry_multiplicity
_atom_site_Wyckoff_symbol
_atom_site_fract_x
_atom_site_fract_y
_atom_site_fract_z
_atom_site_occupancy
_atom_site_attached_hydrogens
_atom_site_U_iso_or_equiv
Ni1 Ni2+ 2 a 0.0000 0.0000 0.0000 1 0 0.00552(10) 
V1 V5+ 4 e -0.29005(3) 0.47094(6) 0.00862(3) 1 0 0.00580(10) 
Na1 Na1+ 4 e -0.53582(8) 0.04813(14) -0.16687(7) 1 0 0.00901(15) 
F1 F1- 4 e -0.47605(10) 0.72316(19) -0.03178(9) 1 0 0.00756(19) 
F2 F1- 4 e -0.32332(10) 0.3735(2) -0.16628(9) 1 0 0.0087(2) 
F3 F1- 4 e -0.33531(10) 0.5735(2) 0.18315(9) 1 0 0.0081(2) 
O1 O2- 4 e -0.04363(14) 0.0678(3) -0.19456(12) 1 0 0.0095(2) 
H1 H1+ 4 e -0.144(3) 0.053(7) -0.217(3) 1 0 0.042(9) 
H2 H1+ 4 e -0.010(3) -0.046(5) -0.237(3) 1 0 0.023(7) 
O2 O2- 4 e -0.14124(12) 0.6733(2) -0.01312(11) 1 0 0.0086(2) 
O3 O2- 4 e -0.20044(12) 0.1961(2) 0.04871(11) 1 0 0.0074(2) 

loop_
_atom_site_aniso_label
_atom_site_aniso_type_symbol
_atom_site_aniso_U_11
_atom_site_aniso_U_22
_atom_site_aniso_U_33
_atom_site_aniso_U_12
_atom_site_aniso_U_13
_atom_site_aniso_U_23
Ni1 Ni2+ 0.00666(15) 0.00527(16) 0.00462(16) 0.00018(9) -0.00033(11) 
0.00004(10)
V1 V5+ 0.00683(15) 0.00615(16) 0.00443(15) -0.00028(8) -0.00019(10) 
-0.00060(9)
Na1 Na1+ 0.0130(3) 0.0072(3) 0.0068(3) 0.0013(2) -0.0011(2) -0.0004(3)
F1 F1- 0.0092(4) 0.0064(5) 0.0070(4) 0.0003(3) -0.0003(3) 0.0004(4)
F2 F1- 0.0108(4) 0.0102(5) 0.0051(4) 0.0005(3) -0.0009(3) -0.0017(4)
F3 F1- 0.0106(4) 0.0083(5) 0.0055(4) 0.0015(4) 0.0003(3) -0.0010(4)
O1 O2- 0.0104(5) 0.0121(7) 0.0061(5) 0.0015(5) -0.0013(4) -0.0007(5)
O2 O2- 0.0102(5) 0.0080(6) 0.0077(5) -0.0006(4) -0.0001(4) -0.0007(5)
O3 O2- 0.0092(4) 0.0072(6) 0.0059(5) 0.0013(4) -0.0002(4) 0.0000(4)
#End of data_424345-ICSD


