data_420736-ICSD
#?2014 by Fachinformationszentrum Karlsruhe, and the U.S. Secretary of 
#Commerce on behalf of the United States.  All rights reserved.
_database_code_ICSD                420736
_audit_creation_date               2010/02/01
_chemical_name_systematic
;
Potassium Europium(II) Tetrathioarsenate(V)
;
_chemical_formula_structural       'K Eu (As S4)'
_chemical_formula_sum              'As1 Eu1 K1 S4'
_publ_section_title
;
Syntheses, crystal structures and spectroscopic properties of K Eu 
[As S4], K3 Dy [As S4]2 and Rb4 Nd0.67 [As S4]2
;
loop_
_citation_id
_citation_journal_abbrev
_citation_year
_citation_journal_volume
_citation_journal_issue
_citation_page_first
_citation_page_last
_citation_journal_id_ASTM
primary 'Solid State Sciences' 2009 11 9 1542 1548 SSSCFJ
_publ_author_name                  'Wu Yuan Dong;Bensch, W.'
_cell_length_a                     6.7276(7)
_cell_length_b                     6.7190(5)
_cell_length_c                     8.6947(9)
_cell_angle_alpha                  90.00
_cell_angle_beta                   107.287(12)
_cell_angle_gamma                  90.00
_cell_volume                       375.27
_cell_formula_units_Z              2
_symmetry_space_group_name_H-M     'P 1 21/m 1'
_symmetry_Int_Tables_number        11
_refine_ls_R_factor_all            .0281
loop_
_symmetry_equiv_pos_site_id
_symmetry_equiv_pos_as_xyz
  1	'x, -y+.5, z'
  2	'-x, -y, -z'
  3	'-x, y+.5, -z'
  4	'x, y, z'
loop_
_atom_type_symbol
_atom_type_oxidation_number
As5+	5
Eu2+	2
K1+	1
S2-	-2
loop_
_atom_site_label
_atom_site_type_symbol
_atom_site_symmetry_multiplicity
_atom_site_Wyckoff_symbol
_atom_site_fract_x
_atom_site_fract_y
_atom_site_fract_z
_atom_site_occupancy
_atom_site_attached_hydrogens
_atom_site_U_iso_or_equiv
Eu1 Eu2+ 2 e 0.73100(4) 0.2500 0.05057(3) 1 0 0.01334(16) 
K1 K1+ 2 e 0.7749(2) 0.2500 0.56679(17) 1 0 0.0203(3) 
As1 As5+ 2 e 0.29216(8) 0.2500 0.19388(7) 1 0 0.00850(18) 
S1 S2- 2 e 0.1168(2) 0.2500 -0.05873(19) 1 0 0.0208(4) 
S2 S2- 2 e 0.0934(2) 0.2500 0.34691(18) 1 0 0.0158(3) 
S3 S2- 4 f 0.49833(15) -0.00341(16) 0.23888(12) 1 0 0.0131(2) 

loop_
_atom_site_aniso_label
_atom_site_aniso_type_symbol
_atom_site_aniso_U_11
_atom_site_aniso_U_22
_atom_site_aniso_U_33
_atom_site_aniso_U_12
_atom_site_aniso_U_13
_atom_site_aniso_U_23
Eu1 Eu2+ 0.00898(19) 0.0211(2) 0.0107(2) 0.000 0.00412(12) 0.000
K1 K1+ 0.0236(6) 0.0247(8) 0.0145(6) 0.000 0.0089(5) 0.000
As1 As5+ 0.0072(3) 0.0097(3) 0.0099(3) 0.000 0.0046(2) 0.000
S1 S2- 0.0144(7) 0.0394(10) 0.0097(7) 0.000 0.0049(5) 0.000
S2 S2- 0.0129(6) 0.0252(8) 0.0120(7) 0.000 0.0076(5) 0.000
S3 S2- 0.0144(5) 0.0090(5) 0.0165(5) 0.0031(3) 0.0057(4) 0.0006(4)
#End of data_420736-ICSD


