data_407046-ICSD
#?2014 by Fachinformationszentrum Karlsruhe, and the U.S. Secretary of 
#Commerce on behalf of the United States.  All rights reserved.
_database_code_ICSD                407046
_audit_creation_date               1997/11/10
_audit_update_record               2011/02/01
_chemical_name_systematic
;
Strontium Zinc Oxovanadium Bis(phosphate(V))
;
_chemical_formula_structural       'Sr Zn (V O) (P O4)2'
_chemical_formula_sum              'O9 P2 Sr1 V1 Zn1'
_publ_section_title
;
Zum Ba Zn (V O) (P O4)2-Typ verwandte, jedoch isotype 
Vanadylphosphate: Sr Zn (V O) (P O4)2 und Ba Cd (V O) (P O4)2.
;
loop_
_citation_id
_citation_journal_abbrev
_citation_year
_citation_journal_volume
_citation_page_first
_citation_page_last
_citation_journal_id_ASTM
primary 'Zeitschrift fuer Naturforschung, B: Chemical Sciences'
 1997 52 985 988 ZNBSEN
_publ_author_name
;
Mueller Buschbaum, H.;Meyer, S.;Mertens, B.
;
_cell_length_a                     9.0661(10)
_cell_length_b                     9.0117(10)
_cell_length_c                     17.5128(10)
_cell_angle_alpha                  90.
_cell_angle_beta                   90.
_cell_angle_gamma                  90.
_cell_volume                       1430.81
_cell_formula_units_Z              8
_symmetry_space_group_name_H-M     'P b c a'
_symmetry_Int_Tables_number        61
_refine_ls_R_factor_all            .1031
loop_
_symmetry_equiv_pos_site_id
_symmetry_equiv_pos_as_xyz
  1	'x+.5, y, -z+.5'
  2	'x, -y+.5, z+.5'
  3	'-x+.5, y+.5, z'
  4	'-x, -y, -z'
  5	'-x+.5, -y, z+.5'
  6	'-x, y+.5, -z+.5'
  7	'x+.5, -y+.5, -z'
  8	'x, y, z'
loop_
_atom_type_symbol
_atom_type_oxidation_number
O2-	-2
P5+	5
Sr2+	2
V4+	4
Zn2+	2
loop_
_atom_site_label
_atom_site_type_symbol
_atom_site_symmetry_multiplicity
_atom_site_Wyckoff_symbol
_atom_site_fract_x
_atom_site_fract_y
_atom_site_fract_z
_atom_site_occupancy
_atom_site_attached_hydrogens
Sr1 Sr2+ 8 c 0.15008(5) 0.93859(5) 0.40264(2) 1. 0 
Zn1 Zn2+ 8 c 0.19717(6) 0.92381(6) 0.06610(3) 1. 0 
V1 V4+ 8 c 0.00273(8) 0.25002(8) 0.28773(4) 1. 0 
P1 P5+ 8 c 0.24367(15) 0.50078(12) 0.22873(6) 1. 0 
P2 P5+ 8 c 0.43275(12) 0.76813(11) 0.49191(6) 1. 0 
O1 O2- 8 c 0.9184(4) 0.7599(4) 0.5943(2) 1. 0 
O2 O2- 8 c 0.1535(4) 0.0933(3) 0.2792(2) 1. 0 
O3 O2- 8 c 0.3204(4) 0.8859(4) 0.5151(2) 1. 0 
O4 O2- 8 c 0.9562(4) 0.2635(4) 0.1999(2) 1. 0 
O5 O2- 8 c 0.4002(4) 0.6199(4) 0.5338(2) 1. 0 
O6 O2- 8 c 0.3428(4) 0.4029(3) 0.1739(2) 1. 0 
O7 O2- 8 c 0.5905(4) 0.8125(4) 0.5137(2) 1. 0 
O8 O2- 8 c 0.1615(4) 0.4039(3) 0.2868(2) 1. 0 
O9 O2- 8 c 0.1400(4) 0.5892(3) 0.1770(2) 1. 0 

loop_
_atom_site_aniso_label
_atom_site_aniso_type_symbol
_atom_site_aniso_U_11
_atom_site_aniso_U_22
_atom_site_aniso_U_33
_atom_site_aniso_U_12
_atom_site_aniso_U_13
_atom_site_aniso_U_23
Sr1 Sr2+ 0.0191(2) 0.0142(2) 0.0089(2) -.0022(2) 0.0009(2) 0.00068(15)
Zn1 Zn2+ 0.0132(2) 0.0130(2) 0.0083(2) 0.0007(2) 0.0012(2) 0.0010(2)
V1 V4+ 0.0067(2) 0.0058(2) 0.0058(3) 0.0000(3) -.0002(2) 0.0001(2)
P1 P5+ 0.0082(4) 0.0075(4) 0.0072(4) 0.0001(4) -.0002(4) -.0005(4)
P2 P5+ 0.0102(5) 0.0092(5) 0.0090(4) 0.0001(4) 0.0008(4) 0.0002(4)
O1 O2- 0.020(2) 0.022(2) 0.0073(13) 0.0008(14) -.0024(12) 0.0017(13)
O2 O2- 0.0120(14) 0.0111(13) 0.0132(13) 0.0013(12) 0.0015(12) 0.0006(11)
O3 O2- 0.015(2) 0.0119(13) 0.027(2) 0.0030(12) 0.0001(14) -.0038(13)
O4 O2- 0.020(2) 0.0146(14) 0.0079(12) 0.0042(13) -.0015(11) -.0003(11)
O5 O2- 0.015(2) 0.0141(14) 0.0136(14) -.0009(12) 0.0009(12) 0.0047(12)
O6 O2- 0.0114(14) 0.0122(12) 0.0077(12) 0.0038(12) 0.0018(11) 0.0006(10)
O7 O2- 0.0107(15) 0.0150(14) 0.0157(15) -.0025(12) -.0017(12) 0.0050(12)
O8 O2- 0.0113(14) 0.0123(13) 0.0112(13) -.0049(12) 0.0002(11) 0.0010(11)
O9 O2- 0.014(2) 0.0117(13) 0.0119(13) 0.0052(12) 0.0002(11) 0.0002(11)
#End of data_407046-ICSD


