data_402063-ICSD
#?2014 by Fachinformationszentrum Karlsruhe, and the U.S. Secretary of 
#Commerce on behalf of the United States.  All rights reserved.
_database_code_ICSD                402063
_audit_creation_date               1996/04/22
_chemical_name_systematic          'Sodium Tetrachlorozincate'
_chemical_formula_structural       'Na2 (Zn Cl4)'
_chemical_formula_sum              'Cl4 Na2 Zn1'
_publ_section_title
;
Redetermination of the crystal structures of lithium zinc iodide, Li2 
Zn I4, and sodium zinc chloride, Na2 Zn Cl4
;
loop_
_citation_id
_citation_journal_abbrev
_citation_year
_citation_journal_volume
_citation_page_first
_citation_page_last
_citation_journal_id_ASTM
primary 'Zeitschrift fuer Kristallographie (1979-2010)' 1995 210 691 692 ZEKRDZ
_publ_author_name                  'Zhang, Z.;Lutz, H.D.'
_cell_length_a                     13.703(2)
_cell_length_b                     8.0624(7)
_cell_length_c                     6.4112(6)
_cell_angle_alpha                  90.
_cell_angle_beta                   90.
_cell_angle_gamma                  90.
_cell_volume                       708.3
_cell_formula_units_Z              4
_symmetry_space_group_name_H-M     'P n m a'
_symmetry_Int_Tables_number        62
_refine_ls_R_factor_all            .021
loop_
_symmetry_equiv_pos_site_id
_symmetry_equiv_pos_as_xyz
  1	'x+.5, y, -z+.5'
  2	'x, -y+.5, z'
  3	'-x+.5, y+.5, z+.5'
  4	'-x, -y, -z'
  5	'-x+.5, -y, z+.5'
  6	'-x, y+.5, -z'
  7	'x+.5, -y+.5, -z+.5'
  8	'x, y, z'
loop_
_atom_type_symbol
_atom_type_oxidation_number
Cl1-	-1
Na1+	1
Zn2+	2
loop_
_atom_site_label
_atom_site_type_symbol
_atom_site_symmetry_multiplicity
_atom_site_Wyckoff_symbol
_atom_site_fract_x
_atom_site_fract_y
_atom_site_fract_z
_atom_site_occupancy
_atom_site_attached_hydrogens
Na1 Na1+ 4 a 0 0 0 1. 0 
Na2 Na1+ 4 c 0.2718(1) 0.25 -.0091(3) 1. 0 
Zn1 Zn2+ 4 c 0.09244(3) 0.25 0.41378(6) 1. 0 
Cl1 Cl1- 4 c 0.09208(7) 0.25 0.7634(1) 1. 0 
Cl2 Cl1- 4 c 0.43911(6) 0.25 0.2302(1) 1. 0 
Cl3 Cl1- 8 d 0.16606(5) 0.02647(8) 0.2617(1) 1. 0 

loop_
_atom_site_aniso_label
_atom_site_aniso_type_symbol
_atom_site_aniso_U_11
_atom_site_aniso_U_22
_atom_site_aniso_U_33
_atom_site_aniso_U_12
_atom_site_aniso_U_13
_atom_site_aniso_U_23
Na1 Na1+ 0.0488(9) 0.0331(8) 0.0322(8) -.0087(7) -.0014(7) -.0048(7)
Na2 Na1+ 0.0310(7) 0.0356(8) 0.0325(8) 0 -.0002(7) 0
Zn1 Zn2+ 0.0290(2) 0.0283(2) 0.0190(2) 0 0.0001(3) 0
Cl1 Cl1- 0.0369(4) 0.0332(4) 0.0186(3) 0 0.0001(3) 0
Cl2 Cl1- 0.0240(4) 0.0380(5) 0.0283(4) 0 -.0017(3) 0
Cl3 Cl1- 0.0367(3) 0.0278(3) 0.0278(3) 0.0074(2) 0.0013(3) 0.0017(3)
#End of data_402063-ICSD


