data_36456-ICSD
#?2014 by Fachinformationszentrum Karlsruhe, and the U.S. Secretary of 
#Commerce on behalf of the United States.  All rights reserved.
_database_code_ICSD                36456
_audit_creation_date               1983/12/31
_audit_update_record               2012/08/01
_chemical_name_systematic
;
Silver Chromium Phosphorus Sulfide (0.5/0.5/1/3)
;
_chemical_formula_structural       'Ag0.5 Cr0.5 P S3'
_chemical_formula_sum              'Ag0.5 Cr0.5 P1 S3'
_publ_section_title
;
Coordinance inhabituelle de l'argent dans un sufur lamellaire a sous-
reseau magnetique 1D: le compose Ag0.5 Cr0.5 P S3
;
loop_
_citation_id
_citation_journal_abbrev
_citation_year
_citation_journal_volume
_citation_page_first
_citation_page_last
_citation_journal_id_ASTM
primary 'Nouveau Journal de Chimie' 1983 7 333 338 NJCHD4
_publ_author_name
;
Colombet, P.;Leblanc, A.;Danot, M.;Rouxel, J.
;
_cell_length_a                     5.892(3)
_cell_length_b                     10.632(4)
_cell_length_c                     6.745(4)
_cell_angle_alpha                  90.
_cell_angle_beta                   105.88(4)
_cell_angle_gamma                  90.
_cell_volume                       406.41
_cell_formula_units_Z              4
_symmetry_space_group_name_H-M     'P 1 2/a 1'
_symmetry_Int_Tables_number        13
_refine_ls_R_factor_all            .038
loop_
_symmetry_equiv_pos_site_id
_symmetry_equiv_pos_as_xyz
  1	'x+.5, -y, z'
  2	'-x, -y, -z'
  3	'-x+.5, y, -z'
  4	'x, y, z'
loop_
_atom_type_symbol
_atom_type_oxidation_number
Ag1+	1
Cr3+	3
P4+	4
S2-	-2
loop_
_atom_site_label
_atom_site_type_symbol
_atom_site_symmetry_multiplicity
_atom_site_Wyckoff_symbol
_atom_site_fract_x
_atom_site_fract_y
_atom_site_fract_z
_atom_site_occupancy
_atom_site_attached_hydrogens
S1 S2- 4 g -.0145(3) 0.2288(2) 0.2394(3) 1. 0 
S2 S2- 4 g -.0079(3) 0.9234(2) 0.2284(2) 1. 0 
S3 S2- 4 g 0.4828(4) 0.3947(2) 0.2869(3) 1. 0 
P1 P4+ 4 g 0.2980(3) 0.2453(2) 0.1698(3) 1. 0 
Cr1 Cr3+ 2 e 0.25 0.9211(1) 0 1. 0 
Ag1 Ag1+ 2 e 0.75 0.4369(1) 0 1. 0 

loop_
_atom_site_aniso_label
_atom_site_aniso_type_symbol
_atom_site_aniso_U_11
_atom_site_aniso_U_22
_atom_site_aniso_U_33
_atom_site_aniso_U_12
_atom_site_aniso_U_13
_atom_site_aniso_U_23
S1 S2- 0.0065(3) 0.00234(11) 0.0075(3) -.0012(3) 0.0060(5) -.0024(3)
S2 S2- 0.0056(3) 0.00163(9) 0.0059(2) -.0004(3) 0.0034(4) -.0004(3)
S3 S2- 0.0107(4) 0.00224(12) 0.0096(3) -.0028(4) 0.0038(6) -.0020(3)
P1 P4+ 0.0051(3) 0.0016(1) 0.0056(3) -.0003(4) 0.00028(5) -.0004(3)
Cr1 Cr3+ 0.0052(3) 0.00138(9) 0.0057(2) 0 0.0036(4) 0
Ag1 Ag1+ 0.02222(3) 0.00353(7) 0.0245(3) 0 0.0141(4) 0
#End of data_36456-ICSD


