data_27985-ICSD
#?2014 by Fachinformationszentrum Karlsruhe, and the U.S. Secretary of 
#Commerce on behalf of the United States.  All rights reserved.
_database_code_ICSD                27985
_audit_creation_date               1980/01/01
_audit_update_record               2005/10/01
_chemical_name_systematic          'Dialuminium Silicate Oxide'
_chemical_formula_structural       'Al2 (Si O4) O'
_chemical_formula_sum              'Al2 O5 Si1'
_chemical_name_mineral             Kyanite
_publ_section_title
;
The structure of cyanite, Al2 Si O5
;
loop_
_citation_id
_citation_journal_abbrev
_citation_year
_citation_journal_volume
_citation_page_first
_citation_page_last
_citation_journal_id_ASTM
primary
;
Proceedings of the Royal Society of London, Series A: Mathematical 
and Physical Sciences (76,1906-)
;
 1928 119 132 146 PRLAAZ
_publ_author_name                  'Taylor, W.H.;Jackson, W.W.'
_cell_length_a                     7.105(20)
_cell_length_b                     7.74(4)
_cell_length_c                     5.57(2)
_cell_angle_alpha                  90.092
_cell_angle_beta                   101.033
_cell_angle_gamma                  105.742
_cell_volume                       288.91
_cell_formula_units_Z              4
_symmetry_space_group_name_H-M     'P -1'
_symmetry_Int_Tables_number        2
loop_
_symmetry_equiv_pos_site_id
_symmetry_equiv_pos_as_xyz
  1	'-x, -y, -z'
  2	'x, y, z'
loop_
_atom_type_symbol
_atom_type_oxidation_number
Al3+	3
O2-	-2
Si4+	4
loop_
_atom_site_label
_atom_site_type_symbol
_atom_site_symmetry_multiplicity
_atom_site_Wyckoff_symbol
_atom_site_fract_x
_atom_site_fract_y
_atom_site_fract_z
_atom_site_occupancy
_atom_site_attached_hydrogens
O1 O2- 2 i 0.4 0.35 -.4 1. 0 
O2 O2- 2 i 0.4 -.15 -.4 1. 0 
O3 O2- 2 i 0.2 0.05 -.2 1. 0 
O4 O2- 2 i 0.2 -.45 -.2 1. 0 
O5 O2- 2 i 0.4 0.35 0.1 1. 0 
O6 O2- 2 i 0.4 -.15 0.1 1. 0 
O7 O2- 2 i 0.2 0.05 0.3 1. 0 
O8 O2- 2 i 0.2 -.45 0.3 1. 0 
O9 O2- 2 i 0 0.25 0.5 1. 0 
O10 O2- 2 i 0 0.25 0 1. 0 
Si1 Si4+ 2 i 0.2 0.42 -.48 1. 0 
Si2 Si4+ 2 i 0.2 0.18 0.02 1. 0 
Al1 Al3+ 2 i 0.23 -.21 0.3 1. 0 
Al2 Al3+ 2 i 0.17 -.21 -.2 1. 0 
Al3 Al3+ 2 i 0.38 0.11 0.07 1. 0 
Al4 Al3+ 2 i 0.38 -.42 -.43 1. 0 

#End of data_27985-ICSD


