data_160288-ICSD
#?2014 by Fachinformationszentrum Karlsruhe, and the U.S. Secretary of 
#Commerce on behalf of the United States.  All rights reserved.
_database_code_ICSD                160288
_audit_creation_date               2008/08/01
_chemical_name_systematic          'Potassium Iron(III) Diarsenate(V)'
_chemical_formula_structural       'K Fe (As2 O7)'
_chemical_formula_sum              'As2 Fe1 K1 O7'
_publ_section_title
;
The iron potassium diarsenate K Fe As2 O7 structural, electric and 
magnetic behaviors
;
loop_
_citation_id
_citation_journal_abbrev
_citation_year
_citation_journal_volume
_citation_page_first
_citation_page_last
_citation_journal_id_ASTM
primary 'Journal of Solid State Chemistry' 2007 180 2942 2949 JSSCBI
_publ_author_name
;
Ouerfelli, N.;Guesmi, A.;Molinie, P.;Mazza, D.;Zid, M.F.;Driss, A.
;
_cell_length_a                     7.662(1)
_cell_length_b                     8.402(3)
_cell_length_c                     10.100(3)
_cell_angle_alpha                  90.42(3)
_cell_angle_beta                   89.74(2)
_cell_angle_gamma                  106.39(2)
_cell_volume                       623.76
_cell_formula_units_Z              4
_symmetry_space_group_name_H-M     'P -1'
_symmetry_Int_Tables_number        2
_refine_ls_R_factor_all            .0351
loop_
_symmetry_equiv_pos_site_id
_symmetry_equiv_pos_as_xyz
  1	'-x, -y, -z'
  2	'x, y, z'
loop_
_atom_type_symbol
_atom_type_oxidation_number
As5+	5
Fe3+	3
K1+	1
O2-	-2
loop_
_atom_site_label
_atom_site_type_symbol
_atom_site_symmetry_multiplicity
_atom_site_Wyckoff_symbol
_atom_site_fract_x
_atom_site_fract_y
_atom_site_fract_z
_atom_site_occupancy
_atom_site_attached_hydrogens
_atom_site_U_iso_or_equiv
As1 As5+ 2 i 0.15305(8) 0.85088(7) 0.42253(6) 1. 0 0.0062(6) 
As2 As5+ 2 i 0.43870(7) 0.67735(7) 0.35619(6) 1. 0 0.0059(2) 
As3 As5+ 2 i 0.12646(8) 0.33418(7) 0.10220(6) 1. 0 0.0059(2) 
As4 As5+ 2 i 0.45024(8) 0.20319(7) 0.13316(6) 1. 0 0.0065(2) 
Fe1 Fe3+ 2 i 0.2334(1) 0.7704(1) 0.09972(8) 1. 0 0.0091(2) 
Fe2 Fe3+ 2 i 0.2345(1) 0.2652(1) 0.40618(9) 1. 0 0.0103(2) 
K1 K1+ 2 i 0.1604(2) 0.5384(2) 0.6776(2) 1. 0 0.0181(3) 
K2 K1+ 2 i 0.8179(2) 0.9411(2) 0.1775(2) 1. 0 0.0181(3) 
O1 O2- 2 i 0.1035(6) 0.8102(6) 0.2638(4) 1. 0 0.0133(9) 
O2 O2- 2 i 0.1861(6) 0.0441(5) 0.4751(5) 1. 0 0.0146(9) 
O3 O2- 2 i 0.3615(6) 0.8132(5) 0.4581(4) 1. 0 0.0116(9) 
O4 O2- 2 i -0.0022(6) 0.7122(5) 0.5110(4) 1. 0 0.0100(8) 
O5 O2- 2 i 0.6409(6) 0.6742(5) 0.4130(4) 1. 0 0.0117(8) 
O6 O2- 2 i 0.2766(6) 0.5000(5) 0.3735(5) 1. 0 0.0153(9) 
O7 O2- 2 i 0.4521(6) 0.7556(5) 0.2022(4) 1. 0 0.0115(9) 
O8 O2- 2 i -0.0040(6) 0.2176(5) -0.0149(4) 1. 0 0.0103(8) 
O9 O2- 2 i 0.1107(6) 0.5256(5) 0.1193(4) 1. 0 0.0109(8) 
O10 O2- 2 i 0.0829(6) 0.2220(5) 0.2414(4) 1. 0 0.0098(8) 
O11 O2- 2 i 0.3499(6) 0.3425(5) 0.0549(4) 1. 0 0.0112(8) 
O12 O2- 2 i 0.3317(6) 0.0178(5) 0.0788(5) 1. 0 0.0144(9) 
O13 O2- 2 i 0.4484(6) 0.2432(6) 0.2959(4) 1. 0 0.0147(9) 
O14 O2- 2 i 0.6653(6) 0.2592(5) 0.0802(4) 1. 0 0.0101(8) 

#End of data_160288-ICSD


