data_170693-ICSD
#?2014 by Fachinformationszentrum Karlsruhe, and the U.S. Secretary of 
#Commerce on behalf of the United States.  All rights reserved.
_database_code_ICSD                170693
_audit_creation_date               2006/04/01
_audit_update_record               2007/08/01
_chemical_name_systematic          'Potassium Pentaniobate'
_chemical_formula_structural       'K (Nb5 O13)'
_chemical_formula_sum              'K1 Nb5 O13'
_publ_section_title                'A new potassium niobate, K Nb5 O13'
loop_
_citation_id
_citation_journal_abbrev
_citation_year
_citation_journal_volume
_citation_page_first
_citation_page_last
_citation_journal_id_ASTM
primary 'Acta Crystallographica, Section E. Structure Reports Online'
 2005 61 i132 i134 ACSEBH
2 'Powder Diffraction' 1987 2 41 52 PODIE2
_publ_author_name                  'Kwak, J.E.;Yun, H.;Chae, H.K.'
_cell_length_a                     5.672(2)
_cell_length_b                     10.737(5)
_cell_length_c                     16.742(6)
_cell_angle_alpha                  90
_cell_angle_beta                   90
_cell_angle_gamma                  90
_cell_volume                       1019.59
_cell_formula_units_Z              4
_symmetry_space_group_name_H-M     'P b c m'
_symmetry_Int_Tables_number        57
_refine_ls_R_factor_all            .046
loop_
_symmetry_equiv_pos_site_id
_symmetry_equiv_pos_as_xyz
  1	'x, -y+.5, z+.5'
  2	'-x, y+.5, z'
  3	'x, y, -z+.5'
  4	'-x, -y, -z'
  5	'-x, y+.5, -z+.5'
  6	'x, -y+.5, -z'
  7	'-x, -y, z+.5'
  8	'x, y, z'
loop_
_atom_type_symbol
_atom_type_oxidation_number
K1+	1
Nb5+	5
O2-	-2
loop_
_atom_site_label
_atom_site_type_symbol
_atom_site_symmetry_multiplicity
_atom_site_Wyckoff_symbol
_atom_site_fract_x
_atom_site_fract_y
_atom_site_fract_z
_atom_site_occupancy
_atom_site_attached_hydrogens
_atom_site_U_iso_or_equiv
K1 K1+ 4 d 0.7871(2) 0.32683(13) 0.25 1 0 0.0260(3) 
Nb1 Nb5+ 8 e 0.16752(5) 0.43808(2) 0.076718(16) 1 0 0.00794(10) 
Nb2 Nb5+ 8 e 0.33738(5) 0.13515(3) 0.136796(16) 1 0 0.00924(10) 
Nb3 Nb5+ 4 c 0.67240(6) 0.25 0 1 0 0.00699(11) 
O1 O2- 8 e 0.0915(4) 0.0171(2) 0.13820(13) 1 0 0.0102(4) 
O2 O2- 8 e 0.1265(4) 0.2821(2) 0.12599(13) 1 0 0.0098(4) 
O3 O2- 8 e 0.1293(4) 0.6059(2) 0.00428(12) 1 0 0.0076(4) 
O4 O2- 8 e 0.3612(4) 0.1239(2) 0.01261(12) 1 0 0.0078(4) 
O5 O2- 8 e 0.5920(4) 0.0042(2) 0.13687(13) 1 0 0.0105(4) 
O6 O2- 8 e 0.5969(4) 0.2532(2) 0.11116(12) 1 0 0.0083(4) 
O7 O2- 4 d 0.3683(6) 0.1567(3) 0.25 1 0 0.0118(6) 

loop_
_atom_site_aniso_label
_atom_site_aniso_type_symbol
_atom_site_aniso_U_11
_atom_site_aniso_U_22
_atom_site_aniso_U_33
_atom_site_aniso_U_12
_atom_site_aniso_U_13
_atom_site_aniso_U_23
K1 K1+ 0.0307(6) 0.0353(7) 0.0120(5) -0.0163(5) 0 0
Nb1 Nb5+ 0.00806(15) 0.00846(16) 0.00730(15) 0.00056(9) -0.00037(10) 
-0.00001(9)
Nb2 Nb5+ 0.00973(15) 0.00986(16) 0.00812(15) -0.00192(10) 0.00076(10) 
0.00050(10)
Nb3 Nb5+ 0.00627(18) 0.00682(19) 0.00789(19) 0 0 0.00135(13)
O1 O2- 0.0095(10) 0.0102(11) 0.0108(11) -0.0022(8) -0.0012(8) 0.0001(8)
O2 O2- 0.0093(10) 0.0088(10) 0.0113(10) -0.0005(8) 0.0021(8) 0.0010(8)
O3 O2- 0.0065(9) 0.0066(10) 0.0096(9) -0.0004(8) -0.0013(8) 0.0002(8)
O4 O2- 0.0081(9) 0.0084(10) 0.0070(9) -0.0007(8) -0.0002(8) -0.0003(8)
O5 O2- 0.0118(10) 0.0095(11) 0.0100(11) 0.0024(8) 0.0006(8) -0.0002(8)
O6 O2- 0.0088(10) 0.0091(10) 0.0070(10) -0.0019(8) -0.0004(8) -0.0015(8)
O7 O2- 0.0121(15) 0.0141(16) 0.0093(14) 0.0002(13) 0 0
#End of data_170693-ICSD


