data_171252-ICSD
#?2014 by Fachinformationszentrum Karlsruhe, and the U.S. Secretary of 
#Commerce on behalf of the United States.  All rights reserved.
_database_code_ICSD                171252
_audit_creation_date               2006/10/01
_chemical_name_systematic
;
Trisodium Fluoride Stannotrisilicate
;
_chemical_formula_structural       '(Na3 F) (Sn Si3 O9)'
_chemical_formula_sum              'F1 Na3 O9 Si3 Sn1'
_publ_section_title
;
Synthesis, crystal structure, and solid-state NMR spectroscopy of a 
salt-inclusion stannosilicate: [Na3 F][Sn Si3 O9]
;
loop_
_citation_id
_citation_journal_abbrev
_citation_year
_citation_journal_volume
_citation_journal_issue
_citation_page_first
_citation_page_last
_citation_journal_id_ASTM
primary 'Inorganic Chemistry' 2005 44 25 9335 9339 INOCAJ
_publ_author_name
;
Liao, C.-H.;Chang, P.-C.;Kao, H.-M.;Lii, K.-H.
;
_cell_length_a                     10.5393(11)
_cell_length_b                     13.9532(15)
_cell_length_c                     6.5171(7)
_cell_angle_alpha                  90.00
_cell_angle_beta                   111.576(2)
_cell_angle_gamma                  90.00
_cell_volume                       891.23
_cell_formula_units_Z              4
_symmetry_space_group_name_H-M     'C 1 2/m 1'
_symmetry_Int_Tables_number        12
_refine_ls_R_factor_all            .0169
loop_
_symmetry_equiv_pos_site_id
_symmetry_equiv_pos_as_xyz
  1	'-x, y, -z'
  2	'-x, -y, -z'
  3	'x, -y, z'
  4	'x, y, z'
  5	'-x+.5, y+.5, -z'
  6	'-x+.5, -y+.5, -z'
  7	'x+.5, -y+.5, z'
  8	'x+.5, y+.5, z'
loop_
_atom_type_symbol
_atom_type_oxidation_number
F1-	-1
Na1+	1
O2-	-2
Si4+	4
Sn4+	4
loop_
_atom_site_label
_atom_site_type_symbol
_atom_site_symmetry_multiplicity
_atom_site_Wyckoff_symbol
_atom_site_fract_x
_atom_site_fract_y
_atom_site_fract_z
_atom_site_occupancy
_atom_site_attached_hydrogens
_atom_site_U_iso_or_equiv
Na1 Na1+ 4 i 0.00955(15) 0.5000 0.2619(2) 1 0 0.0231(3) 
Na2 Na1+ 8 j 0.25833(10) 0.13543(7) 0.91792(16) 1 0 0.0206(2) 
F1 F1- 4 i 0.3506(2) 0.0000 0.9306(3) 1 0 0.0197(4) 
Sn1 Sn4+ 4 h 0.0000 0.275683(13) 0.5000 1 0 0.00714(7) 
Si1 Si4+ 8 j 0.20218(6) 0.11077(4) 0.39643(9) 1 0 0.00797(12) 
Si2 Si4+ 4 g 0.0000 0.21412(6) 0.0000 1 0 0.00830(16) 
O1 O2- 8 j 0.14831(15) 0.17525(10) 0.5524(2) 1 0 0.0113(3) 
O2 O2- 8 j 0.36511(15) 0.11510(11) 0.4616(2) 1 0 0.0111(3) 
O3 O2- 4 i 0.1598(2) 0.0000 0.4079(4) 1 0 0.0151(5) 
O4 O2- 8 j 0.12877(16) 0.14607(12) 0.1388(2) 1 0 0.0146(3) 
O5 O2- 8 j 0.04899(17) 0.27682(11) -0.1640(3) 1 0 0.0132(3) 

loop_
_atom_site_aniso_label
_atom_site_aniso_type_symbol
_atom_site_aniso_U_11
_atom_site_aniso_U_22
_atom_site_aniso_U_33
_atom_site_aniso_U_12
_atom_site_aniso_U_13
_atom_site_aniso_U_23
Na1 Na1+ 0.0219(7) 0.0264(7) 0.0163(7) 0.000 0.0016(6) 0.000
Na2 Na1+ 0.0204(5) 0.0238(5) 0.0172(5) 0.0032(4) 0.0066(4) 0.0002(4)
F1 F1- 0.0203(10) 0.0189(10) 0.0179(10) 0.000 0.0048(8) 0.000
Sn1 Sn4+ 0.00726(11) 0.00685(11) 0.00758(11) 0.000 0.00303(8) 0.000
Si1 Si4+ 0.0074(3) 0.0069(3) 0.0096(3) 0.0007(2) 0.0031(2) -0.0001(2)
Si2 Si4+ 0.0082(4) 0.0102(4) 0.0067(4) 0.000 0.0031(3) 0.000
O1 O2- 0.0118(7) 0.0113(7) 0.0102(7) 0.0046(6) 0.0035(6) 0.0010(6)
O2 O2- 0.0084(7) 0.0091(7) 0.0151(8) -0.0018(5) 0.0036(6) 0.0014(6)
O3 O2- 0.0113(10) 0.0085(10) 0.0263(12) 0.000 0.0076(9) 0.000
O4 O2- 0.0134(7) 0.0196(8) 0.0097(7) 0.0065(6) 0.0028(6) 0.0006(6)
O5 O2- 0.0157(8) 0.0155(8) 0.0087(7) -0.0050(6) 0.0050(6) -0.0010(6)
#End of data_171252-ICSD


