data_186773-ICSD
#?2014 by Fachinformationszentrum Karlsruhe, and the U.S. Secretary of 
#Commerce on behalf of the United States.  All rights reserved.
_database_code_ICSD                186773
_audit_creation_date               2013/08/01
_chemical_name_systematic          'Calcium Carbonate'
_chemical_formula_structural       'Ca (C O3)'
_chemical_formula_sum              'C1 Ca1 O3'
_chemical_name_mineral             Calcite
_publ_section_title
;
Ca C O3 - III and Ca C O3 - VI, high-pressure polymorphs of calcite: 
Possible host structures for carbon in the Earth's mantle
;
loop_
_citation_id
_citation_journal_abbrev
_citation_year
_citation_journal_volume
_citation_page_first
_citation_page_last
_citation_journal_id_ASTM
primary 'Earth and Planetary Science Letters' 2012 333 265 271 EPSLA2
_publ_author_name
;
Merlini, M.;Hanfland, M.;Crichton, W.A.
;
_cell_length_a                     3.319(2)
_cell_length_b                     4.883(3)
_cell_length_c                     5.590(2)
_cell_angle_alpha                  103.30(5)
_cell_angle_beta                   94.73(4)
_cell_angle_gamma                  89.21(6)
_cell_volume                       87.86
_cell_formula_units_Z              2
_symmetry_space_group_name_H-M     'P -1'
_symmetry_Int_Tables_number        2
_refine_ls_R_factor_all            .0684
loop_
_symmetry_equiv_pos_site_id
_symmetry_equiv_pos_as_xyz
  1	'-x, -y, -z'
  2	'x, y, z'
loop_
_atom_type_symbol
_atom_type_oxidation_number
C4+	4
Ca2+	2
O2-	-2
loop_
_atom_site_label
_atom_site_type_symbol
_atom_site_symmetry_multiplicity
_atom_site_Wyckoff_symbol
_atom_site_fract_x
_atom_site_fract_y
_atom_site_fract_z
_atom_site_occupancy
_atom_site_attached_hydrogens
_atom_site_U_iso_or_equiv
Ca1 Ca2+ 2 i 0.290(2) 0.6984(13) 0.7908(8) 1. 0 0.0159(13) 
O1 O2- 2 i 0.194(11) 0.595(5) 0.367(3) 1. 0 0.021(3) 
O2 O2- 2 i 0.250(12) 0.056(5) 0.338(3) 1. 0 0.020(4) 
O3 O2- 2 i 0.837(9) 0.756(5) 0.094(3) 1. 0 0.026(4) 
C1 C4+ 2 i 0.127(10) 0.837(5) 0.265(2) 1. 0 0.003(3) 

#End of data_186773-ICSD


