data_184863-ICSD
#?2014 by Fachinformationszentrum Karlsruhe, and the U.S. Secretary of 
#Commerce on behalf of the United States.  All rights reserved.
_database_code_ICSD                184863
_audit_creation_date               2013/02/01
_chemical_name_systematic          'Lithium Iron Phosphate'
_chemical_formula_structural       'Li Fe (P O4)'
_chemical_formula_sum              'Fe1 Li1 O4 P1'
_publ_section_title
;
Temperature-dependent crystallinity and morphology of Li Fe P O4 
prepared by hydrothermal synthesis
;
loop_
_citation_id
_citation_journal_abbrev
_citation_year
_citation_journal_volume
_citation_journal_issue
_citation_page_first
_citation_page_last
_citation_journal_id_ASTM
primary 'Journal of Materials Chemistry' 2012 22 18 9064 9068 JMACEP
_publ_author_name
;
Ou Xiuqin;Pan Lin;Gu Haichen;Wu Yichen;Lu Jianwei
;
_cell_length_a                     10.3006(6)
_cell_length_b                     5.9901(4)
_cell_length_c                     4.6782(3)
_cell_angle_alpha                  90.0
_cell_angle_beta                   90.0
_cell_angle_gamma                  90.0
_cell_volume                       288.65
_cell_formula_units_Z              4
_symmetry_space_group_name_H-M     'P n m a'
_symmetry_Int_Tables_number        62
_refine_ls_R_factor_all            .0118
loop_
_symmetry_equiv_pos_site_id
_symmetry_equiv_pos_as_xyz
  1	'x+.5, y, -z+.5'
  2	'x, -y+.5, z'
  3	'-x+.5, y+.5, z+.5'
  4	'-x, -y, -z'
  5	'-x+.5, -y, z+.5'
  6	'-x, y+.5, -z'
  7	'x+.5, -y+.5, -z+.5'
  8	'x, y, z'
loop_
_atom_type_symbol
_atom_type_oxidation_number
Fe2+	2
Li1+	1
O2-	-2
P5+	5
loop_
_atom_site_label
_atom_site_type_symbol
_atom_site_symmetry_multiplicity
_atom_site_Wyckoff_symbol
_atom_site_fract_x
_atom_site_fract_y
_atom_site_fract_z
_atom_site_occupancy
_atom_site_attached_hydrogens
_atom_site_B_iso_or_equiv
Li1 Li1+ 4 a 0.0 0.0 0.0 1.0 0 2.7(2) 
Fe1 Fe2+ 4 c 0.2825(3) 0.25 0.9739(9) 1.0 0 0.1(2) 
P1 P5+ 4 c 0.0981(7) 0.25 0.418(2) 1.0 0 -0.3(2) 
O1 O2- 4 c 0.093(1) 0.25 0.741(3) 1.0 0 0.1(4) 
O2 O2- 4 c 0.460(2) 0.25 0.202(2) 1.0 0 -0.6(4) 
O3 O2- 8 d 0.167(1) 0.046(2) 0.282(1) 1.0 0 -0.7(3) 

#End of data_184863-ICSD


