data_183294-ICSD
#?2014 by Fachinformationszentrum Karlsruhe, and the U.S. Secretary of 
#Commerce on behalf of the United States.  All rights reserved.
_database_code_ICSD                183294
_audit_creation_date               2012/08/01
_chemical_name_systematic
;
Sodium Rubidium Hydride (0.5/0.5/1)
;
_chemical_formula_structural       'Na0.5 Rb0.5 H'
_chemical_formula_sum              'H1 Na0.5 Rb0.5'
_publ_section_title
;
Structural, electronic, optical and thermodynamic properties of Nax 
Rb1-x H and Nax K1-x H alloys
;
loop_
_citation_id
_citation_journal_abbrev
_citation_year
_citation_journal_volume
_citation_page_first
_citation_page_last
_citation_journal_id_ASTM
primary 'Journal of Physics and Chemistry of Solids' 2012 73 1 7 JPCSAW
_publ_author_name
;
Fatmi, M.;Ghebouli, B.;Ghebouli, M.A.;Bouhemadou, A.;Binomran, S.
;
_cell_length_a                     5.590
_cell_length_b                     5.590
_cell_length_c                     5.590
_cell_angle_alpha                  90.
_cell_angle_beta                   90.
_cell_angle_gamma                  90.
_cell_volume                       174.68
_cell_formula_units_Z              4
_symmetry_space_group_name_H-M     'P 1'
_symmetry_Int_Tables_number        1
loop_
_symmetry_equiv_pos_site_id
_symmetry_equiv_pos_as_xyz
  1	'x, y, z'
loop_
_atom_type_symbol
_atom_type_oxidation_number
H1-	-1
Na1+	1
Rb1+	1
loop_
_atom_site_label
_atom_site_type_symbol
_atom_site_symmetry_multiplicity
_atom_site_Wyckoff_symbol
_atom_site_fract_x
_atom_site_fract_y
_atom_site_fract_z
_atom_site_occupancy
_atom_site_attached_hydrogens
Na1 Na1+ 1 a 0.5 0.5 0.5 1. 0 
Na2 Na1+ 1 a 0 0 0.5 1. 0 
Rb1 Rb1+ 1 a 0.5 0 0 1. 0 
Rb2 Rb1+ 1 a 0 0.5 0 1. 0 
H1 H1- 1 a 0 0 0 1. 0 
H2 H1- 1 a 0 0.5 0.5 1. 0 
H3 H1- 1 a 0.5 0 0.5 1. 0 
H4 H1- 1 a 0.5 0.5 0 1. 0 

#End of data_183294-ICSD


