data_14313-ICSD
#?2014 by Fachinformationszentrum Karlsruhe, and the U.S. Secretary of 
#Commerce on behalf of the United States.  All rights reserved.
_database_code_ICSD                14313
_audit_creation_date               1980/01/01
_audit_update_record               2010/02/01
_chemical_name_systematic          'Dicalcium Diphosphate(V) - Beta'
_chemical_formula_structural       'Ca2 (P2 O7)'
_chemical_formula_sum              'Ca2 O7 P2'
_publ_section_title
;
The crystal structure of - beta- Ca2 P2 O7
;
loop_
_citation_id
_citation_journal_abbrev
_citation_year
_citation_journal_volume
_citation_page_first
_citation_page_last
_citation_journal_id_ASTM
primary 'Acta Crystallographica (1,1948-23,1967)' 1966 21 942 948 ACCRA9
2 'Phase Transition' 1992 38 127 220 PHTRDP
_publ_author_name                  'Webb, N.C.'
_cell_length_a                     6.684(6)
_cell_length_b                     6.684(6)
_cell_length_c                     24.144(15)
_cell_angle_alpha                  90.
_cell_angle_beta                   90.
_cell_angle_gamma                  90.
_cell_volume                       1078.65
_cell_formula_units_Z              8
_symmetry_space_group_name_H-M     'P 41'
_symmetry_Int_Tables_number        76
_refine_ls_R_factor_all            .065
loop_
_symmetry_equiv_pos_site_id
_symmetry_equiv_pos_as_xyz
  1	'y, -x, z+.75'
  2	'-y, x, z+.25'
  3	'-x, -y, z+.5'
  4	'x, y, z'
loop_
_atom_type_symbol
_atom_type_oxidation_number
Ca2+	2
O2-	-2
P5+	5
loop_
_atom_site_label
_atom_site_type_symbol
_atom_site_symmetry_multiplicity
_atom_site_Wyckoff_symbol
_atom_site_fract_x
_atom_site_fract_y
_atom_site_fract_z
_atom_site_occupancy
_atom_site_attached_hydrogens
_atom_site_B_iso_or_equiv
Ca1 Ca2+ 4 a -.2101(4) 0.2656(4) 0 1. 0 0.35 
Ca2 Ca2+ 4 a 0.5449(4) 0.1583(4) 0.1454(1) 1. 0 0.55 
Ca3 Ca2+ 4 a 0.3619(4) -.1061(4) 0.0026(1) 1. 0 0.5 
Ca4 Ca2+ 4 a 0.1391(4) -.2314(4) 0.1379(1) 1. 0 0.56 
P1 P5+ 4 a -.1327(5) 0.7449(5) 0.0134(1) 1. 0 0.26 
P2 P5+ 4 a -.3782(5) 0.6929(5) 0.1141(1) 1. 0 0.38 
P3 P5+ 4 a 0.2893(5) 0.3544(5) 0.0171(1) 1. 0 0.43 
P4 P5+ 4 a 0.0467(5) 0.2850(5) 0.1194(2) 1. 0 0.42 
O1 O2- 4 a -.1012(13) 0.5912(13) -.0313(3) 1. 0 0.52 
O2 O2- 4 a -.2615(13) 0.9166(14) -.0096(4) 1. 0 0.63 
O3 O2- 4 a 0.0529(13) 0.8224(13) 0.0427(3) 1. 0 0.63 
O4 O2- 4 a -.2612(14) 0.6186(14) 0.0593(4) 1. 0 0.86 
O5 O2- 4 a 0.5338(15) 0.5072(17) 0.1369(4) 1. 0 1.3 
O6 O2- 4 a 0.4610(14) 0.8407(14) 0.0951(4) 1. 0 0.92 
O7 O2- 4 a -.2256(13) 0.7986(14) 0.1509(4) 1. 0 0.6 
O8 O2- 4 a 0.3460(13) 0.5469(13) -.0105(3) 1. 0 0.64 
O9 O2- 4 a 0.4627(14) 0.2274(14) 0.0356(4) 1. 0 0.87 
O10 O2- 4 a 0.1481(14) 0.2252(14) -.0201(4) 1. 0 0.94 
O11 O2- 4 a 0.1595(14) 0.4055(15) 0.0704(4) 1. 0 0.78 
O12 O2- 4 a 0.0222(15) 0.4458(14) 0.1624(4) 1. 0 0.89 
O13 O2- 4 a 0.1892(15) 0.1198(15) 0.1382(4) 1. 0 1.01 
O14 O2- 4 a -.1492(14) 0.2105(14) 0.0942(4) 1. 0 0.74 

#End of data_14313-ICSD


