data_245412-ICSD
#?2014 by Fachinformationszentrum Karlsruhe, and the U.S. Secretary of 
#Commerce on behalf of the United States.  All rights reserved.
_database_code_ICSD                245412
_audit_creation_date               2008/02/01
_audit_update_record               2010/08/01
_chemical_name_systematic          'Tetrasodium Tetraoxocarbonate'
_chemical_formula_structural       'Na4 (C O4)'
_chemical_formula_sum              'C1 Na4 O4'
_publ_section_title
;
Possible existence of alkali metal orthocarbonates at high pressure
;
loop_
_citation_id
_citation_journal_abbrev
_citation_year
_citation_journal_volume
_citation_journal_issue
_citation_page_first
_citation_page_last
_citation_journal_id_ASTM
primary 'Chemistry - A European Journal' 2007 13 26 7330 7348 CEUJED
_publ_author_name
;
Cancarevic, Z.;Schoen, J.C.;Jansen, M.
;
_cell_length_a                     4.45335
_cell_length_b                     4.45335
_cell_length_c                     4.45335
_cell_angle_alpha                  88.09780
_cell_angle_beta                   88.09780
_cell_angle_gamma                  88.09780
_cell_volume                       88.18
_cell_formula_units_Z              1
_symmetry_space_group_name_H-M     'R 3 R'
_symmetry_Int_Tables_number        146
loop_
_symmetry_equiv_pos_site_id
_symmetry_equiv_pos_as_xyz
  1	'z, x, y'
  2	'y, z, x'
  3	'x, y, z'
loop_
_atom_type_symbol
_atom_type_oxidation_number
C4+	4
Na1+	1
O2-	-2
loop_
_atom_site_label
_atom_site_type_symbol
_atom_site_symmetry_multiplicity
_atom_site_Wyckoff_symbol
_atom_site_fract_x
_atom_site_fract_y
_atom_site_fract_z
_atom_site_occupancy
_atom_site_attached_hydrogens
C1 C4+ 1 a 0.12305 0.12305 0.12305 1. 0 
O1 O2- 3 b 0.98591 0.31795 0.87406 1. 0 
O2 O2- 1 a 0.31070 0.31070 0.31070 1. 0 
Na1 Na1+ 1 a 0.84400 0.84400 0.84400 1. 0 
Na2 Na1+ 3 b 0.33876 0.83598 0.47403 1. 0 

#End of data_245412-ICSD


