data_412955-ICSD
#?2014 by Fachinformationszentrum Karlsruhe, and the U.S. Secretary of 
#Commerce on behalf of the United States.  All rights reserved.
_database_code_ICSD                412955
_audit_creation_date               2003/10/01
_chemical_name_systematic
;
Dipotassium Tetrafluorooxotellurate
;
_chemical_formula_structural       'K2 (Te O F4)'
_chemical_formula_sum              'F4 K2 O1 Te1'
_publ_section_title
;
The commensurately modulated structure of K2 Te O F4
;
loop_
_citation_id
_citation_journal_abbrev
_citation_year
_citation_journal_volume
_citation_page_first
_citation_page_last
_citation_journal_id_ASTM
primary 'Solid State Sciences' 2003 5 249 255 SSSCFJ
_publ_author_name
;
Kessler, U.;Friese, K.;Paulmann, C.;Jansen, M.
;
_cell_length_a                     6.3002(6)
_cell_length_b                     13.9886(14)
_cell_length_c                     6.5170(6)
_cell_angle_alpha                  90.
_cell_angle_beta                   90.
_cell_angle_gamma                  90.
_cell_volume                       574.35
_cell_formula_units_Z              4
_symmetry_space_group_name_H-M     'C m c m'
_symmetry_Int_Tables_number        63
_refine_ls_R_factor_all            .096
loop_
_symmetry_equiv_pos_site_id
_symmetry_equiv_pos_as_xyz
  1	'-x, y, -z+.5'
  2	'-x, -y, z+.5'
  3	'-x, y, z'
  4	'-x, -y, -z'
  5	'x, -y, z+.5'
  6	'x, y, -z+.5'
  7	'x, -y, -z'
  8	'x, y, z'
  9	'-x+.5, y+.5, -z+.5'
 10	'-x+.5, -y+.5, z+.5'
 11	'-x+.5, y+.5, z'
 12	'-x+.5, -y+.5, -z'
 13	'x+.5, -y+.5, z+.5'
 14	'x+.5, y+.5, -z+.5'
 15	'x+.5, -y+.5, -z'
 16	'x+.5, y+.5, z'
loop_
_atom_type_symbol
_atom_type_oxidation_number
F1-	-1
K1+	1
O2-	-2
Te4+	4
loop_
_atom_site_label
_atom_site_type_symbol
_atom_site_symmetry_multiplicity
_atom_site_Wyckoff_symbol
_atom_site_fract_x
_atom_site_fract_y
_atom_site_fract_z
_atom_site_occupancy
_atom_site_attached_hydrogens
_atom_site_U_iso_or_equiv
Te1 Te4+ 4 c 0 -.10313(4) 0.25 1. 0 0.0271(2) 
K1 K1+ 4 c 0 0.2521(1) 0.25 1. 0 0.0401(8) 
K2 K1+ 4 c 0 0.5770(1) 0.25 1. 0 0.0364(4) 
O1 O2- 4 c 0 -.2281(4) 0.25 1. 0 0.045(3) 
F1 F1- 16 h -.2337(7) -.1078(4) 0.4576(7) 1. 0 0.057(2) 

loop_
_atom_site_aniso_label
_atom_site_aniso_type_symbol
_atom_site_aniso_U_11
_atom_site_aniso_U_22
_atom_site_aniso_U_33
_atom_site_aniso_U_12
_atom_site_aniso_U_13
_atom_site_aniso_U_23
Te1 Te4+ 0.0248(2) 0.0308(2) 0.0256(4) 0 0 0
K1 K1+ 0.0447(8) 0.0451(8) 0.0305(21) 0 0 0
K2 K1+ 0.0337(7) 0.0447(8) 0.0310(9) 0 0 0
O1 O2- 0.067(4) 0.0304(3) 0.037(7) 0 0 0
F1 F1- 0.056(3) 0.052(3) 0.064(4) 0.009(3) 0.034(3) 0.010(3)
#End of data_412955-ICSD


