data_417762-ICSD
#?2014 by Fachinformationszentrum Karlsruhe, and the U.S. Secretary of 
#Commerce on behalf of the United States.  All rights reserved.
_database_code_ICSD                417762
_audit_creation_date               2008/02/01
_chemical_name_systematic          'Potassium Trinitromethanide'
_chemical_formula_structural       'K C (N O2)3'
_chemical_formula_sum              'C1 K1 N3 O6'
_publ_section_title
;
Potassium-,ammonium-,hydazinium-,guanidinium-,aminoguanidinium-
,diaminoguanidinium-,triaminoguanidinium- and melaminiumnitroformate -
 synthesis, characterization and energetic properties
;
loop_
_citation_id
_citation_journal_abbrev
_citation_year
_citation_journal_volume
_citation_journal_issue
_citation_page_first
_citation_page_last
_citation_journal_id_ASTM
primary 'Zeitschrift fuer Anorganische und Allgemeine Chemie (1950) (DE)'
 2007 633 7 1006 1017 ZAACAB
_publ_author_name                  'Goebel, M.;Klapoetke, T.M.'
_cell_length_a                     7.541(5)
_cell_length_b                     8.041(5)
_cell_length_c                     9.031(5)
_cell_angle_alpha                  90.000(5)
_cell_angle_beta                   99.334(5)
_cell_angle_gamma                  90.000(5)
_cell_volume                       540.36
_cell_formula_units_Z              4
_symmetry_space_group_name_H-M     'P 1 21/n 1'
_symmetry_Int_Tables_number        14
_refine_ls_R_factor_all            .048
loop_
_symmetry_equiv_pos_site_id
_symmetry_equiv_pos_as_xyz
  1	'-x+.5, y+.5, -z+.5'
  2	'-x, -y, -z'
  3	'x+.5, -y+.5, z+.5'
  4	'x, y, z'
loop_
_atom_type_symbol
_atom_type_oxidation_number
C2+	2
K1+	1
N3+	3
O2-	-2
loop_
_atom_site_label
_atom_site_type_symbol
_atom_site_symmetry_multiplicity
_atom_site_Wyckoff_symbol
_atom_site_fract_x
_atom_site_fract_y
_atom_site_fract_z
_atom_site_occupancy
_atom_site_attached_hydrogens
_atom_site_U_iso_or_equiv
K1 K1+ 4 e 1.25563(7) -0.10611(7) 0.36934(6) 1 0 0.02287(19) 
O1 O2- 4 e 1.0803(2) -0.4139(2) 0.35256(18) 1 0 0.0238(4) 
O2 O2- 4 e 0.7068(2) -0.2454(2) 0.57345(18) 1 0 0.0240(4) 
O3 O2- 4 e 0.8741(2) -0.4930(2) 0.17355(18) 1 0 0.0267(4) 
N1 N3+ 4 e 0.9207(3) -0.4303(2) 0.2983(2) 1 0 0.0165(4) 
O4 O2- 4 e 0.4836(2) -0.3760(2) 0.3504(2) 1 0 0.0323(5) 
O5 O2- 4 e 0.9618(2) -0.1830(2) 0.51121(19) 1 0 0.0303(5) 
N2 N3+ 4 e 0.8222(3) -0.2647(2) 0.4924(2) 1 0 0.0182(5) 
O6 O2- 4 e 0.6162(3) -0.6031(2) 0.3150(2) 1 0 0.0357(5) 
N3 N3+ 4 e 0.6194(3) -0.4554(3) 0.3455(2) 1 0 0.0209(5) 
C1 C2+ 4 e 0.7892(3) -0.3778(3) 0.3772(2) 1 0 0.0164(5) 

loop_
_atom_site_aniso_label
_atom_site_aniso_type_symbol
_atom_site_aniso_U_11
_atom_site_aniso_U_22
_atom_site_aniso_U_33
_atom_site_aniso_U_12
_atom_site_aniso_U_13
_atom_site_aniso_U_23
K1 K1+ 0.0242(3) 0.0213(3) 0.0245(3) -0.0035(2) 0.0080(2) -0.0030(2)
O1 O2- 0.0151(9) 0.0266(9) 0.0294(10) 0.0026(8) 0.0027(7) 0.0014(8)
O2 O2- 0.0300(10) 0.0259(10) 0.0194(8) -0.0013(8) 0.0143(8) -0.0043(8)
O3 O2- 0.0322(10) 0.0310(10) 0.0185(9) -0.0045(8) 0.0092(8) -0.0099(8)
N1 N3+ 0.0192(11) 0.0125(10) 0.0185(10) -0.0004(8) 0.0049(8) 0.0021(8)
O4 O2- 0.0172(9) 0.0438(12) 0.0352(11) 0.0057(9) 0.0027(8) -0.0019(10)
O5 O2- 0.0311(10) 0.0313(10) 0.0304(10) -0.0138(9) 0.0104(8) -0.0124(9)
N2 N3+ 0.0243(11) 0.0142(10) 0.0164(10) -0.0013(9) 0.0045(9) 0.0007(8)
O6 O2- 0.0371(12) 0.0254(11) 0.0494(12) -0.0140(9) 0.0212(10) -0.0179(10)
N3 N3+ 0.0212(12) 0.0257(12) 0.0167(10) -0.0018(9) 0.0055(9) -0.0026(9)
C1 C2+ 0.0184(12) 0.0161(12) 0.0150(11) -0.0007(10) 0.0033(9) -0.0024(10)
#End of data_417762-ICSD


