data_107287-ICSD
#?2014 by Fachinformationszentrum Karlsruhe, and the U.S. Secretary of 
#Commerce on behalf of the United States.  All rights reserved.
_database_code_ICSD                107287
_audit_creation_date               2013/08/01
_chemical_name_systematic          'Zinc Sulfate(VI) Heptahydrate'
_chemical_formula_structural       'Zn (S O4) (H2 O)7'
_chemical_formula_sum              'H14 O11 S1 Zn1'
_chemical_name_mineral             Goslarite
_publ_section_title                Goslarite
loop_
_citation_id
_citation_journal_abbrev
_citation_year
_citation_journal_volume
_citation_journal_issue
_citation_page_first
_citation_page_last
_citation_journal_id_ASTM
primary 'National Bureau of Standards (U.S.), Circular' 1959 536 8 71 73 NBSCAA
_publ_author_name                  'Palache, C.;Berman, H.;Frondel, C.'
_cell_length_a                     11.779
_cell_length_b                     12.050
_cell_length_c                     6.822
_cell_angle_alpha                  90.
_cell_angle_beta                   90.
_cell_angle_gamma                  90.
_cell_volume                       968.29
_cell_formula_units_Z              4
_symmetry_space_group_name_H-M     'P 21 21 21'
_symmetry_Int_Tables_number        19
loop_
_symmetry_equiv_pos_site_id
_symmetry_equiv_pos_as_xyz
  1	'-x, y+.5, -z+.5'
  2	'x+.5, -y+.5, -z'
  3	'-x+.5, -y, z+.5'
  4	'x, y, z'
loop_
_atom_type_symbol
_atom_type_oxidation_number
H1+	1
O2-	-2
S6+	6
Zn2+	2
loop_
_atom_site_label
_atom_site_type_symbol
_atom_site_symmetry_multiplicity
_atom_site_Wyckoff_symbol
_atom_site_fract_x
_atom_site_fract_y
_atom_site_fract_z
_atom_site_occupancy
_atom_site_attached_hydrogens
_atom_site_U_iso_or_equiv
Zn1 Zn2+ 4 a 0.423 0.10616(3) 0.040 1. 0 0.018 
S1 S6+ 4 a 0.727 0.18391(2) 0.490 1. 0 0.018 
O1 O2- 4 a 0.685 0.07519(8) 0.428 1. 0 0.039 
O2 O2- 4 a 0.850 0.18643(9) 0.483 1. 0 0.031 
O3 O2- 4 a 0.689 0.20604(10) 0.691 1. 0 0.034 
O4 O2- 4 a 0.681 0.27242(8) 0.362 1. 0 0.029 
O5 O2- 4 a 0.265 0.17375(9) 0.003 1. 0 0.029 
O6 O2- 4 a 0.472 0.24819(7) 0.198 1. 0 0.024 
O7 O2- 4 a 0.469 0.176 0.779 1. 0 0.029 
O8 O2- 4 a 0.583 0.046 0.077 1. 0 0.034 
O9 O2- 4 a 0.376 0.961 0.889 1. 0 0.027 
O10 O2- 4 a 0.362 0.034 0.291 1. 0 0.032 
O11 O2- 4 a 0.492 0.438 0.939 1. 0 0.034 
H1 H1+ 4 a 0.234 0.227 0.075 1. 0 0.036 
H2 H1+ 4 a 0.240 0.186 -.118 1. 0 0.036 
H3 H1+ 4 a 0.426 0.264 0.295 1. 0 0.028 
H4 H1+ 4 a 0.541 0.244 0.253 1. 0 0.028 
H5 H1+ 4 a 0.440 0.237 0.707 1. 0 0.035 
H6 H1+ 4 a 0.542 0.186 0.739 1. 0 0.035 
H7 H1+ 4 a 0.626 0.066 0.186 1. 0 0.041 
H8 H1+ 4 a 0.610 -.022 0.040 1. 0 0.041 
H9 H1+ 4 a 0.361 0.890 0.932 1. 0 0.032 
H10 H1+ 4 a 0.412 0.954 0.785 1. 0 0.032 
H11 H1+ 4 a 0.290 0.033 0.336 1. 0 0.039 
H12 H1+ 4 a 0.405 -.001 0.395 1. 0 0.039 
H13 H1+ 4 a 0.424 0.479 0.934 1. 0 0.041 
H14 H1+ 4 a 0.475 0.378 0.989 1. 0 0.041 

#End of data_107287-ICSD


