data_172413-ICSD
#?2014 by Fachinformationszentrum Karlsruhe, and the U.S. Secretary of 
#Commerce on behalf of the United States.  All rights reserved.
_database_code_ICSD                172413
_audit_creation_date               2007/04/01
_audit_update_record               2014/02/01
_chemical_name_systematic
;
Sodium Lanthanum Magnesium Hexatungstate
;
_chemical_formula_structural       'Na La Mg W O6'
_chemical_formula_sum              'La1 Mg1 Na1 O6 W1'
_chemical_name_mineral             'Perovskite, double'
_publ_section_title
;
A-site cation ordering in A A' B B' O6 perovskites
;
loop_
_citation_id
_citation_journal_abbrev
_citation_year
_citation_journal_volume
_citation_journal_issue
_citation_page_first
_citation_page_last
_citation_journal_id_ASTM
primary 'Journal of Solid State Chemistry' 2006 179 4 1076 1085 JSSCBI
_publ_author_name                  'Knapp, M.C.;Woodward, P.M.'
_cell_length_a                     7.8074(1)
_cell_length_b                     7.8158(1)
_cell_length_c                     7.8977(1)
_cell_angle_alpha                  90
_cell_angle_beta                   90.136(1)
_cell_angle_gamma                  90
_cell_volume                       481.92
_cell_formula_units_Z              4
_symmetry_space_group_name_H-M     'C 1 2/m 1'
_symmetry_Int_Tables_number        12
_refine_ls_R_factor_all            .1449
loop_
_symmetry_equiv_pos_site_id
_symmetry_equiv_pos_as_xyz
  1	'-x, y, -z'
  2	'-x, -y, -z'
  3	'x, -y, z'
  4	'x, y, z'
  5	'-x+.5, y+.5, -z'
  6	'-x+.5, -y+.5, -z'
  7	'x+.5, -y+.5, z'
  8	'x+.5, y+.5, z'
loop_
_atom_type_symbol
_atom_type_oxidation_number
La3+	3
Mg2+	2
Na1+	1
O2-	-2
W6+	6
loop_
_atom_site_label
_atom_site_type_symbol
_atom_site_symmetry_multiplicity
_atom_site_Wyckoff_symbol
_atom_site_fract_x
_atom_site_fract_y
_atom_site_fract_z
_atom_site_occupancy
_atom_site_attached_hydrogens
_atom_site_B_iso_or_equiv
Na1 Na1+ 4 h 0 0.243(3) 0.5 1. 0 .66(6) 
La1 La3+ 4 g 0 0.2494(5) 0 1. 0 .66(6) 
Mg1 Mg2+ 4 i 0.748(2) 0 0.745(1) 1. 0 .21(5) 
W1 W6+ 4 i 0.2489(3) 0 0.7331(1) 1. 0 .21(5) 
O1 O2- 4 i 0.005(4) 0 0.706(4) 1. 0 2.4(3) 
O2 O2- 8 j 0.750(3) 0.259(3) 0.767(3) 1. 0 2.4(3) 
O3 O2- 4 i 0.701(3) 0 0.492(2) 1. 0 2.6(3) 
O4 O2- 4 i 0.496(4) 0 0.790(5) 1. 0 2.4(3) 
O5 O2- 4 i 0.786(4) 0 0.998(2) 1. 0 3.3(6) 

#End of data_172413-ICSD


