data_300184-ICSD
#?2014 by Fachinformationszentrum Karlsruhe, and the U.S. Secretary of 
#Commerce on behalf of the United States.  All rights reserved.
_database_code_ICSD                300184
_audit_creation_date               1991/07/10
_audit_update_record               1991/10/31
_chemical_name_systematic
;
Tetrapotassium Tetratellurodiarsenate(II)
;
_chemical_formula_structural       'K4 As2 Te4'
_chemical_formula_sum              'As2 K4 Te4'
_publ_section_title
;
Crystal structure of tetrapotassium tetratellurodiarsenate(II)
;
loop_
_citation_id
_citation_journal_abbrev
_citation_year
_citation_journal_volume
_citation_page_first
_citation_page_last
_citation_journal_id_ASTM
primary 'Zeitschrift fuer Kristallographie (1979-2010)' 1991 197 259 260 ZEKRDZ
_publ_author_name
;
Eisenmann, B.;Jaeger, J.;Zagler, R.
;
_cell_length_a                     19.981(5)
_cell_length_b                     8.290(3)
_cell_length_c                     9.081(3)
_cell_angle_alpha                  90.
_cell_angle_beta                   90.
_cell_angle_gamma                  90.
_cell_volume                       1504.2
_cell_formula_units_Z              4
_symmetry_space_group_name_H-M     'P n m a'
_symmetry_Int_Tables_number        62
_refine_ls_R_factor_all            .067
loop_
_symmetry_equiv_pos_site_id
_symmetry_equiv_pos_as_xyz
  1	'x+.5, y, -z+.5'
  2	'x, -y+.5, z'
  3	'-x+.5, y+.5, z+.5'
  4	'-x, -y, -z'
  5	'-x+.5, -y, z+.5'
  6	'-x, y+.5, -z'
  7	'x+.5, -y+.5, -z+.5'
  8	'x, y, z'
loop_
_atom_type_symbol
_atom_type_oxidation_number
As2+	2
K1+	1
Te2-	-2
loop_
_atom_site_label
_atom_site_type_symbol
_atom_site_symmetry_multiplicity
_atom_site_Wyckoff_symbol
_atom_site_fract_x
_atom_site_fract_y
_atom_site_fract_z
_atom_site_occupancy
_atom_site_attached_hydrogens
K1 K1+ 4 c 0.5432(2) 0.25 0.42086(60) 1. 0 
K2 K1+ 4 c 0.18771(30) 0.25 0.49687(50) 1. 0 
K3 K1+ 4 c 0.71667(30) 0.25 0.60238(60) 1. 0 
K4 K1+ 4 c 0.44438(30) 0.25 0.92364(60) 1. 0 
As1 As2+ 4 c 0.34798(9) 0.25 0.31442(20) 1. 0 
As2 As2+ 4 c 0.38722(9) 0.25 0.57293(20) 1. 0 
Te1 Te2- 8 d 0.41795(4) 0.99885(10) 0.23932(10) 1. 0 
Te2 Te2- 8 d 0.17922(5) 0.99038(10) 0.18104(10) 1. 0 

#End of data_300184-ICSD


