data_250467-ICSD
#?2014 by Fachinformationszentrum Karlsruhe, and the U.S. Secretary of 
#Commerce on behalf of the United States.  All rights reserved.
_database_code_ICSD                250467
_audit_creation_date               2008/08/01
_chemical_name_systematic
;
Dipotassium Tetranitrato(V)niccolate
;
_chemical_formula_structural       'K2 (Ni (N O3)4)'
_chemical_formula_sum              'K2 N4 Ni1 O12'
_publ_section_title
;
Synthesis and crystal structures of nitratocobaltates Na2 [Co (N 
O3)4], K2 [Co (N O3)4], and Ag [Co (N O3)3], and potassium 
nitratonickelate K2 [Ni (N O3)4]
;
loop_
_citation_id
_citation_journal_abbrev
_citation_year
_citation_journal_volume
_citation_journal_issue
_citation_page_first
_citation_page_last
_citation_journal_id_ASTM
primary Kristallografiya 2008 53 2 264 272 KRISAJ
2 'Crystallography Reports' 2008 53 2 237 245 CYSTE3
_publ_author_name
;
Morozov,  I.V.;Fedorova, A.A.;Albov, D.V.;Kuznetsova, N.R.;Romanov, 
I.A.;Rybakov, V.B.;Troyanov, S.I.
;
_cell_length_a                     16.739(3)
_cell_length_b                     7.0200(14)
_cell_length_c                     9.0500(18)
_cell_angle_alpha                  90.00
_cell_angle_beta                   98.67(3)
_cell_angle_gamma                  90.00
_cell_volume                       1051.29
_cell_formula_units_Z              4
_symmetry_space_group_name_H-M     'C 1 c 1'
_symmetry_Int_Tables_number        9
_refine_ls_R_factor_all            .0178
loop_
_symmetry_equiv_pos_site_id
_symmetry_equiv_pos_as_xyz
  1	'x, -y, z+.5'
  2	'x, y, z'
  3	'x+.5, -y+.5, z+.5'
  4	'x+.5, y+.5, z'
loop_
_atom_type_symbol
_atom_type_oxidation_number
K1+	1
N5+	5
Ni2+	2
O2-	-2
loop_
_atom_site_label
_atom_site_type_symbol
_atom_site_symmetry_multiplicity
_atom_site_Wyckoff_symbol
_atom_site_fract_x
_atom_site_fract_y
_atom_site_fract_z
_atom_site_occupancy
_atom_site_attached_hydrogens
_atom_site_U_iso_or_equiv
Ni1 Ni2+ 4 a 0.620340(11) 0.65437(3) 0.324214(14) 1 0 0.01243(6) 
K1 K1+ 4 a 0.44157(3) 0.86944(6) 0.64921(4) 1 0 0.02129(9) 
K2 K1+ 4 a 0.74000(3) 0.84726(6) 0.71872(5) 1 0 0.02326(10) 
O1 O2- 4 a 0.66451(9) 0.3936(2) 0.39182(14) 1 0 0.0181(2) 
O2 O2- 4 a 0.13685(8) 0.93683(19) 0.61597(14) 1 0 0.0176(2) 
O3 O2- 4 a 0.19566(9) 0.67496(19) 0.55723(17) 1 0 0.0211(3) 
O4 O2- 4 a 0.51056(8) 0.5217(2) 0.26608(17) 1 0 0.0225(3) 
O5 O2- 4 a 0.42779(9) 0.7298(2) 0.34183(19) 1 0 0.0295(3) 
O6 O2- 4 a 0.88351(9) 1.0396(2) 0.7474(2) 1 0 0.0349(4) 
O7 O2- 4 a 0.58056(8) 1.0687(2) 0.78503(13) 1 0 0.0180(3) 
O8 O2- 4 a 0.58410(8) 0.80993(18) 0.50505(14) 1 0 0.0157(2) 
O9 O2- 4 a 0.52517(9) 1.0855(2) 0.45302(15) 1 0 0.0195(3) 
O10 O2- 4 a 0.23147(8) 0.7333(2) 0.90240(15) 1 0 0.0197(3) 
O11 O2- 4 a 0.30546(10) 0.9287(3) 0.7918(2) 1 0 0.0310(3) 
O12 O2- 4 a 0.34576(11) 0.8326(3) 1.0180(2) 1 0 0.0438(5) 
N1 N5+ 4 a 0.29605(10) 0.8352(2) 0.9028(2) 1 0 0.0205(3) 
N2 N5+ 4 a 0.56246(9) 0.9479(2) 0.41716(16) 1 0 0.0145(3) 
N3 N5+ 4 a 0.16610(10) 0.8316(2) 0.52454(17) 1 0 0.0137(3) 
N4 N5+ 4 a -0.06010(10) 1.0734(2) 0.2871(2) 1 0 0.0204(3) 

loop_
_atom_site_aniso_label
_atom_site_aniso_type_symbol
_atom_site_aniso_U_11
_atom_site_aniso_U_22
_atom_site_aniso_U_33
_atom_site_aniso_U_12
_atom_site_aniso_U_13
_atom_site_aniso_U_23
Ni1 Ni2+ 0.01373(10) 0.01323(10) 0.01084(9) 0.00123(8) 0.00347(6) 
-0.00078(8)
K1 K1+ 0.01727(17) 0.02668(19) 0.02050(18) -0.00244(15) 0.00470(13) 
0.00121(15)
K2 K1+ 0.0212(2) 0.0269(2) 0.02207(19) -0.00315(16) 0.00451(15) 0.00737(15)
O1 O2- 0.0254(6) 0.0174(6) 0.0131(5) 0.0050(5) 0.0080(5) 0.0031(5)
O2 O2- 0.0250(6) 0.0168(6) 0.0125(5) 0.0041(5) 0.0079(4) -0.0001(5)
O3 O2- 0.0271(7) 0.0142(6) 0.0219(7) 0.0067(5) 0.0035(5) 0.0026(5)
O4 O2- 0.0126(6) 0.0228(7) 0.0327(7) -0.0011(5) 0.0055(5) -0.0080(6)
O5 O2- 0.0213(7) 0.0278(8) 0.0389(9) 0.0051(6) 0.0025(6) -0.0125(6)
O6 O2- 0.0166(7) 0.0235(7) 0.0641(11) 0.0041(6) 0.0044(7) 0.0076(8)
O7 O2- 0.0228(7) 0.0199(6) 0.0123(5) -0.0036(5) 0.0059(5) -0.0005(4)
O8 O2- 0.0183(6) 0.0152(5) 0.0140(5) 0.0027(5) 0.0033(4) 0.0019(5)
O9 O2- 0.0212(6) 0.0165(6) 0.0215(6) 0.0053(5) 0.0053(5) -0.0022(5)
O10 O2- 0.0118(5) 0.0211(6) 0.0261(6) -0.0029(5) 0.0030(5) 0.0062(5)
O11 O2- 0.0255(8) 0.0290(8) 0.0421(9) -0.0011(6) 0.0166(7) 0.0087(7)
O12 O2- 0.0290(9) 0.0607(13) 0.0376(10) -0.0154(8) -0.0084(7) -0.0054(8)
N1 N5+ 0.0145(7) 0.0205(8) 0.0275(8) -0.0018(6) 0.0066(6) -0.0035(6)
N2 N5+ 0.0142(6) 0.0157(6) 0.0138(6) 0.0005(5) 0.0027(5) -0.0008(5)
N3 N5+ 0.0148(6) 0.0145(7) 0.0122(6) -0.0002(5) 0.0040(5) 0.0000(5)
N4 N5+ 0.0146(7) 0.0219(7) 0.0245(8) 0.0001(6) 0.0025(6) -0.0013(6)
#End of data_250467-ICSD


