data_96698-ICSD
#?2014 by Fachinformationszentrum Karlsruhe, and the U.S. Secretary of 
#Commerce on behalf of the United States.  All rights reserved.
_database_code_ICSD                96698
_audit_creation_date               2004/10/01
_chemical_name_systematic          'Tricalcium Dimanganate(IV)'
_chemical_formula_structural       'Ca3 (Mn2 O7)'
_chemical_formula_sum              'Ca3 Mn2 O7'
_publ_section_title
;
TEM study of the electron-doped layered La2-2x Ca1+2x Mn2 O7: 
orthorhombic phase in the 0.8 < x < 1.0 composition range
;
loop_
_citation_id
_citation_journal_abbrev
_citation_year
_citation_journal_volume
_citation_page_first
_citation_page_last
_citation_journal_id_ASTM
primary 'Journal of Solid State Chemistry' 2001 157 309 323 JSSCBI
_publ_author_name
;
Bendersky, L.A.;Chen Rong Ji;Fawcett, I.D.;Greenblatt, M.
;
_cell_length_a                     19.37
_cell_length_b                     5.27
_cell_length_c                     5.27
_cell_angle_alpha                  90
_cell_angle_beta                   90
_cell_angle_gamma                  90
_cell_volume                       537.96
_cell_formula_units_Z              4
_symmetry_space_group_name_H-M     'C m c 21'
_symmetry_Int_Tables_number        36
loop_
_symmetry_equiv_pos_site_id
_symmetry_equiv_pos_as_xyz
  1	'x, -y, z+.5'
  2	'-x, -y, z+.5'
  3	'-x, y, z'
  4	'x, y, z'
  5	'x+.5, -y+.5, z+.5'
  6	'-x+.5, -y+.5, z+.5'
  7	'-x+.5, y+.5, z'
  8	'x+.5, y+.5, z'
loop_
_atom_type_symbol
_atom_type_oxidation_number
Ca2+	2
Mn4+	4
O2-	-2
loop_
_atom_site_label
_atom_site_type_symbol
_atom_site_symmetry_multiplicity
_atom_site_Wyckoff_symbol
_atom_site_fract_x
_atom_site_fract_y
_atom_site_fract_z
_atom_site_occupancy
_atom_site_attached_hydrogens
Ca1 Ca2+ 4 a 0.5 0.750 0.750 1. 0 
Ca2 Ca2+ 8 b 0.31 0.750 0.750 1. 0 
Mn1 Mn4+ 8 b 0.098 0.750 0.750 1. 0 
O1 O2- 4 a 0 0.8447 0.750 1. 0 
O2 O2- 8 b 0.10585 -.00852 -0.0647 1. 0 
O3 O2- 8 b 0.06835 0.50852 0.0647 1. 0 
O4 O2- 8 b 0.205 0.65528 0.750 1. 0 

#End of data_96698-ICSD


