data_87933-ICSD
#?2014 by Fachinformationszentrum Karlsruhe, and the U.S. Secretary of 
#Commerce on behalf of the United States.  All rights reserved.
_database_code_ICSD                87933
_audit_creation_date               2001/07/16
_chemical_name_systematic          'Zinc Tungstate'
_chemical_formula_structural       'Zn (W O4)'
_chemical_formula_sum              'O4 W1 Zn1'
_publ_section_title
;
Structural changes in the system Zn1-x Cdx W O4, determined from 
single crystal data
;
loop_
_citation_id
_citation_journal_abbrev
_citation_year
_citation_journal_volume
_citation_page_first
_citation_page_last
_citation_journal_id_ASTM
primary 'Acta Chemica Scandinavica (43,1989-)' 1999 53 1103 1109 ACHSE7
_publ_author_name                  'Dahlborg, M.A.;Svensson, G.'
_cell_length_a                     4.6986(8)
_cell_length_b                     5.7293(8)
_cell_length_c                     4.9367(11)
_cell_angle_alpha                  90.
_cell_angle_beta                   90.615(25)
_cell_angle_gamma                  90.
_cell_volume                       132.89
_cell_formula_units_Z              2
_symmetry_space_group_name_H-M     'P 1 2/c 1'
_symmetry_Int_Tables_number        13
_refine_ls_R_factor_all            .033
loop_
_symmetry_equiv_pos_site_id
_symmetry_equiv_pos_as_xyz
  1	'x, -y, z+.5'
  2	'-x, -y, -z'
  3	'-x, y, -z+.5'
  4	'x, y, z'
loop_
_atom_type_symbol
_atom_type_oxidation_number
O2-	-2
W6+	6
Zn2+	2
loop_
_atom_site_label
_atom_site_type_symbol
_atom_site_symmetry_multiplicity
_atom_site_Wyckoff_symbol
_atom_site_fract_x
_atom_site_fract_y
_atom_site_fract_z
_atom_site_occupancy
_atom_site_attached_hydrogens
_atom_site_U_iso_or_equiv
W1 W6+ 2 e 0 0.18258(6) 0.25 1. 0 0.00456(14) 
Zn1 Zn2+ 2 f 0.5 0.6840(6) 0.25 1. 0 0.0078(2) 
O1 O2- 4 g 0.2169(10) 0.1051(9) -.0637(9) 1. 0 0.0074(7) 
O2 O2- 4 g 0.2565(10) 0.3777(8) 0.3996(10) 1. 0 0.0074(7) 

#End of data_87933-ICSD


