data_38360-ICSD
#?2014 by Fachinformationszentrum Karlsruhe, and the U.S. Secretary of 
#Commerce on behalf of the United States.  All rights reserved.
_database_code_ICSD                38360
_audit_creation_date               1980/01/01
_audit_update_record               2012/02/01
_chemical_name_systematic
;
Disilver(III) Disilver(IV) Manganese Bis(trithioantimonate)
;
_chemical_formula_structural       'Ag4 Mn (Sb S3)2'
_chemical_formula_sum              'Ag4 Mn1 S6 Sb2'
_chemical_name_mineral             Samsonite
_publ_section_title
;
Verfeinerung der Kristallstruktur von Samsonit (Sb S3)2 Ag(III)2 
Ag(IV)2 Mn(VI)
;
loop_
_citation_id
_citation_journal_abbrev
_citation_year
_citation_journal_volume
_citation_page_first
_citation_page_last
_citation_journal_id_ASTM
primary
;
Zeitschrift fuer Kristallographie, Kristallgeometrie, Kristallphysik, 
Kristallchemie (-144,1977)
;
 1974 140 87 99 ZEKGAX
_publ_author_name                  'Edenharter, A.;Nowacki, W.'
_cell_length_a                     10.362(4)
_cell_length_b                     8.101(3)
_cell_length_c                     6.647(3)
_cell_angle_alpha                  90.
_cell_angle_beta                   92.63(7)
_cell_angle_gamma                  90.
_cell_volume                       557.38
_cell_formula_units_Z              2
_symmetry_space_group_name_H-M     'P 1 21/n 1'
_symmetry_Int_Tables_number        14
_refine_ls_R_factor_all            .073
loop_
_symmetry_equiv_pos_site_id
_symmetry_equiv_pos_as_xyz
  1	'-x+.5, y+.5, -z+.5'
  2	'-x, -y, -z'
  3	'x+.5, -y+.5, z+.5'
  4	'x, y, z'
loop_
_atom_type_symbol
_atom_type_oxidation_number
Ag1+	1
Mn2+	2
S2-	-2
Sb3+	3
loop_
_atom_site_label
_atom_site_type_symbol
_atom_site_symmetry_multiplicity
_atom_site_Wyckoff_symbol
_atom_site_fract_x
_atom_site_fract_y
_atom_site_fract_z
_atom_site_occupancy
_atom_site_attached_hydrogens
Mn1 Mn2+ 2 b 0 0 0.5 1. 0 
Sb1 Sb3+ 4 e 0.18420(8) 0.16426(11) 0.03853(13) 1. 0 
Ag1 Ag1+ 4 e 0.30762(14) 0.2455(3) 0.5724(2) 1. 0 
Ag2 Ag1+ 4 e 0.4966(3) 0.9691(2) 0.7606(3) 1. 0 
S1 S2- 4 e 0.0919(3) 0.2689(4) 0.3432(5) 1. 0 
S2 S2- 4 e 0.9823(3) 0.1737(5) 0.8311(5) 1. 0 
S3 S2- 4 e 0.7643(3) 0.0793(5) 0.3882(6) 1. 0 

#End of data_38360-ICSD


