data_21053-ICSD
#?2014 by Fachinformationszentrum Karlsruhe, and the U.S. Secretary of 
#Commerce on behalf of the United States.  All rights reserved.
_database_code_ICSD                21053
_audit_creation_date               1980/01/01
_audit_update_record               2010/02/01
_chemical_name_systematic          'Dilithium Stannate - Beta'
_chemical_formula_structural       'Li2 (Sn O3)'
_chemical_formula_sum              'Li2 O3 Sn1'
_publ_section_title
;
Strukturvergleiche an ternaeren und quaternaeren Oxiden
;
loop_
_citation_id
_citation_journal_abbrev
_citation_year
_citation_journal_volume
_citation_page_first
_citation_page_last
_citation_journal_id_ASTM
primary 'Zeitschrift fuer Anorganische und Allgemeine Chemie (1950) (DE)'
 1966 348 246 256 ZAACAB
2 'Zeitschrift fuer Anorganische und Allgemeine Chemie (1950) (DE)'
 1954 276 77 94 ZAACAB
_publ_author_name                  'Lang, G.'
_cell_length_a                     5.29
_cell_length_b                     9.19
_cell_length_c                     10.03
_cell_angle_alpha                  90.
_cell_angle_beta                   100.1
_cell_angle_gamma                  90.
_cell_volume                       480.05
_cell_formula_units_Z              8
_symmetry_space_group_name_H-M     'C 1 2/c 1'
_symmetry_Int_Tables_number        15
loop_
_symmetry_equiv_pos_site_id
_symmetry_equiv_pos_as_xyz
  1	'x, -y, z+.5'
  2	'-x, -y, -z'
  3	'-x, y, -z+.5'
  4	'x, y, z'
  5	'x+.5, -y+.5, z+.5'
  6	'-x+.5, -y+.5, -z'
  7	'-x+.5, y+.5, -z+.5'
  8	'x+.5, y+.5, z'
loop_
_atom_type_symbol
_atom_type_oxidation_number
Li1+	1
O2-	-2
Sn4+	4
loop_
_atom_site_label
_atom_site_type_symbol
_atom_site_symmetry_multiplicity
_atom_site_Wyckoff_symbol
_atom_site_fract_x
_atom_site_fract_y
_atom_site_fract_z
_atom_site_occupancy
_atom_site_attached_hydrogens
Li1 Li1+ 8 f 0.25 0.083 0 1. 0 
Li2 Li1+ 4 d 0.25 0.25 0.5 1. 0 
Li3 Li1+ 4 e 0 0.083 0.25 1. 0 
Sn1 Sn4+ 4 e 0 0.583 0.75 1. 0 
Sn2 Sn4+ 4 e 0 0.75 0.25 1. 0 
O1 O2- 8 f 0.125 0.25 0.142 1. 0 
O2 O2- 8 f 0.125 0.583 0.142 1. 0 
O3 O2- 8 f 0.125 0.917 0.142 1. 0 

#End of data_21053-ICSD


