data_261486-ICSD
#?2014 by Fachinformationszentrum Karlsruhe, and the U.S. Secretary of 
#Commerce on behalf of the United States.  All rights reserved.
_database_code_ICSD                261486
_audit_creation_date               2011/08/01
_chemical_name_systematic          'Tetracalcium Diruthenium Octaoxide'
_chemical_formula_structural       'Ca4 Ru2 O8'
_chemical_formula_sum              'Ca4 O8 Ru2'
_publ_section_title
;
Structurally-driven metal-insulator transition in Ca2 Ru(1-x) Cr(x) 
O4 (0<=x<0.14): A single crystal X-ray diffraction study
;
loop_
_citation_id
_citation_journal_abbrev
_citation_year
_citation_journal_volume
_citation_journal_issue
_citation_page_first
_citation_page_last
_citation_journal_id_ASTM
primary 'Journal of Solid State Chemistry' 2011 184 4 893 898 JSSCBI
_publ_author_name
;
Qi, T.F.;Ge, M.;Korneta, O.B.;Parkin, S.;De Long, L.E.;Cao, G.
;
_cell_length_a                     5.3869(2)
_cell_length_b                     5.6334(2)
_cell_length_c                     11.7349(5)
_cell_angle_alpha                  90.
_cell_angle_beta                   90.
_cell_angle_gamma                  90.
_cell_volume                       356.11
_cell_formula_units_Z              2
_symmetry_space_group_name_H-M     'P b c a'
_symmetry_Int_Tables_number        61
_refine_ls_R_factor_all            .021
loop_
_symmetry_equiv_pos_site_id
_symmetry_equiv_pos_as_xyz
  1	'x+.5, y, -z+.5'
  2	'x, -y+.5, z+.5'
  3	'-x+.5, y+.5, z'
  4	'-x, -y, -z'
  5	'-x+.5, -y, z+.5'
  6	'-x, y+.5, -z+.5'
  7	'x+.5, -y+.5, -z'
  8	'x, y, z'
loop_
_atom_type_symbol
_atom_type_oxidation_number
Ca2+	2
O2-	-2
Ru4+	4
loop_
_atom_site_label
_atom_site_type_symbol
_atom_site_symmetry_multiplicity
_atom_site_Wyckoff_symbol
_atom_site_fract_x
_atom_site_fract_y
_atom_site_fract_z
_atom_site_occupancy
_atom_site_attached_hydrogens
Ca1 Ca2+ 8 c 0.00297(12) 0.05957(14) 0.35246(6) 1. 0 
O1 O2- 8 c 0.1937(4) 0.3011(4) 0.0280(2) 1. 0 
O2 O2- 8 c -0.0701(6) -0.0217(4) 0.1644(2) 1. 0 
Ru1 Ru4+ 4 a 0 0 0 1. 0 

#End of data_261486-ICSD


