data_402880-ICSD
#?2014 by Fachinformationszentrum Karlsruhe, and the U.S. Secretary of 
#Commerce on behalf of the United States.  All rights reserved.
_database_code_ICSD                402880
_audit_creation_date               1998/06/26
_chemical_name_systematic          'Sodium Trigallium Selenide'
_chemical_formula_structural       'Na Ga3 Se5'
_chemical_formula_sum              'Ga3 Na1 Se5'
_publ_section_title
;
Crystal structure of sodium trigallium pentaselenide Na Ga3 Se5
;
loop_
_citation_id
_citation_journal_abbrev
_citation_year
_citation_journal_volume
_citation_page_first
_citation_page_last
_citation_journal_id_ASTM
primary 'Zeitschrift fuer Kristallographie - New Crystal Structures'
 1998 213 21 22 ZKNSFT
_publ_author_name                  'Kienle, L.;Deiseroth, H.J.'
_cell_length_a                     9.730(2)
_cell_length_b                     26.939(5)
_cell_length_c                     13.597(3)
_cell_angle_alpha                  90.
_cell_angle_beta                   90.
_cell_angle_gamma                  90.
_cell_volume                       3564
_cell_formula_units_Z              16
_symmetry_space_group_name_H-M     'P 21 21 21'
_symmetry_Int_Tables_number        19
_refine_ls_R_factor_all            .036
loop_
_symmetry_equiv_pos_site_id
_symmetry_equiv_pos_as_xyz
  1	'-x, y+.5, -z+.5'
  2	'x+.5, -y+.5, -z'
  3	'-x+.5, -y, z+.5'
  4	'x, y, z'
loop_
_atom_type_symbol
_atom_type_oxidation_number
Ga3+	3
Na1+	1
Se2-	-2
loop_
_atom_site_label
_atom_site_type_symbol
_atom_site_symmetry_multiplicity
_atom_site_Wyckoff_symbol
_atom_site_fract_x
_atom_site_fract_y
_atom_site_fract_z
_atom_site_occupancy
_atom_site_attached_hydrogens
Se1 Se2- 4 a 0.8167(2) 0.43840(6) 0.56098(10) 1. 0 
Se2 Se2- 4 a 0.4225(2) 0.41967(6) 0.45654(11) 1. 0 
Se3 Se2- 4 a 0.3205(2) 0.51971(7) 0.14920(11) 1. 0 
Se4 Se2- 4 a 0.4857(2) 0.40138(7) 0.75067(11) 1. 0 
Se5 Se2- 4 a 0.5541(2) 0.42089(6) 0.02616(11) 1. 0 
Se6 Se2- 4 a 0.6883(2) 0.51556(7) 0.34999(11) 1. 0 
Se7 Se2- 4 a 0.1665(2) 0.43795(6) -.08251(10) 1. 0 
Se8 Se2- 4 a -.0657(2) 0.33284(6) 0.03450(11) 1. 0 
Se9 Se2- 4 a -.0112(2) 0.34722(7) 0.75208(11) 1. 0 
Se10 Se2- 4 a 0.1842(2) 0.23372(6) 0.16552(11) 1. 0 
Se11 Se2- 4 a 0.2473(2) 0.37588(7) 0.18769(11) 1. 0 
Se12 Se2- 4 a 0.0802(2) 0.46107(6) 0.36332(10) 1. 0 
Se13 Se2- 4 a -.0695(2) 0.46764(6) 0.13016(10) 1. 0 
Se14 Se2- 4 a 0.7487(2) 0.37379(6) 0.30042(11) 1. 0 
Se15 Se2- 4 a -.2111(2) 0.23525(7) 0.34683(11) 1. 0 
Se16 Se2- 4 a 0.0674(2) 0.33568(6) 0.45747(11) 1. 0 
Se17 Se2- 4 a 0.6722(2) 0.31506(6) 0.57512(10) 1. 0 
Se18 Se2- 4 a 0.4322(2) 0.28739(6) 0.38096(10) 1. 0 
Se19 Se2- 4 a 0.3142(2) 0.30803(6) -.07473(10) 1. 0 
Se20 Se2- 4 a 0.5645(2) 0.28636(6) 0.10887(11) 1. 0 
Ga1 Ga3+ 4 a 0.6040(2) 0.47402(7) 0.49315(12) 1. 0 
Ga2 Ga3+ 4 a 0.2558(2) 0.48281(7) 0.48268(12) 1. 0 
Ga3 Ga3+ 4 a 0.0972(2) 0.51707(7) 0.22099(11) 1. 0 
Ga4 Ga3+ 4 a 0.3857(2) 0.39471(7) -.08990(12) 1. 0 
Ga5 Ga3+ 4 a 0.6073(2) 0.49699(7) -.05710(12) 1. 0 
Ga6 Ga3+ 4 a 0.0796(2) 0.40155(7) 0.06990(12) 1. 0 
Ga7 Ga3+ 4 a 0.5643(2) 0.19522(7) 0.10321(12) 1. 0 
Ga8 Ga3+ 4 a 0.3325(2) 0.21550(7) 0.30048(11) 1. 0 
Ga9 Ga3+ 4 a 0.3146(2) 0.30195(7) 0.10492(12) 1. 0 
Ga10 Ga3+ 4 a 0.6386(2) 0.29614(7) 0.27748(11) 1. 0 
Ga11 Ga3+ 4 a 0.1139(2) 0.25704(7) 0.52816(11) 1. 0 
Ga12 Ga3+ 4 a -.1715(2) 0.36026(7) 0.46585(12) 1. 0 
Na1 Na1+ 4 a 0.0023(7) 0.3091(3) 0.2516(5) 1. 0 
Na2 Na1+ 4 a 0.2579(8) 0.6286(3) 0.1301(5) 1. 0 
Na3 Na1+ 4 a 0.5016(8) 0.4400(3) 0.2404(5) 1. 0 
Na4 Na1+ 4 a 0.2535(7) 0.1220(3) 0.1175(5) 1. 0 

loop_
_atom_site_aniso_label
_atom_site_aniso_type_symbol
_atom_site_aniso_U_11
_atom_site_aniso_U_22
_atom_site_aniso_U_33
_atom_site_aniso_U_12
_atom_site_aniso_U_13
_atom_site_aniso_U_23
Se1 Se2- 0.0196(10) 0.012(1) 0.0192(9) 0.0016(8) -.0001(7) -.0002(6)
Se2 Se2- 0.0182(10) 0.0148(11) 0.0287(10) 0.0010(8) 0.0003(7) -.0023(7)
Se3 Se2- 0.0203(10) 0.0199(11) 0.0217(9) 0.0022(9) -.0001(7) -.0005(7)
Se4 Se2- 0.0260(11) 0.0163(11) 0.0196(9) 0.0019(9) 0.0028(7) 0.0019(7)
Se5 Se2- 0.0252(11) 0.0177(11) 0.0213(9) -.0035(9) -.0010(7) 0.0008(7)
Se6 Se2- 0.0245(10) 0.0229(12) 0.0233(9) -.0012(9) -.0020(7) 0.0025(7)
Se7 Se2- 0.0193(10) 0.0128(11) 0.0182(9) -.0006(8) 0.0008(7) 0.0001(7)
Se8 Se2- 0.0221(11) 0.0157(11) 0.0201(9) -.0032(8) 0.0017(7) -.0021(7)
Se9 Se2- 0.0215(11) 0.0164(12) 0.0179(9) -.0022(8) -.0012(7) 0.0011(7)
Se10 Se2- 0.0198(10) 0.0122(11) 0.0206(9) -.0019(8) -.0029(7) 0.0025(7)
Se11 Se2- 0.023(1) 0.0159(11) 0.0226(10) 0.0047(9) -.0015(7) -.0029(7)
Se12 Se2- 0.0189(10) 0.0155(10) 0.0173(9) -.0018(9) -.0017(7) 0.0000(6)
Se13 Se2- 0.0198(10) 0.0145(11) 0.0207(9) -.0008(9) -.0003(7) -.0006(6)
Se14 Se2- 0.0249(11) 0.0140(11) 0.0212(9) -.0019(9) -.0029(7) 0.0018(7)
Se15 Se2- 0.0194(11) 0.0139(11) 0.0238(10) 0.0028(8) 0.0012(7) 0.0022(7)
Se16 Se2- 0.0201(10) 0.0148(11) 0.0255(9) 0.0002(8) -.0014(7) 0.0026(7)
Se17 Se2- 0.0181(10) 0.0155(11) 0.0191(9) -.0009(8) -.0004(7) -.0003(7)
Se18 Se2- 0.0184(10) 0.0126(10) 0.0179(9) 0.0001(8) -.0002(7) -.0016(6)
Se19 Se2- 0.0169(10) 0.0135(11) 0.0177(9) -.0006(8) -.0005(7) -.0002(6)
Se20 Se2- 0.0169(10) 0.0113(10) 0.0160(9) -.0005(8) -.0009(6) -.0006(6)
Ga1 Ga3+ 0.0183(11) 0.0177(12) 0.0222(10) -.0003(9) 0.0008(7) -.0009(8)
Ga2 Ga3+ 0.0197(11) 0.0164(12) 0.0189(10) 0.0006(9) -.0009(7) 0.0003(7)
Ga3 Ga3+ 0.0211(11) 0.0166(12) 0.0174(10) -.0006(10) 0.0012(7) -.0015(7)
Ga4 Ga3+ 0.0197(11) 0.0158(12) 0.0209(10) -.0015(9) 0.0006(8) 0.0003(8)
Ga5 Ga3+ 0.0189(11) 0.0186(12) 0.0219(10) -.0016(9) -.0005(8) -.0001(8)
Ga6 Ga3+ 0.0223(11) 0.0147(12) 0.0212(10) 0.0000(9) 0.0009(8) -.0005(7)
Ga7 Ga3+ 0.0200(12) 0.0128(12) 0.0168(10) 0.0012(9) 0.0016(8) -.0005(7)
Ga8 Ga3+ 0.0176(12) 0.0138(12) 0.0147(10) -.0013(9) 0.0000(7) 0.0005(7)
Ga9 Ga3+ 0.0206(11) 0.0126(12) 0.0182(10) 0.0019(9) -.0004(8) 0.0005(8)
Ga10 Ga3+ 0.0200(11) 0.0163(13) 0.0157(10) -.0002(9) -.0020(7) 0.0001(8)
Ga11 Ga3+ 0.0213(12) 0.0155(12) 0.0182(10) 0.0020(9) 0.0012(8) -.0003(8)
Ga12 Ga3+ 0.0193(11) 0.0172(12) 0.0191(10) -.0015(10) -.0001(8) 0.0009(7)
Na1 Na1+ 0.024(5) 0.040(6) 0.023(4) 0.006(4) 0.006(3) 0.002(3)
Na2 Na1+ 0.046(6) 0.016(5) 0.029(4) -.005(4) 0.005(3) 0.004(3)
Na3 Na1+ 0.045(5) 0.025(5) 0.032(4) 0.008(4) -.002(4) -.004(3)
Na4 Na1+ 0.029(5) 0.022(5) 0.038(5) -.006(4) -.001(3) -.005(3)
#End of data_402880-ICSD


