data_16121-ICSD
#?2014 by Fachinformationszentrum Karlsruhe, and the U.S. Secretary of 
#Commerce on behalf of the United States.  All rights reserved.
_database_code_ICSD                16121
_audit_creation_date               1980/01/01
_chemical_name_systematic
;
Potassium Tetracyanodioxorhenate(V)
;
_chemical_formula_structural       'K3 (Re O2 (C N)4)'
_chemical_formula_sum              'C4 K3 N4 O2 Re1'
_publ_section_title
;
Nitrido-, oxo-, and imidocomplexes. Part II. Crystal structure of 
potassium dioxotetracyanorhenate(V), K3 (Re O2 (C N)4, by neutron 
diffraction
;
loop_
_citation_id
_citation_journal_abbrev
_citation_year
_citation_journal_volume
_citation_page_first
_citation_page_last
_citation_journal_id_ASTM
primary
;
Journal of the Chemical Society A: Inorganic, Physical, Theoretical 
(1966-1971)
;
 1971 1971 2880 2883 JCSIAP
_publ_author_name
;
Fenn, R.H.;Graham, A.J.;Johnson, N.P.
;
_cell_length_a                     7.66(2)
_cell_length_b                     7.45(2)
_cell_length_c                     6.29(2)
_cell_angle_alpha                  109.6(2)
_cell_angle_beta                   105.9(2)
_cell_angle_gamma                  115.4(2)
_cell_volume                       266.11
_cell_formula_units_Z              1
_symmetry_space_group_name_H-M     'P -1'
_symmetry_Int_Tables_number        2
_refine_ls_R_factor_all            .145
loop_
_symmetry_equiv_pos_site_id
_symmetry_equiv_pos_as_xyz
  1	'-x, -y, -z'
  2	'x, y, z'
loop_
_atom_type_symbol
_atom_type_oxidation_number
C2+	2
K1+	1
N3-	-3
O2-	-2
Re5+	5
loop_
_atom_site_label
_atom_site_type_symbol
_atom_site_symmetry_multiplicity
_atom_site_Wyckoff_symbol
_atom_site_fract_x
_atom_site_fract_y
_atom_site_fract_z
_atom_site_occupancy
_atom_site_attached_hydrogens
Re1 Re5+ 1 a 0 0 0 1. 0 
C1 C2+ 2 i 0.1005(13) 0.3484(11) 0.1990(14) 1. 0 
N1 N3- 2 i 0.1571(12) 0.5381(9) 0.3094(13) 1. 0 
C2 C2+ 2 i -.2934(12) -.1205(12) 0.0326(14) 1. 0 
N2 N3- 2 i -.4487(10) -.1981(10) 0.0583(12) 1. 0 
O1 O2- 2 i 0.1371(14) 0.0247(14) 0.2965(16) 1. 0 
K1 K1+ 1 f 0.5 0 0.5 1. 0 
K2 K1+ 2 i 0.1657(22) 0.3656(21) -.2907(24) 1. 0 

#End of data_16121-ICSD


