data_50364-ICSD
#?2014 by Fachinformationszentrum Karlsruhe, and the U.S. Secretary of 
#Commerce on behalf of the United States.  All rights reserved.
_database_code_ICSD                50364
_audit_creation_date               1999/11/30
_audit_update_record               2006/04/01
_chemical_name_systematic          'Calcium Titanate'
_chemical_formula_structural       'Ca (Ti O3)'
_chemical_formula_sum              'Ca1 O3 Ti1'
_publ_section_title
;
Synthesis and crystal structure refinement of (1-x)Ca Ti O3 (x)(La1/3 
Nd1/3) Ti O3
;
loop_
_citation_id
_citation_journal_abbrev
_citation_year
_citation_journal_volume
_citation_page_first
_citation_page_last
_citation_journal_id_ASTM
primary 'RIST Yongu Nonmun (RIST Research Papers)' 1998 12 116 123 RYNOEQ
2 'Golden Book of Phase Transitions, Wroclaw' 2002 1 1 123 GBOPT5
_publ_author_name                  'Cho, N.W.;Sung, K.P.;Chang, S.-C.'
_cell_length_a                     5.3779
_cell_length_b                     7.6375
_cell_length_c                     5.4401
_cell_angle_alpha                  90.
_cell_angle_beta                   90.
_cell_angle_gamma                  90.
_cell_volume                       223.45
_cell_formula_units_Z              4
_symmetry_space_group_name_H-M     'P n m a'
_symmetry_Int_Tables_number        62
_refine_ls_R_factor_all            .0309
loop_
_symmetry_equiv_pos_site_id
_symmetry_equiv_pos_as_xyz
  1	'x+.5, y, -z+.5'
  2	'x, -y+.5, z'
  3	'-x+.5, y+.5, z+.5'
  4	'-x, -y, -z'
  5	'-x+.5, -y, z+.5'
  6	'-x, y+.5, -z'
  7	'x+.5, -y+.5, -z+.5'
  8	'x, y, z'
loop_
_atom_type_symbol
_atom_type_oxidation_number
Ca2+	2
O2-	-2
Ti4+	4
loop_
_atom_site_label
_atom_site_type_symbol
_atom_site_symmetry_multiplicity
_atom_site_Wyckoff_symbol
_atom_site_fract_x
_atom_site_fract_y
_atom_site_fract_z
_atom_site_occupancy
_atom_site_attached_hydrogens
Ca1 Ca2+ 4 c 0 0.25 0.0167 1. 0 
Ti1 Ti4+ 4 b 0 0 0.5 1. 0 
O1 O2- 4 c 0.4176 0.25 0.0038 1. 0 
O2 O2- 8 d 0.2783 0.0422 0.2098 1. 0 

#End of data_50364-ICSD


