data_22052-ICSD
#?2014 by Fachinformationszentrum Karlsruhe, and the U.S. Secretary of 
#Commerce on behalf of the United States.  All rights reserved.
_database_code_ICSD                22052
_audit_creation_date               1980/01/01
_audit_update_record               1999/01/19
_chemical_name_systematic          'Iron(III) Potassium Sulfate(VI)'
_chemical_formula_structural       'Fe K (S O4)2'
_chemical_formula_sum              'Fe1 K1 O8 S2'
_chemical_name_mineral             Yavapaiite
_publ_section_title
;
The crystal structures of yavapaiite, K Fe (S O4)2, and goldichite, K 
Fe (S O4)2 (H2 O)4
;
loop_
_citation_id
_citation_journal_abbrev
_citation_year
_citation_journal_volume
_citation_page_first
_citation_page_last
_citation_journal_id_ASTM
primary 'American Mineralogist' 1971 56 1917 1933 AMMIAY
_publ_author_name                  'Graeber, E.J.;Rosenzweig, A.'
_cell_length_a                     8.152(5)
_cell_length_b                     5.153(4)
_cell_length_c                     7.877(5)
_cell_angle_alpha                  90.
_cell_angle_beta                   94.90(7)
_cell_angle_gamma                  90.
_cell_volume                       329.68
_cell_formula_units_Z              2
_symmetry_space_group_name_H-M     'C 1 2/m 1'
_symmetry_Int_Tables_number        12
_refine_ls_R_factor_all            .032
loop_
_symmetry_equiv_pos_site_id
_symmetry_equiv_pos_as_xyz
  1	'-x, y, -z'
  2	'-x, -y, -z'
  3	'x, -y, z'
  4	'x, y, z'
  5	'-x+.5, y+.5, -z'
  6	'-x+.5, -y+.5, -z'
  7	'x+.5, -y+.5, z'
  8	'x+.5, y+.5, z'
loop_
_atom_type_symbol
_atom_type_oxidation_number
Fe3+	3
K1+	1
O2-	-2
S6+	6
loop_
_atom_site_label
_atom_site_type_symbol
_atom_site_symmetry_multiplicity
_atom_site_Wyckoff_symbol
_atom_site_fract_x
_atom_site_fract_y
_atom_site_fract_z
_atom_site_occupancy
_atom_site_attached_hydrogens
Fe1 Fe3+ 2 a 0 0 0 1. 0 
K1 K1+ 2 c 0 0 0.5 1. 0 
S1 S6+ 4 i 0.3701(1) 0 0.2020(1) 1. 0 
O1 O2- 4 i 0.2371(3) 0 0.0626(4) 1. 0 
O2 O2- 4 i 0.3128(4) 0 0.3702(4) 1. 0 
O3 O2- 8 j 0.4741(3) 0.2325(4) 0.1807(3) 1. 0 

loop_
_atom_site_aniso_label
_atom_site_aniso_type_symbol
_atom_site_aniso_B_11
_atom_site_aniso_B_22
_atom_site_aniso_B_33
_atom_site_aniso_B_12
_atom_site_aniso_B_13
_atom_site_aniso_B_23
Fe1 Fe3+ 0.72 0.36 0.92 0 -.07 0
K1 K1+ 2.23 1.78 1.05 0 0.29 0
S1 S6+ 0.67 0.31 0.7 0 0.1 0
O1 O2- 0.75 1.08 1.42 0 -.19 0
O2 O2- 1.94 2.29 1.04 0 0.69 0
O3 O2- 1.51 0.7 1.45 -.55 -.41 0.43
#End of data_22052-ICSD


