data_419436-ICSD
#?2014 by Fachinformationszentrum Karlsruhe, and the U.S. Secretary of 
#Commerce on behalf of the United States.  All rights reserved.
_database_code_ICSD                419436
_audit_creation_date               2013/08/01
_chemical_name_systematic
;
Dipotassium Trimanganese(II,III) Tris(tetraoxoarsenate(V))
;
_chemical_formula_structural       'K2 Mn3 (As O4)3'
_chemical_formula_sum              'As3 K2 Mn3 O12'
_publ_section_title
;
K2 Mn3 (As O4)3: Synthesis, Crystalline Structure and Ionic 
Conductivity
;
loop_
_citation_id
_citation_journal_abbrev
_citation_year
_citation_journal_volume
_citation_journal_issue
_citation_page_first
_citation_page_last
_citation_journal_id_ASTM
primary 'Journal of Chemical Crystallography' 2012 42 9 941 946 JCCYEV
_publ_author_name
;
Chaalia, Sana;Ayed, Brahim;Haddad, Amor
;
_cell_length_a                     12.490(1)
_cell_length_b                     13.014(1)
_cell_length_c                     6.888(1)
_cell_angle_alpha                  90.00
_cell_angle_beta                   114.46
_cell_angle_gamma                  90.00
_cell_volume                       1019.12
_cell_formula_units_Z              4
_symmetry_space_group_name_H-M     'C 1 2/c 1'
_symmetry_Int_Tables_number        15
_refine_ls_R_factor_all            .0333
loop_
_symmetry_equiv_pos_site_id
_symmetry_equiv_pos_as_xyz
  1	'x, -y, z+.5'
  2	'-x, -y, -z'
  3	'-x, y, -z+.5'
  4	'x, y, z'
  5	'x+.5, -y+.5, z+.5'
  6	'-x+.5, -y+.5, -z'
  7	'-x+.5, y+.5, -z+.5'
  8	'x+.5, y+.5, z'
loop_
_atom_type_symbol
_atom_type_oxidation_number
As5+	5
K1+	1
Mn2+	2
Mn3+	3
O2-	-2
loop_
_atom_site_label
_atom_site_type_symbol
_atom_site_symmetry_multiplicity
_atom_site_Wyckoff_symbol
_atom_site_fract_x
_atom_site_fract_y
_atom_site_fract_z
_atom_site_occupancy
_atom_site_attached_hydrogens
_atom_site_U_iso_or_equiv
As1 As5+ 8 f 0.26093(5) 0.38837(5) 0.36796(9) 1 0 0.0146(2) 
As2 As5+ 4 e 0.5000 0.21390(6) 0.2500 1 0 0.0143(2) 
Mn1 Mn3+ 4 e 0.5000 0.23658(10) -0.2500 1 0 0.0156(3) 
Mn2 Mn2+ 8 f 0.22319(7) 0.15780(7) 0.13855(14) 1 0 0.0154(2) 
K1 K1+ 4 e 0.5000 0.51498(16) 0.7500 1 0 0.0224(4) 
K2 K1+ 4 b 0.5000 0.0000 0.0000 1 0 0.0356(6) 
O1 O2- 8 f 0.3382(3) 0.3321(3) 0.6083(6) 1 0 0.0158(8) 
O2 O2- 8 f 0.3221(4) 0.5047(3) 0.3725(7) 1 0 0.0221(9) 
O3 O2- 8 f 0.4555(4) 0.2881(3) 0.0273(7) 1 0 0.0180(9) 
O4 O2- 8 f 0.1169(4) 0.3993(4) 0.3086(10) 1 0 0.0386(14) 
O5 O2- 8 f 0.2772(4) 0.3157(4) 0.1759(7) 1 0 0.0252(10) 
O6 O2- 8 f 0.5993(5) 0.1293(4) 0.2366(9) 1 0 0.0449(15) 

#End of data_419436-ICSD


