data_61804-ICSD
#?2014 by Fachinformationszentrum Karlsruhe, and the U.S. Secretary of 
#Commerce on behalf of the United States.  All rights reserved.
_database_code_ICSD                61804
_audit_creation_date               1988/02/22
_audit_update_record               1999/01/19
_chemical_name_systematic          'Silver Trithioarsenate(III)'
_chemical_formula_structural       'Ag3 (As S3)'
_chemical_formula_sum              'Ag3 As1 S3'
_chemical_name_mineral             Proustite
_publ_section_title
;
Phase transitions in proustite. Structural studies
;
loop_
_citation_id
_citation_journal_abbrev
_citation_year
_citation_journal_volume
_citation_page_first
_citation_page_last
_citation_journal_id_ASTM
primary 'Phase Transition' 1985 6 1 24 PHTRDP
_publ_author_name                  'Allen, S.'
_cell_length_a                     10.825(1)
_cell_length_b                     10.825(1)
_cell_length_c                     8.704(1)
_cell_angle_alpha                  90.
_cell_angle_beta                   90.
_cell_angle_gamma                  120.
_cell_volume                       883.29
_cell_formula_units_Z              6
_symmetry_space_group_name_H-M     'R 3 c H'
_symmetry_Int_Tables_number        161
_refine_ls_R_factor_all            .0716
loop_
_symmetry_equiv_pos_site_id
_symmetry_equiv_pos_as_xyz
  1	'-x+y, y, z+.5'
  2	'x, x-y, z+.5'
  3	'-y, -x, z+.5'
  4	'-x+y, -x, z'
  5	'-y, x-y, z'
  6	'x, y, z'
  7	'-x+y+.6666, y+.3333, z+.8333'
  8	'-x+y+.3333, y+.6666, z+.1666'
  9	'x+.6666, x-y+.3333, z+.8333'
 10	'x+.3333, x-y+.6666, z+.1666'
 11	'-y+.6666, -x+.3333, z+.8333'
 12	'-y+.3333, -x+.6666, z+.1666'
 13	'-x+y+.6666, -x+.3333, z+.3333'
 14	'-x+y+.3333, -x+.6666, z+.6666'
 15	'-y+.6666, x-y+.3333, z+.3333'
 16	'-y+.3333, x-y+.6666, z+.6666'
 17	'x+.6666, y+.3333, z+.3333'
 18	'x+.3333, y+.6666, z+.6666'
loop_
_atom_type_symbol
_atom_type_oxidation_number
Ag1+	1
As3+	3
S2-	-2
loop_
_atom_site_label
_atom_site_type_symbol
_atom_site_symmetry_multiplicity
_atom_site_Wyckoff_symbol
_atom_site_fract_x
_atom_site_fract_y
_atom_site_fract_z
_atom_site_occupancy
_atom_site_attached_hydrogens
As1 As3+ 6 a 0 0 0 1. 0 
S1 S2- 18 b 0.2127(4) 0.0925(4) 0.3760(6) 1. 0 
Ag1 Ag1+ 18 b 0.2438(3) 0.3035(2) 0.2311(6) 1. 0 

loop_
_atom_site_aniso_label
_atom_site_aniso_type_symbol
_atom_site_aniso_B_11
_atom_site_aniso_B_22
_atom_site_aniso_B_33
_atom_site_aniso_B_12
_atom_site_aniso_B_13
_atom_site_aniso_B_23
As1 As3+ 1.74(8) 1.74(8) 3.04(13) 0.87(8) 0 0
S1 S2- 2.21(18) 2.57(22) 4.13(22) 0.98(18) 0.77(16) 0.64(26)
Ag1 Ag1+ 9.86(19) 5.22(16) 8.38(16) 4.19(16) 0.46(22) 2.79(15)
#End of data_61804-ICSD


