data_33809-ICSD
#?2014 by Fachinformationszentrum Karlsruhe, and the U.S. Secretary of 
#Commerce on behalf of the United States.  All rights reserved.
_database_code_ICSD                33809
_audit_creation_date               1991/07/10
_chemical_name_systematic          'Dicesium Dilithium Silicate'
_chemical_formula_structural       'Cs2 Li2 (Si O4)'
_chemical_formula_sum              'Cs2 Li2 O4 Si1'
_publ_section_title
;
Zur Isotypie von Titanaten mit Silicaten: Ueber Cs2Li2(SiO4) und 
Cs2Li2(TiO4)
;
loop_
_citation_id
_citation_journal_abbrev
_citation_year
_citation_journal_volume
_citation_page_first
_citation_page_last
_citation_journal_id_ASTM
primary 'Zeitschrift fuer Anorganische und Allgemeine Chemie (1950) (DE)'
 1991 593 17 34 ZAACAB
_publ_author_name                  'Bernet, K.;Kissel, J.;Hoppe, R.'
_cell_length_a                     9.596(1)
_cell_length_b                     5.774(1)
_cell_length_c                     5.581(1)
_cell_angle_alpha                  92.52(1)
_cell_angle_beta                   110.93(1)
_cell_angle_gamma                  95.45(1)
_cell_volume                       286.51
_cell_formula_units_Z              2
_symmetry_space_group_name_H-M     'P -1'
_symmetry_Int_Tables_number        2
_refine_ls_R_factor_all            .065
loop_
_symmetry_equiv_pos_site_id
_symmetry_equiv_pos_as_xyz
  1	'-x, -y, -z'
  2	'x, y, z'
loop_
_atom_type_symbol
_atom_type_oxidation_number
Cs1+	1
Li1+	1
O2-	-2
Si4+	4
loop_
_atom_site_label
_atom_site_type_symbol
_atom_site_symmetry_multiplicity
_atom_site_Wyckoff_symbol
_atom_site_fract_x
_atom_site_fract_y
_atom_site_fract_z
_atom_site_occupancy
_atom_site_attached_hydrogens
Si1 Si4+ 2 i 0.2939(3) 0.3166(5) 0.4403(5) 1. 0 
Cs1 Cs1+ 2 i 0.2811(1) 0.8470(1) 0.8051(1) 1. 0 
Cs2 Cs1+ 2 i 0.0169(1) 0.2683(1) 0.8069(1) 1. 0 
Li1 Li1+ 2 i 0.5819(22) 0.5915(35) 0.8794(35) 1. 0 
Li2 Li1+ 2 i 0.5626(24) 0.1826(36) 0.6238(35) 1. 0 
O1 O2- 2 i 0.3970(9) 0.3574(13) 0.7521(14) 1. 0 
O2 O2- 2 i 0.2925(8) 0.5537(12) 0.2913(14) 1. 0 
O3 O2- 2 i 0.3850(8) 0.1404(13) 0.3167(14) 1. 0 
O4 O2- 2 i 0.1243(10) 0.2066(14) 0.3936(16) 1. 0 

loop_
_atom_site_aniso_label
_atom_site_aniso_type_symbol
_atom_site_aniso_U_11
_atom_site_aniso_U_22
_atom_site_aniso_U_33
_atom_site_aniso_U_12
_atom_site_aniso_U_13
_atom_site_aniso_U_23
Si1 Si4+ 0.0090(13) 0.0100(11) 0.0130(12) -.0018(9) 0.0046(10) 0.0037(9)
Cs1 Cs1+ 0.0276(5) 0.0159(4) 0.0195(4) 0.0043(3) 0.0066(3) 0.0033(3)
Cs2 Cs1+ 0.0180(4) 0.0216(4) 0.0200(4) 0.0027(3) 0.0068(3) -.0012(3)
Li1 Li1+ 0.0083(84) 0.0209(89) 0.0090(77) 0.0016(68) -.0060(66) -.0002(64)
Li2 Li1+ 0.0201(99) 0.0263(94) 0.0074(73) 0.0057(76) 0.0061(71) 0.0104(66)
O1 O2- 0.0197(41) 0.0189(37) 0.0091(32) 0.0019(30) 0.0067(29) 0.0017(27)
O2 O2- 0.0028(30) 0.0102(30) 0.0154(32) -.0016(24) 0.0024(26) 0.0008(24)
O3 O2- 0.0109(35) 0.0160(34) 0.0071(29) 0.0021(27) -.0003(26) -.0001(24)
O4 O2- 0.0158(40) 0.0215(39) 0.0182(37) -.011(3) 0.0075(31) 0.0026(30)
#End of data_33809-ICSD


