data_411743-ICSD
#?2014 by Fachinformationszentrum Karlsruhe, and the U.S. Secretary of 
#Commerce on behalf of the United States.  All rights reserved.
_database_code_ICSD                411743
_audit_creation_date               2002/10/01
_chemical_name_systematic
;
Calcium Chromium(II) Diphosphate(V)
;
_chemical_formula_structural       'Ca Cr (P2 O7)'
_chemical_formula_sum              'Ca1 Cr1 O7 P2'
_publ_section_title
;
Beitraege zum thermischen Verhalten und zur Kristallchemie von 
wasserfreien Phosphaten. XXXI. (Mg1-x Crx)2 P2 O7, Ca Cr P2 O7, Sr Cr 
P2 O7 und Ba Cr P2 O7 - neue Diphosphate des zweiwertigen Chroms
;
loop_
_citation_id
_citation_journal_abbrev
_citation_year
_citation_journal_volume
_citation_page_first
_citation_page_last
_citation_journal_id_ASTM
primary 'Zeitschrift fuer Anorganische und Allgemeine Chemie (1950) (DE)'
 2001 627 2081 2090 ZAACAB
_publ_author_name                  'Maafi, K.;Glaum, R.;Gruehn, R.'
_cell_length_a                     6.312(2)
_cell_length_b                     6.499(2)
_cell_length_c                     6.916(2)
_cell_angle_alpha                  83.12(3)
_cell_angle_beta                   88.37(3)
_cell_angle_gamma                  67.72(3)
_cell_volume                       260.59
_cell_formula_units_Z              2
_symmetry_space_group_name_H-M     'P -1'
_symmetry_Int_Tables_number        2
_refine_ls_R_factor_all            .0575
loop_
_symmetry_equiv_pos_site_id
_symmetry_equiv_pos_as_xyz
  1	'-x, -y, -z'
  2	'x, y, z'
loop_
_atom_type_symbol
_atom_type_oxidation_number
Ca2+	2
Cr2+	2
O2-	-2
P5+	5
loop_
_atom_site_label
_atom_site_type_symbol
_atom_site_symmetry_multiplicity
_atom_site_Wyckoff_symbol
_atom_site_fract_x
_atom_site_fract_y
_atom_site_fract_z
_atom_site_occupancy
_atom_site_attached_hydrogens
Ca1 Ca2+ 2 i 0.71559(8) 0.26306(7) 0.38440(7) 1. 0 
Cr1 Cr2+ 2 i 0.27136(6) 0.11068(6) 0.15730(5) 1. 0 
P1 P5+ 2 i 0.23503(9) 0.22707(9) 0.63119(8) 1. 0 
P2 P5+ 2 i 0.82695(10) 0.35439(9) 0.88105(8) 1. 0 
O1 O2- 2 i 0.1247(3) 0.1428(3) 0.4817(3) 1. 0 
O2 O2- 2 i 0.0413(3) 0.3796(3) 0.7606(3) 1. 0 
O3 O2- 2 i 0.3866(3) 0.0226(3) 0.7659(3) 1. 0 
O4 O2- 2 i 0.3548(3) 0.3762(3) 0.5445(3) 1. 0 
O5 O2- 2 i 0.6595(3) 0.5949(3) 0.8756(3) 1. 0 
O6 O2- 2 i 0.7479(3) 0.2036(3) 0.7773(3) 1. 0 
O7 O2- 2 i -.0750(3) 0.2487(3) 0.0847(3) 1. 0 

loop_
_atom_site_aniso_label
_atom_site_aniso_type_symbol
_atom_site_aniso_U_11
_atom_site_aniso_U_22
_atom_site_aniso_U_33
_atom_site_aniso_U_12
_atom_site_aniso_U_13
_atom_site_aniso_U_23
Ca1 Ca2+ 0.01150(16) 0.00954(15) 0.01636(18) -.00452(12) 0.00262(13) 
-.00368(13)
Cr1 Cr2+ 0.00831(13) 0.00909(13) 0.01433(15) -.00325(10) -.0008(1) 
-.00046(10)
P1 P5+ 0.00734(19) 0.00634(18) 0.0115(2) -.00254(15) -.00051(15) 
-.00091(15)
P2 P5+ 0.0096(2) 0.00743(19) 0.0101(2) -.00203(16) -.00087(16) -.00138(15)
O1 O2- 0.0148(7) 0.0141(6) 0.0122(6) -.0078(5) 0.0009(5) -.0042(5)
O2 O2- 0.0123(6) 0.0115(6) 0.0180(7) -.0049(5) 0.0042(5) -.0060(5)
O3 O2- 0.0116(6) 0.0088(6) 0.0274(9) -.0036(5) -.0059(6) 0.0061(6)
O4 O2- 0.0107(6) 0.0101(6) 0.0147(6) -.0057(5) 0.0009(5) -.0008(5)
O5 O2- 0.0130(7) 0.0086(6) 0.0182(7) -.0004(5) 0.0024(6) -.0013(5)
O6 O2- 0.0147(7) 0.0132(6) 0.0149(7) -.0072(5) -.0009(5) -.0042(5)
O7 O2- 0.0164(7) 0.0138(6) 0.0106(6) -.0050(6) -.0022(5) 0.0003(5)
#End of data_411743-ICSD


