data_27560-ICSD
#?2014 by Fachinformationszentrum Karlsruhe, and the U.S. Secretary of 
#Commerce on behalf of the United States.  All rights reserved.
_database_code_ICSD                27560
_audit_creation_date               1980/01/01
_audit_update_record               1988/04/29
_chemical_name_systematic          'Potassium Nitridopentachloroosmate'
_chemical_formula_structural       'K2 Os N Cl5'
_chemical_formula_sum              'Cl5 K2 N1 Os1'
_publ_section_title
;
Studies of Metal-Nitrogen Multiple Bonds. V. The Crystal Structure of 
Potassium Nitridopentachloroosmate(VI), K2 Os N Cl5
;
loop_
_citation_id
_citation_journal_abbrev
_citation_year
_citation_journal_volume
_citation_page_first
_citation_page_last
_citation_journal_id_ASTM
primary 'Inorganic Chemistry' 1969 8 709 716 INOCAJ
_publ_author_name                  'Bright, D.;Ibers, J.A.'
_cell_length_a                     13.27(2)
_cell_length_b                     9.85(1)
_cell_length_c                     6.84(1)
_cell_angle_alpha                  90.
_cell_angle_beta                   90.
_cell_angle_gamma                  90.
_cell_volume                       894.05
_cell_formula_units_Z              4
_symmetry_space_group_name_H-M     'P n m a'
_symmetry_Int_Tables_number        62
_refine_ls_R_factor_all            .033
loop_
_symmetry_equiv_pos_site_id
_symmetry_equiv_pos_as_xyz
  1	'x+.5, y, -z+.5'
  2	'x, -y+.5, z'
  3	'-x+.5, y+.5, z+.5'
  4	'-x, -y, -z'
  5	'-x+.5, -y, z+.5'
  6	'-x, y+.5, -z'
  7	'x+.5, -y+.5, -z+.5'
  8	'x, y, z'
loop_
_atom_type_symbol
_atom_type_oxidation_number
Cl1-	-1
K1+	1
N3-	-3
Os6+	6
loop_
_atom_site_label
_atom_site_type_symbol
_atom_site_symmetry_multiplicity
_atom_site_Wyckoff_symbol
_atom_site_fract_x
_atom_site_fract_y
_atom_site_fract_z
_atom_site_occupancy
_atom_site_attached_hydrogens
Os1 Os6+ 4 c 0.09285(3) 0.25 0.16969(7) 1. 0 
N1 N3- 4 c -.0016(9) 0.25 0.0211(19) 1. 0 
Cl1 Cl1- 4 c 0.24791(24) 0.25 0.40342(48) 1. 0 
Cl2 Cl1- 4 c -.00025(24) 0.25 0.46498(49) 1. 0 
Cl3 Cl1- 4 c 0.21955(27) 0.25 -.07233(44) 1. 0 
Cl4 Cl1- 8 d 0.10586(19) 0.01128(23) 0.19054(35) 1. 0 
K1 K1+ 8 d 0.35463(18) 0.00086(24) 0.16968(36) 1. 0 

#End of data_27560-ICSD


