data_48119-ICSD
#?2014 by Fachinformationszentrum Karlsruhe, and the U.S. Secretary of 
#Commerce on behalf of the United States.  All rights reserved.
_database_code_ICSD                48119
_audit_creation_date               1984/12/31
_chemical_name_systematic
;
Cesium Tetrapotassium Gallium Oxide
;
_chemical_formula_structural       'Cs K4 (Ga O4)'
_chemical_formula_sum              'Cs1 Ga1 K4 O4'
_publ_section_title
;
Zur Kenntnis der Na5 (Ga O4)-Verwandtschaft: K Na4 (Ga O4) und Cs K4 
(Ga O4)
;
loop_
_citation_id
_citation_journal_abbrev
_citation_year
_citation_journal_volume
_citation_page_first
_citation_page_last
_citation_journal_id_ASTM
primary 'Zeitschrift fuer Anorganische und Allgemeine Chemie (1950) (DE)'
 1984 511 201 211 ZAACAB
_publ_author_name                  'Koehler, J.;Hoppe, R.'
_cell_length_a                     11.547
_cell_length_b                     6.677
_cell_length_c                     20.966
_cell_angle_alpha                  90.
_cell_angle_beta                   90.
_cell_angle_gamma                  90.
_cell_volume                       1616.46
_cell_formula_units_Z              8
_symmetry_space_group_name_H-M     'P b c a'
_symmetry_Int_Tables_number        61
_refine_ls_R_factor_all            .0762
loop_
_symmetry_equiv_pos_site_id
_symmetry_equiv_pos_as_xyz
  1	'x+.5, y, -z+.5'
  2	'x, -y+.5, z+.5'
  3	'-x+.5, y+.5, z'
  4	'-x, -y, -z'
  5	'-x+.5, -y, z+.5'
  6	'-x, y+.5, -z+.5'
  7	'x+.5, -y+.5, -z'
  8	'x, y, z'
loop_
_atom_type_symbol
_atom_type_oxidation_number
Cs1+	1
Ga3+	3
K1+	1
O2-	-2
loop_
_atom_site_label
_atom_site_type_symbol
_atom_site_symmetry_multiplicity
_atom_site_Wyckoff_symbol
_atom_site_fract_x
_atom_site_fract_y
_atom_site_fract_z
_atom_site_occupancy
_atom_site_attached_hydrogens
Ga1 Ga3+ 8 c 0.4660(1) 0.1982(2) 0.3718(1) 1. 0 
K1 K1+ 8 c 0.7969(3) 0.5946(4) 0.1374(1) 1. 0 
K2 K1+ 8 c 0.1744(2) 0.9087(4) 0.1790(1) 1. 0 
K3 K1+ 8 c 0.4403(3) 0.0982(4) 0.0670(1) 1. 0 
K4 K1+ 8 c 0.0812(3) 0.4072(5) 0.2534(1) 1. 0 
Cs1 Cs1+ 8 c 0.8449(1) 0.5814(1) 0.4961 1. 0 
O1 O2- 8 c 0.9597(8) 0.9153(12) 0.1214(4) 1. 0 
O2 O2- 8 c 0.6051(8) 0.8149(13) 0.0559(4) 1. 0 
O3 O2- 8 c 0.6221(8) 0.2833(14) 0.3648(4) 1. 0 
O4 O2- 8 c 0.6158(9) 0.7229(12) 0.7023(4) 1. 0 

loop_
_atom_site_aniso_label
_atom_site_aniso_type_symbol
_atom_site_aniso_U_11
_atom_site_aniso_U_22
_atom_site_aniso_U_33
_atom_site_aniso_U_12
_atom_site_aniso_U_13
_atom_site_aniso_U_23
Ga1 Ga3+ 0.0164(6) 0.0092(5) 0.01009(5) 0.0009(5) 0.0(5) 0.0001(5)
K1 K1+ 0.0258(14) 0.0149(11) 0.0231(12) 0.0018(11) 0.0041(11) 0.0026(10)
K2 K1+ 0.0144(11) 0.0218(12) 0.0193(11) 0.0050(11) 0.0026(9) 0.0058(10)
K3 K1+ 0.0238(13) 0.0148(11) 0.0207(11) 0.0011(10) -.0026(10) -.0012(10)
K4 K1+ 0.0355(17) 0.0307(15) 0.0192(12) -.0116(13) 0.0062(12) -.0083(13)
Cs1 Cs1+ 0.0242(4) 0.0217(4) 0.0187(3) 0.0032(3) 0.0009(3) 0.0021(3)
O1 O2- 0.0294(40) 0.0110(33) 0.0204(35) -.0040(29) -.0003(34) -.0026(33)
O2 O2- 0.0202(36) 0.0182(34) 0.0136(31) -.0048(30) -.0028(30) -.0004(31)
O3 O2- 0.0230(37) 0.0220(38) 0.0141(33) -.0028(31) -.0030(31) -.0089(32)
O4 O2- 0.0346(43) 0.0109(34) 0.0180(35) -.0015(30) -.0045(34) -.0020(32)
#End of data_48119-ICSD


