data_29514-ICSD
#?2014 by Fachinformationszentrum Karlsruhe, and the U.S. Secretary of 
#Commerce on behalf of the United States.  All rights reserved.
_database_code_ICSD                29514
_audit_creation_date               1988/05/18
_chemical_name_systematic          'Dipotassium Hafnium Fluoride'
_chemical_formula_structural       'K2 Hf F6'
_chemical_formula_sum              'F6 Hf1 K2'
_publ_section_title
;
Crystal structure refinement of K2 Hf F6
;
loop_
_citation_id
_citation_journal_abbrev
_citation_year
_citation_journal_volume
_citation_page_first
_citation_page_last
_citation_journal_id_ASTM
primary 'Zeitschrift fuer Kristallographie (1979-2010)' 1986 175 159 164 ZEKRDZ
_publ_author_name
;
Neumann, C.;Saalfeld, H.;Gerdau, E.;Guse, W.
;
_cell_length_a                     6.592(3)
_cell_length_b                     11.485(5)
_cell_length_c                     6.910(3)
_cell_angle_alpha                  90.
_cell_angle_beta                   90.56(5)
_cell_angle_gamma                  90.
_cell_volume                       523.13
_cell_formula_units_Z              4
_symmetry_space_group_name_H-M     'C 1 2/c 1'
_symmetry_Int_Tables_number        15
_refine_ls_R_factor_all            .0214
loop_
_symmetry_equiv_pos_site_id
_symmetry_equiv_pos_as_xyz
  1	'x, -y, z+.5'
  2	'-x, -y, -z'
  3	'-x, y, -z+.5'
  4	'x, y, z'
  5	'x+.5, -y+.5, z+.5'
  6	'-x+.5, -y+.5, -z'
  7	'-x+.5, y+.5, -z+.5'
  8	'x+.5, y+.5, z'
loop_
_atom_type_symbol
_atom_type_oxidation_number
F1-	-1
Hf4+	4
K1+	1
loop_
_atom_site_label
_atom_site_type_symbol
_atom_site_symmetry_multiplicity
_atom_site_Wyckoff_symbol
_atom_site_fract_x
_atom_site_fract_y
_atom_site_fract_z
_atom_site_occupancy
_atom_site_attached_hydrogens
K1 K1+ 8 f 0.0169(2) 0.3431(1) 0.0018(2) 1. 0 
Hf1 Hf4+ 4 e 0 0.04831(3) 0.25 1. 0 
F1 F1- 8 f 0.2887(7) -.0133(3) 0.2234(6) 1. 0 
F2 F1- 8 f 0.1898(6) 0.1924(3) 0.2728(5) 1. 0 
F3 F1- 8 f -.0297(7) 0.0983(3) 0.5455(5) 1. 0 

loop_
_atom_site_aniso_label
_atom_site_aniso_type_symbol
_atom_site_aniso_U_11
_atom_site_aniso_U_22
_atom_site_aniso_U_33
_atom_site_aniso_U_12
_atom_site_aniso_U_13
_atom_site_aniso_U_23
K1 K1+ 0.0238(7) 0.0233(6) 0.0208(6) -.0003(6) 0.0025(5) 0.0022(5)
Hf1 Hf4+ 0.0121(2) 0.0140(2) 0.0116(2) 0 0.0012(1) 0
F1 F1- 0.0176(20) 0.0236(16) 0.0368(21) 0.0037(16) 0.0018(17) 0.0061(15)
F2 F1- 0.0171(18) 0.0215(15) 0.0240(17) -.0033(15) 0.0006(15) -.0020(13)
F3 F1- 0.0300(21) 0.0180(15) 0.0143(14) 0.0022(16) 0.0016(15) -.0027(11)
#End of data_29514-ICSD


