data_170041-ICSD
#?2014 by Fachinformationszentrum Karlsruhe, and the U.S. Secretary of 
#Commerce on behalf of the United States.  All rights reserved.
_database_code_ICSD                170041
_audit_creation_date               2005/10/01
_audit_update_record               2013/08/01
_chemical_name_systematic
;
Octapotassium Bis(mue-sulfato-1kappaO:2kappaO')-bis[cis-dioxido-cis-
bis(sulfato-kappaO)tungstate
;
_chemical_formula_structural       'K8 (W O2 (S O4)2)2 (S O4)2'
_chemical_formula_sum              'K8 O28 S6 W2'
_publ_section_title
;
Octapotassium bis(mue-sulfato-1kappaO:2kappaO')bis[cis-dioxido-cis-
bis(sulfato-kappaO)tungstate(VI)]
;
loop_
_citation_id
_citation_journal_abbrev
_citation_year
_citation_journal_volume
_citation_page_first
_citation_page_last
_citation_journal_id_ASTM
primary 'Acta Crystallographica, Section E. Structure Reports Online'
 2005 61 i49 i51 ACSEBH
_publ_author_name                  'Schaeffer, S.J.C.;Berg, R.W.'
_cell_length_a                     9.4362(5)
_cell_length_b                     13.9625(7)
_cell_length_c                     10.1948(5)
_cell_angle_alpha                  90.00
_cell_angle_beta                   90.7800(10)
_cell_angle_gamma                  90.00
_cell_volume                       1343.07
_cell_formula_units_Z              2
_symmetry_space_group_name_H-M     'P 1 21/n 1'
_symmetry_Int_Tables_number        14
_refine_ls_R_factor_all            .0136
loop_
_symmetry_equiv_pos_site_id
_symmetry_equiv_pos_as_xyz
  1	'-x+.5, y+.5, -z+.5'
  2	'-x, -y, -z'
  3	'x+.5, -y+.5, z+.5'
  4	'x, y, z'
loop_
_atom_type_symbol
_atom_type_oxidation_number
K1+	1
O2-	-2
S6+	6
W6+	6
loop_
_atom_site_label
_atom_site_type_symbol
_atom_site_symmetry_multiplicity
_atom_site_Wyckoff_symbol
_atom_site_fract_x
_atom_site_fract_y
_atom_site_fract_z
_atom_site_occupancy
_atom_site_attached_hydrogens
_atom_site_U_iso_or_equiv
W1 W6+ 4 e 0.167155(11) 0.378486(7) 0.083299(10) 1 0 0.00768(4) 
S1 S6+ 4 e 0.08697(7) 0.49756(5) -0.20754(6) 1 0 0.00853(13) 
S2 S6+ 4 e 0.47796(7) 0.28010(5) 0.02132(7) 1 0 0.01076(14) 
S3 S6+ 4 e 0.02707(7) 0.15499(5) 0.04722(6) 1 0 0.00912(13) 
O1 O2- 4 e 0.2338(2) 0.49339(14) 0.09336(19) 1 0 0.0153(4) 
O2 O2- 4 e 0.2094(2) 0.33519(14) 0.23580(19) 1 0 0.0137(4) 
O3 O2- 4 e 0.0958(2) 0.41250(13) -0.12018(18) 1 0 0.0115(4) 
O4 O2- 4 e 0.03432(19) 0.58184(13) -0.12471(19) 1 0 0.0114(4) 
O5 O2- 4 e -0.0130(2) 0.47739(14) -0.31210(18) 1 0 0.0135(4) 
O6 O2- 4 e 0.2256(2) 0.52544(13) -0.25320(19) 1 0 0.0130(4) 
O7 O2- 4 e 0.3270(2) 0.32171(15) -0.01132(19) 1 0 0.0166(4) 
O8 O2- 4 e 0.4858(2) 0.26308(15) 0.16109(19) 1 0 0.0178(4) 
O9 O2- 4 e 0.4873(3) 0.19490(17) -0.0578(2) 1 0 0.0308(6) 
O10 O2- 4 e 0.5747(3) 0.35493(19) -0.0166(3) 1 0 0.0338(6) 
O11 O2- 4 e 0.0556(2) 0.25956(13) 0.01147(19) 1 0 0.0133(4) 
O12 O2- 4 e 0.1453(2) 0.11950(13) 0.1276(2) 1 0 0.0160(4) 
O13 O2- 4 e 0.0135(2) 0.10445(14) -0.0768(2) 1 0 0.0181(5) 
O14 O2- 4 e -0.1057(2) 0.15340(15) 0.1199(2) 1 0 0.0167(4) 
K1 K1+ 4 e 0.32372(6) 0.17573(4) 0.33893(6) 1 0 0.01357(13) 
K2 K1+ 4 e 0.50716(6) 0.50475(5) 0.19847(6) 1 0 0.01533(13) 
K3 K1+ 4 e 0.20905(6) 0.46053(5) 0.47727(6) 1 0 0.01602(13) 
K4 K1+ 4 e 0.24597(6) 0.21985(4) -0.22989(6) 1 0 0.01415(13) 

loop_
_atom_site_aniso_label
_atom_site_aniso_type_symbol
_atom_site_aniso_U_11
_atom_site_aniso_U_22
_atom_site_aniso_U_33
_atom_site_aniso_U_12
_atom_site_aniso_U_13
_atom_site_aniso_U_23
W1 W6+ 0.00668(6) 0.00793(6) 0.00842(7) 0.00067(4) -0.00051(4) -0.00047(4)
S1 S6+ 0.0078(3) 0.0089(3) 0.0088(3) 0.0011(2) 0.0006(2) 0.0009(3)
S2 S6+ 0.0074(3) 0.0141(3) 0.0109(3) 0.0023(3) 0.0007(2) 0.0002(3)
S3 S6+ 0.0094(3) 0.0077(3) 0.0102(3) -0.0008(3) 0.0003(3) 0.0002(3)
O1 O2- 0.0136(10) 0.0149(10) 0.0175(11) -0.0035(8) -0.0003(8) -0.0009(8)
O2 O2- 0.0126(10) 0.0167(10) 0.0120(10) 0.0044(8) 0.0004(8) -0.0001(8)
O3 O2- 0.0151(10) 0.0085(9) 0.0108(10) 0.0007(8) -0.0006(8) 0.0014(8)
O4 O2- 0.0074(9) 0.0109(10) 0.0157(10) 0.0012(8) -0.0006(7) -0.0023(8)
O5 O2- 0.0158(10) 0.0138(10) 0.0108(10) 0.0017(8) -0.0033(8) 0.0005(8)
O6 O2- 0.0108(10) 0.0124(9) 0.0158(10) 0.0009(8) 0.0049(8) 0.0006(8)
O7 O2- 0.0103(10) 0.0284(12) 0.0110(10) 0.0105(9) -0.0004(8) -0.0035(9)
O8 O2- 0.0133(10) 0.0286(12) 0.0114(10) 0.0035(9) -0.0006(8) 0.0036(9)
O9 O2- 0.0398(15) 0.0277(13) 0.0246(13) 0.0219(11) -0.0095(11) -0.0112(10)
O10 O2- 0.0204(13) 0.0469(15) 0.0341(14) -0.0161(11) -0.0016(10) 0.0169(12)
O11 O2- 0.0163(10) 0.0085(9) 0.0149(10) -0.0035(8) -0.0038(8) 0.0009(8)
O12 O2- 0.0138(11) 0.0125(10) 0.0216(11) -0.0002(8) -0.0045(9) 0.0022(8)
O13 O2- 0.0302(12) 0.0125(10) 0.0115(10) -0.0031(9) 0.0014(9) -0.0023(8)
O14 O2- 0.0108(10) 0.0189(11) 0.0205(11) -0.0026(8) 0.0047(8) -0.0001(9)
K1 K1+ 0.0117(3) 0.0126(3) 0.0163(3) -0.0004(2) -0.0019(2) 0.0031(2)
K2 K1+ 0.0126(3) 0.0200(3) 0.0133(3) 0.0034(2) -0.0029(2) -0.0022(2)
K3 K1+ 0.0135(3) 0.0224(3) 0.0121(3) 0.0026(3) -0.0017(2) 0.0028(3)
K4 K1+ 0.0141(3) 0.0137(3) 0.0146(3) -0.0010(2) -0.0026(2) -0.0006(2)
#End of data_170041-ICSD


