data_65286-ICSD
#?2014 by Fachinformationszentrum Karlsruhe, and the U.S. Secretary of 
#Commerce on behalf of the United States.  All rights reserved.
_database_code_ICSD                65286
_audit_creation_date               1989/12/04
_audit_update_record               2012/02/01
_chemical_name_systematic          'Zinc Bis(tetrafluoroaurate(III))'
_chemical_formula_structural       'Zn (Au F4)2'
_chemical_formula_sum              'Au2 F8 Zn1'
_publ_section_title                'Neue Fluoroaurate(III)'
loop_
_citation_id
_citation_journal_abbrev
_citation_year
_citation_journal_volume
_citation_page_first
_citation_page_last
_citation_journal_id_ASTM
primary 'Zeitschrift fuer Anorganische und Allgemeine Chemie (1950) (DE)'
 1987 555 57 63 ZAACAB
_publ_author_name                  'Mueller, B.G.'
_cell_length_a                     5.487
_cell_length_b                     5.518
_cell_length_c                     10.831
_cell_angle_alpha                  90.
_cell_angle_beta                   109.26
_cell_angle_gamma                  90.
_cell_volume                       309.58
_cell_formula_units_Z              2
_symmetry_space_group_name_H-M     'P 1 21/c 1'
_symmetry_Int_Tables_number        14
_refine_ls_R_factor_all            .061
loop_
_symmetry_equiv_pos_site_id
_symmetry_equiv_pos_as_xyz
  1	'x, -y+.5, z+.5'
  2	'-x, -y, -z'
  3	'-x, y+.5, -z+.5'
  4	'x, y, z'
loop_
_atom_type_symbol
_atom_type_oxidation_number
Au3+	3
F1-	-1
Zn2+	2
loop_
_atom_site_label
_atom_site_type_symbol
_atom_site_symmetry_multiplicity
_atom_site_Wyckoff_symbol
_atom_site_fract_x
_atom_site_fract_y
_atom_site_fract_z
_atom_site_occupancy
_atom_site_attached_hydrogens
Au1 Au3+ 4 e 0.1345(1) 0.2103(1) 0.1666 1. 0 
Zn1 Zn2+ 2 d 0.5 0 0.5 1. 0 
F1 F1- 4 e 0.3351(13) 0.2091(13) 0.0499(7) 1. 0 
F2 F1- 4 e 0.9346(14) 0.2075(14) 0.2793(7) 1. 0 
F3 F1- 4 e 0.8336(12) 0.1927(13) 0.5247(7) 1. 0 
F4 F1- 4 e 0.4315(13) 0.1148(14) 0.3117(7) 1. 0 

loop_
_atom_site_aniso_label
_atom_site_aniso_type_symbol
_atom_site_aniso_U_11
_atom_site_aniso_U_22
_atom_site_aniso_U_33
_atom_site_aniso_U_12
_atom_site_aniso_U_13
_atom_site_aniso_U_23
Au1 Au3+ 0.0124(2) 0.0125(2) 0.0118(2) 0.0004(2) 0.0042(1) 0.0017(2)
Zn1 Zn2+ 0.0135(8) 0.0153(9) 0.0128(8) 0.0008(6) 0.0050(6) -.0003(6)
F1 F1- 0.0244(26) 0.0229(27) 0.0228(25) 0.0026(24) 0.0132(22) 0.0016(25)
F2 F1- 0.0344(28) 0.0219(27) 0.0293(28) 0.0028(26) 0.0217(24) 0.0043(26)
F3 F1- 0.0096(23) 0.0321(30) 0.0192(26) -.0063(23) -.0028(21) -.0049(23)
F4 F1- 0.0195(26) 0.0321(30) 0.0128(25) 0.0029(24) 0.0015(21) 0.0055(23)
#End of data_65286-ICSD


