data_98384-ICSD
#?2014 by Fachinformationszentrum Karlsruhe, and the U.S. Secretary of 
#Commerce on behalf of the United States.  All rights reserved.
_database_code_ICSD                98384
_audit_creation_date               2005/04/01
_chemical_name_systematic          'Aluminium Phosphate(V) - Lt'
_chemical_formula_structural       'Al (P O4)'
_chemical_formula_sum              'Al1 O4 P1'
_publ_section_title
;
Thermal expansion and thermally induced variations of the crystal 
structure of Al P O4 low crystobalite
;
loop_
_citation_id
_citation_journal_abbrev
_citation_year
_citation_journal_volume
_citation_journal_issue
_citation_page_first
_citation_page_last
_citation_journal_id_ASTM
primary 'Neues Jahrbuch fuer Mineralogie. Monatshefte (Band=Jahr) (1950-)'
 2003 2003 7 289 301 NJMMAW
_publ_author_name                  'Graetsch, H.A.'
_cell_length_a                     7.1149(3)
_cell_length_b                     7.1106(3)
_cell_length_c                     7.0389(2)
_cell_angle_alpha                  90
_cell_angle_beta                   90
_cell_angle_gamma                  90
_cell_volume                       356.11
_cell_formula_units_Z              4
_symmetry_space_group_name_H-M     'C 2 2 21'
_symmetry_Int_Tables_number        20
_refine_ls_R_factor_all            .0184
loop_
_symmetry_equiv_pos_site_id
_symmetry_equiv_pos_as_xyz
  1	'-x, y, -z+.5'
  2	'-x, -y, z+.5'
  3	'x, -y, -z'
  4	'x, y, z'
  5	'-x+.5, y+.5, -z+.5'
  6	'-x+.5, -y+.5, z+.5'
  7	'x+.5, -y+.5, -z'
  8	'x+.5, y+.5, z'
loop_
_atom_type_symbol
_atom_type_oxidation_number
Al3+	3
O2-	-2
P5+	5
loop_
_atom_site_label
_atom_site_type_symbol
_atom_site_symmetry_multiplicity
_atom_site_Wyckoff_symbol
_atom_site_fract_x
_atom_site_fract_y
_atom_site_fract_z
_atom_site_occupancy
_atom_site_attached_hydrogens
_atom_site_U_iso_or_equiv
Al1 Al3+ 4 b 0 0.2026(3) 0.250 1. 0 0.0256(3) 
P1 P5+ 4 a 0.2975(3) 0 0 1. 0 0.0256(3) 
O1 O2- 8 c 0.1791(2) 0.0624(3) 0.1660(2) 1. 0 0.0382(6) 
O2 O2- 8 c 0.4207(3) 0.1614(2) 0.9349(2) 1. 0 0.0382(6) 

#End of data_98384-ICSD


