data_6069-ICSD
#?2014 by Fachinformationszentrum Karlsruhe, and the U.S. Secretary of 
#Commerce on behalf of the United States.  All rights reserved.
_database_code_ICSD                6069
_audit_creation_date               1980/01/01
_audit_update_record               2007/08/01
_chemical_name_systematic          'Disilver Tetraiodomercurate - Beta'
_chemical_formula_structural       'Ag2 (Hg I4)'
_chemical_formula_sum              'Ag2 Hg1 I4'
_publ_section_title
;
Single-crystal studies of beta-Ag2 Hg I4
;
loop_
_citation_id
_citation_journal_abbrev
_citation_year
_citation_journal_volume
_citation_page_first
_citation_page_last
_citation_journal_id_ASTM
primary 'Journal of Solid State Chemistry' 1974 10 20 28 JSSCBI
2 'Phase Transition' 1992 38 127 220 PHTRDP
_publ_author_name
;
Browall, K.W.;Kasper, J.S.;Wiedemeier, H.
;
_cell_length_a                     6.322(2)
_cell_length_b                     6.322(2)
_cell_length_c                     12.605(15)
_cell_angle_alpha                  90.
_cell_angle_beta                   90.
_cell_angle_gamma                  90.
_cell_volume                       503.79
_cell_formula_units_Z              2
_symmetry_space_group_name_H-M     'I -4'
_symmetry_Int_Tables_number        82
_refine_ls_R_factor_all            .049
loop_
_symmetry_equiv_pos_site_id
_symmetry_equiv_pos_as_xyz
  1	'-y, x, -z'
  2	'y, -x, -z'
  3	'-x, -y, z'
  4	'x, y, z'
  5	'-y+.5, x+.5, -z+.5'
  6	'y+.5, -x+.5, -z+.5'
  7	'-x+.5, -y+.5, z+.5'
  8	'x+.5, y+.5, z+.5'
loop_
_atom_type_symbol
_atom_type_oxidation_number
Ag1+	1
Hg2+	2
I1-	-1
loop_
_atom_site_label
_atom_site_type_symbol
_atom_site_symmetry_multiplicity
_atom_site_Wyckoff_symbol
_atom_site_fract_x
_atom_site_fract_y
_atom_site_fract_z
_atom_site_occupancy
_atom_site_attached_hydrogens
I1 I1- 8 g 0.2652(4) 0.2284(4) 0.1332(1) 1. 0 
Hg1 Hg2+ 2 a 0 0 0 1. 0 
Ag1 Ag1+ 2 b 0 0 0.5 1. 0 
Ag2 Ag1+ 2 c 0 0.5 0.25 1. 0 

#End of data_6069-ICSD


