data_261840-ICSD
#?2014 by Fachinformationszentrum Karlsruhe, and the U.S. Secretary of 
#Commerce on behalf of the United States.  All rights reserved.
_database_code_ICSD                261840
_audit_creation_date               2012/02/01
_chemical_name_systematic          'Lithium Yttrium Ditungstate'
_chemical_formula_structural       'Li Y W2 O8'
_chemical_formula_sum              'Li1 O8 W2 Y1'
_publ_section_title
;
Crystal structure of Li Ln W2 O8 (Ln=Lanthanides and Y): An X-ray 
powder diffraction study
;
loop_
_citation_id
_citation_journal_abbrev
_citation_year
_citation_journal_volume
_citation_journal_issue
_citation_page_first
_citation_page_last
_citation_journal_id_ASTM
primary 'Journal of Solid State Chemistry' 2011 184 8 2004 2008 JSSCBI
_publ_author_name
;
Postema, J.M.;Fu, W.T.;Ijdo, D.J.W.
;
_cell_length_a                     9.9932(1)
_cell_length_b                     5.79743(7)
_cell_length_c                     5.00639(7)
_cell_angle_alpha                  90.
_cell_angle_beta                   94.1992(8)
_cell_angle_gamma                  90.
_cell_volume                       289.27
_cell_formula_units_Z              2
_symmetry_space_group_name_H-M     'P 1 2/n 1'
_symmetry_Int_Tables_number        13
_refine_ls_R_factor_all            .0561
loop_
_symmetry_equiv_pos_site_id
_symmetry_equiv_pos_as_xyz
  1	'x+.5, -y, z+.5'
  2	'-x+.5, y, -z+.5'
  3	'-x, -y, -z'
  4	'x, y, z'
loop_
_atom_type_symbol
_atom_type_oxidation_number
Li1+	1
O2-	-2
W6+	6
Y3+	3
loop_
_atom_site_label
_atom_site_type_symbol
_atom_site_symmetry_multiplicity
_atom_site_Wyckoff_symbol
_atom_site_fract_x
_atom_site_fract_y
_atom_site_fract_z
_atom_site_occupancy
_atom_site_attached_hydrogens
_atom_site_B_iso_or_equiv
Li1 Li1+ 2 f 0.25 0.230(5) 0.75 1. 0 0.22(2) 
Y1 Y3+ 2 e 0.25 0.6978(3) 0.25 1. 0 0.22(2) 
W1 W6+ 4 g 0.0171(1) 0.1824(1) 0.2522(1) 1. 0 0.22(2) 
O1 O2- 4 g 0.1136(8) 0.620(1) 0.889(1) 1. 0 0.22(2) 
O2 O2- 4 g 0.1384(8) 0.384(1) 0.408(1) 1. 0 0.22(2) 
O3 O2- 4 g 0.1185(8) 0.084(1) 0.960(2) 1. 0 0.22(2) 
O4 O2- 4 g 0.10245(8) 0.892(1) 0.457(2) 1. 0 0.22(2) 

#End of data_261840-ICSD


