data_162555-ICSD
#?2014 by Fachinformationszentrum Karlsruhe, and the U.S. Secretary of 
#Commerce on behalf of the United States.  All rights reserved.
_database_code_ICSD                162555
_audit_creation_date               2009/08/01
_chemical_name_systematic          'Lithium Gallium Telluride'
_chemical_formula_structural       'Li Ga Te2'
_chemical_formula_sum              'Ga1 Li1 Te2'
_publ_section_title
;
Li Ga Te2 : a new highly nonlinear chalcopyrite optical crystal for 
the Mid-IR
;
loop_
_citation_id
_citation_journal_abbrev
_citation_year
_citation_journal_volume
_citation_journal_issue
_citation_page_first
_citation_page_last
_citation_journal_id_ASTM
primary 'Crystal Growth and Design' 2005 5 4 1325 1329 CGDEFU
_publ_author_name
;
Isaenko, L.;Krinitsin, P.;Vedenyapin, V.;Yelisseyev, A.;Merkulov, 
A.;Zondy, J.J.;Petrov, V.
;
_cell_length_a                     6.3295(6)
_cell_length_b                     6.3295(6)
_cell_length_c                     11.682(1)
_cell_angle_alpha                  90.
_cell_angle_beta                   90.
_cell_angle_gamma                  90.
_cell_volume                       468.01
_cell_formula_units_Z              4
_symmetry_space_group_name_H-M     'I -4 2 d'
_symmetry_Int_Tables_number        122
_refine_ls_R_factor_all            .0272
loop_
_symmetry_equiv_pos_site_id
_symmetry_equiv_pos_as_xyz
  1	'-y, -x+.5, z+.25'
  2	'y, -x, -z'
  3	'y, x+.5, z+.25'
  4	'-y, x, -z'
  5	'x, -y+.5, -z+.25'
  6	'-x, -y, z'
  7	'-x, y+.5, -z+.25'
  8	'x, y, z'
  9	'-y+.5, -x, z+.75'
 10	'y+.5, -x+.5, -z+.5'
 11	'y+.5, x, z+.75'
 12	'-y+.5, x+.5, -z+.5'
 13	'x+.5, -y, -z+.75'
 14	'-x+.5, -y+.5, z+.5'
 15	'-x+.5, y, -z+.75'
 16	'x+.5, y+.5, z+.5'
loop_
_atom_type_symbol
_atom_type_oxidation_number
Ga3+	3
Li1+	1
Te2-	-2
loop_
_atom_site_label
_atom_site_type_symbol
_atom_site_symmetry_multiplicity
_atom_site_Wyckoff_symbol
_atom_site_fract_x
_atom_site_fract_y
_atom_site_fract_z
_atom_site_occupancy
_atom_site_attached_hydrogens
_atom_site_U_iso_or_equiv
Li1 Li1+ 4 a 0 0 0 1. 0 0.026(9) 
Ga1 Ga3+ 4 b 0.5 0 0.25 1. 0 0.014(1) 
Te1 Te2- 8 d 0.2666(1) 0.75 0.125 1. 0 0.016(1) 

#End of data_162555-ICSD


