data_417431-ICSD
#?2014 by Fachinformationszentrum Karlsruhe, and the U.S. Secretary of 
#Commerce on behalf of the United States.  All rights reserved.
_database_code_ICSD                417431
_audit_creation_date               2008/02/01
_chemical_name_systematic
;
Zinc Dihydroxodioxophosphate(V) Dihydrate
;
_chemical_formula_structural       'Zn (P O2 (O H)2)2 (H2 O)2'
_chemical_formula_sum              'H8 O10 P2 Zn1'
_publ_section_title
;
Crystal chemistry of M [P O2 (O H)2]2 * 2 H2O compounds (M = Mg, Mn, 
Fe, Co, Ni, Zn, Cd): Structural investigation of the Ni, Zn, Cd salts
;
loop_
_citation_id
_citation_journal_abbrev
_citation_year
_citation_journal_volume
_citation_journal_issue
_citation_page_first
_citation_page_last
_citation_journal_id_ASTM
primary 'Journal of Solid State Chemistry' 2007 180 3 956 967 JSSCBI
_publ_author_name                  'Koleva, V.;Effenberger, H.'
_cell_length_a                     7.263(2)
_cell_length_b                     9.893(2)
_cell_length_c                     5.328(1)
_cell_angle_alpha                  90.00
_cell_angle_beta                   94.79(1)
_cell_angle_gamma                  90.00
_cell_volume                       381.49
_cell_formula_units_Z              2
_symmetry_space_group_name_H-M     'P 1 21/n 1'
_symmetry_Int_Tables_number        14
_refine_ls_R_factor_all            .02
loop_
_symmetry_equiv_pos_site_id
_symmetry_equiv_pos_as_xyz
  1	'-x+.5, y+.5, -z+.5'
  2	'-x, -y, -z'
  3	'x+.5, -y+.5, z+.5'
  4	'x, y, z'
loop_
_atom_type_symbol
_atom_type_oxidation_number
H1+	1
O2-	-2
P5+	5
Zn2+	2
loop_
_atom_site_label
_atom_site_type_symbol
_atom_site_symmetry_multiplicity
_atom_site_Wyckoff_symbol
_atom_site_fract_x
_atom_site_fract_y
_atom_site_fract_z
_atom_site_occupancy
_atom_site_attached_hydrogens
_atom_site_U_iso_or_equiv
Zn1 Zn2+ 2 a 0.5000 0.5000 0.5000 1 0 0.01230(6) 
P1 P5+ 4 e 0.83715(4) 0.28527(3) 0.74355(5) 1 0 0.01127(7) 
O1 O2- 4 e 0.64493(12) 0.33251(9) 0.65757(17) 1 0 0.01633(16) 
O2 O2- 4 e 0.86201(13) 0.13396(8) 0.73591(16) 1 0 0.01670(17) 
O3 O2- 4 e 0.96905(15) 0.35616(12) 0.5668(2) 1 0 0.0247(2) 
O4 O2- 4 e 0.88711(14) 0.33820(10) 0.01834(17) 1 0 0.02076(19) 
O5 O2- 4 e 0.29939(12) 0.46353(10) 0.75869(16) 1 0 0.01590(16) 
H1 H1+ 4 e 0.338(3) 0.425(2) -0.106(4) 1 0 0.011(5) 
H2 H1+ 4 e 0.262(3) 0.539(3) 0.803(4) 1 0 0.013(6) 
H3 H1+ 4 e 0.046(3) 0.370(3) 0.617(4) 1 0 0.016(7) 
H4 H1+ 4 e 0.980(6) 0.283(4) 0.127(7) 1 0 0.092(14) 

loop_
_atom_site_aniso_label
_atom_site_aniso_type_symbol
_atom_site_aniso_U_11
_atom_site_aniso_U_22
_atom_site_aniso_U_33
_atom_site_aniso_U_12
_atom_site_aniso_U_13
_atom_site_aniso_U_23
Zn1 Zn2+ 0.01284(10) 0.01048(10) 0.01335(9) -0.00055(6) -0.00031(6) 
0.00003(6)
P1 P5+ 0.01142(13) 0.01025(13) 0.01159(12) 0.00086(9) -0.00224(9) 
-0.00033(9)
O1 O2- 0.0122(4) 0.0142(4) 0.0214(4) 0.0011(3) -0.0052(3) 0.0016(3)
O2 O2- 0.0229(4) 0.0108(4) 0.0153(4) 0.0037(3) -0.0049(3) -0.0014(3)
O3 O2- 0.0194(5) 0.0315(6) 0.0231(4) -0.0090(4) 0.0010(4) 0.0044(4)
O4 O2- 0.0246(5) 0.0204(4) 0.0158(4) 0.0090(3) -0.0071(3) -0.0067(3)
O5 O2- 0.0169(4) 0.0160(4) 0.0150(4) 0.0015(3) 0.0022(3) 0.0011(3)
#End of data_417431-ICSD


