data_180415-ICSD
#?2014 by Fachinformationszentrum Karlsruhe, and the U.S. Secretary of 
#Commerce on behalf of the United States.  All rights reserved.
_database_code_ICSD                180415
_audit_creation_date               2012/02/01
_audit_update_record               2012/08/01
_chemical_name_systematic          'Lanthanum Aluminate - Strained'
_chemical_formula_structural       'La (Al O3)'
_chemical_formula_sum              'Al1 La1 O3'
_publ_section_title
;
Structural phases of strained La Al O3 driven by octahedral tilt 
instabilities
;
loop_
_citation_id
_citation_journal_abbrev
_citation_year
_citation_journal_volume
_citation_page_first
_citation_page_last
_citation_journal_id_ASTM
primary 'Physical Review, Serie 3. B - Condensed Matter (18,1978-)'
 2010 82 195402-1 195402-5 PRBMDO
_publ_author_name                  'Hatt, A.J.;Spaldin, N.A.'
_cell_length_a                     9.15
_cell_length_b                     5.2976
_cell_length_c                     5.2976
_cell_angle_alpha                  90.
_cell_angle_beta                   54.927
_cell_angle_gamma                  90.
_cell_volume                       210.16
_cell_formula_units_Z              4
_symmetry_space_group_name_H-M     'C 1 2/c 1'
_symmetry_Int_Tables_number        15
loop_
_symmetry_equiv_pos_site_id
_symmetry_equiv_pos_as_xyz
  1	'x, -y, z+.5'
  2	'-x, -y, -z'
  3	'-x, y, -z+.5'
  4	'x, y, z'
  5	'x+.5, -y+.5, z+.5'
  6	'-x+.5, -y+.5, -z'
  7	'-x+.5, y+.5, -z+.5'
  8	'x+.5, y+.5, z'
loop_
_atom_type_symbol
_atom_type_oxidation_number
Al3+	3
La3+	3
O2-	-2
loop_
_atom_site_label
_atom_site_type_symbol
_atom_site_symmetry_multiplicity
_atom_site_Wyckoff_symbol
_atom_site_fract_x
_atom_site_fract_y
_atom_site_fract_z
_atom_site_occupancy
_atom_site_attached_hydrogens
La1 La3+ 4 e 0 0.250 0.250 1. 0 
Al1 Al3+ 4 d 0.250 0.250 0.5 1. 0 
O1 O2- 8 f -0.2652 0.4829 0.2823 1. 0 
O2 O2- 4 e 0 -0.2804 0.250 1. 0 

#End of data_180415-ICSD


