data_50662-ICSD
#?2014 by Fachinformationszentrum Karlsruhe, and the U.S. Secretary of 
#Commerce on behalf of the United States.  All rights reserved.
_database_code_ICSD                50662
_audit_creation_date               2000/07/15
_audit_update_record               2008/02/01
_chemical_name_systematic          'Barium Octasilver Sulfide'
_chemical_formula_structural       'Ba Ag8 S5'
_chemical_formula_sum              'Ag8 Ba1 S5'
_publ_section_title
;
Synthesis and structure of a new ternary silver-rich sulfide Ba Ag8 
S5
;
loop_
_citation_id
_citation_journal_abbrev
_citation_year
_citation_journal_volume
_citation_page_first
_citation_page_last
_citation_journal_id_ASTM
primary 'Journal of Solid State Chemistry' 1999 144 409 415 JSSCBI
_publ_author_name
;
Check, C.E.;Chong Zheng;Zhang Jianhua;Dabrowski, B.
;
_cell_length_a                     7.6720(2)
_cell_length_b                     17.66599(40)
_cell_length_c                     8.9370(2)
_cell_angle_alpha                  90.
_cell_angle_beta                   107.890(1)
_cell_angle_gamma                  90.
_cell_volume                       1152.7
_cell_formula_units_Z              4
_symmetry_space_group_name_H-M     'P 1 21/m 1'
_symmetry_Int_Tables_number        11
_refine_ls_R_factor_all            .049
loop_
_symmetry_equiv_pos_site_id
_symmetry_equiv_pos_as_xyz
  1	'x, -y+.5, z'
  2	'-x, -y, -z'
  3	'-x, y+.5, -z'
  4	'x, y, z'
loop_
_atom_type_symbol
_atom_type_oxidation_number
Ag1+	1
Ba2+	2
S2-	-2
loop_
_atom_site_label
_atom_site_type_symbol
_atom_site_symmetry_multiplicity
_atom_site_Wyckoff_symbol
_atom_site_fract_x
_atom_site_fract_y
_atom_site_fract_z
_atom_site_occupancy
_atom_site_attached_hydrogens
_atom_site_U_iso_or_equiv
Ba1 Ba2+ 2 e 0.4041(2) 0.75 0.7148(1) 1. 0 0.023(1) 
Ba2 Ba2+ 2 e 0.4466(2) 0.75 0.2522(1) 1. 0 0.023(1) 
Ag1 Ag1+ 4 f -.0889(2) 0.6600(1) 0.4612(2) 1. 0 0.042(1) 
Ag2 Ag1+ 2 a 0 0.5 0 1. 0 0.042(1) 
Ag3 Ag1+ 4 f 0.8879(2) 0.6654(1) 0.7791(2) 1. 0 0.045(1) 
Ag4 Ag1+ 4 f 0.2634(2) 0.5967(1) 0.9296(1) 1. 0 0.039(1) 
Ag5 Ag1+ 4 f -.0446(2) 0.6634(1) 0.1318(2) 1. 0 0.043(1) 
Ag6 Ag1+ 4 f 0.6824(2) 0.5504(1) 0.2183(2) 1. 0 0.053(1) 
Ag7 Ag1+ 4 f -.0680(2) 0.5057(1) 0.6435(2) 1. 0 0.046(1) 
Ag8 Ag1+ 4 f 0.6265(2) 0.5540(1) 0.8384(2) 1. 0 0.052(1) 
Ag9 Ag1+ 2 d 0.5 0.5 0.5 1. 0 0.050(1) 
S1 S2- 4 f 0.2381(5) 0.5701(2) 0.2033(4) 1. 0 0.025(1) 
S2 S2- 2 e 0.1063(6) 0.75 0.3810(6) 1. 0 0.023(1) 
S3 S2- 4 f 0.2262(5) 0.5703(2) 0.6442(4) 1. 0 0.026(1) 
S4 S2- 2 e 0.1271(6) 0.75 0.9317(6) 1. 0 0.023(1) 
S5 S2- 4 f 0.6157(5) 0.6528(2) 0.0287(4) 1. 0 0.025(1) 
S6 S2- 4 f 0.6348(5) 0.6356(2) 0.5421(4) 1. 0 0.024(1) 

#End of data_50662-ICSD


