data_280535-ICSD
#?2014 by Fachinformationszentrum Karlsruhe, and the U.S. Secretary of 
#Commerce on behalf of the United States.  All rights reserved.
_database_code_ICSD                280535
_audit_creation_date               2002/04/01
_chemical_name_systematic          'Trilithium Gold Disulfide'
_chemical_formula_structural       'Li3 Au S2'
_chemical_formula_sum              'Au1 Li3 S2'
_publ_section_title
;
Syntheses and structures of Li Au S and Li3 Au S2
;
loop_
_citation_id
_citation_journal_abbrev
_citation_year
_citation_journal_volume
_citation_page_first
_citation_page_last
_citation_journal_id_ASTM
primary 'Inorganic Chemistry' 2001 40 1397 1398 INOCAJ
_publ_author_name
;
Huang, F.-Q.;Yang, Y.-T.;Flaschenriem, C.;Ibers, J.A.
;
_cell_length_a                     5.7689(12)
_cell_length_b                     11.287(2)
_cell_length_c                     6.2813(13)
_cell_angle_alpha                  90.
_cell_angle_beta                   90.
_cell_angle_gamma                  90.
_cell_volume                       409
_cell_formula_units_Z              4
_symmetry_space_group_name_H-M     'I b a m'
_symmetry_Int_Tables_number        72
_refine_ls_R_factor_all            .0341
loop_
_symmetry_equiv_pos_site_id
_symmetry_equiv_pos_as_xyz
  1	'-x, y, z+.5'
  2	'x, -y, z+.5'
  3	'x, y, -z'
  4	'-x, -y, -z'
  5	'x, -y, -z+.5'
  6	'-x, y, -z+.5'
  7	'-x, -y, z'
  8	'x, y, z'
  9	'-x+.5, y+.5, z'
 10	'x+.5, -y+.5, z'
 11	'x+.5, y+.5, -z+.5'
 12	'-x+.5, -y+.5, -z+.5'
 13	'x+.5, -y+.5, -z'
 14	'-x+.5, y+.5, -z'
 15	'-x+.5, -y+.5, z+.5'
 16	'x+.5, y+.5, z+.5'
loop_
_atom_type_symbol
_atom_type_oxidation_number
Au1+	1
Li1+	1
S2-	-2
loop_
_atom_site_label
_atom_site_type_symbol
_atom_site_symmetry_multiplicity
_atom_site_Wyckoff_symbol
_atom_site_fract_x
_atom_site_fract_y
_atom_site_fract_z
_atom_site_occupancy
_atom_site_attached_hydrogens
_atom_site_U_iso_or_equiv
Li1 Li1+ 8 g 0 0.230(3) 0.25 1. 0 0.019(6) 
Li2 Li1+ 4 b 0.5 0 0.25 1. 0 0.008(6) 
Au1 Au1+ 4 c 0 0 0 1. 0 0 
S1 S2- 8 j 0.2925(3) 0.14053(16) 0 1. 0 0 

loop_
_atom_site_aniso_label
_atom_site_aniso_type_symbol
_atom_site_aniso_U_11
_atom_site_aniso_U_22
_atom_site_aniso_U_33
_atom_site_aniso_U_12
_atom_site_aniso_U_13
_atom_site_aniso_U_23
Au1 Au1+ 0.0080(5) 0.0117(5) 0.0102(5) -.00128(12) 0 0
S1 S2- 0.009(1) 0.0125(9) 0.0105(9) -.0027(8) 0 0
#End of data_280535-ICSD


