data_424942-ICSD
#?2014 by Fachinformationszentrum Karlsruhe, and the U.S. Secretary of 
#Commerce on behalf of the United States.  All rights reserved.
_database_code_ICSD                424942
_audit_creation_date               2013/08/01
_chemical_name_systematic
;
Disodium Manganese Hydrogen Fluorophosphate Trifluoride
;
_chemical_formula_structural       'Na2 Mn (H P O3 F) F3'
_chemical_formula_sum              'H1 F4 Mn1 Na2 O3 P1'
_publ_section_title
;
Manganese(III) fluorophosphate frameworks
;
loop_
_citation_id
_citation_journal_abbrev
_citation_year
_citation_journal_volume
_citation_journal_issue
_citation_page_first
_citation_page_last
_citation_journal_id_ASTM
primary 'Dalton Transactions' 2013 42 6 2302 2308 DTARAF
_publ_author_name
;
Armstrong, J.A.;Williams, E.R.;Weller, M.T.
;
_cell_length_a                     5.6722(3)
_cell_length_b                     7.6992(6)
_cell_length_c                     6.8143(5)
_cell_angle_alpha                  90.00
_cell_angle_beta                   109.733(4)
_cell_angle_gamma                  90.00
_cell_volume                       280.11
_cell_formula_units_Z              2
_symmetry_space_group_name_H-M     'P 1 21/m 1'
_symmetry_Int_Tables_number        11
_refine_ls_R_factor_all            .0502
loop_
_symmetry_equiv_pos_site_id
_symmetry_equiv_pos_as_xyz
  1	'x, -y+.5, z'
  2	'-x, -y, -z'
  3	'-x, y+.5, -z'
  4	'x, y, z'
loop_
_atom_type_symbol
_atom_type_oxidation_number
F1-	-1
H1+	1
Mn2+	2
Na1+	1
O2-	-2
P5+	5
loop_
_atom_site_label
_atom_site_type_symbol
_atom_site_symmetry_multiplicity
_atom_site_Wyckoff_symbol
_atom_site_fract_x
_atom_site_fract_y
_atom_site_fract_z
_atom_site_occupancy
_atom_site_attached_hydrogens
_atom_site_U_iso_or_equiv
Na1 Na1+ 2 b 0.5000 0.0000 1.0000 1 0 0.0135(6) 
H1 H1+ 2 e 0.08(3) 0.2500 -0.138(12) 1 0 0.15(8) 
Mn1 Mn2+ 2 c 0.0000 0.0000 0.5000 1 0 0.0077(3) 
P1 P5+ 2 e -0.0019(3) 0.2500 0.1274(3) 1 0 0.0080(4) 
Na2 Na1+ 2 e 0.5483(5) 0.2500 0.5889(5) 1 0 0.0177(7) 
F1 F1- 4 f 0.3408(5) 0.0068(4) 0.6476(4) 1 0 0.0126(6) 
F2 F1- 2 e -0.0484(7) 0.2500 0.6024(6) 1 0 0.0111(8) 
O1 O2- 2 e 0.1899(8) 0.2500 0.0010(7) 1 0 0.0085(10) 
O2 O2- 4 f 0.0707(6) 0.0877(5) 0.2650(5) 1 0 0.0127(8) 
F3 F1- 2 e -0.2647(8) 0.2500 -0.0203(7) 1 0 0.0234(11) 

loop_
_atom_site_aniso_label
_atom_site_aniso_type_symbol
_atom_site_aniso_U_11
_atom_site_aniso_U_22
_atom_site_aniso_U_33
_atom_site_aniso_U_12
_atom_site_aniso_U_13
_atom_site_aniso_U_23
Na1 Na1+ 0.0144(13) 0.0137(15) 0.0104(14) -0.0012(12) 0.0016(11) 0.0036(12)
Mn1 Mn2+ 0.0087(5) 0.0078(5) 0.0063(5) -0.0008(4) 0.0020(4) -0.0004(4)
P1 P5+ 0.0100(8) 0.0083(9) 0.0065(8) 0.000 0.0039(7) 0.000
Na2 Na1+ 0.0143(14) 0.0194(17) 0.0215(17) 0.000 0.0089(13) 0.000
F1 F1- 0.0085(12) 0.0171(15) 0.0104(14) -0.0001(12) 0.0008(11) -0.0001(13)
F2 F1- 0.017(2) 0.008(2) 0.009(2) 0.000 0.0058(17) 0.000
O1 O2- 0.007(2) 0.009(2) 0.010(3) 0.000 0.004(2) 0.000
O2 O2- 0.0154(17) 0.0117(18) 0.0137(18) 0.0032(15) 0.0085(15) 0.0050(15)
F3 F1- 0.020(2) 0.027(3) 0.022(3) 0.000 0.006(2) 0.000
#End of data_424942-ICSD


