data_280782-ICSD
#?2014 by Fachinformationszentrum Karlsruhe, and the U.S. Secretary of 
#Commerce on behalf of the United States.  All rights reserved.
_database_code_ICSD                280782
_audit_creation_date               2002/10/01
_chemical_name_systematic          'Strontium Magnesium Diphosphate(V)'
_chemical_formula_structural       'Sr Mg (P2 O7)'
_chemical_formula_sum              'Mg1 O7 P2 Sr1'
_publ_section_title                'Sr Mg P2 O7'
loop_
_citation_id
_citation_journal_abbrev
_citation_year
_citation_journal_volume
_citation_page_first
_citation_page_last
_citation_journal_id_ASTM
primary 'Acta Crystallographica, Section E. Structure Reports Online'
 2002 58 9 11 ACSEBH
_publ_author_name
;
Tahiri, A.A.;El Bali, B.;Lachkar, M.;Ouarsal, R.;Zavalii, P.Yu.
;
_cell_length_a                     5.3046(8)
_cell_length_b                     8.3053(13)
_cell_length_c                     12.700(2)
_cell_angle_alpha                  90.
_cell_angle_beta                   90.502(3)
_cell_angle_gamma                  90.
_cell_volume                       559.49
_cell_formula_units_Z              4
_symmetry_space_group_name_H-M     'P 1 21/n 1'
_symmetry_Int_Tables_number        14
_refine_ls_R_factor_all            .036
loop_
_symmetry_equiv_pos_site_id
_symmetry_equiv_pos_as_xyz
  1	'-x+.5, y+.5, -z+.5'
  2	'-x, -y, -z'
  3	'x+.5, -y+.5, z+.5'
  4	'x, y, z'
loop_
_atom_type_symbol
_atom_type_oxidation_number
Mg2+	2
O2-	-2
P5+	5
Sr2+	2
loop_
_atom_site_label
_atom_site_type_symbol
_atom_site_symmetry_multiplicity
_atom_site_Wyckoff_symbol
_atom_site_fract_x
_atom_site_fract_y
_atom_site_fract_z
_atom_site_occupancy
_atom_site_attached_hydrogens
Sr1 Sr2+ 4 e 0.21537(7) 0.33976(4) 0.72107(3) 1. 0 
Mg1 Mg2+ 4 e 0.6784(2) 0.1493(2) 0.8910(1) 1. 0 
P1 P5+ 4 e 0.7459(2) 0.0357(1) 0.66719(8) 1. 0 
P2 P5+ 4 e 0.6868(2) 0.2999(1) 0.51986(8) 1. 0 
O1 O2- 4 e 0.7331(5) 0.1157(3) 0.5530(2) 1. 0 
O2 O2- 4 e 0.6831(5) -.1393(3) 0.6533(2) 1. 0 
O3 O2- 4 e 1.0063(5) 0.0652(3) 0.7126(2) 1. 0 
O4 O2- 4 e 0.5471(5) 0.1158(3) 0.7348(2) 1. 0 
O5 O2- 4 e 0.8049(5) 0.3115(3) 0.4118(2) 1. 0 
O6 O2- 4 e 0.4046(5) 0.3309(3) 0.5233(2) 1. 0 
O7 O2- 4 e 0.8275(5) 0.4043(3) 0.6000(2) 1. 0 

loop_
_atom_site_aniso_label
_atom_site_aniso_type_symbol
_atom_site_aniso_U_11
_atom_site_aniso_U_22
_atom_site_aniso_U_33
_atom_site_aniso_U_12
_atom_site_aniso_U_13
_atom_site_aniso_U_23
Sr1 Sr2+ 0.0081(2) 0.0104(2) 0.0116(2) 0.00044(14) -.0006(1) -.0011(2)
Mg1 Mg2+ 0.0097(7) 0.0093(6) 0.0098(7) -.0003(5) -.0019(5) 0.0002(5)
P1 P5+ 0.0081(5) 0.0076(4) 0.0071(5) 0.0004(3) 0.0000(4) -.0002(4)
P2 P5+ 0.0072(5) 0.0086(4) 0.0070(5) -.0001(3) 0.0008(4) 0.0003(4)
O1 O2- 0.0151(15) 0.0086(12) 0.0085(14) 0.0024(11) 0.0021(12) -.0006(11)
O2 O2- 0.0128(14) 0.0072(12) 0.0115(14) 0.0012(10) 0.0003(11) 0.000(1)
O3 O2- 0.0099(14) 0.0160(14) 0.0196(16) -.0012(11) -.0059(12) 0.0007(12)
O4 O2- 0.0111(14) 0.0116(12) 0.0081(14) 0.0003(10) 0.0016(11) -.0022(10)
O5 O2- 0.0091(14) 0.0172(14) 0.0070(14) -.0005(10) 0.0036(11) 0.0002(10)
O6 O2- 0.0082(13) 0.0127(13) 0.0123(15) 0.0016(11) -.0006(11) 0.0013(11)
O7 O2- 0.0125(14) 0.0093(12) 0.0096(14) -.0010(11) -.0024(11) -.0006(10)
#End of data_280782-ICSD


