data_49546-ICSD
#?2014 by Fachinformationszentrum Karlsruhe, and the U.S. Secretary of 
#Commerce on behalf of the United States.  All rights reserved.
_database_code_ICSD                49546
_audit_creation_date               1984/12/31
_audit_update_record               2012/08/01
_chemical_name_systematic          'Potassium Gallium Sulfide'
_chemical_formula_structural       'K Ga S2'
_chemical_formula_sum              'Ga1 K1 S2'
_publ_section_title
;
Structure du sulfure de gallium et de potassium, K Ga S2
;
loop_
_citation_id
_citation_journal_abbrev
_citation_year
_citation_journal_volume
_citation_page_first
_citation_page_last
_citation_journal_id_ASTM
primary 'Acta Crystallographica, Section C: Crystal Structure Communications'
 1984 40 910 912 ACSCEE
_publ_author_name                  'Lemoine, P.;Carre, D.;Guittard, M.'
_cell_length_a                     14.791(5)
_cell_length_b                     10.425(3)
_cell_length_c                     10.4424(2)
_cell_angle_alpha                  90.
_cell_angle_beta                   90.
_cell_angle_gamma                  100.16(2)
_cell_volume                       1584.93
_cell_formula_units_Z              16
_symmetry_space_group_name_H-M     'A 1 1 a'
_symmetry_Int_Tables_number        9
_refine_ls_R_factor_all            .039
loop_
_symmetry_equiv_pos_site_id
_symmetry_equiv_pos_as_xyz
  1	'x+.5, y, -z'
  2	'x, y, z'
  3	'x+.5, y+.5, -z+.5'
  4	'x, y+.5, z+.5'
loop_
_atom_type_symbol
_atom_type_oxidation_number
Ga3+	3
K1+	1
S2-	-2
loop_
_atom_site_label
_atom_site_type_symbol
_atom_site_symmetry_multiplicity
_atom_site_Wyckoff_symbol
_atom_site_fract_x
_atom_site_fract_y
_atom_site_fract_z
_atom_site_occupancy
_atom_site_attached_hydrogens
Ga1 Ga3+ 4 a 0 0 0.1876 1. 0 
Ga2 Ga3+ 4 a 0.5011(7) 0.7482(9) 0.0649(6) 1. 0 
Ga3 Ga3+ 4 a 0.8265(7) 0.9578(10) 0.4373(7) 1. 0 
Ga4 Ga3+ 4 a 0.3258(2) 0.7039(3) 0.3099(6) 1. 0 
K1 K1+ 4 a 0.7743(9) 0.8190(15) 0.0688(14) 1. 0 
K2 K1+ 4 a 0.5517(10) 0.1387(14) 0.1848(13) 1. 0 
K3 K1+ 4 a 0.2701(13) 0.0672(17) 0.1906(18) 1. 0 
K4 K1+ 4 a 0.0537(9) 0.3889(14) 0.0556(13) 1. 0 
S1 S2- 4 a 0.9111(12) 0.1062(15) 0.0605(14) 1. 0 
S2 S2- 4 a 0.0903(13) 0.9051(16) 0.0593(16) 1. 0 
S3 S2- 4 a 0.5966(12) 0.6458(17) 0.1854(18) 1. 0 
S4 S2- 4 a 0.9141(11) 0.6067(14) 0.07003(12) 1. 0 
S5 S2- 4 a 0.7318(8) 0.3134(12) 0.0647(13) 1. 0 
S6 S2- 4 a 0.4186(12) 0.86005(16) 0.1915(19) 1. 0 
S7 S2- 4 a 0.2331(10) 0.5552(16) 0.1898(16) 1. 0 
S8 S2- 4 a 0.4183(14) 0.3496(18) 0.1883(24) 1. 0 

loop_
_atom_site_aniso_label
_atom_site_aniso_type_symbol
_atom_site_aniso_U_11
_atom_site_aniso_U_22
_atom_site_aniso_U_33
_atom_site_aniso_U_12
_atom_site_aniso_U_13
_atom_site_aniso_U_23
Ga1 Ga3+ 0.0273(28) 0.0203(26) 0.0130(23) 0.0129(20) -.0027(20) -.0013(19)
Ga2 Ga3+ 0.0255(23) 0.0166(22) 0.0064(18) 0.0042(16) 0.0018(18) 0.0021(18)
Ga3 Ga3+ 0.0132(22) 0.0175(27) 0.0244(26) 0.0047(18) 0.0017(20) 0.0009(22)
Ga4 Ga3+ 0.0131(22) 0.0090(19) 0.0170(22) -.0030(14) 0.0002(17) -.0017(17)
K1 K1+ 0.0149(40) 0.0295(46) 0.0321(52) -.0009(29) -.0028(28) 0.0066(34)
K2 K1+ 0.0220(46) 0.0335(53) 0.0229(50) 0.0011(34) -.0025(39) 0.0099(36)
K3 K1+ 0.0422(82) 0.0299(66) 0.0459(83) 0.0159(55) -.0039(64) -.0152(51)
K4 K1+ 0.0198(56) 0.0345(51) 0.0231(39) 0.0074(38) -.0041(30) -.0091(31)
S1 S2- 0.0132(29) 0.0094(29) 0.0153(39) 0.0029(22) 0.0078(41) 0.0077(38)
S2 S2- 0.0474(70) 0.0334(58) 0.0255(55) 0.0206(47) 0.0005(48) -.0146(45)
S3 S2- 0.0250(67) 0.0269(63) 0.029(7) 0.0007(46) 0.0049(53) 0.0156(54)
S4 S2- 0.0123(28) 0.0077(30) 0.0091(30) -.0033(21) 0.0053(20) 0.0052(18)
S5 S2- 0.0038(34) 0.0119(31) 0.0267(42) -.0027(23) 0.0015(27) 0.0099(28)
S6 S2- 0.0395(27) 0.0135(63) 0.0116(60) 0.0068(47) -.0045(55) -.0016(43)
S7 S2- 0.0119(48) 0.0238(61) 0.0302(65) 0.0080(38) 0.0026(47) -.0140(51)
S8 S2- 0.0444(79) 0.0394(97) 0.0270(83) 0.0277(67) -.0080(72) 0.0020(62)
#End of data_49546-ICSD


