data_60932-ICSD
#?2014 by Fachinformationszentrum Karlsruhe, and the U.S. Secretary of 
#Commerce on behalf of the United States.  All rights reserved.
_database_code_ICSD                60932
_audit_creation_date               1988/02/22
_chemical_name_systematic          'Cadmium Dipotassium Tetranitrite'
_chemical_formula_structural       'Cd (N O2)2 (K N O2)2'
_chemical_formula_sum              'Cd1 K2 N4 O8'
_publ_section_title
;
Structures of cadmium nitrite dihydrate and cadmium dipotassium 
tetranitrite
;
loop_
_citation_id
_citation_journal_abbrev
_citation_year
_citation_journal_volume
_citation_page_first
_citation_page_last
_citation_journal_id_ASTM
primary 'Acta Crystallographica, Section C: Crystal Structure Communications'
 1987 43 191 194 ACSCEE
_publ_author_name
;
Ohba, S.;Matsumoto, F.;Takazawa, H.;Saito, Y.
;
_cell_length_a                     12.1935(5)
_cell_length_b                     11.7154(8)
_cell_length_c                     6.5520(4)
_cell_angle_alpha                  90.
_cell_angle_beta                   90.
_cell_angle_gamma                  90.
_cell_volume                       935.96
_cell_formula_units_Z              4
_symmetry_space_group_name_H-M     'P n m a'
_symmetry_Int_Tables_number        62
_refine_ls_R_factor_all            .024
loop_
_symmetry_equiv_pos_site_id
_symmetry_equiv_pos_as_xyz
  1	'x+.5, y, -z+.5'
  2	'x, -y+.5, z'
  3	'-x+.5, y+.5, z+.5'
  4	'-x, -y, -z'
  5	'-x+.5, -y, z+.5'
  6	'-x, y+.5, -z'
  7	'x+.5, -y+.5, -z+.5'
  8	'x, y, z'
loop_
_atom_type_symbol
_atom_type_oxidation_number
Cd2+	2
K1+	1
N3+	3
O2-	-2
loop_
_atom_site_label
_atom_site_type_symbol
_atom_site_symmetry_multiplicity
_atom_site_Wyckoff_symbol
_atom_site_fract_x
_atom_site_fract_y
_atom_site_fract_z
_atom_site_occupancy
_atom_site_attached_hydrogens
Cd1 Cd2+ 4 c 0.01693(1) 0.25 -.01228(2) 1. 0 
K1 K1+ 8 d 0.14641(3) 0.00451(3) 0.41012(6) 1. 0 
N1 N3+ 8 d -.1237(1) 0.0687(1) 0.1329(2) 1. 0 
O1 O2- 8 d -.0385(1) 0.1026(1) 0.2146(2) 1. 0 
O2 O2- 8 d -.1456(2) 0.1169(2) -.0305(2) 1. 0 
N2 N3+ 4 c 0.0620(3) 0.25 -.4417(4) 1. 0 
O3 O2- 8 d 0.0471(1) 0.1614(1) -.3401(2) 1. 0 
N3 N3+ 4 c 0.2493(2) 0.25 0.0760(5) 1. 0 
O4 O2- 8 d 0.1927(2) 0.1609(1) 0.0634(3) 1. 0 

loop_
_atom_site_aniso_label
_atom_site_aniso_type_symbol
_atom_site_aniso_U_11
_atom_site_aniso_U_22
_atom_site_aniso_U_33
_atom_site_aniso_U_12
_atom_site_aniso_U_13
_atom_site_aniso_U_23
Cd1 Cd2+ 0.02595(11) 0.02482(11) 0.02712(10) 0 -.00055(4) 0
K1 K1+ 0.0276(2) 0.0384(2) 0.0312(2) 0.0009(1) 0.0001(1) -.0010(1)
N1 N3+ 0.0355(7) 0.0315(6) 0.0387(7) -.0064(5) 0.0044(6) -.0023(5)
O1 O2- 0.0437(7) 0.0388(7) 0.0416(7) -.0073(5) -.0100(5) 0.0050(5)
O2 O2- 0.0499(9) 0.0434(8) 0.0434(7) -.0032(7) -.0120(6) -.0007(6)
N2 N3+ 0.0569(15) 0.0430(11) 0.0297(9) 0 0.0065(10) 0
O3 O2- 0.0809(12) 0.0313(6) 0.0377(7) 0.0049(6) 0.0005(7) -.0003(5)
N3 N3+ 0.0286(10) 0.0433(13) 0.0741(17) 0 -.0054(12) 0
O4 O2- 0.0459(9) 0.0330(7) 0.0797(11) 0.0020(6) -.0135(9) -.0060(7)
#End of data_60932-ICSD


