data_188956-ICSD
#?2014 by Fachinformationszentrum Karlsruhe, and the U.S. Secretary of 
#Commerce on behalf of the United States.  All rights reserved.
_database_code_ICSD                188956
_audit_creation_date               2014/02/01
_chemical_name_systematic          'Lithium Vanadium Phosphate (2/2/3)'
_chemical_formula_structural       'Li2 V2 (P O4)3'
_chemical_formula_sum              'Li2 O12 P3 V2'
_publ_section_title
;
Crystal structures and 3d electron configurations for the Lix V2 (P 
O4)3 insertion electrode system with a semi-double-electron reaction
;
loop_
_citation_id
_citation_journal_abbrev
_citation_year
_citation_journal_volume
_citation_journal_issue
_citation_page_first
_citation_page_last
_citation_journal_id_ASTM
primary 'Journal of the Physical Society of Japan' 2012 81 9 094801-1 094801-9 JUPSAU
_publ_author_name                  'Onoda, Masashige;Hirose, Hajime'
_cell_length_a                     8.461(3)
_cell_length_b                     8.619(3)
_cell_length_c                     11.892(2)
_cell_angle_alpha                  90.
_cell_angle_beta                   90.
_cell_angle_gamma                  90.
_cell_volume                       867.23
_cell_formula_units_Z              4
_symmetry_space_group_name_H-M     'P b n a'
_symmetry_Int_Tables_number        60
_refine_ls_R_factor_all            .058
loop_
_symmetry_equiv_pos_site_id
_symmetry_equiv_pos_as_xyz
  1	'-x, y+.5, z'
  2	'x+.5, y, -z+.5'
  3	'x+.5, -y+.5, z+.5'
  4	'-x, -y, -z'
  5	'x, -y+.5, -z'
  6	'-x+.5, -y, z+.5'
  7	'-x+.5, y+.5, -z+.5'
  8	'x, y, z'
loop_
_atom_type_symbol
_atom_type_oxidation_number
Li1+	1
O2-	-2
P5+	5
V3.5+	3.5
loop_
_atom_site_label
_atom_site_type_symbol
_atom_site_symmetry_multiplicity
_atom_site_Wyckoff_symbol
_atom_site_fract_x
_atom_site_fract_y
_atom_site_fract_z
_atom_site_occupancy
_atom_site_attached_hydrogens
_atom_site_B_iso_or_equiv
V1 V3.5+ 8 d 0.25304(9) 0.46487(7) 0.11357(5) 1. 0 0.752(9) 
P1 P5+ 8 d 0.10505(12) 0.10635(11) 0.14664(9) 1. 0 0.65(2) 
P2 P5+ 4 c 0.03898(16) 0.250 0.5 1. 0 0.69(2) 
O1 O2- 8 d 0.1641(3) 0.2697(3) 0.1757(3) 1. 0 1.19(6) 
O2 O2- 8 d 0.1434(4) 0.1654(3) 0.4177(3) 1. 0 1.81(7) 
O3 O2- 8 d 0.4247(3) 0.1058(4) 0.3448(3) 1. 0 1.39(6) 
O4 O2- 8 d 0.1545(4) 0.0572(4) 0.0300(3) 1. 0 2.11(8) 
O5 O2- 8 d 0.4383(3) 0.3629(4) 0.0669(3) 1. 0 1.90(7) 
O6 O2- 8 d 0.3257(4) 0.4888(3) 0.2708(3) 1. 0 1.38(6) 
Li1 Li1+ 8 d 0.2886(10) 0.2795(9) 0.3166(7) 1. 0 1.6(2) 

loop_
_atom_site_aniso_label
_atom_site_aniso_type_symbol
_atom_site_aniso_U_11
_atom_site_aniso_U_22
_atom_site_aniso_U_33
_atom_site_aniso_U_12
_atom_site_aniso_U_13
_atom_site_aniso_U_23
V1 V3.5+ 0.0095(2) 0.00656(18) 0.0125(2) 0.0007(3) -0.0008(3) 0.0001(2)
P1 P5+ 0.0095(3) 0.0046(3) 0.0106(4) 0.0000(3) 0.0005(4) 0.0005(3)
P2 P5+ 0.0081(5) 0.0050(5) 0.0131(6) 0. 0. -0.0005(5)
O1 O2- 0.0219(14) 0.0067(11) 0.0165(14) -0.0040(11) -0.0013(12) 0.0007(11)
O2 O2- 0.0305(18) 0.0103(12) 0.0278(17) -0.0017(13) 0.0181(14) -0.0023(13)
O3 O2- 0.0077(11) 0.0231(14) 0.0219(15) -0.0025(12) 0.0028(11) 0.0061(14)
O4 O2- 0.0351(19) 0.0206(16) 0.0247(17) -0.0094(15) 0.0129(15) -0.0118(14)
O5 O2- 0.0154(14) 0.0222(15) 0.0345(18) -0.0012(13) 0.0092(13) -0.0115(15)
O6 O2- 0.0228(16) 0.0074(12) 0.0223(16) -0.0007(11) -0.0104(13) 0.0004(11)
Li1 Li1+ 0.023(4) 0.017(4) 0.021(4) 0.000(3) -0.002(3) 0.007(3)
#End of data_188956-ICSD


