data_62245-ICSD
#?2014 by Fachinformationszentrum Karlsruhe, and the U.S. Secretary of 
#Commerce on behalf of the United States.  All rights reserved.
_database_code_ICSD                62245
_audit_creation_date               1988/07/15
_audit_update_record               2012/02/01
_chemical_name_systematic          'Dizinc Phosphate(V) Hydroxide'
_chemical_formula_structural       'Zn2 (P O4) (O H)'
_chemical_formula_sum              'H1 O5 P1 Zn2'
_chemical_name_mineral             Tarbuttite
_publ_section_title
;
Crystal structure of synthetic tarbutite Zn2 (P O4) (O H)
;
loop_
_citation_id
_citation_journal_abbrev
_citation_year
_citation_journal_volume
_citation_page_first
_citation_page_last
_citation_journal_id_ASTM
primary 'Doklady Akademii Nauk SSSR' 1985 282 314 317 DANKAS
_publ_author_name
;
Genkina, E.A.;Maksimov, B.A.;Mel'nikov, O.K.
;
_cell_length_a                     5.5517(5)
_cell_length_b                     5.7001(8)
_cell_length_c                     6.4707(8)
_cell_angle_alpha                  102.67(1)
_cell_angle_beta                   102.81(1)
_cell_angle_gamma                  86.88(1)
_cell_volume                       194.8
_cell_formula_units_Z              2
_symmetry_space_group_name_H-M     'P -1'
_symmetry_Int_Tables_number        2
_refine_ls_R_factor_all            .039
loop_
_symmetry_equiv_pos_site_id
_symmetry_equiv_pos_as_xyz
  1	'-x, -y, -z'
  2	'x, y, z'
loop_
_atom_type_symbol
_atom_type_oxidation_number
H1+	1
O2-	-2
P5+	5
Zn2+	2
loop_
_atom_site_label
_atom_site_type_symbol
_atom_site_symmetry_multiplicity
_atom_site_Wyckoff_symbol
_atom_site_fract_x
_atom_site_fract_y
_atom_site_fract_z
_atom_site_occupancy
_atom_site_attached_hydrogens
_atom_site_B_iso_or_equiv
Zn1 Zn2+ 2 i 0.3862(2) 0.2482(2) 0.4916(2) 1. 0 0 
Zn2 Zn2+ 2 i 0.0276(2) 0.7384(2) 0.1897(2) 1. 0 0 
P1 P5+ 2 i 0.8371(4) 0.2497(4) 0.2757(3) 1. 0 0 
O1 O2- 2 i 0.7759(11) 0.9935(11) 0.1498(10) 1. 0 0 
O2 O2- 2 i 0.9421(11) 0.3845(10) 0.1336(9) 1. 0 0 
O3 O2- 2 i 0.6029(11) 0.3782(10) 0.3342(10) 1. 0 0 
O4 O2- 2 i 0.9696(10) 0.7514(11) 0.5137(9) 1. 0 0 
O5 O2- 2 i 0.3595(11) 0.8872(11) 0.2954(9) 1. 0 0 
H1 H1+ 2 i 0.428(5) 0.946(5) 0.193(5) 1. 0 1.57 

loop_
_atom_site_aniso_label
_atom_site_aniso_type_symbol
_atom_site_aniso_U_11
_atom_site_aniso_U_22
_atom_site_aniso_U_33
_atom_site_aniso_U_12
_atom_site_aniso_U_13
_atom_site_aniso_U_23
Zn1 Zn2+ 0.0015 0.0049 0.0059 0.0001 0.0023 0.0024
Zn2 Zn2+ 0.0024 0.003 0.004 0.0003 0.0019 0.0014
P1 P5+ 0.0018 0.0031 0.0020 0.0003 0.0015 0.0017
O1 O2- 0.0066 0.0059 0.0066 0.0019 0.0026 0.0004
O2 O2- 0.0097 0.0058 0.0061 0.0039 0.0050 0.0041
O3 O2- 0.005 0.0056 0.0083 0.0017 0.0042 0.0030
O4 O2- 0.0033 0.0063 0.0053 0.0015 0.00211 0.0024
O5 O2- 0.0056 0.0076 0.0053 0.0010 0.0029 0.0010
#End of data_62245-ICSD


