data_32698-ICSD
#?2014 by Fachinformationszentrum Karlsruhe, and the U.S. Secretary of 
#Commerce on behalf of the United States.  All rights reserved.
_database_code_ICSD                32698
_audit_creation_date               1982/12/31
_chemical_name_systematic
;
Tetracalcium Iron Octairon(III) Oxide
;
_chemical_formula_structural       'Ca4 Fe9 O17'
_chemical_formula_sum              'Ca4 Fe9 O17'
_publ_section_title
;
La structure cristalline de Ca4 Fe9 O17: des feuillets "hexagonaux" 
d'octaedres Fe O6 et de bipyramides Fe O5 lies par des tetraedres Fe 
O4
;
loop_
_citation_id
_citation_journal_abbrev
_citation_year
_citation_journal_volume
_citation_page_first
_citation_page_last
_citation_journal_id_ASTM
primary 'Materials Research Bulletin' 1982 17 795 800 MRBUAC
_publ_author_name
;
Malaman, B.;Alebouyeh, H.;Gerardin, R.;Evrard, O.
;
_cell_length_a                     10.441(2)
_cell_length_b                     6.025(2)
_cell_length_c                     11.384(2)
_cell_angle_alpha                  90.
_cell_angle_beta                   98.8(2)
_cell_angle_gamma                  90.
_cell_volume                       707.7
_cell_formula_units_Z              2
_symmetry_space_group_name_H-M     'C 1 2 1'
_symmetry_Int_Tables_number        5
_refine_ls_R_factor_all            .05
loop_
_symmetry_equiv_pos_site_id
_symmetry_equiv_pos_as_xyz
  1	'-x, y, -z'
  2	'x, y, z'
  3	'-x+.5, y+.5, -z'
  4	'x+.5, y+.5, z'
loop_
_atom_type_symbol
_atom_type_oxidation_number
Ca2+	2
Fe2+	2
Fe3+	3
O2-	-2
loop_
_atom_site_label
_atom_site_type_symbol
_atom_site_symmetry_multiplicity
_atom_site_Wyckoff_symbol
_atom_site_fract_x
_atom_site_fract_y
_atom_site_fract_z
_atom_site_occupancy
_atom_site_attached_hydrogens
_atom_site_B_iso_or_equiv
Ca1 Ca2+ 4 c 0.4590(3) 0.998(3) 0.7490(3) 1. 0 0.59 
Ca2 Ca2+ 4 c 0.7075(3) 0.504(3) 0.2449(3) 1. 0 0.58 
Fe1 Fe3+ 4 c 0.8724(2) 0.004(2) 0.2286(2) 1. 0 0.46 
Fe2 Fe3+ 2 a 0 0.84 0 1. 0 0.62 
Fe3 Fe3+ 4 c 0.3307(3) 0.833(1) 0.9998(3) 1. 0 0.52 
Fe4 Fe3+ 4 c 0.2484(3) 0.497(1) 0.4901(2) 1. 0 0.37 
Fe5 Fe3+ 2 b 0 0.255(1) 0.5 1. 0 0.24 
Fe6 Fe2+ 2 b 0 0.750(1) 0.5 1. 0 0.41 
O1 O2- 4 c 0.4035(13) 0.495(5) 0.3978(10) 1. 0 0.56 
O2 O2- 4 c 0.4018(13) 0.000(5) 0.4042(10) 1. 0 0.46 
O3 O2- 4 c 0.1449(18) 0.242(3) 0.4043(16) 1. 0 0.44 
O4 O2- 4 c 0.6514(20) 0.250(4) 0.4012(17) 1. 0 0.68 
O5 O2- 2 a 0 0.520(6) 0 1. 0 1.02 
O6 O2- 4 c 0.8658(13) 0.291(3) 0.1733(12) 1. 0 0.44 
O7 O2- 4 c 0.2145(12) 0.366(3) 0.1748(11) 1. 0 0.15 
O8 O2- 4 c 0.5043(14) 0.348(3) 0.1733(12) 1. 0 0.49 
O9 O2- 4 c 0.1713(13) 0.988(4) 0.0238(11) 1. 0 0.82 

#End of data_32698-ICSD


