data_28348-ICSD
#?2014 by Fachinformationszentrum Karlsruhe, and the U.S. Secretary of 
#Commerce on behalf of the United States.  All rights reserved.
_database_code_ICSD                28348
_audit_creation_date               1980/01/01
_audit_update_record               2007/04/01
_chemical_name_systematic
;
Sodium Dicalcium Titanium Disilicate Oxide Fluoride
;
_chemical_formula_structural       'Na Ca2 Ti (Si2 O7) O F'
_chemical_formula_sum              'Ca2 F1 Na1 O8 Si2 Ti1'
_chemical_name_mineral             Rinkite
_publ_section_title
;
Crystal structure of rinkite Na (Ca, Ce)2 (Ti, Ce) O (Si2 O7) F
;
loop_
_citation_id
_citation_journal_abbrev
_citation_year
_citation_journal_volume
_citation_page_first
_citation_page_last
_citation_journal_id_ASTM
primary 'Doklady Akademii Nauk SSSR' 1963 150 162 164 DANKAS
_publ_author_name
;
Kheirov, M.B.;Mamedov, Kh.S.;Belov, N.V.
;
_cell_length_a                     18.90
_cell_length_b                     7.47
_cell_length_c                     5.68
_cell_angle_alpha                  90.
_cell_angle_beta                   90.
_cell_angle_gamma                  101.33
_cell_volume                       786.29
_cell_formula_units_Z              4
_symmetry_space_group_name_H-M     'P 1'
_symmetry_Int_Tables_number        1
_refine_ls_R_factor_all            .18
loop_
_symmetry_equiv_pos_site_id
_symmetry_equiv_pos_as_xyz
  1	'x, y, z'
loop_
_atom_type_symbol
_atom_type_oxidation_number
Ca2+	2
F1-	-1
Na1+	1
O2-	-2
Si4+	4
Ti4+	4
loop_
_atom_site_label
_atom_site_type_symbol
_atom_site_symmetry_multiplicity
_atom_site_Wyckoff_symbol
_atom_site_fract_x
_atom_site_fract_y
_atom_site_fract_z
_atom_site_occupancy
_atom_site_attached_hydrogens
Na1 Na1+ 1 a 0 0 0.022 1. 0 
Na2 Na1+ 1 a 0 0.5 0.022 1. 0 
Na3 Na1+ 1 a 0.5 0 0.728 1. 0 
Na4 Na1+ 1 a 0.5 0.5 0.728 1. 0 
Ca1 Ca2+ 1 a 0.187 0.343 0.875 1. 0 
Ca2 Ca2+ 1 a 0.187 0.844 0.875 1. 0 
Ca3 Ca2+ 1 a 0.312 0.156 0.625 1. 0 
Ca4 Ca2+ 1 a 0.312 0.655 0.625 1. 0 
Ca5 Ca2+ 1 a 0.686 0.343 0.875 1. 0 
Ca6 Ca2+ 1 a 0.686 0.844 0.875 1. 0 
Ca7 Ca2+ 1 a 0.812 0.156 0.125 1. 0 
Ca8 Ca2+ 1 a 0.812 0.655 0.125 1. 0 
Ti1 Ti4+ 1 a 0 0.25 0.463 1. 0 
Ti2 Ti4+ 1 a 0 0.75 0.463 1. 0 
Ti3 Ti4+ 1 a 0.5 0.25 0.287 1. 0 
Ti4 Ti4+ 1 a 0.5 0.75 0.287 1. 0 
Si1 Si4+ 1 a 0.146 0.135 0.375 1. 0 
Si2 Si4+ 1 a 0.146 0.511 0.375 1. 0 
Si3 Si4+ 1 a 0.355 0.365 0.125 1. 0 
Si4 Si4+ 1 a 0.355 0.99 0.125 1. 0 
Si5 Si4+ 1 a 0.646 0.135 0.375 1. 0 
Si6 Si4+ 1 a 0.646 0.511 0.375 1. 0 
Si7 Si4+ 1 a 0.853 0.49 0.625 1. 0 
Si8 Si4+ 1 a 0.853 0.864 0.625 1. 0 
O1 O2- 1 a 0.062 0.031 0.375 1. 0 
O2 O2- 1 a 0.187 0.094 0.092 1. 0 
O3 O2- 1 a 0.197 0.094 0.575 1. 0 
O4 O2- 1 a 0.062 0.282 0.902 1. 0 
O5 O2- 1 a 0.062 0.531 0.375 1. 0 
O6 O2- 1 a 0.187 0.593 0.092 1. 0 
O7 O2- 1 a 0.197 0.594 0.558 1. 0 
O8 O2- 1 a 0.062 0.781 0.902 1. 0 
O9 O2- 1 a 0.312 0.405 0.942 1. 0 
O10 O2- 1 a 0.302 0.405 0.318 1. 0 
O11 O2- 1 a 0.312 0.906 0.942 1. 0 
O12 O2- 1 a 0.302 0.906 0.318 1. 0 
O13 O2- 1 a 0.437 0.218 0.658 1. 0 
O14 O2- 1 a 0.437 0.468 0.158 1. 0 
O15 O2- 1 a 0.437 0.719 0.658 1. 0 
O16 O2- 1 a 0.437 0.97 0.158 1. 0 
O17 O2- 1 a 0.562 0.031 0.375 1. 0 
O18 O2- 1 a 0.687 0.094 0.658 1. 0 
O19 O2- 1 a 0.697 0.094 0.182 1. 0 
O20 O2- 1 a 0.562 0.282 0.825 1. 0 
O21 O2- 1 a 0.687 0.593 0.658 1. 0 
O22 O2- 1 a 0.697 0.593 0.182 1. 0 
O23 O2- 1 a 0.562 0.531 0.375 1. 0 
O24 O2- 1 a 0.562 0.781 0.825 1. 0 
O25 O2- 1 a 0.802 0.405 0.81 1. 0 
O26 O2- 1 a 0.802 0.405 0.442 1. 0 
O27 O2- 1 a 0.937 0.468 0.591 1. 0 
O28 O2- 1 a 0.937 0.218 0.092 1. 0 
O29 O2- 1 a 0.937 0.72 0.092 1. 0 
O30 O2- 1 a 0.802 0.906 0.809 1. 0 
O31 O2- 1 a 0.802 0.906 0.442 1. 0 
O32 O2- 1 a 0.937 0.97 0.592 1. 0 
F1 F1- 1 a 0.114 0.313 0.375 1. 0 
F2 F1- 1 a 0.385 0.187 0.125 1. 0 
F3 F1- 1 a 0.614 0.312 0.375 1. 0 
F4 F1- 1 a 0.875 0.69 0.625 1. 0 

#End of data_28348-ICSD


