data_423635-ICSD
#?2014 by Fachinformationszentrum Karlsruhe, and the U.S. Secretary of 
#Commerce on behalf of the United States.  All rights reserved.
_database_code_ICSD                423635
_audit_creation_date               2012/08/01
_chemical_name_systematic          'Cesium Dilithium Trichloride'
_chemical_formula_structural       'Cs Li2 Cl3'
_chemical_formula_sum              'Cl3 Cs1 Li2'
_publ_section_title
;
Theoretical and experimental exploration of the energy landscape of 
the quasi-binary cesium chloride/lithium chloride system
;
loop_
_citation_id
_citation_journal_abbrev
_citation_year
_citation_journal_volume
_citation_journal_issue
_citation_page_first
_citation_page_last
_citation_journal_id_ASTM
primary 'Chemistry - A European Journal' 2012 18 12 3559 3565 CEUJED
_publ_author_name
;
Pentin, I.V.;Saltykov, V.;Nuss, J.;Schoen, J.C.;Jansen, M.
;
_cell_length_a                     12.4325(9)
_cell_length_b                     7.3735(5)
_cell_length_c                     6.8076(5)
_cell_angle_alpha                  90.00
_cell_angle_beta                   90.00
_cell_angle_gamma                  90.00
_cell_volume                       624.06
_cell_formula_units_Z              4
_symmetry_space_group_name_H-M     'P b c n'
_symmetry_Int_Tables_number        60
_refine_ls_R_factor_all            .0195
loop_
_symmetry_equiv_pos_site_id
_symmetry_equiv_pos_as_xyz
  1	'x, -y, z+.5'
  2	'-x+.5, y+.5, z'
  3	'x+.5, y+.5, -z+.5'
  4	'-x, -y, -z'
  5	'-x, y, -z+.5'
  6	'x+.5, -y+.5, -z'
  7	'-x+.5, -y+.5, z+.5'
  8	'x, y, z'
loop_
_atom_type_symbol
_atom_type_oxidation_number
Cl1-	-1
Cs1+	1
Li1+	1
loop_
_atom_site_label
_atom_site_type_symbol
_atom_site_symmetry_multiplicity
_atom_site_Wyckoff_symbol
_atom_site_fract_x
_atom_site_fract_y
_atom_site_fract_z
_atom_site_occupancy
_atom_site_attached_hydrogens
_atom_site_U_iso_or_equiv
Cs1 Cs1+ 4 c 0.5000 0.69185(3) 0.2500 1 0 0.03980(12) 
Cl1 Cl1- 8 d 0.74677(6) 0.40003(11) 0.05831(11) 1 0 0.03467(16) 
Cl2 Cl1- 4 c 0.5000 0.18480(11) 0.2500 1 0 0.0364(2) 
Li1 Li1+ 8 d 0.6857(4) 0.1495(7) 0.239(18) 1 0 0.032(5) 

loop_
_atom_site_aniso_label
_atom_site_aniso_type_symbol
_atom_site_aniso_U_11
_atom_site_aniso_U_22
_atom_site_aniso_U_33
_atom_site_aniso_U_12
_atom_site_aniso_U_13
_atom_site_aniso_U_23
Cs1 Cs1+ 0.04304(17) 0.04294(14) 0.03343(16) 0.000 0.0038(12) 0.000
Cl1 Cl1- 0.0472(4) 0.0304(3) 0.0264(3) -0.0083(2) 0.0053(2) -0.0017(2)
Cl2 Cl1- 0.0221(3) 0.0499(4) 0.0372(5) 0.000 0.0074(10) 0.000
Li1 Li1+ 0.0290(16) 0.0344(19) 0.032(14) -0.0005(14) 0.000(7) 0.005(15)
#End of data_423635-ICSD


