data_247258-ICSD
#?2014 by Fachinformationszentrum Karlsruhe, and the U.S. Secretary of 
#Commerce on behalf of the United States.  All rights reserved.
_database_code_ICSD                247258
_audit_creation_date               2010/08/01
_chemical_name_systematic          'Lithium Telluride Nitride (8/1/2)'
_chemical_formula_structural       'Li8 Te N2'
_chemical_formula_sum              'Li8 N2 Te1'
_publ_section_title
;
Synthesis, crystal structure and lithium motion of Li8 Se N2 and Li8 
Te N2
;
loop_
_citation_id
_citation_journal_abbrev
_citation_year
_citation_journal_volume
_citation_journal_issue
_citation_page_first
_citation_page_last
_citation_journal_id_ASTM
primary 'Zeitschrift fuer Anorganische und Allgemeine Chemie (1950) (DE)'
 2010 636 6 936 946 ZAACAB
_publ_author_name
;
Braeunling, D.;Pecher, O.;Trots, D.M.;Senyshyn, A.;Zherebtsov, 
D.A.;Haarmann, F.;Niewa, R.
;
_cell_length_a                     7.190(1)
_cell_length_b                     7.190(1)
_cell_length_c                     10.234(1)
_cell_angle_alpha                  90.00
_cell_angle_beta                   90.00
_cell_angle_gamma                  90.00
_cell_volume                       529.06
_cell_formula_units_Z              4
_symmetry_space_group_name_H-M     'I 41 m d'
_symmetry_Int_Tables_number        109
_refine_ls_R_factor_all            .022
loop_
_symmetry_equiv_pos_site_id
_symmetry_equiv_pos_as_xyz
  1	'y, -x+.5, z+.25'
  2	'-y, x+.5, z+.25'
  3	'x, -y, z'
  4	'-x, y, z'
  5	'-y, -x+.5, z+.25'
  6	'y, x+.5, z+.25'
  7	'-x, -y, z'
  8	'x, y, z'
  9	'y+.5, -x, z+.75'
 10	'-y+.5, x, z+.75'
 11	'x+.5, -y+.5, z+.5'
 12	'-x+.5, y+.5, z+.5'
 13	'-y+.5, -x, z+.75'
 14	'y+.5, x, z+.75'
 15	'-x+.5, -y+.5, z+.5'
 16	'x+.5, y+.5, z+.5'
loop_
_atom_type_symbol
_atom_type_oxidation_number
Li1+	1
N3-	-3
Te2-	-2
loop_
_atom_site_label
_atom_site_type_symbol
_atom_site_symmetry_multiplicity
_atom_site_Wyckoff_symbol
_atom_site_fract_x
_atom_site_fract_y
_atom_site_fract_z
_atom_site_occupancy
_atom_site_attached_hydrogens
_atom_site_B_iso_or_equiv
Te1 Te2- 4 a 0 0 0.8962(1) 1. 0 0.76(2) 
N1 N3- 8 b 0.5 0.2693(1) 0 1. 0 0.84(1) 
Li1 Li1+ 16 c 0.7583(4) 0.1866(4) 0.0778(3) 1. 0 1.55(5) 
Li2 Li1+ 8 b 0.5 0.1549(6) 0.1939(4) 1. 0 1.58(7) 
Li3 Li1+ 4 a 0.5 0 0.9560(7) 1. 0 2.4(1) 
Li4 Li1+ 4 a 0.5 0 0.3805(7) 1. 0 2.5(1) 

#End of data_247258-ICSD


