data_24475-ICSD
#?2014 by Fachinformationszentrum Karlsruhe, and the U.S. Secretary of 
#Commerce on behalf of the United States.  All rights reserved.
_database_code_ICSD                24475
_audit_creation_date               1980/01/01
_audit_update_record               2005/10/01
_chemical_name_systematic
;
Tetrapotassium Hexachloromanganate(II)
;
_chemical_formula_structural       'K4 (Mn Cl6)'
_chemical_formula_sum              'Cl6 K4 Mn1'
_chemical_name_mineral             Chlormanganokalite
_publ_section_title
;
La struttura della cloromanganocalite
;
loop_
_citation_id
_citation_journal_abbrev
_citation_year
_citation_journal_volume
_citation_page_first
_citation_page_last
_citation_journal_id_ASTM
primary 'Periodico di Mineralogia' 1947 16 73 88 PEMIA7
_publ_author_name                  'Bellanca, A.'
_cell_length_a                     8.468
_cell_length_b                     8.468
_cell_length_c                     8.468
_cell_angle_alpha                  89.53
_cell_angle_beta                   89.53
_cell_angle_gamma                  89.53
_cell_volume                       607.15
_cell_formula_units_Z              2
_symmetry_space_group_name_H-M     'R -3 c R'
_symmetry_Int_Tables_number        167
loop_
_symmetry_equiv_pos_site_id
_symmetry_equiv_pos_as_xyz
  1	'-x+.5, -z+.5, -y+.5'
  2	'-z+.5, -y+.5, -x+.5'
  3	'-y+.5, -x+.5, -z+.5'
  4	'x+.5, z+.5, y+.5'
  5	'z+.5, y+.5, x+.5'
  6	'y+.5, x+.5, z+.5'
  7	'-z, -x, -y'
  8	'-y, -z, -x'
  9	'-x, -y, -z'
 10	'z, x, y'
 11	'y, z, x'
 12	'x, y, z'
loop_
_atom_type_symbol
_atom_type_oxidation_number
Cl1-	-1
K1+	1
Mn2+	2
loop_
_atom_site_label
_atom_site_type_symbol
_atom_site_symmetry_multiplicity
_atom_site_Wyckoff_symbol
_atom_site_fract_x
_atom_site_fract_y
_atom_site_fract_z
_atom_site_occupancy
_atom_site_attached_hydrogens
Mn1 Mn2+ 2 a 0.25 0.25 0.25 1. 0 
K1 K1+ 2 b 0 0 0 1. 0 
K2 K1+ 6 d 0.5 0 0 1. 0 
Cl1 Cl1- 12 f 0.25 0.25 0.95 1. 0 

#End of data_24475-ICSD


