data_96557-ICSD
#?2014 by Fachinformationszentrum Karlsruhe, and the U.S. Secretary of 
#Commerce on behalf of the United States.  All rights reserved.
_database_code_ICSD                96557
_audit_creation_date               2004/04/01
_chemical_name_systematic
;
Dicalcium Iron(III) Trioxide Chloride
;
_chemical_formula_structural       'Ca2 Fe O3 Cl'
_chemical_formula_sum              'Ca2 Cl1 Fe1 O3'
_publ_section_title
;
Ca Fe O2 Cl and Ca2 Fe O3 Cl with higher space group symmetry, a 
reevaluation
;
loop_
_citation_id
_citation_journal_abbrev
_citation_year
_citation_journal_volume
_citation_page_first
_citation_page_last
_citation_journal_id_ASTM
primary 'Journal of Solid State Chemistry' 2003 174 165 166 JSSCBI
2 'Journal of Solid State Chemistry' 1991 92 496 513 JSSCBI
_publ_author_name                  'Parthe, E.;Hu, S.-Z.'
_cell_length_a                     3.848
_cell_length_b                     3.848
_cell_length_c                     13.650
_cell_angle_alpha                  90
_cell_angle_beta                   90
_cell_angle_gamma                  90
_cell_volume                       202.12
_cell_formula_units_Z              2
_symmetry_space_group_name_H-M     'P 4/n m m Z'
_symmetry_Int_Tables_number        129
loop_
_symmetry_equiv_pos_site_id
_symmetry_equiv_pos_as_xyz
  1	'y+.5, x+.5, -z'
  2	'-y, x+.5, -z'
  3	'y+.5, -x, -z'
  4	'-y, -x, -z'
  5	'x+.5, y+.5, -z'
  6	'-x, y+.5, -z'
  7	'x+.5, -y, -z'
  8	'-x, -y, -z'
  9	'-y+.5, -x+.5, z'
 10	'y, -x+.5, z'
 11	'-y+.5, x, z'
 12	'y, x, z'
 13	'-x+.5, -y+.5, z'
 14	'x, -y+.5, z'
 15	'-x+.5, y, z'
 16	'x, y, z'
loop_
_atom_type_symbol
_atom_type_oxidation_number
Ca2+	2
Cl1-	-1
Fe3+	3
O2-	-2
loop_
_atom_site_label
_atom_site_type_symbol
_atom_site_symmetry_multiplicity
_atom_site_Wyckoff_symbol
_atom_site_fract_x
_atom_site_fract_y
_atom_site_fract_z
_atom_site_occupancy
_atom_site_attached_hydrogens
Ca1 Ca2+ 2 c 0.250 0.250 0.5945 1. 0 
Ca2 Ca2+ 2 c 0.250 0.250 0.8410 1. 0 
Fe1 Fe3+ 2 c 0.250 0.250 0.2907 1. 0 
O1 O2- 4 f 0.750 0.250 0.2637 1. 0 
O2 O2- 2 c 0.250 0.250 0.4265 1. 0 
Cl1 Cl1- 2 c 0.250 0.250 0.0736 1. 0 

#End of data_96557-ICSD


