data_424672-ICSD
#?2014 by Fachinformationszentrum Karlsruhe, and the U.S. Secretary of 
#Commerce on behalf of the United States.  All rights reserved.
_database_code_ICSD                424672
_audit_creation_date               2013/02/01
_chemical_name_systematic          'Potassium Iron Selenide (1/2/3)'
_chemical_formula_structural       'K Fe2 Se3'
_chemical_formula_sum              'Fe2 K1 Se3'
_publ_section_title
;
Orbital-selective magnetism in the spin-ladder iron selenides Ba1-x 
Kx Fe2 Se3
;
loop_
_citation_id
_citation_journal_abbrev
_citation_year
_citation_journal_volume
_citation_page_first
_citation_page_last
_citation_journal_id_ASTM
primary 'Physical Review, Serie 3. B - Condensed Matter (18,1978-)'
 2012 85 180405-1 180405-5 PRBMDO
_publ_author_name
;
Caron, J.M.;Neilson, J.R.;Miller, D.C.;Arpino, K.;Llobet, A.;McQueen, 
T.M.
;
_cell_length_a                     9.364(3)
_cell_length_b                     11.520(5)
_cell_length_c                     5.622(3)
_cell_angle_alpha                  90.00000
_cell_angle_beta                   90.00000
_cell_angle_gamma                  90.00000
_cell_volume                       606.46
_cell_formula_units_Z              4
_symmetry_space_group_name_H-M     'C m c m'
_symmetry_Int_Tables_number        63
loop_
_symmetry_equiv_pos_site_id
_symmetry_equiv_pos_as_xyz
  1	'-x, y, -z+.5'
  2	'-x, -y, z+.5'
  3	'-x, y, z'
  4	'-x, -y, -z'
  5	'x, -y, z+.5'
  6	'x, y, -z+.5'
  7	'x, -y, -z'
  8	'x, y, z'
  9	'-x+.5, y+.5, -z+.5'
 10	'-x+.5, -y+.5, z+.5'
 11	'-x+.5, y+.5, z'
 12	'-x+.5, -y+.5, -z'
 13	'x+.5, -y+.5, z+.5'
 14	'x+.5, y+.5, -z+.5'
 15	'x+.5, -y+.5, -z'
 16	'x+.5, y+.5, z'
loop_
_atom_type_symbol
_atom_type_oxidation_number
Fe2.5+	2.5
K1+	1
Se2-	-2
loop_
_atom_site_label
_atom_site_type_symbol
_atom_site_symmetry_multiplicity
_atom_site_Wyckoff_symbol
_atom_site_fract_x
_atom_site_fract_y
_atom_site_fract_z
_atom_site_occupancy
_atom_site_attached_hydrogens
_atom_site_U_iso_or_equiv
K1 K1+ 4 c 0.50000 0.16657 0.25000 1.00000 0 0.02854 
Fe1 Fe2.5+ 8 e 0.3534(16) 0.50000 0.00000 1.00000 0 0.01289 
Se1 Se2- 4 c 0.00000 0.127(2) 0.25000 1.00000 0 0.01487 
Se2 Se2- 8 g 0.2115(17) 0.3838(16) 0.25000 1.00000 0 0.01487 

#End of data_424672-ICSD


