data_262076-ICSD
#?2014 by Fachinformationszentrum Karlsruhe, and the U.S. Secretary of 
#Commerce on behalf of the United States.  All rights reserved.
_database_code_ICSD                262076
_audit_creation_date               2012/02/01
_chemical_name_systematic
;
Tripotassium Aluminium Hexafluoride - Beta
;
_chemical_formula_structural       'K3 Al F6'
_chemical_formula_sum              'Al1 F6 K3'
_publ_section_title
;
The high-temperature polymorphs of K3 Al F6
;
loop_
_citation_id
_citation_journal_abbrev
_citation_year
_citation_journal_volume
_citation_journal_issue
_citation_page_first
_citation_page_last
_citation_journal_id_ASTM
primary 'Inorganic Chemistry' 2011 50 16 7792 7801 INOCAJ
_publ_author_name
;
King, G.;Abakumov, A.M.;Woodward, P.M.;Llobet, A.;Tsirlin, 
A.A.;Batuk, D.;Antipov, E.V.
;
_cell_length_a                     13.3862(5)
_cell_length_b                     13.3862(5)
_cell_length_c                     8.5617(3)
_cell_angle_alpha                  90.
_cell_angle_beta                   90.
_cell_angle_gamma                  90.
_cell_volume                       1534.17
_cell_formula_units_Z              10
_symmetry_space_group_name_H-M     'I 4/m'
_symmetry_Int_Tables_number        87
_refine_ls_R_factor_all            .08
loop_
_symmetry_equiv_pos_site_id
_symmetry_equiv_pos_as_xyz
  1	'-y, x, -z'
  2	'y, -x, -z'
  3	'x, y, -z'
  4	'-x, -y, -z'
  5	'y, -x, z'
  6	'-y, x, z'
  7	'-x, -y, z'
  8	'x, y, z'
  9	'-y+.5, x+.5, -z+.5'
 10	'y+.5, -x+.5, -z+.5'
 11	'x+.5, y+.5, -z+.5'
 12	'-x+.5, -y+.5, -z+.5'
 13	'y+.5, -x+.5, z+.5'
 14	'-y+.5, x+.5, z+.5'
 15	'-x+.5, -y+.5, z+.5'
 16	'x+.5, y+.5, z+.5'
loop_
_atom_type_symbol
_atom_type_oxidation_number
Al3+	3
F1-	-1
K1+	1
loop_
_atom_site_label
_atom_site_type_symbol
_atom_site_symmetry_multiplicity
_atom_site_Wyckoff_symbol
_atom_site_fract_x
_atom_site_fract_y
_atom_site_fract_z
_atom_site_occupancy
_atom_site_attached_hydrogens
_atom_site_U_iso_or_equiv
K1 K1+ 4 d 0 0.5 0.25 1. 0 0.0440(4) 
K2 K1+ 16 i 0.1069(1) 0.2097(1) 0.2698(2) 1. 0 0.0440(4) 
K3 K1+ 2 b 0 0 0.5 1. 0 0.0625(7) 
K4 K1+ 8 h 0.2316(2) 0.4178(2) 0.5 1. 0 0.0625(7) 
Al1 Al3+ 2 a 0 0 0 1. 0 0.0179(5) 
Al2 Al3+ 8 h 0.1995(2) 0.3989(3) 0 1. 0 0.0179(5) 
F1 F1- 8 h 0.0653(6) 0.1189(5) 0 1. 0 0.0633(5) 
F2 F1- 4 e 0 0 0.2110(9) 1. 0 0.0633(5) 
F3 F1- 8 h 0.3260(5) 0.4493(7) 0 1. 0 0.0633(5) 
F4 F1- 8 h 0.1529(7) 0.5382(5) 0 1. 0 0.0633(5) 
F5 F1- 8 h 0.0759(5) 0.3660(7) 0 1. 0 0.0633(5) 
F6 F1- 8 h 0.2446(8) 0.2779(5) 0 1. 0 0.0633(5) 
F7 F1- 16 i 0.2021(3) 0.4074(3) 0.2047(4) 1. 0 0.0633(5) 

#End of data_262076-ICSD


