data_261535-ICSD
#?2014 by Fachinformationszentrum Karlsruhe, and the U.S. Secretary of 
#Commerce on behalf of the United States.  All rights reserved.
_database_code_ICSD                261535
_audit_creation_date               2011/08/01
_chemical_name_systematic          'Dicalcium Diantimonate(V)'
_chemical_formula_structural       'Ca2 Sb2 O7'
_chemical_formula_sum              'Ca2 O7 Sb2'
_publ_section_title
;
High-pressure behavior of the synthetic Ca2 Sb2 O7 weberite-type 
compound
;
loop_
_citation_id
_citation_journal_abbrev
_citation_year
_citation_journal_volume
_citation_journal_issue
_citation_page_first
_citation_page_last
_citation_journal_id_ASTM
primary 'Solid State Sciences' 2011 13 5 1092 1095 SSSCFJ
_publ_author_name
;
Chelazzi, L.;Boffa Ballaran, T.;Nestola, F.;Bindi, L.;Bonazzi, P.
;
_cell_length_a                     7.2818(4)
_cell_length_b                     10.1839(5)
_cell_length_c                     7.4467(4)
_cell_angle_alpha                  90.
_cell_angle_beta                   90.
_cell_angle_gamma                  90.
_cell_volume                       552.23
_cell_formula_units_Z              4
_symmetry_space_group_name_H-M     'I m m a'
_symmetry_Int_Tables_number        74
_refine_ls_R_factor_all            .0388
loop_
_symmetry_equiv_pos_site_id
_symmetry_equiv_pos_as_xyz
  1	'-x, y+.5, -z'
  2	'-x, -y+.5, z'
  3	'-x, y, z'
  4	'-x, -y, -z'
  5	'x, -y+.5, z'
  6	'x, y+.5, -z'
  7	'x, -y, -z'
  8	'x, y, z'
  9	'-x+.5, y, -z+.5'
 10	'-x+.5, -y, z+.5'
 11	'-x+.5, y+.5, z+.5'
 12	'-x+.5, -y+.5, -z+.5'
 13	'x+.5, -y, z+.5'
 14	'x+.5, y, -z+.5'
 15	'x+.5, -y+.5, -z+.5'
 16	'x+.5, y+.5, z+.5'
loop_
_atom_type_symbol
_atom_type_oxidation_number
Ca2+	2
O2-	-2
Sb5+	5
loop_
_atom_site_label
_atom_site_type_symbol
_atom_site_symmetry_multiplicity
_atom_site_Wyckoff_symbol
_atom_site_fract_x
_atom_site_fract_y
_atom_site_fract_z
_atom_site_occupancy
_atom_site_attached_hydrogens
_atom_site_U_iso_or_equiv
Ca1 Ca2+ 4 a 0 0 0 1. 0 0.0079(4) 
Ca2 Ca2+ 4 d 0.25 0.25 0.75 1. 0 0.0100(4) 
Sb1 Sb5+ 4 c 0.25 0.25 0.25 1. 0 0.0049(2) 
Sb2 Sb5+ 4 b 0 0 0.5 1. 0 0.0052(2) 
O1 O2- 4 e 0 0.25 0.1514(9) 1. 0 0.011(1) 
O2 O2- 8 h 0 0.4079(5) 0.7281(5) 1. 0 0.0080(9) 
O3 O2- 16 j 0.2928(4) 0.6182(3) 0.9358(4) 1. 0 0.0082(6) 

loop_
_atom_site_aniso_label
_atom_site_aniso_type_symbol
_atom_site_aniso_U_11
_atom_site_aniso_U_22
_atom_site_aniso_U_33
_atom_site_aniso_U_12
_atom_site_aniso_U_13
_atom_site_aniso_U_23
Ca1 Ca2+ 0.008(1) 0.0102(9) 0.0058(9) 0.0000 0.0000 0.0023(7)
Ca2 Ca2+ 0.007(1) 0.0077(9) 0.015(1) 0.0000 0.0005(7) 0.0000
Sb1 Sb5+ 0.0050(3) 0.0038(3) 0.0059(3) 0.0000 0.0001(2) 0.0000
Sb2 Sb5+ 0.0058(4) 0.0042(3) 0.0056(3) 0.0000 0.0000 0.0005(2)
O1 O2- 0.006(3) 0.015(3) 0.011(3) 0.0000 0.0000 0.0000
O2 O2- 0.012(2) 0.006(2) 0.006(2) 0.0000 0.0000 -0.000(2)
O3 O2- 0.008(1) 0.007(1) 0.009(1) 0.001(1) 0.000(3) 0.003(1)
#End of data_261535-ICSD


