data_28369-ICSD
#?2014 by Fachinformationszentrum Karlsruhe, and the U.S. Secretary of 
#Commerce on behalf of the United States.  All rights reserved.
_database_code_ICSD                28369
_audit_creation_date               1980/01/01
_audit_update_record               2012/02/01
_chemical_name_systematic
;
Disodium Tecto-dialumotrisilicate Dihydrate
;
_chemical_formula_structural       'Na2 (Al2 Si3 O10) (H2 O)2'
_chemical_formula_sum              'H4 Al2 Na2 O12 Si3'
_chemical_name_mineral             Natrolite
_publ_section_title
;
Neutron diffraction determination of the hydrogen positions in 
natrolite
;
loop_
_citation_id
_citation_journal_abbrev
_citation_year
_citation_journal_volume
_citation_page_first
_citation_page_last
_citation_journal_id_ASTM
primary 'Canadian Journal of Physics' 1964 42 229 240 CJPHAD
_publ_author_name
;
Torrie, B.H.;Brown, I.D.;Petch, H.E.
;
_cell_length_a                     18.300(10)
_cell_length_b                     18.630(10)
_cell_length_c                     6.60(2)
_cell_angle_alpha                  90.
_cell_angle_beta                   90.
_cell_angle_gamma                  90.
_cell_volume                       2250.13
_cell_formula_units_Z              8
_symmetry_space_group_name_H-M     'F d d 2'
_symmetry_Int_Tables_number        43
_refine_ls_R_factor_all            .077
loop_
_symmetry_equiv_pos_site_id
_symmetry_equiv_pos_as_xyz
  1	'x+.25, -y+.25, z+.25'
  2	'-x+.25, y+.25, z+.25'
  3	'-x, -y, z'
  4	'x, y, z'
  5	'x+.25, -y+.75, z+.75'
  6	'x+.75, -y+.25, z+.75'
  7	'x+.75, -y+.75, z+.25'
  8	'-x+.25, y+.75, z+.75'
  9	'-x+.75, y+.25, z+.75'
 10	'-x+.75, y+.75, z+.25'
 11	'-x, -y+.5, z+.5'
 12	'-x+.5, -y, z+.5'
 13	'-x+.5, -y+.5, z'
 14	'x, y+.5, z+.5'
 15	'x+.5, y, z+.5'
 16	'x+.5, y+.5, z'
loop_
_atom_type_symbol
_atom_type_oxidation_number
Al3+	3
H1+	1
Na1+	1
O2-	-2
Si4+	4
loop_
_atom_site_label
_atom_site_type_symbol
_atom_site_symmetry_multiplicity
_atom_site_Wyckoff_symbol
_atom_site_fract_x
_atom_site_fract_y
_atom_site_fract_z
_atom_site_occupancy
_atom_site_attached_hydrogens
_atom_site_B_iso_or_equiv
Na1 Na1+ 16 b 0.2216(4) 0.0311(4) 0.6158(37) 1. 0 1.12 
Al1 Al3+ 16 b 0.0373(4) 0.0944(4) 0.6120(24) 1. 0 0.5 
Si1 Si4+ 8 a 0 0 0 1. 0 0.47 
Si2 Si4+ 16 b 0.1542(4) 0.2111(3) 0.6220(25) 1. 0 0.59 
O1 O2- 16 b 0.0230(3) 0.0683(3) 0.8595(24) 1. 0 1.07 
O2 O2- 16 b 0.0703(3) 0.1821(2) 0.5954(23) 1. 0 0.3 
O3 O2- 16 b 0.0980(3) 0.0351(2) 0.4967(23) 1. 0 0.9 
O4 O2- 16 b 0.2066(3) 0.1530(3) 0.7219(23) 1. 0 0.89 
O5 O2- 16 b 0.1804(3) 0.2275(3) 0.3828(22) 1. 0 1.08 
O6 O2- 16 b 0.0562(4) 0.1894(4) 0.1045(28) 1. 0 1.78 
H1 H1+ 16 b 0.0513(7) 0.1443(6) 0.0282(32) 1. 0 2.83 
H2 H1+ 16 b 0.1012(7) 0.1883(8) 0.1740(41) 1. 0 3.73 

#End of data_28369-ICSD


