data_94453-ICSD
#?2014 by Fachinformationszentrum Karlsruhe, and the U.S. Secretary of 
#Commerce on behalf of the United States.  All rights reserved.
_database_code_ICSD                94453
_audit_creation_date               2003/10/01
_audit_update_record               2005/10/01
_chemical_name_systematic          'Tripotassium Erbium Chloride - L'
_chemical_formula_structural       'K3 (Er Cl6)'
_chemical_formula_sum              'Cl6 Er1 K3'
_publ_section_title
;
Das System (K Cl)/(Er Cl3) und die Modifikationen der Verbindungen K3 
Ln Cl6 (Ln = Ce - Lu, Y)
;
loop_
_citation_id
_citation_journal_abbrev
_citation_year
_citation_journal_volume
_citation_page_first
_citation_page_last
_citation_journal_id_ASTM
primary 'Zeitschrift fuer Anorganische und Allgemeine Chemie (1950) (DE)'
 2001 627 2317 2322 ZAACAB
2 'Golden Book of Phase Transitions, Wroclaw' 2002 1 1 123 GBOPT5
_publ_author_name                  'Dudek, H.;Seifert, H.J.'
_cell_length_a                     13.070(4)
_cell_length_b                     7.713(1)
_cell_length_c                     12.577(6)
_cell_angle_alpha                  90
_cell_angle_beta                   109.97(3)
_cell_angle_gamma                  90
_cell_volume                       1191.64
_cell_formula_units_Z              4
_symmetry_space_group_name_H-M     'P 1 21/c 1'
_symmetry_Int_Tables_number        14
_refine_ls_R_factor_all            .0522
loop_
_symmetry_equiv_pos_site_id
_symmetry_equiv_pos_as_xyz
  1	'x, -y+.5, z+.5'
  2	'-x, -y, -z'
  3	'-x, y+.5, -z+.5'
  4	'x, y, z'
loop_
_atom_type_symbol
_atom_type_oxidation_number
Cl1-	-1
Er3+	3
K1+	1
loop_
_atom_site_label
_atom_site_type_symbol
_atom_site_symmetry_multiplicity
_atom_site_Wyckoff_symbol
_atom_site_fract_x
_atom_site_fract_y
_atom_site_fract_z
_atom_site_occupancy
_atom_site_attached_hydrogens
_atom_site_U_iso_or_equiv
Er1 Er3+ 2 a 0 0 0 1. 0 0.0019(1) 
Er2 Er3+ 2 d 0.5 0.5 0 1. 0 0.0019(1) 
K1 K1+ 4 e 0.6082(3) -0.0309(5) 0.8711(3) 1. 0 0.0052(1) 
K2 K1+ 4 e 0.8100(3) 0.5523(4) 0.7644(3) 1. 0 0.0040(1) 
K3 K1+ 4 e 0.8241(3) 0.0746(4) 0.6105(3) 1. 0 0.0033(1) 
Cl1 Cl1- 4 e -0.0025(3) 0.1307(5) 0.1919(3) 1. 0 0.0030(1) 
Cl2 Cl1- 4 e 0.1457(4) 0.2289(5) -0.0007(3) 1. 0 0.0047(1) 
Cl3 Cl1- 4 e 0.8373(3) 0.2029(5) 0.8918(3) 1. 0 0.0037(1) 
Cl4 Cl1- 4 e 0.6028(3) 0.5278(5) 0.8575(3) 1. 0 0.0039(1) 
Cl5 Cl1- 4 e 0.6065(3) 0.2089(4) 0.0779(3) 1. 0 0.0034(1) 
Cl6 Cl1- 4 e 0.6515(3) 0.6713(5) 0.1492(3) 1. 0 0.0038(1) 

#End of data_94453-ICSD


