data_49914-ICSD
#?2014 by Fachinformationszentrum Karlsruhe, and the U.S. Secretary of 
#Commerce on behalf of the United States.  All rights reserved.
_database_code_ICSD                49914
_audit_creation_date               1988/05/18
_audit_update_record               2012/08/01
_chemical_name_systematic
;
Magnesium Dizinc Bromide Hexahydrate
;
_chemical_formula_structural       'Mg (H2 O)6 Zn2 Br6'
_chemical_formula_sum              'H12 Br6 Mg1 O6 Zn2'
_publ_section_title
;
Structure of magnesium dizinc hexabromide hexahydrate, Mg Zn2 Br6 (H2 
O)6
;
loop_
_citation_id
_citation_journal_abbrev
_citation_year
_citation_journal_volume
_citation_page_first
_citation_page_last
_citation_journal_id_ASTM
primary 'Acta Crystallographica, Section C: Crystal Structure Communications'
 1987 43 2046 2048 ACSCEE
_publ_author_name
;
Duhlev, R.;Faggiani, R.;Brown, I.D.
;
_cell_length_a                     10.447(2)
_cell_length_b                     10.325(1)
_cell_length_c                     7.999(2)
_cell_angle_alpha                  90.
_cell_angle_beta                   90.
_cell_angle_gamma                  90.
_cell_volume                       862.81
_cell_formula_units_Z              2
_symmetry_space_group_name_H-M     'I m m m'
_symmetry_Int_Tables_number        71
_refine_ls_R_factor_all            .057
loop_
_symmetry_equiv_pos_site_id
_symmetry_equiv_pos_as_xyz
  1	'x, y, -z'
  2	'x, -y, z'
  3	'-x, y, z'
  4	'-x, -y, -z'
  5	'-x, -y, z'
  6	'-x, y, -z'
  7	'x, -y, -z'
  8	'x, y, z'
  9	'x+.5, y+.5, -z+.5'
 10	'x+.5, -y+.5, z+.5'
 11	'-x+.5, y+.5, z+.5'
 12	'-x+.5, -y+.5, -z+.5'
 13	'-x+.5, -y+.5, z+.5'
 14	'-x+.5, y+.5, -z+.5'
 15	'x+.5, -y+.5, -z+.5'
 16	'x+.5, y+.5, z+.5'
loop_
_atom_type_symbol
_atom_type_oxidation_number
Br1-	-1
H1+	1
Mg2+	2
O2-	-2
Zn2+	2
loop_
_atom_site_label
_atom_site_type_symbol
_atom_site_symmetry_multiplicity
_atom_site_Wyckoff_symbol
_atom_site_fract_x
_atom_site_fract_y
_atom_site_fract_z
_atom_site_occupancy
_atom_site_attached_hydrogens
_atom_site_U_iso_or_equiv
Zn1 Zn2+ 4 h 0.5 0.16139(16) 0 1. 0 0 
Br1 Br1- 4 j 0.5 0 0.2302(2) 1. 0 0 
Br2 Br1- 8 n 0.31210(13) 0.28803(11) 0 1. 0 0 
Mg1 Mg2+ 2 a 0 0 0 1. 0 0 
O1 O2- 8 m 0.1408(10) 0 0.1765(12) 1. 0 0 
O2 O2- 4 g 0 0.1975(12) 0 1. 0 0 
H1 H1+ 16 o 0.1748 0.0611 0.219 1. 0 0.20(16) 
H2 H1+ 8 n 0.0603 0.2457 0 1. 0 0.08(5) 

loop_
_atom_site_aniso_label
_atom_site_aniso_type_symbol
_atom_site_aniso_U_11
_atom_site_aniso_U_22
_atom_site_aniso_U_33
_atom_site_aniso_U_12
_atom_site_aniso_U_13
_atom_site_aniso_U_23
Zn1 Zn2+ 0.0582(13) 0.0307(10) 0.0529(11) 0 0 0
Br1 Br1- 0.0831(14) 0.0378(9) 0.0390(9) 0 0 0
Br2 Br1- 0.0552(9) 0.0464(8) 0.0747(9) 0.0058(6) 0 0
Mg1 Mg2+ 0.0356(37) 0.0305(33) 0.0414(36) 0 0 0
O1 O2- 0.0753(62) 0.0661(56) 0.0693(60) 0 0.0278(52) 0
O2 O2- 0.082(10) 0.0291(62) 0.127(13) 0 0 0
#End of data_49914-ICSD


