data_281505-ICSD
#?2014 by Fachinformationszentrum Karlsruhe, and the U.S. Secretary of 
#Commerce on behalf of the United States.  All rights reserved.
_database_code_ICSD                281505
_audit_creation_date               2004/04/01
_chemical_name_systematic
;
Dipotassium Octathiotrimercurodistannate - Alpha
;
_chemical_formula_structural       'K2 (Hg3 Sn2 S8)'
_chemical_formula_sum              'Hg3 K2 S8 Sn2'
_publ_section_title
;
Alpha- and beta-(A2 Hg3 M2 S8) (A = K, Rb; M = Ge, Sn): polar  
quaternary chalcogenides with strong nonlinear optical response
;
loop_
_citation_id
_citation_journal_abbrev
_citation_year
_citation_journal_volume
_citation_page_first
_citation_page_last
_citation_journal_id_ASTM
primary 'Journal of the American Chemical Society' 2003 125 9484 9493 JACSAT
_publ_author_name
;
Liao, J.-H.;Marking, G.M.;Hsu, K.-F.;Matsushita, Y.;Ewbank, 
M.D.;Borwick, R.;Cunningham, P.;Rosker, M.J.;Kanatzidis, M.G.
;
_cell_length_a                     19.5634(25)
_cell_length_b                     9.8527(13)
_cell_length_c                     8.4667(11)
_cell_angle_alpha                  90.
_cell_angle_beta                   90.
_cell_angle_gamma                  90.
_cell_volume                       1631.98
_cell_formula_units_Z              4
_symmetry_space_group_name_H-M     'A b a 2'
_symmetry_Int_Tables_number        41
_refine_ls_R_factor_all            .043
loop_
_symmetry_equiv_pos_site_id
_symmetry_equiv_pos_as_xyz
  1	'x+.5, -y+.5, z'
  2	'-x+.5, y+.5, z'
  3	'-x, -y, z'
  4	'x, y, z'
  5	'x+.5, -y, z+.5'
  6	'-x+.5, y, z+.5'
  7	'-x, -y+.5, z+.5'
  8	'x, y+.5, z+.5'
loop_
_atom_type_symbol
_atom_type_oxidation_number
Hg2+	2
K1+	1
S2-	-2
Sn4+	4
loop_
_atom_site_label
_atom_site_type_symbol
_atom_site_symmetry_multiplicity
_atom_site_Wyckoff_symbol
_atom_site_fract_x
_atom_site_fract_y
_atom_site_fract_z
_atom_site_occupancy
_atom_site_attached_hydrogens
_atom_site_U_iso_or_equiv
Hg1 Hg2+ 4 a 0.5 1 0.48983(13) 1. 0 0.0229(2) 
Hg2 Hg2+ 8 b 0.25481(3) 0.53930(6) 0.64877(9) 1. 0 0.0288(2) 
Sn1 Sn4+ 8 b 0.36680(4) 0.78503(7) 0.33705(11) 1. 0 0.0136(2) 
K1 K1+ 8 b 0.38367(19) 0.7934(3) 0.8441(5) 1. 0 0.0295(7) 
S1 S2- 8 b 0.26696(19) 0.7874(3) 0.4904(5) 1. 0 0.0205(7) 
S2 S2- 8 b 0.46920(16) 0.7698(3) 0.4958(5) 1. 0 0.0197(7) 
S3 S2- 8 b 0.37500(18) 0.4892(3) 0.6832(5) 1. 0 0.0190(7) 
S4 S2- 8 b 0.13284(16) 0.5833(3) 0.6791(4) 1. 0 0.0178(7) 

loop_
_atom_site_aniso_label
_atom_site_aniso_type_symbol
_atom_site_aniso_U_11
_atom_site_aniso_U_22
_atom_site_aniso_U_33
_atom_site_aniso_U_12
_atom_site_aniso_U_13
_atom_site_aniso_U_23
Hg1 Hg2+ 0.0230(4) 0.0184(4) 0.0273(4) -0.0057(3) 0 0
Hg2 Hg2+ 0.0190(3) 0.0280(4) 0.0395(4) 0.0054(2) -0.0008(3) 0.0009(3)
Sn1 Sn4+ 0.0142(4) 0.0136(4) 0.0129(5) -0.0008(3) -0.0003(4) -0.0006(4)
K1 K1+ 0.0323(18) 0.0278(16) 0.0284(18) 0.0045(12) 0.0053(18) 0.0024(14)
S1 S2- 0.0182(15) 0.0177(16) 0.0255(19) 0.0013(10) 0.0059(16) 0.0037(13)
S2 S2- 0.0174(15) 0.0159(14) 0.0258(17) -0.0023(11) -0.0049(13) 0.0053(14)
S3 S2- 0.0197(16) 0.0163(14) 0.0208(19) -0.0024(11) -0.0013(14) 0.0036(12)
#End of data_281505-ICSD


