data_411777-ICSD
#?2014 by Fachinformationszentrum Karlsruhe, and the U.S. Secretary of 
#Commerce on behalf of the United States.  All rights reserved.
_database_code_ICSD                411777
_audit_creation_date               2002/10/01
_chemical_name_systematic          'Tin Dialuminium Oxide Hexachloride'
_chemical_formula_structural       'Sn Al2 O Cl6'
_chemical_formula_sum              'Al2 Cl6 O1 Sn1'
_publ_section_title
;
Sn Al2 O Cl6, ein quaternaeres Oxidchlorid mit kantenverknuepften 
(Al4 O2 Cl10)-Tetrameren und ((Sn Cl2/2 Cl5)2)-Dimeren
;
loop_
_citation_id
_citation_journal_abbrev
_citation_year
_citation_journal_volume
_citation_page_first
_citation_page_last
_citation_journal_id_ASTM
primary 'Zeitschrift fuer Anorganische und Allgemeine Chemie (1950) (DE)'
 2001 627 921 924 ZAACAB
_publ_author_name                  'Assoud, A.;Meyer, G.'
_cell_length_a                     9.4231(13)
_cell_length_b                     12.2575(19)
_cell_length_c                     9.4842(12)
_cell_angle_alpha                  90.
_cell_angle_beta                   96.421(16)
_cell_angle_gamma                  90.
_cell_volume                       1088.59
_cell_formula_units_Z              4
_symmetry_space_group_name_H-M     'P 1 21/n 1'
_symmetry_Int_Tables_number        14
_refine_ls_R_factor_all            .0378
loop_
_symmetry_equiv_pos_site_id
_symmetry_equiv_pos_as_xyz
  1	'-x+.5, y+.5, -z+.5'
  2	'-x, -y, -z'
  3	'x+.5, -y+.5, z+.5'
  4	'x, y, z'
loop_
_atom_type_symbol
_atom_type_oxidation_number
Al3+	3
Cl1-	-1
O2-	-2
Sn2+	2
loop_
_atom_site_label
_atom_site_type_symbol
_atom_site_symmetry_multiplicity
_atom_site_Wyckoff_symbol
_atom_site_fract_x
_atom_site_fract_y
_atom_site_fract_z
_atom_site_occupancy
_atom_site_attached_hydrogens
Sn1 Sn2+ 4 e 0.20673(3) 0.02499(3) 0.98491(3) 1. 0 
Cl1 Cl1- 4 e 0.12645(12) 0.01895(10) 0.68859(11) 1. 0 
Cl2 Cl1- 4 e 0.03315(13) -.13583(9) 0.02123(14) 1. 0 
Al1 Al3+ 4 e 0.42141(13) -.00772(9) 0.37640(13) 1. 0 
Cl3 Cl1- 4 e 0.25080(13) 0.0988(1) 0.30749(13) 1. 0 
Al2 Al3+ 4 e 0.27098(13) -.10977(9) 0.63873(13) 1. 0 
Cl4 Cl1- 4 e 0.16784(13) -.22271(10) 0.49508(15) 1. 0 
Cl5 Cl1- 4 e 0.35732(13) -.17146(10) 0.83884(12) 1. 0 
Cl6 Cl1- 4 e 0.44814(15) -.12335(10) 0.21774(13) 1. 0 
O1 O2- 4 e 0.4109(3) -.05282(19) 0.5555(3) 1. 0 

loop_
_atom_site_aniso_label
_atom_site_aniso_type_symbol
_atom_site_aniso_U_11
_atom_site_aniso_U_22
_atom_site_aniso_U_33
_atom_site_aniso_U_12
_atom_site_aniso_U_13
_atom_site_aniso_U_23
Sn1 Sn2+ 0.0421(2) 0.04721(19) 0.03319(19) 0.00585(16) 0.00525(15) 
-.00230(16)
Cl1 Cl1- 0.0396(6) 0.0535(6) 0.0328(6) 0.0187(6) 0.0051(5) 0.0035(5)
Cl2 Cl1- 0.0475(8) 0.0379(7) 0.0632(9) 0.0117(5) 0.0202(7) 0.0057(6)
Al1 Al3+ 0.0254(6) 0.0395(8) 0.0195(6) -.0058(5) 0.0009(6) -.0025(5)
Cl3 Cl1- 0.0381(7) 0.0627(8) 0.0407(7) 0.0124(6) -.0004(6) 0.0039(6)
Al2 Al3+ 0.0237(6) 0.0324(7) 0.0264(7) -.0022(5) 0.0052(6) 0.0015(5)
Cl4 Cl1- 0.0437(7) 0.0526(7) 0.0646(9) -.0166(6) 0.0001(7) -.0185(6)
Cl5 Cl1- 0.0540(8) 0.0631(8) 0.0337(7) 0.0239(6) 0.0060(6) 0.0142(5)
Cl6 Cl1- 0.0681(9) 0.0550(7) 0.0342(7) 0.0017(6) 0.0026(7) -.0171(6)
O1 O2- 0.0239(15) 0.0366(17) 0.0238(15) -.0073(11) 0.0052(13) 0.0001(11)
#End of data_411777-ICSD


