data_200787-ICSD
#?2014 by Fachinformationszentrum Karlsruhe, and the U.S. Secretary of 
#Commerce on behalf of the United States.  All rights reserved.
_database_code_ICSD                200787
_audit_creation_date               1980/01/01
_audit_update_record               2013/02/01
_chemical_name_systematic
;
Pentadecasodium Trilutetium Cyclo-dodecasilicate
;
_chemical_formula_structural       'Na15 Lu3 (Si12 O36)'
_chemical_formula_sum              'Lu3 Na15 O36 Si12'
_publ_section_title
;
Crystal structure of the rare-earth silicate Na5 Lu Si4 O12
;
loop_
_citation_id
_citation_journal_abbrev
_citation_year
_citation_journal_volume
_citation_page_first
_citation_page_last
_citation_journal_id_ASTM
primary 'Doklady Akademii Nauk SSSR' 1978 240 81 84 DANKAS
2 'Golden Book of Phase Transitions, Wroclaw' 2002 1 1 123 GBOPT5
_publ_author_name
;
Merinov, B.V.;Maksimov, B.A.;Kharitonov, Yu.A.;Belov, N.V.
;
_cell_length_a                     21.926(4)
_cell_length_b                     21.926(4)
_cell_length_c                     12.556(2)
_cell_angle_alpha                  90.
_cell_angle_beta                   90.
_cell_angle_gamma                  120.
_cell_volume                       5227.58
_cell_formula_units_Z              6
_symmetry_space_group_name_H-M     'R 3 2 H'
_symmetry_Int_Tables_number        155
_refine_ls_R_factor_all            .058
loop_
_symmetry_equiv_pos_site_id
_symmetry_equiv_pos_as_xyz
  1	'-x, -x+y, -z'
  2	'x-y, -y, -z'
  3	'y, x, -z'
  4	'-x+y, -x, z'
  5	'-y, x-y, z'
  6	'x, y, z'
  7	'-x+.6666, -x+y+.3333, -z+.3333'
  8	'-x+.3333, -x+y+.6666, -z+.6666'
  9	'x-y+.6666, -y+.3333, -z+.3333'
 10	'x-y+.3333, -y+.6666, -z+.6666'
 11	'y+.6666, x+.3333, -z+.3333'
 12	'y+.3333, x+.6666, -z+.6666'
 13	'-x+y+.6666, -x+.3333, z+.3333'
 14	'-x+y+.3333, -x+.6666, z+.6666'
 15	'-y+.6666, x-y+.3333, z+.3333'
 16	'-y+.3333, x-y+.6666, z+.6666'
 17	'x+.6666, y+.3333, z+.3333'
 18	'x+.3333, y+.6666, z+.6666'
loop_
_atom_type_symbol
_atom_type_oxidation_number
Lu3+	3
Na1+	1
O2-	-2
Si4+	4
loop_
_atom_site_label
_atom_site_type_symbol
_atom_site_symmetry_multiplicity
_atom_site_Wyckoff_symbol
_atom_site_fract_x
_atom_site_fract_y
_atom_site_fract_z
_atom_site_occupancy
_atom_site_attached_hydrogens
_atom_site_B_iso_or_equiv
Lu1 Lu3+ 9 e 0 0.75137(5) 0.5 1. 0 0.32 
Lu2 Lu3+ 9 d 0 0.24831(3) 0 1. 0 0.21 
Si1 Si4+ 18 f 0.9013(3) 0.5522(3) 0.1011(3) 1. 0 0.16 
Si2 Si4+ 18 f -.9041(3) -.5493(3) 0.3888(3) 1. 0 0.25 
Si3 Si4+ 18 f 0.5792(3) 0.1541(3) 0.4647(3) 1. 0 0.17 
Si4 Si4+ 18 f -.5773(3) -.1478(3) 0.0443(3) 1. 0 0.21 
O1 O2- 18 f 0.9032(6) 0.5966(7) -.0031(8) 1. 0 0.62 
O2 O2- 18 f -.9054(7) -.5949(1) 0.4872(9) 1. 0 0.39 
O3 O2- 18 f 0.0663(6) 0.2019(6) 0.7622(9) 1. 0 0.25 
O4 O2- 18 f -.0794(6) -.2141(6) 0.7392(8) 1. 0 0.14 
O5 O2- 18 f 0.2336(6) 0.6130(6) 0.0566(8) 1. 0 0.6 
O6 O2- 18 f -.2356(6) -.6162(6) 0.4633(9) 1. 0 0.52 
O7 O2- 18 f 0.9104(6) 0.2683(6) -.0022(9) 1. 0 0.26 
O8 O2- 18 f -.9183(6) -.2767(6) 0.5041(9) 1. 0 0.83 
O9 O2- 18 f 0.8917(5) 0.4721(5) 0.8577(8) 1. 0 0.35 
O10 O2- 18 f -.8820(5) -.4699(5) 0.6399(8) 1. 0 0.3 
O11 O2- 18 f 0.8729(6) 0.3612(6) 0.9690(8) 1. 0 0.32 
O12 O2- 18 f -.8858(6) -.3713(6) 0.5303(8) 1. 0 0.44 
Na1 Na1+ 18 f 0.0727(6) 0.1348(6) 0.6132(8) 1. 0 0.65 
Na2 Na1+ 18 f -.0717(9) -.1447(9) 0.8917(8) 1. 0 0.76 
Na3 Na1+ 6 c 0 0 0.7474(9) 1. 0 0.11 
Na4 Na1+ 3 a 0 0 0 1. 0 0.10 
Na5 Na1+ 9 d 0.277(1) 0.277(7) 0 1. 0 0.13 
Na6 Na1+ 18 f 0.335(2) 0.186(2) 0.008(3) 1. 0 1.4 
Na7 Na1+ 18 f 0.145(2) 0.328(2) 0.21(3) 1. 0 1.8 

#End of data_200787-ICSD


