data_189164-ICSD
#?2014 by Fachinformationszentrum Karlsruhe, and the U.S. Secretary of 
#Commerce on behalf of the United States.  All rights reserved.
_database_code_ICSD                189164
_audit_creation_date               2014/02/01
_chemical_name_systematic
;
Silver Trifluoromethylsulfonyl Sulfate
;
_chemical_formula_structural       'Ag ((S O4) S O2 (C F3))'
_chemical_formula_sum              'C1 Ag1 F3 O6 S2'
_publ_section_title
;
Ag S2 O6 C F3: the first trifluoromethylsulfonylsulfate(VI)
;
loop_
_citation_id
_citation_journal_abbrev
_citation_year
_citation_journal_volume
_citation_journal_issue
_citation_page_first
_citation_page_last
_citation_journal_id_ASTM
primary 'Dalton Transactions' 2013 42 29 10417 10423 DTARAF
_publ_author_name
;
Przemyslaw J. Malinowski;Mariana Derzsi;Wojciech Grochala
;
_cell_length_a                     5.15746(14)
_cell_length_b                     25.8563(9)
_cell_length_c                     5.53970(14)
_cell_angle_alpha                  90.
_cell_angle_beta                   101.1749(19)
_cell_angle_gamma                  90.
_cell_volume                       724.73
_cell_formula_units_Z              4
_symmetry_space_group_name_H-M     'P 1 21/c 1'
_symmetry_Int_Tables_number        14
loop_
_symmetry_equiv_pos_site_id
_symmetry_equiv_pos_as_xyz
  1	'x, -y+.5, z+.5'
  2	'-x, -y, -z'
  3	'-x, y+.5, -z+.5'
  4	'x, y, z'
loop_
_atom_type_symbol
_atom_type_oxidation_number
Ag1+	1
C4+	4
F1-	-1
O2-	-2
S4+	4
S6+	6
loop_
_atom_site_label
_atom_site_type_symbol
_atom_site_symmetry_multiplicity
_atom_site_Wyckoff_symbol
_atom_site_fract_x
_atom_site_fract_y
_atom_site_fract_z
_atom_site_occupancy
_atom_site_attached_hydrogens
_atom_site_B_iso_or_equiv
Ag1 Ag1+ 4 e 0.28883 0.19058 0.11716 1. 0 1. 
S1 S4+ 4 e 0.56125 0.11320 0.69391 1. 0 1. 
S2 S6+ 4 e 0.86399 0.19750 0.52669 1. 0 1. 
O1 O2- 4 e 0.07039 0.22512 0.69704 1. 0 1. 
O2 O2- 4 e 0.78987 0.15385 0.75289 1. 0 1. 
O3 O2- 4 e 0.94501 0.16471 0.34410 1. 0 1. 
O4 O2- 4 e 0.45225 0.10934 0.43222 1. 0 1. 
O5 O2- 4 e 0.39549 0.12005 0.87146 1. 0 1. 
O6 O2- 4 e 0.61833 0.22527 0.44676 1. 0 1. 
F1 F1- 4 e 0.92239 0.04563 0.63641 1. 0 1. 
F2 F1- 4 e 0.88827 0.05705 0.02414 1. 0 1. 
F3 F1- 4 e 0.58583 0.01360 0.76756 1. 0 1. 
C1 C4+ 4 e 0.75549 0.05317 0.78844 1. 0 1. 

#End of data_189164-ICSD


