data_69748-ICSD
#?2014 by Fachinformationszentrum Karlsruhe, and the U.S. Secretary of 
#Commerce on behalf of the United States.  All rights reserved.
_database_code_ICSD                69748
_audit_creation_date               1994/01/19
_chemical_name_systematic
;
Potassium Tetrafluoromanganate(III) Hydrate
;
_chemical_formula_structural       'K (Mn F4) (H2 O)'
_chemical_formula_sum              'H2 F4 K1 Mn1 O1'
_publ_section_title
;
Magnetic structures of the MnIII weak ferromagnets AMnF4.H2O (A=Rb 
and K)
;
loop_
_citation_id
_citation_journal_abbrev
_citation_year
_citation_journal_volume
_citation_page_first
_citation_page_last
_citation_journal_id_ASTM
primary 'Journal of Physics: Condensed Matter' 1991 3 2379 2390 JCOMEL
_publ_author_name
;
Palacio, F.;Andres, M.;Rodriguez Carvajal, J.;Pannetier, J.
;
_cell_length_a                     13.7546(14)
_cell_length_b                     6.1406(5)
_cell_length_c                     10.3343(12)
_cell_angle_alpha                  90.
_cell_angle_beta                   104.230(5)
_cell_angle_gamma                  90.
_cell_volume                       846.07
_cell_formula_units_Z              8
_symmetry_space_group_name_H-M     'C 1 2/c 1'
_symmetry_Int_Tables_number        15
loop_
_symmetry_equiv_pos_site_id
_symmetry_equiv_pos_as_xyz
  1	'x, -y, z+.5'
  2	'-x, -y, -z'
  3	'-x, y, -z+.5'
  4	'x, y, z'
  5	'x+.5, -y+.5, z+.5'
  6	'-x+.5, -y+.5, -z'
  7	'-x+.5, y+.5, -z+.5'
  8	'x+.5, y+.5, z'
loop_
_atom_type_symbol
_atom_type_oxidation_number
F1-	-1
H1+	1
K1+	1
Mn3+	3
O2-	-2
loop_
_atom_site_label
_atom_site_type_symbol
_atom_site_symmetry_multiplicity
_atom_site_Wyckoff_symbol
_atom_site_fract_x
_atom_site_fract_y
_atom_site_fract_z
_atom_site_occupancy
_atom_site_attached_hydrogens
K1 K1+ 8 f 0.0797(14) 0.7218(50) 0.4396(22) 1. 0 
Mn1 Mn3+ 4 d 0.25 0.25 0.5 1. 0 
Mn2 Mn3+ 4 e 0 0.2456(73) 0.25 1. 0 
F1 F1- 8 f 0.1023(10) 0.2451(35) 0.4370(14) 1. 0 
F2 F1- 8 f 0.2484(12) -.0466(27) 0.4608(14) 1. 0 
F3 F1- 8 f 0.0665(12) 0.0425(25) 0.1821(14) 1. 0 
F4 F1- 8 f 0.0734(16) 0.4630(26) 0.1871(15) 1. 0 
O1 O2- 8 f 0.2615(16) 0.3331(38) 0.3016(21) 1. 0 
H1 H1+ 8 f 0.1959(24) 0.4045(48) 0.2505(25) 1. 0 
H2 H1+ 8 f 0.3095(27) 0.4029(51) 0.292(3) 1. 0 

#End of data_69748-ICSD


