data_63135-ICSD
#?2014 by Fachinformationszentrum Karlsruhe, and the U.S. Secretary of 
#Commerce on behalf of the United States.  All rights reserved.
_database_code_ICSD                63135
_audit_creation_date               1989/06/19
_audit_update_record               2009/02/01
_chemical_name_systematic          'Sodium Tetrachloroaurate(III)'
_chemical_formula_structural       'Na (Au Cl4)'
_chemical_formula_sum              'Au1 Cl4 Na1'
_publ_section_title
;
Anhydrous sodium tetrachloroaurate(III)
;
loop_
_citation_id
_citation_journal_abbrev
_citation_year
_citation_journal_volume
_citation_page_first
_citation_page_last
_citation_journal_id_ASTM
primary 'Acta Crystallographica, Section C: Crystal Structure Communications'
 1988 44 1164 1166 ACSCEE
_publ_author_name
;
Jones, P.G.;Hohbein, R.;Schwarzmann, E.
;
_cell_length_a                     11.277(5)
_cell_length_b                     11.234(5)
_cell_length_c                     20.584(12)
_cell_angle_alpha                  90.
_cell_angle_beta                   104.58(5)
_cell_angle_gamma                  90.
_cell_volume                       2523.73
_cell_formula_units_Z              16
_symmetry_space_group_name_H-M     'P 1 21/n 1'
_symmetry_Int_Tables_number        14
_refine_ls_R_factor_all            .077
loop_
_symmetry_equiv_pos_site_id
_symmetry_equiv_pos_as_xyz
  1	'-x+.5, y+.5, -z+.5'
  2	'-x, -y, -z'
  3	'x+.5, -y+.5, z+.5'
  4	'x, y, z'
loop_
_atom_type_symbol
_atom_type_oxidation_number
Au3+	3
Cl1-	-1
Na1+	1
loop_
_atom_site_label
_atom_site_type_symbol
_atom_site_symmetry_multiplicity
_atom_site_Wyckoff_symbol
_atom_site_fract_x
_atom_site_fract_y
_atom_site_fract_z
_atom_site_occupancy
_atom_site_attached_hydrogens
Au1 Au3+ 4 e -0.0992(1) 0.7887(1) 0.8126(1) 1. 0 
Au2 Au3+ 4 e 0.3705(1) 0.1061(1) 0.4414(1) 1. 0 
Au3 Au3+ 4 e 0.0724(1) 0.6292(1) 0.4462(1) 1. 0 
Au4 Au3+ 4 e 0.4110(1) 0.4860(1) 0.7998(1) 1. 0 
Cl1 Cl1- 4 e 0.1023(5) 0.7632(7) 0.8151(4) 1. 0 
Cl2 Cl1- 4 e -.1489(5) 0.6468(7) 0.7310(4) 1. 0 
Cl3 Cl1- 4 e -.2999(5) 0.8204(8) 0.8087(4) 1. 0 
Cl4 Cl1- 4 e -.0470(7) 0.9315(8) 0.8927(4) 1. 0 
Cl5 Cl1- 4 e 0.3868(6) 0.3084(7) 0.4407(4) 1. 0 
Cl6 Cl1- 4 e 0.2535(5) 0.1207(7) 0.5167(4) 1. 0 
Cl7 Cl1- 4 e 0.3615(5) -0.0961(7) 0.4435(4) 1. 0 
Cl8 Cl1- 4 e 0.4853(5) 0.0966(8) 0.3647(4) 1. 0 
Cl9 Cl1- 4 e 0.0921(6) 0.4268(7) 0.4375(4) 1. 0 
Cl10 Cl1- 4 e 0.2481(6) 0.6345(7) 0.5301(4) 1. 0 
Cl11 Cl1- 4 e 0.0470(6) 0.8290(6) 0.4507(4) 1. 0 
Cl12 Cl1- 4 e -.1043(6) 0.6175(8) 0.3642(4) 1. 0 
Cl13 Cl1- 4 e 0.2125(5) 0.4682(7) 0.8041(4) 1. 0 
Cl14 Cl1- 4 e 0.4600(6) 0.3413(7) 0.8785(4) 1. 0 
Cl15 Cl1- 4 e 0.6111(5) 0.5006(7) 0.7985(4) 1. 0 
Cl16 Cl1- 4 e 0.3569(6) 0.6301(7) 0.7187(4) 1. 0 
Na1 Na1+ 4 e 0.0938(8) 0.8311(12) 0.1949(7) 1. 0 
Na2 Na1+ 4 e 0.2564(10) 0.8836(11) 0.5585(7) 1. 0 
Na3 Na1+ 4 e 0.2095(9) 0.8734(12) 0.9458(7) 1. 0 
Na4 Na1+ 4 e 0.0788(10) 0.6177(12) 0.6929(6) 1. 0 

loop_
_atom_site_aniso_label
_atom_site_aniso_type_symbol
_atom_site_aniso_U_11
_atom_site_aniso_U_22
_atom_site_aniso_U_33
_atom_site_aniso_U_12
_atom_site_aniso_U_13
_atom_site_aniso_U_23
Au1 Au3+ 0.036(1) 0.025(1) 0.025(1) -.001(1) 0.007(1) -.001(1)
Au2 Au3+ 0.028(1) 0.030(1) 0.023(1) 0.002(1) 0.007(1) 0.003(1)
Au3 Au3+ 0.028(1) 0.030(1) 0.022(1) 0.000(1) 0.005(1) 0.000(1)
Au4 Au3+ 0.035(1) 0.025(1) 0.021(1) 0.000(1) 0.008(1) 0.001(1)
Cl1 Cl1- 0.040(3) 0.044(4) 0.039(4) 0.000(3) 0.006(3) -.007(3)
Cl2 Cl1- 0.041(3) 0.047(4) 0.052(4) -.011(3) 0.013(3) -.025(4)
Cl3 Cl1- 0.045(3) 0.056(5) 0.058(4) -.002(3) 0.025(4) -.012(4)
Cl4 Cl1- 0.067(4) 0.046(5) 0.028(4) 0.010(4) -.002(3) -.006(4)
Cl5 Cl1- 0.072(3) 0.032(4) 0.058(4) -.001(3) 0.033(4) 0.003(3)
Cl6 Cl1- 0.057(3) 0.046(5) 0.050(4) 0.001(3) 0.035(4) -.001(3)
Cl7 Cl1- 0.050(3) 0.039(4) 0.043(4) -.003(3) 0.012(3) -.004(3)
Cl8 Cl1- 0.048(3) 0.060(5) 0.039(4) 0.011(4) 0.022(3) 0.009(3)
Cl9 Cl1- 0.054(3) 0.034(4) 0.040(4) 0.006(3) 0.007(3) 0.000(3)
Cl10 Cl1- 0.043(3) 0.037(4) 0.048(5) 0.000(3) -.022(3) 0.006(4)
Cl11 Cl1- 0.056(3) 0.026(4) 0.032(4) 0.007(3) 0.003(3) 0.005(3)
Cl12 Cl1- 0.038(3) 0.059(5) 0.041(5) 0.007(3) -.008(3) 0.002(4)
Cl13 Cl1- 0.041(2) 0.058(5) 0.042(4) 0.006(3) 0.018(3) 0.014(4)
Cl14 Cl1- 0.066(3) 0.042(4) 0.035(4) 0.013(4) 0.013(4) 0.018(3)
Cl15 Cl1- 0.034(2) 0.057(5) 0.030(4) -.005(3) 0.006(3) 0.001(3)
Cl16 Cl1- 0.050(3) 0.051(5) 0.053(4) 0.007(3) 0.017(4) 0.028(4)
Na1 Na1+ 0.048(5) 0.057(8) 0.051(8) 0.006(6) 0.011(6) -.015(6)
Na2 Na1+ 0.067(5) 0.043(8) 0.049(7) -.015(6) 0.024(6) -.006(6)
Na3 Na1+ 0.039(5) 0.066(9) 0.056(8) -.013(6) 0.010(6) -.011(7)
Na4 Na1+ 0.059(6) 0.055(8) 0.038(7) 0.019(6) 0.004(6) 0.006(6)
#End of data_63135-ICSD


