data_415893-ICSD
#?2014 by Fachinformationszentrum Karlsruhe, and the U.S. Secretary of 
#Commerce on behalf of the United States.  All rights reserved.
_database_code_ICSD                415893
_audit_creation_date               2007/08/01
_chemical_name_systematic          'Pentasilver Hexaoxoiodate(VII)'
_chemical_formula_structural       'Ag5 (I O6)'
_chemical_formula_sum              'Ag5 I1 O6'
_publ_section_title
;
Synthesis, crystal structure determination, and physical properties 
of Ag5 I O6
;
loop_
_citation_id
_citation_journal_abbrev
_citation_year
_citation_journal_volume
_citation_journal_issue
_citation_page_first
_citation_page_last
_citation_journal_id_ASTM
primary 'Zeitschrift fuer Anorganische und Allgemeine Chemie (1950) (DE)'
 2006 632 4 577 581 ZAACAB
_publ_author_name                  'Kovalevskiy, A.;Jansen, M.'
_cell_length_a                     5.93660(10)
_cell_length_b                     5.93660(10)
_cell_length_c                     32.1471(6)
_cell_angle_alpha                  90.00
_cell_angle_beta                   90.00
_cell_angle_gamma                  120.00
_cell_volume                       981.18
_cell_formula_units_Z              6
_symmetry_space_group_name_H-M     'R -3 c H'
_symmetry_Int_Tables_number        167
_refine_ls_R_factor_all            .0288
loop_
_symmetry_equiv_pos_site_id
_symmetry_equiv_pos_as_xyz
  1	'x-y, -y, -z+.5'
  2	'-x, -x+y, -z+.5'
  3	'y, x, -z+.5'
  4	'x-y, x, -z'
  5	'y, -x+y, -z'
  6	'-x, -y, -z'
  7	'-x+y, y, z+.5'
  8	'x, x-y, z+.5'
  9	'-y, -x, z+.5'
 10	'-x+y, -x, z'
 11	'-y, x-y, z'
 12	'x, y, z'
 13	'x-y+.6666, -y+.3333, -z+.8333'
 14	'x-y+.3333, -y+.6666, -z+.1666'
 15	'-x+.6666, -x+y+.3333, -z+.8333'
 16	'-x+.3333, -x+y+.6666, -z+.1666'
 17	'y+.6666, x+.3333, -z+.8333'
 18	'y+.3333, x+.6666, -z+.1666'
 19	'x-y+.6666, x+.3333, -z+.3333'
 20	'x-y+.3333, x+.6666, -z+.6666'
 21	'y+.6666, -x+y+.3333, -z+.3333'
 22	'y+.3333, -x+y+.6666, -z+.6666'
 23	'-x+.6666, -y+.3333, -z+.3333'
 24	'-x+.3333, -y+.6666, -z+.6666'
 25	'-x+y+.6666, y+.3333, z+.8333'
 26	'-x+y+.3333, y+.6666, z+.1666'
 27	'x+.6666, x-y+.3333, z+.8333'
 28	'x+.3333, x-y+.6666, z+.1666'
 29	'-y+.6666, -x+.3333, z+.8333'
 30	'-y+.3333, -x+.6666, z+.1666'
 31	'-x+y+.6666, -x+.3333, z+.3333'
 32	'-x+y+.3333, -x+.6666, z+.6666'
 33	'-y+.6666, x-y+.3333, z+.3333'
 34	'-y+.3333, x-y+.6666, z+.6666'
 35	'x+.6666, y+.3333, z+.3333'
 36	'x+.3333, y+.6666, z+.6666'
loop_
_atom_type_symbol
_atom_type_oxidation_number
Ag1+	1
I7+	7
O2-	-2
loop_
_atom_site_label
_atom_site_type_symbol
_atom_site_symmetry_multiplicity
_atom_site_Wyckoff_symbol
_atom_site_fract_x
_atom_site_fract_y
_atom_site_fract_z
_atom_site_occupancy
_atom_site_attached_hydrogens
_atom_site_U_iso_or_equiv
I1 I7+ 6 b 0.0000 0.0000 0.0000 1 0 0.0086(2) 
Ag1 Ag1+ 18 e 0.30460(9) 0.0000 0.2500 1 0 0.0204(2) 
Ag2 Ag1+ 12 c 0.0000 0.0000 0.15546(3) 1 0 0.0211(2) 
O1 O2- 36 f 0.2779(6) 0.0330(6) 0.03410(11) 1 0 0.0155(6) 

loop_
_atom_site_aniso_label
_atom_site_aniso_type_symbol
_atom_site_aniso_U_11
_atom_site_aniso_U_22
_atom_site_aniso_U_33
_atom_site_aniso_U_12
_atom_site_aniso_U_13
_atom_site_aniso_U_23
I1 I7+ 0.0082(2) 0.0082(2) 0.0093(3) 0.00412(12) 0.000 0.000
Ag1 Ag1+ 0.0235(3) 0.0194(3) 0.0171(3) 0.00970(14) -0.00343(9) -0.00687(19)
Ag2 Ag1+ 0.0140(2) 0.0140(2) 0.0354(4) 0.00698(12) 0.000 0.000
O1 O2- 0.0147(15) 0.0186(17) 0.0158(13) 0.0102(13) -0.0070(12) -0.0028(13)
#End of data_415893-ICSD


