data_35280-ICSD
#?2014 by Fachinformationszentrum Karlsruhe, and the U.S. Secretary of 
#Commerce on behalf of the United States.  All rights reserved.
_database_code_ICSD                35280
_audit_creation_date               1982/12/31
_chemical_name_systematic          'Sodium Aluminium Chloride'
_chemical_formula_structural       'Na Al Cl4'
_chemical_formula_sum              'Al1 Cl4 Na1'
_publ_section_title
;
Die Strukturen von Li Al Cl4 und Na Al Cl4 als Funktion der 
Temperatur
;
loop_
_citation_id
_citation_journal_abbrev
_citation_year
_citation_journal_volume
_citation_page_first
_citation_page_last
_citation_journal_id_ASTM
primary 'Zeitschrift fuer Anorganische und Allgemeine Chemie (1950) (DE)'
 1982 491 259 265 ZAACAB
_publ_author_name
;
Perenthaler, E.;Schulz, H.;Rabenau, A.
;
_cell_length_a                     10.408(9)
_cell_length_b                     9.964(8)
_cell_length_c                     6.196(6)
_cell_angle_alpha                  90.
_cell_angle_beta                   90.
_cell_angle_gamma                  90.
_cell_volume                       642.56
_cell_formula_units_Z              4
_symmetry_space_group_name_H-M     'P 21 21 21'
_symmetry_Int_Tables_number        19
_refine_ls_R_factor_all            .032
loop_
_symmetry_equiv_pos_site_id
_symmetry_equiv_pos_as_xyz
  1	'-x, y+.5, -z+.5'
  2	'x+.5, -y+.5, -z'
  3	'-x+.5, -y, z+.5'
  4	'x, y, z'
loop_
_atom_type_symbol
_atom_type_oxidation_number
Al3+	3
Cl1-	-1
Na1+	1
loop_
_atom_site_label
_atom_site_type_symbol
_atom_site_symmetry_multiplicity
_atom_site_Wyckoff_symbol
_atom_site_fract_x
_atom_site_fract_y
_atom_site_fract_z
_atom_site_occupancy
_atom_site_attached_hydrogens
Na1 Na1+ 4 a 0.1258(3) 0.2150(3) 0.6889(4) 1. 0 
Al1 Al3+ 4 a 0.0377(1) 0.4859(1) 0.2032(2) 1. 0 
Cl1 Cl1- 4 a 0.0313(1) 0.4913(1) 0.5465(2) 1. 0 
Cl2 Cl1- 4 a 0.1469(1) 0.3165(1) 0.1072(2) 1. 0 
Cl3 Cl1- 4 a 0.3489(1) 0.0222(1) 0.9288(2) 1. 0 
Cl4 Cl1- 4 a 0.3778(1) 0.3363(1) 0.5725(2) 1. 0 

#End of data_35280-ICSD


