data_30434-ICSD
#?2014 by Fachinformationszentrum Karlsruhe, and the U.S. Secretary of 
#Commerce on behalf of the United States.  All rights reserved.
_database_code_ICSD                30434
_audit_creation_date               1980/01/01
_audit_update_record               2012/08/01
_chemical_name_systematic          'Dimagnesium Diphosphate(V) - Alpha'
_chemical_formula_structural       'Mg2 (P2 O7)'
_chemical_formula_sum              'Mg2 O7 P2'
_publ_section_title
;
Crystal structure of alpha-Mg2 P2 O7 and the mechanism of the phase 
transition beta-alpha-Mg2 P2 O7
;
loop_
_citation_id
_citation_journal_abbrev
_citation_year
_citation_journal_volume
_citation_page_first
_citation_page_last
_citation_journal_id_ASTM
primary
;
Bulletin de l`Academie Polonaise des Sciences, Serie des Sciences 
Chimiques
;
 1967 15 53 57 BAPCAQ
2 'Golden Book of Phase Transitions, Wroclaw' 2002 1 1 123 GBOPT5
_publ_author_name                  'Lukaszewicz, K.'
_cell_length_a                     13.172
_cell_length_b                     8.29
_cell_length_c                     9.053
_cell_angle_alpha                  90.
_cell_angle_beta                   105.18
_cell_angle_gamma                  90.
_cell_volume                       954.06
_cell_formula_units_Z              8
_symmetry_space_group_name_H-M     'B 1 21/c 1'
_symmetry_Int_Tables_number        14
_refine_ls_R_factor_all            .108
loop_
_symmetry_equiv_pos_site_id
_symmetry_equiv_pos_as_xyz
  1	'x, -y+.5, z+.5'
  2	'-x, y+.5, -z+.5'
  3	'-x, -y, -z'
  4	'x, y, z'
  5	'x+.5, -y+.5, z'
  6	'-x+.5, y+.5, -z'
  7	'-x+.5, -y, -z+.5'
  8	'x+.5, y, z+.5'
loop_
_atom_type_symbol
_atom_type_oxidation_number
Mg2+	2
O2-	-2
P5+	5
loop_
_atom_site_label
_atom_site_type_symbol
_atom_site_symmetry_multiplicity
_atom_site_Wyckoff_symbol
_atom_site_fract_x
_atom_site_fract_y
_atom_site_fract_z
_atom_site_occupancy
_atom_site_attached_hydrogens
_atom_site_B_iso_or_equiv
Mg1 Mg2+ 8 e 0.3504(5) 0.0584(14) 0.0233(70) 1. 0 0.311 
Mg2 Mg2+ 8 e 0.1162(4) 0.9298(14) 0.0056(6) 1. 0 0.3 
P1 P5+ 8 e 0.4713(3) 0.7327(10) 0.2106(4) 1. 0 0.112 
P2 P5+ 8 e 0.2359(3) 0.2740(8) 0.2008(8) 1. 0 0.104 
O1 O2- 8 e 0.1259(8) 0.3338(29) 0.2261(13) 1. 0 0.249 
O2 O2- 8 e 0.1870(8) 0.7355(31) 0.1411(13) 1. 0 0.336 
O3 O2- 8 e 0.4388(8) 0.2385(38) 0.1400(13) 1. 0 0.451 
O4 O2- 8 e 0.2238(9) 0.1073(29) 0.1197(14) 1. 0 0.51 
O5 O2- 8 e 0.4890(9) 0.5922(23) 0.1056(13) 1. 0 0.142 
O6 O2- 8 e 0.2584(9) 0.4088(24) 0.1054(13) 1. 0 0.38 
O7 O2- 8 e 0.4436(9) 0.8880(29) 0.1288(13) 1. 0 0.494 

#End of data_30434-ICSD


