data_37072-ICSD
#?2014 by Fachinformationszentrum Karlsruhe, and the U.S. Secretary of 
#Commerce on behalf of the United States.  All rights reserved.
_database_code_ICSD                37072
_audit_creation_date               1983/12/31
_chemical_name_systematic
;
Potassium Dihydrogen Phosphate(III)
;
_chemical_formula_structural       'K H2 P O3'
_chemical_formula_sum              'H2 K1 O3 P1'
_publ_section_title
;
Structure of Potassium Dihydrogenphosphite, K H2 P O3
;
loop_
_citation_id
_citation_journal_abbrev
_citation_year
_citation_journal_volume
_citation_page_first
_citation_page_last
_citation_journal_id_ASTM
primary 'Acta Crystallographica, Section C: Crystal Structure Communications'
 1983 39 326 328 ACSCEE
_publ_author_name
;
Kratochvil, B.;Podlahova, J.;Hasek, J.
;
_cell_length_a                     7.341(1)
_cell_length_b                     8.579(2)
_cell_length_c                     11.975(3)
_cell_angle_alpha                  90.
_cell_angle_beta                   101.98(2)
_cell_angle_gamma                  90.
_cell_volume                       737.74
_cell_formula_units_Z              8
_symmetry_space_group_name_H-M     'P 1 21/c 1'
_symmetry_Int_Tables_number        14
_refine_ls_R_factor_all            .038
loop_
_symmetry_equiv_pos_site_id
_symmetry_equiv_pos_as_xyz
  1	'x, -y+.5, z+.5'
  2	'-x, -y, -z'
  3	'-x, y+.5, -z+.5'
  4	'x, y, z'
loop_
_atom_type_symbol
_atom_type_oxidation_number
H1+	1
K1+	1
O2-	-2
P3+	3
loop_
_atom_site_label
_atom_site_type_symbol
_atom_site_symmetry_multiplicity
_atom_site_Wyckoff_symbol
_atom_site_fract_x
_atom_site_fract_y
_atom_site_fract_z
_atom_site_occupancy
_atom_site_attached_hydrogens
_atom_site_B_iso_or_equiv
K1 K1+ 4 e 0.05027(8) 0.01940(7) 0.22951(5) 1. 0 0 
K2 K1+ 4 e 0.39504(9) 0.23184(7) 0.48863(5) 1. 0 0 
P1 P3+ 4 e 0.52230(9) 0.01130(7) 0.24356(5) 1. 0 0 
P2 P3+ 4 e -.0731(8) 0.21473(8) 0.50004(5) 1. 0 0 
O1 O2- 4 e 0.6643(3) -.1212(3) 0.2278(2) 1. 0 0 
O2 O2- 4 e 0.4477(3) -.0110(2) 0.3488(2) 1. 0 0 
O3 O2- 4 e 0.3827(3) 0.0217(2) 0.1325(2) 1. 0 0 
O4 O2- 4 e -.1986(3) 0.3542(3) 0.5251(2) 1. 0 0 
O5 O2- 4 e 0.0011(3) 0.2387(2) 0.3949(2) 1. 0 0 
O6 O2- 4 e 0.0639(3) 0.1866(3) 0.6093(2) 1. 0 0 
H1 H1+ 4 e 0.0614(5) 0.0130(5) 0.0246(3) 1. 0 1.63 
H2 H1+ 4 e -.0189(5) 0.0098(5) 0.0479(3) 1. 0 1.65 
H3 H1+ 4 e 0.076 -.015 0.03 1. 0 2.51 
H4 H1+ 4 e -.026 0.0413 0.046 1. 0 2.94 

#End of data_37072-ICSD


