data_62577-ICSD
#?2014 by Fachinformationszentrum Karlsruhe, and the U.S. Secretary of 
#Commerce on behalf of the United States.  All rights reserved.
_database_code_ICSD                62577
_audit_creation_date               1988/02/22
_chemical_name_systematic
;
Calcium Diniobium Tetraphosphate Diphosphate Oxide
;
_chemical_formula_structural       'Ca Nb2 (P4 O13) (P2 O7) O'
_chemical_formula_sum              'Ca1 Nb2 O21 P6'
_publ_section_title
;
Crystal structure of a tetrapoly-dipolyphosphate: Ca Nb2 = (P4 O13) 
(P2 O7).
;
loop_
_citation_id
_citation_journal_abbrev
_citation_year
_citation_journal_volume
_citation_page_first
_citation_page_last
_citation_journal_id_ASTM
primary 'Zeitschrift fuer Anorganische und Allgemeine Chemie (1950) (DE)'
 1987 545 118 124 ZAACAB
_publ_author_name                  'Averbuch-Pouchot, M.T.'
_cell_length_a                     13.264(9)
_cell_length_b                     10.577(8)
_cell_length_c                     12.393(9)
_cell_angle_alpha                  90.
_cell_angle_beta                   96.09(1)
_cell_angle_gamma                  90.
_cell_volume                       1728.84
_cell_formula_units_Z              4
_symmetry_space_group_name_H-M     'C 1 2/m 1'
_symmetry_Int_Tables_number        12
_refine_ls_R_factor_all            .049
loop_
_symmetry_equiv_pos_site_id
_symmetry_equiv_pos_as_xyz
  1	'-x, y, -z'
  2	'-x, -y, -z'
  3	'x, -y, z'
  4	'x, y, z'
  5	'-x+.5, y+.5, -z'
  6	'-x+.5, -y+.5, -z'
  7	'x+.5, -y+.5, z'
  8	'x+.5, y+.5, z'
loop_
_atom_type_symbol
_atom_type_oxidation_number
Ca2+	2
Nb5+	5
O2-	-2
P5+	5
loop_
_atom_site_label
_atom_site_type_symbol
_atom_site_symmetry_multiplicity
_atom_site_Wyckoff_symbol
_atom_site_fract_x
_atom_site_fract_y
_atom_site_fract_z
_atom_site_occupancy
_atom_site_attached_hydrogens
_atom_site_B_iso_or_equiv
Nb1 Nb5+ 4 h 0 0.2452(1) 0.5 1. 0 0.62(2) 
Nb2 Nb5+ 4 i 0.2855(1) 0 0.8203(1) 1. 0 0.68(2) 
Ca1 Ca2+ 4 i 0.2752(2) 0.5 0.8616(2) 1. 0 0.81(5) 
P1 P5+ 8 j 0.9405(2) 0.7372(3) 0.8974(2) 1. 0 0.89(4) 
P2 P5+ 8 j 0.6104(2) 0.7399(3) 0.7660(2) 1. 0 0.94(4) 
P3 P5+ 4 i 0.6399(3) 0.5 0.4100(3) 1. 0 0.66(6) 
P4 P5+ 4 i 0.8428(3) 0.5 0.5432(3) 1. 0 0.56(6) 
O1 O2- 8 j 0.3700(6) 0.6695(9) 0.9304(7) 1. 0 1.7(2) 
O2 O2- 8 j 0.3974(5) 0.1321(9) 0.8257(6) 1. 0 1.5(1) 
O3 O2- 4 g 0 0.669(1) 0 1. 0 0.9(2) 
O4 O2- 8 j 0.9765(6) 0.8058(8) 0.1623(7) 1. 0 1.6(1) 
O5 O2- 8 j 0.0559(6) 0.2395(9) 0.6486(6) 1. 0 1.5(1) 
O6 O2- 8 j 0.8495(7) 0.6378(9) 0.2013(8) 1. 0 2.4(2) 
O7 O2- 8 j 0.8165(6) 0.1304(9) 0.2262(7) 1. 0 1.7(2) 
O8 O2- 8 j 0.5986(6) 0.3853(8) 0.4649(7) 1. 0 1.6(1) 
O9 O2- 4 i 0.8739(9) 0 0.708(1) 1. 0 1.6(2) 
O10 O2- 4 i 0.2415(9) 0.5 0.5543(9) 1. 0 1.4(2) 
O11 O2- 8 j 0.9062(6) 0.3821(8) 0.5271(6) 1. 0 1.4(1) 
O12 O2- 4 i 0.7016(8) 0 0.3548(9) 1. 0 1.5(2) 
O13 O2- 4 i 0.275(1) 0 0.956(1) 1. 0 2.4(3) 

#End of data_62577-ICSD


