data_248017-ICSD
#?2014 by Fachinformationszentrum Karlsruhe, and the U.S. Secretary of 
#Commerce on behalf of the United States.  All rights reserved.
_database_code_ICSD                248017
_audit_creation_date               2010/08/01
_chemical_name_systematic
;
Dipotassium Samarium(III) Molybdate(VI) Phosphate(V)
;
_chemical_formula_structural       'K2 (Sm (Mo O4) (P O4))'
_chemical_formula_sum              'K2 Mo1 O8 P1 Sm1'
_publ_section_title
;
Dipotassium samarium(III) molybdate(VI) phosphate(V), K2 Sm (Mo O4) 
(P O4)
;
loop_
_citation_id
_citation_journal_abbrev
_citation_year
_citation_journal_volume
_citation_journal_issue
_citation_page_first
_citation_page_last
_citation_journal_id_ASTM
primary 'Acta Crystallographica, Section E. Structure Reports Online'
 2009 65 11 i78 i78 ACSEBH
_publ_author_name
;
Zhao Dan;Li Feifei;Cheng Wen Dan;Zhang Hao
;
_cell_length_a                     12.345(9)
_cell_length_b                     7.004(5)
_cell_length_c                     19.733(12)
_cell_angle_alpha                  90.00
_cell_angle_beta                   90.00
_cell_angle_gamma                  90.00
_cell_volume                       1706.2
_cell_formula_units_Z              8
_symmetry_space_group_name_H-M     'I b c a'
_symmetry_Int_Tables_number        73
_refine_ls_R_factor_all            .0143
loop_
_symmetry_equiv_pos_site_id
_symmetry_equiv_pos_as_xyz
  1	'x, y+.5, -z'
  2	'x+.5, -y, z'
  3	'-x, y, z+.5'
  4	'-x, -y, -z'
  5	'-x, -y+.5, z'
  6	'-x+.5, y, -z'
  7	'x, -y, -z+.5'
  8	'x, y, z'
  9	'x+.5, y, -z+.5'
 10	'x, -y+.5, z+.5'
 11	'-x+.5, y+.5, z'
 12	'-x+.5, -y+.5, -z+.5'
 13	'-x+.5, -y, z+.5'
 14	'-x, y+.5, -z+.5'
 15	'x+.5, -y+.5, -z'
 16	'x+.5, y+.5, z+.5'
loop_
_atom_type_symbol
_atom_type_oxidation_number
K1+	1
Mo6+	6
O2-	-2
P5+	5
Sm3+	3
loop_
_atom_site_label
_atom_site_type_symbol
_atom_site_symmetry_multiplicity
_atom_site_Wyckoff_symbol
_atom_site_fract_x
_atom_site_fract_y
_atom_site_fract_z
_atom_site_occupancy
_atom_site_attached_hydrogens
_atom_site_U_iso_or_equiv
K1 K1+ 16 f 0.17099(8) 0.28431(16) 0.09418(5) 1 0 0.0233(3) 
Sm1 Sm3+ 8 c 0.42384(2) 0.5000 0.2500 1 0 0.00627(15) 
Mo1 Mo6+ 8 e 0.5000 0.2500 0.08208(2) 1 0 0.01213(17) 
P1 P5+ 8 c 0.17826(12) 0.5000 0.2500 1 0 0.0066(4) 
O1 O2- 16 f 0.0995(3) 0.6698(4) 0.26009(13) 1 0 0.0111(6) 
O2 O2- 16 f 0.2522(3) 0.5240(3) 0.18818(14) 1 0 0.0113(6) 
O3 O2- 16 f 0.4690(3) 0.4533(5) 0.13294(14) 1 0 0.0177(6) 
O4 O2- 16 f 0.3879(3) 0.1914(5) 0.03256(15) 1 0 0.0292(8) 

loop_
_atom_site_aniso_label
_atom_site_aniso_type_symbol
_atom_site_aniso_U_11
_atom_site_aniso_U_22
_atom_site_aniso_U_33
_atom_site_aniso_U_12
_atom_site_aniso_U_13
_atom_site_aniso_U_23
K1 K1+ 0.0327(6) 0.0226(5) 0.0147(4) -0.0016(4) -0.0042(4) -0.0018(4)
Sm1 Sm3+ 0.0049(2) 0.0050(2) 0.0090(2) 0.000 0.000 0.00005(8)
Mo1 Mo6+ 0.0142(3) 0.0153(3) 0.0069(3) 0.00155(19) 0.000 0.000
P1 P5+ 0.0041(8) 0.0042(9) 0.0115(8) 0.000 0.000 0.0001(4)
O1 O2- 0.0065(13) 0.0058(15) 0.0212(13) 0.0000(12) -0.0006(11) -0.0018(11)
O2 O2- 0.0085(14) 0.0139(14) 0.0116(13) -0.0026(11) -0.0010(12) 0.0021(10)
O3 O2- 0.0228(18) 0.0192(15) 0.0112(13) 0.0032(14) 0.0029(12) -0.0013(12)
O4 O2- 0.032(2) 0.033(2) 0.0224(15) -0.0012(16) -0.0163(15) 0.0016(14)
#End of data_248017-ICSD


