data_90152-ICSD
#?2014 by Fachinformationszentrum Karlsruhe, and the U.S. Secretary of 
#Commerce on behalf of the United States.  All rights reserved.
_database_code_ICSD                90152
_audit_creation_date               2002/04/01
_audit_update_record               2005/10/01
_chemical_name_systematic
;
Potassium Catena-hexaselenoantimono(III)diphosphate(V) - Beta
;
_chemical_formula_structural       'K (Sb P2 Se6)'
_chemical_formula_sum              'K1 P2 Sb1 Se6'
_publ_section_title
;
beta-(K M P2 Se6) (M = Sb, Bi): kinetically accessible phases 
obtained from rapid crystallisation of amorphous precursors
;
loop_
_citation_id
_citation_journal_abbrev
_citation_year
_citation_journal_volume
_citation_page_first
_citation_page_last
_citation_journal_id_ASTM
primary 'Journal of the American Chemical Society' 2000 122 7839 7840 JACSAT
_publ_author_name                  'Breshears, J.D.;Kanatzidis, M.G.'
_cell_length_a                     6.8925(7)
_cell_length_b                     7.8573(8)
_cell_length_c                     10.1656(10)
_cell_angle_alpha                  90.
_cell_angle_beta                   91.487(2)
_cell_angle_gamma                  90.
_cell_volume                       550.35
_cell_formula_units_Z              2
_symmetry_space_group_name_H-M     'P 1 21 1'
_symmetry_Int_Tables_number        4
_refine_ls_R_factor_all            .038
loop_
_symmetry_equiv_pos_site_id
_symmetry_equiv_pos_as_xyz
  1	'-x, y+.5, -z'
  2	'x, y, z'
loop_
_atom_type_symbol
_atom_type_oxidation_number
K1+	1
P4+	4
Sb3+	3
Se2-	-2
loop_
_atom_site_label
_atom_site_type_symbol
_atom_site_symmetry_multiplicity
_atom_site_Wyckoff_symbol
_atom_site_fract_x
_atom_site_fract_y
_atom_site_fract_z
_atom_site_occupancy
_atom_site_attached_hydrogens
Sb1 Sb3+ 2 a 0.3168(1) 0.5585(1) 0.4841(1) 1. 0 
Se1 Se2- 2 a 0.5779(2) 0.4380(2) 0.6766(1) 1. 0 
Se2 Se2- 2 a 0.0772(2) 0.5399(2) 0.7606(1) 1. 0 
Se3 Se2- 2 a 0.0818(2) 0.5476(2) 0.2313(1) 1. 0 
Se4 Se2- 2 a 0.3299(2) 0.2606(2) 0.0018(1) 1. 0 
Se5 Se2- 2 a 0.5615(2) 0.4305(2) 0.3090(1) 1. 0 
Se6 Se2- 2 a 0.1575(2) 0.2538(2) 0.5211(1) 1. 0 
K1 K1+ 2 a 0.8061(5) 0.3368(4) -.0032(3) 1. 0 
P1 P4+ 2 a 0.8066(5) 0.6337(4) 0.6773(3) 1. 0 
P2 P4+ 2 a 0.2958(5) 0.3488(4) 0.1969(3) 1. 0 

loop_
_atom_site_aniso_label
_atom_site_aniso_type_symbol
_atom_site_aniso_U_11
_atom_site_aniso_U_22
_atom_site_aniso_U_33
_atom_site_aniso_U_12
_atom_site_aniso_U_13
_atom_site_aniso_U_23
Sb1 Sb3+ 0.021(1) 0.018(1) 0.028(1) -.002(1) 0.001(1) -.004(1)
Se1 Se2- 0.020(1) 0.018(1) 0.024(1) -.002(1) -.004(1) 0.001(1)
Se2 Se2- 0.017(1) 0.023(1) 0.025(1) 0.006(1) -.004(1) -.002(1)
Se3 Se2- 0.022(1) 0.021(1) 0.029(1) 0.005(1) -.003(1) -.001(1)
Se4 Se2- 0.028(1) 0.033(1) 0.018(1) -.003(1) 0.003(1) -.003(1)
Se5 Se2- 0.013(1) 0.028(1) 0.024(1) -.004(1) 0.001(1) -.003(1)
Se6 Se2- 0.024(1) 0.022(1) 0.018(1) -.007(1) 0.003(1) -.001(1)
K1 K1+ 0.030(2) 0.036(2) 0.036(2) 0.000(1) -.001(1) 0.001(1)
P1 P4+ 0.012(2) 0.016(1) 0.017(1) 0.002(1) -.001(1) -.001(1)
P2 P4+ 0.013(2) 0.017(1) 0.018(1) -.002(1) 0.001(1) 0.003(1)
#End of data_90152-ICSD


