data_34870-ICSD
#?2014 by Fachinformationszentrum Karlsruhe, and the U.S. Secretary of 
#Commerce on behalf of the United States.  All rights reserved.
_database_code_ICSD                34870
_audit_creation_date               1980/01/01
_audit_update_record               1999/06/02
_chemical_name_systematic          'Sodium Tecto-alumotrisilicate'
_chemical_formula_structural       'Na Al Si3 O8'
_chemical_formula_sum              'Al1 Na1 O8 Si3'
_chemical_name_mineral             'Albite low'
_publ_section_title
;
A high-temperature study of the thermal expansion and the anisotropy 
of the sodium atom in low albite
;
loop_
_citation_id
_citation_journal_abbrev
_citation_year
_citation_journal_volume
_citation_page_first
_citation_page_last
_citation_journal_id_ASTM
primary 'American Mineralogist' 1977 62 921 931 AMMIAY
_publ_author_name
;
Winter, J.K.;Ghose, S.;Okamura, F.P.
;
_cell_length_a                     8.206(1)
_cell_length_b                     12.817(3)
_cell_length_c                     7.169(1)
_cell_angle_alpha                  93.99(2)
_cell_angle_beta                   116.39(1)
_cell_angle_gamma                  87.68(2)
_cell_volume                       673.76
_cell_formula_units_Z              4
_symmetry_space_group_name_H-M     'C -1'
_symmetry_Int_Tables_number        2
_refine_ls_R_factor_all            .032
loop_
_symmetry_equiv_pos_site_id
_symmetry_equiv_pos_as_xyz
  1	'-x, -y, -z'
  2	'x, y, z'
  3	'-x+.5, -y+.5, -z'
  4	'x+.5, y+.5, z'
loop_
_atom_type_symbol
_atom_type_oxidation_number
Al3+	3
Na1+	1
O2-	-2
Si4+	4
loop_
_atom_site_label
_atom_site_type_symbol
_atom_site_symmetry_multiplicity
_atom_site_Wyckoff_symbol
_atom_site_fract_x
_atom_site_fract_y
_atom_site_fract_z
_atom_site_occupancy
_atom_site_attached_hydrogens
Na1 Na1+ 4 i 0.2735(2) 0.9881(2) 0.1470(3) 1. 0 
Al1 Al3+ 4 i 0.0091(1) 0.1710(1) 0.2092(1) 1. 0 
Si1 Si4+ 4 i 0.0046(1) 0.8198(1) 0.2375(1) 1. 0 
Si2 Si4+ 4 i 0.6952(1) 0.1114(1) 0.3192(1) 1. 0 
Si3 Si4+ 4 i 0.6860(1) 0.8822(1) 0.3610(1) 1. 0 
O1 O2- 4 i 0.0051(3) 0.1345(1) 0.9686(3) 1. 0 
O2 O2- 4 i 0.5995(2) 0.9983(1) 0.2830(3) 1. 0 
O3 O2- 4 i 0.8132(2) 0.1149(1) 0.1941(3) 1. 0 
O4 O2- 4 i 0.8219(3) 0.8512(2) 0.2563(3) 1. 0 
O5 O2- 4 i 0.0179(2) 0.3045(1) 0.2705(3) 1. 0 
O6 O2- 4 i 0.0257(2) 0.6937(1) 0.2369(3) 1. 0 
O7 O2- 4 i 0.2045(2) 0.1106(1) 0.3905(3) 1. 0 
O8 O2- 4 i 0.1816(3) 0.8688(1) 0.4330(3) 1. 0 

#End of data_34870-ICSD


