data_1912-ICSD
#?2014 by Fachinformationszentrum Karlsruhe, and the U.S. Secretary of 
#Commerce on behalf of the United States.  All rights reserved.
_database_code_ICSD                1912
_audit_creation_date               1980/01/01
_audit_update_record               2012/02/01
_chemical_name_systematic          'Dicalcium Diphosphate(V) Dihydrate'
_chemical_formula_structural       'Ca2 (P2 O7) (H2 O)2'
_chemical_formula_sum              'H4 Ca2 O9 P2'
_publ_section_title
;
The crystal structure of calcium pyrophosphate dihydrate
;
loop_
_citation_id
_citation_journal_abbrev
_citation_year
_citation_journal_volume
_citation_page_first
_citation_page_last
_citation_journal_id_ASTM
primary 'Acta Crystallographica B (24,1968-38,1982)' 1975 31 1730 1734 ACBCAR
_publ_author_name                  'Mandel, N.S.'
_cell_length_a                     7.365(4)
_cell_length_b                     8.287(4)
_cell_length_c                     6.691(4)
_cell_angle_alpha                  102.96(1)
_cell_angle_beta                   72.73(1)
_cell_angle_gamma                  95.01(1)
_cell_volume                       379.94
_cell_formula_units_Z              2
_symmetry_space_group_name_H-M     'P -1'
_symmetry_Int_Tables_number        2
_refine_ls_R_factor_all            .037
loop_
_symmetry_equiv_pos_site_id
_symmetry_equiv_pos_as_xyz
  1	'-x, -y, -z'
  2	'x, y, z'
loop_
_atom_type_symbol
_atom_type_oxidation_number
Ca2+	2
H1+	1
O2-	-2
P5+	5
loop_
_atom_site_label
_atom_site_type_symbol
_atom_site_symmetry_multiplicity
_atom_site_Wyckoff_symbol
_atom_site_fract_x
_atom_site_fract_y
_atom_site_fract_z
_atom_site_occupancy
_atom_site_attached_hydrogens
_atom_site_B_iso_or_equiv
Ca1 Ca2+ 2 i 0.2485(1) 0.5056(1) 0.3100(1) 1. 0 0 
Ca2 Ca2+ 2 i 0.8645(1) 0.7566(1) 0.2603(1) 1. 0 0 
P1 P5+ 2 i 0.9893(1) 0.1873(1) 0.2601(1) 1. 0 0 
P2 P5+ 2 i 0.7124(1) 0.3559(1) 0.1667(1) 1. 0 0 
O1 O2- 2 i 0.0168(2) 0.0085(1) 0.2516(2) 1. 0 0 
O2 O2- 2 i 0.9849(2) 0.2984(1) 0.4790(2) 1. 0 0 
O3 O2- 2 i 0.1346(1) 0.2632(1) 0.0981(2) 1. 0 0 
O4 O2- 2 i 0.7825(1) 0.1956(1) 0.2232(1) 1. 0 0 
O5 O2- 2 i 0.5039(1) 0.3204(1) 0.1791(2) 1. 0 0 
O6 O2- 2 i 0.7426(2) 0.5007(1) 0.3393(2) 1. 0 0 
O7 O2- 2 i 0.8288(1) 0.3713(1) -.0566(2) 1. 0 0 
O8 O2- 2 i 0.5031(2) 0.7433(2) 0.2533(2) 1. 0 0 
O9 O2- 2 i 0.3334(2) 0.0652(2) 0.3995(2) 1. 0 0 
H1 H1+ 2 i 0.5223(41) 0.7440(37) 0.1141(51) 1. 0 4.84 
H2 H1+ 2 i 0.4719(36) 0.8352(35) 0.3099(44) 1. 0 3.04 
H3 H1+ 2 i 0.2526(35) 0.0315(31) 0.3501(39) 1. 0 2.51 
H4 H1+ 2 i 0.4121(44) 0.1234(39) 0.3245(50) 1. 0 4.84 

#End of data_1912-ICSD


