data_40279-ICSD
#?2014 by Fachinformationszentrum Karlsruhe, and the U.S. Secretary of 
#Commerce on behalf of the United States.  All rights reserved.
_database_code_ICSD                40279
_audit_creation_date               1999/11/30
_chemical_name_systematic
;
Dipotassium Dicadmium Sulfate(VI) - Ht
;
_chemical_formula_structural       'K2 Cd2 (S O4)3'
_chemical_formula_sum              'Cd2 K2 O12 S3'
_chemical_name_mineral
;
Langbeinite, cadmian (Co-doped, high)
;
_publ_section_title
;
Structure of cobalt doped K2 Cd2 (S O4)3 langbeinite at three 
temperatures above the p213 - p212121 phase transition, and a new 
trigger mechanism for the ferroelastic transformation
;
loop_
_citation_id
_citation_journal_abbrev
_citation_year
_citation_journal_volume
_citation_page_first
_citation_page_last
_citation_journal_id_ASTM
primary 'Physics and Chemistry of Minerals' 1989 16 569 574 PCMIDU
_publ_author_name
;
Percival, M.J.L.;Schmahl, W.W.;Salje, E.
;
_cell_length_a                     10.2850(9)
_cell_length_b                     10.285
_cell_length_c                     10.285
_cell_angle_alpha                  90.
_cell_angle_beta                   90.
_cell_angle_gamma                  90.
_cell_volume                       1087.96
_cell_formula_units_Z              4
_symmetry_space_group_name_H-M     'P 21 3'
_symmetry_Int_Tables_number        198
_refine_ls_R_factor_all            .0376
loop_
_symmetry_equiv_pos_site_id
_symmetry_equiv_pos_as_xyz
  1	'-z+.5, -x, y+.5'
  2	'-y+.5, -z, x+.5'
  3	'-x+.5, -y, z+.5'
  4	'-z, x+.5, -y+.5'
  5	'-y, z+.5, -x+.5'
  6	'-x, y+.5, -z+.5'
  7	'z+.5, -x+.5, -y'
  8	'y+.5, -z+.5, -x'
  9	'x+.5, -y+.5, -z'
 10	'z, x, y'
 11	'y, z, x'
 12	'x, y, z'
loop_
_atom_type_symbol
_atom_type_oxidation_number
Cd2+	2
K1+	1
O2-	-2
S6+	6
loop_
_atom_site_label
_atom_site_type_symbol
_atom_site_symmetry_multiplicity
_atom_site_Wyckoff_symbol
_atom_site_fract_x
_atom_site_fract_y
_atom_site_fract_z
_atom_site_occupancy
_atom_site_attached_hydrogens
K1 K1+ 4 a 0.0646(2) 0.0646(2) 0.0646(2) 1. 0 
K2 K1+ 4 a 0.3018(2) 0.3018(2) 0.3018(2) 1. 0 
Cd1 Cd2+ 4 a 0.5803(1) 0.5803(1) 0.5803(1) 1. 0 
Cd2 Cd2+ 4 a 0.8372(1) 0.8372(1) 0.8372(1) 1. 0 
S1 S6+ 12 b 0.6252(2) 0.4764(2) 0.2619(1) 1. 0 
O1 O2- 12 b 0.3462(7) 0.2588(11) 0.5742(9) 1. 0 
O2 O2- 12 b 0.5316(8) 0.5676(7) 0.2108(10) 1. 0 
O3 O2- 12 b 0.666(1) 0.5100(11) 0.3937(8) 1. 0 
O4 O2- 12 b 0.1822(9) 0.739(1) 0.4894(11) 1. 0 

loop_
_atom_site_aniso_label
_atom_site_aniso_type_symbol
_atom_site_aniso_U_11
_atom_site_aniso_U_22
_atom_site_aniso_U_33
_atom_site_aniso_U_12
_atom_site_aniso_U_13
_atom_site_aniso_U_23
K1 K1+ 0.0480(8) 0.048 0.048 -.0017(9) -.0017 -.0017
K2 K1+ 0.0514(10) 0.0514 0.0514 0.0014(10) 0.0014 0.0014
Cd1 Cd2+ 0.0299(2) 0.0299 0.0299 -.0031(2) -.0031 -.0031
Cd2 Cd2+ 0.0278(2) 0.0278 0.0278 -.0012(2) -.0012 -.0012
S1 S6+ 0.0216(7) 0.0218(8) 0.0207(7) 0.0042(5) 0.0019(5) 0.0003(6)
O1 O2- 0.0257(34) 0.1202(79) 0.0763(54) 0.0127(42) -.0128(34) -.0401(54)
O2 O2- 0.0589(54) 0.0563(51) 0.1148(79) 0.0304(41) -.0387(49) 0.0041(48)
O3 O2- 0.0880(68) 0.1040(72) 0.0405(41) 0.0116(62) -.0187(44) -.0309(41)
O4 O2- 0.0773(66) 0.0663(61) 0.1387(87) 0.0535(57) 0.0184(68) 0.0283(60)
#End of data_40279-ICSD


