data_73801-ICSD
#?2014 by Fachinformationszentrum Karlsruhe, and the U.S. Secretary of 
#Commerce on behalf of the United States.  All rights reserved.
_database_code_ICSD                73801
_audit_creation_date               1995/01/10
_chemical_name_systematic
;
Dicalcium Zirconium Cyclo-tetrasilicate
;
_chemical_formula_structural       'Ca2 Zr (Si4 O12)'
_chemical_formula_sum              'Ca2 O12 Si4 Zr1'
_publ_section_title
;
Crystal structure and infrared spectrum of the cyclosilicate 
Ca2ZrSi4O12
;
loop_
_citation_id
_citation_journal_abbrev
_citation_year
_citation_journal_volume
_citation_page_first
_citation_page_last
_citation_journal_id_ASTM
primary 'Journal of Solid State Chemistry' 1993 102 242 249 JSSCBI
_publ_author_name
;
Colin, S.;Dupre, B.;Venturini, G.;Malaman, B.;Gleitzer, C.
;
_cell_length_a                     7.399(1)
_cell_length_b                     13.651(2)
_cell_length_c                     5.312(1)
_cell_angle_alpha                  90.
_cell_angle_beta                   108.9(2)
_cell_angle_gamma                  90.
_cell_volume                       507.6
_cell_formula_units_Z              2
_symmetry_space_group_name_H-M     'P 1 21/m 1'
_symmetry_Int_Tables_number        11
_refine_ls_R_factor_all            .016
loop_
_symmetry_equiv_pos_site_id
_symmetry_equiv_pos_as_xyz
  1	'x, -y+.5, z'
  2	'-x, -y, -z'
  3	'-x, y+.5, -z'
  4	'x, y, z'
loop_
_atom_type_symbol
_atom_type_oxidation_number
Ca2+	2
O2-	-2
Si4+	4
Zr4+	4
loop_
_atom_site_label
_atom_site_type_symbol
_atom_site_symmetry_multiplicity
_atom_site_Wyckoff_symbol
_atom_site_fract_x
_atom_site_fract_y
_atom_site_fract_z
_atom_site_occupancy
_atom_site_attached_hydrogens
Zr1 Zr4+ 2 a 0 0 0 1. 0 
Ca1 Ca2+ 2 b 0.5 0 0 1. 0 
Ca2 Ca2+ 2 e 0.1857(1) 0.25 0.8359(2) 1. 0 
Si1 Si4+ 4 f 0.3845(1) 0.1396(1) 0.4315(1) 1. 0 
Si2 Si4+ 4 f 0.8176(1) 0.1374(1) 0.4330(1) 1. 0 
O1 O2- 4 f 0.9538(3) 0.1181(1) 0.7316(4) 1. 0 
O2 O2- 2 e 0.6864(4) 0.75 0.6923(5) 1. 0 
O3 O2- 4 f 0.1567(3) 0.5678(1) 0.7944(4) 1. 0 
O4 O2- 4 f 0.7446(3) 0.5656(2) 0.7889(4) 1. 0 
O5 O2- 2 e 0.8632(4) 0.25 0.3728(6) 1. 0 
O6 O2- 4 f 0.3780(3) 0.1323(1) 0.7239(4) 1. 0 
O7 O2- 4 f 0.5943(3) 0.1231(2) 0.4028(4) 1. 0 

loop_
_atom_site_aniso_label
_atom_site_aniso_type_symbol
_atom_site_aniso_U_11
_atom_site_aniso_U_22
_atom_site_aniso_U_33
_atom_site_aniso_U_12
_atom_site_aniso_U_13
_atom_site_aniso_U_23
Zr1 Zr4+ 0.0041(1) 0.0039(2) 0.0038(1) 0.0005(1) 0.0012(1) 0.0006(1)
Ca1 Ca2+ 0.0101(3) 0.0072(4) 0.0068(3) 0.0013(3) 0.0022(2) 0.0009(3)
Ca2 Ca2+ 0.0084(3) 0.0084(4) 0.0073(4) 0 0.0020(3) 0
Si1 Si4+ 0.0050(3) 0.0052(3) 0.0044(3) -.0003(3) 0.0013(2) -.0005(3)
Si2 Si4+ 0.0050(3) 0.0050(4) 0.0055(3) 0.0001(3) 0.0016(3) -.0009(3)
O1 O2- 0.0071(8) 0.0081(10) 0.0083(9) -.0018(7) 0.0002(7) 0.0010(7)
O2 O2- 0.0136(14) 0.0063(14) 0.0060(13) 0 0.0001(10) 0
O3 O2- 0.0117(9) 0.0078(10) 0.0095(9) -.0005(8) 0.0054(7) 0.0021(8)
O4 O2- 0.0100(9) 0.0103(11) 0.0094(9) 0.0032(7) 0.0021(7) 0.0044(8)
O5 O2- 0.0182(14) 0.0075(15) 0.0113(14) 0 0.0053(11) 0
O6 O2- 0.0118(9) 0.0087(10) 0.0071(9) 0.0017(8) 0.0041(7) 0.0071(9)
O7 O2- 0.0064(9) 0.0216(12) 0.0115(10) -.0002(8) 0.0023(7) -.0032(9)
#End of data_73801-ICSD


