data_15913-ICSD
#?2014 by Fachinformationszentrum Karlsruhe, and the U.S. Secretary of 
#Commerce on behalf of the United States.  All rights reserved.
_database_code_ICSD                15913
_audit_creation_date               1980/01/01
_audit_update_record               2012/02/01
_chemical_name_systematic          'Strontium Zinc Oxide'
_chemical_formula_structural       'Sr Zn O2'
_chemical_formula_sum              'O2 Sr1 Zn1'
_publ_section_title                'Die Kristallstruktur des Sr Zn O2'
loop_
_citation_id
_citation_journal_abbrev
_citation_year
_citation_journal_volume
_citation_page_first
_citation_page_last
_citation_journal_id_ASTM
primary Naturwissenschaften 1960 47 467 467 NATWAY
_publ_author_name                  'von Schnering, H.G.;Hoppe, R.'
_cell_length_a                     3.35
_cell_length_b                     5.84
_cell_length_c                     11.37
_cell_angle_alpha                  90.
_cell_angle_beta                   90.
_cell_angle_gamma                  90.
_cell_volume                       222.44
_cell_formula_units_Z              4
_symmetry_space_group_name_H-M     'P m n b'
_symmetry_Int_Tables_number        62
_refine_ls_R_factor_all            .102
loop_
_symmetry_equiv_pos_site_id
_symmetry_equiv_pos_as_xyz
  1	'x, y+.5, -z+.5'
  2	'-x+.5, y, z'
  3	'x+.5, -y+.5, z+.5'
  4	'-x, -y, -z'
  5	'-x, -y+.5, z+.5'
  6	'x+.5, -y, -z'
  7	'-x+.5, y+.5, -z+.5'
  8	'x, y, z'
loop_
_atom_type_symbol
_atom_type_oxidation_number
O2-	-2
Sr2+	2
Zn2+	2
loop_
_atom_site_label
_atom_site_type_symbol
_atom_site_symmetry_multiplicity
_atom_site_Wyckoff_symbol
_atom_site_fract_x
_atom_site_fract_y
_atom_site_fract_z
_atom_site_occupancy
_atom_site_attached_hydrogens
Sr1 Sr2+ 4 c 0.25 0.189 0.131 1. 0 
Zn1 Zn2+ 4 c 0.25 0.798 0.632 1. 0 
O1 O2- 4 c 0.25 0.04 0.746 1. 0 
O2 O2- 4 c 0.25 0.246 0.458 1. 0 

#End of data_15913-ICSD


