data_425068-ICSD
#?2014 by Fachinformationszentrum Karlsruhe, and the U.S. Secretary of 
#Commerce on behalf of the United States.  All rights reserved.
_database_code_ICSD                425068
_audit_creation_date               2013/08/01
_chemical_name_systematic          'Hexapotassium Hexasulfidodiferrate'
_chemical_formula_structural       'K6 (Fe2 S6)'
_chemical_formula_sum              'Fe2 K6 S6'
_publ_section_title
;
The novel alkali sulfidoferrates K9 [Fe(III) S4] (S2) S, (K/Rb)6 
[Fe(III)2 S6], Rb8[Fe(III)4 S(10)], and K(7)[Fe(II)/(III) S(2)]5
;
loop_
_citation_id
_citation_journal_abbrev
_citation_year
_citation_journal_volume
_citation_journal_issue
_citation_page_first
_citation_page_last
_citation_journal_id_ASTM
primary 'Zeitschrift fuer Anorganische und Allgemeine Chemie (1950) (DE)'
 2013 639 2 360 374 ZAACAB
_publ_author_name
;
Schwarz, Michael;Haas, Miriam;Roehr, Caroline
;
_cell_length_a                     7.72500(10)
_cell_length_b                     12.5124(2)
_cell_length_c                     10.02800(10)
_cell_angle_alpha                  90.00
_cell_angle_beta                   127.5260(10)
_cell_angle_gamma                  90.00
_cell_volume                       768.72
_cell_formula_units_Z              2
_symmetry_space_group_name_H-M     'P 1 21/c 1'
_symmetry_Int_Tables_number        14
_refine_ls_R_factor_all            .0356
loop_
_symmetry_equiv_pos_site_id
_symmetry_equiv_pos_as_xyz
  1	'x, -y+.5, z+.5'
  2	'-x, -y, -z'
  3	'-x, y+.5, -z+.5'
  4	'x, y, z'
loop_
_atom_type_symbol
_atom_type_oxidation_number
Fe3+	3
K1+	1
S2-	-2
loop_
_atom_site_label
_atom_site_type_symbol
_atom_site_symmetry_multiplicity
_atom_site_Wyckoff_symbol
_atom_site_fract_x
_atom_site_fract_y
_atom_site_fract_z
_atom_site_occupancy
_atom_site_attached_hydrogens
_atom_site_U_iso_or_equiv
K1 K1+ 4 e 0.34718(6) 0.41922(4) 0.10621(4) 1 0 0.04044(10) 
K2 K1+ 4 e 0.38943(5) 0.13157(3) 0.02400(4) 1 0 0.02707(5) 
K3 K1+ 4 e 0.86537(6) 0.31139(3) 0.07622(5) 1 0 0.03667(8) 
Fe1 Fe3+ 4 e 0.06081(3) 0.056589(13) 0.15413(2) 1 0 0.01642(3) 
S1 S2- 4 e 0.15491(5) 0.60994(2) 0.62328(4) 1 0 0.02243(6) 
S2 S2- 4 e 0.12580(5) 0.54580(3) 0.24148(4) 1 0 0.02309(6) 
S3 S2- 4 e 0.34637(5) 0.16991(3) 0.30745(4) 1 0 0.02218(6) 

loop_
_atom_site_aniso_label
_atom_site_aniso_type_symbol
_atom_site_aniso_U_11
_atom_site_aniso_U_22
_atom_site_aniso_U_33
_atom_site_aniso_U_12
_atom_site_aniso_U_13
_atom_site_aniso_U_23
K1 K1+ 0.02768(14) 0.0673(3) 0.02260(12) 0.01557(15) 0.01339(11) 
-0.00320(14)
K2 K1+ 0.02937(12) 0.02959(12) 0.02283(11) 0.00110(10) 0.01620(10) 
0.00170(9)
K3 K1+ 0.02482(12) 0.03171(15) 0.03886(17) 0.00239(10) 0.01186(12) 
-0.01405(13)
Fe1 Fe3+ 0.01497(5) 0.01732(6) 0.01577(6) -0.00063(4) 0.00874(5) 
-0.00063(4)
S1 S2- 0.02470(12) 0.01902(11) 0.01503(10) -0.00715(9) 0.00769(9) 
-0.00119(8)
S2 S2- 0.01813(10) 0.03205(15) 0.02290(12) 0.00267(9) 0.01447(10) 
0.00144(10)
S3 S2- 0.01933(11) 0.02848(13) 0.01880(11) -0.00960(9) 0.01164(9) 
-0.00798(9)
#End of data_425068-ICSD


