data_94540-ICSD
#?2014 by Fachinformationszentrum Karlsruhe, and the U.S. Secretary of 
#Commerce on behalf of the United States.  All rights reserved.
_database_code_ICSD                94540
_audit_creation_date               2003/10/01
_chemical_name_systematic
;
Nonacalcium Manganese Potassium Heptakis(phosphate(V))
;
_chemical_formula_structural       'Ca9 Mn K (P O4)7'
_chemical_formula_sum              'Ca9 K1 Mn1 O28 P7'
_publ_section_title
;
Synthesis, structure and luminescence properties of Ca9 Mn M (P O4)7 
(M = Li, Na, K)
;
loop_
_citation_id
_citation_journal_abbrev
_citation_year
_citation_journal_volume
_citation_journal_issue
_citation_page_first
_citation_page_last
_citation_journal_id_ASTM
primary 'Zhurnal Neorganicheskoi Khimii' 2001 46 6 885 892 ZNOKAQ
_publ_author_name
;
Belik, A.A.;Gutan, V.B.;Ivanov, L.N.;Lazoryak, B.I.
;
_cell_length_a                     10.4179(2)
_cell_length_b                     10.4179(2)
_cell_length_c                     37.009(1)
_cell_angle_alpha                  90
_cell_angle_beta                   90
_cell_angle_gamma                  120
_cell_volume                       3478.55
_cell_formula_units_Z              6
_symmetry_space_group_name_H-M     'R 3 c H'
_symmetry_Int_Tables_number        161
_refine_ls_R_factor_all            .0202
loop_
_symmetry_equiv_pos_site_id
_symmetry_equiv_pos_as_xyz
  1	'-x+y, y, z+.5'
  2	'x, x-y, z+.5'
  3	'-y, -x, z+.5'
  4	'-x+y, -x, z'
  5	'-y, x-y, z'
  6	'x, y, z'
  7	'-x+y+.6666, y+.3333, z+.8333'
  8	'-x+y+.3333, y+.6666, z+.1666'
  9	'x+.6666, x-y+.3333, z+.8333'
 10	'x+.3333, x-y+.6666, z+.1666'
 11	'-y+.6666, -x+.3333, z+.8333'
 12	'-y+.3333, -x+.6666, z+.1666'
 13	'-x+y+.6666, -x+.3333, z+.3333'
 14	'-x+y+.3333, -x+.6666, z+.6666'
 15	'-y+.6666, x-y+.3333, z+.3333'
 16	'-y+.3333, x-y+.6666, z+.6666'
 17	'x+.6666, y+.3333, z+.3333'
 18	'x+.3333, y+.6666, z+.6666'
loop_
_atom_type_symbol
_atom_type_oxidation_number
Ca2+	2
K1+	1
Mn2+	2
O2-	-2
P5+	5
loop_
_atom_site_label
_atom_site_type_symbol
_atom_site_symmetry_multiplicity
_atom_site_Wyckoff_symbol
_atom_site_fract_x
_atom_site_fract_y
_atom_site_fract_z
_atom_site_occupancy
_atom_site_attached_hydrogens
_atom_site_B_iso_or_equiv
Ca1 Ca2+ 18 b 0.7248(3) 0.8561(3) 0.4326(1) 1. 0 1.01(6) 
Ca2 Ca2+ 18 b 0.6124(3) 0.8206(3) 0.2326(1) 1. 0 0.46(5) 
Ca3 Ca2+ 18 b 0.1184(3) 0.2649(2) 0.3257(1) 1. 0 0.76(5) 
K1 K1+ 6 a 0 0 0.1818(1) 1. 0 2.0(1) 
Mn1 Mn2+ 6 a 0 0 0 1. 0 0.42(5) 
P1 P5+ 6 a 0 0 0.2685(2) 1. 0 1.7(1) 
P2 P5+ 18 b 0.6865(3) 0.8615(4) 0.1349(1) 1. 0 0.7(1) 
P3 P5+ 18 b 0.6581(4) 0.8545(4) 0.0311(1) 1. 0 0.7(1) 
O1 O2- 6 a 0 0 0.3082(3) 1. 0 0.17(4) 
O2 O2- 18 b 0.0160(7) 0.8688(5) 0.2538(2) 1. 0 0.17(4) 
O3 O2- 18 b 0.7268(7) 0.9207(6) 0.1754(2) 1. 0 0.17(4) 
O4 O2- 18 b 0.7712(9) 0.7790(8) 0.1252(2) 1. 0 0.17(4) 
O5 O2- 18 b 0.7287(8) 0.0099(7) 0.1134(2) 1. 0 0.17(4) 
O6 O2- 18 b 0.5147(6) 0.7595(9) 0.1348(2) 1. 0 0.17(4) 
O7 O2- 18 b 0.6044(7) 0.9601(7) 0.0446(2) 1. 0 0.17(4) 
O8 O2- 18 b 0.5741(7) 0.6983(7) 0.0517(2) 1. 0 0.17(4) 
O9 O2- 18 b 0.8229(6) 0.9213(8) 0.0440(2) 1. 0 0.17(4) 
O10 O2- 18 b 0.6250(6) 0.8194(7) 0.9938(2) 1. 0 0.17(4) 

#End of data_94540-ICSD


