data_30282-ICSD
#?2014 by Fachinformationszentrum Karlsruhe, and the U.S. Secretary of 
#Commerce on behalf of the United States.  All rights reserved.
_database_code_ICSD                30282
_audit_creation_date               1980/01/01
_audit_update_record               2010/08/01
_chemical_name_systematic          'Calcium Diborate'
_chemical_formula_structural       'Ca (B2 O4)'
_chemical_formula_sum              'B2 Ca1 O4'
_publ_section_title
;
The crystal structure of calcium metaborate Ca B2 O4
;
loop_
_citation_id
_citation_journal_abbrev
_citation_year
_citation_journal_volume
_citation_page_first
_citation_page_last
_citation_journal_id_ASTM
primary
;
Zeitschrift fuer Kristallographie, Kristallgeometrie, Kristallphysik, 
Kristallchemie (-144,1977)
;
 1932 83 354 361 ZEKGAX
2 'Proceedings of the National Academy of Sciences, U.S.A.'
 1931 17 617 619 PNASA6
_publ_author_name                  'Zachariasen, W.H.;Ziegler, G.E.'
_cell_length_a                     6.19(2)
_cell_length_b                     11.60(4)
_cell_length_c                     4.28(1)
_cell_angle_alpha                  90.
_cell_angle_beta                   90.
_cell_angle_gamma                  90.
_cell_volume                       307.32
_cell_formula_units_Z              4
_symmetry_space_group_name_H-M     'P n c a'
_symmetry_Int_Tables_number        60
loop_
_symmetry_equiv_pos_site_id
_symmetry_equiv_pos_as_xyz
  1	'x+.5, y, -z'
  2	'x, -y+.5, z+.5'
  3	'-x+.5, y+.5, z+.5'
  4	'-x, -y, -z'
  5	'-x+.5, -y, z'
  6	'-x, y+.5, -z+.5'
  7	'x+.5, -y+.5, -z+.5'
  8	'x, y, z'
loop_
_atom_type_symbol
_atom_type_oxidation_number
B3+	3
Ca2+	2
O2-	-2
loop_
_atom_site_label
_atom_site_type_symbol
_atom_site_symmetry_multiplicity
_atom_site_Wyckoff_symbol
_atom_site_fract_x
_atom_site_fract_y
_atom_site_fract_z
_atom_site_occupancy
_atom_site_attached_hydrogens
Ca1 Ca2+ 4 c 0.25 0 0.264 1. 0 
B1 B3+ 8 d 0.125 0.197 0.847 1. 0 
O1 O2- 8 d 0.111 0.089 0.722 1. 0 
O2 O2- 8 d 0.139 0.208 0.167 1. 0 

#End of data_30282-ICSD


