data_86442-ICSD
#?2014 by Fachinformationszentrum Karlsruhe, and the U.S. Secretary of 
#Commerce on behalf of the United States.  All rights reserved.
_database_code_ICSD                86442
_audit_creation_date               1999/11/30
_audit_update_record               2011/02/01
_chemical_name_systematic
;
Potassium Dioxomolybdenum Phosphate(V)
;
_chemical_formula_structural       'K (Mo O2) (P O4)'
_chemical_formula_sum              'K1 Mo1 O6 P1'
_publ_section_title
;
Synthesis and structural characterization of K (Mo O2) (P O4) * 
(H2O), and its topotactic reaction to form K Mo O2 P O4
;
loop_
_citation_id
_citation_journal_abbrev
_citation_year
_citation_journal_volume
_citation_page_first
_citation_page_last
_citation_journal_id_ASTM
primary 'Journal of Solid State Chemistry' 1991 95 83 93 JSSCBI
_publ_author_name                  'Peascoe, R.;Clearfield, A.'
_cell_length_a                     12.209(4)
_cell_length_b                     15.535(2)
_cell_length_c                     11.149(4)
_cell_angle_alpha                  90.
_cell_angle_beta                   90.
_cell_angle_gamma                  90.
_cell_volume                       2114.6
_cell_formula_units_Z              16
_symmetry_space_group_name_H-M     'F d d d Z'
_symmetry_Int_Tables_number        70
_refine_ls_R_factor_all            .046
loop_
_symmetry_equiv_pos_site_id
_symmetry_equiv_pos_as_xyz
  1	'x+.75, y+.75, -z'
  2	'x+.75, -y, z+.75'
  3	'-x, y+.75, z+.75'
  4	'-x, -y, -z'
  5	'-x+.25, -y+.25, z'
  6	'-x+.25, y, -z+.25'
  7	'x, -y+.25, -z+.25'
  8	'x, y, z'
  9	'x+.75, y+.25, -z+.5'
 10	'x+.25, y+.75, -z+.5'
 11	'x+.25, y+.25, -z'
 12	'x+.75, -y+.5, z+.25'
 13	'x+.25, -y, z+.25'
 14	'x+.25, -y+.5, z+.75'
 15	'-x, y+.25, z+.25'
 16	'-x+.5, y+.75, z+.25'
 17	'-x+.5, y+.25, z+.75'
 18	'-x, -y+.5, -z+.5'
 19	'-x+.5, -y, -z+.5'
 20	'-x+.5, -y+.5, -z'
 21	'-x+.25, -y+.75, z+.5'
 22	'-x+.75, -y+.25, z+.5'
 23	'-x+.75, -y+.75, z'
 24	'-x+.25, y+.5, -z+.75'
 25	'-x+.75, y, -z+.75'
 26	'-x+.75, y+.5, -z+.25'
 27	'x, -y+.75, -z+.75'
 28	'x+.5, -y+.25, -z+.75'
 29	'x+.5, -y+.75, -z+.25'
 30	'x, y+.5, z+.5'
 31	'x+.5, y, z+.5'
 32	'x+.5, y+.5, z'
loop_
_atom_type_symbol
_atom_type_oxidation_number
K1+	1
Mo6+	6
O2-	-2
P5+	5
loop_
_atom_site_label
_atom_site_type_symbol
_atom_site_symmetry_multiplicity
_atom_site_Wyckoff_symbol
_atom_site_fract_x
_atom_site_fract_y
_atom_site_fract_z
_atom_site_occupancy
_atom_site_attached_hydrogens
_atom_site_B_iso_or_equiv
Mo1 Mo6+ 16 e 0.40217(9) 0.125 0.125 1. 0 0.68(4) 
K1 K1+ 16 g 0.125 0.125 0.3453(3) 1. 0 2.2(1) 
P1 P5+ 16 f 0.375 0.0099(2) 0.875 1. 0 0.7(1) 
O1 O2- 32 h 0.5374(5) 0.0432(4) 0.1858(6) 1. 0 1.1(3) 
O2 O2- 32 h 0.4314(5) 0.0714(4) -.0328(6) 1. 0 0.8(2) 
O3 O2- 32 h 0.3137(7) 0.0486(5) 0.1730(7) 1. 0 1.9(3) 

#End of data_86442-ICSD


