data_94224-ICSD
#?2014 by Fachinformationszentrum Karlsruhe, and the U.S. Secretary of 
#Commerce on behalf of the United States.  All rights reserved.
_database_code_ICSD                94224
_audit_creation_date               2003/10/01
_chemical_name_systematic
;
Barium Dysprosium Zinc Oxide (5/8/4/21)
;
_chemical_formula_structural       'Ba5 Dy8 Zn4 O21'
_chemical_formula_sum              'Ba5 Dy8 O21 Zn4'
_publ_section_title
;
Crystallographic studies and X-ray diffraction patterns of Ba5 R8 Zn4 
O21 by Rietveld refinements
;
loop_
_citation_id
_citation_journal_abbrev
_citation_year
_citation_journal_volume
_citation_journal_issue
_citation_page_first
_citation_page_last
_citation_journal_id_ASTM
primary 'Powder Diffraction' 2001 16 3 131 143 PODIE2
_publ_author_name
;
Wong-Ng, W.;Kaduk, J.A.;Dillingham, J.
;
_cell_length_a                     13.80473(9)
_cell_length_b                     13.80473(9)
_cell_length_c                     5.72491(7)
_cell_angle_alpha                  90
_cell_angle_beta                   90
_cell_angle_gamma                  90
_cell_volume                       1091
_cell_formula_units_Z              2
_symmetry_space_group_name_H-M     'I 4/m'
_symmetry_Int_Tables_number        87
_refine_ls_R_factor_all            .0405
loop_
_symmetry_equiv_pos_site_id
_symmetry_equiv_pos_as_xyz
  1	'-y, x, -z'
  2	'y, -x, -z'
  3	'x, y, -z'
  4	'-x, -y, -z'
  5	'y, -x, z'
  6	'-y, x, z'
  7	'-x, -y, z'
  8	'x, y, z'
  9	'-y+.5, x+.5, -z+.5'
 10	'y+.5, -x+.5, -z+.5'
 11	'x+.5, y+.5, -z+.5'
 12	'-x+.5, -y+.5, -z+.5'
 13	'y+.5, -x+.5, z+.5'
 14	'-y+.5, x+.5, z+.5'
 15	'-x+.5, -y+.5, z+.5'
 16	'x+.5, y+.5, z+.5'
loop_
_atom_type_symbol
_atom_type_oxidation_number
Ba2+	2
Dy3+	3
O2-	-2
Zn2+	2
loop_
_atom_site_label
_atom_site_type_symbol
_atom_site_symmetry_multiplicity
_atom_site_Wyckoff_symbol
_atom_site_fract_x
_atom_site_fract_y
_atom_site_fract_z
_atom_site_occupancy
_atom_site_attached_hydrogens
_atom_site_U_iso_or_equiv
Dy1 Dy3+ 8 h 0.2472(2) 0.1671(2) 0 1. 0 0.0035(5) 
Dy2 Dy3+ 8 h 0.4114(2) 0.3573(2) 0 1. 0 0.0035(2) 
Ba1 Ba2+ 2 a 0 0 0 1. 0 0.0089(6) 
Ba2 Ba2+ 8 h 0.5345(2) 0.1392(2) 0 1. 0 0.0089(6) 
Zn1 Zn2+ 8 h 0.0407(5) 0.2516(4) 0 1. 0 0.0063(13) 
O1 O2- 2 b 0.5 0.5 0 1. 0 0.005 
O2 O2- 8 h 0.6326(18) 0.9560(18) 0 1. 0 0.005 
O3 O2- 16 i 0.6717(17) 0.5507(10) 0.7486(40) 1. 0 0.005 
O4 O2- 16 i 0.3567(13) 0.2434(10) 0.2508(34) 1. 0 0.005 

#End of data_94224-ICSD


