data_411492-ICSD
#?2014 by Fachinformationszentrum Karlsruhe, and the U.S. Secretary of 
#Commerce on behalf of the United States.  All rights reserved.
_database_code_ICSD                411492
_audit_creation_date               2002/10/01
_chemical_name_systematic
;
Potassium Oxovanadium(IV) Phosphate(V) - Beta
;
_chemical_formula_structural       'K (V O) (P O4)'
_chemical_formula_sum              'K1 O5 P1 V1'
_publ_section_title
;
The vanadium monophosphates A V O P O4 : synthesis of a second Form 
beta-(K V O P O4) and structural relationships in the series
;
loop_
_citation_id
_citation_journal_abbrev
_citation_year
_citation_journal_volume
_citation_page_first
_citation_page_last
_citation_journal_id_ASTM
primary 'Solid State Sciences' 2001 3 477 482 SSSCFJ
_publ_author_name
;
Berrah, F.;Guesdon, A.;Leclaire, A.;Borel, M.M.;Provost, J.;Raveau, 
B.
;
_cell_length_a                     7.614(6)
_cell_length_b                     7.306(5)
_cell_length_c                     8.411(7)
_cell_angle_alpha                  90.
_cell_angle_beta                   90.
_cell_angle_gamma                  90.
_cell_volume                       467.89
_cell_formula_units_Z              4
_symmetry_space_group_name_H-M     'P 21 21 21'
_symmetry_Int_Tables_number        19
_refine_ls_R_factor_all            .037
loop_
_symmetry_equiv_pos_site_id
_symmetry_equiv_pos_as_xyz
  1	'-x, y+.5, -z+.5'
  2	'x+.5, -y+.5, -z'
  3	'-x+.5, -y, z+.5'
  4	'x, y, z'
loop_
_atom_type_symbol
_atom_type_oxidation_number
K1+	1
O2-	-2
P5+	5
V4+	4
loop_
_atom_site_label
_atom_site_type_symbol
_atom_site_symmetry_multiplicity
_atom_site_Wyckoff_symbol
_atom_site_fract_x
_atom_site_fract_y
_atom_site_fract_z
_atom_site_occupancy
_atom_site_attached_hydrogens
V1 V4+ 4 a 0.6963(1) 0.6332(2) 0.1308(1) 1. 0 
K1 K1+ 4 a 0.7129(2) 0.1315(2) 0.0092(2) 1. 0 
P1 P5+ 4 a 0.5612(2) 0.6265(3) -.1556(2) 1. 0 
O1 O2- 4 a 0.5734(6) 0.4703(6) -.0309(6) 1. 0 
O2 O2- 4 a 0.5570(7) 0.6663(7) 0.2671(6) 1. 0 
O3 O2- 4 a 0.8721(7) 0.8199(7) 0.1924(7) 1. 0 
O4 O2- 4 a 0.6600(6) 0.7813(6) -.0661(6) 1. 0 
O5 O2- 4 a 0.8491(7) 0.4268(7) 0.1878(6) 1. 0 

loop_
_atom_site_aniso_label
_atom_site_aniso_type_symbol
_atom_site_aniso_U_11
_atom_site_aniso_U_22
_atom_site_aniso_U_33
_atom_site_aniso_U_12
_atom_site_aniso_U_13
_atom_site_aniso_U_23
V1 V4+ 0.0076(5) 0.0106(5) 0.0113(5) 0.0003(7) 0.0004(5) -.0002(7)
K1 K1+ 0.0187(7) 0.0117(6) 0.0199(8) 0.002(1) -.0027(7) -.002(1)
P1 P5+ 0.0102(8) 0.0078(8) 0.0112(8) -.002(1) 0.0003(7) 0.0001(9)
O1 O2- 0.014(2) 0.007(2) 0.010(2) -.004(2) -.001(2) 0.004(2)
O2 O2- 0.019(3) 0.021(3) 0.021(3) -.002(3) 0.010(3) -.008(2)
O3 O2- 0.012(3) 0.016(3) 0.016(3) -.005(2) 0.002(2) -.002(2)
O4 O2- 0.015(3) 0.002(2) 0.019(3) -.003(2) -.002(2) 0.000(2)
O5 O2- 0.016(3) 0.012(2) 0.014(3) 0.003(2) -.002(2) 0.000(2)
#End of data_411492-ICSD


