data_2436-ICSD
#?2014 by Fachinformationszentrum Karlsruhe, and the U.S. Secretary of 
#Commerce on behalf of the United States.  All rights reserved.
_database_code_ICSD                2436
_audit_creation_date               1980/01/01
_audit_update_record               2012/08/01
_chemical_name_systematic
;
Calcium Hexachlorocadmate Dodecahydrate
;
_chemical_formula_structural       'Cd Ca2 Cl6 (H2 O)12'
_chemical_formula_sum              'H24 Ca2 Cd1 Cl6 O12'
_publ_section_title
;
Structure de l'hexachlorure de cadmium-calcium dodecahydrate
;
loop_
_citation_id
_citation_journal_abbrev
_citation_year
_citation_journal_volume
_citation_page_first
_citation_page_last
_citation_journal_id_ASTM
primary 'Acta Crystallographica B (24,1968-38,1982)' 1978 34 3341 3343 ACBCAR
_publ_author_name                  'Leligny, H.;Monier, J.C.'
_cell_length_a                     8.839(2)
_cell_length_b                     10.106(2)
_cell_length_c                     12.714(4)
_cell_angle_alpha                  90.
_cell_angle_beta                   114.21(3)
_cell_angle_gamma                  90.
_cell_volume                       1035.82
_cell_formula_units_Z              2
_symmetry_space_group_name_H-M     'P 1 21/c 1'
_symmetry_Int_Tables_number        14
_refine_ls_R_factor_all            .044
loop_
_symmetry_equiv_pos_site_id
_symmetry_equiv_pos_as_xyz
  1	'x, -y+.5, z+.5'
  2	'-x, -y, -z'
  3	'-x, y+.5, -z+.5'
  4	'x, y, z'
loop_
_atom_type_symbol
_atom_type_oxidation_number
Ca2+	2
Cd2+	2
Cl1-	-1
H1+	1
O2-	-2
loop_
_atom_site_label
_atom_site_type_symbol
_atom_site_symmetry_multiplicity
_atom_site_Wyckoff_symbol
_atom_site_fract_x
_atom_site_fract_y
_atom_site_fract_z
_atom_site_occupancy
_atom_site_attached_hydrogens
_atom_site_B_iso_or_equiv
Cd1 Cd2+ 2 a 0 0 0 1. 0 0 
Ca1 Ca2+ 4 e -.25979(8) 0.04658(7) 0.36509(5) 1. 0 0 
Cl1 Cl1- 4 e 0.16541(9) 0.00599(11) 0.22379(6) 1. 0 0 
Cl2 Cl1- 4 e 0.23744(10) 0.13717(9) -.02804(7) 1. 0 0 
Cl3 Cl1- 4 e -.15604(10) 0.22130(8) 0.00883(6) 1. 0 0 
O1 O2- 4 e -.1553(4) -.1389(3) 0.3015(2) 1. 0 0 
O2 O2- 4 e -.4609(6) -.0289(5) 0.1663(4) 1. 0 0 
O3 O2- 4 e -.4500(6) -.0913(6) 0.4102(6) 1. 0 0 
O4 O2- 4 e -.1993(8) 0.1936(5) 0.2439(3) 1. 0 0 
O5 O2- 4 e -.5017(5) 0.1816(4) 0.3251(6) 1. 0 0 
O6 O2- 4 e -.0886(5) -.0664(3) 0.5544(3) 1. 0 0 
H1 H1+ 4 e -.158(13) -.152(11) 0.240(9) 1. 0 4. 
H2 H1+ 4 e -.079(14) -.202(12) 0.339(9) 1. 0 3. 
H3 H1+ 4 e -.545(18) 0.023(16) 0.145(13) 1. 0 4.5 
H4 H1+ 4 e -.386(12) -.014(11) 0.104(8) 1. 0 2.5 
H5 H1+ 4 e -.602(14) -.112(12) 0.382(10) 1. 0 5. 
H6 H1+ 4 e -.417(19) -.188(16) 0.420(13) 1. 0 4.5 
H7 H1+ 4 e -.203(13) 0.185(11) 0.178(9) 1. 0 2.7 
H8 H1+ 4 e -.185(9) 0.272(8) 0.257(6) 1. 0 1.2 
H9 H1+ 4 e -.611(26) 0.158(22) 0.299(18) 1. 0 6. 
H10 H1+ 4 e -.483(10) 0.259(8) 0.335(7) 1. 0 1.5 
H11 H1+ 4 e -.105(14) -.033(12) 0.621(10) 1. 0 2.7 
H12 H1+ 4 e -.103(10) -.142(9) 0.554(7) 1. 0 1.6 

#End of data_2436-ICSD


