data_62912-ICSD
#?2014 by Fachinformationszentrum Karlsruhe, and the U.S. Secretary of 
#Commerce on behalf of the United States.  All rights reserved.
_database_code_ICSD                62912
_audit_creation_date               1988/12/19
_audit_update_record               1988/12/30
_chemical_name_systematic
;
Disodium Hexabarium Disilicate Bis(orthosilicate) Prepared At T = 450 
C And P = 1 Kbar
;
_chemical_formula_structural       'Na2 Ba6 (Si2 O7) (Si O4)2'
_chemical_formula_sum              'Ba6 Na2 O15 Si4'
_publ_section_title
;
Crystal structure and twinning of Na2 Ba6 (Si2 O7) (Si O4)2
;
loop_
_citation_id
_citation_journal_abbrev
_citation_year
_citation_journal_volume
_citation_page_first
_citation_page_last
_citation_journal_id_ASTM
primary Kristallografiya 1987 32 882 887 KRISAJ
2 'Soviet Physics, Crystallography (= Kristallografiya)'
 1987 32 519 522 SPHCA6
_publ_author_name
;
Tamazyan, R.A.;Malinovskii, Yu.A.;Sirota, M.I.
;
_cell_length_a                     11.528(4)
_cell_length_b                     9.508(6)
_cell_length_c                     7.856(2)
_cell_angle_alpha                  90.
_cell_angle_beta                   90.
_cell_angle_gamma                  107.63(4)
_cell_volume                       820.64
_cell_formula_units_Z              2
_symmetry_space_group_name_H-M     'P 1 1 21/a'
_symmetry_Int_Tables_number        14
_refine_ls_R_factor_all            .057
loop_
_symmetry_equiv_pos_site_id
_symmetry_equiv_pos_as_xyz
  1	'x+.5, y, -z+.5'
  2	'-x, -y, -z'
  3	'-x+.5, -y, z+.5'
  4	'x, y, z'
loop_
_atom_type_symbol
_atom_type_oxidation_number
Ba2+	2
Na1+	1
O2-	-2
Si4+	4
loop_
_atom_site_label
_atom_site_type_symbol
_atom_site_symmetry_multiplicity
_atom_site_Wyckoff_symbol
_atom_site_fract_x
_atom_site_fract_y
_atom_site_fract_z
_atom_site_occupancy
_atom_site_attached_hydrogens
_atom_site_B_iso_or_equiv
Ba1 Ba2+ 4 e 0.2732(1) 0.0009(1) 0.0034(1) 1. 0 0.92(2) 
Ba2 Ba2+ 4 e 0.0849(1) 0.3407(1) 0.5043(1) 1. 0 0.70(2) 
Ba3 Ba2+ 4 e 0.0839(1) 0.3332(1) 0.0207(1) 1. 0 0.66(2) 
Si1 Si4+ 4 e 0.0089(2) 0.0350(3) 0.7907(4) 1. 0 0.38(9) 
Si2 Si4+ 4 e 0.3447(2) 0.3785(4) 0.2547(4) 1. 0 0.47(9) 
Na1 Na1+ 4 e 0.3308(4) 0.3213(6) 0.7528(8) 1. 0 1.1(2) 
O1 O2- 4 e 0.0307(11) 0.1171(11) 0.3075(15) 1. 0 2.0(4) 
O2 O2- 2 a 0 0 0 1. 0 1.5(4) 
O3 O2- 4 e 0.1479(7) 0.1332(11) 0.7576(11) 1. 0 0.8(2) 
O4 O2- 4 e 0.4206(9) 0.1323(10) 0.7461(13) 1. 0 1.7(3) 
O5 O2- 4 e 0.2575(7) 0.4871(10) 0.2607(10) 1. 0 0.8(2) 
O6 O2- 4 e 0.3253(8) 0.2844(12) 0.4303(12) 1. 0 1.5(4) 
O7 O2- 4 e 0.3177(9) 0.2873(12) 0.0771(12) 1. 0 1.6(4) 
O8 O2- 4 e 0.4859(7) 0.4858(10) 0.2529(14) 1. 0 1.0(3) 

#End of data_62912-ICSD


