data_189973-ICSD
#?2014 by Fachinformationszentrum Karlsruhe, and the U.S. Secretary of 
#Commerce on behalf of the United States.  All rights reserved.
_database_code_ICSD                189973
_audit_creation_date               2014/08/01
_chemical_name_systematic          'Dimagnesium Silicate'
_chemical_formula_structural       'Mg2 (Si O4)'
_chemical_formula_sum              'Mg2 O4 Si1'
_chemical_name_mineral             Forsterite
_publ_section_title
;
Phase transitions and equation of state of forsterite to 90 GPa from 
single-crystal X-ray diffraction and molecular modeling
;
loop_
_citation_id
_citation_journal_abbrev
_citation_year
_citation_journal_volume
_citation_journal_issue
_citation_page_first
_citation_page_last
_citation_journal_id_ASTM
primary 'American Mineralogist' 2014 99 1 35 43 AMMIAY
_publ_author_name
;
Gregory J. Finkelstein;Przemyslaw K. Dera;Sandro Jahn;Artem R. 
Oganov;Christopher M. Holl;Yue Meng;Thomas S. Duffy
;
_cell_length_a                     2.640(2)
_cell_length_b                     8.596(8)
_cell_length_c                     9.04(4)
_cell_angle_alpha                  90.
_cell_angle_beta                   90.
_cell_angle_gamma                  90.
_cell_volume                       205.15
_cell_formula_units_Z              4
_symmetry_space_group_name_H-M     'C m c 21'
_symmetry_Int_Tables_number        36
_refine_ls_R_factor_all            .052
loop_
_symmetry_equiv_pos_site_id
_symmetry_equiv_pos_as_xyz
  1	'x, -y, z+.5'
  2	'-x, -y, z+.5'
  3	'-x, y, z'
  4	'x, y, z'
  5	'x+.5, -y+.5, z+.5'
  6	'-x+.5, -y+.5, z+.5'
  7	'-x+.5, y+.5, z'
  8	'x+.5, y+.5, z'
loop_
_atom_type_symbol
_atom_type_oxidation_number
Mg2+	2
O2-	-2
Si4+	4
loop_
_atom_site_label
_atom_site_type_symbol
_atom_site_symmetry_multiplicity
_atom_site_Wyckoff_symbol
_atom_site_fract_x
_atom_site_fract_y
_atom_site_fract_z
_atom_site_occupancy
_atom_site_attached_hydrogens
_atom_site_U_iso_or_equiv
Mg1 Mg2+ 4 a 0.5 0.373(12) 0.350(13) 1. 0 0.009(8) 
Mg2 Mg2+ 4 a 0.5 0.889(5) 0.622(14) 1. 0 0.012(8) 
Si1 Si4+ 4 a 0 0.857(16) 0.000(15) 1. 0 0.018(8) 
O1 O2- 4 a 0.5 0.983(60) 0.46(15) 1. 0 0.022(14) 
O2 O2- 4 a 0.5 0.231(14) 0.572(55) 1. 0 0.004(12) 
O3 O2- 4 a 0.5 0.706(14) 0.271(44) 1. 0 0.023(25) 
O4 O2- 4 a 0.5 0.466(16) 0.181(91) 1. 0 0.011(14) 

#End of data_189973-ICSD


