data_29339-ICSD
#?2014 by Fachinformationszentrum Karlsruhe, and the U.S. Secretary of 
#Commerce on behalf of the United States.  All rights reserved.
_database_code_ICSD                29339
_audit_creation_date               1980/01/01
_audit_update_record               1999/01/19
_chemical_name_systematic
;
Sodium Dicalcium Hydrogen Catena-trisilicate
;
_chemical_formula_structural       'Na Ca2 H (Si3 O9)'
_chemical_formula_sum              'H1 Ca2 Na1 O9 Si3'
_chemical_name_mineral             'Pectolite 1A'
_publ_section_title
;
The arrangement of atoms in crystals of the wollastonite group of 
metasilicates
;
loop_
_citation_id
_citation_journal_abbrev
_citation_year
_citation_journal_volume
_citation_page_first
_citation_page_last
_citation_journal_id_ASTM
primary 'Proceedings of the National Academy of Sciences, U.S.A.'
 1956 42 113 116 PNASA6
_publ_author_name                  'Buerger, M.J.'
_cell_length_a                     7.99
_cell_length_b                     7.04
_cell_length_c                     7.02
_cell_angle_alpha                  90.05
_cell_angle_beta                   95.28
_cell_angle_gamma                  102.47
_cell_volume                       383.83
_cell_formula_units_Z              2
_symmetry_space_group_name_H-M     'P -1'
_symmetry_Int_Tables_number        2
loop_
_symmetry_equiv_pos_site_id
_symmetry_equiv_pos_as_xyz
  1	'-x, -y, -z'
  2	'x, y, z'
loop_
_atom_type_symbol
_atom_type_oxidation_number
Ca2+	2
H1+	1
Na1+	1
O2-	-2
Si4+	4
loop_
_atom_site_label
_atom_site_type_symbol
_atom_site_symmetry_multiplicity
_atom_site_Wyckoff_symbol
_atom_site_fract_x
_atom_site_fract_y
_atom_site_fract_z
_atom_site_occupancy
_atom_site_attached_hydrogens
Na1 Na1+ 2 i 0.448 0.736 0.659 1. 0 
Ca1 Ca2+ 2 i 0.141 0.406 0.854 1. 0 
Ca2 Ca2+ 2 i 0.155 0.914 0.862 1. 0 
H1 H1+ 2 i 0.177 0.615 0.539 1. 0 
Si1 Si4+ 2 i 0.224 0.403 0.333 1. 0 
Si2 Si4+ 2 i 0.212 0.948 0.339 1. 0 
Si3 Si4+ 2 i 0.45 0.743 0.145 1. 0 
O1 O2- 2 i 0.349 0.202 0.871 1. 0 
O2 O2- 2 i 0.336 0.704 0.946 1. 0 
O3 O2- 2 i 0.184 0.49 0.542 1. 0 
O4 O2- 2 i 0.174 0.839 0.533 1. 0 
O5 O2- 2 i 0.074 0.406 0.181 1. 0 
O6 O2- 2 i 0.048 0.88 0.198 1. 0 
O7 O2- 2 i 0.392 0.529 0.27 1. 0 
O8 O2- 2 i 0.402 0.915 0.28 1. 0 
O9 O2- 2 i 0.248 0.186 0.383 1. 0 

#End of data_29339-ICSD


