data_69300-ICSD
#?2014 by Fachinformationszentrum Karlsruhe, and the U.S. Secretary of 
#Commerce on behalf of the United States.  All rights reserved.
_database_code_ICSD                69300
_audit_creation_date               1992/08/20
_chemical_name_systematic          'Dilithium Disilicate'
_chemical_formula_structural       'Li2 (Si2 O5)'
_chemical_formula_sum              'Li2 O5 Si2'
_publ_section_title
;
Rietveld structure refinement of metastable lithium disilicate using 
synchrotron X-ray powder diffraction data from the Daresbury SRS 8.3 
diffractometer
;
loop_
_citation_id
_citation_journal_abbrev
_citation_year
_citation_journal_volume
_citation_journal_issue
_citation_page_first
_citation_page_last
_citation_journal_id_ASTM
primary 'Powder Diffraction' 1990 5 3 137 143 PODIE2
_publ_author_name
;
Smith, R.I.;West, A.R.;Abrahams, I.;Bruce, P.G.
;
_cell_length_a                     5.6871(6)
_cell_length_b                     4.7846(5)
_cell_length_c                     14.645(1)
_cell_angle_alpha                  90.
_cell_angle_beta                   90.
_cell_angle_gamma                  90.
_cell_volume                       398.5
_cell_formula_units_Z              4
_symmetry_space_group_name_H-M     'P b c n'
_symmetry_Int_Tables_number        60
_refine_ls_R_factor_all            .145
loop_
_symmetry_equiv_pos_site_id
_symmetry_equiv_pos_as_xyz
  1	'x, -y, z+.5'
  2	'-x+.5, y+.5, z'
  3	'x+.5, y+.5, -z+.5'
  4	'-x, -y, -z'
  5	'-x, y, -z+.5'
  6	'x+.5, -y+.5, -z'
  7	'-x+.5, -y+.5, z+.5'
  8	'x, y, z'
loop_
_atom_type_symbol
_atom_type_oxidation_number
Li1+	1
O2-	-2
Si4+	4
loop_
_atom_site_label
_atom_site_type_symbol
_atom_site_symmetry_multiplicity
_atom_site_Wyckoff_symbol
_atom_site_fract_x
_atom_site_fract_y
_atom_site_fract_z
_atom_site_occupancy
_atom_site_attached_hydrogens
_atom_site_B_iso_or_equiv
Li1 Li1+ 8 d 0.607(3) 0.324(3) 0.44767(7) 1. 0 2.3(3) 
Si1 Si4+ 8 d 0.0930(3) 0.3087(5) 0.3512(1) 1. 0 1.5(2) 
O1 O2- 4 c 0 0.239(1) 0.25 1. 0 1.3(3) 
O2 O2- 8 d -.0779(9) 0.205(1) 0.4310(2) 1. 0 1.3(2) 
O3 O2- 8 d 0.3452(7) 0.1299(9) 0.3609(2) 1. 0 1.7(2) 

#End of data_69300-ICSD


