data_61239-ICSD
#?2014 by Fachinformationszentrum Karlsruhe, and the U.S. Secretary of 
#Commerce on behalf of the United States.  All rights reserved.
_database_code_ICSD                61239
_audit_creation_date               1987/03/16
_audit_update_record               2012/08/01
_chemical_name_systematic          'Mercury Potassium Trimetaphosphate'
_chemical_formula_structural       'Hg K P3 O9'
_chemical_formula_sum              'Hg1 K1 O9 P3'
_publ_section_title
;
Structure of mercury potassium trimetaphosphate
;
loop_
_citation_id
_citation_journal_abbrev
_citation_year
_citation_journal_volume
_citation_page_first
_citation_page_last
_citation_journal_id_ASTM
primary 'Acta Crystallographica, Section C: Crystal Structure Communications'
 1986 42 930 931 ACSCEE
_publ_author_name                  'Averbuch-Pouchot, M.T.;Durif, A.'
_cell_length_a                     11.164(6)
_cell_length_b                     12.46(1)
_cell_length_c                     5.622(2)
_cell_angle_alpha                  90.
_cell_angle_beta                   90.
_cell_angle_gamma                  90.
_cell_volume                       782.04
_cell_formula_units_Z              4
_symmetry_space_group_name_H-M     'P 21 21 21'
_symmetry_Int_Tables_number        19
_refine_ls_R_factor_all            .042
loop_
_symmetry_equiv_pos_site_id
_symmetry_equiv_pos_as_xyz
  1	'-x, y+.5, -z+.5'
  2	'x+.5, -y+.5, -z'
  3	'-x+.5, -y, z+.5'
  4	'x, y, z'
loop_
_atom_type_symbol
_atom_type_oxidation_number
Hg2+	2
K1+	1
O2-	-2
P5+	5
loop_
_atom_site_label
_atom_site_type_symbol
_atom_site_symmetry_multiplicity
_atom_site_Wyckoff_symbol
_atom_site_fract_x
_atom_site_fract_y
_atom_site_fract_z
_atom_site_occupancy
_atom_site_attached_hydrogens
Hg1 Hg2+ 4 a 0.47903(4) 0.13628(3) 0.09635(8) 1. 0 
K1 K1+ 4 a 0.1164(2) 0.0795(2) 0.0975(6) 1. 0 
P1 P5+ 4 a 0.4169(2) 0.3719(2) 0.3821(6) 1. 0 
P2 P5+ 4 a 0.3085(2) 0.1862(2) 0.5838(6) 1. 0 
P3 P5+ 4 a 0.1574(2) 0.3572(2) 0.3946(6) 1. 0 
O1 O2- 4 a 0.2831(7) 0.4209(6) 0.384(2) 1. 0 
O2 O2- 4 a 0.4083(7) 0.2801(6) 0.582(2) 1. 0 
O3 O2- 4 a 0.5014(8) 0.4553(7) 0.476(2) 1. 0 
O4 O2- 4 a 0.4449(9) 0.3193(8) 0.147(2) 1. 0 
O5 O2- 4 a 0.1882(7) 0.2561(7) 0.570(2) 1. 0 
O6 O2- 4 a 0.3176(7) 0.1207(7) 0.361(1) 1. 0 
O7 O2- 4 a 0.3149(8) 0.1291(8) 0.811(2) 1. 0 
O8 O2- 4 a 0.1277(9) 0.3160(8) 0.155(2) 1. 0 
O9 O2- 4 a 0.0687(8) 0.4241(8) 0.526(2) 1. 0 

#End of data_61239-ICSD


