data_71623-ICSD
#?2014 by Fachinformationszentrum Karlsruhe, and the U.S. Secretary of 
#Commerce on behalf of the United States.  All rights reserved.
_database_code_ICSD                71623
_audit_creation_date               1993/01/06
_chemical_name_systematic          'Dipotassium Sodium Manganate(V)'
_chemical_formula_structural       '(K Na) K (Mn O4)'
_chemical_formula_sum              'K2 Mn1 Na1 O4'
_publ_section_title
;
Ein neues Oxomanganat(V) mit Elpasolith-Variante: (KNa)K(MnO4)
;
loop_
_citation_id
_citation_journal_abbrev
_citation_year
_citation_journal_volume
_citation_page_first
_citation_page_last
_citation_journal_id_ASTM
primary 'Journal of Alloys and Compounds' 1992 183 187 197 JALCEU
_publ_author_name                  'Fischer, D.;Hoppe, R.'
_cell_length_a                     10.444(2)
_cell_length_b                     11.260(3)
_cell_length_c                     16.989(3)
_cell_angle_alpha                  90.
_cell_angle_beta                   90.
_cell_angle_gamma                  90.
_cell_volume                       1997.9
_cell_formula_units_Z              16
_symmetry_space_group_name_H-M     'F d d d Z'
_symmetry_Int_Tables_number        70
_refine_ls_R_factor_all            .102
loop_
_symmetry_equiv_pos_site_id
_symmetry_equiv_pos_as_xyz
  1	'x+.75, y+.75, -z'
  2	'x+.75, -y, z+.75'
  3	'-x, y+.75, z+.75'
  4	'-x, -y, -z'
  5	'-x+.25, -y+.25, z'
  6	'-x+.25, y, -z+.25'
  7	'x, -y+.25, -z+.25'
  8	'x, y, z'
  9	'x+.75, y+.25, -z+.5'
 10	'x+.25, y+.75, -z+.5'
 11	'x+.25, y+.25, -z'
 12	'x+.75, -y+.5, z+.25'
 13	'x+.25, -y, z+.25'
 14	'x+.25, -y+.5, z+.75'
 15	'-x, y+.25, z+.25'
 16	'-x+.5, y+.75, z+.25'
 17	'-x+.5, y+.25, z+.75'
 18	'-x, -y+.5, -z+.5'
 19	'-x+.5, -y, -z+.5'
 20	'-x+.5, -y+.5, -z'
 21	'-x+.25, -y+.75, z+.5'
 22	'-x+.75, -y+.25, z+.5'
 23	'-x+.75, -y+.75, z'
 24	'-x+.25, y+.5, -z+.75'
 25	'-x+.75, y, -z+.75'
 26	'-x+.75, y+.5, -z+.25'
 27	'x, -y+.75, -z+.75'
 28	'x+.5, -y+.25, -z+.75'
 29	'x+.5, -y+.75, -z+.25'
 30	'x, y+.5, z+.5'
 31	'x+.5, y, z+.5'
 32	'x+.5, y+.5, z'
loop_
_atom_type_symbol
_atom_type_oxidation_number
K1+	1
Mn5+	5
Na1+	1
O2-	-2
loop_
_atom_site_label
_atom_site_type_symbol
_atom_site_symmetry_multiplicity
_atom_site_Wyckoff_symbol
_atom_site_fract_x
_atom_site_fract_y
_atom_site_fract_z
_atom_site_occupancy
_atom_site_attached_hydrogens
Mn1 Mn5+ 16 f 0.125 0.3810(1) 0.125 1. 0 
K1 K1+ 16 g 0.125 0.125 0.7352(1) 1. 0 
K2 K1+ 16 e 0.9417(2) 0.125 0.125 1. 0 
Na1 Na1+ 16 g 0.125 0.125 0.2823(2) 1. 0 
O1 O2- 32 h 0.2552(3) 0.7815(3) 0.1186(3) 1. 0 
O2 O2- 32 h 0.6160(5) 0.4549(3) 0.0444(2) 1. 0 

loop_
_atom_site_aniso_label
_atom_site_aniso_type_symbol
_atom_site_aniso_U_11
_atom_site_aniso_U_22
_atom_site_aniso_U_33
_atom_site_aniso_U_12
_atom_site_aniso_U_13
_atom_site_aniso_U_23
Mn1 Mn5+ 0.0115(4) 0.0089(4) 0.0147(5) 0 -.0003(5) 0
K1 K1+ 0.0252(9) 0.0199(8) 0.0175(8) -.0043(12) 0 0
K2 K1+ 0.0181(8) 0.0173(7) 0.0404(10) 0 0 -.0003(11)
Na1 Na1+ 0.0331(15) 0.0230(15) 0.0229(15) 0.0025(17) 0 0
O1 O2- 0.0140(16) 0.0204(17) 0.0252(21) 0.0041(13) -.0029(22) 0.0025(21)
O2 O2- 0.0287(24) 0.0358(21) 0.0306(21) 0.0057(26) -.0018(27) 0.0198(17)
#End of data_71623-ICSD


