data_246768-ICSD
#?2014 by Fachinformationszentrum Karlsruhe, and the U.S. Secretary of 
#Commerce on behalf of the United States.  All rights reserved.
_database_code_ICSD                246768
_audit_creation_date               2010/02/01
_chemical_name_systematic
;
Sodium Zinc Tris(tetrahydridoborate)
;
_chemical_formula_structural       'Na Zn (B H4)3'
_chemical_formula_sum              'H12 B3 Na1 Zn1'
_publ_section_title
;
A series of mixed-metal borohydrides
;
loop_
_citation_id
_citation_journal_abbrev
_citation_year
_citation_journal_volume
_citation_journal_issue
_citation_page_first
_citation_page_last
_citation_journal_id_ASTM
primary 'Angewandte Chemie. International Edition' 2009 48 36 6659 6663 ACIEF5
_publ_author_name
;
Ravnsbaek, D.;Filinchuk, Y.;Cerenius, Y.;Jakobsen, H.J.;Besenbacher, 
F.;Skibsted, J.;Jensen, T.R.
;
_cell_length_a                     8.2714(16)
_cell_length_b                     4.5240(7)
_cell_length_c                     18.757(3)
_cell_angle_alpha                  90.
_cell_angle_beta                   101.689(11)
_cell_angle_gamma                  90.
_cell_volume                       687.33
_cell_formula_units_Z              4
_symmetry_space_group_name_H-M     'P 1 21/c 1'
_symmetry_Int_Tables_number        14
_refine_ls_R_factor_all            .0727
loop_
_symmetry_equiv_pos_site_id
_symmetry_equiv_pos_as_xyz
  1	'x, -y+.5, z+.5'
  2	'-x, -y, -z'
  3	'-x, y+.5, -z+.5'
  4	'x, y, z'
loop_
_atom_type_symbol
_atom_type_oxidation_number
B3+	3
H1-	-1
Na1+	1
Zn2+	2
loop_
_atom_site_label
_atom_site_type_symbol
_atom_site_symmetry_multiplicity
_atom_site_Wyckoff_symbol
_atom_site_fract_x
_atom_site_fract_y
_atom_site_fract_z
_atom_site_occupancy
_atom_site_attached_hydrogens
Na1 Na1+ 4 e 0.705(4) 0.566(5) 0.3448(12) 1. 0 
Zn1 Zn2+ 4 e 0.2088(14) 0.140(2) 0.3930(6) 1. 0 
B1 B3+ 4 e 0.729(6) 0.597(12) 0.967(3) 1. 0 
B2 B3+ 4 e 0.414(8) 0.250(13) 0.820(3) 1. 0 
B3 B3+ 4 e 0.994(6) 0.645(15) 0.341(3) 1. 0 
H1 H1- 4 e 0.699(6) 0.462(12) 0.916(3) 1. 0 
H2 H1- 4 e 0.644(6) 0.533(12) 1.004(3) 1. 0 
H3 H1- 4 e 0.860(6) 0.554(12) 0.995(3) 1. 0 
H4 H1- 4 e 0.713(6) 0.837(12) 0.953(3) 1. 0 
H5 H1- 4 e 0.523(8) 0.219(13) 0.794(3) 1. 0 
H6 H1- 4 e 0.298(8) 0.266(13) 0.778(3) 1. 0 
H7 H1- 4 e 0.405(8) 0.057(13) 0.857(3) 1. 0 
H8 H1- 4 e 0.431(8) 0.458(13) 0.853(3) 1. 0 
H9 H1- 4 e 1.129(6) 0.693(15) 0.350(3) 1. 0 
H10 H1- 4 e 0.969(6) 0.501(15) 0.386(3) 1. 0 
H11 H1- 4 e 0.924(6) 0.857(15) 0.340(3) 1. 0 
H12 H1- 4 e 0.953(6) 0.529(15) 0.288(3) 1. 0 

#End of data_246768-ICSD


