data_419292-ICSD
#?2014 by Fachinformationszentrum Karlsruhe, and the U.S. Secretary of 
#Commerce on behalf of the United States.  All rights reserved.
_database_code_ICSD                419292
_audit_creation_date               2009/02/01
_audit_update_record               2013/08/01
_chemical_name_systematic          'Potassium Diuranyl Triphosphate'
_chemical_formula_structural       'K ((U O2)2 (P3 O10))'
_chemical_formula_sum              'K1 O14 P3 U2'
_publ_section_title
;
Complex topology of uranyl polyphosphate frameworks: Crystal 
structure of alpha-, beta- K [(U O2) (P3 O9)] and K [(U O2)2 (P3 
O10)]
;
loop_
_citation_id
_citation_journal_abbrev
_citation_year
_citation_journal_volume
_citation_journal_issue
_citation_page_first
_citation_page_last
_citation_journal_id_ASTM
primary 'Zeitschrift fuer Anorganische und Allgemeine Chemie (1950) (DE)'
 2008 634 9 1527 1532 ZAACAB
_publ_author_name
;
Alekseev, E.V.;Krivovichev, S.V.;Depmeier, W.;Knorr, K.
;
_cell_length_a                     10.6320(10)
_cell_length_b                     10.3250(10)
_cell_length_c                     11.2090(10)
_cell_angle_alpha                  90.00
_cell_angle_beta                   90.00
_cell_angle_gamma                  90.00
_cell_volume                       1230.47
_cell_formula_units_Z              4
_symmetry_space_group_name_H-M     'P b c n'
_symmetry_Int_Tables_number        60
_refine_ls_R_factor_all            .0364
loop_
_symmetry_equiv_pos_site_id
_symmetry_equiv_pos_as_xyz
  1	'x, -y, z+.5'
  2	'-x+.5, y+.5, z'
  3	'x+.5, y+.5, -z+.5'
  4	'-x, -y, -z'
  5	'-x, y, -z+.5'
  6	'x+.5, -y+.5, -z'
  7	'-x+.5, -y+.5, z+.5'
  8	'x, y, z'
loop_
_atom_type_symbol
_atom_type_oxidation_number
K1+	1
O2-	-2
P5+	5
U6+	6
loop_
_atom_site_label
_atom_site_type_symbol
_atom_site_symmetry_multiplicity
_atom_site_Wyckoff_symbol
_atom_site_fract_x
_atom_site_fract_y
_atom_site_fract_z
_atom_site_occupancy
_atom_site_attached_hydrogens
_atom_site_U_iso_or_equiv
U1 U6+ 8 d 0.30590(3) 0.17580(3) 0.40444(2) 1 0 0.02012(12) 
P1 P5+ 4 c 0.5000 0.4205(3) 0.2500 1 0 0.0215(6) 
P2 P5+ 8 d 0.31410(18) 0.4280(2) 0.6183(2) 1 0 0.0210(4) 
K1 K1+ 4 c 0.5000 -0.1103(3) 0.2500 1 0 0.0479(8) 
O1 O2- 8 d 0.3937(6) 0.3472(6) 0.3017(6) 1 0 0.0320(14) 
O2 O2- 8 d 0.4563(7) 0.1032(7) 0.4091(5) 1 0 0.0346(15) 
O3 O2- 8 d 0.3447(6) 0.2932(6) 0.5780(5) 1 0 0.0254(12) 
O4 O2- 8 d 0.1560(7) 0.2484(6) 0.3937(5) 1 0 0.0308(14) 
O5 O2- 8 d 0.2669(5) 0.0685(5) 0.2284(5) 1 0 0.0274(13) 
O6 O2- 8 d -0.0494(7) 0.0140(7) 0.3477(7) 1 0 0.047(2) 
O7 O2- 8 d 0.2339(7) 0.0129(6) 0.5206(6) 1 0 0.0428(17) 

loop_
_atom_site_aniso_label
_atom_site_aniso_type_symbol
_atom_site_aniso_U_11
_atom_site_aniso_U_22
_atom_site_aniso_U_33
_atom_site_aniso_U_12
_atom_site_aniso_U_13
_atom_site_aniso_U_23
U1 U6+ 0.0229(2) 0.01745(19) 0.0200(2) -0.00086(9) -0.00176(9) 0.00137(9)
P1 P5+ 0.0221(12) 0.0185(12) 0.0238(13) 0.000 0.0008(10) 0.000
P2 P5+ 0.0264(10) 0.0173(9) 0.0194(9) -0.0003(7) -0.0010(7) -0.0008(7)
K1 K1+ 0.0524(18) 0.0308(14) 0.061(2) 0.000 0.0277(15) 0.000
O1 O2- 0.033(3) 0.026(3) 0.037(4) -0.009(2) 0.006(3) 0.007(2)
O2 O2- 0.035(3) 0.030(3) 0.039(4) 0.009(3) -0.007(2) -0.001(2)
O3 O2- 0.033(3) 0.019(3) 0.024(3) 0.004(3) -0.005(2) -0.001(2)
O4 O2- 0.028(3) 0.026(3) 0.038(4) 0.003(3) -0.001(2) -0.002(2)
O5 O2- 0.034(3) 0.026(3) 0.022(3) 0.001(3) -0.003(2) -0.002(2)
O6 O2- 0.028(3) 0.052(4) 0.062(5) 0.012(3) -0.012(3) -0.039(4)
O7 O2- 0.072(5) 0.026(3) 0.031(4) -0.017(3) -0.002(3) 0.011(3)
#End of data_419292-ICSD


