data_165699-ICSD
#?2014 by Fachinformationszentrum Karlsruhe, and the U.S. Secretary of 
#Commerce on behalf of the United States.  All rights reserved.
_database_code_ICSD                165699
_audit_creation_date               2010/02/01
_chemical_name_systematic          'Calcium Manganate(IV)'
_chemical_formula_structural       'Ca (Mn O3)'
_chemical_formula_sum              'Ca1 Mn1 O3'
_publ_section_title
;
X-ray absorption near edge structure and crystallographic studies of 
the mixed valence oxides Ca Ru1-x Mnx O3
;
loop_
_citation_id
_citation_journal_abbrev
_citation_year
_citation_journal_volume
_citation_journal_issue
_citation_page_first
_citation_page_last
_citation_journal_id_ASTM
primary 'Chemistry of Materials' 2009 21 18 4203 4209 CMATEX
_publ_author_name
;
Zhou Qing Di;Kennedy, B.J.;Zhang Zhao Ming;Jang Ling Yun;Aitken, J.B.
;
_cell_length_a                     5.26750(1)
_cell_length_b                     5.28276(1)
_cell_length_c                     7.45752(1)
_cell_angle_alpha                  90.
_cell_angle_beta                   90.
_cell_angle_gamma                  90.
_cell_volume                       207.52
_cell_formula_units_Z              4
_symmetry_space_group_name_H-M     'P b n m'
_symmetry_Int_Tables_number        62
_refine_ls_R_factor_all            .0314
loop_
_symmetry_equiv_pos_site_id
_symmetry_equiv_pos_as_xyz
  1	'-x+.5, y+.5, z'
  2	'x, y, -z+.5'
  3	'x+.5, -y+.5, z+.5'
  4	'-x, -y, -z'
  5	'x+.5, -y+.5, -z'
  6	'-x, -y, z+.5'
  7	'-x+.5, y+.5, -z+.5'
  8	'x, y, z'
loop_
_atom_type_symbol
_atom_type_oxidation_number
Ca2+	2
Mn4+	4
O2-	-2
loop_
_atom_site_label
_atom_site_type_symbol
_atom_site_symmetry_multiplicity
_atom_site_Wyckoff_symbol
_atom_site_fract_x
_atom_site_fract_y
_atom_site_fract_z
_atom_site_occupancy
_atom_site_attached_hydrogens
_atom_site_B_iso_or_equiv
Ca1 Ca2+ 4 c 0.0056(1) 0.5323(1) 0.250 1. 0 0.38(1) 
Mn1 Mn4+ 4 a 0 0 0 1. 0 0.15(1) 
O1 O2- 4 c -0.0690(3) -0.0108(2) 0.250 1. 0 0.37(3) 
O2 O2- 8 d 0.2135(2) 0.2878(2) 0.0348(2) 1. 0 0.30(2) 

#End of data_165699-ICSD


