data_185934-ICSD
#?2014 by Fachinformationszentrum Karlsruhe, and the U.S. Secretary of 
#Commerce on behalf of the United States.  All rights reserved.
_database_code_ICSD                185934
_audit_creation_date               2013/02/01
_chemical_name_systematic
;
Dipotassium Strontium Vanadopentaborate (2/1/1/5/12)
;
_chemical_formula_structural       'K2 Sr (V B5 O12)'
_chemical_formula_sum              'B5 K2 O12 Sr1 V1'
_publ_section_title
;
A new noncentrosymmetric vanadoborate : synthesis, crystal structure 
and characterization of K2 Sr V B5 O12
;
loop_
_citation_id
_citation_journal_abbrev
_citation_year
_citation_journal_volume
_citation_page_first
_citation_page_last
_citation_journal_id_ASTM
primary 'Dalton Transactions' 2012 41 9202 9208 DTARAF
_publ_author_name
;
Chen Songjie;Pan Shilie;Zhao Wenwu;Yu Hongwei;Wu Hongping;Yang 
Zhihua;Yang Yun
;
_cell_length_a                     6.618(3)
_cell_length_b                     8.378(4)
_cell_length_c                     9.974(5)
_cell_angle_alpha                  90.00
_cell_angle_beta                   99.789(6)
_cell_angle_gamma                  90.00
_cell_volume                       544.96
_cell_formula_units_Z              2
_symmetry_space_group_name_H-M     'P 1 21 1'
_symmetry_Int_Tables_number        4
_refine_ls_R_factor_all            .0442
loop_
_symmetry_equiv_pos_site_id
_symmetry_equiv_pos_as_xyz
  1	'-x, y+.5, -z'
  2	'x, y, z'
loop_
_atom_type_symbol
_atom_type_oxidation_number
B3+	3
K1+	1
O2-	-2
Sr2+	2
V5+	5
loop_
_atom_site_label
_atom_site_type_symbol
_atom_site_symmetry_multiplicity
_atom_site_Wyckoff_symbol
_atom_site_fract_x
_atom_site_fract_y
_atom_site_fract_z
_atom_site_occupancy
_atom_site_attached_hydrogens
_atom_site_U_iso_or_equiv
Sr1 Sr2+ 2 a 0.92852(11) 1.31108(10) 0.97271(8) 1 0 0.0176(2) 
V1 V5+ 2 a 0.8393(2) 1.0990(2) 0.69287(17) 1 0 0.0200(4) 
K1 K1+ 2 a 0.6021(3) 0.8425(3) 0.4032(2) 1 0 0.0317(7) 
K2 K1+ 2 a 0.3323(3) 0.9291(3) 0.7406(3) 1 0 0.0457(8) 
B1 B3+ 2 a 0.8429(14) 1.0659(12) 1.2009(11) 1 0 0.014(2) 
B2 B3+ 2 a 0.6209(15) 0.8563(12) 1.0702(12) 1 0 0.017(3) 
B3 B3+ 2 a 0.4796(14) 1.1222(12) 1.0951(11) 1 0 0.016(2) 
B4 B3+ 2 a 0.7788(16) 0.6192(14) 0.7434(10) 1 0 0.020(3) 
B5 B3+ 2 a 1.0232(15) 1.1055(14) 0.4368(11) 1 0 0.017(2) 
O1 O2- 2 a 0.9533(10) 1.0178(9) 0.8421(7) 1 0 0.0244(18) 
O2 O2- 2 a 1.0462(9) 1.0985(9) 1.1631(6) 1 0 0.0185(15) 
O3 O2- 2 a 0.7919(8) 0.6219(8) 0.6052(6) 1 0 0.0221(16) 
O4 O2- 2 a 1.0282(8) 1.1015(9) 0.5743(6) 1 0 0.0249(16) 
O5 O2- 2 a 0.7691(9) 1.2825(9) 0.7281(6) 1 0 0.0318(18) 
O6 O2- 2 a 0.8497(8) 1.0923(8) 0.3473(6) 1 0 0.0184(14) 
O7 O2- 2 a 0.6949(8) 1.1678(7) 1.1156(6) 1 0 0.0125(14) 
O8 O2- 2 a 0.6326(10) 1.0038(9) 0.6248(7) 1 0 0.039(2) 
O9 O2- 2 a 0.7913(8) 0.8989(7) 1.1670(6) 1 0 0.0153(14) 
O10 O2- 2 a 0.4538(8) 0.9520(7) 1.0424(6) 1 0 0.0171(15) 
O11 O2- 2 a 0.5913(8) 0.6342(7) 0.7753(6) 1 0 0.0202(16) 
O12 O2- 2 a 0.6459(9) 0.7166(8) 1.0096(7) 1 0 0.0224(17) 

loop_
_atom_site_aniso_label
_atom_site_aniso_type_symbol
_atom_site_aniso_U_11
_atom_site_aniso_U_22
_atom_site_aniso_U_33
_atom_site_aniso_U_12
_atom_site_aniso_U_13
_atom_site_aniso_U_23
Sr1 Sr2+ 0.0189(4) 0.0203(5) 0.0136(5) -0.0018(5) 0.0032(3) 0.0004(5)
V1 V5+ 0.0212(9) 0.0244(10) 0.0147(11) -0.0008(8) 0.0038(7) 0.0014(9)
K1 K1+ 0.0328(12) 0.0396(18) 0.0211(14) -0.0070(11) 0.0002(9) 0.0009(11)
K2 K1+ 0.0306(13) 0.0513(18) 0.057(2) 0.0060(12) 0.0134(12) 0.0306(15)
B1 B3+ 0.013(5) 0.014(6) 0.016(6) 0.005(4) 0.006(4) 0.005(5)
B2 B3+ 0.018(5) 0.016(7) 0.017(7) -0.006(4) -0.001(4) 0.004(5)
B3 B3+ 0.012(5) 0.012(6) 0.024(7) 0.002(4) 0.004(4) -0.009(5)
B4 B3+ 0.025(6) 0.026(7) 0.006(6) -0.001(5) -0.005(4) -0.001(5)
O1 O2- 0.027(4) 0.031(4) 0.014(4) 0.006(3) -0.002(3) 0.006(4)
O2 O2- 0.022(4) 0.024(4) 0.009(4) -0.003(3) 0.003(3) -0.005(3)
O3 O2- 0.017(3) 0.038(4) 0.010(4) 0.002(3) -0.002(3) 0.010(3)
O4 O2- 0.025(4) 0.033(4) 0.017(4) -0.004(3) 0.006(3) 0.004(4)
O5 O2- 0.037(4) 0.037(5) 0.019(4) 0.011(3) -0.003(3) 0.004(4)
O6 O2- 0.019(3) 0.023(4) 0.014(4) -0.001(3) 0.005(2) -0.002(3)
O7 O2- 0.014(3) 0.019(4) 0.006(4) 0.002(3) 0.005(2) 0.004(3)
O8 O2- 0.039(5) 0.051(5) 0.027(5) -0.016(4) 0.009(3) 0.000(4)
O9 O2- 0.015(3) 0.013(3) 0.016(4) -0.002(3) -0.004(3) -0.002(3)
O10 O2- 0.010(3) 0.013(4) 0.027(4) 0.001(3) 0.000(3) -0.005(3)
O11 O2- 0.019(3) 0.024(4) 0.019(4) 0.002(3) 0.005(3) 0.003(3)
O12 O2- 0.023(4) 0.021(4) 0.021(4) 0.004(3) -0.002(3) -0.006(3)
#End of data_185934-ICSD


