data_50167-ICSD
#?2014 by Fachinformationszentrum Karlsruhe, and the U.S. Secretary of 
#Commerce on behalf of the United States.  All rights reserved.
_database_code_ICSD                50167
_audit_creation_date               1999/01/19
_chemical_name_systematic          'Dipotassium Tetraamidozincate'
_chemical_formula_structural       'K2 (Zn (N H2)4)'
_chemical_formula_sum              'H8 K2 N4 Zn1'
_publ_section_title
;
Protonlagen bei Kaliumtetraamidozinkat, K2 Zn (N H2)4
;
loop_
_citation_id
_citation_journal_abbrev
_citation_year
_citation_journal_volume
_citation_page_first
_citation_page_last
_citation_journal_id_ASTM
primary 'Zeitschrift fuer Anorganische und Allgemeine Chemie (1950) (DE)'
 1997 623 1103 1107 ZAACAB
_publ_author_name                  'Froehling, B.;Jacobs, H.'
_cell_length_a                     6.730(1)
_cell_length_b                     7.438(1)
_cell_length_c                     8.019(2)
_cell_angle_alpha                  72.03(2)
_cell_angle_beta                   84.45(2)
_cell_angle_gamma                  63.82(1)
_cell_volume                       342.29
_cell_formula_units_Z              2
_symmetry_space_group_name_H-M     'P -1'
_symmetry_Int_Tables_number        2
_refine_ls_R_factor_all            .032
loop_
_symmetry_equiv_pos_site_id
_symmetry_equiv_pos_as_xyz
  1	'-x, -y, -z'
  2	'x, y, z'
loop_
_atom_type_symbol
_atom_type_oxidation_number
H1+	1
K1+	1
N3-	-3
Zn2+	2
loop_
_atom_site_label
_atom_site_type_symbol
_atom_site_symmetry_multiplicity
_atom_site_Wyckoff_symbol
_atom_site_fract_x
_atom_site_fract_y
_atom_site_fract_z
_atom_site_occupancy
_atom_site_attached_hydrogens
_atom_site_B_iso_or_equiv
Zn1 Zn2+ 2 i 0.21557(6) 0.89988(6) 0.7679(5) 1. 0 0 
K1 K1+ 2 i 0.2466(1) 0.4998(1) 0.1361(1) 1. 0 0 
K2 K1+ 2 i 0.3047(1) 0.4264(1) 0.68861(1) 1. 0 0 
N1 N3- 2 i 0.0008(5) 0.7618(5) 0.8133(4) 1. 0 0 
N2 N3- 2 i 0.3992(5) 0.8089(5) 0.9894(4) 1. 0 0 
N3 N3- 2 i 0.4258(5) 0.7713(5) 0.5845(4) 1. 0 0 
N4 N3- 2 i 0.0408(5) 0.2192(5) 0.6652(5) 1. 0 0 
H1 H1+ 2 i 0.07(1) 0.212(9) 0.075(8) 1. 0 5.(1) 
H2 H1+ 2 i 0.088(9) 0.172(8) 0.289(7) 1. 0 4.(1) 
H3 H1+ 2 i 0.467(9) 0.897(8) 0.951(7) 1. 0 4.(1) 
H4 H1+ 2 i 0.30(1) 0.885(9) 0.048(8) 1. 0 5.(1) 
H5 H1+ 2 i 0.331(9) 0.838(8) 0.486(7) 1. 0 4.(1) 
H6 H1+ 2 i 0.50(1) 0.865(9) 0.531(9) 1. 0 6.(2) 
H7 H1+ 2 i 0.06(1) 0.800(9) 0.362(8) 1. 0 5.(1) 
H8 H1+ 2 i 0.07(1) 0.248(9) 0.565(8) 1. 0 5.(1) 

loop_
_atom_site_aniso_label
_atom_site_aniso_type_symbol
_atom_site_aniso_U_11
_atom_site_aniso_U_22
_atom_site_aniso_U_33
_atom_site_aniso_U_12
_atom_site_aniso_U_13
_atom_site_aniso_U_23
Zn1 Zn2+ 0.0209(2) 0.0207(2) 0.0294(2) -.0096(1) 0.0029(1) -.0102(1)
K1 K1+ 0.0237(3) 0.0324(3) 0.0315(4) -.0150(3) 0.0049(3) -.0115(3)
K2 K1+ 0.0265(3) 0.0338(4) 0.0351(4) -.0148(3) 0.0058(3) -.0162(3)
N1 N3- 0.0024(1) 0.0026(1) 0.0035(2) -.0013(1) 0.0003(1) -.0011(1)
N2 N3- 0.0026(1) 0.0027(1) 0.0032(1) -.0013(1) 0.0001(1) -.0013(1)
N3 N3- 0.0025(1) 0.0028(1) 0.0030(1) -.0012(1) 0.0006(1) -.0012(1)
N4 N3- 0.0026(1) 0.0024(1) 0.0035(2) -.0011(1) 0.0001(1) -.0010(1)
#End of data_50167-ICSD


