data_65181-ICSD
#?2014 by Fachinformationszentrum Karlsruhe, and the U.S. Secretary of 
#Commerce on behalf of the United States.  All rights reserved.
_database_code_ICSD                65181
_audit_creation_date               1989/12/04
_audit_update_record               2012/02/01
_chemical_name_systematic
;
Silver Palladium Dizirconium Fluoride
;
_chemical_formula_structural       'Ag Pd Zr2 F11'
_chemical_formula_sum              'Ag1 F11 Pd1 Zr2'
_publ_section_title
;
Neue komplexe Fluoride mit Ag2+ und Pd2+: Na M(II) Zr2 F11 (M(II) = 
Ag, Pd) und Ag Pd Zr2 F11
;
loop_
_citation_id
_citation_journal_abbrev
_citation_year
_citation_journal_volume
_citation_page_first
_citation_page_last
_citation_journal_id_ASTM
primary 'Zeitschrift fuer Anorganische und Allgemeine Chemie (1950) (DE)'
 1987 553 205 211 ZAACAB
_publ_author_name                  'Mueller, B.G.'
_cell_length_a                     9.351(5)
_cell_length_b                     6.991(4)
_cell_length_c                     7.801(4)
_cell_angle_alpha                  90.
_cell_angle_beta                   115.73(4)
_cell_angle_gamma                  90.
_cell_volume                       459.41
_cell_formula_units_Z              2
_symmetry_space_group_name_H-M     'C 1 2/m 1'
_symmetry_Int_Tables_number        12
_refine_ls_R_factor_all            .051
loop_
_symmetry_equiv_pos_site_id
_symmetry_equiv_pos_as_xyz
  1	'-x, y, -z'
  2	'-x, -y, -z'
  3	'x, -y, z'
  4	'x, y, z'
  5	'-x+.5, y+.5, -z'
  6	'-x+.5, -y+.5, -z'
  7	'x+.5, -y+.5, z'
  8	'x+.5, y+.5, z'
loop_
_atom_type_symbol
_atom_type_oxidation_number
Ag1+	1
F1-	-1
Pd2+	2
Zr4+	4
loop_
_atom_site_label
_atom_site_type_symbol
_atom_site_symmetry_multiplicity
_atom_site_Wyckoff_symbol
_atom_site_fract_x
_atom_site_fract_y
_atom_site_fract_z
_atom_site_occupancy
_atom_site_attached_hydrogens
Ag1 Ag1+ 2 a 0 0 0 1. 0 
Pd1 Pd2+ 2 c 0 0 0.5 1. 0 
Zr1 Zr4+ 4 i 0.5068(1) 0 0.2363(1) 1. 0 
F1 F1- 2 d 0 0.5 0.5 1. 0 
F2 F1- 4 g 0 0.3369(6) 0 1. 0 
F3 F1- 4 i 0.2556(6) 0 0.6543(7) 1. 0 
F4 F1- 4 i 0.2777(6) 0 0.1118(9) 1. 0 
F5 F1- 8 j 0.0165(4) 0.2165(4) 0.3098(4) 1. 0 

loop_
_atom_site_aniso_label
_atom_site_aniso_type_symbol
_atom_site_aniso_U_11
_atom_site_aniso_U_22
_atom_site_aniso_U_33
_atom_site_aniso_U_12
_atom_site_aniso_U_13
_atom_site_aniso_U_23
Ag1 Ag1+ 0.0143(5) 0.0077(4) 0.0431(6) 0 0.0110(5) 0
Pd1 Pd2+ 0.0075(4) 0.0052(4) 0.0083(4) 0 0.0036(4) 0
Zr1 Zr4+ 0.0093(3) 0.0063(3) 0.0073(4) 0 0.0043(3) 0
F1 F1- 0.0779(30) 0.0137(25) 0.0245(23) 0 0.0353(22) 0
F2 F1- 0.0498(23) 0.0044(18) 0.0160(18) 0 0.0181(17) 0
F3 F1- 0.0068(17) 0.0308(22) 0.0289(21) 0 0.0013(16) 0
F4 F1- 0.0135(22) 0.0597(28) 0.0536(26) 0 0.0081(20) 0
F5 F1- 0.0389(17) 0.0083(14) 0.0173(13) -.0017(13) 0.0154(13) 0.0023(11)
#End of data_65181-ICSD


