data_188674-ICSD
#?2014 by Fachinformationszentrum Karlsruhe, and the U.S. Secretary of 
#Commerce on behalf of the United States.  All rights reserved.
_database_code_ICSD                188674
_audit_creation_date               2014/02/01
_chemical_name_systematic
;
Potassium Tetrakis(molybdenum Dioxide) Arsenate Trioxide
;
_chemical_formula_structural       'K (Mo O2)4 O3 (As O4)'
_chemical_formula_sum              'As1 K1 Mo4 O15'
_publ_section_title                'K (Mo O2)4 O3 (As O4)'
loop_
_citation_id
_citation_journal_abbrev
_citation_year
_citation_journal_volume
_citation_journal_issue
_citation_page_first
_citation_page_last
_citation_journal_id_ASTM
primary 'Acta Crystallographica, Section E. Structure Reports Online'
 2013 69 6 i37 i37 ACSEBH
_publ_author_name
;
Raja Jouini;Mohamed Faouzi Zid;Ahmed Driss
;
_cell_length_a                     8.0442(8)
_cell_length_b                     11.9167(9)
_cell_length_c                     12.6799(10)
_cell_angle_alpha                  90.00
_cell_angle_beta                   90.00
_cell_angle_gamma                  90.00
_cell_volume                       1215.5
_cell_formula_units_Z              4
_symmetry_space_group_name_H-M     'P 21 21 21'
_symmetry_Int_Tables_number        19
_refine_ls_R_factor_all            .0177
loop_
_symmetry_equiv_pos_site_id
_symmetry_equiv_pos_as_xyz
  1	'-x, y+.5, -z+.5'
  2	'x+.5, -y+.5, -z'
  3	'-x+.5, -y, z+.5'
  4	'x, y, z'
loop_
_atom_type_symbol
_atom_type_oxidation_number
As5+	5
K1+	1
Mo6+	6
O2-	-2
loop_
_atom_site_label
_atom_site_type_symbol
_atom_site_symmetry_multiplicity
_atom_site_Wyckoff_symbol
_atom_site_fract_x
_atom_site_fract_y
_atom_site_fract_z
_atom_site_occupancy
_atom_site_attached_hydrogens
_atom_site_U_iso_or_equiv
Mo1 Mo6+ 4 a 0.99047(5) 0.41688(3) 0.61974(3) 1 0 0.01100(9) 
Mo2 Mo6+ 4 a 0.78403(5) 0.64073(3) 0.90494(3) 1 0 0.00936(9) 
Mo3 Mo6+ 4 a 0.19469(5) 0.63578(3) 0.92886(3) 1 0 0.00829(9) 
Mo4 Mo6+ 4 a 0.46142(5) 0.71544(3) 0.68083(3) 1 0 0.01289(10) 
As1 As5+ 4 a 0.56223(6) 0.43948(3) 0.65276(3) 1 0 0.00879(10) 
K1 K1+ 4 a 0.9351(2) 0.75546(14) 0.60338(12) 1 0 0.0474(4) 
O1 O2- 4 a 0.7659(5) 0.5009(3) 0.9106(3) 1 0 0.0236(8) 
O2 O2- 4 a 0.4420(4) 0.5521(2) 0.6643(3) 1 0 0.0155(7) 
O3 O2- 4 a 0.3320(4) 0.6807(3) 0.8313(2) 1 0 0.0146(7) 
O4 O2- 4 a 0.6627(4) 0.6759(3) 0.7968(3) 1 0 0.0187(8) 
O5 O2- 4 a 0.4982(6) 0.8616(3) 0.7455(3) 1 0 0.0273(9) 
O6 O2- 4 a 0.7604(5) 0.4761(3) 0.6609(3) 1 0 0.0313(10) 
O7 O2- 4 a 0.2779(6) 0.7443(3) 0.6214(3) 1 0 0.0305(10) 
O8 O2- 4 a 0.6055(6) 0.7332(3) 0.5839(3) 1 0 0.0330(10) 
O9 O2- 4 a 0.2086(5) 0.4954(3) 0.9257(3) 1 0 0.0200(8) 
O10 O2- 4 a 0.9963(4) 0.6679(2) 0.8464(2) 1 0 0.0136(6) 
O11 O2- 4 a 0.8536(4) 0.3194(2) 0.5245(2) 1 0 0.0099(6) 
O12 O2- 4 a 0.1790(4) 0.3351(2) 0.5557(2) 1 0 0.0100(6) 
O13 O2- 4 a 0.5239(4) 0.3741(2) 0.5374(2) 1 0 0.0103(6) 
O14 O2- 4 a 0.0441(5) 0.3976(4) 0.7460(3) 1 0 0.0309(10) 
O15 O2- 4 a 0.0494(5) 0.5469(3) 0.5840(4) 1 0 0.0347(10) 

loop_
_atom_site_aniso_label
_atom_site_aniso_type_symbol
_atom_site_aniso_U_11
_atom_site_aniso_U_22
_atom_site_aniso_U_33
_atom_site_aniso_U_12
_atom_site_aniso_U_13
_atom_site_aniso_U_23
Mo1 Mo6+ 0.00734(18) 0.01387(16) 0.01180(17) -0.00106(15) 0.00059(14) 
-0.00650(13)
Mo2 Mo6+ 0.00731(17) 0.01417(17) 0.00660(17) -0.00085(15) -0.00026(14) 
-0.00219(13)
Mo3 Mo6+ 0.00694(17) 0.01092(16) 0.00703(16) 0.00121(14) 0.00010(13) 
-0.00095(13)
Mo4 Mo6+ 0.0238(2) 0.00954(16) 0.00534(16) 0.00046(15) -0.00095(16) 
-0.00032(12)
As1 As5+ 0.0092(2) 0.01012(18) 0.00711(19) 0.00226(17) -0.00031(17) 
-0.00295(15)
K1 K1+ 0.0510(9) 0.0557(8) 0.0355(7) 0.0067(8) 0.0015(8) -0.0129(7)
O1 O2- 0.032(2) 0.0155(16) 0.0235(19) -0.0039(15) 0.0019(17) -0.0053(13)
O2 O2- 0.0163(16) 0.0096(13) 0.0206(16) 0.0036(13) 0.0004(15) -0.0043(12)
O3 O2- 0.0107(16) 0.0233(15) 0.0098(14) -0.0029(13) 0.0028(13) -0.0026(12)
O4 O2- 0.0123(18) 0.0337(19) 0.0100(15) 0.0033(15) -0.0020(13) -0.0028(13)
O5 O2- 0.054(3) 0.0143(14) 0.0135(15) -0.006(2) 0.0064(17) -0.0017(12)
O6 O2- 0.0116(18) 0.044(2) 0.038(2) 0.0011(17) 0.0001(17) -0.0319(18)
O7 O2- 0.039(3) 0.0190(16) 0.033(2) 0.0086(17) -0.020(2) 0.0029(16)
O8 O2- 0.050(3) 0.029(2) 0.0200(18) -0.0101(19) 0.015(2) 0.0005(15)
O9 O2- 0.0235(19) 0.0150(15) 0.0214(18) 0.0024(15) -0.0081(17) -0.0046(13)
O10 O2- 0.0103(15) 0.0262(15) 0.0042(13) 0.0015(14) -0.0028(13) -0.0014(11)
O11 O2- 0.0085(15) 0.0130(14) 0.0082(14) -0.0021(12) -0.0028(12) 
-0.0010(11)
O12 O2- 0.0074(15) 0.0102(13) 0.0123(14) 0.0006(11) 0.0012(12) -0.0019(11)
O13 O2- 0.0084(15) 0.0158(13) 0.0066(13) -0.0002(12) -0.0003(12) 
-0.0050(11)
O14 O2- 0.024(2) 0.053(2) 0.0156(16) 0.0141(19) -0.0036(16) -0.0148(16)
O15 O2- 0.028(2) 0.0197(17) 0.057(3) -0.0052(17) 0.021(2) -0.0103(17)
#End of data_188674-ICSD


