data_80893-ICSD
#?2014 by Fachinformationszentrum Karlsruhe, and the U.S. Secretary of 
#Commerce on behalf of the United States.  All rights reserved.
_database_code_ICSD                80893
_audit_creation_date               1997/05/13
_chemical_name_systematic
;
Potassium Gallium Fluoride Phosphate
;
_chemical_formula_structural       'K Ga F (P O4)'
_chemical_formula_sum              'F1 Ga1 K1 O4 P1'
_publ_section_title
;
Substitution chemistry of gallium for titanium in nonlinear optical K 
Ti O P O4: syntheses and single-crystal structures of K Ga F1-d (O 
H)d P O4 (d=0.3) and K Ga0.5 Ge0.5 (F, O H)0.5 O0.5 P O4
;
loop_
_citation_id
_citation_journal_abbrev
_citation_year
_citation_journal_volume
_citation_page_first
_citation_page_last
_citation_journal_id_ASTM
primary 'Chemistry of Materials' 1995 7 1849 1856 CMATEX
_publ_author_name
;
Harrison, W.T.A.;Phillips, M.L.F.;Stucky, G.D.
;
_cell_length_a                     12.717(2)
_cell_length_b                     6.3021(8)
_cell_length_c                     10.431(2)
_cell_angle_alpha                  90.
_cell_angle_beta                   90.
_cell_angle_gamma                  90.
_cell_volume                       835.98
_cell_formula_units_Z              8
_symmetry_space_group_name_H-M     'P n a 21'
_symmetry_Int_Tables_number        33
_refine_ls_R_factor_all            .033
loop_
_symmetry_equiv_pos_site_id
_symmetry_equiv_pos_as_xyz
  1	'x+.5, -y+.5, z'
  2	'-x+.5, y+.5, z+.5'
  3	'-x, -y, z+.5'
  4	'x, y, z'
loop_
_atom_type_symbol
_atom_type_oxidation_number
F1-	-1
Ga3+	3
K1+	1
O2-	-2
P5+	5
loop_
_atom_site_label
_atom_site_type_symbol
_atom_site_symmetry_multiplicity
_atom_site_Wyckoff_symbol
_atom_site_fract_x
_atom_site_fract_y
_atom_site_fract_z
_atom_site_occupancy
_atom_site_attached_hydrogens
_atom_site_U_iso_or_equiv
K1 K1+ 4 a 0.3814(1) 0.7766(2) 0.3192(2) 1. 0 0.0223 
K2 K1+ 4 a 0.1042(1) 0.6926(3) 0.0744(2) 1. 0 0.0227 
Ga1 Ga3+ 4 a 0.38786(3) 0.49584(8) 0.0146(2) 1. 0 0.0085 
Ga2 Ga3+ 4 a 0.24667(4) 0.25194(9) 0.2637(2) 1. 0 0.0085 
P1 P5+ 4 a 0.49995(8) 0.3275(2) 0.2643(2) 1. 0 0.0086 
P2 P5+ 4 a 0.18362(8) 0.5006(2) 0.5149(2) 1. 0 0.0085 
O1 O2- 4 a 0.4860(4) 0.4818(8) 0.1514(5) 1. 0 0.0121 
O2 O2- 4 a 0.5110(4) 0.4678(9) 0.3835(4) 1. 0 0.0109 
O3 O2- 4 a 0.4007(3) 0.1905(6) 0.2810(5) 1. 0 0.0113 
O4 O2- 4 a 0.5963(3) 0.1857(6) 0.2448(4) 1. 0 0.0124 
O5 O2- 4 a 0.1140(3) 0.3094(6) 0.5454(4) 1. 0 0.0124 
O6 O2- 4 a 0.1139(3) 0.6929(6) 0.4858(5) 1. 0 0.013 
O7 O2- 4 a 0.2573(3) 0.5432(8) 0.6311(5) 1. 0 0.012 
O8 O2- 4 a 0.2571(3) 0.4538(8) 0.4014(5) 1. 0 0.0125 
F1 F1- 4 a 0.2729(4) 0.4788(6) 0.1422(4) 1. 0 0.0127 
F2 F1- 4 a 0.2282(3) 0.0272(7) 0.3920(4) 1. 0 0.0114 

#End of data_80893-ICSD


