data_14097-ICSD
#?2014 by Fachinformationszentrum Karlsruhe, and the U.S. Secretary of 
#Commerce on behalf of the United States.  All rights reserved.
_database_code_ICSD                14097
_audit_creation_date               1980/12/31
_audit_update_record               2008/08/01
_chemical_name_systematic          'Barium Zinc Tetrathiostannate'
_chemical_formula_structural       'Ba Zn (Sn S4)'
_chemical_formula_sum              'Ba1 S4 Sn1 Zn1'
_publ_section_title
;
Darstellung, Kristallstrukturdaten und Eigenschaften der quaternaeren 
Thiostannate(IV) Ba Zn Sn S4 und Ba Mn Sn S4
;
loop_
_citation_id
_citation_journal_abbrev
_citation_year
_citation_journal_volume
_citation_page_first
_citation_page_last
_citation_journal_id_ASTM
primary
;
Zeitschrift fuer Naturforschung, Teil B. Anorganische Chemie, 
Organische Chemie (33,1978-41,1986)
;
 1980 35 509 510 ZNBAD2
_publ_author_name                  'Teske, C.L.'
_cell_length_a                     21.964
_cell_length_b                     21.504
_cell_length_c                     12.701
_cell_angle_alpha                  90.
_cell_angle_beta                   90.
_cell_angle_gamma                  90.
_cell_volume                       5998.86
_cell_formula_units_Z              32
_symmetry_space_group_name_H-M     'F d d 2'
_symmetry_Int_Tables_number        43
_refine_ls_R_factor_all            .09
loop_
_symmetry_equiv_pos_site_id
_symmetry_equiv_pos_as_xyz
  1	'x+.25, -y+.25, z+.25'
  2	'-x+.25, y+.25, z+.25'
  3	'-x, -y, z'
  4	'x, y, z'
  5	'x+.25, -y+.75, z+.75'
  6	'x+.75, -y+.25, z+.75'
  7	'x+.75, -y+.75, z+.25'
  8	'-x+.25, y+.75, z+.75'
  9	'-x+.75, y+.25, z+.75'
 10	'-x+.75, y+.75, z+.25'
 11	'-x, -y+.5, z+.5'
 12	'-x+.5, -y, z+.5'
 13	'-x+.5, -y+.5, z'
 14	'x, y+.5, z+.5'
 15	'x+.5, y, z+.5'
 16	'x+.5, y+.5, z'
loop_
_atom_type_symbol
_atom_type_oxidation_number
Ba2+	2
S2-	-2
Sn4+	4
Zn2+	2
loop_
_atom_site_label
_atom_site_type_symbol
_atom_site_symmetry_multiplicity
_atom_site_Wyckoff_symbol
_atom_site_fract_x
_atom_site_fract_y
_atom_site_fract_z
_atom_site_occupancy
_atom_site_attached_hydrogens
Ba1 Ba2+ 8 a 0 0 0 1. 0 
Ba2 Ba2+ 8 a 0 0 0.4976 1. 0 
Ba3 Ba2+ 16 b 0.0017 0.2505 0.2526 1. 0 
Zn1 Zn2+ 16 b 0.1249 0.0734 0.2135 1. 0 
Zn2 Zn2+ 16 b 0.1249 0.6106 0.2479 1. 0 
Sn1 Sn4+ 16 b 0.3758 0.6128 0.2515 1. 0 
Sn2 Sn4+ 16 b 0.1252 0.4301 0.2906 1. 0 
S1 S2- 16 b 0.208 0.127 0.63 1. 0 
S2 S2- 16 b 0.0414 0.3779 0.3776 1. 0 
S3 S2- 16 b 0.1255 0.2227 0.3826 1. 0 
S4 S2- 16 b 0.1262 0.4522 0.1108 1. 0 
S5 S2- 16 b 0.1269 0.282 0.1222 1. 0 
S6 S2- 16 b 0.1256 0.0464 0.3926 1. 0 
S7 S2- 16 b 0.2937 0.626 0.3735 1. 0 
S8 S2- 16 b 0.0437 0.124 0.1271 1. 0 

#End of data_14097-ICSD


