data_15436-ICSD
#?2014 by Fachinformationszentrum Karlsruhe, and the U.S. Secretary of 
#Commerce on behalf of the United States.  All rights reserved.
_database_code_ICSD                15436
_audit_creation_date               1980/01/01
_audit_update_record               2012/02/01
_chemical_name_systematic          'Silver Catena-phosphate(V)'
_chemical_formula_structural       'Ag (P O3)'
_chemical_formula_sum              'Ag1 O3 P1'
_publ_section_title
;
Die Struktur des Silber-Polyphosphats (Ag P O3)x
;
loop_
_citation_id
_citation_journal_abbrev
_citation_year
_citation_journal_volume
_citation_page_first
_citation_page_last
_citation_journal_id_ASTM
primary 'Acta Crystallographica (1,1948-23,1967)' 1961 14 779 784 ACCRA9
_publ_author_name                  'Jost, K.H.'
_cell_length_a                     11.86(4)
_cell_length_b                     6.06(2)
_cell_length_c                     7.31(3)
_cell_angle_alpha                  90.
_cell_angle_beta                   93.5(5)
_cell_angle_gamma                  90.
_cell_volume                       524.4
_cell_formula_units_Z              8
_symmetry_space_group_name_H-M     'P 1 21/n 1'
_symmetry_Int_Tables_number        14
_refine_ls_R_factor_all            .13
loop_
_symmetry_equiv_pos_site_id
_symmetry_equiv_pos_as_xyz
  1	'-x+.5, y+.5, -z+.5'
  2	'-x, -y, -z'
  3	'x+.5, -y+.5, z+.5'
  4	'x, y, z'
loop_
_atom_type_symbol
_atom_type_oxidation_number
Ag1+	1
O2-	-2
P5+	5
loop_
_atom_site_label
_atom_site_type_symbol
_atom_site_symmetry_multiplicity
_atom_site_Wyckoff_symbol
_atom_site_fract_x
_atom_site_fract_y
_atom_site_fract_z
_atom_site_occupancy
_atom_site_attached_hydrogens
Ag1 Ag1+ 4 e 0.1276 0.336 0.613 1. 0 
Ag2 Ag1+ 4 e 0.0305 0.897 0.77 1. 0 
P1 P5+ 4 e 0.226 0.825 0.486 1. 0 
P2 P5+ 4 e 0.112 0.615 0.18 1. 0 
O1 O2- 4 e 0.247 0.669 0.634 1. 0 
O2 O2- 4 e 0.224 0.695 0.298 1. 0 
O3 O2- 4 e 0.125 0.963 0.489 1. 0 
O4 O2- 4 e 0.16 0.47 0.027 1. 0 
O5 O2- 4 e 0.053 0.797 0.088 1. 0 
O6 O2- 4 e 0.049 0.479 0.301 1. 0 

#End of data_15436-ICSD


