data_34070-ICSD
#?2014 by Fachinformationszentrum Karlsruhe, and the U.S. Secretary of 
#Commerce on behalf of the United States.  All rights reserved.
_database_code_ICSD                34070
_audit_creation_date               1980/01/01
_audit_update_record               2007/08/01
_chemical_name_systematic
;
Disodium Tetracalcium Zirconium Niobium Bis(disilicate) Trioxide 
Fluoride
;
_chemical_formula_structural       'Na2 Ca4 Zr Nb (Si2 O7)2 O3 F'
_chemical_formula_sum              'Ca4 F1 Na2 Nb1 O17 Si4 Zr1'
_chemical_name_mineral             Woehlerite
_publ_section_title
;
Utochnenie atomnoi struktury velerita Na Ca2 (Zr, Nb) (Si2 O7) (F, 
O)2
;
loop_
_citation_id
_citation_journal_abbrev
_citation_year
_citation_journal_volume
_citation_page_first
_citation_page_last
_citation_journal_id_ASTM
primary 'Doklady Akademii Nauk SSSR' 1973 210 89 92 DANKAS
_publ_author_name                  'Golyshev, V.M.'
_cell_length_a                     10.818(3)
_cell_length_b                     10.264(2)
_cell_length_c                     7.282(2)
_cell_angle_alpha                  90.
_cell_angle_beta                   108.67
_cell_angle_gamma                  90.
_cell_volume                       766.02
_cell_formula_units_Z              2
_symmetry_space_group_name_H-M     'P 1 21 1'
_symmetry_Int_Tables_number        4
_refine_ls_R_factor_all            .072
loop_
_symmetry_equiv_pos_site_id
_symmetry_equiv_pos_as_xyz
  1	'-x, y+.5, -z'
  2	'x, y, z'
loop_
_atom_type_symbol
_atom_type_oxidation_number
Ca2+	2
F1-	-1
Na1+	1
Nb5+	5
O2-	-2
Si4+	4
Zr4+	4
loop_
_atom_site_label
_atom_site_type_symbol
_atom_site_symmetry_multiplicity
_atom_site_Wyckoff_symbol
_atom_site_fract_x
_atom_site_fract_y
_atom_site_fract_z
_atom_site_occupancy
_atom_site_attached_hydrogens
_atom_site_B_iso_or_equiv
Zr1 Zr4+ 2 a 0.343 0.297 0.553 1. 0 0.2 
Nb1 Nb5+ 2 a 0.131 0.06 0.692 1. 0 0.2 
Ca1 Ca2+ 2 a 0.347 0.307 0.052 1. 0 0.2 
Ca2 Ca2+ 2 a 0.853 0.191 0.301 1. 0 0.2 
Ca3 Ca2+ 2 a 0.635 0.421 0.448 1. 0 0.2 
Ca4 Ca2+ 2 a 0.847 0.191 0.8 1. 0 0.2 
Na1 Na1+ 2 a 0.115 0.075 0.182 1. 0 0.2 
Na2 Na1+ 2 a 0.636 0.419 0.954 1. 0 0.2 
Si1 Si4+ 2 a 0.073 0.371 0.137 1. 0 0.2 
Si2 Si4+ 2 a 0.082 0.379 0.7 1. 0 0.2 
Si3 Si4+ 2 a 0.567 0.117 0.376 1. 0 0.2 
Si4 Si4+ 2 a 0.562 0.12 0.937 1. 0 0.2 
O1 O2- 2 a 0.089 0.4 0.925 1. 0 0.2 
O2 O2- 2 a 0.527 0.13 0.145 1. 0 0.2 
O3 O2- 2 a 0.977 0.246 0.117 1. 0 0.2 
O4 O2- 2 a 0.008 0.241 0.616 1. 0 0.2 
O5 O2- 2 a 0.983 0.005 0.8 1. 0 0.2 
O6 O2- 2 a 0.004 0.504 0.578 1. 0 0.2 
O7 O2- 2 a 0.225 0.337 0.278 1. 0 0.2 
O8 O2- 2 a 0.238 0.379 0.713 1. 0 0.2 
O9 O2- 2 a 0.54 0.968 0.429 1. 0 0.2 
O10 O2- 2 a 0.509 0.975 0.85 1. 0 0.2 
O11 O2- 2 a 0.458 0.219 0.407 1. 0 0.2 
O12 O2- 2 a 0.474 0.237 0.818 1. 0 0.2 
O13 O2- 2 a 0.7 0.177 0.473 1. 0 0.2 
O14 O2- 2 a 0.713 0.146 0.984 1. 0 0.2 
O15 O2- 2 a 0.221 0.124 0.928 1. 0 0.2 
O16 O2- 2 a 0.224 0.12 0.545 1. 0 0.2 
O17 O2- 2 a 0.783 0.397 0.275 1. 0 0.2 
F1 F1- 2 a 0.76 0.394 0.755 1. 0 0.2 

#End of data_34070-ICSD


