data_14298-ICSD
#?2014 by Fachinformationszentrum Karlsruhe, and the U.S. Secretary of 
#Commerce on behalf of the United States.  All rights reserved.
_database_code_ICSD                14298
_audit_creation_date               1980/01/01
_audit_update_record               2006/04/01
_chemical_name_systematic          'Dipotassium Selenate(VI)'
_chemical_formula_structural       'K2 (Se O4)'
_chemical_formula_sum              'K2 O4 Se1'
_publ_section_title                'The crystal structure of K2 Se O4'
loop_
_citation_id
_citation_journal_abbrev
_citation_year
_citation_journal_volume
_citation_page_first
_citation_page_last
_citation_journal_id_ASTM
primary 'Acta Crystallographica B (24,1968-38,1982)' 1970 26 1451 1454 ACBCAR
2 'Golden Book of Phase Transitions, Wroclaw' 2002 1 1 123 GBOPT5
_publ_author_name
;
Kalman, A.;Stephens, J.S.;Cruickshank, D.W.J.
;
_cell_length_a                     7.661(4)
_cell_length_b                     10.466(8)
_cell_length_c                     6.003(3)
_cell_angle_alpha                  90.
_cell_angle_beta                   90.
_cell_angle_gamma                  90.
_cell_volume                       481.32
_cell_formula_units_Z              4
_symmetry_space_group_name_H-M     'P n a m'
_symmetry_Int_Tables_number        62
_refine_ls_R_factor_all            .048
loop_
_symmetry_equiv_pos_site_id
_symmetry_equiv_pos_as_xyz
  1	'x+.5, -y+.5, z'
  2	'x, y, -z+.5'
  3	'-x+.5, y+.5, z+.5'
  4	'-x, -y, -z'
  5	'-x+.5, y+.5, -z'
  6	'-x, -y, z+.5'
  7	'x+.5, -y+.5, -z+.5'
  8	'x, y, z'
loop_
_atom_type_symbol
_atom_type_oxidation_number
K1+	1
O2-	-2
Se6+	6
loop_
_atom_site_label
_atom_site_type_symbol
_atom_site_symmetry_multiplicity
_atom_site_Wyckoff_symbol
_atom_site_fract_x
_atom_site_fract_y
_atom_site_fract_z
_atom_site_occupancy
_atom_site_attached_hydrogens
Se1 Se6+ 4 c 0.2242(2) 0.4200(1) 0.25 1. 0 
K1 K1+ 4 c 0.1705(5) 0.0843(3) 0.25 1. 0 
K2 K1+ 4 c -.0057(4) -.2905(3) 0.25 1. 0 
O1 O2- 8 d 0.2931(10) 0.3471(6) 0.0271(10) 1. 0 
O2 O2- 4 c 0.3024(16) -.4356(8) 0.25 1. 0 
O3 O2- 4 c 0.0126(21) 0.4251(10) 0.25 1. 0 

loop_
_atom_site_aniso_label
_atom_site_aniso_type_symbol
_atom_site_aniso_U_11
_atom_site_aniso_U_22
_atom_site_aniso_U_33
_atom_site_aniso_U_12
_atom_site_aniso_U_13
_atom_site_aniso_U_23
Se1 Se6+ 0.0125(11) 0.016(1) 0.0172(10) -.0006(4) 0 0
K1 K1+ 0.0164(19) 0.0295(17) 0.0283(16) 0.0032(11) 0 0
K2 K1+ 0.0135(15) 0.0198(15) 0.0264(16) 0.0002(11) 0 0
O1 O2- 0.0474(43) 0.0417(36) 0.0239(35) 0.0132(31) 0.0060(31) -.0107(31)
O2 O2- 0.0373(70) 0.0213(49) 0.0465(60) -.0090(41) 0 0
O3 O2- 0.0389(83) 0.0583(75) 0.0584(72) -.0088(52) 0 0
#End of data_14298-ICSD


