data_84597-ICSD
#?2014 by Fachinformationszentrum Karlsruhe, and the U.S. Secretary of 
#Commerce on behalf of the United States.  All rights reserved.
_database_code_ICSD                84597
_audit_creation_date               1999/01/19
_chemical_name_systematic          'Tripotassium Sodium Bis(molybdate)'
_chemical_formula_structural       'K3 Na (Mo O4)2'
_chemical_formula_sum              'K3 Mo2 Na1 O8'
_publ_section_title
;
Phase transition in K3 Na (Mo O4)2 and determination of the twinned 
structures of K3 Na (Mo O4)2 and K2.5 Na1.5 (Mo O4)2 at room 
temperature
;
loop_
_citation_id
_citation_journal_abbrev
_citation_year
_citation_journal_volume
_citation_page_first
_citation_page_last
_citation_journal_id_ASTM
primary 'Acta Crystallographica, Section B: Structural Science'
 1997 53 596 603 ASBSDK
_publ_author_name
;
Fabry, J.;Petricek, V.;Vanek, P.;Cisarova, I.
;
_cell_length_a                     10.4455(14)
_cell_length_b                     6.0307(8)
_cell_length_c                     15.240(4)
_cell_angle_alpha                  90.
_cell_angle_beta                   90.00(2)
_cell_angle_gamma                  90.
_cell_volume                       960.02
_cell_formula_units_Z              4
_symmetry_space_group_name_H-M     'C 1 2/c 1'
_symmetry_Int_Tables_number        15
_refine_ls_R_factor_all            .029
loop_
_symmetry_equiv_pos_site_id
_symmetry_equiv_pos_as_xyz
  1	'x, -y, z+.5'
  2	'-x, -y, -z'
  3	'-x, y, -z+.5'
  4	'x, y, z'
  5	'x+.5, -y+.5, z+.5'
  6	'-x+.5, -y+.5, -z'
  7	'-x+.5, y+.5, -z+.5'
  8	'x+.5, y+.5, z'
loop_
_atom_type_symbol
_atom_type_oxidation_number
K1+	1
Mo6+	6
Na1+	1
O2-	-2
loop_
_atom_site_label
_atom_site_type_symbol
_atom_site_symmetry_multiplicity
_atom_site_Wyckoff_symbol
_atom_site_fract_x
_atom_site_fract_y
_atom_site_fract_z
_atom_site_occupancy
_atom_site_attached_hydrogens
_atom_site_U_iso_or_equiv
K1 K1+ 8 f 0.1711(2) 0.4778(1) 0.41526(7) 1. 0 0.0224(3) 
K2 K1+ 4 e 0 0.9474(3) 0.25 1. 0 0.0268(5) 
Na1 Na1+ 4 a 0 0 0 1. 0 0.0138(9) 
Mo1 Mo6+ 8 f 0.16278(5) 0.48090(5) 0.13946(2) 1. 0 0.0114(1) 
O1 O2- 8 f 0.1724(6) 0.5498(6) 0.2502(2) 1. 0 0.039(1) 
O2 O2- 8 f 0.0822(3) 0.6954(5) 0.0837(2) 1. 0 0.028(1) 
O3 O2- 8 f 0.0806(3) 0.2317(5) 0.1195(2) 1. 0 0.027(1) 
O4 O2- 8 f 0.3158(4) 0.4606(6) 0.0910(3) 1. 0 0.032(1) 

#End of data_84597-ICSD


