data_1285-ICSD
#?2014 by Fachinformationszentrum Karlsruhe, and the U.S. Secretary of 
#Commerce on behalf of the United States.  All rights reserved.
_database_code_ICSD                1285
_audit_creation_date               1980/01/01
_audit_update_record               2010/02/01
_chemical_name_systematic          'Dipotassium Pentafluorferrate(III)'
_chemical_formula_structural       'K2 (Fe F5)'
_chemical_formula_sum              'F5 Fe1 K2'
_publ_section_title                'The crystal structure of  K2 Fe F5'
loop_
_citation_id
_citation_journal_abbrev
_citation_year
_citation_journal_volume
_citation_page_first
_citation_page_last
_citation_journal_id_ASTM
primary 'Acta Crystallographica B (24,1968-38,1982)' 1977 33 3377 3380 ACBCAR
_publ_author_name
;
Vlasse, M.;Matejka, G.;Tressaud, A.;Wanklyn, B.M.
;
_cell_length_a                     20.39(1)
_cell_length_b                     7.399(5)
_cell_length_c                     12.84(1)
_cell_angle_alpha                  90.
_cell_angle_beta                   90.
_cell_angle_gamma                  90.
_cell_volume                       1937.11
_cell_formula_units_Z              16
_symmetry_space_group_name_H-M     'P n 21 a'
_symmetry_Int_Tables_number        33
_refine_ls_R_factor_all            .048
loop_
_symmetry_equiv_pos_site_id
_symmetry_equiv_pos_as_xyz
  1	'x+.5, y, -z+.5'
  2	'-x+.5, y+.5, z+.5'
  3	'-x, y+.5, -z'
  4	'x, y, z'
loop_
_atom_type_symbol
_atom_type_oxidation_number
F1-	-1
Fe3+	3
K1+	1
loop_
_atom_site_label
_atom_site_type_symbol
_atom_site_symmetry_multiplicity
_atom_site_Wyckoff_symbol
_atom_site_fract_x
_atom_site_fract_y
_atom_site_fract_z
_atom_site_occupancy
_atom_site_attached_hydrogens
_atom_site_B_iso_or_equiv
Fe1 Fe3+ 4 a 0.4224(3) 0.0034(15) 0.2505(6) 1. 0 0.42 
Fe2 Fe3+ 4 a 0.3294(3) 0.6744(6) 0.0521(6) 1. 0 0.79 
Fe3 Fe3+ 4 a 0.1721(4) 0 0.0544(6) 1. 0 0.78 
Fe4 Fe3+ 4 a 0.0783(4) 0.6661(16) 0.2534(7) 1. 0 1.27 
K1 K1+ 4 a 0.0045(5) 0.8483(18) 0.0176(9) 1. 0 1.56 
K2 K1+ 4 a 0.1662(4) 0.4732(13) 0.0420(7) 1. 0 1.11 
K3 K1+ 4 a 0.0850(4) 0.1703(15) 0.2791(6) 1. 0 0.99 
K4 K1+ 4 a 0.2511(6) 0.3453(17) 0.3224(3) 1. 0 0.84 
K5 K1+ 4 a 0.4181(5) 0.4880(17) 0.2632(7) 1. 0 1.51 
K6 K1+ 4 a 0.2483(9) 0.8325(30) 0.2877(4) 1. 0 1.76 
K7 K1+ 4 a 0.4914(4) 0.8240(17) 0.0187(8) 1. 0 0.96 
K8 K1+ 4 a 0.3394(5) 0.1785(15) 0.0339(8) 1. 0 1.72 
F1 F1- 4 a 0.2211(10) 0.0256(30) 0.4636(15) 1. 0 1.42 
F2 F1- 4 a 0.2015(13) 0.1273(39) 0.1787(21) 1. 0 2.39 
F3 F1- 4 a 0.4600(12) 0.1180(35) 0.1331(20) 1. 0 0.5 
F4 F1- 4 a 0.3494(14) 0.1652(39) 0.2349(20) 1. 0 3.89 
F5 F1- 4 a 0.4721(9) 0.1560(31) 0.3378(15) 1. 0 0.77 
F6 F1- 4 a 0.0977(9) 0.1555(14) 0.0484(16) 1. 0 1.62 
F7 F1- 4 a 0.1379(14) 0.316(4) 0.4453(25) 1. 0 2.5 
F8 F1- 4 a 0.3548(11) 0.3340(32) 0.4507(20) 1. 0 1.34 
F9 F1- 4 a 0.4041(12) 0.5440(39) 0.0488(23) 1. 0 2.84 
F10 F1- 4 a 0.1521(10) 0.5263(28) 0.2463(17) 1. 0 0.34 
F11 F1- 4 a 0.0322(13) 0.5147(22) 0.3442(24) 1. 0 2.81 
F12 F1- 4 a 0.0416(15) 0.5657(41) 0.1263(24) 1. 0 3.29 
F13 F1- 4 a 0.2784(10) 0.6191(29) 0.4491(15) 1. 0 1.07 
F14 F1- 4 a 0.2444(8) 0.8157(24) 0.0721(8) 1. 0 0.9 
F15 F1- 4 a 0.4989(10) 0.8343(34) 0.2388(15) 1. 0 0.97 
F16 F1- 4 a 0.3721(4) 0.8397(44) 0.1581(23) 1. 0 3.25 
F17 F1- 4 a 0.1210(9) 0.8436(28) 0.1519(15) 1. 0 0.41 
F18 F1- 4 a 0.3882(14) 0.8819(38) 0.3623(21) 1. 0 2.55 
F19 F1- 4 a 0.1104(12) 0.8241(35) 0.3577(18) 1. 0 1.44 
F20 F1- 4 a 0.2959(14) 0.5403(41) 0.1598(23) 1. 0 1.58 

#End of data_1285-ICSD


