data_94967-ICSD
#?2014 by Fachinformationszentrum Karlsruhe, and the U.S. Secretary of 
#Commerce on behalf of the United States.  All rights reserved.
_database_code_ICSD                94967
_audit_creation_date               2003/10/01
_chemical_name_systematic
;
Thallium Barium Calcium Copper Oxide (7/8/8/12/39)
;
_chemical_formula_structural       'Tl7 Ba8 Ca8 Cu12 O39'
_chemical_formula_sum              'Ba8 Ca8 Cu12 O39 Tl7'
_publ_section_title
;
Intergrowth of structures in the Tl-Ba-Ca-Cu-O system
;
loop_
_citation_id
_citation_journal_abbrev
_citation_year
_citation_journal_volume
_citation_page_first
_citation_page_last
_citation_journal_id_ASTM
primary 'Journal of Alloys and Compounds' 2002 333 237 248 JALCEU
_publ_author_name
;
Hopfinger, T.;Shcherban, O.O.;Galez, P.;Gladyshevskii, R.E.;Lomello-
Tafin, M.;Jorda, J.L.;Couach, M.
;
_cell_length_a                     3.84
_cell_length_b                     3.84
_cell_length_c                     138.76
_cell_angle_alpha                  90
_cell_angle_beta                   90
_cell_angle_gamma                  90
_cell_volume                       2046.1
_cell_formula_units_Z              2
_symmetry_space_group_name_H-M     'I 4/m m m'
_symmetry_Int_Tables_number        139
loop_
_symmetry_equiv_pos_site_id
_symmetry_equiv_pos_as_xyz
  1	'y, x, -z'
  2	'-y, -x, -z'
  3	'-y, x, -z'
  4	'y, -x, -z'
  5	'-x, y, -z'
  6	'x, -y, -z'
  7	'x, y, -z'
  8	'-x, -y, -z'
  9	'-y, -x, z'
 10	'y, x, z'
 11	'y, -x, z'
 12	'-y, x, z'
 13	'x, -y, z'
 14	'-x, y, z'
 15	'-x, -y, z'
 16	'x, y, z'
 17	'y+.5, x+.5, -z+.5'
 18	'-y+.5, -x+.5, -z+.5'
 19	'-y+.5, x+.5, -z+.5'
 20	'y+.5, -x+.5, -z+.5'
 21	'-x+.5, y+.5, -z+.5'
 22	'x+.5, -y+.5, -z+.5'
 23	'x+.5, y+.5, -z+.5'
 24	'-x+.5, -y+.5, -z+.5'
 25	'-y+.5, -x+.5, z+.5'
 26	'y+.5, x+.5, z+.5'
 27	'y+.5, -x+.5, z+.5'
 28	'-y+.5, x+.5, z+.5'
 29	'x+.5, -y+.5, z+.5'
 30	'-x+.5, y+.5, z+.5'
 31	'-x+.5, -y+.5, z+.5'
 32	'x+.5, y+.5, z+.5'
loop_
_atom_type_symbol
_atom_type_oxidation_number
Ba2+	2
Ca2+	2
Cu2.083+	2.083
O2-	-2
Tl3+	3
loop_
_atom_site_label
_atom_site_type_symbol
_atom_site_symmetry_multiplicity
_atom_site_Wyckoff_symbol
_atom_site_fract_x
_atom_site_fract_y
_atom_site_fract_z
_atom_site_occupancy
_atom_site_attached_hydrogens
Tl1 Tl3+ 2 a 0 0 0 1. 0 
Ba1 Ba2+ 4 e 0.5 0.5 0.020 1. 0 
Cu1 Cu2.083+ 4 e 0 0 0.034 1. 0 
Ca1 Ca2+ 4 e 0.5 0.5 0.045 1. 0 
Cu2 Cu2.083+ 4 e 0 0 0.057 1. 0 
Ca2 Ca2+ 4 e 0.5 0.5 0.069 1. 0 
Cu3 Cu2.083+ 4 e 0 0 0.080 1. 0 
Ba2 Ba2+ 4 e 0.5 0.5 0.094 1. 0 
Tl2 Tl3+ 4 e 0 0 0.113 1. 0 
Tl3 Tl3+ 4 e 0.5 0.5 0.129 1. 0 
Ba3 Ba2+ 4 e 0 0 0.148 1. 0 
Cu4 Cu2.083+ 4 e 0.5 0.5 0.162 1. 0 
Ca3 Ca2+ 4 e 0 0 0.173 1. 0 
Cu5 Cu2.083+ 4 e 0.5 0.5 0.185 1. 0 
Ca4 Ca2+ 4 e 0 0 0.196 1. 0 
Cu6 Cu2.083+ 4 e 0.5 0.5 0.207 1. 0 
Ba4 Ba2+ 4 e 0 0 0.222 1. 0 
Tl4 Tl3+ 4 e 0.5 0.5 0.241 1. 0 
O1 O2- 2 b 0.5 0.5 0 1. 0 
O2 O2- 4 e 0 0 0.016 1. 0 
O3 O2- 8 g 0 0.5 0.034 1. 0 
O4 O2- 8 g 0 0.5 0.057 1. 0 
O5 O2- 8 g 0 0.5 0.080 1. 0 
O6 O2- 4 e 0 0 0.098 1. 0 
O7 O2- 4 e 0.5 0.5 0.113 1. 0 
O8 O2- 4 e 0 0 0.129 1. 0 
O9 O2- 4 e 0.5 0.5 0.144 1. 0 
O10 O2- 8 g 0 0.5 0.162 1. 0 
O11 O2- 8 g 0 0.5 0.185 1. 0 
O12 O2- 8 g 0 0.5 0.207 1. 0 
O13 O2- 4 e 0.5 0.5 0.226 1. 0 
O14 O2- 4 e 0 0 0.241 1. 0 

#End of data_94967-ICSD


