data_24378-ICSD
#?2014 by Fachinformationszentrum Karlsruhe, and the U.S. Secretary of 
#Commerce on behalf of the United States.  All rights reserved.
_database_code_ICSD                24378
_audit_creation_date               1981/12/31
_audit_update_record               2005/10/01
_chemical_name_systematic          'Silver Nitrate(III)'
_chemical_formula_structural       'Ag (N O2)'
_chemical_formula_sum              'Ag1 N1 O2'
_publ_section_title
;
Structure of silver(I) nitrite, a redetermination
;
loop_
_citation_id
_citation_journal_abbrev
_citation_year
_citation_journal_volume
_citation_page_first
_citation_page_last
_citation_journal_id_ASTM
primary 'Acta Crystallographica B (24,1968-38,1982)' 1981 37 1911 1913 ACBCAR
2 'Golden Book of Phase Transitions, Wroclaw' 2002 1 1 123 GBOPT5
_publ_author_name                  'Ohba, S.;Saito, Y.'
_cell_length_a                     3.528(1)
_cell_length_b                     6.172(1)
_cell_length_c                     5.181(1)
_cell_angle_alpha                  90.
_cell_angle_beta                   90.
_cell_angle_gamma                  90.
_cell_volume                       112.82
_cell_formula_units_Z              2
_symmetry_space_group_name_H-M     'I m m 2'
_symmetry_Int_Tables_number        44
_refine_ls_R_factor_all            .024
loop_
_symmetry_equiv_pos_site_id
_symmetry_equiv_pos_as_xyz
  1	'x, -y, z'
  2	'-x, y, z'
  3	'-x, -y, z'
  4	'x, y, z'
  5	'x+.5, -y+.5, z+.5'
  6	'-x+.5, y+.5, z+.5'
  7	'-x+.5, -y+.5, z+.5'
  8	'x+.5, y+.5, z+.5'
loop_
_atom_type_symbol
_atom_type_oxidation_number
Ag1+	1
N3+	3
O2-	-2
loop_
_atom_site_label
_atom_site_type_symbol
_atom_site_symmetry_multiplicity
_atom_site_Wyckoff_symbol
_atom_site_fract_x
_atom_site_fract_y
_atom_site_fract_z
_atom_site_occupancy
_atom_site_attached_hydrogens
Ag1 Ag1+ 2 a 0 0 0 1. 0 
N1 N3+ 2 a 0 0 0.4446(4) 1. 0 
O1 O2- 4 d 0 0.1701(4) 0.5747(4) 1. 0 

loop_
_atom_site_aniso_label
_atom_site_aniso_type_symbol
_atom_site_aniso_U_11
_atom_site_aniso_U_22
_atom_site_aniso_U_33
_atom_site_aniso_U_12
_atom_site_aniso_U_13
_atom_site_aniso_U_23
Ag1 Ag1+ 0.0758(2) 0.0374(1) 0.0171(1) 0 0 0
N1 N3+ 0.0459(10) 0.0358(9) 0.0172(4) 0 0 0
O1 O2- 0.0705(11) 0.0362(7) 0.0271(6) 0 0 -.0041(5)
#End of data_24378-ICSD


