data_240378-ICSD
#?2014 by Fachinformationszentrum Karlsruhe, and the U.S. Secretary of 
#Commerce on behalf of the United States.  All rights reserved.
_database_code_ICSD                240378
_audit_creation_date               2007/04/01
_chemical_name_systematic
;
Tetrapotassium Barium Bis(tetrathiovanadate(V))
;
_chemical_formula_structural       'K4 Ba (V S4)2'
_chemical_formula_sum              'Ba1 K4 S8 V2'
_publ_section_title
;
Tetrapotassium barium bis[tetrathiovanadate(V)], K4 Ba [V S4]2
;
loop_
_citation_id
_citation_journal_abbrev
_citation_year
_citation_journal_volume
_citation_journal_issue
_citation_page_first
_citation_page_last
_citation_journal_id_ASTM
primary 'Acta Crystallographica, Section E. Structure Reports Online'
 2006 62 11 i224 i225 ACSEBH
_publ_author_name                  'Becker, R.;Berger, H.'
_cell_length_a                     8.9553(4)
_cell_length_b                     18.3506(9)
_cell_length_c                     9.8947(5)
_cell_angle_alpha                  90.00
_cell_angle_beta                   90.00
_cell_angle_gamma                  90.00
_cell_volume                       1626.05
_cell_formula_units_Z              4
_symmetry_space_group_name_H-M     'I b a m'
_symmetry_Int_Tables_number        72
_refine_ls_R_factor_all            .0252
loop_
_symmetry_equiv_pos_site_id
_symmetry_equiv_pos_as_xyz
  1	'-x, y, z+.5'
  2	'x, -y, z+.5'
  3	'x, y, -z'
  4	'-x, -y, -z'
  5	'x, -y, -z+.5'
  6	'-x, y, -z+.5'
  7	'-x, -y, z'
  8	'x, y, z'
  9	'-x+.5, y+.5, z'
 10	'x+.5, -y+.5, z'
 11	'x+.5, y+.5, -z+.5'
 12	'-x+.5, -y+.5, -z+.5'
 13	'x+.5, -y+.5, -z'
 14	'-x+.5, y+.5, -z'
 15	'-x+.5, -y+.5, z+.5'
 16	'x+.5, y+.5, z+.5'
loop_
_atom_type_symbol
_atom_type_oxidation_number
Ba2+	2
K1+	1
S2-	-2
V5+	5
loop_
_atom_site_label
_atom_site_type_symbol
_atom_site_symmetry_multiplicity
_atom_site_Wyckoff_symbol
_atom_site_fract_x
_atom_site_fract_y
_atom_site_fract_z
_atom_site_occupancy
_atom_site_attached_hydrogens
_atom_site_U_iso_or_equiv
Ba1 Ba2+ 4 a 0.0000 0.0000 0.2500 1 0 0.01063(11) 
K1 K1+ 8 g 0.0000 0.24820(5) 0.2500 1 0 0.01896(19) 
K2 K1+ 8 j 0.37445(7) 0.07678(4) 0.0000 1 0 0.01609(17) 
V1 V5+ 8 j 0.29107(5) 0.36570(3) 0.0000 1 0 0.00926(14) 
S1 S2- 8 j 0.02613(8) 0.10738(4) 0.0000 1 0 0.01137(17) 
S2 S2- 16 k 0.30902(6) 0.08823(3) 0.32221(6) 1 0 0.01648(15) 
S3 S2- 8 j 0.26728(9) 0.24985(4) 0.0000 1 0 0.01597(18) 

loop_
_atom_site_aniso_label
_atom_site_aniso_type_symbol
_atom_site_aniso_U_11
_atom_site_aniso_U_22
_atom_site_aniso_U_33
_atom_site_aniso_U_12
_atom_site_aniso_U_13
_atom_site_aniso_U_23
Ba1 Ba2+ 0.01071(17) 0.01179(17) 0.00940(17) 0.000 0.000 0.000
K1 K1+ 0.0204(4) 0.0217(4) 0.0147(4) 0.000 -0.0050(2) 0.000
K2 K1+ 0.0122(3) 0.0207(4) 0.0153(3) 0.0007(3) 0.000 0.000
V1 V5+ 0.0081(3) 0.0113(3) 0.0083(3) -0.00037(17) 0.000 0.000
S1 S2- 0.0091(3) 0.0130(4) 0.0120(4) -0.0001(3) 0.000 0.000
S2 S2- 0.0131(3) 0.0235(3) 0.0129(3) -0.0024(2) 0.0030(2) -0.00528(19)
S3 S2- 0.0169(4) 0.0115(4) 0.0195(4) -0.0028(3) 0.000 0.000
#End of data_240378-ICSD


