data_409293-ICSD
#?2014 by Fachinformationszentrum Karlsruhe, and the U.S. Secretary of 
#Commerce on behalf of the United States.  All rights reserved.
_database_code_ICSD                409293
_audit_creation_date               1999/06/02
_chemical_name_systematic
;
Potassium Copper(I) Trithiohafnate(IV)
;
_chemical_formula_structural       'K Cu (Hf S3)'
_chemical_formula_sum              'Cu1 Hf1 K1 S3'
_publ_section_title
;
Crystal structure of potassium copper trithiohafnate(IV), K Cu Hf S3
;
loop_
_citation_id
_citation_journal_abbrev
_citation_year
_citation_journal_volume
_citation_page_first
_citation_page_last
_citation_journal_id_ASTM
primary 'Zeitschrift fuer Kristallographie - New Crystal Structures'
 1998 213 693 693 ZKNSFT
_publ_author_name                  'Klepp, K.O.;Sturmayr, D.'
_cell_length_a                     3.717(3)
_cell_length_b                     14.011(9)
_cell_length_c                     9.766(6)
_cell_angle_alpha                  90.
_cell_angle_beta                   90.
_cell_angle_gamma                  90.
_cell_volume                       508.6
_cell_formula_units_Z              4
_symmetry_space_group_name_H-M     'C m c m'
_symmetry_Int_Tables_number        63
_refine_ls_R_factor_all            .033
loop_
_symmetry_equiv_pos_site_id
_symmetry_equiv_pos_as_xyz
  1	'-x, y, -z+.5'
  2	'-x, -y, z+.5'
  3	'-x, y, z'
  4	'-x, -y, -z'
  5	'x, -y, z+.5'
  6	'x, y, -z+.5'
  7	'x, -y, -z'
  8	'x, y, z'
  9	'-x+.5, y+.5, -z+.5'
 10	'-x+.5, -y+.5, z+.5'
 11	'-x+.5, y+.5, z'
 12	'-x+.5, -y+.5, -z'
 13	'x+.5, -y+.5, z+.5'
 14	'x+.5, y+.5, -z+.5'
 15	'x+.5, -y+.5, -z'
 16	'x+.5, y+.5, z'
loop_
_atom_type_symbol
_atom_type_oxidation_number
Cu1+	1
Hf4+	4
K1+	1
S2-	-2
loop_
_atom_site_label
_atom_site_type_symbol
_atom_site_symmetry_multiplicity
_atom_site_Wyckoff_symbol
_atom_site_fract_x
_atom_site_fract_y
_atom_site_fract_z
_atom_site_occupancy
_atom_site_attached_hydrogens
K1 K1+ 4 c 0.5 0.2447(5) 0.25 1. 0 
Cu1 Cu1+ 4 c 0 0.4613(2) 0.25 1. 0 
Hf1 Hf4+ 4 a 0.5 0.5 0 1. 0 
S1 S2- 4 c 0 0.0630(5) 0.25 1. 0 
S2 S2- 8 f 0 0.3780(3) 0.0485(5) 1. 0 

loop_
_atom_site_aniso_label
_atom_site_aniso_type_symbol
_atom_site_aniso_U_11
_atom_site_aniso_U_22
_atom_site_aniso_U_33
_atom_site_aniso_U_12
_atom_site_aniso_U_13
_atom_site_aniso_U_23
K1 K1+ 0.012(3) 0.018(3) 0.024(3) 0 0 0
Cu1 Cu1+ 0.013(2) 0.016(2) 0.008(2) 0 0 0
Hf1 Hf4+ 0.0080(4) 0.0073(4) 0.0081(4) 0 0 -.001(1)
S1 S2- 0.009(3) 0.011(3) 0.005(3) 0 0 0
S2 S2- 0.007(2) 0.009(2) 0.008(2) 0 0 0.002(2)
#End of data_409293-ICSD


