data_168264-ICSD
#?2014 by Fachinformationszentrum Karlsruhe, and the U.S. Secretary of 
#Commerce on behalf of the United States.  All rights reserved.
_database_code_ICSD                168264
_audit_creation_date               2011/02/01
_audit_update_record               2013/08/01
_chemical_name_systematic
;
Trilithium Divanadium(III) Triphosphate
;
_chemical_formula_structural       'Li3 V2 (P O4)3'
_chemical_formula_sum              'Li3 O12 P3 V2'
_publ_section_title
;
Crystal structure and electrochemical performance of Li3 V2 (P O4)3 
synthesized by optimized microwave solid-state synthesis route
;
loop_
_citation_id
_citation_journal_abbrev
_citation_year
_citation_journal_volume
_citation_page_first
_citation_page_last
_citation_journal_id_ASTM
primary 'Electrochimica Acta' 2010 55 3669 3680 ELCAAV
2 'Journal of Power Sources' 2003 119 278 284 JPSODZ
_publ_author_name
;
Yang Gang;Ji Hong Mei;Liu Hai Dong;Qian Bin;Jiang Xue Fan
;
_cell_length_a                     8.6053(7)
_cell_length_b                     12.0362(2)
_cell_length_c                     8.5912(8)
_cell_angle_alpha                  90
_cell_angle_beta                   90
_cell_angle_gamma                  90.582(2)
_cell_volume                       889.79
_cell_formula_units_Z              4
_symmetry_space_group_name_H-M     'P 1 1 21/n'
_symmetry_Int_Tables_number        14
_refine_ls_R_factor_all            .0224
loop_
_symmetry_equiv_pos_site_id
_symmetry_equiv_pos_as_xyz
  1	'x+.5, y+.5, -z+.5'
  2	'-x, -y, -z'
  3	'-x+.5, -y+.5, z+.5'
  4	'x, y, z'
loop_
_atom_type_symbol
_atom_type_oxidation_number
Li1+	1
O2-	-2
P5+	5
V3+	3
loop_
_atom_site_label
_atom_site_type_symbol
_atom_site_symmetry_multiplicity
_atom_site_Wyckoff_symbol
_atom_site_fract_x
_atom_site_fract_y
_atom_site_fract_z
_atom_site_occupancy
_atom_site_attached_hydrogens
Li1 Li1+ 4 e 0.911 0.233 0.305 1. 0 
Li2 Li1+ 4 e 0.571 0.195 0.421 1. 0 
Li3 Li1+ 4 e 0.292 0.3342(4) 0.298 1. 0 
V1 V3+ 4 e 0.2460(4) 0.1107(3) 0.4616(6) 1. 0 
V2 V3+ 4 e 0.7534 0.3943 0.4703 1. 0 
P1 P5+ 4 e 0.1078(1) 0.1501(1) 0.1014(1) 1. 0 
P2 P5+ 4 e 0.6004 0.3493 0.1164 1. 0 
P3 P5+ 4 e 0.0349 0.4924 0.2474 1. 0 
O1 O2- 4 e 0.4052(4) 0.3537(8) 0.1110(4) 1. 0 
O2 O2- 4 e 0.9208(6) 0.1461(4) 0.1209(6) 1. 0 
O3 O2- 4 e 0.3547 0.2607 0.4799 1. 0 
O4 O2- 4 e 0.8041 0.2185 0.4952 1. 0 
O5 O2- 4 e 0.1727 0.0394 0.0518 1. 0 
O6 O2- 4 e 0.6435 0.4747 0.0883 1. 0 
O7 O2- 4 e 0.4500 0.0667 0.3688 1. 0 
O8 O2- 4 e 0.9277 0.4033 0.3196 1. 0 
O9 O2- 4 e 0.1697 0.4291 0.1697 1. 0 
O10 O2- 4 e 0.6098 0.0750 0.1346 1. 0 
O11 O2- 4 e 0.1660 0.1862 0.2670 1. 0 
O12 O2- 4 e 0.6399 0.3176 0.2868 1. 0 

#End of data_168264-ICSD


