data_642668-ICSD
#?2014 by Fachinformationszentrum Karlsruhe, and the U.S. Secretary of 
#Commerce on behalf of the United States.  All rights reserved.
_database_code_ICSD                642668
_audit_creation_date               2012/08/01
_chemical_name_systematic          'Magnesium Silicon Nitride (1/1/2)'
_chemical_formula_structural       'Mg Si N2'
_chemical_formula_sum              'Mg1 N2 Si1'
_publ_section_title
;
Structure and chemical bonding in ternary nitrides of the type A(2) 
B(4) N2
;
loop_
_citation_id
_citation_journal_abbrev
_citation_year
_citation_journal_volume
_citation_journal_issue
_citation_page_first
_citation_page_last
_citation_journal_id_ASTM
primary 'Inorganic Materials' 1979 15 11 1546 1550 INOMAF
_publ_author_name
;
Grekov, F.F.;Dubrovskii, G.P.;Zykov, A.M.
;
_cell_length_a                     5.272
_cell_length_b                     6.483
_cell_length_c                     4.980
_cell_angle_alpha                  90.0
_cell_angle_beta                   90.0
_cell_angle_gamma                  90.0
_cell_volume                       170.21
_cell_formula_units_Z              4
_symmetry_space_group_name_H-M     'P n a 21'
_symmetry_Int_Tables_number        33
loop_
_symmetry_equiv_pos_site_id
_symmetry_equiv_pos_as_xyz
  1	'x+.5, -y+.5, z'
  2	'-x+.5, y+.5, z+.5'
  3	'-x, -y, z+.5'
  4	'x, y, z'
loop_
_atom_type_symbol
_atom_type_oxidation_number
Mg2+	2
N3-	-3
Si4+	4
loop_
_atom_site_label
_atom_site_type_symbol
_atom_site_symmetry_multiplicity
_atom_site_Wyckoff_symbol
_atom_site_fract_x
_atom_site_fract_y
_atom_site_fract_z
_atom_site_occupancy
_atom_site_attached_hydrogens
Mg1 Mg2+ 4 a 0.422 0.124 0.000 1. 0 
Si1 Si4+ 4 a 0.068 0.125 0.493 1. 0 
N1 N3- 4 a 0.047 0.089 0.153 1. 0 
N2 N3- 4 a 0.115 0.661 0.080 1. 0 

#End of data_642668-ICSD


