data_409633-ICSD
#?2014 by Fachinformationszentrum Karlsruhe, and the U.S. Secretary of 
#Commerce on behalf of the United States.  All rights reserved.
_database_code_ICSD                409633
_audit_creation_date               2003/10/01
_chemical_name_systematic          'Tetralithium Nitride Hydride'
_chemical_formula_structural       'Li4 N H'
_chemical_formula_sum              'H1 Li4 N1'
_publ_section_title
;
Redetermination of the crystal structure of tetralithium mononitride 
monohydride, Li4 N H
;
loop_
_citation_id
_citation_journal_abbrev
_citation_year
_citation_journal_volume
_citation_page_first
_citation_page_last
_citation_journal_id_ASTM
primary 'Zeitschrift fuer Kristallographie - New Crystal Structures'
 2002 217 317 318 ZKNSFT
_publ_author_name                  'Niewa, R.;Zherebtsov, D.A.'
_cell_length_a                     4.8765(3)
_cell_length_b                     4.8765(3)
_cell_length_c                     9.8769(9)
_cell_angle_alpha                  90.
_cell_angle_beta                   90.
_cell_angle_gamma                  90.
_cell_volume                       234.88
_cell_formula_units_Z              4
_symmetry_space_group_name_H-M     'I 41/a Z'
_symmetry_Int_Tables_number        88
_refine_ls_R_factor_all            .052
loop_
_symmetry_equiv_pos_site_id
_symmetry_equiv_pos_as_xyz
  1	'-y+.75, x+.75, -z+.75'
  2	'y+.25, -x+.75, -z+.75'
  3	'x, y+.5, -z'
  4	'-x, -y, -z'
  5	'y+.25, -x+.25, z+.25'
  6	'-y+.75, x+.25, z+.25'
  7	'-x, -y+.5, z'
  8	'x, y, z'
  9	'-y+.25, x+.25, -z+.25'
 10	'y+.75, -x+.25, -z+.25'
 11	'x+.5, y, -z+.5'
 12	'-x+.5, -y+.5, -z+.5'
 13	'y+.75, -x+.75, z+.75'
 14	'-y+.25, x+.75, z+.75'
 15	'-x+.5, -y, z+.5'
 16	'x+.5, y+.5, z+.5'
loop_
_atom_type_symbol
_atom_type_oxidation_number
H1-	-1
Li1+	1
N3-	-3
loop_
_atom_site_label
_atom_site_type_symbol
_atom_site_symmetry_multiplicity
_atom_site_Wyckoff_symbol
_atom_site_fract_x
_atom_site_fract_y
_atom_site_fract_z
_atom_site_occupancy
_atom_site_attached_hydrogens
_atom_site_U_iso_or_equiv
N1 N3- 4 b 0 0.25 0.625 1. 0 0.0099(7) 
Li1 Li1+ 16 f 0.1940(6) 0.0444(6) 0.7819(3) 1. 0 0.0183(8) 
H1 H1- 4 a 0 0.25 0.125 1. 0 0.022(10) 

loop_
_atom_site_aniso_label
_atom_site_aniso_type_symbol
_atom_site_aniso_U_11
_atom_site_aniso_U_22
_atom_site_aniso_U_33
_atom_site_aniso_U_12
_atom_site_aniso_U_13
_atom_site_aniso_U_23
N1 N3- 0.0117(9) 0.0117(9) 0.0064(12) 0 0 0
Li1 Li1+ 0.0196(14) 0.0175(14) 0.0180(15) -0.0039(10) -0.0035(12) 
0.0044(12)
#End of data_409633-ICSD


