data_281429-ICSD
#?2014 by Fachinformationszentrum Karlsruhe, and the U.S. Secretary of 
#Commerce on behalf of the United States.  All rights reserved.
_database_code_ICSD                281429
_audit_creation_date               2004/04/01
_chemical_name_systematic
;
Silver Dioxoneptunium(V) Selenate(IV) - Beta
;
_chemical_formula_structural       'Ag (Np O2) (Se O3)'
_chemical_formula_sum              'Ag1 Np1 O5 Se1'
_publ_section_title
;
Cation-cation interactions in neptunyl(V) compounds: hydrothermal 
preparation and structural characterization of Np O2 (I O3) and alpha-
 and beta-(Ag Np O2 (Se O3))
;
loop_
_citation_id
_citation_journal_abbrev
_citation_year
_citation_journal_volume
_citation_journal_issue
_citation_page_first
_citation_page_last
_citation_journal_id_ASTM
primary 'Inorganic Chemistry' 2003 42 12 3788 3795 INOCAJ
_publ_author_name
;
Albrecht Schmitt, T.E.;Almond, P.M.;Sykora, R.E.
;
_cell_length_a                     7.1066(6)
_cell_length_b                     8.3503(7)
_cell_length_c                     8.3554(7)
_cell_angle_alpha                  89.349(1)
_cell_angle_beta                   77.034(1)
_cell_angle_gamma                  76.561(1)
_cell_volume                       469.52
_cell_formula_units_Z              4
_symmetry_space_group_name_H-M     'P -1'
_symmetry_Int_Tables_number        2
_refine_ls_R_factor_all            .0226
loop_
_symmetry_equiv_pos_site_id
_symmetry_equiv_pos_as_xyz
  1	'-x, -y, -z'
  2	'x, y, z'
loop_
_atom_type_symbol
_atom_type_oxidation_number
Ag1+	1
Np5+	5
O2-	-2
Se4+	4
loop_
_atom_site_label
_atom_site_type_symbol
_atom_site_symmetry_multiplicity
_atom_site_Wyckoff_symbol
_atom_site_fract_x
_atom_site_fract_y
_atom_site_fract_z
_atom_site_occupancy
_atom_site_attached_hydrogens
_atom_site_U_iso_or_equiv
Np1 Np5+ 2 i 0.38525(3) 0.28094(3) 0.26416(3) 1. 0 0.00771(8) 
Np2 Np5+ 2 i 0.50312(3) 0.24612(3) -.25829(3) 1. 0 0.00756(8) 
Ag1 Ag1+ 2 i 0.19314(8) 0.02620(6) 0.00841(6) 1. 0 0.01698(12) 
Ag2 Ag1+ 2 i 0.11353(8) 0.09426(6) 0.60266(6) 1. 0 0.01598(12) 
Se1 Se4+ 2 i 0.84948(9) 0.28573(8) 0.34650(7) 1. 0 0.01018(14) 
Se2 Se4+ 2 i 0.90629(9) 0.36709(8) -.11650(7) 1. 0 0.00985(14) 
O1 O2- 2 i 0.7430(6) 0.2058(6) 0.2137(5) 1. 0 0.0118(9) 
O2 O2- 2 i 0.7820(7) 0.1745(6) 0.5155(5) 1. 0 0.0140(9) 
O3 O2- 2 i 1.0885(6) 0.1779(6) 0.2808(6) 1. 0 0.0140(9) 
O4 O2- 2 i 0.7993(7) 0.2144(6) -.1580(5) 1. 0 0.0133(9) 
O5 O2- 2 i 0.8869(7) 0.4831(6) -.2792(5) 1. 0 0.0134(9) 
O6 O2- 2 i 1.1477(7) 0.2559(6) -.1693(5) 1. 0 0.0130(9) 
O7 O2- 2 i 0.3653(7) 0.2632(6) 0.4916(5) 1. 0 0.0134(9) 
O8 O2- 2 i 0.4107(7) 0.2911(6) 0.0372(5) 1. 0 0.0140(9) 
O9 O2- 2 i 0.4889(7) 0.4697(5) -.2779(6) 1. 0 0.0146(10) 
O10 O2- 2 i 0.5220(7) 0.0202(5) -.2301(6) 1. 0 0.0135(9) 

loop_
_atom_site_aniso_label
_atom_site_aniso_type_symbol
_atom_site_aniso_U_11
_atom_site_aniso_U_22
_atom_site_aniso_U_33
_atom_site_aniso_U_12
_atom_site_aniso_U_13
_atom_site_aniso_U_23
Np1 Np5+ 0.00757(13) 0.00928(13) 0.00666(13) -0.00250(9) -0.00186(9) 
0.00001(9)
Np2 Np5+ 0.00745(13) 0.00843(13) 0.00715(13) -0.00243(9) -0.00175(9) 
-0.00011(9)
Ag1 Ag1+ 0.0216(3) 0.0148(2) 0.0146(3) -0.0052(2) -0.0035(2) 0.00310(19)
Ag2 Ag1+ 0.0175(3) 0.0155(2) 0.0158(2) -0.0047(2) -0.0045(2) -0.00187(19)
Se1 Se4+ 0.0083(3) 0.0109(3) 0.0113(3) -0.0022(2) -0.0024(2) -0.0004(2)
Se2 Se4+ 0.0086(3) 0.0111(3) 0.0102(3) -0.0027(2) -0.0025(2) -0.0005(2)
O1 O2- 0.004(2) 0.016(2) 0.014(2) -0.0021(17) -0.0008(17) -0.0022(18)
O2 O2- 0.013(2) 0.015(2) 0.013(2) -0.0033(19) -0.0023(18) 0.0007(18)
O3 O2- 0.008(2) 0.015(2) 0.018(2) -0.0022(18) -0.0008(18) -0.0014(18)
O4 O2- 0.014(2) 0.016(2) 0.012(2) -0.0089(19) -0.0030(18) 0.0001(18)
O5 O2- 0.013(2) 0.013(2) 0.011(2) 0.0005(18) -0.0021(18) 0.0028(17)
O6 O2- 0.008(2) 0.016(2) 0.014(2) -0.0015(18) -0.0015(17) 0.0000(18)
O7 O2- 0.010(2) 0.019(2) 0.012(2) -0.0040(18) -0.0035(17) -0.0022(18)
O8 O2- 0.015(2) 0.020(2) 0.009(2) -0.0067(19) -0.0021(17) 0.0006(18)
O9 O2- 0.018(2) 0.008(2) 0.019(2) -0.0034(19) -0.006(2) 0.0041(19)
O10 O2- 0.013(2) 0.011(2) 0.016(2) -0.0042(18) -0.0014(18) 0.0010(18)
#End of data_281429-ICSD


