data_72384-ICSD
#?2014 by Fachinformationszentrum Karlsruhe, and the U.S. Secretary of 
#Commerce on behalf of the United States.  All rights reserved.
_database_code_ICSD                72384
_audit_creation_date               1994/01/19
_chemical_name_systematic          'Sodium Tetraselenidostannate'
_chemical_formula_structural       'Na4 (Sn Se4)'
_chemical_formula_sum              'Na4 Se4 Sn1'
_publ_section_title
;
Na4SnSe4 und K4SnSe4, zwei neue Selenostannate mit isolierten Anionen
;
loop_
_citation_id
_citation_journal_abbrev
_citation_year
_citation_journal_volume
_citation_page_first
_citation_page_last
_citation_journal_id_ASTM
primary 'Zeitschrift fuer Naturforschung, B: Chemical Sciences'
 1992 47 411 417 ZNBSEN
_publ_author_name                  'Klepp, K.O.'
_cell_length_a                     8.165(2)
_cell_length_b                     8.165(2)
_cell_length_c                     7.268(2)
_cell_angle_alpha                  90.
_cell_angle_beta                   90.
_cell_angle_gamma                  90.
_cell_volume                       484.54
_cell_formula_units_Z              2
_symmetry_space_group_name_H-M     'P -4 21 c'
_symmetry_Int_Tables_number        114
_refine_ls_R_factor_all            .058
loop_
_symmetry_equiv_pos_site_id
_symmetry_equiv_pos_as_xyz
  1	'y+.5, x+.5, z+.5'
  2	'y, -x, -z'
  3	'-y+.5, -x+.5, z+.5'
  4	'-y, x, -z'
  5	'x+.5, -y+.5, -z+.5'
  6	'-x, -y, z'
  7	'-x+.5, y+.5, -z+.5'
  8	'x, y, z'
loop_
_atom_type_symbol
_atom_type_oxidation_number
Na1+	1
Se2-	-2
Sn4+	4
loop_
_atom_site_label
_atom_site_type_symbol
_atom_site_symmetry_multiplicity
_atom_site_Wyckoff_symbol
_atom_site_fract_x
_atom_site_fract_y
_atom_site_fract_z
_atom_site_occupancy
_atom_site_attached_hydrogens
Na1 Na1+ 8 e 0.197(1) 0.593(2) 0.028(1) 1. 0 
Sn1 Sn4+ 2 a 0 0 0 1. 0 
Se1 Se2- 8 e 0.0941(4) 0.2404(4) 0.1907(4) 1. 0 

loop_
_atom_site_aniso_label
_atom_site_aniso_type_symbol
_atom_site_aniso_U_11
_atom_site_aniso_U_22
_atom_site_aniso_U_33
_atom_site_aniso_U_12
_atom_site_aniso_U_13
_atom_site_aniso_U_23
Na1 Na1+ 0.043(4) 0.025(1) 0.012(5) 0.006(4) 0.000(4) -.005(6)
Sn1 Sn4+ 0.016(2) 0.016(2) 0.009(1) 0 0 0
Se1 Se2- 0.0200(9) 0.0240(9) 0.0128(9) 0.000(1) 0.000(1) -.004(1)
#End of data_72384-ICSD


