data_200268-ICSD
#?2014 by Fachinformationszentrum Karlsruhe, and the U.S. Secretary of 
#Commerce on behalf of the United States.  All rights reserved.
_database_code_ICSD                200268
_audit_creation_date               1980/01/01
_audit_update_record               2008/02/01
_chemical_name_systematic
;
Potassium Neodymium Bis(sulfate(VI))
;
_chemical_formula_structural       'K Nd (S O4)2'
_chemical_formula_sum              'K1 Nd1 O8 S2'
_publ_section_title
;
Crystal structure of the anhydrous double sulfate of potassium and 
neodymium K Nd (S O4)2
;
loop_
_citation_id
_citation_journal_abbrev
_citation_year
_citation_journal_volume
_citation_journal_issue
_citation_page_first
_citation_page_last
_citation_journal_id_ASTM
primary 'Vestnik Moskovskogo Universiteta, Khimiya' 1977 18 6 705 708 VMUKA5
_publ_author_name
;
Degtyarev, P.A.;Korytnaya, F.M.;Pokrovskii, A.N.;Kovba, L.M.
;
_cell_length_a                     6.91(3)
_cell_length_b                     5.30(2)
_cell_length_c                     9.05(3)
_cell_angle_alpha                  92.03(5)
_cell_angle_beta                   96.87(5)
_cell_angle_gamma                  90.80(5)
_cell_volume                       328.8
_cell_formula_units_Z              2
_symmetry_space_group_name_H-M     'P -1'
_symmetry_Int_Tables_number        2
_refine_ls_R_factor_all            .046
loop_
_symmetry_equiv_pos_site_id
_symmetry_equiv_pos_as_xyz
  1	'-x, -y, -z'
  2	'x, y, z'
loop_
_atom_type_symbol
_atom_type_oxidation_number
K1+	1
Nd3+	3
O2-	-2
S6+	6
loop_
_atom_site_label
_atom_site_type_symbol
_atom_site_symmetry_multiplicity
_atom_site_Wyckoff_symbol
_atom_site_fract_x
_atom_site_fract_y
_atom_site_fract_z
_atom_site_occupancy
_atom_site_attached_hydrogens
Nd1 Nd3+ 2 i 0.6956(1) 0.2536(1) 0.2801(1) 1. 0 
K1 K1+ 2 i 0.8226(5) 0.2749(6) 0.8145(4) 1. 0 
S1 S6+ 2 i 0.3161(5) 0.2374(6) 0.9283(4) 1. 0 
S2 S6+ 2 i 0.2222(5) 0.2256(6) 0.4393(4) 1. 0 
O1 O2- 2 i 0.190(3) 0.399(2) 0.563(1) 1. 0 
O2 O2- 2 i 0.747(2) 0.029(2) 0.507(1) 1. 0 
O3 O2- 2 i 0.396(2) 0.316(2) 0.378(1) 1. 0 
O4 O2- 2 i 0.181(2) 0.010(2) 0.922(1) 1. 0 
O5 O2- 2 i 0.194(1) 0.463(2) 0.901(1) 1. 0 
O6 O2- 2 i 0.055(2) 0.224(2) 0.320(1) 1. 0 
O7 O2- 2 i 0.434(2) 0.209(2) 0.806(1) 1. 0 
O8 O2- 2 i 0.429(2) 0.270(2) 0.073(1) 1. 0 

#End of data_200268-ICSD


