data_34613-ICSD
#?2014 by Fachinformationszentrum Karlsruhe, and the U.S. Secretary of 
#Commerce on behalf of the United States.  All rights reserved.
_database_code_ICSD                34613
_audit_creation_date               1980/01/01
_audit_update_record               1984/11/02
_chemical_name_systematic
;
Aluminium Phyllo-dihydrogenphosphate Hydrogenphosphate Hydrate
;
_chemical_formula_structural       'Al (H2 P O4) (H P O4) H2 O'
_chemical_formula_sum              'H5 Al1 O9 P2'
_publ_section_title
;
Al (H2 P O4) (H P O4) (H2 O), ein saures Phosphat mit 
zweidimensionaler Al-O-P-Vernetzung
;
loop_
_citation_id
_citation_journal_abbrev
_citation_year
_citation_journal_volume
_citation_page_first
_citation_page_last
_citation_journal_id_ASTM
primary
;
Zeitschrift fuer Naturforschung, Teil B. Anorganische Chemie, 
Organische Chemie (33,1978-41,1986)
;
 1978 33 1047 1048 ZNBAD2
_publ_author_name                  'Kniep, R.;Mootz, D.;Wilms, A.'
_cell_length_a                     7.897(2)
_cell_length_b                     9.216(2)
_cell_length_c                     9.347(2)
_cell_angle_alpha                  90.
_cell_angle_beta                   110.76(2)
_cell_angle_gamma                  90.
_cell_volume                       636.1
_cell_formula_units_Z              4
_symmetry_space_group_name_H-M     'P 1 21/c 1'
_symmetry_Int_Tables_number        14
_refine_ls_R_factor_all            .033
loop_
_symmetry_equiv_pos_site_id
_symmetry_equiv_pos_as_xyz
  1	'x, -y+.5, z+.5'
  2	'-x, -y, -z'
  3	'-x, y+.5, -z+.5'
  4	'x, y, z'
loop_
_atom_type_symbol
_atom_type_oxidation_number
Al3+	3
H1+	1
O2-	-2
P5+	5
loop_
_atom_site_label
_atom_site_type_symbol
_atom_site_symmetry_multiplicity
_atom_site_Wyckoff_symbol
_atom_site_fract_x
_atom_site_fract_y
_atom_site_fract_z
_atom_site_occupancy
_atom_site_attached_hydrogens
Al1 Al3+ 4 e 0.12926(6) 0.21528(5) 0.43476(5) 1. 0 
P1 P5+ 4 e -.12883(5) 0.38072(4) 0.13255(4) 1. 0 
P2 P5+ 4 e 0.37297(5) 0.39202(4) 0.26772(4) 1. 0 
O1 O2- 4 e 0.1529(2) 0.3969(1) 0.5449(1) 1. 0 
O2 O2- 4 e -.0344(2) 0.1543(1) 0.5229(1) 1. 0 
O3 O2- 4 e -.0713(2) 0.2860(1) 0.2740(1) 1. 0 
O4 O2- 4 e 0.2901(2) 0.2908(2) 0.3488(1) 1. 0 
O5 O2- 4 e 0.3316(2) 0.1410(1) 0.6006(1) 1. 0 
O6 O2- 4 e 0.1149(2) 0.0409(1) 0.3248(1) 1. 0 
O7 O2- 4 e -.3347(2) 0.3413(1) 0.0360(1) 1. 0 
O8 O2- 4 e 0.3339(2) 0.5544(2) 0.2927(2) 1. 0 
O9 O2- 4 e 0.5843(2) 0.3874(2) 0.3495(2) 1. 0 
H1 H1+ 4 e 0.124(6) 0.403(5) 0.633(5) 1. 0 
H2 H1+ 4 e 0.236(7) 0.435(6) 0.505(5) 1. 0 
H3 H1+ 4 e -.406(6) 0.361(4) 0.064(4) 1. 0 
H4 H1+ 4 e 0.243(6) 0.581(5) 0.234(5) 1. 0 
H5 H1+ 4 e 0.614(6) 0.331(5) 0.413(5) 1. 0 

#End of data_34613-ICSD


