data_83523-ICSD
#?2014 by Fachinformationszentrum Karlsruhe, and the U.S. Secretary of 
#Commerce on behalf of the United States.  All rights reserved.
_database_code_ICSD                83523
_audit_creation_date               1998/06/26
_audit_update_record               2012/02/01
_chemical_name_systematic
;
Dipotassium Catena-tungstodiphosphate(V)
;
_chemical_formula_structural       'K2 (W P2 O9)'
_chemical_formula_sum              'K2 O9 P2 W1'
_publ_section_title
;
New molybdeno- and tungstodiphosphates with the (N H4)2 Mo O2 P2 O7 
chain-like structure
;
loop_
_citation_id
_citation_journal_abbrev
_citation_year
_citation_journal_volume
_citation_page_first
_citation_page_last
_citation_journal_id_ASTM
primary
;
Comptes Rendus Hebdomadaires des Seances de l`Academie des Sciences, 
Ser. II (1994-)
;
 1997 324 189 195 CMCAEK
_publ_author_name
;
Borel, M.M.;Leclaire, A.;Chardon, J.;Michel, C.;Raveau, B.
;
_cell_length_a                     13.766(1)
_cell_length_b                     8.002(1)
_cell_length_c                     15.497(1)
_cell_angle_alpha                  90.
_cell_angle_beta                   98.34(1)
_cell_angle_gamma                  90.
_cell_volume                       1689.03
_cell_formula_units_Z              8
_symmetry_space_group_name_H-M     'C 1 2/c 1'
_symmetry_Int_Tables_number        15
_refine_ls_R_factor_all            .039
loop_
_symmetry_equiv_pos_site_id
_symmetry_equiv_pos_as_xyz
  1	'x, -y, z+.5'
  2	'-x, -y, -z'
  3	'-x, y, -z+.5'
  4	'x, y, z'
  5	'x+.5, -y+.5, z+.5'
  6	'-x+.5, -y+.5, -z'
  7	'-x+.5, y+.5, -z+.5'
  8	'x+.5, y+.5, z'
loop_
_atom_type_symbol
_atom_type_oxidation_number
K1+	1
O2-	-2
P5+	5
W6+	6
loop_
_atom_site_label
_atom_site_type_symbol
_atom_site_symmetry_multiplicity
_atom_site_Wyckoff_symbol
_atom_site_fract_x
_atom_site_fract_y
_atom_site_fract_z
_atom_site_occupancy
_atom_site_attached_hydrogens
_atom_site_U_iso_or_equiv
W1 W6+ 8 f 0.11472(5) 0.14487(9) 0.13527(4) 1. 0 0.0126(1) 
P1 P5+ 8 f 0.1283(3) 0.0821(5) 0.3443(2) 1. 0 0.008(1) 
P2 P5+ 8 f -.0367(3) 0.1996(5) 0.5768(2) 1. 0 0.006(1) 
K1 K1+ 8 f 0.3543(2) 0.1619(5) 0.2613(2) 1. 0 0.017(1) 
K2 K1+ 8 f 0.1436(2) 0.5817(4) -.0216(2) 1. 0 0.019(1) 
O1 O2- 8 f 0.1468(6) 0.331(1) 0.1866(6) 1. 0 0.014(1) 
O2 O2- 8 f 0.2255(7) 0.075(1) 0.1120(6) 1. 0 0.013(2) 
O3 O2- 8 f 0.0711(6) 0.250(1) 0.0195(6) 1. 0 0.007(2) 
O4 O2- 8 f 0.1220(6) 0.019(1) 0.2491(8) 1. 0 0.007(2) 
O5 O2- 8 f -.0367(6) 0.181(1) 0.1449(6) 1. 0 0.010(2) 
O6 O2- 8 f 0.0525(6) -.088(1) 0.0821(6) 1. 0 0.008(2) 
O7 O2- 8 f 0.1257(7) -.090(1) 0.3965(6) 1. 0 0.011(2) 
O8 O2- 8 f 0.2226(6) 0.167(1) 0.3780(6) 1. 0 0.013(2) 
O9 O2- 8 f -.0259(6) 0.352(1) 0.6296(6) 1. 0 0.015(2) 

#End of data_83523-ICSD


