data_181460-ICSD
#?2014 by Fachinformationszentrum Karlsruhe, and the U.S. Secretary of 
#Commerce on behalf of the United States.  All rights reserved.
_database_code_ICSD                181460
_audit_creation_date               2012/02/01
_chemical_name_systematic          'Magnesium Oxide - R-3m, Unstable'
_chemical_formula_structural       'Mg O'
_chemical_formula_sum              'Mg1 O1'
_publ_section_title
;
Structural richness of ionic binary materials: an exploration of the 
energy landscape of magnesium oxide
;
loop_
_citation_id
_citation_journal_abbrev
_citation_year
_citation_journal_volume
_citation_page_first
_citation_page_last
_citation_journal_id_ASTM
primary 'Physical Review, Serie 3. B - Condensed Matter (18,1978-)'
 2011 83 024104-1 024104-9 PRBMDO
_publ_author_name                  'Zwijnenburg, M.A.;Bromley, S.T.'
_cell_length_a                     21.5903
_cell_length_b                     6.1608
_cell_length_c                     4.2143
_cell_angle_alpha                  90.
_cell_angle_beta                   90.
_cell_angle_gamma                  90.
_cell_volume                       560.56
_cell_formula_units_Z              24
_symmetry_space_group_name_H-M     'I b a m'
_symmetry_Int_Tables_number        72
loop_
_symmetry_equiv_pos_site_id
_symmetry_equiv_pos_as_xyz
  1	'-x, y, z+.5'
  2	'x, -y, z+.5'
  3	'x, y, -z'
  4	'-x, -y, -z'
  5	'x, -y, -z+.5'
  6	'-x, y, -z+.5'
  7	'-x, -y, z'
  8	'x, y, z'
  9	'-x+.5, y+.5, z'
 10	'x+.5, -y+.5, z'
 11	'x+.5, y+.5, -z+.5'
 12	'-x+.5, -y+.5, -z+.5'
 13	'x+.5, -y+.5, -z'
 14	'-x+.5, y+.5, -z'
 15	'-x+.5, -y+.5, z+.5'
 16	'x+.5, y+.5, z+.5'
loop_
_atom_type_symbol
_atom_type_oxidation_number
Mg2+	2
O2-	-2
loop_
_atom_site_label
_atom_site_type_symbol
_atom_site_symmetry_multiplicity
_atom_site_Wyckoff_symbol
_atom_site_fract_x
_atom_site_fract_y
_atom_site_fract_z
_atom_site_occupancy
_atom_site_attached_hydrogens
Mg1 Mg2+ 8 j 0.04759 0.16652 0 1. 0 
Mg2 Mg2+ 8 j 0.20937 0.16568 0 1. 0 
Mg3 Mg2+ 8 j 0.12814 0.33519 0.5 1. 0 
O1 O2- 8 j 0.12821 0.33483 0 1. 0 
O2 O2- 8 j 0.04756 0.17112 0.5 1. 0 
O3 O2- 8 j 0.20937 0.16560 0.5 1. 0 

#End of data_181460-ICSD


