data_246855-ICSD
#?2014 by Fachinformationszentrum Karlsruhe, and the U.S. Secretary of 
#Commerce on behalf of the United States.  All rights reserved.
_database_code_ICSD                246855
_audit_creation_date               2010/02/01
_chemical_name_systematic          'Lithium Iron(II) Phosphate(V)'
_chemical_formula_structural       'Li Fe (P O4)'
_chemical_formula_sum              'Fe1 Li1 O4 P1'
_publ_section_title
;
Nature of insulating-phase transition and degradation of structure 
and electrochemical reactivity in an olivine-structured material, Li 
Fe P O4
;
loop_
_citation_id
_citation_journal_abbrev
_citation_year
_citation_journal_volume
_citation_journal_issue
_citation_page_first
_citation_page_last
_citation_journal_id_ASTM
primary 'Inorganic Chemistry' 2009 48 17 8271 8275 INOCAJ
_publ_author_name
;
Song Min-Sang;Kang Yong-Mook;Kim Yong-Il;Park Kyu-Sung;Kwon Hyuk-Sang
;
_cell_length_a                     10.3317(2)
_cell_length_b                     6.0102(1)
_cell_length_c                     4.6955(1)
_cell_angle_alpha                  90.
_cell_angle_beta                   90.
_cell_angle_gamma                  90.
_cell_volume                       291.57
_cell_formula_units_Z              4
_symmetry_space_group_name_H-M     'P n m a'
_symmetry_Int_Tables_number        62
_refine_ls_R_factor_all            .0815
loop_
_symmetry_equiv_pos_site_id
_symmetry_equiv_pos_as_xyz
  1	'x+.5, y, -z+.5'
  2	'x, -y+.5, z'
  3	'-x+.5, y+.5, z+.5'
  4	'-x, -y, -z'
  5	'-x+.5, -y, z+.5'
  6	'-x, y+.5, -z'
  7	'x+.5, -y+.5, -z+.5'
  8	'x, y, z'
loop_
_atom_type_symbol
_atom_type_oxidation_number
Fe2+	2
Li1+	1
O2-	-2
P5+	5
loop_
_atom_site_label
_atom_site_type_symbol
_atom_site_symmetry_multiplicity
_atom_site_Wyckoff_symbol
_atom_site_fract_x
_atom_site_fract_y
_atom_site_fract_z
_atom_site_occupancy
_atom_site_attached_hydrogens
_atom_site_U_iso_or_equiv
Fe1 Fe2+ 4 a 0 0 0 1. 0 0.0227(1) 
Li1 Li1+ 4 c 0.2823(1) 0.25 0.9743(2) 1. 0 0.0130(2) 
P1 P5+ 4 c 0.0955(1) 0.25 0.4185(1) 1. 0 0.0132(1) 
O1 O2- 4 c 0.0943(2) 0.25 0.7421(1) 1. 0 0.0117(2) 
O2 O2- 4 c 0.4558(1) 0.25 0.2084(2) 1. 0 0.0076(1) 
O3 O2- 8 d 0.1646(1) 0.0465(1) 0.2862(2) 1. 0 0.0083(2) 

#End of data_246855-ICSD


