data_49556-ICSD
#?2014 by Fachinformationszentrum Karlsruhe, and the U.S. Secretary of 
#Commerce on behalf of the United States.  All rights reserved.
_database_code_ICSD                49556
_audit_creation_date               1984/12/31
_audit_update_record               2012/08/01
_chemical_name_systematic
;
Mercury Dipotassium Dichloride Dichromate
;
_chemical_formula_structural       'Hg Cl2 K2 Cr2 O7'
_chemical_formula_sum              'Cl2 Cr2 Hg1 K2 O7'
_publ_section_title
;
Structures of Mercury Dichloride - Dipotassium Dichromate (1/1), Hg 
Cl2 K2 Cr2 O7, and Mercury Dichloride - Diammonium Dichromate (1/1), 
Hg Cl2 ((N H4)2 Cr2 O7)
;
loop_
_citation_id
_citation_journal_abbrev
_citation_year
_citation_journal_volume
_citation_page_first
_citation_page_last
_citation_journal_id_ASTM
primary 'Acta Crystallographica, Section C: Crystal Structure Communications'
 1984 40 725 728 ACSCEE
_publ_author_name
;
Averbuch-Pouchot, M.T.;El-Horr, N.;Guitel, J.C.
;
_cell_length_a                     12.372(8)
_cell_length_b                     10.438(8)
_cell_length_c                     8.191(5)
_cell_angle_alpha                  90.
_cell_angle_beta                   92.32(5)
_cell_angle_gamma                  90.
_cell_volume                       1056.91
_cell_formula_units_Z              4
_symmetry_space_group_name_H-M     'P 1 21/n 1'
_symmetry_Int_Tables_number        14
_refine_ls_R_factor_all            .042
loop_
_symmetry_equiv_pos_site_id
_symmetry_equiv_pos_as_xyz
  1	'-x+.5, y+.5, -z+.5'
  2	'-x, -y, -z'
  3	'x+.5, -y+.5, z+.5'
  4	'x, y, z'
loop_
_atom_type_symbol
_atom_type_oxidation_number
Cl1-	-1
Cr6+	6
Hg2+	2
K1+	1
O2-	-2
loop_
_atom_site_label
_atom_site_type_symbol
_atom_site_symmetry_multiplicity
_atom_site_Wyckoff_symbol
_atom_site_fract_x
_atom_site_fract_y
_atom_site_fract_z
_atom_site_occupancy
_atom_site_attached_hydrogens
Hg1 Hg2+ 2 a 0 0 0 1. 0 
Hg2 Hg2+ 2 b 0 0 0.5 1. 0 
Cr1 Cr6+ 4 e 0.3864(2) 0.1671(2) 0.0437(2) 1. 0 
Cr2 Cr6+ 4 e 0.3897(2) 0.1636(2) 0.4537(2) 1. 0 
K1 K1+ 4 e 0.1586(2) 0.3249(3) 0.7485(4) 1. 0 
K2 K1+ 4 e 0.1301(2) 0.3489(3) 0.2515(4) 1. 0 
Cl1 Cl1- 4 e 0.1381(3) 0.0219(4) 0.2034(4) 1. 0 
Cl2 Cl1- 4 e 0.1377(3) 0.0187(4) 0.7034(4) 1. 0 
O1 O2- 4 e 0.4041(7) 0.116(1) 0.249(1) 1. 0 
O2 O2- 4 e -.0046(10) 0.255(1) 0.494(2) 1. 0 
O3 O2- 4 e 0.2832(9) 0.261(1) 0.021(1) 1. 0 
O4 O2- 4 e 0.3720(12) 0.036(1) 0.936(2) 1. 0 
O5 O2- 4 e 0.4958(12) 0.248(1) 0.507(2) 1. 0 
O6 O2- 4 e 0.3891(10) 0.035(1) 0.559(1) 1. 0 
O7 O2- 4 e 0.2809(9) 0.243(1) 0.474(1) 1. 0 

#End of data_49556-ICSD


