data_26093-ICSD
#?2014 by Fachinformationszentrum Karlsruhe, and the U.S. Secretary of 
#Commerce on behalf of the United States.  All rights reserved.
_database_code_ICSD                26093
_audit_creation_date               1986/10/14
_chemical_name_systematic
;
Octetto-octaselenium Tetrachloroaluminate
;
_chemical_formula_structural       'Se8 (Al Cl4)2'
_chemical_formula_sum              'Al2 Cl8 Se8'
_publ_section_title
;
The Crystal Structure of Octaselenium(2+) Tetrachloroaluminate, Se8 
(Al Cl4)2
;
loop_
_citation_id
_citation_journal_abbrev
_citation_year
_citation_journal_volume
_citation_page_first
_citation_page_last
_citation_journal_id_ASTM
primary 'Inorganic Chemistry' 1971 10 1749 1753 INOCAJ
_publ_author_name
;
McMillan, R.K.;Prince, D.J.;Corbett, J.D.
;
_cell_length_a                     14.92(2)
_cell_length_b                     10.67(1)
_cell_length_c                     13.22(1)
_cell_angle_alpha                  90.
_cell_angle_beta                   90.
_cell_angle_gamma                  90.
_cell_volume                       2104.58
_cell_formula_units_Z              4
_symmetry_space_group_name_H-M     'P c a 21'
_symmetry_Int_Tables_number        29
_refine_ls_R_factor_all            .077
loop_
_symmetry_equiv_pos_site_id
_symmetry_equiv_pos_as_xyz
  1	'x+.5, -y, z'
  2	'-x+.5, y, z+.5'
  3	'-x, -y, z+.5'
  4	'x, y, z'
loop_
_atom_type_symbol
_atom_type_oxidation_number
Al3+	3
Cl1-	-1
Se.25+	.25
loop_
_atom_site_label
_atom_site_type_symbol
_atom_site_symmetry_multiplicity
_atom_site_Wyckoff_symbol
_atom_site_fract_x
_atom_site_fract_y
_atom_site_fract_z
_atom_site_occupancy
_atom_site_attached_hydrogens
_atom_site_B_iso_or_equiv
Se1 Se.25+ 4 a 0.1467(5) 0.0677(7) 0.25 1. 0 0 
Se2 Se.25+ 4 a 0.0384(9) 0.0621(9) 0.1277(13) 1. 0 0 
Se3 Se.25+ 4 a 0.0440(8) 0.0869(8) 0.3798(10) 1. 0 0 
Se4 Se.25+ 4 a 0.0003(7) 0.2736(8) 0.1324(12) 1. 0 0 
Se5 Se.25+ 4 a -.0064(6) 0.2920(8) 0.3467(11) 1. 0 0 
Se6 Se.25+ 4 a 0.1357(9) 0.3744(9) 0.1126(11) 1. 0 0 
Se7 Se.25+ 4 a 0.1290(8) 0.3962(8) 0.3599(11) 1. 0 0 
Se8 Se.25+ 4 a 0.1028(5) 0.5336(6) 0.2278(10) 1. 0 0 
Al1 Al3+ 4 a 0.7630(16) 0.2401(18) 0.5125(20) 1. 0 2.8 
Cl1 Cl1- 4 a 0.6890(16) 0.0877(19) 0.5721(21) 1. 0 4.8 
Cl2 Cl1- 4 a 0.7043(13) 0.4107(17) 0.5479(17) 1. 0 3.5 
Cl3 Cl1- 4 a 0.8957(12) 0.2297(17) 0.5730(16) 1. 0 3.3 
Cl4 Cl1- 4 a 0.7781(13) 0.2134(18) 0.3510(18) 1. 0 3.9 
Al2 Al3+ 4 a 0.3863(14) 0.2633(20) 0.3214(19) 1. 0 2.5 
Cl5 Cl1- 4 a 0.3062(16) 0.1590(21) 0.4178(20) 1. 0 5.2 
Cl6 Cl1- 4 a 0.3552(15) 0.4570(19) 0.3377(19) 1. 0 4.9 
Cl7 Cl1- 4 a 0.370(2) 0.2136(26) 0.1693(22) 1. 0 6.3 
Cl8 Cl1- 4 a 0.5239(13) 0.2375(18) 0.3667(18) 1. 0 4.3 

#End of data_26093-ICSD


