data_155734-ICSD
#?2014 by Fachinformationszentrum Karlsruhe, and the U.S. Secretary of 
#Commerce on behalf of the United States.  All rights reserved.
_database_code_ICSD                155734
_audit_creation_date               2007/08/01
_chemical_name_systematic          'Dicalcium Nickel Tungsten Oxide'
_chemical_formula_structural       'Ca2 Ni W O6'
_chemical_formula_sum              'Ca2 Ni1 O6 W1'
_publ_section_title
;
Phase transitions of the magnetoelectric A2 Ni Mo O6 (A = Ba, Sr) and 
Ca2 Ni W O6 by neutron diffraction
;
loop_
_citation_id
_citation_journal_abbrev
_citation_year
_citation_journal_volume
_citation_page_first
_citation_page_last
_citation_journal_id_ASTM
primary Ferroelectrics 2006 339 235 243 FEROA8
2 'Materials Research Bulletin' 2006 41 144 157 MRBUAC
_publ_author_name
;
Eriksson, A.K.;Eriksson, S.-G.;Ivanov, S.A.;Knee, C.S.;Rundloef, H.
;
_cell_length_a                     5.403(3)
_cell_length_b                     5.538(3)
_cell_length_c                     7.689(4)
_cell_angle_alpha                  90.
_cell_angle_beta                   89.766(6)
_cell_angle_gamma                  90.
_cell_volume                       230.07
_cell_formula_units_Z              2
_symmetry_space_group_name_H-M     'P 1 21/n 1'
_symmetry_Int_Tables_number        14
loop_
_symmetry_equiv_pos_site_id
_symmetry_equiv_pos_as_xyz
  1	'-x+.5, y+.5, -z+.5'
  2	'-x, -y, -z'
  3	'x+.5, -y+.5, z+.5'
  4	'x, y, z'
loop_
_atom_type_symbol
_atom_type_oxidation_number
Ca2+	2
Ni2+	2
O2-	-2
W6+	6
loop_
_atom_site_label
_atom_site_type_symbol
_atom_site_symmetry_multiplicity
_atom_site_Wyckoff_symbol
_atom_site_fract_x
_atom_site_fract_y
_atom_site_fract_z
_atom_site_occupancy
_atom_site_attached_hydrogens
_atom_site_B_iso_or_equiv
Ca1 Ca2+ 4 e 0.9893(7) 0.0496(4) 0.2497(9) 1. 0 0.73(6) 
Ni1 Ni2+ 2 b 0 0 0.5 1. 0 0.32(4) 
W1 W6+ 2 c 0.5 0 0.5 1. 0 0.59(8) 
O1 O2- 4 e 0.0859(5) 0.4758(4) 0.2595(5) 1. 0 0.71(6) 
O2 O2- 4 e 0.6913(6) 0.2844(6) 0.0449(6) 1. 0 0.65(8) 
O3 O2- 4 e 0.2143(6) 0.1946(6) 0.9583(6) 1. 0 0.50(8) 

#End of data_155734-ICSD


