data_98302-ICSD
#?2014 by Fachinformationszentrum Karlsruhe, and the U.S. Secretary of 
#Commerce on behalf of the United States.  All rights reserved.
_database_code_ICSD                98302
_audit_creation_date               2004/10/01
_chemical_name_systematic          'Terbium Aluminate'
_chemical_formula_structural       'Tb (Al O3)'
_chemical_formula_sum              'Al1 O3 Tb1'
_publ_section_title
;
Crystal structure of solid solutions RE Fe1-x (Al or Ga)x O3 (RE = 
Tb, Er, Tm) and the correlation between superexchange interaction 
Fe(+3) - O(-2) - Fe(+3) linkage angles and Neel temperature
;
loop_
_citation_id
_citation_journal_abbrev
_citation_year
_citation_journal_volume
_citation_page_first
_citation_page_last
_citation_journal_id_ASTM
primary 'Journal of Magnetism and Magnetic Materials' 2003 257 206 219 JMMMDC
_publ_author_name
;
Bombik, A.;Lesniewska, B.;Mayer, J.;Pacyna, A.W.
;
_cell_length_a                     5.22979(20)
_cell_length_b                     5.30629(19)
_cell_length_c                     7.41629(24)
_cell_angle_alpha                  90
_cell_angle_beta                   90
_cell_angle_gamma                  90
_cell_volume                       205.81
_cell_formula_units_Z              4
_symmetry_space_group_name_H-M     'P b n m'
_symmetry_Int_Tables_number        62
loop_
_symmetry_equiv_pos_site_id
_symmetry_equiv_pos_as_xyz
  1	'-x+.5, y+.5, z'
  2	'x, y, -z+.5'
  3	'x+.5, -y+.5, z+.5'
  4	'-x, -y, -z'
  5	'x+.5, -y+.5, -z'
  6	'-x, -y, z+.5'
  7	'-x+.5, y+.5, -z+.5'
  8	'x, y, z'
loop_
_atom_type_symbol
_atom_type_oxidation_number
Al3+	3
O2-	-2
Tb3+	3
loop_
_atom_site_label
_atom_site_type_symbol
_atom_site_symmetry_multiplicity
_atom_site_Wyckoff_symbol
_atom_site_fract_x
_atom_site_fract_y
_atom_site_fract_z
_atom_site_occupancy
_atom_site_attached_hydrogens
Al1 Al3+ 4 b 0.5 0 0 1. 0 
Tb1 Tb3+ 4 c -.01045(61) 0.04283(31) 0.250 1. 0 
O1 O2- 4 c 0.0734(44) 0.4768(29) 0.250 1. 0 
O2 O2- 8 d 0.2804(43) 0.2830(39) 0.0427(22) 1. 0 

#End of data_98302-ICSD


