data_29362-ICSD
#?2014 by Fachinformationszentrum Karlsruhe, and the U.S. Secretary of 
#Commerce on behalf of the United States.  All rights reserved.
_database_code_ICSD                29362
_audit_creation_date               1984/10/31
_audit_update_record               2007/08/01
_chemical_name_systematic          'Potassium Copper Tritantalate'
_chemical_formula_structural       'K Cu (Ta3 O9)'
_chemical_formula_sum              'Cu1 K1 O9 Ta3'
_publ_section_title
;
A pentagonal tunnel structure with copper in square planar 
coordination: The oxides K Cu Nb3 O9 and K Cu Ta3 O9
;
loop_
_citation_id
_citation_journal_abbrev
_citation_year
_citation_journal_volume
_citation_page_first
_citation_page_last
_citation_journal_id_ASTM
primary 'Journal of Solid State Chemistry' 1984 53 184 192 JSSCBI
2 'Powder Diffraction' 1987 2 191 201 PODIE2
3 'Powder Diffraction' 1987 2 257 265 PODIE2
_publ_author_name                  'Groult, D.;Hervieu, M.;Raveau, B.'
_cell_length_a                     8.862(8)
_cell_length_b                     10.187(10)
_cell_length_c                     7.638(6)
_cell_angle_alpha                  90.
_cell_angle_beta                   90.
_cell_angle_gamma                  90.
_cell_volume                       689.54
_cell_formula_units_Z              4
_symmetry_space_group_name_H-M     'P n c 2'
_symmetry_Int_Tables_number        30
_refine_ls_R_factor_all            .067
loop_
_symmetry_equiv_pos_site_id
_symmetry_equiv_pos_as_xyz
  1	'x, -y+.5, z+.5'
  2	'-x, y+.5, z+.5'
  3	'-x, -y, z'
  4	'x, y, z'
loop_
_atom_type_symbol
_atom_type_oxidation_number
Cu2+	2
K1+	1
O2-	-2
Ta5+	5
loop_
_atom_site_label
_atom_site_type_symbol
_atom_site_symmetry_multiplicity
_atom_site_Wyckoff_symbol
_atom_site_fract_x
_atom_site_fract_y
_atom_site_fract_z
_atom_site_occupancy
_atom_site_attached_hydrogens
_atom_site_B_iso_or_equiv
K1 K1+ 4 c 0.081(4) 0.259(6) 0.255(9) 1. 0 0.3 
Cu1 Cu2+ 2 b 0.5 0 0.252(8) 1. 0 0.3 
Cu2 Cu2+ 2 b 0.5 0 0.752(4) 1. 0 0.3 
Ta1 Ta5+ 4 c 0.4292(11) 0.252(5) -.003(8) 1. 0 0.3 
Ta2 Ta5+ 4 c 0.8021(15) 0.4360(11) -.018(5) 1. 0 0.3 
Ta3 Ta5+ 4 c 0.7991(15) 0.0613(11) -.012(9) 1. 0 0.3 
O1 O2- 2 a 0 0 0 1. 0 1. 
O2 O2- 2 a 0 0 0.5 1. 0 1. 
O3 O2- 4 c 0.260(8) 0.118(8) -.031(9) 1. 0 1. 
O4 O2- 4 c 0.259(8) 0.403(8) 0.061(8) 1. 0 1. 
O5 O2- 4 c 0.575(7) 0.384(8) 0.058(9) 1. 0 1. 
O6 O2- 4 c 0.576(8) 0.392(7) 0.461(8) 1. 0 1. 
O7 O2- 4 c 0.875(8) 0.253(8) 0.006(9) 1. 0 1. 
O8 O2- 4 c 0.406(8) 0.186(8) 0.258(9) 1. 0 1. 
O9 O2- 4 c 0.171(9) 0.589(10) 0.249(8) 1. 0 1. 
O10 O2- 4 c 0.271(9) 0.540(11) 0.757(9) 1. 0 1. 

#End of data_29362-ICSD


