data_4048-ICSD
#?2014 by Fachinformationszentrum Karlsruhe, and the U.S. Secretary of 
#Commerce on behalf of the United States.  All rights reserved.
_database_code_ICSD                4048
_audit_creation_date               1980/01/01
_audit_update_record               2013/08/01
_chemical_name_systematic
;
Potassium Chlorotrifluoroantimonate(III)
;
_chemical_formula_structural       'K (Sb F3 Cl)'
_chemical_formula_sum              'Cl1 F3 K1 Sb1'
_publ_section_title
;
Etude structurale du monochlorotrifluoroantimonate de potassium
;
loop_
_citation_id
_citation_journal_abbrev
_citation_year
_citation_journal_volume
_citation_page_first
_citation_page_last
_citation_journal_id_ASTM
primary 'Revue de Chimie Minerale' 1975 12 485 492 RVCMA8
_publ_author_name
;
Ducourant, M.B.;Fourcade, R.;Philippot, E.;Mascherpa, G.
;
_cell_length_a                     8.117(2)
_cell_length_b                     14.755(5)
_cell_length_c                     8.012(2)
_cell_angle_alpha                  90.
_cell_angle_beta                   90.
_cell_angle_gamma                  90.
_cell_volume                       959.57
_cell_formula_units_Z              8
_symmetry_space_group_name_H-M     'P b c a'
_symmetry_Int_Tables_number        61
_refine_ls_R_factor_all            .042
loop_
_symmetry_equiv_pos_site_id
_symmetry_equiv_pos_as_xyz
  1	'x+.5, y, -z+.5'
  2	'x, -y+.5, z+.5'
  3	'-x+.5, y+.5, z'
  4	'-x, -y, -z'
  5	'-x+.5, -y, z+.5'
  6	'-x, y+.5, -z+.5'
  7	'x+.5, -y+.5, -z'
  8	'x, y, z'
loop_
_atom_type_symbol
_atom_type_oxidation_number
Cl1-	-1
F1-	-1
K1+	1
Sb3+	3
loop_
_atom_site_label
_atom_site_type_symbol
_atom_site_symmetry_multiplicity
_atom_site_Wyckoff_symbol
_atom_site_fract_x
_atom_site_fract_y
_atom_site_fract_z
_atom_site_occupancy
_atom_site_attached_hydrogens
_atom_site_U_iso_or_equiv
Sb1 Sb3+ 8 c 0.0048(1) 0.32456(5) 0.12711(8) 1. 0 0.0049(2) 
K1 K1+ 8 c 0.1955(4) 0.0581(2) 0.1817(3) 1. 0 0.0051(5) 
Cl1 Cl1- 8 c 0.3730(5) 0.3562(2) 0.0137(3) 1. 0 0.0064(6) 
F1 F1- 8 c 0.498(1) 0.1514(6) 0.1129(8) 1. 0 0.009(2) 
F2 F1- 8 c 0.7713(9) 0.353(7) 0.1093(8) 1. 0 0.003(1) 
F3 F1- 8 c 0.036(1) 0.453(5) 0.16(9) 1. 0 0.009(1) 

#End of data_4048-ICSD


