data_4319-ICSD
#?2014 by Fachinformationszentrum Karlsruhe, and the U.S. Secretary of 
#Commerce on behalf of the United States.  All rights reserved.
_database_code_ICSD                4319
_audit_creation_date               1980/01/01
_audit_update_record               1998/06/29
_chemical_name_systematic
;
Dicalcium Ditellurium Tetraoxide Carbonate
;
_chemical_formula_structural       'Ca2 Te2 O4 (C O3)2'
_chemical_formula_sum              'C2 Ca2 O10 Te2'
_chemical_name_mineral             Mroseite
_publ_section_title
;
The crystal structure of mroseite, Ca Te O2 C O3
;
loop_
_citation_id
_citation_journal_abbrev
_citation_year
_citation_journal_volume
_citation_page_first
_citation_page_last
_citation_journal_id_ASTM
primary 'Canadian Mineralogist' 1975 13 383 387 CAMIA6
_publ_author_name                  'Fischer, R.;Pertlik, F.;Zemann, J.'
_cell_length_a                     6.988(15)
_cell_length_b                     11.201(10)
_cell_length_c                     10.566(10)
_cell_angle_alpha                  90.
_cell_angle_beta                   90.
_cell_angle_gamma                  90.
_cell_volume                       827.03
_cell_formula_units_Z              4
_symmetry_space_group_name_H-M     'P b c a'
_symmetry_Int_Tables_number        61
_refine_ls_R_factor_all            .066
loop_
_symmetry_equiv_pos_site_id
_symmetry_equiv_pos_as_xyz
  1	'x+.5, y, -z+.5'
  2	'x, -y+.5, z+.5'
  3	'-x+.5, y+.5, z'
  4	'-x, -y, -z'
  5	'-x+.5, -y, z+.5'
  6	'-x, y+.5, -z+.5'
  7	'x+.5, -y+.5, -z'
  8	'x, y, z'
loop_
_atom_type_symbol
_atom_type_oxidation_number
C4+	4
Ca2+	2
O2-	-2
Te4+	4
loop_
_atom_site_label
_atom_site_type_symbol
_atom_site_symmetry_multiplicity
_atom_site_Wyckoff_symbol
_atom_site_fract_x
_atom_site_fract_y
_atom_site_fract_z
_atom_site_occupancy
_atom_site_attached_hydrogens
_atom_site_B_iso_or_equiv
Ca1 Ca2+ 8 c 0.48009(49) 0.17222(25) -.00906(28) 1. 0 0 
Te1 Te4+ 8 c 0.09155(15) 0.01470(7) 0.13362(8) 1. 0 0 
O1 O2- 8 c 0.3553(17) 0.3614(8) 0.2760(9) 1. 0 0.6 
C1 C4+ 8 c 0.2632(32) 0.2619(15) 0.2573(17) 1. 0 1.7 
O2 O2- 8 c 0.2283(19) 0.1962(9) 0.3503(10) 1. 0 1.2 
O3 O2- 8 c 0.2158(17) 0.2285(8) 0.1398(10) 1. 0 0.7 
O4 O2- 8 c 0.5226(19) 0.3919(10) 0.027(1) 1. 0 1.2 
O5 O2- 8 c 0.1585(18) 0.4970(9) 0.0802(10) 1. 0 1. 

loop_
_atom_site_aniso_label
_atom_site_aniso_type_symbol
_atom_site_aniso_B_11
_atom_site_aniso_B_22
_atom_site_aniso_B_33
_atom_site_aniso_B_12
_atom_site_aniso_B_13
_atom_site_aniso_B_23
Ca1 Ca2+ 0.417 0.366 0.675 -.011 -.037 0.039
Te1 Te4+ 1.04 1.074 1.032 -.049 0.084 -.011
#End of data_4319-ICSD


