data_246398-ICSD
#?2014 by Fachinformationszentrum Karlsruhe, and the U.S. Secretary of 
#Commerce on behalf of the United States.  All rights reserved.
_database_code_ICSD                246398
_audit_creation_date               2009/08/01
_chemical_name_systematic          'Lithium Iron(III) Diphosphate'
_chemical_formula_structural       'Li Fe (P2 O7)'
_chemical_formula_sum              'Fe1 Li1 O7 P2'
_publ_section_title
;
Crystal structure, magnetic and infrared spectroscopy studies of the 
Li Cry Fe1-y P2 O7 solid solution
;
loop_
_citation_id
_citation_journal_abbrev
_citation_year
_citation_journal_volume
_citation_journal_issue
_citation_page_first
_citation_page_last
_citation_journal_id_ASTM
primary 'Journal of Solid State Chemistry' 2009 182 4 821 826 JSSCBI
_publ_author_name
;
Bih, H.;Saadoune, I.;Ehrenberg, H.;Fuess, H.
;
_cell_length_a                     4.8335(1)
_cell_length_b                     8.1014(2)
_cell_length_c                     6.9488(5)
_cell_angle_alpha                  90
_cell_angle_beta                   109.36(1)
_cell_angle_gamma                  90
_cell_volume                       256.72
_cell_formula_units_Z              2
_symmetry_space_group_name_H-M     'P 1 21 1'
_symmetry_Int_Tables_number        4
_refine_ls_R_factor_all            .03
loop_
_symmetry_equiv_pos_site_id
_symmetry_equiv_pos_as_xyz
  1	'-x, y+.5, -z'
  2	'x, y, z'
loop_
_atom_type_symbol
_atom_type_oxidation_number
Fe3+	3
Li1+	1
O2-	-2
P5+	5
loop_
_atom_site_label
_atom_site_type_symbol
_atom_site_symmetry_multiplicity
_atom_site_Wyckoff_symbol
_atom_site_fract_x
_atom_site_fract_y
_atom_site_fract_z
_atom_site_occupancy
_atom_site_attached_hydrogens
Li1 Li1+ 2 a 0.811(9) 0.382(4) 0.811(9) 1. 0 
Fe1 Fe3+ 2 a 0.2205(6) 0.25 0.2342(1) 1. 0 
P1 P5+ 2 a 0.797(1) 0.4676(2) 0.416(8) 1. 0 
P2 P5+ 2 a 0.602(5) 0.0684(9) 0.9795(4) 1. 0 
O1 O2- 2 a 0.403(3) 0.074(1) 0.112(1) 1. 0 
O2 O2- 2 a 0.814(6) 0.219(4) 0.016(1) 1. 0 
O3 O2- 2 a 0.134(7) 0.058(9) 0.380(9) 1. 0 
O4 O2- 2 a 0.059(1) 0.429(5) 0.359(4) 1. 0 
O5 O2- 2 a 0.249(4) 0.405(8) 0.006(8) 1. 0 
O6 O2- 2 a 0.404(4) 0.091(1) 0.744(8) 1. 0 
O7 O2- 2 a 0.606(7) 0.322(4) 0.421(3) 1. 0 

#End of data_246398-ICSD


