data_424398-ICSD
#?2014 by Fachinformationszentrum Karlsruhe, and the U.S. Secretary of 
#Commerce on behalf of the United States.  All rights reserved.
_database_code_ICSD                424398
_audit_creation_date               2013/02/01
_audit_update_record               2013/08/01
_chemical_name_systematic          'Lead Aluminoborate'
_chemical_formula_structural       'Pb (Al B O4)'
_chemical_formula_sum              'Al1 B1 O4 Pb1'
_publ_section_title
;
Transition-metal substitution in Pb Al B O4: synthesis, structural 
and spectroscopic studies of manganese containing phases
;
loop_
_citation_id
_citation_journal_abbrev
_citation_year
_citation_journal_volume
_citation_journal_issue
_citation_page_first
_citation_page_last
_citation_journal_id_ASTM
primary 'Materials Research Bulletin' 2012 47 6 1323 1330 MRBUAC
_publ_author_name
;
Murshed, M.M.;Rusen, A.;Fischer, R.X.;Gesing, T.M.
;
_cell_length_a                     6.9710(1)
_cell_length_b                     8.0462(1)
_cell_length_c                     5.7403(0)
_cell_angle_alpha                  90.000
_cell_angle_beta                   90.000
_cell_angle_gamma                  90.000
_cell_volume                       321.97
_cell_formula_units_Z              4
_symmetry_space_group_name_H-M     'P n a m'
_symmetry_Int_Tables_number        62
_refine_ls_R_factor_all            .0544
loop_
_symmetry_equiv_pos_site_id
_symmetry_equiv_pos_as_xyz
  1	'x+.5, -y+.5, z'
  2	'x, y, -z+.5'
  3	'-x+.5, y+.5, z+.5'
  4	'-x, -y, -z'
  5	'-x+.5, y+.5, -z'
  6	'-x, -y, z+.5'
  7	'x+.5, -y+.5, -z+.5'
  8	'x, y, z'
loop_
_atom_type_symbol
_atom_type_oxidation_number
Al3+	3
B3+	3
O2-	-2
Pb2+	2
loop_
_atom_site_label
_atom_site_type_symbol
_atom_site_symmetry_multiplicity
_atom_site_Wyckoff_symbol
_atom_site_fract_x
_atom_site_fract_y
_atom_site_fract_z
_atom_site_occupancy
_atom_site_attached_hydrogens
_atom_site_B_iso_or_equiv
Pb1 Pb2+ 4 c 0.0648(1) 0.3616(1) 0.25 1 0 2.29(3) 
Al1 Al3+ 4 a 0 0 0 1 0 1.7(2) 
B1 B3+ 4 c 0.2659(18) 0.7608(16) 0.25 1 0 3.0(7) 
O1 O2- 4 c 0.4064(17) 0.3898(14) 0.25 1 0 2.2(2) 
O2 O2- 4 c 0.1651(11) 0.9056(9) 0.25 1 0 2.2(2) 
O3 O2- 8 d 0.3255(13) 0.6850(11) 0.0460(12) 1 0 2.2(2) 

#End of data_424398-ICSD


