data_281321-ICSD
#?2014 by Fachinformationszentrum Karlsruhe, and the U.S. Secretary of 
#Commerce on behalf of the United States.  All rights reserved.
_database_code_ICSD                281321
_audit_creation_date               2004/04/01
_chemical_name_systematic          'Silver Technetate(VII)'
_chemical_formula_structural       'Ag (Tc O4)'
_chemical_formula_sum              'Ag1 O4 Tc1'
_publ_section_title
;
Raman spectroscopy of silver pertechnetate
;
loop_
_citation_id
_citation_journal_abbrev
_citation_year
_citation_journal_volume
_citation_page_first
_citation_page_last
_citation_journal_id_ASTM
primary 'Acta Crystallographica, Section C: Crystal Structure Communications'
 2003 59 i45 i46 ACSCEE
_publ_author_name
;
Sarsfield, M.J.;Sutton, A.D.;Livens, F.R.;May, I.;Taylor, R.J.
;
_cell_length_a                     5.3026(12)
_cell_length_b                     5.3026(12)
_cell_length_c                     11.810(5)
_cell_angle_alpha                  90.
_cell_angle_beta                   90.
_cell_angle_gamma                  90.
_cell_volume                       332.07
_cell_formula_units_Z              4
_symmetry_space_group_name_H-M     'I 41/a Z'
_symmetry_Int_Tables_number        88
_refine_ls_R_factor_all            .0398
loop_
_symmetry_equiv_pos_site_id
_symmetry_equiv_pos_as_xyz
  1	'-y+.75, x+.75, -z+.75'
  2	'y+.25, -x+.75, -z+.75'
  3	'x, y+.5, -z'
  4	'-x, -y, -z'
  5	'y+.25, -x+.25, z+.25'
  6	'-y+.75, x+.25, z+.25'
  7	'-x, -y+.5, z'
  8	'x, y, z'
  9	'-y+.25, x+.25, -z+.25'
 10	'y+.75, -x+.25, -z+.25'
 11	'x+.5, y, -z+.5'
 12	'-x+.5, -y+.5, -z+.5'
 13	'y+.75, -x+.75, z+.75'
 14	'-y+.25, x+.75, z+.75'
 15	'-x+.5, -y, z+.5'
 16	'x+.5, y+.5, z+.5'
loop_
_atom_type_symbol
_atom_type_oxidation_number
Ag1+	1
O2-	-2
Tc7+	7
loop_
_atom_site_label
_atom_site_type_symbol
_atom_site_symmetry_multiplicity
_atom_site_Wyckoff_symbol
_atom_site_fract_x
_atom_site_fract_y
_atom_site_fract_z
_atom_site_occupancy
_atom_site_attached_hydrogens
_atom_site_U_iso_or_equiv
Ag1 Ag1+ 4 a 0 0.25 0.125 1. 0 0.0057(4) 
Tc1 Tc7+ 4 b 0.5 0.75 0.125 1. 0 0.0040(4) 
O1 O2- 16 f 0.2663(9) 0.6176(9) 0.0427(4) 1. 0 0.0034(8) 

loop_
_atom_site_aniso_label
_atom_site_aniso_type_symbol
_atom_site_aniso_U_11
_atom_site_aniso_U_22
_atom_site_aniso_U_33
_atom_site_aniso_U_12
_atom_site_aniso_U_13
_atom_site_aniso_U_23
Ag1 Ag1+ 0.0053(4) 0.0053(4) 0.0063(6) 0 0 0
Tc1 Tc7+ 0.0034(5) 0.0034(5) 0.0052(6) 0 0 0
#End of data_281321-ICSD


