data_162063-ICSD
#?2014 by Fachinformationszentrum Karlsruhe, and the U.S. Secretary of 
#Commerce on behalf of the United States.  All rights reserved.
_database_code_ICSD                162063
_audit_creation_date               2009/02/01
_chemical_name_systematic
;
Trisodium Erbium Catena-trisilicate
;
_chemical_formula_structural       'Na3 Er (Si3 O9)'
_chemical_formula_sum              'Er1 Na3 O9 Si3'
_publ_section_title
;
Synthesis and characterization of Er(III) and Y(III) sodium 
silicates: Na3 Er Si3 O9, a new infrared emitter
;
loop_
_citation_id
_citation_journal_abbrev
_citation_year
_citation_journal_volume
_citation_page_first
_citation_page_last
_citation_journal_id_ASTM
primary 'Chemistry of Materials' 2002 14 1767 1772 CMATEX
_publ_author_name
;
Ananias, D.;Rainho, J.P.;Ferreira, A.;Lopes, M.;Morais, C.M.;Rocha, 
J.;Carlos, L.D.
;
_cell_length_a                     15.1846
_cell_length_b                     15.0254
_cell_length_c                     15.1132
_cell_angle_alpha                  90.000
_cell_angle_beta                   90.000
_cell_angle_gamma                  90.000
_cell_volume                       3448.15
_cell_formula_units_Z              16
_symmetry_space_group_name_H-M     'P 21 21 21'
_symmetry_Int_Tables_number        19
loop_
_symmetry_equiv_pos_site_id
_symmetry_equiv_pos_as_xyz
  1	'-x, y+.5, -z+.5'
  2	'x+.5, -y+.5, -z'
  3	'-x+.5, -y, z+.5'
  4	'x, y, z'
loop_
_atom_type_symbol
_atom_type_oxidation_number
Er3+	3
Na1+	1
O2-	-2
Si4+	4
loop_
_atom_site_label
_atom_site_type_symbol
_atom_site_symmetry_multiplicity
_atom_site_Wyckoff_symbol
_atom_site_fract_x
_atom_site_fract_y
_atom_site_fract_z
_atom_site_occupancy
_atom_site_attached_hydrogens
_atom_site_U_iso_or_equiv
Er1 Er3+ 4 a 0.3817(7) 0.3759(7) 0.3680(8) 1.000 0 0.0180(9) 
Er2 Er3+ 4 a 0.1236(8) 0.1367(7) 0.1202(7) 1.000 0 0.0180(9) 
Er3 Er3+ 4 a 0.3806(8) 0.1126(6) 0.8626(7) 1.000 0 0.0180(9) 
Er4 Er3+ 4 a 0.1332(7) 0.3857(7) 0.6226(8) 1.000 0 0.0180(9) 
Si1 Si4+ 4 a 0.4613(12) 0.4717(15) 0.7536(13) 1.000 0 0.007(3) 
Si2 Si4+ 4 a 0.4772(13) 0.2560(13) 0.0263(14) 1.000 0 0.007(3) 
Si3 Si4+ 4 a 0.2309(13) 0.4761(14) 0.0053(14) 1.000 0 0.007(3) 
Si4 Si4+ 4 a 0.0343(13) 0.0274(14) 0.7758(14) 1.000 0 0.007(3) 
Si5 Si4+ 4 a 0.4844(15) 0.2789(14) 0.7064(17) 1.000 0 0.007(3) 
Si6 Si4+ 4 a 0.2346(15) 0.4758(13) 0.2199(13) 1.000 0 0.007(3) 
Si7 Si4+ 4 a 0.2822(14) 0.0152(12) 0.2302(14) 1.000 0 0.007(3) 
Si8 Si4+ 4 a 0.2869(13) 0.2865(14) 0.9874(13) 1.000 0 0.007(3) 
Si9 Si4+ 4 a 0.4873(13) 0.2538(14) 0.5283(14) 1.000 0 0.007(3) 
Si10 Si4+ 4 a 0.2265(14) 0.0293(16) 0.5286(12) 1.000 0 0.007(3) 
Si11 Si4+ 4 a 0.0121(14) 0.2341(14) 0.7738(13) 1.000 0 0.007(3) 
Si12 Si4+ 4 a 0.2809(13) 0.2181(13) 0.5126(14) 1.000 0 0.007(3) 
Na1 Na1+ 4 a 0.1404(12) 0.3685(12) 0.3929(11) 1.000 0 0.023(4) 
Na2 Na1+ 4 a 0.1127(13) 0.1684(12) 0.6469(12) 1.000 0 0.023(4) 
Na3 Na1+ 4 a 0.3768(15) 0.0874(11) 0.6450(11) 1.000 0 0.023(4) 
Na4 Na1+ 4 a 0.4584(13) 0.4499(13) 0.9965(12) 1.000 0 0.023(4) 
Na5 Na1+ 4 a 0.1728(11) 0.1016(13) 0.8934(10) 1.000 0 0.023(4) 
Na6 Na1+ 4 a 0.1190(12) 0.3888(11) 0.8541(11) 1.000 0 0.023(4) 
Na7 Na1+ 4 a 0.1463(12) 0.1296(12) 0.3441(11) 1.000 0 0.023(4) 
Na8 Na1+ 4 a 0.0088(13) -0.0012(12) 0.4814(15) 1.000 0 0.023(4) 
Na9 Na1+ 4 a 0.1151(12) 0.3391(14) 0.1263(16) 1.000 0 0.023(4) 
Na10 Na1+ 4 a 0.2926(17) 0.2624(13) 0.1988(16) 1.000 0 0.023(4) 
Na11 Na1+ 4 a 0.4269(14) 0.1339(12) 0.3911(12) 1.000 0 0.023(4) 
Na12 Na1+ 4 a 0.2902(12) 0.2747(13) 0.7441(12) 1.000 0 0.023(4) 
O1 O2- 4 a 0.3613(13) 0.4945(15) 0.4592(15) 1.000 0 0.005(3) 
O2 O2- 4 a 0.081(3) 0.2982(15) 0.7323(15) 1.000 0 0.005(3) 
O3 O2- 4 a 0.4274(14) 0.2556(15) 0.2866(14) 1.000 0 0.005(3) 
O4 O2- 4 a 0.4857(15) 0.1652(13) 0.9627(17) 1.000 0 0.005(3) 
O5 O2- 4 a 0.3889(12) 0.1964(17) 0.5316(14) 1.000 0 0.005(3) 
O6 O2- 4 a 0.2744(17) 0.065(3) 0.7700(16) 1.000 0 0.005(3) 
O7 O2- 4 a 0.237(4) 0.379(2) 0.959(4) 1.000 0 0.005(3) 
O8 O2- 4 a 0.2788(16) 0.2198(14) 0.8988(13) 1.000 0 0.005(3) 
O9 O2- 4 a 0.0507(16) 0.313(2) 0.5185(15) 1.000 0 0.005(3) 
O10 O2- 4 a 0.3714(13) 0.0184(14) 0.2947(15) 1.000 0 0.005(3) 
O11 O2- 4 a 0.073(2) 0.2270(17) 0.2346(15) 1.000 0 0.005(3) 
O12 O2- 4 a 0.194(4) 0.033(3) 0.6347(15) 1.000 0 0.005(3) 
O13 O2- 4 a 0.0437(13) 0.2412(16) 0.3800(14) 1.000 0 0.005(3) 
O14 O2- 4 a 0.221(4) 0.456(4) 0.1115(12) 1.000 0 0.005(3) 
O15 O2- 4 a 0.4633(15) -0.0096(15) 0.8241(13) 1.000 0 0.005(3) 
O16 O2- 4 a 0.3827(13) 0.3148(16) 0.041(3) 1.000 0 0.005(3) 
O17 O2- 4 a 0.464(3) 0.4855(15) 0.300(4) 1.000 0 0.005(3) 
O18 O2- 4 a 0.2236(15) 0.4236(12) 0.7384(15) 1.000 0 0.005(3) 
O19 O2- 4 a 0.237(5) 0.125(2) 0.475(3) 1.000 0 0.005(3) 
O20 O2- 4 a 0.013(4) 0.272(3) 0.8743(15) 1.000 0 0.005(3) 
O21 O2- 4 a 0.4192(16) 0.3704(14) 0.721(4) 1.000 0 0.005(3) 
O22 O2- 4 a 0.4974(15) 0.3471(13) 0.4641(14) 1.000 0 0.005(3) 
O23 O2- 4 a 0.1798(13) 0.4732(15) 0.5070(15) 1.000 0 0.005(3) 
O24 O2- 4 a 0.0181(14) 0.0320(16) 0.1529(13) 1.000 0 0.005(3) 
O25 O2- 4 a 0.1824(19) 0.0218(16) 0.0365(16) 1.000 0 0.005(3) 
O26 O2- 4 a 0.0581(17) 0.1367(13) 0.7925(15) 1.000 0 0.005(3) 
O27 O2- 4 a 0.2379(15) 0.1142(13) 0.2174(15) 1.000 0 0.005(3) 
O28 O2- 4 a 0.135(2) 0.474(4) 0.269(4) 1.000 0 0.005(3) 
O29 O2- 4 a 0.0225(15) 0.4845(14) 0.6427(14) 1.000 0 0.005(3) 
O30 O2- 4 a 0.4307(15) 0.1965(13) 0.7493(15) 1.000 0 0.005(3) 
O31 O2- 4 a 0.0588(13) 0.1728(15) 0.9863(15) 1.000 0 0.005(3) 
O32 O2- 4 a 0.2188(15) 0.2412(16) 0.0570(14) 1.000 0 0.005(3) 
O33 O2- 4 a 0.2562(14) 0.3920(15) 0.2863(14) 1.000 0 0.005(3) 
O34 O2- 4 a 0.2725(15) 0.295(4) 0.441(4) 1.000 0 0.005(3) 
O35 O2- 4 a 0.3371(15) -0.0073(15) 0.9452(15) 1.000 0 0.005(3) 
O36 O2- 4 a 0.2264(15) 0.2670(15) 0.5946(14) 1.000 0 0.005(3) 

#End of data_162063-ICSD


