data_407293-ICSD
#?2014 by Fachinformationszentrum Karlsruhe, and the U.S. Secretary of 
#Commerce on behalf of the United States.  All rights reserved.
_database_code_ICSD                407293
_audit_creation_date               1998/06/26
_chemical_name_systematic          'Tripotassium Tungstate(III)'
_chemical_formula_structural       'K3 (Bi O3)'
_chemical_formula_sum              'Bi1 K3 O3'
_publ_section_title
;
Synthesis and crystal structure determination of K3 Bi O3 and Rb3 Bi 
O3
;
loop_
_citation_id
_citation_journal_abbrev
_citation_year
_citation_journal_volume
_citation_page_first
_citation_page_last
_citation_journal_id_ASTM
primary 'Zeitschrift fuer Naturforschung, B: Chemical Sciences'
 1997 52 1031 1036 ZNBSEN
_publ_author_name                  'Zoche, N.;Jansen, M.'
_cell_length_a                     10.7015(2)
_cell_length_b                     10.7015(2)
_cell_length_c                     10.7015(2)
_cell_angle_alpha                  90.
_cell_angle_beta                   90.
_cell_angle_gamma                  90.
_cell_volume                       1225.56
_cell_formula_units_Z              8
_symmetry_space_group_name_H-M     'I -4 3 m'
_symmetry_Int_Tables_number        217
_refine_ls_R_factor_all            .0156
loop_
_symmetry_equiv_pos_site_id
_symmetry_equiv_pos_as_xyz
  1	'-z, -y, x'
  2	'-y, -x, z'
  3	'-x, -z, y'
  4	'-z, -x, y'
  5	'-y, -z, x'
  6	'-x, -y, z'
  7	'-z, y, -x'
  8	'-y, x, -z'
  9	'-x, z, -y'
 10	'-z, x, -y'
 11	'-y, z, -x'
 12	'-x, y, -z'
 13	'z, -y, -x'
 14	'y, -x, -z'
 15	'x, -z, -y'
 16	'z, -x, -y'
 17	'y, -z, -x'
 18	'x, -y, -z'
 19	'z, y, x'
 20	'y, x, z'
 21	'x, z, y'
 22	'z, x, y'
 23	'y, z, x'
 24	'x, y, z'
 25	'-z+.5, -y+.5, x+.5'
 26	'-y+.5, -x+.5, z+.5'
 27	'-x+.5, -z+.5, y+.5'
 28	'-z+.5, -x+.5, y+.5'
 29	'-y+.5, -z+.5, x+.5'
 30	'-x+.5, -y+.5, z+.5'
 31	'-z+.5, y+.5, -x+.5'
 32	'-y+.5, x+.5, -z+.5'
 33	'-x+.5, z+.5, -y+.5'
 34	'-z+.5, x+.5, -y+.5'
 35	'-y+.5, z+.5, -x+.5'
 36	'-x+.5, y+.5, -z+.5'
 37	'z+.5, -y+.5, -x+.5'
 38	'y+.5, -x+.5, -z+.5'
 39	'x+.5, -z+.5, -y+.5'
 40	'z+.5, -x+.5, -y+.5'
 41	'y+.5, -z+.5, -x+.5'
 42	'x+.5, -y+.5, -z+.5'
 43	'z+.5, y+.5, x+.5'
 44	'y+.5, x+.5, z+.5'
 45	'x+.5, z+.5, y+.5'
 46	'z+.5, x+.5, y+.5'
 47	'y+.5, z+.5, x+.5'
 48	'x+.5, y+.5, z+.5'
loop_
_atom_type_symbol
_atom_type_oxidation_number
Bi3+	3
K1+	1
O2-	-2
loop_
_atom_site_label
_atom_site_type_symbol
_atom_site_symmetry_multiplicity
_atom_site_Wyckoff_symbol
_atom_site_fract_x
_atom_site_fract_y
_atom_site_fract_z
_atom_site_occupancy
_atom_site_attached_hydrogens
Bi1 Bi3+ 8 c 0.85275(3) 0.85275(3) 0.85275(3) 1. 0 
K1 K1+ 24 g 0.62161(12) 0.62161(12) 0.8916(2) 1. 0 
O1 O2- 24 g 0.8682(3) 0.8682(3) 0.6612(5) 1. 0 

loop_
_atom_site_aniso_label
_atom_site_aniso_type_symbol
_atom_site_aniso_U_11
_atom_site_aniso_U_22
_atom_site_aniso_U_33
_atom_site_aniso_U_12
_atom_site_aniso_U_13
_atom_site_aniso_U_23
Bi1 Bi3+ 0.0153(2) 0.0153(2) 0.0153(2) -.00146(14) -.00146(14) -.00146(14)
K1 K1+ 0.0163(7) 0.0163(7) 0.026(1) -.0012(7) -.0015(5) -.0015(5)
O1 O2- 0.014(2) 0.014(2) 0.024(3) -.001(2) 0.000(2) 0.000(2)
#End of data_407293-ICSD


