data_280222-ICSD
#?2014 by Fachinformationszentrum Karlsruhe, and the U.S. Secretary of 
#Commerce on behalf of the United States.  All rights reserved.
_database_code_ICSD                280222
_audit_creation_date               2002/04/01
_audit_update_record               2007/04/01
_chemical_name_systematic
;
Dipotassium Thorium Nonaselenotriphosphate(IV)
;
_chemical_formula_structural       'K2 Th (P3 Se9)'
_chemical_formula_sum              'K2 P3 Se9 Th1'
_publ_section_title
;
Synthesis and structural characterization of quaternary thorium 
selenophosphates: A2 Th P3 Se9 (A= K, Rb) and Cs4 Th2 P5 Se17
;
loop_
_citation_id
_citation_journal_abbrev
_citation_year
_citation_journal_volume
_citation_page_first
_citation_page_last
_citation_journal_id_ASTM
primary 'Inorganic Chemistry' 2000 39 2970 2976 INOCAJ
_publ_author_name
;
Briggs Piccoli, P.M.;Abney, K.D.;Schnoover, J.R.;Dorhout, P.K.
;
_cell_length_a                     10.4582(5)
_cell_length_b                     16.53839(80)
_cell_length_c                     10.2245(5)
_cell_angle_alpha                  107.637(1)
_cell_angle_beta                   91.652(1)
_cell_angle_gamma                  90.343(1)
_cell_volume                       1684.42
_cell_formula_units_Z              4
_symmetry_space_group_name_H-M     'P -1'
_symmetry_Int_Tables_number        2
_refine_ls_R_factor_all            .0645
loop_
_symmetry_equiv_pos_site_id
_symmetry_equiv_pos_as_xyz
  1	'-x, -y, -z'
  2	'x, y, z'
loop_
_atom_type_symbol
_atom_type_oxidation_number
K1+	1
P4+	4
Se2-	-2
Th4+	4
loop_
_atom_site_label
_atom_site_type_symbol
_atom_site_symmetry_multiplicity
_atom_site_Wyckoff_symbol
_atom_site_fract_x
_atom_site_fract_y
_atom_site_fract_z
_atom_site_occupancy
_atom_site_attached_hydrogens
Th1 Th4+ 2 i 0.27990(4) 0.16965(3) 0.72642(5) 1. 0 
Th2 Th4+ 2 i 0.22197(4) 0.22264(3) 0.30727(5) 1. 0 
Se1 Se2- 2 i 0.51399(12) 0.06583(8) 0.77409(15) 1. 0 
Se2 Se2- 2 i 0.05546(12) 0.14936(8) 0.49644(15) 1. 0 
Se3 Se2- 2 i 0.43528(12) 0.14830(8) 0.46746(15) 1. 0 
Se4 Se2- 2 i 0.37722(12) 0.17203(8) 1.0325(2) 1. 0 
Se5 Se2- 2 i 0.11683(13) 0.03393(9) 0.7937(2) 1. 0 
Se6 Se2- 2 i 0.07912(12) 0.28540(9) 0.8771(2) 1. 0 
Se7 Se2- 2 i 0.22400(12) 0.37689(9) 0.2115(2) 1. 0 
Se8 Se2- 2 i 0.26943(11) 0.32738(8) 0.61175(14) 1. 0 
Se9 Se2- 2 i 0.24380(12) -.01602(8) 0.5094(2) 1. 0 
Se10 Se2- 2 i 0.45062(13) 0.31926(9) 0.8572(2) 1. 0 
Se11 Se2- 2 i -.01174(12) 0.17379(8) 0.1171(2) 1. 0 
Se12 Se2- 2 i 0.23011(12) 0.03069(8) 0.1372(2) 1. 0 
Se13 Se2- 2 i -.00917(13) 0.33414(9) 0.3902(2) 1. 0 
Se14 Se2- 2 i 0.70505(12) 0.27472(10) 1.0768(2) 1. 0 
Se15 Se2- 2 i 0.03254(14) 0.48119(9) 0.7841(2) 1. 0 
Se16 Se2- 2 i -.23823(12) 0.27963(10) 0.6117(2) 1. 0 
Se17 Se2- 2 i 0.51770(15) 0.49971(9) 0.2516(2) 1. 0 
Se18 Se2- 2 i 0.48447(12) 0.31245(9) 0.3767(2) 1. 0 
P1 P4+ 2 i 0.5037(3) 0.2832(2) 1.0400(4) 1. 0 
P2 P4+ 2 i 0.0842(3) 0.3517(2) 0.7206(4) 1. 0 
P3 P4+ 2 i 0.4332(3) 0.3782(2) 0.2254(4) 1. 0 
P4 P4+ 2 i 0.5757(3) -.0091(2) 0.5711(4) 1. 0 
P5 P4+ 2 i 0.0727(3) 0.0524(2) 1.0098(4) 1. 0 
P6 P4+ 2 i -.0444(3) 0.2757(2) 0.5514(4) 1. 0 
K1 K1+ 2 i -.1704(3) 0.1515(2) 0.7963(4) 1. 0 
K2 K1+ 2 i 0.7381(4) 0.4549(3) -.0495(5) 1. 0 
K3 K1+ 2 i 0.2550(4) 0.5332(3) 0.5279(5) 1. 0 
K4 K1+ 2 i 0.3086(4) -.1381(3) -.2581(5) 1. 0 

loop_
_atom_site_aniso_label
_atom_site_aniso_type_symbol
_atom_site_aniso_U_11
_atom_site_aniso_U_22
_atom_site_aniso_U_33
_atom_site_aniso_U_12
_atom_site_aniso_U_13
_atom_site_aniso_U_23
Th1 Th4+ 0.0094(2) 0.0087(2) 0.0101(3) 0.0007(2) 0.0009(2) 0.0026(2)
Th2 Th4+ 0.0097(2) 0.0102(3) 0.0087(3) 0.0002(2) 0.0000(2) 0.0027(2)
Se1 Se2- 0.0136(6) 0.0164(7) 0.0096(8) 0.0054(5) 0.0004(5) 0.0018(6)
Se2 Se2- 0.0119(6) 0.0103(6) 0.0144(8) -.0004(5) 0.0002(5) 0.0027(6)
Se3 Se2- 0.0122(6) 0.0103(6) 0.0138(8) 0.0012(5) 0.0016(5) 0.0054(6)
Se4 Se2- 0.0165(6) 0.0105(6) 0.0122(8) -.0030(5) 0.0050(5) 0.0009(6)
Se5 Se2- 0.0190(6) 0.0137(6) 0.0108(8) -.0047(5) 0.0041(5) 0.0027(6)
Se6 Se2- 0.0142(6) 0.0170(7) 0.0116(8) 0.0031(5) 0.0026(5) 0.0050(6)
Se7 Se2- 0.0143(6) 0.0145(7) 0.0228(9) 0.0033(5) 0.0008(6) 0.0079(6)
Se8 Se2- 0.0107(6) 0.0113(6) 0.0097(8) -.0005(5) 0.0013(5) 0.0013(6)
Se9 Se2- 0.0126(6) 0.0126(6) 0.0140(8) -.0003(5) 0.0033(5) 0.0022(6)
Se10 Se2- 0.0177(6) 0.0156(7) 0.0148(9) -.0043(5) -.0035(5) 0.0075(6)
Se11 Se2- 0.0107(6) 0.0125(6) 0.0162(8) 0.0019(5) -.0012(5) 0.0029(6)
Se12 Se2- 0.0125(6) 0.0123(6) 0.0207(9) -.0019(5) -.0059(5) 0.0072(6)
Se13 Se2- 0.0181(6) 0.0183(7) 0.0125(8) 0.0074(5) 0.0031(5) 0.0064(6)
Se14 Se2- 0.0105(6) 0.0304(8) 0.0222(9) 0.0018(5) 0.0009(6) 0.0125(7)
Se15 Se2- 0.0284(8) 0.0133(7) 0.0252(10) 0.0075(6) 0.0057(7) 0.0036(7)
Se16 Se2- 0.0102(6) 0.0270(8) 0.0292(10) 0.0021(5) 0.0019(6) 0.0113(7)
Se17 Se2- 0.0303(8) 0.0123(7) 0.0294(10) -.0071(6) -.0029(7) 0.0066(7)
Se18 Se2- 0.0125(6) 0.0185(7) 0.0145(8) -.0021(5) -.0009(5) 0.0080(6)
P1 P4+ 0.0094(14) 0.012(2) 0.015(2) 0.0001(12) 0.0011(13) 0.006(2)
P2 P4+ 0.0132(15) 0.011(2) 0.007(2) 0.0033(12) 0.0039(13) 0.0023(14)
P3 P4+ 0.014(2) 0.010(2) 0.015(2) -.0011(12) 0.0001(14) 0.004(2)
P4 P4+ 0.0103(14) 0.0083(15) 0.012(2) 0.0035(12) 0.0014(13) 0.0015(14)
P5 P4+ 0.0067(14) 0.012(2) 0.009(2) -.0014(12) -.0002(12) 0.0038(15)
P6 P4+ 0.0098(15) 0.012(2) 0.015(2) 0.0022(12) 0.0004(13) 0.004(2)
K1 K1+ 0.026(2) 0.019(2) 0.019(2) -.0056(12) -.0021(13) 0.0055(15)
K2 K1+ 0.042(2) 0.044(2) 0.040(3) -.011(2) -.004(2) 0.022(2)
K3 K1+ 0.036(2) 0.034(2) 0.045(3) 0.012(2) -.004(2) 0.001(2)
K4 K1+ 0.049(2) 0.051(3) 0.067(3) 0.026(2) 0.038(2) 0.045(3)
#End of data_280222-ICSD


