data_603185-ICSD
#?2014 by Fachinformationszentrum Karlsruhe, and the U.S. Secretary of 
#Commerce on behalf of the United States.  All rights reserved.
_database_code_ICSD                603185
_audit_creation_date               2011/02/01
_chemical_name_systematic
;
Potassium Lanthanum Tetraselenosilicate
;
_chemical_formula_structural       'K La (Si Se4)'
_chemical_formula_sum              'K1 La1 Se4 Si1'
_publ_section_title
;
Synthesis and structures of the quaternary chalcogenides of the type 
KLnMQ4 (Ln= La, Nd, Gd, Y; M= Si, Ge; Q= S, Se)
;
loop_
_citation_id
_citation_journal_abbrev
_citation_year
_citation_journal_volume
_citation_page_first
_citation_page_last
_citation_journal_id_ASTM
primary 'Journal of Solid State Chemistry' 1993 107 347 355 JSSCBI
_publ_author_name                  'Wu, P.;Ibers, J.A.'
_cell_length_a                     6.81(2)
_cell_length_b                     6.94(2)
_cell_length_c                     9.06(2)
_cell_angle_alpha                  90.0
_cell_angle_beta                   108.4(3)
_cell_angle_gamma                  90.0
_cell_volume                       406.3
_cell_formula_units_Z              2
_symmetry_space_group_name_H-M     'P 1 21 1'
_symmetry_Int_Tables_number        4
loop_
_symmetry_equiv_pos_site_id
_symmetry_equiv_pos_as_xyz
  1	'-x, y+.5, -z'
  2	'x, y, z'
loop_
_atom_type_symbol
_atom_type_oxidation_number
K1+	1
La3+	3
Se2-	-2
Si4+	4
loop_
_atom_site_label
_atom_site_type_symbol
_atom_site_symmetry_multiplicity
_atom_site_Wyckoff_symbol
_atom_site_fract_x
_atom_site_fract_y
_atom_site_fract_z
_atom_site_occupancy
_atom_site_attached_hydrogens
La1 La3+ 2 a 0.230 0 0.551 1. 0 
K1 K1+ 2 a 0.267 0.013 0.063 1. 0 
Si1 Si4+ 2 a 0.213 0.531 0.316 1. 0 
Se1 Se2- 2 a 0.592 0.071 0.430 1. 0 
Se2 Se2- 2 a 0.410 0.531 0.157 1. 0 
Se3 Se2- 2 a 0.011 0.262 0.281 1. 0 
Se4 Se2- 2 a 0.025 0.270 0.732 1. 0 

#End of data_603185-ICSD


