data_67501-ICSD
#?2014 by Fachinformationszentrum Karlsruhe, and the U.S. Secretary of 
#Commerce on behalf of the United States.  All rights reserved.
_database_code_ICSD                67501
_audit_creation_date               1993/08/22
_audit_update_record               2003/04/01
_chemical_name_systematic          'Disilver Dihydrogendiphosphate(V)'
_chemical_formula_structural       'Ag2 (H2 P2 O7)'
_chemical_formula_sum              'H2 Ag2 O7 P2'
_publ_section_title
;
Crystal structure of silver-dihydrogeno-diphospate: Ag2 H2 P2 O7
;
loop_
_citation_id
_citation_journal_abbrev
_citation_year
_citation_journal_volume
_citation_page_first
_citation_page_last
_citation_journal_id_ASTM
primary 'European Journal of Solid State Inorganic Chemistry'
 1992 29 993 999 EJSCE5
2 'Phase Transition' 1992 38 127 220 PHTRDP
_publ_author_name                  'Averbuch-Pouchot, M.T.;Durif, A.'
_cell_length_a                     27.779(20)
_cell_length_b                     12.385(6)
_cell_length_c                     7.026(4)
_cell_angle_alpha                  90.
_cell_angle_beta                   90.
_cell_angle_gamma                  90.
_cell_volume                       2417.25
_cell_formula_units_Z              16
_symmetry_space_group_name_H-M     'F d d d Z'
_symmetry_Int_Tables_number        70
_refine_ls_R_factor_all            .036
loop_
_symmetry_equiv_pos_site_id
_symmetry_equiv_pos_as_xyz
  1	'x+.75, y+.75, -z'
  2	'x+.75, -y, z+.75'
  3	'-x, y+.75, z+.75'
  4	'-x, -y, -z'
  5	'-x+.25, -y+.25, z'
  6	'-x+.25, y, -z+.25'
  7	'x, -y+.25, -z+.25'
  8	'x, y, z'
  9	'x+.75, y+.25, -z+.5'
 10	'x+.25, y+.75, -z+.5'
 11	'x+.25, y+.25, -z'
 12	'x+.75, -y+.5, z+.25'
 13	'x+.25, -y, z+.25'
 14	'x+.25, -y+.5, z+.75'
 15	'-x, y+.25, z+.25'
 16	'-x+.5, y+.75, z+.25'
 17	'-x+.5, y+.25, z+.75'
 18	'-x, -y+.5, -z+.5'
 19	'-x+.5, -y, -z+.5'
 20	'-x+.5, -y+.5, -z'
 21	'-x+.25, -y+.75, z+.5'
 22	'-x+.75, -y+.25, z+.5'
 23	'-x+.75, -y+.75, z'
 24	'-x+.25, y+.5, -z+.75'
 25	'-x+.75, y, -z+.75'
 26	'-x+.75, y+.5, -z+.25'
 27	'x, -y+.75, -z+.75'
 28	'x+.5, -y+.25, -z+.75'
 29	'x+.5, -y+.75, -z+.25'
 30	'x, y+.5, z+.5'
 31	'x+.5, y, z+.5'
 32	'x+.5, y+.5, z'
loop_
_atom_type_symbol
_atom_type_oxidation_number
Ag1+	1
H1+	1
O2-	-2
P5+	5
loop_
_atom_site_label
_atom_site_type_symbol
_atom_site_symmetry_multiplicity
_atom_site_Wyckoff_symbol
_atom_site_fract_x
_atom_site_fract_y
_atom_site_fract_z
_atom_site_occupancy
_atom_site_attached_hydrogens
_atom_site_B_iso_or_equiv
Ag1 Ag1+ 32 h 0.42455(2) 0.26780(4) 0.52474(6) 1. 0 0 
P1 P5+ 32 h 0.94754(4) 0.01972(9) 0.7169(2) 1. 0 0 
O1 O2- 16 e 0.4713(2) 0.125 0.125 1. 0 0 
O2 O2- 32 h 0.5079(1) 0.2061(3) 0.5262(6) 1. 0 0 
O3 O2- 32 h 0.3311(1) 0.0564(3) 0.3568(5) 1. 0 0 
O4 O2- 32 h 0.1664(1) 0.7153(3) -.07320(5) 1. 0 0 
H1 H1+ 16 e 0.012(6) 0.125 0.125 1. 0 5.(4) 
H2 H1+ 16 f 0.125 0.95(5) 0.125 1. 0 2.(3) 

#End of data_67501-ICSD


