data_40420-ICSD
#?2014 by Fachinformationszentrum Karlsruhe, and the U.S. Secretary of 
#Commerce on behalf of the United States.  All rights reserved.
_database_code_ICSD                40420
_audit_creation_date               1999/06/02
_chemical_name_systematic
;
Tetrapotassium Tris(oxovanadium) Pentakis(sulfate(VI))
;
_chemical_formula_structural       'K4 (V O)3 (S O4)5'
_chemical_formula_sum              'K4 O23 S5 V3'
_publ_section_title
;
Crystal structure and infrared and Raman spectra of K4 (V O)3 (S O4)5
;
loop_
_citation_id
_citation_journal_abbrev
_citation_year
_citation_journal_volume
_citation_page_first
_citation_page_last
_citation_journal_id_ASTM
primary 'Inorganic Chemistry' 1989 28 1847 1853 INOCAJ
_publ_author_name
;
Fehrmann, R.;Boghosian, S.;Papatheodorou, G.N.;Nielsen, K.;Berg, 
R.W.;Bjerrum, N.J.
;
_cell_length_a                     8.746(2)
_cell_length_b                     16.142(2)
_cell_length_c                     14.416(2)
_cell_angle_alpha                  90.
_cell_angle_beta                   106.81(1)
_cell_angle_gamma                  90.
_cell_volume                       1948.25
_cell_formula_units_Z              4
_symmetry_space_group_name_H-M     'P 1 21/n 1'
_symmetry_Int_Tables_number        14
_refine_ls_R_factor_all            .03
loop_
_symmetry_equiv_pos_site_id
_symmetry_equiv_pos_as_xyz
  1	'-x+.5, y+.5, -z+.5'
  2	'-x, -y, -z'
  3	'x+.5, -y+.5, z+.5'
  4	'x, y, z'
loop_
_atom_type_symbol
_atom_type_oxidation_number
K1+	1
O2-	-2
S6+	6
V4+	4
loop_
_atom_site_label
_atom_site_type_symbol
_atom_site_symmetry_multiplicity
_atom_site_Wyckoff_symbol
_atom_site_fract_x
_atom_site_fract_y
_atom_site_fract_z
_atom_site_occupancy
_atom_site_attached_hydrogens
V1 V4+ 4 e 0.16456(4) 0.35893(2) 0.08793(2) 1. 0 
V2 V4+ 4 e -.00842(3) 0.10900(2) 0.25353(2) 1. 0 
V3 V4+ 4 e 0.32176(4) 0.13877(2) -.08011(2) 1. 0 
S1 S6+ 4 e 0.09815(5) 0.15550(3) 0.05957(3) 1. 0 
S2 S6+ 4 e 0.45371(5) 0.17815(3) -.26422(3) 1. 0 
S3 S6+ 4 e -.12147(5) 0.16130(3) 0.44391(3) 1. 0 
S4 S6+ 4 e 0.83975(5) 0.56260(3) 0.39899(3) 1. 0 
S5 S6+ 4 e 0.84085(5) 0.43544(3) 0.89917(3) 1. 0 
K1 K1+ 4 e 0.73908(5) 0.24664(3) 0.98520(4) 1. 0 
K2 K1+ 4 e -.25209(6) -.02258(3) 0.37867(4) 1. 0 
K3 K1+ 4 e 0.03161(8) 0.30088(4) 0.73749(5) 1. 0 
K4 K1+ 4 e 0.22081(6) 0.47399(3) 0.35803(4) 1. 0 
O1 O2- 4 e 0.34898(18) 0.35957(10) 0.8393(1) 1. 0 
O2 O2- 4 e 0.62052(18) 0.38050(9) 0.65769(10) 1. 0 
O3 O2- 4 e 0.53942(19) 0.25557(9) 0.76682(11) 1. 0 
O4 O2- 4 e 0.77029(17) 0.48394(8) 0.42163(11) 1. 0 
O5 O2- 4 e 0.56045(17) 0.25497(9) 0.56126(11) 1. 0 
O6 O2- 4 e 0.71702(18) 0.01857(9) 0.58263(11) 1. 0 
O7 O2- 4 e 0.49895(19) 0.39109(10) 0.00454(12) 1. 0 
O8 O2- 4 e 0.55034(19) 0.12343(9) 0.69041(10) 1. 0 
O9 O2- 4 e 0.42813(17) 0.25077(9) 0.95947(11) 1. 0 
O10 O2- 4 e 0.47225(19) 0.38461(10) 0.48662(11) 1. 0 
O11 O2- 4 e 0.21981(17) 0.34885(9) 0.96045(10) 1. 0 
O12 O2- 4 e 0.44864(19) 0.12967(9) 0.82276(11) 1. 0 
O13 O2- 4 e 0.29231(16) 0.37673(8) 0.64077(10) 1. 0 
O14 O2- 4 e 0.48031(20) 0.48878(10) 0.76154(11) 1. 0 
O15 O2- 4 e 0.69901(17) 0.38083(8) 0.86158(10) 1. 0 
O16 O2- 4 e 0.75834(17) 0.35523(9) 0.54459(10) 1. 0 
O17 O2- 4 e 0.65981(19) 0.32962(10) 0.34774(12) 1. 0 
O18 O2- 4 e 0.32996(19) 0.32958(10) 0.15890(12) 1. 0 
O19 O2- 4 e 0.92834(17) 0.39861(9) 0.99327(10) 1. 0 
O20 O2- 4 e 0.93466(19) 0.43961(10) 0.83139(11) 1. 0 
O21 O2- 4 e 0.06389(18) 0.40061(10) 0.50928(11) 1. 0 
O22 O2- 4 e 0.07018(20) 0.45004(10) 0.66965(12) 1. 0 
O23 O2- 4 e 0.29506(18) 0.19014(10) 0.67087(11) 1. 0 

#End of data_40420-ICSD


