data_76762-ICSD
#?2014 by Fachinformationszentrum Karlsruhe, and the U.S. Secretary of 
#Commerce on behalf of the United States.  All rights reserved.
_database_code_ICSD                76762
_audit_creation_date               2001/07/16
_audit_update_record               2008/02/01
_chemical_name_systematic
;
Disodium Magnesium Aluminium Fluoride
;
_chemical_formula_structural       'Na2 Mg Al F7'
_chemical_formula_sum              'Al1 F7 Mg1 Na2'
_chemical_name_mineral             Weberite
_publ_section_title                'The crystal structure of weberite'
loop_
_citation_id
_citation_journal_abbrev
_citation_year
_citation_journal_volume
_citation_journal_issue
_citation_page_first
_citation_page_last
_citation_journal_id_ASTM
primary 'Arkiv foer Kemi, Mineralogi och Geologi' 1945 18 10 1 7 AKMGAE
_publ_author_name                  'Bystroem, A.'
_cell_length_a                     7.06(1)
_cell_length_b                     9.99(1)
_cell_length_c                     7.31(1)
_cell_angle_alpha                  90.
_cell_angle_beta                   90.
_cell_angle_gamma                  90.
_cell_volume                       515.57
_cell_formula_units_Z              4
_symmetry_space_group_name_H-M     'I m m 2'
_symmetry_Int_Tables_number        44
loop_
_symmetry_equiv_pos_site_id
_symmetry_equiv_pos_as_xyz
  1	'x, -y, z'
  2	'-x, y, z'
  3	'-x, -y, z'
  4	'x, y, z'
  5	'x+.5, -y+.5, z+.5'
  6	'-x+.5, y+.5, z+.5'
  7	'-x+.5, -y+.5, z+.5'
  8	'x+.5, y+.5, z+.5'
loop_
_atom_type_symbol
_atom_type_oxidation_number
Al3+	3
F1-	-1
Mg2+	2
Na1+	1
loop_
_atom_site_label
_atom_site_type_symbol
_atom_site_symmetry_multiplicity
_atom_site_Wyckoff_symbol
_atom_site_fract_x
_atom_site_fract_y
_atom_site_fract_z
_atom_site_occupancy
_atom_site_attached_hydrogens
Na1 Na1+ 4 c 0.25 0 0.5 1. 0 
Na2 Na1+ 4 d 0 0.25 0.75 1. 0 
Mg1 Mg2+ 4 c 0.25 0 0 1. 0 
Al1 Al3+ 4 d 0 0.25 0.25 1. 0 
F1 F1- 2 a 0 0 0.89(1) 1. 0 
F2 F1- 2 b 0 0.5 0.61(1) 1. 0 
F3 F1- 4 d 0 0.16(1) 0.47(1) 1. 0 
F4 F1- 4 d 0 0.34(1) 0.03(1) 1. 0 
F5 F1- 8 e 0.19(1) 0.13(1) 0.18(1) 1. 0 
F6 F1- 8 e 0.31(1) 0.13(1) 0.82(1) 1. 0 

#End of data_76762-ICSD


