data_90941-ICSD
#?2014 by Fachinformationszentrum Karlsruhe, and the U.S. Secretary of 
#Commerce on behalf of the United States.  All rights reserved.
_database_code_ICSD                90941
_audit_creation_date               2002/04/01
_chemical_name_systematic
;
Trisodium Indium Bis(phosphate(V)) - Alpha
;
_chemical_formula_structural       'Na3 In (P O4)2'
_chemical_formula_sum              'In1 Na3 O8 P2'
_publ_section_title
;
Structure of polymorphous modifications of double sodium and 
indiumphosphate
;
loop_
_citation_id
_citation_journal_abbrev
_citation_year
_citation_journal_volume
_citation_page_first
_citation_page_last
_citation_journal_id_ASTM
primary 'Journal of Solid State Chemistry' 2000 149 99 106 JSSCBI
_publ_author_name
;
Zhizhin, M.G.;Morozov, V.A.;Bobylev, A.P.;Popov, A.M.;Spiridonov, 
F.M.;Komissarova, L.N.;Lazoryak, B.I.
;
_cell_length_a                     8.6335(1)
_cell_length_b                     5.4550(1)
_cell_length_c                     7.0482(1)
_cell_angle_alpha                  90.
_cell_angle_beta                   90.295(1)
_cell_angle_gamma                  90.
_cell_volume                       331.94
_cell_formula_units_Z              2
_symmetry_space_group_name_H-M     'P 1 21/m 1'
_symmetry_Int_Tables_number        11
_refine_ls_R_factor_all            .017
loop_
_symmetry_equiv_pos_site_id
_symmetry_equiv_pos_as_xyz
  1	'x, -y+.5, z'
  2	'-x, -y, -z'
  3	'-x, y+.5, -z'
  4	'x, y, z'
loop_
_atom_type_symbol
_atom_type_oxidation_number
In3+	3
Na1+	1
O2-	-2
P5+	5
loop_
_atom_site_label
_atom_site_type_symbol
_atom_site_symmetry_multiplicity
_atom_site_Wyckoff_symbol
_atom_site_fract_x
_atom_site_fract_y
_atom_site_fract_z
_atom_site_occupancy
_atom_site_attached_hydrogens
_atom_site_B_iso_or_equiv
In1 In3+ 2 e 0.25 0.25 0 1. 0 0.39(2) 
Na1 Na1+ 2 e 0.251(3) 0.25 0.502(2) 1. 0 1.40(8) 
Na2 Na1+ 2 e 0.559(2) 0.25 0.286(2) 1. 0 1.29(6) 
Na3 Na1+ 2 e 0.939(2) 0.25 0.714(2) 1. 0 1.29(6) 
P1 P5+ 2 e 0.596(1) 0.25 0.778(2) 1. 0 0.8(2) 
P2 P5+ 2 e 0.903(1) 0.25 0.221(2) 1. 0 0.8(2) 
O1 O2- 2 e 0.498(2) 0.25 0.963(2) 1. 0 0.48(5) 
O2 O2- 2 e 0.509(2) 0.25 0.583(2) 1. 0 0.48(5) 
O3 O2- 4 f 0.301(1) 0.506(2) 0.222(2) 1. 0 0.48(5) 
O4 O2- 2 e 0.007(2) 0.25 0.051(2) 1. 0 0.48(5) 
O5 O2- 4 f 0.209(1) 0.531(2) 0.785(2) 1. 0 0.48(5) 
O6 O2- 2 e 0.006(2) 0.25 0.391(2) 1. 0 0.48(5) 

#End of data_90941-ICSD


