data_245938-ICSD
#?2014 by Fachinformationszentrum Karlsruhe, and the U.S. Secretary of 
#Commerce on behalf of the United States.  All rights reserved.
_database_code_ICSD                245938
_audit_creation_date               2009/02/01
_audit_update_record               2013/08/01
_chemical_name_systematic
;
Bismuth Zinc Phosphorus Oxide Fluoride (6/1/2/14/2)
;
_chemical_formula_structural       'Bi6 Zn P2 O14 F2'
_chemical_formula_sum              'Bi6 F2 O14 P2 Zn1'
_publ_section_title
;
Polymorphism and anionic vacancies in the Bi6 (M,Bi)1 P2 (O,F)16-x 
Aurivillius derivatives
;
loop_
_citation_id
_citation_journal_abbrev
_citation_year
_citation_journal_volume
_citation_journal_issue
_citation_page_first
_citation_page_last
_citation_journal_id_ASTM
primary 'European Journal of Inorganic Chemistry  (online)'
 2008 2008 5 533 543 EJICFO
_publ_author_name
;
Colmont, M.;Huve, M.;Ketatni, E.M.;Mentre, O.
;
_cell_length_a                     16.409(7)
_cell_length_b                     5.430(2)
_cell_length_c                     15.989(7)
_cell_angle_alpha                  90
_cell_angle_beta                   110.002(6)
_cell_angle_gamma                  90
_cell_volume                       1338.7
_cell_formula_units_Z              4
_symmetry_space_group_name_H-M     'C 1 2/c 1'
_symmetry_Int_Tables_number        15
_refine_ls_R_factor_all            .0455
loop_
_symmetry_equiv_pos_site_id
_symmetry_equiv_pos_as_xyz
  1	'x, -y, z+.5'
  2	'-x, -y, -z'
  3	'-x, y, -z+.5'
  4	'x, y, z'
  5	'x+.5, -y+.5, z+.5'
  6	'-x+.5, -y+.5, -z'
  7	'-x+.5, y+.5, -z+.5'
  8	'x+.5, y+.5, z'
loop_
_atom_type_symbol
_atom_type_oxidation_number
Bi3+	3
F1-	-1
O2-	-2
P5+	5
Zn2+	2
loop_
_atom_site_label
_atom_site_type_symbol
_atom_site_symmetry_multiplicity
_atom_site_Wyckoff_symbol
_atom_site_fract_x
_atom_site_fract_y
_atom_site_fract_z
_atom_site_occupancy
_atom_site_attached_hydrogens
_atom_site_U_iso_or_equiv
Bi1 Bi3+ 8 f 0.22306(6) 0.0384(2) 0.15968(6) 1. 0 0.0098(3) 
Bi2 Bi3+ 8 f 0.44048(6) 0.0355(2) 0.32647(6) 1. 0 0.0095(3) 
Bi3 Bi3+ 8 f 0.11660(7) 0.0376(2) 0.33779(7) 1. 0 0.0116(3) 
Zn1 Zn2+ 4 a 0 0 0 1. 0 0.0111(13) 
P1 P5+ 8 f 0.1442(4) 0.4957(13) -0.0019(4) 1. 0 0.0091(19) 
O1 O2- 4 e 0 0.288(5) 0.25 1. 0 0.009(5) 
O2 O2- 4 e 0 0.776(5) 0.25 1. 0 0.011(5) 
O3 O2- 8 f 0.1669(12) 0.763(3) 0.2599(11) 1. 0 0.009(3) 
O4 O2- 8 f 0.1728(11) 0.279(3) 0.2561(11) 1. 0 0.006(3) 
O5 O2- 8 f 0.0471(10) 0.033(3) 0.1289(10) 1. 0 0.020(3) 
F1 F1- 8 f 0.1795(14) 0.551(5) -0.0805(15) 1. 0 0.027(5) 
O6 O2- 8 f 0.0887(14) 0.267(4) -0.0240(13) 1. 0 0.021(4) 
O7 O2- 8 f 0.2200(14) 0.449(5) 0.0876(16) 1. 0 0.033(5) 
O8 O2- 8 f 0.0933(15) 0.726(5) 0.0094(15) 1. 0 0.028(5) 

loop_
_atom_site_aniso_label
_atom_site_aniso_type_symbol
_atom_site_aniso_U_11
_atom_site_aniso_U_22
_atom_site_aniso_U_33
_atom_site_aniso_U_12
_atom_site_aniso_U_13
_atom_site_aniso_U_23
Bi1 Bi3+ 0.0074(5) 0.0099(5) 0.0106(5) 0.0011(3) -0.0010(4) -0.0010(4)
Bi2 Bi3+ 0.0078(5) 0.0111(5) 0.0093(5) 0.0024(3) 0.0016(4) 0.0016(4)
Bi3 Bi3+ 0.0143(5) 0.0096(5) 0.0123(5) 0.0064(4) 0.0009(4) 0.0007(4)
Zn1 Zn2+ 0.0100(18) 0.014(3) 0.0080(17) 0.0010(14) -0.0004(6) 0.0035(16)
P1 P5+ 0.007(2) 0.011(4) 0.008(2) 0.001(2) 0.002(2) 0.002(2)
#End of data_245938-ICSD


