data_200603-ICSD
#?2014 by Fachinformationszentrum Karlsruhe, and the U.S. Secretary of 
#Commerce on behalf of the United States.  All rights reserved.
_database_code_ICSD                200603
_audit_creation_date               1980/01/01
_chemical_name_systematic          'Calcium Germanate *'
_chemical_formula_structural       'Ca2 Ge7 O16'
_chemical_formula_sum              'Ca2 Ge7 O16'
_publ_section_title
;
Crystal structure of calcium germanate Ca2 Ge2 (Ge O4) (Ge4 O12)
;
loop_
_citation_id
_citation_journal_abbrev
_citation_year
_citation_journal_volume
_citation_page_first
_citation_page_last
_citation_journal_id_ASTM
primary 'Doklady Akademii Nauk SSSR' 1979 245 110 113 DANKAS
_publ_author_name
;
Nevskii, N.N.;Ilyukhin, V.V.;Ivanova, L.I.;Belov, N.V.
;
_cell_length_a                     11.340(2)
_cell_length_b                     11.340(2)
_cell_length_c                     4.6400(8)
_cell_angle_alpha                  90.
_cell_angle_beta                   90.
_cell_angle_gamma                  90.
_cell_volume                       596.68
_cell_formula_units_Z              2
_symmetry_space_group_name_H-M     'P b a 2'
_symmetry_Int_Tables_number        32
_refine_ls_R_factor_all            .024
loop_
_symmetry_equiv_pos_site_id
_symmetry_equiv_pos_as_xyz
  1	'x+.5, -y+.5, z'
  2	'-x+.5, y+.5, z'
  3	'-x, -y, z'
  4	'x, y, z'
loop_
_atom_type_symbol
_atom_type_oxidation_number
Ca2+	2
Ge4+	4
O2-	-2
loop_
_atom_site_label
_atom_site_type_symbol
_atom_site_symmetry_multiplicity
_atom_site_Wyckoff_symbol
_atom_site_fract_x
_atom_site_fract_y
_atom_site_fract_z
_atom_site_occupancy
_atom_site_attached_hydrogens
_atom_site_B_iso_or_equiv
Ge1 Ge4+ 2 a 0 0 0 1. 0 0.44 
Ge2 Ge4+ 4 c 0.1335(1) 0.1336(1) 0.4996(3) 1. 0 0.43 
Ge3 Ge4+ 4 c 0.0666(1) 0.3122(1) -.0107(1) 1. 0 0.45 
Ge4 Ge4+ 4 c 0.3123(1) 0.0667(1) 0.0095(3) 1. 0 0.45 
Ca1 Ca2+ 4 c 0.3350(1) 0.3348(1) 0.4970(6) 1. 0 0.75 
O1 O2- 4 c 0.0012(5) 0.1167(5) 0.7467(13) 1. 0 0.65 
O2 O2- 4 c 0.0288(5) 0.2197(5) 0.2695(13) 1. 0 0.59 
O3 O2- 4 c 0.1686(5) 0.2658(5) 0.7246(13) 1. 0 0.66 
O4 O2- 4 c 0.2657(5) 0.1697(5) 0.2645(13) 1. 0 0.65 
O5 O2- 4 c 0.1171(5) 0.0006(5) 0.2411(12) 1. 0 0.63 
O6 O2- 4 c 0.2198(5) 0.0282(5) 0.7180(13) 1. 0 0.62 
O7 O2- 4 c 0.1398(5) 0.4316(5) 0.1548(13) 1. 0 0.88 
O8 O2- 4 c 0.4327(5) 0.1403(5) 0.8306(14) 1. 0 0.9 

#End of data_200603-ICSD


