data_420703-ICSD
#?2014 by Fachinformationszentrum Karlsruhe, and the U.S. Secretary of 
#Commerce on behalf of the United States.  All rights reserved.
_database_code_ICSD                420703
_audit_creation_date               2010/02/01
_chemical_name_systematic          'Silver Manganese Phosphate'
_chemical_formula_structural       'Ag Mn (P O4)'
_chemical_formula_sum              'Ag1 Mn1 O4 P1'
_publ_section_title
;
Crystal structure of the new phosphate Ag Mn P O4
;
loop_
_citation_id
_citation_journal_abbrev
_citation_year
_citation_journal_volume
_citation_journal_issue
_citation_page_first
_citation_page_last
_citation_journal_id_ASTM
primary 'Zeitschrift fuer Naturforschung, B: Chemical Sciences'
 2009 64 7 875 878 ZNBSEN
_publ_author_name
;
Ben Yahia, H.;Gaudin, E.;Darriet, J.
;
_cell_length_a                     9.6710(6)
_cell_length_b                     5.695(2)
_cell_length_c                     6.629(3)
_cell_angle_alpha                  102.55(3)
_cell_angle_beta                   105.85(2)
_cell_angle_gamma                  80.70(2)
_cell_volume                       340.79
_cell_formula_units_Z              4
_symmetry_space_group_name_H-M     'P -1'
_symmetry_Int_Tables_number        2
_refine_ls_R_factor_all            .0323
loop_
_symmetry_equiv_pos_site_id
_symmetry_equiv_pos_as_xyz
  1	'-x, -y, -z'
  2	'x, y, z'
loop_
_atom_type_symbol
_atom_type_oxidation_number
Ag1+	1
Mn2+	2
O2-	-2
P5+	5
loop_
_atom_site_label
_atom_site_type_symbol
_atom_site_symmetry_multiplicity
_atom_site_Wyckoff_symbol
_atom_site_fract_x
_atom_site_fract_y
_atom_site_fract_z
_atom_site_occupancy
_atom_site_attached_hydrogens
_atom_site_U_iso_or_equiv
Ag1 Ag1+ 2 i 0.11744(5) 0.31332(7) 0.36952(6) 1 0 0.02101(14) 
Ag2 Ag1+ 2 i 0.24721(5) 0.83191(7) 0.48229(6) 1 0 0.02227(15) 
Mn1 Mn2+ 2 i 0.42628(8) 0.21824(11) 0.16773(11) 1 0 0.0079(2) 
Mn2 Mn2+ 2 i 0.21227(8) 0.66287(11) 0.93703(11) 1 0 0.0087(2) 
P1 P5+ 2 i 0.46136(12) 0.31231(17) 0.70882(17) 1 0 0.0057(3) 
P2 P5+ 2 i 0.08701(13) 0.18418(18) 0.84675(18) 1 0 0.0068(3) 
O1 O2- 2 i 0.4420(3) 0.1287(5) 0.8360(5) 1 0 0.0097(10) 
O2 O2- 2 i 0.6243(3) 0.3492(5) 0.7643(5) 1 0 0.0106(10) 
O3 O2- 2 i 0.4014(4) 0.2270(5) 0.4726(5) 1 0 0.0120(11) 
O4 O2- 2 i 0.3873(3) 0.5670(5) 0.7817(5) 1 0 0.0094(10) 
O5 O2- 2 i 0.1983(4) 0.2281(6) 0.0631(5) 1 0 0.0172(11) 
O6 O2- 2 i 0.9337(4) 0.2186(5) 0.8731(5) 1 0 0.0119(10) 
O7 O2- 2 i 0.1210(4) 0.9229(5) 0.7338(5) 1 0 0.0129(11) 
O8 O2- 2 i 0.1039(4) 0.3708(5) 0.7177(5) 1 0 0.0127(11) 

loop_
_atom_site_aniso_label
_atom_site_aniso_type_symbol
_atom_site_aniso_U_11
_atom_site_aniso_U_22
_atom_site_aniso_U_33
_atom_site_aniso_U_12
_atom_site_aniso_U_13
_atom_site_aniso_U_23
Ag1 Ag1+ 0.0164(2) 0.0348(2) 0.0117(2) 0.00138(16) 0.00581(16) 0.00410(16)
Ag2 Ag1+ 0.0188(2) 0.0350(2) 0.0123(2) 0.00373(16) 0.00843(16) 0.00205(16)
Mn1 Mn2+ 0.0080(4) 0.0086(3) 0.0072(3) -0.0007(2) 0.0024(3) 0.0014(2)
Mn2 Mn2+ 0.0061(4) 0.0110(3) 0.0082(3) 0.0006(2) 0.0021(3) 0.0005(2)
P1 P5+ 0.0056(6) 0.0068(4) 0.0045(5) 0.0001(4) 0.0012(4) 0.0009(4)
P2 P5+ 0.0062(6) 0.0078(4) 0.0058(5) -0.0012(4) 0.0015(4) -0.0001(4)
O1 O2- 0.0133(18) 0.0068(12) 0.0109(15) 0.0006(11) 0.0053(13) 0.0040(11)
O2 O2- 0.0059(17) 0.0179(15) 0.0079(15) -0.0036(12) 0.0009(13) 0.0015(12)
O3 O2- 0.0148(19) 0.0143(14) 0.0063(15) -0.0025(12) 0.0023(13) 0.0004(12)
O4 O2- 0.0107(17) 0.0090(13) 0.0090(15) 0.0008(11) 0.0039(13) 0.0022(11)
O5 O2- 0.0088(18) 0.0336(18) 0.0068(15) -0.0035(14) 0.0010(13) -0.0008(14)
O6 O2- 0.0078(17) 0.0171(14) 0.0099(15) -0.0018(12) 0.0026(13) -0.0002(12)
O7 O2- 0.0165(19) 0.0113(13) 0.0124(16) -0.0002(12) 0.0077(14) 0.0014(12)
O8 O2- 0.0177(19) 0.0096(13) 0.0129(16) -0.0010(12) 0.0062(14) 0.0033(12)
#End of data_420703-ICSD


