data_160372-ICSD
#?2014 by Fachinformationszentrum Karlsruhe, and the U.S. Secretary of 
#Commerce on behalf of the United States.  All rights reserved.
_database_code_ICSD                160372
_audit_creation_date               2008/08/01
_chemical_name_systematic          'Dilanthanum Sodium Ruthenate(V)'
_chemical_formula_structural       'La2 Na (Ru O6)'
_chemical_formula_sum              'La2 Na1 O6 Ru1'
_publ_section_title
;
Electronic structure and linear optical properties of the double 
perovskite La2 Na Ru O6
;
loop_
_citation_id
_citation_journal_abbrev
_citation_year
_citation_journal_volume
_citation_journal_issue
_citation_page_first
_citation_page_last
_citation_journal_id_ASTM
primary 'Physica Status Solidi B - Basic Solid State Physics'
 2008 245 4 720 725 PSSBBD
_publ_author_name                  'Ahmed, A.S.;Chen, H.;Yuan, H.K.'
_cell_length_a                     5.635
_cell_length_b                     6.025
_cell_length_c                     8.116
_cell_angle_alpha                  90.
_cell_angle_beta                   90.525
_cell_angle_gamma                  90
_cell_volume                       275.53
_cell_formula_units_Z              2
_symmetry_space_group_name_H-M     'P 1 21/n 1'
_symmetry_Int_Tables_number        14
loop_
_symmetry_equiv_pos_site_id
_symmetry_equiv_pos_as_xyz
  1	'-x+.5, y+.5, -z+.5'
  2	'-x, -y, -z'
  3	'x+.5, -y+.5, z+.5'
  4	'x, y, z'
loop_
_atom_type_symbol
_atom_type_oxidation_number
La3+	3
Na1+	1
O2-	-2
Ru5+	5
loop_
_atom_site_label
_atom_site_type_symbol
_atom_site_symmetry_multiplicity
_atom_site_Wyckoff_symbol
_atom_site_fract_x
_atom_site_fract_y
_atom_site_fract_z
_atom_site_occupancy
_atom_site_attached_hydrogens
La1 La3+ 4 e 0.4783 0.0686 0.2510 1. 0 
Na1 Na1+ 2 a 0 0 0 1. 0 
Ru1 Ru5+ 2 b 0.5 0.5 0 1. 0 
O1 O2- 4 e 0.2158 0.3244 0.0491 1. 0 
O2 O2- 4 e 0.6072 0.4594 0.2289 1. 0 
O3 O2- 4 e 0.3306 0.7759 0.0623 1. 0 

#End of data_160372-ICSD


