data_174007-ICSD
#?2014 by Fachinformationszentrum Karlsruhe, and the U.S. Secretary of 
#Commerce on behalf of the United States.  All rights reserved.
_database_code_ICSD                174007
_audit_creation_date               2010/02/01
_chemical_name_systematic          'Lithium Tecto-alumotetrasilicate'
_chemical_formula_structural       'Li Al (Si4 O10)'
_chemical_formula_sum              'Al1 Li1 O10 Si4'
_chemical_name_mineral             Petalite
_publ_section_title
;
Die Kristallstruktur von Petalit, Li Al Si4 O10
;
loop_
_citation_id
_citation_journal_abbrev
_citation_year
_citation_journal_volume
_citation_journal_issue
_citation_page_first
_citation_page_last
_citation_journal_id_ASTM
primary 'Acta Crystallographica (1,1948-23,1967)' 1955 8 27 781 787 ACCRA9
_publ_author_name                  'Zemann-Hedlik, A.;Zemann, J.'
_cell_length_a                     11.76
_cell_length_b                     5.14
_cell_length_c                     7.62
_cell_angle_alpha                  90.
_cell_angle_beta                   112.4
_cell_angle_gamma                  90.
_cell_volume                       425.85
_cell_formula_units_Z              2
_symmetry_space_group_name_H-M     'P 1 2/a 1'
_symmetry_Int_Tables_number        13
_refine_ls_R_factor_all            .22
loop_
_symmetry_equiv_pos_site_id
_symmetry_equiv_pos_as_xyz
  1	'x+.5, -y, z'
  2	'-x, -y, -z'
  3	'-x+.5, y, -z'
  4	'x, y, z'
loop_
_atom_type_symbol
_atom_type_oxidation_number
Al3+	3
Li1+	1
O2-	-2
Si4+	4
loop_
_atom_site_label
_atom_site_type_symbol
_atom_site_symmetry_multiplicity
_atom_site_Wyckoff_symbol
_atom_site_fract_x
_atom_site_fract_y
_atom_site_fract_z
_atom_site_occupancy
_atom_site_attached_hydrogens
_atom_site_B_iso_or_equiv
Al1 Al3+ 2 e 0.25 0.760 0 1. 0 .7 
Li1 Li1+ 2 e 0.25 0.280 0 1. 0 .7 
Si1 Si4+ 4 g 0.000 0.500 0.290 1. 0 .7 
Si2 Si4+ 4 g 0.146 0.000 0.290 1. 0 .7 
O1 O2- 2 b 0 0.5 0.5 1. 0 .7 
O2 O2- 2 f 0.25 0.980 0.5 1. 0 .7 
O3 O2- 4 g 0.095 0.294 0.263 1. 0 .7 
O4 O2- 4 g 0.359 0.530 0.135 1. 0 .7 
O5 O2- 4 g 0.037 0.800 0.263 1. 0 .7 
O6 O2- 4 g 0.209 0.970 0.135 1. 0 .7 

#End of data_174007-ICSD


