data_20231-ICSD
#?2014 by Fachinformationszentrum Karlsruhe, and the U.S. Secretary of 
#Commerce on behalf of the United States.  All rights reserved.
_database_code_ICSD                20231
_audit_creation_date               1981/12/31
_audit_update_record               2003/04/01
_chemical_name_systematic
;
Gadolinium Trialuminium Tetrakis(borate) - Ht
;
_chemical_formula_structural       'Gd Al3 (B O3)4'
_chemical_formula_sum              'Al3 B4 Gd1 O12'
_publ_section_title
;
The crystal structure of a new monoclinic modification of high-
temperature tr-Al-borate Gd Al3 (B O3)4
;
loop_
_citation_id
_citation_journal_abbrev
_citation_year
_citation_journal_volume
_citation_page_first
_citation_page_last
_citation_journal_id_ASTM
primary 'Doklady Akademii Nauk SSSR' 1981 261 361 365 DANKAS
2 'Phase Transition' 1992 38 127 220 PHTRDP
_publ_author_name
;
Belokoneva, E.L.;Pashkova, A.V.;Timchenko, T.I.;Belov, N.V.
;
_cell_length_a                     7.227(3)
_cell_length_b                     9.315(3)
_cell_length_c                     16.184(8)
_cell_angle_alpha                  90.
_cell_angle_beta                   90.57(4)
_cell_angle_gamma                  90.
_cell_volume                       1089.44
_cell_formula_units_Z              6
_symmetry_space_group_name_H-M     'C 1 2 1'
_symmetry_Int_Tables_number        5
_refine_ls_R_factor_all            .0525
loop_
_symmetry_equiv_pos_site_id
_symmetry_equiv_pos_as_xyz
  1	'-x, y, -z'
  2	'x, y, z'
  3	'-x+.5, y+.5, -z'
  4	'x+.5, y+.5, z'
loop_
_atom_type_symbol
_atom_type_oxidation_number
Al3+	3
B3+	3
Gd3+	3
O2-	-2
loop_
_atom_site_label
_atom_site_type_symbol
_atom_site_symmetry_multiplicity
_atom_site_Wyckoff_symbol
_atom_site_fract_x
_atom_site_fract_y
_atom_site_fract_z
_atom_site_occupancy
_atom_site_attached_hydrogens
_atom_site_B_iso_or_equiv
Gd1 Gd3+ 4 c 0.16984(6) 0 0.16821(3) 1. 0 0.3 
Gd2 Gd3+ 2 b 0 0.07159(8) 0.5 1. 0 0.33 
Al1 Al3+ 4 c 0.2965(8) 0.2762(5) 0.0187(3) 1. 0 0.25 
Al2 Al3+ 2 b 0 0.6242(6) 0.5 1. 0 0.1 
Al3 Al3+ 4 c 0.1319(9) 0.7843(3) 0.3516(4) 1. 0 0.11 
Al4 Al3+ 4 c 0.0397(10) 0.2834(4) 0.3132(4) 1. 0 0.25 
Al5 Al3+ 4 c 0.1682(5) 0.4450(6) 0.1656(2) 1. 0 0.46 
O1 O2- 4 c 0.1916(10) 0.4916(10) 0.4945(5) 1. 0 0.31 
O2 O2- 4 c 0.1772(14) 0.7678(13) 0.4696(6) 1. 0 0.35 
O3 O2- 4 c 0.3347(16) 0.9153(12) 0.335(67) 1. 0 0.26 
O4 O2- 2 a 0 0.9061(19) 0 1. 0 0.65 
O5 O2- 4 c 0.0974(16) 0.2704(13) 0.4261(7) 1. 0 0.44 
O6 O2- 4 c 0.4608(12) 0.1371(12) 0.3834(6) 1. 0 0.16 
O7 O2- 2 a 0 0.6474(22) 0 1. 0 0.71 
O8 O2- 4 c 0.1255(12) 0.424(1) 0.0488(5) 1. 0 0.36 
O9 O2- 4 c -.0062(16) 0.2956(11) 0.1965(7) 1. 0 0.38 
O10 O2- 4 c 0.2047(13) 0.4298(12) 0.2839(6) 1. 0 0.43 
O11 O2- 4 c 0.4759(11) 0.0742(10) 0.1752(5) 1. 0 0.41 
O12 O2- 4 c 0.3395(16) 0.2941(10) 0.1368(7) 1. 0 0.35 
O13 O2- 4 c 0.3607(11) 0.5741(10) 0.1573(5) 1. 0 0.41 
O14 O2- 4 c 0.2664(15) 0.795(1) 0.0914(6) 1. 0 0.29 
O15 O2- 4 c 0.3325(15) 0.6537(9) 0.3383(6) 1. 0 0.07 
O16 O2- 4 c 0.0708(15) 0.7942(10) 0.2408(7) 1. 0 0.32 
O17 O2- 4 c 0.4649(13) 0.4358(13) 0.3784(6) 1. 0 0.33 
O18 O2- 4 c 0.1410(11) 0.1245(9) 0.0419(5) 1. 0 0.31 
O19 O2- 4 c 0.1963(12) 0.1303(11) 0.2918(6) 1. 0 0.33 
B1 B3+ 4 c 0.3315(20) 0.0624(22) 0.3362(13) 1. 0 0.75 
B2 B3+ 2 a 0 0.0580(22) 0 1. 0 0.03 
B3 B3+ 4 c 0.2007(20) 0.3474(18) 0.4807(9) 1. 0 0.39 
B4 B3+ 4 c 0.4623(18) 0.2196(16) 0.1850(8) 1. 0 0.4 
B5 B3+ 4 c 0.3312(26) 0.5062(25) 0.3276(11) 1. 0 0.49 
B6 B3+ 4 c 0.3717(18) 0.7203(15) 0.1476(8) 1. 0 0.29 
B7 B3+ 2 a 0.5 0.0013(27) 0 1. 0 0.1 

#End of data_20231-ICSD


