data_10134-ICSD
#?2014 by Fachinformationszentrum Karlsruhe, and the U.S. Secretary of 
#Commerce on behalf of the United States.  All rights reserved.
_database_code_ICSD                10134
_audit_creation_date               1980/01/01
_chemical_name_systematic          'Potassium Iron Trichloride'
_chemical_formula_structural       'K Fe Cl3'
_chemical_formula_sum              'Cl3 Fe1 K1'
_publ_section_title
;
Neutron diffraction study of the magnetic structure of K Fe Cl3
;
loop_
_citation_id
_citation_journal_abbrev
_citation_year
_citation_journal_volume
_citation_page_first
_citation_page_last
_citation_journal_id_ASTM
primary 'Physical Review, Serie 3. B - Solid State (1,1970-17,1977)'
 1974 9 1071 1076 PLRBAQ
_publ_author_name
;
Gurewitz, E.;Makovsky, J.;Shaked, H.
;
_cell_length_a                     8.715
_cell_length_b                     3.845
_cell_length_c                     14.15
_cell_angle_alpha                  90.
_cell_angle_beta                   90.
_cell_angle_gamma                  90.
_cell_volume                       474.15
_cell_formula_units_Z              4
_symmetry_space_group_name_H-M     'P n m a'
_symmetry_Int_Tables_number        62
_refine_ls_R_factor_all            .098
loop_
_symmetry_equiv_pos_site_id
_symmetry_equiv_pos_as_xyz
  1	'x+.5, y, -z+.5'
  2	'x, -y+.5, z'
  3	'-x+.5, y+.5, z+.5'
  4	'-x, -y, -z'
  5	'-x+.5, -y, z+.5'
  6	'-x, y+.5, -z'
  7	'x+.5, -y+.5, -z+.5'
  8	'x, y, z'
loop_
_atom_type_symbol
_atom_type_oxidation_number
Cl1-	-1
Fe2+	2
K1+	1
loop_
_atom_site_label
_atom_site_type_symbol
_atom_site_symmetry_multiplicity
_atom_site_Wyckoff_symbol
_atom_site_fract_x
_atom_site_fract_y
_atom_site_fract_z
_atom_site_occupancy
_atom_site_attached_hydrogens
Fe1 Fe2+ 4 c 0.168(2) 0.25 0.053(2) 1. 0 
K1 K1+ 4 c 0.424(14) 0.25 0.818(4) 1. 0 
Cl1 Cl1- 4 c 0.267(4) 0.25 0.208(1) 1. 0 
Cl2 Cl1- 4 c 0.162(4) 0.25 0.493(1) 1. 0 
Cl3 Cl1- 4 c 0.015(3) 0.25 0.898(2) 1. 0 

#End of data_10134-ICSD


