data_419202-ICSD
#?2014 by Fachinformationszentrum Karlsruhe, and the U.S. Secretary of 
#Commerce on behalf of the United States.  All rights reserved.
_database_code_ICSD                419202
_audit_creation_date               2009/02/01
_chemical_name_systematic          'Silver Copper Vanadate(V)'
_chemical_formula_structural       'Ag Cu (V O4)'
_chemical_formula_sum              'Ag1 Cu1 O4 V1'
_publ_section_title
;
Synthesis and crystal structure of Ag Cu V O4
;
loop_
_citation_id
_citation_journal_abbrev
_citation_year
_citation_journal_volume
_citation_journal_issue
_citation_page_first
_citation_page_last
_citation_journal_id_ASTM
primary 'Zeitschrift fuer Anorganische und Allgemeine Chemie (1950) (DE)'
 2008 634 10 1669 1672 ZAACAB
_publ_author_name                  'Moeller, A.;Jainski, J.'
_cell_length_a                     9.2417(19)
_cell_length_b                     6.7755(11)
_cell_length_c                     5.3957(10)
_cell_angle_alpha                  90.00
_cell_angle_beta                   90.00
_cell_angle_gamma                  90.00
_cell_volume                       337.86
_cell_formula_units_Z              4
_symmetry_space_group_name_H-M     'P n m a'
_symmetry_Int_Tables_number        62
_refine_ls_R_factor_all            .0321
loop_
_symmetry_equiv_pos_site_id
_symmetry_equiv_pos_as_xyz
  1	'x+.5, y, -z+.5'
  2	'x, -y+.5, z'
  3	'-x+.5, y+.5, z+.5'
  4	'-x, -y, -z'
  5	'-x+.5, -y, z+.5'
  6	'-x, y+.5, -z'
  7	'x+.5, -y+.5, -z+.5'
  8	'x, y, z'
loop_
_atom_type_symbol
_atom_type_oxidation_number
Ag1+	1
Cu2+	2
O2-	-2
V5+	5
loop_
_atom_site_label
_atom_site_type_symbol
_atom_site_symmetry_multiplicity
_atom_site_Wyckoff_symbol
_atom_site_fract_x
_atom_site_fract_y
_atom_site_fract_z
_atom_site_occupancy
_atom_site_attached_hydrogens
_atom_site_U_iso_or_equiv
Ag1 Ag1+ 4 c 0.13779(5) 0.2500 0.51302(7) 1 0 0.0146(2) 
Cu1 Cu2+ 4 a 0.5000 0.0000 0.5000 1 0 0.0116(3) 
V1 V5+ 4 c 0.31030(10) 0.2500 0.05625(19) 1 0 0.0122(3) 
O1 O2- 4 c 0.1273(4) 0.7500 0.2634(7) 1 0 0.0176(8) 
O2 O2- 4 c 0.1140(4) 0.2500 0.0720(8) 1 0 0.0158(8) 
O3 O2- 8 d 0.3748(3) 0.4510(4) 0.2155(5) 1 0 0.0168(6) 

loop_
_atom_site_aniso_label
_atom_site_aniso_type_symbol
_atom_site_aniso_U_11
_atom_site_aniso_U_22
_atom_site_aniso_U_33
_atom_site_aniso_U_12
_atom_site_aniso_U_13
_atom_site_aniso_U_23
Ag1 Ag1+ 0.0165(3) 0.0157(3) 0.0117(3) 0.000 0.00010(11) 0.000
Cu1 Cu2+ 0.0111(4) 0.0130(5) 0.0106(4) -0.0019(3) -0.00150(17) 0.00216(18)
V1 V5+ 0.0118(5) 0.0136(5) 0.0112(5) 0.000 0.0001(3) 0.000
O1 O2- 0.0147(19) 0.024(2) 0.0136(19) 0.000 -0.0004(13) 0.000
O2 O2- 0.0160(17) 0.0164(19) 0.0151(19) 0.000 0.0002(15) 0.000
O3 O2- 0.0190(14) 0.0170(14) 0.0145(12) 0.0019(10) -0.0040(9) -0.0015(11)
#End of data_419202-ICSD


