data_154117-ICSD
#?2014 by Fachinformationszentrum Karlsruhe, and the U.S. Secretary of 
#Commerce on behalf of the United States.  All rights reserved.
_database_code_ICSD                154117
_audit_creation_date               2007/04/01
_chemical_name_systematic          'Lithium Iron Phosphate(V)'
_chemical_formula_structural       'Li Fe (P O4)'
_chemical_formula_sum              'Fe1 Li1 O4 P1'
_publ_section_title
;
Crystal chemistry of the olivine-type Lix Fe P O4 system (0 <= x <= 
1) between 5 and 370 C
;
loop_
_citation_id
_citation_journal_abbrev
_citation_year
_citation_journal_volume
_citation_page_first
_citation_page_last
_citation_journal_id_ASTM
primary 'Solid State Sciences' 2005 7 1506 1516 SSSCFJ
_publ_author_name
;
Delacourt, C.;Rodriguez Carvajal, J.;Schmitt, B.;Tarascon, J.-
M.;Masquelier, C.
;
_cell_length_a                     6.004(5)
_cell_length_b                     10.324(1)
_cell_length_c                     4.6953(4)
_cell_angle_alpha                  90.
_cell_angle_beta                   90.
_cell_angle_gamma                  90.
_cell_volume                       291.04
_cell_formula_units_Z              4
_symmetry_space_group_name_H-M     'P m n b'
_symmetry_Int_Tables_number        62
_refine_ls_R_factor_all            .0199
loop_
_symmetry_equiv_pos_site_id
_symmetry_equiv_pos_as_xyz
  1	'x, y+.5, -z+.5'
  2	'-x+.5, y, z'
  3	'x+.5, -y+.5, z+.5'
  4	'-x, -y, -z'
  5	'-x, -y+.5, z+.5'
  6	'x+.5, -y, -z'
  7	'-x+.5, y+.5, -z+.5'
  8	'x, y, z'
loop_
_atom_type_symbol
_atom_type_oxidation_number
Fe2+	2
Li1+	1
O2-	-2
P5+	5
loop_
_atom_site_label
_atom_site_type_symbol
_atom_site_symmetry_multiplicity
_atom_site_Wyckoff_symbol
_atom_site_fract_x
_atom_site_fract_y
_atom_site_fract_z
_atom_site_occupancy
_atom_site_attached_hydrogens
_atom_site_B_iso_or_equiv
Li1 Li1+ 4 a 0 0 0 1. 0 2.0(4) 
Fe1 Fe2+ 4 c 0.250 0.2817(3) 0.9734(7) 1. 0 0.40(5) 
P1 P5+ 4 c 0.250 0.0946(5) 0.416(1) 1. 0 0.49(8) 
O1 O2- 4 c 0.250 0.0962(6) 0.742(1) 1. 0 0.59(9) 
O2 O2- 4 c 0.250 0.4584(5) 0.202(1) 1. 0 0.92(9) 
O3 O2- 8 d 0.0492(6) 0.1666(4) 0.2833(7) 1. 0 0.72(5) 

#End of data_154117-ICSD


