data_51727-ICSD
#?2014 by Fachinformationszentrum Karlsruhe, and the U.S. Secretary of 
#Commerce on behalf of the United States.  All rights reserved.
_database_code_ICSD                51727
_audit_creation_date               2003/10/01
_audit_update_record               2006/04/01
_chemical_name_systematic          'Potassium Chlorate(VII)'
_chemical_formula_structural       'K (Cl O4)'
_chemical_formula_sum              'Cl1 K1 O4'
_publ_section_title
;
Order-disorder structural phase transitions in alkali perchlorates
;
loop_
_citation_id
_citation_journal_abbrev
_citation_year
_citation_journal_volume
_citation_page_first
_citation_page_last
_citation_journal_id_ASTM
primary 'Journal of Solid State Chemistry' 2002 163 294 299 JSSCBI
2 'Golden Book of Phase Transitions, Wroclaw' 2002 1 1 123 GBOPT5
_publ_author_name
;
Liu, J.;Duan, C.-G.;Mei, W.N.;Smith, R.W.;Hardy, J.R.
;
_cell_length_a                     8.2756
_cell_length_b                     5.7270
_cell_length_c                     7.0410
_cell_angle_alpha                  90
_cell_angle_beta                   90
_cell_angle_gamma                  90
_cell_volume                       333.7
_cell_formula_units_Z              4
_symmetry_space_group_name_H-M     'P n m a'
_symmetry_Int_Tables_number        62
loop_
_symmetry_equiv_pos_site_id
_symmetry_equiv_pos_as_xyz
  1	'x+.5, y, -z+.5'
  2	'x, -y+.5, z'
  3	'-x+.5, y+.5, z+.5'
  4	'-x, -y, -z'
  5	'-x+.5, -y, z+.5'
  6	'-x, y+.5, -z'
  7	'x+.5, -y+.5, -z+.5'
  8	'x, y, z'
loop_
_atom_type_symbol
_atom_type_oxidation_number
Cl7+	7
K1+	1
O2-	-2
loop_
_atom_site_label
_atom_site_type_symbol
_atom_site_symmetry_multiplicity
_atom_site_Wyckoff_symbol
_atom_site_fract_x
_atom_site_fract_y
_atom_site_fract_z
_atom_site_occupancy
_atom_site_attached_hydrogens
K1 K1+ 4 c 0.1748 0.25 0.3407 1. 0 
Cl1 Cl7+ 4 c 0.0611 0.25 0.8234 1. 0 
O1 O2- 4 c 0.1904 0.25 0.9610 1. 0 
O2 O2- 4 c -.0926 0.25 0.9206 1. 0 
O3 O2- 8 d 0.0729 0.0435 0.7060 1. 0 

#End of data_51727-ICSD


