data_81478-ICSD
#?2014 by Fachinformationszentrum Karlsruhe, and the U.S. Secretary of 
#Commerce on behalf of the United States.  All rights reserved.
_database_code_ICSD                81478
_audit_creation_date               1997/11/05
_chemical_name_systematic          'Dicesium Dipotassium Decaborate'
_chemical_formula_structural       'Cs2 K2 B10 O17'
_chemical_formula_sum              'B10 Cs2 K2 O17'
_publ_section_title
;
New layered polyborates Cs2 M2 B10 O17 (M = Na, K)
;
loop_
_citation_id
_citation_journal_abbrev
_citation_year
_citation_journal_volume
_citation_page_first
_citation_page_last
_citation_journal_id_ASTM
primary 'Inorganic Chemistry' 1996 35 463 466 INOCAJ
_publ_author_name                  'Tu, J.-M.;Keszler, D.A.'
_cell_length_a                     22.547(9)
_cell_length_b                     6.614(2)
_cell_length_c                     11.288(4)
_cell_angle_alpha                  90.
_cell_angle_beta                   103.25(4)
_cell_angle_gamma                  90.
_cell_volume                       1638.52
_cell_formula_units_Z              4
_symmetry_space_group_name_H-M     'C 1 2/c 1'
_symmetry_Int_Tables_number        15
_refine_ls_R_factor_all            .079
loop_
_symmetry_equiv_pos_site_id
_symmetry_equiv_pos_as_xyz
  1	'x, -y, z+.5'
  2	'-x, -y, -z'
  3	'-x, y, -z+.5'
  4	'x, y, z'
  5	'x+.5, -y+.5, z+.5'
  6	'-x+.5, -y+.5, -z'
  7	'-x+.5, y+.5, -z+.5'
  8	'x+.5, y+.5, z'
loop_
_atom_type_symbol
_atom_type_oxidation_number
B3+	3
Cs1+	1
K1+	1
O2-	-2
loop_
_atom_site_label
_atom_site_type_symbol
_atom_site_symmetry_multiplicity
_atom_site_Wyckoff_symbol
_atom_site_fract_x
_atom_site_fract_y
_atom_site_fract_z
_atom_site_occupancy
_atom_site_attached_hydrogens
_atom_site_B_iso_or_equiv
Cs1 Cs1+ 8 f 0.4456(1) 0.1910(3) 0.4064(2) 1. 0 3.17(7) 
K1 K1+ 8 f 0.2712(3) 0.0819(8) 0.3255(4) 1. 0 1.8(2) 
B1 B3+ 8 f 0.448(2) 0.677(4) 0.264(2) 1. 0 3.(1) 
B2 B3+ 8 f 0.334(1) 0.443(3) 0.515(2) 1. 0 1.1(4) 
B3 B3+ 8 f 0.351(1) 0.787(3) 0.574(2) 1. 0 2.(1) 
B4 B3+ 8 f 0.364(1) 0.686(4) 0.371(2) 1. 0 1.1(4) 
B5 B3+ 8 f 0.354(1) 0.848(3) 0.162(2) 1. 0 1.0(4) 
O1 O2- 8 f 0.1679(6) 0.264(2) 0.238(1) 1. 0 0.7(2) 
O2 O2- 8 f 0.3261(7) 0.247(2) 0.545(1) 1. 0 1.3(6) 
O3 O2- 8 f 0.4212(7) 0.189(2) 0.682(1) 1. 0 1.8(3) 
O4 O2- 8 f 0.3688(7) 0.832(2) 0.471(1) 1. 0 1.4(3) 
O5 O2- 8 f 0.1663(7) -.093(2) 0.401(1) 1. 0 1.1(3) 
O6 O2- 8 f 0.3353(7) 0.488(2) 0.399(1) 1. 0 1.2(3) 
O7 O2- 8 f 0.4269(8) 0.629(2) 0.367(1) 1. 0 2.1(6) 
O8 O2- 4 e 0 0.068(4) 0.25 1. 0 2.8(5) 
O9 O2- 8 f 0.3454(8) 0.070(2) 0.160(1) 1. 0 1.4(6) 

#End of data_81478-ICSD


