data_151573-ICSD
#?2014 by Fachinformationszentrum Karlsruhe, and the U.S. Secretary of 
#Commerce on behalf of the United States.  All rights reserved.
_database_code_ICSD                151573
_audit_creation_date               2006/10/01
_chemical_name_systematic          'Calcium Digermanate'
_chemical_formula_structural       'Ca (Ge2 O5)'
_chemical_formula_sum              'Ca1 Ge2 O5'
_publ_section_title
;
Structure and phase transition of Ca Ge2 O5 revisited
;
loop_
_citation_id
_citation_journal_abbrev
_citation_year
_citation_journal_volume
_citation_page_first
_citation_page_last
_citation_journal_id_ASTM
primary 'Physics and Chemistry of Minerals' 2004 31 224 231 PCMIDU
_publ_author_name                  'Malcherek, T.;Bosenick, A.'
_cell_length_a                     6.5650(6)
_cell_length_b                     8.8168(8)
_cell_length_c                     6.8822(6)
_cell_angle_alpha                  89.472(2)
_cell_angle_beta                   112.967(1)
_cell_angle_gamma                  90.273(2)
_cell_volume                       366.76
_cell_formula_units_Z              4
_symmetry_space_group_name_H-M     'C -1'
_symmetry_Int_Tables_number        2
_refine_ls_R_factor_all            .101
loop_
_symmetry_equiv_pos_site_id
_symmetry_equiv_pos_as_xyz
  1	'-x, -y, -z'
  2	'x, y, z'
  3	'-x+.5, -y+.5, -z'
  4	'x+.5, y+.5, z'
loop_
_atom_type_symbol
_atom_type_oxidation_number
Ca2+	2
Ge4+	4
O2-	-2
loop_
_atom_site_label
_atom_site_type_symbol
_atom_site_symmetry_multiplicity
_atom_site_Wyckoff_symbol
_atom_site_fract_x
_atom_site_fract_y
_atom_site_fract_z
_atom_site_occupancy
_atom_site_attached_hydrogens
_atom_site_U_iso_or_equiv
Ca1 Ca2+ 4 i 0.9978(14) 0.6700(7) 0.2538(13) 1. 0 0.0063(22) 
Ge1 Ge4+ 4 i 0.9998(8) 0.3143(4) 0.2467(9) 1. 0 0.0080(14) 
Ge2 Ge4+ 2 a 0 0 0 1. 0 0.0068(20) 
Ge3 Ge4+ 2 b 0 0 0.5 1. 0 0.0063(20) 
O1 O2- 4 i 0.0092(36) 0.9276(16) 0.2487(32) 1. 0 0.0054(23) 
O2 O2- 4 i 0.3984(31) 0.2966(19) 0.9061(28) 1. 0 0.0054(23) 
O3 O2- 4 i 0.8161(29) 0.4403(20) 0.0805(28) 1. 0 0.0054(23) 
O4 O2- 4 i 0.1843(29) 0.4379(20) 0.4222(27) 1. 0 0.0054(23) 
O5 O2- 4 i 0.1181(31) 0.7992(20) 0.6063(30) 1. 0 0.0054(23) 

#End of data_151573-ICSD


