data_92702-ICSD
#?2014 by Fachinformationszentrum Karlsruhe, and the U.S. Secretary of 
#Commerce on behalf of the United States.  All rights reserved.
_database_code_ICSD                92702
_audit_creation_date               2003/04/01
_chemical_name_systematic
;
Dipotassium Manganese Bis(sulfate(VI)) Tetrahydrate - Lt Ii
;
_chemical_formula_structural       'K2 Mn (S O4)2 (H2 O)4'
_chemical_formula_sum              'H8 K2 Mn1 O12 S2'
_chemical_name_mineral             'Leonite, manganoan'
_publ_section_title
;
The crystal structures of the low-temperature phases of leonite-type 
compounds, K2 Me (S O4)2 * 4(H2 O) (Me(2+) = Mg, Mn, Fe)
;
loop_
_citation_id
_citation_journal_abbrev
_citation_year
_citation_journal_volume
_citation_page_first
_citation_page_last
_citation_journal_id_ASTM
primary 'American Mineralogist' 2001 86 1282 1292 AMMIAY
_publ_author_name
;
Hertweck, B.;Giester, G.;Libowitzky, E.
;
_cell_length_a                     12.031(1)
_cell_length_b                     9.531(1)
_cell_length_c                     9.902(1)
_cell_angle_alpha                  90
_cell_angle_beta                   95.02(1)
_cell_angle_gamma                  90
_cell_volume                       1131.08
_cell_formula_units_Z              4
_symmetry_space_group_name_H-M     'P 1 21/a 1'
_symmetry_Int_Tables_number        14
_refine_ls_R_factor_all            .024
loop_
_symmetry_equiv_pos_site_id
_symmetry_equiv_pos_as_xyz
  1	'x+.5, -y+.5, z'
  2	'-x, -y, -z'
  3	'-x+.5, y+.5, -z'
  4	'x, y, z'
loop_
_atom_type_symbol
_atom_type_oxidation_number
H1+	1
K1+	1
Mn2+	2
O2-	-2
S6+	6
loop_
_atom_site_label
_atom_site_type_symbol
_atom_site_symmetry_multiplicity
_atom_site_Wyckoff_symbol
_atom_site_fract_x
_atom_site_fract_y
_atom_site_fract_z
_atom_site_occupancy
_atom_site_attached_hydrogens
_atom_site_U_iso_or_equiv
K1 K1+ 4 e 0.16965(3) 0.26768(3) 0.23973(3) 1. 0 0.0096(1) 
K2 K1+ 4 e 0.16992(3) 0.74218(3) 0.25852(3) 1. 0 0.0093(1) 
Mn1 Mn2+ 2 a 0 0 0 1. 0 0.0059(1) 
Mn2 Mn2+ 2 b 0 0.5 0.5 1. 0 0.0057(1) 
S1 S6+ 4 e 0.20732(3) 0.50477(4) -.04519(4) 1. 0 0.0059(1) 
S2 S6+ 4 e 0.21252(3) -.00747(4) 0.51973(4) 1. 0 0.0057(1) 
O1 O2- 4 e 0.8466(1) 0.3724(1) 0.1163(1) 1. 0 0.0103(2) 
O2 O2- 4 e 0.1633(1) 0.3739(1) 0.8888(1) 1. 0 0.0112(2) 
O3 O2- 4 e 0.1493(1) 0.0908(1) 0.5998(1) 1. 0 0.0102(2) 
O4 O2- 4 e 0.1791(1) 0.8472(1) 0.5455(1) 1. 0 0.0110(2) 
O5 O2- 4 e 0.1725(1) 0.0127(1) 0.0611(1) 1. 0 0.0149(3) 
O6 O2- 4 e 0.1853(1) 0.5062(1) 0.0973(1) 1. 0 0.0125(2) 
O7 O2- 4 e 0.1674(1) 0.5089(1) 0.4342(1) 1. 0 0.0090(2) 
O8 O2- 4 e 0.1931(1) 0.0227(1) 0.3741(1) 1. 0 0.0108(2) 
O9 O2- 4 e -0.0342(1) 0.3316(1) 0.3537(1) 1.000 0 0.0094(2) 
O10 O2- 4 e 0.0431(1) 0.3347(1) 0.6484(1) 1.000 0 0.0096(2) 
O11 O2- 4 e -0.0051(1) 0.2279(1) -0.0131(1) 1.000 0 0.0145(3) 
O12 O2- 4 e 0.0111(1) -0.0103(1) 0.7802(1) 1.000 0 0.0133(2) 
H1 H1+ 4 e -0.070(2) 0.271(2) 0.387(2) 1. 0 0.020(5) 
H2 H1+ 4 e -0.074(2) 0.351(2) 0.275(2) 1. 0 0.029(6) 
H3 H1+ 4 e 0.074(3) 0.265(2) 0.620(2) 1. 0 0.021(6) 
H4 H1+ 4 e 0.081(2) 0.352(3) 0.721(2) 1. 0 0.032(6) 
H5 H1+ 4 e -0.049(2) 0.280(2) 0.025(2) 1. 0 0.031(6) 
H6 H1+ 4 e 0.043(2) 0.274(3) -0.037(2) 1. 0 0.034(7) 
H7 H1+ 4 e 0.060(2) 0.008(2) 0.733(2) 1. 0 0.026(6) 
H8 H1+ 4 e -0.044(2) -0.014(2) 0.729(2) 1. 0 0.023(6) 

#End of data_92702-ICSD


