data_90927-ICSD
#?2014 by Fachinformationszentrum Karlsruhe, and the U.S. Secretary of 
#Commerce on behalf of the United States.  All rights reserved.
_database_code_ICSD                90927
_audit_creation_date               2002/04/01
_chemical_name_systematic          'Calcium Tetravanadate(IV)'
_chemical_formula_structural       'Ca V4 O9'
_chemical_formula_sum              'Ca1 O9 V4'
_publ_section_title
;
Synthesis and crystal structure of Sr V4 O9 in a metastable state
;
loop_
_citation_id
_citation_journal_abbrev
_citation_year
_citation_journal_volume
_citation_page_first
_citation_page_last
_citation_journal_id_ASTM
primary 'Journal of Solid State Chemistry' 2000 149 414 418 JSSCBI
_publ_author_name
;
Oka, Y.;Yao, T.;Yamamoto, N.;Ueda, M.;Maegawa, S.
;
_cell_length_a                     8.327(3)
_cell_length_b                     8.327(3)
_cell_length_c                     5.013(4)
_cell_angle_alpha                  90.
_cell_angle_beta                   90.
_cell_angle_gamma                  90.
_cell_volume                       347.6
_cell_formula_units_Z              2
_symmetry_space_group_name_H-M     'P 4/n Z'
_symmetry_Int_Tables_number        85
_refine_ls_R_factor_all            .037
loop_
_symmetry_equiv_pos_site_id
_symmetry_equiv_pos_as_xyz
  1	'-y, x+.5, -z'
  2	'y+.5, -x, -z'
  3	'x+.5, y+.5, -z'
  4	'-x, -y, -z'
  5	'y, -x+.5, z'
  6	'-y+.5, x, z'
  7	'-x+.5, -y+.5, z'
  8	'x, y, z'
loop_
_atom_type_symbol
_atom_type_oxidation_number
Ca2+	2
O2-	-2
V4+	4
loop_
_atom_site_label
_atom_site_type_symbol
_atom_site_symmetry_multiplicity
_atom_site_Wyckoff_symbol
_atom_site_fract_x
_atom_site_fract_y
_atom_site_fract_z
_atom_site_occupancy
_atom_site_attached_hydrogens
_atom_site_B_iso_or_equiv
Ca1 Ca2+ 2 c 0.25 0.25 0.1673(2) 1. 0 0.645(8) 
V1 V4+ 8 g 0.15845(5) 0.53656(5) 0.62521(9) 1. 0 0.506(6) 
O1 O2- 8 g 0.0445(2) 0.3560(2) 0.4629(4) 1. 0 0.59(3) 
O2 O2- 8 g 0.1769(3) 0.5003(3) 0.9407(4) 1. 0 0.96(3) 
O3 O2- 2 b 0.25 0.75 0.5 1. 0 0.57(3) 

#End of data_90927-ICSD


