data_20112-ICSD
#?2014 by Fachinformationszentrum Karlsruhe, and the U.S. Secretary of 
#Commerce on behalf of the United States.  All rights reserved.
_database_code_ICSD                20112
_audit_creation_date               1980/01/01
_audit_update_record               2006/04/01
_chemical_name_systematic
;
Lithium Sodium Tecto-tetragermanate
;
_chemical_formula_structural       'Li Na (Ge4 O9)'
_chemical_formula_sum              'Ge4 Li1 Na1 O9'
_publ_section_title
;
The crystal structure of compound alkaline tetragermanate
;
loop_
_citation_id
_citation_journal_abbrev
_citation_year
_citation_journal_volume
_citation_page_first
_citation_page_last
_citation_journal_id_ASTM
primary 'Doklady Akademii Nauk SSSR' 1973 213 584 587 DANKAS
2 'Golden Book of Phase Transitions, Wroclaw' 2002 1 1 123 GBOPT5
_publ_author_name
;
Matveeva, R.G.;Ilyukhin, V.V.;Belov, N.V.
;
_cell_length_a                     15.9
_cell_length_b                     4.683
_cell_length_c                     9.322
_cell_angle_alpha                  90.
_cell_angle_beta                   90.
_cell_angle_gamma                  90.
_cell_volume                       694.11
_cell_formula_units_Z              4
_symmetry_space_group_name_H-M     'P c a 21'
_symmetry_Int_Tables_number        29
_refine_ls_R_factor_all            .071
loop_
_symmetry_equiv_pos_site_id
_symmetry_equiv_pos_as_xyz
  1	'x+.5, -y, z'
  2	'-x+.5, y, z+.5'
  3	'-x, -y, z+.5'
  4	'x, y, z'
loop_
_atom_type_symbol
_atom_type_oxidation_number
Ge4+	4
Li1+	1
Na1+	1
O2-	-2
loop_
_atom_site_label
_atom_site_type_symbol
_atom_site_symmetry_multiplicity
_atom_site_Wyckoff_symbol
_atom_site_fract_x
_atom_site_fract_y
_atom_site_fract_z
_atom_site_occupancy
_atom_site_attached_hydrogens
Ge1 Ge4+ 4 a 0.0981 -.0086 0.0057 1. 0 
Ge2 Ge4+ 4 a 0.4048 0.0099 0.0881 1. 0 
Ge3 Ge4+ 4 a 0.2064 0.0019 0.2991 1. 0 
Ge4 Ge4+ 4 a 0.3449 0.4996 0.2915 1. 0 
Na1 Na1+ 4 a 0.0453 0.523 0.3168 1. 0 
Li1 Li1+ 4 a 0.2661 0.4564 0.042 1. 0 
O1 O2- 4 a 0.2587 0.7185 0.3872 1. 0 
O2 O2- 4 a 0.1417 0.1592 0.4269 1. 0 
O3 O2- 4 a 0.0064 0.1665 0.0456 1. 0 
O4 O2- 4 a 0.3361 0.2531 0.4548 1. 0 
O5 O2- 4 a 0.1355 0.8518 0.1667 1. 0 
O6 O2- 4 a 0.4275 0.7189 0.3814 1. 0 
O7 O2- 4 a 0.4291 0.2733 0.2 1. 0 
O8 O2- 4 a 0.2611 0.2655 0.2131 1. 0 
O9 O2- 4 a 0.3363 0.7148 0.1305 1. 0 

#End of data_20112-ICSD


