data_203215-ICSD
#?2014 by Fachinformationszentrum Karlsruhe, and the U.S. Secretary of 
#Commerce on behalf of the United States.  All rights reserved.
_database_code_ICSD                203215
_audit_creation_date               1996/10/14
_chemical_name_systematic
;
Dipotassium Manganese Tetrakis(vanadate)
;
_chemical_formula_structural       'K2 Mn (V O3)4'
_chemical_formula_sum              'K2 Mn1 O12 V4'
_publ_section_title
;
K2 Mn3 (O H)2 (V O4)2: a new two-dimensional potassium manganese(II) 
hydroxyvanadate
;
loop_
_citation_id
_citation_journal_abbrev
_citation_year
_citation_journal_volume
_citation_page_first
_citation_page_last
_citation_journal_id_ASTM
primary 'Acta Crystallographica, Section C: Crystal Structure Communications'
 1996 52 283 284 ACSCEE
_publ_author_name
;
Liao, J.-H.;Sigala, C.;Guyomard, D.;Piffard, Y.
;
_cell_length_a                     8.1678(9)
_cell_length_b                     9.226(1)
_cell_length_c                     8.6395(8)
_cell_angle_alpha                  90.
_cell_angle_beta                   109.678(8)
_cell_angle_gamma                  90.
_cell_volume                       613.02
_cell_formula_units_Z              2
_symmetry_space_group_name_H-M     'P 1 21/n 1'
_symmetry_Int_Tables_number        14
_refine_ls_R_factor_all            .037
loop_
_symmetry_equiv_pos_site_id
_symmetry_equiv_pos_as_xyz
  1	'-x+.5, y+.5, -z+.5'
  2	'-x, -y, -z'
  3	'x+.5, -y+.5, z+.5'
  4	'x, y, z'
loop_
_atom_type_symbol
_atom_type_oxidation_number
K1+	1
Mn2+	2
O2-	-2
V5+	5
loop_
_atom_site_label
_atom_site_type_symbol
_atom_site_symmetry_multiplicity
_atom_site_Wyckoff_symbol
_atom_site_fract_x
_atom_site_fract_y
_atom_site_fract_z
_atom_site_occupancy
_atom_site_attached_hydrogens
Mn1 Mn2+ 2 a 0.5 0.5 0.5 1. 0 
V1 V5+ 4 e 0.8332(1) 0.7876(1) 0.6208(1) 1. 0 
V2 V5+ 4 e 0.6988(1) 0.9419(1) 0.2395(1) 1. 0 
K1 K1+ 4 e 0.1413(2) 0.8021(1) 0.4072(1) 1. 0 
O1 O2- 4 e 0.8158(5) 0.9092(4) 0.4559(4) 1. 0 
O2 O2- 4 e 0.8492(5) 0.8832(4) 0.7876(4) 1. 0 
O3 O2- 4 e 0.6613(5) 0.6832(4) 0.5864(4) 1. 0 
O4 O2- 4 e 0.8339(4) 0.9254(4) 0.1349(4) 1. 0 
O5 O2- 4 e 0.0239(5) 0.6838(4) 0.6558(4) 1. 0 
O6 O2- 4 e 0.6275(6) 0.1057(4) 0.2269(5) 1. 0 

loop_
_atom_site_aniso_label
_atom_site_aniso_type_symbol
_atom_site_aniso_U_11
_atom_site_aniso_U_22
_atom_site_aniso_U_33
_atom_site_aniso_U_12
_atom_site_aniso_U_13
_atom_site_aniso_U_23
Mn1 Mn2+ 0.009(1) 0.011(1) 0.009(1) 0.001(1) 0.004(1) 0.001(1)
V1 V5+ 0.009(1) 0.013(1) 0.010(1) 0.001(1) 0.004(1) 0.001(1)
V2 V5+ 0.012(1) 0.015(1) 0.012(1) 0.001(1) 0.006(1) 0.000(1)
K1 K1+ 0.025(1) 0.023(1) 0.023(1) 0.002(1) 0.015(1) 0.000(1)
O1 O2- 0.022(2) 0.020(2) 0.012(1) 0.003(2) 0.004(1) -.003(1)
O2 O2- 0.021(2) 0.023(2) 0.016(2) 0.007(2) 0.008(1) 0.009(1)
O3 O2- 0.021(2) 0.019(2) 0.023(2) 0.008(2) 0.009(2) 0.005(1)
O4 O2- 0.025(2) 0.037(2) 0.023(2) -.014(2) 0.012(2) -.009(2)
O5 O2- 0.018(2) 0.024(2) 0.019(2) 0.003(2) 0.010(1) -.001(2)
O6 O2- 0.035(3) 0.022(2) 0.038(2) -.015(2) 0.012(2) -.003(2)
#End of data_203215-ICSD


