data_156246-ICSD
#?2014 by Fachinformationszentrum Karlsruhe, and the U.S. Secretary of 
#Commerce on behalf of the United States.  All rights reserved.
_database_code_ICSD                156246
_audit_creation_date               2007/08/01
_chemical_name_systematic
;
Potassium Copper(I) Uranium Selenide
;
_chemical_formula_structural       'K Cu U Se3'
_chemical_formula_sum              'Cu1 K1 Se3 U1'
_publ_section_title
;
New quaternary compounds resulting from the reaction of copper and f-
block metals in molten polychalcogenide salts at intermediate 
temperatures. Valence fluctuations in the layered Cs Cu Ce S3
;
loop_
_citation_id
_citation_journal_abbrev
_citation_year
_citation_journal_volume
_citation_page_first
_citation_page_last
_citation_journal_id_ASTM
primary 'Chemistry of Materials' 1996 8 751 761 CMATEX
_publ_author_name
;
Sutorik, A.C.;Albritton-Thomas, J.;Hogan, T.;Kannewurf, 
C.R.;Kanatzidis, M.G.
;
_cell_length_a                     4.112(2)
_cell_length_b                     14.437(3)
_cell_length_c                     10.675(2)
_cell_angle_alpha                  90.
_cell_angle_beta                   90.
_cell_angle_gamma                  90.
_cell_volume                       633.72
_cell_formula_units_Z              4
_symmetry_space_group_name_H-M     'C m c m'
_symmetry_Int_Tables_number        63
_refine_ls_R_factor_all            .033
loop_
_symmetry_equiv_pos_site_id
_symmetry_equiv_pos_as_xyz
  1	'-x, y, -z+.5'
  2	'-x, -y, z+.5'
  3	'-x, y, z'
  4	'-x, -y, -z'
  5	'x, -y, z+.5'
  6	'x, y, -z+.5'
  7	'x, -y, -z'
  8	'x, y, z'
  9	'-x+.5, y+.5, -z+.5'
 10	'-x+.5, -y+.5, z+.5'
 11	'-x+.5, y+.5, z'
 12	'-x+.5, -y+.5, -z'
 13	'x+.5, -y+.5, z+.5'
 14	'x+.5, y+.5, -z+.5'
 15	'x+.5, -y+.5, -z'
 16	'x+.5, y+.5, z'
loop_
_atom_type_symbol
_atom_type_oxidation_number
Cu1+	1
K1+	1
Se2-	-2
U4+	4
loop_
_atom_site_label
_atom_site_type_symbol
_atom_site_symmetry_multiplicity
_atom_site_Wyckoff_symbol
_atom_site_fract_x
_atom_site_fract_y
_atom_site_fract_z
_atom_site_occupancy
_atom_site_attached_hydrogens
_atom_site_B_iso_or_equiv
U1 U4+ 4 a 0 0 0.5 1. 0 0.74(3) 
Cu1 Cu1+ 4 c 0.5 -0.0331(2) 0.250 1. 0 1.4(1) 
K1 K1+ 4 c 0.5 -0.2458(4) 0.750 1. 0 2.0(2) 
Se1 Se2- 8 f 0.5 -0.1289(1) 0.4390(1) 1. 0 1.02(6) 
Se2 Se2- 4 c 0 0.0671(2) 0.250 1. 0 0.95(8) 

#End of data_156246-ICSD


