data_68490-ICSD
#?2014 by Fachinformationszentrum Karlsruhe, and the U.S. Secretary of 
#Commerce on behalf of the United States.  All rights reserved.
_database_code_ICSD                68490
_audit_creation_date               1991/07/10
_chemical_name_systematic          'Potassium Vanadium Oxide (.5/2/5)'
_chemical_formula_structural       'K.5 V2 O5'
_chemical_formula_sum              'K0.5 O5 V2'
_publ_section_title                'Structure of K0.5V2O5'
loop_
_citation_id
_citation_journal_abbrev
_citation_year
_citation_journal_volume
_citation_page_first
_citation_page_last
_citation_journal_id_ASTM
primary 'Acta Crystallographica, Section C: Crystal Structure Communications'
 1990 46 1590 1592 ACSCEE
_publ_author_name
;
Kanke, Y.;Kato, K.;Takayama Muromachi, E.;Isobe, M.;Kosuda, K.
;
_cell_length_a                     3.6784(2)
_cell_length_b                     11.6120(7)
_cell_length_c                     18.6332(9)
_cell_angle_alpha                  90.
_cell_angle_beta                   90.
_cell_angle_gamma                  90.
_cell_volume                       795.89
_cell_formula_units_Z              8
_symmetry_space_group_name_H-M     'C m c m'
_symmetry_Int_Tables_number        63
_refine_ls_R_factor_all            .041
loop_
_symmetry_equiv_pos_site_id
_symmetry_equiv_pos_as_xyz
  1	'-x, y, -z+.5'
  2	'-x, -y, z+.5'
  3	'-x, y, z'
  4	'-x, -y, -z'
  5	'x, -y, z+.5'
  6	'x, y, -z+.5'
  7	'x, -y, -z'
  8	'x, y, z'
  9	'-x+.5, y+.5, -z+.5'
 10	'-x+.5, -y+.5, z+.5'
 11	'-x+.5, y+.5, z'
 12	'-x+.5, -y+.5, -z'
 13	'x+.5, -y+.5, z+.5'
 14	'x+.5, y+.5, -z+.5'
 15	'x+.5, -y+.5, -z'
 16	'x+.5, y+.5, z'
loop_
_atom_type_symbol
_atom_type_oxidation_number
K1+	1
O2-	-2
V4.75+	4.75
loop_
_atom_site_label
_atom_site_type_symbol
_atom_site_symmetry_multiplicity
_atom_site_Wyckoff_symbol
_atom_site_fract_x
_atom_site_fract_y
_atom_site_fract_z
_atom_site_occupancy
_atom_site_attached_hydrogens
V1 V4.75+ 8 f 0 0.43426(7) 0.42090(6) 1. 0 
V2 V4.75+ 8 f 0 0.73111(8) 0.42018(6) 1. 0 
K1 K1+ 4 c 0 0.0800(3) 0.25 1. 0 
O1 O2- 8 f 0 0.5810(4) 0.0470(2) 1. 0 
O2 O2- 8 f 0 0.4519(4) 0.3355(3) 1. 0 
O3 O2- 8 f 0 0.7121(4) 0.3351(3) 1. 0 
O4 O2- 8 f 0 0.2589(4) 0.4421(2) 1. 0 
O5 O2- 8 f 0 0.8989(3) 0.0651(2) 1. 0 

loop_
_atom_site_aniso_label
_atom_site_aniso_type_symbol
_atom_site_aniso_U_11
_atom_site_aniso_U_22
_atom_site_aniso_U_33
_atom_site_aniso_U_12
_atom_site_aniso_U_13
_atom_site_aniso_U_23
V1 V4.75+ 0.0051(3) 0.0073(3) 0.0108(3) 0 0 0.0014(4)
V2 V4.75+ 0.0057(3) 0.0080(3) 0.0116(3) 0 0 0.0000(4)
K1 K1+ 0.0175(8) 0.040(1) 0.0238(9) 0 0 0
O1 O2- 0.012(2) 0.007(1) 0.012(1) 0 0 -.003(2)
O2 O2- 0.019(2) 0.019(2) 0.016(2) 0 0 0.001(2)
O3 O2- 0.018(2) 0.016(2) 0.013(2) 0 0 -.001(2)
O4 O2- 0.005(1) 0.008(2) 0.020(2) 0 0 0.004(2)
O5 O2- 0.008(1) 0.006(2) 0.011(2) 0 0 0.001(1)
#End of data_68490-ICSD


