data_79557-ICSD
#?2014 by Fachinformationszentrum Karlsruhe, and the U.S. Secretary of 
#Commerce on behalf of the United States.  All rights reserved.
_database_code_ICSD                79557
_audit_creation_date               1996/10/14
_chemical_name_systematic          'Zinc Trithiophosphate(IV)'
_chemical_formula_structural       'Zn (P S3)'
_chemical_formula_sum              'P1 S3 Zn1'
_publ_section_title
;
Second-order Jahn-Teller effect in Cd P S3 and Zn P S3 demonstratedby 
a non-harmonic behaviour of Cd(2+) and Zn(2+) d(10) ions
;
loop_
_citation_id
_citation_journal_abbrev
_citation_year
_citation_journal_volume
_citation_page_first
_citation_page_last
_citation_journal_id_ASTM
primary 'Journal of Alloys and Compounds' 1994 215 63 70 JALCEU
_publ_author_name                  'Boucher, F.;Evain, M.;Brec, R.'
_cell_length_a                     5.9717(4)
_cell_length_b                     10.3424(8)
_cell_length_c                     6.7565(5)
_cell_angle_alpha                  90.
_cell_angle_beta                   107.139(4)
_cell_angle_gamma                  90.
_cell_volume                       398.76
_cell_formula_units_Z              4
_symmetry_space_group_name_H-M     'C 1 2/m 1'
_symmetry_Int_Tables_number        12
_refine_ls_R_factor_all            .04
loop_
_symmetry_equiv_pos_site_id
_symmetry_equiv_pos_as_xyz
  1	'-x, y, -z'
  2	'-x, -y, -z'
  3	'x, -y, z'
  4	'x, y, z'
  5	'-x+.5, y+.5, -z'
  6	'-x+.5, -y+.5, -z'
  7	'x+.5, -y+.5, z'
  8	'x+.5, y+.5, z'
loop_
_atom_type_symbol
_atom_type_oxidation_number
P4+	4
S2-	-2
Zn2+	2
loop_
_atom_site_label
_atom_site_type_symbol
_atom_site_symmetry_multiplicity
_atom_site_Wyckoff_symbol
_atom_site_fract_x
_atom_site_fract_y
_atom_site_fract_z
_atom_site_occupancy
_atom_site_attached_hydrogens
Zn1 Zn2+ 4 g 0 0.33238(7) 0 1. 0 
P1 P4+ 4 i 0.0565(2) 0 0.1693(2) 1. 0 
S1 S2- 4 i 0.7527(2) 0 0.2474(2) 1. 0 
S2 S2- 8 j 0.2467(1) 0.16440(8) 0.2494(1) 1. 0 

loop_
_atom_site_aniso_label
_atom_site_aniso_type_symbol
_atom_site_aniso_U_11
_atom_site_aniso_U_22
_atom_site_aniso_U_33
_atom_site_aniso_U_12
_atom_site_aniso_U_13
_atom_site_aniso_U_23
Zn1 Zn2+ 0.0173(9) 0.024(1) 0.0357(7) 0 0.0020(7) 0
P1 P4+ 0.0096(5) 0.0115(5) 0.0161(6) 0 0.0017(5) 0
S1 S2- 0.0120(5) 0.0170(5) 0.0186(6) 0 0.0047(4) 0
S2 S2- 0.0133(4) 0.0138(4) 0.0194(4) -.0023(3) 0.0020(3) -.0024(3)
#End of data_79557-ICSD


