data_420875-ICSD
#?2014 by Fachinformationszentrum Karlsruhe, and the U.S. Secretary of 
#Commerce on behalf of the United States.  All rights reserved.
_database_code_ICSD                420875
_audit_creation_date               2010/08/01
_chemical_name_systematic
;
Digadolinium(III) Magnesioiridate(IV)
;
_chemical_formula_structural       'Gd2 (Mg Ir O6)'
_chemical_formula_sum              'Gd2 Ir1 Mg1 O6'
_publ_section_title
;
Crystal growth, structure and magnetic properties of the double 
perovskites Ln2 Mg Ir O6 (Ln = Pr, Nd, Sm-Gd)
;
loop_
_citation_id
_citation_journal_abbrev
_citation_year
_citation_journal_volume
_citation_journal_issue
_citation_page_first
_citation_page_last
_citation_journal_id_ASTM
primary 'Journal of Solid State Chemistry' 2010 183 2 465 470 JSSCBI
_publ_author_name
;
Mugavero III, S.J.;Fox, A.H.;Smith, M.D.;zur Loye, H.C.
;
_cell_length_a                     5.3654(4)
_cell_length_b                     5.6870(5)
_cell_length_c                     7.7013(6)
_cell_angle_alpha                  90.00
_cell_angle_beta                   90.193(3)
_cell_angle_gamma                  90.00
_cell_volume                       234.99
_cell_formula_units_Z              2
_symmetry_space_group_name_H-M     'P 1 21/n 1'
_symmetry_Int_Tables_number        14
_refine_ls_R_factor_all            .0279
loop_
_symmetry_equiv_pos_site_id
_symmetry_equiv_pos_as_xyz
  1	'-x+.5, y+.5, -z+.5'
  2	'-x, -y, -z'
  3	'x+.5, -y+.5, z+.5'
  4	'x, y, z'
loop_
_atom_type_symbol
_atom_type_oxidation_number
Gd3+	3
Ir4+	4
Mg2+	2
O2-	-2
loop_
_atom_site_label
_atom_site_type_symbol
_atom_site_symmetry_multiplicity
_atom_site_Wyckoff_symbol
_atom_site_fract_x
_atom_site_fract_y
_atom_site_fract_z
_atom_site_occupancy
_atom_site_attached_hydrogens
_atom_site_U_iso_or_equiv
Ir1 Ir4+ 2 b 0.5000 0.5000 0.0000 1 0 0.00755(8) 
Gd1 Gd3+ 4 e 0.48174(4) 0.06804(4) 0.25064(3) 1 0 0.00952(8) 
Mg1 Mg2+ 2 a 0.0000 0.0000 0.0000 1 0 0.0088(4) 
O1 O2- 4 e 0.1943(6) 0.3062(7) 0.0540(5) 1 0 0.0108(6) 
O2 O2- 4 e 0.6088(7) 0.4620(6) 0.2478(5) 1 0 0.0102(6) 
O3 O2- 4 e 0.3122(6) 0.7986(7) 0.0562(5) 1 0 0.0112(6) 

loop_
_atom_site_aniso_label
_atom_site_aniso_type_symbol
_atom_site_aniso_U_11
_atom_site_aniso_U_22
_atom_site_aniso_U_33
_atom_site_aniso_U_12
_atom_site_aniso_U_13
_atom_site_aniso_U_23
Ir1 Ir4+ 0.00720(12) 0.00794(13) 0.00751(12) -0.00013(7) -0.00029(7) 
0.00009(7)
Gd1 Gd3+ 0.00952(11) 0.00943(13) 0.00963(12) -0.00030(7) -0.00028(8) 
0.00010(7)
Mg1 Mg2+ 0.0102(11) 0.0069(11) 0.0091(11) -0.0004(7) -0.0013(8) 0.0004(8)
O1 O2- 0.0112(14) 0.0098(14) 0.0113(15) -0.0041(12) 0.0015(11) -0.0005(12)
O2 O2- 0.0096(15) 0.0094(13) 0.0116(15) -0.0004(12) -0.0007(11) 0.0000(12)
O3 O2- 0.0094(13) 0.0112(14) 0.0130(15) 0.0028(12) -0.0013(11) -0.0014(12)
#End of data_420875-ICSD


