data_79072-ICSD
#?2014 by Fachinformationszentrum Karlsruhe, and the U.S. Secretary of 
#Commerce on behalf of the United States.  All rights reserved.
_database_code_ICSD                79072
_audit_creation_date               1996/04/22
_chemical_name_systematic
;
Potassium Hafnium Palladium Heptafluoride
;
_chemical_formula_structural       'K (Hf Pd F7)'
_chemical_formula_sum              'F7 Hf1 K1 Pd1'
_publ_section_title
;
Die Kristallstruktur von K Pd M(IV) F7 (M(IV)=Zr,Hf)
;
loop_
_citation_id
_citation_journal_abbrev
_citation_year
_citation_journal_volume
_citation_page_first
_citation_page_last
_citation_journal_id_ASTM
primary 'Zeitschrift fuer Anorganische und Allgemeine Chemie (1950) (DE)'
 1995 621 1047 1052 ZAACAB
_publ_author_name                  'Mueller, M.;Mueller, B.G.'
_cell_length_a                     11.361(3)
_cell_length_b                     7.964(2)
_cell_length_c                     6.388(1)
_cell_angle_alpha                  90.
_cell_angle_beta                   90.
_cell_angle_gamma                  90.
_cell_volume                       577.98
_cell_formula_units_Z              4
_symmetry_space_group_name_H-M     'P n n a'
_symmetry_Int_Tables_number        52
_refine_ls_R_factor_all            .057
loop_
_symmetry_equiv_pos_site_id
_symmetry_equiv_pos_as_xyz
  1	'x+.5, -y+.5, z+.5'
  2	'-x, y+.5, z+.5'
  3	'x+.5, y, -z'
  4	'-x, -y, -z'
  5	'-x+.5, y+.5, -z+.5'
  6	'x, -y+.5, -z+.5'
  7	'-x+.5, -y, z'
  8	'x, y, z'
loop_
_atom_type_symbol
_atom_type_oxidation_number
F1-	-1
Hf4+	4
K1+	1
Pd2+	2
loop_
_atom_site_label
_atom_site_type_symbol
_atom_site_symmetry_multiplicity
_atom_site_Wyckoff_symbol
_atom_site_fract_x
_atom_site_fract_y
_atom_site_fract_z
_atom_site_occupancy
_atom_site_attached_hydrogens
K1 K1+ 4 c 0.25 0 0.7328(8) 1. 0 
Pd1 Pd2+ 4 d 0.09663(7) 0.25 0.25 1. 0 
Hf1 Hf4+ 4 d 0.40564(4) 0.25 0.25 1. 0 
F1 F1- 8 e 0.2535(5) 0.2078(8) 0.0673(8) 1. 0 
F2 F1- 8 e 0.1052(6) 0.9890(7) 0.350(1) 1. 0 
F3 F1- 4 d 0.5805(6) 0.25 0.25 1. 0 
F4 F1- 8 e 0.4532(5) 0.3185(9) 0.549(1) 1. 0 

loop_
_atom_site_aniso_label
_atom_site_aniso_type_symbol
_atom_site_aniso_U_11
_atom_site_aniso_U_22
_atom_site_aniso_U_33
_atom_site_aniso_U_12
_atom_site_aniso_U_13
_atom_site_aniso_U_23
K1 K1+ 0.039(2) 0.023(1) 0.024(2) 0.008(1) 0 0
Pd1 Pd2+ 0.0069(3) 0.0092(3) 0.0169(4) 0 0 0.001(1)
Hf1 Hf4+ 0.0107(2) 0.0111(2) 0.0138(2) 0 0 0.0009(5)
F1 F1- 0.012(2) 0.038(4) 0.015(2) 0.002(2) -.004(2) -.009(2)
F2 F1- 0.035(4) 0.008(3) 0.030(3) -.001(3) -.002(2) -.001(2)
F3 F1- 0.006(3) 0.045(5) 0.039(4) 0 0 -.003(8)
F4 F1- 0.021(3) 0.041(4) 0.023(3) 0.004(3) -.006(3) -.007(3)
#End of data_79072-ICSD


