data_413516-ICSD
#?2014 by Fachinformationszentrum Karlsruhe, and the U.S. Secretary of 
#Commerce on behalf of the United States.  All rights reserved.
_database_code_ICSD                413516
_audit_creation_date               2005/04/01
_chemical_name_systematic
;
Cobalt Selenate(VI) - Mercury Oxide - Water (2/2/1)te
;
_chemical_formula_structural       '(Zn (Se O4))2 (Hg O)2 (H2 O)'
_chemical_formula_sum              'H2 Hg2 O11 Se2 Zn2'
_publ_section_title
;
Preparation and crystal structure analyses of compounds in the 
systems Hg O/M X O4/H2 O (M = Co, Zn, Cd; X = S, Se)
;
loop_
_citation_id
_citation_journal_abbrev
_citation_year
_citation_journal_volume
_citation_page_first
_citation_page_last
_citation_journal_id_ASTM
primary 'Zeitschrift fuer Anorganische und Allgemeine Chemie (1950) (DE)'
 2004 630 921 927 ZAACAB
_publ_author_name                  'Weil, M.'
_cell_length_a                     6.1967(6)
_cell_length_b                     11.4481(11)
_cell_length_c                     13.3628(13)
_cell_angle_alpha                  90.00
_cell_angle_beta                   90.00
_cell_angle_gamma                  90.00
_cell_volume                       947.96
_cell_formula_units_Z              4
_symmetry_space_group_name_H-M     'P b c m'
_symmetry_Int_Tables_number        57
_refine_ls_R_factor_all            .0246
loop_
_symmetry_equiv_pos_site_id
_symmetry_equiv_pos_as_xyz
  1	'x, -y+.5, z+.5'
  2	'-x, y+.5, z'
  3	'x, y, -z+.5'
  4	'-x, -y, -z'
  5	'-x, y+.5, -z+.5'
  6	'x, -y+.5, -z'
  7	'-x, -y, z+.5'
  8	'x, y, z'
loop_
_atom_type_symbol
_atom_type_oxidation_number
H1+	1
Hg2+	2
O2-	-2
Se6+	6
Zn2+	2
loop_
_atom_site_label
_atom_site_type_symbol
_atom_site_symmetry_multiplicity
_atom_site_Wyckoff_symbol
_atom_site_fract_x
_atom_site_fract_y
_atom_site_fract_z
_atom_site_occupancy
_atom_site_attached_hydrogens
_atom_site_U_iso_or_equiv
Hg1 Hg2+ 4 d 0.20708(4) 0.42056(2) 0.2500 1 0 0.01069(9) 
Hg2 Hg2+ 4 d 0.52514(4) 0.17085(2) 0.2500 1 0 0.01081(9) 
Zn1 Zn2+ 8 e 0.02209(9) 0.16974(5) 0.13117(4) 1 0 0.01003(13) 
Se1 Se6+ 8 e 0.72684(7) 0.41199(4) 0.07657(4) 1 0 0.00823(11) 
O1 O2- 8 e 0.1024(7) 0.8346(3) 0.1418(3) 1 0 0.0214(9) 
O2 O2- 8 e 0.2207(7) 0.5961(4) 0.0427(3) 1 0 0.0215(9) 
O3 O2- 8 e 0.2562(6) 0.0466(3) 0.1176(3) 1 0 0.0180(8) 
O4 O2- 8 e 0.4855(6) 0.3662(4) 0.1014(3) 1 0 0.0219(9) 
O5 O2- 4 d 0.1706(8) 0.6015(4) 0.2500 1 0 0.0084(9) 
O6 O2- 4 d 0.2208(8) 0.2373(4) 0.2500 1 0 0.0111(9) 
O7 O2- 4 c 0.1910(8) 0.2500 0.0000 1 0 0.0138(10) 
H1 H1+ 8 e 0.266(8) 0.305(4) 0.023(4) 1 0 0.008(15) 

loop_
_atom_site_aniso_label
_atom_site_aniso_type_symbol
_atom_site_aniso_U_11
_atom_site_aniso_U_22
_atom_site_aniso_U_33
_atom_site_aniso_U_12
_atom_site_aniso_U_13
_atom_site_aniso_U_23
Hg1 Hg2+ 0.00773(13) 0.00757(14) 0.01675(14) 0.00012(9) 0.000 0.000
Hg2 Hg2+ 0.00280(12) 0.01177(14) 0.01785(15) 0.00194(9) 0.000 0.000
Zn1 Zn2+ 0.0061(3) 0.0104(3) 0.0136(3) 0.0008(2) -0.00048(19) -0.00029(19)
Se1 Se6+ 0.0046(2) 0.0088(2) 0.0113(2) 0.00043(16) -0.00009(15) 
-0.00040(15)
O1 O2- 0.023(2) 0.020(2) 0.0210(19) -0.0119(17) 0.0090(16) -0.0032(15)
O2 O2- 0.018(2) 0.032(2) 0.0139(19) 0.0121(17) 0.0046(15) 0.0004(16)
O3 O2- 0.0135(18) 0.0085(16) 0.032(2) 0.0037(14) -0.0008(16) -0.0058(15)
O4 O2- 0.0099(17) 0.028(2) 0.028(2) -0.0097(16) 0.0076(16) -0.0051(18)
O5 O2- 0.004(2) 0.007(2) 0.014(2) 0.0017(17) 0.000 0.000
O6 O2- 0.005(2) 0.011(2) 0.017(2) 0.0008(18) 0.000 0.000
O7 O2- 0.007(2) 0.013(2) 0.022(3) 0.000 0.000 -0.003(2)
H1 H1+ 0.00773(13) 0.00757(14) 0.01675(14) 0.00012(9) 0.000 0.000
#End of data_413516-ICSD


