data_248415-ICSD
#?2014 by Fachinformationszentrum Karlsruhe, and the U.S. Secretary of 
#Commerce on behalf of the United States.  All rights reserved.
_database_code_ICSD                248415
_audit_creation_date               2014/08/01
_chemical_name_systematic          'Lithium Diphosphate'
_chemical_formula_structural       'Li4 P2 O7'
_chemical_formula_sum              'Li4 O7 P2'
_publ_section_title
;
Lithium-cation conductivity and crystal structure of lithium 
diphosphate
;
loop_
_citation_id
_citation_journal_abbrev
_citation_year
_citation_journal_volume
_citation_page_first
_citation_page_last
_citation_journal_id_ASTM
primary 'Journal of Solid State Chemistry' 2014 211 170 175 JSSCBI
_publ_author_name
;
Voronin, V.I.;Sherstobitova, E.A.;Blatov, V.A.;Shekhtman, G.Sh.
;
_cell_length_a                     8.8264(2)
_cell_length_b                     5.2024(9)
_cell_length_c                     13.3106(3)
_cell_angle_alpha                  90
_cell_angle_beta                   104.384(2)
_cell_angle_gamma                  90
_cell_volume                       592.04
_cell_formula_units_Z              4
_symmetry_space_group_name_H-M     'P 1 21/n 1'
_symmetry_Int_Tables_number        14
_refine_ls_R_factor_all            .0763
loop_
_symmetry_equiv_pos_site_id
_symmetry_equiv_pos_as_xyz
  1	'-x+.5, y+.5, -z+.5'
  2	'-x, -y, -z'
  3	'x+.5, -y+.5, z+.5'
  4	'x, y, z'
loop_
_atom_type_symbol
_atom_type_oxidation_number
Li1+	1
O2-	-2
P5+	5
loop_
_atom_site_label
_atom_site_type_symbol
_atom_site_symmetry_multiplicity
_atom_site_Wyckoff_symbol
_atom_site_fract_x
_atom_site_fract_y
_atom_site_fract_z
_atom_site_occupancy
_atom_site_attached_hydrogens
P1 P5+ 4 e 0.1324(10) 0.8421(14) 0.3877(8) 1. 0 
P2 P5+ 4 e 0.85352(11) 0.65376(12) 0.10476(4) 1. 0 
O1 O2- 4 e 0.9726(16) 0.827(2) 0.0773(12) 1. 0 
O2 O2- 4 e 0.8947(19) 0.387(2) 0.1430(12) 1. 0 
O3 O2- 4 e 0.7683(19) 0.811(2) 0.1699(13) 1. 0 
O4 O2- 4 e 0.720(2) 0.607(2) 0.0087(13) 1. 0 
O5 O2- 4 e 0.4957(17) 0.202(2) 0.0902(13) 1. 0 
O6 O2- 4 e 0.4064(18) 0.588(2) 0.1536(11) 1. 0 
O7 O2- 4 e 0.259(2) 0.216(2) 0.1658(13) 1. 0 
Li1 Li1+ 4 e 0.728(4) 0.155(7) 0.175(3) 1. 0 
Li2 Li1+ 4 e 0.027(5) 0.184(7) 0.088(3) 1. 0 
Li3 Li1+ 4 e 0.179(4) 0.311(7) 0.267(3) 1. 0 
Li4 Li1+ 4 e 0.509(5) 0.861(6) 0.061(3) 1. 0 

#End of data_248415-ICSD


