data_78720-ICSD
#?2014 by Fachinformationszentrum Karlsruhe, and the U.S. Secretary of 
#Commerce on behalf of the United States.  All rights reserved.
_database_code_ICSD                78720
_audit_creation_date               1997/05/13
_chemical_name_systematic          'Silver Europium Titanate'
_chemical_formula_structural       'Ag Eu (Ti O4)'
_chemical_formula_sum              'Ag1 Eu1 O4 Ti1'
_publ_section_title
;
Synthesis and ionic conductivity of novel layered perovskite 
compound, Ag La Ti O4 and Ag Eu Ti O4
;
loop_
_citation_id
_citation_journal_abbrev
_citation_year
_citation_journal_volume
_citation_page_first
_citation_page_last
_citation_journal_id_ASTM
primary 'Solid State Ionics' 1995 81 267 271 SSIOD3
_publ_author_name                  'Toda, K.;Kurita, S.;Sato, M.'
_cell_length_a                     12.8284(3)
_cell_length_b                     5.2815(6)
_cell_length_c                     5.2820(6)
_cell_angle_alpha                  90.
_cell_angle_beta                   90.
_cell_angle_gamma                  90.
_cell_volume                       357.87
_cell_formula_units_Z              4
_symmetry_space_group_name_H-M     'P b c m'
_symmetry_Int_Tables_number        57
_refine_ls_R_factor_all            .076
loop_
_symmetry_equiv_pos_site_id
_symmetry_equiv_pos_as_xyz
  1	'x, -y+.5, z+.5'
  2	'-x, y+.5, z'
  3	'x, y, -z+.5'
  4	'-x, -y, -z'
  5	'-x, y+.5, -z+.5'
  6	'x, -y+.5, -z'
  7	'-x, -y, z+.5'
  8	'x, y, z'
loop_
_atom_type_symbol
_atom_type_oxidation_number
Ag1+	1
Eu3+	3
O2-	-2
Ti4+	4
loop_
_atom_site_label
_atom_site_type_symbol
_atom_site_symmetry_multiplicity
_atom_site_Wyckoff_symbol
_atom_site_fract_x
_atom_site_fract_y
_atom_site_fract_z
_atom_site_occupancy
_atom_site_attached_hydrogens
_atom_site_B_iso_or_equiv
Ag1 Ag1+ 4 d 0.5809(3) 0.0254(12) 0.25 1. 0 1.0(1) 
Eu1 Eu3+ 4 d 0.8940(2) 0.0094(12) 0.25 1. 0 0.4(1) 
Ti1 Ti4+ 4 d 0.2662(6) 0.0104(28) 0.25 1. 0 0.5(1) 
O1 O2- 4 c 0.2345(36) 0.25 0 1. 0 1.6(9) 
O2 O2- 4 c 0.7717(33) 0.25 0 1. 0 0.5(9) 
O3 O2- 4 d 0.0750(22) 0.0266(91) 0.25 1. 0 2.8(1) 
O4 O2- 4 d 0.3986(22) 0.007(10) 0.25 1. 0 2.8(9) 

#End of data_78720-ICSD


