data_25523-ICSD
#?2014 by Fachinformationszentrum Karlsruhe, and the U.S. Secretary of 
#Commerce on behalf of the United States.  All rights reserved.
_database_code_ICSD                25523
_audit_creation_date               1980/01/01
_audit_update_record               1988/05/03
_chemical_name_systematic          'Silver Sulfide Nitrate'
_chemical_formula_structural       '(Ag3 S) (N O3)'
_chemical_formula_sum              'Ag3 N1 O3 S1'
_publ_section_title
;
Die Kristallstruktur des Argentosulfoniumnitrats, (Ag3 S) (N O3)
;
loop_
_citation_id
_citation_journal_abbrev
_citation_year
_citation_journal_volume
_citation_page_first
_citation_page_last
_citation_journal_id_ASTM
primary 'Zeitschrift fuer Anorganische und Allgemeine Chemie (1950) (DE)'
 1959 299 328 337 ZAACAB
_publ_author_name                  'Bergerhoff, G.'
_cell_length_a                     7.929
_cell_length_b                     7.929
_cell_length_c                     7.929
_cell_angle_alpha                  90.
_cell_angle_beta                   90.
_cell_angle_gamma                  90.
_cell_volume                       498.49
_cell_formula_units_Z              4
_symmetry_space_group_name_H-M     'P 21 3'
_symmetry_Int_Tables_number        198
_refine_ls_R_factor_all            .19
loop_
_symmetry_equiv_pos_site_id
_symmetry_equiv_pos_as_xyz
  1	'-z+.5, -x, y+.5'
  2	'-y+.5, -z, x+.5'
  3	'-x+.5, -y, z+.5'
  4	'-z, x+.5, -y+.5'
  5	'-y, z+.5, -x+.5'
  6	'-x, y+.5, -z+.5'
  7	'z+.5, -x+.5, -y'
  8	'y+.5, -z+.5, -x'
  9	'x+.5, -y+.5, -z'
 10	'z, x, y'
 11	'y, z, x'
 12	'x, y, z'
loop_
_atom_type_symbol
_atom_type_oxidation_number
Ag1+	1
N5+	5
O2-	-2
S2-	-2
loop_
_atom_site_label
_atom_site_type_symbol
_atom_site_symmetry_multiplicity
_atom_site_Wyckoff_symbol
_atom_site_fract_x
_atom_site_fract_y
_atom_site_fract_z
_atom_site_occupancy
_atom_site_attached_hydrogens
_atom_site_B_iso_or_equiv
Ag1 Ag1+ 12 b 0.310(5) 0.997(3) 0.364(4) 1. 0 2.38 
S1 S2- 4 a 0.133(5) 0.133(5) 0.133(5) 1. 0 2.38 
N1 N5+ 4 a 0.411(8) 0.411(8) 0.411(8) 1. 0 2.38 
O1 O2- 12 b 0.310(12) 0.373(1) 0.532(5) 1. 0 2.38 

#End of data_25523-ICSD


