data_27220-ICSD
#?2014 by Fachinformationszentrum Karlsruhe, and the U.S. Secretary of 
#Commerce on behalf of the United States.  All rights reserved.
_database_code_ICSD                27220
_audit_creation_date               1982/12/31
_chemical_name_systematic
;
Gadolinium Sodium Rhenate Tetrahydrate
;
_chemical_formula_structural       'Gd Na (Re O4)4 (H2 O)4'
_chemical_formula_sum              'H8 Gd1 Na1 O20 Re4'
_publ_section_title
;
Structure du Perrhenate de Gadolinium-Sodium Tetrahydrate Gd Na (Re 
O4)4 (H2 O)4
;
loop_
_citation_id
_citation_journal_abbrev
_citation_year
_citation_journal_volume
_citation_page_first
_citation_page_last
_citation_journal_id_ASTM
primary 'Acta Crystallographica B (24,1968-38,1982)' 1982 38 1070 1074 ACBCAR
_publ_author_name
;
Slimane, A.A.;Sivestre, J.P.F.;Freundlich, W.;Rimsky, A.
;
_cell_length_a                     12.483(5)
_cell_length_b                     12.483(5)
_cell_length_c                     5.728(4)
_cell_angle_alpha                  90.
_cell_angle_beta                   90.
_cell_angle_gamma                  90.
_cell_volume                       892.57
_cell_formula_units_Z              2
_symmetry_space_group_name_H-M     'P -4 n 2'
_symmetry_Int_Tables_number        118
_refine_ls_R_factor_all            .0402
loop_
_symmetry_equiv_pos_site_id
_symmetry_equiv_pos_as_xyz
  1	'-y+.5, -x+.5, -z+.5'
  2	'y, -x, -z'
  3	'x+.5, -y+.5, z+.5'
  4	'-x, -y, z'
  5	'y+.5, x+.5, -z+.5'
  6	'-y, x, -z'
  7	'-x+.5, y+.5, z+.5'
  8	'x, y, z'
loop_
_atom_type_symbol
_atom_type_oxidation_number
Gd3+	3
H1+	1
Na1+	1
O2-	-2
Re7+	7
loop_
_atom_site_label
_atom_site_type_symbol
_atom_site_symmetry_multiplicity
_atom_site_Wyckoff_symbol
_atom_site_fract_x
_atom_site_fract_y
_atom_site_fract_z
_atom_site_occupancy
_atom_site_attached_hydrogens
_atom_site_B_iso_or_equiv
Gd1 Gd3+ 2 c 0 0.5 0.25 1. 0 0 
Na1 Na1+ 2 b 0 0 0.5 1. 0 0 
Re1 Re7+ 8 i 0.09212(3) 0.78585(4) 0.02042(9) 1. 0 0 
O1 O2- 8 i 0.0680(8) 0.6513(8) 0.9610(24) 1. 0 0 
O2 O2- 8 i 0.2263(9) 0.8101(8) 0.9965(36) 1. 0 0 
O3 O2- 8 i 0.0247(9) 0.8635(10) 0.8174(22) 1. 0 0 
O4 O2- 8 i 0.0477(9) 0.8149(9) 0.3021(21) 1. 0 0 
O5 O2- 8 i 0.1476(7) 0.4388(8) 0.9697(25) 1. 0 0 
H1 H1+ 8 i 0.164(9) 0.364(9) 0.021(35) 1. 0 3. 
H2 H1+ 8 i 0.208(9) 0.480(9) 0.045(35) 1. 0 3. 

#End of data_27220-ICSD


