data_200078-ICSD
#?2014 by Fachinformationszentrum Karlsruhe, and the U.S. Secretary of 
#Commerce on behalf of the United States.  All rights reserved.
_database_code_ICSD                200078
_audit_creation_date               1980/01/01
_audit_update_record               2013/02/01
_chemical_name_systematic          'Trilithium Dineodymium Borate'
_chemical_formula_structural       'Li3 Nd2 (B O3)3'
_chemical_formula_sum              'B3 Li3 Nd2 O9'
_publ_section_title
;
Crystal structure of the double orthoborate of lithium and neodymium 
Li3 Nd2 (B O3)3
;
loop_
_citation_id
_citation_journal_abbrev
_citation_year
_citation_journal_volume
_citation_page_first
_citation_page_last
_citation_journal_id_ASTM
primary Kristallografiya 1977 22 271 274 KRISAJ
2 'Soviet Physics, Crystallography (= Kristallografiya)'
 1977 22 154 156 SPHCA6
_publ_author_name                  'Abdullaev, G.K.;Mamedov, H.S.'
_cell_length_a                     8.814(4)
_cell_length_b                     14.143(8)
_cell_length_c                     5.776(3)
_cell_angle_alpha                  90.
_cell_angle_beta                   103.75(4)
_cell_angle_gamma                  90.
_cell_volume                       699.38
_cell_formula_units_Z              4
_symmetry_space_group_name_H-M     'P 1 21/n 1'
_symmetry_Int_Tables_number        14
_refine_ls_R_factor_all            .08
loop_
_symmetry_equiv_pos_site_id
_symmetry_equiv_pos_as_xyz
  1	'-x+.5, y+.5, -z+.5'
  2	'-x, -y, -z'
  3	'x+.5, -y+.5, z+.5'
  4	'x, y, z'
loop_
_atom_type_symbol
_atom_type_oxidation_number
B3+	3
Li1+	1
Nd3+	3
O2-	-2
loop_
_atom_site_label
_atom_site_type_symbol
_atom_site_symmetry_multiplicity
_atom_site_Wyckoff_symbol
_atom_site_fract_x
_atom_site_fract_y
_atom_site_fract_z
_atom_site_occupancy
_atom_site_attached_hydrogens
_atom_site_B_iso_or_equiv
Nd1 Nd3+ 4 e 0.19206(1) 0.16455(1) 0.13283(2) 1. 0 -.13 
Nd2 Nd3+ 4 e 0.33944(1) 0.00264(1) 0.68835(2) 1. 0 -.13 
Li1 Li1+ 4 e 0.2883(4) 0.2793(2) 0.6952(6) 1. 0 1.24 
Li2 Li1+ 4 e 0.4762(4) 0.3381(3) 0.0853(6) 1. 0 0.79 
Li3 Li1+ 4 e 0.2948(4) 0.4016(2) 0.3518(6) 1. 0 1.29 
B1 B3+ 4 e 0.5314(2) 0.1635(2) 0.9178(4) 1. 0 -.03 
B2 B3+ 4 e 0.5221(2) 0.1751(2) 0.4095(4) 1. 0 -.17 
B3 B3+ 4 e 0.4899(2) 0.4842(2) 0.7534(4) 1. 0 -.21 
O1 O2- 4 e 0.3664(2) 0.1700(1) 0.8651(3) 1. 0 0.31 
O2 O2- 4 e 0.5941(2) 0.0743(1) 0.9324(3) 1. 0 0.22 
O3 O2- 4 e 0.6222(1) 0.2426(1) 0.9406(3) 1. 0 0.03 
O4 O2- 4 e 0.4321(2) 0.0940(1) 0.3872(3) 1. 0 0.29 
O5 O2- 4 e 0.4458(2) 0.2612(1) 0.3636(3) 1. 0 0.38 
O6 O2- 4 e 0.6804(2) 0.1682(1) 0.4709(3) 1. 0 0.57 
O7 O2- 4 e 0.1038(2) 0.0653(1) 0.7831(3) 1. 0 0.28 
O8 O2- 4 e 0.1454(2) 0.0099(1) 0.3026(3) 1. 0 0.09 
O9 O2- 4 e 0.4165(2) 0.3991(1) 0.7304(3) 1. 0 0.39 

#End of data_200078-ICSD


