data_36184-ICSD
#?2014 by Fachinformationszentrum Karlsruhe, and the U.S. Secretary of 
#Commerce on behalf of the United States.  All rights reserved.
_database_code_ICSD                36184
_audit_creation_date               1980/01/01
_audit_update_record               2008/02/01
_chemical_name_systematic          'Calcium Titanium Silicate Oxide'
_chemical_formula_structural       'Ca Ti (Si O4) O'
_chemical_formula_sum              'Ca1 O5 Si1 Ti1'
_chemical_name_mineral             Titanite
_publ_section_title                'The crystal structure of titanite'
loop_
_citation_id
_citation_journal_abbrev
_citation_year
_citation_journal_volume
_citation_page_first
_citation_page_last
_citation_journal_id_ASTM
primary
;
Zeitschrift fuer Kristallographie, Kristallgeometrie, Kristallphysik, 
Kristallchemie (-144,1977)
;
 1930 73 7 16 ZEKGAX
2 'Golden Book of Phase Transitions, Wroclaw' 2002 1 1 123 GBOPT5
_publ_author_name                  'Zachariasen, W.H.'
_cell_length_a                     6.55(1)
_cell_length_b                     8.70(1)
_cell_length_c                     7.43(1)
_cell_angle_alpha                  90.
_cell_angle_beta                   119.72
_cell_angle_gamma                  90.
_cell_volume                       367.7
_cell_formula_units_Z              4
_symmetry_space_group_name_H-M     'C 1 2/c 1'
_symmetry_Int_Tables_number        15
loop_
_symmetry_equiv_pos_site_id
_symmetry_equiv_pos_as_xyz
  1	'x, -y, z+.5'
  2	'-x, -y, -z'
  3	'-x, y, -z+.5'
  4	'x, y, z'
  5	'x+.5, -y+.5, z+.5'
  6	'-x+.5, -y+.5, -z'
  7	'-x+.5, y+.5, -z+.5'
  8	'x+.5, y+.5, z'
loop_
_atom_type_symbol
_atom_type_oxidation_number
Ca2+	2
O2-	-2
Si4+	4
Ti4+	4
loop_
_atom_site_label
_atom_site_type_symbol
_atom_site_symmetry_multiplicity
_atom_site_Wyckoff_symbol
_atom_site_fract_x
_atom_site_fract_y
_atom_site_fract_z
_atom_site_occupancy
_atom_site_attached_hydrogens
Ca1 Ca2+ 4 e 0 -.0833 0.25 1. 0 
Ti1 Ti4+ 4 d 0.25 0.25 0.5 1. 0 
Si1 Si4+ 4 e 0 -.431 0.25 1. 0 
O1 O2- 4 e 0 0.1875 0.25 1. 0 
O2 O2- 8 f 0.25 0.461 0.4 1. 0 
O3 O2- 8 f -.0278 -.322 0.4 1. 0 

#End of data_36184-ICSD


