data_189842-ICSD
#?2014 by Fachinformationszentrum Karlsruhe, and the U.S. Secretary of 
#Commerce on behalf of the United States.  All rights reserved.
_database_code_ICSD                189842
_audit_creation_date               2014/02/01
_chemical_name_systematic          'Magnesium Dichloride Octahydrate'
_chemical_formula_structural       'Mg Cl2 (H2 O)8'
_chemical_formula_sum              'H16 Cl2 Mg1 O8'
_publ_section_title
;
Crystal structures of hydrates of simple inorganic salts. I. Water-
rich magnesium halide hydrates Mg Cl2 * 8(H2 O), Mg Cl2 * 12(H2 O), 
Mg Br2 * 6(H2 O), Mg Br2 * 9(H2 O), Mg I2 * 8(H2 O) and Mg I2 * 9(H2 
O)
;
loop_
_citation_id
_citation_journal_abbrev
_citation_year
_citation_journal_volume
_citation_journal_issue
_citation_page_first
_citation_page_last
_citation_journal_id_ASTM
primary 'Acta Crystallographica, Section C: Crystal Structure Communications'
 2013 69 11 1292 1300 ACSCEE
_publ_author_name
;
Hennings, Erik;Schmidt, Horst;Voigt, Wolfgang
;
_cell_length_a                     11.9153(3)
_cell_length_b                     6.7482(4)
_cell_length_c                     13.6052(5)
_cell_angle_alpha                  90.
_cell_angle_beta                   90.
_cell_angle_gamma                  90.
_cell_volume                       1093.95
_cell_formula_units_Z              4
_symmetry_space_group_name_H-M     'P c a b'
_symmetry_Int_Tables_number        61
_refine_ls_R_factor_all            .025
loop_
_symmetry_equiv_pos_site_id
_symmetry_equiv_pos_as_xyz
  1	'x+.5, -y+.5, z'
  2	'x, y+.5, -z+.5'
  3	'-x+.5, y, z+.5'
  4	'-x, -y, -z'
  5	'-x+.5, y+.5, -z'
  6	'-x, -y+.5, z+.5'
  7	'x+.5, -y, -z+.5'
  8	'x, y, z'
loop_
_atom_type_symbol
_atom_type_oxidation_number
Cl1-	-1
H1+	1
Mg2+	2
O2-	-2
loop_
_atom_site_label
_atom_site_type_symbol
_atom_site_symmetry_multiplicity
_atom_site_Wyckoff_symbol
_atom_site_fract_x
_atom_site_fract_y
_atom_site_fract_z
_atom_site_occupancy
_atom_site_attached_hydrogens
_atom_site_U_iso_or_equiv
Mg1 Mg2+ 4 a 0.0000 1.0000 0.0000 1 0 0.01649(9) 
O1 O2- 8 c 0.16933(6) 1.00842(10) 0.01898(5) 1 0 0.03047(16) 
O2 O2- 8 c -0.01884(5) 0.85060(9) 0.13410(4) 1 0 0.02412(13) 
O3 O2- 8 c 0.01343(6) 0.73610(9) -0.07187(5) 1 0 0.02850(15) 
O4 O2- 8 c 0.32080(6) 0.96977(10) 0.87158(5) 1 0 0.02792(14) 
H1 H1+ 8 c 0.0352(9) 0.7786(19) 0.1531(9) 1 0 0.050(3) 
H2 H1+ 8 c 0.2077(12) 1.0116(17) 0.0736(11) 1 0 0.060(4) 
H3 H1+ 8 c -0.0351(9) 0.6852(17) -0.0973(9) 1 0 0.042(3) 
H4 H1+ 8 c 0.2123(11) 0.9957(15) -0.0217(9) 1 0 0.043(4) 
H5 H1+ 8 c 0.0693(9) 0.6773(18) -0.0865(8) 1 0 0.046(3) 
H6 H1+ 8 c 0.2843(12) 0.9708(17) 0.8168(10) 1 0 0.057(4) 
H7 H1+ 8 c 0.3574(10) 0.872(2) 0.8725(10) 1 0 0.062(4) 
H8 H1+ 8 c -0.0402(10) 0.9062(19) 0.1791(9) 1 0 0.044(3) 
Cl1 Cl1- 8 c 0.15438(2) 0.96936(3) 0.69229(2) 1 0 0.02372(7) 

loop_
_atom_site_aniso_label
_atom_site_aniso_type_symbol
_atom_site_aniso_U_11
_atom_site_aniso_U_22
_atom_site_aniso_U_33
_atom_site_aniso_U_12
_atom_site_aniso_U_13
_atom_site_aniso_U_23
Mg1 Mg2+ 0.01482(18) 0.01872(17) 0.01594(17) 0.00075(12) -0.00094(13) 
-0.00139(12)
O1 O2- 0.0156(3) 0.0539(4) 0.0219(3) 0.0011(2) -0.0021(2) -0.0024(3)
O2 O2- 0.0274(3) 0.0268(3) 0.0182(3) 0.0070(2) 0.0023(2) 0.0007(2)
O3 O2- 0.0243(3) 0.0251(3) 0.0361(4) 0.0019(3) -0.0019(3) -0.0125(3)
O4 O2- 0.0226(3) 0.0330(3) 0.0281(3) 0.0030(2) -0.0031(3) -0.0045(3)
Cl1 Cl1- 0.01976(11) 0.03071(12) 0.02068(10) -0.00023(7) 0.00099(7) 
-0.00140(7)
#End of data_189842-ICSD


