data_109068-ICSD
#?2014 by Fachinformationszentrum Karlsruhe, and the U.S. Secretary of 
#Commerce on behalf of the United States.  All rights reserved.
_database_code_ICSD                109068
_audit_creation_date               2007/04/01
_chemical_name_systematic          'Magnesium Selenate(VI)'
_chemical_formula_structural       'Mg (Se O4)'
_chemical_formula_sum              'Mg1 O4 Se1'
_publ_section_title
;
Polymorphism in the selenates of Mg, Mn, Co and Cu at high pressure
;
loop_
_citation_id
_citation_journal_abbrev
_citation_year
_citation_journal_volume
_citation_page_first
_citation_page_last
_citation_journal_id_ASTM
primary
;
Zeitschrift fuer Kristallographie, Kristallgeometrie, Kristallphysik, 
Kristallchemie (-144,1977)
;
 1964 120 317 322 ZEKGAX
_publ_author_name                  'Snyman, H.C.;Pistorius, C.W.F.T.'
_cell_length_a                     4.903(4)
_cell_length_b                     9.001(6)
_cell_length_c                     6.741(4)
_cell_angle_alpha                  90.
_cell_angle_beta                   90.
_cell_angle_gamma                  90.
_cell_volume                       297.49
_cell_formula_units_Z              4
_symmetry_space_group_name_H-M     'P b n m'
_symmetry_Int_Tables_number        62
loop_
_symmetry_equiv_pos_site_id
_symmetry_equiv_pos_as_xyz
  1	'-x+.5, y+.5, z'
  2	'x, y, -z+.5'
  3	'x+.5, -y+.5, z+.5'
  4	'-x, -y, -z'
  5	'x+.5, -y+.5, -z'
  6	'-x, -y, z+.5'
  7	'-x+.5, y+.5, -z+.5'
  8	'x, y, z'
loop_
_atom_type_symbol
_atom_type_oxidation_number
Mg2+	2
O2-	-2
Se6+	6
loop_
_atom_site_label
_atom_site_type_symbol
_atom_site_symmetry_multiplicity
_atom_site_Wyckoff_symbol
_atom_site_fract_x
_atom_site_fract_y
_atom_site_fract_z
_atom_site_occupancy
_atom_site_attached_hydrogens
Mg1 Mg2+ 4 a 0 0 0 1. 0 
Se1 Se6+ 4 c 0.463 0.180 0.25 1. 0 
O1 O2- 4 c 0.781 0.129 0.25 1. 0 
O2 O2- 4 c 0.449 0.362 0.25 1. 0 
O3 O2- 8 d 0.327 0.126 0.062 1. 0 

#End of data_109068-ICSD


