data_26002-ICSD
#?2014 by Fachinformationszentrum Karlsruhe, and the U.S. Secretary of 
#Commerce on behalf of the United States.  All rights reserved.
_database_code_ICSD                26002
_audit_creation_date               1980/01/01
_audit_update_record               2010/08/01
_chemical_name_systematic          'Tricalcium Magnesium Bis(silicate)'
_chemical_formula_structural       'Ca3 Mg (Si O4)2'
_chemical_formula_sum              'Ca3 Mg1 O8 Si2'
_chemical_name_mineral             Merwinite
_publ_section_title
;
Atomic arrangement of merwinite, Ca3 Mg (Si O4)2, an unusual dense-
packed structure of geophysical interest
;
loop_
_citation_id
_citation_journal_abbrev
_citation_year
_citation_journal_volume
_citation_page_first
_citation_page_last
_citation_journal_id_ASTM
primary 'American Mineralogist' 1972 57 1355 1374 AMMIAY
_publ_author_name                  'Moore, P.B.;Araki, T.'
_cell_length_a                     13.254(21)
_cell_length_b                     5.293(9)
_cell_length_c                     9.328(17)
_cell_angle_alpha                  90.
_cell_angle_beta                   91.90(15)
_cell_angle_gamma                  90.
_cell_volume                       654.03
_cell_formula_units_Z              4
_symmetry_space_group_name_H-M     'P 1 21/a 1'
_symmetry_Int_Tables_number        14
_refine_ls_R_factor_all            .061
loop_
_symmetry_equiv_pos_site_id
_symmetry_equiv_pos_as_xyz
  1	'x+.5, -y+.5, z'
  2	'-x, -y, -z'
  3	'-x+.5, y+.5, -z'
  4	'x, y, z'
loop_
_atom_type_symbol
_atom_type_oxidation_number
Ca2+	2
Mg2+	2
O2-	-2
Si4+	4
loop_
_atom_site_label
_atom_site_type_symbol
_atom_site_symmetry_multiplicity
_atom_site_Wyckoff_symbol
_atom_site_fract_x
_atom_site_fract_y
_atom_site_fract_z
_atom_site_occupancy
_atom_site_attached_hydrogens
_atom_site_B_iso_or_equiv
Ca1 Ca2+ 4 e 0.2563(1) 0.1789(2) 0.2234(1) 1. 0 0.70(1) 
Ca2 Ca2+ 4 e 0.0811(1) 0.2271(2) -.0753(1) 1. 0 0.66(1) 
Ca3 Ca2+ 4 e 0.0978(1) 0.7333(2) 0.4254(1) 1. 0 0.73(1) 
Mg1 Mg2+ 4 e 0.0043(1) 0.2566(3) 0.2535(2) 1. 0 0.42(2) 
Si1 Si4+ 4 e 0.1326(1) 0.2293(2) 0.6008(1) 1. 0 0.19(2) 
Si2 Si4+ 4 e 0.1412(1) 0.7280(2) 0.0931(1) 1. 0 0.18(2) 
O1 O2- 4 e 0.0740(3) 0.2123(7) 0.4450(4) 1. 0 1.04(5) 
O2 O2- 4 e 0.0632(3) 0.4193(7) 0.6937(4) 1. 0 0.96(5) 
O3 O2- 4 e 0.1253(3) -.0475(7) 0.6773(4) 1. 0 0.76(4) 
O4 O2- 4 e 0.2414(3) 0.3618(7) 0.5940(4) 1. 0 0.91(5) 
O5 O2- 4 e 0.0768(3) 0.7064(7) -.0591(4) 1. 0 0.87(4) 
O6 O2- 4 e 0.2548(3) 0.8130(7) 0.0683(4) 1. 0 0.82(4) 
O7 O2- 4 e 0.1266(3) 0.4726(7) 0.1853(4) 1. 0 0.74(4) 
O8 O2- 4 e 0.0832(3) -.0424(7) 0.1751(4) 1. 0 0.84(4) 

#End of data_26002-ICSD


