data_34392-ICSD
#?2014 by Fachinformationszentrum Karlsruhe, and the U.S. Secretary of 
#Commerce on behalf of the United States.  All rights reserved.
_database_code_ICSD                34392
_audit_creation_date               1980/01/01
_audit_update_record               2012/02/01
_chemical_name_systematic          'Hexapotassium Dimanganate(III)'
_chemical_formula_structural       'K6 (Mn2 O6)'
_chemical_formula_sum              'K6 Mn2 O6'
_publ_section_title
;
Das erste Oxomanganat(III) mit Inselstruktur: K6 (Mn2 O6)
;
loop_
_citation_id
_citation_journal_abbrev
_citation_year
_citation_journal_volume
_citation_page_first
_citation_page_last
_citation_journal_id_ASTM
primary Naturwissenschaften 1976 63 339 339 NATWAY
_publ_author_name                  'Brachtel, G.;Hoppe, R.'
_cell_length_a                     8.89
_cell_length_b                     6.77
_cell_length_c                     11.38
_cell_angle_alpha                  90.
_cell_angle_beta                   90.
_cell_angle_gamma                  132.1
_cell_volume                       508.19
_cell_formula_units_Z              2
_symmetry_space_group_name_H-M     'P 1 1 21/b'
_symmetry_Int_Tables_number        14
_refine_ls_R_factor_all            .053
loop_
_symmetry_equiv_pos_site_id
_symmetry_equiv_pos_as_xyz
  1	'x, y+.5, -z+.5'
  2	'-x, -y, -z'
  3	'-x, -y+.5, z+.5'
  4	'x, y, z'
loop_
_atom_type_symbol
_atom_type_oxidation_number
K1+	1
Mn3+	3
O2-	-2
loop_
_atom_site_label
_atom_site_type_symbol
_atom_site_symmetry_multiplicity
_atom_site_Wyckoff_symbol
_atom_site_fract_x
_atom_site_fract_y
_atom_site_fract_z
_atom_site_occupancy
_atom_site_attached_hydrogens
K1 K1+ 4 e 0.3479(4) 0.2072(5) 0.0130(3) 1. 0 
K2 K1+ 4 e 0.4687(3) 0.9718(4) 0.7908(3) 1. 0 
K3 K1+ 4 e 0.9830(3) 0.5549(5) 0.2740(3) 1. 0 
Mn1 Mn3+ 4 e 0.1564(2) 0.4980(3) 0.0049(2) 1. 0 
O1 O2- 4 e 0.8861(10) 0.2845(14) 0.0702(8) 1. 0 
O2 O2- 4 e 0.2993(12) 0.5232(17) 0.1318(9) 1. 0 
O3 O2- 4 e 0.7279(12) 0.5360(17) 0.1197(9) 1. 0 

loop_
_atom_site_aniso_label
_atom_site_aniso_type_symbol
_atom_site_aniso_U_11
_atom_site_aniso_U_22
_atom_site_aniso_U_33
_atom_site_aniso_U_12
_atom_site_aniso_U_13
_atom_site_aniso_U_23
K1 K1+ 0.0136(5) 0.0190(6) 0.0169(6) 0.0105(4) -.0033(5) -.0024(5)
K2 K1+ 0.0118(5) 0.0175(6) 0.0142(6) 0.0091(4) -.0004(4) 0.0006(5)
K3 K1+ 0.0152(5) 0.0190(6) 0.0163(6) 0.0096(5) -.0044(5) -.0038(6)
Mn1 Mn3+ 0.0045(3) 0.0124(4) 0.0073(4) 0.0053(3) 0.0006(3) 0.0007(3)
O1 O2- 0.0065(16) 0.0153(20) 0.0108(15) 0.0066(13) 0.0049(15) 0.0056(17)
O2 O2- 0.0086(18) 0.0206(22) 0.0145(16) 0.0091(14) -.0027(16) 0.0004(19)
O3 O2- 0.0111(18) 0.0221(23) 0.0162(17) 0.0127(13) 0.0026(15) 0.0003(18)
#End of data_34392-ICSD


