data_202665-ICSD
#?2014 by Fachinformationszentrum Karlsruhe, and the U.S. Secretary of 
#Commerce on behalf of the United States.  All rights reserved.
_database_code_ICSD                202665
_audit_creation_date               1989/06/19
_audit_update_record               1999/06/02
_chemical_name_systematic          'Calcium Silicopentaborate'
_chemical_formula_structural       'Ca2 Si B5 O9 (O H)5'
_chemical_formula_sum              'H5 B5 Ca2 O14 Si1'
_publ_section_title
;
Howlite, Ca2 Si B5 O9 (O H)5: Structure refinement and hydrogen 
bonding
;
loop_
_citation_id
_citation_journal_abbrev
_citation_year
_citation_journal_volume
_citation_page_first
_citation_page_last
_citation_journal_id_ASTM
primary 'American Mineralogist' 1988 73 1138 1144 AMMIAY
_publ_author_name                  'Griffen, D.T.'
_cell_length_a                     12.820(3)
_cell_length_b                     9.351(1)
_cell_length_c                     8.608(2)
_cell_angle_alpha                  90.
_cell_angle_beta                   104.84(2)
_cell_angle_gamma                  90.
_cell_volume                       997.51
_cell_formula_units_Z              4
_symmetry_space_group_name_H-M     'P 1 21/c 1'
_symmetry_Int_Tables_number        14
_refine_ls_R_factor_all            .023
loop_
_symmetry_equiv_pos_site_id
_symmetry_equiv_pos_as_xyz
  1	'x, -y+.5, z+.5'
  2	'-x, -y, -z'
  3	'-x, y+.5, -z+.5'
  4	'x, y, z'
loop_
_atom_type_symbol
_atom_type_oxidation_number
B3+	3
Ca2+	2
H1+	1
O2-	-2
Si4+	4
loop_
_atom_site_label
_atom_site_type_symbol
_atom_site_symmetry_multiplicity
_atom_site_Wyckoff_symbol
_atom_site_fract_x
_atom_site_fract_y
_atom_site_fract_z
_atom_site_occupancy
_atom_site_attached_hydrogens
_atom_site_U_iso_or_equiv
Ca1 Ca2+ 4 e 0.11738(2) 0.18339(3) 0.14917(3) 1. 0 0 
Ca2 Ca2+ 4 e 0.41192(2) 0.82088(3) 0.52253(3) 1. 0 0 
Si1 Si4+ 4 e 0.14127(3) 0.55510(4) 0.01101(4) 1. 0 0 
B1 B3+ 4 e 0.0371(1) 0.4728(2) 0.2559(1) 1. 0 0 
B2 B3+ 4 e 0.3226(1) 0.3834(2) 0.0268(2) 1. 0 0 
B3 B3+ 4 e 0.4927(1) 0.4209(2) 0.2508(2) 1. 0 0 
B4 B3+ 4 e 0.3425(1) 0.2623(2) 0.2862(1) 1. 0 0 
B5 B3+ 4 e 0.1573(1) 0.6489(2) 0.4697(2) 1. 0 0 
O1 O2- 4 e 0.0803(1) 0.5138(1) -.1738(1) 1. 0 0 
O2 O2- 4 e 0.1251(1) 0.7217(1) 0.0502(1) 1. 0 0 
O3 O2- 4 e 0.0992(1) 0.4525(1) 0.1349(1) 1. 0 0 
O4 O2- 4 e 0.2687(1) 0.5237(1) 0.0306(1) 1. 0 0 
O5 O2- 4 e 0.0614(1) 0.5997(1) 0.3529(1) 1. 0 0 
O6 O2- 4 e 0.4387(1) 0.4088(1) 0.0801(1) 1. 0 0 
O7 O2- 4 e 0.2914(1) 0.1692(1) 0.3631(1) 1. 0 0 
O8 O2- 4 e 0.2870(1) 0.2812(1) 0.1290(1) 1. 0 0 
O9 O2- 4 e 0.4372(1) 0.3332(1) 0.3539(1) 1. 0 0 
O10 O2- 4 e 0.4964(1) 0.5711(1) 0.2940(1) 1. 0 0 
O11 O2- 4 e 0.6014(1) 0.3568(1) 0.2724(1) 1. 0 0 
O12 O2- 4 e 0.2477(1) 0.6851(1) 0.3994(1) 1. 0 0 
O13 O2- 4 e 0.1975(1) 0.5421(1) 0.5987(1) 1. 0 0 
O14 O2- 4 e 0.0549(1) 0.3363(1) 0.3524(1) 1. 0 0 
H1 H1+ 4 e 0.534 0.593 0.385 1. 0 0.0371(68) 
H2 H1+ 4 e 0.345 0.598 0.681 1. 0 0.0308(61) 
H3 H1+ 4 e 0.225 0.685 0.298 1. 0 0.0522(82) 
H4 H1+ 4 e 0.185 0.574 -.308 1. 0 0.0367(66) 
H5 H1+ 4 e 0.007 0.704 -.342 1. 0 0.0258(57) 

loop_
_atom_site_aniso_label
_atom_site_aniso_type_symbol
_atom_site_aniso_U_11
_atom_site_aniso_U_22
_atom_site_aniso_U_33
_atom_site_aniso_U_12
_atom_site_aniso_U_13
_atom_site_aniso_U_23
Ca1 Ca2+ 0.0080(1) 0.0080(1) 0.0091(1) -.0008(1) 0.0026(1) -.0006(1)
Ca2 Ca2+ 0.0071(1) 0.0088(1) 0.0101(1) 0.0010(1) 0.0023(1) 0.0016(1)
Si1 Si4+ 0.0054(1) 0.0055(1) 0.0054(1) 0.0003(1) 0.0018(1) -.0001(1)
B1 B3+ 0.0061(5) 0.0078(5) 0.0066(5) 0.0004(4) 0.0015(4) -.0003(4)
B2 B3+ 0.0061(5) 0.0070(6) 0.0064(5) 0.0001(4) 0.0012(4) 0.0000(4)
B3 B3+ 0.0073(5) 0.0073(6) 0.0089(5) 0.0002(4) 0.0019(4) 0.0010(4)
B4 B3+ 0.0074(5) 0.0074(6) 0.0080(5) -.0001(4) 0.0022(4) 0.0004(4)
B5 B3+ 0.0072(5) 0.0069(5) 0.0077(5) -.0005(4) 0.0014(4) -.0006(4)
O1 O2- 0.0059(4) 0.0117(4) 0.0067(4) 0.0003(3) 0.0006(3) -.0015(3)
O2 O2- 0.0146(4) 0.0058(4) 0.0108(4) 0.0021(3) 0.0062(3) 0.0015(3)
O3 O2- 0.0098(4) 0.0078(4) 0.0093(4) 0.0008(3) 0.0058(3) 0.0009(3)
O4 O2- 0.0057(4) 0.0065(4) 0.0101(4) 0.0006(3) 0.0017(3) -.0004(3)
O5 O2- 0.0075(4) 0.0078(4) 0.0095(4) 0.0001(3) 0.0008(3) -.0025(3)
O6 O2- 0.0054(4) 0.0110(4) 0.0064(4) -.0002(3) 0.0011(3) 0.0007(3)
O7 O2- 0.0086(4) 0.0106(4) 0.0064(4) -.0020(3) 0.0011(3) 0.0019(3)
O8 O2- 0.0080(4) 0.0096(4) 0.0086(4) -.0022(3) 0.0012(3) 0.0025(3)
O9 O2- 0.0076(4) 0.0093(4) 0.0076(4) -.0021(3) 0.0017(3) 0.0004(3)
O10 O2- 0.0175(5) 0.0087(4) 0.0134(4) -.0019(4) 0.0016(4) -.0008(3)
O11 O2- 0.0058(4) 0.0115(4) 0.0130(4) -.0006(3) 0.0008(3) 0.0014(3)
O12 O2- 0.0104(4) 0.0156(5) 0.0106(4) -.0037(4) 0.0046(3) -.0016(4)
O13 O2- 0.0122(4) 0.0104(4) 0.0118(4) -.0005(3) 0.0007(3) 0.0039(3)
O14 O2- 0.0087(4) 0.0083(4) 0.0088(4) -.0007(3) 0.0022(3) 0.0021(3)
#End of data_202665-ICSD


