data_77053-ICSD
#?2014 by Fachinformationszentrum Karlsruhe, and the U.S. Secretary of 
#Commerce on behalf of the United States.  All rights reserved.
_database_code_ICSD                77053
_audit_creation_date               2001/07/16
_audit_update_record               2009/02/01
_chemical_name_systematic
;
Trisodium Iron Phosphate(V) Carbonate
;
_chemical_formula_structural       'Na3 Fe (P O4) (C O3)'
_chemical_formula_sum              'C1 Fe1 Na3 O7 P1'
_chemical_name_mineral             Bonshtedtite
_publ_section_title
;
Crystal chemical characteristics of bradleyite, sidorenkite and 
bonshtedtite
;
loop_
_citation_id
_citation_journal_abbrev
_citation_year
_citation_journal_volume
_citation_journal_issue
_citation_page_first
_citation_page_last
_citation_journal_id_ASTM
primary 'Mineralogiceskij Zhurnal' 1984 6 5 79 84 MINZDR
_publ_author_name
;
Tjy, C.T.L.;Nadezhina, T.N.;Pobedimskaya, E.A.;Khomyakov, A.P.
;
_cell_length_a                     8.955(7)
_cell_length_b                     5.149(3)
_cell_length_c                     6.629(2)
_cell_angle_alpha                  90.
_cell_angle_beta                   90.
_cell_angle_gamma                  90.45(3)
_cell_volume                       305.65
_cell_formula_units_Z              2
_symmetry_space_group_name_H-M     'P 1 1 21/m'
_symmetry_Int_Tables_number        11
loop_
_symmetry_equiv_pos_site_id
_symmetry_equiv_pos_as_xyz
  1	'x, y, -z+.5'
  2	'-x, -y, -z'
  3	'-x, -y, z+.5'
  4	'x, y, z'
loop_
_atom_type_symbol
_atom_type_oxidation_number
C4+	4
Fe2+	2
Na1+	1
O2-	-2
P5+	5
loop_
_atom_site_label
_atom_site_type_symbol
_atom_site_symmetry_multiplicity
_atom_site_Wyckoff_symbol
_atom_site_fract_x
_atom_site_fract_y
_atom_site_fract_z
_atom_site_occupancy
_atom_site_attached_hydrogens
_atom_site_B_iso_or_equiv
Fe1 Fe2+ 2 e 0.6447(1) 0.2217(1) 0.25 1. 0 0.80(1) 
Na1 Na1+ 4 f 0.2633(2) 0.2497(3) 0.0032(2) 1. 0 1.26(2) 
Na2 Na1+ 2 e 0.9177(3) 0.2346(4) 0.75 1. 0 1.66(3) 
P1 P5+ 2 e 0.5859(1) 0.2967(2) 0.75 1. 0 0.55(1) 
C1 C4+ 2 e 0.9392(4) 0.2696(7) 0.25 1. 0 0.75(4) 
O1 O2- 2 e 0.8741(4) 0.0478(6) 0.25 1. 0 1.08(4) 
O2 O2- 2 e 0.8572(4) 0.4753(6) 0.25 1. 0 1.19(4) 
O3 O2- 2 e 0.0808(4) 0.2850(7) 0.25 1. 0 1.41(5) 
O4 O2- 4 f 0.6805(4) 0.2209(4) 0.563 1. 0 1.07(3) 
O5 O2- 2 e 0.4343(3) 0.1630(6) 0.75 1. 0 0.89(4) 
O6 O2- 2 e 0.4390(3) 0.4065(6) 0.25 1. 0 0.95(4) 

#End of data_77053-ICSD


