data_59886-ICSD
#?2014 by Fachinformationszentrum Karlsruhe, and the U.S. Secretary of 
#Commerce on behalf of the United States.  All rights reserved.
_database_code_ICSD                59886
_audit_creation_date               2005/10/01
_chemical_name_systematic
;
Trisodium Yttrium(III) Hexachloride
;
_chemical_formula_structural       'Na3 Y Cl6'
_chemical_formula_sum              'Cl6 Na3 Y1'
_publ_section_title
;
Trisodium yttrium(III) hexachloride
;
loop_
_citation_id
_citation_journal_abbrev
_citation_year
_citation_journal_volume
_citation_page_first
_citation_page_last
_citation_journal_id_ASTM
primary 'Acta Crystallographica, Section E. Structure Reports Online'
 2004 60 i72 i73 ACSEBH
_publ_author_name                  'Liao, W.;Dronskowski, R.'
_cell_length_a                     6.8558(9)
_cell_length_b                     7.2550(10)
_cell_length_c                     10.1444(13)
_cell_angle_alpha                  90.00
_cell_angle_beta                   90.869(3)
_cell_angle_gamma                  90.00
_cell_volume                       504.51
_cell_formula_units_Z              2
_symmetry_space_group_name_H-M     'P 1 21/n 1'
_symmetry_Int_Tables_number        14
_refine_ls_R_factor_all            .0367
loop_
_symmetry_equiv_pos_site_id
_symmetry_equiv_pos_as_xyz
  1	'-x+.5, y+.5, -z+.5'
  2	'-x, -y, -z'
  3	'x+.5, -y+.5, z+.5'
  4	'x, y, z'
loop_
_atom_type_symbol
_atom_type_oxidation_number
Cl1-	-1
Na1+	1
Y3+	3
loop_
_atom_site_label
_atom_site_type_symbol
_atom_site_symmetry_multiplicity
_atom_site_Wyckoff_symbol
_atom_site_fract_x
_atom_site_fract_y
_atom_site_fract_z
_atom_site_occupancy
_atom_site_attached_hydrogens
_atom_site_U_iso_or_equiv
Y1 Y3+ 2 c 0.0000 0.5000 0.0000 1 0 0.02038(11) 
Cl1 Cl1- 4 e 0.13788(11) 0.56484(11) 0.23953(7) 1 0 0.03117(18) 
Cl2 Cl1- 4 e 0.16846(11) 0.80526(11) -0.07710(9) 1 0 0.0391(2) 
Cl3 Cl1- 4 e 0.31504(11) 0.32048(11) -0.06380(8) 1 0 0.0389(2) 
Na1 Na1+ 4 e 0.5226(2) 0.4251(2) 0.24215(16) 1 0 0.0514(4) 
Na2 Na1+ 2 d 0.5000 0.0000 0.0000 1 0 0.0354(4) 

loop_
_atom_site_aniso_label
_atom_site_aniso_type_symbol
_atom_site_aniso_U_11
_atom_site_aniso_U_22
_atom_site_aniso_U_33
_atom_site_aniso_U_12
_atom_site_aniso_U_13
_atom_site_aniso_U_23
Y1 Y3+ 0.02109(19) 0.02026(19) 0.01983(18) -0.00047(15) 0.00127(13) 
-0.00124(16)
Cl1 Cl1- 0.0353(4) 0.0362(4) 0.0219(4) 0.0031(3) -0.0041(3) -0.0036(3)
Cl2 Cl1- 0.0371(4) 0.0297(4) 0.0501(5) -0.0122(3) -0.0072(4) 0.0122(3)
Cl3 Cl1- 0.0339(4) 0.0358(4) 0.0472(5) 0.0147(3) 0.0114(3) 0.0092(4)
Na1 Na1+ 0.0449(8) 0.0363(8) 0.0730(11) -0.0064(6) 0.0033(7) 0.0028(7)
Na2 Na1+ 0.0354(9) 0.0300(9) 0.0405(10) 0.0037(8) -0.0053(8) -0.0034(8)
#End of data_59886-ICSD


