data_201545-ICSD
#?2014 by Fachinformationszentrum Karlsruhe, and the U.S. Secretary of 
#Commerce on behalf of the United States.  All rights reserved.
_database_code_ICSD                201545
_audit_creation_date               1985/07/17
_audit_update_record               2012/02/01
_chemical_name_systematic          'Sodium Sulfide Pentahydrate'
_chemical_formula_structural       'Na2 S (H2 O)5'
_chemical_formula_sum              'H10 Na2 O5 S1'
_publ_section_title
;
Hydrogen bonds in Na2 S (H2 O)5. X-ray diffraction and vibrational 
spectroscopic study
;
loop_
_citation_id
_citation_journal_abbrev
_citation_year
_citation_journal_volume
_citation_page_first
_citation_page_last
_citation_journal_id_ASTM
primary
;
Journal of the Chemical Society. Dalton Transactions, Inorganic 
Chemistry (1972-)
;
 1984 1984 1275 1277 JCDTBI
_publ_author_name
;
Mereiter, K.;Preisinger, A.;Zellner, A.;Mikenda, W.;Steidl, H.
;
_cell_length_a                     6.476(1)
_cell_length_b                     12.536(2)
_cell_length_c                     8.686(1)
_cell_angle_alpha                  90.
_cell_angle_beta                   90.
_cell_angle_gamma                  90.
_cell_volume                       705.16
_cell_formula_units_Z              4
_symmetry_space_group_name_H-M     'C m c m'
_symmetry_Int_Tables_number        63
_refine_ls_R_factor_all            .024
loop_
_symmetry_equiv_pos_site_id
_symmetry_equiv_pos_as_xyz
  1	'-x, y, -z+.5'
  2	'-x, -y, z+.5'
  3	'-x, y, z'
  4	'-x, -y, -z'
  5	'x, -y, z+.5'
  6	'x, y, -z+.5'
  7	'x, -y, -z'
  8	'x, y, z'
  9	'-x+.5, y+.5, -z+.5'
 10	'-x+.5, -y+.5, z+.5'
 11	'-x+.5, y+.5, z'
 12	'-x+.5, -y+.5, -z'
 13	'x+.5, -y+.5, z+.5'
 14	'x+.5, y+.5, -z+.5'
 15	'x+.5, -y+.5, -z'
 16	'x+.5, y+.5, z'
loop_
_atom_type_symbol
_atom_type_oxidation_number
H1+	1
Na1+	1
O2-	-2
S2-	-2
loop_
_atom_site_label
_atom_site_type_symbol
_atom_site_symmetry_multiplicity
_atom_site_Wyckoff_symbol
_atom_site_fract_x
_atom_site_fract_y
_atom_site_fract_z
_atom_site_occupancy
_atom_site_attached_hydrogens
_atom_site_B_iso_or_equiv
Na1 Na1+ 4 a 0 0 0 1. 0 1.96 
Na2 Na1+ 4 c 0.5 0.04314(8) 0.75 1. 0 2.02 
O1 O2- 4 c 0 0.09273(18) 0.25 1. 0 2.76 
O2 O2- 16 h 0.25979(15) 0.12191(7) 0.57356(11) 1. 0 2.11 
H1 H1+ 8 g 0.12106 0.13693 0.25 1. 0 7.1(9) 
H2 H1+ 16 h 0.19377 0.18271 0.61929 1. 0 4.4(5) 
H3 H1+ 16 h 0.33247 0.14755 0.48463 1. 0 3.9(5) 
S1 S2- 4 c 0 0.31286(5) 0.75 1. 0 1.36(5) 

#End of data_201545-ICSD


