data_166344-ICSD
#?2014 by Fachinformationszentrum Karlsruhe, and the U.S. Secretary of 
#Commerce on behalf of the United States.  All rights reserved.
_database_code_ICSD                166344
_audit_creation_date               2010/08/01
_chemical_name_systematic
;
Aluminium Oxide Hydroxide - Delta, Symmetric H-bond
;
_chemical_formula_structural       'Al O (O H)'
_chemical_formula_sum              'H1 Al1 O2'
_publ_section_title
;
Elastic properties of delta-Al O (O H) under pressure: first 
principles investigation
;
loop_
_citation_id
_citation_journal_abbrev
_citation_year
_citation_journal_volume
_citation_page_first
_citation_page_last
_citation_journal_id_ASTM
primary 'Physics of the Earth and Planetary Interiors' 2008 174 122 127 PEPIAM
_publ_author_name                  'Tsuchiya, J.;Tsuchiya, T.'
_cell_length_a                     4.342
_cell_length_b                     3.885
_cell_length_c                     2.590
_cell_angle_alpha                  90.
_cell_angle_beta                   90.
_cell_angle_gamma                  90.
_cell_volume                       43.69
_cell_formula_units_Z              2
_symmetry_space_group_name_H-M     'P n n m'
_symmetry_Int_Tables_number        58
loop_
_symmetry_equiv_pos_site_id
_symmetry_equiv_pos_as_xyz
  1	'x+.5, -y+.5, z+.5'
  2	'-x+.5, y+.5, z+.5'
  3	'x, y, -z'
  4	'-x, -y, -z'
  5	'-x+.5, y+.5, -z+.5'
  6	'x+.5, -y+.5, -z+.5'
  7	'-x, -y, z'
  8	'x, y, z'
loop_
_atom_type_symbol
_atom_type_oxidation_number
Al3+	3
H1+	1
O2-	-2
loop_
_atom_site_label
_atom_site_type_symbol
_atom_site_symmetry_multiplicity
_atom_site_Wyckoff_symbol
_atom_site_fract_x
_atom_site_fract_y
_atom_site_fract_z
_atom_site_occupancy
_atom_site_attached_hydrogens
Al1 Al3+ 2 a 0 0 0 1. 0 
O1 O2- 4 g 0.3458 0.2387 0 1. 0 
H1 H1+ 2 d 0.5 0 0 1. 0 

#End of data_166344-ICSD


