data_92052-ICSD
#?2014 by Fachinformationszentrum Karlsruhe, and the U.S. Secretary of 
#Commerce on behalf of the United States.  All rights reserved.
_database_code_ICSD                92052
_audit_creation_date               2002/10/01
_audit_update_record               2005/04/01
_chemical_name_systematic          'Silver Gallium Sulfide - Hp'
_chemical_formula_structural       'Ag Ga S2'
_chemical_formula_sum              'Ag1 Ga1 S2'
_publ_section_title
;
Synchrotron X-ray stuy of the monoclinic high-pressure structure of 
Ag Ga S2
;
loop_
_citation_id
_citation_journal_abbrev
_citation_year
_citation_journal_volume
_citation_journal_issue
_citation_page_first
_citation_page_last
_citation_journal_id_ASTM
primary 'Physical Review, Serie 3. B - Condensed Matter (18,1978-)'
 2000 61 5 3310 3316 PRBMDO
_publ_author_name
;
Kitahara Eba, H.;Ishizawa, N.;Marumo, F.;Noda, Y.
;
_cell_length_a                     8.031(4)
_cell_length_b                     8.014(1)
_cell_length_c                     6.221(2)
_cell_angle_alpha                  90.
_cell_angle_beta                   128.42(3)
_cell_angle_gamma                  90.
_cell_volume                       313.69
_cell_formula_units_Z              4
_symmetry_space_group_name_H-M     'C 1 c 1'
_symmetry_Int_Tables_number        9
_refine_ls_R_factor_all            .059
loop_
_symmetry_equiv_pos_site_id
_symmetry_equiv_pos_as_xyz
  1	'x, -y, z+.5'
  2	'x, y, z'
  3	'x+.5, -y+.5, z+.5'
  4	'x+.5, y+.5, z'
loop_
_atom_type_symbol
_atom_type_oxidation_number
Ag1+	1
Ga3+	3
S2-	-2
loop_
_atom_site_label
_atom_site_type_symbol
_atom_site_symmetry_multiplicity
_atom_site_Wyckoff_symbol
_atom_site_fract_x
_atom_site_fract_y
_atom_site_fract_z
_atom_site_occupancy
_atom_site_attached_hydrogens
_atom_site_U_iso_or_equiv
Ag1 Ag1+ 4 a 0 0.0947(6) 0 1. 0 0 
Ga1 Ga3+ 4 a 0.496(6) 0.1213(7) 0.011(6) 1. 0 0 
S1 S2- 4 a 0.393(6) 0.118(2) 0.287(5) 1. 0 0.01(2) 
S2 S2- 4 a 0.339(6) 0.659(2) 0.227(5) 1. 0 0.01(2) 

loop_
_atom_site_aniso_label
_atom_site_aniso_type_symbol
_atom_site_aniso_U_11
_atom_site_aniso_U_22
_atom_site_aniso_U_33
_atom_site_aniso_U_12
_atom_site_aniso_U_13
_atom_site_aniso_U_23
Ag1 Ag1+ 0.04(1) 0.024(3) 0.037(6) -.009(8) 0.019(7) 0.008(5)
Ga1 Ga3+ 0.02(1) 0.009(3) 0.014(5) 0.004(7) 0.001(5) -.003(6)
#End of data_92052-ICSD


