data_170225-ICSD
#?2014 by Fachinformationszentrum Karlsruhe, and the U.S. Secretary of 
#Commerce on behalf of the United States.  All rights reserved.
_database_code_ICSD                170225
_audit_creation_date               2006/04/01
_chemical_name_systematic          'Calcium Carbonate'
_chemical_formula_structural       'Ca C O3'
_chemical_formula_sum              'C1 Ca1 O3'
_chemical_name_mineral             Aragonite
_publ_section_title                'On the structure of aragonite'
loop_
_citation_id
_citation_journal_abbrev
_citation_year
_citation_journal_volume
_citation_page_first
_citation_page_last
_citation_journal_id_ASTM
primary 'Acta Crystallographica, Section B: Structural Science'
 2005 61 129 132 ASBSDK
_publ_author_name
;
Caspi, E.N.;Pokroy, B.;Lee, P.L.;Quintana, J.P.;Zolotoyabko, E.
;
_cell_length_a                     4.961830(13)
_cell_length_b                     7.96914(2)
_cell_length_c                     5.742852(15)
_cell_angle_alpha                  90.0
_cell_angle_beta                   90.0
_cell_angle_gamma                  90.0
_cell_volume                       227.08
_cell_formula_units_Z              4
_symmetry_space_group_name_H-M     'P m c n'
_symmetry_Int_Tables_number        62
_refine_ls_R_factor_all            .0547
loop_
_symmetry_equiv_pos_site_id
_symmetry_equiv_pos_as_xyz
  1	'x, -y+.5, z+.5'
  2	'-x+.5, y, z'
  3	'x+.5, y+.5, -z+.5'
  4	'-x, -y, -z'
  5	'-x, y+.5, -z+.5'
  6	'x+.5, -y, -z'
  7	'-x+.5, -y+.5, z+.5'
  8	'x, y, z'
loop_
_atom_type_symbol
_atom_type_oxidation_number
C4+	4
Ca2+	2
O2-	-2
loop_
_atom_site_label
_atom_site_type_symbol
_atom_site_symmetry_multiplicity
_atom_site_Wyckoff_symbol
_atom_site_fract_x
_atom_site_fract_y
_atom_site_fract_z
_atom_site_occupancy
_atom_site_attached_hydrogens
_atom_site_U_iso_or_equiv
Ca1 Ca2+ 4 c 0.25 0.41502(2) 0.75985(4) 1.0 0 0.00764 
C1 C4+ 4 c 0.25 0.76194(12) -0.08240(14) 1.0 0 0.01523 
O1 O2- 4 c 0.25 0.92238(8) -0.09453(8) 1.0 0 0.01161 
O2 O2- 8 d 0.47499(7) 0.68012(5) -0.08725(7) 1.0 0 0.01035 

loop_
_atom_site_aniso_label
_atom_site_aniso_type_symbol
_atom_site_aniso_U_11
_atom_site_aniso_U_22
_atom_site_aniso_U_33
_atom_site_aniso_U_12
_atom_site_aniso_U_13
_atom_site_aniso_U_23
Ca1 Ca2+ 0.00450(9) 0.00677(9) 0.01166(10) 0.0 0.0 -0.00195(14)
C1 C4+ 0.00450(9) 0.00677(9) 0.01166(10) 0.0 0.0 -0.00195(14)
O1 O2- 0.0127(4) 0.0033(3) 0.0188(4) 0.0 0.0 0.0037(3)
O2 O2- 0.0004(2) 0.0107(2) 0.0200(3) 0.00669(18) 0.0003(2) 0.0016(2)
#End of data_170225-ICSD


