data_80817-ICSD
#?2014 by Fachinformationszentrum Karlsruhe, and the U.S. Secretary of 
#Commerce on behalf of the United States.  All rights reserved.
_database_code_ICSD                80817
_audit_creation_date               1997/05/13
_audit_update_record               2008/02/01
_chemical_name_systematic          'Sodium Oxotitanium Phosphate(V)'
_chemical_formula_structural       'Na (Ti O) (P O4)'
_chemical_formula_sum              'Na1 O5 P1 Ti1'
_publ_section_title
;
Preparation and structure of the sodium titanium double phosphate Na 
Ti O P O4
;
loop_
_citation_id
_citation_journal_abbrev
_citation_year
_citation_journal_volume
_citation_journal_issue
_citation_page_first
_citation_page_last
_citation_journal_id_ASTM
primary 'Zhurnal Neorganicheskoi Khimii' 1989 34- 3030 3032 ZNOKAQ
2 'Russian Journal of Inorganic Chemistry' 1989 34 12 1731 1733 RJICAQ
3 'Golden Book of Phase Transitions, Wroclaw' 2002 1- 1 123 GBOPT5
_publ_author_name
;
Nagornyi, P.G.;Kapshuk, A.A.;Stus', N.V.;Slobodyanik, N.S.
;
_cell_length_a                     7.156(1)
_cell_length_b                     8.507(2)
_cell_length_c                     7.390(1)
_cell_angle_alpha                  90.
_cell_angle_beta                   125.94(1)
_cell_angle_gamma                  90.
_cell_volume                       364.23
_cell_formula_units_Z              4
_symmetry_space_group_name_H-M     'P 1 21/a 1'
_symmetry_Int_Tables_number        14
_refine_ls_R_factor_all            .063
loop_
_symmetry_equiv_pos_site_id
_symmetry_equiv_pos_as_xyz
  1	'x+.5, -y+.5, z'
  2	'-x, -y, -z'
  3	'-x+.5, y+.5, -z'
  4	'x, y, z'
loop_
_atom_type_symbol
_atom_type_oxidation_number
Na1+	1
O2-	-2
P5+	5
Ti4+	4
loop_
_atom_site_label
_atom_site_type_symbol
_atom_site_symmetry_multiplicity
_atom_site_Wyckoff_symbol
_atom_site_fract_x
_atom_site_fract_y
_atom_site_fract_z
_atom_site_occupancy
_atom_site_attached_hydrogens
Ti1 Ti4+ 4 e 0.2745(1) 0.2412(1) 0.7520(1) 1. 0 
Na1 Na1+ 4 e -.0264(3) 0.4181(2) 0.2486(2) 1. 0 
P1 P5+ 4 e -.0007(1) 0.0687(1) 0.2503(1) 1. 0 
O1 O2- 4 e -.0309(4) 0.1796(2) 0.0695(3) 1. 0 
O2 O2- 4 e 0.0329(4) 0.1763(2) 0.4360(3) 1. 0 
O3 O2- 4 e 0.7822(3) -.0344(2) 0.1534(3) 1. 0 
O4 O2- 4 e 0.2142(3) -.0356(2) 0.3428(3) 1. 0 
O5 O2- 4 e 0.4993(3) 0.1784(3) 0.7528(2) 1. 0 

#End of data_80817-ICSD


