data_81681-ICSD
#?2014 by Fachinformationszentrum Karlsruhe, and the U.S. Secretary of 
#Commerce on behalf of the United States.  All rights reserved.
_database_code_ICSD                81681
_audit_creation_date               1997/05/13
_audit_update_record               2006/04/01
_chemical_name_systematic
;
Dirubidium Potassium Hexafluoroscandate(III) - Lt
;
_chemical_formula_structural       'Rb2 K (Sc F6)'
_chemical_formula_sum              'F6 K1 Rb2 Sc1'
_publ_section_title
;
Neutron powder refinements of the three structural forms of Rb2 K Sc 
F6
;
loop_
_citation_id
_citation_journal_abbrev
_citation_year
_citation_journal_volume
_citation_page_first
_citation_page_last
_citation_journal_id_ASTM
primary 'European Journal of Solid State Inorganic Chemistry'
 1996 33 893 905 EJSCE5
2 'Phase Transition' 1992 38 127 220 PHTRDP
_publ_author_name
;
Faget, H.;Grannec, J.;Tressaud, A.;Rodriguez, V.;Roisnel, T.;Flerov, 
I.N.;Gorev, M.V.
;
_cell_length_a                     6.366(1)
_cell_length_b                     6.366(1)
_cell_length_c                     9.016(2)
_cell_angle_alpha                  90.
_cell_angle_beta                   90.
_cell_angle_gamma                  90.
_cell_volume                       365.38
_cell_formula_units_Z              2
_symmetry_space_group_name_H-M     'I 4/m'
_symmetry_Int_Tables_number        87
_refine_ls_R_factor_all            .054
loop_
_symmetry_equiv_pos_site_id
_symmetry_equiv_pos_as_xyz
  1	'-y, x, -z'
  2	'y, -x, -z'
  3	'x, y, -z'
  4	'-x, -y, -z'
  5	'y, -x, z'
  6	'-y, x, z'
  7	'-x, -y, z'
  8	'x, y, z'
  9	'-y+.5, x+.5, -z+.5'
 10	'y+.5, -x+.5, -z+.5'
 11	'x+.5, y+.5, -z+.5'
 12	'-x+.5, -y+.5, -z+.5'
 13	'y+.5, -x+.5, z+.5'
 14	'-y+.5, x+.5, z+.5'
 15	'-x+.5, -y+.5, z+.5'
 16	'x+.5, y+.5, z+.5'
loop_
_atom_type_symbol
_atom_type_oxidation_number
F1-	-1
K1+	1
Rb1+	1
Sc3+	3
loop_
_atom_site_label
_atom_site_type_symbol
_atom_site_symmetry_multiplicity
_atom_site_Wyckoff_symbol
_atom_site_fract_x
_atom_site_fract_y
_atom_site_fract_z
_atom_site_occupancy
_atom_site_attached_hydrogens
_atom_site_U_iso_or_equiv
Rb1 Rb1+ 4 d 0.5 0 0.25 1. 0 0.0278(11) 
K1 K1+ 2 b 0 0 0.5 1. 0 0.0146(22) 
Sc1 Sc3+ 2 a 0 0 0 1. 0 0 
F1 F1- 4 e 0 0 0.221(1) 1. 0 0 
F2 F1- 8 h 0.196(1) 0.243(1) 0 1. 0 0 

loop_
_atom_site_aniso_label
_atom_site_aniso_type_symbol
_atom_site_aniso_U_11
_atom_site_aniso_U_22
_atom_site_aniso_U_33
_atom_site_aniso_U_12
_atom_site_aniso_U_13
_atom_site_aniso_U_23
Sc1 Sc3+ 0.0130(28) 0.0130(28) 0.0116(54) 0 0 0
F1 F1- 0.0130(28) 0.0130(28) 0.0116(54) 0 0 0
F2 F1- 0.0130(28) 0.0130(28) 0.0130(28) 0 0 0
#End of data_81681-ICSD


