data_160190-ICSD
#?2014 by Fachinformationszentrum Karlsruhe, and the U.S. Secretary of 
#Commerce on behalf of the United States.  All rights reserved.
_database_code_ICSD                160190
_audit_creation_date               2008/08/01
_chemical_name_systematic
;
Potassium Yttrium Diphosphate(V) - Beta
;
_chemical_formula_structural       'K Y (P2 O7)'
_chemical_formula_sum              'K1 O7 P2 Y1'
_publ_section_title
;
Synthesis, structure and X-ray excited luminescence of Ce(3+)-doped 
(A RE P2 O7)-type alkali rare earth diphosphates (A= Na, K, Rb, Cs; 
RE= Y, Lu)
;
loop_
_citation_id
_citation_journal_abbrev
_citation_year
_citation_journal_volume
_citation_page_first
_citation_page_last
_citation_journal_id_ASTM
primary 'Journal of Solid State Chemistry' 2007 180 3381 3387 JSSCBI
_publ_author_name
;
Yuan Jun Lin;Zhang Hui;Chen Hao Hong;Yang Xin Xin;Zhao Jing Tai;Gu Mu
;
_cell_length_a                     7.5797(2)
_cell_length_b                     10.9371(3)
_cell_length_c                     8.5918(2)
_cell_angle_alpha                  90.
_cell_angle_beta                   106.92(0)
_cell_angle_gamma                  90.
_cell_volume                       681.43
_cell_formula_units_Z              4
_symmetry_space_group_name_H-M     'P 1 21/c 1'
_symmetry_Int_Tables_number        14
_refine_ls_R_factor_all            .0582
loop_
_symmetry_equiv_pos_site_id
_symmetry_equiv_pos_as_xyz
  1	'x, -y+.5, z+.5'
  2	'-x, -y, -z'
  3	'-x, y+.5, -z+.5'
  4	'x, y, z'
loop_
_atom_type_symbol
_atom_type_oxidation_number
K1+	1
O2-	-2
P5+	5
Y3+	3
loop_
_atom_site_label
_atom_site_type_symbol
_atom_site_symmetry_multiplicity
_atom_site_Wyckoff_symbol
_atom_site_fract_x
_atom_site_fract_y
_atom_site_fract_z
_atom_site_occupancy
_atom_site_attached_hydrogens
_atom_site_U_iso_or_equiv
K1 K1+ 4 e 0.1872(5) 0.3216(3) 0.0687(4) 1. 0 0.0239(11) 
Y1 Y3+ 4 e 0.2313(2) 0.59522(14) 0.7488(2) 1. 0 0.0081(3) 
P1 P5+ 4 e 0.4479(6) 0.6442(4) 0.1907(6) 1. 0 0.0116(13) 
P2 P5+ 4 e 0.1296(6) 0.8996(4) 0.8066(5) 1. 0 0.0086(12) 
O1 O2- 4 e 0.3418(11) 0.9206(8) 0.8071(10) 1. 0 0.021(3) 
O2 O2- 4 e 0.0668(11) 0.7287(9) 0.2387(12) 1. 0 0.007(3) 
O3 O2- 4 e 0.6305(10) 0.5882(9) 0.2471(11) 1. 0 0.013(3) 
O4 O2- 4 e 0.12237(13) 0.5964(9) 0.4732(12) 1. 0 0.020(3) 
O5 O2- 4 e 0.3385(12) 0.6137(8) 0.0185(12) 1. 0 0.020(3) 
O6 O2- 4 e 0.0158(12) 0.4992(9) 0.2089(9) 1. 0 0.006(3) 
O7 O2- 4 e 0.4635(11) 0.7777(9) 0.2254(10) 1. 0 0.004(3) 

#End of data_160190-ICSD


