data_425555-ICSD
#?2014 by Fachinformationszentrum Karlsruhe, and the U.S. Secretary of 
#Commerce on behalf of the United States.  All rights reserved.
_database_code_ICSD                425555
_audit_creation_date               2014/02/01
_chemical_name_systematic
;
Dicopper Magnesium Tetrathiogermanate
;
_chemical_formula_structural       'Cu2 Mg (Ge S4)'
_chemical_formula_sum              'Cu2 Ge1 Mg1 S4'
_publ_section_title
;
Synthesis, structure, and optical properties of the quaternary 
diamond-like compounds I2 - II - IV - VI4 (I = Cu; II = Mg; IV = Si, 
Ge; VI = S, Se)
;
loop_
_citation_id
_citation_journal_abbrev
_citation_year
_citation_journal_volume
_citation_page_first
_citation_page_last
_citation_journal_id_ASTM
primary 'Journal of Solid State Chemistry' 2013 204 251 256 JSSCBI
_publ_author_name
;
Liu, Bin-Wen;Zhang, Ming-Jian;Zhao, Zhong-Yan;Zeng, Hui-Yi;Zheng, Fa-
Kun;Guo, Guo-Cong;Huang, Jin-Shun
;
_cell_length_a                     7.638(4)
_cell_length_b                     6.515(4)
_cell_length_c                     6.225(3)
_cell_angle_alpha                  90.00
_cell_angle_beta                   90.00
_cell_angle_gamma                  90.00
_cell_volume                       309.77
_cell_formula_units_Z              2
_symmetry_space_group_name_H-M     'P m n 21'
_symmetry_Int_Tables_number        31
_refine_ls_R_factor_all            .0386
loop_
_symmetry_equiv_pos_site_id
_symmetry_equiv_pos_as_xyz
  1	'x+.5, -y, z+.5'
  2	'-x+.5, -y, z+.5'
  3	'-x, y, z'
  4	'x, y, z'
loop_
_atom_type_symbol
_atom_type_oxidation_number
Cu1+	1
Ge4+	4
Mg2+	2
S2-	-2
loop_
_atom_site_label
_atom_site_type_symbol
_atom_site_symmetry_multiplicity
_atom_site_Wyckoff_symbol
_atom_site_fract_x
_atom_site_fract_y
_atom_site_fract_z
_atom_site_occupancy
_atom_site_attached_hydrogens
_atom_site_U_iso_or_equiv
Mg1 Mg2+ 2 a 0.0000 0.6609(3) 0.4996(16) 1 0 0.0099(7) 
Cu1 Cu1+ 4 b 0.25186(10) 0.17587(10) 0.49469(17) 1 0 0.0163(4) 
Ge1 Ge4+ 2 a 0.0000 0.32461(10) 0.0008(2) 1 0 0.0081(4) 
S1 S2- 4 b 0.2345(3) 0.1606(2) 0.1266(4) 1 0 0.0091(5) 
S2 S2- 2 a 0.0000 0.3117(3) 0.6455(6) 1 0 0.0099(7) 
S3 S2- 2 a 0.0000 0.6487(3) 0.1116(5) 1 0 0.0101(7) 

loop_
_atom_site_aniso_label
_atom_site_aniso_type_symbol
_atom_site_aniso_U_11
_atom_site_aniso_U_22
_atom_site_aniso_U_33
_atom_site_aniso_U_12
_atom_site_aniso_U_13
_atom_site_aniso_U_23
Mg1 Mg2+ 0.0137(16) 0.0084(14) 0.008(2) 0.000 0.000 -0.007(2)
Cu1 Cu1+ 0.0181(6) 0.0188(6) 0.0118(7) 0.0013(2) 0.0009(5) -0.0014(4)
Ge1 Ge4+ 0.0080(6) 0.0094(5) 0.0071(6) 0.000 0.000 0.0006(3)
S1 S2- 0.0087(9) 0.0108(8) 0.0079(10) 0.0012(4) -0.0023(9) -0.0008(6)
S2 S2- 0.0081(12) 0.0150(11) 0.0066(18) 0.000 0.000 -0.0036(12)
S3 S2- 0.0100(12) 0.0107(9) 0.0095(17) 0.000 0.000 -0.0023(10)
#End of data_425555-ICSD


