data_161621-ICSD
#?2014 by Fachinformationszentrum Karlsruhe, and the U.S. Secretary of 
#Commerce on behalf of the United States.  All rights reserved.
_database_code_ICSD                161621
_audit_creation_date               2009/02/01
_audit_update_record               2013/08/01
_chemical_name_systematic          'Calcium Carbonate - Post-aragonite'
_chemical_formula_structural       'Ca (C O3)'
_chemical_formula_sum              'C1 Ca1 O3'
_publ_section_title
;
A lattice dynamical study of the aragonite and post-aragonite phases 
of calcium carbonate rock
;
loop_
_citation_id
_citation_journal_abbrev
_citation_year
_citation_journal_volume
_citation_page_first
_citation_page_last
_citation_journal_id_ASTM
primary 'American Mineralogist' 2008 93 1608 1612 AMMIAY
_publ_author_name
;
Sekkal, W.;Taleb, N.;Zaoui, A.;Shahrour, I.
;
_cell_length_a                     4.2786
_cell_length_b                     4.6958
_cell_length_c                     4.2138
_cell_angle_alpha                  90.
_cell_angle_beta                   90.
_cell_angle_gamma                  90.
_cell_volume                       84.66
_cell_formula_units_Z              2
_symmetry_space_group_name_H-M     'P m m n S'
_symmetry_Int_Tables_number        59
loop_
_symmetry_equiv_pos_site_id
_symmetry_equiv_pos_as_xyz
  1	'x+.5, -y+.5, -z'
  2	'x+.5, y+.5, -z'
  3	'x, -y, z'
  4	'-x, y, z'
  5	'-x+.5, y+.5, -z'
  6	'-x+.5, -y+.5, -z'
  7	'-x, -y, z'
  8	'x, y, z'
loop_
_atom_type_symbol
_atom_type_oxidation_number
C4+	4
Ca2+	2
O2-	-2
loop_
_atom_site_label
_atom_site_type_symbol
_atom_site_symmetry_multiplicity
_atom_site_Wyckoff_symbol
_atom_site_fract_x
_atom_site_fract_y
_atom_site_fract_z
_atom_site_occupancy
_atom_site_attached_hydrogens
Ca1 Ca2+ 2 b 0 0.5 0.6155 1. 0 
C1 C4+ 2 a 0 0 0.9906 1. 0 
O1 O2- 2 a 0 0 0.6987 1. 0 
O2 O2- 4 e 0 0.2227 0.1508 1. 0 

#End of data_161621-ICSD


