data_172846-ICSD
#?2014 by Fachinformationszentrum Karlsruhe, and the U.S. Secretary of 
#Commerce on behalf of the United States.  All rights reserved.
_database_code_ICSD                172846
_audit_creation_date               2008/02/01
_chemical_name_systematic          'Potassium Trifluorochromate(II)'
_chemical_formula_structural       'K Cr F3'
_chemical_formula_sum              'Cr1 F3 K1'
_chemical_name_mineral             Perovskite
_publ_section_title
;
Cooperative Jahn-Teller distortion, phase transitions, and weak 
ferromagnetism in the K Cr F3 perovskite
;
loop_
_citation_id
_citation_journal_abbrev
_citation_year
_citation_journal_volume
_citation_journal_issue
_citation_page_first
_citation_page_last
_citation_journal_id_ASTM
primary 'Journal of the American Chemical Society' 2006 128 51 16435 16437 JACSAT
_publ_author_name                  'Margadonna, S.;Karotsis, G.'
_cell_length_a                     6.04805(10)
_cell_length_b                     6.0537(6)
_cell_length_c                     8.02308(5)
_cell_angle_alpha                  90.
_cell_angle_beta                   90.
_cell_angle_gamma                  89.92(1)
_cell_volume                       293.75
_cell_formula_units_Z              4
_symmetry_space_group_name_H-M     'I 1 1 2/m'
_symmetry_Int_Tables_number        12
_refine_ls_R_factor_all            .0573
loop_
_symmetry_equiv_pos_site_id
_symmetry_equiv_pos_as_xyz
  1	'x, y, -z'
  2	'-x, -y, -z'
  3	'-x, -y, z'
  4	'x, y, z'
  5	'x+.5, y+.5, -z+.5'
  6	'-x+.5, -y+.5, -z+.5'
  7	'-x+.5, -y+.5, z+.5'
  8	'x+.5, y+.5, z+.5'
loop_
_atom_type_symbol
_atom_type_oxidation_number
Cr2+	2
F1-	-1
K1+	1
loop_
_atom_site_label
_atom_site_type_symbol
_atom_site_symmetry_multiplicity
_atom_site_Wyckoff_symbol
_atom_site_fract_x
_atom_site_fract_y
_atom_site_fract_z
_atom_site_occupancy
_atom_site_attached_hydrogens
_atom_site_B_iso_or_equiv
K1 K1+ 4 g 0 0 0.250(1) 1. 0 1.2(1) 
Cr1 Cr2+ 2 c 0 0.5 0 1. 0 .5(1) 
Cr2 Cr2+ 2 d 0 0.5 0.5 1. 0 .8(1) 
F1 F1- 4 i 0.251(3) 0.770(2) 0 1. 0 2.0(1) 
F2 F1- 4 i 0.244(2) 0.279(1) 0 1. 0 2.0(1) 
F3 F1- 4 h 0 0.5 0.250(3) 1. 0 2.0(1) 

#End of data_172846-ICSD


