data_18156-ICSD
#?2014 by Fachinformationszentrum Karlsruhe, and the U.S. Secretary of 
#Commerce on behalf of the United States.  All rights reserved.
_database_code_ICSD                18156
_audit_creation_date               1980/01/01
_audit_update_record               2012/08/01
_chemical_name_systematic
;
Sodium Cobalt Molybdenum Chloride Oxide (2/5/4/4/16)
;
_chemical_formula_structural       'Na2 Co5 Mo4 Cl4 O16'
_chemical_formula_sum              'Cl4 Co5 Mo4 Na2 O16'
_publ_section_title
;
The crystal structure of Na2 Co5 Mo4 Cl4 O16
;
loop_
_citation_id
_citation_journal_abbrev
_citation_year
_citation_journal_volume
_citation_page_first
_citation_page_last
_citation_journal_id_ASTM
primary 'Acta Crystallographica (1,1948-23,1967)' 1965 18 582 584 ACCRA9
_publ_author_name                  'Smith, G.W.'
_cell_length_a                     10.706(3)
_cell_length_b                     8.852(2)
_cell_length_c                     10.663(3)
_cell_angle_alpha                  90.
_cell_angle_beta                   109.75(1)
_cell_angle_gamma                  90.
_cell_volume                       951.08
_cell_formula_units_Z              2
_symmetry_space_group_name_H-M     'C 1 2/m 1'
_symmetry_Int_Tables_number        12
_refine_ls_R_factor_all            .148
loop_
_symmetry_equiv_pos_site_id
_symmetry_equiv_pos_as_xyz
  1	'-x, y, -z'
  2	'-x, -y, -z'
  3	'x, -y, z'
  4	'x, y, z'
  5	'-x+.5, y+.5, -z'
  6	'-x+.5, -y+.5, -z'
  7	'x+.5, -y+.5, z'
  8	'x+.5, y+.5, z'
loop_
_atom_type_symbol
_atom_type_oxidation_number
Cl1-	-1
Co2+	2
Mo6+	6
Na1+	1
O2-	-2
loop_
_atom_site_label
_atom_site_type_symbol
_atom_site_symmetry_multiplicity
_atom_site_Wyckoff_symbol
_atom_site_fract_x
_atom_site_fract_y
_atom_site_fract_z
_atom_site_occupancy
_atom_site_attached_hydrogens
_atom_site_B_iso_or_equiv
Mo1 Mo6+ 4 i 0.04 0 0.1908 1. 0 0.5 
Mo2 Mo6+ 4 i 0.4467 0 0.1536 1. 0 0.5 
Co1 Co2+ 8 j 0.2645 0.178 0.8654 1. 0 0.69 
Co2 Co2+ 2 c 0 0 0.5 1. 0 0.69 
O1 O2- 8 j 0.3365 0.1651 0.0776 1. 0 1.66 
O2 O2- 8 j 0.1025 0.1625 0.1375 1. 0 1.66 
O3 O2- 4 i 0.1431 0 0.8734 1. 0 1.66 
O4 O2- 4 i 0.394 0 0.885 1. 0 1.66 
O5 O2- 4 i 0.4748 0 0.3275 1. 0 1.66 
O6 O2- 4 i 0.0956 0 0.372 1. 0 1.66 
Cl1 Cl1- 8 j 0.1645 0.1977 0.6238 1. 0 0.9 
Na1 Na1+ 4 i 0.3244 0 0.4881 1. 0 1.08 

#End of data_18156-ICSD


