data_92641-ICSD
#?2014 by Fachinformationszentrum Karlsruhe, and the U.S. Secretary of 
#Commerce on behalf of the United States.  All rights reserved.
_database_code_ICSD                92641
_audit_creation_date               2003/04/01
_audit_update_record               2013/08/01
_chemical_name_systematic
;
Dipotassium Manganese(II) Catena-tetrakis(vanadate)
;
_chemical_formula_structural       'K2 Mn (V O3)4'
_chemical_formula_sum              'K2 Mn1 O12 V4'
_chemical_name_mineral             Ronneburgite
_publ_section_title
;
Ronneburgite, K2 Mn V4 O12, a new mineral from Ronneburg, Thuringia, 
Germany: description and crystal structure
;
loop_
_citation_id
_citation_journal_abbrev
_citation_year
_citation_journal_volume
_citation_page_first
_citation_page_last
_citation_journal_id_ASTM
primary 'American Mineralogist' 2001 86 1081 1086 AMMIAY
_publ_author_name
;
Witzke, T.;Zhen, S.;Seff, K.;Doering, T.;Nasdala, L.;Kolitsch, U.
;
_cell_length_a                     8.183(3)
_cell_length_b                     9.247(3)
_cell_length_c                     8.651(2)
_cell_angle_alpha                  90
_cell_angle_beta                   109.74(2)
_cell_angle_gamma                  90
_cell_volume                       616.14
_cell_formula_units_Z              2
_symmetry_space_group_name_H-M     'P 1 21/n 1'
_symmetry_Int_Tables_number        14
_refine_ls_R_factor_all            .046
loop_
_symmetry_equiv_pos_site_id
_symmetry_equiv_pos_as_xyz
  1	'-x+.5, y+.5, -z+.5'
  2	'-x, -y, -z'
  3	'x+.5, -y+.5, z+.5'
  4	'x, y, z'
loop_
_atom_type_symbol
_atom_type_oxidation_number
K1+	1
Mn2+	2
O2-	-2
V5+	5
loop_
_atom_site_label
_atom_site_type_symbol
_atom_site_symmetry_multiplicity
_atom_site_Wyckoff_symbol
_atom_site_fract_x
_atom_site_fract_y
_atom_site_fract_z
_atom_site_occupancy
_atom_site_attached_hydrogens
Mn1 Mn2+ 2 a 0 0 0 1. 0 
V1 V5+ 4 e 0.16696(7) 0.21242(6) 0.37929(6) 1. 0 
V2 V5+ 4 e 0.80114(8) 0.44235(7) 0.26056(7) 1. 0 
K1 K1+ 4 e 0.8580(1) 0.19750(9) 0.5925(1) 1. 0 
O1 O2- 4 e 0.1829(4) 0.0915(3) 0.5440(3) 1. 0 
O2 O2- 4 e -0.0247(4) 0.3158(4) 0.3435(4) 1. 0 
O3 O2- 4 e 0.1518(4) 0.1169(3) 0.2130(3) 1. 0 
O4 O2- 4 e 0.3389(4) 0.3168(3) 0.4142(3) 1. 0 
O5 O2- 4 e 0.6649(4) 0.4264(3) 0.3650(3) 1. 0 
O6 O2- 4 e 0.8728(4) 0.6059(3) 0.2727(4) 1. 0 

loop_
_atom_site_aniso_label
_atom_site_aniso_type_symbol
_atom_site_aniso_U_11
_atom_site_aniso_U_22
_atom_site_aniso_U_33
_atom_site_aniso_U_12
_atom_site_aniso_U_13
_atom_site_aniso_U_23
Mn1 Mn2+ 0.0111(3) 0.0112(3) 0.0090(3) 0.0008(3) 0.0019(2) 0.0007(2)
V1 V5+ 0.0098(2) 0.0133(2) 0.0082(2) -0.0014(2) 0.0014(2) -0.0010(2)
V2 V5+ 0.0121(2) 0.0147(3) 0.0101(2) 0.0008(2) 0.0014(2) 0.0008(2)
K1 K1+ 0.0245(3) 0.0227(4) 0.0204(4) 0.0015(3) 0.0107(3) -0.0001(3)
O1 O2- 0.0251(14) 0.0222(13) 0.0111(10) -0.0028(11) 0.0026(10) 0.0033(9)
O2 O2- 0.0231(15) 0.0373(18) 0.0217(14) 0.0153(13) 0.0043(12) 0.0063(12)
O3 O2- 0.0236(13) 0.0246(13) 0.0135(11) -0.0053(11) 0.0051(10) -0.0097(10)
O4 O2- 0.0225(13) 0.0176(12) 0.0205(12) -0.0090(10) 0.0069(11) -0.0049(10)
O5 O2- 0.0201(13) 0.0241(14) 0.0197(13) 0.0047(11) 0.0095(10) -0.0008(10)
O6 O2- 0.0361(18) 0.0222(14) 0.0330(16) -0.0122(13) 0.0056(14) -0.0031(13)
#End of data_92641-ICSD


