data_181518-ICSD
#?2014 by Fachinformationszentrum Karlsruhe, and the U.S. Secretary of 
#Commerce on behalf of the United States.  All rights reserved.
_database_code_ICSD                181518
_audit_creation_date               2012/02/01
_audit_update_record               2012/08/01
_chemical_name_systematic          'Trisilver Antimony Trisulfide'
_chemical_formula_structural       'Ag3 Sb S3'
_chemical_formula_sum              'Ag3 S3 Sb1'
_chemical_name_mineral             Pyrargyrite
_publ_section_title
;
The role of silver in the crystal structure of pyrargirite: single 
crystal X-ray diffraction study
;
loop_
_citation_id
_citation_journal_abbrev
_citation_year
_citation_journal_volume
_citation_journal_issue
_citation_page_first
_citation_page_last
_citation_journal_id_ASTM
primary 'Journal of Geosciences' 2010 55 2 161 167 JGOEBM
_publ_author_name                  'Laufek, F.;Sejkora, J.;Dusek, M.'
_cell_length_a                     11.0464(3)
_cell_length_b                     11.0464(3)
_cell_length_c                     8.7211(2)
_cell_angle_alpha                  90.
_cell_angle_beta                   90.
_cell_angle_gamma                  120.
_cell_volume                       921.6
_cell_formula_units_Z              6
_symmetry_space_group_name_H-M     'R 3 c H'
_symmetry_Int_Tables_number        161
_refine_ls_R_factor_all            .0112
loop_
_symmetry_equiv_pos_site_id
_symmetry_equiv_pos_as_xyz
  1	'-x+y, y, z+.5'
  2	'x, x-y, z+.5'
  3	'-y, -x, z+.5'
  4	'-x+y, -x, z'
  5	'-y, x-y, z'
  6	'x, y, z'
  7	'-x+y+.6666, y+.3333, z+.8333'
  8	'-x+y+.3333, y+.6666, z+.1666'
  9	'x+.6666, x-y+.3333, z+.8333'
 10	'x+.3333, x-y+.6666, z+.1666'
 11	'-y+.6666, -x+.3333, z+.8333'
 12	'-y+.3333, -x+.6666, z+.1666'
 13	'-x+y+.6666, -x+.3333, z+.3333'
 14	'-x+y+.3333, -x+.6666, z+.6666'
 15	'-y+.6666, x-y+.3333, z+.3333'
 16	'-y+.3333, x-y+.6666, z+.6666'
 17	'x+.6666, y+.3333, z+.3333'
 18	'x+.3333, y+.6666, z+.6666'
loop_
_atom_type_symbol
_atom_type_oxidation_number
Ag1+	1
S2-	-2
Sb3+	3
loop_
_atom_site_label
_atom_site_type_symbol
_atom_site_symmetry_multiplicity
_atom_site_Wyckoff_symbol
_atom_site_fract_x
_atom_site_fract_y
_atom_site_fract_z
_atom_site_occupancy
_atom_site_attached_hydrogens
_atom_site_U_iso_or_equiv
Sb1 Sb3+ 6 a 0 0 0 1. 0 0.0197(1) 
Ag1 Ag1+ 18 b 0.2469(3) 0.3031(2) 0.2184(4) 1. 0 0.0727(3) 
S1 S2- 18 b 0.2215(4) 0.1007(4) 0.3609(5) 1. 0 0.0233(4) 

loop_
_atom_site_aniso_label
_atom_site_aniso_type_symbol
_atom_site_aniso_U_11
_atom_site_aniso_U_22
_atom_site_aniso_U_33
_atom_site_aniso_U_12
_atom_site_aniso_U_13
_atom_site_aniso_U_23
Sb1 Sb3+ 0.0207(2) 0.0207(2) 0.0178(2) 0.0103(1) 0. 0.
Ag1 Ag1+ 0.0986(4) 0.0520(3) 0.0677(3) 0.0378(3) 0.0020(3) 0.0310(3)
S1 S2- 0.0188(5) 0.0213(4) 0.0281(5) 0.0089(3) 0.0016(4) 0.0010(3)
#End of data_181518-ICSD


