data_48169-ICSD
#?2014 by Fachinformationszentrum Karlsruhe, and the U.S. Secretary of 
#Commerce on behalf of the United States.  All rights reserved.
_database_code_ICSD                48169
_audit_creation_date               1984/12/31
_chemical_name_systematic          'Pentapotassium Thallium(III) Oxide'
_chemical_formula_structural       'K5 (Tl O4)'
_chemical_formula_sum              'K5 O4 Tl1'
_publ_section_title
;
Das erste Oxid vom Formeltyp K5 (M O4): K5 (Tl O4)
;
loop_
_citation_id
_citation_journal_abbrev
_citation_year
_citation_journal_volume
_citation_page_first
_citation_page_last
_citation_journal_id_ASTM
primary 'Zeitschrift fuer Anorganische und Allgemeine Chemie (1950) (DE)'
 1984 517 67 74 ZAACAB
_publ_author_name                  'Koehler, J.;Hoppe, R.'
_cell_length_a                     11.704(3)
_cell_length_b                     6.861(3)
_cell_length_c                     20.792(5)
_cell_angle_alpha                  90.
_cell_angle_beta                   90.
_cell_angle_gamma                  90.
_cell_volume                       1669.62
_cell_formula_units_Z              8
_symmetry_space_group_name_H-M     'P b c a'
_symmetry_Int_Tables_number        61
_refine_ls_R_factor_all            .0787
loop_
_symmetry_equiv_pos_site_id
_symmetry_equiv_pos_as_xyz
  1	'x+.5, y, -z+.5'
  2	'x, -y+.5, z+.5'
  3	'-x+.5, y+.5, z'
  4	'-x, -y, -z'
  5	'-x+.5, -y, z+.5'
  6	'-x, y+.5, -z+.5'
  7	'x+.5, -y+.5, -z'
  8	'x, y, z'
loop_
_atom_type_symbol
_atom_type_oxidation_number
K1+	1
O2-	-2
Tl3+	3
loop_
_atom_site_label
_atom_site_type_symbol
_atom_site_symmetry_multiplicity
_atom_site_Wyckoff_symbol
_atom_site_fract_x
_atom_site_fract_y
_atom_site_fract_z
_atom_site_occupancy
_atom_site_attached_hydrogens
_atom_site_U_iso_or_equiv
Tl1 Tl3+ 8 c 0.0366(1) 0.1783(2) 0.1234(1) 1. 0 0 
K1 K1+ 8 c 0.1712(8) 0.1032(9) 0.8270(4) 1. 0 0 
K2 K1+ 8 c 0.0708(9) 0.0875(14) 0.4343(5) 1. 0 0 
K3 K1+ 8 c 0.4132(9) 0.1121(14) 0.7488(5) 1. 0 0 
K4 K1+ 8 c 0.3449(8) 0.0875(15) 0.5023(4) 1. 0 0 
K5 K1+ 8 c 0.2999(7) 0.0777(13) 0.1374(4) 1. 0 0 
O1 O2- 8 c 0.1218(24) 0.2656(37) 0.2098(15) 1. 0 0.0162(87) 
O2 O2- 8 c 0.3569(17) 0.2290(35) 0.8780(22) 1. 0 0.0179(60) 
O3 O2- 8 c 0.4538(19) 0.1245(35) 0.6208(12) 1. 0 0.0058(61) 
O4 O2- 8 c 0.1342(23) 0.2098(44) 0.5469(15) 1. 0 0.0144(74) 

loop_
_atom_site_aniso_label
_atom_site_aniso_type_symbol
_atom_site_aniso_U_11
_atom_site_aniso_U_22
_atom_site_aniso_U_33
_atom_site_aniso_U_12
_atom_site_aniso_U_13
_atom_site_aniso_U_23
Tl1 Tl3+ 0.0075(6) 0.0084(11) 0.0097(9) 0.0017(11) 0.0018(10) -.0009(10)
K1 K1+ 0.0124(49) 0.0383(67) 0.0120(46) 0.0104(44) -.0079(41) -.0083(47)
K2 K1+ 0.0585(75) 0.0185(56) 0.0227(52) 0.0049(46) -.0192(51) 0.0129(59)
K3 K1+ 0.0249(52) 0.0304(65) 0.0205(49) -.0078(48) -.0015(44) -.0059(48)
K4 K1+ 0.0105(46) 0.0327(64) 0.0219(52) 0.0021(48) 0.0073(44) 0.0073(44)
K5 K1+ 0.0110(41) 0.0102(47) 0.0316(64) 0.0081(45) 0.0099(45) 0.0052(42)
#End of data_48169-ICSD


