data_410192-ICSD
#?2014 by Fachinformationszentrum Karlsruhe, and the U.S. Secretary of 
#Commerce on behalf of the United States.  All rights reserved.
_database_code_ICSD                410192
_audit_creation_date               2001/07/16
_chemical_name_systematic          'Strontium Tetrachlorozincate'
_chemical_formula_structural       'Sr (Zn Cl4)'
_chemical_formula_sum              'Cl4 Sr1 Zn1'
_publ_section_title
;
Synthese und Kristallstrukturen der Tetrachlorozinkate Sr Zn Cl4 und 
Ba Zn Cl4
;
loop_
_citation_id
_citation_journal_abbrev
_citation_year
_citation_journal_volume
_citation_page_first
_citation_page_last
_citation_journal_id_ASTM
primary 'Zeitschrift fuer Anorganische und Allgemeine Chemie (1950) (DE)'
 1999 625 507 510 ZAACAB
_publ_author_name
;
Wickleder, C.;Masselmann, S.;Meyer, G.
;
_cell_length_a                     6.4811(7)
_cell_length_b                     6.4811(7)
_cell_length_c                     14.305(2)
_cell_angle_alpha                  90.
_cell_angle_beta                   90.
_cell_angle_gamma                  90.
_cell_volume                       600.88
_cell_formula_units_Z              4
_symmetry_space_group_name_H-M     'I 41/a Z'
_symmetry_Int_Tables_number        88
_refine_ls_R_factor_all            .0259
loop_
_symmetry_equiv_pos_site_id
_symmetry_equiv_pos_as_xyz
  1	'-y+.75, x+.75, -z+.75'
  2	'y+.25, -x+.75, -z+.75'
  3	'x, y+.5, -z'
  4	'-x, -y, -z'
  5	'y+.25, -x+.25, z+.25'
  6	'-y+.75, x+.25, z+.25'
  7	'-x, -y+.5, z'
  8	'x, y, z'
  9	'-y+.25, x+.25, -z+.25'
 10	'y+.75, -x+.25, -z+.25'
 11	'x+.5, y, -z+.5'
 12	'-x+.5, -y+.5, -z+.5'
 13	'y+.75, -x+.75, z+.75'
 14	'-y+.25, x+.75, z+.75'
 15	'-x+.5, -y, z+.5'
 16	'x+.5, y+.5, z+.5'
loop_
_atom_type_symbol
_atom_type_oxidation_number
Cl1-	-1
Sr2+	2
Zn2+	2
loop_
_atom_site_label
_atom_site_type_symbol
_atom_site_symmetry_multiplicity
_atom_site_Wyckoff_symbol
_atom_site_fract_x
_atom_site_fract_y
_atom_site_fract_z
_atom_site_occupancy
_atom_site_attached_hydrogens
Sr1 Sr2+ 4 a 0 0.25 0.125 1. 0 
Cl1 Cl1- 16 f 0.24110(8) 0.59301(7) 0.04283(4) 1. 0 
Zn1 Zn2+ 4 b 0.5 0.75 0.125 1. 0 

loop_
_atom_site_aniso_label
_atom_site_aniso_type_symbol
_atom_site_aniso_U_11
_atom_site_aniso_U_22
_atom_site_aniso_U_33
_atom_site_aniso_U_12
_atom_site_aniso_U_13
_atom_site_aniso_U_23
Sr1 Sr2+ 0.0073(2) 0.0073(2) 0.0067(3) 0 0 0
Cl1 Cl1- 0.0107(3) 0.0095(3) 0.0104(3) -.0031(2) -.0035(2) 0.0017(2)
Zn1 Zn2+ 0.0069(2) 0.0069(2) 0.0087(3) 0 0 0
#End of data_410192-ICSD


