data_159519-ICSD
#?2014 by Fachinformationszentrum Karlsruhe, and the U.S. Secretary of 
#Commerce on behalf of the United States.  All rights reserved.
_database_code_ICSD                159519
_audit_creation_date               2008/08/01
_audit_update_record               2013/08/01
_chemical_name_systematic          'Magnesium Catena-silicate'
_chemical_formula_structural       'Mg (Si O3)'
_chemical_formula_sum              'Mg1 O3 Si1'
_chemical_name_mineral             Clinopyroxene
_publ_section_title
;
Model pyroxenes II: Structural variation as a function of tetrahedral 
rotation
;
loop_
_citation_id
_citation_journal_abbrev
_citation_year
_citation_journal_volume
_citation_page_first
_citation_page_last
_citation_journal_id_ASTM
primary 'American Mineralogist' 2004 89 614 628 AMMIAY
_publ_author_name                  'Thompson, R.M.;Downs, R.T.'
_cell_length_a                     6.6332
_cell_length_b                     6
_cell_length_c                     3.464
_cell_angle_alpha                  90
_cell_angle_beta                   100.0
_cell_angle_gamma                  90
_cell_volume                       135.77
_cell_formula_units_Z              8
_symmetry_space_group_name_H-M     'C 1 2/c 1'
_symmetry_Int_Tables_number        15
loop_
_symmetry_equiv_pos_site_id
_symmetry_equiv_pos_as_xyz
  1	'x, -y, z+.5'
  2	'-x, -y, -z'
  3	'-x, y, -z+.5'
  4	'x, y, z'
  5	'x+.5, -y+.5, z+.5'
  6	'-x+.5, -y+.5, -z'
  7	'-x+.5, y+.5, -z+.5'
  8	'x+.5, y+.5, z'
loop_
_atom_type_symbol
_atom_type_oxidation_number
Mg2+	2
O2-	-2
Si4+	4
loop_
_atom_site_label
_atom_site_type_symbol
_atom_site_symmetry_multiplicity
_atom_site_Wyckoff_symbol
_atom_site_fract_x
_atom_site_fract_y
_atom_site_fract_z
_atom_site_occupancy
_atom_site_attached_hydrogens
Mg1 Mg2+ 4 e 0.00000 0.91667 0.25000 1. 0 
Mg2 Mg2+ 4 e 0.00000 0.25000 0.25000 1. 0 
Si1 Si4+ 8 f 0.31250 0.08333 0.18750 1. 0 
O1 O2- 8 f 0.12500 0.08333 0.12500 1. 0 
O2 O2- 8 f 0.37500 0.25000 0.37500 1. 0 
O3 O2- 8 f 0.37500 0.08333 0.87500 1. 0 

#End of data_159519-ICSD


