data_409644-ICSD
#?2014 by Fachinformationszentrum Karlsruhe, and the U.S. Secretary of 
#Commerce on behalf of the United States.  All rights reserved.
_database_code_ICSD                409644
_audit_creation_date               2003/10/01
_chemical_name_systematic          'Dicalcium Trinitridovanadate'
_chemical_formula_structural       'Ca2 (V N3)'
_chemical_formula_sum              'Ca2 N3 V1'
_publ_section_title
;
Crystal structure of dicalcium trinitrido monovanadate(V), Ca2 (V N3)
;
loop_
_citation_id
_citation_journal_abbrev
_citation_year
_citation_journal_volume
_citation_page_first
_citation_page_last
_citation_journal_id_ASTM
primary 'Zeitschrift fuer Kristallographie - New Crystal Structures'
 2002 217 469 469 ZKNSFT
_publ_author_name
;
Zherebtsov, D.A.;Aksel'rud, L.G.;Niewa, R.
;
_cell_length_a                     5.59538(5)
_cell_length_b                     10.41027(1)
_cell_length_c                     11.62243(1)
_cell_angle_alpha                  90.
_cell_angle_beta                   92.342(1)
_cell_angle_gamma                  90.
_cell_volume                       676.43
_cell_formula_units_Z              8
_symmetry_space_group_name_H-M     'C 1 2/c 1'
_symmetry_Int_Tables_number        15
_refine_ls_R_factor_all            .066
loop_
_symmetry_equiv_pos_site_id
_symmetry_equiv_pos_as_xyz
  1	'x, -y, z+.5'
  2	'-x, -y, -z'
  3	'-x, y, -z+.5'
  4	'x, y, z'
  5	'x+.5, -y+.5, z+.5'
  6	'-x+.5, -y+.5, -z'
  7	'-x+.5, y+.5, -z+.5'
  8	'x+.5, y+.5, z'
loop_
_atom_type_symbol
_atom_type_oxidation_number
Ca2+	2
N3-	-3
V5+	5
loop_
_atom_site_label
_atom_site_type_symbol
_atom_site_symmetry_multiplicity
_atom_site_Wyckoff_symbol
_atom_site_fract_x
_atom_site_fract_y
_atom_site_fract_z
_atom_site_occupancy
_atom_site_attached_hydrogens
_atom_site_U_iso_or_equiv
V1 V5+ 8 f 0.2345(2) 0.00014(1) 0.33753(1) 1. 0 0.0092(3) 
Ca1 Ca2+ 8 f 0.7296(2) 0.11210(1) 0.42242(1) 1. 0 0.0094(4) 
Ca2 Ca2+ 8 f 0.2631(3) 0.20381(1) 0.64886(1) 1. 0 0.0094(4) 
N1 N3- 8 f 0.2866(8) 0.0937(4) 0.4604(3) 1. 0 0.0084(4) 
N2 N3- 8 f 0.8164(8) 0.1671(4) 0.6302(4) 1. 0 0.0084(4) 
N3 N3- 4 e 0 0.5067(6) 0.25 1. 0 0.0084(4) 
N4 N3- 4 e 0 0.0896(6) 0.25 1. 0 0.0084(4) 

#End of data_409644-ICSD


