data_166898-ICSD
#?2014 by Fachinformationszentrum Karlsruhe, and the U.S. Secretary of 
#Commerce on behalf of the United States.  All rights reserved.
_database_code_ICSD                166898
_audit_creation_date               2010/08/01
_chemical_name_systematic          'Aluminium Phosphate(V)'
_chemical_formula_structural       'Al (P O4)'
_chemical_formula_sum              'Al1 O4 P1'
_publ_section_title
;
Novel large-pore aluminophosphate molecular sieve STA-15 prepared 
using the tetrapropylammonium cation as a structure directing agent
;
loop_
_citation_id
_citation_journal_abbrev
_citation_year
_citation_journal_volume
_citation_journal_issue
_citation_page_first
_citation_page_last
_citation_journal_id_ASTM
primary 'Chemistry of Materials' 2010 22 2 338 346 CMATEX
_publ_author_name
;
Han Zhongxia;Picone, A.L.;Slawin, A.M.Z.;Seymour, v.R.;Ashbrook, 
S.E.;Zhou Wuzong;Thompson, S.P.;Parker, J.E.;Wright, P.A.
;
_cell_length_a                     15.01692
_cell_length_b                     28.23954
_cell_length_c                     8.626854
_cell_angle_alpha                  90
_cell_angle_beta                   90
_cell_angle_gamma                  90
_cell_volume                       3658.4
_cell_formula_units_Z              32
_symmetry_space_group_name_H-M     'P 1'
_symmetry_Int_Tables_number        1
loop_
_symmetry_equiv_pos_site_id
_symmetry_equiv_pos_as_xyz
  1	'x, y, z'
loop_
_atom_type_symbol
_atom_type_oxidation_number
Al3+	3
O2-	-2
P5+	5
loop_
_atom_site_label
_atom_site_type_symbol
_atom_site_symmetry_multiplicity
_atom_site_Wyckoff_symbol
_atom_site_fract_x
_atom_site_fract_y
_atom_site_fract_z
_atom_site_occupancy
_atom_site_attached_hydrogens
O1 O2- 1 a 0.884261 0.732302 0.113715 1. 0 
O2 O2- 1 a 0.384261 0.232302 0.613715 1. 0 
O3 O2- 1 a 0.115739 0.267698 0.113715 1. 0 
O4 O2- 1 a 0.615739 0.767698 0.613715 1. 0 
O5 O2- 1 a 0.384261 0.767698 0.113715 1. 0 
O6 O2- 1 a 0.884261 0.267698 0.613715 1. 0 
O7 O2- 1 a 0.615739 0.232302 0.113715 1. 0 
O8 O2- 1 a 0.115739 0.732302 0.613715 1. 0 
O9 O2- 1 a 0.994613 0.798496 0.085944 1. 0 
O10 O2- 1 a 0.494613 0.298496 0.585944 1. 0 
O11 O2- 1 a 0.005387 0.201504 0.085944 1. 0 
O12 O2- 1 a 0.505387 0.701504 0.585944 1. 0 
O13 O2- 1 a 0.494613 0.701504 0.085944 1. 0 
O14 O2- 1 a 0.994613 0.201504 0.585944 1. 0 
O15 O2- 1 a 0.505387 0.298496 0.085944 1. 0 
O16 O2- 1 a 0.005387 0.798496 0.585944 1. 0 
O17 O2- 1 a 0.83198 0.814841 0.067007 1. 0 
O18 O2- 1 a 0.33198 0.314841 0.567007 1. 0 
O19 O2- 1 a 0.16802 0.185159 0.067007 1. 0 
O20 O2- 1 a 0.66802 0.685159 0.567007 1. 0 
O21 O2- 1 a 0.33198 0.685159 0.067007 1. 0 
O22 O2- 1 a 0.83198 0.185159 0.567007 1. 0 
O23 O2- 1 a 0.66802 0.314841 0.067007 1. 0 
O24 O2- 1 a 0.16802 0.814841 0.567007 1. 0 
O25 O2- 1 a 0.907834 0.770318 -0.1436 1. 0 
O26 O2- 1 a 0.407834 0.270318 0.3564 1. 0 
O27 O2- 1 a 0.092166 0.229682 -0.1436 1. 0 
O28 O2- 1 a 0.592166 0.729682 0.3564 1. 0 
O29 O2- 1 a 0.407834 0.729682 -0.1436 1. 0 
O30 O2- 1 a 0.907834 0.229682 0.3564 1. 0 
O31 O2- 1 a 0.592166 0.270318 -0.1436 1. 0 
O32 O2- 1 a 0.092166 0.770318 0.3564 1. 0 
O33 O2- 1 a 0.882487 0.722499 0.57511 1. 0 
O34 O2- 1 a 0.382487 0.222499 0.07511 1. 0 
O35 O2- 1 a 0.117513 0.277501 0.57511 1. 0 
O36 O2- 1 a 0.617513 0.777501 0.07511 1. 0 
O37 O2- 1 a 0.382487 0.777501 0.57511 1. 0 
O38 O2- 1 a 0.882487 0.277501 0.07511 1. 0 
O39 O2- 1 a 0.617513 0.222499 0.57511 1. 0 
O40 O2- 1 a 0.117513 0.722499 0.07511 1. 0 
O41 O2- 1 a 0.832393 0.638663 0.60642 1. 0 
O42 O2- 1 a 0.332393 0.138663 0.10642 1. 0 
O43 O2- 1 a 0.167607 0.361337 0.60642 1. 0 
O44 O2- 1 a 0.667607 0.861337 0.10642 1. 0 
O45 O2- 1 a 0.332393 0.861337 0.60642 1. 0 
O46 O2- 1 a 0.832393 0.361337 0.10642 1. 0 
O47 O2- 1 a 0.667607 0.138663 0.60642 1. 0 
O48 O2- 1 a 0.167607 0.638663 0.10642 1. 0 
O49 O2- 1 a 0.897849 0.665358 0.356533 1. 0 
O50 O2- 1 a 0.397849 0.165358 -0.143467 1. 0 
O51 O2- 1 a 0.102151 0.334642 0.356533 1. 0 
O52 O2- 1 a 0.602151 0.834642 -0.143467 1. 0 
O53 O2- 1 a 0.397849 0.834642 0.356533 1. 0 
O54 O2- 1 a 0.897849 0.334642 -0.143467 1. 0 
O55 O2- 1 a 0.602151 0.165358 0.356533 1. 0 
O56 O2- 1 a 0.102151 0.665358 -0.143467 1. 0 
O57 O2- 1 a 0.006083 0.655891 0.089755 1. 0 
O58 O2- 1 a 0.506083 0.155891 0.589755 1. 0 
O59 O2- 1 a 0.993917 0.344109 0.089755 1. 0 
O60 O2- 1 a 0.493917 0.844109 0.589755 1. 0 
O61 O2- 1 a 0.506083 0.844109 0.089755 1. 0 
O62 O2- 1 a 0.006083 0.344109 0.589755 1. 0 
O63 O2- 1 a 0.493917 0.155891 0.089755 1. 0 
O64 O2- 1 a 0.993917 0.655891 0.589755 1. 0 
O65 O2- 1 a 0.819122 0.637386 0.072886 1. 0 
O66 O2- 1 a 0.319122 0.137386 0.572886 1. 0 
O67 O2- 1 a 0.180878 0.362614 0.072886 1. 0 
O68 O2- 1 a 0.680878 0.862614 0.572886 1. 0 
O69 O2- 1 a 0.319122 0.862614 0.072886 1. 0 
O70 O2- 1 a 0.819122 0.362614 0.572886 1. 0 
O71 O2- 1 a 0.680878 0.137386 0.072886 1. 0 
O72 O2- 1 a 0.180878 0.637386 0.572886 1. 0 
O73 O2- 1 a 0.677682 0.681812 0.109297 1. 0 
O74 O2- 1 a 0.177682 0.181812 0.609297 1. 0 
O75 O2- 1 a 0.322318 0.318188 0.109297 1. 0 
O76 O2- 1 a 0.822318 0.818188 0.609297 1. 0 
O77 O2- 1 a 0.177682 0.818188 0.109297 1. 0 
O78 O2- 1 a 0.677682 0.318188 0.609297 1. 0 
O79 O2- 1 a 0.822318 0.181812 0.109297 1. 0 
O80 O2- 1 a 0.322318 0.681812 0.609297 1. 0 
O81 O2- 1 a 0.708504 0.642039 -0.143447 1. 0 
O82 O2- 1 a 0.208504 0.142039 0.356553 1. 0 
O83 O2- 1 a 0.291496 0.357961 -0.143447 1. 0 
O84 O2- 1 a 0.791496 0.857961 0.356553 1. 0 
O85 O2- 1 a 0.208504 0.857961 -0.143447 1. 0 
O86 O2- 1 a 0.708504 0.357961 0.356553 1. 0 
O87 O2- 1 a 0.791496 0.142039 -0.143447 1. 0 
O88 O2- 1 a 0.291496 0.642039 0.356553 1. 0 
O89 O2- 1 a 0.675868 0.593315 0.089551 1. 0 
O90 O2- 1 a 0.175868 0.093315 0.589551 1. 0 
O91 O2- 1 a 0.324132 0.406685 0.089551 1. 0 
O92 O2- 1 a 0.824132 0.906685 0.589551 1. 0 
O93 O2- 1 a 0.175868 0.906685 0.089551 1. 0 
O94 O2- 1 a 0.675868 0.406685 0.589551 1. 0 
O95 O2- 1 a 0.824132 0.093315 0.089551 1. 0 
O96 O2- 1 a 0.324132 0.593315 0.589551 1. 0 
O97 O2- 1 a 0.490095 0.569848 0.097138 1. 0 
O98 O2- 1 a 0.990095 0.069848 0.597138 1. 0 
O99 O2- 1 a 0.509905 0.430152 0.097138 1. 0 
O100 O2- 1 a 0.009905 0.930152 0.597138 1. 0 
O101 O2- 1 a 0.990095 0.930152 0.097138 1. 0 
O102 O2- 1 a 0.490095 0.430152 0.597138 1. 0 
O103 O2- 1 a 0.009905 0.069848 0.097138 1. 0 
O104 O2- 1 a 0.509905 0.569848 0.597138 1. 0 
O105 O2- 1 a 0.380016 0.502437 0.089618 1. 0 
O106 O2- 1 a 0.880016 0.002437 0.589617 1. 0 
O107 O2- 1 a 0.619984 0.497563 0.089618 1. 0 
O108 O2- 1 a 0.119984 0.997563 0.589617 1. 0 
O109 O2- 1 a 0.880016 0.997563 0.089618 1. 0 
O110 O2- 1 a 0.380016 0.497563 0.589617 1. 0 
O111 O2- 1 a 0.119984 0.002437 0.089618 1. 0 
O112 O2- 1 a 0.619984 0.502437 0.589617 1. 0 
O113 O2- 1 a 0.326343 0.585005 0.093698 1. 0 
O114 O2- 1 a 0.826343 0.085005 0.593698 1. 0 
O115 O2- 1 a 0.673657 0.414995 0.093698 1. 0 
O116 O2- 1 a 0.173657 0.914995 0.593698 1. 0 
O117 O2- 1 a 0.826343 0.914995 0.093698 1. 0 
O118 O2- 1 a 0.326343 0.414995 0.593698 1. 0 
O119 O2- 1 a 0.173657 0.085005 0.093698 1. 0 
O120 O2- 1 a 0.673657 0.585005 0.593698 1. 0 
O121 O2- 1 a 0.402212 0.553597 -0.141634 1. 0 
O122 O2- 1 a 0.902212 0.053597 0.358366 1. 0 
O123 O2- 1 a 0.597788 0.446403 -0.141634 1. 0 
O124 O2- 1 a 0.097788 0.946403 0.358366 1. 0 
O125 O2- 1 a 0.902212 0.946403 -0.141634 1. 0 
O126 O2- 1 a 0.402212 0.446403 0.358366 1. 0 
O127 O2- 1 a 0.097788 0.053597 -0.141634 1. 0 
O128 O2- 1 a 0.597788 0.553597 0.358366 1. 0 
Al1 Al3+ 1 a 0.903856 0.777522 0.656888 1. 0 
Al2 Al3+ 1 a 0.403856 0.277522 0.156888 1. 0 
Al3 Al3+ 1 a 0.096144 0.222478 0.656888 1. 0 
Al4 Al3+ 1 a 0.596144 0.722478 0.156888 1. 0 
Al5 Al3+ 1 a 0.403856 0.722478 0.656888 1. 0 
Al6 Al3+ 1 a 0.903856 0.222478 0.156888 1. 0 
Al7 Al3+ 1 a 0.596144 0.277522 0.656888 1. 0 
Al8 Al3+ 1 a 0.096144 0.777522 0.156888 1. 0 
Al9 Al3+ 1 a 0.901396 0.672516 0.157491 1. 0 
Al10 Al3+ 1 a 0.401396 0.172516 0.657491 1. 0 
Al11 Al3+ 1 a 0.098604 0.327484 0.157491 1. 0 
Al12 Al3+ 1 a 0.598604 0.827484 0.657491 1. 0 
Al13 Al3+ 1 a 0.401396 0.827484 0.157491 1. 0 
Al14 Al3+ 1 a 0.901396 0.327484 0.657491 1. 0 
Al15 Al3+ 1 a 0.598604 0.172516 0.157491 1. 0 
Al16 Al3+ 1 a 0.098604 0.672516 0.657491 1. 0 
Al17 Al3+ 1 a 0.596857 0.553948 0.15818 1. 0 
Al18 Al3+ 1 a 0.096857 0.053948 0.65818 1. 0 
Al19 Al3+ 1 a 0.403143 0.446052 0.15818 1. 0 
Al20 Al3+ 1 a 0.903143 0.946052 0.65818 1. 0 
Al21 Al3+ 1 a 0.096857 0.946052 0.15818 1. 0 
Al22 Al3+ 1 a 0.596857 0.446052 0.65818 1. 0 
Al23 Al3+ 1 a 0.903143 0.053948 0.15818 1. 0 
Al24 Al3+ 1 a 0.403143 0.553948 0.65818 1. 0 
Al25 Al3+ 1 a 0.279757 0.637562 0.15731 1. 0 
Al26 Al3+ 1 a 0.779757 0.137562 0.65731 1. 0 
Al27 Al3+ 1 a 0.720243 0.362438 0.15731 1. 0 
Al28 Al3+ 1 a 0.220243 0.862438 0.65731 1. 0 
Al29 Al3+ 1 a 0.779757 0.862438 0.15731 1. 0 
Al30 Al3+ 1 a 0.279757 0.362438 0.65731 1. 0 
Al31 Al3+ 1 a 0.220243 0.137562 0.15731 1. 0 
Al32 Al3+ 1 a 0.720243 0.637562 0.65731 1. 0 
P1 P5+ 1 a 0.904658 0.778967 0.031 1. 0 
P2 P5+ 1 a 0.404658 0.278967 0.531 1. 0 
P3 P5+ 1 a 0.095342 0.221033 0.031 1. 0 
P4 P5+ 1 a 0.595342 0.721033 0.531 1. 0 
P5 P5+ 1 a 0.404658 0.721033 0.031 1. 0 
P6 P5+ 1 a 0.904658 0.221033 0.531 1. 0 
P7 P5+ 1 a 0.595342 0.278967 0.031 1. 0 
P8 P5+ 1 a 0.095342 0.778967 0.531 1. 0 
P9 P5+ 1 a 0.901961 0.670876 0.531865 1. 0 
P10 P5+ 1 a 0.401961 0.170876 0.031865 1. 0 
P11 P5+ 1 a 0.098039 0.329124 0.531865 1. 0 
P12 P5+ 1 a 0.598039 0.829124 0.031865 1. 0 
P13 P5+ 1 a 0.401961 0.829124 0.531865 1. 0 
P14 P5+ 1 a 0.901961 0.329124 0.031865 1. 0 
P15 P5+ 1 a 0.598039 0.170876 0.531865 1. 0 
P16 P5+ 1 a 0.098039 0.670876 0.031865 1. 0 
P17 P5+ 1 a 0.719933 0.638592 0.031588 1. 0 
P18 P5+ 1 a 0.219933 0.138592 0.531588 1. 0 
P19 P5+ 1 a 0.280067 0.361408 0.031588 1. 0 
P20 P5+ 1 a 0.780067 0.861408 0.531588 1. 0 
P21 P5+ 1 a 0.219933 0.861408 0.031588 1. 0 
P22 P5+ 1 a 0.719933 0.361408 0.531588 1. 0 
P23 P5+ 1 a 0.780067 0.138592 0.031588 1. 0 
P24 P5+ 1 a 0.280067 0.638592 0.531588 1. 0 
P25 P5+ 1 a 0.400052 0.552708 0.034786 1. 0 
P26 P5+ 1 a 0.900052 0.052708 0.534786 1. 0 
P27 P5+ 1 a 0.599948 0.447292 0.034786 1. 0 
P28 P5+ 1 a 0.099948 0.947292 0.534786 1. 0 
P29 P5+ 1 a 0.900052 0.947292 0.034786 1. 0 
P30 P5+ 1 a 0.400052 0.447292 0.534786 1. 0 
P31 P5+ 1 a 0.099948 0.052708 0.034786 1. 0 
P32 P5+ 1 a 0.599948 0.552708 0.534786 1. 0 

#End of data_166898-ICSD


