data_34465-ICSD
#?2014 by Fachinformationszentrum Karlsruhe, and the U.S. Secretary of 
#Commerce on behalf of the United States.  All rights reserved.
_database_code_ICSD                34465
_audit_creation_date               1980/01/01
_audit_update_record               2007/04/01
_chemical_name_systematic          'Sodium Bromide Dihydrate'
_chemical_formula_structural       'Na Br (H2 O)2'
_chemical_formula_sum              'H4 Br1 Na1 O2'
_publ_section_title
;
Structure protonique de Na Br (H2 O)2
;
loop_
_citation_id
_citation_journal_abbrev
_citation_year
_citation_journal_volume
_citation_page_first
_citation_page_last
_citation_journal_id_ASTM
primary
;
Bulletin de la Societe Francaise de Mineralogie et de 
Cristallographie (72,1949-100,1977)
;
 1962 85 290 292 BUFCAE
2
;
Bulletin de la Societe Francaise de Mineralogie et de 
Cristallographie (72,1949-100,1977)
;
 1962 85 282 289 BUFCAE
_publ_author_name
;
van Meerssche, M.;Dereppe, J.M.;Lobo, P.W.
;
_cell_length_a                     6.57(3)
_cell_length_b                     10.38(5)
_cell_length_c                     6.78(3)
_cell_angle_alpha                  90.
_cell_angle_beta                   113.5
_cell_angle_gamma                  90.
_cell_volume                       424.02
_cell_formula_units_Z              4
_symmetry_space_group_name_H-M     'P 1 21/c 1'
_symmetry_Int_Tables_number        14
_refine_ls_R_factor_all            .114
loop_
_symmetry_equiv_pos_site_id
_symmetry_equiv_pos_as_xyz
  1	'x, -y+.5, z+.5'
  2	'-x, -y, -z'
  3	'-x, y+.5, -z+.5'
  4	'x, y, z'
loop_
_atom_type_symbol
_atom_type_oxidation_number
Br1-	-1
H1+	1
Na1+	1
O2-	-2
loop_
_atom_site_label
_atom_site_type_symbol
_atom_site_symmetry_multiplicity
_atom_site_Wyckoff_symbol
_atom_site_fract_x
_atom_site_fract_y
_atom_site_fract_z
_atom_site_occupancy
_atom_site_attached_hydrogens
_atom_site_B_iso_or_equiv
Na1 Na1+ 4 e 0.4845 0.1679 0.0424 1. 0 3.15 
Br1 Br1- 4 e 0.2035 0.1191 0.288 1. 0 3.19 
O1 O2- 4 e 0.2838 0.0078 0.7805 1. 0 3.47 
O2 O2- 4 e 0.7093 0.1868 0.8239 1. 0 3.59 
H1 H1+ 4 e 0.269 0.029 0.635 1. 0 0 
H2 H1+ 4 e 0.129 0.983 0.765 1. 0 0 
H3 H1+ 4 e 0.741 0.402 0.292 1. 0 0 
H4 H1+ 4 e 0.861 0.279 0.425 1. 0 0 

#End of data_34465-ICSD


