data_619291-ICSD
#?2014 by Fachinformationszentrum Karlsruhe, and the U.S. Secretary of 
#Commerce on behalf of the United States.  All rights reserved.
_database_code_ICSD                619291
_audit_creation_date               2012/02/01
_chemical_name_systematic          'Calcium Gallium Sulfide (1/2/4)'
_chemical_formula_structural       'Ca Ga2 S4'
_chemical_formula_sum              'Ca1 Ga2 S4'
_publ_section_title
;
Luminescence and structural properties of thiogallate phosphors. 
Ce(3+)- and Eu(2+)-activated phosphors. Part I
;
loop_
_citation_id
_citation_journal_abbrev
_citation_year
_citation_journal_volume
_citation_journal_issue
_citation_page_first
_citation_page_last
_citation_journal_id_ASTM
primary 'Journal of the Electrochemical Society' 1972 119 2 230 236 JESOAN
_publ_author_name                  'Peters, T.E.;Baglio, J.A.'
_cell_length_a                     20.087(4)
_cell_length_b                     20.087(4)
_cell_length_c                     12.112(4)
_cell_angle_alpha                  90.
_cell_angle_beta                   90.
_cell_angle_gamma                  90.
_cell_volume                       4887.04
_cell_formula_units_Z              32
_symmetry_space_group_name_H-M     'F d d d Z'
_symmetry_Int_Tables_number        70
loop_
_symmetry_equiv_pos_site_id
_symmetry_equiv_pos_as_xyz
  1	'x+.75, y+.75, -z'
  2	'x+.75, -y, z+.75'
  3	'-x, y+.75, z+.75'
  4	'-x, -y, -z'
  5	'-x+.25, -y+.25, z'
  6	'-x+.25, y, -z+.25'
  7	'x, -y+.25, -z+.25'
  8	'x, y, z'
  9	'x+.75, y+.25, -z+.5'
 10	'x+.25, y+.75, -z+.5'
 11	'x+.25, y+.25, -z'
 12	'x+.75, -y+.5, z+.25'
 13	'x+.25, -y, z+.25'
 14	'x+.25, -y+.5, z+.75'
 15	'-x, y+.25, z+.25'
 16	'-x+.5, y+.75, z+.25'
 17	'-x+.5, y+.25, z+.75'
 18	'-x, -y+.5, -z+.5'
 19	'-x+.5, -y, -z+.5'
 20	'-x+.5, -y+.5, -z'
 21	'-x+.25, -y+.75, z+.5'
 22	'-x+.75, -y+.25, z+.5'
 23	'-x+.75, -y+.75, z'
 24	'-x+.25, y+.5, -z+.75'
 25	'-x+.75, y, -z+.75'
 26	'-x+.75, y+.5, -z+.25'
 27	'x, -y+.75, -z+.75'
 28	'x+.5, -y+.25, -z+.75'
 29	'x+.5, -y+.75, -z+.25'
 30	'x, y+.5, z+.5'
 31	'x+.5, y, z+.5'
 32	'x+.5, y+.5, z'
loop_
_atom_type_symbol
_atom_type_oxidation_number
Ca2+	2
Ga3+	3
S2-	-2
loop_
_atom_site_label
_atom_site_type_symbol
_atom_site_symmetry_multiplicity
_atom_site_Wyckoff_symbol
_atom_site_fract_x
_atom_site_fract_y
_atom_site_fract_z
_atom_site_occupancy
_atom_site_attached_hydrogens
Ca1 Ca2+ 16 e 0.875 0.125 0.125 1. 0 
Ca2 Ca2+ 8 b 0.125 0.125 0.625 1. 0 
Ca3 Ca2+ 8 a 0.125 0.125 0.125 1. 0 
Ga1 Ga3+ 32 h 0.000 0.804 0.164 1. 0 
Ga2 Ga3+ 32 h 0.001 0.238 0.374 1. 0 
S1 S2- 32 h 0.165 0.247 0.005 1. 0 
S2 S2- 32 h 0.164 0.502 0.247 1. 0 
S3 S2- 32 h 0.998 0.344 0.001 1. 0 
S4 S2- 32 h 0.001 0.418 0.266 1. 0 

#End of data_619291-ICSD


