data_83584-ICSD
#?2014 by Fachinformationszentrum Karlsruhe, and the U.S. Secretary of 
#Commerce on behalf of the United States.  All rights reserved.
_database_code_ICSD                83584
_audit_creation_date               1998/06/26
_audit_update_record               2012/02/01
_chemical_name_systematic          'Potassium Pentafluorozirconate'
_chemical_formula_structural       'K (Zr F5)'
_chemical_formula_sum              'F5 K1 Zr1'
_publ_section_title                'Crystal structure of K Zr F5'
loop_
_citation_id
_citation_journal_abbrev
_citation_year
_citation_journal_volume
_citation_page_first
_citation_page_last
_citation_journal_id_ASTM
primary 'European Journal of Solid State Inorganic Chemistry'
 1997 34 283 293 EJSCE5
_publ_author_name
;
Gaumet, V.;El Ghozzi, M.;Avignant, D.
;
_cell_length_a                     7.370(1)
_cell_length_b                     8.461(1)
_cell_length_c                     10.711(1)
_cell_angle_alpha                  75.04(1)
_cell_angle_beta                   71.57(1)
_cell_angle_gamma                  66.13(2)
_cell_volume                       572.89
_cell_formula_units_Z              6
_symmetry_space_group_name_H-M     'P -1'
_symmetry_Int_Tables_number        2
_refine_ls_R_factor_all            .031
loop_
_symmetry_equiv_pos_site_id
_symmetry_equiv_pos_as_xyz
  1	'-x, -y, -z'
  2	'x, y, z'
loop_
_atom_type_symbol
_atom_type_oxidation_number
F1-	-1
K1+	1
Zr4+	4
loop_
_atom_site_label
_atom_site_type_symbol
_atom_site_symmetry_multiplicity
_atom_site_Wyckoff_symbol
_atom_site_fract_x
_atom_site_fract_y
_atom_site_fract_z
_atom_site_occupancy
_atom_site_attached_hydrogens
Zr1 Zr4+ 2 i 0.74054(4) 0.33327(3) 0.43100(2) 1. 0 
Zr2 Zr4+ 2 i 0.71939(4) 0.02720(3) 0.74535(2) 1. 0 
Zr3 Zr4+ 2 i 0.76553(4) 0.65948(3) 0.08088(2) 1. 0 
K1 K1+ 2 i 0.2847(1) 0.49356(8) 0.23305(7) 1. 0 
K2 K1+ 2 i 0.7445(1) 0.15718(9) 0.07169(7) 1. 0 
K3 K1+ 2 i 0.7769(1) 0.8230(2) 0.4202(1) 1. 0 
F1 F1- 2 i 0.5921(3) 0.5573(2) 0.5355(2) 1. 0 
F2 F1- 2 i 0.3716(3) 0.8718(3) 0.4431(2) 1. 0 
F3 F1- 2 i 0.0091(3) 0.1118(2) 0.3866(2) 1. 0 
F4 F1- 2 i 0.1816(3) 0.7589(2) 0.3775(2) 1. 0 
F5 F1- 2 i 0.3908(3) 0.1154(2) 0.8021(2) 1. 0 
F6 F1- 2 i 0.5784(3) 0.2355(2) 0.8610(2) 1. 0 
F7 F1- 2 i 0.6640(3) 0.5120(3) 0.0240(2) 1. 0 
F8 F1- 2 i 0.9403(3) 0.0083(3) 0.8223(2) 1. 0 
F9 F1- 2 i 0.3153(3) 0.4478(3) 0.7230(2) 1. 0 
F10 F1- 2 i 0.9638(3) 0.4231(3) 0.4015(2) 1. 0 
F11 F1- 2 i 0.3265(3) 0.1265(3) 0.0609(2) 1. 0 
F12 F1- 2 i 0.3144(3) 0.7546(3) 0.7012(2) 1. 0 
F13 F1- 2 i 0.9782(3) 0.7215(3) 0.1120(2) 1. 0 
F14 F1- 2 i 0.0080(3) 0.4017(3) 0.1025(2) 1. 0 
F15 F1- 2 i 0.3447(3) 0.1653(3) 0.2821(3) 1. 0 

loop_
_atom_site_aniso_label
_atom_site_aniso_type_symbol
_atom_site_aniso_U_11
_atom_site_aniso_U_22
_atom_site_aniso_U_33
_atom_site_aniso_U_12
_atom_site_aniso_U_13
_atom_site_aniso_U_23
Zr1 Zr4+ 0.00595(6) 0.00621(6) 0.00592(7) -.00092(5) -.00082(5) -.00096(6)
Zr2 Zr4+ 0.00584(6) 0.00561(7) 0.00674(7) -.00096(5) -.00025(5) -.00082(6)
Zr3 Zr4+ 0.00586(6) 0.00618(6) 0.00608(7) -.00164(5) -.00074(5) -.00054(5)
K1 K1+ 0.0206(2) 0.0149(2) 0.0160(2) -.0085(2) -.0036(2) -.0026(2)
K2 K1+ 0.0190(2) 0.0209(2) 0.0156(2) -.0087(2) 0.0052(2) -.0025(2)
K3 K1+ 0.0190(3) 0.0466(4) 0.0417(4) -.0114(3) -.0093(3) -.0107(4)
F1 F1- 0.0079(5) 0.0119(5) 0.0145(6) -.0016(4) -.0014(4) -.0058(5)
F2 F1- 0.0146(5) 0.0158(6) 0.0141(6) -.0082(4) -.0062(5) 0.0029(5)
F3 F1- 0.0095(6) 0.0114(6) 0.0138(6) 0.0008(5) 0.0006(5) -.0047(5)
F4 F1- 0.0177(6) 0.0117(5) 0.0114(6) -.0079(4) -.0043(5) -.0001(5)
F5 F1- 0.0084(5) 0.0140(6) 0.0181(7) -.0031(4) -.0005(5) -.0064(5)
F6 F1- 0.0092(5) 0.0122(6) 0.0154(6) -.0022(4) -.0016(5) -.0059(5)
F7 F1- 0.0126(6) 0.0198(6) 0.0231(7) -.0068(4) -.0015(5) -.0123(5)
F8 F1- 0.0133(6) 0.0228(8) 0.0223(7) -.0010(5) -.0088(5) -.0089(6)
F9 F1- 0.0181(7) 0.0151(7) 0.0093(6) -.0024(6) 0.0004(6) 0.0030(6)
F10 F1- 0.0114(5) 0.0180(6) 0.0208(8) -.0084(4) 0.0004(5) -.0043(6)
F11 F1- 0.0181(8) 0.0164(8) 0.0125(7) 0.0028(7) 0.0019(7) 0.0047(7)
F12 F1- 0.0165(6) 0.0232(7) 0.0157(6) -.0039(5) -.0055(5) -.0093(5)
F13 F1- 0.0103(6) 0.0206(7) 0.0269(8) -.0058(5) -.0011(5) -.0113(6)
F14 F1- 0.0116(6) 0.0129(6) 0.0099(6) -.0010(5) 0.0002(5) -.0001(5)
F15 F1- 0.0173(7) 0.0116(6) 0.034(1) -.0070(5) -.0018(7) -.0073(6)
#End of data_83584-ICSD


