data_42495-ICSD
#?2014 by Fachinformationszentrum Karlsruhe, and the U.S. Secretary of 
#Commerce on behalf of the United States.  All rights reserved.
_database_code_ICSD                42495
_audit_creation_date               2000/07/15
_chemical_name_systematic          'Trimagnesium Heptaborate Chloride'
_chemical_formula_structural       'Mg3 (B7 O13) Cl'
_chemical_formula_sum              'B7 Cl1 Mg3 O13'
_chemical_name_mineral             Boracite
_publ_section_title
;
Atomic displacements in ferroelctric trigonal and orthorhombic 
boracite structures
;
loop_
_citation_id
_citation_journal_abbrev
_citation_year
_citation_journal_volume
_citation_page_first
_citation_page_last
_citation_journal_id_ASTM
primary 'Solid State Communications' 1972 10 543 548 SSCOA4
_publ_author_name                  'Dowty, E.;Clark, J.R.'
_cell_length_a                     8.5496(6)
_cell_length_b                     8.5496(6)
_cell_length_c                     12.0910(9)
_cell_angle_alpha                  90.
_cell_angle_beta                   90.
_cell_angle_gamma                  90.
_cell_volume                       883.8
_cell_formula_units_Z              4
_symmetry_space_group_name_H-M     'P c a 21'
_symmetry_Int_Tables_number        29
_refine_ls_R_factor_all            .043
loop_
_symmetry_equiv_pos_site_id
_symmetry_equiv_pos_as_xyz
  1	'x+.5, -y, z'
  2	'-x+.5, y, z+.5'
  3	'-x, -y, z+.5'
  4	'x, y, z'
loop_
_atom_type_symbol
_atom_type_oxidation_number
B3+	3
Cl1-	-1
Mg2+	2
O2-	-2
loop_
_atom_site_label
_atom_site_type_symbol
_atom_site_symmetry_multiplicity
_atom_site_Wyckoff_symbol
_atom_site_fract_x
_atom_site_fract_y
_atom_site_fract_z
_atom_site_occupancy
_atom_site_attached_hydrogens
_atom_site_B_iso_or_equiv
Mg1 Mg2+ 4 a 0.2417(2) 0.7488(3) 0.4756(2) 1. 0 0.6 
Mg2 Mg2+ 4 a 0.4851(2) 0.9704(3) 0.2525(2) 1. 0 0.63 
Mg3 Mg2+ 4 a 0.4850(2) 0.5283(3) 0.2500(2) 1. 0 0.6 
B1 B3+ 4 a 0.498(1) 0.998(1) 0.500(1) 1. 0 0.29 
B2 B3+ 4 a 0.256(1) 0.249(1) 0.247(1) 1. 0 0.51 
B3 B3+ 4 a 0.498(1) 0.502(1) 0.500(1) 1. 0 0.52 
B4 B3+ 4 a 0.252(1) 0.404(1) 0.419(1) 1. 0 0.46 
B5 B3+ 4 a 0.254(1) 0.096(1) 0.421(1) 1. 0 0.5 
B6 B3+ 4 a 0.405(1) 0.250(1) 0.572(1) 1. 0 0.5 
B7 B3+ 4 a 0.547(1) 0.750(1) 0.600(1) 1. 0 0.51 
O1 O2- 4 a 0.2672(4) 0.2493(5) 0.4901(4) 1. 0 0.39 
O2 O2- 4 a 0.3324(4) 0.9719(4) 0.4781(4) 1. 0 0.34 
O3 O2- 4 a 0.4106(4) 0.4606(4) 0.4006(4) 1. 0 0.39 
O4 O2- 4 a 0.3289(4) 0.1253(4) 0.3143(4) 1. 0 0.41 
O5 O2- 4 a 0.1643(4) 0.5201(4) 0.4800(4) 1. 0 0.42 
O6 O2- 4 a 0.0896(4) 0.0572(4) 0.4046(4) 1. 0 0.45 
O7 O2- 4 a 0.1770(4) 0.3653(4) 0.3158(4) 1. 0 0.5 
O8 O2- 4 a 0.3830(4) 0.3301(4) 0.1852(4) 1. 0 0.39 
O9 O2- 4 a 0.5385(4) 0.9113(4) 0.6053(4) 1. 0 0.53 
O10 O2- 4 a 0.5337(4) 0.1629(4) 0.5212(4) 1. 0 0.28 
O11 O2- 4 a 0.3609(4) 0.1743(4) 0.6751(4) 1. 0 0.33 
O12 O2- 4 a 0.4504(4) 0.4097(4) 0.5952(4) 1. 0 0.36 
O13 O2- 4 a 0.4574(4) 0.6706(4) 0.5248(4) 1. 0 0.45 
Cl1 Cl1- 4 a 0.2741(1) 0.7494(2) 0.2605 1. 0 0.92 

#End of data_42495-ICSD


