data_73155-ICSD
#?2014 by Fachinformationszentrum Karlsruhe, and the U.S. Secretary of 
#Commerce on behalf of the United States.  All rights reserved.
_database_code_ICSD                73155
_audit_creation_date               1994/06/30
_audit_update_record               2005/10/01
_chemical_name_systematic          'Potassium Hexachloroniobate'
_chemical_formula_structural       'K (Nb Cl6)'
_chemical_formula_sum              'Cl6 K1 Nb1'
_publ_section_title
;
Kristallstruktur und Pseudosymmetrie einer neuen Modifikation von 
Kaliumhexachloroniobat(V), K Nb Cl6. Anmerkungen zur kubischen Phase
;
loop_
_citation_id
_citation_journal_abbrev
_citation_year
_citation_journal_volume
_citation_page_first
_citation_page_last
_citation_journal_id_ASTM
primary 'Zeitschrift fuer Anorganische und Allgemeine Chemie (1950) (DE)'
 1993 619 311 317 ZAACAB
_publ_author_name                  'Henke, H.'
_cell_length_a                     6.894(1)
_cell_length_b                     22.073(4)
_cell_length_c                     23.337(3)
_cell_angle_alpha                  90.
_cell_angle_beta                   91.00(1)
_cell_angle_gamma                  90.
_cell_volume                       3550.68
_cell_formula_units_Z              16
_symmetry_space_group_name_H-M     'P 1 21/n 1'
_symmetry_Int_Tables_number        14
_refine_ls_R_factor_all            .032
loop_
_symmetry_equiv_pos_site_id
_symmetry_equiv_pos_as_xyz
  1	'-x+.5, y+.5, -z+.5'
  2	'-x, -y, -z'
  3	'x+.5, -y+.5, z+.5'
  4	'x, y, z'
loop_
_atom_type_symbol
_atom_type_oxidation_number
Cl1-	-1
K1+	1
Nb5+	5
loop_
_atom_site_label
_atom_site_type_symbol
_atom_site_symmetry_multiplicity
_atom_site_Wyckoff_symbol
_atom_site_fract_x
_atom_site_fract_y
_atom_site_fract_z
_atom_site_occupancy
_atom_site_attached_hydrogens
Nb1 Nb5+ 4 e 0.2463(1) 0.35934(3) 0.01785(3) 1. 0 
Cl1 Cl1- 4 e 0.2406(4) 0.4599(1) 0.0654(1) 1. 0 
Cl2 Cl1- 4 e 0.5047(3) 0.3366(1) 0.0802(1) 1. 0 
Cl3 Cl1- 4 e 0.4683(3) 0.4039(1) -.0441(1) 1. 0 
Cl4 Cl1- 4 e 0.2534(3) 0.2676(1) -.0254(1) 1. 0 
Cl5 Cl1- 4 e -.0071(4) 0.3955(1) -.0406(1) 1. 0 
Cl6 Cl1- 4 e 0.0241(4) 0.3305(1) 0.0860(1) 1. 0 
Nb2 Nb5+ 4 e 0.2559(1) 0.22573(3) 0.27548(4) 1. 0 
Cl7 Cl1- 4 e 0.2630(4) 0.3260(1) 0.3214(1) 1. 0 
Cl8 Cl1- 4 e 0.5159(4) 0.1990(1) 0.3347(2) 1. 0 
Cl9 Cl1- 4 e 0.4748(4) 0.2674(1) 0.2109(1) 1. 0 
Cl10 Cl1- 4 e 0.2506(3) 0.13605(9) 0.2271(1) 1. 0 
Cl11 Cl1- 4 e -.0046(4) 0.2641(1) 0.2199(1) 1. 0 
Cl12 Cl1- 4 e 0.0393(4) 0.1952(1) 0.3438(1) 1. 0 
Nb3 Nb5+ 4 e 0.2510(1) 0.35796(3) 0.51827(4) 1. 0 
Cl13 Cl1- 4 e 0.2460(4) 0.4614(1) 0.5550(1) 1. 0 
Cl14 Cl1- 4 e 0.4924(3) 0.3358(1) 0.5843(1) 1. 0 
Cl15 Cl1- 4 e 0.4905(3) 0.3953(1) 0.4545(1) 1. 0 
Cl16 Cl1- 4 e 0.2535(3) 0.2657(1) 0.4761(1) 1. 0 
Cl17 Cl1- 4 e 0.0115(3) 0.3939(1) 0.4507(1) 1. 0 
Cl18 Cl1- 4 e 0.0098(3) 0.3345(1) 0.5817(1) 1. 0 
Nb4 Nb5+ 4 e 0.2484(1) 0.48950(3) 0.75175(4) 1. 0 
Cl19 Cl1- 4 e 0.2472(4) 0.5926(1) 0.7924(1) 1. 0 
Cl20 Cl1- 4 e 0.4991(3) 0.4697(1) 0.8170(1) 1. 0 
Cl21 Cl1- 4 e 0.4758(4) 0.5279(1) 0.6868(1) 1. 0 
Cl22 Cl1- 4 e 0.2489(3) 0.3966(1) 0.7133(1) 1. 0 
Cl23 Cl1- 4 e -.0033(4) 0.5248(1) 0.6899(1) 1. 0 
Cl24 Cl1- 4 e 0.0200(3) 0.4664(1) 0.8201(1) 1. 0 
K1 K1+ 4 e 0.7508(3) 0.4653(1) 0.0662(1) 1. 0 
K2 K1+ 4 e 0.7623(4) 0.3294(1) 0.3373(1) 1. 0 
K3 K1+ 4 e 0.7512(4) 0.4681(1) 0.5687(1) 1. 0 
K4 K1+ 4 e 0.7507(3) 0.6009(1) 0.7988(1) 1. 0 

loop_
_atom_site_aniso_label
_atom_site_aniso_type_symbol
_atom_site_aniso_U_11
_atom_site_aniso_U_22
_atom_site_aniso_U_33
_atom_site_aniso_U_12
_atom_site_aniso_U_13
_atom_site_aniso_U_23
Nb1 Nb5+ 0.0316(4) 0.0294(5) 0.0325(6) 0.0001(3) 0.0018(3) -0.0008(3)
Cl1 Cl1- 0.066(2) 0.037(1) 0.058(2) -0.003(1) 0.009(1) -0.019(1)
Cl2 Cl1- 0.052(2) 0.061(2) 0.061(2) 0.003(1) -0.022(1) 0.003(1)
Cl3 Cl1- 0.059(2) 0.053(2) 0.057(2) -0.011(1) 0.021(1) 0.004(1)
Cl4 Cl1- 0.044(1) 0.038(1) 0.055(2) 0.002(1) -0.003(1) -0.012(1)
Cl5 Cl1- 0.055(2) 0.064(2) 0.055(2) 0.021(1) -0.017(1) -0.001(1)
Cl6 Cl1- 0.059(2) 0.067(2) 0.049(2) -0.017(1) 0.022(1) 0.000(1)
Nb2 Nb5+ 0.0347(4) 0.0316(5) 0.0361(6) -0.0014(4) 0.0002(4) 0.0063(3)
Cl7 Cl1- 0.086(2) 0.037(1) 0.059(2) -0.004(1) 0.002(2) -0.009(1)
Cl8 Cl1- 0.068(2) 0.061(2) 0.084(3) 0.001(1) -0.039(2) 0.010(2)
Cl9 Cl1- 0.062(2) 0.058(2) 0.072(2) -0.011(1) 0.029(1) 0.010(2)
Cl10 Cl1- 0.043(1) 0.040(1) 0.060(2) 0.000(1) -0.001(1) -0.006(1)
Cl11 Cl1- 0.054(2) 0.058(2) 0.082(3) 0.017(1) -0.024(1) 0.008(2)
Cl12 Cl1- 0.079(2) 0.065(2) 0.060(2) -0.015(1) 0.029(2) 0.008(2)
Nb3 Nb5+ 0.0265(4) 0.0316(5) 0.0386(6) -0.0011(3) 0.0000(3) 0.0008(3)
Cl13 Cl1- 0.069(2) 0.034(1) 0.061(2) 0.000(1) -0.001(1) -0.011(1)
Cl14 Cl1- 0.049(1) 0.065(2) 0.060(2) 0.010(1) -0.021(1) 0.001(2)
Cl15 Cl1- 0.050(1) 0.061(2) 0.060(2) -0.014(1) 0.017(1) 0.003(1)
Cl16 Cl1- 0.045(1) 0.037(1) 0.066(2) 0.000(1) -0.001(1) -0.010(1)
Cl17 Cl1- 0.048(1) 0.062(2) 0.063(3) 0.013(1) -0.018(1) 0.002(1)
Cl18 Cl1- 0.048(1) 0.063(2) 0.059(2) -0.011(1) 0.018(1) 0.001(1)
Nb4 Nb5+ 0.0268(4) 0.0319(5) 0.0328(6) -0.0004(4) -0.0001(3) -0.0018(3)
Cl19 Cl1- 0.063(2) 0.031(1) 0.080(2) -0.001(1) -0.001(1) -0.017(1)
Cl20 Cl1- 0.048(1) 0.060(2) 0.055(2) 0.007(1) -0.020(1) -0.002(1)
Cl21 Cl1- 0.053(2) 0.076(2) 0.053(3) -0.020(1) 0.015(1) 0.006(1)
Cl22 Cl1- 0.046(1) 0.042(1) 0.061(2) -0.002(1) 0.003(1) -0.018(1)
Cl23 Cl1- 0.049(2) 0.075(2) 0.059(3) 0.015(1) -0.019(1) 0.001(1)
Cl24 Cl1- 0.052(2) 0.061(2) 0.045(2) -0.013(1) 0.020(1) -0.008(1)
K1 K1+ 0.048(1) 0.058(1) 0.060(2) 0.001(1) 0.000(1) 0.000(1)
K2 K1+ 0.067(2) 0.073(2) 0.098(2) -0.003(1) 0.000(2) 0.001(2)
K3 K1+ 0.063(2) 0.067(2) 0.090(2) -0.002(1) -0.005(2) 0.008(1)
K4 K1+ 0.053(1) 0.053(1) 0.055(2) -0.001(1) -0.002(1) 0.009(1)
#End of data_73155-ICSD


