data_421750-ICSD
#?2014 by Fachinformationszentrum Karlsruhe, and the U.S. Secretary of 
#Commerce on behalf of the United States.  All rights reserved.
_database_code_ICSD                421750
_audit_creation_date               2011/02/01
_chemical_name_systematic
;
Dipotassium Lanthanum 15-oxopentantatalate
;
_chemical_formula_structural       'K2 La Ta5 O15'
_chemical_formula_sum              'K2 La1 O15 Ta5'
_publ_section_title
;
Two Ta O5 - rich alkali-metal lanthanide(III) oxotantalates(V): K2 La 
Ta5 O15 and Na Tm2 Ta15 O41
;
loop_
_citation_id
_citation_journal_abbrev
_citation_year
_citation_journal_volume
_citation_journal_issue
_citation_page_first
_citation_page_last
_citation_journal_id_ASTM
primary 'Zeitschrift fuer Anorganische und Allgemeine Chemie (1950) (DE)'
 2010 636 9-10 1865 1869 ZAACAB
_publ_author_name
;
Janka, O.;Mueller-Bunz, H.;Schleid, T.
;
_cell_length_a                     12.5602(9)
_cell_length_b                     12.5602(9)
_cell_length_c                     3.9214(3)
_cell_angle_alpha                  90.00
_cell_angle_beta                   90.00
_cell_angle_gamma                  90.00
_cell_volume                       618.63
_cell_formula_units_Z              2
_symmetry_space_group_name_H-M     'P 4/m b m'
_symmetry_Int_Tables_number        127
_refine_ls_R_factor_all            .0215
loop_
_symmetry_equiv_pos_site_id
_symmetry_equiv_pos_as_xyz
  1	'y+.5, x+.5, -z'
  2	'-y+.5, -x+.5, -z'
  3	'-y, x, -z'
  4	'y, -x, -z'
  5	'x+.5, -y+.5, -z'
  6	'-x+.5, y+.5, -z'
  7	'x, y, -z'
  8	'-x, -y, -z'
  9	'-y+.5, -x+.5, z'
 10	'y+.5, x+.5, z'
 11	'y, -x, z'
 12	'-y, x, z'
 13	'-x+.5, y+.5, z'
 14	'x+.5, -y+.5, z'
 15	'-x, -y, z'
 16	'x, y, z'
loop_
_atom_type_symbol
_atom_type_oxidation_number
K1+	1
La3+	3
O2-	-2
Ta5+	5
loop_
_atom_site_label
_atom_site_type_symbol
_atom_site_symmetry_multiplicity
_atom_site_Wyckoff_symbol
_atom_site_fract_x
_atom_site_fract_y
_atom_site_fract_z
_atom_site_occupancy
_atom_site_attached_hydrogens
_atom_site_U_iso_or_equiv
K1 K1+ 4 g 0.1714(2) 0.6714(2) 0.0000 1 0 0.0265(8) 
La1 La3+ 2 a 0.0000 0.0000 0.0000 1 0 0.0155(3) 
Ta1 Ta5+ 2 c 0.0000 0.5000 0.5000 1 0 0.0152(2) 
Ta2 Ta5+ 8 j 0.07610(3) 0.21448(3) 0.5000 1 0 0.00976(14) 
O1 O2- 2 d 0.0000 0.5000 0.0000 1 0 0.016(3) 
O2 O2- 4 h 0.2855(5) 0.7855(5) 0.5000 1 0 0.0120(19) 
O3 O2- 8 i 0.0752(6) 0.1977(6) 0.0000 1 0 0.0131(14) 
O4 O2- 8 j 0.3435(5) 0.0028(6) 0.5000 1 0 0.0159(14) 
O5 O2- 8 j 0.1331(6) 0.0629(6) 0.5000 1 0 0.0147(15) 

loop_
_atom_site_aniso_label
_atom_site_aniso_type_symbol
_atom_site_aniso_U_11
_atom_site_aniso_U_22
_atom_site_aniso_U_33
_atom_site_aniso_U_12
_atom_site_aniso_U_13
_atom_site_aniso_U_23
K1 K1+ 0.0325(12) 0.0325(12) 0.0146(15) -0.0152(16) 0.000 0.000
La1 La3+ 0.0171(4) 0.0171(4) 0.0124(5) 0.000 0.000 0.000
Ta1 Ta5+ 0.0113(3) 0.0113(3) 0.0230(4) -0.0004(3) 0.000 0.000
Ta2 Ta5+ 0.0116(2) 0.0109(2) 0.00677(19) -0.00003(14) 0.000 0.000
O1 O2- 0.021(5) 0.021(5) 0.005(6) -0.005(6) 0.000 0.000
O2 O2- 0.013(3) 0.013(3) 0.010(4) -0.004(4) 0.000 0.000
O3 O2- 0.016(4) 0.020(4) 0.003(3) -0.005(3) 0.000 0.000
O4 O2- 0.016(3) 0.011(3) 0.021(3) -0.006(3) 0.000 0.000
O5 O2- 0.013(3) 0.014(3) 0.017(4) 0.003(3) 0.000 0.000
#End of data_421750-ICSD


