data_20167-ICSD
#?2014 by Fachinformationszentrum Karlsruhe, and the U.S. Secretary of 
#Commerce on behalf of the United States.  All rights reserved.
_database_code_ICSD                20167
_audit_creation_date               1980/01/01
_audit_update_record               2012/08/01
_chemical_name_systematic
;
Dipotassium Dizinc Diberyllium Disilicate
;
_chemical_formula_structural       'K2 Zn2 Be2 (Si O4) (Si2 O7)'
_chemical_formula_sum              'Be2 K2 O11 Si3 Zn2'
_publ_section_title
;
The crystal structure of zinc and potassium beryllosilicate K2 Zn2 
Be2 (Si O4)(Si2 O7)
;
loop_
_citation_id
_citation_journal_abbrev
_citation_year
_citation_journal_volume
_citation_page_first
_citation_page_last
_citation_journal_id_ASTM
primary 'Doklady Akademii Nauk SSSR' 1979 249 103 105 DANKAS
_publ_author_name
;
Balko, V.P.;Bakakin, V.V.;Gatilov, Yu.V.;Pavlyuchenko, V.S.
;
_cell_length_a                     9.647(2)
_cell_length_b                     14.930(3)
_cell_length_c                     6.763(1)
_cell_angle_alpha                  90.
_cell_angle_beta                   90.
_cell_angle_gamma                  90.
_cell_volume                       974.07
_cell_formula_units_Z              4
_symmetry_space_group_name_H-M     'I m c m'
_symmetry_Int_Tables_number        74
_refine_ls_R_factor_all            .06
loop_
_symmetry_equiv_pos_site_id
_symmetry_equiv_pos_as_xyz
  1	'x+.5, -y, -z'
  2	'-x+.5, y, -z'
  3	'x, y, -z'
  4	'-x, -y, -z'
  5	'-x+.5, y, z'
  6	'x+.5, -y, z'
  7	'-x, -y, z'
  8	'x, y, z'
  9	'x, -y+.5, -z+.5'
 10	'-x, y+.5, -z+.5'
 11	'x+.5, y+.5, -z+.5'
 12	'-x+.5, -y+.5, -z+.5'
 13	'-x, y+.5, z+.5'
 14	'x, -y+.5, z+.5'
 15	'-x+.5, -y+.5, z+.5'
 16	'x+.5, y+.5, z+.5'
loop_
_atom_type_symbol
_atom_type_oxidation_number
Be2+	2
K1+	1
O2-	-2
Si4+	4
Zn2+	2
loop_
_atom_site_label
_atom_site_type_symbol
_atom_site_symmetry_multiplicity
_atom_site_Wyckoff_symbol
_atom_site_fract_x
_atom_site_fract_y
_atom_site_fract_z
_atom_site_occupancy
_atom_site_attached_hydrogens
K1 K1+ 4 e 0.25 0.3613(1) 0.5 1. 0 
K2 K1+ 4 e 0.75 0.0520(1) 0.5 1. 0 
Zn1 Zn2+ 8 g 0.5989(1) 0.25 0.25 1. 0 
Si1 Si4+ 4 e 0.75 0.0976(1) 0 1. 0 
Si2 Si4+ 8 h 0.4098(1) 0.1341 0.5 1. 0 
Be1 Be2+ 8 f 0.5 0 0.1736(1) 1. 0 
O1 O2- 8 h 0.5074(3) 0.2247(2) 0.5 1. 0 
O2 O2- 8 i 0.75 0.1608(2) 0.1962(5) 1. 0 
O3 O2- 8 h 0.6119(3) 0.0355(2) 0 1. 0 
O4 O2- 16 j 0.4362(3) 0.0795(2) 0.3023(4) 1. 0 
O5 O2- 4 e 0.25 0.3264(3) 0 1. 0 

loop_
_atom_site_aniso_label
_atom_site_aniso_type_symbol
_atom_site_aniso_B_11
_atom_site_aniso_B_22
_atom_site_aniso_B_33
_atom_site_aniso_B_12
_atom_site_aniso_B_13
_atom_site_aniso_B_23
K1 K1+ 1.38(5) 0.66(5) 1.14(5) 0 0 0
K2 K1+ 2.26(7) 0.69(5) 1.18(5) 0 0 0
Zn1 Zn2+ 0.57(1) 0.70(2) 0.51(1) 0 0 -.04(1)
Si1 Si4+ 0.32(4) 0.10(5) 0.34(5) 0 0 0
Si2 Si4+ 0.38(3) 0.23(3) 0.38(3) 0.00(3) 0 0
Be1 Be2+ 0.3(1) 0.3(1) 0.5(2) 0.0(1) 0 0
O1 O2- 0.6(1) 0.7(1) 0.7(1) -.4(1) 0 0
O2 O2- 0.6(1) 0.5(1) 0.7(1) 0 0.1(1) -.2(1)
O3 O2- 0.5(1) 0.6(1) 0.5(1) -.2(1) 0 0
O4 O2- 1.4(1) 1.0(1) 0.8(1) 0.3(1) 0.1(1) 0.1(1)
O5 O2- 0.4(1) 0.3(1) 1.3(2) 0 0 0
#End of data_20167-ICSD


