data_407354-ICSD
#?2014 by Fachinformationszentrum Karlsruhe, and the U.S. Secretary of 
#Commerce on behalf of the United States.  All rights reserved.
_database_code_ICSD                407354
_audit_creation_date               1998/06/26
_chemical_name_systematic
;
Potassium Dialuminium Bis(phosphate) Hydroxide Tetrahydrate
;
_chemical_formula_structural       'K Al2 (P O4)2 (O H) (H2 O)4'
_chemical_formula_sum              'H9 Al2 K1 O13 P2'
_publ_section_title
;
Aluminiumphosphate mit azentrischen Schicht- und Raumnetzstrukturen 
aus topologisch verwandten Motiven: 1. K Al2 (P O4)2 (O H) * 4(H2 O)
;
loop_
_citation_id
_citation_journal_abbrev
_citation_year
_citation_journal_volume
_citation_page_first
_citation_page_last
_citation_journal_id_ASTM
primary 'Zeitschrift fuer Naturforschung, B: Chemical Sciences'
 1997 52 1439 1446 ZNBSEN
_publ_author_name
;
Dick, S.;Gossner, U.;Grossmann, G.;Ohms, G.;Zeiske, T.
;
_cell_length_a                     9.3465(14)
_cell_length_b                     9.8212(13)
_cell_length_c                     5.5096(8)
_cell_angle_alpha                  90.
_cell_angle_beta                   90.
_cell_angle_gamma                  90.
_cell_volume                       505.75
_cell_formula_units_Z              2
_symmetry_space_group_name_H-M     'P b a 2'
_symmetry_Int_Tables_number        32
_refine_ls_R_factor_all            .0264
loop_
_symmetry_equiv_pos_site_id
_symmetry_equiv_pos_as_xyz
  1	'x+.5, -y+.5, z'
  2	'-x+.5, y+.5, z'
  3	'-x, -y, z'
  4	'x, y, z'
loop_
_atom_type_symbol
_atom_type_oxidation_number
Al3+	3
H1+	1
K1+	1
O2-	-2
P5+	5
loop_
_atom_site_label
_atom_site_type_symbol
_atom_site_symmetry_multiplicity
_atom_site_Wyckoff_symbol
_atom_site_fract_x
_atom_site_fract_y
_atom_site_fract_z
_atom_site_occupancy
_atom_site_attached_hydrogens
_atom_site_U_iso_or_equiv
K1 K1+ 2 a 1 1 1 1. 0 0 
Al1 Al3+ 4 c 0.64077(8) 0.89063(7) 0.05283(24) 1. 0 0 
P1 P5+ 4 c 0.85245(7) 0.67424(6) -.19859(23) 1. 0 0 
O1 O2- 4 c 0.98423(19) 1.32556(20) -.17607(37) 1. 0 0 
O2 O2- 4 c 0.71072(22) 1.0353(2) -.12913(39) 1. 0 0 
O3 O2- 4 c 0.79233(22) 0.78451(19) -.03187(40) 1. 0 0 
O4 O2- 4 c 0.81558(20) 0.70268(20) -.46573(42) 1. 0 0 
O5 O2- 4 c 0.77037(22) 0.94932(24) 0.33138(44) 1. 0 0 
O6 O2- 4 c 0.5754(2) 0.74256(20) 0.28301(43) 1. 0 0 
O7 O2- 2 b 0.5 0 0.19703(61) 1. 0 0 
H1 H1+ 4 c 1.2474(46) 0.9959(42) 0.4193(72) 1. 0 0.031(13) 
H2 H1+ 4 c 1.2244(58) 1.1312(53) 0.4226(99) 1. 0 0.079(19) 
H3 H1+ 4 c 1.1523(44) 0.7824(41) 0.4085(75) 1. 0 0.041(12) 
H4 H1+ 4 c 0.9972(58) 1.2795(52) 0.3932(96) 1. 0 0.079(18) 
H5 H1+ 2 b 0.5 0 0.305(12) 1. 0 0.048(24) 

loop_
_atom_site_aniso_label
_atom_site_aniso_type_symbol
_atom_site_aniso_U_11
_atom_site_aniso_U_22
_atom_site_aniso_U_33
_atom_site_aniso_U_12
_atom_site_aniso_U_13
_atom_site_aniso_U_23
K1 K1+ 0.01370(42) 0.02331(47) 0.02627(57) -.00264(38) 0 0
Al1 Al3+ 0.00738(35) 0.00709(35) 0.00857(37) 0.00048(31) -.00051(36) 
-.00040(31)
P1 P5+ 0.00780(28) 0.00817(30) 0.00684(30) 0.00086(27) -.00069(31) 
0.00033(27)
O1 O2- 0.00834(81) 0.01574(87) 0.01094(91) 0.00069(78) -.00051(88) 
-.00295(86)
O2 O2- 0.01132(96) 0.01038(90) 0.0168(11) 0.00177(81) 0.00327(74) 
0.00282(80)
O3 O2- 0.01015(92) 0.01178(90) 0.016(1) 0.00244(80) 0.00056(80) -.00320(82)
O4 O2- 0.017(1) 0.02101(97) 0.00844(90) -.00004(78) -.00204(84) 0.00240(83)
O5 O2- 0.0170(11) 0.0153(10) 0.0135(11) 0.00170(86) -.00273(92) -.00530(96)
O6 O2- 0.0152(10) 0.01440(92) 0.01543(99) 0.00003(89) -.00118(90) 
0.00355(96)
O7 O2- 0.0135(15) 0.0128(14) 0.0092(17) 0.0031(12) 0 0
#End of data_407354-ICSD


