data_34457-ICSD
#?2014 by Fachinformationszentrum Karlsruhe, and the U.S. Secretary of 
#Commerce on behalf of the United States.  All rights reserved.
_database_code_ICSD                34457
_audit_creation_date               1980/01/01
_audit_update_record               2012/02/01
_chemical_name_systematic
;
Pentacalcium Tris(phosphate(V)) Hydroxide
;
_chemical_formula_structural       'Ca5 (P O4)3 (O H)'
_chemical_formula_sum              'H1 Ca5 O13 P3'
_chemical_name_mineral             Apatite-(CaOH)
_publ_section_title                'Monoclinic hydroxyapatite'
loop_
_citation_id
_citation_journal_abbrev
_citation_year
_citation_journal_volume
_citation_page_first
_citation_page_last
_citation_journal_id_ASTM
primary Science 1973 180 1055 1057 SCIEAS
2 'Golden Book of Phase Transitions, Wroclaw' 2002 1 1 123 GBOPT5
_publ_author_name
;
Elliott, J.C.;Mackie, P.E.;Young, R.A.
;
_cell_length_a                     9.4214(8)
_cell_length_b                     18.8428(16)
_cell_length_c                     6.8814(7)
_cell_angle_alpha                  90.
_cell_angle_beta                   90.
_cell_angle_gamma                  120.00(8)
_cell_volume                       1057.96
_cell_formula_units_Z              4
_symmetry_space_group_name_H-M     'P 1 1 21/b'
_symmetry_Int_Tables_number        14
_refine_ls_R_factor_all            .039
loop_
_symmetry_equiv_pos_site_id
_symmetry_equiv_pos_as_xyz
  1	'x, y+.5, -z+.5'
  2	'-x, -y, -z'
  3	'-x, -y+.5, z+.5'
  4	'x, y, z'
loop_
_atom_type_symbol
_atom_type_oxidation_number
Ca2+	2
H1+	1
O2-	-2
P5+	5
loop_
_atom_site_label
_atom_site_type_symbol
_atom_site_symmetry_multiplicity
_atom_site_Wyckoff_symbol
_atom_site_fract_x
_atom_site_fract_y
_atom_site_fract_z
_atom_site_occupancy
_atom_site_attached_hydrogens
O1 O2- 4 e 0.3286(3) 0.4918(2) 0.2604(5) 1. 0 
O2 O2- 4 e 0.4850(2) 0.3282(1) 0.7604(5) 1. 0 
O3 O2- 4 e 0.1568(2) 0.5858(1) 0.2462(5) 1. 0 
O4 O2- 4 e 0.5866(3) 0.4828(2) 0.2365(5) 1. 0 
O5 O2- 4 e 0.5359(2) 0.3105(1) 0.2422(5) 1. 0 
O6 O2- 4 e 0.1213(3) 0.5438(1) 0.7319(4) 1. 0 
O7 O2- 4 e 0.3280(4) 0.3746(2) 0.0821(4) 1. 0 
O8 O2- 4 e 0.7473(4) 0.2904(2) 0.0804(4) 1. 0 
O9 O2- 4 e 0.0794(3) 0.4134(2) 0.5817(3) 1. 0 
O10 O2- 4 e 0.3578(3) 0.3827(1) 0.4404(3) 1. 0 
O11 O2- 4 e 0.7373(4) 0.2949(2) 0.4390(4) 1. 0 
O12 O2- 4 e 0.0909(4) 0.4290(2) 0.9397(4) 1. 0 
Ca1 Ca2+ 4 e 0.3259(1) 0.5798(1) 0.0006(1) 1. 0 
Ca2 Ca2+ 4 e 0.3412(1) 0.5868(1) 0.4977(1) 1. 0 
Ca3 Ca2+ 4 e 0.2465(1) 0.2465 0.2534(1) 1. 0 
Ca4 Ca2+ 4 e 0.9932(1) 0.6233 0.7434(1) 1. 0 
Ca5 Ca2+ 4 e 0.2533(1) 0.3732 0.7567(1) 1. 0 
P1 P5+ 4 e 0.3982(1) 0.4342 0.2556(2) 1. 0 
P2 P5+ 4 e 0.6315(1) 0.265 0.2552(2) 1. 0 
P3 P5+ 4 e 0.0302(1) 0.449 0.7518(2) 1. 0 
O13 O2- 4 e 0.9993(3) 0.2504(2) 0.3045(3) 1. 0 
H1 H1+ 4 e 0 0.25 0.4392 1. 0 

#End of data_34457-ICSD


