data_35533-ICSD
#?2014 by Fachinformationszentrum Karlsruhe, and the U.S. Secretary of 
#Commerce on behalf of the United States.  All rights reserved.
_database_code_ICSD                35533
_audit_creation_date               1983/12/31
_audit_update_record               2005/10/01
_chemical_name_systematic          'Magnesium Catena-germanate - Ht'
_chemical_formula_structural       'Mg (Ge O3)'
_chemical_formula_sum              'Ge1 Mg1 O3'
_publ_section_title
;
Structure of orthopyroxene-type and clinopyroxene-type magnesium 
germanium oxide Mg Ge O3
;
loop_
_citation_id
_citation_journal_abbrev
_citation_year
_citation_journal_volume
_citation_page_first
_citation_page_last
_citation_journal_id_ASTM
primary 'Acta Crystallographica, Section C: Crystal Structure Communications'
 1983 39 1169 1172 ACSCEE
2 'Golden Book of Phase Transitions, Wroclaw' 2002 1 1 123 GBOPT5
_publ_author_name                  'Ozima, M.'
_cell_length_a                     18.8099(12)
_cell_length_b                     8.9484(8)
_cell_length_c                     5.3451(4)
_cell_angle_alpha                  90.
_cell_angle_beta                   90.
_cell_angle_gamma                  90.
_cell_volume                       899.68
_cell_formula_units_Z              16
_symmetry_space_group_name_H-M     'P b c a'
_symmetry_Int_Tables_number        61
_refine_ls_R_factor_all            .025
loop_
_symmetry_equiv_pos_site_id
_symmetry_equiv_pos_as_xyz
  1	'x+.5, y, -z+.5'
  2	'x, -y+.5, z+.5'
  3	'-x+.5, y+.5, z'
  4	'-x, -y, -z'
  5	'-x+.5, -y, z+.5'
  6	'-x, y+.5, -z+.5'
  7	'x+.5, -y+.5, -z'
  8	'x, y, z'
loop_
_atom_type_symbol
_atom_type_oxidation_number
Ge4+	4
Mg2+	2
O2-	-2
loop_
_atom_site_label
_atom_site_type_symbol
_atom_site_symmetry_multiplicity
_atom_site_Wyckoff_symbol
_atom_site_fract_x
_atom_site_fract_y
_atom_site_fract_z
_atom_site_occupancy
_atom_site_attached_hydrogens
Mg1 Mg2+ 8 c 0.12336(8) 0.65653(17) 0.85189(28) 1. 0 
Mg2 Mg2+ 8 c 0.12219(8) 0.48882(18) 0.34352(30) 1. 0 
Ge1 Ge4+ 8 c 0.02780(2) 0.33959(5) 0.80535(8) 1. 0 
Ge2 Ge4+ 8 c 0.22907(2) 0.34509(5) 0.04141(8) 1. 0 
O1 O2- 8 c -.06455(15) 0.33843(36) 0.81478(60) 1. 0 
O2 O2- 8 c 0.06936(17) 0.48881(35) 0.67045(61) 1. 0 
O3 O2- 8 c 0.05545(16) 0.31981(35) 0.12519(61) 1. 0 
O4 O2- 8 c 0.32048(16) 0.34007(36) 0.02191(56) 1. 0 
O5 O2- 8 c 0.18768(16) 0.51440(36) 0.03332(65) 1. 0 
O6 O2- 8 c 0.19326(16) 0.28958(36) 0.33685(62) 1. 0 

loop_
_atom_site_aniso_label
_atom_site_aniso_type_symbol
_atom_site_aniso_U_11
_atom_site_aniso_U_22
_atom_site_aniso_U_33
_atom_site_aniso_U_12
_atom_site_aniso_U_13
_atom_site_aniso_U_23
Mg1 Mg2+ 0.0093(6) 0.0078(6) 0.0069(6) 0.0002(5) 0.0008(5) -.0006(6)
Mg2 Mg2+ 0.0100(7) 0.0105(7) 0.0107(7) 0.0009(6) 0.0014(6) 0.0005(6)
Ge1 Ge4+ 0.0068(2) 0.0067(2) 0.0071(2) 0.0003(2) 0.0004(2) -.0004(2)
Ge2 Ge4+ 0.0068(2) 0.0070(2) 0.0081(2) 0.0004(2) -.0002(2) -.0004(2)
O1 O2- 0.0059(13) 0.0116(14) 0.0092(15) -.0010(12) 0.0003(12) 0.0032(14)
O2 O2- 0.0142(15) 0.0082(14) 0.0076(15) 0.0037(12) 0.0007(13) -.0008(13)
O3 O2- 0.0088(14) 0.0091(15) 0.0085(15) -.0017(11) -.0013(11) 0.0018(12)
O4 O2- 0.0073(13) 0.0088(14) 0.0073(14) -.0009(12) -.0013(11) -.0003(13)
O5 O2- 0.0095(14) 0.0083(15) 0.0133(16) 0.0033(12) 0.0011(12) 0.0015(13)
O6 O2- 0.0090(14) 0.0112(15) 0.0094(16) 0.0014(11) 0.0012(12) 0.0019(13)
#End of data_35533-ICSD


