data_165877-ICSD
#?2014 by Fachinformationszentrum Karlsruhe, and the U.S. Secretary of 
#Commerce on behalf of the United States.  All rights reserved.
_database_code_ICSD                165877
_audit_creation_date               2010/08/01
_chemical_name_systematic
;
Potassium Europium Tetrakis(catena-phosphate(V))
;
_chemical_formula_structural       'K Eu (P O3)4'
_chemical_formula_sum              'Eu1 K1 O12 P4'
_publ_section_title
;
Two potassium rare-earth polyphosphates K Ln (P O3)4 (Ln = Ce, Eu): 
structural, optical and electronic properties
;
loop_
_citation_id
_citation_journal_abbrev
_citation_year
_citation_journal_volume
_citation_page_first
_citation_page_last
_citation_journal_id_ASTM
primary 'Journal of Luminescence' 2009 129 1326 1331 JLUMA8
_publ_author_name
;
Zhu Jing;Cheng Wen Dan;Zhang Hao;Wang Yude
;
_cell_length_a                     7.2508(7)
_cell_length_b                     8.3612(8)
_cell_length_c                     7.9388(8)
_cell_angle_alpha                  90.
_cell_angle_beta                   91.962(6)
_cell_angle_gamma                  90.
_cell_volume                       481.01
_cell_formula_units_Z              2
_symmetry_space_group_name_H-M     'P 1 21 1'
_symmetry_Int_Tables_number        4
_refine_ls_R_factor_all            .0353
loop_
_symmetry_equiv_pos_site_id
_symmetry_equiv_pos_as_xyz
  1	'-x, y+.5, -z'
  2	'x, y, z'
loop_
_atom_type_symbol
_atom_type_oxidation_number
Eu3+	3
K1+	1
O2-	-2
P5+	5
loop_
_atom_site_label
_atom_site_type_symbol
_atom_site_symmetry_multiplicity
_atom_site_Wyckoff_symbol
_atom_site_fract_x
_atom_site_fract_y
_atom_site_fract_z
_atom_site_occupancy
_atom_site_attached_hydrogens
_atom_site_U_iso_or_equiv
Eu1 Eu3+ 2 a 0.26400(5) 0.99654(8) 0.75769(5) 1. 0 0.0075(2) 
K1 K1+ 2 a 0.7716(4) 0.7998(4) 0.7198(3) 1. 0 0.0285(6) 
P1 P5+ 2 a 0.1195(3) 0.7451(3) 0.3974(3) 1. 0 0.0086(5) 
P2 P5+ 2 a 0.3983(3) 0.5789(3) 0.8986(3) 1. 0 0.0080(5) 
P3 P5+ 2 a 0.5001(3) 0.8498(3) 0.3811(3) 1. 0 0.0069(5) 
P4 P5+ 2 a 0.0638(3) 0.3736(3) 0.9035(3) 1. 0 0.0075(5) 
O1 O2- 2 a 0.508(1) 0.4582(8) 0.7833(8) 1. 0 0.018(2) 
O2 O2- 2 a 0.040(1) 0.8828(8) 0.2761(8) 1. 0 0.015(2) 
O3 O2- 2 a 0.6686(9) 0.7490(8) 0.3863(8) 1. 0 0.012(1) 
O4 O2- 2 a 0.070(1) 0.9033(9) 0.9634(9) 1. 0 0.018(2) 
O5 O2- 2 a 0.1818(9) 0.2302(8) 0.9276(8) 1. 0 0.012(1) 
O6 O2- 2 a 0.469(1) 0.9494(8) 0.5320(8) 1. 0 0.015(2) 
O7 O2- 2 a 0.3290(9) 0.7373(8) 0.3425(8) 1. 0 0.011(1) 
O8 O2- 2 a 0.531(1) 0.0485(8) 0.9272(8) 1. 0 0.014(2) 
O9 O2- 2 a 0.412(1) 0.7403(8) 0.8261(9) 1. 0 0.016(2) 
O10 O2- 2 a 0.1875(9) 0.5292(8) 0.8824(8) 1. 0 0.014(2) 
O11 O2- 2 a 0.968(1) 0.0899(8) 0.6505(8) 1. 0 0.013(2) 
O12 O2- 2 a 0.1109(9) 0.8035(8) 0.5741(7) 1. 0 0.011(1) 

#End of data_165877-ICSD


