data_157945-ICSD
#?2014 by Fachinformationszentrum Karlsruhe, and the U.S. Secretary of 
#Commerce on behalf of the United States.  All rights reserved.
_database_code_ICSD                157945
_audit_creation_date               2008/02/01
_chemical_name_systematic
;
Strontium Nickel Zinc Bis(phosphate(V))
;
_chemical_formula_structural       'Sr Ni Zn (P O4)2'
_chemical_formula_sum              'Ni1 O8 P2 Sr1 Zn1'
_publ_section_title
;
Investigations of the structure of Sr Ni Zn (P O4)2. The nickel 
distribution within the lattice of related compounds
;
loop_
_citation_id
_citation_journal_abbrev
_citation_year
_citation_journal_volume
_citation_page_first
_citation_page_last
_citation_journal_id_ASTM
primary 'Phosphorus Research Bulletin' 2004 15 125 130 PREBE7
_publ_author_name
;
El Bali, B.;Lachkar, M.;Allouchi, H.;Narymbetov, B.
;
_cell_length_a                     5.456(1)
_cell_length_b                     6.711(1)
_cell_length_c                     9.182(1)
_cell_angle_alpha                  110.60(1)
_cell_angle_beta                   101.10(1)
_cell_angle_gamma                  98.08(1)
_cell_volume                       300.77
_cell_formula_units_Z              2
_symmetry_space_group_name_H-M     'P -1'
_symmetry_Int_Tables_number        2
_refine_ls_R_factor_all            .0698
loop_
_symmetry_equiv_pos_site_id
_symmetry_equiv_pos_as_xyz
  1	'-x, -y, -z'
  2	'x, y, z'
loop_
_atom_type_symbol
_atom_type_oxidation_number
Ni2+	2
O2-	-2
P5+	5
Sr2+	2
Zn2+	2
loop_
_atom_site_label
_atom_site_type_symbol
_atom_site_symmetry_multiplicity
_atom_site_Wyckoff_symbol
_atom_site_fract_x
_atom_site_fract_y
_atom_site_fract_z
_atom_site_occupancy
_atom_site_attached_hydrogens
_atom_site_U_iso_or_equiv
Sr1 Sr2+ 2 i 0.25316(9) 0.79867(7) 0.05416(5) 1. 0 0.00612 
Ni1 Ni2+ 2 i 0.36057(12) 0.14552(10) 0.44015(7) 1. 0 0.0037 
Zn1 Zn2+ 2 i -0.00755(12) 0.40345(10) -0.34850(8) 1. 0 0.0084 
P1 P5+ 2 i -0.1556(2) 0.0256(2) 0.30319(15) 1. 0 0.0038 
P2 P5+ 2 i 0.3948(2) 0.42803(19) 0.23976(15) 1. 0 0.0034 
O1 O2- 2 i -0.2525(7) 0.9992(6) 0.1310(4) 1. 0 0.0081 
O2 O2- 2 i -0.3788(6) 0.9540(5) 0.3683(4) 1. 0 0.0054 
O3 O2- 2 i 0.0474(6) 0.8851(6) 0.3123(4) 1. 0 0.0073 
O4 O2- 2 i -0.0043(7) 0.2636(6) 0.4180(4) 1. 0 0.0080 
O5 O2- 2 i 0.3461(7) 0.1970(5) 0.2367(4) 1. 0 0.0061 
O6 O2- 2 i 0.6537(7) 0.4840(6) 0.2043(4) 1. 0 0.0073 
O7 O2- 2 i 0.1712(7) 0.4520(6) 0.1211(5) 1. 0 0.0113 
O8 O2- 2 i 0.3795(6) 0.5933(5) 0.4041(4) 1. 0 0.0062 

#End of data_157945-ICSD


