data_74571-ICSD
#?2014 by Fachinformationszentrum Karlsruhe, and the U.S. Secretary of 
#Commerce on behalf of the United States.  All rights reserved.
_database_code_ICSD                74571
_audit_creation_date               1995/10/17
_audit_update_record               2005/10/01
_chemical_name_systematic
;
Dipotassium Tecto-magnesiopentasilicate
;
_chemical_formula_structural       'K2 (Mg Si5 O12)'
_chemical_formula_sum              'K2 Mg1 O12 Si5'
_publ_section_title
;
Structures of synthetic K2 Mg Si5 O12 leucites by integrated X-ray 
powder diffraction, electron diffraction and 29Si MAS NMR methods
;
loop_
_citation_id
_citation_journal_abbrev
_citation_year
_citation_journal_volume
_citation_page_first
_citation_page_last
_citation_journal_id_ASTM
primary 'Acta Crystallographica, Section B: Structural Science'
 1994 50 31 41 ASBSDK
2 'Golden Book of Phase Transitions, Wroclaw' 2002 1 1 123 GBOPT5
_publ_author_name
;
Bell, A.M.T.;Henderson, C.M.B.;Redfern, S.A.T.;Cernik, 
R.J.;Champness, P.E.;Fitch, A.N.;Kohn, S.C.
;
_cell_length_a                     13.168(5)
_cell_length_b                     13.652(1)
_cell_length_c                     13.072(5)
_cell_angle_alpha                  90.
_cell_angle_beta                   91.69(5)
_cell_angle_gamma                  90.
_cell_volume                       2348.93
_cell_formula_units_Z              8
_symmetry_space_group_name_H-M     'P 1 21/c 1'
_symmetry_Int_Tables_number        14
_refine_ls_R_factor_all            .047
loop_
_symmetry_equiv_pos_site_id
_symmetry_equiv_pos_as_xyz
  1	'x, -y+.5, z+.5'
  2	'-x, -y, -z'
  3	'-x, y+.5, -z+.5'
  4	'x, y, z'
loop_
_atom_type_symbol
_atom_type_oxidation_number
K1+	1
Mg2+	2
O2-	-2
Si4+	4
loop_
_atom_site_label
_atom_site_type_symbol
_atom_site_symmetry_multiplicity
_atom_site_Wyckoff_symbol
_atom_site_fract_x
_atom_site_fract_y
_atom_site_fract_z
_atom_site_occupancy
_atom_site_attached_hydrogens
_atom_site_B_iso_or_equiv
K1 K1+ 4 e 0.1138(6) 0.1103(6) 0.0948(5) 1. 0 3.3(1) 
K2 K1+ 4 e 0.6289(5) 0.3956(6) 0.8522(5) 1. 0 3.3(1) 
K3 K1+ 4 e 0.3681(6) 0.3597(6) 0.3747(5) 1. 0 3.3(1) 
K4 K1+ 4 e 0.8534(6) 0.1322(6) 0.6461(5) 1. 0 3.3(1) 
Si1 Si4+ 4 e 0.1081(7) 0.6789(6) 0.5689(6) 1. 0 0.48(8) 
Si2 Si4+ 4 e 0.6433(7) 0.8186(6) 0.4014(7) 1. 0 0.48(8) 
Si3 Si4+ 4 e 0.5776(7) 0.1445(6) 0.6328(6) 1. 0 0.48(8) 
Si4 Si4+ 4 e 0.0948(7) 0.3507(6) 0.3128(6) 1. 0 0.48(8) 
Mg1 Mg2+ 4 e 0.6420(7) 0.5710(6) 0.1089(7) 1. 0 0.3(2) 
Mg2 Mg2+ 4 e 0.1865(7) 0.9352(6) 0.8683(7) 1. 0 0.3(2) 
Si5 Si4+ 4 e 0.4082(7) 0.8613(6) 0.9526(6) 1. 0 0.48(8) 
Si6 Si4+ 4 e 0.8988(7) 0.3880(7) 0.8670(6) 1. 0 0.48(8) 
Si7 Si4+ 4 e 0.8529(7) 0.9038(7) 0.4047(6) 1. 0 0.48(8) 
Si8 Si4+ 4 e 0.8727(6) 0.6382(6) 0.1251(6) 1. 0 0.48(8) 
Si9 Si4+ 4 e 0.3911(6) 0.1119(7) 0.1620(7) 1. 0 0.48(8) 
Si10 Si4+ 4 e 0.3225(7) 0.5984(7) 0.6491(6) 1. 0 0.48(8) 
O1 O2- 4 e 0.4576(9) 0.350(1) 0.163(1) 1. 0 0.2(1) 
O2 O2- 4 e 0.979(1) 0.162(1) 0.845(1) 1. 0 0.2(1) 
O3 O2- 4 e 0.159(1) 0.4294(8) 0.378(1) 1. 0 0.2(1) 
O4 O2- 4 e 0.603(1) 0.0553(9) 0.555(1) 1. 0 0.2(1) 
O5 O2- 4 e 0.370(1) 0.1846(9) 0.4772(9) 1. 0 0.2(1) 
O6 O2- 4 e 0.905(1) 0.372(1) 0.5432(9) 1. 0 0.2(1) 
O7 O2- 4 e 0.6719(9) 0.429(1) 0.607(1) 1. 0 0.2(1) 
O8 O2- 4 e 0.676(1) 0.7109(8) 0.364(1) 1. 0 0.2(1) 
O9 O2- 4 e 0.357(1) 0.635(1) 0.7602(8) 1. 0 0.2(1) 
O10 O2- 4 e 0.2174(9) 0.059(1) 0.349(1) 1. 0 0.2(1) 
O11 O2- 4 e 0.115(1) 0.7979(8) 0.556(1) 1. 0 0.2(1) 
O12 O2- 4 e 0.918(1) 0.868(1) 0.3076(8) 1. 0 0.2(1) 
O13 O2- 4 e 0.9854(8) 0.900(1) 0.667(1) 1. 0 0.2(1) 
O14 O2- 4 e 0.5230(9) 0.612(1) 0.427(1) 1. 0 0.2(1) 
O15 O2- 4 e 0.683(1) 0.9813(8) 0.863(1) 1. 0 0.2(1) 
O16 O2- 4 e 0.126(1) 0.5172(8) 0.067(1) 1. 0 0.2(1) 
O17 O2- 4 e 0.874(1) 0.665(1) 0.0023(8) 1. 0 0.2(1) 
O18 O2- 4 e 0.405(1) 0.857(1) 0.0744(8) 1. 0 0.2(1) 
O19 O2- 4 e 0.2125(8) 0.856(1) 0.129(1) 1. 0 0.2(1) 
O20 O2- 4 e 0.148(1) 0.2539(7) 0.823(1) 1. 0 0.2(1) 
O21 O2- 4 e 0.833(1) 0.115(1) 0.2631(9) 1. 0 0.2(1) 
O22 O2- 4 e 0.7359(9) 0.612(1) 0.867(1) 1. 0 0.2(1) 
O23 O2- 4 e 0.609(1) 0.2487(8) 0.086(1) 1. 0 0.2(1) 
O24 O2- 4 e 0.441(1) 0.395(1) 0.7773(9) 1. 0 0.2(1) 

#End of data_74571-ICSD


