data_419363-ICSD
#?2014 by Fachinformationszentrum Karlsruhe, and the U.S. Secretary of 
#Commerce on behalf of the United States.  All rights reserved.
_database_code_ICSD                419363
_audit_creation_date               2009/02/01
_chemical_name_systematic
;
Tetrastrontium Octaoxoalumoniobate(V)
;
_chemical_formula_structural       'Sr4 (Al Nb O8)'
_chemical_formula_sum              'Al1 Nb1 O8 Sr4'
_publ_section_title
;
Sr4 Al Nb O8: A new crystal structure type determined from powder X-
ray data
;
loop_
_citation_id
_citation_journal_abbrev
_citation_year
_citation_journal_volume
_citation_journal_issue
_citation_page_first
_citation_page_last
_citation_journal_id_ASTM
primary 'Journal of Solid State Chemistry' 2008 181 11 2930 2934 JSSCBI
_publ_author_name                  'Lee Eungje;Hong Seungtae'
_cell_length_a                     7.17592(2)
_cell_length_b                     5.80261(2)
_cell_length_c                     19.7408(1)
_cell_angle_alpha                  90.0
_cell_angle_beta                   97.5470(1)
_cell_angle_gamma                  90.0
_cell_volume                       814.87
_cell_formula_units_Z              4
_symmetry_space_group_name_H-M     'P 1 21/c 1'
_symmetry_Int_Tables_number        14
_refine_ls_R_factor_all            .0473
loop_
_symmetry_equiv_pos_site_id
_symmetry_equiv_pos_as_xyz
  1	'x, -y+.5, z+.5'
  2	'-x, -y, -z'
  3	'-x, y+.5, -z+.5'
  4	'x, y, z'
loop_
_atom_type_symbol
_atom_type_oxidation_number
Al3+	3
Nb5+	5
O2-	-2
Sr2+	2
loop_
_atom_site_label
_atom_site_type_symbol
_atom_site_symmetry_multiplicity
_atom_site_Wyckoff_symbol
_atom_site_fract_x
_atom_site_fract_y
_atom_site_fract_z
_atom_site_occupancy
_atom_site_attached_hydrogens
_atom_site_U_iso_or_equiv
Sr1 Sr2+ 4 e -0.02650(14) 0.75111(26) 0.09694(5) 1.0 0 0.01379(26) 
Sr2 Sr2+ 4 e 0.49650(14) 0.74924(26) 0.13494(5) 1.0 0 0.01326(28) 
Sr3 Sr2+ 4 e 0.71113(14) 0.27918(24) 0.04621(5) 1.0 0 0.01460(30) 
Sr4 Sr2+ 4 e 0.14160(15) 0.27571(27) 0.21000(6) 1.0 0 0.01915(32) 
Al1 Al3+ 4 e 0.2663(4) 0.2126(7) 0.05751(16) 1.0 0 0.0141(9) 
Nb1 Nb5+ 4 e 0.66179(13) 0.25760(24) 0.21096(5) 1.0 0 0.01035(23) 
O1 O2- 4 e 0.5001(8) 0.4931(8) 0.25525(26) 1.0 0 0.0141(10) 
O2 O2- 4 e 0.7942(6) 0.5050(7) 0.17659(21) 1.0 0 0.0088(11) 
O3 O2- 4 e 0.8233(6) 0.2277(9) 0.29435(20) 1.0 0 0.0256(12) 
O4 O2- 4 e 0.7895(6) 0.0312(8) 0.16304(21) 1.0 0 0.0143(12) 
O5 O2- 4 e 0.4495(5) 0.2848(8) 0.12551(18) 1.0 0 0.0150(10) 
O6 O2- 4 e 0.0620(6) 0.3419(7) 0.07830(22) 1.0 0 0.0220(13) 
O7 O2- 4 e 0.3407(5) 0.2989(7) -0.02140(18) 1.0 0 0.0124(10) 
O8 O2- 4 e 0.2460(6) -0.0853(6) 0.05784(20) 1.0 0 0.0123(10) 

#End of data_419363-ICSD


