data_153288-ICSD
#?2014 by Fachinformationszentrum Karlsruhe, and the U.S. Secretary of 
#Commerce on behalf of the United States.  All rights reserved.
_database_code_ICSD                153288
_audit_creation_date               2006/10/01
_audit_update_record               2013/08/01
_chemical_name_systematic          'Trilithium Hexahydridoborate'
_chemical_formula_structural       'Li3 (B H6)'
_chemical_formula_sum              'H6 B1 Li3'
_publ_section_title
;
A candidate Li B H4 for hydrogen storage: crystal structures and 
reaction mechanisms of intermediate phases
;
loop_
_citation_id
_citation_journal_abbrev
_citation_year
_citation_journal_volume
_citation_page_first
_citation_page_last
_citation_journal_id_ASTM
primary 'Applied Physics Letters' 2005 87 111904-1 111904-3 APPLAB
_publ_author_name
;
Kang Jeung Ku;Kim Se Yun;Han Young Soo;Muller, R.P.;Goddard, W.A.
;
_cell_length_a                     7.4
_cell_length_b                     7.4
_cell_length_c                     8.8
_cell_angle_alpha                  90.
_cell_angle_beta                   90.
_cell_angle_gamma                  120.
_cell_volume                       417.33
_cell_formula_units_Z              6
_symmetry_space_group_name_H-M     'R -3 H'
_symmetry_Int_Tables_number        148
loop_
_symmetry_equiv_pos_site_id
_symmetry_equiv_pos_as_xyz
  1	'x-y, x, -z'
  2	'y, -x+y, -z'
  3	'-x, -y, -z'
  4	'-x+y, -x, z'
  5	'-y, x-y, z'
  6	'x, y, z'
  7	'x-y+.6666, x+.3333, -z+.3333'
  8	'x-y+.3333, x+.6666, -z+.6666'
  9	'y+.6666, -x+y+.3333, -z+.3333'
 10	'y+.3333, -x+y+.6666, -z+.6666'
 11	'-x+.6666, -y+.3333, -z+.3333'
 12	'-x+.3333, -y+.6666, -z+.6666'
 13	'-x+y+.6666, -x+.3333, z+.3333'
 14	'-x+y+.3333, -x+.6666, z+.6666'
 15	'-y+.6666, x-y+.3333, z+.3333'
 16	'-y+.3333, x-y+.6666, z+.6666'
 17	'x+.6666, y+.3333, z+.3333'
 18	'x+.3333, y+.6666, z+.6666'
loop_
_atom_type_symbol
_atom_type_oxidation_number
B3+	3
H1-	-1
Li1+	1
loop_
_atom_site_label
_atom_site_type_symbol
_atom_site_symmetry_multiplicity
_atom_site_Wyckoff_symbol
_atom_site_fract_x
_atom_site_fract_y
_atom_site_fract_z
_atom_site_occupancy
_atom_site_attached_hydrogens
Li1 Li1+ 18 f 0.95 0.22 0.31 1. 0 
B1 B3+ 3 a 0 0 0 1. 0 
B2 B3+ 3 b 0 0 0.5 1. 0 
H1 H1- 18 f 0.85 0.83 0.10 1. 0 
H2 H1- 18 f 0.65 0.48 0.93 1. 0 

#End of data_153288-ICSD


