data_36290-ICSD
#?2014 by Fachinformationszentrum Karlsruhe, and the U.S. Secretary of 
#Commerce on behalf of the United States.  All rights reserved.
_database_code_ICSD                36290
_audit_creation_date               1984/12/31
_audit_update_record               2007/08/01
_chemical_name_systematic          'Zinc Diniobium Oxide'
_chemical_formula_structural       'Zn Nb2 O6'
_chemical_formula_sum              'Nb2 O6 Zn1'
_publ_section_title
;
Zn Ta2 O6, ein neuer Vertreter des tri Pb O2-alpha Typs (mit 
ergaenzenden Daten ueber Zn Nb2 O6)
;
loop_
_citation_id
_citation_journal_abbrev
_citation_year
_citation_journal_volume
_citation_page_first
_citation_page_last
_citation_journal_id_ASTM
primary 'Zeitschrift fuer Anorganische und Allgemeine Chemie (1950) (DE)'
 1984 508 55 60 ZAACAB
2 'Powder Diffraction' 1988 3 246 254 PODIE2
_publ_author_name                  'Waburg, M.;Mueller Buschbaum, H.'
_cell_length_a                     14.208
_cell_length_b                     5.726
_cell_length_c                     5.04
_cell_angle_alpha                  90.
_cell_angle_beta                   90.
_cell_angle_gamma                  90.
_cell_volume                       410.03
_cell_formula_units_Z              4
_symmetry_space_group_name_H-M     'P b c n'
_symmetry_Int_Tables_number        60
_refine_ls_R_factor_all            .072
loop_
_symmetry_equiv_pos_site_id
_symmetry_equiv_pos_as_xyz
  1	'x, -y, z+.5'
  2	'-x+.5, y+.5, z'
  3	'x+.5, y+.5, -z+.5'
  4	'-x, -y, -z'
  5	'-x, y, -z+.5'
  6	'x+.5, -y+.5, -z'
  7	'-x+.5, -y+.5, z+.5'
  8	'x, y, z'
loop_
_atom_type_symbol
_atom_type_oxidation_number
Nb5+	5
O2-	-2
Zn2+	2
loop_
_atom_site_label
_atom_site_type_symbol
_atom_site_symmetry_multiplicity
_atom_site_Wyckoff_symbol
_atom_site_fract_x
_atom_site_fract_y
_atom_site_fract_z
_atom_site_occupancy
_atom_site_attached_hydrogens
_atom_site_B_iso_or_equiv
Zn1 Zn2+ 4 c 0 0.3261(5) 0.25 1. 0 0.50(3) 
Nb1 Nb5+ 8 d 0.1604(1) 0.1824(2) 0.7548(5) 1. 0 0.27(2) 
O1 O2- 8 d 0.096(1) 0.109(3) 0.074(3) 1. 0 0.51(18) 
O2 O2- 8 d 0.420(1) 0.117(3) 0.087(3) 1. 0 0.43(17) 
O3 O2- 8 d 0.756(1) 0.124(2) 0.081(3) 1. 0 0.51(17) 

#End of data_36290-ICSD


