data_407045-ICSD
#?2014 by Fachinformationszentrum Karlsruhe, and the U.S. Secretary of 
#Commerce on behalf of the United States.  All rights reserved.
_database_code_ICSD                407045
_audit_creation_date               1997/11/10
_audit_update_record               2000/07/15
_chemical_name_systematic
;
Calcium Nickel Oxovanadium(IV) Bis(phosphate(V))
;
_chemical_formula_structural       'Ca Ni (V O) (P O4)2'
_chemical_formula_sum              'Ca1 Ni1 O9 P2 V1'
_publ_section_title
;
Kurze O-O-Abstaende einer gemeinsamen Polyederkante bei Verknuepfung 
von P O4 - Tetraedern mit V O6 - Oktaedern im Vanadylorthophosphat Ca 
Ni (V O) (P O4)2
;
loop_
_citation_id
_citation_journal_abbrev
_citation_year
_citation_journal_volume
_citation_page_first
_citation_page_last
_citation_journal_id_ASTM
primary 'Zeitschrift fuer Naturforschung, B: Chemical Sciences'
 1997 52 981 984 ZNBSEN
_publ_author_name                  'Mueller Buschbaum, H.;Meyer, S.'
_cell_length_a                     14.113(1)
_cell_length_b                     6.4075(10)
_cell_length_c                     7.3635(10)
_cell_angle_alpha                  90.
_cell_angle_beta                   90.
_cell_angle_gamma                  90.
_cell_volume                       665.87
_cell_formula_units_Z              4
_symmetry_space_group_name_H-M     'P n m a'
_symmetry_Int_Tables_number        62
_refine_ls_R_factor_all            .0778
loop_
_symmetry_equiv_pos_site_id
_symmetry_equiv_pos_as_xyz
  1	'x+.5, y, -z+.5'
  2	'x, -y+.5, z'
  3	'-x+.5, y+.5, z+.5'
  4	'-x, -y, -z'
  5	'-x+.5, -y, z+.5'
  6	'-x, y+.5, -z'
  7	'x+.5, -y+.5, -z+.5'
  8	'x, y, z'
loop_
_atom_type_symbol
_atom_type_oxidation_number
Ca2+	2
Ni2+	2
O2-	-2
P5+	5
V4+	4
loop_
_atom_site_label
_atom_site_type_symbol
_atom_site_symmetry_multiplicity
_atom_site_Wyckoff_symbol
_atom_site_fract_x
_atom_site_fract_y
_atom_site_fract_z
_atom_site_occupancy
_atom_site_attached_hydrogens
Ca1 Ca2+ 4 c 0.22026(7) 0.25 0.12638(15) 1. 0 
V1 V4+ 4 c 0.38201(5) 0.75 0.15540(11) 1. 0 
Ni1 Ni2+ 4 a 0 0.5 0 1. 0 
P1 P5+ 4 c 0.19027(9) 0.75 0.1150(2) 1. 0 
P2 P5+ 4 c 0.43758(8) 0.25 0.1471(2) 1. 0 
O1 O2- 8 d 0.3704(2) 0.4398(4) 0.1308(3) 1. 0 
O2 O2- 4 c 0.2670(2) 0.75 0.9633(5) 1. 0 
O3 O2- 4 c 0.4854(3) 0.75 0.9941(6) 1. 0 
O4 O2- 4 c 0.2540(2) 0.75 0.2877(5) 1. 0 
O5 O2- 4 c 0.4382(3) 0.75 0.3528(5) 1. 0 
O6 O2- 4 c 0.9851(3) 0.25 0.1635(5) 1. 0 
O7 O2- 8 d 0.1301(2) 0.5516(4) 0.1096(4) 1. 0 

loop_
_atom_site_aniso_label
_atom_site_aniso_type_symbol
_atom_site_aniso_U_11
_atom_site_aniso_U_22
_atom_site_aniso_U_33
_atom_site_aniso_U_12
_atom_site_aniso_U_13
_atom_site_aniso_U_23
Ca1 Ca2+ 0.0124(4) 0.0109(4) 0.0151(5) 0 -.0009(3) 0
V1 V4+ 0.0074(3) 0.0080(3) 0.0043(3) 0 -.0003(2) 0
Ni1 Ni2+ 0.0097(3) 0.0110(3) 0.0089(3) -.0001(2) 0.0004(2) 0.0006(2)
P1 P5+ 0.0088(4) 0.0113(5) 0.0112(6) 0 -.0009(4) 0
P2 P5+ 0.0097(5) 0.0097(5) 0.0072(5) 0 0.0005(4) 0
O1 O2- 0.0123(9) 0.0124(11) 0.0116(10) 0.0015(8) -.0008(8) 0.0010(9)
O2 O2- 0.0125(15) 0.015(2) 0.008(2) 0 -.0012(11) 0
O3 O2- 0.017(2) 0.024(2) 0.017(2) 0 0.0107(15) 0
O4 O2- 0.0109(13) 0.017(2) 0.009(2) 0 -.0013(11) 0
O5 O2- 0.015(2) 0.012(2) 0.0099(15) 0 -.0038(12) 0
O6 O2- 0.020(2) 0.013(2) 0.009(2) 0 0.0073(12) 0
O7 O2- 0.0114(9) 0.0129(11) 0.0182(12) -.0010(8) -.0037(9) 0.0000(9)
#End of data_407045-ICSD


