data_100398-ICSD
#?2014 by Fachinformationszentrum Karlsruhe, and the U.S. Secretary of 
#Commerce on behalf of the United States.  All rights reserved.
_database_code_ICSD                100398
_audit_creation_date               1980/01/01
_audit_update_record               2007/08/01
_chemical_name_systematic          'Dialuminium Silicate Oxide'
_chemical_formula_structural       'Al2 (Si O4) O'
_chemical_formula_sum              'Al2 O5 Si1'
_chemical_name_mineral             Andalusite
_publ_section_title
;
Thermal expansion and high temperature crystal chemistry of the Al2 
Si O5 polymorphs
;
loop_
_citation_id
_citation_journal_abbrev
_citation_year
_citation_journal_volume
_citation_page_first
_citation_page_last
_citation_journal_id_ASTM
primary 'American Mineralogist' 1979 64 573 586 AMMIAY
2
;
Zeitschrift fuer Kristallographie, Kristallgeometrie, Kristallphysik, 
Kristallchemie (-144,1977)
;
 1928 68 503 521 ZEKGAX
3
;
Zeitschrift fuer Kristallographie, Kristallgeometrie, Kristallphysik, 
Kristallchemie (-144,1977)
;
 1929 71 205 218 ZEKGAX
4
;
Zeitschrift fuer Kristallographie, Kristallgeometrie, Kristallphysik, 
Kristallchemie (-144,1977)
;
 1961 115 269 290 ZEKGAX
_publ_author_name                  'Winter, J.K.;Ghose, S.'
_cell_length_a                     7.8759(14)
_cell_length_b                     7.9567(18)
_cell_length_c                     5.5664(10)
_cell_angle_alpha                  90.
_cell_angle_beta                   90.
_cell_angle_gamma                  90.
_cell_volume                       348.82
_cell_formula_units_Z              4
_symmetry_space_group_name_H-M     'P n n m'
_symmetry_Int_Tables_number        58
_refine_ls_R_factor_all            .029
loop_
_symmetry_equiv_pos_site_id
_symmetry_equiv_pos_as_xyz
  1	'x+.5, -y+.5, z+.5'
  2	'-x+.5, y+.5, z+.5'
  3	'x, y, -z'
  4	'-x, -y, -z'
  5	'-x+.5, y+.5, -z+.5'
  6	'x+.5, -y+.5, -z+.5'
  7	'-x, -y, z'
  8	'x, y, z'
loop_
_atom_type_symbol
_atom_type_oxidation_number
Al3+	3
O2-	-2
Si4+	4
loop_
_atom_site_label
_atom_site_type_symbol
_atom_site_symmetry_multiplicity
_atom_site_Wyckoff_symbol
_atom_site_fract_x
_atom_site_fract_y
_atom_site_fract_z
_atom_site_occupancy
_atom_site_attached_hydrogens
Al1 Al3+ 4 e 0 0 0.2420(2) 1. 0 
Al2 Al3+ 4 g 0.3721(1) 0.1401(1) 0.5 1. 0 
O1 O2- 4 g 0.4231(2) 0.3650(3) 0 1. 0 
O2 O2- 4 g 0.1034(3) 0.4009(3) 0 1. 0 
Si1 Si4+ 4 g 0.2463(1) 0.2547(1) 0 1. 0 
O3 O2- 4 g 0.4256(3) 0.3631(3) 0.5 1. 0 
O4 O2- 8 h 0.2335(2) 0.1371(2) 0.2390(3) 1. 0 

#End of data_100398-ICSD


