data_51755-ICSD
#?2014 by Fachinformationszentrum Karlsruhe, and the U.S. Secretary of 
#Commerce on behalf of the United States.  All rights reserved.
_database_code_ICSD                51755
_audit_creation_date               2004/04/01
_chemical_name_systematic          'Trilithium Catena-alumodiborate'
_chemical_formula_structural       'Li3 (Al B2 O6)'
_chemical_formula_sum              'Al1 B2 Li3 O6'
_publ_section_title
;
Synthesis, structure, and thermal stability of Li3 Al B3 O6
;
loop_
_citation_id
_citation_journal_abbrev
_citation_year
_citation_journal_volume
_citation_page_first
_citation_page_last
_citation_journal_id_ASTM
primary 'Journal of Solid State Chemistry' 2002 163 369 376 JSSCBI
_publ_author_name
;
He, M.;Chen, X.-L.;Gramlich, V.;Baerlocher, C.;Zhou, T.;Hu, B.Q.
;
_cell_length_a                     4.876(8)
_cell_length_b                     6.191(16)
_cell_length_c                     7.910(20)
_cell_angle_alpha                  74.46(18)
_cell_angle_beta                   89.44(17)
_cell_angle_gamma                  89.52(18)
_cell_volume                       230.04
_cell_formula_units_Z              2
_symmetry_space_group_name_H-M     'P -1'
_symmetry_Int_Tables_number        2
_refine_ls_R_factor_all            .0687
loop_
_symmetry_equiv_pos_site_id
_symmetry_equiv_pos_as_xyz
  1	'-x, -y, -z'
  2	'x, y, z'
loop_
_atom_type_symbol
_atom_type_oxidation_number
Al3+	3
B3+	3
Li1+	1
O2-	-2
loop_
_atom_site_label
_atom_site_type_symbol
_atom_site_symmetry_multiplicity
_atom_site_Wyckoff_symbol
_atom_site_fract_x
_atom_site_fract_y
_atom_site_fract_z
_atom_site_occupancy
_atom_site_attached_hydrogens
Al1 Al3+ 2 i 0.1506(5) 0.5504(4) 0.2721(3) 1. 0 
B1 B3+ 2 i -.161(2) 0.822(1) 0.431(1) 1. 0 
B2 B3+ 2 i 0.667(2) 0.672(1) 0.089(1) 1. 0 
O1 O2- 2 i 0.1131(8) 0.7567(7) 0.3957(5) 1. 0 
O2 O2- 2 i -.2896(7) 0.9963(6) 0.3162(5) 1. 0 
O3 O2- 2 i -.2766(7) 0.6988(6) 0.5916(5) 1. 0 
O4 O2- 2 i 0.3818(8) 0.6669(6) 0.1067(5) 1. 0 
O5 O2- 2 i 0.8141(8) 0.5089(7) 0.2143(5) 1. 0 
O6 O2- 2 i 0.7881(8) 0.8401(6) 0.9650(5) 1. 0 
Li1 Li1+ 2 i -.347(2) 0.264(2) 0.403(2) 1. 0 
Li2 Li1+ 2 i -.167(2) 0.117(2) 0.068(1) 1. 0 
Li3 Li1+ 2 i 0.680(2) 0.954(2) 0.745(2) 1. 0 

#End of data_51755-ICSD


