data_68522-ICSD
#?2014 by Fachinformationszentrum Karlsruhe, and the U.S. Secretary of 
#Commerce on behalf of the United States.  All rights reserved.
_database_code_ICSD                68522
_audit_creation_date               1991/07/10
_chemical_name_systematic
;
Lithium Molybdenum(III) Diphosphate
;
_chemical_formula_structural       'Li Mo (P2 O7)'
_chemical_formula_sum              'Li1 Mo1 O7 P2'
_publ_section_title
;
Structure determination of LiMoP2O7 from multiphase powder X-ray 
diffraction data
;
loop_
_citation_id
_citation_journal_abbrev
_citation_year
_citation_journal_volume
_citation_page_first
_citation_page_last
_citation_journal_id_ASTM
primary 'Journal of Applied Crystallography' 1990 23 520 525 JACGAR
_publ_author_name                  'Wang, S.-L.;Wang, P.C.;Nieh, Y.P.'
_cell_length_a                     4.8987(3)
_cell_length_b                     8.3912(4)
_cell_length_c                     7.0306(4)
_cell_angle_alpha                  90.
_cell_angle_beta                   109.327(4)
_cell_angle_gamma                  90.
_cell_volume                       272.71
_cell_formula_units_Z              2
_symmetry_space_group_name_H-M     'P 1 21 1'
_symmetry_Int_Tables_number        4
_refine_ls_R_factor_all            .054
loop_
_symmetry_equiv_pos_site_id
_symmetry_equiv_pos_as_xyz
  1	'-x, y+.5, -z'
  2	'x, y, z'
loop_
_atom_type_symbol
_atom_type_oxidation_number
Li1+	1
Mo3+	3
O2-	-2
P5+	5
loop_
_atom_site_label
_atom_site_type_symbol
_atom_site_symmetry_multiplicity
_atom_site_Wyckoff_symbol
_atom_site_fract_x
_atom_site_fract_y
_atom_site_fract_z
_atom_site_occupancy
_atom_site_attached_hydrogens
_atom_site_U_iso_or_equiv
Mo1 Mo3+ 2 a 0.2116(9) 0.439 0.7258(6) 1. 0 0 
P1 P5+ 2 a 0.2117(31) 0.7298(20) 1.0844(21) 1. 0 0.002(4) 
P2 P5+ 2 a 0.4025(31) 0.1220(22) 0.5254(20) 1. 0 0.008(4) 
O1 O2- 2 a -.2069(55) 0.4748(42) 0.5082(38) 1. 0 0.005(9) 
O2 O2- 2 a 0.3809(70) 0.6224(52) 0.5873(48) 1. 0 0.015(14) 
O3 O2- 2 a 0.0473(72) 0.2862(42) 0.8568(47) 1. 0 0.008(11) 
O4 O2- 2 a 0.2310(76) 0.2832(41) 0.4929(50) 1. 0 0.016(10) 
O5 O2- 2 a 0.1226(83) 0.6322(50) 0.8807(52) 1. 0 0.005(14) 
O6 O2- 2 a 0.6125(78) 0.3746(44) 0.9149(52) 1. 0 0.015(12) 
O7 O2- 2 a 0.4059(49) 0.5994(41) 1.2363(37) 1. 0 0.017(9) 
Li1 Li1+ 2 a 0.208(20) 0.812(7) 0.698(11) 1. 0 0.024(15) 

loop_
_atom_site_aniso_label
_atom_site_aniso_type_symbol
_atom_site_aniso_U_11
_atom_site_aniso_U_22
_atom_site_aniso_U_33
_atom_site_aniso_U_12
_atom_site_aniso_U_13
_atom_site_aniso_U_23
Mo1 Mo3+ 0.0031(22) 0.0037(20) 0.0050(21) 0.0015(32) 0.0019(17) 0.0017(22)
#End of data_68522-ICSD


