data_38050-ICSD
#?2014 by Fachinformationszentrum Karlsruhe, and the U.S. Secretary of 
#Commerce on behalf of the United States.  All rights reserved.
_database_code_ICSD                38050
_audit_creation_date               1983/12/31
_audit_update_record               2011/08/01
_chemical_name_systematic
;
Octasodium Tetragermanium(III) Telluride
;
_chemical_formula_structural       'Na8 Ge4 Te10'
_chemical_formula_sum              'Ge4 Na8 Te10'
_publ_section_title
;
Neuartige (Si4 Te10)8- und (Ge4 Te10)8- Anionen im Na8 Si4 Te10 bzw. 
Na8 Se4 Te10
;
loop_
_citation_id
_citation_journal_abbrev
_citation_year
_citation_journal_volume
_citation_page_first
_citation_page_last
_citation_journal_id_ASTM
primary 'Revue de Chimie Minerale' 1983 20 78 87 RVCMA8
_publ_author_name
;
Eisenmann, B.;Schwerer, H.;Schaefer, H.
;
_cell_length_a                     14.128(12)
_cell_length_b                     12.938(12)
_cell_length_c                     15.028(12)
_cell_angle_alpha                  90.
_cell_angle_beta                   92.71(10)
_cell_angle_gamma                  90.
_cell_volume                       2743.87
_cell_formula_units_Z              4
_symmetry_space_group_name_H-M     'P 1 21/c 1'
_symmetry_Int_Tables_number        14
_refine_ls_R_factor_all            .099
loop_
_symmetry_equiv_pos_site_id
_symmetry_equiv_pos_as_xyz
  1	'x, -y+.5, z+.5'
  2	'-x, -y, -z'
  3	'-x, y+.5, -z+.5'
  4	'x, y, z'
loop_
_atom_type_symbol
_atom_type_oxidation_number
Ge3+	3
Na1+	1
Te2-	-2
loop_
_atom_site_label
_atom_site_type_symbol
_atom_site_symmetry_multiplicity
_atom_site_Wyckoff_symbol
_atom_site_fract_x
_atom_site_fract_y
_atom_site_fract_z
_atom_site_occupancy
_atom_site_attached_hydrogens
_atom_site_U_iso_or_equiv
Te1 Te2- 4 e 0.3965(1) 0.1196(2) 0.0447(1) 1. 0 0 
Te2 Te2- 4 e 0.1106(1) 0.1290(2) 0.9520(1) 1. 0 0 
Te3 Te2- 4 e 0.0976(1) 0.6289(2) 0.9558(1) 1. 0 0 
Te4 Te2- 4 e 0.5141(1) 0.8400(2) 0.2662(1) 1. 0 0 
Te5 Te2- 4 e 0.9949(1) 0.4037(2) 0.7512(1) 1. 0 0 
Te6 Te2- 4 e 0.3870(1) 0.6159(2) 0.0360(1) 1. 0 0 
Te7 Te2- 4 e 0.2944(1) 0.3830(1) 0.8332(1) 1. 0 0 
Te8 Te2- 4 e 0.2127(1) 0.8468(2) 0.1450(1) 1. 0 0 
Te9 Te2- 4 e 0.1897(1) 0.3625(1) 0.1642(1) 1. 0 0 
Te10 Te2- 4 e 0.2974(1) 0.5949(1) 0.3426(1) 1. 0 0 
Ge1 Ge3+ 4 e 0.2209(2) 0.6636(2) 0.0824(2) 1. 0 0 
Ge2 Ge3+ 4 e 0.2802(2) 0.4091(2) 0.4137(2) 1. 0 0 
Ge3 Ge3+ 4 e 0.1744(2) 0.5584(2) 0.2097(2) 1. 0 0 
Ge4 Ge3+ 4 e 0.3209(2) 0.1969(2) 0.7859(2) 1. 0 0 
Na1 Na1+ 4 e 0.0977(11) 0.1209(12) 0.4409(10) 1. 0 0.0288(30) 
Na2 Na1+ 4 e 0.3810(12) 0.3654(14) 0.0354(11) 1. 0 0.0384(37) 
Na3 Na1+ 4 e 0.2017(12) 0.0909(14) 0.1425(11) 1. 0 0.0371(36) 
Na4 Na1+ 4 e 0.0939(10) 0.6211(12) 0.4492(10) 1. 0 0.0268(29) 
Na5 Na1+ 4 e 0.4914(11) 0.9096(13) 0.7298(11) 1. 0 0.0328(33) 
Na6 Na1+ 4 e 0.0119(11) 0.8418(12) 0.2333(10) 1. 0 0.0295(31) 
Na7 Na1+ 4 e 0.5764(11) 0.3652(13) 0.428(1) 1. 0 0.0323(33) 
Na8 Na1+ 4 e 0.7143(12) 0.3570(14) 0.1545(12) 1. 0 0.0401(38) 

loop_
_atom_site_aniso_label
_atom_site_aniso_type_symbol
_atom_site_aniso_U_11
_atom_site_aniso_U_22
_atom_site_aniso_U_33
_atom_site_aniso_U_12
_atom_site_aniso_U_13
_atom_site_aniso_U_23
Te1 Te2- 0.0172(9) 0.022(1) 0.0110(8) 0.0025(8) -.0012(7) 0.0014(7)
Te2 Te2- 0.0129(8) 0.0248(10) 0.0185(9) 0.0022(8) 0.0078(7) 0.0018(8)
Te3 Te2- 0.0178(9) 0.0241(10) 0.0126(8) -.0034(8) -.0009(7) 0.0038(8)
Te4 Te2- 0.0098(8) 0.0260(11) 0.0201(9) -.0008(7) 0.0063(7) 0.0012(8)
Te5 Te2- 0.0124(8) 0.0202(10) 0.0166(9) 0.0055(7) 0.0069(6) 0.0028(7)
Te6 Te2- 0.0137(8) 0.0203(10) 0.0237(10) 0.0012(7) 0.0099(7) -.0025(8)
Te7 Te2- 0.0235(10) 0.0086(8) 0.0175(9) 0.0026(7) 0.0050(7) -.0024(7)
Te8 Te2- 0.0228(10) 0.0119(9) 0.0186(9) 0.0000(7) 0.0071(7) -.0034(7)
Te9 Te2- 0.0172(9) 0.0107(8) 0.0118(8) -.0001(7) -.0002(6) -.0028(6)
Te10 Te2- 0.0172(9) 0.116(8) 0.0105(8) 0.0055(7) 0.0013(6) -.0016(6)
Ge1 Ge3+ 0.0111(12) 0.0099(13) 0.0076(12) -.0006(10) 0.0061(9) 0.0009(10)
Ge2 Ge3+ 0.0102(12) 0.0147(14) 0.0064(12) -.0013(11) 0.0041(9) 0.000(1)
Ge3 Ge3+ 0.0115(13) 0.0100(13) 0.0085(10) -.0005(10) 0.0043(10) 0.0024(10)
Ge4 Ge3+ 0.0101(12) 0.0101(13) 0.0100(12) 0.0014(10) 0.0045(10) -.0005(10)
#End of data_38050-ICSD


