data_152574-ICSD
#?2014 by Fachinformationszentrum Karlsruhe, and the U.S. Secretary of 
#Commerce on behalf of the United States.  All rights reserved.
_database_code_ICSD                152574
_audit_creation_date               2006/10/01
_audit_update_record               2008/02/01
_chemical_name_systematic          'Distrontium Magnesium Tungstate'
_chemical_formula_structural       'Sr2 Mg (W O6)'
_chemical_formula_sum              'Mg1 O6 Sr2 W1'
_publ_section_title
;
Synthesis, phase transition and thermal expansion studies on M2 Mg W 
O6 (M= Ba(2+) and Sr(2+)) double perovskites
;
loop_
_citation_id
_citation_journal_abbrev
_citation_year
_citation_journal_volume
_citation_page_first
_citation_page_last
_citation_journal_id_ASTM
primary 'Journal of Alloys and Compounds' 2005 390 100 105 JALCEU
_publ_author_name
;
Patwe, S.J.;Achary, S.N.;Mathews, M.D.;Tyagi, A.K.
;
_cell_length_a                     5.5876(1)
_cell_length_b                     5.5876(1)
_cell_length_c                     7.9490(3)
_cell_angle_alpha                  90.
_cell_angle_beta                   90.
_cell_angle_gamma                  90.
_cell_volume                       248.18
_cell_formula_units_Z              2
_symmetry_space_group_name_H-M     'I 4/m'
_symmetry_Int_Tables_number        87
_refine_ls_R_factor_all            .0294
loop_
_symmetry_equiv_pos_site_id
_symmetry_equiv_pos_as_xyz
  1	'-y, x, -z'
  2	'y, -x, -z'
  3	'x, y, -z'
  4	'-x, -y, -z'
  5	'y, -x, z'
  6	'-y, x, z'
  7	'-x, -y, z'
  8	'x, y, z'
  9	'-y+.5, x+.5, -z+.5'
 10	'y+.5, -x+.5, -z+.5'
 11	'x+.5, y+.5, -z+.5'
 12	'-x+.5, -y+.5, -z+.5'
 13	'y+.5, -x+.5, z+.5'
 14	'-y+.5, x+.5, z+.5'
 15	'-x+.5, -y+.5, z+.5'
 16	'x+.5, y+.5, z+.5'
loop_
_atom_type_symbol
_atom_type_oxidation_number
Mg2+	2
O2-	-2
Sr2+	2
W6+	6
loop_
_atom_site_label
_atom_site_type_symbol
_atom_site_symmetry_multiplicity
_atom_site_Wyckoff_symbol
_atom_site_fract_x
_atom_site_fract_y
_atom_site_fract_z
_atom_site_occupancy
_atom_site_attached_hydrogens
_atom_site_B_iso_or_equiv
Sr1 Sr2+ 4 d 0 0.5 0.250 1. 0 0.8(1) 
Mg1 Mg2+ 2 b 0 0 0.5 1. 0 0.7(0) 
W1 W6+ 2 a 0 0 0 1. 0 0.6(1) 
O1 O2- 8 h 0.215(4) 0.290(4) 0 1. 0 0.7 
O2 O2- 4 e 0 0 0.247(3) 1. 0 0.7 

#End of data_152574-ICSD


