data_171251-ICSD
#?2014 by Fachinformationszentrum Karlsruhe, and the U.S. Secretary of 
#Commerce on behalf of the United States.  All rights reserved.
_database_code_ICSD                171251
_audit_creation_date               2006/10/01
_chemical_name_systematic          'Sodium Yttrium Tetraiodate(V)'
_chemical_formula_structural       'Na Y I4 O12'
_chemical_formula_sum              'I4 Na1 O12 Y1'
_publ_section_title
;
New metal iodates: syntheses, structures, and characterizations of 
noncentrosymmetric La (I O3)3 amd Na Y I4 O12 and centrosymmetric 
beta-Cs3 I4 O11 and Rb2 I6 O15 (O H)2.H2 O
;
loop_
_citation_id
_citation_journal_abbrev
_citation_year
_citation_journal_volume
_citation_journal_issue
_citation_page_first
_citation_page_last
_citation_journal_id_ASTM
primary 'Inorganic Chemistry' 2005 44 25 9353 9359 INOCAJ
_publ_author_name                  'Ok, K.M.;Halasyamani, P.S.'
_cell_length_a                     31.235(3)
_cell_length_b                     5.5679(5)
_cell_length_c                     12.5451(12)
_cell_angle_alpha                  90
_cell_angle_beta                   91.120(3)
_cell_angle_gamma                  90
_cell_volume                       2181.34
_cell_formula_units_Z              8
_symmetry_space_group_name_H-M     'C 1 c 1'
_symmetry_Int_Tables_number        9
_refine_ls_R_factor_all            .0536
loop_
_symmetry_equiv_pos_site_id
_symmetry_equiv_pos_as_xyz
  1	'x, -y, z+.5'
  2	'x, y, z'
  3	'x+.5, -y+.5, z+.5'
  4	'x+.5, y+.5, z'
loop_
_atom_type_symbol
_atom_type_oxidation_number
I5+	5
Na1+	1
O2-	-2
Y3+	3
loop_
_atom_site_label
_atom_site_type_symbol
_atom_site_symmetry_multiplicity
_atom_site_Wyckoff_symbol
_atom_site_fract_x
_atom_site_fract_y
_atom_site_fract_z
_atom_site_occupancy
_atom_site_attached_hydrogens
_atom_site_U_iso_or_equiv
I1 I5+ 4 a 0.00366(4) 0.2957(2) 0.96500(10) 1 0 0.0097(3) 
I2 I5+ 4 a -0.25344(5) -0.1977(2) 0.88189(9) 1 0 0.0104(3) 
I3 I5+ 4 a -0.15759(5) 0.6852(2) 1.31254(10) 1 0 0.0113(3) 
I4 I5+ 4 a -0.09458(5) -0.1747(2) 1.03917(10) 1 0 0.0118(3) 
I5 I5+ 4 a -0.19693(5) 0.2431(2) 1.08535(10) 1 0 0.0098(3) 
I6 I5+ 4 a -0.05521(5) 0.7367(2) 0.76839(10) 1 0 0.0104(3) 
I7 I5+ 4 a 0.08386(5) 0.1994(2) 0.37569(10) 1 0 0.0129(3) 
I8 I5+ 4 a 0.14231(5) 0.2571(2) 0.71572(11) 1 0 0.0098(3) 
Y1 Y3+ 4 a 0.22638(8) -0.2136(3) 0.67651(15) 1 0 0.0099(5) 
Y2 Y3+ 4 a 0.02132(7) 0.1919(4) 0.67036(16) 1 0 0.0109(5) 
Na1 Na1+ 4 a 0.1863(4) 0.2214(18) 0.4698(9) 1 0 0.0266(19) 
Na2 Na1+ 4 a 0.1105(4) -0.2761(17) 0.5624(9) 1 0 0.0266(19) 
O1 O2- 4 a 0.0268(5) 0.564(3) 1.0257(11) 1 0 0.017(3) 
O2 O2- 4 a 0.0391(6) 0.085(3) 1.0353(12) 1 0 0.020(3) 
O3 O2- 4 a -0.0510(5) 0.569(3) 0.8918(11) 1 0 0.018(3) 
O4 O2- 4 a 0.0352(6) 0.328(3) 0.8436(13) 1 0 0.022(3) 
O5 O2- 4 a -0.2766(5) 0.082(3) 0.8332(11) 1 0 0.017(3) 
O6 O2- 4 a -0.2874(5) -0.406(3) 0.8088(11) 1 0 0.017(3) 
O7 O2- 4 a -0.2842(5) -0.184(3) 1.0012(12) 1 0 0.014(3) 
O8 O2- 4 a -0.1998(5) 0.058(3) 0.9651(11) 1 0 0.016(3) 
O9 O2- 4 a -0.2067(5) 0.566(3) 1.2508(12) 1 0 0.016(3) 
O10 O2- 4 a -0.1204(6) 0.529(3) 1.2278(12) 1 0 0.019(3) 
O11 O2- 4 a -0.1568(6) 0.501(3) 1.4293(11) 1 0 0.020(3) 
O12 O2- 4 a -0.0436(5) -0.059(3) 1.0939(11) 1 0 0.015(3) 
O13 O2- 4 a -0.0976(5) 0.001(3) 0.9185(11) 1 0 0.017(3) 
O14 O2- 4 a -0.1294(6) -0.006(3) 1.1244(13) 1 0 0.023(3) 
O15 O2- 4 a -0.2433(5) 0.427(3) 1.0574(11) 1 0 0.017(3) 
O16 O2- 4 a -0.2210(5) 0.039(3) 1.1780(11) 1 0 0.015(3) 
O17 O2- 4 a -0.0101(6) 0.943(3) 0.7939(11) 1 0 0.021(3) 
O18 O2- 4 a -0.0280(6) 0.528(3) 0.6788(12) 1 0 0.023(3) 
O19 O2- 4 a 0.1227(6) -0.021(3) 0.4182(13) 1 0 0.020(3) 
O20 O2- 4 a 0.0800(5) 0.104(3) 0.2360(12) 1 0 0.021(3) 
O21 O2- 4 a 0.1230(6) 0.443(3) 0.3706(12) 1 0 0.025(4) 
O22 O2- 4 a 0.1642(5) 0.014(3) 0.6343(10) 1 0 0.013(3) 
O23 O2- 4 a 0.1722(5) 0.499(3) 0.6511(10) 1 0 0.011(3) 
O24 O2- 4 a 0.0936(6) 0.325(3) 0.6417(12) 1 0 0.018(3) 

loop_
_atom_site_aniso_label
_atom_site_aniso_type_symbol
_atom_site_aniso_U_11
_atom_site_aniso_U_22
_atom_site_aniso_U_33
_atom_site_aniso_U_12
_atom_site_aniso_U_13
_atom_site_aniso_U_23
I1 I5+ 0.0085(8) 0.0099(6) 0.0109(6) -0.0003(5) 0.0018(6) 0.0019(5)
I2 I5+ 0.0113(8) 0.0102(6) 0.0099(6) 0.0008(5) 0.0016(5) -0.0009(5)
I3 I5+ 0.0093(8) 0.0131(7) 0.0117(6) 0.0002(5) 0.0015(5) -0.0003(5)
I4 I5+ 0.0100(8) 0.0141(6) 0.0115(6) -0.0008(6) 0.0017(6) -0.0002(5)
I5 I5+ 0.0091(8) 0.0096(6) 0.0110(7) -0.0005(6) 0.0022(5) -0.0011(5)
I6 I5+ 0.0102(9) 0.0109(6) 0.0102(6) -0.0008(6) 0.0026(5) 0.0007(5)
I7 I5+ 0.0144(8) 0.0129(6) 0.0115(6) 0.0003(6) 0.0048(5) -0.0009(5)
I8 I5+ 0.0088(8) 0.0099(6) 0.0109(6) 0.0010(5) 0.0029(5) 0.0007(5)
Y1 Y3+ 0.0120(13) 0.0091(9) 0.0085(9) 0.0000(8) 0.0017(9) 0.0006(7)
Y2 Y3+ 0.0094(12) 0.0134(10) 0.0099(9) -0.0017(8) 0.0029(8) -0.0001(8)
Na1 Na1+ 0.020(5) 0.030(4) 0.031(4) -0.004(3) 0.005(4) 0.012(3)
Na2 Na1+ 0.020(5) 0.030(4) 0.031(4) -0.004(3) 0.005(4) 0.012(3)
#End of data_171251-ICSD


