data_644936-ICSD
#?2014 by Fachinformationszentrum Karlsruhe, and the U.S. Secretary of 
#Commerce on behalf of the United States.  All rights reserved.
_database_code_ICSD                644936
_audit_creation_date               2013/08/01
_chemical_name_systematic          'Sodium Palladium Selenide (2/1/2)'
_chemical_formula_structural       'Na2 Pd Se2'
_chemical_formula_sum              'Na2 Pd1 Se2'
_publ_section_title
;
Neue Verbindungen im Na2 Pt S2 - und im K2 Pt S2 - Typ
;
loop_
_citation_id
_citation_journal_abbrev
_citation_year
_citation_journal_volume
_citation_page_first
_citation_page_last
_citation_journal_id_ASTM
primary 'Journal of the Less-Common Metals' 1989 154 261 270 JCOMAH
_publ_author_name
;
Bronger, W.;Jaeger, S.;Rennau, R.;Schmitz, D.
;
_cell_length_a                     3.690(1)
_cell_length_b                     10.757(2)
_cell_length_c                     11.338(3)
_cell_angle_alpha                  90.0
_cell_angle_beta                   90.0
_cell_angle_gamma                  90.0
_cell_volume                       450.04
_cell_formula_units_Z              4
_symmetry_space_group_name_H-M     'C m c 21'
_symmetry_Int_Tables_number        36
loop_
_symmetry_equiv_pos_site_id
_symmetry_equiv_pos_as_xyz
  1	'x, -y, z+.5'
  2	'-x, -y, z+.5'
  3	'-x, y, z'
  4	'x, y, z'
  5	'x+.5, -y+.5, z+.5'
  6	'-x+.5, -y+.5, z+.5'
  7	'-x+.5, y+.5, z'
  8	'x+.5, y+.5, z'
loop_
_atom_type_symbol
_atom_type_oxidation_number
Na1+	1
Pd2+	2
Se2-	-2
loop_
_atom_site_label
_atom_site_type_symbol
_atom_site_symmetry_multiplicity
_atom_site_Wyckoff_symbol
_atom_site_fract_x
_atom_site_fract_y
_atom_site_fract_z
_atom_site_occupancy
_atom_site_attached_hydrogens
Na1 Na1+ 4 a 0 0.435 0.128 1. 0 
Na2 Na1+ 4 a 0 0.823 0.402 1. 0 
Pd1 Pd2+ 4 a 0 0.136 0.25 1. 0 
Se1 Se2- 4 a 0 0.722 0.129 1. 0 
Se2 Se2- 4 a 0 0.552 0.369 1. 0 

#End of data_644936-ICSD


