data_160848-ICSD
#?2014 by Fachinformationszentrum Karlsruhe, and the U.S. Secretary of 
#Commerce on behalf of the United States.  All rights reserved.
_database_code_ICSD                160848
_audit_creation_date               2009/02/01
_chemical_name_systematic
;
Magnesium Germanate - Post-perovskite
;
_chemical_formula_structural       'Mg (Ge O3)'
_chemical_formula_sum              'Ge1 Mg1 O3'
_publ_section_title
;
Rietveld structure refinement of Mg Ge O3 post-perovskite phase to 1 
Mbar
;
loop_
_citation_id
_citation_journal_abbrev
_citation_year
_citation_journal_volume
_citation_page_first
_citation_page_last
_citation_journal_id_ASTM
primary 'American Mineralogist' 2008 93 965 976 AMMIAY
_publ_author_name
;
Kubo, A.;Kiefer, B.;Shim Sang-Heon;Shen Guoyin;Prakapenka, 
V.B.;Duffy, T.S.
;
_cell_length_a                     2.5677(7)
_cell_length_b                     8.3132(19)
_cell_length_c                     6.3453(15)
_cell_angle_alpha                  90.
_cell_angle_beta                   90.
_cell_angle_gamma                  90.
_cell_volume                       135.45
_cell_formula_units_Z              4
_symmetry_space_group_name_H-M     'C m c m'
_symmetry_Int_Tables_number        63
_refine_ls_R_factor_all            .028
loop_
_symmetry_equiv_pos_site_id
_symmetry_equiv_pos_as_xyz
  1	'-x, y, -z+.5'
  2	'-x, -y, z+.5'
  3	'-x, y, z'
  4	'-x, -y, -z'
  5	'x, -y, z+.5'
  6	'x, y, -z+.5'
  7	'x, -y, -z'
  8	'x, y, z'
  9	'-x+.5, y+.5, -z+.5'
 10	'-x+.5, -y+.5, z+.5'
 11	'-x+.5, y+.5, z'
 12	'-x+.5, -y+.5, -z'
 13	'x+.5, -y+.5, z+.5'
 14	'x+.5, y+.5, -z+.5'
 15	'x+.5, -y+.5, -z'
 16	'x+.5, y+.5, z'
loop_
_atom_type_symbol
_atom_type_oxidation_number
Ge4+	4
Mg2+	2
O2-	-2
loop_
_atom_site_label
_atom_site_type_symbol
_atom_site_symmetry_multiplicity
_atom_site_Wyckoff_symbol
_atom_site_fract_x
_atom_site_fract_y
_atom_site_fract_z
_atom_site_occupancy
_atom_site_attached_hydrogens
_atom_site_U_iso_or_equiv
Ge1 Ge4+ 4 a 0 0 0 1. 0 0.005 
Mg1 Mg2+ 4 c 0 0.2573(19) 0.250 1. 0 0.005 
O1 O2- 4 c 0 0.9117(34) 0.250 1. 0 0.005 
O2 O2- 8 f 0 0.6410(21) 0.4365(35) 1. 0 0.005 

#End of data_160848-ICSD


