data_72229-ICSD
#?2014 by Fachinformationszentrum Karlsruhe, and the U.S. Secretary of 
#Commerce on behalf of the United States.  All rights reserved.
_database_code_ICSD                72229
_audit_creation_date               1994/01/19
_chemical_name_systematic          'Calcium Dibismuth Tetraoxide'
_chemical_formula_structural       'Ca Bi2 O4'
_chemical_formula_sum              'Bi2 Ca1 O4'
_publ_section_title
;
Structure determination of calcium dibismuth tetraoxide
;
loop_
_citation_id
_citation_journal_abbrev
_citation_year
_citation_journal_volume
_citation_page_first
_citation_page_last
_citation_journal_id_ASTM
primary 'Materials Research Bulletin' 1992 27 1243 1248 MRBUAC
_publ_author_name
;
Haemers, T.A.M.;Ijdo, D.J.W.;Helmholdt, R.B.
;
_cell_length_a                     14.002(1)
_cell_length_b                     11.596(1)
_cell_length_c                     12.198(1)
_cell_angle_alpha                  90.
_cell_angle_beta                   101.541(6)
_cell_angle_gamma                  90.
_cell_volume                       1940.51
_cell_formula_units_Z              16
_symmetry_space_group_name_H-M     'I 1 2/a 1'
_symmetry_Int_Tables_number        15
_refine_ls_R_factor_all            .031
loop_
_symmetry_equiv_pos_site_id
_symmetry_equiv_pos_as_xyz
  1	'x+.5, -y, z'
  2	'-x, -y, -z'
  3	'-x+.5, y, -z'
  4	'x, y, z'
  5	'x, -y+.5, z+.5'
  6	'-x+.5, -y+.5, -z+.5'
  7	'-x, y+.5, -z+.5'
  8	'x+.5, y+.5, z+.5'
loop_
_atom_type_symbol
_atom_type_oxidation_number
Bi3+	3
Ca2+	2
O2-	-2
loop_
_atom_site_label
_atom_site_type_symbol
_atom_site_symmetry_multiplicity
_atom_site_Wyckoff_symbol
_atom_site_fract_x
_atom_site_fract_y
_atom_site_fract_z
_atom_site_occupancy
_atom_site_attached_hydrogens
Bi1 Bi3+ 8 f 0.1659(6) 0.0081(7) 0.1478(8) 1. 0 
Bi2 Bi3+ 8 f 0.4379(5) 0.2146(7) 0.1544(6) 1. 0 
Bi3 Bi3+ 8 f 0.1871(8) 0.3417(7) 0.1340(8) 1. 0 
Bi4 Bi3+ 8 f 0.3968(7) 0.8530(8) 0.1247(9) 1. 0 
Ca1 Ca2+ 8 f 0.7002(11) 0.3495(14) 0.1132(17) 1. 0 
Ca2 Ca2+ 8 f 0.4665(14) 0.5253(14) 0.1270(13) 1. 0 
O1 O2- 8 f 0.7468(8) 0.1374(13) 0.1710(11) 1. 0 
O2 O2- 8 f 0.0484(9) 0.2644(12) 0.1714(12) 1. 0 
O3 O2- 8 f 0.3895(10) 0.4774(11) 0.9350(12) 1. 0 
O4 O2- 8 f 0.5258(9) 0.0698(9) 0.1811(10) 1. 0 
O5 O2- 8 f 0.6512(11) 0.3091(11) 0.9328(11) 1. 0 
O6 O2- 8 f 0.567(1) 0.3364(12) 0.1979(12) 1. 0 
O7 O2- 8 f 0.8172(12) 0.5304(14) 0.1767(13) 1. 0 
O8 O2- 8 f 0.3103(10) 0.1114(11) 0.2040(11) 1. 0 

#End of data_72229-ICSD


