data_154800-ICSD
#?2014 by Fachinformationszentrum Karlsruhe, and the U.S. Secretary of 
#Commerce on behalf of the United States.  All rights reserved.
_database_code_ICSD                154800
_audit_creation_date               2007/04/01
_chemical_name_systematic
;
Silver Gadolinium Tetrakis(catena-phosphate(V))
;
_chemical_formula_structural       'Ag Gd (P O3)4'
_chemical_formula_sum              'Ag1 Gd1 O12 P4'
_publ_section_title
;
Silver-gadolinium polytetraphosphate Ag Gd (P O3)4 synthesis, 
structural study, IR spectroscopy and conductivity investigation
;
loop_
_citation_id
_citation_journal_abbrev
_citation_year
_citation_journal_volume
_citation_page_first
_citation_page_last
_citation_journal_id_ASTM
primary 'Journal of Alloys and Compounds' 2006 424 400 407 JALCEU
_publ_author_name                  'Naili, H.;Ettis, H.;Mhiri, T.'
_cell_length_a                     7.2378(2)
_cell_length_b                     13.0913(5)
_cell_length_c                     9.8136(4)
_cell_angle_alpha                  90.
_cell_angle_beta                   90.494(1)
_cell_angle_gamma                  90.
_cell_volume                       929.83
_cell_formula_units_Z              4
_symmetry_space_group_name_H-M     'P 1 21/n 1'
_symmetry_Int_Tables_number        14
_refine_ls_R_factor_all            .0399
loop_
_symmetry_equiv_pos_site_id
_symmetry_equiv_pos_as_xyz
  1	'-x+.5, y+.5, -z+.5'
  2	'-x, -y, -z'
  3	'x+.5, -y+.5, z+.5'
  4	'x, y, z'
loop_
_atom_type_symbol
_atom_type_oxidation_number
Ag1+	1
Gd3+	3
O2-	-2
P5+	5
loop_
_atom_site_label
_atom_site_type_symbol
_atom_site_symmetry_multiplicity
_atom_site_Wyckoff_symbol
_atom_site_fract_x
_atom_site_fract_y
_atom_site_fract_z
_atom_site_occupancy
_atom_site_attached_hydrogens
_atom_site_U_iso_or_equiv
Gd1 Gd3+ 4 e 0.98814(2) 0.782722(13) 0.522546(19) 1. 0 0.01199(7) 
Ag1 Ag1+ 4 e 0.49951(4) 0.77664(3) 0.43412(4) 1. 0 0.02561(9) 
P1 P5+ 4 e 0.62640(12) 0.88566(7) 0.73763(10) 1. 0 0.01225(17) 
P2 P5+ 4 e 0.35104(12) 0.62701(7) 0.69566(10) 1. 0 0.01235(17) 
P3 P5+ 4 e 0.74622(12) 0.60024(7) 0.75153(10) 1. 0 0.01236(18) 
P4 P5+ 4 e 0.23701(12) 0.90987(7) 0.79836(10) 1. 0 0.01254(17) 
O1 O2- 4 e 0.2742(3) 0.71026(18) 0.6077(3) 1. 0 0.0161(5) 
O2 O2- 4 e 0.7822(4) 0.48630(19) 0.7034(3) 1. 0 0.0163(5) 
O3 O2- 4 e 0.3238(3) 0.6315(2) 0.8447(3) 1. 0 0.0167(5) 
O4 O2- 4 e 0.7065(3) 0.8565(2) 0.6040(3) 1. 0 0.0164(5) 
O5 O2- 4 e 0.7089(3) 0.6061(2) 0.9006(3) 1. 0 0.0162(5) 
O6 O2- 4 e 0.8994(3) 0.6654(2) 0.6984(3) 1. 0 0.0177(5) 
O7 O2- 4 e 0.5657(3) 0.6232(2) 0.6622(3) 1. 0 0.0150(5) 
O8 O2- 4 e 0.2676(4) 0.83853(19) 0.9141(3) 1. 0 0.0173(5) 
O9 O2- 4 e 0.2219(4) 0.0213(2) 0.8648(3) 1. 0 0.0167(5) 
O10 O2- 4 e 0.6329(4) 0.8094(2) 0.8482(3) 1. 0 0.0180(5) 
O11 O2- 4 e 0.0784(4) 0.8911(2) 0.7044(3) 1. 0 0.0188(6) 
O12 O2- 4 e 0.4175(3) 0.9203(2) 0.7076(3) 1. 0 0.0161(5) 

loop_
_atom_site_aniso_label
_atom_site_aniso_type_symbol
_atom_site_aniso_U_11
_atom_site_aniso_U_22
_atom_site_aniso_U_33
_atom_site_aniso_U_12
_atom_site_aniso_U_13
_atom_site_aniso_U_23
Gd1 Gd3+ 0.01326(10) 0.01135(10) 0.01135(11) 0.00020(5) 0.00002(6) 
-0.00022(6)
Ag1 Ag1+ 0.02047(16) 0.0356(2) 0.02076(19) 0.00631(11) -0.00146(12) 
0.00296(13)
P1 P5+ 0.0135(4) 0.0108(4) 0.0125(4) 0.0002(3) 0.0008(3) 0.0005(3)
P2 P5+ 0.0140(4) 0.0102(4) 0.0128(4) -0.0001(3) -0.0005(3) -0.0004(3)
P3 P5+ 0.0134(4) 0.0103(4) 0.0134(4) 0.0006(3) -0.0010(3) 0.0005(3)
P4 P5+ 0.0130(4) 0.0109(4) 0.0137(4) 0.0001(3) 0.0003(3) -0.0005(3)
O1 O2- 0.0132(12) 0.0149(13) 0.0203(15) 0.0042(9) -0.0015(10) 0.0024(10)
O2 O2- 0.0232(13) 0.0109(11) 0.0147(13) 0.0035(9) -0.0003(10) 0.0008(10)
O3 O2- 0.0191(12) 0.0208(13) 0.0103(13) -0.0027(10) 0.0013(9) -0.0015(11)
O4 O2- 0.0159(12) 0.0195(13) 0.0138(13) 0.0013(9) -0.0001(9) -0.0037(11)
O5 O2- 0.0187(12) 0.0145(12) 0.0153(13) 0.0031(9) -0.0020(9) -0.0005(10)
O6 O2- 0.0157(12) 0.0155(12) 0.0218(15) -0.0032(9) -0.0003(10) 0.0034(11)
O7 O2- 0.0122(11) 0.0168(12) 0.0159(13) 0.0013(9) -0.0003(9) 0.0034(11)
O8 O2- 0.0204(12) 0.0135(12) 0.0178(14) 0.0028(9) 0.0018(10) 0.0043(11)
O9 O2- 0.0250(13) 0.0120(13) 0.0132(13) 0.0039(10) -0.0015(10) -0.0016(11)
O10 O2- 0.0212(13) 0.0148(12) 0.0179(14) 0.0021(10) 0.0012(10) 0.0070(12)
O11 O2- 0.0158(11) 0.0195(13) 0.0211(15) 0.0006(10) -0.0029(10) -0.0033(12)
O12 O2- 0.0155(11) 0.0184(12) 0.0144(13) 0.0003(9) 0.0023(9) 0.0025(11)
#End of data_154800-ICSD


