data_180103-ICSD
#?2014 by Fachinformationszentrum Karlsruhe, and the U.S. Secretary of 
#Commerce on behalf of the United States.  All rights reserved.
_database_code_ICSD                180103
_audit_creation_date               2011/08/01
_chemical_name_systematic          'Lithium Tetrahydridoborate'
_chemical_formula_structural       'Li (B H4)'
_chemical_formula_sum              'H4 B1 Li1'
_publ_section_title
;
Hydrogen storage properties of Li B H4
;
loop_
_citation_id
_citation_journal_abbrev
_citation_year
_citation_journal_volume
_citation_page_first
_citation_page_last
_citation_journal_id_ASTM
primary 'Journal of Alloys and Compounds' 2003 356 515 520 JALCEU
2 'Physica B, Condensed Matter' 1993 192 55 69 PHYBE3
_publ_author_name
;
Zuettel, A.;Rentsch, S.;Fischer, P.;Wenger, P.;Sudan, P.;Mauron, 
P.;Emmenegger, C
;
_cell_length_a                     7.1730(1)
_cell_length_b                     4.4340(1)
_cell_length_c                     6.7976(1)
_cell_angle_alpha                  90.
_cell_angle_beta                   90.
_cell_angle_gamma                  90.
_cell_volume                       216.2
_cell_formula_units_Z              4
_symmetry_space_group_name_H-M     'P n m a'
_symmetry_Int_Tables_number        62
_refine_ls_R_factor_all            .0694
loop_
_symmetry_equiv_pos_site_id
_symmetry_equiv_pos_as_xyz
  1	'x+.5, y, -z+.5'
  2	'x, -y+.5, z'
  3	'-x+.5, y+.5, z+.5'
  4	'-x, -y, -z'
  5	'-x+.5, -y, z+.5'
  6	'-x, y+.5, -z'
  7	'x+.5, -y+.5, -z+.5'
  8	'x, y, z'
loop_
_atom_type_symbol
_atom_type_oxidation_number
B3+	3
H1-	-1
Li1+	1
loop_
_atom_site_label
_atom_site_type_symbol
_atom_site_symmetry_multiplicity
_atom_site_Wyckoff_symbol
_atom_site_fract_x
_atom_site_fract_y
_atom_site_fract_z
_atom_site_occupancy
_atom_site_attached_hydrogens
_atom_site_B_iso_or_equiv
Li1 Li1+ 4 c 0.146(1) 0.250 0.099(2) 1. 0 6.5(4) 
B1 B3+ 4 c 0.306(1) 0.250 0.415(1) 1. 0 1.8(3) 
H1 H1- 4 c 0.934(4) 0.250 0.954(5) 1. 0 1.0(6) 
H2 H1- 4 c 0.424(4) 0.250 0.243(5) 1. 0 1.0 
H3 H1- 8 d 0.153(3) 0.104(4) 0.453(3) 1. 0 1.0 

#End of data_180103-ICSD


