data_6162-ICSD
#?2014 by Fachinformationszentrum Karlsruhe, and the U.S. Secretary of 
#Commerce on behalf of the United States.  All rights reserved.
_database_code_ICSD                6162
_audit_creation_date               1980/01/01
_audit_update_record               2012/02/01
_chemical_name_systematic          'Aluminium Hydroxide'
_chemical_formula_structural       'Al (O H)3'
_chemical_formula_sum              'H3 Al1 O3'
_chemical_name_mineral             Gibbsite
_publ_section_title
;
Refinement of the crystal structure of gibbsite, Al (O H)3
;
loop_
_citation_id
_citation_journal_abbrev
_citation_year
_citation_journal_volume
_citation_page_first
_citation_page_last
_citation_journal_id_ASTM
primary
;
Zeitschrift fuer Kristallographie, Kristallgeometrie, Kristallphysik, 
Kristallchemie (-144,1977)
;
 1974 139 129 135 ZEKGAX
_publ_author_name                  'Saalfeld, H.;Wedde, M.'
_cell_length_a                     8.684(1)
_cell_length_b                     5.078(1)
_cell_length_c                     9.736(2)
_cell_angle_alpha                  90.
_cell_angle_beta                   94.54(1)
_cell_angle_gamma                  90.
_cell_volume                       427.98
_cell_formula_units_Z              8
_symmetry_space_group_name_H-M     'P 1 21/n 1'
_symmetry_Int_Tables_number        14
_refine_ls_R_factor_all            .032
loop_
_symmetry_equiv_pos_site_id
_symmetry_equiv_pos_as_xyz
  1	'-x+.5, y+.5, -z+.5'
  2	'-x, -y, -z'
  3	'x+.5, -y+.5, z+.5'
  4	'x, y, z'
loop_
_atom_type_symbol
_atom_type_oxidation_number
Al3+	3
H1+	1
O2-	-2
loop_
_atom_site_label
_atom_site_type_symbol
_atom_site_symmetry_multiplicity
_atom_site_Wyckoff_symbol
_atom_site_fract_x
_atom_site_fract_y
_atom_site_fract_z
_atom_site_occupancy
_atom_site_attached_hydrogens
_atom_site_B_iso_or_equiv
Al1 Al3+ 4 e 0.1679(1) 0.5295(2) -.0023(1) 1. 0 0 
Al2 Al3+ 4 e 0.3344(1) 0.0236(2) -.0024(1) 1. 0 0 
O1 O2- 4 e 0.1779(2) 0.2183(4) -.1115(2) 1. 0 0 
O2 O2- 4 e 0.6692(2) 0.6558(4) -.1023(2) 1. 0 0 
O3 O2- 4 e 0.4984(2) 0.1315(4) -.1044(2) 1. 0 0 
O4 O2- 4 e -.0205(2) 0.6293(4) -.1068(2) 1. 0 0 
O5 O2- 4 e 0.2971(2) 0.7178(4) -.1052(2) 1. 0 0 
O6 O2- 4 e 0.8194(2) 0.1491(4) -.1015(2) 1. 0 0 
H1 H1+ 4 e 0.101(6) 0.152(10) -.124(5) 1. 0 1.(1) 
H2 H1+ 4 e 0.595(6) 0.573(10) -.098(5) 1. 0 1.(1) 
H3 H1+ 4 e 0.503(5) 0.137(10) -.190(5) 1. 0 1.(1) 
H4 H1+ 4 e -.029(5) 0.801(10) -.107(4) 1. 0 0.0(1) 
H5 H1+ 4 e 0.293(6) 0.724(11) -.196(6) 1. 0 2.(1) 
H6 H1+ 4 e 0.815(5) 0.160(9) -.190(5) 1. 0 1.(1) 

#End of data_6162-ICSD


