data_161479-ICSD
#?2014 by Fachinformationszentrum Karlsruhe, and the U.S. Secretary of 
#Commerce on behalf of the United States.  All rights reserved.
_database_code_ICSD                161479
_audit_creation_date               2009/02/01
_chemical_name_systematic
;
Lithium Iron Phosphate(V) - C-coated
;
_chemical_formula_structural       'Li Fe (P O4)'
_chemical_formula_sum              'Fe1 Li1 O4 P1'
_publ_section_title
;
Electrochemical properties of carbon-coated Li Fe P O4 synthesized by 
a modified mechanical activation process
;
loop_
_citation_id
_citation_journal_abbrev
_citation_year
_citation_journal_volume
_citation_page_first
_citation_page_last
_citation_journal_id_ASTM
primary 'Journal of Physics and Chemistry of Solids' 2008 69 2371 2377 JPCSAW
_publ_author_name
;
Kim Jae-Kwang;Cheruvally, G.;Ahn Jou-Hyeon;Hwang Gil-Chan;Choi Jin-
Beom
;
_cell_length_a                     10.3229(3)
_cell_length_b                     6.0052(2)
_cell_length_c                     4.6939(1)
_cell_angle_alpha                  90.
_cell_angle_beta                   90.
_cell_angle_gamma                  90.
_cell_volume                       290.98
_cell_formula_units_Z              4
_symmetry_space_group_name_H-M     'P n m a'
_symmetry_Int_Tables_number        62
_refine_ls_R_factor_all            .0388
loop_
_symmetry_equiv_pos_site_id
_symmetry_equiv_pos_as_xyz
  1	'x+.5, y, -z+.5'
  2	'x, -y+.5, z'
  3	'-x+.5, y+.5, z+.5'
  4	'-x, -y, -z'
  5	'-x+.5, -y, z+.5'
  6	'-x, y+.5, -z'
  7	'x+.5, -y+.5, -z+.5'
  8	'x, y, z'
loop_
_atom_type_symbol
_atom_type_oxidation_number
Fe2+	2
Li1+	1
O2-	-2
P5+	5
loop_
_atom_site_label
_atom_site_type_symbol
_atom_site_symmetry_multiplicity
_atom_site_Wyckoff_symbol
_atom_site_fract_x
_atom_site_fract_y
_atom_site_fract_z
_atom_site_occupancy
_atom_site_attached_hydrogens
_atom_site_B_iso_or_equiv
Li1 Li1+ 4 a 0 0 0 1. 0 0.8 
Fe1 Fe2+ 4 c 0.2820(1) 0.250 0.9734(4) 1. 0 1.0 
P1 P5+ 4 c 0.0951(2) 0.250 0.4187(4) 1. 0 0.9 
O1 O2- 4 c 0.0922(6) 0.250 0.744(1) 1. 0 0.8 
O2 O2- 4 c 0.4547(6) 0.250 0.211(1) 1. 0 0.8 
O3 O2- 8 d 0.1626(5) 0.0477(7) 0.2844(7) 1. 0 0.8 

#End of data_161479-ICSD


