data_88001-ICSD
#?2014 by Fachinformationszentrum Karlsruhe, and the U.S. Secretary of 
#Commerce on behalf of the United States.  All rights reserved.
_database_code_ICSD                88001
_audit_creation_date               2001/07/16
_chemical_name_systematic          'Sodium Hydroxotrioxozincosilicate'
_chemical_formula_structural       'Na (Zn Si O3 (O H))'
_chemical_formula_sum              'H1 Na1 O4 Si1 Zn1'
_publ_section_title
;
Synthesis and structure of Na Zn Si O3 O H, a new chiral 
zincosilicate framework material
;
loop_
_citation_id
_citation_journal_abbrev
_citation_year
_citation_journal_volume
_citation_page_first
_citation_page_last
_citation_journal_id_ASTM
primary 'Inorganic Chemistry' 1999 38 455 458 INOCAJ
_publ_author_name
;
Healey, A.M.;Weller, M.T.;Genge, A.R.
;
_cell_length_a                     7.6872(2)
_cell_length_b                     9.3899(2)
_cell_length_c                     5.1559(1)
_cell_angle_alpha                  90.
_cell_angle_beta                   90.
_cell_angle_gamma                  90.
_cell_volume                       372.16
_cell_formula_units_Z              4
_symmetry_space_group_name_H-M     'P 21 21 21'
_symmetry_Int_Tables_number        19
_refine_ls_R_factor_all            .016
loop_
_symmetry_equiv_pos_site_id
_symmetry_equiv_pos_as_xyz
  1	'-x, y+.5, -z+.5'
  2	'x+.5, -y+.5, -z'
  3	'-x+.5, -y, z+.5'
  4	'x, y, z'
loop_
_atom_type_symbol
_atom_type_oxidation_number
H1+	1
Na1+	1
O2-	-2
Si4+	4
Zn2+	2
loop_
_atom_site_label
_atom_site_type_symbol
_atom_site_symmetry_multiplicity
_atom_site_Wyckoff_symbol
_atom_site_fract_x
_atom_site_fract_y
_atom_site_fract_z
_atom_site_occupancy
_atom_site_attached_hydrogens
_atom_site_B_iso_or_equiv
Zn1 Zn2+ 4 a 0.1121(3) 0.9885(3) 0.0224(5) 1. 0 0.29(4) 
Si1 Si4+ 4 a -.0164(5) 0.6611(3) -.0073(7) 1. 0 0.39(5) 
Na1 Na1+ 4 a 0.7959(6) 0.8327(6) 0.4771(9) 1. 0 1.32(9) 
O1 O2- 4 a -.0199(4) 0.6486(3) 0.6776(5) 1. 0 1.03(5) 
O2 O2- 4 a -.0379(3) 0.8259(3) 0.0755(4) 1. 0 0.65(4) 
O3 O2- 4 a 0.3326(3) 0.9290(2) 0.8696(5) 1. 0 0.33(4) 
O4 O2- 4 a 0.6649(4) 0.9079(3) 0.8902(6) 1. 0 0.84(5) 
H1 H1+ 4 a 0.2211(8) 0.3743(5) 0.5265(13) 1. 0 2.11(9) 

#End of data_88001-ICSD


