data_34816-ICSD
#?2014 by Fachinformationszentrum Karlsruhe, and the U.S. Secretary of 
#Commerce on behalf of the United States.  All rights reserved.
_database_code_ICSD                34816
_audit_creation_date               1980/01/01
_audit_update_record               1998/06/26
_chemical_name_systematic          'Magnesium Silicate'
_chemical_formula_structural       'Mg2 (Si O4)'
_chemical_formula_sum              'Mg2 O4 Si1'
_chemical_name_mineral             'Forsterite, ferroan'
_publ_section_title
;
Crystal structures of natural olivines
;
loop_
_citation_id
_citation_journal_abbrev
_citation_year
_citation_journal_volume
_citation_page_first
_citation_page_last
_citation_journal_id_ASTM
primary 'American Mineralogist' 1968 53 807 824 AMMIAY
_publ_author_name
;
Birle, J.D.;Gibbs, G.V.;Moore, P.B.;Smith, J.V.
;
_cell_length_a                     4.762
_cell_length_b                     10.225
_cell_length_c                     5.994
_cell_angle_alpha                  90.
_cell_angle_beta                   90.
_cell_angle_gamma                  90.
_cell_volume                       291.86
_cell_formula_units_Z              4
_symmetry_space_group_name_H-M     'P b n m'
_symmetry_Int_Tables_number        62
_refine_ls_R_factor_all            .07
loop_
_symmetry_equiv_pos_site_id
_symmetry_equiv_pos_as_xyz
  1	'-x+.5, y+.5, z'
  2	'x, y, -z+.5'
  3	'x+.5, -y+.5, z+.5'
  4	'-x, -y, -z'
  5	'x+.5, -y+.5, -z'
  6	'-x, -y, z+.5'
  7	'-x+.5, y+.5, -z+.5'
  8	'x, y, z'
loop_
_atom_type_symbol
_atom_type_oxidation_number
Mg2+	2
O2-	-2
Si4+	4
loop_
_atom_site_label
_atom_site_type_symbol
_atom_site_symmetry_multiplicity
_atom_site_Wyckoff_symbol
_atom_site_fract_x
_atom_site_fract_y
_atom_site_fract_z
_atom_site_occupancy
_atom_site_attached_hydrogens
_atom_site_B_iso_or_equiv
Mg1 Mg2+ 4 a 0 0 0 1. 0 0.33(3) 
Mg2 Mg2+ 4 c 0.98975(29) 0.27743(16) 0.25 1. 0 0.36(3) 
Si1 Si4+ 4 c 0.42693(27) 0.09434(13) 0.25 1. 0 0.20(3) 
O1 O2- 4 c 0.7658(7) 0.09186(36) 0.25 1. 0 0.35(5) 
O2 O2- 4 c 0.22012(72) 0.44779(36) 0.25 1. 0 0.42(5) 
O3 O2- 8 d 0.2781(5) 0.16346(25) 0.03431(46) 1. 0 0.41(5) 

#End of data_34816-ICSD


