data_249756-ICSD
#?2014 by Fachinformationszentrum Karlsruhe, and the U.S. Secretary of 
#Commerce on behalf of the United States.  All rights reserved.
_database_code_ICSD                249756
_audit_creation_date               2009/02/01
_audit_update_record               2012/02/01
_chemical_name_systematic          'Lithium Dodecahydrododecaborate'
_chemical_formula_structural       'Li2 (B12 H12)'
_chemical_formula_sum              'H12 B12 Li2'
_publ_section_title
;
Crystal structure of Li2 B12 H12: A possible intermediate species in 
the decomposition of Li B H4
;
loop_
_citation_id
_citation_journal_abbrev
_citation_year
_citation_journal_volume
_citation_journal_issue
_citation_page_first
_citation_page_last
_citation_journal_id_ASTM
primary 'Inorganic Chemistry' 2008 47 21 9757 9759 INOCAJ
_publ_author_name
;
Her Jae-Hyuk;Yousufuddin, M.;Zhou Wei;Jalisatgi, S.S.;Kulleck, 
J.G.;Zan, J.A.;Hwang Song-Jong;Bowman, R.C.jr.;Udovic, T.J.
;
_cell_length_a                     9.57713(21)
_cell_length_b                     9.57713(21)
_cell_length_c                     9.57713(21)
_cell_angle_alpha                  90.
_cell_angle_beta                   90.
_cell_angle_gamma                  90.
_cell_volume                       878.43
_cell_formula_units_Z              4
_symmetry_space_group_name_H-M     'P a -3'
_symmetry_Int_Tables_number        205
_refine_ls_R_factor_all            .013
loop_
_symmetry_equiv_pos_site_id
_symmetry_equiv_pos_as_xyz
  1	'-z+.5, x+.5, y'
  2	'z+.5, x, -y+.5'
  3	'z, -x+.5, y+.5'
  4	'-z, -x, -y'
  5	'y, -z+.5, x+.5'
  6	'-y+.5, z+.5, x'
  7	'y+.5, z, -x+.5'
  8	'-y, -z, -x'
  9	'x+.5, y, -z+.5'
 10	'x, -y+.5, z+.5'
 11	'-x+.5, y+.5, z'
 12	'-x, -y, -z'
 13	'z+.5, -x+.5, -y'
 14	'-z+.5, -x, y+.5'
 15	'-z, x+.5, -y+.5'
 16	'z, x, y'
 17	'-y, z+.5, -x+.5'
 18	'y+.5, -z+.5, -x'
 19	'-y+.5, -z, x+.5'
 20	'y, z, x'
 21	'-x+.5, -y, z+.5'
 22	'-x, y+.5, -z+.5'
 23	'x+.5, -y+.5, -z'
 24	'x, y, z'
loop_
_atom_type_symbol
_atom_type_oxidation_number
B.8333+	.8333
H1-	-1
Li1+	1
loop_
_atom_site_label
_atom_site_type_symbol
_atom_site_symmetry_multiplicity
_atom_site_Wyckoff_symbol
_atom_site_fract_x
_atom_site_fract_y
_atom_site_fract_z
_atom_site_occupancy
_atom_site_attached_hydrogens
_atom_site_B_iso_or_equiv
Li1 Li1+ 8 c 0.64002(40) 0.64002(40) 0.64002(40) 1 0 4.66(20) 
B1 B.8333+ 24 d -0.09125405 -0.09101656 0.1236277 1 0 1.981(72) 
B2 B.8333+ 24 d -0.03597303 -0.03888101 -0.1705559 1 0 1.981(72) 
H1 H1- 24 d -0.1555569 -0.155152 0.2107428 1 0 1.981(72) 
H2 H1- 24 d -0.06132169 -0.0662788 -0.2907394 1 0 1.981(72) 

#End of data_249756-ICSD


