data_155491-ICSD
#?2014 by Fachinformationszentrum Karlsruhe, and the U.S. Secretary of 
#Commerce on behalf of the United States.  All rights reserved.
_database_code_ICSD                155491
_audit_creation_date               2007/08/01
_chemical_name_systematic          'Sodium Cobalt Oxide (0.5/1/2)'
_chemical_formula_structural       'Na0.5 (Co O2)'
_chemical_formula_sum              'Co1 Na0.5 O2'
_publ_section_title
;
High-resolution neutron diffraction study of possible charge ordering 
in Na0.5 Co O2
;
loop_
_citation_id
_citation_journal_abbrev
_citation_year
_citation_journal_volume
_citation_page_first
_citation_page_last
_citation_journal_id_ASTM
primary 'Physical Review, Serie 3. B - Condensed Matter (18,1978-)'
 2006 73 134401-1 134401-5 PRBMDO
_publ_author_name
;
Williams, A.J.;Attfield, J.P.;Foo, M.L.;Viciu, L.;Cava, R.J.
;
_cell_length_a                     4.8763(1)
_cell_length_b                     5.6278(1)
_cell_length_c                     11.0620(1)
_cell_angle_alpha                  90.
_cell_angle_beta                   90.
_cell_angle_gamma                  90.
_cell_volume                       303.57
_cell_formula_units_Z              8
_symmetry_space_group_name_H-M     'P n m m Z'
_symmetry_Int_Tables_number        59
_refine_ls_R_factor_all            .0259
loop_
_symmetry_equiv_pos_site_id
_symmetry_equiv_pos_as_xyz
  1	'-x, y+.5, z+.5'
  2	'-x, y+.5, -z'
  3	'-x, -y, z+.5'
  4	'-x, -y, -z'
  5	'x, -y+.5, -z+.5'
  6	'x, -y+.5, z'
  7	'x, y, -z+.5'
  8	'x, y, z'
loop_
_atom_type_symbol
_atom_type_oxidation_number
Co3.5+	3.5
Na1+	1
O2-	-2
loop_
_atom_site_label
_atom_site_type_symbol
_atom_site_symmetry_multiplicity
_atom_site_Wyckoff_symbol
_atom_site_fract_x
_atom_site_fract_y
_atom_site_fract_z
_atom_site_occupancy
_atom_site_attached_hydrogens
_atom_site_U_iso_or_equiv
Co1 Co3.5+ 4 e 0.0039(8) 0.250 0.0030(3) 1. 0 0.0036(2) 
Co2 Co3.5+ 4 d 0.5 0 0 1. 0 0.0036(2) 
Na1 Na1+ 2 b -0.0321(6) 0.250 0.750 1. 0 0.0057(3) 
Na2 Na1+ 2 a 0.3609(6) 0.750 0.750 1. 0 0.0057(3) 
O1 O2- 4 e 0.3359(4) 0.250 0.0878(1) 1. 0 0.0019(4) 
O2 O2- 4 e 0.3285(4) 0.750 0.0858(1) 1. 0 0.0034(5) 
O3 O2- 8 g -0.1616(4) -0.0013(2) 0.08890(6) 1. 0 0.0062(2) 

#End of data_155491-ICSD


