data_260436-ICSD
#?2014 by Fachinformationszentrum Karlsruhe, and the U.S. Secretary of 
#Commerce on behalf of the United States.  All rights reserved.
_database_code_ICSD                260436
_audit_creation_date               2010/02/01
_audit_update_record               2013/02/01
_chemical_name_systematic
;
Dirubidium Tecto-magnesiopentasilicate
;
_chemical_formula_structural       'Rb2 (Mg Si5 O12)'
_chemical_formula_sum              'Mg1 O12 Rb2 Si5'
_publ_section_title
;
Crystal structures and cation ordering in Cs2 Mg Si5 O12, Rb2 Mg Si5 
O12 and Cs2 Zn Si5 O12 leucites
;
loop_
_citation_id
_citation_journal_abbrev
_citation_year
_citation_journal_volume
_citation_journal_issue
_citation_page_first
_citation_page_last
_citation_journal_id_ASTM
primary 'Acta Crystallographica, Section B: Structural Science'
 2009 65 4 435 444 ASBSDK
_publ_author_name                  'Bell, A.M.T.;Henderson, C.M.B.'
_cell_length_a                     13.4220(10)
_cell_length_b                     13.4060(10)
_cell_length_c                     13.7300(10)
_cell_angle_alpha                  90
_cell_angle_beta                   90
_cell_angle_gamma                  90
_cell_volume                       2470.51
_cell_formula_units_Z              8
_symmetry_space_group_name_H-M     'P b c a'
_symmetry_Int_Tables_number        61
_refine_ls_R_factor_all            .0804
loop_
_symmetry_equiv_pos_site_id
_symmetry_equiv_pos_as_xyz
  1	'x+.5, y, -z+.5'
  2	'x, -y+.5, z+.5'
  3	'-x+.5, y+.5, z'
  4	'-x, -y, -z'
  5	'-x+.5, -y, z+.5'
  6	'-x, y+.5, -z+.5'
  7	'x+.5, -y+.5, -z'
  8	'x, y, z'
loop_
_atom_type_symbol
_atom_type_oxidation_number
Mg2+	2
O2-	-2
Rb1+	1
Si4+	4
loop_
_atom_site_label
_atom_site_type_symbol
_atom_site_symmetry_multiplicity
_atom_site_Wyckoff_symbol
_atom_site_fract_x
_atom_site_fract_y
_atom_site_fract_z
_atom_site_occupancy
_atom_site_attached_hydrogens
_atom_site_B_iso_or_equiv
Rb1 Rb1+ 8 c 0.1581(6) 0.1330(7) 0.1453(6) 1 0 15.1(3) 
Rb2 Rb1+ 8 c 0.3930(6) 0.3809(7) 0.3953(6) 1 0 13.9(3) 
Mg1 Mg2+ 8 c 0.364(2) 0.817(2) 0.929(2) 1 0 12.7(8) 
Si1 Si4+ 8 c 0.097(2) 0.646(2) 0.5930(10) 1 0 9.3(2) 
Si2 Si4+ 8 c 0.592(2) 0.109(2) 0.6600(10) 1 0 9.3(2) 
Si3 Si4+ 8 c 0.6250(10) 0.606(2) 0.1270(10) 1 0 9.3(2) 
Si4 Si4+ 8 c 0.9340(10) 0.383(2) 0.834(2) 1 0 9.3(2) 
Si5 Si4+ 8 c 0.814(2) 0.9210(10) 0.352(2) 1 0 9.3(2) 
O1 O2- 8 c 0.476(2) 0.368(2) 0.181(2) 1 0 7.4(2) 
O2 O2- 8 c 0.155(2) 0.492(2) 0.360(2) 1 0 7.4(2) 
O3 O2- 8 c 0.414(2) 0.104(2) 0.483(2) 1 0 7.4(2) 
O4 O2- 8 c 0.770(2) 0.347(3) 0.609(2) 1 0 7.4(2) 
O5 O2- 8 c 0.590(2) 0.735(3) 0.377(2) 1 0 7.4(2) 
O6 O2- 8 c 0.327(2) 0.630(2) 0.755(2) 1 0 7.4(2) 
O7 O2- 8 c 0.947(2) 0.897(2) 0.652(2) 1 0 7.4(2) 
O8 O2- 8 c 0.649(2) 0.965(3) 0.879(2) 1 0 7.4(2) 
O9 O2- 8 c 0.849(2) 0.644(2) 0.9420(10) 1 0 7.4(2) 
O10 O2- 8 c 0.198(2) 0.906(3) 0.129(2) 1 0 7.4(2) 
O11 O2- 8 c 0.168(2) 0.185(3) 0.892(2) 1 0 7.4(2) 
O12 O2- 8 c 0.953(2) 0.127(2) 0.216(2) 1 0 7.4(2) 

#End of data_260436-ICSD


