data_425979-ICSD
#?2014 by Fachinformationszentrum Karlsruhe, and the U.S. Secretary of 
#Commerce on behalf of the United States.  All rights reserved.
_database_code_ICSD                425979
_audit_creation_date               2014/02/01
_chemical_name_systematic
;
Lithium Aluminum Hexathiodiphosphate(IV)
;
_chemical_formula_structural       'Li Al (P2 S6)'
_chemical_formula_sum              'Al1 Li1 P2 S6'
_publ_section_title
;
Synthesis and Crystal Structures of the Alkali Aluminium 
Thiohypodiphosphates M(I) Al P2 S6 (M = Li, Na)
;
loop_
_citation_id
_citation_journal_abbrev
_citation_year
_citation_journal_volume
_citation_journal_issue
_citation_page_first
_citation_page_last
_citation_journal_id_ASTM
primary 'Zeitschrift fuer Anorganische und Allgemeine Chemie (1950) (DE)'
 2013 639 7 1087 1089 ZAACAB
_publ_author_name
;
Kuhn, Alexander;Eger, Roland;Nuss, Juergen;Lotsch, Bettina V.
;
_cell_length_a                     6.783(2)
_cell_length_b                     10.365(3)
_cell_length_c                     11.776(4)
_cell_angle_alpha                  90.00
_cell_angle_beta                   94.399(5)
_cell_angle_gamma                  90.00
_cell_volume                       825.48
_cell_formula_units_Z              4
_symmetry_space_group_name_H-M     'C 1 2/c 1'
_symmetry_Int_Tables_number        15
_refine_ls_R_factor_all            .0654
loop_
_symmetry_equiv_pos_site_id
_symmetry_equiv_pos_as_xyz
  1	'x, -y, z+.5'
  2	'-x, -y, -z'
  3	'-x, y, -z+.5'
  4	'x, y, z'
  5	'x+.5, -y+.5, z+.5'
  6	'-x+.5, -y+.5, -z'
  7	'-x+.5, y+.5, -z+.5'
  8	'x+.5, y+.5, z'
loop_
_atom_type_symbol
_atom_type_oxidation_number
Al3+	3
Li1+	1
P4+	4
S2-	-2
loop_
_atom_site_label
_atom_site_type_symbol
_atom_site_symmetry_multiplicity
_atom_site_Wyckoff_symbol
_atom_site_fract_x
_atom_site_fract_y
_atom_site_fract_z
_atom_site_occupancy
_atom_site_attached_hydrogens
_atom_site_U_iso_or_equiv
Al1 Al3+ 4 e 0.0000 0.4826(3) 0.2500 1 0 0.0184(6) 
P1 P4+ 8 f 0.1492(2) 0.16167(16) 0.21952(15) 1 0 0.0156(4) 
Li1 Li1+ 4 e 0.0000 0.8499(19) 0.2500 1 0 0.035(5) 
S1 S2- 8 f 0.1951(3) 0.00338(16) 0.12385(15) 1 0 0.0200(4) 
S2 S2- 8 f 0.3429(2) 0.15308(16) 0.36004(15) 1 0 0.0188(4) 
S3 S2- 8 f 0.1493(3) 0.32860(16) 0.12827(15) 1 0 0.0201(4) 

loop_
_atom_site_aniso_label
_atom_site_aniso_type_symbol
_atom_site_aniso_U_11
_atom_site_aniso_U_22
_atom_site_aniso_U_33
_atom_site_aniso_U_12
_atom_site_aniso_U_13
_atom_site_aniso_U_23
Al1 Al3+ 0.0165(13) 0.0097(12) 0.0288(16) 0.000 0.0003(11) 0.000
P1 P4+ 0.0119(7) 0.0083(7) 0.0265(9) 0.0008(5) 0.0009(6) -0.0001(6)
Li1 Li1+ 0.035(11) 0.017(9) 0.054(13) 0.000 0.002(9) 0.000
S1 S2- 0.0204(8) 0.0115(7) 0.0275(9) 0.0036(6) -0.0012(6) -0.0030(6)
S2 S2- 0.0176(8) 0.0132(7) 0.0250(9) 0.0015(6) -0.0012(6) -0.0007(6)
S3 S2- 0.0255(9) 0.0105(7) 0.0245(8) 0.0003(6) 0.0034(6) 0.0021(6)
#End of data_425979-ICSD


