data_163667-ICSD
#?2014 by Fachinformationszentrum Karlsruhe, and the U.S. Secretary of 
#Commerce on behalf of the United States.  All rights reserved.
_database_code_ICSD                163667
_audit_creation_date               2009/08/01
_chemical_name_systematic
;
Strontium Heptanitridoalumotetrasilicate
;
_chemical_formula_structural       'Sr (Al Si4 N7)'
_chemical_formula_sum              'Al1 N7 Si4 Sr1'
_publ_section_title
;
Sr Al Si4 N7: Eu(2+) - a nitridoalumosilicate phosphor for warm white 
light (pc)LEDs with edge-sharing tetrahedra
;
loop_
_citation_id
_citation_journal_abbrev
_citation_year
_citation_journal_volume
_citation_page_first
_citation_page_last
_citation_journal_id_ASTM
primary 'Chemistry of Materials' 2009 21 1595 1601 CMATEX
_publ_author_name
;
Hecht, C.;Stadler, F.;Schmidt, P.J.;Schmedt auf der Guenne, 
J.;Baumann, V.;Schnick, W.
;
_cell_length_a                     11.742(2)
_cell_length_b                     21.391(4)
_cell_length_c                     4.966(1)
_cell_angle_alpha                  90.
_cell_angle_beta                   90.
_cell_angle_gamma                  90.
_cell_volume                       1247.33
_cell_formula_units_Z              8
_symmetry_space_group_name_H-M     'P n a 21'
_symmetry_Int_Tables_number        33
_refine_ls_R_factor_all            .0366
loop_
_symmetry_equiv_pos_site_id
_symmetry_equiv_pos_as_xyz
  1	'x+.5, -y+.5, z'
  2	'-x+.5, y+.5, z+.5'
  3	'-x, -y, z+.5'
  4	'x, y, z'
loop_
_atom_type_symbol
_atom_type_oxidation_number
Al3+	3
N3-	-3
Si4+	4
Sr2+	2
loop_
_atom_site_label
_atom_site_type_symbol
_atom_site_symmetry_multiplicity
_atom_site_Wyckoff_symbol
_atom_site_fract_x
_atom_site_fract_y
_atom_site_fract_z
_atom_site_occupancy
_atom_site_attached_hydrogens
_atom_site_U_iso_or_equiv
Sr1 Sr2+ 4 a 0.27919(4) 0.50892(2) 0.43863(14) 1. 0 0.01611(3) 
Sr2 Sr2+ 4 a 0.64517(4) 0.69726(2) 0.4560(2) 1. 0 0.02086(14) 
Si1 Si4+ 4 a 0.35835(11) 0.72290(6) -0.0308(6) 1. 0 0.0126(3) 
Si2 Si4+ 4 a 0.92208(10) 0.70013(6) 0.4655(5) 1. 0 0.0129(3) 
Si3 Si4+ 4 a 0.55782(11) 0.53286(6) 0.4579(6) 1. 0 0.0135(3) 
Si4 Si4+ 4 a 0.00385(11) 0.45635(6) 0.4653(5) 1. 0 0.0126(3) 
Si5 Si4+ 4 a 0.19254(10) 0.36055(6) 0.4514(6) 1. 0 0.0124(3) 
Si6 Si4+ 4 a 0.16242(11) 0.43487(6) -0.0497(6) 1. 0 0.0133(3) 
Si7 Si4+ 4 a 0.47151(11) 0.39055(6) 0.4579(6) 1. 0 0.0122(3) 
Si8 Si4+ 4 a 0.39464(11) 0.65244(6) 0.4686(5) 1. 0 0.0132(3) 
Al1 Al3+ 4 a 0.1551(2) 0.65081(10) 0.7351(5) 1. 0 0.0108(4) 
Al2 Al3+ 4 a 0.6557(2) 0.84843(10) 0.2295(4) 1. 0 0.0090(4) 
N1 N3- 4 a 0.2529(4) 0.6248(2) 0.4745(18) 1. 0 0.0158(10) 
N2 N3- 4 a 0.2150(4) 0.7015(2) -0.0142(16) 1. 0 0.0179(12) 
N3 N3- 4 a 0.4894(4) 0.4658(2) 0.3003(12) 1. 0 0.0139(10) 
N4 N3- 4 a -0.1004(4) 0.3996(2) 0.4937(15) 1. 0 0.0185(13) 
N5 N3- 4 a 0.4406(4) 0.6656(2) 0.8000(12) 1. 0 0.0153(10) 
N6 N3- 4 a 0.8631(4) 0.7066(2) 0.7903(12) 1. 0 0.0153(10) 
N7 N3- 4 a 0.8421(4) 0.6420(2) 0.2959(12) 1. 0 0.0148(10) 
N8 N3- 4 a 0.5666(4) 0.8162(2) 0.4782(16) 1. 0 0.0154(10) 
N9 N3- 4 a 0.0541(5) 0.4804(2) 0.7828(12) 1. 0 0.0175(11) 
N10 N3- 4 a 0.8761(4) 0.5736(2) 0.7971(12) 1. 0 0.0141(10) 
N11 N3- 4 a 0.4928(5) 0.6014(2) 0.3060(13) 1. 0 0.0169(10) 
N12 N3- 4 a 0.3349(4) 0.3653(2) 0.4148(14) 1. 0 0.0164(12) 
N13 N3- 4 a 0.2964(4) 0.4687(2) -0.0750(16) 1. 0 0.0163(11) 
N14 N3- 4 a 0.4063(5) 0.7273(2) 0.3000(12) 1. 0 0.0175(11) 

loop_
_atom_site_aniso_label
_atom_site_aniso_type_symbol
_atom_site_aniso_U_11
_atom_site_aniso_U_22
_atom_site_aniso_U_33
_atom_site_aniso_U_12
_atom_site_aniso_U_13
_atom_site_aniso_U_23
Sr1 Sr2+ 0.0177(2) 0.0157(2) 0.0149(3) -0.0009(2) -0.0004(3) 0.0000(3)
Sr2 Sr2+ 0.0157(2) 0.0186(2) 0.0283(4) 0.00123(16) 0.0013(4) 0.0031(4)
Si1 Si4+ 0.0153(5) 0.0130(5) 0.0094(8) -0.0002(4) -0.0014(8) 0.0000(8)
Si2 Si4+ 0.0128(5) 0.0140(5) 0.0119(8) -0.0011(4) -0.0004(8) 0.0013(8)
Si3 Si4+ 0.0145(5) 0.0136(5) 0.0124(8) -0.0005(4) -0.0003(9) 0.0001(9)
Si4 Si4+ 0.0132(5) 0.0144(5) 0.0102(8) 0.0003(4) 0.0000(8) -0.0006(8)
Si5 Si4+ 0.0134(5) 0.0129(5) 0.0108(8) 0.0002(4) 0.0003(9) -0.0002(8)
Si6 Si4+ 0.0144(5) 0.0141(5) 0.0113(8) 0.0001(4) 0.0010(9) 0.0005(9)
Si7 Si4+ 0.0135(5) 0.0126(5) 0.0103(8) -0.0001(4) 0.0006(8) -0.0007(8)
Si8 Si4+ 0.0151(8) 0.0132(5) 0.0114(9) 0.0017(4) 0.0009(8) -0.0002(8)
Al1 Al3+ 0.0123(9) 0.0126(10) 0.0076(10) 0.0008(7) 0.0016(7) -0.0001(7)
Al2 Al3+ 0.0103(9) 0.0090(9) 0.0077(10) 0.0000(6) -0.0001(7) -0.0007(6)
N1 N3- 0.0149(17) 0.0215(19) 0.011(3) 0.0018(14) -0.002(2) -0.003(2)
N2 N3- 0.0163(18) 0.0178(19) 0.020(4) -0.0001(15) -0.004(3) 0.000(2)
N3 N3- 0.013(2) 0.014(2) 0.015(3) 0.0012(16) -0.0007(17) 0.0014(18)
N4 N3- 0.020(2) 0.018(2) 0.018(4) -0.0050(16) 0.001(2) 0.004(2)
N5 N3- 0.016(2) 0.014(2) 0.016(3) 0.0019(17) -0.0027(18) 0.0019(19)
N6 N3- 0.023(2) 0.010(2) 0.013(3) 0.0002(17) 0.0027(19) 0.0002(17)
N7 N3- 0.015(2) 0.018(2) 0.011(3) 0.0006(17) 0.0024(19) 0.0021(19)
N8 N3- 0.0172(17) 0.0178(18) 0.011(3) 0.0011(14) 0.001(2) 0.001(2)
N9 N3- 0.021(2) 0.019(2) 0.012(3) 0.0047(18) -0.0058(19) -0.0009(19)
N10 N3- 0.013(2) 0.015(2) 0.015(3) 0.0000(16) 0.0001(17) -0.0037(18)
N11 N3- 0.021(2) 0.015(2) 0.014(3) -0.0010(18) -0.0020(19) -0.0001(19)
N12 N3- 0.019(2) 0.020(2) 0.010(4) -0.0010(16) -0.001(2) -0.003(2)
N13 N3- 0.0192(19) 0.0164(18) 0.013(3) -0.0012(15) -0.001(2) -0.003(2)
N14 N3- 0.027(3) 0.013(2) 0.013(3) 0.0008(18) -0.002(2) -0.0027(19)
#End of data_163667-ICSD


