data_157313-ICSD
#?2014 by Fachinformationszentrum Karlsruhe, and the U.S. Secretary of 
#Commerce on behalf of the United States.  All rights reserved.
_database_code_ICSD                157313
_audit_creation_date               2008/02/01
_audit_update_record               2014/08/01
_chemical_name_systematic
;
Calcium Hexaoxofluorodiniobate (1.5/1) - Alpha
;
_chemical_formula_structural       'Ca1.5 (Nb2 O6 F)'
_chemical_formula_sum              'Ca1.5 F1 Nb2 O6'
_publ_section_title
;
Ca(2+)/vacancies and O(2-)/F(-) ordering in new oxyfluoride 
pyrochlores Li2x Ca1.5-x (vac)0.5-x M2 O6 F (M = Nb, Ta) for 0 <= x 
<= 0.5
;
loop_
_citation_id
_citation_journal_abbrev
_citation_year
_citation_journal_volume
_citation_page_first
_citation_page_last
_citation_journal_id_ASTM
primary 'Dalton Transactions' 2007 2007 2457 2466 DTARAF
_publ_author_name
;
le Berre, F.;Crosnier-Lopez, M.P.;Galven, C.;Fourquet, J.L.;Legein, 
C.;Body, M.;Buzare, J.Y.
;
_cell_length_a                     10.4506(7)
_cell_length_b                     10.4506(7)
_cell_length_c                     10.4506(7)
_cell_angle_alpha                  90.
_cell_angle_beta                   90.
_cell_angle_gamma                  90.
_cell_volume                       1141.36
_cell_formula_units_Z              8
_symmetry_space_group_name_H-M     'P 43 3 2'
_symmetry_Int_Tables_number        212
_refine_ls_R_factor_all            .0484
loop_
_symmetry_equiv_pos_site_id
_symmetry_equiv_pos_as_xyz
  1	'z+.25, y+.75, -x+.75'
  2	'-z+.75, y+.25, x+.75'
  3	'y+.25, x+.75, -z+.75'
  4	'-y+.75, x+.25, z+.75'
  5	'x+.25, z+.75, -y+.75'
  6	'-x+.75, z+.25, y+.75'
  7	'z+.75, -y+.75, x+.25'
  8	'-z+.25, -y+.25, -x+.25'
  9	'y+.75, -x+.75, z+.25'
 10	'-y+.25, -x+.25, -z+.25'
 11	'x+.75, -z+.75, y+.25'
 12	'-x+.25, -z+.25, -y+.25'
 13	'-y+.5, -z, x+.5'
 14	'-y, z+.5, -x+.5'
 15	'y+.5, -z+.5, -x'
 16	'y, z, x'
 17	'z+.5, -x+.5, -y'
 18	'-z+.5, -x, y+.5'
 19	'-z, x+.5, -y+.5'
 20	'z, x, y'
 21	'-x+.5, -y, z+.5'
 22	'-x, y+.5, -z+.5'
 23	'x+.5, -y+.5, -z'
 24	'x, y, z'
loop_
_atom_type_symbol
_atom_type_oxidation_number
Ca2+	2
F1-	-1
Nb5+	5
O2-	-2
loop_
_atom_site_label
_atom_site_type_symbol
_atom_site_symmetry_multiplicity
_atom_site_Wyckoff_symbol
_atom_site_fract_x
_atom_site_fract_y
_atom_site_fract_z
_atom_site_occupancy
_atom_site_attached_hydrogens
_atom_site_B_iso_or_equiv
Ca1 Ca2+ 12 d 0.125 0.36603(8) -0.11603(8) 1. 0 1.00 
Nb1 Nb5+ 12 d 0.125 0.62421(2) -0.37421(2) 1. 0 0.74 
Nb2 Nb5+ 4 a 0.125 0.125 0.125 1. 0 0.85 
O1 O2- 24 e 0.1874(2) -0.0088(2) 0.0074(3) 1. 0 0.65 
O2 O2- 24 e 0.8028(3) -0.0014(2) 0.9950(2) 1. 0 0.69 
F1 F1- 8 c 0.4894(2) 0.4894(2) 0.4894(2) 1. 0 0.96 

loop_
_atom_site_aniso_label
_atom_site_aniso_type_symbol
_atom_site_aniso_U_11
_atom_site_aniso_U_22
_atom_site_aniso_U_33
_atom_site_aniso_U_12
_atom_site_aniso_U_13
_atom_site_aniso_U_23
Ca1 Ca2+ 0.0147(4) 0.0116(3) 0.0116(3) 0.0032(2) 0.0032(2) -0.0028(3)
Nb1 Nb5+ 0.0089(2) 0.0097(2) 0.0097(2) -0.0006(1) -0.0006(1) -0.0021(1)
Nb2 Nb5+ 0.0108(2) 0.0108(2) 0.0108(2) -0.0016(1) -0.0016(1) -0.0016(1)
O1 O2- 0.0088(9) 0.006(1) 0.010(1) 0.0008(7) 0.0007(7) -0.0038(7)
O2 O2- 0.0092(9) 0.006(1) 0.011(2) 0.0006(8) -0.0004(7) 0.0021(7)
F1 F1- 0.0124(7) 0.012(1) 0.012(1) 0.0021(7) 0.0021(7) 0.0021(7)
#End of data_157313-ICSD


