data_30996-ICSD
#?2014 by Fachinformationszentrum Karlsruhe, and the U.S. Secretary of 
#Commerce on behalf of the United States.  All rights reserved.
_database_code_ICSD                30996
_audit_creation_date               1987/03/16
_audit_update_record               2012/08/01
_chemical_name_systematic          'Aluminium Hydroxide Silicate *'
_chemical_formula_structural       'Al2 Si2 O5 (O H)4'
_chemical_formula_sum              'H4 Al2 O9 Si2'
_chemical_name_mineral             Dickite
_publ_section_title
;
The orientation of the hydroxyl groups in dickite by X-Ray 
diffraction
;
loop_
_citation_id
_citation_journal_abbrev
_citation_year
_citation_journal_volume
_citation_page_first
_citation_page_last
_citation_journal_id_ASTM
primary 'Neues Jahrbuch fuer Mineralogie. Monatshefte (Band=Jahr) (1950-)'
 1986 1986 19 22 NJMMAW
_publ_author_name                  'Joswig, W.;Drits, V.A.'
_cell_length_a                     5.1375(14)
_cell_length_b                     8.9171(19)
_cell_length_c                     14.389(2)
_cell_angle_alpha                  90.
_cell_angle_beta                   96.74(2)
_cell_angle_gamma                  90.
_cell_volume                       654.63
_cell_formula_units_Z              4
_symmetry_space_group_name_H-M     'C 1 c 1'
_symmetry_Int_Tables_number        9
_refine_ls_R_factor_all            .025
loop_
_symmetry_equiv_pos_site_id
_symmetry_equiv_pos_as_xyz
  1	'x, -y, z+.5'
  2	'x, y, z'
  3	'x+.5, -y+.5, z+.5'
  4	'x+.5, y+.5, z'
loop_
_atom_type_symbol
_atom_type_oxidation_number
Al3+	3
H1+	1
O2-	-2
Si4+	4
loop_
_atom_site_label
_atom_site_type_symbol
_atom_site_symmetry_multiplicity
_atom_site_Wyckoff_symbol
_atom_site_fract_x
_atom_site_fract_y
_atom_site_fract_z
_atom_site_occupancy
_atom_site_attached_hydrogens
_atom_site_U_iso_or_equiv
Si1 Si4+ 4 a 0.0123 0.40160(9) 0.0407 1. 0 0 
Si2 Si4+ 4 a -.0013(3) 0.07296(8) 0.04013(9) 1. 0 0 
Al1 Al3+ 4 a -.0854(2) 0.25257(10) 0.23162(8) 1. 0 0 
Al2 Al3+ 4 a 0.4193(3) 0.4176(1) 0.23092(10) 1. 0 0 
O1 O2- 4 a -.0425(5) 0.2381(2) -.0062(1) 1. 0 0 
O2 O2- 4 a 0.2564(5) 0.4720(2) -.0064(2) 1. 0 0 
O3 O2- 4 a -.2355(5) 0.5069(3) 0.0070(2) 1. 0 0 
O4 O2- 4 a 0.0786(5) 0.3909(3) 0.1520(2) 1. 0 0 
O5 O2- 4 a 0.0053(5) 0.0817(2) 0.1516(2) 1. 0 0 
O6 O2- 4 a 0.5834(5) 0.2757(3) 0.1568(2) 1. 0 0 
O7 O2- 4 a 0.2446(6) 0.2770(3) 0.2955(2) 1. 0 0 
O8 O2- 4 a 0.2487(6) 0.8942(3) 0.2979(2) 1. 0 0 
O9 O2- 4 a 0.3227(6) 0.5842(3) 0.2953(2) 1. 0 0 
H1 H1+ 4 a 0.522(11) 0.200(6) 0.157(4) 1. 0 0.012(15) 
H2 H1+ 4 a 0.294(10) 0.267(6) 0.349(4) 1. 0 0.011(14) 
H3 H1+ 4 a 0.283(13) 0.951(8) 0.346(5) 1. 0 0.043(20) 
H4 H1+ 4 a 0.289(9) 0.569(5) 0.348(4) 1. 0 0.010(12) 

loop_
_atom_site_aniso_label
_atom_site_aniso_type_symbol
_atom_site_aniso_U_11
_atom_site_aniso_U_22
_atom_site_aniso_U_33
_atom_site_aniso_U_12
_atom_site_aniso_U_13
_atom_site_aniso_U_23
Si1 Si4+ 0.0070(4) 0.0077(4) 0.0055(4) 0.0002(5) 0.0007(3) 0.0003(4)
Si2 Si4+ 0.0081(4) 0.0082(4) 0.0053(4) 0.0000(5) 0.0005(3) 0.0002(5)
Al1 Al3+ 0.0085(4) 0.0082(4) 0.0079(4) 0.0009(5) 0.0008(3) 0.0005(5)
Al2 Al3+ 0.0085(4) 0.0078(4) 0.0069(4) 0.0005(5) 0.0008(3) 0.0000(4)
O1 O2- 0.0133(11) 0.0076(10) 0.0079(10) -.0009(9) 0.0006(9) -.0005(8)
O2 O2- 0.0108(11) 0.0126(11) 0.0092(11) -.0026(10) 0.0027(9) -.0016(9)
O3 O2- 0.0099(11) 0.0120(11) 0.0116(11) 0.0031(9) 0.0028(9) 0.0034(9)
O4 O2- 0.0083(12) 0.0108(11) 0.0067(11) -.0011(10) 0.0004(9) -.0003(9)
O5 O2- 0.0136(13) 0.0078(12) 0.0055(11) -.0001(9) 0.0020(9) -.0006(8)
O6 O2- 0.0104(12) 0.0103(12) 0.0103(11) 0.0015(11) -.0010(8) -.0024(10)
O7 O2- 0.011(1) 0.0134(17) 0.0074(10) -.0017(11) -.0013(8) 0.0024(11)
O8 O2- 0.0121(13) 0.0108(15) 0.0103(12) 0.0019(10) 0.0000(9) -.0042(10)
O9 O2- 0.0153(14) 0.0098(12) 0.0074(12) 0.0006(12) 0.0034(10) 0.0011(9)
#End of data_30996-ICSD


