data_189840-ICSD
#?2014 by Fachinformationszentrum Karlsruhe, and the U.S. Secretary of 
#Commerce on behalf of the United States.  All rights reserved.
_database_code_ICSD                189840
_audit_creation_date               2014/02/01
_chemical_name_systematic          'Magnesium Dibromide Nonahydrate'
_chemical_formula_structural       'Mg Br2 (H2 O)9'
_chemical_formula_sum              'H18 Br2 Mg1 O9'
_publ_section_title
;
Crystal structures of hydrates of simple inorganic salts. I. Water-
rich magnesium halide hydrates Mg Cl2 * 8(H2 O), Mg Cl2 * 12(H2 O), 
Mg Br2 * 6(H2 O), Mg Br2 * 9(H2 O), Mg I2 * 8(H2 O) and Mg I2 * 9(H2 
O)
;
loop_
_citation_id
_citation_journal_abbrev
_citation_year
_citation_journal_volume
_citation_journal_issue
_citation_page_first
_citation_page_last
_citation_journal_id_ASTM
primary 'Acta Crystallographica, Section C: Crystal Structure Communications'
 2013 69 11 1292 1300 ACSCEE
_publ_author_name
;
Hennings, Erik;Schmidt, Horst;Voigt, Wolfgang
;
_cell_length_a                     11.835(4)
_cell_length_b                     6.4341(14)
_cell_length_c                     16.290(4)
_cell_angle_alpha                  90
_cell_angle_beta                   92.04(3)
_cell_angle_gamma                  90
_cell_volume                       1239.65
_cell_formula_units_Z              4
_symmetry_space_group_name_H-M     'C 1 2/c 1'
_symmetry_Int_Tables_number        15
_refine_ls_R_factor_all            .0293
loop_
_symmetry_equiv_pos_site_id
_symmetry_equiv_pos_as_xyz
  1	'x, -y, z+.5'
  2	'-x, -y, -z'
  3	'-x, y, -z+.5'
  4	'x, y, z'
  5	'x+.5, -y+.5, z+.5'
  6	'-x+.5, -y+.5, -z'
  7	'-x+.5, y+.5, -z+.5'
  8	'x+.5, y+.5, z'
loop_
_atom_type_symbol
_atom_type_oxidation_number
Br1-	-1
H1+	1
Mg2+	2
O2-	-2
loop_
_atom_site_label
_atom_site_type_symbol
_atom_site_symmetry_multiplicity
_atom_site_Wyckoff_symbol
_atom_site_fract_x
_atom_site_fract_y
_atom_site_fract_z
_atom_site_occupancy
_atom_site_attached_hydrogens
_atom_site_U_iso_or_equiv
Br1 Br1- 8 f 0.18095(3) 0.01876(5) 0.32410(2) 1 0 0.02809(18) 
Mg1 Mg2+ 4 b 1.0000 0.5000 0.5000 1 0 0.0175(3) 
O1 O2- 8 f 0.9988(2) 0.2099(3) 0.55139(14) 1 0 0.0300(5) 
O2 O2- 8 f 0.8290(2) 0.5058(4) 0.49641(15) 1 0 0.0332(6) 
O3 O2- 8 f 1.0056(2) 0.6292(3) 0.61873(13) 1 0 0.0265(5) 
O4 O2- 8 f 0.6769(2) 0.4782(4) 0.61754(16) 1 0 0.0336(6) 
O5 O2- 4 e 1.0000 0.3546(5) 0.7500 1 0 0.0344(8) 
H1 H1+ 8 f 0.786(3) 0.508(6) 0.5357(18) 1 0 0.041 
H2 H1+ 8 f 0.790(3) 0.513(6) 0.4528(16) 1 0 0.041 
H3 H1+ 8 f 0.691(4) 0.521(6) 0.6654(11) 1 0 0.041 
H4 H1+ 8 f 1.015(4) 0.549(5) 0.6598(16) 1 0 0.041 
H5 H1+ 8 f 1.058(2) 0.157(6) 0.573(2) 1 0 0.041 
H6 H1+ 8 f 0.956(3) 0.712(5) 0.636(2) 1 0 0.041 
H7 H1+ 8 f 0.943(2) 0.284(5) 0.734(2) 1 0 0.041 
H8 H1+ 8 f 0.942(2) 0.162(6) 0.575(2) 1 0 0.041 
H9 H1+ 8 f 0.646(3) 0.362(3) 0.623(2) 1 0 0.041 

loop_
_atom_site_aniso_label
_atom_site_aniso_type_symbol
_atom_site_aniso_U_11
_atom_site_aniso_U_22
_atom_site_aniso_U_33
_atom_site_aniso_U_12
_atom_site_aniso_U_13
_atom_site_aniso_U_23
Br1 Br1- 0.0313(2) 0.0315(2) 0.0215(2) 0.00111(13) 0.00122(14) -0.00132(12)
Mg1 Mg2+ 0.0208(7) 0.0167(7) 0.0150(7) 0.0006(5) 0.0019(5) 0.0008(5)
O1 O2- 0.0374(13) 0.0216(12) 0.0315(14) 0.0020(9) 0.0054(10) 0.0060(9)
O2 O2- 0.0210(12) 0.0562(17) 0.0227(13) 0.0023(10) 0.0026(9) 0.0002(10)
O3 O2- 0.0395(13) 0.0235(12) 0.0168(11) 0.0067(9) 0.0028(9) 0.0001(8)
O4 O2- 0.0423(15) 0.0348(14) 0.0241(12) 0.0051(11) 0.0064(11) 0.0027(10)
O5 O2- 0.051(2) 0.0258(18) 0.0262(18) 0.000 -0.0040(16) 0.000
#End of data_189840-ICSD


