data_98619-ICSD
#?2014 by Fachinformationszentrum Karlsruhe, and the U.S. Secretary of 
#Commerce on behalf of the United States.  All rights reserved.
_database_code_ICSD                98619
_audit_creation_date               2005/04/01
_audit_update_record               2010/08/01
_chemical_name_systematic
;
Potassium Iodide Dipotassium Dodecahydrido-closo-dodecaborate
;
_chemical_formula_structural       '(K I) (K2 (B12 H12))'
_chemical_formula_sum              'H12 B12 I1 K3'
_publ_section_title
;
Die Dodekahydro-closo-Dodekaborate M2 (B12 H12) der schweren 
Alkalimetalle (M(+)= K(+), Rb(+), (N H4)(+), Cs(+)) und ihre formalen 
Iodid-Addukte M3 I (B12 H12) (= (M I) * (M2 (B12 H12)))
;
loop_
_citation_id
_citation_journal_abbrev
_citation_year
_citation_journal_volume
_citation_page_first
_citation_page_last
_citation_journal_id_ASTM
primary 'Zeitschrift fuer Anorganische und Allgemeine Chemie (1950) (DE)'
 2003 629 1390 1402 ZAACAB
_publ_author_name                  'Tiritiris, I.;Schleid, T.'
_cell_length_a                     10.2396(7)
_cell_length_b                     10.2396(7)
_cell_length_c                     11.2783(9)
_cell_angle_alpha                  90
_cell_angle_beta                   90
_cell_angle_gamma                  120
_cell_volume                       1024.1
_cell_formula_units_Z              3
_symmetry_space_group_name_H-M     'R -3 m H'
_symmetry_Int_Tables_number        166
_refine_ls_R_factor_all            .01
loop_
_symmetry_equiv_pos_site_id
_symmetry_equiv_pos_as_xyz
  1	'x-y, -y, -z'
  2	'-x, -x+y, -z'
  3	'y, x, -z'
  4	'x-y, x, -z'
  5	'y, -x+y, -z'
  6	'-x, -y, -z'
  7	'-x+y, y, z'
  8	'x, x-y, z'
  9	'-y, -x, z'
 10	'-x+y, -x, z'
 11	'-y, x-y, z'
 12	'x, y, z'
 13	'x-y+.6666, -y+.3333, -z+.3333'
 14	'x-y+.3333, -y+.6666, -z+.6666'
 15	'-x+.6666, -x+y+.3333, -z+.3333'
 16	'-x+.3333, -x+y+.6666, -z+.6666'
 17	'y+.6666, x+.3333, -z+.3333'
 18	'y+.3333, x+.6666, -z+.6666'
 19	'x-y+.6666, x+.3333, -z+.3333'
 20	'x-y+.3333, x+.6666, -z+.6666'
 21	'y+.6666, -x+y+.3333, -z+.3333'
 22	'y+.3333, -x+y+.6666, -z+.6666'
 23	'-x+.6666, -y+.3333, -z+.3333'
 24	'-x+.3333, -y+.6666, -z+.6666'
 25	'-x+y+.6666, y+.3333, z+.3333'
 26	'-x+y+.3333, y+.6666, z+.6666'
 27	'x+.6666, x-y+.3333, z+.3333'
 28	'x+.3333, x-y+.6666, z+.6666'
 29	'-y+.6666, -x+.3333, z+.3333'
 30	'-y+.3333, -x+.6666, z+.6666'
 31	'-x+y+.6666, -x+.3333, z+.3333'
 32	'-x+y+.3333, -x+.6666, z+.6666'
 33	'-y+.6666, x-y+.3333, z+.3333'
 34	'-y+.3333, x-y+.6666, z+.6666'
 35	'x+.6666, y+.3333, z+.3333'
 36	'x+.3333, y+.6666, z+.6666'
loop_
_atom_type_symbol
_atom_type_oxidation_number
B.83+	.83
H1-	-1
I1-	-1
K1+	1
loop_
_atom_site_label
_atom_site_type_symbol
_atom_site_symmetry_multiplicity
_atom_site_Wyckoff_symbol
_atom_site_fract_x
_atom_site_fract_y
_atom_site_fract_z
_atom_site_occupancy
_atom_site_attached_hydrogens
_atom_site_U_iso_or_equiv
K1 K1+ 9 e 0.5 0 0 1. 0 0 
I1 I1- 3 b 0 0 0.5 1. 0 0 
B1 B.83+ 18 h 0.0575(1) -0.0575(1) 0.8806(2) 1. 0 0 
B2 B.83+ 18 h 0.0933(1) -0.0933(1) 0.0286(2) 1. 0 0 
H1 H1- 18 h 0.239(1) 0.761(1) 0.859(2) 1. 0 0.0439(58) 
H2 H1- 18 h 0.147(1) 0.853(1) 0.049(2) 1. 0 0.0445(58) 

loop_
_atom_site_aniso_label
_atom_site_aniso_type_symbol
_atom_site_aniso_U_11
_atom_site_aniso_U_22
_atom_site_aniso_U_33
_atom_site_aniso_U_12
_atom_site_aniso_U_13
_atom_site_aniso_U_23
K1 K1+ .0626(3) .0304(3) .0434(3) .0152(2) .0047(1) .0093(2)
I1 I1- .0226(1) .0226(1) .0235(2) .0113(1) 0. 0.
B1 B.83+ .0327(6) .0327(6) .0182(6) .0218(7) .0019(3) -.0019(3)
B2 B.83+ .0465(8) .0465(8) .0235(7) .0375(9) -.0005(3) .0005(3)
#End of data_98619-ICSD


