data_423188-ICSD
#?2014 by Fachinformationszentrum Karlsruhe, and the U.S. Secretary of 
#Commerce on behalf of the United States.  All rights reserved.
_database_code_ICSD                423188
_audit_creation_date               2013/02/01
_chemical_name_systematic
;
Dipotassium Digallium Tetraselenide
;
_chemical_formula_structural       'K2 Ga2 Se4'
_chemical_formula_sum              'Ga2 K2 Se4'
_publ_section_title
;
Synthesis, structure, physical properties, and electronic structure 
of K Ga Se2
;
loop_
_citation_id
_citation_journal_abbrev
_citation_year
_citation_journal_volume
_citation_journal_issue
_citation_page_first
_citation_page_last
_citation_journal_id_ASTM
primary 'Solid State Sciences' 2012 14 8 1152 1156 SSSCFJ
_publ_author_name
;
Feng Kai;Mei Dajiang;Bai Lei;Lin Zheshuai;Yao Jiyong;Wu Yicheng
;
_cell_length_a                     10.878(2)
_cell_length_b                     10.872(2)
_cell_length_c                     15.380(3)
_cell_angle_alpha                  90.00
_cell_angle_beta                   100.18(3)
_cell_angle_gamma                  90.00
_cell_volume                       1790.29
_cell_formula_units_Z              8
_symmetry_space_group_name_H-M     'C 1 2/c 1'
_symmetry_Int_Tables_number        15
_refine_ls_R_factor_all            .0417
loop_
_symmetry_equiv_pos_site_id
_symmetry_equiv_pos_as_xyz
  1	'x, -y, z+.5'
  2	'-x, -y, -z'
  3	'-x, y, -z+.5'
  4	'x, y, z'
  5	'x+.5, -y+.5, z+.5'
  6	'-x+.5, -y+.5, -z'
  7	'-x+.5, y+.5, -z+.5'
  8	'x+.5, y+.5, z'
loop_
_atom_type_symbol
_atom_type_oxidation_number
Ga3+	3
K1+	1
Se2-	-2
loop_
_atom_site_label
_atom_site_type_symbol
_atom_site_symmetry_multiplicity
_atom_site_Wyckoff_symbol
_atom_site_fract_x
_atom_site_fract_y
_atom_site_fract_z
_atom_site_occupancy
_atom_site_attached_hydrogens
_atom_site_U_iso_or_equiv
K1 K1+ 8 f 0.28401(17) 0.06195(17) 0.38710(13) 1 0 0.0094(4) 
K2 K1+ 8 f 0.46453(19) 0.31320(19) 0.10870(14) 1 0 0.0154(5) 
Ga1 Ga3+ 8 f 0.14545(8) 0.43601(8) 0.33748(6) 1 0 0.0055(3) 
Ga2 Ga3+ 8 f 0.10178(8) 0.18898(8) 0.16239(6) 1 0 0.0057(3) 
Se1 Se2- 8 f 0.25913(7) 0.31229(9) 0.25004(5) 1 0 0.0072(3) 
Se2 Se2- 8 f 0.20432(8) 0.06225(9) 0.06747(6) 1 0 0.0104(3) 
Se3 Se2- 8 f 0.04626(9) 0.31289(9) 0.43495(6) 1 0 0.0137(3) 
Se4 Se2- 4 e 0.0000 0.57185(11) 0.2500 1 0 0.0066(3) 
Se5 Se2- 4 e 0.0000 0.05366(12) 0.2500 1 0 0.0073(3) 

loop_
_atom_site_aniso_label
_atom_site_aniso_type_symbol
_atom_site_aniso_U_11
_atom_site_aniso_U_22
_atom_site_aniso_U_33
_atom_site_aniso_U_12
_atom_site_aniso_U_13
_atom_site_aniso_U_23
K1 K1+ 0.0109(9) 0.0146(9) 0.0023(10) -0.0050(7) 0.0007(7) -0.0012(8)
K2 K1+ 0.0178(10) 0.0191(10) 0.0088(12) 0.0076(8) 0.0009(8) -0.0019(8)
Ga1 Ga3+ 0.0051(5) 0.0071(5) 0.0041(6) -0.0007(4) 0.0002(4) 0.0001(4)
Ga2 Ga3+ 0.0058(5) 0.0083(5) 0.0029(6) 0.0006(4) 0.0001(4) -0.0002(4)
Se1 Se2- 0.0068(5) 0.0070(5) 0.0079(6) -0.0004(3) 0.0016(4) -0.0012(3)
Se2 Se2- 0.0130(5) 0.0161(5) 0.0015(6) 0.0092(3) -0.0004(4) -0.0006(3)
Se3 Se2- 0.0174(5) 0.0191(5) 0.0042(6) -0.0137(4) 0.0003(4) -0.0009(4)
Se4 Se2- 0.0045(6) 0.0082(6) 0.0061(7) 0.000 -0.0018(5) 0.000
Se5 Se2- 0.0056(6) 0.0096(6) 0.0068(8) 0.000 0.0010(5) 0.000
#End of data_423188-ICSD


