data_152067-ICSD
#?2014 by Fachinformationszentrum Karlsruhe, and the U.S. Secretary of 
#Commerce on behalf of the United States.  All rights reserved.
_database_code_ICSD                152067
_audit_creation_date               2006/10/01
_chemical_name_systematic
;
Lithium Gallium Catena-disilicate - Lt
;
_chemical_formula_structural       'Li Ga (Si2 O6)'
_chemical_formula_sum              'Ga1 Li1 O6 Si2'
_chemical_name_mineral             Clinopyroxene
_publ_section_title
;
Structural changes upon the temperature dependent C2/c - P21/c phase 
transition in Li Me(3+) Si2 O6 clinopyroxenes, Me = Cr, Ga, Fe, V, Sc 
and In
;
loop_
_citation_id
_citation_journal_abbrev
_citation_year
_citation_journal_volume
_citation_page_first
_citation_page_last
_citation_journal_id_ASTM
primary 'Zeitschrift fuer Kristallographie (1979-2010)' 2004 219 585 605 ZEKRDZ
_publ_author_name                  'Redhammer, G.J.;Roth, G.'
_cell_length_a                     9.571(3)
_cell_length_b                     8.587(2)
_cell_length_c                     5.234(2)
_cell_angle_alpha                  90.
_cell_angle_beta                   109.96(4)
_cell_angle_gamma                  90.
_cell_volume                       404.32
_cell_formula_units_Z              4
_symmetry_space_group_name_H-M     'P 1 21/c 1'
_symmetry_Int_Tables_number        14
_refine_ls_R_factor_all            .0276
loop_
_symmetry_equiv_pos_site_id
_symmetry_equiv_pos_as_xyz
  1	'x, -y+.5, z+.5'
  2	'-x, -y, -z'
  3	'-x, y+.5, -z+.5'
  4	'x, y, z'
loop_
_atom_type_symbol
_atom_type_oxidation_number
Ga3+	3
Li1+	1
O2-	-2
Si4+	4
loop_
_atom_site_label
_atom_site_type_symbol
_atom_site_symmetry_multiplicity
_atom_site_Wyckoff_symbol
_atom_site_fract_x
_atom_site_fract_y
_atom_site_fract_z
_atom_site_occupancy
_atom_site_attached_hydrogens
_atom_site_U_iso_or_equiv
Li1 Li1+ 4 e 0.2507(23) 0.0125(9) 0.2429(27) 1. 0 0.015(2) 
Ga1 Ga3+ 4 e 0.2501(1) 0.6511(1) 0.2403(2) 1. 0 0.0040(2) 
Si1 Si4+ 4 e 0.0472(2) 0.3410(3) 0.2681(3) 1. 0 0.0030(4) 
Si2 Si4+ 4 e 0.5477(2) 0.8408(3) 0.2530(3) 1. 0 0.0033(4) 
O1 O2- 4 e 0.6066(6) 0.7327(5) 0.5240(8) 1. 0 0.0064(9) 
O2 O2- 4 e 0.1082(6) 0.2628(5) 0.5684(8) 1. 0 0.0086(9) 
O3 O2- 4 e 0.6189(6) 0.0092(6) 0.3408(8) 1. 0 0.007(1) 
O4 O2- 4 e 0.1152(6) 0.5117(7) 0.3145(8) 1. 0 0.008(1) 
O5 O2- 4 e 0.3646(5) 0.8338(7) 0.1346(7) 1. 0 0.0047(9) 
O6 O2- 4 e 0.8637(5) 0.3331(7) 0.1527(7) 1. 0 0.0049(9) 

#End of data_152067-ICSD


