data_34163-ICSD
#?2014 by Fachinformationszentrum Karlsruhe, and the U.S. Secretary of 
#Commerce on behalf of the United States.  All rights reserved.
_database_code_ICSD                34163
_audit_creation_date               1980/01/01
_audit_update_record               2006/04/01
_chemical_name_systematic          'Magnesium Catena-silicate'
_chemical_formula_structural       'Mg (Si O3)'
_chemical_formula_sum              'Mg1 O3 Si1'
_chemical_name_mineral             Clinoenstatite
_publ_section_title
;
The effect of Ca substitution on the structure of clinoenstatite
;
loop_
_citation_id
_citation_journal_abbrev
_citation_year
_citation_journal_volume
_citation_page_first
_citation_page_last
_citation_journal_id_ASTM
primary 'Carnegie Institution of Washington: Yearbook' 1976 75 743 746 CIWYAO
2 'Golden Book of Phase Transitions, Wroclaw' 2002 1 1 123 GBOPT5
_publ_author_name                  'Ohashi, Y.;Finger, L.W.'
_cell_length_a                     9.604(1)
_cell_length_b                     8.813(1)
_cell_length_c                     5.166(1)
_cell_angle_alpha                  90.
_cell_angle_beta                   108.46(1)
_cell_angle_gamma                  90.
_cell_volume                       414.75
_cell_formula_units_Z              8
_symmetry_space_group_name_H-M     'P 1 21/c 1'
_symmetry_Int_Tables_number        14
_refine_ls_R_factor_all            .031
loop_
_symmetry_equiv_pos_site_id
_symmetry_equiv_pos_as_xyz
  1	'x, -y+.5, z+.5'
  2	'-x, -y, -z'
  3	'-x, y+.5, -z+.5'
  4	'x, y, z'
loop_
_atom_type_symbol
_atom_type_oxidation_number
Mg2+	2
O2-	-2
Si4+	4
loop_
_atom_site_label
_atom_site_type_symbol
_atom_site_symmetry_multiplicity
_atom_site_Wyckoff_symbol
_atom_site_fract_x
_atom_site_fract_y
_atom_site_fract_z
_atom_site_occupancy
_atom_site_attached_hydrogens
_atom_site_B_iso_or_equiv
Mg1 Mg2+ 4 e 0.2510(1) 0.6533(1) 0.2177(1) 1. 0 0.43 
Mg2 Mg2+ 4 e 0.2558(1) 0.0130(1) 0.2146(1) 1. 0 0.56 
Si1 Si4+ 4 e 0.0433(1) 0.3409(1) 0.2944(1) 1. 0 0.31 
Si2 Si4+ 4 e 0.5533(1) 0.8372(1) 0.2300(1) 1. 0 0.32 
O1 O2- 4 e 0.8666(1) 0.3398(1) 0.1850(2) 1. 0 0.39 
O2 O2- 4 e 0.1228(1) 0.5010(1) 0.3215(3) 1. 0 0.49 
O3 O2- 4 e 0.1067(1) 0.2795(1) 0.6153(3) 1. 0 0.5 
O4 O2- 4 e 0.3761(1) 0.8400(1) 0.1246(2) 1. 0 0.41 
O5 O2- 4 e 0.6338(1) 0.9827(1) 0.3892(3) 1. 0 0.52 
O6 O2- 4 e 0.6052(1) 0.6942(1) 0.4539(3) 1. 0 0.47 

#End of data_34163-ICSD


