data_91661-ICSD
#?2014 by Fachinformationszentrum Karlsruhe, and the U.S. Secretary of 
#Commerce on behalf of the United States.  All rights reserved.
_database_code_ICSD                91661
_audit_creation_date               2002/10/01
_chemical_name_systematic          'Aluminium Phosphate(V)'
_chemical_formula_structural       'Al (P O4)'
_chemical_formula_sum              'Al1 O4 P1'
_publ_section_title
;
Characterization and structural analysis of differently prepared 
samples of dehydrated VPI-5
;
loop_
_citation_id
_citation_journal_abbrev
_citation_year
_citation_journal_volume
_citation_page_first
_citation_page_last
_citation_journal_id_ASTM
primary 'Microporous and Mesoporous Materials' 2000 34 99 113 MIMMFJ
_publ_author_name
;
de Onate Martinez, J.;McCusker, L.B.;Baerlocher, C.
;
_cell_length_a                     18.52179(10)
_cell_length_b                     32.12469(20)
_cell_length_c                     8.40026(2)
_cell_angle_alpha                  90.
_cell_angle_beta                   90.
_cell_angle_gamma                  90.
_cell_volume                       4998.21
_cell_formula_units_Z              36
_symmetry_space_group_name_H-M     'C 1 m 1'
_symmetry_Int_Tables_number        8
_refine_ls_R_factor_all            .047
loop_
_symmetry_equiv_pos_site_id
_symmetry_equiv_pos_as_xyz
  1	'x, -y, z'
  2	'x, y, z'
  3	'x+.5, -y+.5, z'
  4	'x+.5, y+.5, z'
loop_
_atom_type_symbol
_atom_type_oxidation_number
Al3+	3
O2-	-2
P5+	5
loop_
_atom_site_label
_atom_site_type_symbol
_atom_site_symmetry_multiplicity
_atom_site_Wyckoff_symbol
_atom_site_fract_x
_atom_site_fract_y
_atom_site_fract_z
_atom_site_occupancy
_atom_site_attached_hydrogens
_atom_site_U_iso_or_equiv
Al1 Al3+ 4 b 0.2024(2) 0.2139(1) 0.2597(5) 1. 0 0.006(2) 
Al2 Al3+ 2 a 0.0662 0.5 0.2626 1. 0 0.006(2) 
Al3 Al3+ 4 b 0.1499(2) 0.3351(1) 0.2648(5) 1. 0 0.006(2) 
Al4 Al3+ 4 b 0.4143(2) 0.2488(1) 0.2635(5) 1. 0 0.006(2) 
Al5 Al3+ 4 b 0.4061(2) 0.0893(1) 0.2641(6) 1. 0 0.006(2) 
Al6 Al3+ 4 b 0.3236(2) 0.1692(1) 0.7644(5) 1. 0 0.006(2) 
Al7 Al3+ 2 a 0.4047(3) 0 0.7657(6) 1. 0 0.006(2) 
Al8 Al3+ 4 b 0.2824(2) 0.2911(1) 0.7657(5) 1. 0 0.006(2) 
Al9 Al3+ 4 b 0.0739(2) 0.2533(1) 0.7618(5) 1. 0 0.006(2) 
Al10 Al3+ 4 b 0.0661(2) 0.4149(1) 0.7630(5) 1. 0 0.006(2) 
P1 P5+ 4 b 0.2842(2) 0.2927(1) 0.3888(4) 1. 0 0.006(2) 
P2 P5+ 4 b 0.0735(2) 0.2530(1) 0.3849(5) 1. 0 0.006(2) 
P3 P5+ 4 b 0.0670(2) 0.4136(1) 0.3851(5) 1. 0 0.006(2) 
P4 P5+ 4 b 0.3253(2) 0.1681(1) 0.3834(5) 1. 0 0.006(2) 
P5 P5+ 2 a 0.4039(2) 0 0.3873(5) 1. 0 0.006(2) 
P6 P5+ 4 b 0.4143(2) 0.2475(1) 0.8877(5) 1. 0 0.006(2) 
P7 P5+ 4 b 0.4064(2) 0.0898(1) 0.8869(6) 1. 0 0.006(2) 
P8 P5+ 4 b 0.1506(2) 0.3355(1) 0.8884(5) 1. 0 0.006(2) 
P9 P5+ 4 b 0.2013(2) 0.2141(1) 0.8837(5) 1. 0 0.006(2) 
P10 P5+ 2 a 0.0667(3) 0.5 0.8831(3) 1. 0 0.006(2) 
O1 O2- 4 b 0.2140(3) 0.2257(1) 0.0610(5) 1. 0 0.01(1) 
O2 O2- 2 a 0.0460(3) 0.5 0.0615(2) 1. 0 0.01(1) 
O3 O2- 4 b 0.4341(3) 0.2440(1) 0.0657(5) 1. 0 0.01(1) 
O4 O2- 4 b 0.1482(3) 0.3476(1) 0.0667(5) 1. 0 0.01(1) 
O5 O2- 4 b 0.3927(3) 0.0993(1) 0.0659(6) 1. 0 0.01(1) 
O6 O2- 4 b 0.2378(2) 0.3296(1) 0.3316(6) 1. 0 0.01(1) 
O7 O2- 4 b 0.0993(3) 0.2904(1) 0.2877(6) 1. 0 0.01(1) 
O8 O2- 4 b -.0033(2) 0.4039(1) 0.2982(7) 1. 0 0.01(1) 
O9 O2- 4 b 0.3730(2) 0.0405(1) 0.3147(6) 1. 0 0.01(1) 
O10 O2- 4 b 0.3755(3) 0.2033(1) 0.3254(7) 1. 0 0.01(1) 
O11 O2- 4 b 0.3557(2) 0.2899(1) 0.2960(6) 1. 0 0.01(1) 
O12 O2- 4 b 0.1124(2) 0.2142(1) 0.3166(7) 1. 0 0.01(1) 
O13 O2- 4 b 0.1063(2) 0.4534(1) 0.3223(5) 1. 0 0.01(1) 
O14 O2- 4 b 0.2483(3) 0.1684(1) 0.3076(7) 1. 0 0.01(1) 
O15 O2- 4 b 0.2416(3) 0.2523(1) 0.3697(6) 1. 0 0.01(1) 
O16 O2- 2 a 0.4860(2) 0 0.3663(6) 1. 0 0.01(1) 
O17 O2- 4 b 0.3615(2) 0.1247(1) 0.3787(7) 1. 0 0.01(1) 
O18 O2- 4 b 0.1149(3) 0.3742(1) 0.3790(6) 1. 0 0.01(1) 
O19 O2- 4 b 0.9902(2) 0.2455(1) 0.3769(6) 1. 0 0.01(1) 
O20 O2- 4 b 0.0461(3) 0.4163(1) 0.5632(5) 1. 0 0.01(1) 
O21 O2- 4 b 0.0950(3) 0.2551(1) 0.5629(5) 1. 0 0.01(1) 
O22 O2- 4 b 0.3165(3) 0.1767(1) 0.5634(5) 1. 0 0.01(1) 
O23 O2- 2 a 0.3857(3) 0 0.5658(5) 1. 0 0.01(1) 
O24 O2- 4 b 0.2963(3) 0.3007(1) 0.5682(5) 1. 0 0.01(1) 
O25 O2- 2 a 0.4971(3) 0 0.7858(6) 1. 0 0.01(1) 
O26 O2- 4 b 0.2342(3) 0.2458(1) 0.7719(6) 1. 0 0.01(1) 
O27 O2- 4 b 0.1208(3) 0.3733(1) 0.7990(6) 1. 0 0.01(1) 
O28 O2- 4 b 0.4835(2) 0.2556(1) 0.7923(6) 1. 0 0.01(1) 
O29 O2- 4 b 0.3602(3) 0.1213(1) 0.7972(7) 1. 0 0.01(1) 
O30 O2- 4 b 0.2360(2) 0.1712(1) 0.8369(6) 1. 0 0.01(1) 
O31 O2- 4 b 0.1175(2) 0.2135(1) 0.8603(7) 1. 0 0.01(1) 
O32 O2- 4 b 0.1077(3) 0.4592(1) 0.8375(6) 1. 0 0.01(1) 
O33 O2- 4 b 0.3623(2) 0.2846(1) 0.8646(6) 1. 0 0.01(1) 
O34 O2- 4 b 0.4864(2) 0.0996(1) 0.8493(7) 1. 0 0.01(1) 
O35 O2- 4 b 0.2325(2) 0.3303(1) 0.8508(7) 1. 0 0.01(1) 
O36 O2- 4 b 0.3748(3) 0.0460(1) 0.8469(6) 1. 0 0.01(1) 
O37 O2- 4 b 0.1009(3) 0.2974(1) 0.8571(7) 1. 0 0.01(1) 
O38 O2- 4 b 0.3800(3) 0.2052(1) 0.8498(7) 1. 0 0.01(1) 

#End of data_91661-ICSD


