data_52578-ICSD
#?2014 by Fachinformationszentrum Karlsruhe, and the U.S. Secretary of 
#Commerce on behalf of the United States.  All rights reserved.
_database_code_ICSD                52578
_audit_creation_date               2003/04/01
_chemical_name_systematic          'Silver Indium Sulfide - Ht'
_chemical_formula_structural       'Ag In S2'
_chemical_formula_sum              'Ag1 In1 S2'
_publ_section_title
;
Interatomic interaction aspect of phase transition in Ag In S2 
crystals
;
loop_
_citation_id
_citation_journal_abbrev
_citation_year
_citation_journal_volume
_citation_page_first
_citation_page_last
_citation_journal_id_ASTM
primary 'Crystal Research and Technology' 1988 23 337 341 CRTEDF
_publ_author_name
;
Vaipolin, A.A.;Rud', Yu.V.;Rozhdestvenskaya, I.V.
;
_cell_length_a                     6.977(1)
_cell_length_b                     8.273(1)
_cell_length_c                     6.695(1)
_cell_angle_alpha                  90.
_cell_angle_beta                   90.
_cell_angle_gamma                  90.
_cell_volume                       386.44
_cell_formula_units_Z              4
_symmetry_space_group_name_H-M     'P n a 21'
_symmetry_Int_Tables_number        33
_refine_ls_R_factor_all            .061
loop_
_symmetry_equiv_pos_site_id
_symmetry_equiv_pos_as_xyz
  1	'x+.5, -y+.5, z'
  2	'-x+.5, y+.5, z+.5'
  3	'-x, -y, z+.5'
  4	'x, y, z'
loop_
_atom_type_symbol
_atom_type_oxidation_number
Ag1+	1
In3+	3
S2-	-2
loop_
_atom_site_label
_atom_site_type_symbol
_atom_site_symmetry_multiplicity
_atom_site_Wyckoff_symbol
_atom_site_fract_x
_atom_site_fract_y
_atom_site_fract_z
_atom_site_occupancy
_atom_site_attached_hydrogens
Ag1 Ag1+ 4 a 0.08781(15) 0.12404(15) 0 1. 0 
In1 In3+ 4 a 0.07631(7) 0.62586(19) 0.99312(34) 1. 0 
S1 S2- 4 a 0.0908(4) 0.1302(14) 0.3802(6) 1. 0 
S2 S2- 4 a 0.0690(4) 0.6207(16) 0.3620(5) 1. 0 

loop_
_atom_site_aniso_label
_atom_site_aniso_type_symbol
_atom_site_aniso_B_11
_atom_site_aniso_B_22
_atom_site_aniso_B_33
_atom_site_aniso_B_12
_atom_site_aniso_B_13
_atom_site_aniso_B_23
Ag1 Ag1+ 2.95(4) 2.99(4) 2.47(4) 0.21(4) 0.01(3) -.08(6)
In1 In3+ 1.24(1) 1.34(1) 1.17(1) 0.03(2) 0.09(1) -.07(5)
S1 S2- 1.16(6) 1.39(14) 1.53(6) 0.08(5) -.04(2) -.13(4)
S2 S2- 1.70(7) 1.42(8) 1.31(6) -.18(7) 0.15(3) 0.00(8)
#End of data_52578-ICSD


