data_641342-ICSD
#?2014 by Fachinformationszentrum Karlsruhe, and the U.S. Secretary of 
#Commerce on behalf of the United States.  All rights reserved.
_database_code_ICSD                641342
_audit_creation_date               2008/07/07
_audit_update_record               2009/08/01
_chemical_name_systematic          'Potassium Vanadium Sulfide'
_chemical_formula_structural       'K3 V S4'
_chemical_formula_sum              'K3 S4 V1'
_publ_section_title                'The crystal structure of K3 V S4'
loop_
_citation_id
_citation_journal_abbrev
_citation_year
_citation_journal_volume
_citation_page_first
_citation_page_last
_citation_journal_id_ASTM
primary
;
Koninklijke Nederlandse Akademie van Wetenschappen, Series B: 
Physical Sciences: Proceedings
;
 1964 67 178 180 KNWBAA
_publ_author_name                  'van den Berg, J.M.;de Vries, R.'
_cell_length_a                     9.1430
_cell_length_b                     10.5900
_cell_length_c                     9.1070
_cell_angle_alpha                  90.0
_cell_angle_beta                   90.0
_cell_angle_gamma                  90.0
_cell_volume                       881.78
_cell_formula_units_Z              4
_symmetry_space_group_name_H-M     'P n m a'
_symmetry_Int_Tables_number        62
loop_
_symmetry_equiv_pos_site_id
_symmetry_equiv_pos_as_xyz
  1	'x+.5, y, -z+.5'
  2	'x, -y+.5, z'
  3	'-x+.5, y+.5, z+.5'
  4	'-x, -y, -z'
  5	'-x+.5, -y, z+.5'
  6	'-x, y+.5, -z'
  7	'x+.5, -y+.5, -z+.5'
  8	'x, y, z'
loop_
_atom_type_symbol
_atom_type_oxidation_number
K1+	1
S2-	-2
V5+	5
loop_
_atom_site_label
_atom_site_type_symbol
_atom_site_symmetry_multiplicity
_atom_site_Wyckoff_symbol
_atom_site_fract_x
_atom_site_fract_y
_atom_site_fract_z
_atom_site_occupancy
_atom_site_attached_hydrogens
K1 K1+ 8 d 0.05000 0.95800 0.20700 1.000 0 
K2 K1+ 4 c 0.14300 0.25 0.41200 1.000 0 
S1 S2- 8 d 0.33100 0.09400 0.05100 1.000 0 
S2 S2- 4 c 0 0.25 0.07600 1.000 0 
S3 S2- 4 c 0.20300 0.25 0.75300 1.000 0 
V1 V5+ 4 c 0.21500 0.25 0.98500 1.000 0 

#End of data_641342-ICSD


