data_50060-ICSD
#?2014 by Fachinformationszentrum Karlsruhe, and the U.S. Secretary of 
#Commerce on behalf of the United States.  All rights reserved.
_database_code_ICSD                50060
_audit_creation_date               1999/01/19
_chemical_name_systematic
;
Calcium Tecto-dialumotrisilicate Trihydrate
;
_chemical_formula_structural       'Ca (Al2 Si3 O10) (H2 O)3'
_chemical_formula_sum              'H6 Al2 Ca1 O13 Si3'
_chemical_name_mineral             Scolecite
_publ_section_title
;
Scolecite, Part I: Refinement of high-order data, separation of 
internal and external vibrational amplitudes from displacement 
parameters
;
loop_
_citation_id
_citation_journal_abbrev
_citation_year
_citation_journal_volume
_citation_page_first
_citation_page_last
_citation_journal_id_ASTM
primary 'Physics and Chemistry of Minerals' 1997 24 403 410 PCMIDU
_publ_author_name
;
Stuckenschmidt, E.;Joswig, W.;Baur, W.H.;Hofmeister, W.
;
_cell_length_a                     18.502(1)
_cell_length_b                     18.974(2)
_cell_length_c                     6.525(1)
_cell_angle_alpha                  90.
_cell_angle_beta                   90.615(7)
_cell_angle_gamma                  90.
_cell_volume                       2290.51
_cell_formula_units_Z              8
_symmetry_space_group_name_H-M     'F 1 d 1'
_symmetry_Int_Tables_number        9
_refine_ls_R_factor_all            .012
loop_
_symmetry_equiv_pos_site_id
_symmetry_equiv_pos_as_xyz
  1	'x+.25, -y+.25, z+.25'
  2	'x, y, z'
  3	'x+.25, -y+.75, z+.75'
  4	'x+.75, -y+.25, z+.75'
  5	'x+.75, -y+.75, z+.25'
  6	'x, y+.5, z+.5'
  7	'x+.5, y, z+.5'
  8	'x+.5, y+.5, z'
loop_
_atom_type_symbol
_atom_type_oxidation_number
Al3+	3
Ca2+	2
H1+	1
O2-	-2
Si4+	4
loop_
_atom_site_label
_atom_site_type_symbol
_atom_site_symmetry_multiplicity
_atom_site_Wyckoff_symbol
_atom_site_fract_x
_atom_site_fract_y
_atom_site_fract_z
_atom_site_occupancy
_atom_site_attached_hydrogens
_atom_site_U_iso_or_equiv
Si1 Si4+ 8 a 0.5 0.50440(1) 0 1. 0 0.00603(3) 
Si2 Si4+ 8 a 0.64989(1) 0.70685(1) 0.62019(3) 1. 0 0.00577(3) 
Si3 Si4+ 8 a 0.33444(1) 0.29244(1) 0.62550(3) 1. 0 0.00564(3) 
Al1 Al3+ 8 a 0.53302(1) 0.59168(1) 0.61120(3) 1. 0 0.00588(3) 
Al2 Al3+ 8 a 0.45014(1) 0.41292(1) 0.61564(4) 1. 0 0.00617(3) 
O1 O2- 8 a 0.51589(3) 0.57450(2) 0.86835(7) 1. 0 0.01164(7) 
O2 O2- 8 a 0.48314(3) 0.43812(2) 0.85594(8) 1. 0 0.01280(8) 
O3 O2- 8 a 0.57062(2) 0.67464(2) 0.57552(7) 1. 0 0.00858(7) 
O4 O2- 8 a 0.41280(2) 0.32898(2) 0.64013(7) 1. 0 0.00906(7) 
O5 O2- 8 a 0.59211(2) 0.52626(2) 0.52419(7) 1. 0 0.01076(7) 
O6 O2- 8 a 0.39248(2) 0.47951(2) 0.53072(7) 1. 0 0.01229(8) 
O7 O2- 8 a 0.45456(2) 0.60378(2) 0.45885(8) 1. 0 0.01146(7) 
O8 O2- 8 a 0.51956(2) 0.40642(2) 0.43755(8) 1. 0 0.01202(8) 
O9 O2- 8 a 0.43275(2) 0.51631(3) 0.15256(7) 1. 0 0.01214(8) 
O10 O2- 8 a 0.57178(2) 0.48514(3) 0.13908(7) 1. 0 0.01113(7) 
Ca1 Ca2+ 8 a 0.47323(1) 0.73179(1) 0.36470(3) 1. 0 0.01099(2) 
O11 O2- 8 a 0.53024(8) 0.70120(5) 0.0625(2) 1. 0 0.0328(2) 
O12 O2- 8 a 0.44574(5) 0.79528(6) 0.6629(2) 1. 0 0.0292(2) 
O13 O2- 8 a 0.56282(4) 0.82040(3) 0.3583(2) 1. 0 0.0243(2) 
H1 H1+ 8 a 0.514(3) 0.667(2) 0.006(7) 1. 0 0.08(1) 
H2 H1+ 8 a 0.567(2) 0.727(2) 0.202(6) 1. 0 0.052(9) 
H3 H1+ 8 a 0.421(2) 0.772(2) 0.714(6) 1. 0 0.06(1) 
H4 H1+ 8 a 0.484(3) 0.800(3) 0.728(9) 1. 0 0.10(1) 
H5 H1+ 8 a 0.606(2) 0.819(2) 0.332(5) 1. 0 0.050(8) 
H6 H1+ 8 a 0.550(2) 0.861(2) 0.378(5) 1. 0 0.046(8) 

#End of data_50060-ICSD


