data_420440-ICSD
#?2014 by Fachinformationszentrum Karlsruhe, and the U.S. Secretary of 
#Commerce on behalf of the United States.  All rights reserved.
_database_code_ICSD                420440
_audit_creation_date               2010/02/01
_chemical_name_systematic
;
Lithium Lanthanum Bis(carbodiimide)
;
_chemical_formula_structural       'Li La (C N2)2'
_chemical_formula_sum              'C2 La1 Li1 N4'
_publ_section_title
;
The many faces of rare earth carbodiimide compounds
;
loop_
_citation_id
_citation_journal_abbrev
_citation_year
_citation_journal_volume
_citation_journal_issue
_citation_page_first
_citation_page_last
_citation_journal_id_ASTM
primary 'Zeitschrift fuer Anorganische und Allgemeine Chemie (1950) (DE)'
 2009 635 12 1947 1952 ZAACAB
_publ_author_name
;
Unverfehrt, L.;Stroebele, M.;Glaser, J.;Meyer, H.J.
;
_cell_length_a                     5.424(1)
_cell_length_b                     3.7916(7)
_cell_length_c                     10.130(3)
_cell_angle_alpha                  90.00
_cell_angle_beta                   101.35(3)
_cell_angle_gamma                  90.00
_cell_volume                       204.26
_cell_formula_units_Z              2
_symmetry_space_group_name_H-M     'P 1 21/m 1'
_symmetry_Int_Tables_number        11
_refine_ls_R_factor_all            .0188
loop_
_symmetry_equiv_pos_site_id
_symmetry_equiv_pos_as_xyz
  1	'x, -y+.5, z'
  2	'-x, -y, -z'
  3	'-x, y+.5, -z'
  4	'x, y, z'
loop_
_atom_type_symbol
_atom_type_oxidation_number
C4+	4
La3+	3
Li1+	1
N3-	-3
loop_
_atom_site_label
_atom_site_type_symbol
_atom_site_symmetry_multiplicity
_atom_site_Wyckoff_symbol
_atom_site_fract_x
_atom_site_fract_y
_atom_site_fract_z
_atom_site_occupancy
_atom_site_attached_hydrogens
_atom_site_U_iso_or_equiv
La1 La3+ 2 e 0.98319(5) 0.2500 0.19343(3) 1 0 0.01018(14) 
N1 N3- 2 e 0.6502(9) -0.2500 0.1585(5) 1 0 0.0131(9) 
C1 C4+ 2 e 1.4260(11) -0.2500 0.1093(6) 1 0 0.0135(11) 
N2 N3- 2 e 0.8038(9) 0.2500 -0.0658(5) 1 0 0.0139(10) 
N3 N3- 2 e 0.7576(9) 0.2500 0.4048(5) 1 0 0.0155(10) 
C2 C4+ 2 e 1.2203(10) -0.2500 0.4741(6) 1 0 0.0123(11) 
N4 N3- 2 e 1.2071(9) -0.2500 0.3491(5) 1 0 0.0138(10) 
Li1 Li1+ 2 e 1.5945(19) -0.2500 0.3574(12) 1 0 0.020(2) 

loop_
_atom_site_aniso_label
_atom_site_aniso_type_symbol
_atom_site_aniso_U_11
_atom_site_aniso_U_22
_atom_site_aniso_U_33
_atom_site_aniso_U_12
_atom_site_aniso_U_13
_atom_site_aniso_U_23
La1 La3+ 0.01059(18) 0.00841(18) 0.0118(2) 0.000 0.00295(13) 0.000
N1 N3- 0.013(2) 0.0131(19) 0.014(3) 0.000 0.004(2) 0.000
C1 C4+ 0.020(3) 0.011(2) 0.011(3) 0.000 0.006(2) 0.000
N2 N3- 0.017(2) 0.0115(19) 0.014(3) 0.000 0.005(2) 0.000
N3 N3- 0.018(2) 0.016(2) 0.012(3) 0.000 0.002(2) 0.000
C2 C4+ 0.012(2) 0.008(2) 0.018(3) 0.000 0.005(2) 0.000
N4 N3- 0.015(2) 0.0123(19) 0.015(3) 0.000 0.005(2) 0.000
Li1 Li1+ 0.017(4) 0.016(4) 0.026(6) 0.000 0.004(4) 0.000
#End of data_420440-ICSD


