data_44413-ICSD
#?2014 by Fachinformationszentrum Karlsruhe, and the U.S. Secretary of 
#Commerce on behalf of the United States.  All rights reserved.
_database_code_ICSD                44413
_audit_creation_date               2000/12/16
_audit_update_record               2012/08/01
_chemical_name_systematic
;
Calcium Bis(dihydrogenphosphate(I))
;
_chemical_formula_structural       'Ca (H2 P O2)2'
_chemical_formula_sum              'H4 Ca1 O4 P2'
_publ_section_title
;
Neutron diffraction and structural investigation in Kjeller
;
loop_
_citation_id
_citation_journal_abbrev
_citation_year
_citation_journal_volume
_citation_page_first
_citation_page_last
_citation_journal_id_ASTM
primary 'Nederlands Tijdschrift voor Natuurkunde' 1959 25 29 41 NTNKAX
_publ_author_name                  'Goedkoop, J.A.;Loopstra, L.H.'
_cell_length_a                     15.08
_cell_length_b                     5.66
_cell_length_c                     6.73
_cell_angle_alpha                  90.
_cell_angle_beta                   102.13
_cell_angle_gamma                  90.
_cell_volume                       561.6
_cell_formula_units_Z              4
_symmetry_space_group_name_H-M     'C 1 2/c 1'
_symmetry_Int_Tables_number        15
_refine_ls_R_factor_all            .106
loop_
_symmetry_equiv_pos_site_id
_symmetry_equiv_pos_as_xyz
  1	'x, -y, z+.5'
  2	'-x, -y, -z'
  3	'-x, y, -z+.5'
  4	'x, y, z'
  5	'x+.5, -y+.5, z+.5'
  6	'-x+.5, -y+.5, -z'
  7	'-x+.5, y+.5, -z+.5'
  8	'x+.5, y+.5, z'
loop_
_atom_type_symbol
_atom_type_oxidation_number
Ca2+	2
H1-	-1
O2-	-2
P5+	5
loop_
_atom_site_label
_atom_site_type_symbol
_atom_site_symmetry_multiplicity
_atom_site_Wyckoff_symbol
_atom_site_fract_x
_atom_site_fract_y
_atom_site_fract_z
_atom_site_occupancy
_atom_site_attached_hydrogens
_atom_site_B_iso_or_equiv
Ca1 Ca2+ 4 e 0 0.166 0.25 1. 0 2.08 
P1 P5+ 8 f 0.143 0.686 0.218 1. 0 2.08 
O1 O2- 8 f 0.075 0.861 0.103 1. 0 2.08 
O2 O2- 8 f 0.112 0.437 0.23 1. 0 2.08 
H1 H1- 8 f 0.17 0.77 0.417 1. 0 4. 
H2 H1- 8 f 0.22 0.685 0.138 1. 0 4. 

#End of data_44413-ICSD


