data_158177-ICSD
#?2014 by Fachinformationszentrum Karlsruhe, and the U.S. Secretary of 
#Commerce on behalf of the United States.  All rights reserved.
_database_code_ICSD                158177
_audit_creation_date               2008/02/01
_chemical_name_systematic          'Dicalcium Magnesium Disilicate'
_chemical_formula_structural       'Ca2 Mg (Si2 O7)'
_chemical_formula_sum              'Ca2 Mg1 O7 Si2'
_chemical_name_mineral             Akermanite
_publ_section_title
;
Non-ideality and defectivity of the akermanite - gehlenite solid 
solution: an X-ray diffraction and TEM study
;
loop_
_citation_id
_citation_journal_abbrev
_citation_year
_citation_journal_volume
_citation_page_first
_citation_page_last
_citation_journal_id_ASTM
primary 'American Mineralogist' 2007 92 1685 1694 AMMIAY
_publ_author_name
;
Gemmi, M.;Merlini, M.;Cruciani, G.;Artioli, G.
;
_cell_length_a                     7.834(2)
_cell_length_b                     7.834(2)
_cell_length_c                     5.010(2)
_cell_angle_alpha                  90.
_cell_angle_beta                   90.
_cell_angle_gamma                  90.
_cell_volume                       307.47
_cell_formula_units_Z              2
_symmetry_space_group_name_H-M     'P -4 21 m'
_symmetry_Int_Tables_number        113
_refine_ls_R_factor_all            .0417
loop_
_symmetry_equiv_pos_site_id
_symmetry_equiv_pos_as_xyz
  1	'-y+.5, -x+.5, z'
  2	'y, -x, -z'
  3	'y+.5, x+.5, z'
  4	'-y, x, -z'
  5	'x+.5, -y+.5, -z'
  6	'-x, -y, z'
  7	'-x+.5, y+.5, -z'
  8	'x, y, z'
loop_
_atom_type_symbol
_atom_type_oxidation_number
Ca2+	2
Mg2+	2
O2-	-2
Si4+	4
loop_
_atom_site_label
_atom_site_type_symbol
_atom_site_symmetry_multiplicity
_atom_site_Wyckoff_symbol
_atom_site_fract_x
_atom_site_fract_y
_atom_site_fract_z
_atom_site_occupancy
_atom_site_attached_hydrogens
_atom_site_U_iso_or_equiv
Ca1 Ca2+ 4 e 0.33172(3) 0.16828(3) 0.50643(6) 1. 0 0.01967(8) 
Mg1 Mg2+ 2 a 0 0 0 1. 0 0.01085(14) 
Si1 Si4+ 4 e 0.13986(3) 0.36014(3) 0.93540(7) 1. 0 0.00958(8) 
O1 O2- 2 c 0.5 0 0.1810(3) 1. 0 0.0237(4) 
O2 O2- 4 e 0.14094(10) 0.35906(10) 0.25384(19) 1. 0 0.0215(3) 
O3 O2- 8 f 0.08095(13) 0.18667(11) 0.78658(17) 1. 0 0.0257(3) 

loop_
_atom_site_aniso_label
_atom_site_aniso_type_symbol
_atom_site_aniso_U_11
_atom_site_aniso_U_22
_atom_site_aniso_U_33
_atom_site_aniso_U_12
_atom_site_aniso_U_13
_atom_site_aniso_U_23
Ca1 Ca2+ 0.02242(12) 0.02242(12) 0.01417(15) 0.01235(12) 0.00186(9) 
-0.00186(9)
Mg1 Mg2+ 0.01071(19) 0.01071(19) 0.0111(3) 0. 0. 0.
Si1 Si4+ 0.00928(12) 0.00928(12) 0.01018(17) 0.00146(14) 0.00102(10) 
-0.00102(10)
O1 O2- 0.0312(6) 0.0312(6) 0.0087(7) -0.0220(8) 0. 0.
O2 O2- 0.0263(4) 0.0263(4) 0.0118(5) 0.0132(6) -0.0010(3) 0.0010(3)
O3 O2- 0.0468(6) 0.0132(4) 0.0173(4) -0.0109(5) 0.0099(4) -0.0025(3)
#End of data_158177-ICSD


