data_250437-ICSD
#?2014 by Fachinformationszentrum Karlsruhe, and the U.S. Secretary of 
#Commerce on behalf of the United States.  All rights reserved.
_database_code_ICSD                250437
_audit_creation_date               2008/02/01
_chemical_name_systematic
;
Disodium Terbium Molybdate Phosphate(V)
;
_chemical_formula_structural       'Na2 Tb (Mo O4) (P O4)'
_chemical_formula_sum              'Mo1 Na2 O8 P1 Tb1'
_publ_section_title
;
Synthesis and crystal structures of new complex sodium lanthanide 
phosphate molybdates Na2 M(III) (Mo O4) (P O4) (M(III)= Tb, Dy, Ho, 
Er, Tm, Lu)
;
loop_
_citation_id
_citation_journal_abbrev
_citation_year
_citation_journal_volume
_citation_journal_issue
_citation_page_first
_citation_page_last
_citation_journal_id_ASTM
primary 'Zhurnal Neorganicheskoi Khimii' 2007 52 5 717 724 ZNOKAQ
2 'Russian Journal of Inorganic Chemistry' 2007 52 5 653 660 RJICAQ
_publ_author_name
;
Ryumin, M.A.;Komissarova, L.N.;Rusakov, D.A.;Bobylev, A.P.;Zhizhin, 
M.G.
;
_cell_length_a                     17.9849(2)
_cell_length_b                     12.1989(2)
_cell_length_c                     6.9129(1)
_cell_angle_alpha                  90.
_cell_angle_beta                   90.
_cell_angle_gamma                  90.
_cell_volume                       1516.66
_cell_formula_units_Z              8
_symmetry_space_group_name_H-M     'I b c a'
_symmetry_Int_Tables_number        73
_refine_ls_R_factor_all            .0695
loop_
_symmetry_equiv_pos_site_id
_symmetry_equiv_pos_as_xyz
  1	'x, y+.5, -z'
  2	'x+.5, -y, z'
  3	'-x, y, z+.5'
  4	'-x, -y, -z'
  5	'-x, -y+.5, z'
  6	'-x+.5, y, -z'
  7	'x, -y, -z+.5'
  8	'x, y, z'
  9	'x+.5, y, -z+.5'
 10	'x, -y+.5, z+.5'
 11	'-x+.5, y+.5, z'
 12	'-x+.5, -y+.5, -z+.5'
 13	'-x+.5, -y, z+.5'
 14	'-x, y+.5, -z+.5'
 15	'x+.5, -y+.5, -z'
 16	'x+.5, y+.5, z+.5'
loop_
_atom_type_symbol
_atom_type_oxidation_number
Mo6+	6
Na1+	1
O2-	-2
P5+	5
Tb3+	3
loop_
_atom_site_label
_atom_site_type_symbol
_atom_site_symmetry_multiplicity
_atom_site_Wyckoff_symbol
_atom_site_fract_x
_atom_site_fract_y
_atom_site_fract_z
_atom_site_occupancy
_atom_site_attached_hydrogens
_atom_site_U_iso_or_equiv
Na1 Na1+ 16 f 0.5963(2) 0.1884(5) 0.272(1) 1 0 0.029(2) 
Tb1 Tb3+ 8 d 0.75 0.0716(1) 0 1 0 0.0054(8) 
Mo1 Mo6+ 8 c 0.4992(1) 0 0.25 1 0 0.0145(9) 
P1 P5+ 8 d 0.25 0.1727(5) 0 1 0 0.011(1) 
O1 O2- 16 f 0.3773(5) 0.0257(6) 0.473(1) 1 0 0.030(2) 
O2 O2- 16 f 0.4895(4) 0.1202(9) 0.195(2) 1 0 0.030(2) 
O3 O2- 16 f 0.1844(4) 0.2553(5) -0.009(2) 1 0 0.008(2) 
O4 O2- 16 f 0.2476(4) 0.1087(6) 0.183(1) 1 0 0.008(2) 

#End of data_250437-ICSD


