data_85008-ICSD
#?2014 by Fachinformationszentrum Karlsruhe, and the U.S. Secretary of 
#Commerce on behalf of the United States.  All rights reserved.
_database_code_ICSD                85008
_audit_creation_date               1999/06/02
_audit_update_record               2012/08/01
_chemical_name_systematic          'Magnesium Diniobate'
_chemical_formula_structural       'Mg (Nb2 O6)'
_chemical_formula_sum              'Mg1 Nb2 O6'
_chemical_name_mineral             Columbite-(Mg)
_publ_section_title
;
Crystal structure refinement of Mg Nb2 O6 columbite from neutron 
powder diffraction data and study of the ternary system (Mg O) - (Nb2 
O5) - (Nb O), with evidence of formation of new reduced 
pseudobrookite Mg5-x Nb4+x O15-d (1.14<x<1.60) phases
;
loop_
_citation_id
_citation_journal_abbrev
_citation_year
_citation_journal_volume
_citation_page_first
_citation_page_last
_citation_journal_id_ASTM
primary 'Journal of Solid State Chemistry' 1997 134 76 84 JSSCBI
_publ_author_name
;
Pagola, S.;Carbonio, R.E.;Alonso, J.A.;Fernandez Diaz, M.T.
;
_cell_length_a                     14.1875(1)
_cell_length_b                     5.7001(1)
_cell_length_c                     5.0331(1)
_cell_angle_alpha                  90.
_cell_angle_beta                   90.
_cell_angle_gamma                  90.
_cell_volume                       407.03
_cell_formula_units_Z              4
_symmetry_space_group_name_H-M     'P b c n'
_symmetry_Int_Tables_number        60
_refine_ls_R_factor_all            .025
loop_
_symmetry_equiv_pos_site_id
_symmetry_equiv_pos_as_xyz
  1	'x, -y, z+.5'
  2	'-x+.5, y+.5, z'
  3	'x+.5, y+.5, -z+.5'
  4	'-x, -y, -z'
  5	'-x, y, -z+.5'
  6	'x+.5, -y+.5, -z'
  7	'-x+.5, -y+.5, z+.5'
  8	'x, y, z'
loop_
_atom_type_symbol
_atom_type_oxidation_number
Mg2+	2
Nb5+	5
O2-	-2
loop_
_atom_site_label
_atom_site_type_symbol
_atom_site_symmetry_multiplicity
_atom_site_Wyckoff_symbol
_atom_site_fract_x
_atom_site_fract_y
_atom_site_fract_z
_atom_site_occupancy
_atom_site_attached_hydrogens
Mg1 Mg2+ 4 c 0 0.1688(5) 0.25 1. 0 
Nb1 Nb5+ 8 d 0.15993(8) 0.3181(2) 0.7538(3) 1. 0 
O1 O2- 8 d 0.0955(1) 0.3944(3) 0.4321(3) 1. 0 
O2 O2- 8 d 0.0796(1) 0.1163(4) 0.9077(4) 1. 0 
O3 O2- 8 d 0.2560(1) 0.1222(3) 0.5833(4) 1. 0 

#End of data_85008-ICSD


