data_35661-ICSD
#?2014 by Fachinformationszentrum Karlsruhe, and the U.S. Secretary of 
#Commerce on behalf of the United States.  All rights reserved.
_database_code_ICSD                35661
_audit_creation_date               1983/12/31
_audit_update_record               2003/10/01
_chemical_name_systematic          'Dirubidium Tetrachlorozincate'
_chemical_formula_structural       'Rb2 (Zn Cl4)'
_chemical_formula_sum              'Cl4 Rb2 Zn1'
_publ_section_title
;
Neutron structural study of the successive phase transitions in Rb2 
Zn Cl4
;
loop_
_citation_id
_citation_journal_abbrev
_citation_year
_citation_journal_volume
_citation_page_first
_citation_page_last
_citation_journal_id_ASTM
primary 'Acta Crystallographica, Section B: Structural Science'
 1983 39 657 663 ASBSDK
2 'Phase Transition' 1992 38 127 220 PHTRDP
_publ_author_name                  'Quilichini, M.;Pannetier, J.'
_cell_length_a                     9.218(9)
_cell_length_b                     7.275(6)
_cell_length_c                     12.722(8)
_cell_angle_alpha                  90.
_cell_angle_beta                   90.
_cell_angle_gamma                  90.
_cell_volume                       853.15
_cell_formula_units_Z              4
_symmetry_space_group_name_H-M     'P n 21 a'
_symmetry_Int_Tables_number        33
_refine_ls_R_factor_all            .063
loop_
_symmetry_equiv_pos_site_id
_symmetry_equiv_pos_as_xyz
  1	'x+.5, y, -z+.5'
  2	'-x+.5, y+.5, z+.5'
  3	'-x, y+.5, -z'
  4	'x, y, z'
loop_
_atom_type_symbol
_atom_type_oxidation_number
Cl1-	-1
Rb1+	1
Zn2+	2
loop_
_atom_site_label
_atom_site_type_symbol
_atom_site_symmetry_multiplicity
_atom_site_Wyckoff_symbol
_atom_site_fract_x
_atom_site_fract_y
_atom_site_fract_z
_atom_site_occupancy
_atom_site_attached_hydrogens
Rb1 Rb1+ 4 a 0.6302(3) 0.25 0.4069(3) 1. 0 
Rb2 Rb1+ 4 a 0.4862(2) 0.25 0.8194(2) 1. 0 
Zn1 Zn2+ 4 a 0.2240(2) 0.25 0.4219(2) 1. 0 
Cl1 Cl1- 4 a 0.9827(2) 0.2824(12) 0.4189(2) 1. 0 
Cl2 Cl1- 4 a 0.3208(2) 0.2867(9) 0.5849(1) 1. 0 
Cl3 Cl1- 4 a 0.3228(7) 0.9857(9) 0.3579(5) 1. 0 
Cl4 Cl1- 4 a 0.3032(9) 0.4804(10) 0.3207(5) 1. 0 

loop_
_atom_site_aniso_label
_atom_site_aniso_type_symbol
_atom_site_aniso_U_11
_atom_site_aniso_U_22
_atom_site_aniso_U_33
_atom_site_aniso_U_12
_atom_site_aniso_U_13
_atom_site_aniso_U_23
Rb1 Rb1+ 0.0197(14) 0.0632(18) 0.0742(22) 0 -0.0031(12) 0
Rb2 Rb1+ 0.0188(11) 0.0537(15) 0.0199(12) 0 -0.0006(8) 0
Zn1 Zn2+ 0.0151(12) 0.0277(13) 0.0128(13) 0 -0.0012(8) 0
Cl1 Cl1- 0.013(1) 0.0710(66) 0.0377(13) 0 -0.0048(7) 0
Cl2 Cl1- 0.0253(11) 0.0857(64) 0.0159(11) 0 -0.0082(7) 0
Cl3 Cl1- 0.0310(21) 0.0268(23) 0.0557(35) -0.0021(15) 0.0114(21) 
-0.0106(20)
Cl4 Cl1- 0.0535(31) 0.0333(31) 0.0688(44) 0.0007(21) 0.0191(29) 0.0219(27)
#End of data_35661-ICSD


