data_68143-ICSD
#?2014 by Fachinformationszentrum Karlsruhe, and the U.S. Secretary of 
#Commerce on behalf of the United States.  All rights reserved.
_database_code_ICSD                68143
_audit_creation_date               1991/07/10
_audit_update_record               2012/02/01
_chemical_name_systematic
;
Silver Vanadium Hexaselenoduophosphate(IV)
;
_chemical_formula_structural       'Ag V (P2 Se6)'
_chemical_formula_sum              'Ag1 P2 Se6 V1'
_publ_section_title
;
Modification of the cationic ordering with respect to the chalcogen 
in the layered M M' P2 X6 phases. Synthesis and structure of two-
dimensional Ag V P2 Se6
;
loop_
_citation_id
_citation_journal_abbrev
_citation_year
_citation_journal_volume
_citation_page_first
_citation_page_last
_citation_journal_id_ASTM
primary 'Materials Research Bulletin' 1988 23 1199 1209 MRBUAC
_publ_author_name                  'Ouvrard, G.;Brec, R.'
_cell_length_a                     6.3399(6)
_cell_length_b                     11.020(1)
_cell_length_c                     6.9819(6)
_cell_angle_alpha                  90.
_cell_angle_beta                   106.82(8)
_cell_angle_gamma                  90.
_cell_volume                       466.93
_cell_formula_units_Z              2
_symmetry_space_group_name_H-M     'C 1 2 1'
_symmetry_Int_Tables_number        5
_refine_ls_R_factor_all            .058
loop_
_symmetry_equiv_pos_site_id
_symmetry_equiv_pos_as_xyz
  1	'-x, y, -z'
  2	'x, y, z'
  3	'-x+.5, y+.5, -z'
  4	'x+.5, y+.5, z'
loop_
_atom_type_symbol
_atom_type_oxidation_number
Ag1+	1
P4+	4
Se2-	-2
V3+	3
loop_
_atom_site_label
_atom_site_type_symbol
_atom_site_symmetry_multiplicity
_atom_site_Wyckoff_symbol
_atom_site_fract_x
_atom_site_fract_y
_atom_site_fract_z
_atom_site_occupancy
_atom_site_attached_hydrogens
Se1 Se2- 4 c 0.7169(3) 0.6703(2) 0.2598(3) 1. 0 
Se2 Se2- 4 c 0.7248(3) 0.8393(2) 0.7453(3) 1. 0 
Se3 Se2- 4 c 0.2469(3) 0.4762(2) 0.2516(3) 1. 0 
Ag1 Ag1+ 2 a 0.5 0.1680(5) 0 1. 0 
V1 V3+ 2 a 0 0.327(6) 0 1. 0 
P1 P4+ 4 c 0.0511(8) 0 0.1646(8) 1. 0 

loop_
_atom_site_aniso_label
_atom_site_aniso_type_symbol
_atom_site_aniso_U_11
_atom_site_aniso_U_22
_atom_site_aniso_U_33
_atom_site_aniso_U_12
_atom_site_aniso_U_13
_atom_site_aniso_U_23
Se1 Se2- 0.0157(6) 0.0136(6) 0.0143(6) 0.0000(7) 0.0001(5) -.0016(9)
Se2 Se2- 0.0159(6) 0.0196(8) 0.0131(6) -.0037(7) 0.0059(5) -.0056(8)
Se3 Se2- 0.0152(6) 0.0195(7) 0.0175(6) -.0023(8) 0.0072(5) -.0052(9)
Ag1 Ag1+ 0.040(1) 0.039(1) 0.053(2) 0 0.009(1) 0
V1 V3+ 0.019(2) 0.019(2) 0.014(2) 0 0.004(1) 0
P1 P4+ 0.013(2) 0.012(2) 0.012(2) 0.000(1) 0.002(1) 0.000(2)
#End of data_68143-ICSD


