data_281664-ICSD
#?2014 by Fachinformationszentrum Karlsruhe, and the U.S. Secretary of 
#Commerce on behalf of the United States.  All rights reserved.
_database_code_ICSD                281664
_audit_creation_date               2004/10/01
_audit_update_record               2010/08/01
_chemical_name_systematic          'Silver Undecafluorodiantimonate(V)'
_chemical_formula_structural       'Ag (Sb2 F11)'
_chemical_formula_sum              'Ag1 F11 Sb2'
_publ_section_title
;
Silver(I) undecafluorodiantimonate(V)
;
loop_
_citation_id
_citation_journal_abbrev
_citation_year
_citation_journal_volume
_citation_page_first
_citation_page_last
_citation_journal_id_ASTM
primary 'Inorganic Chemistry' 2003 42 8337 8343 INOCAJ
_publ_author_name                  'Mazej, Z.;Benkic, P.'
_cell_length_a                     10.9180(7)
_cell_length_b                     12.4628(8)
_cell_length_c                     38.802(3)
_cell_angle_alpha                  90.
_cell_angle_beta                   90.
_cell_angle_gamma                  90.
_cell_volume                       5279.74
_cell_formula_units_Z              24
_symmetry_space_group_name_H-M     'P b c a'
_symmetry_Int_Tables_number        61
_refine_ls_R_factor_all            .0712
loop_
_symmetry_equiv_pos_site_id
_symmetry_equiv_pos_as_xyz
  1	'x+.5, y, -z+.5'
  2	'x, -y+.5, z+.5'
  3	'-x+.5, y+.5, z'
  4	'-x, -y, -z'
  5	'-x+.5, -y, z+.5'
  6	'-x, y+.5, -z+.5'
  7	'x+.5, -y+.5, -z'
  8	'x, y, z'
loop_
_atom_type_symbol
_atom_type_oxidation_number
Ag1+	1
F1-	-1
Sb5+	5
loop_
_atom_site_label
_atom_site_type_symbol
_atom_site_symmetry_multiplicity
_atom_site_Wyckoff_symbol
_atom_site_fract_x
_atom_site_fract_y
_atom_site_fract_z
_atom_site_occupancy
_atom_site_attached_hydrogens
_atom_site_U_iso_or_equiv
Sb1 Sb5+ 8 c 0.38030(7) 0.51418(6) 0.18228(2) 1. 0 0.02349(18) 
Sb2 Sb5+ 8 c 0.51095(7) 0.70270(6) 0.25356(2) 1. 0 0.02388(18) 
Sb3 Sb5+ 8 c 0.36509(7) 0.47343(6) 0.052363(19) 1. 0 0.02147(18) 
Sb4 Sb5+ 8 c 0.50929(7) 0.20077(6) 0.02108(2) 1. 0 0.02462(19) 
Sb5 Sb5+ 8 c 1.01481(7) 0.38434(7) 0.12542(2) 1. 0 0.02403(19) 
Sb6 Sb5+ 8 c 0.71942(7) 0.21748(7) 0.13466(2) 1. 0 0.02304(18) 
Ag1 Ag1+ 8 c 0.75081(9) 0.45152(9) 0.04993(3) 1. 0 0.0343(2) 
Ag2 Ag1+ 8 c 0.75715(9) 0.45734(8) 0.21290(3) 1. 0 0.0302(2) 
Ag3 Ag1+ 8 c 0.17330(9) 0.70689(8) 0.12198(3) 1. 0 0.0330(2) 
F1 F1- 8 c 0.4352(7) 0.6434(6) 0.20962(18) 1. 0 0.0330(17) 
F2 F1- 8 c 0.4197(8) 0.3418(6) 0.02506(18) 1. 0 0.0348(17) 
F3 F1- 8 c 0.8977(6) 0.2575(6) 0.1303(2) 1. 0 0.0346(18) 
F4 F1- 8 c 0.5298(7) 0.4580(7) 0.1949(3) 1. 0 0.046(2) 
F5 F1- 8 c 0.3113(8) 0.4665(7) 0.2227(2) 1. 0 0.043(2) 
F6 F1- 8 c 0.2401(9) 0.5957(8) 0.1737(3) 1. 0 0.057(3) 
F7 F1- 8 c 0.4509(11) 0.5793(9) 0.1449(2) 1. 0 0.063(3) 
F8 F1- 8 c 0.3300(7) 0.3940(6) 0.15777(19) 1. 0 0.0334(17) 
F9 F1- 8 c 0.6367(9) 0.6077(8) 0.2439(2) 1. 0 0.052(2) 
F10 F1- 8 c 0.4262(9) 0.5942(8) 0.2760(2) 1. 0 0.056(3) 
F11 F1- 8 c 0.3747(8) 0.7899(8) 0.2557(2) 1. 0 0.049(2) 
F12 F1- 8 c 0.5877(8) 0.8028(7) 0.2257(2) 1. 0 0.046(2) 
F13 F1- 8 c 0.5812(8) 0.7505(7) 0.2940(2) 1. 0 0.0395(19) 
F14 F1- 8 c 0.3825(9) 0.3854(7) 0.09042(19) 1. 0 0.044(2) 
F15 F1- 8 c 0.5303(7) 0.5081(7) 0.0562(2) 1. 0 0.0389(2) 
F16 F1- 8 c 0.3623(7) 0.5363(6) 0.00891(18) 1. 0 0.0328(16) 
F17 F1- 8 c 0.2085(7) 0.4240(7) 0.0460(2) 1. 0 0.043(2) 
F18 F1- 8 c 0.3137(7) 0.5932(6) 0.0765(2) 1. 0 0.0360(18) 
F19 F1- 8 c 0.4586(9) 0.1778(8) 0.0663(2) 1. 0 0.049(2) 
F20 F1- 8 c 0.6442(8) 0.2748(7) 0.0379(2) 1. 0 0.050(2) 
F21 F1- 8 c 0.5476(9) 0.2430(8) -.0228(2) 1. 0 0.050(2) 
F22 F1- 8 c 0.3632(8) 0.1443(7) 0.0048(3) 1. 0 0.053(2) 
F23 F1- 8 c 0.5940(8) 0.0720(7) 0.0209(2) 1. 0 0.044(2) 
F24 F1- 8 c 0.9387(8) 0.4061(8) 0.0835(2) 1. 0 0.052(2) 
F25 F1- 8 c 0.8937(8) 0.4611(7) 0.1474(3) 1. 0 0.062(3) 
F26 F1- 8 c 1.0748(10) 0.3467(10) 0.1677(3) 1. 0 0.065(3) 
F27 F1- 8 c 1.1208(7) 0.2882(6) 0.1052(3) 1. 0 0.043(2) 
F28 F1- 8 c 1.1171(7) 0.5016(6) 0.1193(2) 1. 0 0.0389(19) 
F29 F1- 8 c 0.6918(8) 0.3340(7) 0.1057(2) 1. 0 0.0417(19) 
F30 F1- 8 c 0.7144(8) 0.3108(8) 0.1717(2) 1. 0 0.046(2) 
F31 F1- 8 c 0.7755(7) 0.1127(7) 0.1647(2) 1. 0 0.041(2) 
F32 F1- 8 c 0.7448(8) 0.1277(7) 0.0973(2) 1. 0 0.0424(19) 
F33 F1- 8 c 0.5538(7) 0.1855(7) 0.1383(2) 1. 0 0.0393(19) 

loop_
_atom_site_aniso_label
_atom_site_aniso_type_symbol
_atom_site_aniso_U_11
_atom_site_aniso_U_22
_atom_site_aniso_U_33
_atom_site_aniso_U_12
_atom_site_aniso_U_13
_atom_site_aniso_U_23
Sb1 Sb5+ 0.0245(4) 0.0226(4) 0.0233(4) 0.0001(3) -.0036(3) 0.0000(3)
Sb2 Sb5+ 0.0215(4) 0.0210(4) 0.0291(4) -.0009(3) -.0010(3) -.0026(3)
Sb3 Sb5+ 0.0187(3) 0.0210(4) 0.0247(4) -.0009(3) 0.0025(3) -.0008(3)
Sb4 Sb5+ 0.0236(4) 0.0208(4) 0.0295(4) 0.0014(3) -.0006(3) -.0018(3)
Sb5 Sb5+ 0.0142(3) 0.0198(4) 0.0380(4) -.0006(3) 0.0003(3) 0.0017(3)
Sb6 Sb5+ 0.0151(3) 0.0250(4) 0.0290(4) -.0021(3) -.0021(3) -.0005(3)
Ag1 Ag1+ 0.0199(4) 0.0416(6) 0.0415(5) -.0062(4) -.0050(4) 0.0078(5)
Ag2 Ag1+ 0.0259(4) 0.0280(5) 0.0367(5) 0.0012(4) -.0068(4) -.0061(4)
Ag3 Ag1+ 0.0235(4) 0.0281(5) 0.0472(6) -.0027(4) -.0019(4) 0.0052(4)
F1 F1- 0.046(4) 0.022(4) 0.031(4) -.004(3) -.015(3) -.004(3)
F2 F1- 0.052(5) 0.024(4) 0.029(4) 0.010(4) 0.002(3) -.004(3)
F3 F1- 0.019(3) 0.019(3) 0.066(5) 0.000(3) 0.003(3) 0.005(3)
F4 F1- 0.027(4) 0.030(4) 0.081(6) 0.010(4) -.008(4) -.012(4)
F5 F1- 0.041(5) 0.042(5) 0.044(5) -.002(4) 0.015(4) -.002(4)
F6 F1- 0.053(6) 0.050(6) 0.067(6) 0.024(5) -.035(5) -.019(5)
F7 F1- 0.091(8) 0.061(6) 0.035(5) -.035(6) 0.005(5) 0.013(4)
F8 F1- 0.042(4) 0.023(4) 0.036(4) -.004(3) -.004(3) -.004(3)
F9 F1- 0.046(5) 0.054(6) 0.056(6) 0.026(5) -.011(4) -.017(5)
F10 F1- 0.065(6) 0.059(6) 0.042(5) -.037(5) -.002(4) 0.005(4)
F11 F1- 0.033(4) 0.059(6) 0.056(5) 0.016(4) -.007(4) -.019(5)
F12 F1- 0.047(5) 0.039(5) 0.051(5) -.018(4) 0.001(4) 0.013(4)
F13 F1- 0.041(4) 0.045(5) 0.033(4) 0.000(4) -.010(3) -.012(4)
F14 F1- 0.071(6) 0.039(5) 0.023(4) 0.000(4) 0.001(4) 0.007(3)
F15 F1- 0.022(4) 0.046(5) 0.048(5) -.002(3) 0.004(3) -.010(4)
F16 F1- 0.037(4) 0.034(4) 0.027(3) 0.004(3) 0.000(3) 0.011(3)
F17 F1- 0.032(4) 0.053(5) 0.045(5) -.015(4) 0.002(3) -.003(4)
F18 F1- 0.034(4) 0.031(4) 0.044(4) 0.002(3) 0.005(3) -.016(3)
F19 F1- 0.060(6) 0.047(5) 0.039(5) 0.009(5) 0.017(4) 0.010(4)
F20 F1- 0.040(5) 0.047(5) 0.062(6) -.014(4) -.015(4) 0.013(4)
F21 F1- 0.066(6) 0.054(6) 0.029(4) 0.020(5) 0.008(4) 0.003(4)
F22 F1- 0.036(5) 0.036(5) 0.088(7) -.008(4) -.019(5) -.003(5)
F23 F1- 0.042(5) 0.033(4) 0.057(5) 0.013(4) 0.002(4) 0.005(4)
F24 F1- 0.037(5) 0.060(6) 0.060(6) -.013(4) -.019(4) 0.025(5)
F25 F1- 0.033(5) 0.034(5) 0.119(9) 0.002(4) 0.033(5) -.017(5)
F26 F1- 0.054(6) 0.090(8) 0.051(6) -.035(6) -.013(5) 0.028(6)
F27 F1- 0.026(4) 0.023(4) 0.080(6) 0.008(3) 0.013(4) -.013(4)
F28 F1- 0.031(4) 0.028(4) 0.057(5) -.011(3) 0.008(4) 0.004(4)
F29 F1- 0.039(5) 0.036(4) 0.050(5) 0.006(4) -.007(4) 0.013(4)
F30 F1- 0.037(5) 0.055(6) 0.047(5) -.003(4) 0.003(4) -.020(4)
F31 F1- 0.022(4) 0.043(5) 0.058(5) -.011(3) -.007(3) 0.027(4)
F32 F1- 0.043(5) 0.043(5) 0.041(4) -.002(4) -.001(4) -.014(4)
F33 F1- 0.019(4) 0.044(5) 0.055(5) 0.000(3) 0.001(3) 0.002(4)
#End of data_281664-ICSD


