data_300214-ICSD
#?2014 by Fachinformationszentrum Karlsruhe, and the U.S. Secretary of 
#Commerce on behalf of the United States.  All rights reserved.
_database_code_ICSD                300214
_audit_creation_date               1992/01/23
_audit_update_record               2012/02/01
_chemical_name_systematic          'Magnesium Tetraphosphate(V)'
_chemical_formula_structural       'Mg (P4 O11)'
_chemical_formula_sum              'Mg1 O11 P4'
_publ_section_title
;
Crystal structure of magnesium ultraphosphate
;
loop_
_citation_id
_citation_journal_abbrev
_citation_year
_citation_journal_volume
_citation_page_first
_citation_page_last
_citation_journal_id_ASTM
primary 'Zeitschrift fuer Kristallographie (1979-2010)' 1992 199 275 276 ZEKRDZ
2 'Golden Book of Phase Transitions, Wroclaw' 2002 1 1 123 GBOPT5
_publ_author_name
;
Stachel, D.;Paulus, H.;Guenter, C.;Fuess, H.
;
_cell_length_a                     5.343(2)
_cell_length_b                     22.228(5)
_cell_length_c                     7.451(2)
_cell_angle_alpha                  90.
_cell_angle_beta                   110.888(5)
_cell_angle_gamma                  90.
_cell_volume                       826.75
_cell_formula_units_Z              4
_symmetry_space_group_name_H-M     'P 1 21/c 1'
_symmetry_Int_Tables_number        14
_refine_ls_R_factor_all            .029
loop_
_symmetry_equiv_pos_site_id
_symmetry_equiv_pos_as_xyz
  1	'x, -y+.5, z+.5'
  2	'-x, -y, -z'
  3	'-x, y+.5, -z+.5'
  4	'x, y, z'
loop_
_atom_type_symbol
_atom_type_oxidation_number
Mg2+	2
O2-	-2
P5+	5
loop_
_atom_site_label
_atom_site_type_symbol
_atom_site_symmetry_multiplicity
_atom_site_Wyckoff_symbol
_atom_site_fract_x
_atom_site_fract_y
_atom_site_fract_z
_atom_site_occupancy
_atom_site_attached_hydrogens
Mg1 Mg2+ 4 e 0.99839(12) 0.38617(3) 0.36605(9) 1. 0 
O1 O2- 4 e 0.20988(28) 0.45377(6) 0.30221(21) 1. 0 
O2 O2- 4 e 0.65600(27) 0.43457(6) 0.24811(21) 1. 0 
P1 P5+ 4 e 0.39617(9) 0.46457(2) 0.20197(7) 1. 0 
O3 O2- 4 e 0.77219(26) 0.54473(6) 0.02623(19) 1. 0 
O4 O2- 4 e 0.44189(26) 0.53715(6) 0.20006(21) 1. 0 
P2 P5+ 4 e 0.69491(9) 0.57135(2) 0.19264(7) 1. 0 
O5 O2- 4 e 0.92607(27) 0.57404(6) 0.36941(20) 1. 0 
O6 O2- 4 e 0.57968(27) 0.63579(6) 0.12142(20) 1. 0 
O7 O2- 4 e 0.09482(28) 0.65579(7) -.09627(21) 1. 0 
P3 P5+ 4 e 0.32988(9) 0.67876(2) 0.05690(7) 1. 0 
O8 O2- 4 e 0.47043(28) 0.73418(6) 0.00507(22) 1. 0 
O9 O2- 4 e 0.26150(27) 0.69416(6) 0.23771(19) 1. 0 
P4 P5+ 4 e 0.40321(9) 0.80502(2) -.02953(7) 1. 0 
O10 O2- 4 e 0.19520(29) 0.81896(6) 0.05011(22) 1. 0 
O11 O2- 4 e 0.65762(28) 0.83723(6) 0.02332(22) 1. 0 

loop_
_atom_site_aniso_label
_atom_site_aniso_type_symbol
_atom_site_aniso_U_11
_atom_site_aniso_U_22
_atom_site_aniso_U_33
_atom_site_aniso_U_12
_atom_site_aniso_U_13
_atom_site_aniso_U_23
Mg1 Mg2+ 0.00763(26) 0.00789(26) 0.00714(28) 0.00018(21) 0.00269(22) 
-0.00037(20)
O1 O2- 0.01503(61) 0.01189(57) 0.01305(62) -0.00023(48) 0.01007(52) 
-0.00308(47)
O2 O2- 0.00943(55) 0.01337(59) 0.01323(63) 0.00103(50) 0.00208(49) 
0.00371(45)
P1 P5+ 0.00763(18) 0.00559(17) 0.00655(19) 0.00040(14) 0.00324(15) 
-0.00024(13)
O3 O2- 0.00986(54) 0.01276(56) 0.00633(54) -0.00137(45) 0.00291(45) 
0.00242(43)
O4 O2- 0.01094(56) 0.00532(50) 0.01635(65) -0.00042(45) 0.00743(50) 
-0.00120(41)
P2 P5+ 0.00770(18) 0.00441(16) 0.00580(18) -0.00028(14) 0.00214(15) 
0.00022(13)
O5 O2- 0.01117(57) 0.01260(57) 0.00709(55) -0.00185(46) 0.00081(46) 
0.00165(45)
O6 O2- 0.01258(58) 0.00576(50) 0.01356(62) 0.00228(44) 0.00492(49) 
0.00312(42)
O7 O2- 0.01274(60) 0.01802(65) 0.00901(60) -0.00492(50) 0.00171(50) 
-0.0018(5)
P3 P5+ 0.00939(19) 0.00542(17) 0.00592(19) 0.00020(14) 0.00269(15) 
0.00060(14)
O8 O2- 0.01683(63) 0.00497(49) 0.02012(72) 0.00381(48) 0.01096(57) 
0.00228(44)
O9 O2- 0.01293(58) 0.01596(62) 0.00591(55) -0.00083(47) 0.00382(47) 
0.00317(47)
P4 P5+ 0.00842(18) 0.00473(17) 0.00675(19) 0.00023(14) 0.00316(15) 
0.00012(13)
O10 O2- 0.01822(65) 0.01181(57) 0.01512(67) 0.00112(49) 0.01189(55) 
0.00471(49)
O11 O2- 0.01260(61) 0.01489(62) 0.01426(66) -0.00033(51) 0.00268(53) 
-0.00622(49)
#End of data_300214-ICSD


