data_246371-ICSD
#?2014 by Fachinformationszentrum Karlsruhe, and the U.S. Secretary of 
#Commerce on behalf of the United States.  All rights reserved.
_database_code_ICSD                246371
_audit_creation_date               2009/08/01
_chemical_name_systematic
;
Calcium Cobalt(II) Catena-hydrogenborato-bis(phosphate(V)) Hydrate
;
_chemical_formula_structural
;
Ca Co (H2 O) (B P2 O8 (O H)) (H2 O)
;
_chemical_formula_sum              'H5 B1 Ca1 Co1 O11 P2'
_publ_section_title
;
Synthesis and crystal structure of Ca Co (H2 O) [B P2 O8 (O H)] * H2 
O
;
loop_
_citation_id
_citation_journal_abbrev
_citation_year
_citation_journal_volume
_citation_journal_issue
_citation_page_first
_citation_page_last
_citation_journal_id_ASTM
primary 'Zeitschrift fuer Anorganische und Allgemeine Chemie (1950) (DE)'
 2009 635 4-5 614 617 ZAACAB
_publ_author_name
;
Menezes, P.W.;Hoffmann, S.;Prots', Yu.;Kniep, R.
;
_cell_length_a                     6.5793(3)
_cell_length_b                     7.8320(1)
_cell_length_c                     8.8172(1)
_cell_angle_alpha                  68.785(7)
_cell_angle_beta                   82.719(10)
_cell_angle_gamma                  73.985(9)
_cell_volume                       406.93
_cell_formula_units_Z              2
_symmetry_space_group_name_H-M     'P -1'
_symmetry_Int_Tables_number        2
_refine_ls_R_factor_all            .043
loop_
_symmetry_equiv_pos_site_id
_symmetry_equiv_pos_as_xyz
  1	'-x, -y, -z'
  2	'x, y, z'
loop_
_atom_type_symbol
_atom_type_oxidation_number
B3+	3
Ca2+	2
Co2+	2
H1+	1
O2-	-2
P5+	5
loop_
_atom_site_label
_atom_site_type_symbol
_atom_site_symmetry_multiplicity
_atom_site_Wyckoff_symbol
_atom_site_fract_x
_atom_site_fract_y
_atom_site_fract_z
_atom_site_occupancy
_atom_site_attached_hydrogens
_atom_site_U_iso_or_equiv
Ca1 Ca2+ 2 i 0.0861(1) 0.5499(1) 0.1603(1) 1. 0 0.016(1) 
Co1 Co2+ 2 i 0.3193(1) 0.6760(1) 0.4074(1) 1. 0 0.013(1) 
B1 B3+ 2 i 0.4657(5) 0.0171(5) -0.2111(4) 1. 0 0.012(1) 
P1 P5+ 2 i 0.5640(1) 0.7114(1) 0.0661(1) 1. 0 0.011(1) 
P2 P5+ 2 i 0.2080(1) 0.2634(1) 0.5499(1) 1. 0 0.011(1) 
O1 O2- 2 i 0.7626(4) 0.5653(3) 0.0507(3) 1. 0 0.017(1) 
O2 O2- 2 i 0.3959(4) 0.6310(3) 0.1819(3) 1. 0 0.014(1) 
O3 O2- 2 i 0.3658(3) 0.1462(3) -0.1207(3) 1. 0 0.013(1) 
O4 O2- 2 i 0.4662(4) 0.8215(3) -0.1057(3) 1. 0 0.015(1) 
O5 O2- 2 i 0.1780(4) 0.2631(3) 0.3823(3) 1. 0 0.016(1) 
O6 O2- 2 i -0.0027(3) 0.3107(3) 0.6385(3) 1. 0 0.016(1) 
O7 O2- 2 i 0.3483(4) 0.3925(3) 0.5453(3) 1. 0 0.015(1) 
O8 O2- 2 i 0.3291(4) 0.0558(3) -0.3465(3) 1. 0 0.014(1) 
O9 O2- 2 i 0.3237(4) 0.9610(3) 0.2695(3) 1. 0 0.014(1) 
O10 O2- 2 i 0.2460(5) 0.7520(5) 0.6095(4) 1. 0 0.031(1) 
O11 O2- 2 i 0.0336(5) 0.8347(5) -0.0657(4) 1. 0 0.039(1) 
H1 H1+ 2 i 0.269(10) 0.043(9) 0.311(8) 1. 0 0.048(17) 
H2 H1+ 2 i 0.293(9) 0.830(7) 0.620(8) 1. 0 0.047 
H3 H1+ 2 i 0.126(5) 0.784(9) 0.629(8) 1. 0 0.047 
H4 H1+ 2 i 0.139(7) 0.869(9) -0.109(7) 1. 0 0.059 
H5 H1+ 2 i -0.076(6) 0.905(8) -0.095(8) 1. 0 0.059 

#End of data_246371-ICSD


