data_201435-ICSD
#?2014 by Fachinformationszentrum Karlsruhe, and the U.S. Secretary of 
#Commerce on behalf of the United States.  All rights reserved.
_database_code_ICSD                201435
_audit_creation_date               1985/03/08
_audit_update_record               2012/08/01
_chemical_name_systematic
;
Dipotassium Antimony Sulfate Trifluoride
;
_chemical_formula_structural       'K2 S O4 Sb F3'
_chemical_formula_sum              'F3 K2 O4 S1 Sb1'
_publ_section_title
;
Complex formation between antimony trifluoride and alkali-metal 
sulphates. The X-ray crystal structure of K2 S O4 Sb F3 and antimony-
121 Moessbauer studies of some related compounds
;
loop_
_citation_id
_citation_journal_abbrev
_citation_year
_citation_journal_volume
_citation_page_first
_citation_page_last
_citation_journal_id_ASTM
primary
;
Journal of the Chemical Society. Dalton Transactions, Inorganic 
Chemistry (1972-)
;
 1982 1982 2313 2316 JCDTBI
_publ_author_name
;
Birchall, T.;Ducourant, M.B.;Fourcade, R.;Mascherpa, G.
;
_cell_length_a                     5.601(2)
_cell_length_b                     9.072(4)
_cell_length_c                     14.180(6)
_cell_angle_alpha                  90.
_cell_angle_beta                   90.
_cell_angle_gamma                  90.
_cell_volume                       720.52
_cell_formula_units_Z              4
_symmetry_space_group_name_H-M     'P 21 21 21'
_symmetry_Int_Tables_number        19
_refine_ls_R_factor_all            .035
loop_
_symmetry_equiv_pos_site_id
_symmetry_equiv_pos_as_xyz
  1	'-x, y+.5, -z+.5'
  2	'x+.5, -y+.5, -z'
  3	'-x+.5, -y, z+.5'
  4	'x, y, z'
loop_
_atom_type_symbol
_atom_type_oxidation_number
F1-	-1
K1+	1
O2-	-2
S6+	6
Sb3+	3
loop_
_atom_site_label
_atom_site_type_symbol
_atom_site_symmetry_multiplicity
_atom_site_Wyckoff_symbol
_atom_site_fract_x
_atom_site_fract_y
_atom_site_fract_z
_atom_site_occupancy
_atom_site_attached_hydrogens
Sb1 Sb3+ 4 a 0.473(1) 0.05776(6) 0.02244(4) 1. 0 
K1 K1+ 4 a 0.0200(4) 0.3136(2) 0.3889(1) 1. 0 
K2 K1+ 4 a 0.4957(4) 0.4907(2) 0.1912(1) 1. 0 
S1 S6+ 4 a 0.0223(4) 0.2064(2) 0.1615(1) 1. 0 
F1 F1- 4 a 0.246(1) 0.0773(6) 0.4612(4) 1. 0 
F2 F1- 4 a 0.215(1) 0.5736(7) 0.0354(5) 1. 0 
F3 F1- 4 a 0.461(1) 0.9062(6) 0.1243(4) 1. 0 
O1 O2- 4 a 0.069(1) 0.1203(8) 0.0757(5) 1. 0 
O2 O2- 4 a 0.241(1) 0.2245(9) 0.2142(5) 1. 0 
O3 O2- 4 a 0.070(2) 0.8520(8) 0.3684(5) 1. 0 
O4 O2- 4 a 0.844(2) 0.134(2) 0.2181(8) 1. 0 

loop_
_atom_site_aniso_label
_atom_site_aniso_type_symbol
_atom_site_aniso_U_11
_atom_site_aniso_U_22
_atom_site_aniso_U_33
_atom_site_aniso_U_12
_atom_site_aniso_U_13
_atom_site_aniso_U_23
Sb1 Sb3+ 0.0227 0.0159 0.0182 -.0022 -.0028 -.00133
K1 K1+ 0.0286 0.0201 0.0225 0.003 -.0002 -.0005
K2 K1+ 0.0223 0.0323 0.0219 0.0008 0.0038 -.0004
S1 S6+ 0.0171 0.016 0.0199 0.00063 0.00107 0.0025
F1 F1- 0.0186 0.0164 0.0254 -.0024 0.0025 0.0036
F2 F1- 0.019 0.0296 0.0349 -.0031 -.0033 -.00501
F3 F1- 0.0448 0.028 0.0179 0.0040 -.0073 0.0042
O1 O2- 0.0471 0.0299 0.0362 0.0131 -.0140 -.0162
O2 O2- 0.03 0.0406 0.0291 0.0032 -.0078 -.0103
O3 O2- 0.08 0.0238 0.022 -.0250 0.0011 0.0027
O4 O2- 0.0284 0.1022 0.0731 -.0241 -.0012 0.0427
#End of data_201435-ICSD


