data_21085-ICSD
#?2014 by Fachinformationszentrum Karlsruhe, and the U.S. Secretary of 
#Commerce on behalf of the United States.  All rights reserved.
_database_code_ICSD                21085
_audit_creation_date               1980/01/01
_audit_update_record               1988/01/22
_chemical_name_systematic          'Magnesium Vanadate'
_chemical_formula_structural       'Mg3 (V O4)2'
_chemical_formula_sum              'Mg3 O8 V2'
_publ_section_title
;
Refinement of the structure of Mg3 (V O4)3
;
loop_
_citation_id
_citation_journal_abbrev
_citation_year
_citation_journal_volume
_citation_page_first
_citation_page_last
_citation_journal_id_ASTM
primary 'Canadian Journal of Chemistry' 1971 49 1629 1637 CJCHAG
_publ_author_name                  'Krishnamachari, N.;Calvo, C.'
_cell_length_a                     6.053(3)
_cell_length_b                     11.442(6)
_cell_length_c                     8.330(3)
_cell_angle_alpha                  90.
_cell_angle_beta                   90.
_cell_angle_gamma                  90.
_cell_volume                       576.92
_cell_formula_units_Z              4
_symmetry_space_group_name_H-M     'C m c a'
_symmetry_Int_Tables_number        64
_refine_ls_R_factor_all            .047
loop_
_symmetry_equiv_pos_site_id
_symmetry_equiv_pos_as_xyz
  1	'-x, -y+.5, z+.5'
  2	'-x, y+.5, -z+.5'
  3	'-x, y, z'
  4	'-x, -y, -z'
  5	'x, y+.5, -z+.5'
  6	'x, -y+.5, z+.5'
  7	'x, -y, -z'
  8	'x, y, z'
  9	'-x+.5, -y, z+.5'
 10	'-x+.5, y, -z+.5'
 11	'-x+.5, y+.5, z'
 12	'-x+.5, -y+.5, -z'
 13	'x+.5, y, -z+.5'
 14	'x+.5, -y, z+.5'
 15	'x+.5, -y+.5, -z'
 16	'x+.5, y+.5, z'
loop_
_atom_type_symbol
_atom_type_oxidation_number
Mg2+	2
O2-	-2
V5+	5
loop_
_atom_site_label
_atom_site_type_symbol
_atom_site_symmetry_multiplicity
_atom_site_Wyckoff_symbol
_atom_site_fract_x
_atom_site_fract_y
_atom_site_fract_z
_atom_site_occupancy
_atom_site_attached_hydrogens
Mg1 Mg2+ 4 a 0 0 0 1. 0 
Mg2 Mg2+ 8 e 0.25 0.13533(5) 0.25 1. 0 
V1 V5+ 8 f 0 0.37978(2) 0.12098(3) 1. 0 
O1 O2- 8 f 0 0.25136(9) 0.2274(2) 1. 0 
O2 O2- 8 f 0 0.00375(9) 0.2442(1) 1. 0 
O3 O2- 16 g 0.2723(1) 0.11791(7) 0.9974(1) 1. 0 

loop_
_atom_site_aniso_label
_atom_site_aniso_type_symbol
_atom_site_aniso_U_11
_atom_site_aniso_U_22
_atom_site_aniso_U_33
_atom_site_aniso_U_12
_atom_site_aniso_U_13
_atom_site_aniso_U_23
Mg1 Mg2+ 0.0056(3) 0.0082(3) 0.0042(3) 0 0 -.0014(2)
Mg2 Mg2+ 0.0042(2) 0.0055(2) 0.0060(2) 0 -.0006(2) -.0020(3)
V1 V5+ 0.0040(1) 0.0033(1) 0.0042(1) 0 0 0.0000(1)
O1 O2- 0.0054(1) 0.0042(1) 0.0083(3) 0 0 0.0023(2)
O2 O2- 0.0050(1) 0.0047(3) 0.0050(3) 0 0 0.0004(3)
O3 O2- 0.0063(2) 0.0069(2) 0.0058(2) -.0010(2) 0.0014(2) 0.0002(2)
#End of data_21085-ICSD


