data_290616-ICSD
#?2014 by Fachinformationszentrum Karlsruhe, and the U.S. Secretary of 
#Commerce on behalf of the United States.  All rights reserved.
_database_code_ICSD                290616
_audit_creation_date               2014/02/01
_chemical_name_systematic          'Magnesium Divanadate'
_chemical_formula_structural       'Mg V2 O6'
_chemical_formula_sum              'Mg1 O6 V2'
_publ_section_title
;
High-pressure Raman study of Mg V2 O6 synthesized at high pressure 
and high temperature
;
loop_
_citation_id
_citation_journal_abbrev
_citation_year
_citation_journal_volume
_citation_journal_issue
_citation_page_first
_citation_page_last
_citation_journal_id_ASTM
primary 'Chinese Physics B' 2013 22 6 066202-1 066202-3 CPBHAJ
_publ_author_name
;
Tang, Rui-Lian;Li, Yan;Tao, Qiang;Li, Na-Na;Li, Hui;Han, Dan-Dan;Zhu, 
Pin-Wen;Wang, Xin
;
_cell_length_a                     13.6113(6)
_cell_length_b                     5.5809(1)
_cell_length_c                     4.8566(3)
_cell_angle_alpha                  90.
_cell_angle_beta                   90.
_cell_angle_gamma                  90.
_cell_volume                       368.92
_cell_formula_units_Z              4
_symmetry_space_group_name_H-M     'P b c n'
_symmetry_Int_Tables_number        60
_refine_ls_R_factor_all            .0844
loop_
_symmetry_equiv_pos_site_id
_symmetry_equiv_pos_as_xyz
  1	'x, -y, z+.5'
  2	'-x+.5, y+.5, z'
  3	'x+.5, y+.5, -z+.5'
  4	'-x, -y, -z'
  5	'-x, y, -z+.5'
  6	'x+.5, -y+.5, -z'
  7	'-x+.5, -y+.5, z+.5'
  8	'x, y, z'
loop_
_atom_type_symbol
_atom_type_oxidation_number
Mg2+	2
O2-	-2
V5+	5
loop_
_atom_site_label
_atom_site_type_symbol
_atom_site_symmetry_multiplicity
_atom_site_Wyckoff_symbol
_atom_site_fract_x
_atom_site_fract_y
_atom_site_fract_z
_atom_site_occupancy
_atom_site_attached_hydrogens
Mg1 Mg2+ 4 c 0 0.1596(9) 0.25 1. 0 
V1 V5+ 8 d 0.1603(1) 0.3183(5) 0.7716(1) 1. 0 
O1 O2- 8 d 0.0788(2) 0.3783(5) 0.4122(5) 1. 0 
O2 O2- 8 d 0.0847(8) 0.1149(1) 0.9198(6) 1. 0 
O3 O2- 8 d 0.2539(9) 0.1312(2) 0.6146(9) 1. 0 

#End of data_290616-ICSD


