data_1117-ICSD
#?2014 by Fachinformationszentrum Karlsruhe, and the U.S. Secretary of 
#Commerce on behalf of the United States.  All rights reserved.
_database_code_ICSD                1117
_audit_creation_date               1980/01/01
_audit_update_record               2011/08/01
_chemical_name_systematic          'Sodium Chlorate(V)'
_chemical_formula_structural       'Na (Cl O3)'
_chemical_formula_sum              'Cl1 Na1 O3'
_publ_section_title
;
Sodium chlorate. Precise dimensions for the (Cl O3)(-) ion
;
loop_
_citation_id
_citation_journal_abbrev
_citation_year
_citation_journal_volume
_citation_page_first
_citation_page_last
_citation_journal_id_ASTM
primary 'Acta Crystallographica B (24,1968-38,1982)' 1977 33 2698 2699 ACBCAR
_publ_author_name                  'Bruke-Laing, M.E.;Trueblood, K.N.'
_cell_length_a                     6.575
_cell_length_b                     6.575
_cell_length_c                     6.575
_cell_angle_alpha                  90.
_cell_angle_beta                   90.
_cell_angle_gamma                  90.
_cell_volume                       284.24
_cell_formula_units_Z              4
_symmetry_space_group_name_H-M     'P 21 3'
_symmetry_Int_Tables_number        198
loop_
_symmetry_equiv_pos_site_id
_symmetry_equiv_pos_as_xyz
  1	'-z+.5, -x, y+.5'
  2	'-y+.5, -z, x+.5'
  3	'-x+.5, -y, z+.5'
  4	'-z, x+.5, -y+.5'
  5	'-y, z+.5, -x+.5'
  6	'-x, y+.5, -z+.5'
  7	'z+.5, -x+.5, -y'
  8	'y+.5, -z+.5, -x'
  9	'x+.5, -y+.5, -z'
 10	'z, x, y'
 11	'y, z, x'
 12	'x, y, z'
loop_
_atom_type_symbol
_atom_type_oxidation_number
Cl5+	5
Na1+	1
O2-	-2
loop_
_atom_site_label
_atom_site_type_symbol
_atom_site_symmetry_multiplicity
_atom_site_Wyckoff_symbol
_atom_site_fract_x
_atom_site_fract_y
_atom_site_fract_z
_atom_site_occupancy
_atom_site_attached_hydrogens
Na1 Na1+ 4 a 0.0683(7) 0.0683(7) 0.0683(7) 1. 0 
Cl1 Cl5+ 4 a 0.4182(2) 0.4182(2) 0.4182(2) 1. 0 
O1 O2- 12 b 0.3034(4) 0.5931(4) 0.5053(4) 1. 0 

loop_
_atom_site_aniso_label
_atom_site_aniso_type_symbol
_atom_site_aniso_U_11
_atom_site_aniso_U_22
_atom_site_aniso_U_33
_atom_site_aniso_U_12
_atom_site_aniso_U_13
_atom_site_aniso_U_23
Na1 Na1+ 0.0236(11) 0.0236(11) 0.0236(11) -.0020(13) 0 0
Cl1 Cl5+ 0.0146(4) 0.0146(4) 0.0146(4) -.0011(4) 0 0
O1 O2- 0.0247(9) 0.0214(9) 0.0317(11) 0.0035(8) -.0055(8) 0.0036(7)
#End of data_1117-ICSD


