data_245847-ICSD
#?2014 by Fachinformationszentrum Karlsruhe, and the U.S. Secretary of 
#Commerce on behalf of the United States.  All rights reserved.
_database_code_ICSD                245847
_audit_creation_date               2008/08/01
_chemical_name_systematic
;
Pentalithium Vanadyl(III) Bis(phosphate(V))
;
_chemical_formula_structural       'Li5 (V O) (P O4)2'
_chemical_formula_sum              'Li5 O9 P2 V1'
_publ_section_title
;
Topotactic insertion of lithium in the layered structure Li4 V O (P 
O4)2: The tunnel structure Li5 V O (P O4)2
;
loop_
_citation_id
_citation_journal_abbrev
_citation_year
_citation_journal_volume
_citation_journal_issue
_citation_page_first
_citation_page_last
_citation_journal_id_ASTM
primary 'Journal of Solid State Chemistry' 2008 181 4 976 982 JSSCBI
_publ_author_name
;
Kishore, M.S.;Pralong, V.;Caignaert, V.;Malo, S.;Hebert, 
S.;Varadaraju, U.V.;Raveau, B.
;
_cell_length_a                     9.185(3)
_cell_length_b                     9.185(3)
_cell_length_c                     7.967(3)
_cell_angle_alpha                  90.
_cell_angle_beta                   90.
_cell_angle_gamma                  90.
_cell_volume                       672.13
_cell_formula_units_Z              4
_symmetry_space_group_name_H-M     'I 4/m c m'
_symmetry_Int_Tables_number        140
_refine_ls_R_factor_all            .0516
loop_
_symmetry_equiv_pos_site_id
_symmetry_equiv_pos_as_xyz
  1	'y, x, -z+.5'
  2	'-y, -x, -z+.5'
  3	'-y, x, -z'
  4	'y, -x, -z'
  5	'x, -y, -z+.5'
  6	'-x, y, -z+.5'
  7	'x, y, -z'
  8	'-x, -y, -z'
  9	'-y, -x, z+.5'
 10	'y, x, z+.5'
 11	'y, -x, z'
 12	'-y, x, z'
 13	'-x, y, z+.5'
 14	'x, -y, z+.5'
 15	'-x, -y, z'
 16	'x, y, z'
 17	'y+.5, x+.5, -z'
 18	'-y+.5, -x+.5, -z'
 19	'-y+.5, x+.5, -z+.5'
 20	'y+.5, -x+.5, -z+.5'
 21	'x+.5, -y+.5, -z'
 22	'-x+.5, y+.5, -z'
 23	'x+.5, y+.5, -z+.5'
 24	'-x+.5, -y+.5, -z+.5'
 25	'-y+.5, -x+.5, z'
 26	'y+.5, x+.5, z'
 27	'y+.5, -x+.5, z+.5'
 28	'-y+.5, x+.5, z+.5'
 29	'-x+.5, y+.5, z'
 30	'x+.5, -y+.5, z'
 31	'-x+.5, -y+.5, z+.5'
 32	'x+.5, y+.5, z+.5'
loop_
_atom_type_symbol
_atom_type_oxidation_number
Li1+	1
O2-	-2
P5+	5
V3+	3
loop_
_atom_site_label
_atom_site_type_symbol
_atom_site_symmetry_multiplicity
_atom_site_Wyckoff_symbol
_atom_site_fract_x
_atom_site_fract_y
_atom_site_fract_z
_atom_site_occupancy
_atom_site_attached_hydrogens
_atom_site_U_iso_or_equiv
V1 V3+ 4 c 0 0 0 1. 0 0.0692(8) 
P1 P5+ 8 h 0.29444(19) 0.79444(19) 0 1. 0 0.1536(7) 
O1 O2- 4 a 0 0 0.25 1. 0 0.037(3) 
O2 O2- 16 l 0.36342(2) 0.86342(2) 0.15848(4) 1. 0 0.0341(15) 
O3 O2- 16 k 0.18033(3) 0.12512(3) 0 1. 0 0.0263(15) 
Li1 Li1+ 4 b 0 0.5 0.25 1. 0 0.026(4) 
Li2 Li1+ 16 j 0 0.2249(11) 0.25 1. 0 0.026(4) 

#End of data_245847-ICSD


