data_189286-ICSD
#?2014 by Fachinformationszentrum Karlsruhe, and the U.S. Secretary of 
#Commerce on behalf of the United States.  All rights reserved.
_database_code_ICSD                189286
_audit_creation_date               2014/02/01
_chemical_name_systematic          'Dicopper Zinc Tin Tetrasulfide'
_chemical_formula_structural       'Cu2 Zn Sn S4'
_chemical_formula_sum              'Cu2 S4 Sn1 Zn1'
_publ_section_title
;
Structural and optical properties of in-free Cu2 Zn Sn (S, Se)4 solar 
cell materials
;
loop_
_citation_id
_citation_journal_abbrev
_citation_year
_citation_journal_volume
_citation_journal_issue
_citation_page_first
_citation_page_last
_citation_journal_id_ASTM
primary 'Japanese Journal of Applied Physics' 2012 51 10 10NC29-1 10NC29-5 JJAPB6
_publ_author_name
;
Gao, Feng;Yamazoe, Seiji;Maeda, Tsuyoshi;Nakanishi, Koji;Wada, 
Takahiro
;
_cell_length_a                     5.450(1)
_cell_length_b                     5.450(1)
_cell_length_c                     10.867(2)
_cell_angle_alpha                  90.
_cell_angle_beta                   90.
_cell_angle_gamma                  90.
_cell_volume                       322.78
_cell_formula_units_Z              2
_symmetry_space_group_name_H-M     'I -4'
_symmetry_Int_Tables_number        82
_refine_ls_R_factor_all            .0383
loop_
_symmetry_equiv_pos_site_id
_symmetry_equiv_pos_as_xyz
  1	'-y, x, -z'
  2	'y, -x, -z'
  3	'-x, -y, z'
  4	'x, y, z'
  5	'-y+.5, x+.5, -z+.5'
  6	'y+.5, -x+.5, -z+.5'
  7	'-x+.5, -y+.5, z+.5'
  8	'x+.5, y+.5, z+.5'
loop_
_atom_type_symbol
_atom_type_oxidation_number
Cu1+	1
S2-	-2
Sn4+	4
Zn2+	2
loop_
_atom_site_label
_atom_site_type_symbol
_atom_site_symmetry_multiplicity
_atom_site_Wyckoff_symbol
_atom_site_fract_x
_atom_site_fract_y
_atom_site_fract_z
_atom_site_occupancy
_atom_site_attached_hydrogens
Cu1 Cu1+ 2 a 0 0 0 1. 0 
Cu2 Cu1+ 2 c 0 0.5 0.250 1. 0 
Sn1 Sn4+ 2 b 0.5 0.5 0 1. 0 
Zn1 Zn2+ 2 d 0.5 0 0.250 1. 0 
S1 S2- 8 g 0.244(2) 0.244(2) 0.127(3) 1. 0 

#End of data_189286-ICSD


