data_165325-ICSD
#?2014 by Fachinformationszentrum Karlsruhe, and the U.S. Secretary of 
#Commerce on behalf of the United States.  All rights reserved.
_database_code_ICSD                165325
_audit_creation_date               2010/02/01
_chemical_name_systematic
;
Potassium Gold(III) Heptathiodiphosphate(V)
;
_chemical_formula_structural       'K Au (P2 S7)'
_chemical_formula_sum              'Au1 K1 P2 S7'
_publ_section_title
;
Chemistry of gold in molten alkali metal polychalcophosphate fluxes. 
Synthesis and characterization of the low-dimensional compounds A3 Au 
P2 Se8 (A= K, Rb, Cs), A2 Au2 P2 Se6 (A= K, Rb), A2 Au P S4 (A= K, 
Rb, Cs) and A Au P2 S7 (A= K, Rb)
;
loop_
_citation_id
_citation_journal_abbrev
_citation_year
_citation_journal_volume
_citation_journal_issue
_citation_page_first
_citation_page_last
_citation_journal_id_ASTM
primary 'Inorganic Chemistry' 1997 36 12 2623 2632 INOCAJ
_publ_author_name
;
Chondroudis, K.;Hanko, J.A.;Kanatzidis, M.G.
;
_cell_length_a                     7.917(3)
_cell_length_b                     9.247(2)
_cell_length_c                     14.968(3)
_cell_angle_alpha                  90.
_cell_angle_beta                   91.84(9)
_cell_angle_gamma                  90.
_cell_volume                       1095.22
_cell_formula_units_Z              4
_symmetry_space_group_name_H-M     'C 1 2/c 1'
_symmetry_Int_Tables_number        15
_refine_ls_R_factor_all            .016
loop_
_symmetry_equiv_pos_site_id
_symmetry_equiv_pos_as_xyz
  1	'x, -y, z+.5'
  2	'-x, -y, -z'
  3	'-x, y, -z+.5'
  4	'x, y, z'
  5	'x+.5, -y+.5, z+.5'
  6	'-x+.5, -y+.5, -z'
  7	'-x+.5, y+.5, -z+.5'
  8	'x+.5, y+.5, z'
loop_
_atom_type_symbol
_atom_type_oxidation_number
Au3+	3
K1+	1
P5+	5
S2-	-2
loop_
_atom_site_label
_atom_site_type_symbol
_atom_site_symmetry_multiplicity
_atom_site_Wyckoff_symbol
_atom_site_fract_x
_atom_site_fract_y
_atom_site_fract_z
_atom_site_occupancy
_atom_site_attached_hydrogens
_atom_site_B_iso_or_equiv
Au1 Au3+ 4 c 0.250 0.250 0 1. 0 1.48(1) 
K1 K1+ 4 e 0.5 0.2534(3) 0.250 1. 0 5.1(1) 
S1 S2- 8 f 0.2212(2) 0.4202(2) 0.1153(1) 1. 0 2.01(6) 
S2 S2- 8 f -0.0310(2) 0.1920(2) 0.0324(1) 1. 0 2.06(6) 
S3 S2- 4 e 0 0.1872(2) 0.250 1. 0 1.83(8) 
S4 S2- 8 f -0.1959(2) 0.4716(2) 0.1542(1) 1. 0 2.39(6) 
P1 P5+ 8 f -0.0133(2) 0.3328(2) 0.1388(1) 1. 0 1.56(5) 

loop_
_atom_site_aniso_label
_atom_site_aniso_type_symbol
_atom_site_aniso_U_11
_atom_site_aniso_U_22
_atom_site_aniso_U_33
_atom_site_aniso_U_12
_atom_site_aniso_U_13
_atom_site_aniso_U_23
Au1 Au3+ 0.0186(2) 0.0193(2) 0.0182(2) -0.0016(1) 0.0009(1) -0.0013(1)
K1 K1+ 0.059(2) 0.041(1) 0.092(2) 0. -0.035(1) 0.
S1 S2- 0.0264(7) 0.0218(7) 0.0284(8) -0.0066(6) 0.0047(6) -0.0040(6)
S2 S2- 0.0204(7) 0.0297(8) 0.0280(7) -0.0054(6) 0.0011(6) -0.0071(6)
S3 S2- 0.030(1) 0.013(1) 0.027(1) 0. 0.0033(8) 0.
S4 S2- 0.0293(8) 0.0252(8) 0.0362(8) 0.0101(7) 0.0005(6) 0.0007(7)
P1 P5+ 0.0204(7) 0.0160(7) 0.0228(7) 0.0012(6) 0.0005(5) -0.0006(6)
#End of data_165325-ICSD


