data_169713-ICSD
#?2014 by Fachinformationszentrum Karlsruhe, and the U.S. Secretary of 
#Commerce on behalf of the United States.  All rights reserved.
_database_code_ICSD                169713
_audit_creation_date               2011/08/01
_chemical_name_systematic          'Sodium Copper(I) Copper(II) Oxide'
_chemical_formula_structural       'Na Cu2 O2'
_chemical_formula_sum              'Cu2 Na1 O2'
_publ_section_title
;
Magnetic structure of the edge-sharing copper oxide chain compound Na 
Cu2 O2
;
loop_
_citation_id
_citation_journal_abbrev
_citation_year
_citation_journal_volume
_citation_page_first
_citation_page_last
_citation_journal_id_ASTM
primary 'Physical Review, Serie 3. B - Condensed Matter (18,1978-)'
 2010 82 014407-1 014407-6 PRBMDO
_publ_author_name
;
Capogna, L.;Reehuis, M.;Maljuk, A.;Kremer, R.K.;Ouladdiaf, B.;Jansen, 
M.;Keimer, B.
;
_cell_length_a                     6.2001(1)
_cell_length_b                     2.9310(1)
_cell_length_c                     13.0337(2)
_cell_angle_alpha                  90.
_cell_angle_beta                   90.
_cell_angle_gamma                  90.
_cell_volume                       236.85
_cell_formula_units_Z              4
_symmetry_space_group_name_H-M     'P n m a'
_symmetry_Int_Tables_number        62
_refine_ls_R_factor_all            .054
loop_
_symmetry_equiv_pos_site_id
_symmetry_equiv_pos_as_xyz
  1	'x+.5, y, -z+.5'
  2	'x, -y+.5, z'
  3	'-x+.5, y+.5, z+.5'
  4	'-x, -y, -z'
  5	'-x+.5, -y, z+.5'
  6	'-x, y+.5, -z'
  7	'x+.5, -y+.5, -z+.5'
  8	'x, y, z'
loop_
_atom_type_symbol
_atom_type_oxidation_number
Cu1+	1
Cu2+	2
Na1+	1
O2-	-2
loop_
_atom_site_label
_atom_site_type_symbol
_atom_site_symmetry_multiplicity
_atom_site_Wyckoff_symbol
_atom_site_fract_x
_atom_site_fract_y
_atom_site_fract_z
_atom_site_occupancy
_atom_site_attached_hydrogens
Cu1 Cu1+ 4 c 0.3810(7) 0.25 0.2549(2) 1. 0 
Cu2 Cu2+ 4 c 0.8694(7) 0.25 0.6059(2) 1. 0 
Na1 Na1+ 4 c 0.358(1) 0.25 0.5806(4) 1. 0 
O1 O2- 4 c 0.4189(6) 0.25 0.1155(3) 1. 0 
O2 O2- 4 c 0.3489(8) 0.25 0.3979(3) 1. 0 

#End of data_169713-ICSD


