data_79406-ICSD
#?2014 by Fachinformationszentrum Karlsruhe, and the U.S. Secretary of 
#Commerce on behalf of the United States.  All rights reserved.
_database_code_ICSD                79406
_audit_creation_date               1996/10/14
_chemical_name_systematic          'Sodium Ditin Chloride'
_chemical_formula_structural       'Na Sn2 Cl5'
_chemical_formula_sum              'Cl5 Na1 Sn2'
_publ_section_title
;
Synthesis and crystal structure of orthorhombic Na Sn2 Cl5: a new 
type of A B2 X5 compound
;
loop_
_citation_id
_citation_journal_abbrev
_citation_year
_citation_journal_volume
_citation_page_first
_citation_page_last
_citation_journal_id_ASTM
primary 'Journal of Solid State Chemistry' 1995 115 158 164 JSSCBI
_publ_author_name                  'Zhang, Z.;Lutz, H.D.'
_cell_length_a                     8.1809(5)
_cell_length_b                     12.031(1)
_cell_length_c                     8.7163(8)
_cell_angle_alpha                  90.
_cell_angle_beta                   90.
_cell_angle_gamma                  90.
_cell_volume                       857.9
_cell_formula_units_Z              4
_symmetry_space_group_name_H-M     'P n n m'
_symmetry_Int_Tables_number        58
_refine_ls_R_factor_all            .019
loop_
_symmetry_equiv_pos_site_id
_symmetry_equiv_pos_as_xyz
  1	'x+.5, -y+.5, z+.5'
  2	'-x+.5, y+.5, z+.5'
  3	'x, y, -z'
  4	'-x, -y, -z'
  5	'-x+.5, y+.5, -z+.5'
  6	'x+.5, -y+.5, -z+.5'
  7	'-x, -y, z'
  8	'x, y, z'
loop_
_atom_type_symbol
_atom_type_oxidation_number
Cl1-	-1
Na1+	1
Sn2+	2
loop_
_atom_site_label
_atom_site_type_symbol
_atom_site_symmetry_multiplicity
_atom_site_Wyckoff_symbol
_atom_site_fract_x
_atom_site_fract_y
_atom_site_fract_z
_atom_site_occupancy
_atom_site_attached_hydrogens
Na1 Na1+ 4 f 0 0.5 0.2527(1) 1. 0 
Sn1 Sn2+ 4 g 0.04135(3) 0.16892(2) 0 1. 0 
Sn2 Sn2+ 4 g 0.54279(3) 0.32717(2) 0 1. 0 
Cl1 Cl1- 8 h 0.17276(8) 0.29129(6) 0.28304(7) 1. 0 
Cl2 Cl1- 4 g 0.1885(1) 0.56338(9) 0 1. 0 
Cl3 Cl1- 4 g 0.33654(9) 0.10193(8) 0 1. 0 
Cl4 Cl1- 4 e 0 0 0.2051(1) 1. 0 

loop_
_atom_site_aniso_label
_atom_site_aniso_type_symbol
_atom_site_aniso_U_11
_atom_site_aniso_U_22
_atom_site_aniso_U_33
_atom_site_aniso_U_12
_atom_site_aniso_U_13
_atom_site_aniso_U_23
Na1 Na1+ 0.053(1) 0.028(1) 0.0266(9) -.002(1) 0 0
Sn1 Sn2+ 0.0217(1) 0.0229(1) 0.0219(1) 0.0019(1) 0 0
Sn2 Sn2+ 0.0232(1) 0.0261(1) 0.0247(1) 0.0005(1) 0 0
Cl1 Cl1- 0.0336(3) 0.0272(4) 0.0270(2) 0.0012(3) 0.0062(3) 0.0031(3)
Cl2 Cl1- 0.0336(4) 0.0432(5) 0.0268(4) -.00162(4) 0 0
Cl3 Cl1- 0.0191(3) 0.0311(4) 0.0279(4) 0.0014(4) 0 0
Cl4 Cl1- 0.0390(4) 0.0263(5) 0.0194(3) -.0045(4) 0 0
#End of data_79406-ICSD


