data_156626-ICSD
#?2014 by Fachinformationszentrum Karlsruhe, and the U.S. Secretary of 
#Commerce on behalf of the United States.  All rights reserved.
_database_code_ICSD                156626
_audit_creation_date               2007/08/01
_chemical_name_systematic
;
Pentacalcium Disilicate Dicarbonate
;
_chemical_formula_structural       'Ca5 (Si2 O7) (C O3)2'
_chemical_formula_sum              'C2 Ca5 O13 Si2'
_chemical_name_mineral             Tilleyite
_publ_section_title
;
The structure of spurrite, tilleyite and scawtite, and relationships 
to other silicate-carbonate minerals
;
loop_
_citation_id
_citation_journal_abbrev
_citation_year
_citation_journal_volume
_citation_page_first
_citation_page_last
_citation_journal_id_ASTM
primary 'Canadian Mineralogist' 2005 43 1489 1500 CAMIA6
_publ_author_name                  'Grice, J.D.'
_cell_length_a                     15.082(3)
_cell_length_b                     10.236(2)
_cell_length_c                     7.572(1)
_cell_angle_alpha                  90
_cell_angle_beta                   105.17(1)
_cell_angle_gamma                  90
_cell_volume                       1128.23
_cell_formula_units_Z              4
_symmetry_space_group_name_H-M     'P 1 21/a 1'
_symmetry_Int_Tables_number        14
_refine_ls_R_factor_all            .024
loop_
_symmetry_equiv_pos_site_id
_symmetry_equiv_pos_as_xyz
  1	'x+.5, -y+.5, z'
  2	'-x, -y, -z'
  3	'-x+.5, y+.5, -z'
  4	'x, y, z'
loop_
_atom_type_symbol
_atom_type_oxidation_number
C4+	4
Ca2+	2
O2-	-2
Si4+	4
loop_
_atom_site_label
_atom_site_type_symbol
_atom_site_symmetry_multiplicity
_atom_site_Wyckoff_symbol
_atom_site_fract_x
_atom_site_fract_y
_atom_site_fract_z
_atom_site_occupancy
_atom_site_attached_hydrogens
_atom_site_U_iso_or_equiv
Ca1 Ca2+ 4 e 0.00343(2) 0.99395(3) 0.75024(4) 1. 0 0.00896(8) 
Ca2 Ca2+ 4 e 0.17682(2) 0.21349(3) 0.09115(4) 1. 0 0.00912(8) 
Ca3 Ca2+ 4 e 0.18116(2) 0.20649(3) 0.60855(4) 1. 0 0.00882(8) 
Ca4 Ca2+ 4 e 0.12417(2) 0.58934(3) 0.04534(4) 1. 0 0.00810(8) 
Ca5 Ca2+ 4 e 0.13621(2) 0.57880(3) 0.55926(4) 1. 0 0.00905(8) 
Si1 Si4+ 4 e 0.20174(3) 0.92086(4) 0.13855(6) 1. 0 0.00603(9) 
Si2 Si4+ 4 e 0.20390(3) 0.91414(4) 0.56867(5) 1. 0 0.00603(9) 
C1 C4+ 4 e 0.0301(1) 0.3088(2) 0.3388(2) 1. 0 0.0093(3) 
C2 C4+ 4 e 0.0220(1) 0.3027(2) 0.8176(2) 1. 0 0.0094(3) 
O1 O2- 4 e 0.07397(9) 0.2081(1) 0.29945(2) 1. 0 0.0117(2) 
O2 O2- 4 e 0.07153(8) 0.2047(1) 0.7882(2) 1. 0 0.0104(2) 
O3 O2- 4 e 0.06991(9) 0.3767(1) 0.4799(2) 1. 0 0.0150(2) 
O4 O2- 4 e 0.05589(9) 0.3760(1) -0.0424(2) 1. 0 0.0143(2) 
O5 O2- 4 e 0.05021(9) 0.6655(2) 0.7530(2) 1. 0 0.0191(3) 
O6 O2- 4 e 0.05884(9) 0.6805(1) 0.2792(2) 1. 0 0.0159(3) 
O7 O2- 4 e 0.22519(8) 0.7744(1) 0.0876(2) 1. 0 0.0100(2) 
O8 O2- 4 e 0.22688(8) 0.7642(1) 0.6289(2) 1. 0 0.0108(2) 
O9 O2- 4 e 0.09944(8) 0.9761(1) 0.0560(2) 1. 0 0.0123(2) 
O10 O2- 4 e 0.10274(8) 0.9720(1) 0.5534(2) 1. 0 0.0115(2) 
O11 O2- 4 e 0.22507(8) 0.5306(1) 0.8846(2) 1. 0 0.0109(2) 
O12 O2- 4 e 0.22205(8) 0.5210(1) 0.3213(2) 1. 0 0.0112(2) 
O13 O2- 4 e 0.22538(8) 0.9174(1) 0.3651(2) 1. 0 0.0132(2) 

loop_
_atom_site_aniso_label
_atom_site_aniso_type_symbol
_atom_site_aniso_U_11
_atom_site_aniso_U_22
_atom_site_aniso_U_33
_atom_site_aniso_U_12
_atom_site_aniso_U_13
_atom_site_aniso_U_23
Ca1 Ca2+ 0.0096(2) 0.0096(1) 0.0084(1) -0.0021(1) 0.0037(1) -0.0012(1)
Ca2 Ca2+ 0.0099(2) 0.0100(1) 0.0077(1) 0.0018(1) 0.0027(1) 0.0008(1)
Ca3 Ca2+ 0.0100(2) 0.0080(1) 0.0087(1) 0.0010(1) 0.0029(1) -0.0002(1)
Ca4 Ca2+ 0.0090(2) 0.0082(1) 0.0076(1) 0.0003(1) 0.0031(1) -0.0005(1)
Ca5 Ca2+ 0.0108(2) 0.0076(1) 0.0092(1) -0.0013(1) 0.0035(1) -0.0004(1)
Si1 Si4+ 0.0077(2) 0.0053(2) 0.0058(2) 0.0003(1) 0.0031(2) 0.0000(1)
Si2 Si4+ 0.0077(2) 0.0054(2) 0.0057(2) 0.0003(1) 0.0031(2) 0.0001(1)
C1 C4+ 0.0105(9) 0.0091(6) 0.0098(6) 0.0001(5) 0.0055(6) 0.0023(5)
C2 C4+ 0.0119(9) 0.0079(6) 0.0103(6) 0.0004(5) 0.0064(6) 0.00134(5)
O1 O2- 0.0139(6) 0.0083(5) 0.0144(5) 0.0013(4) 0.0066(5) -0.00059(5)
O2 O2- 0.0119(6) 0.0082(5) 0.0121(5) 0.0015(4) 0.0049(5) -0.0007(4)
O3 O2- 0.0210(7) 0.0092(5) 0.0146(5) -0.0021(5) 0.0044(5) -0.0025(4)
O4 O2- 0.0194(7) 0.0099(5) 0.0137(5) -0.0002(4) 0.0046(5) -0.0033(4)
O5 O2- 0.0115(7) 0.0340(8) 0.0117(5) 0.0076(5) 0.0030(5) 0.0049(5)
O6 O2- 0.0106(7) 0.0249(6) 0.0122(5) 0.0056(5) 0.0030(5) 0.0012(5)
O7 O2- 0.0122(6) 0.0069(5) 0.0121(5) -0.0002(4) 0.0054(5) -0.0019(4)
O8 O2- 0.0118(6) 0.0073(5) 0.0126(5) -0.0004(4) 0.0019(5) 0.0023(4)
O9 O2- 0.0115(6) 0.0149(6) 0.0106(5) 0.0036(4) 0.0032(5) 0.0005(4)
O10 O2- 0.0106(6) 0.0132(5) 0.0118(5) 0.0028(4) 0.0045(5) 0.0000(4)
O11 O2- 0.0127(6) 0.0078(5) 0.0145(5) 0.0019(4) 0.0076(5) -0.0009(4)
O12 O2- 0.0114(6) 0.0096(5) 0.0123(5) 0.0017(4) 0.0024(4) 0.0030(4)
O13 O2- 0.0157(6) 0.0185(6) 0.0063(5) 0.0008(5) 0.0045(4) 0.0000(4)
#End of data_156626-ICSD


