data_83452-ICSD
#?2014 by Fachinformationszentrum Karlsruhe, and the U.S. Secretary of 
#Commerce on behalf of the United States.  All rights reserved.
_database_code_ICSD                83452
_audit_creation_date               1998/06/26
_audit_update_record               2002/04/01
_chemical_name_systematic          'Dialuminium Silicate Oxide'
_chemical_formula_structural       'Al2 (Si O4) O'
_chemical_formula_sum              'Al2 O5 Si1'
_chemical_name_mineral             Kyanite
_publ_section_title
;
Compressibility and crystal structure of kyanite, Al2 Si O5, at high 
pressure
;
loop_
_citation_id
_citation_journal_abbrev
_citation_year
_citation_journal_volume
_citation_page_first
_citation_page_last
_citation_journal_id_ASTM
primary 'American Mineralogist' 1997 82 467 474 AMMIAY
_publ_author_name
;
Yang, H.;Downs, R.T.;Finger, L.W.;Hazen, R.M.;Prewitt, C.T.
;
_cell_length_a                     7.0896(4)
_cell_length_b                     7.8173(4)
_cell_length_c                     5.5497(4)
_cell_angle_alpha                  90.031(5)
_cell_angle_beta                   101.098(5)
_cell_angle_gamma                  105.987(5)
_cell_volume                       289.68
_cell_formula_units_Z              4
_symmetry_space_group_name_H-M     'P -1'
_symmetry_Int_Tables_number        2
_refine_ls_R_factor_all            .026
loop_
_symmetry_equiv_pos_site_id
_symmetry_equiv_pos_as_xyz
  1	'-x, -y, -z'
  2	'x, y, z'
loop_
_atom_type_symbol
_atom_type_oxidation_number
Al3+	3
O2-	-2
Si4+	4
loop_
_atom_site_label
_atom_site_type_symbol
_atom_site_symmetry_multiplicity
_atom_site_Wyckoff_symbol
_atom_site_fract_x
_atom_site_fract_y
_atom_site_fract_z
_atom_site_occupancy
_atom_site_attached_hydrogens
_atom_site_B_iso_or_equiv
Al1 Al3+ 2 i 0.3245(5) 0.7038(4) 0.4572(7) 1. 0 0.42(3) 
Al2 Al3+ 2 i 0.2973(5) 0.6990(4) 0.9507(7) 1. 0 0.38(3) 
Al3 Al3+ 2 i 0.0997(5) 0.3862(4) 0.6408(7) 1. 0 0.40(3) 
Al4 Al3+ 2 i 0.1116(5) 0.9170(3) 0.1642(7) 1. 0 0.42(3) 
Si1 Si4+ 2 i 0.2964(4) 0.0646(3) 0.7057(6) 1. 0 0.36(3) 
Si2 Si4+ 2 i 0.2918(4) 0.3322(3) 0.1906(6) 1. 0 0.39(3) 
O1 O2- 2 i 0.1096(10) 0.1477(7) 0.1308(12) 1. 0 0.52(7) 
O2 O2- 2 i 0.1223(10) 0.6838(8) 0.1786(12) 1. 0 0.41(7) 
O3 O2- 2 i 0.2762(10) 0.4552(7) 0.9556(12) 1. 0 0.39(7) 
O4 O2- 2 i 0.2838(10) 0.9368(7) 0.9372(13) 1. 0 0.52(7) 
O5 O2- 2 i 0.1082(10) 0.1518(7) 0.6679(14) 1. 0 0.43(8) 
O6 O2- 2 i 0.1216(10) 0.6312(7) 0.6400(14) 1. 0 0.54(7) 
O7 O2- 2 i 0.2817(10) 0.4452(8) 0.4291(12) 1. 0 0.59(7) 
O8 O2- 2 i 0.2923(10) 0.9480(8) 0.4659(12) 1. 0 0.45(7) 
O9 O2- 2 i 0.5005(10) 0.2731(8) 0.2440(12) 1. 0 0.62(7) 
O10 O2- 2 i 0.5013(10) 0.2315(8) 0.7553(13) 1. 0 0.58(7) 

#End of data_83452-ICSD


