data_50481-ICSD
#?2014 by Fachinformationszentrum Karlsruhe, and the U.S. Secretary of 
#Commerce on behalf of the United States.  All rights reserved.
_database_code_ICSD                50481
_audit_creation_date               1999/11/30
_audit_update_record               2010/08/01
_chemical_name_systematic
;
Potassium Tri-mue-imido-cyclo-triphosphate(V)
;
_chemical_formula_structural       'K3 (P O2 (N H))3'
_chemical_formula_sum              'H3 K3 N3 O6 P3'
_publ_section_title
;
Darstellung und Strukturbestimmung zweier Salze der 
Trimetaphosphimsaeure, K3 (P O2 N H)3 und Rb3 (P O2 N H)3
;
loop_
_citation_id
_citation_journal_abbrev
_citation_year
_citation_journal_volume
_citation_page_first
_citation_page_last
_citation_journal_id_ASTM
primary 'Zeitschrift fuer Anorganische und Allgemeine Chemie (1950) (DE)'
 1998 624 199 204 ZAACAB
_publ_author_name                  'Jacobs, H.;Nymwegen, R.'
_cell_length_a                     12.615(3)
_cell_length_b                     12.615(3)
_cell_length_c                     10.224(2)
_cell_angle_alpha                  90.
_cell_angle_beta                   90.
_cell_angle_gamma                  120.
_cell_volume                       1409.05
_cell_formula_units_Z              6
_symmetry_space_group_name_H-M     'R -3 H'
_symmetry_Int_Tables_number        148
_refine_ls_R_factor_all            .0276
loop_
_symmetry_equiv_pos_site_id
_symmetry_equiv_pos_as_xyz
  1	'x-y, x, -z'
  2	'y, -x+y, -z'
  3	'-x, -y, -z'
  4	'-x+y, -x, z'
  5	'-y, x-y, z'
  6	'x, y, z'
  7	'x-y+.6666, x+.3333, -z+.3333'
  8	'x-y+.3333, x+.6666, -z+.6666'
  9	'y+.6666, -x+y+.3333, -z+.3333'
 10	'y+.3333, -x+y+.6666, -z+.6666'
 11	'-x+.6666, -y+.3333, -z+.3333'
 12	'-x+.3333, -y+.6666, -z+.6666'
 13	'-x+y+.6666, -x+.3333, z+.3333'
 14	'-x+y+.3333, -x+.6666, z+.6666'
 15	'-y+.6666, x-y+.3333, z+.3333'
 16	'-y+.3333, x-y+.6666, z+.6666'
 17	'x+.6666, y+.3333, z+.3333'
 18	'x+.3333, y+.6666, z+.6666'
loop_
_atom_type_symbol
_atom_type_oxidation_number
H1+	1
K1+	1
N3-	-3
O2-	-2
P5+	5
loop_
_atom_site_label
_atom_site_type_symbol
_atom_site_symmetry_multiplicity
_atom_site_Wyckoff_symbol
_atom_site_fract_x
_atom_site_fract_y
_atom_site_fract_z
_atom_site_occupancy
_atom_site_attached_hydrogens
_atom_site_B_iso_or_equiv
K1 K1+ 18 f 0.22738(5) 0.26635(5) 0.09038(5) 1. 0 0 
P1 P5+ 18 f 0.52046(4) 0.31097(4) 0.03290(5) 1. 0 0 
O1 O2- 18 f 0.1292(1) 0.4240(1) 0.0634(2) 1. 0 0 
O2 O2- 18 f 0.1740(2) 0.0284(1) 0.1584(2) 1. 0 0 
N1 N3- 18 f 0.3539(2) 0.5556(2) 0.0021(2) 1. 0 0 
H1 H1+ 18 f 0.359(4) 0.535(4) 0.065(4) 1. 0 4.(1) 

loop_
_atom_site_aniso_label
_atom_site_aniso_type_symbol
_atom_site_aniso_U_11
_atom_site_aniso_U_22
_atom_site_aniso_U_33
_atom_site_aniso_U_12
_atom_site_aniso_U_13
_atom_site_aniso_U_23
K1 K1+ 0.0259(3) 0.0245(3) 0.0194(3) 0.0159(2) 0.0044(2) 0.0048(2)
P1 P5+ 0.0097(2) 0.0113(2) 0.0140(3) 0.0054(2) 0.0007(2) 0.0000(2)
O1 O2- 0.0156(7) 0.0134(7) 0.0279(9) 0.0049(4) 0.0043(6) 0.0058(6)
O2 O2- 0.0275(8) 0.0206(7) 0.0166(7) 0.0129(6) 0.0089(6) 0.0017(6)
N1 N3- 0.0110(7) 0.0113(7) 0.0140(8) 0.0048(6) -.0006(6) 0.0000(6)
#End of data_50481-ICSD


