data_26764-ICSD
#?2014 by Fachinformationszentrum Karlsruhe, and the U.S. Secretary of 
#Commerce on behalf of the United States.  All rights reserved.
_database_code_ICSD                26764
_audit_creation_date               1980/01/01
_audit_update_record               2006/04/01
_chemical_name_systematic          'Potassium Nitrate(III)'
_chemical_formula_structural       'K (N O2)'
_chemical_formula_sum              'K1 N1 O2'
_publ_section_title
;
The crystal structure of potassium nitrite, K N O2
;
loop_
_citation_id
_citation_journal_abbrev
_citation_year
_citation_journal_volume
_citation_page_first
_citation_page_last
_citation_journal_id_ASTM
primary
;
Zeitschrift fuer Kristallographie, Kristallgeometrie, Kristallphysik, 
Kristallchemie (-144,1977)
;
 1936 94 491 499 ZEKGAX
2 'Golden Book of Phase Transitions, Wroclaw' 2002 1 1 123 GBOPT5
_publ_author_name                  'Ziegler, G.E.'
_cell_length_a                     4.45
_cell_length_b                     4.99
_cell_length_c                     7.31
_cell_angle_alpha                  90.
_cell_angle_beta                   114.83
_cell_angle_gamma                  90.
_cell_volume                       147.32
_cell_formula_units_Z              2
_symmetry_space_group_name_H-M     'A 1 m 1'
_symmetry_Int_Tables_number        8
loop_
_symmetry_equiv_pos_site_id
_symmetry_equiv_pos_as_xyz
  1	'x, -y, z'
  2	'x, y, z'
  3	'x, -y+.5, z+.5'
  4	'x, y+.5, z+.5'
loop_
_atom_type_symbol
_atom_type_oxidation_number
K1+	1
N3+	3
O2-	-2
loop_
_atom_site_label
_atom_site_type_symbol
_atom_site_symmetry_multiplicity
_atom_site_Wyckoff_symbol
_atom_site_fract_x
_atom_site_fract_y
_atom_site_fract_z
_atom_site_occupancy
_atom_site_attached_hydrogens
K1 K1+ 2 a 0 0 0 1. 0 
N1 N3+ 2 a 0.5 0 0.486 1. 0 
O1 O2- 4 b 0.444 0.194 0.417 1. 0 

#End of data_26764-ICSD


