data_52152-ICSD
#?2014 by Fachinformationszentrum Karlsruhe, and the U.S. Secretary of 
#Commerce on behalf of the United States.  All rights reserved.
_database_code_ICSD                52152
_audit_creation_date               2003/04/01
_audit_update_record               2005/10/01
_chemical_name_systematic          'Calcium Carbonate'
_chemical_formula_structural       'Ca (C O3)'
_chemical_formula_sum              'C1 Ca1 O3'
_chemical_name_mineral             Aragonite
_publ_section_title
;
Lattice-dynamical estimation of atomic displacement parameters in 
carbonates: Calcite and aragonite Ca C O3, dolomite Ca Mg (C O3)2, 
and magnesite Mg C O3
;
loop_
_citation_id
_citation_journal_abbrev
_citation_year
_citation_journal_volume
_citation_page_first
_citation_page_last
_citation_journal_id_ASTM
primary 'Acta Crystallographica, Section B: Structural Science'
 1998 54 515 523 ASBSDK
2 'Journal of Solid State Chemistry' 1999 146 73 78 JSSCBI
_publ_author_name
;
Pilati, T.;Demartin, F.;Gramaccioli, C.M.
;
_cell_length_a                     5.7407(4)
_cell_length_b                     4.9611(4)
_cell_length_c                     7.9672(6)
_cell_angle_alpha                  90.
_cell_angle_beta                   90.
_cell_angle_gamma                  90.
_cell_volume                       226.91
_cell_formula_units_Z              4
_symmetry_space_group_name_H-M     'P n m a'
_symmetry_Int_Tables_number        62
_refine_ls_R_factor_all            .014
loop_
_symmetry_equiv_pos_site_id
_symmetry_equiv_pos_as_xyz
  1	'x+.5, y, -z+.5'
  2	'x, -y+.5, z'
  3	'-x+.5, y+.5, z+.5'
  4	'-x, -y, -z'
  5	'-x+.5, -y, z+.5'
  6	'-x, y+.5, -z'
  7	'x+.5, -y+.5, -z+.5'
  8	'x, y, z'
loop_
_atom_type_symbol
_atom_type_oxidation_number
C4+	4
Ca2+	2
O2-	-2
loop_
_atom_site_label
_atom_site_type_symbol
_atom_site_symmetry_multiplicity
_atom_site_Wyckoff_symbol
_atom_site_fract_x
_atom_site_fract_y
_atom_site_fract_z
_atom_site_occupancy
_atom_site_attached_hydrogens
Ca1 Ca2+ 4 c 0.24046(8) 0.25 0.41508(5) 1. 0 
C1 C4+ 4 c 0.08518(6) 0.25 0.76211(4) 1. 0 
O1 O2- 4 c 0.09557(8) 0.25 0.92224(4) 1. 0 
O2 O2- 8 d 0.08726(5) 0.47347(5) 0.68065(3) 1. 0 

loop_
_atom_site_aniso_label
_atom_site_aniso_type_symbol
_atom_site_aniso_U_11
_atom_site_aniso_U_22
_atom_site_aniso_U_33
_atom_site_aniso_U_12
_atom_site_aniso_U_13
_atom_site_aniso_U_23
Ca1 Ca2+ 0.0084 0.0084 0.0085 0 0.0003 0
C1 C4+ 0.0051 0.0056 0.0073 0 0.0001 0
O1 O2- 0.0111 0.0143 0.0069 0 -0.0007 0
O2 O2- 0.0117 0.0065 0.0117 -0.0002 0.0011 0.0023
#End of data_52152-ICSD


