data_38359-ICSD
#?2014 by Fachinformationszentrum Karlsruhe, and the U.S. Secretary of 
#Commerce on behalf of the United States.  All rights reserved.
_database_code_ICSD                38359
_audit_creation_date               1980/01/01
_audit_update_record               1985/06/14
_chemical_name_systematic          'Calcium Silicate Calcium Chloride'
_chemical_formula_structural       'Ca2 Si O4 Ca Cl2'
_chemical_formula_sum              'Ca3 Cl2 O4 Si1'
_publ_section_title
;
Die Kristallstruktur von Ca2 Si O4 Ca Cl2
;
loop_
_citation_id
_citation_journal_abbrev
_citation_year
_citation_journal_volume
_citation_page_first
_citation_page_last
_citation_journal_id_ASTM
primary 'Kristall und Technik' 1970 5 9 10 KRTEAW
_publ_author_name                  'Czaya, R.;Bissert, G.'
_cell_length_a                     9.782
_cell_length_b                     6.738
_cell_length_c                     10.799
_cell_angle_alpha                  90.
_cell_angle_beta                   106.
_cell_angle_gamma                  90.
_cell_volume                       684.2
_cell_formula_units_Z              4
_symmetry_space_group_name_H-M     'P 1 21/c 1'
_symmetry_Int_Tables_number        14
loop_
_symmetry_equiv_pos_site_id
_symmetry_equiv_pos_as_xyz
  1	'x, -y+.5, z+.5'
  2	'-x, -y, -z'
  3	'-x, y+.5, -z+.5'
  4	'x, y, z'
loop_
_atom_type_symbol
_atom_type_oxidation_number
Ca2+	2
Cl1-	-1
O2-	-2
Si4+	4
loop_
_atom_site_label
_atom_site_type_symbol
_atom_site_symmetry_multiplicity
_atom_site_Wyckoff_symbol
_atom_site_fract_x
_atom_site_fract_y
_atom_site_fract_z
_atom_site_occupancy
_atom_site_attached_hydrogens
_atom_site_B_iso_or_equiv
Ca1 Ca2+ 4 e 0.0717(1) 0.2788(5) 0.3881(1) 1. 0 0.40(1) 
Ca2 Ca2+ 4 e 0.3040(1) 0.7576(5) 0.4549(1) 1. 0 0.34(1) 
Ca3 Ca2+ 4 e 0.4205(1) 0.4587(5) 0.7285(1) 1. 0 0.25(1) 
Cl1 Cl1- 4 e 0.2166(2) 0.8250(7) 0.6825(1) 1. 0 0.47(2) 
Cl2 Cl1- 4 e 0.0084(2) 0.2943(7) 0.6243(2) 1. 0 0.58(2) 
Si1 Si4+ 4 e 0.3794(2) 0.2510(7) 0.4703(2) 1. 0 0.15(2) 
O1 O2- 4 e 0.4832(5) 0.3034(17) 0.3805(4) 1. 0 0.23(5) 
O2 O2- 4 e 0.4840(5) 0.1836(18) 0.6080(4) 1. 0 0.28(5) 
O3 O2- 4 e 0.2781(5) 0.4292(17) 0.4950(4) 1. 0 0.37(5) 
O4 O2- 4 e 0.2669(5) 0.0824(17) 0.3938(4) 1. 0 0.43(6) 

#End of data_38359-ICSD


