data_69084-ICSD
#?2014 by Fachinformationszentrum Karlsruhe, and the U.S. Secretary of 
#Commerce on behalf of the United States.  All rights reserved.
_database_code_ICSD                69084
_audit_creation_date               1992/01/20
_audit_update_record               2012/08/01
_chemical_name_systematic
;
Sodium Dimolybdo(V)triphosphate(V) - Epsilon
;
_chemical_formula_structural       'Na (Mo2 P3 O13)'
_chemical_formula_sum              'Mo2 Na1 O13 P3'
_publ_section_title
;
epsilon-Na Mo2 P3 O13, a new structural form of the Mo(V) phosphates 
series A Mo2(V) P3 O13
;
loop_
_citation_id
_citation_journal_abbrev
_citation_year
_citation_journal_volume
_citation_page_first
_citation_page_last
_citation_journal_id_ASTM
primary 'Journal of Solid State Chemistry' 1990 89 10 15 JSSCBI
_publ_author_name
;
Leclaire, A.;Borel, M.M.;Grandin, A.;Raveau, B.
;
_cell_length_a                     6.352(3)
_cell_length_b                     7.448(5)
_cell_length_c                     10.991(6)
_cell_angle_alpha                  75.08(5)
_cell_angle_beta                   85.33(4)
_cell_angle_gamma                  79.10(4)
_cell_volume                       493.09
_cell_formula_units_Z              2
_symmetry_space_group_name_H-M     'P -1'
_symmetry_Int_Tables_number        2
_refine_ls_R_factor_all            .033
loop_
_symmetry_equiv_pos_site_id
_symmetry_equiv_pos_as_xyz
  1	'-x, -y, -z'
  2	'x, y, z'
loop_
_atom_type_symbol
_atom_type_oxidation_number
Mo5+	5
Na1+	1
O2-	-2
P5+	5
loop_
_atom_site_label
_atom_site_type_symbol
_atom_site_symmetry_multiplicity
_atom_site_Wyckoff_symbol
_atom_site_fract_x
_atom_site_fract_y
_atom_site_fract_z
_atom_site_occupancy
_atom_site_attached_hydrogens
Mo1 Mo5+ 2 i 0.21573(3) 0.21226(2) 0.08508(2) 1. 0 
Mo2 Mo5+ 2 i 0.24357(3) 0.19432(2) 0.59317(2) 1. 0 
P1 P5+ 2 i 0.74282(8) 0.19750(8) 0.66237(5) 1. 0 
P2 P5+ 2 i 0.11903(8) 0.47629(7) 0.30773(5) 1. 0 
P3 P5+ 2 i 0.73572(8) 0.07237(7) 0.10861(5) 1. 0 
Na1 Na1+ 2 i 0.6551(5) 0.4024(4) 0.2543(4) 1. 0 
O1 O2- 2 i 0.2362(4) 0.3698(3) -.0520(2) 1. 0 
O2 O2- 2 i 0.5241(3) 0.2008(2) 0.1314(2) 1. 0 
O3 O2- 2 i 0.2706(3) -.0145(2) 0.0139(2) 1. 0 
O4 O2- 2 i 0.2421(3) -.0047(3) 0.2545(2) 1. 0 
O5 O2- 2 i -.0956(3) 0.1978(3) 0.1008(2) 1. 0 
O6 O2- 2 i 0.1279(3) 0.3923(3) 0.1969(2) 1. 0 
O7 O2- 2 i 0.3176(4) -.0254(3) 0.5786(2) 1. 0 
O8 O2- 2 i -.0722(3) 0.2142(3) 0.5643(2) 1. 0 
O9 O2- 2 i 0.2194(3) 0.1049(3) 0.7831(2) 1. 0 
O10 O2- 2 i 0.5274(3) 0.2743(3) 0.6003(2) 1. 0 
O11 O2- 2 i 0.2603(3) 0.3473(3) 0.4128(2) 1. 0 
O12 O2- 2 i 0.1088(3) 0.4585(2) 0.6498(2) 1. 0 
O13 O2- 2 i 0.2375(3) 0.6553(2) 0.2558(2) 1. 0 

#End of data_69084-ICSD


