data_191101-ICSD
#?2014 by Fachinformationszentrum Karlsruhe, and the U.S. Secretary of 
#Commerce on behalf of the United States.  All rights reserved.
_database_code_ICSD                191101
_audit_creation_date               2014/08/01
_chemical_name_systematic          'Lithium Iron Sulfate Hydroxide'
_chemical_formula_structural       'Li Fe (S O4) (O H)'
_chemical_formula_sum              'H1 Fe1 Li1 O5 S1'
_publ_section_title
;
Electronic structure, optical and thermoelectric transport properties 
of layered polyanionic hydrosulfate Li Fe S O4 O H :  Electrode for 
Li-ion batteries
;
loop_
_citation_id
_citation_journal_abbrev
_citation_year
_citation_journal_volume
_citation_journal_issue
_citation_page_first
_citation_page_last
_citation_journal_id_ASTM
primary 'Journal of Alloys and Compounds' 2014 591- 362 369 JALCEU
2 'Journal of the American Chemical Society' 2013 135 9 3653 3661 JACSAT
_publ_author_name                  'Reshak, A.H.;Khan, Wilayat'
_cell_length_a                     9.5147
_cell_length_b                     5.5087
_cell_length_c                     7.3755
_cell_angle_alpha                  90.
_cell_angle_beta                   109.11
_cell_angle_gamma                  90.
_cell_volume                       365.27
_cell_formula_units_Z              4
_symmetry_space_group_name_H-M     'P 1 21/c 1'
_symmetry_Int_Tables_number        14
loop_
_symmetry_equiv_pos_site_id
_symmetry_equiv_pos_as_xyz
  1	'x, -y+.5, z+.5'
  2	'-x, -y, -z'
  3	'-x, y+.5, -z+.5'
  4	'x, y, z'
loop_
_atom_type_symbol
_atom_type_oxidation_number
Fe2+	2
H1+	1
Li1+	1
O2-	-2
S6+	6
loop_
_atom_site_label
_atom_site_type_symbol
_atom_site_symmetry_multiplicity
_atom_site_Wyckoff_symbol
_atom_site_fract_x
_atom_site_fract_y
_atom_site_fract_z
_atom_site_occupancy
_atom_site_attached_hydrogens
Fe1 Fe2+ 4 e 0.5477 0.2621 0.6164 1. 0 
S1 S6+ 4 e 0.7782 0.5568 0.9849 1. 0 
O1 O2- 4 e 0.5549 0.4235 0.3657 1. 0 
O2 O2- 4 e 0.6374 0.9403 0.5433 1. 0 
O3 O2- 4 e 0.7451 0.0631 0.2908 1. 0 
O4 O2- 4 e 0.1711 0.1885 0.0222 1. 0 
O5 O2- 4 e 0.1023 0.9158 0.3696 1. 0 
Li1 Li1+ 4 e 0.0865 0.9403 0.8186 1. 0 
H1 H1+ 4 e 0.3434 0.9864 0.1057 1. 0 

#End of data_191101-ICSD


