data_424282-ICSD
#?2014 by Fachinformationszentrum Karlsruhe, and the U.S. Secretary of 
#Commerce on behalf of the United States.  All rights reserved.
_database_code_ICSD                424282
_audit_creation_date               2013/02/01
_chemical_name_systematic
;
Trilithium Dipotassium Borotetraphosphate
;
_chemical_formula_structural       'Li3 K2 B P4 O14'
_chemical_formula_sum              'B1 K2 Li3 O14 P4'
_publ_section_title
;
Further examples of the P-O-P connection in borophosphates: synthesis 
and characterization of Li2 Cs2 B2 P4 O15, Li K2 B P2 O8, and Li3 M2 
B P4 O14 (M = K, Rb)
;
loop_
_citation_id
_citation_journal_abbrev
_citation_year
_citation_journal_volume
_citation_journal_issue
_citation_page_first
_citation_page_last
_citation_journal_id_ASTM
primary 'Chemistry - A European Journal' 2012 18 38 12046 12051 CEUJED
_publ_author_name                  'Wang Ying;Pan Shilie;Shi Yunjing'
_cell_length_a                     24.044(9)
_cell_length_b                     13.902(5)
_cell_length_c                     6.874(3)
_cell_angle_alpha                  90.00
_cell_angle_beta                   90.00
_cell_angle_gamma                  90.00
_cell_volume                       2297.7
_cell_formula_units_Z              8
_symmetry_space_group_name_H-M     'C m c a'
_symmetry_Int_Tables_number        64
_refine_ls_R_factor_all            .0281
loop_
_symmetry_equiv_pos_site_id
_symmetry_equiv_pos_as_xyz
  1	'-x, -y+.5, z+.5'
  2	'-x, y+.5, -z+.5'
  3	'-x, y, z'
  4	'-x, -y, -z'
  5	'x, y+.5, -z+.5'
  6	'x, -y+.5, z+.5'
  7	'x, -y, -z'
  8	'x, y, z'
  9	'-x+.5, -y, z+.5'
 10	'-x+.5, y, -z+.5'
 11	'-x+.5, y+.5, z'
 12	'-x+.5, -y+.5, -z'
 13	'x+.5, y, -z+.5'
 14	'x+.5, -y, z+.5'
 15	'x+.5, -y+.5, -z'
 16	'x+.5, y+.5, z'
loop_
_atom_type_symbol
_atom_type_oxidation_number
B3+	3
K1+	1
Li1+	1
O2-	-2
P5+	5
loop_
_atom_site_label
_atom_site_type_symbol
_atom_site_symmetry_multiplicity
_atom_site_Wyckoff_symbol
_atom_site_fract_x
_atom_site_fract_y
_atom_site_fract_z
_atom_site_occupancy
_atom_site_attached_hydrogens
_atom_site_U_iso_or_equiv
Li1 Li1+ 16 g 0.36550(16) 0.2358(3) 0.4743(6) 1 0 0.0184(8) 
Li2 Li1+ 8 d 0.3823(2) 0.0000 0.5000 1 0 0.0199(12) 
K1 K1+ 8 e 0.2500 0.15795(5) 0.2500 1 0 0.01902(19) 
K2 K1+ 8 f 0.5000 0.39087(6) 0.19907(11) 1 0 0.0213(2) 
B1 B3+ 8 d 0.38132(14) 0.0000 0.0000 1 0 0.0108(6) 
P1 P5+ 16 g 0.43816(2) 0.13894(4) 0.19714(8) 1 0 0.00984(16) 
P2 P5+ 16 g 0.30979(2) 0.40573(4) 0.25653(8) 1 0 0.00950(16) 
O1 O2- 16 g 0.44065(6) 0.07592(12) 0.3699(2) 1 0 0.0167(4) 
O2 O2- 16 g 0.41718(6) 0.08488(11) 0.0121(2) 1 0 0.0152(4) 
O3 O2- 8 f 0.5000 0.16901(15) 0.1295(3) 1 0 0.0135(5) 
O4 O2- 16 g 0.40719(6) 0.23147(12) 0.2171(2) 1 0 0.0175(4) 
O5 O2- 16 g 0.30639(6) 0.32493(11) 0.3980(2) 1 0 0.0144(3) 
O6 O2- 8 e 0.2500 0.45847(15) 0.2500 1 0 0.0124(5) 
O7 O2- 16 g 0.34679(6) 0.49197(11) 0.3254(2) 1 0 0.0149(4) 
O8 O2- 16 g 0.32699(7) 0.38360(11) 0.0527(2) 1 0 0.0162(4) 

loop_
_atom_site_aniso_label
_atom_site_aniso_type_symbol
_atom_site_aniso_U_11
_atom_site_aniso_U_22
_atom_site_aniso_U_33
_atom_site_aniso_U_12
_atom_site_aniso_U_13
_atom_site_aniso_U_23
Li1 Li1+ 0.0148(19) 0.020(2) 0.021(2) 0.0009(15) -0.0006(16) 0.0031(16)
Li2 Li1+ 0.016(3) 0.017(3) 0.026(3) 0.000 0.000 0.001(2)
K1 K1+ 0.0250(4) 0.0155(4) 0.0166(4) 0.000 -0.0018(3) 0.000
K2 K1+ 0.0231(4) 0.0252(4) 0.0155(4) 0.000 0.000 0.0005(3)
B1 B3+ 0.0078(15) 0.0108(16) 0.0140(16) 0.000 0.000 -0.0023(13)
P1 P5+ 0.0075(3) 0.0113(3) 0.0108(3) -0.0001(2) 0.00013(19) 0.0002(2)
P2 P5+ 0.0074(3) 0.0094(3) 0.0117(3) -0.00003(19) -0.0003(2) 0.0004(2)
O1 O2- 0.0134(8) 0.0229(9) 0.0137(8) -0.0037(6) -0.0012(6) 0.0069(7)
O2 O2- 0.0166(8) 0.0171(8) 0.0120(8) -0.0087(6) 0.0002(6) -0.0003(6)
O3 O2- 0.0070(10) 0.0166(11) 0.0170(11) 0.000 0.000 0.0063(9)
O4 O2- 0.0170(9) 0.0171(9) 0.0183(8) 0.0065(6) 0.0013(6) -0.0017(7)
O5 O2- 0.0130(8) 0.0137(8) 0.0163(8) -0.0005(6) -0.0005(6) 0.0038(6)
O6 O2- 0.0068(10) 0.0108(10) 0.0195(11) 0.000 -0.0011(8) 0.000
O7 O2- 0.0132(8) 0.0127(8) 0.0187(8) -0.0035(6) -0.0069(6) 0.0040(6)
O8 O2- 0.0178(8) 0.0156(8) 0.0150(8) 0.0030(7) 0.0030(6) -0.0010(6)
#End of data_424282-ICSD


