data_62949-ICSD
#?2014 by Fachinformationszentrum Karlsruhe, and the U.S. Secretary of 
#Commerce on behalf of the United States.  All rights reserved.
_database_code_ICSD                62949
_audit_creation_date               1988/12/19
_audit_update_record               1988/12/30
_chemical_name_systematic
;
Hexasodium Hafnium Pentakis(orthosulfate) Tetrahydrate
;
_chemical_formula_structural       'Na6 Hf (S O4)5 (H2 O)4'
_chemical_formula_sum              'H8 Hf1 Na6 O24 S5'
_publ_section_title
;
Structure and composition of sodium hafnium sulfate tetrahydrate Na6 
Hf (S O4)5 * 4 H2 O.
;
loop_
_citation_id
_citation_journal_abbrev
_citation_year
_citation_journal_volume
_citation_page_first
_citation_page_last
_citation_journal_id_ASTM
primary 'Zhurnal Strukturnoi Khimii (Issue-No. from 1981)'
 1987 28 182 184 ZSTKAI
_publ_author_name
;
Kuznetsov, V.Ya.;Dikareva, L.M.;Rogachev, D.L.
;
_cell_length_a                     8.523(3)
_cell_length_b                     11.132(3)
_cell_length_c                     10.609(4)
_cell_angle_alpha                  90.
_cell_angle_beta                   98.36(3)
_cell_angle_gamma                  90.
_cell_volume                       995.87
_cell_formula_units_Z              2
_symmetry_space_group_name_H-M     'P 1 21 1'
_symmetry_Int_Tables_number        4
_refine_ls_R_factor_all            .029
loop_
_symmetry_equiv_pos_site_id
_symmetry_equiv_pos_as_xyz
  1	'-x, y+.5, -z'
  2	'x, y, z'
loop_
_atom_type_symbol
_atom_type_oxidation_number
H1+	1
Hf4+	4
Na1+	1
O2-	-2
S6+	6
loop_
_atom_site_label
_atom_site_type_symbol
_atom_site_symmetry_multiplicity
_atom_site_Wyckoff_symbol
_atom_site_fract_x
_atom_site_fract_y
_atom_site_fract_z
_atom_site_occupancy
_atom_site_attached_hydrogens
Hf1 Hf4+ 2 a 0.2219 0 0.2747 1. 0 
Na1 Na1+ 2 a 0.058 0.324 0.497 1. 0 
Na2 Na1+ 2 a 0.531 0.692 0.979 1. 0 
Na3 Na1+ 2 a 0.592 0.974 0.535 1. 0 
Na4 Na1+ 2 a 0.189 0.473 0.953 1. 0 
Na5 Na1+ 2 a 0.694 0.327 0.271 1. 0 
Na6 Na1+ 2 a 0.97 0.066 0.775 1. 0 
S1 S6+ 2 a 0.3051 0.7738 0.3837 1. 0 
S2 S6+ 2 a 0.2468 0.3049 0.222 1. 0 
S3 S6+ 2 a 0.2209 0.0616 0.5964 1. 0 
S4 S6+ 2 a 0.8437 0.0769 0.3202 1. 0 
S5 S6+ 2 a 0.2604 0.948 0.0148 1. 0 
O1 O2- 2 a 0.391 0.851 0.304 1. 0 
O2 O2- 2 a 0.15 0.84 0.374 1. 0 
O3 O2- 2 a 0.388 0.768 0.515 1. 0 
O4 O2- 2 a 0.279 0.656 0.327 1. 0 
O5 O2- 2 a 0.183 0.178 0.2 1. 0 
O6 O2- 2 a 0.253 0.338 0.358 1. 0 
O7 O2- 2 a 0.138 0.383 0.14 1. 0 
O8 O2- 2 a 0.408 0.309 0.187 1. 0 
O9 O2- 2 a 0.208 0.074 0.454 1. 0 
O10 O2- 2 a 0.11 0.967 0.627 1. 0 
O11 O2- 2 a 0.384 0.027 0.645 1. 0 
O12 O2- 2 a 0.178 0.179 0.645 1. 0 
O13 O2- 2 a 0.969 0.016 0.255 1. 0 
O14 O2- 2 a 0.803 0.994 0.418 1. 0 
O15 O2- 2 a 0.704 0.093 0.22 1. 0 
O16 O2- 2 a 0.898 0.191 0.367 1. 0 
O17 O2- 2 a 0.126 0.924 0.093 1. 0 
O18 O2- 2 a 0.379 0.006 0.114 1. 0 
O19 O2- 2 a 0.213 0.031 0.911 1. 0 
O20 O2- 2 a 0.315 0.836 0.969 1. 0 
O21 O2- 2 a 0.46 0.083 0.349 1. 0 
O22 O2- 2 a 0.073 0.656 0.028 1. 0 
O23 O2- 2 a 0.409 0.57 0.107 1. 0 
O24 O2- 2 a 0.332 0.313 0.856 1. 0 
H1 H1+ 2 a 0.47 0.61 0.57 1. 0 
H2 H1+ 2 a 0.44 0.58 0.69 1. 0 
H3 H1+ 2 a 0.04 0.18 0.02 1. 0 
H4 H1+ 2 a 0.08 0.74 0.01 1. 0 
H5 H1+ 2 a 0.5 0.53 0.19 1. 0 
H6 H1+ 2 a 0.29 0.57 0.12 1. 0 
H7 H1+ 2 a 0.25 0.31 0.76 1. 0 
H8 H1+ 2 a 0.42 0.26 0.79 1. 0 

#End of data_62949-ICSD


