data_69155-ICSD
#?2014 by Fachinformationszentrum Karlsruhe, and the U.S. Secretary of 
#Commerce on behalf of the United States.  All rights reserved.
_database_code_ICSD                69155
_audit_creation_date               1992/01/20
_chemical_name_systematic
;
Dicesium Potassium Hexacyanoferrate(III)
;
_chemical_formula_structural       'Cs2 K (Fe (C N)6)'
_chemical_formula_sum              'C6 Cs2 Fe1 K1 N6'
_publ_section_title
;
Charge density, covalence, and the ground state of the (Fe(CN)6)(3-) 
ion in Cs2K(Fe(CN)6)
;
loop_
_citation_id
_citation_journal_abbrev
_citation_year
_citation_journal_volume
_citation_page_first
_citation_page_last
_citation_journal_id_ASTM
primary
;
Journal of the Chemical Society. Dalton Transactions, Inorganic 
Chemistry (1972-)
;
 1990 1990 3597 3604 JCDTBI
_publ_author_name
;
Figgis, B.N.;Kucharski, E.S.;Raynes, J.M.;Reynolds, P.A.
;
_cell_length_a                     11.041(4)
_cell_length_b                     8.146(4)
_cell_length_c                     7.596(2)
_cell_angle_alpha                  90.
_cell_angle_beta                   90.49
_cell_angle_gamma                  90.
_cell_volume                       683.16
_cell_formula_units_Z              2
_symmetry_space_group_name_H-M     'P 1 21/n 1'
_symmetry_Int_Tables_number        14
_refine_ls_R_factor_all            .03
loop_
_symmetry_equiv_pos_site_id
_symmetry_equiv_pos_as_xyz
  1	'-x+.5, y+.5, -z+.5'
  2	'-x, -y, -z'
  3	'x+.5, -y+.5, z+.5'
  4	'x, y, z'
loop_
_atom_type_symbol
_atom_type_oxidation_number
C2+	2
Cs1+	1
Fe3+	3
K1+	1
N3-	-3
loop_
_atom_site_label
_atom_site_type_symbol
_atom_site_symmetry_multiplicity
_atom_site_Wyckoff_symbol
_atom_site_fract_x
_atom_site_fract_y
_atom_site_fract_z
_atom_site_occupancy
_atom_site_attached_hydrogens
Cs1 Cs1+ 4 e 0.25251(1) 0.42575(1) 0.97545(1) 1. 0 
K1 K1+ 2 d 0 0.5 0.5 1. 0 
Fe1 Fe3+ 2 a 0 0 0 1. 0 
C1 C2+ 4 e 0.03283(9) 0.12720(13) 0.79133(16) 1. 0 
C2 C2+ 4 e 0.04167(9) 0.80053(15) 0.87621(14) 1. 0 
C3 C2+ 4 e 0.16668(11) 0.02350(12) 0.07495(13) 1. 0 
N1 N3- 4 e 0.05462(10) 0.20243(14) 0.66520(18) 1. 0 
N2 N3- 4 e 0.06832(10) 0.68132(15) 0.80050(14) 1. 0 
N3 N3- 4 e 0.26642(12) 0.04172(13) 0.12209(15) 1. 0 

loop_
_atom_site_aniso_label
_atom_site_aniso_type_symbol
_atom_site_aniso_U_11
_atom_site_aniso_U_22
_atom_site_aniso_U_33
_atom_site_aniso_U_12
_atom_site_aniso_U_13
_atom_site_aniso_U_23
Cs1 Cs1+ 0.0224(1) 0.0179(1) 0.0223(1) -.0003(1) 0.0007(1) 0.0013(1)
K1 K1+ 0.0149(1) 0.0134(1) 0.0155(1) -.0002(1) -.0002(1) 0.0003(1)
Fe1 Fe3+ 0.0110(2) 0.0104(2) 0.0122(2) 0.0005(1) 0.0005(1) 0.0004(1)
C1 C2+ 0.0195(6) 0.0157(6) 0.0170(6) 0.0017(3) 0.0021(3) 0.0025(3)
C2 C2+ 0.0198(6) 0.0147(6) 0.0171(6) 0.0017(3) 0.0002(3) -.0013(3)
C3 C2+ 0.0132(6) 0.0191(6) 0.0207(6) -.0004(3) -.0003(3) 0.0015(3)
N1 N3- 0.0346(8) 0.0236(7) 0.0249(7) 0.0052(4) 0.0066(4) 0.0086(4)
N2 N3- 0.0336(8) 0.0209(7) 0.0243(7) 0.0053(3) -.0022(4) -.0059(4)
N3 N3- 0.0175(7) 0.0293(8) 0.0317(8) -.0013(3) -.0015(3) 0.0029(4)
#End of data_69155-ICSD


