data_60311-ICSD
#?2014 by Fachinformationszentrum Karlsruhe, and the U.S. Secretary of 
#Commerce on behalf of the United States.  All rights reserved.
_database_code_ICSD                60311
_audit_creation_date               1986/04/15
_audit_update_record               2012/02/01
_chemical_name_systematic          'Sodium Carbonate - Gamma'
_chemical_formula_structural       'Na2 (C O3)'
_chemical_formula_sum              'C1 Na2 O3'
_chemical_name_mineral             Natrite
_publ_section_title
;
The modulated structure of gamma Na2 C O3 in a harmonic approximation
;
loop_
_citation_id
_citation_journal_abbrev
_citation_year
_citation_journal_volume
_citation_page_first
_citation_page_last
_citation_journal_id_ASTM
primary 'Acta Crystallographica B (24,1968-38,1982)' 1976 32 47 58 ACBCAR
2 'Acta Crystallographica B (24,1968-38,1982)' 1969 25 2665 2667 ACBCAR
3 'Golden Book of Phase Transitions, Wroclaw' 2002 1 1 123 GBOPT5
_publ_author_name
;
van Aalst, W.;den Hollander, J.;Peterse, W.J.A.M.;de Wolff, P.M.
;
_cell_length_a                     8.904(3)
_cell_length_b                     5.239(2)
_cell_length_c                     6.042(2)
_cell_angle_alpha                  90.
_cell_angle_beta                   101.35(2)
_cell_angle_gamma                  90.
_cell_volume                       276.34
_cell_formula_units_Z              4
_symmetry_space_group_name_H-M     'C 1 2/m 1'
_symmetry_Int_Tables_number        12
_refine_ls_R_factor_all            .108
loop_
_symmetry_equiv_pos_site_id
_symmetry_equiv_pos_as_xyz
  1	'-x, y, -z'
  2	'-x, -y, -z'
  3	'x, -y, z'
  4	'x, y, z'
  5	'-x+.5, y+.5, -z'
  6	'-x+.5, -y+.5, -z'
  7	'x+.5, -y+.5, z'
  8	'x+.5, y+.5, z'
loop_
_atom_type_symbol
_atom_type_oxidation_number
C4+	4
Na1+	1
O2-	-2
loop_
_atom_site_label
_atom_site_type_symbol
_atom_site_symmetry_multiplicity
_atom_site_Wyckoff_symbol
_atom_site_fract_x
_atom_site_fract_y
_atom_site_fract_z
_atom_site_occupancy
_atom_site_attached_hydrogens
Na1 Na1+ 2 a 0 0 0 1. 0 
Na2 Na1+ 2 c 0 0 0.5 1. 0 
Na3 Na1+ 4 i 0.1760(1) 0.5 0.7478(2) 1. 0 
C1 C4+ 4 i 0.1641(2) 0.5 0.2496(3) 1. 0 
O1 O2- 4 i 0.2897(2) 0.5 0.1771(3) 1. 0 
O2 O2- 8 j 0.1016(2) 0.2940(3) 0.2855(2) 1. 0 

#End of data_60311-ICSD


