data_31994-ICSD
#?2014 by Fachinformationszentrum Karlsruhe, and the U.S. Secretary of 
#Commerce on behalf of the United States.  All rights reserved.
_database_code_ICSD                31994
_audit_creation_date               1982/12/31
_chemical_name_systematic          'Potassium Triniobium Oxide'
_chemical_formula_structural       'K Nb3 O8'
_chemical_formula_sum              'K1 Nb3 O8'
_publ_section_title
;
Structure du Triniobate(V) de Potassium K Nb3 O8, un Niobate 
Lamellaire
;
loop_
_citation_id
_citation_journal_abbrev
_citation_year
_citation_journal_volume
_citation_page_first
_citation_page_last
_citation_journal_id_ASTM
primary 'Acta Crystallographica B (24,1968-38,1982)' 1982 38 2024 2026 ACBCAR
_publ_author_name                  'Gasperin, M.'
_cell_length_a                     8.903(3)
_cell_length_b                     21.16(2)
_cell_length_c                     3.799(2)
_cell_angle_alpha                  90.
_cell_angle_beta                   90.
_cell_angle_gamma                  90.
_cell_volume                       715.68
_cell_formula_units_Z              4
_symmetry_space_group_name_H-M     'A m a m'
_symmetry_Int_Tables_number        63
_refine_ls_R_factor_all            .055
loop_
_symmetry_equiv_pos_site_id
_symmetry_equiv_pos_as_xyz
  1	'-x+.5, y, -z'
  2	'x+.5, -y, -z'
  3	'x, y, -z'
  4	'-x, -y, -z'
  5	'x+.5, -y, z'
  6	'-x+.5, y, z'
  7	'-x, -y, z'
  8	'x, y, z'
  9	'-x+.5, y+.5, -z+.5'
 10	'x+.5, -y+.5, -z+.5'
 11	'x, y+.5, -z+.5'
 12	'-x, -y+.5, -z+.5'
 13	'x+.5, -y+.5, z+.5'
 14	'-x+.5, y+.5, z+.5'
 15	'-x, -y+.5, z+.5'
 16	'x, y+.5, z+.5'
loop_
_atom_type_symbol
_atom_type_oxidation_number
K1+	1
Nb5+	5
O2-	-2
loop_
_atom_site_label
_atom_site_type_symbol
_atom_site_symmetry_multiplicity
_atom_site_Wyckoff_symbol
_atom_site_fract_x
_atom_site_fract_y
_atom_site_fract_z
_atom_site_occupancy
_atom_site_attached_hydrogens
Nb1 Nb5+ 8 f 0.9403(1) 0.3682(1) 0 1. 0 
Nb2 Nb5+ 4 c 0.25 0.2416(1) 0 1. 0 
K1 K1+ 4 c 0.25 0.9845(1) 0 1. 0 
O1 O2- 8 f 0.4080(4) 0.1565(2) 0 1. 0 
O2 O2- 8 f 0.0654(4) 0.4311(2) 0 1. 0 
O3 O2- 8 f 0.0951(4) 0.2954(2) 0 1. 0 
O4 O2- 4 c 0.25 0.7134(2) 0 1. 0 
O5 O2- 4 c 0.25 0.5851(2) 0 1. 0 

#End of data_31994-ICSD


