data_71957-ICSD
#?2014 by Fachinformationszentrum Karlsruhe, and the U.S. Secretary of 
#Commerce on behalf of the United States.  All rights reserved.
_database_code_ICSD                71957
_audit_creation_date               1993/08/22
_chemical_name_systematic
;
Pentacalcium Chromate Bis(chromate(IV))
;
_chemical_formula_structural       'Ca5 (Cr O4) (Cr O4)2'
_chemical_formula_sum              'Ca5 Cr3 O12'
_publ_section_title
;
Crystal structures of Ca5Cr3O12 and Ca5Cr2SiO12, the chromium 
analogues of silicocarnotite
;
loop_
_citation_id
_citation_journal_abbrev
_citation_year
_citation_journal_volume
_citation_journal_issue
_citation_page_first
_citation_page_last
_citation_journal_id_ASTM
primary 'Journal of the American Ceramic Society' 1992 75 6 1416 1422 JACTAW
_publ_author_name
;
Adendorff, K.T.;de Villiers, P.R.;Kruger, G.J.
;
_cell_length_a                     6.733(2)
_cell_length_b                     16.097(3)
_cell_length_c                     10.334(2)
_cell_angle_alpha                  90.
_cell_angle_beta                   90.
_cell_angle_gamma                  90.
_cell_volume                       1120.01
_cell_formula_units_Z              4
_symmetry_space_group_name_H-M     'P n m a'
_symmetry_Int_Tables_number        62
_refine_ls_R_factor_all            .035
loop_
_symmetry_equiv_pos_site_id
_symmetry_equiv_pos_as_xyz
  1	'x+.5, y, -z+.5'
  2	'x, -y+.5, z'
  3	'-x+.5, y+.5, z+.5'
  4	'-x, -y, -z'
  5	'-x+.5, -y, z+.5'
  6	'-x, y+.5, -z'
  7	'x+.5, -y+.5, -z+.5'
  8	'x, y, z'
loop_
_atom_type_symbol
_atom_type_oxidation_number
Ca2+	2
Cr4+	4
Cr6+	6
O2-	-2
loop_
_atom_site_label
_atom_site_type_symbol
_atom_site_symmetry_multiplicity
_atom_site_Wyckoff_symbol
_atom_site_fract_x
_atom_site_fract_y
_atom_site_fract_z
_atom_site_occupancy
_atom_site_attached_hydrogens
Cr1 Cr4+ 8 d 0.86063(8) 0.57137(3) 0.62907(5) 1. 0 
Cr2 Cr6+ 4 c 0.02455(12) 0.75 0.07729(8) 1. 0 
Ca1 Ca2+ 4 c 0.53855(17) 0.75 0.82547(13) 1. 0 
Ca2 Ca2+ 8 d 0.12483(10) 0.40778(4) 0.06725(7) 1. 0 
Ca3 Ca2+ 8 d 0.17939(11) 0.39318(5) 0.66684(7) 1. 0 
O1 O2- 4 c 0.2741(6) 0.75 0.0839(4) 1. 0 
O2 O2- 4 c -.0755(8) 0.75 -.0709(5) 1. 0 
O3 O2- 8 d 0.6874(3) 0.5339(1) 0.5142(2) 1. 0 
O4 O2- 8 d 0.7710(4) 0.6511(1) 0.7258(2) 1. 0 
O5 O2- 8 d 0.0398(4) 0.6195(2) 0.5343(2) 1. 0 
O6 O2- 8 d -.0733(4) 0.4920(1) 0.7320(2) 1. 0 
O7 O2- 8 d -.0443(4) 0.8422(2) 0.1450(2) 1. 0 

loop_
_atom_site_aniso_label
_atom_site_aniso_type_symbol
_atom_site_aniso_U_11
_atom_site_aniso_U_22
_atom_site_aniso_U_33
_atom_site_aniso_U_12
_atom_site_aniso_U_13
_atom_site_aniso_U_23
Cr1 Cr4+ 0.0086(2) 0.0089(3) 0.0076(2) -.0001(2) -.0010(2) 0.0005(2)
Cr2 Cr6+ 0.0166(4) 0.0079(4) 0.0111(4) 0 -.0015(3) 0
Ca1 Ca2+ 0.0184(5) 0.0109(5) 0.0370(7) 0 -.0083(5) 0
Ca2 Ca2+ 0.0115(3) 0.0123(3) 0.0143(3) 0.0006(3) -.0033(3) 0.0001(3)
Ca3 Ca2+ 0.0172(3) 0.0145(4) 0.0119(3) 0.0029(3) 0.0048(3) 0.0021(3)
O1 O2- 0.0223(20) 0.0117(17) 0.0275(21) 0 -.0033(17) 0
O2 O2- 0.0249(20) 0.0105(17) 0.0115(17) 0 -.0032(15) 0
O3 O2- 0.0108(10) 0.0115(12) 0.0108(11) -.0006(9) -.0008(9) -.0007(10)
O4 O2- 0.0176(12) 0.0112(11) 0.0117(11) -.0013(10) 0.0032(10) 0.0018(10)
O5 O2- 0.0108(11) 0.0194(13) 0.0126(12) 0.0021(10) 0.0021(9) -.0019(10)
O6 O2- 0.0165(12) 0.0133(12) 0.0139(12) 0.0024(10) 0.0001(10) 0.0026(10)
O7 O2- 0.0276(14) 0.0116(12) 0.0128(12) -.0014(10) 0.0036(11) 0.0004(11)
#End of data_71957-ICSD


