data_79880-ICSD
#?2014 by Fachinformationszentrum Karlsruhe, and the U.S. Secretary of 
#Commerce on behalf of the United States.  All rights reserved.
_database_code_ICSD                79880
_audit_creation_date               1996/10/14
_chemical_name_systematic
;
Silver(II) Fluoride Hexafluoroiridate(V)
;
_chemical_formula_structural       'Ag F (Ir F6)'
_chemical_formula_sum              'Ag1 F7 Ir1'
_publ_section_title
;
Preparation and structural and magnetic properties of (Ag F)(+) (M 
F6)(-) (M=Ir,Ru,Sb,Bi) and Ag(2+) ((Bi F6)(-))2
;
loop_
_citation_id
_citation_journal_abbrev
_citation_year
_citation_journal_volume
_citation_page_first
_citation_page_last
_citation_journal_id_ASTM
primary 'Inorganic Chemistry' 1995 34 2692 2698 INOCAJ
_publ_author_name
;
Lucier, G.;Muenzenberg, J.;Casteel, W.J.jr.;Bartlett, N.
;
_cell_length_a                     7.628(2)
_cell_length_b                     7.067(2)
_cell_length_c                     10.253(4)
_cell_angle_alpha                  90.
_cell_angle_beta                   90.
_cell_angle_gamma                  90.
_cell_volume                       552.71
_cell_formula_units_Z              4
_symmetry_space_group_name_H-M     'P n m a'
_symmetry_Int_Tables_number        62
_refine_ls_R_factor_all            .026
loop_
_symmetry_equiv_pos_site_id
_symmetry_equiv_pos_as_xyz
  1	'x+.5, y, -z+.5'
  2	'x, -y+.5, z'
  3	'-x+.5, y+.5, z+.5'
  4	'-x, -y, -z'
  5	'-x+.5, -y, z+.5'
  6	'-x, y+.5, -z'
  7	'x+.5, -y+.5, -z+.5'
  8	'x, y, z'
loop_
_atom_type_symbol
_atom_type_oxidation_number
Ag2+	2
F1-	-1
Ir5+	5
loop_
_atom_site_label
_atom_site_type_symbol
_atom_site_symmetry_multiplicity
_atom_site_Wyckoff_symbol
_atom_site_fract_x
_atom_site_fract_y
_atom_site_fract_z
_atom_site_occupancy
_atom_site_attached_hydrogens
_atom_site_B_iso_or_equiv
Ag1 Ag2+ 4 c 0.1368(1) 0.25 0.2431(1) 1. 0 1.26(2) 
Ir1 Ir5+ 4 c 0.29858(8) 0.25 0.55958(1) 1. 0 1.49(1) 
F1 F1- 4 c 0.387(1) 0.25 0.1931(9) 1. 0 2.5(2) 
F2 F1- 4 c 0.523(1) 0.25 0.4821(9) 1. 0 3.0(2) 
F3 F1- 4 c 0.082(1) 0.25 0.632(1) 1. 0 4.2(3) 
F4 F1- 8 d 0.2256(9) 0.433(1) 0.4364(6) 1. 0 2.9(1) 
F5 F1- 8 d 0.3766(9) 0.063(1) 0.6776(6) 1. 0 3.0(1) 

#End of data_79880-ICSD


