data_419367-ICSD
#?2014 by Fachinformationszentrum Karlsruhe, and the U.S. Secretary of 
#Commerce on behalf of the United States.  All rights reserved.
_database_code_ICSD                419367
_audit_creation_date               2009/08/01
_chemical_name_systematic
;
Tristrontium Sodium Hexaoxo Bismuthate(V)
;
_chemical_formula_structural       'Sr3 Na Bi O6'
_chemical_formula_sum              'Bi1 Na1 O6 Sr3'
_publ_section_title
;
Crystal growth of bismuth(V) oxides from hydroxide fluxes
;
loop_
_citation_id
_citation_journal_abbrev
_citation_year
_citation_journal_volume
_citation_journal_issue
_citation_page_first
_citation_page_last
_citation_journal_id_ASTM
primary 'Solid State Sciences' 2009 11 2 294 298 SSSCFJ
_publ_author_name
;
Bharathy, M.;Khalsa, H.S.;Smith, M.D.;zur Loye, H.C.
;
_cell_length_a                     9.9193(2)
_cell_length_b                     9.9193(2)
_cell_length_c                     11.7473(5)
_cell_angle_alpha                  90.00
_cell_angle_beta                   90.00
_cell_angle_gamma                  120.00
_cell_volume                       1000.99
_cell_formula_units_Z              6
_symmetry_space_group_name_H-M     'R -3 c H'
_symmetry_Int_Tables_number        167
_refine_ls_R_factor_all            .0207
loop_
_symmetry_equiv_pos_site_id
_symmetry_equiv_pos_as_xyz
  1	'x-y, -y, -z+.5'
  2	'-x, -x+y, -z+.5'
  3	'y, x, -z+.5'
  4	'x-y, x, -z'
  5	'y, -x+y, -z'
  6	'-x, -y, -z'
  7	'-x+y, y, z+.5'
  8	'x, x-y, z+.5'
  9	'-y, -x, z+.5'
 10	'-x+y, -x, z'
 11	'-y, x-y, z'
 12	'x, y, z'
 13	'x-y+.6666, -y+.3333, -z+.8333'
 14	'x-y+.3333, -y+.6666, -z+.1666'
 15	'-x+.6666, -x+y+.3333, -z+.8333'
 16	'-x+.3333, -x+y+.6666, -z+.1666'
 17	'y+.6666, x+.3333, -z+.8333'
 18	'y+.3333, x+.6666, -z+.1666'
 19	'x-y+.6666, x+.3333, -z+.3333'
 20	'x-y+.3333, x+.6666, -z+.6666'
 21	'y+.6666, -x+y+.3333, -z+.3333'
 22	'y+.3333, -x+y+.6666, -z+.6666'
 23	'-x+.6666, -y+.3333, -z+.3333'
 24	'-x+.3333, -y+.6666, -z+.6666'
 25	'-x+y+.6666, y+.3333, z+.8333'
 26	'-x+y+.3333, y+.6666, z+.1666'
 27	'x+.6666, x-y+.3333, z+.8333'
 28	'x+.3333, x-y+.6666, z+.1666'
 29	'-y+.6666, -x+.3333, z+.8333'
 30	'-y+.3333, -x+.6666, z+.1666'
 31	'-x+y+.6666, -x+.3333, z+.3333'
 32	'-x+y+.3333, -x+.6666, z+.6666'
 33	'-y+.6666, x-y+.3333, z+.3333'
 34	'-y+.3333, x-y+.6666, z+.6666'
 35	'x+.6666, y+.3333, z+.3333'
 36	'x+.3333, y+.6666, z+.6666'
loop_
_atom_type_symbol
_atom_type_oxidation_number
Bi5+	5
Na1+	1
O2-	-2
Sr2+	2
loop_
_atom_site_label
_atom_site_type_symbol
_atom_site_symmetry_multiplicity
_atom_site_Wyckoff_symbol
_atom_site_fract_x
_atom_site_fract_y
_atom_site_fract_z
_atom_site_occupancy
_atom_site_attached_hydrogens
_atom_site_U_iso_or_equiv
Bi1 Bi5+ 6 b 0.0000 0.0000 0.0000 1 0 0.00829(7) 
Sr1 Sr2+ 18 e 0.35136(4) 0.0000 0.2500 1 0 0.01106(9) 
Na1 Na1+ 6 a 0.0000 0.0000 0.2500 1 0 0.0166(6) 
O1 O2- 36 f 0.1863(3) 0.0285(3) 0.10219(19) 1 0 0.0143(3) 

loop_
_atom_site_aniso_label
_atom_site_aniso_type_symbol
_atom_site_aniso_U_11
_atom_site_aniso_U_22
_atom_site_aniso_U_33
_atom_site_aniso_U_12
_atom_site_aniso_U_13
_atom_site_aniso_U_23
Bi1 Bi5+ 0.00705(8) 0.00705(8) 0.01076(10) 0.00353(4) 0.000 0.000
Sr1 Sr2+ 0.01034(11) 0.00968(14) 0.01293(15) 0.00484(7) -0.00041(5) 
-0.00081(9)
Na1 Na1+ 0.0193(10) 0.0193(10) 0.0111(12) 0.0097(5) 0.000 0.000
O1 O2- 0.0119(8) 0.0163(9) 0.0160(9) 0.0081(7) -0.0028(6) -0.0005(7)
#End of data_419367-ICSD


