data_34881-ICSD
#?2014 by Fachinformationszentrum Karlsruhe, and the U.S. Secretary of 
#Commerce on behalf of the United States.  All rights reserved.
_database_code_ICSD                34881
_audit_creation_date               1981/12/31
_audit_update_record               2010/08/01
_chemical_name_systematic
;
Sodium Tetracalcium Phyllo-octasilicate Fluoride Octahydrate
;
_chemical_formula_structural       'Na Ca4 (Si8 O20) F (H2 O)8'
_chemical_formula_sum              'H16 Ca4 F1 Na1 O28 Si8'
_chemical_name_mineral             Apophyllite-(NaF)
_publ_section_title
;
Natroapophyllite II. Crystal structure
;
loop_
_citation_id
_citation_journal_abbrev
_citation_year
_citation_journal_volume
_citation_page_first
_citation_page_last
_citation_journal_id_ASTM
primary 'American Mineralogist' 1981 66 416 423 AMMIAY
2 'American Mineralogist' 1981 66 410 415 AMMIAY
_publ_author_name
;
Miura, Y.;Kato, T.;Rucklidge, J.C.;Matsueda, H.
;
_cell_length_a                     8.875(4)
_cell_length_b                     8.881(6)
_cell_length_c                     15.79(1)
_cell_angle_alpha                  90.
_cell_angle_beta                   90.
_cell_angle_gamma                  90.
_cell_volume                       1244.55
_cell_formula_units_Z              2
_symmetry_space_group_name_H-M     'P n n m'
_symmetry_Int_Tables_number        58
_refine_ls_R_factor_all            .056
loop_
_symmetry_equiv_pos_site_id
_symmetry_equiv_pos_as_xyz
  1	'x+.5, -y+.5, z+.5'
  2	'-x+.5, y+.5, z+.5'
  3	'x, y, -z'
  4	'-x, -y, -z'
  5	'-x+.5, y+.5, -z+.5'
  6	'x+.5, -y+.5, -z+.5'
  7	'-x, -y, z'
  8	'x, y, z'
loop_
_atom_type_symbol
_atom_type_oxidation_number
Ca2+	2
F1-	-1
H1+	1
Na1+	1
O2-	-2
Si4+	4
loop_
_atom_site_label
_atom_site_type_symbol
_atom_site_symmetry_multiplicity
_atom_site_Wyckoff_symbol
_atom_site_fract_x
_atom_site_fract_y
_atom_site_fract_z
_atom_site_occupancy
_atom_site_attached_hydrogens
_atom_site_B_iso_or_equiv
Si1 Si4+ 8 h 0.2289(3) 0.0833(3) 0.1890(3) 1. 0 1.12(6) 
Si2 Si4+ 8 h 0.4161(3) 0.2708(3) 0.3108(3) 1. 0 1.13(5) 
Ca1 Ca2+ 4 g 0.1143(3) 0.2465(3) 0 1. 0 1.20(6) 
Ca2 Ca2+ 4 g 0.7537(3) 0.1148(3) 0 1. 0 1.25(6) 
Na1 Na1+ 2 b 0 0 0.5 1. 0 2.84(20) 
F1 F1- 2 a 0 0 0 1. 0 1.87(24) 
O1 O2- 8 h 0.3671(7) 0.1322(8) 0.2513(6) 1. 0 1.36(13) 
O2 O2- 8 h 0.0882(7) 0.1902(8) 0.2162(6) 1. 0 1.63(15) 
O3 O2- 8 h 0.3099(8) 0.4123(8) 0.2839(5) 1. 0 1.59(14) 
O4 O2- 8 h 0.2696(8) 0.0987(8) 0.0921(6) 1. 0 1.75(15) 
O5 O2- 8 h 0.4016(8) 0.2305(8) 0.4079(6) 1. 0 1.66(14) 
O6 O2- 8 h 0.2286(9) 0.4505(9) 0.0887(6) 1. 0 2.45(18) 
O7 O2- 8 h 0.5502(9) 0.2253(11) 0.0890(7) 1. 0 2.7(1) 
H1 H1+ 8 h 0.47(1) 0.17(1) 0.05(1) 1. 0 1.6(1) 
H2 H1+ 8 h 0.17(1) 0.54(1) 0.08(1) 1. 0 1.4(1) 
H3 H1+ 8 h 0.16(1) 0.43(1) 0.14(1) 1. 0 0.8(1) 
H4 H1+ 8 h 0.56(2) 0.31(2) 0.14(1) 1. 0 3.2(1) 

#End of data_34881-ICSD


