data_151457-ICSD
#?2014 by Fachinformationszentrum Karlsruhe, and the U.S. Secretary of 
#Commerce on behalf of the United States.  All rights reserved.
_database_code_ICSD                151457
_audit_creation_date               2006/10/01
_chemical_name_systematic          'Aluminium Vanadium Oxide (1/2/4)'
_chemical_formula_structural       'Al V2 O4'
_chemical_formula_sum              'Al1 O4 V2'
_publ_section_title
;
Charge ordering in the geometrically frustrated spinel Al V2 O4
;
loop_
_citation_id
_citation_journal_abbrev
_citation_year
_citation_journal_volume
_citation_journal_issue
_citation_page_first
_citation_page_last
_citation_journal_id_ASTM
primary 'Journal of the Physical Society of Japan' 2001 70 6 1456 1459 JUPSAU
2 'Zeitschrift fuer Anorganische und Allgemeine Chemie (1950) (DE)'
 1983 500- 188 198 ZAACAB
_publ_author_name
;
Matsuno, K.;Katsufuji, T.;Mori, S.;Moritomo, Y.;Machida, 
A.;Nishibori, E.;Takata, M.;Sakata, M.;Yamamoto, N.;Takagi, H.
;
_cell_length_a                     5.8438(7)
_cell_length_b                     5.8438(7)
_cell_length_c                     5.8438(7)
_cell_angle_alpha                  58.975(6)
_cell_angle_beta                   58.975(6)
_cell_angle_gamma                  58.975(6)
_cell_volume                       137.81
_cell_formula_units_Z              2
_symmetry_space_group_name_H-M     'R -3 m R'
_symmetry_Int_Tables_number        166
_refine_ls_R_factor_all            .011
loop_
_symmetry_equiv_pos_site_id
_symmetry_equiv_pos_as_xyz
  1	'-z, -y, -x'
  2	'-z, -x, -y'
  3	'-x, -z, -y'
  4	'-y, -z, -x'
  5	'-y, -x, -z'
  6	'-x, -y, -z'
  7	'z, y, x'
  8	'z, x, y'
  9	'x, z, y'
 10	'y, z, x'
 11	'y, x, z'
 12	'x, y, z'
loop_
_atom_type_symbol
_atom_type_oxidation_number
Al3+	3
O2-	-2
V2.39+	2.39
V2.83+	2.83
loop_
_atom_site_label
_atom_site_type_symbol
_atom_site_symmetry_multiplicity
_atom_site_Wyckoff_symbol
_atom_site_fract_x
_atom_site_fract_y
_atom_site_fract_z
_atom_site_occupancy
_atom_site_attached_hydrogens
_atom_site_B_iso_or_equiv
Al1 Al3+ 2 c 0.3725(5) 0.3725(5) 0.3725(5) 1. 0 0.6(1) 
V1 V2.39+ 3 d 0.5 0 0 1. 0 0.31(8) 
V2 V2.83+ 1 a 0 0 0 1. 0 0.31(8) 
O1 O2- 6 h 0.245(1) 0.7553(8) 0.7553(8) 1. 0 0.2(1) 
O2 O2- 2 c 0.7485(6) 0.7485(6) 0.7485(6) 1. 0 0.2(1) 

#End of data_151457-ICSD


