data_14240-ICSD
#?2014 by Fachinformationszentrum Karlsruhe, and the U.S. Secretary of 
#Commerce on behalf of the United States.  All rights reserved.
_database_code_ICSD                14240
_audit_creation_date               1980/01/01
_audit_update_record               2007/08/01
_chemical_name_systematic          'Trizinc Bis(borate)'
_chemical_formula_structural       'Zn3 (B O3)2'
_chemical_formula_sum              'B2 O6 Zn3'
_publ_section_title
;
The space group and crystal structure of trizinc diorthoborate
;
loop_
_citation_id
_citation_journal_abbrev
_citation_year
_citation_journal_volume
_citation_page_first
_citation_page_last
_citation_journal_id_ASTM
primary
;
Zeitschrift fuer Kristallographie, Kristallgeometrie, Kristallphysik, 
Kristallchemie (-144,1977)
;
 1970 131 213 221 ZEKGAX
2 'Powder Diffraction' 1986 1 265 275 PODIE2
_publ_author_name                  'Baur, W.H.;Tillmanns, E.'
_cell_length_a                     23.40599
_cell_length_b                     5.048
_cell_length_c                     8.381
_cell_angle_alpha                  90.
_cell_angle_beta                   97.53
_cell_angle_gamma                  90.
_cell_volume                       981.7
_cell_formula_units_Z              8
_symmetry_space_group_name_H-M     'I 1 2/c 1'
_symmetry_Int_Tables_number        15
_refine_ls_R_factor_all            .133
loop_
_symmetry_equiv_pos_site_id
_symmetry_equiv_pos_as_xyz
  1	'-x, y, -z+.5'
  2	'-x, -y, -z'
  3	'x, -y, z+.5'
  4	'x, y, z'
  5	'-x+.5, y+.5, -z'
  6	'-x+.5, -y+.5, -z+.5'
  7	'x+.5, -y+.5, z'
  8	'x+.5, y+.5, z+.5'
loop_
_atom_type_symbol
_atom_type_oxidation_number
B3+	3
O2-	-2
Zn2+	2
loop_
_atom_site_label
_atom_site_type_symbol
_atom_site_symmetry_multiplicity
_atom_site_Wyckoff_symbol
_atom_site_fract_x
_atom_site_fract_y
_atom_site_fract_z
_atom_site_occupancy
_atom_site_attached_hydrogens
_atom_site_B_iso_or_equiv
Zn1 Zn2+ 8 f 0.0495(1) 0.8291(4) 0.3746(2) 1. 0 0.61 
Zn2 Zn2+ 8 f 0.1275(1) 0.6841(4) 0.7488(2) 1. 0 0.53 
Zn3 Zn2+ 8 f 0.2095(1) 0.6921(4) 0.4992(3) 1. 0 0.6 
B1 B3+ 8 f 0.0660(7) 0.3213(31) 0.5320(18) 1. 0 -.3 
B2 B3+ 8 f 0.1870(7) 0.1835(33) 0.6683(19) 1. 0 -.2 
O1 O2- 8 f 0.0363(5) 0.2018(24) 0.6362(13) 1. 0 0.2 
O2 O2- 8 f 0.0820(4) 0.5885(23) 0.5408(13) 1. 0 0.1 
O3 O2- 8 f 0.0798(5) 0.1874(24) 0.4001(15) 1. 0 0.7 
O4 O2- 8 f 0.1843(4) 0.9117(25) 0.6632(12) 1. 0 0 
O5 O2- 8 f 0.2149(5) 0.3132(21) 0.5537(13) 1. 0 0.2 
O6 O2- 8 f 0.1633(5) 0.6783(21) 0.2847(14) 1. 0 0.4 

#End of data_14240-ICSD


