data_72386-ICSD
#?2014 by Fachinformationszentrum Karlsruhe, and the U.S. Secretary of 
#Commerce on behalf of the United States.  All rights reserved.
_database_code_ICSD                72386
_audit_creation_date               1994/01/19
_chemical_name_systematic
;
Potassium Octaselenidostannate(II)tristannate
;
_chemical_formula_structural       'K2 (Sn Sn3 Se8)'
_chemical_formula_sum              'K2 Se8 Sn4'
_publ_section_title
;
K2Sn4Se8 - ein gemischtvalentes Selenostannat
;
loop_
_citation_id
_citation_journal_abbrev
_citation_year
_citation_journal_volume
_citation_page_first
_citation_page_last
_citation_journal_id_ASTM
primary 'Zeitschrift fuer Naturforschung, B: Chemical Sciences'
 1992 47 406 410 ZNBSEN
_publ_author_name                  'Klepp, K.O.;Fabian, F.'
_cell_length_a                     6.436(3)
_cell_length_b                     18.934(9)
_cell_length_c                     7.417(5)
_cell_angle_alpha                  90.
_cell_angle_beta                   96.26(2)
_cell_angle_gamma                  90.
_cell_volume                       898.44
_cell_formula_units_Z              2
_symmetry_space_group_name_H-M     'C 1 m 1'
_symmetry_Int_Tables_number        8
_refine_ls_R_factor_all            .022
loop_
_symmetry_equiv_pos_site_id
_symmetry_equiv_pos_as_xyz
  1	'x, -y, z'
  2	'x, y, z'
  3	'x+.5, -y+.5, z'
  4	'x+.5, y+.5, z'
loop_
_atom_type_symbol
_atom_type_oxidation_number
K1+	1
Se2-	-2
Sn2+	2
Sn4+	4
loop_
_atom_site_label
_atom_site_type_symbol
_atom_site_symmetry_multiplicity
_atom_site_Wyckoff_symbol
_atom_site_fract_x
_atom_site_fract_y
_atom_site_fract_z
_atom_site_occupancy
_atom_site_attached_hydrogens
K1 K1+ 4 b 0.8171(5) 0.8442(2) 0.9697(5) 1. 0 
Sn1 Sn4+ 2 a 0.4126(2) 0 0.3762(2) 1. 0 
Sn2 Sn2+ 2 a 0.3070(2) 0 0.8673(2) 1. 0 
Sn3 Sn4+ 4 b 0.3275(1) 0.81116(4) 0.5545(1) 1. 0 
Se1 Se2- 2 a 0.6305(3) 0 0.6726(3) 1. 0 
Se2 Se2- 2 a 0.6349(3) 0 0.1239(2) 1. 0 
Se3 Se2- 4 b 0.3077(2) 0.83465(7) 0.8785(2) 1. 0 
Se4 Se2- 4 b 0.1367(2) 0.90316(7) 0.3506(2) 1. 0 
Se5 Se2- 4 b 0.695 0.81042(7) 0.455 1. 0 

loop_
_atom_site_aniso_label
_atom_site_aniso_type_symbol
_atom_site_aniso_U_11
_atom_site_aniso_U_22
_atom_site_aniso_U_33
_atom_site_aniso_U_12
_atom_site_aniso_U_13
_atom_site_aniso_U_23
K1 K1+ 0.026(2) 0.041(2) 0.072(2) 0.002(2) 0.004(2) -.028(2)
Sn1 Sn4+ 0.0207(5) 0.0063(6) 0.0113(5) 0 0.0038(5) 0
Sn2 Sn2+ 0.0196(6) 0.0341(8) 0.0194(6) 0 0.0039(5) 0
Sn3 Sn4+ 0.0155(3) 0.0064(4) 0.0216(4) -.0006(4) 0.0048(3) 0.0011(4)
Se1 Se2- 0.0225(9) 0.020(1) 0.0127(9) 0 0.0020(7) 0
Se2 Se2- 0.0226(8) 0.017(1) 0.0144(9) 0 0.0050(7) 0
Se3 Se2- 0.0235(6) 0.0156(6) 0.0223(6) -.0023(6) 0.0052(5) -.0006(6)
Se4 Se2- 0.0230(6) 0.0140(6) 0.0363(8) -.0059(6) -.0082(6) 0.0087(6)
Se5 Se2- 0.0205(6) 0.0112(6) 0.0494(8) 0.0035(6) 0.0166(5) 0.0112(7)
#End of data_72386-ICSD


