data_16743-ICSD
#?2014 by Fachinformationszentrum Karlsruhe, and the U.S. Secretary of 
#Commerce on behalf of the United States.  All rights reserved.
_database_code_ICSD                16743
_audit_creation_date               1980/01/01
_audit_update_record               2006/04/01
_chemical_name_systematic          'Pentasodium Triphosphate(V) - Ii'
_chemical_formula_structural       'Na5 (P3 O10)'
_chemical_formula_sum              'Na5 O10 P3'
_publ_section_title
;
The crystal structure of sodium triphosphate, Na5 P3 O10,
;
loop_
_citation_id
_citation_journal_abbrev
_citation_year
_citation_journal_volume
_citation_page_first
_citation_page_last
_citation_journal_id_ASTM
primary 'Acta Crystallographica (1,1948-23,1967)' 1958 11 315 319 ACCRA9
2 'Golden Book of Phase Transitions, Wroclaw' 2002 1 1 123 GBOPT5
_publ_author_name                  'Davies, D.R.;Corbridge, D.E.C.'
_cell_length_a                     16.00(5)
_cell_length_b                     5.24(2)
_cell_length_c                     11.25(3)
_cell_angle_alpha                  90.
_cell_angle_beta                   93.5(5)
_cell_angle_gamma                  90.
_cell_volume                       941.44
_cell_formula_units_Z              4
_symmetry_space_group_name_H-M     'C 1 2/c 1'
_symmetry_Int_Tables_number        15
_refine_ls_R_factor_all            .28
loop_
_symmetry_equiv_pos_site_id
_symmetry_equiv_pos_as_xyz
  1	'x, -y, z+.5'
  2	'-x, -y, -z'
  3	'-x, y, -z+.5'
  4	'x, y, z'
  5	'x+.5, -y+.5, z+.5'
  6	'-x+.5, -y+.5, -z'
  7	'-x+.5, y+.5, -z+.5'
  8	'x+.5, y+.5, z'
loop_
_atom_type_symbol
_atom_type_oxidation_number
Na1+	1
O2-	-2
P5+	5
loop_
_atom_site_label
_atom_site_type_symbol
_atom_site_symmetry_multiplicity
_atom_site_Wyckoff_symbol
_atom_site_fract_x
_atom_site_fract_y
_atom_site_fract_z
_atom_site_occupancy
_atom_site_attached_hydrogens
_atom_site_B_iso_or_equiv
P1 P5+ 4 e 0 0.305 0.25 1. 0 3. 
P2 P5+ 8 f 0.146 0.195 0.4 1. 0 3. 
O1 O2- 8 f 0.038 0.456 0.155 1. 0 3. 
O2 O2- 8 f 0.067 0.103 0.306 1. 0 3. 
O3 O2- 8 f 0.15 0.481 0.393 1. 0 3. 
O4 O2- 8 f 0.216 0.053 0.348 1. 0 3. 
O5 O2- 8 f 0.123 0.085 0.517 1. 0 3. 
Na1 Na1+ 4 c 0.25 0.75 0.5 1. 0 3. 
Na2 Na1+ 8 f 0.04 0.756 0.46 1. 0 3. 
Na3 Na1+ 8 f 0.16 0.74 0.208 1. 0 3. 

#End of data_16743-ICSD


