data_416858-ICSD
#?2014 by Fachinformationszentrum Karlsruhe, and the U.S. Secretary of 
#Commerce on behalf of the United States.  All rights reserved.
_database_code_ICSD                416858
_audit_creation_date               2007/08/01
_chemical_name_systematic          'Disilver(I) Monofluorophosphate(V)'
_chemical_formula_structural       'Ag2 (P O3 F)'
_chemical_formula_sum              'Ag2 F1 O3 P1'
_publ_section_title
;
Single-Crystal Growth and Characterization of Disilver(I) 
Monofluorophosphate(V), Ag2 P O3 F: Crystal Structure, Thermal 
Behavior, Vibrational Spectroscopy, and Solid-State (19)F, (31)P, and 
(109)Ag MAS NMR Spectroscopy
;
loop_
_citation_id
_citation_journal_abbrev
_citation_year
_citation_journal_volume
_citation_journal_issue
_citation_page_first
_citation_page_last
_citation_journal_id_ASTM
primary 'Inorganic Chemistry' 2007 46 3 801 808 INOCAJ
_publ_author_name
;
Weil, M.;Puchberger, M.;Fueglein, E.;Baran, E.J.;Vannahme, 
J.;Jakobsen, H.J.;Skibsted, J.
;
_cell_length_a                     9.2456(8)
_cell_length_b                     5.5854(5)
_cell_length_c                     14.7840(13)
_cell_angle_alpha                  90.00
_cell_angle_beta                   90.178(2)
_cell_angle_gamma                  90.00
_cell_volume                       763.45
_cell_formula_units_Z              8
_symmetry_space_group_name_H-M     'C 1 2/c 1'
_symmetry_Int_Tables_number        15
_refine_ls_R_factor_all            .0289
loop_
_symmetry_equiv_pos_site_id
_symmetry_equiv_pos_as_xyz
  1	'x, -y, z+.5'
  2	'-x, -y, -z'
  3	'-x, y, -z+.5'
  4	'x, y, z'
  5	'x+.5, -y+.5, z+.5'
  6	'-x+.5, -y+.5, -z'
  7	'-x+.5, y+.5, -z+.5'
  8	'x+.5, y+.5, z'
loop_
_atom_type_symbol
_atom_type_oxidation_number
Ag1+	1
F1-	-1
O2-	-2
P5+	5
loop_
_atom_site_label
_atom_site_type_symbol
_atom_site_symmetry_multiplicity
_atom_site_Wyckoff_symbol
_atom_site_fract_x
_atom_site_fract_y
_atom_site_fract_z
_atom_site_occupancy
_atom_site_attached_hydrogens
_atom_site_U_iso_or_equiv
Ag1 Ag1+ 8 f 0.34945(4) 0.03649(6) 0.33469(2) 1 0 0.03017(12) 
Ag2 Ag1+ 4 e 0.0000 0.03118(7) 0.2500 1 0 0.02636(13) 
Ag3 Ag1+ 4 a 0.0000 0.0000 0.0000 1 0 0.02925(13) 
P1 P5+ 8 f 0.31271(10) 0.04288(15) 0.11918(6) 1 0 0.01827(18) 
O1 O2- 8 f 0.4265(3) 0.2335(5) 0.13305(17) 1 0 0.0263(5) 
O2 O2- 8 f 0.1606(3) 0.1393(5) 0.10971(18) 1 0 0.0273(5) 
O3 O2- 8 f 0.1755(3) 0.3362(5) 0.31570(18) 1 0 0.0294(6) 
F1 F1- 8 f 0.3483(3) 0.0700(5) 0.52419(16) 1 0 0.0330(5) 

loop_
_atom_site_aniso_label
_atom_site_aniso_type_symbol
_atom_site_aniso_U_11
_atom_site_aniso_U_22
_atom_site_aniso_U_33
_atom_site_aniso_U_12
_atom_site_aniso_U_13
_atom_site_aniso_U_23
Ag1 Ag1+ 0.03462(19) 0.02382(19) 0.03202(19) 0.00035(10) -0.00553(13) 
-0.00031(10)
Ag2 Ag1+ 0.0288(2) 0.0255(2) 0.0248(2) 0.000 -0.00036(15) 0.000
Ag3 Ag1+ 0.0310(2) 0.0271(2) 0.0295(2) -0.00392(15) -0.01193(17) 
0.00164(15)
P1 P5+ 0.0182(4) 0.0168(4) 0.0199(4) -0.0018(3) -0.0014(3) -0.0013(3)
O1 O2- 0.0211(12) 0.0249(13) 0.0330(14) -0.0054(10) -0.0019(10) -0.0044(11)
O2 O2- 0.0199(11) 0.0259(13) 0.0362(14) 0.0026(9) -0.0062(10) -0.0030(11)
O3 O2- 0.0345(15) 0.0234(14) 0.0303(14) 0.0007(10) -0.0070(11) -0.0052(11)
F1 F1- 0.0399(14) 0.0351(13) 0.0240(11) 0.0032(10) 0.0053(10) 0.0101(10)
#End of data_416858-ICSD


