data_280610-ICSD
#?2014 by Fachinformationszentrum Karlsruhe, and the U.S. Secretary of 
#Commerce on behalf of the United States.  All rights reserved.
_database_code_ICSD                280610
_audit_creation_date               2002/04/01
_chemical_name_systematic
;
Dipotassium Dimanganese Tris(tetrafluoroberyllate) - Lt
;
_chemical_formula_structural       'K2 Mn2 (Be F4)3'
_chemical_formula_sum              'Be3 F12 K2 Mn2'
_publ_section_title
;
X-ray diffraction study of the phase transition of K2 Mn2 (Be F4)3. A 
new type of low temperature structure for langbeinites.
;
loop_
_citation_id
_citation_journal_abbrev
_citation_year
_citation_journal_volume
_citation_page_first
_citation_page_last
_citation_journal_id_ASTM
primary 'Acta Crystallographica, Section B: Structural Science'
 2001 57 221 230 ASBSDK
_publ_author_name
;
Guelylah, A.;Madariaga, G.;Petricek, V.;Breczewski, T.;Aroyo, 
M.I.;Bocanegra, E.H.
;
_cell_length_a                     10.0690(8)
_cell_length_b                     20.1360(20)
_cell_length_c                     10.0329(4)
_cell_angle_alpha                  90.
_cell_angle_beta                   90.
_cell_angle_gamma                  90.01(1)
_cell_volume                       2034.16
_cell_formula_units_Z              8
_symmetry_space_group_name_H-M     'P 1 1 21'
_symmetry_Int_Tables_number        4
_refine_ls_R_factor_all            .119
loop_
_symmetry_equiv_pos_site_id
_symmetry_equiv_pos_as_xyz
  1	'-x, -y, z+.5'
  2	'x, y, z'
loop_
_atom_type_symbol
_atom_type_oxidation_number
Be2+	2
F1-	-1
K1+	1
Mn2+	2
loop_
_atom_site_label
_atom_site_type_symbol
_atom_site_symmetry_multiplicity
_atom_site_Wyckoff_symbol
_atom_site_fract_x
_atom_site_fract_y
_atom_site_fract_z
_atom_site_occupancy
_atom_site_attached_hydrogens
Mn1 Mn2+ 2 a 0.3162(2) 0.2978(1) 0.5842 1. 0 
Mn2 Mn2+ 2 a 0.3276(1) 0.78994(9) 0.5771(2) 1. 0 
Mn3 Mn2+ 2 a 0.1549(1) 0.0498(1) 0.9263(3) 1. 0 
Mn4 Mn2+ 2 a 0.1916(1) 0.54087(9) 0.8971(2) 1. 0 
Mn5 Mn2+ 2 a 0.6110(2) 0.41563(8) 0.8372(3) 1. 0 
Mn6 Mn2+ 2 a 0.5856(2) 0.92357(8) 0.8474(3) 1. 0 
Mn7 Mn2+ 2 a -.0998(2) 0.16811(9) 0.6313(3) 1. 0 
Mn8 Mn2+ 2 a -.1009(2) 0.66681(9) 0.6552(3) 1. 0 
K1 K1+ 2 a -.1968(2) 0.0309(1) 0.0648(4) 1. 0 
K2 K1+ 2 a -.1708(2) 0.5233(1) 0.0526(4) 1. 0 
K3 K1+ 2 a 0.6854(32) 0.2824(2) 0.4355(4) 1. 0 
K4 K1+ 2 a 0.6794(37) 0.7788(1) 0.4287(4) 1. 0 
K5 K1+ 2 a 0.0634(3) 0.1497(2) 0.2858(4) 1. 0 
K6 K1+ 2 a 0.0394(3) 0.6562(2) 0.3021(4) 1. 0 
K7 K1+ 2 a 0.4550(3) 0.3962(1) 0.1879(4) 1. 0 
K8 K1+ 2 a 0.4593(2) 0.9001(2) 0.1990(4) 1. 0 
Be1 Be2+ 2 a 0.3824(3) 0.2434(2) 0.2629(4) 1. 0 
F1 F1- 2 a 0.5135(4) 0.2506(3) 0.1841(6) 1. 0 
F2 F1- 2 a 0.3460(5) 0.1702(2) 0.2793(6) 1. 0 
F3 F1- 2 a 0.2776(5) 0.2795(3) 0.1799(6) 1. 0 
F4 F1- 2 a 0.4001(6) 0.2775(3) 0.3988(5) 1. 0 
Be2 Be2+ 2 a 0.3807(3) 0.7399(2) 0.2465(4) 1. 0 
F5 F1- 2 a 0.5182(5) 0.7476(3) 0.1799(6) 1. 0 
F6 F1- 2 a 0.3275(5) 0.6695(2) 0.2264(6) 1. 0 
F7 F1- 2 a 0.2910(5) 0.7905(3) 0.1777(6) 1. 0 
F8 F1- 2 a 0.3953(6) 0.7564(3) 0.3954(5) 1. 0 
Be3 Be2+ 2 a 0.1170(3) 0.4904(2) 0.2304(4) 1. 0 
F9 F1- 2 a -.0260(4) 0.4938(3) 0.2860(6) 1. 0 
F10 F1- 2 a 0.1739(5) 0.4206(2) 0.2473(6) 1. 0 
F11 F1- 2 a 0.1967(5) 0.5406(3) 0.3117(6) 1. 0 
F12 F1- 2 a 0.1131(6) 0.5107(3) 0.0827(5) 1. 0 
Be4 Be2+ 2 a 0.1312(3) 0.9845(2) 0.2326(4) 1. 0 
F13 F1- 2 a 0.0247(5) 0.9675(3) 0.3382(6) 1. 0 
F14 F1- 2 a 0.2035(5) 0.9217(2) 0.1876(6) 1. 0 
F15 F1- 2 a 0.2272(5) 1.0321(3) 0.3018(6) 1. 0 
F16 F1- 2 a 0.0621(6) 1.0190(3) 0.1148(5) 1. 0 
Be5 Be2+ 2 a 0.0074(3) 0.3125(2) 0.4575(4) 1. 0 
F17 F1- 2 a -.0969(5) 0.3677(2) 0.4357(6) 1. 0 
F18 F1- 2 a 0.0400(5) 0.2780(3) 0.3259(5) 1. 0 
F19 F1- 2 a -.0564(5) 0.2637(3) 0.5550(6) 1. 0 
F20 F1- 2 a 0.1319(4) 0.3442(3) 0.5193(6) 1. 0 
Be6 Be2+ 2 a 0.0115(3) 0.8048(2) 0.4520(4) 1. 0 
F21 F1- 2 a -.0977(5) 0.8551(2) 0.4908(6) 1. 0 
F22 F1- 2 a 0.0139(5) 0.7944(3) 0.3012(5) 1. 0 
F23 F1- 2 a -.0250(5) 0.7403(2) 0.5235(6) 1. 0 
F24 F1- 2 a 0.1454(4) 0.8314(3) 0.5028(6) 1. 0 
Be7 Be2+ 2 a 0.4821(3) 0.0653(2) 0.0350(4) 1. 0 
F25 F1- 2 a 0.5426(5) 0.1351(2) 0.0137(6) 1. 0 
F26 F1- 2 a 0.5103(5) 0.0407(3) 0.1761(5) 1. 0 
F27 F1- 2 a 0.5495(5) 0.0207(2) -.0679(6) 1. 0 
F28 F1- 2 a 0.3320(4) 0.0696(3) 0.0082(6) 1. 0 
Be8 Be2+ 2 a 0.4951(3) 0.5514(2) 0.0434(4) 1. 0 
F29 F1- 2 a 0.5974(5) 0.6082(2) 0.0588(6) 1. 0 
F30 F1- 2 a 0.4482(5) 0.5274(3) 0.1799(5) 1. 0 
F31 F1- 2 a 0.5683(5) 0.4960(2) -.0303(5) 1. 0 
F32 F1- 2 a 0.3784(4) 0.5774(3) -.0406(6) 1. 0 
Be9 Be2+ 2 a 0.2156(3) 0.1335(2) 0.6215(4) 1. 0 
F33 F1- 2 a 0.2397(5) 0.1073(3) 0.7642(5) 1. 0 
F34 F1- 2 a 0.0760(4) 0.1154(3) 0.5744(6) 1. 0 
F35 F1- 2 a 0.3203(5) 0.0996(3) 0.5347(6) 1. 0 
F36 F1- 2 a 0.2363(5) 0.2091(2) 0.6223(6) 1. 0 
Be10 Be2+ 2 a 0.2126(3) 0.6382(2) 0.6197(4) 1. 0 
F37 F1- 2 a 0.2752(6) 0.5907(3) 0.7230(5) 1. 0 
F38 F1- 2 a 0.0688(4) 0.6185(3) 0.5916(6) 1. 0 
F39 F1- 2 a 0.2973(5) 0.6311(3) 0.4942(5) 1. 0 
F40 F1- 2 a 0.2214(5) 0.7093(2) 0.6747(6) 1. 0 
Be11 Be2+ 2 a 0.2906(3) 0.3822(2) 0.8752(4) 1. 0 
F41 F1- 2 a 0.2424(5) 0.3308(3) 0.7717(5) 1. 0 
F42 F1- 2 a 0.4364(4) 0.3704(3) 0.9100(6) 1. 0 
F43 F1- 2 a 0.2026(5) 0.3719(3) 0.9976(5) 1. 0 
F44 F1- 2 a 0.2697(5) 0.4520(2) 0.8167(6) 1. 0 
Be12 Be2+ 2 a 0.2698(3) 0.8878(2) 0.8631(4) 1. 0 
F45 F1- 2 a 0.2836(5) 0.8541(3) 0.7254(5) 1. 0 
F46 F1- 2 a 0.4039(4) 0.8900(3) 0.9341(6) 1. 0 
F47 F1- 2 a 0.1713(5) 0.8450(3) 0.9408(5) 1. 0 
F48 F1- 2 a 0.2138(5) 0.9580(2) 0.8418(6) 1. 0 

loop_
_atom_site_aniso_label
_atom_site_aniso_type_symbol
_atom_site_aniso_U_11
_atom_site_aniso_U_22
_atom_site_aniso_U_33
_atom_site_aniso_U_12
_atom_site_aniso_U_13
_atom_site_aniso_U_23
Mn1 Mn2+ 0.0097(7) 0.0069(8) 0.023(1) -.0023(6) -.0008(8) -.0011(7)
Mn2 Mn2+ 0.0021(7) 0.0042(7) 0.0183(9) 0.0001(5) 0.0007(7) -.0016(7)
Mn3 Mn2+ 0.0080(6) 0.0168(8) 0.0094(7) 0.0007(6) -.0007(6) -.0010(7)
Mn4 Mn2+ 0.0112(7) 0.0161(9) 0.0016(6) 0.0011(7) 0.0013(6) 0.0005(7)
Mn5 Mn2+ 0.0085(6) 0.0038(7) 0.0161(9) -.0035(6) 0.0043(7) -.0017(7)
Mn6 Mn2+ 0.0089(7) 0.0076(8) 0.020(1) -.0013(6) -.0053(7) 0.0043(7)
Mn7 Mn2+ 0.0054(7) 0.0143(9) 0.0125(9) -.0024(6) 0.0000(6) -.0020(7)
Mn8 Mn2+ 0.0024(6) 0.0155(9) 0.020(1) -.0002(6) -.0011(7) -.0034(8)
K1 K1+ 0.0124(9) 0.030(2) 0.020(1) 0.005(1) -.013(1) -.005(1)
K2 K1+ 0.012(1) 0.024(1) 0.018(1) -.002(1) -.006(1) -.001(1)
K3 K1+ 0.015(1) 0.025(1) 0.022(2) -.003(1) -.001(1) 0.002(1)
K4 K1+ 0.016(1) 0.023(1) 0.035(2) 0.002(1) -.001(1) -.003(1)
K5 K1+ 0.015(1) 0.025(2) 0.050(2) -.003(1) 0.009(1) 0.003(2)
K6 K1+ 0.015(1) 0.020(1) 0.045(2) 0.006(1) 0.008(1) -.004(1)
K7 K1+ 0.012(1) 0.017(1) 0.035(2) 0.000(1) -.003(1) 0.000(1)
K8 K1+ 0.008(1) 0.029(2) 0.025(2) 0.003(1) -.002(1) -.003(1)
Be1 Be2+ 0.0111(9) 0.0072(9) 0.0105(8) -.0001(7) -.0006(7) 0.0006(7)
F1 F1- 0.0227(7) 0.0374(8) 0.0281(8) 0.0048(6) 0.0163(6) 0.0030(7)
F2 F1- 0.0225(7) 0.0088(5) 0.0331(8) -.0008(5) -.0057(6) 0.0082(5)
F3 F1- 0.0233(6) 0.0249(6) 0.0307(7) 0.0117(5) -.0112(6) 0.0037(6)
F4 F1- 0.0356(8) 0.0298(8) 0.0183(6) 0.0021(7) 0.0006(6) -.0139(6)
Be2 Be2+ 0.0111(9) 0.007(1) 0.0105(9) -.0005(7) -.0006(7) -.0002(7)
F5 F1- 0.0214(7) 0.0351(9) 0.0316(8) 0.0023(6) 0.0170(6) 0.0028(7)
F6 F1- 0.0230(7) 0.0066(5) 0.0349(8) -.0016(5) -.0061(6) 0.0026(5)
F7 F1- 0.0275(7) 0.0201(7) 0.0312(7) 0.0134(5) -.0081(6) 0.0037(6)
F8 F1- 0.0360(8) 0.0349(8) 0.0127(7) 0.0023(7) 0.0010(6) -.0098(6)
Be3 Be2+ 0.0112(9) 0.007(1) 0.0104(9) 0.0006(7) -.0005(7) 0.0000(7)
F9 F1- 0.0189(7) 0.0352(8) 0.0340(8) -.0036(6) 0.0159(6) -.0022(7)
F10 F1- 0.0239(7) 0.0071(5) 0.0335(8) 0.0028(5) -.0067(6) -.0041(5)
F11 F1- 0.0299(7) 0.0197(7) 0.0293(7) -.0122(5) -.0088(6) -.0056(6)
F12 F1- 0.0360(8) 0.0336(8) 0.0141(7) -.0032(7) 0.0023(6) 0.0108(6)
Be4 Be2+ 0.0105(9) 0.008(1) 0.0105(9) 0.0011(7) -.0003(7) -.0012(7)
F13 F1- 0.0345(7) 0.0326(8) 0.0210(8) -.0085(6) 0.0142(6) 0.0049(7)
F14 F1- 0.0202(7) 0.0123(6) 0.0321(8) 0.0021(5) 0.0004(6) -.0121(5)
F15 F1- 0.0257(7) 0.0188(7) 0.0344(7) -.0107(5) -.0092(6) -.0055(6)
F16 F1- 0.0335(8) 0.0271(8) 0.0231(7) 0.0038(7) -.0072(6) 0.0135(6)
Be5 Be2+ 0.0106(9) 0.0106(9) 0.008(1) -.0005(7) 0.0010(7) -.0009(7)
F17 F1- 0.0211(8) 0.0331(7) 0.0339(8) 0.0154(6) -.0032(7) 0.0075(6)
F18 F1- 0.0339(8) 0.0203(7) 0.0103(5) -.0005(6) 0.0102(5) -.0021(5)
F19 F1- 0.0347(7) 0.0254(7) 0.0188(7) -.0087(6) 0.0043(6) 0.0115(5)
F20 F1- 0.0205(7) 0.0341(8) 0.0290(8) -.0066(6) -.0133(6) -.0026(7)
Be6 Be2+ 0.0109(9) 0.0107(9) 0.007(1) -.0007(7) -.0001(7) 0.0004(7)
F21 F1- 0.0196(8) 0.0318(7) 0.0368(8) 0.0154(6) 0.0054(7) 0.0026(6)
F22 F1- 0.0373(8) 0.0200(7) 0.0073(5) -.0018(6) 0.0033(5) 0.0027(5)
F23 F1- 0.0360(8) 0.0161(7) 0.0267(7) -.0051(5) -.0020(6) 0.0127(5)
F24 F1- 0.0152(7) 0.0346(8) 0.0338(8) -.0039(6) -.0118(6) -.0012(7)
Be7 Be2+ 0.0104(9) 0.0112(9) 0.007(1) 0.0006(7) -.0003(7) 0.0003(7)
F25 F1- 0.0331(8) 0.0200(7) 0.0350(9) -.0166(6) 0.0033(7) -.0012(6)
F26 F1- 0.0346(8) 0.0235(7) 0.0064(6) 0.0066(6) 0.0011(5) 0.0010(5)
F27 F1- 0.0310(8) 0.0275(7) 0.0204(7) 0.0078(6) 0.0036(6) -.0137(5)
F28 F1- 0.0120(7) 0.0358(8) 0.0358(8) -.0021(6) -.0087(6) -.0026(7)
Be8 Be2+ 0.0104(9) 0.0108(9) 0.008(1) 0.0006(7) 0.0012(7) 0.0005(7)
F29 F1- 0.0217(8) 0.0305(7) 0.0358(8) -.0149(6) -.0022(7) -.0086(6)
F30 F1- 0.0314(8) 0.0208(7) 0.0124(5) 0.0022(6) 0.0123(5) 0.0008(5)
F31 F1- 0.0337(7) 0.0219(7) 0.0233(7) 0.0106(6) 0.0042(6) -.0109(5)
F32 F1- 0.0236(7) 0.0349(8) 0.0252(8) 0.0041(6) -.0147(6) 0.0020(7)
Be9 Be2+ 0.007(1) 0.0103(9) 0.0112(9) -.0005(7) -.0003(7) -.0006(7)
F33 F1- 0.0347(9) 0.0350(8) 0.0184(7) 0.0034(7) 0.0003(6) 0.0158(6)
F34 F1- 0.0063(6) 0.0340(8) 0.0242(7) 0.0000(5) -.0007(5) -.0072(6)
F35 F1- 0.0202(7) 0.0305(8) 0.0281(7) 0.0038(6) 0.0139(5) -.0074(6)
F36 F1- 0.0365(8) 0.0117(7) 0.0355(8) -.0076(6) 0.0029(7) 0.0035(6)
Be10 Be2+ 0.007(1) 0.0106(9) 0.0107(9) -.0011(7) 0.0004(7) -.0006(7)
F37 F1- 0.0327(9) 0.0235(9) 0.0319(7) 0.0084(6) -.0016(6) 0.0159(6)
F38 F1- 0.0075(6) 0.0368(8) 0.0202(7) -.0052(5) 0.0024(5) -.0011(5)
F39 F1- 0.0272(7) 0.0343(8) 0.0174(7) -.0042(5) 0.0141(6) -.0014(6)
F40 F1- 0.0387(8) 0.0105(7) 0.0346(8) -.0048(5) 0.0000(7) -.0045(6)
Be11 Be2+ 0.007(1) 0.0108(9) 0.0107(9) 0.0007(7) 0.0002(7) 0.0007(7)
F41 F1- 0.0343(9) 0.0213(8) 0.0325(7) -.0066(7) 0.0002(6) -.0161(6)
F42 F1- 0.0066(6) 0.0376(8) 0.0204(7) 0.0021(5) 0.0017(5) 0.0011(5)
F43 F1- 0.0252(7) 0.0352(8) 0.0185(7) 0.0035(6) 0.0142(6) 0.0027(5)
F44 F1- 0.0374(8) 0.0119(7) 0.0343(8) 0.0074(6) -.0004(7) 0.0052(6)
Be12 Be2+ 0.007(1) 0.0104(9) 0.0109(9) -.0005(7) -.0010(7) 0.0005(7)
F45 F1- 0.0344(8) 0.0309(8) 0.0228(7) 0.0001(7) 0.0069(6) -.0164(6)
F46 F1- 0.0092(5) 0.0332(8) 0.0222(7) -.0079(5) -.0044(5) 0.0048(6)
F47 F1- 0.0189(7) 0.0295(7) 0.0304(7) -.0067(6) 0.0106(5) 0.0096(6)
F48 F1- 0.0304(8) 0.0168(6) 0.0366(8) 0.0130(6) 0.0018(7) 0.0010(6)
#End of data_280610-ICSD


