data_402366-ICSD
#?2014 by Fachinformationszentrum Karlsruhe, and the U.S. Secretary of 
#Commerce on behalf of the United States.  All rights reserved.
_database_code_ICSD                402366
_audit_creation_date               1997/05/13
_chemical_name_systematic          'Silver Tetrafluoroborate Hydrate'
_chemical_formula_structural       'Ag (B F4) (H2 O)'
_chemical_formula_sum              'H2 Ag1 B1 F4 O1'
_publ_section_title
;
Crystal structure of silver tetrafluoroborate monohydrate, Ag (B F4) 
(H2 O)
;
loop_
_citation_id
_citation_journal_abbrev
_citation_year
_citation_journal_volume
_citation_page_first
_citation_page_last
_citation_journal_id_ASTM
primary 'Zeitschrift fuer Kristallographie (1979-2010)' 1996 211 631 631 ZEKRDZ
_publ_author_name                  'Ludwig, W.;Wartchow, R.'
_cell_length_a                     7.966(9)
_cell_length_b                     7.794(9)
_cell_length_c                     13.42(2)
_cell_angle_alpha                  90.
_cell_angle_beta                   90.
_cell_angle_gamma                  90.
_cell_volume                       833.21
_cell_formula_units_Z              8
_symmetry_space_group_name_H-M     'P b c a'
_symmetry_Int_Tables_number        61
_refine_ls_R_factor_all            .051
loop_
_symmetry_equiv_pos_site_id
_symmetry_equiv_pos_as_xyz
  1	'x+.5, y, -z+.5'
  2	'x, -y+.5, z+.5'
  3	'-x+.5, y+.5, z'
  4	'-x, -y, -z'
  5	'-x+.5, -y, z+.5'
  6	'-x, y+.5, -z+.5'
  7	'x+.5, -y+.5, -z'
  8	'x, y, z'
loop_
_atom_type_symbol
_atom_type_oxidation_number
Ag1+	1
B3+	3
F1-	-1
H1+	1
O2-	-2
loop_
_atom_site_label
_atom_site_type_symbol
_atom_site_symmetry_multiplicity
_atom_site_Wyckoff_symbol
_atom_site_fract_x
_atom_site_fract_y
_atom_site_fract_z
_atom_site_occupancy
_atom_site_attached_hydrogens
_atom_site_U_iso_or_equiv
Ag1 Ag1+ 8 c 0.2601(1) 0.1078(1) 0.3366(1) 1. 0 0 
B1 B3+ 8 c 0.1427(9) 0.380(1) 0.1270(7) 1. 0 0 
F1 F1- 8 c 0.2069(7) 0.4428(9) 0.0397(4) 1. 0 0 
F2 F1- 8 c 0.0498(6) 0.2395(7) 0.1066(4) 1. 0 0 
F3 F1- 8 c 0.2789(6) 0.3426(8) 0.1892(4) 1. 0 0 
F4 F1- 8 c 0.0478(6) 0.5008(7) 0.1743(4) 1. 0 0 
O1 O2- 8 c 0.1095(6) 0.3516(6) 0.3922(4) 1. 0 0 
H1 H1+ 8 c 0.014(3) 0.346(3) 0.377(2) 1. 0 0.036(3) 
H2 H1+ 8 c 0.115(3) 0.355(2) 0.455(2) 1. 0 0.033(3) 

loop_
_atom_site_aniso_label
_atom_site_aniso_type_symbol
_atom_site_aniso_U_11
_atom_site_aniso_U_22
_atom_site_aniso_U_33
_atom_site_aniso_U_12
_atom_site_aniso_U_13
_atom_site_aniso_U_23
Ag1 Ag1+ 0.0370(3) 0.0331(6) 0.0567(4) 0.0036(3) -.0021(3) -.037(3)
B1 B3+ 0.026(2) 0.024(2) 0.046(2) -.008(2) 0.004(2) -.010(2)
F1 F1- 0.097(2) 0.108(2) 0.040(2) -.046(2) 0.009(2) 0.007(2)
F2 F1- 0.064(2) 0.058(2) 0.114(2) -.030(2) 0.020(2) -.018(2)
F3 F1- 0.041(2) 0.091(2) 0.054(2) 0.017(2) -.001(2) 0.007(2)
F4 F1- 0.050(2) 0.063(2) 0.079(2) 0.026(2) -.006(2) -.018(2)
O1 O2- 0.031(2) 0.041(2) 0.038(2) 0.001(2) -.006(2) 0.001(2)
#End of data_402366-ICSD


