data_240717-ICSD
#?2014 by Fachinformationszentrum Karlsruhe, and the U.S. Secretary of 
#Commerce on behalf of the United States.  All rights reserved.
_database_code_ICSD                240717
_audit_creation_date               2007/04/01
_chemical_name_systematic          'Potassium Ytterbium Diphosphate'
_chemical_formula_structural       'K Yb (P2 O7)'
_chemical_formula_sum              'K1 O7 P2 Yb1'
_publ_section_title                'Potassium ytterbium diphosphate'
loop_
_citation_id
_citation_journal_abbrev
_citation_year
_citation_journal_volume
_citation_journal_issue
_citation_page_first
_citation_page_last
_citation_journal_id_ASTM
primary 'Acta Crystallographica, Section E. Structure Reports Online'
 2007 63 2 i33 i34 ACSEBH
_publ_author_name                  'Horchani-Naifer, K.;Ferid, M.'
_cell_length_a                     7.538(3)
_cell_length_b                     10.832(2)
_cell_length_c                     8.537(4)
_cell_angle_alpha                  90.00
_cell_angle_beta                   106.768(7)
_cell_angle_gamma                  90.00
_cell_volume                       667.42
_cell_formula_units_Z              4
_symmetry_space_group_name_H-M     'P 1 21/c 1'
_symmetry_Int_Tables_number        14
_refine_ls_R_factor_all            .0375
loop_
_symmetry_equiv_pos_site_id
_symmetry_equiv_pos_as_xyz
  1	'x, -y+.5, z+.5'
  2	'-x, -y, -z'
  3	'-x, y+.5, -z+.5'
  4	'x, y, z'
loop_
_atom_type_symbol
_atom_type_oxidation_number
K1+	1
O2-	-2
P5+	5
Yb3+	3
loop_
_atom_site_label
_atom_site_type_symbol
_atom_site_symmetry_multiplicity
_atom_site_Wyckoff_symbol
_atom_site_fract_x
_atom_site_fract_y
_atom_site_fract_z
_atom_site_occupancy
_atom_site_attached_hydrogens
_atom_site_U_iso_or_equiv
Yb1 Yb3+ 4 e 0.23224(3) 0.097047(18) 0.75123(2) 1 0 0.00867(12) 
K1 K1+ 4 e 0.8193(2) 0.32213(15) 0.43407(18) 1 0 0.0314(3) 
P1 P5+ 4 e 0.1311(2) 0.39934(11) 0.81239(17) 1 0 0.0099(3) 
P2 P5+ 4 e 0.44564(19) 0.35783(12) 0.69023(16) 1 0 0.0106(3) 
O1 O2- 4 e 0.1354(8) 0.4055(4) 0.9884(6) 1 0 0.0244(12) 
O2 O2- 4 e 0.0713(5) 0.2736(4) 0.7388(5) 1 0 0.0157(8) 
O3 O2- 4 e 0.0128(5) 0.5010(3) 0.7103(4) 1 0 0.0146(7) 
O4 O2- 4 e 0.3388(6) 0.4247(4) 0.8055(5) 1 0 0.0181(8) 
O5 O2- 4 e 0.3339(8) 0.3856(4) 0.5180(6) 1 0 0.0235(10) 
O6 O2- 4 e 0.6360(7) 0.4145(3) 0.7376(5) 1 0 0.0183(9) 
O7 O2- 4 e 0.4586(5) 0.2223(3) 0.7327(5) 1 0 0.0161(8) 

loop_
_atom_site_aniso_label
_atom_site_aniso_type_symbol
_atom_site_aniso_U_11
_atom_site_aniso_U_22
_atom_site_aniso_U_33
_atom_site_aniso_U_12
_atom_site_aniso_U_13
_atom_site_aniso_U_23
Yb1 Yb3+ 0.00885(16) 0.00640(17) 0.01053(17) -0.00015(6) 0.00241(10) 
0.00046(6)
K1 K1+ 0.0228(7) 0.0415(9) 0.0266(7) -0.0081(6) 0.0017(6) 0.0026(6)
P1 P5+ 0.0078(7) 0.0122(7) 0.0101(6) 0.0039(4) 0.0032(5) 0.0013(4)
P2 P5+ 0.0079(6) 0.0098(6) 0.0138(6) -0.0013(4) 0.0027(5) 0.0009(5)
O1 O2- 0.030(3) 0.034(3) 0.010(2) 0.0126(18) 0.007(2) 0.0027(16)
O2 O2- 0.0101(17) 0.0166(19) 0.021(2) -0.0009(14) 0.0055(15) -0.0024(15)
O3 O2- 0.0134(18) 0.0130(17) 0.0187(18) 0.0049(14) 0.0067(15) 0.0045(14)
O4 O2- 0.0095(19) 0.0209(19) 0.024(2) -0.0029(15) 0.0055(16) -0.0121(16)
O5 O2- 0.024(3) 0.031(2) 0.012(2) -0.0035(19) -0.0001(18) 0.0034(17)
O6 O2- 0.012(2) 0.0122(18) 0.032(2) -0.0014(14) 0.0084(18) 0.0027(15)
O7 O2- 0.0064(17) 0.0107(17) 0.033(2) 0.0005(14) 0.0085(16) 0.0018(16)
#End of data_240717-ICSD


