data_190085-ICSD
#?2014 by Fachinformationszentrum Karlsruhe, and the U.S. Secretary of 
#Commerce on behalf of the United States.  All rights reserved.
_database_code_ICSD                190085
_audit_creation_date               2014/08/01
_chemical_name_systematic          'Pentaaluminium Hexaoxide Borate'
_chemical_formula_structural       'Al5 O6 (B O3)'
_chemical_formula_sum              'Al5 B1 O9'
_chemical_name_mineral             'Mullite, boron-containing'
_publ_section_title
;
Single-crystal diffraction at the Extreme Conditions beamline P02.2: 
procedure for collecting and analyzing high-pressure single-crystal 
data
;
loop_
_citation_id
_citation_journal_abbrev
_citation_year
_citation_journal_volume
_citation_journal_issue
_citation_page_first
_citation_page_last
_citation_journal_id_ASTM
primary 'Journal of Synchrotron Radiation' 2013 20 5 711 720 JSYRES
_publ_author_name
;
Rothkirch, Andre;Gatta, G.Diego;Meyer, Mathias;Merkel, 
Sebastien;Merlini, Marco;Liermann, Hanns-Peter
;
_cell_length_a                     5.5494(15)
_cell_length_b                     14.350(6)
_cell_length_c                     7.481(2)
_cell_angle_alpha                  90
_cell_angle_beta                   90
_cell_angle_gamma                  90
_cell_volume                       595.74
_cell_formula_units_Z              4
_symmetry_space_group_name_H-M     'C m c 21'
_symmetry_Int_Tables_number        36
_refine_ls_R_factor_all            .0581
loop_
_symmetry_equiv_pos_site_id
_symmetry_equiv_pos_as_xyz
  1	'x, -y, z+.5'
  2	'-x, -y, z+.5'
  3	'-x, y, z'
  4	'x, y, z'
  5	'x+.5, -y+.5, z+.5'
  6	'-x+.5, -y+.5, z+.5'
  7	'-x+.5, y+.5, z'
  8	'x+.5, y+.5, z'
loop_
_atom_type_symbol
_atom_type_oxidation_number
Al3+	3
B3+	3
O2-	-2
loop_
_atom_site_label
_atom_site_type_symbol
_atom_site_symmetry_multiplicity
_atom_site_Wyckoff_symbol
_atom_site_fract_x
_atom_site_fract_y
_atom_site_fract_z
_atom_site_occupancy
_atom_site_attached_hydrogens
_atom_site_U_iso_or_equiv
Al1 Al3+ 8 b 0.2510(6) 0.1172(4) 0.33664 1 0 0.0111(6) 
Al2 Al3+ 4 a 0 0.2560(5) 0.5196(11) 1 0 0.0111(6) 
Al3 Al3+ 4 a 0 0.4454(5) 0.5296(13) 1 0 0.0111(6) 
Al4 Al3+ 4 a 0 0.3018(6) 0.1671(12) 1 0 0.0111(6) 
B1 B3+ 4 a 0 0.0167(19) 0.060(2) 1 0 0.012(5) 
O1 O2- 4 a 0 0.3241(14) 0.710(2) 1 0 0.0161(11) 
O2 O2- 8 b 0.2528(15) 0.1877(9) 0.5402(17) 1 0 0.0161(11) 
O3 O2- 4 a 0 0.4528(12) 0.909(2) 1 0 0.0161(11) 
O4 O2- 4 a 0 0.0424(12) 0.417(2) 1 0 0.0161(11) 
O5 O2- 4 a 0 0.3544(15) 0.369(2) 1 0 0.0161(11) 
O6 O2- 4 a 0 0.1925(15) 0.262(2) 1 0 0.0161(11) 
O7 O2- 8 b 0.2141(14) 0.0472(9) 0.1317(18) 1 0 0.0161(11) 

#End of data_190085-ICSD


