data_48141-ICSD
#?2014 by Fachinformationszentrum Karlsruhe, and the U.S. Secretary of 
#Commerce on behalf of the United States.  All rights reserved.
_database_code_ICSD                48141
_audit_creation_date               1984/12/31
_chemical_name_systematic
;
Dialuminium Ammonium Hydroxide Bis(phosphate) Dihydrate
;
_chemical_formula_structural       'Al2 (N H4) (O H) (P O4)2 (H2 O)2'
_chemical_formula_sum              'H9 Al2 N1 O11 P2'
_publ_section_title
;
Preparation and Structure of the Aluminium Ammonium Phosphate 
Dihydrate Al2 (N H4) (O H) (P O4)2 (H2 O)2: A Tunnel Structure with 
Ammonium Ions in the Channels
;
loop_
_citation_id
_citation_journal_abbrev
_citation_year
_citation_journal_volume
_citation_page_first
_citation_page_last
_citation_journal_id_ASTM
primary 'Acta Crystallographica, Section C: Crystal Structure Communications'
 1984 40 1641 1643 ACSCEE
_publ_author_name                  'Parise, J.B.'
_cell_length_a                     9.553(1)
_cell_length_b                     9.577(1)
_cell_length_c                     9.614(1)
_cell_angle_alpha                  90.
_cell_angle_beta                   103.56(1)
_cell_angle_gamma                  90.
_cell_volume                       855.06
_cell_formula_units_Z              4
_symmetry_space_group_name_H-M     'P 1 21/n 1'
_symmetry_Int_Tables_number        14
_refine_ls_R_factor_all            .025
loop_
_symmetry_equiv_pos_site_id
_symmetry_equiv_pos_as_xyz
  1	'-x+.5, y+.5, -z+.5'
  2	'-x, -y, -z'
  3	'x+.5, -y+.5, z+.5'
  4	'x, y, z'
loop_
_atom_type_symbol
_atom_type_oxidation_number
Al3+	3
H1+	1
N3-	-3
O2-	-2
P5+	5
loop_
_atom_site_label
_atom_site_type_symbol
_atom_site_symmetry_multiplicity
_atom_site_Wyckoff_symbol
_atom_site_fract_x
_atom_site_fract_y
_atom_site_fract_z
_atom_site_occupancy
_atom_site_attached_hydrogens
_atom_site_U_iso_or_equiv
P1 P5+ 4 e 0.1985(1) 0.5319(1) 0.3482(1) 1. 0 0 
P2 P5+ 4 e 0.2947(1) 0.1921(1) 0.6368(1) 1. 0 0 
Al1 Al3+ 4 e 0.1138(1) 0.4629(1) 0.6280(1) 1. 0 0 
Al2 Al3+ 4 e 0.1074(1) 0.2291(1) 0.3150(1) 1. 0 0 
O1 O2- 4 e 0.2099(1) 0.3859(1) 0.2847(1) 1. 0 0 
O2 O2- 4 e 0.2369(1) 0.5200(1) 0.5132(1) 1. 0 0 
O3 O2- 4 e 0.2083(1) 0.3017(1) 0.6966(1) 1. 0 0 
O4 O2- 4 e 0.0432(1) 0.5859(1) 0.2966(1) 1. 0 0 
O5 O2- 4 e 0.2205(1) 0.5516(1) 0.7899(1) 1. 0 0 
O6 O2- 4 e 0.2392(1) 0.1758(1) 0.4762(1) 1. 0 0 
O7 O2- 4 e 0.3068(1) 0.6274(1) 0.3052(1) 1. 0 0 
O8 O2- 4 e -.0462(1) 0.2678(1) 0.1658(1) 1. 0 0 
O9 O2- 4 e -.0034(1) 0.6352(1) 0.5542(1) 1. 0 0 
O10 O2- 4 e 0.0001(2) 0.9327(2) 0.6466(2) 1. 0 0 
O11 O2- 4 e 0.1828(2) 0.8565(2) 0.4623(2) 1. 0 0 
N1 N3- 4 e -.0135(2) -.1904(2) 0.1040(2) 1. 0 0 
H1 H1+ 4 e 0.044(3) 0.687(3) 0.526(3) 1. 0 0.021(7) 
H2 H1+ 4 e -.040(3) 1.002(3) 0.604(3) 1. 0 0.032(6) 
H3 H1+ 4 e 0.073(4) 0.958(3) 0.675(3) 1. 0 0.036(9) 
H4 H1+ 4 e 0.224(4) 0.854(4) 0.393(5) 1. 0 0.066(12) 
H5 H1+ 4 e 0.234(5) 0.914(4) 0.537(5) 1. 0 0.053(8) 
H6 H1+ 4 e -.090(4) -.140(4) 0.095(4) 1. 0 0.044(7) 
H7 H1+ 4 e -.008(4) -.261(4) 0.155(4) 1. 0 0.039(7) 
H8 H1+ 4 e 0.058(4) -.144(3) 0.143(3) 1. 0 0.037(7) 
H9 H1+ 4 e -.004(4) -.213(4) 0.021(4) 1. 0 0.084(12) 

loop_
_atom_site_aniso_label
_atom_site_aniso_type_symbol
_atom_site_aniso_U_11
_atom_site_aniso_U_22
_atom_site_aniso_U_33
_atom_site_aniso_U_12
_atom_site_aniso_U_13
_atom_site_aniso_U_23
P1 P5+ 0.0048(2) 0.0053(2) 0.0053(2) 0.0007(1) 0.0014(1) -.0004(1)
P2 P5+ 0.0047(2) 0.0048(2) 0.0046(2) 0.0005(1) 0.0000(1) 0.0000(1)
Al1 Al3+ 0.0057(2) 0.0062(2) 0.0050(2) 0.0002(2) 0.0009(2) 0.0002(2)
Al2 Al3+ 0.0055(2) 0.0065(2) 0.0057(2) 0.0003(2) 0.0003(2) 0.0004(2)
O1 O2- 0.0091(5) 0.0057(5) 0.0095(5) -.0009(4) 0.0001(4) -.0013(4)
O2 O2- 0.0072(5) 0.0104(5) 0.0056(5) 0.0008(4) 0.0008(4) -.0012(4)
O3 O2- 0.0117(5) 0.0078(5) 0.0085(5) 0.0002(4) 0.0025(4) 0.0035(4)
O4 O2- 0.0054(5) 0.0088(5) 0.0080(5) 0.0021(4) 0.0011(4) 0.0005(4)
O5 O2- 0.0079(5) 0.0059(5) 0.0085(5) -.0025(4) -.0004(4) 0.0007(4)
O6 O2- 0.0103(5) 0.0097(5) 0.0061(5) -.0002(4) -.0006(4) 0.0014(4)
O7 O2- 0.0090(5) 0.0093(5) 0.0089(5) 0.0012(4) 0.0033(4) -.0037(4)
O8 O2- 0.0065(5) 0.0125(6) 0.0076(5) -.0009(4) 0.0003(4) 0.0021(4)
O9 O2- 0.0068(5) 0.0080(5) 0.0085(5) 0.0021(4) 0.0022(4) -.0017(4)
O10 O2- 0.0082(6) 0.0140(6) 0.0197(6) 0.0056(5) 0.0011(5) -.0028(5)
O11 O2- 0.0253(8) 0.0180(7) 0.0189(7) -.0024(6) 0.0100(6) 0.0002(6)
N1 N3- 0.0135(6) 0.0205(7) 0.0147(6) 0.0050(5) 0.0029(5) 0.0016(5)
#End of data_48141-ICSD


