data_262045-ICSD
#?2014 by Fachinformationszentrum Karlsruhe, and the U.S. Secretary of 
#Commerce on behalf of the United States.  All rights reserved.
_database_code_ICSD                262045
_audit_creation_date               2012/02/01
_chemical_name_systematic
;
Cobalt(II) Bis(carbonate) Trisodium Chloride
;
_chemical_formula_structural       'Co (C O3)2 Na3 Cl'
_chemical_formula_sum              'C2 Cl1 Co1 Na3 O6'
_publ_section_title
;
A spin-frustrated cobalt(II) carbonate pyrochlore network
;
loop_
_citation_id
_citation_journal_abbrev
_citation_year
_citation_journal_volume
_citation_journal_issue
_citation_page_first
_citation_page_last
_citation_journal_id_ASTM
primary 'Acta Crystallographica, Section C: Crystal Structure Communications'
 2011 67 11 i56 i58 ACSCEE
_publ_author_name
;
Zheng Yanzheng;Ellern, A.;Koegerler, P.
;
_cell_length_a                     13.9959(5)
_cell_length_b                     13.9959(5)
_cell_length_c                     13.9959(5)
_cell_angle_alpha                  90.00
_cell_angle_beta                   90.00
_cell_angle_gamma                  90.00
_cell_volume                       2741.59
_cell_formula_units_Z              16
_symmetry_space_group_name_H-M     'F d -3 Z'
_symmetry_Int_Tables_number        203
_refine_ls_R_factor_all            .0155
loop_
_symmetry_equiv_pos_site_id
_symmetry_equiv_pos_as_xyz
  1	'-z, x+.75, y+.75'
  2	'z+.75, x+.75, -y'
  3	'z+.75, -x, y+.75'
  4	'-z, -x, -y'
  5	'y+.75, -z, x+.75'
  6	'-y, z+.75, x+.75'
  7	'y+.75, z+.75, -x'
  8	'-y, -z, -x'
  9	'x+.75, y+.75, -z'
 10	'x+.75, -y, z+.75'
 11	'-x, y+.75, z+.75'
 12	'-x, -y, -z'
 13	'z, -x+.25, -y+.25'
 14	'-z+.25, -x+.25, y'
 15	'-z+.25, x, -y+.25'
 16	'z, x, y'
 17	'-y+.25, z, -x+.25'
 18	'y, -z+.25, -x+.25'
 19	'-y+.25, -z+.25, x'
 20	'y, z, x'
 21	'-x+.25, -y+.25, z'
 22	'-x+.25, y, -z+.25'
 23	'x, -y+.25, -z+.25'
 24	'x, y, z'
 25	'-z, x+.25, y+.25'
 26	'-z+.5, x+.75, y+.25'
 27	'-z+.5, x+.25, y+.75'
 28	'z+.75, x+.25, -y+.5'
 29	'z+.25, x+.75, -y+.5'
 30	'z+.25, x+.25, -y'
 31	'z+.75, -x+.5, y+.25'
 32	'z+.25, -x, y+.25'
 33	'z+.25, -x+.5, y+.75'
 34	'-z, -x+.5, -y+.5'
 35	'-z+.5, -x, -y+.5'
 36	'-z+.5, -x+.5, -y'
 37	'y+.75, -z+.5, x+.25'
 38	'y+.25, -z, x+.25'
 39	'y+.25, -z+.5, x+.75'
 40	'-y, z+.25, x+.25'
 41	'-y+.5, z+.75, x+.25'
 42	'-y+.5, z+.25, x+.75'
 43	'y+.75, z+.25, -x+.5'
 44	'y+.25, z+.75, -x+.5'
 45	'y+.25, z+.25, -x'
 46	'-y, -z+.5, -x+.5'
 47	'-y+.5, -z, -x+.5'
 48	'-y+.5, -z+.5, -x'
 49	'x+.75, y+.25, -z+.5'
 50	'x+.25, y+.75, -z+.5'
 51	'x+.25, y+.25, -z'
 52	'x+.75, -y+.5, z+.25'
 53	'x+.25, -y, z+.25'
 54	'x+.25, -y+.5, z+.75'
 55	'-x, y+.25, z+.25'
 56	'-x+.5, y+.75, z+.25'
 57	'-x+.5, y+.25, z+.75'
 58	'-x, -y+.5, -z+.5'
 59	'-x+.5, -y, -z+.5'
 60	'-x+.5, -y+.5, -z'
 61	'z, -x+.75, -y+.75'
 62	'z+.5, -x+.25, -y+.75'
 63	'z+.5, -x+.75, -y+.25'
 64	'-z+.25, -x+.75, y+.5'
 65	'-z+.75, -x+.25, y+.5'
 66	'-z+.75, -x+.75, y'
 67	'-z+.25, x+.5, -y+.75'
 68	'-z+.75, x, -y+.75'
 69	'-z+.75, x+.5, -y+.25'
 70	'z, x+.5, y+.5'
 71	'z+.5, x, y+.5'
 72	'z+.5, x+.5, y'
 73	'-y+.25, z+.5, -x+.75'
 74	'-y+.75, z, -x+.75'
 75	'-y+.75, z+.5, -x+.25'
 76	'y, -z+.75, -x+.75'
 77	'y+.5, -z+.25, -x+.75'
 78	'y+.5, -z+.75, -x+.25'
 79	'-y+.25, -z+.75, x+.5'
 80	'-y+.75, -z+.25, x+.5'
 81	'-y+.75, -z+.75, x'
 82	'y, z+.5, x+.5'
 83	'y+.5, z, x+.5'
 84	'y+.5, z+.5, x'
 85	'-x+.25, -y+.75, z+.5'
 86	'-x+.75, -y+.25, z+.5'
 87	'-x+.75, -y+.75, z'
 88	'-x+.25, y+.5, -z+.75'
 89	'-x+.75, y, -z+.75'
 90	'-x+.75, y+.5, -z+.25'
 91	'x, -y+.75, -z+.75'
 92	'x+.5, -y+.25, -z+.75'
 93	'x+.5, -y+.75, -z+.25'
 94	'x, y+.5, z+.5'
 95	'x+.5, y, z+.5'
 96	'x+.5, y+.5, z'
loop_
_atom_type_symbol
_atom_type_oxidation_number
C4+	4
Cl1-	-1
Co2+	2
Na1+	1
O2-	-2
loop_
_atom_site_label
_atom_site_type_symbol
_atom_site_symmetry_multiplicity
_atom_site_Wyckoff_symbol
_atom_site_fract_x
_atom_site_fract_y
_atom_site_fract_z
_atom_site_occupancy
_atom_site_attached_hydrogens
_atom_site_U_iso_or_equiv
Co1 Co2+ 16 c 0.0000 0.5000 0.5000 1 0 0.00521(16) 
Na1 Na1+ 48 f 0.1250 0.34929(5) 0.6250 1 0 0.00880(19) 
O1 O2- 96 g -0.02419(6) 0.64680(6) 0.51647(6) 1 0 0.0073(2) 
C1 C4+ 32 e 0.03277(8) 0.71723(8) 0.53277(8) 1 0 0.0058(4) 
Cl1 Cl1- 16 d 0.2500 0.2500 0.5000 1 0 0.0119(2) 

loop_
_atom_site_aniso_label
_atom_site_aniso_type_symbol
_atom_site_aniso_U_11
_atom_site_aniso_U_22
_atom_site_aniso_U_33
_atom_site_aniso_U_12
_atom_site_aniso_U_13
_atom_site_aniso_U_23
Co1 Co2+ 0.00521(16) 0.00521(16) 0.00521(16) -0.00023(7) -0.00023(7) 
-0.00023(7)
Na1 Na1+ 0.0083(3) 0.0088(3) 0.0093(3) 0.000 -0.0011(3) 0.000
O1 O2- 0.0068(4) 0.0059(4) 0.0094(4) -0.0015(3) -0.0005(3) -0.0005(3)
C1 C4+ 0.0058(4) 0.0058(4) 0.0058(4) 0.0014(4) -0.0014(4) 0.0014(4)
Cl1 Cl1- 0.0119(2) 0.0119(2) 0.0119(2) 0.00387(15) -0.00387(15) 
-0.00387(15)
#End of data_262045-ICSD


