data_83598-ICSD
#?2014 by Fachinformationszentrum Karlsruhe, and the U.S. Secretary of 
#Commerce on behalf of the United States.  All rights reserved.
_database_code_ICSD                83598
_audit_creation_date               1998/06/26
_chemical_name_systematic          'Potassium Strontium Phosphate'
_chemical_formula_structural       'K Sr (P O4)'
_chemical_formula_sum              'K1 O4 P1 Sr1'
_publ_section_title
;
The crystal structure of the monophosphate K Sr P O4
;
loop_
_citation_id
_citation_journal_abbrev
_citation_year
_citation_journal_volume
_citation_page_first
_citation_page_last
_citation_journal_id_ASTM
primary 'European Journal of Solid State Inorganic Chemistry'
 1997 34 563 569 EJSCE5
_publ_author_name
;
El Ammari, L.;El Koumiri, M.;Depmeier, W.;Hesse, K.F.;Elouadi, B.
;
_cell_length_a                     7.352(2)
_cell_length_b                     5.561(1)
_cell_length_c                     9.642(3)
_cell_angle_alpha                  90.
_cell_angle_beta                   90.
_cell_angle_gamma                  90.
_cell_volume                       394.21
_cell_formula_units_Z              4
_symmetry_space_group_name_H-M     'P n m a'
_symmetry_Int_Tables_number        62
_refine_ls_R_factor_all            .039
loop_
_symmetry_equiv_pos_site_id
_symmetry_equiv_pos_as_xyz
  1	'x+.5, y, -z+.5'
  2	'x, -y+.5, z'
  3	'-x+.5, y+.5, z+.5'
  4	'-x, -y, -z'
  5	'-x+.5, -y, z+.5'
  6	'-x, y+.5, -z'
  7	'x+.5, -y+.5, -z+.5'
  8	'x, y, z'
loop_
_atom_type_symbol
_atom_type_oxidation_number
K1+	1
O2-	-2
P5+	5
Sr2+	2
loop_
_atom_site_label
_atom_site_type_symbol
_atom_site_symmetry_multiplicity
_atom_site_Wyckoff_symbol
_atom_site_fract_x
_atom_site_fract_y
_atom_site_fract_z
_atom_site_occupancy
_atom_site_attached_hydrogens
K1 K1+ 4 c 0.1594(2) 0.25 0.5848(2) 1. 0 
Sr1 Sr2+ 4 c -.0039(1) 0.25 0.1981(1) 1. 0 
P1 P5+ 4 c 0.2280(2) 0.25 -.0828(2) 1. 0 
O1 O2- 4 c 0.3066(6) 0.25 0.0676(5) 1. 0 
O2 O2- 8 d 0.2935(4) 0.0234(6) 0.8410(3) 1. 0 
O3 O2- 4 c 0.5202(6) 0.25 0.5760(5) 1. 0 

loop_
_atom_site_aniso_label
_atom_site_aniso_type_symbol
_atom_site_aniso_U_11
_atom_site_aniso_U_22
_atom_site_aniso_U_33
_atom_site_aniso_U_12
_atom_site_aniso_U_13
_atom_site_aniso_U_23
K1 K1+ 0.0129(7) 0.0108(8) 0.0114(6) 0 0.0004(5) 0
Sr1 Sr2+ 0.0051 0.0109(2) 0.007(2) 0 0.000(3) 0
P1 P5+ 0.0043 0.0053(7) 0.005(7) 0 -.0001(6) 0
O1 O2- 0.0129(21) 0.0121(23) 0.0039(22) 0 -.005(17) 0
O2 O2- 0.0186(15) 0.0077(15) 0.0078(15) 0.0008(12) 0.0012(12) -.0028(14)
O3 O2- 0.0097(25) 0.0302(28) 0.0153(23) 0 0.0008(21) 0
#End of data_83598-ICSD


