data_62398-ICSD
#?2014 by Fachinformationszentrum Karlsruhe, and the U.S. Secretary of 
#Commerce on behalf of the United States.  All rights reserved.
_database_code_ICSD                62398
_audit_creation_date               1988/12/19
_audit_update_record               2012/08/01
_chemical_name_systematic
;
Dicalcium Trialuminium Tris(silicate) Hydroxide
;
_chemical_formula_structural       'Ca2 Al3 (Si O4)3 (O H)'
_chemical_formula_sum              'H1 Al3 Ca2 O13 Si3'
_chemical_name_mineral             Tanzanite
_publ_section_title
;
Neutron diffraction study of zoisite at 15K and x-ray study at room 
temperature
;
loop_
_citation_id
_citation_journal_abbrev
_citation_year
_citation_journal_volume
_citation_page_first
_citation_page_last
_citation_journal_id_ASTM
primary 'Zeitschrift fuer Kristallographie (1979-2010)' 1987 179 305 321 ZEKRDZ
_publ_author_name
;
Smith, J.V.;Pluth, J.J.;Richardson, J.W.jr.
;
_cell_length_a                     16.1909(15)
_cell_length_b                     5.5466(5)
_cell_length_c                     10.0323(6)
_cell_angle_alpha                  90.
_cell_angle_beta                   90.
_cell_angle_gamma                  90.
_cell_volume                       900.95
_cell_formula_units_Z              4
_symmetry_space_group_name_H-M     'P n m a'
_symmetry_Int_Tables_number        62
_refine_ls_R_factor_all            .038
loop_
_symmetry_equiv_pos_site_id
_symmetry_equiv_pos_as_xyz
  1	'x+.5, y, -z+.5'
  2	'x, -y+.5, z'
  3	'-x+.5, y+.5, z+.5'
  4	'-x, -y, -z'
  5	'-x+.5, -y, z+.5'
  6	'-x, y+.5, -z'
  7	'x+.5, -y+.5, -z+.5'
  8	'x, y, z'
loop_
_atom_type_symbol
_atom_type_oxidation_number
Al3+	3
Ca2+	2
H1+	1
O2-	-2
Si4+	4
loop_
_atom_site_label
_atom_site_type_symbol
_atom_site_symmetry_multiplicity
_atom_site_Wyckoff_symbol
_atom_site_fract_x
_atom_site_fract_y
_atom_site_fract_z
_atom_site_occupancy
_atom_site_attached_hydrogens
_atom_site_U_iso_or_equiv
Ca1 Ca2+ 4 c 0.36647(1) 0.25 0.43734(2) 1. 0 0 
Ca2 Ca2+ 4 c 0.45198(1) 0.25 0.11493(2) 1. 0 0 
Si1 Si4+ 4 c 0.08140(1) 0.25 0.10618(2) 1. 0 0 
Si2 Si4+ 4 c 0.41084(1) 0.75 0.28251(2) 1. 0 0 
Si3 Si4+ 4 c 0.16028(1) 0.25 0.43545(2) 1. 0 0 
Al1 Al3+ 8 d 0.24968(1) 0.99685(3) 0.18977(2) 1. 0 0 
Al2 Al3+ 4 c 0.10610(1) 0.75 0.30019(3) 1. 0 0 
O1 O2- 8 d 0.13034(2) -.00167(6) 0.14648(4) 1. 0 0 
O2 O2- 8 d 0.10129(2) 0.01285(6) 0.43024(4) 1. 0 0 
O3 O2- 8 d 0.35905(2) 0.99046(6) 0.24416(4) 1. 0 0 
O4 O2- 4 c 0.21887(3) 0.75 0.30073(5) 1. 0 0 
O5 O2- 4 c 0.22785(3) 0.25 0.31197(5) 1. 0 0 
O6 O2- 4 c 0.27169(3) 0.75 0.05972(5) 1. 0 0 
O7 O2- 4 c 0.99122(3) 0.25 0.16338(6) 1. 0 0 
O8 O2- 4 c 0.99663(3) 0.75 0.29412(6) 1. 0 0 
O9 O2- 4 c 0.42012(5) 0.75 0.44381(6) 1. 0 0 
O10 O2- 4 c 0.26731(4) 0.25 0.07472(5) 1. 0 0 
H1 H1+ 4 c 0.2647(10) 0.25 0.978(2) 1. 0 0.025(5) 

loop_
_atom_site_aniso_label
_atom_site_aniso_type_symbol
_atom_site_aniso_U_11
_atom_site_aniso_U_22
_atom_site_aniso_U_33
_atom_site_aniso_U_12
_atom_site_aniso_U_13
_atom_site_aniso_U_23
Ca1 Ca2+ 0.00722(4) 0.00973(5) 0.00572(4) 0 0.00081(3) 0
Ca2 Ca2+ 0.01102(5) 0.01075(5) 0.00655(4) 0 -.00012(4) 0
Si1 Si4+ 0.00375(5) 0.00413(6) 0.00404(6) 0 -.00007(5) 0
Si2 Si4+ 0.00364(5) 0.00444(6) 0.00412(6) 0 0.00025(5) 0
Si3 Si4+ 0.00356(5) 0.00402(6) 0.00353(6) 0 -.00003(5) 0
Al1 Al3+ 0.00432(4) 0.00364(4) 0.00450(5) -.00009(3) 0.00026(4) 0.00000(4)
Al2 Al3+ 0.00303(7) 0.00613(7) 0.00618(8) 0 0.00016(6) 0
O1 O2- 0.00566(9) 0.0050(1) 0.00864(11) 0.00087(8) -.00119(8) 0.00009
O2 O2- 0.00640(9) 0.00573(10) 0.00667(10) -.00178(8) 0.00062(8) -.00087
O3 O2- 0.00462(9) 0.00458(9) 0.00983(12) 0.00044(7) -.00112(8) -.00023
O4 O2- 0.00438(12) 0.00434(12) 0.00471(13) 0 0.0003(1) 0
O5 O2- 0.00537(13) 0.00461(12) 0.00435(12) 0 0.00116(10) 0
O6 O2- 0.00547(13) 0.00513(12) 0.00420(12) 0 0.00127(11) 0
O7 O2- 0.00465(13) 0.0099(2) 0.0096(2) 0 0.00172(12) 0
O8 O2- 0.00424(13) 0.0119(2) 0.0096(2) 0 -.00197(12) 0
O9 O2- 0.0186(3) 0.0224(3) 0.0038(2) 0 0.0001(2) 0
O10 O2- 0.0120(2) 0.00497(13) 0.00478(14) 0 0.00177(13) 0
#End of data_62398-ICSD


