data_79101-ICSD
#?2014 by Fachinformationszentrum Karlsruhe, and the U.S. Secretary of 
#Commerce on behalf of the United States.  All rights reserved.
_database_code_ICSD                79101
_audit_creation_date               1996/04/22
_audit_update_record               2011/02/01
_chemical_name_systematic          'Tetrapotassium Stannate'
_chemical_formula_structural       'K4 (Sn O3)'
_chemical_formula_sum              'K4 O3 Sn1'
_publ_section_title
;
Darstellung und Kristallstruktur von K4 (Sn O3)
;
loop_
_citation_id
_citation_journal_abbrev
_citation_year
_citation_journal_volume
_citation_page_first
_citation_page_last
_citation_journal_id_ASTM
primary 'Zeitschrift fuer Anorganische und Allgemeine Chemie (1950) (DE)'
 1995 621 757 760 ZAACAB
_publ_author_name                  'Roehr, C.'
_cell_length_a                     6.522(3)
_cell_length_b                     11.121(5)
_cell_length_c                     18.937(7)
_cell_angle_alpha                  90.
_cell_angle_beta                   90.
_cell_angle_gamma                  90.
_cell_volume                       1373.52
_cell_formula_units_Z              8
_symmetry_space_group_name_H-M     'P b c a'
_symmetry_Int_Tables_number        61
_refine_ls_R_factor_all            .038
loop_
_symmetry_equiv_pos_site_id
_symmetry_equiv_pos_as_xyz
  1	'x+.5, y, -z+.5'
  2	'x, -y+.5, z+.5'
  3	'-x+.5, y+.5, z'
  4	'-x, -y, -z'
  5	'-x+.5, -y, z+.5'
  6	'-x, y+.5, -z+.5'
  7	'x+.5, -y+.5, -z'
  8	'x, y, z'
loop_
_atom_type_symbol
_atom_type_oxidation_number
K1+	1
O2-	-2
Sn2+	2
loop_
_atom_site_label
_atom_site_type_symbol
_atom_site_symmetry_multiplicity
_atom_site_Wyckoff_symbol
_atom_site_fract_x
_atom_site_fract_y
_atom_site_fract_z
_atom_site_occupancy
_atom_site_attached_hydrogens
Sn1 Sn2+ 8 c 0.3932(1) 0.4285(1) 0.3507(1) 1. 0 
K1 K1+ 8 c 0.0376(3) 0.1129(2) 0.2024(1) 1. 0 
K2 K1+ 8 c 0.2220(3) 0.1888(1) 0.4445(1) 1. 0 
K3 K1+ 8 c 0.2370(1) 0.0582(1) 0.0378(1) 1. 0 
K4 K1+ 8 c 0.3776(2) 0.3238(1) 0.1571(1) 1. 0 
O1 O2- 8 c 0.0462(8) 0.3445(5) 0.0687(3) 1. 0 
O2 O2- 8 c 0.1306(8) 0.4765(5) 0.4021(3) 1. 0 
O3 O2- 8 c 0.4574(9) 0.0904(5) 0.1562(3) 1. 0 

loop_
_atom_site_aniso_label
_atom_site_aniso_type_symbol
_atom_site_aniso_U_11
_atom_site_aniso_U_22
_atom_site_aniso_U_33
_atom_site_aniso_U_12
_atom_site_aniso_U_13
_atom_site_aniso_U_23
Sn1 Sn2+ 0.0137(3) 0.0150(3) 0.0110(3) 0.0002(2) -.0001(2) -.0001(2)
K1 K1+ 0.0312(9) 0.0266(8) 0.0175(7) -.0004(8) -.0001(7) -.0026(7)
K2 K1+ 0.0240(8) 0.0229(8) 0.0201(7) -.0046(7) 0.0034(7) -.0008(6)
K3 K1+ 0.0237(8) 0.0325(9) 0.0155(7) -.0013(7) -.0034(7) 0.0011(6)
K4 K1+ 0.0210(8) 0.0199(8) 0.0253(8) -.0010(6) 0.0013(7) 0.0025(6)
O1 O2- 0.0158(25) 0.0270(28) 0.0230(27) -.0033(23) 0.0019(22) -.0064(22)
O2 O2- 0.0159(27) 0.0294(30) 0.0202(26) 0.0005(22) -.0020(21) -.0065(23)
O3 O2- 0.0237(28) 0.0202(25) 0.0189(26) 0.0045(22) 0.0004(23) -.0006(21)
#End of data_79101-ICSD


