data_63104-ICSD
#?2014 by Fachinformationszentrum Karlsruhe, and the U.S. Secretary of 
#Commerce on behalf of the United States.  All rights reserved.
_database_code_ICSD                63104
_audit_creation_date               1989/06/19
_audit_update_record               2012/02/01
_chemical_name_systematic
;
Potassium Aquatetrafluoromanganate(III)
;
_chemical_formula_structural       'K (Mn F4 (H2 O))'
_chemical_formula_sum              'H2 F4 K1 Mn1 O1'
_publ_section_title
;
Chain structure of K (Mn F4 (H2 O))
;
loop_
_citation_id
_citation_journal_abbrev
_citation_year
_citation_journal_volume
_citation_page_first
_citation_page_last
_citation_journal_id_ASTM
primary 'Acta Crystallographica, Section C: Crystal Structure Communications'
 1988 44 167 168 ACSCEE
_publ_author_name                  'Massa, W.;Baum, G.;Drueeke, S.'
_cell_length_a                     13.891(2)
_cell_length_b                     6.212(1)
_cell_length_c                     10.484(2)
_cell_angle_alpha                  90.
_cell_angle_beta                   104.74(2)
_cell_angle_gamma                  90.
_cell_volume                       874.9
_cell_formula_units_Z              8
_symmetry_space_group_name_H-M     'C 1 2/c 1'
_symmetry_Int_Tables_number        15
_refine_ls_R_factor_all            .042
loop_
_symmetry_equiv_pos_site_id
_symmetry_equiv_pos_as_xyz
  1	'x, -y, z+.5'
  2	'-x, -y, -z'
  3	'-x, y, -z+.5'
  4	'x, y, z'
  5	'x+.5, -y+.5, z+.5'
  6	'-x+.5, -y+.5, -z'
  7	'-x+.5, y+.5, -z+.5'
  8	'x+.5, y+.5, z'
loop_
_atom_type_symbol
_atom_type_oxidation_number
F1-	-1
H1+	1
K1+	1
Mn3+	3
O2-	-2
loop_
_atom_site_label
_atom_site_type_symbol
_atom_site_symmetry_multiplicity
_atom_site_Wyckoff_symbol
_atom_site_fract_x
_atom_site_fract_y
_atom_site_fract_z
_atom_site_occupancy
_atom_site_attached_hydrogens
_atom_site_U_iso_or_equiv
Mn1 Mn3+ 4 d 0.25 0.25 0.5 1. 0 0 
Mn2 Mn3+ 4 e 0 0.2471(3) 0.25 1. 0 0 
K1 K1+ 8 f 0.0806(1) 0.7422(3) 0.4427(1) 1. 0 0 
F1 F1- 8 f 0.1079(2) 0.2544(7) 0.4362(2) 1. 0 0 
F2 F1- 8 f 0.2503(3) -.0315(4) 0.4621(3) 1. 0 0 
F3 F1- 8 f 0.0648(3) 0.0351(6) 0.1822(4) 1. 0 0 
F4 F1- 8 f 0.0675(3) 0.4560(6) 0.1859(4) 1. 0 0 
O1 O2- 8 f 0.2684(3) 0.3251(7) 0.3058(4) 1. 0 0 
H1 H1+ 8 f 0.222(7) 0.398(14) 0.262(9) 1. 0 0.06(3) 
H2 H1+ 8 f 0.307(7) 0.427(16) 0.320(9) 1. 0 0.07(3) 

loop_
_atom_site_aniso_label
_atom_site_aniso_type_symbol
_atom_site_aniso_U_11
_atom_site_aniso_U_22
_atom_site_aniso_U_33
_atom_site_aniso_U_12
_atom_site_aniso_U_13
_atom_site_aniso_U_23
Mn1 Mn3+ 0.0106(3) 0.0170(3) 0.0137(4) -.0011(7) 0.0007(3) 0.0016(6)
Mn2 Mn3+ 0.0089(3) 0.0168(3) 0.0148(3) 0 0.0029(3) 0
K1 K1+ 0.0281(4) 0.0294(5) 0.0326(5) 0.0011(8) 0.0036(4) 0.0007(9)
F1 F1- 0.0135(9) 0.048(2) 0.016(1) -.003(2) -.0001(8) 0.003(2)
F2 F1- 0.032(1) 0.020(1) 0.036(2) 0.001(1) 0.009(2) -.001(1)
F3 F1- 0.019(2) 0.038(2) 0.040(2) 0.013(2) 0.001(2) -.015(2)
F4 F1- 0.023(2) 0.042(2) 0.034(2) -.008(2) 0.004(2) 0.016(2)
O1 O2- 0.020(2) 0.042(2) 0.019(2) -.006(2) 0.001(1) 0.009(2)
#End of data_63104-ICSD


