data_200772-ICSD
#?2014 by Fachinformationszentrum Karlsruhe, and the U.S. Secretary of 
#Commerce on behalf of the United States.  All rights reserved.
_database_code_ICSD                200772
_audit_creation_date               1980/12/31
_audit_update_record               2013/02/01
_chemical_name_systematic
;
Potassium Niobium Diphosphate Oxide
;
_chemical_formula_structural       'K Nb O P2 O7'
_chemical_formula_sum              'K1 Nb1 O8 P2'
_publ_section_title
;
Structure of crystals of potassium oxoniobium pyrophosphate K Nb O P2 
O7
;
loop_
_citation_id
_citation_journal_abbrev
_citation_year
_citation_journal_volume
_citation_page_first
_citation_page_last
_citation_journal_id_ASTM
primary 'Doklady Akademii Nauk SSSR' 1980 250 96 99 DANKAS
_publ_author_name
;
Linde, S.A.;Gorbunova, Yu.E.;Lavrov, A.V.;Tananaev, I.V.
;
_cell_length_a                     5.171(1)
_cell_length_b                     11.843(3)
_cell_length_c                     11.727(3)
_cell_angle_alpha                  90.
_cell_angle_beta                   90.98(2)
_cell_angle_gamma                  90.
_cell_volume                       718.06
_cell_formula_units_Z              4
_symmetry_space_group_name_H-M     'P 1 21/n 1'
_symmetry_Int_Tables_number        14
_refine_ls_R_factor_all            .042
loop_
_symmetry_equiv_pos_site_id
_symmetry_equiv_pos_as_xyz
  1	'-x+.5, y+.5, -z+.5'
  2	'-x, -y, -z'
  3	'x+.5, -y+.5, z+.5'
  4	'x, y, z'
loop_
_atom_type_symbol
_atom_type_oxidation_number
K1+	1
Nb5+	5
O2-	-2
P5+	5
loop_
_atom_site_label
_atom_site_type_symbol
_atom_site_symmetry_multiplicity
_atom_site_Wyckoff_symbol
_atom_site_fract_x
_atom_site_fract_y
_atom_site_fract_z
_atom_site_occupancy
_atom_site_attached_hydrogens
Nb1 Nb5+ 4 e 0.2590(2) 0.1219(1) 0.1693(1) 1. 0 
P1 P5+ 4 e 0.7513(5) 0.9370(2) 0.1360(2) 1. 0 
P2 P5+ 4 e 0.7592(5) 0.3087(2) 0.1495(2) 1. 0 
K1 K1+ 4 e 0.7311(5) 0.6335(2) 0.0542(2) 1. 0 
O1 O2- 4 e 0.8013(13) 0.8969(6) 0.0200(5) 1. 0 
O2 O2- 4 e 0.9478(13) 0.0209(5) 0.1815(5) 1. 0 
O3 O2- 4 e 0.1979(15) 0.6422(7) 0.1875(5) 1. 0 
O4 O2- 4 e 0.0285(13) 0.2568(5) 0.1383(6) 1. 0 
O5 O2- 4 e 0.7271(15) 0.4154(5) 0.0858(5) 1. 0 
O6 O2- 4 e 0.5540(13) 0.2200(5) 0.1205(5) 1. 0 
O7 O2- 4 e 0.7769(14) 0.8270(6) 0.2146(5) 1. 0 
O8 O2- 4 e 0.4803(13) 0.9827(6) 0.1529(6) 1. 0 

loop_
_atom_site_aniso_label
_atom_site_aniso_type_symbol
_atom_site_aniso_B_11
_atom_site_aniso_B_22
_atom_site_aniso_B_33
_atom_site_aniso_B_12
_atom_site_aniso_B_13
_atom_site_aniso_B_23
Nb1 Nb5+ 0.84(3) 0.95(3) 1.01(3) -.10(4) -.03(2) -.15(4)
P1 P5+ 0.54(11) 0.15(11) 0.53(11) 0.02(9) -.07(9) 0.00(8)
P2 P5+ 0.44(11) 0.29(11) 0.36(12) -.11(9) 0.05(9) -.16(8)
K1 K1+ 2.5(1) 0.7(1) 1.9(1) -.3(1) -.9(1) 0.2(1)
O1 O2- 2.0(3) 0.9(3) 0.5(2) -.1(3) 0.1(2) -.1(2)
O2 O2- 0.4(3) 0.4(3) 1.1(3) -.3(2) 0.1(2) 0.2(2)
O3 O2- 2.7(4) 1.6(4) 0.9(3) 0.8(3) -.4(3) 0.2(3)
O4 O2- 0.5(3) 0.2(3) 2.0(3) -.1(2) 0.3(2) -.3(3)
O5 O2- 2.7(4) 0.2(3) 0.4(3) 0.3(3) -.2(3) 0.0(3)
O6 O2- 0.6(3) 0.4(3) 0.8(3) -.1(3) -.3(2) -.3(2)
O7 O2- 2.0(3) 0.4(3) 0.3(3) 0.2(3) 0.0(2) 0.3(2)
O8 O2- 0.5(3) 0.5(3) 2.4(3) -.1(3) 0.2(3) 0.2(3)
#End of data_200772-ICSD


