data_281391-ICSD
#?2014 by Fachinformationszentrum Karlsruhe, and the U.S. Secretary of 
#Commerce on behalf of the United States.  All rights reserved.
_database_code_ICSD                281391
_audit_creation_date               2004/04/01
_chemical_name_systematic
;
Calcium Decaoxotribismutho(III)diphosphate(V) (0.5/1)
;
_chemical_formula_structural       'Ca0.5 (Bi3 P2 O10)'
_chemical_formula_sum              'Bi3 Ca0.5 O10 P2'
_publ_section_title
;
Synthesis and structure of M0.5 Bi3 P2 O10 (M = Ca, Sr, Ba, Pb) 
series
;
loop_
_citation_id
_citation_journal_abbrev
_citation_year
_citation_journal_volume
_citation_page_first
_citation_page_last
_citation_journal_id_ASTM
primary 'Acta Crystallographica, Section B: Structural Science'
 2003 59 606 610 ASBSDK
_publ_author_name                  'Porob, D.G.;Guru Row, T.N.'
_cell_length_a                     6.9100(9)
_cell_length_b                     7.5426(10)
_cell_length_c                     9.2027(12)
_cell_angle_alpha                  107.053(2)
_cell_angle_beta                   93.812(2)
_cell_angle_gamma                  112.278(2)
_cell_volume                       415.68
_cell_formula_units_Z              2
_symmetry_space_group_name_H-M     'P -1'
_symmetry_Int_Tables_number        2
_refine_ls_R_factor_all            .057
loop_
_symmetry_equiv_pos_site_id
_symmetry_equiv_pos_as_xyz
  1	'-x, -y, -z'
  2	'x, y, z'
loop_
_atom_type_symbol
_atom_type_oxidation_number
Bi3+	3
Ca2+	2
O2-	-2
P5+	5
loop_
_atom_site_label
_atom_site_type_symbol
_atom_site_symmetry_multiplicity
_atom_site_Wyckoff_symbol
_atom_site_fract_x
_atom_site_fract_y
_atom_site_fract_z
_atom_site_occupancy
_atom_site_attached_hydrogens
_atom_site_U_iso_or_equiv
Bi1 Bi3+ 2 i 0.66412(9) 0.36939(9) 0.48951(6) 1. 0 0.0225(2) 
Bi2 Bi3+ 2 i 0.43324(10) 0.28627(9) 0.08302(7) 1. 0 0.0281(2) 
Bi3 Bi3+ 2 i 0.18988(9) 0.19567(9) 0.67437(7) 1. 0 0.0229(2) 
Ca1 Ca2+ 1 c 0 0.5 0 1. 0 0.0318(8) 
P1 P5+ 2 i 0.0505(6) 0.7654(6) 0.7621(5) 1. 0 0.0207(7) 
P2 P5+ 2 i 0.3399(6) 0.8925(6) 0.2533(5) 1. 0 0.0206(7) 
O1 O2- 2 i 0.5548(18) 0.5306(17) 0.3664(12) 1. 0 0.023(2) 
O2 O2- 2 i 0.1235(17) 0.7462(19) 0.2703(14) 1. 0 0.028(2) 
O3 O2- 2 i 0.2247(17) 0.6813(18) 0.7606(12) 1. 0 0.026(2) 
O4 O2- 2 i 0.3214(18) 0.4095(18) 0.8989(13) 1. 0 0.026(2) 
O5 O2- 2 i 0.8877(19) 0.669(2) 0.8532(16) 1. 0 0.032(3) 
O6 O2- 2 i 0.3462(18) 0.8200(19) 0.0802(13) 1. 0 0.029(2) 
O7 O2- 2 i 0.3599(18) 0.1123(18) 0.3102(14) 1. 0 0.029(2) 
O8 O2- 2 i 0.948(2) 0.7036(17) 0.5891(13) 1. 0 0.029(2) 
O9 O2- 2 i 0.5226(18) 0.8789(18) 0.3501(13) 1. 0 0.026(2) 
O10 O2- 2 i 0.150(2) 0.0056(18) 0.8369(14) 1. 0 0.032(3) 

loop_
_atom_site_aniso_label
_atom_site_aniso_type_symbol
_atom_site_aniso_U_11
_atom_site_aniso_U_22
_atom_site_aniso_U_33
_atom_site_aniso_U_12
_atom_site_aniso_U_13
_atom_site_aniso_U_23
Bi1 Bi3+ 0.0241(4) 0.0232(4) 0.0227(4) 0.0099(3) 0.0045(2) 0.0113(2)
Bi2 Bi3+ 0.0314(4) 0.0253(4) 0.0299(4) 0.0109(3) 0.0082(3) 0.0134(3)
Bi3 Bi3+ 0.0237(3) 0.0228(3) 0.0221(4) 0.0088(3) 0.0027(2) 0.0090(2)
Ca1 Ca2+ 0.0440(19) 0.0095(13) 0.0251(16) -0.0010(12) -0.0234(14) 
0.0056(11)
P1 P5+ 0.0227(17) 0.0201(18) 0.0212(17) 0.0085(14) 0.0056(14) 0.0101(14)
P2 P5+ 0.0210(17) 0.0192(18) 0.0211(17) 0.0064(14) 0.0038(14) 0.0089(15)
O1 O2- 0.035(6) 0.023(5) 0.016(5) 0.013(5) 0.001(4) 0.011(4)
O2 O2- 0.019(5) 0.037(7) 0.035(6) 0.016(5) 0.009(5) 0.020(5)
O3 O2- 0.026(5) 0.033(6) 0.025(5) 0.014(5) 0.010(4) 0.013(5)
O4 O2- 0.029(6) 0.032(6) 0.023(5) 0.014(5) 0.009(4) 0.015(5)
O5 O2- 0.024(6) 0.033(6) 0.049(8) 0.013(5) 0.015(5) 0.024(6)
O6 O2- 0.029(6) 0.040(7) 0.022(5) 0.016(5) 0.005(5) 0.014(5)
O7 O2- 0.026(6) 0.032(6) 0.035(6) 0.018(5) 0.006(5) 0.012(5)
O8 O2- 0.041(6) 0.020(5) 0.027(6) 0.014(5) 0.007(5) 0.010(4)
O9 O2- 0.030(6) 0.028(6) 0.023(5) 0.014(5) 0.007(4) 0.013(4)
O10 O2- 0.044(7) 0.022(6) 0.029(6) 0.009(5) 0.012(5) 0.013(5)
#End of data_281391-ICSD


