data_79452-ICSD
#?2014 by Fachinformationszentrum Karlsruhe, and the U.S. Secretary of 
#Commerce on behalf of the United States.  All rights reserved.
_database_code_ICSD                79452
_audit_creation_date               1996/10/14
_chemical_name_systematic          'Tricalcium Hafnium Disilicon Oxide'
_chemical_formula_structural       'Ca3 Hf Si2 O9'
_chemical_formula_sum              'Ca3 Hf1 O9 Si2'
_publ_section_title
;
Structure determination of Ca3 Hf Si2 O9 and Ca3 Zr Si2 O9 from 
powder diffraction
;
loop_
_citation_id
_citation_journal_abbrev
_citation_year
_citation_journal_volume
_citation_page_first
_citation_page_last
_citation_journal_id_ASTM
primary 'Journal of Solid State Chemistry' 1995 115 464 468 JSSCBI
_publ_author_name
;
Plaisier, J.R.;Jansen, J.;de Graaff, R.A.G.;Ijdo, D.J.W.
;
_cell_length_a                     7.3517(8)
_cell_length_b                     10.1489(11)
_cell_length_c                     10.4319(12)
_cell_angle_alpha                  90.
_cell_angle_beta                   91.084(7)
_cell_angle_gamma                  90.
_cell_volume                       778.2
_cell_formula_units_Z              4
_symmetry_space_group_name_H-M     'P 1 21/c 1'
_symmetry_Int_Tables_number        14
_refine_ls_R_factor_all            .097
loop_
_symmetry_equiv_pos_site_id
_symmetry_equiv_pos_as_xyz
  1	'x, -y+.5, z+.5'
  2	'-x, -y, -z'
  3	'-x, y+.5, -z+.5'
  4	'x, y, z'
loop_
_atom_type_symbol
_atom_type_oxidation_number
Ca2+	2
Hf4+	4
O2-	-2
Si4+	4
loop_
_atom_site_label
_atom_site_type_symbol
_atom_site_symmetry_multiplicity
_atom_site_Wyckoff_symbol
_atom_site_fract_x
_atom_site_fract_y
_atom_site_fract_z
_atom_site_occupancy
_atom_site_attached_hydrogens
_atom_site_B_iso_or_equiv
Hf1 Hf4+ 4 e 0.1216(13) 0.0633(6) 0.1165(9) 1. 0 0.4(2) 
Ca1 Ca2+ 4 e 0.632(4) 0.8114(19) 0.5933(28) 1. 0 0.4(2) 
Ca2 Ca2+ 4 e 0.122(4) 0.8306(21) 0.5828(24) 1. 0 0.4(2) 
Ca3 Ca2+ 4 e 0.626(5) 0.4192(20) 0.6144(31) 1. 0 0.4(2) 
Si1 Si4+ 4 e 0.831(6) 0.6215(33) 0.826(4) 1. 0 0.4(2) 
Si2 Si4+ 4 e 0.413(6) 0.636(4) 0.819(4) 1. 0 0.4(2) 
O1 O2- 4 e 0.609(11) 0.615(7) 0.777(7) 1. 0 0.4(2) 
O2 O2- 4 e 0.069(11) 0.005(6) 0.737(7) 1. 0 0.4(2) 
O3 O2- 4 e 0.117(10) 0.394(6) 0.013(7) 1. 0 0.4(2) 
O4 O2- 4 e 0.116(11) 0.251(6) 0.747(6) 1. 0 0.4(2) 
O5 O2- 4 e 0.332(10) 0.736(7) 0.223(6) 1. 0 0.4(2) 
O6 O2- 4 e 0.306(10) 0.505(6) 0.779(6) 1. 0 0.4(2) 
O7 O2- 4 e 0.375(9) 0.672(6) 0.959(7) 1. 0 0.4(2) 
O8 O2- 4 e 0.122(9) 0.622(6) 0.520(6) 1. 0 0.4(2) 
O9 O2- 4 e 0.661(10) -.094(7) -.022(7) 1. 0 0.4(2) 

#End of data_79452-ICSD


