data_411119-ICSD
#?2014 by Fachinformationszentrum Karlsruhe, and the U.S. Secretary of 
#Commerce on behalf of the United States.  All rights reserved.
_database_code_ICSD                411119
_audit_creation_date               2002/04/01
_chemical_name_systematic
;
Dirubidium Sodium Hexacyanochromate(III)
;
_chemical_formula_structural       'Rb2 Na (Cr (C N)6)'
_chemical_formula_sum              'C6 Cr1 N6 Na1 Rb2'
_publ_section_title
;
Kristallstrukturbestimmungen an Cs2 Na Cr (C N)6 und weiteren 
Verbindungen A2 B M (C N)6 (A= Rb, Cs; B= Na, K, Rb, NH4; M= Cr, Mn, 
Fe, Co): Oktaederkippung und Toleranzfaktor von Cyanokryolithen
;
loop_
_citation_id
_citation_journal_abbrev
_citation_year
_citation_journal_volume
_citation_page_first
_citation_page_last
_citation_journal_id_ASTM
primary 'Zeitschrift fuer Anorganische und Allgemeine Chemie (1950) (DE)'
 2000 626 1561 1566 ZAACAB
_publ_author_name
;
Peschel, S.;Ziegler, B.;Schwarten, M.;Babel, D.
;
_cell_length_a                     7.324(1)
_cell_length_b                     7.870(1)
_cell_length_c                     10.697(2)
_cell_angle_alpha                  90.
_cell_angle_beta                   90.58(2)
_cell_angle_gamma                  90.
_cell_volume                       616.54
_cell_formula_units_Z              2
_symmetry_space_group_name_H-M     'P 1 21/n 1'
_symmetry_Int_Tables_number        14
_refine_ls_R_factor_all            .1868
loop_
_symmetry_equiv_pos_site_id
_symmetry_equiv_pos_as_xyz
  1	'-x+.5, y+.5, -z+.5'
  2	'-x, -y, -z'
  3	'x+.5, -y+.5, z+.5'
  4	'x, y, z'
loop_
_atom_type_symbol
_atom_type_oxidation_number
C2+	2
Cr3+	3
N3-	-3
Na1+	1
Rb1+	1
loop_
_atom_site_label
_atom_site_type_symbol
_atom_site_symmetry_multiplicity
_atom_site_Wyckoff_symbol
_atom_site_fract_x
_atom_site_fract_y
_atom_site_fract_z
_atom_site_occupancy
_atom_site_attached_hydrogens
Rb1 Rb1+ 4 e 0.52387(12) -.07670(12) 0.24909(9) 1. 0 
Na1 Na1+ 2 b 0 0 0.5 1. 0 
Cr1 Cr3+ 2 a 0 0 0 1. 0 
C1 C2+ 4 e 0.0818(10) 0.0233(10) 0.1836(8) 1. 0 
N1 N3- 4 e 0.1224(10) 0.0384(11) 0.2866(7) 1. 0 
C2 C2+ 4 e -.2313(10) 0.1405(10) 0.0360(7) 1. 0 
N2 N3- 4 e -.3573(11) 0.219(1) 0.0573(8) 1. 0 
C3 C2+ 4 e 0.1395(10) 0.2204(10) -.0443(8) 1. 0 
N3 N3- 4 e 0.2163(10) 0.3392(10) -.0683(8) 1. 0 

loop_
_atom_site_aniso_label
_atom_site_aniso_type_symbol
_atom_site_aniso_U_11
_atom_site_aniso_U_22
_atom_site_aniso_U_33
_atom_site_aniso_U_12
_atom_site_aniso_U_13
_atom_site_aniso_U_23
Rb1 Rb1+ 0.0587(6) 0.0482(5) 0.0636(6) -.0050(4) 0.0018(4) 0.0007(5)
Na1 Na1+ 0.042(2) 0.033(2) 0.041(2) 0.000(2) -.001(2) 0.000(2)
Cr1 Cr3+ 0.0355(9) 0.0291(9) 0.0346(10) -.0001(7) 0.0003(7) 0.0012(8)
C1 C2+ 0.037(4) 0.039(4) 0.043(5) 0.004(3) 0.001(3) 0.006(4)
N1 N3- 0.061(5) 0.064(6) 0.043(4) 0.008(4) 0.003(4) 0.001(4)
C2 C2+ 0.036(4) 0.037(4) 0.042(5) 0.001(3) 0.002(3) 0.008(4)
N2 N3- 0.061(5) 0.049(4) 0.070(6) 0.014(4) 0.012(4) 0.015(4)
C3 C2+ 0.036(4) 0.034(4) 0.045(5) 0.003(3) 0.001(3) -.001(4)
N3 N3- 0.055(4) 0.045(4) 0.074(6) -.006(4) -.002(4) 0.008(4)
#End of data_411119-ICSD


