data_89708-ICSD
#?2014 by Fachinformationszentrum Karlsruhe, and the U.S. Secretary of 
#Commerce on behalf of the United States.  All rights reserved.
_database_code_ICSD                89708
_audit_creation_date               2002/04/01
_chemical_name_systematic          'Dicalcium Dialuminate'
_chemical_formula_structural       'Ca2 (Al2 O5)'
_chemical_formula_sum              'Al2 Ca2 O5'
_publ_section_title
;
Rietveld analysis of dicalcium aluminate (Ca2 Al2 O5) - a new high 
pressure phase with the Brownmillerite-type structure
;
loop_
_citation_id
_citation_journal_abbrev
_citation_year
_citation_journal_volume
_citation_page_first
_citation_page_last
_citation_journal_id_ASTM
primary 'American Mineralogist' 2000 85 1061 1065 AMMIAY
_publ_author_name
;
Kahlenberg, V.;Fischer, R.X.;Shaw, C.S.J.
;
_cell_length_a                     5.2281(1)
_cell_length_b                     14.4686(2)
_cell_length_c                     5.4004(1)
_cell_angle_alpha                  90.
_cell_angle_beta                   90.
_cell_angle_gamma                  90.
_cell_volume                       408.5
_cell_formula_units_Z              4
_symmetry_space_group_name_H-M     'I 2 m b'
_symmetry_Int_Tables_number        46
_refine_ls_R_factor_all            .068
loop_
_symmetry_equiv_pos_site_id
_symmetry_equiv_pos_as_xyz
  1	'x, y+.5, -z'
  2	'x, -y+.5, z'
  3	'x, -y, -z'
  4	'x, y, z'
  5	'x+.5, y, -z+.5'
  6	'x+.5, -y, z+.5'
  7	'x+.5, -y+.5, -z+.5'
  8	'x+.5, y+.5, z+.5'
loop_
_atom_type_symbol
_atom_type_oxidation_number
Al3+	3
Ca2+	2
O2-	-2
loop_
_atom_site_label
_atom_site_type_symbol
_atom_site_symmetry_multiplicity
_atom_site_Wyckoff_symbol
_atom_site_fract_x
_atom_site_fract_y
_atom_site_fract_z
_atom_site_occupancy
_atom_site_attached_hydrogens
_atom_site_B_iso_or_equiv
Al1 Al3+ 4 a 0.5 0.5 0.5 1. 0 0.83(5) 
Al2 Al3+ 4 b 0.4487(11) 0.25 0.5733(5) 1. 0 0.42(7) 
Ca1 Ca2+ 8 c 0.4937(11) 0.6079(1) 0.9770(3) 1. 0 0.64(3) 
O1 O2- 8 c 0.5223(14) 0.3570(2) 0.4432(6) 1. 0 0.86(10) 
O2 O2- 4 b 0.6100(16) 0.25 0.8615(10) 1. 0 1.06(16) 
O3 O2- 8 c 0.2590(18) 0.5090(2) 0.2560(11) 1. 0 0.80(7) 

#End of data_89708-ICSD


