data_92626-ICSD
#?2014 by Fachinformationszentrum Karlsruhe, and the U.S. Secretary of 
#Commerce on behalf of the United States.  All rights reserved.
_database_code_ICSD                92626
_audit_creation_date               2003/04/01
_audit_update_record               2006/04/01
_chemical_name_systematic
;
Dipotassium Tetrachlorozincate - Paraelectric
;
_chemical_formula_structural       'K2 (Zn Cl4)'
_chemical_formula_sum              'Cl4 K2 Zn1'
_publ_section_title
;
Interatomic potential parameters for potassium tetrachlorozincate and 
their application to modelling its phase transformations
;
loop_
_citation_id
_citation_journal_abbrev
_citation_year
_citation_journal_volume
_citation_page_first
_citation_page_last
_citation_journal_id_ASTM
primary 'Acta Crystallographica. Section A: Foundations of Crystallography'
 2001 57 264 271 ACACEQ
2 'Golden Book of Phase Transitions, Wroclaw' 2002 1 1 123 GBOPT5
_publ_author_name
;
Ferrari, E.S.;Roberts, K.J.;Thomson, G.B.;Gale, J.D.;Catlow, C.R.A.
;
_cell_length_a                     9.046
_cell_length_b                     12.579
_cell_length_c                     6.882
_cell_angle_alpha                  90
_cell_angle_beta                   90
_cell_angle_gamma                  90
_cell_volume                       783.1
_cell_formula_units_Z              4
_symmetry_space_group_name_H-M     'P n a m'
_symmetry_Int_Tables_number        62
loop_
_symmetry_equiv_pos_site_id
_symmetry_equiv_pos_as_xyz
  1	'x+.5, -y+.5, z'
  2	'x, y, -z+.5'
  3	'-x+.5, y+.5, z+.5'
  4	'-x, -y, -z'
  5	'-x+.5, y+.5, -z'
  6	'-x, -y, z+.5'
  7	'x+.5, -y+.5, -z+.5'
  8	'x, y, z'
loop_
_atom_type_symbol
_atom_type_oxidation_number
Cl1-	-1
K1+	1
Zn2+	2
loop_
_atom_site_label
_atom_site_type_symbol
_atom_site_symmetry_multiplicity
_atom_site_Wyckoff_symbol
_atom_site_fract_x
_atom_site_fract_y
_atom_site_fract_z
_atom_site_occupancy
_atom_site_attached_hydrogens
K1 K1+ 4 c 0.6303 0.4173 0.750 1. 0 
K2 K1+ 4 c 0.4824 0.8178 0.750 1. 0 
Zn1 Zn2+ 4 c 0.2273 0.4265 0.750 1. 0 
Cl1 Cl1- 4 c -0.0228 0.4203 0.750 1. 0 
Cl2 Cl1- 4 c 0.3166 0.5927 0.750 1. 0 
Cl3 Cl1- 8 d 0.3263 0.3495 0.0113 1. 0 

#End of data_92626-ICSD


