data_84717-ICSD
#?2014 by Fachinformationszentrum Karlsruhe, and the U.S. Secretary of 
#Commerce on behalf of the United States.  All rights reserved.
_database_code_ICSD                84717
_audit_creation_date               1999/01/19
_chemical_name_systematic          'Dilithium Diiron Tris(molybdate)'
_chemical_formula_structural       'Li2 Fe2 (Mo O4)3'
_chemical_formula_sum              'Fe2 Li2 Mo3 O12'
_publ_section_title
;
Observation of a weak ferromagnetic ground state structure for the 
lithium-insertion compound Li2 Fe2 (Mo O4)3
;
loop_
_citation_id
_citation_journal_abbrev
_citation_year
_citation_journal_volume
_citation_page_first
_citation_page_last
_citation_journal_id_ASTM
primary 'Journal of Solid State Chemistry' 1997 130 147 151 JSSCBI
_publ_author_name
;
Reiff, W.M.;Zhang, J.-H.;Tam, H.;Attfield, J.P.;Torardi, C.C.
;
_cell_length_a                     12.8326(5)
_cell_length_b                     9.4965(4)
_cell_length_c                     9.2903(4)
_cell_angle_alpha                  90.
_cell_angle_beta                   90.
_cell_angle_gamma                  90.
_cell_volume                       1132.16
_cell_formula_units_Z              4
_symmetry_space_group_name_H-M     'P b c n'
_symmetry_Int_Tables_number        60
_refine_ls_R_factor_all            .055
loop_
_symmetry_equiv_pos_site_id
_symmetry_equiv_pos_as_xyz
  1	'x, -y, z+.5'
  2	'-x+.5, y+.5, z'
  3	'x+.5, y+.5, -z+.5'
  4	'-x, -y, -z'
  5	'-x, y, -z+.5'
  6	'x+.5, -y+.5, -z'
  7	'-x+.5, -y+.5, z+.5'
  8	'x, y, z'
loop_
_atom_type_symbol
_atom_type_oxidation_number
Fe2+	2
Li1+	1
Mo6+	6
O2-	-2
loop_
_atom_site_label
_atom_site_type_symbol
_atom_site_symmetry_multiplicity
_atom_site_Wyckoff_symbol
_atom_site_fract_x
_atom_site_fract_y
_atom_site_fract_z
_atom_site_occupancy
_atom_site_attached_hydrogens
_atom_site_U_iso_or_equiv
Fe1 Fe2+ 8 d 0.3771(2) 0.2468(2) 0.4666(2) 1. 0 0.0081(6) 
Mo1 Mo6+ 4 c 0 0.4600(4) 0.25 1. 0 0.0047(11) 
Mo2 Mo6+ 8 d 0.3570(2) 0.4017(3) 0.1052(3) 1. 0 0.010(1) 
O1 O2- 8 d 0.1628(3) 0.0861(4) 0.1107(4) 1. 0 0.0082(11) 
O2 O2- 8 d 0.0935(3) 0.3519(4) 0.1649(3) 1. 0 0.004(1) 
O3 O2- 8 d 0.2809(3) 0.3299(4) 0.9660(4) 1. 0 0.0102(10) 
O4 O2- 8 d 0.4349(3) 0.0670(4) 0.3742(4) 1. 0 0.0080(11) 
O5 O2- 8 d 0.4873(3) 0.3602(4) 0.0705(4) 1. 0 0.0084(9) 
O6 O2- 8 d 0.3195(2) 0.3266(4) 0.2717(4) 1. 0 0.008(1) 
Li1 Li1+ 8 d 0.1887(9) 0.2237(15) 0.2710(13) 1. 0 0.020(3) 

#End of data_84717-ICSD


