data_92568-ICSD
#?2014 by Fachinformationszentrum Karlsruhe, and the U.S. Secretary of 
#Commerce on behalf of the United States.  All rights reserved.
_database_code_ICSD                92568
_audit_creation_date               2003/04/01
_audit_update_record               2008/02/01
_chemical_name_systematic          'Calcium Sulfate(VI) Dihydrate'
_chemical_formula_structural       'Ca (S O4) (H2 O)2'
_chemical_formula_sum              'H4 Ca1 O6 S1'
_chemical_name_mineral             Gypsum
_publ_section_title
;
Temperature related structural variation of the hydrous components in 
gypsum
;
loop_
_citation_id
_citation_journal_abbrev
_citation_year
_citation_journal_volume
_citation_page_first
_citation_page_last
_citation_journal_id_ASTM
primary 'Zeitschrift fuer Kristallographie (1979-2010)' 2000 215 707 710 ZEKRDZ
_publ_author_name
;
Schofield, P.F.;Wilson, C.C.;Knight, K.S.;Stretton, I.C.
;
_cell_length_a                     5.6739(5)
_cell_length_b                     15.1138(2)
_cell_length_c                     6.4973(4)
_cell_angle_alpha                  90
_cell_angle_beta                   118.500(2)
_cell_angle_gamma                  90
_cell_volume                       489.65
_cell_formula_units_Z              4
_symmetry_space_group_name_H-M     'I 1 2/c 1'
_symmetry_Int_Tables_number        15
_refine_ls_R_factor_all            .06
loop_
_symmetry_equiv_pos_site_id
_symmetry_equiv_pos_as_xyz
  1	'-x, y, -z+.5'
  2	'-x, -y, -z'
  3	'x, -y, z+.5'
  4	'x, y, z'
  5	'-x+.5, y+.5, -z'
  6	'-x+.5, -y+.5, -z+.5'
  7	'x+.5, -y+.5, z'
  8	'x+.5, y+.5, z+.5'
loop_
_atom_type_symbol
_atom_type_oxidation_number
Ca2+	2
H1+	1
O2-	-2
S6+	6
loop_
_atom_site_label
_atom_site_type_symbol
_atom_site_symmetry_multiplicity
_atom_site_Wyckoff_symbol
_atom_site_fract_x
_atom_site_fract_y
_atom_site_fract_z
_atom_site_occupancy
_atom_site_attached_hydrogens
Ca1 Ca2+ 4 e 0.5 0.07997(11) 0.250 1. 0 
S1 S6+ 4 e 0 0.07699(17) 0.750 1. 0 
O1 O2- 8 f 0.9639(2) 0.13243(7) 0.55002(17) 1. 0 
O2 O2- 8 f 0.75721(17) 0.02210(7) 0.66619(17) 1. 0 
O3 O2- 8 f 0.3822(2) 0.18225(7) 0.4610(2) 1.000 0 
H1 H1+ 8 f 0.2508(5) 0.1619(2) 0.5063(5) 1. 0 
H2 H1+ 8 f 0.4076(5) 0.24399(17) 0.4937(5) 1. 0 

loop_
_atom_site_aniso_label
_atom_site_aniso_type_symbol
_atom_site_aniso_U_11
_atom_site_aniso_U_22
_atom_site_aniso_U_33
_atom_site_aniso_U_12
_atom_site_aniso_U_13
_atom_site_aniso_U_23
Ca1 Ca2+ 0.0030(4) 0.0040(5) 0.0045(5) 0. 0.0013(4) 0.
S1 S6+ 0.0012(6) 0.0028(8) 0.0012(8) 0. 0.0002(6) 0.
O1 O2- 0.0054(3) 0.0060(3) 0.0055(3) -0.0005(3) 0.0025(3) 0.0020(3)
O2 O2- 0.0034(3) 0.0057(3) 0.0061(3) -0.0021(3) 0.0012(2) 0.0007(3)
O3 O2- 0.0117(4) 0.0068(4) 0.0120(4) -0.0004(3) 0.0089(3) -0.0011(4)
H1 H1+ 0.0277(10) 0.0230(11) 0.0318(12) -0.0029(8) 0.0246(9) -0.0002(11)
H2 H1+ 0.0315(11) 0.0136(9) 0.0379(13) -0.0030(8) 0.0219(10) -0.0045(10)
#End of data_92568-ICSD


