data_423814-ICSD
#?2014 by Fachinformationszentrum Karlsruhe, and the U.S. Secretary of 
#Commerce on behalf of the United States.  All rights reserved.
_database_code_ICSD                423814
_audit_creation_date               2013/02/01
_chemical_name_systematic          'Potassium Tetrastrontium Triborate'
_chemical_formula_structural       'K Sr4 (B3 O9)'
_chemical_formula_sum              'B3 K1 O9 Sr4'
_publ_section_title
;
Structure, growth and properties of a novel polar material, K Sr4 B3 
O9
;
loop_
_citation_id
_citation_journal_abbrev
_citation_year
_citation_journal_volume
_citation_journal_issue
_citation_page_first
_citation_page_last
_citation_journal_id_ASTM
primary 'Journal of Solid State Chemistry' 2012 195 11 73 78 JSSCBI
_publ_author_name
;
Zhao Wenwu;Pan Shilie;Wang Yongjiang;Yang Zhihua;Wang Xian;Han Jian
;
_cell_length_a                     11.025(10)
_cell_length_b                     11.977(10)
_cell_length_c                     6.872(6)
_cell_angle_alpha                  90.00
_cell_angle_beta                   90.00
_cell_angle_gamma                  90.00
_cell_volume                       907.42
_cell_formula_units_Z              4
_symmetry_space_group_name_H-M     'A m a 2'
_symmetry_Int_Tables_number        40
_refine_ls_R_factor_all            .0307
loop_
_symmetry_equiv_pos_site_id
_symmetry_equiv_pos_as_xyz
  1	'x+.5, -y, z'
  2	'-x+.5, y, z'
  3	'-x, -y, z'
  4	'x, y, z'
  5	'x+.5, -y+.5, z+.5'
  6	'-x+.5, y+.5, z+.5'
  7	'-x, -y+.5, z+.5'
  8	'x, y+.5, z+.5'
loop_
_atom_type_symbol
_atom_type_oxidation_number
B3+	3
K1+	1
O2-	-2
Sr2+	2
loop_
_atom_site_label
_atom_site_type_symbol
_atom_site_symmetry_multiplicity
_atom_site_Wyckoff_symbol
_atom_site_fract_x
_atom_site_fract_y
_atom_site_fract_z
_atom_site_occupancy
_atom_site_attached_hydrogens
_atom_site_U_iso_or_equiv
Sr1 Sr2+ 8 c 0.97109(6) 0.78559(5) 0.02971(11) 1 0 0.00896(16) 
Sr2 Sr2+ 4 b 0.7500 0.85486(8) 0.39588(14) 1 0 0.0100(2) 
Sr3 Sr2+ 4 a 1.0000 0.5000 0.17616(12) 1 0 0.0126(2) 
K1 K1+ 4 b 0.7500 0.5839(2) -0.3669(4) 1 0 0.0300(7) 
B1 B3+ 4 a 1.0000 1.0000 0.2488(15) 1 0 0.006(2) 
B2 B3+ 4 b 0.7500 0.6249(10) 0.2034(17) 1 0 0.012(2) 
B3 B3+ 4 b 0.7500 0.8335(11) -0.1881(19) 1 0 0.017(3) 
O1 O2- 4 a 1.0000 1.0000 0.0475(12) 1 0 0.0155(16) 
O2 O2- 4 b 0.7500 1.0455(6) 0.5631(11) 1 0 0.0233(18) 
O3 O2- 8 c 0.9751(4) 0.9022(4) 0.3473(7) 1 0 0.0122(11) 
O4 O2- 8 c 0.8582(4) 0.6664(4) 0.2816(7) 1 0 0.0104(10) 
O5 O2- 8 c 0.8585(5) 0.8141(4) -0.2829(7) 1 0 0.0133(11) 
O6 O2- 4 b 0.7500 0.8535(6) 0.0125(12) 1 0 0.0200(18) 

loop_
_atom_site_aniso_label
_atom_site_aniso_type_symbol
_atom_site_aniso_U_11
_atom_site_aniso_U_22
_atom_site_aniso_U_33
_atom_site_aniso_U_12
_atom_site_aniso_U_13
_atom_site_aniso_U_23
Sr1 Sr2+ 0.0109(3) 0.0083(3) 0.0077(3) 0.0006(3) -0.0001(3) 0.0008(3)
Sr2 Sr2+ 0.0071(5) 0.0116(5) 0.0114(4) 0.000 0.000 0.0017(4)
Sr3 Sr2+ 0.0231(6) 0.0060(5) 0.0088(4) -0.0006(4) 0.000 0.000
K1 K1+ 0.0217(15) 0.0257(16) 0.0426(17) 0.000 0.000 0.0136(12)
#End of data_423814-ICSD


