data_182568-ICSD
#?2014 by Fachinformationszentrum Karlsruhe, and the U.S. Secretary of 
#Commerce on behalf of the United States.  All rights reserved.
_database_code_ICSD                182568
_audit_creation_date               2012/02/01
_chemical_name_systematic
;
Distrontium Calcium Rhenium Hexaoxide
;
_chemical_formula_structural       'Sr2 Ca Re O6'
_chemical_formula_sum              'Ca1 O6 Re1 Sr2'
_publ_section_title
;
A search for disorder in the spin glass double perovskites Sr2 Ca Re 
O6 and Sr2 Mg Re O6 using neutron diffraction and neutron pair 
distribution function analysis
;
loop_
_citation_id
_citation_journal_abbrev
_citation_year
_citation_journal_volume
_citation_page_first
_citation_page_last
_citation_journal_id_ASTM
primary 'Journal of Physics: Condensed Matter' 2011 23 164213-1 164213-8 JCOMEL
_publ_author_name
;
Greedan, J.E.;Derakhshan, S.;Ramezanipour, F.;Siewenie, J.;Proffen, 
T.
;
_cell_length_a                     5.7485(2)
_cell_length_b                     5.8246(2)
_cell_length_c                     8.1580(2)
_cell_angle_alpha                  90.
_cell_angle_beta                   90.233(1)
_cell_angle_gamma                  90.
_cell_volume                       273.15
_cell_formula_units_Z              2
_symmetry_space_group_name_H-M     'P 1 21/n 1'
_symmetry_Int_Tables_number        14
_refine_ls_R_factor_all            .0393
loop_
_symmetry_equiv_pos_site_id
_symmetry_equiv_pos_as_xyz
  1	'-x+.5, y+.5, -z+.5'
  2	'-x, -y, -z'
  3	'x+.5, -y+.5, z+.5'
  4	'x, y, z'
loop_
_atom_type_symbol
_atom_type_oxidation_number
Ca2+	2
O2-	-2
Re6+	6
Sr2+	2
loop_
_atom_site_label
_atom_site_type_symbol
_atom_site_symmetry_multiplicity
_atom_site_Wyckoff_symbol
_atom_site_fract_x
_atom_site_fract_y
_atom_site_fract_z
_atom_site_occupancy
_atom_site_attached_hydrogens
_atom_site_U_iso_or_equiv
Sr1 Sr2+ 4 e 0.0055(4) 0.0376(2) 0.2495(3) 1. 0 0.0081(2) 
Ca1 Ca2+ 2 d 0.5 0 0 1. 0 0.0047(4) 
Re1 Re6+ 2 c 0.5 0 0.5 1. 0 0.0029(2) 
O1 O2- 4 e 0.2670(4) 0.3115(4) 0.0398(3) 1. 0 0.0122(4) 
O2 O2- 4 e -0.1840(4) 0.2290(4) -0.0441(3) 1. 0 0.0125(4) 
O3 O2- 4 e -0.08781(3) 0.4796(3) 0.2267(2) 1. 0 0.0095(3) 

#End of data_182568-ICSD


