data_34303-ICSD
#?2014 by Fachinformationszentrum Karlsruhe, and the U.S. Secretary of 
#Commerce on behalf of the United States.  All rights reserved.
_database_code_ICSD                34303
_audit_creation_date               1980/01/01
_audit_update_record               2007/04/01
_chemical_name_systematic          'Trizinc Bis(phosphate(V)) - Gamma'
_chemical_formula_structural       'Zn3 (P O4)2'
_chemical_formula_sum              'O8 P2 Zn3'
_publ_section_title
;
The crystal structure and luminescence of gamma-zinc orthophosphate
;
loop_
_citation_id
_citation_journal_abbrev
_citation_year
_citation_journal_volume
_citation_page_first
_citation_page_last
_citation_journal_id_ASTM
primary 'Journal of Physics and Chemistry of Solids' 1963 24 141 149 JPCSAW
2 'Golden Book of Phase Transitions, Wroclaw' 2002 1 1 123 GBOPT5
_publ_author_name                  'Calvo, C.'
_cell_length_a                     5.074(8)
_cell_length_b                     8.469(10)
_cell_length_c                     8.766(15)
_cell_angle_alpha                  90.
_cell_angle_beta                   120.85(17)
_cell_angle_gamma                  90.
_cell_volume                       323.39
_cell_formula_units_Z              2
_symmetry_space_group_name_H-M     'P 1 21/c 1'
_symmetry_Int_Tables_number        14
loop_
_symmetry_equiv_pos_site_id
_symmetry_equiv_pos_as_xyz
  1	'x, -y+.5, z+.5'
  2	'-x, -y, -z'
  3	'-x, y+.5, -z+.5'
  4	'x, y, z'
loop_
_atom_type_symbol
_atom_type_oxidation_number
O2-	-2
P5+	5
Zn2+	2
loop_
_atom_site_label
_atom_site_type_symbol
_atom_site_symmetry_multiplicity
_atom_site_Wyckoff_symbol
_atom_site_fract_x
_atom_site_fract_y
_atom_site_fract_z
_atom_site_occupancy
_atom_site_attached_hydrogens
Zn1 Zn2+ 2 a 0 0 0 1. 0 
Zn2 Zn2+ 4 e 0.0370(1) 0.3650(1) 0.1180(1) 1. 0 
P1 P5+ 4 e 0.333(1) 0.690(1) 0.306(1) 1. 0 
O1 O2- 4 e 0.256(5) 0.638(5) 0.451(5) 1. 0 
O2 O2- 4 e 0.694(5) 0.700(5) 0.400(5) 1. 0 
O3 O2- 4 e 0.254(5) 0.589(5) 0.136(10) 1. 0 
O4 O2- 4 e 0.170(3) 0.850(3) 0.238(3) 1. 0 

#End of data_34303-ICSD


