data_33851-ICSD
#?2014 by Fachinformationszentrum Karlsruhe, and the U.S. Secretary of 
#Commerce on behalf of the United States.  All rights reserved.
_database_code_ICSD                33851
_audit_creation_date               1991/07/10
_audit_update_record               2000/07/15
_chemical_name_systematic          'Calcium Copper Divanadate'
_chemical_formula_structural       'Ca Cu (V2 O7)'
_chemical_formula_sum              'Ca1 Cu1 O7 V2'
_publ_section_title
;
Der Uebergang von planaren zu tetraedrischen Cu O4-Baugruppen in Ca 
Cu V2 O7
;
loop_
_citation_id
_citation_journal_abbrev
_citation_year
_citation_journal_volume
_citation_page_first
_citation_page_last
_citation_journal_id_ASTM
primary 'Zeitschrift fuer Anorganische und Allgemeine Chemie (1950) (DE)'
 1991 594 119 126 ZAACAB
_publ_author_name                  'Vogt, R.;Mueller Buschbaum, H.'
_cell_length_a                     10.0101(37)
_cell_length_b                     8.8454(51)
_cell_length_c                     10.1899(19)
_cell_angle_alpha                  90.
_cell_angle_beta                   91.032(17)
_cell_angle_gamma                  90.
_cell_volume                       902.1
_cell_formula_units_Z              6
_symmetry_space_group_name_H-M     'P 1 2/c 1'
_symmetry_Int_Tables_number        13
_refine_ls_R_factor_all            .052
loop_
_symmetry_equiv_pos_site_id
_symmetry_equiv_pos_as_xyz
  1	'x, -y, z+.5'
  2	'-x, -y, -z'
  3	'-x, y, -z+.5'
  4	'x, y, z'
loop_
_atom_type_symbol
_atom_type_oxidation_number
Ca2+	2
Cu2+	2
O2-	-2
V5+	5
loop_
_atom_site_label
_atom_site_type_symbol
_atom_site_symmetry_multiplicity
_atom_site_Wyckoff_symbol
_atom_site_fract_x
_atom_site_fract_y
_atom_site_fract_z
_atom_site_occupancy
_atom_site_attached_hydrogens
_atom_site_B_iso_or_equiv
Cu1 Cu2+ 2 f 0.5 0.4437(2) 0.25 1. 0 1.02(3) 
Cu2 Cu2+ 4 g 0.1903(1) 0.9362(2) 0.0899(1) 1. 0 0.98(2) 
V1 V5+ 4 g 0.5230(2) 0.7061(2) 0.0412(2) 1. 0 0.54(2) 
V2 V5+ 4 g 0.1658(2) 0.2043(2) 0.2889(2) 1. 0 0.57(2) 
V3 V5+ 4 g 0.1614(2) 0.7455(2) 0.3817(2) 1. 0 0.51(2) 
Ca1 Ca2+ 4 g 0.8175(2) 0.5557(2) 0.4331(2) 1. 0 0.57(2) 
Ca2 Ca2+ 2 f 0.5 0.0672(4) 0.25 1. 0 0.84(5) 
O1 O2- 4 g 0.578(1) 0.415(1) 0.877(1) 1. 0 0.87(11) 
O2 O2- 4 g 0.518(1) 0.286(1) 0.123(1) 1. 0 0.96(12) 
O3 O2- 4 g 0.170(1) 0.227(1) 0.715(1) 1. 0 0.92(12) 
O4 O2- 4 g 0.270(1) 0.075(1) 0.216(1) 1. 0 0.84(10) 
O5 O2- 4 g 0.309(1) 0.356(1) 0.941(1) 1. 0 1.03(11) 
O6 O2- 4 g 0.047(1) 0.380(1) 0.923(1) 1. 0 1.22(12) 
O7 O2- 4 g 0.193(1) 0.214(1) 0.456(1) 1. 0 0.82(11) 
O8 O2- 4 g 0.194(1) 0.626(1) 0.732(1) 1. 0 1.87(16) 
O9 O2- 4 g 0.491(1) 0.124(1) 0.901(1) 1. 0 1.68(14) 
O10 O2- 2 e 0 0.144(1) 0.25 1. 0 1.5(2) 
O11 O2- 4 g 0.147(1) 0.096(1) 0.964(1) 1. 0 2.00(17) 

#End of data_33851-ICSD


