data_202650-ICSD
#?2014 by Fachinformationszentrum Karlsruhe, and the U.S. Secretary of 
#Commerce on behalf of the United States.  All rights reserved.
_database_code_ICSD                202650
_audit_creation_date               1989/06/19
_audit_update_record               1990/05/24
_chemical_name_systematic
;
Potassium Catena-aquotetrafluoromanganate(III)
;
_chemical_formula_structural       'K Mn F4 (H2 O)'
_chemical_formula_sum              'H2 F4 K1 Mn1 O1'
_publ_section_title
;
Crystal Structure and Magnetic Properties of Linear Chain Potassium 
Aquotetrafluoromanganate(III)
;
loop_
_citation_id
_citation_journal_abbrev
_citation_year
_citation_journal_volume
_citation_page_first
_citation_page_last
_citation_journal_id_ASTM
primary 'Journal of Solid State Chemistry' 1988 76 33 39 JSSCBI
_publ_author_name
;
Palacio, F.;Andres, M.;Esteban-Calderon, C.;Martinez-Ripoll, 
M.;Garcia Blanco, S.
;
_cell_length_a                     13.907(1)
_cell_length_b                     6.2136(2)
_cell_length_c                     10.492(1)
_cell_angle_alpha                  90.
_cell_angle_beta                   104.69(1)
_cell_angle_gamma                  90.
_cell_volume                       877
_cell_formula_units_Z              8
_symmetry_space_group_name_H-M     'C 1 2/c 1'
_symmetry_Int_Tables_number        15
_refine_ls_R_factor_all            .044
loop_
_symmetry_equiv_pos_site_id
_symmetry_equiv_pos_as_xyz
  1	'x, -y, z+.5'
  2	'-x, -y, -z'
  3	'-x, y, -z+.5'
  4	'x, y, z'
  5	'x+.5, -y+.5, z+.5'
  6	'-x+.5, -y+.5, -z'
  7	'-x+.5, y+.5, -z+.5'
  8	'x+.5, y+.5, z'
loop_
_atom_type_symbol
_atom_type_oxidation_number
F1-	-1
H1+	1
K1+	1
Mn3+	3
O2-	-2
loop_
_atom_site_label
_atom_site_type_symbol
_atom_site_symmetry_multiplicity
_atom_site_Wyckoff_symbol
_atom_site_fract_x
_atom_site_fract_y
_atom_site_fract_z
_atom_site_occupancy
_atom_site_attached_hydrogens
_atom_site_U_iso_or_equiv
K1 K1+ 8 f 0.0806 0.7422(1) 0.4425(1) 1. 0 0 
Mn1 Mn3+ 4 d 0.25 0.25 0.5 1. 0 0 
Mn2 Mn3+ 4 e 0 0.2469(1) 0.25 1. 0 0 
F1 F1- 8 f 0.1075(1) 0.2539(3) 0.4368(2) 1. 0 0 
F2 F1- 8 f 0.2501(1) -.0317(2) 0.4621(2) 1. 0 0 
F3 F1- 8 f 0.0649(1) 0.0349(3) 0.1817(2) 1. 0 0 
F4 F1- 8 f 0.0681(1) 0.4569(3) 0.1863(2) 1. 0 0 
O1 O2- 8 f 0.2644(1) 0.3249(3) 0.3052(2) 1. 0 0 
H1 H1+ 8 f 0.320(8) 0.414(6) 0.314(9) 1. 0 0.063 
H2 H1+ 8 f 0.220(7) 0.394(16) 0.266(9) 1. 0 0.063 

loop_
_atom_site_aniso_label
_atom_site_aniso_type_symbol
_atom_site_aniso_U_11
_atom_site_aniso_U_22
_atom_site_aniso_U_33
_atom_site_aniso_U_12
_atom_site_aniso_U_13
_atom_site_aniso_U_23
K1 K1+ 0.0271(2) 0.0263(2) 0.0342(2) 0.0002(2) 0.0035(2) 0.0013(2)
Mn1 Mn3+ 0.0104(2) 0.0143(2) 0.0152(2) -.0011(1) 0.0009(1) 0.0011(1)
Mn2 Mn3+ 0.0087(1) 0.0144(2) 0.0161(3) 0 0.0026(1) 0
F1 F1- 0.0132(5) 0.0443(9) 0.0189(9) -.0006(5) -.0013(4) 0.0017(5)
F2 F1- 0.0319(7) 0.0166(5) 0.0358(9) -.0007(5) 0.0080(6) -.0010(5)
F3 F1- 0.0223(6) 0.0378(8) 0.0415(11) 0.0104(6) 0.0025(6) -.0173(7)
F4 F1- 0.0194(6) 0.0348(7) 0.0362(10) -.0079(5) 0.0033(5) 0.0152(7)
O1 O2- 0.0196(7) 0.0377(9) 0.0238(11) -.0049(6) 0.0053(6) 0.0080(7)
#End of data_202650-ICSD


