data_72532-ICSD
#?2014 by Fachinformationszentrum Karlsruhe, and the U.S. Secretary of 
#Commerce on behalf of the United States.  All rights reserved.
_database_code_ICSD                72532
_audit_creation_date               1994/01/19
_audit_update_record               2006/04/01
_chemical_name_systematic
;
Dicalcium Catena-trinitridophosphate
;
_chemical_formula_structural       'Ca2 (P N3)'
_chemical_formula_sum              'Ca2 N3 P1'
_publ_section_title
;
Ca2 P N3 - ein neues Phosphor(V)-nitrid mit eindimensional 
unendlichen Ketten eckenverknuepfter P N4-Tetraeder
;
loop_
_citation_id
_citation_journal_abbrev
_citation_year
_citation_journal_volume
_citation_journal_issue
_citation_page_first
_citation_page_last
_citation_journal_id_ASTM
primary 'Angewandte Chemie (German Edition)' 1993 105 2 308 309 ANCEAD
2 'Zeitschrift fuer Anorganische und Allgemeine Chemie (1950) (DE)'
 1997 623- 69 74 ZAACAB
_publ_author_name                  'Schnick, W.;Schultz-Coulon, V.'
_cell_length_a                     5.1914(4)
_cell_length_b                     10.3160(8)
_cell_length_c                     11.2891(10)
_cell_angle_alpha                  90.
_cell_angle_beta                   90.
_cell_angle_gamma                  90.
_cell_volume                       604.58
_cell_formula_units_Z              8
_symmetry_space_group_name_H-M     'C m c a'
_symmetry_Int_Tables_number        64
_refine_ls_R_factor_all            .049
loop_
_symmetry_equiv_pos_site_id
_symmetry_equiv_pos_as_xyz
  1	'-x, -y+.5, z+.5'
  2	'-x, y+.5, -z+.5'
  3	'-x, y, z'
  4	'-x, -y, -z'
  5	'x, y+.5, -z+.5'
  6	'x, -y+.5, z+.5'
  7	'x, -y, -z'
  8	'x, y, z'
  9	'-x+.5, -y, z+.5'
 10	'-x+.5, y, -z+.5'
 11	'-x+.5, y+.5, z'
 12	'-x+.5, -y+.5, -z'
 13	'x+.5, y, -z+.5'
 14	'x+.5, -y, z+.5'
 15	'x+.5, -y+.5, -z'
 16	'x+.5, y+.5, z'
loop_
_atom_type_symbol
_atom_type_oxidation_number
Ca2+	2
N3-	-3
P5+	5
loop_
_atom_site_label
_atom_site_type_symbol
_atom_site_symmetry_multiplicity
_atom_site_Wyckoff_symbol
_atom_site_fract_x
_atom_site_fract_y
_atom_site_fract_z
_atom_site_occupancy
_atom_site_attached_hydrogens
_atom_site_U_iso_or_equiv
Ca1 Ca2+ 8 f 0 0.05287(92) 0.14398(88) 1. 0 0.0266(31) 
Ca2 Ca2+ 8 f 0 0.36209(72) 0.07435(76) 1. 0 0.0201(28) 
P1 P5+ 8 f 0 0.2438(13) 0.3343(13) 1. 0 0.0264(38) 
N1 N3- 8 f 0 0.3376(28) 0.4458(23) 1. 0 0.0059(84) 
N2 N3- 8 f 0 0.0847(28) 0.3587(26) 1. 0 0.0053(78) 
N3 N3- 8 e 0.25 0.2883(23) 0.25 1. 0 0.0015(71) 

#End of data_72532-ICSD


