data_63630-ICSD
#?2014 by Fachinformationszentrum Karlsruhe, and the U.S. Secretary of 
#Commerce on behalf of the United States.  All rights reserved.
_database_code_ICSD                63630
_audit_creation_date               1988/12/19
_chemical_name_systematic
;
Cadmium Potassium Trirubidium Hexachloride
;
_chemical_formula_structural       'Cd Cl2 K Cl Rb3 Cl3'
_chemical_formula_sum              'Cd1 Cl6 K1 Rb3'
_publ_section_title
;
Crystal structure of CdCl2 KCl 3RbCl
;
loop_
_citation_id
_citation_journal_abbrev
_citation_year
_citation_journal_volume
_citation_page_first
_citation_page_last
_citation_journal_id_ASTM
primary Kristallografiya 1987 32 1529 1530 KRISAJ
2 'Soviet Physics, Crystallography (= Kristallografiya)'
 1987 32 899 900 SPHCA6
_publ_author_name
;
Sorokina, N.I.;Andrianov, V.I.;Malakhova, L.F.;Furmanova, N.G.
;
_cell_length_a                     12.441(7)
_cell_length_b                     12.441(7)
_cell_length_c                     15.073(6)
_cell_angle_alpha                  90.
_cell_angle_beta                   90.
_cell_angle_gamma                  120.
_cell_volume                       2020.42
_cell_formula_units_Z              6
_symmetry_space_group_name_H-M     'R 3 c H'
_symmetry_Int_Tables_number        161
_refine_ls_R_factor_all            .0402
loop_
_symmetry_equiv_pos_site_id
_symmetry_equiv_pos_as_xyz
  1	'-x+y, y, z+.5'
  2	'x, x-y, z+.5'
  3	'-y, -x, z+.5'
  4	'-x+y, -x, z'
  5	'-y, x-y, z'
  6	'x, y, z'
  7	'-x+y+.6666, y+.3333, z+.8333'
  8	'-x+y+.3333, y+.6666, z+.1666'
  9	'x+.6666, x-y+.3333, z+.8333'
 10	'x+.3333, x-y+.6666, z+.1666'
 11	'-y+.6666, -x+.3333, z+.8333'
 12	'-y+.3333, -x+.6666, z+.1666'
 13	'-x+y+.6666, -x+.3333, z+.3333'
 14	'-x+y+.3333, -x+.6666, z+.6666'
 15	'-y+.6666, x-y+.3333, z+.3333'
 16	'-y+.3333, x-y+.6666, z+.6666'
 17	'x+.6666, y+.3333, z+.3333'
 18	'x+.3333, y+.6666, z+.6666'
loop_
_atom_type_symbol
_atom_type_oxidation_number
Cd2+	2
Cl1-	-1
K1+	1
Rb1+	1
loop_
_atom_site_label
_atom_site_type_symbol
_atom_site_symmetry_multiplicity
_atom_site_Wyckoff_symbol
_atom_site_fract_x
_atom_site_fract_y
_atom_site_fract_z
_atom_site_occupancy
_atom_site_attached_hydrogens
Cd1 Cd2+ 6 a 0 0 0 1. 0 
Rb1 Rb1+ 18 b 0.7072(4) 0.6671(4) 0.4193(3) 1. 0 
K1 K1+ 6 a 0 0 0.25 1. 0 
Cl1 Cl1- 18 b 0.9785(8) 0.8406(9) 0.3995(10) 1. 0 
Cl2 Cl1- 18 b 0.6332(9) 0.1454(11) 0.4391(9) 1. 0 

#End of data_63630-ICSD


