data_36564-ICSD
#?2014 by Fachinformationszentrum Karlsruhe, and the U.S. Secretary of 
#Commerce on behalf of the United States.  All rights reserved.
_database_code_ICSD                36564
_audit_creation_date               1992/08/20
_audit_update_record               2005/10/01
_chemical_name_systematic
;
Aluminium Molybdenum Sulfide (1/4/8)
;
_chemical_formula_structural       'Al Mo4 S8'
_chemical_formula_sum              'Al1 Mo4 S8'
_publ_section_title
;
Structural phase transition in Ga Mo4 Se8 and Al Mo4S 8 by X-ray 
powder diffraction
;
loop_
_citation_id
_citation_journal_abbrev
_citation_year
_citation_journal_volume
_citation_page_first
_citation_page_last
_citation_journal_id_ASTM
primary 'Zeitschrift fuer Kristallographie (1979-2010)' 1992 200 47 55 ZEKRDZ
_publ_author_name
;
Francois, M.;Alexandrov, O.V.;Yvon, K.;Ben Yaich-Aerrache, 
H.;Gougeon, P.;Potel, M.;Sergent, M.
;
_cell_length_a                     6.8500(3)
_cell_length_b                     6.8500(3)
_cell_length_c                     6.8500(3)
_cell_angle_alpha                  60.374(5)
_cell_angle_beta                   60.374(5)
_cell_angle_gamma                  60.374(5)
_cell_volume                       229.2
_cell_formula_units_Z              1
_symmetry_space_group_name_H-M     'R 3 m R'
_symmetry_Int_Tables_number        160
_refine_ls_R_factor_all            .025
loop_
_symmetry_equiv_pos_site_id
_symmetry_equiv_pos_as_xyz
  1	'z, y, x'
  2	'z, x, y'
  3	'x, z, y'
  4	'y, z, x'
  5	'y, x, z'
  6	'x, y, z'
loop_
_atom_type_symbol
_atom_type_oxidation_number
Al3+	3
Mo3.25+	3.25
S2-	-2
loop_
_atom_site_label
_atom_site_type_symbol
_atom_site_symmetry_multiplicity
_atom_site_Wyckoff_symbol
_atom_site_fract_x
_atom_site_fract_y
_atom_site_fract_z
_atom_site_occupancy
_atom_site_attached_hydrogens
_atom_site_B_iso_or_equiv
Mo1 Mo3.25+ 1 a 0.399(2) 0.399(2) 0.399(2) 1. 0 0.1(1) 
Mo2 Mo3.25+ 3 b 0.399(2) 0.399(2) 0.814(2) 1. 0 0.1(1) 
S1 S2- 1 a 0.636(2) 0.636(2) 0.636(2) 1. 0 0.18(14) 
S2 S2- 3 b 0.640(3) 0.640(3) 0.097(3) 1. 0 0.18(14) 
S3 S2- 1 a 0.136(2) 0.136(2) 0.136(2) 1. 0 0.18(14) 
S4 S2- 3 b 0.144(3) 0.144(3) 0.606(3) 1. 0 0.18(14) 
Al1 Al3+ 1 a 0 0 0 1. 0 0.6(5) 

#End of data_36564-ICSD


