data_66825-ICSD
#?2014 by Fachinformationszentrum Karlsruhe, and the U.S. Secretary of 
#Commerce on behalf of the United States.  All rights reserved.
_database_code_ICSD                66825
_audit_creation_date               1997/05/13
_audit_update_record               1997/11/10
_chemical_name_systematic
;
Potassium Digermanium Tris(phosphate(V))
;
_chemical_formula_structural       'K Ge2 (P O4)3'
_chemical_formula_sum              'Ge2 K1 O12 P3'
_publ_section_title
;
Structure and thermal expansion of K Ge (P O4)3
;
loop_
_citation_id
_citation_journal_abbrev
_citation_year
_citation_journal_volume
_citation_page_first
_citation_page_last
_citation_journal_id_ASTM
primary 'Materials Research Bulletin' 1997 32 113 122 MRBUAC
_publ_author_name
;
Brochu, R.;Louer, M.;Alami, M.;Alqaraoui, M.;Louer, D.
;
_cell_length_a                     8.0066(7)
_cell_length_b                     8.0066(7)
_cell_length_c                     22.5660(40)
_cell_angle_alpha                  90.
_cell_angle_beta                   90.
_cell_angle_gamma                  120.
_cell_volume                       1252.8
_cell_formula_units_Z              6
_symmetry_space_group_name_H-M     'R -3 H'
_symmetry_Int_Tables_number        148
_refine_ls_R_factor_all            .062
loop_
_symmetry_equiv_pos_site_id
_symmetry_equiv_pos_as_xyz
  1	'x-y, x, -z'
  2	'y, -x+y, -z'
  3	'-x, -y, -z'
  4	'-x+y, -x, z'
  5	'-y, x-y, z'
  6	'x, y, z'
  7	'x-y+.6666, x+.3333, -z+.3333'
  8	'x-y+.3333, x+.6666, -z+.6666'
  9	'y+.6666, -x+y+.3333, -z+.3333'
 10	'y+.3333, -x+y+.6666, -z+.6666'
 11	'-x+.6666, -y+.3333, -z+.3333'
 12	'-x+.3333, -y+.6666, -z+.6666'
 13	'-x+y+.6666, -x+.3333, z+.3333'
 14	'-x+y+.3333, -x+.6666, z+.6666'
 15	'-y+.6666, x-y+.3333, z+.3333'
 16	'-y+.3333, x-y+.6666, z+.6666'
 17	'x+.6666, y+.3333, z+.3333'
 18	'x+.3333, y+.6666, z+.6666'
loop_
_atom_type_symbol
_atom_type_oxidation_number
Ge4+	4
K1+	1
O2-	-2
P5+	5
loop_
_atom_site_label
_atom_site_type_symbol
_atom_site_symmetry_multiplicity
_atom_site_Wyckoff_symbol
_atom_site_fract_x
_atom_site_fract_y
_atom_site_fract_z
_atom_site_occupancy
_atom_site_attached_hydrogens
_atom_site_B_iso_or_equiv
K1 K1+ 3 a 0 0 0 1. 0 1.78(7) 
K2 K1+ 3 b 0 0 0.5 1. 0 1.78(7) 
Ge1 Ge4+ 6 c 0 0 0.1476(1) 1. 0 0.77(2) 
Ge2 Ge4+ 6 c 0 0 0.6524(1) 1. 0 0.77(2) 
P1 P5+ 18 f 0.2810(3) -.0048(5) 0.2505(2) 1. 0 0.79(3) 
O1 O2- 18 f 0.165(1) -.040(1) 0.1929(3) 1. 0 0.98(5) 
O2 O2- 18 f 0.083(1) -.134(1) 0.6987(2) 1. 0 0.98(5) 
O3 O2- 18 f 0.167(1) 0.187(1) 0.0959(2) 1. 0 0.98(5) 
O4 O2- 18 f -.136(1) -.214(1) 0.6023(2) 1. 0 0.98(5) 

#End of data_66825-ICSD


