data_415471-ICSD
#?2014 by Fachinformationszentrum Karlsruhe, and the U.S. Secretary of 
#Commerce on behalf of the United States.  All rights reserved.
_database_code_ICSD                415471
_audit_creation_date               2007/04/01
_chemical_name_systematic          'Disilver Telluro(IV)tellurate - I'
_chemical_formula_structural       'Ag2 (Te2 O6)'
_chemical_formula_sum              'Ag2 O6 Te2'
_publ_section_title                'Neue Silber(I)-oxotellurate(IV/VI)'
loop_
_citation_id
_citation_journal_abbrev
_citation_year
_citation_journal_volume
_citation_page_first
_citation_page_last
_citation_journal_id_ASTM
primary 'Zeitschrift fuer Anorganische und Allgemeine Chemie (1950) (DE)'
 2005 631 2893 2899 ZAACAB
_publ_author_name
;
Klein, W.;Curda, J.;Peters, E.M.;Jansen, M.
;
_cell_length_a                     5.9099(5)
_cell_length_b                     11.6831(8)
_cell_length_c                     8.0305(7)
_cell_angle_alpha                  90.00
_cell_angle_beta                   100.424(7)
_cell_angle_gamma                  90.00
_cell_volume                       545.32
_cell_formula_units_Z              4
_symmetry_space_group_name_H-M     'P 1 21/n 1'
_symmetry_Int_Tables_number        14
_refine_ls_R_factor_all            .0274
loop_
_symmetry_equiv_pos_site_id
_symmetry_equiv_pos_as_xyz
  1	'-x+.5, y+.5, -z+.5'
  2	'-x, -y, -z'
  3	'x+.5, -y+.5, z+.5'
  4	'x, y, z'
loop_
_atom_type_symbol
_atom_type_oxidation_number
Ag1+	1
O2-	-2
Te4+	4
Te6+	6
loop_
_atom_site_label
_atom_site_type_symbol
_atom_site_symmetry_multiplicity
_atom_site_Wyckoff_symbol
_atom_site_fract_x
_atom_site_fract_y
_atom_site_fract_z
_atom_site_occupancy
_atom_site_attached_hydrogens
_atom_site_U_iso_or_equiv
Ag1 Ag1+ 4 e 0.35184(8) 0.17231(4) 0.77476(6) 1 0 0.01736(12) 
Ag2 Ag1+ 4 e 0.91973(9) 0.14448(4) 0.52816(7) 1 0 0.02248(13) 
Te1 Te6+ 4 e 0.40085(6) 0.37696(3) 0.49156(4) 1 0 0.00873(10) 
Te2 Te4+ 4 e 0.38047(6) 0.07583(3) 0.31130(4) 1 0 0.01060(10) 
O1 O2- 4 e 0.1461(7) 0.3149(4) 0.5609(5) 1 0 0.0154(8) 
O2 O2- 4 e 0.6702(7) 0.4641(3) 0.4441(5) 1 0 0.0121(7) 
O3 O2- 4 e 0.5246(7) 0.2436(3) 0.4100(5) 1 0 0.0137(8) 
O4 O2- 4 e 0.5833(7) 0.3535(4) 0.7221(5) 1 0 0.0140(8) 
O5 O2- 4 e 0.2431(7) 0.4142(3) 0.2637(5) 1 0 0.0143(8) 
O6 O2- 4 e 0.2880(7) 0.0443(3) 0.5160(5) 1 0 0.0131(8) 

loop_
_atom_site_aniso_label
_atom_site_aniso_type_symbol
_atom_site_aniso_U_11
_atom_site_aniso_U_22
_atom_site_aniso_U_33
_atom_site_aniso_U_12
_atom_site_aniso_U_13
_atom_site_aniso_U_23
Ag1 Ag1+ 0.0158(2) 0.0192(2) 0.0168(2) 0.0002(2) 0.0021(2) 0.0026(2)
Ag2 Ag1+ 0.0178(2) 0.0218(3) 0.0279(3) -0.0050(2) 0.0044(2) 0.0039(2)
Te1 Te6+ 0.0094(2) 0.0073(2) 0.0086(2) -0.00019(11) -0.00055(12) 
-0.00009(11)
Te2 Te4+ 0.0121(2) 0.0107(2) 0.0082(2) -0.00010(12) -0.00024(12) 
0.00006(12)
O1 O2- 0.012(2) 0.018(2) 0.017(2) -0.006(2) 0.004(2) 0.000(2)
O2 O2- 0.013(2) 0.009(2) 0.015(2) -0.0011(14) 0.0022(15) -0.0005(15)
O3 O2- 0.012(2) 0.011(2) 0.017(2) 0.0005(15) 0.0002(15) -0.0035(15)
O4 O2- 0.017(2) 0.014(2) 0.011(2) -0.004(2) -0.0008(15) 0.0025(15)
O5 O2- 0.017(2) 0.010(2) 0.014(2) 0.001(2) -0.003(2) -0.0013(15)
O6 O2- 0.017(2) 0.014(2) 0.009(2) -0.004(2) 0.0036(15) 0.0025(14)
#End of data_415471-ICSD


