data_182658-ICSD
#?2014 by Fachinformationszentrum Karlsruhe, and the U.S. Secretary of 
#Commerce on behalf of the United States.  All rights reserved.
_database_code_ICSD                182658
_audit_creation_date               2012/02/01
_chemical_name_systematic          'Potassium Titanium Oxide Phosphate'
_chemical_formula_structural       'K Ti O (P O4)'
_chemical_formula_sum              'K1 O5 P1 Ti1'
_publ_section_title
;
A neutron total scattering study of local coordination in K Ti O P O4 
from room temperature to 900 C
;
loop_
_citation_id
_citation_journal_abbrev
_citation_year
_citation_journal_volume
_citation_page_first
_citation_page_last
_citation_journal_id_ASTM
primary 'Journal of Physics: Condensed Matter' 2011 23 175401-1 175401-11 JCOMEL
_publ_author_name
;
Norberg, S.T.;Thomas, P.A.;Tucker, M.G.
;
_cell_length_a                     12.9478(2)
_cell_length_b                     6.48479(13)
_cell_length_c                     10.54550(11)
_cell_angle_alpha                  90.
_cell_angle_beta                   90.
_cell_angle_gamma                  90.
_cell_volume                       885.44
_cell_formula_units_Z              8
_symmetry_space_group_name_H-M     'P n a 21'
_symmetry_Int_Tables_number        33
_refine_ls_R_factor_all            .0522
loop_
_symmetry_equiv_pos_site_id
_symmetry_equiv_pos_as_xyz
  1	'x+.5, -y+.5, z'
  2	'-x+.5, y+.5, z+.5'
  3	'-x, -y, z+.5'
  4	'x, y, z'
loop_
_atom_type_symbol
_atom_type_oxidation_number
K1+	1
O2-	-2
P5+	5
Ti4+	4
loop_
_atom_site_label
_atom_site_type_symbol
_atom_site_symmetry_multiplicity
_atom_site_Wyckoff_symbol
_atom_site_fract_x
_atom_site_fract_y
_atom_site_fract_z
_atom_site_occupancy
_atom_site_attached_hydrogens
_atom_site_U_iso_or_equiv
K1 K1+ 4 a 0.3890(14) 0.215(3) 0.3436(15) 1. 0 0.073(3) 
K2 K1+ 4 a 0.1109(14) 0.311(4) 0.0801(18) 1. 0 0.073(3) 
Ti1 Ti4+ 4 a 0.3719(4) 0.5108(18) 0.0090(11) 1. 0 0.0128(9) 
Ti2 Ti4+ 4 a 0.2448(8) 0.7410(18) 0.2490(11) 1. 0 0.0128(9) 
P1 P5+ 4 a 0.4983(7) 0.6623(6) 0.2610(8) 1. 0 0.0097(4) 
P2 P5+ 4 a 0.1784(3) 0.5035(14) 0.5089(9) 1. 0 0.0097(4) 
O1 O2- 4 a 0.4848(4) 0.5011(10) 0.1524(5) 1. 0 0.02128(19) 
O2 O2- 4 a 0.5080(5) 0.5435(7) 0.3878(6) 1. 0 0.02128(19) 
O3 O2- 4 a 0.4028(5) 0.8016(12) 0.2773(8) 1. 0 0.02128(19) 
O4 O2- 4 a 0.5921(6) 0.8047(13) 0.2365(8) 1. 0 0.02128(19) 
O5 O2- 4 a 0.2822(5) 0.5367(11) 0.1362(6) 1. 0 0.02128(19) 
O6 O2- 4 a 0.2297(5) 0.9503(11) 0.3854(6) 1. 0 0.02128(19) 
O7 O2- 4 a 0.1001(4) 0.6896(14) 0.5358(7) 1. 0 0.02128(19) 
O8 O2- 4 a 0.1182(4) 0.3078(11) 0.4773(6) 1. 0 0.02128(19) 
O9 O2- 4 a 0.2538(5) 0.4469(10) 0.6144(5) 1. 0 0.02128(19) 
O10 O2- 4 a 0.2446(4) 0.5345(9) 0.3875(6) 1. 0 0.02128(19) 

#End of data_182658-ICSD


