data_240701-ICSD
#?2014 by Fachinformationszentrum Karlsruhe, and the U.S. Secretary of 
#Commerce on behalf of the United States.  All rights reserved.
_database_code_ICSD                240701
_audit_creation_date               2007/08/01
_chemical_name_systematic
;
Potassium Tetraoxoselenate Pentaoxoselenate
;
_chemical_formula_structural       'K6 (Se O4) (Se O5)'
_chemical_formula_sum              'K6 O9 Se2'
_publ_section_title
;
High-Pressure Synthesis and Structure Determination of K6 (Se O4) (Se 
O5), the First Potassium Orthoselenate(VI)
;
loop_
_citation_id
_citation_journal_abbrev
_citation_year
_citation_journal_volume
_citation_journal_issue
_citation_page_first
_citation_page_last
_citation_journal_id_ASTM
primary 'Inorganic Chemistry' 2006 45 26 10947 10950 INOCAJ
_publ_author_name
;
Orosel, D.;Dinnebier, R.;Jansen, M.
;
_cell_length_a                     8.1259
_cell_length_b                     8.1259
_cell_length_c                     17.4953(2)
_cell_angle_alpha                  90.0
_cell_angle_beta                   90.0
_cell_angle_gamma                  90.0
_cell_volume                       1155.22
_cell_formula_units_Z              4
_symmetry_space_group_name_H-M     'P 41 21 2'
_symmetry_Int_Tables_number        92
loop_
_symmetry_equiv_pos_site_id
_symmetry_equiv_pos_as_xyz
  1	'x+.5, -y+.5, -z+.75'
  2	'-x+.5, y+.5, -z+.25'
  3	'-y, -x, -z+.5'
  4	'y, x, -z'
  5	'y+.5, -x+.5, z+.75'
  6	'-y+.5, x+.5, z+.25'
  7	'-x, -y, z+.5'
  8	'x, y, z'
loop_
_atom_type_symbol
_atom_type_oxidation_number
K1+	1
O2-	-2
Se6+	6
loop_
_atom_site_label
_atom_site_type_symbol
_atom_site_symmetry_multiplicity
_atom_site_Wyckoff_symbol
_atom_site_fract_x
_atom_site_fract_y
_atom_site_fract_z
_atom_site_occupancy
_atom_site_attached_hydrogens
_atom_site_U_iso_or_equiv
Se1 Se6+ 4 a 0.23811(31) 0.23811(31) 0.0 1.0 0 0.00176(30) 
Se2 Se6+ 4 a 0.25296(29) 0.25296(29) 0.5 1.0 0 0.00176(30) 
K1 K1+ 8 b -0.0032(9) 0.4760(10) 0.3731(7) 1.0 0 0.0167(13) 
K2 K1+ 8 b 0.2225(6) 0.2120(6) 0.24551(34) 1.0 0 0.0218(12) 
K3 K1+ 8 b -0.0013(6) 0.0419(8) 0.39569(19) 1.0 0 0.0119(15) 
O1 O2- 8 b 0.2597(23) 0.0384(6) 0.0133(9) 1.0 0 0.028(4) 
O2 O2- 8 b 0.2973(25) 0.3349(20) 0.0771(5) 1.0 0 0.065(6) 
O3 O2- 8 b 0.2558(22) 0.2556(23) 0.39927(26) 1.0 0 0.0088(25) 
O4 O2- 8 b 0.0581(6) 0.3069(13) 0.4985(13) 1.0 0 0.011(4) 
O5 O2- 4 a 0.6047(6) 0.6047(6) 0.0 1.0 0 0.022(5) 

#End of data_240701-ICSD


