data_260228-ICSD
#?2014 by Fachinformationszentrum Karlsruhe, and the U.S. Secretary of 
#Commerce on behalf of the United States.  All rights reserved.
_database_code_ICSD                260228
_audit_creation_date               2009/08/01
_chemical_name_systematic
;
Calcium(II) Tellurium(IV) Oxide - Beta
;
_chemical_formula_structural       'Ca (Te O3)'
_chemical_formula_sum              'Ca1 O3 Te1'
_publ_section_title
;
Polymorphism of Ca Te O3 and solid solutions Ca(x) Sr(1-x) Te O3
;
loop_
_citation_id
_citation_journal_abbrev
_citation_year
_citation_journal_volume
_citation_journal_issue
_citation_page_first
_citation_page_last
_citation_journal_id_ASTM
primary 'Acta Crystallographica, Section B: Structural Science'
 2009 65 2 167 181 ASBSDK
_publ_author_name
;
Stoeger, B.;Weil, M.;Zobetz, E.;Giester, G.
;
_cell_length_a                     25.6220(4)
_cell_length_b                     10.2426(2)
_cell_length_c                     11.3327(2)
_cell_angle_alpha                  107.2180(10)
_cell_angle_beta                   110.245(2)
_cell_angle_gamma                  33.0190(10)
_cell_volume                       1520.42
_cell_formula_units_Z              18
_symmetry_space_group_name_H-M     'P 1'
_symmetry_Int_Tables_number        1
_refine_ls_R_factor_all            .0506
loop_
_symmetry_equiv_pos_site_id
_symmetry_equiv_pos_as_xyz
  1	'x, y, z'
loop_
_atom_type_symbol
_atom_type_oxidation_number
Ca2+	2
O2-	-2
Te4+	4
loop_
_atom_site_label
_atom_site_type_symbol
_atom_site_symmetry_multiplicity
_atom_site_Wyckoff_symbol
_atom_site_fract_x
_atom_site_fract_y
_atom_site_fract_z
_atom_site_occupancy
_atom_site_attached_hydrogens
_atom_site_U_iso_or_equiv
Te1 Te4+ 1 a 0.19487(6) 0.22004(13) -0.26521(7) 1 0 0.01439(16) 
Te2 Te4+ 1 a 0.52120(6) 0.26161(14) -0.24889(7) 1 0 0.01896(17) 
Te3 Te4+ 1 a -0.14117(5) 0.24957(12) 0.73532(7) 1 0 0.01046(15) 
Te4 Te4+ 1 a 0.14402(5) -0.25884(12) 0.26328(6) 1 0 0.00988(15) 
Te5 Te4+ 1 a 0.47094(6) -0.22737(15) 0.25904(7) 1 0 0.01879(17) 
Te6 Te4+ 1 a -0.19993(6) -0.21432(13) 0.25621(7) 1 0 0.01373(15) 
Te7 Te4+ 1 a 0.02418(6) -0.26831(13) 0.47506(7) 1 0 0.01576(17) 
Te8 Te4+ 1 a 0.35222(6) -0.23313(15) 0.45956(8) 1 0 0.01822(18) 
Te9 Te4+ 1 a -0.32047(6) 0.75683(14) 0.44481(7) 1 0 0.01618(18) 
Te10 Te4+ 1 a 0.32607(6) 0.23619(13) -0.43982(7) 1 0 0.01618(18) 
Te11 Te4+ 1 a -0.36138(6) 0.26169(16) 0.53847(8) 1 0 0.01864(18) 
Te12 Te4+ 1 a -0.02792(6) 0.26960(13) 0.52049(7) 1 0 0.01620(17) 
Te13 Te4+ 1 a 0.16689(6) 0.26772(14) 0.16495(7) 1 0 0.01330(15) 
Te14 Te4+ 1 a 0.47736(6) -0.69634(12) 0.15612(7) 1 0 0.01337(15) 
Te15 Te4+ 1 a -0.13416(6) 0.20662(12) 0.17973(6) 1 0 0.01197(15) 
Te16 Te4+ 1 a 0.13796(6) -0.22179(12) 0.82260(7) 1 0 0.01338(16) 
Te17 Te4+ 1 a -0.47289(5) 0.69673(12) 0.84952(7) 1 0 0.01258(14) 
Te18 Te4+ 1 a -0.16616(6) -0.27729(13) -0.17110(7) 1 0 0.01344(15) 
Ca1 Ca2+ 1 a -0.07335(18) -0.2881(4) 0.1302(2) 1 0 0.0127(5) 
Ca2 Ca2+ 1 a 0.24225(19) -0.2108(4) 0.1176(2) 1 0 0.0161(5) 
Ca3 Ca2+ 1 a 0.59529(19) -0.2523(4) 0.1449(2) 1 0 0.0153(5) 
Ca4 Ca2+ 1 a 0.4079(2) 0.2555(5) -0.1363(3) 1 0 0.0153(5) 
Ca5 Ca2+ 1 a -0.23990(18) 0.1991(4) 0.8786(2) 1 0 0.0154(5) 
Ca6 Ca2+ 1 a 0.07436(18) 0.2802(4) 0.8655(2) 1 0 0.0132(5) 
Ca7 Ca2+ 1 a -0.07990(19) -0.2395(4) 0.6274(2) 1 0 0.0153(5) 
Ca8 Ca2+ 1 a 0.25643(19) -0.2691(4) 0.5788(2) 1 0 0.0158(5) 
Ca9 Ca2+ 1 a -0.42666(19) 0.7815(4) 0.6351(2) 1 0 0.0179(5) 
Ca10 Ca2+ 1 a -0.56908(19) 1.2299(4) 0.3748(2) 1 0 0.0195(5) 
Ca11 Ca2+ 1 a -0.26207(19) 0.2762(4) 0.4180(2) 1 0 0.0171(5) 
Ca12 Ca2+ 1 a 0.07488(18) 0.2420(4) 0.3640(2) 1 0 0.0143(5) 
Ca13 Ca2+ 1 a 0.02214(19) -0.2346(4) -0.0380(2) 1 0 0.0142(5) 
Ca14 Ca2+ 1 a 0.35033(19) -0.2357(4) -0.0658(2) 1 0 0.0132(5) 
Ca15 Ca2+ 1 a 0.67943(18) -0.2452(4) -0.0404(2) 1 0 0.0137(4) 
Ca16 Ca2+ 1 a 0.32575(18) 0.2226(4) 0.0431(3) 1 0 0.0185(5) 
Ca17 Ca2+ 1 a -0.34924(19) 0.2383(4) 0.0645(2) 1 0 0.0126(5) 
Ca18 Ca2+ 1 a -0.02145(19) 0.2279(4) 0.0366(3) 1 0 0.0160(5) 
O1 O2- 1 a 0.2022(6) 0.0231(14) -0.2579(8) 1 0 0.0180(18) 
O2 O2- 1 a 0.5550(7) -1.9671(14) -0.2044(8) 1 0 0.026(2) 
O3 O2- 1 a -0.1261(6) 0.0615(13) 0.7931(7) 1 0 0.0132(16) 
O4 O2- 1 a 0.1256(6) -0.0668(13) 0.2048(8) 1 0 0.0144(17) 
O5 O2- 1 a 0.4632(7) -0.0393(14) 0.2300(8) 1 0 0.027(2) 
O6 O2- 1 a -0.2048(6) -0.0248(13) 0.2497(7) 1 0 0.0126(15) 
O7 O2- 1 a 0.0744(6) -0.5025(13) -0.2135(7) 1 0 0.0162(17) 
O8 O2- 1 a 0.3889(7) -0.4816(16) -0.2561(8) 1 0 0.041(3) 
O9 O2- 1 a -0.1769(6) 0.4484(13) 0.8783(7) 1 0 0.0163(17) 
O10 O2- 1 a 0.1830(6) -0.4641(13) 0.1239(7) 1 0 0.0164(16) 
O11 O2- 1 a 0.5977(7) -0.5152(15) 0.2472(9) 1 0 0.051(3) 
O12 O2- 1 a -0.0779(6) -0.4941(14) 0.2071(7) 1 0 0.0201(19) 
O13 O2- 1 a 0.2796(7) -0.8855(15) -0.1159(8) 1 0 0.029(2) 
O14 O2- 1 a 0.5285(4) -0.6216(11) -0.0904(6) 1 0 0.0235(14) 
O15 O2- 1 a -0.2615(6) 0.4501(13) 0.6278(8) 1 0 0.0214(18) 
O16 O2- 1 a 0.2632(5) -0.4509(13) 0.3708(7) 1 0 0.0170(17) 
O17 O2- 1 a 0.4050(7) -0.166(2) 0.0986(8) 1 0 0.060(3) 
O18 O2- 1 a -0.2837(6) -0.1075(13) 0.1011(7) 1 0 0.0162(15) 
O19 O2- 1 a -0.0019(7) -0.2520(15) 0.3028(7) 1 0 0.024(2) 
O20 O2- 1 a 0.3329(7) -0.2277(16) 0.2872(7) 1 0 0.0248(19) 
O21 O2- 1 a -0.4059(7) 0.9681(15) 0.3116(8) 1 0 0.027(2) 
O22 O2- 1 a 0.4156(6) 0.0302(14) -0.3048(8) 1 0 0.0231(18) 
O23 O2- 1 a -0.3386(7) 0.2453(16) 0.7115(8) 1 0 0.027(2) 
O24 O2- 1 a -0.0041(7) 0.2639(16) 0.6919(8) 1 0 0.027(2) 
O25 O2- 1 a 0.0530(8) -0.4977(15) 0.4980(9) 1 0 0.032(2) 
O26 O2- 1 a 0.4172(7) -0.5157(16) 0.4883(8) 1 0 0.039(3) 
O27 O2- 1 a -0.2877(7) 0.5202(16) 0.3463(8) 1 0 0.031(2) 
O28 O2- 1 a 0.2766(7) -0.5046(14) -0.3495(8) 1 0 0.028(2) 
O29 O2- 1 a -0.4152(7) 0.5332(15) 0.5141(8) 1 0 0.028(2) 
O30 O2- 1 a -0.0584(7) 0.4985(15) 0.4940(9) 1 0 0.030(2) 
O31 O2- 1 a -0.0973(6) -0.0188(14) 0.5182(8) 1 0 0.0221(19) 
O32 O2- 1 a 0.2336(6) -0.0439(13) 0.4817(8) 1 0 0.0225(19) 
O33 O2- 1 a -0.4169(7) 0.9172(14) 0.5197(8) 1 0 0.031(2) 
O34 O2- 1 a 0.4201(6) 0.1111(15) -0.5011(8) 1 0 0.033(2) 
O35 O2- 1 a -0.2396(6) 0.0471(14) 0.5125(8) 1 0 0.0215(18) 
O36 O2- 1 a 0.0938(6) 0.0220(14) 0.4778(8) 1 0 0.022(2) 
O37 O2- 1 a 0.0587(6) -0.4848(14) 0.0480(8) 1 0 0.0153(17) 
O38 O2- 1 a 0.3828(6) -0.4820(13) 0.0178(8) 1 0 0.0154(17) 
O39 O2- 1 a -0.2526(6) 0.4986(14) 0.1011(8) 1 0 0.0233(19) 
O40 O2- 1 a 0.2558(6) -0.4990(14) 0.9129(8) 1 0 0.0192(17) 
O41 O2- 1 a -0.3794(6) 0.4849(14) -0.0134(7) 1 0 0.0157(17) 
O42 O2- 1 a -0.0580(6) -0.5192(13) -0.0551(7) 1 0 0.0140(17) 
O43 O2- 1 a 0.2223(6) 0.0334(13) 0.0385(8) 1 0 0.0187(18) 
O44 O2- 1 a 0.5441(6) 0.0367(13) 0.0520(8) 1 0 0.0168(18) 
O45 O2- 1 a -0.1339(7) 0.0298(14) 0.0715(8) 1 0 0.022(2) 
O46 O2- 1 a 0.1303(7) -0.0312(15) -0.0750(8) 1 0 0.026(2) 
O47 O2- 1 a -0.5418(5) 0.9650(13) -0.0460(7) 1 0 0.0124(16) 
O48 O2- 1 a -0.2248(6) -0.0388(13) -0.0492(8) 1 0 0.0205(19) 
O49 O2- 1 a 0.1062(6) -0.7452(14) 0.2047(7) 1 0 0.0208(18) 
O50 O2- 1 a 0.3921(6) -1.6412(14) 0.1843(7) 1 0 0.0203(17) 
O51 O2- 1 a -0.0455(6) 0.0929(14) 0.1073(8) 1 0 0.0185(17) 
O52 O2- 1 a 0.0490(6) -0.1057(13) 0.8950(8) 1 0 0.0192(17) 
O53 O2- 1 a -0.3847(5) 0.6376(12) 0.8265(7) 1 0 0.0148(15) 
O54 O2- 1 a -0.1073(6) -0.2563(14) -0.2045(7) 1 0 0.0191(17) 

loop_
_atom_site_aniso_label
_atom_site_aniso_type_symbol
_atom_site_aniso_U_11
_atom_site_aniso_U_22
_atom_site_aniso_U_33
_atom_site_aniso_U_12
_atom_site_aniso_U_13
_atom_site_aniso_U_23
Te1 Te4+ 0.0148(3) 0.0110(3) 0.0167(4) -0.0100(3) 0.0075(3) -0.0026(3)
Te2 Te4+ 0.0172(3) 0.0262(4) 0.0169(4) -0.0180(3) -0.0021(3) 0.0090(3)
Te3 Te4+ 0.0101(3) 0.0098(3) 0.0106(3) -0.0080(3) 0.0016(3) 0.0005(2)
Te4 Te4+ 0.0093(3) 0.0094(3) 0.0100(3) -0.0074(3) 0.0014(3) 0.0008(3)
Te5 Te4+ 0.0205(4) 0.0305(4) 0.0130(3) -0.0222(3) -0.0037(3) 0.0088(3)
Te6 Te4+ 0.0143(3) 0.0125(3) 0.0155(3) -0.0108(3) 0.0047(3) 0.0001(3)
Te7 Te4+ 0.0156(4) 0.0164(4) 0.0128(4) -0.0129(3) 0.0030(3) -0.0011(3)
Te8 Te4+ 0.0208(4) 0.0248(4) 0.0135(3) -0.0199(3) 0.0035(3) -0.0020(3)
Te9 Te4+ 0.0149(4) 0.0183(4) 0.0139(4) -0.0136(4) 0.0009(3) 0.0015(3)
Te10 Te4+ 0.0153(4) 0.0153(4) 0.0131(4) -0.0119(4) 0.0004(3) 0.0018(3)
Te11 Te4+ 0.0236(4) 0.0289(4) 0.0133(3) -0.0238(4) 0.0041(3) -0.0033(3)
Te12 Te4+ 0.0171(4) 0.0180(4) 0.0123(4) -0.0145(4) 0.0030(3) -0.0017(3)
Te13 Te4+ 0.0138(4) 0.0140(3) 0.0119(3) -0.0113(3) -0.0001(3) 0.0035(3)
Te14 Te4+ 0.0129(3) 0.0104(3) 0.0112(3) -0.0085(3) 0.0025(3) 0.0005(2)
Te15 Te4+ 0.0106(3) 0.0119(3) 0.0110(3) -0.0088(3) 0.0016(3) 0.0006(2)
Te16 Te4+ 0.0111(3) 0.0143(3) 0.0115(3) -0.0100(3) 0.0021(3) -0.0004(3)
Te17 Te4+ 0.0114(3) 0.0105(3) 0.0123(3) -0.0083(3) 0.0028(2) -0.0003(2)
Te18 Te4+ 0.0133(3) 0.0136(3) 0.0124(4) -0.0109(3) 0.0014(3) 0.0013(3)
Ca1 Ca2+ 0.0124(11) 0.0110(10) 0.0125(11) -0.0089(10) 0.0032(9) 0.0006(8)
Ca2 Ca2+ 0.0114(11) 0.0154(11) 0.0185(12) -0.0100(10) 0.0004(9) 0.0056(9)
Ca3 Ca2+ 0.0131(11) 0.0145(10) 0.0119(10) -0.0100(10) 0.0034(8) 0.0001(8)
Ca4 Ca2+ 0.0135(11) 0.0131(10) 0.0154(10) -0.0101(10) 0.0051(8) -0.0018(8)
Ca5 Ca2+ 0.0123(11) 0.0152(11) 0.0173(12) -0.0104(10) 0.0022(9) 0.0042(9)
Ca6 Ca2+ 0.0152(12) 0.0154(11) 0.0119(11) -0.0133(11) 0.0021(9) -0.0003(8)
Ca7 Ca2+ 0.0169(11) 0.0125(10) 0.0135(10) -0.0111(10) 0.0067(9) -0.0021(8)
Ca8 Ca2+ 0.0173(11) 0.0103(10) 0.0129(11) -0.0103(10) 0.0002(9) 0.0026(8)
Ca9 Ca2+ 0.0122(10) 0.0109(9) 0.0126(10) -0.0054(9) 0.0040(8) 0.0031(7)
Ca10 Ca2+ 0.0145(11) 0.0130(9) 0.0150(11) -0.0074(9) 0.0054(9) 0.0030(8)
Ca11 Ca2+ 0.0217(12) 0.0154(10) 0.0128(11) -0.0150(10) 0.0036(9) -0.0002(8)
Ca12 Ca2+ 0.0168(11) 0.0137(10) 0.0118(10) -0.0123(10) 0.0016(8) 0.0023(8)
Ca13 Ca2+ 0.0197(12) 0.0128(10) 0.0104(11) -0.0135(11) 0.0025(9) 0.0002(8)
Ca14 Ca2+ 0.0144(11) 0.0141(10) 0.0135(12) -0.0123(10) 0.0001(9) 0.0022(8)
Ca15 Ca2+ 0.0127(10) 0.0176(10) 0.0093(10) -0.0124(9) 0.0015(8) -0.0003(8)
Ca16 Ca2+ 0.0120(11) 0.0185(11) 0.0145(11) -0.0104(10) 0.0026(9) 0.0016(9)
Ca17 Ca2+ 0.0154(11) 0.0128(10) 0.0113(12) -0.0119(10) 0.0026(8) -0.0002(8)
Ca18 Ca2+ 0.0181(12) 0.0149(11) 0.0173(12) -0.0137(11) 0.0024(10) 0.0024(9)
O1 O2- 0.024(4) 0.016(4) 0.023(4) -0.018(4) 0.007(3) -0.005(3)
O2 O2- 0.031(4) 0.018(4) 0.026(4) -0.018(4) 0.014(3) 0.001(3)
O3 O2- 0.015(4) 0.014(4) 0.013(4) -0.012(4) 0.003(3) 0.002(3)
O4 O2- 0.014(4) 0.012(4) 0.021(4) -0.011(4) 0.007(3) -0.003(3)
O5 O2- 0.033(5) 0.014(3) 0.034(5) -0.016(4) 0.022(4) -0.005(3)
O6 O2- 0.012(4) 0.015(4) 0.011(3) -0.011(3) 0.006(3) -0.003(3)
O7 O2- 0.009(4) 0.010(3) 0.020(4) -0.006(3) 0.005(3) -0.001(3)
O8 O2- 0.019(4) 0.025(5) 0.018(4) -0.007(4) 0.013(3) -0.010(3)
O9 O2- 0.017(4) 0.016(4) 0.013(4) -0.013(4) 0.010(3) -0.009(3)
O10 O2- 0.014(4) 0.016(4) 0.017(4) -0.012(3) 0.005(3) -0.002(3)
O11 O2- 0.025(5) 0.008(4) 0.033(5) 0.005(3) 0.011(4) 0.009(3)
O12 O2- 0.021(4) 0.017(4) 0.013(4) -0.014(4) 0.004(3) -0.001(3)
O13 O2- 0.032(5) 0.034(5) 0.027(4) -0.031(5) -0.006(4) 0.004(3)
O14 O2- 0.014(3) 0.027(3) 0.019(3) -0.016(3) -0.002(2) 0.002(3)
O15 O2- 0.009(4) 0.010(4) 0.024(4) -0.004(3) 0.002(3) 0.002(3)
O16 O2- 0.010(4) 0.016(4) 0.011(4) -0.009(3) -0.008(3) 0.005(3)
O17 O2- 0.088(7) 0.124(9) 0.030(4) -0.100(8) -0.022(4) 0.028(5)
O18 O2- 0.016(4) 0.018(3) 0.018(4) -0.014(3) -0.001(3) 0.007(3)
O19 O2- 0.034(5) 0.029(4) 0.006(3) -0.024(4) 0.007(3) -0.001(3)
O20 O2- 0.036(5) 0.037(5) 0.011(4) -0.033(5) 0.003(3) -0.001(3)
O21 O2- 0.034(5) 0.023(4) 0.019(4) -0.022(4) 0.008(3) 0.002(3)
O22 O2- 0.021(4) 0.014(4) 0.018(4) -0.010(4) 0.003(3) 0.008(3)
O23 O2- 0.026(5) 0.036(5) 0.018(4) -0.024(4) 0.009(3) -0.001(3)
O24 O2- 0.035(5) 0.041(5) 0.015(4) -0.034(5) -0.003(4) 0.004(4)
O25 O2- 0.053(7) 0.025(5) 0.027(5) -0.032(5) 0.012(4) 0.000(4)
O26 O2- 0.030(5) 0.025(4) 0.026(5) -0.017(4) -0.001(4) 0.005(4)
O27 O2- 0.051(6) 0.039(5) 0.016(4) -0.040(5) 0.001(4) 0.003(3)
O28 O2- 0.038(5) 0.009(3) 0.032(5) -0.016(4) 0.026(4) -0.011(3)
O29 O2- 0.036(5) 0.022(4) 0.015(4) -0.023(4) -0.005(3) 0.007(3)
O30 O2- 0.042(6) 0.023(5) 0.023(5) -0.027(5) 0.013(4) -0.010(4)
O31 O2- 0.017(4) 0.015(4) 0.019(4) -0.010(4) 0.009(3) -0.003(3)
O32 O2- 0.010(4) 0.011(4) 0.030(5) -0.005(3) 0.005(3) 0.001(3)
O33 O2- 0.021(4) 0.015(4) 0.029(4) -0.007(4) 0.013(3) 0.005(3)
O34 O2- 0.013(4) 0.025(4) 0.031(4) -0.007(4) 0.004(3) 0.018(3)
O35 O2- 0.021(4) 0.024(4) 0.021(4) -0.018(4) 0.005(3) 0.004(3)
O36 O2- 0.017(4) 0.016(4) 0.022(5) -0.012(4) 0.004(4) -0.001(3)
O37 O2- 0.014(4) 0.015(4) 0.016(4) -0.012(4) 0.001(3) 0.003(3)
O38 O2- 0.017(4) 0.010(3) 0.016(4) -0.010(3) 0.008(3) -0.004(3)
O39 O2- 0.010(4) 0.010(4) 0.034(5) -0.004(3) 0.006(3) 0.004(3)
O40 O2- 0.009(4) 0.012(4) 0.027(4) -0.005(3) 0.006(3) 0.006(3)
O41 O2- 0.020(4) 0.017(4) 0.013(4) -0.015(4) 0.001(3) 0.005(3)
O42 O2- 0.018(4) 0.014(4) 0.009(4) -0.013(4) 0.001(3) 0.005(3)
O43 O2- 0.018(4) 0.012(4) 0.022(4) -0.010(4) 0.008(3) 0.001(3)
O44 O2- 0.018(4) 0.010(3) 0.015(4) -0.010(4) 0.005(3) -0.001(3)
O45 O2- 0.031(5) 0.024(4) 0.020(4) -0.026(4) -0.009(4) 0.010(3)
O46 O2- 0.032(5) 0.024(4) 0.022(5) -0.025(5) -0.006(4) 0.005(3)
O47 O2- 0.007(3) 0.010(3) 0.013(4) -0.006(3) 0.003(3) -0.001(3)
O48 O2- 0.017(4) 0.010(4) 0.022(4) -0.007(4) 0.015(3) -0.005(3)
O49 O2- 0.021(4) 0.025(4) 0.019(4) -0.018(4) 0.003(3) 0.005(3)
O50 O2- 0.022(4) 0.028(4) 0.019(4) -0.020(4) 0.011(3) -0.001(3)
O51 O2- 0.012(4) 0.023(4) 0.022(4) -0.014(4) 0.005(3) 0.001(3)
O52 O2- 0.015(4) 0.015(4) 0.026(4) -0.011(4) 0.006(3) 0.001(3)
O53 O2- 0.015(4) 0.013(3) 0.014(3) -0.011(3) 0.004(3) 0.000(3)
O54 O2- 0.029(5) 0.024(4) 0.023(4) -0.023(4) 0.012(4) -0.002(3)
#End of data_260228-ICSD


