data_2068-ICSD
#?2014 by Fachinformationszentrum Karlsruhe, and the U.S. Secretary of 
#Commerce on behalf of the United States.  All rights reserved.
_database_code_ICSD                2068
_audit_creation_date               1980/01/01
_audit_update_record               2012/02/01
_chemical_name_systematic
;
Copper Dipotassium Tetrakis(catena-phosphate(V))
;
_chemical_formula_structural       'Cu K2 (P O3)4'
_chemical_formula_sum              'Cu1 K2 O12 P4'
_publ_section_title
;
Affinement des structures cristallines de Cu K2 (P O3)4 et Co K2 (P 
O3)4
;
loop_
_citation_id
_citation_journal_abbrev
_citation_year
_citation_journal_volume
_citation_page_first
_citation_page_last
_citation_journal_id_ASTM
primary 'Acta Crystallographica B (24,1968-38,1982)' 1974 30 1100 1104 ACBCAR
_publ_author_name
;
Laugt, M.;Tordjman, I.;Bassi, G.;Guitel, J.C.
;
_cell_length_a                     10.924(1)
_cell_length_b                     12.227(1)
_cell_length_c                     7.900(1)
_cell_angle_alpha                  90.
_cell_angle_beta                   100.55(1)
_cell_angle_gamma                  90.
_cell_volume                       1037.35
_cell_formula_units_Z              4
_symmetry_space_group_name_H-M     'C 1 c 1'
_symmetry_Int_Tables_number        9
_refine_ls_R_factor_all            .043
loop_
_symmetry_equiv_pos_site_id
_symmetry_equiv_pos_as_xyz
  1	'x, -y, z+.5'
  2	'x, y, z'
  3	'x+.5, -y+.5, z+.5'
  4	'x+.5, y+.5, z'
loop_
_atom_type_symbol
_atom_type_oxidation_number
Cu2+	2
K1+	1
O2-	-2
P5+	5
loop_
_atom_site_label
_atom_site_type_symbol
_atom_site_symmetry_multiplicity
_atom_site_Wyckoff_symbol
_atom_site_fract_x
_atom_site_fract_y
_atom_site_fract_z
_atom_site_occupancy
_atom_site_attached_hydrogens
Cu1 Cu2+ 4 a 0 0.1580(1) 0.75 1. 0 
K1 K1+ 4 a 0.1367(3) 0.3712(3) 0.0987(5) 1. 0 
K2 K1+ 4 a 0.3340(3) 0.1355(2) 0.9087(5) 1. 0 
P1 P5+ 4 a 0.3855(4) 0.4282(3) 0.8315(5) 1. 0 
P2 P5+ 4 a 0.1647(3) 0.3400(3) 0.5788(6) 1. 0 
P3 P5+ 4 a 0.3197(4) 0.1854(3) 0.4220(6) 1. 0 
P4 P5+ 4 a 0.1152(4) 0.0743(3) 0.1915(6) 1. 0 
O1 O2- 4 a 0.0739(8) 0.4192(7) 0.4888(13) 1. 0 
O2 O2- 4 a 0.1307(8) 0.2650(8) 0.7011(14) 1. 0 
O3 O2- 4 a 0.2834(9) 0.4081(8) 0.6631(11) 1. 0 
O4 O2- 4 a 0.2160(8) 0.2747(6) 0.4300(11) 1. 0 
O5 O2- 4 a 0.3915(9) 0.2199(8) 0.2865(14) 1. 0 
O6 O2- 4 a 0.3891(8) 0.1530(8) 0.5951(11) 1. 0 
O7 O2- 4 a 0.2357(8) 0.0819(7) 0.3422(13) 1. 0 
O8 O2- 4 a 0.1329(8) 0.1468(8) 0.0741(12) 1. 0 
O9 O2- 4 a 0.0964(10) -.0463(8) 0.1647(14) 1. 0 
O10 O2- 4 a 0.0085(9) 0.1231(7) 0.2787(15) 1. 0 
O11 O2- 4 a 0.3575(9) 0.3619(8) 0.9766(14) 1. 0 
O12 O2- 4 a 0.3972(9) 0.5490(7) 0.8501(13) 1. 0 

#End of data_2068-ICSD


