data_200292-ICSD
#?2014 by Fachinformationszentrum Karlsruhe, and the U.S. Secretary of 
#Commerce on behalf of the United States.  All rights reserved.
_database_code_ICSD                200292
_audit_creation_date               1980/01/01
_audit_update_record               2012/08/01
_chemical_name_systematic
;
Dipotassium Dicadmium Tris(sulfate(VI))
;
_chemical_formula_structural       'K2 Cd2 (S O4)3'
_chemical_formula_sum              'Cd2 K2 O12 S3'
_publ_section_title
;
Piezoelectric langbeinite-type K2 Cd2 (S O4)3 structure at four 
temperatures below and one above the 432 K ferroelastic- paraelastic 
transition
;
loop_
_citation_id
_citation_journal_abbrev
_citation_year
_citation_journal_volume
_citation_page_first
_citation_page_last
_citation_journal_id_ASTM
primary 'Journal of Chemical Physics' 1978 68 1926 1935 JCPSA6
2 'Golden Book of Phase Transitions, Wroclaw' 2002 1 1 123 GBOPT5
_publ_author_name
;
Abrahams, S.C.;Lissalde, F.;Bernstein, J.L.
;
_cell_length_a                     10.2239(8)
_cell_length_b                     10.2897(8)
_cell_length_c                     10.1821(8)
_cell_angle_alpha                  90.
_cell_angle_beta                   90.
_cell_angle_gamma                  90.
_cell_volume                       1071.17
_cell_formula_units_Z              4
_symmetry_space_group_name_H-M     'P 21 21 21'
_symmetry_Int_Tables_number        19
_refine_ls_R_factor_all            .0322
loop_
_symmetry_equiv_pos_site_id
_symmetry_equiv_pos_as_xyz
  1	'-x, y+.5, -z+.5'
  2	'x+.5, -y+.5, -z'
  3	'-x+.5, -y, z+.5'
  4	'x, y, z'
loop_
_atom_type_symbol
_atom_type_oxidation_number
Cd2+	2
K1+	1
O2-	-2
S6+	6
loop_
_atom_site_label
_atom_site_type_symbol
_atom_site_symmetry_multiplicity
_atom_site_Wyckoff_symbol
_atom_site_fract_x
_atom_site_fract_y
_atom_site_fract_z
_atom_site_occupancy
_atom_site_attached_hydrogens
K1 K1+ 4 a 0.16941(20) 0.31319(21) 0.69278(24) 1. 0 
K2 K1+ 4 a 0.03830(24) 0.05571(27) 0.06070(26) 1. 0 
Cd1 Cd2+ 4 a 0.30791(5) 0.34086(5) 0.33162(5) 1. 0 
Cd2 Cd2+ 4 a 0.39920(5) 0.08996(5) 0.92526(5) 1. 0 
S1 S6+ 4 a 0.21523(15) 0.37238(15) 0.02501(18) 1. 0 
S2 S6+ 4 a 0.38351(15) 0.00769(15) 0.24599(17) 1. 0 
S3 S6+ 4 a 0.00051(15) 0.21700(15) 0.36951(17) 1. 0 
O1 O2- 4 a 0.3037(10) 0.2626(8) 0.0294(10) 1. 0 
O2 O2- 4 a 0.0829(7) 0.3286(8) 0.9885(9) 1. 0 
O3 O2- 4 a 0.2607(7) 0.4640(7) 0.9266(8) 1. 0 
O4 O2- 4 a 0.2104(7) 0.4344(7) 0.1567(7) 1. 0 
O5 O2- 4 a 0.3042(8) 0.9315(7) 0.3391(8) 1. 0 
O6 O2- 4 a 0.3912(9) 0.1435(7) 0.2879(9) 1. 0 
O7 O2- 4 a 0.5214(8) 0.9532(8) 0.2526(11) 1. 0 
O8 O2- 4 a 0.3265(8) 0.9908(8) 0.1132(7) 1. 0 
O9 O2- 4 a 0.0559(8) 0.0915(7) 0.3186(9) 1. 0 
O10 O2- 4 a 0.9052(11) 0.1896(12) 0.4721(9) 1. 0 
O11 O2- 4 a 0.9339(9) 0.2828(9) 0.2603(9) 1. 0 
O12 O2- 4 a 0.1074(6) 0.2966(7) 0.4240(9) 1. 0 

#End of data_200292-ICSD


