data_240375-ICSD
#?2014 by Fachinformationszentrum Karlsruhe, and the U.S. Secretary of 
#Commerce on behalf of the United States.  All rights reserved.
_database_code_ICSD                240375
_audit_creation_date               2007/04/01
_chemical_name_systematic          'Aluminum Oxide Hydroxide'
_chemical_formula_structural       'Al O (O H)'
_chemical_formula_sum              'H1 Al1 O2'
_publ_section_title
;
Redetermination of the high-pressure modification of Al O OH from 
single-crystal synchrotron data
;
loop_
_citation_id
_citation_journal_abbrev
_citation_year
_citation_journal_volume
_citation_journal_issue
_citation_page_first
_citation_page_last
_citation_journal_id_ASTM
primary 'Acta Crystallographica, Section E. Structure Reports Online'
 2006 62 11 i216 i218 ACSEBH
_publ_author_name
;
Komatsu, K.;Kuribayashi, T.;Sano, A.;Ohtani, E.;Kudoh, Y.
;
_cell_length_a                     4.7128(11)
_cell_length_b                     4.2221(15)
_cell_length_c                     2.8315(7)
_cell_angle_alpha                  90.00
_cell_angle_beta                   90.00
_cell_angle_gamma                  90.00
_cell_volume                       56.34
_cell_formula_units_Z              2
_symmetry_space_group_name_H-M     'P 21 n m'
_symmetry_Int_Tables_number        31
_refine_ls_R_factor_all            .0139
loop_
_symmetry_equiv_pos_site_id
_symmetry_equiv_pos_as_xyz
  1	'x+.5, -y, z+.5'
  2	'x+.5, -y, -z+.5'
  3	'x, y, -z'
  4	'x, y, z'
loop_
_atom_type_symbol
_atom_type_oxidation_number
Al3+	3
H1+	1
O2-	-2
loop_
_atom_site_label
_atom_site_type_symbol
_atom_site_symmetry_multiplicity
_atom_site_Wyckoff_symbol
_atom_site_fract_x
_atom_site_fract_y
_atom_site_fract_z
_atom_site_occupancy
_atom_site_attached_hydrogens
_atom_site_U_iso_or_equiv
Al1 Al3+ 2 a 0.0000 0.27452(7) 0.0000 1 0 0.00298(9) 
O1 O2- 2 a 0.3420(2) 0.49850(17) 0.0000 1 0 0.00329(12) 
O2 O2- 2 a 0.64559(19) -0.00084(17) 0.0000 1 0 0.00356(13) 
H1 H1+ 2 a 0.547(13) 0.157(8) 0.0000 1 0 0.034(10) 

loop_
_atom_site_aniso_label
_atom_site_aniso_type_symbol
_atom_site_aniso_U_11
_atom_site_aniso_U_22
_atom_site_aniso_U_33
_atom_site_aniso_U_12
_atom_site_aniso_U_13
_atom_site_aniso_U_23
Al1 Al3+ 0.00333(13) 0.00324(12) 0.00238(12) 0.00001(15) 0.000 0.000
O1 O2- 0.0033(3) 0.0035(2) 0.0031(2) -0.00084(19) 0.000 0.000
O2 O2- 0.0037(3) 0.0030(2) 0.0040(2) 0.00001(19) 0.000 0.000
#End of data_240375-ICSD


