data_60117-ICSD
#?2014 by Fachinformationszentrum Karlsruhe, and the U.S. Secretary of 
#Commerce on behalf of the United States.  All rights reserved.
_database_code_ICSD                60117
_audit_creation_date               1986/12/03
_audit_update_record               2007/08/01
_chemical_name_systematic
;
Calcium Bis(catena-phosphate(V)) - Beta
;
_chemical_formula_structural       'Ca (P O3)2'
_chemical_formula_sum              'Ca1 O6 P2'
_publ_section_title
;
Crystal structure of calciumpolyphosphate, (Ca2 (P O4)3)x
;
loop_
_citation_id
_citation_journal_abbrev
_citation_year
_citation_journal_volume
_citation_page_first
_citation_page_last
_citation_journal_id_ASTM
primary 'Zeitschrift fuer Anorganische und Allgemeine Chemie (1950) (DE)'
 1985 527 99 104 ZAACAB
2 'Phase Transition' 1992 38 127 220 PHTRDP
_publ_author_name
;
Schneider, M.;Jost, K.H.;Leibnitz, P.
;
_cell_length_a                     6.999(2)
_cell_length_b                     7.717(4)
_cell_length_c                     16.9439(40)
_cell_angle_alpha                  90.
_cell_angle_beta                   90.44(2)
_cell_angle_gamma                  90.
_cell_volume                       915.13
_cell_formula_units_Z              8
_symmetry_space_group_name_H-M     'P 1 21/c 1'
_symmetry_Int_Tables_number        14
_refine_ls_R_factor_all            .022
loop_
_symmetry_equiv_pos_site_id
_symmetry_equiv_pos_as_xyz
  1	'x, -y+.5, z+.5'
  2	'-x, -y, -z'
  3	'-x, y+.5, -z+.5'
  4	'x, y, z'
loop_
_atom_type_symbol
_atom_type_oxidation_number
Ca2+	2
O2-	-2
P5+	5
loop_
_atom_site_label
_atom_site_type_symbol
_atom_site_symmetry_multiplicity
_atom_site_Wyckoff_symbol
_atom_site_fract_x
_atom_site_fract_y
_atom_site_fract_z
_atom_site_occupancy
_atom_site_attached_hydrogens
Ca1 Ca2+ 4 e 0.5248(1) 0.1135(1) 0.8966(1) 1. 0 
Ca2 Ca2+ 4 e 0.0184(1) 0.1370(1) 0.8282(1) 1. 0 
P1 P5+ 4 e 0.1396(1) 0.2004(1) 0.0374(1) 1. 0 
P2 P5+ 4 e 0.7332(2) 0.2150(1) 0.0885(1) 1. 0 
P3 P5+ 4 e 0.2197(2) 0.4915(1) 0.1452(1) 1. 0 
P4 P5+ 4 e 0.6286(2) 0.4996(1) 0.1948(1) 1. 0 
O1 O2- 4 e 0.2233(4) 0.6748(4) 0.1188(2) 1. 0 
O2 O2- 4 e 0.1947(4) 0.1796(4) -.0462(2) 1. 0 
O3 O2- 4 e 0.5758(4) 0.1626(4) 0.0340(2) 1. 0 
O4 O2- 4 e 0.7602(4) 0.0931(4) 0.1557(2) 1. 0 
O5 O2- 4 e 0.2328(4) 0.3755(4) 0.0681(2) 1. 0 
O6 O2- 4 e 0.7030(4) 0.4077(4) 0.1173(2) 1. 0 
O7 O2- 4 e 0.4090(4) 0.4464(4) 0.1914(2) 1. 0 
O8 O2- 4 e 0.3418(4) 0.3125(4) 0.8181(2) 1. 0 
O9 O2- 4 e 0.2991(4) 0.5798(4) 0.7313(2) 1. 0 
O10 O2- 4 e 0.0814(4) 0.7578(4) 0.9620(2) 1. 0 
O11 O2- 4 e 0.1792(4) 0.4451(4) 0.5927(2) 1. 0 
O12 O2- 4 e 0.0603(4) 0.4364(5) 0.1959(2) 1. 0 

#End of data_60117-ICSD


