data_35382-ICSD
#?2014 by Fachinformationszentrum Karlsruhe, and the U.S. Secretary of 
#Commerce on behalf of the United States.  All rights reserved.
_database_code_ICSD                35382
_audit_creation_date               1983/12/31
_audit_update_record               2012/08/01
_chemical_name_systematic          'Lithium Vanadium Fluoride (1/2/6)'
_chemical_formula_structural       'Li V2 F6'
_chemical_formula_sum              'F6 Li1 V2'
_publ_section_title
;
Crystal Structure of Li V2 F6, a Mixed-Valence Trirutile
;
loop_
_citation_id
_citation_journal_abbrev
_citation_year
_citation_journal_volume
_citation_page_first
_citation_page_last
_citation_journal_id_ASTM
primary 'Inorganic Chemistry' 1983 22 1060 1064 INOCAJ
_publ_author_name
;
Metzger, R.M.;Heimer, N.E.;Kuo, K.S.;Williamson, R.F.;Boo, W.O.J.
;
_cell_length_a                     4.697(3)
_cell_length_b                     4.697(3)
_cell_length_c                     9.289(3)
_cell_angle_alpha                  90.
_cell_angle_beta                   90.
_cell_angle_gamma                  90.
_cell_volume                       204.93
_cell_formula_units_Z              2
_symmetry_space_group_name_H-M     'P 42/m n m'
_symmetry_Int_Tables_number        136
_refine_ls_R_factor_all            .05
loop_
_symmetry_equiv_pos_site_id
_symmetry_equiv_pos_as_xyz
  1	'-y+.5, x+.5, -z+.5'
  2	'y+.5, -x+.5, -z+.5'
  3	'y, x, -z'
  4	'-y, -x, -z'
  5	'y+.5, -x+.5, z+.5'
  6	'-y+.5, x+.5, z+.5'
  7	'-y, -x, z'
  8	'y, x, z'
  9	'x+.5, -y+.5, -z+.5'
 10	'-x+.5, y+.5, -z+.5'
 11	'x, y, -z'
 12	'-x, -y, -z'
 13	'-x+.5, y+.5, z+.5'
 14	'x+.5, -y+.5, z+.5'
 15	'-x, -y, z'
 16	'x, y, z'
loop_
_atom_type_symbol
_atom_type_oxidation_number
F1-	-1
Li1+	1
V2.5+	2.5
loop_
_atom_site_label
_atom_site_type_symbol
_atom_site_symmetry_multiplicity
_atom_site_Wyckoff_symbol
_atom_site_fract_x
_atom_site_fract_y
_atom_site_fract_z
_atom_site_occupancy
_atom_site_attached_hydrogens
_atom_site_B_iso_or_equiv
V1 V2.5+ 4 e 0 0 0.33263(8) 1. 0 0 
F1 F1- 4 f 0.3094(11) 0.3094(11) 0 1. 0 0 
F2 F1- 8 j 0.2971(9) 0.2971 0.3277(2) 1. 0 0 
Li1 Li1+ 2 a 0 0 0 1. 0 2. 

loop_
_atom_site_aniso_label
_atom_site_aniso_type_symbol
_atom_site_aniso_U_11
_atom_site_aniso_U_22
_atom_site_aniso_U_33
_atom_site_aniso_U_12
_atom_site_aniso_U_13
_atom_site_aniso_U_23
V1 V2.5+ 0.0073(4) 0.001 0.0052(3) -.0005(3) 0 0
F1 F1- 0.011(2) 0.002 0.018(1) -.004(1) 0 0
F2 F1- 0.015(1) 0.001 0.0103(9) -.001(1) -.002(1) 0
#End of data_35382-ICSD


