data_14178-ICSD
#?2014 by Fachinformationszentrum Karlsruhe, and the U.S. Secretary of 
#Commerce on behalf of the United States.  All rights reserved.
_database_code_ICSD                14178
_audit_creation_date               1980/01/01
_audit_update_record               2014/08/01
_chemical_name_systematic          'Pentathiazyl Tetrachloroaluminate'
_chemical_formula_structural       'S5 N5 Al Cl4'
_chemical_formula_sum              'Al1 Cl4 N5 S5'
_publ_section_title
;
The Crystal Structure of Pentathiazyl Tetrachloroaluminate, S5 N5 Al 
Cl4
;
loop_
_citation_id
_citation_journal_abbrev
_citation_year
_citation_journal_volume
_citation_page_first
_citation_page_last
_citation_journal_id_ASTM
primary 'Acta Chemica Scandinavica (1-27,1973-42,1988)' 1972 26 1987 1995 ACSAA4
_publ_author_name                  'Hazell, A.C.;Gronbaek Hazell, R.'
_cell_length_a                     9.412
_cell_length_b                     13.647
_cell_length_c                     20.761
_cell_angle_alpha                  90.
_cell_angle_beta                   90.
_cell_angle_gamma                  90.
_cell_volume                       2666.66
_cell_formula_units_Z              8
_symmetry_space_group_name_H-M     'P n m a'
_symmetry_Int_Tables_number        62
_refine_ls_R_factor_all            .087
loop_
_symmetry_equiv_pos_site_id
_symmetry_equiv_pos_as_xyz
  1	'x+.5, y, -z+.5'
  2	'x, -y+.5, z'
  3	'-x+.5, y+.5, z+.5'
  4	'-x, -y, -z'
  5	'-x+.5, -y, z+.5'
  6	'-x, y+.5, -z'
  7	'x+.5, -y+.5, -z+.5'
  8	'x, y, z'
loop_
_atom_type_symbol
_atom_type_oxidation_number
Al3+	3
Cl1-	-1
N1+	1
N3+	3
S2-	-2
loop_
_atom_site_label
_atom_site_type_symbol
_atom_site_symmetry_multiplicity
_atom_site_Wyckoff_symbol
_atom_site_fract_x
_atom_site_fract_y
_atom_site_fract_z
_atom_site_occupancy
_atom_site_attached_hydrogens
Al1 Al3+ 4 c 0.4662(4) -.25 0.3801(2) 1. 0 
Al2 Al3+ 4 c -.0554(4) 0.25 0.3693(2) 1. 0 
Cl1 Cl1- 8 d 0.5914(3) -.1222(2) 0.3675(1) 1. 0 
Cl2 Cl1- 4 c 0.2998(4) -.25 0.3114(2) 1. 0 
Cl3 Cl1- 4 c 0.3771(4) -.25 0.4743(2) 1. 0 
Cl4 Cl1- 8 d -.1763(3) 0.1212(2) 0.3869(1) 1. 0 
Cl5 Cl1- 4 c 0.1231(4) 0.25 0.4319(2) 1. 0 
Cl6 Cl1- 4 c 0.0151(6) 0.25 0.2723(2) 1. 0 
S1 S2- 8 d -.0212(3) -.1040(3) 0.3191(2) 1. 0 
S2 S2- 8 d 0.2074(4) 0.0297(3) 0.2700(1) 1. 0 
S3 S2- 8 d 0.4191(3) 0.1096(2) 0.3678(2) 1. 0 
S4 S2- 8 d 0.3009(3) 0.0122(2) 0.4811(1) 1. 0 
S5 S2- 8 d 0.0650(3) -.1062(2) 0.4528(1) 1. 0 
N1 N1+ 8 d 0.0877(10) -.0366(8) 0.2951(4) 1. 0 
N2 N1+ 8 d 0.3121(9) 0.0670(7) 0.3161(5) 1. 0 
N3 N3+ 8 d 0.4006(7) 0.0782(6) 0.4410(4) 1. 0 
N4 N3+ 8 d 0.1856(7) -.0321(5) 0.4361(4) 1. 0 
N5 N3+ 8 d -.0224(8) -.1296(6) 0.3923(4) 1. 0 

loop_
_atom_site_aniso_label
_atom_site_aniso_type_symbol
_atom_site_aniso_U_11
_atom_site_aniso_U_22
_atom_site_aniso_U_33
_atom_site_aniso_U_12
_atom_site_aniso_U_13
_atom_site_aniso_U_23
Al1 Al3+ 0.0376(23) 0.0411(19) 0.0632(27) 0 0.0013(20) 0
Al2 Al3+ 0.0593(27) 0.0426(19) 0.0429(23) 0 0.0069(20) 0
Cl1 Cl1- 0.0810(19) 0.0666(16) 0.1028(22) -.0309(17) 0.0133(17) 0.0041(17)
Cl2 Cl1- 0.0596(26) 0.0984(29) 0.0804(29) 0 -.0159(22) 0
Cl3 Cl1- 0.0680(25) 0.0629(21) 0.0623(24) 0 0.0127(20) 0
Cl4 Cl1- 0.0798(18) 0.0596(14) 0.0677(16) -.0254(15) 0.0030(14) -.0030(14)
Cl5 Cl1- 0.0397(21) 0.0736(24) 0.0913(30) 0 0.0017(20) 0
Cl6 Cl1- 0.1533(44) 0.0870(29) 0.0521(25) 0 0.0408(27) 0
S1 S2- 0.0984(24) 0.1004(23) 0.1052(25) 0.0294(22) -.0521(21) -.0398(22)
S2 S2- 0.1353(29) 0.1273(28) 0.0532(17) 0.0628(26) 0.0199(19) 0.0236(21)
S3 S2- 0.0634(18) 0.0676(17) 0.1706(35) 0.0008(18) 0.0404(21) 0.0357(22)
S4 S2- 0.0658(18) 0.0762(18) 0.0702(18) -.0073(16) -.0164(15) 0.0003(17)
S5 S2- 0.0612(16) 0.0702(17) 0.0757(18) -.0072(15) 0.0013(14) 0.0142(16)
N1 N1+ 0.1133(77) 0.1078(75) 0.0994(75) 0.0384(71) 0.0340(65) 0.0240(69)
N2 N1+ 0.0720(66) 0.0981(73) 0.168(10) 0.0291(64) 0.0031(68) -.0227(76)
N3 N3+ 0.0539(50) 0.0536(48) 0.1205(72) -.0012(47) -.0126(51) -.0072(52)
N4 N3+ 0.0452(44) 0.0506(42) 0.0694(51) 0.0076(41) -.0066(39) 0.0032(43)
N5 N3+ 0.0724(56) 0.0708(56) 0.1026(64) 0.0006(54) -.0234(52) -.0039(56)
#End of data_14178-ICSD


