data_174311-ICSD
#?2014 by Fachinformationszentrum Karlsruhe, and the U.S. Secretary of 
#Commerce on behalf of the United States.  All rights reserved.
_database_code_ICSD                174311
_audit_creation_date               2010/08/01
_chemical_name_systematic
;
Nonapotassium Oxoferrate(II) Oxoferrate(III)
;
_chemical_formula_structural       'K9 (Fe O3) (Fe O4)'
_chemical_formula_sum              'Fe2 K9 O7'
_publ_section_title
;
Neue Oxoferrate der Alkalimetalle. Synthesen und Kristallchemie
;
loop_
_citation_id
_citation_journal_abbrev
_citation_year
_citation_journal_volume
_citation_page_first
_citation_page_last
_citation_journal_id_ASTM
primary 'Dissertation Albert-Ludwigs-Universitaet Freiburg'
 2006 2006 1 203 DIUFRJ
_publ_author_name                  'Frisch, G.'
_cell_length_a                     10.9428(8)
_cell_length_b                     10.9428(8)
_cell_length_c                     10.9428(8)
_cell_angle_alpha                  90.
_cell_angle_beta                   90.
_cell_angle_gamma                  90.
_cell_volume                       1310.34
_cell_formula_units_Z              4
_symmetry_space_group_name_H-M     'P 21 3'
_symmetry_Int_Tables_number        198
_refine_ls_R_factor_all            .07
loop_
_symmetry_equiv_pos_site_id
_symmetry_equiv_pos_as_xyz
  1	'-z+.5, -x, y+.5'
  2	'-y+.5, -z, x+.5'
  3	'-x+.5, -y, z+.5'
  4	'-z, x+.5, -y+.5'
  5	'-y, z+.5, -x+.5'
  6	'-x, y+.5, -z+.5'
  7	'z+.5, -x+.5, -y'
  8	'y+.5, -z+.5, -x'
  9	'x+.5, -y+.5, -z'
 10	'z, x, y'
 11	'y, z, x'
 12	'x, y, z'
loop_
_atom_type_symbol
_atom_type_oxidation_number
Fe2+	2
Fe3+	3
K1+	1
O2-	-2
loop_
_atom_site_label
_atom_site_type_symbol
_atom_site_symmetry_multiplicity
_atom_site_Wyckoff_symbol
_atom_site_fract_x
_atom_site_fract_y
_atom_site_fract_z
_atom_site_occupancy
_atom_site_attached_hydrogens
_atom_site_U_iso_or_equiv
K1 K1+ 4 a 0.4050(2) 0.4050(2) 0.4050(2) 1. 0 0.0435(9) 
K2 K1+ 4 a 0.2384(2) 0.2384(2) 0.2384(2) 1. 0 0.0432(9) 
K3 K1+ 4 a 0.0746(2) 0.0746(2) 0.0746(2) 1. 0 0.0398(8) 
K4 K1+ 12 b 0.8367(2) 0.0103(2) 0.2850(2) 1. 0 0.0313(4) 
K5 K1+ 12 b 0.1650(2) 0.0317(2) 0.7819(2) 1. 0 0.0650(5) 
Fe1 Fe3+ 4 a 0.9080(2) 0.9080(2) 0.9080(2) 1. 0 0.0317(5) 
Fe2 Fe2+ 4 a 0.5743(2) 0.5743(2) 0.5743(2) 1. 0 0.0289(5) 
O1 O2- 12 b 0.9118(5) 0.0647(5) 0.8384(6) 1. 0 0.0250(10) 
O2 O2- 12 b 0.0834(6) 0.0572(5) 0.3224(6) 1. 0 0.0290(10) 
O3 O2- 4 a 0.8035(5) 0.8035(5) 0.8035(5) 1. 0 0.0440(30) 

loop_
_atom_site_aniso_label
_atom_site_aniso_type_symbol
_atom_site_aniso_U_11
_atom_site_aniso_U_22
_atom_site_aniso_U_33
_atom_site_aniso_U_12
_atom_site_aniso_U_13
_atom_site_aniso_U_23
K1 K1+ 0.0435(9) 0.0435(9) 0.0435(9) 0.0065(10) 0.0065(10) 0.0065(10)
K2 K1+ 0.0432(9) 0.0432(9) 0.0432(9) 0.0063(10) 0.0063(10) 0.0063(10)
K3 K1+ 0.0398(8) 0.0398(8) 0.0398(8) 0.0083(10) 0.0083(10) 0.0083(10)
K4 K1+ 0.0225(8) 0.0461(10) 0.0252(9) -0.0023(8) -0.0015(7) -0.0011(8)
K5 K1+ 0.0424(8) 0.0527(10) 0.0281(9) 0.0046(8) -0.0008(7) -0.0043(8)
Fe1 Fe3+ 0.0317(5) 0.0317(5) 0.0317(5) 0.0151(6) 0.0151(6) 0.0151(6)
Fe2 Fe2+ 0.0289(5) 0.0289(5) 0.0289(5) 0.0105(5) 0.0105(5) 0.0105(5)
O1 O2- 0.0230(30) 0.0200(20) 0.0320(30) 0.0000(20) 0.0050(20) 0.0090(20)
O2 O2- 0.0280(30) 0.0250(30) 0.0350(30) -0.0030(20) -0.0070(30) 0.0080(20)
O3 O2- 0.0440(30) 0.0440(30) 0.0440(30) -0.0140(30) -0.0140(30) -0.0140(30)
#End of data_174311-ICSD


