data_236416-ICSD
#?2014 by Fachinformationszentrum Karlsruhe, and the U.S. Secretary of 
#Commerce on behalf of the United States.  All rights reserved.
_database_code_ICSD                236416
_audit_creation_date               2014/02/01
_chemical_name_systematic          'Zinc Molybdate - Beta'
_chemical_formula_structural       'Zn (Mo O4)'
_chemical_formula_sum              'Mo1 O4 Zn1'
_publ_section_title
;
A combined theoretical and experimental study of electronic structure 
and optical properties of beta-ZnMoO4 microcrystals
;
loop_
_citation_id
_citation_journal_abbrev
_citation_year
_citation_journal_volume
_citation_page_first
_citation_page_last
_citation_journal_id_ASTM
primary Polyhedron 2013 54 13 25 PLYHDE
_publ_author_name
;
Cavalcante, L.S.;Moraes, E.;Almeida, M.A.P.;Dalmaschio, C.J.;Batista, 
N.C.;Varela, J.A.;Longo, E.;Li, M.Siu;Andres, J.;Beltran, A.
;
_cell_length_a                     4.6987(3)
_cell_length_b                     5.7487(2)
_cell_length_c                     4.9044(2)
_cell_angle_alpha                  90
_cell_angle_beta                   90.3312
_cell_angle_gamma                  90
_cell_volume                       132.47
_cell_formula_units_Z              2
_symmetry_space_group_name_H-M     'P 1 2/c 1'
_symmetry_Int_Tables_number        13
_refine_ls_R_factor_all            .0423
loop_
_symmetry_equiv_pos_site_id
_symmetry_equiv_pos_as_xyz
  1	'x, -y, z+.5'
  2	'-x, -y, -z'
  3	'-x, y, -z+.5'
  4	'x, y, z'
loop_
_atom_type_symbol
_atom_type_oxidation_number
Mo6+	6
O2-	-2
Zn2+	2
loop_
_atom_site_label
_atom_site_type_symbol
_atom_site_symmetry_multiplicity
_atom_site_Wyckoff_symbol
_atom_site_fract_x
_atom_site_fract_y
_atom_site_fract_z
_atom_site_occupancy
_atom_site_attached_hydrogens
Zn1 Zn2+ 2 f 0.5 0.68588 0.25 1. 0 
Mo1 Mo6+ 2 e 0 0.19564 0.25 1. 0 
O1 O2- 4 g 0.23115 0.35436 0.31255 1. 0 
O2 O2- 4 g 0.21435 0.93315 0.32451 1. 0 

#End of data_236416-ICSD


