data_10502-ICSD
#?2014 by Fachinformationszentrum Karlsruhe, and the U.S. Secretary of 
#Commerce on behalf of the United States.  All rights reserved.
_database_code_ICSD                10502
_audit_creation_date               1980/12/31
_audit_update_record               2012/02/01
_chemical_name_systematic
;
Dicalcium Dipotassium Sodium Titanium Hydroxooctadecaoxoheptasilicate 
Oxide
;
_chemical_formula_structural       'Ca2 K2 Na Ti (Si7 O18 (O H)) O'
_chemical_formula_sum              'H1 Ca2 K2 Na1 O20 Si7 Ti1'
_chemical_name_mineral             Tinaksite
_publ_section_title
;
Verfeinerung der Struktur von Tinaksit, Ca2 K2 Na Ti O Si7 O18 O H
;
loop_
_citation_id
_citation_journal_abbrev
_citation_year
_citation_journal_volume
_citation_page_first
_citation_page_last
_citation_journal_id_ASTM
primary 'Acta Crystallographica B (24,1968-38,1982)' 1980 36 259 263 ACBCAR
_publ_author_name                  'Bissert, G.'
_cell_length_a                     10.377(3)
_cell_length_b                     12.166(3)
_cell_length_c                     7.059(1)
_cell_angle_alpha                  90.91(1)
_cell_angle_beta                   99.3(1)
_cell_angle_gamma                  92.76(3)
_cell_volume                       878.19
_cell_formula_units_Z              2
_symmetry_space_group_name_H-M     'P -1'
_symmetry_Int_Tables_number        2
_refine_ls_R_factor_all            .033
loop_
_symmetry_equiv_pos_site_id
_symmetry_equiv_pos_as_xyz
  1	'-x, -y, -z'
  2	'x, y, z'
loop_
_atom_type_symbol
_atom_type_oxidation_number
Ca2+	2
H1+	1
K1+	1
Na1+	1
O2-	-2
Si4+	4
Ti4+	4
loop_
_atom_site_label
_atom_site_type_symbol
_atom_site_symmetry_multiplicity
_atom_site_Wyckoff_symbol
_atom_site_fract_x
_atom_site_fract_y
_atom_site_fract_z
_atom_site_occupancy
_atom_site_attached_hydrogens
_atom_site_B_iso_or_equiv
Ti1 Ti4+ 2 i 0.0131(1) 0.8992(1) 0.8971(1) 1. 0 0 
Na1 Na1+ 2 i 0.0222(2) 0.8896(2) 0.3888(2) 1. 0 0 
Ca1 Ca2+ 2 i 0.1210(1) 0.5932(1) 0.9114(1) 1. 0 0 
Ca2 Ca2+ 2 i 0.1240(1) 0.5796(1) 0.4092(1) 1. 0 0 
K1 K1+ 2 i 0.6563(1) 0.8991(1) 0.7771(2) 1. 0 0 
K2 K1+ 2 i 0.5522(1) 0.6495(1) 0.2713(1) 1. 0 0 
Si1 Si4+ 2 i 0.1297(1) 0.3087(1) 0.8737(2) 1. 0 0 
Si2 Si4+ 2 i 0.1286(1) 0.3010(1) 0.4257(2) 1. 0 0 
Si3 Si4+ 2 i 0.3155(1) 0.4164(1) 0.1982(2) 1. 0 0 
Si4 Si4+ 2 i 0.6828(1) 0.1819(1) 0.0035(2) 1. 0 0 
Si5 Si4+ 2 i 0.6889(1) 0.1884(1) 0.5690(2) 1. 0 0 
Si6 Si4+ 2 i 0.6027(1) 0.3515(1) 0.2680(2) 1. 0 0 
Si7 Si4+ 2 i 0.7235(1) 0.0105(1) 0.2807(2) 1. 0 0 
O1 O2- 2 i 0.2748(3) 0.3454(2) 0.9972(4) 1. 0 0 
O2 O2- 2 i 0.0800(3) 0.1936(2) 0.9485(4) 1. 0 0 
O3 O2- 2 i 0.0336(3) 0.4068(2) 0.8726(4) 1. 0 0 
O4 O2- 2 i 0.1638(3) 0.2835(2) 0.6578(4) 1. 0 0 
O5 O2- 2 i 0.0810(3) 0.1823(2) 0.3344(4) 1. 0 0 
O6 O2- 2 i 0.0307(3) 0.3982(2) 0.3799(4) 1. 0 0 
O7 O2- 2 i 0.2725(3) 0.3393(2) 0.3681(4) 1. 0 0 
O8 O2- 2 i 0.2579(3) 0.5342(2) 0.1902(4) 1. 0 0 
O9 O2- 2 i 0.4753(3) 0.4260(2) 0.2394(4) 1. 0 0 
O10 O2- 2 i 0.5936(3) 0.2767(2) 0.0706(4) 1. 0 0 
O11 O2- 2 i 0.6429(3) 0.0652(2) 0.0890(4) 1. 0 0 
O12 O2- 2 i 0.8345(3) 0.2143(2) 0.0588(4) 1. 0 0 
O13 O2- 2 i 0.6316(3) 0.1705(2) 0.7675(4) 1. 0 0 
O14 O2- 2 i 0.8314(3) 0.2412(3) 0.5927(4) 1. 0 0 
O15 O2- 2 i 0.6737(3) 0.0649(2) 0.4671(4) 1. 0 0 
O16 O2- 2 i 0.5827(3) 0.2654(2) 0.4391(4) 1. 0 0 
O17 O2- 2 i 0.7321(3) 0.4279(2) 0.3079(4) 1. 0 0 
O18 O2- 2 i 0.6706(3) 0.8827(3) 0.2731(5) 1. 0 0 
O19 O2- 2 i 0.8779(3) 0.0265(2) 0.2889(4) 1. 0 0 
O20 O2- 2 i 0.9005(3) 0.0120(2) 0.8803(4) 1. 0 0 
H1 H1+ 2 i 0.2822(55) 0.1583(47) 0.7081(83) 1. 0 1. 

#End of data_10502-ICSD


