data_200598-ICSD
#?2014 by Fachinformationszentrum Karlsruhe, and the U.S. Secretary of 
#Commerce on behalf of the United States.  All rights reserved.
_database_code_ICSD                200598
_audit_creation_date               1980/01/01
_audit_update_record               1985/06/14
_chemical_name_systematic
;
Potassium Tetrakis(niobate) Fluoride
;
_chemical_formula_structural       'K5 (Nb O3)4 F'
_chemical_formula_sum              'F1 K5 Nb4 O12'
_publ_section_title
;
Preparation and structure of the double salt formed by potassium 
fluoride and potassium metaniobate K F (K Nb O3)4
;
loop_
_citation_id
_citation_journal_abbrev
_citation_year
_citation_journal_volume
_citation_page_first
_citation_page_last
_citation_journal_id_ASTM
primary 'Zhurnal Strukturnoi Khimii (Issue-No. from 1981)'
 1979 20 354 356 ZSTKAI
_publ_author_name
;
Dikareva, L.M.;Kamenskaya, L.A.;Kuznetsov, V.Ya.;Porai Koshits, 
M.A.;Rogachev, D.L.;Sadikov, G.G.
;
_cell_length_a                     5.1061(6)
_cell_length_b                     11.817(3)
_cell_length_c                     11.867(2)
_cell_angle_alpha                  90.
_cell_angle_beta                   92.98(1)
_cell_angle_gamma                  90.
_cell_volume                       715.07
_cell_formula_units_Z              2
_symmetry_space_group_name_H-M     'P 1 21/n 1'
_symmetry_Int_Tables_number        14
_refine_ls_R_factor_all            .029
loop_
_symmetry_equiv_pos_site_id
_symmetry_equiv_pos_as_xyz
  1	'-x+.5, y+.5, -z+.5'
  2	'-x, -y, -z'
  3	'x+.5, -y+.5, z+.5'
  4	'x, y, z'
loop_
_atom_type_symbol
_atom_type_oxidation_number
F1-	-1
K1+	1
Nb5+	5
O2-	-2
loop_
_atom_site_label
_atom_site_type_symbol
_atom_site_symmetry_multiplicity
_atom_site_Wyckoff_symbol
_atom_site_fract_x
_atom_site_fract_y
_atom_site_fract_z
_atom_site_occupancy
_atom_site_attached_hydrogens
Nb1 Nb5+ 4 e 0.0459(1) 0.35725(5) 0.97591(5) 1. 0 
Nb2 Nb5+ 4 e 0.5299(1) 0.48585(5) 0.85567(4) 1. 0 
K1 K1+ 4 e 0.0571(3) 0.3554(1) 0.3277(1) 1. 0 
K2 K1+ 4 e 0.0575(3) 0.3275(1) 0.6481(1) 1. 0 
K3 K1+ 2 a 0.5 0.5 0.5 1. 0 
O1 O2- 4 e 0.7559(7) 0.4595(3) 0.0378(3) 1. 0 
O2 O2- 4 e 0.2665(7) 0.3719(3) 0.1162(3) 1. 0 
O3 O2- 4 e 0.3320(8) 0.3381(4) 0.8811(4) 1. 0 
O4 O2- 4 e 0.8297(7) 0.3969(4) 0.8295(3) 1. 0 
O5 O2- 4 e 0.4248(9) 0.2804(4) 0.4981(3) 1. 0 
O6 O2- 4 e 0.6004(9) 0.4789(4) 0.2811(4) 1. 0 
F1 F1- 2 d 0 0.5 0.5 1. 0 

loop_
_atom_site_aniso_label
_atom_site_aniso_type_symbol
_atom_site_aniso_B_11
_atom_site_aniso_B_22
_atom_site_aniso_B_33
_atom_site_aniso_B_12
_atom_site_aniso_B_13
_atom_site_aniso_B_23
Nb1 Nb5+ 0.78(2) 0.59(2) 0.95(2) -.01(2) 0.12(2) -.03(2)
Nb2 Nb5+ 0.73(2) 0.97(2) 0.62(2) 0.02(2) 0.06(2) 0.02(2)
K1 K1+ 1.42(6) 0.94(6) 0.90(6) -.28(5) 0.11(5) 0.06(5)
K2 K1+ 1.85(7) 1.08(7) 0.95(6) -.22(5) 0.73(6) -.21(5)
K3 K1+ 0.85(8) 0.75(8) 0.86(8) -.15(7) 0.19(7) -.07(7)
O1 O2- 0.48(9) 0.3(2) 0.5(2) -.1(1) 0.1(1) 0.0(1)
O2 O2- 0.5(2) 0.4(2) 0.5(2) 0.0(1) -.1(1) 0.2(1)
O3 O2- 0.4(2) 0.4(2) 0.9(2) -.1(1) 0.1(1) -.1(1)
O4 O2- 0.2(2) 1.1(2) 0.5(2) 0.2(1) 0.0(1) -.1(1)
O5 O2- 0.9(2) 0.6(2) 1.2(2) 0.6(1) 0.3(2) 0.3(2)
O6 O2- 1.2(2) 1.6(2) 0.2(1) 0.2(2) -.2(2) 0.1(1)
F1 F1- 0.9(2) 1.1(2) 1.0(2) -.2(2) 0.0(2) -.1(1)
#End of data_200598-ICSD


