data_186261-ICSD
#?2014 by Fachinformationszentrum Karlsruhe, and the U.S. Secretary of 
#Commerce on behalf of the United States.  All rights reserved.
_database_code_ICSD                186261
_audit_creation_date               2013/02/01
_chemical_name_systematic          'Lithium Tetrahydridoborate'
_chemical_formula_structural       'Li (B H4)'
_chemical_formula_sum              'H4 B1 Li1'
_publ_section_title
;
Lightest borohydride probed by synchrotron x-ray diffraction: 
experiment calls for a new theoretical revision
;
loop_
_citation_id
_citation_journal_abbrev
_citation_year
_citation_journal_volume
_citation_page_first
_citation_page_last
_citation_journal_id_ASTM
primary 'Journal of Physical Chemistry C' 2008 112 10579 10584 JPCCCK
_publ_author_name
;
Filinchuk, Y.;Chernyshov, D.;Cerny, R.
;
_cell_length_a                     7.141(5)
_cell_length_b                     4.431(3)
_cell_length_c                     6.748(4)
_cell_angle_alpha                  90.
_cell_angle_beta                   90.
_cell_angle_gamma                  90.
_cell_volume                       213.52
_cell_formula_units_Z              4
_symmetry_space_group_name_H-M     'P n m a'
_symmetry_Int_Tables_number        62
_refine_ls_R_factor_all            .0455
loop_
_symmetry_equiv_pos_site_id
_symmetry_equiv_pos_as_xyz
  1	'x+.5, y, -z+.5'
  2	'x, -y+.5, z'
  3	'-x+.5, y+.5, z+.5'
  4	'-x, -y, -z'
  5	'-x+.5, -y, z+.5'
  6	'-x, y+.5, -z'
  7	'x+.5, -y+.5, -z+.5'
  8	'x, y, z'
loop_
_atom_type_symbol
_atom_type_oxidation_number
B3+	3
H1-	-1
Li1+	1
loop_
_atom_site_label
_atom_site_type_symbol
_atom_site_symmetry_multiplicity
_atom_site_Wyckoff_symbol
_atom_site_fract_x
_atom_site_fract_y
_atom_site_fract_z
_atom_site_occupancy
_atom_site_attached_hydrogens
_atom_site_U_iso_or_equiv
Li1 Li1+ 4 c 0.1602(3) 0.2500 0.1116(3) 1 0 0.0491(9) 
B1 B3+ 4 c 0.30279(16) 0.2500 0.42941(18) 1 0 0.0417(8) 
H1 H1- 4 c 0.399(2) 0.2500 0.5627(18) 1 0 0.056(4) 
H2 H1- 4 c 0.3912(18) 0.2500 0.290(2) 1 0 0.066(3) 
H3 H1- 8 d 0.2138(13) 0.046(2) 0.4312(16) 1 0 0.060(3) 

loop_
_atom_site_aniso_label
_atom_site_aniso_type_symbol
_atom_site_aniso_U_11
_atom_site_aniso_U_22
_atom_site_aniso_U_33
_atom_site_aniso_U_12
_atom_site_aniso_U_13
_atom_site_aniso_U_23
Li1 Li1+ 0.0409(12) 0.0563(14) 0.0502(14) 0.000 -0.0017(8) 0.000
B1 B3+ 0.0391(10) 0.0445(12) 0.0415(11) 0.000 -0.0026(5) 0.000
H1 H1- 0.059(9) 0.064(9) 0.045(8) 0.000 -0.010(7) 0.000
H2 H1- 0.057(8) 0.100(9) 0.040(8) 0.000 0.001(9) 0.000
H3 H1- 0.069(7) 0.040(6) 0.070(10) 0.002(5) -0.004(4) -0.005(5)
#End of data_186261-ICSD


