data_69428-ICSD
#?2014 by Fachinformationszentrum Karlsruhe, and the U.S. Secretary of 
#Commerce on behalf of the United States.  All rights reserved.
_database_code_ICSD                69428
_audit_creation_date               1992/08/20
_chemical_name_systematic          'Dipotassium Octagermanate'
_chemical_formula_structural       'K2 (Ge8 O17)'
_chemical_formula_sum              'Ge8 K2 O17'
_publ_section_title
;
K2Ge8O17: structure determination, optical properties, phase 
transition
;
loop_
_citation_id
_citation_journal_abbrev
_citation_year
_citation_journal_volume
_citation_page_first
_citation_page_last
_citation_journal_id_ASTM
primary 'European Journal of Solid State Inorganic Chemistry'
 1990 27 831 843 EJSCE5
_publ_author_name
;
Harbrecht, B.;Kushauer, J.;Weber, H.J.
;
_cell_length_a                     13.371(2)
_cell_length_b                     8.800(1)
_cell_length_c                     13.372(3)
_cell_angle_alpha                  90.
_cell_angle_beta                   90.
_cell_angle_gamma                  90.
_cell_volume                       1573.41
_cell_formula_units_Z              4
_symmetry_space_group_name_H-M     'P n m a'
_symmetry_Int_Tables_number        62
_refine_ls_R_factor_all            .031
loop_
_symmetry_equiv_pos_site_id
_symmetry_equiv_pos_as_xyz
  1	'x+.5, y, -z+.5'
  2	'x, -y+.5, z'
  3	'-x+.5, y+.5, z+.5'
  4	'-x, -y, -z'
  5	'-x+.5, -y, z+.5'
  6	'-x, y+.5, -z'
  7	'x+.5, -y+.5, -z+.5'
  8	'x, y, z'
loop_
_atom_type_symbol
_atom_type_oxidation_number
Ge4+	4
K1+	1
O2-	-2
loop_
_atom_site_label
_atom_site_type_symbol
_atom_site_symmetry_multiplicity
_atom_site_Wyckoff_symbol
_atom_site_fract_x
_atom_site_fract_y
_atom_site_fract_z
_atom_site_occupancy
_atom_site_attached_hydrogens
Ge1 Ge4+ 8 d 0.91420(3) 0.09096(6) 0.19203(3) 1. 0 
Ge2 Ge4+ 8 d 0.69066(3) 0.07146(6) 0.11444(3) 1. 0 
Ge3 Ge4+ 8 d 0.83085(3) 0.07808(6) 0.39684(4) 1. 0 
Ge4 Ge4+ 8 d 0.62571(3) 0.92918(5) 0.32459(3) 1. 0 
K1 K1+ 4 c 0.0966(1) 0.25 -.0179(1) 1. 0 
K2 K1+ 4 c 0.0069(1) 0.25 0.5957(1) 1. 0 
O1 O2- 4 c 0.9866(4) 0.25 0.1520(3) 1. 0 
O2 O2- 4 c 0.8554(4) 0.25 0.4580(3) 1. 0 
O3 O2- 4 c 0.6500(4) 0.25 0.1517(4) 1. 0 
O4 O2- 4 c 0.8385(4) 0.25 0.2592(3) 1. 0 
O5 O2- 4 c 0.3332(4) 0.25 0.6380(3) 1. 0 
O6 O2- 8 d 0.7011(2) 0.0644(4) 0.3809(2) 1. 0 
O7 O2- 8 d 0.6360(3) 0.5622(4) 0.1941(2) 1. 0 
O8 O2- 8 d 0.0031(2) 0.5468(4) 0.1392(2) 1. 0 
O9 O2- 8 d 0.6365(3) 0.4548(5) 0.9972(2) 1. 0 
O10 O2- 8 d 0.9066(3) 0.5093(4) 0.3083(2) 1. 0 
O11 O2- 8 d 0.8181(2) 0.4628(5) 0.1067(2) 1. 0 

loop_
_atom_site_aniso_label
_atom_site_aniso_type_symbol
_atom_site_aniso_B_11
_atom_site_aniso_B_22
_atom_site_aniso_B_33
_atom_site_aniso_B_12
_atom_site_aniso_B_13
_atom_site_aniso_B_23
Ge1 Ge4+ 0.91(1) 1.23(1) 0.84(1) -.02(1) 0.02(1) 0.28(1)
Ge2 Ge4+ 0.89(1) 1.32(2) 1.20(1) -.03(1) -.04(1) 0.51(1)
Ge3 Ge4+ 0.93(1) 1.51(2) 1.94(1) 0.17(1) -.14(1) -1.08(1)
Ge4 Ge4+ 0.93(1) 0.69(1) 0.78(1) -.08(1) 0.00(1) -.02(1)
K1 K1+ 1.99(5) 1.72(5) 1.31(4) 0 -.23(4) 0
K2 K1+ 1.51(4) 1.23(5) 1.45(4) 0 -.05(4) 0
O1 O2- 1.2(1) 0.8(1) 1.6(1) 0 0.3(1) 0
O2 O2- 1.9(2) 1.0(2) 0.9(1) 0 -.3(1) 0
O3 O2- 1.6(2) 1.3(2) 1.6(1) 0 0.3(1) 0
O4 O2- 1.0(1) 2.5(2) 1.3(1) 0 0.1(1) 0
O5 O2- 1.5(1) 0.7(1) 1.3(1) 0 -.2(1) 0
O6 O2- 1.06(9) 1.0(1) 1.53(9) -.1(1) 0.00(8) -.43(9)
O7 O2- 1.9(1) 1.4(1) 0.84(8) 0.6(1) 0.02(8) -.22(9)
O8 O2- 0.88(8) 1.4(1) 1.34(9) -.14(9) -.25(7) 0.16(9)
O9 O2- 1.5(1) 2.0(1) 1.17(9) -.2(1) -.23(8) -.37(9)
O10 O2- 1.8(1) 1.5(1) 0.98(8) -.3(1) 0.26(9) -.39(9)
O11 O2- 0.83(8) 1.9(1) 1.5(1) -.1(1) -.23(8) 0.2(1)
#End of data_69428-ICSD


