data_412765-ICSD
#?2014 by Fachinformationszentrum Karlsruhe, and the U.S. Secretary of 
#Commerce on behalf of the United States.  All rights reserved.
_database_code_ICSD                412765
_audit_creation_date               2003/10/01
_chemical_name_systematic
;
Dicalcium Hexaselenodiphosphate(IV)
;
_chemical_formula_structural       'Ca2 (P2 Se6)'
_chemical_formula_sum              'Ca2 P2 Se6'
_publ_section_title
;
Neue Hexachalkogeno-hypodiphosphate der Erdalkalimetalle und des 
Europiums
;
loop_
_citation_id
_citation_journal_abbrev
_citation_year
_citation_journal_volume
_citation_page_first
_citation_page_last
_citation_journal_id_ASTM
primary 'Zeitschrift fuer Anorganische und Allgemeine Chemie (1950) (DE)'
 2003 629 429 433 ZAACAB
_publ_author_name
;
Joergens, S.;Mewis, A.;Hoffmann, R.D.;Poettgen, R.;Mosel, B.D.
;
_cell_length_a                     9.664(2)
_cell_length_b                     7.519(2)
_cell_length_c                     6.859(1)
_cell_angle_alpha                  90.
_cell_angle_beta                   92.02(3)
_cell_angle_gamma                  90.
_cell_volume                       498.09
_cell_formula_units_Z              2
_symmetry_space_group_name_H-M     'P 1 21/n 1'
_symmetry_Int_Tables_number        14
_refine_ls_R_factor_all            .056
loop_
_symmetry_equiv_pos_site_id
_symmetry_equiv_pos_as_xyz
  1	'-x+.5, y+.5, -z+.5'
  2	'-x, -y, -z'
  3	'x+.5, -y+.5, z+.5'
  4	'x, y, z'
loop_
_atom_type_symbol
_atom_type_oxidation_number
Ca2+	2
P4+	4
Se2-	-2
loop_
_atom_site_label
_atom_site_type_symbol
_atom_site_symmetry_multiplicity
_atom_site_Wyckoff_symbol
_atom_site_fract_x
_atom_site_fract_y
_atom_site_fract_z
_atom_site_occupancy
_atom_site_attached_hydrogens
_atom_site_U_iso_or_equiv
Ca1 Ca2+ 4 e 0.2470(3) 0.3877(4) 0.9613(4) 1. 0 0.0183(6) 
Se1 Se2- 4 e 0.26426(14) 0.5117(2) 0.3791(2) 1. 0 0.0146(4) 
Se2 Se2- 4 e 0.95054(14) 0.2974(2) 0.1744(2) 1. 0 0.0142(4) 
Se3 Se2- 4 e 0.06272(14) 0.18931(19) 0.6624(2) 1. 0 0.0136(4) 
P1 P4+ 4 e 0.0636(3) 0.3930(5) 0.4359(5) 1. 0 0.0106(7) 

loop_
_atom_site_aniso_label
_atom_site_aniso_type_symbol
_atom_site_aniso_U_11
_atom_site_aniso_U_22
_atom_site_aniso_U_33
_atom_site_aniso_U_12
_atom_site_aniso_U_13
_atom_site_aniso_U_23
Ca1 Ca2+ 0.0208(15) 0.0155(15) 0.0185(14) -0.0009(12) -0.0009(11) 
-0.0005(11)
Se1 Se2- 0.0104(6) 0.0155(7) 0.0179(7) -0.0016(5) 0.0032(5) -0.0028(5)
Se2 Se2- 0.0139(7) 0.0151(7) 0.0134(6) 0.0001(5) -0.0014(5) -0.0029(6)
Se3 Se2- 0.0148(7) 0.0116(7) 0.0146(7) 0.0003(5) 0.0017(5) 0.0018(5)
P1 P4+ 0.0082(14) 0.0125(17) 0.0111(15) 0.0005(13) 0.0005(12) -0.0001(13)
#End of data_412765-ICSD


