data_15324-ICSD
#?2014 by Fachinformationszentrum Karlsruhe, and the U.S. Secretary of 
#Commerce on behalf of the United States.  All rights reserved.
_database_code_ICSD                15324
_audit_creation_date               1980/01/01
_chemical_name_systematic          'Potassium Amidotrioxosulfate'
_chemical_formula_structural       'K S O3 N H2'
_chemical_formula_sum              'H2 K1 N1 O3 S1'
_publ_section_title
;
A neutron diffraction study of potassium sulphamate, K S O3 N H2
;
loop_
_citation_id
_citation_journal_abbrev
_citation_year
_citation_journal_volume
_citation_page_first
_citation_page_last
_citation_journal_id_ASTM
primary 'Acta Crystallographica (1,1948-23,1967)' 1967 23 578 581 ACCRA9
_publ_author_name
;
Cox, G.W.;Sabine, T.M.;Padmanabhan, V.M.;Ban, N.T.;Chung, 
M.K.;Surjadi, A.J.
;
_cell_length_a                     5.907
_cell_length_b                     8.333
_cell_length_c                     8.302
_cell_angle_alpha                  90.
_cell_angle_beta                   90.
_cell_angle_gamma                  90.
_cell_volume                       408.65
_cell_formula_units_Z              4
_symmetry_space_group_name_H-M     'P b c m'
_symmetry_Int_Tables_number        57
loop_
_symmetry_equiv_pos_site_id
_symmetry_equiv_pos_as_xyz
  1	'x, -y+.5, z+.5'
  2	'-x, y+.5, z'
  3	'x, y, -z+.5'
  4	'-x, -y, -z'
  5	'-x, y+.5, -z+.5'
  6	'x, -y+.5, -z'
  7	'-x, -y, z+.5'
  8	'x, y, z'
loop_
_atom_type_symbol
_atom_type_oxidation_number
H1+	1
K1+	1
N3-	-3
O2-	-2
S6+	6
loop_
_atom_site_label
_atom_site_type_symbol
_atom_site_symmetry_multiplicity
_atom_site_Wyckoff_symbol
_atom_site_fract_x
_atom_site_fract_y
_atom_site_fract_z
_atom_site_occupancy
_atom_site_attached_hydrogens
S1 S6+ 4 d 0.1775(10) 0.1370(7) 0.25 1. 0 
N1 N3- 4 d 0.2914(4) 0.3198(3) 0.25 1. 0 
O1 O2- 4 d -.0684(6) 0.1532(5) 0.25 1. 0 
O2 O2- 8 e 0.2611(5) 0.0650(3) 0.3981(3) 1. 0 
K1 K1+ 4 c 0.6644(10) 0.25 0 1. 0 
H1 H1+ 8 e 0.2438(10) 0.3803(7) 0.1506(7) 1. 0 

#End of data_15324-ICSD


