data_426263-ICSD
#?2014 by Fachinformationszentrum Karlsruhe, and the U.S. Secretary of 
#Commerce on behalf of the United States.  All rights reserved.
_database_code_ICSD                426263
_audit_creation_date               2014/02/01
_audit_update_record               2014/08/01
_chemical_name_systematic          'Dilithium Trititanate'
_chemical_formula_structural       'Li2 (Ti3 O7)'
_chemical_formula_sum              'Li2 O7 Ti3'
_publ_section_title
;
On the crystal energy and structure of A2 Tin O2n+1 (A=Li, Na, K) 
titanates by DFT calculations and neutron diffraction
;
loop_
_citation_id
_citation_journal_abbrev
_citation_year
_citation_journal_volume
_citation_page_first
_citation_page_last
_citation_journal_id_ASTM
primary 'Journal of Solid State Chemistry' 2013 205 64 70 JSSCBI
_publ_author_name
;
Catti, Michele;Pinus, Ilya;Scherillo, Antonella
;
_cell_length_a                     9.31458(34)
_cell_length_b                     3.75215(13)
_cell_length_c                     7.54472(35)
_cell_angle_alpha                  90.0
_cell_angle_beta                   97.611(4)
_cell_angle_gamma                  90.0
_cell_volume                       261.36
_cell_formula_units_Z              2
_symmetry_space_group_name_H-M     'P 1 21/m 1'
_symmetry_Int_Tables_number        11
_refine_ls_R_factor_all            .0929
loop_
_symmetry_equiv_pos_site_id
_symmetry_equiv_pos_as_xyz
  1	'x, -y+.5, z'
  2	'-x, -y, -z'
  3	'-x, y+.5, -z'
  4	'x, y, z'
loop_
_atom_type_symbol
_atom_type_oxidation_number
Li1+	1
O2-	-2
Ti4+	4
loop_
_atom_site_label
_atom_site_type_symbol
_atom_site_symmetry_multiplicity
_atom_site_Wyckoff_symbol
_atom_site_fract_x
_atom_site_fract_y
_atom_site_fract_z
_atom_site_occupancy
_atom_site_attached_hydrogens
_atom_site_U_iso_or_equiv
Ti1 Ti4+ 2 e 0.9705(10) 0.25 0.1683(12) 1.0 0 0.0020(12) 
Ti2 Ti4+ 2 e 0.6603(10) 0.25 0.2636(11) 1.0 0 0.001 
Ti3 Ti4+ 2 e 0.2758(9) 0.25 0.0461(12) 1.0 0 0.0023(12) 
O1 O2- 2 e 0.1658(6) 0.25 0.2530(9) 1.0 0 0.0043(8) 
O2 O2- 2 e 0.4491(6) 0.25 0.1769(8) 1.0 0 0.0044(8) 
O3 O2- 2 e 0.6259(6) 0.25 0.4901(8) 1.0 0 0.0056(9) 
O4 O2- 2 e 0.8740(7) 0.25 0.3521(9) 1.0 0 0.0068(10) 
O5 O2- 2 e 0.7579(6) 0.25 0.0101(7) 1.0 0 0.0022(7) 
O6 O2- 2 e 0.3349(6) 0.25 0.7965(6) 1.0 0 0.0025(8) 
O7 O2- 2 e 0.0449(7) 0.25 0.9064(8) 1.0 0 0.0023(8) 
Li1 Li1+ 2 e 0.8241(31) 0.25 0.5943(32) 1.0 0 0.020(4) 
Li2 Li1+ 2 e 0.4022(18) 0.25 0.4352(18) 1.0 0 0.001 

#End of data_426263-ICSD


