data_64629-ICSD
#?2014 by Fachinformationszentrum Karlsruhe, and the U.S. Secretary of 
#Commerce on behalf of the United States.  All rights reserved.
_database_code_ICSD                64629
_audit_creation_date               1989/06/19
_audit_update_record               2006/04/01
_chemical_name_systematic          'Magnesium Catena-silicate'
_chemical_formula_structural       'Mg (Si O3)'
_chemical_formula_sum              'Mg1 O3 Si1'
_chemical_name_mineral             Enstatite
_publ_section_title
;
Enstatite, Mg2 Si2 O6: A neutron diffraction refinement of the 
crystal structure and a rigid-body analysis of the thermal vibration.
;
loop_
_citation_id
_citation_journal_abbrev
_citation_year
_citation_journal_volume
_citation_page_first
_citation_page_last
_citation_journal_id_ASTM
primary 'Zeitschrift fuer Kristallographie (1979-2010)' 1986 176 159 175 ZEKRDZ
2 'Golden Book of Phase Transitions, Wroclaw' 2002 1 1 123 GBOPT5
_publ_author_name
;
Ghose, S.;Schomaker, V.;McMullan, R.K.
;
_cell_length_a                     18.2350(30)
_cell_length_b                     8.818(1)
_cell_length_c                     5.179(1)
_cell_angle_alpha                  90.
_cell_angle_beta                   90.
_cell_angle_gamma                  90.
_cell_volume                       832.76
_cell_formula_units_Z              16
_symmetry_space_group_name_H-M     'P b c a'
_symmetry_Int_Tables_number        61
_refine_ls_R_factor_all            .032
loop_
_symmetry_equiv_pos_site_id
_symmetry_equiv_pos_as_xyz
  1	'x+.5, y, -z+.5'
  2	'x, -y+.5, z+.5'
  3	'-x+.5, y+.5, z'
  4	'-x, -y, -z'
  5	'-x+.5, -y, z+.5'
  6	'-x, y+.5, -z+.5'
  7	'x+.5, -y+.5, -z'
  8	'x, y, z'
loop_
_atom_type_symbol
_atom_type_oxidation_number
Mg2+	2
O2-	-2
Si4+	4
loop_
_atom_site_label
_atom_site_type_symbol
_atom_site_symmetry_multiplicity
_atom_site_Wyckoff_symbol
_atom_site_fract_x
_atom_site_fract_y
_atom_site_fract_z
_atom_site_occupancy
_atom_site_attached_hydrogens
Mg1 Mg2+ 8 c 0.37584(3) 0.65393(5) 0.8658(1) 1. 0 
Mg2 Mg2+ 8 c 0.37681(3) 0.48693(6) 0.35882(10) 1. 0 
Si1 Si4+ 8 c 0.27167(3) 0.34166(7) 0.05031(12) 1. 0 
Si2 Si4+ 8 c 0.47357(3) 0.33732(7) 0.79827(12) 1. 0 
O1 O2- 8 c 0.18346(2) 0.34009(5) 0.03471(9) 1. 0 
O2 O2- 8 c 0.56231(2) 0.34034(5) 0.80017(9) 1. 0 
O3 O2- 8 c 0.31091(3) 0.50255(5) 0.04319(9) 1. 0 
O4 O2- 8 c 0.43277(3) 0.48289(5) 0.68909(10) 1. 0 
O5 O2- 8 c 0.30318(3) 0.22259(5) -.16799(9) 1. 0 
O6 O2- 8 c 0.44762(3) 0.19506(5) 0.60361(9) 1. 0 

loop_
_atom_site_aniso_label
_atom_site_aniso_type_symbol
_atom_site_aniso_U_11
_atom_site_aniso_U_22
_atom_site_aniso_U_33
_atom_site_aniso_U_12
_atom_site_aniso_U_13
_atom_site_aniso_U_23
Mg1 Mg2+ 0.00609(17) 0.00454(17) 0.00371(19) -.00032(15) -.00057(14) 
0.00011(15)
Mg2 Mg2+ 0.00817(19) 0.00664(19) 0.00526(20) -.00069(16) -.00186(16) 
0.00049(16)
Si1 Si4+ 0.00378(21) 0.00373(23) 0.00271(23) -.00054(18) 0.00034(18) 
-.00013(20)
Si2 Si4+ 0.00385(22) 0.00321(21) 0.00301(22) 0.00034(18) -.00022(18) 
0.00023(19)
O1 O2- 0.00377(16) 0.00551(17) 0.00488(18) -.00018(13) 0.00012(13) 
0.00019(14)
O2 O2- 0.00424(16) 0.00563(16) 0.00451(17) 0.00006(13) -.00021(14) 
0.00029(14)
O3 O2- 0.00732(18) 0.00480(17) 0.00563(19) -.00207(14) -.00106(15) 
0.00064(14)
O4 O2- 0.00737(17) 0.00514(16) 0.00490(18) 0.00235(13) -.00112(15) 
0.00028(15)
O5 O2- 0.00560(16) 0.00746(18) 0.00426(18) 0.00055(14) -.00040(15) 
-.00197(14)
O6 O2- 0.00579(16) 0.00623(17) 0.00431(16) -.00074(14) 0.00052(14) 
-.00144(13)
#End of data_64629-ICSD


