data_402267-ICSD
#?2014 by Fachinformationszentrum Karlsruhe, and the U.S. Secretary of 
#Commerce on behalf of the United States.  All rights reserved.
_database_code_ICSD                402267
_audit_creation_date               1997/11/10
_chemical_name_systematic
;
Dialuminium Trisulfate(VI)) Octahydrate
;
_chemical_formula_structural       'Al2 (S O4)3 (H2 O)8'
_chemical_formula_sum              'H16 Al2 O20 S3'
_publ_section_title
;
Crystal structure of dialuminium tris(sulfate) octahydrate, Al2 (S 
O4)3 (H2 O)8
;
loop_
_citation_id
_citation_journal_abbrev
_citation_year
_citation_journal_volume
_citation_page_first
_citation_page_last
_citation_journal_id_ASTM
primary 'Zeitschrift fuer Kristallographie (1979-2010)' 1996 211 473 474 ZEKRDZ
_publ_author_name
;
Fischer, T.;Eisenmann, B.;Kniep, R.
;
_cell_length_a                     7.370(2)
_cell_length_b                     22.008(8)
_cell_length_c                     9.624(2)
_cell_angle_alpha                  90.
_cell_angle_beta                   91.62(10)
_cell_angle_gamma                  90.
_cell_volume                       1560.38
_cell_formula_units_Z              4
_symmetry_space_group_name_H-M     'P 1 21/c 1'
_symmetry_Int_Tables_number        14
_refine_ls_R_factor_all            .035
loop_
_symmetry_equiv_pos_site_id
_symmetry_equiv_pos_as_xyz
  1	'x, -y+.5, z+.5'
  2	'-x, -y, -z'
  3	'-x, y+.5, -z+.5'
  4	'x, y, z'
loop_
_atom_type_symbol
_atom_type_oxidation_number
Al3+	3
H1+	1
O2-	-2
S6+	6
loop_
_atom_site_label
_atom_site_type_symbol
_atom_site_symmetry_multiplicity
_atom_site_Wyckoff_symbol
_atom_site_fract_x
_atom_site_fract_y
_atom_site_fract_z
_atom_site_occupancy
_atom_site_attached_hydrogens
_atom_site_U_iso_or_equiv
Al1 Al3+ 4 e 0.22482(6) 0.60372(2) -.00229(4) 1. 0 0 
Al2 Al3+ 4 e -.19493(6) 0.64827(2) 0.54884(5) 1. 0 0 
S1 S6+ 4 e 0.30543(5) 0.69717(2) 0.25069(3) 1. 0 0 
S2 S6+ 4 e -.27042(5) 0.48854(2) 0.25983(3) 1. 0 0 
S3 S6+ 4 e -.16700(4) 0.636070(15) -.12141(3) 1. 0 0 
O1 O2- 4 e 0.00183(14) 0.64173(5) -.03566(11) 1. 0 0 
O2 O2- 4 e -.1990(2) 0.54720(5) 0.21032(13) 1. 0 0 
O3 O2- 4 e 0.3003(2) 0.67881(6) 0.39754(12) 1. 0 0 
O4 O2- 4 e 0.2337(2) 0.64579(5) 0.16774(12) 1. 0 0 
O5 O2- 4 e -.2463(2) 0.57578(5) -.10836(12) 1. 0 0 
O6 O2- 4 e -.2083(2) 0.47794(6) 0.40395(12) 1. 0 0 
O7 O2- 4 e -.1944(2) 0.43939(5) 0.17355(12) 1. 0 0 
O8 O2- 4 e 0.4946(2) 0.71080(5) 0.21523(12) 1. 0 0 
O9 O2- 4 e 0.4690(2) 0.51021(6) -.24945(13) 1. 0 0 
O10 O2- 4 e 0.1930(2) 0.75110(6) 0.22459(15) 1. 0 0 
O11 O2- 4 e -.2911(2) 0.68321(5) -.07542(14) 1. 0 0 
O12 O2- 4 e -.1169(2) 0.64719(6) -.26633(12) 1. 0 0 
O13 O2- 4 e 0.0245(2) 0.61382(6) 0.49546(13) 1. 0 0 
O14 O2- 4 e -.2544(2) 0.65049(6) 0.35680(12) 1. 0 0 
O16 O2- 4 e 0.44928(15) 0.56766(6) 0.03768(12) 1. 0 0 
O17 O2- 4 e 0.1186(2) 0.53997(5) 0.09606(13) 1. 0 0 
O18 O2- 4 e -.2966(2) 0.56988(6) 0.56748(13) 1. 0 0 
O19 O2- 4 e -.4248(2) 0.68270(6) 0.58567(12) 1. 0 0 
O20 O2- 4 e 0.3423(2) 0.66629(6) -.09640(14) 1. 0 0 
O21 O2- 4 e -.0903(2) 0.72628(5) -.45878(14) 1. 0 0 
H1 H1+ 4 e 0.0804(40) 0.5849(13) 0.5268(31) 1. 0 0.048(2) 
H2 H1+ 4 e 0.0987(42) 0.6367(13) 0.4619(33) 1. 0 0.048(2) 
H3 H1+ 4 e -.3237(42) 0.6705(14) 0.3094(31) 1. 0 0.048(2) 
H4 H1+ 4 e -.2362(41) 0.6215(14) 0.3035(32) 1. 0 0.048(2) 
H5 H1+ 4 e 0.4672(40) 0.5504(13) 0.1137(31) 1. 0 0.048(2) 
H6 H1+ 4 e 0.5472(42) 0.5665(13) -.0090(32) 1. 0 0.048(2) 
H7 H1+ 4 e 0.0206(43) 0.5467(13) 0.1406(30) 1. 0 0.048(2) 
H8 H1+ 4 e 0.1517(41) 0.5041(14) 0.1018(28) 1. 0 0.048(2) 
H9 H1+ 4 e -.2571(42) 0.5437(13) 0.5195(32) 1. 0 0.048(2) 
H10 H1+ 4 e -.3670(42) 0.5596(13) 0.6379(32) 1. 0 0.048(2) 
H11 H1+ 4 e -.5054(42) 0.6785(14) 0.5335(31) 1. 0 0.048(2) 
H12 H1+ 4 e -.4372(37) 0.7180(14) 0.6329(29) 1. 0 0.048(2) 
H13 H1+ 4 e 0.2857(42) 0.6839(14) -.1609(30) 1. 0 0.048(2) 
H14 H1+ 4 e 0.4421(43) 0.6734(14) -.0972(30) 1. 0 0.048(2) 
H15 H1+ 4 e -.1383(39) 0.7568(13) -.4905(31) 1. 0 0.048(2) 
H16 H1+ 4 e 0.0025(39) 0.7324(14) -.4001(29) 1. 0 0.048(2) 

loop_
_atom_site_aniso_label
_atom_site_aniso_type_symbol
_atom_site_aniso_U_11
_atom_site_aniso_U_22
_atom_site_aniso_U_33
_atom_site_aniso_U_12
_atom_site_aniso_U_13
_atom_site_aniso_U_23
Al1 Al3+ 0.0142(2) 0.0128(2) 0.0159(2) 0.00039(14) -.00058(15) -.00040(14)
Al2 Al3+ 0.0173(2) 0.0155(2) 0.0163(2) 0.00123(15) -.0009(2) 0.00078(14)
S1 S6+ 0.0163(2) 0.0147(2) 0.0163(2) 0.00035(11) -.00281(12) -.00155(11)
S2 S6+ 0.0175(2) 0.0157(2) 0.0146(2) 0.00231(11) 0.00005(12) -.00121(11)
S3 S6+ 0.0132(2) 0.0134(2) 0.0172(2) 0.00013(10) -.00154(12) -.00068(10)
O1 O2- 0.0154(4) 0.0197(5) 0.0201(5) 0.0029(4) -.0052(4) -.0038(4)
O2 O2- 0.0275(6) 0.0192(5) 0.0299(6) -.0003(4) 0.0062(5) 0.0022(4)
O3 O2- 0.0242(5) 0.0367(7) 0.0163(5) -.0050(5) -.0019(4) 0.0009(4)
O4 O2- 0.0294(6) 0.0214(5) 0.0218(5) -.0035(4) -.0022(4) -.0074(4)
O5 O2- 0.0219(5) 0.0152(5) 0.0311(6) -.0034(4) 0.0022(4) 0.0001(4)
O6 O2- 0.0403(7) 0.0257(6) 0.0159(5) 0.0134(5) -.0044(5) -.0021(4)
O7 O2- 0.0292(6) 0.0239(5) 0.0213(5) 0.0070(4) -.0021(4) -.0091(4)
O8 O2- 0.0187(5) 0.0260(6) 0.0291(6) -.0021(4) -.0011(4) 0.0082(4)
O9 O2- 0.0177(5) 0.0311(6) 0.0293(6) 0.0012(4) 0.0012(4) -.0003(5)
O10 O2- 0.0283(6) 0.0203(5) 0.0405(7) 0.0079(5) -.0113(5) -.0045(5)
O11 O2- 0.0162(5) 0.0206(5) 0.0426(7) 0.0042(4) -.0022(5) -.0093(5)
O12 O2- 0.0295(6) 0.0325(6) 0.0180(5) -.0060(5) -.0040(4) 0.0049(4)
O13 O2- 0.0205(5) 0.0235(5) 0.0290(6) 0.0059(4) 0.0042(4) 0.0091(4)
O14 O2- 0.0295(6) 0.0270(6) 0.0183(5) 0.0105(5) -.0053(4) -.0027(4)
O16 O2- 0.0160(5) 0.0272(6) 0.0242(5) 0.0052(4) 0.0019(4) 0.0078(4)
O17 O2- 0.0222(5) 0.0137(5) 0.0345(6) -.0001(4) 0.0087(4) 0.0027(4)
O18 O2- 0.0327(6) 0.0179(5) 0.0276(6) -.0050(4) 0.0103(5) -.0044(4)
O19 O2- 0.0192(5) 0.0258(6) 0.0259(5) 0.0054(4) -.0041(4) -.0090(4)
O20 O2- 0.0172(5) 0.0253(6) 0.0353(6) -.0030(4) -.0018(5) 0.0147(5)
O21 O2- 0.0284(6) 0.0164(5) 0.0367(6) -.0031(4) -.0105(5) 0.0069(5)
#End of data_402267-ICSD


