data_417774-ICSD
#?2014 by Fachinformationszentrum Karlsruhe, and the U.S. Secretary of 
#Commerce on behalf of the United States.  All rights reserved.
_database_code_ICSD                417774
_audit_creation_date               2008/02/01
_chemical_name_systematic
;
Silver Vanadium(V) Pentaoxotellurate(IV)
;
_chemical_formula_structural       'Ag V (Te O5)'
_chemical_formula_sum              'Ag1 O5 Te1 V1'
_publ_section_title
;
Hydrothermal synthesis and crystal structure of Ag V M O5 (M=Se,Te)
;
loop_
_citation_id
_citation_journal_abbrev
_citation_year
_citation_journal_volume
_citation_journal_issue
_citation_page_first
_citation_page_last
_citation_journal_id_ASTM
primary 'Zeitschrift fuer Anorganische und Allgemeine Chemie (1950) (DE)'
 2007 633 10 1563 1567 ZAACAB
_publ_author_name                  'Pitzschke, D.;Jansen, M.'
_cell_length_a                     5.86590(10)
_cell_length_b                     11.3798(2)
_cell_length_c                     6.80780(10)
_cell_angle_alpha                  90.00
_cell_angle_beta                   102.7330(10)
_cell_angle_gamma                  90.00
_cell_volume                       443.26
_cell_formula_units_Z              4
_symmetry_space_group_name_H-M     'P 1 21/c 1'
_symmetry_Int_Tables_number        14
_refine_ls_R_factor_all            .0381
loop_
_symmetry_equiv_pos_site_id
_symmetry_equiv_pos_as_xyz
  1	'x, -y+.5, z+.5'
  2	'-x, -y, -z'
  3	'-x, y+.5, -z+.5'
  4	'x, y, z'
loop_
_atom_type_symbol
_atom_type_oxidation_number
Ag1+	1
O2-	-2
Te4+	4
V5+	5
loop_
_atom_site_label
_atom_site_type_symbol
_atom_site_symmetry_multiplicity
_atom_site_Wyckoff_symbol
_atom_site_fract_x
_atom_site_fract_y
_atom_site_fract_z
_atom_site_occupancy
_atom_site_attached_hydrogens
_atom_site_U_iso_or_equiv
Te1 Te4+ 4 e 0.24249(5) 0.94093(3) 0.09924(5) 1 0 0.01193(12) 
Ag1 Ag1+ 4 e 0.80306(6) 0.79270(5) 0.31004(8) 1 0 0.02432(15) 
V1 V5+ 4 e 0.32026(12) 0.62000(8) 0.08845(13) 1 0 0.01201(19) 
O1 O2- 4 e 0.4388(5) 0.5164(4) 0.2793(7) 1 0 0.0173(9) 
O2 O2- 4 e 0.1646(6) 0.5479(4) -0.1424(7) 1 0 0.0181(8) 
O3 O2- 4 e 0.1397(6) 0.7056(4) 0.1735(7) 1 0 0.0211(9) 
O4 O2- 4 e 0.5268(6) 0.7026(4) 0.0326(7) 1 0 0.0220(9) 
O5 O2- 4 e 0.1248(5) 1.0915(4) 0.0127(6) 1 0 0.0139(7) 

loop_
_atom_site_aniso_label
_atom_site_aniso_type_symbol
_atom_site_aniso_U_11
_atom_site_aniso_U_22
_atom_site_aniso_U_33
_atom_site_aniso_U_12
_atom_site_aniso_U_13
_atom_site_aniso_U_23
Te1 Te4+ 0.01067(16) 0.01294(18) 0.0116(2) 0.00100(9) 0.00116(9) 
0.00011(12)
Ag1 Ag1+ 0.0182(2) 0.0312(3) 0.0243(3) -0.00212(15) 0.00622(14) 0.0012(2)
V1 V5+ 0.0107(3) 0.0129(4) 0.0119(5) 0.0014(3) 0.0015(3) -0.0001(3)
O1 O2- 0.0096(13) 0.022(2) 0.018(2) 0.0033(13) -0.0023(11) 0.0028(17)
O2 O2- 0.0192(16) 0.019(2) 0.017(2) -0.0031(14) 0.0052(13) 0.0010(17)
O3 O2- 0.0197(16) 0.021(2) 0.024(3) -0.0001(14) 0.0068(13) 0.0010(19)
O4 O2- 0.0189(16) 0.023(2) 0.026(3) -0.0063(14) 0.0080(14) -0.0001(19)
O5 O2- 0.0091(13) 0.0106(17) 0.020(2) 0.0015(12) -0.0001(11) 0.0029(16)
#End of data_417774-ICSD


