data_249417-ICSD
#?2014 by Fachinformationszentrum Karlsruhe, and the U.S. Secretary of 
#Commerce on behalf of the United States.  All rights reserved.
_database_code_ICSD                249417
_audit_creation_date               2008/02/01
_chemical_name_systematic
;
Trisilver Tetraoxovanadate(V) - Alpha
;
_chemical_formula_structural       'Ag3 (V O4)'
_chemical_formula_sum              'Ag3 O4 V1'
_publ_section_title
;
The Ag2O - V2O5 - HF(aq) system and crystal structure of alpha - 
Ag3VO4
;
loop_
_citation_id
_citation_journal_abbrev
_citation_year
_citation_journal_volume
_citation_journal_issue
_citation_page_first
_citation_page_last
_citation_journal_id_ASTM
primary 'Inorganic Chemistry' 2007 46 5 1704 1708 INOCAJ
_publ_author_name
;
Albrecht, T.A.;Stern, C.L.;Poeppelmeier, K.R.
;
_cell_length_a                     10.1885(16)
_cell_length_b                     4.9751(8)
_cell_length_c                     10.2014(17)
_cell_angle_alpha                  90.00
_cell_angle_beta                   115.754(3)
_cell_angle_gamma                  90.00
_cell_volume                       465.73
_cell_formula_units_Z              4
_symmetry_space_group_name_H-M     'C 1 2/c 1'
_symmetry_Int_Tables_number        15
_refine_ls_R_factor_all            .0295
loop_
_symmetry_equiv_pos_site_id
_symmetry_equiv_pos_as_xyz
  1	'x, -y, z+.5'
  2	'-x, -y, -z'
  3	'-x, y, -z+.5'
  4	'x, y, z'
  5	'x+.5, -y+.5, z+.5'
  6	'-x+.5, -y+.5, -z'
  7	'-x+.5, y+.5, -z+.5'
  8	'x+.5, y+.5, z'
loop_
_atom_type_symbol
_atom_type_oxidation_number
Ag1+	1
O2-	-2
V5+	5
loop_
_atom_site_label
_atom_site_type_symbol
_atom_site_symmetry_multiplicity
_atom_site_Wyckoff_symbol
_atom_site_fract_x
_atom_site_fract_y
_atom_site_fract_z
_atom_site_occupancy
_atom_site_attached_hydrogens
_atom_site_U_iso_or_equiv
Ag1 Ag1+ 8 f 0.23997(5) 0.03982(9) 0.09805(5) 1 0 0.01355(19) 
Ag2 Ag1+ 4 b 0.5000 0.0000 0.5000 1 0 0.0168(2) 
V1 V5+ 4 e 0.5000 0.4638(3) 0.2500 1 0 0.0103(3) 
O1 O2- 8 f 0.3815(4) 0.2655(8) 0.2886(4) 1 0 0.0155(8) 
O2 O2- 8 f 0.0933(4) -0.1659(8) -0.1029(4) 1 0 0.0161(8) 

loop_
_atom_site_aniso_label
_atom_site_aniso_type_symbol
_atom_site_aniso_U_11
_atom_site_aniso_U_22
_atom_site_aniso_U_33
_atom_site_aniso_U_12
_atom_site_aniso_U_13
_atom_site_aniso_U_23
Ag1 Ag1+ 0.0162(3) 0.0114(3) 0.0134(3) -0.00214(14) 0.0068(2) -0.00146(14)
Ag2 Ag1+ 0.0240(4) 0.0127(3) 0.0163(4) 0.0048(2) 0.0112(3) 0.0017(2)
V1 V5+ 0.0111(7) 0.0074(6) 0.0135(7) 0.000 0.0064(6) 0.000
O1 O2- 0.0177(19) 0.013(2) 0.016(2) -0.0011(16) 0.0076(16) -0.0008(16)
O2 O2- 0.020(2) 0.012(2) 0.0150(19) 0.0011(16) 0.0067(16) 0.0037(16)
#End of data_249417-ICSD


