data_415715-ICSD
#?2014 by Fachinformationszentrum Karlsruhe, and the U.S. Secretary of 
#Commerce on behalf of the United States.  All rights reserved.
_database_code_ICSD                415715
_audit_creation_date               2006/10/01
_chemical_name_systematic          'Barium Dicalcium Nitridophosphate'
_chemical_formula_structural       'Ba Ca2 P6 N12'
_chemical_formula_sum              'Ba1 Ca2 N12 P6'
_publ_section_title
;
Hochdrucksynthese von Ba Sr2 P6 N12 und Ba Ca2 P6 N12 und 
Strukturvergleich der Reihe Ba P2 N4, Ba Ca2 P6 N12 und Ba Sr2 P6 N12
;
loop_
_citation_id
_citation_journal_abbrev
_citation_year
_citation_journal_volume
_citation_journal_issue
_citation_page_first
_citation_page_last
_citation_journal_id_ASTM
primary 'Zeitschrift fuer Anorganische und Allgemeine Chemie (1950) (DE)'
 2006 632 2 231 237 ZAACAB
_publ_author_name                  'Karau, F.;Schnick, W.'
_cell_length_a                     9.95776(15)
_cell_length_b                     9.95776
_cell_length_c                     9.95776
_cell_angle_alpha                  90.
_cell_angle_beta                   90.
_cell_angle_gamma                  90.
_cell_volume                       987.38
_cell_formula_units_Z              4
_symmetry_space_group_name_H-M     'P a -3'
_symmetry_Int_Tables_number        205
_refine_ls_R_factor_all            .0323
loop_
_symmetry_equiv_pos_site_id
_symmetry_equiv_pos_as_xyz
  1	'-z+.5, x+.5, y'
  2	'z+.5, x, -y+.5'
  3	'z, -x+.5, y+.5'
  4	'-z, -x, -y'
  5	'y, -z+.5, x+.5'
  6	'-y+.5, z+.5, x'
  7	'y+.5, z, -x+.5'
  8	'-y, -z, -x'
  9	'x+.5, y, -z+.5'
 10	'x, -y+.5, z+.5'
 11	'-x+.5, y+.5, z'
 12	'-x, -y, -z'
 13	'z+.5, -x+.5, -y'
 14	'-z+.5, -x, y+.5'
 15	'-z, x+.5, -y+.5'
 16	'z, x, y'
 17	'-y, z+.5, -x+.5'
 18	'y+.5, -z+.5, -x'
 19	'-y+.5, -z, x+.5'
 20	'y, z, x'
 21	'-x+.5, -y, z+.5'
 22	'-x, y+.5, -z+.5'
 23	'x+.5, -y+.5, -z'
 24	'x, y, z'
loop_
_atom_type_symbol
_atom_type_oxidation_number
Ba2+	2
Ca2+	2
N3-	-3
P5+	5
loop_
_atom_site_label
_atom_site_type_symbol
_atom_site_symmetry_multiplicity
_atom_site_Wyckoff_symbol
_atom_site_fract_x
_atom_site_fract_y
_atom_site_fract_z
_atom_site_occupancy
_atom_site_attached_hydrogens
_atom_site_U_iso_or_equiv
Ba1 Ba2+ 4 a 0.0 0.0 0.0 1.0 0 0.0791(7) 
Ca1 Ca2+ 8 c 0.3740(4) 0.3740(4) 0.3740(4) 1.0 0 0.0447(16) 
P1 P5+ 24 d 0.1897(5) 0.3441(6) 0.1195(5) 1.0 0 0.0825(20) 
N1 N3- 24 d 0.3297(12) 0.2684(12) 0.1147(12) 1.0 0 0.075(5) 
N2 N3- 24 d 0.2081(11) 0.5025(19) 0.0972(13) 1.0 0 0.085(6) 

#End of data_415715-ICSD


