data_63662-ICSD
#?2014 by Fachinformationszentrum Karlsruhe, and the U.S. Secretary of 
#Commerce on behalf of the United States.  All rights reserved.
_database_code_ICSD                63662
_audit_creation_date               1988/12/19
_chemical_name_systematic          'Zinc Selenate Hexahydrate'
_chemical_formula_structural       'Zn Se O4 (H2 O)6'
_chemical_formula_sum              'H12 O10 Se1 Zn1'
_publ_section_title
;
Structure and absolute optical chirality of zinc selenate hexahydrate
;
loop_
_citation_id
_citation_journal_abbrev
_citation_year
_citation_journal_volume
_citation_page_first
_citation_page_last
_citation_journal_id_ASTM
primary 'Acta Crystallographica, Section B: Structural Science'
 1988 44 356 361 ASBSDK
_publ_author_name
;
Stadnicka, K.;Glazer, A.M.;Koralewski, M.
;
_cell_length_a                     6.947(1)
_cell_length_b                     6.947(1)
_cell_length_c                     18.592(1)
_cell_angle_alpha                  90.
_cell_angle_beta                   90.
_cell_angle_gamma                  90.
_cell_volume                       897.26
_cell_formula_units_Z              4
_symmetry_space_group_name_H-M     'P 41 21 2'
_symmetry_Int_Tables_number        92
_refine_ls_R_factor_all            .0216
loop_
_symmetry_equiv_pos_site_id
_symmetry_equiv_pos_as_xyz
  1	'x+.5, -y+.5, -z+.75'
  2	'-x+.5, y+.5, -z+.25'
  3	'-y, -x, -z+.5'
  4	'y, x, -z'
  5	'y+.5, -x+.5, z+.75'
  6	'-y+.5, x+.5, z+.25'
  7	'-x, -y, z+.5'
  8	'x, y, z'
loop_
_atom_type_symbol
_atom_type_oxidation_number
H1+	1
O2-	-2
Se6+	6
Zn2+	2
loop_
_atom_site_label
_atom_site_type_symbol
_atom_site_symmetry_multiplicity
_atom_site_Wyckoff_symbol
_atom_site_fract_x
_atom_site_fract_y
_atom_site_fract_z
_atom_site_occupancy
_atom_site_attached_hydrogens
_atom_site_U_iso_or_equiv
Zn1 Zn2+ 4 a 0.21724(6) 0.21724(6) 0 1. 0 0 
Se1 Se6+ 4 a 0.71562(5) 0.71562(5) 0 1. 0 0 
O1 O2- 8 b 0.1801(4) -.0386(4) 0.0526(2) 1. 0 0 
O2 O2- 8 b 0.4739(4) 0.2523(4) 0.0570(2) 1. 0 0 
O3 O2- 8 b 0.0735(4) 0.3628(4) 0.0859(1) 1. 0 0 
O4 O2- 8 b 0.6179(4) 0.6222(4) 0.0722(1) 1. 0 0 
O5 O2- 8 b 0.9475(3) 0.6757(4) 0.0028(2) 1. 0 0 
H1 H1+ 8 b 0.096(2) -.095(2) 0.045(2) 1. 0 0.048(2) 
H2 H1+ 8 b 0.231(2) -.058(2) 0.088(2) 1. 0 0.046(2) 
H3 H1+ 8 b 0.564(2) 0.166(2) 0.051(2) 1. 0 0.047(2) 
H4 H1+ 8 b 0.510(2) 0.348(2) 0.062(2) 1. 0 0.047(2) 
H5 H1+ 8 b 0.010(2) 0.440(2) 0.077(2) 1. 0 0.050(2) 
H6 H1+ 8 b 0.006(2) 0.279(2) 0.125(2) 1. 0 0.061(2) 

loop_
_atom_site_aniso_label
_atom_site_aniso_type_symbol
_atom_site_aniso_U_11
_atom_site_aniso_U_22
_atom_site_aniso_U_33
_atom_site_aniso_U_12
_atom_site_aniso_U_13
_atom_site_aniso_U_23
Zn1 Zn2+ 0.0187(2) 0.0187(2) 0.0193(3) 0.0007(2) -.0007(2) -.0021(2)
Se1 Se6+ 0.0157(2) 0.0157(2) 0.0225(3) -.0013(2) 0.0013(2) 0.0002(2)
O1 O2- 0.034(2) 0.030(1) 0.036(1) 0.018(1) -.015(1) -.011(1)
O2 O2- 0.019(1) 0.022(1) 0.035(1) -.005(1) -.003(1) -.001(1)
O3 O2- 0.025(1) 0.024(1) 0.026(1) -.001(1) 0.002(1) 0.003(1)
O4 O2- 0.048(1) 0.023(1) 0.030(1) -.002(1) 0.014(1) -.006(1)
O5 O2- 0.017(1) 0.027(1) 0.043(1) -.006(1) -.004(1) 0.005(1)
#End of data_63662-ICSD


