data_410193-ICSD
#?2014 by Fachinformationszentrum Karlsruhe, and the U.S. Secretary of 
#Commerce on behalf of the United States.  All rights reserved.
_database_code_ICSD                410193
_audit_creation_date               2001/07/16
_chemical_name_systematic          'Barium Tetrachlorozincate'
_chemical_formula_structural       'Ba (Zn Cl4)'
_chemical_formula_sum              'Ba1 Cl4 Zn1'
_publ_section_title
;
Synthese und Kristallstrukturen der Tetrachlorozinkate Sr Zn Cl4 und 
Ba Zn Cl4
;
loop_
_citation_id
_citation_journal_abbrev
_citation_year
_citation_journal_volume
_citation_page_first
_citation_page_last
_citation_journal_id_ASTM
primary 'Zeitschrift fuer Anorganische und Allgemeine Chemie (1950) (DE)'
 1999 625 507 510 ZAACAB
_publ_author_name
;
Wickleder, C.;Masselmann, S.;Meyer, G.
;
_cell_length_a                     7.2415(6)
_cell_length_b                     9.8628(12)
_cell_length_c                     9.4771(8)
_cell_angle_alpha                  90.
_cell_angle_beta                   90.
_cell_angle_gamma                  90.
_cell_volume                       676.87
_cell_formula_units_Z              4
_symmetry_space_group_name_H-M     'P n n a'
_symmetry_Int_Tables_number        52
_refine_ls_R_factor_all            .0222
loop_
_symmetry_equiv_pos_site_id
_symmetry_equiv_pos_as_xyz
  1	'x+.5, -y+.5, z+.5'
  2	'-x, y+.5, z+.5'
  3	'x+.5, y, -z'
  4	'-x, -y, -z'
  5	'-x+.5, y+.5, -z+.5'
  6	'x, -y+.5, -z+.5'
  7	'-x+.5, -y, z'
  8	'x, y, z'
loop_
_atom_type_symbol
_atom_type_oxidation_number
Ba2+	2
Cl1-	-1
Zn2+	2
loop_
_atom_site_label
_atom_site_type_symbol
_atom_site_symmetry_multiplicity
_atom_site_Wyckoff_symbol
_atom_site_fract_x
_atom_site_fract_y
_atom_site_fract_z
_atom_site_occupancy
_atom_site_attached_hydrogens
Ba1 Ba2+ 4 d 0.18164(3) 0.75 0.75 1. 0 
Zn1 Zn2+ 4 c 0.25 0.5 0.32198(5) 1. 0 
Cl1 Cl1- 8 e 0.16340(11) 0.31555(7) 0.44803(7) 1. 0 
Cl2 Cl1- 8 e -.00528(10) 0.96278(6) 0.31180(8) 1. 0 

loop_
_atom_site_aniso_label
_atom_site_aniso_type_symbol
_atom_site_aniso_U_11
_atom_site_aniso_U_22
_atom_site_aniso_U_33
_atom_site_aniso_U_12
_atom_site_aniso_U_13
_atom_site_aniso_U_23
Ba1 Ba2+ 0.0178(2) 0.01721(12) 0.0210(2) 0 0 -.00329(7)
Zn1 Zn2+ 0.0184(3) 0.0261(2) 0.0244(2) -.0035(2) 0 0
Cl1 Cl1- 0.0302(5) 0.0398(4) 0.0268(3) -.0112(3) -.0084(3) 0.0138(3)
Cl2 Cl1- 0.0199(4) 0.0230(3) 0.0327(4) -.0025(2) 0.0041(2) 0.0013(2)
#End of data_410193-ICSD


