data_247693-ICSD
#?2014 by Fachinformationszentrum Karlsruhe, and the U.S. Secretary of 
#Commerce on behalf of the United States.  All rights reserved.
_database_code_ICSD                247693
_audit_creation_date               2013/08/01
_chemical_name_systematic
;
Tripotassium Hydrogen Bis(sulfate(VI))
;
_chemical_formula_structural       'K3 H (S O4)2'
_chemical_formula_sum              'H1 K3 O8 S2'
_publ_section_title
;
Neutron scattering studies of K3 H (S O4)2 and K3 D (S O4)2: The 
particle-in-a-box model for the quantum phase transition
;
loop_
_citation_id
_citation_journal_abbrev
_citation_year
_citation_journal_volume
_citation_journal_issue
_citation_page_first
_citation_page_last
_citation_journal_id_ASTM
primary 'Journal of Chemical Physics' 2012 137 7 074504-1 074504-10 JCPSA6
_publ_author_name                  'Fillaux, Francois;Cousson, Alain'
_cell_length_a                     9.704(1)
_cell_length_b                     5.639(1)
_cell_length_c                     14.526(1)
_cell_angle_alpha                  90
_cell_angle_beta                   102.95(1)
_cell_angle_gamma                  90
_cell_volume                       774.66
_cell_formula_units_Z              4
_symmetry_space_group_name_H-M     'A 1 2/a 1'
_symmetry_Int_Tables_number        15
_refine_ls_R_factor_all            .027
loop_
_symmetry_equiv_pos_site_id
_symmetry_equiv_pos_as_xyz
  1	'-x+.5, y, -z'
  2	'-x, -y, -z'
  3	'x+.5, -y, z'
  4	'x, y, z'
  5	'-x+.5, y+.5, -z+.5'
  6	'-x, -y+.5, -z+.5'
  7	'x+.5, -y+.5, z+.5'
  8	'x, y+.5, z+.5'
loop_
_atom_type_symbol
_atom_type_oxidation_number
H1+	1
K1+	1
O2-	-2
S6+	6
loop_
_atom_site_label
_atom_site_type_symbol
_atom_site_symmetry_multiplicity
_atom_site_Wyckoff_symbol
_atom_site_fract_x
_atom_site_fract_y
_atom_site_fract_z
_atom_site_occupancy
_atom_site_attached_hydrogens
_atom_site_U_iso_or_equiv
K1 K1+ 4 e 0.25 0.75077(11) 0 1. 0 0.0041 
K2 K1+ 8 f 0.34809(5) 0.73247(8) 0.30601(3) 1. 0 0.0044 
S1 S6+ 8 f 0.03807(6) 0.2726(1) -0.11626(4) 1. 0 0.0025 
O1 O2- 8 f 0.09896(3) 0.47808(5) -0.15424(2) 1. 0 0.0050 
O2 O2- 8 f 0.10868(3) 0.05211(5) -0.13025(2) 1. 0 0.0051 
O3 O2- 8 f -0.11553(3) 0.25992(5) -0.15300(2) 1. 0 0.0050 
O4 O2- 8 f 0.06148(3) 0.31314(5) -0.009127(19 1. 0 0.0052 
H1 H1+ 4 b 0 0.5 0 1. 0 0.0213 

loop_
_atom_site_aniso_label
_atom_site_aniso_type_symbol
_atom_site_aniso_U_11
_atom_site_aniso_U_22
_atom_site_aniso_U_33
_atom_site_aniso_U_12
_atom_site_aniso_U_13
_atom_site_aniso_U_23
K1 K1+ 0.0043(2) 0.0048(2) 0.0031(2) 0.0000 0.00068(16) 0.0000
K2 K1+ 0.00446(16) 0.00402(16) 0.00458(15) -0.00024(12) 0.00104(12) 
-0.00050(12)
S1 S6+ 0.00272(19) 0.00217(18) 0.00252(18) 0.00014(15) 0.00057(14) 
0.00001(14)
O1 O2- 0.00599(12) 0.00410(11) 0.00525(11) -0.00108(8) 0.00187(8) 
0.00060(8)
O2 O2- 0.00578(11) 0.00396(11) 0.00583(11) 0.00145(8) 0.00169(8) 
-0.00002(8)
O3 O2- 0.00338(11) 0.00607(11) 0.0053(1) -0.00014(8) 0.00057(7) -0.00023(8)
O4 O2- 0.00666(12) 0.00599(12) 0.0029(1) 0.00021(8) 0.00090(8) -0.00011(7)
H1 H1+ 0.0209 0.0304 0.0129 -0.0082 0.0041 -0.0019
#End of data_247693-ICSD


