data_404913-ICSD
#?2014 by Fachinformationszentrum Karlsruhe, and the U.S. Secretary of 
#Commerce on behalf of the United States.  All rights reserved.
_database_code_ICSD                404913
_audit_creation_date               1996/10/14
_chemical_name_systematic          'Disodium Tecto-dizincate'
_chemical_formula_structural       'Na2 (Zn2 O3)'
_chemical_formula_sum              'Na2 O3 Zn2'
_publ_section_title
;
Eine neue Modifikation von Na2 Zn2 O3
;
loop_
_citation_id
_citation_journal_abbrev
_citation_year
_citation_journal_volume
_citation_page_first
_citation_page_last
_citation_journal_id_ASTM
primary 'Zeitschrift fuer Naturforschung, B: Chemical Sciences'
 1996 51 917 921 ZNBSEN
_publ_author_name                  'Trinschek, D.;Jansen, M.'
_cell_length_a                     6.1812(2)
_cell_length_b                     6.1812(2)
_cell_length_c                     9.4479(4)
_cell_angle_alpha                  90.
_cell_angle_beta                   90.
_cell_angle_gamma                  90.
_cell_volume                       360.98
_cell_formula_units_Z              4
_symmetry_space_group_name_H-M     'P 43 21 2'
_symmetry_Int_Tables_number        96
_refine_ls_R_factor_all            .0626
loop_
_symmetry_equiv_pos_site_id
_symmetry_equiv_pos_as_xyz
  1	'x+.5, -y+.5, -z+.25'
  2	'-x+.5, y+.5, -z+.75'
  3	'-y, -x, -z+.5'
  4	'y, x, -z'
  5	'y+.5, -x+.5, z+.25'
  6	'-y+.5, x+.5, z+.75'
  7	'-x, -y, z+.5'
  8	'x, y, z'
loop_
_atom_type_symbol
_atom_type_oxidation_number
Na1+	1
O2-	-2
Zn2+	2
loop_
_atom_site_label
_atom_site_type_symbol
_atom_site_symmetry_multiplicity
_atom_site_Wyckoff_symbol
_atom_site_fract_x
_atom_site_fract_y
_atom_site_fract_z
_atom_site_occupancy
_atom_site_attached_hydrogens
Zn1 Zn2+ 8 b 0.74308(5) 0.54606(6) 0.11460(3) 1. 0 
Na1 Na1+ 8 b 0.4650(3) 0.2544(2) 0.8551(2) 1. 0 
O1 O2- 8 b 0.0148(3) 0.2577(4) 0.6588(2) 1. 0 
O2 O2- 4 a 0.1737(4) 0.1737(4) 0 1. 0 

loop_
_atom_site_aniso_label
_atom_site_aniso_type_symbol
_atom_site_aniso_U_11
_atom_site_aniso_U_22
_atom_site_aniso_U_33
_atom_site_aniso_U_12
_atom_site_aniso_U_13
_atom_site_aniso_U_23
Zn1 Zn2+ 0.00706(15) 0.00699(15) 0.00835(13) -.00064(9) 0.00014(9) 
0.00030(9)
Na1 Na1+ 0.0108(6) 0.0171(7) 0.0155(5) -.0010(5) 0.0014(4) -.0001(5)
O1 O2- 0.0087(7) 0.0079(8) 0.0105(7) -.0028(6) 0.0006(5) -.0007(6)
O2 O2- 0.0104(7) 0.0104(7) 0.0143(12) -.0003(10) -.0045(7) 0.0045(7)
#End of data_404913-ICSD


