data_15017-ICSD
#?2014 by Fachinformationszentrum Karlsruhe, and the U.S. Secretary of 
#Commerce on behalf of the United States.  All rights reserved.
_database_code_ICSD                15017
_audit_creation_date               1980/01/01
_audit_update_record               2012/08/01
_chemical_name_systematic
;
Sodium Germanate Stannate Hydroxide *
;
_chemical_formula_structural       'Na4 Sn2 Ge4 O12 (O H)4'
_chemical_formula_sum              'H4 Ge4 Na4 O16 Sn2'
_publ_section_title
;
The crystal structure of Na4 Sn2 Ge4 O12 (O H)4
;
loop_
_citation_id
_citation_journal_abbrev
_citation_year
_citation_journal_volume
_citation_page_first
_citation_page_last
_citation_journal_id_ASTM
primary 'Acta Chemica Scandinavica (1-27,1973-42,1988)' 1970 24 1287 1293 ACSAA4
_publ_author_name                  'Christensen, A.N.'
_cell_length_a                     5.778
_cell_length_b                     11.615
_cell_length_c                     5.54
_cell_angle_alpha                  107.62
_cell_angle_beta                   75.75
_cell_angle_gamma                  94.75
_cell_volume                       343.44
_cell_formula_units_Z              1
_symmetry_space_group_name_H-M     'P -1'
_symmetry_Int_Tables_number        2
_refine_ls_R_factor_all            .054
loop_
_symmetry_equiv_pos_site_id
_symmetry_equiv_pos_as_xyz
  1	'-x, -y, -z'
  2	'x, y, z'
loop_
_atom_type_symbol
_atom_type_oxidation_number
Ge4+	4
H1+	1
Na1+	1
O2-	-2
Sn4+	4
loop_
_atom_site_label
_atom_site_type_symbol
_atom_site_symmetry_multiplicity
_atom_site_Wyckoff_symbol
_atom_site_fract_x
_atom_site_fract_y
_atom_site_fract_z
_atom_site_occupancy
_atom_site_attached_hydrogens
_atom_site_B_iso_or_equiv
O1 O2- 2 i 0.1681(17) 0.0535(9) 0.3031(19) 1. 0 0 
O2 O2- 2 i 0.6798(15) 0.0364(9) 0.2522(19) 1. 0 0 
O3 O2- 2 i 0.4919(16) 0.2098(9) 0.0740(21) 1. 0 0 
O4 O2- 2 i 0.4415(15) 0.2321(8) 0.6024(19) 1. 0 0 
O5 O2- 2 i 0.0241(17) 0.1687(8) 0.9668(20) 1. 0 0 
O6 O2- 2 i 0.2440(17) 0.4028(9) 0.0626(18) 1. 0 0 
O7 O2- 2 i 0.7365(16) 0.4398(9) 0.2449(20) 1. 0 0 
O8 O2- 2 i 0.9381(18) 0.3612(9) 0.6925(23) 1. 0 0 
Na1 Na1+ 2 i 0.583(1) 0.4375(5) 0.6710(11) 1. 0 0 
Na2 Na1+ 2 i 0.8251(10) 0.1509(6) 0.6435(12) 1. 0 0 
Ge1 Ge4+ 2 i 0.2808(2) 0.2501(1) 0.9317(3) 1. 0 0 
Ge2 Ge4+ 2 i 0.4378(2) 0.1251(1) 0.3009(3) 1. 0 0 
Sn1 Sn4+ 1 a 0 0 0 1. 0 0 
Sn2 Sn4+ 1 c 0 0.5 0 1. 0 0 
H1 H1+ 2 i 0.697(40) 0.360(23) 0.191(49) 1. 0 1. 
H2 H1+ 2 i 0.316(32) 0.271(18) 0.658(39) 1. 0 0 

loop_
_atom_site_aniso_label
_atom_site_aniso_type_symbol
_atom_site_aniso_U_11
_atom_site_aniso_U_22
_atom_site_aniso_U_33
_atom_site_aniso_U_12
_atom_site_aniso_U_13
_atom_site_aniso_U_23
O1 O2- 0.0125(44) 0.0100(41) 0.0067(46) -0.0074(33) 0.0000(35) -0.0007(39)
O2 O2- 0.0015(39) 0.0132(43) 0.0106(44) -0.0004(31) -0.0036(33) 0.0034(40)
O3 O2- 0.0067(42) 0.0107(43) 0.0141(49) 0.0025(33) -0.0001(35) 0.0043(41)
O4 O2- 0.0041(39) 0.0092(40) 0.0094(46) -0.0000(31) -0.0022(33) -0.0026(39)
O5 O2- 0.0155(48) 0.0046(38) 0.0132(48) -0.0006(24) -0.0038(38) 0.0036(38)
O6 O2- 0.0157(46) 0.0126(43) 0.0040(40) 0.0004(34) -0.0067(33) 0.0055(38)
O7 O2- 0.0056(42) 0.0159(46) 0.0139(49) -0.0019(34) -0.0075(36) 0.0017(42)
O8 O2- 0.0117(46) 0.0109(43) 0.0237(58) -0.0029(34) -0.0046(40) 0.0052(44)
Na1 Na1+ 0.0159(28) 0.0160(27) 0.0095(27) -0.0056(21) -0.0060(22) 
0.0053(25)
Na2 Na1+ 0.0136(27) 0.0157(26) 0.0140(28) 0.0062(21) -0.0044(22) 0.0023(25)
Ge1 Ge4+ 0.00774(60) 0.00459(53) 0.00913(66) -.00054(45) -.00072(51) 
0.00096(54)
Ge2 Ge4+ 0.00739(60) 0.00529(65) 0.00825(65) 0.00057(44) 0.00061(49) 
0.00108(54)
Sn1 Sn4+ 0.00617(53) 0.00404(47) 0.00863(59) 0.00029(39) -.00009(44) 
0.00165(48)
Sn2 Sn4+ 0.00823(56) 0.00569(50) 0.01240(63) 0.00112(41) -.00107(47) 
0.00148(51)
#End of data_15017-ICSD


