data_160198-ICSD
#?2014 by Fachinformationszentrum Karlsruhe, and the U.S. Secretary of 
#Commerce on behalf of the United States.  All rights reserved.
_database_code_ICSD                160198
_audit_creation_date               2008/08/01
_chemical_name_systematic          'Strontium Zinc Diphosphate(V)'
_chemical_formula_structural       'Sr Zn (P2 O7)'
_chemical_formula_sum              'O7 P2 Sr1 Zn1'
_publ_section_title
;
Rietveld refinement and photoluminescent properties of a new blue-
emitting material: Eu(2+) activated Sr Zn P2 O7
;
loop_
_citation_id
_citation_journal_abbrev
_citation_year
_citation_journal_volume
_citation_page_first
_citation_page_last
_citation_journal_id_ASTM
primary 'Journal of Solid State Chemistry' 2007 180 3310 3316 JSSCBI
_publ_author_name
;
Yuan Jun Lin;Zeng Xiaoyan;Zhao Jing Tai;Zhang Zhijun;Chen Hao 
Hong;Zhang Guo Bin
;
_cell_length_a                     5.30906(2)
_cell_length_b                     8.21392(3)
_cell_length_c                     12.73595(5)
_cell_angle_alpha                  90.
_cell_angle_beta                   90.1573(3)
_cell_angle_gamma                  90.
_cell_volume                       555.39
_cell_formula_units_Z              4
_symmetry_space_group_name_H-M     'P 1 21/n 1'
_symmetry_Int_Tables_number        14
_refine_ls_R_factor_all            .0071
loop_
_symmetry_equiv_pos_site_id
_symmetry_equiv_pos_as_xyz
  1	'-x+.5, y+.5, -z+.5'
  2	'-x, -y, -z'
  3	'x+.5, -y+.5, z+.5'
  4	'x, y, z'
loop_
_atom_type_symbol
_atom_type_oxidation_number
O2-	-2
P5+	5
Sr2+	2
Zn2+	2
loop_
_atom_site_label
_atom_site_type_symbol
_atom_site_symmetry_multiplicity
_atom_site_Wyckoff_symbol
_atom_site_fract_x
_atom_site_fract_y
_atom_site_fract_z
_atom_site_occupancy
_atom_site_attached_hydrogens
_atom_site_U_iso_or_equiv
Sr1 Sr2+ 4 e 0.28706(13) 0.33960(6) 0.27904(5) 1. 0 0.0077(2) 
Zn1 Zn2+ 4 e 0.82887(17) 0.15179(11) 0.10540(6) 1. 0 0.0093(3) 
P1 P5+ 4 e 0.7497(3) 0.5344(2) 0.16429(12) 1. 0 0.0039(5) 
P2 P5+ 4 e 0.3183(3) 0.19912(18) 0.97944(12) 1. 0 0.0029(5) 
O1 O2- 4 e 0.6681(7) 0.3642(5) 0.1527(2) 1. 0 0.0021(11) 
O2 O2- 4 e 0.6753(7) 0.4040(4) 0.4004(3) 1. 0 0.0054(12) 
O3 O2- 4 e 0.9540(6) 0.1169(4) 0.2664(3) 1. 0 0.0054(12) 
O4 O2- 4 e 0.7648(7) 0.1180(3) 0.4488(3) 1. 0 0.0037(11) 
O5 O2- 4 e 0.4824(6) 0.0604(4) 0.2966(3) 1. 0 0.0025(12) 
O6 O2- 4 e 0.0912(6) 0.3327(4) 0.4737(2) 1. 0 0.0029(11) 
O7 O2- 4 e 0.1974(7) 0.1868(4) 0.0900(2) 1. 0 0.0025(12) 

#End of data_160198-ICSD


