data_1858-ICSD
#?2014 by Fachinformationszentrum Karlsruhe, and the U.S. Secretary of 
#Commerce on behalf of the United States.  All rights reserved.
_database_code_ICSD                1858
_audit_creation_date               1980/01/01
_audit_update_record               2012/02/01
_chemical_name_systematic          'Sodium Chlorate(III) Trihydrate'
_chemical_formula_structural       'Na (Cl O2) (H2 O)3'
_chemical_formula_sum              'H6 Cl1 Na1 O5'
_publ_section_title
;
The crystal structure of sodium chlorite trihydrate, Na Cl O2 (H2 O)
;
loop_
_citation_id
_citation_journal_abbrev
_citation_year
_citation_journal_volume
_citation_page_first
_citation_page_last
_citation_journal_id_ASTM
primary 'Acta Crystallographica B (24,1968-38,1982)' 1975 31 1032 1037 ACBCAR
2 'Acta Crystallographica B (24,1968-38,1982)' 1975 31 2750 2751 ACBCAR
_publ_author_name
;
Tazzoli, V.;Riganti, V.;Giuseppetti, G.;Coda, A.
;
_cell_length_a                     6.960(2)
_cell_length_b                     8.842(3)
_cell_length_c                     5.504(2)
_cell_angle_alpha                  92.36(7)
_cell_angle_beta                   119.09(7)
_cell_angle_gamma                  104.73(7)
_cell_volume                       280.77
_cell_formula_units_Z              2
_symmetry_space_group_name_H-M     'P -1'
_symmetry_Int_Tables_number        2
_refine_ls_R_factor_all            .04
loop_
_symmetry_equiv_pos_site_id
_symmetry_equiv_pos_as_xyz
  1	'-x, -y, -z'
  2	'x, y, z'
loop_
_atom_type_symbol
_atom_type_oxidation_number
Cl3+	3
H1+	1
Na1+	1
O2-	-2
loop_
_atom_site_label
_atom_site_type_symbol
_atom_site_symmetry_multiplicity
_atom_site_Wyckoff_symbol
_atom_site_fract_x
_atom_site_fract_y
_atom_site_fract_z
_atom_site_occupancy
_atom_site_attached_hydrogens
_atom_site_B_iso_or_equiv
Na1 Na1+ 2 i 0.5417(1) 0.3953(1) 0.2780(2) 1. 0 0 
Cl1 Cl3+ 2 i 0.1841(1) 0.8681(1) 0.2785(1) 1. 0 0 
O1 O2- 2 i 0.1868(3) 0.7013(2) 0.3576(3) 1. 0 0 
O2 O2- 2 i 0.1767(3) 0.8669(2) -.0113(3) 1. 0 0 
O3 O2- 2 i 0.4010(2) 0.1649(1) 0.9201(3) 1. 0 0 
O4 O2- 2 i 0.2795(2) 0.3241(2) 0.4533(3) 1. 0 0 
O5 O2- 2 i 0.2523(2) 0.5098(1) 0.9532(3) 1. 0 0 
H1 H1+ 2 i 0.5469 0.1572 0.9503 1. 0 4. 
H2 H1+ 2 i 0.3214 0.0654 0.9422 1. 0 4. 
H3 H1+ 2 i 0.3216 0.271 0.6116 1. 0 4. 
H4 H1+ 2 i 0.1278 0.2611 0.3054 1. 0 4. 
H5 H1+ 2 i 0.242 0.5739 0.0854 1. 0 4. 
H6 H1+ 2 i 0.1005 0.4317 0.8354 1. 0 4. 

#End of data_1858-ICSD


