data_74873-ICSD
#?2014 by Fachinformationszentrum Karlsruhe, and the U.S. Secretary of 
#Commerce on behalf of the United States.  All rights reserved.
_database_code_ICSD                74873
_audit_creation_date               1995/10/17
_chemical_name_systematic          'Hexapotassium Diplumbate(II)'
_chemical_formula_structural       'K6 (Pb2 O5)'
_chemical_formula_sum              'K6 O5 Pb2'
_publ_section_title
;
Zur Oxydation intermetallischer Phasen: die Oxoplumbate(II) K6(Pb2O5) 
und K4(PbO3)
;
loop_
_citation_id
_citation_journal_abbrev
_citation_year
_citation_journal_volume
_citation_page_first
_citation_page_last
_citation_journal_id_ASTM
primary 'Zeitschrift fuer Anorganische und Allgemeine Chemie (1950) (DE)'
 1994 620 1549 1558 ZAACAB
_publ_author_name                  'Brandes, R.;Hoppe, R.'
_cell_length_a                     13.267(6)
_cell_length_b                     7.588(4)
_cell_length_c                     6.370(3)
_cell_angle_alpha                  92.17(3)
_cell_angle_beta                   94.40(3)
_cell_angle_gamma                  112.85(4)
_cell_volume                       587.6
_cell_formula_units_Z              2
_symmetry_space_group_name_H-M     'P -1'
_symmetry_Int_Tables_number        2
_refine_ls_R_factor_all            .08
loop_
_symmetry_equiv_pos_site_id
_symmetry_equiv_pos_as_xyz
  1	'-x, -y, -z'
  2	'x, y, z'
loop_
_atom_type_symbol
_atom_type_oxidation_number
K1+	1
O2-	-2
Pb2+	2
loop_
_atom_site_label
_atom_site_type_symbol
_atom_site_symmetry_multiplicity
_atom_site_Wyckoff_symbol
_atom_site_fract_x
_atom_site_fract_y
_atom_site_fract_z
_atom_site_occupancy
_atom_site_attached_hydrogens
Pb1 Pb2+ 2 i 0.3537 0.2251(1) 0.0864(1) 1. 0 
Pb2 Pb2+ 2 i 0.1362 0.3471(1) 0.2406(1) 1. 0 
K1 K1+ 2 i 0.3641(2) 0.9720(4) 0.5663(4) 1. 0 
K2 K1+ 2 i 0.3842(2) 0.7894(4) 0.0803(4) 1. 0 
K3 K1+ 2 i 0.1224(2) 0.0727(4) 0.6872(4) 1. 0 
K4 K1+ 2 i 0.1224(2) 0.6083(4) 0.6976(4) 1. 0 
K5 K1+ 2 i 0.1239(2) 0.8259(4) 0.2196(4) 1. 0 
K6 K1+ 2 i 0.3749(2) 0.5036(4) 0.5904(4) 1. 0 
O1 O2- 2 i 0.2438(7) 0.1942(13) 0.3499(13) 1. 0 
O2 O2- 2 i 0.0272(6) 0.2681(11) 0.4810(12) 1. 0 
O3 O2- 2 i 0.4787(6) 0.1561(12) 0.2544(12) 1. 0 
O4 O2- 2 i 0.2422(6) 0.6224(13) 0.3800(13) 1. 0 
O5 O2- 2 i 0.2581(6) 0.9506(12) 0.9205(12) 1. 0 

loop_
_atom_site_aniso_label
_atom_site_aniso_type_symbol
_atom_site_aniso_U_11
_atom_site_aniso_U_22
_atom_site_aniso_U_33
_atom_site_aniso_U_12
_atom_site_aniso_U_13
_atom_site_aniso_U_23
Pb1 Pb2+ 0.0226(2) 0.0225(3) 0.0235(2) 0.0082(2) 0.0038(2) 0.0038(2)
Pb2 Pb2+ 0.0238(2) 0.0238(3) 0.0224(2) 0.0095(2) 0.0006(2) 0.0004(2)
K1 K1+ 0.0297(11) 0.0290(14) 0.0255(11) 0.0087(11) 0.0072(9) 0.0025(10)
K2 K1+ 0.0300(11) 0.0308(15) 0.0306(12) 0.0148(11) 0.0061(9) 0.0034(10)
K3 K1+ 0.0274(11) 0.0286(15) 0.0290(12) 0.0135(11) -.0010(9) 0.0008(10)
K4 K1+ 0.0270(11) 0.0255(13) 0.0278(12) 0.0107(10) 0.0024(9) -.0002(10)
K5 K1+ 0.0282(11) 0.0252(14) 0.0298(12) 0.0095(11) 0.0062(10) 0.0028(11)
K6 K1+ 0.0341(13) 0.0274(15) 0.0399(14) 0.0082(12) -.0066(11) -.0014(13)
O1 O2- 0.0306(38) 0.0305(48) 0.0251(34) 0.0142(36) 0.0131(30) 0.0037(32)
O2 O2- 0.0244(35) 0.0179(42) 0.0351(40) 0.0063(33) 0.0055(31) 0.0019(33)
O3 O2- 0.0295(40) 0.0258(48) 0.032(4) 0.0077(37) 0.0014(33) 0.0035(35)
O4 O2- 0.0250(36) 0.0315(49) 0.0360(41) 0.0124(36) 0.0041(32) 0.0053(36)
O5 O2- 0.0358(41) 0.0221(44) 0.0244(35) 0.0068(36) -.0026(32) -.0005(32)
#End of data_74873-ICSD


