data_72718-ICSD
#?2014 by Fachinformationszentrum Karlsruhe, and the U.S. Secretary of 
#Commerce on behalf of the United States.  All rights reserved.
_database_code_ICSD                72718
_audit_creation_date               1994/01/19
_chemical_name_systematic
;
Tribarium Hexafluoroaluminate Trifluoride - Ib
;
_chemical_formula_structural       'Ba3 (Al F6) F3'
_chemical_formula_sum              'Al1 Ba3 F9'
_publ_section_title
;
Crystal structure of a polytypic form of Ba3AlF9(form Ib)
;
loop_
_citation_id
_citation_journal_abbrev
_citation_year
_citation_journal_volume
_citation_page_first
_citation_page_last
_citation_journal_id_ASTM
primary 'European Journal of Solid State Inorganic Chemistry'
 1991 28 373 381 EJSCE5
_publ_author_name
;
Renaudin, J.;Ferey, G.;de Kozak, A.;Samouel, M.
;
_cell_length_a                     10.063(9)
_cell_length_b                     5.567(6)
_cell_length_c                     14.88(1)
_cell_angle_alpha                  90.
_cell_angle_beta                   90.
_cell_angle_gamma                  90.
_cell_volume                       833.59
_cell_formula_units_Z              4
_symmetry_space_group_name_H-M     'P n m a'
_symmetry_Int_Tables_number        62
_refine_ls_R_factor_all            .028
loop_
_symmetry_equiv_pos_site_id
_symmetry_equiv_pos_as_xyz
  1	'x+.5, y, -z+.5'
  2	'x, -y+.5, z'
  3	'-x+.5, y+.5, z+.5'
  4	'-x, -y, -z'
  5	'-x+.5, -y, z+.5'
  6	'-x, y+.5, -z'
  7	'x+.5, -y+.5, -z+.5'
  8	'x, y, z'
loop_
_atom_type_symbol
_atom_type_oxidation_number
Al3+	3
Ba2+	2
F1-	-1
loop_
_atom_site_label
_atom_site_type_symbol
_atom_site_symmetry_multiplicity
_atom_site_Wyckoff_symbol
_atom_site_fract_x
_atom_site_fract_y
_atom_site_fract_z
_atom_site_occupancy
_atom_site_attached_hydrogens
Ba1 Ba2+ 4 c 0.4463(1) 0.25 0.3995(1) 1. 0 
Ba2 Ba2+ 4 c 0.3306(1) 0.25 0.9577(1) 1. 0 
Ba3 Ba2+ 4 c 0.2343(1) 0.25 0.6801(1) 1. 0 
Al1 Al3+ 4 c 0.0236(3) 0.25 0.3320(2) 1. 0 
F1 F1- 4 c 0.3660(7) 0.25 0.2257(4) 1. 0 
F2 F1- 4 c 0.1728(7) 0.25 0.4001(4) 1. 0 
F3 F1- 4 c 0.1403(7) 0.25 0.8490(4) 1. 0 
F4 F1- 8 d 0.1489(5) -.0029(8) 0.0440(3) 1. 0 
F5 F1- 8 d 0.4563(5) 0.0187(8) 0.0934(3) 1. 0 
F6 F1- 8 d 0.0837(5) 0.0204(8) 0.2601(4) 1. 0 

loop_
_atom_site_aniso_label
_atom_site_aniso_type_symbol
_atom_site_aniso_U_11
_atom_site_aniso_U_22
_atom_site_aniso_U_33
_atom_site_aniso_U_12
_atom_site_aniso_U_13
_atom_site_aniso_U_23
Ba1 Ba2+ 0.0112(3) 0.0153(3) 0.0109(3) 0 0.0000(3) 0
Ba2 Ba2+ 0.0115(3) 0.0112(3) 0.0125(3) 0 -.0003(2) 0
Ba3 Ba2+ 0.0136(3) 0.0117(3) 0.0099(3) 0 -.0022(2) 0
Al1 Al3+ 0.0092(14) 0.0098(13) 0.0100(12) 0 0.0001(12) 0
F1 F1- 0.0195(34) 0.0310(39) 0.0135(29) 0 0.0078(30) 0
F2 F1- 0.0169(34) 0.0171(36) 0.0184(30) 0 -.0067(28) 0
F3 F1- 0.0188(35) 0.0400(44) 0.0141(30) 0 -.0033(30) 0
F4 F1- 0.0175(23) 0.0159(24) 0.0166(21) 0.0008(17) 0.0018(19) 0.0016(19)
F5 F1- 0.0154(21) 0.0130(21) 0.0157(18) -.0017(16) -.0028(19) -.0021(19)
F6 F1- 0.0253(28) 0.0271(27) 0.0323(27) -.0135(24) 0.0034(23) 0.0059(23)
#End of data_72718-ICSD


