data_280645-ICSD
#?2014 by Fachinformationszentrum Karlsruhe, and the U.S. Secretary of 
#Commerce on behalf of the United States.  All rights reserved.
_database_code_ICSD                280645
_audit_creation_date               2002/04/01
_chemical_name_systematic
;
Dicesium Phyllo-tetrathiodiargentotitanate
;
_chemical_formula_structural       'Cs2 (Ti Ag2 S4)'
_chemical_formula_sum              'Ag2 Cs2 S4 Ti1'
_publ_section_title
;
New layered materials: syntheses, structures and optical properties 
of K2 Ti Cu2 S4, Rb2 Ti Cu2 S4, Rb2 Ti Ag2 S4, Cs2 Ti Ag2 S4, and Cs2 
Ti Cu2 Se4
;
loop_
_citation_id
_citation_journal_abbrev
_citation_year
_citation_journal_volume
_citation_page_first
_citation_page_last
_citation_journal_id_ASTM
primary 'Inorganic Chemistry' 2001 40 2602 2607 INOCAJ
_publ_author_name                  'Huang, F.-Q.;Ibers, J.A.'
_cell_length_a                     6.0242(13)
_cell_length_b                     6.0242(13)
_cell_length_c                     13.566(4)
_cell_angle_alpha                  90.
_cell_angle_beta                   90.
_cell_angle_gamma                  90.
_cell_volume                       492.32
_cell_formula_units_Z              2
_symmetry_space_group_name_H-M     'P 42/m c m'
_symmetry_Int_Tables_number        132
_refine_ls_R_factor_all            .0273
loop_
_symmetry_equiv_pos_site_id
_symmetry_equiv_pos_as_xyz
  1	'-y, x, -z+.5'
  2	'y, -x, -z+.5'
  3	'-y, -x, -z'
  4	'y, x, -z'
  5	'-y, x, z+.5'
  6	'y, -x, z+.5'
  7	'-y, -x, z'
  8	'y, x, z'
  9	'x, -y, -z+.5'
 10	'-x, y, -z+.5'
 11	'-x, -y, -z'
 12	'x, y, -z'
 13	'x, -y, z+.5'
 14	'-x, y, z+.5'
 15	'-x, -y, z'
 16	'x, y, z'
loop_
_atom_type_symbol
_atom_type_oxidation_number
Ag1+	1
Cs1+	1
S2-	-2
Ti4+	4
loop_
_atom_site_label
_atom_site_type_symbol
_atom_site_symmetry_multiplicity
_atom_site_Wyckoff_symbol
_atom_site_fract_x
_atom_site_fract_y
_atom_site_fract_z
_atom_site_occupancy
_atom_site_attached_hydrogens
Cs1 Cs1+ 4 i 0.22859(6) 0.22859(6) 0 1. 0 
Ti1 Ti4+ 2 d 0.5 0.5 0.25 1. 0 
Ag1 Ag1+ 4 e 0 0.5 0.25 1. 0 
S1 S2- 8 o 0.28516(14) 0.28516(14) 0.3519(1) 1. 0 

loop_
_atom_site_aniso_label
_atom_site_aniso_type_symbol
_atom_site_aniso_U_11
_atom_site_aniso_U_22
_atom_site_aniso_U_33
_atom_site_aniso_U_12
_atom_site_aniso_U_13
_atom_site_aniso_U_23
Cs1 Cs1+ 0.0151(3) 0.0151(3) 0.0225(4) -.00048(13) 0 0
Ti1 Ti4+ 0.0091(5) 0.0091(5) 0.0181(9) 0 0 0
Ag1 Ag1+ 0.0103(3) 0.0223(3) 0.0235(5) 0 0 0
S1 S2- 0.0122(4) 0.0122(4) 0.0205(8) 0.0000(3) 0.0015(3) 0.0015(3)
#End of data_280645-ICSD


