data_26000-ICSD
#?2014 by Fachinformationszentrum Karlsruhe, and the U.S. Secretary of 
#Commerce on behalf of the United States.  All rights reserved.
_database_code_ICSD                26000
_audit_creation_date               1980/01/01
_audit_update_record               2006/04/01
_chemical_name_systematic
;
Calcium Magnesium Arsenate(V) Fluoride
;
_chemical_formula_structural       'Ca Mg (As O4) F'
_chemical_formula_sum              'As1 Ca1 F1 Mg1 O4'
_chemical_name_mineral             Tilasite
_publ_section_title                'The crystal structure of tilasite'
loop_
_citation_id
_citation_journal_abbrev
_citation_year
_citation_journal_volume
_citation_page_first
_citation_page_last
_citation_journal_id_ASTM
primary 'American Mineralogist' 1972 57 1880 1884 AMMIAY
_publ_author_name
;
Bladh, K.W.;Corbett, R.K.;McLean, W.J.
;
_cell_length_a                     6.688(2)
_cell_length_b                     8.944(2)
_cell_length_c                     7.570(2)
_cell_angle_alpha                  90.
_cell_angle_beta                   121.167
_cell_angle_gamma                  90.
_cell_volume                       387.46
_cell_formula_units_Z              4
_symmetry_space_group_name_H-M     'C 1 c 1'
_symmetry_Int_Tables_number        9
_refine_ls_R_factor_all            .061
loop_
_symmetry_equiv_pos_site_id
_symmetry_equiv_pos_as_xyz
  1	'x, -y, z+.5'
  2	'x, y, z'
  3	'x+.5, -y+.5, z+.5'
  4	'x+.5, y+.5, z'
loop_
_atom_type_symbol
_atom_type_oxidation_number
As5+	5
Ca2+	2
F1-	-1
Mg2+	2
O2-	-2
loop_
_atom_site_label
_atom_site_type_symbol
_atom_site_symmetry_multiplicity
_atom_site_Wyckoff_symbol
_atom_site_fract_x
_atom_site_fract_y
_atom_site_fract_z
_atom_site_occupancy
_atom_site_attached_hydrogens
_atom_site_B_iso_or_equiv
As1 As5+ 4 a 0 0.4293(1) 0.25 1. 0 0.42(1) 
Ca1 Ca2+ 4 a 0.4867(5) 0.5817(2) 0.2392(5) 1. 0 0.57(2) 
Mg1 Mg2+ 4 a 0.252(4) 0.747(1) 0.500(4) 1. 0 0.54(3) 
O1 O2- 4 a 0.012(2) 0.311(2) 0.076(2) 1. 0 0.7(2) 
O2 O2- 4 a 0.263(2) 0.967(2) 0.626(2) 1. 0 0.4(2) 
O3 O2- 4 a 0.248(2) 0.537(1) 0.382(2) 1. 0 0.7(1) 
O4 O2- 4 a 0.001(2) 0.316(2) 0.422(2) 1. 0 0.7(1) 
F1 F1- 4 a 0.508(2) 0.333(1) 0.247(2) 1. 0 0.7(1) 

#End of data_26000-ICSD


