data_52378-ICSD
#?2014 by Fachinformationszentrum Karlsruhe, and the U.S. Secretary of 
#Commerce on behalf of the United States.  All rights reserved.
_database_code_ICSD                52378
_audit_creation_date               2003/04/01
_audit_update_record               2005/10/01
_chemical_name_systematic          'Potassium Manganate(VII)'
_chemical_formula_structural       'K (Mn O4)'
_chemical_formula_sum              'K1 Mn1 O4'
_publ_section_title                'The crystal structure of K Mn O4'
loop_
_citation_id
_citation_journal_abbrev
_citation_year
_citation_journal_volume
_citation_page_first
_citation_page_last
_citation_journal_id_ASTM
primary 'Physical Review (1,1893-132,1963/141,1966-188,1969)'
 1931 37 1306 1310 PHRVAO
_publ_author_name                  'Mooney, R.C.L.'
_cell_length_a                     9.108
_cell_length_b                     5.73
_cell_length_c                     7.425
_cell_angle_alpha                  90.
_cell_angle_beta                   90.
_cell_angle_gamma                  90.
_cell_volume                       387.5
_cell_formula_units_Z              4
_symmetry_space_group_name_H-M     'P n m a'
_symmetry_Int_Tables_number        62
loop_
_symmetry_equiv_pos_site_id
_symmetry_equiv_pos_as_xyz
  1	'x+.5, y, -z+.5'
  2	'x, -y+.5, z'
  3	'-x+.5, y+.5, z+.5'
  4	'-x, -y, -z'
  5	'-x+.5, -y, z+.5'
  6	'-x, y+.5, -z'
  7	'x+.5, -y+.5, -z+.5'
  8	'x, y, z'
loop_
_atom_type_symbol
_atom_type_oxidation_number
K1+	1
Mn7+	7
O2-	-2
loop_
_atom_site_label
_atom_site_type_symbol
_atom_site_symmetry_multiplicity
_atom_site_Wyckoff_symbol
_atom_site_fract_x
_atom_site_fract_y
_atom_site_fract_z
_atom_site_occupancy
_atom_site_attached_hydrogens
K1 K1+ 4 c 0.31 0.25 0.16 1. 0 
Mn1 Mn7+ 4 c 0.43 0.25 0.67 1. 0 
O1 O2- 4 c 0.25 0.25 0.61 1. 0 
O2 O2- 4 c 0.51 0.25 0.49 1. 0 
O3 O2- 8 d 0.44 0.44 0.80 1. 0 

#End of data_52378-ICSD


