data_180323-ICSD
#?2014 by Fachinformationszentrum Karlsruhe, and the U.S. Secretary of 
#Commerce on behalf of the United States.  All rights reserved.
_database_code_ICSD                180323
_audit_creation_date               2011/08/01
_chemical_name_systematic          'Dipotassium Dialuminotrisilicate'
_chemical_formula_structural       'K2 ((Al2 Si3) O10)'
_chemical_formula_sum              'Al2 K2 O10 Si3'
_chemical_name_mineral             'Natrolite (K-exchanged)'
_publ_section_title
;
In-situ dehydration studies of fully K-, Rb- and Cs-exchanged 
natrolites
;
loop_
_citation_id
_citation_journal_abbrev
_citation_year
_citation_journal_volume
_citation_page_first
_citation_page_last
_citation_journal_id_ASTM
primary 'American Mineralogist' 2011 96 393 401 AMMIAY
_publ_author_name
;
Lee Yong Moon;Seoung Dong Hoon;Liu Dan;Park Min Bum;Hong Suk 
Bong;Chen Haiyan;Bai Jianming;Kao Chi Chang;Vogt, T.;Lee Yong Jae
;
_cell_length_a                     17.0764(4)
_cell_length_b                     18.2357(4)
_cell_length_c                     6.5046(1)
_cell_angle_alpha                  90.
_cell_angle_beta                   90.
_cell_angle_gamma                  90.
_cell_volume                       2025.53
_cell_formula_units_Z              8
_symmetry_space_group_name_H-M     'F d d 2'
_symmetry_Int_Tables_number        43
_refine_ls_R_factor_all            .071
loop_
_symmetry_equiv_pos_site_id
_symmetry_equiv_pos_as_xyz
  1	'x+.25, -y+.25, z+.25'
  2	'-x+.25, y+.25, z+.25'
  3	'-x, -y, z'
  4	'x, y, z'
  5	'x+.25, -y+.75, z+.75'
  6	'x+.75, -y+.25, z+.75'
  7	'x+.75, -y+.75, z+.25'
  8	'-x+.25, y+.75, z+.75'
  9	'-x+.75, y+.25, z+.75'
 10	'-x+.75, y+.75, z+.25'
 11	'-x, -y+.5, z+.5'
 12	'-x+.5, -y, z+.5'
 13	'-x+.5, -y+.5, z'
 14	'x, y+.5, z+.5'
 15	'x+.5, y, z+.5'
 16	'x+.5, y+.5, z'
loop_
_atom_type_symbol
_atom_type_oxidation_number
Al3+	3
K1+	1
O2-	-2
Si4+	4
loop_
_atom_site_label
_atom_site_type_symbol
_atom_site_symmetry_multiplicity
_atom_site_Wyckoff_symbol
_atom_site_fract_x
_atom_site_fract_y
_atom_site_fract_z
_atom_site_occupancy
_atom_site_attached_hydrogens
_atom_site_U_iso_or_equiv
Si1 Si4+ 8 a 0 0 -0.0005(6) 1. 0 0.0117(4) 
Si2 Si4+ 16 b 0.1444(3) 0.2224(2) 0.6200(5) 1. 0 0.0117(4) 
Al1 Al3+ 16 b 0.0357(2) 0.0961(2) 0.6136(5) 1. 0 0.0117(4) 
O1 O2- 16 b 0.0303(3) 0.0688(2) 0.8668(6) 1. 0 0.054(2) 
O2 O2- 16 b 0.0565(2) 0.1892(2) 0.604(1) 1. 0 0.054(2) 
O3 O2- 16 b 0.1094(3) 0.0511(2) 0.4821(8) 1. 0 0.054(2) 
O4 O2- 16 b 0.1977(3) 0.1634(3) 0.7380(8) 1. 0 0.054(2) 
O5 O2- 16 b 0.1778(3) 0.2228(3) 0.3890(6) 1. 0 0.054(2) 
K1 K1+ 16 b 0.0511(2) 0.1863(2) 0.1284(6) 1. 0 0.052(1) 

#End of data_180323-ICSD


