data_60002-ICSD
#?2014 by Fachinformationszentrum Karlsruhe, and the U.S. Secretary of 
#Commerce on behalf of the United States.  All rights reserved.
_database_code_ICSD                60002
_audit_creation_date               1986/04/14
_chemical_name_systematic          'Potassium Germanium Oxide Nitride'
_chemical_formula_structural       'K Ge O N'
_chemical_formula_sum              'Ge1 K1 N1 O1'
_publ_section_title
;
Preparation et structure de K Ge O N: un compose a liaison potassium-
azote
;
loop_
_citation_id
_citation_journal_abbrev
_citation_year
_citation_journal_volume
_citation_page_first
_citation_page_last
_citation_journal_id_ASTM
primary 'Revue de Chimie Minerale' 1983 20 863 870 RVCMA8
_publ_author_name
;
Guyader, J.;Jacquet, R.;Malhaire, J.M.;Roult, G.;Laurent, Y.
;
_cell_length_a                     5.7376(6)
_cell_length_b                     8.0535(11)
_cell_length_c                     5.2173(5)
_cell_angle_alpha                  90.
_cell_angle_beta                   90.
_cell_angle_gamma                  90.
_cell_volume                       241.08
_cell_formula_units_Z              4
_symmetry_space_group_name_H-M     'P c a 21'
_symmetry_Int_Tables_number        29
_refine_ls_R_factor_all            .049
loop_
_symmetry_equiv_pos_site_id
_symmetry_equiv_pos_as_xyz
  1	'x+.5, -y, z'
  2	'-x+.5, y, z+.5'
  3	'-x, -y, z+.5'
  4	'x, y, z'
loop_
_atom_type_symbol
_atom_type_oxidation_number
Ge4+	4
K1+	1
N3-	-3
O2-	-2
loop_
_atom_site_label
_atom_site_type_symbol
_atom_site_symmetry_multiplicity
_atom_site_Wyckoff_symbol
_atom_site_fract_x
_atom_site_fract_y
_atom_site_fract_z
_atom_site_occupancy
_atom_site_attached_hydrogens
_atom_site_B_iso_or_equiv
K1 K1+ 4 a 0.556(3) 0.355(2) 0.017(4) 1. 0 1. 
Ge1 Ge4+ 4 a 0.093(1) 0.096(1) 0 1. 0 1. 
O1 O2- 4 a 0.471(1) 0.310(2) 0.526(3) 1. 0 1. 
N1 N3- 4 a 0.127(2) 0.043(1) 0.649(2) 1. 0 1. 

#End of data_60002-ICSD


