data_191679-ICSD
#?2014 by Fachinformationszentrum Karlsruhe, and the U.S. Secretary of 
#Commerce on behalf of the United States.  All rights reserved.
_database_code_ICSD                191679
_audit_creation_date               2014/08/01
_chemical_name_systematic
;
Dicalcium Holmium Tantalum Hexaoxide
;
_chemical_formula_structural       'Ca2 Ho Ta O6'
_chemical_formula_sum              'Ca2 Ho1 O6 Ta1'
_publ_section_title
;
Structural and transport properties of A2 Ho Ta O6 (A=Ba, Sr and Ca)
;
loop_
_citation_id
_citation_journal_abbrev
_citation_year
_citation_journal_volume
_citation_page_first
_citation_page_last
_citation_journal_id_ASTM
primary 'Journal of Magnetism and Magnetic Materials' 2014 360 211 216 JMMMDC
_publ_author_name
;
Dutta, Alo;Sinha, T.P.;Das, Dipankar
;
_cell_length_a                     5.583(1)
_cell_length_b                     5.802(2)
_cell_length_c                     8.046(1)
_cell_angle_alpha                  90.
_cell_angle_beta                   90.051
_cell_angle_gamma                  90.
_cell_volume                       260.63
_cell_formula_units_Z              2
_symmetry_space_group_name_H-M     'P 1 21/n 1'
_symmetry_Int_Tables_number        14
_refine_ls_R_factor_all            .076
loop_
_symmetry_equiv_pos_site_id
_symmetry_equiv_pos_as_xyz
  1	'-x+.5, y+.5, -z+.5'
  2	'-x, -y, -z'
  3	'x+.5, -y+.5, z+.5'
  4	'x, y, z'
loop_
_atom_type_symbol
_atom_type_oxidation_number
Ca2+	2
Ho3+	3
O2-	-2
Ta5+	5
loop_
_atom_site_label
_atom_site_type_symbol
_atom_site_symmetry_multiplicity
_atom_site_Wyckoff_symbol
_atom_site_fract_x
_atom_site_fract_y
_atom_site_fract_z
_atom_site_occupancy
_atom_site_attached_hydrogens
Ca1 Ca2+ 4 e 0.009(1) 0.537(0) 0.254(2) 1. 0 
Ho1 Ho3+ 2 a 0 0 0 1. 0 
Ta1 Ta5+ 2 b 0 0 0.5 1. 0 
O1 O2- 4 e 0.128(1) 0.025(0) -0.275(2) 1. 0 
O2 O2- 4 e 0.396(3) -0.177(1) 0.046(2) 1. 0 
O3 O2- 4 e 0.220(1) 0.348(4) 0.100(2) 1. 0 

#End of data_191679-ICSD


