data_98734-ICSD
#?2014 by Fachinformationszentrum Karlsruhe, and the U.S. Secretary of 
#Commerce on behalf of the United States.  All rights reserved.
_database_code_ICSD                98734
_audit_creation_date               2005/04/01
_chemical_name_systematic
;
Hexapotassium Mue-oxo-hexathiodititanate
;
_chemical_formula_structural       'K6 (S3 Ti O Ti S3)'
_chemical_formula_sum              'K6 O1 S6 Ti2'
_publ_section_title
;
Preparation and crystal structure of hexapotassium-mue-oxo-
hexathiodititanate(IV), K6 Ti2 O S6
;
loop_
_citation_id
_citation_journal_abbrev
_citation_year
_citation_journal_volume
_citation_page_first
_citation_page_last
_citation_journal_id_ASTM
primary 'Zeitschrift fuer Naturforschung, B: Chemical Sciences'
 2003 58 163 167 ZNBSEN
_publ_author_name                  'Klepp, K.O.;Fabian, F.'
_cell_length_a                     13.281(4)
_cell_length_b                     10.364(1)
_cell_length_c                     12.963(5)
_cell_angle_alpha                  90
_cell_angle_beta                   105.61(2)
_cell_angle_gamma                  90
_cell_volume                       1718.47
_cell_formula_units_Z              4
_symmetry_space_group_name_H-M     'P 1 21/c 1'
_symmetry_Int_Tables_number        14
_refine_ls_R_factor_all            .024
loop_
_symmetry_equiv_pos_site_id
_symmetry_equiv_pos_as_xyz
  1	'x, -y+.5, z+.5'
  2	'-x, -y, -z'
  3	'-x, y+.5, -z+.5'
  4	'x, y, z'
loop_
_atom_type_symbol
_atom_type_oxidation_number
K1+	1
O2-	-2
S2-	-2
Ti4+	4
loop_
_atom_site_label
_atom_site_type_symbol
_atom_site_symmetry_multiplicity
_atom_site_Wyckoff_symbol
_atom_site_fract_x
_atom_site_fract_y
_atom_site_fract_z
_atom_site_occupancy
_atom_site_attached_hydrogens
_atom_site_B_iso_or_equiv
K1 K1+ 4 e 0.08669(6) 0.02380(8) 0.66062(6) 1. 0 2.24(2) 
K2 K1+ 4 e 0.59399(5) 0.04447(7) 0.17043(6) 1. 0 1.99(1) 
K3 K1+ 4 e 0.28572(6) 0.21692(8) 0.08392(6) 1. 0 2.22(2) 
K4 K1+ 4 e 0.79599(6) 0.23524(9) 0.56510(6) 1. 0 2.64(2) 
K5 K1+ 4 e 0.00483(6) 0.15794(8) 0.89574(6) 1. 0 2.74(2) 
K6 K1+ 4 e 0.46988(6) 0.16751(8) 0.39664(7) 1. 0 2.76(2) 
Ti1 Ti4+ 4 e 0.17829(4) 0.13020(5) 0.29310(4) 1. 0 1.17(1) 
Ti2 Ti4+ 4 e 0.66237(4) 0.39033(5) 0.28365(4) 1. 0 1.15(1) 
S1 S2- 4 e 0.14187(7) 0.05777(9) 0.44201(7) 1. 0 2.11(2) 
S2 S2- 4 e 0.03295(7) 0.14701(9) 0.15515(7) 1. 0 2.43(2) 
S3 S2- 4 e 0.24731(6) 0.32628(8) 0.33164(7) 1. 0 1.91(2) 
S4 S2- 4 e 0.62509(6) 0.42787(9) 0.43857(6) 1. 0 1.88(2) 
S5 S2- 4 e 0.51136(7) 0.34933(9) 0.15774(7) 1. 0 2.35(2) 
S6 S2- 4 e 0.77557(6) 0.22555(9) 0.30558(7) 1. 0 2.07(2) 
O1 O2- 4 e 0.2809(2) 0.0380(2) 0.2559(2) 1. 0 2.24(5) 

loop_
_atom_site_aniso_label
_atom_site_aniso_type_symbol
_atom_site_aniso_U_11
_atom_site_aniso_U_22
_atom_site_aniso_U_33
_atom_site_aniso_U_12
_atom_site_aniso_U_13
_atom_site_aniso_U_23
K1 K1+ .0272(4) .0279(4) .0288(4) -.0013(3) .0056(3) -.0039(3)
K2 K1+ .0231(3) .0228(4) .0310(4) -.0003(3) .0094(3) -.0032(3)
K3 K1+ .0305(3) .0305(4) .0237(3) .0026(3) .0077(3) .0059(3)
K4 K1+ .0361(4) .0385(5) .0245(4) .0109(4) .0064(3) .0039(4)
K5 K1+ .0338(4) .0316(4) .0402(4) -.0037(4) .0127(3) -.0005(4)
K6 K1+ .0323(4) .0336(4) .0370(4) -.0016(4) .0061(3) -.0048(4)
Ti1 Ti4+ .0153(2) .0142(3) .0165(2) .0005(2) .0069(2) -.0007(2)
Ti2 Ti4+ .0143(2) .0150(3) .0156(2) -.0013(2) .0062(2) .0000(2)
S1 S2- .0347(4) .0263(4) .0224(4) -.0048(4) .0132(3) .0029(4)
S2 S2- .0279(4) .0306(5) .0275(4) .0007(4) -.0038(4) -.0008(4)
S3 S2- .0261(4) .0183(4) .0268(4) -.0054(4) .0048(3) .0004(4)
S4 S2- .0270(4) .0286(5) .0186(4) .0054(4) .0107(3) .0011(4)
S5 S2- .0237(4) .0304(5) .0287(4) -.0028(4) -.0039(4) -.0037(4)
S6 S2- .0244(4) .0272(4) .0258(4) .0087(4) .0045(3) -.0035(4)
O1 O2- .029(1) .025(1) .034(1) .008(1) .0143(9) -.004(1)
#End of data_98734-ICSD


