data_92567-ICSD
#?2014 by Fachinformationszentrum Karlsruhe, and the U.S. Secretary of 
#Commerce on behalf of the United States.  All rights reserved.
_database_code_ICSD                92567
_audit_creation_date               2003/04/01
_audit_update_record               2008/02/01
_chemical_name_systematic          'Calcium Sulfate(VI) Dihydrate'
_chemical_formula_structural       'Ca (S O4) (H2 O)2'
_chemical_formula_sum              'H4 Ca1 O6 S1'
_chemical_name_mineral             Gypsum
_publ_section_title
;
Temperature related structural variation of the hydrous components in 
gypsum
;
loop_
_citation_id
_citation_journal_abbrev
_citation_year
_citation_journal_volume
_citation_page_first
_citation_page_last
_citation_journal_id_ASTM
primary 'Zeitschrift fuer Kristallographie (1979-2010)' 2000 215 707 710 ZEKRDZ
_publ_author_name
;
Schofield, P.F.;Wilson, C.C.;Knight, K.S.;Stretton, I.C.
;
_cell_length_a                     5.6739(5)
_cell_length_b                     15.1058(2)
_cell_length_c                     6.4917(4)
_cell_angle_alpha                  90
_cell_angle_beta                   118.512(2)
_cell_angle_gamma                  90
_cell_volume                       488.91
_cell_formula_units_Z              4
_symmetry_space_group_name_H-M     'I 1 2/c 1'
_symmetry_Int_Tables_number        15
_refine_ls_R_factor_all            .061
loop_
_symmetry_equiv_pos_site_id
_symmetry_equiv_pos_as_xyz
  1	'-x, y, -z+.5'
  2	'-x, -y, -z'
  3	'x, -y, z+.5'
  4	'x, y, z'
  5	'-x+.5, y+.5, -z'
  6	'-x+.5, -y+.5, -z+.5'
  7	'x+.5, -y+.5, z'
  8	'x+.5, y+.5, z+.5'
loop_
_atom_type_symbol
_atom_type_oxidation_number
Ca2+	2
H1+	1
O2-	-2
S6+	6
loop_
_atom_site_label
_atom_site_type_symbol
_atom_site_symmetry_multiplicity
_atom_site_Wyckoff_symbol
_atom_site_fract_x
_atom_site_fract_y
_atom_site_fract_z
_atom_site_occupancy
_atom_site_attached_hydrogens
Ca1 Ca2+ 4 e 0.5 0.07998(11) 0.250 1. 0 
S1 S6+ 4 e 0 0.07692(17) 0.750 1. 0 
O1 O2- 8 f 0.96445(17) 0.13249(7) 0.5492(2) 1. 0 
O2 O2- 8 f 0.75713(17) 0.02212(7) 0.6658(2) 1. 0 
O3 O2- 8 f 0.3828(2) 0.18226(7) 0.4614(3) 1.000 0 
H1 H1+ 8 f 0.2519(5) 0.1616(2) 0.5084(7) 1. 0 
H2 H1+ 8 f 0.4072(5) 0.24450(16) 0.4931(8) 1. 0 

loop_
_atom_site_aniso_label
_atom_site_aniso_type_symbol
_atom_site_aniso_U_11
_atom_site_aniso_U_22
_atom_site_aniso_U_33
_atom_site_aniso_U_12
_atom_site_aniso_U_13
_atom_site_aniso_U_23
Ca1 Ca2+ 0.0031(4) 0.0023(5) 0.0026(8) 0. 0.0009(4) 0.
S1 S6+ 0.0000(6) 0.0014(7) 0.0025(13) 0. 0.0007(6) 0.
O1 O2- 0.0035(3) 0.0039(3) 0.0049(5) -0.0007(2) 0.0019(3) 0.0011(4)
O2 O2- 0.0029(3) 0.0040(3) 0.0041(5) -0.0015(2) 0.0009(2) -0.0001(3)
O3 O2- 0.0081(4) 0.0046(3) 0.0084(7) -0.0004(3) 0.0059(3) -0.0010(4)
H1 H1+ 0.0233(10) 0.0222(11) 0.028(2) -0.0040(8) 0.0207(9) 0.0022(13)
H2 H1+ 0.0289(11) 0.0103(8) 0.042(3) -0.0028(7) 0.0201(11) -0.0040(12)
#End of data_92567-ICSD


