data_412476-ICSD
#?2014 by Fachinformationszentrum Karlsruhe, and the U.S. Secretary of 
#Commerce on behalf of the United States.  All rights reserved.
_database_code_ICSD                412476
_audit_creation_date               2005/04/01
_audit_update_record               2008/02/01
_chemical_name_systematic
;
Trisilver Tripotassium Bis(tetrathiotantalate)
;
_chemical_formula_structural       'Ag3 K3 (Ta S4)2'
_chemical_formula_sum              'Ag3 K3 S8 Ta2'
_publ_section_title
;
Syntheses and crystal structures of new quaternary Ag-containing 
group 5 chalcogenides: K Ag2 M(V) Se4 and K3 Ag3 M(V)2 S8 (M(V) = Nb, 
Ta)
;
loop_
_citation_id
_citation_journal_abbrev
_citation_year
_citation_journal_volume
_citation_journal_issue
_citation_page_first
_citation_page_last
_citation_journal_id_ASTM
primary 'Bulletin of the Chemical Society of Japan' 2004 77 3 505 509 BCSJA8
_publ_author_name
;
Chen Wen Tong;Ma Hong Wei;Guo Guo Cong;Deng Lei;Zhou Guowei;Dong 
Zhenchao;Huang Jinshun
;
_cell_length_a                     23.598(3)
_cell_length_b                     5.5889(19)
_cell_length_c                     14.307(5)
_cell_angle_alpha                  90.00
_cell_angle_beta                   120.631(19)
_cell_angle_gamma                  90.00
_cell_volume                       1623.62
_cell_formula_units_Z              4
_symmetry_space_group_name_H-M     'C 1 2/c 1'
_symmetry_Int_Tables_number        15
_refine_ls_R_factor_all            .0854
loop_
_symmetry_equiv_pos_site_id
_symmetry_equiv_pos_as_xyz
  1	'x, -y, z+.5'
  2	'-x, -y, -z'
  3	'-x, y, -z+.5'
  4	'x, y, z'
  5	'x+.5, -y+.5, z+.5'
  6	'-x+.5, -y+.5, -z'
  7	'-x+.5, y+.5, -z+.5'
  8	'x+.5, y+.5, z'
loop_
_atom_type_symbol
_atom_type_oxidation_number
Ag1+	1
K1+	1
S2-	-2
Ta5+	5
loop_
_atom_site_label
_atom_site_type_symbol
_atom_site_symmetry_multiplicity
_atom_site_Wyckoff_symbol
_atom_site_fract_x
_atom_site_fract_y
_atom_site_fract_z
_atom_site_occupancy
_atom_site_attached_hydrogens
_atom_site_U_iso_or_equiv
Ta1 Ta5+ 8 f 0.126173(9) 0.71443(4) 0.279681(15) 1 0 0.01496(6) 
Ag1 Ag1+ 4 e 0.0000 0.7186(2) 0.2500 1 0 0.0561(3) 
Ag2 Ag1+ 8 f 0.12297(3) 0.21545(14) 0.28202(5) 1 0 0.0536(2) 
K1 K1+ 8 f 0.19232(7) 0.4577(3) 0.09597(11) 1 0 0.0397(5) 
K2 K1+ 4 a 0.0000 0.0000 0.0000 1 0 0.0303(6) 
S1 S2- 8 f 0.09198(6) 0.9450(3) 0.37562(10) 1 0 0.0218(4) 
S2 S2- 8 f 0.03958(6) 0.4786(3) 0.15825(11) 1 0 0.0222(4) 
S3 S2- 8 f 0.15635(6) 0.9618(3) 0.18585(11) 1 0 0.0230(4) 
S4 S2- 8 f 0.21116(6) 0.4716(3) 0.38991(11) 1 0 0.0219(4) 

loop_
_atom_site_aniso_label
_atom_site_aniso_type_symbol
_atom_site_aniso_U_11
_atom_site_aniso_U_22
_atom_site_aniso_U_33
_atom_site_aniso_U_12
_atom_site_aniso_U_13
_atom_site_aniso_U_23
Ta1 Ta5+ 0.01451(7) 0.01147(10) 0.01921(8) 0.00095(7) 0.00881(5) 0.00130(7)
Ag1 Ag1+ 0.0470(4) 0.0533(6) 0.0700(4) 0.000 0.0312(3) 0.000
Ag2 Ag1+ 0.0543(3) 0.0424(4) 0.0629(3) 0.0011(3) 0.0289(2) 0.0005(3)
K1 K1+ 0.0455(6) 0.0421(9) 0.0405(5) 0.0047(6) 0.0284(4) -0.0018(6)
K2 K1+ 0.0237(7) 0.0361(11) 0.0207(7) -0.0012(8) 0.0038(5) -0.0052(7)
S1 S2- 0.0189(4) 0.0229(7) 0.0278(5) -0.0047(5) 0.0149(3) -0.0060(5)
S2 S2- 0.0197(5) 0.0156(6) 0.0277(5) -0.0033(5) 0.0093(4) -0.0072(5)
S3 S2- 0.0256(5) 0.0180(7) 0.0333(5) -0.0003(5) 0.0208(3) 0.0024(5)
S4 S2- 0.0143(5) 0.0169(7) 0.0277(5) 0.0034(5) 0.0058(4) 0.0016(5)
#End of data_412476-ICSD


