data_30512-ICSD
#?2014 by Fachinformationszentrum Karlsruhe, and the U.S. Secretary of 
#Commerce on behalf of the United States.  All rights reserved.
_database_code_ICSD                30512
_audit_creation_date               1980/01/01
_audit_update_record               2012/08/01
_chemical_name_systematic          'Potassium Tetrazinc Phosphate'
_chemical_formula_structural       'K Zn4 (P O4)3'
_chemical_formula_sum              'K1 O12 P3 Zn4'
_publ_section_title
;
Structure du Monophosphate de Potassium-Zinc: K Zn4 (P O4)3
;
loop_
_citation_id
_citation_journal_abbrev
_citation_year
_citation_journal_volume
_citation_page_first
_citation_page_last
_citation_journal_id_ASTM
primary 'Acta Crystallographica B (24,1968-38,1982)' 1979 35 151 152 ACBCAR
_publ_author_name                  'Averbuch-Pouchot, M.T.;Durif, A.'
_cell_length_a                     13.81(1)
_cell_length_b                     8.166(8)
_cell_length_c                     9.675(8)
_cell_angle_alpha                  90.
_cell_angle_beta                   90.
_cell_angle_gamma                  90.
_cell_volume                       1091.07
_cell_formula_units_Z              4
_symmetry_space_group_name_H-M     'P c c n'
_symmetry_Int_Tables_number        56
_refine_ls_R_factor_all            .045
loop_
_symmetry_equiv_pos_site_id
_symmetry_equiv_pos_as_xyz
  1	'x, -y+.5, z+.5'
  2	'-x+.5, y, z+.5'
  3	'x+.5, y+.5, -z'
  4	'-x, -y, -z'
  5	'-x, y+.5, -z+.5'
  6	'x+.5, -y, -z+.5'
  7	'-x+.5, -y+.5, z'
  8	'x, y, z'
loop_
_atom_type_symbol
_atom_type_oxidation_number
K1+	1
O2-	-2
P5+	5
Zn2+	2
loop_
_atom_site_label
_atom_site_type_symbol
_atom_site_symmetry_multiplicity
_atom_site_Wyckoff_symbol
_atom_site_fract_x
_atom_site_fract_y
_atom_site_fract_z
_atom_site_occupancy
_atom_site_attached_hydrogens
Zn1 Zn2+ 8 e 0.05049(6) 0.1055(1) 0.19316(9) 1. 0 
Zn2 Zn2+ 8 e 0.14556(6) 0.08671(9) 0.49742(9) 1. 0 
K1 K1+ 4 d 0.75 0.25 0.1930(3) 1. 0 
P1 P5+ 8 e 0.5655(1) 0.2454(2) 0.4338(2) 1. 0 
P2 P5+ 4 c 0.25 0.25 0.2538(3) 1. 0 
O1 O2- 8 e 0.2630(4) 0.4022(6) 0.3415(6) 1. 0 
O2 O2- 8 e 0.3396(4) 0.2356(6) 0.1556(5) 1. 0 
O3 O2- 8 e 0.4712(4) 0.3420(6) 0.3930(6) 1. 0 
O4 O2- 8 e 0.4129(4) 0.6182(6) 0.1767(6) 1. 0 
O5 O2- 8 e 0.1501(4) 0.6327(6) 0.0636(6) 1. 0 
O6 O2- 8 e 0.4482(4) 0.8297(7) 0.4250(5) 1. 0 

#End of data_30512-ICSD


