data_4405-ICSD
#?2014 by Fachinformationszentrum Karlsruhe, and the U.S. Secretary of 
#Commerce on behalf of the United States.  All rights reserved.
_database_code_ICSD                4405
_audit_creation_date               1986/10/15
_chemical_name_systematic
;
Hexaaquaaluminium Hexachlororuthenate(III) Tetrahydrate
;
_chemical_formula_structural       'Al (H2 O)6 Ru Cl6 (H2 O)4'
_chemical_formula_sum              'H20 Al1 Cl6 O10 Ru1'
_publ_section_title
;
The crystal and molecular structure of hexaaquoaluminium 
hexachlororuthenate tetrahydrate
;
loop_
_citation_id
_citation_journal_abbrev
_citation_year
_citation_journal_volume
_citation_page_first
_citation_page_last
_citation_journal_id_ASTM
primary 'Inorganic Chemistry' 1969 8 2421 2425 INOCAJ
_publ_author_name
;
Hopkins, T.E.;Zalkin, A.;Templeton, D.H.;Adamson, M.G.
;
_cell_length_a                     10.492(5)
_cell_length_b                     11.415(5)
_cell_length_c                     7.069(5)
_cell_angle_alpha                  90.
_cell_angle_beta                   92.69(2)
_cell_angle_gamma                  90.
_cell_volume                       845.69
_cell_formula_units_Z              2
_symmetry_space_group_name_H-M     'P 1 21/n 1'
_symmetry_Int_Tables_number        14
_refine_ls_R_factor_all            .036
loop_
_symmetry_equiv_pos_site_id
_symmetry_equiv_pos_as_xyz
  1	'-x+.5, y+.5, -z+.5'
  2	'-x, -y, -z'
  3	'x+.5, -y+.5, z+.5'
  4	'x, y, z'
loop_
_atom_type_symbol
_atom_type_oxidation_number
Al3+	3
Cl1-	-1
H1+	1
O2-	-2
Ru3+	3
loop_
_atom_site_label
_atom_site_type_symbol
_atom_site_symmetry_multiplicity
_atom_site_Wyckoff_symbol
_atom_site_fract_x
_atom_site_fract_y
_atom_site_fract_z
_atom_site_occupancy
_atom_site_attached_hydrogens
_atom_site_B_iso_or_equiv
Al1 Al3+ 2 a 0 0 0 1. 0 0 
Ru1 Ru3+ 2 d 0.5 0 0 1. 0 0 
Cl1 Cl1- 4 e 0.3768(1) -.1037(1) 0.2176(2) 1. 0 0 
Cl2 Cl1- 4 e 0.3649(1) -.0675(1) -.2551(2) 1. 0 0 
Cl3 Cl1- 4 e 0.3732(1) 0.1717(1) 0.0301(2) 1. 0 0 
O1 O2- 4 e 0.0980(3) 0.1182(3) -.1090(5) 1. 0 0 
O2 O2- 4 e 0.1091(3) -.0023(3) 0.2194(5) 1. 0 0 
O3 O2- 4 e 0.0980(3) -.1152(3) -.1136(5) 1. 0 0 
O4 O2- 4 e 0.1113(4) 0.1447(3) 0.5164(5) 1. 0 0 
O5 O2- 4 e 0.3732(4) 0.1726(4) 0.4869(5) 1. 0 0 
H1 H1+ 4 e 0.19 0.136 -.063 1. 0 4.9 
H2 H1+ 4 e 0.102 0.127 -.234 1. 0 4.9 
H3 H1+ 4 e 0.198 -.037 0.218 1. 0 4.9 
H4 H1+ 4 e 0.109 0.046 0.318 1. 0 4.9 
H5 H1+ 4 e 0.186 -.099 -.161 1. 0 4.9 
H6 H1+ 4 e 0.107 -.186 -.08 1. 0 4.9 
H7 H1+ 4 e 0.199 0.153 0.506 1. 0 4.9 
H8 H1+ 4 e 0.072 0.217 0.48 1. 0 4.9 
H9 H1+ 4 e 0.424 0.105 0.542 1. 0 4.9 
H10 H1+ 4 e 0.383 0.174 0.346 1. 0 4.9 

loop_
_atom_site_aniso_label
_atom_site_aniso_type_symbol
_atom_site_aniso_B_11
_atom_site_aniso_B_22
_atom_site_aniso_B_33
_atom_site_aniso_B_12
_atom_site_aniso_B_13
_atom_site_aniso_B_23
Al1 Al3+ 1.66(8) 2.38(9) 2.16(8) -.004(8) 0.12(7) -.10(7)
Ru1 Ru3+ 1.50(2) 2.33(3) 1.75(2) 0.01(2) 0.18(2) -.07(2)
Cl1 Cl1- 2.12(5) 3.15(6) 2.37(5) -.07(5) 0.44(4) 0.42(5)
Cl2 Cl1- 2.15(5) 3.42(6) 2.11(5) -.21(5) 0.00(4) -.29(5)
Cl3 Cl1- 2.03(5) 2.65(6) 3.11(6) 0.17(4) 0.17(4) -.22(5)
O1 O2- 2.3(2) 3.1(2) 2.7(2) -.6(1) 0.2(1) 0.3(1)
O2 O2- 2.4(1) 3.3(2) 2.4(2) 0.3(1) -.2(1) -.4(1)
O3 O2- 2.1(2) 2.7(2) 3.2(2) -.1(1) 0.6(1) -.2(1)
O4 O2- 4.4(2) 3.1(2) 2.9(2) 0.1(2) 0.3(2) -.2(1)
O5 O2- 3.8(2) 3.1(2) 3.1(2) 0.6(2) 0.5(1) 0.1(1)
#End of data_4405-ICSD


