data_236201-ICSD
#?2014 by Fachinformationszentrum Karlsruhe, and the U.S. Secretary of 
#Commerce on behalf of the United States.  All rights reserved.
_database_code_ICSD                236201
_audit_creation_date               2013/08/01
_chemical_name_systematic
;
Tripotassium Dioxononafluorodiniobate Potassiumfluoride *
;
_chemical_formula_structural       'K3 (Nb2 O2 F9) (K F)0.3333'
_chemical_formula_sum              'F9.3333 K3.3333 Nb2 O2'
_publ_section_title
;
Dinuclear oxofluorometallates as a new structural type of d0 
transition metal oxofluoride compound
;
loop_
_citation_id
_citation_journal_abbrev
_citation_year
_citation_journal_volume
_citation_journal_issue
_citation_page_first
_citation_page_last
_citation_journal_id_ASTM
primary 'Acta Crystallographica, Section B: Structural Science'
 2012 68 6 602 609 ASBSDK
_publ_author_name                  'Udovenko, A.A.;Laptash, N.M.'
_cell_length_a                     20.1095(6)
_cell_length_b                     7.8045(2)
_cell_length_c                     11.4938(4)
_cell_angle_alpha                  90.00
_cell_angle_beta                   90.00
_cell_angle_gamma                  90.00
_cell_volume                       1803.89
_cell_formula_units_Z              6
_symmetry_space_group_name_H-M     'P m n 21'
_symmetry_Int_Tables_number        31
_refine_ls_R_factor_all            .0314
loop_
_symmetry_equiv_pos_site_id
_symmetry_equiv_pos_as_xyz
  1	'x+.5, -y, z+.5'
  2	'-x+.5, -y, z+.5'
  3	'-x, y, z'
  4	'x, y, z'
loop_
_atom_type_symbol
_atom_type_oxidation_number
F1-	-1
K1+	1
Nb5+	5
O2-	-2
loop_
_atom_site_label
_atom_site_type_symbol
_atom_site_symmetry_multiplicity
_atom_site_Wyckoff_symbol
_atom_site_fract_x
_atom_site_fract_y
_atom_site_fract_z
_atom_site_occupancy
_atom_site_attached_hydrogens
_atom_site_U_iso_or_equiv
Nb1 Nb5+ 4 b 0.694119(14) 0.54920(4) 0.31782(2) 1 0 0.02328(5) 
Nb2 Nb5+ 4 b 0.802239(12) 1.00119(4) 0.42425(2) 1 0 0.02032(5) 
Nb3 Nb5+ 2 a 0.5000 0.07657(5) 0.51913(3) 1 0 0.02165(7) 
Nb4 Nb5+ 2 a 0.5000 0.53236(5) 0.73355(3) 1 0 0.02077(7) 
K1 K1+ 2 a 0.5000 0.54735(18) 0.37941(14) 1 0 0.0436(3) 
K2 K1+ 4 b 0.64207(5) 0.46945(13) 0.00278(8) 1 0 0.0435(2) 
K3 K1+ 4 b 0.67135(4) 0.76061(8) 0.61290(6) 1 0 0.02692(13) 
K4 K1+ 4 b 0.87478(4) 0.97010(12) 0.76828(7) 1 0 0.03550(18) 
K5 K1+ 2 a 0.0000 0.93829(15) 0.35489(10) 1 0 0.0322(2) 
K6 K1+ 4 b 0.83901(4) 0.73830(8) 0.14066(6) 1 0 0.02574(13) 
F1 F1- 4 b 0.78186(14) 0.4685(4) 0.2716(2) 1 0 0.0480(7) 
F2 F1- 4 b 0.69629(14) 0.6967(4) 0.1824(2) 1 0 0.0473(7) 
F3 F1- 4 b 0.62425(12) 0.6942(3) 0.3809(2) 1 0 0.0408(6) 
F4 F1- 4 b 0.70869(13) 0.4663(3) 0.47488(19) 1 0 0.0376(5) 
F5 F1- 4 b 0.75475(14) 0.7516(3) 0.3912(2) 1 0 0.0438(6) 
F6 F1- 4 b 0.87385(13) 0.8739(5) 0.3539(3) 1 0 0.0739(10) 
F7 F1- 4 b 0.77051(16) 1.0426(4) 0.2683(2) 1 0 0.0567(8) 
F8 F1- 4 b 0.71371(12) 1.0506(3) 0.4812(3) 1 0 0.0441(6) 
F9 F1- 4 b 0.81935(15) 0.8788(4) 0.5676(2) 1 0 0.0496(7) 
F10 F1- 4 b 0.56946(10) -0.0149(3) 0.6199(2) 1 0 0.0344(5) 
F11 F1- 4 b 0.56705(10) 0.2271(3) 0.4530(2) 1 0 0.0344(5) 
F12 F1- 2 a 0.5000 0.2707(4) 0.6564(3) 1 0 0.0377(8) 
F13 F1- 4 b 0.5673(3) 0.4272(7) 0.8224(5) 1 0 0.1565(16) 
F14 F1- 4 b 0.5645(2) 0.5641(5) 0.6136(4) 1 0 0.1158(12) 
O1 O2- 4 b 0.6462(2) 0.3870(4) 0.2612(3) 1 0 0.0631(10) 
O2 O2- 4 b 0.84304(17) 1.1876(4) 0.4493(3) 1 0 0.0492(8) 
O3 O2- 2 a 0.5000 -0.0765(5) 0.4103(4) 1 0 0.0414(10) 
O4 O2- 2 a 0.5000 0.7276(5) 0.7987(4) 1 0 0.0497(12) 
F15 F1- 2 a 0.5000 0.1013(9) 0.1186(3) 1 0 0.084(2) 

loop_
_atom_site_aniso_label
_atom_site_aniso_type_symbol
_atom_site_aniso_U_11
_atom_site_aniso_U_22
_atom_site_aniso_U_33
_atom_site_aniso_U_12
_atom_site_aniso_U_13
_atom_site_aniso_U_23
Nb1 Nb5+ 0.03248(12) 0.01998(11) 0.01738(9) -0.00326(10) 0.00528(10) 
-0.00175(9)
Nb2 Nb5+ 0.02055(10) 0.02420(11) 0.01620(9) -0.00367(9) 0.00220(9) 
-0.00127(8)
Nb3 Nb5+ 0.01597(13) 0.01967(14) 0.02932(17) 0.000 0.000 0.00198(13)
Nb4 Nb5+ 0.01802(14) 0.01919(14) 0.02511(16) 0.000 0.000 0.00084(13)
K1 K1+ 0.0337(5) 0.0368(6) 0.0602(8) 0.000 0.000 0.0055(6)
K2 K1+ 0.0531(5) 0.0402(4) 0.0372(4) -0.0021(4) -0.0104(4) -0.0014(3)
K3 K1+ 0.0320(3) 0.0180(2) 0.0307(3) 0.0015(2) -0.0034(3) -0.0009(2)
K4 K1+ 0.0379(4) 0.0362(4) 0.0324(3) -0.0028(3) -0.0085(3) -0.0045(3)
K5 K1+ 0.0312(5) 0.0325(5) 0.0328(5) 0.000 0.000 0.0021(4)
K6 K1+ 0.0338(3) 0.0196(2) 0.0238(3) -0.0054(2) -0.0013(2) -0.0004(2)
F1 F1- 0.0541(14) 0.0393(12) 0.0506(14) 0.0127(11) 0.0240(12) -0.0007(11)
F2 F1- 0.0596(15) 0.0521(15) 0.0303(10) -0.0053(12) -0.0004(10) 0.0123(11)
F3 F1- 0.0361(10) 0.0455(13) 0.0410(11) 0.0099(10) 0.0013(9) -0.0014(10)
F4 F1- 0.0533(13) 0.0353(11) 0.0241(9) 0.0023(10) 0.0087(9) 0.0084(8)
F5 F1- 0.0534(13) 0.0263(10) 0.0517(14) -0.0127(10) -0.0101(11) 0.0008(9)
F6 F1- 0.0319(11) 0.119(2) 0.0707(16) -0.0041(15) 0.0185(11) -0.0570(17)
F7 F1- 0.0734(17) 0.0608(15) 0.0359(11) -0.0270(14) -0.0190(12) 0.0208(11)
F8 F1- 0.0331(11) 0.0396(12) 0.0597(15) 0.0078(10) 0.0143(11) -0.0073(11)
F9 F1- 0.0729(16) 0.0481(14) 0.0279(10) 0.0069(14) -0.0180(11) 0.0043(10)
F10 F1- 0.0214(8) 0.0308(10) 0.0509(13) 0.0045(7) -0.0032(9) 0.0084(9)
F11 F1- 0.0273(9) 0.0379(11) 0.0379(10) -0.0074(8) 0.0076(8) 0.0065(9)
F12 F1- 0.0595(19) 0.0196(12) 0.0339(14) 0.000 0.000 -0.0012(11)
F13 F1- 0.200(3) 0.114(3) 0.156(3) 0.080(3) -0.145(2) -0.068(3)
F14 F1- 0.132(2) 0.080(2) 0.135(3) -0.0669(18) 0.100(2) -0.0600(19)
O1 O2- 0.097(2) 0.0439(15) 0.0485(17) -0.0395(17) 0.0126(18) -0.0171(14)
O2 O2- 0.0542(16) 0.0410(15) 0.0526(17) -0.0226(14) -0.0003(14) -0.0096(13)
O3 O2- 0.047(2) 0.0306(18) 0.046(2) 0.000 0.000 -0.0107(17)
O4 O2- 0.076(3) 0.0228(17) 0.050(2) 0.000 0.000 -0.0110(17)
F15 F1- 0.0131(11) 0.229(6) 0.0091(10) 0.000 0.000 -0.004(2)
#End of data_236201-ICSD


