data_2135-ICSD
#?2014 by Fachinformationszentrum Karlsruhe, and the U.S. Secretary of 
#Commerce on behalf of the United States.  All rights reserved.
_database_code_ICSD                2135
_audit_creation_date               1980/01/01
_audit_update_record               2012/08/01
_chemical_name_systematic          'Sodium Indium Silicate *'
_chemical_formula_structural       'Na In Si2 O6'
_chemical_formula_sum              'In1 Na1 O6 Si2'
_publ_section_title
;
Refinement of the crystal structure of  Na In S O6
;
loop_
_citation_id
_citation_journal_abbrev
_citation_year
_citation_journal_volume
_citation_page_first
_citation_page_last
_citation_journal_id_ASTM
primary 'Acta Crystallographica B (24,1968-38,1982)' 1974 30 1882 1884 ACBCAR
_publ_author_name                  'Hawthorne, F.C.;Grundy, H.D.'
_cell_length_a                     9.9023(4)
_cell_length_b                     9.1307(4)
_cell_length_c                     5.3589(2)
_cell_angle_alpha                  90.
_cell_angle_beta                   107.200(1)
_cell_angle_gamma                  90.
_cell_volume                       462.86
_cell_formula_units_Z              4
_symmetry_space_group_name_H-M     'C 1 2/c 1'
_symmetry_Int_Tables_number        15
_refine_ls_R_factor_all            .024
loop_
_symmetry_equiv_pos_site_id
_symmetry_equiv_pos_as_xyz
  1	'x, -y, z+.5'
  2	'-x, -y, -z'
  3	'-x, y, -z+.5'
  4	'x, y, z'
  5	'x+.5, -y+.5, z+.5'
  6	'-x+.5, -y+.5, -z'
  7	'-x+.5, y+.5, -z+.5'
  8	'x+.5, y+.5, z'
loop_
_atom_type_symbol
_atom_type_oxidation_number
In3+	3
Na1+	1
O2-	-2
Si4+	4
loop_
_atom_site_label
_atom_site_type_symbol
_atom_site_symmetry_multiplicity
_atom_site_Wyckoff_symbol
_atom_site_fract_x
_atom_site_fract_y
_atom_site_fract_z
_atom_site_occupancy
_atom_site_attached_hydrogens
O1 O2- 8 f 0.1193(2) 0.0795(2) 0.1519(4) 1. 0 
O2 O2- 8 f 0.3575(2) 0.2456(2) 0.3187(5) 1. 0 
O3 O2- 8 f 0.3493(2) 0.0118(2) 0.0180(4) 1. 0 
Si1 Si4+ 8 f 0.29175(8) 0.08640(8) 0.2477(1) 1. 0 
In1 In3+ 4 e 0 0.89466(3) 0.25 1. 0 
Na1 Na1+ 4 e 0 0.3033(2) 0.25 1. 0 

#End of data_2135-ICSD


