data_262709-ICSD
#?2014 by Fachinformationszentrum Karlsruhe, and the U.S. Secretary of 
#Commerce on behalf of the United States.  All rights reserved.
_database_code_ICSD                262709
_audit_creation_date               2012/08/01
_chemical_name_systematic          'Zinc Titanate'
_chemical_formula_structural       'Zn (Ti O3)'
_chemical_formula_sum              'O3 Ti1 Zn1'
_publ_section_title
;
The ferroelectric phase of Cd Ti O3: A powder neutron diffraction 
study
;
loop_
_citation_id
_citation_journal_abbrev
_citation_year
_citation_journal_volume
_citation_journal_issue
_citation_page_first
_citation_page_last
_citation_journal_id_ASTM
primary 'Journal of Solid State Chemistry' 2011 184 11 2987 2993 JSSCBI
_publ_author_name
;
Kennedy, B.J.;Zhou Qingdi;Avdeev, M.
;
_cell_length_a                     5.49270(9)
_cell_length_b                     5.49270(9)
_cell_length_c                     5.49270(9)
_cell_angle_alpha                  55.0831(7)
_cell_angle_beta                   55.0831(7)
_cell_angle_gamma                  55.0831(7)
_cell_volume                       103.78
_cell_formula_units_Z              2
_symmetry_space_group_name_H-M     'R -3 R'
_symmetry_Int_Tables_number        148
loop_
_symmetry_equiv_pos_site_id
_symmetry_equiv_pos_as_xyz
  1	'-z, -x, -y'
  2	'-y, -z, -x'
  3	'-x, -y, -z'
  4	'z, x, y'
  5	'y, z, x'
  6	'x, y, z'
loop_
_atom_type_symbol
_atom_type_oxidation_number
O2-	-2
Ti4+	4
Zn2+	2
loop_
_atom_site_label
_atom_site_type_symbol
_atom_site_symmetry_multiplicity
_atom_site_Wyckoff_symbol
_atom_site_fract_x
_atom_site_fract_y
_atom_site_fract_z
_atom_site_occupancy
_atom_site_attached_hydrogens
_atom_site_U_iso_or_equiv
Zn1 Zn2+ 2 c 0.3614(2) 0.3614(2) 0.3614(2) 1. 0 0.0130 
Ti1 Ti4+ 2 c 0.1466(3) 0.1466(3) 0.1466(3) 1. 0 0.0091 
O1 O2- 6 f 0.5619(4) -0.0490(3) 0.2231(3) 1. 0 0.0115 

loop_
_atom_site_aniso_label
_atom_site_aniso_type_symbol
_atom_site_aniso_U_11
_atom_site_aniso_U_22
_atom_site_aniso_U_33
_atom_site_aniso_U_12
_atom_site_aniso_U_13
_atom_site_aniso_U_23
Zn1 Zn2+ 0.0132(7) 0.0132(7) 0.0132(7) -0.0051(5) -0.0051(5) -0.0051(5)
Ti1 Ti4+ 0.0103(8) 0.0103(8) 0.0103(8) -0.0045(6) -0.0045(6) -0.0045(6)
O1 O2- 0.0112(8) 0.0110(8) 0.0105(8) -0.0019(6) -0.0047(7) -0.0044(7)
#End of data_262709-ICSD


