data_423987-ICSD
#?2014 by Fachinformationszentrum Karlsruhe, and the U.S. Secretary of 
#Commerce on behalf of the United States.  All rights reserved.
_database_code_ICSD                423987
_audit_creation_date               2012/08/01
_audit_update_record               2013/08/01
_chemical_name_systematic
;
Dipotassium Dioxodisulfidomolybdate
;
_chemical_formula_structural       'K2 Mo O2 S2'
_chemical_formula_sum              'K2 Mo1 O2 S2'
_publ_section_title
;
Gemischte Alkalimetall-Thiooxomolybdate A2 [Mo O(x) S(4-x)] (x = 1, 
2, 3; A = K, Rb, Cs, NH4). Synthesen, Kristallstrukturen und 
Eigenschaften
;
loop_
_citation_id
_citation_journal_abbrev
_citation_year
_citation_journal_volume
_citation_journal_issue
_citation_page_first
_citation_page_last
_citation_journal_id_ASTM
primary 'Zeitschrift fuer Naturforschung, B: Chemical Sciences'
 2012 67 2 127 148 ZNBSEN
_publ_author_name                  'Lehner, A.J.;Kraut, K.;Roehr, C.'
_cell_length_a                     6.5446(5)
_cell_length_b                     8.2291(5)
_cell_length_c                     13.6180(9)
_cell_angle_alpha                  90.00
_cell_angle_beta                   114.730(10)
_cell_angle_gamma                  90.00
_cell_volume                       666.15
_cell_formula_units_Z              4
_symmetry_space_group_name_H-M     'P 1 21/c 1'
_symmetry_Int_Tables_number        14
_refine_ls_R_factor_all            .0383
loop_
_symmetry_equiv_pos_site_id
_symmetry_equiv_pos_as_xyz
  1	'x, -y+.5, z+.5'
  2	'-x, -y, -z'
  3	'-x, y+.5, -z+.5'
  4	'x, y, z'
loop_
_atom_type_symbol
_atom_type_oxidation_number
K1+	1
Mo6+	6
O2-	-2
S2-	-2
loop_
_atom_site_label
_atom_site_type_symbol
_atom_site_symmetry_multiplicity
_atom_site_Wyckoff_symbol
_atom_site_fract_x
_atom_site_fract_y
_atom_site_fract_z
_atom_site_occupancy
_atom_site_attached_hydrogens
_atom_site_U_iso_or_equiv
K1 K1+ 4 e 0.32852(19) 0.68383(13) 0.05153(10) 1 0 0.0428(3) 
K2 K1+ 4 e 0.1512(2) 0.48115(16) 0.29836(10) 1 0 0.0493(3) 
Mo1 Mo6+ 4 e 0.27426(7) 0.20613(5) 0.08396(3) 1 0 0.03238(15) 
S1 S2- 4 e 0.1495(2) 0.16074(15) 0.42798(10) 1 0 0.0374(3) 
S2 S2- 4 e 0.5737(3) 0.33375(19) 0.19924(12) 1 0 0.0509(4) 
O1 O2- 4 e 0.3475(8) 0.0125(5) 0.0631(3) 1 0 0.0560(10) 
O2 O2- 4 e 0.0667(7) 0.2073(5) 0.1333(3) 1 0 0.0496(9) 

loop_
_atom_site_aniso_label
_atom_site_aniso_type_symbol
_atom_site_aniso_U_11
_atom_site_aniso_U_22
_atom_site_aniso_U_33
_atom_site_aniso_U_12
_atom_site_aniso_U_13
_atom_site_aniso_U_23
K1 K1+ 0.0387(6) 0.0336(6) 0.0562(7) -0.0012(4) 0.0200(5) -0.0019(5)
K2 K1+ 0.0551(7) 0.0409(6) 0.0488(7) 0.0040(5) 0.0187(5) 0.0080(5)
Mo1 Mo6+ 0.0364(2) 0.0278(2) 0.0325(2) 0.00005(16) 0.01402(16) 0.00050(16)
S1 S2- 0.0399(6) 0.0373(6) 0.0323(6) -0.0013(5) 0.0122(5) -0.0026(5)
S2 S2- 0.0461(7) 0.0495(8) 0.0415(7) -0.0072(6) 0.0029(6) -0.0012(6)
O1 O2- 0.075(3) 0.035(2) 0.054(2) 0.005(2) 0.024(2) 0.0023(18)
O2 O2- 0.048(2) 0.053(2) 0.053(2) -0.0006(18) 0.0265(18) 0.0075(19)
#End of data_423987-ICSD


