data_172879-ICSD
#?2014 by Fachinformationszentrum Karlsruhe, and the U.S. Secretary of 
#Commerce on behalf of the United States.  All rights reserved.
_database_code_ICSD                172879
_audit_creation_date               2008/02/01
_chemical_name_systematic          'Tetracalcium Titanium Tetranitride'
_chemical_formula_structural       'Ca4 Ti N4'
_chemical_formula_sum              'Ca4 N4 Ti1'
_publ_section_title
;
The synthesis and structural characterization of the new ternary 
nitrides: Ca4 Ti N4 and Ca5 Nb N5
;
loop_
_citation_id
_citation_journal_abbrev
_citation_year
_citation_journal_volume
_citation_journal_issue
_citation_page_first
_citation_page_last
_citation_journal_id_ASTM
primary 'Journal of Solid State Chemistry' 2007 180 1 31 40 JSSCBI
_publ_author_name
;
Hunting, J.L.;Szymanski, M.M.;Johnson, P.E.;Kellar, C.B.;DiSalvo, 
F.J.
;
_cell_length_a                     5.9757(5)
_cell_length_b                     6.0129(5)
_cell_length_c                     8.9881(7)
_cell_angle_alpha                  71.565(4)
_cell_angle_beta                   79.471(4)
_cell_angle_gamma                  68.258(4)
_cell_volume                       283.8
_cell_formula_units_Z              2
_symmetry_space_group_name_H-M     'P -1'
_symmetry_Int_Tables_number        2
_refine_ls_R_factor_all            .0164
loop_
_symmetry_equiv_pos_site_id
_symmetry_equiv_pos_as_xyz
  1	'-x, -y, -z'
  2	'x, y, z'
loop_
_atom_type_symbol
_atom_type_oxidation_number
Ca2+	2
N3-	-3
Ti4+	4
loop_
_atom_site_label
_atom_site_type_symbol
_atom_site_symmetry_multiplicity
_atom_site_Wyckoff_symbol
_atom_site_fract_x
_atom_site_fract_y
_atom_site_fract_z
_atom_site_occupancy
_atom_site_attached_hydrogens
_atom_site_U_iso_or_equiv
Ti1 Ti4+ 2 i 0.28387(3) 0.15235(3) 0.24430(2) 1 0 0.00344(5) 
Ca1 Ca2+ 2 i 0.22487(4) 0.42155(4) 0.82361(2) 1 0 0.00580(5) 
Ca2 Ca2+ 2 i 0.26421(4) 0.77221(4) 0.01888(2) 1 0 0.00557(5) 
Ca3 Ca2+ 2 i 0.27046(4) 0.52048(4) 0.42631(2) 1 0 0.00463(5) 
Ca4 Ca2+ 2 i 0.76475(4) 0.04577(4) 0.39242(2) 1 0 0.00519(5) 
N1 N3- 2 i 0.02941(16) 0.29078(16) 0.39107(10) 1 0 0.00546(16) 
N2 N3- 2 i 0.11554(17) 0.16847(17) 0.07368(11) 1 0 0.00714(16) 
N3 N3- 2 i 0.48135(17) 0.36690(16) 0.19598(10) 1 0 0.00563(16) 
N4 N3- 2 i 0.51141(17) 0.17595(17) 0.63760(11) 1 0 0.00640(16) 

loop_
_atom_site_aniso_label
_atom_site_aniso_type_symbol
_atom_site_aniso_U_11
_atom_site_aniso_U_22
_atom_site_aniso_U_33
_atom_site_aniso_U_12
_atom_site_aniso_U_13
_atom_site_aniso_U_23
Ti1 Ti4+ 0.00331(9) 0.00362(8) 0.00352(8) -0.00122(6) -0.00024(6) 
-0.00106(6)
Ca1 Ca2+ 0.00567(10) 0.00610(10) 0.00572(9) -0.00275(7) -0.00105(7) 
-0.00047(7)
Ca2 Ca2+ 0.00541(10) 0.00529(9) 0.00528(9) -0.00068(7) -0.00051(7) 
-0.00172(7)
Ca3 Ca2+ 0.00439(10) 0.00496(9) 0.00494(9) -0.00166(7) 0.00000(7) 
-0.00196(6)
Ca4 Ca2+ 0.00500(10) 0.00492(9) 0.00555(9) -0.00166(7) -0.00127(7) 
-0.00080(7)
N1 N3- 0.0054(4) 0.0055(4) 0.0058(4) -0.0021(3) -0.0002(3) -0.0018(3)
N2 N3- 0.0075(4) 0.0075(4) 0.0069(4) -0.0026(3) -0.0016(3) -0.0020(3)
N3 N3- 0.0058(4) 0.0060(4) 0.0055(4) -0.0025(3) -0.0001(3) -0.0015(3)
N4 N3- 0.0058(4) 0.0065(4) 0.0069(4) -0.0023(3) -0.0006(3) -0.0013(3)
#End of data_172879-ICSD


