data_262005-ICSD
#?2014 by Fachinformationszentrum Karlsruhe, and the U.S. Secretary of 
#Commerce on behalf of the United States.  All rights reserved.
_database_code_ICSD                262005
_audit_creation_date               2012/02/01
_chemical_name_systematic          'Tripotassium Hexaborate Chloride'
_chemical_formula_structural       'K3 (B6 O10) Cl'
_chemical_formula_sum              'B6 Cl1 K3 O10'
_publ_section_title
;
K3 B6 O10 Cl: A new structure analogous to perovskite with a large 
second harmonic generation response and deep UV absorption edge
;
loop_
_citation_id
_citation_journal_abbrev
_citation_year
_citation_journal_volume
_citation_journal_issue
_citation_page_first
_citation_page_last
_citation_journal_id_ASTM
primary 'Journal of the American Chemical Society' 2011 133 20 7786 7790 JACSAT
_publ_author_name
;
Wu Hongping;Pan Shilie;Poeppelmeier, K.R.;Li Hongyi;Jia Dianzeng;Chen 
Zhaohui;Fan Xiaojun;Yang Yun;Rondinelli, J.M.;Luo Haosu
;
_cell_length_a                     10.0624(14)
_cell_length_b                     10.0624(14)
_cell_length_c                     8.8361(18)
_cell_angle_alpha                  90.00
_cell_angle_beta                   90.00
_cell_angle_gamma                  120.00
_cell_volume                       774.81
_cell_formula_units_Z              3
_symmetry_space_group_name_H-M     'R 3 m H'
_symmetry_Int_Tables_number        160
_refine_ls_R_factor_all            .0138
loop_
_symmetry_equiv_pos_site_id
_symmetry_equiv_pos_as_xyz
  1	'-x+y, y, z'
  2	'x, x-y, z'
  3	'-y, -x, z'
  4	'-x+y, -x, z'
  5	'-y, x-y, z'
  6	'x, y, z'
  7	'-x+y+.6666, y+.3333, z+.3333'
  8	'-x+y+.3333, y+.6666, z+.6666'
  9	'x+.6666, x-y+.3333, z+.3333'
 10	'x+.3333, x-y+.6666, z+.6666'
 11	'-y+.6666, -x+.3333, z+.3333'
 12	'-y+.3333, -x+.6666, z+.6666'
 13	'-x+y+.6666, -x+.3333, z+.3333'
 14	'-x+y+.3333, -x+.6666, z+.6666'
 15	'-y+.6666, x-y+.3333, z+.3333'
 16	'-y+.3333, x-y+.6666, z+.6666'
 17	'x+.6666, y+.3333, z+.3333'
 18	'x+.3333, y+.6666, z+.6666'
loop_
_atom_type_symbol
_atom_type_oxidation_number
B3+	3
Cl1-	-1
K1+	1
O2-	-2
loop_
_atom_site_label
_atom_site_type_symbol
_atom_site_symmetry_multiplicity
_atom_site_Wyckoff_symbol
_atom_site_fract_x
_atom_site_fract_y
_atom_site_fract_z
_atom_site_occupancy
_atom_site_attached_hydrogens
_atom_site_U_iso_or_equiv
K1 K1+ 9 b -0.17954(2) 0.17954(2) 0.56270(2) 1 0 0.00964(12) 
Cl1 Cl1- 3 a 0.0000 0.0000 0.44054(10) 1 0 0.01367(18) 
B1 B3+ 9 b -0.08739(11) 0.08739(11) 0.8987(2) 1 0 0.0043(4) 
B2 B3+ 9 b 0.15075(11) 0.3015(2) 0.7840(2) 1 0 0.0049(4) 
O1 O2- 18 c -0.00079(10) 0.23426(10) 0.82039(10) 1 0 0.0058(2) 
O2 O2- 9 b 0.22323(7) 0.44647(14) 0.72298(14) 1 0 0.0061(3) 
O3 O2- 3 a 0.0000 0.0000 0.8896(3) 1 0 0.0029(5) 

loop_
_atom_site_aniso_label
_atom_site_aniso_type_symbol
_atom_site_aniso_U_11
_atom_site_aniso_U_22
_atom_site_aniso_U_33
_atom_site_aniso_U_12
_atom_site_aniso_U_13
_atom_site_aniso_U_23
K1 K1+ 0.00770(17) 0.00770(17) 0.01002(19) 0.00124(19) -0.00206(10) 
0.00206(10)
Cl1 Cl1- 0.0126(2) 0.0126(2) 0.0158(4) 0.00629(12) 0.000 0.000
B1 B3+ 0.0044(6) 0.0044(6) 0.0052(8) 0.0030(7) 0.0004(3) -0.0004(3)
B2 B3+ 0.0064(7) 0.0051(10) 0.0029(7) 0.0025(5) -0.0005(4) -0.0010(7)
O1 O2- 0.0054(4) 0.0047(4) 0.0077(4) 0.0027(4) 0.0008(3) 0.0016(3)
O2 O2- 0.0072(4) 0.0047(6) 0.0056(6) 0.0024(3) 0.0006(2) 0.0013(5)
O3 O2- 0.0024(7) 0.0024(7) 0.0041(9) 0.0012(4) 0.000 0.000
#End of data_262005-ICSD


