data_22023-ICSD
#?2014 by Fachinformationszentrum Karlsruhe, and the U.S. Secretary of 
#Commerce on behalf of the United States.  All rights reserved.
_database_code_ICSD                22023
_audit_creation_date               1980/01/01
_audit_update_record               1999/06/02
_chemical_name_systematic          'Calcium Tecto-dialumodisilicate'
_chemical_formula_structural       'Ca Al2 (Si O4)2'
_chemical_formula_sum              'Al2 Ca1 O8 Si2'
_chemical_name_mineral             Anorthite
_publ_section_title
;
The anorthite crystal structure at 410 and 830 degrees C
;
loop_
_citation_id
_citation_journal_abbrev
_citation_year
_citation_journal_volume
_citation_page_first
_citation_page_last
_citation_journal_id_ASTM
primary 'American Mineralogist' 1973 58 665 675 AMMIAY
_publ_author_name                  'Foit, F.F.jr.;Peacor, D.R.'
_cell_length_a                     8.223(4)
_cell_length_b                     12.915(4)
_cell_length_c                     14.204(7)
_cell_angle_alpha                  92.75(2)
_cell_angle_beta                   115.80(2)
_cell_angle_gamma                  91.02(2)
_cell_volume                       1355.28
_cell_formula_units_Z              8
_symmetry_space_group_name_H-M     'P -1'
_symmetry_Int_Tables_number        2
_refine_ls_R_factor_all            .104
loop_
_symmetry_equiv_pos_site_id
_symmetry_equiv_pos_as_xyz
  1	'-x, -y, -z'
  2	'x, y, z'
loop_
_atom_type_symbol
_atom_type_oxidation_number
Al3+	3
Ca2+	2
O2-	-2
Si4+	4
loop_
_atom_site_label
_atom_site_type_symbol
_atom_site_symmetry_multiplicity
_atom_site_Wyckoff_symbol
_atom_site_fract_x
_atom_site_fract_y
_atom_site_fract_z
_atom_site_occupancy
_atom_site_attached_hydrogens
_atom_site_B_iso_or_equiv
Ca1 Ca2+ 2 i 0.2704(11) 0.9831(5) 0.0843(5) 1. 0 4.4(1) 
Ca2 Ca2+ 2 i 0.2756(9) 0.0325(4) 0.5468(4) 1. 0 2.73(8) 
Ca3 Ca2+ 2 i 0.7737(8) 0.5294(3) 0.5488(3) 1. 0 2.68(8) 
Ca4 Ca2+ 2 i 0.7640(9) 0.5053(4) 0.0869(4) 1. 0 2.73(8) 
Si1 Si4+ 2 i 0.0144(14) 0.1556(6) 0.1087(6) 1. 0 1.3(1) 
Si2 Si4+ 2 i 0.5011(14) 0.6672(6) 0.6002(6) 1. 0 1.4(1) 
Si3 Si4+ 2 i 0.9994(18) 0.8104(6) 0.6119(6) 1. 0 1.7(1) 
Si4 Si4+ 2 i 0.5063(15) 0.3234(5) 0.1105(7) 1. 0 1.0(1) 
Si5 Si4+ 2 i 0.6742(16) 0.1087(6) 0.6658(6) 1. 0 1.3(1) 
Si6 Si4+ 2 i 0.1842(15) 0.6037(6) 0.1535(6) 1. 0 1.2(1) 
Si7 Si4+ 2 i 0.6763(16) 0.8820(6) 0.1864(5) 1. 0 1.2(1) 
Si8 Si4+ 2 i 0.1814(16) 0.3815(7) 0.6735(6) 1. 0 1.3(1) 
Al1 Al3+ 2 i 0.0053(16) 0.1586(5) 0.6099(8) 1. 0 1.5(1) 
Al2 Al3+ 2 i 0.5001(13) 0.6735(5) 0.1150(6) 1. 0 0.8(1) 
Al3 Al3+ 2 i 0.9958(20) 0.8088(7) 0.119(1) 1. 0 1.6(1) 
Al4 Al3+ 2 i 0.5051(17) 0.3217(5) 0.6199(8) 1. 0 1.0(1) 
Al5 Al3+ 2 i 0.694(2) 0.1173(9) 0.1543(7) 1. 0 2.2(2) 
Al6 Al3+ 2 i 0.1911(14) 0.6130(6) 0.6674(5) 1. 0 0.7(1) 
Al7 Al3+ 2 i 0.6881(20) 0.8725(8) 0.6726(7) 1. 0 1.2(1) 
Al8 Al3+ 2 i 0.1857(23) 0.3790(9) 0.1819(9) 1. 0 1.8(2) 
O1 O2- 2 i 0.0102(21) 0.1413(7) 0.9929(9) 1. 0 1.0(2) 
O2 O2- 2 i 0.9678(24) 0.1276(14) 0.4843(14) 1. 0 2.4(3) 
O3 O2- 2 i 0.4993(27) 0.6122(10) 0.4892(12) 1. 0 1.8(2) 
O4 O2- 2 i 0.5247(21) 0.6269(11) 0.9986(11) 1. 0 1.2(2) 
O5 O2- 2 i 0.5817(21) 0.9948(9) 0.1556(9) 1. 0 1.2(2) 
O6 O2- 2 i 0.5775(23) 0.9898(10) 0.6503(11) 1. 0 1.8(3) 
O7 O2- 2 i 0.0822(19) 0.4886(8) 0.6282(8) 1. 0 1.2(2) 
O8 O2- 2 i 0.0789(18) 0.4919(8) 0.1276(8) 1. 0 1.0(2) 
O9 O2- 2 i 0.8046(32) 0.1144(13) 0.0866(15) 1. 0 2.6(3) 
O10 O2- 2 i 0.8133(33) 0.1045(16) 0.6110(12) 1. 0 2.8(3) 
O11 O2- 2 i 0.3403(27) 0.5955(12) 0.5994(13) 1. 0 2.0(2) 
O12 O2- 2 i 0.2943(27) 0.6064(14) 0.0851(10) 1. 0 1.8(3) 
O13 O2- 2 i 0.8008(38) 0.8460(14) 0.1255(20) 1. 0 3.5(4) 
O14 O2- 2 i 0.8142(23) 0.8556(11) 0.6015(9) 1. 0 1.6(2) 
O15 O2- 2 i 0.3166(38) 0.3706(14) 0.627(2) 1. 0 3.6(3) 
O16 O2- 2 i 0.3402(33) 0.3569(17) 0.1319(13) 1. 0 3.7(4) 
O17 O2- 2 i 0.0365(29) 0.2757(14) 0.1515(13) 1. 0 3.0(3) 
O18 O2- 2 i 0.0108(32) 0.2952(16) 0.6342(11) 1. 0 2.1(3) 
O19 O2- 2 i 0.5017(22) 0.7873(11) 0.6226(10) 1. 0 1.5(2) 
O20 O2- 2 i 0.5210(33) 0.7967(15) 0.1572(12) 1. 0 2.2(3) 
O21 O2- 2 i 0.0021(31) 0.6780(13) 0.1187(13) 1. 0 1.8(3) 
O22 O2- 2 i 0.0114(26) 0.6944(11) 0.6146(10) 1. 0 1.3(2) 
O23 O2- 2 i 0.5222(35) 0.1861(15) 0.6020(15) 1. 0 2.4(3) 
O24 O2- 2 i 0.5060(31) 0.1881(14) 0.0918(12) 1. 0 2.3(3) 
O25 O2- 2 i 0.1771(38) 0.1053(17) 0.1930(17) 1. 0 2.5(3) 
O26 O2- 2 i 0.2004(31) 0.1226(12) 0.6962(15) 1. 0 2.9(3) 
O27 O2- 2 i 0.7009(34) 0.6093(15) 0.6812(14) 1. 0 1.8(3) 
O28 O2- 2 i 0.6996(23) 0.5954(8) 0.1918(11) 1. 0 1.2(2) 
O29 O2- 2 i 0.1981(28) 0.8832(12) 0.2076(13) 1. 0 2.6(3) 
O30 O2- 2 i 0.1655(35) 0.8639(17) 0.7176(17) 1. 0 3.9(4) 
O31 O2- 2 i 0.6880(26) 0.3604(11) 0.7240(12) 1. 0 2.1(2) 
O32 O2- 2 i 0.7034(26) 0.3621(11) 0.2023(11) 1. 0 1.7(2) 

#End of data_22023-ICSD


