data_20806-ICSD
#?2014 by Fachinformationszentrum Karlsruhe, and the U.S. Secretary of 
#Commerce on behalf of the United States.  All rights reserved.
_database_code_ICSD                20806
_audit_creation_date               1984/11/20
_audit_update_record               2010/02/01
_chemical_name_systematic
;
Potassium Tetrairon Tris(phosphate(V))
;
_chemical_formula_structural       'K Fe4 (P O4)3'
_chemical_formula_sum              'Fe4 K1 O12 P3'
_publ_section_title
;
The crystal structure of K, Fe-orthophosphate K Fe4(P O4)3
;
loop_
_citation_id
_citation_journal_abbrev
_citation_year
_citation_journal_volume
_citation_page_first
_citation_page_last
_citation_journal_id_ASTM
primary 'Doklady Akademii Nauk SSSR' 1981 259 591 595 DANKAS
_publ_author_name
;
Matvienko, E.N.;Yakubovich, O.V.;Simonov, M.A.;Belov, N.V.
;
_cell_length_a                     6.273(3)
_cell_length_b                     16.513(8)
_cell_length_c                     9.808(4)
_cell_angle_alpha                  90.
_cell_angle_beta                   90.
_cell_angle_gamma                  90.
_cell_volume                       1015.97
_cell_formula_units_Z              4
_symmetry_space_group_name_H-M     'P m n n'
_symmetry_Int_Tables_number        58
_refine_ls_R_factor_all            .041
loop_
_symmetry_equiv_pos_site_id
_symmetry_equiv_pos_as_xyz
  1	'x+.5, -y+.5, z+.5'
  2	'x+.5, y+.5, -z+.5'
  3	'-x, y, z'
  4	'-x, -y, -z'
  5	'-x+.5, y+.5, -z+.5'
  6	'-x+.5, -y+.5, z+.5'
  7	'x, -y, -z'
  8	'x, y, z'
loop_
_atom_type_symbol
_atom_type_oxidation_number
Fe2+	2
K1+	1
O2-	-2
P5+	5
loop_
_atom_site_label
_atom_site_type_symbol
_atom_site_symmetry_multiplicity
_atom_site_Wyckoff_symbol
_atom_site_fract_x
_atom_site_fract_y
_atom_site_fract_z
_atom_site_occupancy
_atom_site_attached_hydrogens
Fe1 Fe2+ 4 g 0 0.09438(9) 0.5384(1) 1. 0 
Fe2 Fe2+ 4 g 0 0.13772(9) 0.9819(2) 1. 0 
Fe3 Fe2+ 8 h 0.2516(2) 0.20420(6) 0.2510(1) 1. 0 
P1 P5+ 4 g 0.5 0.1662(2) 0.5430(3) 1. 0 
P2 P5+ 4 g 0.5 0.2151(2) 0.9584(2) 1. 0 
P3 P5+ 4 g 0 0.0373(1) 0.2132(2) 1. 0 
K1 K1+ 4 g 0.5 0.0315(1) 0.7912(3) 1. 0 
O1 O2- 4 g 0.5 0.1802(4) 0.3866(7) 1. 0 
O2 O2- 4 g 0.5 0.2225(4) 0.1151(7) 1. 0 
O3 O2- 8 h 0.3029(8) 0.1207(3) 0.5870(4) 1. 0 
O4 O2- 4 g 0 0.1965(4) 0.3960(7) 1. 0 
O5 O2- 4 g 0.5 0.2526(4) 0.6139(7) 1. 0 
O6 O2- 4 g 0 0.0437(4) 0.8564(7) 1. 0 
O7 O2- 8 h 0.1944(8) 0.0886(3) 0.1688(5) 1. 0 
O8 O2- 8 h 0.7013(8) 0.1755(3) 0.9048(4) 1. 0 
O9 O2- 4 g 0 0.0219(4) 0.3681(7) 1. 0 

loop_
_atom_site_aniso_label
_atom_site_aniso_type_symbol
_atom_site_aniso_B_11
_atom_site_aniso_B_22
_atom_site_aniso_B_33
_atom_site_aniso_B_12
_atom_site_aniso_B_13
_atom_site_aniso_B_23
Fe1 Fe2+ 0.48(5) 0.49(5) 0.65(5) 0 0 0.02(4)
Fe2 Fe2+ 0.64(6) 0.57(5) 0.62(5) 0 0 -.12(4)
Fe3 Fe2+ 0.55(3) 1.01(3) 0.56(2) -.06(4) 0.05(3) 0.05(3)
P1 P5+ 0.71(11) 0.56(9) 0.45(8) 0 0 -.09(7)
P2 P5+ 0.48(9) 0.62(9) 0.34(8) 0 0 -.04(7)
P3 P5+ 0.89(9) 0.33(8) 0.56(8) 0 0 0.00(7)
K1 K1+ 1.5(1) 1.26(9) 2.65(11) 0 0 0.72(8)
O1 O2- 1.2(3) 1.0(3) 0.6(2) 0 0 0.0(2)
O2 O2- 0.8(3) 1.2(3) 0.4(2) 0 0 0.2(2)
O3 O2- 0.6(2) 1.1(2) 1.0(2) -.3(2) 0.1(2) 0.2(1)
O4 O2- 1.6(3) 0.2(2) 0.5(2) 0 0 0.0(2)
O5 O2- 1.0(3) 0.6(3) 0.8(3) 0 0 -.5(2)
O6 O2- 3.0(4) 1.1(3) 0.9(3) 0 0 -.6(2)
O7 O2- 1.2(2) 0.9(2) 1.6(2) -.2(2) 0.5(2) 0.1(2)
O8 O2- 0.5(2) 1.5(2) 0.9(2) 0.3(2) 0.2(2) -.4(1)
O9 O2- 3.1(4) 0.5(2) 0.3(2) 0 0 0.0(2)
#End of data_20806-ICSD


