data_424411-ICSD
#?2014 by Fachinformationszentrum Karlsruhe, and the U.S. Secretary of 
#Commerce on behalf of the United States.  All rights reserved.
_database_code_ICSD                424411
_audit_creation_date               2013/02/01
_chemical_name_systematic
;
Ruthenium(I) Bismuth Bromide Aluminium Chloride (2/14/4/4/16)
;
_chemical_formula_structural       '(Ru2 Bi14 Br4) (Al Cl4)4'
_chemical_formula_sum              'Al4 Bi14 Br4 Cl16 Ru2'
_publ_section_title
;
[Ru2 Bi14 Br4] (Al Cl4)4 by mobilization and reorganization of 
complex clusters in ionic liquids
;
loop_
_citation_id
_citation_journal_abbrev
_citation_year
_citation_journal_volume
_citation_journal_issue
_citation_page_first
_citation_page_last
_citation_journal_id_ASTM
primary 'Chemistry - A European Journal' 2012 18 35 10886 10891 CEUJED
_publ_author_name                  'Groh, M.F.;Isaeva, A.;Ruck, M.'
_cell_length_a                     9.828(2)
_cell_length_b                     17.932(4)
_cell_length_c                     14.720(3)
_cell_angle_alpha                  90.
_cell_angle_beta                   109.05(3)
_cell_angle_gamma                  90.
_cell_volume                       2452.12
_cell_formula_units_Z              2
_symmetry_space_group_name_H-M     'P 1 21/n 1'
_symmetry_Int_Tables_number        14
_refine_ls_R_factor_all            .0667
loop_
_symmetry_equiv_pos_site_id
_symmetry_equiv_pos_as_xyz
  1	'-x+.5, y+.5, -z+.5'
  2	'-x, -y, -z'
  3	'x+.5, -y+.5, z+.5'
  4	'x, y, z'
loop_
_atom_type_symbol
_atom_type_oxidation_number
Al3+	3
Bi.43+	.43
Br1-	-1
Cl1-	-1
Ru1+	1
loop_
_atom_site_label
_atom_site_type_symbol
_atom_site_symmetry_multiplicity
_atom_site_Wyckoff_symbol
_atom_site_fract_x
_atom_site_fract_y
_atom_site_fract_z
_atom_site_occupancy
_atom_site_attached_hydrogens
_atom_site_U_iso_or_equiv
Ru1 Ru1+ 4 e 0.4213(3) 0.53354(10) 0.41038(17) 1 0 0.0366(6) 
Bi1 Bi.43+ 4 e 0.32262(15) 0.40343(5) 0.46972(9) 1 0 0.0447(3) 
Bi2 Bi.43+ 4 e 0.63743(16) 0.42801(6) 0.42367(9) 1 0 0.0446(3) 
Bi3 Bi.43+ 4 e 0.3434(2) 0.68391(6) 0.35831(11) 1 0 0.0632(5) 
Bi4 Bi.43+ 4 e 0.52896(19) 0.59520(8) 0.26434(11) 1 0 0.0637(4) 
Bi5 Bi.43+ 4 e 0.31073(18) 0.46878(6) 0.22203(10) 1 0 0.0579(4) 
Bi6 Bi.43+ 4 e 0.12048(18) 0.55712(8) 0.31289(12) 1 0 0.0620(4) 
Bi7 Bi.43+ 4 e 0.20010(18) 0.62893(7) 0.14399(10) 1 0 0.0569(4) 
Br1 Br1- 4 e 0.4296(5) 0.30205(16) 0.3526(3) 1 0 0.0681(12) 
Br2 Br1- 4 e 0.8492(5) 0.5406(2) 0.4120(3) 1 0 0.0760(13) 
Al1 Al3+ 4 e 0.1964(15) 0.8207(5) 0.5558(8) 1 0 0.059(3) 
Al2 Al3+ 4 e 0.6679(13) 0.8686(5) 0.3445(8) 1 0 0.052(3) 
Cl1 Cl1- 4 e 0.0364(12) 0.9041(5) 0.5360(7) 1 0 0.072(3) 
Cl2 Cl1- 4 e 0.3458(12) 0.8517(4) 0.4836(7) 1 0 0.066(3) 
Cl3 Cl1- 4 e 0.3105(12) 0.8129(6) 0.7079(7) 1 0 0.070(3) 
Cl4 Cl1- 4 e 0.1061(12) 0.7163(4) 0.4961(8) 1 0 0.071(3) 
Cl5 Cl1- 4 e 0.7082(12) 0.7735(4) 0.4355(7) 1 0 0.063(3) 
Cl6 Cl1- 4 e 0.6278(11) 0.9616(4) 0.4243(8) 1 0 0.066(3) 
Cl7 Cl1- 4 e 0.8424(16) 0.8923(7) 0.2951(9) 1 0 0.093(4) 
Cl8 Cl1- 4 e 0.4766(16) 0.8472(6) 0.2274(10) 1 0 0.098(4) 

loop_
_atom_site_aniso_label
_atom_site_aniso_type_symbol
_atom_site_aniso_U_11
_atom_site_aniso_U_22
_atom_site_aniso_U_33
_atom_site_aniso_U_12
_atom_site_aniso_U_13
_atom_site_aniso_U_23
Ru1 Ru1+ 0.0452(18) 0.0310(9) 0.0321(12) 0.0011(9) 0.0105(12) 0.0004(8)
Bi1 Bi.43+ 0.0468(9) 0.0386(5) 0.0444(7) -0.0077(5) 0.0088(6) 0.0035(4)
Bi2 Bi.43+ 0.0497(10) 0.0456(5) 0.0401(6) 0.0104(5) 0.0170(6) 0.0000(4)
Bi3 Bi.43+ 0.0923(14) 0.0339(5) 0.0527(8) 0.0067(6) 0.0094(8) -0.0012(5)
Bi4 Bi.43+ 0.0516(12) 0.0867(9) 0.0576(9) -0.0050(8) 0.0245(8) 0.0175(7)
Bi5 Bi.43+ 0.0754(12) 0.0430(6) 0.0450(7) 0.0063(6) 0.0053(7) -0.0083(5)
Bi6 Bi.43+ 0.0422(11) 0.0832(9) 0.0627(9) 0.0062(7) 0.0199(8) 0.0135(7)
Bi7 Bi.43+ 0.0644(12) 0.0551(6) 0.0447(7) 0.0089(6) 0.0091(7) 0.0096(5)
Br1 Br1- 0.086(4) 0.0398(14) 0.079(3) -0.0024(16) 0.029(3) -0.0133(15)
Br2 Br1- 0.056(4) 0.099(3) 0.082(3) 0.001(2) 0.035(3) 0.013(2)
Al1 Al3+ 0.074(10) 0.049(5) 0.061(7) 0.012(5) 0.034(7) 0.000(4)
Al2 Al3+ 0.047(8) 0.048(5) 0.050(6) -0.006(4) 0.004(6) 0.003(4)
Cl1 Cl1- 0.062(8) 0.077(5) 0.067(6) 0.033(5) 0.007(6) -0.002(5)
Cl2 Cl1- 0.074(9) 0.063(5) 0.067(6) 0.012(5) 0.032(6) 0.007(4)
Cl3 Cl1- 0.049(8) 0.102(7) 0.052(6) 0.021(5) 0.006(5) 0.003(5)
Cl4 Cl1- 0.062(8) 0.044(4) 0.101(8) 0.002(4) 0.019(6) -0.022(4)
Cl5 Cl1- 0.073(8) 0.051(4) 0.071(6) 0.001(4) 0.033(6) 0.013(4)
Cl6 Cl1- 0.046(7) 0.060(4) 0.080(7) 0.010(4) 0.004(5) -0.010(4)
Cl7 Cl1- 0.111(12) 0.117(8) 0.066(7) -0.019(8) 0.050(8) 0.008(6)
Cl8 Cl1- 0.084(11) 0.101(8) 0.080(8) 0.014(7) -0.013(8) 0.002(6)
#End of data_424411-ICSD


