data_47243-ICSD
#?2014 by Fachinformationszentrum Karlsruhe, and the U.S. Secretary of 
#Commerce on behalf of the United States.  All rights reserved.
_database_code_ICSD                47243
_audit_creation_date               1999/06/02
_audit_update_record               2005/10/01
_chemical_name_systematic          'Dipotassium Hexafluorohafnate'
_chemical_formula_structural       'K2 (Hf F6)'
_chemical_formula_sum              'F6 Hf1 K2'
_chemical_name_mineral             'Elpasolite (K-,Hf-exchanged)'
_publ_section_title                'The polymorphism of K2 Hf F6.'
loop_
_citation_id
_citation_journal_abbrev
_citation_year
_citation_journal_volume
_citation_page_first
_citation_page_last
_citation_journal_id_ASTM
primary 'Neues Jahrbuch fuer Mineralogie. Abhandlungen (Band-Nr) (1950-)'
 1983 146 29 40 NJMIAK
2 'Golden Book of Phase Transitions, Wroclaw' 2002 1 1 123 GBOPT5
_publ_author_name                  'Saalfeld, H.;Guse, W.'
_cell_length_a                     6.29(8)
_cell_length_b                     6.29(8)
_cell_length_c                     9.27(4)
_cell_angle_alpha                  90.
_cell_angle_beta                   90.
_cell_angle_gamma                  90.
_cell_volume                       366.76
_cell_formula_units_Z              2
_symmetry_space_group_name_H-M     'P 4/m n c'
_symmetry_Int_Tables_number        128
loop_
_symmetry_equiv_pos_site_id
_symmetry_equiv_pos_as_xyz
  1	'y+.5, x+.5, -z+.5'
  2	'-y+.5, -x+.5, -z+.5'
  3	'-y, x, -z'
  4	'y, -x, -z'
  5	'x+.5, -y+.5, -z+.5'
  6	'-x+.5, y+.5, -z+.5'
  7	'x, y, -z'
  8	'-x, -y, -z'
  9	'-y+.5, -x+.5, z+.5'
 10	'y+.5, x+.5, z+.5'
 11	'y, -x, z'
 12	'-y, x, z'
 13	'-x+.5, y+.5, z+.5'
 14	'x+.5, -y+.5, z+.5'
 15	'-x, -y, z'
 16	'x, y, z'
loop_
_atom_type_symbol
_atom_type_oxidation_number
F1-	-1
Hf4+	4
K1+	1
loop_
_atom_site_label
_atom_site_type_symbol
_atom_site_symmetry_multiplicity
_atom_site_Wyckoff_symbol
_atom_site_fract_x
_atom_site_fract_y
_atom_site_fract_z
_atom_site_occupancy
_atom_site_attached_hydrogens
K1 K1+ 4 d 0 0.5 0.25 1. 0 
Hf1 Hf4+ 2 a 0 0 0 1. 0 
F1 F1- 4 e 0 0 0.215 1. 0 
F2 F1- 8 h 0.28 0.145 0 1. 0 

#End of data_47243-ICSD


