data_421513-ICSD
#?2014 by Fachinformationszentrum Karlsruhe, and the U.S. Secretary of 
#Commerce on behalf of the United States.  All rights reserved.
_database_code_ICSD                421513
_audit_creation_date               2010/08/01
_chemical_name_systematic
;
Potassium Hexamanganoheptaarsenate(V)
;
_chemical_formula_structural       'K (Mn6 As7 O24)'
_chemical_formula_sum              'As7 K1 Mn6 O24'
_publ_section_title                'Potassium manganese heptaarsenate'
loop_
_citation_id
_citation_journal_abbrev
_citation_year
_citation_journal_volume
_citation_journal_issue
_citation_page_first
_citation_page_last
_citation_journal_id_ASTM
primary 'Private Communication' 2010 1 2 1 1 PRICO6
_publ_author_name                  'Frigui, W.'
_cell_length_a                     5.536(2)
_cell_length_b                     27.730(8)
_cell_length_c                     6.830(5)
_cell_angle_alpha                  90
_cell_angle_beta                   107.381(5)
_cell_angle_gamma                  90
_cell_volume                       1000.62
_cell_formula_units_Z              2
_symmetry_space_group_name_H-M     'P 1 21/m 1'
_symmetry_Int_Tables_number        11
_refine_ls_R_factor_all            .0288
loop_
_symmetry_equiv_pos_site_id
_symmetry_equiv_pos_as_xyz
  1	'x, -y+.5, z'
  2	'-x, -y, -z'
  3	'-x, y+.5, -z'
  4	'x, y, z'
loop_
_atom_type_symbol
_atom_type_oxidation_number
As5+	5
K1+	1
Mn2+	2
O2-	-2
loop_
_atom_site_label
_atom_site_type_symbol
_atom_site_symmetry_multiplicity
_atom_site_Wyckoff_symbol
_atom_site_fract_x
_atom_site_fract_y
_atom_site_fract_z
_atom_site_occupancy
_atom_site_attached_hydrogens
_atom_site_U_iso_or_equiv
As1 As5+ 4 f 0.22631(9) 0.023354(18) 0.80336(7) 1 0 0.00280(13) 
As2 As5+ 2 e -0.03090(14) 0.25 -0.06052(11) 1 0 0.00376(17) 
As3 As5+ 4 f 0.27086(10) 0.164435(18) 0.22868(7) 1 0 0.00348(13) 
As4 As5+ 4 f -0.18472(10) 0.113607(18) 0.62493(7) 1 0 0.00375(14) 
Mn1 Mn2+ 4 f 0.31683(15) 0.04336(3) 0.32187(11) 1 0 0.00514(18) 
Mn2 Mn2+ 4 f 0.71615(15) 0.09852(3) 0.09973(11) 1 0 0.00518(18) 
Mn3 Mn2+ 4 f 0.39031(15) 0.18492(3) 0.75129(11) 1 0 0.00535(18) 
K1 K1+ 2 e 0.8018(4) 0.25 0.4122(3) 1 0 0.0151(4) 
O1 O2- 4 f 0.0028(7) 0.20141(13) 0.1036(6) 1 0 0.0105(8) 
O2 O2- 4 f 0.0158(8) 0.15775(15) 0.6262(6) 1 0 0.0158(9) 
O3 O2- 4 f 0.3902(7) 0.01992(13) 0.6335(5) 1 0 0.0076(7) 
O4 O2- 4 f 0.0807(7) -0.02814(13) 0.8261(5) 1 0 0.0072(7) 
O5 O2- 4 f -0.0371(9) 0.05907(16) 0.7023(7) 1 0 0.0252(11) 
O6 O2- 2 e 0.1847(10) 0.25 0.8125(8) 1 0 0.0070(10) 
O7 O2- 4 f 0.3934(7) 0.04812(13) 0.0263(5) 1 0 0.0075(7) 
O8 O2- 4 f 0.1109(7) 0.11392(12) 0.2388(6) 1 0 0.0072(7) 
O9 O2- 4 f 0.6253(7) 0.09848(13) 0.3909(5) 1 0 0.0067(7) 
O10 O2- 4 f 0.4512(7) 0.16374(14) 0.0706(5) 1 0 0.0083(8) 
O11 O2- 2 e 0.6657(10) 0.25 0.8004(8) 1 0 0.0075(11) 
O12 O2- 4 f 0.4070(7) 0.19353(13) 0.4451(5) 1 0 0.0085(8) 
O13 O2- 4 f 0.6503(7) 0.12350(13) 0.7920(5) 1 0 0.0084(8) 

loop_
_atom_site_aniso_label
_atom_site_aniso_type_symbol
_atom_site_aniso_U_11
_atom_site_aniso_U_22
_atom_site_aniso_U_33
_atom_site_aniso_U_12
_atom_site_aniso_U_13
_atom_site_aniso_U_23
As1 As5+ 0.0027(3) 0.0031(3) 0.0033(2) 0.00001(19) 0.00195(19) -0.00013(18)
As2 As5+ 0.0027(3) 0.0046(3) 0.0051(3) 0 0.0028(3) 0
As3 As5+ 0.0047(3) 0.0036(3) 0.0036(2) -0.00087(19) 0.00341(19) 
-0.00032(17)
As4 As5+ 0.0030(3) 0.0056(3) 0.0032(2) 0.00022(19) 0.00187(19) -0.00086(17)
Mn1 Mn2+ 0.0050(4) 0.0068(4) 0.0047(4) 0.0000(3) 0.0031(3) 0.0008(3)
Mn2 Mn2+ 0.0042(4) 0.0069(4) 0.0054(4) -0.0002(3) 0.0030(3) 0.0010(3)
Mn3 Mn2+ 0.0061(4) 0.0061(4) 0.0055(4) 0.0010(3) 0.0041(3) 0.0009(3)
K1 K1+ 0.0167(9) 0.0181(9) 0.0124(8) 0 0.0073(7) 0
O1 O2- 0.0082(19) 0.0084(19) 0.0170(19) 0.0033(15) 0.0071(16) 0.0065(15)
O2 O2- 0.013(2) 0.019(2) 0.015(2) -0.0102(17) 0.0042(17) -0.0019(17)
O3 O2- 0.0113(18) 0.0099(19) 0.0031(16) 0.0007(15) 0.0045(14) 0.0010(13)
O4 O2- 0.0056(18) 0.0034(17) 0.0127(18) -0.0035(14) 0.0029(15) -0.0003(14)
O5 O2- 0.017(2) 0.013(2) 0.037(3) 0.0135(18) -0.003(2) 0.0041(19)
O6 O2- 0.008(3) 0.007(3) 0.011(3) 0 0.009(2) 0
O7 O2- 0.0082(18) 0.0139(19) 0.0020(16) -0.0058(15) 0.0036(14) -0.0020(14)
O8 O2- 0.0061(18) 0.0043(18) 0.0116(18) -0.0004(14) 0.0031(15) 0.0005(14)
O9 O2- 0.0053(18) 0.0098(19) 0.0041(16) -0.0016(14) -0.0002(14) 0.0002(14)
O10 O2- 0.0086(19) 0.014(2) 0.0047(16) 0.0032(15) 0.0061(15) 0.0040(14)
O11 O2- 0.005(3) 0.009(3) 0.010(3) 0 0.005(2) 0
O12 O2- 0.0106(19) 0.0104(19) 0.0054(16) -0.0053(15) 0.0040(14) -0.0044(14)
O13 O2- 0.0130(19) 0.0090(19) 0.0055(17) 0.0035(15) 0.0064(15) 0.0019(14)
#End of data_421513-ICSD


