data_414010-ICSD
#?2014 by Fachinformationszentrum Karlsruhe, and the U.S. Secretary of 
#Commerce on behalf of the United States.  All rights reserved.
_database_code_ICSD                414010
_audit_creation_date               2005/10/01
_chemical_name_systematic
;
Octasodium-hexaselenoborato-closo-dodecaborate
;
_chemical_formula_structural       'Na8 (B12 (B Se3)6)'
_chemical_formula_sum              'B18 Na8 Se18'
_publ_section_title
;
Na8 (B12 (B Se3)6): A novel selenoborato-closo-dodecaborate
;
loop_
_citation_id
_citation_journal_abbrev
_citation_year
_citation_journal_volume
_citation_page_first
_citation_page_last
_citation_journal_id_ASTM
primary 'Zeitschrift fuer Anorganische und Allgemeine Chemie (1950) (DE)'
 2004 630 2299 2303 ZAACAB
_publ_author_name
;
Hammerschmidt, A.;Doech, M.;Puetz, S.;Krebs, B.
;
_cell_length_a                     10.9902(6)
_cell_length_b                     16.2789(9)
_cell_length_c                     11.4889(6)
_cell_angle_alpha                  90.
_cell_angle_beta                   117.8210(10)
_cell_angle_gamma                  90.
_cell_volume                       1817.87
_cell_formula_units_Z              2
_symmetry_space_group_name_H-M     'P 1 21/c 1'
_symmetry_Int_Tables_number        14
_refine_ls_R_factor_all            .0328
loop_
_symmetry_equiv_pos_site_id
_symmetry_equiv_pos_as_xyz
  1	'x, -y+.5, z+.5'
  2	'-x, -y, -z'
  3	'-x, y+.5, -z+.5'
  4	'x, y, z'
loop_
_atom_type_symbol
_atom_type_oxidation_number
B1.5+	1.5
B1.56+	1.56
Na1+	1
Se2-	-2
loop_
_atom_site_label
_atom_site_type_symbol
_atom_site_symmetry_multiplicity
_atom_site_Wyckoff_symbol
_atom_site_fract_x
_atom_site_fract_y
_atom_site_fract_z
_atom_site_occupancy
_atom_site_attached_hydrogens
_atom_site_U_iso_or_equiv
Se1 Se2- 4 e 0.15870(4) 0.01572(2) 0.48290(4) 1 0 0.01947(8) 
Se2 Se2- 4 e 0.74080(4) 0.15803(2) 0.70948(3) 1 0 0.02094(8) 
Se3 Se2- 4 e 0.22363(4) 0.08852(2) 0.20077(4) 1 0 0.02487(9) 
Se4 Se2- 4 e 0.59422(4) 0.18631(2) 0.38042(3) 1 0 0.02015(8) 
Se5 Se2- 4 e 0.35022(4) 0.18958(2) 0.55145(4) 1 0 0.02195(9) 
Se6 Se2- 4 e 0.79686(4) 0.16724(2) 0.08314(4) 1 0 0.02503(9) 
Se7 Se2- 4 e 0.52100(4) 0.00564(2) 0.83019(3) 1 0 0.02036(8) 
Se8 Se2- 4 e 0.01913(4) 0.19643(2) 0.49536(4) 1 0 0.02637(9) 
Se9 Se2- 4 e 0.20481(4) 0.07647(2) 0.90027(4) 1 0 0.02674(9) 
Na1 Na1+ 4 e 0.03378(18) 0.87994(13) 0.04076(17) 1 0 0.0464(5) 
Na2 Na1+ 4 e 0.0653(2) 0.25864(12) 0.26427(18) 1 0 0.0536(5) 
Na3 Na1+ 4 e 0.5350(2) 0.84033(13) 0.0685(3) 1 0 0.0885(9) 
Na4 Na1+ 4 e 0.8132(3) 0.07699(14) 0.2942(2) 1 0 0.0704(7) 
B1 B1.56+ 4 e 0.3016(4) 0.0541(2) 0.0852(4) 1 0 0.0184(8) 
B2 B1.56+ 4 e 0.4399(4) 0.0898(2) 0.5266(4) 1 0 0.0150(7) 
B3 B1.5+ 4 e 0.3685(4) 0.0422(2) 0.3677(4) 1 0 0.0163(8) 
B4 B1.56+ 4 e 0.6560(4) 0.0018(2) 0.5040(4) 1 0 0.0155(8) 
B5 B1.56+ 4 e 0.5368(4) 0.0843(2) 0.4382(4) 1 0 0.0153(7) 
B6 B1.56+ 4 e 0.7190(4) 0.2256(2) 0.5596(4) 1 0 0.0193(8) 
B7 B1.56+ 4 e 0.6167(4) 0.0662(2) 0.6086(4) 1 0 0.0155(8) 
B8 B1.56+ 4 e 0.1747(4) 0.3642(2) 0.0128(4) 1 0 0.0183(8) 
B9 B1.56+ 4 e 0.5003(4) 0.0105(2) 0.6473(4) 1 0 0.0158(8) 

loop_
_atom_site_aniso_label
_atom_site_aniso_type_symbol
_atom_site_aniso_U_11
_atom_site_aniso_U_22
_atom_site_aniso_U_33
_atom_site_aniso_U_12
_atom_site_aniso_U_13
_atom_site_aniso_U_23
Se1 Se2- 0.01284(18) 0.02245(17) 0.02384(19) 0.00122(13) 0.00918(15) 
0.00224(14)
Se2 Se2- 0.01857(19) 0.02315(18) 0.01543(18) -0.00457(14) 0.00318(15) 
-0.00090(13)
Se3 Se2- 0.01660(19) 0.0385(2) 0.01588(18) 0.01138(16) 0.00456(15) 
0.00691(15)
Se4 Se2- 0.02036(19) 0.02074(17) 0.01715(18) -0.00280(14) 0.00691(15) 
0.00267(13)
Se5 Se2- 0.01803(19) 0.01855(17) 0.0291(2) 0.00152(14) 0.01088(16) 
-0.00235(14)
Se6 Se2- 0.0311(2) 0.01916(18) 0.0266(2) 0.00505(15) 0.01495(18) 
0.00385(14)
Se7 Se2- 0.01853(19) 0.02690(19) 0.01531(18) 0.00321(14) 0.00761(15) 
0.00092(14)
Se8 Se2- 0.0192(2) 0.0280(2) 0.0334(2) 0.00578(15) 0.01355(17) -0.00163(16)
Se9 Se2- 0.0284(2) 0.0317(2) 0.01510(18) 0.00849(16) 0.00598(16) 
0.00323(15)
Na1 Na1+ 0.0301(10) 0.0691(13) 0.0308(10) 0.0166(9) 0.0065(8) 0.0065(9)
Na2 Na1+ 0.0625(14) 0.0616(13) 0.0348(11) -0.0223(10) 0.0211(10) -0.0039(9)
Na3 Na1+ 0.0631(16) 0.0469(13) 0.176(3) -0.0230(11) 0.0732(19) -0.0420(15)
Na4 Na1+ 0.0915(18) 0.0730(15) 0.0390(12) -0.0280(13) 0.0241(12) 0.0169(10)
B1 B1.56+ 0.014(2) 0.0184(18) 0.016(2) -0.0021(15) 0.0020(16) -0.0011(15)
B2 B1.56+ 0.0129(18) 0.0156(17) 0.0130(18) 0.0022(14) 0.0030(15) 0.0001(14)
B3 B1.5+ 0.0124(19) 0.0203(18) 0.0120(18) 0.0009(15) 0.0023(15) 0.0024(14)
B4 B1.56+ 0.0112(18) 0.0178(18) 0.0157(19) 0.0008(14) 0.0046(15) 0.0003(14)
B5 B1.56+ 0.0126(19) 0.0185(18) 0.0151(19) -0.0001(14) 0.0066(16) 
-0.0003(14)
B6 B1.56+ 0.014(2) 0.0207(19) 0.024(2) 0.0008(15) 0.0088(17) 0.0002(16)
B7 B1.56+ 0.0098(18) 0.0215(19) 0.0127(18) 0.0013(15) 0.0032(15) 0.0021(14)
B8 B1.56+ 0.022(2) 0.0212(19) 0.0129(18) -0.0048(16) 0.0096(17) -0.0032(15)
B9 B1.56+ 0.015(2) 0.0174(18) 0.0126(18) -0.0002(15) 0.0046(16) 0.0004(14)
#End of data_414010-ICSD


