data_50951-ICSD
#?2014 by Fachinformationszentrum Karlsruhe, and the U.S. Secretary of 
#Commerce on behalf of the United States.  All rights reserved.
_database_code_ICSD                50951
_audit_creation_date               2000/12/16
_chemical_name_systematic
;
Lanthanum Lithium Nickel(III) Oxide (2/0.5/0.5/4)
;
_chemical_formula_structural       'La2 Li0.5 Ni0.5 O4'
_chemical_formula_sum              'La2 Li0.5 Ni0.5 O4'
_publ_section_title
;
Ordered K2 Ni F4 structure of the solids La2 Li1/2 M1/2 O4 (M(III) = 
Co, Ni, Cu) and the bonding poperties of the M O6 polyhedra in 
various compounds of this type
;
loop_
_citation_id
_citation_journal_abbrev
_citation_year
_citation_journal_volume
_citation_page_first
_citation_page_last
_citation_journal_id_ASTM
primary 'Journal of Solid State Chemistry' 1998 138 18 31 JSSCBI
_publ_author_name
;
Abou-Warda, S.;Pietzuch, W.;Berghoefer, G.;Kesper, U.;Massa, 
W.;Reinen, D.
;
_cell_length_a                     5.3099(2)
_cell_length_b                     5.3099(2)
_cell_length_c                     12.8871(1)
_cell_angle_alpha                  90.
_cell_angle_beta                   90.
_cell_angle_gamma                  90.
_cell_volume                       363.35
_cell_formula_units_Z              4
_symmetry_space_group_name_H-M     'A m m m'
_symmetry_Int_Tables_number        65
_refine_ls_R_factor_all            .071
loop_
_symmetry_equiv_pos_site_id
_symmetry_equiv_pos_as_xyz
  1	'x, -y, z'
  2	'x, y, -z'
  3	'-x, y, z'
  4	'-x, -y, -z'
  5	'-x, y, -z'
  6	'-x, -y, z'
  7	'x, -y, -z'
  8	'x, y, z'
  9	'x, -y+.5, z+.5'
 10	'x, y+.5, -z+.5'
 11	'-x, y+.5, z+.5'
 12	'-x, -y+.5, -z+.5'
 13	'-x, y+.5, -z+.5'
 14	'-x, -y+.5, z+.5'
 15	'x, -y+.5, -z+.5'
 16	'x, y+.5, z+.5'
loop_
_atom_type_symbol
_atom_type_oxidation_number
La3+	3
Li1+	1
Ni3+	3
O2-	-2
loop_
_atom_site_label
_atom_site_type_symbol
_atom_site_symmetry_multiplicity
_atom_site_Wyckoff_symbol
_atom_site_fract_x
_atom_site_fract_y
_atom_site_fract_z
_atom_site_occupancy
_atom_site_attached_hydrogens
_atom_site_U_iso_or_equiv
La1 La3+ 4 i 0 0 0.13664(4) 1. 0 0 
La2 La3+ 4 j 0.5 0 0.36398(4) 1. 0 0 
Li1 Li1+ 2 b 0 0 0.5 1. 0 0.0051(5) 
Ni1 Ni3+ 2 d 0.5 0 0 1. 0 0.0051(5) 
O1 O2- 8 o 0.2559(6) 0.2470(6) 0 1. 0 0.0055(3) 
O2 O2- 4 i 0 0 0.3218(7) 1. 0 0.0104(4) 
O3 O2- 4 j 0.5 0 0.1718(7) 1. 0 0.0072(3) 

loop_
_atom_site_aniso_label
_atom_site_aniso_type_symbol
_atom_site_aniso_U_11
_atom_site_aniso_U_22
_atom_site_aniso_U_33
_atom_site_aniso_U_12
_atom_site_aniso_U_13
_atom_site_aniso_U_23
La1 La3+ 0.0071(7) 0.0092(7) 0.0063(6) 0 0 0
La2 La3+ 0.0085(7) 0.0081(7) 0.0062(6) 0 0 0
#End of data_50951-ICSD


