data_184282-ICSD
#?2014 by Fachinformationszentrum Karlsruhe, and the U.S. Secretary of 
#Commerce on behalf of the United States.  All rights reserved.
_database_code_ICSD                184282
_audit_creation_date               2012/08/01
_chemical_name_systematic          'Potassium Dilead Pentachloride'
_chemical_formula_structural       'K Pb2 Cl5'
_chemical_formula_sum              'Cl5 K1 Pb2'
_publ_section_title
;
Analysis of spectra of neat and lanthanide ion-doped K Pb2 Cl5 
excited by synchrotron radiation
;
loop_
_citation_id
_citation_journal_abbrev
_citation_year
_citation_journal_volume
_citation_journal_issue
_citation_page_first
_citation_page_last
_citation_journal_id_ASTM
primary 'Physica Status Solidi B - Basic Solid State Physics'
 2012 249 3 581 587 PSSBBD
_publ_author_name
;
Tanner, P.A.;Jia Guohua;Cheng Benpei;Brik, M.G.
;
_cell_length_a                     8.917
_cell_length_b                     8.190
_cell_length_c                     12.797
_cell_angle_alpha                  90.
_cell_angle_beta                   89.09
_cell_angle_gamma                  90.
_cell_volume                       934.45
_cell_formula_units_Z              4
_symmetry_space_group_name_H-M     'P 1 21/c 1'
_symmetry_Int_Tables_number        14
loop_
_symmetry_equiv_pos_site_id
_symmetry_equiv_pos_as_xyz
  1	'x, -y+.5, z+.5'
  2	'-x, -y, -z'
  3	'-x, y+.5, -z+.5'
  4	'x, y, z'
loop_
_atom_type_symbol
_atom_type_oxidation_number
Cl1-	-1
K1+	1
Pb2+	2
loop_
_atom_site_label
_atom_site_type_symbol
_atom_site_symmetry_multiplicity
_atom_site_Wyckoff_symbol
_atom_site_fract_x
_atom_site_fract_y
_atom_site_fract_z
_atom_site_occupancy
_atom_site_attached_hydrogens
K1 K1+ 4 e 0.5111 0.0467 0.1724 1. 0 
Pb1 Pb2+ 4 e 0.0106 -0.009 0.1740 1. 0 
Pb2 Pb2+ 4 e 0.2563 0.4434 0.9946 1. 0 
Cl1 Cl1- 4 e 0.9646 0.1597 0.3949 1. 0 
Cl2 Cl1- 4 e 0.2150 0.0395 0.9940 1. 0 
Cl3 Cl1- 4 e 0.5400 0.1858 0.4257 1. 0 
Cl4 Cl1- 4 e 0.2372 0.3130 0.2111 1. 0 
Cl5 Cl1- 4 e 0.7647 0.3412 0.1906 1. 0 

#End of data_184282-ICSD


