data_66516-ICSD
#?2014 by Fachinformationszentrum Karlsruhe, and the U.S. Secretary of 
#Commerce on behalf of the United States.  All rights reserved.
_database_code_ICSD                66516
_audit_creation_date               1994/01/19
_chemical_name_systematic          'Diboron Dicalcium Oxide'
_chemical_formula_structural       'B2 Ca2 O5'
_chemical_formula_sum              'B2 Ca2 O5'
_publ_section_title                'Structure of 2CaO.B2O3'
loop_
_citation_id
_citation_journal_abbrev
_citation_year
_citation_journal_volume
_citation_page_first
_citation_page_last
_citation_journal_id_ASTM
primary 'Acta Crystallographica, Section C: Crystal Structure Communications'
 1993 49 78 79 ACSCEE
_publ_author_name
;
Ji, Y.;Liang, J.;Xie, S.;Zhu, N.;Li, Y.
;
_cell_length_a                     7.234(3)
_cell_length_b                     5.181(1)
_cell_length_c                     11.524(3)
_cell_angle_alpha                  90.
_cell_angle_beta                   92.94(3)
_cell_angle_gamma                  90.
_cell_volume                       431.34
_cell_formula_units_Z              4
_symmetry_space_group_name_H-M     'P 1 21/c 1'
_symmetry_Int_Tables_number        14
_refine_ls_R_factor_all            .0372
loop_
_symmetry_equiv_pos_site_id
_symmetry_equiv_pos_as_xyz
  1	'x, -y+.5, z+.5'
  2	'-x, -y, -z'
  3	'-x, y+.5, -z+.5'
  4	'x, y, z'
loop_
_atom_type_symbol
_atom_type_oxidation_number
B3+	3
Ca2+	2
O2-	-2
loop_
_atom_site_label
_atom_site_type_symbol
_atom_site_symmetry_multiplicity
_atom_site_Wyckoff_symbol
_atom_site_fract_x
_atom_site_fract_y
_atom_site_fract_z
_atom_site_occupancy
_atom_site_attached_hydrogens
Ca1 Ca2+ 4 e 0.6233(1) 0.1008(1) 0.3361(1) 1. 0 
Ca2 Ca2+ 4 e 0.8820(1) 0.5650(1) 0.1331(1) 1. 0 
O1 O2- 4 e 0.6084(2) 0.3069(3) 0.1417(1) 1. 0 
O2 O2- 4 e 0.6460(2) -.1447(3) 0.1572(1) 1. 0 
O3 O2- 4 e 0.0922(2) -.0802(3) 0.1747(1) 1. 0 
O4 O2- 4 e 0.1437(2) 0.3218(3) 0.0710(1) 1. 0 
O5 O2- 4 e 0.7276(3) 0.0917(3) -.0155(1) 1. 0 
B1 B3+ 4 e 0.6550(3) 0.0760(4) 0.0955(2) 1. 0 
B2 B3+ 4 e 0.1631(3) 0.0634(4) 0.0888(2) 1. 0 

loop_
_atom_site_aniso_label
_atom_site_aniso_type_symbol
_atom_site_aniso_U_11
_atom_site_aniso_U_22
_atom_site_aniso_U_33
_atom_site_aniso_U_12
_atom_site_aniso_U_13
_atom_site_aniso_U_23
Ca1 Ca2+ 0.0103(2) 0.0061(2) 0.0099(2) -.0002(1) 0.0013(1) -.0006(1)
Ca2 Ca2+ 0.0101(2) 0.0077(2) 0.0088(2) 0.0005(1) 0.0027(1) 0.0009(1)
O1 O2- 0.0149(5) 0.0073(5) 0.0154(6) 0.0016(4) 0.0039(4) -.0018(4)
O2 O2- 0.0138(5) 0.0068(5) 0.0124(5) 0.0003(4) 0.0043(4) 0.0015(4)
O3 O2- 0.0185(6) 0.0114(6) 0.0092(5) -.0038(4) 0.0041(4) 0.0006(4)
O4 O2- 0.0142(5) 0.0075(5) 0.0120(5) 0.0014(4) 0.0014(4) 0.0003(4)
O5 O2- 0.0231(6) 0.0107(6) 0.0117(6) 0.0053(4) 0.0078(5) 0.0025(4)
B1 B3+ 0.0108(7) 0.0072(7) 0.0099(7) 0.0005(5) 0.0021(5) -.0002(5)
B2 B3+ 0.0120(7) 0.0084(7) 0.0082(7) 0.0000(5) 0.0008(5) -.0003(5)
#End of data_66516-ICSD


