data_262993-ICSD
#?2014 by Fachinformationszentrum Karlsruhe, and the U.S. Secretary of 
#Commerce on behalf of the United States.  All rights reserved.
_database_code_ICSD                262993
_audit_creation_date               2013/02/01
_chemical_name_systematic
;
Strontium Yttrium Aluminium Oxide (6/2/4/15)
;
_chemical_formula_structural       'Sr6 Y2 Al4 O15'
_chemical_formula_sum              'Al4 O15 Sr6 Y2'
_publ_section_title
;
Crystal structure of Sr6 Y2 Al4 O15: XRD refinements and first-
principle calculations
;
loop_
_citation_id
_citation_journal_abbrev
_citation_year
_citation_journal_volume
_citation_journal_issue
_citation_page_first
_citation_page_last
_citation_journal_id_ASTM
primary 'Journal of Solid State Chemistry' 2012 192 8 195 200 JSSCBI
_publ_author_name
;
Wang Chunhai;Guo Dongfang;Li Zhaofei;Wang Xiaoming;Lin Jianhua;Zeng 
Zhengzhi;Jing Xiping
;
_cell_length_a                     17.597(1)
_cell_length_b                     5.7408(1)
_cell_length_c                     7.6860(1)
_cell_angle_alpha                  90
_cell_angle_beta                   90.7659(3)
_cell_angle_gamma                  90
_cell_volume                       776.38
_cell_formula_units_Z              2
_symmetry_space_group_name_H-M     'C 1 2 1'
_symmetry_Int_Tables_number        5
_refine_ls_R_factor_all            .039
loop_
_symmetry_equiv_pos_site_id
_symmetry_equiv_pos_as_xyz
  1	'-x, y, -z'
  2	'x, y, z'
  3	'-x+.5, y+.5, -z'
  4	'x+.5, y+.5, z'
loop_
_atom_type_symbol
_atom_type_oxidation_number
Al3+	3
O2-	-2
Sr2+	2
Y3+	3
loop_
_atom_site_label
_atom_site_type_symbol
_atom_site_symmetry_multiplicity
_atom_site_Wyckoff_symbol
_atom_site_fract_x
_atom_site_fract_y
_atom_site_fract_z
_atom_site_occupancy
_atom_site_attached_hydrogens
Y1 Y3+ 4 c 0.3442 0.4886 0.7532 1. 0 
Sr1 Sr2+ 4 c 0.1753 0.4801 0.5062 1. 0 
Sr2 Sr2+ 4 c 0.1606 0.4669 0.9687 1. 0 
Sr3 Sr2+ 2 a 0 0.0387 0 1. 0 
Sr4 Sr2+ 2 b 0 0.0985 0.5 1. 0 
Al1 Al3+ 4 c 0.3110 0.4786 0.2445 1. 0 
Al2 Al3+ 4 c 0.0119 0.5318 0.2262 1. 0 
O1 O2- 4 c 0.3627 0.4931 0.0497 1. 0 
O2 O2- 4 c 0.2591 0.2144 0.2340 1. 0 
O3 O2- 4 c 0.2422 0.7066 0.2297 1. 0 
O4 O2- 4 c 0.0886 0.3316 0.2607 1. 0 
O5 O2- 4 c 0.0400 0.8196 0.2705 1. 0 
O6 O2- 4 c 0.9280 0.4122 0.3051 1. 0 
O7 O2- 4 c 0.3426 0.4869 0.4630 1. 0 
O8 O2- 2 a 0 0.5232 0 1. 0 

#End of data_262993-ICSD


