data_50293-ICSD
#?2014 by Fachinformationszentrum Karlsruhe, and the U.S. Secretary of 
#Commerce on behalf of the United States.  All rights reserved.
_database_code_ICSD                50293
_audit_creation_date               1999/06/02
_audit_update_record               2014/08/01
_chemical_name_systematic
;
Tricalcium Tetraaluminium Zinc Oxide
;
_chemical_formula_structural       'Ca3 Al4 Zn O10'
_chemical_formula_sum              'Al4 Ca3 O10 Zn1'
_publ_section_title
;
Calcium aluminozincates of Ca(x) Al(y) Zn(k) O(n) composition
;
loop_
_citation_id
_citation_journal_abbrev
_citation_year
_citation_journal_volume
_citation_page_first
_citation_page_last
_citation_journal_id_ASTM
primary 'Powder Diffraction' 1997 12 22 26 PODIE2
_publ_author_name
;
Barbanyagre, V.D.;Timoshenko, T.I.;Il'inets, A.M.;Shamshurov, V.M.
;
_cell_length_a                     5.142
_cell_length_b                     16.756
_cell_length_c                     10.71
_cell_angle_alpha                  90.
_cell_angle_beta                   90.
_cell_angle_gamma                  90.
_cell_volume                       922.77
_cell_formula_units_Z              4
_symmetry_space_group_name_H-M     'P b c 21'
_symmetry_Int_Tables_number        29
loop_
_symmetry_equiv_pos_site_id
_symmetry_equiv_pos_as_xyz
  1	'-x, y+.5, z'
  2	'x, -y+.5, z+.5'
  3	'-x, -y, z+.5'
  4	'x, y, z'
loop_
_atom_type_symbol
_atom_type_oxidation_number
Al3+	3
Ca2+	2
O2-	-2
Zn2+	2
loop_
_atom_site_label
_atom_site_type_symbol
_atom_site_symmetry_multiplicity
_atom_site_Wyckoff_symbol
_atom_site_fract_x
_atom_site_fract_y
_atom_site_fract_z
_atom_site_occupancy
_atom_site_attached_hydrogens
_atom_site_B_iso_or_equiv
Zn1 Zn2+ 4 a 0.1347(4) 0.0777(1) 0.6005(2) 1. 0 0.91(3) 
Ca1 Ca2+ 4 a 0.3058(3) -.1084(1) 0.5757(2) 1. 0 0.64(2) 
Ca2 Ca2+ 4 a 0.3005(4) -.1078(1) 0.9249(2) 1. 0 0.77(2) 
Ca3 Ca2+ 4 a 0.7159(3) 0.2078(1) 0.7498(5) 1. 0 1.08(2) 
Al1 Al3+ 4 a -.3678(3) 0.0294(1) 0.7496(6) 1. 0 0.42(2) 
Al2 Al3+ 4 a -.2533(4) -.1657(1) 0.7513(6) 1. 0 0.40(2) 
Al3 Al3+ 4 a 0.1936(4) 0.25 0.5 1. 0 0.60(3) 
Al4 Al3+ 4 a 0.1355(3) 0.0782(1) 0.9003(2) 1. 0 0.31(2) 
O1 O2- 4 a 0.081(1) 0.6684(3) 0.2510(1) 1. 0 0.79(8) 
O2 O2- 4 a 0.421(1) 0.4261(3) 0.7530(1) 1. 0 0.77(8) 
O3 O2- 4 a 0.961(1) 0.4385(4) 0.2560(1) 1. 0 1.40(1) 
O4 O2- 4 a 0.402(2) 0.2842(4) 0.6198(6) 1. 0 0.73(9) 
O5 O2- 4 a -.002(2) 0.5008(8) 0.509(1) 1. 0 1.19(9) 
O6 O2- 4 a -.008(2) 0.3255(5) 0.4431(7) 1. 0 1.40(1) 
O7 O2- 4 a 0.481(2) 0.4225(7) 0.3837(7) 1. 0 2.30(2) 
O8 O2- 4 a 0.397(1) 0.2870(4) 0.8782(7) 1. 0 0.73(9) 
O9 O2- 4 a -.006(1) 0.3281(4) 0.0559(7) 1. 0 0.91(9) 
O10 O2- 4 a 0.481(2) 0.4217(5) 0.1172(8) 1. 0 1.80(2) 

#End of data_50293-ICSD


