data_636887-ICSD
#?2014 by Fachinformationszentrum Karlsruhe, and the U.S. Secretary of 
#Commerce on behalf of the United States.  All rights reserved.
_database_code_ICSD                636887
_audit_creation_date               2013/08/01
_chemical_name_systematic          'Lithium Germanium Nitride (1/2/3)'
_chemical_formula_structural       'Li Ge2 N3'
_chemical_formula_sum              'Ge2 Li1 N3'
_publ_section_title
;
Les nitrures doubles de lithium et de germanium
;
loop_
_citation_id
_citation_journal_abbrev
_citation_year
_citation_journal_volume
_citation_page_first
_citation_page_last
_citation_journal_id_ASTM
primary 'Revue de Chimie Minerale' 1974 11 405 413 RVCMA8
_publ_author_name                  'David, J.;Charlot, J.P.;Lang, J.'
_cell_length_a                     9.523(5)
_cell_length_b                     5.497(3)
_cell_length_c                     5.041(3)
_cell_angle_alpha                  90.0
_cell_angle_beta                   90.0
_cell_angle_gamma                  90.0
_cell_volume                       263.89
_cell_formula_units_Z              4
_symmetry_space_group_name_H-M     'C m c 21'
_symmetry_Int_Tables_number        36
loop_
_symmetry_equiv_pos_site_id
_symmetry_equiv_pos_as_xyz
  1	'x, -y, z+.5'
  2	'-x, -y, z+.5'
  3	'-x, y, z'
  4	'x, y, z'
  5	'x+.5, -y+.5, z+.5'
  6	'-x+.5, -y+.5, z+.5'
  7	'-x+.5, y+.5, z'
  8	'x+.5, y+.5, z'
loop_
_atom_type_symbol
_atom_type_oxidation_number
Ge4+	4
Li1+	1
N3-	-3
loop_
_atom_site_label
_atom_site_type_symbol
_atom_site_symmetry_multiplicity
_atom_site_Wyckoff_symbol
_atom_site_fract_x
_atom_site_fract_y
_atom_site_fract_z
_atom_site_occupancy
_atom_site_attached_hydrogens
Ge1 Ge4+ 8 b 0.162 0.839 0.009 1. 0 
Li1 Li1+ 4 a 0 0.332 0 1. 0 
N1 N3- 8 b 0.158 0.814 0.391 1. 0 
N2 N3- 4 a 0 0.345 0.379 1. 0 

#End of data_636887-ICSD


