data_167307-ICSD
#?2014 by Fachinformationszentrum Karlsruhe, and the U.S. Secretary of 
#Commerce on behalf of the United States.  All rights reserved.
_database_code_ICSD                167307
_audit_creation_date               2010/08/01
_chemical_name_systematic          'Pentaaluminium Hexaoxide Borate'
_chemical_formula_structural       'Al5 O6 (B O3)'
_chemical_formula_sum              'Al5 B1 O9'
_chemical_name_mineral             'Mullite, boron-containing'
_publ_section_title
;
Stability at high pressure, elastic behavior and pressure-induced 
structural evolution of "Al5 B O9", a mullite-type ceramic material
;
loop_
_citation_id
_citation_journal_abbrev
_citation_year
_citation_journal_volume
_citation_page_first
_citation_page_last
_citation_journal_id_ASTM
primary 'Physics and Chemistry of Minerals' 2010 37 227 236 PCMIDU
_publ_author_name
;
Gatta, G.D.;Rotiroti, N.;Fisch, M.;Armbruster, T.
;
_cell_length_a                     5.678(2)
_cell_length_b                     15.015(4)
_cell_length_c                     7.700(3)
_cell_angle_alpha                  90.
_cell_angle_beta                   90.
_cell_angle_gamma                  90.
_cell_volume                       656.46
_cell_formula_units_Z              4
_symmetry_space_group_name_H-M     'C m c 21'
_symmetry_Int_Tables_number        36
_refine_ls_R_factor_all            .0444
loop_
_symmetry_equiv_pos_site_id
_symmetry_equiv_pos_as_xyz
  1	'x, -y, z+.5'
  2	'-x, -y, z+.5'
  3	'-x, y, z'
  4	'x, y, z'
  5	'x+.5, -y+.5, z+.5'
  6	'-x+.5, -y+.5, z+.5'
  7	'-x+.5, y+.5, z'
  8	'x+.5, y+.5, z'
loop_
_atom_type_symbol
_atom_type_oxidation_number
Al3+	3
B3+	3
O2-	-2
loop_
_atom_site_label
_atom_site_type_symbol
_atom_site_symmetry_multiplicity
_atom_site_Wyckoff_symbol
_atom_site_fract_x
_atom_site_fract_y
_atom_site_fract_z
_atom_site_occupancy
_atom_site_attached_hydrogens
_atom_site_U_iso_or_equiv
Al1 Al3+ 8 b 0.2519(2) 0.11653(6) 0.3336(2) 1. 0 0.0069(2) 
Al2 Al3+ 4 a 0 0.25515(9) 0.5199(2) 1. 0 0.0096(4) 
Al3 Al3+ 4 a 0 0.44410(9) 0.5156(2) 1. 0 0.0075(3) 
Al4 Al3+ 4 a 0 0.29682(9) 0.1677(2) 1. 0 0.0084(4) 
B1 B3+ 4 a 0 0.0164(4) 0.0542(7) 1. 0 0.0112(14) 
O1 O2- 4 a 0 0.3285(2) 0.7049(5) 1. 0 0.0090(8) 
O2 O2- 8 b 0.2558(4) 0.19016(15) 0.5345(3) 1. 0 0.0073(6) 
O3 O2- 4 a 0 0.4541(2) 0.9045(5) 1. 0 0.0086(8) 
O4 O2- 4 a 0 0.0465(2) 0.4250(5) 1. 0 0.0096(8) 
O5 O2- 4 a 0 0.3522(2) 0.3716(5) 1. 0 0.0090(8) 
O6 O2- 4 a 0 0.1911(2) 0.2671(5) 1. 0 0.0076(8) 
O7 O2- 8 b 0.2110(5) 0.04838(16) 0.1183(3) 1. 0 0.0097(6) 

#End of data_167307-ICSD


