data_411027-ICSD
#?2014 by Fachinformationszentrum Karlsruhe, and the U.S. Secretary of 
#Commerce on behalf of the United States.  All rights reserved.
_database_code_ICSD                411027
_audit_creation_date               2000/07/15
_chemical_name_systematic          'Dipotassium Pentathiodigermanide'
_chemical_formula_structural       'K2 (Ge2 S5)'
_chemical_formula_sum              'Ge2 K2 S5'
_publ_section_title
;
New chalcogenogermanates with adamantane type complex anions: 
Preparation and crystal structures of K4 Ge4 S10; Rb4 Ge4 S10, Rb4 
Ge4 Se10 and Cs4 Ge4 Se10
;
loop_
_citation_id
_citation_journal_abbrev
_citation_year
_citation_journal_volume
_citation_page_first
_citation_page_last
_citation_journal_id_ASTM
primary 'Zeitschrift fuer Naturforschung, B: Chemical Sciences'
 1999 54 1499 1504 ZNBSEN
_publ_author_name                  'Klepp, K.O.;Fabian, F.'
_cell_length_a                     15.161(3)
_cell_length_b                     15.198(2)
_cell_length_c                     8.760(2)
_cell_angle_alpha                  90.
_cell_angle_beta                   105.36(1)
_cell_angle_gamma                  90.
_cell_volume                       1946.35
_cell_formula_units_Z              8
_symmetry_space_group_name_H-M     'C 1 2/c 1'
_symmetry_Int_Tables_number        15
_refine_ls_R_factor_all            .046
loop_
_symmetry_equiv_pos_site_id
_symmetry_equiv_pos_as_xyz
  1	'x, -y, z+.5'
  2	'-x, -y, -z'
  3	'-x, y, -z+.5'
  4	'x, y, z'
  5	'x+.5, -y+.5, z+.5'
  6	'-x+.5, -y+.5, -z'
  7	'-x+.5, y+.5, -z+.5'
  8	'x+.5, y+.5, z'
loop_
_atom_type_symbol
_atom_type_oxidation_number
Ge4+	4
K1+	1
S2-	-2
loop_
_atom_site_label
_atom_site_type_symbol
_atom_site_symmetry_multiplicity
_atom_site_Wyckoff_symbol
_atom_site_fract_x
_atom_site_fract_y
_atom_site_fract_z
_atom_site_occupancy
_atom_site_attached_hydrogens
K1 K1+ 8 f 0.1582(2) 0.3697(2) 0.8806(3) 1. 0 
K2 K1+ 8 f 0.1370(2) 0.0736(2) 0.6232(3) 1. 0 
Ge1 Ge4+ 8 f 0.10531(7) 0.37196(6) 0.4076(1) 1. 0 
Ge2 Ge4+ 8 f 0.43197(7) 0.29844(6) 0.8886(1) 1. 0 
S1 S2- 8 f 0.1743(2) 0.2864(2) 0.2644(3) 1. 0 
S2 S2- 8 f 0.4604(2) 0.2164(2) 0.4492(3) 1. 0 
S3 S2- 8 f 0.2069(2) 0.4487(2) 0.5637(3) 1. 0 
S4 S2- 8 f 0.1257(2) 0.1212(2) 0.9665(3) 1. 0 
S5 S2- 4 e 0 0.1140(2) 0.25 1. 0 
S6 S2- 4 e 0 0.4573(2) 0.25 1. 0 

loop_
_atom_site_aniso_label
_atom_site_aniso_type_symbol
_atom_site_aniso_U_11
_atom_site_aniso_U_22
_atom_site_aniso_U_33
_atom_site_aniso_U_12
_atom_site_aniso_U_13
_atom_site_aniso_U_23
K1 K1+ 0.048(1) 0.037(1) 0.046(1) -.013(1) 0.010(1) 0.001(1)
K2 K1+ 0.049(1) 0.047(1) 0.049(1) 0.003(1) 0.018(1) -.012(1)
Ge1 Ge4+ 0.0236(4) 0.0153(4) 0.0365(5) -.0042(4) 0.0116(3) -.0018(4)
Ge2 Ge4+ 0.0264(4) 0.0153(4) 0.0327(4) 0.0042(4) 0.0131(3) 0.0004(4)
S1 S2- 0.024(1) 0.026(1) 0.047(1) -.0005(9) 0.0148(9) -.005(1)
S2 S2- 0.035(1) 0.024(1) 0.037(1) -.011(1) 0.0129(9) -.003(1)
S3 S2- 0.030(1) 0.025(1) 0.041(1) -.011(1) 0.009(1) -.005(1)
S4 S2- 0.050(1) 0.041(1) 0.041(1) 0.019(1) 0.019(1) -.008(1)
S5 S2- 0.038(2) 0.017(1) 0.041(2) 0 0.017(1) 0
S6 S2- 0.030(2) 0.016(1) 0.063(2) 0 0.005(2) 0
#End of data_411027-ICSD


