data_1317-ICSD
#?2014 by Fachinformationszentrum Karlsruhe, and the U.S. Secretary of 
#Commerce on behalf of the United States.  All rights reserved.
_database_code_ICSD                1317
_audit_creation_date               1980/01/01
_audit_update_record               2014/08/01
_chemical_name_systematic
;
Dilanthanum Trimagnesium Nitrate(V) Tetracosahydrate
;
_chemical_formula_structural       'La2 Mg3 (N O3)12 (H2 O)24'
_chemical_formula_sum              'H48 La2 Mg3 N12 O60'
_publ_section_title
;
A neutron diffraction study of lanthanum magnesium nitrate La2 Mg3 (N 
O3)12 (H2 O)24
;
loop_
_citation_id
_citation_journal_abbrev
_citation_year
_citation_journal_volume
_citation_page_first
_citation_page_last
_citation_journal_id_ASTM
primary 'Acta Crystallographica B (24,1968-38,1982)' 1977 33 3933 3936 ACBCAR
_publ_author_name
;
Anderson, M.R.;Jenkin, G.T.;White, J.W.
;
_cell_length_a                     10.989(2)
_cell_length_b                     10.989(2)
_cell_length_c                     34.630(10)
_cell_angle_alpha                  90.
_cell_angle_beta                   90.
_cell_angle_gamma                  120.
_cell_volume                       3621.59
_cell_formula_units_Z              3
_symmetry_space_group_name_H-M     'R -3 H'
_symmetry_Int_Tables_number        148
_refine_ls_R_factor_all            .065
loop_
_symmetry_equiv_pos_site_id
_symmetry_equiv_pos_as_xyz
  1	'x-y, x, -z'
  2	'y, -x+y, -z'
  3	'-x, -y, -z'
  4	'-x+y, -x, z'
  5	'-y, x-y, z'
  6	'x, y, z'
  7	'x-y+.6666, x+.3333, -z+.3333'
  8	'x-y+.3333, x+.6666, -z+.6666'
  9	'y+.6666, -x+y+.3333, -z+.3333'
 10	'y+.3333, -x+y+.6666, -z+.6666'
 11	'-x+.6666, -y+.3333, -z+.3333'
 12	'-x+.3333, -y+.6666, -z+.6666'
 13	'-x+y+.6666, -x+.3333, z+.3333'
 14	'-x+y+.3333, -x+.6666, z+.6666'
 15	'-y+.6666, x-y+.3333, z+.3333'
 16	'-y+.3333, x-y+.6666, z+.6666'
 17	'x+.6666, y+.3333, z+.3333'
 18	'x+.3333, y+.6666, z+.6666'
loop_
_atom_type_symbol
_atom_type_oxidation_number
H1+	1
La3+	3
Mg2+	2
N5+	5
O2-	-2
loop_
_atom_site_label
_atom_site_type_symbol
_atom_site_symmetry_multiplicity
_atom_site_Wyckoff_symbol
_atom_site_fract_x
_atom_site_fract_y
_atom_site_fract_z
_atom_site_occupancy
_atom_site_attached_hydrogens
La1 La3+ 6 c 0 0 0.2496(2) 1. 0 
Mg1 Mg2+ 3 a 0 0 0 1. 0 
Mg2 Mg2+ 6 c 0 0 0.4279(2) 1. 0 
N1 N5+ 18 f 0.0316(3) 0.2457(3) 0.3003(1) 1. 0 
N2 N5+ 18 f 0.2517(4) 0.2157(4) 0.2020(1) 1. 0 
O1 O2- 18 f -.0546(6) 0.1239(6) 0.3091(2) 1. 0 
O2 O2- 18 f 0.0450(6) 0.3456(6) 0.3190(2) 1. 0 
O3 O2- 18 f 0.1084(6) 0.2638(5) 0.2716(2) 1. 0 
O4 O2- 18 f 0.1274(7) 0.1784(7) 0.1922(2) 1. 0 
O5 O2- 18 f 0.3504(7) 0.3032(8) 0.1849(2) 1. 0 
O6 O2- 18 f 0.2668(6) 0.1549(7) 0.2300(2) 1. 0 
O7 O2- 18 f 0.0140(7) 0.1587(7) 0.0346(2) 1. 0 
O8 O2- 18 f 0.1592(6) 0.0166(8) 0.3935(2) 1. 0 
O9 O2- 18 f 0.1553(7) 0.1563(7) 0.4610(2) 1. 0 
O10 O2- 18 f 0.1668(7) 0.2271(7) 0.1037(2) 1. 0 
H1 H1+ 18 f 0.0664(12) 0.1877(11) 0.0587(3) 1. 0 
H2 H1+ 18 f -.0058(15) 0.2252(15) 0.0251(4) 1. 0 
H3 H1+ 18 f 0.5024(11) 0.6037(13) 0.0585(4) 1. 0 
H4 H1+ 18 f 0.5144(13) 0.7289(15) 0.0355(4) 1. 0 
H5 H1+ 18 f 0.3934(17) 0.5148(17) 0.1460(4) 1. 0 
H6 H1+ 18 f 0.2797(11) 0.4127(11) 0.1177(3) 1. 0 
H7 H1+ 18 f 0.2333(16) 0.1951(16) 0.1058(3) 1. 0 
H8 H1+ 18 f 0.1210(16) 0.2011(16) 0.1282(4) 1. 0 

loop_
_atom_site_aniso_label
_atom_site_aniso_type_symbol
_atom_site_aniso_U_11
_atom_site_aniso_U_22
_atom_site_aniso_U_33
_atom_site_aniso_U_12
_atom_site_aniso_U_13
_atom_site_aniso_U_23
La1 La3+ 0.020(1) 0.020(1) 0.015(2) 0.01 0 0
Mg1 Mg2+ 0.017(3) 0.017(3) 0.028(6) 0.009 0 0
Mg2 Mg2+ 0.022(2) 0.022(2) 0.018(4) 0.011 0 0
N1 N5+ 0.023(2) 0.026(2) 0.024(2) 0.010(1) -.002(1) -.003(1)
N2 N5+ 0.027(2) 0.027(2) 0.025(2) 0.011(1) 0.003(1) 0.005(1)
O1 O2- 0.037(3) 0.023(3) 0.026(3) 0.009(2) 0.007(2) -.001(2)
O2 O2- 0.038(3) 0.026(3) 0.038(3) 0.013(3) 0.003(2) -.009(2)
O3 O2- 0.030(3) 0.019(2) 0.028(3) 0.007(2) 0.007(2) -.005(2)
O4 O2- 0.036(3) 0.046(4) 0.030(3) 0.022(3) 0.008(3) 0.016(3)
O5 O2- 0.032(3) 0.053(4) 0.045(4) 0.008(3) 0.010(3) 0.021(3)
O6 O2- 0.024(3) 0.043(3) 0.034(3) 0.015(3) 0.001(2) 0.006(3)
O7 O2- 0.045(4) 0.037(3) 0.035(3) 0.023(3) -.013(3) -.009(3)
O8 O2- 0.032(3) 0.047(3) 0.024(3) 0.024(3) 0.002(2) -.003(3)
O9 O2- 0.037(4) 0.034(3) 0.033(4) 0.008(3) -.006(3) -.008(3)
O10 O2- 0.047(4) 0.048(4) 0.037(4) 0.029(3) 0.006(3) -.002(3)
H1 H1+ 0.089(7) 0.049(6) 0.045(6) 0.033(5) -.009(5) -.004(4)
H2 H1+ 0.082(9) 0.067(8) 0.076(8) 0.048(8) -.018(7) -.017(7)
H3 H1+ 0.031(5) 0.047(6) 0.071(8) 0.017(5) 0.003(5) -.011(5)
H4 H1+ 0.057(7) 0.075(9) 0.055(8) 0.039(7) 0.010(6) 0.017(7)
H5 H1+ 0.078(9) 0.078(10) 0.082(10) 0.014(8) -.025(8) 0.030(8)
H6 H1+ 0.061(6) 0.033(5) 0.052(6) 0.012(5) 0.001(5) 0.004(5)
H7 H1+ 0.082(9) 0.063(9) 0.040(7) 0.028(7) -.017(6) -.013(6)
H8 H1+ 0.069(9) 0.089(10) 0.037(7) 0.014(7) 0.018(7) -.005(6)
#End of data_1317-ICSD


