data_201017-ICSD
#?2014 by Fachinformationszentrum Karlsruhe, and the U.S. Secretary of 
#Commerce on behalf of the United States.  All rights reserved.
_database_code_ICSD                201017
_audit_creation_date               1980/12/31
_chemical_name_systematic
;
Potassium Tetrakis(niobate) Fluoride
;
_chemical_formula_structural       'K5 (Nb O3)4 F'
_chemical_formula_sum              'F1 K5 Nb4 O12'
_publ_section_title
;
Structure of the double fluoride and metaniobate of potassium K F (K 
Nb O3)4. Four types of coordination of the light atoms in the 
structure
;
loop_
_citation_id
_citation_journal_abbrev
_citation_year
_citation_journal_volume
_citation_page_first
_citation_page_last
_citation_journal_id_ASTM
primary 'Zhurnal Strukturnoi Khimii (Issue-No. from 1981)'
 1980 21 142 147 ZSTKAI
_publ_author_name
;
Kuznetsov, V.Ya.;Rogachev, D.L.;Sadikov, G.G.;Dikareva, L.M.;Porai 
Koshits, M.A.
;
_cell_length_a                     5.1061(6)
_cell_length_b                     11.817(3)
_cell_length_c                     11.867(2)
_cell_angle_alpha                  90.
_cell_angle_beta                   92.98(1)
_cell_angle_gamma                  90.
_cell_volume                       715.07
_cell_formula_units_Z              2
_symmetry_space_group_name_H-M     'P 1 21/n 1'
_symmetry_Int_Tables_number        14
_refine_ls_R_factor_all            .029
loop_
_symmetry_equiv_pos_site_id
_symmetry_equiv_pos_as_xyz
  1	'-x+.5, y+.5, -z+.5'
  2	'-x, -y, -z'
  3	'x+.5, -y+.5, z+.5'
  4	'x, y, z'
loop_
_atom_type_symbol
_atom_type_oxidation_number
F1-	-1
K1+	1
Nb5+	5
O2-	-2
loop_
_atom_site_label
_atom_site_type_symbol
_atom_site_symmetry_multiplicity
_atom_site_Wyckoff_symbol
_atom_site_fract_x
_atom_site_fract_y
_atom_site_fract_z
_atom_site_occupancy
_atom_site_attached_hydrogens
Nb1 Nb5+ 4 e 0.0459(1) 0.35725(5) 0.97591(5) 1. 0 
Nb2 Nb5+ 4 e 0.5299(2) 0.48585(5) 0.85567(5) 1. 0 
K1 K1+ 4 e 0.0571(3) 0.3554(1) 0.3277(1) 1. 0 
K2 K1+ 4 e 0.0575(3) 0.3275(1) 0.6481(1) 1. 0 
K3 K1+ 2 a 0.5 0.5 0.5 1. 0 
O1 O2- 4 e 0.7559(8) 0.4595(4) 0.0378(4) 1. 0 
O2 O2- 4 e 0.2665(8) 0.3719(4) 0.1163(4) 1. 0 
O3 O2- 4 e 0.3320(9) 0.3381(4) 0.8811(4) 1. 0 
O4 O2- 4 e 0.8296(8) 0.3969(4) 0.8295(4) 1. 0 
O5 O2- 4 e 0.4248(9) 0.2804(4) 0.4981(3) 1. 0 
O6 O2- 4 e 0.5998(9) 0.4789(4) 0.2811(3) 1. 0 
F1 F1- 2 d 0 0.5 0.5 1. 0 

#End of data_201017-ICSD


