data_14014-ICSD
#?2014 by Fachinformationszentrum Karlsruhe, and the U.S. Secretary of 
#Commerce on behalf of the United States.  All rights reserved.
_database_code_ICSD                14014
_audit_creation_date               1980/01/01
_audit_update_record               2014/08/01
_chemical_name_systematic          'Rubidium Calcium Amide'
_chemical_formula_structural       'Rb Ca (N H2)3'
_chemical_formula_sum              'H6 Ca1 N3 Rb1'
_publ_section_title
;
Darstellung und Kristallstruktur des Rubidiumcalciumamids Rb Ca (N 
H2)3
;
loop_
_citation_id
_citation_journal_abbrev
_citation_year
_citation_journal_volume
_citation_page_first
_citation_page_last
_citation_journal_id_ASTM
primary 'Zeitschrift fuer Anorganische und Allgemeine Chemie (1950) (DE)'
 1979 456 147 154 ZAACAB
_publ_author_name                  'Jacobs, H.;Kockelkorn, J.'
_cell_length_a                     7.080(6)
_cell_length_b                     11.95(1)
_cell_length_c                     6.540(6)
_cell_angle_alpha                  90.
_cell_angle_beta                   108.5(1)
_cell_angle_gamma                  90.
_cell_volume                       524.73
_cell_formula_units_Z              4
_symmetry_space_group_name_H-M     'C 1 2/c 1'
_symmetry_Int_Tables_number        15
_refine_ls_R_factor_all            .051
loop_
_symmetry_equiv_pos_site_id
_symmetry_equiv_pos_as_xyz
  1	'x, -y, z+.5'
  2	'-x, -y, -z'
  3	'-x, y, -z+.5'
  4	'x, y, z'
  5	'x+.5, -y+.5, z+.5'
  6	'-x+.5, -y+.5, -z'
  7	'-x+.5, y+.5, -z+.5'
  8	'x+.5, y+.5, z'
loop_
_atom_type_symbol
_atom_type_oxidation_number
Ca2+	2
H1+	1
N3-	-3
Rb1+	1
loop_
_atom_site_label
_atom_site_type_symbol
_atom_site_symmetry_multiplicity
_atom_site_Wyckoff_symbol
_atom_site_fract_x
_atom_site_fract_y
_atom_site_fract_z
_atom_site_occupancy
_atom_site_attached_hydrogens
_atom_site_B_iso_or_equiv
Ca1 Ca2+ 4 a 0 0 0 1. 0 0 
Rb1 Rb1+ 4 e 0 0.2951(1) 0.25 1. 0 0 
N1 N3- 4 e 0 0.8418(7) 0.25 1. 0 0 
N2 N3- 8 f 0.7541(9) 0.9255(5) 0.6651(9) 1. 0 0 
H1 H1+ 8 f 0.605(17) 0.687(10) 0.846(20) 1. 0 9.9 
H2 H1+ 8 f 0.178(11) 0.380(7) 0.702(12) 1. 0 3.6 
H3 H1+ 8 f 0.303(16) 0.027(9) 0.373(17) 1. 0 6.6 

#End of data_14014-ICSD


