data_81576-ICSD
#?2014 by Fachinformationszentrum Karlsruhe, and the U.S. Secretary of 
#Commerce on behalf of the United States.  All rights reserved.
_database_code_ICSD                81576
_audit_creation_date               1997/05/13
_audit_update_record               1997/11/10
_chemical_name_systematic
;
Disilver Bis(dioxouranium(VI)) Divanadate
;
_chemical_formula_structural       'Ag2 (U O2)2 (V2 O8)'
_chemical_formula_sum              'Ag2 O12 U2 V2'
_chemical_name_mineral             Carnotite-(Ag)
_publ_section_title
;
Ag2 (U O2)2 V2 O8 : a new compound with the carnotite structure. 
Synthesis, structure and properties
;
loop_
_citation_id
_citation_journal_abbrev
_citation_year
_citation_journal_volume
_citation_page_first
_citation_page_last
_citation_journal_id_ASTM
primary 'Advanced Materials Research' 1994 1 511 520 AMREFI
_publ_author_name
;
Abraham, F.;Dion, C.;Tancret, N.;Saadi, M.
;
_cell_length_a                     5.8952(2)
_cell_length_b                     8.3541(2)
_cell_length_c                     10.4142(3)
_cell_angle_alpha                  90.
_cell_angle_beta                   100.56(1)
_cell_angle_gamma                  90.
_cell_volume                       504.2
_cell_formula_units_Z              2
_symmetry_space_group_name_H-M     'P 1 21/c 1'
_symmetry_Int_Tables_number        14
_refine_ls_R_factor_all            .05
loop_
_symmetry_equiv_pos_site_id
_symmetry_equiv_pos_as_xyz
  1	'x, -y+.5, z+.5'
  2	'-x, -y, -z'
  3	'-x, y+.5, -z+.5'
  4	'x, y, z'
loop_
_atom_type_symbol
_atom_type_oxidation_number
Ag1+	1
O2-	-2
U6+	6
V5+	5
loop_
_atom_site_label
_atom_site_type_symbol
_atom_site_symmetry_multiplicity
_atom_site_Wyckoff_symbol
_atom_site_fract_x
_atom_site_fract_y
_atom_site_fract_z
_atom_site_occupancy
_atom_site_attached_hydrogens
_atom_site_B_iso_or_equiv
U1 U6+ 4 e -.0178(5) 0.0214(3) 0.1823(3) 1. 0 0.4(1) 
V1 V5+ 4 e 0.1351(23) 0.3500(15) 0.0408(12) 1. 0 0.8(4) 
Ag1 Ag1+ 4 e 0.5405(10) 0.2234(6) 0.3360(6) 1. 0 2.3(2) 
O1 O2- 4 e 0.056(6) 0.148(4) 0.010(4) 1. 0 1.34(2) 
O2 O2- 4 e 0.406(7) 0.355(4) 0.033(4) 1. 0 1.34(2) 
O3 O2- 4 e 0.663(6) 0.081(4) 0.143(4) 1. 0 1.34(2) 
O4 O2- 4 e 0.143(6) 0.287(4) 0.204(4) 1. 0 1.34(2) 
O5 O2- 4 e 0.278(6) -.041(5) 0.226(3) 1. 0 1.34(2) 
O6 O2- 4 e -.090(6) 0.436(5) -.099(4) 1. 0 1.34(2) 

#End of data_81576-ICSD


