data_72379-ICSD
#?2014 by Fachinformationszentrum Karlsruhe, and the U.S. Secretary of 
#Commerce on behalf of the United States.  All rights reserved.
_database_code_ICSD                72379
_audit_creation_date               1994/01/19
_chemical_name_systematic
;
Dipotassium Catena-selenidostannate
;
_chemical_formula_structural       'K2 (Sn2 Se5)'
_chemical_formula_sum              'K2 Se5 Sn2'
_publ_section_title
;
Darstellung und Kristallstruktur von K2Sn2S5 und K2Sn2Se5
;
loop_
_citation_id
_citation_journal_abbrev
_citation_year
_citation_journal_volume
_citation_page_first
_citation_page_last
_citation_journal_id_ASTM
primary 'Zeitschrift fuer Naturforschung, B: Chemical Sciences'
 1992 47 197 200 ZNBSEN
_publ_author_name                  'Klepp, K.O.'
_cell_length_a                     11.613(5)
_cell_length_b                     8.189(3)
_cell_length_c                     11.897(6)
_cell_angle_alpha                  90.
_cell_angle_beta                   108.28(2)
_cell_angle_gamma                  90.
_cell_volume                       1074.3
_cell_formula_units_Z              4
_symmetry_space_group_name_H-M     'C 1 2/c 1'
_symmetry_Int_Tables_number        15
_refine_ls_R_factor_all            .031
loop_
_symmetry_equiv_pos_site_id
_symmetry_equiv_pos_as_xyz
  1	'x, -y, z+.5'
  2	'-x, -y, -z'
  3	'-x, y, -z+.5'
  4	'x, y, z'
  5	'x+.5, -y+.5, z+.5'
  6	'-x+.5, -y+.5, -z'
  7	'-x+.5, y+.5, -z+.5'
  8	'x+.5, y+.5, z'
loop_
_atom_type_symbol
_atom_type_oxidation_number
K1+	1
Se2-	-2
Sn4+	4
loop_
_atom_site_label
_atom_site_type_symbol
_atom_site_symmetry_multiplicity
_atom_site_Wyckoff_symbol
_atom_site_fract_x
_atom_site_fract_y
_atom_site_fract_z
_atom_site_occupancy
_atom_site_attached_hydrogens
K1 K1+ 8 f 0.2324(2) 0.3301(3) 0.3205(2) 1. 0 
Sn1 Sn4+ 8 f 0.40463(5) 0.35213(8) 0.06002(5) 1. 0 
Se1 Se2- 8 f 0.30500(8) 0.0455(1) 0.96176(8) 1. 0 
Se2 Se2- 8 f 0.01838(8) 0.1406(1) 0.11863(8) 1. 0 
Se3 Se2- 4 e 0 0.3187(2) 0.75 1. 0 

loop_
_atom_site_aniso_label
_atom_site_aniso_type_symbol
_atom_site_aniso_U_11
_atom_site_aniso_U_22
_atom_site_aniso_U_33
_atom_site_aniso_U_12
_atom_site_aniso_U_13
_atom_site_aniso_U_23
K1 K1+ 0.038(1) 0.030(1) 0.0226(8) -.008(1) 0.0122(7) -.0057(9)
Sn1 Sn4+ 0.0114(2) 0.0196(3) 0.0113(2) -.0018(2) 0.0046(2) 0.0035(2)
Se1 Se2- 0.0134(3) 0.0137(4) 0.0198(3) -.0014(3) 0.0058(3) -.0011(3)
Se2 Se2- 0.0255(4) 0.0201(4) 0.0176(3) -.0099(4) 0.0128(3) -.0054(3)
Se3 Se2- 0.0258(6) 0.0135(5) 0.0111(4) 0 0.0023(4) 0
#End of data_72379-ICSD


