data_80361-ICSD
#?2014 by Fachinformationszentrum Karlsruhe, and the U.S. Secretary of 
#Commerce on behalf of the United States.  All rights reserved.
_database_code_ICSD                80361
_audit_creation_date               1997/05/13
_audit_update_record               2008/02/01
_chemical_name_systematic
;
Tetracalcium Hexaaluminate Sulfate(VI)
;
_chemical_formula_structural       'Ca4 (Al6 O12) (S O4)'
_chemical_formula_sum              'Al6 Ca4 O16 S1'
_publ_section_title
;
Structure of calcium aluminate sulfate Ca4 Al6 O16 S
;
loop_
_citation_id
_citation_journal_abbrev
_citation_year
_citation_journal_volume
_citation_page_first
_citation_page_last
_citation_journal_id_ASTM
primary 'Journal of Solid State Chemistry' 1995 119 1 7 JSSCBI
2 'Golden Book of Phase Transitions, Wroclaw' 2002 1 1 123 GBOPT5
3 'Powder Diffraction' 1992 7 47 48 PODIE2
_publ_author_name
;
Calos, N.J.;Kennard, C.H.L.;Whittaker, A.K.;Davis, R.L.
;
_cell_length_a                     13.028(3)
_cell_length_b                     13.037(3)
_cell_length_c                     9.161(2)
_cell_angle_alpha                  90.
_cell_angle_beta                   90.
_cell_angle_gamma                  90.
_cell_volume                       1555.96
_cell_formula_units_Z              4
_symmetry_space_group_name_H-M     'P c c 2'
_symmetry_Int_Tables_number        27
_refine_ls_R_factor_all            .046
loop_
_symmetry_equiv_pos_site_id
_symmetry_equiv_pos_as_xyz
  1	'-x, y, z+.5'
  2	'x, -y, z+.5'
  3	'-x, -y, z'
  4	'x, y, z'
loop_
_atom_type_symbol
_atom_type_oxidation_number
Al3+	3
Ca2+	2
O2-	-2
S6+	6
loop_
_atom_site_label
_atom_site_type_symbol
_atom_site_symmetry_multiplicity
_atom_site_Wyckoff_symbol
_atom_site_fract_x
_atom_site_fract_y
_atom_site_fract_z
_atom_site_occupancy
_atom_site_attached_hydrogens
_atom_site_B_iso_or_equiv
S1 S6+ 4 e 0.25366 0.2487 0.98218 1. 0 1.9(4) 
O1 O2- 4 e 0.729(3) 0.317(3) 0.612(9) 1. 0 7.5(3) 
O2 O2- 4 e 0.838(5) 0.184(4) 0.46(1) 1. 0 7.5(3) 
O3 O2- 4 e 0.770(4) 0.336(3) 0.379(9) 1. 0 7.5(3) 
O4 O2- 4 e 0.651(4) 0.201(4) 0.417(9) 1. 0 7.5(3) 
Ca1 Ca2+ 4 e 0.058(2) 0.251(3) 0.149(8) 1. 0 2.1(2) 
Ca2 Ca2+ 4 e 0.237(2) 0.926(2) 0.286(9) 1. 0 2.1(2) 
Ca3 Ca2+ 4 e 0.257(3) 0.512(3) 0.254(8) 1. 0 2.1(2) 
Ca4 Ca2+ 4 e 0.483(2) 0.253(3) 0.228(8) 1. 0 2.1(2) 
Al1 Al3+ 2 d 0.5 0.5 0.23(1) 1. 0 0.4(3) 
Al2 Al3+ 2 c 0.5 0 0.25(1) 1. 0 0.4(3) 
Al3 Al3+ 2 a 0 0 0.205(9) 1. 0 0.4(3) 
Al4 Al3+ 2 b 0 0.5 0.20(1) 1. 0 0.4(3) 
Al5 Al3+ 4 e 0.627(4) 0.121(4) -.004(9) 1. 0 0.2(2) 
Al6 Al3+ 4 e 0.122(4) 0.625(3) 0.949(9) 1. 0 0.2(2) 
Al7 Al3+ 4 e 0.369(4) 0.629(3) 0.98(1) 1. 0 0.2(2) 
Al8 Al3+ 4 e 0.122(4) 0.876(3) 0.96(1) 1. 0 0.2(2) 
O5 O2- 4 e 0.400(2) 0.246(2) 0.438(8) 1. 0 1.38(5) 
O6 O2- 4 e 0.567(2) 0.409(3) 0.140(8) 1. 0 1.38(5) 
O7 O2- 4 e 0.555(2) 0.105(2) 0.155(8) 1. 0 1.38(5) 
O8 O2- 4 e 0.755(2) 0.590(2) 0.504(8) 1. 0 1.38(5) 
O9 O2- 4 e 0.596(2) 0.443(2) 0.826(8) 1. 0 1.38(5) 
O10 O2- 4 e 0.907(2) 0.446(2) 0.802(8) 1. 0 1.38(5) 
O11 O2- 4 e 0.757(3) 0.902(2) 0.536(8) 1. 0 1.38(5) 
O12 O2- 4 e 0.901(2) 0.034(2) 0.824(8) 1. 0 1.38(5) 
O13 O2- 4 e 0.608(2) 0.033(2) 0.854(8) 1. 0 1.38(5) 
O14 O2- 4 e 0.103(2) 0.247(2) 0.391(8) 1. 0 1.38(5) 
O15 O2- 4 e 0.953(2) 0.115(2) 0.125(8) 1. 0 1.38(5) 
O16 O2- 4 e 0.948(2) 0.389(2) 0.110(8) 1. 0 1.38(5) 

#End of data_80361-ICSD


