data_78968-ICSD
#?2014 by Fachinformationszentrum Karlsruhe, and the U.S. Secretary of 
#Commerce on behalf of the United States.  All rights reserved.
_database_code_ICSD                78968
_audit_creation_date               1998/06/26
_chemical_name_systematic          'Tetrasilver Dibismuthate(III)'
_chemical_formula_structural       'Ag4 Bi2 O5'
_chemical_formula_sum              'Ag4 Bi2 O5'
_publ_section_title
;
Ag4 Bi2 O5 - ein neues Silberbismutat(III)
;
loop_
_citation_id
_citation_journal_abbrev
_citation_year
_citation_journal_volume
_citation_page_first
_citation_page_last
_citation_journal_id_ASTM
primary 'Zeitschrift fuer Anorganische und Allgemeine Chemie (1950) (DE)'
 1996 622 539 542 ZAACAB
_publ_author_name                  'Jansen, M.;Deibele, S.'
_cell_length_a                     14.283(2)
_cell_length_b                     5.692(1)
_cell_length_c                     8.777(1)
_cell_angle_alpha                  90.
_cell_angle_beta                   90.
_cell_angle_gamma                  90.
_cell_volume                       713.56
_cell_formula_units_Z              4
_symmetry_space_group_name_H-M     'P n n a'
_symmetry_Int_Tables_number        52
_refine_ls_R_factor_all            .05
loop_
_symmetry_equiv_pos_site_id
_symmetry_equiv_pos_as_xyz
  1	'x+.5, -y+.5, z+.5'
  2	'-x, y+.5, z+.5'
  3	'x+.5, y, -z'
  4	'-x, -y, -z'
  5	'-x+.5, y+.5, -z+.5'
  6	'x, -y+.5, -z+.5'
  7	'-x+.5, -y, z'
  8	'x, y, z'
loop_
_atom_type_symbol
_atom_type_oxidation_number
Ag1+	1
Bi3+	3
O2-	-2
loop_
_atom_site_label
_atom_site_type_symbol
_atom_site_symmetry_multiplicity
_atom_site_Wyckoff_symbol
_atom_site_fract_x
_atom_site_fract_y
_atom_site_fract_z
_atom_site_occupancy
_atom_site_attached_hydrogens
Bi1 Bi3+ 8 e 0.3897(1) 0.0027(1) 0.0849(1) 1. 0 
Ag1 Ag1+ 4 d 0.7477(2) 0.25 0.25 1. 0 
Ag2 Ag1+ 4 c 0.25 0 0.4323(1) 1. 0 
Ag3 Ag1+ 8 e 0.9248(1) 0.0063(2) 0.3631(1) 1. 0 
O1 O2- 4 c 0.75 0 0.0644(13) 1. 0 
O2 O2- 8 e 0.5451(6) 0.0356(22) 0.1271(10) 1. 0 
O3 O2- 8 e 0.3870(7) 0.1308(18) 0.4123(10) 1. 0 

loop_
_atom_site_aniso_label
_atom_site_aniso_type_symbol
_atom_site_aniso_U_11
_atom_site_aniso_U_22
_atom_site_aniso_U_33
_atom_site_aniso_U_12
_atom_site_aniso_U_13
_atom_site_aniso_U_23
Bi1 Bi3+ 0.0011(1) 0.0010(1) 0.0012(1) 0.0000(1) 0.0001(1) 0.0001(1)
Ag1 Ag1+ 0.0020(1) 0.0011(1) 0.0015(1) 0 0 -.0001(1)
Ag2 Ag1+ 0.0014(1) 0.0017(1) 0.0021(1) -.0007(1) 0 0
Ag3 Ag1+ 0.0019(1) 0.0022(1) 0.0016(1) 0.0002(1) 0.0003(1) -.0009(1)
O1 O2- 0.0008(4) 0.0017(5) 0.0019(4) -.0004(6) 0 0
O2 O2- 0.0009(3) 0.0047(8) 0.0014(3) 0.0005(5) -.0002(3) -.0001(5)
O3 O2- 0.0019(4) 0.0015(4) 0.0009(3) -.0003(4) 0.0003(3) 0.0000(3)
#End of data_78968-ICSD


