data_75500-ICSD
#?2014 by Fachinformationszentrum Karlsruhe, and the U.S. Secretary of 
#Commerce on behalf of the United States.  All rights reserved.
_database_code_ICSD                75500
_audit_creation_date               1996/04/22
_audit_update_record               2010/02/01
_chemical_name_systematic
;
Potassium Bismuth Phyllo-hexaselenodiphosphate(IV)
;
_chemical_formula_structural       'K Bi (P2 Se6)'
_chemical_formula_sum              'Bi1 K1 P2 Se6'
_publ_section_title
;
Coordination chemistry of (P2 Se6)4- in molten fluxes. Isolation of 
the structurally complex K M P2 Se6 (M= Sb, Bi)
;
loop_
_citation_id
_citation_journal_abbrev
_citation_year
_citation_journal_volume
_citation_page_first
_citation_page_last
_citation_journal_id_ASTM
primary 'Journal of the Chemical Society. Chemical Communications (1972-)'
 1994 1994 1089 1090 JCCCAT
_publ_author_name                  'McCarthy, T.J.;Kanatzidis, M.G.'
_cell_length_a                     12.403(5)
_cell_length_b                     7.595(2)
_cell_length_c                     12.412(3)
_cell_angle_alpha                  90.
_cell_angle_beta                   111.58(3)
_cell_angle_gamma                  90.
_cell_volume                       1087.26
_cell_formula_units_Z              4
_symmetry_space_group_name_H-M     'P 1 21/c 1'
_symmetry_Int_Tables_number        14
_refine_ls_R_factor_all            .039
loop_
_symmetry_equiv_pos_site_id
_symmetry_equiv_pos_as_xyz
  1	'x, -y+.5, z+.5'
  2	'-x, -y, -z'
  3	'-x, y+.5, -z+.5'
  4	'x, y, z'
loop_
_atom_type_symbol
_atom_type_oxidation_number
Bi3+	3
K1+	1
P4+	4
Se2-	-2
loop_
_atom_site_label
_atom_site_type_symbol
_atom_site_symmetry_multiplicity
_atom_site_Wyckoff_symbol
_atom_site_fract_x
_atom_site_fract_y
_atom_site_fract_z
_atom_site_occupancy
_atom_site_attached_hydrogens
Bi1 Bi3+ 4 e 0.11808(7) 0.1546(1) 0.83190(7) 1. 0 
Se1 Se2- 4 e 0.1627(2) 0.5064(3) 0.9237(2) 1. 0 
Se2 Se2- 4 e 0.3109(2) 0.0012(3) 0.0618(2) 1. 0 
Se3 Se2- 4 e 0.3371(2) 0.2001(3) 0.8056(2) 1. 0 
Se4 Se2- 4 e 0.0576(2) 0.3118(3) 0.6116(2) 1. 0 
Se5 Se2- 4 e 0.1159(2) 0.8161(3) 0.6871(2) 1. 0 
Se6 Se2- 4 e 0.4097(2) 0.7311(3) 0.8841(2) 1. 0 
K1 K1+ 4 e 0.4089(4) 0.5818(7) 0.1387(4) 1. 0 
P1 P4+ 4 e 0.2377(4) 0.6271(8) 0.8037(4) 1. 0 
P2 P4+ 4 e 0.2397(4) 0.4064(7) 0.6850(4) 1. 0 

loop_
_atom_site_aniso_label
_atom_site_aniso_type_symbol
_atom_site_aniso_U_11
_atom_site_aniso_U_22
_atom_site_aniso_U_33
_atom_site_aniso_U_12
_atom_site_aniso_U_13
_atom_site_aniso_U_23
Bi1 Bi3+ 0.0274(5) 0.0250(5) 0.0265(4) -.0024(4) 0.0108(3) 0.0041(4)
Se1 Se2- 0.023(1) 0.024(1) 0.021(1) -.003(1) 0.0105(9) -.0025(9)
Se2 Se2- 0.031(1) 0.036(1) 0.022(1) 0.008(1) 0.014(1) 0.005(1)
Se3 Se2- 0.019(1) 0.023(1) 0.030(1) 0.003(1) 0.0082(9) 0.004(1)
Se4 Se2- 0.021(1) 0.023(1) 0.019(1) -.004(1) 0.0022(8) -.0018(9)
Se5 Se2- 0.021(1) 0.020(1) 0.021(1) 0.002(1) 0.0042(8) 0.002(1)
Se6 Se2- 0.020(1) 0.027(1) 0.022(1) -.004(1) 0.0054(9) -.002(1)
K1 K1+ 0.031(3) 0.039(3) 0.030(3) 0.001(2) 0.011(2) 0.001(2)
P1 P4+ 0.020(3) 0.024(3) 0.017(3) -.001(2) 0.005(2) -.005(2)
P2 P4+ 0.019(3) 0.021(3) 0.017(3) 0.001(2) 0.007(2) -.002(2)
#End of data_75500-ICSD


