data_172993-ICSD
#?2014 by Fachinformationszentrum Karlsruhe, and the U.S. Secretary of 
#Commerce on behalf of the United States.  All rights reserved.
_database_code_ICSD                172993
_audit_creation_date               2008/02/01
_chemical_name_systematic          'Magnesium Dichloride Monohydrate'
_chemical_formula_structural       '(Mg Cl2) H2 O'
_chemical_formula_sum              'H2 Cl2 Mg1 O1'
_publ_section_title
;
Structures of three dehydration products of bischofite from in situ 
synchrotron powder diffraction data, (Mg Cl2.nH2 O; n = 1, 2, 4)
;
loop_
_citation_id
_citation_journal_abbrev
_citation_year
_citation_journal_volume
_citation_journal_issue
_citation_page_first
_citation_page_last
_citation_journal_id_ASTM
primary 'Acta Crystallographica, Section B: Structural Science'
 2007 63 2 235 242 ASBSDK
_publ_author_name
;
Sugimoto, K.;Dinnebier, R.E.;Hanson, J.C.
;
_cell_length_a                     8.9171(6)
_cell_length_b                     3.63421(18)
_cell_length_c                     11.4775(7)
_cell_angle_alpha                  90.0
_cell_angle_beta                   90.0
_cell_angle_gamma                  90.0
_cell_volume                       371.95
_cell_formula_units_Z              4
_symmetry_space_group_name_H-M     'P n m a'
_symmetry_Int_Tables_number        62
_refine_ls_R_factor_all            .009
loop_
_symmetry_equiv_pos_site_id
_symmetry_equiv_pos_as_xyz
  1	'x+.5, y, -z+.5'
  2	'x, -y+.5, z'
  3	'-x+.5, y+.5, z+.5'
  4	'-x, -y, -z'
  5	'-x+.5, -y, z+.5'
  6	'-x, y+.5, -z'
  7	'x+.5, -y+.5, -z+.5'
  8	'x, y, z'
loop_
_atom_type_symbol
_atom_type_oxidation_number
Cl1-	-1
H1+	1
Mg2+	2
O2-	-2
loop_
_atom_site_label
_atom_site_type_symbol
_atom_site_symmetry_multiplicity
_atom_site_Wyckoff_symbol
_atom_site_fract_x
_atom_site_fract_y
_atom_site_fract_z
_atom_site_occupancy
_atom_site_attached_hydrogens
_atom_site_U_iso_or_equiv
Mg1 Mg2+ 4 c 0.1833(3) 0.25 0.0192(4) 1.0 0 0.0466(10) 
Cl1 Cl1- 4 c 0.3130(2) -0.25 -0.0854(2) 1.0 0 0.0375(9) 
Cl2 Cl1- 4 c 0.0341(3) 0.75 0.12531(18) 1.0 0 0.0432(11) 
O1 O2- 4 c 0.3251(5) 0.25 0.1449(4) 1.0 0 0.049(2) 
H1 H1+ 4 c 0.3038(8) 0.25 0.2287(4) 1.0 0 0.054(3) 
H2 H1+ 4 c 0.4348(5) 0.25 0.1396(7) 1.0 0 0.054(3) 

#End of data_172993-ICSD


