data_64984-ICSD
#?2014 by Fachinformationszentrum Karlsruhe, and the U.S. Secretary of 
#Commerce on behalf of the United States.  All rights reserved.
_database_code_ICSD                64984
_audit_creation_date               1998/06/26
_audit_update_record               2012/02/01
_chemical_name_systematic          'Silver Arsenic Sulfide'
_chemical_formula_structural       'Ag As S2'
_chemical_formula_sum              'Ag1 As1 S2'
_chemical_name_mineral             Smithite
_publ_section_title
;
Die Struktur des Smithits, Ag As S2
;
loop_
_citation_id
_citation_journal_abbrev
_citation_year
_citation_journal_volume
_citation_page_first
_citation_page_last
_citation_journal_id_ASTM
primary Naturwissenschaften 1964 51 35 36 NATWAY
2 'Phase Transition' 1992 38 127 220 PHTRDP
_publ_author_name                  'Hellner, E.;Burzlaff, H.'
_cell_length_a                     17.23
_cell_length_b                     7.78
_cell_length_c                     15.19
_cell_angle_alpha                  90.
_cell_angle_beta                   101.2
_cell_angle_gamma                  90.
_cell_volume                       1997.43
_cell_formula_units_Z              24
_symmetry_space_group_name_H-M     'A 1 2/a 1'
_symmetry_Int_Tables_number        15
_refine_ls_R_factor_all            .125
loop_
_symmetry_equiv_pos_site_id
_symmetry_equiv_pos_as_xyz
  1	'-x+.5, y, -z'
  2	'-x, -y, -z'
  3	'x+.5, -y, z'
  4	'x, y, z'
  5	'-x+.5, y+.5, -z+.5'
  6	'-x, -y+.5, -z+.5'
  7	'x+.5, -y+.5, z+.5'
  8	'x, y+.5, z+.5'
loop_
_atom_type_symbol
_atom_type_oxidation_number
Ag1+	1
As3+	3
S2-	-2
loop_
_atom_site_label
_atom_site_type_symbol
_atom_site_symmetry_multiplicity
_atom_site_Wyckoff_symbol
_atom_site_fract_x
_atom_site_fract_y
_atom_site_fract_z
_atom_site_occupancy
_atom_site_attached_hydrogens
_atom_site_B_iso_or_equiv
Ag1 Ag1+ 8 f 0.0908(2) 0.1195(3) 0.3561(2) 1. 0 3.12(8) 
Ag2 Ag1+ 8 f 0.4189(2) 0.6201(3) 0.4325(2) 1. 0 3.88(8) 
Ag3 Ag1+ 4 e 0.25 0.3877(5) 0.5 1. 0 3.38(8) 
Ag4 Ag1+ 4 e 0.25 0.8740(5) 0.5 1. 0 3.10(8) 
As1 As3+ 8 f 0.2661(2) 0.3636(3) 0.2530(2) 1. 0 1.02(5) 
As2 As3+ 8 f 0.4216(2) 0.1231(3) 0.1728(2) 1. 0 1.04(5) 
As3 As3+ 8 f 0.4143(2) 0.1243(3) 0.4079(2) 1. 0 1.06(5) 
S1 S2- 8 f 0.1013(4) 0.9115(8) 0.4985(5) 1. 0 1.5(1) 
S2 S2- 8 f 0.0863(4) 0.4141(8) 0.4299(3) 1. 0 1.4(1) 
S3 S2- 8 f 0.2208(4) 0.6736(8) 0.1267(5) 1. 0 1.3(1) 
S4 S2- 8 f 0.2860(4) 0.1645(8) 0.1427(5) 1. 0 1.3(1) 
S5 S2- 8 f 0.3875(4) 0.4684(8) 0.2833(5) 1. 0 1.6(1) 
S6 S2- 8 f 0.0725(4) 0.4450(8) 0.2072(5) 1. 0 1.3(1) 

#End of data_64984-ICSD


