data_25019-ICSD
#?2014 by Fachinformationszentrum Karlsruhe, and the U.S. Secretary of 
#Commerce on behalf of the United States.  All rights reserved.
_database_code_ICSD                25019
_audit_creation_date               1980/01/01
_audit_update_record               2006/04/01
_chemical_name_systematic          'Disodium Platinate - Alpha'
_chemical_formula_structural       'Na2 (Pt O3)'
_chemical_formula_sum              'Na2 O3 Pt1'
_publ_section_title
;
Zur Kenntnis der Oxoplatinate Na2 Pt O2, Na2 Pt O3, (K2 Pt O3) und 
(Rb2 Pt O3)
;
loop_
_citation_id
_citation_journal_abbrev
_citation_year
_citation_journal_volume
_citation_page_first
_citation_page_last
_citation_journal_id_ASTM
primary 'Zeitschrift fuer Anorganische und Allgemeine Chemie (1950) (DE)'
 1972 392 23 36 ZAACAB
2 'Phase Transition' 1992 38 127 220 PHTRDP
_publ_author_name                  'Urland, W.;Hoppe, R.'
_cell_length_a                     5.419
_cell_length_b                     9.385
_cell_length_c                     10.752
_cell_angle_alpha                  90.
_cell_angle_beta                   99.67
_cell_angle_gamma                  90.
_cell_volume                       539.05
_cell_formula_units_Z              8
_symmetry_space_group_name_H-M     'C 1 2/c 1'
_symmetry_Int_Tables_number        15
loop_
_symmetry_equiv_pos_site_id
_symmetry_equiv_pos_as_xyz
  1	'x, -y, z+.5'
  2	'-x, -y, -z'
  3	'-x, y, -z+.5'
  4	'x, y, z'
  5	'x+.5, -y+.5, z+.5'
  6	'-x+.5, -y+.5, -z'
  7	'-x+.5, y+.5, -z+.5'
  8	'x+.5, y+.5, z'
loop_
_atom_type_symbol
_atom_type_oxidation_number
Na1+	1
O2-	-2
Pt4+	4
loop_
_atom_site_label
_atom_site_type_symbol
_atom_site_symmetry_multiplicity
_atom_site_Wyckoff_symbol
_atom_site_fract_x
_atom_site_fract_y
_atom_site_fract_z
_atom_site_occupancy
_atom_site_attached_hydrogens
Na1 Na1+ 8 f 0.261 0.578 0.001 1. 0 
Na2 Na1+ 4 c 0.25 0.25 0 1. 0 
Na3 Na1+ 4 e 0 0.918 0.25 1. 0 
Pt1 Pt4+ 4 e 0 0.249 0.25 1. 0 
Pt2 Pt4+ 4 e 0 0.584 0.25 1. 0 
O1 O2- 8 f 0.15 0.101 0.148 1. 0 
O2 O2- 8 f 0.095 0.415 0.149 1. 0 
O3 O2- 8 f 0.146 0.735 0.148 1. 0 

#End of data_25019-ICSD


