data_165350-ICSD
#?2014 by Fachinformationszentrum Karlsruhe, and the U.S. Secretary of 
#Commerce on behalf of the United States.  All rights reserved.
_database_code_ICSD                165350
_audit_creation_date               2010/02/01
_chemical_name_systematic
;
Tetrapotassium Europium Bis(tetraselenophosphate(V))
;
_chemical_formula_structural       'K4 Eu (P Se4)2'
_chemical_formula_sum              'Eu1 K4 P2 Se8'
_publ_section_title
;
Chemistry in molten alkali metal polyselenophosphate fluxes. 
Influence of flux composition on dimensionality. Layers and chains in 
A Pb P Se4, A4 Pb (P Se4)2 (A= Rb, Cs) and K4 Eu (P Se4)2
;
loop_
_citation_id
_citation_journal_abbrev
_citation_year
_citation_journal_volume
_citation_journal_issue
_citation_page_first
_citation_page_last
_citation_journal_id_ASTM
primary 'Inorganic Chemistry' 1996 35 4 840 844 INOCAJ
_publ_author_name
;
Chondroudis, K.;McCarthy, T.J.;Kanatzidis, M.G.
;
_cell_length_a                     19.020(4)
_cell_length_b                     9.131(1)
_cell_length_c                     10.198(2)
_cell_angle_alpha                  90.
_cell_angle_beta                   90.
_cell_angle_gamma                  90.
_cell_volume                       1771.1
_cell_formula_units_Z              4
_symmetry_space_group_name_H-M     'I b a m'
_symmetry_Int_Tables_number        72
_refine_ls_R_factor_all            .041
loop_
_symmetry_equiv_pos_site_id
_symmetry_equiv_pos_as_xyz
  1	'-x, y, z+.5'
  2	'x, -y, z+.5'
  3	'x, y, -z'
  4	'-x, -y, -z'
  5	'x, -y, -z+.5'
  6	'-x, y, -z+.5'
  7	'-x, -y, z'
  8	'x, y, z'
  9	'-x+.5, y+.5, z'
 10	'x+.5, -y+.5, z'
 11	'x+.5, y+.5, -z+.5'
 12	'-x+.5, -y+.5, -z+.5'
 13	'x+.5, -y+.5, -z'
 14	'-x+.5, y+.5, -z'
 15	'-x+.5, -y+.5, z+.5'
 16	'x+.5, y+.5, z+.5'
loop_
_atom_type_symbol
_atom_type_oxidation_number
Eu2+	2
K1+	1
P5+	5
Se2-	-2
loop_
_atom_site_label
_atom_site_type_symbol
_atom_site_symmetry_multiplicity
_atom_site_Wyckoff_symbol
_atom_site_fract_x
_atom_site_fract_y
_atom_site_fract_z
_atom_site_occupancy
_atom_site_attached_hydrogens
_atom_site_B_iso_or_equiv
Eu1 Eu2+ 4 a 0 0 0.250 1. 0 0.93(5) 
Se1 Se2- 16 k 0.07802(7) 0.3010(1) 0.3267(1) 1. 0 1.42(5) 
Se2 Se2- 8 j 0.1052(1) 0.0319(2) 0 1. 0 1.08(7) 
Se3 Se2- 8 j 0.2583(1) 0.2473(2) 0 1. 0 1.42(8) 
P1 P5+ 8 j 0.1286(2) 0.2056(5) 0.5 1. 0 0.8(2) 
K1 K1+ 8 j 0.0847(2) 0.3827(4) 0 1. 0 1.7(2) 
K2 K1+ 8 f 0.2405(2) 0 0.250 1. 0 2.2(2) 

loop_
_atom_site_aniso_label
_atom_site_aniso_type_symbol
_atom_site_aniso_U_11
_atom_site_aniso_U_22
_atom_site_aniso_U_33
_atom_site_aniso_U_12
_atom_site_aniso_U_13
_atom_site_aniso_U_23
Eu1 Eu2+ 0.0101(7) 0.0127(6) 0.0125(7) 0. 0. 0.
Se1 Se2- 0.0249(8) 0.0156(6) 0.0136(7) -0.0001(5) -0.0059(6) 0.0020(5)
Se2 Se2- 0.011(1) 0.0107(9) 0.019(1) 0.0006(7) 0. 0.
Se3 Se2- 0.010(1) 0.022(1) 0.022(1) -0.0043(7) 0. 0.
P1 P5+ 0.027(2) 0.017(2) 0.020(2) 0.003(2) 0. 0.
K1 K1+ 0.036(3) 0.029(2) 0.020(2) 0. 0. -0.003(2)
K2 K1+ 0.007(2) 0.012(2) 0.013(2) -0.001(2) 0. 0.
#End of data_165350-ICSD


