data_27769-ICSD
#?2014 by Fachinformationszentrum Karlsruhe, and the U.S. Secretary of 
#Commerce on behalf of the United States.  All rights reserved.
_database_code_ICSD                27769
_audit_creation_date               1980/01/01
_audit_update_record               2012/08/01
_chemical_name_systematic          'Lithium Gadolinium Oxide'
_chemical_formula_structural       'Li Gd O2'
_chemical_formula_sum              'Gd1 Li1 O2'
_publ_section_title
;
Une nouvelle classe de composes Li T O2 (T = Sm, Eu, Gd)
;
loop_
_citation_id
_citation_journal_abbrev
_citation_year
_citation_journal_volume
_citation_page_first
_citation_page_last
_citation_journal_id_ASTM
primary
;
Bulletin de la Societe Francaise de Mineralogie et de 
Cristallographie (72,1949-100,1977)
;
 1963 86 301 302 BUFCAE
_publ_author_name                  'Gondrand, M.;Bertaut, E.F.'
_cell_length_a                     5.326
_cell_length_b                     11.34
_cell_length_c                     3.448
_cell_angle_alpha                  90.
_cell_angle_beta                   90.
_cell_angle_gamma                  90.
_cell_volume                       208.25
_cell_formula_units_Z              4
_symmetry_space_group_name_H-M     'P b n m'
_symmetry_Int_Tables_number        62
loop_
_symmetry_equiv_pos_site_id
_symmetry_equiv_pos_as_xyz
  1	'-x+.5, y+.5, z'
  2	'x, y, -z+.5'
  3	'x+.5, -y+.5, z+.5'
  4	'-x, -y, -z'
  5	'x+.5, -y+.5, -z'
  6	'-x, -y, z+.5'
  7	'-x+.5, y+.5, -z+.5'
  8	'x, y, z'
loop_
_atom_type_symbol
_atom_type_oxidation_number
Gd3+	3
Li1+	1
O2-	-2
loop_
_atom_site_label
_atom_site_type_symbol
_atom_site_symmetry_multiplicity
_atom_site_Wyckoff_symbol
_atom_site_fract_x
_atom_site_fract_y
_atom_site_fract_z
_atom_site_occupancy
_atom_site_attached_hydrogens
Gd1 Gd3+ 4 c 0.05 0.137 0.25 1. 0 
Li1 Li1+ 4 c 0.41 0.91 0.25 1. 0 
O1 O2- 4 c 0.72 0.80 0.25 1. 0 
O2 O2- 4 c 0.18 0.97 0.25 1. 0 

#End of data_27769-ICSD


