data_93569-ICSD
#?2014 by Fachinformationszentrum Karlsruhe, and the U.S. Secretary of 
#Commerce on behalf of the United States.  All rights reserved.
_database_code_ICSD                93569
_audit_creation_date               2003/04/01
_audit_update_record               2012/02/01
_chemical_name_systematic
;
Dipotassium Tecto-titanohexasilicate
;
_chemical_formula_structural       'K2 (Ti Si6 O15)'
_chemical_formula_sum              'K2 O15 Si6 Ti1'
_publ_section_title
;
First Rb silicotitanate phase and its K-structural analogue: new 
members of the SNL-A family (Cc - A2 Ti Si6 O15; A = K, Rb, Cs)
;
loop_
_citation_id
_citation_journal_abbrev
_citation_year
_citation_journal_volume
_citation_page_first
_citation_page_last
_citation_journal_id_ASTM
primary 'Chemistry of Materials' 2001 13 4603 4611 CMATEX
_publ_author_name
;
Nyman, M.;Bonhomme, F.;Maxwell, R.S.;Nenoff, T.M.
;
_cell_length_a                     12.570(2)
_cell_length_b                     7.2534(3)
_cell_length_c                     15.082(3)
_cell_angle_alpha                  90
_cell_angle_beta                   106.49(3)
_cell_angle_gamma                  90
_cell_volume                       1318.55
_cell_formula_units_Z              4
_symmetry_space_group_name_H-M     'C 1 c 1'
_symmetry_Int_Tables_number        9
_refine_ls_R_factor_all            .038
loop_
_symmetry_equiv_pos_site_id
_symmetry_equiv_pos_as_xyz
  1	'x, -y, z+.5'
  2	'x, y, z'
  3	'x+.5, -y+.5, z+.5'
  4	'x+.5, y+.5, z'
loop_
_atom_type_symbol
_atom_type_oxidation_number
K1+	1
O2-	-2
Si4+	4
Ti4+	4
loop_
_atom_site_label
_atom_site_type_symbol
_atom_site_symmetry_multiplicity
_atom_site_Wyckoff_symbol
_atom_site_fract_x
_atom_site_fract_y
_atom_site_fract_z
_atom_site_occupancy
_atom_site_attached_hydrogens
_atom_site_B_iso_or_equiv
K1 K1+ 4 a 0.2597 0.426(1) 0.4815 1. 0 5.3(2) 
K2 K1+ 4 a 0.296(1) 0.176(1) 0.7921(7) 1. 0 5.3(2) 
Ti1 Ti4+ 4 a 0.547(1) 0.250(1) 0.3675(8) 1. 0 4.4(2) 
Si1 Si4+ 4 a -0.021(1) 0.047(1) 0.1994(7) 1. 0 5.5(1) 
Si2 Si4+ 4 a 0.022(1) 0.069(1) 0.5110(8) 1. 0 5.5(1) 
Si3 Si4+ 4 a 0.087(1) 0.410(1) 0.2301(8) 1. 0 5.5(1) 
Si4 Si4+ 4 a 0.249(1) 0.051(1) 0.0255(8) 1. 0 5.5(1) 
Si5 Si4+ 4 a 0.313(1) 0.279(1) 0.2120(8) 1. 0 5.5(1) 
Si6 Si4+ 4 a 0.480(1) 0.022(1) 0.0266(8) 1. 0 5.5(1) 
O1 O2- 4 a -0.022(2) 0.049(2) -0.082(1) 1. 0 4.2(2) 
O2 O2- 4 a -0.004(2) 0.258(2) 0.236(1) 1. 0 4.2(2) 
O3 O2- 4 a 0.047(1) 0.516(2) 0.1338(9) 1. 0 4.2(2) 
O4 O2- 4 a -0.011(2) 0.031(2) 0.095(1) 1. 0 4.2(2) 
O5 O2- 4 a 0.156(1) 0.095(2) 0.536(1) 1. 0 4.2(2) 
O6 O2- 4 a 0.198(1) 0.298(2) 0.237(1) 1. 0 4.2(2) 
O7 O2- 4 a 0.286(2) 0.171(2) 0.117(1) 1. 0 4.2(2) 
O8 O2- 4 a 0.357(1) -0.060(2) 0.013(1) 1. 0 4.2(2) 
O9 O2- 4 a 0.357(1) 0.483(2) 0.198(1) 1. 0 4.2(2) 
O10 O2- 4 a 0.402(1) 0.172(2) 0.292(1) 1. 0 4.2(2) 
O11 O2- 4 a 0.466(1) 0.231(2) -0.007(1) 1. 0 4.2(2) 
O12 O2- 4 a 0.544(1) 0.091(2) 0.468(1) 1. 0 4.2(2) 
O13 O2- 4 a 0.567(1) 0.414(2) 0.267(1) 1. 0 4.2(2) 
O14 O2- 4 a 0.612(1) 0.046(2) 0.316(1) 1. 0 4.2(2) 
O15 O2- 4 a 0.698(1) 0.319(2) 0.439(1) 1. 0 4.2(2) 

#End of data_93569-ICSD


