data_108935-ICSD
#?2014 by Fachinformationszentrum Karlsruhe, and the U.S. Secretary of 
#Commerce on behalf of the United States.  All rights reserved.
_database_code_ICSD                108935
_audit_creation_date               2007/04/01
_chemical_name_systematic          'Tripotassium Manganate(V) - Beta'
_chemical_formula_structural       'K3 (Mn O4)'
_chemical_formula_sum              'K3 Mn1 O4'
_publ_section_title
;
Preparation, proprietes cristallographiques et magnetiques des phases 
K3 X O4 (X= V, Cr, Mn)
;
loop_
_citation_id
_citation_journal_abbrev
_citation_year
_citation_journal_volume
_citation_page_first
_citation_page_last
_citation_journal_id_ASTM
primary 'Zeitschrift fuer Anorganische und Allgemeine Chemie (1950) (DE)'
 1975 412 271 280 ZAACAB
_publ_author_name
;
Olazcuaga, R.;Reau, J.M.;le Flem, G.;Hagenmuller, P.
;
_cell_length_a                     5.90(1)
_cell_length_b                     5.90(1)
_cell_length_c                     8.01(2)
_cell_angle_alpha                  90.
_cell_angle_beta                   90.
_cell_angle_gamma                  90.
_cell_volume                       278.83
_cell_formula_units_Z              2
_symmetry_space_group_name_H-M     'I -4 2 m'
_symmetry_Int_Tables_number        121
loop_
_symmetry_equiv_pos_site_id
_symmetry_equiv_pos_as_xyz
  1	'-y, -x, z'
  2	'y, x, z'
  3	'y, -x, -z'
  4	'-y, x, -z'
  5	'x, -y, -z'
  6	'-x, y, -z'
  7	'-x, -y, z'
  8	'x, y, z'
  9	'-y+.5, -x+.5, z+.5'
 10	'y+.5, x+.5, z+.5'
 11	'y+.5, -x+.5, -z+.5'
 12	'-y+.5, x+.5, -z+.5'
 13	'x+.5, -y+.5, -z+.5'
 14	'-x+.5, y+.5, -z+.5'
 15	'-x+.5, -y+.5, z+.5'
 16	'x+.5, y+.5, z+.5'
loop_
_atom_type_symbol
_atom_type_oxidation_number
K1+	1
Mn5+	5
O2-	-2
loop_
_atom_site_label
_atom_site_type_symbol
_atom_site_symmetry_multiplicity
_atom_site_Wyckoff_symbol
_atom_site_fract_x
_atom_site_fract_y
_atom_site_fract_z
_atom_site_occupancy
_atom_site_attached_hydrogens
K1 K1+ 2 b 0 0 0.5 1. 0 
K2 K1+ 4 d 0 0.5 0.25 1. 0 
Mn1 Mn5+ 2 a 0 0 0 1. 0 
O1 O2- 8 i 0.170 0.170 0.095 1. 0 

#End of data_108935-ICSD


