data_425225-ICSD
#?2014 by Fachinformationszentrum Karlsruhe, and the U.S. Secretary of 
#Commerce on behalf of the United States.  All rights reserved.
_database_code_ICSD                425225
_audit_creation_date               2013/08/01
_chemical_name_systematic
;
Heptaantimony-octatellurium - Bis(heptachloridodigallate)-
tris(tetrachloridogallate)
;
_chemical_formula_structural       'Na (Sb7 Te8) (Ga Cl4)6'
_chemical_formula_sum              'Cl24 Ga6 Na1 Sb7 Te8'
_publ_section_title
;
(Sb7 Te8)5+ - A double cube shaped polycationic cluster
;
loop_
_citation_id
_citation_journal_abbrev
_citation_year
_citation_journal_volume
_citation_journal_issue
_citation_page_first
_citation_page_last
_citation_journal_id_ASTM
primary 'Zeitschrift fuer Anorganische und Allgemeine Chemie (1950) (DE)'
 2013 639 2 375 383 ZAACAB
_publ_author_name
;
Eich, Andreas;Schlueter, Stefan;Schnakenburg, Gregor;Beck, Johannes
;
_cell_length_a                     12.1822(12)
_cell_length_b                     12.7671(14)
_cell_length_c                     18.307(2)
_cell_angle_alpha                  92.021(4)
_cell_angle_beta                   90.129(3)
_cell_angle_gamma                  105.793(4)
_cell_volume                       2737.92
_cell_formula_units_Z              2
_symmetry_space_group_name_H-M     'P -1'
_symmetry_Int_Tables_number        2
_refine_ls_R_factor_all            .0613
loop_
_symmetry_equiv_pos_site_id
_symmetry_equiv_pos_as_xyz
  1	'-x, -y, -z'
  2	'x, y, z'
loop_
_atom_type_symbol
_atom_type_oxidation_number
Cl1-	-1
Ga3+	3
Na1+	1
Sb3+	3
Te2-	-2
loop_
_atom_site_label
_atom_site_type_symbol
_atom_site_symmetry_multiplicity
_atom_site_Wyckoff_symbol
_atom_site_fract_x
_atom_site_fract_y
_atom_site_fract_z
_atom_site_occupancy
_atom_site_attached_hydrogens
_atom_site_U_iso_or_equiv
Sb1 Sb3+ 2 i 0.25846(8) 0.25984(8) 0.25753(6) 1 0 0.0132(2) 
Sb2 Sb3+ 2 i 0.24058(8) 0.31966(8) 0.04869(6) 1 0 0.0164(2) 
Sb3 Sb3+ 2 i 0.28828(8) 0.19314(8) 0.46710(6) 1 0 0.0160(2) 
Sb4 Sb3+ 2 i -0.04967(8) 0.18876(8) 0.16043(6) 1 0 0.0155(2) 
Sb5 Sb3+ 2 i 0.56877(8) 0.30049(8) 0.34863(6) 1 0 0.0156(2) 
Sb6 Sb3+ 2 i 0.35878(8) -0.00278(8) 0.29863(6) 1 0 0.0157(2) 
Sb7 Sb3+ 2 i 0.13214(8) 0.50400(8) 0.20547(5) 1 0 0.0145(2) 
Te1 Te2- 2 i 0.03174(8) 0.37875(8) 0.07672(5) 1 0 0.0154(2) 
Te2 Te2- 2 i 0.38268(8) 0.38505(8) 0.38856(5) 1 0 0.0150(2) 
Te3 Te2- 2 i 0.16355(8) 0.06397(8) 0.34621(5) 1 0 0.0152(2) 
Te4 Te2- 2 i 0.15207(8) 0.12443(8) 0.12441(5) 1 0 0.0157(2) 
Te5 Te2- 2 i 0.03811(8) 0.31636(8) 0.28883(5) 1 0 0.0152(2) 
Te6 Te2- 2 i 0.34409(8) 0.46259(8) 0.16872(6) 1 0 0.0157(2) 
Te7 Te2- 2 i 0.47757(8) 0.10506(8) 0.42636(5) 1 0 0.0156(2) 
Te8 Te2- 2 i 0.46560(8) 0.18527(8) 0.21815(5) 1 0 0.0154(2) 
Ga1 Ga3+ 2 i -0.22093(13) 0.00689(13) 0.35258(9) 1 0 0.0156(3) 
Cl1 Cl1- 2 i -0.2436(3) 0.1658(3) 0.3276(2) 1 0 0.0257(9) 
Cl2 Cl1- 2 i -0.3846(3) -0.1104(3) 0.3623(2) 1 0 0.0245(9) 
Cl3 Cl1- 2 i -0.1193(3) 0.0169(3) 0.4511(2) 1 0 0.0244(9) 
Cl4 Cl1- 2 i -0.1185(3) -0.0348(3) 0.2625(2) 1 0 0.0201(8) 
Ga2 Ga3+ 2 i -0.32681(14) -0.12955(14) 0.09755(10) 1 0 0.0198(4) 
Cl5 Cl1- 2 i -0.3407(3) 0.0229(3) 0.1433(2) 1 0 0.0269(9) 
Cl6 Cl1- 2 i -0.4113(3) -0.1756(4) -0.0090(2) 1 0 0.0306(10) 
Cl7 Cl1- 2 i -0.3820(4) -0.2630(4) 0.1720(3) 1 0 0.0448(13) 
Cl8 Cl1- 2 i -0.1446(3) -0.1244(3) 0.0821(2) 1 0 0.0209(8) 
Ga3 Ga3+ 2 i 0.71270(13) 0.45942(14) 0.13636(10) 1 0 0.0184(4) 
Cl9 Cl1- 2 i 0.8730(3) 0.5861(3) 0.1218(2) 1 0 0.0258(9) 
Cl10 Cl1- 2 i 0.5969(3) 0.4571(3) 0.0472(2) 1 0 0.0247(9) 
Cl11 Cl1- 2 i 0.7482(3) 0.3034(3) 0.1476(3) 1 0 0.0373(12) 
Cl12 Cl1- 2 i 0.6391(3) 0.4958(3) 0.2394(2) 1 0 0.0260(9) 
Ga4 Ga3+ 2 i 0.84314(14) -0.39713(15) 0.41450(10) 1 0 0.0212(4) 
Cl13 Cl1- 2 i 0.9100(3) -0.2975(3) 0.5138(2) 1 0 0.0231(8) 
Cl14 Cl1- 2 i 0.9332(4) -0.3113(4) 0.3228(3) 1 0 0.0465(13) 
Cl15 Cl1- 2 i 0.6635(3) -0.3976(3) 0.4097(2) 1 0 0.0261(9) 
Cl16 Cl1- 2 i 0.8553(3) -0.5621(3) 0.4140(3) 1 0 0.0321(10) 
Ga5 Ga3+ 2 i 0.29877(13) -0.30844(13) 0.38988(9) 1 0 0.0161(4) 
Cl17 Cl1- 2 i 0.3643(3) -0.2905(3) 0.2792(2) 1 0 0.0239(8) 
Cl18 Cl1- 2 i 0.2591(3) -0.1596(3) 0.4295(2) 1 0 0.0207(8) 
Cl19 Cl1- 2 i 0.1509(3) -0.4478(3) 0.3869(2) 1 0 0.0256(9) 
Cl20 Cl1- 2 i 0.4242(3) -0.3381(3) 0.4662(2) 1 0 0.0213(8) 
Ga6 Ga3+ 2 i -0.20343(13) 0.17927(13) -0.09807(9) 1 0 0.0151(3) 
Cl21 Cl1- 2 i -0.1078(3) 0.1730(3) -0.1986(2) 1 0 0.0249(9) 
Cl22 Cl1- 2 i -0.2060(3) 0.3458(3) -0.0691(2) 1 0 0.0220(8) 
Cl23 Cl1- 2 i -0.3725(3) 0.0761(3) -0.1163(2) 1 0 0.0269(9) 
Cl24 Cl1- 2 i -0.1180(3) 0.1236(3) -0.0087(2) 1 0 0.0227(8) 
Na1 Na1+ 2 i 0.8322(9) -0.2535(8) 0.2116(6) 1 0 0.080(3) 

loop_
_atom_site_aniso_label
_atom_site_aniso_type_symbol
_atom_site_aniso_U_11
_atom_site_aniso_U_22
_atom_site_aniso_U_33
_atom_site_aniso_U_12
_atom_site_aniso_U_13
_atom_site_aniso_U_23
Sb1 Sb3+ 0.0132(5) 0.0131(5) 0.0136(5) 0.0037(4) 0.0013(4) 0.0041(4)
Sb2 Sb3+ 0.0215(5) 0.0145(5) 0.0140(5) 0.0056(4) 0.0058(4) 0.0042(4)
Sb3 Sb3+ 0.0190(5) 0.0148(5) 0.0145(5) 0.0047(4) 0.0037(4) 0.0045(4)
Sb4 Sb3+ 0.0132(5) 0.0145(5) 0.0177(5) 0.0016(4) 0.0009(4) 0.0028(4)
Sb5 Sb3+ 0.0129(5) 0.0145(5) 0.0191(6) 0.0028(4) 0.0004(4) 0.0039(4)
Sb6 Sb3+ 0.0195(5) 0.0115(5) 0.0165(5) 0.0043(4) 0.0017(4) 0.0017(4)
Sb7 Sb3+ 0.0162(5) 0.0126(5) 0.0150(5) 0.0047(4) 0.0004(4) 0.0006(4)
Te1 Te2- 0.0167(5) 0.0141(5) 0.0150(5) 0.0035(4) -0.0026(4) 0.0027(4)
Te2 Te2- 0.0179(5) 0.0115(5) 0.0157(5) 0.0041(4) 0.0008(4) 0.0018(4)
Te3 Te2- 0.0132(5) 0.0148(5) 0.0167(5) 0.0018(4) 0.0004(4) 0.0049(4)
Te4 Te2- 0.0197(5) 0.0118(5) 0.0162(5) 0.0051(4) 0.0020(4) 0.0018(4)
Te5 Te2- 0.0149(5) 0.0157(5) 0.0153(5) 0.0041(4) 0.0042(4) 0.0026(4)
Te6 Te2- 0.0131(5) 0.0143(5) 0.0192(5) 0.0022(4) 0.0008(4) 0.0048(4)
Te7 Te2- 0.0167(5) 0.0142(5) 0.0163(5) 0.0045(4) -0.0002(4) 0.0046(4)
Te8 Te2- 0.0144(5) 0.0157(5) 0.0160(5) 0.0036(4) 0.0044(4) 0.0037(4)
Ga1 Ga3+ 0.0151(8) 0.0141(8) 0.0170(9) 0.0024(7) 0.0022(7) 0.0048(7)
Cl1 Cl1- 0.025(2) 0.0168(19) 0.039(3) 0.0106(16) 0.0096(18) 0.0062(18)
Cl2 Cl1- 0.0184(19) 0.023(2) 0.030(2) 0.0003(16) 0.0030(16) 0.0074(18)
Cl3 Cl1- 0.024(2) 0.028(2) 0.021(2) 0.0052(17) 0.0002(16) 0.0031(17)
Cl4 Cl1- 0.0193(18) 0.023(2) 0.020(2) 0.0086(16) 0.0076(15) 0.0032(16)
Ga2 Ga3+ 0.0210(9) 0.0154(9) 0.0214(10) 0.0023(7) 0.0072(7) 0.0012(7)
Cl5 Cl1- 0.0144(18) 0.0155(19) 0.051(3) 0.0051(15) -0.0002(18) -0.0071(18)
Cl6 Cl1- 0.024(2) 0.036(3) 0.031(2) 0.0081(19) -0.0025(18) -0.007(2)
Cl7 Cl1- 0.059(3) 0.024(2) 0.048(3) 0.004(2) 0.035(3) 0.014(2)
Cl8 Cl1- 0.0212(19) 0.023(2) 0.020(2) 0.0085(16) 0.0026(15) 0.0044(16)
Ga3 Ga3+ 0.0151(8) 0.0166(9) 0.0233(10) 0.0031(7) 0.0008(7) 0.0078(7)
Cl9 Cl1- 0.0212(19) 0.021(2) 0.034(2) 0.0025(16) 0.0042(17) 0.0105(18)
Cl10 Cl1- 0.025(2) 0.032(2) 0.019(2) 0.0107(18) -0.0023(16) 0.0027(17)
Cl11 Cl1- 0.026(2) 0.021(2) 0.068(4) 0.0106(18) 0.018(2) 0.020(2)
Cl12 Cl1- 0.036(2) 0.023(2) 0.019(2) 0.0075(18) 0.0036(17) 0.0035(17)
Ga4 Ga3+ 0.0194(9) 0.0228(10) 0.0192(10) 0.0018(7) 0.0072(7) 0.0000(8)
Cl13 Cl1- 0.024(2) 0.019(2) 0.026(2) 0.0053(16) -0.0045(16) -0.0002(17)
Cl14 Cl1- 0.036(3) 0.066(4) 0.027(3) -0.005(2) 0.015(2) 0.012(2)
Cl15 Cl1- 0.025(2) 0.034(2) 0.020(2) 0.0101(18) -0.0018(16) -0.0054(18)
Cl16 Cl1- 0.025(2) 0.024(2) 0.046(3) 0.0051(17) 0.0055(19) -0.011(2)
Ga5 Ga3+ 0.0166(8) 0.0124(8) 0.0190(9) 0.0032(7) -0.0007(7) 0.0012(7)
Cl17 Cl1- 0.025(2) 0.023(2) 0.021(2) 0.0019(16) 0.0053(16) -0.0046(16)
Cl18 Cl1- 0.031(2) 0.0141(18) 0.020(2) 0.0099(16) 0.0046(16) 0.0013(15)
Cl19 Cl1- 0.0219(19) 0.021(2) 0.028(2) -0.0042(16) -0.0077(17) 0.0040(17)
Cl20 Cl1- 0.0210(18) 0.022(2) 0.023(2) 0.0090(16) -0.0040(16) -0.0008(16)
Ga6 Ga3+ 0.0156(8) 0.0135(8) 0.0162(9) 0.0035(7) 0.0024(7) 0.0038(7)
Cl21 Cl1- 0.0207(19) 0.032(2) 0.020(2) 0.0033(17) 0.0048(16) -0.0001(17)
Cl22 Cl1- 0.032(2) 0.0166(19) 0.019(2) 0.0096(16) -0.0015(16) 0.0004(16)
Cl23 Cl1- 0.0199(19) 0.026(2) 0.028(2) -0.0055(16) 0.0025(17) -0.0005(18)
Cl24 Cl1- 0.030(2) 0.022(2) 0.019(2) 0.0126(17) -0.0027(16) 0.0015(16)
Na1 Na1+ 0.106(8) 0.058(6) 0.077(8) 0.024(6) -0.044(6) -0.011(6)
#End of data_425225-ICSD


