data_415664-ICSD
#?2014 by Fachinformationszentrum Karlsruhe, and the U.S. Secretary of 
#Commerce on behalf of the United States.  All rights reserved.
_database_code_ICSD                415664
_audit_creation_date               2006/10/01
_audit_update_record               2008/02/01
_chemical_name_systematic
;
Tripotassium Trihydroxononaoxoborotriphosphate(V)
;
_chemical_formula_structural       'K3 (B P3 O9 (O H)3)'
_chemical_formula_sum              'H3 B1 K3 O12 P3'
_publ_section_title
;
Chain structures in alkali borophosphates: Synthesis and 
characterization of K3 [B P3 O9 (O H)3] and Rb3 [B2 P3 O11 (O H)2]
;
loop_
_citation_id
_citation_journal_abbrev
_citation_year
_citation_journal_volume
_citation_page_first
_citation_page_last
_citation_journal_id_ASTM
primary 'Inorganic Chemistry' 2005 44 6431 6438 INOCAJ
_publ_author_name
;
Ewald, B.;Prots', Yu.;Menezes, P.;Natarajan, S.;Zhang, H.;Kniep, R.
;
_cell_length_a                     24.546(8)
_cell_length_b                     7.363(2)
_cell_length_c                     14.062(4)
_cell_angle_alpha                  90
_cell_angle_beta                   118.35(2)
_cell_angle_gamma                  90
_cell_volume                       2236.64
_cell_formula_units_Z              8
_symmetry_space_group_name_H-M     'C 1 2/c 1'
_symmetry_Int_Tables_number        15
_refine_ls_R_factor_all            .043
loop_
_symmetry_equiv_pos_site_id
_symmetry_equiv_pos_as_xyz
  1	'x, -y, z+.5'
  2	'-x, -y, -z'
  3	'-x, y, -z+.5'
  4	'x, y, z'
  5	'x+.5, -y+.5, z+.5'
  6	'-x+.5, -y+.5, -z'
  7	'-x+.5, y+.5, -z+.5'
  8	'x+.5, y+.5, z'
loop_
_atom_type_symbol
_atom_type_oxidation_number
B3+	3
H1+	1
K1+	1
O2-	-2
P5+	5
loop_
_atom_site_label
_atom_site_type_symbol
_atom_site_symmetry_multiplicity
_atom_site_Wyckoff_symbol
_atom_site_fract_x
_atom_site_fract_y
_atom_site_fract_z
_atom_site_occupancy
_atom_site_attached_hydrogens
_atom_site_U_iso_or_equiv
K1 K1+ 8 f 0.26965(2) -0.00066(8) 0.08774(4) 1 0 0.01938(11) 
K2 K1+ 8 f 0.05429(3) 0.07252(8) 0.65928(4) 1 0 0.02229(12) 
K3 K1+ 8 f 0.39122(3) 0.16715(8) 0.52258(4) 1 0 0.02222(12) 
P1 P5+ 8 f 0.24211(2) -0.02089(8) 0.81085(4) 1 0 0.01095(11) 
P2 P5+ 8 f 0.10390(2) 0.12875(8) 0.95326(4) 1 0 0.01101(11) 
P3 P5+ 8 f 0.42847(3) 0.08797(8) 0.81311(4) 1 0 0.01233(11) 
B1 B3+ 8 f 0.16685(10) 0.2692(3) 0.15562(18) 1 0 0.0100(4) 
O1 O2- 8 f 0.44921(8) 0.0391(3) 0.41092(14) 1 0 0.0210(4) 
H1 H1+ 8 f 0.4745(12) 0.001(5) 0.458(2) 1 0 0.025 
O2 O2- 8 f 0.07028(8) -0.0063(2) 0.49135(13) 1 0 0.0166(3) 
O3 O2- 8 f 0.20457(9) 0.1326(3) 0.82824(16) 1 0 0.0223(4) 
H2 H1+ 8 f 0.1861(14) 0.098(5) 0.855(2) 1 0 0.027 
O4 O2- 8 f 0.26532(8) 0.1573(2) 0.39918(12) 1 0 0.0177(3) 
O5 O2- 8 f 0.05552(8) 0.2406(3) 0.85482(14) 1 0 0.0242(4) 
H3 H1+ 8 f 0.0700(15) 0.313(4) 0.835(3) 1 0 0.029 
O6 O2- 8 f 0.48389(8) 0.1993(3) 0.82264(13) 1 0 0.0186(3) 
O7 O2- 8 f 0.20216(7) 0.1000(2) 0.19552(12) 1 0 0.0141(3) 
O8 O2- 8 f 0.29506(7) 0.0700(2) 0.79653(12) 1 0 0.0134(3) 
O9 O2- 8 f 0.14359(7) 0.2775(2) 0.03834(12) 1 0 0.0140(3) 
O10 O2- 8 f 0.38269(7) 0.2343(2) 0.81451(13) 1 0 0.0135(3) 
O11 O2- 8 f 0.39666(8) 0.0164(3) 0.20820(14) 1 0 0.0214(4) 
O12 O2- 8 f 0.14603(9) -0.0266(3) 0.41999(16) 1 0 0.0257(4) 

loop_
_atom_site_aniso_label
_atom_site_aniso_type_symbol
_atom_site_aniso_U_11
_atom_site_aniso_U_22
_atom_site_aniso_U_33
_atom_site_aniso_U_12
_atom_site_aniso_U_13
_atom_site_aniso_U_23
K1 K1+ 0.0201(2) 0.0220(3) 0.0160(2) -0.0011(2) 0.00850(18) -0.00043(18)
K2 K1+ 0.0236(2) 0.0246(3) 0.0201(2) 0.0039(2) 0.0115(2) -0.00205(19)
K3 K1+ 0.0199(2) 0.0215(3) 0.0250(2) -0.0026(2) 0.0105(2) -0.00047(19)
P1 P5+ 0.0109(2) 0.0108(3) 0.0115(2) -0.00189(19) 0.00555(18) -0.00066(18)
P2 P5+ 0.0113(2) 0.0125(3) 0.0095(2) -0.00211(19) 0.00519(18) -0.00061(18)
P3 P5+ 0.0099(2) 0.0138(3) 0.0129(2) 0.0007(2) 0.00516(18) -0.00275(19)
B1 B3+ 0.0087(9) 0.0104(11) 0.0106(9) 0.0001(8) 0.0043(7) 0.0002(7)
O1 O2- 0.0184(8) 0.0214(10) 0.0205(8) -0.0027(7) 0.0072(7) -0.0055(7)
O2 O2- 0.0189(7) 0.0162(9) 0.0170(7) 0.0057(6) 0.0105(6) 0.0003(6)
O3 O2- 0.0255(9) 0.0162(9) 0.0364(10) 0.0016(7) 0.0239(8) -0.0002(7)
O4 O2- 0.0207(8) 0.0180(9) 0.0126(7) 0.0007(7) 0.0063(6) -0.0039(6)
O5 O2- 0.0184(8) 0.0276(11) 0.0156(8) -0.0061(7) -0.0010(6) 0.0092(7)
O6 O2- 0.0134(7) 0.0241(10) 0.0209(8) -0.0050(7) 0.0105(6) -0.0051(7)
O7 O2- 0.0147(7) 0.0131(8) 0.0112(6) 0.0054(6) 0.0036(5) -0.0006(5)
O8 O2- 0.0137(7) 0.0132(8) 0.0154(7) -0.0059(6) 0.0087(6) -0.0052(6)
O9 O2- 0.0163(7) 0.0137(8) 0.0097(6) -0.0049(6) 0.0044(5) -0.0003(5)
O10 O2- 0.0122(7) 0.0104(8) 0.0216(7) -0.0001(6) 0.0111(6) 0.0000(6)
O11 O2- 0.0182(8) 0.0236(10) 0.0204(8) 0.0018(7) 0.0076(6) 0.0119(7)
O12 O2- 0.0312(10) 0.0247(10) 0.0342(10) 0.0014(8) 0.0260(9) 0.0061(8)
#End of data_415664-ICSD


