data_93915-ICSD
#?2014 by Fachinformationszentrum Karlsruhe, and the U.S. Secretary of 
#Commerce on behalf of the United States.  All rights reserved.
_database_code_ICSD                93915
_audit_creation_date               2003/04/01
_chemical_name_systematic          'Disodium Tetranitro(III)palladate'
_chemical_formula_structural       'Na2 (Pd (N O2)4)'
_chemical_formula_sum              'N4 Na2 O8 Pd1'
_publ_section_title
;
Synthesis and crystal structure of trans-(Rb2 (Pd (N O2)2 Cl2)). 
Structure refinement of Na2 (Pd (N O2)4)
;
loop_
_citation_id
_citation_journal_abbrev
_citation_year
_citation_journal_volume
_citation_journal_issue
_citation_page_first
_citation_page_last
_citation_journal_id_ASTM
primary 'Zhurnal Strukturnoi Khimii (Issue-No. from 1981)'
 2001 42 1 145 150 ZSTKAI
2 'Journal of Structural Chemistry (USSR) (= Zhurnal Strukturnoi Khimii)'
 2001 42 1 120 125 JSTCAM
_publ_author_name
;
Baidina, I.A.;Gromilov, S.A.;Khranenko, S.P.;Vasil'ev, A.D.;Belyaev, 
A.V.
;
_cell_length_a                     15.431(3)
_cell_length_b                     4.606(1)
_cell_length_c                     11.208(2)
_cell_angle_alpha                  90
_cell_angle_beta                   90
_cell_angle_gamma                  90
_cell_volume                       796.61
_cell_formula_units_Z              4
_symmetry_space_group_name_H-M     'P n a 21'
_symmetry_Int_Tables_number        33
_refine_ls_R_factor_all            .025
loop_
_symmetry_equiv_pos_site_id
_symmetry_equiv_pos_as_xyz
  1	'x+.5, -y+.5, z'
  2	'-x+.5, y+.5, z+.5'
  3	'-x, -y, z+.5'
  4	'x, y, z'
loop_
_atom_type_symbol
_atom_type_oxidation_number
N3+	3
Na1+	1
O2-	-2
Pd2+	2
loop_
_atom_site_label
_atom_site_type_symbol
_atom_site_symmetry_multiplicity
_atom_site_Wyckoff_symbol
_atom_site_fract_x
_atom_site_fract_y
_atom_site_fract_z
_atom_site_occupancy
_atom_site_attached_hydrogens
_atom_site_U_iso_or_equiv
Pd1 Pd2+ 4 a 0.8762(1) -0.0003(1) 0.0742 1. 0 0.015(1) 
N1 N3+ 4 a 0.8952(6) 0.2760(12) -0.0671(9) 1. 0 0.022(2) 
N2 N3+ 4 a 0.8526(5) 0.7271(12) 0.2128(8) 1. 0 0.020(2) 
N3 N3+ 4 a 0.7557(3) -0.0906(10) 0.0156(5) 1. 0 0.019(1) 
N4 N3+ 4 a 0.9970(3) 0.0827(10) 0.1334(5) 1. 0 0.020(1) 
O1 O2- 4 a 0.9434(3) 0.4923(9) -0.0481(4) 1. 0 0.031 
O2 O2- 4 a 0.8587(5) 0.2460(12) 0.8369(12) 1. 0 0.037(2) 
O3 O2- 4 a 0.8127(3) 0.5025(10) 0.1978(5) 1. 0 0.032(1) 
O4 O2- 4 a 0.8834(4) 0.7766(14) 0.3144(11) 1. 0 0.032(2) 
O5 O2- 4 a 0.6909(2) -0.0017(11) 0.0709(16) 1. 0 0.033(1) 
O6 O2- 4 a 0.7443(4) 0.7522(8) -0.0774(7) 1. 0 0.026(1) 
O7 O2- 4 a 0.0613(2) 0.0009(10) 0.0786(14) 1. 0 0.031(1) 
O8 O2- 4 a 0.0076(4) 0.2264(11) 0.2204(7) 1. 0 0.035(2) 
Na1 Na1+ 4 a 0.9136(2) 0.2847(7) 0.4007(6) 1. 0 0.028(1) 
Na2 Na1+ 4 a 0.6659(2) 0.2635(5) 0.2478(6) 1. 0 0.027(1) 

#End of data_93915-ICSD


