data_419045-ICSD
#?2014 by Fachinformationszentrum Karlsruhe, and the U.S. Secretary of 
#Commerce on behalf of the United States.  All rights reserved.
_database_code_ICSD                419045
_audit_creation_date               2009/02/01
_chemical_name_systematic
;
Sodium Tetrahydridoborate Dihydrate
;
_chemical_formula_structural       'Na (B H4) (H2 O)2'
_chemical_formula_sum              'H8 B1 Na1 O2'
_publ_section_title
;
Structure and properties of Na (B H4) * 2 H2O and Na (B H4)
;
loop_
_citation_id
_citation_journal_abbrev
_citation_year
_citation_journal_volume
_citation_journal_issue
_citation_page_first
_citation_page_last
_citation_journal_id_ASTM
primary 'European Journal of Inorganic Chemistry  (online)'
 2008 2008 20 3127 3133 EJICFO
_publ_author_name                  'Filinchuk, Y.;Hagemann, H.'
_cell_length_a                     10.2870(9)
_cell_length_b                     6.8759(7)
_cell_length_c                     12.0651(12)
_cell_angle_alpha                  90.00
_cell_angle_beta                   90.00
_cell_angle_gamma                  90.00
_cell_volume                       853.39
_cell_formula_units_Z              8
_symmetry_space_group_name_H-M     'P b c a'
_symmetry_Int_Tables_number        61
_refine_ls_R_factor_all            .0212
loop_
_symmetry_equiv_pos_site_id
_symmetry_equiv_pos_as_xyz
  1	'x+.5, y, -z+.5'
  2	'x, -y+.5, z+.5'
  3	'-x+.5, y+.5, z'
  4	'-x, -y, -z'
  5	'-x+.5, -y, z+.5'
  6	'-x, y+.5, -z+.5'
  7	'x+.5, -y+.5, -z'
  8	'x, y, z'
loop_
_atom_type_symbol
_atom_type_oxidation_number
B3+	3
H1-	-1
H1+	1
Na1+	1
O2-	-2
loop_
_atom_site_label
_atom_site_type_symbol
_atom_site_symmetry_multiplicity
_atom_site_Wyckoff_symbol
_atom_site_fract_x
_atom_site_fract_y
_atom_site_fract_z
_atom_site_occupancy
_atom_site_attached_hydrogens
_atom_site_U_iso_or_equiv
Na1 Na1+ 8 c 0.67177(4) 0.04886(5) 0.51136(3) 1 0 0.01359(13) 
O1 O2- 8 c 0.48994(7) 0.14337(12) 0.39952(7) 1 0 0.01432(18) 
H1 H1+ 8 c 0.5052(13) 0.1090(19) 0.3383(13) 1 0 0.029(4) 
H2 H1+ 8 c 0.4795(15) 0.252(3) 0.3957(13) 1 0 0.045(5) 
O2 O2- 8 c 0.69405(8) -0.24469(12) 0.39506(6) 1 0 0.01592(18) 
H3 H1+ 8 c 0.7252(14) -0.231(2) 0.3383(13) 1 0 0.033(4) 
H4 H1+ 8 c 0.6273(14) -0.291(2) 0.3842(11) 1 0 0.030(4) 
B1 B3+ 8 c 0.88705(11) -0.09851(17) 0.64982(10) 1 0 0.0148(2) 
H5 H1- 8 c 0.8872(12) -0.0818(17) 0.5575(11) 1 0 0.026(3) 
H6 H1- 8 c 0.8013(13) -0.026(2) 0.6885(12) 1 0 0.038(4) 
H7 H1- 8 c 0.9781(13) -0.024(2) 0.6816(11) 1 0 0.034(4) 
H8 H1- 8 c 0.8908(13) -0.253(2) 0.6759(12) 1 0 0.039(4) 

loop_
_atom_site_aniso_label
_atom_site_aniso_type_symbol
_atom_site_aniso_U_11
_atom_site_aniso_U_22
_atom_site_aniso_U_33
_atom_site_aniso_U_12
_atom_site_aniso_U_13
_atom_site_aniso_U_23
Na1 Na1+ 0.0111(2) 0.0129(2) 0.0168(2) -0.00066(16) -0.00065(15) 
0.00085(16)
O1 O2- 0.0162(4) 0.0129(4) 0.0139(4) 0.0007(3) 0.0009(3) 0.0007(3)
O2 O2- 0.0131(4) 0.0199(4) 0.0148(4) -0.0015(3) 0.0000(3) 0.0000(3)
B1 B3+ 0.0155(6) 0.0130(6) 0.0159(6) 0.0006(5) -0.0027(4) 0.0001(5)
#End of data_419045-ICSD


