data_65462-ICSD
#?2014 by Fachinformationszentrum Karlsruhe, and the U.S. Secretary of 
#Commerce on behalf of the United States.  All rights reserved.
_database_code_ICSD                65462
_audit_creation_date               1989/12/04
_chemical_name_systematic          'Sodium Tetrabromoindate'
_chemical_formula_structural       'Na (In Br4)'
_chemical_formula_sum              'Br4 In1 Na1'
_publ_section_title
;
Synthese und Kristallstrukturen von Na In Br4 und Na In I4
;
loop_
_citation_id
_citation_journal_abbrev
_citation_year
_citation_journal_volume
_citation_page_first
_citation_page_last
_citation_journal_id_ASTM
primary 'Zeitschrift fuer Anorganische und Allgemeine Chemie (1950) (DE)'
 1989 574 107 113 ZAACAB
_publ_author_name                  'Staffel, T.;Meyer, G.'
_cell_length_a                     11.081(1)
_cell_length_b                     10.507(1)
_cell_length_c                     6.761(1)
_cell_angle_alpha                  90.
_cell_angle_beta                   90.
_cell_angle_gamma                  90.
_cell_volume                       787.17
_cell_formula_units_Z              4
_symmetry_space_group_name_H-M     'P 21 21 21'
_symmetry_Int_Tables_number        19
_refine_ls_R_factor_all            .1077
loop_
_symmetry_equiv_pos_site_id
_symmetry_equiv_pos_as_xyz
  1	'-x, y+.5, -z+.5'
  2	'x+.5, -y+.5, -z'
  3	'-x+.5, -y, z+.5'
  4	'x, y, z'
loop_
_atom_type_symbol
_atom_type_oxidation_number
Br1-	-1
In3+	3
Na1+	1
loop_
_atom_site_label
_atom_site_type_symbol
_atom_site_symmetry_multiplicity
_atom_site_Wyckoff_symbol
_atom_site_fract_x
_atom_site_fract_y
_atom_site_fract_z
_atom_site_occupancy
_atom_site_attached_hydrogens
Na1 Na1+ 4 a 0.1070(13) 0.2160(12) 0.6911(20) 1. 0 
In1 In3+ 4 a 0.0378(2) 0.4915(3) 0.2143(2) 1. 0 
Br1 Br1- 4 a 0.0377(2) 0.4966(4) 0.5839(3) 1. 0 
Br2 Br1- 4 a 0.1553(3) 0.3025(4) 0.1048(6) 1. 0 
Br3 Br1- 4 a 0.3326(2) 0.0099(5) 0.9391(4) 1. 0 
Br4 Br1- 4 a 0.3690(3) 0.3116(3) 0.5706(6) 1. 0 

loop_
_atom_site_aniso_label
_atom_site_aniso_type_symbol
_atom_site_aniso_U_11
_atom_site_aniso_U_22
_atom_site_aniso_U_33
_atom_site_aniso_U_12
_atom_site_aniso_U_13
_atom_site_aniso_U_23
Na1 Na1+ 0.114(11) 0.0557(82) 0.0575(91) -.0207(89) -.0191(90) -.0160(88)
In1 In3+ 0.0365(10) 0.0350(12) 0.0234(9) -.0010(16) 0.0030(9) -.0003(15)
Br1 Br1- 0.0544(16) 0.0541(17) 0.0244(12) 0.0059(29) -.0018(15) -.0008(30)
Br2 Br1- 0.0458(19) 0.0439(21) 0.0444(24) 0.0100(16) -.001(2) -.0064(27)
Br3 Br1- 0.0352(14) 0.0613(21) 0.0354(15) 0.0092(21) 0.0070(13) 0.0064(27)
Br4 Br1- 0.0477(20) 0.0390(21) 0.0414(23) -.0046(15) -.0026(19) -.0063(20)
#End of data_65462-ICSD


