data_280603-ICSD
#?2014 by Fachinformationszentrum Karlsruhe, and the U.S. Secretary of 
#Commerce on behalf of the United States.  All rights reserved.
_database_code_ICSD                280603
_audit_creation_date               2002/04/01
_chemical_name_systematic          'Potassium Dinitramide'
_chemical_formula_structural       'K (N3 O4)'
_chemical_formula_sum              'K1 N3 O4'
_publ_section_title
;
Anisotropic thermal expansion of potassium dinitramide: a variable-
temperature crystallographic study
;
loop_
_citation_id
_citation_journal_abbrev
_citation_year
_citation_journal_volume
_citation_page_first
_citation_page_last
_citation_journal_id_ASTM
primary 'Acta Crystallographica, Section B: Structural Science'
 2001 57 113 118 ASBSDK
_publ_author_name
;
Hardie, M.J.;Martin, A.;Pinkerton, A.A.;Zhurova, E.A.
;
_cell_length_a                     6.6162(2)
_cell_length_b                     9.2831(2)
_cell_length_c                     7.2000(3)
_cell_angle_alpha                  90.
_cell_angle_beta                   97.583(1)
_cell_angle_gamma                  90.
_cell_volume                       438.35
_cell_formula_units_Z              4
_symmetry_space_group_name_H-M     'P 1 21/n 1'
_symmetry_Int_Tables_number        14
_refine_ls_R_factor_all            .0507
loop_
_symmetry_equiv_pos_site_id
_symmetry_equiv_pos_as_xyz
  1	'-x+.5, y+.5, -z+.5'
  2	'-x, -y, -z'
  3	'x+.5, -y+.5, z+.5'
  4	'x, y, z'
loop_
_atom_type_symbol
_atom_type_oxidation_number
K1+	1
N1+	1
N3+	3
O2-	-2
loop_
_atom_site_label
_atom_site_type_symbol
_atom_site_symmetry_multiplicity
_atom_site_Wyckoff_symbol
_atom_site_fract_x
_atom_site_fract_y
_atom_site_fract_z
_atom_site_occupancy
_atom_site_attached_hydrogens
K1 K1+ 4 e 0.85793(7) 0.34205(5) 0.82918(7) 1. 0 
O1 O2- 4 e 1.0067(3) 0.3452(2) 0.2134(2) 1. 0 
O2 O2- 4 e 0.7282(3) 0.5379(2) 0.1588(3) 1. 0 
N1 N3+ 4 e 0.6491(3) 0.4622(2) 0.2679(3) 1. 0 
O3 O2- 4 e 0.4650(2) 0.4611(2) 0.2786(3) 1. 0 
N2 N1+ 4 e 0.7576(3) 0.3765(2) 0.4044(3) 1. 0 
N3 N3+ 4 e 0.9470(3) 0.3414(2) 0.3683(2) 1. 0 
O4 O2- 4 e 1.0578(2) 0.2952(2) 0.5078(2) 1. 0 

loop_
_atom_site_aniso_label
_atom_site_aniso_type_symbol
_atom_site_aniso_U_11
_atom_site_aniso_U_22
_atom_site_aniso_U_33
_atom_site_aniso_U_12
_atom_site_aniso_U_13
_atom_site_aniso_U_23
K1 K1+ 0.0340(3) 0.0406(3) 0.0296(3) -.0047(2) 0.0113(2) 0.0006(2)
O1 O2- 0.0374(9) 0.0612(11) 0.0269(9) 0.0045(7) 0.0148(7) 0.0022(7)
O2 O2- 0.0484(11) 0.0407(9) 0.0472(11) -.0032(7) 0.0053(8) 0.0145(7)
N1 N3+ 0.0337(9) 0.0285(9) 0.0346(10) 0.0009(7) 0.0065(8) -.0033(7)
O3 O2- 0.0327(9) 0.0525(10) 0.0575(12) 0.0101(7) 0.0100(8) -.0044(8)
N2 N1+ 0.033(1) 0.0364(10) 0.0316(10) 0.0073(7) 0.0146(8) 0.0047(7)
N3 N3+ 0.0300(9) 0.0294(9) 0.0259(9) -.0016(6) 0.0102(7) -.0021(6)
O4 O2- 0.0388(9) 0.0458(9) 0.0285(8) 0.0076(7) 0.0042(7) 0.0022(7)
#End of data_280603-ICSD


