data_8222-ICSD
#?2014 by Fachinformationszentrum Karlsruhe, and the U.S. Secretary of 
#Commerce on behalf of the United States.  All rights reserved.
_database_code_ICSD                8222
_audit_creation_date               1980/01/01
_chemical_name_systematic          'Lithium Silicate'
_chemical_formula_structural       'Li4 Si O4'
_chemical_formula_sum              'Li4 O4 Si1'
_publ_section_title
;
Crystal structure of ordered Li4 Si O4
;
loop_
_citation_id
_citation_journal_abbrev
_citation_year
_citation_journal_volume
_citation_page_first
_citation_page_last
_citation_journal_id_ASTM
primary 'Acta Crystallographica B (24,1968-38,1982)' 1979 35 2479 2487 ACBCAR
_publ_author_name
;
Duc Tran Qui;Shannon, R.D.;Chen, H.-Y.;Iijima, S.;Baur, W.H.
;
_cell_length_a                     11.546(3)
_cell_length_b                     6.090(2)
_cell_length_c                     16.645(3)
_cell_angle_alpha                  90.
_cell_angle_beta                   99.5
_cell_angle_gamma                  90.
_cell_volume                       1154.34
_cell_formula_units_Z              14
_symmetry_space_group_name_H-M     'P 1 21/m 1'
_symmetry_Int_Tables_number        11
_refine_ls_R_factor_all            .06
loop_
_symmetry_equiv_pos_site_id
_symmetry_equiv_pos_as_xyz
  1	'x, -y+.5, z'
  2	'-x, -y, -z'
  3	'-x, y+.5, -z'
  4	'x, y, z'
loop_
_atom_type_symbol
_atom_type_oxidation_number
Li1+	1
O2-	-2
Si4+	4
loop_
_atom_site_label
_atom_site_type_symbol
_atom_site_symmetry_multiplicity
_atom_site_Wyckoff_symbol
_atom_site_fract_x
_atom_site_fract_y
_atom_site_fract_z
_atom_site_occupancy
_atom_site_attached_hydrogens
_atom_site_B_iso_or_equiv
Si1 Si4+ 2 e 0.3416(2) 0.25 0.0056(2) 1. 0 0.82 
Si2 Si4+ 2 e 0.7540(2) 0.25 0.1386(2) 1. 0 0.74 
Si3 Si4+ 2 e 0.4772(2) 0.25 0.7152(2) 1. 0 0.37 
Si4 Si4+ 2 e 0.2003(2) 0.25 0.2924(2) 1. 0 0.33 
Si5 Si4+ 2 e 0.0406(2) 0.25 0.5773(2) 1. 0 0.83 
Si6 Si4+ 2 e 0.8941(2) 0.25 0.8567(2) 1. 0 0.3 
Si7 Si4+ 2 e 0.6145(2) 0.25 0.4280(2) 1. 0 0.48 
O1 O2- 4 f 0.3560(3) 0.0265(8) 0.0579(3) 1. 0 0.53 
O2 O2- 4 f 0.7860(4) 0.0342(8) 0.1956(3) 1. 0 1.45 
O3 O2- 4 f 0.4994(3) 0.0305(8) 0.7715(3) 1. 0 1.25 
O4 O2- 4 f 0.2185(3) 0.0283(8) 0.3484(3) 1. 0 0.7 
O5 O2- 4 f 0.0668(4) 0.0316(8) 0.6344(3) 1. 0 1.36 
O6 O2- 4 f 0.9269(3) 0.0330(7) 0.9175(2) 1. 0 0.38 
O7 O2- 4 f 0.6530(3) 0.0283(7) 0.4811(2) 1. 0 0.37 
O8 O2- 2 e 0.1998(5) 0.25 0.9638(4) 1. 0 0.92 
O9 O2- 2 e 0.6186(5) 0.25 0.0977(4) 1. 0 0.6 
O10 O2- 2 e 0.3352(5) 0.25 0.6744(4) 1. 0 0.45 
O11 O2- 2 e 0.0626(5) 0.25 0.2447(4) 1. 0 0.93 
O12 O2- 2 e 0.9082(5) 0.25 0.5278(4) 1. 0 0.71 
O13 O2- 2 e 0.7611(5) 0.25 0.8143(4) 1. 0 0.95 
O14 O2- 2 e 0.4745(5) 0.25 0.3985(4) 1. 0 0.87 
O15 O2- 2 e 0.4194(4) 0.25 0.9341(4) 1. 0 0.09 
O16 O2- 2 e 0.8436(5) 0.25 0.0682(4) 1. 0 0.88 
O17 O2- 2 e 0.5526(6) 0.25 0.6386(4) 1. 0 1.4 
O18 O2- 2 e 0.2842(5) 0.25 0.2228(4) 1. 0 1.2 
O19 O2- 2 e 0.1308(5) 0.25 0.5114(4) 1. 0 0.83 
O20 O2- 2 e 0.9918(5) 0.25 0.7957(4) 1. 0 0.73 
O21 O2- 2 e 0.6967(5) 0.25 0.3561(4) 1. 0 0.49 
Li1 Li1+ 4 f 0.3823(8) 0.0072(19) 0.4068(6) 1. 0 0.88 
Li2 Li1+ 4 f 0.8123(8) 0.0006(20) 0.5448(6) 1. 0 1.08 
Li3 Li1+ 4 f 0.6605(8) 0.0112(20) 0.8270(6) 1. 0 1.03 
Li4 Li1+ 4 f 0.5255(8) 0.9981(20) 0.1173(6) 1. 0 1.26 
Li5 Li1+ 2 e 0.2722(15) 0.25 0.8558(12) 1. 0 2.26 
Li6 Li1+ 2 e 0.4176(15) 0.25 0.5491(12) 1. 0 2.58 
Li7 Li1+ 2 e 0.1321(11) 0.25 0.1464(9) 1. 0 0.2 
Li8 Li1+ 2 e 0.9695(18) 0.25 0.4271(14) 1. 0 3.55 
Li9 Li1+ 2 e 0.4490(12) 0.25 0.278(1) 1. 0 1.22 
Li10 Li1+ 2 e 0.7272(12) 0.25 0.6977(10) 1. 0 0.9 
Li11 Li1+ 2 e 0.5940(13) 0.25 0.9794(10) 1. 0 1.13 
Li12 Li1+ 4 f 0.1962(7) 0.9631(17) 0.0192(6) 1. 0 0.33 
Li13 Li1+ 4 f 0.3309(8) 0.9681(20) 0.7279(7) 1. 0 1.43 
Li14 Li1+ 4 f 0.9515(9) 0.0298(20) 0.7108(7) 1. 0 1.68 
Li15 Li1+ 4 f 0.0790(14) 0.0278(33) 0.8663(10) 1. 0 4.79 
Li16 Li1+ 4 f 0.2373(9) 0.0379(20) 0.5977(7) 1. 0 1.73 
Li17 Li1+ 2 e 0.1407(15) 0.25 0.7360(12) 1. 0 2.31 
Li18 Li1+ 2 e 0.0082(16) 0.25 0.0076(12) 1. 0 2.3 
Li19 Li1+ 2 e 0.8701(19) 0.25 0.2956(15) 1. 0 4.04 

#End of data_8222-ICSD


