data_1119-ICSD
#?2014 by Fachinformationszentrum Karlsruhe, and the U.S. Secretary of 
#Commerce on behalf of the United States.  All rights reserved.
_database_code_ICSD                1119
_audit_creation_date               1980/01/01
_audit_update_record               2008/02/01
_chemical_name_systematic          'Dirubidium Zincate'
_chemical_formula_structural       'Rb2 (Zn O2)'
_chemical_formula_sum              'O2 Rb2 Zn1'
_publ_section_title
;
Koordinationszahl 3 bei Oxozincaten. Rb8 (O Zn O2 Zn O2 Zn O2 Zn O) 
und K2 (Zn6 O7)
;
loop_
_citation_id
_citation_journal_abbrev
_citation_year
_citation_journal_volume
_citation_page_first
_citation_page_last
_citation_journal_id_ASTM
primary 'Angewandte Chemie (German Edition)' 1977 89 498 499 ANCEAD
_publ_author_name                  'Wambach, K.R.;Hoppe, R.'
_cell_length_a                     9.558(2)
_cell_length_b                     6.335(2)
_cell_length_c                     15.909(3)
_cell_angle_alpha                  90.
_cell_angle_beta                   118.57(1)
_cell_angle_gamma                  90.
_cell_volume                       845.99
_cell_formula_units_Z              8
_symmetry_space_group_name_H-M     'P 1 21/c 1'
_symmetry_Int_Tables_number        14
_refine_ls_R_factor_all            .0732
loop_
_symmetry_equiv_pos_site_id
_symmetry_equiv_pos_as_xyz
  1	'x, -y+.5, z+.5'
  2	'-x, -y, -z'
  3	'-x, y+.5, -z+.5'
  4	'x, y, z'
loop_
_atom_type_symbol
_atom_type_oxidation_number
O2-	-2
Rb1+	1
Zn2+	2
loop_
_atom_site_label
_atom_site_type_symbol
_atom_site_symmetry_multiplicity
_atom_site_Wyckoff_symbol
_atom_site_fract_x
_atom_site_fract_y
_atom_site_fract_z
_atom_site_occupancy
_atom_site_attached_hydrogens
_atom_site_U_iso_or_equiv
Rb1 Rb1+ 4 e 0.3190(4) 0.9158(6) 0.7347(2) 1. 0 0 
Rb2 Rb1+ 4 e 0.1424(4) 0.8258(6) 0.4718(2) 1. 0 0 
Rb3 Rb1+ 4 e 0.0788(4) 0.3670(6) 0.3356(2) 1. 0 0 
Rb4 Rb1+ 4 e 0.4330(4) 0.0661(6) 0.3796(2) 1. 0 0 
Zn1 Zn2+ 4 e 0.4122(4) 0.4485(6) 0.5402(2) 1. 0 0 
Zn2 Zn2+ 4 e 0.2408(4) 0.3734(6) 0.6292(2) 1. 0 0 
O1 O2- 4 e 0.3669(22) 0.6346(35) 0.4277(13) 1. 0 0.0206(47) 
O2 O2- 4 e 0.3821(22) 0.6004(35) 0.6425(13) 1. 0 0.0188(46) 
O3 O2- 4 e 0.2578(22) 0.2186(33) 0.5272(13) 1. 0 0.0165(44) 
O4 O2- 4 e 0.8641(24) 0.6968(38) 0.3031(14) 1. 0 0.026(5) 

loop_
_atom_site_aniso_label
_atom_site_aniso_type_symbol
_atom_site_aniso_U_11
_atom_site_aniso_U_22
_atom_site_aniso_U_33
_atom_site_aniso_U_12
_atom_site_aniso_U_13
_atom_site_aniso_U_23
Rb1 Rb1+ 0.0320(16) 0.0268(11) 0.0215(15) 0.0052(15) 0.0185(13) -.0043(14)
Rb2 Rb1+ 0.0225(15) 0.0242(11) 0.0257(15) 0.0034(14) 0.0142(13) -.0033(14)
Rb3 Rb1+ 0.0320(16) 0.0282(11) 0.0241(15) 0.0036(15) 0.0227(13) -.0034(15)
Rb4 Rb1+ 0.0305(17) 0.0305(11) 0.0307(16) 0.0000(15) 0.0193(14) 0.0045(15)
Zn1 Zn2+ 0.0210(17) 0.0186(12) 0.0164(16) 0.0014(16) 0.0183(14) 0.0012(15)
Zn2 Zn2+ 0.0229(17) 0.0215(12) 0.0200(17) 0.0000(16) 0.0182(14) 0.0042(16)
#End of data_1119-ICSD


