data_281374-ICSD
#?2014 by Fachinformationszentrum Karlsruhe, and the U.S. Secretary of 
#Commerce on behalf of the United States.  All rights reserved.
_database_code_ICSD                281374
_audit_creation_date               2004/04/01
_audit_update_record               2006/04/01
_chemical_name_systematic
;
Pentalead Trialuminium Fluoride - Iii
;
_chemical_formula_structural       'Pb5 Al3 F19'
_chemical_formula_sum              'Al3 F19 Pb5'
_publ_section_title
;
Structure-property correlation over five phases and four transitions 
in Pb5 Al3 F19
;
loop_
_citation_id
_citation_journal_abbrev
_citation_year
_citation_journal_volume
_citation_page_first
_citation_page_last
_citation_journal_id_ASTM
primary 'Acta Crystallographica, Section B: Structural Science'
 2003 59 557 574 ASBSDK
2 'Golden Book of Phase Transitions, Wroclaw' 2002 1 1 123 GBOPT5
_publ_author_name
;
Abrahams, S.C.;Ravez, J.;Ritter, H.;Ihringer, J.
;
_cell_length_a                     14.2624(2)
_cell_length_b                     14.2808(2)
_cell_length_c                     7.2340(1)
_cell_angle_alpha                  90.001(10)
_cell_angle_beta                   90.509(1)
_cell_angle_gamma                  90.001(10)
_cell_volume                       1473.35
_cell_formula_units_Z              4
_symmetry_space_group_name_H-M     'I -1'
_symmetry_Int_Tables_number        2
_refine_ls_R_factor_all            .081
loop_
_symmetry_equiv_pos_site_id
_symmetry_equiv_pos_as_xyz
  1	'-x, -y, -z'
  2	'x, y, z'
  3	'-x+.5, -y+.5, -z+.5'
  4	'x+.5, y+.5, z+.5'
loop_
_atom_type_symbol
_atom_type_oxidation_number
Al3+	3
F1-	-1
Pb2+	2
loop_
_atom_site_label
_atom_site_type_symbol
_atom_site_symmetry_multiplicity
_atom_site_Wyckoff_symbol
_atom_site_fract_x
_atom_site_fract_y
_atom_site_fract_z
_atom_site_occupancy
_atom_site_attached_hydrogens
_atom_site_U_iso_or_equiv
Pb1 Pb2+ 4 i 0.2603(2) 0.4174(2) 0.5038(6) 1. 0 0.030(1) 
Pb2 Pb2+ 4 i 0.4124(5) -.2633(5) 0.4920(3) 1. 0 0.027(2) 
Pb3 Pb2+ 4 i 0.2222(3) -.0623(3) 0.4967(7) 1. 0 0.034(2) 
Pb4 Pb2+ 4 i 0.0610(3) 0.2110(3) 0.5001(5) 1. 0 0.025(5) 
Pb5 Pb2+ 4 i 0.0023(5) 0.4772(2) 0.2557(14) 1. 0 0.052(1) 
Al1 Al3+ 4 i 0.1519(14) 0.3193(13) -.010(3) 1. 0 0.007(1) 
Al2 Al3+ 4 i 0.6925(13) 0.1735(13) 0.021(3) 1. 0 0.007(1) 
Al3 Al3+ 4 i 0.0044(17) 0.0128(13) 0.245(3) 1. 0 0.007(1) 
F1 F1- 4 i 0.2878(13) 0.1155(13) 0.681(3) 1. 0 0.027(1) 
F2 F1- 4 i 0.6116(16) -.2637(17) 0.339(3) 1. 0 0.027(1) 
F3 F1- 4 i 0.2606(14) 0.6116(14) 0.349(3) 1. 0 0.012(1) 
F4 F1- 4 i -.2519(14) 0.3867(15) 0.333(2) 1. 0 0.012(1) 
F5 F1- 4 i 0.5735(13) 0.2107(13) 0.149(2) 1. 0 0.012(1) 
F6 F1- 4 i 0.4092(12) 0.2165(15) 0.305(3) 1. 0 0.027(1) 
F7 F1- 4 i 0.1895(13) 0.4066(14) 0.175(3) 1. 0 0.027(1) 
F8 F1- 4 i -.0912(11) 0.2937(13) 0.687(3) 1. 0 0.012(1) 
F9 F1- 4 i 0.0391(13) 0.3871(14) -.045(2) 1. 0 0.027(1) 
F10 F1- 4 i 0.6078(11) 0.0683(10) -.007(3) 1. 0 0.012(1) 
F11 F1- 4 i 0.2524(15) 0.2458(13) 0.055(2) 1. 0 0.027(1) 
F12 F1- 4 i 0.7357(10) 0.2641(11) 0.015(3) 1. 0 0.012(1) 
F13 F1- 2 e 0 0 0.5 1. 0 0.039(2) 
F14 F1- 2 a 0 0 0 1. 0 0.039(2) 
F15 F1- 4 i 0.1171(14) 0.0421(14) 0.254(3) 1. 0 0.025(1) 
F16 F1- 4 i -.1273(14) -.0583(14) 0.270(3) 1. 0 0.025(1) 
F17 F1- 4 i -.0565(15) 0.1069(16) 0.711(3) 1. 0 0.025(1) 
F18 F1- 4 i 0.0588(14) -.1055(15) 0.740(3) 1. 0 0.025(1) 
F19 F1- 4 i 0.1284(15) 0.5927(14) 0.037(2) 1. 0 0.024(1) 
F20 F1- 4 i 0.5811(13) -.1257(13) 0.005(3) 1. 0 0.024(1) 

#End of data_281374-ICSD


