data_407209-ICSD
#?2014 by Fachinformationszentrum Karlsruhe, and the U.S. Secretary of 
#Commerce on behalf of the United States.  All rights reserved.
_database_code_ICSD                407209
_audit_creation_date               1998/06/26
_audit_update_record               2008/02/01
_chemical_name_systematic          'Potassium Bismuthate'
_chemical_formula_structural       'K (Bi O2)'
_chemical_formula_sum              'Bi1 K1 O2'
_publ_section_title
;
Einkristallstrukturbestimmung an K Bi O2 und Rb Bi O2 und ein 
kristallchemischer Vergleich der Alkalibismutate(III) vom Typ M Bi O2 
(M= Na, K, Rb, Cs)
;
loop_
_citation_id
_citation_journal_abbrev
_citation_year
_citation_journal_volume
_citation_page_first
_citation_page_last
_citation_journal_id_ASTM
primary 'Zeitschrift fuer Anorganische und Allgemeine Chemie (1950) (DE)'
 1998 624 205 208 ZAACAB
_publ_author_name                  'Zoche, N.;Jansen, M.'
_cell_length_a                     7.8313(9)
_cell_length_b                     7.9092(10)
_cell_length_c                     5.9686(8)
_cell_angle_alpha                  90.
_cell_angle_beta                   124.81(1)
_cell_angle_gamma                  90.
_cell_volume                       303.53
_cell_formula_units_Z              4
_symmetry_space_group_name_H-M     'C 1 2/c 1'
_symmetry_Int_Tables_number        15
_refine_ls_R_factor_all            .0272
loop_
_symmetry_equiv_pos_site_id
_symmetry_equiv_pos_as_xyz
  1	'x, -y, z+.5'
  2	'-x, -y, -z'
  3	'-x, y, -z+.5'
  4	'x, y, z'
  5	'x+.5, -y+.5, z+.5'
  6	'-x+.5, -y+.5, -z'
  7	'-x+.5, y+.5, -z+.5'
  8	'x+.5, y+.5, z'
loop_
_atom_type_symbol
_atom_type_oxidation_number
Bi3+	3
K1+	1
O2-	-2
loop_
_atom_site_label
_atom_site_type_symbol
_atom_site_symmetry_multiplicity
_atom_site_Wyckoff_symbol
_atom_site_fract_x
_atom_site_fract_y
_atom_site_fract_z
_atom_site_occupancy
_atom_site_attached_hydrogens
Bi1 Bi3+ 4 e 0 0.10500(5) 0.25 1. 0 
K1 K1+ 4 e 0 -.3701(4) 0.25 1. 0 
O1 O2- 8 f -.1890(9) -.0644(9) 0.2761(12) 1. 0 

loop_
_atom_site_aniso_label
_atom_site_aniso_type_symbol
_atom_site_aniso_U_11
_atom_site_aniso_U_22
_atom_site_aniso_U_33
_atom_site_aniso_U_12
_atom_site_aniso_U_13
_atom_site_aniso_U_23
Bi1 Bi3+ 0.0121(3) 0.0095(3) 0.0094(3) 0 0.0074(2) 0
K1 K1+ 0.0139(11) 0.0162(10) 0.0117(11) 0 0.0070(9) 0
O1 O2- 0.015(3) 0.018(3) 0.011(2) -.002(2) 0.010(2) -.003(2)
#End of data_407209-ICSD


