data_416232-ICSD
#?2014 by Fachinformationszentrum Karlsruhe, and the U.S. Secretary of 
#Commerce on behalf of the United States.  All rights reserved.
_database_code_ICSD                416232
_audit_creation_date               2007/08/01
_audit_update_record               2013/08/01
_chemical_name_systematic          'Barium Zinc Bis(selenate(IV))'
_chemical_formula_structural       'Ba Zn (Se O3)2'
_chemical_formula_sum              'Ba1 O6 Se2 Zn1'
_publ_section_title
;
Synthesis, crystal structures and characterizations of Ba Zn (Se O3)2 
and Ba Zn (Te O3) Cl2
;
loop_
_citation_id
_citation_journal_abbrev
_citation_year
_citation_journal_volume
_citation_journal_issue
_citation_page_first
_citation_page_last
_citation_journal_id_ASTM
primary 'Journal of Solid State Chemistry' 2006 179 6 1911 1917 JSSCBI
_publ_author_name
;
Jiang Hailong;Feng Mei Ling;Mao Jiang Gao
;
_cell_length_a                     5.5375(7)
_cell_length_b                     16.429(2)
_cell_length_c                     7.1683(9)
_cell_angle_alpha                  90.00
_cell_angle_beta                   96.671(5)
_cell_angle_gamma                  90.00
_cell_volume                       647.73
_cell_formula_units_Z              4
_symmetry_space_group_name_H-M     'P 1 21/n 1'
_symmetry_Int_Tables_number        14
_refine_ls_R_factor_all            .027
loop_
_symmetry_equiv_pos_site_id
_symmetry_equiv_pos_as_xyz
  1	'-x+.5, y+.5, -z+.5'
  2	'-x, -y, -z'
  3	'x+.5, -y+.5, z+.5'
  4	'x, y, z'
loop_
_atom_type_symbol
_atom_type_oxidation_number
Ba2+	2
O2-	-2
Se4+	4
Zn2+	2
loop_
_atom_site_label
_atom_site_type_symbol
_atom_site_symmetry_multiplicity
_atom_site_Wyckoff_symbol
_atom_site_fract_x
_atom_site_fract_y
_atom_site_fract_z
_atom_site_occupancy
_atom_site_attached_hydrogens
_atom_site_U_iso_or_equiv
Ba1 Ba2+ 4 e 0.13381(5) 0.282689(17) 0.64955(4) 1 0 0.01176(11) 
Zn1 Zn2+ 4 e 0.15048(10) 0.07894(3) 0.90649(7) 1 0 0.01341(14) 
Se1 Se4+ 4 e 0.12249(8) 0.36783(3) 0.16513(6) 1 0 0.01073(13) 
Se2 Se4+ 4 e 0.87731(8) 0.93404(3) 0.66869(6) 1 0 0.01172(13) 
O1 O2- 4 e 0.9025(6) 0.3517(2) 0.3097(4) 1 0 0.0137(7) 
O2 O2- 4 e 0.0956(6) 0.2821(2) 0.0422(5) 1 0 0.0188(8) 
O3 O2- 4 e 0.3719(5) 0.3486(2) 0.3226(4) 1 0 0.0160(7) 
O4 O2- 4 e 0.6926(6) 0.9110(2) 0.8341(5) 1 0 0.0188(8) 
O5 O2- 4 e 0.9783(7) 0.8451(2) 0.6035(5) 1 0 0.0218(8) 
O6 O2- 4 e 0.1235(6) 0.9677(2) 0.8161(5) 1 0 0.0217(8) 

loop_
_atom_site_aniso_label
_atom_site_aniso_type_symbol
_atom_site_aniso_U_11
_atom_site_aniso_U_22
_atom_site_aniso_U_33
_atom_site_aniso_U_12
_atom_site_aniso_U_13
_atom_site_aniso_U_23
Ba1 Ba2+ 0.01218(17) 0.01329(16) 0.00922(15) 0.00247(11) -0.00120(11) 
0.00026(10)
Zn1 Zn2+ 0.0111(3) 0.0139(3) 0.0145(3) -0.0028(2) -0.0017(2) -0.0003(2)
Se1 Se4+ 0.0094(2) 0.0127(2) 0.0096(2) -0.00141(18) -0.00099(17) 
0.00162(17)
Se2 Se4+ 0.0129(2) 0.0123(2) 0.0097(2) 0.00118(19) 0.00031(18) 0.00071(18)
O1 O2- 0.0100(16) 0.0175(17) 0.0140(16) 0.0019(14) 0.0036(13) -0.0030(14)
O2 O2- 0.0205(19) 0.0217(19) 0.0148(17) -0.0086(15) 0.0049(14) -0.0087(15)
O3 O2- 0.0089(17) 0.0207(18) 0.0174(17) -0.0009(14) -0.0030(14) -0.0011(14)
O4 O2- 0.0161(17) 0.028(2) 0.0122(16) -0.0054(16) 0.0026(14) -0.0007(15)
O5 O2- 0.028(2) 0.0150(18) 0.0223(18) 0.0083(16) 0.0000(16) -0.0104(15)
O6 O2- 0.0163(19) 0.0182(19) 0.0287(19) -0.0029(15) -0.0046(16) -0.0085(16)
#End of data_416232-ICSD


