data_423471-ICSD
#?2014 by Fachinformationszentrum Karlsruhe, and the U.S. Secretary of 
#Commerce on behalf of the United States.  All rights reserved.
_database_code_ICSD                423471
_audit_creation_date               2012/08/01
_chemical_name_systematic          'Dicesium Dialuminum Diborate'
_chemical_formula_structural       'Cs2 Al2 B2 O7'
_chemical_formula_sum              'Al2 B2 Cs2 O7'
_publ_section_title
;
Synthesis, structural characterization and optical properties of a 
new cesium aluminum borate, Cs2 Al2 B2 O7
;
loop_
_citation_id
_citation_journal_abbrev
_citation_year
_citation_journal_volume
_citation_journal_issue
_citation_page_first
_citation_page_last
_citation_journal_id_ASTM
primary 'Journal of Solid State Chemistry' 2011 184 12 3353 3356 JSSCBI
_publ_author_name
;
Feng Kai;Yin Wenlong;Yao Jiyong;Wu Yicheng
;
_cell_length_a                     6.7185(13)
_cell_length_b                     7.1205(14)
_cell_length_c                     9.626(3)
_cell_angle_alpha                  90.00
_cell_angle_beta                   115.25(2)
_cell_angle_gamma                  90.00
_cell_volume                       416.5
_cell_formula_units_Z              2
_symmetry_space_group_name_H-M     'P 1 21/c 1'
_symmetry_Int_Tables_number        14
_refine_ls_R_factor_all            .0232
loop_
_symmetry_equiv_pos_site_id
_symmetry_equiv_pos_as_xyz
  1	'x, -y+.5, z+.5'
  2	'-x, -y, -z'
  3	'-x, y+.5, -z+.5'
  4	'x, y, z'
loop_
_atom_type_symbol
_atom_type_oxidation_number
Al3+	3
B3+	3
Cs1+	1
O2-	-2
loop_
_atom_site_label
_atom_site_type_symbol
_atom_site_symmetry_multiplicity
_atom_site_Wyckoff_symbol
_atom_site_fract_x
_atom_site_fract_y
_atom_site_fract_z
_atom_site_occupancy
_atom_site_attached_hydrogens
_atom_site_U_iso_or_equiv
Cs1 Cs1+ 4 e 0.77579(3) 0.36260(3) 0.11671(2) 1 0 0.01041(10) 
Al1 Al3+ 4 e 0.23909(17) 0.11880(14) 0.03980(12) 1 0 0.0055(2) 
B1 B3+ 4 e 0.3534(6) 0.3893(5) 0.2752(4) 1 0 0.0070(7) 
O1 O2- 4 e 0.2542(4) 0.3402(3) 0.1225(3) 1 0 0.0099(5) 
O2 O2- 4 e 0.2595(4) 0.3313(4) 0.3691(3) 1 0 0.0146(6) 
O3 O2- 2 a 0.0000 0.0000 0.0000 1 0 0.0209(9) 
O4 O2- 4 e 0.5390(5) 0.4942(5) 0.3274(3) 1 0 0.0224(7) 

loop_
_atom_site_aniso_label
_atom_site_aniso_type_symbol
_atom_site_aniso_U_11
_atom_site_aniso_U_22
_atom_site_aniso_U_33
_atom_site_aniso_U_12
_atom_site_aniso_U_13
_atom_site_aniso_U_23
Cs1 Cs1+ 0.00844(14) 0.01008(13) 0.01240(15) 0.00022(7) 0.00413(10) 
0.00037(8)
Al1 Al3+ 0.0046(5) 0.0060(5) 0.0053(5) 0.0009(3) 0.0016(4) -0.0008(3)
B1 B3+ 0.0095(17) 0.0055(16) 0.0058(17) 0.0000(12) 0.0030(15) 0.0000(12)
O1 O2- 0.0148(13) 0.0080(12) 0.0058(12) -0.0004(9) 0.0033(11) -0.0011(8)
O2 O2- 0.0167(14) 0.0225(15) 0.0066(13) -0.0066(11) 0.0067(11) -0.0015(10)
O3 O2- 0.017(2) 0.019(2) 0.027(2) -0.0100(16) 0.0092(18) -0.0074(17)
O4 O2- 0.0183(14) 0.0337(18) 0.0163(14) -0.0179(13) 0.0085(12) -0.0112(12)
#End of data_423471-ICSD


