data_203203-ICSD
#?2014 by Fachinformationszentrum Karlsruhe, and the U.S. Secretary of 
#Commerce on behalf of the United States.  All rights reserved.
_database_code_ICSD                203203
_audit_creation_date               1996/10/14
_audit_update_record               2013/02/01
_chemical_name_systematic          'Aluminium Iron(III) Oxide'
_chemical_formula_structural       'Al Fe O3'
_chemical_formula_sum              'Al1 Fe1 O3'
_publ_section_title
;
Crystal and magnetic structure of piezoelectric, ferrimagnetic and 
magnetoelectric aluminium iron oxide Fe Al O3 from neutron powder 
diffraction
;
loop_
_citation_id
_citation_journal_abbrev
_citation_year
_citation_journal_volume
_citation_page_first
_citation_page_last
_citation_journal_id_ASTM
primary 'Acta Crystallographica, Section B: Structural Science'
 1996 52 217 222 ASBSDK
_publ_author_name
;
Bouree, F.;Baudour, J.L.;Elbadraoui, E.;Musso, J.;Laurent, 
C.;Rousset, A.
;
_cell_length_a                     4.9792(1)
_cell_length_b                     8.5466(2)
_cell_length_c                     9.2345(2)
_cell_angle_alpha                  90.
_cell_angle_beta                   90.
_cell_angle_gamma                  90.
_cell_volume                       392.98
_cell_formula_units_Z              8
_symmetry_space_group_name_H-M     'P n a 21'
_symmetry_Int_Tables_number        33
_refine_ls_R_factor_all            .0352
loop_
_symmetry_equiv_pos_site_id
_symmetry_equiv_pos_as_xyz
  1	'x+.5, -y+.5, z'
  2	'-x+.5, y+.5, z+.5'
  3	'-x, -y, z+.5'
  4	'x, y, z'
loop_
_atom_type_symbol
_atom_type_oxidation_number
Al3+	3
Fe3+	3
O2-	-2
loop_
_atom_site_label
_atom_site_type_symbol
_atom_site_symmetry_multiplicity
_atom_site_Wyckoff_symbol
_atom_site_fract_x
_atom_site_fract_y
_atom_site_fract_z
_atom_site_occupancy
_atom_site_attached_hydrogens
_atom_site_B_iso_or_equiv
Fe1 Fe3+ 4 a 0.1850(7) 0.1525(4) 0.5822(5) 1. 0 0.10(9) 
Fe2 Fe3+ 4 a 0.6725(7) 0.0330(3) 0.7981(6) 1. 0 0.14(8) 
Al1 Al3+ 4 a 0.1727(12) 0.1528(8) 0 1. 0 0.36(11) 
Al2 Al3+ 4 a 0.8132(11) 0.1602(6) 0.3037(7) 1. 0 0.25(10) 
O1 O2- 4 a 0.9838(10) 0.3228(5) 0.4213(7) 1. 0 0.40(2) 
O2 O2- 4 a 0.5085(9) 0.4902(6) 0.4303(8) 1. 0 0.40(2) 
O3 O2- 4 a 0.6589(12) 1.0021(5) 0.2002(7) 1. 0 0.40(2) 
O4 O2- 4 a 0.1548(14) 0.1636(5) 0.1944(7) 1. 0 0.40(2) 
O5 O2- 4 a 0.8436(13) 0.1686(6) 0.6722(8) 1. 0 0.40(2) 
O6 O2- 4 a 0.5091(13) 0.1728(6) 0.9404(7) 1. 0 0.40(2) 

#End of data_203203-ICSD


