data_74767-ICSD
#?2014 by Fachinformationszentrum Karlsruhe, and the U.S. Secretary of 
#Commerce on behalf of the United States.  All rights reserved.
_database_code_ICSD                74767
_audit_creation_date               1995/10/17
_audit_update_record               2005/10/01
_chemical_name_systematic          'Potassium Bromate(V)'
_chemical_formula_structural       'K (Br O3)'
_chemical_formula_sum              'Br1 K1 O3'
_publ_section_title
;
Refinements of the crystal structures and UV-absorption properties of 
K Br O3, Rb Br O3 and Cs Br O3
;
loop_
_citation_id
_citation_journal_abbrev
_citation_year
_citation_journal_volume
_citation_page_first
_citation_page_last
_citation_journal_id_ASTM
primary 'Zeitschrift fuer Kristallographie (1979-2010)' 1994 209 491 494 ZEKRDZ
_publ_author_name                  'Szafranski, M.;Stahl, K.'
_cell_length_a                     4.4104(2)
_cell_length_b                     4.4104(2)
_cell_length_c                     4.4104(2)
_cell_angle_alpha                  85.961(8)
_cell_angle_beta                   85.961(8)
_cell_angle_gamma                  85.961(8)
_cell_volume                       85.18
_cell_formula_units_Z              1
_symmetry_space_group_name_H-M     'R 3 m R'
_symmetry_Int_Tables_number        160
_refine_ls_R_factor_all            .04
loop_
_symmetry_equiv_pos_site_id
_symmetry_equiv_pos_as_xyz
  1	'z, y, x'
  2	'z, x, y'
  3	'x, z, y'
  4	'y, z, x'
  5	'y, x, z'
  6	'x, y, z'
loop_
_atom_type_symbol
_atom_type_oxidation_number
Br5+	5
K1+	1
O2-	-2
loop_
_atom_site_label
_atom_site_type_symbol
_atom_site_symmetry_multiplicity
_atom_site_Wyckoff_symbol
_atom_site_fract_x
_atom_site_fract_y
_atom_site_fract_z
_atom_site_occupancy
_atom_site_attached_hydrogens
K1 K1+ 1 a 0 0 0 1. 0 
Br1 Br5+ 1 a 0.48280(27) 0.48280(27) 0.48280(27) 1. 0 
O1 O2- 3 b 0.54550(49) 0.54550(49) 0.11095(48) 1. 0 

#End of data_74767-ICSD


