data_280775-ICSD
#?2014 by Fachinformationszentrum Karlsruhe, and the U.S. Secretary of 
#Commerce on behalf of the United States.  All rights reserved.
_database_code_ICSD                280775
_audit_creation_date               2002/10/01
_audit_update_record               2005/10/01
_chemical_name_systematic
;
Vanadium Aluminium Molybdenum Oxide
;
_chemical_formula_structural       'V Al Mo O7'
_chemical_formula_sum              'Al1 Mo1 O7 V1'
_publ_section_title                'The mixed oxide Mo V Al O7'
loop_
_citation_id
_citation_journal_abbrev
_citation_year
_citation_journal_volume
_citation_page_first
_citation_page_last
_citation_journal_id_ASTM
primary 'Acta Crystallographica, Section C: Crystal Structure Communications'
 2002 58 i6 i8 ACSCEE
_publ_author_name
;
Galy, J.;Enjalbert, R.;Rozier, P.;Millet, P.
;
_cell_length_a                     12.7360(2)
_cell_length_b                     5.3790(4)
_cell_length_c                     8.1660(6)
_cell_angle_alpha                  90.
_cell_angle_beta                   90.
_cell_angle_gamma                  90.
_cell_volume                       559.43
_cell_formula_units_Z              4
_symmetry_space_group_name_H-M     'P n m a'
_symmetry_Int_Tables_number        62
_refine_ls_R_factor_all            .035
loop_
_symmetry_equiv_pos_site_id
_symmetry_equiv_pos_as_xyz
  1	'x+.5, y, -z+.5'
  2	'x, -y+.5, z'
  3	'-x+.5, y+.5, z+.5'
  4	'-x, -y, -z'
  5	'-x+.5, -y, z+.5'
  6	'-x, y+.5, -z'
  7	'x+.5, -y+.5, -z+.5'
  8	'x, y, z'
loop_
_atom_type_symbol
_atom_type_oxidation_number
Al3+	3
Mo6+	6
O2-	-2
V5+	5
loop_
_atom_site_label
_atom_site_type_symbol
_atom_site_symmetry_multiplicity
_atom_site_Wyckoff_symbol
_atom_site_fract_x
_atom_site_fract_y
_atom_site_fract_z
_atom_site_occupancy
_atom_site_attached_hydrogens
Mo1 Mo6+ 4 c 0.35545(3) 0.75 0.45506(5) 1. 0 
V1 V5+ 4 c 0.48684(6) 0.25 0.06840(9) 1. 0 
Al1 Al3+ 4 c 0.61335(10) 0.75 0.26596(16) 1. 0 
O1 O2- 8 d 0.35102(19) 0.4923(5) 0.5845(3) 1. 0 
O2 O2- 4 c 0.4738(2) 0.75 0.3457(4) 1. 0 
O3 O2- 4 c 0.2482(2) 0.75 0.3198(4) 1. 0 
O4 O2- 8 d 0.57056(17) 0.5208(4) 0.0989(3) 1. 0 
O5 O2- 4 c 0.4065(3) 0.25 0.2167(4) 1. 0 

loop_
_atom_site_aniso_label
_atom_site_aniso_type_symbol
_atom_site_aniso_U_11
_atom_site_aniso_U_22
_atom_site_aniso_U_33
_atom_site_aniso_U_12
_atom_site_aniso_U_13
_atom_site_aniso_U_23
Mo1 Mo6+ 0.00412(18) 0.0093(2) 0.0051(2) 0 -.00044(12) 0
V1 V5+ 0.0087(3) 0.0072(4) 0.0054(4) 0 -.0007(3) 0
Al1 Al3+ 0.0050(5) 0.0075(6) 0.0052(6) 0 0.0005(5) 0
O1 O2- 0.0179(12) 0.0142(13) 0.0131(12) 0.0009(9) -.0001(9) 0.0054(10)
O2 O2- 0.0062(13) 0.0188(17) 0.0161(18) 0 0.0032(13) 0
O3 O2- 0.0061(13) 0.0183(17) 0.0116(16) 0 -.0054(12) 0
O4 O2- 0.0111(10) 0.0087(10) 0.0079(10) -.0004(8) -.0038(8) 0.0000(8)
O5 O2- 0.0204(17) 0.0174(18) 0.0155(19) 0 0.0067(14) 0
#End of data_280775-ICSD


