data_202888-ICSD
#?2014 by Fachinformationszentrum Karlsruhe, and the U.S. Secretary of 
#Commerce on behalf of the United States.  All rights reserved.
_database_code_ICSD                202888
_audit_creation_date               1990/06/08
_chemical_name_systematic
;
Dipotassium Titanium(III) Titanium(IV) Tris(phosphate)
;
_chemical_formula_structural       'K2 Ti2 (P O4)3'
_chemical_formula_sum              'K2 O12 P3 Ti2'
_publ_section_title
;
K2-x Ti2 (P O4)3 with 0< x< 0.5: A Mixed-Valence Nonstoichiometric 
Titanophosphate with Langbeinite Structure
;
loop_
_citation_id
_citation_journal_abbrev
_citation_year
_citation_journal_volume
_citation_page_first
_citation_page_last
_citation_journal_id_ASTM
primary 'Journal of Solid State Chemistry' 1989 78 227 231 JSSCBI
_publ_author_name
;
Leclaire, A.;Benmoussa, A.;Borel, M.M.;Grandin, A.;Raveau, B.
;
_cell_length_a                     9.8688(6)
_cell_length_b                     9.8688(6)
_cell_length_c                     9.8688(6)
_cell_angle_alpha                  90.
_cell_angle_beta                   90.
_cell_angle_gamma                  90.
_cell_volume                       961.15
_cell_formula_units_Z              4
_symmetry_space_group_name_H-M     'P 21 3'
_symmetry_Int_Tables_number        198
_refine_ls_R_factor_all            .03
loop_
_symmetry_equiv_pos_site_id
_symmetry_equiv_pos_as_xyz
  1	'-z+.5, -x, y+.5'
  2	'-y+.5, -z, x+.5'
  3	'-x+.5, -y, z+.5'
  4	'-z, x+.5, -y+.5'
  5	'-y, z+.5, -x+.5'
  6	'-x, y+.5, -z+.5'
  7	'z+.5, -x+.5, -y'
  8	'y+.5, -z+.5, -x'
  9	'x+.5, -y+.5, -z'
 10	'z, x, y'
 11	'y, z, x'
 12	'x, y, z'
loop_
_atom_type_symbol
_atom_type_oxidation_number
K1+	1
O2-	-2
P5+	5
Ti3.5+	3.5
loop_
_atom_site_label
_atom_site_type_symbol
_atom_site_symmetry_multiplicity
_atom_site_Wyckoff_symbol
_atom_site_fract_x
_atom_site_fract_y
_atom_site_fract_z
_atom_site_occupancy
_atom_site_attached_hydrogens
_atom_site_B_iso_or_equiv
Ti1 Ti3.5+ 4 a 0.66257(8) 0.66257(8) 0.66257(8) 1. 0 0.34 
Ti2 Ti3.5+ 4 a 0.39258(8) 0.39258(8) 0.39258(8) 1. 0 0.38 
K1 K1+ 4 a 0.95591(15) 0.95591(15) 0.95591(15) 1. 0 1.65(2) 
K2 K1+ 4 a 0.18437(14) 0.18437(14) 0.18437(14) 1. 0 1.73(2) 
P1 P5+ 12 b 0.47556(12) 0.70937(12) 0.37811(12) 1. 0 0.41(1) 
O1 O2- 12 b 0.60215(40) 0.82705(39) 0.75011(38) 1. 0 0.91(6) 
O2 O2- 12 b 0.45286(40) 0.3046(4) 0.21980(39) 1. 0 1.10(6) 
O3 O2- 12 b 0.48428(41) 0.56425(38) 0.32696(41) 1. 0 0.95(6) 
O4 O2- 12 b 0.54510(42) 0.72680(42) 0.51655(38) 1. 0 1.15(7) 

#End of data_202888-ICSD


