data_169889-ICSD
#?2014 by Fachinformationszentrum Karlsruhe, and the U.S. Secretary of 
#Commerce on behalf of the United States.  All rights reserved.
_database_code_ICSD                169889
_audit_creation_date               2011/08/01
_chemical_name_systematic          'Tripotassium Scandium Hexachloride'
_chemical_formula_structural       'K3 Sc Cl6'
_chemical_formula_sum              'Cl6 K3 Sc1'
_publ_section_title
;
Structure and characterization of K Sc (B H4)4
;
loop_
_citation_id
_citation_journal_abbrev
_citation_year
_citation_journal_volume
_citation_page_first
_citation_page_last
_citation_journal_id_ASTM
primary 'Journal of Physical Chemistry C' 2010 114 19540 19549 JPCCCK
_publ_author_name
;
Cerny, R.;Ravnsbaek, D.B.;Severa, G.;Filinchuk, Ya.;D'Anna, 
V.;Hagemann, H.;Haase, D.;Skibsted, J.;Jensen, C.M.;Jensen, T.R.
;
_cell_length_a                     12.7290(34)
_cell_length_b                     7.3669(19)
_cell_length_c                     12.8249(29)
_cell_angle_alpha                  90
_cell_angle_beta                   109.215(23)
_cell_angle_gamma                  90
_cell_volume                       1135.63
_cell_formula_units_Z              4
_symmetry_space_group_name_H-M     'P 1 21/a 1'
_symmetry_Int_Tables_number        14
_refine_ls_R_factor_all            .0333
loop_
_symmetry_equiv_pos_site_id
_symmetry_equiv_pos_as_xyz
  1	'x+.5, -y+.5, z'
  2	'-x, -y, -z'
  3	'-x+.5, y+.5, -z'
  4	'x, y, z'
loop_
_atom_type_symbol
_atom_type_oxidation_number
Cl1-	-1
K1+	1
Sc3+	3
loop_
_atom_site_label
_atom_site_type_symbol
_atom_site_symmetry_multiplicity
_atom_site_Wyckoff_symbol
_atom_site_fract_x
_atom_site_fract_y
_atom_site_fract_z
_atom_site_occupancy
_atom_site_attached_hydrogens
_atom_site_B_iso_or_equiv
K1 K1+ 4 e 0.1252(13) 0.0100(24) 0.39531(98) 1 0 2.71(26) 
K2 K1+ 4 e 0.3774(13) 0.0852(18) 0.16430(97) 1 0 2.711399 
K3 K1+ 4 e 0.2279(19) 0.5550(19) 0.19276(87) 1 0 2.711399 
Sc1 Sc3+ 2 a 0 0 0 1 0 1.29(17) 
Sc2 Sc3+ 2 b 0.5 0 0.5 1 0 1.291749 
Cl1 Cl1- 4 e 0.1209(17) 0.1762(28) 0.1543(17) 1 0 2.80(17) 
Cl2 Cl1- 4 e 0.3938(13) 0.2774(15) 0.4006(15) 1 0 2.796345 
Cl3 Cl1- 4 e 0.3496(18) 0.8186(23) 0.3723(12) 1 0 2.796345 
Cl4 Cl1- 4 e 0.1658(16) 0.8444(19) -0.0160(20) 1 0 2.796345 
Cl5 Cl1- 4 e 1.0184(14) 0.7843(27) 0.1597(13) 1 0 2.796345 
Cl6 Cl1- 4 e 0.1018(15) 0.5509(36) 0.3695(16) 1 0 2.796345 

#End of data_169889-ICSD


