data_83465-ICSD
#?2014 by Fachinformationszentrum Karlsruhe, and the U.S. Secretary of 
#Commerce on behalf of the United States.  All rights reserved.
_database_code_ICSD                83465
_audit_creation_date               1998/06/26
_chemical_name_systematic
;
Calcium Phyllo-chromo(II)tetrasilicate
;
_chemical_formula_structural       'Ca (Cr Si4 O10)'
_chemical_formula_sum              'Ca1 Cr1 O10 Si4'
_publ_section_title
;
The synthetic Cr(2+) silicates Ba Cr Si4 O10 and Sr Cr Si4 O10: the 
missing links in the gillespite-type A B Si4 O10 series
;
loop_
_citation_id
_citation_journal_abbrev
_citation_year
_citation_journal_volume
_citation_page_first
_citation_page_last
_citation_journal_id_ASTM
primary 'American Mineralogist' 1997 82 697 707 AMMIAY
_publ_author_name
;
Miletich, R.;Allan, D.R.;Angel, R.J.
;
_cell_length_a                     7.3772(7)
_cell_length_b                     7.3772(7)
_cell_length_c                     15.1231(8)
_cell_angle_alpha                  90.
_cell_angle_beta                   90.
_cell_angle_gamma                  90.
_cell_volume                       823.05
_cell_formula_units_Z              4
_symmetry_space_group_name_H-M     'P 4/n c c Z'
_symmetry_Int_Tables_number        130
_refine_ls_R_factor_all            .048
loop_
_symmetry_equiv_pos_site_id
_symmetry_equiv_pos_as_xyz
  1	'y+.5, x+.5, -z+.5'
  2	'-y, x+.5, -z'
  3	'y+.5, -x, -z'
  4	'-y, -x, -z+.5'
  5	'x+.5, y+.5, -z'
  6	'-x, y+.5, -z+.5'
  7	'x+.5, -y, -z+.5'
  8	'-x, -y, -z'
  9	'-y+.5, -x+.5, z+.5'
 10	'y, -x+.5, z'
 11	'-y+.5, x, z'
 12	'y, x, z+.5'
 13	'-x+.5, -y+.5, z'
 14	'x, -y+.5, z+.5'
 15	'-x+.5, y, z+.5'
 16	'x, y, z'
loop_
_atom_type_symbol
_atom_type_oxidation_number
Ca2+	2
Cr2+	2
O2-	-2
Si4+	4
loop_
_atom_site_label
_atom_site_type_symbol
_atom_site_symmetry_multiplicity
_atom_site_Wyckoff_symbol
_atom_site_fract_x
_atom_site_fract_y
_atom_site_fract_z
_atom_site_occupancy
_atom_site_attached_hydrogens
Ca1 Ca2+ 4 b 0.25 0.75 0 1. 0 
Cr1 Cr2+ 4 c 0.25 0.25 0.07914(17) 1. 0 
Si1 Si4+ 16 g 0.50303(28) 0.92233(27) 0.14768(14) 1. 0 
O1 O2- 8 f 0.45734(85) 0.95734(85) 0.25 1. 0 
O2 O2- 16 g 0.70527(61) 0.99877(83) 0.12658(35) 1. 0 
O3 O2- 16 g 0.35742(63) 0.00147(71) 0.08218(35) 1. 0 

#End of data_83465-ICSD


