data_290051-ICSD
#?2014 by Fachinformationszentrum Karlsruhe, and the U.S. Secretary of 
#Commerce on behalf of the United States.  All rights reserved.
_database_code_ICSD                290051
_audit_creation_date               2013/08/01
_chemical_name_systematic          'Sodium Iron Sulfate(VI) Fluoride'
_chemical_formula_structural       'Na Fe (S O4) F'
_chemical_formula_sum              'F1 Fe1 Na1 O4 S1'
_publ_section_title
;
Magnetic structure and properties of Na Fe S O4 F and Na Co S O4 F
;
loop_
_citation_id
_citation_journal_abbrev
_citation_year
_citation_journal_volume
_citation_journal_issue
_citation_page_first
_citation_page_last
_citation_journal_id_ASTM
primary 'Physical Review, Serie 3. B - Condensed Matter (18,1978-)'
 2012 85 9 094415-1 094415-8 PRBMDO
_publ_author_name
;
Melot, B.C.;Rousse, G.;Chotard, J.N.;Kemei, M.C.;Rodriguez-Carvajal, 
J.;Tarascon, J.M.
;
_cell_length_a                     6.68655(7)
_cell_length_b                     8.71252(8)
_cell_length_c                     7.19527(7)
_cell_angle_alpha                  90.
_cell_angle_beta                   113.5213(8)
_cell_angle_gamma                  90.
_cell_volume                       384.34
_cell_formula_units_Z              4
_symmetry_space_group_name_H-M     'C 1 2/c 1'
_symmetry_Int_Tables_number        15
_refine_ls_R_factor_all            .0281
loop_
_symmetry_equiv_pos_site_id
_symmetry_equiv_pos_as_xyz
  1	'x, -y, z+.5'
  2	'-x, -y, -z'
  3	'-x, y, -z+.5'
  4	'x, y, z'
  5	'x+.5, -y+.5, z+.5'
  6	'-x+.5, -y+.5, -z'
  7	'-x+.5, y+.5, -z+.5'
  8	'x+.5, y+.5, z'
loop_
_atom_type_symbol
_atom_type_oxidation_number
F1-	-1
Fe2+	2
Na1+	1
O2-	-2
S6+	6
loop_
_atom_site_label
_atom_site_type_symbol
_atom_site_symmetry_multiplicity
_atom_site_Wyckoff_symbol
_atom_site_fract_x
_atom_site_fract_y
_atom_site_fract_z
_atom_site_occupancy
_atom_site_attached_hydrogens
_atom_site_B_iso_or_equiv
Na1 Na1+ 4 e 0 0.3371(4) 0.25 1. 0 0 
Fe1 Fe2+ 4 a 0 0 0 1. 0 0.55(2) 
S1 S6+ 4 e 0 0.6789(4) 0.25 1. 0 0.68(7) 
O1 O2- 8 f 0.6068(2) 0.2778(2) 0.1483(2) 1. 0 0.95(2) 
O2 O2- 8 f 0.3387(2) 0.0810(2) 0.0985(2) 1. 0 0.95(2) 
F1 F1- 4 e 0 0.0856(3) 0.25 1. 0 0.97(3) 

#End of data_290051-ICSD


