data_32669-ICSD
#?2014 by Fachinformationszentrum Karlsruhe, and the U.S. Secretary of 
#Commerce on behalf of the United States.  All rights reserved.
_database_code_ICSD                32669
_audit_creation_date               1981/12/31
_audit_update_record               2004/10/01
_chemical_name_systematic          'Tetrathiazyl Tetrachloroaluminate'
_chemical_formula_structural       '(S4 N4) (Al Cl4)2'
_chemical_formula_sum              'Al2 Cl8 N4 S4'
_publ_section_title
;
Reactions of S4 N4 with Sb Cl5, Sb F5, As F5, P F5 and H S O3 F. 
Preparation and crystal structures of salts of the S4 N4(2+) cation:  
(S4 N4) (Sb3 F14) (Sb F6), (S4 N4) (S O3 F)2, (S4 N4) (As F6) * S O2 
...
;
loop_
_citation_id
_citation_journal_abbrev
_citation_year
_citation_journal_volume
_citation_page_first
_citation_page_last
_citation_journal_id_ASTM
primary 'Inorganic Chemistry' 1981 20 3799 3812 INOCAJ
_publ_author_name
;
Gillespie, R.J.;Kent, J.P.;Sawyer, J.F.;Slim, D.R.;Tyrer, J.D.
;
_cell_length_a                     6.908(2)
_cell_length_b                     16.117(3)
_cell_length_c                     9.005(2)
_cell_angle_alpha                  90.
_cell_angle_beta                   122.24(2)
_cell_angle_gamma                  90.
_cell_volume                       848.01
_cell_formula_units_Z              2
_symmetry_space_group_name_H-M     'P 1 21/n 1'
_symmetry_Int_Tables_number        14
_refine_ls_R_factor_all            .057
loop_
_symmetry_equiv_pos_site_id
_symmetry_equiv_pos_as_xyz
  1	'-x+.5, y+.5, -z+.5'
  2	'-x, -y, -z'
  3	'x+.5, -y+.5, z+.5'
  4	'x, y, z'
loop_
_atom_type_symbol
_atom_type_oxidation_number
Al3+	3
Cl1-	-1
N3-	-3
S3.5+	3.5
loop_
_atom_site_label
_atom_site_type_symbol
_atom_site_symmetry_multiplicity
_atom_site_Wyckoff_symbol
_atom_site_fract_x
_atom_site_fract_y
_atom_site_fract_z
_atom_site_occupancy
_atom_site_attached_hydrogens
S1 S3.5+ 4 e 0.7199(2) 0.94326(8) 0.7467(2) 1. 0 
S2 S3.5+ 4 e 0.2700(2) 0.89767(7) 0.4249(2) 1. 0 
N1 N3- 4 e 0.4941(6) 0.8998(2) 0.6103(5) 1. 0 
N2 N3- 4 e 0.7816(6) 0.0283(2) 0.7002(5) 1. 0 
Al1 Al3+ 4 e 0.5431(2) 0.84797(8) 0.1416(2) 1. 0 
Cl1 Cl1- 4 e 0.7560(2) 0.92185(7) 0.3735(2) 1. 0 
Cl2 Cl1- 4 e 0.3912(3) 0.75583(8) 0.2151(2) 1. 0 
Cl3 Cl1- 4 e 0.2815(2) 0.92586(9) -.0527(2) 1. 0 
Cl4 Cl1- 4 e 0.7552(3) 0.80211(9) 0.0561(2) 1. 0 

loop_
_atom_site_aniso_label
_atom_site_aniso_type_symbol
_atom_site_aniso_U_11
_atom_site_aniso_U_22
_atom_site_aniso_U_33
_atom_site_aniso_U_12
_atom_site_aniso_U_13
_atom_site_aniso_U_23
S1 S3.5+ 0.0415(7) 0.0416(6) 0.0489(7) 0.0032(5) 0.0185(6) 0.0089(6)
S2 S3.5+ 0.0376(6) 0.0337(6) 0.0593(8) -.0040(5) 0.0270(6) -.0015(5)
N1 N3- 0.040(2) 0.030(2) 0.058(3) 0.003(2) 0.032(2) 0.000(2)
N2 N3- 0.036(2) 0.038(2) 0.050(2) 0.004(2) 0.023(2) 0.000(2)
Al1 Al3+ 0.0345(7) 0.0307(7) 0.0387(7) 0.0001(5) 0.0202(6) -.0002(6)
Cl1 Cl1- 0.0395(6) 0.0417(6) 0.0457(6) -.0041(5) 0.0244(5) -.0096(5)
Cl2 Cl1- 0.0708(9) 0.0424(7) 0.0667(9) -.0168(6) 0.0381(8) 0.0042(6)
Cl3 Cl1- 0.0407(6) 0.0544(8) 0.0656(8) 0.0009(6) 0.0125(6) 0.0202(7)
Cl4 Cl1- 0.0746(10) 0.0642(8) 0.0703(9) 0.0094(7) 0.0516(8) -.0101(7)
#End of data_32669-ICSD


