data_80448-ICSD
#?2014 by Fachinformationszentrum Karlsruhe, and the U.S. Secretary of 
#Commerce on behalf of the United States.  All rights reserved.
_database_code_ICSD                80448
_audit_creation_date               1997/05/13
_audit_update_record               2005/10/01
_chemical_name_systematic
;
Dialuminium Tris(molybdate) - Beta - Ht
;
_chemical_formula_structural       'Al2 (Mo O4)3'
_chemical_formula_sum              'Al2 Mo3 O12'
_publ_section_title
;
Crystal structures of paraelastic aluminium molybdate and ferric 
molybdate, beta-Al2 (Mo O4)3 and beta-Fe2 (Mo O4)3
;
loop_
_citation_id
_citation_journal_abbrev
_citation_year
_citation_journal_volume
_citation_journal_issue
_citation_page_first
_citation_page_last
_citation_journal_id_ASTM
primary 'Materials Research Bulletin' 1995 30 11 1325 1331 MRBUAC
2 'Golden Book of Phase Transitions, Wroclaw' 2002 1- 1 123 GBOPT5
_publ_author_name                  'Harrison, W.T.A.'
_cell_length_a                     12.5547(4)
_cell_length_b                     9.0214(3)
_cell_length_c                     9.1035(3)
_cell_angle_alpha                  90.
_cell_angle_beta                   90.
_cell_angle_gamma                  90.
_cell_volume                       1031.07
_cell_formula_units_Z              4
_symmetry_space_group_name_H-M     'P b c n'
_symmetry_Int_Tables_number        60
_refine_ls_R_factor_all            .024
loop_
_symmetry_equiv_pos_site_id
_symmetry_equiv_pos_as_xyz
  1	'x, -y, z+.5'
  2	'-x+.5, y+.5, z'
  3	'x+.5, y+.5, -z+.5'
  4	'-x, -y, -z'
  5	'-x, y, -z+.5'
  6	'x+.5, -y+.5, -z'
  7	'-x+.5, -y+.5, z+.5'
  8	'x, y, z'
loop_
_atom_type_symbol
_atom_type_oxidation_number
Al3+	3
Mo6+	6
O2-	-2
loop_
_atom_site_label
_atom_site_type_symbol
_atom_site_symmetry_multiplicity
_atom_site_Wyckoff_symbol
_atom_site_fract_x
_atom_site_fract_y
_atom_site_fract_z
_atom_site_occupancy
_atom_site_attached_hydrogens
_atom_site_U_iso_or_equiv
Al1 Al3+ 8 d 0.3786(4) 0.2503(5) 0.4655(4) 1. 0 0.0052(9) 
Mo1 Mo6+ 4 c 0 0.4743(4) 0.25 1. 0 0.0075(9) 
Mo2 Mo6+ 8 d 0.3554(2) 0.3954(3) 0.1163(3) 1. 0 0.0073(6) 
O1 O2- 8 d 0.1418(3) 0.0870(3) 0.0905(3) 1. 0 0.0130(8) 
O2 O2- 8 d 0.0673(3) 0.3624(3) 0.1260(4) 1. 0 0.0226(8) 
O3 O2- 8 d 0.2580(3) 0.3175(3) 0.0047(4) 1. 0 0.0200(8) 
O4 O2- 8 d 0.4078(3) 0.0873(4) 0.3398(4) 1. 0 0.0207(9) 
O5 O2- 8 d 0.4784(3) 0.3180(4) 0.0714(4) 1. 0 0.0206(8) 
O6 O2- 8 d 0.3324(2) 0.3600(3) 0.3007(4) 1. 0 0.0174(8) 

#End of data_80448-ICSD


