data_1973-ICSD
#?2014 by Fachinformationszentrum Karlsruhe, and the U.S. Secretary of 
#Commerce on behalf of the United States.  All rights reserved.
_database_code_ICSD                1973
_audit_creation_date               1980/01/01
_audit_update_record               2013/08/01
_chemical_name_systematic
;
Diaqauadisodium Bicyclo-hydroxooctaoxopentaborate
;
_chemical_formula_structural       '(Na (H2 O))2 (B5 O8 (O H))'
_chemical_formula_sum              'H5 B5 Na2 O11'
_chemical_name_mineral             Nasinite
_publ_section_title
;
The crystal structure of nasinite, Na2 B5 O8 (O H) (H2 O)2
;
loop_
_citation_id
_citation_journal_abbrev
_citation_year
_citation_journal_volume
_citation_page_first
_citation_page_last
_citation_journal_id_ASTM
primary 'Acta Crystallographica B (24,1968-38,1982)' 1975 31 2405 2410 ACBCAR
_publ_author_name
;
Corazza, E.;Menchetti, S.;Sabelli, C.
;
_cell_length_a                     12.015(2)
_cell_length_b                     6.518(1)
_cell_length_c                     11.173(1)
_cell_angle_alpha                  90.
_cell_angle_beta                   90.
_cell_angle_gamma                  90.
_cell_volume                       875
_cell_formula_units_Z              4
_symmetry_space_group_name_H-M     'P n a 21'
_symmetry_Int_Tables_number        33
_refine_ls_R_factor_all            .072
loop_
_symmetry_equiv_pos_site_id
_symmetry_equiv_pos_as_xyz
  1	'x+.5, -y+.5, z'
  2	'-x+.5, y+.5, z+.5'
  3	'-x, -y, z+.5'
  4	'x, y, z'
loop_
_atom_type_symbol
_atom_type_oxidation_number
B3+	3
H1+	1
Na1+	1
O2-	-2
loop_
_atom_site_label
_atom_site_type_symbol
_atom_site_symmetry_multiplicity
_atom_site_Wyckoff_symbol
_atom_site_fract_x
_atom_site_fract_y
_atom_site_fract_z
_atom_site_occupancy
_atom_site_attached_hydrogens
_atom_site_B_iso_or_equiv
Na1 Na1+ 4 a 0.4715(1) 0.6484(2) 0.5 1. 0 0 
Na2 Na1+ 4 a 0.2465(1) 0.4734(2) 0.1767(2) 1. 0 0 
O1 O2- 4 a 0.0998(1) 0.5155(2) 0.5492(2) 1. 0 0 
O2 O2- 4 a 0.2931(1) 0.5794(2) 0.5942(2) 1. 0 0 
O3 O2- 4 a 0.1663(1) 0.1812(2) 0.2904(2) 1. 0 0 
O4 O2- 4 a 0.0399(1) 0.2024(2) 0.4553(2) 1. 0 0 
O5 O2- 4 a 0.2364(1) 0.2664(2) 0.4892(2) 1. 0 0 
O6 O2- 4 a 0.2354(1) -.4080(2) 0.3933(2) 1. 0 0 
O7 O2- 4 a 0.1723(1) -.0715(2) 0.4511(2) 1. 0 0 
O8 O2- 4 a -.0867(2) 0.4314(3) 0.5511(2) 1. 0 0 
O9 O2- 4 a 0.2384(2) -.1528(3) 0.2542(2) 1. 0 0 
O10 O2- 4 a 0.5715(2) 0.6639(4) 0.7026(3) 1. 0 0 
O11 O2- 4 a 0.4772(2) 0.7935(6) 0.3045(3) 1. 0 0 
B1 B3+ 4 a 0.2165(2) 0.4839(4) 0.5064(3) 1. 0 0 
B2 B3+ 4 a 0.1568(2) 0.1485(4) 0.4217(3) 1. 0 0 
B3 B3+ 4 a 0.0191(2) 0.3792(4) 0.5162(3) 1. 0 0 
B4 B3+ 4 a 0.2034(2) 0.0372(4) 0.2135(3) 1. 0 0 
B5 B3+ 4 a 0.2141(2) -.2086(4) 0.3723(2) 1. 0 0 
H1 H1+ 4 a -.133(2) 0.362(4) 0.533(3) 1. 0 2.5(7) 
H2 H1+ 4 a 0.569(3) 0.791(7) 0.666(4) 1. 0 8.50(12) 
H3 H1+ 4 a 0.532(3) 0.663(7) 0.757(4) 1. 0 6.00(14) 
H4 H1+ 4 a 0.418(3) 0.786(7) 0.271(4) 1. 0 7.80(13) 
H5 H1+ 4 a 0.524(4) 0.828(7) 0.264(4) 1. 0 9.10(14) 

#End of data_1973-ICSD


