data_44701-ICSD
#?2014 by Fachinformationszentrum Karlsruhe, and the U.S. Secretary of 
#Commerce on behalf of the United States.  All rights reserved.
_database_code_ICSD                44701
_audit_creation_date               2000/12/16
_chemical_name_systematic          'Sodium Aluminum Telluride'
_chemical_formula_structural       'Na Al Te2'
_chemical_formula_sum              'Al1 Na1 Te2'
_publ_section_title
;
Neue ternaere Telluride und Selenide der Alkalimetalle mit Elementen 
der 3. Hauptgruppe
;
loop_
_citation_id
_citation_journal_abbrev
_citation_year
_citation_journal_volume
_citation_page_first
_citation_page_last
_citation_journal_id_ASTM
primary
;
Zeitschrift fuer Naturforschung, Teil B. Anorganische Chemie, 
Organische Chemie (33,1978-41,1986)
;
 1976 31 1336 1340 ZNBAD2
_publ_author_name                  'Weis, J.;Schaefer, R.;Schoen, G.'
_cell_length_a                     8.31(2)
_cell_length_b                     8.31
_cell_length_c                     6.71(2)
_cell_angle_alpha                  90.
_cell_angle_beta                   90.
_cell_angle_gamma                  90.
_cell_volume                       463.37
_cell_formula_units_Z              4
_symmetry_space_group_name_H-M     'I 4/m c m'
_symmetry_Int_Tables_number        140
_refine_ls_R_factor_all            .112
loop_
_symmetry_equiv_pos_site_id
_symmetry_equiv_pos_as_xyz
  1	'y, x, -z+.5'
  2	'-y, -x, -z+.5'
  3	'-y, x, -z'
  4	'y, -x, -z'
  5	'x, -y, -z+.5'
  6	'-x, y, -z+.5'
  7	'x, y, -z'
  8	'-x, -y, -z'
  9	'-y, -x, z+.5'
 10	'y, x, z+.5'
 11	'y, -x, z'
 12	'-y, x, z'
 13	'-x, y, z+.5'
 14	'x, -y, z+.5'
 15	'-x, -y, z'
 16	'x, y, z'
 17	'y+.5, x+.5, -z'
 18	'-y+.5, -x+.5, -z'
 19	'-y+.5, x+.5, -z+.5'
 20	'y+.5, -x+.5, -z+.5'
 21	'x+.5, -y+.5, -z'
 22	'-x+.5, y+.5, -z'
 23	'x+.5, y+.5, -z+.5'
 24	'-x+.5, -y+.5, -z+.5'
 25	'-y+.5, -x+.5, z'
 26	'y+.5, x+.5, z'
 27	'y+.5, -x+.5, z+.5'
 28	'-y+.5, x+.5, z+.5'
 29	'-x+.5, y+.5, z'
 30	'x+.5, -y+.5, z'
 31	'-x+.5, -y+.5, z+.5'
 32	'x+.5, y+.5, z+.5'
loop_
_atom_type_symbol
_atom_type_oxidation_number
Al3+	3
Na1+	1
Te2-	-2
loop_
_atom_site_label
_atom_site_type_symbol
_atom_site_symmetry_multiplicity
_atom_site_Wyckoff_symbol
_atom_site_fract_x
_atom_site_fract_y
_atom_site_fract_z
_atom_site_occupancy
_atom_site_attached_hydrogens
_atom_site_U_iso_or_equiv
Na1 Na1+ 4 a 0 0 0.25 1. 0 0.057(17) 
Al1 Al3+ 4 b 0 0.5 0.25 1. 0 0.013(7) 
Te1 Te2- 8 h 0.1691(11) 0.6691 0 1. 0 0.013(1) 

#End of data_44701-ICSD


