data_62064-ICSD
#?2014 by Fachinformationszentrum Karlsruhe, and the U.S. Secretary of 
#Commerce on behalf of the United States.  All rights reserved.
_database_code_ICSD                62064
_audit_creation_date               1988/02/22
_chemical_name_systematic          'Cesium Dipotassium Golddioxide'
_chemical_formula_structural       'Cs K2 Au O2'
_chemical_formula_sum              'Au1 Cs1 K2 O2'
_publ_section_title
;
Oxydation intermetallischer Phasen: CsK2(AuO2) aus CsAu und K2O2
;
loop_
_citation_id
_citation_journal_abbrev
_citation_year
_citation_journal_volume
_citation_page_first
_citation_page_last
_citation_journal_id_ASTM
primary 'Zeitschrift fuer Anorganische und Allgemeine Chemie (1950) (DE)'
 1987 550 41 49 ZAACAB
_publ_author_name                  'Wagner, G.;Hoppe, R.'
_cell_length_a                     12.565(5)
_cell_length_b                     7.273(2)
_cell_length_c                     6.279(2)
_cell_angle_alpha                  90.
_cell_angle_beta                   90.
_cell_angle_gamma                  90.
_cell_volume                       573.81
_cell_formula_units_Z              4
_symmetry_space_group_name_H-M     'P n m a'
_symmetry_Int_Tables_number        62
_refine_ls_R_factor_all            .073
loop_
_symmetry_equiv_pos_site_id
_symmetry_equiv_pos_as_xyz
  1	'x+.5, y, -z+.5'
  2	'x, -y+.5, z'
  3	'-x+.5, y+.5, z+.5'
  4	'-x, -y, -z'
  5	'-x+.5, -y, z+.5'
  6	'-x, y+.5, -z'
  7	'x+.5, -y+.5, -z+.5'
  8	'x, y, z'
loop_
_atom_type_symbol
_atom_type_oxidation_number
Au1+	1
Cs1+	1
K1+	1
O2-	-2
loop_
_atom_site_label
_atom_site_type_symbol
_atom_site_symmetry_multiplicity
_atom_site_Wyckoff_symbol
_atom_site_fract_x
_atom_site_fract_y
_atom_site_fract_z
_atom_site_occupancy
_atom_site_attached_hydrogens
Au1 Au1+ 4 c 0.1233(1) 0.25 0.1710(1) 1. 0 
Cs1 Cs1+ 4 c 0.4064(1) 0.25 0.6809(2) 1. 0 
K1 K1+ 8 d 0.1391(2) 0.0014(2) 0.6394(4) 1. 0 
O1 O2- 4 c 0.5144(10) 0.25 0.0847(20) 1. 0 
O2 O2- 4 c 0.7272(9) 0.25 0.5793(19) 1. 0 

loop_
_atom_site_aniso_label
_atom_site_aniso_type_symbol
_atom_site_aniso_U_11
_atom_site_aniso_U_22
_atom_site_aniso_U_33
_atom_site_aniso_U_12
_atom_site_aniso_U_13
_atom_site_aniso_U_23
Au1 Au1+ 0.0134(3) 0.0179(3) 0.0218(3) 0 -.0022 0
Cs1 Cs1+ 0.0156(5) 0.0280(6) 0.0206(5) 0 0.0076 0
K1 K1+ 0.0093(9) 0.0161(11) 0.0206(11) -.0001(9) -.0019(8) -.0030(9)
O1 O2- 0.0104(37) 0.0279(40) 0.021(4) 0 -.0059(35) 0
O2 O2- 0.0051(35) 0.0407(43) 0.0110(38) 0 -.0015(32) 0
#End of data_62064-ICSD


