data_12137-ICSD
#?2014 by Fachinformationszentrum Karlsruhe, and the U.S. Secretary of 
#Commerce on behalf of the United States.  All rights reserved.
_database_code_ICSD                12137
_audit_creation_date               1980/01/01
_audit_update_record               2007/08/01
_chemical_name_systematic
;
Pentamanganese Diantimony Octamanganotetraalumodisilicate
;
_chemical_formula_structural       '(Mn5 Sb2) (Mn8 Al4 Si2 O28)'
_chemical_formula_sum              'Al4 Mn13 O28 Sb2 Si2'
_chemical_name_mineral             Katoptrite
_publ_section_title
;
Catoptrite, (Mn(2+)5 Sb(5+)2)(VI) (Mn(2+)8 Al4 Si2)(IV) O28, a novel 
close-packed oxide sheet structure
;
loop_
_citation_id
_citation_journal_abbrev
_citation_year
_citation_journal_volume
_citation_page_first
_citation_page_last
_citation_journal_id_ASTM
primary 'Neues Jahrbuch fuer Mineralogie. Abhandlungen (Band-Nr) (1950-)'
 1976 127 47 61 NJMIAK
2 'American Mineralogist' 1966 51 1494 1500 AMMIAY
_publ_author_name
;
Moore, P.B.;Araki, T.;Brunton, G.D.
;
_cell_length_a                     5.617(2)
_cell_length_b                     23.02(2)
_cell_length_c                     9.079(6)
_cell_angle_alpha                  90.
_cell_angle_beta                   101.38(5)
_cell_angle_gamma                  90.
_cell_volume                       1150.87
_cell_formula_units_Z              2
_symmetry_space_group_name_H-M     'C 1 2/m 1'
_symmetry_Int_Tables_number        12
_refine_ls_R_factor_all            .06
loop_
_symmetry_equiv_pos_site_id
_symmetry_equiv_pos_as_xyz
  1	'-x, y, -z'
  2	'-x, -y, -z'
  3	'x, -y, z'
  4	'x, y, z'
  5	'-x+.5, y+.5, -z'
  6	'-x+.5, -y+.5, -z'
  7	'x+.5, -y+.5, z'
  8	'x+.5, y+.5, z'
loop_
_atom_type_symbol
_atom_type_oxidation_number
Al3+	3
Mn2+	2
O2-	-2
Sb5+	5
Si4+	4
loop_
_atom_site_label
_atom_site_type_symbol
_atom_site_symmetry_multiplicity
_atom_site_Wyckoff_symbol
_atom_site_fract_x
_atom_site_fract_y
_atom_site_fract_z
_atom_site_occupancy
_atom_site_attached_hydrogens
Mn1 Mn2+ 2 a 0 0 0 1. 0 
Mn2 Mn2+ 4 g 0 0.2867(2) 0 1. 0 
Mn3 Mn2+ 4 g 0 0.4271(3) 0 1. 0 
Sb1 Sb5+ 4 g 0 0.1418(2) 0 1. 0 
Mn4 Mn2+ 8 j 0.7840(3) 0.1436(2) 0.3630(2) 1. 0 
Mn5 Mn2+ 8 j 0.2778(5) 0.0698(2) 0.3447(3) 1. 0 
Si1 Si4+ 4 i 0.7702(10) 0 0.3210(7) 1. 0 
Al1 Al3+ 8 j 0.2739(8) 0.2143(2) 0.3341(8) 1. 0 
O1 O2- 4 i 0.6935(27) 0 0.1239(21) 1. 0 
O2 O2- 8 j 0.1993(19) 0.0758(8) 0.1155(14) 1. 0 
O3 O2- 8 j 0.7320(12) 0.1418(9) 0.1196(8) 1. 0 
O4 O2- 8 j 0.1896(21) 0.2091(6) 0.1173(17) 1. 0 
O5 O2- 4 i 0.0667(35) 0 0.3527(20) 1. 0 
O6 O2- 8 j 0.6476(35) 0.0613(4) 0.3794(15) 1. 0 
O7 O2- 8 j 0.599(29) 0.2216(5) 0.3654(19) 1. 0 
O8 O2- 8 j 0.1607(15) 0.1486(8) 0.3961(11) 1. 0 

#End of data_12137-ICSD


