data_170808-ICSD
#?2014 by Fachinformationszentrum Karlsruhe, and the U.S. Secretary of 
#Commerce on behalf of the United States.  All rights reserved.
_database_code_ICSD                170808
_audit_creation_date               2006/04/01
_chemical_name_systematic          'Calcium Copper Germanate'
_chemical_formula_structural       'Ca Cu Ge2 O6'
_chemical_formula_sum              'Ca1 Cu1 Ge2 O6'
_chemical_name_mineral             Clinopyroxene
_publ_section_title
;
Crystal structure of the clinopyroxene-type compound Ca Cu Ge2 O6 
between 15 K and 700 K
;
loop_
_citation_id
_citation_journal_abbrev
_citation_year
_citation_journal_volume
_citation_page_first
_citation_page_last
_citation_journal_id_ASTM
primary 'Acta Crystallographica, Section B: Structural Science'
 2005 61 367 380 ASBSDK
_publ_author_name
;
Redhammer, G.J.;Tippelt, G.;Merz, M.;Roth, G.;Treutmann, W.;Amthauer, 
G.
;
_cell_length_a                     10.1798(12)
_cell_length_b                     9.1869(7)
_cell_length_c                     5.1978(6)
_cell_angle_alpha                  90
_cell_angle_beta                   105.614(12)
_cell_angle_gamma                  90
_cell_volume                       468.16
_cell_formula_units_Z              4
_symmetry_space_group_name_H-M     'P 1 21/c 1'
_symmetry_Int_Tables_number        14
_refine_ls_R_factor_all            .025
loop_
_symmetry_equiv_pos_site_id
_symmetry_equiv_pos_as_xyz
  1	'x, -y+.5, z+.5'
  2	'-x, -y, -z'
  3	'-x, y+.5, -z+.5'
  4	'x, y, z'
loop_
_atom_type_symbol
_atom_type_oxidation_number
Ca2+	2
Cu2+	2
Ge4+	4
O2-	-2
loop_
_atom_site_label
_atom_site_type_symbol
_atom_site_symmetry_multiplicity
_atom_site_Wyckoff_symbol
_atom_site_fract_x
_atom_site_fract_y
_atom_site_fract_z
_atom_site_occupancy
_atom_site_attached_hydrogens
_atom_site_U_iso_or_equiv
Ca1 Ca2+ 4 e 0.28387(6) 0.45280(7) 0.81060(13) 1 0 0.00915(12) 
Cu1 Cu2+ 4 e 0.22729(4) 0.66186(4) 0.25667(8) 1 0 0.00821(9) 
Ge1 Ge4+ 4 e 0.04922(3) 0.34927(3) 0.20904(7) 1 0 0.00753(9) 
Ge2 Ge4+ 4 e 0.49134(3) 0.35095(3) 0.40437(7) 1 0 0.00778(9) 
O1 O2- 4 e -0.1274(2) 0.3619(3) 0.1155(5) 1 0 0.0100(4) 
O2 O2- 4 e 0.6584(2) 0.3197(2) 0.3777(5) 1 0 0.0095(4) 
O3 O2- 4 e 0.1465(2) 0.4888(3) 0.3774(5) 1 0 0.0111(4) 
O4 O2- 4 e 0.4326(2) 0.5225(2) 0.2629(5) 1 0 0.0098(4) 
O5 O2- 4 e 0.1028(2) 0.1936(2) 0.4183(5) 1 0 0.0102(4) 
O6 O2- 4 e 0.3994(2) 0.2514(2) 0.5919(5) 1 0 0.0094(4) 

loop_
_atom_site_aniso_label
_atom_site_aniso_type_symbol
_atom_site_aniso_U_11
_atom_site_aniso_U_22
_atom_site_aniso_U_33
_atom_site_aniso_U_12
_atom_site_aniso_U_13
_atom_site_aniso_U_23
Ca1 Ca2+ 0.0082(2) 0.0091(2) 0.0098(3) 0.00001(19) 0.00183(18) 0.00048(19)
Cu1 Cu2+ 0.00767(16) 0.00815(16) 0.00798(17) -0.00054(12) 0.00067(12) 
-0.00010(13)
Ge1 Ge4+ 0.00645(14) 0.00756(14) 0.00815(15) -0.00009(10) 0.00121(10) 
-0.00019(10)
Ge2 Ge4+ 0.00704(14) 0.00741(14) 0.00886(15) -0.00010(10) 0.00207(10) 
0.00037(10)
O1 O2- 0.0071(9) 0.0116(10) 0.0106(10) -0.0003(7) 0.0011(7) -0.0008(8)
O2 O2- 0.0072(9) 0.0097(9) 0.0110(10) 0.0006(7) 0.0016(7) -0.0005(8)
O3 O2- 0.0123(10) 0.0086(9) 0.0108(10) -0.0024(7) 0.0004(8) -0.0002(8)
O4 O2- 0.0112(9) 0.0075(9) 0.0104(10) 0.0005(7) 0.0022(8) 0.0003(8)
O5 O2- 0.0115(9) 0.0105(9) 0.0094(10) 0.0017(8) 0.0041(8) 0.0019(8)
O6 O2- 0.0083(9) 0.0114(10) 0.0092(10) -0.0008(7) 0.0031(7) 0.0005(8)
#End of data_170808-ICSD


