data_73955-ICSD
#?2014 by Fachinformationszentrum Karlsruhe, and the U.S. Secretary of 
#Commerce on behalf of the United States.  All rights reserved.
_database_code_ICSD                73955
_audit_creation_date               1995/01/10
_chemical_name_systematic
;
Cesium Hydrogen Bis(phosphatozincate)
;
_chemical_formula_structural       'Cs H (Zn P O4)2'
_chemical_formula_sum              'H1 Cs1 O8 P2 Zn2'
_publ_section_title
;
The low-temperature synthesis and characterization of two layered 
materials containing 3-ring groupings: NaH(ZnPO4)2 and CsH(ZnPO4)2
;
loop_
_citation_id
_citation_journal_abbrev
_citation_year
_citation_journal_volume
_citation_page_first
_citation_page_last
_citation_journal_id_ASTM
primary 'Journal of Solid State Chemistry' 1993 107 285 295 JSSCBI
_publ_author_name
;
Nenoff, T.M.;Harrison, W.T.A.;Gier, T.E.;Calabrese, J.C.;Stucky, G.D.
;
_cell_length_a                     7.739(8)
_cell_length_b                     6.594(7)
_cell_length_c                     15.94(2)
_cell_angle_alpha                  90.
_cell_angle_beta                   90.
_cell_angle_gamma                  90.
_cell_volume                       813.43
_cell_formula_units_Z              4
_symmetry_space_group_name_H-M     'A b m a'
_symmetry_Int_Tables_number        64
_refine_ls_R_factor_all            .046
loop_
_symmetry_equiv_pos_site_id
_symmetry_equiv_pos_as_xyz
  1	'x+.5, -y, -z+.5'
  2	'-x+.5, -y, z+.5'
  3	'x, -y, z'
  4	'-x, -y, -z'
  5	'-x+.5, y, z+.5'
  6	'x+.5, y, -z+.5'
  7	'-x, y, -z'
  8	'x, y, z'
  9	'x+.5, -y+.5, -z'
 10	'-x+.5, -y+.5, z'
 11	'x, -y+.5, z+.5'
 12	'-x, -y+.5, -z+.5'
 13	'-x+.5, y+.5, z'
 14	'x+.5, y+.5, -z'
 15	'-x, y+.5, -z+.5'
 16	'x, y+.5, z+.5'
loop_
_atom_type_symbol
_atom_type_oxidation_number
Cs1+	1
H1+	1
O2-	-2
P5+	5
Zn2+	2
loop_
_atom_site_label
_atom_site_type_symbol
_atom_site_symmetry_multiplicity
_atom_site_Wyckoff_symbol
_atom_site_fract_x
_atom_site_fract_y
_atom_site_fract_z
_atom_site_occupancy
_atom_site_attached_hydrogens
_atom_site_U_iso_or_equiv
Cs1 Cs1+ 4 a 0 0.5 0.5 1. 0 0 
Zn1 Zn2+ 8 e 0.25 0.25 0.26754(3) 1. 0 0 
P1 P5+ 8 f 0.9571(3) 0 0.3572(6) 1. 0 0 
O1 O2- 8 f 0.7980(4) 0 0.2967(2) 1. 0 0 
O2 O2- 16 g 0.0595(3) 0.699(2) 0.3419(2) 1. 0 0 
O3 O2- 8 f 0.8872(4) 0 0.4472(2) 1. 0 0 
H1 H1+ 4 b 0 0 0.5 1. 0 0.02 

loop_
_atom_site_aniso_label
_atom_site_aniso_type_symbol
_atom_site_aniso_U_11
_atom_site_aniso_U_22
_atom_site_aniso_U_33
_atom_site_aniso_U_12
_atom_site_aniso_U_13
_atom_site_aniso_U_23
Cs1 Cs1+ 0.0307(3) 0.0290(3) 0.0340(3) 0 -.0039(1) 0
Zn1 Zn2+ 0.0200(3) 0.0187(3) 0.0198(3) -.0008(1) 0 0
P1 P5+ 0.0159(4) 0.0225(5) 0.0155(4) 0 0.0000(3) 0
O1 O2- 0.020(1) 0.020(1) 0.021(1) 0 -.005(1) 0
O2 O2- 0.023(1) 0.032(1) 0.025(1) -.0084(9) 0.0041(8) -.004
O3 O2- 0.021(1) 0.042(2) 0.017(1) 0 0.002(1) 0
#End of data_73955-ICSD


