data_410085-ICSD
#?2014 by Fachinformationszentrum Karlsruhe, and the U.S. Secretary of 
#Commerce on behalf of the United States.  All rights reserved.
_database_code_ICSD                410085
_audit_creation_date               2005/10/01
_chemical_name_systematic          'Potassium Dihydrogenphosphate(V)'
_chemical_formula_structural       'K (H2 P O4)'
_chemical_formula_sum              'H2 K1 O4 P1'
_publ_section_title
;
Polymorphism of potassium dihydrogen phosphate
;
loop_
_citation_id
_citation_journal_abbrev
_citation_year
_citation_journal_volume
_citation_page_first
_citation_page_last
_citation_journal_id_ASTM
primary 'Chemistry of Materials' 1998 10 2053 2057 CMATEX
_publ_author_name
;
Subramony, J. A.;Lovell, S.;Kahr, B.
;
_cell_length_a                     12.2677(6)
_cell_length_b                     8.9662(2)
_cell_length_c                     14.1207(7)
_cell_angle_alpha                  90.00
_cell_angle_beta                   91.722(2)
_cell_angle_gamma                  90.00
_cell_volume                       1552.5
_cell_formula_units_Z              16
_symmetry_space_group_name_H-M     'C 1 c 1'
_symmetry_Int_Tables_number        9
_refine_ls_R_factor_all            .0594
loop_
_symmetry_equiv_pos_site_id
_symmetry_equiv_pos_as_xyz
  1	'x, -y, z+.5'
  2	'x, y, z'
  3	'x+.5, -y+.5, z+.5'
  4	'x+.5, y+.5, z'
loop_
_atom_type_symbol
_atom_type_oxidation_number
H1+	1
K1+	1
O2-	-2
P5+	5
loop_
_atom_site_label
_atom_site_type_symbol
_atom_site_symmetry_multiplicity
_atom_site_Wyckoff_symbol
_atom_site_fract_x
_atom_site_fract_y
_atom_site_fract_z
_atom_site_occupancy
_atom_site_attached_hydrogens
_atom_site_U_iso_or_equiv
K1 K1+ 4 a 0.48210(15) 0.61832(19) 0.95495(12) 1 0 0.0196(5) 
K2 K1+ 4 a 0.74625(12) 0.8907(2) 0.72380(11) 1 0 0.0194(6) 
K3 K1+ 4 a 0.98194(15) 0.62991(19) 0.96209(13) 1 0 0.0196(5) 
K4 K1+ 4 a 0.74838(12) 0.3896(2) 0.70605(11) 1 0 0.0186(6) 
P1 P5+ 4 a 0.49551(17) 0.6601(2) 0.71657(14) 1 0 0.0151(4) 
O1 O2- 4 a 0.5229(6) 0.7822(7) 0.7943(4) 1 0 0.0228(13) 
H1 H1+ 4 a 0.5174 0.8831 0.7528 1 0 0.025 
P2 P5+ 4 a 0.73318(19) 0.8889(2) 0.96231(15) 1 0 0.0148(5) 
P3 P5+ 4 a 0.72735(17) 0.4012(2) 0.95642(13) 1 0 0.0147(5) 
P4 P5+ 4 a 0.99340(18) 0.6433(2) 0.71137(15) 1 0 0.0163(5) 
O2 O2- 4 a 0.6074(6) 0.6216(7) 0.6727(4) 1 0 0.0257(14) 
H2 H1+ 4 a 0.6057 0.6182 0.6026 1 0 0.028 
O3 O2- 4 a 0.4181(5) 0.7242(7) 0.6416(4) 1 0 0.0181(12) 
O4 O2- 4 a 0.6454(6) 0.8020(7) 1.0186(4) 1 0 0.0262(13) 
H3 H1+ 4 a 0.6168 0.8611 1.0818 1 0 0.029 
O5 O2- 4 a 0.4525(5) 0.5238(6) 0.7667(4) 1 0 0.0213(12) 
O6 O2- 4 a 0.8148(6) 0.9602(6) 1.0384(4) 1 0 0.0206(13) 
H4 H1+ 4 a 0.8618 0.8761 1.0856 1 0 0.023 
O7 O2- 4 a 0.6845(6) 1.0171(6) 0.9066(4) 1 0 0.0223(13) 
O8 O2- 4 a 0.7060(5) 0.5252(7) 0.8803(4) 1 0 0.0169(12) 
H5 H1+ 4 a 0.7191 0.6348 0.9189 1 0 0.019 
O9 O2- 4 a 0.7934(5) 0.7786(6) 0.9028(4) 1 0 0.0179(12) 
O10 O2- 4 a 0.7737(6) 0.2669(6) 0.9009(4) 1 0 0.0209(12) 
H6 H1+ 4 a 0.7333 0.1544 0.9030 1 0 0.023 
O11 O2- 4 a 0.9108(5) 0.7188(7) 0.6391(4) 1 0 0.0212(13) 
H7 H1+ 4 a 0.8549 0.6250 0.6227 1 0 0.023 
O12 O2- 4 a 0.6195(5) 0.3602(6) 0.9986(4) 1 0 0.0184(12) 
O13 O2- 4 a 0.8125(6) 0.4555(6) 1.0279(4) 1 0 0.0220(13) 
O14 O2- 4 a 1.0437(6) 0.7761(7) 0.7685(5) 1 0 0.0287(15) 
H8 H1+ 4 a 1.0021 0.8879 0.7679 1 0 0.032 
O15 O2- 4 a 0.9383(5) 0.5346(6) 0.7749(4) 1 0 0.0189(13) 
O16 O2- 4 a 1.0832(6) 0.5678(8) 0.6578(4) 1 0 0.0291(15) 

loop_
_atom_site_aniso_label
_atom_site_aniso_type_symbol
_atom_site_aniso_U_11
_atom_site_aniso_U_22
_atom_site_aniso_U_33
_atom_site_aniso_U_12
_atom_site_aniso_U_13
_atom_site_aniso_U_23
K1 K1+ 0.0166(11) 0.0194(10) 0.0227(10) -0.0027(9) 0.0002(7) 0.0029(7)
K2 K1+ 0.0143(10) 0.0202(11) 0.0238(12) 0.0022(7) 0.0001(9) 0.0023(7)
K3 K1+ 0.0154(11) 0.0157(10) 0.0276(10) -0.0026(8) 0.0019(7) -0.0009(7)
K4 K1+ 0.0140(11) 0.0181(11) 0.0237(13) 0.0028(7) -0.0008(9) -0.0008(6)
P1 P5+ 0.0117(10) 0.0140(10) 0.0196(9) 0.0037(12) 0.0001(7) 0.0007(10)
O1 O2- 0.028(4) 0.022(3) 0.019(3) -0.003(2) -0.004(2) -0.0006(19)
P2 P5+ 0.0140(12) 0.0117(11) 0.0187(10) -0.0002(10) 0.0023(8) 0.0009(9)
P3 P5+ 0.0121(12) 0.0153(11) 0.0168(10) -0.0020(13) 0.0009(7) 0.0009(11)
P4 P5+ 0.0121(11) 0.0139(11) 0.0229(10) 0.0021(11) 0.0013(8) 0.0023(11)
O2 O2- 0.025(3) 0.033(4) 0.019(3) 0.010(2) 0.000(2) 0.002(2)
O3 O2- 0.018(3) 0.014(3) 0.021(3) 0.008(2) -0.009(2) -0.0028(19)
O4 O2- 0.030(3) 0.024(4) 0.025(3) -0.011(3) 0.009(2) -0.008(2)
O5 O2- 0.020(3) 0.015(3) 0.029(3) 0.004(2) -0.001(2) -0.002(2)
O6 O2- 0.021(3) 0.019(3) 0.022(3) -0.003(2) 0.001(2) 0.001(2)
O7 O2- 0.025(3) 0.015(3) 0.026(3) 0.003(2) -0.005(2) -0.004(2)
O8 O2- 0.013(3) 0.018(3) 0.020(3) 0.003(2) -0.0023(19) -0.0003(18)
O9 O2- 0.019(3) 0.010(3) 0.025(3) 0.002(2) 0.004(2) 0.0019(19)
O10 O2- 0.019(3) 0.016(3) 0.028(3) 0.003(2) 0.004(2) 0.002(2)
O11 O2- 0.022(3) 0.018(3) 0.024(3) 0.008(2) -0.004(2) 0.002(2)
O12 O2- 0.013(3) 0.019(3) 0.023(3) -0.001(2) 0.001(2) -0.0010(19)
O13 O2- 0.020(3) 0.018(3) 0.028(3) 0.000(2) -0.002(2) 0.003(2)
O14 O2- 0.022(3) 0.020(4) 0.044(4) 0.000(3) -0.011(3) 0.004(3)
O15 O2- 0.014(3) 0.020(3) 0.023(3) -0.001(2) 0.002(2) -0.003(2)
O16 O2- 0.027(4) 0.031(4) 0.029(3) 0.009(3) 0.014(2) 0.013(2)
#End of data_410085-ICSD


