data_246254-ICSD
#?2014 by Fachinformationszentrum Karlsruhe, and the U.S. Secretary of 
#Commerce on behalf of the United States.  All rights reserved.
_database_code_ICSD                246254
_audit_creation_date               2009/08/01
_audit_update_record               2014/08/01
_chemical_name_systematic
;
Tetrapotassium Barium Cyclo-trisilicate
;
_chemical_formula_structural       'K4 Ba (Si3 O9)'
_chemical_formula_sum              'Ba1 K4 O9 Si3'
_publ_section_title
;
Structural and raman spectroscopic investigation of K4 Ba Si3 O9 and 
K4 Ca Si3 O9
;
loop_
_citation_id
_citation_journal_abbrev
_citation_year
_citation_journal_volume
_citation_journal_issue
_citation_page_first
_citation_page_last
_citation_journal_id_ASTM
primary 'Zeitschrift fuer Anorganische und Allgemeine Chemie (1950) (DE)'
 2009 635 2 337 345 ZAACAB
_publ_author_name
;
Arroyabe, E.;Kaindl, R.;Kahlenberg, V.
;
_cell_length_a                     11.0695(15)
_cell_length_b                     8.0708(10)
_cell_length_c                     11.905(2)
_cell_angle_alpha                  90.
_cell_angle_beta                   90.
_cell_angle_gamma                  90.
_cell_volume                       1063.59
_cell_formula_units_Z              4
_symmetry_space_group_name_H-M     'A m a 2'
_symmetry_Int_Tables_number        40
_refine_ls_R_factor_all            .0298
loop_
_symmetry_equiv_pos_site_id
_symmetry_equiv_pos_as_xyz
  1	'x+.5, -y, z'
  2	'-x+.5, y, z'
  3	'-x, -y, z'
  4	'x, y, z'
  5	'x+.5, -y+.5, z+.5'
  6	'-x+.5, y+.5, z+.5'
  7	'-x, -y+.5, z+.5'
  8	'x, y+.5, z+.5'
loop_
_atom_type_symbol
_atom_type_oxidation_number
Ba2+	2
K1+	1
O2-	-2
Si4+	4
loop_
_atom_site_label
_atom_site_type_symbol
_atom_site_symmetry_multiplicity
_atom_site_Wyckoff_symbol
_atom_site_fract_x
_atom_site_fract_y
_atom_site_fract_z
_atom_site_occupancy
_atom_site_attached_hydrogens
_atom_site_U_iso_or_equiv
Si1 Si4+ 8 c 0.9731(1) 0.8031(1) 0.7843(1) 1. 0 0.006(1) 
Si2 Si4+ 4 b 0.75 0.7722(1) 0.9647(1) 1. 0 0.006(1) 
O1 O2- 8 c 0.9144(1) 0.7266(2) 0.6745(1) 1. 0 0.014(1) 
O2 O2- 4 a 0 0 0.7541(2) 1. 0 0.011(1) 
O3 O2- 8 c 0.0916(1) 0.7187(2) 0.8349(1) 1. 0 0.014(1) 
O4 O2- 8 c 0.8679(1) 0.8070(2) 0.8832(1) 1. 0 0.017(1) 
O5 O2- 4 b 0.75 0.9036(2) 0.0603(2) 1. 0 0.010(1) 
O6 O2- 4 b 0.75 0.5810(2) 0.9984(2) 1. 0 0.014(1) 
Ba1 Ba2+ 4 b 0.75 0.5020(1) 0.7630(1) 1. 0 0.009(1) 
K1 K1+ 4 a 0 0.5 0.0106(1) 1. 0 0.012(1) 
K2 K1+ 4 a 0 0.5 0.5387(1) 1. 0 0.010(1) 
K3 K1+ 4 b 0.75 0.0506(1) 0.7231(1) 1. 0 0.012(1) 
K4 K1+ 4 b 0.75 0.7412(1) 0.5066(1) 1. 0 0.011(1) 

loop_
_atom_site_aniso_label
_atom_site_aniso_type_symbol
_atom_site_aniso_U_11
_atom_site_aniso_U_22
_atom_site_aniso_U_33
_atom_site_aniso_U_12
_atom_site_aniso_U_13
_atom_site_aniso_U_23
Si1 Si4+ 0.006(1) 0.002(1) 0.011(1) -0.001(1) 0.001(1) 0.001(1)
Si2 Si4+ 0.005(1) 0.002(1) 0.011(1) 0.000 0.000 -0.003(1)
O1 O2- 0.015(1) 0.015(1) 0.012(1) -0.003(1) 0.000(1) 0.001(1)
O2 O2- 0.012(1) 0.003(1) 0.019(1) 0.004(1) 0.000 0.000
O3 O2- 0.011(1) 0.012(1) 0.018(1) 0.003(1) -0.005(1) 0.004(1)
O4 O2- 0.014(1) 0.022(1) 0.016(1) -0.001(1) 0.009(1) -0.002(1)
O5 O2- 0.010(1) 0.007(1) 0.014(1) 0.000 0.000 -0.007(1)
O6 O2- 0.015(1) 0.001(1) 0.027(1) 0.000 0.000 0.004(1)
Ba1 Ba2+ 0.011(1) 0.008(1) 0.009(1) 0.000 0.000 -0.001(1)
K1 K1+ 0.009(1) 0.013(1) 0.015(1) 0.003(1) 0.000 0.000
K2 K1+ 0.009(1) 0.006(1) 0.014(1) -0.001(1) 0.000 0.000
K3 K1+ 0.008(1) 0.013(1) 0.016(1) 0.000 0.000 0.001(1)
K4 K1+ 0.011(1) 0.008(1) 0.014(1) 0.000 0.000 0.003(1)
#End of data_246254-ICSD


