data_172033-ICSD
#?2014 by Fachinformationszentrum Karlsruhe, and the U.S. Secretary of 
#Commerce on behalf of the United States.  All rights reserved.
_database_code_ICSD                172033
_audit_creation_date               2007/04/01
_chemical_name_systematic          'Calcium Aluminium Hydride'
_chemical_formula_structural       'Ca Al H5'
_chemical_formula_sum              'H5 Al1 Ca1'
_publ_section_title
;
First crystal structure studies of Ca Al H5
;
loop_
_citation_id
_citation_journal_abbrev
_citation_year
_citation_journal_volume
_citation_journal_issue
_citation_page_first
_citation_page_last
_citation_journal_id_ASTM
primary 'Inorganic Chemistry' 2006 45 10 3849 3851 INOCAJ
_publ_author_name
;
Weidenthaler, C.;Frankcombe, T.J.;Felderhoff, M.
;
_cell_length_a                     8.3797(9)
_cell_length_b                     6.9293(8)
_cell_length_c                     9.8138(11)
_cell_angle_alpha                  90
_cell_angle_beta                   93.78(1)
_cell_angle_gamma                  90
_cell_volume                       568.6
_cell_formula_units_Z              8
_symmetry_space_group_name_H-M     'P 1 21/n 1'
_symmetry_Int_Tables_number        14
_refine_ls_R_factor_all            .018
loop_
_symmetry_equiv_pos_site_id
_symmetry_equiv_pos_as_xyz
  1	'-x+.5, y+.5, -z+.5'
  2	'-x, -y, -z'
  3	'x+.5, -y+.5, z+.5'
  4	'x, y, z'
loop_
_atom_type_symbol
_atom_type_oxidation_number
Al3+	3
Ca2+	2
H1-	-1
loop_
_atom_site_label
_atom_site_type_symbol
_atom_site_symmetry_multiplicity
_atom_site_Wyckoff_symbol
_atom_site_fract_x
_atom_site_fract_y
_atom_site_fract_z
_atom_site_occupancy
_atom_site_attached_hydrogens
_atom_site_U_iso_or_equiv
Al1 Al3+ 4 e 0.5105(11) 0.3028(17) 0.3355(10) 1. 0 .013 
Al2 Al3+ 4 e 0.1072(11) 0.1970(20) 0.3405(11) 1. 0 .013 
Ca1 Ca2+ 4 e 0.2778(8) 0.2532(10) 0.0402(6) 1. 0 .013 
Ca2 Ca2+ 4 e 0.8012(7) 0.2938(12) 0.1479(7) 1. 0 .013 
H1 H1- 4 e 0.3288 0.1816 0.2779 1. 0 0 
H2 H1- 4 e 0.5352 0.2723 0.1414 1. 0 0 
H3 H1- 4 e 0.0929 0.3419 0.1918 1. 0 0 
H4 H1- 4 e 0.1870 0.3957 0.4482 1. 0 0 
H5 H1- 4 e 0.9311 0.2138 0.3632 1. 0 0 
H6 H1- 4 e 0.5090 0.6856 0.5168 1. 0 0 
H7 H1- 4 e 0.6405 0.1071 0.3489 1. 0 0 
H8 H1- 4 e 0.1928 0.0521 0.4636 1. 0 0 
H9 H1- 4 e 0.0980 0.0149 0.2189 1. 0 0 
H10 H1- 4 e 0.3099 0.5560 0.6654 1. 0 0 

#End of data_172033-ICSD


