data_402273-ICSD
#?2014 by Fachinformationszentrum Karlsruhe, and the U.S. Secretary of 
#Commerce on behalf of the United States.  All rights reserved.
_database_code_ICSD                402273
_audit_creation_date               1996/10/14
_chemical_name_systematic
;
Sodium Catena-di-mue-chloro-dichloroscandate(III)
;
_chemical_formula_structural       'Na (Cl2 (Sc Cl2))'
_chemical_formula_sum              'Cl4 Na1 Sc1'
_publ_section_title
;
Crystal structure of sodium tetrachloroscandate, Na Sc Cl4
;
loop_
_citation_id
_citation_journal_abbrev
_citation_year
_citation_journal_volume
_citation_page_first
_citation_page_last
_citation_journal_id_ASTM
primary 'Zeitschrift fuer Kristallographie (1979-2010)' 1996 211 394 394 ZEKRDZ
_publ_author_name
;
Bohnsack, A.;Meyer, G.;Wickleder, M.S.
;
_cell_length_a                     6.188(8)
_cell_length_b                     15.543(20)
_cell_length_c                     6.367(7)
_cell_angle_alpha                  90.
_cell_angle_beta                   90.
_cell_angle_gamma                  90.
_cell_volume                       612.38
_cell_formula_units_Z              4
_symmetry_space_group_name_H-M     'P b c n'
_symmetry_Int_Tables_number        60
_refine_ls_R_factor_all            .0295
loop_
_symmetry_equiv_pos_site_id
_symmetry_equiv_pos_as_xyz
  1	'x, -y, z+.5'
  2	'-x+.5, y+.5, z'
  3	'x+.5, y+.5, -z+.5'
  4	'-x, -y, -z'
  5	'-x, y, -z+.5'
  6	'x+.5, -y+.5, -z'
  7	'-x+.5, -y+.5, z+.5'
  8	'x, y, z'
loop_
_atom_type_symbol
_atom_type_oxidation_number
Cl1-	-1
Na1+	1
Sc3+	3
loop_
_atom_site_label
_atom_site_type_symbol
_atom_site_symmetry_multiplicity
_atom_site_Wyckoff_symbol
_atom_site_fract_x
_atom_site_fract_y
_atom_site_fract_z
_atom_site_occupancy
_atom_site_attached_hydrogens
Na1 Na1+ 4 c 0 0.32002(13) 0.75 1. 0 
Sc1 Sc3+ 4 c 0 0.07059(5) 0.75 1. 0 
Cl1 Cl1- 8 d 0.2345(2) 0.17769(6) 0.60438(15) 1. 0 
Cl2 Cl1- 8 d 0.22600(14) 0.04919(6) 0.07376(14) 1. 0 

loop_
_atom_site_aniso_label
_atom_site_aniso_type_symbol
_atom_site_aniso_U_11
_atom_site_aniso_U_22
_atom_site_aniso_U_33
_atom_site_aniso_U_12
_atom_site_aniso_U_13
_atom_site_aniso_U_23
Na1 Na1+ 0.0457(12) 0.0398(12) 0.0536(14) 0 -.0072(11) 0
Sc1 Sc3+ 0.0236(5) 0.0210(5) 0.0211(5) 0 0.0013(3) 0
Cl1 Cl1- 0.0434(6) 0.0373(5) 0.0476(6) -.0048(4) 0.0128(5) 0.0014(4)
Cl2 Cl1- 0.0355(5) 0.0390(5) 0.0341(6) -.0094(4) -.0041(4) 0.0035(3)
#End of data_402273-ICSD


