data_15113-ICSD
#?2014 by Fachinformationszentrum Karlsruhe, and the U.S. Secretary of 
#Commerce on behalf of the United States.  All rights reserved.
_database_code_ICSD                15113
_audit_creation_date               1980/01/01
_chemical_name_systematic          'Lithium Trioxoaurate'
_chemical_formula_structural       'Li3 Au O3'
_chemical_formula_sum              'Au1 Li3 O3'
_publ_section_title
;
Zur Kristallstruktur von Li3 Au O3, Li5 Au O4, K Au O2 und Rb Au O2
;
loop_
_citation_id
_citation_journal_abbrev
_citation_year
_citation_journal_volume
_citation_page_first
_citation_page_last
_citation_journal_id_ASTM
primary 'Zeitschrift fuer Anorganische und Allgemeine Chemie (1950) (DE)'
 1970 375 43 51 ZAACAB
_publ_author_name                  'Wasel-Nielen, H.D.;Hoppe, R.'
_cell_length_a                     9.111
_cell_length_b                     9.111
_cell_length_c                     3.576
_cell_angle_alpha                  90.
_cell_angle_beta                   90.
_cell_angle_gamma                  90.
_cell_volume                       296.84
_cell_formula_units_Z              4
_symmetry_space_group_name_H-M     'P 42/m n m'
_symmetry_Int_Tables_number        136
_refine_ls_R_factor_all            .054
loop_
_symmetry_equiv_pos_site_id
_symmetry_equiv_pos_as_xyz
  1	'-y+.5, x+.5, -z+.5'
  2	'y+.5, -x+.5, -z+.5'
  3	'y, x, -z'
  4	'-y, -x, -z'
  5	'y+.5, -x+.5, z+.5'
  6	'-y+.5, x+.5, z+.5'
  7	'-y, -x, z'
  8	'y, x, z'
  9	'x+.5, -y+.5, -z+.5'
 10	'-x+.5, y+.5, -z+.5'
 11	'x, y, -z'
 12	'-x, -y, -z'
 13	'-x+.5, y+.5, z+.5'
 14	'x+.5, -y+.5, z+.5'
 15	'-x, -y, z'
 16	'x, y, z'
loop_
_atom_type_symbol
_atom_type_oxidation_number
Au3+	3
Li1+	1
O2-	-2
loop_
_atom_site_label
_atom_site_type_symbol
_atom_site_symmetry_multiplicity
_atom_site_Wyckoff_symbol
_atom_site_fract_x
_atom_site_fract_y
_atom_site_fract_z
_atom_site_occupancy
_atom_site_attached_hydrogens
Li1 Li1+ 8 i 0.59 0.18 0 1. 0 
Li2 Li1+ 4 f 0.17 0.17 0 1. 0 
Au1 Au3+ 4 f 0.38 0.38 0 1. 0 
O1 O2- 8 i 0.152 0.384 0 1. 0 
O2 O2- 4 g 0.392 -.392 0 1. 0 

#End of data_15113-ICSD


