data_33864-ICSD
#?2014 by Fachinformationszentrum Karlsruhe, and the U.S. Secretary of 
#Commerce on behalf of the United States.  All rights reserved.
_database_code_ICSD                33864
_audit_creation_date               1992/01/20
_chemical_name_systematic          'Rubidium Heptalithium Silicate'
_chemical_formula_structural       'Rb Li5 (Li (Si O4))2'
_chemical_formula_sum              'Li7 O8 Rb1 Si2'
_publ_section_title
;
Ein "Lithosilicat" mit Kolumnareinheiten: RbLi5(Li(SiO4))2
;
loop_
_citation_id
_citation_journal_abbrev
_citation_year
_citation_journal_volume
_citation_page_first
_citation_page_last
_citation_journal_id_ASTM
primary 'Zeitschrift fuer Anorganische und Allgemeine Chemie (1950) (DE)'
 1991 592 93 105 ZAACAB
_publ_author_name                  'Bernet, K.;Hoppe, R.'
_cell_length_a                     15.631(2)
_cell_length_b                     6.354(1)
_cell_length_c                     7.763(1)
_cell_angle_alpha                  90.
_cell_angle_beta                   90.53(1)
_cell_angle_gamma                  90.
_cell_volume                       770.98
_cell_formula_units_Z              4
_symmetry_space_group_name_H-M     'C 1 2/m 1'
_symmetry_Int_Tables_number        12
_refine_ls_R_factor_all            .083
loop_
_symmetry_equiv_pos_site_id
_symmetry_equiv_pos_as_xyz
  1	'-x, y, -z'
  2	'-x, -y, -z'
  3	'x, -y, z'
  4	'x, y, z'
  5	'-x+.5, y+.5, -z'
  6	'-x+.5, -y+.5, -z'
  7	'x+.5, -y+.5, z'
  8	'x+.5, y+.5, z'
loop_
_atom_type_symbol
_atom_type_oxidation_number
Li1+	1
O2-	-2
Rb1+	1
Si4+	4
loop_
_atom_site_label
_atom_site_type_symbol
_atom_site_symmetry_multiplicity
_atom_site_Wyckoff_symbol
_atom_site_fract_x
_atom_site_fract_y
_atom_site_fract_z
_atom_site_occupancy
_atom_site_attached_hydrogens
_atom_site_U_iso_or_equiv
Rb1 Rb1+ 4 i 0.7557(1) 0 0.5311(1) 1. 0 0 
Si1 Si4+ 4 i 0.0704(2) 0.5 0.2928(3) 1. 0 0 
Si2 Si4+ 4 i 0.3534(2) 0.5 0.1403(3) 1. 0 0 
O1 O2- 8 j 0.0984(3) 0.2834(8) 0.3930(7) 1. 0 0 
O2 O2- 4 i 0.4473(5) 0.5 0.2388(10) 1. 0 0 
O3 O2- 4 i 0.1156(4) 0.5 0.1023(9) 1. 0 0 
O4 O2- 4 i 0.0327(4) 0.5 0.7482(9) 1. 0 0 
O5 O2- 8 j 0.1965(3) 0.7830(8) 0.8053(7) 1. 0 0 
O6 O2- 4 i 0.3716(5) 0.5 0.9320(9) 1. 0 0 
Li1 Li1+ 4 i 0.1428(10) 0.5 0.8605(21) 1. 0 0.0058(29) 
Li2 Li1+ 4 i 0.4292(11) 0.5 0.7155(24) 1. 0 0.0124(34) 
Li3 Li1+ 2 b 0 0.5 0 1. 0 0.0208(58) 
Li4 Li1+ 2 a 0.5 0.5 0 1. 0 0.029(7) 
Li5 Li1+ 8 j 0.3151(9) 0.2409(24) 0.8705(19) 1. 0 0.0229(31) 
Li6 Li1+ 8 j 0.4335(10) 0.2451(25) 0.366(2) 1. 0 0.0224(30) 

loop_
_atom_site_aniso_label
_atom_site_aniso_type_symbol
_atom_site_aniso_U_11
_atom_site_aniso_U_22
_atom_site_aniso_U_33
_atom_site_aniso_U_12
_atom_site_aniso_U_13
_atom_site_aniso_U_23
Rb1 Rb1+ 0.0133(1) 0.0099(4) 0.0130(5) 0 0.0001(3) 0
Si1 Si4+ 0.0091(11) 0.0078(12) 0.0066(11) 0 -.0012(9) 0
Si2 Si4+ 0.0091(11) 0.0074(12) 0.0055(11) 0 0.0003(3) 0
O1 O2- 0.0148(22) 0.0077(22) 0.0097(22) 0.0029(18) 0.0015(9) 0.0006(18)
O2 O2- 0.0144(32) 0.0088(32) 0.0127(33) 0 0.0004(27) 0
O3 O2- 0.010(3) 0.0078(32) 0.0142(34) 0 -.0002(27) 0
O4 O2- 0.0079(30) 0.0106(32) 0.0057(29) 0 -.0018(24) 0
O5 O2- 0.0129(21) 0.0112(23) 0.0114(23) 0.0041(19) 0.0035(19) -.0014(18)
O6 O2- 0.0171(34) 0.0121(33) 0.0036(29) 0 0.0041(26) 0
#End of data_33864-ICSD


