data_87759-ICSD
#?2014 by Fachinformationszentrum Karlsruhe, and the U.S. Secretary of 
#Commerce on behalf of the United States.  All rights reserved.
_database_code_ICSD                87759
_audit_creation_date               2000/12/16
_chemical_name_systematic
;
Calcium Bismuth Carbonate Oxide Fluoride
;
_chemical_formula_structural       'Ca Bi (C O3) O F'
_chemical_formula_sum              'C1 Bi1 Ca1 F1 O4'
_chemical_name_mineral             Kettnerite
_publ_section_title
;
Crystal structure determination of twinned kettnerite
;
loop_
_citation_id
_citation_journal_abbrev
_citation_year
_citation_journal_volume
_citation_page_first
_citation_page_last
_citation_journal_id_ASTM
primary 'Canadian Mineralogist' 1999 37 923 927 CAMIA6
_publ_author_name
;
Grice, J.D.;Cooper, M.A.;Hawthorne, F.C.
;
_cell_length_a                     3.7976(5)
_cell_length_b                     3.7976(5)
_cell_length_c                     13.569(4)
_cell_angle_alpha                  90.
_cell_angle_beta                   90.
_cell_angle_gamma                  90.
_cell_volume                       195.69
_cell_formula_units_Z              2
_symmetry_space_group_name_H-M     'P m m n Z'
_symmetry_Int_Tables_number        59
_refine_ls_R_factor_all            .016
loop_
_symmetry_equiv_pos_site_id
_symmetry_equiv_pos_as_xyz
  1	'x+.5, y+.5, -z'
  2	'-x, y+.5, -z'
  3	'x+.5, -y, -z'
  4	'-x, -y, -z'
  5	'-x+.5, -y+.5, z'
  6	'x, -y+.5, z'
  7	'-x+.5, y, z'
  8	'x, y, z'
loop_
_atom_type_symbol
_atom_type_oxidation_number
Bi3+	3
C4+	4
Ca2+	2
F1-	-1
O2-	-2
loop_
_atom_site_label
_atom_site_type_symbol
_atom_site_symmetry_multiplicity
_atom_site_Wyckoff_symbol
_atom_site_fract_x
_atom_site_fract_y
_atom_site_fract_z
_atom_site_occupancy
_atom_site_attached_hydrogens
Ca1 Ca2+ 2 a 0.25 0.25 0.4000(1) 1. 0 
Bi1 Bi3+ 2 a 0.25 0.25 0.09435(2) 1. 0 
C1 C4+ 2 a 0.75 0.75 0.2558(7) 1. 0 
O1 O2- 2 b 0.75 0.25 0 1. 0 
O2 O2- 2 a 0.75 0.75 0.1576(7) 1. 0 
O3 O2- 4 f 0.546(2) 0.25 0.7009(5) 1. 0 
F1 F1- 2 b 0.75 0.25 0.5 1. 0 

loop_
_atom_site_aniso_label
_atom_site_aniso_type_symbol
_atom_site_aniso_U_11
_atom_site_aniso_U_22
_atom_site_aniso_U_33
_atom_site_aniso_U_12
_atom_site_aniso_U_13
_atom_site_aniso_U_23
Ca1 Ca2+ 0.0074(4) 0.0074(4) 0.0096(8) 0 0 0
Bi1 Bi3+ 0.0118(2) 0.0118(2) 0.0094(2) 0 0 0
C1 C4+ 0.0135(23) 0.0135(23) 0.0034(35) 0 0 0
O1 O2- 0.0071(14) 0.0071(14) 0.0091(26) 0 0 0
O2 O2- 0.0312(23) 0.0312(23) 0.0078(30) 0 0 0
O3 O2- 0.0148(26) 0.0117(25) 0.0198(29) 0 0.0047(26) 0
F1 F1- 0.0125(13) 0.0125(13) 0.0114(24) 0 0 0
#End of data_87759-ICSD


