data_413898-ICSD
#?2014 by Fachinformationszentrum Karlsruhe, and the U.S. Secretary of 
#Commerce on behalf of the United States.  All rights reserved.
_database_code_ICSD                413898
_audit_creation_date               2005/10/01
_chemical_name_systematic          'Dipotassium Tetracyanoplatinate'
_chemical_formula_structural       'K2 (Pt (C N)4)'
_chemical_formula_sum              'C4 K2 N4 Pt1'
_publ_section_title
;
Ueber Kaliumtetracyanoplatinat(II), Kaliumtetracyanopalladat(II) und 
deren Monohydrate
;
loop_
_citation_id
_citation_journal_abbrev
_citation_year
_citation_journal_volume
_citation_page_first
_citation_page_last
_citation_journal_id_ASTM
primary 'Zeitschrift fuer Anorganische und Allgemeine Chemie (1950) (DE)'
 2004 630 1462 1468 ZAACAB
_publ_author_name
;
Muehle, C.;Nuss, J.;Dinnebier, R.E.;Jansen, M.
;
_cell_length_a                     13.7011(2)
_cell_length_b                     9.0709(1)
_cell_length_c                     7.0391(2)
_cell_angle_alpha                  90.000
_cell_angle_beta                   90.000
_cell_angle_gamma                  90.000
_cell_volume                       874.83
_cell_formula_units_Z              4
_symmetry_space_group_name_H-M     'P c c n'
_symmetry_Int_Tables_number        56
_refine_ls_R_factor_all            .0703
loop_
_symmetry_equiv_pos_site_id
_symmetry_equiv_pos_as_xyz
  1	'x, -y+.5, z+.5'
  2	'-x+.5, y, z+.5'
  3	'x+.5, y+.5, -z'
  4	'-x, -y, -z'
  5	'-x, y+.5, -z+.5'
  6	'x+.5, -y, -z+.5'
  7	'-x+.5, -y+.5, z'
  8	'x, y, z'
loop_
_atom_type_symbol
_atom_type_oxidation_number
C2+	2
K1+	1
N3-	-3
Pt2+	2
loop_
_atom_site_label
_atom_site_type_symbol
_atom_site_symmetry_multiplicity
_atom_site_Wyckoff_symbol
_atom_site_fract_x
_atom_site_fract_y
_atom_site_fract_z
_atom_site_occupancy
_atom_site_attached_hydrogens
_atom_site_U_iso_or_equiv
K1 K1+ 8 e 0.5939(3) 0.1456(4) 0.1976(8) 1.000 0 .0049(4) 
Pt1 Pt2+ 4 c 0.2500 0.2500 0.4086(2) 1.000 0 0 
C1 C2+ 8 e 0.3876(1) 0.3169(4) 0.4086(2) 1.000 0 0 
C2 C2+ 8 e 0.2057(3) 0.4578(1) 0.4086(2) 1.000 0 0 
N1 N3- 8 e 0.4675(1) 0.3557(7) 0.4086(2) 1.000 0 0 
N2 N3- 8 e 0.1800(4) 0.5785(2) 0.4086(2) 1.000 0 0 

loop_
_atom_site_aniso_label
_atom_site_aniso_type_symbol
_atom_site_aniso_U_11
_atom_site_aniso_U_22
_atom_site_aniso_U_33
_atom_site_aniso_U_12
_atom_site_aniso_U_13
_atom_site_aniso_U_23
Pt1 Pt2+ 0.0254(10) 0.0374(10) 0.0131(10) -0.0006(27) 0.00000 0.00000
C1 C2+ 0.0254(10) 0.0374(10) 0.0131(10) -0.0006(27) 0.00(2) 0.000(17)
C2 C2+ 0.0254(10) 0.0374(10) 0.0131(10) -0.0006(27) 0.000(18) 0.00(2)
N1 N3- 0.0254(10) 0.0374(10) 0.0131(10) -0.0006(27) 0.000(15) 0.000(15)
N2 N3- 0.0254(10) 0.0374(10) 0.0131(10) -0.0006(27) 0.000(14) 0.000(15)
#End of data_413898-ICSD


