data_99743-ICSD
#?2014 by Fachinformationszentrum Karlsruhe, and the U.S. Secretary of 
#Commerce on behalf of the United States.  All rights reserved.
_database_code_ICSD                99743
_audit_creation_date               2005/04/01
_chemical_name_systematic
;
Lithium Hexaoxovanado(III)digermanate
;
_chemical_formula_structural       'Li (V Ge2 O6)'
_chemical_formula_sum              'Ge2 Li1 O6 V1'
_publ_section_title
;
Hydrothermal synthesis, characterization and magnetic properties of 
Na V Ge2 O6 and Li V Ge2 O6
;
loop_
_citation_id
_citation_journal_abbrev
_citation_year
_citation_journal_volume
_citation_page_first
_citation_page_last
_citation_journal_id_ASTM
primary 'Materials Research Bulletin' 2004 39 1557 1567 MRBUAC
_publ_author_name                  'Emirdag-Eanes, M.;Kolis, J.W.'
_cell_length_a                     9.8508(7)
_cell_length_b                     8.754(3)
_cell_length_c                     5.395(1)
_cell_angle_alpha                  90
_cell_angle_beta                   108.35(13)
_cell_angle_gamma                  90
_cell_volume                       441.58
_cell_formula_units_Z              4
_symmetry_space_group_name_H-M     'P 1 21/c 1'
_symmetry_Int_Tables_number        14
_refine_ls_R_factor_all            .024
loop_
_symmetry_equiv_pos_site_id
_symmetry_equiv_pos_as_xyz
  1	'x, -y+.5, z+.5'
  2	'-x, -y, -z'
  3	'-x, y+.5, -z+.5'
  4	'x, y, z'
loop_
_atom_type_symbol
_atom_type_oxidation_number
Ge4+	4
Li1+	1
O2-	-2
V3+	3
loop_
_atom_site_label
_atom_site_type_symbol
_atom_site_symmetry_multiplicity
_atom_site_Wyckoff_symbol
_atom_site_fract_x
_atom_site_fract_y
_atom_site_fract_z
_atom_site_occupancy
_atom_site_attached_hydrogens
_atom_site_U_iso_or_equiv
Ge1 Ge4+ 4 e -.05270(5) 0.65920(8) 0.18110(8) 1. 0 0.00538(13) 
Ge2 Ge4+ 4 e 0.54605 0.65720(8) 0.76369(8) 1. 0 0.00572(13) 
V1 V3+ 4 e 0.75152(9) 0.34304(11) 0.04883(13) 1. 0 0.0045(2) 
O1 O2- 4 e 0.6169(4) 0.4788(5) 0.8289(7) 1. 0 0.0129(10) 
O2 O2- 4 e 0.1352(4) 0.6674(5) 0.2481(6) 1. 0 0.0074(9) 
O3 O2- 4 e 0.6408(4) 0.1672(5) 0.8231(6) 1. 0 0.0059(8) 
O4 O2- 4 e 0.8686(4) 0.4954(5) 0.2570(6) 1. 0 0.0076(9) 
O5 O2- 4 e 0.6161(4) 0.7106(5) 0.5037(6) 1. 0 0.0108(9) 
O6 O2- 4 e 0.8878(4) 0.8099(5) 0.3484(6) 1. 0 0.0099(9) 
Li1 Li1+ 4 e 0.7571(11) 0.5155(12) 0.541(2) 1. 0 0.015(2) 

#End of data_99743-ICSD


