data_42483-ICSD
#?2014 by Fachinformationszentrum Karlsruhe, and the U.S. Secretary of 
#Commerce on behalf of the United States.  All rights reserved.
_database_code_ICSD                42483
_audit_creation_date               2000/07/15
_audit_update_record               2012/02/01
_chemical_name_systematic          'Trissilver Thallium Telluride'
_chemical_formula_structural       'Ag3 Tl Te2'
_chemical_formula_sum              'Ag3 Te2 Tl1'
_publ_section_title                'Crystal structure of Ag3 Tl Te2'
loop_
_citation_id
_citation_journal_abbrev
_citation_year
_citation_journal_volume
_citation_page_first
_citation_page_last
_citation_journal_id_ASTM
primary Kristallografiya 1972 17 281 283 KRISAJ
2 'Soviet Physics, Crystallography (= Kristallografiya)'
 1972 17 237 239 SPHCA6
_publ_author_name
;
Avilov, A.S.;Imamov, R.M.;Pinsker, Z.G.
;
_cell_length_a                     4.6
_cell_length_b                     4.76
_cell_length_c                     15.45
_cell_angle_alpha                  90.
_cell_angle_beta                   90.
_cell_angle_gamma                  90.
_cell_volume                       338.29
_cell_formula_units_Z              2
_symmetry_space_group_name_H-M     'P m n a'
_symmetry_Int_Tables_number        53
_refine_ls_R_factor_all            .21
loop_
_symmetry_equiv_pos_site_id
_symmetry_equiv_pos_as_xyz
  1	'x+.5, y, -z+.5'
  2	'x+.5, -y, z+.5'
  3	'-x, y, z'
  4	'-x, -y, -z'
  5	'-x+.5, -y, z+.5'
  6	'-x+.5, y, -z+.5'
  7	'x, -y, -z'
  8	'x, y, z'
loop_
_atom_type_symbol
_atom_type_oxidation_number
Ag1+	1
Te2-	-2
Tl1+	1
loop_
_atom_site_label
_atom_site_type_symbol
_atom_site_symmetry_multiplicity
_atom_site_Wyckoff_symbol
_atom_site_fract_x
_atom_site_fract_y
_atom_site_fract_z
_atom_site_occupancy
_atom_site_attached_hydrogens
_atom_site_B_iso_or_equiv
Ag1 Ag1+ 4 h 0 0 0.315 1. 0 1.86 
Ag2 Ag1+ 2 c 0.5 0.5 0 1. 0 1.86 
Tl1 Tl1+ 2 a 0 0 0 1. 0 1.86 
Te2 Te2- 4 h 0 0.5 0.125 1. 0 1.86 

#End of data_42483-ICSD


