data_50211-ICSD
#?2014 by Fachinformationszentrum Karlsruhe, and the U.S. Secretary of 
#Commerce on behalf of the United States.  All rights reserved.
_database_code_ICSD                50211
_audit_creation_date               1999/01/19
_audit_update_record               2010/08/01
_chemical_name_systematic
;
Tripotassium Tecto-undecanitridohexaphosphate(V)
;
_chemical_formula_structural       'K3 (P6 N11)'
_chemical_formula_sum              'K3 N11 P6'
_publ_section_title
;
Darstellung und Kristallstruktur eines Kaliumnitridophosphats, K3 P6 
N11
;
loop_
_citation_id
_citation_journal_abbrev
_citation_year
_citation_journal_volume
_citation_page_first
_citation_page_last
_citation_journal_id_ASTM
primary 'Zeitschrift fuer Anorganische und Allgemeine Chemie (1950) (DE)'
 1997 623 429 433 ZAACAB
_publ_author_name                  'Jacobs, H.;Nymwegen, R.'
_cell_length_a                     10.388(3)
_cell_length_b                     10.388(3)
_cell_length_c                     10.388(3)
_cell_angle_alpha                  90.
_cell_angle_beta                   90.
_cell_angle_gamma                  90.
_cell_volume                       1120.97
_cell_formula_units_Z              4
_symmetry_space_group_name_H-M     'P 41 3 2'
_symmetry_Int_Tables_number        213
_refine_ls_R_factor_all            .0201
loop_
_symmetry_equiv_pos_site_id
_symmetry_equiv_pos_as_xyz
  1	'-z+.25, y+.75, x+.25'
  2	'z+.25, -y+.25, x+.75'
  3	'z+.75, y+.25, -x+.25'
  4	'-z+.75, -y+.75, -x+.75'
  5	'y+.75, x+.25, -z+.25'
  6	'-y+.25, x+.75, z+.25'
  7	'y+.25, -x+.25, z+.75'
  8	'-y+.75, -x+.75, -z+.75'
  9	'x+.25, -z+.25, y+.75'
 10	'x+.75, z+.25, -y+.25'
 11	'-x+.25, z+.75, y+.25'
 12	'-x+.75, -z+.75, -y+.75'
 13	'z+.5, -x+.5, -y'
 14	'-z+.5, -x, y+.5'
 15	'-z, x+.5, -y+.5'
 16	'z, x, y'
 17	'-y, z+.5, -x+.5'
 18	'y+.5, -z+.5, -x'
 19	'-y+.5, -z, x+.5'
 20	'y, z, x'
 21	'-x+.5, -y, z+.5'
 22	'-x, y+.5, -z+.5'
 23	'x+.5, -y+.5, -z'
 24	'x, y, z'
loop_
_atom_type_symbol
_atom_type_oxidation_number
K1+	1
N3-	-3
P5+	5
loop_
_atom_site_label
_atom_site_type_symbol
_atom_site_symmetry_multiplicity
_atom_site_Wyckoff_symbol
_atom_site_fract_x
_atom_site_fract_y
_atom_site_fract_z
_atom_site_occupancy
_atom_site_attached_hydrogens
_atom_site_B_iso_or_equiv
K1 K1+ 4 a 0.375 0.375 0.375 1. 0 1.7(2) 
K2 K1+ 8 c 0.7517(3) 0.7517(3) 0.7517(3) 1. 0 2.4(2) 
P1 P5+ 24 e 0.0732(3) 0.2183(5) 0.3027(4) 1. 0 2.6(2) 
N1 N3- 24 e 0.0180(7) 0.358(1) 0.2817(8) 1. 0 0.6(2) 
N2 N3- 12 d 0.125 0.1959(8) 0.4459(8) 1. 0 0.6(2) 
N3 N3- 8 c 0.2032(6) 0.2032(6) 0.2032(6) 1. 0 0.6(2) 

#End of data_50211-ICSD


