data_89685-ICSD
#?2014 by Fachinformationszentrum Karlsruhe, and the U.S. Secretary of 
#Commerce on behalf of the United States.  All rights reserved.
_database_code_ICSD                89685
_audit_creation_date               2002/04/01
_chemical_name_systematic          'Silver Dimercury Dioxide Nitrate'
_chemical_formula_structural       'Ag Hg2 O2 (N O3)'
_chemical_formula_sum              'Ag1 Hg2 N1 O5'
_publ_section_title
;
The silver(I) mercury(II) oxide nitrate with the empirical formula Ag 
Hg2 N O5
;
loop_
_citation_id
_citation_journal_abbrev
_citation_year
_citation_journal_volume
_citation_page_first
_citation_page_last
_citation_journal_id_ASTM
primary 'Zeitschrift fuer Naturforschung, B: Chemical Sciences'
 1999 54 1489 1494 ZNBSEN
_publ_author_name                  'Mormann, T.J.;Jeitschko, W.'
_cell_length_a                     6.201(1)
_cell_length_b                     6.701(1)
_cell_length_c                     12.675(2)
_cell_angle_alpha                  90.
_cell_angle_beta                   90.
_cell_angle_gamma                  90.
_cell_volume                       526.68
_cell_formula_units_Z              4
_symmetry_space_group_name_H-M     'P n m a'
_symmetry_Int_Tables_number        62
_refine_ls_R_factor_all            .026
loop_
_symmetry_equiv_pos_site_id
_symmetry_equiv_pos_as_xyz
  1	'x+.5, y, -z+.5'
  2	'x, -y+.5, z'
  3	'-x+.5, y+.5, z+.5'
  4	'-x, -y, -z'
  5	'-x+.5, -y, z+.5'
  6	'-x, y+.5, -z'
  7	'x+.5, -y+.5, -z+.5'
  8	'x, y, z'
loop_
_atom_type_symbol
_atom_type_oxidation_number
Ag1+	1
Hg2+	2
N5+	5
O2-	-2
loop_
_atom_site_label
_atom_site_type_symbol
_atom_site_symmetry_multiplicity
_atom_site_Wyckoff_symbol
_atom_site_fract_x
_atom_site_fract_y
_atom_site_fract_z
_atom_site_occupancy
_atom_site_attached_hydrogens
_atom_site_B_iso_or_equiv
Ag1 Ag1+ 4 c 0.2528(3) 0.25 0.84564(10) 1. 0 0 
Hg1 Hg2+ 8 d 0.19802(6) 0.00003(9) 0.09692(2) 1. 0 0 
N1 N5+ 4 c 0.200(2) 0.25 0.3561(11) 1. 0 1.7(3) 
O1 O2- 8 d 0.1331(14) 0.0920(14) 0.3949(6) 1. 0 2.4(2) 
O2 O2- 4 c 0.1069(16) 0.25 0.0194(8) 1. 0 1.2(2) 
O3 O2- 4 c 0.1995(17) 0.25 0.6704(8) 1. 0 1.9(2) 
O4 O2- 4 c 0.320(2) 0.25 0.2772(10) 1. 0 2.9(3) 

loop_
_atom_site_aniso_label
_atom_site_aniso_type_symbol
_atom_site_aniso_U_11
_atom_site_aniso_U_22
_atom_site_aniso_U_33
_atom_site_aniso_U_12
_atom_site_aniso_U_13
_atom_site_aniso_U_23
Ag1 Ag1+ 0.0551(8) 0.0306(6) 0.0193(5) 0 0.0018(8) 0
Hg1 Hg2+ 0.0209(2) 0.0140(1) 0.0159(1) -.0004(4) -.0016(1) 0.0004(2)
#End of data_89685-ICSD


