data_183037-ICSD
#?2014 by Fachinformationszentrum Karlsruhe, and the U.S. Secretary of 
#Commerce on behalf of the United States.  All rights reserved.
_database_code_ICSD                183037
_audit_creation_date               2012/08/01
_chemical_name_systematic          'Potassium Dihydrogen Phosphate'
_chemical_formula_structural       'K (H2 P O4)'
_chemical_formula_sum              'H2 K1 O4 P1'
_publ_section_title
;
Single-crystal neutron structural analyses of potassium dihydrogen 
phosphate and potassium dideuterium phosphate
;
loop_
_citation_id
_citation_journal_abbrev
_citation_year
_citation_journal_volume
_citation_page_first
_citation_page_last
_citation_journal_id_ASTM
primary 'Journal of the Physical Society of Japan' 2011 80 044709/1 044709/10 JUPSAU
_publ_author_name
;
Miyoshi, T.;Mashiyama, H.;Asahi, T.;Kimura, H.;Noda, Y.
;
_cell_length_a                     10.544(7)
_cell_length_b                     10.481(6)
_cell_length_c                     6.920(5)
_cell_angle_alpha                  90.
_cell_angle_beta                   90.
_cell_angle_gamma                  90.
_cell_volume                       764.74
_cell_formula_units_Z              8
_symmetry_space_group_name_H-M     'F d d 2'
_symmetry_Int_Tables_number        43
_refine_ls_R_factor_all            .0326
loop_
_symmetry_equiv_pos_site_id
_symmetry_equiv_pos_as_xyz
  1	'x+.25, -y+.25, z+.25'
  2	'-x+.25, y+.25, z+.25'
  3	'-x, -y, z'
  4	'x, y, z'
  5	'x+.25, -y+.75, z+.75'
  6	'x+.75, -y+.25, z+.75'
  7	'x+.75, -y+.75, z+.25'
  8	'-x+.25, y+.75, z+.75'
  9	'-x+.75, y+.25, z+.75'
 10	'-x+.75, y+.75, z+.25'
 11	'-x, -y+.5, z+.5'
 12	'-x+.5, -y, z+.5'
 13	'-x+.5, -y+.5, z'
 14	'x, y+.5, z+.5'
 15	'x+.5, y, z+.5'
 16	'x+.5, y+.5, z'
loop_
_atom_type_symbol
_atom_type_oxidation_number
H1+	1
K1+	1
O2-	-2
P5+	5
loop_
_atom_site_label
_atom_site_type_symbol
_atom_site_symmetry_multiplicity
_atom_site_Wyckoff_symbol
_atom_site_fract_x
_atom_site_fract_y
_atom_site_fract_z
_atom_site_occupancy
_atom_site_attached_hydrogens
_atom_site_U_iso_or_equiv
K1 K1+ 8 a 0 0 0.4837(5) 1. 0 0.0045(4) 
P1 P5+ 8 a 0 0 0 1. 0 0.0034(3) 
O1 O2- 16 b 0.03399(9) 0.11549(9) -0.1369(3) 1. 0 0.0053(2) 
O2 O2- 16 b 0.11617(9) -0.0344(1) 0.1169(4) 1. 0 0.0050(2) 
H1 H1+ 16 b 0.2127(2) 0.0632(2) 0.1138(6) 1. 0 0.0166(4) 

#End of data_183037-ICSD


