data_160320-ICSD
#?2014 by Fachinformationszentrum Karlsruhe, and the U.S. Secretary of 
#Commerce on behalf of the United States.  All rights reserved.
_database_code_ICSD                160320
_audit_creation_date               2008/08/01
_chemical_name_systematic
;
Tripotassium Triyttrium Tetrakis(borate)
;
_chemical_formula_structural       'K3 Y3 (B O3)4'
_chemical_formula_sum              'B4 K3 O12 Y3'
_publ_section_title
;
Preparation, structure and luminescent properties of a new potassium 
yttrium borate K3 Y3 (B O3)4
;
loop_
_citation_id
_citation_journal_abbrev
_citation_year
_citation_journal_volume
_citation_page_first
_citation_page_last
_citation_journal_id_ASTM
primary 'Materials Research Bulletin' 2008 43 882 888 MRBUAC
_publ_author_name                  'Gao, J.H.;Li, R.-K.'
_cell_length_a                     10.4667(16)
_cell_length_b                     17.361(3)
_cell_length_c                     13.781(2)
_cell_angle_alpha                  90.
_cell_angle_beta                   110.548(8)
_cell_angle_gamma                  90.
_cell_volume                       2344.86
_cell_formula_units_Z              8
_symmetry_space_group_name_H-M     'P 1 21/c 1'
_symmetry_Int_Tables_number        14
_refine_ls_R_factor_all            .0631
loop_
_symmetry_equiv_pos_site_id
_symmetry_equiv_pos_as_xyz
  1	'x, -y+.5, z+.5'
  2	'-x, -y, -z'
  3	'-x, y+.5, -z+.5'
  4	'x, y, z'
loop_
_atom_type_symbol
_atom_type_oxidation_number
B3+	3
K1+	1
O2-	-2
Y3+	3
loop_
_atom_site_label
_atom_site_type_symbol
_atom_site_symmetry_multiplicity
_atom_site_Wyckoff_symbol
_atom_site_fract_x
_atom_site_fract_y
_atom_site_fract_z
_atom_site_occupancy
_atom_site_attached_hydrogens
_atom_site_U_iso_or_equiv
Y1 Y3+ 4 e 0.8427(1) 0.0140(1) 0.3802(1) 1. 0 0.011(1) 
Y2 Y3+ 4 e 0.9988(1) 0.1557(1) 0.2543(1) 1. 0 0.012(1) 
Y3 Y3+ 4 e 0.5214(1) 0.1210(1) 0.2596(1) 1. 0 0.015(1) 
Y4 Y3+ 4 e 0.7089(1) -0.1530(1) 0.2479(1) 1. 0 0.012(1) 
Y5 Y3+ 4 e 0.8326(1) 0.5154(1) 0.3884(1) 1. 0 0.012(1) 
Y6 Y3+ 4 e 0.7098(1) 0.3557(1) 0.2506(1) 1. 0 0.011(1) 
K1 K1+ 4 e 0.3938(2) 0.2890(1) 0.0447(2) 1. 0 0.020(1) 
K2 K1+ 4 e 0.6060(2) 0.2892(1) 0.4601(2) 1. 0 0.020(1) 
K3 K1+ 4 e 0.9101(2) 0.1775(1) 0.5933(2) 1. 0 0.020(1) 
K4 K1+ 4 e 0.0807(2) 0.3276(1) 0.4062(2) 1. 0 0.020(1) 
K5 K1+ 4 e 0.7003(3) 0.0333(2) 0.1010(2) 1. 0 0.023(1) 
K6 K1+ 4 e 0.7068(2) -0.0370(1) 0.6003(2) 1. 0 0.020(1) 
B1 B3+ 4 e 0.6209(14) 0.6180(8) 0.4836(10) 1. 0 0.021(3) 
B2 B3+ 4 e 0.7679(11) 0.6948(7) 0.2787(9) 1. 0 0.014(2) 
B3 B3+ 4 e 0.1306(12) 0.6177(7) 0.4835(9) 1. 0 0.014(2) 
B4 B3+ 4 e 0.6167(14) 0.3873(7) -0.0188(10) 1. 0 0.019(3) 
B5 B3+ 4 e 0.7643(12) 0.2047(7) 0.2780(9) 1. 0 0.013(2) 
B6 B3+ 4 e 0.8829(12) -0.1231(7) 0.4990(9) 1. 0 0.014(2) 
B7 B3+ 4 e 0.9999(10) -0.0394(7) 0.2582(8) 1. 0 0.011(2) 
B8 B3+ 4 e 0.5023(10) -0.0444(8) 0.2465(8) 1. 0 0.014(3) 
O1 O2- 4 e 0.5036(8) 0.6293(5) 0.4073(5) 1. 0 0.020(2) 
O2 O2- 4 e 0.6443(8) 0.6509(4) 0.5808(6) 1. 0 0.020(2) 
O3 O2- 4 e 0.7252(7) 0.5749(4) 0.4721(6) 1. 0 0.019(2) 
O4 O2- 4 e 0.8098(7) 0.6188(4) 0.2848(6) 1. 0 0.017(2) 
O5 O2- 4 e 0.6495(7) 0.7193(4) 0.2845(5) 1. 0 0.017(2) 
O6 O2- 4 e 0.8614(7) 0.7493(4) 0.2709(6) 1. 0 0.018(2) 
O7 O2- 4 e 0.2259(7) 0.6121(4) 0.5823(5) 1. 0 0.016(2) 
O8 O2- 4 e 0.1328(7) 0.6714(4) 0.4154(6) 1. 0 0.019(2) 
O9 O2- 4 e 0.0448(8) 0.5552(5) 0.4568(6) 1. 0 0.028(2) 
O10 O2- 4 e 0.6536(8) 0.3628(5) 0.0840(6) 1. 0 0.022(2) 
O11 O2- 4 e 0.4950(8) 0.3635(5) -0.0874(5) 1. 0 0.021(2) 
O12 O2- 4 e 0.7043(8) 0.4272(4) -0.0511(6) 1. 0 0.025(2) 
O13 O2- 4 e 0.6478(7) 0.2323(4) 0.2858(6) 1. 0 0.018(2) 
O14 O2- 4 e 0.7873(7) 0.1255(4) 0.2789(6) 1. 0 0.017(2) 
O15 O2- 4 e 0.8619(7) 0.2555(4) 0.2712(6) 1. 0 0.019(2) 
O16 O2- 4 e 0.7672(7) -0.1099(4) 0.4135(5) 1. 0 0.014(2) 
O17 O2- 4 e 0.8839(8) -0.1717(4) 0.5747(5) 1. 0 0.020(2) 
O18 O2- 4 e 0.9885(7) -0.0760(4) 0.5016(5) 1. 0 0.016(2) 
O19 O2- 4 e 0.1023(6) -0.0655(4) 0.2259(5) 1. 0 0.012(2) 
O20 O2- 4 e 0.8895(7) -0.0810(4) 0.2559(5) 1. 0 0.015(2) 
O21 O2- 4 e 0.0056(7) 0.0335(4) 0.2967(6) 1. 0 0.019(2) 
O22 O2- 4 e 0.3883(7) -0.0045(4) 0.2441(5) 1. 0 0.016(2) 
O23 O2- 4 e 0.6171(7) -0.0068(4) 0.2491(5) 1. 0 0.014(2) 
O24 O2- 4 e 0.4990(6) -0.1232(5) 0.2469(5) 1. 0 0.020(2) 

#End of data_160320-ICSD


