data_262784-ICSD
#?2014 by Fachinformationszentrum Karlsruhe, and the U.S. Secretary of 
#Commerce on behalf of the United States.  All rights reserved.
_database_code_ICSD                262784
_audit_creation_date               2012/08/01
_chemical_name_systematic
;
Dipotassium Diaquabis(diphosphato)triferrate(II)
;
_chemical_formula_structural       'K2 (Fe3 (H2 O)2 (P2 O7)2)'
_chemical_formula_sum              'H4 Fe3 K2 O16 P4'
_publ_section_title                'K2 [Fe(II)3 (P2 O7)2 (H2 O)2]'
loop_
_citation_id
_citation_journal_abbrev
_citation_year
_citation_journal_volume
_citation_journal_issue
_citation_page_first
_citation_page_last
_citation_journal_id_ASTM
primary 'Acta Crystallographica, Section E. Structure Reports Online'
 2012 68 6 i47 i48 ACSEBH
_publ_author_name
;
Yang Juan;Zhang Xin;Liu Biao;Sun Wei;Huang Yaxi
;
_cell_length_a                     9.1517(16)
_cell_length_b                     8.1737(15)
_cell_length_c                     9.3147(17)
_cell_angle_alpha                  90.00
_cell_angle_beta                   98.860(3)
_cell_angle_gamma                  90.00
_cell_volume                       688.46
_cell_formula_units_Z              2
_symmetry_space_group_name_H-M     'P 1 21/c 1'
_symmetry_Int_Tables_number        14
_refine_ls_R_factor_all            .0319
loop_
_symmetry_equiv_pos_site_id
_symmetry_equiv_pos_as_xyz
  1	'x, -y+.5, z+.5'
  2	'-x, -y, -z'
  3	'-x, y+.5, -z+.5'
  4	'x, y, z'
loop_
_atom_type_symbol
_atom_type_oxidation_number
Fe2+	2
H1+	1
K1+	1
O2-	-2
P5+	5
loop_
_atom_site_label
_atom_site_type_symbol
_atom_site_symmetry_multiplicity
_atom_site_Wyckoff_symbol
_atom_site_fract_x
_atom_site_fract_y
_atom_site_fract_z
_atom_site_occupancy
_atom_site_attached_hydrogens
_atom_site_U_iso_or_equiv
Fe1 Fe2+ 4 e 0.86324(5) 0.85888(6) 0.50352(5) 1 0 0.00807(13) 
Fe2 Fe2+ 2 a 1.0000 0.5000 0.5000 1 0 0.00754(16) 
P1 P5+ 4 e 0.89966(9) 0.30110(10) 0.20949(9) 1 0 0.00652(18) 
P2 P5+ 4 e 0.69498(9) 0.56235(10) 0.26759(9) 1 0 0.00744(18) 
K1 K1+ 4 e 0.57440(8) 0.27162(10) 0.48169(9) 1 0 0.01682(19) 
O1 O2- 4 e 0.6935(3) 0.6515(3) 0.1248(3) 1 0 0.0111(5) 
O2 O2- 4 e 0.7397(2) 0.3719(3) 0.2360(2) 1 0 0.0090(5) 
O3 O2- 4 e 0.8654(2) 0.1362(3) 0.1376(2) 1 0 0.0084(5) 
O4 O2- 4 e 0.9925(2) 0.2944(3) 0.3595(2) 1 0 0.0094(5) 
O5 O2- 4 e 0.8140(2) 0.6235(3) 0.3887(3) 1 0 0.0103(5) 
O6 O2- 4 e 1.0389(2) 0.9230(3) 0.3891(2) 1 0 0.0089(5) 
O7 O2- 4 e 0.5448(2) 0.5477(3) 0.3129(3) 1 0 0.0120(5) 
O8 O2- 4 e 0.7250(3) 0.9942(3) 0.3420(3) 1 0 0.0146(5) 
H1 H1+ 4 e 0.770(5) 1.027(6) 0.278(5) 1 0 0.023(13) 
H2 H1+ 4 e 0.645(5) 0.991(5) 0.302(5) 1 0 0.013(11) 

loop_
_atom_site_aniso_label
_atom_site_aniso_type_symbol
_atom_site_aniso_U_11
_atom_site_aniso_U_22
_atom_site_aniso_U_33
_atom_site_aniso_U_12
_atom_site_aniso_U_13
_atom_site_aniso_U_23
Fe1 Fe2+ 0.0087(2) 0.0085(2) 0.0070(2) 0.00054(17) 0.00131(17) 0.00043(17)
Fe2 Fe2+ 0.0088(3) 0.0075(3) 0.0061(3) 0.0003(2) 0.0004(2) 0.0000(2)
P1 P5+ 0.0070(4) 0.0068(4) 0.0058(4) 0.0001(3) 0.0008(3) -0.0002(3)
P2 P5+ 0.0072(4) 0.0081(4) 0.0069(4) 0.0007(3) 0.0007(3) -0.0007(3)
K1 K1+ 0.0152(4) 0.0183(4) 0.0164(4) -0.0009(3) 0.0007(3) 0.0013(3)
O1 O2- 0.0113(11) 0.0142(12) 0.0083(11) 0.0030(9) 0.0029(9) 0.0019(9)
O2 O2- 0.0072(11) 0.0086(11) 0.0113(12) -0.0005(8) 0.0015(9) -0.0025(9)
O3 O2- 0.0105(11) 0.0075(11) 0.0071(11) -0.0004(8) 0.0014(9) -0.0016(9)
O4 O2- 0.0103(11) 0.0096(11) 0.0079(11) 0.0005(9) 0.0002(9) -0.0006(9)
O5 O2- 0.0096(11) 0.0089(11) 0.0114(12) 0.0017(9) -0.0014(9) -0.0020(9)
O6 O2- 0.0091(11) 0.0094(12) 0.0082(11) -0.0001(9) 0.0021(9) -0.0014(9)
O7 O2- 0.0072(11) 0.0134(12) 0.0158(13) -0.0004(9) 0.0028(9) -0.0008(10)
O8 O2- 0.0097(13) 0.0200(14) 0.0140(14) 0.0006(10) 0.0009(11) 0.0061(10)
#End of data_262784-ICSD


