data_34670-ICSD
#?2014 by Fachinformationszentrum Karlsruhe, and the U.S. Secretary of 
#Commerce on behalf of the United States.  All rights reserved.
_database_code_ICSD                34670
_audit_creation_date               1980/01/01
_audit_update_record               2012/08/01
_chemical_name_systematic          'Dilithium Oxide Bis(diborate)'
_chemical_formula_structural       'Li2 O (B2 O3)2'
_chemical_formula_sum              'B4 Li2 O7'
_chemical_name_mineral             Diomignite
_publ_section_title
;
Refinement of the crystal structure of lithium diborate, Li2 O (B2 
O3)3
;
loop_
_citation_id
_citation_journal_abbrev
_citation_year
_citation_journal_volume
_citation_page_first
_citation_page_last
_citation_journal_id_ASTM
primary 'Acta Crystallographica B (24,1968-38,1982)' 1968 24 179 181 ACBCAR
_publ_author_name                  'Krogh-Moe, J.'
_cell_length_a                     9.479(3)
_cell_length_b                     9.479(4)
_cell_length_c                     10.280(4)
_cell_angle_alpha                  90.
_cell_angle_beta                   90.
_cell_angle_gamma                  90.
_cell_volume                       923.67
_cell_formula_units_Z              8
_symmetry_space_group_name_H-M     'I 41 c d'
_symmetry_Int_Tables_number        110
_refine_ls_R_factor_all            .049
loop_
_symmetry_equiv_pos_site_id
_symmetry_equiv_pos_as_xyz
  1	'-y, -x+.5, z+.75'
  2	'-y, x+.5, z+.25'
  3	'x, -y, z+.5'
  4	'-x, -y, z'
  5	'y, x+.5, z+.75'
  6	'y, -x+.5, z+.25'
  7	'-x, y, z+.5'
  8	'x, y, z'
  9	'-y+.5, -x, z+.25'
 10	'-y+.5, x, z+.75'
 11	'x+.5, -y+.5, z'
 12	'-x+.5, -y+.5, z+.5'
 13	'y+.5, x, z+.25'
 14	'y+.5, -x, z+.75'
 15	'-x+.5, y+.5, z'
 16	'x+.5, y+.5, z+.5'
loop_
_atom_type_symbol
_atom_type_oxidation_number
B3+	3
Li1+	1
O2-	-2
loop_
_atom_site_label
_atom_site_type_symbol
_atom_site_symmetry_multiplicity
_atom_site_Wyckoff_symbol
_atom_site_fract_x
_atom_site_fract_y
_atom_site_fract_z
_atom_site_occupancy
_atom_site_attached_hydrogens
Li1 Li1+ 16 b 0.1507(17) 0.1679(16) 0.8512(17) 1. 0 
O1 O2- 16 b 0.2814(5) 0.1371(5) 0.2679(7) 1. 0 
O2 O2- 16 b 0.0671(5) 0.1778(5) 0.1561(8) 1. 0 
O3 O2- 16 b 0.1552(5) 0.9420(5) 0.1831(7) 1. 0 
O4 O2- 8 a 0 0 0 1. 0 
B1 B3+ 16 b 0.1686(9) 0.0860(9) 0.2032(12) 1. 0 
B2 B3+ 16 b 0.9461(8) 0.1118(8) 0.0831(9) 1. 0 

#End of data_34670-ICSD


