data_406831-ICSD
#?2014 by Fachinformationszentrum Karlsruhe, and the U.S. Secretary of 
#Commerce on behalf of the United States.  All rights reserved.
_database_code_ICSD                406831
_audit_creation_date               1997/11/10
_chemical_name_systematic
;
Dipotassium Pentachloroamminiridate(III)
;
_chemical_formula_structural       'K2 (Ir Cl5 (N H3))'
_chemical_formula_sum              'H3 Cl5 Ir1 K2 N1'
_publ_section_title
;
Kristallstruktur, Schwingungsspektren und Normalkoordinatenanalyse 
von K2 (Ir Cl5 (N H3))
;
loop_
_citation_id
_citation_journal_abbrev
_citation_year
_citation_journal_volume
_citation_page_first
_citation_page_last
_citation_journal_id_ASTM
primary 'Zeitschrift fuer Anorganische und Allgemeine Chemie (1950) (DE)'
 1997 623 1389 1392 ZAACAB
_publ_author_name                  'Bernhardt, E.;Preetz, W.'
_cell_length_a                     13.426(4)
_cell_length_b                     10.015(2)
_cell_length_c                     6.8717(7)
_cell_angle_alpha                  90.
_cell_angle_beta                   90.
_cell_angle_gamma                  90.
_cell_volume                       923.98
_cell_formula_units_Z              4
_symmetry_space_group_name_H-M     'P n m a'
_symmetry_Int_Tables_number        62
_refine_ls_R_factor_all            .0313
loop_
_symmetry_equiv_pos_site_id
_symmetry_equiv_pos_as_xyz
  1	'x+.5, y, -z+.5'
  2	'x, -y+.5, z'
  3	'-x+.5, y+.5, z+.5'
  4	'-x, -y, -z'
  5	'-x+.5, -y, z+.5'
  6	'-x, y+.5, -z'
  7	'x+.5, -y+.5, -z+.5'
  8	'x, y, z'
loop_
_atom_type_symbol
_atom_type_oxidation_number
Cl1-	-1
H1+	1
Ir3+	3
K1+	1
N3-	-3
loop_
_atom_site_label
_atom_site_type_symbol
_atom_site_symmetry_multiplicity
_atom_site_Wyckoff_symbol
_atom_site_fract_x
_atom_site_fract_y
_atom_site_fract_z
_atom_site_occupancy
_atom_site_attached_hydrogens
_atom_site_U_iso_or_equiv
Ir1 Ir3+ 4 c 0.11230(3) 0.25 0.18403(5) 1. 0 0 
N1 N3- 4 c -.0083(7) 0.25 -.0030(16) 1. 0 0 
H1 H1+ 8 d -.0045(67) 0.3155(99) -0.066(15) 1. 0 0.025(26) 
H2 H1+ 4 c -0.053(11) 0.25 0.060(23) 1. 0 0.025(26) 
Cl1 Cl1- 4 c 0.2158(2) 0.25 -.0895(4) 1. 0 0 
Cl2 Cl1- 8 d 0.1098(2) 0.0156(2) 0.1821(3) 1. 0 0 
Cl3 Cl1- 4 c 0.0045(2) 0.25 0.4561(4) 1. 0 0 
Cl5 Cl1- 4 c 0.2530(2) 0.25 0.3912(4) 1. 0 0 
K1 K1+ 8 d 0.3474(2) 0.0015(2) 0.1324(3) 1. 0 0 

loop_
_atom_site_aniso_label
_atom_site_aniso_type_symbol
_atom_site_aniso_U_11
_atom_site_aniso_U_22
_atom_site_aniso_U_33
_atom_site_aniso_U_12
_atom_site_aniso_U_13
_atom_site_aniso_U_23
Ir1 Ir3+ 0.0112(3) 0.0082(3) 0.0125(3) 0 -.00166(13) 0
N1 N3- 0.017(5) 0.009(5) 0.024(5) 0 -.005(4) 0
Cl1 Cl1- 0.0238(14) 0.035(2) 0.0156(12) 0 0.0042(10) 0
Cl2 Cl1- 0.0340(13) 0.0071(10) 0.0400(13) 0.0008(8) -.0138(8) -.0009(7)
Cl3 Cl1- 0.0185(13) 0.034(2) 0.0208(14) 0 0.0071(11) 0
Cl5 Cl1- 0.0168(12) 0.0209(13) 0.0176(12) 0 -.0065(10) 0
K1 K1+ 0.0344(11) 0.0269(10) 0.0316(10) 0.0010(9) 0.0043(8) -.0038(8)
#End of data_406831-ICSD


