data_169347-ICSD
#?2014 by Fachinformationszentrum Karlsruhe, and the U.S. Secretary of 
#Commerce on behalf of the United States.  All rights reserved.
_database_code_ICSD                169347
_audit_creation_date               2011/02/01
_chemical_name_systematic
;
Pentamagnesium Tin Tetraoxide Diborate
;
_chemical_formula_structural       'Mg5 Sn O4 (B O3)2'
_chemical_formula_sum              'B2 Mg5 O10 Sn1'
_publ_section_title
;
Synthesis, crystal structure analysis and photoluminescence of Ti(4+)-
doped Mg5 Sn B2 O10
;
loop_
_citation_id
_citation_journal_abbrev
_citation_year
_citation_journal_volume
_citation_page_first
_citation_page_last
_citation_journal_id_ASTM
primary 'Chemistry of Materials' 2010 22 5937 5944 CMATEX
_publ_author_name                  'Kawano, T.;Yamane, H.'
_cell_length_a                     6.1295(8)
_cell_length_b                     18.714(3)
_cell_length_c                     24.719(3)
_cell_angle_alpha                  90.021(5)
_cell_angle_beta                   90.032(4)
_cell_angle_gamma                  90.041(5)
_cell_volume                       2835.45
_cell_formula_units_Z              16
_symmetry_space_group_name_H-M     'F -1'
_symmetry_Int_Tables_number        2
_refine_ls_R_factor_all            .0162
loop_
_symmetry_equiv_pos_site_id
_symmetry_equiv_pos_as_xyz
  1	'-x, -y, -z'
  2	'x, y, z'
  3	'-x, -y+.5, -z+.5'
  4	'-x+.5, -y, -z+.5'
  5	'-x+.5, -y+.5, -z'
  6	'x, y+.5, z+.5'
  7	'x+.5, y, z+.5'
  8	'x+.5, y+.5, z'
loop_
_atom_type_symbol
_atom_type_oxidation_number
B3+	3
Mg2+	2
O2-	-2
Sn4+	4
loop_
_atom_site_label
_atom_site_type_symbol
_atom_site_symmetry_multiplicity
_atom_site_Wyckoff_symbol
_atom_site_fract_x
_atom_site_fract_y
_atom_site_fract_z
_atom_site_occupancy
_atom_site_attached_hydrogens
_atom_site_U_iso_or_equiv
Sn1 Sn4+ 8 i 0.49986(7) 0.120353(17) 0.057754(17) 1 0 0.00367(13) 
Sn2 Sn4+ 8 i 0.99990(7) 0.130103(19) 0.306762(16) 1 0 0.00365(13) 
Mg1 Mg2+ 8 i 0.5010(4) 0.13220(11) 0.31030(9) 1 0 0.0062(6) 
Mg2 Mg2+ 8 i 0.0001(3) 0.11841(10) 0.05925(8) 1 0 0.0052(6) 
Mg3 Mg2+ 8 i 0.7398(3) 0.00003(8) 0.49998(7) 1 0 0.0068(5) 
Mg4 Mg2+ 8 i 0.7412(2) 0.25003(7) 0.25006(7) 1 0 0.0048(4) 
Mg5 Mg2+ 8 i 0.2448(3) 0.00203(12) 0.14089(8) 1 0 0.0052(3) 
Mg6 Mg2+ 8 i 0.7521(3) 0.25181(12) 0.10923(8) 1 0 0.0066(3) 
Mg7 Mg2+ 8 i 0.7528(3) 0.24817(12) 0.39078(8) 1 0 0.0067(3) 
Mg8 Mg2+ 8 i 0.7543(3) 0.00208(12) 0.14083(8) 1 0 0.0048(3) 
Mg9 Mg2+ 8 i 0.4997(2) 0.25630(8) 0.00097(5) 1 0 0.0060(4) 
Mg10 Mg2+ 8 i 0.49974(19) 0.00529(7) 0.24995(5) 1 0 0.0056(4) 
O1 O2- 8 i 0.9995(6) 0.31184(17) 0.07085(15) 1 0 0.0036(6) 
O2 O2- 8 i 0.9985(6) 0.4256(2) 0.02175(13) 1 0 0.0067(7) 
O3 O2- 8 i 0.0010(5) 0.0765(2) 0.38234(13) 1 0 0.0062(7) 
O4 O2- 8 i 0.4976(5) 0.1748(2) 0.22846(13) 1 0 0.0049(7) 
O5 O2- 8 i 0.5002(6) 0.0650(2) 0.17867(14) 1 0 0.0096(8) 
O6 O2- 8 i 0.4979(5) 0.1770(2) 0.13177(13) 1 0 0.0040(7) 
O7 O2- 8 i 0.5029(5) 0.0723(2) 0.38161(13) 1 0 0.0066(7) 
O8 O2- 8 i 0.5010(6) 0.31547(18) 0.07289(14) 1 0 0.0046(6) 
O9 O2- 8 i 0.4971(5) 0.4264(2) 0.02145(13) 1 0 0.0054(7) 
O10 O2- 8 i 0.9981(5) 0.1754(2) 0.13145(13) 1 0 0.0064(7) 
O11 O2- 8 i 0.0001(6) 0.0631(2) 0.17967(14) 1 0 0.0066(7) 
O12 O2- 8 i 0.9979(6) 0.1743(2) 0.22801(14) 1 0 0.0066(7) 
O13 O2- 8 i 0.2578(5) 0.0521(2) 0.07147(14) 1 0 0.0057(7) 
O14 O2- 8 i 0.7458(5) 0.0520(2) 0.07141(13) 1 0 0.0036(7) 
O15 O2- 8 i 0.7409(5) 0.1933(2) 0.03871(13) 1 0 0.0054(7) 
O16 O2- 8 i 0.2580(5) 0.19318(19) 0.03869(13) 1 0 0.0053(7) 
O17 O2- 8 i 0.7570(6) 0.30188(19) 0.17861(16) 1 0 0.0060(7) 
O18 O2- 8 i 0.7540(6) 0.19809(19) 0.32153(16) 1 0 0.0053(7) 
O19 O2- 8 i 0.7589(5) 0.4434(2) 0.21142(13) 1 0 0.0055(7) 
O20 O2- 8 i 0.7600(5) 0.0567(2) 0.28859(13) 1 0 0.0066(7) 
B1 B3+ 8 i 0.9984(13) 0.3845(3) 0.0692(3) 1 0 0.0069(9) 
B2 B3+ 8 i 0.4986(9) 0.1391(4) 0.1809(2) 1 0 0.0053(11) 
B3 B3+ 8 i 0.4980(10) 0.3893(3) 0.0707(3) 1 0 0.0057(9) 
B4 B3+ 8 i 0.9977(9) 0.1369(4) 0.1789(2) 1 0 0.0049(11) 

loop_
_atom_site_aniso_label
_atom_site_aniso_type_symbol
_atom_site_aniso_U_11
_atom_site_aniso_U_22
_atom_site_aniso_U_33
_atom_site_aniso_U_12
_atom_site_aniso_U_13
_atom_site_aniso_U_23
Sn1 Sn4+ 0.0040(2) 0.0037(3) 0.0033(2) -0.00035(18) 0.00040(19) 0.00036(15)
Sn2 Sn4+ 0.0037(2) 0.0030(3) 0.0043(2) 0.00021(19) 0.00011(19) 0.00065(18)
Mg1 Mg2+ 0.0069(11) 0.0050(13) 0.0067(10) -0.0026(9) 0.0010(8) 0.0032(9)
Mg2 Mg2+ 0.0036(11) 0.0065(13) 0.0054(10) 0.0008(11) -0.0011(8) 0.0034(9)
Mg3 Mg2+ 0.0064(9) 0.0068(12) 0.0071(9) -0.0028(9) 0.0007(7) -0.0004(10)
Mg4 Mg2+ 0.0063(9) 0.0054(11) 0.0027(8) -0.0030(8) 0.0001(7) 0.0018(9)
Mg5 Mg2+ 0.0059(8) 0.0057(8) 0.0042(7) -0.0010(7) 0.0005(6) 0.0017(7)
Mg6 Mg2+ 0.0080(8) 0.0064(8) 0.0055(8) -0.0023(7) 0.0001(6) -0.0005(8)
Mg7 Mg2+ 0.0092(8) 0.0060(8) 0.0049(7) -0.0002(7) 0.0005(6) -0.0003(7)
Mg8 Mg2+ 0.0033(7) 0.0066(8) 0.0046(7) -0.0012(7) 0.0006(6) 0.0019(7)
Mg9 Mg2+ 0.0066(8) 0.0056(8) 0.0058(8) 0.0000(6) 0.0003(7) 0.0009(6)
Mg10 Mg2+ 0.0051(8) 0.0071(8) 0.0047(8) -0.0003(6) 0.0003(7) -0.0017(6)
#End of data_169347-ICSD


