data_31120-ICSD
#?2014 by Fachinformationszentrum Karlsruhe, and the U.S. Secretary of 
#Commerce on behalf of the United States.  All rights reserved.
_database_code_ICSD                31120
_audit_creation_date               1980/01/01
_audit_update_record               2012/02/01
_chemical_name_systematic          'Potassium Chlorate(V)'
_chemical_formula_structural       'K (Cl O3)'
_chemical_formula_sum              'Cl1 K1 O3'
_publ_section_title
;
An accurate redetermination of the structure of potassium chlorate, K 
Cl O3
;
loop_
_citation_id
_citation_journal_abbrev
_citation_year
_citation_journal_volume
_citation_page_first
_citation_page_last
_citation_journal_id_ASTM
primary
;
Zeitschrift fuer Kristallographie, Kristallgeometrie, Kristallphysik, 
Kristallchemie (-144,1977)
;
 1958 111 35 45 ZEKGAX
2
;
Zeitschrift fuer Kristallographie, Kristallgeometrie, Kristallphysik, 
Kristallchemie (-144,1977)
;
 1929 71 501 506 ZEKGAX
3 'Golden Book of Phase Transitions, Wroclaw' 2002 1 1 123 GBOPT5
_publ_author_name                  'Aravindakshan, C.'
_cell_length_a                     4.647(4)
_cell_length_b                     5.585(5)
_cell_length_c                     7.085(7)
_cell_angle_alpha                  90.
_cell_angle_beta                   109.65(8)
_cell_angle_gamma                  90.
_cell_volume                       173.17
_cell_formula_units_Z              2
_symmetry_space_group_name_H-M     'P 1 21/m 1'
_symmetry_Int_Tables_number        11
_refine_ls_R_factor_all            .087
loop_
_symmetry_equiv_pos_site_id
_symmetry_equiv_pos_as_xyz
  1	'x, -y+.5, z'
  2	'-x, -y, -z'
  3	'-x, y+.5, -z'
  4	'x, y, z'
loop_
_atom_type_symbol
_atom_type_oxidation_number
Cl5+	5
K1+	1
O2-	-2
loop_
_atom_site_label
_atom_site_type_symbol
_atom_site_symmetry_multiplicity
_atom_site_Wyckoff_symbol
_atom_site_fract_x
_atom_site_fract_y
_atom_site_fract_z
_atom_site_occupancy
_atom_site_attached_hydrogens
_atom_site_B_iso_or_equiv
K1 K1+ 2 e 0.3573 0.25 0.7104 1. 0 3.2 
Cl1 Cl5+ 2 e 0.12 0.25 0.18 1. 0 3.2 
O1 O2- 2 e 0.3897 0.25 0.1178 1. 0 3.2 
O2 O2- 4 f 0.1406 0.4638 0.3104 1. 0 3.2 

#End of data_31120-ICSD


