data_248202-ICSD
#?2014 by Fachinformationszentrum Karlsruhe, and the U.S. Secretary of 
#Commerce on behalf of the United States.  All rights reserved.
_database_code_ICSD                248202
_audit_creation_date               2011/02/01
_chemical_name_systematic
;
Potassium Diberyllium Phyllo-heptaoxotriborate - Alpha
;
_chemical_formula_structural       'K Be2 B3 O7'
_chemical_formula_sum              'B3 Be2 K1 O7'
_publ_section_title
;
Alkaline beryllium borate Na Be B3 O6 and A Be2 B3 O7 (A = K, Rb) as 
UV nonlinear optical crystals
;
loop_
_citation_id
_citation_journal_abbrev
_citation_year
_citation_journal_volume
_citation_journal_issue
_citation_page_first
_citation_page_last
_citation_journal_id_ASTM
primary 'Journal of the American Chemical Society' 2010 132 25 8779 8786 JACSAT
_publ_author_name
;
Wang Shichao;Ye Ning;Li Wei;Zhao Dan
;
_cell_length_a                     10.405(10)
_cell_length_b                     9.001(7)
_cell_length_c                     6.559(14)
_cell_angle_alpha                  90
_cell_angle_beta                   114.543(11)
_cell_angle_gamma                  90
_cell_volume                       558.78
_cell_formula_units_Z              4
_symmetry_space_group_name_H-M     'C 1 2/c 1'
_symmetry_Int_Tables_number        15
_refine_ls_R_factor_all            .0235
loop_
_symmetry_equiv_pos_site_id
_symmetry_equiv_pos_as_xyz
  1	'x, -y, z+.5'
  2	'-x, -y, -z'
  3	'-x, y, -z+.5'
  4	'x, y, z'
  5	'x+.5, -y+.5, z+.5'
  6	'-x+.5, -y+.5, -z'
  7	'-x+.5, y+.5, -z+.5'
  8	'x+.5, y+.5, z'
loop_
_atom_type_symbol
_atom_type_oxidation_number
B3+	3
Be2+	2
K1+	1
O2-	-2
loop_
_atom_site_label
_atom_site_type_symbol
_atom_site_symmetry_multiplicity
_atom_site_Wyckoff_symbol
_atom_site_fract_x
_atom_site_fract_y
_atom_site_fract_z
_atom_site_occupancy
_atom_site_attached_hydrogens
_atom_site_U_iso_or_equiv
K1 K1+ 4 e 0 0.17903(5) 0.25 1 0 0.0143(2) 
Be1 Be2+ 8 f 0.15472(19) 0.2094(2) -0.1573(3) 1 0 0.0083(4) 
B1 B3+ 4 e 0 0.4496(3) -0.25 1 0 0.0101(5) 
B2 B3+ 8 f 0.24832(17) 0.01919(17) 0.1830(3) 1 0 0.0081(4) 
O1 O2- 4 e 0 0.29746(15) -0.25 1 0 0.0083(3) 
O2 O2- 8 f 0.22101(11) 0.16540(10) 0.11682(17) 1 0 0.0078(3) 
O3 O2- 8 f 0.38608(11) -0.03378(11) 0.2360(2) 1 0 0.0143(3) 
O4 O2- 8 f 0.15051(11) -0.07066(11) 0.19650(18) 1 0 0.0106(3) 

loop_
_atom_site_aniso_label
_atom_site_aniso_type_symbol
_atom_site_aniso_U_11
_atom_site_aniso_U_22
_atom_site_aniso_U_33
_atom_site_aniso_U_12
_atom_site_aniso_U_13
_atom_site_aniso_U_23
K1 K1+ 0.0121(3) 0.0133(3) 0.0193(3) 0 0.0084(2) 0
Be1 Be2+ 0.0067(9) 0.0077(8) 0.0102(8) -0.0001(6) 0.0033(7) 0.0001(6)
B1 B3+ 0.0074(10) 0.0101(10) 0.0122(10) 0 0.0035(9) 0
B2 B3+ 0.0073(7) 0.0098(7) 0.0070(7) -0.0002(6) 0.0027(6) -0.0001(5)
O1 O2- 0.0048(7) 0.0081(7) 0.0115(7) 0 0.0028(5) 0
O2 O2- 0.0057(5) 0.0082(5) 0.0091(5) -0.0003(3) 0.0027(4) 0.0014(3)
O3 O2- 0.0078(5) 0.0078(5) 0.0283(7) 0.0007(4) 0.0084(5) 0.0026(4)
O4 O2- 0.0070(5) 0.0100(5) 0.0144(6) 0.0000(4) 0.0041(4) 0.0034(4)
#End of data_248202-ICSD


