data_37094-ICSD
#?2014 by Fachinformationszentrum Karlsruhe, and the U.S. Secretary of 
#Commerce on behalf of the United States.  All rights reserved.
_database_code_ICSD                37094
_audit_creation_date               1980/01/01
_audit_update_record               1990/05/24
_chemical_name_systematic          'Sodium Thiosulfate - Alpha'
_chemical_formula_structural       'Na2 S2 O3'
_chemical_formula_sum              'Na2 O3 S2'
_publ_section_title                'Zur Polymorphie des Na2 S2 O3'
loop_
_citation_id
_citation_journal_abbrev
_citation_year
_citation_journal_volume
_citation_page_first
_citation_page_last
_citation_journal_id_ASTM
primary
;
Zeitschrift fuer Naturforschung, Teil B. Anorganische Chemie, 
Organische Chemie (33,1978-41,1986)
;
 1979 34 957 968 ZNBAD2
_publ_author_name                  'von Benda, H.;von Benda, K.'
_cell_length_a                     10.674(3)
_cell_length_b                     15.812(4)
_cell_length_c                     7.991(2)
_cell_angle_alpha                  90.
_cell_angle_beta                   90.
_cell_angle_gamma                  90.
_cell_volume                       1348.7
_cell_formula_units_Z              12
_symmetry_space_group_name_H-M     'P n a 21'
_symmetry_Int_Tables_number        33
_refine_ls_R_factor_all            .023
loop_
_symmetry_equiv_pos_site_id
_symmetry_equiv_pos_as_xyz
  1	'x+.5, -y+.5, z'
  2	'-x+.5, y+.5, z+.5'
  3	'-x, -y, z+.5'
  4	'x, y, z'
loop_
_atom_type_symbol
_atom_type_oxidation_number
Na1+	1
O2-	-2
S2-	-2
S6+	6
loop_
_atom_site_label
_atom_site_type_symbol
_atom_site_symmetry_multiplicity
_atom_site_Wyckoff_symbol
_atom_site_fract_x
_atom_site_fract_y
_atom_site_fract_z
_atom_site_occupancy
_atom_site_attached_hydrogens
S1 S6+ 4 a 0.43726(7) 0.07771(4) 0.64775(23) 1. 0 
S2 S2- 4 a 0.12285(7) 0.41241(5) 0.63667(23) 1. 0 
S3 S6+ 4 a 0.01134(7) 0.06611(5) 0.72944(23) 1. 0 
S4 S2- 4 a 0.00352(9) 0.16100(6) 0.56379(24) 1. 0 
S5 S6+ 4 a 0.27870(7) 0.23818(4) 0.16295(23) 1. 0 
S6 S2- 4 a 0.27496(8) 0.80248(5) 0.45888(23) 1. 0 
O1 O2- 4 a 0.38365(26) 0.10700(18) 0.48786(40) 1. 0 
O2 O2- 4 a 0.38794(26) 0.13190(18) 0.78361(45) 1. 0 
O3 O2- 4 a 0.09933(24) 0.48986(14) 0.17770(46) 1. 0 
O4 O2- 4 a 0.18866(23) 0.01073(15) 0.69211(41) 1. 0 
O5 O2- 4 a 0.02862(27) 0.10358(16) 0.89758(38) 1. 0 
O6 O2- 4 a 0.39530(22) 0.48349(15) 0.72144(40) 1. 0 
O7 O2- 4 a 0.23611(23) 0.15053(14) 0.15210(42) 1. 0 
O8 O2- 4 a 0.41695(20) 0.24197(15) 0.17044(41) 1. 0 
O9 O2- 4 a 0.22426(25) 0.27933(17) 0.31159(39) 1. 0 
Na1 Na1+ 4 a 0.48541(14) 0.62205(9) 0.70155(29) 1. 0 
Na2 Na1+ 4 a 0.04336(14) 0.36477(10) 0.28613 1. 0 
Na3 Na1+ 4 a 0.98596(13) 0.25136(9) 0.88202(28) 1. 0 
Na4 Na1+ 4 a 0.25739(15) 0.23563(11) 0.5850(3) 1. 0 
Na5 Na1+ 4 a 0.24683(14) 0.04279(10) 0.95144(31) 1. 0 
Na6 Na1+ 4 a 0.25517(14) 0.48485(10) 0.94585(29) 1. 0 

loop_
_atom_site_aniso_label
_atom_site_aniso_type_symbol
_atom_site_aniso_B_11
_atom_site_aniso_B_22
_atom_site_aniso_B_33
_atom_site_aniso_B_12
_atom_site_aniso_B_13
_atom_site_aniso_B_23
S1 S6+ 1.32(3) 0.97(2) 1.11(3) 0.02(2) -.03(3) -.05(2)
S2 S2- 1.31(3) 1.96(3) 1.52(3) 0.05(2) -.12(3) 0.27(3)
S3 S6+ 1.10(3) 1.02(2) 1.04(3) 0.03(2) 0.05(2) -.07(2)
S4 S2- 2.51(4) 1.58(3) 1.14(3) -.02(3) 0.05(3) 0.31(3)
S5 S6+ 1.02(3) 1.02(2) 1.00(3) -.05(2) 0.01(3) -.02(2)
S6 S2- 1.52(3) 1.48(3) 1.33(3) -.07(2) 0.16(3) 0.29(3)
O1 O2- 1.78(10) 2.42(11) 1.81(11) 0.07(8) -.47(9) 0.69(9)
O2 O2- 2.17(11) 2.41(11) 2.53(11) -.45(9) 0.92(10) -1.27(10)
O3 O2- 2.40(11) 1.21(8) 2.94(12) 0.31(7) 0.73(10) 0.45(9)
O4 O2- 1.44(8) 1.77(9) 2.20(11) 0.41(7) 0.16(8) -.32(9)
O5 O2- 2.80(11) 1.51(9) 0.94(9) 0.30(8) -.36(8) 0.30(8)
O6 O2- 1.31(9) 1.50(9) 2.38(11) 0.31(7) 0.25(8) 0.14(9)
O7 O2- 2.51(10) 1.17(8) 2.04(11) -.60(7) -.18(10) 0.09(9)
O8 O2- 1.04(8) 1.80(8) 1.58(9) 0.03(7) -.08(8) 0.35(8)
O9 O2- 2.33(11) 2.28(10) 1.17(9) 0.81(8) 0.31(8) -.25(9)
Na1 Na1+ 2.52(6) 1.44(5) 1.90(6) -.26(5) -.26(5) 0.18(5)
Na2 Na1+ 2.01(5) 1.40(5) 1.99(6) -.19(4) 0.16(5) -.18(5)
Na3 Na1+ 1.98(6) 1.71(5) 1.44(6) 0.23(4) -.02(5) -.05(5)
Na4 Na1+ 2.34(6) 2.78(8) 1.88(7) 0.34(5) -.14(5) 0.20(6)
Na5 Na1+ 2.31(5) 2.10(6) 2.03(6) 0.26(5) -.37(5) -.08(5)
Na6 Na1+ 2.12(6) 2.71(6) 1.87(6) 0.01(5) 0.44(5) -.57(65)
#End of data_37094-ICSD


