data_24529-ICSD
#?2014 by Fachinformationszentrum Karlsruhe, and the U.S. Secretary of 
#Commerce on behalf of the United States.  All rights reserved.
_database_code_ICSD                24529
_audit_creation_date               1980/01/01
_audit_update_record               2009/08/01
_chemical_name_systematic          'Tetrapotassium Hexanitroniccolate'
_chemical_formula_structural       'K4 (Ni (N O2)6)'
_chemical_formula_sum              'K4 N6 Ni1 O12'
_publ_section_title
;
La struttura del nichelesanitrito potassico
;
loop_
_citation_id
_citation_journal_abbrev
_citation_year
_citation_journal_volume
_citation_page_first
_citation_page_last
_citation_journal_id_ASTM
primary 'Gazzetta Chimica Italiana' 1951 81 945 959 GCITA9
_publ_author_name
;
Ferrari, A.;Cavalca, L.;Nardelli, M.
;
_cell_length_a                     7.63
_cell_length_b                     7.63
_cell_length_c                     22.42
_cell_angle_alpha                  90.
_cell_angle_beta                   90.
_cell_angle_gamma                  120.
_cell_volume                       1130.36
_cell_formula_units_Z              3
_symmetry_space_group_name_H-M     'R -3 H'
_symmetry_Int_Tables_number        148
loop_
_symmetry_equiv_pos_site_id
_symmetry_equiv_pos_as_xyz
  1	'x-y, x, -z'
  2	'y, -x+y, -z'
  3	'-x, -y, -z'
  4	'-x+y, -x, z'
  5	'-y, x-y, z'
  6	'x, y, z'
  7	'x-y+.6666, x+.3333, -z+.3333'
  8	'x-y+.3333, x+.6666, -z+.6666'
  9	'y+.6666, -x+y+.3333, -z+.3333'
 10	'y+.3333, -x+y+.6666, -z+.6666'
 11	'-x+.6666, -y+.3333, -z+.3333'
 12	'-x+.3333, -y+.6666, -z+.6666'
 13	'-x+y+.6666, -x+.3333, z+.3333'
 14	'-x+y+.3333, -x+.6666, z+.6666'
 15	'-y+.6666, x-y+.3333, z+.3333'
 16	'-y+.3333, x-y+.6666, z+.6666'
 17	'x+.6666, y+.3333, z+.3333'
 18	'x+.3333, y+.6666, z+.6666'
loop_
_atom_type_symbol
_atom_type_oxidation_number
K1+	1
N3+	3
Ni2+	2
O2-	-2
loop_
_atom_site_label
_atom_site_type_symbol
_atom_site_symmetry_multiplicity
_atom_site_Wyckoff_symbol
_atom_site_fract_x
_atom_site_fract_y
_atom_site_fract_z
_atom_site_occupancy
_atom_site_attached_hydrogens
K1 K1+ 6 c 0 0 -.194 1. 0 
K2 K1+ 6 c 0 0 -.379 1. 0 
Ni1 Ni2+ 3 a 0 0 0 1. 0 
N1 N3+ 18 f 0.266 0.133 0.055 1. 0 
O1 O2- 18 f 0.266 0.033 0.097 1. 0 
O2 O2- 18 f 0.4 0.3 0.041 1. 0 

#End of data_24529-ICSD


