data_34441-ICSD
#?2014 by Fachinformationszentrum Karlsruhe, and the U.S. Secretary of 
#Commerce on behalf of the United States.  All rights reserved.
_database_code_ICSD                34441
_audit_creation_date               1980/01/01
_audit_update_record               1984/11/02
_chemical_name_systematic          '16-sodium Decatitanium Oxide'
_chemical_formula_structural       'Na16 Ti10 O28'
_chemical_formula_sum              'Na16 O28 Ti10'
_publ_section_title
;
Etude structurale du titanate Na16 Ti10 O28
;
loop_
_citation_id
_citation_journal_abbrev
_citation_year
_citation_journal_volume
_citation_page_first
_citation_page_last
_citation_journal_id_ASTM
primary 'Revue de Chimie Minerale' 1976 13 237 244 RVCMA8
_publ_author_name                  'Mayer, M.;Perez, G.'
_cell_length_a                     10.51
_cell_length_b                     8.34
_cell_length_c                     8.53
_cell_angle_alpha                  112.63
_cell_angle_beta                   104.1
_cell_angle_gamma                  102.19
_cell_volume                       629.31
_cell_formula_units_Z              1
_symmetry_space_group_name_H-M     'P -1'
_symmetry_Int_Tables_number        2
_refine_ls_R_factor_all            .046
loop_
_symmetry_equiv_pos_site_id
_symmetry_equiv_pos_as_xyz
  1	'-x, -y, -z'
  2	'x, y, z'
loop_
_atom_type_symbol
_atom_type_oxidation_number
Na1+	1
O2-	-2
Ti4+	4
loop_
_atom_site_label
_atom_site_type_symbol
_atom_site_symmetry_multiplicity
_atom_site_Wyckoff_symbol
_atom_site_fract_x
_atom_site_fract_y
_atom_site_fract_z
_atom_site_occupancy
_atom_site_attached_hydrogens
_atom_site_B_iso_or_equiv
Ti1 Ti4+ 2 i 0.32647(7) 0.18769(11) 0.11306(13) 1. 0 0.448 
Ti2 Ti4+ 2 i 0.46903(8) 0.03571(11) 0.82264(13) 1. 0 0.461 
Ti3 Ti4+ 2 i 0.65476(8) 0.37701(11) 0.22571(13) 1. 0 0.468 
Ti4 Ti4+ 2 i 0.79030(8) 0.21588(11) 0.92725(13) 1. 0 0.481 
Ti5 Ti4+ 2 i 0.84951(8) 0.14669(11) 0.27609(13) 1. 0 0.529 
Na1 Na1+ 2 i 0.01335(2) 0.4467(3) 0.6760(4) 1. 0 1.153 
Na2 Na1+ 2 i 0.1085(3) 0.3728(4) 0.0101(4) 1. 0 1.24 
Na3 Na1+ 2 i 0.1682(2) 0.3063(3) 0.3756(4) 1. 0 1.094 
Na4 Na1+ 2 i 0.3828(2) 0.1122(3) 0.4774(4) 1. 0 1.167 
Na5 Na1+ 2 i 0.5651(2) 0.4356(3) 0.8738(4) 1. 0 0.95 
Na6 Na1+ 2 i 0.7033(2) 0.2906(3) 0.5816(4) 1. 0 1.1 
Na7 Na1+ 2 i 0.1757(3) 0.1843(4) 0.6670(4) 1. 0 1.626 
Na8 Na1+ 1 a 0 0 0 1. 0 1.191 
Na9 Na1+ 1 h 0.5 0.5 0.5 1. 0 0.98 
O1 O2- 2 i 0.1755(4) 0.1075(5) 0.8980(6) 1. 0 0.723 
O2 O2- 2 i 0.2280(3) 0.0443(5) 0.2008(6) 1. 0 0.664 
O3 O2- 2 i 0.3121(3) 0.4052(5) 0.2414(6) 1. 0 0.641 
O4 O2- 2 i 0.4698(3) 0.2707(5) 0.0099(6) 1. 0 0.599 
O5 O2- 2 i 0.5157(3) 0.2143(5) 0.2928(5) 1. 0 0.572 
O6 O2- 2 i 0.5909(3) 0.1465(5) 0.7407(6) 1. 0 0.681 
O7 O2- 2 i 0.6443(3) 0.0820(5) 0.0470(6) 1. 0 0.576 
O8 O2- 2 i 0.6957(3) 0.0186(5) 0.3464(6) 1. 0 0.694 
O9 O2- 2 i 0.7575(3) 0.4384(5) 0.0909(5) 1. 0 0.598 
O10 O2- 2 i 0.8085(4) 0.3756(5) 0.3975(6) 1. 0 0.735 
O11 O2- 2 i 0.8826(4) 0.3187(5) 0.8281(6) 1. 0 0.772 
O12 O2- 2 i 0.9374(3) 0.2466(5) 0.1400(5) 1. 0 0.578 
O13 O2- 2 i 0.9947(4) 0.1798(5) 0.4505(6) 1. 0 0.907 
O14 O2- 2 i 0.3578(4) 0.4048(5) 0.6463(6) 1. 0 0.748 

#End of data_34441-ICSD


