data_170869-ICSD
#?2014 by Fachinformationszentrum Karlsruhe, and the U.S. Secretary of 
#Commerce on behalf of the United States.  All rights reserved.
_database_code_ICSD                170869
_audit_creation_date               2006/04/01
_chemical_name_systematic
;
Tris(dichlorophosphazene) Aluminium Chloride
;
_chemical_formula_structural       '(P Cl2 N)3 (Al Cl3)'
_chemical_formula_sum              'Al1 Cl9 N3 P3'
_publ_section_title                'Lewis acid adducts of [P Cl2 N]3'
loop_
_citation_id
_citation_journal_abbrev
_citation_year
_citation_journal_volume
_citation_journal_issue
_citation_page_first
_citation_page_last
_citation_journal_id_ASTM
primary 'Inorganic Chemistry' 2005 44 19 6518 6520 INOCAJ
_publ_author_name
;
Heston, A.J.;Panzner, M.J.;Youngs, W.J.;Tessier, C.A.
;
_cell_length_a                     11.9974(11)
_cell_length_b                     11.7111(11)
_cell_length_c                     10.7768(10)
_cell_angle_alpha                  90.00
_cell_angle_beta                   90.00
_cell_angle_gamma                  90.00
_cell_volume                       1514.17
_cell_formula_units_Z              4
_symmetry_space_group_name_H-M     'P m n 21'
_symmetry_Int_Tables_number        31
_refine_ls_R_factor_all            .0446
loop_
_symmetry_equiv_pos_site_id
_symmetry_equiv_pos_as_xyz
  1	'x+.5, -y, z+.5'
  2	'-x+.5, -y, z+.5'
  3	'-x, y, z'
  4	'x, y, z'
loop_
_atom_type_symbol
_atom_type_oxidation_number
Al3+	3
Cl1-	-1
N3-	-3
P5+	5
loop_
_atom_site_label
_atom_site_type_symbol
_atom_site_symmetry_multiplicity
_atom_site_Wyckoff_symbol
_atom_site_fract_x
_atom_site_fract_y
_atom_site_fract_z
_atom_site_occupancy
_atom_site_attached_hydrogens
_atom_site_U_iso_or_equiv
Cl1 Cl1- 4 b 0.14231(9) 0.10847(9) 1.00203(10) 1 0 0.0227(2) 
Cl2 Cl1- 2 a 0.0000 0.32778(12) 0.84371(14) 1 0 0.0182(3) 
Cl3 Cl1- 4 b 0.17912(9) -0.10461(9) 0.77160(10) 1 0 0.0201(2) 
Cl4 Cl1- 4 b 0.22699(8) 0.14910(9) 0.70150(10) 1 0 0.0198(2) 
Cl5 Cl1- 2 a 0.0000 -0.19798(14) 0.42229(18) 1 0 0.0373(4) 
Cl6 Cl1- 2 a 0.0000 0.04154(14) 0.30066(13) 1 0 0.0214(3) 
Cl7 Cl1- 4 b 0.14422(9) 0.30073(9) 0.43676(11) 1 0 0.0252(2) 
Cl8 Cl1- 2 a 0.0000 0.53541(14) 0.56500(15) 1 0 0.0307(4) 
Cl9 Cl1- 4 b 0.18297(10) 0.37730(10) 0.13012(10) 1 0 0.0241(2) 
Cl10 Cl1- 4 b 0.22409(9) 0.56711(10) 0.32767(11) 1 0 0.0243(2) 
Cl11 Cl1- 2 a 0.0000 0.63256(14) -0.14189(14) 1 0 0.0323(4) 
Cl12 Cl1- 2 a 0.0000 0.82819(13) 0.05033(14) 1 0 0.0235(3) 
P1 P5+ 4 b 0.11773(8) 0.02616(9) 0.67670(10) 1 0 0.0132(2) 
P2 P5+ 2 a 0.0000 -0.03267(13) 0.46474(14) 1 0 0.0154(3) 
P3 P5+ 4 b 0.11803(8) 0.51815(9) 0.19942(10) 1 0 0.0144(2) 
P4 P5+ 2 a 0.0000 0.65995(13) 0.03867(14) 1 0 0.0146(3) 
Al1 Al3+ 2 a 0.0000 0.15522(15) 0.89909(16) 1 0 0.0128(4) 
Al2 Al3+ 2 a 0.0000 0.40356(15) 0.43152(17) 1 0 0.0160(4) 
N1 N3- 2 a 0.0000 0.0654(4) 0.7438(4) 1 0 0.0108(9) 
N2 N3- 4 b 0.1108(3) -0.0033(3) 0.5350(3) 1 0 0.0209(8) 
N3 N3- 2 a 0.0000 0.4843(4) 0.2703(4) 1 0 0.0133(10) 
N4 N3- 4 b 0.1108(3) 0.6127(4) 0.0971(4) 1 0 0.0262(9) 

loop_
_atom_site_aniso_label
_atom_site_aniso_type_symbol
_atom_site_aniso_U_11
_atom_site_aniso_U_22
_atom_site_aniso_U_33
_atom_site_aniso_U_12
_atom_site_aniso_U_13
_atom_site_aniso_U_23
Cl1 Cl1- 0.0251(5) 0.0236(5) 0.0194(5) 0.0076(4) -0.0093(4) -0.0027(4)
Cl2 Cl1- 0.0172(7) 0.0113(6) 0.0262(8) 0.000 0.000 0.0014(6)
Cl3 Cl1- 0.0223(5) 0.0173(5) 0.0205(5) 0.0071(4) 0.0025(4) 0.0051(4)
Cl4 Cl1- 0.0137(5) 0.0215(5) 0.0241(6) -0.0046(4) -0.0010(4) 0.0047(4)
Cl5 Cl1- 0.0661(13) 0.0149(8) 0.0311(10) 0.000 0.000 -0.0055(7)
Cl6 Cl1- 0.0290(8) 0.0218(8) 0.0135(7) 0.000 0.000 0.0015(5)
Cl7 Cl1- 0.0269(5) 0.0226(5) 0.0260(6) 0.0039(4) -0.0062(5) 0.0077(5)
Cl8 Cl1- 0.0588(12) 0.0215(8) 0.0117(7) 0.000 0.000 -0.0030(6)
Cl9 Cl1- 0.0248(6) 0.0255(6) 0.0220(5) 0.0073(5) 0.0048(4) -0.0024(4)
Cl10 Cl1- 0.0206(5) 0.0241(5) 0.0283(6) -0.0072(4) -0.0088(5) 0.0003(5)
Cl11 Cl1- 0.0676(13) 0.0181(8) 0.0112(7) 0.000 0.000 0.0007(6)
Cl12 Cl1- 0.0375(9) 0.0151(7) 0.0178(7) 0.000 0.000 -0.0010(6)
P1 P5+ 0.0110(5) 0.0154(5) 0.0131(5) 0.0014(4) 0.0004(4) 0.0009(4)
P2 P5+ 0.0198(8) 0.0133(7) 0.0131(8) 0.000 0.000 -0.0019(6)
P3 P5+ 0.0124(5) 0.0168(5) 0.0139(5) -0.0004(4) -0.0002(4) 0.0043(4)
P4 P5+ 0.0175(7) 0.0157(7) 0.0105(7) 0.000 0.000 0.0048(6)
Al1 Al3+ 0.0150(9) 0.0115(8) 0.0119(8) 0.000 0.000 0.0004(6)
Al2 Al3+ 0.0248(10) 0.0130(9) 0.0101(8) 0.000 0.000 0.0027(7)
N1 N3- 0.008(2) 0.010(2) 0.014(2) 0.000 0.000 -0.0026(18)
N2 N3- 0.0167(18) 0.028(2) 0.018(2) 0.0039(15) 0.0042(15) -0.0029(15)
N3 N3- 0.016(2) 0.014(2) 0.010(2) 0.000 0.000 0.0060(19)
N4 N3- 0.0164(19) 0.032(2) 0.030(2) 0.0023(16) 0.0050(17) 0.0194(18)
#End of data_170869-ICSD


