data_89081-ICSD
#?2014 by Fachinformationszentrum Karlsruhe, and the U.S. Secretary of 
#Commerce on behalf of the United States.  All rights reserved.
_database_code_ICSD                89081
_audit_creation_date               2001/07/16
_audit_update_record               2006/04/01
_chemical_name_systematic          'Calcium Tin(IV) Oxide Silicate'
_chemical_formula_structural       'Ca Sn O (Si O4)'
_chemical_formula_sum              'Ca1 O5 Si1 Sn1'
_chemical_name_mineral             Malayaite
_publ_section_title
;
An infrared spectroscopic and single-crystal X-ray study of 
malayaite, Ca Sn Si O5
;
loop_
_citation_id
_citation_journal_abbrev
_citation_year
_citation_journal_volume
_citation_page_first
_citation_page_last
_citation_journal_id_ASTM
primary 'Physics and Chemistry of Minerals' 1999 26 546 553 PCMIDU
_publ_author_name
;
Zhang, M.;Meyer, H.W.;Groat, L.A.;Bismayer, U.;Salje, 
E.K.H.;Adiwidjaja, G.
;
_cell_length_a                     7.167(2)
_cell_length_b                     8.912(2)
_cell_length_c                     6.688(1)
_cell_angle_alpha                  90.
_cell_angle_beta                   113.36(1)
_cell_angle_gamma                  90.
_cell_volume                       392.16
_cell_formula_units_Z              4
_symmetry_space_group_name_H-M     'A 1 2/a 1'
_symmetry_Int_Tables_number        15
_refine_ls_R_factor_all            .025
loop_
_symmetry_equiv_pos_site_id
_symmetry_equiv_pos_as_xyz
  1	'-x+.5, y, -z'
  2	'-x, -y, -z'
  3	'x+.5, -y, z'
  4	'x, y, z'
  5	'-x+.5, y+.5, -z+.5'
  6	'-x, -y+.5, -z+.5'
  7	'x+.5, -y+.5, z+.5'
  8	'x, y+.5, z+.5'
loop_
_atom_type_symbol
_atom_type_oxidation_number
Ca2+	2
O2-	-2
Si4+	4
Sn4+	4
loop_
_atom_site_label
_atom_site_type_symbol
_atom_site_symmetry_multiplicity
_atom_site_Wyckoff_symbol
_atom_site_fract_x
_atom_site_fract_y
_atom_site_fract_z
_atom_site_occupancy
_atom_site_attached_hydrogens
Si1 Si4+ 4 e 0.75 0.6816(1) 0.5 1. 0 
Sn1 Sn4+ 4 b 0.5 0.5 0 1. 0 
Ca1 Ca2+ 4 e 0.25 0.6631(1) 0.5 1. 0 
O1 O2- 4 e 0.75 0.5864(1) 0 1. 0 
O2 O2- 8 f 0.9121(2) 0.5683(1) 0.6752(2) 1. 0 
O3 O2- 8 f 0.3722(2) 0.7122(1) 0.8915(2) 1. 0 

loop_
_atom_site_aniso_label
_atom_site_aniso_type_symbol
_atom_site_aniso_U_11
_atom_site_aniso_U_22
_atom_site_aniso_U_33
_atom_site_aniso_U_12
_atom_site_aniso_U_13
_atom_site_aniso_U_23
Si1 Si4+ 0.01066(20) 0.00985(26) 0.00875(26) 0 0.00331(20) 0
Sn1 Sn4+ 0.00833(13) 0.01017(13) 0.00995(13) -.00048(2) 0.00355(9) 
0.00011(2)
Ca1 Ca2+ 0.06006(51) 0.01158(21) 0.01647(26) 0 -.00181(27) 0
O1 O2- 0.01140(57) 0.01267(50) 0.02968(80) 0 0.01129(58) 0
O2 O2- 0.02003(49) 0.01796(43) 0.01284(41) 0.00596(34) 0.00422(37) 
0.00254(33)
O3 O2- 0.01954(47) 0.01373(38) 0.01686(46) 0.00544(30) 0.01018(38) 
0.00187(29)
#End of data_89081-ICSD


