data_151951-ICSD
#?2014 by Fachinformationszentrum Karlsruhe, and the U.S. Secretary of 
#Commerce on behalf of the United States.  All rights reserved.
_database_code_ICSD                151951
_audit_creation_date               2006/10/01
_chemical_name_systematic          'Scandium Aluminate'
_chemical_formula_structural       'Sc (Al O3)'
_chemical_formula_sum              'Al1 O3 Sc1'
_publ_section_title
;
Geometric descriptions of distorted structures of A B X3 type 
perovskite and application in structural prediction
;
loop_
_citation_id
_citation_journal_abbrev
_citation_year
_citation_journal_volume
_citation_page_first
_citation_page_last
_citation_journal_id_ASTM
primary 'Dizhi Xuebao' 2004 78 345 351 TCHPAX
_publ_author_name                  'Qin Shan;Wang Rucheng'
_cell_length_a                     4.9637
_cell_length_b                     5.2521
_cell_length_c                     7.2605
_cell_angle_alpha                  90.
_cell_angle_beta                   90.
_cell_angle_gamma                  90.
_cell_volume                       189.28
_cell_formula_units_Z              4
_symmetry_space_group_name_H-M     'P b n m'
_symmetry_Int_Tables_number        62
loop_
_symmetry_equiv_pos_site_id
_symmetry_equiv_pos_as_xyz
  1	'-x+.5, y+.5, z'
  2	'x, y, -z+.5'
  3	'x+.5, -y+.5, z+.5'
  4	'-x, -y, -z'
  5	'x+.5, -y+.5, -z'
  6	'-x, -y, z+.5'
  7	'-x+.5, y+.5, -z+.5'
  8	'x, y, z'
loop_
_atom_type_symbol
_atom_type_oxidation_number
Al3+	3
O2-	-2
Sc3+	3
loop_
_atom_site_label
_atom_site_type_symbol
_atom_site_symmetry_multiplicity
_atom_site_Wyckoff_symbol
_atom_site_fract_x
_atom_site_fract_y
_atom_site_fract_z
_atom_site_occupancy
_atom_site_attached_hydrogens
Sc1 Sc3+ 4 c 0.5214 0.5769 0.250 1. 0 
Al1 Al3+ 4 b 0.5 0 0.5 1. 0 
O1 O2- 4 c 0.1181 0.4578 0.250 1. 0 
O2 O2- 8 d 0.1898 0.1934 0.5608 1. 0 

#End of data_151951-ICSD


