data_260059-ICSD
#?2014 by Fachinformationszentrum Karlsruhe, and the U.S. Secretary of 
#Commerce on behalf of the United States.  All rights reserved.
_database_code_ICSD                260059
_audit_creation_date               2009/02/01
_chemical_name_systematic
;
Calcium Copper(II) Arsenate(V) Hydroxide
;
_chemical_formula_structural       'Ca Cu (As O4) (O H)'
_chemical_formula_sum              'H1 As1 Ca1 Cu1 O5'
_chemical_name_mineral             Conichalcite
_publ_section_title
;
Redetermination of conichalcite, Ca Cu (As O4) (O H)
;
loop_
_citation_id
_citation_journal_abbrev
_citation_year
_citation_journal_volume
_citation_journal_issue
_citation_page_first
_citation_page_last
_citation_journal_id_ASTM
primary 'Acta Crystallographica, Section E. Structure Reports Online'
 2008 64 9 i53 i54 ACSEBH
_publ_author_name
;
Henderson, R.R.;Yang He Xiong;Downs, R.T.;Jenkins, R.A.
;
_cell_length_a                     7.3822(2)
_cell_length_b                     5.8146(2)
_cell_length_c                     9.2136(3)
_cell_angle_alpha                  90.00
_cell_angle_beta                   90.00
_cell_angle_gamma                  90.00
_cell_volume                       395.49
_cell_formula_units_Z              4
_symmetry_space_group_name_H-M     'P 21 21 21'
_symmetry_Int_Tables_number        19
_refine_ls_R_factor_all            .0179
loop_
_symmetry_equiv_pos_site_id
_symmetry_equiv_pos_as_xyz
  1	'-x, y+.5, -z+.5'
  2	'x+.5, -y+.5, -z'
  3	'-x+.5, -y, z+.5'
  4	'x, y, z'
loop_
_atom_type_symbol
_atom_type_oxidation_number
As5+	5
Ca2+	2
Cu2+	2
H1+	1
O2-	-2
loop_
_atom_site_label
_atom_site_type_symbol
_atom_site_symmetry_multiplicity
_atom_site_Wyckoff_symbol
_atom_site_fract_x
_atom_site_fract_y
_atom_site_fract_z
_atom_site_occupancy
_atom_site_attached_hydrogens
_atom_site_U_iso_or_equiv
Ca1 Ca2+ 4 a 0.61727(5) 0.72961(8) 0.07340(4) 1 0 0.01133(12) 
Cu1 Cu2+ 4 a -0.00416(4) -0.00002(6) 0.25029(4) 1 0 0.00898(8) 
As1 As5+ 4 a 0.36728(2) 0.26438(4) 0.08118(2) 1 0 0.00768(6) 
O1 O2- 4 a 0.18844(17) 0.2450(3) 0.19847(15) 1 0 0.0135(3) 
O2 O2- 4 a 0.5395(2) 0.3313(3) 0.19256(18) 1 0 0.0187(4) 
O3 O2- 4 a 0.3514(2) 0.4927(3) -0.02947(17) 1 0 0.0157(3) 
O4 O2- 4 a 0.3885(2) 0.0147(3) -0.00782(15) 1 0 0.0145(4) 
O5 O2- 4 a -0.13880(18) 0.2539(3) 0.31777(14) 1 0 0.0113(3) 
H1 H1+ 4 a -0.229(5) 0.232(6) 0.260(3) 1 0 0.055(11) 

loop_
_atom_site_aniso_label
_atom_site_aniso_type_symbol
_atom_site_aniso_U_11
_atom_site_aniso_U_22
_atom_site_aniso_U_33
_atom_site_aniso_U_12
_atom_site_aniso_U_13
_atom_site_aniso_U_23
Ca1 Ca2+ 0.01169(18) 0.0119(2) 0.01041(18) -0.00064(17) -0.00072(13) 
0.00020(18)
Cu1 Cu2+ 0.00885(11) 0.00621(12) 0.01190(12) 0.00029(9) 0.00211(8) 
-0.00121(8)
As1 As5+ 0.00801(8) 0.00659(9) 0.00845(9) 0.00006(8) 0.00059(7) 0.00014(9)
O1 O2- 0.0141(6) 0.0107(7) 0.0157(6) -0.0025(7) 0.0035(5) -0.0006(7)
O2 O2- 0.0146(7) 0.0212(9) 0.0205(8) -0.0029(6) -0.0048(6) 0.0004(7)
O3 O2- 0.0201(7) 0.0107(7) 0.0164(7) 0.0011(7) 0.0044(7) 0.0035(6)
O4 O2- 0.0181(8) 0.0096(7) 0.0158(8) 0.0018(6) 0.0022(7) -0.0018(6)
O5 O2- 0.0106(5) 0.0102(6) 0.0132(6) 0.0000(8) 0.0002(5) -0.0003(6)
#End of data_260059-ICSD


