data_413308-ICSD
#?2014 by Fachinformationszentrum Karlsruhe, and the U.S. Secretary of 
#Commerce on behalf of the United States.  All rights reserved.
_database_code_ICSD                413308
_audit_creation_date               2005/10/01
_chemical_name_systematic
;
Mercury Dipotassium Tetraselenostannate
;
_chemical_formula_structural       'Hg K2 Se4 Sn'
_chemical_formula_sum              'Hg1 K2 Se4 Sn1'
_publ_section_title
;
Ortho-Chalcogenostannates as Ligands: Syntheses, Crystal Structures, 
Electronic Properties, and Magnetism of Novel Compounds Containing 
Ternary Anionic Substructures [M4(4-Se)(SnSe4)4]10- (M=Mn, Zn, Cd, 
Hg), {[Hg4(4-Se)(SnSe4)3]6-}, or {[HgSnSe4]2-}
;
loop_
_citation_id
_citation_journal_abbrev
_citation_year
_citation_journal_volume
_citation_journal_issue
_citation_page_first
_citation_page_last
_citation_journal_id_ASTM
primary 'Chemistry - A European Journal' 2004 10 20 5147 5157 CEUJED
_publ_author_name
;
Brandmayer, M.K.;Clerac, R.;Weigend, F.;Dehnen, S.
;
_cell_length_a                     8.0681(11)
_cell_length_b                     8.0681(11)
_cell_length_c                     6.9497(14)
_cell_angle_alpha                  90.
_cell_angle_beta                   90.
_cell_angle_gamma                  90.
_cell_volume                       452.39
_cell_formula_units_Z              2
_symmetry_space_group_name_H-M     'I -4 2 m'
_symmetry_Int_Tables_number        121
_refine_ls_R_factor_all            .0862
loop_
_symmetry_equiv_pos_site_id
_symmetry_equiv_pos_as_xyz
  1	'-y, -x, z'
  2	'y, x, z'
  3	'y, -x, -z'
  4	'-y, x, -z'
  5	'x, -y, -z'
  6	'-x, y, -z'
  7	'-x, -y, z'
  8	'x, y, z'
  9	'-y+.5, -x+.5, z+.5'
 10	'y+.5, x+.5, z+.5'
 11	'y+.5, -x+.5, -z+.5'
 12	'-y+.5, x+.5, -z+.5'
 13	'x+.5, -y+.5, -z+.5'
 14	'-x+.5, y+.5, -z+.5'
 15	'-x+.5, -y+.5, z+.5'
 16	'x+.5, y+.5, z+.5'
loop_
_atom_type_symbol
_atom_type_oxidation_number
Hg2+	2
K1+	1
Se2-	-2
Sn4+	4
loop_
_atom_site_label
_atom_site_type_symbol
_atom_site_symmetry_multiplicity
_atom_site_Wyckoff_symbol
_atom_site_fract_x
_atom_site_fract_y
_atom_site_fract_z
_atom_site_occupancy
_atom_site_attached_hydrogens
_atom_site_U_iso_or_equiv
Hg1 Hg2+ 2 a 0.0000 0.0000 0.0000 1 0 0.0236(9) 
Sn1 Sn4+ 2 b 0.0000 0.0000 -0.5000 1 0 0.0132(10) 
Se1 Se2- 8 i -0.1722(3) -0.1722(3) -0.2637(6) 1 0 0.0143(7) 
K1 K1+ 4 c -0.5000 0.0000 -0.5000 1 0 0.026(2) 

loop_
_atom_site_aniso_label
_atom_site_aniso_type_symbol
_atom_site_aniso_U_11
_atom_site_aniso_U_22
_atom_site_aniso_U_33
_atom_site_aniso_U_12
_atom_site_aniso_U_13
_atom_site_aniso_U_23
Hg1 Hg2+ 0.0294(13) 0.0294(13) 0.0121(11) 0.000 0.000 0.000
Sn1 Sn4+ 0.0128(16) 0.0128(16) 0.0139(15) 0.000 0.000 0.000
Se1 Se2- 0.0121(10) 0.0121(10) 0.0186(13) -0.0056(11) 0.0007(11) 0.0007(11)
K1 K1+ 0.027(8) 0.026(8) 0.023(4) 0.000 0.000 0.000
#End of data_413308-ICSD


