data_48023-ICSD
#?2014 by Fachinformationszentrum Karlsruhe, and the U.S. Secretary of 
#Commerce on behalf of the United States.  All rights reserved.
_database_code_ICSD                48023
_audit_creation_date               1984/12/31
_audit_update_record               2014/08/01
_chemical_name_systematic
;
Tetracalcium Hexaaluminium Dodecaoxide Tungstate
;
_chemical_formula_structural       'Ca4 (Al6 O12) (W O4)'
_chemical_formula_sum              'Al6 Ca4 O16 W1'
_chemical_name_mineral             Aluminate-Sodalite-(W)
_publ_section_title
;
Aluminate sodalite Ca8 (Al12 O24) (W O4)2 at room temperature
;
loop_
_citation_id
_citation_journal_abbrev
_citation_year
_citation_journal_volume
_citation_page_first
_citation_page_last
_citation_journal_id_ASTM
primary 'Acta Crystallographica, Section C: Crystal Structure Communications'
 1984 40 226 231 ACSCEE
2 'Phase Transition' 1992 38 127 220 PHTRDP
_publ_author_name                  'Depmeier, W.'
_cell_length_a                     26.1510(20)
_cell_length_b                     13.075(1)
_cell_length_c                     9.319(1)
_cell_angle_alpha                  90.
_cell_angle_beta                   90.
_cell_angle_gamma                  90.
_cell_volume                       3186.39
_cell_formula_units_Z              8
_symmetry_space_group_name_H-M     'A b a 2'
_symmetry_Int_Tables_number        41
_refine_ls_R_factor_all            .041
loop_
_symmetry_equiv_pos_site_id
_symmetry_equiv_pos_as_xyz
  1	'x+.5, -y+.5, z'
  2	'-x+.5, y+.5, z'
  3	'-x, -y, z'
  4	'x, y, z'
  5	'x+.5, -y, z+.5'
  6	'-x+.5, y, z+.5'
  7	'-x, -y+.5, z+.5'
  8	'x, y+.5, z+.5'
loop_
_atom_type_symbol
_atom_type_oxidation_number
Al3+	3
Ca2+	2
O2-	-2
W6+	6
loop_
_atom_site_label
_atom_site_type_symbol
_atom_site_symmetry_multiplicity
_atom_site_Wyckoff_symbol
_atom_site_fract_x
_atom_site_fract_y
_atom_site_fract_z
_atom_site_occupancy
_atom_site_attached_hydrogens
Al1 Al3+ 8 b 0.1853(1) -.1234(2) 0.0009(5) 1. 0 
Al2 Al3+ 8 b 0.4369(1) 0.1134(2) -.0236(3) 1. 0 
Al3 Al3+ 8 b 0.3101(1) 0.1253(2) 0.0138(4) 1. 0 
Al4 Al3+ 8 b 0.4403(1) 0.3652(2) -.0046(4) 1. 0 
Al5 Al3+ 8 b 0.2569(1) 0.0024(2) 0.2585(4) 1. 0 
Al6 Al3+ 4 a 0 0 0.2283(4) 1. 0 
Al7 Al3+ 4 a 0.5 0 0.2443(5) 1. 0 
Ca1 Ca2+ 8 b -.1381(1) 0.0234(2) 0.2784(2) 1. 0 
Ca2 Ca2+ 8 b -.1202(1) 0.4880(2) 0.2460(3) 1. 0 
Ca3 Ca2+ 8 b 0.0167(1) 0.2669(1) 0.2028(2) 1. 0 
Ca4 Ca2+ 8 b 0.2499(2) 0.2604(1) 0.2490(4) 1. 0 
O1 O2- 8 b -.1265(2) 0.4138(5) 0.0140(11) 1. 0 
O2 O2- 8 b 0.1218(2) 0.3947(6) 0.5485(8) 1. 0 
O3 O2- 8 b -.0174(3) 0.1119(5) 0.1353(8) 1. 0 
O4 O2- 8 b 0.2922(3) 0.1038(5) 0.1899(7) 1. 0 
O5 O2- 8 b 0.4666(3) 0.0886(5) 0.1418(8) 1. 0 
O6 O2- 8 b 0.2190(2) -.0736(5) 0.1443(8) 1. 0 
O7 O2- 8 b 0.4542(3) 0.2399(5) -.0627(8) 1. 0 
O8 O2- 8 b 0.2907(3) 0.2509(5) -.0187(7) 1. 0 
O9 O2- 8 b 0.4539(3) -.0700(5) 0.3342(7) 1. 0 
O10 O2- 8 b 0.2867(3) 0.5496(6) 0.3771(8) 1. 0 
O11 O2- 8 b -.0541(3) -.0368(6) 0.3272(8) 1. 0 
O12 O2- 8 b 0.1959(2) 0.4208(5) 0.3235(7) 1. 0 
O13 O2- 8 b -.1046(4) 0.3610(9) 0.4149(12) 1. 0 
O14 O2- 8 b -.1714(3) 0.1854(6) 0.3757(10) 1. 0 
O15 O2- 8 b -.0902(4) 0.1784(8) 0.5843(13) 1. 0 
O16 O2- 8 b -.1779(4) 0.3096(8) 0.6319(12) 1. 0 
W1 W6+ 8 b 0.13626(1) 0.23971(2) 0 1. 0 

loop_
_atom_site_aniso_label
_atom_site_aniso_type_symbol
_atom_site_aniso_U_11
_atom_site_aniso_U_22
_atom_site_aniso_U_33
_atom_site_aniso_U_12
_atom_site_aniso_U_13
_atom_site_aniso_U_23
Al1 Al3+ 0.0076(8) 0.0072(8) 0.0051(10) -.0003(6) 0.0012(13) -.0019(15)
Al2 Al3+ 0.0048(9) 0.0058(10) 0.0063(15) -.0007(7) 0.0012(8) 0.0006(8)
Al3 Al3+ 0.0072(8) 0.0065(8) 0.0018(11) 0.0012(6) 0.0016(10) -.0006(12)
Al4 Al3+ 0.0075(9) 0.0064(9) 0.0071(11) 0.0010(6) 0.0012(14) 0.0017(13)
Al5 Al3+ 0.0055(10) 0.0065(9) 0.0025(9) -.0013(7) -.0034(11) 0.0008(10)
Al6 Al3+ 0.0054(13) 0.0063(15) 0.0096(20) 0.0002(10) 0 0
Al7 Al3+ 0.0052(12) 0.0050(14) 0.0086(16) 0.0001(10) 0 0
Ca1 Ca2+ 0.0069(6) 0.0243(9) 0.0117(9) 0.0033(6) 0.0017(6) 0.0088(7)
Ca2 Ca2+ 0.0082(6) 0.0226(9) 0.0095(7) 0.0003(6) -.0015(7) -.0063(7)
Ca3 Ca2+ 0.0133(7) 0.0088(6) 0.0104(8) -.0004(5) -.0005(6) -.0012(7)
Ca4 Ca2+ 0.0112(5) 0.0090(5) 0.0110(6) 0.0011(9) 0.0009(5) -.0013(10)
O1 O2- 0.0079(22) 0.0133(24) 0.008(3) -.0015(15) -.004(3) -.002(3)
O2 O2- 0.0058(23) 0.016(3) 0.011(3) -.0017(19) 0.0005(20) -.0014(24)
O3 O2- 0.0124(25) 0.010(3) 0.006(3) -.0009(20) -.0011(24) 0.0028(22)
O4 O2- 0.017(3) 0.0064(25) 0.003(3) -.0015(19) 0.0006(23) 0.0016(21)
O5 O2- 0.015(3) 0.010(3) 0.008(3) 0.0026(20) -.003(3) 0.0017(24)
O6 O2- 0.0069(24) 0.014(3) 0.008(3) -.0016(19) 0.0018(23) -.0018(24)
O7 O2- 0.019(3) 0.006(3) 0.011(3) -.0026(21) 0.004(3) -.0003(25)
O8 O2- 0.0152(24) 0.0069(24) 0.005(4) -.0007(18) 0.0019(21) 0.0020(21)
O9 O2- 0.012(3) 0.011(3) 0.004(3) -.0022(20) 0.0032(22) 0.0037(22)
O10 O2- 0.009(3) 0.020(3) 0.006(3) 0.0004(21) -.0031(22) -.004(3)
O11 O2- 0.011(3) 0.017(3) 0.010(3) 0.0032(22) 0.0021(24) 0.010(3)
O12 O2- 0.0094(24) 0.009(3) 0.004(3) -.0034(18) -.0012(21) 0.0017(22)
O13 O2- 0.037(5) 0.035(5) 0.029(5) -.024(4) -.001(3) -.008(3)
O14 O2- 0.019(4) 0.018(4) 0.024(4) -.001(3) -.008(3) -.005(3)
O15 O2- 0.032(5) 0.029(5) 0.038(6) 0.013(4) -.022(5) -.001(4)
O16 O2- 0.032(5) 0.035(5) 0.026(5) 0.010(4) 0.010(4) -.002(4)
W1 W6+ 0.0090(1) 0.0165(1) 0.0092(1) 0.0009(1) 0.0004(2) 0.0001(2)
#End of data_48023-ICSD


