data_407713-ICSD
#?2014 by Fachinformationszentrum Karlsruhe, and the U.S. Secretary of 
#Commerce on behalf of the United States.  All rights reserved.
_database_code_ICSD                407713
_audit_creation_date               1998/06/26
_chemical_name_systematic
;
Calcium Dodecakis(tetranitridotungstate) Octanitride Trioxide
;
_chemical_formula_structural       'Ca51 (W N4)12 N8 O3'
_chemical_formula_sum              'Ca51 N56 O3 W12'
_publ_section_title
;
The crystal structures of the isotypic alkaline earth 
nitridotungstate(VI)-nitride-oxides Ca51 (W N4)12 N8 O3 and Sr51 (W 
N4)12 N8 O3
;
loop_
_citation_id
_citation_journal_abbrev
_citation_year
_citation_journal_volume
_citation_page_first
_citation_page_last
_citation_journal_id_ASTM
primary 'Zeitschrift fuer Naturforschung, B: Chemical Sciences'
 1997 52 1349 1358 ZNBSEN
_publ_author_name                  'Hoehn, P.;Ludwig, M.;Kniep, R.'
_cell_length_a                     10.564(3)
_cell_length_b                     12.398(3)
_cell_length_c                     15.982(3)
_cell_angle_alpha                  102.788(2)
_cell_angle_beta                   95.159(2)
_cell_angle_gamma                  109.891(2)
_cell_volume                       1888.09
_cell_formula_units_Z              1
_symmetry_space_group_name_H-M     'P -1'
_symmetry_Int_Tables_number        2
_refine_ls_R_factor_all            .0454
loop_
_symmetry_equiv_pos_site_id
_symmetry_equiv_pos_as_xyz
  1	'-x, -y, -z'
  2	'x, y, z'
loop_
_atom_type_symbol
_atom_type_oxidation_number
Ca2+	2
N3-	-3
O2-	-2
W6+	6
loop_
_atom_site_label
_atom_site_type_symbol
_atom_site_symmetry_multiplicity
_atom_site_Wyckoff_symbol
_atom_site_fract_x
_atom_site_fract_y
_atom_site_fract_z
_atom_site_occupancy
_atom_site_attached_hydrogens
Ca1 Ca2+ 2 i 0.4811(2) 0.57115(15) 0.18114(11) 1. 0 
Ca2 Ca2+ 2 i 0.7816(2) 0.67068(15) 0.09754(11) 1. 0 
Ca3 Ca2+ 2 i 0.6372(2) 0.0930(2) 0.25320(11) 1. 0 
Ca4 Ca2+ 2 i 0.0315(2) 0.8819(2) 0.41530(11) 1. 0 
Ca5 Ca2+ 2 i 0.7145(2) 0.8646(2) 0.28345(11) 1. 0 
Ca6 Ca2+ 2 i 0.1558(2) 0.5096(2) 0.06522(11) 1. 0 
Ca7 Ca2+ 2 i 0.3978(2) 0.80535(15) 0.16874(11) 1. 0 
Ca8 Ca2+ 2 i 0.4063(2) 0.76696(15) 0.37275(11) 1. 0 
Ca9 Ca2+ 2 i 0.7634(2) 0.72086(15) 0.90395(11) 1. 0 
Ca10 Ca2+ 2 i 0.2435(2) 0.2294(2) 0.29555(11) 1. 0 
Ca11 Ca2+ 2 i 0.3566(2) 0.85691(15) 0.94647(11) 1. 0 
Ca12 Ca2+ 2 i 0.8588(2) 0.42340(15) 0.14585(11) 1. 0 
Ca13 Ca2+ 2 i 0.7369(2) 0.8092(2) 0.49462(11) 1. 0 
Ca14 Ca2+ 2 i 0.1212(2) 0.6633(2) 0.45622(11) 1. 0 
Ca15 Ca2+ 2 i 0.6778(2) 0.01990(15) 0.66993(11) 1. 0 
Ca16 Ca2+ 2 i 0.0921(2) 0.69777(15) 0.25618(11) 1. 0 
Ca17 Ca2+ 2 i 0.0133(2) 0.9483(2) 0.20098(11) 1. 0 
Ca18 Ca2+ 2 i 0.4572(2) 0.60660(15) 0.97843(11) 1. 0 
Ca19 Ca2+ 2 i 0.4701(2) 0.5249(2) 0.40199(11) 1. 0 
Ca20 Ca2+ 2 i 0.3501(2) 0.9571(2) 0.54082(11) 1. 0 
Ca21 Ca2+ 2 i 0.9339(2) 0.1749(2) 0.15836(12) 1. 0 
Ca22 Ca2+ 2 i 0.1950(2) 0.4570(2) 0.52032(12) 1. 0 
Ca23 Ca2+ 2 i 0.3087(2) 0.0423(2) 0.12398(12) 1. 0 
Ca24 Ca2+ 2 i 0.9137(2) 0.3651(2) 0.33675(14) 1. 0 
Ca25 Ca2+ 2 i 0.5627(2) 0.3266(2) 0.21991(12) 1. 0 
Ca26 Ca2+ 1 a 0 0 0 1. 0 
W1 W6+ 2 i 0.62574(3) 0.88174(3) 0.05549(2) 1. 0 
W2 W6+ 2 i 0.77987(3) 0.62320(3) 0.28486(2) 1. 0 
W3 W6+ 2 i 0.09148(3) 0.74229(3) 0.07009(2) 1. 0 
W4 W6+ 2 i 0.22726(3) 0.48504(3) 0.26426(2) 1. 0 
W5 W6+ 2 i 0.47866(4) 0.75389(3) 0.59243(2) 1. 0 
W6 W6+ 2 i 0.96885(3) 0.10047(3) 0.38301(2) 1. 0 
N1 N3- 2 i 0.8862(7) 0.7642(6) 0.2593(5) 1. 0 
N2 N3- 2 i 0.9004(9) 0.5626(8) 0.3328(5) 1. 0 
N3 N3- 2 i 0.3575(8) 0.4128(6) 0.2478(5) 1. 0 
N4 N3- 2 i 0.3211(7) 0.4864(6) 0.8240(5) 1. 0 
N5 N3- 2 i 0.5272(7) 0.9210(6) 0.3124(5) 1. 0 
N6 N3- 2 i 0.4411(7) 0.1678(7) 0.2894(5) 1. 0 
N7 N3- 2 i 0.6137(8) 0.7683(6) 0.1228(4) 1. 0 
N8 N3- 2 i 0.3464(7) 0.4547(6) 0.0421(5) 1. 0 
N9 N3- 2 i 0.1310(7) 0.1144(6) 0.1534(5) 1. 0 
N10 N3- 2 i 0.2917(8) 0.6258(6) 0.2259(5) 1. 0 
N11 N3- 2 i 0.0142(7) 0.3974(6) 0.9020(4) 1. 0 
N12 N3- 2 i 0.1219(8) 0.0599(7) 0.3587(5) 1. 0 
N13 N3- 2 i 0.1919(7) 0.8570(6) 0.1770(5) 1. 0 
N14 N3- 2 i 0.4447(8) 0.2068(6) 0.0627(5) 1. 0 
N15 N3- 2 i 0.1426(8) 0.0156(7) 0.5682(5) 1. 0 
N16 N3- 2 i 0.7822(8) 0.3012(7) 0.9928(5) 1. 0 
N17 N3- 2 i 0.7414(7) 0.2577(6) 0.1959(5) 1. 0 
N18 N3- 2 i 0.8680(9) 0.0872(10) 0.2775(6) 1. 0 
N19 N3- 2 i 0.4303(9) 0.3515(7) 0.4465(6) 1. 0 
N20 N3- 2 i 0.4654(8) 0.1330(7) 0.4727(5) 1. 0 
N21 N3- 2 i 0.0604(9) 0.3869(8) 0.1947(7) 1. 0 
N22 N3- 2 i 0.3441(9) 0.3407(8) 0.6463(6) 1. 0 
N23 N3- 2 i 0.7079(9) 0.3118(9) 0.4120(6) 1. 0 
N24 N3- 2 i 0.0407(9) 0.2511(7) 0.4653(6) 1. 0 
N25 N3- 2 i 0.2302(10) 0.5236(9) 0.3838(6) 1. 0 
N26 N3- 2 i 0.4936(8) 0.0435(7) 0.9061(5) 1. 0 
N27 N3- 2 i 0.0369(8) 0.2027(8) 0.9757(6) 1. 0 
N28 N3- 2 i 0.7828(8) 1.0026(7) 0.0486(5) 1. 0 
O1 O2- 2 i 0.2190(7) 0.8252(6) 0.3959(5) 1. 0 
O2 O2- 1 g 0 0.5 0.5 1. 0 

loop_
_atom_site_aniso_label
_atom_site_aniso_type_symbol
_atom_site_aniso_U_11
_atom_site_aniso_U_22
_atom_site_aniso_U_33
_atom_site_aniso_U_12
_atom_site_aniso_U_13
_atom_site_aniso_U_23
Ca1 Ca2+ 0.0087(7) 0.0099(7) 0.0127(7) 0.0038(6) 0.0012(6) 0.0025(6)
Ca2 Ca2+ 0.0083(7) 0.0091(7) 0.0098(7) 0.0023(6) 0.0010(5) 0.0023(5)
Ca3 Ca2+ 0.0116(7) 0.0118(8) 0.0131(7) 0.0048(6) 0.0026(6) 0.0063(6)
Ca4 Ca2+ 0.0097(7) 0.0112(7) 0.0101(7) 0.0041(6) 0.0014(6) 0.0028(6)
Ca5 Ca2+ 0.0096(7) 0.0107(7) 0.0104(7) 0.0037(6) -.0006(6) 0.0006(6)
Ca6 Ca2+ 0.0100(7) 0.0116(7) 0.0124(7) 0.0043(6) 0.0004(6) 0.0014(6)
Ca7 Ca2+ 0.0092(7) 0.0101(7) 0.0106(7) 0.0032(6) 0.0015(6) 0.0033(6)
Ca8 Ca2+ 0.0102(7) 0.0084(7) 0.0110(7) 0.0027(6) -.0003(6) 0.0024(6)
Ca9 Ca2+ 0.0135(8) 0.0087(7) 0.0106(7) 0.0025(6) 0.0011(6) 0.0033(6)
Ca10 Ca2+ 0.0101(7) 0.0107(7) 0.0115(7) 0.0027(6) 0.0010(6) 0.0040(6)
Ca11 Ca2+ 0.0101(7) 0.0080(7) 0.0103(7) 0.0027(6) 0.0005(6) 0.0030(6)
Ca12 Ca2+ 0.0089(7) 0.0099(7) 0.0131(7) 0.0025(6) 0.0015(6) 0.0042(6)
Ca13 Ca2+ 0.0085(7) 0.0118(7) 0.0104(7) 0.0020(6) 0.0012(6) 0.0028(6)
Ca14 Ca2+ 0.0128(8) 0.0097(7) 0.0134(7) 0.0024(6) 0.0038(6) 0.0055(6)
Ca15 Ca2+ 0.0105(7) 0.0086(7) 0.0120(7) 0.0035(6) 0.0028(6) 0.0038(6)
Ca16 Ca2+ 0.0092(7) 0.0103(7) 0.0095(7) 0.0027(6) 0.0005(5) 0.0023(6)
Ca17 Ca2+ 0.0113(7) 0.0099(7) 0.0121(7) 0.0024(6) 0.0026(6) 0.0031(6)
Ca18 Ca2+ 0.0116(7) 0.0082(7) 0.0110(7) 0.0016(6) 0.0013(6) 0.0035(6)
Ca19 Ca2+ 0.0125(8) 0.0105(7) 0.0124(7) 0.0022(6) 0.0002(6) 0.0043(6)
Ca20 Ca2+ 0.0107(7) 0.0113(7) 0.0113(7) 0.0046(6) 0.0006(6) 0.0016(6)
Ca21 Ca2+ 0.0112(8) 0.0103(8) 0.0165(8) 0.0023(6) -.0016(6) 0.0023(6)
Ca22 Ca2+ 0.0153(8) 0.0147(8) 0.0161(8) 0.0027(7) 0.0021(6) 0.0052(6)
Ca23 Ca2+ 0.0139(8) 0.0108(7) 0.0148(8) 0.0054(6) 0.0050(6) 0.0062(6)
Ca24 Ca2+ 0.0317(11) 0.0228(10) 0.0233(10) 0.0125(9) 0.0126(8) 0.0110(8)
Ca25 Ca2+ 0.0201(9) 0.0123(8) 0.0160(8) 0.0053(7) 0.0064(7) 0.0061(6)
Ca26 Ca2+ 0.0108(10) 0.0073(10) 0.0075(9) 0.0032(8) 0.0007(8) 0.0023(7)
W1 W6+ 0.00803(14) 0.00689(14) 0.00892(14) 0.00162(11) 0.00111(11) 
0.00205(11)
W2 W6+ 0.00878(14) 0.00803(14) 0.00844(14) 0.00147(11) 0.00079(11) 
0.00211(11)
W3 W6+ 0.00780(14) 0.00679(14) 0.00930(14) 0.00152(11) -.00012(11) 
0.00256(11)
W4 W6+ 0.00838(14) 0.00779(14) 0.01034(14) 0.00251(11) 0.00077(11) 
0.00329(11)
W5 W6+ 0.0132(2) 0.00847(15) 0.00867(14) 0.00146(12) -.00003(11) 
0.00288(11)
W6 W6+ 0.00839(14) 0.00903(15) 0.01060(15) 0.00234(11) 0.00093(11) 
0.00329(11)
N1 N3- 0.010(3) 0.009(3) 0.015(3) 0.004(3) 0.001(3) 0.002(3)
N2 N3- 0.017(4) 0.021(4) 0.018(4) 0.007(3) 0.001(3) 0.008(3)
N3 N3- 0.014(3) 0.006(3) 0.020(4) 0.003(3) 0.002(3) 0.004(3)
N4 N3- 0.009(3) 0.011(3) 0.009(3) 0.003(3) 0.003(2) 0.002(2)
N5 N3- 0.011(3) 0.011(3) 0.008(3) 0.004(3) 0.001(2) 0.002(2)
N6 N3- 0.010(3) 0.013(3) 0.010(3) 0.005(3) 0.004(2) 0.004(3)
N7 N3- 0.014(3) 0.012(3) 0.006(3) 0.006(3) 0.001(2) 0.002(2)
N8 N3- 0.010(3) 0.005(3) 0.011(3) 0.005(2) -.001(2) -.002(2)
N9 N3- 0.012(3) 0.009(3) 0.009(3) 0.007(3) 0.001(2) 0.002(2)
N10 N3- 0.011(3) 0.006(3) 0.018(4) 0.002(3) 0.001(3) 0.002(3)
N11 N3- 0.010(3) 0.007(3) 0.007(3) 0.001(2) 0.000(2) 0.000(2)
N12 N3- 0.011(3) 0.015(3) 0.013(3) 0.004(3) 0.002(3) 0.007(3)
N13 N3- 0.011(3) 0.011(3) 0.008(3) 0.005(3) -.001(2) 0.000(2)
N14 N3- 0.012(3) 0.010(3) 0.013(3) 0.004(3) 0.001(3) 0.003(3)
N15 N3- 0.011(3) 0.013(3) 0.009(3) 0.003(3) 0.001(3) 0.002(3)
N16 N3- 0.016(4) 0.009(3) 0.018(4) 0.004(3) 0.008(3) 0.004(3)
N17 N3- 0.009(3) 0.004(3) 0.012(3) -.001(2) 0.000(2) 0.002(2)
N18 N3- 0.014(4) 0.062(7) 0.018(4) 0.014(4) 0.005(3) 0.023(4)
N19 N3- 0.029(4) 0.012(4) 0.020(4) 0.012(3) 0.007(3) 0.003(3)
N20 N3- 0.011(3) 0.014(3) 0.013(3) 0.003(3) 0.002(3) 0.006(3)
N21 N3- 0.016(4) 0.015(4) 0.045(6) 0.005(3) -.011(4) 0.005(4)
N22 N3- 0.017(4) 0.019(4) 0.024(4) -.004(3) 0.010(3) -.004(3)
N23 N3- 0.019(4) 0.035(5) 0.016(4) 0.005(4) 0.006(3) 0.011(4)
N24 N3- 0.024(4) 0.007(3) 0.029(5) -.002(3) 0.008(4) -.003(3)
N25 N3- 0.028(5) 0.038(5) 0.016(4) 0.024(4) 0.010(3) 0.013(4)
N26 N3- 0.013(3) 0.011(3) 0.015(3) 0.007(3) 0.004(3) 0.005(3)
N27 N3- 0.013(4) 0.018(4) 0.027(4) 0.001(3) -.002(3) 0.011(3)
N28 N3- 0.016(4) 0.013(3) 0.019(4) 0.005(3) 0.003(3) 0.001(3)
O1 O2- 0.019(3) 0.018(3) 0.020(3) 0.008(3) 0.003(3) 0.006(3)
O2 O2- 0.047(8) 0.034(7) 0.045(8) 0.019(6) 0.007(6) 0.013(6)
#End of data_407713-ICSD


