data_69651-ICSD
#?2014 by Fachinformationszentrum Karlsruhe, and the U.S. Secretary of 
#Commerce on behalf of the United States.  All rights reserved.
_database_code_ICSD                69651
_audit_creation_date               1994/01/19
_chemical_name_systematic          'Potassium Gallium Bromide'
_chemical_formula_structural       'K Ga Br4'
_chemical_formula_sum              'Br4 Ga1 K1'
_publ_section_title
;
Ternaere Bromide des Aluminiums, Galliums und Indiums vom Typ 
A(I)M(III)Br4 (A(I)=Na,Ga,K,In,Rb). Eine Uebersicht.
;
loop_
_citation_id
_citation_journal_abbrev
_citation_year
_citation_journal_volume
_citation_page_first
_citation_page_last
_citation_journal_id_ASTM
primary 'Zeitschrift fuer Anorganische und Allgemeine Chemie (1950) (DE)'
 1990 585 38 48 ZAACAB
_publ_author_name                  'Staffel, T.;Meyer, G.'
_cell_length_a                     22.161(1)
_cell_length_b                     22.161(1)
_cell_length_c                     8.829(1)
_cell_angle_alpha                  90.
_cell_angle_beta                   90.
_cell_angle_gamma                  120.
_cell_volume                       3755.09
_cell_formula_units_Z              18
_symmetry_space_group_name_H-M     'R 3 c H'
_symmetry_Int_Tables_number        161
_refine_ls_R_factor_all            .098
loop_
_symmetry_equiv_pos_site_id
_symmetry_equiv_pos_as_xyz
  1	'-x+y, y, z+.5'
  2	'x, x-y, z+.5'
  3	'-y, -x, z+.5'
  4	'-x+y, -x, z'
  5	'-y, x-y, z'
  6	'x, y, z'
  7	'-x+y+.6666, y+.3333, z+.8333'
  8	'-x+y+.3333, y+.6666, z+.1666'
  9	'x+.6666, x-y+.3333, z+.8333'
 10	'x+.3333, x-y+.6666, z+.1666'
 11	'-y+.6666, -x+.3333, z+.8333'
 12	'-y+.3333, -x+.6666, z+.1666'
 13	'-x+y+.6666, -x+.3333, z+.3333'
 14	'-x+y+.3333, -x+.6666, z+.6666'
 15	'-y+.6666, x-y+.3333, z+.3333'
 16	'-y+.3333, x-y+.6666, z+.6666'
 17	'x+.6666, y+.3333, z+.3333'
 18	'x+.3333, y+.6666, z+.6666'
loop_
_atom_type_symbol
_atom_type_oxidation_number
Br1-	-1
Ga3+	3
K1+	1
loop_
_atom_site_label
_atom_site_type_symbol
_atom_site_symmetry_multiplicity
_atom_site_Wyckoff_symbol
_atom_site_fract_x
_atom_site_fract_y
_atom_site_fract_z
_atom_site_occupancy
_atom_site_attached_hydrogens
K1 K1+ 18 b 0.0058(7) 0.2070(8) 0.1136(21) 1. 0 
Ga1 Ga3+ 18 b 0.0092(3) 0.8067(3) 0.1211(11) 1. 0 
Br1 Br1- 18 b 0.0309(4) 0.9089(4) 0 1. 0 
Br2 Br1- 18 b -.0150(3) 0.7206(3) 0.9346(10) 1. 0 
Br3 Br1- 18 b 0.1040(3) 0.8222(3) 0.2576(9) 1. 0 
Br4 Br1- 18 b 0.9160(3) 0.7711(4) 0.2805(10) 1. 0 

loop_
_atom_site_aniso_label
_atom_site_aniso_type_symbol
_atom_site_aniso_U_11
_atom_site_aniso_U_22
_atom_site_aniso_U_33
_atom_site_aniso_U_12
_atom_site_aniso_U_13
_atom_site_aniso_U_23
K1 K1+ 0.068(11) 0.071(11) 0.0694(91) 0.0270(96) -.0053(95) -.0221(80)
Ga1 Ga3+ 0.0259(40) 0.0422(40) 0.0329(31) 0.0215(30) -.0034(33) -.0055(36)
Br1 Br1- 0.0659(49) 0.0600(44) 0.0777(47) 0.0258(37) -.0145(42) 0.0198(44)
Br2 Br1- 0.0654(43) 0.0531(41) 0.0295(30) 0.0336(37) -.0046(32) -.0064(33)
Br3 Br1- 0.0429(40) 0.0697(49) 0.0482(42) 0.0256(35) -.0120(35) -.0015(38)
Br4 Br1- 0.0472(40) 0.0762(53) 0.0416(40) 0.0281(39) 0.0041(34) -.0085(33)
#End of data_69651-ICSD


