data_100125-ICSD
#?2014 by Fachinformationszentrum Karlsruhe, and the U.S. Secretary of 
#Commerce on behalf of the United States.  All rights reserved.
_database_code_ICSD                100125
_audit_creation_date               1980/01/01
_audit_update_record               2003/10/01
_chemical_name_systematic          'Potassium Antimony Selenide'
_chemical_formula_structural       'K Sb Se2'
_chemical_formula_sum              'K1 Sb1 Se2'
_publ_section_title
;
Zur Darstellung und Struktur von K Sb Se2
;
loop_
_citation_id
_citation_journal_abbrev
_citation_year
_citation_journal_volume
_citation_page_first
_citation_page_last
_citation_journal_id_ASTM
primary
;
Zeitschrift fuer Naturforschung, Teil B. Anorganische Chemie, 
Organische Chemie (2,1947-32,1977)
;
 1977 32 1346 1348 ZENBAX
2 'Acta Crystallographica, Section B: Structural Science'
 1992 48 113 114 ASBSDK
3 'Izvestiya Akademii Nauk SSSR, Neorganicheskie Materialy'
 1976 12 537 538 IVNMAW
_publ_author_name                  'Dittmar, G.;Schaefer, H.'
_cell_length_a                     12.481(5)
_cell_length_b                     6.445(5)
_cell_length_c                     6.450(5)
_cell_angle_alpha                  103.16(5)
_cell_angle_beta                   99.25(5)
_cell_angle_gamma                  99.44(5)
_cell_volume                       487.66
_cell_formula_units_Z              4
_symmetry_space_group_name_H-M     'P -1'
_symmetry_Int_Tables_number        2
_refine_ls_R_factor_all            .049
loop_
_symmetry_equiv_pos_site_id
_symmetry_equiv_pos_as_xyz
  1	'-x, -y, -z'
  2	'x, y, z'
loop_
_atom_type_symbol
_atom_type_oxidation_number
K1+	1
Sb3+	3
Se2-	-2
loop_
_atom_site_label
_atom_site_type_symbol
_atom_site_symmetry_multiplicity
_atom_site_Wyckoff_symbol
_atom_site_fract_x
_atom_site_fract_y
_atom_site_fract_z
_atom_site_occupancy
_atom_site_attached_hydrogens
Sb1 Sb3+ 2 i 0.6512(1) 0.5792(2) 0.1955(2) 1. 0 
Sb2 Sb3+ 2 i 0.9140(1) 0.0088(2) 0.2241(2) 1. 0 
Se1 Se2- 2 i 0.4057(1) 0.5631(2) 0.2142(3) 1. 0 
Se2 Se2- 2 i 0.1354(1) 0.0242(2) 0.1827(2) 1. 0 
Se3 Se2- 2 i 0.6762(1) 0.9909(2) 0.2526(2) 1. 0 
Se4 Se2- 2 i 0.8792(1) 0.6036(2) 0.2157(2) 1. 0 
K1 K1+ 2 i 0.4132(3) 0.0841(6) 0.2736(6) 1. 0 
K2 K1+ 2 i 0.1536(3) 0.5637(5) 0.3241(5) 1. 0 

loop_
_atom_site_aniso_label
_atom_site_aniso_type_symbol
_atom_site_aniso_U_11
_atom_site_aniso_U_22
_atom_site_aniso_U_33
_atom_site_aniso_U_12
_atom_site_aniso_U_13
_atom_site_aniso_U_23
Sb1 Sb3+ 0.0221(5) 0.0246(6) 0.0218(5) 0.0076(4) 0.0073(4) 0.0114(4)
Sb2 Sb3+ 0.0205(5) 0.0217(5) 0.0169(5) 0.0033(4) 0.0019(4) -0.0031(4)
Se1 Se2- 0.0161(7) 0.0190(7) 0.0247(8) 0.0036(6) 0.0038(6) 0.0006(6)
Se2 Se2- 0.0131(7) 0.0215(7) 0.0219(8) 0.0039(6) 0.0026(6) 0.0089(6)
Se3 Se2- 0.0156(7) 0.0220(8) 0.0192(7) 0.0049(6) 0.0033(6) 0.0019(6)
Se4 Se2- 0.0151(7) 0.0256(8) 0.0201(7) 0.0082(6) 0.0050(6) 0.0096(6)
K1 K1+ 0.029(2) 0.027(2) 0.028(2) 0.012(2) 0.005(1) 0.013(2)
K2 K1+ 0.028(2) 0.024(2) 0.024(2) 0.011(1) 0.009(1) 0.007(1)
#End of data_100125-ICSD


