data_151575-ICSD
#?2014 by Fachinformationszentrum Karlsruhe, and the U.S. Secretary of 
#Commerce on behalf of the United States.  All rights reserved.
_database_code_ICSD                151575
_audit_creation_date               2006/10/01
_chemical_name_systematic          'Calcium Digermanate'
_chemical_formula_structural       'Ca (Ge2 O5)'
_chemical_formula_sum              'Ca1 Ge2 O5'
_publ_section_title
;
Structure and phase transition of Ca Ge2 O5 revisited
;
loop_
_citation_id
_citation_journal_abbrev
_citation_year
_citation_journal_volume
_citation_page_first
_citation_page_last
_citation_journal_id_ASTM
primary 'Physics and Chemistry of Minerals' 2004 31 224 231 PCMIDU
_publ_author_name                  'Malcherek, T.;Bosenick, A.'
_cell_length_a                     6.5664(5)
_cell_length_b                     8.8172(6)
_cell_length_c                     6.8825(5)
_cell_angle_alpha                  89.762(2)
_cell_angle_beta                   112.962(1)
_cell_angle_gamma                  90.119(2)
_cell_volume                       366.9
_cell_formula_units_Z              4
_symmetry_space_group_name_H-M     'C -1'
_symmetry_Int_Tables_number        2
_refine_ls_R_factor_all            .091
loop_
_symmetry_equiv_pos_site_id
_symmetry_equiv_pos_as_xyz
  1	'-x, -y, -z'
  2	'x, y, z'
  3	'-x+.5, -y+.5, -z'
  4	'x+.5, y+.5, z'
loop_
_atom_type_symbol
_atom_type_oxidation_number
Ca2+	2
Ge4+	4
O2-	-2
loop_
_atom_site_label
_atom_site_type_symbol
_atom_site_symmetry_multiplicity
_atom_site_Wyckoff_symbol
_atom_site_fract_x
_atom_site_fract_y
_atom_site_fract_z
_atom_site_occupancy
_atom_site_attached_hydrogens
_atom_site_U_iso_or_equiv
Ca1 Ca2+ 4 i 0.9985(17) 0.6698(6) 0.2539(14) 1. 0 0.0120(19) 
Ge1 Ge4+ 4 i 0.9993(10) 0.3138(4) 0.2498(9) 1. 0 0.0079(12) 
Ge2 Ge4+ 2 a 0 0 0 1. 0 0.0044(20) 
Ge3 Ge4+ 2 b 0 0 0.5 1. 0 0.0091(22) 
O1 O2- 4 i 0.9989(44) 0.9269(14) 0.2541(35) 1. 0 0.0050(20) 
O2 O2- 4 i 0.3957(34) 0.2972(20) 0.9026(30) 1. 0 0.0050(20) 
O3 O2- 4 i 0.8159(32) 0.4441(22) 0.0816(29) 1. 0 0.0050(20) 
O4 O2- 4 i 0.1858(32) 0.4345(22) 0.4286(28) 1. 0 0.0050(20) 
O5 O2- 4 i 0.1192(35) 0.7999(20) 0.6079(31) 1. 0 0.0050(20) 

#End of data_151575-ICSD


