data_421354-ICSD
#?2014 by Fachinformationszentrum Karlsruhe, and the U.S. Secretary of 
#Commerce on behalf of the United States.  All rights reserved.
_database_code_ICSD                421354
_audit_creation_date               2012/02/01
_chemical_name_systematic          'Distrontium Zinc Trisulfide'
_chemical_formula_structural       'Sr2 Zn1 S3'
_chemical_formula_sum              'S3 Sr2 Zn1'
_publ_section_title
;
Sr2 Zn S3 : crystal structure and fluorescent properties of a new 
Eu(II)- activated yellow emission phosphor
;
loop_
_citation_id
_citation_journal_abbrev
_citation_year
_citation_journal_volume
_citation_page_first
_citation_page_last
_citation_journal_id_ASTM
primary 'Chemistry of Materials' 2010 22 5800 5802 CMATEX
_publ_author_name
;
Petrukin, V.;Okube, M.;Yamane, H.;Sasaki, S.;Kakihana, M.
;
_cell_length_a                     8.45768(33)
_cell_length_b                     4.06898(15)
_cell_length_c                     16.40133(48)
_cell_angle_alpha                  90.
_cell_angle_beta                   90.
_cell_angle_gamma                  90.
_cell_volume                       564.44
_cell_formula_units_Z              4
_symmetry_space_group_name_H-M     'P n 21 a'
_symmetry_Int_Tables_number        33
_refine_ls_R_factor_all            .0175
loop_
_symmetry_equiv_pos_site_id
_symmetry_equiv_pos_as_xyz
  1	'x+.5, y, -z+.5'
  2	'-x+.5, y+.5, z+.5'
  3	'-x, y+.5, -z'
  4	'x, y, z'
loop_
_atom_type_symbol
_atom_type_oxidation_number
S2-	-2
Sr2+	2
Zn2+	2
loop_
_atom_site_label
_atom_site_type_symbol
_atom_site_symmetry_multiplicity
_atom_site_Wyckoff_symbol
_atom_site_fract_x
_atom_site_fract_y
_atom_site_fract_z
_atom_site_occupancy
_atom_site_attached_hydrogens
_atom_site_U_iso_or_equiv
Sr1 Sr2+ 4 a 0.24053(5) 0.7494(6) 0.45769(3) 1.0000 0 0.0113 
Sr2 Sr2+ 4 a 0.41994(5) 0.2511(4) 0.21492(3) 1.0000 0 0.0102 
Zn1 Zn2+ 4 a 0.12637(7) 0.7491(5) 0.13311(3) 1.0000 0 0.0110 
S1 S2- 4 a 0.18153(15) 0.7489(12) 0.27393(7) 1.0000 0 0.0100 
S2 S2- 4 a 0.49060(16) 0.2490(11) 0.40147(7) 1.0000 0 0.0110 
S3 S2- 4 a 0.37472(15) 0.7528(13) 0.07187(7) 1.0000 0 0.0105 

loop_
_atom_site_aniso_label
_atom_site_aniso_type_symbol
_atom_site_aniso_U_11
_atom_site_aniso_U_22
_atom_site_aniso_U_33
_atom_site_aniso_U_12
_atom_site_aniso_U_13
_atom_site_aniso_U_23
Sr1 Sr2+ 0.0129(2) 0.0096(2) 0.0114(2) -0.0016(9) 0.00137(15) -0.0009(8)
Sr2 Sr2+ 0.0099(2) 0.0081(2) 0.0126(2) 0.0011(8) -0.00002(14) 0.0005(9)
Zn1 Zn2+ 0.0106(3) 0.0105(3) 0.0120(3) -0.0012(13) -0.00025(18) -0.0005(8)
S1 S2- 0.0103(5) 0.0098(6) 0.0100(5) 0.001(2) 0.0003(4) -0.0041(19)
S2 S2- 0.0110(6) 0.0081(6) 0.0139(6) -0.002(2) 0.0014(4) -0.0031(17)
S3 S2- 0.0104(6) 0.0100(6) 0.0112(5) -0.001(2) 0.0002(4) 0.0030(16)
#End of data_421354-ICSD


