data_82504-ICSD
#?2014 by Fachinformationszentrum Karlsruhe, and the U.S. Secretary of 
#Commerce on behalf of the United States.  All rights reserved.
_database_code_ICSD                82504
_audit_creation_date               1997/11/10
_chemical_name_systematic          'Aluminium Oxide - Theta'
_chemical_formula_structural       'Al2 O3'
_chemical_formula_sum              'Al2 O3'
_publ_section_title
;
Structural studies of transition aluminas. Theta alumina
;
loop_
_citation_id
_citation_journal_abbrev
_citation_year
_citation_journal_volume
_citation_page_first
_citation_page_last
_citation_journal_id_ASTM
primary 'European Journal of Solid State Inorganic Chemistry'
 1996 33 1223 1231 EJSCE5
_publ_author_name                  'Husson, E.;Repelin, Y.'
_cell_length_a                     11.795(5)
_cell_length_b                     2.91(1)
_cell_length_c                     5.621(7)
_cell_angle_alpha                  90.
_cell_angle_beta                   103.79
_cell_angle_gamma                  90.
_cell_volume                       187.37
_cell_formula_units_Z              4
_symmetry_space_group_name_H-M     'C 1 2/m 1'
_symmetry_Int_Tables_number        12
_refine_ls_R_factor_all            .06
loop_
_symmetry_equiv_pos_site_id
_symmetry_equiv_pos_as_xyz
  1	'-x, y, -z'
  2	'-x, -y, -z'
  3	'x, -y, z'
  4	'x, y, z'
  5	'-x+.5, y+.5, -z'
  6	'-x+.5, -y+.5, -z'
  7	'x+.5, -y+.5, z'
  8	'x+.5, y+.5, z'
loop_
_atom_type_symbol
_atom_type_oxidation_number
Al3+	3
O2-	-2
loop_
_atom_site_label
_atom_site_type_symbol
_atom_site_symmetry_multiplicity
_atom_site_Wyckoff_symbol
_atom_site_fract_x
_atom_site_fract_y
_atom_site_fract_z
_atom_site_occupancy
_atom_site_attached_hydrogens
_atom_site_B_iso_or_equiv
O1 O2- 4 i 0.16268 0 0.12276 1. 0 1.15 
O2 O2- 4 i 0.48945 0 0.26127 1. 0 0.56 
O3 O2- 4 i 0.82995 0 0.43863 1. 0 0.54 
Al1 Al3+ 4 i 0.10134 0 0.7944 1. 0 2.06 
Al2 Al3+ 4 i 0.35235 0 0.68739 1. 0 1.28 

#End of data_82504-ICSD


