data_247695-ICSD
#?2014 by Fachinformationszentrum Karlsruhe, and the U.S. Secretary of 
#Commerce on behalf of the United States.  All rights reserved.
_database_code_ICSD                247695
_audit_creation_date               2013/08/01
_chemical_name_systematic
;
Tripotassium Hydrogen Bis(sulfate(VI))
;
_chemical_formula_structural       'K3 H (S O4)2'
_chemical_formula_sum              'H1 K3 O8 S2'
_publ_section_title
;
Neutron scattering studies of K3 H (S O4)2 and K3 D (S O4)2: The 
particle-in-a-box model for the quantum phase transition
;
loop_
_citation_id
_citation_journal_abbrev
_citation_year
_citation_journal_volume
_citation_journal_issue
_citation_page_first
_citation_page_last
_citation_journal_id_ASTM
primary 'Journal of Chemical Physics' 2012 137 7 074504-1 074504-10 JCPSA6
_publ_author_name                  'Fillaux, Francois;Cousson, Alain'
_cell_length_a                     9.806(1)
_cell_length_b                     5.687(1)
_cell_length_c                     14.702(1)
_cell_angle_alpha                  90
_cell_angle_beta                   102.93(1)
_cell_angle_gamma                  90
_cell_volume                       799.09
_cell_formula_units_Z              4
_symmetry_space_group_name_H-M     'A 1 2/a 1'
_symmetry_Int_Tables_number        15
_refine_ls_R_factor_all            .024
loop_
_symmetry_equiv_pos_site_id
_symmetry_equiv_pos_as_xyz
  1	'-x+.5, y, -z'
  2	'-x, -y, -z'
  3	'x+.5, -y, z'
  4	'x, y, z'
  5	'-x+.5, y+.5, -z+.5'
  6	'-x, -y+.5, -z+.5'
  7	'x+.5, -y+.5, z+.5'
  8	'x, y+.5, z+.5'
loop_
_atom_type_symbol
_atom_type_oxidation_number
H1+	1
K1+	1
O2-	-2
S6+	6
loop_
_atom_site_label
_atom_site_type_symbol
_atom_site_symmetry_multiplicity
_atom_site_Wyckoff_symbol
_atom_site_fract_x
_atom_site_fract_y
_atom_site_fract_z
_atom_site_occupancy
_atom_site_attached_hydrogens
_atom_site_U_iso_or_equiv
K1 K1+ 4 e 0.25 0.75551(13) 0 1. 0 0.0198 
K2 K1+ 8 f 0.34786(5) 0.73208(8) 0.30578(4) 1. 0 0.0226 
S1 S6+ 8 f 0.03807(5) 0.27302(8) -0.11599(3) 1. 0 0.0131 
O1 O2- 8 f 0.09819(3) 0.47694(5) -0.15331(2) 1. 0 0.0205 
O2 O2- 8 f 0.10805(4) 0.05494(5) -0.13010(2) 1. 0 0.0224 
O3 O2- 8 f -0.11381(3) 0.26055(6) -0.15244(2) 1. 0 0.0205 
O4 O2- 8 f 0.06099(4) 0.31245(7) -0.010210(19 1. 0 0.0241 
H1 H1+ 4 b 0 0.5 0 1. 0 0.0477 

loop_
_atom_site_aniso_label
_atom_site_aniso_type_symbol
_atom_site_aniso_U_11
_atom_site_aniso_U_22
_atom_site_aniso_U_33
_atom_site_aniso_U_12
_atom_site_aniso_U_13
_atom_site_aniso_U_23
K1 K1+ 0.0184(2) 0.0242(2) 0.0165(2) 0.0000 0.00314(16) 0.0000
K2 K1+ 0.01899(15) 0.02015(16) 0.02811(19) -0.00035(14) 0.00395(14) 
-0.00470(15)
S1 S6+ 0.01257(15) 0.01287(15) 0.01369(16) 0.00021(13) 0.00284(12) 
0.00044(12)
O1 O2- 0.02433(13) 0.0168(1) 0.02191(11) -0.00460(8) 0.00822(9) 0.00121(8)
O2 O2- 0.02339(13) 0.01679(11) 0.0272(13) 0.00638(9) 0.00609(9) 0.00138(9)
O3 O2- 0.01303(9) 0.02581(12) 0.02203(11) -0.00040(9) 0.00271(7) -0.0023(1)
O4 O2- 0.02840(14) 0.03032(14) 0.0127(1) 0.0003(1) 0.00304(9) 0.00036(9)
H1 H1+ 0.0457 0.0765 0.0212 -0.0282 0.0081 -0.0045
#End of data_247695-ICSD


