data_65297-ICSD
#?2014 by Fachinformationszentrum Karlsruhe, and the U.S. Secretary of 
#Commerce on behalf of the United States.  All rights reserved.
_database_code_ICSD                65297
_audit_creation_date               1989/12/04
_audit_update_record               2003/10/01
_chemical_name_systematic
;
Potassium Catena-diselenoarsenate(III)
;
_chemical_formula_structural       'K (As Se2)'
_chemical_formula_sum              'As1 K1 Se2'
_publ_section_title
;
Zur Kenntnis von Alkalimetaselenoarseniten. Darstellung und 
Kristallstrukturen von M As Se2, M = K, Rb, Cs
;
loop_
_citation_id
_citation_journal_abbrev
_citation_year
_citation_journal_volume
_citation_page_first
_citation_page_last
_citation_journal_id_ASTM
primary 'Zeitschrift fuer Anorganische und Allgemeine Chemie (1950) (DE)'
 1988 561 139 148 ZAACAB
_publ_author_name                  'Sheldrick, W.S.;Haeusler, H.J.'
_cell_length_a                     6.558(1)
_cell_length_b                     12.628(2)
_cell_length_c                     6.554(2)
_cell_angle_alpha                  100.43(2)
_cell_angle_beta                   107.53(2)
_cell_angle_gamma                  100.48(2)
_cell_volume                       492.57
_cell_formula_units_Z              4
_symmetry_space_group_name_H-M     'P 1'
_symmetry_Int_Tables_number        1
_refine_ls_R_factor_all            .075
loop_
_symmetry_equiv_pos_site_id
_symmetry_equiv_pos_as_xyz
  1	'x, y, z'
loop_
_atom_type_symbol
_atom_type_oxidation_number
As3+	3
K1+	1
Se2-	-2
loop_
_atom_site_label
_atom_site_type_symbol
_atom_site_symmetry_multiplicity
_atom_site_Wyckoff_symbol
_atom_site_fract_x
_atom_site_fract_y
_atom_site_fract_z
_atom_site_occupancy
_atom_site_attached_hydrogens
K1 K1+ 1 a 0.2123(11) 0.2599(5) 0.2261(12) 1. 0 
K2 K1+ 1 a -.1098(11) 0.4974(6) 0.4143(13) 1. 0 
K3 K1+ 1 a 0.6634(10) 0.7583(5) 0.7714(12) 1. 0 
K4 K1+ 1 a -.1465(12) 0.9978(6) 0.4529(12) 1. 0 
As1 As3+ 1 a 0.5950(6) 0.1770(3) 0.8503(6) 1. 0 
As2 As3+ 1 a 0.4556(5) 0.4424(2) 0.8774(6) 1. 0 
As3 As3+ 1 a 0.2884(6) 0.6767(3) 1.1550(6) 1. 0 
As4 As3+ 1 a 0.3172(5) 0.9426(2) 1.0170(6) 1. 0 
Se1 Se2- 1 a 0.6860(6) 0.2073(3) 1.2284(6) 1. 0 
Se2 Se2- 1 a 0.3861(5) -.0187(3) 0.6910(6) 1. 0 
Se3 Se2- 1 a 0.4396(6) 0.4998(2) 0.5614(6) 1. 0 
Se4 Se2- 1 a 0.2623(6) 0.2448(1) 0.7380(6) 1. 0 
Se5 Se2- 1 a 0.6683(6) 0.7080(3) 1.2484(6) 1. 0 
Se6 Se2- 1 a 0.1298(5) 0.4818(3) 0.9492(6) 1. 0 
Se7 Se2- 1 a 0 1 1 1. 0 
Se8 Se2- 1 a 0.1758(5) 0.7448(2) 0.8228(6) 1. 0 

loop_
_atom_site_aniso_label
_atom_site_aniso_type_symbol
_atom_site_aniso_U_11
_atom_site_aniso_U_22
_atom_site_aniso_U_33
_atom_site_aniso_U_12
_atom_site_aniso_U_13
_atom_site_aniso_U_23
K1 K1+ 0.018(3) 0.015(2) 0.023(4) -0.009(2) 0.007(3) -0.011(3)
K2 K1+ 0.018(3) 0.023(3) 0.024(4) 0.004(2) 0.005(3) 0.006(3)
K3 K1+ 0.016(3) 0.011(3) 0.019(3) -0.009(2) 0.008(2) -0.004(2)
K4 K1+ 0.027(3) 0.026(3) 0.014(3) 0.007(3) 0.005(3) 0.008(3)
As1 As3+ 0.015(1) 0.013(1) 0.021(2) -0.002(1) 0.008(1) 0.004(1)
As2 As3+ 0.012(1) 0.008(1) 0.010(2) 0.000(1) -0.001(1) 0.002(1)
As3 As3+ 0.023(1) 0.011(1) 0.014(2) 0.001(1) 0.009(1) -0.002(1)
As4 As3+ 0.014(1) 0.007(1) 0.011(2) 0.000(1) -0.003(1) 0.000(1)
Se1 Se2- 0.017(1) 0.015(1) 0.017(2) 0.004(1) 0.001(1) 0.001(1)
Se2 Se2- 0.017(1) 0.012(1) 0.018(2) 0.001(1) 0.005(1) -0.001(1)
Se3 Se2- 0.023(1) 0.009(1) 0.013(1) 0.000(1) 0.007(1) 0.001(1)
Se4 Se2- 0.021(1) 0.008(1) 0.009(1) -0.004(1) -0.003(1) 0.002(1)
Se5 Se2- 0.018(1) 0.019(1) 0.011(2) -0.002(1) -0.001(1) 0.006(1)
Se6 Se2- 0.020(1) 0.011(1) 0.014(2) -0.001(1) 0.005(1) 0.002(1)
Se7 Se2- 0.016(1) 0.006(1) 0.021(2) 0.001(1) 0.006(1) -0.002(1)
Se8 Se2- 0.009(1) 0.006(1) 0.021(2) -0.002(1) -0.003(1) -0.003(1)
#End of data_65297-ICSD


