data_22134-ICSD
#?2014 by Fachinformationszentrum Karlsruhe, and the U.S. Secretary of 
#Commerce on behalf of the United States.  All rights reserved.
_database_code_ICSD                22134
_audit_creation_date               1986/10/15
_chemical_name_systematic          'Potassium Hexachloromolybdate(III)'
_chemical_formula_structural       'K3 Mo Cl6'
_chemical_formula_sum              'Cl6 K3 Mo1'
_publ_section_title                'The crystal structure of K3 Mo Cl6'
loop_
_citation_id
_citation_journal_abbrev
_citation_year
_citation_journal_volume
_citation_page_first
_citation_page_last
_citation_journal_id_ASTM
primary 'Acta Crystallographica B (24,1968-38,1982)' 1969 25 400 402 ACBCAR
_publ_author_name
;
Amilius, Z.;van Laar, B.;Rietveld, H.M.
;
_cell_length_a                     12.160(8)
_cell_length_b                     7.534(3)
_cell_length_c                     12.731(6)
_cell_angle_alpha                  90.
_cell_angle_beta                   108.66(1)
_cell_angle_gamma                  90.
_cell_volume                       1105.02
_cell_formula_units_Z              4
_symmetry_space_group_name_H-M     'P 1 21/a 1'
_symmetry_Int_Tables_number        14
_refine_ls_R_factor_all            .11
loop_
_symmetry_equiv_pos_site_id
_symmetry_equiv_pos_as_xyz
  1	'x+.5, -y+.5, z'
  2	'-x, -y, -z'
  3	'-x+.5, y+.5, -z'
  4	'x, y, z'
loop_
_atom_type_symbol
_atom_type_oxidation_number
Cl1-	-1
K1+	1
Mo3+	3
loop_
_atom_site_label
_atom_site_type_symbol
_atom_site_symmetry_multiplicity
_atom_site_Wyckoff_symbol
_atom_site_fract_x
_atom_site_fract_y
_atom_site_fract_z
_atom_site_occupancy
_atom_site_attached_hydrogens
_atom_site_B_iso_or_equiv
Mo1 Mo3+ 2 a 0 0 0 1. 0 0.84 
Mo2 Mo3+ 2 b 0.5 0 0.5 1. 0 0.89 
K1 K1+ 4 e 0.1389(4) 0.0318(11) 0.4007(4) 1. 0 2.98 
K2 K1+ 4 e 0.3865(4) 0.0656(7) 0.1790(4) 1. 0 2. 
K3 K1+ 4 e 0.2368(4) 0.5679(8) 0.1859(4) 1. 0 2.17 
Cl1 Cl1- 4 e 0.1043(4) 0.2063(10) 0.1455(4) 1. 0 2. 
Cl2 Cl1- 4 e 0.4027(4) 0.2699(9) 0.4066(4) 1. 0 1.67 
Cl3 Cl1- 4 e 0.3550(4) 0.8171(9) 0.3696(4) 1. 0 1.58 
Cl4 Cl1- 4 e 0.1842(4) 0.8629(8) 0.0007(4) 1. 0 1.35 
Cl5 Cl1- 4 e 0.9942(4) 0.8008(10) 0.1485(4) 1. 0 1.99 
Cl6 Cl1- 4 e 0.1253(3) 0.5066(14) 0.3848(3) 1. 0 1.49 

#End of data_22134-ICSD


