data_26620-ICSD
#?2014 by Fachinformationszentrum Karlsruhe, and the U.S. Secretary of 
#Commerce on behalf of the United States.  All rights reserved.
_database_code_ICSD                26620
_audit_creation_date               1980/01/01
_audit_update_record               2002/04/01
_chemical_name_systematic
;
Dipotassium Oxopentafluoroniobate - Potassium Hydrogen Fluoride (1/1)
;
_chemical_formula_structural       '(K2 (Nb F5 O)) (K H F2)'
_chemical_formula_sum              'H1 F7 K3 Nb1 O1'
_publ_section_title
;
Structures of complex fluorides. the stereochemistry of some 
fluocolumbate and oxyfluocolumbate complexes. the crystal structure 
of potassium oxyfluocolumbate-potassium bifluoride, (K2 Cb O F5) (K H 
F2)
;
loop_
_citation_id
_citation_journal_abbrev
_citation_year
_citation_journal_volume
_citation_page_first
_citation_page_last
_citation_journal_id_ASTM
primary 'Journal of the American Chemical Society' 1941 63 11 17 JACSAT
_publ_author_name                  'Hoard, J.L.;Martin, W.J.'
_cell_length_a                     8.84(2)
_cell_length_b                     14.05(3)
_cell_length_c                     6.83(1)
_cell_angle_alpha                  90.
_cell_angle_beta                   86.57
_cell_angle_gamma                  90.
_cell_volume                       846.78
_cell_formula_units_Z              4
_symmetry_space_group_name_H-M     'C 1 2/c 1'
_symmetry_Int_Tables_number        15
loop_
_symmetry_equiv_pos_site_id
_symmetry_equiv_pos_as_xyz
  1	'x, -y, z+.5'
  2	'-x, -y, -z'
  3	'-x, y, -z+.5'
  4	'x, y, z'
  5	'x+.5, -y+.5, z+.5'
  6	'-x+.5, -y+.5, -z'
  7	'-x+.5, y+.5, -z+.5'
  8	'x+.5, y+.5, z'
loop_
_atom_type_symbol
_atom_type_oxidation_number
F1-	-1
H1+	1
K1+	1
Nb5+	5
O2-	-2
loop_
_atom_site_label
_atom_site_type_symbol
_atom_site_symmetry_multiplicity
_atom_site_Wyckoff_symbol
_atom_site_fract_x
_atom_site_fract_y
_atom_site_fract_z
_atom_site_occupancy
_atom_site_attached_hydrogens
Nb1 Nb5+ 4 e 0 0.178 0.25 1. 0 
K1 K1+ 4 e 0 0.66 0.25 1. 0 
K2 K1+ 8 f 0.217 0.1 0.79 1. 0 
O1 O2- 4 e 0 0.044 0.25 1. 0 
F1 F1- 4 e 0 0.31 0.25 1. 0 
F2 F1- 8 f 0.205 0.178 0.17 1. 0 
F3 F1- 8 f 0.05 0.178 0.51 1. 0 
F4 F1- 8 f 0.38 0.03 0.48 1. 0 
H1 H1+ 4 b 0 0.5 0 1. 0 

#End of data_26620-ICSD


