data_202287-ICSD
#?2014 by Fachinformationszentrum Karlsruhe, and the U.S. Secretary of 
#Commerce on behalf of the United States.  All rights reserved.
_database_code_ICSD                202287
_audit_creation_date               1988/12/19
_audit_update_record               1998/06/29
_chemical_name_systematic          'Calcium Magnesium Silicate'
_chemical_formula_structural       'Ca Mg (Si O4)'
_chemical_formula_sum              'Ca1 Mg1 O4 Si1'
_chemical_name_mineral             Monticellite
_publ_section_title
;
High-pressure crystal chemistry of monticellite, Ca Mg Si O4
;
loop_
_citation_id
_citation_journal_abbrev
_citation_year
_citation_journal_volume
_citation_page_first
_citation_page_last
_citation_journal_id_ASTM
primary 'American Mineralogist' 1987 72 748 755 AMMIAY
_publ_author_name
;
Sharp, Z.D.;Hazen, R.M.;Finger, L.W.
;
_cell_length_a                     4.763(1)
_cell_length_b                     10.849(2)
_cell_length_c                     6.294(1)
_cell_angle_alpha                  90.
_cell_angle_beta                   90.
_cell_angle_gamma                  90.
_cell_volume                       325.23
_cell_formula_units_Z              4
_symmetry_space_group_name_H-M     'P b n m'
_symmetry_Int_Tables_number        62
_refine_ls_R_factor_all            .066
loop_
_symmetry_equiv_pos_site_id
_symmetry_equiv_pos_as_xyz
  1	'-x+.5, y+.5, z'
  2	'x, y, -z+.5'
  3	'x+.5, -y+.5, z+.5'
  4	'-x, -y, -z'
  5	'x+.5, -y+.5, -z'
  6	'-x, -y, z+.5'
  7	'-x+.5, y+.5, -z+.5'
  8	'x, y, z'
loop_
_atom_type_symbol
_atom_type_oxidation_number
Ca2+	2
Mg2+	2
O2-	-2
Si4+	4
loop_
_atom_site_label
_atom_site_type_symbol
_atom_site_symmetry_multiplicity
_atom_site_Wyckoff_symbol
_atom_site_fract_x
_atom_site_fract_y
_atom_site_fract_z
_atom_site_occupancy
_atom_site_attached_hydrogens
_atom_site_B_iso_or_equiv
Mg1 Mg2+ 4 a 0 0 0 1. 0 0.86(7) 
Ca1 Ca2+ 4 c 0.9733(6) 0.2757(2) 0.25 1. 0 0.94(5) 
Si1 Si4+ 4 c 0.4134(8) 0.0807(3) 0.25 1. 0 0.77(7) 
O1 O2- 4 c 0.7477(20) 0.0760(7) 0.25 1. 0 1.42(16) 
O2 O2- 4 c 0.2476(20) 0.4461(7) 0.25 1. 0 1.11(16) 
O3 O2- 8 d 0.2715(14) 0.1476(5) 0.0450(8) 1. 0 1.057(11) 

#End of data_202287-ICSD


