data_49686-ICSD
#?2014 by Fachinformationszentrum Karlsruhe, and the U.S. Secretary of 
#Commerce on behalf of the United States.  All rights reserved.
_database_code_ICSD                49686
_audit_creation_date               1985/05/02
_audit_update_record               1985/05/21
_chemical_name_systematic
;
Potassium Cis-dichlorohydrogenbis(sulfato(IV))palladate(II)
;
_chemical_formula_structural       'K3 (Pd ((S O3)2 H) Cl2)'
_chemical_formula_sum              'H1 Cl2 K3 O6 Pd1 S2'
_publ_section_title
;
Tripotassiumm cis-Dichloro(hydrogenbissulfito)palladate(II), K3 (Pd 
((S O3)2 H) Cl2)
;
loop_
_citation_id
_citation_journal_abbrev
_citation_year
_citation_journal_volume
_citation_page_first
_citation_page_last
_citation_journal_id_ASTM
primary 'Acta Crystallographica, Section C: Crystal Structure Communications'
 1985 41 304 306 ACSCEE
_publ_author_name
;
Liehr, G.;Breitinger, D.K.;Raidel, M.
;
_cell_length_a                     15.083(3)
_cell_length_b                     10.391(4)
_cell_length_c                     7.002(4)
_cell_angle_alpha                  90.
_cell_angle_beta                   90.
_cell_angle_gamma                  90.
_cell_volume                       1097.41
_cell_formula_units_Z              4
_symmetry_space_group_name_H-M     'C m c 21'
_symmetry_Int_Tables_number        36
_refine_ls_R_factor_all            .024
loop_
_symmetry_equiv_pos_site_id
_symmetry_equiv_pos_as_xyz
  1	'x, -y, z+.5'
  2	'-x, -y, z+.5'
  3	'-x, y, z'
  4	'x, y, z'
  5	'x+.5, -y+.5, z+.5'
  6	'-x+.5, -y+.5, z+.5'
  7	'-x+.5, y+.5, z'
  8	'x+.5, y+.5, z'
loop_
_atom_type_symbol
_atom_type_oxidation_number
Cl1-	-1
H1+	1
K1+	1
O2-	-2
Pd2+	2
S4+	4
loop_
_atom_site_label
_atom_site_type_symbol
_atom_site_symmetry_multiplicity
_atom_site_Wyckoff_symbol
_atom_site_fract_x
_atom_site_fract_y
_atom_site_fract_z
_atom_site_occupancy
_atom_site_attached_hydrogens
_atom_site_U_iso_or_equiv
Pd1 Pd2+ 4 a 0 0.24924(3) 0.25 1. 0 0 
Cl1 Cl1- 8 b 0.1112(1) 0.1205(1) 0.3984(2) 1. 0 0 
S1 S4+ 8 b 0.1089(1) 0.3527(1) 0.0917(2) 1. 0 0 
O1 O2- 8 b 0.1897(2) 0.3725(2) 0.2038(4) 1. 0 0 
O2 O2- 8 b 0.1276(2) 0.2739(3) -.0772(5) 1. 0 0 
O3 O2- 8 b 0.0794(2) 0.4859(3) 0.0264(4) 1. 0 0 
H1 H1+ 4 a 0 0.4836(13) 0.0239(13) 1. 0 0.0498(14) 
K1 K1+ 8 b 0.2228(1) 0.3595(1) 0.5955(2) 1. 0 0 
K2 K1+ 4 a 0 0.1214(1) 0.7732(2) 1. 0 0 

loop_
_atom_site_aniso_label
_atom_site_aniso_type_symbol
_atom_site_aniso_U_11
_atom_site_aniso_U_22
_atom_site_aniso_U_33
_atom_site_aniso_U_12
_atom_site_aniso_U_13
_atom_site_aniso_U_23
Pd1 Pd2+ 0.0151(1) 0.0174(2) 0.0172(1) 0.00(14) 0.00(14) 0.0012(1)
Cl1 Cl1- 0.0212(3) 0.0268(4) 0.0293(4) 0.0022(3) -.0025(3) 0.0064(4)
S1 S4+ 0.0159(3) 0.0207(3) 0.0198(4) -.0018(3) 0.0009(3) 0.0011(3)
O1 O2- 0.0182(9) 0.0276(9) 0.028(1) -.0035(8) -.0037(8) -.0018(8)
O2 O2- 0.0349(10) 0.0434(10) 0.0230(9) -.0096(9) 0.0073(10) -.0123(10)
O3 O2- 0.0226(8) 0.0281(10) 0.0516(11) -.0044(9) -.0016(9) 0.0172(10)
K1 K1+ 0.0280(4) 0.0302(4) 0.0282(4) 0.0086(3) -.0034(3) -.0016(4)
K2 K1+ 0.0309(5) 0.0277(5) 0.0269(5) 0.00(14) 0.00(14) -.0034(5)
#End of data_49686-ICSD


