data_201461-ICSD
#?2014 by Fachinformationszentrum Karlsruhe, and the U.S. Secretary of 
#Commerce on behalf of the United States.  All rights reserved.
_database_code_ICSD                201461
_audit_creation_date               1985/03/08
_audit_update_record               1997/11/10
_chemical_name_systematic          'Strontium Calcium Carbonate'
_chemical_formula_structural       'Sr Ca (C O3)2'
_chemical_formula_sum              'C2 Ca1 O6 Sr1'
_chemical_name_mineral             Carbocernaite
_publ_section_title
;
The crystal structure of Carbocernaite
;
loop_
_citation_id
_citation_journal_abbrev
_citation_year
_citation_journal_volume
_citation_page_first
_citation_page_last
_citation_journal_id_ASTM
primary 'Kexue Tongbao (= Bulletin der Wissenschaften)' 1982 27 76 80 KETOD8
_publ_author_name                  'Shi, N.;Ma, Z.;Peng, Z.'
_cell_length_a                     5.214(3)
_cell_length_b                     6.430(3)
_cell_length_c                     7.301(12)
_cell_angle_alpha                  90.
_cell_angle_beta                   90.
_cell_angle_gamma                  90.
_cell_volume                       244.77
_cell_formula_units_Z              2
_symmetry_space_group_name_H-M     'P m c 21'
_symmetry_Int_Tables_number        26
_refine_ls_R_factor_all            .062
loop_
_symmetry_equiv_pos_site_id
_symmetry_equiv_pos_as_xyz
  1	'x, -y, z+.5'
  2	'-x, -y, z+.5'
  3	'-x, y, z'
  4	'x, y, z'
loop_
_atom_type_symbol
_atom_type_oxidation_number
C4+	4
Ca2+	2
O2-	-2
Sr2+	2
loop_
_atom_site_label
_atom_site_type_symbol
_atom_site_symmetry_multiplicity
_atom_site_Wyckoff_symbol
_atom_site_fract_x
_atom_site_fract_y
_atom_site_fract_z
_atom_site_occupancy
_atom_site_attached_hydrogens
Sr1 Sr2+ 2 a 0 0.1168(4) 0.2555(11) 1. 0 
Ca1 Ca2+ 2 b 0.5 0.4844(14) 0.5495(10) 1. 0 
O1 O2- 4 c 0.2097(26) 0.4907(24) 0.2951(20) 1. 0 
O2 O2- 4 c 0.2850(33) 0.1288(27) 0.5452(23) 1. 0 
O3 O2- 2 a 0 0.2313(43) 0.9204(41) 1. 0 
O4 O2- 2 b 0.5 0.1433(41) 0.1462(36) 1. 0 
C1 C4+ 2 a 0 0.4176(40) 0.8436(38) 1. 0 
C2 C4+ 2 b 0.5 0.0343(49) 0.5782(45) 1. 0 

loop_
_atom_site_aniso_label
_atom_site_aniso_type_symbol
_atom_site_aniso_B_11
_atom_site_aniso_B_22
_atom_site_aniso_B_33
_atom_site_aniso_B_12
_atom_site_aniso_B_13
_atom_site_aniso_B_23
Sr1 Sr2+ 1.25(10) 0.75(10) 2.1(1) 0 0 -.05(15)
Ca1 Ca2+ 1.56(26) 1.52(32) 2.73(34) 0 0 -.22(33)
O1 O2- 2.06(56) 1.48(55) 2.64(76) 0.30(53) 0.38(14) 0.08(47)
O2 O2- 2.22(70) 1.35(71) 3.77(69) -.33(62) -.18(63) 0.11(64)
O3 O2- 2.850(12) 1.490(12) 4.660(12) 0 0 0.040(11)
O4 O2- 4.01(98) 0.660(10) 3.770(10) 0 0 0.52(96)
C1 C4+ 2.22(88) 0.92(86) 1.09(6) 0 0 0.35(79)
C2 C4+ 1.750(10) 1.230(12) 2.550(12) 0 0 0.57(97)
#End of data_201461-ICSD


