data_39523-ICSD
#?2014 by Fachinformationszentrum Karlsruhe, and the U.S. Secretary of 
#Commerce on behalf of the United States.  All rights reserved.
_database_code_ICSD                39523
_audit_creation_date               1992/08/20
_chemical_name_systematic
;
Potassium Nitratotrichlorobismuthate(III)
;
_chemical_formula_structural       'K (Bi Cl3 (N O3))'
_chemical_formula_sum              'Bi1 Cl3 K1 N1 O3'
_publ_section_title
;
Crystal structure of potassium nitratotrichlorobismuthate(III) 
KBiCl3NO3
;
loop_
_citation_id
_citation_journal_abbrev
_citation_year
_citation_journal_volume
_citation_page_first
_citation_page_last
_citation_journal_id_ASTM
primary 'Koordinatsionnaya Khimiya (= Coordination Chemistry (USSR))'
 1991 17 1354 1356 KOKHDC
_publ_author_name                  'Udovenko, A.A.;Davidovich, R.L.'
_cell_length_a                     9.203(4)
_cell_length_b                     9.493(4)
_cell_length_c                     8.685(4)
_cell_angle_alpha                  90.
_cell_angle_beta                   90.
_cell_angle_gamma                  103.80(5)
_cell_volume                       736.85
_cell_formula_units_Z              4
_symmetry_space_group_name_H-M     'P 1 1 21/b'
_symmetry_Int_Tables_number        14
_refine_ls_R_factor_all            .047
loop_
_symmetry_equiv_pos_site_id
_symmetry_equiv_pos_as_xyz
  1	'x, y+.5, -z+.5'
  2	'-x, -y, -z'
  3	'-x, -y+.5, z+.5'
  4	'x, y, z'
loop_
_atom_type_symbol
_atom_type_oxidation_number
Bi3+	3
Cl1-	-1
K1+	1
N5+	5
O2-	-2
loop_
_atom_site_label
_atom_site_type_symbol
_atom_site_symmetry_multiplicity
_atom_site_Wyckoff_symbol
_atom_site_fract_x
_atom_site_fract_y
_atom_site_fract_z
_atom_site_occupancy
_atom_site_attached_hydrogens
_atom_site_U_iso_or_equiv
Bi1 Bi3+ 4 e 0.1560(1) 0.2038(1) 0.0808(1) 1. 0 0.0172(2) 
K1 K1+ 4 e 0.3539(4) 0.2014(5) 0.5921(4) 1. 0 0.037(2) 
Cl1 Cl1- 4 e 0.3609(4) 0.3580(4) -.0840(5) 1. 0 0.026(2) 
Cl2 Cl1- 4 e 0.1352(5) 0.0217(5) -.1415(4) 1. 0 0.029(2) 
Cl3 Cl1- 4 e -.0324(5) 0.3139(5) -.0531(4) 1. 0 0.031(2) 
N1 N5+ 4 e 0.331(2) 0.446(1) 0.297(1) 1. 0 0.024(7) 
O1 O2- 4 e 0.217(1) 0.464(1) 0.219(1) 1. 0 0.040(7) 
O2 O2- 4 e 0.382(2) 0.352(2) 0.295(1) 1. 0 0.038(8) 
O3 O2- 4 e 0.391(1) 0.571(1) 0.378(1) 1. 0 0.031(6) 

#End of data_39523-ICSD


