data_262969-ICSD
#?2014 by Fachinformationszentrum Karlsruhe, and the U.S. Secretary of 
#Commerce on behalf of the United States.  All rights reserved.
_database_code_ICSD                262969
_audit_creation_date               2013/02/01
_chemical_name_systematic          'Potassium Aluminium Dioxide'
_chemical_formula_structural       'K Al O2'
_chemical_formula_sum              'Al1 K1 O2'
_publ_section_title
;
The natural tiling approach to cation conductivity in K Al O2 
polymorphs
;
loop_
_citation_id
_citation_journal_abbrev
_citation_year
_citation_journal_volume
_citation_journal_issue
_citation_page_first
_citation_page_last
_citation_journal_id_ASTM
primary 'Acta Crystallographica, Section B: Structural Science'
 2012 68 4 356 363 ASBSDK
_publ_author_name
;
Voronin, V.I.;Shekhtman, G.Sh.;Blatov, V.A.
;
_cell_length_a                     5.4560(4)
_cell_length_b                     10.9617(8)
_cell_length_c                     15.4893(12)
_cell_angle_alpha                  90.00000
_cell_angle_beta                   90.00000
_cell_angle_gamma                  90.00000
_cell_volume                       926.37
_cell_formula_units_Z              16
_symmetry_space_group_name_H-M     'P b c a'
_symmetry_Int_Tables_number        61
_refine_ls_R_factor_all            .047
loop_
_symmetry_equiv_pos_site_id
_symmetry_equiv_pos_as_xyz
  1	'x+.5, y, -z+.5'
  2	'x, -y+.5, z+.5'
  3	'-x+.5, y+.5, z'
  4	'-x, -y, -z'
  5	'-x+.5, -y, z+.5'
  6	'-x, y+.5, -z+.5'
  7	'x+.5, -y+.5, -z'
  8	'x, y, z'
loop_
_atom_type_symbol
_atom_type_oxidation_number
Al3+	3
K1+	1
O2-	-2
loop_
_atom_site_label
_atom_site_type_symbol
_atom_site_symmetry_multiplicity
_atom_site_Wyckoff_symbol
_atom_site_fract_x
_atom_site_fract_y
_atom_site_fract_z
_atom_site_occupancy
_atom_site_attached_hydrogens
_atom_site_U_iso_or_equiv
Al1 Al3+ 8 c 0.260(2) 0.0095(11) 0.1845(11) 1.00000 0 0.0097(12) 
Al2 Al3+ 8 c 0.2793(16) 0.2607(10) 0.0671(10) 1.00000 0 0.0097(12) 
K1 K1+ 8 c 0.744(2) 0.0060(11) 0.0606(14) 1.00000 0 0.029(11) 
K2 K1+ 8 c 0.787(2) 0.2603(10) 0.1868(12) 1.00000 0 0.025(9) 
O1 O2- 8 c 0.5661(15) 0.2814(8) 0.0161(4) 1.00000 0 0.026(4) 
O2 O2- 8 c 0.1817(15) 0.4001(7) 0.1067(4) 1.00000 0 0.015(4) 
O3 O2- 8 c 0.2935(14) 0.1529(8) 0.1464(5) 1.00000 0 0.026(4) 
O4 O2- 8 c 0.0539(16) 0.4877(7) 0.2771(6) 1.00000 0 0.023(5) 

loop_
_atom_site_aniso_label
_atom_site_aniso_type_symbol
_atom_site_aniso_U_11
_atom_site_aniso_U_22
_atom_site_aniso_U_33
_atom_site_aniso_U_12
_atom_site_aniso_U_13
_atom_site_aniso_U_23
K1 K1+ 0.026(10) 0.011(9) 0.051(15) 0.00000 0.020(9) 0.00000
K2 K1+ 0.024(7) 0.024(9) 0.028(11) 0.00000 -0.002(6) 0.00000
O1 O2- 0.021(4) 0.044(5) 0.012(4) 0.00000 0.012(3) 0.00000
O2 O2- 0.018(4) 0.009(4) 0.019(4) 0.00000 -0.002(3) 0.00000
O3 O2- 0.0081(13) 0.033(5) 0.038(6) 0.00000 -0.002(3) 0.00000
O4 O2- 0.006(4) 0.042(7) 0.022(5) 0.00000 -0.004(4) 0.00000
#End of data_262969-ICSD


