data_18115-ICSD
#?2014 by Fachinformationszentrum Karlsruhe, and the U.S. Secretary of 
#Commerce on behalf of the United States.  All rights reserved.
_database_code_ICSD                18115
_audit_creation_date               1980/01/01
_audit_update_record               1999/01/19
_chemical_name_systematic          'Copper Dizinc Arsenate(V)'
_chemical_formula_structural       'Cu Zn2 (As O4)2'
_chemical_formula_sum              'As2 Cu1 O8 Zn2'
_chemical_name_mineral             Stranskiite
_publ_section_title
;
Refinemente of the Structure of Stranskiite
;
loop_
_citation_id
_citation_journal_abbrev
_citation_year
_citation_journal_volume
_citation_page_first
_citation_page_last
_citation_journal_id_ASTM
primary
;
Zeitschrift fuer Kristallographie, Kristallgeometrie, Kristallphysik, 
Kristallchemie (-144,1977)
;
 1969 130 231 233 ZEKGAX
2
;
Zeitschrift fuer Kristallographie, Kristallgeometrie, Kristallphysik, 
Kristallchemie (-144,1977)
;
 1967 124 91 100 ZEKGAX
_publ_author_name                  'Calvo, C.;Leung, K.Y.'
_cell_length_a                     5.094(5)
_cell_length_b                     6.752(5)
_cell_length_c                     5.304(5)
_cell_angle_alpha                  111.
_cell_angle_beta                   112.
_cell_angle_gamma                  86.
_cell_volume                       157.47
_cell_formula_units_Z              1
_symmetry_space_group_name_H-M     'P -1'
_symmetry_Int_Tables_number        2
_refine_ls_R_factor_all            .063
loop_
_symmetry_equiv_pos_site_id
_symmetry_equiv_pos_as_xyz
  1	'-x, -y, -z'
  2	'x, y, z'
loop_
_atom_type_symbol
_atom_type_oxidation_number
As5+	5
Cu2+	2
O2-	-2
Zn2+	2
loop_
_atom_site_label
_atom_site_type_symbol
_atom_site_symmetry_multiplicity
_atom_site_Wyckoff_symbol
_atom_site_fract_x
_atom_site_fract_y
_atom_site_fract_z
_atom_site_occupancy
_atom_site_attached_hydrogens
_atom_site_B_iso_or_equiv
Cu1 Cu2+ 1 h 0.5 0.5 0.5 1. 0 1.28(8) 
Zn1 Zn2+ 2 i 0.2285(7) 0.1858(3) 0.7347(7) 1. 0 1.36(6) 
As1 As5+ 2 i 0.8652(5) 0.2750(2) 0.1384(7) 1. 0 0.90(5) 
O1 O2- 2 i 0.1774(28) 0.3353(19) 0.1255(28) 1. 0 0.54(22) 
O2 O2- 2 i 0.9097(35) 0.1217(20) 0.3352(40) 1. 0 1.52(26) 
O3 O2- 2 i 0.6455(32) 0.1573(18) 0.8019(40) 1. 0 1.09(28) 
O4 O2- 2 i 0.7280(28) 0.5055(19) 0.2920(33) 1. 0 1.18(26) 

#End of data_18115-ICSD


