data_412588-ICSD
#?2014 by Fachinformationszentrum Karlsruhe, and the U.S. Secretary of 
#Commerce on behalf of the United States.  All rights reserved.
_database_code_ICSD                412588
_audit_creation_date               2005/10/01
_chemical_name_systematic
;
Potassium Dizinc Phosphate Hydrogenphosphate
;
_chemical_formula_structural       'K Zn2 (P O4) (H P O4)'
_chemical_formula_sum              'H1 K1 O8 P2 Zn2'
_publ_section_title
;
Synthesis and characterisation of the layered zinc phosphate K Zn2 (P 
O4) (H P O4)
;
loop_
_citation_id
_citation_journal_abbrev
_citation_year
_citation_journal_volume
_citation_page_first
_citation_page_last
_citation_journal_id_ASTM
primary 'Inorganica Chimica Acta' 2003 343 51 55 ICHAA3
_publ_author_name
;
Echavarria, A.;Simon-Masseron, A.;Paillaud, J.L.;Gramlich, 
V.;Saldarriaga, C.
;
_cell_length_a                     5.132(9)
_cell_length_b                     8.791(13)
_cell_length_c                     9.301(13)
_cell_angle_alpha                  76.15(11)
_cell_angle_beta                   78.50(13)
_cell_angle_gamma                  72.86(12)
_cell_volume                       385.55
_cell_formula_units_Z              2
_symmetry_space_group_name_H-M     'P -1'
_symmetry_Int_Tables_number        2
_refine_ls_R_factor_all            .0339
loop_
_symmetry_equiv_pos_site_id
_symmetry_equiv_pos_as_xyz
  1	'-x, -y, -z'
  2	'x, y, z'
loop_
_atom_type_symbol
_atom_type_oxidation_number
H1+	1
K1+	1
O2-	-2
P5+	5
Zn2+	2
loop_
_atom_site_label
_atom_site_type_symbol
_atom_site_symmetry_multiplicity
_atom_site_Wyckoff_symbol
_atom_site_fract_x
_atom_site_fract_y
_atom_site_fract_z
_atom_site_occupancy
_atom_site_attached_hydrogens
_atom_site_U_iso_or_equiv
Zn1 Zn2+ 2 i 0.6063(2) 0.61475(9) 0.76324(8) 1 0 0.0124(5) 
Zn2 Zn2+ 2 i 0.79368(15) 0.88669(9) 0.89246(8) 1 0 0.0123(5) 
P1 P5+ 2 i 0.3322(3) 0.7548(2) 1.0537(2) 1 0 0.0107(6) 
P2 P5+ 2 i 1.0960(4) 0.7503(2) 0.6028(2) 1 0 0.0126(6) 
K1 K1+ 2 i 0.7120(3) 0.6955(2) 1.3223(2) 1 0 0.0214(6) 
O1 O2- 2 i 0.5651(9) 0.4047(5) 0.8453(5) 1 0 0.0165(12) 
O2 O2- 2 i 0.5218(9) 0.7616(5) 0.9020(5) 1 0 0.0141(11) 
O3 O2- 2 i 0.6279(8) 1.1130(5) 0.8812(4) 1 0 0.0133(11) 
O4 O2- 2 i 1.0396(9) 0.7795(5) 1.0341(5) 1 0 0.0187(12) 
O5 O2- 2 i 0.9738(9) 0.6102(5) 0.6649(5) 1 0 0.0177(12) 
O6 O2- 2 i 0.9629(9) 0.8899(5) 0.6841(5) 1 0 0.0191(12) 
O7 O2- 2 i 0.4016(9) 0.6978(5) 0.5975(5) 1 0 0.0174(12) 
O8 O2- 2 i 1.0368(10) 0.8110(6) 0.4388(5) 1 0 0.0193(13) 
H1 H1+ 2 i 1.0596(171) 0.8859(100) 0.4009(96) 1 0 0.030 

loop_
_atom_site_aniso_label
_atom_site_aniso_type_symbol
_atom_site_aniso_U_11
_atom_site_aniso_U_22
_atom_site_aniso_U_33
_atom_site_aniso_U_12
_atom_site_aniso_U_13
_atom_site_aniso_U_23
Zn1 Zn2+ 0.0090(7) 0.0120(7) 0.0189(7) -0.0046(4) 0.0010(4) -0.0078(4)
Zn2 Zn2+ 0.0087(7) 0.0118(7) 0.0191(7) -0.0035(4) -0.0005(4) -0.0084(4)
P1 P5+ 0.0056(12) 0.0107(11) 0.0174(11) -0.0032(8) 0.0013(8) -0.0070(8)
P2 P5+ 0.0084(13) 0.0144(12) 0.0173(12) -0.0045(9) 0.0008(8) -0.0073(9)
K1 K1+ 0.0170(11) 0.0235(10) 0.0276(11) -0.0044(7) -0.0040(7) -0.0124(7)
O1 O2- 0.016(3) 0.011(3) 0.027(3) -0.005(2) -0.005(2) -0.009(2)
O2 O2- 0.009(3) 0.018(2) 0.022(3) -0.010(2) 0.003(2) -0.014(2)
O3 O2- 0.011(3) 0.010(2) 0.021(3) -0.002(2) -0.004(2) -0.006(2)
O4 O2- 0.004(3) 0.029(3) 0.024(3) -0.004(2) -0.003(2) -0.005(2)
O5 O2- 0.008(3) 0.010(2) 0.033(3) 0.000(2) 0.003(2) -0.006(2)
O6 O2- 0.018(3) 0.018(3) 0.021(3) -0.005(2) 0.006(2) -0.010(2)
O7 O2- 0.007(3) 0.028(3) 0.016(3) -0.005(2) 0.001(2) -0.006(2)
O8 O2- 0.028(3) 0.012(3) 0.021(3) -0.007(3) -0.005(2) -0.004(2)
#End of data_412588-ICSD


