data_35012-ICSD
#?2014 by Fachinformationszentrum Karlsruhe, and the U.S. Secretary of 
#Commerce on behalf of the United States.  All rights reserved.
_database_code_ICSD                35012
_audit_creation_date               1982/12/31
_audit_update_record               2006/04/01
_chemical_name_systematic          'Lithium Rhenate(V)'
_chemical_formula_structural       'Li (Re O3)'
_chemical_formula_sum              'Li1 O3 Re1'
_publ_section_title
;
The structures of lithium-inserted metal oxides: Li Re O3 and Li2 Re 
O3
;
loop_
_citation_id
_citation_journal_abbrev
_citation_year
_citation_journal_volume
_citation_page_first
_citation_page_last
_citation_journal_id_ASTM
primary 'Journal of Solid State Chemistry' 1982 42 251 262 JSSCBI
2 'Solid State Ionics' 1981 5 323 326 SSIOD3
_publ_author_name
;
Cava, R.J.;Santoro, A.;Murphy, D.W.;Zahurak, S.M.;Roth, R.S.
;
_cell_length_a                     5.0918(3)
_cell_length_b                     5.0918(3)
_cell_length_c                     13.403(1)
_cell_angle_alpha                  90.
_cell_angle_beta                   90.
_cell_angle_gamma                  120.
_cell_volume                       300.94
_cell_formula_units_Z              6
_symmetry_space_group_name_H-M     'R 3 c H'
_symmetry_Int_Tables_number        161
_refine_ls_R_factor_all            .0566
loop_
_symmetry_equiv_pos_site_id
_symmetry_equiv_pos_as_xyz
  1	'-x+y, y, z+.5'
  2	'x, x-y, z+.5'
  3	'-y, -x, z+.5'
  4	'-x+y, -x, z'
  5	'-y, x-y, z'
  6	'x, y, z'
  7	'-x+y+.6666, y+.3333, z+.8333'
  8	'-x+y+.3333, y+.6666, z+.1666'
  9	'x+.6666, x-y+.3333, z+.8333'
 10	'x+.3333, x-y+.6666, z+.1666'
 11	'-y+.6666, -x+.3333, z+.8333'
 12	'-y+.3333, -x+.6666, z+.1666'
 13	'-x+y+.6666, -x+.3333, z+.3333'
 14	'-x+y+.3333, -x+.6666, z+.6666'
 15	'-y+.6666, x-y+.3333, z+.3333'
 16	'-y+.3333, x-y+.6666, z+.6666'
 17	'x+.6666, y+.3333, z+.3333'
 18	'x+.3333, y+.6666, z+.6666'
loop_
_atom_type_symbol
_atom_type_oxidation_number
Li1+	1
O2-	-2
Re5+	5
loop_
_atom_site_label
_atom_site_type_symbol
_atom_site_symmetry_multiplicity
_atom_site_Wyckoff_symbol
_atom_site_fract_x
_atom_site_fract_y
_atom_site_fract_z
_atom_site_occupancy
_atom_site_attached_hydrogens
_atom_site_B_iso_or_equiv
Re1 Re5+ 6 a 0 0 0 1. 0 0.18 
Li1 Li1+ 6 a 0 0 0.273(1) 1. 0 1.6 
O1 O2- 18 b -.3801(7) 0.012(1) 0.2460(9) 1. 0 0.27 

#End of data_35012-ICSD


