data_200432-ICSD
#?2014 by Fachinformationszentrum Karlsruhe, and the U.S. Secretary of 
#Commerce on behalf of the United States.  All rights reserved.
_database_code_ICSD                200432
_audit_creation_date               1980/01/01
_audit_update_record               1997/11/10
_chemical_name_systematic          'Calcium Zinc Silicate Hydrate'
_chemical_formula_structural       'Ca Zn (Si O4) (H2 O)'
_chemical_formula_sum              'H2 Ca1 O5 Si1 Zn1'
_chemical_name_mineral             Clinohedrite
_publ_section_title
;
The crystal structure of Clinohedrite Ca Zn (Si O4) (H2 O)
;
loop_
_citation_id
_citation_journal_abbrev
_citation_year
_citation_journal_volume
_citation_page_first
_citation_page_last
_citation_journal_id_ASTM
primary 'Doklady Akademii Nauk SSSR' 1977 237 334 337 DANKAS
_publ_author_name
;
Simonov, M.A.;Belokoneva, E.L.;Egorov Tismenko, Yu.K.;Belov, N.V.
;
_cell_length_a                     5.131(1)
_cell_length_b                     15.928(2)
_cell_length_c                     5.422(1)
_cell_angle_alpha                  90.
_cell_angle_beta                   103.39(2)
_cell_angle_gamma                  90.
_cell_volume                       431.08
_cell_formula_units_Z              4
_symmetry_space_group_name_H-M     'C 1 c 1'
_symmetry_Int_Tables_number        9
_refine_ls_R_factor_all            .035
loop_
_symmetry_equiv_pos_site_id
_symmetry_equiv_pos_as_xyz
  1	'x, -y, z+.5'
  2	'x, y, z'
  3	'x+.5, -y+.5, z+.5'
  4	'x+.5, y+.5, z'
loop_
_atom_type_symbol
_atom_type_oxidation_number
Ca2+	2
H1+	1
O2-	-2
Si4+	4
Zn2+	2
loop_
_atom_site_label
_atom_site_type_symbol
_atom_site_symmetry_multiplicity
_atom_site_Wyckoff_symbol
_atom_site_fract_x
_atom_site_fract_y
_atom_site_fract_z
_atom_site_occupancy
_atom_site_attached_hydrogens
_atom_site_B_iso_or_equiv
Zn1 Zn2+ 4 a 0 0.24936(4) 0 1. 0 0 
Ca1 Ca2+ 4 a 0.3418(3) 0.42768(7) 0.1384(2) 1. 0 0 
Si1 Si4+ 4 a 0.0048(4) 0.3616(1) 0.5178(4) 1. 0 0 
O1 O2- 4 a 0.1324(9) 0.0410(3) 0.3547(9) 1. 0 0 
O2 O2- 4 a 0.1300(8) 0.2928(2) 0.3461(7) 1. 0 0 
O3 O2- 4 a 0.1776(8) 0.1439(2) 0.9486(8) 1. 0 0 
O4 O2- 4 a 0.1175(9) 0.3403(2) 0.8141(7) 1. 0 0 
O5 O2- 4 a 0.0962(8) 0.4543(2) 0.4460(8) 1. 0 0 
H1 H1+ 4 a 0.138 0.093 0.186 1. 0 2. 
H2 H1+ 4 a 0.348 0.026 0.42 1. 0 2. 

loop_
_atom_site_aniso_label
_atom_site_aniso_type_symbol
_atom_site_aniso_B_11
_atom_site_aniso_B_22
_atom_site_aniso_B_33
_atom_site_aniso_B_12
_atom_site_aniso_B_13
_atom_site_aniso_B_23
Zn1 Zn2+ 0.43(1) 0.44(1) 0.42(1) -.06(2) -.05(1) -.06(2)
Ca1 Ca2+ 0.44(3) 0.44(2) 0.33(3) 0.04(3) 0.04(2) 0.00(3)
Si1 Si4+ 0.31(4) 0.37(4) 0.24(4) -.03(5) 0.04(3) -.01(4)
O1 O2- 0.86(14) 0.86(13) 0.86(13) 0.01(12) 0.36(12) 0.12(12)
O2 O2- 0.55(12) 0.79(12) 0.52(12) 0.16(10) 0.0(1) -.28(10)
O3 O2- 0.36(11) 0.59(11) 0.83(12) 0.03(9) 0.0(1) -.17(9)
O4 O2- 0.84(13) 0.84(12) 0.81(10) -.13(10) 0.03(10) 0.12(9)
O5 O2- 0.66(13) 0.49(12) 0.82(13) -.15(10) 0.29(10) 0.0(1)
#End of data_200432-ICSD


