data_262371-ICSD
#?2014 by Fachinformationszentrum Karlsruhe, and the U.S. Secretary of 
#Commerce on behalf of the United States.  All rights reserved.
_database_code_ICSD                262371
_audit_creation_date               2012/08/01
_chemical_name_systematic          'Tripotassium Dialumotriarsenate(V)'
_chemical_formula_structural       'K3 (Al2 As3 O12)'
_chemical_formula_sum              'Al2 As3 K3 O12'
_publ_section_title                'K3 Al2 As3 O12'
loop_
_citation_id
_citation_journal_abbrev
_citation_year
_citation_journal_volume
_citation_journal_issue
_citation_page_first
_citation_page_last
_citation_journal_id_ASTM
primary 'Acta Crystallographica, Section E. Structure Reports Online'
 2012 68 2 i15 i15 ACSEBH
_publ_author_name                  'Stoeger, B.;Weil, M.'
_cell_length_a                     8.7943(2)
_cell_length_b                     17.4400(2)
_cell_length_c                     8.6610(3)
_cell_angle_alpha                  90
_cell_angle_beta                   90
_cell_angle_gamma                  90
_cell_volume                       1328.36
_cell_formula_units_Z              4
_symmetry_space_group_name_H-M     'P n a 21'
_symmetry_Int_Tables_number        33
_refine_ls_R_factor_all            .0179
loop_
_symmetry_equiv_pos_site_id
_symmetry_equiv_pos_as_xyz
  1	'x+.5, -y+.5, z'
  2	'-x+.5, y+.5, z+.5'
  3	'-x, -y, z+.5'
  4	'x, y, z'
loop_
_atom_type_symbol
_atom_type_oxidation_number
Al3+	3
As5+	5
K1+	1
O2-	-2
loop_
_atom_site_label
_atom_site_type_symbol
_atom_site_symmetry_multiplicity
_atom_site_Wyckoff_symbol
_atom_site_fract_x
_atom_site_fract_y
_atom_site_fract_z
_atom_site_occupancy
_atom_site_attached_hydrogens
_atom_site_U_iso_or_equiv
As1 As5+ 4 a 0.156896(11) 0.215743(6) 0.0009 1 0 0.004155(18) 
As2 As5+ 4 a 0.293241(12) 0.313601(6) 0.511929(16) 1 0 0.004909(19) 
As3 As5+ 4 a 0.236068(12) 0.502941(6) 0.085202(18) 1 0 0.005355(19) 
K1 K1+ 4 a 0.01017(3) 0.402188(14) 0.84037(3) 1 0 0.00837(4) 
K2 K1+ 4 a 0.95033(3) 0.354962(14) 0.30906(3) 1 0 0.00818(4) 
K3 K1+ 4 a 0.68161(3) 0.488891(15) 0.11580(3) 1 0 0.01179(5) 
Al1 Al3+ 4 a 0.34851(4) 0.34012(2) 0.14668(4) 1 0 0.00492(7) 
Al2 Al3+ 4 a 0.13204(4) 0.16767(2) 0.65562(4) 1 0 0.00520(7) 
O1 O2- 4 a 0.29089(10) 0.15184(5) 0.03110(9) 1 0 0.00824(17) 
O2 O2- 4 a 0.02014(10) 0.20900(5) 0.13689(9) 1 0 0.00746(16) 
O3 O2- 4 a 0.21755(9) 0.30785(4) 0.00781(10) 1 0 0.00643(14) 
O4 O2- 4 a 0.06929(10) 0.20939(5) 0.82779(9) 1 0 0.00730(16) 
O5 O2- 4 a 0.17013(13) 0.37287(6) 0.58794(12) 1 0 0.0139(2) 
O6 O2- 4 a 0.47459(12) 0.34183(7) 0.53518(11) 1 0 0.0168(2) 
O7 O2- 4 a 0.27956(11) 0.22138(5) 0.57055(11) 1 0 0.01044(18) 
O8 O2- 4 a 0.26654(10) 0.30933(6) 0.31927(9) 1 0 0.00936(18) 
O9 O2- 4 a 0.07409(11) 0.46866(6) 0.15273(11) 1 0 0.01076(18) 
O10 O2- 4 a 0.29028(11) 0.57855(5) 0.19818(10) 1 0 0.00894(17) 
O11 O2- 4 a 0.23407(11) 0.52699(6) 0.90078(10) 1 0 0.01074(19) 
O12 O2- 4 a 0.37999(10) 0.43772(5) 0.12022(10) 1 0 0.00883(16) 

loop_
_atom_site_aniso_label
_atom_site_aniso_type_symbol
_atom_site_aniso_U_11
_atom_site_aniso_U_22
_atom_site_aniso_U_33
_atom_site_aniso_U_12
_atom_site_aniso_U_13
_atom_site_aniso_U_23
As1 As5+ 0.00437(3) 0.00356(3) 0.00453(3) 0.00007(3) -0.00035(3) 
-0.00027(3)
As2 As5+ 0.00554(3) 0.00472(4) 0.00447(3) -0.00042(3) 0.00028(3) 0.00036(3)
As3 As5+ 0.00642(4) 0.00336(3) 0.00628(3) -0.00018(3) -0.00018(3) 
-0.00019(3)
K1 K1+ 0.00698(7) 0.01015(8) 0.00797(6) -0.00039(6) 0.00040(5) 0.00102(6)
K2 K1+ 0.00765(8) 0.00734(8) 0.00955(7) 0.00014(6) 0.00017(6) 0.00078(6)
K3 K1+ 0.01516(10) 0.00792(9) 0.01230(8) -0.00147(7) -0.00295(7) 
-0.00020(6)
Al1 Al3+ 0.00487(12) 0.00439(12) 0.00550(10) -0.00023(9) -0.00019(9) 
-0.00024(9)
Al2 Al3+ 0.00592(12) 0.00438(12) 0.00532(10) 0.00071(10) -0.00068(9) 
-0.00031(9)
O1 O2- 0.0078(3) 0.0069(3) 0.0101(3) 0.0029(2) -0.0011(2) -0.0004(2)
O2 O2- 0.0062(3) 0.0094(3) 0.0067(2) -0.0020(2) 0.0017(2) -0.0006(2)
O3 O2- 0.0075(2) 0.0046(2) 0.0072(2) -0.0014(2) -0.0019(2) 0.0005(2)
O4 O2- 0.0078(3) 0.0089(3) 0.0052(2) 0.0016(2) -0.0019(2) -0.0019(2)
O5 O2- 0.0193(4) 0.0088(3) 0.0138(3) 0.0037(3) 0.0083(3) -0.0016(3)
O6 O2- 0.0101(3) 0.0274(5) 0.0130(3) -0.0102(3) -0.0069(3) 0.0108(3)
O7 O2- 0.0121(3) 0.0056(3) 0.0136(3) 0.0006(2) 0.0041(2) 0.0026(2)
O8 O2- 0.0094(3) 0.0144(4) 0.0043(2) -0.0031(3) -0.0001(2) 0.0002(2)
O9 O2- 0.0084(3) 0.0083(3) 0.0155(3) -0.0023(2) 0.0031(2) 0.0001(3)
O10 O2- 0.0131(3) 0.0043(3) 0.0094(3) -0.0018(2) 0.0003(2) -0.0010(2)
O11 O2- 0.0138(3) 0.0121(4) 0.0063(3) 0.0010(3) -0.0004(2) 0.0016(2)
O12 O2- 0.0085(3) 0.0044(3) 0.0136(3) 0.0006(2) -0.0019(2) 0.0002(2)
#End of data_262371-ICSD


