data_97571-ICSD
#?2014 by Fachinformationszentrum Karlsruhe, and the U.S. Secretary of 
#Commerce on behalf of the United States.  All rights reserved.
_database_code_ICSD                97571
_audit_creation_date               2004/10/01
_chemical_name_systematic
;
Pentapotassium Ytterbium Tetrakis(molybdate) - Gamma
;
_chemical_formula_structural       'K5 Yb (Mo O4)4'
_chemical_formula_sum              'K5 Mo4 O16 Yb1'
_publ_section_title
;
Structures of three polymorphs of the complex oxide K5 Yb (Mo O4)4
;
loop_
_citation_id
_citation_journal_abbrev
_citation_year
_citation_journal_volume
_citation_page_first
_citation_page_last
_citation_journal_id_ASTM
primary 'Journal of Solid State Chemistry' 2003 176 76 87 JSSCBI
_publ_author_name
;
Morozov, V.A.;Lazoryak, B.I.;Lebedev, O.I.;Amelinckx, S.;van 
Tendeloo, G.
;
_cell_length_a                     14.8236(1)
_cell_length_b                     12.1293(1)
_cell_length_c                     10.5151(1)
_cell_angle_alpha                  90
_cell_angle_beta                   114.559(1)
_cell_angle_gamma                  90
_cell_volume                       1719.58
_cell_formula_units_Z              4
_symmetry_space_group_name_H-M     'C 1 2/c 1'
_symmetry_Int_Tables_number        15
_refine_ls_R_factor_all            .0121
loop_
_symmetry_equiv_pos_site_id
_symmetry_equiv_pos_as_xyz
  1	'x, -y, z+.5'
  2	'-x, -y, -z'
  3	'-x, y, -z+.5'
  4	'x, y, z'
  5	'x+.5, -y+.5, z+.5'
  6	'-x+.5, -y+.5, -z'
  7	'-x+.5, y+.5, -z+.5'
  8	'x+.5, y+.5, z'
loop_
_atom_type_symbol
_atom_type_oxidation_number
K1+	1
Mo6+	6
O2-	-2
Yb3+	3
loop_
_atom_site_label
_atom_site_type_symbol
_atom_site_symmetry_multiplicity
_atom_site_Wyckoff_symbol
_atom_site_fract_x
_atom_site_fract_y
_atom_site_fract_z
_atom_site_occupancy
_atom_site_attached_hydrogens
_atom_site_B_iso_or_equiv
Yb1 Yb3+ 4 e 0 0.1190(2) 0.250 1. 0 0.98(4) 
K1 K1+ 4 e 0.5 0.1132(7) 0.250 1. 0 3.9(2) 
K2 K1+ 8 f 0.2941(3) 0.3714(6) 0.9320(4) 1. 0 2.7(1) 
K3 K1+ 8 f 0.2841(3) 0.8944(5) 0.9401(5) 1. 0 2.8(2) 
Mo1 Mo6+ 8 f 0.1035(1) 0.3680(2) 0.1550(2) 1. 0 1.15(5) 
O1 O2- 8 f 0.9863(9) 0.4027(11) 0.0753(12) 1. 0 3.7(4) 
O2 O2- 8 f 0.1654(9) 0.4690(9) 0.2752(12) 1. 0 2.3(3) 
O3 O2- 8 f 0.1495(6) 0.3797(12) 0.0305(9) 1. 0 1.9(3) 
O4 O2- 8 f 0.1126(9) 0.2328(8) 0.2327(11) 1. 0 1.3(3) 
Mo2 Mo6+ 8 f 0.0913(1) 0.8667(2) 0.1390(2) 1. 0 0.97(4) 
O5 O2- 8 f 0.9741(8) 0.8216(8) 0.0992(11) 1. 0 0.7(3) 
O6 O2- 8 f 0.1056(6) 0.8914(11) 0.9894(9) 1. 0 2.1(3) 
O7 O2- 8 f 0.0959(9) 0.9839(9) 0.2324(12) 1. 0 3.5(4) 
O8 O2- 8 f 0.1662(8) 0.7649(9) 0.2342(13) 1. 0 1.6(3) 

#End of data_97571-ICSD


