data_420014-ICSD
#?2014 by Fachinformationszentrum Karlsruhe, and the U.S. Secretary of 
#Commerce on behalf of the United States.  All rights reserved.
_database_code_ICSD                420014
_audit_creation_date               2012/08/01
_chemical_name_systematic
;
Disilver Dipotassium Tetraselenogermanate
;
_chemical_formula_structural       'Ag2 K2 (Ge Se4)'
_chemical_formula_sum              'Ag2 Ge1 K2 Se4'
_publ_section_title
;
Mineralizer effect on the synthesis of two types of one-dimensional 
chains silver-selenogermanate and selenostannate
;
loop_
_citation_id
_citation_journal_abbrev
_citation_year
_citation_journal_volume
_citation_page_first
_citation_page_last
_citation_journal_id_ASTM
primary 'Inorganic Chemistry Communications' 2010 13 1296 1298 ICCOFP
_publ_author_name
;
Yao, Hua Gang;Zhang, Ren Chun;Ji, Shou Hua;Ji, Min;An, Yong Lin;Ning, 
Gui Ling
;
_cell_length_a                     6.6129(13)
_cell_length_b                     13.776(3)
_cell_length_c                     21.822(4)
_cell_angle_alpha                  90.
_cell_angle_beta                   90.
_cell_angle_gamma                  90.
_cell_volume                       1987.97
_cell_formula_units_Z              8
_symmetry_space_group_name_H-M     'F d d d Z'
_symmetry_Int_Tables_number        70
_refine_ls_R_factor_all            .0258
loop_
_symmetry_equiv_pos_site_id
_symmetry_equiv_pos_as_xyz
  1	'x+.75, y+.75, -z'
  2	'x+.75, -y, z+.75'
  3	'-x, y+.75, z+.75'
  4	'-x, -y, -z'
  5	'-x+.25, -y+.25, z'
  6	'-x+.25, y, -z+.25'
  7	'x, -y+.25, -z+.25'
  8	'x, y, z'
  9	'x+.75, y+.25, -z+.5'
 10	'x+.25, y+.75, -z+.5'
 11	'x+.25, y+.25, -z'
 12	'x+.75, -y+.5, z+.25'
 13	'x+.25, -y, z+.25'
 14	'x+.25, -y+.5, z+.75'
 15	'-x, y+.25, z+.25'
 16	'-x+.5, y+.75, z+.25'
 17	'-x+.5, y+.25, z+.75'
 18	'-x, -y+.5, -z+.5'
 19	'-x+.5, -y, -z+.5'
 20	'-x+.5, -y+.5, -z'
 21	'-x+.25, -y+.75, z+.5'
 22	'-x+.75, -y+.25, z+.5'
 23	'-x+.75, -y+.75, z'
 24	'-x+.25, y+.5, -z+.75'
 25	'-x+.75, y, -z+.75'
 26	'-x+.75, y+.5, -z+.25'
 27	'x, -y+.75, -z+.75'
 28	'x+.5, -y+.25, -z+.75'
 29	'x+.5, -y+.75, -z+.25'
 30	'x, y+.5, z+.5'
 31	'x+.5, y, z+.5'
 32	'x+.5, y+.5, z'
loop_
_atom_type_symbol
_atom_type_oxidation_number
Ag1+	1
Ge4+	4
K1+	1
Se2-	-2
loop_
_atom_site_label
_atom_site_type_symbol
_atom_site_symmetry_multiplicity
_atom_site_Wyckoff_symbol
_atom_site_fract_x
_atom_site_fract_y
_atom_site_fract_z
_atom_site_occupancy
_atom_site_attached_hydrogens
_atom_site_U_iso_or_equiv
Ge1 Ge4+ 8 a 0.1250 0.1250 0.1250 1 0 0.0137(2) 
Se1 Se2- 32 h -0.07142(8) 0.01932(3) 0.18600(2) 1 0 0.0201(2) 
Ag1 Ag1+ 16 g -0.3750 0.1250 0.20043(4) 1 0 0.0440(3) 
K1 K1+ 16 g 0.1250 0.1250 0.31141(7) 1 0 0.0379(5) 

loop_
_atom_site_aniso_label
_atom_site_aniso_type_symbol
_atom_site_aniso_U_11
_atom_site_aniso_U_22
_atom_site_aniso_U_33
_atom_site_aniso_U_12
_atom_site_aniso_U_13
_atom_site_aniso_U_23
Ge1 Ge4+ 0.0135(5) 0.0129(4) 0.0146(4) 0.000 0.000 0.000
Se1 Se2- 0.0194(3) 0.0183(3) 0.0227(3) 0.00065(19) 0.00549(19) 0.00438(17)
Ag1 Ag1+ 0.0221(4) 0.0382(4) 0.0717(5) 0.0103(3) 0.000 0.000
K1 K1+ 0.0507(12) 0.0398(10) 0.0233(8) 0.0134(9) 0.000 0.000
#End of data_420014-ICSD


