data_27925-ICSD
#?2014 by Fachinformationszentrum Karlsruhe, and the U.S. Secretary of 
#Commerce on behalf of the United States.  All rights reserved.
_database_code_ICSD                27925
_audit_creation_date               1980/01/01
_audit_update_record               2007/04/01
_chemical_name_systematic          'Calcium Divanadium(III) Oxide'
_chemical_formula_structural       'Ca V2 O4'
_chemical_formula_sum              'Ca1 O4 V2'
_publ_section_title
;
Structure des vanadite, chromite et ferrite monocalciques
;
loop_
_citation_id
_citation_journal_abbrev
_citation_year
_citation_journal_volume
_citation_page_first
_citation_page_last
_citation_journal_id_ASTM
primary
;
Bulletin de la Societe Francaise de Mineralogie et de 
Cristallographie (72,1949-100,1977)
;
 1956 79 536 561 BUFCAE
2
;
Comptes Rendus Hebdomadaires des Seances de l`Academie des Sciences 
(1884 - 1965)
;
 1955 241 757 759 COREAF
3 'Rendiconti della Societa Mineralogica Italiana' 1956 12 165 166 RSMIAP
_publ_author_name                  'Bertaut, E.F.;Blum, P.;Magnano, G.'
_cell_length_a                     10.66
_cell_length_b                     9.2
_cell_length_c                     3.01
_cell_angle_alpha                  90.
_cell_angle_beta                   90.
_cell_angle_gamma                  90.
_cell_volume                       295.2
_cell_formula_units_Z              4
_symmetry_space_group_name_H-M     'P b n m'
_symmetry_Int_Tables_number        62
_refine_ls_R_factor_all            .15
loop_
_symmetry_equiv_pos_site_id
_symmetry_equiv_pos_as_xyz
  1	'-x+.5, y+.5, z'
  2	'x, y, -z+.5'
  3	'x+.5, -y+.5, z+.5'
  4	'-x, -y, -z'
  5	'x+.5, -y+.5, -z'
  6	'-x, -y, z+.5'
  7	'-x+.5, y+.5, -z+.5'
  8	'x, y, z'
loop_
_atom_type_symbol
_atom_type_oxidation_number
Ca2+	2
O2-	-2
V3+	3
loop_
_atom_site_label
_atom_site_type_symbol
_atom_site_symmetry_multiplicity
_atom_site_Wyckoff_symbol
_atom_site_fract_x
_atom_site_fract_y
_atom_site_fract_z
_atom_site_occupancy
_atom_site_attached_hydrogens
_atom_site_U_iso_or_equiv
V1 V3+ 4 c 0.109 0.068 0.25 1. 0 0.0049 
V2 V3+ 4 c 0.606 0.077 0.25 1. 0 0.0049 
Ca1 Ca2+ 4 c 0.35 0.242 0.25 1. 0 0.0125 
O1 O2- 4 c 0.648 0.289 0.25 1. 0 0.0484 
O2 O2- 4 c -.016 0.387 0.25 1. 0 0.0484 
O3 O2- 4 c 0.225 0.47 0.25 1. 0 0.0484 
O4 O2- 4 c -.078 0.071 0.25 1. 0 0.0484 

#End of data_27925-ICSD


