data_160678-ICSD
#?2014 by Fachinformationszentrum Karlsruhe, and the U.S. Secretary of 
#Commerce on behalf of the United States.  All rights reserved.
_database_code_ICSD                160678
_audit_creation_date               2009/02/01
_chemical_name_systematic          'Dirubidium Tetrabromozincate'
_chemical_formula_structural       'Rb2 (Zn Br4)'
_chemical_formula_sum              'Br4 Rb2 Zn1'
_publ_section_title
;
A modulated crystal structure in Rb2 Zn X4 (X= Cl, Br) - a neutron 
time-of-flight single-crystal study
;
loop_
_citation_id
_citation_journal_abbrev
_citation_year
_citation_journal_volume
_citation_page_first
_citation_page_last
_citation_journal_id_ASTM
primary 'Measurement science and technology, IOP publishing'
 2008 19 034005-1 034005-5 MSTCEP
_publ_author_name
;
Gutmann, M.J.;Petricek, V.;Daoud-Aladine, M.A.;Martin, C.Y.
;
_cell_length_a                     13.360(4)
_cell_length_b                     7.673(3)
_cell_length_c                     9.712(4)
_cell_angle_alpha                  90.
_cell_angle_beta                   90.
_cell_angle_gamma                  90.
_cell_volume                       995.59
_cell_formula_units_Z              4
_symmetry_space_group_name_H-M     'P c m n'
_symmetry_Int_Tables_number        62
_refine_ls_R_factor_all            .0874
loop_
_symmetry_equiv_pos_site_id
_symmetry_equiv_pos_as_xyz
  1	'-x+.5, y, z+.5'
  2	'x, -y+.5, z'
  3	'x+.5, y+.5, -z+.5'
  4	'-x, -y, -z'
  5	'x+.5, -y, -z+.5'
  6	'-x, y+.5, -z'
  7	'-x+.5, -y+.5, z+.5'
  8	'x, y, z'
loop_
_atom_type_symbol
_atom_type_oxidation_number
Br1-	-1
Rb1+	1
Zn2+	2
loop_
_atom_site_label
_atom_site_type_symbol
_atom_site_symmetry_multiplicity
_atom_site_Wyckoff_symbol
_atom_site_fract_x
_atom_site_fract_y
_atom_site_fract_z
_atom_site_occupancy
_atom_site_attached_hydrogens
_atom_site_U_iso_or_equiv
Rb1 Rb1+ 4 c 0.3234(1) 0.250 0.5153(2) 1. 0 0.0422(6) 
Rb2 Rb1+ 4 c 0.5962(2) 0.250 0.8731(3) 1. 0 0.076(1) 
Zn1 Zn2+ 4 c 0.5776(1) 0.250 0.2747(2) 1. 0 0.0255(6) 
Br1 Br1- 4 c 0.5833(2) 0.250 0.5193(3) 1. 0 0.063(1) 
Br2 Br1- 4 c 0.4128(1) 0.250 0.1805(3) 1. 0 0.056(1) 
Br3 Br1- 8 d 0.6603(2) 0.5005(2) 0.1850(2) 1. 0 0.0629(7) 

loop_
_atom_site_aniso_label
_atom_site_aniso_type_symbol
_atom_site_aniso_U_11
_atom_site_aniso_U_22
_atom_site_aniso_U_33
_atom_site_aniso_U_12
_atom_site_aniso_U_13
_atom_site_aniso_U_23
Rb1 Rb1+ 0.0345(8) 0.0630(11) 0.0292(14) 0. 0.0013(9) 0.
Rb2 Rb1+ 0.1210(21) 0.0733(14) 0.0342(18) 0. -0.0075(16) 0.
Zn1 Zn2+ 0.0243(7) 0.0276(8) 0.0246(14) 0. 0.0003(9) 0.
Br1 Br1- 0.0551(13) 0.1131(21) 0.0221(17) 0. -0.0079(12) 0.
Br2 Br1- 0.0302(9) 0.1029(24) 0.0355(18) 0. -0.0110(10) 0.
Br3 Br1- 0.0926(15) 0.0392(7) 0.0570(15) -0.0301(10) 0.0271(13) -0.0049(8)
#End of data_160678-ICSD


