data_62325-ICSD
#?2014 by Fachinformationszentrum Karlsruhe, and the U.S. Secretary of 
#Commerce on behalf of the United States.  All rights reserved.
_database_code_ICSD                62325
_audit_creation_date               1988/07/15
_audit_update_record               2012/02/01
_chemical_name_systematic          'Magnesium Bis(hydrogensulfate(VI))'
_chemical_formula_structural       'Mg (H S O4)2'
_chemical_formula_sum              'H2 Mg1 O8 S2'
_publ_section_title                'Crystal structure of Mg (H S O4)2'
loop_
_citation_id
_citation_journal_abbrev
_citation_year
_citation_journal_volume
_citation_page_first
_citation_page_last
_citation_journal_id_ASTM
primary Kristallografiya 1986 31 1220 1221 KRISAJ
2 'Soviet Physics, Crystallography (= Kristallografiya)'
 1986 31 721 722 SPHCA6
_publ_author_name
;
Simonov, M.A.;Troyanov, S.I.;Kemnitz, E.;Haas, D.;Kammler, M.
;
_cell_length_a                     7.299(6)
_cell_length_b                     8.273(8)
_cell_length_c                     4.940(3)
_cell_angle_alpha                  90.
_cell_angle_beta                   99.90(6)
_cell_angle_gamma                  90.
_cell_volume                       293.86
_cell_formula_units_Z              2
_symmetry_space_group_name_H-M     'P 1 21/n 1'
_symmetry_Int_Tables_number        14
_refine_ls_R_factor_all            .03
loop_
_symmetry_equiv_pos_site_id
_symmetry_equiv_pos_as_xyz
  1	'-x+.5, y+.5, -z+.5'
  2	'-x, -y, -z'
  3	'x+.5, -y+.5, z+.5'
  4	'x, y, z'
loop_
_atom_type_symbol
_atom_type_oxidation_number
H1+	1
Mg2+	2
O2-	-2
S6+	6
loop_
_atom_site_label
_atom_site_type_symbol
_atom_site_symmetry_multiplicity
_atom_site_Wyckoff_symbol
_atom_site_fract_x
_atom_site_fract_y
_atom_site_fract_z
_atom_site_occupancy
_atom_site_attached_hydrogens
_atom_site_B_iso_or_equiv
Mg1 Mg2+ 2 a 0 0 0 1. 0 0.72(1) 
S1 S6+ 4 e 0.23456(3) 0.17272(3) 0.56458(5) 1. 0 0.67(1) 
O1 O2- 4 e 0.2045(1) 0.8401(1) 0.9251(2) 1. 0 1.22(2) 
O2 O2- 4 e 0.0809(1) 0.1509(1) 0.7114(2) 1. 0 1.19(2) 
O3 O2- 4 e 0.0934(1) 0.5808(1) 0.7787(2) 1. 0 1.55(2) 
O4 O2- 4 e 0.1974(1) 0.1098(1) 0.2885(2) 1. 0 1.42(2) 
H1 H1+ 4 e 0.110(3) 0.500(2) 0.753(3) 1. 0 5.6(6) 

#End of data_62325-ICSD


