data_83533-ICSD
#?2014 by Fachinformationszentrum Karlsruhe, and the U.S. Secretary of 
#Commerce on behalf of the United States.  All rights reserved.
_database_code_ICSD                83533
_audit_creation_date               1998/06/26
_chemical_name_systematic          'Potassium Tecto-alumotrisilicate'
_chemical_formula_structural       'K (Al Si3 O8)'
_chemical_formula_sum              'Al1 K1 O8 Si3'
_chemical_name_mineral             'Microcline (ordered)'
_publ_section_title
;
A high-pressure structural study of microcline (K Al Si3 O8) to 7 GPa
;
loop_
_citation_id
_citation_journal_abbrev
_citation_year
_citation_journal_volume
_citation_page_first
_citation_page_last
_citation_journal_id_ASTM
primary 'European Journal of Mineralogy' 1997 9 263 275 EJMIER
_publ_author_name                  'Allan, D.R.;Angel, R.J.'
_cell_length_a                     8.3722(18)
_cell_length_b                     12.899(3)
_cell_length_c                     7.1328(11)
_cell_angle_alpha                  90.38(2)
_cell_angle_beta                   116.290(12)
_cell_angle_gamma                  87.93(3)
_cell_volume                       690.13
_cell_formula_units_Z              4
_symmetry_space_group_name_H-M     'C -1'
_symmetry_Int_Tables_number        2
_refine_ls_R_factor_all            .074
loop_
_symmetry_equiv_pos_site_id
_symmetry_equiv_pos_as_xyz
  1	'-x, -y, -z'
  2	'x, y, z'
  3	'-x+.5, -y+.5, -z'
  4	'x+.5, y+.5, z'
loop_
_atom_type_symbol
_atom_type_oxidation_number
Al3+	3
K1+	1
O2-	-2
Si4+	4
loop_
_atom_site_label
_atom_site_type_symbol
_atom_site_symmetry_multiplicity
_atom_site_Wyckoff_symbol
_atom_site_fract_x
_atom_site_fract_y
_atom_site_fract_z
_atom_site_occupancy
_atom_site_attached_hydrogens
_atom_site_B_iso_or_equiv
K1 K1+ 4 i 0.2752(5) -.0063(8) 0.1366(5) 1. 0 2.15(10) 
Al1 Al3+ 4 i 0.0024(6) 0.189(1) 0.2171(6) 1. 0 1.32(8) 
Si2 Si4+ 4 i 0.0037(6) 0.8183(10) 0.2286(6) 1. 0 1.40(7) 
Si3 Si4+ 4 i 0.7018(6) 0.1199(9) 0.3394(5) 1. 0 1.27(7) 
Si4 Si4+ 4 i 0.6972(6) 0.8868(9) 0.3476(5) 1. 0 1.38(7) 
O1 O2- 4 i -.0012(14) 0.1437(21) -.0145(14) 1. 0 1.63(18) 
O2 O2- 4 i 0.6230(15) 0.0081(24) 0.2865(14) 1. 0 1.71(18) 
O3 O2- 4 i 0.8066(15) 0.1479(22) 0.2114(14) 1. 0 1.85(19) 
O4 O2- 4 i 0.8201(16) 0.8611(22) 0.2270(14) 1. 0 2.45(22) 
O5 O2- 4 i 0.0240(17) 0.3189(25) 0.2548(15) 1. 0 2.14(20) 
O6 O2- 4 i 0.0289(15) 0.6932(24) 0.2731(15) 1. 0 1.68(18) 
O7 O2- 4 i 0.1856(16) 0.1234(23) 0.4065(14) 1. 0 2.0(2) 
O8 O2- 4 i 0.1758(16) 0.8742(22) 0.4122(14) 1. 0 1.83(18) 

#End of data_83533-ICSD


