data_279616-ICSD
#?2014 by Fachinformationszentrum Karlsruhe, and the U.S. Secretary of 
#Commerce on behalf of the United States.  All rights reserved.
_database_code_ICSD                279616
_audit_creation_date               2002/10/01
_chemical_name_systematic
;
Potassium Lanthanum Hexathiodiphosphate(IV)
;
_chemical_formula_structural       'K La (P2 S6)'
_chemical_formula_sum              'K1 La1 P2 S6'
_publ_section_title
;
Thiophosphate phase diagrams developed in conjunction with the 
synthesis of the new compounds K La P2 S6, K2 La (P2 S6)1/2 (P S4), 
K3 La (P S4)2, K4 La0.67 (P S4)2, K9-x La1+x/3 (P S4)4 (x = 0.5), K4 
Eu (P S4)2, and K Eu P S4
;
loop_
_citation_id
_citation_journal_abbrev
_citation_year
_citation_journal_volume
_citation_page_first
_citation_page_last
_citation_journal_id_ASTM
primary 'Inorganic Chemistry' 2001 40 2884 2891 INOCAJ
_publ_author_name                  'Evenson, C.R.IV.;Dorhout, P.K.'
_cell_length_a                     11.963(12)
_cell_length_b                     7.525(10)
_cell_length_c                     11.389(14)
_cell_angle_alpha                  90.
_cell_angle_beta                   109.88(4)
_cell_angle_gamma                  90.
_cell_volume                       964.16
_cell_formula_units_Z              4
_symmetry_space_group_name_H-M     'P 1 21/c 1'
_symmetry_Int_Tables_number        14
_refine_ls_R_factor_all            .0583
loop_
_symmetry_equiv_pos_site_id
_symmetry_equiv_pos_as_xyz
  1	'x, -y+.5, z+.5'
  2	'-x, -y, -z'
  3	'-x, y+.5, -z+.5'
  4	'x, y, z'
loop_
_atom_type_symbol
_atom_type_oxidation_number
K1+	1
La3+	3
P4+	4
S2-	-2
loop_
_atom_site_label
_atom_site_type_symbol
_atom_site_symmetry_multiplicity
_atom_site_Wyckoff_symbol
_atom_site_fract_x
_atom_site_fract_y
_atom_site_fract_z
_atom_site_occupancy
_atom_site_attached_hydrogens
La1 La3+ 4 e 0.65048(6) 0.10599(9) 0.90374(7) 1. 0 
P1 P4+ 4 e 0.7921(3) 0.1184(4) 0.2341(3) 1. 0 
P2 P4+ 4 e 0.3258(3) 0.1015(4) 0.7530(3) 1. 0 
K1 K1+ 4 e 0.1291(2) 0.0921(4) 0.3744(3) 1. 0 
S1 S2- 4 e 0.6765(3) 0.1927(4) 0.6396(3) 1. 0 
S2 S2- 4 e 0.4439(3) -.0152(4) 0.6828(3) 1. 0 
S3 S2- 4 e 0.8875(3) 0.0233(4) 0.1341(3) 1. 0 
S4 S2- 4 e 0.4090(3) 0.1867(4) 0.9311(3) 1. 0 
S5 S2- 4 e 0.8738(3) 0.2968(4) 0.9104(3) 1. 0 
S6 S2- 4 e 0.7801(3) -.2131(4) 0.8570(3) 1. 0 

loop_
_atom_site_aniso_label
_atom_site_aniso_type_symbol
_atom_site_aniso_U_11
_atom_site_aniso_U_22
_atom_site_aniso_U_33
_atom_site_aniso_U_12
_atom_site_aniso_U_13
_atom_site_aniso_U_23
La1 La3+ 0.0089(4) 0.0093(4) 0.0076(4) -.0001(3) 0.0026(3) 0.0002(3)
P1 P4+ 0.008(2) 0.0092(15) 0.0073(15) -.0013(13) 0.0023(13) -.0004(13)
P2 P4+ 0.008(2) 0.0083(15) 0.009(2) 0.0012(14) 0.0030(13) 0.0004(14)
K1 K1+ 0.014(2) 0.0158(14) 0.0139(15) 0.0020(12) 0.0044(12) 0.0005(12)
S1 S2- 0.013(2) 0.0102(15) 0.0080(15) -.0012(13) 0.0023(13) -.0005(13)
S2 S2- 0.012(2) 0.013(2) 0.010(2) -.0019(13) 0.0049(14) -.0041(13)
S3 S2- 0.013(2) 0.013(2) 0.009(2) 0.0006(13) 0.0055(13) 0.0008(13)
S4 S2- 0.011(2) 0.0126(15) 0.008(2) -.0033(13) 0.0028(13) -.0034(13)
S5 S2- 0.010(2) 0.015(2) 0.010(2) -.0009(13) 0.0032(13) 0.0022(13)
S6 S2- 0.013(2) 0.009(2) 0.013(2) 0.0004(13) 0.0036(14) -.0049(13)
#End of data_279616-ICSD


