data_93954-ICSD
#?2014 by Fachinformationszentrum Karlsruhe, and the U.S. Secretary of 
#Commerce on behalf of the United States.  All rights reserved.
_database_code_ICSD                93954
_audit_creation_date               2003/04/01
_chemical_name_systematic          'Aluminium Phosphate(V)'
_chemical_formula_structural       'Al (P O4)'
_chemical_formula_sum              'Al1 O4 P1'
_publ_section_title
;
An effective harmonic potential for aluminophosphate molecular sieves 
: application to Al P O4-5
;
loop_
_citation_id
_citation_journal_abbrev
_citation_year
_citation_journal_volume
_citation_page_first
_citation_page_last
_citation_journal_id_ASTM
primary 'Microporous and Mesoporous Materials' 2001 42 103 111 MIMMFJ
_publ_author_name
;
Demontis, P.;Gulin Gonzalez, J.;Suffritti, G.B.;Tilocca, A.;de las 
Pozas, C.
;
_cell_length_a                     13.794
_cell_length_b                     23.900
_cell_length_c                     8.417
_cell_angle_alpha                  90
_cell_angle_beta                   90
_cell_angle_gamma                  90
_cell_volume                       2774.89
_cell_formula_units_Z              24
_symmetry_space_group_name_H-M     'P c c 2'
_symmetry_Int_Tables_number        27
loop_
_symmetry_equiv_pos_site_id
_symmetry_equiv_pos_as_xyz
  1	'-x, y, z+.5'
  2	'x, -y, z+.5'
  3	'-x, -y, z'
  4	'x, y, z'
loop_
_atom_type_symbol
_atom_type_oxidation_number
Al3+	3
O2-	-2
P5+	5
loop_
_atom_site_label
_atom_site_type_symbol
_atom_site_symmetry_multiplicity
_atom_site_Wyckoff_symbol
_atom_site_fract_x
_atom_site_fract_y
_atom_site_fract_z
_atom_site_occupancy
_atom_site_attached_hydrogens
_atom_site_B_iso_or_equiv
P1 P5+ 4 e 0.28629 0.16551 0.13279 1. 0 2.6 
P2 P5+ 4 e 0.60824 0.06029 0.13272 1. 0 2.8 
P3 P5+ 4 e 0.10503 0.77378 0.13278 1. 0 3.9 
P4 P5+ 4 e 0.78612 0.66550 0.13284 1. 0 4.6 
P5 P5+ 4 e 0.10826 0.56036 0.13202 1. 0 3.3 
P6 P5+ 4 e 0.60498 0.27376 0.13284 1. 0 3.4 
Al1 Al3+ 4 e 0.28628 0.16771 0.50613 1. 0 3.0 
Al2 Al3+ 4 e 0.60493 0.05920 0.50615 1. 0 3.0 
Al3 Al3+ 4 e 0.10839 0.77268 0.50621 1. 0 4.2 
Al4 Al3+ 4 e 0.78613 0.66773 0.50613 1. 0 5.0 
Al5 Al3+ 4 e 0.10492 0.55925 0.50625 1. 0 3.7 
Al6 Al3+ 4 e 0.60827 0.27269 0.50608 1. 0 3.8 
O1 O2- 4 e 0.31863 0.10938 0.07773 1. 0 4.0 
O2 O2- 4 e 0.28593 0.16649 0.30851 1. 0 5.7 
O3 O2- 4 e 0.18672 0.17739 0.07360 1. 0 4.5 
O4 O2- 4 e 0.35399 0.20910 0.07316 1. 0 5.2 
O5 O2- 4 e 0.67624 0.10451 0.07723 1. 0 4.6 
O6 O2- 4 e 0.60673 0.05980 0.30850 1. 0 5.8 
O7 O2- 4 e 0.64046 0.00456 0.07431 1. 0 4.6 
O8 O2- 4 e 0.50908 0.07218 0.07253 1. 0 5.1 
O9 O2- 4 e 0.00467 0.78585 0.07744 1. 0 5.2 
O10 O2- 4 e 0.10658 0.77299 0.30859 1. 0 6.8 
O11 O2- 4 e 0.17273 0.81779 0.07471 1. 0 6.0 
O12 O2- 4 e 0.13658 0.71830 0.07181 1. 0 6.1 
O13 O2- 4 e 0.81849 0.60936 0.07759 1. 0 6.0 
O14 O2- 4 e 0.78559 0.66648 0.30858 1. 0 7.6 
O15 O2- 4 e 0.68660 0.67738 0.07467 1. 0 6.3 
O16 O2- 4 e 0.85387 0.70910 0.07329 1. 0 7.2 
O17 O2- 4 e 0.17642 0.60452 0.07737 1. 0 5.0 
O18 O2- 4 e 0.10673 0.55987 0.30859 1. 0 6.6 
O19 O2- 4 e 0.14032 0.50456 0.07416 1. 0 5.2 
O20 O2- 4 e 0.00909 0.57236 0.07254 1. 0 5.6 
O21 O2- 4 e 0.50473 0.28589 0.07738 1. 0 4.8 
O22 O2- 4 e 0.60639 0.27304 0.30852 1. 0 6.2 
O23 O2- 4 e 0.67271 0.31773 0.07496 1. 0 5.6 
O24 O2- 4 e 0.63650 0.21827 0.07285 1. 0 5.6 

#End of data_93954-ICSD


