data_202148-ICSD
#?2014 by Fachinformationszentrum Karlsruhe, and the U.S. Secretary of 
#Commerce on behalf of the United States.  All rights reserved.
_database_code_ICSD                202148
_audit_creation_date               1988/12/19
_audit_update_record               1999/06/02
_chemical_name_systematic
;
Dicalcium Copper Tetrahydroxide Bis(boron Tetrahydroxide)
;
_chemical_formula_structural       'Ca2 Cu (O H)4 (B (O H)4)2'
_chemical_formula_sum              'H12 B2 Ca2 Cu1 O12'
_chemical_name_mineral             Henmilite
_publ_section_title
;
Henmilite, Ca2 Cu (O H)4 (B (O H)4)2, a new mineral from Fuka, 
Okayama Prefecture, Japan.
;
loop_
_citation_id
_citation_journal_abbrev
_citation_year
_citation_journal_volume
_citation_page_first
_citation_page_last
_citation_journal_id_ASTM
primary 'American Mineralogist' 1986 71 1234 1239 AMMIAY
_publ_author_name
;
Nakai, I.;Okada, H.;Masutomi, K.;Koyama, E.;Nagashima, K.
;
_cell_length_a                     5.7617(5)
_cell_length_b                     7.9774(6)
_cell_length_c                     5.6488(4)
_cell_angle_alpha                  109.611(6)
_cell_angle_beta                   91.473(7)
_cell_angle_gamma                  83.686(7)
_cell_volume                       243.08
_cell_formula_units_Z              1
_symmetry_space_group_name_H-M     'P -1'
_symmetry_Int_Tables_number        2
_refine_ls_R_factor_all            .026
loop_
_symmetry_equiv_pos_site_id
_symmetry_equiv_pos_as_xyz
  1	'-x, -y, -z'
  2	'x, y, z'
loop_
_atom_type_symbol
_atom_type_oxidation_number
B3+	3
Ca2+	2
Cu2+	2
H1+	1
O2-	-2
loop_
_atom_site_label
_atom_site_type_symbol
_atom_site_symmetry_multiplicity
_atom_site_Wyckoff_symbol
_atom_site_fract_x
_atom_site_fract_y
_atom_site_fract_z
_atom_site_occupancy
_atom_site_attached_hydrogens
_atom_site_B_iso_or_equiv
Ca1 Ca2+ 2 i 0.50791(6) 0.24095(4) 0.22595(6) 1. 0 0 
Cu1 Cu2+ 1 a 0 0 0 1. 0 0 
B1 B3+ 2 i 0.2790(3) 0.4068(2) 0.7480(4) 1. 0 0 
O1 O2- 2 i 0.3061(2) -.0192(2) 0.1455(3) 1. 0 0 
O2 O2- 2 i 0.8404(2) 0.0684(2) 0.3239(3) 1. 0 0 
O3 O2- 2 i 0.2467(2) 0.2907(2) 0.8972(3) 1. 0 0 
O4 O2- 2 i 0.1523(2) 0.3538(2) 0.5106(3) 1. 0 0 
O5 O2- 2 i 0.7879(2) 0.4055(2) 0.0978(3) 1. 0 0 
O6 O2- 2 i 0.5261(2) 0.3983(2) 0.6742(3) 1. 0 0 
H1 H1+ 2 i 0.705(5) 0.040(4) 0.735(5) 1. 0 0.5(5) 
H2 H1+ 2 i 0.923 0.065 0.427 1. 0 2.0(5) 
H3 H1+ 2 i 0.226(6) 0.194(5) 0.828(7) 1. 0 3.4(9) 
H4 H1+ 2 i 0.043 0.418 0.526 1. 0 2.0(9) 
H5 H1+ 2 i 0.904 0.385 0.058 1. 0 2.0(9) 
H6 H1+ 2 i 0.619(5) 0.387(4) 0.768(6) 1. 0 1.5(6) 

#End of data_202148-ICSD


