data_407224-ICSD
#?2014 by Fachinformationszentrum Karlsruhe, and the U.S. Secretary of 
#Commerce on behalf of the United States.  All rights reserved.
_database_code_ICSD                407224
_audit_creation_date               1998/06/26
_audit_update_record               2012/02/01
_chemical_name_systematic          'Potassium Ytterbium Carbonate'
_chemical_formula_structural       'K Yb (C O3)2'
_chemical_formula_sum              'C2 K1 O6 Yb1'
_publ_section_title
;
Kalium-Lanthanoid-Carbonate, K M (C O3)2 (M= Nd, Gd, Dy, Ho, Yb)
;
loop_
_citation_id
_citation_journal_abbrev
_citation_year
_citation_journal_volume
_citation_page_first
_citation_page_last
_citation_journal_id_ASTM
primary 'Zeitschrift fuer Anorganische und Allgemeine Chemie (1950) (DE)'
 1997 623 1753 1758 ZAACAB
_publ_author_name
;
Kutlu, I.;Kalz, H.J.;Wartchow, R.;Ehrhardt, H.;Seidel, H.;Meyer, G.
;
_cell_length_a                     8.4680(12)
_cell_length_b                     9.381(2)
_cell_length_c                     6.8812(10)
_cell_angle_alpha                  90.
_cell_angle_beta                   110.760(11)
_cell_angle_gamma                  90.
_cell_volume                       511.14
_cell_formula_units_Z              4
_symmetry_space_group_name_H-M     'C 1 2/c 1'
_symmetry_Int_Tables_number        15
_refine_ls_R_factor_all            .0258
loop_
_symmetry_equiv_pos_site_id
_symmetry_equiv_pos_as_xyz
  1	'x, -y, z+.5'
  2	'-x, -y, -z'
  3	'-x, y, -z+.5'
  4	'x, y, z'
  5	'x+.5, -y+.5, z+.5'
  6	'-x+.5, -y+.5, -z'
  7	'-x+.5, y+.5, -z+.5'
  8	'x+.5, y+.5, z'
loop_
_atom_type_symbol
_atom_type_oxidation_number
C4+	4
K1+	1
O2-	-2
Yb3+	3
loop_
_atom_site_label
_atom_site_type_symbol
_atom_site_symmetry_multiplicity
_atom_site_Wyckoff_symbol
_atom_site_fract_x
_atom_site_fract_y
_atom_site_fract_z
_atom_site_occupancy
_atom_site_attached_hydrogens
K1 K1+ 4 e 0.5 0.6177(3) 0.25 1. 0 
Yb1 Yb3+ 4 e 0 0.59614(3) 0.25 1. 0 
C1 C4+ 8 f 0.2311(9) 0.3765(9) 0.2518(12) 1. 0 
O1 O2- 8 f 0.2632(5) 0.4805(5) 0.3803(8) 1. 0 
O2 O2- 8 f 0.0830(7) 0.3797(5) 0.1015(9) 1. 0 
O3 O2- 8 f 0.3302(7) 0.2732(6) 0.2722(9) 1. 0 

loop_
_atom_site_aniso_label
_atom_site_aniso_type_symbol
_atom_site_aniso_U_11
_atom_site_aniso_U_22
_atom_site_aniso_U_33
_atom_site_aniso_U_12
_atom_site_aniso_U_13
_atom_site_aniso_U_23
K1 K1+ 0.0089(10) 0.0185(10) 0.0223(13) 0 0.0034(9) 0
Yb1 Yb3+ 0.0034(3) 0.0079(3) 0.0075(3) 0 -.0001(2) 0
C1 C4+ 0.008(3) 0.006(2) 0.015(4) 0.002(2) 0.005(3) -.001(2)
O1 O2- 0.006(2) 0.019(3) 0.015(2) -.001(2) 0.000(2) -.005(2)
O2 O2- 0.007(2) 0.015(2) 0.010(3) 0.002(2) 0.001(2) -.002(2)
O3 O2- 0.017(2) 0.019(3) 0.027(3) 0.012(2) 0.000(2) -.002(2)
#End of data_407224-ICSD


