data_652228-ICSD
#?2014 by Fachinformationszentrum Karlsruhe, and the U.S. Secretary of 
#Commerce on behalf of the United States.  All rights reserved.
_database_code_ICSD                652228
_audit_creation_date               2008/07/07
_audit_update_record               2009/08/01
_chemical_name_systematic          'Zinc Selenide'
_chemical_formula_structural       'Zn Se'
_chemical_formula_sum              'Se1 Zn1'
_chemical_name_mineral             Stilleite
_publ_section_title
;
Ueber feste Loesungen in den Systemen Zn S-Mn S, Zn Se-Mn Se und Zn 
Te-Mn Te
;
loop_
_citation_id
_citation_journal_abbrev
_citation_year
_citation_journal_volume
_citation_page_first
_citation_page_last
_citation_journal_id_ASTM
primary 'Zeitschrift fuer Anorganische und Allgemeine Chemie (1950) (DE)'
 1956 285 61 69 ZAACAB
_publ_author_name                  'Juza, R.;Rabenau, A.;Pascher, G.'
_cell_length_a                     5.650
_cell_length_b                     5.650
_cell_length_c                     5.650
_cell_angle_alpha                  90.0
_cell_angle_beta                   90.0
_cell_angle_gamma                  90.0
_cell_volume                       180.36
_cell_formula_units_Z              4
_symmetry_space_group_name_H-M     'F -4 3 m'
_symmetry_Int_Tables_number        216
loop_
_symmetry_equiv_pos_site_id
_symmetry_equiv_pos_as_xyz
  1	'-z, -y, x'
  2	'-y, -x, z'
  3	'-x, -z, y'
  4	'-z, -x, y'
  5	'-y, -z, x'
  6	'-x, -y, z'
  7	'-z, y, -x'
  8	'-y, x, -z'
  9	'-x, z, -y'
 10	'-z, x, -y'
 11	'-y, z, -x'
 12	'-x, y, -z'
 13	'z, -y, -x'
 14	'y, -x, -z'
 15	'x, -z, -y'
 16	'z, -x, -y'
 17	'y, -z, -x'
 18	'x, -y, -z'
 19	'z, y, x'
 20	'y, x, z'
 21	'x, z, y'
 22	'z, x, y'
 23	'y, z, x'
 24	'x, y, z'
 25	'-z, -y+.5, x+.5'
 26	'-z+.5, -y, x+.5'
 27	'-z+.5, -y+.5, x'
 28	'-y, -x+.5, z+.5'
 29	'-y+.5, -x, z+.5'
 30	'-y+.5, -x+.5, z'
 31	'-x, -z+.5, y+.5'
 32	'-x+.5, -z, y+.5'
 33	'-x+.5, -z+.5, y'
 34	'-z, -x+.5, y+.5'
 35	'-z+.5, -x, y+.5'
 36	'-z+.5, -x+.5, y'
 37	'-y, -z+.5, x+.5'
 38	'-y+.5, -z, x+.5'
 39	'-y+.5, -z+.5, x'
 40	'-x, -y+.5, z+.5'
 41	'-x+.5, -y, z+.5'
 42	'-x+.5, -y+.5, z'
 43	'-z, y+.5, -x+.5'
 44	'-z+.5, y, -x+.5'
 45	'-z+.5, y+.5, -x'
 46	'-y, x+.5, -z+.5'
 47	'-y+.5, x, -z+.5'
 48	'-y+.5, x+.5, -z'
 49	'-x, z+.5, -y+.5'
 50	'-x+.5, z, -y+.5'
 51	'-x+.5, z+.5, -y'
 52	'-z, x+.5, -y+.5'
 53	'-z+.5, x, -y+.5'
 54	'-z+.5, x+.5, -y'
 55	'-y, z+.5, -x+.5'
 56	'-y+.5, z, -x+.5'
 57	'-y+.5, z+.5, -x'
 58	'-x, y+.5, -z+.5'
 59	'-x+.5, y, -z+.5'
 60	'-x+.5, y+.5, -z'
 61	'z, -y+.5, -x+.5'
 62	'z+.5, -y, -x+.5'
 63	'z+.5, -y+.5, -x'
 64	'y, -x+.5, -z+.5'
 65	'y+.5, -x, -z+.5'
 66	'y+.5, -x+.5, -z'
 67	'x, -z+.5, -y+.5'
 68	'x+.5, -z, -y+.5'
 69	'x+.5, -z+.5, -y'
 70	'z, -x+.5, -y+.5'
 71	'z+.5, -x, -y+.5'
 72	'z+.5, -x+.5, -y'
 73	'y, -z+.5, -x+.5'
 74	'y+.5, -z, -x+.5'
 75	'y+.5, -z+.5, -x'
 76	'x, -y+.5, -z+.5'
 77	'x+.5, -y, -z+.5'
 78	'x+.5, -y+.5, -z'
 79	'z, y+.5, x+.5'
 80	'z+.5, y, x+.5'
 81	'z+.5, y+.5, x'
 82	'y, x+.5, z+.5'
 83	'y+.5, x, z+.5'
 84	'y+.5, x+.5, z'
 85	'x, z+.5, y+.5'
 86	'x+.5, z, y+.5'
 87	'x+.5, z+.5, y'
 88	'z, x+.5, y+.5'
 89	'z+.5, x, y+.5'
 90	'z+.5, x+.5, y'
 91	'y, z+.5, x+.5'
 92	'y+.5, z, x+.5'
 93	'y+.5, z+.5, x'
 94	'x, y+.5, z+.5'
 95	'x+.5, y, z+.5'
 96	'x+.5, y+.5, z'
loop_
_atom_type_symbol
_atom_type_oxidation_number
Se2-	-2
Zn2+	2
loop_
_atom_site_label
_atom_site_type_symbol
_atom_site_symmetry_multiplicity
_atom_site_Wyckoff_symbol
_atom_site_fract_x
_atom_site_fract_y
_atom_site_fract_z
_atom_site_occupancy
_atom_site_attached_hydrogens
Se1 Se2- 4 a 0 0 0 1 0 
Zn1 Zn2+ 4 c 0.25 0.25 0.25 1 0 

#End of data_652228-ICSD


