data_92773-ICSD
#?2014 by Fachinformationszentrum Karlsruhe, and the U.S. Secretary of 
#Commerce on behalf of the United States.  All rights reserved.
_database_code_ICSD                92773
_audit_creation_date               2003/04/01
_chemical_name_systematic          'Dicalcium Magnesium Disilicate'
_chemical_formula_structural       'Ca2 Mg (Si2 O7)'
_chemical_formula_sum              'Ca2 Mg1 O7 Si2'
_chemical_name_mineral             Melilite
_publ_section_title
;
Five-dimensional structure refinement of natural melilite, (Ca1.89 
Sr0.01 Na0.08 K0.02) (Mg0.92 Al0.08) (Si1.98 Al0.02) O7
;
loop_
_citation_id
_citation_journal_abbrev
_citation_year
_citation_journal_volume
_citation_page_first
_citation_page_last
_citation_journal_id_ASTM
primary 'Acta Crystallographica, Section B: Structural Science'
 2001 57 739 746 ASBSDK
_publ_author_name
;
Bindi, L.;Bonazzi, P.;Dusek, M.;Petricek, V.;Chapuis, G.
;
_cell_length_a                     7.860(1)
_cell_length_b                     7.860(1)
_cell_length_c                     5.024(1)
_cell_angle_alpha                  90
_cell_angle_beta                   90
_cell_angle_gamma                  90
_cell_volume                       310.38
_cell_formula_units_Z              2
_symmetry_space_group_name_H-M     'P -4 21 m'
_symmetry_Int_Tables_number        113
_refine_ls_R_factor_all            .031
loop_
_symmetry_equiv_pos_site_id
_symmetry_equiv_pos_as_xyz
  1	'-y+.5, -x+.5, z'
  2	'y, -x, -z'
  3	'y+.5, x+.5, z'
  4	'-y, x, -z'
  5	'x+.5, -y+.5, -z'
  6	'-x, -y, z'
  7	'-x+.5, y+.5, -z'
  8	'x, y, z'
loop_
_atom_type_symbol
_atom_type_oxidation_number
Ca2+	2
Mg2+	2
O2-	-2
Si4+	4
loop_
_atom_site_label
_atom_site_type_symbol
_atom_site_symmetry_multiplicity
_atom_site_Wyckoff_symbol
_atom_site_fract_x
_atom_site_fract_y
_atom_site_fract_z
_atom_site_occupancy
_atom_site_attached_hydrogens
_atom_site_U_iso_or_equiv
Ca1 Ca2+ 4 e 0.331662(18) 0.168338(18) 0.50694(4) 1. 0 0.01483(3) 
Mg1 Mg2+ 2 a 0 0 0 1. 0 0.00910(6) 
Si1 Si4+ 4 e 0.13991(2) 0.36009(2) 0.93538(5) 1. 0 0.00825(3) 
O1 O2- 2 c 0 0.5 0.8193(2) 1. 0 0.01582(18) 
O2 O2- 4 e 0.14059(8) 0.35941(8) 0.25434(14) 1. 0 0.01657(12) 
O3 O2- 8 f 0.08282(9) 0.18624(7) 0.78834(10) 1. 0 0.01612(13) 

loop_
_atom_site_aniso_label
_atom_site_aniso_type_symbol
_atom_site_aniso_U_11
_atom_site_aniso_U_22
_atom_site_aniso_U_33
_atom_site_aniso_U_12
_atom_site_aniso_U_13
_atom_site_aniso_U_23
Ca1 Ca2+ 0.01628(6) 0.01628(6) 0.01192(5) 0.00577(6) 0.00166(3) -0.00166(3)
Mg1 Mg2+ 0.00829(10) 0.00829(10) 0.01073(14) 0. 0. 0.
Si1 Si4+ 0.00821(5) 0.00821(5) 0.00833(7) 0.00086(7) 0.00001(4) -0.00001(4)
O1 O2- 0.0183(3) 0.0183(3) 0.0108(3) 0.0104(4) 0. 0.
O2 O2- 0.0205(2) 0.0205(2) 0.0087(2) 0.0059(3) -0.00134(14) 0.00134(14)
O3 O2- 0.0233(3) 0.01018(18) 0.01485(18) -0.0050(2) 0.00508(18) 
-0.00104(15)
#End of data_92773-ICSD


