data_150688-ICSD
#?2014 by Fachinformationszentrum Karlsruhe, and the U.S. Secretary of 
#Commerce on behalf of the United States.  All rights reserved.
_database_code_ICSD                150688
_audit_creation_date               2006/04/01
_chemical_name_systematic          'Lithium Molybdenum(III) Disulfide'
_chemical_formula_structural       'Li Mo S2'
_chemical_formula_sum              'Li1 Mo1 S2'
_publ_section_title
;
Synergetic theoretical and experimental structure determination of 
nanocrystalline materials: study of Li Mo S2
;
loop_
_citation_id
_citation_journal_abbrev
_citation_year
_citation_journal_volume
_citation_page_first
_citation_page_last
_citation_journal_id_ASTM
primary 'Journal of Solid State Chemistry' 2003 175 380 383 JSSCBI
_publ_author_name
;
Rocquefelte, X.;Bouessay, I.;Boucher, F.;Gressier, P.;Ouvrard, G.
;
_cell_length_a                     6.862
_cell_length_b                     6.812
_cell_length_c                     6.296
_cell_angle_alpha                  89.97
_cell_angle_beta                   90.28
_cell_angle_gamma                  121.42
_cell_volume                       251.14
_cell_formula_units_Z              4
_symmetry_space_group_name_H-M     'P -1'
_symmetry_Int_Tables_number        2
loop_
_symmetry_equiv_pos_site_id
_symmetry_equiv_pos_as_xyz
  1	'-x, -y, -z'
  2	'x, y, z'
loop_
_atom_type_symbol
_atom_type_oxidation_number
Li1+	1
Mo3+	3
S2-	-2
loop_
_atom_site_label
_atom_site_type_symbol
_atom_site_symmetry_multiplicity
_atom_site_Wyckoff_symbol
_atom_site_fract_x
_atom_site_fract_y
_atom_site_fract_z
_atom_site_occupancy
_atom_site_attached_hydrogens
Mo1 Mo3+ 2 i 0.943 0.751 0.504 1. 0 
Mo2 Mo3+ 2 i 0.492 0.702 0.500 1. 0 
S1 S2- 2 i 0.656 0.587 0.773 1. 0 
S2 S2- 2 i 0.183 0.077 0.746 1. 0 
S3 S2- 2 i 0.678 0.087 0.698 1. 0 
S4 S2- 2 i 0.153 0.583 0.718 1. 0 
Li1 Li1+ 2 i 0.010 0.750 0.022 1. 0 
Li2 Li1+ 2 i 0.482 0.772 0.989 1. 0 

#End of data_150688-ICSD


