data_651412-ICSD
#?2014 by Fachinformationszentrum Karlsruhe, and the U.S. Secretary of 
#Commerce on behalf of the United States.  All rights reserved.
_database_code_ICSD                651412
_audit_creation_date               2013/08/01
_chemical_name_systematic          'Yttrium Zinc Sulfide (2/1/4)'
_chemical_formula_structural       'Y2 Zn S4'
_chemical_formula_sum              'S4 Y2 Zn1'
_publ_section_title
;
Synthesis and properties of chalcolanthanides of zinc with Zn Ln2 
S4(Se4) type
;
loop_
_citation_id
_citation_journal_abbrev
_citation_year
_citation_journal_volume
_citation_journal_issue
_citation_page_first
_citation_page_last
_citation_journal_id_ASTM
primary 'Doklady Akademii Nauk Azerbaidzhanskoi SSR' 1988 44 11 41 43 DAZRA7
_publ_author_name
;
Agaev, A.B.;Rustamov, P.G.;Mamedova, L.M.
;
_cell_length_a                     13.21
_cell_length_b                     7.68
_cell_length_c                     6.25
_cell_angle_alpha                  90.0
_cell_angle_beta                   90.0
_cell_angle_gamma                  90.0
_cell_volume                       634.08
_cell_formula_units_Z              4
_symmetry_space_group_name_H-M     'P n m a'
_symmetry_Int_Tables_number        62
loop_
_symmetry_equiv_pos_site_id
_symmetry_equiv_pos_as_xyz
  1	'x+.5, y, -z+.5'
  2	'x, -y+.5, z'
  3	'-x+.5, y+.5, z+.5'
  4	'-x, -y, -z'
  5	'-x+.5, -y, z+.5'
  6	'-x, y+.5, -z'
  7	'x+.5, -y+.5, -z+.5'
  8	'x, y, z'
loop_
_atom_type_symbol
_atom_type_oxidation_number
S2-	-2
Y3+	3
Zn2+	2
loop_
_atom_site_label
_atom_site_type_symbol
_atom_site_symmetry_multiplicity
_atom_site_Wyckoff_symbol
_atom_site_fract_x
_atom_site_fract_y
_atom_site_fract_z
_atom_site_occupancy
_atom_site_attached_hydrogens
Zn1 Zn2+ 4 c 0.096 0.25 0.420 1. 0 
Y1 Y3+ 4 a 0 0 0 1. 0 
Y2 Y3+ 4 c 0.266 0.25 0.997 1. 0 
S1 S2- 4 c 0.091 0.25 0.779 1. 0 
S2 S2- 4 c 0.424 0.25 0.245 1. 0 
S3 S2- 8 d 0.166 0.008 0.239 1. 0 

#End of data_651412-ICSD


