data_173939-ICSD
#?2014 by Fachinformationszentrum Karlsruhe, and the U.S. Secretary of 
#Commerce on behalf of the United States.  All rights reserved.
_database_code_ICSD                173939
_audit_creation_date               2010/02/01
_chemical_name_systematic          'Potassium Manganese Chloride'
_chemical_formula_structural       'K Mn Cl3'
_chemical_formula_sum              'Cl3 K1 Mn1'
_publ_section_title
;
Polytypism in K Mn Cl3, neutron diffraction study of the distorted-
perovskite-structure compound
;
loop_
_citation_id
_citation_journal_abbrev
_citation_year
_citation_journal_volume
_citation_journal_issue
_citation_page_first
_citation_page_last
_citation_journal_id_ASTM
primary 'Physical Review, Serie 3. B - Condensed Matter (18,1978-)'
 1982 25 8 5220 5229 PRBMDO
_publ_author_name
;
Gurewitz, E.;Melamud, M.;Horowitz, A.;Shaked, H.
;
_cell_length_a                     6.98
_cell_length_b                     7.08
_cell_length_c                     9.97
_cell_angle_alpha                  90.
_cell_angle_beta                   90.
_cell_angle_gamma                  90.
_cell_volume                       492.7
_cell_formula_units_Z              4
_symmetry_space_group_name_H-M     'P b n m'
_symmetry_Int_Tables_number        62
_refine_ls_R_factor_all            .023
loop_
_symmetry_equiv_pos_site_id
_symmetry_equiv_pos_as_xyz
  1	'-x+.5, y+.5, z'
  2	'x, y, -z+.5'
  3	'x+.5, -y+.5, z+.5'
  4	'-x, -y, -z'
  5	'x+.5, -y+.5, -z'
  6	'-x, -y, z+.5'
  7	'-x+.5, y+.5, -z+.5'
  8	'x, y, z'
loop_
_atom_type_symbol
_atom_type_oxidation_number
Cl1-	-1
K1+	1
Mn2+	2
loop_
_atom_site_label
_atom_site_type_symbol
_atom_site_symmetry_multiplicity
_atom_site_Wyckoff_symbol
_atom_site_fract_x
_atom_site_fract_y
_atom_site_fract_z
_atom_site_occupancy
_atom_site_attached_hydrogens
Mn1 Mn2+ 4 b 0 0.5 0 1. 0 
K1 K1+ 4 c -0.02(1) 0.04(1) 0.25 1. 0 
Cl1 Cl1- 4 c 0.06(1) 0.50(1) 0.25 1. 0 
Cl2 Cl1- 8 d 0.70(1) 0.29(1) 0.04(1) 1. 0 

#End of data_173939-ICSD


