data_16751-ICSD
#?2014 by Fachinformationszentrum Karlsruhe, and the U.S. Secretary of 
#Commerce on behalf of the United States.  All rights reserved.
_database_code_ICSD                16751
_audit_creation_date               1980/01/01
_audit_update_record               2002/04/01
_chemical_name_systematic          'Strontium Tetraaluminium Oxide'
_chemical_formula_structural       '(Sr O) (Al2 O3)2'
_chemical_formula_sum              'Al4 O7 Sr1'
_publ_section_title
;
The optical properties and structures of Ca O (Al2 O3) and Ca O (Al2 
O3)2
;
loop_
_citation_id
_citation_journal_abbrev
_citation_year
_citation_journal_volume
_citation_page_first
_citation_page_last
_citation_journal_id_ASTM
primary 'Acta Crystallographica (1,1948-23,1967)' 1958 11 444 445 ACCRA9
_publ_author_name                  'Boyko, Z.R.;Wisnyi, L.G.'
_cell_length_a                     13.04
_cell_length_b                     9.01
_cell_length_c                     5.55
_cell_angle_alpha                  90.
_cell_angle_beta                   106.502
_cell_angle_gamma                  90.
_cell_volume                       625.21
_cell_formula_units_Z              4
_symmetry_space_group_name_H-M     'C 1 2/c 1'
_symmetry_Int_Tables_number        15
_refine_ls_R_factor_all            .22
loop_
_symmetry_equiv_pos_site_id
_symmetry_equiv_pos_as_xyz
  1	'x, -y, z+.5'
  2	'-x, -y, -z'
  3	'-x, y, -z+.5'
  4	'x, y, z'
  5	'x+.5, -y+.5, z+.5'
  6	'-x+.5, -y+.5, -z'
  7	'-x+.5, y+.5, -z+.5'
  8	'x+.5, y+.5, z'
loop_
_atom_type_symbol
_atom_type_oxidation_number
Al3+	3
O2-	-2
Sr2+	2
loop_
_atom_site_label
_atom_site_type_symbol
_atom_site_symmetry_multiplicity
_atom_site_Wyckoff_symbol
_atom_site_fract_x
_atom_site_fract_y
_atom_site_fract_z
_atom_site_occupancy
_atom_site_attached_hydrogens
Sr1 Sr2+ 4 e 0 0.81 0.25 1. 0 
Al1 Al3+ 8 f 0.169 0.086 0.295 1. 0 
Al2 Al3+ 8 f 0.122 0.441 0.257 1. 0 
O1 O2- 4 e 0 0.526 0.25 1. 0 
O2 O2- 8 f 0.117 0.048 0.544 1. 0 
O3 O2- 8 f 0.127 0.26 0.175 1. 0 
O4 O2- 8 f 0.188 0.447 0.598 1. 0 

#End of data_16751-ICSD


