data_404478-ICSD
#?2014 by Fachinformationszentrum Karlsruhe, and the U.S. Secretary of 
#Commerce on behalf of the United States.  All rights reserved.
_database_code_ICSD                404478
_audit_creation_date               1996/10/14
_audit_update_record               2000/07/15
_chemical_name_systematic
;
Trialuminium Europium Dilead Octaoxide
;
_chemical_formula_structural       'Al3 Eu Pb2 O8'
_chemical_formula_sum              'Al3 Eu1 O8 Pb2'
_publ_section_title
;
Synthese und Kristallstruktur von Pb2 Ln Al3 O8 (Ln= Eu, Gd)
;
loop_
_citation_id
_citation_journal_abbrev
_citation_year
_citation_journal_volume
_citation_page_first
_citation_page_last
_citation_journal_id_ASTM
primary 'Zeitschrift fuer Naturforschung, B: Chemical Sciences'
 1996 51 883 887 ZNBSEN
_publ_author_name                  'Mueller Buschbaum, H.;Werner, J.P.'
_cell_length_a                     9.4578(5)
_cell_length_b                     9.4578(5)
_cell_length_c                     9.4578(5)
_cell_angle_alpha                  90.
_cell_angle_beta                   90.
_cell_angle_gamma                  90.
_cell_volume                       846
_cell_formula_units_Z              4
_symmetry_space_group_name_H-M     'P n -3 m Z'
_symmetry_Int_Tables_number        224
_refine_ls_R_factor_all            .0778
loop_
_symmetry_equiv_pos_site_id
_symmetry_equiv_pos_as_xyz
  1	'-y, x+.5, z+.5'
  2	'y+.5, x+.5, -z'
  3	'y+.5, -x, z+.5'
  4	'-y, -x, -z'
  5	'-z, x+.5, y+.5'
  6	'z+.5, x+.5, -y'
  7	'z+.5, -x, y+.5'
  8	'-z, -x, -y'
  9	'z+.5, -y, x+.5'
 10	'-z, y+.5, x+.5'
 11	'z+.5, y+.5, -x'
 12	'-z, -y, -x'
 13	'y+.5, -z, x+.5'
 14	'-y, z+.5, x+.5'
 15	'y+.5, z+.5, -x'
 16	'-y, -z, -x'
 17	'x+.5, z+.5, -y'
 18	'x+.5, -z, y+.5'
 19	'-x, z+.5, y+.5'
 20	'-x, -z, -y'
 21	'x+.5, y+.5, -z'
 22	'x+.5, -y, z+.5'
 23	'-x, y+.5, z+.5'
 24	'-x, -y, -z'
 25	'y, -x+.5, -z+.5'
 26	'-y+.5, -x+.5, z'
 27	'-y+.5, x, -z+.5'
 28	'y, x, z'
 29	'z, -x+.5, -y+.5'
 30	'-z+.5, -x+.5, y'
 31	'-z+.5, x, -y+.5'
 32	'z, x, y'
 33	'-z+.5, y, -x+.5'
 34	'z, -y+.5, -x+.5'
 35	'-z+.5, -y+.5, x'
 36	'z, y, x'
 37	'-y+.5, z, -x+.5'
 38	'y, -z+.5, -x+.5'
 39	'-y+.5, -z+.5, x'
 40	'y, z, x'
 41	'-x+.5, -z+.5, y'
 42	'-x+.5, z, -y+.5'
 43	'x, -z+.5, -y+.5'
 44	'x, z, y'
 45	'-x+.5, -y+.5, z'
 46	'-x+.5, y, -z+.5'
 47	'x, -y+.5, -z+.5'
 48	'x, y, z'
loop_
_atom_type_symbol
_atom_type_oxidation_number
Al3+	3
Eu3+	3
O2-	-2
Pb2+	2
loop_
_atom_site_label
_atom_site_type_symbol
_atom_site_symmetry_multiplicity
_atom_site_Wyckoff_symbol
_atom_site_fract_x
_atom_site_fract_y
_atom_site_fract_z
_atom_site_occupancy
_atom_site_attached_hydrogens
Pb1 Pb2+ 8 e 0.38342(2) 0.38342(2) 0.38342(2) 1. 0 
Eu1 Eu3+ 4 b 0.5 0.5 0 1. 0 
Al1 Al3+ 12 f 0.25 0.75 0 1. 0 
O1 O2- 8 e 0.8572(4) 0.8572(4) 0.8572(4) 1. 0 
O2 O2- 24 k 0.2379(6) 0.5938(3) 0.5938(3) 1. 0 

loop_
_atom_site_aniso_label
_atom_site_aniso_type_symbol
_atom_site_aniso_U_11
_atom_site_aniso_U_22
_atom_site_aniso_U_33
_atom_site_aniso_U_12
_atom_site_aniso_U_13
_atom_site_aniso_U_23
Pb1 Pb2+ 0.01792(5) 0.01792(5) 0.01792(5) 0.00038(6) 0.00038(6) 0.00038(6)
Eu1 Eu3+ 0.01285(8) 0.01285(8) 0.01285(8) -.00229(10) 0.00229(10) 
0.00229(10)
Al1 Al3+ 0.0094(4) 0.0094(4) 0.0051(6) -.0006(6) 0 0
O1 O2- 0.0169(10) 0.0169(10) 0.0169(10) -.0012(13) -.0012(13) -.0012(13)
O2 O2- 0.048(2) 0.020(1) 0.020(1) -.0068(14) -.0068(14) 0.0118(14)
#End of data_404478-ICSD


