data_202158-ICSD
#?2014 by Fachinformationszentrum Karlsruhe, and the U.S. Secretary of 
#Commerce on behalf of the United States.  All rights reserved.
_database_code_ICSD                202158
_audit_creation_date               1988/12/19
_audit_update_record               2006/04/01
_chemical_name_systematic          'Potassium Oxotitanium Arsenate(V)'
_chemical_formula_structural       'K (Ti O) (As O4)'
_chemical_formula_sum              'As1 K1 O5 Ti1'
_publ_section_title
;
Structure et proprietes d'optique non lineaire de K Ti O As O4
;
loop_
_citation_id
_citation_journal_abbrev
_citation_year
_citation_journal_volume
_citation_page_first
_citation_page_last
_citation_journal_id_ASTM
primary 'Revue de Chimie Minerale' 1986 23 146 153 RVCMA8
2 'Golden Book of Phase Transitions, Wroclaw' 2002 1 1 123 GBOPT5
_publ_author_name                  'El Brahimi, M.;Durand, J.'
_cell_length_a                     13.103(2)
_cell_length_b                     10.746(1)
_cell_length_c                     6.558(1)
_cell_angle_alpha                  90.
_cell_angle_beta                   90.
_cell_angle_gamma                  90.
_cell_volume                       923.4
_cell_formula_units_Z              8
_symmetry_space_group_name_H-M     'P n 21 a'
_symmetry_Int_Tables_number        33
_refine_ls_R_factor_all            .03
loop_
_symmetry_equiv_pos_site_id
_symmetry_equiv_pos_as_xyz
  1	'x+.5, y, -z+.5'
  2	'-x+.5, y+.5, z+.5'
  3	'-x, y+.5, -z'
  4	'x, y, z'
loop_
_atom_type_symbol
_atom_type_oxidation_number
As5+	5
K1+	1
O2-	-2
Ti4+	4
loop_
_atom_site_label
_atom_site_type_symbol
_atom_site_symmetry_multiplicity
_atom_site_Wyckoff_symbol
_atom_site_fract_x
_atom_site_fract_y
_atom_site_fract_z
_atom_site_occupancy
_atom_site_attached_hydrogens
K1 K1+ 4 a 0.3771(4) 0.3136(6) 0.7799(6) 1. 0 
K2 K1+ 4 a 0.1081(3) 0.0689(6) 0.6996(7) 1. 0 
Ti1 Ti4+ 4 a 0.3750(1) 0 0.5066(7) 1. 0 
Ti2 Ti4+ 4 a 0.2464(3) 0.2484(6) 0.2697(5) 1. 0 
As1 As5+ 4 a 0.4980(2) 0.2575(6) 0.3288(2) 1. 0 
As2 As5+ 4 a 0.1809(1) 0.5104(5) 0.5071(4) 1. 0 
O1 O2- 4 a 0.4868(12) 0.1447(14) 0.4935(32) 1. 0 
O2 O2- 4 a 0.5065(12) 0.3916(14) 0.4711(34) 1. 0 
O3 O2- 4 a 0.3921(10) 0.2781(16) 0.1792(22) 1. 0 
O4 O2- 4 a 0.5973(10) 0.2388(16) 0.1756(24) 1. 0 
O5 O2- 4 a 0.2174(12) 0.3880(14) 0.0539(32) 1. 0 
O6 O2- 4 a 0.2192(12) 0.6382(14) -.0419(32) 1. 0 
O7 O2- 4 a 0.1084(11) 0.5451(15) 0.3010(26) 1. 0 
O8 O2- 4 a 0.1081(11) 0.4823(16) 0.7043(29) 1. 0 
O9 O2- 4 a 0.2609(13) 0.6337(14) 0.5415(31) 1. 0 
O10 O2- 4 a 0.2591(14) 0.3896(15) 0.4627(30) 1. 0 

#End of data_202158-ICSD


