data_8011-ICSD
#?2014 by Fachinformationszentrum Karlsruhe, and the U.S. Secretary of 
#Commerce on behalf of the United States.  All rights reserved.
_database_code_ICSD                8011
_audit_creation_date               1980/01/01
_chemical_name_systematic          'Silver Carbonate'
_chemical_formula_structural       'Ag2 C O3'
_chemical_formula_sum              'C1 Ag2 O3'
_publ_section_title
;
Structure du carbonate d'argent
;
loop_
_citation_id
_citation_journal_abbrev
_citation_year
_citation_journal_volume
_citation_page_first
_citation_page_last
_citation_journal_id_ASTM
primary 'Acta Crystallographica B (24,1968-38,1982)' 1979 35 1428 1429 ACBCAR
_publ_author_name                  'Masse, R.;Guitel, J.C.;Durif, A.'
_cell_length_a                     4.852(4)
_cell_length_b                     9.553(8)
_cell_length_c                     3.255(4)
_cell_angle_alpha                  90.
_cell_angle_beta                   91.96
_cell_angle_gamma                  90.
_cell_volume                       150.78
_cell_formula_units_Z              2
_symmetry_space_group_name_H-M     'P 1 21/m 1'
_symmetry_Int_Tables_number        11
_refine_ls_R_factor_all            .05
loop_
_symmetry_equiv_pos_site_id
_symmetry_equiv_pos_as_xyz
  1	'x, -y+.5, z'
  2	'-x, -y, -z'
  3	'-x, y+.5, -z'
  4	'x, y, z'
loop_
_atom_type_symbol
_atom_type_oxidation_number
Ag1+	1
C4+	4
O2-	-2
loop_
_atom_site_label
_atom_site_type_symbol
_atom_site_symmetry_multiplicity
_atom_site_Wyckoff_symbol
_atom_site_fract_x
_atom_site_fract_y
_atom_site_fract_z
_atom_site_occupancy
_atom_site_attached_hydrogens
Ag1 Ag1+ 4 f 0.2109(2) 0.0781(1) 0.2191(2) 1. 0 
O1 O2- 2 e -.018(2) 0.25 0.889(3) 1. 0 
O2 O2- 4 f 0.390(1) 0.6342(7) 0.334(2) 1. 0 
C1 C4+ 2 e 0.270(3) 0.75 0.261(4) 1. 0 

#End of data_8011-ICSD


