data_77542-ICSD
#?2014 by Fachinformationszentrum Karlsruhe, and the U.S. Secretary of 
#Commerce on behalf of the United States.  All rights reserved.
_database_code_ICSD                77542
_audit_creation_date               2003/04/01
_chemical_name_systematic          'Dialuminium Silicate Oxide'
_chemical_formula_structural       'Al2 (Si O4) O'
_chemical_formula_sum              'Al2 O5 Si1'
_chemical_name_mineral             Kyanite
_publ_section_title
;
High-pressure behavior of kyanite: Compressibility and structural 
deformations
;
loop_
_citation_id
_citation_journal_abbrev
_citation_year
_citation_journal_volume
_citation_page_first
_citation_page_last
_citation_journal_id_ASTM
primary 'American Mineralogist' 1997 82 452 459 AMMIAY
_publ_author_name
;
Comodi, P.;Zanazzi, P.F.;Poli, S.;Schmidt, M.W.
;
_cell_length_a                     7.063(5)
_cell_length_b                     7.784(3)
_cell_length_c                     5.525(2)
_cell_angle_alpha                  90.13(3)
_cell_angle_beta                   101.17(5)
_cell_angle_gamma                  105.86(5)
_cell_volume                       286.17
_cell_formula_units_Z              4
_symmetry_space_group_name_H-M     'P -1'
_symmetry_Int_Tables_number        2
_refine_ls_R_factor_all            .08
loop_
_symmetry_equiv_pos_site_id
_symmetry_equiv_pos_as_xyz
  1	'-x, -y, -z'
  2	'x, y, z'
loop_
_atom_type_symbol
_atom_type_oxidation_number
Al3+	3
O2-	-2
Si4+	4
loop_
_atom_site_label
_atom_site_type_symbol
_atom_site_symmetry_multiplicity
_atom_site_Wyckoff_symbol
_atom_site_fract_x
_atom_site_fract_y
_atom_site_fract_z
_atom_site_occupancy
_atom_site_attached_hydrogens
_atom_site_U_iso_or_equiv
Si1 Si4+ 2 i 0.298(2) 0.0655(8) 0.7069(9) 1. 0 0.003(1) 
Si2 Si4+ 2 i 0.294(2) 0.3325(8) 0.1897(9) 1. 0 0.003(1) 
Al1 Al3+ 2 i 0.326(3) 0.705(1) 0.458(1) 1. 0 0.006(1) 
Al2 Al3+ 2 i 0.295(2) 0.6989(9) 0.950(1) 1. 0 0.006(1) 
Al3 Al3+ 2 i 0.102(2) 0.3879(9) 0.641(1) 1. 0 0.001(1) 
Al4 Al3+ 2 i 0.110(2) 0.9144(8) 0.16318 1. 0 0.001(1) 
O1 O2- 2 i 0.119(5) 0.150(2) 0.134(2) 1. 0 0.002(3) 
O2 O2- 2 i 0.116(6) 0.680(2) 0.181(2) 1. 0 0.001(3) 
O3 O2- 2 i 0.280(5) 0.455(2) 0.953(1) 1. 0 0.002(3) 
O4 O2- 2 i 0.278(5) 0.934(2) 0.937(2) 1. 0 0.001(3) 
O5 O2- 2 i 0.119(6) 0.155(2) 0.667(2) 1. 0 0.002(3) 
O6 O2- 2 i 0.121(5) 0.633(2) 0.640(2) 1. 0 0.001(3) 
O7 O2- 2 i 0.287(5) 0.447(2) 0.429(2) 1. 0 0.001(3) 
O8 O2- 2 i 0.291(5) 0.946(2) 0.462(2) 1. 0 0.003(3) 
O9 O2- 2 i 0.511(6) 0.273(2) 0.247(2) 1. 0 0.005(3) 
O10 O2- 2 i 0.511(7) 0.237(2) 0.758(2) 1. 0 0.005(3) 

#End of data_77542-ICSD


