data_262321-ICSD
#?2014 by Fachinformationszentrum Karlsruhe, and the U.S. Secretary of 
#Commerce on behalf of the United States.  All rights reserved.
_database_code_ICSD                262321
_audit_creation_date               2012/08/01
_chemical_name_systematic          'Dibarium Calcium Tungstate'
_chemical_formula_structural       'Ba2 Ca W O6'
_chemical_formula_sum              'Ba2 Ca1 O6 W1'
_publ_section_title
;
Structures of ordered tungsten- or molybdenum-containing quaternary 
perovskite oxides
;
loop_
_citation_id
_citation_journal_abbrev
_citation_year
_citation_journal_volume
_citation_journal_issue
_citation_page_first
_citation_page_last
_citation_journal_id_ASTM
primary 'Journal of Solid State Chemistry' 2012 185 1 107 116 JSSCBI
_publ_author_name
;
Day, B.E.;Bley, N.D.;Jones, H.R.;McCullough, R.M.;Eng, H.W.;Porter, 
S.H.;Woodward, P.M.;Barnes, P.W.
;
_cell_length_a                     5.9374(3)
_cell_length_b                     5.9374(3)
_cell_length_c                     8.4015(7)
_cell_angle_alpha                  90.
_cell_angle_beta                   90.
_cell_angle_gamma                  90.
_cell_volume                       296.18
_cell_formula_units_Z              2
_symmetry_space_group_name_H-M     'I 4/m'
_symmetry_Int_Tables_number        87
_refine_ls_R_factor_all            .0427
loop_
_symmetry_equiv_pos_site_id
_symmetry_equiv_pos_as_xyz
  1	'-y, x, -z'
  2	'y, -x, -z'
  3	'x, y, -z'
  4	'-x, -y, -z'
  5	'y, -x, z'
  6	'-y, x, z'
  7	'-x, -y, z'
  8	'x, y, z'
  9	'-y+.5, x+.5, -z+.5'
 10	'y+.5, -x+.5, -z+.5'
 11	'x+.5, y+.5, -z+.5'
 12	'-x+.5, -y+.5, -z+.5'
 13	'y+.5, -x+.5, z+.5'
 14	'-y+.5, x+.5, z+.5'
 15	'-x+.5, -y+.5, z+.5'
 16	'x+.5, y+.5, z+.5'
loop_
_atom_type_symbol
_atom_type_oxidation_number
Ba2+	2
Ca2+	2
O2-	-2
W6+	6
loop_
_atom_site_label
_atom_site_type_symbol
_atom_site_symmetry_multiplicity
_atom_site_Wyckoff_symbol
_atom_site_fract_x
_atom_site_fract_y
_atom_site_fract_z
_atom_site_occupancy
_atom_site_attached_hydrogens
_atom_site_U_iso_or_equiv
Ba1 Ba2+ 4 d 0 0.5 0.25 1. 0 0.0081(2) 
Ca1 Ca2+ 2 a 0 0 0 1. 0 0.0056(3) 
W1 W6+ 2 b 0.5 0.5 0 1. 0 0.0040(3) 
O1 O2- 4 e 0 0 0.2733(6) 1. 0 0.019(2) 
O2 O2- 8 h 0.2619(4) 0.2793(5) 0 1. 0 0.016(2) 

loop_
_atom_site_aniso_label
_atom_site_aniso_type_symbol
_atom_site_aniso_U_11
_atom_site_aniso_U_22
_atom_site_aniso_U_33
_atom_site_aniso_U_12
_atom_site_aniso_U_13
_atom_site_aniso_U_23
O1 O2- 0.019(2) 0.019(2) 0.003(2) 0.0000 0.0000 0.0000
O2 O2- 0.016(2) 0.019(2) 0.016(2) -0.012(1) 0.0000 0.0000
#End of data_262321-ICSD


