data_247736-ICSD
#?2014 by Fachinformationszentrum Karlsruhe, and the U.S. Secretary of 
#Commerce on behalf of the United States.  All rights reserved.
_database_code_ICSD                247736
_audit_creation_date               2013/08/01
_chemical_name_systematic          'Lithium Niobate(V)'
_chemical_formula_structural       'Li Nb O3'
_chemical_formula_sum              'Li1 Nb1 O3'
_publ_section_title
;
Correlated thermal motion in ferroelectric Li Nb O3 studied using 
neutron total scattering and a Rietveld analysis
;
loop_
_citation_id
_citation_journal_abbrev
_citation_year
_citation_journal_volume
_citation_journal_issue
_citation_page_first
_citation_page_last
_citation_journal_id_ASTM
primary 'Journal of the Korean Physical Society' 2011 59 4 2756 2759 JKPSDV
_publ_author_name                  'Jeong, I.K.;Park, S.'
_cell_length_a                     5.49661(5)
_cell_length_b                     5.49661(5)
_cell_length_c                     5.49661(5)
_cell_angle_alpha                  55.953
_cell_angle_beta                   55.953
_cell_angle_gamma                  55.953
_cell_volume                       106.42
_cell_formula_units_Z              2
_symmetry_space_group_name_H-M     'R 3 c R'
_symmetry_Int_Tables_number        161
_refine_ls_R_factor_all            .0162
loop_
_symmetry_equiv_pos_site_id
_symmetry_equiv_pos_as_xyz
  1	'z+.5, y+.5, x+.5'
  2	'z, x, y'
  3	'x+.5, z+.5, y+.5'
  4	'y, z, x'
  5	'y+.5, x+.5, z+.5'
  6	'x, y, z'
loop_
_atom_type_symbol
_atom_type_oxidation_number
Li1+	1
Nb5+	5
O2-	-2
loop_
_atom_site_label
_atom_site_type_symbol
_atom_site_symmetry_multiplicity
_atom_site_Wyckoff_symbol
_atom_site_fract_x
_atom_site_fract_y
_atom_site_fract_z
_atom_site_occupancy
_atom_site_attached_hydrogens
_atom_site_U_iso_or_equiv
Li1 Li1+ 2 a 0.0499(2) 0.0499(2) 0.0499(2) 1. 0 0.0192(6) 
Nb1 Nb5+ 2 a 0.2710(1) 0.2710(1) 0.2710(1) 1. 0 0.0039(1) 
O1 O2- 6 b 0.6288(2) 0.3825(2) 0.9924(1) 1. 0 0.0071(1) 

#End of data_247736-ICSD


