data_261371-ICSD
#?2014 by Fachinformationszentrum Karlsruhe, and the U.S. Secretary of 
#Commerce on behalf of the United States.  All rights reserved.
_database_code_ICSD                261371
_audit_creation_date               2011/08/01
_chemical_name_systematic          'Sodium Iridium(V) Trioxide'
_chemical_formula_structural       'Na Ir O3'
_chemical_formula_sum              'Ir1 Na1 O3'
_publ_section_title
;
Na Ir O3 - A pentavalent post-perovskite
;
loop_
_citation_id
_citation_journal_abbrev
_citation_year
_citation_journal_volume
_citation_journal_issue
_citation_page_first
_citation_page_last
_citation_journal_id_ASTM
primary 'Journal of Solid State Chemistry' 2011 184 3 601 607 JSSCBI
_publ_author_name
;
Bremholm, M.;Dutton, S.E.;Stephens, P.W.;Cava, R.J.
;
_cell_length_a                     3.03968(3)
_cell_length_b                     10.3576(12)
_cell_length_c                     7.1766(3)
_cell_angle_alpha                  90.
_cell_angle_beta                   90.
_cell_angle_gamma                  90.
_cell_volume                       225.95
_cell_formula_units_Z              4
_symmetry_space_group_name_H-M     'C m c m'
_symmetry_Int_Tables_number        63
_refine_ls_R_factor_all            .05
loop_
_symmetry_equiv_pos_site_id
_symmetry_equiv_pos_as_xyz
  1	'-x, y, -z+.5'
  2	'-x, -y, z+.5'
  3	'-x, y, z'
  4	'-x, -y, -z'
  5	'x, -y, z+.5'
  6	'x, y, -z+.5'
  7	'x, -y, -z'
  8	'x, y, z'
  9	'-x+.5, y+.5, -z+.5'
 10	'-x+.5, -y+.5, z+.5'
 11	'-x+.5, y+.5, z'
 12	'-x+.5, -y+.5, -z'
 13	'x+.5, -y+.5, z+.5'
 14	'x+.5, y+.5, -z+.5'
 15	'x+.5, -y+.5, -z'
 16	'x+.5, y+.5, z'
loop_
_atom_type_symbol
_atom_type_oxidation_number
Ir5+	5
Na1+	1
O2-	-2
loop_
_atom_site_label
_atom_site_type_symbol
_atom_site_symmetry_multiplicity
_atom_site_Wyckoff_symbol
_atom_site_fract_x
_atom_site_fract_y
_atom_site_fract_z
_atom_site_occupancy
_atom_site_attached_hydrogens
_atom_site_B_iso_or_equiv
Na1 Na1+ 4 c 0 0.2507(8) 0.25 1. 0 1.8(2) 
Ir1 Ir5+ 4 a 0 0 0 1. 0 0.39(3) 
O1 O2- 4 c 0.5 0.43766(10) 0.25 1. 0 0.35(18) 
O2 O2- 8 f 0.5 0.10159(6) 0.0568(10) 1. 0 0.35(18) 

#End of data_261371-ICSD


