data_12131-ICSD
#?2014 by Fachinformationszentrum Karlsruhe, and the U.S. Secretary of 
#Commerce on behalf of the United States.  All rights reserved.
_database_code_ICSD                12131
_audit_creation_date               1980/01/01
_audit_update_record               2006/04/01
_chemical_name_systematic          'Calcium Titanium Silicate Oxide'
_chemical_formula_structural       'Ca Ti (Si O4) O'
_chemical_formula_sum              'Ca1 O5 Si1 Ti1'
_chemical_name_mineral             Titanite
_publ_section_title
;
The crystal structure of synthetic titanite, Ca Ti O Si O4, and the 
domain textures of natural titanites
;
loop_
_citation_id
_citation_journal_abbrev
_citation_year
_citation_journal_volume
_citation_page_first
_citation_page_last
_citation_journal_id_ASTM
primary 'American Mineralogist' 1976 61 238 247 AMMIAY
_publ_author_name                  'Speer, J.A.;Gibbs, G.V.'
_cell_length_a                     7.069(2)
_cell_length_b                     8.722(5)
_cell_length_c                     6.566(8)
_cell_angle_alpha                  90.
_cell_angle_beta                   113.86(2)
_cell_angle_gamma                  90.
_cell_volume                       370.23
_cell_formula_units_Z              4
_symmetry_space_group_name_H-M     'P 1 21/a 1'
_symmetry_Int_Tables_number        14
_refine_ls_R_factor_all            .043
loop_
_symmetry_equiv_pos_site_id
_symmetry_equiv_pos_as_xyz
  1	'x+.5, -y+.5, z'
  2	'-x, -y, -z'
  3	'-x+.5, y+.5, -z'
  4	'x, y, z'
loop_
_atom_type_symbol
_atom_type_oxidation_number
Ca2+	2
O2-	-2
Si4+	4
Ti4+	4
loop_
_atom_site_label
_atom_site_type_symbol
_atom_site_symmetry_multiplicity
_atom_site_Wyckoff_symbol
_atom_site_fract_x
_atom_site_fract_y
_atom_site_fract_z
_atom_site_occupancy
_atom_site_attached_hydrogens
Ca1 Ca2+ 4 e 0.2424(2) 0.9184(1) 0.7512(2) 1. 0 
Ti1 Ti4+ 4 e 0.5134(1) 0.7542(1) 0.2495(1) 1. 0 
Si1 Si4+ 4 e 0.7486(2) 0.9330(1) 0.7490(2) 1. 0 
O1 O2- 4 e 0.7499(6) 0.8202(4) 0.2502(7) 1. 0 
O2 O2- 4 e 0.9108(6) 0.8162(4) 0.9347(6) 1. 0 
O3 O2- 4 e 0.3827(5) 0.9608(4) 0.1459(6) 1. 0 
O4 O2- 4 e 0.9122(6) 0.3165(4) 0.4368(6) 1. 0 
O5 O2- 4 e 0.3813(5) 0.4601(4) 0.6468(6) 1. 0 

#End of data_12131-ICSD


