data_73550-ICSD
#?2014 by Fachinformationszentrum Karlsruhe, and the U.S. Secretary of 
#Commerce on behalf of the United States.  All rights reserved.
_database_code_ICSD                73550
_audit_creation_date               1994/06/30
_chemical_name_systematic          'Hexapotassium Digermanate'
_chemical_formula_structural       'K6 (Ge2 O7)'
_chemical_formula_sum              'Ge2 K6 O7'
_publ_section_title
;
Synthesis and structure of a potassium nitridoditungstenate 
(K6W2N4O3), a potassium digermanate (K6Ge2O7) and a rubidium 
digermanate (Rb6Ge2O7)
;
loop_
_citation_id
_citation_journal_abbrev
_citation_year
_citation_journal_volume
_citation_page_first
_citation_page_last
_citation_journal_id_ASTM
primary 'Journal of Alloys and Compounds' 1993 200 211 215 JALCEU
_publ_author_name                  'Monz, M.;Ostermann, D.;Jacobs, H.'
_cell_length_a                     6.529(2)
_cell_length_b                     9.079(4)
_cell_length_c                     9.162(6)
_cell_angle_alpha                  90.
_cell_angle_beta                   91.85(4)
_cell_angle_gamma                  90.
_cell_volume                       542.81
_cell_formula_units_Z              2
_symmetry_space_group_name_H-M     'P 1 n 1'
_symmetry_Int_Tables_number        7
_refine_ls_R_factor_all            .022
loop_
_symmetry_equiv_pos_site_id
_symmetry_equiv_pos_as_xyz
  1	'x+.5, -y, z+.5'
  2	'x, y, z'
loop_
_atom_type_symbol
_atom_type_oxidation_number
Ge4+	4
K1+	1
O2-	-2
loop_
_atom_site_label
_atom_site_type_symbol
_atom_site_symmetry_multiplicity
_atom_site_Wyckoff_symbol
_atom_site_fract_x
_atom_site_fract_y
_atom_site_fract_z
_atom_site_occupancy
_atom_site_attached_hydrogens
_atom_site_B_iso_or_equiv
Ge1 Ge4+ 2 a 0.95 0.38839(6) 0.629 1. 0 1.005(7) 
Ge2 Ge4+ 2 a 0.05029(8) 0.11148(6) 0.37141(6) 1. 0 0.945(7) 
K1 K1+ 2 a 0.2554(2) 0.2748(1) 0.0459(2) 1. 0 1.73(2) 
K2 K1+ 2 a 0.2500(2) 0.7743(2) 0.4574(1) 1. 0 1.74(2) 
K3 K1+ 2 a 0.3900(2) 0.4011(2) 0.4191(2) 1. 0 2.42(2) 
K4 K1+ 2 a 0.1078(3) 0.9005(2) 0.0823(2) 1. 0 2.77(3) 
K5 K1+ 2 a 0.8825(2) 0.4660(2) 0.2784(2) 1. 0 1.99(2) 
K6 K1+ 2 a 0.6200(2) 0.9696(2) 0.2236(1) 1. 0 2.32(2) 
O1 O2- 2 a 0.0574(8) 0.2496(7) 0.5104(7) 1. 0 3.2(1) 
O2 O2- 2 a 0.0571(8) 0.3321(6) 0.7922(6) 1. 0 2.59(9) 
O3 O2- 2 a 0.9578(8) 0.1677(5) 0.2006(4) 1. 0 1.86(7) 
O4 O2- 2 a 0.6909(8) 0.3966(6) 0.6103(7) 1. 0 3.5(1) 
O5 O2- 2 a 0.3139(7) 0.0753(6) 0.3562(6) 1. 0 2.9(1) 
O6 O2- 2 a 0.5747(7) 0.4584(5) 0.0679(6) 1. 0 2.11(8) 
O7 O2- 2 a 0.4266(7) 0.0436(5) 0.9394(5) 1. 0 2.09(8) 

#End of data_73550-ICSD


