data_201880-ICSD
#?2014 by Fachinformationszentrum Karlsruhe, and the U.S. Secretary of 
#Commerce on behalf of the United States.  All rights reserved.
_database_code_ICSD                201880
_audit_creation_date               1986/04/14
_chemical_name_systematic          'Disodium Thorium Phosphate'
_chemical_formula_structural       'Na2 Th (P O4)2'
_chemical_formula_sum              'Na2 O8 P2 Th1'
_publ_section_title
;
The Crystal Structure of Disodium Thorium Bisphosphate, Na2 Th (P 
O4)2
;
loop_
_citation_id
_citation_journal_abbrev
_citation_year
_citation_journal_volume
_citation_page_first
_citation_page_last
_citation_journal_id_ASTM
primary 'Croatica Chemica Acta' 1984 57 597 608 CCACAA
_publ_author_name
;
Galesic, N.;Matkovic, B.;Topic, M.;Coffou, E.;Sljukic, M.
;
_cell_length_a                     7.01
_cell_length_b                     21.5
_cell_length_c                     9.12
_cell_angle_alpha                  90.
_cell_angle_beta                   111.
_cell_angle_gamma                  90.
_cell_volume                       1283.23
_cell_formula_units_Z              8
_symmetry_space_group_name_H-M     'C 1 2/c 1'
_symmetry_Int_Tables_number        15
_refine_ls_R_factor_all            .107
loop_
_symmetry_equiv_pos_site_id
_symmetry_equiv_pos_as_xyz
  1	'x, -y, z+.5'
  2	'-x, -y, -z'
  3	'-x, y, -z+.5'
  4	'x, y, z'
  5	'x+.5, -y+.5, z+.5'
  6	'-x+.5, -y+.5, -z'
  7	'-x+.5, y+.5, -z+.5'
  8	'x+.5, y+.5, z'
loop_
_atom_type_symbol
_atom_type_oxidation_number
Na1+	1
O2-	-2
P5+	5
Th4+	4
loop_
_atom_site_label
_atom_site_type_symbol
_atom_site_symmetry_multiplicity
_atom_site_Wyckoff_symbol
_atom_site_fract_x
_atom_site_fract_y
_atom_site_fract_z
_atom_site_occupancy
_atom_site_attached_hydrogens
_atom_site_U_iso_or_equiv
Th1 Th4+ 4 e 0 0.0726(1) 0.25 1. 0 0.02(1) 
Th2 Th4+ 4 e 0 0.2968(1) 0.25 1. 0 0.02(1) 
P1 P5+ 8 f -.323(2) 0.189(1) 0.152(3) 1. 0 0.02(1) 
P2 P5+ 8 f -.187(2) -.065(1) 0.378(3) 1. 0 0.03(1) 
Na1 Na1+ 8 f 0.378(4) 0.062(1) 0.010(4) 1. 0 0.05(2) 
Na2 Na1+ 8 f -.105(4) -.190(1) 0.060(6) 1. 0 0.10(2) 
O1 O2- 8 f -.518(7) 0.191(3) 0.001(7) 1. 0 0.04(1) 
O2 O2- 8 f -.132(6) 0.197(2) 0.108(6) 1. 0 0.04(1) 
O3 O2- 8 f -.293(8) 0.128(2) 0.247(9) 1. 0 0.10(4) 
O4 O2- 8 f -.301(6) 0.248(2) 0.257(7) 1. 0 0.05(3) 
O5 O2- 8 f 0.031(7) -.080(2) 0.479(10) 1. 0 0.05(3) 
O6 O2- 8 f -.289(6) -.054(2) 0.500(6) 1. 0 0.03(1) 
O7 O2- 8 f -.290(7) -.121(2) 0.296(6) 1. 0 0.04(2) 
O8 O2- 8 f -.205(8) -.010(2) 0.269(8) 1. 0 0.05(1) 

#End of data_201880-ICSD


