data_424354-ICSD
#?2014 by Fachinformationszentrum Karlsruhe, and the U.S. Secretary of 
#Commerce on behalf of the United States.  All rights reserved.
_database_code_ICSD                424354
_audit_creation_date               2014/08/01
_chemical_name_systematic          'Potassium Barium Pentaborate'
_chemical_formula_structural       'K Ba (B5 O9)'
_chemical_formula_sum              'B5 Ba1 K1 O9'
_publ_section_title
;
Synthesis, structures, optical properties and electronic structures 
of two mixed metal borates M Ba B5 O9 (M = Na, K)
;
loop_
_citation_id
_citation_journal_abbrev
_citation_year
_citation_journal_volume
_citation_page_first
_citation_page_last
_citation_journal_id_ASTM
primary 'Journal of Alloys and Compounds' 2014 585 602 607 JALCEU
_publ_author_name
;
Yu, Hongwei;Pan, Shilie;Wu, Hongping;Su, Xin;Yang, Zhihua
;
_cell_length_a                     6.7168(11)
_cell_length_b                     8.2724(13)
_cell_length_c                     14.262(2)
_cell_angle_alpha                  90.00
_cell_angle_beta                   92.724(2)
_cell_angle_gamma                  90.00
_cell_volume                       791.55
_cell_formula_units_Z              4
_symmetry_space_group_name_H-M     'P 1 21/c 1'
_symmetry_Int_Tables_number        14
_refine_ls_R_factor_all            .0278
loop_
_symmetry_equiv_pos_site_id
_symmetry_equiv_pos_as_xyz
  1	'x, -y+.5, z+.5'
  2	'-x, -y, -z'
  3	'-x, y+.5, -z+.5'
  4	'x, y, z'
loop_
_atom_type_symbol
_atom_type_oxidation_number
B3+	3
Ba2+	2
K1+	1
O2-	-2
loop_
_atom_site_label
_atom_site_type_symbol
_atom_site_symmetry_multiplicity
_atom_site_Wyckoff_symbol
_atom_site_fract_x
_atom_site_fract_y
_atom_site_fract_z
_atom_site_occupancy
_atom_site_attached_hydrogens
_atom_site_U_iso_or_equiv
Ba1 Ba2+ 4 e 0.07519(4) 1.02829(3) 0.267938(18) 1 0 0.01379(11) 
K1 K1+ 4 e 0.48735(17) 0.85499(14) 0.09751(8) 1 0 0.0242(3) 
B1 B3+ 4 e 0.6079(8) 0.9838(6) 0.3074(4) 1 0 0.0152(10) 
B2 B3+ 4 e 0.4622(8) 0.7105(6) 0.3222(4) 1 0 0.0154(10) 
B3 B3+ 4 e 0.2033(8) 1.2730(7) 0.1019(4) 1 0 0.0183(11) 
B4 B3+ 4 e 0.9340(9) 0.8038(7) 0.0583(4) 1 0 0.0204(11) 
B5 B3+ 4 e -0.1596(8) 1.1958(6) 0.0701(4) 1 0 0.0171(11) 
O1 O2- 4 e 0.3315(5) 1.1658(4) 0.1579(2) 1 0 0.0177(7) 
O2 O2- 4 e -0.2404(5) 0.9438(4) 0.3700(2) 1 0 0.0180(7) 
O3 O2- 4 e 0.3692(5) 0.6239(4) 0.2405(2) 1 0 0.0200(7) 
O4 O2- 4 e 0.7868(5) 0.7455(4) -0.0022(2) 1 0 0.0213(7) 
O5 O2- 4 e 0.4442(5) 0.8862(4) 0.2945(2) 1 0 0.0194(7) 
O6 O2- 4 e 0.1206(5) 0.8354(4) 0.0224(2) 1 0 0.0241(8) 
O7 O2- 4 e -0.0086(5) 1.2409(4) 0.1315(2) 1 0 0.0178(7) 
O8 O2- 4 e 0.9054(6) 0.8238(5) 0.1500(2) 1 0 0.0287(8) 
O9 O2- 4 e 0.3505(5) 0.6772(4) 0.4067(2) 1 0 0.0208(7) 

loop_
_atom_site_aniso_label
_atom_site_aniso_type_symbol
_atom_site_aniso_U_11
_atom_site_aniso_U_22
_atom_site_aniso_U_33
_atom_site_aniso_U_12
_atom_site_aniso_U_13
_atom_site_aniso_U_23
Ba1 Ba2+ 0.01049(15) 0.01367(15) 0.01729(16) -0.00077(11) 0.00134(9) 
0.00238(10)
K1 K1+ 0.0194(6) 0.0317(6) 0.0217(6) 0.0001(5) 0.0016(4) -0.0008(4)
B1 B3+ 0.016(3) 0.013(2) 0.017(2) 0.001(2) 0.0015(19) -0.0019(19)
B2 B3+ 0.014(3) 0.014(2) 0.018(3) -0.001(2) 0.0022(19) 0.0013(19)
B3 B3+ 0.017(3) 0.020(3) 0.017(3) -0.001(2) -0.002(2) -0.003(2)
B4 B3+ 0.018(3) 0.020(3) 0.023(3) -0.001(2) 0.001(2) -0.004(2)
B5 B3+ 0.018(3) 0.016(2) 0.016(3) 0.002(2) -0.001(2) -0.002(2)
O1 O2- 0.0151(17) 0.0193(17) 0.0190(17) -0.0010(13) 0.0024(13) -0.0018(13)
O2 O2- 0.0157(17) 0.0155(16) 0.0221(18) 0.0005(13) -0.0048(13) 0.0007(13)
O3 O2- 0.0194(18) 0.0189(17) 0.0212(18) 0.0001(14) -0.0037(14) -0.0042(13)
O4 O2- 0.0162(18) 0.0289(18) 0.0195(18) -0.0060(15) 0.0067(13) -0.0034(14)
O5 O2- 0.0145(17) 0.0189(17) 0.0245(18) 0.0003(14) -0.0018(13) 0.0019(14)
O6 O2- 0.0138(17) 0.040(2) 0.0187(17) -0.0024(16) -0.0005(13) -0.0058(15)
O7 O2- 0.0136(17) 0.0215(16) 0.0185(17) -0.0005(14) 0.0016(13) -0.0022(13)
O8 O2- 0.025(2) 0.044(2) 0.0175(18) -0.0006(17) 0.0024(14) 0.0007(16)
O9 O2- 0.0143(17) 0.0274(18) 0.0209(18) 0.0024(14) 0.0046(13) 0.0052(14)
#End of data_424354-ICSD


