data_155814-ICSD
#?2014 by Fachinformationszentrum Karlsruhe, and the U.S. Secretary of 
#Commerce on behalf of the United States.  All rights reserved.
_database_code_ICSD                155814
_audit_creation_date               2007/08/01
_chemical_name_systematic          'Sodium Magnesium Fluoride'
_chemical_formula_structural       'Na Mg F3'
_chemical_formula_sum              'F3 Mg1 Na1'
_chemical_name_mineral             Neighborite
_publ_section_title
;
Single-crystal X-ray diffraction study on neighborite (Na Mg F3) from 
Gjerdingselva, Norway
;
loop_
_citation_id
_citation_journal_abbrev
_citation_year
_citation_journal_volume
_citation_journal_issue
_citation_page_first
_citation_page_last
_citation_journal_id_ASTM
primary 'Neues Jahrbuch fuer Mineralogie. Abhandlungen (Band-Nr) (1950-)'
 2005 182 1 23 29 NJMIAK
_publ_author_name
;
Pischedda, V.;Ferraris, G.;Raade, G.
;
_cell_length_a                     5.352(1)
_cell_length_b                     5.485(1)
_cell_length_c                     7.663(2)
_cell_angle_alpha                  90.
_cell_angle_beta                   90.
_cell_angle_gamma                  90.
_cell_volume                       224.95
_cell_formula_units_Z              4
_symmetry_space_group_name_H-M     'P b n m'
_symmetry_Int_Tables_number        62
_refine_ls_R_factor_all            .0262
loop_
_symmetry_equiv_pos_site_id
_symmetry_equiv_pos_as_xyz
  1	'-x+.5, y+.5, z'
  2	'x, y, -z+.5'
  3	'x+.5, -y+.5, z+.5'
  4	'-x, -y, -z'
  5	'x+.5, -y+.5, -z'
  6	'-x, -y, z+.5'
  7	'-x+.5, y+.5, -z+.5'
  8	'x, y, z'
loop_
_atom_type_symbol
_atom_type_oxidation_number
F1-	-1
Mg2+	2
Na1+	1
loop_
_atom_site_label
_atom_site_type_symbol
_atom_site_symmetry_multiplicity
_atom_site_Wyckoff_symbol
_atom_site_fract_x
_atom_site_fract_y
_atom_site_fract_z
_atom_site_occupancy
_atom_site_attached_hydrogens
_atom_site_U_iso_or_equiv
Mg1 Mg2+ 4 b 0 0.5 0 1. 0 0.0073(1) 
Na1 Na1+ 4 c -0.0104(1) 0.0445(1) 0.250 1. 0 0.0173(2) 
F1 F1- 4 c 0.0878(2) 0.4730(2) 0.250 1. 0 0.0128(2) 
F2 F1- 8 d 0.7027(1) 0.2949(1) 0.0458(1) 1. 0 0.0131(1) 

loop_
_atom_site_aniso_label
_atom_site_aniso_type_symbol
_atom_site_aniso_U_11
_atom_site_aniso_U_22
_atom_site_aniso_U_33
_atom_site_aniso_U_12
_atom_site_aniso_U_13
_atom_site_aniso_U_23
Mg1 Mg2+ 0.0072(2) 0.0079(2) 0.0069(2) 0.0001(1) 0.0000(1) -0.0000(1)
Na1 Na1+ 0.0159(3) 0.0176(3) 0.0184(3) -0.0029(2) 0. 0.
F1 F1- 0.0140(4) 0.0172(4) 0.0073(3) -0.0002(3) 0. 0.
F2 F1- 0.0117(2) 0.0121(2) 0.0155(3) -0.0043(2) 0.0017(2) -0.0017(2)
#End of data_155814-ICSD


