data_260827-ICSD
#?2014 by Fachinformationszentrum Karlsruhe, and the U.S. Secretary of 
#Commerce on behalf of the United States.  All rights reserved.
_database_code_ICSD                260827
_audit_creation_date               2011/02/01
_chemical_name_systematic
;
Dipotassium Dialuminium Cyclooctaphosphate
;
_chemical_formula_structural       'Al2 K2 (P8 O24)'
_chemical_formula_sum              'Al2 K2 O24 P8'
_publ_section_title
;
Dipotassium dialuminium cyclooctaphosphate
;
loop_
_citation_id
_citation_journal_abbrev
_citation_year
_citation_journal_volume
_citation_journal_issue
_citation_page_first
_citation_page_last
_citation_journal_id_ASTM
primary 'Acta Crystallographica, Section E. Structure Reports Online'
 2010 66 7 i49 i50 ACSEBH
_publ_author_name
;
Oudahmane, A.;Avignant, D.;Zambon, D.
;
_cell_length_a                     16.598(2)
_cell_length_b                     12.2150(17)
_cell_length_c                     5.0705(7)
_cell_angle_alpha                  90.00
_cell_angle_beta                   100.315(4)
_cell_angle_gamma                  90.00
_cell_volume                       1011.4
_cell_formula_units_Z              2
_symmetry_space_group_name_H-M     'C 1 2/m 1'
_symmetry_Int_Tables_number        12
_refine_ls_R_factor_all            .0423
loop_
_symmetry_equiv_pos_site_id
_symmetry_equiv_pos_as_xyz
  1	'-x, y, -z'
  2	'-x, -y, -z'
  3	'x, -y, z'
  4	'x, y, z'
  5	'-x+.5, y+.5, -z'
  6	'-x+.5, -y+.5, -z'
  7	'x+.5, -y+.5, z'
  8	'x+.5, y+.5, z'
loop_
_atom_type_symbol
_atom_type_oxidation_number
Al3+	3
K1+	1
O2-	-2
P5+	5
loop_
_atom_site_label
_atom_site_type_symbol
_atom_site_symmetry_multiplicity
_atom_site_Wyckoff_symbol
_atom_site_fract_x
_atom_site_fract_y
_atom_site_fract_z
_atom_site_occupancy
_atom_site_attached_hydrogens
_atom_site_U_iso_or_equiv
K1 K1+ 4 i -0.09371(4) 0.5000 0.25194(13) 1 0 0.02290(13) 
Al1 Al3+ 4 e 0.2500 0.2500 0.0000 1 0 0.00771(13) 
P1 P5+ 8 j 0.19023(2) 0.12098(3) 0.46962(8) 1 0 0.00720(9) 
P2 P5+ 8 j 0.07782(2) 0.27631(3) 0.16477(8) 1 0 0.00835(9) 
O1 O2- 8 j 0.28060(8) 0.36965(10) 0.2366(2) 1 0 0.0118(2) 
O2 O2- 8 j 0.14059(7) 0.28394(11) -0.0132(2) 1 0 0.0132(2) 
O3 O2- 8 j 0.24968(7) 0.15349(10) 0.2942(2) 1 0 0.0105(2) 
O4 O2- 8 j 0.10711(7) 0.18408(11) 0.3873(2) 1 0 0.0122(2) 
O5 O2- 8 j 0.05469(9) 0.37739(12) 0.2866(3) 1 0 0.0184(3) 
O6 O2- 4 g 0.0000 0.21471(15) 0.0000 1 0 0.0140(3) 
O7 O2- 4 i 0.16028(11) 0.0000 0.3993(3) 1 0 0.0125(3) 

loop_
_atom_site_aniso_label
_atom_site_aniso_type_symbol
_atom_site_aniso_U_11
_atom_site_aniso_U_22
_atom_site_aniso_U_33
_atom_site_aniso_U_12
_atom_site_aniso_U_13
_atom_site_aniso_U_23
K1 K1+ 0.0299(3) 0.0147(3) 0.0240(3) 0.000 0.0046(2) 0.000
Al1 Al3+ 0.0085(3) 0.0083(3) 0.0064(3) 0.0001(2) 0.0016(2) 0.0006(2)
P1 P5+ 0.00956(16) 0.00518(17) 0.00672(15) 0.00032(12) 0.00110(11) 
0.00033(11)
P2 P5+ 0.00850(17) 0.00632(18) 0.01023(16) 0.00094(12) 0.00164(12) 
0.00031(12)
O1 O2- 0.0186(5) 0.0084(5) 0.0078(4) -0.0009(4) 0.0006(4) -0.0006(3)
O2 O2- 0.0095(5) 0.0177(6) 0.0130(5) 0.0020(4) 0.0033(4) 0.0049(4)
O3 O2- 0.0104(5) 0.0111(5) 0.0105(5) 0.0011(4) 0.0037(3) 0.0033(4)
O4 O2- 0.0108(5) 0.0125(6) 0.0138(5) 0.0033(4) 0.0034(4) 0.0051(4)
O5 O2- 0.0247(6) 0.0105(6) 0.0198(6) 0.0053(5) 0.0030(5) -0.0045(5)
O6 O2- 0.0096(7) 0.0092(8) 0.0217(8) 0.000 -0.0011(6) 0.000
O7 O2- 0.0177(7) 0.0051(7) 0.0129(7) 0.000 -0.0021(5) 0.000
#End of data_260827-ICSD


