data_63316-ICSD
#?2014 by Fachinformationszentrum Karlsruhe, and the U.S. Secretary of 
#Commerce on behalf of the United States.  All rights reserved.
_database_code_ICSD                63316
_audit_creation_date               1990/12/27
_audit_update_record               1998/06/26
_chemical_name_systematic          'Aluminium Silicate Hydroxide *'
_chemical_formula_structural       'Al4 (O H)8 (Si4 O10)'
_chemical_formula_sum              'H8 Al4 O18 Si4'
_chemical_name_mineral             'Kaolinite 1A'
_publ_section_title
;
Verification of the Triclinic Crystal Structure of Kaolinite
;
loop_
_citation_id
_citation_journal_abbrev
_citation_year
_citation_journal_volume
_citation_page_first
_citation_page_last
_citation_journal_id_ASTM
primary 'Clays and Clay Minerals (-28,1980)' 1988 36 225 232 CCMPA7
_publ_author_name                  'Young, R.A.;Hewat, A.W.'
_cell_length_a                     5.14971(4)
_cell_length_b                     8.93507(7)
_cell_length_c                     7.38549(5)
_cell_angle_alpha                  91.9280(4)
_cell_angle_beta                   105.0440(4)
_cell_angle_gamma                  89.7920(5)
_cell_volume                       327.99
_cell_formula_units_Z              1
_symmetry_space_group_name_H-M     'P 1'
_symmetry_Int_Tables_number        1
_refine_ls_R_factor_all            .0203
loop_
_symmetry_equiv_pos_site_id
_symmetry_equiv_pos_as_xyz
  1	'x, y, z'
loop_
_atom_type_symbol
_atom_type_oxidation_number
Al3+	3
H1+	1
O2-	-2
Si4+	4
loop_
_atom_site_label
_atom_site_type_symbol
_atom_site_symmetry_multiplicity
_atom_site_Wyckoff_symbol
_atom_site_fract_x
_atom_site_fract_y
_atom_site_fract_z
_atom_site_occupancy
_atom_site_attached_hydrogens
Al1 Al3+ 1 a 0.352(9) 0.501(5) 0.471(6) 1. 0 
Al2 Al3+ 1 a 0.370(9) 0.830(4) 0.447(5) 1. 0 
Al3 Al3+ 1 a 0.862(11) -.001(5) 0.465(6) 1. 0 
Al4 Al3+ 1 a 0.852(8) 0.329(4) 0.464(5) 1. 0 
Si1 Si4+ 1 a 0.058(8) 0.347(4) 0.058(4) 1. 0 
Si2 Si4+ 1 a 0.076(8) 0.654(5) 0.088(5) 1. 0 
Si3 Si4+ 1 a 0.551(7) 0.842(4) 0.080(5) 1. 0 
Si4 Si4+ 1 a 0.571(8) 0.171(4) 0.069(5) 1. 0 
O1 O2- 1 a 0.11 0.342 0.307 1. 0 
O2 O2- 1 a 0.156(7) 0.659(4) 0.289(5) 1. 0 
O3 O2- 1 a 0.089(6) 0.487(3) -.022(4) 1. 0 
O4 O2- 1 a 0.261(6) 0.227(3) -.018(4) 1. 0 
O5 O2- 1 a 0.242(7) 0.765(3) -.029(4) 1. 0 
O6 O2- 1 a 0.626(9) 0.845(5) 0.296(5) 1. 0 
O7 O2- 1 a 0.685(7) 0.154(3) 0.311(4) 1. 0 
O8 O2- 1 a 0.549(6) -.001(3) -.019(4) 1. 0 
O9 O2- 1 a 0.772(6) 0.720(3) 0.038(4) 1. 0 
O10 O2- 1 a 0.772(6) 0.260(4) -.014(4) 1. 0 
O11 O2- 1 a 0.116(7) -.033(4) 0.312(5) 1. 0 
O12 O2- 1 a 0.018(7) 0.170(4) 0.583(4) 1. 0 
O13 O2- 1 a 0.126(6) 0.469(3) 0.589(4) 1. 0 
O14 O2- 1 a 0.106(6) 0.837(4) 0.597(4) 1. 0 
O15 O2- 1 a 0.609(7) 0.465(4) 0.308(4) 1. 0 
O16 O2- 1 a 0.525(7) 0.657(3) 0.597(4) 1. 0 
O17 O2- 1 a 0.593(6) -.028(4) 0.581(4) 1. 0 
O18 O2- 1 a 0.590(6) 0.367(3) 0.591(4) 1. 0 
H1 H1+ 1 a 0.237(7) 0.068(4) 0.343(5) 1. 0 
H2 H1+ 1 a 0.159(8) 0.185(4) 0.712(6) 1. 0 
H3 H1+ 1 a 0.063(7) 0.527(4) 0.704(5) 1. 0 
H4 H1+ 1 a 0.078(8) 0.832(4) 0.713(5) 1. 0 
H5 H1+ 1 a 0.682(8) 0.552(4) 0.256(5) 1. 0 
H6 H1+ 1 a 0.620(7) 0.650(4) 0.726(5) 1. 0 
H7 H1+ 1 a 0.593(7) -.021(4) 0.722(5) 1. 0 
H8 H1+ 1 a 0.611(7) 0.292(4) 0.700(5) 1. 0 

#End of data_63316-ICSD


