data_15530-ICSD
#?2014 by Fachinformationszentrum Karlsruhe, and the U.S. Secretary of 
#Commerce on behalf of the United States.  All rights reserved.
_database_code_ICSD                15530
_audit_creation_date               1981/12/31
_audit_update_record               2002/04/01
_chemical_name_systematic          'Lanthanum Silver Oxide Sulfide'
_chemical_formula_structural       'La Ag O S'
_chemical_formula_sum              'Ag1 La1 O1 S1'
_publ_section_title
;
Structure du conducteur ionique La O Ag Y
;
loop_
_citation_id
_citation_journal_abbrev
_citation_year
_citation_journal_volume
_citation_page_first
_citation_page_last
_citation_journal_id_ASTM
primary 'Acta Crystallographica B (24,1968-38,1982)' 1981 37 1337 1339 ACBCAR
2 'Rare Earths in Modern Science and Technology' 1982 3 347 350 REMTDV
_publ_author_name                  'Palazzi, M.;Jaulmes, S.'
_cell_length_a                     4.050(2)
_cell_length_b                     4.050(2)
_cell_length_c                     9.039(3)
_cell_angle_alpha                  90.
_cell_angle_beta                   90.
_cell_angle_gamma                  90.
_cell_volume                       148.26
_cell_formula_units_Z              2
_symmetry_space_group_name_H-M     'P 4/n m m Z'
_symmetry_Int_Tables_number        129
_refine_ls_R_factor_all            .055
loop_
_symmetry_equiv_pos_site_id
_symmetry_equiv_pos_as_xyz
  1	'y+.5, x+.5, -z'
  2	'-y, x+.5, -z'
  3	'y+.5, -x, -z'
  4	'-y, -x, -z'
  5	'x+.5, y+.5, -z'
  6	'-x, y+.5, -z'
  7	'x+.5, -y, -z'
  8	'-x, -y, -z'
  9	'-y+.5, -x+.5, z'
 10	'y, -x+.5, z'
 11	'-y+.5, x, z'
 12	'y, x, z'
 13	'-x+.5, -y+.5, z'
 14	'x, -y+.5, z'
 15	'-x+.5, y, z'
 16	'x, y, z'
loop_
_atom_type_symbol
_atom_type_oxidation_number
Ag1+	1
La3+	3
O2-	-2
S2-	-2
loop_
_atom_site_label
_atom_site_type_symbol
_atom_site_symmetry_multiplicity
_atom_site_Wyckoff_symbol
_atom_site_fract_x
_atom_site_fract_y
_atom_site_fract_z
_atom_site_occupancy
_atom_site_attached_hydrogens
_atom_site_B_iso_or_equiv
La1 La3+ 2 c 0.25 0.25 0.1356(2) 1. 0 0.47 
Ag1 Ag1+ 2 b 0.75 0.25 0.5 1. 0 2.21 
S1 S2- 2 c 0.25 0.25 0.6929(9) 1. 0 0.84 
O1 O2- 2 a 0.75 0.25 0 1. 0 1.12 

#End of data_15530-ICSD


