data_41144-ICSD
#?2014 by Fachinformationszentrum Karlsruhe, and the U.S. Secretary of 
#Commerce on behalf of the United States.  All rights reserved.
_database_code_ICSD                41144
_audit_creation_date               1999/11/30
_audit_update_record               2007/08/01
_chemical_name_systematic          'Triyttrium Pentaaluminium Oxide'
_chemical_formula_structural       'Y3 Al5 O12'
_chemical_formula_sum              'Al5 O12 Y3'
_chemical_name_mineral             Unnamed_Garnet
_publ_section_title
;
Photoinduced effects and real structure of crystals of yttrium 
aluminum garnet
;
loop_
_citation_id
_citation_journal_abbrev
_citation_year
_citation_journal_volume
_citation_page_first
_citation_page_last
_citation_journal_id_ASTM
primary Kristallografiya 1991 36 715 728 KRISAJ
2 Kristallografiya 1990 35 1488 1491 KRISAJ
3 'Powder Diffraction' 1990 5 186 191 PODIE2
4 'Soviet Physics, Crystallography (= Kristallografiya)'
 1991 36 398 405 SPHCA6
_publ_author_name
;
Bagdasarov, Kh.S.;Bolotina, N.B.;Kalinin, V.I.;Karyagin, 
V.F.;Kuz'min, B.V.;Muradyan, L.A.;Ryadnov, S.N.;Uyukin, 
E.M.;Chernaya, T.S.;Fedorov, E.A.;Chudakov, V.S.;Simonov, V.I.
;
_cell_length_a                     12.004(2)
_cell_length_b                     12.004(2)
_cell_length_c                     12.004(2)
_cell_angle_alpha                  90.
_cell_angle_beta                   90.
_cell_angle_gamma                  90.
_cell_volume                       1729.73
_cell_formula_units_Z              8
_symmetry_space_group_name_H-M     'I a -3 d'
_symmetry_Int_Tables_number        230
_refine_ls_R_factor_all            .0188
loop_
_symmetry_equiv_pos_site_id
_symmetry_equiv_pos_as_xyz
  1	'-z+.75, y+.25, x+.75'
  2	'z+.75, -y+.75, x+.25'
  3	'z+.25, y+.75, -x+.75'
  4	'-z+.25, -y+.25, -x+.25'
  5	'y+.25, x+.75, -z+.75'
  6	'-y+.75, x+.25, z+.75'
  7	'y+.75, -x+.75, z+.25'
  8	'-y+.25, -x+.25, -z+.25'
  9	'x+.75, -z+.75, y+.25'
 10	'x+.25, z+.75, -y+.75'
 11	'-x+.75, z+.25, y+.75'
 12	'-x+.25, -z+.25, -y+.25'
 13	'z+.75, -y+.25, -x+.75'
 14	'-z+.75, y+.75, -x+.25'
 15	'-z+.25, -y+.75, x+.75'
 16	'z+.25, y+.25, x+.25'
 17	'-y+.25, -x+.75, z+.75'
 18	'y+.75, -x+.25, -z+.75'
 19	'-y+.75, x+.75, -z+.25'
 20	'y+.25, x+.25, z+.25'
 21	'-x+.75, z+.75, -y+.25'
 22	'-x+.25, -z+.75, y+.75'
 23	'x+.75, -z+.25, -y+.75'
 24	'x+.25, z+.25, y+.25'
 25	'-z+.5, x+.5, y'
 26	'z+.5, x, -y+.5'
 27	'z, -x+.5, y+.5'
 28	'-z, -x, -y'
 29	'y, -z+.5, x+.5'
 30	'-y+.5, z+.5, x'
 31	'y+.5, z, -x+.5'
 32	'-y, -z, -x'
 33	'x+.5, y, -z+.5'
 34	'x, -y+.5, z+.5'
 35	'-x+.5, y+.5, z'
 36	'-x, -y, -z'
 37	'z+.5, -x+.5, -y'
 38	'-z+.5, -x, y+.5'
 39	'-z, x+.5, -y+.5'
 40	'z, x, y'
 41	'-y, z+.5, -x+.5'
 42	'y+.5, -z+.5, -x'
 43	'-y+.5, -z, x+.5'
 44	'y, z, x'
 45	'-x+.5, -y, z+.5'
 46	'-x, y+.5, -z+.5'
 47	'x+.5, -y+.5, -z'
 48	'x, y, z'
 49	'-z+.25, y+.75, x+.25'
 50	'z+.25, -y+.25, x+.75'
 51	'z+.75, y+.25, -x+.25'
 52	'-z+.75, -y+.75, -x+.75'
 53	'y+.75, x+.25, -z+.25'
 54	'-y+.25, x+.75, z+.25'
 55	'y+.25, -x+.25, z+.75'
 56	'-y+.75, -x+.75, -z+.75'
 57	'x+.25, -z+.25, y+.75'
 58	'x+.75, z+.25, -y+.25'
 59	'-x+.25, z+.75, y+.25'
 60	'-x+.75, -z+.75, -y+.75'
 61	'z+.25, -y+.75, -x+.25'
 62	'-z+.25, y+.25, -x+.75'
 63	'-z+.75, -y+.25, x+.25'
 64	'z+.75, y+.75, x+.75'
 65	'-y+.75, -x+.25, z+.25'
 66	'y+.25, -x+.75, -z+.25'
 67	'-y+.25, x+.25, -z+.75'
 68	'y+.75, x+.75, z+.75'
 69	'-x+.25, z+.25, -y+.75'
 70	'-x+.75, -z+.25, y+.25'
 71	'x+.25, -z+.75, -y+.25'
 72	'x+.75, z+.75, y+.75'
 73	'-z, x, y+.5'
 74	'z, x+.5, -y'
 75	'z+.5, -x, y'
 76	'-z+.5, -x+.5, -y+.5'
 77	'y+.5, -z, x'
 78	'-y, z, x+.5'
 79	'y, z+.5, -x'
 80	'-y+.5, -z+.5, -x+.5'
 81	'x, y+.5, -z'
 82	'x+.5, -y, z'
 83	'-x, y, z+.5'
 84	'-x+.5, -y+.5, -z+.5'
 85	'z, -x, -y+.5'
 86	'-z, -x+.5, y'
 87	'-z+.5, x, -y'
 88	'z+.5, x+.5, y+.5'
 89	'-y+.5, z, -x'
 90	'y, -z, -x+.5'
 91	'-y, -z+.5, x'
 92	'y+.5, z+.5, x+.5'
 93	'-x, -y+.5, z'
 94	'-x+.5, y, -z'
 95	'x, -y, -z+.5'
 96	'x+.5, y+.5, z+.5'
loop_
_atom_type_symbol
_atom_type_oxidation_number
Al3+	3
O2-	-2
Y3+	3
loop_
_atom_site_label
_atom_site_type_symbol
_atom_site_symmetry_multiplicity
_atom_site_Wyckoff_symbol
_atom_site_fract_x
_atom_site_fract_y
_atom_site_fract_z
_atom_site_occupancy
_atom_site_attached_hydrogens
Al1 Al3+ 16 a 0 0 0 1. 0 
Al2 Al3+ 24 d 0.375 0 0.25 1. 0 
Y1 Y3+ 24 c 0.125 0 0.25 1. 0 
O1 O2- 96 h 0.4695(1) 0.0507(1) 0.3508(1) 1. 0 

loop_
_atom_site_aniso_label
_atom_site_aniso_type_symbol
_atom_site_aniso_B_11
_atom_site_aniso_B_22
_atom_site_aniso_B_33
_atom_site_aniso_B_12
_atom_site_aniso_B_13
_atom_site_aniso_B_23
Al1 Al3+ 0.50(3) 0.68(2) 0.68(2) 0 0 0
Al2 Al3+ 0.58(2) 0.58(2) 0.58(2) -.04(3) -.04(3) -.04(3)
Y1 Y3+ 0.43(1) 0.63(2) 0.64(1) 0 0 0
O1 O2- 0.68(4) 0.89(5) 0.65(4) 0.00(4) 0 0
#End of data_41144-ICSD


