data_62650-ICSD
#?2014 by Fachinformationszentrum Karlsruhe, and the U.S. Secretary of 
#Commerce on behalf of the United States.  All rights reserved.
_database_code_ICSD                62650
_audit_creation_date               1988/02/22
_audit_update_record               2009/02/01
_chemical_name_systematic
;
Tetrasodium Dipotassium Digermanate
;
_chemical_formula_structural       'Na4 K2 (Ge2 O7)'
_chemical_formula_sum              'Ge2 K2 Na4 O7'
_publ_section_title
;
Die Kristallstruktur eines neuen Alkalidigermanats, Na4 K2 Ge2 O7.
;
loop_
_citation_id
_citation_journal_abbrev
_citation_year
_citation_journal_volume
_citation_page_first
_citation_page_last
_citation_journal_id_ASTM
primary 'Monatshefte fuer Chemie' 1987 118 573 582 MOCMB7
_publ_author_name                  'Halwax, E.;Voellenkle, H.'
_cell_length_a                     6.010(3)
_cell_length_b                     6.0202(3)
_cell_length_c                     29.26(1)
_cell_angle_alpha                  90.
_cell_angle_beta                   90.
_cell_angle_gamma                  119.9(1)
_cell_volume                       917.76
_cell_formula_units_Z              4
_symmetry_space_group_name_H-M     'P 1 1 21'
_symmetry_Int_Tables_number        4
_refine_ls_R_factor_all            .114
loop_
_symmetry_equiv_pos_site_id
_symmetry_equiv_pos_as_xyz
  1	'-x, -y, z+.5'
  2	'x, y, z'
loop_
_atom_type_symbol
_atom_type_oxidation_number
Ge4+	4
K1+	1
Na1+	1
O2-	-2
loop_
_atom_site_label
_atom_site_type_symbol
_atom_site_symmetry_multiplicity
_atom_site_Wyckoff_symbol
_atom_site_fract_x
_atom_site_fract_y
_atom_site_fract_z
_atom_site_occupancy
_atom_site_attached_hydrogens
_atom_site_U_iso_or_equiv
Na1 Na1+ 2 a 0.256(5) 0.519(5) 0.1609(10) 1. 0 0.037(7) 
Na2 Na1+ 2 a 0.114(5) 0.950(4) 0.1663(8) 1. 0 0.022(5) 
Na3 Na1+ 2 a 0.672(4) 0.319(4) 0.1756(7) 1. 0 0.010(4) 
Na4 Na1+ 2 a 0.345(4) 0.006(4) 0.2661(8) 1. 0 0.018(5) 
Na5 Na1+ 2 a 0.891(5) 0.075(5) 0.3447(9) 1. 0 0.026(6) 
Na6 Na1+ 2 a 0.700(4) 0.099(5) 0.4407(8) 1. 0 0.020(5) 
Na7 Na1+ 2 a 0.901(4) 0.702(5) 0.4430(9) 1. 0 0.022(5) 
Na8 Na1+ 2 a 0.286(4) 0.513(4) 0.4490(8) 1. 0 0.018(5) 
K1 K1+ 2 a 0.356(2) 0.240(2) 0.0507(6) 1. 0 0.025(3) 
K2 K1+ 2 a 0.044(3) 0.593(3) 0.0522(7) 1. 0 0.035(4) 
K3 K1+ 2 a 0.714(3) 0.737(3) 0.2468(5) 1. 0 0.025(3) 
K4 K1+ 2 a 0.566(3) 0.373(3) 0.3528(7) 1. 0 0.038(4) 
Ge1 Ge4+ 2 a 0.6989(11) 0.8848(10) 0 1. 0 0.010(1) 
Ge2 Ge4+ 2 a 0.6867(11) 0.9256(11) 0.1100(3) 1. 0 0.014(1) 
Ge3 Ge4+ 2 a 0.0745(11) 0.3945(11) 0.2552(3) 1. 0 0.013(1) 
Ge4 Ge4+ 2 a 0.2355(11) 0.6842(11) 0.3556(3) 1. 0 0.015(1) 
O1 O2- 2 a 0.435(8) 0.630(8) -.0302(15) 1. 0 0.023(10) 
O2 O2- 2 a 0.976(7) 0.904(7) -.0161(14) 1. 0 0.016(8) 
O3 O2- 2 a 0.713(8) 0.189(7) -.0042(15) 1. 0 0.019(9) 
O4 O2- 2 a 0.655(7) 0.772(7) 0.0580(16) 1. 0 0.017(8) 
O5 O2- 2 a 0.978(7) 0.231(7) 0.1149(14) 1. 0 0.015(8) 
O6 O2- 2 a 0.408(8) 0.954(8) 0.1197(15) 1. 0 0.024(10) 
O7 O2- 2 a 0.687(8) 0.687(8) 0.1471(16) 1. 0 0.025(10) 
O8 O2- 2 a 0.078(8) 0.623(8) 0.2242(15) 1. 0 0.021(10) 
O9 O2- 2 a 0.215(9) 0.243(8) 0.2261(16) 1. 0 0.028(10) 
O10 O2- 2 a -.227(8) 0.197(8) 0.2743(15) 1. 0 0.023(9) 
O11 O2- 2 a 0.277(7) 0.519(7) 0.3066(13) 1. 0 0.012(8) 
O12 O2- 2 a 0.131(9) 0.899(9) 0.3397(16) 1. 0 0.035(12) 
O13 O2- 2 a 0.524(7) 0.803(7) 0.3855(14) 1. 0 0.018(9) 
O14 O2- 2 a -.003(7) 0.441(7) 0.3913(13) 1. 0 0.011(8) 

#End of data_62650-ICSD


