data_84678-ICSD
#?2014 by Fachinformationszentrum Karlsruhe, and the U.S. Secretary of 
#Commerce on behalf of the United States.  All rights reserved.
_database_code_ICSD                84678
_audit_creation_date               1999/01/19
_audit_update_record               2006/04/01
_chemical_name_systematic
;
Octacalcium Tecto-dodecaaluminate Bis(molybdate)
;
_chemical_formula_structural       'Ca8 (Al12 O24) (Mo O4)2'
_chemical_formula_sum              'Al12 Ca8 Mo2 O32'
_chemical_name_mineral
;
Sodalite CAM (Al-, (MoO4)-exchanged)
;
_publ_section_title
;
Structural characterization of the high-temperature phase transitions 
in Ca8 (Al12 O24) (Mo O4)2 aluminate sodalite using X-ray powder 
diffraction
;
loop_
_citation_id
_citation_journal_abbrev
_citation_year
_citation_journal_volume
_citation_page_first
_citation_page_last
_citation_journal_id_ASTM
primary 'Journal of Solid State Chemistry' 1997 129 130 143 JSSCBI
2 'Phase Transition' 1992 38 127 220 PHTRDP
_publ_author_name
;
van Smaalen, S.;Dinnebier, R.E.;Katzke, H.;Depmeier, W.
;
_cell_length_a                     26.14680(8)
_cell_length_b                     13.07061(4)
_cell_length_c                     9.31413(2)
_cell_angle_alpha                  90.
_cell_angle_beta                   90.
_cell_angle_gamma                  90.
_cell_volume                       3183.15
_cell_formula_units_Z              4
_symmetry_space_group_name_H-M     'A b a 2'
_symmetry_Int_Tables_number        41
_refine_ls_R_factor_all            .047
loop_
_symmetry_equiv_pos_site_id
_symmetry_equiv_pos_as_xyz
  1	'x+.5, -y+.5, z'
  2	'-x+.5, y+.5, z'
  3	'-x, -y, z'
  4	'x, y, z'
  5	'x+.5, -y, z+.5'
  6	'-x+.5, y, z+.5'
  7	'-x, -y+.5, z+.5'
  8	'x, y+.5, z+.5'
loop_
_atom_type_symbol
_atom_type_oxidation_number
Al3+	3
Ca2+	2
Mo6+	6
O2-	-2
loop_
_atom_site_label
_atom_site_type_symbol
_atom_site_symmetry_multiplicity
_atom_site_Wyckoff_symbol
_atom_site_fract_x
_atom_site_fract_y
_atom_site_fract_z
_atom_site_occupancy
_atom_site_attached_hydrogens
_atom_site_U_iso_or_equiv
Ca1 Ca2+ 8 b 0.01792(13) 0.26458(29) 0.2035(5) 1. 0 0.0064(6) 
Ca2 Ca2+ 8 b 0.25015(21) 0.25932(30) 0.2515(5) 1. 0 0.0098(6) 
Ca3 Ca2+ 8 b 0.86265(12) 0.02258(30) 0.2799(5) 1. 0 0.0064(6) 
Ca4 Ca2+ 8 b 0.87991(12) 0.48644(33) 0.2496(5) 1. 0 0.0098(6) 
Al1 Al3+ 8 b 0.18476(24) 0.8754(4) 0.0073(8) 1. 0 0.0055(5) 
Al2 Al3+ 8 b 0.43744(23) 0.1167(4) -.0220(6) 1. 0 0.0055(5) 
Al3 Al3+ 8 b 0.30978(25) 0.1265(4) 0.0103(8) 1. 0 0.0055(5) 
Al4 Al3+ 8 b 0.44122(23) 0.3674(4) -.0009(7) 1. 0 0.0055(5) 
Al5 Al3+ 8 b 0.257250(17) 0.0019(4) 0.2601(9) 1. 0 0.0040(11) 
Al6 Al3+ 4 a 0 0 0.2332(10) 1. 0 0.0063(12) 
Al7 Al3+ 4 a 0.5 0 0.2442(11) 1. 0 0.0063(12) 
O1 O2- 8 b 0.8752(4) 0.4155(8) 0.0166(13) 1. 0 0.0004(6) 
O2 O2- 8 b 0.1202(4) 0.3942(8) 0.5490(13) 1. 0 0.0004(6) 
O3 O2- 8 b -.0194(4) 0.1139(8) 0.1390(12) 1. 0 0.0004(6) 
O4 O2- 8 b 0.2947(4) 0.1009(9) 0.1803(11) 1. 0 0.0004(6) 
O5 O2- 8 b 0.4668(4) 0.0873(8) 0.1402(12) 1. 0 0.0004(6) 
O6 O2- 8 b 0.2175(4) -.0760(8) 0.1480(12) 1. 0 0.0004(6) 
O7 O2- 8 b 0.4542(4) 0.2438(8) -.0630(11) 1. 0 0.0004(6) 
O8 O2- 8 b 0.2934(4) 0.2465(8) -.0209(11) 1. 0 0.0004(6) 
O9 O2- 8 b 0.4525(4) -.0668(8) 0.3350(11) 1. 0 0.0004(6) 
O10 O2- 8 b 0.2855(4) 0.5490(8) 0.3720(11) 1. 0 0.0004(6) 
O11 O2- 8 b -.0529(4) -.0346(7) 0.3221(11) 1. 0 0.0004(6) 
O12 O2- 8 b 0.1937(4) 0.4263(8) 0.3221(12) 1. 0 0.0004(6) 
O13 O2- 8 b 0.8956(4) 0.3676(9) 0.4137(14) 1. 0 0.0222(17) 
O14 O2- 8 b 0.8330(5) 0.1824(10) 0.3726(12) 1. 0 0.0222(17) 
O15 O2- 8 b -.0889(5) 0.1801(9) 0.5852(12) 1. 0 0.0222(17) 
O16 O2- 8 b 0.8224(4) 0.310(1) 0.6279(13) 1. 0 0.0222(17) 
Mo1 Mo6+ 8 b 0.13649(5) 0.24003(13) 0.0021(4) 1. 0 0.0159(3) 

#End of data_84678-ICSD


