data_92307-ICSD
#?2014 by Fachinformationszentrum Karlsruhe, and the U.S. Secretary of 
#Commerce on behalf of the United States.  All rights reserved.
_database_code_ICSD                92307
_audit_creation_date               2002/10/01
_chemical_name_systematic          'Tetralithium Disodium Nitride'
_chemical_formula_structural       'Li4 Na2 N2'
_chemical_formula_sum              'Li4 N2 Na2'
_publ_section_title
;
Investigation of the possible ternary nitrides in the system (Li3 
N)/(Na3 N)
;
loop_
_citation_id
_citation_journal_abbrev
_citation_year
_citation_journal_volume
_citation_page_first
_citation_page_last
_citation_journal_id_ASTM
primary 'Solid State Sciences' 2000 2 449 456 SSSCFJ
_publ_author_name
;
Schoen, J.C.;Wevers, M.A.C.;Jansen, M.
;
_cell_length_a                     3.698
_cell_length_b                     6.365
_cell_length_c                     4.6
_cell_angle_alpha                  90.
_cell_angle_beta                   90.
_cell_angle_gamma                  90.
_cell_volume                       108.27
_cell_formula_units_Z              1
_symmetry_space_group_name_H-M     'C m m m'
_symmetry_Int_Tables_number        65
loop_
_symmetry_equiv_pos_site_id
_symmetry_equiv_pos_as_xyz
  1	'x, -y, z'
  2	'-x, y, z'
  3	'x, y, -z'
  4	'-x, -y, -z'
  5	'-x, y, -z'
  6	'x, -y, -z'
  7	'-x, -y, z'
  8	'x, y, z'
  9	'x+.5, -y+.5, z'
 10	'-x+.5, y+.5, z'
 11	'x+.5, y+.5, -z'
 12	'-x+.5, -y+.5, -z'
 13	'-x+.5, y+.5, -z'
 14	'x+.5, -y+.5, -z'
 15	'-x+.5, -y+.5, z'
 16	'x+.5, y+.5, z'
loop_
_atom_type_symbol
_atom_type_oxidation_number
Li1+	1
N3-	-3
Na1+	1
loop_
_atom_site_label
_atom_site_type_symbol
_atom_site_symmetry_multiplicity
_atom_site_Wyckoff_symbol
_atom_site_fract_x
_atom_site_fract_y
_atom_site_fract_z
_atom_site_occupancy
_atom_site_attached_hydrogens
Li1 Li1+ 4 j 0 0.166 0.5 1. 0 
Na1 Na1+ 2 c 0.5 0 0.5 1. 0 
N1 N3- 2 b 0.5 0 0 1. 0 

#End of data_92307-ICSD


