data_281324-ICSD
#?2014 by Fachinformationszentrum Karlsruhe, and the U.S. Secretary of 
#Commerce on behalf of the United States.  All rights reserved.
_database_code_ICSD                281324
_audit_creation_date               2004/04/01
_chemical_name_systematic
;
Dizinc Tellurium(IV) Trioxide Dichloride
;
_chemical_formula_structural       'Zn2 Te O3 Cl2'
_chemical_formula_sum              'Cl2 O3 Te1 Zn2'
_publ_section_title
;
A synthetic zinc tellurium oxochloride, Zn2 (Te O3) Cl2
;
loop_
_citation_id
_citation_journal_abbrev
_citation_year
_citation_journal_volume
_citation_page_first
_citation_page_last
_citation_journal_id_ASTM
primary 'Acta Crystallographica, Section C: Crystal Structure Communications'
 2003 59 i53 i54 ACSCEE
_publ_author_name                  'Johnsson, M.;Tornroos, K.W.'
_cell_length_a                     10.4467(9)
_cell_length_b                     15.4969(13)
_cell_length_c                     7.6471(6)
_cell_angle_alpha                  90.
_cell_angle_beta                   90.
_cell_angle_gamma                  90.
_cell_volume                       1238
_cell_formula_units_Z              8
_symmetry_space_group_name_H-M     'P c c n'
_symmetry_Int_Tables_number        56
_refine_ls_R_factor_all            .016
loop_
_symmetry_equiv_pos_site_id
_symmetry_equiv_pos_as_xyz
  1	'x, -y+.5, z+.5'
  2	'-x+.5, y, z+.5'
  3	'x+.5, y+.5, -z'
  4	'-x, -y, -z'
  5	'-x, y+.5, -z+.5'
  6	'x+.5, -y, -z+.5'
  7	'-x+.5, -y+.5, z'
  8	'x, y, z'
loop_
_atom_type_symbol
_atom_type_oxidation_number
Cl1-	-1
O2-	-2
Te4+	4
Zn2+	2
loop_
_atom_site_label
_atom_site_type_symbol
_atom_site_symmetry_multiplicity
_atom_site_Wyckoff_symbol
_atom_site_fract_x
_atom_site_fract_y
_atom_site_fract_z
_atom_site_occupancy
_atom_site_attached_hydrogens
_atom_site_U_iso_or_equiv
Te1 Te4+ 8 e 0.02731(1) 0.402129(7) 0.206734(14) 1. 0 0.00851(4) 
Zn1 Zn2+ 8 e -.00533(2) 0.611195(14) 0.34136(3) 1. 0 0.01034(5) 
Zn2 Zn2+ 8 e 0.262829(19) 0.472915(13) 0.39691(3) 1. 0 0.01050(5) 
Cl1 Cl1- 8 e -.08591(5) 0.71091(3) 0.16362(6) 1. 0 0.01791(9) 
Cl2 Cl1- 8 e 0.20529(4) 0.62193(3) 0.42240(5) 1. 0 0.01485(8) 
O1 O2- 8 e 0.08543(12) 0.41703(8) 0.43657(15) 1. 0 0.0109(2) 
O2 O2- 8 e 0.18948(11) 0.44213(8) 0.14190(15) 1. 0 0.0109(2) 
O3 O2- 8 e -.05712(12) 0.51026(8) 0.19405(15) 1. 0 0.0110(2) 

loop_
_atom_site_aniso_label
_atom_site_aniso_type_symbol
_atom_site_aniso_U_11
_atom_site_aniso_U_22
_atom_site_aniso_U_33
_atom_site_aniso_U_12
_atom_site_aniso_U_13
_atom_site_aniso_U_23
Te1 Te4+ 0.00795(6) 0.01028(6) 0.00730(6) 0.00006(3) -0.00070(3) 
-0.00087(3)
Zn1 Zn2+ 0.01156(9) 0.01211(10) 0.00736(9) -0.00078(7) 0.00012(7) 
0.00044(7)
Zn2 Zn2+ 0.00824(9) 0.01573(10) 0.00752(9) -0.00144(7) -0.00034(6) 
0.00048(6)
Cl1 Cl1- 0.0275(2) 0.01342(19) 0.01281(18) 0.00274(16) -0.00504(16) 
0.00109(14)
Cl2 Cl1- 0.01096(18) 0.01445(18) 0.01915(19) -0.00067(14) -0.00075(14) 
-0.00190(14)
O1 O2- 0.0107(5) 0.0144(5) 0.0076(5) -0.0024(4) -0.0005(4) 0.0002(4)
O2 O2- 0.0087(5) 0.0165(6) 0.0076(5) -0.0004(4) 0.0000(4) -0.0002(4)
O3 O2- 0.0088(5) 0.0126(6) 0.0117(5) 0.0010(5) -0.0019(4) -0.0005(4)
#End of data_281324-ICSD


