data_161850-ICSD
#?2014 by Fachinformationszentrum Karlsruhe, and the U.S. Secretary of 
#Commerce on behalf of the United States.  All rights reserved.
_database_code_ICSD                161850
_audit_creation_date               2009/02/01
_chemical_name_systematic          'Sodium Chromium Bis(tungstate)'
_chemical_formula_structural       'Na Cr (W O4)2'
_chemical_formula_sum              'Cr1 Na1 O8 W2'
_publ_section_title
;
The magnetic structures of double tungstates, Na M (W O4)2, M= Fe, 
Cr: examples for superexchange couplings mediated by (Na O6)-
octahedra
;
loop_
_citation_id
_citation_journal_abbrev
_citation_year
_citation_journal_volume
_citation_page_first
_citation_page_last
_citation_journal_id_ASTM
primary 'Journal of Magnetism and Magnetic Materials' 2008 320 3251 3255 JMMMDC
_publ_author_name
;
Nyam-Ochir, L.;Ehrenberg, H.;Buchsteiner, A.;Senyshin, A.;Fuess, 
H.;Sangaa, D.
;
_cell_length_a                     9.8027(2)
_cell_length_b                     5.6993(3)
_cell_length_c                     4.9421(3)
_cell_angle_alpha                  90.
_cell_angle_beta                   90.300(6)
_cell_angle_gamma                  90.
_cell_volume                       276.1
_cell_formula_units_Z              2
_symmetry_space_group_name_H-M     'P 1 2/c 1'
_symmetry_Int_Tables_number        13
loop_
_symmetry_equiv_pos_site_id
_symmetry_equiv_pos_as_xyz
  1	'x, -y, z+.5'
  2	'-x, -y, -z'
  3	'-x, y, -z+.5'
  4	'x, y, z'
loop_
_atom_type_symbol
_atom_type_oxidation_number
Cr3+	3
Na1+	1
O2-	-2
W6+	6
loop_
_atom_site_label
_atom_site_type_symbol
_atom_site_symmetry_multiplicity
_atom_site_Wyckoff_symbol
_atom_site_fract_x
_atom_site_fract_y
_atom_site_fract_z
_atom_site_occupancy
_atom_site_attached_hydrogens
W1 W6+ 4 g 0.2362(12) 0.1798(21) 0.2647(33) 1. 0 
Cr1 Cr3+ 2 e 0 0.6546(42) 0.250 1. 0 
Na1 Na1+ 2 f 0.5 0.6951(41) 0.250 1. 0 
O1 O2- 4 g 0.1061(12) 0.6224(27) 0.5939(25) 1. 0 
O2 O2- 4 g 0.3531(13) 0.3827(18) 0.3831(19) 1. 0 
O3 O2- 4 g 0.3312(11) 0.0882(16) 0.9546(22) 1. 0 
O4 O2- 4 g 0.1235(13) 0.1236(21) 0.5810(26) 1. 0 

#End of data_161850-ICSD


