data_171985-ICSD
#?2014 by Fachinformationszentrum Karlsruhe, and the U.S. Secretary of 
#Commerce on behalf of the United States.  All rights reserved.
_database_code_ICSD                171985
_audit_creation_date               2007/04/01
_chemical_name_systematic          'Dibarium Calcium Tungstate'
_chemical_formula_structural       'Ba2 Ca W O6'
_chemical_formula_sum              'Ba2 Ca1 O6 W1'
_chemical_name_mineral             'Perovskite, double'
_publ_section_title
;
Structural phase transition and magnetic properties of double 
perovskites Ba2 Ca M O6 (M = W, Re, Os)
;
loop_
_citation_id
_citation_journal_abbrev
_citation_year
_citation_journal_volume
_citation_journal_issue
_citation_page_first
_citation_page_last
_citation_journal_id_ASTM
primary 'Journal of Solid State Chemistry' 2006 179 3 605 612 JSSCBI
_publ_author_name
;
Yamamura, Y.;Wakeshima, M.;Hinatsu, Y.
;
_cell_length_a                     5.910(5)
_cell_length_b                     5.929(5)
_cell_length_c                     8.375(7)
_cell_angle_alpha                  90.
_cell_angle_beta                   89.74(1)
_cell_angle_gamma                  90.
_cell_volume                       293.46
_cell_formula_units_Z              2
_symmetry_space_group_name_H-M     'I 1 2/m 1'
_symmetry_Int_Tables_number        12
_refine_ls_R_factor_all            .074
loop_
_symmetry_equiv_pos_site_id
_symmetry_equiv_pos_as_xyz
  1	'x, -y, z'
  2	'-x, -y, -z'
  3	'-x, y, -z'
  4	'x, y, z'
  5	'x+.5, -y+.5, z+.5'
  6	'-x+.5, -y+.5, -z+.5'
  7	'-x+.5, y+.5, -z+.5'
  8	'x+.5, y+.5, z+.5'
loop_
_atom_type_symbol
_atom_type_oxidation_number
Ba2+	2
Ca2+	2
O2-	-2
W6+	6
loop_
_atom_site_label
_atom_site_type_symbol
_atom_site_symmetry_multiplicity
_atom_site_Wyckoff_symbol
_atom_site_fract_x
_atom_site_fract_y
_atom_site_fract_z
_atom_site_occupancy
_atom_site_attached_hydrogens
_atom_site_B_iso_or_equiv
Ba1 Ba2+ 4 i 0.4974(1) 0.5 0.248(1) 1. 0 .4 
Ca1 Ca2+ 2 c 0.5 0 0 1. 0 .6 
W1 W6+ 2 b 0 0.5 0 1. 0 .3 
O1 O2- 4 i 0.530(9) 0 0.275(5) 1. 0 1.0 
O2 O2- 8 j 0.253(5) 0.724(5) 0.020(2) 1. 0 1.0 

#End of data_171985-ICSD


