data_170125-ICSD
#?2014 by Fachinformationszentrum Karlsruhe, and the U.S. Secretary of 
#Commerce on behalf of the United States.  All rights reserved.
_database_code_ICSD                170125
_audit_creation_date               2006/04/01
_audit_update_record               2010/08/01
_chemical_name_systematic          'Potassium Tetracyanothallate'
_chemical_formula_structural       'K (Tl (C N)4)'
_chemical_formula_sum              'C4 K1 N4 Tl1'
_publ_section_title
;
Solubility, complex formation, and redox reactions in the Tl2 O3-H C 
N/C N(-)-H2 O system. Crystal structures of cyano compounds Tl (C N) 
* (H2 O), Na [Tl (C N)4] * 3(H2 O), K [Tl (C N)3], and Tl(I) [Tl(III) 
(C N)4] and of Tl(I)2 C2 O4
;
loop_
_citation_id
_citation_journal_abbrev
_citation_year
_citation_journal_volume
_citation_journal_issue
_citation_page_first
_citation_page_last
_citation_journal_id_ASTM
primary 'Inorganic Chemistry' 2005 44 7 2347 2357 INOCAJ
_publ_author_name
;
Nagy, P.;Fischer, A.;Glaser, J.;Ilyukhin, A.;Maliarik, M.;Toth, I.
;
_cell_length_a                     7.5470(9)
_cell_length_b                     7.5470(9)
_cell_length_c                     14.987(2)
_cell_angle_alpha                  90.
_cell_angle_beta                   90.
_cell_angle_gamma                  90.
_cell_volume                       853.62
_cell_formula_units_Z              4
_symmetry_space_group_name_H-M     'I 41/a Z'
_symmetry_Int_Tables_number        88
_refine_ls_R_factor_all            .146
loop_
_symmetry_equiv_pos_site_id
_symmetry_equiv_pos_as_xyz
  1	'-y+.75, x+.75, -z+.75'
  2	'y+.25, -x+.75, -z+.75'
  3	'x, y+.5, -z'
  4	'-x, -y, -z'
  5	'y+.25, -x+.25, z+.25'
  6	'-y+.75, x+.25, z+.25'
  7	'-x, -y+.5, z'
  8	'x, y, z'
  9	'-y+.25, x+.25, -z+.25'
 10	'y+.75, -x+.25, -z+.25'
 11	'x+.5, y, -z+.5'
 12	'-x+.5, -y+.5, -z+.5'
 13	'y+.75, -x+.75, z+.75'
 14	'-y+.25, x+.75, z+.75'
 15	'-x+.5, -y, z+.5'
 16	'x+.5, y+.5, z+.5'
loop_
_atom_type_symbol
_atom_type_oxidation_number
C2+	2
K1+	1
N3-	-3
Tl3+	3
loop_
_atom_site_label
_atom_site_type_symbol
_atom_site_symmetry_multiplicity
_atom_site_Wyckoff_symbol
_atom_site_fract_x
_atom_site_fract_y
_atom_site_fract_z
_atom_site_occupancy
_atom_site_attached_hydrogens
_atom_site_U_iso_or_equiv
Tl1 Tl3+ 4 a 0.0000 0.2500 0.1250 1 0 0.0338(2) 
K1 K1+ 4 b 0.5000 0.2500 -0.1250 1 0 0.0579(9) 
N1 N3- 16 f 0.2817(14) 0.4710(15) -0.0046(10) 1 0 0.060(2) 
C1 C2+ 16 f 0.1838(13) 0.3947(14) 0.0403(6) 1 0 0.0454(19) 

loop_
_atom_site_aniso_label
_atom_site_aniso_type_symbol
_atom_site_aniso_U_11
_atom_site_aniso_U_22
_atom_site_aniso_U_33
_atom_site_aniso_U_12
_atom_site_aniso_U_13
_atom_site_aniso_U_23
Tl1 Tl3+ 0.0383(3) 0.0383(3) 0.0249(2) 0.000 0.000 0.000
K1 K1+ 0.0562(13) 0.0562(13) 0.061(2) 0.000 0.000 0.000
N1 N3- 0.053(5) 0.069(6) 0.059(5) -0.015(4) 0.024(5) 0.018(6)
C1 C2+ 0.045(4) 0.053(5) 0.038(4) 0.011(4) 0.000(4) 0.010(4)
#End of data_170125-ICSD


