data_30511-ICSD
#?2014 by Fachinformationszentrum Karlsruhe, and the U.S. Secretary of 
#Commerce on behalf of the United States.  All rights reserved.
_database_code_ICSD                30511
_audit_creation_date               1980/01/01
_audit_update_record               2004/10/01
_chemical_name_systematic
;
Tripotassium Hydrogen Bis(dihydrogendiphosphate(V))
;
_chemical_formula_structural       'K3 H (H2 P2 O7)2'
_chemical_formula_sum              'H5 K3 O14 P4'
_publ_section_title
;
Structure cristalline de l'hydrogeno bis(dihydrogenopyro-phosphate) 
tripotassique: K3 H (H2 P2 O7)2
;
loop_
_citation_id
_citation_journal_abbrev
_citation_year
_citation_journal_volume
_citation_page_first
_citation_page_last
_citation_journal_id_ASTM
primary 'Acta Crystallographica B (24,1968-38,1982)' 1978 34 3514 3519 ACBCAR
_publ_author_name                  'Dumas, Y.'
_cell_length_a                     17.19(1)
_cell_length_b                     8.975(5)
_cell_length_c                     10.921(8)
_cell_angle_alpha                  90.
_cell_angle_beta                   128.59
_cell_angle_gamma                  90.
_cell_volume                       1316.96
_cell_formula_units_Z              4
_symmetry_space_group_name_H-M     'C 1 2/c 1'
_symmetry_Int_Tables_number        15
_refine_ls_R_factor_all            .061
loop_
_symmetry_equiv_pos_site_id
_symmetry_equiv_pos_as_xyz
  1	'x, -y, z+.5'
  2	'-x, -y, -z'
  3	'-x, y, -z+.5'
  4	'x, y, z'
  5	'x+.5, -y+.5, z+.5'
  6	'-x+.5, -y+.5, -z'
  7	'-x+.5, y+.5, -z+.5'
  8	'x+.5, y+.5, z'
loop_
_atom_type_symbol
_atom_type_oxidation_number
H1+	1
K1+	1
O2-	-2
P5+	5
loop_
_atom_site_label
_atom_site_type_symbol
_atom_site_symmetry_multiplicity
_atom_site_Wyckoff_symbol
_atom_site_fract_x
_atom_site_fract_y
_atom_site_fract_z
_atom_site_occupancy
_atom_site_attached_hydrogens
K1 K1+ 4 e 0.5 -.0594(3) 0.25 1. 0 
K2 K1+ 8 f 0.3483(1) 0.5544(2) 0.1145(2) 1. 0 
P1 P5+ 8 f 0.3227(2) 0.1904(2) 0.3090(3) 1. 0 
P2 P5+ 8 f 0.5324(2) 0.2602(2) 0.4845(3) 1. 0 
O1 O2- 8 f 0.3260(4) 0.1833(6) 0.4469(5) 1. 0 
O2 O2- 8 f 0.2649(4) 0.0574(6) 0.1928(5) 1. 0 
O3 O2- 8 f 0.2826(4) 0.3318(6) 0.2111(6) 1. 0 
O4 O2- 8 f 0.4326(3) 0.1661(5) 0.3635(6) 1. 0 
O5 O2- 8 f 0.5108(4) 0.4206(5) 0.4204(6) 1. 0 
O6 O2- 8 f 0.5674(4) 0.2473(6) 0.6473(6) 1. 0 
O7 O2- 8 f 0.6012(3) 0.1845(6) 0.4558(6) 1. 0 
H1 H1+ 4 a 0.5 0.5 0.5 1. 0 
H2 H1+ 8 f 0.664(6) 0.178(7) 0.532(10) 1. 0 
H3 H1+ 8 f 0.234(6) -.015(7) 0.206(10) 1. 0 

#End of data_30511-ICSD


