data_78362-ICSD
#?2014 by Fachinformationszentrum Karlsruhe, and the U.S. Secretary of 
#Commerce on behalf of the United States.  All rights reserved.
_database_code_ICSD                78362
_audit_creation_date               1996/04/22
_audit_update_record               2012/02/01
_chemical_name_systematic
;
Calcium Diiron(III) Bis(phosphate(V)) Hydrogenphosphate(V)
;
_chemical_formula_structural       'Ca Fe2 (P O4)2 (H P O4)'
_chemical_formula_sum              'H1 Ca1 Fe2 O12 P3'
_publ_section_title
;
Ca M2 (P O4)2 (H P O4) (M= Fe or V): phosphates containing dimers of 
edge-sharing MO6 octahedra
;
loop_
_citation_id
_citation_journal_abbrev
_citation_year
_citation_journal_volume
_citation_page_first
_citation_page_last
_citation_journal_id_ASTM
primary
;
Journal of the Chemical Society. Dalton Transactions, Inorganic 
Chemistry (1972-)
;
 1994 1994 931 935 JCDTBI
_publ_author_name                  'Lii, K.-H.'
_cell_length_a                     6.3663(6)
_cell_length_b                     19.752(2)
_cell_length_c                     6.5030(8)
_cell_angle_alpha                  90.
_cell_angle_beta                   91.626(9)
_cell_angle_gamma                  90.
_cell_volume                       817.4
_cell_formula_units_Z              4
_symmetry_space_group_name_H-M     'P 1 21/n 1'
_symmetry_Int_Tables_number        14
_refine_ls_R_factor_all            .024
loop_
_symmetry_equiv_pos_site_id
_symmetry_equiv_pos_as_xyz
  1	'-x+.5, y+.5, -z+.5'
  2	'-x, -y, -z'
  3	'x+.5, -y+.5, z+.5'
  4	'x, y, z'
loop_
_atom_type_symbol
_atom_type_oxidation_number
Ca2+	2
Fe3+	3
H1+	1
O2-	-2
P5+	5
loop_
_atom_site_label
_atom_site_type_symbol
_atom_site_symmetry_multiplicity
_atom_site_Wyckoff_symbol
_atom_site_fract_x
_atom_site_fract_y
_atom_site_fract_z
_atom_site_occupancy
_atom_site_attached_hydrogens
_atom_site_U_iso_or_equiv
Ca1 Ca2+ 4 e 0.6434(1) 0.42125(3) 0.4379(1) 1. 0 0 
Fe1 Fe3+ 4 e 0.09412(6) 0.40287(2) 0.77923(6) 1. 0 0 
Fe2 Fe3+ 4 e 0.05848(7) 0.28819(2) 0.40360(7) 1. 0 0 
P1 P5+ 4 e 0.5828(1) 0.37940(4) 0.8849(1) 1. 0 0 
P2 P5+ 4 e 0.0573(1) 0.24716(4) 0.9114(1) 1. 0 0 
P3 P5+ 4 e 0.1160(1) 0.44844(4) 1.2836(1) 1. 0 0 
O1 O2- 4 e 0.7863(3) 0.3915(1) 0.7751(3) 1. 0 0 
O2 O2- 4 e 0.5837(4) 0.4276(1) 1.0757(3) 1. 0 0 
O3 O2- 4 e 0.4036(3) 0.4010(1) 0.7362(3) 1. 0 0 
O4 O2- 4 e 0.5589(4) 0.3079(1) 0.9598(4) 1. 0 0 
O5 O2- 4 e 0.0907(3) 0.3000(1) 0.7358(3) 1. 0 0 
O6 O2- 4 e 0.0242(4) 0.2856(1) 1.1095(3) 1. 0 0 
O7 O2- 4 e -.1333(4) 0.2008(1) 0.8665(4) 1. 0 0 
O8 O2- 4 e 0.2464(3) 0.1993(1) 0.9260(4) 1. 0 0 
O9 O2- 4 e 0.1386(4) 0.4181(1) 1.0689(3) 1. 0 0 
O10 O2- 4 e 0.0440(3) 0.3916(1) 0.4371(3) 1. 0 0 
O11 O2- 4 e 0.3236(3) 0.4776(1) 1.3620(3) 1. 0 0 
O12 O2- 4 e -.0659(3) 0.4998(1) 1.2828(3) 1. 0 0 
H1 H1+ 4 e 0.4599 0.4458 0.1075 1. 0 0.05 

loop_
_atom_site_aniso_label
_atom_site_aniso_type_symbol
_atom_site_aniso_U_11
_atom_site_aniso_U_22
_atom_site_aniso_U_33
_atom_site_aniso_U_12
_atom_site_aniso_U_13
_atom_site_aniso_U_23
Ca1 Ca2+ 0.01360(33) 0.01558(34) 0.01050(32) 0.00318(23) 0.00094(24) 
-.00068(24)
Fe1 Fe3+ 0.00795(24) 0.00843(26) 0.00854(25) 0.00050(15) 0.00145(16) 
-.00074(16)
Fe2 Fe3+ 0.01169(26) 0.00906(25) 0.01052(27) 0.00079(15) 0.00114(18) 
-.00178(15)
P1 P5+ 0.00779(35) 0.00919(37) 0.00815(38) -.00053(26) 0.00150(27) 
0.00121(26)
P2 P5+ 0.00952(36) 0.00752(36) 0.00606(39) -.00032(26) 0.00136(29) 
0.00014(26)
P3 P5+ 0.00792(36) 0.00782(38) 0.00567(37) 0.00044(26) 0.00198(28) 
0.00075(26)
O1 O2- 0.00775(98) 0.0157(11) 0.0108(11) -.00134(81) 0.00237(83) 
-.00124(83)
O2 O2- 0.0172(12) 0.0168(11) 0.0107(11) 0.00445(86) 0.00167(89) -.00681(87)
O3 O2- 0.0085(10) 0.0161(12) 0.0107(11) -.00120(79) 0.00133(83) 0.00310(82)
O4 O2- 0.0194(11) 0.0106(10) 0.0139(11) 0.00004(86) 0.00072(89) 0.00679(89)
O5 O2- 0.0115(10) 0.0098(10) 0.0079(10) -.00027(79) 0.00092(79) 0.00246(80)
O6 O2- 0.0188(12) 0.0146(11) 0.0082(11) 0.00237(86) 0.00200(89) -.00260(83)
O7 O2- 0.0117(10) 0.0132(10) 0.0159(12) -.00164(83) 0.00213(85) 0.00003(86)
O8 O2- 0.00956(99) 0.01033(99) 0.0154(11) 0.00353(79) 0.00195(83) 
0.00376(85)
O9 O2- 0.0160(11) 0.0151(10) 0.0076(10) 0.00289(86) 0.00294(85) -.00159(84)
O10 O2- 0.0112(10) 0.00832(96) 0.00878(99) -.00005(75) 0.00318(79) 
0.00128(79)
O11 O2- 0.0112(10) 0.00870(97) 0.0116(10) 0.00061(77) -.00029(85) 
0.00135(80)
O12 O2- 0.01081(99) 0.0105(10) 0.0104(11) 0.00093(79) 0.00271(83) 
0.00082(81)
#End of data_78362-ICSD


