data_419312-ICSD
#?2014 by Fachinformationszentrum Karlsruhe, and the U.S. Secretary of 
#Commerce on behalf of the United States.  All rights reserved.
_database_code_ICSD                419312
_audit_creation_date               2010/08/01
_chemical_name_systematic          'Dibarium Magnesium Digermanate'
_chemical_formula_structural       'Ba2 Mg (Ge2 O7)'
_chemical_formula_sum              'Ba2 Ge2 Mg1 O7'
_publ_section_title
;
Tetragonal Ba2 Mg Ge2 O7 - a novel multifunctional optical crystal 
with numerous manifestations of nonlinear-laser effects: almost 
sesqui-octave Stokes and anti-Stokes combs and cascaded chi(3) - 
chi(2) lasing with involved second and third harmonic gener
;
loop_
_citation_id
_citation_journal_abbrev
_citation_year
_citation_journal_volume
_citation_journal_issue
_citation_page_first
_citation_page_last
_citation_journal_id_ASTM
primary 'Laser Physics Letters' 2008 5 12 845 868 LPLABC
_publ_author_name
;
Kaminskii, A.A.;Bohaty, L.;Becker, P.;Liebertz, J.;Held, P.;Eichler, 
H.J.;Rhee, H.;Hanuza, J.
;
_cell_length_a                     8.3667(11)
_cell_length_b                     8.3667(11)
_cell_length_c                     5.542(2)
_cell_angle_alpha                  90.
_cell_angle_beta                   90.
_cell_angle_gamma                  90.
_cell_volume                       387.95
_cell_formula_units_Z              2
_symmetry_space_group_name_H-M     'P -4 21 m'
_symmetry_Int_Tables_number        113
_refine_ls_R_factor_all            .0214
loop_
_symmetry_equiv_pos_site_id
_symmetry_equiv_pos_as_xyz
  1	'-y+.5, -x+.5, z'
  2	'y, -x, -z'
  3	'y+.5, x+.5, z'
  4	'-y, x, -z'
  5	'x+.5, -y+.5, -z'
  6	'-x, -y, z'
  7	'-x+.5, y+.5, -z'
  8	'x, y, z'
loop_
_atom_type_symbol
_atom_type_oxidation_number
Ba2+	2
Ge4+	4
Mg2+	2
O2-	-2
loop_
_atom_site_label
_atom_site_type_symbol
_atom_site_symmetry_multiplicity
_atom_site_Wyckoff_symbol
_atom_site_fract_x
_atom_site_fract_y
_atom_site_fract_z
_atom_site_occupancy
_atom_site_attached_hydrogens
_atom_site_U_iso_or_equiv
Ba1 Ba2+ 4 e 0.33496(3) 0.16504(3) 0.50832(7) 1. 0 0.00839(13) 
Ge1 Ge4+ 4 e 0.14079(6) 0.35921(6) 0.95757(12) 1. 0 0.00547(16) 
Mg1 Mg2+ 2 a 0 0 0 1. 0 0.0075(5) 
O1 O2- 2 c 0.5 0 0.1608(14) 1. 0 0.0103(13) 
O2 O2- 4 e 0.1391(5) 0.3609(5) 0.2692(8) 1. 0 0.0108(9) 
O3 O2- 8 f 0.0795(4) 0.1834(4) 0.8144(7) 1. 0 0 

loop_
_atom_site_aniso_label
_atom_site_aniso_type_symbol
_atom_site_aniso_U_11
_atom_site_aniso_U_22
_atom_site_aniso_U_33
_atom_site_aniso_U_12
_atom_site_aniso_U_13
_atom_site_aniso_U_23
Ba1 Ba2+ 0.00869(14) 0.00869(14) 0.00789(19) 0.00221(10) 0.0004(1) 
-0.0004(1)
Ge1 Ge4+ 0.00572(18) 0.00572(18) 0.0050(3) 0.0006(2) 0.00000(17) 
0.00000(17)
Mg1 Mg2+ 0.0061(7) 0.0061(7) 0.0102(14) 0 0 0
O1 O2- 0.010(2) 0.010(2) 0.010(3) -0.007(3) 0 0
O2 O2- 0.0144(14) 0.0144(14) 0.004(2) 0.002(2) 0.0001(13) -0.0001(13)
O3 O2- 0.0120(16) 0.0050(15) 0.0132(19) -0.0049(12) 0.0013(13) -0.0019(13)
#End of data_419312-ICSD


