data_401202-ICSD
#?2014 by Fachinformationszentrum Karlsruhe, and the U.S. Secretary of 
#Commerce on behalf of the United States.  All rights reserved.
_database_code_ICSD                401202
_audit_creation_date               1996/10/14
_audit_update_record               2003/04/01
_chemical_name_systematic
;
Sodium Triiron Trivanadium Dodecaoxide
;
_chemical_formula_structural       'Na Fe3 V3 O12'
_chemical_formula_sum              'Fe3 Na1 O12 V3'
_publ_section_title
;
Eine synthetische Spezies zum Mineral Howardevansit mit Eisen 
anstelle von Kupfer: Na Fe3 V3 O12
;
loop_
_citation_id
_citation_journal_abbrev
_citation_year
_citation_journal_volume
_citation_page_first
_citation_page_last
_citation_journal_id_ASTM
primary 'Zeitschrift fuer Naturforschung, B: Chemical Sciences'
 1995 50 51 55 ZNBSEN
_publ_author_name                  'Martin, F.D.;Mueller Buschbaum, H.'
_cell_length_a                     6.7570(15)
_cell_length_b                     8.155(2)
_cell_length_c                     9.816(2)
_cell_angle_alpha                  106.053(13)
_cell_angle_beta                   104.401(9)
_cell_angle_gamma                  102.093(14)
_cell_volume                       480.44
_cell_formula_units_Z              2
_symmetry_space_group_name_H-M     'P 1'
_symmetry_Int_Tables_number        1
_refine_ls_R_factor_all            .0813
loop_
_symmetry_equiv_pos_site_id
_symmetry_equiv_pos_as_xyz
  1	'x, y, z'
loop_
_atom_type_symbol
_atom_type_oxidation_number
Fe3+	3
Na1+	1
O2-	-2
V4.68+	4.68
loop_
_atom_site_label
_atom_site_type_symbol
_atom_site_symmetry_multiplicity
_atom_site_Wyckoff_symbol
_atom_site_fract_x
_atom_site_fract_y
_atom_site_fract_z
_atom_site_occupancy
_atom_site_attached_hydrogens
_atom_site_U_iso_or_equiv
Na1 Na1+ 1 a 0.9894(5) 0.0242(5) 0.5534(4) 1. 0 0.0375(7) 
Na2 Na1+ 1 a 0.4643(4) 0.9897(3) 0.4684(3) 1. 0 0.0215(5) 
Fe1 Fe3+ 1 a 0.1195 0.5514 0.394 1. 0 0.01695(13) 
Fe2 Fe3+ 1 a 0.88076(11) 0.44889(9) 0.60599(8) 1. 0 0.01455(13) 
Fe3 Fe3+ 1 a 0.45661(12) 0.29372(10) 0.98329(8) 1. 0 0.01584(12) 
Fe4 Fe3+ 1 a 0.54440(12) 0.70648(10) 0.01626(9) 1. 0 0.01557(13) 
Fe5 Fe3+ 1 a 0.77690(11) 0.77221(9) 0.79588(8) 1. 0 0.01362(12) 
Fe6 Fe3+ 1 a 0.22671(11) 0.22975(9) 0.20428(8) 1. 0 0.01237(12) 
V1 V4.68+ 1 a 0.38971(10) 0.41310(8) 0.66896(7) 1. 0 0.00571(10) 
V2 V4.68+ 1 a 0.61277(11) 0.58797(9) 0.33097(8) 1. 0 0.00612(11) 
V3 V4.68+ 1 a 0.27351(10) 0.83298(9) 0.73663(7) 1. 0 0.00646(10) 
V4 V4.68+ 1 a 0.73173(11) 0.16745(9) 0.26311(7) 1. 0 0.00574(11) 
V5 V4.68+ 1 a 0.09727(10) 0.78261(9) 0.12588(7) 1. 0 0.00687(11) 
V6 V4.68+ 1 a 0.90932(11) 0.21981(9) 0.87359(8) 1. 0 0.00703(11) 
O1 O2- 1 a 0.4202(5) 0.4420(4) 0.8586(3) 1. 0 0.0099(5) 
O2 O2- 1 a 0.5848(5) 0.5535(4) 0.1445(4) 1. 0 0.0090(5) 
O3 O2- 1 a 0.3713(5) 0.4805(4) 0.3479(3) 1. 0 0.0101(5) 
O4 O2- 1 a 0.6352(5) 0.5312(4) 0.6543(4) 1. 0 0.0087(5) 
O5 O2- 1 a 0.2602(5) 0.8080(4) 0.5595(4) 1. 0 0.0110(5) 
O6 O2- 1 a 0.7503(5) 0.2013(4) 0.4506(4) 1. 0 0.0106(6) 
O7 O2- 1 a 0.5073(5) 0.2216(5) 0.1688(4) 1. 0 0.0133(6) 
O8 O2- 1 a 0.4907(5) 0.7692(4) 0.8281(3) 1. 0 0.0056(5) 
O9 O2- 1 a 0.1564(5) 0.2555(4) 0.0140(3) 1. 0 0.0100(5) 
O10 O2- 1 a 0.8429(5) 0.7354(4) 0.9892(4) 1. 0 0.0089(5) 
O11 O2- 1 a 0.1730(5) 0.4679(4) 0.5808(3) 1. 0 0.0087(5) 
O12 O2- 1 a 0.8308(5) 0.5202(4) 0.4194(3) 1. 0 0.0072(5) 
O13 O2- 1 a 0.0263(5) 0.7186(4) 0.7379(4) 1. 0 0.0121(6) 
O14 O2- 1 a 0.9801(5) 0.2802(4) 0.2565(3) 1. 0 0.0067(5) 
O15 O2- 1 a 0.3112(5) 0.0521(5) 0.8236(4) 1. 0 0.0133(6) 
O16 O2- 1 a 0.6867(6) 0.9536(5) 0.1817(4) 1. 0 0.0155(7) 
O17 O2- 1 a 0.3352(6) 0.1984(5) 0.5844(4) 1. 0 0.0140(6) 
O18 O2- 1 a 0.6589(6) 0.7974(5) 0.4204(4) 1. 0 0.0153(7) 
O19 O2- 1 a 0.1948(6) 0.0061(5) 0.2419(4) 1. 0 0.0175(7) 
O20 O2- 1 a 0.8155(6) 0.9929(5) 0.7699(4) 1. 0 0.0147(6) 
O21 O2- 1 a 0.2747(6) 0.7321(5) 0.0473(4) 1. 0 0.0161(6) 
O22 O2- 1 a 0.7377(6) 0.2766(5) 0.9636(4) 1. 0 0.0141(6) 
O23 O2- 1 a 0.0725(7) 0.6615(6) 0.2364(5) 1. 0 0.0206(7) 
O24 O2- 1 a 0.9338(5) 0.3263(5) 0.7511(4) 1. 0 0.0126(6) 

#End of data_401202-ICSD


