data_419827-ICSD
#?2014 by Fachinformationszentrum Karlsruhe, and the U.S. Secretary of 
#Commerce on behalf of the United States.  All rights reserved.
_database_code_ICSD                419827
_audit_creation_date               2009/08/01
_audit_update_record               2010/08/01
_chemical_name_systematic          'Thallium Tetraiodoaluminate'
_chemical_formula_structural       'Tl (Al I4)'
_chemical_formula_sum              'Al1 I4 Tl1'
_publ_section_title
;
A systematic study on the crystal structures of Tl M X4 (M= Al, Ga; 
X= Cl, Br, I)
;
loop_
_citation_id
_citation_journal_abbrev
_citation_year
_citation_journal_volume
_citation_journal_issue
_citation_page_first
_citation_page_last
_citation_journal_id_ASTM
primary 'Zeitschrift fuer Anorganische und Allgemeine Chemie (1950) (DE)'
 2009 635 6-7 840 847 ZAACAB
_publ_author_name                  'Timofte, T.;Mudring, A.V.'
_cell_length_a                     8.225(9)
_cell_length_b                     7.844(7)
_cell_length_c                     15.973(16)
_cell_angle_alpha                  90
_cell_angle_beta                   96.02(2)
_cell_angle_gamma                  90
_cell_volume                       1024.85
_cell_formula_units_Z              4
_symmetry_space_group_name_H-M     'P 1 21/c 1'
_symmetry_Int_Tables_number        14
_refine_ls_R_factor_all            .1079
loop_
_symmetry_equiv_pos_site_id
_symmetry_equiv_pos_as_xyz
  1	'x, -y+.5, z+.5'
  2	'-x, -y, -z'
  3	'-x, y+.5, -z+.5'
  4	'x, y, z'
loop_
_atom_type_symbol
_atom_type_oxidation_number
Al3+	3
I1-	-1
Tl1+	1
loop_
_atom_site_label
_atom_site_type_symbol
_atom_site_symmetry_multiplicity
_atom_site_Wyckoff_symbol
_atom_site_fract_x
_atom_site_fract_y
_atom_site_fract_z
_atom_site_occupancy
_atom_site_attached_hydrogens
_atom_site_U_iso_or_equiv
Tl1 Tl1+ 4 e 1.7445(4) -1.0006(5) 0.6382(2) 1 0 0.0977(14) 
I1 I1- 4 e 1.1419(6) -0.8527(6) 0.5892(3) 1 0 0.0740(15) 
I2 I1- 4 e 1.0178(6) -1.3530(6) 0.6600(3) 1 0 0.0807(16) 
I3 I1- 4 e 1.4183(6) -1.2675(7) 0.5309(3) 1 0 0.0818(16) 
I4 I1- 4 e 1.4205(6) -1.1099(6) 0.7788(2) 1 0 0.0755(15) 
Al1 Al3+ 4 e 1.244(2) -1.140(2) 0.6401(11) 1 0 0.063(5) 

loop_
_atom_site_aniso_label
_atom_site_aniso_type_symbol
_atom_site_aniso_U_11
_atom_site_aniso_U_22
_atom_site_aniso_U_33
_atom_site_aniso_U_12
_atom_site_aniso_U_13
_atom_site_aniso_U_23
Tl1 Tl1+ 0.0817(19) 0.114(3) 0.098(2) 0.0049(18) 0.0127(15) -0.014(2)
I1 I1- 0.088(3) 0.067(3) 0.066(3) 0.007(2) 0.005(2) 0.009(3)
I2 I1- 0.091(3) 0.072(4) 0.078(3) -0.013(2) 0.004(2) 0.009(3)
I3 I1- 0.099(3) 0.092(4) 0.056(2) 0.016(3) 0.015(2) -0.006(3)
I4 I1- 0.093(3) 0.079(4) 0.051(2) -0.002(2) -0.008(2) 0.000(3)
Al1 Al3+ 0.101(14) 0.036(11) 0.057(10) -0.010(9) 0.033(9) -0.009(9)
#End of data_419827-ICSD


