data_241132-ICSD
#?2014 by Fachinformationszentrum Karlsruhe, and the U.S. Secretary of 
#Commerce on behalf of the United States.  All rights reserved.
_database_code_ICSD                241132
_audit_creation_date               2008/08/01
_chemical_name_systematic
;
Dipotassium Mue3-oxido-tris(sulfato(IV)mercury(II))
;
_chemical_formula_structural       'K2 (O (Hg S O3)3)'
_chemical_formula_sum              'Hg3 K2 O10 S3'
_publ_section_title
;
K2 [O (Hg S O3)3], a new sulfite mercurate with an [O Hg3] core
;
loop_
_citation_id
_citation_journal_abbrev
_citation_year
_citation_journal_volume
_citation_journal_issue
_citation_page_first
_citation_page_last
_citation_journal_id_ASTM
primary 'Acta Crystallographica, Section C: Crystal Structure Communications'
 2008 64 4 i35 i37 ACSCEE
_publ_author_name
;
Weil, M.;Baumann, S.;Breitinger, D.K.
;
_cell_length_a                     7.352(4)
_cell_length_b                     20.734(11)
_cell_length_c                     7.780(4)
_cell_angle_alpha                  90.00
_cell_angle_beta                   90.00
_cell_angle_gamma                  90.00
_cell_volume                       1185.95
_cell_formula_units_Z              4
_symmetry_space_group_name_H-M     'P n m a'
_symmetry_Int_Tables_number        62
_refine_ls_R_factor_all            .0228
loop_
_symmetry_equiv_pos_site_id
_symmetry_equiv_pos_as_xyz
  1	'x+.5, y, -z+.5'
  2	'x, -y+.5, z'
  3	'-x+.5, y+.5, z+.5'
  4	'-x, -y, -z'
  5	'-x+.5, -y, z+.5'
  6	'-x, y+.5, -z'
  7	'x+.5, -y+.5, -z+.5'
  8	'x, y, z'
loop_
_atom_type_symbol
_atom_type_oxidation_number
Hg2+	2
K1+	1
O2-	-2
S4+	4
loop_
_atom_site_label
_atom_site_type_symbol
_atom_site_symmetry_multiplicity
_atom_site_Wyckoff_symbol
_atom_site_fract_x
_atom_site_fract_y
_atom_site_fract_z
_atom_site_occupancy
_atom_site_attached_hydrogens
_atom_site_U_iso_or_equiv
Hg1 Hg2+ 8 d 0.22565(3) 0.170861(10) 0.76734(3) 1 0 0.01824(8) 
Hg2 Hg2+ 4 c 0.05090(3) 0.2500 0.41045(3) 1 0 0.01651(9) 
K1 K1+ 8 d -0.13687(15) 0.05982(6) 0.13114(18) 1 0 0.0265(3) 
S1 S4+ 8 d 0.36893(15) 0.08535(6) 0.90930(16) 1 0 0.0168(2) 
S2 S4+ 4 c 0.0100(2) 0.2500 0.1142(2) 1 0 0.0141(3) 
O1 O2- 8 d 0.5250(5) 0.1127(2) 1.0028(6) 1 0 0.0271(9) 
O2 O2- 8 d 0.4237(6) 0.0389(2) 0.7793(6) 1 0 0.0331(10) 
O3 O2- 8 d 0.2341(5) 0.0593(2) 1.0274(6) 1 0 0.0285(9) 
O4 O2- 8 d -0.0900(5) 0.1915(2) 0.0636(5) 1 0 0.0260(8) 
O5 O2- 4 c 0.0828(6) 0.2500 0.6721(6) 1 0 0.0157(9) 
O6 O2- 4 c 0.1939(7) 0.2500 0.0394(6) 1 0 0.0260(13) 

loop_
_atom_site_aniso_label
_atom_site_aniso_type_symbol
_atom_site_aniso_U_11
_atom_site_aniso_U_22
_atom_site_aniso_U_33
_atom_site_aniso_U_12
_atom_site_aniso_U_13
_atom_site_aniso_U_23
Hg1 Hg2+ 0.02221(11) 0.01385(12) 0.01866(12) 0.00044(6) -0.00345(7) 
0.00189(7)
Hg2 Hg2+ 0.01677(12) 0.02136(15) 0.01138(14) 0.000 -0.00022(8) 0.000
K1 K1+ 0.0250(5) 0.0191(6) 0.0355(7) 0.0009(4) 0.0020(5) 0.0037(5)
S1 S4+ 0.0179(5) 0.0125(6) 0.0200(6) 0.0001(4) -0.0002(4) 0.0015(5)
S2 S4+ 0.0137(6) 0.0163(8) 0.0125(7) 0.000 -0.0007(6) 0.000
O1 O2- 0.0254(17) 0.021(2) 0.035(2) -0.0024(15) -0.0121(16) 0.0002(19)
O2 O2- 0.036(2) 0.024(2) 0.039(3) 0.0090(19) 0.0039(18) -0.009(2)
O3 O2- 0.0230(17) 0.034(2) 0.029(2) -0.0062(15) 0.0020(15) 0.0122(19)
O4 O2- 0.0320(19) 0.019(2) 0.027(2) -0.0062(16) -0.0086(16) -0.0024(17)
O5 O2- 0.025(2) 0.011(2) 0.011(2) 0.000 -0.0010(18) 0.000
O6 O2- 0.015(2) 0.052(4) 0.011(2) 0.000 0.0027(19) 0.000
#End of data_241132-ICSD


