data_155129-ICSD
#?2014 by Fachinformationszentrum Karlsruhe, and the U.S. Secretary of 
#Commerce on behalf of the United States.  All rights reserved.
_database_code_ICSD                155129
_audit_creation_date               2007/04/01
_chemical_name_systematic          'Trilithium Dinitridoborate'
_chemical_formula_structural       'Li3 (B N2)'
_chemical_formula_sum              'B1 Li3 N2'
_publ_section_title
;
Tetragonal I41/amd crystal structure of Li3 B N2 from dehydrogenated 
Li - B - N - H
;
loop_
_citation_id
_citation_journal_abbrev
_citation_year
_citation_journal_volume
_citation_page_first
_citation_page_last
_citation_journal_id_ASTM
primary 'Journal of Applied Physics' 2006 99 113523-1 113523-5 JAPIAU
_publ_author_name                  'Pinkerton, F.E.;Herbst, J.F.'
_cell_length_a                     5.1398
_cell_length_b                     7.0791
_cell_length_c                     6.7678
_cell_angle_alpha                  90.
_cell_angle_beta                   112.71
_cell_angle_gamma                  90.
_cell_volume                       227.16
_cell_formula_units_Z              4
_symmetry_space_group_name_H-M     'P 1 21/c 1'
_symmetry_Int_Tables_number        14
loop_
_symmetry_equiv_pos_site_id
_symmetry_equiv_pos_as_xyz
  1	'x, -y+.5, z+.5'
  2	'-x, -y, -z'
  3	'-x, y+.5, -z+.5'
  4	'x, y, z'
loop_
_atom_type_symbol
_atom_type_oxidation_number
B3+	3
Li1+	1
N3-	-3
loop_
_atom_site_label
_atom_site_type_symbol
_atom_site_symmetry_multiplicity
_atom_site_Wyckoff_symbol
_atom_site_fract_x
_atom_site_fract_y
_atom_site_fract_z
_atom_site_occupancy
_atom_site_attached_hydrogens
Li1 Li1+ 4 e 0.24930 0.48192 0.49766 1. 0 
Li2 Li1+ 4 e 0.24918 0.01179 0.37554 1. 0 
Li3 Li1+ 4 e 0.74144 0.20836 0.31357 1. 0 
B1 B3+ 4 e 0.21507 0.32016 0.17646 1. 0 
N1 N3- 4 e 0.43508 0.43828 0.21965 1. 0 
N2 N3- 4 e 0.99333 0.20462 0.13394 1. 0 

#End of data_155129-ICSD


