data_16084-ICSD
#?2014 by Fachinformationszentrum Karlsruhe, and the U.S. Secretary of 
#Commerce on behalf of the United States.  All rights reserved.
_database_code_ICSD                16084
_audit_creation_date               1986/10/02
_audit_update_record               2012/08/01
_chemical_name_systematic          'Tetracesium Magnesium Decafluoride'
_chemical_formula_structural       'Cs4 Mg3 F10'
_chemical_formula_sum              'Cs4 F10 Mg3'
_publ_section_title
;
The crystal structure of Cs4 Mg3 F10
;
loop_
_citation_id
_citation_journal_abbrev
_citation_year
_citation_journal_volume
_citation_page_first
_citation_page_last
_citation_journal_id_ASTM
primary 'Inorganic Chemistry' 1969 8 1665 1669 INOCAJ
_publ_author_name                  'Steinfink, H.;Brunton, G.'
_cell_length_a                     6.1333(3)
_cell_length_b                     14.561(2)
_cell_length_c                     13.653(1)
_cell_angle_alpha                  90.
_cell_angle_beta                   90.
_cell_angle_gamma                  90.
_cell_volume                       1219.31
_cell_formula_units_Z              4
_symmetry_space_group_name_H-M     'C m c a'
_symmetry_Int_Tables_number        64
_refine_ls_R_factor_all            .0782
loop_
_symmetry_equiv_pos_site_id
_symmetry_equiv_pos_as_xyz
  1	'-x, -y+.5, z+.5'
  2	'-x, y+.5, -z+.5'
  3	'-x, y, z'
  4	'-x, -y, -z'
  5	'x, y+.5, -z+.5'
  6	'x, -y+.5, z+.5'
  7	'x, -y, -z'
  8	'x, y, z'
  9	'-x+.5, -y, z+.5'
 10	'-x+.5, y, -z+.5'
 11	'-x+.5, y+.5, z'
 12	'-x+.5, -y+.5, -z'
 13	'x+.5, y, -z+.5'
 14	'x+.5, -y, z+.5'
 15	'x+.5, -y+.5, -z'
 16	'x+.5, y+.5, z'
loop_
_atom_type_symbol
_atom_type_oxidation_number
Cs1+	1
F1-	-1
Mg2+	2
loop_
_atom_site_label
_atom_site_type_symbol
_atom_site_symmetry_multiplicity
_atom_site_Wyckoff_symbol
_atom_site_fract_x
_atom_site_fract_y
_atom_site_fract_z
_atom_site_occupancy
_atom_site_attached_hydrogens
Cs1 Cs1+ 8 f 0 0.2542(4) 0.3939(4) 1. 0 
Cs2 Cs1+ 8 f 0 0.4482(3) 0.1389(3) 1. 0 
Mg1 Mg2+ 8 f 0 0.1170(2) 0.1575(2) 1. 0 
Mg2 Mg2+ 4 a 0 0 0 1. 0 
F1 F1- 16 g 0.2100(6) 0.0958(2) 0.0403(2) 1. 0 
F2 F1- 8 e 0.25 0.1098(2) 0.25 1. 0 
F3 F1- 8 f 0 0.4732(4) 0.3575(3) 1. 0 
F4 F1- 8 f 0 0.2465(4) 0.1482(5) 1. 0 

#End of data_16084-ICSD


