data_2153-ICSD
#?2014 by Fachinformationszentrum Karlsruhe, and the U.S. Secretary of 
#Commerce on behalf of the United States.  All rights reserved.
_database_code_ICSD                2153
_audit_creation_date               1980/01/01
_audit_update_record               2012/02/01
_chemical_name_systematic
;
Tetraaquamagnesium Pentahydroxotrioxotriborate Hydrate
;
_chemical_formula_structural       '(Mg (H2 O)4) (B3 O3 (O H)5) (H2 O)'
_chemical_formula_sum              'H15 B3 Mg1 O13'
_chemical_name_mineral             Kurnakovite
_publ_section_title
;
The crystal structure of kurnakovite: a refinement
;
loop_
_citation_id
_citation_journal_abbrev
_citation_year
_citation_journal_volume
_citation_page_first
_citation_page_last
_citation_journal_id_ASTM
primary 'Acta Crystallographica B (24,1968-38,1982)' 1974 30 2194 2199 ACBCAR
_publ_author_name                  'Corazza, E.'
_cell_length_a                     8.3479(1)
_cell_length_b                     10.6068(1)
_cell_length_c                     6.4447(1)
_cell_angle_alpha                  98.946(1)
_cell_angle_beta                   108.981(1)
_cell_angle_gamma                  105.581(1)
_cell_volume                       500.97
_cell_formula_units_Z              2
_symmetry_space_group_name_H-M     'P -1'
_symmetry_Int_Tables_number        2
_refine_ls_R_factor_all            .051
loop_
_symmetry_equiv_pos_site_id
_symmetry_equiv_pos_as_xyz
  1	'-x, -y, -z'
  2	'x, y, z'
loop_
_atom_type_symbol
_atom_type_oxidation_number
B3+	3
H1+	1
Mg2+	2
O2-	-2
loop_
_atom_site_label
_atom_site_type_symbol
_atom_site_symmetry_multiplicity
_atom_site_Wyckoff_symbol
_atom_site_fract_x
_atom_site_fract_y
_atom_site_fract_z
_atom_site_occupancy
_atom_site_attached_hydrogens
_atom_site_B_iso_or_equiv
Mg1 Mg2+ 2 i 0.6530(1) 0.2321(1) 0.8015(1) 1. 0 0 
O1 O2- 2 i 0.9215(2) 0.3212(2) 0.9191(3) 1. 0 0 
O2 O2- 2 i 0.5943(2) 0.4091(2) 0.7761(3) 1. 0 0 
O3 O2- 2 i 0.3833(2) 0.1349(2) 0.6685(3) 1. 0 0 
O4 O2- 2 i 0.6697(2) 0.0351(2) 0.8077(3) 1. 0 0 
O5 O2- 2 i 0.6506(2) 0.1926(2) 0.4737(3) 1. 0 0 
O6 O2- 2 i 0.6713(2) 0.2632(2) 0.1415(3) 1. 0 0 
O7 O2- 2 i 0.8096(2) 0.1030(2) 0.2675(3) 1. 0 0 
O8 O2- 2 i 0.9334(2) 0.3339(2) 0.5057(3) 1. 0 0 
O9 O2- 2 i 0.1496(2) 0.4402(2) 0.3546(3) 1. 0 0 
O10 O2- 2 i 0.2496(2) 0.4093(2) 0.7348(3) 1. 0 0 
O11 O2- 2 i 0.1284(2) 0.2214(2) 0.4130(3) 1. 0 0 
O12 O2- 2 i 0.0160(2) -.0114(2) 0.2486(3) 1. 0 0 
O13 O2- 2 i 0.2869(3) 0.2434(2) 0.0522(4) 1. 0 0 
B1 B3+ 2 i 0.7690(3) 0.2274(2) 0.3509(5) 1. 0 0 
B2 B3+ 2 i 0.1105(3) 0.3529(3) 0.5008(4) 1. 0 0 
B3 B3+ 2 i 0.9826(3) 0.1053(2) 0.3116(4) 1. 0 0 
H1 H1+ 2 i 0.994(6) 0.359(2) 0.060(7) 1. 0 1.1(8) 
H2 H1+ 2 i 0.964(6) 0.335(4) 0.810(7) 1. 0 1.8(9) 
H3 H1+ 2 i 0.668(6) 0.473(4) 0.736(7) 1. 0 1.0(8) 
H4 H1+ 2 i 0.491(6) 0.420(4) 0.745(7) 1. 0 1.1(8) 
H5 H1+ 2 i 0.314(7) 0.174(5) 0.597(9) 1. 0 2.30(11) 
H6 H1+ 2 i 0.328(6) 0.058(4) 0.695(7) 1. 0 1.3(8) 
H7 H1+ 2 i 0.752(6) 0.027(4) 0.760(7) 1. 0 1.2(8) 
H8 H1+ 2 i 0.702(5) 0.039(4) 0.942(7) 1. 0 1.6(8) 
H9 H1+ 2 i 0.562 0.137(4) 0.399(7) 1. 0 1.1(8) 
H10 H1+ 2 i 0.590(7) 0.266(5) 0.145(8) 1. 0 1.8(9) 
H11 H1+ 2 i 0.128 0.498(6) 0.406(10) 1. 0 2.80(11) 
H12 H1+ 2 i 0.261(6) 0.483(5) 0.796(8) 1. 0 1.8(1) 
H13 H1+ 2 i 0.937(7) -.074(5) 0.186(9) 1. 0 2.1(1) 
H14 H1+ 2 i 0.263(7) 0.257(6) 0.159(9) 1. 0 2.50(11) 
H15 H1+ 2 i 0.269(7) 0.298(6) -.027(9) 1. 0 2.50(11) 

#End of data_2153-ICSD


