data_6189-ICSD
#?2014 by Fachinformationszentrum Karlsruhe, and the U.S. Secretary of 
#Commerce on behalf of the United States.  All rights reserved.
_database_code_ICSD                6189
_audit_creation_date               1980/01/01
_audit_update_record               2000/12/16
_chemical_name_systematic
;
Calcium Diberyllium Bis(phosphate(V))
;
_chemical_formula_structural       'Ca Be2 (P O4)2'
_chemical_formula_sum              'Be2 Ca1 O8 P2'
_chemical_name_mineral             Hurlbutite
_publ_section_title
;
The crystal structure of hurlbutite. A comparison with danburite and 
anorthite
;
loop_
_citation_id
_citation_journal_abbrev
_citation_year
_citation_journal_volume
_citation_page_first
_citation_page_last
_citation_journal_id_ASTM
primary 'American Mineralogist' 1974 59 1267 1271 AMMIAY
_publ_author_name
;
Lindbloom, J.T.;Gibbs, G.V.;Ribbe, P.H.
;
_cell_length_a                     8.299(1)
_cell_length_b                     8.782(2)
_cell_length_c                     7.798(3)
_cell_angle_alpha                  90.
_cell_angle_beta                   90.5
_cell_angle_gamma                  90.
_cell_volume                       568.31
_cell_formula_units_Z              4
_symmetry_space_group_name_H-M     'P 1 21/a 1'
_symmetry_Int_Tables_number        14
_refine_ls_R_factor_all            .062
loop_
_symmetry_equiv_pos_site_id
_symmetry_equiv_pos_as_xyz
  1	'x+.5, -y+.5, z'
  2	'-x, -y, -z'
  3	'-x+.5, y+.5, -z'
  4	'x, y, z'
loop_
_atom_type_symbol
_atom_type_oxidation_number
Be2+	2
Ca2+	2
O2-	-2
P5+	5
loop_
_atom_site_label
_atom_site_type_symbol
_atom_site_symmetry_multiplicity
_atom_site_Wyckoff_symbol
_atom_site_fract_x
_atom_site_fract_y
_atom_site_fract_z
_atom_site_occupancy
_atom_site_attached_hydrogens
_atom_site_B_iso_or_equiv
Ca1 Ca2+ 4 e 0.3869(2) 0.0863(2) 0.2440(2) 1. 0 0.66(3) 
P1 P5+ 4 e 0.2626(2) 0.4177(2) 0.4395(2) 1. 0 0.72(12) 
Be1 Be2+ 4 e 0.268(1) 0.4215(10) 0.0707(11) 1. 0 0.75(12) 
P2 P5+ 4 e 0.0588(2) 0.1976(2) -.0606(2) 1. 0 0.38(2) 
Be2 Be2+ 4 e 0.0566(10) 0.1949(10) 0.5698(11) 1. 0 0.72(12) 
O1 O2- 4 e 0.1928(5) 0.0888(5) 0.0028(6) 1. 0 0.60(7) 
O2 O2- 4 e 0.1881(5) 0.0737(5) 0.4965(6) 1. 0 0.59(7) 
O3 O2- 4 e 0.1224(5) 0.3634(5) -.0550(6) 1. 0 0.54(7) 
O4 O2- 4 e 0.1296(6) 0.3689(6) 0.5630(6) 1. 0 0.78(7) 
O5 O2- 4 e 0.4215(6) 0.3096(5) 0.0675(6) 1. 0 0.72(7) 
O6 O2- 4 e 0.4034(5) 0.3065(5) 0.4371(6) 1. 0 0.61(7) 
O7 O2- 4 e 0.4999(5) 0.6553(5) 0.2388(6) 1. 0 0.73(7) 
O8 O2- 4 e 0.1854(5) 0.4199(5) 0.2591(6) 1. 0 0.77(7) 

#End of data_6189-ICSD


