data_415200-ICSD
#?2014 by Fachinformationszentrum Karlsruhe, and the U.S. Secretary of 
#Commerce on behalf of the United States.  All rights reserved.
_database_code_ICSD                415200
_audit_creation_date               2006/10/01
_chemical_name_systematic          'Lithium Triborate'
_chemical_formula_structural       'B3 Li O5'
_chemical_formula_sum              'B3 Li1 O5'
_publ_section_title
;
Li B3 O5 crystal structure at 20, 227, and 377 degree C
;
loop_
_citation_id
_citation_journal_abbrev
_citation_year
_citation_journal_volume
_citation_page_first
_citation_page_last
_citation_journal_id_ASTM
primary 'Journal of Solid State Chemistry' 2005 178 2987 2997 JSSCBI
_publ_author_name
;
Shepelev, Yu.F.;Bubnova, R.S.;Filatov, S.K.;Sennova, N.A.;Pilneva, 
N.A.
;
_cell_length_a                     8.616(5)
_cell_length_b                     7.433(5)
_cell_length_c                     5.063(3)
_cell_angle_alpha                  90.00
_cell_angle_beta                   90.00
_cell_angle_gamma                  90.00
_cell_volume                       324.25
_cell_formula_units_Z              4
_symmetry_space_group_name_H-M     'P n a 21'
_symmetry_Int_Tables_number        33
_refine_ls_R_factor_all            .0256
loop_
_symmetry_equiv_pos_site_id
_symmetry_equiv_pos_as_xyz
  1	'x+.5, -y+.5, z'
  2	'-x+.5, y+.5, z+.5'
  3	'-x, -y, z+.5'
  4	'x, y, z'
loop_
_atom_type_symbol
_atom_type_oxidation_number
B3+	3
Li1+	1
O2-	-2
loop_
_atom_site_label
_atom_site_type_symbol
_atom_site_symmetry_multiplicity
_atom_site_Wyckoff_symbol
_atom_site_fract_x
_atom_site_fract_y
_atom_site_fract_z
_atom_site_occupancy
_atom_site_attached_hydrogens
_atom_site_B_iso_or_equiv
Li1 Li1+ 4 a .39981(37) .56447(26) .01285(0) 1. 0 3.984(52) 
B1 B3+ 4 a .51021(7) .83541(7) .3522(7) 1. 0 .925(8) 
B2 B3+ 4 a .69169(6) .05537(7) .5485(7) 1. 0 .752(7) 
B3 B3+ 4 a .65714(6) .75120(7) .7339(7) 1. 0 .790(7) 
O1 O2- 4 a .58783(6) .99258(5) .3407(7) 1. 0 1.202(6) 
O2 O2- 4 a .38549(6) .79730(5) .1964(7) 1. 0 1.074(6) 
O3 O2- 4 a .55743(6) .70286(5) .5295(7) 1. 0 1.166(6) 
O4 O2- 4 a .73472(5) .90985(5) .7367(7) 1. 0 .914(5) 
O5 O2- 4 a .66680(5) .62222(5) .9251(7) 1. 0 1.092(6) 

#End of data_415200-ICSD


