data_82487-ICSD
#?2014 by Fachinformationszentrum Karlsruhe, and the U.S. Secretary of 
#Commerce on behalf of the United States.  All rights reserved.
_database_code_ICSD                82487
_audit_creation_date               1997/11/10
_audit_update_record               2006/04/01
_chemical_name_systematic          'Calcium Titanate'
_chemical_formula_structural       'Ca (Ti O3)'
_chemical_formula_sum              'Ca1 O3 Ti1'
_chemical_name_mineral             Perovskite
_publ_section_title
;
A single-crystal infrared spectroscopic and X-ray diffraction study 
of untwinned San Benito perovskite containing O H groups
;
loop_
_citation_id
_citation_journal_abbrev
_citation_year
_citation_journal_volume
_citation_page_first
_citation_page_last
_citation_journal_id_ASTM
primary 'Canadian Mineralogist' 1996 34 803 809 CAMIA6
2 'Golden Book of Phase Transitions, Wroclaw' 2002 1 1 123 GBOPT5
_publ_author_name
;
Beran, A.;Libowitzky, E.;Armbruster, T.
;
_cell_length_a                     5.380(1)
_cell_length_b                     5.440(1)
_cell_length_c                     7.639(1)
_cell_angle_alpha                  90.
_cell_angle_beta                   90.
_cell_angle_gamma                  90.
_cell_volume                       223.57
_cell_formula_units_Z              4
_symmetry_space_group_name_H-M     'P b n m'
_symmetry_Int_Tables_number        62
_refine_ls_R_factor_all            .027
loop_
_symmetry_equiv_pos_site_id
_symmetry_equiv_pos_as_xyz
  1	'-x+.5, y+.5, z'
  2	'x, y, -z+.5'
  3	'x+.5, -y+.5, z+.5'
  4	'-x, -y, -z'
  5	'x+.5, -y+.5, -z'
  6	'-x, -y, z+.5'
  7	'-x+.5, y+.5, -z+.5'
  8	'x, y, z'
loop_
_atom_type_symbol
_atom_type_oxidation_number
Ca2+	2
O2-	-2
Ti4+	4
loop_
_atom_site_label
_atom_site_type_symbol
_atom_site_symmetry_multiplicity
_atom_site_Wyckoff_symbol
_atom_site_fract_x
_atom_site_fract_y
_atom_site_fract_z
_atom_site_occupancy
_atom_site_attached_hydrogens
Ti1 Ti4+ 4 b 0 0.5 0 1. 0 
Ca1 Ca2+ 4 c 0.00648(8) 0.0356(1) 0.25 1. 0 
O1 O2- 4 c 0.5711(3) -.0161(3) 0.25 1. 0 
O2 O2- 8 d 0.2897(2) 0.2888(2) 0.0373(2) 1. 0 

loop_
_atom_site_aniso_label
_atom_site_aniso_type_symbol
_atom_site_aniso_U_11
_atom_site_aniso_U_22
_atom_site_aniso_U_33
_atom_site_aniso_U_12
_atom_site_aniso_U_13
_atom_site_aniso_U_23
Ti1 Ti4+ 0.0059(2) 0.0052(2) 0.0045(2) 0.0000(1) 0.0000(1) 0.00025(9)
Ca1 Ca2+ 0.0082(2) 0.0083(2) 0.0079(2) 0.0016(2) 0 0
O1 O2- 0.0082(6) 0.0086(7) 0.0045(5) 0.0002(5) 0 0
O2 O2- 0.0065(4) 0.0060(4) 0.0095(4) 0.0020(4) -.0008(3) -.0010(3)
#End of data_82487-ICSD


