data_248019-ICSD
#?2014 by Fachinformationszentrum Karlsruhe, and the U.S. Secretary of 
#Commerce on behalf of the United States.  All rights reserved.
_database_code_ICSD                248019
_audit_creation_date               2010/08/01
_chemical_name_systematic
;
Pentapotassium Praseodymium(III) Dilithium Decafluoride
;
_chemical_formula_structural       'K5 Pr Li2 F10'
_chemical_formula_sum              'F10 K5 Li2 Pr1'
_publ_section_title
;
Pentapotassium praseodymium(III) dilithium decafluoride, K5 Pr Li2 
F10
;
loop_
_citation_id
_citation_journal_abbrev
_citation_year
_citation_journal_volume
_citation_journal_issue
_citation_page_first
_citation_page_last
_citation_journal_id_ASTM
primary 'Acta Crystallographica, Section E. Structure Reports Online'
 2009 65 11 i81 i81 ACSEBH
_publ_author_name                  'Gagor, A.'
_cell_length_a                     20.6492(6)
_cell_length_b                     7.7903(3)
_cell_length_c                     6.9255(2)
_cell_angle_alpha                  90.00
_cell_angle_beta                   90.00
_cell_angle_gamma                  90.00
_cell_volume                       1114.06
_cell_formula_units_Z              4
_symmetry_space_group_name_H-M     'P n m a'
_symmetry_Int_Tables_number        62
_refine_ls_R_factor_all            .0293
loop_
_symmetry_equiv_pos_site_id
_symmetry_equiv_pos_as_xyz
  1	'x+.5, y, -z+.5'
  2	'x, -y+.5, z'
  3	'-x+.5, y+.5, z+.5'
  4	'-x, -y, -z'
  5	'-x+.5, -y, z+.5'
  6	'-x, y+.5, -z'
  7	'x+.5, -y+.5, -z+.5'
  8	'x, y, z'
loop_
_atom_type_symbol
_atom_type_oxidation_number
F1-	-1
K1+	1
Li1+	1
Pr3+	3
loop_
_atom_site_label
_atom_site_type_symbol
_atom_site_symmetry_multiplicity
_atom_site_Wyckoff_symbol
_atom_site_fract_x
_atom_site_fract_y
_atom_site_fract_z
_atom_site_occupancy
_atom_site_attached_hydrogens
_atom_site_U_iso_or_equiv
K1 K1+ 8 d 0.456661(15) 0.97842(4) 0.25210(4) 1 0 0.01639(5) 
K2 K1+ 8 d 0.283103(15) 0.02682(4) 0.42595(5) 1 0 0.01786(6) 
K3 K1+ 4 c 0.35981(2) 0.2500 0.94040(6) 1 0 0.01865(8) 
Pr1 Pr3+ 4 c 0.107262(4) 0.2500 0.239205(12) 1 0 0.00794(2) 
Li1 Li1+ 4 c 0.92241(16) 0.2500 0.9697(5) 1 0 0.0140(6) 
Li2 Li1+ 4 c 0.67429(16) 0.2500 0.8399(5) 1 0 0.0138(6) 
F1 F1- 4 c 0.00854(5) 0.2500 0.04643(17) 1 0 0.0152(2) 
F2 F1- 4 c 0.01862(6) 0.2500 0.45774(17) 1 0 0.0189(2) 
F3 F1- 8 d 0.09014(4) 0.95753(10) 0.15779(13) 1 0 0.01896(17) 
F4 F1- 8 d 0.14806(4) 0.07426(10) 0.50594(12) 1 0 0.01643(16) 
F5 F1- 4 c 0.21956(6) 0.2500 0.19130(18) 1 0 0.0182(2) 
F6 F1- 4 c 0.37398(6) 0.2500 0.31393(18) 1 0 0.0170(2) 
F7 F1- 4 c 0.75970(6) 0.2500 0.79114(17) 1 0 0.0171(2) 
F8 F1- 4 c 0.63138(6) 0.2500 0.60663(16) 1 0 0.0160(2) 

loop_
_atom_site_aniso_label
_atom_site_aniso_type_symbol
_atom_site_aniso_U_11
_atom_site_aniso_U_22
_atom_site_aniso_U_33
_atom_site_aniso_U_12
_atom_site_aniso_U_13
_atom_site_aniso_U_23
K1 K1+ 0.01604(12) 0.01537(12) 0.01777(13) -0.00135(9) -0.00063(10) 
-0.00158(10)
K2 K1+ 0.01912(13) 0.01524(13) 0.01921(14) 0.00175(10) -0.00062(11) 
-0.00098(10)
K3 K1+ 0.0311(2) 0.01106(17) 0.01382(18) 0.000 -0.00294(15) 0.000
Pr1 Pr3+ 0.00890(4) 0.00760(4) 0.00733(4) 0.000 -0.00056(3) 0.000
Li1 Li1+ 0.0140(15) 0.0148(16) 0.0131(15) 0.000 -0.0021(12) 0.000
Li2 Li1+ 0.0128(16) 0.0152(16) 0.0132(15) 0.000 0.0005(12) 0.000
F1 F1- 0.0111(5) 0.0188(6) 0.0156(5) 0.000 -0.0023(4) 0.000
F2 F1- 0.0180(6) 0.0243(6) 0.0144(5) 0.000 0.0026(4) 0.000
F3 F1- 0.0249(4) 0.0109(4) 0.0211(4) 0.0000(3) -0.0063(3) -0.0032(3)
F4 F1- 0.0240(4) 0.0101(3) 0.0153(4) -0.0001(3) -0.0031(3) -0.0007(3)
F5 F1- 0.0129(5) 0.0237(6) 0.0182(5) 0.000 -0.0015(4) 0.000
F6 F1- 0.0170(5) 0.0210(6) 0.0132(5) 0.000 -0.0024(4) 0.000
F7 F1- 0.0144(5) 0.0210(6) 0.0160(5) 0.000 0.0017(4) 0.000
F8 F1- 0.0155(5) 0.0212(6) 0.0112(5) 0.000 -0.0015(4) 0.000
#End of data_248019-ICSD


