data_62324-ICSD
#?2014 by Fachinformationszentrum Karlsruhe, and the U.S. Secretary of 
#Commerce on behalf of the United States.  All rights reserved.
_database_code_ICSD                62324
_audit_creation_date               1988/07/15
_audit_update_record               2012/08/01
_chemical_name_systematic          'Pentacalcium Hexagallium Oxide'
_chemical_formula_structural       'Ca5 Ga6 O14'
_chemical_formula_sum              'Ca5 Ga6 O14'
_publ_section_title                'Crystal structure of Ca5 Ga6 O14'
loop_
_citation_id
_citation_journal_abbrev
_citation_year
_citation_journal_volume
_citation_page_first
_citation_page_last
_citation_journal_id_ASTM
primary Kristallografiya 1986 31 1217 1219 KRISAJ
2 'Soviet Physics, Crystallography (= Kristallografiya)'
 1986 31 719 720 SPHCA6
_publ_author_name
;
Bilyi, A.I.;Bruskov, V.A.;Grin', Yu.;Zavalii, P.Yu.;Kravchishin, 
V.V.;Nosenko, A.E.
;
_cell_length_a                     11.511(3)
_cell_length_b                     11.282(3)
_cell_length_c                     10.489(3)
_cell_angle_alpha                  90.
_cell_angle_beta                   90.
_cell_angle_gamma                  90.
_cell_volume                       1362.18
_cell_formula_units_Z              4
_symmetry_space_group_name_H-M     'C m c 21'
_symmetry_Int_Tables_number        36
_refine_ls_R_factor_all            .055
loop_
_symmetry_equiv_pos_site_id
_symmetry_equiv_pos_as_xyz
  1	'x, -y, z+.5'
  2	'-x, -y, z+.5'
  3	'-x, y, z'
  4	'x, y, z'
  5	'x+.5, -y+.5, z+.5'
  6	'-x+.5, -y+.5, z+.5'
  7	'-x+.5, y+.5, z'
  8	'x+.5, y+.5, z'
loop_
_atom_type_symbol
_atom_type_oxidation_number
Ca2+	2
Ga3+	3
O2-	-2
loop_
_atom_site_label
_atom_site_type_symbol
_atom_site_symmetry_multiplicity
_atom_site_Wyckoff_symbol
_atom_site_fract_x
_atom_site_fract_y
_atom_site_fract_z
_atom_site_occupancy
_atom_site_attached_hydrogens
_atom_site_B_iso_or_equiv
Ca1 Ca2+ 4 a 0 0.4737(4) 0.4179(5) 1. 0 0 
Ca2 Ca2+ 8 b 0.1431(3) 0.1837(3) 0.3748(3) 1. 0 0 
Ca3 Ca2+ 8 b 0.1582(3) -.1012(3) 0.4234(3) 1. 0 0 
Ga1 Ga3+ 4 a 0 -.0008(2) 0.137 1. 0 0 
Ga2 Ga3+ 4 a 0 0.2999(2) 0.1120(3) 1. 0 0 
Ga3 Ga3+ 8 b -.2438(2) 0.5974(1) 0.6483(2) 1. 0 0 
Ga4 Ga3+ 8 b 0.1435(2) 0.3540(1) 0.6805(3) 1. 0 0 
O1 O2- 4 a 0 0.0114(14) 0.3140(14) 1. 0 0.6(2) 
O2 O2- 4 a 0 0.1478(14) 0.0552(15) 1. 0 0.7(2) 
O3 O2- 4 a 0 0.2962(14) 0.2903(14) 1. 0 0.5(2) 
O4 O2- 4 a 0 0.6158(15) 0.2483(13) 1. 0 1.0(3) 
O5 O2- 8 b -.1254(11) 0.6255(10) 0.5417(11) 1. 0 1.1(2) 
O6 O2- 8 b 0.1255(9) -.0645(9) 0.0558(9) 1. 0 0.5(1) 
O7 O2- 8 b 0.160(1) 0.3494(10) 0.5121(11) 1. 0 0.8(2) 
O8 O2- 8 b 0.2677(10) 0.0286(11) 0.2667(11) 1. 0 1.1(2) 
O9 O2- 8 b 0.2856(9) 0.2772(9) 0.2588(9) 1. 0 0.6(2) 

loop_
_atom_site_aniso_label
_atom_site_aniso_type_symbol
_atom_site_aniso_B_11
_atom_site_aniso_B_22
_atom_site_aniso_B_33
_atom_site_aniso_B_12
_atom_site_aniso_B_13
_atom_site_aniso_B_23
Ca1 Ca2+ 1.82 0.53(15) 0.48(13) 0 0 -.05(11)
Ca2 Ca2+ 1.15(11) 0.87(9) 0.35(8) -.01(9) 0.14(8) 0.15(7)
Ca3 Ca2+ 1.09(11) 1.19(10) 0.38(8) 0.10(9) 0.02(8) -.18(8)
Ga1 Ga3+ 0.69(7) 0.80(7) 0.10(6) 0 0 0.02(6)
Ga2 Ga3+ 0.85(8) 0.77(8) 0.14(6) 0 0 -.01(6)
Ga3 Ga3+ 0.83(5) 0.67(5) 0.15(4) -.12(5) -.01(5) 0.02(5)
Ga4 Ga3+ 0.81(5) 0.68(5) 0.15(4) -.04(5) 0.02(4) 0.00(4)
#End of data_62324-ICSD


