data_200774-ICSD
#?2014 by Fachinformationszentrum Karlsruhe, and the U.S. Secretary of 
#Commerce on behalf of the United States.  All rights reserved.
_database_code_ICSD                200774
_audit_creation_date               1984/09/13
_audit_update_record               1985/05/30
_chemical_name_systematic          'Lithium Neodymium Germanate'
_chemical_formula_structural       'Li Nd Ge O4'
_chemical_formula_sum              'Ge1 Li1 Nd1 O4'
_publ_section_title                'Crystal structure of Li Nd Ge O4'
loop_
_citation_id
_citation_journal_abbrev
_citation_year
_citation_journal_volume
_citation_page_first
_citation_page_last
_citation_journal_id_ASTM
primary 'Doklady Akademii Nauk SSSR' 1980 250 357 360 DANKAS
_publ_author_name
;
Merinov, B.V.;Maksimov, B.A.;Dem'yanets, L.N.;Belov, N.V.
;
_cell_length_a                     5.096(2)
_cell_length_b                     11.923(5)
_cell_length_c                     5.399(2)
_cell_angle_alpha                  90.
_cell_angle_beta                   90.
_cell_angle_gamma                  90.
_cell_volume                       328.04
_cell_formula_units_Z              4
_symmetry_space_group_name_H-M     'P b c n'
_symmetry_Int_Tables_number        60
_refine_ls_R_factor_all            .038
loop_
_symmetry_equiv_pos_site_id
_symmetry_equiv_pos_as_xyz
  1	'x, -y, z+.5'
  2	'-x+.5, y+.5, z'
  3	'x+.5, y+.5, -z+.5'
  4	'-x, -y, -z'
  5	'-x, y, -z+.5'
  6	'x+.5, -y+.5, -z'
  7	'-x+.5, -y+.5, z+.5'
  8	'x, y, z'
loop_
_atom_type_symbol
_atom_type_oxidation_number
Ge4+	4
Li1+	1
Nd3+	3
O2-	-2
loop_
_atom_site_label
_atom_site_type_symbol
_atom_site_symmetry_multiplicity
_atom_site_Wyckoff_symbol
_atom_site_fract_x
_atom_site_fract_y
_atom_site_fract_z
_atom_site_occupancy
_atom_site_attached_hydrogens
Li1 Li1+ 4 c 0 0.233(2) 0.75 1. 0 
Nd1 Nd3+ 4 c 0 0.11228(3) 0.25 1. 0 
Ge1 Ge4+ 4 c 0 0.38915(7) 0.25 1. 0 
O1 O2- 8 d 0.175(1) 0.2979(5) 0.452(1) 1. 0 
O2 O2- 8 d 0.250(1) 0.4569(6) 0.086(1) 1. 0 

#End of data_200774-ICSD


