data_24257-ICSD
#?2014 by Fachinformationszentrum Karlsruhe, and the U.S. Secretary of 
#Commerce on behalf of the United States.  All rights reserved.
_database_code_ICSD                24257
_audit_creation_date               1980/01/01
_audit_update_record               1998/06/26
_chemical_name_systematic          'Lead Silver Antimony Sulfide'
_chemical_formula_structural       'Pb Ag Sb S3'
_chemical_formula_sum              'Ag1 Pb1 S3 Sb1'
_chemical_name_mineral             Freieslebenite
_publ_section_title
;
Ueber komplex zusammengesetzte sulfidische Erze. II. Zur Struktur des 
Freieslebenits, Pb Ag Sb S3
;
loop_
_citation_id
_citation_journal_abbrev
_citation_year
_citation_journal_volume
_citation_page_first
_citation_page_last
_citation_journal_id_ASTM
primary
;
Zeitschrift fuer Kristallographie, Kristallgeometrie, Kristallphysik, 
Kristallchemie (-144,1977)
;
 1957 109 284 295 ZEKGAX
2 'American Mineralogist' 1938 23 821 836 AMMIAY
_publ_author_name                  'Hellner, E.'
_cell_length_a                     7.53
_cell_length_b                     12.79
_cell_length_c                     5.95(1)
_cell_angle_alpha                  90.
_cell_angle_beta                   92.23
_cell_angle_gamma                  90.
_cell_volume                       572.6
_cell_formula_units_Z              4
_symmetry_space_group_name_H-M     'P 1 21/a 1'
_symmetry_Int_Tables_number        14
_refine_ls_R_factor_all            .36
loop_
_symmetry_equiv_pos_site_id
_symmetry_equiv_pos_as_xyz
  1	'x+.5, -y+.5, z'
  2	'-x, -y, -z'
  3	'-x+.5, y+.5, -z'
  4	'x, y, z'
loop_
_atom_type_symbol
_atom_type_oxidation_number
Ag1+	1
Pb2+	2
S2-	-2
Sb3+	3
loop_
_atom_site_label
_atom_site_type_symbol
_atom_site_symmetry_multiplicity
_atom_site_Wyckoff_symbol
_atom_site_fract_x
_atom_site_fract_y
_atom_site_fract_z
_atom_site_occupancy
_atom_site_attached_hydrogens
Pb1 Pb2+ 4 e 0.113 0.085 0.24 1. 0 
Ag1 Ag1+ 4 e 0.095 0.415 0.24 1. 0 
Sb1 Sb3+ 4 e 0.385 0.256 0.72 1. 0 
S1 S2- 4 e 0.1 0.1 0.74 1. 0 
S2 S2- 4 e 0.1 0.413 0.68 1. 0 
S3 S2- 4 e 0.34 0.26 0.14 1. 0 

#End of data_24257-ICSD


