data_65115-ICSD
#?2014 by Fachinformationszentrum Karlsruhe, and the U.S. Secretary of 
#Commerce on behalf of the United States.  All rights reserved.
_database_code_ICSD                65115
_audit_creation_date               1989/06/19
_audit_update_record               2007/04/01
_chemical_name_systematic
;
Dipotassium Hexabromotellurate - Phase Iii
;
_chemical_formula_structural       'K2 (Te Br6)'
_chemical_formula_sum              'Br6 K2 Te1'
_publ_section_title
;
Structural and thermal dependence of normal-mode condensations in K2 
Te Br6
;
loop_
_citation_id
_citation_journal_abbrev
_citation_year
_citation_journal_volume
_citation_page_first
_citation_page_last
_citation_journal_id_ASTM
primary 'Acta Crystallographica, Section B: Structural Science'
 1989 45 26 34 ASBSDK
2 'Golden Book of Phase Transitions, Wroclaw' 2002 1 1 123 GBOPT5
3 'Journal of Chemical Physics' 1984 81 2082 2087 JCPSA6
_publ_author_name
;
Abrahams, S.C.;Ihringer, J.;Marsh, P.
;
_cell_length_a                     7.4908(10)
_cell_length_b                     7.5492(7)
_cell_length_c                     10.6984(11)
_cell_angle_alpha                  90.
_cell_angle_beta                   90.307(6)
_cell_angle_gamma                  90.
_cell_volume                       604.98
_cell_formula_units_Z              2
_symmetry_space_group_name_H-M     'P 1 21/n 1'
_symmetry_Int_Tables_number        14
_refine_ls_R_factor_all            .18
loop_
_symmetry_equiv_pos_site_id
_symmetry_equiv_pos_as_xyz
  1	'-x+.5, y+.5, -z+.5'
  2	'-x, -y, -z'
  3	'x+.5, -y+.5, z+.5'
  4	'x, y, z'
loop_
_atom_type_symbol
_atom_type_oxidation_number
Br1-	-1
K1+	1
Te4+	4
loop_
_atom_site_label
_atom_site_type_symbol
_atom_site_symmetry_multiplicity
_atom_site_Wyckoff_symbol
_atom_site_fract_x
_atom_site_fract_y
_atom_site_fract_z
_atom_site_occupancy
_atom_site_attached_hydrogens
Te1 Te4+ 2 a 0 0 0 1. 0 
Br1 Br1- 4 e 0.0476(10) 0.0020(6) 0.2484(4) 1. 0 
Br2 Br1- 4 e 0.2842(8) -.2111(8) -.0234(6) 1. 0 
Br3 Br1- 4 e 0.2087(8) 0.2872(8) -.0216(6) 1. 0 
K1 K1+ 4 e -.0099(25) 0.4607(12) 0.2553(12) 1. 0 

#End of data_65115-ICSD


