data_85200-ICSD
#?2014 by Fachinformationszentrum Karlsruhe, and the U.S. Secretary of 
#Commerce on behalf of the United States.  All rights reserved.
_database_code_ICSD                85200
_audit_creation_date               1999/06/02
_audit_update_record               2005/10/01
_chemical_name_systematic          'Dialuminium Silicon Oxide - Ht'
_chemical_formula_structural       'Al2 Si O5'
_chemical_formula_sum              'Al2 O5 Si1'
_chemical_name_mineral             Sillimanite
_publ_section_title
;
Compressibility and crystal structure of sillimanite, Al2 Si O5, at 
high pressure
;
loop_
_citation_id
_citation_journal_abbrev
_citation_year
_citation_journal_volume
_citation_page_first
_citation_page_last
_citation_journal_id_ASTM
primary 'Physics and Chemistry of Minerals' 1997 25 39 47 PCMIDU
2 'Golden Book of Phase Transitions, Wroclaw' 2002 1 1 123 GBOPT5
_publ_author_name
;
Yang, H.;Hazen, R.M.;Finger, L.W.;Prewitt, C.T.;Downs, R.T.
;
_cell_length_a                     7.4857(8)
_cell_length_b                     7.6750(9)
_cell_length_c                     5.7751(7)
_cell_angle_alpha                  90.
_cell_angle_beta                   90.
_cell_angle_gamma                  90.
_cell_volume                       331.8
_cell_formula_units_Z              4
_symmetry_space_group_name_H-M     'P b n m'
_symmetry_Int_Tables_number        62
_refine_ls_R_factor_all            .033
loop_
_symmetry_equiv_pos_site_id
_symmetry_equiv_pos_as_xyz
  1	'-x+.5, y+.5, z'
  2	'x, y, -z+.5'
  3	'x+.5, -y+.5, z+.5'
  4	'-x, -y, -z'
  5	'x+.5, -y+.5, -z'
  6	'-x, -y, z+.5'
  7	'-x+.5, y+.5, -z+.5'
  8	'x, y, z'
loop_
_atom_type_symbol
_atom_type_oxidation_number
Al3+	3
O2-	-2
Si4+	4
loop_
_atom_site_label
_atom_site_type_symbol
_atom_site_symmetry_multiplicity
_atom_site_Wyckoff_symbol
_atom_site_fract_x
_atom_site_fract_y
_atom_site_fract_z
_atom_site_occupancy
_atom_site_attached_hydrogens
_atom_site_B_iso_or_equiv
Al1 Al3+ 4 a 0 0 0 1. 0 0.37(2) 
Al2 Al3+ 4 c 0.1417(1) 0.3452(1) 0.25 1. 0 0.44(2) 
Si1 Si4+ 4 c 0.1532(1) 0.3404(1) 0.75 1. 0 0.42(2) 
O1 O2- 4 c 0.3602(2) 0.4089(2) 0.75 1. 0 0.52(3) 
O2 O2- 4 c 0.3566(2) 0.4339(2) 0.25 1. 0 0.55(3) 
O3 O2- 4 c 0.4767(2) 0.0009(2) 0.75 1. 0 0.91(4) 
O4 O2- 8 d 0.1255(2) 0.2232(2) 0.5145(2) 1. 0 0.63(3) 

#End of data_85200-ICSD


