data_418676-ICSD
#?2014 by Fachinformationszentrum Karlsruhe, and the U.S. Secretary of 
#Commerce on behalf of the United States.  All rights reserved.
_database_code_ICSD                418676
_audit_creation_date               2009/02/01
_chemical_name_systematic          'Dilithium Hexafluorochromate(IV)'
_chemical_formula_structural       'Li2 (Cr F6)'
_chemical_formula_sum              'Cr1 F6 Li2'
_publ_section_title
;
Alkali metal (Li+ - Cs+) salts with hexafluorochromate(V), 
hexafluorochromate(IV), pentafluorochromate(IV), and 
undecafluorodichromate(IV) anions
;
loop_
_citation_id
_citation_journal_abbrev
_citation_year
_citation_journal_volume
_citation_journal_issue
_citation_page_first
_citation_page_last
_citation_journal_id_ASTM
primary 'European Journal of Inorganic Chemistry  (online)'
 2008 2008 11 1795 1812 EJICFO
_publ_author_name                  'Mazej, Z.;Goreshnik, E.'
_cell_length_a                     4.5777(4)
_cell_length_b                     4.5777(4)
_cell_length_c                     8.8649(10)
_cell_angle_alpha                  90
_cell_angle_beta                   90
_cell_angle_gamma                  90
_cell_volume                       185.77
_cell_formula_units_Z              2
_symmetry_space_group_name_H-M     'P 42/m n m'
_symmetry_Int_Tables_number        136
_refine_ls_R_factor_all            .0421
loop_
_symmetry_equiv_pos_site_id
_symmetry_equiv_pos_as_xyz
  1	'-y+.5, x+.5, -z+.5'
  2	'y+.5, -x+.5, -z+.5'
  3	'y, x, -z'
  4	'-y, -x, -z'
  5	'y+.5, -x+.5, z+.5'
  6	'-y+.5, x+.5, z+.5'
  7	'-y, -x, z'
  8	'y, x, z'
  9	'x+.5, -y+.5, -z+.5'
 10	'-x+.5, y+.5, -z+.5'
 11	'x, y, -z'
 12	'-x, -y, -z'
 13	'-x+.5, y+.5, z+.5'
 14	'x+.5, -y+.5, z+.5'
 15	'-x, -y, z'
 16	'x, y, z'
loop_
_atom_type_symbol
_atom_type_oxidation_number
Cr4+	4
F1-	-1
Li1+	1
loop_
_atom_site_label
_atom_site_type_symbol
_atom_site_symmetry_multiplicity
_atom_site_Wyckoff_symbol
_atom_site_fract_x
_atom_site_fract_y
_atom_site_fract_z
_atom_site_occupancy
_atom_site_attached_hydrogens
_atom_site_U_iso_or_equiv
Cr1 Cr4+ 2 b 0 0 0.5 1 0 0.0102(7) 
F1 F1- 8 j 0.1923(5) 0.1923(5) 0.3489(3) 1 0 0.0144(8) 
F2 F1- 4 f -0.2800(6) 0.2800(6) 0.5 1 0 0.0143(10) 
Li1 Li1+ 4 e 0 0 0.1646(13) 1 0 0.013(3) 

loop_
_atom_site_aniso_label
_atom_site_aniso_type_symbol
_atom_site_aniso_U_11
_atom_site_aniso_U_22
_atom_site_aniso_U_33
_atom_site_aniso_U_12
_atom_site_aniso_U_13
_atom_site_aniso_U_23
Cr1 Cr4+ 0.0104(7) 0.0104(7) 0.0097(10) 0.0000(4) 0 0
F1 F1- 0.0145(10) 0.0145(10) 0.0143(14) -0.0009(9) 0.0008(7) 0.0008(7)
F2 F1- 0.0133(12) 0.0133(12) 0.016(2) -0.0005(14) 0 0
Li1 Li1+ 0.015(4) 0.015(4) 0.008(6) 0.003(4) 0 0
#End of data_418676-ICSD


