data_280347-ICSD
#?2014 by Fachinformationszentrum Karlsruhe, and the U.S. Secretary of 
#Commerce on behalf of the United States.  All rights reserved.
_database_code_ICSD                280347
_audit_creation_date               2002/04/01
_chemical_name_systematic
;
Tricalcium Tetranitridodialuminate - Alpha
;
_chemical_formula_structural       'Ca3 (Al2 N4)'
_chemical_formula_sum              'Al2 Ca3 N4'
_publ_section_title
;
Crystal structures of two polymorphs of Ca3 (Al2 N4)
;
loop_
_citation_id
_citation_journal_abbrev
_citation_year
_citation_journal_volume
_citation_page_first
_citation_page_last
_citation_journal_id_ASTM
primary 'Inorganic Chemistry' 2000 39 5909 5911 INOCAJ
_publ_author_name
;
Ludwig, M.;Jaeger, J.;Niewa, R.;Kniep, R.
;
_cell_length_a                     9.572(3)
_cell_length_b                     5.802(3)
_cell_length_c                     9.563(5)
_cell_angle_alpha                  90.
_cell_angle_beta                   111.62(3)
_cell_angle_gamma                  90.
_cell_volume                       493.73
_cell_formula_units_Z              4
_symmetry_space_group_name_H-M     'P 1 21/c 1'
_symmetry_Int_Tables_number        14
_refine_ls_R_factor_all            .0841
loop_
_symmetry_equiv_pos_site_id
_symmetry_equiv_pos_as_xyz
  1	'x, -y+.5, z+.5'
  2	'-x, -y, -z'
  3	'-x, y+.5, -z+.5'
  4	'x, y, z'
loop_
_atom_type_symbol
_atom_type_oxidation_number
Al3+	3
Ca2+	2
N3-	-3
loop_
_atom_site_label
_atom_site_type_symbol
_atom_site_symmetry_multiplicity
_atom_site_Wyckoff_symbol
_atom_site_fract_x
_atom_site_fract_y
_atom_site_fract_z
_atom_site_occupancy
_atom_site_attached_hydrogens
Ca1 Ca2+ 4 e 0.0495(2) 0.0954(4) 0.1850(2) 1. 0 
Ca2 Ca2+ 4 e 0.1829(2) 0.6205(3) 0.0989(2) 1. 0 
Ca3 Ca2+ 4 e 0.4650(2) 0.3470(3) 0.3288(2) 1. 0 
Al1 Al3+ 4 e 0.2581(3) 0.1428(5) 0.0122(3) 1. 0 
Al2 Al3+ 4 e 0.6210(3) 0.3903(5) 0.1092(3) 1. 0 
N1 N3- 4 e 0.0624(9) 0.2358(15) 0.4381(9) 1. 0 
N2 N3- 4 e 0.301(1) 0.0118(16) 0.202(1) 1. 0 
N3 N3- 4 e 0.4003(10) 0.3977(16) 0.0504(9) 1. 0 
N4 N3- 4 e 0.7051(11) 0.1002(15) 0.1048(10) 1. 0 

loop_
_atom_site_aniso_label
_atom_site_aniso_type_symbol
_atom_site_aniso_U_11
_atom_site_aniso_U_22
_atom_site_aniso_U_33
_atom_site_aniso_U_12
_atom_site_aniso_U_13
_atom_site_aniso_U_23
Ca1 Ca2+ 0.0116(9) 0.0124(9) 0.0092(8) -.0009(7) 0.0053(7) -.0018(7)
Ca2 Ca2+ 0.0123(9) 0.0096(9) 0.0125(9) -.0005(7) 0.0031(7) -.0014(7)
Ca3 Ca2+ 0.0099(9) 0.0116(9) 0.0094(8) 0.0003(7) 0.0037(7) 0.0027(7)
Al1 Al3+ 0.0075(12) 0.0077(12) 0.0099(12) 0.0013(10) 0.0014(10) 0.0028(10)
Al2 Al3+ 0.0095(13) 0.0090(13) 0.0086(12) -.0012(10) 0.003(1) -.0013(10)
N1 N3- 0.008(3) 0.012(4) 0.013(4) -.003(3) 0.003(3) -.001(3)
N2 N3- 0.012(4) 0.014(4) 0.012(4) 0.000(3) 0.004(3) 0.001(3)
N3 N3- 0.014(4) 0.015(4) 0.010(3) -.002(3) 0.002(3) 0.000(3)
N4 N3- 0.021(4) 0.008(4) 0.015(4) -.003(3) 0.004(3) -.001(3)
#End of data_280347-ICSD


