data_407797-ICSD
#?2014 by Fachinformationszentrum Karlsruhe, and the U.S. Secretary of 
#Commerce on behalf of the United States.  All rights reserved.
_database_code_ICSD                407797
_audit_creation_date               1999/06/02
_audit_update_record               2010/02/01
_chemical_name_systematic
;
Dipotassium Diiron Dihydroxohexadecaoxodiborotetraphosphate(V)
;
_chemical_formula_structural       'K2 Fe2 (B2 P4 O16 (O H)2)'
_chemical_formula_sum              'H2 B2 Fe2 K2 O18 P4'
_publ_section_title
;
Oligomere Tetraeder-Anionen in Borophosphaten: Darstellung und 
Kristallstrukturen von Na Fe (B P2 O7 (O H)3) und K2 Fe2 (B2 P4 O16 
(O H)2)
;
loop_
_citation_id
_citation_journal_abbrev
_citation_year
_citation_journal_volume
_citation_page_first
_citation_page_last
_citation_journal_id_ASTM
primary 'Zeitschrift fuer Naturforschung, B: Chemical Sciences'
 1998 53 165 170 ZNBSEN
_publ_author_name
;
Boy, I.;Cordier, G.;Eisenmann, B.;Kniep, R.
;
_cell_length_a                     5.1670(9)
_cell_length_b                     8.089(1)
_cell_length_c                     8.340(1)
_cell_angle_alpha                  87.056(7)
_cell_angle_beta                   80.21(1)
_cell_angle_gamma                  86.59(1)
_cell_volume                       342.59
_cell_formula_units_Z              1
_symmetry_space_group_name_H-M     'P -1'
_symmetry_Int_Tables_number        2
_refine_ls_R_factor_all            .0441
loop_
_symmetry_equiv_pos_site_id
_symmetry_equiv_pos_as_xyz
  1	'-x, -y, -z'
  2	'x, y, z'
loop_
_atom_type_symbol
_atom_type_oxidation_number
B3+	3
Fe3+	3
H1+	1
K1+	1
O2-	-2
P5+	5
loop_
_atom_site_label
_atom_site_type_symbol
_atom_site_symmetry_multiplicity
_atom_site_Wyckoff_symbol
_atom_site_fract_x
_atom_site_fract_y
_atom_site_fract_z
_atom_site_occupancy
_atom_site_attached_hydrogens
_atom_site_U_iso_or_equiv
K1 K1+ 2 i 0.72273(14) 0.32522(9) 0.11606(9) 1. 0 0 
Fe1 Fe3+ 2 i 0.26783(8) 0.19656(5) 0.80979(5) 1. 0 0 
B1 B3+ 2 i 0.1222(6) 0.2635(4) 0.4469(4) 1. 0 0 
P1 P5+ 2 i 0.20031(14) 0.57970(9) 0.30229(9) 1. 0 0 
P2 P5+ 2 i 0.21825(14) 0.06098(9) 0.18669(9) 1. 0 0 
O1 O2- 2 i 0.0283(4) 0.4074(3) 0.7914(3) 1. 0 0 
O2 O2- 2 i 0.0534(4) 0.1420(3) 0.3398(3) 1. 0 0 
O3 O2- 2 i 0.0631(4) 0.9181(3) 0.1501(3) 1. 0 0 
O4 O2- 2 i 0.1306(4) 0.6743(3) 0.4624(3) 1. 0 0 
O5 O2- 2 i 0.2475(4) 0.1952(3) 0.0487(3) 1. 0 0 
O6 O2- 2 i 0.2691(4) 0.3953(3) 0.3482(3) 1. 0 0 
O7 O2- 2 i 0.2907(5) 0.1891(3) 0.5590(3) 1. 0 0 
O8 O2- 2 i 0.4507(4) 0.6424(3) 0.2021(3) 1. 0 0 
O9 O2- 2 i 0.4910(4) 0.0045(3) 0.2228(3) 1. 0 0 
H1 H1+ 2 i 0.429(16) 0.1772(99) 0.5195(94) 1. 0 0.086(26) 

loop_
_atom_site_aniso_label
_atom_site_aniso_type_symbol
_atom_site_aniso_U_11
_atom_site_aniso_U_22
_atom_site_aniso_U_33
_atom_site_aniso_U_12
_atom_site_aniso_U_13
_atom_site_aniso_U_23
K1 K1+ 0.0166(3) 0.0211(3) 0.0240(4) 0.0001(2) -.0022(3) -.0035(3)
Fe1 Fe3+ 0.0111(2) 0.0120(2) 0.0106(2) -.00001(14) -.00238(15) -.00100(14)
B1 B3+ 0.0141(14) 0.0098(12) 0.0123(13) 0.0025(10) -.0016(11) -.0029(10)
P1 P5+ 0.0106(3) 0.0107(3) 0.0103(3) 0.0003(2) -.0013(2) -.0013(2)
P2 P5+ 0.0108(3) 0.0110(3) 0.0105(3) 0.0003(2) -.0021(2) -.0015(2)
O1 O2- 0.0138(9) 0.0140(9) 0.0148(10) -.0005(8) -.0050(8) -.0028(8)
O2 O2- 0.015(1) 0.0156(10) 0.0123(9) -.0009(8) -.0004(8) -.0046(8)
O3 O2- 0.0144(10) 0.0136(9) 0.0177(10) -.0018(8) -.0041(8) -.0027(8)
O4 O2- 0.0144(10) 0.0171(10) 0.0129(9) 0.0008(8) -.0006(8) -.0055(8)
O5 O2- 0.0185(10) 0.0152(9) 0.0110(9) -.0027(8) -.0040(8) 0.0013(7)
O6 O2- 0.0133(10) 0.0121(9) 0.0164(10) 0.0008(7) -.0002(8) 0.0007(8)
O7 O2- 0.0178(11) 0.0233(11) 0.0111(10) 0.0054(9) -.0021(8) -.0002(8)
O8 O2- 0.0123(9) 0.0157(10) 0.0127(9) -.0020(7) -.0012(7) -.0004(8)
O9 O2- 0.0118(9) 0.0149(10) 0.0237(11) 0.0024(8) -.0063(8) -.0034(8)
#End of data_407797-ICSD


