data_15440-ICSD
#?2014 by Fachinformationszentrum Karlsruhe, and the U.S. Secretary of 
#Commerce on behalf of the United States.  All rights reserved.
_database_code_ICSD                15440
_audit_creation_date               1980/01/01
_audit_update_record               2006/04/01
_chemical_name_systematic          'Sodium Catena-phosphate(V)'
_chemical_formula_structural       'Na (P O3)'
_chemical_formula_sum              'Na1 O3 P1'
_publ_section_title
;
Die Struktur des Kurrol'schen Na-Salzes (Na P O3x, Typ A
;
loop_
_citation_id
_citation_journal_abbrev
_citation_year
_citation_journal_volume
_citation_page_first
_citation_page_last
_citation_journal_id_ASTM
primary 'Acta Crystallographica (1,1948-23,1967)' 1961 14 844 847 ACCRA9
2 'Golden Book of Phase Transitions, Wroclaw' 2002 1 1 123 GBOPT5
_publ_author_name                  'Jost, K.H.'
_cell_length_a                     12.12(4)
_cell_length_b                     6.20(2)
_cell_length_c                     6.99(3)
_cell_angle_alpha                  90.
_cell_angle_beta                   92.0(5)
_cell_angle_gamma                  90.
_cell_volume                       524.94
_cell_formula_units_Z              8
_symmetry_space_group_name_H-M     'P 1 21/n 1'
_symmetry_Int_Tables_number        14
_refine_ls_R_factor_all            .096
loop_
_symmetry_equiv_pos_site_id
_symmetry_equiv_pos_as_xyz
  1	'-x+.5, y+.5, -z+.5'
  2	'-x, -y, -z'
  3	'x+.5, -y+.5, z+.5'
  4	'x, y, z'
loop_
_atom_type_symbol
_atom_type_oxidation_number
Na1+	1
O2-	-2
P5+	5
loop_
_atom_site_label
_atom_site_type_symbol
_atom_site_symmetry_multiplicity
_atom_site_Wyckoff_symbol
_atom_site_fract_x
_atom_site_fract_y
_atom_site_fract_z
_atom_site_occupancy
_atom_site_attached_hydrogens
Na1 Na1+ 4 e 0.130(9) 0.870(9) 0.629(9) 1. 0 
Na2 Na1+ 4 e 0.006(9) 0.379(9) 0.764(9) 1. 0 
P1 P5+ 4 e 0.215(6) 0.362(6) 0.489(6) 1. 0 
P2 P5+ 4 e 0.111(6) 0.125(6) 0.182(6) 1. 0 
O1 O2- 4 e 0.228(11) 0.215(11) 0.654(11) 1. 0 
O2 O2- 4 e 0.217(11) 0.231(11) 0.286(11) 1. 0 
O3 O2- 4 e 0.120(11) 0.512(11) 0.499(11) 1. 0 
O4 O2- 4 e 0.173(11) 0.987(11) 0.021(11) 1. 0 
O5 O2- 4 e 0.042(11) 0.290(11) 0.087(11) 1. 0 
O6 O2- 4 e 0.056(11) 0.978(11) 0.314(11) 1. 0 

#End of data_15440-ICSD


