data_159058-ICSD
#?2014 by Fachinformationszentrum Karlsruhe, and the U.S. Secretary of 
#Commerce on behalf of the United States.  All rights reserved.
_database_code_ICSD                159058
_audit_creation_date               2008/08/01
_chemical_name_systematic
;
Calcium Magnesium Catena-disilicate
;
_chemical_formula_structural       'Ca Mg (Si2 O6)'
_chemical_formula_sum              'Ca1 Mg1 O6 Si2'
_chemical_name_mineral             Diopside
_publ_section_title
;
The crystal structure of diopside at pressure to 10 GPa
;
loop_
_citation_id
_citation_journal_abbrev
_citation_year
_citation_journal_volume
_citation_page_first
_citation_page_last
_citation_journal_id_ASTM
primary 'American Mineralogist' 2008 93 177 186 AMMIAY
_publ_author_name                  'Thompson, R.M.;Downs, R.T.'
_cell_length_a                     9.5731(7)
_cell_length_b                     8.7197(6)
_cell_length_c                     5.1580(3)
_cell_angle_alpha                  90.
_cell_angle_beta                   105.203(6)
_cell_angle_gamma                  90.
_cell_volume                       415.49
_cell_formula_units_Z              4
_symmetry_space_group_name_H-M     'C 1 2/c 1'
_symmetry_Int_Tables_number        15
_refine_ls_R_factor_all            .042
loop_
_symmetry_equiv_pos_site_id
_symmetry_equiv_pos_as_xyz
  1	'x, -y, z+.5'
  2	'-x, -y, -z'
  3	'-x, y, -z+.5'
  4	'x, y, z'
  5	'x+.5, -y+.5, z+.5'
  6	'-x+.5, -y+.5, -z'
  7	'-x+.5, y+.5, -z+.5'
  8	'x+.5, y+.5, z'
loop_
_atom_type_symbol
_atom_type_oxidation_number
Ca2+	2
Mg2+	2
O2-	-2
Si4+	4
loop_
_atom_site_label
_atom_site_type_symbol
_atom_site_symmetry_multiplicity
_atom_site_Wyckoff_symbol
_atom_site_fract_x
_atom_site_fract_y
_atom_site_fract_z
_atom_site_occupancy
_atom_site_attached_hydrogens
_atom_site_B_iso_or_equiv
Mg1 Mg2+ 4 e 0 0.90984(19) 0.250 1. 0 0.40(4) 
Ca1 Ca2+ 4 e 0 0.30480(12) 0.250 1. 0 0.71(3) 
Si1 Si4+ 8 f 0.28616(15) 0.09503(11) 0.22743(19) 1. 0 0.48(3) 
O1 O2- 8 f 0.11519(39) 0.08817(29) 0.14212(50) 1. 0 0.62(5) 
O2 O2- 8 f 0.35924(40) 0.25493(33) 0.32145(50) 1. 0 0.72(5) 
O3 O2- 8 f 0.35263(39) 0.02196(30) 0.98889(52) 1. 0 0.69(5) 

#End of data_159058-ICSD


