data_81712-ICSD
#?2014 by Fachinformationszentrum Karlsruhe, and the U.S. Secretary of 
#Commerce on behalf of the United States.  All rights reserved.
_database_code_ICSD                81712
_audit_creation_date               1997/05/13
_chemical_name_systematic
;
Potassium Yttrium Hexaselenodiphosphate(IV)
;
_chemical_formula_structural       'K Y (P2 Se6)'
_chemical_formula_sum              'K1 P2 Se6 Y1'
_publ_section_title
;
A comparative study of two new structure types. Synthesis and 
structural and electronic characterization of K (RE) P2 Se6 (RE = Y, 
La, Ce, Pr, Gd)
;
loop_
_citation_id
_citation_journal_abbrev
_citation_year
_citation_journal_volume
_citation_page_first
_citation_page_last
_citation_journal_id_ASTM
primary 'Inorganic Chemistry' 1996 35 5627 5633 INOCAJ
_publ_author_name
;
Chen, J.H.;Dorhout, P.K.;Ostenson, J.E.
;
_cell_length_a                     6.7366(5)
_cell_length_b                     7.4286(6)
_cell_length_c                     21.603(2)
_cell_angle_alpha                  90.
_cell_angle_beta                   90.
_cell_angle_gamma                  90.
_cell_volume                       1081.09
_cell_formula_units_Z              4
_symmetry_space_group_name_H-M     'P 21 21 21'
_symmetry_Int_Tables_number        19
_refine_ls_R_factor_all            .04
loop_
_symmetry_equiv_pos_site_id
_symmetry_equiv_pos_as_xyz
  1	'-x, y+.5, -z+.5'
  2	'x+.5, -y+.5, -z'
  3	'-x+.5, -y, z+.5'
  4	'x, y, z'
loop_
_atom_type_symbol
_atom_type_oxidation_number
K1+	1
P4+	4
Se2-	-2
Y3+	3
loop_
_atom_site_label
_atom_site_type_symbol
_atom_site_symmetry_multiplicity
_atom_site_Wyckoff_symbol
_atom_site_fract_x
_atom_site_fract_y
_atom_site_fract_z
_atom_site_occupancy
_atom_site_attached_hydrogens
_atom_site_U_iso_or_equiv
K1 K1+ 4 a 0.3763(5) 0.4791(5) -.0044(2) 1. 0 0.040(1) 
Y1 Y3+ 4 a 0.2168(2) 0.6788(2) 0.25108(8) 1. 0 0.011(1) 
P1 P4+ 4 a 0.8239(5) 0.4484(5) 0.1105(2) 1. 0 0.010(1) 
P2 P4+ 4 a 0.6913(5) 0.6720(4) 0.1648(2) 1. 0 0.012(1) 
Se1 Se2- 4 a 0.0774(2) 0.3659(2) 0.16916(8) 1. 0 0.013(1) 
Se2 Se2- 4 a -.0670(2) 0.8726(2) 0.16815(8) 1. 0 0.012(1) 
Se3 Se2- 4 a 0.6311(2) 0.5498(2) 0.25662(8) 1. 0 0.011(1) 
Se4 Se2- 4 a 0.4113(2) 0.7627(2) 0.12731(8) 1. 0 0.013(1) 
Se5 Se2- 4 a 0.3916(2) 0.7339(2) 0.38084(8) 1. 0 0.014(1) 
Se6 Se2- 4 a 0.8810(2) 0.5408(2) 0.01771(8) 1. 0 0.021(1) 

#End of data_81712-ICSD


