data_248123-ICSD
#?2014 by Fachinformationszentrum Karlsruhe, and the U.S. Secretary of 
#Commerce on behalf of the United States.  All rights reserved.
_database_code_ICSD                248123
_audit_creation_date               2010/08/01
_chemical_name_systematic
;
Diantimony Zinc Trioxide Dichloride
;
_chemical_formula_structural       'Sb2 Zn O3 Cl2'
_chemical_formula_sum              'Cl2 O3 Sb2 Zn1'
_publ_section_title
;
Lone pairs as chemical scissors in new antimony oxychlorides, Sb2 Zn 
O3 Cl2 and Sb16 Cd8 O25 Cl14
;
loop_
_citation_id
_citation_journal_abbrev
_citation_year
_citation_journal_volume
_citation_journal_issue
_citation_page_first
_citation_page_last
_citation_journal_id_ASTM
primary 'Inorganic Chemistry' 2010 49 6 2990 2995 INOCAJ
_publ_author_name
;
Jo Vinna;Kim Min Kyung;Lee Dong Woo;Shim Il-Wun;Ok Kang Min
;
_cell_length_a                     17.124(4)
_cell_length_b                     5.5598(12)
_cell_length_c                     6.4823(14)
_cell_angle_alpha                  90
_cell_angle_beta                   90
_cell_angle_gamma                  90
_cell_volume                       617.15
_cell_formula_units_Z              4
_symmetry_space_group_name_H-M     'P n m a'
_symmetry_Int_Tables_number        62
_refine_ls_R_factor_all            .0347
loop_
_symmetry_equiv_pos_site_id
_symmetry_equiv_pos_as_xyz
  1	'x+.5, y, -z+.5'
  2	'x, -y+.5, z'
  3	'-x+.5, y+.5, z+.5'
  4	'-x, -y, -z'
  5	'-x+.5, -y, z+.5'
  6	'-x, y+.5, -z'
  7	'x+.5, -y+.5, -z+.5'
  8	'x, y, z'
loop_
_atom_type_symbol
_atom_type_oxidation_number
Cl1-	-1
O2-	-2
Sb3+	3
Zn2+	2
loop_
_atom_site_label
_atom_site_type_symbol
_atom_site_symmetry_multiplicity
_atom_site_Wyckoff_symbol
_atom_site_fract_x
_atom_site_fract_y
_atom_site_fract_z
_atom_site_occupancy
_atom_site_attached_hydrogens
_atom_site_U_iso_or_equiv
Sb1 Sb3+ 4 c 0.11688(3) 0.25 0.67560(7) 1 0 0.0174(2) 
Sb2 Sb3+ 4 c 0.25798(3) 0.25 0.25166(7) 1 0 0.0174(2) 
Zn1 Zn2+ 4 c 0.40989(6) 0.25 0.51732(13) 1 0 0.0238(3) 
Cl1 Cl1- 4 c 0.52848(13) 0.25 0.3673(3) 1 0 0.0317(5) 
Cl2 Cl1- 4 c 0.37649(15) 0.25 0.8521(3) 1 0 0.0332(5) 
O1 O2- 4 c 0.2169(4) 0.25 0.5299(9) 1 0 0.0245(11) 
O2 O2- 8 d 0.1593(2) -0.0174(6) 0.8480(5) 1 0 0.0180(7) 

loop_
_atom_site_aniso_label
_atom_site_aniso_type_symbol
_atom_site_aniso_U_11
_atom_site_aniso_U_22
_atom_site_aniso_U_33
_atom_site_aniso_U_12
_atom_site_aniso_U_13
_atom_site_aniso_U_23
Sb1 Sb3+ 0.0142(3) 0.0175(3) 0.0206(3) 0 -0.00224(18) 0
Sb2 Sb3+ 0.0170(3) 0.0187(3) 0.0166(3) 0 -0.00218(17) 0
Zn1 Zn2+ 0.0170(5) 0.0372(5) 0.0171(4) 0 -0.0001(3) 0
Cl1 Cl1- 0.0199(10) 0.0433(11) 0.0319(9) 0 0.0046(9) 0
Cl2 Cl1- 0.0419(14) 0.0379(10) 0.0197(8) 0 0.0096(8) 0
O1 O2- 0.015(3) 0.033(3) 0.026(3) 0 0.004(2) 0
O2 O2- 0.0159(17) 0.0174(15) 0.0207(15) 0.0019(14) 0.0041(14) 0.0019(15)
#End of data_248123-ICSD


