data_260942-ICSD
#?2014 by Fachinformationszentrum Karlsruhe, and the U.S. Secretary of 
#Commerce on behalf of the United States.  All rights reserved.
_database_code_ICSD                260942
_audit_creation_date               2011/02/01
_chemical_name_systematic
;
Heptapotassium Triarsenic Tetrakis(hexaselenidodiphosphate)
;
_chemical_formula_structural       'K7 As3 (P2 Se6)4'
_chemical_formula_sum              'As3 K7 P8 Se24'
_publ_section_title
;
Arsenic-containing chalcophosphate molecular anions
;
loop_
_citation_id
_citation_journal_abbrev
_citation_year
_citation_journal_volume
_citation_journal_issue
_citation_page_first
_citation_page_last
_citation_journal_id_ASTM
primary 'Inorganic Chemistry' 2010 49 19 9040 9054 INOCAJ
_publ_author_name                  'Morris, C.D.;Kanatzidis, M.G.'
_cell_length_a                     25.0706(3)
_cell_length_b                     9.59480(10)
_cell_length_c                     59.6227(9)
_cell_angle_alpha                  90.00
_cell_angle_beta                   93.3840(10)
_cell_angle_gamma                  90.00
_cell_volume                       14317.08
_cell_formula_units_Z              12
_symmetry_space_group_name_H-M     'P 1 21/c 1'
_symmetry_Int_Tables_number        14
_refine_ls_R_factor_all            .0591
loop_
_symmetry_equiv_pos_site_id
_symmetry_equiv_pos_as_xyz
  1	'x, -y+.5, z+.5'
  2	'-x, -y, -z'
  3	'-x, y+.5, -z+.5'
  4	'x, y, z'
loop_
_atom_type_symbol
_atom_type_oxidation_number
As3+	3
K1+	1
P4+	4
Se2-	-2
loop_
_atom_site_label
_atom_site_type_symbol
_atom_site_symmetry_multiplicity
_atom_site_Wyckoff_symbol
_atom_site_fract_x
_atom_site_fract_y
_atom_site_fract_z
_atom_site_occupancy
_atom_site_attached_hydrogens
_atom_site_U_iso_or_equiv
As1 As3+ 4 e 0.48469(6) 0.25146(14) 0.07644(2) 1 0 0.0206(3) 
As2 As3+ 4 e 0.37827(6) 0.25574(14) 0.13563(2) 1 0 0.0199(3) 
As3 As3+ 4 e 0.34258(6) 0.23397(14) 0.06170(2) 1 0 0.0194(3) 
As4 As3+ 4 e 0.17321(6) 0.73985(14) 0.24631(2) 1 0 0.0203(3) 
As5 As3+ 4 e 0.68355(6) 0.27867(14) 0.29483(2) 1 0 0.0210(3) 
As6 As3+ 4 e 0.70199(6) 0.26801(14) 0.22130(2) 1 0 0.0218(3) 
As7 As3+ 4 e 0.01474(6) 0.22151(14) 0.39290(2) 1 0 0.0197(3) 
As8 As3+ 4 e 0.04118(6) 0.25106(14) 0.46773(2) 1 0 0.0198(3) 
As9 As3+ 4 e 0.15293(6) 0.24783(14) 0.41298(2) 1 0 0.0203(3) 
K1 K1+ 4 e 0.16810(14) 0.2130(3) 0.04335(6) 1 0 0.0293(7) 
K2 K1+ 4 e 0.17884(15) 0.7590(4) 0.34240(6) 1 0 0.0335(8) 
K3 K1+ 4 e 0.33201(14) 0.2785(3) 0.18918(5) 1 0 0.0262(7) 
K4 K1+ 4 e 0.23455(13) 0.2688(3) 0.25522(6) 1 0 0.0269(7) 
K5 K1+ 4 e 0.06594(14) 0.7348(3) 0.40527(6) 1 0 0.0276(7) 
K6 K1+ 4 e 0.01002(14) 0.7302(3) 0.20828(6) 1 0 0.0289(7) 
K7 K1+ 4 e 0.71740(16) 0.2483(4) 0.03446(7) 1 0 0.0413(9) 
K8 K1+ 4 e 0.64498(14) 0.2434(3) 0.11516(6) 1 0 0.0286(7) 
K9 K1+ 4 e 0.60379(14) 0.2426(3) 0.42764(6) 1 0 0.0290(7) 
K10 K1+ 4 e 0.38608(16) 0.2371(4) 0.37714(8) 1 0 0.0467(10) 
K11 K1+ 4 e 0.02773(17) 0.2333(4) 0.20257(7) 1 0 0.0387(9) 
K12 K1+ 4 e 0.18574(16) 0.2624(4) 0.33247(7) 1 0 0.0356(8) 
K13 K1+ 4 e 0.30605(14) 0.2430(3) 0.46163(6) 1 0 0.0300(7) 
K14 K1+ 4 e 0.45670(16) 0.2758(4) 0.30435(8) 1 0 0.0460(10) 
K15 K1+ 4 e 0.16649(15) 0.7217(4) 0.13269(6) 1 0 0.0332(8) 
K16 K1+ 4 e 0.15732(14) 0.2445(3) 0.14333(6) 1 0 0.0309(7) 
K17 K1+ 4 e 0.02085(13) 0.7625(3) 0.48227(5) 1 0 0.0255(7) 
K18 K1+ 4 e 0.50954(15) 0.2493(4) 0.49452(6) 1 0 0.0333(8) 
K19 K1+ 4 e 0.17813(16) 0.7361(4) 0.03019(8) 1 0 0.0412(9) 
K20 K1+ 4 e 0.63839(13) 0.2761(3) 0.34819(5) 1 0 0.0237(6) 
K21 K1+ 4 e 0.51781(14) 0.2929(3) 0.20845(6) 1 0 0.0295(7) 
P1 P4+ 4 e 0.59244(15) 0.4389(4) 0.05158(6) 1 0 0.0222(7) 
P2 P4+ 4 e 0.08891(15) 0.4431(4) 0.25840(6) 1 0 0.0206(7) 
P3 P4+ 4 e 0.15936(14) 0.8906(4) 0.19234(6) 1 0 0.0188(7) 
P4 P4+ 4 e 0.22632(15) 0.0421(4) 0.19246(6) 1 0 0.0196(7) 
P5 P4+ 4 e 0.57037(15) 0.1096(4) 0.27540(6) 1 0 0.0222(8) 
P6 P4+ 4 e 0.36613(15) 0.5046(3) 0.24332(6) 1 0 0.0189(7) 
P7 P4+ 4 e 0.30580(15) 0.0705(4) 0.30009(6) 1 0 0.0206(7) 
P8 P4+ 4 e 0.66635(15) 0.4494(4) 0.16952(6) 1 0 0.0212(7) 
P9 P4+ 4 e 0.05851(15) 0.0425(4) 0.35042(6) 1 0 0.0201(7) 
P10 P4+ 4 e 0.01945(15) 0.4337(4) 0.14528(6) 1 0 0.0197(7) 
P11 P4+ 4 e 0.08591(15) 0.6352(4) 0.57610(6) 1 0 0.0203(7) 
P12 P4+ 4 e 0.47614(15) 0.0537(4) 0.43511(6) 1 0 0.0201(7) 
P13 P4+ 4 e 0.04196(14) 0.0156(4) 0.05383(6) 1 0 0.0187(7) 
P14 P4+ 4 e 0.14789(15) 0.0789(4) 0.49056(6) 1 0 0.0190(7) 
P15 P4+ 4 e 0.86445(15) 0.4766(4) 0.04268(6) 1 0 0.0203(7) 
P16 P4+ 4 e 0.19631(15) 0.5485(4) 0.40176(6) 1 0 0.0205(7) 
P17 P4+ 4 e 0.26698(15) 0.4264(4) 0.39189(6) 1 0 0.0212(7) 
P18 P4+ 4 e 0.52724(15) 0.4843(3) 0.37693(6) 1 0 0.0188(7) 
P19 P4+ 4 e 0.49061(15) 0.0870(4) 0.15606(6) 1 0 0.0212(7) 
P20 P4+ 4 e 0.29523(15) 0.5267(4) 0.11701(6) 1 0 0.0215(7) 
P21 P4+ 4 e 0.24756(15) 0.3781(4) 0.09565(6) 1 0 0.0194(7) 
P22 P4+ 4 e 0.38025(15) 0.0605(4) 0.01724(6) 1 0 0.0204(7) 
P23 P4+ 4 e 0.30423(15) 0.5520(4) 0.52349(6) 1 0 0.0201(7) 
P24 P4+ 4 e 0.12680(16) 0.5584(4) 0.28791(6) 1 0 0.0223(8) 
Se1 Se2- 4 e 0.59970(6) 0.49352(15) 0.01707(2) 1 0 0.0252(3) 
Se2 Se2- 4 e 0.57380(6) 0.05933(15) 0.16378(3) 1 0 0.0260(3) 
Se3 Se2- 4 e 0.47246(6) 0.30685(14) 0.14524(2) 1 0 0.0202(3) 
Se4 Se2- 4 e 0.43625(6) 0.01837(15) 0.18032(2) 1 0 0.0246(3) 
Se5 Se2- 4 e 0.37982(6) 0.45534(14) 0.11168(2) 1 0 0.0200(3) 
Se6 Se2- 4 e 0.28903(6) 0.73208(14) 0.10348(3) 1 0 0.0230(3) 
Se7 Se2- 4 e 0.27288(6) 0.49647(15) 0.15090(2) 1 0 0.0236(3) 
Se8 Se2- 4 e 0.16575(6) 0.43926(15) 0.09480(3) 1 0 0.0250(3) 
Se9 Se2- 4 e 0.26976(6) 0.17314(14) 0.10789(2) 1 0 0.0210(3) 
Se10 Se2- 4 e 0.27539(6) 0.41484(14) 0.06087(2) 1 0 0.0220(3) 
Se11 Se2- 4 e 0.29039(6) 0.02027(14) 0.05907(2) 1 0 0.0212(3) 
Se12 Se2- 4 e 0.66223(6) 0.47249(16) 0.07351(3) 1 0 0.0263(3) 
Se13 Se2- 4 e 0.24037(6) 0.01635(15) 0.00042(3) 1 0 0.0240(3) 
Se14 Se2- 4 e 0.32053(6) 0.72934(14) 0.02406(3) 1 0 0.0279(3) 
Se15 Se2- 4 e 0.35188(6) 0.28041(14) 0.02226(2) 1 0 0.0198(3) 
Se16 Se2- 4 e 0.44067(6) 0.00330(14) 0.04263(3) 1 0 0.0244(3) 
Se17 Se2- 4 e 0.39866(6) 0.46941(16) 0.48312(3) 1 0 0.0273(3) 
Se18 Se2- 4 e 0.08193(7) 0.52304(16) 0.31660(3) 1 0 0.0292(3) 
Se19 Se2- 4 e 0.21111(6) 0.51532(15) 0.29108(3) 1 0 0.0257(3) 
Se20 Se2- 4 e 0.11322(6) 0.77919(14) 0.27578(2) 1 0 0.0225(3) 
Se21 Se2- 4 e 0.10633(6) 0.22713(15) 0.26291(3) 1 0 0.0277(3) 
Se22 Se2- 4 e 0.00703(6) 0.50551(15) 0.25317(3) 1 0 0.0262(3) 
Se23 Se2- 4 e 0.56002(6) 0.21652(14) 0.05325(3) 1 0 0.0237(3) 
Se24 Se2- 4 e 0.13680(6) 0.52613(14) 0.22990(2) 1 0 0.0208(3) 
Se25 Se2- 4 e 0.12324(6) 0.58131(14) 0.72569(2) 1 0 0.0225(3) 
Se26 Se2- 4 e 0.09919(6) 0.54285(15) 0.66809(3) 1 0 0.0246(3) 
Se27 Se2- 4 e 0.19899(6) 0.69198(14) 0.18980(2) 1 0 0.0207(3) 
Se28 Se2- 4 e 0.26406(6) 0.01600(15) 0.16148(2) 1 0 0.0237(3) 
Se29 Se2- 4 e 0.19957(6) 0.24804(14) 0.20036(2) 1 0 0.0234(3) 
Se30 Se2- 4 e 0.72213(6) 0.47451(14) 0.27691(2) 1 0 0.0205(3) 
Se31 Se2- 4 e 0.59995(6) 0.32818(13) 0.27227(2) 1 0 0.0204(3) 
Se32 Se2- 4 e 0.57567(6) 0.03894(14) 0.30974(2) 1 0 0.0222(3) 
Se33 Se2- 4 e 0.49596(6) 0.08352(16) 0.25682(3) 1 0 0.0266(3) 
Se34 Se2- 4 e 0.45955(6) 0.26835(14) 0.43348(3) 1 0 0.0246(3) 
Se35 Se2- 4 e 0.28884(6) 0.57354(14) 0.22541(2) 1 0 0.0200(3) 
Se36 Se2- 4 e 0.37286(6) 0.28434(14) 0.24280(2) 1 0 0.0235(3) 
Se37 Se2- 4 e 0.62758(6) 0.08654(14) 0.22193(2) 1 0 0.0203(3) 
Se38 Se2- 4 e 0.64219(6) 0.46708(14) 0.22472(2) 1 0 0.0201(3) 
Se39 Se2- 4 e 0.77435(6) 0.49637(15) 0.20936(3) 1 0 0.0248(3) 
Se40 Se2- 4 e 0.32080(6) 0.28378(14) 0.30560(3) 1 0 0.0261(3) 
Se41 Se2- 4 e 0.69192(6) 0.23280(14) 0.18103(2) 1 0 0.0213(3) 
Se42 Se2- 4 e 0.58147(6) 0.48051(15) 0.16367(3) 1 0 0.0250(3) 
Se43 Se2- 4 e 0.28507(6) 0.00256(15) 0.35754(2) 1 0 0.0255(3) 
Se44 Se2- 4 e 0.88465(6) 0.49183(15) 0.12231(3) 1 0 0.0235(3) 
Se45 Se2- 4 e 0.52094(6) 0.44838(13) 0.09845(2) 1 0 0.0197(3) 
Se46 Se2- 4 e 0.08353(6) 0.01043(16) 0.31724(3) 1 0 0.0270(3) 
Se47 Se2- 4 e 0.03030(6) 0.26468(14) 0.35387(2) 1 0 0.0208(3) 
Se48 Se2- 4 e 0.00623(6) 0.21369(14) 0.14352(3) 1 0 0.0265(3) 
Se49 Se2- 4 e 0.07913(6) 0.50614(15) 0.16994(3) 1 0 0.0251(3) 
Se50 Se2- 4 e 0.03720(6) 0.50818(14) 0.11031(2) 1 0 0.0215(3) 
Se51 Se2- 4 e 0.05327(6) 0.59996(14) 0.61011(2) 1 0 0.0226(3) 
Se52 Se2- 4 e 0.16749(6) 0.57439(15) 0.57929(3) 1 0 0.0269(3) 
Se53 Se2- 4 e 0.06458(6) 0.66364(14) 0.06219(2) 1 0 0.0204(3) 
Se54 Se2- 4 e 0.04624(6) 0.22067(14) 0.06781(2) 1 0 0.0226(3) 
Se55 Se2- 4 e 0.07005(6) 0.51027(14) 0.52066(2) 1 0 0.0223(3) 
Se56 Se2- 4 e 0.45339(6) 0.47691(15) 0.04550(2) 1 0 0.0227(3) 
Se57 Se2- 4 e 0.04436(6) 0.44906(14) 0.44346(2) 1 0 0.0202(3) 
Se58 Se2- 4 e 0.13455(6) 0.29932(13) 0.47927(2) 1 0 0.0196(3) 
Se59 Se2- 4 e 0.08593(6) 0.48560(14) 0.01179(2) 1 0 0.0235(3) 
Se60 Se2- 4 e 0.22849(6) 0.45798(15) 0.00171(2) 1 0 0.0248(3) 
Se61 Se2- 4 e 0.05422(6) 0.04837(14) 0.44391(2) 1 0 0.0195(3) 
Se62 Se2- 4 e 0.13935(6) 0.75573(13) 0.46027(3) 1 0 0.0224(3) 
Se63 Se2- 4 e 0.19863(6) 0.05990(13) 0.43653(2) 1 0 0.0203(3) 
Se64 Se2- 4 e 0.18626(6) 0.44650(13) 0.43534(2) 1 0 0.0187(3) 
Se65 Se2- 4 e 0.12872(6) 0.47687(15) 0.38037(3) 1 0 0.0248(3) 
Se66 Se2- 4 e 0.78363(6) 0.26172(14) 0.09640(3) 1 0 0.0254(3) 
Se67 Se2- 4 e 0.53226(6) 0.06305(14) 0.10009(2) 1 0 0.0208(3) 
Se68 Se2- 4 e 0.33111(6) 0.45321(16) 0.41664(3) 1 0 0.0279(3) 
Se69 Se2- 4 e 0.23020(6) 0.20973(14) 0.39124(3) 1 0 0.0240(3) 
Se70 Se2- 4 e 0.28290(6) 0.48036(15) 0.35799(2) 1 0 0.0261(3) 
Se71 Se2- 4 e 0.52452(6) 0.26290(14) 0.37392(3) 1 0 0.0235(3) 
Se72 Se2- 4 e 0.38950(6) 0.05430(13) 0.11157(2) 1 0 0.0197(3) 

loop_
_atom_site_aniso_label
_atom_site_aniso_type_symbol
_atom_site_aniso_U_11
_atom_site_aniso_U_22
_atom_site_aniso_U_33
_atom_site_aniso_U_12
_atom_site_aniso_U_13
_atom_site_aniso_U_23
As1 As3+ 0.0207(7) 0.0197(6) 0.0215(7) -0.0012(5) 0.0024(6) -0.0019(6)
As2 As3+ 0.0231(7) 0.0182(6) 0.0182(7) 0.0004(5) 0.0008(6) 0.0004(5)
As3 As3+ 0.0210(7) 0.0189(6) 0.0179(7) -0.0006(5) -0.0025(6) -0.0004(5)
As4 As3+ 0.0195(7) 0.0197(6) 0.0218(7) -0.0001(5) 0.0006(6) 0.0007(6)
As5 As3+ 0.0248(7) 0.0198(6) 0.0183(7) -0.0024(6) 0.0016(6) -0.0005(5)
As6 As3+ 0.0262(8) 0.0195(6) 0.0192(7) 0.0032(6) -0.0033(6) 0.0002(5)
As7 As3+ 0.0223(7) 0.0186(6) 0.0179(7) 0.0013(5) -0.0017(6) 0.0003(5)
As8 As3+ 0.0211(7) 0.0201(6) 0.0182(7) 0.0015(5) 0.0012(6) 0.0011(5)
As9 As3+ 0.0211(7) 0.0190(6) 0.0210(7) -0.0019(5) 0.0027(6) -0.0024(5)
K1 K1+ 0.0313(18) 0.0270(16) 0.0291(17) -0.0041(14) -0.0029(14) 0.0026(13)
K2 K1+ 0.0360(19) 0.0332(17) 0.0309(18) 0.0036(15) -0.0023(15) -0.0023(15)
K3 K1+ 0.0294(17) 0.0264(15) 0.0224(15) -0.0052(13) -0.0032(13) 0.0012(13)
K4 K1+ 0.0271(17) 0.0289(16) 0.0245(16) 0.0007(13) -0.0007(13) -0.0024(13)
K5 K1+ 0.0327(18) 0.0275(16) 0.0226(15) 0.0014(14) 0.0014(14) 0.0022(13)
K6 K1+ 0.0282(17) 0.0281(16) 0.0301(17) 0.0013(13) -0.0006(14) -0.0021(14)
K7 K1+ 0.0323(19) 0.045(2) 0.046(2) 0.0060(16) 0.0006(17) -0.0128(18)
K8 K1+ 0.0322(18) 0.0231(15) 0.0301(17) -0.0003(13) -0.0026(14) -0.0016(13)
K9 K1+ 0.0321(18) 0.0290(16) 0.0263(16) -0.0037(14) 0.0040(14) -0.0008(13)
K10 K1+ 0.032(2) 0.041(2) 0.067(3) 0.0012(17) 0.004(2) -0.022(2)
K11 K1+ 0.046(2) 0.0354(18) 0.0334(19) -0.0103(17) -0.0071(17) 0.0045(15)
K12 K1+ 0.041(2) 0.0296(17) 0.0365(19) -0.0006(15) 0.0005(17) 0.0020(15)
K13 K1+ 0.0321(18) 0.0249(15) 0.0322(17) -0.0003(13) -0.0038(15) 
-0.0003(14)
K14 K1+ 0.037(2) 0.0324(18) 0.071(3) 0.0000(16) 0.015(2) -0.0145(19)
K15 K1+ 0.037(2) 0.0353(18) 0.0263(17) 0.0104(15) -0.0027(15) -0.0022(14)
K16 K1+ 0.0339(18) 0.0288(16) 0.0299(17) 0.0031(14) 0.0016(15) 0.0062(14)
K17 K1+ 0.0259(16) 0.0280(15) 0.0226(15) -0.0032(13) 0.0001(13) -0.0019(13)
K18 K1+ 0.042(2) 0.0289(17) 0.0288(17) 0.0009(15) -0.0040(15) 0.0029(14)
K19 K1+ 0.035(2) 0.0308(18) 0.059(3) -0.0080(15) 0.0127(19) -0.0174(18)
K20 K1+ 0.0241(16) 0.0269(15) 0.0200(15) 0.0022(12) -0.0007(13) 0.0034(12)
K21 K1+ 0.0325(18) 0.0266(16) 0.0287(17) 0.0017(14) -0.0053(14) -0.0016(13)
P1 P4+ 0.0219(18) 0.0224(17) 0.0225(18) -0.0035(14) 0.0012(15) 0.0014(14)
P2 P4+ 0.0221(18) 0.0181(16) 0.0217(18) 0.0006(14) 0.0021(15) 0.0008(14)
P3 P4+ 0.0175(17) 0.0193(16) 0.0195(17) -0.0004(13) 0.0010(14) -0.0018(14)
P4 P4+ 0.0210(18) 0.0205(16) 0.0171(16) 0.0024(14) -0.0010(14) -0.0003(14)
P5 P4+ 0.0226(19) 0.0200(17) 0.0241(18) -0.0026(14) 0.0027(15) 0.0006(14)
P6 P4+ 0.0225(18) 0.0164(16) 0.0177(16) -0.0008(14) -0.0002(14) -0.0006(13)
P7 P4+ 0.0230(18) 0.0209(17) 0.0176(17) 0.0002(14) -0.0015(15) -0.0020(14)
P8 P4+ 0.0237(19) 0.0210(17) 0.0186(17) 0.0003(14) -0.0012(15) -0.0004(14)
P9 P4+ 0.0188(17) 0.0208(17) 0.0206(17) -0.0016(14) 0.0005(15) 0.0007(14)
P10 P4+ 0.0202(18) 0.0193(16) 0.0195(17) -0.0010(14) 0.0016(15) -0.0015(14)
P11 P4+ 0.0205(18) 0.0223(17) 0.0180(17) 0.0027(14) 0.0001(15) -0.0031(14)
P12 P4+ 0.0217(18) 0.0203(16) 0.0181(17) 0.0006(14) 0.0003(15) -0.0015(14)
P13 P4+ 0.0190(17) 0.0196(16) 0.0175(16) 0.0001(14) -0.0001(14) 0.0002(13)
P14 P4+ 0.0218(18) 0.0194(16) 0.0150(16) 0.0012(14) -0.0044(14) 0.0007(13)
P15 P4+ 0.0232(18) 0.0171(16) 0.0207(17) 0.0004(14) 0.0025(15) 0.0002(14)
P16 P4+ 0.0228(18) 0.0197(16) 0.0192(17) -0.0001(14) 0.0026(15) -0.0005(14)
P17 P4+ 0.0211(18) 0.0206(17) 0.0217(18) -0.0037(14) 0.0010(15) -0.0012(14)
P18 P4+ 0.0217(18) 0.0159(15) 0.0184(16) -0.0015(13) -0.0012(14) 0.0005(13)
P19 P4+ 0.0229(19) 0.0211(17) 0.0190(17) -0.0024(14) -0.0024(15) 
-0.0001(14)
P20 P4+ 0.0204(18) 0.0252(18) 0.0189(17) -0.0001(15) 0.0016(15) -0.0018(14)
P21 P4+ 0.0203(18) 0.0212(17) 0.0162(16) 0.0003(14) -0.0039(14) -0.0006(13)
P22 P4+ 0.0200(18) 0.0204(16) 0.0205(17) 0.0009(14) -0.0005(15) -0.0020(14)
P23 P4+ 0.0192(17) 0.0213(17) 0.0193(17) 0.0007(14) -0.0035(14) 0.0022(14)
P24 P4+ 0.028(2) 0.0201(17) 0.0193(17) 0.0015(14) 0.0016(15) 0.0007(14)
Se1 Se2- 0.0305(8) 0.0265(7) 0.0191(7) -0.0035(6) 0.0044(6) 0.0010(6)
Se2 Se2- 0.0226(7) 0.0284(7) 0.0262(7) -0.0010(6) -0.0057(6) 0.0050(6)
Se3 Se2- 0.0211(7) 0.0189(6) 0.0201(7) -0.0018(5) -0.0029(6) -0.0014(5)
Se4 Se2- 0.0281(8) 0.0260(7) 0.0200(7) -0.0043(6) 0.0038(6) -0.0003(6)
Se5 Se2- 0.0200(7) 0.0186(6) 0.0213(7) 0.0007(5) 0.0001(6) 0.0032(5)
Se6 Se2- 0.0242(7) 0.0181(6) 0.0265(7) 0.0020(5) -0.0011(6) 0.0022(6)
Se7 Se2- 0.0263(7) 0.0243(7) 0.0200(7) 0.0017(6) 0.0006(6) -0.0006(6)
Se8 Se2- 0.0195(7) 0.0270(7) 0.0279(7) 0.0022(6) -0.0029(6) -0.0029(6)
Se9 Se2- 0.0225(7) 0.0203(6) 0.0201(7) -0.0002(5) -0.0002(6) 0.0016(5)
Se10 Se2- 0.0269(7) 0.0212(6) 0.0178(6) 0.0030(6) 0.0005(6) 0.0010(5)
Se11 Se2- 0.0234(7) 0.0200(6) 0.0201(7) -0.0022(5) 0.0007(6) 0.0008(5)
Se12 Se2- 0.0190(7) 0.0319(7) 0.0276(8) -0.0020(6) -0.0032(6) 0.0043(6)
Se13 Se2- 0.0216(7) 0.0236(7) 0.0259(7) -0.0004(6) -0.0070(6) -0.0017(6)
Se14 Se2- 0.0312(8) 0.0179(7) 0.0337(8) 0.0005(6) -0.0054(7) -0.0028(6)
Se15 Se2- 0.0226(7) 0.0187(6) 0.0180(6) -0.0002(5) 0.0008(6) 0.0016(5)
Se16 Se2- 0.0214(7) 0.0219(7) 0.0290(7) -0.0017(6) -0.0048(6) 0.0010(6)
Se17 Se2- 0.0322(8) 0.0290(7) 0.0212(7) -0.0039(6) 0.0054(6) 0.0013(6)
Se18 Se2- 0.0359(9) 0.0333(8) 0.0189(7) 0.0017(7) 0.0059(6) 0.0037(6)
Se19 Se2- 0.0237(7) 0.0253(7) 0.0271(7) -0.0002(6) -0.0060(6) -0.0021(6)
Se20 Se2- 0.0282(8) 0.0195(6) 0.0198(7) 0.0015(6) 0.0016(6) -0.0012(5)
Se21 Se2- 0.0267(8) 0.0182(7) 0.0385(9) -0.0022(6) 0.0056(7) 0.0005(6)
Se22 Se2- 0.0210(7) 0.0300(7) 0.0273(7) -0.0011(6) -0.0006(6) 0.0027(6)
Se23 Se2- 0.0277(7) 0.0189(6) 0.0252(7) 0.0004(6) 0.0080(6) -0.0018(6)
Se24 Se2- 0.0246(7) 0.0204(6) 0.0175(6) -0.0022(6) 0.0016(6) -0.0019(5)
Se25 Se2- 0.0251(7) 0.0211(7) 0.0218(7) -0.0050(5) 0.0045(6) -0.0029(5)
Se26 Se2- 0.0235(7) 0.0262(7) 0.0232(7) 0.0002(6) -0.0057(6) -0.0008(6)
Se27 Se2- 0.0209(7) 0.0193(6) 0.0216(7) 0.0001(5) -0.0005(6) -0.0016(5)
Se28 Se2- 0.0251(7) 0.0248(7) 0.0212(7) -0.0004(6) 0.0029(6) 0.0007(6)
Se29 Se2- 0.0269(7) 0.0176(6) 0.0252(7) 0.0028(6) -0.0011(6) -0.0003(5)
Se30 Se2- 0.0227(7) 0.0200(6) 0.0184(6) -0.0015(5) -0.0024(6) 0.0015(5)
Se31 Se2- 0.0230(7) 0.0174(6) 0.0206(7) 0.0017(5) 0.0004(6) 0.0003(5)
Se32 Se2- 0.0246(7) 0.0230(7) 0.0190(7) 0.0001(6) 0.0004(6) 0.0005(5)
Se33 Se2- 0.0207(7) 0.0311(7) 0.0274(7) -0.0015(6) -0.0045(6) 0.0054(6)
Se34 Se2- 0.0293(8) 0.0183(6) 0.0262(7) 0.0000(6) 0.0005(6) -0.0012(6)
Se35 Se2- 0.0194(7) 0.0185(6) 0.0218(7) -0.0006(5) -0.0004(6) 0.0013(5)
Se36 Se2- 0.0280(8) 0.0178(6) 0.0242(7) 0.0028(6) -0.0011(6) -0.0011(5)
Se37 Se2- 0.0240(7) 0.0188(6) 0.0179(6) -0.0002(5) -0.0011(6) -0.0001(5)
Se38 Se2- 0.0240(7) 0.0194(6) 0.0169(6) -0.0003(5) 0.0017(6) 0.0006(5)
Se39 Se2- 0.0225(7) 0.0267(7) 0.0245(7) -0.0017(6) -0.0044(6) 0.0010(6)
Se40 Se2- 0.0307(8) 0.0191(7) 0.0283(8) -0.0004(6) 0.0014(6) -0.0019(6)
Se41 Se2- 0.0267(7) 0.0188(6) 0.0179(6) 0.0006(5) -0.0011(6) -0.0010(5)
Se42 Se2- 0.0218(7) 0.0258(7) 0.0267(7) -0.0015(6) -0.0054(6) 0.0035(6)
Se43 Se2- 0.0312(8) 0.0252(7) 0.0204(7) 0.0019(6) 0.0042(6) -0.0009(6)
Se44 Se2- 0.0217(7) 0.0238(7) 0.0244(7) 0.0015(6) -0.0034(6) 0.0024(6)
Se45 Se2- 0.0232(7) 0.0187(6) 0.0173(6) 0.0001(5) 0.0007(6) 0.0001(5)
Se46 Se2- 0.0307(8) 0.0301(7) 0.0207(7) 0.0036(6) 0.0059(6) -0.0013(6)
Se47 Se2- 0.0236(7) 0.0189(6) 0.0199(7) -0.0006(5) 0.0005(6) 0.0003(5)
Se48 Se2- 0.0345(8) 0.0180(6) 0.0262(7) 0.0007(6) -0.0053(7) 0.0016(6)
Se49 Se2- 0.0237(7) 0.0257(7) 0.0250(7) 0.0016(6) -0.0068(6) -0.0016(6)
Se50 Se2- 0.0230(7) 0.0204(6) 0.0211(7) 0.0015(5) 0.0016(6) 0.0006(5)
Se51 Se2- 0.0280(8) 0.0218(7) 0.0179(6) 0.0038(6) -0.0001(6) 0.0018(5)
Se52 Se2- 0.0196(7) 0.0291(7) 0.0316(8) 0.0030(6) -0.0034(6) -0.0054(6)
Se53 Se2- 0.0218(7) 0.0186(6) 0.0207(7) 0.0001(5) -0.0010(6) -0.0002(5)
Se54 Se2- 0.0238(7) 0.0183(6) 0.0252(7) -0.0021(5) -0.0019(6) -0.0019(5)
Se55 Se2- 0.0249(7) 0.0223(7) 0.0197(7) -0.0002(6) 0.0013(6) -0.0004(5)
Se56 Se2- 0.0212(7) 0.0254(7) 0.0210(7) -0.0015(6) -0.0020(6) 0.0006(6)
Se57 Se2- 0.0184(7) 0.0186(6) 0.0234(7) -0.0001(5) 0.0001(6) 0.0025(5)
Se58 Se2- 0.0220(7) 0.0173(6) 0.0191(6) -0.0008(5) -0.0011(6) -0.0010(5)
Se59 Se2- 0.0285(8) 0.0219(7) 0.0203(7) 0.0022(6) 0.0033(6) -0.0006(5)
Se60 Se2- 0.0239(7) 0.0272(7) 0.0226(7) -0.0004(6) -0.0048(6) -0.0018(6)
Se61 Se2- 0.0205(7) 0.0190(6) 0.0186(6) 0.0002(5) -0.0023(5) -0.0004(5)
Se62 Se2- 0.0236(7) 0.0153(6) 0.0285(7) 0.0008(5) 0.0021(6) 0.0019(5)
Se63 Se2- 0.0204(7) 0.0177(6) 0.0228(7) 0.0002(5) 0.0016(6) 0.0008(5)
Se64 Se2- 0.0212(7) 0.0183(6) 0.0165(6) -0.0006(5) 0.0000(5) 0.0001(5)
Se65 Se2- 0.0226(7) 0.0280(7) 0.0231(7) -0.0005(6) -0.0043(6) 0.0010(6)
Se66 Se2- 0.0296(8) 0.0186(6) 0.0279(7) 0.0005(6) 0.0004(6) -0.0008(6)
Se67 Se2- 0.0220(7) 0.0179(6) 0.0226(7) 0.0003(5) 0.0031(6) 0.0012(5)
Se68 Se2- 0.0197(7) 0.0341(8) 0.0294(8) -0.0018(6) -0.0032(6) 0.0051(6)
Se69 Se2- 0.0277(8) 0.0189(6) 0.0262(7) -0.0018(6) 0.0093(6) -0.0021(6)
Se70 Se2- 0.0317(8) 0.0259(7) 0.0211(7) -0.0044(6) 0.0060(6) 0.0002(6)
Se71 Se2- 0.0249(7) 0.0171(6) 0.0288(7) -0.0007(5) 0.0034(6) -0.0018(6)
Se72 Se2- 0.0196(7) 0.0191(6) 0.0200(7) 0.0010(5) -0.0025(6) -0.0012(5)
#End of data_260942-ICSD


