data_417513-ICSD
#?2014 by Fachinformationszentrum Karlsruhe, and the U.S. Secretary of 
#Commerce on behalf of the United States.  All rights reserved.
_database_code_ICSD                417513
_audit_creation_date               2013/08/01
_chemical_name_systematic          'Calcium Molybdate'
_chemical_formula_structural       'Ca (Mo O4)'
_chemical_formula_sum              'Ca1 Mo1 O4'
_publ_section_title
;
Application of FFT data from HREM images to electron crystallography
;
loop_
_citation_id
_citation_journal_abbrev
_citation_year
_citation_journal_volume
_citation_journal_issue
_citation_page_first
_citation_page_last
_citation_journal_id_ASTM
primary 'Journal of Analytical Science and Technology' 2012 3 1 128 134 JASTHH
_publ_author_name
;
Lee, Sang-Gil;Kim, Youn-Joong;Yoo, Seung Jo;Lee, Seok-Hoon;Kim, Jin-
Gyu
;
_cell_length_a                     5.2384(17)
_cell_length_b                     5.2384(17)
_cell_length_c                     11.425(7)
_cell_angle_alpha                  90.
_cell_angle_beta                   90.
_cell_angle_gamma                  90.
_cell_volume                       313.51
_cell_formula_units_Z              4
_symmetry_space_group_name_H-M     'I 41/a Z'
_symmetry_Int_Tables_number        88
_refine_ls_R_factor_all            .0133
loop_
_symmetry_equiv_pos_site_id
_symmetry_equiv_pos_as_xyz
  1	'-y+.75, x+.75, -z+.75'
  2	'y+.25, -x+.75, -z+.75'
  3	'x, y+.5, -z'
  4	'-x, -y, -z'
  5	'y+.25, -x+.25, z+.25'
  6	'-y+.75, x+.25, z+.25'
  7	'-x, -y+.5, z'
  8	'x, y, z'
  9	'-y+.25, x+.25, -z+.25'
 10	'y+.75, -x+.25, -z+.25'
 11	'x+.5, y, -z+.5'
 12	'-x+.5, -y+.5, -z+.5'
 13	'y+.75, -x+.75, z+.75'
 14	'-y+.25, x+.75, z+.75'
 15	'-x+.5, -y, z+.5'
 16	'x+.5, y+.5, z+.5'
loop_
_atom_type_symbol
_atom_type_oxidation_number
Ca2+	2
Mo6+	6
O2-	-2
loop_
_atom_site_label
_atom_site_type_symbol
_atom_site_symmetry_multiplicity
_atom_site_Wyckoff_symbol
_atom_site_fract_x
_atom_site_fract_y
_atom_site_fract_z
_atom_site_occupancy
_atom_site_attached_hydrogens
_atom_site_U_iso_or_equiv
Mo1 Mo6+ 4 a 0.0000 0.2500 0.1250 1 0 0.0063(2) 
Ca1 Ca2+ 4 b 0.0000 0.2500 0.6250 1 0 0.0064(3) 
O1 O2- 16 f 0.1480(2) 0.4934(2) 0.20944(12) 1 0 0.0111(3) 

loop_
_atom_site_aniso_label
_atom_site_aniso_type_symbol
_atom_site_aniso_U_11
_atom_site_aniso_U_22
_atom_site_aniso_U_33
_atom_site_aniso_U_12
_atom_site_aniso_U_13
_atom_site_aniso_U_23
Mo1 Mo6+ 0.0061(2) 0.0061(2) 0.0066(3) 0.000 0.000 0.000
Ca1 Ca2+ 0.0074(4) 0.0074(4) 0.0045(5) 0.000 0.000 0.000
O1 O2- 0.0113(6) 0.0122(6) 0.0097(6) -0.0010(4) 0.0008(5) -0.0020(5)
#End of data_417513-ICSD


