data_79651-ICSD
#?2014 by Fachinformationszentrum Karlsruhe, and the U.S. Secretary of 
#Commerce on behalf of the United States.  All rights reserved.
_database_code_ICSD                79651
_audit_creation_date               1996/10/14
_chemical_name_systematic          'Potassium Oxovanadium Phosphate(V)'
_chemical_formula_structural       'K (V O) (P O4)'
_chemical_formula_sum              'K1 O5 P1 V1'
_publ_section_title
;
Electronic effects of substitution chemistry in the K Ti O P O4 
structure field: structure and optical properties of potassium 
vanadyl phosphate
;
loop_
_citation_id
_citation_journal_abbrev
_citation_year
_citation_journal_volume
_citation_page_first
_citation_page_last
_citation_journal_id_ASTM
primary 'Inorganic Chemistry' 1990 29 2158 2163 INOCAJ
_publ_author_name
;
Phillips, M.L.F.;Harrison, W.T.A.;Gier, T.E.;Stucky, G.D.;Kulkarni, 
G.V.;Burdett, J.K.
;
_cell_length_a                     12.816(5)
_cell_length_b                     6.388(2)
_cell_length_c                     10.556(5)
_cell_angle_alpha                  90.
_cell_angle_beta                   90.
_cell_angle_gamma                  90.
_cell_volume                       864.21
_cell_formula_units_Z              8
_symmetry_space_group_name_H-M     'P n a 21'
_symmetry_Int_Tables_number        33
_refine_ls_R_factor_all            .056
loop_
_symmetry_equiv_pos_site_id
_symmetry_equiv_pos_as_xyz
  1	'x+.5, -y+.5, z'
  2	'-x+.5, y+.5, z+.5'
  3	'-x, -y, z+.5'
  4	'x, y, z'
loop_
_atom_type_symbol
_atom_type_oxidation_number
K1+	1
O2-	-2
P5+	5
V4+	4
loop_
_atom_site_label
_atom_site_type_symbol
_atom_site_symmetry_multiplicity
_atom_site_Wyckoff_symbol
_atom_site_fract_x
_atom_site_fract_y
_atom_site_fract_z
_atom_site_occupancy
_atom_site_attached_hydrogens
K1 K1+ 4 a 0.3819(2) 0.7815(4) 0.3173(3) 1. 0 
K2 K1+ 4 a 0.1032(2) 0.7056(4) 0.0701(3) 1. 0 
V1 V4+ 4 a 0.3761(1) 0.4967(2) 0.0003(2) 1. 0 
V2 V4+ 4 a 0.2486(1) 0.2734(2) 0.2520(2) 1. 0 
P1 P5+ 4 a 0.4978(2) 0.3308(3) 0.2614(3) 1. 0 
P2 P5+ 4 a 0.1805(1) 0.4985(4) 0.5155(3) 1. 0 
O1 O2- 4 a 0.4835(6) 0.477(1) 0.1486(6) 1. 0 
O2 O2- 4 a 0.5100(6) 0.473(1) 0.3821(6) 1. 0 
O3 O2- 4 a 0.3988(5) 0.196(1) 0.2842(7) 1. 0 
O4 O2- 4 a 0.5941(5) 0.188(1) 0.2451(7) 1. 0 
O5 O2- 4 a 0.1113(5) 0.306(1) 0.5450(6) 1. 0 
O6 O2- 4 a 0.1102(5) 0.688(1) 0.4866(7) 1. 0 
O7 O2- 4 a 0.2534(6) 0.538(1) 0.6326(6) 1. 0 
O8 O2- 4 a 0.2558(6) 0.454(1) 0.4049(6) 1. 0 
O9 O2- 4 a 0.2726(6) 0.463(1) 0.1471(6) 1. 0 
O10 O2- 4 a 0.2212(6) 0.032(1) 0.3969(7) 1. 0 

loop_
_atom_site_aniso_label
_atom_site_aniso_type_symbol
_atom_site_aniso_U_11
_atom_site_aniso_U_22
_atom_site_aniso_U_33
_atom_site_aniso_U_12
_atom_site_aniso_U_13
_atom_site_aniso_U_23
K1 K1+ 0.033(1) 0.0158(9) 0.032(1) 0.0063(9) 0.007(1) 0.0010(1)
K2 K1+ 0.0179(9) 0.024(1) 0.035(1) 0.0047(9) 0.000(1) 0.000(1)
V1 V4+ 0.0096(5) 0.0094(5) 0.0130(6) -.0001(6) 0.0002(6) 0.0013(6)
V2 V4+ 0.0079(5) 0.0129(5) 0.0107(5) -.0011(5) 0.0009(5) -.0021(7)
P1 P5+ 0.0071(7) 0.0098(7) 0.0118(8) -.0001(7) -.0012(7) 0.0009(9)
P2 P5+ 0.0095(7) 0.0059(7) 0.0110(9) 0.0000(9) -.0001(8) -.0005(7)
O1 O2- 0.012(3) 0.014(3) 0.014(3) -.001(3) -.003(2) 0.004(3)
O2 O2- 0.014(3) 0.020(4) 0.015(3) 0.003(3) -.004(3) -.004(3)
O3 O2- 0.010(2) 0.010(3) 0.022(3) -.003(2) -.006(2) 0.008(3)
O4 O2- 0.007(2) 0.010(3) 0.014(3) 0.002(2) 0.001(2) 0.003(3)
O5 O2- 0.012(3) 0.010(3) 0.017(3) 0.002(2) 0.000(2) 0.000(2)
O6 O2- 0.010(3) 0.006(2) 0.022(3) 0.001(2) -.001(3) 0.000(2)
O7 O2- 0.012(3) 0.017(3) 0.015(3) 0.003(3) -.001(2) -.007(3)
O8 O2- 0.015(3) 0.012(3) 0.012(3) -.001(3) 0.002(2) -.001(2)
O9 O2- 0.012(3) 0.019(4) 0.013(3) 0.003(3) 0.000(2) 0.005(3)
O10 O2- 0.019(3) 0.012(3) 0.016(3) 0.002(3) 0.002(2) 0.001(2)
#End of data_79651-ICSD


