data_16350-ICSD
#?2014 by Fachinformationszentrum Karlsruhe, and the U.S. Secretary of 
#Commerce on behalf of the United States.  All rights reserved.
_database_code_ICSD                16350
_audit_creation_date               1980/12/31
_audit_update_record               2012/08/01
_chemical_name_systematic
;
Potassium Diytterbium Fluoride - Beta
;
_chemical_formula_structural       'K Yb2 F7'
_chemical_formula_sum              'F7 K1 Yb2'
_publ_section_title
;
Structure cristalline de la phase beta-K Yb2 F7
;
loop_
_citation_id
_citation_journal_abbrev
_citation_year
_citation_journal_volume
_citation_page_first
_citation_page_last
_citation_journal_id_ASTM
primary 'Journal of Solid State Chemistry' 1980 35 29 33 JSSCBI
_publ_author_name
;
le Fur, Y.;Aleonard, S.;Gorius, M.F.;Roux, M.T.
;
_cell_length_a                     6.528(1)
_cell_length_b                     4.217(1)
_cell_length_c                     6.435(1)
_cell_angle_alpha                  90.
_cell_angle_beta                   115.94
_cell_angle_gamma                  90.
_cell_volume                       159.3
_cell_formula_units_Z              1
_symmetry_space_group_name_H-M     'P 1 2 1'
_symmetry_Int_Tables_number        3
_refine_ls_R_factor_all            .04
loop_
_symmetry_equiv_pos_site_id
_symmetry_equiv_pos_as_xyz
  1	'-x, y, -z'
  2	'x, y, z'
loop_
_atom_type_symbol
_atom_type_oxidation_number
F1-	-1
K1+	1
Yb3+	3
loop_
_atom_site_label
_atom_site_type_symbol
_atom_site_symmetry_multiplicity
_atom_site_Wyckoff_symbol
_atom_site_fract_x
_atom_site_fract_y
_atom_site_fract_z
_atom_site_occupancy
_atom_site_attached_hydrogens
K1 K1+ 1 c 0.5 0.5 0 1. 0 
Yb1 Yb3+ 2 e 0.1922(1) 0 0.3088(1) 1. 0 
F1 F1- 2 e 0.5430(14) 0 0.3290(18) 1. 0 
F2 F1- 2 e 0.1674(16) 0 0.9546(18) 1. 0 
F3 F1- 2 e 0.2112(31) 0.5 0.2932(36) 1. 0 
F4 F1- 1 b 0 0.8928(64) 0.5 1. 0 

#End of data_16350-ICSD


