data_26354-ICSD
#?2014 by Fachinformationszentrum Karlsruhe, and the U.S. Secretary of 
#Commerce on behalf of the United States.  All rights reserved.
_database_code_ICSD                26354
_audit_creation_date               1980/01/01
_audit_update_record               2012/08/01
_chemical_name_systematic
;
Dicalcium Dialuminium Manganese Trisilicate Hydroxide
;
_chemical_formula_structural       'Ca2 Al2 Mn (Si3 O12) (O H)'
_chemical_formula_sum              'H1 Al2 Ca2 Mn1 O13 Si3'
_chemical_name_mineral             'Piemontite, strontian'
_publ_section_title
;
Crystal structure and cation ordering of piemontite
;
loop_
_citation_id
_citation_journal_abbrev
_citation_year
_citation_journal_volume
_citation_page_first
_citation_page_last
_citation_journal_id_ASTM
primary 'American Mineralogist' 1969 54 710 717 AMMIAY
_publ_author_name                  'Dollase, W.A.'
_cell_length_a                     8.878(10)
_cell_length_b                     5.692(5)
_cell_length_c                     10.201(10)
_cell_angle_alpha                  90.
_cell_angle_beta                   115.40(2)
_cell_angle_gamma                  90.
_cell_volume                       465.66
_cell_formula_units_Z              2
_symmetry_space_group_name_H-M     'P 1 21/m 1'
_symmetry_Int_Tables_number        11
_refine_ls_R_factor_all            .035
loop_
_symmetry_equiv_pos_site_id
_symmetry_equiv_pos_as_xyz
  1	'x, -y+.5, z'
  2	'-x, -y, -z'
  3	'-x, y+.5, -z'
  4	'x, y, z'
loop_
_atom_type_symbol
_atom_type_oxidation_number
Al3+	3
Ca2+	2
H1+	1
Mn3+	3
O2-	-2
Si4+	4
loop_
_atom_site_label
_atom_site_type_symbol
_atom_site_symmetry_multiplicity
_atom_site_Wyckoff_symbol
_atom_site_fract_x
_atom_site_fract_y
_atom_site_fract_z
_atom_site_occupancy
_atom_site_attached_hydrogens
_atom_site_B_iso_or_equiv
Ca1 Ca2+ 2 e 0.7574(2) 0.75 0.1533(2) 1. 0 0 
Ca2 Ca2+ 2 e 0.5979(2) 0.75 0.4250(1) 1. 0 0 
Si1 Si4+ 2 e 0.3410(2) 0.75 0.0448(2) 1. 0 0.52 
Si2 Si4+ 2 e 0.6846(2) 0.25 0.2745(2) 1. 0 0.51 
Si3 Si4+ 2 e 0.1855(2) 0.75 0.3197(2) 1. 0 0.35 
Al1 Al3+ 2 a 0 0 0 1. 0 0.47 
Al2 Al3+ 2 c 0 0 0.5 1. 0 0.56 
Mn1 Mn3+ 2 e 0.2957(1) 0.25 0.2216(1) 1. 0 0 
O1 O2- 4 f 0.2330(4) 0.9912(7) 0.0356(3) 1. 0 0.81 
O2 O2- 4 f 0.3058(4) 0.9795(7) 0.3550(3) 1. 0 0.8 
O3 O2- 4 f 0.7963(4) 0.0163(7) 0.3378(3) 1. 0 0.81 
O4 O2- 2 e 0.0588(6) 0.25 0.1318(5) 1. 0 0.59 
O5 O2- 2 e 0.0424(6) 0.75 0.1473(5) 1. 0 0.7 
O6 O2- 2 e 0.0686(6) 0.75 0.4091(5) 1. 0 0.62 
O7 O2- 2 e 0.5145(6) 0.75 0.1805(5) 1. 0 0.8 
O8 O2- 2 e 0.5276(6) 0.25 0.3140(5) 1. 0 0.92 
O9 O2- 2 e 0.6208(7) 0.25 0.0986(6) 1. 0 0 
O10 O2- 2 e 0.0868(6) 0.25 0.4330(6) 1. 0 0.6 
H1 H1+ 2 e 0.05(1) 0.25 0.36(1) 1. 0 0.1 

#End of data_26354-ICSD


