data_68971-ICSD
#?2014 by Fachinformationszentrum Karlsruhe, and the U.S. Secretary of 
#Commerce on behalf of the United States.  All rights reserved.
_database_code_ICSD                68971
_audit_creation_date               1992/01/20
_audit_update_record               2007/04/01
_chemical_name_systematic          'Tribarium Aluminium Fluoride'
_chemical_formula_structural       'Ba3 Al F9'
_chemical_formula_sum              'Al1 Ba3 F9'
_publ_section_title
;
Polymorphic Ba3 Al F9 : crystal structure of form I
;
loop_
_citation_id
_citation_journal_abbrev
_citation_year
_citation_journal_volume
_citation_page_first
_citation_page_last
_citation_journal_id_ASTM
primary 'European Journal of Solid State Inorganic Chemistry'
 1990 27 571 580 EJSCE5
2 'Phase Transition' 1992 38 127 220 PHTRDP
_publ_author_name
;
Renaudin, A.;Ferey, G.;de Kozak, A.;Samouel, M.
;
_cell_length_a                     19.7060(20)
_cell_length_b                     5.599(1)
_cell_length_c                     15.173(2)
_cell_angle_alpha                  90.
_cell_angle_beta                   90.
_cell_angle_gamma                  90.
_cell_volume                       1674.1
_cell_formula_units_Z              8
_symmetry_space_group_name_H-M     'P n m a'
_symmetry_Int_Tables_number        62
_refine_ls_R_factor_all            .048
loop_
_symmetry_equiv_pos_site_id
_symmetry_equiv_pos_as_xyz
  1	'x+.5, y, -z+.5'
  2	'x, -y+.5, z'
  3	'-x+.5, y+.5, z+.5'
  4	'-x, -y, -z'
  5	'-x+.5, -y, z+.5'
  6	'-x, y+.5, -z'
  7	'x+.5, -y+.5, -z+.5'
  8	'x, y, z'
loop_
_atom_type_symbol
_atom_type_oxidation_number
Al3+	3
Ba2+	2
F1-	-1
loop_
_atom_site_label
_atom_site_type_symbol
_atom_site_symmetry_multiplicity
_atom_site_Wyckoff_symbol
_atom_site_fract_x
_atom_site_fract_y
_atom_site_fract_z
_atom_site_occupancy
_atom_site_attached_hydrogens
_atom_site_B_iso_or_equiv
Ba1 Ba2+ 4 c 0.1079(1) 0.25 0.1904(2) 1. 0 0 
Ba2 Ba2+ 4 c 0.2426(1) 0.25 0.7881(2) 1. 0 0 
Ba3 Ba2+ 4 c 0.3221(1) 0.25 0.5061(1) 1. 0 0 
Ba4 Ba2+ 4 c 0.0310(1) 0.25 0.9075(1) 1. 0 0 
Ba5 Ba2+ 4 c 0.3162(1) 0.25 0.0729(2) 1. 0 0 
Ba6 Ba2+ 4 c 0.9967(1) 0.25 0.6233(1) 1. 0 0 
Al1 Al3+ 4 c 0.1189(5) 0.25 0.4292(8) 1. 0 0 
Al2 Al3+ 4 c 0.3876(6) 0.25 0.2787(7) 1. 0 0 
F1 F1- 4 c 0.4726(12) 0.25 0.3193(17) 1. 0 3.1(5) 
F2 F1- 4 c 0.3004(11) 0.25 0.2531(15) 1. 0 2.5(5) 
F3 F1- 4 c 0.1886(11) 0.25 0.5061(14) 1. 0 1.5(4) 
F4 F1- 4 c 0.0460(12) 0.25 0.3563(16) 1. 0 2.2(4) 
F5 F1- 4 c 0.2246(12) 0.25 0.9606(16) 1. 0 2.4(5) 
F6 F1- 4 c 0.4433(11) 0.25 0.7237(14) 1. 0 1.8(4) 
F7 F1- 8 d 0.2137(7) 0.9947(26) 0.1441(9) 1. 0 0.7(2) 
F8 F1- 8 d 0.0737(7) 0.0017(29) 0.0458(10) 1. 0 1.5(3) 
F9 F1- 8 d 0.3664(8) 0.0263(31) 0.3567(10) 1. 0 2.2(3) 
F10 F1- 8 d 0.0789(7) 0.0226(30) 0.4936(9) 1. 0 1.1(2) 
F11 F1- 8 d 0.1568(8) 0.0222(36) 0.3593(10) 1. 0 2.3(3) 
F12 F1- 8 d 0.4025(9) 0.0264(37) 0.1964(11) 1. 0 2.9(4) 

loop_
_atom_site_aniso_label
_atom_site_aniso_type_symbol
_atom_site_aniso_U_11
_atom_site_aniso_U_22
_atom_site_aniso_U_33
_atom_site_aniso_U_12
_atom_site_aniso_U_13
_atom_site_aniso_U_23
Ba1 Ba2+ 0.0136(13) 0.0205(14) 0.0076(11) 0 -0.0012(9) 0
Ba2 Ba2+ 0.0125(12) 0.0135(13) 0.0068(11) 0 0.0008(10) 0
Ba3 Ba2+ 0.0127(12) 0.0209(14) 0.0108(11) 0 0.0039(10) 0
Ba4 Ba2+ 0.0137(12) 0.0153(13) 0.0074(11) 0 0.000(1) 0
Ba5 Ba2+ 0.0124(12) 0.0123(13) 0.0077(10) 0 -0.0005(10) 0
Ba6 Ba2+ 0.0141(11) 0.0145(12) 0.0055(10) 0 -0.0018(10) 0
Al1 Al3+ 0.0068(54) 0.0165(66) 0.0088(51) 0 -0.0007(45) 0
Al2 Al3+ 0.0178(62) 0.0146(61) 0.0079(54) 0 -0.0040(54) 0
#End of data_68971-ICSD


