data_411172-ICSD
#?2014 by Fachinformationszentrum Karlsruhe, and the U.S. Secretary of 
#Commerce on behalf of the United States.  All rights reserved.
_database_code_ICSD                411172
_audit_creation_date               2002/04/01
_chemical_name_systematic          'Dipotassium Trimanganese Sulfide'
_chemical_formula_structural       'K2 Mn3 S4'
_chemical_formula_sum              'K2 Mn3 S4'
_publ_section_title
;
Synthese und Kristallstruktur von K2 Mn3 S4
;
loop_
_citation_id
_citation_journal_abbrev
_citation_year
_citation_journal_volume
_citation_page_first
_citation_page_last
_citation_journal_id_ASTM
primary 'Zeitschrift fuer Anorganische und Allgemeine Chemie (1950) (DE)'
 2000 626 6 8 ZAACAB
_publ_author_name
;
Bronger, W.;Boehmer, M.;Schmitz, D.
;
_cell_length_a                     7.244(2)
_cell_length_b                     5.822(1)
_cell_length_c                     11.018(5)
_cell_angle_alpha                  90.
_cell_angle_beta                   112.33(3)
_cell_angle_gamma                  90.
_cell_volume                       429.83
_cell_formula_units_Z              2
_symmetry_space_group_name_H-M     'P 1 2/c 1'
_symmetry_Int_Tables_number        13
_refine_ls_R_factor_all            .042
loop_
_symmetry_equiv_pos_site_id
_symmetry_equiv_pos_as_xyz
  1	'x, -y, z+.5'
  2	'-x, -y, -z'
  3	'-x, y, -z+.5'
  4	'x, y, z'
loop_
_atom_type_symbol
_atom_type_oxidation_number
K1+	1
Mn2+	2
S2-	-2
loop_
_atom_site_label
_atom_site_type_symbol
_atom_site_symmetry_multiplicity
_atom_site_Wyckoff_symbol
_atom_site_fract_x
_atom_site_fract_y
_atom_site_fract_z
_atom_site_occupancy
_atom_site_attached_hydrogens
Mn1 Mn2+ 2 e 0 0.24915(14) 0.25 1. 0 
Mn2 Mn2+ 4 g 0.00088(8) 0.24959(10) 0.97849(5) 1. 0 
S1 S2- 4 g 0.78814(12) 0.52910(16) 0.56379(8) 1. 0 
S2 S2- 4 g 0.78813(12) 0.97250(15) 0.83045(8) 1. 0 
K2 K1+ 2 f 0.5 0.5121(2) 0.25 1. 0 
K1 K1+ 2 d 0.5 0 0 1. 0 

loop_
_atom_site_aniso_label
_atom_site_aniso_type_symbol
_atom_site_aniso_U_11
_atom_site_aniso_U_22
_atom_site_aniso_U_33
_atom_site_aniso_U_12
_atom_site_aniso_U_13
_atom_site_aniso_U_23
Mn1 Mn2+ 0.0156(3) 0.0173(4) 0.0118(3) 0 0.0057(3) 0
Mn2 Mn2+ 0.0151(3) 0.0116(3) 0.0152(3) -.00026(16) 0.00548(19) 0.00006(18)
S1 S2- 0.0146(4) 0.0150(4) 0.0159(4) -.0011(3) 0.0070(3) -.0028(3)
S2 S2- 0.0145(4) 0.0147(4) 0.0136(3) 0.0012(3) 0.0038(3) -.0018(3)
K2 K1+ 0.0265(6) 0.0320(7) 0.0214(5) 0 0.0046(4) 0
K1 K1+ 0.0287(6) 0.0345(8) 0.0302(6) -.0091(5) 0.0173(5) -.0065(5)
#End of data_411172-ICSD


