data_155810-ICSD
#?2014 by Fachinformationszentrum Karlsruhe, and the U.S. Secretary of 
#Commerce on behalf of the United States.  All rights reserved.
_database_code_ICSD                155810
_audit_creation_date               2007/08/01
_chemical_name_systematic          'Magnesium Hydride - Hp1'
_chemical_formula_structural       'Mg H2'
_chemical_formula_sum              'H2 Mg1'
_publ_section_title
;
Structural phase transition of rutile-type Mg H2 at high pressures
;
loop_
_citation_id
_citation_journal_abbrev
_citation_year
_citation_journal_volume
_citation_journal_issue
_citation_page_first
_citation_page_last
_citation_journal_id_ASTM
primary 'Journal of the Physical Society of Japan' 2006 75 7k 074603-1 074603-6 JUPSAU
2 'Physical Review Letters' 2002 89 17 175506-1 175506-4 PRLTAO
_publ_author_name
;
Moriwaki, T.;Akahama, Y.;Kawamura, H.;Nakano, S.;Takemura, K.
;
_cell_length_a                     4.3966(1)
_cell_length_b                     4.6965(7)
_cell_length_c                     4.4118(13)
_cell_angle_alpha                  90.
_cell_angle_beta                   90.
_cell_angle_gamma                  90.
_cell_volume                       91.1
_cell_formula_units_Z              4
_symmetry_space_group_name_H-M     'P b c 21'
_symmetry_Int_Tables_number        29
_refine_ls_R_factor_all            .0835
loop_
_symmetry_equiv_pos_site_id
_symmetry_equiv_pos_as_xyz
  1	'-x, y+.5, z'
  2	'x, -y+.5, z+.5'
  3	'-x, -y, z+.5'
  4	'x, y, z'
loop_
_atom_type_symbol
_atom_type_oxidation_number
H1-	-1
Mg2+	2
loop_
_atom_site_label
_atom_site_type_symbol
_atom_site_symmetry_multiplicity
_atom_site_Wyckoff_symbol
_atom_site_fract_x
_atom_site_fract_y
_atom_site_fract_z
_atom_site_occupancy
_atom_site_attached_hydrogens
_atom_site_B_iso_or_equiv
Mg1 Mg2+ 4 a 0.2734(7) 0.0312(6) 0.250 1. 0 1. 
H1 H1- 4 a 0.0976 0.3818 0.1414 1. 0 1. 
H2 H1- 4 a 0.5584 0.2614 0.9702 1. 0 1. 

#End of data_155810-ICSD


