data_156590-ICSD
#?2014 by Fachinformationszentrum Karlsruhe, and the U.S. Secretary of 
#Commerce on behalf of the United States.  All rights reserved.
_database_code_ICSD                156590
_audit_creation_date               2007/08/01
_chemical_name_systematic          'Magnesium Catena-silicate'
_chemical_formula_structural       'Mg (Si O3)'
_chemical_formula_sum              'Mg1 O3 Si1'
_publ_section_title
;
Reinvestigation of the Mg Si O3 perovskite structure at high pressure
;
loop_
_citation_id
_citation_journal_abbrev
_citation_year
_citation_journal_volume
_citation_page_first
_citation_page_last
_citation_journal_id_ASTM
primary 'American Mineralogist' 2006 91 533 536 AMMIAY
_publ_author_name
;
Sugahara, M.;Yoshiasa, A.;Komatsu, Y.;Yamanaka, T.;Bolfan Casanova, 
N.;Nakatsuka, A.;Sasaki, S.;Tanaka, M.
;
_cell_length_a                     4.722(3)
_cell_length_b                     4.880(6)
_cell_length_c                     6.825(4)
_cell_angle_alpha                  90
_cell_angle_beta                   90
_cell_angle_gamma                  90
_cell_volume                       157.27
_cell_formula_units_Z              4
_symmetry_space_group_name_H-M     'P b n m'
_symmetry_Int_Tables_number        62
_refine_ls_R_factor_all            .0429
loop_
_symmetry_equiv_pos_site_id
_symmetry_equiv_pos_as_xyz
  1	'-x+.5, y+.5, z'
  2	'x, y, -z+.5'
  3	'x+.5, -y+.5, z+.5'
  4	'-x, -y, -z'
  5	'x+.5, -y+.5, -z'
  6	'-x, -y, z+.5'
  7	'-x+.5, y+.5, -z+.5'
  8	'x, y, z'
loop_
_atom_type_symbol
_atom_type_oxidation_number
Mg2+	2
O2-	-2
Si4+	4
loop_
_atom_site_label
_atom_site_type_symbol
_atom_site_symmetry_multiplicity
_atom_site_Wyckoff_symbol
_atom_site_fract_x
_atom_site_fract_y
_atom_site_fract_z
_atom_site_occupancy
_atom_site_attached_hydrogens
_atom_site_B_iso_or_equiv
Mg1 Mg2+ 4 c 0.5152(2) 0.5585(4) 0.25000 1. 0 0.43(4) 
Si1 Si4+ 4 b 0.50000 0.00000 0.50000 1. 0 0.21(3) 
O1 O2- 4 c 0.1040(4) 0.4646(4) 0.25000 1. 0 0.25(6) 
O2 O2- 8 d 0.1926(7) 0.2012(9) 0.5531(2) 1. 0 0.28(4) 

loop_
_atom_site_aniso_label
_atom_site_aniso_type_symbol
_atom_site_aniso_U_11
_atom_site_aniso_U_22
_atom_site_aniso_U_33
_atom_site_aniso_U_12
_atom_site_aniso_U_13
_atom_site_aniso_U_23
Mg1 Mg2+ 0.0047(4) 0.0039(5) 0.0078(7) 0.0009(3) 0.00000 0.00000
Si1 Si4+ 0.0017(8) 0.0036(3) 0.0030(6) 0.0001(2) 0.0001(2) -0.0007(2)
O1 O2- 0.0032(7) 0.0032(7) 0.0032(7) 0.00000 0.00000 0.00000
O2 O2- 0.0035(5) 0.0035(5) 0.0035(5) 0.00000 0.00000 0.00000
#End of data_156590-ICSD


