data_83451-ICSD
#?2014 by Fachinformationszentrum Karlsruhe, and the U.S. Secretary of 
#Commerce on behalf of the United States.  All rights reserved.
_database_code_ICSD                83451
_audit_creation_date               1998/06/26
_audit_update_record               2002/04/01
_chemical_name_systematic          'Dialuminium Silicate Oxide'
_chemical_formula_structural       'Al2 (Si O4) O'
_chemical_formula_sum              'Al2 O5 Si1'
_chemical_name_mineral             Kyanite
_publ_section_title
;
Compressibility and crystal structure of kyanite, Al2 Si O5, at high 
pressure
;
loop_
_citation_id
_citation_journal_abbrev
_citation_year
_citation_journal_volume
_citation_page_first
_citation_page_last
_citation_journal_id_ASTM
primary 'American Mineralogist' 1997 82 467 474 AMMIAY
_publ_author_name
;
Yang, H.;Downs, R.T.;Finger, L.W.;Hazen, R.M.;Prewitt, C.T.
;
_cell_length_a                     7.1038(7)
_cell_length_b                     7.8305(5)
_cell_length_c                     5.5605(6)
_cell_angle_alpha                  90.023(8)
_cell_angle_beta                   101.112(9)
_cell_angle_gamma                  106.001(6)
_cell_volume                       291.28
_cell_formula_units_Z              4
_symmetry_space_group_name_H-M     'P -1'
_symmetry_Int_Tables_number        2
_refine_ls_R_factor_all            .029
loop_
_symmetry_equiv_pos_site_id
_symmetry_equiv_pos_as_xyz
  1	'-x, -y, -z'
  2	'x, y, z'
loop_
_atom_type_symbol
_atom_type_oxidation_number
Al3+	3
O2-	-2
Si4+	4
loop_
_atom_site_label
_atom_site_type_symbol
_atom_site_symmetry_multiplicity
_atom_site_Wyckoff_symbol
_atom_site_fract_x
_atom_site_fract_y
_atom_site_fract_z
_atom_site_occupancy
_atom_site_attached_hydrogens
_atom_site_B_iso_or_equiv
Al1 Al3+ 2 i 0.3249(5) 0.7041(4) 0.4581(8) 1. 0 0.43(3) 
Al2 Al3+ 2 i 0.2972(5) 0.6989(4) 0.9499(8) 1. 0 0.35(3) 
Al3 Al3+ 2 i 0.0996(5) 0.3861(4) 0.6405(8) 1. 0 0.37(3) 
Al4 Al3+ 2 i 0.1114(5) 0.9171(4) 0.1639(7) 1. 0 0.37(3) 
Si1 Si4+ 2 i 0.2964(5) 0.0647(3) 0.7067(8) 1. 0 0.38(3) 
Si2 Si4+ 2 i 0.2922(4) 0.3324(3) 0.1911(7) 1. 0 0.35(3) 
O1 O2- 2 i 0.1092(11) 0.1480(8) 0.1296(13) 1. 0 0.37(8) 
O2 O2- 2 i 0.1215(11) 0.6844(9) 0.1786(14) 1. 0 0.46(8) 
O3 O2- 2 i 0.2748(12) 0.4546(8) 0.9550(14) 1. 0 0.42(7) 
O4 O2- 2 i 0.2837(11) 0.9361(8) 0.9367(13) 1. 0 0.44(8) 
O5 O2- 2 i 0.1080(11) 0.1516(9) 0.6670(13) 1. 0 0.46(9) 
O6 O2- 2 i 0.1213(12) 0.6310(8) 0.6403(16) 1. 0 0.45(7) 
O7 O2- 2 i 0.2821(11) 0.4455(8) 0.4297(13) 1. 0 0.45(8) 
O8 O2- 2 i 0.2915(11) 0.9476(8) 0.4657(13) 1. 0 0.44(8) 
O9 O2- 2 i 0.5005(10) 0.2743(8) 0.2445(13) 1. 0 0.57(8) 
O10 O2- 2 i 0.5015(12) 0.2320(9) 0.7555(14) 1. 0 0.57(8) 

#End of data_83451-ICSD


