data_250002-ICSD
#?2014 by Fachinformationszentrum Karlsruhe, and the U.S. Secretary of 
#Commerce on behalf of the United States.  All rights reserved.
_database_code_ICSD                250002
_audit_creation_date               2003/10/01
_chemical_name_systematic
;
Dizinc Divanadate - Beta'
;
_chemical_formula_structural       'Zn2 (V2 O7)'
_chemical_formula_sum              'O7 V2 Zn2'
_publ_section_title
;
Crystal structure of beta' Zn2 V2 O7
;
loop_
_citation_id
_citation_journal_abbrev
_citation_year
_citation_journal_volume
_citation_page_first
_citation_page_last
_citation_journal_id_ASTM
primary Kristallografiya 2003 48 40 43 KRISAJ
2 'Crystallography Reports' 2003 48 35 38 CYSTE3
_publ_author_name
;
Krasnenko, T.I.;Zubkov, V.G.;Tjutjunnik, A.P.;Zolotukhina, 
L.V.;Vasjutinskaja, E.F.
;
_cell_length_a                     6.9324(2)
_cell_length_b                     8.4394(2)
_cell_length_c                     5.0326(1)
_cell_angle_alpha                  90.
_cell_angle_beta                   108.272(2)
_cell_angle_gamma                  90.
_cell_volume                       279.59
_cell_formula_units_Z              2
_symmetry_space_group_name_H-M     'C 1 2/m 1'
_symmetry_Int_Tables_number        12
_refine_ls_R_factor_all            .0449
loop_
_symmetry_equiv_pos_site_id
_symmetry_equiv_pos_as_xyz
  1	'-x, y, -z'
  2	'-x, -y, -z'
  3	'x, -y, z'
  4	'x, y, z'
  5	'-x+.5, y+.5, -z'
  6	'-x+.5, -y+.5, -z'
  7	'x+.5, -y+.5, z'
  8	'x+.5, y+.5, z'
loop_
_atom_type_symbol
_atom_type_oxidation_number
O2-	-2
V5+	5
Zn2+	2
loop_
_atom_site_label
_atom_site_type_symbol
_atom_site_symmetry_multiplicity
_atom_site_Wyckoff_symbol
_atom_site_fract_x
_atom_site_fract_y
_atom_site_fract_z
_atom_site_occupancy
_atom_site_attached_hydrogens
_atom_site_U_iso_or_equiv
Zn1 Zn2+ 4 h 0.0 0.3158(2) 0.5 1. 0 0.0389(7) 
V1 V5+ 4 i 0.2174(3) 0.0 0.9049(4) 1. 0 0.0250(9) 
O1 O2- 2 a 0.0 0.0 0.0 1. 0 0.0497(12) 
O2 O2- 8 j 0.2151(7) 0.1519(6) 0.7085(10) 1. 0 0.0497(12) 
O3 O2- 4 i 0.4091(11) 0.0 0.2050(16) 1. 0 0.0497(12) 

#End of data_250002-ICSD


