data_240891-ICSD
#?2014 by Fachinformationszentrum Karlsruhe, and the U.S. Secretary of 
#Commerce on behalf of the United States.  All rights reserved.
_database_code_ICSD                240891
_audit_creation_date               2008/08/01
_audit_update_record               2010/02/01
_chemical_name_systematic          'Potassium Difluorooxonitrate(III)'
_chemical_formula_structural       'K (N O F2)'
_chemical_formula_sum              'F2 K1 N1 O1'
_publ_section_title                'Polymeric K N O F2'
loop_
_citation_id
_citation_journal_abbrev
_citation_year
_citation_journal_volume
_citation_journal_issue
_citation_page_first
_citation_page_last
_citation_journal_id_ASTM
primary 'Acta Crystallographica, Section E. Structure Reports Online'
 2007 63 8 i170 i170 ACSEBH
_publ_author_name
;
Liu, T.;Wang, Z.-W.;Wang, Y.-X.;Xie, Z.-P.
;
_cell_length_a                     6.429(4)
_cell_length_b                     5.417(3)
_cell_length_c                     9.164(5)
_cell_angle_alpha                  90.00
_cell_angle_beta                   90.00
_cell_angle_gamma                  90.00
_cell_volume                       319.14
_cell_formula_units_Z              4
_symmetry_space_group_name_H-M     'P n m a'
_symmetry_Int_Tables_number        62
_refine_ls_R_factor_all            .039
loop_
_symmetry_equiv_pos_site_id
_symmetry_equiv_pos_as_xyz
  1	'x+.5, y, -z+.5'
  2	'x, -y+.5, z'
  3	'-x+.5, y+.5, z+.5'
  4	'-x, -y, -z'
  5	'-x+.5, -y, z+.5'
  6	'-x, y+.5, -z'
  7	'x+.5, -y+.5, -z+.5'
  8	'x, y, z'
loop_
_atom_type_symbol
_atom_type_oxidation_number
F1-	-1
K1+	1
N3+	3
O2-	-2
loop_
_atom_site_label
_atom_site_type_symbol
_atom_site_symmetry_multiplicity
_atom_site_Wyckoff_symbol
_atom_site_fract_x
_atom_site_fract_y
_atom_site_fract_z
_atom_site_occupancy
_atom_site_attached_hydrogens
_atom_site_U_iso_or_equiv
K1 K1+ 4 c 0.75494(11) 0.7500 0.58346(8) 1 0 0.0285(5) 
O1 O2- 4 c 0.4098(5) 0.7500 0.3901(3) 1 0 0.0392(8) 
N1 N3+ 4 c 0.4145(5) 0.7500 0.2554(3) 1 0 0.0244(8) 
F1 F1- 8 d 0.4144(3) 0.9496(4) 0.1866(2) 1 0 0.0554(8) 

loop_
_atom_site_aniso_label
_atom_site_aniso_type_symbol
_atom_site_aniso_U_11
_atom_site_aniso_U_22
_atom_site_aniso_U_33
_atom_site_aniso_U_12
_atom_site_aniso_U_13
_atom_site_aniso_U_23
K1 K1+ 0.0334(8) 0.0254(8) 0.0267(7) 0.000 -0.0009(3) 0.000
O1 O2- 0.051(2) 0.0380(19) 0.0285(14) 0.000 -0.0061(13) 0.000
N1 N3+ 0.0198(17) 0.0232(16) 0.0303(16) 0.000 0.0008(12) 0.000
F1 F1- 0.0757(17) 0.0402(13) 0.0502(13) -0.0044(10) 0.0045(11) 0.0050(8)
#End of data_240891-ICSD


