data_417713-ICSD
#?2014 by Fachinformationszentrum Karlsruhe, and the U.S. Secretary of 
#Commerce on behalf of the United States.  All rights reserved.
_database_code_ICSD                417713
_audit_creation_date               2008/08/01
_chemical_name_systematic
;
Disodium Thallium(I) Tri-mue-imidocyclotriphosphate Dihydrate
;
_chemical_formula_structural       'Na2 Tl (P O2 N H)3 (H2 O)2'
_chemical_formula_sum              'H7 N3 Na2 O8 P3 Tl1'
_publ_section_title
;
Synthesis, crystal structures and properties of the 
trimetaphosphimates Na2 M (P O2 N H)3 * 2(H2 O) with M = K, Tl
;
loop_
_citation_id
_citation_journal_abbrev
_citation_year
_citation_journal_volume
_citation_journal_issue
_citation_page_first
_citation_page_last
_citation_journal_id_ASTM
primary 'Zeitschrift fuer Anorganische und Allgemeine Chemie (1950) (DE)'
 2007 633 13-14 2217 2222 ZAACAB
_publ_author_name
;
Sedlmaier, S.J.;Johrendt, D.;Oeckler, O.;Schnick, W.
;
_cell_length_a                     7.9914(16)
_cell_length_b                     7.9927(16)
_cell_length_c                     8.6460(17)
_cell_angle_alpha                  76.83(3)
_cell_angle_beta                   83.81(3)
_cell_angle_gamma                  77.57(3)
_cell_volume                       524.11
_cell_formula_units_Z              2
_symmetry_space_group_name_H-M     'P -1'
_symmetry_Int_Tables_number        2
_refine_ls_R_factor_all            .0572
loop_
_symmetry_equiv_pos_site_id
_symmetry_equiv_pos_as_xyz
  1	'-x, -y, -z'
  2	'x, y, z'
loop_
_atom_type_symbol
_atom_type_oxidation_number
H1+	1
N3-	-3
Na1+	1
O2-	-2
P5+	5
Tl1+	1
loop_
_atom_site_label
_atom_site_type_symbol
_atom_site_symmetry_multiplicity
_atom_site_Wyckoff_symbol
_atom_site_fract_x
_atom_site_fract_y
_atom_site_fract_z
_atom_site_occupancy
_atom_site_attached_hydrogens
_atom_site_U_iso_or_equiv
Tl1 Tl1+ 2 i 0.37469(7) 0.28915(8) 0.56037(7) 1 0 0.0342(3) 
Na1 Na1+ 2 i 0.0700(6) 0.0120(7) 0.6708(6) 1 0 0.0231(11) 
Na2 Na1+ 2 i 0.8502(6) 0.8490(7) 0.0017(6) 1 0 0.0227(11) 
P1 P5+ 2 i 0.7505(4) 0.2878(4) 0.8484(3) 1 0 0.0149(6) 
P2 P5+ 2 i 0.4427(3) 0.8371(4) 0.8514(3) 1 0 0.0150(6) 
P3 P5+ 2 i 0.2102(3) 0.5879(4) 0.8627(3) 1 0 0.0149(6) 
N1 N3- 2 i 0.5785(3) 0.2191(4) 0.9483(3) 1 0 0.0166(19) 
H1 H1+ 2 i 0.4606 0.2629 0.9100 1 0 0.020 
N2 N3- 2 i 0.7843(3) 0.4414(4) 0.9382(3) 1 0 0.0186(19) 
H2 H1+ 2 i 0.7788 0.5367 0.8407 1 0 0.022 
N3 N3- 2 i 0.3858(3) 0.6731(4) 0.7888(3) 1 0 0.0161(19) 
H3 H1+ 2 i 0.4857 0.6093 0.7315 1 0 0.019 
O1 O2- 2 i 0.9000(11) 0.1374(12) 0.8685(10) 1 0 0.0183(17) 
O2 O2- 2 i 0.3168(11) 0.0013(12) 0.7958(11) 1 0 0.0198(17) 
O3 O2- 2 i 0.6986(12) 0.3763(13) 0.6823(10) 1 0 0.0231(18) 
O4 O2- 2 i 0.0552(11) 0.7218(13) 0.8055(12) 1 0 0.0219(18) 
O5 O2- 2 i 0.2358(11) 0.4090(13) 0.8261(11) 1 0 0.0205(17) 
O6 O2- 2 i 0.6307(7) 0.8293(8) 0.8059(7) 1 0 0.0222(18) 
O7 O2- 2 i 0.0357(7) 0.3085(8) 0.4932(7) 1 0 0.033(2) 
H4 H1+ 2 i 0.0564 0.3719 0.3813 1 0 0.039 
H5 H1+ 2 i 0.9098 0.3455 0.4788 1 0 0.039 
O8 O2- 2 i 0.7819(7) 0.0425(8) 0.5679(7) 1 0 0.027(2) 
H6 H1+ 2 i 0.7865 0.1502 0.6062 1 0 0.033 
H7 H1+ 2 i 0.8061 0.9128 0.5747 1 0 0.033 

loop_
_atom_site_aniso_label
_atom_site_aniso_type_symbol
_atom_site_aniso_U_11
_atom_site_aniso_U_22
_atom_site_aniso_U_33
_atom_site_aniso_U_12
_atom_site_aniso_U_13
_atom_site_aniso_U_23
Tl1 Tl1+ 0.0285(4) 0.0389(5) 0.0353(4) -0.0078(2) -0.0022(2) -0.0071(2)
Na1 Na1+ 0.020(2) 0.024(3) 0.024(2) 0.0001(19) -0.0040(18) -0.0058(19)
Na2 Na1+ 0.021(2) 0.023(3) 0.025(2) -0.007(2) 0.0003(19) -0.005(2)
P1 P5+ 0.0123(12) 0.0156(16) 0.0169(13) -0.0011(10) -0.0037(9) -0.0041(10)
P2 P5+ 0.0083(12) 0.0150(16) 0.0208(13) -0.0018(9) -0.0016(9) -0.0021(10)
P3 P5+ 0.0111(12) 0.0144(16) 0.0194(13) -0.0006(10) -0.0038(9) -0.0042(10)
N1 N3- 0.011(4) 0.015(5) 0.024(5) -0.006(3) -0.001(3) -0.002(4)
N2 N3- 0.024(5) 0.016(6) 0.017(4) -0.004(4) -0.002(4) -0.006(3)
N3 N3- 0.019(4) 0.015(5) 0.015(4) -0.007(4) 0.001(3) -0.003(3)
O1 O2- 0.016(4) 0.015(5) 0.023(4) 0.001(3) -0.005(3) -0.006(3)
O2 O2- 0.014(4) 0.016(5) 0.029(4) 0.002(3) -0.009(3) -0.006(3)
O3 O2- 0.027(5) 0.020(5) 0.020(4) -0.006(3) -0.006(3) 0.001(3)
O4 O2- 0.012(4) 0.017(5) 0.035(5) 0.002(3) -0.007(3) -0.005(3)
O5 O2- 0.017(4) 0.019(5) 0.027(4) -0.004(3) 0.001(3) -0.008(3)
O6 O2- 0.010(4) 0.025(5) 0.031(4) -0.010(3) 0.004(3) 0.000(3)
O7 O2- 0.027(5) 0.042(7) 0.032(5) -0.010(4) -0.005(4) -0.010(4)
O8 O2- 0.030(5) 0.025(6) 0.026(4) -0.004(4) 0.003(4) -0.008(4)
#End of data_417713-ICSD


