data_411952-ICSD
#?2014 by Fachinformationszentrum Karlsruhe, and the U.S. Secretary of 
#Commerce on behalf of the United States.  All rights reserved.
_database_code_ICSD                411952
_audit_creation_date               2002/10/01
_chemical_name_systematic          'Barium Zinc Chloride - Ii'
_chemical_formula_structural       'Ba Zn Cl4'
_chemical_formula_sum              'Ba1 Cl4 Zn1'
_publ_section_title
;
Crystal structure, thermal behavior, and luminescence of Ba Zn Cl4 - 
II : Sm(2+) and comparison to Ba Zn Cl4 - I : Sm(2+)
;
loop_
_citation_id
_citation_journal_abbrev
_citation_year
_citation_journal_volume
_citation_page_first
_citation_page_last
_citation_journal_id_ASTM
primary 'Journal of Solid State Chemistry' 2001 162 237 242 JSSCBI
_publ_author_name                  'Wickleder, C.'
_cell_length_a                     6.4899(10)
_cell_length_b                     15.374(2)
_cell_length_c                     6.8237(11)
_cell_angle_alpha                  90.
_cell_angle_beta                   90.
_cell_angle_gamma                  90.
_cell_volume                       680.84
_cell_formula_units_Z              4
_symmetry_space_group_name_H-M     'P b c n'
_symmetry_Int_Tables_number        60
_refine_ls_R_factor_all            .0328
loop_
_symmetry_equiv_pos_site_id
_symmetry_equiv_pos_as_xyz
  1	'x, -y, z+.5'
  2	'-x+.5, y+.5, z'
  3	'x+.5, y+.5, -z+.5'
  4	'-x, -y, -z'
  5	'-x, y, -z+.5'
  6	'x+.5, -y+.5, -z'
  7	'-x+.5, -y+.5, z+.5'
  8	'x, y, z'
loop_
_atom_type_symbol
_atom_type_oxidation_number
Ba2+	2
Cl1-	-1
Zn2+	2
loop_
_atom_site_label
_atom_site_type_symbol
_atom_site_symmetry_multiplicity
_atom_site_Wyckoff_symbol
_atom_site_fract_x
_atom_site_fract_y
_atom_site_fract_z
_atom_site_occupancy
_atom_site_attached_hydrogens
Ba1 Ba2+ 4 c 0 0.12930(3) 0.25 1. 0 
Zn1 Zn2+ 4 c 0.5 -.10934(7) 0.25 1. 0 
Cl1 Cl1- 8 d 0.2449(3) -.03683(11) 0.4085(2) 1. 0 
Cl2 Cl1- 8 d 0.1468(3) 0.29921(11) 0.0234(2) 1. 0 

loop_
_atom_site_aniso_label
_atom_site_aniso_type_symbol
_atom_site_aniso_U_11
_atom_site_aniso_U_22
_atom_site_aniso_U_33
_atom_site_aniso_U_12
_atom_site_aniso_U_13
_atom_site_aniso_U_23
Ba1 Ba2+ 0.0139(3) 0.0103(3) 0.0143(3) 0 -.0008(2) 0
Zn1 Zn2+ 0.0111(4) 0.0138(5) 0.0160(5) 0 0.0019(5) 0
Cl1 Cl1- 0.0178(7) 0.0180(7) 0.0190(7) 0.0058(6) 0.0047(7) 0.0028(6)
Cl2 Cl1- 0.0231(8) 0.0148(8) 0.0228(8) -.0014(7) 0.0095(6) -.0017(6)
#End of data_411952-ICSD


