data_201803-ICSD
#?2014 by Fachinformationszentrum Karlsruhe, and the U.S. Secretary of 
#Commerce on behalf of the United States.  All rights reserved.
_database_code_ICSD                201803
_audit_creation_date               1985/07/17
_audit_update_record               1999/01/19
_chemical_name_systematic
;
Distrontium Pentafluorocarbonatoaluminate
;
_chemical_formula_structural       'Sr2 (Al F5 C O3)'
_chemical_formula_sum              'C1 Al1 F5 O3 Sr2'
_chemical_name_mineral             Stenonite
_publ_section_title
;
The crystal structure of stenonite and the classification of the 
aluminofluoride minerals
;
loop_
_citation_id
_citation_journal_abbrev
_citation_year
_citation_journal_volume
_citation_page_first
_citation_page_last
_citation_journal_id_ASTM
primary 'Canadian Mineralogist' 1984 22 245 251 CAMIA6
_publ_author_name                  'Hawthorne, F.C.'
_cell_length_a                     5.450(2)
_cell_length_b                     8.704(2)
_cell_length_c                     13.150(3)
_cell_angle_alpha                  90.
_cell_angle_beta                   98.72(2)
_cell_angle_gamma                  90.
_cell_volume                       616.58
_cell_formula_units_Z              4
_symmetry_space_group_name_H-M     'P 1 21/n 1'
_symmetry_Int_Tables_number        14
_refine_ls_R_factor_all            .06
loop_
_symmetry_equiv_pos_site_id
_symmetry_equiv_pos_as_xyz
  1	'-x+.5, y+.5, -z+.5'
  2	'-x, -y, -z'
  3	'x+.5, -y+.5, z+.5'
  4	'x, y, z'
loop_
_atom_type_symbol
_atom_type_oxidation_number
Al3+	3
C4+	4
F1-	-1
O2-	-2
Sr2+	2
loop_
_atom_site_label
_atom_site_type_symbol
_atom_site_symmetry_multiplicity
_atom_site_Wyckoff_symbol
_atom_site_fract_x
_atom_site_fract_y
_atom_site_fract_z
_atom_site_occupancy
_atom_site_attached_hydrogens
Sr1 Sr2+ 4 e 0.2163(3) 0.3597(4) 0.9104(1) 1. 0 
Sr2 Sr2+ 4 e 0.2084(3) -.1108(5) 0.9014(1) 1. 0 
Al1 Al3+ 4 e 0.8666(9) 0.1271(9) 0.6689(3) 1. 0 
C1 C4+ 4 e 0.3136(32) 0.8774(27) 0.1380(11) 1. 0 
F1 F1- 4 e 0.1998(24) 0.2245(12) 0.0905(8) 1. 0 
F2 F1- 4 e 0.1754(26) 0.5047(14) 0.0873(8) 1. 0 
F3 F1- 4 e 0.5634(23) 0.2280(12) 0.2349(8) 1. 0 
F4 F1- 4 e 0.5524(25) 0.5265(12) 0.2264(9) 1. 0 
F5 F1- 4 e 0.5827(18) 0.3707(15) 0.0698(6) 1. 0 
O1 O2- 4 e 0.4979(22) 0.8773(22) 0.0877(8) 1. 0 
O2 O2- 4 e 0.0919(20) 0.8759(17) 0.0902(8) 1. 0 
O3 O2- 4 e 0.3576(21) 0.8695(21) 0.2356(9) 1. 0 

#End of data_201803-ICSD


