data_28077-ICSD
#?2014 by Fachinformationszentrum Karlsruhe, and the U.S. Secretary of 
#Commerce on behalf of the United States.  All rights reserved.
_database_code_ICSD                28077
_audit_creation_date               1980/01/01
_audit_update_record               2012/08/01
_chemical_name_systematic          'Potassium Nitrate(V) - Ii'
_chemical_formula_structural       'K (N O3)'
_chemical_formula_sum              'K1 N1 O3'
_chemical_name_mineral             Niter
_publ_section_title
;
Crystal structures of three solid solution phases of potassium 
nitrate and ammonium nitrate
;
loop_
_citation_id
_citation_journal_abbrev
_citation_year
_citation_journal_volume
_citation_page_first
_citation_page_last
_citation_journal_id_ASTM
primary 'Journal of Physical Chemistry' 1975 79 249 256 JPCHAX
2 'Golden Book of Phase Transitions, Wroclaw' 2002 1 1 123 GBOPT5
_publ_author_name                  'Holden, J.R.;Dickinson, C.W.'
_cell_length_a                     6.436(1)
_cell_length_b                     5.430(1)
_cell_length_c                     9.192(2)
_cell_angle_alpha                  90.
_cell_angle_beta                   90.
_cell_angle_gamma                  90.
_cell_volume                       321.24
_cell_formula_units_Z              4
_symmetry_space_group_name_H-M     'P n m a'
_symmetry_Int_Tables_number        62
loop_
_symmetry_equiv_pos_site_id
_symmetry_equiv_pos_as_xyz
  1	'x+.5, y, -z+.5'
  2	'x, -y+.5, z'
  3	'-x+.5, y+.5, z+.5'
  4	'-x, -y, -z'
  5	'-x+.5, -y, z+.5'
  6	'-x, y+.5, -z'
  7	'x+.5, -y+.5, -z+.5'
  8	'x, y, z'
loop_
_atom_type_symbol
_atom_type_oxidation_number
K1+	1
N5+	5
O2-	-2
loop_
_atom_site_label
_atom_site_type_symbol
_atom_site_symmetry_multiplicity
_atom_site_Wyckoff_symbol
_atom_site_fract_x
_atom_site_fract_y
_atom_site_fract_z
_atom_site_occupancy
_atom_site_attached_hydrogens
K1 K1+ 4 c 0.2551(1) 0.25 0.4164(1) 1. 0 
N1 N5+ 4 c 0.4156(3) 0.25 0.7551(3) 1. 0 
O1 O2- 4 c 0.4098(4) 0.25 0.8907(3) 1. 0 
O2 O2- 8 d 0.4129(3) 0.4501(3) 0.6864(2) 1. 0 

loop_
_atom_site_aniso_label
_atom_site_aniso_type_symbol
_atom_site_aniso_U_11
_atom_site_aniso_U_22
_atom_site_aniso_U_33
_atom_site_aniso_U_12
_atom_site_aniso_U_13
_atom_site_aniso_U_23
K1 K1+ 0.0311(5) 0.0238(4) 0.0248(4) 0 0.0011(2) 0
N1 N5+ 0.0192(9) 0.0250(11) 0.0297(11) 0 0.0016(8) 0
O1 O2- 0.0500(15) 0.0407(14) 0.0272(11) 0 -.0080(9) 0
O2 O2- 0.0493(10) 0.0268(9) 0.0392(9) -.0038(7) 0.0052(7) 0.0064(7)
#End of data_28077-ICSD


