data_78910-ICSD
#?2014 by Fachinformationszentrum Karlsruhe, and the U.S. Secretary of 
#Commerce on behalf of the United States.  All rights reserved.
_database_code_ICSD                78910
_audit_creation_date               1997/11/10
_audit_update_record               1998/06/26
_chemical_name_systematic
;
Tricalcium Diiron(III) Hexakis(selenate(IV))
;
_chemical_formula_structural       'Ca3 Fe2 (Se O3)6'
_chemical_formula_sum              'Ca3 Fe2 O18 Se6'
_publ_section_title
;
Synthesis and crystal structures of Ca3 Fe2 (Se O3)6 and Sr3 Fe2 (Se 
O3)6
;
loop_
_citation_id
_citation_journal_abbrev
_citation_year
_citation_journal_volume
_citation_page_first
_citation_page_last
_citation_journal_id_ASTM
primary 'Zeitschrift fuer Anorganische und Allgemeine Chemie (1950) (DE)'
 1996 622 1788 1792 ZAACAB
_publ_author_name                  'Giester, G.'
_cell_length_a                     8.531(2)
_cell_length_b                     8.531(2)
_cell_length_c                     38.89(1)
_cell_angle_alpha                  90.
_cell_angle_beta                   90.
_cell_angle_gamma                  120.
_cell_volume                       2451.14
_cell_formula_units_Z              6
_symmetry_space_group_name_H-M     'R -3 c H'
_symmetry_Int_Tables_number        167
_refine_ls_R_factor_all            .021
loop_
_symmetry_equiv_pos_site_id
_symmetry_equiv_pos_as_xyz
  1	'x-y, -y, -z+.5'
  2	'-x, -x+y, -z+.5'
  3	'y, x, -z+.5'
  4	'x-y, x, -z'
  5	'y, -x+y, -z'
  6	'-x, -y, -z'
  7	'-x+y, y, z+.5'
  8	'x, x-y, z+.5'
  9	'-y, -x, z+.5'
 10	'-x+y, -x, z'
 11	'-y, x-y, z'
 12	'x, y, z'
 13	'x-y+.6666, -y+.3333, -z+.8333'
 14	'x-y+.3333, -y+.6666, -z+.1666'
 15	'-x+.6666, -x+y+.3333, -z+.8333'
 16	'-x+.3333, -x+y+.6666, -z+.1666'
 17	'y+.6666, x+.3333, -z+.8333'
 18	'y+.3333, x+.6666, -z+.1666'
 19	'x-y+.6666, x+.3333, -z+.3333'
 20	'x-y+.3333, x+.6666, -z+.6666'
 21	'y+.6666, -x+y+.3333, -z+.3333'
 22	'y+.3333, -x+y+.6666, -z+.6666'
 23	'-x+.6666, -y+.3333, -z+.3333'
 24	'-x+.3333, -y+.6666, -z+.6666'
 25	'-x+y+.6666, y+.3333, z+.8333'
 26	'-x+y+.3333, y+.6666, z+.1666'
 27	'x+.6666, x-y+.3333, z+.8333'
 28	'x+.3333, x-y+.6666, z+.1666'
 29	'-y+.6666, -x+.3333, z+.8333'
 30	'-y+.3333, -x+.6666, z+.1666'
 31	'-x+y+.6666, -x+.3333, z+.3333'
 32	'-x+y+.3333, -x+.6666, z+.6666'
 33	'-y+.6666, x-y+.3333, z+.3333'
 34	'-y+.3333, x-y+.6666, z+.6666'
 35	'x+.6666, y+.3333, z+.3333'
 36	'x+.3333, y+.6666, z+.6666'
loop_
_atom_type_symbol
_atom_type_oxidation_number
Ca2+	2
Fe3+	3
O2-	-2
Se4+	4
loop_
_atom_site_label
_atom_site_type_symbol
_atom_site_symmetry_multiplicity
_atom_site_Wyckoff_symbol
_atom_site_fract_x
_atom_site_fract_y
_atom_site_fract_z
_atom_site_occupancy
_atom_site_attached_hydrogens
Ca1 Ca2+ 18 e 0.41075(9) 0 0.25 1. 0 
Fe1 Fe3+ 6 a 0 0 0.25 1. 0 
Fe2 Fe3+ 6 b 0 0 0 1. 0 
Se1 Se4+ 36 f 0.29574(4) 0.28593(4) 0.196610(7) 1. 0 
O1 O2- 36 f 0.4368(3) 0.2710(3) 0.22412(5) 1. 0 
O2 O2- 36 f 0.0971(2) 0.2202(3) 0.21905(5) 1. 0 
O3 O2- 36 f 0.3935(3) 0.5176(2) 0.19788(5) 1. 0 

loop_
_atom_site_aniso_label
_atom_site_aniso_type_symbol
_atom_site_aniso_U_11
_atom_site_aniso_U_22
_atom_site_aniso_U_33
_atom_site_aniso_U_12
_atom_site_aniso_U_13
_atom_site_aniso_U_23
Ca1 Ca2+ 0.0094(2) 0.0113(3) 0.0148(4) 0.0056(2) 0.000091 0.0002(3)
Fe1 Fe3+ 0.0088(3) 0.0088(3) 0.0136(4) 0.00440(13) 0 0
Fe2 Fe3+ 0.0086(3) 0.0086(3) 0.0101(4) 0.00430(13) 0 0
Se1 Se4+ 0.01035(13) 0.0955(13) 0.01174(12) 0.00529(11) 0.00043(11) 
-.00044(10)
O1 O2- 0.0128(9) 0.0126(9) 0.020(1) 0.0078(8) -.0003(8) 0.0043(8)
O2 O2- 0.0103(9) 0.0099(9) 0.018(1) 0.0048(7) 0.0027(8) 0.0022(8)
O3 O2- 0.0117(9) 0.0082(8) 0.0153(9) 0.0033(8) -.0019(8) 0.0008(8)
#End of data_78910-ICSD


