data_100694-ICSD
#?2014 by Fachinformationszentrum Karlsruhe, and the U.S. Secretary of 
#Commerce on behalf of the United States.  All rights reserved.
_database_code_ICSD                100694
_audit_creation_date               1980/12/31
_audit_update_record               2007/08/01
_chemical_name_systematic          'Disilver Tellurate(IV)'
_chemical_formula_structural       'Ag2 (Te O3)'
_chemical_formula_sum              'Ag2 O3 Te1'
_publ_section_title
;
Preparation chimique et structure cristalline des tellurites de 
sodium et d'argent: Na2 Te O3, Ag2 Te O3
;
loop_
_citation_id
_citation_journal_abbrev
_citation_year
_citation_journal_volume
_citation_page_first
_citation_page_last
_citation_journal_id_ASTM
primary 'Materials Research Bulletin' 1980 15 431 436 MRBUAC
2 'Phase Transition' 1992 38 127 220 PHTRDP
_publ_author_name
;
Masse, R.;Guitel, J.C.;Trodjman, I.
;
_cell_length_a                     7.004
_cell_length_b                     10.547
_cell_length_c                     4.917
_cell_angle_alpha                  90.
_cell_angle_beta                   91.44
_cell_angle_gamma                  90.
_cell_volume                       363.11
_cell_formula_units_Z              4
_symmetry_space_group_name_H-M     'P 1 21/a 1'
_symmetry_Int_Tables_number        14
_refine_ls_R_factor_all            .047
loop_
_symmetry_equiv_pos_site_id
_symmetry_equiv_pos_as_xyz
  1	'x+.5, -y+.5, z'
  2	'-x, -y, -z'
  3	'-x+.5, y+.5, -z'
  4	'x, y, z'
loop_
_atom_type_symbol
_atom_type_oxidation_number
Ag1+	1
O2-	-2
Te4+	4
loop_
_atom_site_label
_atom_site_type_symbol
_atom_site_symmetry_multiplicity
_atom_site_Wyckoff_symbol
_atom_site_fract_x
_atom_site_fract_y
_atom_site_fract_z
_atom_site_occupancy
_atom_site_attached_hydrogens
Te1 Te4+ 4 e 0.14948(9) 0.09048(7) 0.2528(2) 1. 0 
Ag1 Ag1+ 4 e 0.1316(1) 0.4166(1) 0.2505(2) 1. 0 
Ag2 Ag1+ 4 e 0.4021(1) 0.2456(1) 0.7487(2) 1. 0 
O1 O2- 4 e 0.329(1) 0.2208(8) 0.219(2) 1. 0 
O2 O2- 4 e 0.178(1) 0.4556(8) 0.755(2) 1. 0 
O3 O2- 4 e 0.134(1) 0.1014(8) 0.633(2) 1. 0 

#End of data_100694-ICSD


