data_28828-ICSD
#?2014 by Fachinformationszentrum Karlsruhe, and the U.S. Secretary of 
#Commerce on behalf of the United States.  All rights reserved.
_database_code_ICSD                28828
_audit_creation_date               1980/01/01
_audit_update_record               2006/04/01
_chemical_name_systematic          'Sodium Nitrate(V)'
_chemical_formula_structural       'Na (N O3)'
_chemical_formula_sum              'N1 Na1 O3'
_chemical_name_mineral             Nitratine
_publ_section_title
;
A redetermination of the carbon - oxygen distance in calcite and the 
nitrogen - oxygen distance in sodium nitrate
;
loop_
_citation_id
_citation_journal_abbrev
_citation_year
_citation_journal_volume
_citation_page_first
_citation_page_last
_citation_journal_id_ASTM
primary 'Journal of the American Chemical Society' 1937 59 1380 1382 JACSAT
2 'Golden Book of Phase Transitions, Wroclaw' 2002 1 1 123 GBOPT5
_publ_author_name                  'Elliott, N.'
_cell_length_a                     6.32
_cell_length_b                     6.32
_cell_length_c                     6.32
_cell_angle_alpha                  47.25
_cell_angle_beta                   47.25
_cell_angle_gamma                  47.25
_cell_volume                       124.5
_cell_formula_units_Z              2
_symmetry_space_group_name_H-M     'R -3 c R'
_symmetry_Int_Tables_number        167
loop_
_symmetry_equiv_pos_site_id
_symmetry_equiv_pos_as_xyz
  1	'-x+.5, -z+.5, -y+.5'
  2	'-z+.5, -y+.5, -x+.5'
  3	'-y+.5, -x+.5, -z+.5'
  4	'x+.5, z+.5, y+.5'
  5	'z+.5, y+.5, x+.5'
  6	'y+.5, x+.5, z+.5'
  7	'-z, -x, -y'
  8	'-y, -z, -x'
  9	'-x, -y, -z'
 10	'z, x, y'
 11	'y, z, x'
 12	'x, y, z'
loop_
_atom_type_symbol
_atom_type_oxidation_number
N5+	5
Na1+	1
O2-	-2
loop_
_atom_site_label
_atom_site_type_symbol
_atom_site_symmetry_multiplicity
_atom_site_Wyckoff_symbol
_atom_site_fract_x
_atom_site_fract_y
_atom_site_fract_z
_atom_site_occupancy
_atom_site_attached_hydrogens
Na1 Na1+ 2 b 0.5 0.5 0.5 1. 0 
N1 N5+ 2 a 0.25 0.25 0.25 1. 0 
O1 O2- 6 e 0.4894(5) 0.0106 0.25 1. 0 

#End of data_28828-ICSD


