data_82079-ICSD
#?2014 by Fachinformationszentrum Karlsruhe, and the U.S. Secretary of 
#Commerce on behalf of the United States.  All rights reserved.
_database_code_ICSD                82079
_audit_creation_date               1997/11/10
_audit_update_record               2006/04/01
_chemical_name_systematic          'Silver Vanadate - Beta'
_chemical_formula_structural       'Ag (V O3)'
_chemical_formula_sum              'Ag1 O3 V1'
_publ_section_title
;
Beta Ag V O3 crystal structure and relationships with Ag2 V4 O11 and 
delta Agx V2 O5
;
loop_
_citation_id
_citation_journal_abbrev
_citation_year
_citation_journal_volume
_citation_page_first
_citation_page_last
_citation_journal_id_ASTM
primary 'Journal of Solid State Chemistry' 1996 122 303 308 JSSCBI
_publ_author_name
;
Rozier, P.;Savariault, J.M.;Galy, J.
;
_cell_length_a                     18.1060(30)
_cell_length_b                     3.5787(7)
_cell_length_c                     8.043(3)
_cell_angle_alpha                  90.
_cell_angle_beta                   104.44(4)
_cell_angle_gamma                  90.
_cell_volume                       504.69
_cell_formula_units_Z              8
_symmetry_space_group_name_H-M     'C 1 m 1'
_symmetry_Int_Tables_number        8
_refine_ls_R_factor_all            .051
loop_
_symmetry_equiv_pos_site_id
_symmetry_equiv_pos_as_xyz
  1	'x, -y, z'
  2	'x, y, z'
  3	'x+.5, -y+.5, z'
  4	'x+.5, y+.5, z'
loop_
_atom_type_symbol
_atom_type_oxidation_number
Ag1+	1
O2-	-2
V5+	5
loop_
_atom_site_label
_atom_site_type_symbol
_atom_site_symmetry_multiplicity
_atom_site_Wyckoff_symbol
_atom_site_fract_x
_atom_site_fract_y
_atom_site_fract_z
_atom_site_occupancy
_atom_site_attached_hydrogens
_atom_site_B_iso_or_equiv
Ag1 Ag1+ 2 a 0.5 0.5 0.5 1. 0 1.34(8) 
Ag2 Ag1+ 2 a 0.5526(3) 0 0.8663(6) 1. 0 1.4(1) 
Ag3 Ag1+ 2 a 0.4496(3) 0 0.1406(6) 1. 0 1.5(1) 
Ag4 Ag1+ 2 a 0.2550(3) 0 0.9616(6) 1. 0 1.8(1) 
V1 V5+ 2 a 0.1316(4) 0 0.2308(9) 1. 0 0.7(1) 
V2 V5+ 2 a 0.3214(4) 0 0.4436(9) 1. 0 1.1(1) 
V3 V5+ 2 a 0.1805(4) 0.5 0.5640(8) 1. 0 0.1(1) 
V4 V5+ 2 a 0.3725(4) 0.5 0.7754(8) 1. 0 0.5(2) 
O1 O2- 2 a 0.037(1) 0 0.232(2) 1. 0 0.5(3) 
O2 O2- 2 a 0.125(1) 0 0.014(3) 1. 0 0.9(3) 
O3 O2- 2 a 0.265(1) 0 0.243(2) 1. 0 0.6(3) 
O4 O2- 2 a 0.404(2) 0 0.403(3) 1. 0 1.9(4) 
O5 O2- 2 a 0.349(2) 0 0.719(3) 1. 0 1.2(4) 
O6 O2- 2 a 0.194(1) 0 0.500(3) 1. 0 0.6(3) 
O7 O2- 2 a 0.090(1) 0.5 0.589(2) 1. 0 0.9(3) 
O8 O2- 2 a 0.152(1) 0.5 0.295(3) 1. 0 0.4(3) 
O9 O2- 2 a 0.314(1) 0.5 0.514(3) 1. 0 1.1(3) 
O10 O2- 2 a 0.465(1) 0.5 0.764(3) 1. 0 1.8(5) 
O11 O2- 2 a 0.377(2) 0.5 0.980(3) 1. 0 1.6(2) 
O12 O2- 2 a 0.240(1) 0.5 0.762(3) 1. 0 1.3(4) 

#End of data_82079-ICSD


