data_246209-ICSD
#?2014 by Fachinformationszentrum Karlsruhe, and the U.S. Secretary of 
#Commerce on behalf of the United States.  All rights reserved.
_database_code_ICSD                246209
_audit_creation_date               2009/02/01
_chemical_name_systematic
;
Calcium Cobalt(II) Catena-disilicate
;
_chemical_formula_structural       'Ca Co (Si2 O6)'
_chemical_formula_sum              'Ca1 Co1 O6 Si2'
_publ_section_title
;
Magnetic ordering and spin structure in Ca-bearing clinopyroxenes Ca 
M2+ (Si, Ge)2 o6, M = Fe, Ni, Co, Mn
;
loop_
_citation_id
_citation_journal_abbrev
_citation_year
_citation_journal_volume
_citation_journal_issue
_citation_page_first
_citation_page_last
_citation_journal_id_ASTM
primary 'Journal of Solid State Chemistry' 2008 181 11 3163 3176 JSSCBI
_publ_author_name
;
Redhammer, G.J.;Roth, G.;Treutmann, W.;Paulus, W.;Andre, 
G.;Pietzonka, C.;Amthauer, G.
;
_cell_length_a                     10.1477(5)
_cell_length_b                     8.9518(5)
_cell_length_c                     5.4174(4)
_cell_angle_alpha                  90
_cell_angle_beta                   104.754(5)
_cell_angle_gamma                  90
_cell_volume                       475.89
_cell_formula_units_Z              4
_symmetry_space_group_name_H-M     'C 1 2/c 1'
_symmetry_Int_Tables_number        15
_refine_ls_R_factor_all            .0291
loop_
_symmetry_equiv_pos_site_id
_symmetry_equiv_pos_as_xyz
  1	'x, -y, z+.5'
  2	'-x, -y, -z'
  3	'-x, y, -z+.5'
  4	'x, y, z'
  5	'x+.5, -y+.5, z+.5'
  6	'-x+.5, -y+.5, -z'
  7	'-x+.5, y+.5, -z+.5'
  8	'x+.5, y+.5, z'
loop_
_atom_type_symbol
_atom_type_oxidation_number
Ca2+	2
Co2+	2
O2-	-2
Si4+	4
loop_
_atom_site_label
_atom_site_type_symbol
_atom_site_symmetry_multiplicity
_atom_site_Wyckoff_symbol
_atom_site_fract_x
_atom_site_fract_y
_atom_site_fract_z
_atom_site_occupancy
_atom_site_attached_hydrogens
_atom_site_B_iso_or_equiv
Co1 Co2+ 4 e 0 0.9123(14) 0.25 1. 0 0.98(8) 
Ca1 Ca2+ 4 e 0 0.3068(14) 0.25 1. 0 0.22(7) 
Si1 Si4+ 8 f 0.2860(5) 0.0992(5) 0.2280(10) 1. 0 0.88(8) 
O1 O2- 8 f 0.1103(7) 0.0910(7) 0.1390(14) 1. 0 0.31(11) 
O2 O2- 8 f 0.3632(5) 0.2631(7) 0.3409(11) 1. 0 0.68(9) 
O3 O2- 8 f 0.3565(5) 0.0301(6) 0.9819(11) 1. 0 0.80(12) 

#End of data_246209-ICSD


