data_16617-ICSD
#?2014 by Fachinformationszentrum Karlsruhe, and the U.S. Secretary of 
#Commerce on behalf of the United States.  All rights reserved.
_database_code_ICSD                16617
_audit_creation_date               1980/01/01
_audit_update_record               2000/12/16
_chemical_name_systematic          'Lithium Catena-arsenate'
_chemical_formula_structural       'Li (As O3)'
_chemical_formula_sum              'As1 Li1 O3'
_publ_section_title
;
Die Kristallstruktur von Lithiumpolyarsenat (Li As O3)x
;
loop_
_citation_id
_citation_journal_abbrev
_citation_year
_citation_journal_volume
_citation_page_first
_citation_page_last
_citation_journal_id_ASTM
primary 'Acta Crystallographica (1,1948-23,1967)' 1956 9 87 88 ACCRA9
_publ_author_name                  'Hilmer, W.'
_cell_length_a                     10.18
_cell_length_b                     9.43
_cell_length_c                     5.25
_cell_angle_alpha                  90.
_cell_angle_beta                   110.53
_cell_angle_gamma                  90.
_cell_volume                       471.98
_cell_formula_units_Z              8
_symmetry_space_group_name_H-M     'C 1 2/c 1'
_symmetry_Int_Tables_number        15
_refine_ls_R_factor_all            .145
loop_
_symmetry_equiv_pos_site_id
_symmetry_equiv_pos_as_xyz
  1	'x, -y, z+.5'
  2	'-x, -y, -z'
  3	'-x, y, -z+.5'
  4	'x, y, z'
  5	'x+.5, -y+.5, z+.5'
  6	'-x+.5, -y+.5, -z'
  7	'-x+.5, y+.5, -z+.5'
  8	'x+.5, y+.5, z'
loop_
_atom_type_symbol
_atom_type_oxidation_number
As5+	5
Li1+	1
O2-	-2
loop_
_atom_site_label
_atom_site_type_symbol
_atom_site_symmetry_multiplicity
_atom_site_Wyckoff_symbol
_atom_site_fract_x
_atom_site_fract_y
_atom_site_fract_z
_atom_site_occupancy
_atom_site_attached_hydrogens
As1 As5+ 8 f 0.206 0.404 0.732 1. 0 
O1 O2- 8 f 0.372 0.409 0.881 1. 0 
O2 O2- 8 f 0.125 0.255 0.65 1. 0 
O3 O2- 8 f 0.131 0.475 0.952 1. 0 
Li1 Li1+ 4 e 0 0.111 0.75 1. 0 
Li2 Li1+ 4 e 0 -.22 0.75 1. 0 

#End of data_16617-ICSD


