data_174407-ICSD
#?2014 by Fachinformationszentrum Karlsruhe, and the U.S. Secretary of 
#Commerce on behalf of the United States.  All rights reserved.
_database_code_ICSD                174407
_audit_creation_date               2011/02/01
_chemical_name_systematic          'Silver Copper Trifluoride'
_chemical_formula_structural       'Ag Cu F3'
_chemical_formula_sum              'Ag1 Cu1 F3'
_publ_section_title
;
Cooperative Jahn-Teller distortion leading to the spin-1/2 uniform 
antiferromagnetic chains in triclinic perovskites Ag Cu F3 and Na Cu 
F3
;
loop_
_citation_id
_citation_journal_abbrev
_citation_year
_citation_journal_volume
_citation_journal_issue
_citation_page_first
_citation_page_last
_citation_journal_id_ASTM
primary 'Solid State Sciences' 2010 12 5 680 684 SSSCFJ
_publ_author_name
;
Tong, J.;Lee, C.;Whangbo, M.H.;Kremer, R.K.;Simon, A.;Koehler, J.
;
_cell_length_a                     5.5802(13)
_cell_length_b                     5.5787(1)
_cell_length_c                     8.1018(19)
_cell_angle_alpha                  89.623(18)
_cell_angle_beta                   90.928(19)
_cell_angle_gamma                  93.496(18)
_cell_volume                       251.7
_cell_formula_units_Z              4
_symmetry_space_group_name_H-M     'P -1'
_symmetry_Int_Tables_number        2
_refine_ls_R_factor_all            .0456
loop_
_symmetry_equiv_pos_site_id
_symmetry_equiv_pos_as_xyz
  1	'-x, -y, -z'
  2	'x, y, z'
loop_
_atom_type_symbol
_atom_type_oxidation_number
Ag1+	1
Cu2+	2
F1-	-1
loop_
_atom_site_label
_atom_site_type_symbol
_atom_site_symmetry_multiplicity
_atom_site_Wyckoff_symbol
_atom_site_fract_x
_atom_site_fract_y
_atom_site_fract_z
_atom_site_occupancy
_atom_site_attached_hydrogens
_atom_site_U_iso_or_equiv
Ag1 Ag1+ 2 i 0.50771(17) 0.52242(15) 0.24902(11) 1. 0 0.0203(3) 
Ag2 Ag1+ 2 i -0.00224(16) 0.02334(15) 0.25070(11) 1. 0 0.0200(3) 
Cu1 Cu2+ 1 d 0.5 0 0 1. 0 0.0100(4) 
Cu2 Cu2+ 1 c 0 0.5 0 1. 0 0.0101(4) 
Cu3 Cu2+ 1 f 0.5 0 0.5 1. 0 0.0101(4) 
Cu4 Cu2+ 1 g 0 0.5 0.5 1. 0 0.0103(4) 
F1 F1- 2 i 0.7129(12) 0.2885(10) 0.0396(10) 1. 0 0.0214(14) 
F2 F1- 2 i 0.2336(12) 0.1936(10) -0.0340(10) 1. 0 0.0215(14) 
F3 F1- 2 i 0.7160(13) 0.2846(10) 0.4577(10) 1. 0 0.0237(15) 
F4 F1- 2 i 0.1907(12) 0.2360(10) 0.5334(9) 1. 0 0.0210(14) 
F5 F1- 2 i 0.4292(13) -0.0183(10) 0.2723(8) 1. 0 0.0190(13) 
F6 F1- 2 i 0.0778(12) 0.4945(10) 0.2279(8) 1. 0 0.0177(3) 

#End of data_174407-ICSD


