data_73007-ICSD
#?2014 by Fachinformationszentrum Karlsruhe, and the U.S. Secretary of 
#Commerce on behalf of the United States.  All rights reserved.
_database_code_ICSD                73007
_audit_creation_date               1994/06/30
_chemical_name_systematic          'Potassium Pentathiodistannate'
_chemical_formula_structural       'K2 (Sn2 S5)'
_chemical_formula_sum              'K2 S5 Sn2'
_publ_section_title
;
Syntheses, structures and properties of six novel alkali metal tin 
sulfides: K2Sn2S8, alpha-Rb2Sn2S8, beta-Rb2Sn2S8, K2Sn2S5, Cs2Sn2S6 
and CsSnS14
;
loop_
_citation_id
_citation_journal_abbrev
_citation_year
_citation_journal_volume
_citation_page_first
_citation_page_last
_citation_journal_id_ASTM
primary 'Inorganic Chemistry' 1993 32 2453 2462 INOCAJ
_publ_author_name
;
Liao, J.-H.;Varotsis, C.;Kanatzidis, M.G.
;
_cell_length_a                     11.804(3)
_cell_length_b                     7.808(1)
_cell_length_c                     11.539(1)
_cell_angle_alpha                  90.
_cell_angle_beta                   108.35(1)
_cell_angle_gamma                  90.
_cell_volume                       1009.42
_cell_formula_units_Z              4
_symmetry_space_group_name_H-M     'C 1 2/c 1'
_symmetry_Int_Tables_number        15
_refine_ls_R_factor_all            .047
loop_
_symmetry_equiv_pos_site_id
_symmetry_equiv_pos_as_xyz
  1	'x, -y, z+.5'
  2	'-x, -y, -z'
  3	'-x, y, -z+.5'
  4	'x, y, z'
  5	'x+.5, -y+.5, z+.5'
  6	'-x+.5, -y+.5, -z'
  7	'-x+.5, y+.5, -z+.5'
  8	'x+.5, y+.5, z'
loop_
_atom_type_symbol
_atom_type_oxidation_number
K1+	1
S2-	-2
Sn4+	4
loop_
_atom_site_label
_atom_site_type_symbol
_atom_site_symmetry_multiplicity
_atom_site_Wyckoff_symbol
_atom_site_fract_x
_atom_site_fract_y
_atom_site_fract_z
_atom_site_occupancy
_atom_site_attached_hydrogens
_atom_site_B_iso_or_equiv
Sn1 Sn4+ 8 f 0.09424(8) 0.1539(1) 0.44164(7) 1. 0 0.72(4) 
K1 K1+ 8 f 0.7199(3) 0.1680(4) 0.3173(3) 1. 0 2.1(1) 
S1 S2- 8 f 0.0170(3) 0.1340(5) 0.6163(3) 1. 0 1.5(1) 
S2 S2- 4 e 0 0.3141(6) 0.25 1. 0 1.2(2) 
S3 S2- 8 f 0.3039(3) 0.0516(4) 0.4619(3) 1. 0 1.0(1) 

#End of data_73007-ICSD


