data_71583-ICSD
#?2014 by Fachinformationszentrum Karlsruhe, and the U.S. Secretary of 
#Commerce on behalf of the United States.  All rights reserved.
_database_code_ICSD                71583
_audit_creation_date               1993/01/06
_chemical_name_systematic
;
Potassium Hydrogen Difluoride - Iodine Pentafluoride (1/2)
;
_chemical_formula_structural       '(K (H F2)) (I F5)2'
_chemical_formula_sum              'H1 F12 I2 K1'
_publ_section_title
;
Iodine pentafluoride - hydrogen fluoride co-crystallisates, directed 
weak interactions
;
loop_
_citation_id
_citation_journal_abbrev
_citation_year
_citation_journal_volume
_citation_page_first
_citation_page_last
_citation_journal_id_ASTM
primary 'European Journal of Solid State Inorganic Chemistry'
 1992 29 635 647 EJSCE5
_publ_author_name
;
Mahjoub, A.R.;Leopold, D.;Seppelt, K.
;
_cell_length_a                     9.706(4)
_cell_length_b                     9.706(4)
_cell_length_c                     10.548(4)
_cell_angle_alpha                  90.
_cell_angle_beta                   90.
_cell_angle_gamma                  90.
_cell_volume                       993.69
_cell_formula_units_Z              4
_symmetry_space_group_name_H-M     'I 4/m c m'
_symmetry_Int_Tables_number        140
_refine_ls_R_factor_all            .025
loop_
_symmetry_equiv_pos_site_id
_symmetry_equiv_pos_as_xyz
  1	'y, x, -z+.5'
  2	'-y, -x, -z+.5'
  3	'-y, x, -z'
  4	'y, -x, -z'
  5	'x, -y, -z+.5'
  6	'-x, y, -z+.5'
  7	'x, y, -z'
  8	'-x, -y, -z'
  9	'-y, -x, z+.5'
 10	'y, x, z+.5'
 11	'y, -x, z'
 12	'-y, x, z'
 13	'-x, y, z+.5'
 14	'x, -y, z+.5'
 15	'-x, -y, z'
 16	'x, y, z'
 17	'y+.5, x+.5, -z'
 18	'-y+.5, -x+.5, -z'
 19	'-y+.5, x+.5, -z+.5'
 20	'y+.5, -x+.5, -z+.5'
 21	'x+.5, -y+.5, -z'
 22	'-x+.5, y+.5, -z'
 23	'x+.5, y+.5, -z+.5'
 24	'-x+.5, -y+.5, -z+.5'
 25	'-y+.5, -x+.5, z'
 26	'y+.5, x+.5, z'
 27	'y+.5, -x+.5, z+.5'
 28	'-y+.5, x+.5, z+.5'
 29	'-x+.5, y+.5, z'
 30	'x+.5, -y+.5, z'
 31	'-x+.5, -y+.5, z+.5'
 32	'x+.5, y+.5, z+.5'
loop_
_atom_type_symbol
_atom_type_oxidation_number
F1-	-1
H1+	1
I5+	5
K1+	1
loop_
_atom_site_label
_atom_site_type_symbol
_atom_site_symmetry_multiplicity
_atom_site_Wyckoff_symbol
_atom_site_fract_x
_atom_site_fract_y
_atom_site_fract_z
_atom_site_occupancy
_atom_site_attached_hydrogens
I1 I5+ 8 h 0.1596 0.6596 0 1. 0 
K1 K1+ 4 a 0 0 0.25 1. 0 
F1 F1- 8 g 0.5 0 0.3584(4) 1. 0 
F2 F1- 8 h 0.2930(4) 0.7930(4) 0 1. 0 
F3 F1- 32 m 0.0863(3) 0.7803(3) 0.1239(3) 1. 0 
H1 H1+ 4 b 0 0.5 0.25 1. 0 

loop_
_atom_site_aniso_label
_atom_site_aniso_type_symbol
_atom_site_aniso_U_11
_atom_site_aniso_U_22
_atom_site_aniso_U_33
_atom_site_aniso_U_12
_atom_site_aniso_U_13
_atom_site_aniso_U_23
I1 I5+ 0.0101 0.0101 0.0115(1) 0 0 0
K1 K1+ 0.0101 0.0101 0.0115(1) 0 0.0011 0
F1 F1- 0.0231(2) 0.0231(2) 0.0078(2) 0 -.0046(3) 0
F2 F1- 0.0221(2) 0.0221(2) 0.0330(3) 0 -.0041(2) 0
F3 F1- 0.0322(2) 0.0286(2) 0.0367(2) 0.0123(1) -.0032(1) -.0200(1)
#End of data_71583-ICSD


