data_249719-ICSD
#?2014 by Fachinformationszentrum Karlsruhe, and the U.S. Secretary of 
#Commerce on behalf of the United States.  All rights reserved.
_database_code_ICSD                249719
_audit_creation_date               2009/02/01
_chemical_name_systematic
;
Tripotassium Trineodymium Tetrakis(tetrathiophosphate)
;
_chemical_formula_structural       'K3 Nd3 (P S4)4'
_chemical_formula_sum              'K3 Nd3 P4 S16'
_publ_section_title
;
Syntheses, structures, and spectroscopic properties of K9 Nd [P S4]4, 
K3 Nd [P S4]2, Cs3 Nd [P S4]2, and K3 Nd3 [P S4]4
;
loop_
_citation_id
_citation_journal_abbrev
_citation_year
_citation_journal_volume
_citation_journal_issue
_citation_page_first
_citation_page_last
_citation_journal_id_ASTM
primary 'Inorganic Chemistry' 2008 47 17 7523 7534 INOCAJ
_publ_author_name                  'Wu Yuan Dong;Bensch, W.'
_cell_length_a                     16.1496(14)
_cell_length_b                     11.6357(7)
_cell_length_c                     14.6784(11)
_cell_angle_alpha                  90.00
_cell_angle_beta                   90.396(10)
_cell_angle_gamma                  90.00
_cell_volume                       2758.18
_cell_formula_units_Z              4
_symmetry_space_group_name_H-M     'C 1 2/c 1'
_symmetry_Int_Tables_number        15
_refine_ls_R_factor_all            .0302
loop_
_symmetry_equiv_pos_site_id
_symmetry_equiv_pos_as_xyz
  1	'x, -y, z+.5'
  2	'-x, -y, -z'
  3	'-x, y, -z+.5'
  4	'x, y, z'
  5	'x+.5, -y+.5, z+.5'
  6	'-x+.5, -y+.5, -z'
  7	'-x+.5, y+.5, -z+.5'
  8	'x+.5, y+.5, z'
loop_
_atom_type_symbol
_atom_type_oxidation_number
K1+	1
Nd3+	3
P5+	5
S2-	-2
loop_
_atom_site_label
_atom_site_type_symbol
_atom_site_symmetry_multiplicity
_atom_site_Wyckoff_symbol
_atom_site_fract_x
_atom_site_fract_y
_atom_site_fract_z
_atom_site_occupancy
_atom_site_attached_hydrogens
_atom_site_U_iso_or_equiv
Nd1 Nd3+ 8 f 0.369721(13) 0.118029(19) 0.486924(14) 1 0 0.00576(9) 
Nd2 Nd3+ 4 e 0.0000 0.25069(3) 0.2500 1 0 0.00488(10) 
K1 K1+ 8 f 0.29134(7) 0.32024(9) 0.16210(7) 1 0 0.0182(2) 
K2 K1+ 4 a 0.0000 0.0000 0.0000 1 0 0.0154(3) 
P1 P5+ 8 f 0.08243(6) 0.31539(9) 0.02341(7) 1 0 0.0061(2) 
P2 P5+ 8 f 0.18461(6) 0.14642(10) 0.35975(7) 1 0 0.0058(2) 
S1 S2- 8 f 0.11185(7) 0.18287(9) 0.10609(7) 1 0 0.0090(2) 
S2 S2- 8 f 0.31478(7) 0.10685(9) 0.02618(8) 1 0 0.0115(2) 
S3 S2- 8 f 0.49053(7) 0.23820(10) 0.08189(7) 1 0 0.0111(2) 
S4 S2- 8 f 0.02019(6) 0.43466(9) 0.10337(7) 1 0 0.0066(2) 
S5 S2- 8 f 0.29673(7) 0.10112(10) 0.31029(7) 1 0 0.0110(2) 
S6 S2- 8 f 0.09218(7) 0.04887(9) 0.30638(7) 1 0 0.0096(2) 
S7 S2- 8 f 0.18554(6) 0.13209(9) 0.49870(7) 1 0 0.0072(2) 
S8 S2- 8 f 0.16028(6) 0.31586(9) 0.32713(7) 1 0 0.0075(2) 

loop_
_atom_site_aniso_label
_atom_site_aniso_type_symbol
_atom_site_aniso_U_11
_atom_site_aniso_U_22
_atom_site_aniso_U_33
_atom_site_aniso_U_12
_atom_site_aniso_U_13
_atom_site_aniso_U_23
Nd1 Nd3+ 0.00500(13) 0.00654(14) 0.00573(13) 0.00176(7) -0.00027(8) 
-0.00088(7)
Nd2 Nd3+ 0.00462(16) 0.00638(17) 0.00365(15) 0.000 0.00011(11) 0.000
K1 K1+ 0.0201(5) 0.0173(5) 0.0173(5) -0.0039(4) 0.0056(4) -0.0034(4)
K2 K1+ 0.0174(7) 0.0112(7) 0.0178(7) -0.0016(5) 0.0050(5) -0.0046(5)
P1 P5+ 0.0063(5) 0.0054(5) 0.0065(5) -0.0011(4) 0.0022(4) -0.0007(4)
P2 P5+ 0.0054(5) 0.0060(5) 0.0059(5) 0.0017(4) -0.0010(4) 0.0004(4)
S1 S2- 0.0094(5) 0.0081(5) 0.0096(5) 0.0010(4) 0.0030(4) 0.0005(4)
S2 S2- 0.0111(5) 0.0090(5) 0.0146(5) -0.0025(4) 0.0072(4) -0.0011(4)
S3 S2- 0.0114(5) 0.0126(5) 0.0091(5) 0.0003(4) 0.0000(4) -0.0047(4)
S4 S2- 0.0073(4) 0.0064(5) 0.0061(4) -0.0004(4) 0.0011(3) 0.0001(3)
S5 S2- 0.0083(5) 0.0187(6) 0.0061(5) 0.0052(4) 0.0011(4) -0.0015(4)
S6 S2- 0.0101(5) 0.0073(5) 0.0112(5) -0.0006(4) -0.0042(4) -0.0004(4)
S7 S2- 0.0075(5) 0.0093(5) 0.0049(4) 0.0019(4) 0.0003(4) 0.0009(3)
S8 S2- 0.0094(5) 0.0073(5) 0.0057(4) 0.0012(4) -0.0010(3) -0.0007(4)
#End of data_249719-ICSD


