data_82354-ICSD
#?2014 by Fachinformationszentrum Karlsruhe, and the U.S. Secretary of 
#Commerce on behalf of the United States.  All rights reserved.
_database_code_ICSD                82354
_audit_creation_date               1997/11/10
_audit_update_record               2002/04/01
_chemical_name_systematic          'Trisodium Gadolinium Bromide - Ii'
_chemical_formula_structural       'Na3 Gd Br6'
_chemical_formula_sum              'Br6 Gd1 Na3'
_publ_section_title
;
Ternaere Halogenide vom Typ A3 M X6.III. Synthese, Strukturen und 
Ionenleitfaehigkeit der Halogenide Na3 M X6 (X = Cl, Br)
;
loop_
_citation_id
_citation_journal_abbrev
_citation_year
_citation_journal_volume
_citation_page_first
_citation_page_last
_citation_journal_id_ASTM
primary 'Zeitschrift fuer Anorganische und Allgemeine Chemie (1950) (DE)'
 1995 621 457 463 ZAACAB
_publ_author_name                  'Wickleder, M.S.;Meyer, G.'
_cell_length_a                     7.2522(12)
_cell_length_b                     7.741(3)
_cell_length_c                     10.801(3)
_cell_angle_alpha                  90.
_cell_angle_beta                   90.76(3)
_cell_angle_gamma                  90.
_cell_volume                       606.31
_cell_formula_units_Z              2
_symmetry_space_group_name_H-M     'P 1 21/n 1'
_symmetry_Int_Tables_number        14
_refine_ls_R_factor_all            .03
loop_
_symmetry_equiv_pos_site_id
_symmetry_equiv_pos_as_xyz
  1	'-x+.5, y+.5, -z+.5'
  2	'-x, -y, -z'
  3	'x+.5, -y+.5, z+.5'
  4	'x, y, z'
loop_
_atom_type_symbol
_atom_type_oxidation_number
Br1-	-1
Gd3+	3
Na1+	1
loop_
_atom_site_label
_atom_site_type_symbol
_atom_site_symmetry_multiplicity
_atom_site_Wyckoff_symbol
_atom_site_fract_x
_atom_site_fract_y
_atom_site_fract_z
_atom_site_occupancy
_atom_site_attached_hydrogens
_atom_site_U_iso_or_equiv
Gd1 Gd3+ 2 a 0 0 0 1. 0 0.027(1) 
Na1 Na1+ 2 b 0.5 0.5 0 1. 0 0.046(1) 
Na2 Na1+ 4 e 0.5263(5) 0.9177(5) 0.2334(4) 1. 0 0.070(1) 
Br1 Br1- 4 e 0.1670(1) 0.3098(1) 0.92428(9) 1. 0 0.047(2) 
Br2 Br1- 4 e 0.1418(1) 0.0619(1) 0.24164(8) 1. 0 0.040(2) 
Br3 Br1- 4 e 0.3195(1) 0.8208(1) 0.93316(9) 1. 0 0.046(2) 

#End of data_82354-ICSD


