data_155112-ICSD
#?2014 by Fachinformationszentrum Karlsruhe, and the U.S. Secretary of 
#Commerce on behalf of the United States.  All rights reserved.
_database_code_ICSD                155112
_audit_creation_date               2007/04/01
_chemical_name_systematic          'Trizinc Bis(borate) - Alpha'
_chemical_formula_structural       'Zn3 (B O3)2'
_chemical_formula_sum              'B2 O6 Zn3'
_publ_section_title
;
Syntheses and crystal structures of the alpha- and beta-forms of zinc 
orthoborate, Zn3 B2 O6
;
loop_
_citation_id
_citation_journal_abbrev
_citation_year
_citation_journal_volume
_citation_page_first
_citation_page_last
_citation_journal_id_ASTM
primary 'Journal of Alloys and Compounds' 2006 425 96 100 JALCEU
_publ_author_name
;
Chen Xue An;Xue Hai Ping;Chang Xi Nan;Zhang Li;Zhao Ying Hua;Zuo Jian 
Long;Zang Hegui;Xiao Wei Qiang
;
_cell_length_a                     6.302(2)
_cell_length_b                     8.248(1)
_cell_length_c                     10.020(1)
_cell_angle_alpha                  89.85(1)
_cell_angle_beta                   89.79(1)
_cell_angle_gamma                  73.25(1)
_cell_volume                       498.73
_cell_formula_units_Z              4
_symmetry_space_group_name_H-M     'P -1'
_symmetry_Int_Tables_number        2
_refine_ls_R_factor_all            .0379
loop_
_symmetry_equiv_pos_site_id
_symmetry_equiv_pos_as_xyz
  1	'-x, -y, -z'
  2	'x, y, z'
loop_
_atom_type_symbol
_atom_type_oxidation_number
B3+	3
O2-	-2
Zn2+	2
loop_
_atom_site_label
_atom_site_type_symbol
_atom_site_symmetry_multiplicity
_atom_site_Wyckoff_symbol
_atom_site_fract_x
_atom_site_fract_y
_atom_site_fract_z
_atom_site_occupancy
_atom_site_attached_hydrogens
_atom_site_U_iso_or_equiv
Zn1 Zn2+ 2 i 0.24993(10) 0.59860(8) 0.07658(6) 1. 0 0.00923(13) 
Zn2 Zn2+ 2 i 0.39083(10) 0.93257(8) 0.15589(6) 1. 0 0.01020(13) 
Zn3 Zn2+ 2 i 0.05992(10) 0.28306(7) 0.17810(6) 1. 0 0.00916(13) 
Zn4 Zn2+ 2 i 0.72156(10) 0.10477(8) 0.32333(6) 1. 0 0.01025(13) 
Zn5 Zn2+ 2 i 0.48534(10) 0.71070(8) 0.41837(6) 1. 0 0.00984(13) 
Zn6 Zn2+ 2 i -0.01949(10) 0.72137(8) 0.33995(6) 1. 0 0.00952(13) 
B1 B3+ 2 i 0.3430(9) 0.4230(7) 0.3265(6) 1. 0 0.0086(10) 
B2 B3+ 2 i -0.1614(10) 0.9001(7) 0.0828(6) 1. 0 0.0093(10) 
B3 B3+ 2 i 0.3178(10) 0.4141(7) -0.1746(6) 1. 0 0.0085(10) 
B4 B3+ 2 i 0.1653(10) 0.0673(7) 0.4130(6) 1. 0 0.0076(9) 
O1 O2- 2 i 0.4736(6) 0.2834(4) 0.3905(4) 1. 0 0.0093(7) 
O2 O2- 2 i 0.2798(6) 0.4059(5) 0.1974(4) 1. 0 0.0113(7) 
O3 O2- 2 i 0.2712(6) 0.5772(5) 0.3898(4) 1. 0 0.0105(7) 
O4 O2- 2 i -0.1697(6) 0.9038(4) -0.0530(4) 1. 0 0.0103(7) 
O5 O2- 2 i 0.3309(6) 0.9930(5) -0.1554(4) 1. 0 0.0111(7) 
O6 O2- 2 i 0.0107(7) 0.7860(5) 0.1488(4) 1. 0 0.0132(7) 
O7 O2- 2 i 0.5030(7) 0.3095(5) -0.1157(4) 1. 0 0.0122(7) 
O8 O2- 2 i 0.1945(7) 0.5531(5) -0.1057(4) 1. 0 0.0130(7) 
O9 O2- 2 i 0.7414(6) 0.6152(5) 0.3033(4) 1. 0 0.0107(7) 
O10 O2- 2 i 0.8269(6) 0.9133(4) 0.4507(4) 1. 0 0.0094(7) 
O11 O2- 2 i 0.3186(7) 0.9360(5) 0.3501(4) 1. 0 0.0117(7) 
O12 O2- 2 i -0.0016(6) 0.1772(5) 0.3399(4) 1. 0 0.0101(7) 

#End of data_155112-ICSD


