data_27875-ICSD
#?2014 by Fachinformationszentrum Karlsruhe, and the U.S. Secretary of 
#Commerce on behalf of the United States.  All rights reserved.
_database_code_ICSD                27875
_audit_creation_date               1980/01/01
_audit_update_record               2010/02/01
_chemical_name_systematic          'Calcium Sulfate(VI) Dihydrate'
_chemical_formula_structural       'Ca (S O4) (H2 O)2'
_chemical_formula_sum              'H4 Ca1 O6 S1'
_chemical_name_mineral             Gypsum
_publ_section_title
;
Neutron diffraction study of gypsum, Ca S O4 (H2 O)2
;
loop_
_citation_id
_citation_journal_abbrev
_citation_year
_citation_journal_volume
_citation_page_first
_citation_page_last
_citation_journal_id_ASTM
primary 'Journal of Chemical Physics' 1958 29 1306 1311 JCPSA6
_publ_author_name                  'Atoji, M.;Rundle, R.E.'
_cell_length_a                     5.680(8)
_cell_length_b                     15.180(9)
_cell_length_c                     6.520(8)
_cell_angle_alpha                  90.
_cell_angle_beta                   118.38(33)
_cell_angle_gamma                  90.
_cell_volume                       494.61
_cell_formula_units_Z              4
_symmetry_space_group_name_H-M     'I 1 2/c 1'
_symmetry_Int_Tables_number        15
_refine_ls_R_factor_all            .155
loop_
_symmetry_equiv_pos_site_id
_symmetry_equiv_pos_as_xyz
  1	'-x, y, -z+.5'
  2	'-x, -y, -z'
  3	'x, -y, z+.5'
  4	'x, y, z'
  5	'-x+.5, y+.5, -z'
  6	'-x+.5, -y+.5, -z+.5'
  7	'x+.5, -y+.5, z'
  8	'x+.5, y+.5, z+.5'
loop_
_atom_type_symbol
_atom_type_oxidation_number
Ca2+	2
H1+	1
O2-	-2
S6+	6
loop_
_atom_site_label
_atom_site_type_symbol
_atom_site_symmetry_multiplicity
_atom_site_Wyckoff_symbol
_atom_site_fract_x
_atom_site_fract_y
_atom_site_fract_z
_atom_site_occupancy
_atom_site_attached_hydrogens
_atom_site_B_iso_or_equiv
Ca1 Ca2+ 4 e 0.5 0.0800(7) 0.25 1. 0 1.66 
S1 S6+ 4 e 0 0.0782(10) 0.75 1. 0 1.84 
O1 O2- 8 f 0.9665(11) 0.1352(8) 0.5506(14) 1. 0 2.13 
O2 O2- 8 f 0.7602(13) 0.0220(3) 0.6735(14) 1. 0 2.18 
O3 O2- 8 f 0.3797(15) 0.1831(6) 0.4500(17) 1. 0 2.41 
H1 H1+ 8 f 0.236(4) 0.1650(15) 0.489(4) 1. 0 3.82 
H2 H1+ 8 f 0.410(5) 0.2460(15) 0.488(4) 1. 0 3.56 

#End of data_27875-ICSD


