data_416430-ICSD
#?2014 by Fachinformationszentrum Karlsruhe, and the U.S. Secretary of 
#Commerce on behalf of the United States.  All rights reserved.
_database_code_ICSD                416430
_audit_creation_date               2008/02/01
_chemical_name_systematic          'Potassium Dilead Pentachloride'
_chemical_formula_structural       'K Pb2 Cl5'
_chemical_formula_sum              'Cl5 K1 Pb2'
_publ_section_title
;
A cationic order-disorder phase transition in K Pb2 Cl5
;
loop_
_citation_id
_citation_journal_abbrev
_citation_year
_citation_journal_volume
_citation_journal_issue
_citation_page_first
_citation_page_last
_citation_journal_id_ASTM
primary 'European Journal of Inorganic Chemistry  (online)'
 2006 2006 20 4168 4178 EJICFO
_publ_author_name
;
Velazquez, M.;Ferrier, A.;Perez, O.;Pechev, S.;Gravereau, 
P.;Chaminade, J.P.;Moncorge, R.
;
_cell_length_a                     8.849
_cell_length_b                     7.918
_cell_length_c                     12.472
_cell_angle_alpha                  90
_cell_angle_beta                   90.11
_cell_angle_gamma                  90
_cell_volume                       873.87
_cell_formula_units_Z              4
_symmetry_space_group_name_H-M     'P 1 21/c 1'
_symmetry_Int_Tables_number        14
_refine_ls_R_factor_all            .0542
loop_
_symmetry_equiv_pos_site_id
_symmetry_equiv_pos_as_xyz
  1	'x, -y+.5, z+.5'
  2	'-x, -y, -z'
  3	'-x, y+.5, -z+.5'
  4	'x, y, z'
loop_
_atom_type_symbol
_atom_type_oxidation_number
Cl1-	-1
K1+	1
Pb2+	2
loop_
_atom_site_label
_atom_site_type_symbol
_atom_site_symmetry_multiplicity
_atom_site_Wyckoff_symbol
_atom_site_fract_x
_atom_site_fract_y
_atom_site_fract_z
_atom_site_occupancy
_atom_site_attached_hydrogens
_atom_site_U_iso_or_equiv
Pb1 Pb2+ 4 e 0.744988(14) 0.064159(17) 0.993338(11) 1 0 0.01537(3) 
Pb2 Pb2+ 4 e 0.006834(17) 0.506431(19) 0.825864(11) 1 0 0.01918(4) 
K1 K1+ 4 e 0.51006(10) 0.55120(12) 0.83130(7) 1 0 0.0253(2) 
Cl1 Cl1- 4 e 0.04200(9) 0.16587(11) 0.90201(7) 1 0 0.01614(19) 
Cl2 Cl1- 4 e 0.77062(12) -0.15542(12) 0.81152(8) 1 0 0.0238(2) 
Cl3 Cl1- 4 e 0.76416(10) 0.31160(12) 0.72074(7) 1 0 0.0188(2) 
Cl4 Cl1- 4 e 0.54060(10) -0.17946(13) 0.08063(9) 1 0 0.0242(2) 
Cl5 Cl1- 4 e 0.77817(10) 0.45935(11) 0.99858(7) 1 0 0.0170(2) 

loop_
_atom_site_aniso_label
_atom_site_aniso_type_symbol
_atom_site_aniso_U_11
_atom_site_aniso_U_22
_atom_site_aniso_U_33
_atom_site_aniso_U_12
_atom_site_aniso_U_13
_atom_site_aniso_U_23
Pb1 Pb2+ 0.01339(5) 0.01715(6) 0.01558(5) 0.00073(4) 0.00145(4) -0.00176(4)
Pb2 Pb2+ 0.02214(6) 0.01829(6) 0.01711(6) -0.00239(5) 0.00063(4) 
-0.00145(5)
K1 K1+ 0.0226(3) 0.0241(4) 0.0293(4) 0.0051(3) 0.0033(3) 0.0061(3)
Cl1 Cl1- 0.0148(3) 0.0126(3) 0.0210(4) 0.0011(3) 0.0018(3) 0.0049(3)
Cl2 Cl1- 0.0326(5) 0.0210(4) 0.0179(4) -0.0092(3) 0.0084(3) -0.0063(3)
Cl3 Cl1- 0.0216(4) 0.0183(4) 0.0165(3) -0.0027(3) 0.0000(3) -0.0018(3)
Cl4 Cl1- 0.0139(3) 0.0226(4) 0.0362(5) -0.0004(3) -0.0005(3) 0.0150(4)
Cl5 Cl1- 0.0199(3) 0.0173(4) 0.0139(3) 0.0002(3) 0.0003(3) -0.0011(3)
#End of data_416430-ICSD


