data_409483-ICSD
#?2014 by Fachinformationszentrum Karlsruhe, and the U.S. Secretary of 
#Commerce on behalf of the United States.  All rights reserved.
_database_code_ICSD                409483
_audit_creation_date               2002/04/01
_chemical_name_systematic
;
Tetrapotassium Hexatellurodistannate
;
_chemical_formula_structural       'K4 (Sn2 Te6)'
_chemical_formula_sum              'K4 Sn2 Te6'
_publ_section_title
;
Crystal structure of tetrapotassium hexatellurodistannate, K4 Sn2 Te6
;
loop_
_citation_id
_citation_journal_abbrev
_citation_year
_citation_journal_volume
_citation_page_first
_citation_page_last
_citation_journal_id_ASTM
primary 'Zeitschrift fuer Kristallographie - New Crystal Structures'
 2000 215 318 318 ZKNSFT
_publ_author_name                  'Evenson, C.R.IV.;Dorhout, P.K.'
_cell_length_a                     23.15109(40)
_cell_length_b                     8.6277(1)
_cell_length_c                     8.6536(2)
_cell_angle_alpha                  90.
_cell_angle_beta                   90.
_cell_angle_gamma                  90.
_cell_volume                       1728.48
_cell_formula_units_Z              4
_symmetry_space_group_name_H-M     'C m c a'
_symmetry_Int_Tables_number        64
_refine_ls_R_factor_all            .0386
loop_
_symmetry_equiv_pos_site_id
_symmetry_equiv_pos_as_xyz
  1	'-x, -y+.5, z+.5'
  2	'-x, y+.5, -z+.5'
  3	'-x, y, z'
  4	'-x, -y, -z'
  5	'x, y+.5, -z+.5'
  6	'x, -y+.5, z+.5'
  7	'x, -y, -z'
  8	'x, y, z'
  9	'-x+.5, -y, z+.5'
 10	'-x+.5, y, -z+.5'
 11	'-x+.5, y+.5, z'
 12	'-x+.5, -y+.5, -z'
 13	'x+.5, y, -z+.5'
 14	'x+.5, -y, z+.5'
 15	'x+.5, -y+.5, -z'
 16	'x+.5, y+.5, z'
loop_
_atom_type_symbol
_atom_type_oxidation_number
K1+	1
Sn4+	4
Te2-	-2
loop_
_atom_site_label
_atom_site_type_symbol
_atom_site_symmetry_multiplicity
_atom_site_Wyckoff_symbol
_atom_site_fract_x
_atom_site_fract_y
_atom_site_fract_z
_atom_site_occupancy
_atom_site_attached_hydrogens
Te1 Te2- 8 f 0 0.16699(6) 0.33277(6) 1. 0 
Te2 Te2- 16 g 0.14995(2) 0.18693(4) 0.68702(4) 1. 0 
Sn1 Sn4+ 8 d 0.08485(2) 0 0.5 1. 0 
K1 K1+ 8 d 0.26583(9) 0 0.5 1. 0 
K2 K1+ 8 d -.07738(8) 0.5 0.5 1. 0 

loop_
_atom_site_aniso_label
_atom_site_aniso_type_symbol
_atom_site_aniso_U_11
_atom_site_aniso_U_22
_atom_site_aniso_U_33
_atom_site_aniso_U_12
_atom_site_aniso_U_13
_atom_site_aniso_U_23
Te1 Te2- 0.0129(3) 0.0115(3) 0.0102(3) 0 0 0.0005(2)
Te2 Te2- 0.0147(2) 0.0134(2) 0.0113(2) -.00133(15) -.00150(14) -.00066(14)
Sn1 Sn4+ 0.0108(3) 0.0127(3) 0.0110(3) 0 0 -.0015(2)
K1 K1+ 0.0162(10) 0.0251(9) 0.0245(11) 0 0 -.0057(8)
K2 K1+ 0.016(1) 0.0181(9) 0.0154(10) 0 0 0.0002(7)
#End of data_409483-ICSD


