data_88523-ICSD
#?2014 by Fachinformationszentrum Karlsruhe, and the U.S. Secretary of 
#Commerce on behalf of the United States.  All rights reserved.
_database_code_ICSD                88523
_audit_creation_date               2001/07/16
_chemical_name_systematic          'Dilanthanum Zinc Rhodate(IV)'
_chemical_formula_structural       'La2 Zn (Rh O6)'
_chemical_formula_sum              'La2 O6 Rh1 Zn1'
_publ_section_title
;
Structure and properties of new perovskites La2 M Rh O6 (M = Mg,Zn)
;
loop_
_citation_id
_citation_journal_abbrev
_citation_year
_citation_journal_volume
_citation_page_first
_citation_page_last
_citation_journal_id_ASTM
primary 'Journal of Materials Science' 1999 34 251 256 JMTSAS
_publ_author_name                  'Schinzer, C.;Demazeau, G.'
_cell_length_a                     5.584(3)
_cell_length_b                     5.659(3)
_cell_length_c                     7.914(4)
_cell_angle_alpha                  90.
_cell_angle_beta                   90.0(2)
_cell_angle_gamma                  90.
_cell_volume                       250.08
_cell_formula_units_Z              2
_symmetry_space_group_name_H-M     'P 1 21/n 1'
_symmetry_Int_Tables_number        14
_refine_ls_R_factor_all            .05
loop_
_symmetry_equiv_pos_site_id
_symmetry_equiv_pos_as_xyz
  1	'-x+.5, y+.5, -z+.5'
  2	'-x, -y, -z'
  3	'x+.5, -y+.5, z+.5'
  4	'x, y, z'
loop_
_atom_type_symbol
_atom_type_oxidation_number
La3+	3
O2-	-2
Rh4+	4
Zn2+	2
loop_
_atom_site_label
_atom_site_type_symbol
_atom_site_symmetry_multiplicity
_atom_site_Wyckoff_symbol
_atom_site_fract_x
_atom_site_fract_y
_atom_site_fract_z
_atom_site_occupancy
_atom_site_attached_hydrogens
_atom_site_B_iso_or_equiv
La1 La3+ 4 e 0.512(3) 0.545(2) 0.249(4) 1. 0 0.3 
Zn1 Zn2+ 2 d 0.5 0 0 1. 0 0.3 
Rh1 Rh4+ 2 c 0 0.5 0 1. 0 0.3 
O1 O2- 4 e 0.203 0.213 -.0481 1. 0 0.3 
O2 O2- 4 e 0.295 0.697 -.0395 1. 0 0.3 
O3 O2- 4 e 0.4118 -.0208 0.251 1. 0 0.3 

#End of data_88523-ICSD


