data_182596-ICSD
#?2014 by Fachinformationszentrum Karlsruhe, and the U.S. Secretary of 
#Commerce on behalf of the United States.  All rights reserved.
_database_code_ICSD                182596
_audit_creation_date               2012/02/01
_chemical_name_systematic          'Barium Magnesium Tetrafluoride'
_chemical_formula_structural       'Ba Mg F4'
_chemical_formula_sum              'Ba1 F4 Mg1'
_publ_section_title
;
Structural stability of Ba M F4 (M = Mg, Zn and Mn) at high pressures
;
loop_
_citation_id
_citation_journal_abbrev
_citation_year
_citation_journal_volume
_citation_page_first
_citation_page_last
_citation_journal_id_ASTM
primary 'Journal of Physics: Condensed Matter' 2011 23 215401-1 215401-13 JCOMEL
_publ_author_name
;
Posse, J.M.;Friese, K.;Grzechnik, A.
;
_cell_length_a                     4.095(3)
_cell_length_b                     14.304(3)
_cell_length_c                     5.754(6)
_cell_angle_alpha                  90.
_cell_angle_beta                   90.
_cell_angle_gamma                  90.
_cell_volume                       337.04
_cell_formula_units_Z              4
_symmetry_space_group_name_H-M     'C m c 21'
_symmetry_Int_Tables_number        36
_refine_ls_R_factor_all            .091
loop_
_symmetry_equiv_pos_site_id
_symmetry_equiv_pos_as_xyz
  1	'x, -y, z+.5'
  2	'-x, -y, z+.5'
  3	'-x, y, z'
  4	'x, y, z'
  5	'x+.5, -y+.5, z+.5'
  6	'-x+.5, -y+.5, z+.5'
  7	'-x+.5, y+.5, z'
  8	'x+.5, y+.5, z'
loop_
_atom_type_symbol
_atom_type_oxidation_number
Ba2+	2
F1-	-1
Mg2+	2
loop_
_atom_site_label
_atom_site_type_symbol
_atom_site_symmetry_multiplicity
_atom_site_Wyckoff_symbol
_atom_site_fract_x
_atom_site_fract_y
_atom_site_fract_z
_atom_site_occupancy
_atom_site_attached_hydrogens
_atom_site_U_iso_or_equiv
Ba1 Ba2+ 4 a 0.5 0.3536(3) 0.4672(17) 1. 0 0.0259(12) 
Mg1 Mg2+ 4 a 0 0.409(2) 0 1. 0 0.012(2) 
F1 F1- 4 a 0 0.310(6) 0.731(4) 1. 0 0.0133(15) 
F2 F1- 4 a 0 0.315(6) 0.189(5) 1. 0 0.0133(15) 
F3 F1- 4 a 0 0.508(3) 0.268(3) 1. 0 0.0133(15) 
F4 F1- 4 a 0.5 0.442(4) 0.003(3) 1. 0 0.0133(15) 

#End of data_182596-ICSD


