data_88988-ICSD
#?2014 by Fachinformationszentrum Karlsruhe, and the U.S. Secretary of 
#Commerce on behalf of the United States.  All rights reserved.
_database_code_ICSD                88988
_audit_creation_date               2001/07/16
_chemical_name_systematic          'Dicalcium Diiron(III) Oxide'
_chemical_formula_structural       'Ca2 Fe2 O5'
_chemical_formula_sum              'Ca2 Fe2 O5'
_publ_section_title
;
A neutron diffraction study of the temperature dependence of Ca2 Fe2 
O5
;
loop_
_citation_id
_citation_journal_abbrev
_citation_year
_citation_journal_volume
_citation_journal_issue
_citation_page_first
_citation_page_last
_citation_journal_id_ASTM
primary 'Materials Research Bulletin' 1999 34 2 303 314 MRBUAC
_publ_author_name
;
Berastegui, P.;Eriksson, S.G.;Hull, S.
;
_cell_length_a                     5.6206(1)
_cell_length_b                     14.9562(3)
_cell_length_c                     5.4571(1)
_cell_angle_alpha                  90.
_cell_angle_beta                   90.
_cell_angle_gamma                  90.
_cell_volume                       458.74
_cell_formula_units_Z              4
_symmetry_space_group_name_H-M     'P c m n'
_symmetry_Int_Tables_number        62
_refine_ls_R_factor_all            .029
loop_
_symmetry_equiv_pos_site_id
_symmetry_equiv_pos_as_xyz
  1	'-x+.5, y, z+.5'
  2	'x, -y+.5, z'
  3	'x+.5, y+.5, -z+.5'
  4	'-x, -y, -z'
  5	'x+.5, -y, -z+.5'
  6	'-x, y+.5, -z'
  7	'-x+.5, -y+.5, z+.5'
  8	'x, y, z'
loop_
_atom_type_symbol
_atom_type_oxidation_number
Ca2+	2
Fe3+	3
O2-	-2
loop_
_atom_site_label
_atom_site_type_symbol
_atom_site_symmetry_multiplicity
_atom_site_Wyckoff_symbol
_atom_site_fract_x
_atom_site_fract_y
_atom_site_fract_z
_atom_site_occupancy
_atom_site_attached_hydrogens
_atom_site_U_iso_or_equiv
Ca1 Ca2+ 8 d 0.0218(5) 0.1079(1) 0.4897(7) 1. 0 0.0230(6) 
Fe1 Fe3+ 4 a 0 0 0 1. 0 0.0093(4) 
Fe2 Fe3+ 4 c -.0661(3) 0.25 -.0523(3) 1. 0 0.0113(4) 
O1 O2- 8 d 0.2424(5) -.0147(1) 0.2568(7) 1. 0 0.0129(4) 
O2 O2- 8 d 0.0710(3) 0.1416(1) 0.0202(5) 1. 0 0.0185(5) 
O3 O2- 4 c 0.8767(6) 0.25 0.6002(6) 1. 0 0.0117(7) 

#End of data_88988-ICSD


