data_24099-ICSD
#?2014 by Fachinformationszentrum Karlsruhe, and the U.S. Secretary of 
#Commerce on behalf of the United States.  All rights reserved.
_database_code_ICSD                24099
_audit_creation_date               1980/01/01
_audit_update_record               2012/02/01
_chemical_name_systematic          'Dipotassium Tetracyanoniccolate'
_chemical_formula_structural       'K2 (Ni (C N)4)'
_chemical_formula_sum              'C4 K2 N4 Ni1'
_publ_section_title
;
The crystal structure of K2 Ni (C N)4
;
loop_
_citation_id
_citation_journal_abbrev
_citation_year
_citation_journal_volume
_citation_page_first
_citation_page_last
_citation_journal_id_ASTM
primary 'Acta Chemica Scandinavica (1-27,1973-42,1988)' 1964 18 2385 2391 ACSAA4
_publ_author_name                  'Vannerberg, N.G.'
_cell_length_a                     4.294(4)
_cell_length_b                     7.680(8)
_cell_length_c                     13.03(1)
_cell_angle_alpha                  90.
_cell_angle_beta                   87.27(17)
_cell_angle_gamma                  90.
_cell_volume                       429.21
_cell_formula_units_Z              2
_symmetry_space_group_name_H-M     'P 1 21/c 1'
_symmetry_Int_Tables_number        14
_refine_ls_R_factor_all            .15
loop_
_symmetry_equiv_pos_site_id
_symmetry_equiv_pos_as_xyz
  1	'x, -y+.5, z+.5'
  2	'-x, -y, -z'
  3	'-x, y+.5, -z+.5'
  4	'x, y, z'
loop_
_atom_type_symbol
_atom_type_oxidation_number
C2+	2
K1+	1
N3-	-3
Ni2+	2
loop_
_atom_site_label
_atom_site_type_symbol
_atom_site_symmetry_multiplicity
_atom_site_Wyckoff_symbol
_atom_site_fract_x
_atom_site_fract_y
_atom_site_fract_z
_atom_site_occupancy
_atom_site_attached_hydrogens
_atom_site_B_iso_or_equiv
K1 K1+ 4 e 0.281 0.046 0.341 1. 0 1.7 
Ni1 Ni2+ 2 a 0 0 0 1. 0 1.7 
C1 C2+ 4 e 0.167 0.207 0.055 1. 0 1.7 
C2 C2+ 4 e 0.849 0.382 0.39 1. 0 1.7 
N1 N3- 4 e 0.261 0.338 0.082 1. 0 1.7 
N2 N3- 4 e 0.764 0.3 0.327 1. 0 1.7 

#End of data_24099-ICSD


