data_280080-ICSD
#?2014 by Fachinformationszentrum Karlsruhe, and the U.S. Secretary of 
#Commerce on behalf of the United States.  All rights reserved.
_database_code_ICSD                280080
_audit_creation_date               2000/07/15
_audit_update_record               2011/02/01
_chemical_name_systematic
;
Tripotassium Tetrachlorozincate Nitrate(V)
;
_chemical_formula_structural       'K3 (Zn Cl4) (N O3)'
_chemical_formula_sum              'Cl4 K3 N1 O3 Zn1'
_publ_section_title
;
The double-anion salts M3 (Zn Cl4) N O3 (M = K+ and N H4+)
;
loop_
_citation_id
_citation_journal_abbrev
_citation_year
_citation_journal_volume
_citation_page_first
_citation_page_last
_citation_journal_id_ASTM
primary 'Acta Crystallographica, Section C: Crystal Structure Communications'
 1999 55 6 8 ACSCEE
_publ_author_name                  'Carter, R.L.;Zompa, L.J.'
_cell_length_a                     9.256(3)
_cell_length_b                     9.726(3)
_cell_length_c                     12.073(3)
_cell_angle_alpha                  90.
_cell_angle_beta                   90.
_cell_angle_gamma                  90.
_cell_volume                       1086.86
_cell_formula_units_Z              4
_symmetry_space_group_name_H-M     'P n m a'
_symmetry_Int_Tables_number        62
_refine_ls_R_factor_all            .06
loop_
_symmetry_equiv_pos_site_id
_symmetry_equiv_pos_as_xyz
  1	'x+.5, y, -z+.5'
  2	'x, -y+.5, z'
  3	'-x+.5, y+.5, z+.5'
  4	'-x, -y, -z'
  5	'-x+.5, -y, z+.5'
  6	'-x, y+.5, -z'
  7	'x+.5, -y+.5, -z+.5'
  8	'x, y, z'
loop_
_atom_type_symbol
_atom_type_oxidation_number
Cl1-	-1
K1+	1
N5+	5
O2-	-2
Zn2+	2
loop_
_atom_site_label
_atom_site_type_symbol
_atom_site_symmetry_multiplicity
_atom_site_Wyckoff_symbol
_atom_site_fract_x
_atom_site_fract_y
_atom_site_fract_z
_atom_site_occupancy
_atom_site_attached_hydrogens
Zn1 Zn2+ 4 c 0.82026(6) 0.25 0.40800(4) 1. 0 
Cl1 Cl1- 4 c 1.03376(13) 0.25 0.50010(11) 1. 0 
Cl2 Cl1- 4 c 0.87384(15) 0.25 0.22381(10) 1. 0 
Cl3 Cl1- 8 d 0.69273(10) 0.05970(8) 0.44919(7) 1. 0 
N1 N5+ 4 c 0.6568(4) 0.25 0.7294(3) 1. 0 
O1 O2- 4 c 0.7861(4) 0.25 0.7584(3) 1. 0 
O2 O2- 8 d 0.5942(3) 0.3614(3) 0.7124(2) 1. 0 
K1 K1+ 4 c 0.08386(11) 0.75 0.03730(8) 1. 0 
K2 K1+ 8 d 0.12267(9) 0.49576(8) 0.31771(6) 1. 0 

loop_
_atom_site_aniso_label
_atom_site_aniso_type_symbol
_atom_site_aniso_U_11
_atom_site_aniso_U_22
_atom_site_aniso_U_33
_atom_site_aniso_U_12
_atom_site_aniso_U_13
_atom_site_aniso_U_23
Zn1 Zn2+ 0.0245(2) 0.0236(2) 0.0209(2) 0 0.0022(2) 0
Cl1 Cl1- 0.0303(6) 0.0577(8) 0.0353(6) 0 -.0082(5) 0
Cl2 Cl1- 0.0466(7) 0.0422(6) 0.0206(5) 0 0.0075(5) 0
Cl3 Cl1- 0.0471(5) 0.0254(4) 0.0373(4) -.0097(3) 0.0017(4) 0.0039(3)
N1 N5+ 0.0222(17) 0.0335(19) 0.0170(16) 0 0.0000(13) 0
O1 O2- 0.0202(15) 0.0417(18) 0.047(2) 0 -.0110(15) 0
O2 O2- 0.0315(12) 0.0340(12) 0.0421(14) 0.0085(10) -.0020(11) 0.0035(11)
K1 K1+ 0.0327(5) 0.0286(4) 0.0227(4) 0 0.0013(4) 0
K2 K1+ 0.0382(4) 0.0319(4) 0.0357(4) -.0008(3) -.0030(3) 0.0064(3)
#End of data_280080-ICSD


