data_167238-ICSD
#?2014 by Fachinformationszentrum Karlsruhe, and the U.S. Secretary of 
#Commerce on behalf of the United States.  All rights reserved.
_database_code_ICSD                167238
_audit_creation_date               2010/08/01
_audit_update_record               2013/08/01
_chemical_name_systematic
;
Trilithium Divanadium(III) Tris(phosphate(V))
;
_chemical_formula_structural       'Li3 V2 (P O4)3'
_chemical_formula_sum              'Li3 O12 P3 V2'
_publ_section_title
;
Synthesis of high tap density Li3 V2 (P O4)3 cathode materials using 
mixed lithium precursors
;
loop_
_citation_id
_citation_journal_abbrev
_citation_year
_citation_journal_volume
_citation_page_first
_citation_page_last
_citation_journal_id_ASTM
primary 'Journal of Physics and Chemistry of Solids' 2010 71 394 399 JPCSAW
_publ_author_name
;
Fu Peng;Zhao Yanming;Dong Youzhong;Hou Xingmei
;
_cell_length_a                     8.5978(1)
_cell_length_b                     8.5933(3)
_cell_length_c                     12.0327(5)
_cell_angle_alpha                  90.
_cell_angle_beta                   90.496(8)
_cell_angle_gamma                  90.
_cell_volume                       888.98
_cell_formula_units_Z              4
_symmetry_space_group_name_H-M     'P 1 21/n 1'
_symmetry_Int_Tables_number        14
_refine_ls_R_factor_all            .0998
loop_
_symmetry_equiv_pos_site_id
_symmetry_equiv_pos_as_xyz
  1	'-x+.5, y+.5, -z+.5'
  2	'-x, -y, -z'
  3	'x+.5, -y+.5, z+.5'
  4	'x, y, z'
loop_
_atom_type_symbol
_atom_type_oxidation_number
Li1+	1
O2-	-2
P5+	5
V3+	3
loop_
_atom_site_label
_atom_site_type_symbol
_atom_site_symmetry_multiplicity
_atom_site_Wyckoff_symbol
_atom_site_fract_x
_atom_site_fract_y
_atom_site_fract_z
_atom_site_occupancy
_atom_site_attached_hydrogens
Li1 Li1+ 4 e 0.2381(8) 0.7794(6) 0.1784(9) 1. 0 
Li2 Li1+ 4 e 0.9068(3) 0.3039(5) 0.1858(8) 1. 0 
Li3 Li1+ 4 e 0.5999(4) 0.3618(2) 0.2298(9) 1. 0 
V1 V3+ 4 e 0.2468(6) 0.4616(5) 0.1066(6) 1. 0 
V2 V3+ 4 e 0.7511(4) 0.4723(9) 0.3865(7) 1. 0 
P1 P5+ 4 e 0.1067(6) 0.1061(4) 0.1465(5) 1. 0 
P2 P5+ 4 e 0.6058(3) 0.1128(5) 0.3591(7) 1. 0 
P3 P5+ 4 e 0.0431(2) 0.2454(8) 0.4988(7) 1. 0 
O1 O2- 4 e 0.9345(5) 0.1109(3) 0.1451(1) 1. 0 
O2 O2- 4 e 0.1532(2) 0.9824(7) 0.2352(5) 1. 0 
O3 O2- 4 e 0.1756(1) 0.0390(7) 0.0398(4) 1. 0 
O4 O2- 4 e 0.1546(5) 0.2694(5) 0.1754(7) 1. 0 
O5 O2- 4 e 0.4196(6) 0.0913(0) 0.3210(8) 1. 0 
O6 O2- 4 e 0.6887(1) 0.0045(6) 0.2813(8) 1. 0 
O7 O2- 4 e 0.6532(2) 0.0945(2) 0.4688(7) 1. 0 
O8 O2- 4 e 0.6574(9) 0.2698(5) 0.3147(3) 1. 0 
O9 O2- 4 e 0.9517(4) 0.1454(9) 0.5710(9) 1. 0 
O10 O2- 4 e 0.9149(1) 0.3222(1) 0.3968(2) 1. 0 
O11 O2- 4 e 0.1738(3) 0.1675(4) 0.4339(8) 1. 0 
O12 O2- 4 e 0.1067(4) 0.3596(2) 0.5719(3) 1. 0 

#End of data_167238-ICSD


