data_26906-ICSD
#?2014 by Fachinformationszentrum Karlsruhe, and the U.S. Secretary of 
#Commerce on behalf of the United States.  All rights reserved.
_database_code_ICSD                26906
_audit_creation_date               1981/12/31
_chemical_name_systematic
;
Dipotassium Pentahydrogen Phosphate(III)
;
_chemical_formula_structural       'K2 (H2 P O3)2 (H3 P O3)'
_chemical_formula_sum              'H7 K2 O9 P3'
_publ_section_title
;
Structure of the 2:1 Adduct of Potassium Hydrogenphosphite and 
Phosphorous Acid
;
loop_
_citation_id
_citation_journal_abbrev
_citation_year
_citation_journal_volume
_citation_page_first
_citation_page_last
_citation_journal_id_ASTM
primary 'Acta Crystallographica B (24,1968-38,1982)' 1981 37 2058 2059 ACBCAR
_publ_author_name                  'Loub, J.;Paulus, H.'
_cell_length_a                     8.590(1)
_cell_length_b                     9.010(1)
_cell_length_c                     7.576(1)
_cell_angle_alpha                  112.58(1)
_cell_angle_beta                   87.88(1)
_cell_angle_gamma                  101.21(1)
_cell_volume                       530.62
_cell_formula_units_Z              2
_symmetry_space_group_name_H-M     'P -1'
_symmetry_Int_Tables_number        2
_refine_ls_R_factor_all            .0237
loop_
_symmetry_equiv_pos_site_id
_symmetry_equiv_pos_as_xyz
  1	'-x, -y, -z'
  2	'x, y, z'
loop_
_atom_type_symbol
_atom_type_oxidation_number
H1+	1
K1+	1
O2-	-2
P3+	3
loop_
_atom_site_label
_atom_site_type_symbol
_atom_site_symmetry_multiplicity
_atom_site_Wyckoff_symbol
_atom_site_fract_x
_atom_site_fract_y
_atom_site_fract_z
_atom_site_occupancy
_atom_site_attached_hydrogens
_atom_site_B_iso_or_equiv
K1 K1+ 2 i 0.4033(1) 0.0974(1) 0.3152(1) 1. 0 0 
K2 K1+ 2 i 0.9238(1) 0.1499(1) 0.4084(1) 1. 0 0 
P1 P3+ 2 i -.1057(1) 0.2224(1) -.0621(1) 1. 0 0 
O1 O2- 2 i -.0949(2) 0.0942(2) -.2545(2) 1. 0 0 
O2 O2- 2 i 0.0102(1) 0.2412(2) 0.0955(2) 1. 0 0 
O3 O2- 2 i -.2792(2) 0.1886(2) 0.0063(2) 1. 0 0 
H1 H1+ 2 i -.094 0.368 -.066 1. 0 2.37 
H2 H1+ 2 i -.282 0.257 0.132 1. 0 3.16 
P2 P3+ 2 i 0.2813(1) 0.5183(1) 0.4661(1) 1. 0 0 
O4 O2- 2 i 0.3231(2) 0.6775(2) 0.6334(2) 1. 0 0 
O5 O2- 2 i 0.2431(2) 0.3634(2) 0.5031(2) 1. 0 0 
O6 O2- 2 i 0.1408(2) 0.5331(2) 0.3515(2) 1. 0 0 
H3 H1+ 2 i 0.39 0.499 0.341 1. 0 2.37 
H4 H1+ 2 i 0.09 0.438 0.261 1. 0 3.16 
P3 P3+ 2 i 0.3659(1) 0.2434(1) 0.8563(1) 1. 0 0 
O7 O2- 2 i 0.3783(2) 0.1017(2) 0.6795(2) 1. 0 0 
O8 O2- 2 i 0.2910(2) 0.1973(2) 1.0214(2) 1. 0 0 
O9 O2- 2 i 0.2702(2) 0.3652(2) 0.8353(2) 1. 0 0 
H5 H1+ 2 i 0.495 0.323 0.921 1. 0 2.37 
H6 H1+ 2 i 0.194 0.218 1.058 1. 0 3.95 
H7 H1+ 2 i 0.269 0.361 0.703 1. 0 3.95 

loop_
_atom_site_aniso_label
_atom_site_aniso_type_symbol
_atom_site_aniso_U_11
_atom_site_aniso_U_22
_atom_site_aniso_U_33
_atom_site_aniso_U_12
_atom_site_aniso_U_13
_atom_site_aniso_U_23
K1 K1+ 0.0267(2) 0.0255(2) 0.0265(2) 0.0028(2) -.0022(2) 0.0077(2)
K2 K1+ 0.0362(2) 0.0297(2) 0.0289(2) 0.0107(2) 0.0032(2) 0.0142(2)
P1 P3+ 0.0284(2) 0.0218(2) 0.0189(2) 0.0028(2) -.0050(2) 0.0061(2)
O1 O2- 0.0323(7) 0.0302(7) 0.0203(6) 0.0053(6) -.0014(5) 0.0055(5)
O2 O2- 0.0259(7) 0.0395(8) 0.0221(6) 0.0024(6) -.0053(5) 0.0113(6)
O3 O2- 0.0278(7) 0.0428(8) 0.0237(7) 0.0067(6) -.0034(6) -.0006(6)
P2 P3+ 0.0252(2) 0.0224(2) 0.0196(2) 0.0049(2) -.0016(2) 0.0066(2)
O4 O2- 0.0338(7) 0.0266(7) 0.0247(7) -.0009(6) -.0024(6) 0.0036(6)
O5 O2- 0.0413(8) 0.0258(7) 0.0302(7) 0.0064(6) -.0075(6) 0.0118(6)
O6 O2- 0.0454(9) 0.0292(7) 0.0365(8) 0.0082(6) -.0182(7) 0.0100(6)
P3 P3+ 0.0298(3) 0.0265(2) 0.0236(2) 0.0089(2) -.0009(2) 0.0088(2)
O7 O2- 0.056(1) 0.0368(8) 0.0269(7) 0.0217(7) 0.0043(7) 0.0096(6)
O8 O2- 0.0454(9) 0.058(1) 0.0356(8) 0.0276(8) 0.0112(7) 0.0288(8)
O9 O2- 0.0581(10) 0.0375(8) 0.0310(8) 0.0262(7) 0.0065(7) 0.0170(7)
#End of data_26906-ICSD


