data_50820-ICSD
#?2014 by Fachinformationszentrum Karlsruhe, and the U.S. Secretary of 
#Commerce on behalf of the United States.  All rights reserved.
_database_code_ICSD                50820
_audit_creation_date               2000/12/16
_chemical_name_systematic          'Disodium Dimanganese Selenide'
_chemical_formula_structural       'Na2 Mn2 Se3'
_chemical_formula_sum              'Mn2 Na2 Se3'
_publ_section_title
;
Synthesis and structures of new layered ternary manganese selenides: 
A Mn Se2 (A = Li, Na, Rb, Cs) and Na2 Mn2 Se3
;
loop_
_citation_id
_citation_journal_abbrev
_citation_year
_citation_journal_volume
_citation_page_first
_citation_page_last
_citation_journal_id_ASTM
primary 'Journal of Solid State Chemistry' 1999 146 217 225 JSSCBI
_publ_author_name                  'Kim, J.;Hughbanks, T.'
_cell_length_a                     15.689(2)
_cell_length_b                     13.888(2)
_cell_length_c                     7.220(1)
_cell_angle_alpha                  90.
_cell_angle_beta                   116.65(2)
_cell_angle_gamma                  90.
_cell_volume                       1406.03
_cell_formula_units_Z              8
_symmetry_space_group_name_H-M     'C 1 2/c 1'
_symmetry_Int_Tables_number        15
_refine_ls_R_factor_all            .0503
loop_
_symmetry_equiv_pos_site_id
_symmetry_equiv_pos_as_xyz
  1	'x, -y, z+.5'
  2	'-x, -y, -z'
  3	'-x, y, -z+.5'
  4	'x, y, z'
  5	'x+.5, -y+.5, z+.5'
  6	'-x+.5, -y+.5, -z'
  7	'-x+.5, y+.5, -z+.5'
  8	'x+.5, y+.5, z'
loop_
_atom_type_symbol
_atom_type_oxidation_number
Mn2+	2
Na1+	1
Se2-	-2
loop_
_atom_site_label
_atom_site_type_symbol
_atom_site_symmetry_multiplicity
_atom_site_Wyckoff_symbol
_atom_site_fract_x
_atom_site_fract_y
_atom_site_fract_z
_atom_site_occupancy
_atom_site_attached_hydrogens
Se1 Se2- 8 f 0.1452(1) 0.4242(1) 0.0655(2) 1. 0 
Se2 Se2- 8 f 0.1335(1) 0.7202(1) 0.0498(2) 1. 0 
Se3 Se2- 8 f 0.1113(1) 0.1139(1) 0.0483(2) 1. 0 
Mn1 Mn2+ 8 f 0.2110(1) 0.5766(2) 0.2943(3) 1. 0 
Mn2 Mn2+ 8 f 0.1857(2) 0.2621(2) 0.2610(4) 1. 0 
Na1 Na1+ 4 e 0 0.4298(8) 0.25 1. 0 
Na2 Na1+ 4 e 0 0.7293(6) 0.25 1. 0 
Na3 Na1+ 8 f 0.1018(5) 0.9155(5) 0.1310(9) 1. 0 

loop_
_atom_site_aniso_label
_atom_site_aniso_type_symbol
_atom_site_aniso_U_11
_atom_site_aniso_U_22
_atom_site_aniso_U_33
_atom_site_aniso_U_12
_atom_site_aniso_U_13
_atom_site_aniso_U_23
Se1 Se2- 0.027(1) 0.016(1) 0.019(1) -.001(1) 0.013(1) -.001(1)
Se2 Se2- 0.021(1) 0.022(1) 0.020(1) -.002(1) 0.012(1) -.002(1)
Se3 Se2- 0.019(1) 0.019(1) 0.034(1) 0.000(1) 0.008(1) -.002(1)
Mn1 Mn2+ 0.022(1) 0.023(1) 0.024(1) 0.000(1) 0.013(1) -.001(1)
Mn2 Mn2+ 0.023(1) 0.019(1) 0.021(1) 0.002(1) 0.010(1) 0.001(1)
Na1 Na1+ 0.027(5) 0.037(6) 0.037(5) 0 0.016(4) 0
Na2 Na1+ 0.026(5) 0.022(5) 0.025(5) 0 0.013(4) 0
Na3 Na1+ 0.054(4) 0.021(4) 0.093(5) 0.004(4) 0.042(4) 0.010(5)
#End of data_50820-ICSD


