data_414672-ICSD
#?2014 by Fachinformationszentrum Karlsruhe, and the U.S. Secretary of 
#Commerce on behalf of the United States.  All rights reserved.
_database_code_ICSD                414672
_audit_creation_date               2005/10/01
_chemical_name_systematic          'Dipotassium Heptaoxodisulfate'
_chemical_formula_structural       'K2 S2 O7'
_chemical_formula_sum              'K2 O7 S2'
_publ_section_title
;
The crystal structure determinations and refinements of K2 S2 O7, K 
Na S2 O7, and Na2 S2 O7 from X-ray powder diffraction and single-
crystal data
;
loop_
_citation_id
_citation_journal_abbrev
_citation_year
_citation_journal_volume
_citation_page_first
_citation_page_last
_citation_journal_id_ASTM
primary 'Journal of Solid State Chemistry' 2005 178 1697 1704 JSSCBI
_publ_author_name
;
Stahl, K.;Balic Zunic, T.;da Silva, F.;Eriksen, K.M.;Berg, 
R.W.;Fehrmann, R.
;
_cell_length_a                     12.3653(2)
_cell_length_b                     7.3122(1)
_cell_length_c                     7.2868(1)
_cell_angle_alpha                  90
_cell_angle_beta                   93.0792(7)
_cell_angle_gamma                  90
_cell_volume                       657.9
_cell_formula_units_Z              4
_symmetry_space_group_name_H-M     'C 1 2/c 1'
_symmetry_Int_Tables_number        15
loop_
_symmetry_equiv_pos_site_id
_symmetry_equiv_pos_as_xyz
  1	'x, -y, z+.5'
  2	'-x, -y, -z'
  3	'-x, y, -z+.5'
  4	'x, y, z'
  5	'x+.5, -y+.5, z+.5'
  6	'-x+.5, -y+.5, -z'
  7	'-x+.5, y+.5, -z+.5'
  8	'x+.5, y+.5, z'
loop_
_atom_type_symbol
_atom_type_oxidation_number
K1+	1
O2-	-2
S6+	6
loop_
_atom_site_label
_atom_site_type_symbol
_atom_site_symmetry_multiplicity
_atom_site_Wyckoff_symbol
_atom_site_fract_x
_atom_site_fract_y
_atom_site_fract_z
_atom_site_occupancy
_atom_site_attached_hydrogens
_atom_site_B_iso_or_equiv
K1 K1+ 8 f .3551(1) .6545(2) .6440(2) 1. 0 3.8(1) 
S1 S6+ 8 f .3961(2) .1838(3) .6389(3) 1. 0 3.4(1) 
O1 O2- 8 f .4390(3) .2826(6) .4921(6) 1. 0 3.1(1) 
O2 O2- 8 f .3572(3) .2950(6) .7751(6) 1. 0 3.1 
O3 O2- 8 f .3374(3) .0118(5) .5791(6) 1. 0 3.1 
O4 O2- 4 e .5 .0812(9) .75 1. 0 3.1 

#End of data_414672-ICSD


