data_78562-ICSD
#?2014 by Fachinformationszentrum Karlsruhe, and the U.S. Secretary of 
#Commerce on behalf of the United States.  All rights reserved.
_database_code_ICSD                78562
_audit_creation_date               1996/10/14
_audit_update_record               2003/04/01
_chemical_name_systematic          'Dilithium Phyllo-disilicate'
_chemical_formula_structural       'Li2 (Si2 O5)'
_chemical_formula_sum              'Li2 O5 Si2'
_publ_section_title
;
Extended structures in crystalline phyllosilicates: silica ring 
systems in lithium, rubidium, cesium, and cesium/lithium 
phyllosilicate
;
loop_
_citation_id
_citation_journal_abbrev
_citation_year
_citation_journal_volume
_citation_page_first
_citation_page_last
_citation_journal_id_ASTM
primary 'Journal of Non-Crystalline Solids' 1994 176 164 171 JNCSBJ
_publ_author_name
;
de Jong, B.H.W.S.;Slaats, P.G.G.;Super, H.T.J.;Veldman, N.;Spek, A.L.
;
_cell_length_a                     5.807(2)
_cell_length_b                     14.582(7)
_cell_length_c                     4.773(3)
_cell_angle_alpha                  90.
_cell_angle_beta                   90.
_cell_angle_gamma                  90.
_cell_volume                       404.17
_cell_formula_units_Z              4
_symmetry_space_group_name_H-M     'C c c 2'
_symmetry_Int_Tables_number        37
_refine_ls_R_factor_all            .042
loop_
_symmetry_equiv_pos_site_id
_symmetry_equiv_pos_as_xyz
  1	'x, -y, z+.5'
  2	'-x, y, z+.5'
  3	'-x, -y, z'
  4	'x, y, z'
  5	'x+.5, -y+.5, z+.5'
  6	'-x+.5, y+.5, z+.5'
  7	'-x+.5, -y+.5, z'
  8	'x+.5, y+.5, z'
loop_
_atom_type_symbol
_atom_type_oxidation_number
Li1+	1
O2-	-2
Si4+	4
loop_
_atom_site_label
_atom_site_type_symbol
_atom_site_symmetry_multiplicity
_atom_site_Wyckoff_symbol
_atom_site_fract_x
_atom_site_fract_y
_atom_site_fract_z
_atom_site_occupancy
_atom_site_attached_hydrogens
Si1 Si4+ 8 d 0.1552(3) 0.14836(12) 0.1352 1. 0 
O1 O2- 8 d 0.3295(9) 0.0718(3) 0.0491(13) 1. 0 
O2 O2- 8 d 0.0932(8) 0.1377(3) 0.4785(14) 1. 0 
O3 O2- 4 c 0.25 0.25 0.0781(18) 1. 0 
Li1 Li1+ 8 d 0.346(2) 0.0584(8) 0.625(5) 1. 0 

#End of data_78562-ICSD


