data_92866-ICSD
#?2014 by Fachinformationszentrum Karlsruhe, and the U.S. Secretary of 
#Commerce on behalf of the United States.  All rights reserved.
_database_code_ICSD                92866
_audit_creation_date               2003/04/01
_chemical_name_systematic          'Dilanthanum Calcium Decaborate'
_chemical_formula_structural       'La2 Ca (B10 O19)'
_chemical_formula_sum              'B10 Ca1 La2 O19'
_publ_section_title
;
A new lanthanum and calcium borate La2 Ca Bi10 O19
;
loop_
_citation_id
_citation_journal_abbrev
_citation_year
_citation_journal_volume
_citation_page_first
_citation_page_last
_citation_journal_id_ASTM
primary 'Chemistry of Materials' 2001 13 753 755 CMATEX
_publ_author_name
;
Wu, Y.-C.;Liu, J.-G.;Fu, P.-Z.;Wang, J.-X.;Zhou, H.-Y.;Wang, G.-
F.;Chen, C.-T.
;
_cell_length_a                     11.043(3)
_cell_length_b                     6.563(2)
_cell_length_c                     9.129(2)
_cell_angle_alpha                  90
_cell_angle_beta                   91.47
_cell_angle_gamma                  90
_cell_volume                       661.41
_cell_formula_units_Z              2
_symmetry_space_group_name_H-M     'C 1 2 1'
_symmetry_Int_Tables_number        5
_refine_ls_R_factor_all            .039
loop_
_symmetry_equiv_pos_site_id
_symmetry_equiv_pos_as_xyz
  1	'-x, y, -z'
  2	'x, y, z'
  3	'-x+.5, y+.5, -z'
  4	'x+.5, y+.5, z'
loop_
_atom_type_symbol
_atom_type_oxidation_number
B3+	3
Ca2+	2
La3+	3
O2-	-2
loop_
_atom_site_label
_atom_site_type_symbol
_atom_site_symmetry_multiplicity
_atom_site_Wyckoff_symbol
_atom_site_fract_x
_atom_site_fract_y
_atom_site_fract_z
_atom_site_occupancy
_atom_site_attached_hydrogens
_atom_site_U_iso_or_equiv
La1 La3+ 4 c 0.1624(1) 0 0.1405(1) 1. 0 0.006(1) 
Ca1 Ca2+ 2 b 0 0.8145(2) 0.5 1. 0 0.007(1) 
O1 O2- 2 a 0 0.7650(9) 0 1. 0 0.006(1) 
O2 O2- 4 c 0.3884(3) -0.0231(6) 0.1124(4) 1. 0 0.006(1) 
O3 O2- 4 c 0.3218(3) 0.3112(6) 0.1359(4) 1. 0 0.007(1) 
O4 O2- 4 c -0.0714(3) 0.1234(6) 0.1319(4) 1. 0 0.007(1) 
O5 O2- 4 c 0.2158(3) 0.6255(6) 0.1790(4) 1. 0 0.005(1) 
O6 O2- 4 c 0.0722(3) 0.3528(6) 0.2213(5) 1. 0 0.009(1) 
O7 O2- 4 c 0.0157(3) 0.7095(6) 0.2537(4) 1. 0 0.006(1) 
O8 O2- 4 c 0.1939(3) -0.0004(12) 0.3903(3) 1. 0 0.011(1) 
O9 O2- 4 c 0.8518(3) 0.5536(7) 0.5732(4) 1. 0 0.008(1) 
O10 O2- 4 c 0.1456(3) -0.0008(15) 0.6372(3) 1. 0 0.009(1) 
B1 B3+ 4 c 0.4326(5) 0.1919(10) 0.1249(6) 1. 0 0.007(1) 
B2 B3+ 4 c -0.0397(5) 0.3219(9) 0.1608(6) 1. 0 0.006(1) 
B3 B3+ 4 c 0.3272(4) 0.5116(14) 0.2072(5) 1. 0 0.006(1) 
B4 B3+ 4 c 0.1142(4) 0.5594(9) 0.2688(6) 1. 0 0.006(1) 
B5 B3+ 4 c 0.2327(5) 0.0212(12) 0.5289(5) 1. 0 0.008(1) 

loop_
_atom_site_aniso_label
_atom_site_aniso_type_symbol
_atom_site_aniso_U_11
_atom_site_aniso_U_22
_atom_site_aniso_U_33
_atom_site_aniso_U_12
_atom_site_aniso_U_13
_atom_site_aniso_U_23
La1 La3+ 0.007(1) 0.006(1) 0.005(1) 0.001(1) 0.000(1) 0.000(1)
Ca1 Ca2+ 0.008(1) 0.010(1) 0.004(1) 0. 0.000(1) 0.
O1 O2- 0.007(2) 0.007(2) 0.004(2) 0. 0.003(1) 0.
O2 O2- 0.006(1) 0.004(2) 0.009(1) 0.001(1) 0.000(1) -0.001(1)
O3 O2- 0.007(1) 0.004(1) 0.008(1) 0.000(1) 0.001(1) 0.001(1)
O4 O2- 0.008(1) 0.004(1) 0.010(1) -0.002(1) 0.003(1) 0.000(1)
O5 O2- 0.006(1) 0.006(1) 0.005(1) 0.000(1) 0.001(1) -0.001(1)
O6 O2- 0.008(1) 0.006(1) 0.012(1) 0.001(1) -0.001(1) -0.002(1)
O7 O2- 0.006(1) 0.007(1) 0.005(1) 0.001(1) -0.001(1) -0.002(1)
O8 O2- 0.014(1) 0.015(1) 0.004(1) 0.002(2) -0.003(1) -0.004(2)
O9 O2- 0.009(1) 0.011(1) 0.006(1) -0.002(1) 0.002(1) 0.000(1)
O10 O2- 0.009(1) 0.014(1) 0.005(1) -0.007(2) 0.001(1) 0.000(2)
B1 B3+ 0.005(2) 0.008(2) 0.007(2) 0.000(2) 0.001(1) -0.003(2)
B2 B3+ 0.005(2) 0.005(2) 0.009(2) 0.002(2) 0.003(1) 0.003(2)
B3 B3+ 0.006(1) 0.005(2) 0.007(1) 0.005(2) 0.000(1) -0.002(2)
B4 B3+ 0.005(2) 0.004(1) 0.008(2) 0.001(1) 0.001(1) 0.000(1)
B5 B3+ 0.010(2) 0.009(3) 0.003(1) -0.004(2) -0.002(1) 0.001(2)
#End of data_92866-ICSD


