data_36651-ICSD
#?2014 by Fachinformationszentrum Karlsruhe, and the U.S. Secretary of 
#Commerce on behalf of the United States.  All rights reserved.
_database_code_ICSD                36651
_audit_creation_date               1993/01/06
_audit_update_record               1995/01/10
_chemical_name_systematic          'Potassium Gallium Oxide'
_chemical_formula_structural       'K Ga O2'
_chemical_formula_sum              'Ga1 K1 O2'
_publ_section_title
;
Zur Kristallstruktur von KGaO2 und NaGaO2(II)
;
loop_
_citation_id
_citation_journal_abbrev
_citation_year
_citation_journal_volume
_citation_page_first
_citation_page_last
_citation_journal_id_ASTM
primary 'Zeitschrift fuer Anorganische und Allgemeine Chemie (1950) (DE)'
 1992 611 73 80 ZAACAB
_publ_author_name                  'Mueller, H.;Hoppe, R.'
_cell_length_a                     5.521
_cell_length_b                     11.075
_cell_length_c                     15.807
_cell_angle_alpha                  90.
_cell_angle_beta                   90.
_cell_angle_gamma                  90.
_cell_volume                       966.52
_cell_formula_units_Z              16
_symmetry_space_group_name_H-M     'P b c a'
_symmetry_Int_Tables_number        61
_refine_ls_R_factor_all            .0305
loop_
_symmetry_equiv_pos_site_id
_symmetry_equiv_pos_as_xyz
  1	'x+.5, y, -z+.5'
  2	'x, -y+.5, z+.5'
  3	'-x+.5, y+.5, z'
  4	'-x, -y, -z'
  5	'-x+.5, -y, z+.5'
  6	'-x, y+.5, -z+.5'
  7	'x+.5, -y+.5, -z'
  8	'x, y, z'
loop_
_atom_type_symbol
_atom_type_oxidation_number
Ga3+	3
K1+	1
O2-	-2
loop_
_atom_site_label
_atom_site_type_symbol
_atom_site_symmetry_multiplicity
_atom_site_Wyckoff_symbol
_atom_site_fract_x
_atom_site_fract_y
_atom_site_fract_z
_atom_site_occupancy
_atom_site_attached_hydrogens
K1 K1+ 8 c 0.2568(2) 0.4857(1) 0.9388(1) 1. 0 
K2 K1+ 8 c 0.8010(2) 0.2646(1) 0.1837(1) 1. 0 
Ga1 Ga3+ 8 c 0.2613(1) 0.0094 0.1889 1. 0 
Ga2 Ga3+ 8 c 0.2829(1) 0.2635 0.0643 1. 0 
O1 O2- 8 c 0.4257(7) 0.7006(3) 0.9858(2) 1. 0 
O2 O2- 8 c 0.3434(6) 0.9086(3) 0.1015(2) 1. 0 
O3 O2- 8 c 0.3248(7) 0.1656(3) 0.1566(2) 1. 0 
O4 O2- 8 c 0.4401(6) 0.9809(3) 0.2847(2) 1. 0 

loop_
_atom_site_aniso_label
_atom_site_aniso_type_symbol
_atom_site_aniso_U_11
_atom_site_aniso_U_22
_atom_site_aniso_U_33
_atom_site_aniso_U_12
_atom_site_aniso_U_13
_atom_site_aniso_U_23
K1 K1+ 0.0162(7) 0.0196(5) 0.0150(6) 0.0028(4) 0.0002(4) 0.0039(5)
K2 K1+ 0.0150(5) 0.0198(6) 0.0183(6) -.0006(5) 0.0016(5) 0.0023(5)
Ga1 Ga3+ 0.0058(3) 0.0087(3) 0.0071(3) 0.0004(2) 0.0000(2) 0.0001(2)
Ga2 Ga3+ 0.0054(3) 0.0085(2) 0.0076(3) -.0002(2) 0.0002(2) -.0007(2)
O1 O2- 0.0117(19) 0.0212(20) 0.0232(21) -.0057(15) 0.0096(16) -.0086(17)
O2 O2- 0.0116(18) 0.0105(17) 0.0123(19) -.0006(13) 0.0028(14) -.0045(14)
O3 O2- 0.0267(22) 0.0113(18) 0.0142(20) 0.0004(15) -.0035(16) 0.0016(16)
O4 O2- 0.0047(17) 0.0256(21) 0.0099(18) 0.0000(14) -.0008(14) 0.0037(16)
#End of data_36651-ICSD


