data_20418-ICSD
#?2014 by Fachinformationszentrum Karlsruhe, and the U.S. Secretary of 
#Commerce on behalf of the United States.  All rights reserved.
_database_code_ICSD                20418
_audit_creation_date               1982/12/31
_audit_update_record               2007/08/01
_chemical_name_systematic          'Magnesium Molybdate'
_chemical_formula_structural       'Mg (Mo O4)'
_chemical_formula_sum              'Mg1 Mo1 O4'
_publ_section_title
;
Crystal structure of magnesium molybdate Mg Mo O4 -an example of 
modified closest packing with two types of tetrahedra.
;
loop_
_citation_id
_citation_journal_abbrev
_citation_year
_citation_journal_volume
_citation_page_first
_citation_page_last
_citation_journal_id_ASTM
primary Kristallografiya 1982 27 38 42 KRISAJ
2 'Soviet Physics, Crystallography (= Kristallografiya)'
 1982 27 20 22 SPHCA6
3 'Golden Book of Phase Transitions, Wroclaw' 2002 1 1 123 GBOPT5
_publ_author_name
;
Bakakin, V.V.;Klevtsova, R.F.;Gaponenko, L.A.
;
_cell_length_a                     10.273(3)
_cell_length_b                     9.288(3)
_cell_length_c                     7.025(2)
_cell_angle_alpha                  90.
_cell_angle_beta                   106.96
_cell_angle_gamma                  90.
_cell_volume                       641.14
_cell_formula_units_Z              8
_symmetry_space_group_name_H-M     'C 1 2/m 1'
_symmetry_Int_Tables_number        12
_refine_ls_R_factor_all            .053
loop_
_symmetry_equiv_pos_site_id
_symmetry_equiv_pos_as_xyz
  1	'-x, y, -z'
  2	'-x, -y, -z'
  3	'x, -y, z'
  4	'x, y, z'
  5	'-x+.5, y+.5, -z'
  6	'-x+.5, -y+.5, -z'
  7	'x+.5, -y+.5, z'
  8	'x+.5, y+.5, z'
loop_
_atom_type_symbol
_atom_type_oxidation_number
Mg2+	2
Mo6+	6
O2-	-2
loop_
_atom_site_label
_atom_site_type_symbol
_atom_site_symmetry_multiplicity
_atom_site_Wyckoff_symbol
_atom_site_fract_x
_atom_site_fract_y
_atom_site_fract_z
_atom_site_occupancy
_atom_site_attached_hydrogens
_atom_site_B_iso_or_equiv
Mo1 Mo6+ 4 h 0.5 0.251 0.5 1. 0 0.27 
Mo2 Mo6+ 4 i 0.7291 0.5 0.0957 1. 0 0.42 
Mg1 Mg2+ 4 g 0.5 0.1784(1) 0 1. 0 0.36 
Mg2 Mg2+ 4 i 0.7996(1) 0.5 0.6431(2) 1. 0 0.3 
O1 O2- 8 j 0.5415(2) 0.1533(2) 0.3040(3) 1. 0 0.48 
O2 O2- 8 j 0.3587(2) 0.3561(3) 0.3912(4) 1. 0 1.08 
O3 O2- 4 i 0.8587(2) 0.5 -.0391 1. 0 0.51 
O4 O2- 8 j 0.6337(3) 0.3448(3) 0.0283(4) 1. 0 1.23 
O5 O2- 4 i 0.2983(4) 0 0.3551(5) 1. 0 1.47 

#End of data_20418-ICSD


