data_34945-ICSD
#?2014 by Fachinformationszentrum Karlsruhe, and the U.S. Secretary of 
#Commerce on behalf of the United States.  All rights reserved.
_database_code_ICSD                34945
_audit_creation_date               1980/01/01
_audit_update_record               2007/08/01
_chemical_name_systematic
;
Hydrogen Sodium Dicalcium Catena-trisilicate
;
_chemical_formula_structural       'H Na Ca2 (Si3 O9)'
_chemical_formula_sum              'H1 Ca2 Na1 O9 Si3'
_chemical_name_mineral             'Pectolite 1A'
_publ_section_title
;
Hydrogen bonding and cation ordering in Magnet Cove pectolite
;
loop_
_citation_id
_citation_journal_abbrev
_citation_year
_citation_journal_volume
_citation_page_first
_citation_page_last
_citation_journal_id_ASTM
primary
;
Zeitschrift fuer Kristallographie, Kristallgeometrie, Kristallphysik, 
Kristallchemie (145,1977-148,1979)
;
 1977 146 281 292 ZKKKAJ
_publ_author_name                  'Takeuchi, Y.;Kudoh, Y.'
_cell_length_a                     7.980(1)
_cell_length_b                     7.023(1)
_cell_length_c                     7.018(1)
_cell_angle_alpha                  90.54(1)
_cell_angle_beta                   95.14(1)
_cell_angle_gamma                  102.55(1)
_cell_volume                       382.2
_cell_formula_units_Z              2
_symmetry_space_group_name_H-M     'P -1'
_symmetry_Int_Tables_number        2
_refine_ls_R_factor_all            .0214
loop_
_symmetry_equiv_pos_site_id
_symmetry_equiv_pos_as_xyz
  1	'-x, -y, -z'
  2	'x, y, z'
loop_
_atom_type_symbol
_atom_type_oxidation_number
Ca2+	2
H1+	1
Na1+	1
O2-	-2
Si4+	4
loop_
_atom_site_label
_atom_site_type_symbol
_atom_site_symmetry_multiplicity
_atom_site_Wyckoff_symbol
_atom_site_fract_x
_atom_site_fract_y
_atom_site_fract_z
_atom_site_occupancy
_atom_site_attached_hydrogens
_atom_site_B_iso_or_equiv
Ca1 Ca2+ 2 i 0.85456(3) 0.59362(3) 0.14512(3) 1. 0 0 
Ca2 Ca2+ 2 i 0.84713(3) 0.08396(3) 0.14025(3) 1. 0 0 
Na1 Na1+ 2 i 0.55282(7) 0.2591(1) 0.3439(1) 1. 0 0 
H1 H1+ 2 i 0.178(5) 0.645(5) 0.527(5) 1. 0 5.82 
Si1 Si4+ 2 i 0.21853(4) 0.40197(5) 0.33746(5) 1. 0 0 
Si2 Si4+ 2 i 0.21472(4) 0.95470(5) 0.34448(5) 1. 0 0 
Si3 Si4+ 2 i 0.45065(4) 0.73600(5) 0.14444(5) 1. 0 0 
O1 O2- 2 i 0.6534(1) 0.7883(1) 0.1267(1) 1. 0 0 
O2 O2- 2 i 0.3300(1) 0.7053(1) -.0545(1) 1. 0 0 
O3 O2- 2 i 0.1864(1) 0.4969(1) 0.5396(1) 1. 0 0 
O4 O2- 2 i 0.1766(1) 0.8465(1) 0.5417(1) 1. 0 0 
O5 O2- 2 i 0.0632(1) 0.3863(1) 0.1731(1) 1. 0 0 
O6 O2- 2 i 0.0602(1) 0.8966(1) 0.1772(1) 1. 0 0 
O7 O2- 2 i 0.3997(1) 0.5348(1) 0.2714(1) 1. 0 0 
O8 O2- 2 i 0.3951(1) 0.9091(1) 0.2754(1) 1. 0 0 
O9 O2- 2 i 0.2640(1) 0.1916(1) 0.3856(1) 1. 0 0 

#End of data_34945-ICSD


