data_26209-ICSD
#?2014 by Fachinformationszentrum Karlsruhe, and the U.S. Secretary of 
#Commerce on behalf of the United States.  All rights reserved.
_database_code_ICSD                26209
_audit_creation_date               1980/01/01
_audit_update_record               1997/11/10
_chemical_name_systematic
;
Sodium Iron Boron Alumosilicate Fluoride *
;
_chemical_formula_structural       'Na Fe3 B3 Al6 Si6 O30 F'
_chemical_formula_sum              'Al6 B3 F1 Fe3 Na1 O30 Si6'
_chemical_name_mineral             Buergerite
_publ_section_title
;
Refinement of the Crystal Structure of Buergerite and the Absolute 
Orientation of Tourmalines
;
loop_
_citation_id
_citation_journal_abbrev
_citation_year
_citation_journal_volume
_citation_page_first
_citation_page_last
_citation_journal_id_ASTM
primary 'Acta Crystallographica B (24,1968-38,1982)' 1969 25 1524 1533 ACBCAR
_publ_author_name                  'Barton, R.jr.'
_cell_length_a                     15.869(2)
_cell_length_b                     15.869(2)
_cell_length_c                     7.188(1)
_cell_angle_alpha                  90.
_cell_angle_beta                   90.
_cell_angle_gamma                  120.
_cell_volume                       1567.61
_cell_formula_units_Z              3
_symmetry_space_group_name_H-M     'R 3 m H'
_symmetry_Int_Tables_number        160
_refine_ls_R_factor_all            .046
loop_
_symmetry_equiv_pos_site_id
_symmetry_equiv_pos_as_xyz
  1	'-x+y, y, z'
  2	'x, x-y, z'
  3	'-y, -x, z'
  4	'-x+y, -x, z'
  5	'-y, x-y, z'
  6	'x, y, z'
  7	'-x+y+.6666, y+.3333, z+.3333'
  8	'-x+y+.3333, y+.6666, z+.6666'
  9	'x+.6666, x-y+.3333, z+.3333'
 10	'x+.3333, x-y+.6666, z+.6666'
 11	'-y+.6666, -x+.3333, z+.3333'
 12	'-y+.3333, -x+.6666, z+.6666'
 13	'-x+y+.6666, -x+.3333, z+.3333'
 14	'-x+y+.3333, -x+.6666, z+.6666'
 15	'-y+.6666, x-y+.3333, z+.3333'
 16	'-y+.3333, x-y+.6666, z+.6666'
 17	'x+.6666, y+.3333, z+.3333'
 18	'x+.3333, y+.6666, z+.6666'
loop_
_atom_type_symbol
_atom_type_oxidation_number
Al3+	3
B3+	3
F1-	-1
Fe3+	3
Na1+	1
O2-	-2
Si4+	4
loop_
_atom_site_label
_atom_site_type_symbol
_atom_site_symmetry_multiplicity
_atom_site_Wyckoff_symbol
_atom_site_fract_x
_atom_site_fract_y
_atom_site_fract_z
_atom_site_occupancy
_atom_site_attached_hydrogens
Na1 Na1+ 3 a 0 0 0.21338(41) 1. 0 
B1 B3+ 9 b 0.10992(25) 0.21984(50) 0.45182(46) 1. 0 
Fe1 Fe3+ 9 b 0.13320(8) 0.06660(4) 0.62072(10) 1. 0 
Si1 Si4+ 18 c 0.19156(4) 0.19065(4) 0 1. 0 
Al1 Al3+ 18 c 0.29880(4) 0.25887(4) 0.60437(10) 1. 0 
F1 F1- 3 a 0 0 0.76698(51) 1. 0 
O1 O2- 9 b 0.06056(15) 0.12112(29) 0.48607(29) 1. 0 
O2 O2- 9 b 0.26450(34) 0.13225(17) 0.52094(30) 1. 0 
O3 O2- 9 b 0.09478(15) 0.18956(30) 0.07532(28) 1. 0 
O4 O2- 9 b 0.18258(33) 0.09129(16) 0.08388(28) 1. 0 
O5 O2- 18 c 0.19314(11) 0.18680(11) 0.77481(18) 1. 0 
O6 O2- 18 c 0.2867(1) 0.2858(1) 0.07445(18) 1. 0 
O7 O2- 18 c 0.20894(10) 0.26941(10) 0.43778(20) 1. 0 

#End of data_26209-ICSD


