data_201625-ICSD
#?2014 by Fachinformationszentrum Karlsruhe, and the U.S. Secretary of 
#Commerce on behalf of the United States.  All rights reserved.
_database_code_ICSD                201625
_audit_creation_date               1985/07/17
_audit_update_record               2012/02/01
_chemical_name_systematic
;
Dicopper (i) Zinc Disulfite Dihydrate
;
_chemical_formula_structural       'Cu2 Zn (S O3)2 (H2 O)2'
_chemical_formula_sum              'H4 Cu2 O8 S2 Zn1'
_publ_section_title
;
Nouveaux sulfites doubles Cu(I)2 M(II) (S O3)2 (H2 O)2. M(II) = 
Mg(2+), Mn(2+), Fe(2+), Co(2+), Ni(2+) Zn(2+), ou Cd(2+). Structure 
de Cu2 Zn (S O3)2 (H2 O)2
;
loop_
_citation_id
_citation_journal_abbrev
_citation_year
_citation_journal_volume
_citation_page_first
_citation_page_last
_citation_journal_id_ASTM
primary 'Revue de Chimie Minerale' 1984 21 701 709 RVCMA8
_publ_author_name
;
Sghyar, M.;Durand, J.;Miguel, A.H.;Cot, L.
;
_cell_length_a                     5.665(2)
_cell_length_b                     7.810(3)
_cell_length_c                     8.031(3)
_cell_angle_alpha                  90.
_cell_angle_beta                   92.82(1)
_cell_angle_gamma                  90.
_cell_volume                       354.89
_cell_formula_units_Z              2
_symmetry_space_group_name_H-M     'P 1 21/n 1'
_symmetry_Int_Tables_number        14
_refine_ls_R_factor_all            .033
loop_
_symmetry_equiv_pos_site_id
_symmetry_equiv_pos_as_xyz
  1	'-x+.5, y+.5, -z+.5'
  2	'-x, -y, -z'
  3	'x+.5, -y+.5, z+.5'
  4	'x, y, z'
loop_
_atom_type_symbol
_atom_type_oxidation_number
Cu1+	1
H1+	1
O2-	-2
S4+	4
Zn2+	2
loop_
_atom_site_label
_atom_site_type_symbol
_atom_site_symmetry_multiplicity
_atom_site_Wyckoff_symbol
_atom_site_fract_x
_atom_site_fract_y
_atom_site_fract_z
_atom_site_occupancy
_atom_site_attached_hydrogens
_atom_site_B_iso_or_equiv
Cu1 Cu1+ 4 e 0.2556(2) 0.1221(2) 0.4564(1) 1. 0 0 
Zn1 Zn2+ 2 a 0 0 0 1. 0 0 
S1 S4+ 4 e 0.2641(3) 0.3659(3) 0.1371(2) 1. 0 0 
O1 O2- 4 e 0.2757(9) 0.3617(8) 0.3266(7) 1. 0 0 
O2 O2- 4 e 0.0493(10) 0.2573(8) 0.0880(7) 1. 0 0 
O3 O2- 4 e 0.4735(10) 0.2669(8) 0.0789(7) 1. 0 0 
O4 O2- 4 e 0.2711(10) 0.0122(9) 0.8411(7) 1. 0 0 
H1 H1+ 4 e 0.263(30) 0.990(25) 0.742(19) 1. 0 4. 
H2 H1+ 4 e 0.308(23) 0.101(18) 0.910(16) 1. 0 4. 

#End of data_201625-ICSD


