data_34354-ICSD
#?2014 by Fachinformationszentrum Karlsruhe, and the U.S. Secretary of 
#Commerce on behalf of the United States.  All rights reserved.
_database_code_ICSD                34354
_audit_creation_date               1980/01/01
_audit_update_record               2014/08/01
_chemical_name_systematic          'Calcium Silicate Trisilicate'
_chemical_formula_structural       'Ca6 (Si O4) (Si3 O10)'
_chemical_formula_sum              'Ca6 O14 Si4'
_chemical_name_mineral             Kilchoanite
_publ_section_title
;
The crystal structure of Kilchoanite, Ca6 (Si O4) (Si3 O10), with 
some comments on related phases
;
loop_
_citation_id
_citation_journal_abbrev
_citation_year
_citation_journal_volume
_citation_page_first
_citation_page_last
_citation_journal_id_ASTM
primary 'Mineralogical Magazine (1969-)' 1971 38 26 31 MNLMBB
_publ_author_name                  'Taylor, H.F.W.'
_cell_length_a                     11.42
_cell_length_b                     5.09
_cell_length_c                     21.95
_cell_angle_alpha                  90.
_cell_angle_beta                   90.
_cell_angle_gamma                  90.
_cell_volume                       1275.91
_cell_formula_units_Z              4
_symmetry_space_group_name_H-M     'I 2 c m'
_symmetry_Int_Tables_number        46
_refine_ls_R_factor_all            .089
loop_
_symmetry_equiv_pos_site_id
_symmetry_equiv_pos_as_xyz
  1	'x, -y, z+.5'
  2	'x, y, -z+.5'
  3	'x, -y, -z'
  4	'x, y, z'
  5	'x+.5, -y+.5, z'
  6	'x+.5, y+.5, -z'
  7	'x+.5, -y+.5, -z+.5'
  8	'x+.5, y+.5, z+.5'
loop_
_atom_type_symbol
_atom_type_oxidation_number
Ca2+	2
O2-	-2
Si4+	4
loop_
_atom_site_label
_atom_site_type_symbol
_atom_site_symmetry_multiplicity
_atom_site_Wyckoff_symbol
_atom_site_fract_x
_atom_site_fract_y
_atom_site_fract_z
_atom_site_occupancy
_atom_site_attached_hydrogens
_atom_site_B_iso_or_equiv
Ca1 Ca2+ 4 a 0.9866(8) 0 0 1. 0 1.7(2) 
Ca2 Ca2+ 4 b 0.2860(8) 0.003(2) 0.25 1. 0 1.3(2) 
Ca3 Ca2+ 8 c 0.0107(6) 0.005(1) 0.1679(3) 1. 0 1.2(1) 
Ca4 Ca2+ 8 c 0.2177(6) 0.501(1) 0.1040(2) 1. 0 1.0(1) 
Si1 Si4+ 4 b 0.097(1) 0.426(3) 0.25 1. 0 1.3(2) 
Si2 Si4+ 8 c 0.408(1) 0.940(2) 0.0997(3) 1. 0 1.0(1) 
Si3 Si4+ 4 a 0.240(1) 0 0 1. 0 1.4(2) 
O1 O2- 8 c 0.164(2) 0.297(4) 0.1919(8) 1. 0 1.2(4) 
O2 O2- 4 b 0.967(3) 0.293(7) 0.25 1. 0 2.1(6) 
O3 O2- 4 b 0.098(2) 0.759(6) 0.25 1. 0 0.9(5) 
O4 O2- 8 c 0.346(2) 0.793(4) 0.1584(8) 1. 0 1.2(4) 
O5 O2- 8 c 0.035(2) 0.707(4) 0.0919(7) 1. 0 1.3(4) 
O6 O2- 8 c 0.334(2) 0.802(5) 0.0402(8) 1. 0 2.1(4) 
O7 O2- 8 c 0.404(2) 0.255(4) 0.0954(7) 1. 0 0.6(3) 
O8 O2- 8 c 0.160(2) 0.179(4) 0.0412(9) 1. 0 1.9(4) 

#End of data_34354-ICSD


