data_158733-ICSD
#?2014 by Fachinformationszentrum Karlsruhe, and the U.S. Secretary of 
#Commerce on behalf of the United States.  All rights reserved.
_database_code_ICSD                158733
_audit_creation_date               2008/08/01
_chemical_name_systematic
;
Dipotassium Dimanganese Tris(sulfate(VI)) - Rt
;
_chemical_formula_structural       'K2 Mn2 (S O4)3'
_chemical_formula_sum              'K2 Mn2 O12 S3'
_chemical_name_mineral             Unnamed_Langbeinite
_publ_section_title
;
The magnetic structure of the langbeinite K2 Mn2 (S O4)3
;
loop_
_citation_id
_citation_journal_abbrev
_citation_year
_citation_journal_volume
_citation_page_first
_citation_page_last
_citation_journal_id_ASTM
primary 'Physics and Chemistry of Minerals' 1988 16 246 249 PCMIDU
_publ_author_name
;
Oelkrug, H.;Brueckel, T.;Hohlwein, D.;Hoser, A.;Prandl, W.
;
_cell_length_a                     10.1073(13)
_cell_length_b                     10.1073(13)
_cell_length_c                     10.1073(13)
_cell_angle_alpha                  90.
_cell_angle_beta                   90.
_cell_angle_gamma                  90.
_cell_volume                       1032.54
_cell_formula_units_Z              4
_symmetry_space_group_name_H-M     'P 21 3'
_symmetry_Int_Tables_number        198
_refine_ls_R_factor_all            .043
loop_
_symmetry_equiv_pos_site_id
_symmetry_equiv_pos_as_xyz
  1	'-z+.5, -x, y+.5'
  2	'-y+.5, -z, x+.5'
  3	'-x+.5, -y, z+.5'
  4	'-z, x+.5, -y+.5'
  5	'-y, z+.5, -x+.5'
  6	'-x, y+.5, -z+.5'
  7	'z+.5, -x+.5, -y'
  8	'y+.5, -z+.5, -x'
  9	'x+.5, -y+.5, -z'
 10	'z, x, y'
 11	'y, z, x'
 12	'x, y, z'
loop_
_atom_type_symbol
_atom_type_oxidation_number
K1+	1
Mn2+	2
O2-	-2
S6+	6
loop_
_atom_site_label
_atom_site_type_symbol
_atom_site_symmetry_multiplicity
_atom_site_Wyckoff_symbol
_atom_site_fract_x
_atom_site_fract_y
_atom_site_fract_z
_atom_site_occupancy
_atom_site_attached_hydrogens
_atom_site_B_iso_or_equiv
K1 K1+ 4 a 0.8065(15) 0.8065(15) 0.8065(15) 1. 0 2.9(8) 
K2 K1+ 4 a 0.0515(19) 0.0515(19) 0.0515(19) 1. 0 4.6(10) 
Mn1 Mn2+ 4 a 0.3299(96) 0.3299(96) 0.3299(96) 1. 0 -2.3(2) 
Mn2 Mn2+ 4 a 0.5983(19) 0.5983(19) 0.5983(19) 1. 0 3.5(9) 
S1 S6+ 12 b 0.2198(20) 0.3799(29) 0.0136(26) 1. 0 2.5(4) 
O1 O2- 12 b 0.3010(11) 0.2694(15) 0.9575(12) 1. 0 3.6(4) 
O2 O2- 12 b 0.0838(12) 0.3350(12) 0.0061(10) 1. 0 3.4(3) 
O3 O2- 12 b 0.2308(10) 0.4909(12) 0.9280(11) 1. 0 3.1(3) 
O4 O2- 12 b 0.2609(12) 0.4147(12) 0.1473(13) 1. 0 2.4(3) 

#End of data_158733-ICSD


