data_16239-ICSD
#?2014 by Fachinformationszentrum Karlsruhe, and the U.S. Secretary of 
#Commerce on behalf of the United States.  All rights reserved.
_database_code_ICSD                16239
_audit_creation_date               1980/01/01
_audit_update_record               2012/08/01
_chemical_name_systematic          'Potassium Dioxobismuthate(III)'
_chemical_formula_structural       'K (Bi O2)'
_chemical_formula_sum              'Bi1 K1 O2'
_publ_section_title
;
Die Kristallstruktur von K Bi O2 sowie zur Kenntnis von Rb Bi O2 und 
Cs Bi O2
;
loop_
_citation_id
_citation_journal_abbrev
_citation_year
_citation_journal_volume
_citation_page_first
_citation_page_last
_citation_journal_id_ASTM
primary 'Zeitschrift fuer Anorganische und Allgemeine Chemie (1950) (DE)'
 1972 392 97 106 ZAACAB
_publ_author_name                  'Schwedes, B.;Hoppe, R.'
_cell_length_a                     7.826
_cell_length_b                     7.898
_cell_length_c                     5.972
_cell_angle_alpha                  90.
_cell_angle_beta                   124.9
_cell_angle_gamma                  90.
_cell_volume                       302.74
_cell_formula_units_Z              4
_symmetry_space_group_name_H-M     'C 1 2/c 1'
_symmetry_Int_Tables_number        15
_refine_ls_R_factor_all            .107
loop_
_symmetry_equiv_pos_site_id
_symmetry_equiv_pos_as_xyz
  1	'x, -y, z+.5'
  2	'-x, -y, -z'
  3	'-x, y, -z+.5'
  4	'x, y, z'
  5	'x+.5, -y+.5, z+.5'
  6	'-x+.5, -y+.5, -z'
  7	'-x+.5, y+.5, -z+.5'
  8	'x+.5, y+.5, z'
loop_
_atom_type_symbol
_atom_type_oxidation_number
Bi3+	3
K1+	1
O2-	-2
loop_
_atom_site_label
_atom_site_type_symbol
_atom_site_symmetry_multiplicity
_atom_site_Wyckoff_symbol
_atom_site_fract_x
_atom_site_fract_y
_atom_site_fract_z
_atom_site_occupancy
_atom_site_attached_hydrogens
_atom_site_B_iso_or_equiv
Bi1 Bi3+ 4 e 0 0.1447(1) 0.25 1. 0 0.1 
K1 K1+ 4 e 0 0.6166(5) 0.25 1. 0 1.21 
O1 O2- 8 f 0.222(2) 0.316(2) 0.274(3) 1. 0 0.46 

#End of data_16239-ICSD


