data_72389-ICSD
#?2014 by Fachinformationszentrum Karlsruhe, and the U.S. Secretary of 
#Commerce on behalf of the United States.  All rights reserved.
_database_code_ICSD                72389
_audit_creation_date               1994/01/19
_audit_update_record               2008/02/01
_chemical_name_systematic          'Dicalcium Dinitridoferrate(II)'
_chemical_formula_structural       'Ca2 (Fe N2)'
_chemical_formula_sum              'Ca2 Fe1 N2'
_publ_section_title
;
Ca2 (Fe N2) und Sr2 (Fe N2): Nitridoferrate(II) mit isolierten 
Anionen (Fe2 N4)(8-) und (Fe N2)(4-)
;
loop_
_citation_id
_citation_journal_abbrev
_citation_year
_citation_journal_volume
_citation_page_first
_citation_page_last
_citation_journal_id_ASTM
primary 'Zeitschrift fuer Naturforschung, B: Chemical Sciences'
 1992 47 477 481 ZNBSEN
_publ_author_name                  'Hoehn, P.;Kniep, R.'
_cell_length_a                     10.930(2)
_cell_length_b                     4.960(1)
_cell_length_c                     6.844(1)
_cell_angle_alpha                  90.
_cell_angle_beta                   121.09(1)
_cell_angle_gamma                  90.
_cell_volume                       317.74
_cell_formula_units_Z              4
_symmetry_space_group_name_H-M     'C 1 2/m 1'
_symmetry_Int_Tables_number        12
_refine_ls_R_factor_all            .036
loop_
_symmetry_equiv_pos_site_id
_symmetry_equiv_pos_as_xyz
  1	'-x, y, -z'
  2	'-x, -y, -z'
  3	'x, -y, z'
  4	'x, y, z'
  5	'-x+.5, y+.5, -z'
  6	'-x+.5, -y+.5, -z'
  7	'x+.5, -y+.5, z'
  8	'x+.5, y+.5, z'
loop_
_atom_type_symbol
_atom_type_oxidation_number
Ca2+	2
Fe2+	2
N3-	-3
loop_
_atom_site_label
_atom_site_type_symbol
_atom_site_symmetry_multiplicity
_atom_site_Wyckoff_symbol
_atom_site_fract_x
_atom_site_fract_y
_atom_site_fract_z
_atom_site_occupancy
_atom_site_attached_hydrogens
Fe1 Fe2+ 4 i 0.3722(1) 0 0.8751(1) 1. 0 
Ca1 Ca2+ 4 i 0.0397(1) 0 0.7657(2) 1. 0 
Ca2 Ca2+ 4 i 0.3218(1) 0 0.4066(2) 1. 0 
N1 N3- 4 i 0.4773(5) 0 0.1958(7) 1. 0 
N2 N3- 4 i 0.1874(5) 0 0.6130(7) 1. 0 

loop_
_atom_site_aniso_label
_atom_site_aniso_type_symbol
_atom_site_aniso_U_11
_atom_site_aniso_U_22
_atom_site_aniso_U_33
_atom_site_aniso_U_12
_atom_site_aniso_U_13
_atom_site_aniso_U_23
Fe1 Fe2+ 0.0048(3) 0.0061(3) 0.0021(3) 0 -.0001(3) 0
Ca1 Ca2+ 0.0087(5) 0.0064(4) 0.0046(4) 0 0.0028(4) 0
Ca2 Ca2+ 0.0073(5) 0.0060(4) 0.0041(4) 0 0.0011(4) 0
N1 N3- 0.0108(21) 0.0047(16) 0.0013(15) 0 -.0005(16) 0
N2 N3- 0.0051(19) 0.0061(17) 0.0042(16) 0 0.0005(16) 0
#End of data_72389-ICSD


