data_170771-ICSD
#?2014 by Fachinformationszentrum Karlsruhe, and the U.S. Secretary of 
#Commerce on behalf of the United States.  All rights reserved.
_database_code_ICSD                170771
_audit_creation_date               2006/04/01
_chemical_name_systematic          'Dirubidium Sodium Manganate(V)'
_chemical_formula_structural       'Rb2 Na (Mn O4)'
_chemical_formula_sum              'Mn1 Na1 O4 Rb2'
_publ_section_title
;
Dirubidium sodium manganate(V), Rb2 Na Mn O4
;
loop_
_citation_id
_citation_journal_abbrev
_citation_year
_citation_journal_volume
_citation_page_first
_citation_page_last
_citation_journal_id_ASTM
primary 'Acta Crystallographica, Section E. Structure Reports Online'
 2005 61 i146 i147 ACSEBH
_publ_author_name                  'Moeller, A.;Kerp, O.'
_cell_length_a                     5.9078(13)
_cell_length_b                     5.9821(13)
_cell_length_c                     7.9503(19)
_cell_angle_alpha                  90.00
_cell_angle_beta                   92.22(3)
_cell_angle_gamma                  90.00
_cell_volume                       280.76
_cell_formula_units_Z              2
_symmetry_space_group_name_H-M     'P 1 21/m 1'
_symmetry_Int_Tables_number        11
_refine_ls_R_factor_all            .0439
loop_
_symmetry_equiv_pos_site_id
_symmetry_equiv_pos_as_xyz
  1	'x, -y+.5, z'
  2	'-x, -y, -z'
  3	'-x, y+.5, -z'
  4	'x, y, z'
loop_
_atom_type_symbol
_atom_type_oxidation_number
Mn5+	5
Na1+	1
O2-	-2
Rb1+	1
loop_
_atom_site_label
_atom_site_type_symbol
_atom_site_symmetry_multiplicity
_atom_site_Wyckoff_symbol
_atom_site_fract_x
_atom_site_fract_y
_atom_site_fract_z
_atom_site_occupancy
_atom_site_attached_hydrogens
_atom_site_U_iso_or_equiv
Rb1 Rb1+ 2 e 0.29985(10) 0.2500 0.50484(10) 1 0 0.0229(2) 
Rb2 Rb1+ 2 e 0.85438(13) 0.2500 0.82005(11) 1 0 0.0321(2) 
Mn1 Mn5+ 2 e 0.78706(16) 0.2500 0.25549(15) 1 0 0.0165(3) 
Na1 Na1+ 2 e 0.3668(5) 0.2500 0.0259(4) 1 0 0.0232(6) 
O1 O2- 2 e 0.7983(7) 0.2500 0.4681(7) 1 0 0.0213(11) 
O2 O2- 2 e 0.0524(8) 0.2500 0.1793(8) 1 0 0.0330(13) 
O3 O2- 4 f 0.6402(6) 0.0223(6) 0.1813(5) 1 0 0.0318(10) 

loop_
_atom_site_aniso_label
_atom_site_aniso_type_symbol
_atom_site_aniso_U_11
_atom_site_aniso_U_22
_atom_site_aniso_U_33
_atom_site_aniso_U_12
_atom_site_aniso_U_13
_atom_site_aniso_U_23
Rb1 Rb1+ 0.0215(3) 0.0201(3) 0.0272(5) 0.000 0.0019(2) 0.000
Rb2 Rb1+ 0.0410(4) 0.0331(4) 0.0225(5) 0.000 0.0037(3) 0.000
Mn1 Mn5+ 0.0179(5) 0.0143(4) 0.0176(7) 0.000 0.0027(4) 0.000
Na1 Na1+ 0.0227(13) 0.0223(13) 0.025(2) 0.000 0.0016(11) 0.000
O1 O2- 0.018(2) 0.026(2) 0.020(3) 0.000 0.0019(19) 0.000
O2 O2- 0.023(2) 0.053(3) 0.023(4) 0.000 0.005(2) 0.000
O3 O2- 0.044(2) 0.0191(16) 0.031(3) -0.0039(14) -0.0101(18) -0.0020(14)
#End of data_170771-ICSD


