data_191544-ICSD
#?2014 by Fachinformationszentrum Karlsruhe, and the U.S. Secretary of 
#Commerce on behalf of the United States.  All rights reserved.
_database_code_ICSD                191544
_audit_creation_date               2014/08/01
_chemical_name_systematic          'Dilithium Manganese Silicate'
_chemical_formula_structural       'Li2 Mn (Si O4)'
_chemical_formula_sum              'Li2 Mn1 O4 Si1'
_publ_section_title
;
Li2 Mn Si O4 cathodes modified by phosphorous substitution and the 
structural consequences
;
loop_
_citation_id
_citation_journal_abbrev
_citation_year
_citation_journal_volume
_citation_page_first
_citation_page_last
_citation_journal_id_ASTM
primary 'Solid State Ionics' 2014 259 29 39 SSIOD3
_publ_author_name
;
Gummow, Rosalind J.;Han, Guihong;Sharma, Neeraj;He, Yinghe
;
_cell_length_a                     6.3098(3)
_cell_length_b                     10.7675(6)
_cell_length_c                     4.9994(3)
_cell_angle_alpha                  90.
_cell_angle_beta                   90.
_cell_angle_gamma                  90.
_cell_volume                       339.66
_cell_formula_units_Z              4
_symmetry_space_group_name_H-M     'P m n b'
_symmetry_Int_Tables_number        62
_refine_ls_R_factor_all            .0216
loop_
_symmetry_equiv_pos_site_id
_symmetry_equiv_pos_as_xyz
  1	'x, y+.5, -z+.5'
  2	'-x+.5, y, z'
  3	'x+.5, -y+.5, z+.5'
  4	'-x, -y, -z'
  5	'-x, -y+.5, z+.5'
  6	'x+.5, -y, -z'
  7	'-x+.5, y+.5, -z+.5'
  8	'x, y, z'
loop_
_atom_type_symbol
_atom_type_oxidation_number
Li1+	1
Mn2+	2
O2-	-2
Si4+	4
loop_
_atom_site_label
_atom_site_type_symbol
_atom_site_symmetry_multiplicity
_atom_site_Wyckoff_symbol
_atom_site_fract_x
_atom_site_fract_y
_atom_site_fract_z
_atom_site_occupancy
_atom_site_attached_hydrogens
_atom_site_U_iso_or_equiv
Li1 Li1+ 8 d 0.508 0.913 0.313 1. 0 0.029(1) 
Mn1 Mn2+ 4 c 0.25 0.168 0.190 1. 0 0.021(1) 
Si1 Si4+ 4 c 0.25 0.339 0.679 1. 0 0.023(1) 
O1 O2- 4 c 0.25 0.343 0.342 1. 0 0.026(1) 
O2 O2- 8 d -0.037 0.091 0.285 1. 0 0.017(1) 
O3 O2- 4 c 0.25 0.193 0.757 1. 0 0.001(1) 

#End of data_191544-ICSD


