data_83865-ICSD
#?2014 by Fachinformationszentrum Karlsruhe, and the U.S. Secretary of 
#Commerce on behalf of the United States.  All rights reserved.
_database_code_ICSD                83865
_audit_creation_date               1999/01/19
_audit_update_record               2011/02/01
_chemical_name_systematic
;
Tris(oxodilithiumtetracalcium) Tetrakis(tetranitridomolybdate)
;
_chemical_formula_structural       '(O Li2 Ca4)3 (Mo N4)4'
_chemical_formula_sum              'Ca12 Li6 Mo4 N16 O3'
_publ_section_title
;
(O Li2 Ca4)3 (M N4)4 (M = Mo, W): nitridometalate oxides with close 
structural relationships to the Th3 P4 type structure
;
loop_
_citation_id
_citation_journal_abbrev
_citation_year
_citation_journal_volume
_citation_page_first
_citation_page_last
_citation_journal_id_ASTM
primary 'Journal of Alloys and Compounds' 1997 248 1 6 JALCEU
_publ_author_name
;
Wachsmann, C.;Hoehn, P.;Kniep, R.;Jacobs, H.
;
_cell_length_a                     13.061(3)
_cell_length_b                     13.061(3)
_cell_length_c                     13.061(3)
_cell_angle_alpha                  90.
_cell_angle_beta                   90.
_cell_angle_gamma                  90.
_cell_volume                       2228.07
_cell_formula_units_Z              4
_symmetry_space_group_name_H-M     'I -4 3 d'
_symmetry_Int_Tables_number        220
_refine_ls_R_factor_all            .017
loop_
_symmetry_equiv_pos_site_id
_symmetry_equiv_pos_as_xyz
  1	'-y+.25, -x+.75, z+.75'
  2	'y+.75, -x+.25, -z+.75'
  3	'-y+.75, x+.75, -z+.25'
  4	'y+.25, x+.25, z+.25'
  5	'z+.5, -x+.5, -y'
  6	'-z+.5, -x, y+.5'
  7	'-z, x+.5, -y+.5'
  8	'z, x, y'
  9	'z+.75, -y+.25, -x+.75'
 10	'-z+.75, y+.75, -x+.25'
 11	'-z+.25, -y+.75, x+.75'
 12	'z+.25, y+.25, x+.25'
 13	'-y, z+.5, -x+.5'
 14	'y+.5, -z+.5, -x'
 15	'-y+.5, -z, x+.5'
 16	'y, z, x'
 17	'-x+.75, z+.75, -y+.25'
 18	'-x+.25, -z+.75, y+.75'
 19	'x+.75, -z+.25, -y+.75'
 20	'x+.25, z+.25, y+.25'
 21	'-x+.5, -y, z+.5'
 22	'-x, y+.5, -z+.5'
 23	'x+.5, -y+.5, -z'
 24	'x, y, z'
 25	'-y+.75, -x+.25, z+.25'
 26	'y+.25, -x+.75, -z+.25'
 27	'-y+.25, x+.25, -z+.75'
 28	'y+.75, x+.75, z+.75'
 29	'z, -x, -y+.5'
 30	'-z, -x+.5, y'
 31	'-z+.5, x, -y'
 32	'z+.5, x+.5, y+.5'
 33	'z+.25, -y+.75, -x+.25'
 34	'-z+.25, y+.25, -x+.75'
 35	'-z+.75, -y+.25, x+.25'
 36	'z+.75, y+.75, x+.75'
 37	'-y+.5, z, -x'
 38	'y, -z, -x+.5'
 39	'-y, -z+.5, x'
 40	'y+.5, z+.5, x+.5'
 41	'-x+.25, z+.25, -y+.75'
 42	'-x+.75, -z+.25, y+.25'
 43	'x+.25, -z+.75, -y+.25'
 44	'x+.75, z+.75, y+.75'
 45	'-x, -y+.5, z'
 46	'-x+.5, y, -z'
 47	'x, -y, -z+.5'
 48	'x+.5, y+.5, z+.5'
loop_
_atom_type_symbol
_atom_type_oxidation_number
Ca2+	2
Li1+	1
Mo6+	6
N3-	-3
O2-	-2
loop_
_atom_site_label
_atom_site_type_symbol
_atom_site_symmetry_multiplicity
_atom_site_Wyckoff_symbol
_atom_site_fract_x
_atom_site_fract_y
_atom_site_fract_z
_atom_site_occupancy
_atom_site_attached_hydrogens
Mo1 Mo6+ 16 c 0.38752(2) 0.38752(2) 0.38752(2) 1. 0 
Ca1 Ca2+ 48 e 0.32596(4) 0.28533(4) 0.11566(4) 1. 0 
O1 O2- 12 b 0.5 0.25 0.125 1. 0 
N1 N3- 48 e 0.3407(2) 0.4759(2) 0.1074(2) 1. 0 
N2 N3- 16 c 0.3060(2) 0.3060(2) 0.3060(2) 1. 0 
Li1 Li1+ 24 d 0.2744(6) 0.5 0.25 1. 0 

loop_
_atom_site_aniso_label
_atom_site_aniso_type_symbol
_atom_site_aniso_U_11
_atom_site_aniso_U_22
_atom_site_aniso_U_33
_atom_site_aniso_U_12
_atom_site_aniso_U_13
_atom_site_aniso_U_23
Mo1 Mo6+ 0.01151(8) 0.01151(8) 0.01151(8) -.00012(7) -.00012(7) -.00012(7)
Ca1 Ca2+ 0.0109(2) 0.0131(2) 0.0164(2) 0.0000(2) 0.0002(2) 0.0017(2)
O1 O2- 0.015(1) 0.015(1) 0.014(2) 0 0 0
N1 N3- 0.017(1) 0.0141(9) 0.0142(9) 0.0007(7) 0.0009(8) 0.0010(8)
N2 N3- 0.0175(8) 0.0175(8) 0.0175(8) -.0014(88) -.0014(88) -.0014(8)
Li1 Li1+ 0.035(4) 0.018(3) 0.018(3) 0 0 -.008(9)
#End of data_83865-ICSD


