data_423922-ICSD
#?2014 by Fachinformationszentrum Karlsruhe, and the U.S. Secretary of 
#Commerce on behalf of the United States.  All rights reserved.
_database_code_ICSD                423922
_audit_creation_date               2013/08/01
_chemical_name_systematic          'Silver Thulium Disulfide'
_chemical_formula_structural       'Ag Tm S2'
_chemical_formula_sum              'Ag1 S2 Tm1'
_publ_section_title
;
Synthesis and crystal structure of Ag Er S2 and Ag Tm S2
;
loop_
_citation_id
_citation_journal_abbrev
_citation_year
_citation_journal_volume
_citation_journal_issue
_citation_page_first
_citation_page_last
_citation_journal_id_ASTM
primary 'Zeitschrift fuer Kristallographie, Supplement Issue'
 2012 2012 32 109 110 ZKSUP2
_publ_author_name                  'Strobel, S.;Spohn, B.;Schleid, T.'
_cell_length_a                     5.3641(3)
_cell_length_b                     5.3641(3)
_cell_length_c                     11.8406(8)
_cell_angle_alpha                  90.00
_cell_angle_beta                   90.00
_cell_angle_gamma                  90.00
_cell_volume                       340.7
_cell_formula_units_Z              4
_symmetry_space_group_name_H-M     'I 41 m d'
_symmetry_Int_Tables_number        109
_refine_ls_R_factor_all            .0242
loop_
_symmetry_equiv_pos_site_id
_symmetry_equiv_pos_as_xyz
  1	'y, -x+.5, z+.25'
  2	'-y, x+.5, z+.25'
  3	'x, -y, z'
  4	'-x, y, z'
  5	'-y, -x+.5, z+.25'
  6	'y, x+.5, z+.25'
  7	'-x, -y, z'
  8	'x, y, z'
  9	'y+.5, -x, z+.75'
 10	'-y+.5, x, z+.75'
 11	'x+.5, -y+.5, z+.5'
 12	'-x+.5, y+.5, z+.5'
 13	'-y+.5, -x, z+.75'
 14	'y+.5, x, z+.75'
 15	'-x+.5, -y+.5, z+.5'
 16	'x+.5, y+.5, z+.5'
loop_
_atom_type_symbol
_atom_type_oxidation_number
Ag1+	1
S2-	-2
Tm3+	3
loop_
_atom_site_label
_atom_site_type_symbol
_atom_site_symmetry_multiplicity
_atom_site_Wyckoff_symbol
_atom_site_fract_x
_atom_site_fract_y
_atom_site_fract_z
_atom_site_occupancy
_atom_site_attached_hydrogens
_atom_site_U_iso_or_equiv
Ag1 Ag1+ 4 a 0.0000 0.0000 0.46981(14) 1 0 0.0447(6) 
Tm1 Tm3+ 4 a 0.0000 0.0000 0.00000(7) 1 0 0.0149(3) 
S1 S2- 4 a 0.0000 0.0000 0.2353(8) 1 0 0.0154(12) 
S2 S2- 4 a 0.0000 0.0000 0.7794(8) 1 0 0.0255(15) 

loop_
_atom_site_aniso_label
_atom_site_aniso_type_symbol
_atom_site_aniso_U_11
_atom_site_aniso_U_22
_atom_site_aniso_U_33
_atom_site_aniso_U_12
_atom_site_aniso_U_13
_atom_site_aniso_U_23
Ag1 Ag1+ 0.0505(11) 0.0364(10) 0.0473(12) 0.000 0.000 0.000
Tm1 Tm3+ 0.0106(4) 0.0198(5) 0.0143(3) 0.000 0.000 0.000
S1 S2- 0.019(3) 0.012(2) 0.016(3) 0.000 0.000 0.000
S2 S2- 0.020(3) 0.035(5) 0.021(4) 0.000 0.000 0.000
#End of data_423922-ICSD


