data_39814-ICSD
#?2014 by Fachinformationszentrum Karlsruhe, and the U.S. Secretary of 
#Commerce on behalf of the United States.  All rights reserved.
_database_code_ICSD                39814
_audit_creation_date               1995/01/10
_chemical_name_systematic          'Lithium Diphosphate'
_chemical_formula_structural       'Li4 (P2 O7)'
_chemical_formula_sum              'Li4 O7 P2'
_publ_section_title                'Crystal structure of Li4(P2O7)'
loop_
_citation_id
_citation_journal_abbrev
_citation_year
_citation_journal_volume
_citation_page_first
_citation_page_last
_citation_journal_id_ASTM
primary Kristallografiya 1994 39 815 820 KRISAJ
2 'Crystallography Reports' 1994 39 737 742 CYSTE3
_publ_author_name
;
Yakubovich, O.V.;Mel'nikov, O.K.
;
_cell_length_a                     5.190(2)
_cell_length_b                     13.902(3)
_cell_length_c                     7.901(3)
_cell_angle_alpha                  90.
_cell_angle_beta                   89.97(3)
_cell_angle_gamma                  90.
_cell_volume                       570.07
_cell_formula_units_Z              4
_symmetry_space_group_name_H-M     'P 1 21/n 1'
_symmetry_Int_Tables_number        14
_refine_ls_R_factor_all            .049
loop_
_symmetry_equiv_pos_site_id
_symmetry_equiv_pos_as_xyz
  1	'-x+.5, y+.5, -z+.5'
  2	'-x, -y, -z'
  3	'x+.5, -y+.5, z+.5'
  4	'x, y, z'
loop_
_atom_type_symbol
_atom_type_oxidation_number
Li1+	1
O2-	-2
P5+	5
loop_
_atom_site_label
_atom_site_type_symbol
_atom_site_symmetry_multiplicity
_atom_site_Wyckoff_symbol
_atom_site_fract_x
_atom_site_fract_y
_atom_site_fract_z
_atom_site_occupancy
_atom_site_attached_hydrogens
_atom_site_B_iso_or_equiv
P1 P5+ 4 e 0.1815(1) 0.66682(6) 0.26125(9) 1. 0 0.54(1) 
P2 P5+ 4 e 0.1718(1) 0.44867(6) 0.26308(9) 1. 0 0.54(1) 
Li1 Li1+ 4 e 0.197(1) 0.8250(5) 0.5462(7) 1. 0 1.2(1) 
Li2 Li1+ 4 e 0.198(1) 0.7831(5) 0.9463(7) 1. 0 1.2(1) 
Li3 Li1+ 4 e 0.182(1) 0.0567(5) 0.5588(6) 1. 0 0.9(1) 
Li4 Li1+ 4 e 0.171(1) 0.1069(6) 0.9277(9) 1. 0 2.1(1) 
O1 O2- 4 e 0.2005(4) 0.9468(2) 0.4109(3) 1. 0 0.91(4) 
O2 O2- 4 e 0.1826(4) 0.1709(2) 0.4086(3) 1. 0 0.85(4) 
O3 O2- 4 e 0.1014(4) 0.3098(2) 0.7514(3) 1. 0 1.07(5) 
O4 O2- 4 e 0.1146(4) 0.5697(2) 0.7461(3) 1. 0 1.11(5) 
O5 O2- 4 e 0.1889(4) 0.8895(2) 0.1066(3) 1. 0 1.06(5) 
O6 O2- 4 e 0.2106(4) 0.5579(2) 0.3341(3) 1. 0 1.19(4) 
O7 O2- 4 e 0.3173(4) 0.7205(2) 0.4035(3) 1. 0 0.85(4) 

#End of data_39814-ICSD


