data_26790-ICSD
#?2014 by Fachinformationszentrum Karlsruhe, and the U.S. Secretary of 
#Commerce on behalf of the United States.  All rights reserved.
_database_code_ICSD                26790
_audit_creation_date               1980/01/01
_audit_update_record               2005/10/01
_chemical_name_systematic          'Aluminium Oxide - Alpha'
_chemical_formula_structural       'Al2 O3'
_chemical_formula_sum              'Al2 O3'
_chemical_name_mineral             Corundum
_publ_section_title
;
Strukturuntersuchungen im System Al2 O3 - Cr2 O3
;
loop_
_citation_id
_citation_journal_abbrev
_citation_year
_citation_journal_volume
_citation_page_first
_citation_page_last
_citation_journal_id_ASTM
primary
;
Zeitschrift fuer Kristallographie, Kristallgeometrie, Kristallphysik, 
Kristallchemie (-144,1977)
;
 1964 120 342 348 ZEKGAX
_publ_author_name                  'Saalfeld, H.'
_cell_length_a                     5.128
_cell_length_b                     5.128
_cell_length_c                     5.128
_cell_angle_alpha                  55.27
_cell_angle_beta                   55.27
_cell_angle_gamma                  55.27
_cell_volume                       84.87
_cell_formula_units_Z              2
_symmetry_space_group_name_H-M     'R -3 c R'
_symmetry_Int_Tables_number        167
_refine_ls_R_factor_all            .18
loop_
_symmetry_equiv_pos_site_id
_symmetry_equiv_pos_as_xyz
  1	'-x+.5, -z+.5, -y+.5'
  2	'-z+.5, -y+.5, -x+.5'
  3	'-y+.5, -x+.5, -z+.5'
  4	'x+.5, z+.5, y+.5'
  5	'z+.5, y+.5, x+.5'
  6	'y+.5, x+.5, z+.5'
  7	'-z, -x, -y'
  8	'-y, -z, -x'
  9	'-x, -y, -z'
 10	'z, x, y'
 11	'y, z, x'
 12	'x, y, z'
loop_
_atom_type_symbol
_atom_type_oxidation_number
Al3+	3
O2-	-2
loop_
_atom_site_label
_atom_site_type_symbol
_atom_site_symmetry_multiplicity
_atom_site_Wyckoff_symbol
_atom_site_fract_x
_atom_site_fract_y
_atom_site_fract_z
_atom_site_occupancy
_atom_site_attached_hydrogens
Al1 Al3+ 4 c 0.145 0.145 0.145 1. 0 
O1 O2- 6 e -.053 0.553 0.25 1. 0 

#End of data_26790-ICSD


