data_240365-ICSD
#?2014 by Fachinformationszentrum Karlsruhe, and the U.S. Secretary of 
#Commerce on behalf of the United States.  All rights reserved.
_database_code_ICSD                240365
_audit_creation_date               2007/04/01
_chemical_name_systematic
;
Tripotassium Neodymium Octathioarsenate(V)
;
_chemical_formula_structural       'As2 K3 Nd S8'
_chemical_formula_sum              'As2 K3 Nd1 S8'
_publ_section_title
;
K3Ln(AsS4)2 (Ln = Nd, Sm, Gd): the First Rare Earth Thioarsenate 
Compounds with Infinite Straight [Ln(AsS4)2]3- Chains
;
loop_
_citation_id
_citation_journal_abbrev
_citation_year
_citation_journal_volume
_citation_journal_issue
_citation_page_first
_citation_page_last
_citation_journal_id_ASTM
primary 'Inorganic Chemistry' 2006 45 22 8835 8837 INOCAJ
_publ_author_name                  'Wu, Y.;Naether, C.;Bensch, W.'
_cell_length_a                     10.3736(8)
_cell_length_b                     18.8768(13)
_cell_length_c                     8.8393(7)
_cell_angle_alpha                  90.00
_cell_angle_beta                   116.878(8)
_cell_angle_gamma                  90.00
_cell_volume                       1543.93
_cell_formula_units_Z              4
_symmetry_space_group_name_H-M     'C 1 2/c 1'
_symmetry_Int_Tables_number        15
_refine_ls_R_factor_all            .0374
loop_
_symmetry_equiv_pos_site_id
_symmetry_equiv_pos_as_xyz
  1	'x, -y, z+.5'
  2	'-x, -y, -z'
  3	'-x, y, -z+.5'
  4	'x, y, z'
  5	'x+.5, -y+.5, z+.5'
  6	'-x+.5, -y+.5, -z'
  7	'-x+.5, y+.5, -z+.5'
  8	'x+.5, y+.5, z'
loop_
_atom_type_symbol
_atom_type_oxidation_number
As5+	5
K1+	1
Nd3+	3
S2-	-2
loop_
_atom_site_label
_atom_site_type_symbol
_atom_site_symmetry_multiplicity
_atom_site_Wyckoff_symbol
_atom_site_fract_x
_atom_site_fract_y
_atom_site_fract_z
_atom_site_occupancy
_atom_site_attached_hydrogens
_atom_site_U_iso_or_equiv
Nd1 Nd3+ 4 e 0.5000 0.257133(17) 0.2500 1 0 0.00622(11) 
As1 As5+ 8 f 0.21766(5) 0.12287(2) 0.10564(5) 1 0 0.00714(13) 
K1 K1+ 4 e 0.5000 0.50429(8) 0.2500 1 0 0.0157(3) 
K2 K1+ 4 b 0.5000 0.0000 0.0000 1 0 0.0388(5) 
K3 K1+ 4 e 0.5000 0.23695(9) -0.2500 1 0 0.0215(3) 
S1 S2- 8 f 0.25416(13) 0.01169(6) 0.12949(15) 1 0 0.0131(2) 
S2 S2- 8 f 0.51285(12) 0.35723(6) 0.01527(14) 1 0 0.0096(2) 
S3 S2- 8 f 0.20119(12) 0.32890(6) 0.05814(14) 1 0 0.0098(2) 
S4 S2- 8 f 0.68555(13) 0.17663(7) 0.15132(14) 1 0 0.0142(2) 

loop_
_atom_site_aniso_label
_atom_site_aniso_type_symbol
_atom_site_aniso_U_11
_atom_site_aniso_U_22
_atom_site_aniso_U_33
_atom_site_aniso_U_12
_atom_site_aniso_U_13
_atom_site_aniso_U_23
Nd1 Nd3+ 0.00334(17) 0.01052(18) 0.00386(17) 0.000 0.00080(13) 0.000
As1 As5+ 0.0038(2) 0.0109(2) 0.0051(2) -0.00156(15) 0.00052(19) 0.00126(15)
K1 K1+ 0.0122(7) 0.0231(8) 0.0115(6) 0.000 0.0052(6) 0.000
K2 K1+ 0.0122(9) 0.0900(17) 0.0119(8) -0.0013(9) 0.0035(7) -0.0095(9)
K3 K1+ 0.0265(9) 0.0269(8) 0.0157(7) 0.000 0.0137(7) 0.000
S1 S2- 0.0112(6) 0.0123(5) 0.0133(5) 0.0009(4) 0.0034(5) 0.0026(4)
S2 S2- 0.0034(5) 0.0144(5) 0.0094(5) -0.0009(4) 0.0014(4) 0.0027(4)
S3 S2- 0.0076(5) 0.0156(5) 0.0070(5) -0.0018(4) 0.0042(4) -0.0002(4)
S4 S2- 0.0114(6) 0.0250(6) 0.0053(5) 0.0090(5) 0.0029(5) 0.0024(4)
#End of data_240365-ICSD


