data_61693-ICSD
#?2014 by Fachinformationszentrum Karlsruhe, and the U.S. Secretary of 
#Commerce on behalf of the United States.  All rights reserved.
_database_code_ICSD                61693
_audit_creation_date               1986/12/03
_audit_update_record               2005/10/01
_chemical_name_systematic
;
Dicopper Zinc Germanium Tetrasulfide
;
_chemical_formula_structural       'Cu2 Zn Ge S4'
_chemical_formula_sum              'Cu2 Ge1 S4 Zn1'
_publ_section_title
;
Determination of the Structure of Cu2ZnGeS4 Polymorphs by Lattice 
Imaging and Convergent-Beam Electron Diffraction
;
loop_
_citation_id
_citation_journal_abbrev
_citation_year
_citation_journal_volume
_citation_page_first
_citation_page_last
_citation_journal_id_ASTM
primary 'Acta Crystallographica, Section B: Structural Science'
 1986 42 236 247 ASBSDK
2 'Golden Book of Phase Transitions, Wroclaw' 2002 1 1 123 GBOPT5
_publ_author_name                  'Moodie, A.F.;Whitfield, H.J.'
_cell_length_a                     5.27
_cell_length_b                     5.27
_cell_length_c                     10.54
_cell_angle_alpha                  90.
_cell_angle_beta                   90.
_cell_angle_gamma                  90.
_cell_volume                       292.73
_cell_formula_units_Z              2
_symmetry_space_group_name_H-M     'I -4 2 m'
_symmetry_Int_Tables_number        121
loop_
_symmetry_equiv_pos_site_id
_symmetry_equiv_pos_as_xyz
  1	'-y, -x, z'
  2	'y, x, z'
  3	'y, -x, -z'
  4	'-y, x, -z'
  5	'x, -y, -z'
  6	'-x, y, -z'
  7	'-x, -y, z'
  8	'x, y, z'
  9	'-y+.5, -x+.5, z+.5'
 10	'y+.5, x+.5, z+.5'
 11	'y+.5, -x+.5, -z+.5'
 12	'-y+.5, x+.5, -z+.5'
 13	'x+.5, -y+.5, -z+.5'
 14	'-x+.5, y+.5, -z+.5'
 15	'-x+.5, -y+.5, z+.5'
 16	'x+.5, y+.5, z+.5'
loop_
_atom_type_symbol
_atom_type_oxidation_number
Cu2+	2
Ge2+	2
S2-	-2
Zn2+	2
loop_
_atom_site_label
_atom_site_type_symbol
_atom_site_symmetry_multiplicity
_atom_site_Wyckoff_symbol
_atom_site_fract_x
_atom_site_fract_y
_atom_site_fract_z
_atom_site_occupancy
_atom_site_attached_hydrogens
Ge1 Ge2+ 2 b 0 0 0.5 1. 0 
Zn1 Zn2+ 2 a 0 0 0 1. 0 
Cu1 Cu2+ 4 d 0 0.5 0.25 1. 0 
S1 S2- 8 i 0.256 0.256 0.119 1. 0 

#End of data_61693-ICSD


