data_248274-ICSD
#?2014 by Fachinformationszentrum Karlsruhe, and the U.S. Secretary of 
#Commerce on behalf of the United States.  All rights reserved.
_database_code_ICSD                248274
_audit_creation_date               2011/02/01
_audit_update_record               2013/08/01
_chemical_name_systematic          'Trizinc Bis(arsenate(III))'
_chemical_formula_structural       'Zn3 (As O3)2'
_chemical_formula_sum              'As2 O6 Zn3'
_publ_section_title                beta-Zn3(AsO3)2
loop_
_citation_id
_citation_journal_abbrev
_citation_year
_citation_journal_volume
_citation_journal_issue
_citation_page_first
_citation_page_last
_citation_journal_id_ASTM
primary 'Acta Crystallographica, Section C: Crystal Structure Communications'
 2010 66 6 i64 i66 ACSCEE
_publ_author_name                  'Harrison, W.T.A.'
_cell_length_a                     8.2438(8)
_cell_length_b                     5.1781(4)
_cell_length_c                     15.8222(16)
_cell_angle_alpha                  90.00
_cell_angle_beta                   97.445(5)
_cell_angle_gamma                  90.00
_cell_volume                       669.71
_cell_formula_units_Z              4
_symmetry_space_group_name_H-M     'P 1 21/c 1'
_symmetry_Int_Tables_number        14
_refine_ls_R_factor_all            .0635
loop_
_symmetry_equiv_pos_site_id
_symmetry_equiv_pos_as_xyz
  1	'x, -y+.5, z+.5'
  2	'-x, -y, -z'
  3	'-x, y+.5, -z+.5'
  4	'x, y, z'
loop_
_atom_type_symbol
_atom_type_oxidation_number
As3+	3
O2-	-2
Zn2+	2
loop_
_atom_site_label
_atom_site_type_symbol
_atom_site_symmetry_multiplicity
_atom_site_Wyckoff_symbol
_atom_site_fract_x
_atom_site_fract_y
_atom_site_fract_z
_atom_site_occupancy
_atom_site_attached_hydrogens
_atom_site_U_iso_or_equiv
Zn1 Zn2+ 4 e 0.5107(2) 0.0498(3) 0.31146(11) 1 0 0.0157(5) 
Zn2 Zn2+ 4 e 0.1301(2) 0.6450(3) 0.25995(10) 1 0 0.0141(5) 
Zn3 Zn2+ 4 e 0.3905(2) 0.6274(3) 0.43363(11) 1 0 0.0153(5) 
As1 As3+ 4 e 0.16665(18) 0.1336(3) 0.39382(10) 1 0 0.0140(4) 
As2 As3+ 4 e 0.25838(18) 0.4589(3) 0.63057(9) 1 0 0.0144(4) 
O1 O2- 4 e 0.0765(13) 0.0023(19) 0.2960(7) 1 0 0.019(2) 
O2 O2- 4 e 0.2229(11) 0.440(2) 0.3564(6) 1 0 0.017(2) 
O3 O2- 4 e 0.3610(12) -0.0178(19) 0.3961(6) 1 0 0.017(2) 
O4 O2- 4 e 0.4115(12) 0.3056(19) 0.7011(6) 1 0 0.017(2) 
O5 O2- 4 e 0.2789(11) 0.7673(18) 0.6766(6) 1 0 0.012(2) 
O6 O2- 4 e 0.3835(12) 0.504(2) 0.5510(6) 1 0 0.018(2) 

loop_
_atom_site_aniso_label
_atom_site_aniso_type_symbol
_atom_site_aniso_U_11
_atom_site_aniso_U_22
_atom_site_aniso_U_33
_atom_site_aniso_U_12
_atom_site_aniso_U_13
_atom_site_aniso_U_23
Zn1 Zn2+ 0.0156(9) 0.0142(9) 0.0167(9) -0.0004(7) 0.0005(7) 0.0017(7)
Zn2 Zn2+ 0.0131(9) 0.0139(8) 0.0147(9) -0.0011(7) -0.0011(7) 0.0017(7)
Zn3 Zn2+ 0.0147(9) 0.0147(9) 0.0157(9) -0.0001(7) -0.0009(7) 0.0017(7)
As1 As3+ 0.0140(8) 0.0131(8) 0.0144(8) 0.0010(6) -0.0003(6) -0.0006(6)
As2 As3+ 0.0123(8) 0.0140(8) 0.0168(8) 0.0007(6) 0.0018(6) -0.0010(6)
O1 O2- 0.023(6) 0.010(5) 0.023(6) 0.007(4) 0.001(4) 0.001(4)
O2 O2- 0.007(5) 0.031(6) 0.013(5) -0.001(4) -0.002(4) 0.002(4)
O3 O2- 0.010(5) 0.018(5) 0.025(6) -0.006(4) 0.007(4) -0.005(5)
O4 O2- 0.017(6) 0.016(5) 0.017(5) -0.002(4) -0.006(4) 0.001(4)
O5 O2- 0.010(5) 0.008(5) 0.019(5) -0.006(4) 0.010(4) -0.007(4)
O6 O2- 0.015(6) 0.032(6) 0.007(5) 0.003(5) 0.000(4) 0.005(5)
#End of data_248274-ICSD


