data_79879-ICSD
#?2014 by Fachinformationszentrum Karlsruhe, and the U.S. Secretary of 
#Commerce on behalf of the United States.  All rights reserved.
_database_code_ICSD                79879
_audit_creation_date               1996/10/14
_chemical_name_systematic
;
Silver(II) Bis(hexafluorobismuthate)
;
_chemical_formula_structural       'Ag (Bi F6)2'
_chemical_formula_sum              'Ag1 Bi2 F12'
_publ_section_title
;
Preparation and structural and magnetic properties of (Ag F)(+) (M 
F6)(-) (M=Ir,Ru,Sb,Bi) and Ag(2+) ((Bi F6)(-))2
;
loop_
_citation_id
_citation_journal_abbrev
_citation_year
_citation_journal_volume
_citation_page_first
_citation_page_last
_citation_journal_id_ASTM
primary 'Inorganic Chemistry' 1995 34 2692 2698 INOCAJ
_publ_author_name
;
Lucier, G.;Muenzenberg, J.;Casteel, W.J.jr.;Bartlett, N.
;
_cell_length_a                     5.218(2)
_cell_length_b                     5.579(1)
_cell_length_c                     8.934(2)
_cell_angle_alpha                  76.08(2)
_cell_angle_beta                   88.93(2)
_cell_angle_gamma                  65.08(2)
_cell_volume                       227.93
_cell_formula_units_Z              1
_symmetry_space_group_name_H-M     'P -1'
_symmetry_Int_Tables_number        2
_refine_ls_R_factor_all            .055
loop_
_symmetry_equiv_pos_site_id
_symmetry_equiv_pos_as_xyz
  1	'-x, -y, -z'
  2	'x, y, z'
loop_
_atom_type_symbol
_atom_type_oxidation_number
Ag2+	2
Bi5+	5
F1-	-1
loop_
_atom_site_label
_atom_site_type_symbol
_atom_site_symmetry_multiplicity
_atom_site_Wyckoff_symbol
_atom_site_fract_x
_atom_site_fract_y
_atom_site_fract_z
_atom_site_occupancy
_atom_site_attached_hydrogens
_atom_site_B_iso_or_equiv
Ag1 Ag2+ 1 h 0.5 0.5 0.5 1. 0 1.44(2) 
Bi1 Bi5+ 2 i 0.72610(7) 0.01872(7) 0.22639(1) 1. 0 1.401(8) 
F1 F1- 2 i 0.682(2) 0.764(2) 0.126(1) 1. 0 2.9(2) 
F2 F1- 2 i 0.134(2) 0.789(1) 0.286(1) 1. 0 2.5(1) 
F3 F1- 2 i 0.684(2) 0.773(1) 0.427(1) 1. 0 2.3(1) 
F4 F1- 2 i 0.800(2) 0.250(2) 0.048(1) 1. 0 2.7(1) 
F5 F1- 2 i 0.323(2) 0.245(2) 0.223(1) 1. 0 3.0(2) 
F6 F1- 2 i 0.771(2) 0.237(1) 0.370(1) 1. 0 2.3(1) 

#End of data_79879-ICSD


