data_20641-ICSD
#?2014 by Fachinformationszentrum Karlsruhe, and the U.S. Secretary of 
#Commerce on behalf of the United States.  All rights reserved.
_database_code_ICSD                20641
_audit_creation_date               1984/09/13
_audit_update_record               2012/08/01
_chemical_name_systematic          'Rubidium Lithium Molybdate'
_chemical_formula_structural       'Rb Li (Mo O4)'
_chemical_formula_sum              'Li1 Mo1 O4 Rb1'
_publ_section_title
;
The crystal structure of new ferroelectric Rb Li Mo O4
;
loop_
_citation_id
_citation_journal_abbrev
_citation_year
_citation_journal_volume
_citation_page_first
_citation_page_last
_citation_journal_id_ASTM
primary 'Doklady Akademii Nauk SSSR' 1983 271 1388 1391 DANKAS
2 'Phase Transition' 1992 38 127 220 PHTRDP
_publ_author_name
;
Kruglik, A.I.;Klevtsova, R.F.;Aleksandrov, K.S.
;
_cell_length_a                     10.018(2)
_cell_length_b                     11.272(2)
_cell_length_c                     5.702(1)
_cell_angle_alpha                  90.
_cell_angle_beta                   90.
_cell_angle_gamma                  125.80(3)
_cell_volume                       522.23
_cell_formula_units_Z              4
_symmetry_space_group_name_H-M     'I 1 1 b'
_symmetry_Int_Tables_number        9
_refine_ls_R_factor_all            .07
loop_
_symmetry_equiv_pos_site_id
_symmetry_equiv_pos_as_xyz
  1	'x, y+.5, -z'
  2	'x, y, z'
  3	'x+.5, y, -z+.5'
  4	'x+.5, y+.5, z+.5'
loop_
_atom_type_symbol
_atom_type_oxidation_number
Li1+	1
Mo6+	6
O2-	-2
Rb1+	1
loop_
_atom_site_label
_atom_site_type_symbol
_atom_site_symmetry_multiplicity
_atom_site_Wyckoff_symbol
_atom_site_fract_x
_atom_site_fract_y
_atom_site_fract_z
_atom_site_occupancy
_atom_site_attached_hydrogens
Mo1 Mo6+ 4 a 0.5 0.25 0.0006(6) 1. 0 
Rb1 Rb1+ 4 a 0.4969(6) 0.5009(6) 0.5244(2) 1. 0 
O1 O2- 4 a 0.665(2) 0.235(2) 0.039(3) 1. 0 
O2 O2- 4 a 0.569(2) 0.430(1) 0.066(2) 1. 0 
O3 O2- 4 a 0.346(2) 0.125(2) 0.195(2) 1. 0 
O4 O2- 4 a 0.426(2) 0.203(2) -.291(2) 1. 0 
Li1 Li1+ 4 a 0.757(5) 0.631(5) -.008(6) 1. 0 

#End of data_20641-ICSD


