data_92493-ICSD
#?2014 by Fachinformationszentrum Karlsruhe, and the U.S. Secretary of 
#Commerce on behalf of the United States.  All rights reserved.
_database_code_ICSD                92493
_audit_creation_date               2002/10/01
_chemical_name_systematic
;
Tetracesium Dipotassium Copper Bis(silicate)
;
_chemical_formula_structural       'Cs4 K2 Cu (Si O4)2'
_chemical_formula_sum              'Cs4 Cu1 K2 O8 Si2'
_publ_section_title
;
Cs4 K2 Cu Si2 O8: Synthese, Kristallstruktur, UV-Vis-IR-Daten
;
loop_
_citation_id
_citation_journal_abbrev
_citation_year
_citation_journal_volume
_citation_page_first
_citation_page_last
_citation_journal_id_ASTM
primary 'Zeitschrift fuer Anorganische und Allgemeine Chemie (1950) (DE)'
 2000 626 2251 2252 ZAACAB
_publ_author_name                  'Moeller, A.'
_cell_length_a                     10.408(1)
_cell_length_b                     10.408(1)
_cell_length_c                     6.0921(7)
_cell_angle_alpha                  90.
_cell_angle_beta                   90.
_cell_angle_gamma                  90.
_cell_volume                       659.94
_cell_formula_units_Z              2
_symmetry_space_group_name_H-M     'P 42/m n m'
_symmetry_Int_Tables_number        136
_refine_ls_R_factor_all            .071
loop_
_symmetry_equiv_pos_site_id
_symmetry_equiv_pos_as_xyz
  1	'-y+.5, x+.5, -z+.5'
  2	'y+.5, -x+.5, -z+.5'
  3	'y, x, -z'
  4	'-y, -x, -z'
  5	'y+.5, -x+.5, z+.5'
  6	'-y+.5, x+.5, z+.5'
  7	'-y, -x, z'
  8	'y, x, z'
  9	'x+.5, -y+.5, -z+.5'
 10	'-x+.5, y+.5, -z+.5'
 11	'x, y, -z'
 12	'-x, -y, -z'
 13	'-x+.5, y+.5, z+.5'
 14	'x+.5, -y+.5, z+.5'
 15	'-x, -y, z'
 16	'x, y, z'
loop_
_atom_type_symbol
_atom_type_oxidation_number
Cs1+	1
Cu2+	2
K1+	1
O2-	-2
Si4+	4
loop_
_atom_site_label
_atom_site_type_symbol
_atom_site_symmetry_multiplicity
_atom_site_Wyckoff_symbol
_atom_site_fract_x
_atom_site_fract_y
_atom_site_fract_z
_atom_site_occupancy
_atom_site_attached_hydrogens
Cs1 Cs1+ 8 i 0.1369(1) 0.6167(1) 0 1. 0 
K1 K1+ 4 f 0.6024(4) 0.6024(4) 0 1. 0 
Cu1 Cu2+ 2 a 0 0 0 1. 0 
Si1 Si4+ 4 f 0.8241(4) 0.8241(4) 0 1. 0 
O1 O2- 8 j 0.8980(7) 0.8980(7) 0.209(2) 1. 0 
O2 O2- 8 i 0.852(1) 0.671(1) 0 1. 0 

loop_
_atom_site_aniso_label
_atom_site_aniso_type_symbol
_atom_site_aniso_U_11
_atom_site_aniso_U_22
_atom_site_aniso_U_33
_atom_site_aniso_U_12
_atom_site_aniso_U_13
_atom_site_aniso_U_23
Cs1 Cs1+ 0.0278(7) 0.0347(8) 0.0285(7) -.0043(5) 0 0
K1 K1+ 0.0202(15) 0.0202(15) 0.0264(25) -.0023(19) 0 0
Cu1 Cu2+ 0.0180(13) 0.0180(13) 0.0156(18) -.0052(14) 0 0
Si1 Si4+ 0.0149(18) 0.0149(18) 0.0169(30) -.0012(21) 0 0
O1 O2- 0.0268(35) 0.0268(35) 0.0125(49) -.0112(43) -.0018(32) -.0018(32)
O2 O2- 0.0246(60) 0.0138(56) 0.0459(74) 0.0001(47) 0 0
#End of data_92493-ICSD


