data_16687-ICSD
#?2014 by Fachinformationszentrum Karlsruhe, and the U.S. Secretary of 
#Commerce on behalf of the United States.  All rights reserved.
_database_code_ICSD                16687
_audit_creation_date               1980/01/01
_audit_update_record               2006/04/01
_chemical_name_systematic          'Sodium Tantalate'
_chemical_formula_structural       'Na (Ta O3)'
_chemical_formula_sum              'Na1 O3 Ta1'
_publ_section_title
;
The structure of cadmium titanate and sodium tantalate
;
loop_
_citation_id
_citation_journal_abbrev
_citation_year
_citation_journal_volume
_citation_page_first
_citation_page_last
_citation_journal_id_ASTM
primary 'Acta Crystallographica (1,1948-23,1967)' 1957 10 213 218 ACCRA9
2 'Golden Book of Phase Transitions, Wroclaw' 2002 1 1 123 GBOPT5
_publ_author_name                  'Kay, H.F.;Miles, J.L.'
_cell_length_a                     5.4941
_cell_length_b                     7.7508
_cell_length_c                     5.513
_cell_angle_alpha                  90.
_cell_angle_beta                   90.
_cell_angle_gamma                  90.
_cell_volume                       234.76
_cell_formula_units_Z              4
_symmetry_space_group_name_H-M     'P c 21 n'
_symmetry_Int_Tables_number        33
loop_
_symmetry_equiv_pos_site_id
_symmetry_equiv_pos_as_xyz
  1	'-x+.5, y, z+.5'
  2	'x+.5, y+.5, -z+.5'
  3	'-x, y+.5, -z'
  4	'x, y, z'
loop_
_atom_type_symbol
_atom_type_oxidation_number
Na1+	1
O2-	-2
Ta5+	5
loop_
_atom_site_label
_atom_site_type_symbol
_atom_site_symmetry_multiplicity
_atom_site_Wyckoff_symbol
_atom_site_fract_x
_atom_site_fract_y
_atom_site_fract_z
_atom_site_occupancy
_atom_site_attached_hydrogens
Na1 Na1+ 4 a 0.00(1) 0.78(3) 0.02(2) 1. 0 
Ta1 Ta5+ 4 a 0.5 0 0 1. 0 
O1 O2- 4 a -.02(2) 0.76(1) 0.52(2) 1. 0 
O2 O2- 4 a 0.29(4) -.03(3) 0.29(4) 1. 0 
O3 O2- 4 a 0.29(4) 0.56(6) 0.29(4) 1. 0 

#End of data_16687-ICSD


