data_245133-ICSD
#?2014 by Fachinformationszentrum Karlsruhe, and the U.S. Secretary of 
#Commerce on behalf of the United States.  All rights reserved.
_database_code_ICSD                245133
_audit_creation_date               2007/08/01
_audit_update_record               2013/08/01
_chemical_name_systematic          'Potassium Chromium Divanadate'
_chemical_formula_structural       'K Cr (V2 O7)'
_chemical_formula_sum              'Cr1 K1 O7 V2'
_publ_section_title
;
Synthesis, crystal structure and vibrational spectra of K Cr V2 O7 
and Rb Cr V2 O7
;
loop_
_citation_id
_citation_journal_abbrev
_citation_year
_citation_journal_volume
_citation_journal_issue
_citation_page_first
_citation_page_last
_citation_journal_id_ASTM
primary 'Solid State Sciences' 2006 8 11 1344 1352 SSSCFJ
_publ_author_name
;
Tyutyunnik, A.P.;Zubkov, V.G.;Tarakina, N.V.;Krasil'nikov, 
V.N.;Perelyaeva, L.A.;Baklanova, I.V.;Svensson, G.
;
_cell_length_a                     7.9526(1)
_cell_length_b                     4.87543(5)
_cell_length_c                     6.8910(1)
_cell_angle_alpha                  90
_cell_angle_beta                   101.162(1)
_cell_angle_gamma                  90
_cell_volume                       262.13
_cell_formula_units_Z              2
_symmetry_space_group_name_H-M     'P 1 2/c 1'
_symmetry_Int_Tables_number        13
_refine_ls_R_factor_all            .0354
loop_
_symmetry_equiv_pos_site_id
_symmetry_equiv_pos_as_xyz
  1	'x, -y, z+.5'
  2	'-x, -y, -z'
  3	'-x, y, -z+.5'
  4	'x, y, z'
loop_
_atom_type_symbol
_atom_type_oxidation_number
Cr3+	3
K1+	1
O2-	-2
V5+	5
loop_
_atom_site_label
_atom_site_type_symbol
_atom_site_symmetry_multiplicity
_atom_site_Wyckoff_symbol
_atom_site_fract_x
_atom_site_fract_y
_atom_site_fract_z
_atom_site_occupancy
_atom_site_attached_hydrogens
_atom_site_U_iso_or_equiv
K1 K1+ 2 f 0.5 0.3983(8) 0.25 1. 0 0.026(2) 
Cr1 Cr3+ 2 c 0 0.5 0.5 1. 0 0.013(1) 
V1 V5+ 4 g 0.1733(3) 0.0040(7) 0.3797(3) 1. 0 0.015(1) 
O1 O2- 4 g 0.3608(6) -0.1264(6) 0.3834(6) 1. 0 0.014(1) 
O2 O2- 4 g 0.1130(7) 0.1608(7) 0.1154(6) 1. 0 0.005(1) 
O3 O2- 4 g 0.7815(5) 0.6769(7) 0.5161(6) 1. 0 0.012(1) 
O4 O2- 2 e 0 -0.2917(9) 0.25 1. 0 0.007(2) 

#End of data_245133-ICSD


