data_74462-ICSD
#?2014 by Fachinformationszentrum Karlsruhe, and the U.S. Secretary of 
#Commerce on behalf of the United States.  All rights reserved.
_database_code_ICSD                74462
_audit_creation_date               1995/10/17
_audit_update_record               2007/08/01
_chemical_name_systematic          'Aluminium Phosphate(V) - 8'
_chemical_formula_structural       'Al (P O4)'
_chemical_formula_sum              'Al1 O4 P1'
_chemical_name_mineral             AlPO-8
_publ_section_title
;
Crystal structure of 14-ring aluminophosphate Al P O4-8 from powder 
data
;
loop_
_citation_id
_citation_journal_abbrev
_citation_year
_citation_journal_volume
_citation_page_first
_citation_page_last
_citation_journal_id_ASTM
primary 'Materials Chemistry and Physics' 1993 35 301 304 MCHPDR
_publ_author_name                  'Poojary, D.M.;Clearfield, A.'
_cell_length_a                     33.2270(10)
_cell_length_b                     14.745(1)
_cell_length_c                     8.3807(7)
_cell_angle_alpha                  90.
_cell_angle_beta                   90.
_cell_angle_gamma                  90.
_cell_volume                       4105.97
_cell_formula_units_Z              36
_symmetry_space_group_name_H-M     'C m c 21'
_symmetry_Int_Tables_number        36
_refine_ls_R_factor_all            .05
loop_
_symmetry_equiv_pos_site_id
_symmetry_equiv_pos_as_xyz
  1	'x, -y, z+.5'
  2	'-x, -y, z+.5'
  3	'-x, y, z'
  4	'x, y, z'
  5	'x+.5, -y+.5, z+.5'
  6	'-x+.5, -y+.5, z+.5'
  7	'-x+.5, y+.5, z'
  8	'x+.5, y+.5, z'
loop_
_atom_type_symbol
_atom_type_oxidation_number
Al3+	3
O2-	-2
P5+	5
loop_
_atom_site_label
_atom_site_type_symbol
_atom_site_symmetry_multiplicity
_atom_site_Wyckoff_symbol
_atom_site_fract_x
_atom_site_fract_y
_atom_site_fract_z
_atom_site_occupancy
_atom_site_attached_hydrogens
_atom_site_U_iso_or_equiv
Al1 Al3+ 4 a 0 0.0798(11) 0.442(2) 1. 0 0.03(1) 
Al2 Al3+ 8 b 0.1525(3) 0.2101(8) 0.447(2) 1. 0 0.03(1) 
Al3 Al3+ 8 b 0.3156(3) 0.0995(9) 0.458(3) 1. 0 0.03(1) 
Al4 Al3+ 8 b 0.0891(3) 0.1136(9) 0.985(2) 1. 0 0.03(1) 
Al5 Al3+ 8 b 0.2718(3) 0.4002(8) 0.473(3) 1. 0 0.03(1) 
P1 P5+ 8 b 0.0833(3) 0.0897(8) 0.611(2) 1. 0 0.02(1) 
P2 P5+ 8 b 0.2232(3) 0.0955(8) 0.599(2) 1. 0 0.02(1) 
P3 P5+ 4 a 0 0.8822(10) 0.582(2) 1. 0 0.02(1) 
P4 P5+ 8 b 0.1571(4) 0.2214(9) 0.108(3) 1. 0 0.02(1) 
P5 P5+ 8 b 0.1796(4) 0.3954(9) 0.595(3) 1. 0 0.02(1) 
O1 O2- 4 a 0 0.9505(10) 0.462(3) 1. 0 0.08(1) 
O2 O2- 8 b 0.0433(2) 0.1189(11) 0.538(3) 1. 0 0.08(1) 
O3 O2- 4 a 0 0.1043(12) 0.251(2) 1. 0 0.08(1) 
O4 O2- 8 b 0.0979(5) 0.9872(9) 0.585(3) 1. 0 0.08(1) 
O5 O2- 8 b 0.1171(4) 0.1526(11) 0.564(3) 1. 0 0.08(1) 
O6 O2- 8 b 0.0782(4) 0.0898(11) 0.790(2) 1. 0 0.08(1) 
O7 O2- 8 b 0.1387(4) 0.1948(10) 0.263(2) 1. 0 0.08(1) 
O8 O2- 8 b 0.1987(4) 0.1631(10) 0.491(3) 1. 0 0.08(1) 
O9 O2- 8 b 0.1513(5) 0.3253(8) 0.506(3) 1. 0 0.08(1) 
O10 O2- 8 b 0.2092(4) 0.9990(11) 0.547(3) 1. 0 0.08(1) 
O11 O2- 8 b 0.2659(3) 0.1020(13) 0.523(3) 1. 0 0.08(1) 
O12 O2- 8 b 0.2205(5) 0.1175(10) 0.772(3) 1. 0 0.08(1) 
O13 O2- 8 b 0.3351(5) 0.9913(8) 0.528(3) 1. 0 0.08(1) 
O14 O2- 8 b 0.3214(5) 0.1138(11) 0.269(3) 1. 0 0.08(1) 
O15 O2- 8 b 0.9596(2) 0.8304(10) 0.5458 1. 0 0.08(1) 
O16 O2- 8 b 0.1290(4) 0.1842(12) 0.972(13) 1. 0 0.08(1) 
O17 O2- 8 b 0.1999(4) 0.1808(10) 0.089(3) 1. 0 0.08(1) 
O18 O2- 8 b 0.3424(6) 0.1725(8) 0.595(3) 1. 0 0.08(1) 
O19 O2- 8 b 0.2217(3) 0.3874(13) 0.513(3) 1. 0 0.08(1) 

#End of data_74462-ICSD


