data_9151-ICSD
#?2014 by Fachinformationszentrum Karlsruhe, and the U.S. Secretary of 
#Commerce on behalf of the United States.  All rights reserved.
_database_code_ICSD                9151
_audit_creation_date               1980/01/01
_audit_update_record               2004/10/01
_chemical_name_systematic
;
Potassium Dihydrogenphosphate(III) - Hydrogenfluoride (1/1)
;
_chemical_formula_structural       '(K (H2 P O3)) (H F)'
_chemical_formula_sum              'H3 F1 K1 O3 P1'
_publ_section_title
;
Die Wasserstoffbruecke vom Tyo F-H O. Die Kristallstruktur von K P H 
O2 (O H) (H F)
;
loop_
_citation_id
_citation_journal_abbrev
_citation_year
_citation_journal_volume
_citation_page_first
_citation_page_last
_citation_journal_id_ASTM
primary 'Acta Crystallographica B (24,1968-38,1982)' 1971 27 1982 1986 ACBCAR
_publ_author_name                  'Altenburg, H.;Mootz, D.'
_cell_length_a                     6.692(2)
_cell_length_b                     11.040(2)
_cell_length_c                     7.841(5)
_cell_angle_alpha                  90.
_cell_angle_beta                   127.88(2)
_cell_angle_gamma                  90.
_cell_volume                       457.23
_cell_formula_units_Z              4
_symmetry_space_group_name_H-M     'P 1 21/c 1'
_symmetry_Int_Tables_number        14
_refine_ls_R_factor_all            .056
loop_
_symmetry_equiv_pos_site_id
_symmetry_equiv_pos_as_xyz
  1	'x, -y+.5, z+.5'
  2	'-x, -y, -z'
  3	'-x, y+.5, -z+.5'
  4	'x, y, z'
loop_
_atom_type_symbol
_atom_type_oxidation_number
F1-	-1
H1+	1
K1+	1
O2-	-2
P3+	3
loop_
_atom_site_label
_atom_site_type_symbol
_atom_site_symmetry_multiplicity
_atom_site_Wyckoff_symbol
_atom_site_fract_x
_atom_site_fract_y
_atom_site_fract_z
_atom_site_occupancy
_atom_site_attached_hydrogens
_atom_site_B_iso_or_equiv
K1 K1+ 4 e 0.06765(13) 0.18023(6) 0.11877(11) 1. 0 0 
P1 P3+ 4 e 0.39918(14) 0.45511(7) 0.19510(12) 1. 0 0 
O1 O2- 4 e 0.6624(4) 0.4916(2) 0.3840(4) 1. 0 0 
O2 O2- 4 e 0.2300(5) 0.4239(3) 0.2644(4) 1. 0 0 
O3 O2- 4 e 0.3796(5) 0.3477(3) 0.0659(4) 1. 0 0 
F1 F1- 4 e 0.7572(5) 0.2368(3) 0.2068(4) 1. 0 0 
H1 H1+ 4 e 0.299 0.552 0.075 1. 0 1.5 
H2 H1+ 4 e 0.293 0.454 0.395 1. 0 2. 
H3 H1+ 4 e 0.582 0.252 0.123 1. 0 3. 

loop_
_atom_site_aniso_label
_atom_site_aniso_type_symbol
_atom_site_aniso_B_11
_atom_site_aniso_B_22
_atom_site_aniso_B_33
_atom_site_aniso_B_12
_atom_site_aniso_B_13
_atom_site_aniso_B_23
K1 K1+ 0.71(4) 0.97(4) 1.43(4) 0.11(2) 0.24(3) -.16(2)
P1 P3+ 0.22(4) 0.87(4) 1.01(5) 0.02(2) -.06(4) -.06(2)
O1 O2- 0.39(9) 1.57(10) 1.61(10) -.53(7) 0.28(8) -.48(7)
O2 O2- 0.80(9) 2.71(12) 2.08(11) -1.28(8) 0.67(9) -1.33(9)
O3 O2- 0.80(9) 2.44(11) 1.64(10) 0.05(8) 0.01(8) -1.08(9)
F1 F1- 1.36(9) 4.09(14) 3.18(11) 0.76(8) 0.91(9) -.98(9)
#End of data_9151-ICSD


