data_202218-ICSD
#?2014 by Fachinformationszentrum Karlsruhe, and the U.S. Secretary of 
#Commerce on behalf of the United States.  All rights reserved.
_database_code_ICSD                202218
_audit_creation_date               1988/12/19
_chemical_name_systematic          'Silver Oxide (3/4)'
_chemical_formula_structural       'Ag3 O4'
_chemical_formula_sum              'Ag3 O4'
_publ_section_title
;
Darstellung und Kristallstruktur von Ag3 O4
;
loop_
_citation_id
_citation_journal_abbrev
_citation_year
_citation_journal_volume
_citation_page_first
_citation_page_last
_citation_journal_id_ASTM
primary 'Journal of Solid State Chemistry' 1987 67 278 284 JSSCBI
_publ_author_name                  'Standke, B.;Jansen, M.'
_cell_length_a                     3.5787(3)
_cell_length_b                     9.2079(5)
_cell_length_c                     5.6771(3)
_cell_angle_alpha                  90.
_cell_angle_beta                   106.135(5)
_cell_angle_gamma                  90.
_cell_volume                       179.7
_cell_formula_units_Z              2
_symmetry_space_group_name_H-M     'P 1 21/c 1'
_symmetry_Int_Tables_number        14
_refine_ls_R_factor_all            .0414
loop_
_symmetry_equiv_pos_site_id
_symmetry_equiv_pos_as_xyz
  1	'x, -y+.5, z+.5'
  2	'-x, -y, -z'
  3	'-x, y+.5, -z+.5'
  4	'x, y, z'
loop_
_atom_type_symbol
_atom_type_oxidation_number
Ag2+	2
Ag3+	3
O2-	-2
loop_
_atom_site_label
_atom_site_type_symbol
_atom_site_symmetry_multiplicity
_atom_site_Wyckoff_symbol
_atom_site_fract_x
_atom_site_fract_y
_atom_site_fract_z
_atom_site_occupancy
_atom_site_attached_hydrogens
Ag1 Ag2+ 2 a 0 0 0 1. 0 
Ag2 Ag3+ 4 e 0.7151(2) 0.3580(1) 0.9519(1) 1. 0 
O1 O2- 4 e 0.5121(19) 0.4501(8) 0.2264(10) 1. 0 
O2 O2- 4 e 0.9634(17) 0.1881(9) 0.1756(11) 1. 0 

loop_
_atom_site_aniso_label
_atom_site_aniso_type_symbol
_atom_site_aniso_U_11
_atom_site_aniso_U_22
_atom_site_aniso_U_33
_atom_site_aniso_U_12
_atom_site_aniso_U_13
_atom_site_aniso_U_23
Ag1 Ag2+ 0.0091(6) 0.0078(5) 0.0054(4) 0.0004(3) 0.0022(3) -.0004(3)
Ag2 Ag3+ 0.0099(5) 0.0082(4) 0.0059(3) 0.0015(2) 0.0027(2) 0.0004(2)
O1 O2- 0.0152(31) 0.0107(34) 0.0067(25) 0.0045(25) 0.0018(19) 0.0039(22)
O2 O2- 0.0143(33) 0.0148(37) 0.0045(21) 0.0012(25) 0.0050(19) 0.0019(20)
#End of data_202218-ICSD


