data_81082-ICSD
#?2014 by Fachinformationszentrum Karlsruhe, and the U.S. Secretary of 
#Commerce on behalf of the United States.  All rights reserved.
_database_code_ICSD                81082
_audit_creation_date               1997/05/13
_audit_update_record               2003/04/01
_chemical_name_systematic
;
Dipotassium Dicobalt Tris(sulfate(VI))
;
_chemical_formula_structural       'K2 Co2 (S O4)3'
_chemical_formula_sum              'Co2 K2 O12 S3'
_publ_section_title
;
Structural study of phase transition in K2 Co2 (S O4)3 crystals
;
loop_
_citation_id
_citation_journal_abbrev
_citation_year
_citation_journal_volume
_citation_journal_issue
_citation_page_first
_citation_page_last
_citation_journal_id_ASTM
primary 'Journal of the Physical Society of Japan' 1995 64 12 4726 4732 JUPSAU
2 'Phase Transition' 1992 38- 127 220 PHTRDP
_publ_author_name                  'Moriyoshi, C.;Itoh, K.;Hikita, T.'
_cell_length_a                     9.9228(12)
_cell_length_b                     9.9228(12)
_cell_length_c                     9.9228(12)
_cell_angle_alpha                  90.
_cell_angle_beta                   90.
_cell_angle_gamma                  90.
_cell_volume                       977.02
_cell_formula_units_Z              4
_symmetry_space_group_name_H-M     'P 21 3'
_symmetry_Int_Tables_number        198
_refine_ls_R_factor_all            .041
loop_
_symmetry_equiv_pos_site_id
_symmetry_equiv_pos_as_xyz
  1	'-z+.5, -x, y+.5'
  2	'-y+.5, -z, x+.5'
  3	'-x+.5, -y, z+.5'
  4	'-z, x+.5, -y+.5'
  5	'-y, z+.5, -x+.5'
  6	'-x, y+.5, -z+.5'
  7	'z+.5, -x+.5, -y'
  8	'y+.5, -z+.5, -x'
  9	'x+.5, -y+.5, -z'
 10	'z, x, y'
 11	'y, z, x'
 12	'x, y, z'
loop_
_atom_type_symbol
_atom_type_oxidation_number
Co2+	2
K1+	1
O2-	-2
S6+	6
loop_
_atom_site_label
_atom_site_type_symbol
_atom_site_symmetry_multiplicity
_atom_site_Wyckoff_symbol
_atom_site_fract_x
_atom_site_fract_y
_atom_site_fract_z
_atom_site_occupancy
_atom_site_attached_hydrogens
Co1 Co2+ 4 a 0.33515(8) 0.33515(8) 0.33515(8) 1. 0 
Co2 Co2+ 4 a 0.59503(9) 0.59503(9) 0.59503(9) 1. 0 
K1 K1+ 4 a 0.81495(19) 0.81495(19) 0.81495(19) 1. 0 
K2 K1+ 4 a 0.04924(21) 0.04924(21) 0.04924(21) 1. 0 
S1 S6+ 12 b 0.21827(5) 0.37583(5) 0.01785(5) 1. 0 
O1 O2- 12 b 0.30907(23) 0.27459(24) 0.96144(29) 1. 0 
O2 O2- 12 b 0.07844(19) 0.32962(23) 0.00340(24) 1. 0 
O3 O2- 12 b 0.24104(30) 0.49989(28) 0.94063(30) 1. 0 
O4 O2- 12 b 0.25024(26) 0.40623(28) 0.15798(21) 1. 0 

loop_
_atom_site_aniso_label
_atom_site_aniso_type_symbol
_atom_site_aniso_U_11
_atom_site_aniso_U_22
_atom_site_aniso_U_33
_atom_site_aniso_U_12
_atom_site_aniso_U_13
_atom_site_aniso_U_23
Co1 Co2+ 0.0107(2) 0.0107(2) 0.0107(2) -0.0014(2) -0.0014(2) -0.0014(2)
Co2 Co2+ 0.0107(2) 0.0107(2) 0.0107(2) -0.0002(2) -0.0002(2) -0.0002(2)
K1 K1+ 0.0221(5) 0.0221(5) 0.0221(5) -0.0016(5) -0.0016(5) -0.0016(5)
K2 K1+ 0.0238(6) 0.0238(6) 0.0238(6) 0.0006(6) 0.0006(6) 0.0006(6)
S1 S6+ 0.0083(1) 0.0088(1) 0.0092(2) 0.0014(1) 0.0000(1) 0.0008(1)
O1 O2- 0.0211(8) 0.0242(9) 0.0386(12) 0.0118(7) -0.0005(9) -0.0126(9)
O2 O2- 0.0102(6) 0.0265(9) 0.032(1) -0.0048(6) 0.0008(6) -0.0100(8)
O3 O2- 0.0317(11) 0.0263(10) 0.0411(14) 0.0024(9) 0.0043(11) 0.023(1)
O4 O2- 0.0312(10) 0.0374(12) 0.0142(7) 0.0064(10) -0.0108(7) -0.0078(8)
#End of data_81082-ICSD


