data_416154-ICSD
#?2014 by Fachinformationszentrum Karlsruhe, and the U.S. Secretary of 
#Commerce on behalf of the United States.  All rights reserved.
_database_code_ICSD                416154
_audit_creation_date               2007/08/01
_chemical_name_systematic          'Potassium Dihydroxotriborate'
_chemical_formula_structural       'K B3 O4 (O H)2'
_chemical_formula_sum              'H2 B3 K1 O6'
_publ_section_title
;
Synthesis and crystal structure of a novel potassium borate with an 
unprecendented [B12 O16 (OH)]4- anion
;
loop_
_citation_id
_citation_journal_abbrev
_citation_year
_citation_journal_volume
_citation_page_first
_citation_page_last
_citation_journal_id_ASTM
primary 'Zeitschrift fuer Anorganische und Allgemeine Chemie (1950) (DE)'
 2006 632 1586 1590 ZAACAB
_publ_author_name
;
Wang Guoming;Sun Yanqiong;Zheng Shou Tian;Yang Guoyu
;
_cell_length_a                     11.3482(3)
_cell_length_b                     11.3482(3)
_cell_length_c                     15.9169(6)
_cell_angle_alpha                  90.
_cell_angle_beta                   90.
_cell_angle_gamma                  90.
_cell_volume                       2049.8
_cell_formula_units_Z              16
_symmetry_space_group_name_H-M     'P 4/n c c Z'
_symmetry_Int_Tables_number        130
_refine_ls_R_factor_all            .0981
loop_
_symmetry_equiv_pos_site_id
_symmetry_equiv_pos_as_xyz
  1	'y+.5, x+.5, -z+.5'
  2	'-y, x+.5, -z'
  3	'y+.5, -x, -z'
  4	'-y, -x, -z+.5'
  5	'x+.5, y+.5, -z'
  6	'-x, y+.5, -z+.5'
  7	'x+.5, -y, -z+.5'
  8	'-x, -y, -z'
  9	'-y+.5, -x+.5, z+.5'
 10	'y, -x+.5, z'
 11	'-y+.5, x, z'
 12	'y, x, z+.5'
 13	'-x+.5, -y+.5, z'
 14	'x, -y+.5, z+.5'
 15	'-x+.5, y, z+.5'
 16	'x, y, z'
loop_
_atom_type_symbol
_atom_type_oxidation_number
B3+	3
H1+	1
K1+	1
O2-	-2
loop_
_atom_site_label
_atom_site_type_symbol
_atom_site_symmetry_multiplicity
_atom_site_Wyckoff_symbol
_atom_site_fract_x
_atom_site_fract_y
_atom_site_fract_z
_atom_site_occupancy
_atom_site_attached_hydrogens
_atom_site_U_iso_or_equiv
K1 K1+ 4 a -0.2500 0.2500 0.7500 1 0 0.0216(9) 
K2 K1+ 4 c -0.2500 0.7500 0.74283(16) 1 0 0.0207(9) 
K3 K1+ 4 b 0.2500 0.7500 0.5000 1 0 0.0318(10) 
K4 K1+ 4 c -0.2500 0.7500 0.49746(19) 1 0 0.0340(10) 
B1 B3+ 16 g 0.0123(8) 0.6950(9) 0.6131(5) 1 0 0.040(2) 
B2 B3+ 16 g -0.0927(7) 0.5055(7) 0.6457(5) 1 0 0.0267(16) 
B3 B3+ 16 g 0.1155(5) 0.5040(5) 0.6400(4) 1 0 0.0120(13) 
O1 O2- 16 g 0.0104(4) 0.7192(5) 0.5252(3) 1 0 0.0327(13) 
H1 H1+ 16 g -0.0477 0.7592 0.5139 1 0 0.049 
O2 O2- 16 g -0.0941(5) 0.6339(4) 0.6344(3) 1 0 0.0415(15) 
O3 O2- 16 g 0.1168(5) 0.6214(5) 0.6285(3) 1 0 0.0376(15) 
O4 O2- 16 g -0.1999(4) 0.4499(5) 0.6544(3) 1 0 0.0399(15) 
O5 O2- 16 g 0.0036(3) 0.4488(4) 0.6494(3) 1 0 0.0273(12) 
O6 O2- 16 g 0.2086(4) 0.4362(6) 0.6464(3) 1 0 0.0440(15) 
H2 H1+ 16 g 0.2682 0.4771 0.6458 1 0 0.066 

loop_
_atom_site_aniso_label
_atom_site_aniso_type_symbol
_atom_site_aniso_U_11
_atom_site_aniso_U_22
_atom_site_aniso_U_33
_atom_site_aniso_U_12
_atom_site_aniso_U_13
_atom_site_aniso_U_23
K1 K1+ 0.0181(11) 0.0181(11) 0.0287(15) 0.0007(9) 0.000 0.000
K2 K1+ 0.0218(11) 0.0218(11) 0.0185(14) 0.000 0.000 0.000
K3 K1+ 0.0334(13) 0.0334(13) 0.0285(16) 0.000 0.000 0.000
K4 K1+ 0.0355(13) 0.0355(13) 0.0310(17) 0.000 0.000 0.000
B1 B3+ 0.062(6) 0.039(5) 0.020(4) -0.020(4) -0.002(3) 0.008(3)
B2 B3+ 0.013(3) 0.035(3) 0.032(3) -0.001(2) 0.000(2) 0.006(2)
B3 B3+ 0.0108(16) 0.0124(16) 0.0128(15) -0.0015(9) -0.0020(10) 0.0006(9)
O1 O2- 0.037(3) 0.041(3) 0.020(2) -0.0024(18) -0.0041(18) 0.011(2)
O2 O2- 0.041(3) 0.022(3) 0.062(3) 0.014(2) 0.018(2) 0.012(2)
O3 O2- 0.037(3) 0.022(3) 0.053(3) -0.008(2) -0.011(2) 0.006(2)
O4 O2- 0.024(3) 0.045(3) 0.050(3) 0.008(2) 0.005(2) 0.023(3)
O5 O2- 0.025(3) 0.014(2) 0.043(3) -0.0041(16) 0.0015(17) 0.004(2)
O6 O2- 0.014(2) 0.061(4) 0.057(3) -0.002(2) 0.003(2) 0.010(3)
#End of data_416154-ICSD


