data_415753-ICSD
#?2014 by Fachinformationszentrum Karlsruhe, and the U.S. Secretary of 
#Commerce on behalf of the United States.  All rights reserved.
_database_code_ICSD                415753
_audit_creation_date               2006/10/01
_chemical_name_systematic          'Potassium Pentaoxoferrate(III)'
_chemical_formula_structural       'K17 Fe5 O16'
_chemical_formula_sum              'Fe5 K17 O16'
_publ_section_title
;
K5 [Fe O4] und K17 [Fe5 O16]: Zwei neue Kalium-Oxoferrate(III)
;
loop_
_citation_id
_citation_journal_abbrev
_citation_year
_citation_journal_volume
_citation_journal_issue
_citation_page_first
_citation_page_last
_citation_journal_id_ASTM
primary 'Zeitschrift fuer Naturforschung, B: Chemical Sciences'
 2005 60 12 1224 1230 ZNBSEN
_publ_author_name                  'Frisch, G.;Roehr, C.'
_cell_length_a                     6.7171(5)
_cell_length_b                     35.608(3)
_cell_length_c                     6.7081(5)
_cell_angle_alpha                  90.00
_cell_angle_beta                   119.687(5)
_cell_angle_gamma                  90.00
_cell_volume                       1393.86
_cell_formula_units_Z              2
_symmetry_space_group_name_H-M     'C 1 m 1'
_symmetry_Int_Tables_number        8
_refine_ls_R_factor_all            .0393
loop_
_symmetry_equiv_pos_site_id
_symmetry_equiv_pos_as_xyz
  1	'x, -y, z'
  2	'x, y, z'
  3	'x+.5, -y+.5, z'
  4	'x+.5, y+.5, z'
loop_
_atom_type_symbol
_atom_type_oxidation_number
Fe3+	3
K1+	1
O2-	-2
loop_
_atom_site_label
_atom_site_type_symbol
_atom_site_symmetry_multiplicity
_atom_site_Wyckoff_symbol
_atom_site_fract_x
_atom_site_fract_y
_atom_site_fract_z
_atom_site_occupancy
_atom_site_attached_hydrogens
_atom_site_U_iso_or_equiv
K1 K1+ 2 a 0.0017(4) 0.0000 0.5841(4) 1 0 0.0281(4) 
K2 K1+ 4 b 0.0005(3) 0.08432(4) 0.8775(3) 1 0 0.0271(3) 
K3 K1+ 4 b 0.0030(2) 0.16841(3) 0.6063(2) 1 0 0.0219(2) 
K4 K1+ 4 b 0.0424(2) 0.45346(4) 0.0000(2) 1 0 0.0186(2) 
K5 K1+ 4 b 0.0446(2) 0.36055(3) 0.0166(2) 1 0 0.0191(2) 
K6 K1+ 4 b 0.0551(2) 0.26617(3) 0.0078(2) 1 0 0.0247(2) 
K7 K1+ 4 b 0.4485(2) 0.22617(3) 0.4607(2) 1 0 0.0275(3) 
K8 K1+ 4 b 0.4591(2) 0.13777(3) 0.4745(2) 1 0 0.0194(2) 
K9 K1+ 4 b 0.4611(2) 0.04596(3) 0.45930(19) 1 0 0.0182(2) 
Fe1 Fe3+ 2 a 0.00085(19) 0.0000 0.07592(17) 1 0 0.0131(2) 
Fe2 Fe3+ 4 b 0.00072(12) 0.089277(17) 0.38626(11) 1 0 0.01344(15) 
Fe3 Fe3+ 4 b 0.00118(13) 0.178998(17) 0.08626(12) 1 0 0.01379(13) 
O1 O2- 2 a 0.7364(9) 0.0000 0.7950(9) 1 0 0.0196(11) 
O2 O2- 2 a 0.2684(9) 0.0000 0.0605(9) 1 0 0.0189(10) 
O3 O2- 4 b -0.0001(8) 0.04293(11) 0.2435(7) 1 0 0.0168(5) 
O4 O2- 4 b 0.2647(7) 0.09245(10) 0.6687(6) 1 0 0.0187(8) 
O5 O2- 4 b 0.2364(7) 0.40743(9) 0.4061(7) 1 0 0.0185(8) 
O6 O2- 4 b 0.0017(7) 0.12864(10) 0.1976(6) 1 0 0.0193(7) 
O7 O2- 4 b 0.0062(7) 0.21312(10) 0.3008(6) 1 0 0.0209(7) 
O8 O2- 4 b 0.2351(6) 0.31418(9) 0.8061(6) 1 0 0.0208(7) 
O9 O2- 4 b 0.2675(6) 0.18605(9) 0.0682(6) 1 0 0.0202(7) 

loop_
_atom_site_aniso_label
_atom_site_aniso_type_symbol
_atom_site_aniso_U_11
_atom_site_aniso_U_22
_atom_site_aniso_U_33
_atom_site_aniso_U_12
_atom_site_aniso_U_13
_atom_site_aniso_U_23
K1 K1+ 0.0338(10) 0.0396(9) 0.0156(8) 0.000 0.0157(8) 0.000
K2 K1+ 0.0328(7) 0.0341(6) 0.0190(6) -0.0003(5) 0.0163(6) 0.0011(5)
K3 K1+ 0.0281(5) 0.0228(4) 0.0189(5) -0.0008(5) 0.0147(4) 0.0002(4)
K4 K1+ 0.0148(6) 0.0205(4) 0.0190(6) -0.0003(4) 0.0072(5) -0.0003(4)
K5 K1+ 0.0157(5) 0.0208(5) 0.0205(5) -0.0012(4) 0.0086(5) -0.0006(4)
K6 K1+ 0.0236(6) 0.0238(5) 0.0297(6) 0.0013(4) 0.0153(5) 0.0056(4)
K7 K1+ 0.0266(7) 0.0240(5) 0.0243(6) -0.0028(5) 0.0068(5) 0.0072(4)
K8 K1+ 0.0159(6) 0.0206(5) 0.0214(6) -0.0010(4) 0.0091(5) -0.0005(4)
K9 K1+ 0.0149(6) 0.0205(5) 0.0179(5) -0.0004(4) 0.0071(4) 0.0009(4)
Fe1 Fe3+ 0.0130(5) 0.0139(4) 0.0126(5) 0.000 0.0064(5) 0.000
Fe2 Fe3+ 0.0132(4) 0.0142(3) 0.0135(4) 0.0006(3) 0.0070(3) -0.0005(3)
Fe3 Fe3+ 0.0138(3) 0.0142(3) 0.0139(3) 0.0002(3) 0.0072(3) 0.0003(3)
O1 O2- 0.019(3) 0.022(2) 0.017(3) 0.000 0.009(2) 0.000
O2 O2- 0.015(3) 0.022(2) 0.024(3) 0.000 0.013(2) 0.000
O3 O2- 0.0181(13) 0.0134(12) 0.0188(13) -0.0015(10) 0.0092(11) -0.0067(10)
O4 O2- 0.018(2) 0.0259(18) 0.0084(18) 0.0002(13) 0.0031(16) -0.0010(12)
O5 O2- 0.017(2) 0.0266(19) 0.016(2) 0.0003(13) 0.0115(17) -0.0006(13)
O6 O2- 0.0196(17) 0.0164(15) 0.0214(19) -0.0026(14) 0.0097(16) 0.0036(13)
O7 O2- 0.0307(18) 0.0196(15) 0.0171(16) -0.0010(13) 0.0155(15) -0.0008(12)
O8 O2- 0.0157(17) 0.0266(17) 0.0175(17) -0.0016(13) 0.0062(15) 0.0014(13)
O9 O2- 0.0199(18) 0.0237(17) 0.0209(18) -0.0035(13) 0.0130(15) -0.0013(13)
#End of data_415753-ICSD


