data_36347-ICSD
#?2014 by Fachinformationszentrum Karlsruhe, and the U.S. Secretary of 
#Commerce on behalf of the United States.  All rights reserved.
_database_code_ICSD                36347
_audit_creation_date               1980/01/01
_audit_update_record               2008/08/01
_chemical_name_systematic
;
Pentasilver Trithioantimonate Sulfide
;
_chemical_formula_structural       'Ag5 (Sb S3) S'
_chemical_formula_sum              'Ag5 S4 Sb1'
_chemical_name_mineral             Stephanite
_publ_section_title                'Die Kristallstruktur von Stephanit'
loop_
_citation_id
_citation_journal_abbrev
_citation_year
_citation_journal_volume
_citation_page_first
_citation_page_last
_citation_journal_id_ASTM
primary 'Acta Crystallographica B (24,1968-38,1982)' 1970 26 201 207 ACBCAR
_publ_author_name                  'Ribar, B.;Nowacki, W.'
_cell_length_a                     7.837(3)
_cell_length_b                     12.467(6)
_cell_length_c                     8.538(2)
_cell_angle_alpha                  90.
_cell_angle_beta                   90.
_cell_angle_gamma                  90.
_cell_volume                       834.2
_cell_formula_units_Z              4
_symmetry_space_group_name_H-M     'C m c 21'
_symmetry_Int_Tables_number        36
_refine_ls_R_factor_all            .094
loop_
_symmetry_equiv_pos_site_id
_symmetry_equiv_pos_as_xyz
  1	'x, -y, z+.5'
  2	'-x, -y, z+.5'
  3	'-x, y, z'
  4	'x, y, z'
  5	'x+.5, -y+.5, z+.5'
  6	'-x+.5, -y+.5, z+.5'
  7	'-x+.5, y+.5, z'
  8	'x+.5, y+.5, z'
loop_
_atom_type_symbol
_atom_type_oxidation_number
Ag1+	1
S2-	-2
Sb3+	3
loop_
_atom_site_label
_atom_site_type_symbol
_atom_site_symmetry_multiplicity
_atom_site_Wyckoff_symbol
_atom_site_fract_x
_atom_site_fract_y
_atom_site_fract_z
_atom_site_occupancy
_atom_site_attached_hydrogens
Sb1 Sb3+ 4 a 0 0.33072(32) 0.09900(54) 1. 0 
Ag1 Ag1+ 4 a 0.5 0.35543(62) 0.1692(11) 1. 0 
Ag2 Ag1+ 8 b 0.18902(72) 0.06219(50) 0.32683(68) 1. 0 
Ag3 Ag1+ 8 b 0.31406(63) 0.12312(40) 0.01357(52) 1. 0 
S1 S2- 4 a 0 0.0303(11) 0.0245(17) 1. 0 
S2 S2- 4 a 0.5 0.0152(11) 0.2059(14) 1. 0 
S3 S2- 8 b 0.2301(12) 0.26679(76) 0.2731(14) 1. 0 

#End of data_36347-ICSD


