data_65142-ICSD
#?2014 by Fachinformationszentrum Karlsruhe, and the U.S. Secretary of 
#Commerce on behalf of the United States.  All rights reserved.
_database_code_ICSD                65142
_audit_creation_date               1989/06/19
_chemical_name_systematic
;
Tripotassium Tetraseleno Antimonate
;
_chemical_formula_structural       'K3 Sb Se4'
_chemical_formula_sum              'K3 Sb1 Se4'
_publ_section_title
;
Selenoantimonate(V): Darstellung und Struktur von Na3SbSe4, K3SbSe4 
und (Ba(En)4)2(Ba(En)3)(SbSe4)2
;
loop_
_citation_id
_citation_journal_abbrev
_citation_year
_citation_journal_volume
_citation_page_first
_citation_page_last
_citation_journal_id_ASTM
primary 'Zeitschrift fuer Naturforschung, B: Chemical Sciences'
 1989 44 249 256 ZNBSEN
_publ_author_name                  'Eisenmann, B.;Zagler, R.'
_cell_length_a                     11.375(4)
_cell_length_b                     11.375(4)
_cell_length_c                     13.596(4)
_cell_angle_alpha                  90.
_cell_angle_beta                   90.
_cell_angle_gamma                  120.
_cell_volume                       1523.51
_cell_formula_units_Z              6
_symmetry_space_group_name_H-M     'R 3 c H'
_symmetry_Int_Tables_number        161
_refine_ls_R_factor_all            .055
loop_
_symmetry_equiv_pos_site_id
_symmetry_equiv_pos_as_xyz
  1	'-x+y, y, z+.5'
  2	'x, x-y, z+.5'
  3	'-y, -x, z+.5'
  4	'-x+y, -x, z'
  5	'-y, x-y, z'
  6	'x, y, z'
  7	'-x+y+.6666, y+.3333, z+.8333'
  8	'-x+y+.3333, y+.6666, z+.1666'
  9	'x+.6666, x-y+.3333, z+.8333'
 10	'x+.3333, x-y+.6666, z+.1666'
 11	'-y+.6666, -x+.3333, z+.8333'
 12	'-y+.3333, -x+.6666, z+.1666'
 13	'-x+y+.6666, -x+.3333, z+.3333'
 14	'-x+y+.3333, -x+.6666, z+.6666'
 15	'-y+.6666, x-y+.3333, z+.3333'
 16	'-y+.3333, x-y+.6666, z+.6666'
 17	'x+.6666, y+.3333, z+.3333'
 18	'x+.3333, y+.6666, z+.6666'
loop_
_atom_type_symbol
_atom_type_oxidation_number
K1+	1
Sb5+	5
Se2-	-2
loop_
_atom_site_label
_atom_site_type_symbol
_atom_site_symmetry_multiplicity
_atom_site_Wyckoff_symbol
_atom_site_fract_x
_atom_site_fract_y
_atom_site_fract_z
_atom_site_occupancy
_atom_site_attached_hydrogens
_atom_site_U_iso_or_equiv
K1 K1+ 18 b 0.4724(6) 0.9973(8) 0.9965(7) 1. 0 0.0462(26) 
Sb1 Sb5+ 6 a 0 0 0 1. 0 0.0143(6) 
Se1 Se2- 18 b 0.1329(2) 0.8964(2) 0.0603(3) 1. 0 0.0235(9) 
Se2 Se2- 6 a 0 0 0.8181(3) 1. 0 0.0262(12) 

#End of data_65142-ICSD


