data_420550-ICSD
#?2014 by Fachinformationszentrum Karlsruhe, and the U.S. Secretary of 
#Commerce on behalf of the United States.  All rights reserved.
_database_code_ICSD                420550
_audit_creation_date               2010/02/01
_chemical_name_systematic          'Dibarium Zinc Digermanate'
_chemical_formula_structural       'Ba2 Zn (Ge2 O7)'
_chemical_formula_sum              'Ba2 Ge2 O7 Zn1'
_publ_section_title
;
Optical properties of the germanate melilites Sr2 Mg Ge2 O7, Sr2 Zn 
Ge2 O7 and Ba2 Zn Ge2 O7
;
loop_
_citation_id
_citation_journal_abbrev
_citation_year
_citation_journal_volume
_citation_journal_issue
_citation_page_first
_citation_page_last
_citation_journal_id_ASTM
primary 'Crystal Research and Technology' 2009 44 6 603 612 CRTEDF
_publ_author_name
;
Becker, P.;Held, P.;Liebertz, J.;Bohaty, L.
;
_cell_length_a                     8.3460(6)
_cell_length_b                     8.3460(6)
_cell_length_c                     5.5522(6)
_cell_angle_alpha                  90.
_cell_angle_beta                   90.
_cell_angle_gamma                  90.
_cell_volume                       386.74
_cell_formula_units_Z              2
_symmetry_space_group_name_H-M     'P -4 21 m'
_symmetry_Int_Tables_number        113
_refine_ls_R_factor_all            .0128
loop_
_symmetry_equiv_pos_site_id
_symmetry_equiv_pos_as_xyz
  1	'-y+.5, -x+.5, z'
  2	'y, -x, -z'
  3	'y+.5, x+.5, z'
  4	'-y, x, -z'
  5	'x+.5, -y+.5, -z'
  6	'-x, -y, z'
  7	'-x+.5, y+.5, -z'
  8	'x, y, z'
loop_
_atom_type_symbol
_atom_type_oxidation_number
Ba2+	2
Ge4+	4
O2-	-2
Zn2+	2
loop_
_atom_site_label
_atom_site_type_symbol
_atom_site_symmetry_multiplicity
_atom_site_Wyckoff_symbol
_atom_site_fract_x
_atom_site_fract_y
_atom_site_fract_z
_atom_site_occupancy
_atom_site_attached_hydrogens
_atom_site_U_iso_or_equiv
Ba1 Ba2+ 4 e 0.334919(19) 0.165081(19) 0.50720(4) 1 0 0.00967(7) 
Ge1 Ge4+ 4 e 0.14097(4) 0.35903(4) 0.96037(7) 1 0 0.00647(9) 
Zn1 Zn2+ 2 a 0.0000 0.0000 0.0000 1 0 0.00831(13) 
O1 O2- 2 c 0.5000 0.0000 0.1571(7) 1 0 0.0110(9) 
O2 O2- 4 e 0.1390(3) 0.3610(3) 0.2705(4) 1 0 0.0120(6) 
O3 O2- 8 f 0.0792(3) 0.1832(3) 0.8124(4) 1 0 0.0114(5) 

loop_
_atom_site_aniso_label
_atom_site_aniso_type_symbol
_atom_site_aniso_U_11
_atom_site_aniso_U_22
_atom_site_aniso_U_33
_atom_site_aniso_U_12
_atom_site_aniso_U_13
_atom_site_aniso_U_23
Ba1 Ba2+ 0.01012(8) 0.01012(8) 0.00877(10) 0.00241(9) 0.00059(7) 
-0.00059(7)
Ge1 Ge4+ 0.00678(12) 0.00678(12) 0.00585(17) 0.00034(16) 0.00000(11) 
0.00000(11)
Zn1 Zn2+ 0.00742(18) 0.00742(18) 0.0101(3) 0.000 0.000 0.000
O1 O2- 0.0131(15) 0.0131(15) 0.0068(18) -0.007(2) 0.000 0.000
O2 O2- 0.0140(10) 0.0140(10) 0.0080(11) 0.0038(17) -0.0010(8) 0.0010(8)
O3 O2- 0.0160(13) 0.0068(11) 0.0114(10) -0.0039(10) 0.0026(8) -0.0017(8)
#End of data_420550-ICSD


