data_67582-ICSD
#?2014 by Fachinformationszentrum Karlsruhe, and the U.S. Secretary of 
#Commerce on behalf of the United States.  All rights reserved.
_database_code_ICSD                67582
_audit_creation_date               1993/08/22
_audit_update_record               2006/04/01
_chemical_name_systematic          'Potassium Thiocyanate'
_chemical_formula_structural       'K (S C N)'
_chemical_formula_sum              'C1 K1 N1 S1'
_publ_section_title
;
Phonon dispersion relations for potassium thiocyanate at and above 
room temperature
;
loop_
_citation_id
_citation_journal_abbrev
_citation_year
_citation_journal_volume
_citation_page_first
_citation_page_last
_citation_journal_id_ASTM
primary 'Journal of Physics: Condensed Matter' 1992 4 7851 7864 JCOMEL
2 'Golden Book of Phase Transitions, Wroclaw' 2002 1 1 123 GBOPT5
3 'Materials Science Forum' 1988 27 113 116 MSFOEP
_publ_author_name
;
Cookson, D.J.;Elcombe, M.M.;Finlayson, T.R.
;
_cell_length_a                     6.707(5)
_cell_length_b                     6.691(5)
_cell_length_c                     7.621(5)
_cell_angle_alpha                  90.
_cell_angle_beta                   90.
_cell_angle_gamma                  90.
_cell_volume                       342
_cell_formula_units_Z              4
_symmetry_space_group_name_H-M     'P b c m'
_symmetry_Int_Tables_number        57
loop_
_symmetry_equiv_pos_site_id
_symmetry_equiv_pos_as_xyz
  1	'x, -y+.5, z+.5'
  2	'-x, y+.5, z'
  3	'x, y, -z+.5'
  4	'-x, -y, -z'
  5	'-x, y+.5, -z+.5'
  6	'x, -y+.5, -z'
  7	'-x, -y, z+.5'
  8	'x, y, z'
loop_
_atom_type_symbol
_atom_type_oxidation_number
C4+	4
K1+	1
N3-	-3
S2-	-2
loop_
_atom_site_label
_atom_site_type_symbol
_atom_site_symmetry_multiplicity
_atom_site_Wyckoff_symbol
_atom_site_fract_x
_atom_site_fract_y
_atom_site_fract_z
_atom_site_occupancy
_atom_site_attached_hydrogens
K1 K1+ 4 c 0.2080(8) 0.25 0 1. 0 
S1 S2- 4 d 0.6050(9) 0.1087(9) 0.25 1. 0 
C1 C4+ 4 d 0.7704(4) 0.2871(3) 0.25 1. 0 
N1 N3- 4 d 0.8890(3) 0.4154(3) 0.25 1. 0 

#End of data_67582-ICSD


