data_414185-ICSD
#?2014 by Fachinformationszentrum Karlsruhe, and the U.S. Secretary of 
#Commerce on behalf of the United States.  All rights reserved.
_database_code_ICSD                414185
_audit_creation_date               2005/10/01
_chemical_name_systematic          'Dirubidium Lithium Thiovanadate'
_chemical_formula_structural       'Rb2 Li V S4'
_chemical_formula_sum              'Li1 Rb2 S4 V1'
_publ_section_title
;
Syntheses and structures of six compounds in the A2 Li M S4 (A = K, 
Rb, Cs; M = V, Nb, Ta) family
;
loop_
_citation_id
_citation_journal_abbrev
_citation_year
_citation_journal_volume
_citation_page_first
_citation_page_last
_citation_journal_id_ASTM
primary 'Journal of Solid State Chemistry' 2005 178 194 199 JSSCBI
_publ_author_name                  'Huang, F.-Q.;Deng, B.;Ibers, J.A.'
_cell_length_a                     5.8134(10)
_cell_length_b                     13.083(2)
_cell_length_c                     23.164(4)
_cell_angle_alpha                  90.00
_cell_angle_beta                   90.00
_cell_angle_gamma                  90.00
_cell_volume                       1761.78
_cell_formula_units_Z              8
_symmetry_space_group_name_H-M     'F d d d Z'
_symmetry_Int_Tables_number        70
_refine_ls_R_factor_all            .0164
loop_
_symmetry_equiv_pos_site_id
_symmetry_equiv_pos_as_xyz
  1	'x+.75, y+.75, -z'
  2	'x+.75, -y, z+.75'
  3	'-x, y+.75, z+.75'
  4	'-x, -y, -z'
  5	'-x+.25, -y+.25, z'
  6	'-x+.25, y, -z+.25'
  7	'x, -y+.25, -z+.25'
  8	'x, y, z'
  9	'x+.75, y+.25, -z+.5'
 10	'x+.25, y+.75, -z+.5'
 11	'x+.25, y+.25, -z'
 12	'x+.75, -y+.5, z+.25'
 13	'x+.25, -y, z+.25'
 14	'x+.25, -y+.5, z+.75'
 15	'-x, y+.25, z+.25'
 16	'-x+.5, y+.75, z+.25'
 17	'-x+.5, y+.25, z+.75'
 18	'-x, -y+.5, -z+.5'
 19	'-x+.5, -y, -z+.5'
 20	'-x+.5, -y+.5, -z'
 21	'-x+.25, -y+.75, z+.5'
 22	'-x+.75, -y+.25, z+.5'
 23	'-x+.75, -y+.75, z'
 24	'-x+.25, y+.5, -z+.75'
 25	'-x+.75, y, -z+.75'
 26	'-x+.75, y+.5, -z+.25'
 27	'x, -y+.75, -z+.75'
 28	'x+.5, -y+.25, -z+.75'
 29	'x+.5, -y+.75, -z+.25'
 30	'x, y+.5, z+.5'
 31	'x+.5, y, z+.5'
 32	'x+.5, y+.5, z'
loop_
_atom_type_symbol
_atom_type_oxidation_number
Li1+	1
Rb1+	1
S2-	-2
V5+	5
loop_
_atom_site_label
_atom_site_type_symbol
_atom_site_symmetry_multiplicity
_atom_site_Wyckoff_symbol
_atom_site_fract_x
_atom_site_fract_y
_atom_site_fract_z
_atom_site_occupancy
_atom_site_attached_hydrogens
_atom_site_U_iso_or_equiv
Rb1 Rb1+ 16 g 0.1250 0.1250 0.446598(9) 1 0 0.01955(9) 
Li1 Li1+ 8 a 0.1250 0.1250 0.1250 1 0 0.0183(11) 
V1 V5+ 8 b 0.1250 0.1250 0.6250 1 0 0.01017(12) 
S1 S2- 32 h 0.34212(6) 0.72014(3) 0.178244(16) 1 0 0.01532(10) 

loop_
_atom_site_aniso_label
_atom_site_aniso_type_symbol
_atom_site_aniso_U_11
_atom_site_aniso_U_22
_atom_site_aniso_U_33
_atom_site_aniso_U_12
_atom_site_aniso_U_13
_atom_site_aniso_U_23
Rb1 Rb1+ 0.02451(13) 0.01979(13) 0.01434(13) -0.00844(7) 0.000 0.000
Li1 Li1+ 0.011(2) 0.017(2) 0.026(3) 0.000 0.000 0.000
V1 V5+ 0.0083(2) 0.0110(2) 0.0112(2) 0.000 0.000 0.000
S1 S2- 0.01240(17) 0.01726(18) 0.0163(2) -0.00126(12) -0.00125(11) 
-0.00374(14)
#End of data_414185-ICSD


