data_9003-ICSD
#?2014 by Fachinformationszentrum Karlsruhe, and the U.S. Secretary of 
#Commerce on behalf of the United States.  All rights reserved.
_database_code_ICSD                9003
_audit_creation_date               1980/01/01
_audit_update_record               2012/08/01
_chemical_name_systematic
;
Dicesium Sodium Hexafluoroferrate(III)
;
_chemical_formula_structural       'Cs2 Na (Fe F6)'
_chemical_formula_sum              'Cs2 F6 Fe1 Na1'
_publ_section_title
;
Einkristall-Strukturdaten einiger Fluoride und Cyanide A2 B M X6 der 
Elpasolithfamilie
;
loop_
_citation_id
_citation_journal_abbrev
_citation_year
_citation_journal_volume
_citation_page_first
_citation_page_last
_citation_journal_id_ASTM
primary
;
Zeitschrift fuer Naturforschung, Teil B. Anorganische Chemie, 
Organische Chemie (2,1947-32,1977)
;
 1975 30 462 464 ZENBAX
_publ_author_name
;
Haegele, R.;Verscharen, W.;Babel, D.
;
_cell_length_a                     6.267
_cell_length_b                     6.267
_cell_length_c                     30.48
_cell_angle_alpha                  90.
_cell_angle_beta                   90.
_cell_angle_gamma                  120.
_cell_volume                       1036.73
_cell_formula_units_Z              6
_symmetry_space_group_name_H-M     'R -3 m H'
_symmetry_Int_Tables_number        166
loop_
_symmetry_equiv_pos_site_id
_symmetry_equiv_pos_as_xyz
  1	'x-y, -y, -z'
  2	'-x, -x+y, -z'
  3	'y, x, -z'
  4	'x-y, x, -z'
  5	'y, -x+y, -z'
  6	'-x, -y, -z'
  7	'-x+y, y, z'
  8	'x, x-y, z'
  9	'-y, -x, z'
 10	'-x+y, -x, z'
 11	'-y, x-y, z'
 12	'x, y, z'
 13	'x-y+.6666, -y+.3333, -z+.3333'
 14	'x-y+.3333, -y+.6666, -z+.6666'
 15	'-x+.6666, -x+y+.3333, -z+.3333'
 16	'-x+.3333, -x+y+.6666, -z+.6666'
 17	'y+.6666, x+.3333, -z+.3333'
 18	'y+.3333, x+.6666, -z+.6666'
 19	'x-y+.6666, x+.3333, -z+.3333'
 20	'x-y+.3333, x+.6666, -z+.6666'
 21	'y+.6666, -x+y+.3333, -z+.3333'
 22	'y+.3333, -x+y+.6666, -z+.6666'
 23	'-x+.6666, -y+.3333, -z+.3333'
 24	'-x+.3333, -y+.6666, -z+.6666'
 25	'-x+y+.6666, y+.3333, z+.3333'
 26	'-x+y+.3333, y+.6666, z+.6666'
 27	'x+.6666, x-y+.3333, z+.3333'
 28	'x+.3333, x-y+.6666, z+.6666'
 29	'-y+.6666, -x+.3333, z+.3333'
 30	'-y+.3333, -x+.6666, z+.6666'
 31	'-x+y+.6666, -x+.3333, z+.3333'
 32	'-x+y+.3333, -x+.6666, z+.6666'
 33	'-y+.6666, x-y+.3333, z+.3333'
 34	'-y+.3333, x-y+.6666, z+.6666'
 35	'x+.6666, y+.3333, z+.3333'
 36	'x+.3333, y+.6666, z+.6666'
loop_
_atom_type_symbol
_atom_type_oxidation_number
Cs1+	1
F1-	-1
Fe3+	3
Na1+	1
loop_
_atom_site_label
_atom_site_type_symbol
_atom_site_symmetry_multiplicity
_atom_site_Wyckoff_symbol
_atom_site_fract_x
_atom_site_fract_y
_atom_site_fract_z
_atom_site_occupancy
_atom_site_attached_hydrogens
_atom_site_B_iso_or_equiv
Cs1 Cs1+ 6 c 0 0 0.12777(2) 1. 0 0 
Cs2 Cs1+ 6 c 0 0 0.28126(2) 1. 0 0 
Na1 Na1+ 6 c 0 0 0.40240(14) 1. 0 1.1 
Fe1 Fe3+ 3 a 0 0 0 1. 0 0 
Fe2 Fe3+ 3 b 0 0 0.5 1. 0 0 
F1 F1- 18 h 0.14124(73) -.14124(73) 0.46198(11) 1. 0 1.45 
F2 F1- 18 h 0.18684(76) -.18684(76) 0.63077(11) 1. 0 1.68 

loop_
_atom_site_aniso_label
_atom_site_aniso_type_symbol
_atom_site_aniso_B_11
_atom_site_aniso_B_22
_atom_site_aniso_B_33
_atom_site_aniso_B_12
_atom_site_aniso_B_13
_atom_site_aniso_B_23
Cs1 Cs1+ 1.09 1.09 1.28 0.545 0 0
Cs2 Cs1+ 1.17 1.17 1.58 0.585 0 0
Fe1 Fe3+ 0.48 0.48 0.45 0.24 0 0
Fe2 Fe3+ 0.7 0.7 0.54 0.35 0 0
#End of data_9003-ICSD


