data_417892-ICSD
#?2014 by Fachinformationszentrum Karlsruhe, and the U.S. Secretary of 
#Commerce on behalf of the United States.  All rights reserved.
_database_code_ICSD                417892
_audit_creation_date               2008/08/01
_chemical_name_systematic
;
Dipotassium Manganese Divanadate(V)
;
_chemical_formula_structural       'K2 Mn (V2 O7)'
_chemical_formula_sum              'K2 Mn1 O7 V2'
_publ_section_title
;
Crystal structures of new pyrovanadates A2 Mn V2 O7 (A = Rb, K)
;
loop_
_citation_id
_citation_journal_abbrev
_citation_year
_citation_journal_volume
_citation_journal_issue
_citation_page_first
_citation_page_last
_citation_journal_id_ASTM
primary 'Zeitschrift fuer Naturforschung, B: Chemical Sciences'
 2007 62 7 873 880 ZNBSEN
_publ_author_name                  'Yahia, H.B.;Gaudin, E.;Darriet, J.'
_cell_length_a                     8.609(3)
_cell_length_b                     8.609(3)
_cell_length_c                     5.538(4)
_cell_angle_alpha                  90
_cell_angle_beta                   90
_cell_angle_gamma                  90
_cell_volume                       410.45
_cell_formula_units_Z              2
_symmetry_space_group_name_H-M     'P -4 21 m'
_symmetry_Int_Tables_number        113
_refine_ls_R_factor_all            .0246
loop_
_symmetry_equiv_pos_site_id
_symmetry_equiv_pos_as_xyz
  1	'-y+.5, -x+.5, z'
  2	'y, -x, -z'
  3	'y+.5, x+.5, z'
  4	'-y, x, -z'
  5	'x+.5, -y+.5, -z'
  6	'-x, -y, z'
  7	'-x+.5, y+.5, -z'
  8	'x, y, z'
loop_
_atom_type_symbol
_atom_type_oxidation_number
K1+	1
Mn2+	2
O2-	-2
V5+	5
loop_
_atom_site_label
_atom_site_type_symbol
_atom_site_symmetry_multiplicity
_atom_site_Wyckoff_symbol
_atom_site_fract_x
_atom_site_fract_y
_atom_site_fract_z
_atom_site_occupancy
_atom_site_attached_hydrogens
_atom_site_U_iso_or_equiv
K1 K1+ 4 e 0.83871(5) 0.33871(5) 0.50737(14) 1 0 0.02491(13) 
Mn1 Mn2+ 2 a 0 0 0 1 0 0.01567(12) 
V1 V5+ 4 e 0.14046(4) 0.35954(4) 0.05876(8) 1 0 0.01252(8) 
O1 O2- 8 f 0.0876(2) 0.18543(18) 0.1802(3) 1 0 0.0215(4) 
O2 O2- 2 c 0 0.5 0.1610(6) 1 0 0.0188(6) 
O3 O2- 4 e 0.1452(2) 0.3548(2) 0.7616(4) 1 0 0.0283(5) 

loop_
_atom_site_aniso_label
_atom_site_aniso_type_symbol
_atom_site_aniso_U_11
_atom_site_aniso_U_22
_atom_site_aniso_U_33
_atom_site_aniso_U_12
_atom_site_aniso_U_13
_atom_site_aniso_U_23
K1 K1+ 0.0267(2) 0.0267(2) 0.0213(3) -0.0081(2) 0.00382(16) 0.00382(16)
Mn1 Mn2+ 0.01199(15) 0.01199(15) 0.0230(3) 0 0 0
V1 V5+ 0.01164(11) 0.01164(11) 0.01428(19) 0.00102(14) 0.00057(11) 
-0.00057(11)
O1 O2- 0.0236(8) 0.0128(6) 0.0282(9) -0.0043(6) -0.0038(6) -0.0006(6)
O2 O2- 0.0184(8) 0.0184(8) 0.0195(15) 0.0080(11) 0 0
O3 O2- 0.0343(8) 0.0343(8) 0.0161(9) 0.0080(13) 0.0025(7) -0.0025(7)
#End of data_417892-ICSD


