data_39392-ICSD
#?2014 by Fachinformationszentrum Karlsruhe, and the U.S. Secretary of 
#Commerce on behalf of the United States.  All rights reserved.
_database_code_ICSD                39392
_audit_creation_date               1992/01/20
_audit_update_record               2010/02/01
_chemical_name_systematic
;
Octacalcium Disamarium Dioxide Hexakis(borate)
;
_chemical_formula_structural       'Ca8 Sm2 O2 (B O3)6'
_chemical_formula_sum              'B6 Ca8 O20 Sm2'
_publ_section_title
;
Crystal structure of calcium samarium double oxoborate Sm2 Ca8 O2 (B 
O3)6
;
loop_
_citation_id
_citation_journal_abbrev
_citation_year
_citation_journal_volume
_citation_page_first
_citation_page_last
_citation_journal_id_ASTM
primary 'Zhurnal Neorganicheskoi Khimii' 1991 36 855 857 ZNOKAQ
2 'Russian Journal of Inorganic Chemistry' 1991 36 484 485 RJICAQ
_publ_author_name
;
Khamaganova, T.N.;Trunov, V.K.;Dzhurinskii, B.F.
;
_cell_length_a                     8.132(1)
_cell_length_b                     16.081(1)
_cell_length_c                     3.583(4)
_cell_angle_alpha                  90.
_cell_angle_beta                   101.31(2)
_cell_angle_gamma                  90.
_cell_volume                       459.45
_cell_formula_units_Z              1
_symmetry_space_group_name_H-M     'C 1 m 1'
_symmetry_Int_Tables_number        8
_refine_ls_R_factor_all            .03
loop_
_symmetry_equiv_pos_site_id
_symmetry_equiv_pos_as_xyz
  1	'x, -y, z'
  2	'x, y, z'
  3	'x+.5, -y+.5, z'
  4	'x+.5, y+.5, z'
loop_
_atom_type_symbol
_atom_type_oxidation_number
B3+	3
Ca2+	2
O2-	-2
Sm3+	3
loop_
_atom_site_label
_atom_site_type_symbol
_atom_site_symmetry_multiplicity
_atom_site_Wyckoff_symbol
_atom_site_fract_x
_atom_site_fract_y
_atom_site_fract_z
_atom_site_occupancy
_atom_site_attached_hydrogens
_atom_site_B_iso_or_equiv
Sm1 Sm3+ 2 a 0 0 0 1. 0 0.705(4) 
Ca1 Ca2+ 4 b 0.1432(1) 0.38712(6) 0.3301(3) 1. 0 0.26(1) 
Ca2 Ca2+ 4 b 0.2636(1) 0.18076(7) 0.6570(3) 1. 0 0.67(1) 
O1 O2- 2 a 0.8260(7) 0 0.415(2) 1. 0 0.61(8) 
O2 O2- 4 b 0.4639(6) -.0740(3) 0.752(1) 1. 0 0.89(6) 
O3 O2- 2 a 0.2037(8) 0 0.602(2) 1. 0 1.1(1) 
O4 O2- 4 b 0.0889(5) 0.1440(3) 0.080(1) 1. 0 0.76(6) 
O5 O2- 4 b 0.9676(6) 0.2696(3) 0.277(1) 1. 0 1.10(7) 
O6 O2- 4 b 0.7950(5) 0.1721(3) -.113(1) 1. 0 0.90(6) 
B1 B3+ 2 a 0.379(1) 0 0.705(2) 1. 0 0.5(1) 
B2 B3+ 4 b 0.9509(8) 0.1951(4) 0.083(2) 1. 0 0.65(8) 

#End of data_39392-ICSD


