data_82154-ICSD
#?2014 by Fachinformationszentrum Karlsruhe, and the U.S. Secretary of 
#Commerce on behalf of the United States.  All rights reserved.
_database_code_ICSD                82154
_audit_creation_date               1999/11/30
_chemical_name_systematic          'Disodium Tecto-titanosilicate - Ht'
_chemical_formula_structural       'Na2 (Ti Si O5)'
_chemical_formula_sum              'Na2 O5 Si1 Ti1'
_publ_section_title
;
Crystal structure of orthorhombic LT-Na2 Ti Si O5 and its relation to 
the tetragonal HT-form
;
loop_
_citation_id
_citation_journal_abbrev
_citation_year
_citation_journal_volume
_citation_page_first
_citation_page_last
_citation_journal_id_ASTM
primary 'Journal of Solid State Chemistry' 1996 123 324 330 JSSCBI
_publ_author_name
;
Ziadi, A.;Hillebrecht, H.;Thiele, G.;Elouadi, B.
;
_cell_length_a                     9.9
_cell_length_b                     9.9
_cell_length_c                     9.02
_cell_angle_alpha                  90.
_cell_angle_beta                   90.
_cell_angle_gamma                  90.
_cell_volume                       884.05
_cell_formula_units_Z              8
_symmetry_space_group_name_H-M     'P 42/m'
_symmetry_Int_Tables_number        84
loop_
_symmetry_equiv_pos_site_id
_symmetry_equiv_pos_as_xyz
  1	'-y, x, -z+.5'
  2	'y, -x, -z+.5'
  3	'x, y, -z'
  4	'-x, -y, -z'
  5	'y, -x, z+.5'
  6	'-y, x, z+.5'
  7	'-x, -y, z'
  8	'x, y, z'
loop_
_atom_type_symbol
_atom_type_oxidation_number
Na1+	1
O2-	-2
Si4+	4
Ti4+	4
loop_
_atom_site_label
_atom_site_type_symbol
_atom_site_symmetry_multiplicity
_atom_site_Wyckoff_symbol
_atom_site_fract_x
_atom_site_fract_y
_atom_site_fract_z
_atom_site_occupancy
_atom_site_attached_hydrogens
Ti1 Ti4+ 4 j 0.24 0.03 0 1. 0 
Ti2 Ti4+ 4 j 0.24 0.53 0 1. 0 
Si1 Si4+ 2 e 0 0 0.25 1. 0 
Si2 Si4+ 2 f 0.5 0.5 0.25 1. 0 
Si3 Si4+ 4 i 0 0.5 0.25 1. 0 
O1 O2- 4 j 0.225 0.2 0 1. 0 
O2 O2- 4 j 0.225 0.7 0 1. 0 
O3 O2- 8 k 0.13 0.95 0.1475 1. 0 
O4 O2- 8 k 0.37 0.05 0.1475 1. 0 
O5 O2- 8 k 0.13 0.45 0.1475 1. 0 
O6 O2- 8 k 0.37 0.55 0.1475 1. 0 
Na1 Na1+ 4 j 0.75 0 0.5 1. 0 
Na2 Na1+ 4 j 0.25 0.5 0.5 1. 0 
Na3 Na1+ 8 k 0.25 0.25 0.25 1. 0 

#End of data_82154-ICSD


