data_30998-ICSD
#?2014 by Fachinformationszentrum Karlsruhe, and the U.S. Secretary of 
#Commerce on behalf of the United States.  All rights reserved.
_database_code_ICSD                30998
_audit_creation_date               1987/03/16
_audit_update_record               2006/04/01
_chemical_name_systematic          'Calcium Tin Bis(borate)'
_chemical_formula_structural       'Ca Sn (B O3)2'
_chemical_formula_sum              'B2 Ca1 O6 Sn1'
_chemical_name_mineral             Nordenskioeldine
_publ_section_title
;
The detailed crystal structure of nordenskioeldine, Ca Sn (B O3)2
;
loop_
_citation_id
_citation_journal_abbrev
_citation_year
_citation_journal_volume
_citation_page_first
_citation_page_last
_citation_journal_id_ASTM
primary 'Neues Jahrbuch fuer Mineralogie. Monatshefte (Band=Jahr) (1950-)'
 1986 1986 111 114 NJMMAW
2
;
Neues Jahrbuch fuer Mineralogie, Geologie und Palaeontologie. 
Beilagen, Abt. A (1925-1942)
;
 1934 68 288 295 NJMABV
3
;
Neues Jahrbuch fuer Mineralogie, Geologie und Palaeontologie. 
Beilagen, Abt. A (1925-1942)
;
 1935 69 1 4 NJMABV
_publ_author_name                  'Effenberger, H.;Zemann, J.'
_cell_length_a                     4.858(1)
_cell_length_b                     4.858(1)
_cell_length_c                     16.0800(20)
_cell_angle_alpha                  90.
_cell_angle_beta                   90.
_cell_angle_gamma                  120.
_cell_volume                       328.65
_cell_formula_units_Z              3
_symmetry_space_group_name_H-M     'R -3 H'
_symmetry_Int_Tables_number        148
_refine_ls_R_factor_all            .039
loop_
_symmetry_equiv_pos_site_id
_symmetry_equiv_pos_as_xyz
  1	'x-y, x, -z'
  2	'y, -x+y, -z'
  3	'-x, -y, -z'
  4	'-x+y, -x, z'
  5	'-y, x-y, z'
  6	'x, y, z'
  7	'x-y+.6666, x+.3333, -z+.3333'
  8	'x-y+.3333, x+.6666, -z+.6666'
  9	'y+.6666, -x+y+.3333, -z+.3333'
 10	'y+.3333, -x+y+.6666, -z+.6666'
 11	'-x+.6666, -y+.3333, -z+.3333'
 12	'-x+.3333, -y+.6666, -z+.6666'
 13	'-x+y+.6666, -x+.3333, z+.3333'
 14	'-x+y+.3333, -x+.6666, z+.6666'
 15	'-y+.6666, x-y+.3333, z+.3333'
 16	'-y+.3333, x-y+.6666, z+.6666'
 17	'x+.6666, y+.3333, z+.3333'
 18	'x+.3333, y+.6666, z+.6666'
loop_
_atom_type_symbol
_atom_type_oxidation_number
B3+	3
Ca2+	2
O2-	-2
Sn4+	4
loop_
_atom_site_label
_atom_site_type_symbol
_atom_site_symmetry_multiplicity
_atom_site_Wyckoff_symbol
_atom_site_fract_x
_atom_site_fract_y
_atom_site_fract_z
_atom_site_occupancy
_atom_site_attached_hydrogens
Ca1 Ca2+ 3 a 0 0 0 1. 0 
Sn1 Sn4+ 3 b 0 0 0.5 1. 0 
B1 B3+ 6 c 0 0 0.2395(2) 1. 0 
O1 O2- 18 f 0.2663(3) -.0313(3) 0.2417(1) 1. 0 

loop_
_atom_site_aniso_label
_atom_site_aniso_type_symbol
_atom_site_aniso_U_11
_atom_site_aniso_U_22
_atom_site_aniso_U_33
_atom_site_aniso_U_12
_atom_site_aniso_U_13
_atom_site_aniso_U_23
Ca1 Ca2+ 0.0067(2) 0.0067(2) 0.0061(2) 0.00335(10) 0 0
Sn1 Sn4+ 0.0034(1) 0.0034(1) 0.0046(1) 0.00170(5) 0 0
B1 B3+ 0.0050(6) 0.0050(6) 0.0059(8) 0.0025(3) 0 0
O1 O2- 0.0059(4) 0.0073(4) 0.0091(4) 0.0044(3) -0.0013(3) -0.0032(3)
#End of data_30998-ICSD


