data_201895-ICSD
#?2014 by Fachinformationszentrum Karlsruhe, and the U.S. Secretary of 
#Commerce on behalf of the United States.  All rights reserved.
_database_code_ICSD                201895
_audit_creation_date               1986/04/14
_audit_update_record               2013/02/01
_chemical_name_systematic
;
Tripotassium Neptunium Dioxide Pentafluoride
;
_chemical_formula_structural       'K3 Np O2 F5'
_chemical_formula_sum              'F5 K3 Np1 O2'
_publ_section_title                'Crystal Structure of K3 Np O2 F5'
loop_
_citation_id
_citation_journal_abbrev
_citation_year
_citation_journal_volume
_citation_page_first
_citation_page_last
_citation_journal_id_ASTM
primary Radiokhimiya 1984 26 255 259 RADKAU
_publ_author_name
;
Lychev, A.A.;Mashirov, L.G.;Smolin, Yu.I.;Shepelev, Yu.F.
;
_cell_length_a                     9.129(4)
_cell_length_b                     9.129(4)
_cell_length_c                     18.076(8)
_cell_angle_alpha                  90.
_cell_angle_beta                   90.
_cell_angle_gamma                  90.
_cell_volume                       1506.43
_cell_formula_units_Z              8
_symmetry_space_group_name_H-M     'I 41/a Z'
_symmetry_Int_Tables_number        88
_refine_ls_R_factor_all            .0457
loop_
_symmetry_equiv_pos_site_id
_symmetry_equiv_pos_as_xyz
  1	'-y+.75, x+.75, -z+.75'
  2	'y+.25, -x+.75, -z+.75'
  3	'x, y+.5, -z'
  4	'-x, -y, -z'
  5	'y+.25, -x+.25, z+.25'
  6	'-y+.75, x+.25, z+.25'
  7	'-x, -y+.5, z'
  8	'x, y, z'
  9	'-y+.25, x+.25, -z+.25'
 10	'y+.75, -x+.25, -z+.25'
 11	'x+.5, y, -z+.5'
 12	'-x+.5, -y+.5, -z+.5'
 13	'y+.75, -x+.75, z+.75'
 14	'-y+.25, x+.75, z+.75'
 15	'-x+.5, -y, z+.5'
 16	'x+.5, y+.5, z+.5'
loop_
_atom_type_symbol
_atom_type_oxidation_number
F1-	-1
K1+	1
Np6+	6
O2-	-2
loop_
_atom_site_label
_atom_site_type_symbol
_atom_site_symmetry_multiplicity
_atom_site_Wyckoff_symbol
_atom_site_fract_x
_atom_site_fract_y
_atom_site_fract_z
_atom_site_occupancy
_atom_site_attached_hydrogens
Np1 Np6+ 8 e 0 0.25 0.39722(1) 1. 0 
K1 K1+ 4 a 0 0.25 0.125 1. 0 
K2 K1+ 4 b 0 0.25 0.625 1. 0 
K3 K1+ 16 f 0.2081(2) 0.9898(2) 0.0107(1) 1. 0 
F1 F1- 8 e 0 0.25 0.2704(4) 1. 0 
F2 F1- 16 f 0.3549(5) 0.2342(6) 0.0025(3) 1. 0 
F3 F1- 16 f 0.2701(6) 0.2066(8) 0.1436(4) 1. 0 
O1 O2- 16 f 0.0410(8) 0.0570(6) 0.3983(4) 1. 0 

loop_
_atom_site_aniso_label
_atom_site_aniso_type_symbol
_atom_site_aniso_U_11
_atom_site_aniso_U_22
_atom_site_aniso_U_33
_atom_site_aniso_U_12
_atom_site_aniso_U_13
_atom_site_aniso_U_23
Np1 Np6+ 0.00407 0.00411 0.00108 0.00032 0 0
K1 K1+ 0.00618 0.00618 0.00145 0 0 0
K2 K1+ 0.00628 0.00628 0.00115 0 0 0
K3 K1+ 0.00708 0.00713 0.00201 -.00146 0.0002 0.00043
F1 F1- 0.01443 0.01202 0.00095 0.00844 0 0
F2 F1- 0.00616 0.00848 0.00145 -.00157 -.00149 -.0001
F3 F1- 0.00533 0.01547 0.00246 -.00049 0.00221 0.0029
O1 O2- 0.01099 0.00548 0.00169 0.00318 -.00087 -.00045
#End of data_201895-ICSD


