data_200899-ICSD
#?2014 by Fachinformationszentrum Karlsruhe, and the U.S. Secretary of 
#Commerce on behalf of the United States.  All rights reserved.
_database_code_ICSD                200899
_audit_creation_date               1981/12/31
_audit_update_record               2006/04/01
_chemical_name_systematic
;
Dipotassium Dimanganese Tris(sulfate(V)) - Lt
;
_chemical_formula_structural       'K2 Mn2 (S O4)3'
_chemical_formula_sum              'K2 Mn2 O12 S3'
_publ_section_title
;
Structures of langbeinite-type K2 Mn2 (S O4)3 in cubic and 
orthorhombic phases
;
loop_
_citation_id
_citation_journal_abbrev
_citation_year
_citation_journal_volume
_citation_page_first
_citation_page_last
_citation_journal_id_ASTM
primary 'Journal of the Physical Society of Japan' 1981 50 907 913 JUPSAU
2 'Golden Book of Phase Transitions, Wroclaw' 2002 1 1 123 GBOPT5
_publ_author_name                  'Yamada, N.;Maeda, M.;Adachi, H.'
_cell_length_a                     10.081
_cell_length_b                     10.108
_cell_length_c                     10.048
_cell_angle_alpha                  90.
_cell_angle_beta                   90.
_cell_angle_gamma                  90.
_cell_volume                       1023.88
_cell_formula_units_Z              4
_symmetry_space_group_name_H-M     'P 21 21 21'
_symmetry_Int_Tables_number        19
_refine_ls_R_factor_all            .0314
loop_
_symmetry_equiv_pos_site_id
_symmetry_equiv_pos_as_xyz
  1	'-x, y+.5, -z+.5'
  2	'x+.5, -y+.5, -z'
  3	'-x+.5, -y, z+.5'
  4	'x, y, z'
loop_
_atom_type_symbol
_atom_type_oxidation_number
K1+	1
Mn2+	2
O2-	-2
S6+	6
loop_
_atom_site_label
_atom_site_type_symbol
_atom_site_symmetry_multiplicity
_atom_site_Wyckoff_symbol
_atom_site_fract_x
_atom_site_fract_y
_atom_site_fract_z
_atom_site_occupancy
_atom_site_attached_hydrogens
K1 K1+ 4 a 0.1711(14) 0.3128(14) 0.6909(14) 1. 0 
K2 K1+ 4 a 0.0372(15) 0.0558(15) 0.0577(14) 1. 0 
Mn1 Mn2+ 4 a 0.3128(9) 0.3450(9) 0.3361(9) 1. 0 
Mn2 Mn2+ 4 a 0.3924(10) 0.0947(9) 0.9194(9) 1. 0 
S1 S6+ 4 a 0.2114(15) 0.3725(15) 0.0258(15) 1. 0 
S2 S6+ 4 a 0.3833(15) 0.0117(15) 0.2386(15) 1. 0 
S3 S6+ 4 a 0.0025(15) 0.2131(15) 0.3687(15) 1. 0 
O1 O2- 4 a 0.3008(47) 0.2583(49) 0.0155(47) 1. 0 
O2 O2- 4 a 0.0732(43) 0.3316(46) 0.9947(46) 1. 0 
O3 O2- 4 a 0.2558(47) 0.4727(42) 0.9275(47) 1. 0 
O4 O2- 4 a 0.2169(46) 0.4268(45) 0.1621(45) 1. 0 
O5 O2- 4 a 0.3018(45) 0.9348(45) 0.3330(45) 1. 0 
O6 O2- 4 a 0.3300(47) 0.9923(49) 0.1031(46) 1. 0 
O7 O2- 4 a 0.5194(46) 0.9577(47) 0.2477(50) 1. 0 
O8 O2- 4 a 0.3879(50) 0.1516(46) 0.2776(46) 1. 0 
O9 O2- 4 a 0.9368(47) 0.2809(48) 0.2569(49) 1. 0 
O10 O2- 4 a 0.0497(50) 0.0824(47) 0.3223(49) 1. 0 
O11 O2- 4 a 0.9048(50) 0.1958(50) 0.4752(46) 1. 0 
O12 O2- 4 a 0.1163(47) 0.2919(45) 0.4183(49) 1. 0 

#End of data_200899-ICSD


