data_80812-ICSD
#?2014 by Fachinformationszentrum Karlsruhe, and the U.S. Secretary of 
#Commerce on behalf of the United States.  All rights reserved.
_database_code_ICSD                80812
_audit_creation_date               1997/05/13
_audit_update_record               2007/08/01
_chemical_name_systematic          'Barium Zinc Divanadate - Beta'
_chemical_formula_structural       'Ba Zn (V2 O7)'
_chemical_formula_sum              'Ba1 O7 V2 Zn1'
_publ_section_title
;
The crystal structures of the double pyrovanadates Ba M V2 O7 (M = 
Ca, Cd, Zn)
;
loop_
_citation_id
_citation_journal_abbrev
_citation_year
_citation_journal_volume
_citation_page_first
_citation_page_last
_citation_journal_id_ASTM
primary 'Zhurnal Neorganicheskoi Khimii' 1989 34 1388 1392 ZNOKAQ
2 'Russian Journal of Inorganic Chemistry' 1989 34 782 784 RJICAQ
3 'Phase Transition' 1992 38 127 220 PHTRDP
_publ_author_name
;
Murashova, E.V.;Velikodnyi, Yu.A.;Trunov, V.K.
;
_cell_length_a                     5.573(1)
_cell_length_b                     15.175(2)
_cell_length_c                     7.429(1)
_cell_angle_alpha                  90.
_cell_angle_beta                   96.45(1)
_cell_angle_gamma                  90.
_cell_volume                       624.3
_cell_formula_units_Z              4
_symmetry_space_group_name_H-M     'P 1 21/n 1'
_symmetry_Int_Tables_number        14
_refine_ls_R_factor_all            .038
loop_
_symmetry_equiv_pos_site_id
_symmetry_equiv_pos_as_xyz
  1	'-x+.5, y+.5, -z+.5'
  2	'-x, -y, -z'
  3	'x+.5, -y+.5, z+.5'
  4	'x, y, z'
loop_
_atom_type_symbol
_atom_type_oxidation_number
Ba2+	2
O2-	-2
V5+	5
Zn2+	2
loop_
_atom_site_label
_atom_site_type_symbol
_atom_site_symmetry_multiplicity
_atom_site_Wyckoff_symbol
_atom_site_fract_x
_atom_site_fract_y
_atom_site_fract_z
_atom_site_occupancy
_atom_site_attached_hydrogens
_atom_site_B_iso_or_equiv
Ba1 Ba2+ 4 e 0.7170(1) 0.28596(3) 0.14471(7) 1. 0 0.755(6) 
Zn1 Zn2+ 4 e 0.7923(2) 0.05006(6) 0.3676(1) 1. 0 0.75(1) 
V1 V5+ 4 e 0.7475(2) 0.36597(8) 0.6654(2) 1. 0 0.47(2) 
V2 V5+ 4 e 0.7948(2) 0.56203(8) 0.7105(2) 1. 0 0.47(2) 
O1 O2- 4 e 0.754(1) 0.2824(4) 0.5224(8) 1. 0 1.11(9) 
O2 O2- 4 e 0.744(1) 0.4716(4) 0.5530(8) 1. 0 0.80(9) 
O3 O2- 4 e 0.771(1) 0.6604(4) 0.617(1) 1. 0 1.6(1) 
O4 O2- 4 e 0.077(1) 0.5527(4) 0.8214(9) 1. 0 0.82(9) 
O5 O2- 4 e 0.586(1) 0.5542(4) 0.8681(8) 1. 0 0.71(8) 
O6 O2- 4 e 0.506(1) 0.3553(4) 0.7904(9) 1. 0 0.79(9) 
O7 O2- 4 e 0.005(1) 0.3609(4) 0.8099(9) 1. 0 0.92(9) 

#End of data_80812-ICSD


