data_65998-ICSD
#?2014 by Fachinformationszentrum Karlsruhe, and the U.S. Secretary of 
#Commerce on behalf of the United States.  All rights reserved.
_database_code_ICSD                65998
_audit_creation_date               1990/12/27
_audit_update_record               2006/04/01
_chemical_name_systematic          'Disilver Lead Oxide'
_chemical_formula_structural       'Ag2 Pb O2'
_chemical_formula_sum              'Ag2 O2 Pb1'
_publ_section_title
;
Ag2 Pb O2, Optimierung der Kristallzuechtung und Verfeinerung der 
Kristallstruktur
;
loop_
_citation_id
_citation_journal_abbrev
_citation_year
_citation_journal_volume
_citation_page_first
_citation_page_last
_citation_journal_id_ASTM
primary 'Zeitschrift fuer Anorganische und Allgemeine Chemie (1950) (DE)'
 1989 579 123 128 ZAACAB
_publ_author_name                  'Jansen, M.;Bortz, M.'
_cell_length_a                     6.0775(9)
_cell_length_b                     8.704(1)
_cell_length_c                     6.553(1)
_cell_angle_alpha                  90.
_cell_angle_beta                   93.545(8)
_cell_angle_gamma                  90.
_cell_volume                       345.98
_cell_formula_units_Z              4
_symmetry_space_group_name_H-M     'I 1 2/c 1'
_symmetry_Int_Tables_number        15
_refine_ls_R_factor_all            .038
loop_
_symmetry_equiv_pos_site_id
_symmetry_equiv_pos_as_xyz
  1	'-x, y, -z+.5'
  2	'-x, -y, -z'
  3	'x, -y, z+.5'
  4	'x, y, z'
  5	'-x+.5, y+.5, -z'
  6	'-x+.5, -y+.5, -z+.5'
  7	'x+.5, -y+.5, z'
  8	'x+.5, y+.5, z+.5'
loop_
_atom_type_symbol
_atom_type_oxidation_number
Ag1+	1
O2-	-2
Pb2+	2
loop_
_atom_site_label
_atom_site_type_symbol
_atom_site_symmetry_multiplicity
_atom_site_Wyckoff_symbol
_atom_site_fract_x
_atom_site_fract_y
_atom_site_fract_z
_atom_site_occupancy
_atom_site_attached_hydrogens
Ag1 Ag1+ 4 b 0 0.5 0 1. 0 
Ag2 Ag1+ 4 d 0.25 0.25 0.75 1. 0 
Pb1 Pb2+ 4 e 0 0.12882(2) 0.25 1. 0 
O1 O2- 8 f 0.3030(4) 0.1827(1) 0.4380(5) 1. 0 

loop_
_atom_site_aniso_label
_atom_site_aniso_type_symbol
_atom_site_aniso_U_11
_atom_site_aniso_U_22
_atom_site_aniso_U_33
_atom_site_aniso_U_12
_atom_site_aniso_U_13
_atom_site_aniso_U_23
Ag1 Ag1+ 0.0184(3) 0.0160(2) 0.0193(2) -.0028(2) 0.0034(2) 0.0020(1)
Ag2 Ag1+ 0.0168(3) 0.0241(3) 0.0114(2) 0.0023(2) 0.0012(2) 0.0005(1)
Pb1 Pb2+ 0.01234(1) 0.0101(1) 0.0131(1) 0 0.0019(1) 0
O1 O2- 0.015(1) 0.017(1) 0.011(1) 0.001(1) 0.004(1) -.001(1)
#End of data_65998-ICSD


