data_281623-ICSD
#?2014 by Fachinformationszentrum Karlsruhe, and the U.S. Secretary of 
#Commerce on behalf of the United States.  All rights reserved.
_database_code_ICSD                281623
_audit_creation_date               2004/10/01
_chemical_name_systematic          'Lithium Dioxalatoborate'
_chemical_formula_structural       'Li (B (C2 O4)2)'
_chemical_formula_sum              'C4 B1 Li1 O8'
_publ_section_title
;
Structures of potassium, sodium and lithium bis(oxalato)borate salts 
from powder diffraction data
;
loop_
_citation_id
_citation_journal_abbrev
_citation_year
_citation_journal_volume
_citation_page_first
_citation_page_last
_citation_journal_id_ASTM
primary 'Acta Crystallographica, Section B: Structural Science'
 2003 59 753 759 ASBSDK
_publ_author_name
;
Zavalii, P.Yu.;Yang Shoufeng;Whittingham, M.S.
;
_cell_length_a                     6.3635(4)
_cell_length_b                     7.5998(3)
_cell_length_c                     13.1715(9)
_cell_angle_alpha                  90.
_cell_angle_beta                   90.
_cell_angle_gamma                  90.
_cell_volume                       636.99
_cell_formula_units_Z              4
_symmetry_space_group_name_H-M     'P n m a'
_symmetry_Int_Tables_number        62
_refine_ls_R_factor_all            .051
loop_
_symmetry_equiv_pos_site_id
_symmetry_equiv_pos_as_xyz
  1	'x+.5, y, -z+.5'
  2	'x, -y+.5, z'
  3	'-x+.5, y+.5, z+.5'
  4	'-x, -y, -z'
  5	'-x+.5, -y, z+.5'
  6	'-x, y+.5, -z'
  7	'x+.5, -y+.5, -z+.5'
  8	'x, y, z'
loop_
_atom_type_symbol
_atom_type_oxidation_number
B3+	3
C3+	3
Li1+	1
O2-	-2
loop_
_atom_site_label
_atom_site_type_symbol
_atom_site_symmetry_multiplicity
_atom_site_Wyckoff_symbol
_atom_site_fract_x
_atom_site_fract_y
_atom_site_fract_z
_atom_site_occupancy
_atom_site_attached_hydrogens
_atom_site_U_iso_or_equiv
Li1 Li1+ 4 c 0.534(5) 0.25 0.325(3) 1. 0 0.0278(17) 
B1 B3+ 4 c 0.089(2) 0.25 0.5403(11) 1. 0 0.0278(17) 
O1 O2- 8 d 0.2012(11) 0.0991(8) 0.5845(7) 1. 0 0.0278(17) 
C1 C3+ 8 d 0.3549(18) 0.1484(3) 0.6462(9) 1. 0 0.0278(17) 
O2 O2- 8 d 0.4795(10) 0.0535(7) 0.6881(6) 1. 0 0.0278(17) 
O3 O2- 4 c 0.117(2) 0.25 0.4292(10) 1. 0 0.0278(17) 
C2 C3+ 4 c -.080(2) 0.25 0.391(1) 1. 0 0.0278(17) 
O4 O2- 4 c -.1373(16) 0.25 0.3045(9) 1. 0 0.0278(17) 
O5 O2- 4 c -.135(2) 0.25 0.5681(8) 1. 0 0.0278(17) 
C3 C3+ 4 c -.2364(17) 0.25 0.4805(11) 1. 0 0.0278(17) 
O6 O2- 4 c -.4247(15) 0.25 0.4705(7) 1. 0 0.0278(17) 

#End of data_281623-ICSD


