data_163630-ICSD
#?2014 by Fachinformationszentrum Karlsruhe, and the U.S. Secretary of 
#Commerce on behalf of the United States.  All rights reserved.
_database_code_ICSD                163630
_audit_creation_date               2009/08/01
_chemical_name_systematic
;
Sodium Silicon Oxide Hydroxide Hydrate (4/32/64/4/20)
;
_chemical_formula_structural       'Na4 (Si32 O64 (O H)4) (H2 O)20'
_chemical_formula_sum              'H44 Na4 O88 Si32'
_chemical_name_mineral             'Zeolite RUB-18'
_publ_section_title
;
Structural changes induced by dehydration in the crystalline layered 
silicate Na-RUB-18: a computational/experimental combined study
;
loop_
_citation_id
_citation_journal_abbrev
_citation_year
_citation_journal_volume
_citation_page_first
_citation_page_last
_citation_journal_id_ASTM
primary 'Journal of Materials Chemistry' 2009 19 2610 2617 JMACEP
_publ_author_name
;
Iozzi, M.F.;Bisio, C.;Regi-Macedo, T.;Airoldi, C.;Cossi, M.;Marchese, 
L.
;
_cell_length_a                     7.611300
_cell_length_b                     15.303268
_cell_length_c                     50.
_cell_angle_alpha                  90.000000
_cell_angle_beta                   90.000000
_cell_angle_gamma                  90.261802
_cell_volume                       5823.83
_cell_formula_units_Z              1
_symmetry_space_group_name_H-M     'P 1'
_symmetry_Int_Tables_number        1
loop_
_symmetry_equiv_pos_site_id
_symmetry_equiv_pos_as_xyz
  1	'x, y, z'
loop_
_atom_type_symbol
_atom_type_oxidation_number
H1+	1
Na1+	1
O2-	-2
Si4+	4
loop_
_atom_site_label
_atom_site_type_symbol
_atom_site_symmetry_multiplicity
_atom_site_Wyckoff_symbol
_atom_site_fract_x
_atom_site_fract_y
_atom_site_fract_z
_atom_site_occupancy
_atom_site_attached_hydrogens
O1 O2- 1 a -0.423015 0.029685 0.404362 1. 0 
O2 O2- 1 a 0.399610 0.193962 0.404371 1. 0 
O3 O2- 1 a -0.475673 0.349249 0.389699 1. 0 
Si1 Si4+ 1 a 0.459268 0.251397 0.379117 1. 0 
Si2 Si4+ 1 a -0.459169 0.447147 0.378829 1. 0 
O4 O2- 1 a 0.305953 0.256943 0.357239 1. 0 
O5 O2- 1 a -0.329800 0.212971 0.365278 1. 0 
O6 O2- 1 a 0.321590 -0.475616 0.364157 1. 0 
O7 O2- 1 a -0.299953 0.447918 0.358054 1. 0 
O8 O2- 1 a 0.012522 -0.001087 0.341682 1. 0 
O9 O2- 1 a -0.016391 0.222124 0.342777 1. 0 
Si3 Si4+ 1 a 0.216125 0.019568 0.337401 1. 0 
Si4 Si4+ 1 a 0.185122 0.218472 0.334065 1. 0 
Si5 Si4+ 1 a -0.190227 0.003607 0.333483 1. 0 
Si6 Si4+ 1 a -0.220515 0.201754 0.338159 1. 0 
O10 O2- 1 a 0.239032 0.119219 0.328120 1. 0 
O11 O2- 1 a -0.240205 0.103336 0.327447 1. 0 
O12 O2- 1 a 0.210349 0.273931 0.307200 1. 0 
O13 O2- 1 a -0.294423 0.263298 0.315297 1. 0 
O14 O2- 1 a 0.290322 0.438609 0.313646 1. 0 
O15 O2- 1 a -0.217963 0.426518 0.307134 1. 0 
Si7 Si4+ 1 a 0.287502 0.359636 0.292558 1. 0 
Si8 Si4+ 1 a -0.278308 0.337119 0.292267 1. 0 
H1 H1+ 1 a 0.361956 0.119557 0.278775 1. 0 
H2 H1+ 1 a -0.404558 0.113626 0.283371 1. 0 
O16 O2- 1 a 0.483610 0.346527 0.282243 1. 0 
O17 O2- 1 a 0.469861 0.104782 0.269954 1. 0 
O18 O2- 1 a 0.058059 0.131440 0.263334 1. 0 
O19 O2- 1 a 0.171716 0.383375 0.266743 1. 0 
O20 O2- 1 a -0.152114 0.314288 0.268929 1. 0 
H3 H1+ 1 a 0.256788 0.007758 0.207666 1. 0 
H4 H1+ 1 a -0.229930 0.006392 0.234086 1. 0 
H5 H1+ 1 a 0.243563 0.017242 0.237895 1. 0 
H6 H1+ 1 a -0.242387 0.018512 0.203945 1. 0 
Na1 Na1+ 1 a 0.016030 0.157543 0.216493 1. 0 
O21 O2- 1 a 0.255308 0.050859 0.221640 1. 0 
O22 O2- 1 a 0.263504 0.245101 0.214167 1. 0 
O23 O2- 1 a -0.229526 0.050671 0.220465 1. 0 
O24 O2- 1 a -0.215683 0.244929 0.228933 1. 0 
Na2 Na1+ 1 a -0.463881 0.159019 0.226443 1. 0 
H7 H1+ 1 a 0.251191 0.287186 0.227918 1. 0 
H8 H1+ 1 a -0.226681 0.287675 0.215356 1. 0 
H9 H1+ 1 a 0.285180 0.279442 0.195775 1. 0 
H10 H1+ 1 a -0.192150 0.278234 0.247558 1. 0 
O25 O2- 1 a 0.323987 0.317256 0.174429 1. 0 
O26 O2- 1 a -0.314482 0.389751 0.176035 1. 0 
O27 O2- 1 a -0.419666 0.139091 0.179360 1. 0 
O28 O2- 1 a -0.010905 0.106958 0.172628 1. 0 
O29 O2- 1 a -0.002730 0.350870 0.160884 1. 0 
H11 H1+ 1 a 0.472524 0.093707 0.171553 1. 0 
H12 H1+ 1 a -0.461063 0.192271 0.171273 1. 0 
Si9 Si4+ 1 a 0.198608 0.340978 0.151093 1. 0 
Si10 Si4+ 1 a -0.198081 0.364822 0.150359 1. 0 
O30 O2- 1 a 0.181796 0.267898 0.127838 1. 0 
O31 O2- 1 a 0.261171 0.430720 0.136569 1. 0 
O32 O2- 1 a -0.276989 0.279481 0.135740 1. 0 
O33 O2- 1 a -0.193025 0.443722 0.129244 1. 0 
O34 O2- 1 a 0.237829 0.107706 0.116061 1. 0 
O35 O2- 1 a -0.248196 0.124449 0.114985 1. 0 
Si11 Si4+ 1 a 0.287346 0.007796 0.110177 1. 0 
Si12 Si4+ 1 a 0.255308 0.205937 0.105048 1. 0 
Si13 Si4+ 1 a -0.269728 0.024775 0.105676 1. 0 
Si14 Si4+ 1 a -0.302040 0.223689 0.108921 1. 0 
O36 O2- 1 a -0.473167 0.003243 0.101595 1. 0 
O37 O2- 1 a 0.459073 0.226906 0.100214 1. 0 
O38 O2- 1 a 0.144201 0.215717 0.078045 1. 0 
O39 O2- 1 a -0.180790 0.261718 0.085748 1. 0 
O40 O2- 1 a 0.176031 0.451506 0.085867 1. 0 
O41 O2- 1 a -0.164425 -0.469650 0.078829 1. 0 
Si15 Si4+ 1 a -0.026945 0.255964 0.063918 1. 0 
Si16 Si4+ 1 a 0.018620 0.451859 0.064762 1. 0 
O42 O2- 1 a 0.004000 0.354165 0.053786 1. 0 
O43 O2- 1 a 0.056256 0.036044 0.039637 1. 0 
O44 O2- 1 a -0.086119 0.201381 0.038117 1. 0 
H13 H1+ 1 a 0.078768 0.116165 0.159445 1. 0 
H14 H1+ 1 a -0.117628 0.123382 0.163754 1. 0 
H15 H1+ 1 a -0.013863 0.085706 0.270655 1. 0 
H16 H1+ 1 a 0.018128 0.184004 0.271945 1. 0 
H17 H1+ 1 a -0.431017 0.364946 0.175327 1. 0 
H18 H1+ 1 a 0.054112 0.359797 0.267729 1. 0 
H19 H1+ 1 a -0.011508 0.152829 0.034404 1. 0 
H20 H1+ 1 a 0.112828 0.003380 0.025902 1. 0 
H21 H1+ 1 a -0.470320 0.157770 0.410775 1. 0 
H22 H1+ 1 a -0.425430 -0.004739 0.420248 1. 0 
O45 O2- 1 a -0.427414 -0.449146 0.404362 1. 0 
O46 O2- 1 a 0.395211 -0.284869 0.404371 1. 0 
O47 O2- 1 a -0.480072 -0.129582 0.389699 1. 0 
Si17 Si4+ 1 a 0.454869 -0.227434 0.379117 1. 0 
Si18 Si4+ 1 a -0.463568 -0.031684 0.378829 1. 0 
O48 O2- 1 a 0.301554 -0.221888 0.357239 1. 0 
O49 O2- 1 a -0.334199 -0.265860 0.365278 1. 0 
O50 O2- 1 a 0.325989 0.003215 0.364157 1. 0 
O51 O2- 1 a -0.304352 -0.030913 0.358054 1. 0 
O52 O2- 1 a 0.016921 0.477744 0.341682 1. 0 
O53 O2- 1 a -0.020790 -0.256707 0.342777 1. 0 
Si19 Si4+ 1 a 0.211726 -0.459263 0.337401 1. 0 
Si20 Si4+ 1 a 0.180723 -0.260359 0.334065 1. 0 
Si21 Si4+ 1 a -0.194626 -0.475224 0.333483 1. 0 
Si22 Si4+ 1 a -0.224914 -0.277076 0.338159 1. 0 
O54 O2- 1 a 0.234633 -0.359612 0.328120 1. 0 
O55 O2- 1 a -0.244604 -0.375495 0.327447 1. 0 
O56 O2- 1 a 0.205950 -0.204899 0.307200 1. 0 
O57 O2- 1 a -0.298822 -0.215533 0.315297 1. 0 
O58 O2- 1 a 0.285923 -0.040222 0.313646 1. 0 
O59 O2- 1 a -0.222362 -0.052313 0.307134 1. 0 
Si23 Si4+ 1 a 0.283103 -0.119194 0.292558 1. 0 
Si24 Si4+ 1 a -0.282707 -0.141712 0.292267 1. 0 
H23 H1+ 1 a 0.357557 -0.359273 0.278775 1. 0 
H24 H1+ 1 a -0.408957 -0.365205 0.283371 1. 0 
O60 O2- 1 a 0.479211 -0.132304 0.282243 1. 0 
O61 O2- 1 a 0.465462 -0.374049 0.269954 1. 0 
O62 O2- 1 a 0.053660 -0.347391 0.263334 1. 0 
O63 O2- 1 a 0.167317 -0.095456 0.266743 1. 0 
O64 O2- 1 a -0.156513 -0.164543 0.268929 1. 0 
H25 H1+ 1 a 0.252389 -0.471073 0.207666 1. 0 
H26 H1+ 1 a -0.234329 -0.472438 0.234086 1. 0 
H27 H1+ 1 a 0.239164 -0.461589 0.237895 1. 0 
H28 H1+ 1 a -0.246786 -0.460319 0.203945 1. 0 
Na3 Na1+ 1 a 0.011631 -0.321288 0.216493 1. 0 
O65 O2- 1 a 0.250909 -0.427971 0.221640 1. 0 
O66 O2- 1 a 0.259105 -0.233730 0.214167 1. 0 
O67 O2- 1 a -0.233925 -0.428160 0.220465 1. 0 
O68 O2- 1 a -0.220082 -0.233902 0.228933 1. 0 
Na4 Na1+ 1 a -0.468280 -0.319812 0.226443 1. 0 
H29 H1+ 1 a 0.246792 -0.191644 0.227918 1. 0 
H30 H1+ 1 a -0.231080 -0.191156 0.215356 1. 0 
H31 H1+ 1 a 0.280781 -0.199389 0.195775 1. 0 
H32 H1+ 1 a -0.196549 -0.200597 0.247558 1. 0 
O69 O2- 1 a 0.319588 -0.161575 0.174429 1. 0 
O70 O2- 1 a -0.318881 -0.089080 0.176035 1. 0 
O71 O2- 1 a -0.424065 -0.339740 0.179360 1. 0 
O72 O2- 1 a -0.015304 -0.371872 0.172628 1. 0 
O73 O2- 1 a -0.007129 -0.127961 0.160884 1. 0 
H33 H1+ 1 a 0.468125 -0.385124 0.171553 1. 0 
H34 H1+ 1 a -0.465462 -0.286560 0.171273 1. 0 
Si25 Si4+ 1 a 0.194209 -0.137853 0.151093 1. 0 
Si26 Si4+ 1 a -0.202480 -0.114009 0.150359 1. 0 
O74 O2- 1 a 0.177397 -0.210933 0.127838 1. 0 
O75 O2- 1 a 0.256772 -0.048111 0.136569 1. 0 
O76 O2- 1 a -0.281388 -0.199350 0.135740 1. 0 
O77 O2- 1 a -0.197424 -0.035109 0.129244 1. 0 
O78 O2- 1 a 0.233430 -0.371125 0.116061 1. 0 
O79 O2- 1 a -0.252595 -0.354382 0.114985 1. 0 
Si27 Si4+ 1 a 0.282947 -0.471035 0.110177 1. 0 
Si28 Si4+ 1 a 0.250909 -0.272893 0.105048 1. 0 
Si29 Si4+ 1 a -0.274127 -0.454056 0.105676 1. 0 
Si30 Si4+ 1 a -0.306439 -0.255142 0.108921 1. 0 
O80 O2- 1 a -0.477566 -0.475588 0.101595 1. 0 
O81 O2- 1 a 0.454674 -0.251924 0.100214 1. 0 
O82 O2- 1 a 0.139802 -0.263114 0.078045 1. 0 
O83 O2- 1 a -0.185189 -0.217112 0.085748 1. 0 
O84 O2- 1 a 0.171632 -0.027325 0.085867 1. 0 
O85 O2- 1 a -0.160026 0.009181 0.078829 1. 0 
Si31 Si4+ 1 a -0.031344 -0.222867 0.063918 1. 0 
Si32 Si4+ 1 a 0.014221 -0.026972 0.064762 1. 0 
O86 O2- 1 a -0.000399 -0.124666 0.053786 1. 0 
O87 O2- 1 a 0.051857 -0.442786 0.039637 1. 0 
O88 O2- 1 a -0.090518 -0.277450 0.038117 1. 0 
H35 H1+ 1 a 0.074369 -0.362666 0.159445 1. 0 
H36 H1+ 1 a -0.122027 -0.355449 0.163754 1. 0 
H37 H1+ 1 a -0.018262 -0.393125 0.270655 1. 0 
H38 H1+ 1 a 0.013729 -0.294827 0.271945 1. 0 
H39 H1+ 1 a -0.435416 -0.113885 0.175327 1. 0 
H40 H1+ 1 a 0.049713 -0.119034 0.267729 1. 0 
H41 H1+ 1 a -0.015907 -0.326001 0.034404 1. 0 
H42 H1+ 1 a 0.108429 -0.475451 0.025902 1. 0 
H43 H1+ 1 a -0.474719 -0.321061 0.410775 1. 0 
H44 H1+ 1 a -0.421031 0.474092 0.420248 1. 0 

#End of data_163630-ICSD


