data_409957-ICSD
#?2014 by Fachinformationszentrum Karlsruhe, and the U.S. Secretary of 
#Commerce on behalf of the United States.  All rights reserved.
_database_code_ICSD                409957
_audit_creation_date               2009/02/01
_chemical_name_systematic
;
Potassium Vanadium Borohydroxobis(phosphate)
;
_chemical_formula_structural       'K V (B P2 O8 (O H))'
_chemical_formula_sum              'H1 B1 K1 O9 P2 V1'
_publ_section_title
;
Crystal structure of potassium vanadium (monophosphate-
hydrogenmonoborate-monophosphate), K V [B P2 O8 (O H)]
;
loop_
_citation_id
_citation_journal_abbrev
_citation_year
_citation_journal_volume
_citation_journal_issue
_citation_page_first
_citation_page_last
_citation_journal_id_ASTM
primary 'Zeitschrift fuer Kristallographie - New Crystal Structures'
 2008 223 4 323 324 ZKNSFT
_publ_author_name
;
Lin Zhisheng;Huang Ya Xi;Prots', Yu.;Zhao Jing Tai;Kniep, R.
;
_cell_length_a                     5.1647(1)
_cell_length_b                     8.0585(2)
_cell_length_c                     8.3567(2)
_cell_angle_alpha                  86.847(4)
_cell_angle_beta                   80.196(3)
_cell_angle_gamma                  86.330(3)
_cell_volume                       341.68
_cell_formula_units_Z              2
_symmetry_space_group_name_H-M     'P -1'
_symmetry_Int_Tables_number        2
_refine_ls_R_factor_all            .045
loop_
_symmetry_equiv_pos_site_id
_symmetry_equiv_pos_as_xyz
  1	'-x, -y, -z'
  2	'x, y, z'
loop_
_atom_type_symbol
_atom_type_oxidation_number
B3+	3
H1+	1
K1+	1
O2-	-2
P5+	5
V3+	3
loop_
_atom_site_label
_atom_site_type_symbol
_atom_site_symmetry_multiplicity
_atom_site_Wyckoff_symbol
_atom_site_fract_x
_atom_site_fract_y
_atom_site_fract_z
_atom_site_occupancy
_atom_site_attached_hydrogens
_atom_site_U_iso_or_equiv
K1 K1+ 2 i 0.72085(15) 0.32579(10) 0.11395(10) 1 0 0.01818(19) 
V1 V3+ 2 i 0.26597(10) 0.19689(7) 0.80713(7) 1 0 0.00823(15) 
B1 B3+ 2 i 0.1234(7) 0.2635(5) 0.4466(5) 1 0 0.0099(6) 
P1 P5+ 2 i 0.20055(15) 0.57981(10) 0.30341(10) 1 0 0.00826(18) 
P2 P5+ 2 i 0.21705(15) 0.06279(10) 0.18543(10) 1 0 0.00782(18) 
O1 O2- 2 i 0.4486(4) 0.6443(3) 0.2048(3) 1 0 0.0103(4) 
O2 O2- 2 i 0.0266(4) 0.4077(3) 0.7918(3) 1 0 0.0108(4) 
O3 O2- 2 i 0.2712(4) 0.3956(3) 0.3486(3) 1 0 0.0117(5) 
O4 O2- 2 i 0.1287(4) 0.6736(3) 0.4635(3) 1 0 0.0120(5) 
O5 O2- 2 i 0.0602(4) 0.9209(3) 0.1502(3) 1 0 0.0116(5) 
O6 O2- 2 i 0.4908(4) 0.0035(3) 0.2184(3) 1 0 0.0124(5) 
O7 O2- 2 i 0.2418(5) 0.1986(3) 0.0493(3) 1 0 0.0110(4) 
O8 O2- 2 i 0.0556(5) 0.1427(3) 0.3396(3) 1 0 0.0118(5) 
O9 O2- 2 i 0.2914(5) 0.1878(3) 0.5592(3) 1 0 0.0146(5) 
H1 H1+ 2 i 0.455(5) 0.173(6) 0.509(5) 1 0 0.022 

loop_
_atom_site_aniso_label
_atom_site_aniso_type_symbol
_atom_site_aniso_U_11
_atom_site_aniso_U_22
_atom_site_aniso_U_33
_atom_site_aniso_U_12
_atom_site_aniso_U_13
_atom_site_aniso_U_23
K1 K1+ 0.0131(3) 0.0183(4) 0.0228(4) -0.0010(3) -0.0014(3) -0.0020(3)
V1 V3+ 0.0077(2) 0.0084(3) 0.0085(3) -0.00086(19) -0.00115(19) 0.00021(19)
B1 B3+ 0.0108(15) 0.0087(15) 0.0100(15) 0.0014(12) -0.0013(13) -0.0023(12)
P1 P5+ 0.0078(3) 0.0082(4) 0.0087(4) -0.0014(3) -0.0010(3) 0.0004(3)
P2 P5+ 0.0067(3) 0.0077(4) 0.0091(4) -0.0008(3) -0.0015(3) 0.0000(3)
O1 O2- 0.0088(10) 0.0092(10) 0.0124(11) -0.0035(8) 0.0004(8) 0.0000(8)
O2 O2- 0.0105(10) 0.0089(10) 0.0136(11) -0.0005(8) -0.0038(9) -0.0003(9)
O3 O2- 0.0110(10) 0.0100(11) 0.0130(11) 0.0004(9) 0.0000(9) 0.0026(9)
O4 O2- 0.0125(11) 0.0126(11) 0.0109(11) 0.0008(9) -0.0019(9) -0.0034(9)
O5 O2- 0.0099(10) 0.0106(11) 0.0149(11) -0.0048(8) -0.0021(9) -0.0012(9)
O6 O2- 0.0094(10) 0.0113(11) 0.0174(12) 0.0021(9) -0.0055(9) -0.0022(9)
O7 O2- 0.0148(11) 0.0088(10) 0.0099(11) -0.0019(9) -0.0032(9) -0.0004(8)
O8 O2- 0.0129(10) 0.0123(11) 0.0096(11) -0.0031(9) 0.0018(9) -0.0040(9)
O9 O2- 0.0159(11) 0.0177(12) 0.0088(11) 0.0051(10) -0.0009(9) 0.0009(9)
#End of data_409957-ICSD


