data_281011-ICSD
#?2014 by Fachinformationszentrum Karlsruhe, and the U.S. Secretary of 
#Commerce on behalf of the United States.  All rights reserved.
_database_code_ICSD                281011
_audit_creation_date               2003/04/01
_chemical_name_systematic          'Dilithium Lead Germanium Sulfide'
_chemical_formula_structural       'Li2 Pb Ge S4'
_chemical_formula_sum              'Ge1 Li2 Pb1 S4'
_publ_section_title
;
Li2 Pb Ge S4 and Li2 Eu Ge S4: polar chalcopyrites with a severe 
tetragonal compression
;
loop_
_citation_id
_citation_journal_abbrev
_citation_year
_citation_journal_volume
_citation_page_first
_citation_page_last
_citation_journal_id_ASTM
primary 'Chemistry of Materials' 2001 13 4714 4721 CMATEX
_publ_author_name
;
Aitken, J.A.;Larson, P.;Mahanti, S.D.;Kanatzidis, M.G.
;
_cell_length_a                     6.5224(5)
_cell_length_b                     6.5224(5)
_cell_length_c                     7.7603(8)
_cell_angle_alpha                  90.
_cell_angle_beta                   90.
_cell_angle_gamma                  90.
_cell_volume                       330.14
_cell_formula_units_Z              2
_symmetry_space_group_name_H-M     'I -4 2 m'
_symmetry_Int_Tables_number        121
_refine_ls_R_factor_all            .0253
loop_
_symmetry_equiv_pos_site_id
_symmetry_equiv_pos_as_xyz
  1	'-y, -x, z'
  2	'y, x, z'
  3	'y, -x, -z'
  4	'-y, x, -z'
  5	'x, -y, -z'
  6	'-x, y, -z'
  7	'-x, -y, z'
  8	'x, y, z'
  9	'-y+.5, -x+.5, z+.5'
 10	'y+.5, x+.5, z+.5'
 11	'y+.5, -x+.5, -z+.5'
 12	'-y+.5, x+.5, -z+.5'
 13	'x+.5, -y+.5, -z+.5'
 14	'-x+.5, y+.5, -z+.5'
 15	'-x+.5, -y+.5, z+.5'
 16	'x+.5, y+.5, z+.5'
loop_
_atom_type_symbol
_atom_type_oxidation_number
Ge4+	4
Li1+	1
Pb2+	2
S2-	-2
loop_
_atom_site_label
_atom_site_type_symbol
_atom_site_symmetry_multiplicity
_atom_site_Wyckoff_symbol
_atom_site_fract_x
_atom_site_fract_y
_atom_site_fract_z
_atom_site_occupancy
_atom_site_attached_hydrogens
_atom_site_U_iso_or_equiv
Pb1 Pb2+ 2 a 0 0 0 1. 0 0.0148(5) 
Ge1 Ge4+ 2 b 0 0 0.5 1. 0 0.0053(5) 
S1 S2- 8 i 0.3030(3) 0.3030(3) 0.1624(3) 1. 0 0.0087(6) 
Li1 Li1+ 4 d 0 0.5 0.25 1. 0 0.028(8) 

loop_
_atom_site_aniso_label
_atom_site_aniso_type_symbol
_atom_site_aniso_U_11
_atom_site_aniso_U_22
_atom_site_aniso_U_33
_atom_site_aniso_U_12
_atom_site_aniso_U_13
_atom_site_aniso_U_23
Pb1 Pb2+ 0.0162(5) 0.0162(5) 0.0119(6) 0 0 0
Ge1 Ge4+ 0.0067(6) 0.0067(6) 0.0026(9) 0 0 0
S1 S2- 0.0092(8) 0.0092(8) 0.0077(14) -0.0013(11) 0.0012(7) 0.0012(7)
Li1 Li1+ 0.030(13) 0.030(13) 0.022(19) 0 0 0
#End of data_281011-ICSD


