data_91660-ICSD
#?2014 by Fachinformationszentrum Karlsruhe, and the U.S. Secretary of 
#Commerce on behalf of the United States.  All rights reserved.
_database_code_ICSD                91660
_audit_creation_date               2002/10/01
_chemical_name_systematic          'Aluminium Phosphate(V)'
_chemical_formula_structural       'Al (P O4)'
_chemical_formula_sum              'Al1 O4 P1'
_publ_section_title
;
Characterization and structural analysis of differently prepared 
samples of dehydrated VPI-5
;
loop_
_citation_id
_citation_journal_abbrev
_citation_year
_citation_journal_volume
_citation_page_first
_citation_page_last
_citation_journal_id_ASTM
primary 'Microporous and Mesoporous Materials' 2000 34 99 113 MIMMFJ
_publ_author_name
;
de Onate Martinez, J.;McCusker, L.B.;Baerlocher, C.
;
_cell_length_a                     18.46799(50)
_cell_length_b                     31.97029(40)
_cell_length_c                     16.67589(20)
_cell_angle_alpha                  90.
_cell_angle_beta                   90.
_cell_angle_gamma                  90.
_cell_volume                       9845.9
_cell_formula_units_Z              72
_symmetry_space_group_name_H-M     'C 1 m 1'
_symmetry_Int_Tables_number        8
_refine_ls_R_factor_all            .027
loop_
_symmetry_equiv_pos_site_id
_symmetry_equiv_pos_as_xyz
  1	'x, -y, z'
  2	'x, y, z'
  3	'x+.5, -y+.5, z'
  4	'x+.5, y+.5, z'
loop_
_atom_type_symbol
_atom_type_oxidation_number
Al3+	3
O2-	-2
P5+	5
loop_
_atom_site_label
_atom_site_type_symbol
_atom_site_symmetry_multiplicity
_atom_site_Wyckoff_symbol
_atom_site_fract_x
_atom_site_fract_y
_atom_site_fract_z
_atom_site_occupancy
_atom_site_attached_hydrogens
_atom_site_U_iso_or_equiv
Al1 Al3+ 4 b 0.2106(3) 0.2137(1) 0.1293(4) 1. 0 0.06(2) 
Al2 Al3+ 2 a 0.0662 0.5 0.1313 1. 0 0.06(2) 
Al3 Al3+ 4 b 0.1634(3) 0.3317(1) 0.0951(4) 1. 0 0.06(2) 
Al4 Al3+ 4 b 0.2961(3) 0.2932(1) 0.3769(4) 1. 0 0.06(2) 
Al5 Al3+ 4 b 0.0899(3) 0.2546(1) 0.3588(4) 1. 0 0.06(2) 
Al6 Al3+ 4 b 0.0807(3) 0.4108(1) 0.3560(4) 1. 0 0.06(2) 
Al7 Al3+ 4 b 0.1982(4) 0.2122(1) 0.5968(4) 1. 0 0.06(2) 
Al8 Al3+ 2 a 0.0705(4) 0.5 0.5907(4) 1. 0 0.06(2) 
Al9 Al3+ 4 b 0.1562(4) 0.3375(1) 0.6305(4) 1. 0 0.06(2) 
Al10 Al3+ 4 b 0.2862(5) 0.2890(1) 0.8440(4) 1. 0 0.06(2) 
Al11 Al3+ 4 b 0.0779(3) 0.2511(1) 0.8580(4) 1. 0 0.06(2) 
Al12 Al3+ 4 b 0.0745(3) 0.4199(1) 0.8736(4) 1. 0 0.06(2) 
Al13 Al3+ 4 b 0.4151(3) 0.2481(1) 0.1161(4) 1. 0 0.06(2) 
Al14 Al3+ 4 b 0.4146(3) 0.0817(1) 0.1027(4) 1. 0 0.06(2) 
Al15 Al3+ 4 b 0.3470(3) 0.1629(1) 0.3600(4) 1. 0 0.06(2) 
Al16 Al3+ 4 b 0.4170(3) 0.2419(1) 0.6107(4) 1. 0 0.06(2) 
Al17 Al3+ 4 b 0.4196(3) 0.0882(1) 0.6308(3) 1. 0 0.06(2) 
Al18 Al3+ 4 b 0.3266(3) 0.1689(1) 0.8654(4) 1. 0 0.06(2) 
Al19 Al3+ 2 a 0.4140(3) 0 0.3825(4) 1. 0 0.06(2) 
Al20 Al3+ 2 a 0.4244(3) 0 0.8370(3) 1. 0 0.06(2) 
P1 P5+ 4 b 0.2893(3) 0.2931(1) 0.1879(4) 1. 0 0.002(1) 
P2 P5+ 4 b 0.0759(3) 0.2580(1) 0.1740(4) 1. 0 0.002(1) 
P3 P5+ 4 b 0.0787(3) 0.4108(1) 0.1646(3) 1. 0 0.002(1) 
P4 P5+ 4 b 0.1630(3) 0.3340(1) 0.4424(4) 1. 0 0.002(1) 
P5 P5+ 4 b 0.2142(3) 0.2063(1) 0.4074(4) 1. 0 0.002(1) 
P6 P5+ 2 a 0.0876(3) 0.5 0.4044(4) 1. 0 0.002(1) 
P7 P5+ 4 b 0.2918(3) 0.2886(1) 0.6541(4) 1. 0 0.002(1) 
P8 P5+ 4 b 0.0746(4) 0.2529(1) 0.6749(4) 1. 0 0.002(1) 
P9 P5+ 4 b 0.0798(3) 0.4196(1) 0.6894(4) 1. 0 0.002(1) 
P10 P5+ 4 b 0.1584(3) 0.3344(1) 0.9026(4) 1. 0 0.002(1) 
P11 P5+ 4 b 0.2070(3) 0.2159(1) 0.9397(4) 1. 0 0.002(1) 
P12 P5+ 2 a 0.0667(3) 0.5 0.9480(3) 1. 0 0.002(1) 
P13 P5+ 4 b 0.3366(3) 0.1614(1) 0.1692(4) 1. 0 0.002(1) 
P14 P5+ 4 b 0.4287(3) 0.2460(1) 0.4210(4) 1. 0 0.002(1) 
P15 P5+ 4 b 0.4249(3) 0.0870(1) 0.4429(3) 1. 0 0.002(1) 
P16 P5+ 4 b 0.3167(4) 0.1655(1) 0.6704(4) 1. 0 0.002(1) 
P17 P5+ 4 b 0.4165(3) 0.2504(1) 0.9214(4) 1. 0 0.002(1) 
P18 P5+ 4 b 0.4080(3) 0.0842(1) 0.9108(4) 1. 0 0.002(1) 
P19 P5+ 2 a 0.4109(2) 0 0.1958(4) 1. 0 0.002(1) 
P20 P5+ 2 a 0.4180(3) 0 0.6522(3) 1. 0 0.002(1) 
O1 O2- 4 b 0.1199(3) 0.2185(1) 0.1541(6) 1. 0 0.03(2) 
O2 O2- 4 b 0.1112(2) 0.4544(1) 0.1550(3) 1. 0 0.03(2) 
O3 O2- 4 b 0.2262(4) 0.2230(2) 0.0284(4) 1. 0 0.03(2) 
O4 O2- 2 a 0.0365(3) 0.5 0.0333(2) 1. 0 0.03(2) 
O5 O2- 4 b 0.2528(4) 0.2506(1) 0.1873(4) 1. 0 0.03(2) 
O6 O2- 2 a 0.4931(2) 0 0.1950(3) 1. 0 0.03(2) 
O7 O2- 4 b 0.2445(4) 0.3262(1) 0.1440(5) 1. 0 0.03(2) 
O8 O2- 4 b 0.1006(4) 0.2938(2) 0.1205(5) 1. 0 0.03(2) 
O9 O2- 4 b 0.0021(3) 0.4070(2) 0.1310(5) 1. 0 0.03(2) 
O10 O2- 4 b 0.1292(4) 0.3791(1) 0.1257(5) 1. 0 0.03(2) 
O11 O2- 4 b -.0040(3) 0.2477(2) 0.1654(5) 1. 0 0.03(2) 
O12 O2- 4 b 0.1739(4) 0.3293(2) -.0074(4) 1. 0 0.03(2) 
O13 O2- 4 b 0.2441(3) 0.3286(2) 0.4299(5) 1. 0 0.03(2) 
O14 O2- 4 b 0.2953(4) 0.3063(2) 0.2762(4) 1. 0 0.03(2) 
O15 O2- 4 b 0.2586(4) 0.2445(1) 0.3856(6) 1. 0 0.03(2) 
O16 O2- 2 a 0.5067(3) 0 0.3876(6) 1. 0 0.03(2) 
O17 O2- 4 b 0.1373(3) 0.2091(1) 0.3734(5) 1. 0 0.03(2) 
O18 O2- 4 b 0.1190(3) 0.4595(1) 0.3699(4) 1. 0 0.03(2) 
O19 O2- 4 b 0.1236(4) 0.2945(1) 0.4158(5) 1. 0 0.03(2) 
O20 O2- 4 b 0.1333(4) 0.3712(1) 0.3946(4) 1. 0 0.03(2) 
O21 O2- 4 b 0.0872(4) 0.2713(2) 0.2607(4) 1. 0 0.03(2) 
O22 O2- 4 b 0.0718(4) 0.4027(2) 0.2544(3) 1. 0 0.03(2) 
O23 O2- 4 b 0.1086(4) 0.2225(2) 0.6156(4) 1. 0 0.03(2) 
O24 O2- 4 b 0.1033(4) 0.4552(1) 0.6345(4) 1. 0 0.03(2) 
O25 O2- 4 b 0.2048(4) 0.2003(2) 0.4973(4) 1. 0 0.03(2) 
O26 O2- 2 a 0.1023(4) 0.5 0.4942(4) 1. 0 0.03(2) 
O27 O2- 4 b 0.2502(4) 0.2559(1) 0.6078(4) 1. 0 0.03(2) 
O28 O2- 4 b 0.2476(4) 0.3284(1) 0.6410(5) 1. 0 0.03(2) 
O29 O2- 4 b 0.1040(5) 0.2974(1) 0.6660(5) 1. 0 0.03(2) 
O30 O2- 4 b -.0002(4) 0.4061(2) 0.6820(4) 1. 0 0.03(2) 
O31 O2- 4 b 0.1313(4) 0.3831(1) 0.6767(4) 1. 0 0.03(2) 
O32 O2- 4 b -.0079(4) 0.2534(2) 0.6703(4) 1. 0 0.03(2) 
O33 O2- 4 b 0.1412(4) 0.3411(2) 0.5294(4) 1. 0 0.03(2) 
O34 O2- 4 b 0.2330(3) 0.3324(1) 0.8626(5) 1. 0 0.03(2) 
O35 O2- 4 b 0.2956(4) 0.2796(2) 0.7436(4) 1. 0 0.03(2) 
O36 O2- 4 b 0.2379(4) 0.2490(1) 0.8846(5) 1. 0 0.03(2) 
O37 O2- 2 a 0.5061(4) 0 0.8862(3) 1. 0 0.03(2) 
O38 O2- 4 b 0.1252(3) 0.2192(2) 0.9232(4) 1. 0 0.03(2) 
O39 O2- 4 b 0.1101(3) 0.4605(1) 0.9288(4) 1. 0 0.03(2) 
O40 O2- 4 b 0.1033(4) 0.3027(1) 0.8705(5) 1. 0 0.03(2) 
O41 O2- 4 b 0.1278(4) 0.3782(1) 0.8964(5) 1. 0 0.03(2) 
O42 O2- 4 b 0.0960(4) 0.2383(2) 0.7592(4) 1. 0 0.03(2) 
O43 O2- 4 b 0.0898(4) 0.4339(2) 0.7755(4) 1. 0 0.03(2) 
O44 O2- 4 b 0.2549(3) 0.1684(1) 0.1578(6) 1. 0 0.03(2) 
O45 O2- 4 b 0.3632(3) 0.2895(1) 0.1473(5) 1. 0 0.03(2) 
O46 O2- 4 b 0.3818(3) 0.0393(1) 0.1545(4) 1. 0 0.03(2) 
O47 O2- 4 b 0.3773(4) 0.2000(1) 0.1390(5) 1. 0 0.03(2) 
O48 O2- 4 b 0.3599(3) 0.1246(1) 0.1175(5) 1. 0 0.03(2) 
O49 O2- 4 b 0.4259(4) 0.2512(2) 0.0132(4) 1. 0 0.03(2) 
O50 O2- 4 b 0.4114(4) 0.0739(2) 0.0008(4) 1. 0 0.03(2) 
O51 O2- 4 b 0.3821(3) 0.2852(1) 0.4132(5) 1. 0 0.03(2) 
O52 O2- 4 b 0.3847(4) 0.0459(1) 0.4272(5) 1. 0 0.03(2) 
O53 O2- 4 b 0.2563(3) 0.1679(1) 0.3803(5) 1. 0 0.03(2) 
O54 O2- 4 b 0.3938(4) 0.2082(1) 0.3806(5) 1. 0 0.03(2) 
O55 O2- 4 b 0.4936(3) 0.0907(2) 0.3921(4) 1. 0 0.03(2) 
O56 O2- 4 b 0.3745(4) 0.1228(1) 0.4208(4) 1. 0 0.03(2) 
O57 O2- 4 b 0.5025(3) 0.2546(2) 0.3868(5) 1. 0 0.03(2) 
O58 O2- 4 b 0.3524(4) 0.1530(2) 0.2583(4) 1. 0 0.03(2) 
O59 O2- 4 b 0.2372(4) 0.1703(2) 0.6464(5) 1. 0 0.03(2) 
O60 O2- 4 b 0.3698(4) 0.2881(2) 0.6236(5) 1. 0 0.03(2) 
O61 O2- 4 b 0.3755(3) 0.0409(1) 0.6442(4) 1. 0 0.03(2) 
O62 O2- 4 b 0.3675(4) 0.1978(1) 0.6325(5) 1. 0 0.03(2) 
O63 O2- 4 b 0.3533(4) 0.1245(1) 0.6487(5) 1. 0 0.03(2) 
O64 O2- 4 b 0.4381(4) 0.2373(2) 0.5106(4) 1. 0 0.03(2) 
O65 O2- 4 b 0.4438(4) 0.0921(2) 0.5314(3) 1. 0 0.03(2) 
O66 O2- 4 b 0.3672(3) 0.2866(1) 0.8954(5) 1. 0 0.03(2) 
O67 O2- 4 b 0.3801(3) 0.0445(1) 0.8694(4) 1. 0 0.03(2) 
O68 O2- 4 b 0.2403(3) 0.1760(1) 0.9037(5) 1. 0 0.03(2) 
O69 O2- 4 b 0.3852(4) 0.2073(1) 0.8982(5) 1. 0 0.03(2) 
O70 O2- 4 b 0.4855(3) 0.0948(1) 0.8857(6) 1. 0 0.03(2) 
O71 O2- 4 b 0.3574(3) 0.1212(1) 0.8969(5) 1. 0 0.03(2) 
O72 O2- 4 b 0.4872(3) 0.2562(2) 0.8759(4) 1. 0 0.03(2) 
O73 O2- 4 b 0.3243(4) 0.1700(2) 0.7618(4) 1. 0 0.03(2) 
O74 O2- 2 a 0.3869(3) 0 0.2834(4) 1. 0 0.03(2) 
O75 O2- 2 a 0.4776(4) 0 0.5888(4) 1. 0 0.03(2) 
O76 O2- 2 a 0.4478(4) 0 0.7371(3) 1. 0 0.03(2) 

#End of data_91660-ICSD


