data_89011-ICSD
#?2014 by Fachinformationszentrum Karlsruhe, and the U.S. Secretary of 
#Commerce on behalf of the United States.  All rights reserved.
_database_code_ICSD                89011
_audit_creation_date               2001/07/16
_chemical_name_systematic          'Cesium Dicalcium Tritantalate'
_chemical_formula_structural       'Cs Ca2 (Ta3 O10)'
_chemical_formula_sum              'Ca2 Cs1 O10 Ta3'
_publ_section_title
;
Structural chemistry of new ion-exchangeable tantalates with layered 
perovskite structure: new Dion-Jacobson phase M Ca2 Ta3 O10(M = 
alkali metal) and Ruddlesden-Popper phase Na2 Ca2 Ta3 O10
;
loop_
_citation_id
_citation_journal_abbrev
_citation_year
_citation_journal_volume
_citation_journal_issue
_citation_page_first
_citation_page_last
_citation_journal_id_ASTM
primary 'Materials Research Bulletin' 1999 34 6 971 982 MRBUAC
_publ_author_name
;
Toda, K.;Teranishi, T.;Ye, Z.-G.;Sato, M.;Hinatsu, Y.
;
_cell_length_a                     3.8659(1)
_cell_length_b                     3.8659(1)
_cell_length_c                     15.2538(5)
_cell_angle_alpha                  90.
_cell_angle_beta                   90.
_cell_angle_gamma                  90.
_cell_volume                       227.97
_cell_formula_units_Z              1
_symmetry_space_group_name_H-M     'P 4/m m m'
_symmetry_Int_Tables_number        123
_refine_ls_R_factor_all            .013
loop_
_symmetry_equiv_pos_site_id
_symmetry_equiv_pos_as_xyz
  1	'y, x, -z'
  2	'-y, -x, -z'
  3	'-y, x, -z'
  4	'y, -x, -z'
  5	'-x, y, -z'
  6	'x, -y, -z'
  7	'x, y, -z'
  8	'-x, -y, -z'
  9	'-y, -x, z'
 10	'y, x, z'
 11	'y, -x, z'
 12	'-y, x, z'
 13	'x, -y, z'
 14	'-x, y, z'
 15	'-x, -y, z'
 16	'x, y, z'
loop_
_atom_type_symbol
_atom_type_oxidation_number
Ca2+	2
Cs1+	1
O2-	-2
Ta5+	5
loop_
_atom_site_label
_atom_site_type_symbol
_atom_site_symmetry_multiplicity
_atom_site_Wyckoff_symbol
_atom_site_fract_x
_atom_site_fract_y
_atom_site_fract_z
_atom_site_occupancy
_atom_site_attached_hydrogens
_atom_site_B_iso_or_equiv
Cs1 Cs1+ 1 d 0.5 0.5 0.5 1. 0 2.2(3) 
Ca1 Ca2+ 2 h 0.5 0.5 0.146(1) 1. 0 1.2(4) 
Ta1 Ta5+ 1 a 0 0 0 1. 0 0.3(2) 
Ta2 Ta5+ 2 g 0 0 0.2788(3) 1. 0 0.4(2) 
O1 O2- 2 f 0 0.5 0 1. 0 3.(1) 
O2 O2- 2 g 0 0 0.125(4) 1. 0 3.(1) 
O3 O2- 4 i 0 0.5 0.255(3) 1. 0 3.(1) 
O4 O2- 2 g 0 0 0.391(4) 1. 0 3.(1) 

#End of data_89011-ICSD


