data_201351-ICSD
#?2014 by Fachinformationszentrum Karlsruhe, and the U.S. Secretary of 
#Commerce on behalf of the United States.  All rights reserved.
_database_code_ICSD                201351
_audit_creation_date               1982/12/31
_chemical_name_systematic
;
Tripotassium Aluminium 15-oxooctaborate
;
_chemical_formula_structural       'K3 Al B8 O15'
_chemical_formula_sum              'Al1 B8 K3 O15'
_publ_section_title
;
The crystal structure of tripotassium aluminate octaborate K3 Al B8 
O15
;
loop_
_citation_id
_citation_journal_abbrev
_citation_year
_citation_journal_volume
_citation_page_first
_citation_page_last
_citation_journal_id_ASTM
primary 'Journal of the Ceramic Society of Japan' 1982 90 458 463 JOCSJY
_publ_author_name
;
Tanaka, Y.;Fukunaga, J.;Setoguchi, M.;Higashi, T.;Ihara, M.
;
_cell_length_a                     10.107(5)
_cell_length_b                     11.485(5)
_cell_length_c                     12.760(5)
_cell_angle_alpha                  90.
_cell_angle_beta                   91.54(2)
_cell_angle_gamma                  90.
_cell_volume                       1480.63
_cell_formula_units_Z              4
_symmetry_space_group_name_H-M     'P 1 21/c 1'
_symmetry_Int_Tables_number        14
_refine_ls_R_factor_all            .051
loop_
_symmetry_equiv_pos_site_id
_symmetry_equiv_pos_as_xyz
  1	'x, -y+.5, z+.5'
  2	'-x, -y, -z'
  3	'-x, y+.5, -z+.5'
  4	'x, y, z'
loop_
_atom_type_symbol
_atom_type_oxidation_number
Al3+	3
B3+	3
K1+	1
O2-	-2
loop_
_atom_site_label
_atom_site_type_symbol
_atom_site_symmetry_multiplicity
_atom_site_Wyckoff_symbol
_atom_site_fract_x
_atom_site_fract_y
_atom_site_fract_z
_atom_site_occupancy
_atom_site_attached_hydrogens
K1 K1+ 4 e 0.8879(1) 0.3719(1) 0.4390(1) 1. 0 
K2 K1+ 4 e 0.5276(1) 0.8639(1) 0.2776(1) 1. 0 
K3 K1+ 4 e 0.8893(1) 0.8999(1) 0.3965(1) 1. 0 
Al1 Al3+ 4 e 0.7484(1) 0.8352(1) 0.0393(1) 1. 0 
B1 B3+ 4 e 0.6940(5) 0.1275(4) 0.3331(4) 1. 0 
B2 B3+ 4 e 0.8091(4) 0.4616(4) 0.1800(4) 1. 0 
B3 B3+ 4 e 0.6545(5) 0.0977(4) 0.5236(4) 1. 0 
B4 B3+ 4 e 0.4907(5) 0.1982(4) 0.4155(4) 1. 0 
B5 B3+ 4 e 0.8292(5) 0.2480(4) 0.2153(4) 1. 0 
B6 B3+ 4 e 0.7757(5) 0.0517(4) 0.1648(4) 1. 0 
B7 B3+ 4 e 0.7798(5) 0.6187(4) 0.3124(4) 1. 0 
B8 B3+ 4 e 0.8703(5) 0.6632(4) 0.1447(4) 1. 0 
O1 O2- 4 e 0.7309(3) 0.0838(3) 0.4383(2) 1. 0 
O2 O2- 4 e 0.7764(4) 0.2290(3) 0.3091(3) 1. 0 
O3 O2- 4 e 0.7154(3) 0.0331(2) 0.2569(2) 1. 0 
O4 O2- 4 e 0.5556(3) 0.1654(3) 0.3285(2) 1. 0 
O5 O2- 4 e 0.5328(3) 0.1549(3) 0.5121(2) 1. 0 
O6 O2- 4 e 0.8321(3) 0.1602(3) 0.1431(2) 1. 0 
O7 O2- 4 e 0.6844(3) 0.4376(3) 0.1217(2) 1. 0 
O8 O2- 4 e 0.3900(3) 0.2740(3) 0.4086(2) 1. 0 
O9 O2- 4 e 0.8856(3) 0.3528(2) 0.1910(3) 1. 0 
O10 O2- 4 e 0.7865(3) 0.9717(3) 0.0883(3) 1. 0 
O11 O2- 4 e 0.8908(3) 0.5480(3) 0.1264(2) 1. 0 
O12 O2- 4 e 0.8850(3) 0.7441(3) 0.0694(2) 1. 0 
O13 O2- 4 e 0.8297(3) 0.6997(3) 0.2426(2) 1. 0 
O14 O2- 4 e 0.7723(3) 0.5048(2) 0.2853(2) 1. 0 
O15 O2- 4 e 0.7407(4) 0.6600(3) 0.4049(2) 1. 0 

#End of data_201351-ICSD


