data_30212-ICSD
#?2014 by Fachinformationszentrum Karlsruhe, and the U.S. Secretary of 
#Commerce on behalf of the United States.  All rights reserved.
_database_code_ICSD                30212
_audit_creation_date               1980/01/01
_audit_update_record               2012/08/01
_chemical_name_systematic          'Dipotassium Hexabromostannate'
_chemical_formula_structural       'K2 (Sn Br6)'
_chemical_formula_sum              'Br6 K2 Sn1'
_publ_section_title
;
Die Kristallstrukturen von Bromostannaten A Sn Br6 (A= Cs, Rb, N H4, 
K )
;
loop_
_citation_id
_citation_journal_abbrev
_citation_year
_citation_journal_volume
_citation_page_first
_citation_page_last
_citation_journal_id_ASTM
primary
;
Zeitschrift fuer Kristallographie, Kristallgeometrie, Kristallphysik, 
Kristallchemie (-144,1977)
;
 1938 100 265 271 ZEKGAX
2 'Phase Transition' 1992 38 127 220 PHTRDP
_publ_author_name                  'Markstein, G.;Nowotny, H.N.'
_cell_length_a                     7.43(1)
_cell_length_b                     7.43(1)
_cell_length_c                     10.61(2)
_cell_angle_alpha                  90.
_cell_angle_beta                   90.
_cell_angle_gamma                  90.
_cell_volume                       585.72
_cell_formula_units_Z              4
_symmetry_space_group_name_H-M     'C 4 2 21'
_symmetry_Int_Tables_number        90
loop_
_symmetry_equiv_pos_site_id
_symmetry_equiv_pos_as_xyz
  1	'-y+.5, x, z'
  2	'-y+.5, -x, -z'
  3	'y+.5, -x, z'
  4	'y+.5, x, -z'
  5	'-x, y, -z'
  6	'x, -y, -z'
  7	'-x, -y, z'
  8	'x, y, z'
  9	'-y, x+.5, z'
 10	'-y, -x+.5, -z'
 11	'y, -x+.5, z'
 12	'y, x+.5, -z'
 13	'-x+.5, y+.5, -z'
 14	'x+.5, -y+.5, -z'
 15	'-x+.5, -y+.5, z'
 16	'x+.5, y+.5, z'
loop_
_atom_type_symbol
_atom_type_oxidation_number
Br1-	-1
K1+	1
Sn4+	4
loop_
_atom_site_label
_atom_site_type_symbol
_atom_site_symmetry_multiplicity
_atom_site_Wyckoff_symbol
_atom_site_fract_x
_atom_site_fract_y
_atom_site_fract_z
_atom_site_occupancy
_atom_site_attached_hydrogens
Sn1 Sn4+ 4 c 0.25 0.25 0.25 1. 0 
K1 K1+ 4 a 0 0 0 1. 0 
K2 K1+ 4 b 0 0 0.5 1. 0 
Br1 Br1- 4 c 0.25 0.25 0.54 1. 0 
Br2 Br1- 4 c 0.25 0.25 -.02 1. 0 
Br3 Br1- 16 g 0.22 0 0.245 1. 0 

#End of data_30212-ICSD


