data_63315-ICSD
#?2014 by Fachinformationszentrum Karlsruhe, and the U.S. Secretary of 
#Commerce on behalf of the United States.  All rights reserved.
_database_code_ICSD                63315
_audit_creation_date               1990/12/27
_audit_update_record               2011/02/01
_chemical_name_systematic          'Aluminium Silicate Hydroxide *'
_chemical_formula_structural       'Al4 (O H)8 (Si4 O10)'
_chemical_formula_sum              'H8 Al4 O18 Si4'
_chemical_name_mineral             'Kaolinite 1A'
_publ_section_title
;
Verification of the Triclinic Crystal Structure of Kaolinite
;
loop_
_citation_id
_citation_journal_abbrev
_citation_year
_citation_journal_volume
_citation_page_first
_citation_page_last
_citation_journal_id_ASTM
primary 'Clays and Clay Minerals (-28,1980)' 1988 36 225 232 CCMPA7
_publ_author_name                  'Young, R.A.;Hewat, A.W.'
_cell_length_a                     5.149
_cell_length_b                     8.9335(1)
_cell_length_c                     7.3844(1)
_cell_angle_alpha                  91.930(1)
_cell_angle_beta                   105.042(1)
_cell_angle_gamma                  89.791(1)
_cell_volume                       327.84
_cell_formula_units_Z              1
_symmetry_space_group_name_H-M     'P 1'
_symmetry_Int_Tables_number        1
_refine_ls_R_factor_all            .0106
loop_
_symmetry_equiv_pos_site_id
_symmetry_equiv_pos_as_xyz
  1	'x, y, z'
loop_
_atom_type_symbol
_atom_type_oxidation_number
Al3+	3
H1+	1
O2-	-2
Si4+	4
loop_
_atom_site_label
_atom_site_type_symbol
_atom_site_symmetry_multiplicity
_atom_site_Wyckoff_symbol
_atom_site_fract_x
_atom_site_fract_y
_atom_site_fract_z
_atom_site_occupancy
_atom_site_attached_hydrogens
Al1 Al3+ 1 a 0.354(10) 0.505(5) 0.470(6) 1. 0 
Al2 Al3+ 1 a 0.373(8) 0.829(5) 0.451(6) 1. 0 
Al3 Al3+ 1 a 0.876(10) 0.997(5) 0.470(6) 1. 0 
Al4 Al3+ 1 a 0.848(9) 0.331(5) 0.460(6) 1. 0 
Si1 Si4+ 1 a 0.067(8) 0.349(4) 0.056(4) 1. 0 
Si2 Si4+ 1 a 0.083(7) 0.650(4) 0.086(5) 1. 0 
Si3 Si4+ 1 a 0.543(7) 0.841(4) 0.076(5) 1. 0 
Si4 Si4+ 1 a 0.561(8) 0.181(3) 0.067(5) 1. 0 
O1 O2- 1 a 0.11 0.342 0.307 1. 0 
O2 O2- 1 a 0.148(7) 0.661(4) 0.290(5) 1. 0 
O3 O2- 1 a 0.082(7) 0.488(4) 0.973(4) 1. 0 
O4 O2- 1 a 0.259(6) 0.220(3) 0.980(4) 1. 0 
O5 O2- 1 a 0.234(7) 0.768(3) 0.965(4) 1. 0 
O6 O2- 1 a 0.626(9) 0.843(5) 0.294(5) 1. 0 
O7 O2- 1 a 0.685(7) 0.157(4) 0.307(5) 1. 0 
O8 O2- 1 a 0.548(7) 0.003(3) 0.976(4) 1. 0 
O9 O2- 1 a 0.771(6) 0.725(3) 0.030(4) 1. 0 
O10 O2- 1 a 0.766(7) 0.262(4) 0.982(4) 1. 0 
O11 O2- 1 a 0.117(7) 0.967(4) 0.312(5) 1. 0 
O12 O2- 1 a 0.024(7) 0.172(4) 0.584(5) 1. 0 
O13 O2- 1 a 0.128(7) 0.465(4) 0.585(4) 1. 0 
O14 O2- 1 a 0.106(6) 0.843(4) 0.599(4) 1. 0 
O15 O2- 1 a 0.607(7) 0.468(3) 0.304(4) 1. 0 
O16 O2- 1 a 0.524(7) 0.660(4) 0.591(5) 1. 0 
O17 O2- 1 a 0.593(6) 0.974(4) 0.577(4) 1. 0 
O18 O2- 1 a 0.582(7) 0.369(3) 0.585(5) 1. 0 
H1 H1+ 1 a 0.244(8) 0.072(4) 0.344(5) 1. 0 
H2 H1+ 1 a 0.173(8) 0.187(4) 0.713(6) 1. 0 
H3 H1+ 1 a 0.073(8) 0.526(4) 0.705(5) 1. 0 
H4 H1+ 1 a 0.083(8) 0.838(4) 0.715(5) 1. 0 
H5 H1+ 1 a 0.691(8) 0.552(4) 0.252(5) 1. 0 
H6 H1+ 1 a 0.623(8) 0.647(4) 0.720(6) 1. 0 
H7 H1+ 1 a 0.593(8) 0.982(4) 0.722(6) 1. 0 
H8 H1+ 1 a 0.606(7) 0.295(4) 0.704(5) 1. 0 

#End of data_63315-ICSD


