data_39749-ICSD
#?2014 by Fachinformationszentrum Karlsruhe, and the U.S. Secretary of 
#Commerce on behalf of the United States.  All rights reserved.
_database_code_ICSD                39749
_audit_creation_date               1994/06/30
_audit_update_record               2008/02/01
_chemical_name_systematic          'Sodium Hydrogendisilicate Hydrate'
_chemical_formula_structural       'Na (Si2 O4 (O H)) (H2 O)'
_chemical_formula_sum              'H3 Na1 O6 Si2'
_chemical_name_mineral             Grumantite
_publ_section_title
;
A new type of silicate radical in the structure of grumantite 
Na(Si2O4(OH))*H2O
;
loop_
_citation_id
_citation_journal_abbrev
_citation_year
_citation_journal_volume
_citation_journal_issue
_citation_page_first
_citation_page_last
_citation_journal_id_ASTM
primary 'Doklady Akademii Nauk SSSR' 1989 305 4 868 871 DANKAS
2 'Soviet Physics, Doklady (see: Doklady Akademii Nauk SSR)'
 1989 34 4 284 286 SPHDA9
_publ_author_name
;
Yamnova, N.Ya.;Pushcharovskii, D.Yu.;Andrianov, V.I.;Rastsvetaeva, 
R.K.;Khomyakov, A.P.;Mikheeva, M.G.
;
_cell_length_a                     15.979(8)
_cell_length_b                     18.25(1)
_cell_length_c                     7.169(2)
_cell_angle_alpha                  90.
_cell_angle_beta                   90.
_cell_angle_gamma                  90.
_cell_volume                       2090.6
_cell_formula_units_Z              16
_symmetry_space_group_name_H-M     'F d d 2'
_symmetry_Int_Tables_number        43
_refine_ls_R_factor_all            .043
loop_
_symmetry_equiv_pos_site_id
_symmetry_equiv_pos_as_xyz
  1	'x+.25, -y+.25, z+.25'
  2	'-x+.25, y+.25, z+.25'
  3	'-x, -y, z'
  4	'x, y, z'
  5	'x+.25, -y+.75, z+.75'
  6	'x+.75, -y+.25, z+.75'
  7	'x+.75, -y+.75, z+.25'
  8	'-x+.25, y+.75, z+.75'
  9	'-x+.75, y+.25, z+.75'
 10	'-x+.75, y+.75, z+.25'
 11	'-x, -y+.5, z+.5'
 12	'-x+.5, -y, z+.5'
 13	'-x+.5, -y+.5, z'
 14	'x, y+.5, z+.5'
 15	'x+.5, y, z+.5'
 16	'x+.5, y+.5, z'
loop_
_atom_type_symbol
_atom_type_oxidation_number
H1+	1
Na1+	1
O2-	-2
Si4+	4
loop_
_atom_site_label
_atom_site_type_symbol
_atom_site_symmetry_multiplicity
_atom_site_Wyckoff_symbol
_atom_site_fract_x
_atom_site_fract_y
_atom_site_fract_z
_atom_site_occupancy
_atom_site_attached_hydrogens
_atom_site_B_iso_or_equiv
Si1 Si4+ 16 b 0.1030(1) 0.2258(1) 0.3753(1) 1. 0 0.56(2) 
Si2 Si4+ 16 b 0.2241(1) 0.0907(1) 0.3719(3) 1. 0 0.51(2) 
Na1 Na1+ 16 b 0.1382(2) 0.2385(1) 0.8868(5) 1. 0 1.44(4) 
O1 O2- 16 b 0.1691(3) 0.1618(2) 0.4289(7) 1. 0 1.06(6) 
O2 O2- 16 b 0.1589(3) 0.0243(2) 0.3149(6) 1. 0 0.81(5) 
O3 O2- 16 b 0.0079(3) 0.0843(2) 0.6276(8) 1. 0 1.49(6) 
O4 O2- 16 b 0.0413(3) 0.1452(2) 0.9666(7) 1. 0 0.90(5) 
O5 O2- 16 b 0.1183(3) 0.0253(2) 0.9513(6) 1. 0 1.17(6) 
O6 O2- 16 b 0.0140(3) 0.1873(2) 0.3233(6) 1. 0 0.78(5) 
H1 H1+ 16 b 0.015(7) 0.112(6) 0.72(2) 1. 0 1.5(5) 
H2 H1+ 16 b 0.010(7) 0.120(6) 0.54(2) 1. 0 1.5(5) 
H3 H1+ 16 b 0.095(6) 0.071(6) 0.97(2) 1. 0 1.5(5) 

#End of data_39749-ICSD


