data_165866-ICSD
#?2014 by Fachinformationszentrum Karlsruhe, and the U.S. Secretary of 
#Commerce on behalf of the United States.  All rights reserved.
_database_code_ICSD                165866
_audit_creation_date               2010/08/01
_chemical_name_systematic
;
Dimagnesium Tecto-tetraalumopentasilicate
;
_chemical_formula_structural       'Mg2 (Al4 Si5 O18)'
_chemical_formula_sum              'Al4 Mg2 O18 Si5'
_publ_section_title
;
Origin of improvement of Q based on high symmetry accompanying Si - 
Al disordering in cordierite millimeter-wave ceramics
;
loop_
_citation_id
_citation_journal_abbrev
_citation_year
_citation_journal_volume
_citation_page_first
_citation_page_last
_citation_journal_id_ASTM
primary 'Journal of the European Ceramic Society' 2010 30 315 318 JECSER
_publ_author_name
;
Ohsato, H.;Kagomiya, I.;Terada, M.;Kakimoto, K.
;
_cell_length_a                     17.063(2)
_cell_length_b                     9.745(1)
_cell_length_c                     9.337(1)
_cell_angle_alpha                  90.
_cell_angle_beta                   90.
_cell_angle_gamma                  90.
_cell_volume                       1552.55
_cell_formula_units_Z              4
_symmetry_space_group_name_H-M     'C c c m'
_symmetry_Int_Tables_number        66
_refine_ls_R_factor_all            .0356
loop_
_symmetry_equiv_pos_site_id
_symmetry_equiv_pos_as_xyz
  1	'-x, y, z+.5'
  2	'x, -y, z+.5'
  3	'x, y, -z'
  4	'-x, -y, -z'
  5	'x, -y, -z+.5'
  6	'-x, y, -z+.5'
  7	'-x, -y, z'
  8	'x, y, z'
  9	'-x+.5, y+.5, z+.5'
 10	'x+.5, -y+.5, z+.5'
 11	'x+.5, y+.5, -z'
 12	'-x+.5, -y+.5, -z'
 13	'x+.5, -y+.5, -z+.5'
 14	'-x+.5, y+.5, -z+.5'
 15	'-x+.5, -y+.5, z'
 16	'x+.5, y+.5, z'
loop_
_atom_type_symbol
_atom_type_oxidation_number
Al3+	3
Mg2+	2
O2-	-2
Si4+	4
loop_
_atom_site_label
_atom_site_type_symbol
_atom_site_symmetry_multiplicity
_atom_site_Wyckoff_symbol
_atom_site_fract_x
_atom_site_fract_y
_atom_site_fract_z
_atom_site_occupancy
_atom_site_attached_hydrogens
_atom_site_B_iso_or_equiv
Mg1 Mg2+ 8 g 0.3358(2) 0 0.250 1. 0 0.23 
Al1 Al3+ 8 k 0.250 0.250 0.2505(5) 1. 0 0.22 
Al2 Al3+ 8 l 0.0531(2) 0.3060(3) 0 1. 0 0.25 
Si1 Si4+ 4 b 0 0.5 0.250 1. 0 0.2 
Si2 Si4+ 8 l 0.1933(2) 0.0830(3) 0 1. 0 0.26 
Si3 Si4+ 8 l 0.1347(2) 0.7654(3) 0 1. 0 0.23 
O1 O2- 16 m 0.2394(2) 0.9024(4) 0.3766(4) 1. 0 0.27 
O2 O2- 16 m 0.0648(2) 0.5830(4) 0.3349(4) 1. 0 0.24 
O3 O2- 16 m 0.8223(2) 0.6922(4) 0.3602(5) 1. 0 0.31 
O4 O2- 8 l 0.0465(3) 0.7556(6) 0 1. 0 0.25 
O5 O2- 8 l 0.1304(4) 0.1760(6) 0 1. 0 0.65 
O6 O2- 8 l 0.1651(3) -0.0723(6) 0 1. 0 0.54 

#End of data_165866-ICSD


