data_9643-ICSD
#?2014 by Fachinformationszentrum Karlsruhe, and the U.S. Secretary of 
#Commerce on behalf of the United States.  All rights reserved.
_database_code_ICSD                9643
_audit_creation_date               1980/01/01
_audit_update_record               2012/08/01
_chemical_name_systematic          'Aluminium Phosphate(V) - Beta, Ht'
_chemical_formula_structural       'Al (P O4)'
_chemical_formula_sum              'Al1 O4 P1'
_chemical_name_mineral             Berlinite
_publ_section_title
;
X-ray study of the alpha-beta transformation of berlinite Al P O4
;
loop_
_citation_id
_citation_journal_abbrev
_citation_year
_citation_journal_volume
_citation_page_first
_citation_page_last
_citation_journal_id_ASTM
primary 'Canadian Journal of Physics' 1976 54 638 647 CJPHAD
2
;
Zeitschrift fuer Kristallographie, Kristallgeometrie, Kristallphysik, 
Kristallchemie (-144,1977)
;
 1966 123 161 185 ZEKGAX
3 'Golden Book of Phase Transitions, Wroclaw' 2002 1 1 123 GBOPT5
_publ_author_name                  'Ng, H.N.;Calvo, C.'
_cell_length_a                     4.943
_cell_length_b                     4.943
_cell_length_c                     10.948
_cell_angle_alpha                  90.
_cell_angle_beta                   90.
_cell_angle_gamma                  120.
_cell_volume                       231.66
_cell_formula_units_Z              3
_symmetry_space_group_name_H-M     'P 64 2 2'
_symmetry_Int_Tables_number        181
_refine_ls_R_factor_all            .037
loop_
_symmetry_equiv_pos_site_id
_symmetry_equiv_pos_as_xyz
  1	'x, x-y, -z+.6667'
  2	'-x+y, y, -z'
  3	'-y, -x, -z+.3333'
  4	'-x, -x+y, -z+.6667'
  5	'x-y, -y, -z'
  6	'y, x, -z+.3333'
  7	'x-y, x, z+.6667'
  8	'y, -x+y, z+.3333'
  9	'-x, -y, z'
 10	'-x+y, -x, z+.6667'
 11	'-y, x-y, z+.3333'
 12	'x, y, z'
loop_
_atom_type_symbol
_atom_type_oxidation_number
Al3+	3
O2-	-2
P5+	5
loop_
_atom_site_label
_atom_site_type_symbol
_atom_site_symmetry_multiplicity
_atom_site_Wyckoff_symbol
_atom_site_fract_x
_atom_site_fract_y
_atom_site_fract_z
_atom_site_occupancy
_atom_site_attached_hydrogens
Al1 Al3+ 3 d 0.5 0 0.5 1. 0 
P1 P5+ 3 c 0.5 0 0 1. 0 
O1 O2- 12 k 0.422(1) 0.228(2) 0.5877(3) 1. 0 

loop_
_atom_site_aniso_label
_atom_site_aniso_type_symbol
_atom_site_aniso_U_11
_atom_site_aniso_U_22
_atom_site_aniso_U_33
_atom_site_aniso_U_12
_atom_site_aniso_U_13
_atom_site_aniso_U_23
Al1 Al3+ 0.034(4) 0.025(4) 0.023(2) 0.0125(20) 0 0
P1 P5+ 0.032(3) 0.027(4) 0.0300(2) 0.0135(20) 0 0
O1 O2- 0.068(4) 0.066(6) 0.080(2) 0.032(5) 0.009(6) -.036(4)
#End of data_9643-ICSD


