data_24144-ICSD
#?2014 by Fachinformationszentrum Karlsruhe, and the U.S. Secretary of 
#Commerce on behalf of the United States.  All rights reserved.
_database_code_ICSD                24144
_audit_creation_date               1986/10/02
_audit_update_record               2004/10/01
_chemical_name_systematic
;
Dipotassium Heptafluoroprotactinate(V)
;
_chemical_formula_structural       'K2 (Pa F7)'
_chemical_formula_sum              'F7 K2 Pa1'
_publ_section_title
;
The crystal structure of potassium heptafluoroprotaktinate(V)
;
loop_
_citation_id
_citation_journal_abbrev
_citation_year
_citation_journal_volume
_citation_page_first
_citation_page_last
_citation_journal_id_ASTM
primary 'Chemical Communications (1965 - 1969)' 1965 1965 554 555 CCOMA8
_publ_author_name                  'Brown, D.;Smith, A.J.'
_cell_length_a                     13.94
_cell_length_b                     6.76
_cell_length_c                     8.24
_cell_angle_alpha                  90.
_cell_angle_beta                   125.5
_cell_angle_gamma                  90.
_cell_volume                       632.15
_cell_formula_units_Z              4
_symmetry_space_group_name_H-M     'C 1 2/c 1'
_symmetry_Int_Tables_number        15
_refine_ls_R_factor_all            .102
loop_
_symmetry_equiv_pos_site_id
_symmetry_equiv_pos_as_xyz
  1	'x, -y, z+.5'
  2	'-x, -y, -z'
  3	'-x, y, -z+.5'
  4	'x, y, z'
  5	'x+.5, -y+.5, z+.5'
  6	'-x+.5, -y+.5, -z'
  7	'-x+.5, y+.5, -z+.5'
  8	'x+.5, y+.5, z'
loop_
_atom_type_symbol
_atom_type_oxidation_number
F1-	-1
K1+	1
Pa5+	5
loop_
_atom_site_label
_atom_site_type_symbol
_atom_site_symmetry_multiplicity
_atom_site_Wyckoff_symbol
_atom_site_fract_x
_atom_site_fract_y
_atom_site_fract_z
_atom_site_occupancy
_atom_site_attached_hydrogens
K1 K1+ 8 f 0.3273 0.0085 0.259 1. 0 
Pa1 Pa5+ 4 e 0 0.0236 0.25 1. 0 
F1 F1- 8 f 0.8223 0.1221 0.1406 1. 0 
F2 F1- 8 f 0.0756 0.126 0.5724 1. 0 
F3 F1- 8 f 0.8918 0.7799 0.0742 1. 0 
F4 F1- 4 e 0 0.354 0.25 1. 0 

#End of data_24144-ICSD


