data_80565-ICSD
#?2014 by Fachinformationszentrum Karlsruhe, and the U.S. Secretary of 
#Commerce on behalf of the United States.  All rights reserved.
_database_code_ICSD                80565
_audit_creation_date               1997/05/13
_audit_update_record               2007/08/01
_chemical_name_systematic
;
Barium Catena-pentafluoroaluminate - Gamma
;
_chemical_formula_structural       'Ba (Al F5)'
_chemical_formula_sum              'Al1 Ba1 F5'
_publ_section_title
;
Structure determination of beta- and gamma-Ba Al F5 by X-ray and 
neutron powder diffraction: a model for the alpha - beta - gamma 
transitions
;
loop_
_citation_id
_citation_journal_abbrev
_citation_year
_citation_journal_volume
_citation_page_first
_citation_page_last
_citation_journal_id_ASTM
primary 'Journal of Solid State Chemistry' 1990 89 282 291 JSSCBI
2 'Phase Transition' 1992 38 127 220 PHTRDP
_publ_author_name
;
Le Bail, A.;Ferey, G.;Mercier, A.M.;de Kozak, A.;Samouel, M.
;
_cell_length_a                     5.2584(1)
_cell_length_b                     9.7298(2)
_cell_length_c                     7.3701(2)
_cell_angle_alpha                  90.
_cell_angle_beta                   90.875(1)
_cell_angle_gamma                  90.
_cell_volume                       377.03
_cell_formula_units_Z              4
_symmetry_space_group_name_H-M     'P 1 21 1'
_symmetry_Int_Tables_number        4
_refine_ls_R_factor_all            .029
loop_
_symmetry_equiv_pos_site_id
_symmetry_equiv_pos_as_xyz
  1	'-x, y+.5, -z'
  2	'x, y, z'
loop_
_atom_type_symbol
_atom_type_oxidation_number
Al3+	3
Ba2+	2
F1-	-1
loop_
_atom_site_label
_atom_site_type_symbol
_atom_site_symmetry_multiplicity
_atom_site_Wyckoff_symbol
_atom_site_fract_x
_atom_site_fract_y
_atom_site_fract_z
_atom_site_occupancy
_atom_site_attached_hydrogens
_atom_site_B_iso_or_equiv
Ba1 Ba2+ 2 a 0.0105(10) 0 0.8864(7) 1. 0 1.15(9) 
Ba2 Ba2+ 2 a 0.4871(11) 0.3472(6) 0.6389(7) 1. 0 0.96(8) 
Al1 Al3+ 2 a 0.0101(18) 0.6266(9) 0.5701(10) 1. 0 1.32(12) 
Al2 Al3+ 2 a 0.5145(13) 0.7334(8) 0.8680(8) 1. 0 0.49(8) 
F1 F1- 2 a 0.2518(9) 0.0464(7) 0.5324(7) 1. 0 1.44(9) 
F2 F1- 2 a 0.2519(9) 0.2536(7) 0.9442(7) 1. 0 1.47(10) 
F3 F1- 2 a 0.7654(9) 0.0361(7) 0.5553(7) 1. 0 1.18(9) 
F4 F1- 2 a 0.2677(8) 0.7345(8) 0.0329(7) 1. 0 1.29(9) 
F5 F1- 2 a 0.0387(9) 0.5110(7) 0.7553(6) 1. 0 1.42(8) 
F6 F1- 2 a 0.5064(9) 0.9165(6) 0.8419(6) 1. 0 0.89(8) 
F7 F1- 2 a 0.9916(10) 0.2619(5) 0.6009(7) 1. 0 1.56(9) 
F8 F1- 2 a 0.4485(8) 0.0569(6) 0.1350(7) 1. 0 1.51(8) 
F9 F1- 2 a 0.2832(8) 0.7286(7) 0.6782(6) 1. 0 1.40(8) 
F10 F1- 2 a 0.7924(8) 0.7449(7) 0.7038(7) 1. 0 1.44(8) 

#End of data_80565-ICSD


