data_200162-ICSD
#?2014 by Fachinformationszentrum Karlsruhe, and the U.S. Secretary of 
#Commerce on behalf of the United States.  All rights reserved.
_database_code_ICSD                200162
_audit_creation_date               1980/01/01
_audit_update_record               2007/08/01
_chemical_name_systematic
;
Calcium Tetramanganese Pentakis(catena-silicate)
;
_chemical_formula_structural       'Ca Mn4 (Si O3)5'
_chemical_formula_sum              'Ca1 Mn4 O15 Si5'
_chemical_name_mineral             Rhodonite
_publ_section_title
;
The crystal structures of natural rhodonite Ca Mn4 (Si5 O15) and 
synthetic Na H Cd4 (Ge5 O15) and Li H Cd4 (Ge5 O15)
;
loop_
_citation_id
_citation_journal_abbrev
_citation_year
_citation_journal_volume
_citation_page_first
_citation_page_last
_citation_journal_id_ASTM
primary 'Doklady Akademii Nauk SSSR' 1977 234 586 589 DANKAS
_publ_author_name
;
Simonov, M.A.;Belokoneva, E.L.;Egorov Tismenko, Yu.K.;Belov, N.V.
;
_cell_length_a                     7.6816(2)
_cell_length_b                     11.8180(4)
_cell_length_c                     6.7073(4)
_cell_angle_alpha                  92.355(6)
_cell_angle_beta                   93.948(5)
_cell_angle_gamma                  105.665(4)
_cell_volume                       583.76
_cell_formula_units_Z              2
_symmetry_space_group_name_H-M     'P -1'
_symmetry_Int_Tables_number        2
loop_
_symmetry_equiv_pos_site_id
_symmetry_equiv_pos_as_xyz
  1	'-x, -y, -z'
  2	'x, y, z'
loop_
_atom_type_symbol
_atom_type_oxidation_number
Ca2+	2
Mn2+	2
O2-	-2
Si4+	4
loop_
_atom_site_label
_atom_site_type_symbol
_atom_site_symmetry_multiplicity
_atom_site_Wyckoff_symbol
_atom_site_fract_x
_atom_site_fract_y
_atom_site_fract_z
_atom_site_occupancy
_atom_site_attached_hydrogens
Mn1 Mn2+ 2 i 0.8819 0.8517 0.9697 1. 0 
Mn2 Mn2+ 2 i 0.6827 0.5548 0.8748 1. 0 
Mn3 Mn2+ 2 i 0.4916 0.27 0.8109 1. 0 
Mn4 Mn2+ 2 i 0.3018 0.9767 0.7967 1. 0 
Ca1 Ca2+ 2 i 0.0457 0.6938 0.6389 1. 0 
Si1 Si4+ 2 i 0.2191 0.1246 0.4956 1. 0 
Si2 Si4+ 2 i 0.2687 0.4701 0.6375 1. 0 
Si3 Si4+ 2 i 0.461 0.7393 0.7092 1. 0 
Si4 Si4+ 2 i 0.7446 0.0891 0.7538 1. 0 
Si5 Si4+ 2 i 0.9263 0.3466 0.845 1. 0 
O1 O2- 2 i 0.861 0.222 0.702 1. 0 
O2 O2- 2 i 0.843 0.041 0.943 1. 0 
O3 O2- 2 i 0.601 0.731 0.895 1. 0 
O4 O2- 2 i 0.319 0.614 0.63 1. 0 
O5 O2- 2 i 0.398 0.438 0.807 1. 0 
O6 O2- 2 i 0.197 0.132 0.737 1. 0 
O7 O2- 2 i 0.055 0.436 0.701 1. 0 
O8 O2- 2 i 0.256 0.996 0.446 1. 0 
O9 O2- 2 i 0.954 0.677 0.963 1. 0 
O10 O2- 2 i 0.322 0.815 0.744 1. 0 
O11 O2- 2 i 0.746 0.587 0.585 1. 0 
O12 O2- 2 i 0.748 0.389 0.886 1. 0 
O13 O2- 2 i 0.934 0.852 0.659 1. 0 
O14 O2- 2 i 0.548 0.098 0.805 1. 0 
O15 O2- 2 i 0.582 0.779 0.515 1. 0 

#End of data_200162-ICSD


