data_262089-ICSD
#?2014 by Fachinformationszentrum Karlsruhe, and the U.S. Secretary of 
#Commerce on behalf of the United States.  All rights reserved.
_database_code_ICSD                262089
_audit_creation_date               2012/02/01
_chemical_name_systematic          'Lanthanum Dititanate Nonaaluminate'
_chemical_formula_structural       'La Ti2 Al9 O19'
_chemical_formula_sum              'Al9 La1 O19 Ti2'
_publ_section_title
;
Structure of La Ti2 Al9 O19 and reanalysis of the crystal structure 
of La3 Ti5 Al15 O37
;
loop_
_citation_id
_citation_journal_abbrev
_citation_year
_citation_journal_volume
_citation_journal_issue
_citation_page_first
_citation_page_last
_citation_journal_id_ASTM
primary 'Acta Crystallographica, Section B: Structural Science'
 2011 67 6 455 460 ASBSDK
_publ_author_name
;
Kasunic, M.;Meden, A.;Skapin, S.D.;Suvorov, D.;Golobic, A.
;
_cell_length_a                     22.59355(18)
_cell_length_b                     10.99919(9)
_cell_length_c                     9.72968(7)
_cell_angle_alpha                  90
_cell_angle_beta                   98.5634(5)
_cell_angle_gamma                  90
_cell_volume                       2390.97
_cell_formula_units_Z              8
_symmetry_space_group_name_H-M     'C 1 2/c 1'
_symmetry_Int_Tables_number        15
_refine_ls_R_factor_all            .049
loop_
_symmetry_equiv_pos_site_id
_symmetry_equiv_pos_as_xyz
  1	'x, -y, z+.5'
  2	'-x, -y, -z'
  3	'-x, y, -z+.5'
  4	'x, y, z'
  5	'x+.5, -y+.5, z+.5'
  6	'-x+.5, -y+.5, -z'
  7	'-x+.5, y+.5, -z+.5'
  8	'x+.5, y+.5, z'
loop_
_atom_type_symbol
_atom_type_oxidation_number
Al3+	3
La3+	3
O2-	-2
Ti4+	4
loop_
_atom_site_label
_atom_site_type_symbol
_atom_site_symmetry_multiplicity
_atom_site_Wyckoff_symbol
_atom_site_fract_x
_atom_site_fract_y
_atom_site_fract_z
_atom_site_occupancy
_atom_site_attached_hydrogens
La1 La3+ 8 f 0.44578(8) 0.8695(3) 0.06524(17) 1 0 
Ti1 Ti4+ 8 f 0.6045(2) 0.8814(9) 0.1285(5) 1 0 
Ti2 Ti4+ 8 f 0.8105(2) 0.8820(8) 0.8692(5) 1 0 
Al1 Al3+ 8 f 0.7717(3) 0.1275(12) 0.6791(8) 1 0 
Al2 Al3+ 8 f 0.6944(5) 0.2612(9) 0.9082(10) 1 0 
Al3 Al3+ 8 f 0.5299(3) 0.6259(10) 0.0912(9) 1 0 
Al4 Al3+ 4 e 0.5 0.6247(16) 0.75 1 0 
Al5 Al3+ 8 f 0.6056(5) 0.7615(9) 0.8653(10) 1 0 
Al6 Al3+ 8 f 0.3985(4) 0.6282(16) 0.8862(9) 1 0 
Al7 Al3+ 8 f 0.6047(5) 0.4902(10) 0.8682(11) 1 0 
Al8 Al3+ 8 f 0.6936(3) 0.1291(14) 0.1587(8) 1 0 
Al9 Al3+ 8 f 0.6963(4) 0.9933(9) 0.9094(10) 1 0 
Al10 Al3+ 4 e 0.5 0.8835(14) 0.75 1 0 
O1 O2- 8 f 0.6549(7) 0.871(4) 0.8076(15) 1 0 
O2 O2- 8 f 0.5457(10) 0.766(2) 0.167(2) 1 0 
O3 O2- 8 f 0.5473(11) 0.999(2) 0.169(2) 1 0 
O4 O2- 8 f 0.7401(6) 0.132(2) 0.0046(15) 1 0 
O5 O2- 8 f 0.7548(7) 0.758(3) 0.7398(15) 1 0 
O6 O2- 8 f 0.5530(7) 0.627(3) 0.9240(16) 1 0 
O7 O2- 8 f 0.3544(6) 0.873(3) 0.1926(15) 1 0 
O8 O2- 8 f 0.7557(6) 0.891(2) 0.0024(16) 1 0 
O9 O2- 8 f 0.3497(10) 1.002(2) 0.941(2) 1 0 
O10 O2- 8 f 0.8513(10) 0.005(2) 0.949(2) 1 0 
O11 O2- 8 f 0.5531(11) 0.493(2) 0.193(2) 1 0 
O12 O2- 8 f 0.4497(7) 0.628(3) 0.0591(16) 1 0 
O13 O2- 8 f 0.2481(7) 0.507(3) 0.2595(17) 1 0 
O14 O2- 8 f 0.3564(10) 0.751(2) 0.953(2) 1 0 
O15 O2- 8 f 0.5463(10) 0.246(2) 0.205(2) 1 0 
O16 O2- 8 f 0.4455(7) 0.130(3) 0.0800(15) 1 0 
O17 O2- 8 f 0.3509(6) 0.370(3) 0.2042(14) 1 0 
O18 O2- 8 f 0.3474(7) 0.628(4) 0.1988(16) 1 0 
O19 O2- 8 f 0.6409(10) 0.751(2) 0.038(2) 1 0 

#End of data_262089-ICSD


