data_637176-ICSD
#?2014 by Fachinformationszentrum Karlsruhe, and the U.S. Secretary of 
#Commerce on behalf of the United States.  All rights reserved.
_database_code_ICSD                637176
_audit_creation_date               2013/08/01
_chemical_name_systematic          'Sodium Germanium Selenide (2/2/5)'
_chemical_formula_structural       'Na2 Ge2 Se5'
_chemical_formula_sum              'Ge2 Na2 Se5'
_publ_section_title
;
Phase equilibria in the Na2 S - Ge S2 and Na2 Se - Ge Se2 systems
;
loop_
_citation_id
_citation_journal_abbrev
_citation_year
_citation_journal_volume
_citation_journal_issue
_citation_page_first
_citation_page_last
_citation_journal_id_ASTM
primary 'Russian Journal of Inorganic Chemistry' 1989 34 9 1319 1322 RJICAQ
_publ_author_name
;
Mikailo, I.L.;Lazarev, V.B.;Peresh, E.Yu.;Kish, Z.Z.
;
_cell_length_a                     12.820(5)
_cell_length_b                     12.852(5)
_cell_length_c                     10.463(9)
_cell_angle_alpha                  90.0
_cell_angle_beta                   90.0
_cell_angle_gamma                  90.0
_cell_volume                       1723.91
_cell_formula_units_Z              8
_symmetry_space_group_name_H-M     'C m c m'
_symmetry_Int_Tables_number        63
loop_
_symmetry_equiv_pos_site_id
_symmetry_equiv_pos_as_xyz
  1	'-x, y, -z+.5'
  2	'-x, -y, z+.5'
  3	'-x, y, z'
  4	'-x, -y, -z'
  5	'x, -y, z+.5'
  6	'x, y, -z+.5'
  7	'x, -y, -z'
  8	'x, y, z'
  9	'-x+.5, y+.5, -z+.5'
 10	'-x+.5, -y+.5, z+.5'
 11	'-x+.5, y+.5, z'
 12	'-x+.5, -y+.5, -z'
 13	'x+.5, -y+.5, z+.5'
 14	'x+.5, y+.5, -z+.5'
 15	'x+.5, -y+.5, -z'
 16	'x+.5, y+.5, z'
loop_
_atom_type_symbol
_atom_type_oxidation_number
Ge4+	4
Na1+	1
Se2-	-2
loop_
_atom_site_label
_atom_site_type_symbol
_atom_site_symmetry_multiplicity
_atom_site_Wyckoff_symbol
_atom_site_fract_x
_atom_site_fract_y
_atom_site_fract_z
_atom_site_occupancy
_atom_site_attached_hydrogens
Ge1 Ge4+ 8 f 0 0.256 0.082 1. 0 
Ge2 Ge4+ 8 g 0.138 0.454 0.25 1. 0 
Na1 Na1+ 8 e 0.149 0 0 1. 0 
Na2 Na1+ 8 g 0.336 0.247 0.25 1. 0 
Se1 Se2- 4 c 0 0.556 0.25 1. 0 
Se2 Se2- 16 h 0.144 0.353 0.077 1. 0 
Se3 Se2- 4 c 0 0.155 0.25 1. 0 
Se4 Se2- 8 f 0 0.157 -.083 1. 0 
Se5 Se2- 8 g 0.274 0.549 0.25 1. 0 

#End of data_637176-ICSD


