data_94908-ICSD
#?2014 by Fachinformationszentrum Karlsruhe, and the U.S. Secretary of 
#Commerce on behalf of the United States.  All rights reserved.
_database_code_ICSD                94908
_audit_creation_date               2003/10/01
_chemical_name_systematic
;
Potassium Plutonium(III) Heptathiodiphosphate(V)
;
_chemical_formula_structural       'K Pu (P2 S7)'
_chemical_formula_sum              'K1 P2 Pu1 S7'
_publ_section_title
;
Synthesis and structural characterization of the first quaternary 
plutonium thiophosphates : K3 Pu (P S4)2 and A Pu P2 S7 (A = K, 
Rb,Cs)
;
loop_
_citation_id
_citation_journal_abbrev
_citation_year
_citation_journal_volume
_citation_journal_issue
_citation_page_first
_citation_page_last
_citation_journal_id_ASTM
primary 'Journal of the American Chemical Society' 2002 124 7 1327 1333 JACSAT
_publ_author_name
;
Hess, R.F.;Gordon, P.L.;Tait, C.D.;Abney, K.D.;Dorhout, P.K.
;
_cell_length_a                     9.641(1)
_cell_length_b                     12.255(1)
_cell_length_c                     9.0152(8)
_cell_angle_alpha                  90
_cell_angle_beta                   90.218(2)
_cell_angle_gamma                  90
_cell_volume                       1065.14
_cell_formula_units_Z              4
_symmetry_space_group_name_H-M     'P 1 21/c 1'
_symmetry_Int_Tables_number        14
_refine_ls_R_factor_all            .0324
loop_
_symmetry_equiv_pos_site_id
_symmetry_equiv_pos_as_xyz
  1	'x, -y+.5, z+.5'
  2	'-x, -y, -z'
  3	'-x, y+.5, -z+.5'
  4	'x, y, z'
loop_
_atom_type_symbol
_atom_type_oxidation_number
K1+	1
P5+	5
Pu3+	3
S2-	-2
loop_
_atom_site_label
_atom_site_type_symbol
_atom_site_symmetry_multiplicity
_atom_site_Wyckoff_symbol
_atom_site_fract_x
_atom_site_fract_y
_atom_site_fract_z
_atom_site_occupancy
_atom_site_attached_hydrogens
_atom_site_U_iso_or_equiv
Pu1 Pu3+ 4 e 0.8563(1) 0.6429(1) 0.1082(1) 1. 0 0.011(1) 
K1 K1+ 4 e 0.3929(3) 0.6936(2) 0.8686(3) 1. 0 0.025(1) 
S1 S2- 4 e 0.0163(3) 0.4404(2) 0.1804(3) 1. 0 0.014(1) 
S2 S2- 4 e 0.6621(3) 0.5244(2) -0.0704(3) 1. 0 0.016(1) 
S3 S2- 4 e 0.1492(3) 0.6949(2) 0.1452(3) 1. 0 0.014(1) 
S4 S2- 4 e 0.6270(3) 0.5550(2) 0.2898(3) 1. 0 0.017(1) 
S5 S2- 4 e 0.9095(3) 0.8331(2) -0.0725(3) 1. 0 0.014(1) 
S6 S2- 4 e 0.6254(3) 0.7938(2) 0.1119(3) 1. 0 0.016(1) 
S7 S2- 4 e 0.7502(3) 0.0555(2) 0.0785(3) 1. 0 0.014(1) 
P1 P5+ 4 e 0.1867(3) 0.5371(2) 0.1981(3) 1. 0 0.012(1) 
P2 P5+ 4 e 0.7226(3) 0.8999(2) -0.0226(3) 1. 0 0.011(1) 

loop_
_atom_site_aniso_label
_atom_site_aniso_type_symbol
_atom_site_aniso_U_11
_atom_site_aniso_U_22
_atom_site_aniso_U_33
_atom_site_aniso_U_12
_atom_site_aniso_U_13
_atom_site_aniso_U_23
Pu1 Pu3+ 0.016(1) 0.009(1) 0.008(1) 0.001(1) 0.001(1) 0.001(1)
K1 K1+ 0.033(2) 0.021(1) 0.021(2) 0.003(1) 0.001(1) 0.003(1)
S1 S2- 0.019(2) 0.010(1) 0.012(2) -0.001(1) 0.000(1) 0.000(1)
S2 S2- 0.017(2) 0.018(2) 0.012(2) 0.002(1) 0.000(1) -0.003(1)
S3 S2- 0.019(2) 0.010(1) 0.014(2) 0.000(1) -0.001(1) 0.001(1)
S4 S2- 0.026(2) 0.016(2) 0.007(2) -0.006(1) -0.003(1) 0.000(1)
S5 S2- 0.016(2) 0.014(2) 0.012(2) 0.003(1) 0.002(1) 0.003(1)
S6 S2- 0.019(2) 0.011(1) 0.017(2) 0.001(1) 0.006(1) 0.002(1)
S7 S2- 0.023(2) 0.010(1) 0.010(2) 0.000(1) -0.003(1) -0.001(1)
P1 P5+ 0.020(2) 0.008(1) 0.009(2) 0.002(1) 0.000(1) 0.002(1)
P2 P5+ 0.020(2) 0.007(1) 0.006(2) 0.002(1) 0.000(1) 0.001(1)
#End of data_94908-ICSD


