data_246124-ICSD
#?2014 by Fachinformationszentrum Karlsruhe, and the U.S. Secretary of 
#Commerce on behalf of the United States.  All rights reserved.
_database_code_ICSD                246124
_audit_creation_date               2009/02/01
_chemical_name_systematic
;
Dicalcium Pentaoxomangano(III)aluminate
;
_chemical_formula_structural       'Ca2 (Mn Al) O5'
_chemical_formula_sum              'Al1 Ca2 Mn1 O5'
_publ_section_title
;
Structure and magnetic properties of Ca2 Fe1-x Mnx Al O5+d
;
loop_
_citation_id
_citation_journal_abbrev
_citation_year
_citation_journal_volume
_citation_journal_issue
_citation_page_first
_citation_page_last
_citation_journal_id_ASTM
primary 'Journal of Solid State Chemistry' 2008 181 9 2530 2541 JSSCBI
_publ_author_name
;
Carvalho, M.D.;Ferreira, L.P.;Waerenborgh, J.C.;Tsipis, E.V.;Lopes, 
A.B.;Godinho, M.
;
_cell_length_a                     5.4687(1)
_cell_length_b                     15.0026(3)
_cell_length_c                     5.2425(1)
_cell_angle_alpha                  90.
_cell_angle_beta                   90.
_cell_angle_gamma                  90.
_cell_volume                       430.12
_cell_formula_units_Z              4
_symmetry_space_group_name_H-M     'I b m 2'
_symmetry_Int_Tables_number        46
_refine_ls_R_factor_all            .0432
loop_
_symmetry_equiv_pos_site_id
_symmetry_equiv_pos_as_xyz
  1	'-x, y+.5, z'
  2	'x, -y+.5, z'
  3	'-x, -y, z'
  4	'x, y, z'
  5	'-x+.5, y, z+.5'
  6	'x+.5, -y, z+.5'
  7	'-x+.5, -y+.5, z+.5'
  8	'x+.5, y+.5, z+.5'
loop_
_atom_type_symbol
_atom_type_oxidation_number
Al3+	3
Ca2+	2
Mn3+	3
O2-	-2
loop_
_atom_site_label
_atom_site_type_symbol
_atom_site_symmetry_multiplicity
_atom_site_Wyckoff_symbol
_atom_site_fract_x
_atom_site_fract_y
_atom_site_fract_z
_atom_site_occupancy
_atom_site_attached_hydrogens
_atom_site_B_iso_or_equiv
Ca1 Ca2+ 8 c 0.0266(2) 0.11153(7) 0.4976(7) 1. 0 0.84(3) 
Mn1 Mn3+ 4 a 0 0 0 1. 0 0.54(3) 
Al1 Al3+ 4 b 0.9317(5) 0.25 0.9577(6) 1. 0 0.19(6) 
O1 O2- 8 c 0.254(1) 0.9870(2) 0.247(2) 1. 0 0.85(6) 
O2 O2- 8 c 0.0662(6) 0.1474(2) 0.036(1) 1. 0 0.85(6) 
O3 O2- 4 b 0.857(1) 0.25 0.621(2) 1. 0 1.2(2) 

#End of data_246124-ICSD


