data_202269-ICSD
#?2014 by Fachinformationszentrum Karlsruhe, and the U.S. Secretary of 
#Commerce on behalf of the United States.  All rights reserved.
_database_code_ICSD                202269
_audit_creation_date               1988/12/19
_audit_update_record               1997/05/13
_chemical_name_systematic
;
Cobalt Dipotassium Cyclo-tetraphosphate Pentahydrate
;
_chemical_formula_structural       'Co K2 (P4 O12) (H2 O)5'
_chemical_formula_sum              'H10 Co1 K2 O17 P4'
_publ_section_title
;
Structure cristalline et investigation par spectrometrie de vibration 
IR des cyclotetraphosphates pentahydrates M(II) K2 P4 O12 (H2 O)5 
(M(II)= Ni, Co)
;
loop_
_citation_id
_citation_journal_abbrev
_citation_year
_citation_journal_volume
_citation_page_first
_citation_page_last
_citation_journal_id_ASTM
primary 'Journal of Solid State Chemistry' 1987 69 135 144 JSSCBI
_publ_author_name                  'Jouini, A.;Soua, M.;Dabbabi, M.'
_cell_length_a                     12.955(2)
_cell_length_b                     16.2940(20)
_cell_length_c                     7.432(2)
_cell_angle_alpha                  90.
_cell_angle_beta                   92.17(1)
_cell_angle_gamma                  90.
_cell_volume                       1567.69
_cell_formula_units_Z              4
_symmetry_space_group_name_H-M     'P 1 21/c 1'
_symmetry_Int_Tables_number        14
_refine_ls_R_factor_all            .033
loop_
_symmetry_equiv_pos_site_id
_symmetry_equiv_pos_as_xyz
  1	'x, -y+.5, z+.5'
  2	'-x, -y, -z'
  3	'-x, y+.5, -z+.5'
  4	'x, y, z'
loop_
_atom_type_symbol
_atom_type_oxidation_number
Co2+	2
H1+	1
K1+	1
O2-	-2
P5+	5
loop_
_atom_site_label
_atom_site_type_symbol
_atom_site_symmetry_multiplicity
_atom_site_Wyckoff_symbol
_atom_site_fract_x
_atom_site_fract_y
_atom_site_fract_z
_atom_site_occupancy
_atom_site_attached_hydrogens
_atom_site_B_iso_or_equiv
Co1 Co2+ 2 a 0 0 0 1. 0 0 
Co2 Co2+ 2 b 0.5 0 0 1. 0 0 
K1 K1+ 4 e 0.0693(1) 0.77369(8) 0.9763(2) 1. 0 0 
K2 K1+ 4 e 0.3939(1) 0.34310(8) 0.7722(2) 1. 0 0 
P1 P5+ 4 e 0.35962(9) 0.55092(7) 0.1414(2) 1. 0 0 
P2 P5+ 4 e 0.35518(9) 0.12286(7) 0.7380(2) 1. 0 0 
P3 P5+ 4 e 0.87280(8) 0.88095(7) 0.2698(2) 1. 0 0 
P4 P5+ 4 e 0.13347(9) 0.94323(7) 0.6521(2) 1. 0 0 
O1 O2- 4 e 0.3564(2) 0.4538(2) 0.0994(4) 1. 0 0 
O2 O2- 4 e 0.7495(2) 0.0656(2) 0.2672(4) 1. 0 0 
O3 O2- 4 e 0.6337(9) 0.4055(2) 0.0324(4) 1. 0 0 
O4 O2- 4 e 0.4394(2) 0.9322(2) 0.7866(4) 1. 0 0 
O5 O2- 4 e 0.7583(2) 0.6154(2) 0.6780(4) 1. 0 0 
O6 O2- 4 e 0.3649(3) 0.3024(2) 0.1283(5) 1. 0 0 
O7 O2- 4 e 0.5710(2) 0.6075(2) 0.6063(4) 1. 0 0 
O8 O2- 4 e 0.1258(2) 0.4606(2) 0.1034(4) 1. 0 0 
O9 O2- 4 e 0.1138(3) 0.3080(2) 0.1127(5) 1. 0 0 
O10 O2- 4 e 0.9452(2) 0.8923(2) 0.1201(4) 1. 0 0 
O11 O2- 4 e 0.9327(3) 0.0761(2) 0.1929(5) 1. 0 0 
O12 O2- 4 e 0.8812(3) 0.3974(2) 0.0189(4) 1. 0 0 
O13 O2- 4 e 0.1357(2) -.0038(2) 0.1663(4) 1. 0 0 
O14 O2- 4 e 0.3666(3) 0.9820(3) 0.1494(5) 1. 0 0 
O15 O2- 4 e 0.7825(4) 0.2154(3) 0.7523(6) 1. 0 0 
O16 O2- 4 e 0.1826(3) 0.1544(2) 0.2649(5) 1. 0 0 
O17 O2- 4 e 0.4172(4) 0.7589(3) 0.1108(8) 1. 0 0 
H1 H1+ 4 e 0.856(5) 0.546(4) 0.298(8) 1. 0 3.0(1) 
H2 H1+ 4 e 0.877(5) 0.465(4) 0.250(8) 1. 0 3.0(1) 
H3 H1+ 4 e 0.367(6) 0.958(5) 0.25(1) 1. 0 5.0(2) 
H4 H1+ 4 e 0.322(6) 0.974(5) 0.118(10) 1. 0 5.0(2) 
H5 H1+ 4 e 0.273(6) 0.711(5) 0.708(10) 1. 0 5.0(2) 
H6 H1+ 4 e 0.772(6) 0.179(5) 0.649(11) 1. 0 6.0(2) 
H7 H1+ 4 e 0.166(5) 0.302(4) 0.698(8) 1. 0 3.0(1) 
H8 H1+ 4 e 0.166(6) 0.173(5) 0.358(10) 1. 0 5.0(2) 
H9 H1+ 4 e 0.604(6) 0.266(5) 0.971(11) 1. 0 6.0(2) 
H10 H1+ 4 e 0.443(7) 0.697(6) 0.553(12) 1. 0 8.0(3) 

#End of data_202269-ICSD


