data_422056-ICSD
#?2014 by Fachinformationszentrum Karlsruhe, and the U.S. Secretary of 
#Commerce on behalf of the United States.  All rights reserved.
_database_code_ICSD                422056
_audit_creation_date               2011/08/01
_chemical_name_systematic          'Lithium Indium Tetraiodate(V)'
_chemical_formula_structural       'Li In (I O3)4'
_chemical_formula_sum              'I4 In1 Li1 O12'
_publ_section_title
;
A series of new alkali metal indium iodates with isolated or extended 
anions
;
loop_
_citation_id
_citation_journal_abbrev
_citation_year
_citation_journal_volume
_citation_page_first
_citation_page_last
_citation_journal_id_ASTM
primary 'Dalton Transactions' 2011 40 1055 1060 DTARAF
_publ_author_name
;
Yang, Bing Ping;Sun, Chuan Fu;Hu, Chun Li;Mao, Jiang Gao
;
_cell_length_a                     4.889(3)
_cell_length_b                     6.534(4)
_cell_length_c                     8.568(5)
_cell_angle_alpha                  85.586(15)
_cell_angle_beta                   89.911(14)
_cell_angle_gamma                  88.827(15)
_cell_volume                       272.83
_cell_formula_units_Z              1
_symmetry_space_group_name_H-M     'P -1'
_symmetry_Int_Tables_number        2
_refine_ls_R_factor_all            .0296
loop_
_symmetry_equiv_pos_site_id
_symmetry_equiv_pos_as_xyz
  1	'-x, -y, -z'
  2	'x, y, z'
loop_
_atom_type_symbol
_atom_type_oxidation_number
I5+	5
In3+	3
Li1+	1
O2-	-2
loop_
_atom_site_label
_atom_site_type_symbol
_atom_site_symmetry_multiplicity
_atom_site_Wyckoff_symbol
_atom_site_fract_x
_atom_site_fract_y
_atom_site_fract_z
_atom_site_occupancy
_atom_site_attached_hydrogens
_atom_site_U_iso_or_equiv
Li1 Li1+ 1 f 0.5000 0.0000 0.5000 1 0 0.019(3) 
In1 In3+ 1 h 0.5000 0.5000 0.5000 1 0 0.00953(17) 
I1 I5+ 2 i 0.51952(7) 0.80146(5) 0.15759(4) 1 0 0.01018(15) 
I2 I5+ 2 i 1.01140(7) 0.28105(5) 0.24197(4) 1 0 0.00933(15) 
O1 O2- 2 i 0.6374(8) 0.7639(5) 0.3637(4) 1 0 0.0107(7) 
O2 O2- 2 i 0.7452(10) 0.6212(7) 0.0730(5) 1 0 0.0244(10) 
O3 O2- 2 i 0.7041(9) 1.0358(6) 0.1077(5) 1 0 0.0185(9) 
O4 O2- 2 i 0.7575(8) 0.2739(6) 0.3968(5) 1 0 0.0159(8) 
O5 O2- 2 i 1.2218(8) 0.4862(6) 0.3097(5) 1 0 0.0161(9) 
O6 O2- 2 i 1.2163(9) 0.0645(6) 0.3141(5) 1 0 0.0165(8) 

loop_
_atom_site_aniso_label
_atom_site_aniso_type_symbol
_atom_site_aniso_U_11
_atom_site_aniso_U_22
_atom_site_aniso_U_33
_atom_site_aniso_U_12
_atom_site_aniso_U_13
_atom_site_aniso_U_23
Li1 Li1+ 0.035(8) 0.013(6) 0.010(6) 0.008(6) -0.010(6) -0.005(5)
In1 In3+ 0.0105(3) 0.0063(3) 0.0118(3) -0.0011(2) -0.0006(2) -0.00010(19)
I1 I5+ 0.0116(2) 0.0073(2) 0.0117(2) -0.00237(14) -0.00090(14) 0.00006(14)
I2 I5+ 0.0080(2) 0.0076(2) 0.0126(2) -0.00128(14) -0.00096(14) -0.00233(14)
O1 O2- 0.0121(19) 0.0078(16) 0.0120(18) -0.0021(14) -0.0030(15) 0.0015(14)
O2 O2- 0.030(3) 0.024(2) 0.021(2) 0.003(2) 0.0034(19) -0.0097(18)
O3 O2- 0.024(2) 0.0150(19) 0.016(2) -0.0115(17) -0.0020(17) 0.0050(16)
O4 O2- 0.017(2) 0.0115(18) 0.020(2) 0.0008(16) 0.0065(17) -0.0046(15)
O5 O2- 0.014(2) 0.0141(18) 0.021(2) -0.0053(16) -0.0082(17) 0.0005(16)
O6 O2- 0.014(2) 0.0117(18) 0.024(2) 0.0059(16) -0.0020(17) -0.0038(16)
#End of data_422056-ICSD


