data_4334-ICSD
#?2014 by Fachinformationszentrum Karlsruhe, and the U.S. Secretary of 
#Commerce on behalf of the United States.  All rights reserved.
_database_code_ICSD                4334
_audit_creation_date               1980/01/01
_audit_update_record               1999/11/30
_chemical_name_systematic          'Sodium Alumoberyllodisilicate *'
_chemical_formula_structural       'Na3 Al Be Si2 O8'
_chemical_formula_sum              'Al1 Be1 Na3 O8 Si2'
_publ_section_title
;
Crystal structure of synthetic sodium aluminoberyllo silicate Na3 Al 
Be Si2 O8
;
loop_
_citation_id
_citation_journal_abbrev
_citation_year
_citation_journal_volume
_citation_page_first
_citation_page_last
_citation_journal_id_ASTM
primary Kristallografiya 1974 19 1078 1080 KRISAJ
2 'Soviet Physics, Crystallography (= Kristallografiya)'
 1974 19 667 668 SPHCA6
_publ_author_name
;
Kharitonov, Yu.A.;Golyshev, V.M.;Rastsvetaeva, R.K.;Belov, N.V.
;
_cell_length_a                     7.18
_cell_length_b                     6.82
_cell_length_c                     7.48
_cell_angle_alpha                  90.
_cell_angle_beta                   90.
_cell_angle_gamma                  90.
_cell_volume                       366.28
_cell_formula_units_Z              2
_symmetry_space_group_name_H-M     'P 21 21 2'
_symmetry_Int_Tables_number        18
_refine_ls_R_factor_all            .112
loop_
_symmetry_equiv_pos_site_id
_symmetry_equiv_pos_as_xyz
  1	'-x+.5, y+.5, -z'
  2	'x+.5, -y+.5, -z'
  3	'-x, -y, z'
  4	'x, y, z'
loop_
_atom_type_symbol
_atom_type_oxidation_number
Al3+	3
Be2+	2
Na1+	1
O2-	-2
Si4+	4
loop_
_atom_site_label
_atom_site_type_symbol
_atom_site_symmetry_multiplicity
_atom_site_Wyckoff_symbol
_atom_site_fract_x
_atom_site_fract_y
_atom_site_fract_z
_atom_site_occupancy
_atom_site_attached_hydrogens
_atom_site_B_iso_or_equiv
Si1 Si4+ 4 c 0.199 0.264 0.259 1. 0 0.213 
Al1 Al3+ 2 a 0 0 -.033 1. 0 0.241 
Na1 Na1+ 2 b 0.5 0 0.033 1. 0 -.183 
Na2 Na1+ 4 c 0.213 0.747 0.323 1. 0 -.793 
Be1 Be2+ 2 b 0.5 0 0.436 1. 0 -.266 
O1 O2- 4 c 0.089 0.327 0.441 1. 0 -.299 
O2 O2- 4 c 0.041 0.206 0.106 1. 0 -.24 
O3 O2- 4 c 0.338 0.083 0.292 1. 0 -.264 
O4 O2- 4 c 0.304 0.457 0.168 1. 0 -.252 

#End of data_4334-ICSD


