data_88581-ICSD
#?2014 by Fachinformationszentrum Karlsruhe, and the U.S. Secretary of 
#Commerce on behalf of the United States.  All rights reserved.
_database_code_ICSD                88581
_audit_creation_date               2001/07/16
_audit_update_record               2006/04/01
_chemical_name_systematic          'Dipotassium Chromate'
_chemical_formula_structural       'K2 (Cr O4)'
_chemical_formula_sum              'Cr1 K2 O4'
_publ_section_title
;
High pressure X-ray diffraction study of potassium chromate: pressure-
induced orientational disorder and its implications for amorphization 
in A2 B X4 compounds
;
loop_
_citation_id
_citation_journal_abbrev
_citation_year
_citation_journal_volume
_citation_page_first
_citation_page_last
_citation_journal_id_ASTM
primary 'Journal of Physics and Chemistry of Solids' 1999 60 529 538 JPCSAW
2 'Golden Book of Phase Transitions, Wroclaw' 2002 1 1 123 GBOPT5
_publ_author_name
;
Edwards, C.M.;Haines, J.;Butler, I.S.;Leger, J.M.
;
_cell_length_a                     7.380(1)
_cell_length_b                     9.830(1)
_cell_length_c                     5.509(1)
_cell_angle_alpha                  90.
_cell_angle_beta                   90.
_cell_angle_gamma                  90.
_cell_volume                       399.65
_cell_formula_units_Z              4
_symmetry_space_group_name_H-M     'P n a m'
_symmetry_Int_Tables_number        62
_refine_ls_R_factor_all            .064
loop_
_symmetry_equiv_pos_site_id
_symmetry_equiv_pos_as_xyz
  1	'x+.5, -y+.5, z'
  2	'x, y, -z+.5'
  3	'-x+.5, y+.5, z+.5'
  4	'-x, -y, -z'
  5	'-x+.5, y+.5, -z'
  6	'-x, -y, z+.5'
  7	'x+.5, -y+.5, -z+.5'
  8	'x, y, z'
loop_
_atom_type_symbol
_atom_type_oxidation_number
Cr6+	6
K1+	1
O2-	-2
loop_
_atom_site_label
_atom_site_type_symbol
_atom_site_symmetry_multiplicity
_atom_site_Wyckoff_symbol
_atom_site_fract_x
_atom_site_fract_y
_atom_site_fract_z
_atom_site_occupancy
_atom_site_attached_hydrogens
Cr1 Cr6+ 4 c 0.2391(3) 0.4241(3) 0.25 1. 0 
K1 K1+ 4 c 0.6658(8) 0.3901(8) 0.25 1. 0 
K2 K1+ 4 c -.021(1) 0.6877(6) 0.25 1. 0 
O1 O2- 4 c 0.0173(4) 0.432(2) 0.25 1. 0 
O2 O2- 4 c 0.308(3) 0.5827(7) 0.25 1. 0 
O3 O2- 8 d 0.311(2) 0.359(1) 0.505(1) 1. 0 

#End of data_88581-ICSD


