data_77541-ICSD
#?2014 by Fachinformationszentrum Karlsruhe, and the U.S. Secretary of 
#Commerce on behalf of the United States.  All rights reserved.
_database_code_ICSD                77541
_audit_creation_date               2003/04/01
_chemical_name_systematic          'Dialuminium Silicate Oxide'
_chemical_formula_structural       'Al2 (Si O4) O'
_chemical_formula_sum              'Al2 O5 Si1'
_chemical_name_mineral             Kyanite
_publ_section_title
;
High-pressure behavior of kyanite: Compressibility and structural 
deformations
;
loop_
_citation_id
_citation_journal_abbrev
_citation_year
_citation_journal_volume
_citation_page_first
_citation_page_last
_citation_journal_id_ASTM
primary 'American Mineralogist' 1997 82 452 459 AMMIAY
_publ_author_name
;
Comodi, P.;Zanazzi, P.F.;Poli, S.;Schmidt, M.W.
;
_cell_length_a                     7.065(5)
_cell_length_b                     7.805(3)
_cell_length_c                     5.537(2)
_cell_angle_alpha                  90.12(3)
_cell_angle_beta                   101.08(5)
_cell_angle_gamma                  105.86(5)
_cell_volume                       287.74
_cell_formula_units_Z              4
_symmetry_space_group_name_H-M     'P -1'
_symmetry_Int_Tables_number        2
_refine_ls_R_factor_all            .068
loop_
_symmetry_equiv_pos_site_id
_symmetry_equiv_pos_as_xyz
  1	'-x, -y, -z'
  2	'x, y, z'
loop_
_atom_type_symbol
_atom_type_oxidation_number
Al3+	3
O2-	-2
Si4+	4
loop_
_atom_site_label
_atom_site_type_symbol
_atom_site_symmetry_multiplicity
_atom_site_Wyckoff_symbol
_atom_site_fract_x
_atom_site_fract_y
_atom_site_fract_z
_atom_site_occupancy
_atom_site_attached_hydrogens
_atom_site_U_iso_or_equiv
Si1 Si4+ 2 i 0.299(2) 0.0660(6) 0.7080(7) 1. 0 0.0034(8) 
Si2 Si4+ 2 i 0.293(2) 0.3319(5) 0.1892(7) 1. 0 0.0026(8) 
Al1 Al3+ 2 i 0.328(2) 0.7051(7) 0.4600(9) 1. 0 0.0055(9) 
Al2 Al3+ 2 i 0.297(2) 0.6989(6) 0.9495(8) 1. 0 0.0040(8) 
Al3 Al3+ 2 i 0.102(2) 0.3867(7) 0.6409(8) 1. 0 0.0041(9) 
Al4 Al3+ 2 i 0.113(2) 0.9184(7) 0.1653(8) 1. 0 0.0053(9) 
O1 O2- 2 i 0.109(5) 0.148(2) 0.130(2) 1. 0 0.011(3) 
O2 O2- 2 i 0.128(5) 0.685(1) 0.181(2) 1. 0 0.003(2) 
O3 O2- 2 i 0.276(4) 0.454(1) 0.951(2) 1. 0 0.005(2) 
O4 O2- 2 i 0.283(4) 0.933(2) 0.935(2) 1. 0 0.008(2) 
O5 O2- 2 i 0.113(5) 0.152(1) 0.666(2) 1. 0 0.002(2) 
O6 O2- 2 i 0.115(5) 0.629(2) 0.638(2) 1. 0 0.012(3) 
O7 O2- 2 i 0.284(4) 0.444(2) 0.429(2) 1. 0 0.012(3) 
O8 O2- 2 i 0.292(4) 0.946(1) 0.465(1) 1. 0 0.004(2) 
O9 O2- 2 i 0.504(5) 0.275(2) 0.245(2) 1. 0 0.010(2) 
O10 O2- 2 i 0.499(6) 0.232(2) 0.753(2) 1. 0 0.001(2) 

#End of data_77541-ICSD


