data_300172-ICSD
#?2014 by Fachinformationszentrum Karlsruhe, and the U.S. Secretary of 
#Commerce on behalf of the United States.  All rights reserved.
_database_code_ICSD                300172
_audit_creation_date               1991/07/10
_audit_update_record               2010/02/01
_chemical_name_systematic
;
Hexapotassium Di-mue-selenido-bis(diselenidoaluminate)
;
_chemical_formula_structural       'K6 (Se2 (Al Se2)2)'
_chemical_formula_sum              'Al2 K6 Se6'
_publ_section_title
;
Crystal structure of hexapotassium di-mue-selenido-
bis(diselenidoaluminate)
;
loop_
_citation_id
_citation_journal_abbrev
_citation_year
_citation_journal_volume
_citation_page_first
_citation_page_last
_citation_journal_id_ASTM
primary 'Zeitschrift fuer Kristallographie (1979-2010)' 1991 197 173 174 ZEKRDZ
_publ_author_name                  'Eisenmann, B.;Hofmann, A.'
_cell_length_a                     8.047(3)
_cell_length_b                     12.964(6)
_cell_length_c                     10.498(4)
_cell_angle_alpha                  90.
_cell_angle_beta                   127.71(6)
_cell_angle_gamma                  90.
_cell_volume                       866.4
_cell_formula_units_Z              2
_symmetry_space_group_name_H-M     'P 1 21/c 1'
_symmetry_Int_Tables_number        14
_refine_ls_R_factor_all            .071
loop_
_symmetry_equiv_pos_site_id
_symmetry_equiv_pos_as_xyz
  1	'x, -y+.5, z+.5'
  2	'-x, -y, -z'
  3	'-x, y+.5, -z+.5'
  4	'x, y, z'
loop_
_atom_type_symbol
_atom_type_oxidation_number
Al3+	3
K1+	1
Se2-	-2
loop_
_atom_site_label
_atom_site_type_symbol
_atom_site_symmetry_multiplicity
_atom_site_Wyckoff_symbol
_atom_site_fract_x
_atom_site_fract_y
_atom_site_fract_z
_atom_site_occupancy
_atom_site_attached_hydrogens
K1 K1+ 4 e 0.3427(7) 0.0867(4) 0.6071(5) 1. 0 
K2 K1+ 4 e 0.1329(6) 0.8120(4) 0.4210(6) 1. 0 
K3 K1+ 4 e 0.3842(6) 0.3720(3) 0.5254(4) 1. 0 
Al1 Al3+ 4 e 0.0634(6) 0.0587(3) 0.1602(5) 1. 0 
Se1 Se2- 4 e 0.1571(3) 0.6093(1) 0.6229(2) 1. 0 
Se2 Se2- 4 e 0.3501(2) 0.3261(1) 0.8111(2) 1. 0 
Se3 Se2- 4 e 0.8741(2) 0.4526(1) 0.7628(2) 1. 0 

#End of data_300172-ICSD


