data_98196-ICSD
#?2014 by Fachinformationszentrum Karlsruhe, and the U.S. Secretary of 
#Commerce on behalf of the United States.  All rights reserved.
_database_code_ICSD                98196
_audit_creation_date               2004/10/01
_chemical_name_systematic
;
Potassium Sodium Dimagnesium Phyllo-difluorodecaoxotetra- Silicate
;
_chemical_formula_structural       'K (Na Mg2) (Si4 O10 F2)'
_chemical_formula_sum              'F2 K1 Mg2 Na1 O10 Si4'
_chemical_name_mineral             'Shirokshinite 1M'
_publ_section_title
;
Shirokshinite, K (Na Mg2) Si4 O10 F, a new mica with octahedral Na 
from Khibiny massif, Kola peninsula: descriptive data and structural 
disorder
;
loop_
_citation_id
_citation_journal_abbrev
_citation_year
_citation_journal_volume
_citation_page_first
_citation_page_last
_citation_journal_id_ASTM
primary 'European Journal of Mineralogy' 2003 15 447 454 EJMIER
_publ_author_name
;
Pekov, I.V.;Chukanov, N.V.;Ferraris, G.;Ivaldi, G.;Pushcharovskii, 
D.Yu.;Zadov, A.E.
;
_cell_length_a                     5.269(2)
_cell_length_b                     9.092(1)
_cell_length_c                     10.197(3)
_cell_angle_alpha                  90
_cell_angle_beta                   100.12(7)
_cell_angle_gamma                  90
_cell_volume                       480.89
_cell_formula_units_Z              2
_symmetry_space_group_name_H-M     'C 1 2/m 1'
_symmetry_Int_Tables_number        12
_refine_ls_R_factor_all            .129
loop_
_symmetry_equiv_pos_site_id
_symmetry_equiv_pos_as_xyz
  1	'-x, y, -z'
  2	'-x, -y, -z'
  3	'x, -y, z'
  4	'x, y, z'
  5	'-x+.5, y+.5, -z'
  6	'-x+.5, -y+.5, -z'
  7	'x+.5, -y+.5, z'
  8	'x+.5, y+.5, z'
loop_
_atom_type_symbol
_atom_type_oxidation_number
F1-	-1
K1+	1
Mg2+	2
Na1+	1
O2-	-2
Si4+	4
loop_
_atom_site_label
_atom_site_type_symbol
_atom_site_symmetry_multiplicity
_atom_site_Wyckoff_symbol
_atom_site_fract_x
_atom_site_fract_y
_atom_site_fract_z
_atom_site_occupancy
_atom_site_attached_hydrogens
_atom_site_U_iso_or_equiv
Si1 Si4+ 8 j 0.0762(5) 0.1667(2) 0.2261(2) 1. 0 0.015(1) 
Na1 Na1+ 2 c 0 0 0.5 1. 0 0.013(2) 
Mg1 Mg2+ 4 h 0 0.3338(4) 0.5 1. 0 0.019(1) 
K1 K1+ 2 b 0 0.5 0 1. 0 0.035(2) 
O1 O2- 4 i 0.048(2) 0 0.164(1) 1. 0 0.024(2) 
O2 O2- 8 j 0.308(1) 0.2471(9) 0.1636(4) 1. 0 0.024(2) 
O3 O2- 8 j 0.132(1) 0.1678(1) 0.3849(6) 1. 0 0.019(1) 
F1 F1- 4 i 0.124(2) 0.5 0.3897(8) 1. 0 0.039(2) 

#End of data_98196-ICSD


