data_82623-ICSD
#?2014 by Fachinformationszentrum Karlsruhe, and the U.S. Secretary of 
#Commerce on behalf of the United States.  All rights reserved.
_database_code_ICSD                82623
_audit_creation_date               1997/11/10
_chemical_name_systematic          'Calcium Copper Diarsenate(V)'
_chemical_formula_structural       'Ca Cu (As2 O7)'
_chemical_formula_sum              'As2 Ca1 Cu1 O7'
_publ_section_title
;
Synthesis and structural study of copper(II) diarsenates
;
loop_
_citation_id
_citation_journal_abbrev
_citation_year
_citation_journal_volume
_citation_page_first
_citation_page_last
_citation_journal_id_ASTM
primary 'Journal of Solid State Chemistry' 1996 121 350 355 JSSCBI
_publ_author_name                  'Chen, T.-C.;Wang, S.-L.'
_cell_length_a                     7.248(2)
_cell_length_b                     8.952(2)
_cell_length_c                     9.258(2)
_cell_angle_alpha                  90.
_cell_angle_beta                   109.66(2)
_cell_angle_gamma                  90.
_cell_volume                       565.68
_cell_formula_units_Z              4
_symmetry_space_group_name_H-M     'P 1 21/c 1'
_symmetry_Int_Tables_number        14
_refine_ls_R_factor_all            .033
loop_
_symmetry_equiv_pos_site_id
_symmetry_equiv_pos_as_xyz
  1	'x, -y+.5, z+.5'
  2	'-x, -y, -z'
  3	'-x, y+.5, -z+.5'
  4	'x, y, z'
loop_
_atom_type_symbol
_atom_type_oxidation_number
As5+	5
Ca2+	2
Cu2+	2
O2-	-2
loop_
_atom_site_label
_atom_site_type_symbol
_atom_site_symmetry_multiplicity
_atom_site_Wyckoff_symbol
_atom_site_fract_x
_atom_site_fract_y
_atom_site_fract_z
_atom_site_occupancy
_atom_site_attached_hydrogens
_atom_site_U_iso_or_equiv
Ca1 Ca2+ 4 e 0.74960(19) 0.43428(14) 0.05958(15) 1. 0 0.0088(4) 
Cu1 Cu2+ 4 e 0.21398(11) 0.55188(8) 0.31840(9) 1. 0 0.0070(3) 
As1 As5+ 4 e 0.02113(9) 0.20013(7) 0.95481(7) 1. 0 0.0050(2) 
As2 As5+ 4 e 0.41919(9) 0.23810(7) 0.23444(7) 1. 0 0.0052(2) 
O1 O2- 4 e 0.8504(7) 0.1790(5) 0.0367(5) 1. 0 0.0111(15) 
O2 O2- 4 e 0.0028(7) 0.0883(5) 0.80632(5) 1. 0 0.0111(15) 
O3 O2- 4 e 0.0110(7) 0.3809(5) 0.9136(5) 1. 0 0.0112(15) 
O4 O2- 4 e 0.2485(7) 0.1436(5) 0.0821(5) 1. 0 0.0121(14) 
O5 O2- 4 e 0.4261(7) 0.1413(5) 0.3892(5) 1. 0 0.0092(14) 
O6 O2- 4 e 0.3493(7) 0.4159(5) 0.2194(6) 1. 0 0.0129(15) 
O7 O2- 4 e 0.6316(7) 0.2277(5) 0.1985(5) 1. 0 0.0094(14) 

#End of data_82623-ICSD


