data_168107-ICSD
#?2014 by Fachinformationszentrum Karlsruhe, and the U.S. Secretary of 
#Commerce on behalf of the United States.  All rights reserved.
_database_code_ICSD                168107
_audit_creation_date               2011/02/01
_chemical_name_systematic          'Calcium Magnesium Disilicate'
_chemical_formula_structural       'Ca Mg (Si2 O6)'
_chemical_formula_sum              'Ca1 Mg1 O6 Si2'
_chemical_name_mineral             Diopside
_publ_section_title
;
The effect of Al and water on the compressibility of diopside
;
loop_
_citation_id
_citation_journal_abbrev
_citation_year
_citation_journal_volume
_citation_page_first
_citation_page_last
_citation_journal_id_ASTM
primary 'American Mineralogist' 2010 95 608 616 AMMIAY
_publ_author_name
;
Gavrilenko, P.;Boffa Ballaran, T.;Keppler, H.
;
_cell_length_a                     9.7526(10)
_cell_length_b                     8.9259(8)
_cell_length_c                     5.2543(13)
_cell_angle_alpha                  90.
_cell_angle_beta                   105.838(12)
_cell_angle_gamma                  90.
_cell_volume                       440.03
_cell_formula_units_Z              4
_symmetry_space_group_name_H-M     'C 1 2/c 1'
_symmetry_Int_Tables_number        15
_refine_ls_R_factor_all            .0266
loop_
_symmetry_equiv_pos_site_id
_symmetry_equiv_pos_as_xyz
  1	'x, -y, z+.5'
  2	'-x, -y, -z'
  3	'-x, y, -z+.5'
  4	'x, y, z'
  5	'x+.5, -y+.5, z+.5'
  6	'-x+.5, -y+.5, -z'
  7	'-x+.5, y+.5, -z+.5'
  8	'x+.5, y+.5, z'
loop_
_atom_type_symbol
_atom_type_oxidation_number
Ca2+	2
Mg2+	2
O2-	-2
Si4+	4
loop_
_atom_site_label
_atom_site_type_symbol
_atom_site_symmetry_multiplicity
_atom_site_Wyckoff_symbol
_atom_site_fract_x
_atom_site_fract_y
_atom_site_fract_z
_atom_site_occupancy
_atom_site_attached_hydrogens
_atom_site_U_iso_or_equiv
Ca1 Ca2+ 4 e 0 0.30156(3) 0.250 1. 0 0.00881(6) 
Mg1 Mg2+ 4 e 0 0.90828(5) 0.250 1. 0 0.00646(9) 
Si1 Si4+ 8 f 0.28618(3) 0.09337(3) 0.22908(5) 1. 0 0.00531(6) 
O1 O2- 8 f 0.11573(7) 0.08732(7) 0.14225(12) 1. 0 0.00677(11) 
O2 O2- 8 f 0.36139(7) 0.24991(7) 0.31895(13) 1. 0 0.00853(11) 
O3 O2- 8 f 0.35076(7) 0.01773(8) -0.00517(12) 1. 0 0.00773(11) 

#End of data_168107-ICSD


