data_411966-ICSD
#?2014 by Fachinformationszentrum Karlsruhe, and the U.S. Secretary of 
#Commerce on behalf of the United States.  All rights reserved.
_database_code_ICSD                411966
_audit_creation_date               2005/04/01
_chemical_name_systematic
;
Dipotassium Trimagnesium Bis(diphosphate(V)) Decahydrate
;
_chemical_formula_structural       'K2 Mg3 (P2 O7)2 (H2 O)10'
_chemical_formula_sum              'H20 K2 Mg3 O24 P4'
_publ_section_title
;
A new urolith in four cats and a dog: composition and crystal 
structure
;
loop_
_citation_id
_citation_journal_abbrev
_citation_year
_citation_journal_volume
_citation_journal_issue
_citation_page_first
_citation_page_last
_citation_journal_id_ASTM
primary 'Journal of Biological Chemistry' 2002 7 4-5 437 444 JBCHA3
_publ_author_name                  'Frank, A.;Norrestam, R.;Sjodin, A.'
_cell_length_a                     7.553(2)
_cell_length_b                     6.681(2)
_cell_length_c                     20.271(7)
_cell_angle_alpha                  90
_cell_angle_beta                   93.02(4)
_cell_angle_gamma                  90
_cell_volume                       1021.49
_cell_formula_units_Z              2
_symmetry_space_group_name_H-M     'P 1 21/c 1'
_symmetry_Int_Tables_number        14
_refine_ls_R_factor_all            .068
loop_
_symmetry_equiv_pos_site_id
_symmetry_equiv_pos_as_xyz
  1	'x, -y+.5, z+.5'
  2	'-x, -y, -z'
  3	'-x, y+.5, -z+.5'
  4	'x, y, z'
loop_
_atom_type_symbol
_atom_type_oxidation_number
H1+	1
K1+	1
Mg2+	2
O2-	-2
P5+	5
loop_
_atom_site_label
_atom_site_type_symbol
_atom_site_symmetry_multiplicity
_atom_site_Wyckoff_symbol
_atom_site_fract_x
_atom_site_fract_y
_atom_site_fract_z
_atom_site_occupancy
_atom_site_attached_hydrogens
_atom_site_U_iso_or_equiv
P1 P5+ 4 e 0.4606(6) 0.1768(9) 0.1531(3) 1.000 0 0.027(2) 
P2 P5+ 4 e 0.0647(5) 0.2225(8) 0.1452(3) 1.000 0 0.022(2) 
Mg1 Mg2+ 2 a 0.00000 0.00000 0.00000 1.000 0 0.021(3) 
Mg2 Mg2+ 4 e -0.2348(7) 0.4488(11) 0.2364(3) 1.000 0 0.021(2) 
O1 O2- 4 e -0.0187(14) 0.394(2) 0.1813(6) 1.000 0 0.027(3) 
O2 O2- 4 e 0.4826(16) 0.061(2) 0.0916(7) 1.000 0 0.035(4) 
O3 O2- 4 e 0.0634(14) 0.030(2) 0.1833(6) 1.000 0 0.026(3) 
O4 O2- 4 e 0.2715(14) 0.291(2) 0.1435(6) 1.000 0 0.020(3) 
O5 O2- 4 e 0.0002(15) 0.204(2) 0.0757(7) 1.000 0 0.032(4) 
O6 O2- 4 e 0.4542(13) 0.047(2) 0.2137(6) 1.000 0 0.021(3) 
O7 O2- 4 e 0.5890(13) 0.348(2) 0.1612(6) 1.000 0 0.022(3) 
O8 O2- 4 e -0.2453(16) 0.170(2) 0.2837(7) 1.000 0 0.031(3) 
O9 O2- 4 e -0.0670(16) 0.225(2) -0.0710(7) 1.000 0 0.034(4) 
O10 O2- 4 e 0.2634(15) 0.072(2) -0.0140(6) 1.000 0 0.030(3) 
O11 O2- 4 e 0.2423(15) 0.245(2) 0.3090(6) 1.000 0 0.028(3) 
O12 O2- 4 e 0.4128(17) 0.652(3) 0.0713(7) 1.000 0 0.042(4) 
K1 K1+ 4 e 0.7668(6) 0.5145(10) 0.0551(3) 1.000 0 0.060(3) 
H1 H1+ 4 e -0.150(11) 0.072(15) 0.275(8) 1.000 0 0.033(17) 
H2 H1+ 4 e -0.357(9) 0.103(18) 0.267(7) 1.000 0 0.033(17) 
H3 H1+ 4 e -0.060(17) 0.22(2) -0.1202(9) 1.000 0 0.033(17) 
H4 H1+ 4 e -0.154(16) 0.333(17) -0.063(6) 1.000 0 0.033(17) 
H5 H1+ 4 e 0.293(18) 0.002(18) 0.029(3) 1.000 0 0.033(17) 
H6 H1+ 4 e 0.314(17) -0.016(17) -0.048(4) 1.000 0 0.033(17) 
H7 H1+ 4 e 0.167(12) 0.367(10) 0.314(8) 1.000 0 0.033(17) 
H8 H1+ 4 e 0.363(7) 0.300(15) 0.301(8) 1.000 0 0.033(17) 
H9 H1+ 4 e 0.462(19) 0.791(8) 0.075(6) 1.000 0 0.033(17) 
H10 H1+ 4 e 0.416(19) 0.603(18) 0.118(2) 1.000 0 0.033(17) 

loop_
_atom_site_aniso_label
_atom_site_aniso_type_symbol
_atom_site_aniso_U_11
_atom_site_aniso_U_22
_atom_site_aniso_U_33
_atom_site_aniso_U_12
_atom_site_aniso_U_13
_atom_site_aniso_U_23
P1 P5+ 0.003(2) 0.036(5) 0.043(4) -0.002(3) 0.000(2) -0.004(4)
P2 P5+ 0.010(2) 0.014(4) 0.042(4) 0.000(2) 0.004(2) -0.002(3)
Mg1 Mg2+ 0.010(4) 0.010(7) 0.044(6) 0.002(4) -0.001(4) -0.003(5)
Mg2 Mg2+ 0.005(2) 0.020(5) 0.037(4) -0.002(3) -0.003(3) -0.004(4)
K1 K1+ 0.032(3) 0.044(5) 0.105(5) 0.002(3) 0.004(3) 0.001(4)
#End of data_411966-ICSD


