data_279621-ICSD
#?2014 by Fachinformationszentrum Karlsruhe, and the U.S. Secretary of 
#Commerce on behalf of the United States.  All rights reserved.
_database_code_ICSD                279621
_audit_creation_date               2002/10/01
_chemical_name_systematic
;
Tetrapotassium Europium(II) Bis(tetrathiophosphate(V))
;
_chemical_formula_structural       'K4 Eu (P S4)2'
_chemical_formula_sum              'Eu1 K4 P2 S8'
_publ_section_title
;
Thiophosphate phase diagrams developed in conjunction with the 
synthesis of the new compounds K La P2 S6, K2 La (P2 S6)1/2 (P S4), 
K3 La (P S4)2, K4 La0.67 (P S4)2, K9-x La1+x/3 (P S4)4 (x = 0.5), K4 
Eu (P S4)2, and K Eu P S4
;
loop_
_citation_id
_citation_journal_abbrev
_citation_year
_citation_journal_volume
_citation_page_first
_citation_page_last
_citation_journal_id_ASTM
primary 'Inorganic Chemistry' 2001 40 2884 2891 INOCAJ
_publ_author_name                  'Evenson, C.R.IV.;Dorhout, P.K.'
_cell_length_a                     18.293(51)
_cell_length_b                     8.813(15)
_cell_length_c                     9.741(10)
_cell_angle_alpha                  90.
_cell_angle_beta                   90.
_cell_angle_gamma                  90.
_cell_volume                       1570.41
_cell_formula_units_Z              4
_symmetry_space_group_name_H-M     'I b a m'
_symmetry_Int_Tables_number        72
_refine_ls_R_factor_all            .0825
loop_
_symmetry_equiv_pos_site_id
_symmetry_equiv_pos_as_xyz
  1	'-x, y, z+.5'
  2	'x, -y, z+.5'
  3	'x, y, -z'
  4	'-x, -y, -z'
  5	'x, -y, -z+.5'
  6	'-x, y, -z+.5'
  7	'-x, -y, z'
  8	'x, y, z'
  9	'-x+.5, y+.5, z'
 10	'x+.5, -y+.5, z'
 11	'x+.5, y+.5, -z+.5'
 12	'-x+.5, -y+.5, -z+.5'
 13	'x+.5, -y+.5, -z'
 14	'-x+.5, y+.5, -z'
 15	'-x+.5, -y+.5, z+.5'
 16	'x+.5, y+.5, z+.5'
loop_
_atom_type_symbol
_atom_type_oxidation_number
Eu2+	2
K1+	1
P5+	5
S2-	-2
loop_
_atom_site_label
_atom_site_type_symbol
_atom_site_symmetry_multiplicity
_atom_site_Wyckoff_symbol
_atom_site_fract_x
_atom_site_fract_y
_atom_site_fract_z
_atom_site_occupancy
_atom_site_attached_hydrogens
Eu1 Eu2+ 4 b 0.5 0 0.25 1. 0 
P1 P5+ 8 j 0.3714(2) 0.2053(3) 0 1. 0 
S1 S2- 8 j 0.3941(2) 0.0238(3) 0.5 1. 0 
S2 S2- 16 k 0.41940(13) 0.2982(3) 0.1695(2) 1. 0 
S3 S2- 8 j 0.2615(2) 0.2463(4) 0 1. 0 
K1 K1+ 8 f 0.2575(2) 0 0.25 1. 0 
K2 K1+ 8 j 0.5833(2) -.3763(3) 0.5 1. 0 

loop_
_atom_site_aniso_label
_atom_site_aniso_type_symbol
_atom_site_aniso_U_11
_atom_site_aniso_U_22
_atom_site_aniso_U_33
_atom_site_aniso_U_12
_atom_site_aniso_U_13
_atom_site_aniso_U_23
Eu1 Eu2+ 0.0128(4) 0.0115(4) 0.0112(4) 0 0 0
P1 P5+ 0.0060(14) 0.0047(13) 0.0082(14) -.0015(11) 0 0
S1 S2- 0.0075(14) 0.007(2) 0.024(2) -.0010(11) 0 0
S2 S2- 0.0216(12) 0.0103(11) 0.0079(10) -.0011(9) -.0022(9) -.0022(8)
S3 S2- 0.009(2) 0.0109(15) 0.020(2) 0.0023(12) 0 0
K1 K1+ 0.029(2) 0.0170(14) 0.0129(13) 0 0 0.0045(13)
K2 K1+ 0.023(2) 0.0091(14) 0.0129(13) -.0042(11) 0 0
#End of data_279621-ICSD


