data_84710-ICSD
#?2014 by Fachinformationszentrum Karlsruhe, and the U.S. Secretary of 
#Commerce on behalf of the United States.  All rights reserved.
_database_code_ICSD                84710
_audit_creation_date               1999/01/19
_audit_update_record               2012/02/01
_chemical_name_systematic
;
Trimagnesium Bis(phosphate(V)) - Iii
;
_chemical_formula_structural       'Mg3 (P O4)2'
_chemical_formula_sum              'Mg3 O8 P2'
_publ_section_title
;
Structure cristalline de la phase haute temperature et haute pression 
de Mg3 (P O4)2
;
loop_
_citation_id
_citation_journal_abbrev
_citation_year
_citation_journal_volume
_citation_page_first
_citation_page_last
_citation_journal_id_ASTM
primary 'Journal of Solid State Chemistry' 1997 129 341 345 JSSCBI
_publ_author_name
;
Jaulmes, S.;Elfakir, A.;Quarton, M.;Brunet, F.;Chopin, C.
;
_cell_length_a                     8.512(2)
_cell_length_b                     8.982(2)
_cell_length_c                     9.320(3)
_cell_angle_alpha                  116.34(2)
_cell_angle_beta                   91.50(2)
_cell_angle_gamma                  114.49(2)
_cell_volume                       561.51
_cell_formula_units_Z              4
_symmetry_space_group_name_H-M     'P -1'
_symmetry_Int_Tables_number        2
_refine_ls_R_factor_all            .046
loop_
_symmetry_equiv_pos_site_id
_symmetry_equiv_pos_as_xyz
  1	'-x, -y, -z'
  2	'x, y, z'
loop_
_atom_type_symbol
_atom_type_oxidation_number
Mg2+	2
O2-	-2
P5+	5
loop_
_atom_site_label
_atom_site_type_symbol
_atom_site_symmetry_multiplicity
_atom_site_Wyckoff_symbol
_atom_site_fract_x
_atom_site_fract_y
_atom_site_fract_z
_atom_site_occupancy
_atom_site_attached_hydrogens
Mg1 Mg2+ 2 i -.0158(1) 0.7083(1) 0.4451(1) 1. 0 
Mg2 Mg2+ 2 i 0.0993(1) 0.1835(1) 0.1614(1) 1. 0 
Mg3 Mg2+ 2 i 0.0783(1) 0.3024(2) 0.8746(1) 1. 0 
Mg4 Mg2+ 2 i 0.5932(1) 0.5219(1) 0.2622(1) 1. 0 
Mg5 Mg2+ 2 i 0.4018(1) 0.8072(1) 0.3255(1) 1. 0 
Mg6 Mg2+ 2 i 0.5153(1) 0.8919(1) 0.8213(1) 1. 0 
P1 P5+ 2 i 0.3285(1) 0.1785(1) 0.90595(9) 1. 0 
P2 P5+ 2 i 0.2359(1) 0.0719(1) 0.40085(9) 1. 0 
P3 P5+ 2 i 0.1775(1) 0.6891(1) 0.9462(1) 1. 0 
P4 P5+ 2 i 0.2696(1) 0.5661(1) 0.45047(9) 1. 0 
O1 O2- 2 i 0.5667(3) 0.7329(3) -.0828(2) 1. 0 
O2 O2- 2 i 0.5910(3) 0.9279(3) 0.2180(3) 1. 0 
O3 O2- 2 i 0.6745(3) 0.6687(3) 0.1268(3) 1. 0 
O4 O2- 2 i 0.8688(3) 0.9413(3) 0.0980(3) 1. 0 
O5 O2- 2 i 0.7714(3) 0.7629(3) 0.4570(3) 1. 0 
O6 O2- 2 i 0.6000(3) 0.9433(3) 0.5538(3) 1. 0 
O7 O2- 2 i 0.9339(3) 0.1110(3) 0.6444(3) 1. 0 
O8 O2- 2 i 0.7544(3) 0.9051(3) 0.7535(3) 1. 0 
O9 O2- 2 i 0.6720(3) 0.1391(3) 0.0474(3) 1. 0 
O10 O2- 2 i 0.2041(3) 0.6787(3) 0.1043(3) 1. 0 
O11 O2- 2 i 0.0008(3) 0.6978(3) -.0704(3) 1. 0 
O12 O2- 2 i 0.8431(3) 0.4977(3) 0.2003(3) 1. 0 
O13 O2- 2 i 0.7870(3) 0.2912(3) 0.5428(3) 1. 0 
O14 O2- 2 i 0.6222(3) 0.3714(3) 0.3821(3) 1. 0 
O15 O2- 2 i 0.8959(3) 0.6273(3) 0.6099(2) 1. 0 
O16 O2- 2 i 0.6230(3) 0.4493(3) 0.6819(3) 1. 0 

loop_
_atom_site_aniso_label
_atom_site_aniso_type_symbol
_atom_site_aniso_U_11
_atom_site_aniso_U_22
_atom_site_aniso_U_33
_atom_site_aniso_U_12
_atom_site_aniso_U_13
_atom_site_aniso_U_23
Mg1 Mg2+ 0.0078(5) 0.0104(5) 0.0102(5) 0.0049(4) 0.0029(4) 0.0069(4)
Mg2 Mg2+ 0.0126(5) 0.0085(5) 0.0086(5) 0.0059(4) 0.0010(4) 0.0047(4)
Mg3 Mg2+ 0.0105(5) 0.0179(6) 0.0111(5) 0.0041(4) 0.0025(4) 0.0100(5)
Mg4 Mg2+ 0.0073(5) 0.0072(5) 0.0087(5) 0.0037(4) 0.0010(4) 0.0034(4)
Mg5 Mg2+ 0.0092(5) 0.0081(5) 0.0089(5) 0.0047(4) 0.0024(4) 0.0054(4)
Mg6 Mg2+ 0.0084(5) 0.0067(5) 0.0095(5) 0.0027(4) 0.0027(4) 0.0035(4)
P1 P5+ 0.0072(3) 0.0067(3) 0.0060(3) 0.0031(3) 0.0011(3) 0.0036(3)
P2 P5+ 0.0056(3) 0.0057(3) 0.0069(3) 0.0030(3) 0.0013(3) 0.0035(3)
P3 P5+ 0.0065(3) 0.0057(3) 0.0068(3) 0.0027(3) 0.0016(3) 0.0033(3)
P4 P5+ 0.0066(3) 0.0063(3) 0.0065(3) 0.0034(3) 0.0012(3) 0.0039(3)
O1 O2- 0.012(1) 0.008(1) 0.007(1) 0.0046(8) 0.0004(8) 0.0034(8)
O2 O2- 0.011(1) 0.011(1) 0.010(1) 0.0048(9) 0.0043(8) 0.0057(9)
O3 O2- 0.013(1) 0.010(1) 0.012(1) 0.0041(9) 0.0005(8) 0.0082(9)
O4 O2- 0.006(1) 0.013(2) 0.014(2) 0.0033(9) 0.0019(8) 0.0078(9)
O5 O2- 0.0063(9) 0.008(1) 0.009(1) 0.0033(8) 0.0014(8) 0.0036(8)
O6 O2- 0.007(1) 0.007(1) 0.011(1) 0.0043(8) -.0002(8) 0.0043(8)
O7 O2- 0.007(1) 0.008(1) 0.009(1) 0.0022(8) 0.0011(8) 0.0042(8)
O8 O2- 0.008(1) 0.010(1) 0.009(1) 0.0044(9) 0.0033(8) 0.0059(9)
O9 O2- 0.007(1) 0.006(1) 0.011(1) 0.0026(8) 0.0027(8) 0.0047(8)
O10 O2- 0.014(2) 0.014(2) 0.011(1) 0.0044(9) 0.0022(9) 0.0088(9)
O11 O2- 0.008(1) 0.009(1) 0.011(1) 0.0048(8) 0.0018(8) 0.0060(8)
O12 O2- 0.008(1) 0.007(1) 0.010(1) 0.0027(8) 0.0014(8) 0.0031(8)
O13 O2- 0.009(1) 0.010(1) 0.012(1) 0.0063(9) 0.0025(8) 0.0065(9)
O14 O2- 0.010(1) 0.008(1) 0.008(1) 0.0031(9) -.0002(8) 0.0051(9)
O15 O2- 0.007(1) 0.006(1) 0.008(1) 0.0000(8) -.0005(8) 0.0039(8)
O16 O2- 0.010(1) 0.013(1) 0.011(1) 0.0070(9) 0.0045(8) 0.0072(9)
#End of data_84710-ICSD


