data_4318-ICSD
#?2014 by Fachinformationszentrum Karlsruhe, and the U.S. Secretary of 
#Commerce on behalf of the United States.  All rights reserved.
_database_code_ICSD                4318
_audit_creation_date               1980/01/01
_audit_update_record               1987/04/16
_chemical_name_systematic          'Magnesium Pentaoxoditellurate(IV)'
_chemical_formula_structural       'Mg Te2 O5'
_chemical_formula_sum              'Mg1 O5 Te2'
_publ_section_title
;
Die Kristallstruktur von  Mg Te2 O5
;
loop_
_citation_id
_citation_journal_abbrev
_citation_year
_citation_journal_volume
_citation_page_first
_citation_page_last
_citation_journal_id_ASTM
primary 'Zeitschrift fuer Anorganische und Allgemeine Chemie (1950) (DE)'
 1975 418 141 144 ZAACAB
_publ_author_name                  'Troemel, M.'
_cell_length_a                     7.225(3)
_cell_length_b                     10.64(1)
_cell_length_c                     5.940(2)
_cell_angle_alpha                  90.
_cell_angle_beta                   90.
_cell_angle_gamma                  90.
_cell_volume                       456.63
_cell_formula_units_Z              4
_symmetry_space_group_name_H-M     'P b c n'
_symmetry_Int_Tables_number        60
_refine_ls_R_factor_all            .123
loop_
_symmetry_equiv_pos_site_id
_symmetry_equiv_pos_as_xyz
  1	'x, -y, z+.5'
  2	'-x+.5, y+.5, z'
  3	'x+.5, y+.5, -z+.5'
  4	'-x, -y, -z'
  5	'-x, y, -z+.5'
  6	'x+.5, -y+.5, -z'
  7	'-x+.5, -y+.5, z+.5'
  8	'x, y, z'
loop_
_atom_type_symbol
_atom_type_oxidation_number
Mg2+	2
O2-	-2
Te4+	4
loop_
_atom_site_label
_atom_site_type_symbol
_atom_site_symmetry_multiplicity
_atom_site_Wyckoff_symbol
_atom_site_fract_x
_atom_site_fract_y
_atom_site_fract_z
_atom_site_occupancy
_atom_site_attached_hydrogens
Te1 Te4+ 8 d 0.1334(1) 0.34534(7) 0.4897(2) 1. 0 
Mg1 Mg2+ 4 c 0 0.0570(7) 0.25 1. 0 
O1 O2- 8 d 0.149(1) 0.069(1) 0.947(2) 1. 0 
O2 O2- 8 d 0.190(1) 0.204(1) 0.320(2) 1. 0 
O3 O2- 4 c 0 0.436(1) 0.25 1. 0 

#End of data_4318-ICSD


