data_79549-ICSD
#?2014 by Fachinformationszentrum Karlsruhe, and the U.S. Secretary of 
#Commerce on behalf of the United States.  All rights reserved.
_database_code_ICSD                79549
_audit_creation_date               1996/10/14
_chemical_name_systematic
;
Dipotassium Copper Phyllo-tetrasilicate
;
_chemical_formula_structural       'K2 Cu (Si4 O10)'
_chemical_formula_sum              'Cu1 K2 O10 Si4'
_publ_section_title
;
Crystallochemistry and thermochemistry of sodipotassic copper 
silicate Na2-2x K2x Cu Si4 O10
;
loop_
_citation_id
_citation_journal_abbrev
_citation_year
_citation_journal_volume
_citation_page_first
_citation_page_last
_citation_journal_id_ASTM
primary 'Bulletin de Mineralogie (101,1978-)' 1981 104 387 395 BULMD9
_publ_author_name                  'Kawamura, K.;Iiyama, J.T.'
_cell_length_a                     11.285(3)
_cell_length_b                     8.244(3)
_cell_length_c                     11.065(3)
_cell_angle_alpha                  90.
_cell_angle_beta                   110.94(2)
_cell_angle_gamma                  90.
_cell_volume                       961.43
_cell_formula_units_Z              4
_symmetry_space_group_name_H-M     'P 1 21/m 1'
_symmetry_Int_Tables_number        11
_refine_ls_R_factor_all            .059
loop_
_symmetry_equiv_pos_site_id
_symmetry_equiv_pos_as_xyz
  1	'x, -y+.5, z'
  2	'-x, -y, -z'
  3	'-x, y+.5, -z'
  4	'x, y, z'
loop_
_atom_type_symbol
_atom_type_oxidation_number
Cu2+	2
K1+	1
O2-	-2
Si4+	4
loop_
_atom_site_label
_atom_site_type_symbol
_atom_site_symmetry_multiplicity
_atom_site_Wyckoff_symbol
_atom_site_fract_x
_atom_site_fract_y
_atom_site_fract_z
_atom_site_occupancy
_atom_site_attached_hydrogens
_atom_site_B_iso_or_equiv
Cu1 Cu2+ 4 f 0.2120(1) 0.4969(1) 0.2886(6) 1. 0 0.60(1) 
K1 K1+ 2 e 0.0281(2) 0.25 0.0295(2) 1. 0 1.61(3) 
K2 K1+ 2 e 0.0550(1) 0.25 0.4432(1) 1. 0 1.00(2) 
K3 K1+ 2 e 0.4570(2) 0.25 0.5239(2) 1. 0 1.36(3) 
K4 K1+ 2 e 0.4139(1) 0.25 0.9171(2) 1. 0 1.21(2) 
Si1 Si4+ 4 f 0.2508(1) 0.5653(2) 0.0149(1) 1. 0 0.54(2) 
Si2 Si4+ 4 f 0.4643(1) 0.4410(2) 0.2288(1) 1. 0 0.58(2) 
Si3 Si4+ 4 f 0.2608(1) 0.5564(2) 0.5967(1) 1. 0 0.53(2) 
Si4 Si4+ 4 f 0.0896(1) 0.4406(2) 0.7492(1) 1. 0 0.58(2) 
O1 O2- 2 e 0.4630(5) 0.25 0.1924(5) 1. 0 1.33(8) 
O2 O2- 2 e 0.2709(5) 0.75 0.5799(5) 1. 0 1.52(9) 
O3 O2- 2 e 0.0659(5) 0.25 0.7117(5) 1. 0 1.65(9) 
O4 O2- 2 e 0.2346(4) 0.75 0.9591(5) 1. 0 0.97(7) 
O5 O2- 4 f 0.4026(3) 0.5317(4) 0.0824(3) 1. 0 0.78(5) 
O6 O2- 4 f 0.1727(3) 0.5300(4) 0.1059(3) 1. 0 1.07(5) 
O7 O2- 4 f 0.0319(3) 0.4681(4) 0.2483(3) 1. 0 1.08(5) 
O8 O2- 4 f 0.3939(3) 0.4850(4) 0.3249(3) 1. 0 1.14(5) 
O9 O2- 4 f 0.2477(3) 0.4609(4) 0.4689(3) 1. 0 1.00(5) 
O10 O2- 4 f 0.1407(3) 0.5213(4) 0.6420(3) 1. 0 1.10(5) 
O11 O2- 4 f 0.3884(3) 0.4981(4) 0.7162(3) 1. 0 0.94(5) 
O12 O2- 4 f 0.2066(3) 0.4452(4) 0.8891(3) 1. 0 0.89(5) 

#End of data_79549-ICSD


