data_8035-ICSD
#?2014 by Fachinformationszentrum Karlsruhe, and the U.S. Secretary of 
#Commerce on behalf of the United States.  All rights reserved.
_database_code_ICSD                8035
_audit_creation_date               1980/01/01
_audit_update_record               2006/04/01
_chemical_name_systematic          'Dipotassium Tetrachlorozincate'
_chemical_formula_structural       'K2 (Zn Cl4)'
_chemical_formula_sum              'Cl4 K2 Zn1'
_publ_section_title
;
The structure of potassium tetrachlorozincate
;
loop_
_citation_id
_citation_journal_abbrev
_citation_year
_citation_journal_volume
_citation_page_first
_citation_page_last
_citation_journal_id_ASTM
primary 'Acta Crystallographica B (24,1968-38,1982)' 1979 35 1200 1201 ACBCAR
2 'Golden Book of Phase Transitions, Wroclaw' 2002 1 1 123 GBOPT5
_publ_author_name                  'Mikhail, I.;Peters, K.'
_cell_length_a                     26.778(6)
_cell_length_b                     12.402(2)
_cell_length_c                     7.256(2)
_cell_angle_alpha                  90.
_cell_angle_beta                   90.
_cell_angle_gamma                  90.
_cell_volume                       2409.72
_cell_formula_units_Z              12
_symmetry_space_group_name_H-M     'P n a 21'
_symmetry_Int_Tables_number        33
_refine_ls_R_factor_all            .049
loop_
_symmetry_equiv_pos_site_id
_symmetry_equiv_pos_as_xyz
  1	'x+.5, -y+.5, z'
  2	'-x+.5, y+.5, z+.5'
  3	'-x, -y, z+.5'
  4	'x, y, z'
loop_
_atom_type_symbol
_atom_type_oxidation_number
Cl1-	-1
K1+	1
Zn2+	2
loop_
_atom_site_label
_atom_site_type_symbol
_atom_site_symmetry_multiplicity
_atom_site_Wyckoff_symbol
_atom_site_fract_x
_atom_site_fract_y
_atom_site_fract_z
_atom_site_occupancy
_atom_site_attached_hydrogens
_atom_site_B_iso_or_equiv
K1 K1+ 4 a 0.0433(1) 0.0814(4) 0.7866(9) 1. 0 4.1 
K2 K1+ 4 a 0.3797(1) 0.0855(5) 0.7638(9) 1. 0 4.9 
K3 K1+ 4 a 0.7106(1) 0.0833(4) 0.7223(7) 1. 0 4.3 
K4 K1+ 4 a 0.3319(1) 0.6875(3) 0.7219(6) 1. 0 2.6 
K5 K1+ 4 a 0.6660(1) 0.6863(3) 0.7388(6) 1. 0 2.5 
K6 K1+ 4 a 0.9986(1) 0.6883(3) 0.7932(6) 1. 0 2.7 
Zn1 Zn2+ 4 a 0.0721(1) 0.4194(1) 0.75 1. 0 1.9 
Zn2 Zn2+ 4 a 0.4050(1) 0.4181(1) 0.7796(2) 1. 0 1.7 
Zn3 Zn2+ 4 a 0.7403(1) 0.4177(1) 0.7365(2) 1. 0 1.9 
Cl1 Cl1- 4 a 0.9917(1) 0.4437(3) 0.6731(6) 1. 0 2.5 
Cl2 Cl1- 4 a 0.1123(1) 0.5756(3) 0.8151(7) 1. 0 2.7 
Cl3 Cl1- 4 a 0.0844(1) 0.3012(3) 0.9795(6) 1. 0 3.1 
Cl4 Cl1- 4 a 0.1111(1) 0.3560(4) 0.4910(6) 1. 0 2.8 
Cl5 Cl1- 4 a 0.3229(1) 0.4366(3) 0.8129(7) 1. 0 3.6 
Cl6 Cl1- 4 a 0.4439(2) 0.5782(4) 0.8132(9) 1. 0 4.5 
Cl7 Cl1- 4 a 0.4353(2) 0.3072(5) -.0004(7) 1. 0 4.4 
Cl8 Cl1- 4 a 0.4306(2) 0.3480(4) 0.5110(6) 1. 0 4.8 
Cl9 Cl1- 4 a 0.6591(1) 0.4358(3) 0.8044(7) 1. 0 3.4 
Cl10 Cl1- 4 a 0.7794(1) 0.5760(4) 0.6660(8) 1. 0 3. 
Cl11 Cl1- 4 a 0.7778(1) 0.3615(3) 0.0026(6) 1. 0 3.2 
Cl12 Cl1- 4 a 0.7560(1) 0.2942(3) 0.5177(6) 1. 0 3.5 

#End of data_8035-ICSD


