data_172986-ICSD
#?2014 by Fachinformationszentrum Karlsruhe, and the U.S. Secretary of 
#Commerce on behalf of the United States.  All rights reserved.
_database_code_ICSD                172986
_audit_creation_date               2008/02/01
_chemical_name_systematic          'Potassium Hydrogen Diarsenate(V)'
_chemical_formula_structural       'K H As2 O6'
_chemical_formula_sum              'H1 As2 K1 O6'
_publ_section_title
;
Octahedral As in M(+) arsenates - architecture and seven new members
;
loop_
_citation_id
_citation_journal_abbrev
_citation_year
_citation_journal_volume
_citation_journal_issue
_citation_page_first
_citation_page_last
_citation_journal_id_ASTM
primary 'Acta Crystallographica, Section B: Structural Science'
 2007 63 2 205 215 ASBSDK
_publ_author_name                  'Schwendtner, K.;Kolitsch, U.'
_cell_length_a                     6.0510(10)
_cell_length_b                     9.727(2)
_cell_length_c                     9.054(2)
_cell_angle_alpha                  90.00
_cell_angle_beta                   94.21(3)
_cell_angle_gamma                  90.00
_cell_volume                       531.46
_cell_formula_units_Z              4
_symmetry_space_group_name_H-M     'P 1 21/c 1'
_symmetry_Int_Tables_number        14
_refine_ls_R_factor_all            .0191
loop_
_symmetry_equiv_pos_site_id
_symmetry_equiv_pos_as_xyz
  1	'x, -y+.5, z+.5'
  2	'-x, -y, -z'
  3	'-x, y+.5, -z+.5'
  4	'x, y, z'
loop_
_atom_type_symbol
_atom_type_oxidation_number
As5+	5
H1+	1
K1+	1
O2-	-2
loop_
_atom_site_label
_atom_site_type_symbol
_atom_site_symmetry_multiplicity
_atom_site_Wyckoff_symbol
_atom_site_fract_x
_atom_site_fract_y
_atom_site_fract_z
_atom_site_occupancy
_atom_site_attached_hydrogens
_atom_site_U_iso_or_equiv
As1 As5+ 4 e 0.15969(3) 0.113747(16) 0.743672(17) 1 0 0.00850(5) 
As2 As5+ 4 e 0.11196(3) 0.402289(15) 0.584511(17) 1 0 0.00748(5) 
K1 K1+ 4 e 0.61363(6) 0.19249(4) 0.46790(5) 1 0 0.01957(9) 
O1 O2- 4 e 0.3895(2) 0.06388(14) 0.67443(15) 1 0 0.0164(2) 
O2 O2- 4 e 0.2036(2) 0.18489(13) 0.91503(13) 1 0 0.0153(2) 
O3 O2- 4 e 0.0282(2) 0.48279(13) 0.75982(13) 1 0 0.0156(2) 
O4 O2- 4 e 0.01033(19) 0.23438(12) 0.64102(13) 1 0 0.0117(2) 
O5 O2- 4 e 0.3782(2) 0.37388(13) 0.66877(15) 1 0 0.0130(2) 
O6 O2- 4 e 0.16351(19) 0.56982(12) 0.50484(14) 1 0 0.0117(2) 
H1 H1+ 4 e 0.434(5) 0.438(3) 0.706(3) 1 0 0.030(7) 

loop_
_atom_site_aniso_label
_atom_site_aniso_type_symbol
_atom_site_aniso_U_11
_atom_site_aniso_U_22
_atom_site_aniso_U_33
_atom_site_aniso_U_12
_atom_site_aniso_U_13
_atom_site_aniso_U_23
As1 As5+ 0.01098(8) 0.00661(8) 0.00785(8) -0.00003(5) 0.00028(5) 0.00136(5)
As2 As5+ 0.00878(8) 0.00552(8) 0.00796(8) 0.00064(5) -0.00055(5) 0.00034(5)
K1 K1+ 0.01754(18) 0.01522(18) 0.0258(2) -0.00280(13) 0.00040(14) 
-0.00283(14)
O1 O2- 0.0147(6) 0.0133(6) 0.0215(6) 0.0052(4) 0.0039(5) 0.0019(5)
O2 O2- 0.0254(6) 0.0131(6) 0.0075(5) -0.0101(5) 0.0013(4) -0.0003(4)
O3 O2- 0.0251(6) 0.0127(6) 0.0090(5) 0.0097(5) 0.0006(4) -0.0008(4)
O4 O2- 0.0122(5) 0.0065(5) 0.0158(5) -0.0008(4) -0.0028(4) 0.0040(4)
O5 O2- 0.0102(5) 0.0105(5) 0.0175(6) 0.0005(4) -0.0052(4) -0.0010(4)
O6 O2- 0.0103(5) 0.0077(5) 0.0164(5) -0.0009(4) -0.0026(4) 0.0045(4)
#End of data_172986-ICSD


