data_34201-ICSD
#?2014 by Fachinformationszentrum Karlsruhe, and the U.S. Secretary of 
#Commerce on behalf of the United States.  All rights reserved.
_database_code_ICSD                34201
_audit_creation_date               1986/10/02
_audit_update_record               1998/06/26
_chemical_name_systematic
;
Dipotassium Sodium Hexafluoroaluminate
;
_chemical_formula_structural       'K2 Na Al F6'
_chemical_formula_sum              'Al1 F6 K2 Na1'
_chemical_name_mineral             Elpasolite
_publ_section_title
;
Ueber die Kristallstrukturen der Kryolithgruppe
;
loop_
_citation_id
_citation_journal_abbrev
_citation_year
_citation_journal_volume
_citation_page_first
_citation_page_last
_citation_journal_id_ASTM
primary 'Fortschritte der Mineralogie' 1932 17 61 61 FMRLAL
_publ_author_name                  'Menzer, G.'
_cell_length_a                     8.09(2)
_cell_length_b                     8.09(2)
_cell_length_c                     8.09(2)
_cell_angle_alpha                  90.
_cell_angle_beta                   90.
_cell_angle_gamma                  90.
_cell_volume                       529.48
_cell_formula_units_Z              4
_symmetry_space_group_name_H-M     'P a -3'
_symmetry_Int_Tables_number        205
loop_
_symmetry_equiv_pos_site_id
_symmetry_equiv_pos_as_xyz
  1	'-z+.5, x+.5, y'
  2	'z+.5, x, -y+.5'
  3	'z, -x+.5, y+.5'
  4	'-z, -x, -y'
  5	'y, -z+.5, x+.5'
  6	'-y+.5, z+.5, x'
  7	'y+.5, z, -x+.5'
  8	'-y, -z, -x'
  9	'x+.5, y, -z+.5'
 10	'x, -y+.5, z+.5'
 11	'-x+.5, y+.5, z'
 12	'-x, -y, -z'
 13	'z+.5, -x+.5, -y'
 14	'-z+.5, -x, y+.5'
 15	'-z, x+.5, -y+.5'
 16	'z, x, y'
 17	'-y, z+.5, -x+.5'
 18	'y+.5, -z+.5, -x'
 19	'-y+.5, -z, x+.5'
 20	'y, z, x'
 21	'-x+.5, -y, z+.5'
 22	'-x, y+.5, -z+.5'
 23	'x+.5, -y+.5, -z'
 24	'x, y, z'
loop_
_atom_type_symbol
_atom_type_oxidation_number
Al3+	3
F1-	-1
K1+	1
Na1+	1
loop_
_atom_site_label
_atom_site_type_symbol
_atom_site_symmetry_multiplicity
_atom_site_Wyckoff_symbol
_atom_site_fract_x
_atom_site_fract_y
_atom_site_fract_z
_atom_site_occupancy
_atom_site_attached_hydrogens
Na1 Na1+ 4 b 0.5 0.5 0.5 1. 0 
K1 K1+ 8 c 0.250(15) 0.250(15) 0.250(15) 1. 0 
Al1 Al3+ 4 a 0 0 0 1. 0 
F1 F1- 24 d 0.22(1) 0.03(1) 0.01(1) 1. 0 

#End of data_34201-ICSD


