data_424344-ICSD
#?2014 by Fachinformationszentrum Karlsruhe, and the U.S. Secretary of 
#Commerce on behalf of the United States.  All rights reserved.
_database_code_ICSD                424344
_audit_creation_date               2013/02/01
_chemical_name_systematic
;
Disodium Diaqua Cobalt(II) Tetraoxo Divanadium(V) Hexafluoride
;
_chemical_formula_structural       'Na2 (Co (H2 O)2) (V2 O4 F6)'
_chemical_formula_sum              'H4 Co1 F6 Na2 O6 V2'
_publ_section_title
;
The dimeric [V2 O4 F6]4- vanadium oxide-fluoride anion in Na2 (M (H2 
O)2) (V2 O4 F6) (M = Co(2+), Ni(2+), and Cu(2+))
;
loop_
_citation_id
_citation_journal_abbrev
_citation_year
_citation_journal_volume
_citation_journal_issue
_citation_page_first
_citation_page_last
_citation_journal_id_ASTM
primary 'Zeitschrift fuer Anorganische und Allgemeine Chemie (1950) (DE)'
 2012 638 12-13 1991 1995 ZAACAB
_publ_author_name
;
Donakowski, M.D.;Vinokur, A.I.;Poeppelmeier, K.R.
;
_cell_length_a                     8.2450(5)
_cell_length_b                     5.2440(3)
_cell_length_c                     10.2286(5)
_cell_angle_alpha                  90.00
_cell_angle_beta                   90.844(3)
_cell_angle_gamma                  90.00
_cell_volume                       442.2
_cell_formula_units_Z              2
_symmetry_space_group_name_H-M     'P 1 21/c 1'
_symmetry_Int_Tables_number        14
_refine_ls_R_factor_all            .0228
loop_
_symmetry_equiv_pos_site_id
_symmetry_equiv_pos_as_xyz
  1	'x, -y+.5, z+.5'
  2	'-x, -y, -z'
  3	'-x, y+.5, -z+.5'
  4	'x, y, z'
loop_
_atom_type_symbol
_atom_type_oxidation_number
Co2+	2
F1-	-1
H1+	1
Na1+	1
O2-	-2
V5+	5
loop_
_atom_site_label
_atom_site_type_symbol
_atom_site_symmetry_multiplicity
_atom_site_Wyckoff_symbol
_atom_site_fract_x
_atom_site_fract_y
_atom_site_fract_z
_atom_site_occupancy
_atom_site_attached_hydrogens
_atom_site_U_iso_or_equiv
Co1 Co2+ 2 a 0.0000 0.0000 0.0000 1 0 0.00582(10) 
V1 V5+ 4 e 0.29189(4) 0.47279(6) -0.00664(3) 1 0 0.00633(10) 
Na1 Na1+ 4 e 0.46925(9) 0.94922(14) -0.16723(7) 1 0 0.00939(17) 
F1 F1- 4 e 0.47847(12) 0.7228(2) 0.03249(10) 1 0 0.0080(2) 
F2 F1- 4 e 0.33108(13) 0.3743(2) 0.16688(9) 1 0 0.0088(2) 
O1 O2- 4 e 0.19934(15) 0.2021(2) -0.04830(11) 1 0 0.0078(3) 
F3 F1- 4 e 0.33124(13) 0.5780(2) -0.18225(9) 1 0 0.0083(2) 
O2 O2- 4 e 0.14650(16) 0.6766(3) 0.01742(11) 1 0 0.0081(3) 
O3 O2- 4 e 0.0466(2) 0.0580(3) 0.19915(13) 1 0 0.0097(3) 
H1 H1+ 4 e 0.133(3) 0.038(5) 0.220(3) 1 0 0.021(8) 
H2 H1+ 4 e 0.011(3) 0.173(6) 0.229(2) 1 0 0.031(8) 

loop_
_atom_site_aniso_label
_atom_site_aniso_type_symbol
_atom_site_aniso_U_11
_atom_site_aniso_U_22
_atom_site_aniso_U_33
_atom_site_aniso_U_12
_atom_site_aniso_U_13
_atom_site_aniso_U_23
Co1 Co2+ 0.00526(18) 0.00619(19) 0.00599(17) -0.00047(13) -0.00025(12) 
0.00008(11)
V1 V5+ 0.00557(17) 0.00767(17) 0.00574(15) 0.00019(12) -0.00032(11) 
0.00082(10)
Na1 Na1+ 0.0120(4) 0.0073(4) 0.0089(3) -0.0008(3) -0.0013(3) 0.0003(3)
F1 F1- 0.0075(6) 0.0076(5) 0.0090(5) -0.0004(4) -0.0007(4) -0.0003(4)
F2 F1- 0.0093(6) 0.0104(6) 0.0065(5) -0.0005(4) -0.0013(4) 0.0015(4)
O1 O2- 0.0084(7) 0.0079(7) 0.0070(6) -0.0011(5) -0.0004(5) 0.0009(5)
F3 F1- 0.0090(6) 0.0089(5) 0.0070(5) -0.0008(5) -0.0008(4) 0.0012(4)
O2 O2- 0.0080(7) 0.0080(6) 0.0083(6) 0.0009(5) 0.0003(5) 0.0001(5)
O3 O2- 0.0076(7) 0.0125(8) 0.0090(6) 0.0025(6) -0.0012(5) -0.0023(5)
#End of data_424344-ICSD


