data_156764-ICSD
#?2014 by Fachinformationszentrum Karlsruhe, and the U.S. Secretary of 
#Commerce on behalf of the United States.  All rights reserved.
_database_code_ICSD                156764
_audit_creation_date               2008/02/01
_chemical_name_systematic
;
Tetrasilver Manganese Bis(trithioantimonate(III))
;
_chemical_formula_structural       'Ag4 Mn (Sb S3)2'
_chemical_formula_sum              'Ag4 Mn1 S6 Sb2'
_chemical_name_mineral             Samsonite
_publ_section_title
;
Gram-Charlier development of the atomic displacement factors into 
mineral structures: the case of samsonite, Ag4 Mn Sb2 S6
;
loop_
_citation_id
_citation_journal_abbrev
_citation_year
_citation_journal_volume
_citation_page_first
_citation_page_last
_citation_journal_id_ASTM
primary 'American Mineralogist' 2007 92 886 891 AMMIAY
_publ_author_name                  'Bindi, L.;Evain, M.'
_cell_length_a                     10.3702(8)
_cell_length_b                     8.0647(7)
_cell_length_c                     6.6400(7)
_cell_angle_alpha                  90.
_cell_angle_beta                   92.676(12)
_cell_angle_gamma                  90.
_cell_volume                       554.71
_cell_formula_units_Z              2
_symmetry_space_group_name_H-M     'P 1 21/n 1'
_symmetry_Int_Tables_number        14
_refine_ls_R_factor_all            .0352
loop_
_symmetry_equiv_pos_site_id
_symmetry_equiv_pos_as_xyz
  1	'-x+.5, y+.5, -z+.5'
  2	'-x, -y, -z'
  3	'x+.5, -y+.5, z+.5'
  4	'x, y, z'
loop_
_atom_type_symbol
_atom_type_oxidation_number
Ag1+	1
Mn2+	2
S2-	-2
Sb3+	3
loop_
_atom_site_label
_atom_site_type_symbol
_atom_site_symmetry_multiplicity
_atom_site_Wyckoff_symbol
_atom_site_fract_x
_atom_site_fract_y
_atom_site_fract_z
_atom_site_occupancy
_atom_site_attached_hydrogens
_atom_site_U_iso_or_equiv
Mn1 Mn2+ 2 b 0 0 0.5 1. 0 0.00674(19) 
Sb1 Sb3+ 4 e 0.18530(2) 0.16043(3) 0.03909(4) 1. 0 0.00684(6) 
Ag1 Ag1+ 4 e 0.31040(3) 0.23340(5) 0.57288(5) 1. 0 0.01516(9) 
Ag2 Ag1+ 4 e 0.49642(4) 0.96855(5) 0.76015(6) 1. 0 0.02510(11) 
S1 S2- 4 e 0.09442(9) 0.26837(12) 0.34485(14) 1. 0 0.0078(2) 
S2 S2- 4 e 0.51780(9) 0.67229(12) 0.66814(14) 1. 0 0.0078(2) 
S3 S2- 4 e 0.26500(9) 0.41764(12) -0.11521(14) 1. 0 0.0080(2) 

loop_
_atom_site_aniso_label
_atom_site_aniso_type_symbol
_atom_site_aniso_U_11
_atom_site_aniso_U_22
_atom_site_aniso_U_33
_atom_site_aniso_U_12
_atom_site_aniso_U_13
_atom_site_aniso_U_23
Mn1 Mn2+ 0.0066(3) 0.0071(3) 0.0064(3) 0.0002(3) -0.0003(2) 0.0004(3)
Sb1 Sb3+ 0.00748(12) 0.00654(11) 0.00644(10) 0.00079(8) -0.00021(7) 
0.00031(8)
Ag1 Ag1+ 0.01272(15) 0.02214(18) 0.01073(13) -0.00658(11) 0.00194(10) 
-0.00165(11)
Ag2 Ag1+ 0.0464(3) 0.01153(16) 0.01732(16) -0.01374(15) 0.00128(15) 
-0.00302(12)
S1 S2- 0.0096(4) 0.0067(4) 0.0069(3) -0.0001(3) 0.0001(3) 0.0002(3)
S2 S2- 0.0081(4) 0.0087(4) 0.0065(3) 0.0007(3) -0.0004(3) 0.0006(3)
S3 S2- 0.0080(4) 0.0070(4) 0.0090(4) -0.0015(3) -0.0001(3) 0.0005(3)
#End of data_156764-ICSD


