data_48007-ICSD
#?2014 by Fachinformationszentrum Karlsruhe, and the U.S. Secretary of 
#Commerce on behalf of the United States.  All rights reserved.
_database_code_ICSD                48007
_audit_creation_date               1984/12/31
_audit_update_record               2012/08/01
_chemical_name_systematic          'Lithium Ruthenium Oxide'
_chemical_formula_structural       'Li Ru O2'
_chemical_formula_sum              'Li1 O2 Ru1'
_publ_section_title
;
Neutron and X-Ray Powder Diffraction Study of Lix Ru O2 and Lix Ir 
O2: The Crystal Structure of Li0.9 Ru O2
;
loop_
_citation_id
_citation_journal_abbrev
_citation_year
_citation_journal_volume
_citation_page_first
_citation_page_last
_citation_journal_id_ASTM
primary 'Journal of Solid State Chemistry' 1984 51 104 117 JSSCBI
_publ_author_name                  'Davidson, I.J.;Greedan, J.E.'
_cell_length_a                     5.062(3)
_cell_length_b                     4.967(4)
_cell_length_c                     2.771(4)
_cell_angle_alpha                  90.
_cell_angle_beta                   90.
_cell_angle_gamma                  90.
_cell_volume                       69.67
_cell_formula_units_Z              2
_symmetry_space_group_name_H-M     'P n n m'
_symmetry_Int_Tables_number        58
_refine_ls_R_factor_all            .0962
loop_
_symmetry_equiv_pos_site_id
_symmetry_equiv_pos_as_xyz
  1	'x+.5, -y+.5, z+.5'
  2	'-x+.5, y+.5, z+.5'
  3	'x, y, -z'
  4	'-x, -y, -z'
  5	'-x+.5, y+.5, -z+.5'
  6	'x+.5, -y+.5, -z+.5'
  7	'-x, -y, z'
  8	'x, y, z'
loop_
_atom_type_symbol
_atom_type_oxidation_number
Li1+	1
O2-	-2
Ru3+	3
loop_
_atom_site_label
_atom_site_type_symbol
_atom_site_symmetry_multiplicity
_atom_site_Wyckoff_symbol
_atom_site_fract_x
_atom_site_fract_y
_atom_site_fract_z
_atom_site_occupancy
_atom_site_attached_hydrogens
_atom_site_B_iso_or_equiv
Ru1 Ru3+ 2 a 0 0 0 1. 0 0.31(35) 
O1 O2- 4 g 0.2555(40) 0.3365(4) 0 1. 0 0.10(26) 
Li1 Li1+ 2 d 0 0.5 0.5 1. 0 3.(2) 

#End of data_48007-ICSD


