data_36566-ICSD
#?2014 by Fachinformationszentrum Karlsruhe, and the U.S. Secretary of 
#Commerce on behalf of the United States.  All rights reserved.
_database_code_ICSD                36566
_audit_creation_date               1992/08/20
_audit_update_record               1998/06/26
_chemical_name_systematic          'Calcium Copper Silicate *'
_chemical_formula_structural       'Ca3 Cu5 Si9 O26'
_chemical_formula_sum              'Ca3 Cu5 O26 Si9'
_chemical_name_mineral             Liebauite
_publ_section_title
;
Liebauite, Ca3 Cu5 Si9 O26: A new silicate mineral with 14er single 
chain
;
loop_
_citation_id
_citation_journal_abbrev
_citation_year
_citation_journal_volume
_citation_page_first
_citation_page_last
_citation_journal_id_ASTM
primary 'Zeitschrift fuer Kristallographie (1979-2010)' 1992 200 115 126 ZEKRDZ
_publ_author_name
;
Zoeller, M.H.;Tillmanns, E.;Hentschel, G.
;
_cell_length_a                     10.160(1)
_cell_length_b                     10.001(1)
_cell_length_c                     19.9730(20)
_cell_angle_alpha                  90.
_cell_angle_beta                   91.56(1)
_cell_angle_gamma                  90.
_cell_volume                       2028.71
_cell_formula_units_Z              4
_symmetry_space_group_name_H-M     'C 1 2/c 1'
_symmetry_Int_Tables_number        15
_refine_ls_R_factor_all            .046
loop_
_symmetry_equiv_pos_site_id
_symmetry_equiv_pos_as_xyz
  1	'x, -y, z+.5'
  2	'-x, -y, -z'
  3	'-x, y, -z+.5'
  4	'x, y, z'
  5	'x+.5, -y+.5, z+.5'
  6	'-x+.5, -y+.5, -z'
  7	'-x+.5, y+.5, -z+.5'
  8	'x+.5, y+.5, z'
loop_
_atom_type_symbol
_atom_type_oxidation_number
Ca2+	2
Cu2+	2
O2-	-2
Si4+	4
loop_
_atom_site_label
_atom_site_type_symbol
_atom_site_symmetry_multiplicity
_atom_site_Wyckoff_symbol
_atom_site_fract_x
_atom_site_fract_y
_atom_site_fract_z
_atom_site_occupancy
_atom_site_attached_hydrogens
_atom_site_B_iso_or_equiv
Cu1 Cu2+ 4 d 0.25 0.25 0.5 1. 0 0.61(4) 
Cu2 Cu2+ 8 f 0.2312(2) 0.2581(2) 0.3391(1) 1. 0 0.60(3) 
Cu3 Cu2+ 8 f 0.9704(2) 0.0105(2) 0.3284(1) 1. 0 0.56(3) 
Ca1 Ca2+ 4 e 0.5 0.2251(5) 0.25 1. 0 0.29(7) 
Ca2 Ca2+ 8 f 0.9725(3) 0.2641(3) 0.4297(1) 1. 0 0.48(5) 
Si1 Si4+ 8 f 0.9967(3) 0.7545(5) 0.4117(2) 1. 0 0.42(7) 
Si2 Si4+ 8 f 0.1987(4) 0.5451(5) 0.4066(2) 1. 0 0.45(7) 
Si3 Si4+ 8 f 0.2275(4) 0.5348(5) 0.6960(2) 1. 0 0.56(7) 
Si4 Si4+ 4 e 0 0.7200(6) 0.75 1. 0 0.47(10) 
Si5 Si4+ 8 f 0.2854(4) 0.5348(4) 0.5511(2) 1. 0 0.25(6) 
O1 O2- 8 f 0.0902(9) 0.6469(10) 0.3721(4) 1. 0 0.85(20) 
O2 O2- 8 f 0.9135(9) 0.8293(10) 0.3526(4) 1. 0 0.49(18) 
O3 O2- 8 f 0.9583(8) 0.8067(10) 0.6842(4) 1. 0 0.24(17) 
O4 O2- 8 f 0.9141(9) 0.6854(11) 0.4672(4) 1. 0 0.75(19) 
O5 O2- 8 f 0.1886(9) 0.3830(11) 0.7089(4) 1. 0 0.55(19) 
O6 O2- 8 f 0.1570(9) 0.3919(11) 0.3954(4) 1. 0 0.65(19) 
O7 O2- 8 f 0.3786(9) 0.5716(11) 0.7161(4) 1. 0 0.66(18) 
O8 O2- 8 f 0.1889(8) 0.5768(10) 0.4882(4) 1. 0 0.24(18) 
O9 O2- 8 f 0.1957(9) 0.5769(11) 0.6159(4) 1. 0 0.51(18) 
O10 O2- 8 f 0.1286(9) 0.6277(10) 0.7386(4) 1. 0 0.59(18) 
O11 O2- 8 f 0.3420(8) 0.3861(11) 0.5547(4) 1. 0 0.38(18) 
O12 O2- 8 f 0.5947(9) 0.3596(10) 0.4516(4) 1. 0 0.7(2) 
O13 O2- 8 f 0.1572(9) 0.0897(11) 0.1151(4) 1. 0 0.9(2) 

#End of data_36566-ICSD


