data_2107-ICSD
#?2014 by Fachinformationszentrum Karlsruhe, and the U.S. Secretary of 
#Commerce on behalf of the United States.  All rights reserved.
_database_code_ICSD                2107
_audit_creation_date               1980/01/01
_audit_update_record               2013/08/01
_chemical_name_systematic
;
Calcium Decaantimony Decaoxide Hexasulfide *
;
_chemical_formula_structural       'Ca (Sb10 O10) S6'
_chemical_formula_sum              'Ca1 O10 S6 Sb10'
_chemical_name_mineral             Sarabauite
_publ_section_title
;
The crystal structure of sarabauite Ca Sb10 O10 S6, a new oxide 
sulfide mineral
;
loop_
_citation_id
_citation_journal_abbrev
_citation_year
_citation_journal_volume
_citation_page_first
_citation_page_last
_citation_journal_id_ASTM
primary 'Chemistry Letters' 1977 1977 275 276 CMLTAG
_publ_author_name
;
Nakai, I.;Koto, K.;Nagashima, K.;Morimoto, N.
;
_cell_length_a                     25.330(20)
_cell_length_b                     5.655(3)
_cell_length_c                     16.880(10)
_cell_angle_alpha                  90.
_cell_angle_beta                   117.51(6)
_cell_angle_gamma                  90.
_cell_volume                       2144.52
_cell_formula_units_Z              4
_symmetry_space_group_name_H-M     'C 1 2/c 1'
_symmetry_Int_Tables_number        15
_refine_ls_R_factor_all            .084
loop_
_symmetry_equiv_pos_site_id
_symmetry_equiv_pos_as_xyz
  1	'x, -y, z+.5'
  2	'-x, -y, -z'
  3	'-x, y, -z+.5'
  4	'x, y, z'
  5	'x+.5, -y+.5, z+.5'
  6	'-x+.5, -y+.5, -z'
  7	'-x+.5, y+.5, -z+.5'
  8	'x+.5, y+.5, z'
loop_
_atom_type_symbol
_atom_type_oxidation_number
Ca2+	2
O2-	-2
S2-	-2
Sb3+	3
loop_
_atom_site_label
_atom_site_type_symbol
_atom_site_symmetry_multiplicity
_atom_site_Wyckoff_symbol
_atom_site_fract_x
_atom_site_fract_y
_atom_site_fract_z
_atom_site_occupancy
_atom_site_attached_hydrogens
_atom_site_B_iso_or_equiv
Sb1 Sb3+ 8 f 0.4517(1) 0.4910(3) 0.0881(1) 1. 0 0.85 
Sb2 Sb3+ 8 f 0.0605(1) 0.4400(3) 0.0843(1) 1. 0 0.95 
Sb3 Sb3+ 8 f 0.4019(1) 0.3905(3) 0.2478(1) 1. 0 0.77 
Sb4 Sb3+ 8 f 0.1644(1) 0.3857(3) 0.4519(1) 1. 0 0.99 
Sb5 Sb3+ 8 f 0.2275(1) 0.1009(3) 0.1343(1) 1. 0 1.49 
Ca1 Ca2+ 4 e 0 0.4460(11) 0.25 1. 0 0.72 
S1 S2- 8 f 0.2956(3) 0.4800(11) 0.0260(4) 1. 0 1.23 
S2 S2- 8 f 0.1723(3) 0.4286(11) 0.3109(4) 1. 0 1.28 
S3 S2- 8 f 0.3244(4) 0.2623(17) 0.3567(6) 1. 0 3.11 
O1 O2- 8 f 0.0237(8) 0.3284(35) 0.4827(13) 1. 0 1.7 
O2 O2- 8 f 0.0838(7) 0.2467(30) 0.3727(11) 1. 0 0.89 
O3 O2- 8 f 0.4540(7) 0.1461(31) 0.3352(11) 1. 0 1.13 
O4 O2- 8 f 0.4381(7) 0.2788(31) 0.1740(11) 1. 0 1.06 
O5 O2- 8 f 0.0313(7) 0.1178(29) 0.1793(11) 1. 0 0.87 

#End of data_2107-ICSD


