data_10322-ICSD
#?2014 by Fachinformationszentrum Karlsruhe, and the U.S. Secretary of 
#Commerce on behalf of the United States.  All rights reserved.
_database_code_ICSD                10322
_audit_creation_date               1985/09/12
_audit_update_record               2013/08/01
_chemical_name_systematic
;
Tetratellurium Bis(tetrachloroaluminate)
;
_chemical_formula_structural       'Te4 (Al Cl4)2'
_chemical_formula_sum              'Al2 Cl8 Te4'
_publ_section_title
;
The crystal structures of tetratellurium(2+) tetrachloroaluminate and 
heptachlorodialuminate, Te4(2+) (Al Cl4)2(-) and Te4(2+) (Al2 Cl7)2(-
)
;
loop_
_citation_id
_citation_journal_abbrev
_citation_year
_citation_journal_volume
_citation_page_first
_citation_page_last
_citation_journal_id_ASTM
primary 'Inorganic Chemistry' 1972 11 357 362 INOCAJ
_publ_author_name
;
Couch, T.W.;Lokken, D.A.;Corbett, J.D.
;
_cell_length_a                     10.746(5)
_cell_length_b                     14.112(5)
_cell_length_c                     11.845(5)
_cell_angle_alpha                  90.
_cell_angle_beta                   90.
_cell_angle_gamma                  90.
_cell_volume                       1796.27
_cell_formula_units_Z              4
_symmetry_space_group_name_H-M     'P b c a'
_symmetry_Int_Tables_number        61
_refine_ls_R_factor_all            .073
loop_
_symmetry_equiv_pos_site_id
_symmetry_equiv_pos_as_xyz
  1	'x+.5, y, -z+.5'
  2	'x, -y+.5, z+.5'
  3	'-x+.5, y+.5, z'
  4	'-x, -y, -z'
  5	'-x+.5, -y, z+.5'
  6	'-x, y+.5, -z+.5'
  7	'x+.5, -y+.5, -z'
  8	'x, y, z'
loop_
_atom_type_symbol
_atom_type_oxidation_number
Al3+	3
Cl1-	-1
Te.5+	.5
loop_
_atom_site_label
_atom_site_type_symbol
_atom_site_symmetry_multiplicity
_atom_site_Wyckoff_symbol
_atom_site_fract_x
_atom_site_fract_y
_atom_site_fract_z
_atom_site_occupancy
_atom_site_attached_hydrogens
Te1 Te.5+ 8 c 0.01034(11) 0.07418(7) 0.36796(8) 1. 0 
Te2 Te.5+ 8 c 0.39208(12) 0.40989(8) 0.43435(9) 1. 0 
Al1 Al3+ 8 c 0.3892(5) 0.3587(3) 0.0844(3) 1. 0 
Cl1 Cl1- 8 c 0.3823(6) 0.1222(5) 0.4093(4) 1. 0 
Cl2 Cl1- 8 c 0.0694(5) 0.3308(4) 0.3532(5) 1. 0 
Cl3 Cl1- 8 c 0.3128(4) 0.4788(3) 0.1716(3) 1. 0 
Cl4 Cl1- 8 c 0.2764(5) 0.2396(3) 0.1264(4) 1. 0 

#End of data_10322-ICSD


