data_72930-ICSD
#?2014 by Fachinformationszentrum Karlsruhe, and the U.S. Secretary of 
#Commerce on behalf of the United States.  All rights reserved.
_database_code_ICSD                72930
_audit_creation_date               1994/06/30
_audit_update_record               2014/08/01
_chemical_name_systematic          'Dipotassium Tetrabromozincate'
_chemical_formula_structural       'K2 (Zn Br4)'
_chemical_formula_sum              'Br4 K2 Zn1'
_publ_section_title
;
Structure determination of K2 Zn Br4 at 291 and 144 K
;
loop_
_citation_id
_citation_journal_abbrev
_citation_year
_citation_journal_volume
_citation_page_first
_citation_page_last
_citation_journal_id_ASTM
primary 'Acta Crystallographica, Section C: Crystal Structure Communications'
 1993 49 946 950 ACSCEE
2 'Golden Book of Phase Transitions, Wroclaw' 2002 1 1 123 GBOPT5
_publ_author_name
;
Fabry, J.;Breczewski, T.;Zuniga, F.J.;Amaiz, A.R.
;
_cell_length_a                     7.200(2)
_cell_length_b                     7.477(2)
_cell_length_c                     9.144(3)
_cell_angle_alpha                  90.
_cell_angle_beta                   108.95(1)
_cell_angle_gamma                  90.
_cell_volume                       465.58
_cell_formula_units_Z              2
_symmetry_space_group_name_H-M     'P 1 21/m 1'
_symmetry_Int_Tables_number        11
_refine_ls_R_factor_all            .028
loop_
_symmetry_equiv_pos_site_id
_symmetry_equiv_pos_as_xyz
  1	'x, -y+.5, z'
  2	'-x, -y, -z'
  3	'-x, y+.5, -z'
  4	'x, y, z'
loop_
_atom_type_symbol
_atom_type_oxidation_number
Br1-	-1
K1+	1
Zn2+	2
loop_
_atom_site_label
_atom_site_type_symbol
_atom_site_symmetry_multiplicity
_atom_site_Wyckoff_symbol
_atom_site_fract_x
_atom_site_fract_y
_atom_site_fract_z
_atom_site_occupancy
_atom_site_attached_hydrogens
K1 K1+ 2 e 0.7809(4) 0.25 0.5744(3) 1. 0 
K2 K1+ 2 e 0.7043(4) 0.25 0.0440(3) 1. 0 
Zn1 Zn2+ 2 e 0.2816(2) 0.25 0.2066(1) 1. 0 
Br1 Br1- 2 e 0.1073(2) 0.25 -.0656(1) 1. 0 
Br2 Br1- 2 e 0.0750(2) 0.25 0.3635(1) 1. 0 
Br3 Br1- 4 f 0.5012(1) -.0018(1) 0.2667(1) 1. 0 

loop_
_atom_site_aniso_label
_atom_site_aniso_type_symbol
_atom_site_aniso_U_11
_atom_site_aniso_U_22
_atom_site_aniso_U_33
_atom_site_aniso_U_12
_atom_site_aniso_U_13
_atom_site_aniso_U_23
K1 K1+ 0.0603(18) 0.0819(24) 0.0435(16) 0 0.0220(14) 0
K2 K1+ 0.0537(18) 0.0806(23) 0.0432(15) 0 0.0173(13) 0
Zn1 Zn2+ 0.0385(8) 0.0455(9) 0.0428(7) 0 0.0164(6) 0
Br1 Br1- 0.0581(9) 0.1117(14) 0.0377(7) 0 0.0140(6) 0
Br2 Br1- 0.0460(8) 0.1284(14) 0.0445(7) 0 0.0225(6) 0
Br3 Br1- 0.0548(5) 0.0376(4) 0.0572(5) 0.0040(4) 0.0185(4) 0.0010(5)
#End of data_72930-ICSD


