data_41199-ICSD
#?2014 by Fachinformationszentrum Karlsruhe, and the U.S. Secretary of 
#Commerce on behalf of the United States.  All rights reserved.
_database_code_ICSD                41199
_audit_creation_date               1999/11/30
_audit_update_record               2014/08/01
_chemical_name_systematic          'Lithium Iodate(V) - Gamma, Ht'
_chemical_formula_structural       'Li (I O3)'
_chemical_formula_sum              'I1 Li1 O3'
_publ_section_title
;
gamma-lithium iodate at 515 K and the alpha-Li I O3 to gamma-Li I O3, 
gamma-Li I O3 to beta-Li I O3 phase transitions
;
loop_
_citation_id
_citation_journal_abbrev
_citation_year
_citation_journal_volume
_citation_page_first
_citation_page_last
_citation_journal_id_ASTM
primary 'Journal of Chemical Physics' 1982 77 4222 4226 JCPSA6
2 'Phase Transition' 1992 38 127 220 PHTRDP
_publ_author_name
;
Liminga, R.;Svensson, C.;Albertsson, J.;Abrahams, S.C.
;
_cell_length_a                     9.422(2)
_cell_length_b                     5.861(2)
_cell_length_c                     5.301(2)
_cell_angle_alpha                  90.
_cell_angle_beta                   90.
_cell_angle_gamma                  90.
_cell_volume                       292.73
_cell_formula_units_Z              4
_symmetry_space_group_name_H-M     'P n a 21'
_symmetry_Int_Tables_number        33
_refine_ls_R_factor_all            .109
loop_
_symmetry_equiv_pos_site_id
_symmetry_equiv_pos_as_xyz
  1	'x+.5, -y+.5, z'
  2	'-x+.5, y+.5, z+.5'
  3	'-x, -y, z+.5'
  4	'x, y, z'
loop_
_atom_type_symbol
_atom_type_oxidation_number
I5+	5
Li1+	1
O2-	-2
loop_
_atom_site_label
_atom_site_type_symbol
_atom_site_symmetry_multiplicity
_atom_site_Wyckoff_symbol
_atom_site_fract_x
_atom_site_fract_y
_atom_site_fract_z
_atom_site_occupancy
_atom_site_attached_hydrogens
_atom_site_B_iso_or_equiv
Li1 Li1+ 4 a 0 0 0.0706 1. 0 3.8(6) 
I1 I5+ 4 a 0.3179(5) 0.0751(7) 0 1. 0 3.3(2) 
O1 O2- 4 a 0.1298(44) 0.056(11) -.1813(71) 1. 0 3.8(6) 
O2 O2- 4 a 0.4117(49) -0.119(10) -.1618(78) 1. 0 3.8(6) 
O3 O2- 4 a 0.3663(52) 0.3439(94) -.1853(87) 1. 0 3.8(6) 

#End of data_41199-ICSD


