data_422490-ICSD
#?2014 by Fachinformationszentrum Karlsruhe, and the U.S. Secretary of 
#Commerce on behalf of the United States.  All rights reserved.
_database_code_ICSD                422490
_audit_creation_date               2013/02/01
_audit_update_record               2013/08/01
_chemical_name_systematic
;
Dipotassium Germanium Tris(disulfate(VI))
;
_chemical_formula_structural       'K2 (Ge (S2 O7)3)'
_chemical_formula_sum              'Ge1 K2 O21 S6'
_publ_section_title
;
New compounds bearing [M (S2 O7)3](2-) anions (M = Si, Ge, Sn): 
Syntheses and characterization of A2 [Si (S2 O7)3] (A = Na, K, Rb), 
A2 [Ge (S2 O7)3] (A = Li, Na, K, Rb, Cs), A2 [Sn (S2 O7)3] (A = Na, 
K), and the unique germanate Hg2 [Ge (S2 O7)3] Cl2 with
;
loop_
_citation_id
_citation_journal_abbrev
_citation_year
_citation_journal_volume
_citation_journal_issue
_citation_page_first
_citation_page_last
_citation_journal_id_ASTM
primary 'Zeitschrift fuer Anorganische und Allgemeine Chemie (1950) (DE)'
 2012 638 12-13 2053 2061 ZAACAB
_publ_author_name
;
Logemann, C.;Witt, J.;Gunzelmann, D.;Senker, J.;Wickleder, M.S.
;
_cell_length_a                     9.5812(7)
_cell_length_b                     9.5812(7)
_cell_length_c                     10.7692(7)
_cell_angle_alpha                  90.00
_cell_angle_beta                   90.00
_cell_angle_gamma                  120.00
_cell_volume                       856.16
_cell_formula_units_Z              2
_symmetry_space_group_name_H-M     'P -3'
_symmetry_Int_Tables_number        147
_refine_ls_R_factor_all            .0199
loop_
_symmetry_equiv_pos_site_id
_symmetry_equiv_pos_as_xyz
  1	'x-y, x, -z'
  2	'y, -x+y, -z'
  3	'-x, -y, -z'
  4	'-x+y, -x, z'
  5	'-y, x-y, z'
  6	'x, y, z'
loop_
_atom_type_symbol
_atom_type_oxidation_number
Ge4+	4
K1+	1
O2-	-2
S6+	6
loop_
_atom_site_label
_atom_site_type_symbol
_atom_site_symmetry_multiplicity
_atom_site_Wyckoff_symbol
_atom_site_fract_x
_atom_site_fract_y
_atom_site_fract_z
_atom_site_occupancy
_atom_site_attached_hydrogens
_atom_site_U_iso_or_equiv
Ge1 Ge4+ 2 c 0.0000 0.0000 0.24204(4) 1 0 0.01482(10) 
K1 K1+ 2 d -0.3333 -0.6667 0.44113(9) 1 0 0.02287(18) 
K2 K1+ 2 d -0.3333 -0.6667 0.87093(8) 1 0 0.02012(18) 
S1 S6+ 6 g -0.66394(7) -0.73663(7) 0.65912(6) 1 0 0.01801(13) 
S2 S6+ 6 g -0.18905(7) -0.35068(6) 0.15013(6) 1 0 0.01937(14) 
O1 O2- 6 g -0.0571(2) -0.1758(2) 0.13741(18) 1 0 0.0214(4) 
O2 O2- 6 g -0.8271(2) -0.8835(2) 0.65113(19) 1 0 0.0243(4) 
O3 O2- 6 g -0.5405(2) -0.7764(3) 0.6673(2) 1 0 0.0342(4) 
O4 O2- 6 g -0.2414(2) -0.4179(2) 0.03097(19) 1 0 0.0317(5) 
O5 O2- 6 g -0.1516(2) -0.4336(2) 0.2413(2) 1 0 0.0303(5) 
O6 O2- 6 g -0.6610(2) -0.6676(2) 0.79822(16) 1 0 0.0188(4) 
O7 O2- 6 g -0.6476(3) -0.6204(3) 0.5712(2) 1 0 0.0434(6) 

loop_
_atom_site_aniso_label
_atom_site_aniso_type_symbol
_atom_site_aniso_U_11
_atom_site_aniso_U_22
_atom_site_aniso_U_33
_atom_site_aniso_U_12
_atom_site_aniso_U_13
_atom_site_aniso_U_23
Ge1 Ge4+ 0.01193(12) 0.01193(12) 0.0206(2) 0.00597(6) 0.000 0.000
K1 K1+ 0.0238(3) 0.0238(3) 0.0210(5) 0.01189(13) 0.000 0.000
K2 K1+ 0.0220(2) 0.0220(2) 0.0163(5) 0.01100(12) 0.000 0.000
S1 S6+ 0.0144(3) 0.0176(3) 0.0165(3) 0.0039(2) 0.0017(2) -0.0002(2)
S2 S6+ 0.0231(3) 0.0130(2) 0.0211(3) 0.0084(2) 0.0032(2) -0.00093(19)
O1 O2- 0.0249(9) 0.0128(7) 0.0231(11) 0.0068(7) 0.0100(7) -0.0020(6)
O2 O2- 0.0136(8) 0.0241(9) 0.0248(11) 0.0017(7) 0.0066(7) -0.0090(7)
O3 O2- 0.0190(8) 0.0467(12) 0.0377(12) 0.0170(9) -0.0055(7) -0.0178(11)
O4 O2- 0.0420(12) 0.0220(9) 0.0270(12) 0.0128(8) 0.0025(8) -0.0085(8)
O5 O2- 0.0295(10) 0.0245(10) 0.0402(13) 0.0160(8) 0.0017(9) 0.0069(8)
O6 O2- 0.0181(8) 0.0178(8) 0.0180(11) 0.0072(7) -0.0016(6) -0.0018(6)
O7 O2- 0.0720(17) 0.0297(11) 0.0216(15) 0.0203(11) 0.0038(11) 0.0064(9)
#End of data_422490-ICSD


