data_380493-ICSD
#?2014 by Fachinformationszentrum Karlsruhe, and the U.S. Secretary of 
#Commerce on behalf of the United States.  All rights reserved.
_database_code_ICSD                380493
_audit_creation_date               2011/02/01
_audit_update_record               2012/02/01
_chemical_name_systematic
;
Tetracopper Dodecazinc Octaphosphate
;
_chemical_formula_structural       'Cu4 Zn12 P8 O36'
_chemical_formula_sum              'Cu4 O36 P8 Zn12'
_publ_section_title
;
Darstellung von Kupferzinkphosphaten
;
loop_
_citation_id
_citation_journal_abbrev
_citation_year
_citation_journal_volume
_citation_journal_issue
_citation_page_first
_citation_page_last
_citation_journal_id_ASTM
primary 'Zeitschrift fuer Anorganische und Allgemeine Chemie (1950) (DE)'
 2010 636 11 2083 2083 ZAACAB
_publ_author_name                  'Weimann, I.;Feller, J.;Zak, Z.'
_cell_length_a                     9.8717(27)
_cell_length_b                     8.0433(12)
_cell_length_c                     9.6637(18)
_cell_angle_alpha                  90.000
_cell_angle_beta                   120.29(20)
_cell_angle_gamma                  90.000
_cell_volume                       662.56
_cell_formula_units_Z              1
_symmetry_space_group_name_H-M     'C 1 2/m 1'
_symmetry_Int_Tables_number        12
loop_
_symmetry_equiv_pos_site_id
_symmetry_equiv_pos_as_xyz
  1	'-x, y, -z'
  2	'-x, -y, -z'
  3	'x, -y, z'
  4	'x, y, z'
  5	'-x+.5, y+.5, -z'
  6	'-x+.5, -y+.5, -z'
  7	'x+.5, -y+.5, z'
  8	'x+.5, y+.5, z'
loop_
_atom_type_symbol
_atom_type_oxidation_number
Cu2+	2
O2-	-2
P5+	5
Zn2+	2
loop_
_atom_site_label
_atom_site_type_symbol
_atom_site_symmetry_multiplicity
_atom_site_Wyckoff_symbol
_atom_site_fract_x
_atom_site_fract_y
_atom_site_fract_z
_atom_site_occupancy
_atom_site_attached_hydrogens
Zn1 Zn2+ 8 j 0.0001 0.3009 0.8256 1.0 0 
Zn2 Zn2+ 4 i -0.1556 0.0000 0.8872 1.000 0 
O1 O2- 4 g 0.0000 0.1804 1.0000 1.000 0 
Cu1 Cu2+ 4 h 0.0000 0.1917 0.5000 1.000 0 
P1 P5+ 4 i 0.2984 0.0000 0.5048 1.000 0 
O2 O2- 4 i 0.2653 0.0000 0.3356 1.000 0 
O3 O2- 8 j 0.3993 0.1557 0.5904 1.0 0 
O4 O2- 4 i 0.1453 0.0000 0.5116 1.000 0 
P2 P5+ 4 i 0.2365 0.0000 0.8550 1.000 0 
O5 O2- 4 i 0.3791 0.0000 0.8311 1.000 0 
O6 O2- 8 j 0.1396 0.1574 0.7821 1.0 0 
O7 O2- 4 i 0.3060 0.0000 0.0397 1.000 0 

#End of data_380493-ICSD


