data_401-ICSD
#?2014 by Fachinformationszentrum Karlsruhe, and the U.S. Secretary of 
#Commerce on behalf of the United States.  All rights reserved.
_database_code_ICSD                401
_audit_creation_date               1980/01/01
_audit_update_record               2011/08/01
_chemical_name_systematic
;
Sodium Neodymium Tetrakis(catena-phosphate(V))
;
_chemical_formula_structural       'Na Nd (P O3)4'
_chemical_formula_sum              'Na1 Nd1 O12 P4'
_publ_section_title
;
Sodium neodymium metaphosphate Na Nd P4 O12
;
loop_
_citation_id
_citation_journal_abbrev
_citation_year
_citation_journal_volume
_citation_page_first
_citation_page_last
_citation_journal_id_ASTM
primary 'Acta Crystallographica B (24,1968-38,1982)' 1976 32 2254 2256 ACBCAR
_publ_author_name                  'Koizumi, H.'
_cell_length_a                     9.907(4)
_cell_length_b                     13.10(1)
_cell_length_c                     7.201(3)
_cell_angle_alpha                  90.
_cell_angle_beta                   90.51(3)
_cell_angle_gamma                  90.
_cell_volume                       934.52
_cell_formula_units_Z              4
_symmetry_space_group_name_H-M     'P 1 21/n 1'
_symmetry_Int_Tables_number        14
_refine_ls_R_factor_all            .028
loop_
_symmetry_equiv_pos_site_id
_symmetry_equiv_pos_as_xyz
  1	'-x+.5, y+.5, -z+.5'
  2	'-x, -y, -z'
  3	'x+.5, -y+.5, z+.5'
  4	'x, y, z'
loop_
_atom_type_symbol
_atom_type_oxidation_number
Na1+	1
Nd3+	3
O2-	-2
P5+	5
loop_
_atom_site_label
_atom_site_type_symbol
_atom_site_symmetry_multiplicity
_atom_site_Wyckoff_symbol
_atom_site_fract_x
_atom_site_fract_y
_atom_site_fract_z
_atom_site_occupancy
_atom_site_attached_hydrogens
Nd1 Nd3+ 4 e 0.0238(1) 0.2174(1) 0.9868(1) 1. 0 
P1 P5+ 4 e 0.1943(1) 0.3722(1) 0.3548(2) 1. 0 
P2 P5+ 4 e 0.2561(1) 0.4001(2) 0.7509(2) 1. 0 
P3 P5+ 4 e 0.3037(1) 0.0896(1) 0.2305(2) 1. 0 
P4 P5+ 4 e 0.2360(1) 0.1145(1) 0.6197(2) 1. 0 
Na1 Na1+ 4 e 0.4338(2) 0.2787(2) 0.0001(3) 1. 0 
O1 O2- 4 e 0.1049(3) 0.2897(3) 0.2845(4) 1. 0 
O2 O2- 4 e 0.3417(3) 0.3671(3) 0.3192(4) 1. 0 
O3 O2- 4 e 0.2055(4) 0.3350(3) 0.9057(5) 1. 0 
O4 O2- 4 e 0.4035(3) 0.3937(3) 0.7143(5) 1. 0 
O5 O2- 4 e 0.1327(3) 0.4782(2) 0.2834(5) 1. 0 
O6 O2- 4 e 0.1674(3) 0.3769(3) 0.5718(4) 1. 0 
O7 O2- 4 e 0.2120(3) 0.1102(3) 0.0701(5) 1. 0 
O8 O2- 4 e 0.4180(3) 0.1607(3) 0.2614(5) 1. 0 
O9 O2- 4 e 0.3470(3) 0.1896(3) 0.6328(5) 1. 0 
O10 O2- 4 e 0.1016(3) 0.1418(3) 0.6929(5) 1. 0 
O11 O2- 4 e 0.2908(3) 0.0140(3) 0.7134(5) 1. 0 
O12 O2- 4 e 0.2119(3) 0.0806(3) 0.4107(5) 1. 0 

#End of data_401-ICSD


