data_236189-ICSD
#?2014 by Fachinformationszentrum Karlsruhe, and the U.S. Secretary of 
#Commerce on behalf of the United States.  All rights reserved.
_database_code_ICSD                236189
_audit_creation_date               2013/08/01
_chemical_name_systematic
;
Tetrapotassium Hypodiphosphate Tetrahydrate
;
_chemical_formula_structural       'K4 (P2 O6) (H2 O)4'
_chemical_formula_sum              'H8 K4 O10 P2'
_publ_section_title
;
Potassium salts of hypodiphosphoric acid
;
loop_
_citation_id
_citation_journal_abbrev
_citation_year
_citation_journal_volume
_citation_journal_issue
_citation_page_first
_citation_page_last
_citation_journal_id_ASTM
primary 'Acta Crystallographica, Section C: Crystal Structure Communications'
 2012 68 12 i71 i82 ACSCEE
_publ_author_name
;
Szafranowska, B.;Slepokura, K.;Lis, T.
;
_cell_length_a                     8.097(3)
_cell_length_b                     12.281(3)
_cell_length_c                     11.684(3)
_cell_angle_alpha                  90.00
_cell_angle_beta                   92.08(4)
_cell_angle_gamma                  90.00
_cell_volume                       1161.08
_cell_formula_units_Z              4
_symmetry_space_group_name_H-M     'C 1 c 1'
_symmetry_Int_Tables_number        9
_refine_ls_R_factor_all            .0237
loop_
_symmetry_equiv_pos_site_id
_symmetry_equiv_pos_as_xyz
  1	'x, -y, z+.5'
  2	'x, y, z'
  3	'x+.5, -y+.5, z+.5'
  4	'x+.5, y+.5, z'
loop_
_atom_type_symbol
_atom_type_oxidation_number
H1+	1
K1+	1
O2-	-2
P4+	4
loop_
_atom_site_label
_atom_site_type_symbol
_atom_site_symmetry_multiplicity
_atom_site_Wyckoff_symbol
_atom_site_fract_x
_atom_site_fract_y
_atom_site_fract_z
_atom_site_occupancy
_atom_site_attached_hydrogens
_atom_site_U_iso_or_equiv
K1 K1+ 4 a 0.46146(5) 0.46778(3) 0.74422(3) 1 0 0.01119(8) 
K2 K1+ 4 a 0.19677(5) 0.61192(3) 0.48515(3) 1 0 0.01063(8) 
K3 K1+ 4 a 0.46851(5) 0.87566(3) 0.30929(3) 1 0 0.01017(8) 
K4 K1+ 4 a 0.82832(5) 0.69407(3) 0.27935(3) 1 0 0.00974(8) 
P1 P4+ 4 a 0.60068(6) 0.66953(4) 0.53303(4) 1 0 0.00663(8) 
P2 P4+ 4 a 0.74470(5) 0.51966(4) 0.52924(4) 1 0 0.00631(9) 
O1 O2- 4 a 0.52546(17) 0.68245(11) 0.41247(11) 1 0 0.0102(3) 
O2 O2- 4 a 0.47313(16) 0.65731(12) 0.62572(11) 1 0 0.0093(2) 
O3 O2- 4 a 0.72302(16) 0.76180(12) 0.56401(12) 1 0 0.0104(3) 
O4 O2- 4 a 0.88456(16) 0.53758(11) 0.44816(11) 1 0 0.0094(3) 
O5 O2- 4 a 0.80206(17) 0.49224(12) 0.65218(11) 1 0 0.0094(3) 
O6 O2- 4 a 0.62001(17) 0.43270(12) 0.48394(12) 1 0 0.0117(3) 
O7 O2- 4 a 0.54791(17) 0.26659(12) 0.62738(12) 1 0 0.0110(3) 
H1 H1+ 4 a 0.4490(10) 0.257(2) 0.605(2) 1 0 0.017 
H2 H1+ 4 a 0.567(3) 0.3194(13) 0.5843(17) 1 0 0.017 
O8 O2- 4 a 0.30307(17) 0.59320(13) 0.90686(12) 1 0 0.0123(3) 
H3 H1+ 4 a 0.275(3) 0.6416(15) 0.9530(17) 1 0 0.019 
H4 H1+ 4 a 0.3992(13) 0.578(2) 0.931(2) 1 0 0.019 
O9 O2- 4 a 0.13273(18) 0.45044(13) 0.67352(13) 1 0 0.0147(3) 
H5 H1+ 4 a 0.0313(8) 0.460(2) 0.659(2) 1 0 0.022 
H6 H1+ 4 a 0.149(3) 0.3915(12) 0.639(2) 1 0 0.022 
O10 O2- 4 a 0.15265(18) 0.77577(12) 0.32727(11) 1 0 0.0128(3) 
H7 H1+ 4 a 0.144(3) 0.8269(14) 0.3744(17) 1 0 0.019 
H8 H1+ 4 a 0.120(3) 0.797(2) 0.2621(10) 1 0 0.019 

loop_
_atom_site_aniso_label
_atom_site_aniso_type_symbol
_atom_site_aniso_U_11
_atom_site_aniso_U_22
_atom_site_aniso_U_33
_atom_site_aniso_U_12
_atom_site_aniso_U_13
_atom_site_aniso_U_23
K1 K1+ 0.01246(17) 0.0110(2) 0.01024(17) 0.00253(16) 0.00214(14) 
0.00153(15)
K2 K1+ 0.00814(15) 0.01093(19) 0.01281(17) 0.00027(15) 0.00012(13) 
-0.00042(15)
K3 K1+ 0.01151(17) 0.00906(19) 0.00992(17) 0.00156(15) 0.00027(13) 
0.00016(14)
K4 K1+ 0.00972(16) 0.0099(2) 0.00957(16) -0.00096(15) -0.00001(13) 
-0.00048(14)
P1 P4+ 0.00649(18) 0.0073(2) 0.00614(18) 0.00021(17) 0.00041(14) 
0.00011(16)
P2 P4+ 0.00609(18) 0.0066(2) 0.00628(19) -0.00017(17) 0.00025(15) 
-0.00009(16)
O1 O2- 0.0118(6) 0.0105(7) 0.0083(6) 0.0015(5) -0.0014(5) 0.0004(5)
O2 O2- 0.0084(5) 0.0106(7) 0.0091(6) 0.0009(5) 0.0026(5) 0.0009(5)
O3 O2- 0.0089(6) 0.0086(7) 0.0136(6) 0.0001(5) -0.0006(5) -0.0001(5)
O4 O2- 0.0087(6) 0.0103(7) 0.0094(6) 0.0009(5) 0.0027(5) -0.0008(5)
O5 O2- 0.0099(6) 0.0101(7) 0.0082(6) 0.0010(5) -0.0008(5) 0.0024(5)
O6 O2- 0.0115(6) 0.0093(7) 0.0142(6) -0.0037(5) -0.0020(5) -0.0013(5)
O7 O2- 0.0096(6) 0.0111(7) 0.0123(7) -0.0013(5) -0.0012(5) 0.0023(5)
O8 O2- 0.0098(6) 0.0153(7) 0.0118(6) 0.0013(6) -0.0001(5) -0.0028(5)
O9 O2- 0.0107(6) 0.0140(8) 0.0192(7) 0.0020(6) -0.0017(5) -0.0059(6)
O10 O2- 0.0157(7) 0.0132(7) 0.0093(6) 0.0004(6) -0.0008(5) -0.0006(5)
#End of data_236189-ICSD


