data_63247-ICSD
#?2014 by Fachinformationszentrum Karlsruhe, and the U.S. Secretary of 
#Commerce on behalf of the United States.  All rights reserved.
_database_code_ICSD                63247
_audit_creation_date               1989/12/04
_audit_update_record               1998/06/26
_chemical_name_systematic
;
Magnesium Dialuminium Hexaaqua Bis(phosphate) Dihydroxide Dihydrate
;
_chemical_formula_structural
;
Mg Al2 ((P O4)2 (O H)2 (H2 O)6 ) (H2 O)2
;
_chemical_formula_sum              'H18 Al2 Mg1 O18 P2'
_chemical_name_mineral             Gordonite
_publ_section_title
;
Crystal structures of Gordonite, Mg Al2 (P O4)2 (O H)2 (H2 O)6 (H2 
O)2, and its Mn analog
;
loop_
_citation_id
_citation_journal_abbrev
_citation_year
_citation_journal_volume
_citation_page_first
_citation_page_last
_citation_journal_id_ASTM
primary 'Neues Jahrbuch fuer Mineralogie. Monatshefte (Band=Jahr) (1950-)'
 1988 1988 265 270 NJMMAW
_publ_author_name                  'Leavens, P.B.;Rheingold, A.L.'
_cell_length_a                     5.246(2)
_cell_length_b                     10.532(5)
_cell_length_c                     6.975(3)
_cell_angle_alpha                  107.51(3)
_cell_angle_beta                   111.03(3)
_cell_angle_gamma                  72.21(3)
_cell_volume                       334.48
_cell_formula_units_Z              1
_symmetry_space_group_name_H-M     'P -1'
_symmetry_Int_Tables_number        2
_refine_ls_R_factor_all            .056
loop_
_symmetry_equiv_pos_site_id
_symmetry_equiv_pos_as_xyz
  1	'-x, -y, -z'
  2	'x, y, z'
loop_
_atom_type_symbol
_atom_type_oxidation_number
Al3+	3
H1+	1
Mg2+	2
O2-	-2
P5+	5
loop_
_atom_site_label
_atom_site_type_symbol
_atom_site_symmetry_multiplicity
_atom_site_Wyckoff_symbol
_atom_site_fract_x
_atom_site_fract_y
_atom_site_fract_z
_atom_site_occupancy
_atom_site_attached_hydrogens
_atom_site_U_iso_or_equiv
Mg1 Mg2+ 1 a 0 0 0 1. 0 0 
Al1 Al3+ 1 c 0 0.5 0 1. 0 0 
Al2 Al3+ 1 g 0 0.5 0.5 1. 0 0 
P1 P5+ 2 i 0.3456(2) 0.6680(1) 0.9258(1) 1. 0 0 
O1 O2- 2 i 0.1695(5) 0.6476(2) 0.0456(4) 1. 0 0 
O2 O2- 2 i 0.2943(5) 0.5763(2) 0.7029(4) 1. 0 0 
O3 O2- 2 i 0.2680(5) 0.8185(2) 0.9127(4) 1. 0 0 
O4 O2- 2 i 0.3390(5) 0.3699(2) 0.9558(4) 1. 0 0 
O5 O2- 2 i 0.1398(5) 0.5033(3) 0.2913(4) 1. 0 0 
O6 O2- 2 i 0.2297(5) 0.3177(3) 0.5404(4) 1. 0 0 
O7 O2- 2 i 0.2409(7) 0.0110(4) 0.3146(5) 1. 0 0 
O8 O2- 2 i 0.2220(6) 0.1083(3) 0.9455(5) 1. 0 0 
O9 O2- 2 i 0.2661(6) 0.8080(3) 0.5076(4) 1. 0 0 
H1 H1+ 2 i 0.29(1) 0.50(1) 0.32(1) 1. 0 0.04 
H2 H1+ 2 i 0.28(1) 0.33(1) 0.68(1) 1. 0 0.04 
H3 H1+ 2 i 0.36(1) 0.29(1) 0.51(1) 1. 0 0.04 
H4 H1+ 2 i 0.25(1) 0.09(1) 0.38(1) 1. 0 0.04 
H5 H1+ 2 i 0.26(1) 0.96(1) 0.38(1) 1. 0 0.04 
H6 H1+ 2 i 0.11(1) 0.19(1) 0.94(1) 1. 0 0.04 
H7 H1+ 2 i 0.38(1) 0.13(1) -.03(1) 1. 0 0.04 
H8 H1+ 2 i 0.29(1) 0.82(1) 0.63(1) 1. 0 0.04 
H9 H1+ 2 i 0.21(1) 0.76(1) 0.44(1) 1. 0 0.04 

loop_
_atom_site_aniso_label
_atom_site_aniso_type_symbol
_atom_site_aniso_U_11
_atom_site_aniso_U_22
_atom_site_aniso_U_33
_atom_site_aniso_U_12
_atom_site_aniso_U_13
_atom_site_aniso_U_23
Mg1 Mg2+ 0.013(1) 0.013(1) 0.014(1) -.003(1) 0.004(1) 0.002(1)
Al1 Al3+ 0.010(1) 0.010(1) 0.01 -.003(1) 0.004(1) 0.001(1)
Al2 Al3+ 0.013(1) 0.013(1) 0.01 -.005(1) 0.004(1) 0.001(1)
P1 P5+ 0.011(1) 0.012(1) 0.005(1) -.004(1) 0.002(1) 0.001(1)
O1 O2- 0.016(1) 0.014(1) 0.007(1) -.006(1) 0.005(1) -.001(1)
O2 O2- 0.014(1) 0.018(1) 0.006(1) -.007(1) 0.001(1) -.001(1)
O3 O2- 0.017(1) 0.014(1) 0.017(1) -.003(1) 0.004(1) 0.004(1)
O4 O2- 0.012(1) 0.016(1) 0.006(1) -.003(1) 0.001(1) 0.001(1)
O5 O2- 0.011(1) 0.022(1) 0.1 -.005(1) 0.003(1) 0.004(1)
O6 O2- 0.019(1) 0.019(1) 0.009(1) -.004(1) 0.004(1) 0.001(1)
O7 O2- 0.033(2) 0.029(2) 0.020(2) -.008(1) 0.000(1) 0.005(1)
O8 O2- 0.019(1) 0.018(1) 0.051(2) -.003(1) 0.015(1) 0.010(1)
O9 O2- 0.030(1) 0.032(1) 0.018(1) -.008(1) 0.008(1) 0.004(1)
#End of data_63247-ICSD


