data_260574-ICSD
#?2014 by Fachinformationszentrum Karlsruhe, and the U.S. Secretary of 
#Commerce on behalf of the United States.  All rights reserved.
_database_code_ICSD                260574
_audit_creation_date               2010/02/01
_chemical_name_systematic
;
Tripotassium Hexafluoroaluminate - Alpha
;
_chemical_formula_structural       'K3 (Al F6)'
_chemical_formula_sum              'Al1 F6 K3'
_publ_section_title
;
The crystal structure of alpha - K3 Al F6: Elpasolites and double 
Perovskites with broken corner-sharing connectivity of the octahedral 
framework
;
loop_
_citation_id
_citation_journal_abbrev
_citation_year
_citation_journal_volume
_citation_journal_issue
_citation_page_first
_citation_page_last
_citation_journal_id_ASTM
primary 'Inorganic Chemistry' 2009 48 19 9336 9344 INOCAJ
_publ_author_name
;
Abakumov, A.M.;King, G.;Laurinavichute, V.K.;Rozova, M.G.;Woodward, 
P.M.;Antipov, E.V.
;
_cell_length_a                     18.8385(3)
_cell_length_b                     18.8385(3)
_cell_length_c                     33.9644(6)
_cell_angle_alpha                  90
_cell_angle_beta                   90
_cell_angle_gamma                  90
_cell_volume                       12053.59
_cell_formula_units_Z              80
_symmetry_space_group_name_H-M     'I 41/a Z'
_symmetry_Int_Tables_number        88
_refine_ls_R_factor_all            .037
loop_
_symmetry_equiv_pos_site_id
_symmetry_equiv_pos_as_xyz
  1	'-y+.75, x+.75, -z+.75'
  2	'y+.25, -x+.75, -z+.75'
  3	'x, y+.5, -z'
  4	'-x, -y, -z'
  5	'y+.25, -x+.25, z+.25'
  6	'-y+.75, x+.25, z+.25'
  7	'-x, -y+.5, z'
  8	'x, y, z'
  9	'-y+.25, x+.25, -z+.25'
 10	'y+.75, -x+.25, -z+.25'
 11	'x+.5, y, -z+.5'
 12	'-x+.5, -y+.5, -z+.5'
 13	'y+.75, -x+.75, z+.75'
 14	'-y+.25, x+.75, z+.75'
 15	'-x+.5, -y, z+.5'
 16	'x+.5, y+.5, z+.5'
loop_
_atom_type_symbol
_atom_type_oxidation_number
Al3+	3
F1-	-1
K1+	1
loop_
_atom_site_label
_atom_site_type_symbol
_atom_site_symmetry_multiplicity
_atom_site_Wyckoff_symbol
_atom_site_fract_x
_atom_site_fract_y
_atom_site_fract_z
_atom_site_occupancy
_atom_site_attached_hydrogens
_atom_site_U_iso_or_equiv
K1 K1+ 8 e 0 0.25 0.3651(5) 1 0 0.00851(18) 
K2 K1+ 16 f 0.8917(6) 0.4474(6) 0.5115(3) 1 0 0.00851(18) 
K3 K1+ 16 f 0.1986(6) 0.3263(6) 0.4957(3) 1 0 0.00851(18) 
K4 K1+ 16 f 0.0851(5) 0.5631(5) 0.3747(3) 1 0 0.00851(18) 
K5 K1+ 16 f 0.2035(5) 0.3255(6) 0.3786(3) 1 0 0.00851(18) 
K6 K1+ 8 e 0 0.25 0.5083(5) 1 0 0.00851(18) 
K7 K1+ 16 f 0.8998(6) 0.4561(6) 0.3666(3) 1 0 0.00851(18) 
K8 K1+ 16 f 0.9273(5) 0.0913(5) 0.3222(3) 1 0 0.00851(18) 
K9 K1+ 16 f 0.8647(5) 0.3240(4) 0.4334(3) 1 0 0.00851(18) 
K10 K1+ 4 b 0 0.25 0.625 1 0 0.00851(18) 
K11 K1+ 16 f 0.6925(6) 0.8335(6) 0.7460(3) 1 0 0.00851(18) 
K12 K1+ 16 f 0.1664(5) 0.6829(5) 0.3053(3) 1 0 0.00851(18) 
K13 K1+ 16 f 0.7262(4) 0.5098(6) 0.3125(4) 1 0 0.00851(18) 
K14 K1+ 16 f 0.1057(6) 0.0470(6) 0.2530(3) 1 0 0.00851(18) 
K15 K1+ 8 e 0 0.25 -0.0032(5) 1 0 0.00851(18) 
K16 K1+ 16 f 0.0965(5) 0.0490(6) 0.1181(3) 1 0 0.00851(18) 
K17 K1+ 4 a 0 0.25 0.125 1 0 0.00851(18) 
K18 K1+ 16 f 0.0720(5) 0.9056(5) 0.9355(3) 1 0 0.00851(18) 
Al1 Al3+ 16 f 0.0528(7) 0.3981(7) 0.4373(5) 1 0 0.00851(18) 
Al2 Al3+ 16 f 0.6499(7) 0.6982(7) 0.8124(5) 1 0 0.00851(18) 
Al3 Al3+ 16 f 0.5503(7) 0.8988(8) 0.1883(4) 1 0 0.00851(18) 
Al4 Al3+ 16 f 0.2489(8) 0.4999(7) 0.0622(6) 1 0 0.00851(18) 
Al5 Al3+ 16 f 0.5506(7) 0.8985(7) 0.6871(4) 1 0 0.00851(18) 
F1 F1- 16 f 0.1127(5) 0.4214(5) 0.4770(2) 1 0 0.00851(18) 
F2 F1- 16 f -0.0116(5) 0.3755(5) 0.3976(2) 1 0 0.00851(18) 
F3 F1- 16 f 0.7371(5) 0.7385(5) 0.8125(3) 1 0 0.00851(18) 
F4 F1- 16 f 0.5611(5) 0.6537(5) 0.8098(3) 1 0 0.00851(18) 
F5 F1- 16 f 0.6378(4) 0.9372(4) 0.1859(3) 1 0 0.00851(18) 
F6 F1- 16 f 0.0173(5) 0.4879(5) 0.4380(3) 1 0 0.00851(18) 
F7 F1- 16 f 0.0944(5) 0.3152(5) 0.4306(3) 1 0 0.00851(18) 
F8 F1- 16 f 0.6008(5) 0.7777(5) 0.8129(3) 1 0 0.00851(18) 
F9 F1- 16 f 0.6941(5) 0.6131(5) 0.8110(4) 1 0 0.00851(18) 
F10 F1- 16 f 0.5066(5) 0.9828(5) 0.1849(3) 1 0 0.00851(18) 
F11 F1- 16 f 0.5531(5) 0.9016(6) 0.2402(3) 1 0 0.00851(18) 
F12 F1- 16 f -0.0104(5) 0.3721(5) 0.4750(3) 1 0 0.00851(18) 
F13 F1- 16 f 0.1163(5) 0.4249(5) 0.4006(3) 1 0 0.00851(18) 
F14 F1- 16 f 0.6516(5) 0.6948(5) 0.8650(3) 1 0 0.00851(18) 
F15 F1- 16 f 0.6530(6) 0.6906(5) 0.7583(3) 1 0 0.00851(18) 
F16 F1- 16 f 0.4666(5) 0.8509(5) 0.1886(3) 1 0 0.00851(18) 
F17 F1- 16 f 0.5986(5) 0.8124(5) 0.1850(3) 1 0 0.00851(18) 
F18 F1- 16 f 0.5523(5) 0.8928(5) 0.1336(3) 1 0 0.00851(18) 
F19 F1- 16 f 0.2807(5) 0.5914(4) 0.0644(3) 1 0 0.00851(18) 
F20 F1- 16 f 0.1589(4) 0.5310(5) 0.0617(3) 1 0 0.00851(18) 
F21 F1- 16 f 0.2616(5) 0.4912(5) 0.1162(3) 1 0 0.00851(18) 
F22 F1- 16 f 0.2226(5) 0.4066(5) 0.0692(2) 1 0 0.00851(18) 
F23 F1- 16 f 0.3428(5) 0.4690(5) 0.0584(3) 1 0 0.00851(18) 
F24 F1- 16 f 0.2501(5) 0.4906(5) 0.0086(3) 1 0 0.00851(18) 
F25 F1- 16 f 0.6270(4) 0.9508(4) 0.6895(3) 1 0 0.00851(18) 
F26 F1- 16 f 0.5014(4) 0.9836(5) 0.6883(3) 1 0 0.00851(18) 
F27 F1- 16 f 0.5572(5) 0.9074(5) 0.7420(3) 1 0 0.00851(18) 
F28 F1- 16 f 0.4692(5) 0.8529(5) 0.6967(2) 1 0 0.00851(18) 
F29 F1- 16 f 0.5951(5) 0.8166(5) 0.6858(3) 1 0 0.00851(18) 
F30 F1- 16 f 0.5335(4) 0.8973(5) 0.6369(2) 1 0 0.00851(18) 

#End of data_260574-ICSD


