data_80178-ICSD
#?2014 by Fachinformationszentrum Karlsruhe, and the U.S. Secretary of 
#Commerce on behalf of the United States.  All rights reserved.
_database_code_ICSD                80178
_audit_creation_date               1996/10/14
_audit_update_record               2010/08/01
_chemical_name_systematic
;
Potassium Seleno(IV)vanado(IV)vanadate
;
_chemical_formula_structural       'K (V2 Se O7)'
_chemical_formula_sum              'K1 O7 Se1 V2'
_publ_section_title
;
A new layered mixed-valent potassium vanadium selenite, K V2 Se O7
;
loop_
_citation_id
_citation_journal_abbrev
_citation_year
_citation_journal_volume
_citation_page_first
_citation_page_last
_citation_journal_id_ASTM
primary 'Inorganic Chemistry' 1995 34 4178 4181 INOCAJ
_publ_author_name
;
Lee, K.-S.;Kwon, Y.-U.;Namgung, H.;Kim, S.-H.
;
_cell_length_a                     17.9540(80)
_cell_length_b                     5.360(3)
_cell_length_c                     6.971(3)
_cell_angle_alpha                  90.
_cell_angle_beta                   90.
_cell_angle_gamma                  90.
_cell_volume                       670.84
_cell_formula_units_Z              4
_symmetry_space_group_name_H-M     'P n m a'
_symmetry_Int_Tables_number        62
_refine_ls_R_factor_all            .046
loop_
_symmetry_equiv_pos_site_id
_symmetry_equiv_pos_as_xyz
  1	'x+.5, y, -z+.5'
  2	'x, -y+.5, z'
  3	'-x+.5, y+.5, z+.5'
  4	'-x, -y, -z'
  5	'-x+.5, -y, z+.5'
  6	'-x, y+.5, -z'
  7	'x+.5, -y+.5, -z+.5'
  8	'x, y, z'
loop_
_atom_type_symbol
_atom_type_oxidation_number
K1+	1
O2-	-2
Se4+	4
V4+	4
V5+	5
loop_
_atom_site_label
_atom_site_type_symbol
_atom_site_symmetry_multiplicity
_atom_site_Wyckoff_symbol
_atom_site_fract_x
_atom_site_fract_y
_atom_site_fract_z
_atom_site_occupancy
_atom_site_attached_hydrogens
_atom_site_U_iso_or_equiv
Se1 Se4+ 4 c 0.1504(1) 0.25 0.0263(2) 1. 0 0.022(1) 
V1 V5+ 4 c 0.1864(1) 0.25 0.5667(3) 1. 0 0.023(1) 
V2 V4+ 4 c 0.3820(1) 0.25 0.7788(3) 1. 0 0.022(1) 
K1 K1+ 4 c 0.4633(2) 0.25 0.2611(4) 1. 0 0.031(1) 
O1 O2- 4 c 0.2746(5) 0.25 0.6294(14) 1. 0 0.041(2) 
O2 O2- 8 d 0.1653(5) 0.0015(21) 0.4405(15) 1. 0 0.089(4) 
O3 O2- 4 c 0.1313(5) 0.25 0.7827(14) 1. 0 0.062(4) 
O4 O2- 8 d 0.0948(3) 0.0106(12) 0.0798(11) 1. 0 0.044(2) 
O5 O2- 4 c 0.4639(5) 0.25 0.8707(14) 1. 0 0.052(3) 

#End of data_80178-ICSD


