data_63345-ICSD
#?2014 by Fachinformationszentrum Karlsruhe, and the U.S. Secretary of 
#Commerce on behalf of the United States.  All rights reserved.
_database_code_ICSD                63345
_audit_creation_date               1990/06/08
_chemical_name_systematic
;
Tripotassium Pentafluorodioxoneptunate(VI)
;
_chemical_formula_structural       'K3 (Np O2 F5)'
_chemical_formula_sum              'F5 K3 Np1 O2'
_publ_section_title
;
New modification of the crystal structure of K3 Np O2 F5
;
loop_
_citation_id
_citation_journal_abbrev
_citation_year
_citation_journal_volume
_citation_page_first
_citation_page_last
_citation_journal_id_ASTM
primary Radiokhimiya 1987 29 146 150 RADKAU
_publ_author_name
;
Vodovatov, V.A.;Lychev, A.A.;Mashirov, L.G.;Smolin, Yu.I.;Shepelev, 
Yu.F.
;
_cell_length_a                     8.985(6)
_cell_length_b                     8.985(6)
_cell_length_c                     17.986(8)
_cell_angle_alpha                  90.
_cell_angle_beta                   90.
_cell_angle_gamma                  90.
_cell_volume                       1452.01
_cell_formula_units_Z              8
_symmetry_space_group_name_H-M     'I 41/a m d Z'
_symmetry_Int_Tables_number        141
_refine_ls_R_factor_all            .0347
loop_
_symmetry_equiv_pos_site_id
_symmetry_equiv_pos_as_xyz
  1	'y+.25, x+.75, -z+.25'
  2	'y+.25, -x+.75, -z+.25'
  3	'x, y+.5, -z'
  4	'x, -y, -z'
  5	'-y+.75, x+.75, -z+.25'
  6	'-y+.75, -x+.75, -z+.25'
  7	'-x, y+.5, -z'
  8	'-x, -y, -z'
  9	'-y+.75, -x+.25, z+.75'
 10	'-y+.75, x+.25, z+.75'
 11	'-x, -y+.5, z'
 12	'-x, y, z'
 13	'y+.25, -x+.25, z+.75'
 14	'y+.25, x+.25, z+.75'
 15	'x, -y+.5, z'
 16	'x, y, z'
 17	'y+.75, x+.25, -z+.75'
 18	'y+.75, -x+.25, -z+.75'
 19	'x+.5, y, -z+.5'
 20	'x+.5, -y+.5, -z+.5'
 21	'-y+.25, x+.25, -z+.75'
 22	'-y+.25, -x+.25, -z+.75'
 23	'-x+.5, y, -z+.5'
 24	'-x+.5, -y+.5, -z+.5'
 25	'-y+.25, -x+.75, z+.25'
 26	'-y+.25, x+.75, z+.25'
 27	'-x+.5, -y, z+.5'
 28	'-x+.5, y+.5, z+.5'
 29	'y+.75, -x+.75, z+.25'
 30	'y+.75, x+.75, z+.25'
 31	'x+.5, -y, z+.5'
 32	'x+.5, y+.5, z+.5'
loop_
_atom_type_symbol
_atom_type_oxidation_number
F1-	-1
K1+	1
Np6+	6
O2-	-2
loop_
_atom_site_label
_atom_site_type_symbol
_atom_site_symmetry_multiplicity
_atom_site_Wyckoff_symbol
_atom_site_fract_x
_atom_site_fract_y
_atom_site_fract_z
_atom_site_occupancy
_atom_site_attached_hydrogens
Np1 Np6+ 8 e 0 0.25 0.14686(2) 1. 0 
K1 K1+ 4 a 0 0.25 0.875 1. 0 
K2 K1+ 4 b 0 0.25 0.375 1. 0 
K3 K1+ 16 f 0.2040(3) 0 0 1. 0 
F1 F1- 8 e 0 0.25 0.0198(4) 1. 0 
F2 F1- 16 h 0 0.1052(7) 0.2475(3) 1. 0 
F3 F1- 16 h 0 0.0096(9) 0.1066(4) 1. 0 
O1 O2- 16 h 0.1997(9) 0.25 0.1486(4) 1. 0 

#End of data_63345-ICSD


