data_71081-ICSD
#?2014 by Fachinformationszentrum Karlsruhe, and the U.S. Secretary of 
#Commerce on behalf of the United States.  All rights reserved.
_database_code_ICSD                71081
_audit_creation_date               1993/01/06
_audit_update_record               2011/08/01
_chemical_name_systematic          'Trisilver Thallium Telluride'
_chemical_formula_structural       'Ag3 Tl Te2'
_chemical_formula_sum              'Ag3 Te2 Tl1'
_publ_section_title
;
Inorganic structure types with revised space groups.I.
;
loop_
_citation_id
_citation_journal_abbrev
_citation_year
_citation_journal_volume
_citation_page_first
_citation_page_last
_citation_journal_id_ASTM
primary 'Acta Crystallographica, Section B: Structural Science'
 1991 47 433 439 ASBSDK
2 'Soviet Physics, Crystallography (= Kristallografiya)'
 1972 17 237 239 SPHCA6
_publ_author_name
;
Cenzual, K.;Gelato, L.M.;Penzo, M.;Parthe, E.
;
_cell_length_a                     4.6
_cell_length_b                     15.45
_cell_length_c                     4.76
_cell_angle_alpha                  90.
_cell_angle_beta                   90.
_cell_angle_gamma                  90.
_cell_volume                       338.29
_cell_formula_units_Z              2
_symmetry_space_group_name_H-M     'C m m m'
_symmetry_Int_Tables_number        65
loop_
_symmetry_equiv_pos_site_id
_symmetry_equiv_pos_as_xyz
  1	'x, -y, z'
  2	'-x, y, z'
  3	'x, y, -z'
  4	'-x, -y, -z'
  5	'-x, y, -z'
  6	'x, -y, -z'
  7	'-x, -y, z'
  8	'x, y, z'
  9	'x+.5, -y+.5, z'
 10	'-x+.5, y+.5, z'
 11	'x+.5, y+.5, -z'
 12	'-x+.5, -y+.5, -z'
 13	'-x+.5, y+.5, -z'
 14	'x+.5, -y+.5, -z'
 15	'-x+.5, -y+.5, z'
 16	'x+.5, y+.5, z'
loop_
_atom_type_symbol
_atom_type_oxidation_number
Ag1+	1
Te2-	-2
Tl1+	1
loop_
_atom_site_label
_atom_site_type_symbol
_atom_site_symmetry_multiplicity
_atom_site_Wyckoff_symbol
_atom_site_fract_x
_atom_site_fract_y
_atom_site_fract_z
_atom_site_occupancy
_atom_site_attached_hydrogens
Te1 Te2- 4 j 0 0.127 0.5 1. 0 
Ag1 Ag1+ 4 i 0 0.315 0 1. 0 
Ag2 Ag1+ 2 c 0.5 0 0.5 1. 0 
Tl1 Tl1+ 2 a 0 0 0 1. 0 

#End of data_71081-ICSD


