data_643976-ICSD
#?2014 by Fachinformationszentrum Karlsruhe, and the U.S. Secretary of 
#Commerce on behalf of the United States.  All rights reserved.
_database_code_ICSD                643976
_audit_creation_date               2012/08/01
_chemical_name_systematic
;
Sodium Molybdenum Selenide (2/15/19)
;
_chemical_formula_structural       'Na2 Mo15 Se19'
_chemical_formula_sum              'Mo15 Na2 Se19'
_publ_section_title
;
Synthesis, structural and physical properties of the binary 
molybdenum chalcogenide phase Mo15 Se19 and of the related compounds 
M2 Mo15 Se19 and M3 Mo15 Se19 (M = group IA metal; Sn, Pb; Cd)
;
loop_
_citation_id
_citation_journal_abbrev
_citation_year
_citation_journal_volume
_citation_page_first
_citation_page_last
_citation_journal_id_ASTM
primary 'Materials Research Bulletin' 1985 20 935 946 MRBUAC
_publ_author_name
;
Tarascon, J.M.;Hull, G.W.;Waszczak, J.V.
;
_cell_length_a                     9.611(2)
_cell_length_b                     9.611(2)
_cell_length_c                     58.51(3)
_cell_angle_alpha                  90.
_cell_angle_beta                   90.
_cell_angle_gamma                  120.
_cell_volume                       4680.56
_cell_formula_units_Z              6
_symmetry_space_group_name_H-M     'R -3 c H'
_symmetry_Int_Tables_number        167
loop_
_symmetry_equiv_pos_site_id
_symmetry_equiv_pos_as_xyz
  1	'x-y, -y, -z+.5'
  2	'-x, -x+y, -z+.5'
  3	'y, x, -z+.5'
  4	'x-y, x, -z'
  5	'y, -x+y, -z'
  6	'-x, -y, -z'
  7	'-x+y, y, z+.5'
  8	'x, x-y, z+.5'
  9	'-y, -x, z+.5'
 10	'-x+y, -x, z'
 11	'-y, x-y, z'
 12	'x, y, z'
 13	'x-y+.6666, -y+.3333, -z+.8333'
 14	'x-y+.3333, -y+.6666, -z+.1666'
 15	'-x+.6666, -x+y+.3333, -z+.8333'
 16	'-x+.3333, -x+y+.6666, -z+.1666'
 17	'y+.6666, x+.3333, -z+.8333'
 18	'y+.3333, x+.6666, -z+.1666'
 19	'x-y+.6666, x+.3333, -z+.3333'
 20	'x-y+.3333, x+.6666, -z+.6666'
 21	'y+.6666, -x+y+.3333, -z+.3333'
 22	'y+.3333, -x+y+.6666, -z+.6666'
 23	'-x+.6666, -y+.3333, -z+.3333'
 24	'-x+.3333, -y+.6666, -z+.6666'
 25	'-x+y+.6666, y+.3333, z+.8333'
 26	'-x+y+.3333, y+.6666, z+.1666'
 27	'x+.6666, x-y+.3333, z+.8333'
 28	'x+.3333, x-y+.6666, z+.1666'
 29	'-y+.6666, -x+.3333, z+.8333'
 30	'-y+.3333, -x+.6666, z+.1666'
 31	'-x+y+.6666, -x+.3333, z+.3333'
 32	'-x+y+.3333, -x+.6666, z+.6666'
 33	'-y+.6666, x-y+.3333, z+.3333'
 34	'-y+.3333, x-y+.6666, z+.6666'
 35	'x+.6666, y+.3333, z+.3333'
 36	'x+.3333, y+.6666, z+.6666'
loop_
_atom_type_symbol
_atom_type_oxidation_number
Mo2.4+	2.4
Na1+	1
Se2-	-2
loop_
_atom_site_label
_atom_site_type_symbol
_atom_site_symmetry_multiplicity
_atom_site_Wyckoff_symbol
_atom_site_fract_x
_atom_site_fract_y
_atom_site_fract_z
_atom_site_occupancy
_atom_site_attached_hydrogens
Na1 Na1+ 12 c 0 0 0.114 1. 0 
Mo1 Mo2.4+ 36 f 0.169 0.149 0.020 1. 0 
Mo2 Mo2.4+ 36 f 0.153 0.165 0.211 1. 0 
Mo3 Mo2.4+ 18 e 0.160 0 0.25 1. 0 
Se1 Se2- 36 f 0.040 0.327 0.017 1. 0 
Se2 Se2- 36 f 0.324 0.030 0.214 1. 0 
Se3 Se2- 18 e 0.690 0 0.25 1. 0 
Se4 Se2- 12 c 0 0 0.055 1. 0 
Se5 Se2- 12 c 0 0 0.176 1. 0 

#End of data_643976-ICSD


