data_415548-ICSD
#?2014 by Fachinformationszentrum Karlsruhe, and the U.S. Secretary of 
#Commerce on behalf of the United States.  All rights reserved.
_database_code_ICSD                415548
_audit_creation_date               2006/10/01
_chemical_name_systematic
;
Lithium Tetrametaphosphimate Tetrahydrate
;
_chemical_formula_structural       'Li4 (P O2 N H)4 (H2 O)4'
_chemical_formula_sum              'H12 Li4 N4 O12 P4'
_publ_section_title
;
Synthesis, crystal structure and properties of lithium 
tetrametaphosphimate tetrahydrate Li4 (P O2 N H)4 . 4 H2 O
;
loop_
_citation_id
_citation_journal_abbrev
_citation_year
_citation_journal_volume
_citation_journal_issue
_citation_page_first
_citation_page_last
_citation_journal_id_ASTM
primary 'Zeitschrift fuer Anorganische und Allgemeine Chemie (1950) (DE)'
 2006 632 1 59 63 ZAACAB
_publ_author_name                  'Roemer, S.R.;Schnick, W.'
_cell_length_a                     4.8924(10)
_cell_length_b                     8.5318(17)
_cell_length_c                     8.8048(18)
_cell_angle_alpha                  101.71(3)
_cell_angle_beta                   102.39(3)
_cell_angle_gamma                  94.88(3)
_cell_volume                       348.3
_cell_formula_units_Z              1
_symmetry_space_group_name_H-M     'P -1'
_symmetry_Int_Tables_number        2
_refine_ls_R_factor_all            .0796
loop_
_symmetry_equiv_pos_site_id
_symmetry_equiv_pos_as_xyz
  1	'-x, -y, -z'
  2	'x, y, z'
loop_
_atom_type_symbol
_atom_type_oxidation_number
H1+	1
Li1+	1
N3-	-3
O2-	-2
P5+	5
loop_
_atom_site_label
_atom_site_type_symbol
_atom_site_symmetry_multiplicity
_atom_site_Wyckoff_symbol
_atom_site_fract_x
_atom_site_fract_y
_atom_site_fract_z
_atom_site_occupancy
_atom_site_attached_hydrogens
_atom_site_U_iso_or_equiv
P1 P5+ 2 i 0.10387(12) 0.22629(6) 0.49535(7) 1 0 0.00906(12) 
P2 P5+ 2 i 0.02823(12) 0.07334(7) 0.77151(7) 1 0 0.00956(12) 
N1 N3- 2 i 0.1756(4) 0.0889(2) 0.3506(2) 1 0 0.0135(4) 
N2 N3- 2 i 0.2047(4) 0.1662(2) 0.6656(2) 1 0 0.0130(3) 
O1 O2- 2 i 0.2889(3) 0.38151(18) 0.5118(2) 1 0 0.0145(3) 
O2 O2- 2 i 0.7908(3) 0.23100(19) 0.4608(2) 1 0 0.0135(3) 
O3 O2- 2 i 0.1740(4) 0.82281(19) 0.1632(2) 1 0 0.0149(3) 
O4 O2- 2 i 0.2559(3) 0.0274(2) 0.8912(2) 1 0 0.0156(3) 
O5 O2- 2 i 0.1690(5) 0.5127(2) 0.1933(2) 1 0 0.0241(4) 
O6 O2- 2 i 0.6320(5) 0.3306(3) 0.1610(3) 1 0 0.0249(4) 
Li1 Li1+ 2 i 0.3623(9) 0.8637(5) 0.0006(5) 1 0 0.0173(8) 
Li2 Li1+ 2 i 0.3087(9) 0.5681(5) 0.4258(5) 1 0 0.0174(8) 
H1 H1+ 2 i 0.380(8) 0.174(4) 0.699(4) 1 0 0.033(10) 
H2 H1+ 2 i 0.332(8) 0.099(5) 0.352(5) 1 0 0.044(11) 
H3 H1+ 2 i 0.021(8) 0.465(5) 0.177(5) 1 0 0.039(11) 
H4 H1+ 2 i 0.156(8) 0.610(5) 0.172(5) 1 0 0.050(12) 
H5 H1+ 2 i 0.671(10) 0.298(6) 0.236(6) 1 0 0.062(15) 
H6 H1+ 2 i 0.512(10) 0.377(6) 0.149(6) 1 0 0.066(16) 

loop_
_atom_site_aniso_label
_atom_site_aniso_type_symbol
_atom_site_aniso_U_11
_atom_site_aniso_U_22
_atom_site_aniso_U_33
_atom_site_aniso_U_12
_atom_site_aniso_U_13
_atom_site_aniso_U_23
P1 P5+ 0.0080(2) 0.0081(2) 0.0112(2) 0.00021(18) 0.00190(19) 0.00324(18)
P2 P5+ 0.0100(2) 0.0093(2) 0.0101(2) 0.00118(18) 0.0028(2) 0.00345(19)
N1 N3- 0.0085(8) 0.0136(8) 0.0168(9) -0.0004(6) 0.0045(7) -0.0013(7)
N2 N3- 0.0076(8) 0.0190(9) 0.0139(8) 0.0002(7) 0.0018(7) 0.0086(7)
O1 O2- 0.0142(7) 0.0091(7) 0.0205(8) -0.0004(5) 0.0036(6) 0.0053(6)
O2 O2- 0.0082(7) 0.0146(7) 0.0179(8) 0.0033(5) 0.0029(6) 0.0035(6)
O3 O2- 0.0159(8) 0.0130(7) 0.0189(8) 0.0041(6) 0.0091(6) 0.0048(6)
O4 O2- 0.0139(8) 0.0186(8) 0.0142(7) 0.0010(6) -0.0011(6) 0.0089(6)
O5 O2- 0.0278(11) 0.0169(9) 0.0254(10) 0.0022(8) 0.0016(8) 0.0053(7)
O6 O2- 0.0300(11) 0.0228(10) 0.0207(10) 0.0085(8) 0.0048(8) 0.0015(8)
Li1 Li1+ 0.019(2) 0.0183(19) 0.0150(19) 0.0009(15) 0.0025(16) 0.0069(15)
Li2 Li1+ 0.019(2) 0.0126(18) 0.021(2) 0.0030(15) 0.0050(17) 0.0042(15)
#End of data_415548-ICSD


