data_109600-ICSD
#?2014 by Fachinformationszentrum Karlsruhe, and the U.S. Secretary of 
#Commerce on behalf of the United States.  All rights reserved.
_database_code_ICSD                109600
_audit_creation_date               2008/02/01
_chemical_name_systematic          'Disilver Oxalate'
_chemical_formula_structural       'Ag2 (C2 O4)'
_chemical_formula_sum              'C2 Ag2 O4'
_publ_section_title                'Crystal structure of Ag2 C2 O4'
loop_
_citation_id
_citation_journal_abbrev
_citation_year
_citation_journal_volume
_citation_page_first
_citation_page_last
_citation_journal_id_ASTM
primary 'Journal of Chemical Physics' 1943 11 499 505 JCPSA6
2 'National Bureau of Standards (U.S.), Monograph' 1971 9 47 47 NBSMA6
_publ_author_name                  'Griffith, R.L.'
_cell_length_a                     3.46(2)
_cell_length_b                     6.16(2)
_cell_length_c                     9.47(4)
_cell_angle_alpha                  90
_cell_angle_beta                   76.0(1)
_cell_angle_gamma                  90
_cell_volume                       195.84
_cell_formula_units_Z              2
_symmetry_space_group_name_H-M     'P 1 21/c 1'
_symmetry_Int_Tables_number        14
loop_
_symmetry_equiv_pos_site_id
_symmetry_equiv_pos_as_xyz
  1	'x, -y+.5, z+.5'
  2	'-x, -y, -z'
  3	'-x, y+.5, -z+.5'
  4	'x, y, z'
loop_
_atom_type_symbol
_atom_type_oxidation_number
Ag1+	1
C3+	3
O2-	-2
loop_
_atom_site_label
_atom_site_type_symbol
_atom_site_symmetry_multiplicity
_atom_site_Wyckoff_symbol
_atom_site_fract_x
_atom_site_fract_y
_atom_site_fract_z
_atom_site_occupancy
_atom_site_attached_hydrogens
C1 C3+ 4 e 1.07000 0.88500 0.01200 1. 0 
O1 O2- 4 e 0.83700 0.78400 0.11000 1. 0 
O2 O2- 4 e 1.16300 0.81300 -0.10000 1. 0 
Ag1 Ag1+ 4 e 0.85500 0.50500 -0.15600 1. 0 

#End of data_109600-ICSD


