data_421266-ICSD
#?2014 by Fachinformationszentrum Karlsruhe, and the U.S. Secretary of 
#Commerce on behalf of the United States.  All rights reserved.
_database_code_ICSD                421266
_audit_creation_date               2012/08/01
_chemical_name_systematic          'Dicalcium Heptaoxovanadate'
_chemical_formula_structural       'Ca2 (V2 O7)'
_chemical_formula_sum              'Ca2 O7 V2'
_publ_section_title
;
Synthesis, structure and theoretical investigations of an alkaline 
earth vanadate oxide compound (Ca4 V4 O14): electronic, optical and 
chemical bond properties
;
loop_
_citation_id
_citation_journal_abbrev
_citation_year
_citation_journal_volume
_citation_page_first
_citation_page_last
_citation_journal_id_ASTM
primary 'Australian Journal of Chemistry' 2011 64 973 977 AJCHAS
_publ_author_name
;
Tong, Yi Ping;Luo, Guo Tian;Jin, Zhen;Lin,Yan Wen
;
_cell_length_a                     6.6699(6)
_cell_length_b                     6.9197(6)
_cell_length_c                     7.0157(6)
_cell_angle_alpha                  86.3870(10)
_cell_angle_beta                   63.8420(10)
_cell_angle_gamma                  83.6690(10)
_cell_volume                       288.83
_cell_formula_units_Z              2
_symmetry_space_group_name_H-M     'P -1'
_symmetry_Int_Tables_number        2
_refine_ls_R_factor_all            .0223
loop_
_symmetry_equiv_pos_site_id
_symmetry_equiv_pos_as_xyz
  1	'-x, -y, -z'
  2	'x, y, z'
loop_
_atom_type_symbol
_atom_type_oxidation_number
Ca2+	2
O2-	-2
V5+	5
loop_
_atom_site_label
_atom_site_type_symbol
_atom_site_symmetry_multiplicity
_atom_site_Wyckoff_symbol
_atom_site_fract_x
_atom_site_fract_y
_atom_site_fract_z
_atom_site_occupancy
_atom_site_attached_hydrogens
_atom_site_U_iso_or_equiv
Ca1 Ca2+ 2 i 0.74419(14) 0.34153(12) 0.82535(13) 1 0 0.0092(3) 
Ca2 Ca2+ 2 i 0.72966(14) 0.93732(12) 1.23479(13) 1 0 0.0124(3) 
V1 V5+ 2 i 0.72462(11) 0.44585(9) 0.34536(10) 1 0 0.0074(3) 
V2 V5+ 2 i 0.80375(11) 0.83509(9) 0.73214(10) 1 0 0.0062(3) 
O1 O2- 2 i 1.0461(5) 0.6988(4) 0.5623(4) 1 0 0.0104(6) 
O2 O2- 2 i 0.5361(5) 0.3997(4) 0.6304(4) 1 0 0.0121(7) 
O3 O2- 2 i 0.6590(5) 0.9461(4) 0.6025(4) 1 0 0.0121(7) 
O4 O2- 2 i 0.6405(5) 0.6849(4) 0.9238(5) 1 0 0.0130(7) 
O5 O2- 2 i 0.8683(5) 1.0087(4) 0.8578(5) 1 0 0.0110(7) 
O6 O2- 2 i 0.7496(5) 0.2822(4) 0.1730(4) 1 0 0.0105(6) 
O7 O2- 2 i 0.8930(5) 0.6233(4) 0.2320(5) 1 0 0.0122(7) 

loop_
_atom_site_aniso_label
_atom_site_aniso_type_symbol
_atom_site_aniso_U_11
_atom_site_aniso_U_22
_atom_site_aniso_U_33
_atom_site_aniso_U_12
_atom_site_aniso_U_13
_atom_site_aniso_U_23
Ca1 Ca2+ 0.0078(5) 0.0112(5) 0.0085(5) 0.0008(3) -0.0041(4) 0.0010(3)
Ca2 Ca2+ 0.0105(5) 0.0134(5) 0.0107(5) 0.0027(4) -0.0035(4) 0.0023(3)
V1 V5+ 0.0070(4) 0.0088(4) 0.0057(4) -0.0010(3) -0.0019(3) -0.0004(3)
V2 V5+ 0.0060(4) 0.0067(4) 0.0055(4) 0.0001(3) -0.0023(3) 0.0002(3)
O1 O2- 0.0081(15) 0.0144(14) 0.0086(15) 0.0040(12) -0.0045(12) -0.0020(11)
O2 O2- 0.0085(15) 0.0192(16) 0.0069(15) 0.0041(12) -0.0031(12) 0.0008(11)
O3 O2- 0.0105(15) 0.0149(15) 0.0092(15) 0.0022(12) -0.0037(12) 0.0003(12)
O4 O2- 0.0087(15) 0.0145(15) 0.0121(15) -0.0024(12) -0.0016(12) 0.0055(12)
O5 O2- 0.0139(16) 0.0089(14) 0.0110(14) -0.0012(12) -0.0061(12) -0.0007(11)
O6 O2- 0.0127(16) 0.0105(14) 0.0088(14) -0.0030(12) -0.0051(12) 0.0017(11)
O7 O2- 0.0108(15) 0.0102(14) 0.0158(16) -0.0025(12) -0.0062(12) 0.0029(12)
#End of data_421266-ICSD


