data_426362-ICSD
#?2014 by Fachinformationszentrum Karlsruhe, and the U.S. Secretary of 
#Commerce on behalf of the United States.  All rights reserved.
_database_code_ICSD                426362
_audit_creation_date               2014/02/01
_chemical_name_systematic
;
Dipotassium Disulfate Dihydrogensulfate
;
_chemical_formula_structural       'K2 (S2 O7) (H2 S O4)'
_chemical_formula_sum              'H2 K2 O11 S3'
_publ_section_title
;
Reaction with S O3 in Ionic Liquids: The Example of K2 (S2 O7) (H2 S 
O4)
;
loop_
_citation_id
_citation_journal_abbrev
_citation_year
_citation_journal_volume
_citation_journal_issue
_citation_page_first
_citation_page_last
_citation_journal_id_ASTM
primary 'Zeitschrift fuer Anorganische und Allgemeine Chemie (1950) (DE)'
 2014 640 1 27 30 ZAACAB
_publ_author_name
;
Weiz, Alexander;Bruns, Joern;Wickleder, Mathias S.
;
_cell_length_a                     8.1064(2)
_cell_length_b                     10.4790(2)
_cell_length_c                     23.2886(6)
_cell_angle_alpha                  90.00
_cell_angle_beta                   90.00
_cell_angle_gamma                  90.00
_cell_volume                       1978.29
_cell_formula_units_Z              8
_symmetry_space_group_name_H-M     'P b c a'
_symmetry_Int_Tables_number        61
_refine_ls_R_factor_all            .0223
loop_
_symmetry_equiv_pos_site_id
_symmetry_equiv_pos_as_xyz
  1	'x+.5, y, -z+.5'
  2	'x, -y+.5, z+.5'
  3	'-x+.5, y+.5, z'
  4	'-x, -y, -z'
  5	'-x+.5, -y, z+.5'
  6	'-x, y+.5, -z+.5'
  7	'x+.5, -y+.5, -z'
  8	'x, y, z'
loop_
_atom_type_symbol
_atom_type_oxidation_number
H1+	1
K1+	1
O2-	-2
S6+	6
loop_
_atom_site_label
_atom_site_type_symbol
_atom_site_symmetry_multiplicity
_atom_site_Wyckoff_symbol
_atom_site_fract_x
_atom_site_fract_y
_atom_site_fract_z
_atom_site_occupancy
_atom_site_attached_hydrogens
_atom_site_U_iso_or_equiv
S1 S6+ 8 c 0.97579(4) 0.24128(3) 0.954094(13) 1 0 0.00894(6) 
O1 O2- 8 c 0.97244(12) 0.35733(8) 0.98641(4) 1 0 0.01312(18) 
O2 O2- 8 c 0.88981(13) 0.23987(9) 0.90054(4) 1 0 0.01569(19) 
O3 O2- 8 c 0.90023(13) 0.13017(8) 0.98902(5) 1 0 0.0149(2) 
H1 H1+ 8 c 0.922(2) 0.1429(17) 1.0218(9) 1 0 0.031(5) 
O4 O2- 8 c 1.15689(13) 0.20787(10) 0.94672(5) 1 0 0.0209(2) 
H2 H1+ 8 c 1.172(3) 0.151(2) 0.9277(9) 1 0 0.042(6) 
K1 K1+ 8 c 0.87723(3) 0.55479(2) 0.912468(12) 1 0 0.01155(5) 
S2 S6+ 8 c 0.52919(4) 0.35224(3) 0.850186(13) 1 0 0.00800(6) 
K2 K1+ 8 c 0.91661(3) 0.20662(2) 0.783648(12) 1 0 0.01030(5) 
O5 O2- 8 c 0.34697(11) 0.36732(8) 0.82053(4) 1 0 0.01018(17) 
O6 O2- 8 c 0.49793(13) 0.31038(9) 0.90834(4) 1 0 0.0180(2) 
O7 O2- 8 c 0.59707(12) 0.25169(8) 0.81523(4) 1 0 0.01384(18) 
O8 O2- 8 c 0.60849(13) 0.47400(8) 0.84594(5) 1 0 0.0183(2) 
S3 S6+ 8 c 0.22550(4) 0.48955(3) 0.831404(14) 1 0 0.00912(6) 
O9 O2- 8 c 0.28958(12) 0.59106(8) 0.79657(4) 1 0 0.01448(19) 
O10 O2- 8 c 0.06849(11) 0.43985(9) 0.81402(4) 1 0 0.0157(2) 
O11 O2- 8 c 0.23499(12) 0.51441(8) 0.89310(4) 1 0 0.01412(18) 

loop_
_atom_site_aniso_label
_atom_site_aniso_type_symbol
_atom_site_aniso_U_11
_atom_site_aniso_U_22
_atom_site_aniso_U_33
_atom_site_aniso_U_12
_atom_site_aniso_U_13
_atom_site_aniso_U_23
S1 S6+ 0.00947(13) 0.00926(11) 0.00808(13) 0.00002(10) -0.00068(11) 
-0.00110(10)
O1 O2- 0.0189(5) 0.0083(3) 0.0121(4) 0.0002(3) -0.0003(4) -0.0020(3)
O2 O2- 0.0182(5) 0.0206(4) 0.0083(4) -0.0019(4) -0.0035(4) 0.0008(3)
O3 O2- 0.0251(6) 0.0100(4) 0.0097(5) -0.0037(4) -0.0009(4) 0.0006(3)
O4 O2- 0.0087(5) 0.0213(5) 0.0329(7) 0.0010(4) -0.0006(4) -0.0142(5)
K1 K1+ 0.01032(12) 0.01156(10) 0.01277(13) 0.00050(9) -0.00095(10) 
-0.00012(9)
S2 S6+ 0.00870(13) 0.00831(11) 0.00701(13) 0.00083(10) -0.00074(10) 
-0.00032(10)
K2 K1+ 0.00910(11) 0.01296(10) 0.00884(12) 0.00010(9) 0.00053(9) 0.00083(9)
O5 O2- 0.0080(4) 0.0092(3) 0.0133(4) 0.0024(3) -0.0022(3) -0.0025(3)
O6 O2- 0.0210(5) 0.0243(5) 0.0086(4) 0.0092(4) 0.0026(4) 0.0047(4)
O7 O2- 0.0112(4) 0.0169(4) 0.0134(5) 0.0053(3) -0.0018(4) -0.0064(3)
O8 O2- 0.0155(5) 0.0116(4) 0.0277(6) -0.0048(3) -0.0088(4) 0.0034(4)
S3 S6+ 0.00692(12) 0.00784(11) 0.01261(14) 0.00028(10) 0.00068(11) 
-0.00043(10)
O9 O2- 0.0126(4) 0.0119(4) 0.0189(5) 0.0005(3) 0.0009(4) 0.0067(3)
O10 O2- 0.0073(4) 0.0150(4) 0.0247(6) -0.0012(3) -0.0022(4) -0.0027(4)
O11 O2- 0.0148(5) 0.0141(4) 0.0134(5) 0.0000(3) 0.0031(4) -0.0040(3)
#End of data_426362-ICSD


