data_27347-ICSD
#?2014 by Fachinformationszentrum Karlsruhe, and the U.S. Secretary of 
#Commerce on behalf of the United States.  All rights reserved.
_database_code_ICSD                27347
_audit_creation_date               1980/01/01
_audit_update_record               2006/04/01
_chemical_name_systematic          'Trisodium Hexafluorovanadate(III)'
_chemical_formula_structural       'Na3 (V F6)'
_chemical_formula_sum              'F6 Na3 V1'
_publ_section_title
;
Cs2 M V F6 und Rb2 M V F6 (M = Tl, K und Na); mit einer Bemerkung 
ueber Na3 V F6
;
loop_
_citation_id
_citation_journal_abbrev
_citation_year
_citation_journal_volume
_citation_page_first
_citation_page_last
_citation_journal_id_ASTM
primary 'Zeitschrift fuer Anorganische und Allgemeine Chemie (1950) (DE)'
 1975 412 110 120 ZAACAB
2 'Phase Transition' 1992 38 127 220 PHTRDP
_publ_author_name                  'Alter, E.;Hoppe, R.'
_cell_length_a                     5.513
_cell_length_b                     5.721
_cell_length_c                     7.963
_cell_angle_alpha                  90.
_cell_angle_beta                   90.47
_cell_angle_gamma                  90.
_cell_volume                       251.14
_cell_formula_units_Z              2
_symmetry_space_group_name_H-M     'P 1 21/n 1'
_symmetry_Int_Tables_number        14
loop_
_symmetry_equiv_pos_site_id
_symmetry_equiv_pos_as_xyz
  1	'-x+.5, y+.5, -z+.5'
  2	'-x, -y, -z'
  3	'x+.5, -y+.5, z+.5'
  4	'x, y, z'
loop_
_atom_type_symbol
_atom_type_oxidation_number
F1-	-1
Na1+	1
V3+	3
loop_
_atom_site_label
_atom_site_type_symbol
_atom_site_symmetry_multiplicity
_atom_site_Wyckoff_symbol
_atom_site_fract_x
_atom_site_fract_y
_atom_site_fract_z
_atom_site_occupancy
_atom_site_attached_hydrogens
V1 V3+ 2 a 0 0 0 1. 0 
Na1 Na1+ 2 b 0 0 0.5 1. 0 
Na2 Na1+ 4 e 0.5 -.055 0.24 1. 0 
F1 F1- 4 e 0.065 0.06 0.22 1. 0 
F2 F1- 4 e -.29 0.16 0.03 1. 0 
F3 F1- 4 e 0.15 0.28 -.06 1. 0 

#End of data_27347-ICSD


