data_50080-ICSD
#?2014 by Fachinformationszentrum Karlsruhe, and the U.S. Secretary of 
#Commerce on behalf of the United States.  All rights reserved.
_database_code_ICSD                50080
_audit_creation_date               1999/01/19
_chemical_name_systematic          'Magnesium Silicate'
_chemical_formula_structural       'Mg2 (Si O4)'
_chemical_formula_sum              'Mg2 O4 Si1'
_chemical_name_mineral             Forsterite
_publ_section_title
;
Rietveld refinement study of the cation distribution in (Co, Mg)-
olivine solid solution
;
loop_
_citation_id
_citation_journal_abbrev
_citation_year
_citation_journal_volume
_citation_page_first
_citation_page_last
_citation_journal_id_ASTM
primary 'Physics and Chemistry of Minerals' 1997 24 17 23 PCMIDU
_publ_author_name
;
Mueller-Sommer, M.;Hock, R.;Kirfel, A.
;
_cell_length_a                     4.7536(1)
_cell_length_b                     10.2066(2)
_cell_length_c                     5.9845(2)
_cell_angle_alpha                  90.
_cell_angle_beta                   90.
_cell_angle_gamma                  90.
_cell_volume                       290.36
_cell_formula_units_Z              4
_symmetry_space_group_name_H-M     'P b n m'
_symmetry_Int_Tables_number        62
_refine_ls_R_factor_all            .0323
loop_
_symmetry_equiv_pos_site_id
_symmetry_equiv_pos_as_xyz
  1	'-x+.5, y+.5, z'
  2	'x, y, -z+.5'
  3	'x+.5, -y+.5, z+.5'
  4	'-x, -y, -z'
  5	'x+.5, -y+.5, -z'
  6	'-x, -y, z+.5'
  7	'-x+.5, y+.5, -z+.5'
  8	'x, y, z'
loop_
_atom_type_symbol
_atom_type_oxidation_number
Mg2+	2
O2-	-2
Si4+	4
loop_
_atom_site_label
_atom_site_type_symbol
_atom_site_symmetry_multiplicity
_atom_site_Wyckoff_symbol
_atom_site_fract_x
_atom_site_fract_y
_atom_site_fract_z
_atom_site_occupancy
_atom_site_attached_hydrogens
_atom_site_B_iso_or_equiv
Mg1 Mg2+ 4 a 0 0 0 1. 0 0.52 
Mg2 Mg2+ 4 c 0.9921(4) 0.2776(1) 0.25 1. 0 0.41 
Si1 Si4+ 4 c 0.4266(3) 0.0934(1) 0.25 1. 0 0.34 
O1 O2- 4 c 0.7612(5) 0.0932(3) 0.25 1. 0 0.47 
O2 O2- 4 c 0.2177(5) 0.4509(3) 0.25 1. 0 0.47 
O3 O2- 8 d 0.2800(4) 0.1627(2) 0.0376(3) 1. 0 0.51 

#End of data_50080-ICSD


