data_92616-ICSD
#?2014 by Fachinformationszentrum Karlsruhe, and the U.S. Secretary of 
#Commerce on behalf of the United States.  All rights reserved.
_database_code_ICSD                92616
_audit_creation_date               2003/04/01
_chemical_name_systematic          'Rubidium Tetrazinc Tris(borate)'
_chemical_formula_structural       'Rb Zn4 (B O3)3'
_chemical_formula_sum              'B3 O9 Rb1 Zn4'
_publ_section_title
;
Framework alkali metal zinc orthoborates: A Zn4 (B O3)3 (A = K, Rb, 
Cs)
;
loop_
_citation_id
_citation_journal_abbrev
_citation_year
_citation_journal_volume
_citation_journal_issue
_citation_page_first
_citation_page_last
_citation_journal_id_ASTM
primary 'Inorganic Chemistry' 1992 31 22 4679 4682 INOCAJ
_publ_author_name
;
Smith, R.W.;Luce, J.L.;Keszler, D.A.
;
_cell_length_a                     6.849(2)
_cell_length_b                     5.000(2)
_cell_length_c                     12.718(2)
_cell_angle_alpha                  90
_cell_angle_beta                   92.53(2)
_cell_angle_gamma                  90
_cell_volume                       435.1
_cell_formula_units_Z              2
_symmetry_space_group_name_H-M     'P 1 2/c 1'
_symmetry_Int_Tables_number        13
_refine_ls_R_factor_all            .028
loop_
_symmetry_equiv_pos_site_id
_symmetry_equiv_pos_as_xyz
  1	'x, -y, z+.5'
  2	'-x, -y, -z'
  3	'-x, y, -z+.5'
  4	'x, y, z'
loop_
_atom_type_symbol
_atom_type_oxidation_number
B3+	3
O2-	-2
Rb1+	1
Zn2+	2
loop_
_atom_site_label
_atom_site_type_symbol
_atom_site_symmetry_multiplicity
_atom_site_Wyckoff_symbol
_atom_site_fract_x
_atom_site_fract_y
_atom_site_fract_z
_atom_site_occupancy
_atom_site_attached_hydrogens
_atom_site_B_iso_or_equiv
Rb1 Rb1+ 2 e 0 0.7253(2) 0.250 1. 0 1.93(4) 
Zn1 Zn2+ 4 g 0.4879(1) 0.6513(1) 0.12507(6) 1. 0 0.89(3) 
Zn2 Zn2+ 4 g 0.2089(1) 0.1666(1) 0.06101(6) 1. 0 0.94(3) 
B1 B3+ 2 f 0.5 0.156(2) 0.250 1. 0 0.9(4) 
B2 B3+ 4 g 0.192(1) 0.346(1) 0.4539(6) 1. 0 1.0(3) 
O1 O2- 2 f 0.5 0.878(1) 0.250 1. 0 1.2(2) 
O2 O2- 4 g 0.2758(7) 0.7977(9) 0.0383(4) 1. 0 1.4(2) 
O3 O2- 4 g 0.4060(7) 0.2945(9) 0.1694(4) 1. 0 1.2(2) 
O4 O2- 4 g 0.2627(6) 0.6027(8) 0.4387(3) 1. 0 1.0(2) 
O5 O2- 4 g 0.0466(7) 0.242(1) 0.3920(4) 1. 0 1.3(2) 

#End of data_92616-ICSD


