data_16926-ICSD
#?2014 by Fachinformationszentrum Karlsruhe, and the U.S. Secretary of 
#Commerce on behalf of the United States.  All rights reserved.
_database_code_ICSD                16926
_audit_creation_date               1980/01/01
_audit_update_record               2011/02/01
_chemical_name_systematic          'Pentalithium Gallium Oxide - Alpha'
_chemical_formula_structural       'Li5 Ga O4'
_chemical_formula_sum              'Ga1 Li5 O4'
_publ_section_title
;
Ueber 'Kationen-reiche' Oxide. Zur Kenntnis von Li5 Ga O4 und Li5 Al 
O4
;
loop_
_citation_id
_citation_journal_abbrev
_citation_year
_citation_journal_volume
_citation_page_first
_citation_page_last
_citation_journal_id_ASTM
primary Naturwissenschaften 1968 55 297 297 NATWAY
_publ_author_name                  'Stewner, F.;Hoppe, R.'
_cell_length_a                     9.173
_cell_length_b                     9.094
_cell_length_c                     9.202
_cell_angle_alpha                  90.
_cell_angle_beta                   90.
_cell_angle_gamma                  90.
_cell_volume                       767.62
_cell_formula_units_Z              8
_symmetry_space_group_name_H-M     'P b c a'
_symmetry_Int_Tables_number        61
_refine_ls_R_factor_all            .106
loop_
_symmetry_equiv_pos_site_id
_symmetry_equiv_pos_as_xyz
  1	'x+.5, y, -z+.5'
  2	'x, -y+.5, z+.5'
  3	'-x+.5, y+.5, z'
  4	'-x, -y, -z'
  5	'-x+.5, -y, z+.5'
  6	'-x, y+.5, -z+.5'
  7	'x+.5, -y+.5, -z'
  8	'x, y, z'
loop_
_atom_type_symbol
_atom_type_oxidation_number
Ga3+	3
Li1+	1
O2-	-2
loop_
_atom_site_label
_atom_site_type_symbol
_atom_site_symmetry_multiplicity
_atom_site_Wyckoff_symbol
_atom_site_fract_x
_atom_site_fract_y
_atom_site_fract_z
_atom_site_occupancy
_atom_site_attached_hydrogens
_atom_site_B_iso_or_equiv
Ga1 Ga3+ 8 c 0.1450(6) 0.1170(3) 0.1185(3) 1. 0 0.061 
O1 O2- 8 c 0.250(4) -.011(2) 0.005(2) 1. 0 0.26 
O2 O2- 8 c 0.040(3) 0.002(2) 0.242(2) 1. 0 0.3 
O3 O2- 8 c 0.012(4) 0.242(2) 0.036(2) 1. 0 0.22 
O4 O2- 8 c 0.246(4) 0.236(2) 0.243(5) 1. 0 0.83 
Li1 Li1+ 8 c 0.40(1) 0.16(1) 0.61(1) 1. 0 1.4 
Li2 Li1+ 8 c 0.36(1) 0.13(1) 0.88(1) 1. 0 1.6 
Li3 Li1+ 8 c 0.09(1) 0.16(1) 0.41(1) 1. 0 1.3 
Li4 Li1+ 8 c 0.34(1) 0.09(1) 0.35(1) 1. 0 1.5 
Li5 Li1+ 8 c 0.14(1) 0.08(1) 0.66(1) 1. 0 0.6 

#End of data_16926-ICSD


