data_88097-ICSD
#?2014 by Fachinformationszentrum Karlsruhe, and the U.S. Secretary of 
#Commerce on behalf of the United States.  All rights reserved.
_database_code_ICSD                88097
_audit_creation_date               2001/07/16
_chemical_name_systematic          'Disodium Uranium Sulfide'
_chemical_formula_structural       'Na2 U S3'
_chemical_formula_sum              'Na2 S3 U1'
_publ_section_title
;
Synthesis and crystal structure of alkali metal uranium sulfides, Li2 
U S3 and Na2 U S3
;
loop_
_citation_id
_citation_journal_abbrev
_citation_year
_citation_journal_volume
_citation_page_first
_citation_page_last
_citation_journal_id_ASTM
primary 'Journal of Alloys and Compounds' 1999 284 117 123 JALCEU
_publ_author_name
;
Masuda, H.;Fujino, T.;Sato, N.;Yamada, K.;Wakeshima, M.
;
_cell_length_a                     6.99
_cell_length_b                     12.105
_cell_length_c                     6.992
_cell_angle_alpha                  90.
_cell_angle_beta                   109.5
_cell_angle_gamma                  90.
_cell_volume                       557.69
_cell_formula_units_Z              4
_symmetry_space_group_name_H-M     'C 1 2/m 1'
_symmetry_Int_Tables_number        12
_refine_ls_R_factor_all            .099
loop_
_symmetry_equiv_pos_site_id
_symmetry_equiv_pos_as_xyz
  1	'-x, y, -z'
  2	'-x, -y, -z'
  3	'x, -y, z'
  4	'x, y, z'
  5	'-x+.5, y+.5, -z'
  6	'-x+.5, -y+.5, -z'
  7	'x+.5, -y+.5, z'
  8	'x+.5, y+.5, z'
loop_
_atom_type_symbol
_atom_type_oxidation_number
Na1+	1
S2-	-2
U4+	4
loop_
_atom_site_label
_atom_site_type_symbol
_atom_site_symmetry_multiplicity
_atom_site_Wyckoff_symbol
_atom_site_fract_x
_atom_site_fract_y
_atom_site_fract_z
_atom_site_occupancy
_atom_site_attached_hydrogens
_atom_site_B_iso_or_equiv
Na1 Na1+ 2 a 0 0 0 1. 0 0.4 
Na2 Na1+ 2 d 0 0.5 0.5 1. 0 0.4 
Na3 Na1+ 4 h 0 0.1667 0.5 1. 0 0.4 
U1 U4+ 4 g 0 0.333 0 1. 0 0.46 
S1 S2- 4 i 0.25 0 0.75 1. 0 0.56 
S2 S2- 8 j 0.25 0.166 0.25 1. 0 0.56 

#End of data_88097-ICSD


