data_39730-ICSD
#?2014 by Fachinformationszentrum Karlsruhe, and the U.S. Secretary of 
#Commerce on behalf of the United States.  All rights reserved.
_database_code_ICSD                39730
_audit_creation_date               1994/06/30
_chemical_name_systematic          'Calcium Cobalt Divanadate'
_chemical_formula_structural       'Ca Co V2 O7'
_chemical_formula_sum              'Ca1 Co1 O7 V2'
_publ_section_title
;
Crystal structures of double pyrovanadates CaMgV2O7 and CaCoV2O7
;
loop_
_citation_id
_citation_journal_abbrev
_citation_year
_citation_journal_volume
_citation_page_first
_citation_page_last
_citation_journal_id_ASTM
primary 'Zhurnal Neorganicheskoi Khimii' 1993 38 1453 1454 ZNOKAQ
_publ_author_name
;
Murashov, E.V.;Velikodnyi, Yu.A.;Zhuravlev, V.D.
;
_cell_length_a                     6.769(1)
_cell_length_b                     14.472(2)
_cell_length_c                     11.225(2)
_cell_angle_alpha                  90.
_cell_angle_beta                   99.52(1)
_cell_angle_gamma                  90.
_cell_volume                       1084.47
_cell_formula_units_Z              8
_symmetry_space_group_name_H-M     'P 1 21/c 1'
_symmetry_Int_Tables_number        14
_refine_ls_R_factor_all            .026
loop_
_symmetry_equiv_pos_site_id
_symmetry_equiv_pos_as_xyz
  1	'x, -y+.5, z+.5'
  2	'-x, -y, -z'
  3	'-x, y+.5, -z+.5'
  4	'x, y, z'
loop_
_atom_type_symbol
_atom_type_oxidation_number
Ca2+	2
Co2+	2
O2-	-2
V5+	5
loop_
_atom_site_label
_atom_site_type_symbol
_atom_site_symmetry_multiplicity
_atom_site_Wyckoff_symbol
_atom_site_fract_x
_atom_site_fract_y
_atom_site_fract_z
_atom_site_occupancy
_atom_site_attached_hydrogens
_atom_site_U_iso_or_equiv
Co1 Co2+ 4 e -.0035(1) 0.2533(1) 0.2476(1) 1. 0 0.0104(1) 
Co2 Co2+ 4 e 0.3597(1) 0.1745(1) 0.4248(1) 1. 0 0.0099(2) 
Ca1 Ca2+ 4 e 0.6655(1) 0.1272(1) 0.0210(1) 1. 0 0.0141(2) 
Ca2 Ca2+ 4 e 0.9329(2) 0.0019(1) 0.7564(1) 1. 0 0.0291(3) 
V1 V5+ 4 e 0.4906(1) 0.2055(1) 0.7046(1) 1. 0 0.0115(2) 
V2 V5+ 4 e 0.4215(1) 0.0139(1) 0.6872(1) 1. 0 0.0098(2) 
V3 V5+ 4 e 0.1321(1) -.1348(1) 0.5208(1) 1. 0 0.0072(2) 
V4 V5+ 4 e 0.1582(1) 0.3723(1) 0.5144(1) 1. 0 0.0082(2) 
O1 O2- 4 e 0.5723(4) 0.1077(2) 0.7954(3) 1. 0 0.0158(9) 
O2 O2- 4 e 0.3093(4) 0.2521(2) 0.7727(3) 1. 0 0.0114(8) 
O3 O2- 4 e 0.3544(4) 0.2933(2) 0.5304(3) 1. 0 0.0164(9) 
O4 O2- 4 e 0.6904(4) 0.2712(2) 0.7015(3) 1. 0 0.0118(9) 
O5 O2- 4 e 0.4075(4) 0.1221(2) 0.5895(3) 1. 0 0.0126(8) 
O6 O2- 4 e 0.6113(4) -.0570(2) 0.6776(3) 1. 0 0.0131(9) 
O7 O2- 4 e 0.2331(5) -.0264(2) 0.5544(3) 1. 0 0.021(1) 
O8 O2- 4 e 0.2899(5) -.0220(2) 0.7899(3) 1. 0 0.017(1) 
O9 O2- 4 e -.0469(4) -.1541(2) 0.6138(3) 1. 0 0.0149(9) 
O10 O2- 4 e 0.0344(4) -.1359(2) 0.3714(3) 1. 0 0.0130(8) 
O11 O2- 4 e 0.3175(4) -.2124(2) 0.5491(3) 1. 0 0.0135(9) 
O12 O2- 4 e 0.0067(5) 0.3635(2) 0.3784(3) 1. 0 0.0182(9) 
O13 O2- 4 e 0.0065(4) 0.3594(2) 0.6231(3) 1. 0 0.0127(9) 
O14 O2- 4 e 0.2557(6) 0.4772(2) 0.5336(3) 1. 0 0.033(1) 

#End of data_39730-ICSD


