data_163491-ICSD
#?2014 by Fachinformationszentrum Karlsruhe, and the U.S. Secretary of 
#Commerce on behalf of the United States.  All rights reserved.
_database_code_ICSD                163491
_audit_creation_date               2009/08/01
_chemical_name_systematic          'Disodium Hexatitanate'
_chemical_formula_structural       'Na2 (Ti6 O13)'
_chemical_formula_sum              'Na2 O13 Ti6'
_publ_section_title
;
Rietveld refinement of sol-gel Na2 Ti6 O13 and its photocatalytic 
performance on the degradation of methylene blue
;
loop_
_citation_id
_citation_journal_abbrev
_citation_year
_citation_journal_volume
_citation_page_first
_citation_page_last
_citation_journal_id_ASTM
primary 'Journal of sol-gel science and technology, Springer'
 2008 47 158 164 JSGTEC
_publ_author_name
;
Torres Martinez, L.M.;Juarez-Ramirez, I.;del Angel-Sanchez, K.;Garza-
Tovar, L.;Cruz-Lopez, A.;del Angel, G.
;
_cell_length_a                     15.095(7)
_cell_length_b                     3.745(3)
_cell_length_c                     9.174(1)
_cell_angle_alpha                  90.
_cell_angle_beta                   99.01
_cell_angle_gamma                  90.
_cell_volume                       512.21
_cell_formula_units_Z              2
_symmetry_space_group_name_H-M     'C 1 2/m 1'
_symmetry_Int_Tables_number        12
_refine_ls_R_factor_all            .0723
loop_
_symmetry_equiv_pos_site_id
_symmetry_equiv_pos_as_xyz
  1	'-x, y, -z'
  2	'-x, -y, -z'
  3	'x, -y, z'
  4	'x, y, z'
  5	'-x+.5, y+.5, -z'
  6	'-x+.5, -y+.5, -z'
  7	'x+.5, -y+.5, z'
  8	'x+.5, y+.5, z'
loop_
_atom_type_symbol
_atom_type_oxidation_number
Na1+	1
O2-	-2
Ti4+	4
loop_
_atom_site_label
_atom_site_type_symbol
_atom_site_symmetry_multiplicity
_atom_site_Wyckoff_symbol
_atom_site_fract_x
_atom_site_fract_y
_atom_site_fract_z
_atom_site_occupancy
_atom_site_attached_hydrogens
Na1 Na1+ 4 i 0.46102 0 0.26595 1. 0 
Ti1 Ti4+ 4 i 0.11311 0 0.09740 1. 0 
Ti2 Ti4+ 4 i 0.16716 0 0.43740 1. 0 
Ti3 Ti4+ 4 i 0.22689 0 0.77019 1. 0 
O1 O2- 2 a 0 0 0 1. 0 
O2 O2- 4 i 0.23769 0 0.24064 1. 0 
O3 O2- 4 i 0.07020 0 0.29497 1. 0 
O4 O2- 4 i 0.30113 0 0.57074 1. 0 
O5 O2- 4 i 0.12873 0 0.61793 1. 0 
O6 O2- 4 i 0.35786 0 0.88499 1. 0 
O7 O2- 4 i 0.16904 0 0.91716 1. 0 

#End of data_163491-ICSD


