data_49543-ICSD
#?2014 by Fachinformationszentrum Karlsruhe, and the U.S. Secretary of 
#Commerce on behalf of the United States.  All rights reserved.
_database_code_ICSD                49543
_audit_creation_date               1984/12/31
_audit_update_record               2012/08/01
_chemical_name_systematic
;
Copper Tetrasodium Bis(cyclo-triphosphate(V)) Tetrahydrate
;
_chemical_formula_structural       'Cu Na4 (P3 O9)2 (H2 O)4'
_chemical_formula_sum              'H8 Cu1 Na4 O22 P6'
_publ_section_title
;
Preparation and crystal structure of copper tetrasodium 
trimetaphosphate tetrahydrate: Cu Na4 (P3 O9)2 (H2 O)4
;
loop_
_citation_id
_citation_journal_abbrev
_citation_year
_citation_journal_volume
_citation_page_first
_citation_page_last
_citation_journal_id_ASTM
primary 'Zeitschrift fuer Anorganische und Allgemeine Chemie (1950) (DE)'
 1984 514 85 91 ZAACAB
_publ_author_name                  'Durif, A.;Averbuch-Pouchot, M.T.'
_cell_length_a                     7.897(5)
_cell_length_b                     8.361(5)
_cell_length_c                     7.115(5)
_cell_angle_alpha                  102.55(5)
_cell_angle_beta                   97.85(5)
_cell_angle_gamma                  84.00(5)
_cell_volume                       452.9
_cell_formula_units_Z              1
_symmetry_space_group_name_H-M     'P -1'
_symmetry_Int_Tables_number        2
_refine_ls_R_factor_all            .017
loop_
_symmetry_equiv_pos_site_id
_symmetry_equiv_pos_as_xyz
  1	'-x, -y, -z'
  2	'x, y, z'
loop_
_atom_type_symbol
_atom_type_oxidation_number
Cu2+	2
H1+	1
Na1+	1
O2-	-2
P5+	5
loop_
_atom_site_label
_atom_site_type_symbol
_atom_site_symmetry_multiplicity
_atom_site_Wyckoff_symbol
_atom_site_fract_x
_atom_site_fract_y
_atom_site_fract_z
_atom_site_occupancy
_atom_site_attached_hydrogens
_atom_site_B_iso_or_equiv
Cu1 Cu2+ 1 a 0 0 0 1. 0 0 
P1 P5+ 2 i 0.79275(6) 0.16502(6) 0.44055(7) 1. 0 0 
P2 P5+ 2 i 0.98434(6) 0.70453(6) 0.21542(7) 1. 0 0 
P3 P5+ 2 i 0.28951(6) 0.50969(6) 0.33768(7) 1. 0 0 
Na1 Na1+ 2 i 0.5781(1) 0.7970(1) 0.3549(1) 1. 0 0 
Na2 Na1+ 2 i 0.6897(1) 0.4042(1) 0.1016(1) 1. 0 0 
O1 O2- 2 i 0.3185(2) 0.9245(2) 0.4714(2) 1. 0 0 
O2 O2- 2 i 0.8192(2) 0.1053(2) 0.2351(2) 1. 0 0 
O3 O2- 2 i 0.0240(2) 0.8151(2) 0.4296(2) 1. 0 0 
O4 O2- 2 i 0.7190(2) 0.3552(2) 0.4623(2) 1. 0 0 
O5 O2- 2 i 0.0570(2) 0.7789(2) 0.0735(2) 1. 0 0 
O6 O2- 2 i 0.8026(2) 0.6691(2) 0.1836(2) 1. 0 0 
O7 O2- 2 i 0.0970(2) 0.5366(2) 0.234(2) 1. 0 0 
O8 O2- 2 i 0.4133(2) 0.5543(2) 0.2224(2) 1. 0 0 
O9 O2- 2 i 0.3066(2) 0.3460(2) 0.3879(2) 1. 0 0 
O10 O2- 2 i 0.2042(2) 0.0717(2) 0.1686(2) 1. 0 0 
O11 O2- 2 i 0.4846(2) 0.8242(2) 0.0209(2) 1. 0 0 
H1 H1+ 2 i 0.213(4) 0.156(4) 0.220(5) 1. 0 3.8(8) 
H2 H1+ 2 i 0.242(5) 0.019(4) 0.243(5) 1. 0 4.0(8) 
H3 H1+ 2 i 0.566(5) 0.821(4) 0.973(5) 1. 0 4.0(8) 
H4 H1+ 2 i 0.576(5) 0.127(5) 0.032(6) 1. 0 5.5(1) 

#End of data_49543-ICSD


