data_158915-ICSD
#?2014 by Fachinformationszentrum Karlsruhe, and the U.S. Secretary of 
#Commerce on behalf of the United States.  All rights reserved.
_database_code_ICSD                158915
_audit_creation_date               2008/08/01
_audit_update_record               2013/02/01
_chemical_name_systematic
;
Diniobium Tetradecacalcium Tetrakis(disilicate) Hexaoxide Difluoride
;
_chemical_formula_structural       'Nb2 Ca14 (Si2 O7)4 O6 F2'
_chemical_formula_sum              'Ca14 F2 Nb2 O34 Si8'
_chemical_name_mineral             Niocalite
_publ_section_title
;
Niocalite revisited: twinning and crystal structure
;
loop_
_citation_id
_citation_journal_abbrev
_citation_year
_citation_journal_volume
_citation_page_first
_citation_page_last
_citation_journal_id_ASTM
primary 'Tschermaks Mineralogische und Petrographische Mitteilungen (-1978)'
 1982 30 249 266 MPMTAG
_publ_author_name                  'Mellini, M.'
_cell_length_a                     10.863(3)
_cell_length_b                     10.431(3)
_cell_length_c                     7.370(2)
_cell_angle_alpha                  90.
_cell_angle_beta                   110.1(1)
_cell_angle_gamma                  90.
_cell_volume                       784.25
_cell_formula_units_Z              1
_symmetry_space_group_name_H-M     'P 1 a 1'
_symmetry_Int_Tables_number        7
_refine_ls_R_factor_all            .069
loop_
_symmetry_equiv_pos_site_id
_symmetry_equiv_pos_as_xyz
  1	'x+.5, -y, z'
  2	'x, y, z'
loop_
_atom_type_symbol
_atom_type_oxidation_number
Ca2+	2
F1-	-1
Nb5+	5
O2-	-2
Si4+	4
loop_
_atom_site_label
_atom_site_type_symbol
_atom_site_symmetry_multiplicity
_atom_site_Wyckoff_symbol
_atom_site_fract_x
_atom_site_fract_y
_atom_site_fract_z
_atom_site_occupancy
_atom_site_attached_hydrogens
_atom_site_B_iso_or_equiv
Ca1 Ca2+ 2 a 0.9253(4) 0.6539(3) 0.4781(6) 1. 0 0.79 
Ca2 Ca2+ 2 a 0.9179(4) 0.6651(3) 0.9733(6) 1. 0 0.54 
Ca3 Ca2+ 2 a 0.8123(4) 0.3743(3) 0.6825(6) 1. 0 0.87 
Ca4 Ca2+ 2 a 0.8200(0) 0.3679(3) 0.1700(0) 1. 0 1.49 
Nb1 Nb5+ 2 a 0.6823(3) 0.1395(1) 0.8605(3) 1. 0 0.16 
Ca5 Ca2+ 2 a 0.6628(3) 0.1325(3) 0.3504(6) 1. 0 1.07 
Ca6 Ca2+ 2 a 0.5731(5) -0.1617(3) 0.5523(6) 1. 0 1.09 
Ca7 Ca2+ 2 a 0.5639(4) -0.1542(3) 0.0428(6) 1. 0 0.67 
Si1 Si4+ 2 a 0.3651(5) 0.0654(4) 0.6663(9) 1. 0 0.65 
Si2 Si4+ 2 a 0.3776(5) 0.0541(4) 0.2414(8) 1. 0 0.52 
Si3 Si4+ 2 a 0.6169(5) 0.5578(5) 0.3524(9) 1. 0 1.01 
Si4 Si4+ 2 a 0.6094(5) 0.5593(4) 0.7925(8) 1. 0 0.81 
O1 O2- 2 a 0.506(1) 0.009(1) 0.788(2) 1. 0 1.35 
O2 O2- 2 a 0.509(1) -0.026(1) 0.269(2) 1. 0 1.17 
O3 O2- 2 a 0.236(1) -0.003(1) 0.686(2) 1. 0 1.49 
O4 O2- 2 a 0.244(1) 0.005(1) 0.078(2) 1. 0 1.34 
O5 O2- 2 a 0.345(1) 0.219(1) 0.680(1) 1. 0 1.50 
O6 O2- 2 a 0.404(2) 0.201(1) 0.222(2) 1. 0 2.31 
O7 O2- 2 a 0.755(1) 0.502(1) 0.363(2) 1. 0 1.83 
O8 O2- 2 a 0.745(1) 0.505(1) 0.921(2) 1. 0 1.90 
O9 O2- 2 a 0.493(1) 0.470(1) 0.240(2) 1. 0 2.39 
O10 O2- 2 a 0.482(1) 0.475(1) 0.775(2) 1. 0 1.44 
O11 O2- 2 a 0.587(1) 0.704(1) 0.300(1) 1. 0 1.73 
O12 O2- 2 a 0.578(1) 0.710(1) 0.808(2) 1. 0 1.28 
O13 O2- 2 a 0.626(1) 0.239(1) 0.042(2) 1. 0 1.85 
O14 O2- 2 a 0.623(1) 0.237(1) 0.622(1) 1. 0 1.58 
F1 F1- 2 a 0.853(1) 0.246(1) 0.447(2) 1. 0 3.40 
O15 O2- 2 a 0.845(1) 0.225(1) 0.937(2) 1. 0 2.52 
O16 O2- 2 a 0.339(1) 0.032(1) 0.436(2) 1. 0 1.86 
O17 O2- 2 a 0.623(1) 0.533(1) 0.576(2) 1. 0 2.31 

loop_
_atom_site_aniso_label
_atom_site_aniso_type_symbol
_atom_site_aniso_U_11
_atom_site_aniso_U_22
_atom_site_aniso_U_33
_atom_site_aniso_U_12
_atom_site_aniso_U_13
_atom_site_aniso_U_23
Ca1 Ca2+ 0.018(2) 0.008(1) 0.008(1) -0.005(1) 0.007(1) 0.000(1)
Ca2 Ca2+ 0.007(1) 0.009(1) 0.005(1) 0.000(1) 0.003(1) 0.001(1)
Ca3 Ca2+ 0.012(1) 0.009(1) 0.010(1) -0.002(1) 0.004(1) 0.000(1)
Ca4 Ca2+ 0.032(2) 0.015(1) 0.011(1) 0.003(1) 0.008(1) 0.000(1)
Nb1 Nb5+ 0.003(1) 0.002(1) 0.001(1) 0.002(1) 0.001(1) 0.001(1)
Ca5 Ca2+ 0.011(2) 0.014(2) 0.016(2) -0.004(1) 0.004(2) -0.001(1)
Ca6 Ca2+ 0.027(2) 0.013(2) 0.008(1) -0.013(1) 0.006(1) -0.004(1)
Ca7 Ca2+ 0.012(2) 0.005(1) 0.008(1) -0.002(1) 0.003(1) -0.002(1)
Si1 Si4+ 0.010(2) 0.008(2) 0.011(2) -0.001(1) 0.004(2) -0.003(1)
Si2 Si4+ 0.010(2) 0.008(2) 0.011(2) 0.001(1) 0.004(2) 0.000(1)
Si3 Si4+ 0.010(2) 0.014(2) 0.019(2) 0.000(2) 0.005(2) -0.003(2)
Si4 Si4+ 0.010(2) 0.009(2) 0.009(2) 0.004(2) 0.000(2) 0.002(2)
O1 O2- 0.008(5) 0.015(5) 0.024(6) 0.000(4) 0.000(4) 0.012(4)
O2 O2- 0.005(5) 0.027(7) 0.024(7) 0.004(4) 0.002(5) -0.001(5)
O3 O2- 0.006(5) 0.024(6) 0.030(7) -0.004(4) 0.009(5) 0.016(5)
O4 O2- 0.008(5) 0.024(6) 0.015(5) 0.000(4) -0.001(4) -0.018(4)
O5 O2- 0.028(6) 0.011(5) 0.025(6) 0.008(4) 0.004(4) 0.004(4)
O6 O2- 0.084(11) 0.003(5) 0.024(7) -0.006(5) 0.034(7) -0.008(4)
O7 O2- 0.020(6) 0.022(6) 0.030(7) 0.006(5) 0.013(5) 0.003(5)
O8 O2- 0.011(5) 0.008(5) 0.045(8) -0.002(4) 0.006(5) 0.001(5)
O9 O2- 0.019(6) 0.020(6) 0.031(6) -0.008(5) 0.007(5) -0.013(5)
O10 O2- 0.014(5) 0.016(6) 0.020(6) -0.006(4) 0.002(5) 0.008(5)
O11 O2- 0.055(8) 0.003(4) 0.011(5) 0.008(5) 0.002(5) 0.001(4)
O12 O2- 0.012(5) 0.022(6) 0.014(5) 0.009(4) 0.001(4) -0.005(4)
O13 O2- 0.009(5) 0.033(6) 0.018(6) -0.004(4) -0.003(4) 0.007(4)
O14 O2- 0.012(5) 0.007(5) 0.039(7) 0.000(4) 0.004(4) -0.007(4)
F1 F1- 0.013(5) 0.040(6) 0.055(6) 0.004(4) -0.002(5) -0.015(6)
O15 O2- 0.003(5) 0.040(7) 0.021(5) -0.008(4) -0.007(4) 0.008(5)
O16 O2- 0.049(8) 0.013(5) 0.025(6) -0.007(5) 0.020(6) -0.003(5)
O17 O2- 0.055(8) 0.034(7) 0.014(6) 0.009(6) 0.022(5) -0.001(5)
#End of data_158915-ICSD


