data_171936-ICSD
#?2014 by Fachinformationszentrum Karlsruhe, and the U.S. Secretary of 
#Commerce on behalf of the United States.  All rights reserved.
_database_code_ICSD                171936
_audit_creation_date               2007/04/01
_chemical_name_systematic
;
Trimanganese Zinc Calcium Catena-pentasiliacte
;
_chemical_formula_structural       'Mn3 Zn Ca Si5 O15'
_chemical_formula_sum              'Ca1 Mn3 O15 Si5 Zn1'
_chemical_name_mineral             Fowlerite
_publ_section_title
;
Crystal chemistry of Zn-rich rhodonite ("fowlerite")
;
loop_
_citation_id
_citation_journal_abbrev
_citation_year
_citation_journal_volume
_citation_page_first
_citation_page_last
_citation_journal_id_ASTM
primary 'American Mineralogist' 2005 90 969 983 AMMIAY
_publ_author_name                  'Nelson, W.R.;Griffen, D.T.'
_cell_length_a                     9.8905(3)
_cell_length_b                     10.5423(3)
_cell_length_c                     12.2294(4)
_cell_angle_alpha                  108.739(3)
_cell_angle_beta                   103.773(3)
_cell_angle_gamma                  82.050(2)
_cell_volume                       1170.18
_cell_formula_units_Z              4
_symmetry_space_group_name_H-M     'C -1'
_symmetry_Int_Tables_number        2
_refine_ls_R_factor_all            .047
loop_
_symmetry_equiv_pos_site_id
_symmetry_equiv_pos_as_xyz
  1	'-x, -y, -z'
  2	'x, y, z'
  3	'-x+.5, -y+.5, -z'
  4	'x+.5, y+.5, z'
loop_
_atom_type_symbol
_atom_type_oxidation_number
Ca2+	2
Mn2+	2
O2-	-2
Si4+	4
Zn2+	2
loop_
_atom_site_label
_atom_site_type_symbol
_atom_site_symmetry_multiplicity
_atom_site_Wyckoff_symbol
_atom_site_fract_x
_atom_site_fract_y
_atom_site_fract_z
_atom_site_occupancy
_atom_site_attached_hydrogens
_atom_site_U_iso_or_equiv
Mn1 Mn2+ 4 i -0.00130(4) 0.03113(4) 0.14693(3) 1. 0 0.0056(1) 
Mn2 Mn2+ 4 i 0.00087(4) 0.12580(4) 0.44409(3) 1. 0 0.0056(1) 
Mn3 Mn2+ 4 i 0.01664(4) 0.20497(4) 0.72913(3) 1. 0 0.0057(1) 
Zn1 Zn2+ 4 i 0.06617(4) 0.26347(4) 0.02144(3) 1. 0 0.0091(1) 
Ca1 Ca2+ 4 i 0.99374(5) 0.35973(5) 0.30711(5) 1. 0 0.0074(1) 
Si1 Si4+ 4 i 0.20513(7) 0.44941(7) 0.91111(6) 1. 0 0.0046(1) 
Si2 Si4+ 4 i 0.21346(7) 0.36663(7) 0.65328(6) 1. 0 0.0037(1) 
Si3 Si4+ 4 i 0.21825(7) 0.58031(7) 0.52835(6) 1. 0 0.0038(1) 
Si4 Si4+ 4 i 0.21433(7) 0.50576(7) 0.25898(6) 1. 0 0.0043(1) 
Si5 Si4+ 4 i 0.20267(7) 0.70038(7) 0.12354(6) 1. 0 0.0044(1) 
O1 O2- 4 i 0.1275(2) 0.0724(2) 0.0400(2) 1. 0 0.0065(3) 
O2 O2- 4 i 0.1192(2) 0.1576(2) 0.3230(2) 1. 0 0.0065(3) 
O3 O2- 4 i 0.1135(2) 0.9229(2) 0.4367(2) 1. 0 0.0064(3) 
O4 O2- 4 i 0.1192(2) 0.0137(2) 0.7328(2) 1. 0 0.0070(3) 
O5 O2- 4 i 0.1333(2) 0.7905(2) 0.8531(2) 1. 0 0.0071(3) 
O6 O2- 4 i 0.0955(2) 0.8310(2) 0.1281(2) 1. 0 0.0076(3) 
O7 O2- 4 i 0.1303(2) 0.3206(2) 0.9018(2) 1. 0 0.0086(3) 
O8 O2- 4 i 0.1261(2) 0.2364(2) 0.6095(2) 1. 0 0.0083(3) 
O9 O2- 4 i 0.1320(2) 0.7128(2) 0.5868(2) 1. 0 0.0082(3) 
O10 O2- 4 i 0.1264(2) 0.3802(2) 0.1799(2) 1. 0 0.0087(3) 
O11 O2- 4 i 0.1705(2) 0.4683(2) 0.7774(2) 1. 0 0.0072(3) 
O12 O2- 4 i 0.1593(2) 0.4607(2) 0.5640(2) 1. 0 0.0070(3) 
O13 O2- 4 i 0.1665(2) 0.5352(2) 0.3851(2) 1. 0 0.0071(3) 
O14 O2- 4 i 0.1574(2) 0.6417(2) 0.2196(2) 1. 0 0.0067(3) 
O15 O2- 4 i 0.1459(2) 0.5906(2) 0.9948(2) 1. 0 0.0079(3) 

loop_
_atom_site_aniso_label
_atom_site_aniso_type_symbol
_atom_site_aniso_U_11
_atom_site_aniso_U_22
_atom_site_aniso_U_33
_atom_site_aniso_U_12
_atom_site_aniso_U_13
_atom_site_aniso_U_23
Mn1 Mn2+ 0.0071 0.0055 0.0074 0.0042 0.0038 0.0023
Mn2 Mn2+ 0.0074 0.0069 0.0069 0.0045 0.0035 0.0022
Mn3 Mn2+ 0.0081 0.0058 0.0064 0.0034 0.0037 0.0019
Zn1 Zn2+ 0.0167 0.0073 0.0053 0.0044 -0.0001 -0.0008
Ca1 Ca2+ 0.0096 0.0098 0.0134 0.0073 0.0062 0.0014
Si1 Si4+ 0.0051 0.0058 0.0046 0.0034 0.0025 0.0018
Si2 Si4+ 0.0048 0.0047 0.0053 0.0044 0.0026 0.0016
Si3 Si4+ 0.0050 0.0057 0.0040 0.0036 0.0020 0.0020
Si4 Si4+ 0.0049 0.0065 0.0053 0.0049 0.0023 0.0019
Si5 Si4+ 0.0057 0.0056 0.0057 0.0043 0.0030 0.0029
O1 O2- 0.0063 0.0099 0.0085 0.0046 0.0017 0.0016
O2 O2- 0.0043 0.0080 0.0090 0.0051 0.0025 0.0027
O3 O2- 0.0047 0.0074 0.0097 0.0040 0.0005 0.0015
O4 O2- 0.0059 0.0074 0.0105 0.0065 0.0045 0.0040
O5 O2- 0.0073 0.0090 0.0093 0.0055 0.0031 0.0016
O6 O2- 0.0105 0.0047 0.0126 0.0058 0.0056 0.0050
O7 O2- 0.0120 0.0101 0.0075 0.0042 0.0029 -0.0038
O8 O2- 0.0104 0.0076 0.0085 0.0040 0.0017 -0.0024
O9 O2- 0.0097 0.0090 0.0107 0.0015 0.0042 0.0040
O10 O2- 0.0126 0.0105 0.0084 0.0020 0.0028 -0.0035
O11 O2- 0.0106 0.0087 0.0039 0.0032 0.0043 0.0024
O12 O2- 0.0086 0.0109 0.0085 0.0080 0.0034 0.0004
O13 O2- 0.0100 0.0134 0.0039 0.0050 0.0028 0.0009
O14 O2- 0.0078 0.0098 0.0071 0.0070 0.0042 0.0035
O15 O2- 0.0097 0.0088 0.0049 0.0024 0.0025 0.0033
#End of data_171936-ICSD


