data_187415-ICSD
#?2014 by Fachinformationszentrum Karlsruhe, and the U.S. Secretary of 
#Commerce on behalf of the United States.  All rights reserved.
_database_code_ICSD                187415
_audit_creation_date               2013/08/01
_chemical_name_systematic
;
Calcium Hexamanganese(III) Manganese(IV) Dodecaoxide
;
_chemical_formula_structural       'Ca Mn7 O12'
_chemical_formula_sum              'Ca1 Mn7 O12'
_publ_section_title
;
Particle and crystallite size effects on the modulated structure of 
multiferroic Ca Mn7 O12
;
loop_
_citation_id
_citation_journal_abbrev
_citation_year
_citation_journal_volume
_citation_page_first
_citation_page_last
_citation_journal_id_ASTM
primary 'Journal of Solid State Chemistry' 2013 198 392 398 JSSCBI
_publ_author_name
;
Slawinski, Wojciech;Przenioslo, Radoslaw;Sosnowska, Izabela;Wardecki, 
Dariusz;Fitch, Andy N.;Bieringer, Mario;Jasinski, Jacek B.
;
_cell_length_a                     10.44788(1)
_cell_length_b                     10.44788(1)
_cell_length_c                     6.345960(3)
_cell_angle_alpha                  90.
_cell_angle_beta                   90.
_cell_angle_gamma                  120.
_cell_volume                       599.91
_cell_formula_units_Z              3
_symmetry_space_group_name_H-M     'R -3 H'
_symmetry_Int_Tables_number        148
loop_
_symmetry_equiv_pos_site_id
_symmetry_equiv_pos_as_xyz
  1	'x-y, x, -z'
  2	'y, -x+y, -z'
  3	'-x, -y, -z'
  4	'-x+y, -x, z'
  5	'-y, x-y, z'
  6	'x, y, z'
  7	'x-y+.6666, x+.3333, -z+.3333'
  8	'x-y+.3333, x+.6666, -z+.6666'
  9	'y+.6666, -x+y+.3333, -z+.3333'
 10	'y+.3333, -x+y+.6666, -z+.6666'
 11	'-x+.6666, -y+.3333, -z+.3333'
 12	'-x+.3333, -y+.6666, -z+.6666'
 13	'-x+y+.6666, -x+.3333, z+.3333'
 14	'-x+y+.3333, -x+.6666, z+.6666'
 15	'-y+.6666, x-y+.3333, z+.3333'
 16	'-y+.3333, x-y+.6666, z+.6666'
 17	'x+.6666, y+.3333, z+.3333'
 18	'x+.3333, y+.6666, z+.6666'
loop_
_atom_type_symbol
_atom_type_oxidation_number
Ca2+	2
Mn3+	3
Mn4+	4
O2-	-2
loop_
_atom_site_label
_atom_site_type_symbol
_atom_site_symmetry_multiplicity
_atom_site_Wyckoff_symbol
_atom_site_fract_x
_atom_site_fract_y
_atom_site_fract_z
_atom_site_occupancy
_atom_site_attached_hydrogens
Ca1 Ca2+ 3 a 0 0 0 1. 0 
Mn1 Mn3+ 9 e 0.5 0 0 1. 0 
Mn2 Mn3+ 9 d 0.5 0.5 0.5 1. 0 
Mn3 Mn4+ 3 b 0 0 0.5 1. 0 
O1 O2- 18 f 0.22455(18) 0.27519(17) 0.08034(22) 1. 0 
O2 O2- 18 f 0.34175(16) 0.52274(14) 0.34276(24) 1. 0 

#End of data_187415-ICSD


