data_202787-ICSD
#?2014 by Fachinformationszentrum Karlsruhe, and the U.S. Secretary of 
#Commerce on behalf of the United States.  All rights reserved.
_database_code_ICSD                202787
_audit_creation_date               1989/12/04
_audit_update_record               2005/10/01
_chemical_name_systematic
;
Zinc Hexafluorotitanate Hexahydrate
;
_chemical_formula_structural       'Zn (Ti F6) (H2 O)6'
_chemical_formula_sum              'H12 F6 O6 Ti1 Zn1'
_publ_section_title
;
Crystal structure and phase transitions in Mn Ti F6 6(H2O) and Zn Ti 
F6 6(H2 O)
;
loop_
_citation_id
_citation_journal_abbrev
_citation_year
_citation_journal_volume
_citation_page_first
_citation_page_last
_citation_journal_id_ASTM
primary 'Journal of Physics C' 1988 21 1321 1334 JPSOAW
2 'Phase Transition' 1992 38 127 220 PHTRDP
_publ_author_name
;
Chattopadhyay, T.K.;Devreux, F.;Peters, K.;Peters, E M.;Gmelin, 
E.;Ghosh, B.
;
_cell_length_a                     9.584(1)
_cell_length_b                     9.584(1)
_cell_length_c                     9.932(1)
_cell_angle_alpha                  90.
_cell_angle_beta                   90.
_cell_angle_gamma                  120.
_cell_volume                       790.06
_cell_formula_units_Z              3
_symmetry_space_group_name_H-M     'R -3 H'
_symmetry_Int_Tables_number        148
_refine_ls_R_factor_all            .034
loop_
_symmetry_equiv_pos_site_id
_symmetry_equiv_pos_as_xyz
  1	'x-y, x, -z'
  2	'y, -x+y, -z'
  3	'-x, -y, -z'
  4	'-x+y, -x, z'
  5	'-y, x-y, z'
  6	'x, y, z'
  7	'x-y+.6666, x+.3333, -z+.3333'
  8	'x-y+.3333, x+.6666, -z+.6666'
  9	'y+.6666, -x+y+.3333, -z+.3333'
 10	'y+.3333, -x+y+.6666, -z+.6666'
 11	'-x+.6666, -y+.3333, -z+.3333'
 12	'-x+.3333, -y+.6666, -z+.6666'
 13	'-x+y+.6666, -x+.3333, z+.3333'
 14	'-x+y+.3333, -x+.6666, z+.6666'
 15	'-y+.6666, x-y+.3333, z+.3333'
 16	'-y+.3333, x-y+.6666, z+.6666'
 17	'x+.6666, y+.3333, z+.3333'
 18	'x+.3333, y+.6666, z+.6666'
loop_
_atom_type_symbol
_atom_type_oxidation_number
F1-	-1
H1+	1
O2-	-2
Ti4+	4
Zn2+	2
loop_
_atom_site_label
_atom_site_type_symbol
_atom_site_symmetry_multiplicity
_atom_site_Wyckoff_symbol
_atom_site_fract_x
_atom_site_fract_y
_atom_site_fract_z
_atom_site_occupancy
_atom_site_attached_hydrogens
_atom_site_U_iso_or_equiv
Zn1 Zn2+ 3 a 0 0 0 1. 0 0 
Ti1 Ti4+ 3 b 0 0 0.5 1. 0 0 
F1 F1- 18 f -.1246(3) -.1733(2) 0.3923(2) 1. 0 0 
O1 O2- 18 f 0.0039(1) 0.1800(2) 0.1200(2) 1. 0 0 
H1 H1+ 18 f 0.057(4) 0.250(4) 0.092(4) 1. 0 0.08 
H2 H1+ 18 f -.011(4) 0.176(5) 0.219(4) 1. 0 0.08 

loop_
_atom_site_aniso_label
_atom_site_aniso_type_symbol
_atom_site_aniso_U_11
_atom_site_aniso_U_22
_atom_site_aniso_U_33
_atom_site_aniso_U_12
_atom_site_aniso_U_13
_atom_site_aniso_U_23
Zn1 Zn2+ 0.029(1) 0.029(1) 0.021(1) 0.015(1) 0 0
Ti1 Ti4+ 0.027(1) 0.027(1) 0.019(1) 0.014(1) 0 0
F1 F1- 0.102(1) 0.038(1) 0.032(1) 0.0(10) -.006(1) -.006(1)
O1 O2- 0.059(1) 0.036(1) 0.030(1) 0.023(1) 0.008(1) -.002(1)
#End of data_202787-ICSD


