data_63000-ICSD
#?2014 by Fachinformationszentrum Karlsruhe, and the U.S. Secretary of 
#Commerce on behalf of the United States.  All rights reserved.
_database_code_ICSD                63000
_audit_creation_date               1989/06/19
_audit_update_record               2006/04/01
_chemical_name_systematic          'Dirubidium Tetrabromozincate'
_chemical_formula_structural       'Rb2 (Zn Br4)'
_chemical_formula_sum              'Br4 Rb2 Zn1'
_publ_section_title
;
Structural study of three modulated phases in Rb2 Zn Br4.
;
loop_
_citation_id
_citation_journal_abbrev
_citation_year
_citation_journal_volume
_citation_page_first
_citation_page_last
_citation_journal_id_ASTM
primary 'Acta Crystallographica, Section B: Structural Science'
 1988 44 120 128 ASBSDK
_publ_author_name                  'Hogervorst, A.C.R.;Helmholdt, R.B.'
_cell_length_a                     13.184(4)
_cell_length_b                     7.599(2)
_cell_length_c                     9.623(2)
_cell_angle_alpha                  90.
_cell_angle_beta                   90.
_cell_angle_gamma                  90.
_cell_volume                       964.08
_cell_formula_units_Z              4
_symmetry_space_group_name_H-M     'P c 21 n'
_symmetry_Int_Tables_number        33
_refine_ls_R_factor_all            .05
loop_
_symmetry_equiv_pos_site_id
_symmetry_equiv_pos_as_xyz
  1	'-x+.5, y, z+.5'
  2	'x+.5, y+.5, -z+.5'
  3	'-x, y+.5, -z'
  4	'x, y, z'
loop_
_atom_type_symbol
_atom_type_oxidation_number
Br1-	-1
Rb1+	1
Zn2+	2
loop_
_atom_site_label
_atom_site_type_symbol
_atom_site_symmetry_multiplicity
_atom_site_Wyckoff_symbol
_atom_site_fract_x
_atom_site_fract_y
_atom_site_fract_z
_atom_site_occupancy
_atom_site_attached_hydrogens
Rb1 Rb1+ 4 a 0.3223(1) 0.2489(10) 0.5120(2) 1. 0 
Rb2 Rb1+ 4 a 0.5970(2) 0.2519(12) 0.8765(2) 1. 0 
Zn1 Zn2+ 4 a 0.5789(1) 0.2497 0.2772(2) 1. 0 
Br1 Br1- 4 a 0.5792(1) 0.2497(10) 0.5234(2) 1. 0 
Br2 Br1- 4 a 0.4157(1) 0.2619(9) 0.1740(2) 1. 0 
Br3 Br1- 4 a 0.6704(3) 0.4941(8) 0.1922(3) 1. 0 
Br4 Br1- 4 a 0.6580(3) -.0064(8) 0.1888(3) 1. 0 

loop_
_atom_site_aniso_label
_atom_site_aniso_type_symbol
_atom_site_aniso_U_11
_atom_site_aniso_U_22
_atom_site_aniso_U_33
_atom_site_aniso_U_12
_atom_site_aniso_U_13
_atom_site_aniso_U_23
Rb1 Rb1+ 0.0118(9) 0.0232(11) 0.0120(9) -0.0022(21) 0.0002(8) 0.0022(29)
Rb2 Rb1+ 0.0444(13) 0.0396(13) 0.0112(10) -0.0008(32) 0.0000(9) 0.0060(28)
Zn1 Zn2+ 0.0090(11) 0.0104(11) 0.006(1) -0.0027(33) 0.0001(9) 0.0023(27)
Br1 Br1- 0.0178(12) 0.0345(17) 0.0065(9) -0.0079(25) -0.0023(9) 0.0000(4)
Br2 Br1- 0.0137(10) 0.0441(17) 0.0126(11) 0.0069(24) -0.0060(9) 0.0030(23)
Br3 Br1- 0.0340(18) 0.0146(21) 0.0164(17) -0.0126(18) 0.0078(17) 
-0.0037(17)
Br4 Br1- 0.0382(19) 0.0073(20) 0.0195(19) 0.0054(17) 0.0118(17) -0.0008(19)
#End of data_63000-ICSD


