data_236185-ICSD
#?2014 by Fachinformationszentrum Karlsruhe, and the U.S. Secretary of 
#Commerce on behalf of the United States.  All rights reserved.
_database_code_ICSD                236185
_audit_creation_date               2013/08/01
_chemical_name_systematic
;
Dipotassium Dihydrogen Hypodiphosphate Monohydrate
;
_chemical_formula_structural       'K2 (H2 O6 P2) (H2 O)'
_chemical_formula_sum              'H4 K2 O7 P2'
_publ_section_title
;
Potassium salts of hypodiphosphoric acid
;
loop_
_citation_id
_citation_journal_abbrev
_citation_year
_citation_journal_volume
_citation_journal_issue
_citation_page_first
_citation_page_last
_citation_journal_id_ASTM
primary 'Acta Crystallographica, Section C: Crystal Structure Communications'
 2012 68 12 i71 i82 ACSCEE
_publ_author_name
;
Szafranowska, B.;Slepokura, K.;Lis, T.
;
_cell_length_a                     10.021(3)
_cell_length_b                     7.645(2)
_cell_length_c                     10.229(3)
_cell_angle_alpha                  90.00
_cell_angle_beta                   92.18(4)
_cell_angle_gamma                  90.00
_cell_volume                       783.08
_cell_formula_units_Z              4
_symmetry_space_group_name_H-M     'P 1 21/n 1'
_symmetry_Int_Tables_number        14
_refine_ls_R_factor_all            .0198
loop_
_symmetry_equiv_pos_site_id
_symmetry_equiv_pos_as_xyz
  1	'-x+.5, y+.5, -z+.5'
  2	'-x, -y, -z'
  3	'x+.5, -y+.5, z+.5'
  4	'x, y, z'
loop_
_atom_type_symbol
_atom_type_oxidation_number
H1+	1
K1+	1
O2-	-2
P4+	4
loop_
_atom_site_label
_atom_site_type_symbol
_atom_site_symmetry_multiplicity
_atom_site_Wyckoff_symbol
_atom_site_fract_x
_atom_site_fract_y
_atom_site_fract_z
_atom_site_occupancy
_atom_site_attached_hydrogens
_atom_site_U_iso_or_equiv
K1 K1+ 4 e 0.425691(19) 0.72505(2) 0.393240(18) 1 0 0.01070(4) 
K2 K1+ 4 e 0.774916(18) 0.50791(2) 0.272773(18) 1 0 0.00911(4) 
P1 P4+ 4 e 0.58133(2) 0.75308(3) 0.70878(2) 1 0 0.00612(5) 
P2 P4+ 4 e 0.74210(2) 0.74290(3) 0.57144(2) 1 0 0.00581(5) 
O1 O2- 4 e 0.46753(7) 0.64191(9) 0.65733(7) 1 0 0.01081(12) 
O2 O2- 4 e 0.55356(6) 0.94334(8) 0.73800(6) 1 0 0.00933(11) 
O3 O2- 4 e 0.65124(7) 0.67362(8) 0.83779(6) 1 0 0.00856(11) 
H1 H1+ 4 e 0.6459(14) 0.5647(4) 0.8475(14) 1 0 0.013 
O4 O2- 4 e 0.69090(7) 0.79268(8) 0.43740(6) 1 0 0.00966(11) 
O5 O2- 4 e 0.85668(6) 0.84778(8) 0.63471(6) 1 0 0.00852(11) 
O6 O2- 4 e 0.78580(7) 0.54327(8) 0.56865(7) 1 0 0.00937(11) 
H2 H1+ 4 e 0.8411(11) 0.5125(18) 0.6280(10) 1 0 0.014 
O7 O2- 4 e 0.87698(7) 0.21627(9) 0.38923(7) 1 0 0.01156(12) 
H3 H1+ 4 e 0.9593(4) 0.199(2) 0.3827(15) 1 0 0.017 
H4 H1+ 4 e 0.8619(16) 0.221(2) 0.4693(4) 1 0 0.017 

loop_
_atom_site_aniso_label
_atom_site_aniso_type_symbol
_atom_site_aniso_U_11
_atom_site_aniso_U_22
_atom_site_aniso_U_33
_atom_site_aniso_U_12
_atom_site_aniso_U_13
_atom_site_aniso_U_23
K1 K1+ 0.00980(8) 0.01273(7) 0.00931(8) -0.00142(5) -0.00291(7) 0.00125(5)
K2 K1+ 0.00902(8) 0.00901(7) 0.00931(8) 0.00061(5) 0.00048(6) -0.00083(5)
P1 P4+ 0.00600(9) 0.00645(8) 0.00588(9) -0.00040(6) -0.00028(8) -0.00010(6)
P2 P4+ 0.00623(9) 0.00576(8) 0.00540(9) -0.00024(6) -0.00025(8) -0.00005(6)
O1 O2- 0.0089(3) 0.0138(3) 0.0096(3) -0.0044(2) -0.0011(2) -0.0002(2)
O2 O2- 0.0099(3) 0.0074(2) 0.0107(3) 0.00163(19) 0.0001(2) -0.00052(19)
O3 O2- 0.0116(3) 0.0074(2) 0.0065(2) -0.00015(19) -0.0015(2) 0.00096(18)
O4 O2- 0.0104(3) 0.0118(2) 0.0067(3) 0.0000(2) -0.0009(2) 0.00204(19)
O5 O2- 0.0074(3) 0.0078(2) 0.0103(3) -0.00094(19) -0.0006(2) -0.00138(19)
O6 O2- 0.0112(3) 0.0067(2) 0.0100(3) 0.00161(19) -0.0018(2) -0.00109(19)
O7 O2- 0.0100(3) 0.0156(3) 0.0091(3) 0.0016(2) 0.0002(2) 0.0002(2)
#End of data_236185-ICSD


