data_9064-ICSD
#?2014 by Fachinformationszentrum Karlsruhe, and the U.S. Secretary of 
#Commerce on behalf of the United States.  All rights reserved.
_database_code_ICSD                9064
_audit_creation_date               1986/10/15
_audit_update_record               2012/08/01
_chemical_name_systematic          'Aluminium Selenium Heptachloride'
_chemical_formula_structural       'Al Se Cl7'
_chemical_formula_sum              'Al1 Cl7 Se1'
_publ_section_title                'The Crystal Structure of Al Se Cl7'
loop_
_citation_id
_citation_journal_abbrev
_citation_year
_citation_journal_volume
_citation_page_first
_citation_page_last
_citation_journal_id_ASTM
primary 'Acta Crystallographica B (24,1968-38,1982)' 1971 27 386 392 ACBCAR
_publ_author_name                  'Stork-Blaisse, B.A.;Romers, C.'
_cell_length_a                     9.87
_cell_length_b                     8.27
_cell_length_c                     9.83
_cell_angle_alpha                  139.9
_cell_angle_beta                   94.8
_cell_angle_gamma                  93.8
_cell_volume                       504.29
_cell_formula_units_Z              2
_symmetry_space_group_name_H-M     'P 1'
_symmetry_Int_Tables_number        1
_refine_ls_R_factor_all            .101
loop_
_symmetry_equiv_pos_site_id
_symmetry_equiv_pos_as_xyz
  1	'x, y, z'
loop_
_atom_type_symbol
_atom_type_oxidation_number
Al3+	3
Cl1-	-1
Se4+	4
loop_
_atom_site_label
_atom_site_type_symbol
_atom_site_symmetry_multiplicity
_atom_site_Wyckoff_symbol
_atom_site_fract_x
_atom_site_fract_y
_atom_site_fract_z
_atom_site_occupancy
_atom_site_attached_hydrogens
Se1 Se4+ 1 a 0 0 0 1. 0 
Se2 Se4+ 1 a 0.4763(37) 0.3436(60) 0.7871(76) 1. 0 
Cl1 Cl1- 1 a 0.048(13) 0.667(19) 0.878(24) 1. 0 
Cl2 Cl1- 1 a 0.132(11) 0.849(17) 0.656(19) 1. 0 
Cl3 Cl1- 1 a 0.996(13) 0.471(17) 0.128(19) 1. 0 
Cl4 Cl1- 1 a 0.927(12) 0.158(20) 0.266(23) 1. 0 
Cl5 Cl1- 1 a 0.806(12) 0.835(21) 0.785(26) 1. 0 
Cl6 Cl1- 1 a 0.2965(97) 0.304(17) 0.288(21) 1. 0 
Cl7 Cl1- 1 a 0.490(12) 0.985(16) 0.643(22) 1. 0 
Cl8 Cl1- 1 a 0.367(12) 0.489(19) 0.028(27) 1. 0 
Cl9 Cl1- 1 a 0.577(11) 0.160(17) 0.411(19) 1. 0 
Cl10 Cl1- 1 a 0.442(12) 0.783(15) 0.879(17) 1. 0 
Cl11 Cl1- 1 a 0.6807(98) 0.549(17) 0.980(20) 1. 0 
Cl12 Cl1- 1 a 0.2040(97) 0.075(19) 0.480(23) 1. 0 
Cl13 Cl1- 1 a 0.8713(97) 0.024(16) 0.544(21) 1. 0 
Cl14 Cl1- 1 a 0.628(11) 0.421(18) 0.260(22) 1. 0 
Al1 Al3+ 1 a 0.0460(95) 0.857(16) 0.456(20) 1. 0 
Al2 Al3+ 1 a 0.484(10) 0.167(17) 0.208(21) 1. 0 

loop_
_atom_site_aniso_label
_atom_site_aniso_type_symbol
_atom_site_aniso_U_11
_atom_site_aniso_U_22
_atom_site_aniso_U_33
_atom_site_aniso_U_12
_atom_site_aniso_U_13
_atom_site_aniso_U_23
Se1 Se4+ 0.02 0.0206 0.0228 0.0026 0.0029 0.0167
Se2 Se4+ 0.0209 0.0182 0.0274 0.0024 0.0036 0.0158
Cl1 Cl1- 0.0635 0.0372 0.0659 0.017 0.0139 0.0349
Cl2 Cl1- 0.045 0.0508 0.0316 0.0206 0.0185 0.0346
Cl3 Cl1- 0.0677 0.0322 0.0199 0.0173 0.0008 0.0133
Cl4 Cl1- 0.0494 0.057 0.0553 0.0207 0.0258 0.0400
Cl5 Cl1- 0.0332 0.0592 0.071 -.0035 -.0056 0.0451
Cl6 Cl1- 0.0221 0.0356 0.0472 0.0086 0.0065 0.0256
Cl7 Cl1- 0.0505 0.0283 0.0634 0.0116 0.0097 0.0288
Cl8 Cl1- 0.0403 0.0529 0.0589 0.012 0.0196 0.0384
Cl9 Cl1- 0.0419 0.0446 0.0331 0.0215 0.0138 0.0284
Cl10 Cl1- 0.0652 0.0258 0.0127 0.0065 0.0001 0.0103
Cl11 Cl1- 0.0284 0.0394 0.0394 -.0043 -.0062 0.0301
Cl12 Cl1- 0.0253 0.0617 0.0658 -.0135 -.0075 0.0549
Cl13 Cl1- 0.0309 0.0325 0.0598 0.0169 0.0139 0.0288
Cl14 Cl1- 0.0385 0.0435 0.0552 -.0003 0.0037 0.0407
Al1 Al3+ 0.0199 0.0245 0.0373 0.0051 -.0011 0.0231
Al2 Al3+ 0.0238 0.0272 0.0282 0.0077 0.0062 0.0218
#End of data_9064-ICSD


