data_655219-ICSD
#?2014 by Fachinformationszentrum Karlsruhe, and the U.S. Secretary of 
#Commerce on behalf of the United States.  All rights reserved.
_database_code_ICSD                655219
_audit_creation_date               2008/07/07
_audit_update_record               2011/08/01
_chemical_name_systematic          'Sodium Dithioarsenate(III)'
_chemical_formula_structural       'Na (As S2)'
_chemical_formula_sum              'As1 Na1 S2'
_publ_section_title
;
Metadithioarsenite sodique a chaines infinies
;
loop_
_citation_id
_citation_journal_abbrev
_citation_year
_citation_journal_volume
_citation_page_first
_citation_page_last
_citation_journal_id_ASTM
primary 'Acta Crystallographica B (24,1968-38,1982)' 1977 33 908 910 ACBCAR
_publ_author_name                  'Palazzi, M.;Jaulmes, S.'
_cell_length_a                     7.873(3)
_cell_length_b                     11.291(2)
_cell_length_c                     5.569(1)
_cell_angle_alpha                  90.0
_cell_angle_beta                   131.99(3)
_cell_angle_gamma                  90.0
_cell_volume                       367.95
_cell_formula_units_Z              4
_symmetry_space_group_name_H-M     'P 1 21/c 1'
_symmetry_Int_Tables_number        14
_refine_ls_R_factor_all            .033
loop_
_symmetry_equiv_pos_site_id
_symmetry_equiv_pos_as_xyz
  1	'x, -y+.5, z+.5'
  2	'-x, -y, -z'
  3	'-x, y+.5, -z+.5'
  4	'x, y, z'
loop_
_atom_type_symbol
_atom_type_oxidation_number
As3+	3
Na1+	1
S2-	-2
loop_
_atom_site_label
_atom_site_type_symbol
_atom_site_symmetry_multiplicity
_atom_site_Wyckoff_symbol
_atom_site_fract_x
_atom_site_fract_y
_atom_site_fract_z
_atom_site_occupancy
_atom_site_attached_hydrogens
As1 As3+ 4 e 0.9606 0.1416 0.1827 1 0 
Na1 Na1+ 4 e 0.5095 0.1246 0.2408 1 0 
S1 S2- 4 e 0.5922 0.1242 0.8169 1 0 
S2 S2- 4 e 0.0232 0.1607 0.6535 1 0 

#End of data_655219-ICSD


