data_26809-ICSD
#?2014 by Fachinformationszentrum Karlsruhe, and the U.S. Secretary of 
#Commerce on behalf of the United States.  All rights reserved.
_database_code_ICSD                26809
_audit_creation_date               1980/01/01
_audit_update_record               2002/04/01
_chemical_name_systematic          'Trizinc Bis(borate)'
_chemical_formula_structural       'Zn3 (B O3)2'
_chemical_formula_sum              'B2 O6 Zn3'
_publ_section_title
;
The crystal structure of zinc orthoborate, Zn3 (B O3)2
;
loop_
_citation_id
_citation_journal_abbrev
_citation_year
_citation_journal_volume
_citation_page_first
_citation_page_last
_citation_journal_id_ASTM
primary
;
Zeitschrift fuer Kristallographie, Kristallgeometrie, Kristallphysik, 
Kristallchemie (-144,1977)
;
 1968 127 145 159 ZEKGAX
_publ_author_name                  'Garcia Blanco, S.;Fayos, J.'
_cell_length_a                     23.406(10)
_cell_length_b                     5.048(5)
_cell_length_c                     8.381(5)
_cell_angle_alpha                  90.
_cell_angle_beta                   97.53(5)
_cell_angle_gamma                  90.
_cell_volume                       981.7
_cell_formula_units_Z              8
_symmetry_space_group_name_H-M     'I 1 c 1'
_symmetry_Int_Tables_number        9
_refine_ls_R_factor_all            .132
loop_
_symmetry_equiv_pos_site_id
_symmetry_equiv_pos_as_xyz
  1	'x, -y, z+.5'
  2	'x, y, z'
  3	'x+.5, -y+.5, z'
  4	'x+.5, y+.5, z+.5'
loop_
_atom_type_symbol
_atom_type_oxidation_number
B3+	3
O2-	-2
Zn2+	2
loop_
_atom_site_label
_atom_site_type_symbol
_atom_site_symmetry_multiplicity
_atom_site_Wyckoff_symbol
_atom_site_fract_x
_atom_site_fract_y
_atom_site_fract_z
_atom_site_occupancy
_atom_site_attached_hydrogens
_atom_site_B_iso_or_equiv
Zn1 Zn2+ 4 a 0.0503(2) 0.8354(12) 0.1255(5) 1. 0 0.17 
Zn2 Zn2+ 4 a 0.1261(2) 0.6819(12) 0.4945(5) 1. 0 0 
Zn3 Zn2+ 4 a 0.2087(2) 0.6942(16) 0.2502(6) 1. 0 0.04 
Zn4 Zn2+ 4 a 0.4514(2) 0.3236(12) 0.3762(5) 1. 0 0.12 
Zn5 Zn2+ 4 a 0.3712(2) 0.1890(12) -.0036(5) 1. 0 0 
Zn6 Zn2+ 4 a 0.2898(2) 0.1929(12) 0.2519(5) 1. 0 0.08 
O1 O2- 4 a 0.0351(8) 0.2208(71) 0.3791(27) 1. 0 0.45 
O2 O2- 4 a 0.0816(17) 0.5984(51) 0.2923(21) 1. 0 1.15 
O3 O2- 4 a 0.0767(11) 0.1833(91) 0.1422(32) 1. 0 0.02 
O4 O2- 4 a 0.1843(9) 0.9186(53) 0.4169(31) 1. 0 0 
O5 O2- 4 a 0.2124(9) 0.326(13) 0.2987(32) 1. 0 0 
O6 O2- 4 a 0.1617(10) 0.6469(85) 0.0393(30) 1. 0 0.6 
O7 O2- 4 a 0.462(9) 0.6983(87) 0.1035(21) 1. 0 0.23 
O8 O2- 4 a 0.4178(14) 0.0765(48) 0.2145(20) 1. 0 0 
O9 O2- 4 a 0.4184(10) 0.6879(71) 0.3414(26) 1. 0 0 
O10 O2- 4 a 0.3143(9) 0.4090(48) 0.0881(23) 1. 0 0.1 
O11 O2- 4 a 0.2840(8) 0.798(13) 0.1871(32) 1. 0 0.1 
O12 O2- 4 a 0.3361(8) 0.2011(49) 0.4721(26) 1. 0 0 
B1 B3+ 4 a 0.0643(13) 0.3321(63) 0.2863(36) 1. 0 0.22 
B2 B3+ 4 a 0.1856(18) 0.1743(79) 0.4152(32) 1. 0 0 
B3 B3+ 4 a 0.4323(14) 0.7927(79) 0.2181(39) 1. 0 0.14 
B4 B3+ 4 a 0.3141(15) 0.6907(75) 0.0784(31) 1. 0 0 

#End of data_26809-ICSD


