data_10064-ICSD
#?2014 by Fachinformationszentrum Karlsruhe, and the U.S. Secretary of 
#Commerce on behalf of the United States.  All rights reserved.
_database_code_ICSD                10064
_audit_creation_date               1980/01/01
_audit_update_record               2006/04/01
_chemical_name_systematic          'Sodium Nonaoxotetracobaltate(II)'
_chemical_formula_structural       'Na10 Co4 O9'
_chemical_formula_sum              'Co4 Na10 O9'
_publ_section_title
;
Koordinationszahl 3 bei Co(II): Na10 (Co4 O9), ein 
Oligooxocobaltat(II)
;
loop_
_citation_id
_citation_journal_abbrev
_citation_year
_citation_journal_volume
_citation_page_first
_citation_page_last
_citation_journal_id_ASTM
primary 'Angewandte Chemie (German Edition)' 1979 91 71 72 ANCEAD
2 'Zeitschrift fuer Anorganische und Allgemeine Chemie (1950) (DE)'
 1980 467 158 176 ZAACAB
_publ_author_name                  'Burow, W.;Hoppe, R.'
_cell_length_a                     12.181
_cell_length_b                     8.527
_cell_length_c                     8.322
_cell_angle_alpha                  119.967
_cell_angle_beta                   87.891
_cell_angle_gamma                  116.757
_cell_volume                       648.58
_cell_formula_units_Z              2
_symmetry_space_group_name_H-M     'P -1'
_symmetry_Int_Tables_number        2
_refine_ls_R_factor_all            .061
loop_
_symmetry_equiv_pos_site_id
_symmetry_equiv_pos_as_xyz
  1	'-x, -y, -z'
  2	'x, y, z'
loop_
_atom_type_symbol
_atom_type_oxidation_number
Co2+	2
Na1+	1
O2-	-2
loop_
_atom_site_label
_atom_site_type_symbol
_atom_site_symmetry_multiplicity
_atom_site_Wyckoff_symbol
_atom_site_fract_x
_atom_site_fract_y
_atom_site_fract_z
_atom_site_occupancy
_atom_site_attached_hydrogens
Co1 Co2+ 2 i 0.6422(1) 0.3284(1) 0.9786(1) 1. 0 
Co2 Co2+ 2 i 0.3509(1) 0.0967(1) 0.1699(1) 1. 0 
Co3 Co2+ 2 i 0.8501(1) 0.8116(1) 0.7208(1) 1. 0 
Co4 Co2+ 2 i 0.8573(1) 0.3898(1) 0.5959(1) 1. 0 
Na1 Na1+ 2 i 0.8698(2) 0.7127(3) 0.0139(3) 1. 0 
Na2 Na1+ 2 i 0.1210(2) 0.8445(4) 0.8271(3) 1. 0 
Na3 Na1+ 2 i 0.6133(2) 0.0001(3) 0.5405(3) 1. 0 
Na4 Na1+ 2 i 0.8729(2) 0.9523(3) 0.4263(3) 1. 0 
Na5 Na1+ 2 i 0.6149(2) 0.1415(3) 0.2638(3) 1. 0 
Na6 Na1+ 2 i 0.3832(2) 0.5568(3) 0.3154(3) 1. 0 
Na7 Na1+ 2 i 0.8635(2) 0.5275(4) 0.2895(3) 1. 0 
Na8 Na1+ 2 i 0.6445(2) 0.7751(3) 0.1308(3) 1. 0 
Na9 Na1+ 2 i 0.1072(2) 0.7239(3) 0.1178(3) 1. 0 
Na10 Na1+ 2 i 0.6217(2) 0.5463(3) 0.4016(3) 1. 0 
O1 O2- 2 i 0.0266(3) 0.4601(5) 0.1821(5) 1. 0 
O2 O2- 2 i 0.2241(3) 0.8829(5) 0.5970(5) 1. 0 
O3 O2- 2 i 0.7849(3) 0.5273(5) 0.5428(5) 1. 0 
O4 O2- 2 i 0.0374(3) 0.9663(5) 0.2792(5) 1. 0 
O5 O2- 2 i 0.5279(3) 0.1940(5) 0.7596(5) 1. 0 
O6 O2- 2 i 0.7260(3) 0.5984(5) 0.1806(5) 1. 0 
O7 O2- 2 i 0.2525(3) 0.1875(5) 0.0968(5) 1. 0 
O8 O2- 2 i 0.5347(3) 0.7437(5) 0.6078(5) 1. 0 
O9 O2- 2 i 0.7120(3) 0.1825(5) 0.0205(5) 1. 0 

loop_
_atom_site_aniso_label
_atom_site_aniso_type_symbol
_atom_site_aniso_U_11
_atom_site_aniso_U_22
_atom_site_aniso_U_33
_atom_site_aniso_U_12
_atom_site_aniso_U_13
_atom_site_aniso_U_23
Co1 Co2+ 0.0089(3) 0.0081(3) 0.0079(3) 0.0049(2) 0.0011(2) 0.0042(2)
Co2 Co2+ 0.0090(3) 0.0099(3) 0.0086(3) 0.0046(2) 0.0010(2) 0.0054(3)
Co3 Co2+ 0.0094(3) 0.0102(3) 0.0103(3) 0.0055(2) 0.0023(2) 0.0069(3)
Co4 Co2+ 0.0084(3) 0.0086(3) 0.0085(3) 0.0043(2) 0.0007(2) 0.0044(3)
Na1 Na1+ 0.0116(7) 0.0146(8) 0.0142(8) 0.0078(6) 0.0035(6) 0.0081(6)
Na2 Na1+ 0.0196(8) 0.0134(8) 0.0183(8) 0.0052(6) 0.0065(7) 0.0086(6)
Na3 Na1+ 0.0124(7) 0.0138(7) 0.0128(7) 0.0075(6) 0.0045(6) 0.0080(6)
Na4 Na1+ 0.0122(7) 0.0142(7) 0.0137(8) 0.0062(6) 0.0017(6) 0.0073(6)
Na5 Na1+ 0.0170(7) 0.0155(7) 0.0168(8) 0.0114(6) 0.0066(6) 0.0096(6)
Na6 Na1+ 0.0144(7) 0.0137(7) 0.0142(8) 0.0044(6) 0.0034(6) 0.0087(6)
Na7 Na1+ 0.0137(7) 0.0225(8) 0.0161(8) 0.0120(6) 0.0056(6) 0.0113(6)
Na8 Na1+ 0.0140(7) 0.0139(7) 0.0138(7) 0.0095(6) 0.0044(6) 0.0069(6)
Na9 Na1+ 0.0143(7) 0.0134(7) 0.0158(8) 0.0063(6) 0.0032(6) 0.0086(6)
Na10 Na1+ 0.0145(7) 0.0151(7) 0.0145(7) 0.0087(6) 0.0040(6) 0.0097(6)
O1 O2- 0.0108(9) 0.0124(9) 0.0090(9) 0.0050(8) -.0021(8) 0.0054(8)
O2 O2- 0.0120(9) 0.0087(9) 0.0109(9) 0.0051(8) 0.0012(8) 0.0035(8)
O3 O2- 0.0157(9) 0.0112(9) 0.0126(9) 0.0094(8) 0.0029(8) 0.0061(8)
O4 O2- 0.0120(9) 0.0110(9) 0.0141(9) 0.0037(8) 0.0030(8) 0.0069(8)
O5 O2- 0.0112(9) 0.0141(9) 0.0077(9) 0.0061(8) 0.0005(8) 0.0055(8)
O6 O2- 0.0131(9) 0.0099(9) 0.0099(9) 0.0063(8) 0.0022(8) 0.0061(8)
O7 O2- 0.0147(9) 0.0109(9) 0.0089(9) 0.0081(8) 0.0029(8) 0.0073(7)
O8 O2- 0.0108(9) 0.0119(9) 0.0121(9) 0.0060(8) 0.0012(8) 0.0067(8)
O9 O2- 0.0170(9) 0.0116(9) 0.0145(9) 0.0101(8) 0.0012(9) 0.0058(8)
#End of data_10064-ICSD


