data_79341-ICSD
#?2014 by Fachinformationszentrum Karlsruhe, and the U.S. Secretary of 
#Commerce on behalf of the United States.  All rights reserved.
_database_code_ICSD                79341
_audit_creation_date               1996/10/14
_audit_update_record               2008/02/01
_chemical_name_systematic          'Potassium Dihydrogenphosphate(V)'
_chemical_formula_structural       'K (H2 P O4)'
_chemical_formula_sum              'H2 K1 O4 P1'
_publ_section_title
;
Crystal structure of a new monoclinic form of potassium dihydrogen 
phosphate containing orthophosphacidium ion, (H4 P O4)(+1)
;
loop_
_citation_id
_citation_journal_abbrev
_citation_year
_citation_journal_volume
_citation_page_first
_citation_page_last
_citation_journal_id_ASTM
primary 'Journal of Solid State Chemistry' 1995 114 219 223 JSSCBI
_publ_author_name                  'Mathew, M.;Wong-Ng, W.'
_cell_length_a                     7.4399(7)
_cell_length_b                     7.2634(9)
_cell_length_c                     9.3629(13)
_cell_angle_alpha                  90.
_cell_angle_beta                   127.696(8)
_cell_angle_gamma                  90.
_cell_volume                       400.35
_cell_formula_units_Z              4
_symmetry_space_group_name_H-M     'P 1 2/c 1'
_symmetry_Int_Tables_number        13
_refine_ls_R_factor_all            .022
loop_
_symmetry_equiv_pos_site_id
_symmetry_equiv_pos_as_xyz
  1	'x, -y, z+.5'
  2	'-x, -y, -z'
  3	'-x, y, -z+.5'
  4	'x, y, z'
loop_
_atom_type_symbol
_atom_type_oxidation_number
H1+	1
K1+	1
O2-	-2
P5+	5
loop_
_atom_site_label
_atom_site_type_symbol
_atom_site_symmetry_multiplicity
_atom_site_Wyckoff_symbol
_atom_site_fract_x
_atom_site_fract_y
_atom_site_fract_z
_atom_site_occupancy
_atom_site_attached_hydrogens
_atom_site_B_iso_or_equiv
K1 K1+ 2 f 0.5 0.0544(1) 0.75 1. 0 0 
K2 K1+ 2 e 0 0.3695(1) 0.25 1. 0 0 
P1 P5+ 2 f 0.5 0.5721(1) 0.75 1. 0 0 
P2 P5+ 2 e 0 0.8873(1) 0.25 1. 0 0 
O1 O2- 4 g 0.2748(2) 0.4479(2) 0.6144(2) 1. 0 0 
O2 O2- 4 g 0.5405(2) 0.6986(2) 0.6299(2) 1. 0 0 
O3 O2- 4 g 0.0818(2) 0.0144(2) 0.4128(2) 1. 0 0 
O4 O2- 4 g 0.8018(2) 0.7702(2) 0.2060(2) 1. 0 0 
H1 H1+ 4 g 0.309(5) 0.380(6) 0.714(4) 1. 0 9.60(15) 
H2 H1+ 4 g 0.441(4) 0.288(4) 0.023(3) 1. 0 4.4(7) 

loop_
_atom_site_aniso_label
_atom_site_aniso_type_symbol
_atom_site_aniso_U_11
_atom_site_aniso_U_22
_atom_site_aniso_U_33
_atom_site_aniso_U_12
_atom_site_aniso_U_13
_atom_site_aniso_U_23
K1 K1+ 0.0217(2) 0.0235(3) 0.0209(2) 0 0.0111(1) 0
K2 K1+ 0.0229(2) 0.0225(3) 0.0389(2) 0 0.0162(1) 0
P1 P5+ 0.0163(2) 0.0160(3) 0.0150(2) 0 0.0105(1) 0
P2 P5+ 0.0194(2) 0.0210(3) 0.0178(2) 0 0.0107(1) 0
O1 O2- 0.0284(5) 0.0309(8) 0.0198(4) -.0130(5) 0.0126(3) -.0057(5)
O2 O2- 0.0211(4) 0.0285(8) 0.0196(4) -.0037(5) 0.0114(3) 0.0027(4)
O3 O2- 0.0280(4) 0.0318(7) 0.0208(4) -.0137(5) 0.0157(3) -.0054(5)
O4 O2- 0.0273(4) 0.0242(7) 0.0198(4) -.0071(5) 0.0163(3) -.0074(4)
#End of data_79341-ICSD


