data_84613-ICSD
#?2014 by Fachinformationszentrum Karlsruhe, and the U.S. Secretary of 
#Commerce on behalf of the United States.  All rights reserved.
_database_code_ICSD                84613
_audit_creation_date               1999/01/19
_chemical_name_systematic          'Dialuminium Silicate Oxide'
_chemical_formula_structural       'Al2 (Si O4) O'
_chemical_formula_sum              'Al2 O5 Si1'
_chemical_name_mineral             Andalusite
_publ_section_title
;
Transferability of empirical force fields in silicates : lattice-
dynamical evaluation of atomic displacement parameters and 
thermodynamic properties for the Al2 O Si O4 polymorphs
;
loop_
_citation_id
_citation_journal_abbrev
_citation_year
_citation_journal_volume
_citation_page_first
_citation_page_last
_citation_journal_id_ASTM
primary 'Acta Crystallographica, Section B: Structural Science'
 1997 53 82 93 ASBSDK
_publ_author_name
;
Pilati, T.;Demartin, F.;Gramaccioli, C.M.
;
_cell_length_a                     7.7992(6)
_cell_length_b                     7.9050(6)
_cell_length_c                     5.5591(5)
_cell_angle_alpha                  90.
_cell_angle_beta                   90.
_cell_angle_gamma                  90.
_cell_volume                       342.73
_cell_formula_units_Z              4
_symmetry_space_group_name_H-M     'P n n m'
_symmetry_Int_Tables_number        58
_refine_ls_R_factor_all            .014
loop_
_symmetry_equiv_pos_site_id
_symmetry_equiv_pos_as_xyz
  1	'x+.5, -y+.5, z+.5'
  2	'-x+.5, y+.5, z+.5'
  3	'x, y, -z'
  4	'-x, -y, -z'
  5	'-x+.5, y+.5, -z+.5'
  6	'x+.5, -y+.5, -z+.5'
  7	'-x, -y, z'
  8	'x, y, z'
loop_
_atom_type_symbol
_atom_type_oxidation_number
Al3+	3
O2-	-2
Si4+	4
loop_
_atom_site_label
_atom_site_type_symbol
_atom_site_symmetry_multiplicity
_atom_site_Wyckoff_symbol
_atom_site_fract_x
_atom_site_fract_y
_atom_site_fract_z
_atom_site_occupancy
_atom_site_attached_hydrogens
Si1 Si4+ 4 g 0.24606(3) 0.25217(3) 0 1. 0 
Al1 Al3+ 4 e 0 0 0.24196(4) 1. 0 
Al2 Al3+ 4 g 0.37054(3) 0.13900(3) 0.5 1. 0 
O1 O2- 4 g 0.42326(8) 0.36293(7) 0.5 1. 0 
O2 O2- 4 g 0.42438(8) 0.36293(7) 0 1. 0 
O3 O2- 4 g 0.10280(7) 0.40022(7) 0 1. 0 
O4 O2- 8 h 0.23064(5) 0.13397(5) 0.23948(8) 1. 0 

loop_
_atom_site_aniso_label
_atom_site_aniso_type_symbol
_atom_site_aniso_U_11
_atom_site_aniso_U_22
_atom_site_aniso_U_33
_atom_site_aniso_U_12
_atom_site_aniso_U_13
_atom_site_aniso_U_23
Si1 Si4+ 0.0034(2) 0.0039(2) 0.0042(2) 0 0 0
Al1 Al3+ 0.0069(2) 0.0051(2) 0.0037(2) 0.0017(2) 0 0
Al2 Al3+ 0.0036(2) 0.0045(2) 0.0046(2) 0 0 0
O1 O2- 0.0063(2) 0.0047(2) 0.0051(2) -.0005(2) 0 0
O2 O2- 0.0047(2) 0.0062(2) 0.0050(2) -.0013(2) 0 0
O3 O2- 0.0039(2) 0.0044(2) 0.0130(2) 0.0002(2) 0 0
O4 O2- 0.0059(2) 0.0066(2) 0.0050(2) -.0014(1) -.0010(2) 0.0013(2)
#End of data_84613-ICSD


