data_151585-ICSD
#?2014 by Fachinformationszentrum Karlsruhe, and the U.S. Secretary of 
#Commerce on behalf of the United States.  All rights reserved.
_database_code_ICSD                151585
_audit_creation_date               2006/10/01
_chemical_name_systematic          'Calcium Digermanate - Ht'
_chemical_formula_structural       'Ca (Ge2 O5)'
_chemical_formula_sum              'Ca1 Ge2 O5'
_publ_section_title
;
Structure and phase transition of Ca Ge2 O5 revisited
;
loop_
_citation_id
_citation_journal_abbrev
_citation_year
_citation_journal_volume
_citation_page_first
_citation_page_last
_citation_journal_id_ASTM
primary 'Physics and Chemistry of Minerals' 2004 31 224 231 PCMIDU
_publ_author_name                  'Malcherek, T.;Bosenick, A.'
_cell_length_a                     6.5795(3)
_cell_length_b                     8.8321(4)
_cell_length_c                     6.8893(3)
_cell_angle_alpha                  90.
_cell_angle_beta                   112.933(7)
_cell_angle_gamma                  90.
_cell_volume                       368.7
_cell_formula_units_Z              4
_symmetry_space_group_name_H-M     'C 1 2/c 1'
_symmetry_Int_Tables_number        15
_refine_ls_R_factor_all            .084
loop_
_symmetry_equiv_pos_site_id
_symmetry_equiv_pos_as_xyz
  1	'x, -y, z+.5'
  2	'-x, -y, -z'
  3	'-x, y, -z+.5'
  4	'x, y, z'
  5	'x+.5, -y+.5, z+.5'
  6	'-x+.5, -y+.5, -z'
  7	'-x+.5, y+.5, -z+.5'
  8	'x+.5, y+.5, z'
loop_
_atom_type_symbol
_atom_type_oxidation_number
Ca2+	2
Ge4+	4
O2-	-2
loop_
_atom_site_label
_atom_site_type_symbol
_atom_site_symmetry_multiplicity
_atom_site_Wyckoff_symbol
_atom_site_fract_x
_atom_site_fract_y
_atom_site_fract_z
_atom_site_occupancy
_atom_site_attached_hydrogens
_atom_site_U_iso_or_equiv
Ca1 Ca2+ 4 e 0 0.6703(5) 0.250 1. 0 0.0161(16) 
Ge1 Ge4+ 4 e 0 0.3139(3) 0.250 1. 0 0.0086(10) 
Ge2 Ge4+ 4 a 0 0 0 1. 0 0.0096(9) 
O1 O2- 4 e 0 0.9287(12) 0.250 1. 0 0.0105(41) 
O2 O2- 8 f 0.1865(12) 0.4387(9) 0.4245(13) 1. 0 0.0161(31) 
O3 O2- 8 f 0.1117(13) 0.7971(9) 0.6025(14) 1. 0 0.0115(28) 

#End of data_151585-ICSD


