data_9627-ICSD
#?2014 by Fachinformationszentrum Karlsruhe, and the U.S. Secretary of 
#Commerce on behalf of the United States.  All rights reserved.
_database_code_ICSD                9627
_audit_creation_date               1980/01/01
_audit_update_record               1985/04/19
_chemical_name_systematic          'Sodium Dioxotriargentate'
_chemical_formula_structural       'Na Ag3 O2'
_chemical_formula_sum              'Ag3 Na1 O2'
_publ_section_title                'Ueber Na Ag3 O2'
loop_
_citation_id
_citation_journal_abbrev
_citation_year
_citation_journal_volume
_citation_page_first
_citation_page_last
_citation_journal_id_ASTM
primary
;
Zeitschrift fuer Naturforschung, Teil B. Anorganische Chemie, 
Organische Chemie (2,1947-32,1977)
;
 1976 31 1544 1544 ZENBAX
_publ_author_name                  'Jansen, M.'
_cell_length_a                     6.159(3)
_cell_length_b                     10.439(4)
_cell_length_c                     5.972(3)
_cell_angle_alpha                  90.
_cell_angle_beta                   90.
_cell_angle_gamma                  90.
_cell_volume                       383.96
_cell_formula_units_Z              4
_symmetry_space_group_name_H-M     'I b a m'
_symmetry_Int_Tables_number        72
loop_
_symmetry_equiv_pos_site_id
_symmetry_equiv_pos_as_xyz
  1	'-x, y, z+.5'
  2	'x, -y, z+.5'
  3	'x, y, -z'
  4	'-x, -y, -z'
  5	'x, -y, -z+.5'
  6	'-x, y, -z+.5'
  7	'-x, -y, z'
  8	'x, y, z'
  9	'-x+.5, y+.5, z'
 10	'x+.5, -y+.5, z'
 11	'x+.5, y+.5, -z+.5'
 12	'-x+.5, -y+.5, -z+.5'
 13	'x+.5, -y+.5, -z'
 14	'-x+.5, y+.5, -z'
 15	'-x+.5, -y+.5, z+.5'
 16	'x+.5, y+.5, z+.5'
loop_
_atom_type_symbol
_atom_type_oxidation_number
Ag1+	1
Na1+	1
O2-	-2
loop_
_atom_site_label
_atom_site_type_symbol
_atom_site_symmetry_multiplicity
_atom_site_Wyckoff_symbol
_atom_site_fract_x
_atom_site_fract_y
_atom_site_fract_z
_atom_site_occupancy
_atom_site_attached_hydrogens
Na1 Na1+ 4 b 0.5 0 0.25 1. 0 
Ag1 Ag1+ 4 c 0 0 0 1. 0 
Ag2 Ag1+ 8 e 0.25 0.25 0.25 1. 0 
O1 O2- 8 j 0.2889 0.1103 0 1. 0 

#End of data_9627-ICSD


