data_602576-ICSD
#?2014 by Fachinformationszentrum Karlsruhe, and the U.S. Secretary of 
#Commerce on behalf of the United States.  All rights reserved.
_database_code_ICSD                602576
_audit_creation_date               2011/02/01
_chemical_name_systematic
;
Potassium Yttrium Tetrathiosilicate
;
_chemical_formula_structural       'K Y (Si S4)'
_chemical_formula_sum              'K1 S4 Si1 Y1'
_publ_section_title
;
Synthesis and structures of the quaternary chalcogenides of the type 
K Ln M Q4 (Ln = La, Nd, Gd, Y; M = Si, Ge; Q = S,
;
loop_
_citation_id
_citation_journal_abbrev
_citation_year
_citation_journal_volume
_citation_page_first
_citation_page_last
_citation_journal_id_ASTM
primary 'Journal of Solid State Chemistry' 1993 107 347 355 JSSCBI
_publ_author_name                  'Wu, P.;Ibers, J.A.'
_cell_length_a                     6.37(2)
_cell_length_b                     6.56(2)
_cell_length_c                     8.61(3)
_cell_angle_alpha                  90.0
_cell_angle_beta                   108.1(4)
_cell_angle_gamma                  90.0
_cell_volume                       341.98
_cell_formula_units_Z              2
_symmetry_space_group_name_H-M     'P 1 21 1'
_symmetry_Int_Tables_number        4
loop_
_symmetry_equiv_pos_site_id
_symmetry_equiv_pos_as_xyz
  1	'-x, y+.5, -z'
  2	'x, y, z'
loop_
_atom_type_symbol
_atom_type_oxidation_number
K1+	1
S2-	-2
Si4+	4
Y3+	3
loop_
_atom_site_label
_atom_site_type_symbol
_atom_site_symmetry_multiplicity
_atom_site_Wyckoff_symbol
_atom_site_fract_x
_atom_site_fract_y
_atom_site_fract_z
_atom_site_occupancy
_atom_site_attached_hydrogens
Y1 Y3+ 2 a 0.231 0 0.549 1. 0 
K1 K1+ 2 a 0.270 0.022 0.064 1. 0 
Si1 Si4+ 2 a 0.216 0.537 0.326 1. 0 
S1 S2- 2 a 0.575 0.093 0.431 1. 0 
S2 S2- 2 a 0.418 0.536 0.170 1. 0 
S3 S2- 2 a 0.018 0.273 0.300 1. 0 
S4 S2- 2 a 0.025 0.272 0.719 1. 0 

#End of data_602576-ICSD


