data_171399-ICSD
#?2014 by Fachinformationszentrum Karlsruhe, and the U.S. Secretary of 
#Commerce on behalf of the United States.  All rights reserved.
_database_code_ICSD                171399
_audit_creation_date               2006/10/01
_chemical_name_systematic          'Calcium Pentafluoroaluminate'
_chemical_formula_structural       'Ca Al F5'
_chemical_formula_sum              'Al1 Ca1 F5'
_publ_section_title
;
Structural investigations of beta-Ca Al F5 by coupling powder XRD, 
NMR, EPR and spectroscopic parameter calculations
;
loop_
_citation_id
_citation_journal_abbrev
_citation_year
_citation_journal_volume
_citation_journal_issue
_citation_page_first
_citation_page_last
_citation_journal_id_ASTM
primary 'Journal of Solid State Chemistry' 2005 178 12 3655 3661 JSSCBI
_publ_author_name
;
Body, M.;Silly, G.;Legein, C.;Buzare, J.Y.;Calvayrac, Y.;Blaha, P.
;
_cell_length_a                     5.3361(1)
_cell_length_b                     9.8298(2)
_cell_length_c                     7.3271(1)
_cell_angle_alpha                  90.000
_cell_angle_beta                   109.911(1)
_cell_angle_gamma                  90.000
_cell_volume                       361.35
_cell_formula_units_Z              4
_symmetry_space_group_name_H-M     'P 1 21/c 1'
_symmetry_Int_Tables_number        14
_refine_ls_R_factor_all            .14
loop_
_symmetry_equiv_pos_site_id
_symmetry_equiv_pos_as_xyz
  1	'x, -y+.5, z+.5'
  2	'-x, -y, -z'
  3	'-x, y+.5, -z+.5'
  4	'x, y, z'
loop_
_atom_type_symbol
_atom_type_oxidation_number
Al3+	3
Ca2+	2
F1-	-1
loop_
_atom_site_label
_atom_site_type_symbol
_atom_site_symmetry_multiplicity
_atom_site_Wyckoff_symbol
_atom_site_fract_x
_atom_site_fract_y
_atom_site_fract_z
_atom_site_occupancy
_atom_site_attached_hydrogens
_atom_site_B_iso_or_equiv
Ca1 Ca2+ 4 e 0.4717(4) 0.4818(2) 0.2460(4) 1.000 0 2.9(1) 
Al1 Al3+ 4 e 0.0985(5) 0.2502(4) -0.1001(6) 1.000 0 2.1(1) 
F1 F1- 4 e 0.1081(8) 0.6104(5) 0.1751(8) 1.000 0 3.4(1) 
F2 F1- 4 e 0.8468(9) 0.3632(4) 0.3541(8) 1.000 0 2.3(1) 
F3 F1- 4 e 0.6273(8) 0.6277(4) 0.0603(8) 1.000 0 3.7(2) 
F4 F1- 4 e 0.1473(6) 0.2812(4) 0.1574(9) 1.000 0 2.7(1) 
F5 F1- 4 e 0.3368(8) 0.1207(4) 0.9849(9) 1.000 0 3.0(1) 

#End of data_171399-ICSD


