data_60953-ICSD
#?2014 by Fachinformationszentrum Karlsruhe, and the U.S. Secretary of 
#Commerce on behalf of the United States.  All rights reserved.
_database_code_ICSD                60953
_audit_creation_date               1988/02/22
_audit_update_record               2012/08/01
_chemical_name_systematic          'Hexabarium Heptazinc Fluoride'
_chemical_formula_structural       'Ba6 Zn7 F26'
_chemical_formula_sum              'Ba6 F26 Zn7'
_publ_section_title                'Crystal structure of Ba6 Zn7 F26'
loop_
_citation_id
_citation_journal_abbrev
_citation_year
_citation_journal_volume
_citation_page_first
_citation_page_last
_citation_journal_id_ASTM
primary 'Journal of Solid State Chemistry' 1985 59 103 110 JSSCBI
_publ_author_name
;
Renaudin, J.;Samouel, M.;Leblanc, M.;de Kozak, A.;Ferey, G.
;
_cell_length_a                     19.46(1)
_cell_length_b                     5.956(2)
_cell_length_c                     12.243(5)
_cell_angle_alpha                  90.
_cell_angle_beta                   128.88(1)
_cell_angle_gamma                  90.
_cell_volume                       1104.65
_cell_formula_units_Z              2
_symmetry_space_group_name_H-M     'C 1 2/m 1'
_symmetry_Int_Tables_number        12
_refine_ls_R_factor_all            .046
loop_
_symmetry_equiv_pos_site_id
_symmetry_equiv_pos_as_xyz
  1	'-x, y, -z'
  2	'-x, -y, -z'
  3	'x, -y, z'
  4	'x, y, z'
  5	'-x+.5, y+.5, -z'
  6	'-x+.5, -y+.5, -z'
  7	'x+.5, -y+.5, z'
  8	'x+.5, y+.5, z'
loop_
_atom_type_symbol
_atom_type_oxidation_number
Ba2+	2
F1-	-1
Zn2+	2
loop_
_atom_site_label
_atom_site_type_symbol
_atom_site_symmetry_multiplicity
_atom_site_Wyckoff_symbol
_atom_site_fract_x
_atom_site_fract_y
_atom_site_fract_z
_atom_site_occupancy
_atom_site_attached_hydrogens
Ba1 Ba2+ 4 i 0.1475(1) 0 0.1522(1) 1. 0 
Ba2 Ba2+ 4 i 0.1433(1) 0.5 0.4043(1) 1. 0 
Ba3 Ba2+ 4 i 0.3437(1) 0 0.1054(1) 1. 0 
Zn1 Zn2+ 2 b 0 0.5 0 1. 0 
Zn2 Zn2+ 4 i 0.2786(1) 0.5 0.2879(2) 1. 0 
Zn3 Zn2+ 4 i 0.4877(1) 0.5 0.2215(2) 1. 0 
Zn4 Zn2+ 4 h 0.5 0.2445(3) 0.5 1. 0 
F1 F1- 8 j 0.2586(4) 0.264(1) 0.3809(6) 1. 0 
F2 F1- 8 j 0.2546(4) 0.2697(10) 0.1486(6) 1. 0 
F3 F1- 8 j 0.4910(5) 0.2349(10) 0.3254(6) 1. 0 
F4 F1- 8 j 0.4818(7) 0.2489(16) 0.0923(8) 1. 0 
F5 F1- 4 i 0.4102(6) 0 0.420(1) 1. 0 
F6 F1- 4 i 0.6153(8) 0.5 0.3278(12) 1. 0 
F7 F1- 4 i 0.3599(7) 0.5 0.0809(10) 1. 0 
F8 F1- 4 i 0.4128(6) 0.5 0.4204(9) 1. 0 
F9 F1- 4 i 0.1290(7) 0.5 0.1563(11) 1. 0 

loop_
_atom_site_aniso_label
_atom_site_aniso_type_symbol
_atom_site_aniso_U_11
_atom_site_aniso_U_22
_atom_site_aniso_U_33
_atom_site_aniso_U_12
_atom_site_aniso_U_13
_atom_site_aniso_U_23
Ba1 Ba2+ 0.0135(4) 0.0094(3) 0.0113(3) 0 0.0084(3) 0
Ba2 Ba2+ 0.0127(4) 0.0166(4) 0.0115(3) 0 0.0084(3) 0
Ba3 Ba2+ 0.0127(4) 0.0115(3) 0.0137(3) 0 0.0086(3) 0
Zn1 Zn2+ 0.0086(10) 0.0055(8) 0.0069(8) 0 0.0044(8) 0
Zn2 Zn2+ 0.0102(7) 0.0076(6) 0.0118(6) 0 0.0075(6) 0
Zn3 Zn2+ 0.0140(8) 0.0098(6) 0.0112(6) 0 0.0087(7) 0
Zn4 Zn2+ 0.0142(7) 0.0070(6) 0.0099(6) 0 0.0076(6) 0
F1 F1- 0.0183(28) 0.0104(24) 0.0152(25) 0.0027(20) 0.0113(24) -.0012(22)
F2 F1- 0.0171(31) 0.0113(25) 0.0175(28) -.0028(20) 0.0113(27) -.0006(21)
F3 F1- 0.0246(33) 0.0112(25) 0.0147(26) 0.0005(20) 0.0123(27) -.0010(24)
F4 F1- 0.0564(67) 0.0569(62) 0.0181(35) -.0078(35) 0.0106(42) 0.0248(52)
F5 F1- 0.0103(39) 0.0086(34) 0.0236(43) 0 0.0087(37) 0
F6 F1- 0.0173(52) 0.0701(87) 0.0240(51) 0 0.0144(47) 0
F7 F1- 0.0115(44) 0.0446(61) 0.0167(41) 0 0.0086(38) 0
F8 F1- 0.0129(42) 0.0085(35) 0.0199(41) 0 0.0073(37) 0
F9 F1- 0.0114(47) 0.0372(61) 0.0247(51) 0 0.0010(42) 0
#End of data_60953-ICSD


