data_48020-ICSD
#?2014 by Fachinformationszentrum Karlsruhe, and the U.S. Secretary of 
#Commerce on behalf of the United States.  All rights reserved.
_database_code_ICSD                48020
_audit_creation_date               1980/01/01
_audit_update_record               2009/02/01
_chemical_name_systematic
;
Calcium Beryllium Fluoride Phosphate(V)
;
_chemical_formula_structural       'Ca Be F (P O4)'
_chemical_formula_sum              'Be1 Ca1 F1 O4 P1'
_chemical_name_mineral             Herderite
_publ_section_title
;
The structures of herderite, datolite and Gadolinite determined by 
direct methods
;
loop_
_citation_id
_citation_journal_abbrev
_citation_year
_citation_journal_volume
_citation_journal_issue
_citation_page_first
_citation_page_last
_citation_journal_id_ASTM
primary Kristallografiya 1959 4 3 324 340 KRISAJ
2 'Soviet Physics, Crystallography (= Kristallografiya)'
 1959 4 3 300 314 SPHCA6
_publ_author_name                  'Pavlov, P.V.;Belov, N.V.'
_cell_length_a                     9.8
_cell_length_b                     7.68
_cell_length_c                     4.8
_cell_angle_alpha                  90.
_cell_angle_beta                   90.1
_cell_angle_gamma                  90.
_cell_volume                       361.27
_cell_formula_units_Z              4
_symmetry_space_group_name_H-M     'P 1 21/a 1'
_symmetry_Int_Tables_number        14
_refine_ls_R_factor_all            .155
loop_
_symmetry_equiv_pos_site_id
_symmetry_equiv_pos_as_xyz
  1	'x+.5, -y+.5, z'
  2	'-x, -y, -z'
  3	'-x+.5, y+.5, -z'
  4	'x, y, z'
loop_
_atom_type_symbol
_atom_type_oxidation_number
Be2+	2
Ca2+	2
F1-	-1
O2-	-2
P5+	5
loop_
_atom_site_label
_atom_site_type_symbol
_atom_site_symmetry_multiplicity
_atom_site_Wyckoff_symbol
_atom_site_fract_x
_atom_site_fract_y
_atom_site_fract_z
_atom_site_occupancy
_atom_site_attached_hydrogens
_atom_site_B_iso_or_equiv
Ca1 Ca2+ 4 e 0.3300(4) 0.1130(5) 0.9950(8) 1. 0 0.58 
P1 P5+ 4 e 0.0790(6) 0.2690(8) 0.4750(12) 1. 0 0.58 
Be1 Be2+ 4 e 0.3330(34) 0.4080(43) 0.5580(69) 1. 0 0.58 
O1 O2- 4 e 0.0410(15) 0.3970(19) 0.2500(37) 1. 0 0.58 
O2 O2- 4 e 0.4560(15) 0.2780(19) 0.6500(37) 1. 0 0.58 
O3 O2- 4 e 0.1950(15) 0.3430(19) 0.6730(37) 1. 0 0.58 
O4 O2- 4 e 0.1410(15) 0.1110(19) 0.3330(37) 1. 0 0.58 
F1 F1- 4 e 0.3300(13) 0.4170(17) 0.2090(27) 1. 0 0.58 

#End of data_48020-ICSD


