data_99703-ICSD
#?2014 by Fachinformationszentrum Karlsruhe, and the U.S. Secretary of 
#Commerce on behalf of the United States.  All rights reserved.
_database_code_ICSD                99703
_audit_creation_date               2005/04/01
_audit_update_record               2006/04/01
_chemical_name_systematic          'Dipotassium Tetrabromozincate - F'
_chemical_formula_structural       'K2 (Zn Br4)'
_chemical_formula_sum              'Br4 K2 Zn1'
_publ_section_title
;
Molecular dynamics simulation and X-ray structural studies of mode-
coupling in monoclinic K2 Zn Br4
;
loop_
_citation_id
_citation_journal_abbrev
_citation_year
_citation_journal_volume
_citation_journal_issue
_citation_page_first
_citation_page_last
_citation_journal_id_ASTM
primary 'Journal of the Physical Society of Japan' 2003 72 10 2533 2538 JUPSAU
2 'Golden Book of Phase Transitions, Wroclaw' 2002 1- 1 123 GBOPT5
_publ_author_name                  'Machida, M.;Itho, H.;Koyano, N.'
_cell_length_a                     8.998(4)
_cell_length_b                     7.417(3)
_cell_length_c                     7.216(4)
_cell_angle_alpha                  90
_cell_angle_beta                   108.89(4)
_cell_angle_gamma                  90
_cell_volume                       455.65
_cell_formula_units_Z              2
_symmetry_space_group_name_H-M     'P 1 21 1'
_symmetry_Int_Tables_number        4
_refine_ls_R_factor_all            .042
loop_
_symmetry_equiv_pos_site_id
_symmetry_equiv_pos_as_xyz
  1	'-x, y+.5, -z'
  2	'x, y, z'
loop_
_atom_type_symbol
_atom_type_oxidation_number
Br1-	-1
K1+	1
Zn2+	2
loop_
_atom_site_label
_atom_site_type_symbol
_atom_site_symmetry_multiplicity
_atom_site_Wyckoff_symbol
_atom_site_fract_x
_atom_site_fract_y
_atom_site_fract_z
_atom_site_occupancy
_atom_site_attached_hydrogens
K1 K1+ 2 a 0.0481(3) 0.2742(6) 0.7103(4) 1. 0 
K2 K1+ 2 a 0.5717(3) 0.2755(6) 0.7747(4) 1. 0 
Zn1 Zn2+ 2 a 0.2042(2) 0.250 0.2799(2) 1. 0 
Br1 Br1- 2 a -0.0705(2) 0.2271(4) 0.1010(2) 1. 0 
Br2 Br1- 2 a 0.3688(2) 0.2329(5) 0.0779(2) 1. 0 
Br3 Br1- 2 a 0.2595(2) 0.5111(4) 0.4861(2) 1. 0 
Br4 Br1- 2 a 0.2689(2) 0.0060(4) 0.5153(2) 1. 0 

loop_
_atom_site_aniso_label
_atom_site_aniso_type_symbol
_atom_site_aniso_U_11
_atom_site_aniso_U_22
_atom_site_aniso_U_33
_atom_site_aniso_U_12
_atom_site_aniso_U_13
_atom_site_aniso_U_23
K1 K1+ .018(1) .029(2) .019(1) .000(1) .008(1) .001(1)
K2 K1+ .018(1) .030(2) .022(1) -.002(1) .009(1) .001(1)
Zn1 Zn2+ .017(1) .015(1) .014(1) .000(1) .008(1) .000(1)
Br1 Br1- .015(1) .040(1) .021(1) .000(1) .006(1) .003(1)
Br2 Br1- .017(1) .049(1) .016(1) .002(1) .010(1) .003(1)
Br3 Br1- .024(1) .012(1) .022(1) .000(1) .009(1) -.001(1)
Br4 Br1- .021(1) .012(1) .017(1) .000(1) .007(1) .001(1)
#End of data_99703-ICSD


