data_93953-ICSD
#?2014 by Fachinformationszentrum Karlsruhe, and the U.S. Secretary of 
#Commerce on behalf of the United States.  All rights reserved.
_database_code_ICSD                93953
_audit_creation_date               2003/04/01
_chemical_name_systematic          'Aluminium Phosphate(V)'
_chemical_formula_structural       'Al (P O4)'
_chemical_formula_sum              'Al1 O4 P1'
_publ_section_title
;
An effective harmonic potential for aluminophosphate molecular sieves 
: application to Al P O4-5
;
loop_
_citation_id
_citation_journal_abbrev
_citation_year
_citation_journal_volume
_citation_page_first
_citation_page_last
_citation_journal_id_ASTM
primary 'Microporous and Mesoporous Materials' 2001 42 103 111 MIMMFJ
_publ_author_name
;
Demontis, P.;Gulin Gonzalez, J.;Suffritti, G.B.;Tilocca, A.;de las 
Pozas, C.
;
_cell_length_a                     13.74
_cell_length_b                     13.74
_cell_length_c                     8.474
_cell_angle_alpha                  90
_cell_angle_beta                   90
_cell_angle_gamma                  120
_cell_volume                       1385.46
_cell_formula_units_Z              12
_symmetry_space_group_name_H-M     'P 6 c c'
_symmetry_Int_Tables_number        184
loop_
_symmetry_equiv_pos_site_id
_symmetry_equiv_pos_as_xyz
  1	'x, x-y, z+.5'
  2	'-x+y, y, z+.5'
  3	'-y, -x, z+.5'
  4	'-x, -x+y, z+.5'
  5	'x-y, -y, z+.5'
  6	'y, x, z+.5'
  7	'x-y, x, z'
  8	'y, -x+y, z'
  9	'-x, -y, z'
 10	'-x+y, -x, z'
 11	'-y, x-y, z'
 12	'x, y, z'
loop_
_atom_type_symbol
_atom_type_oxidation_number
Al3+	3
O2-	-2
P5+	5
loop_
_atom_site_label
_atom_site_type_symbol
_atom_site_symmetry_multiplicity
_atom_site_Wyckoff_symbol
_atom_site_fract_x
_atom_site_fract_y
_atom_site_fract_z
_atom_site_occupancy
_atom_site_attached_hydrogens
_atom_site_B_iso_or_equiv
P1 P5+ 12 d 0.4529 0.3281 0.0530 1. 0 2.25 
Al1 Al3+ 12 d 0.4571 0.3382 0.4250 1. 0 1.89 
O1 O2- 12 d 0.4214 0.2090 0.0080 1. 0 4.18 
O2 O2- 12 d 0.4550 0.3299 0.2510 1. 0 5.33 
O3 O2- 12 d 0.3658 0.3597 0.0033 1. 0 4.11 
O4 O2- 12 d 0.5742 0.4175 0.0070 1. 0 5.03 

#End of data_93953-ICSD


