data_408693-ICSD
#?2014 by Fachinformationszentrum Karlsruhe, and the U.S. Secretary of 
#Commerce on behalf of the United States.  All rights reserved.
_database_code_ICSD                408693
_audit_creation_date               1999/06/02
_audit_update_record               2008/02/01
_chemical_name_systematic          'Calcium Copper Diarsenate(V)'
_chemical_formula_structural       'Ca Cu (As2 O7)'
_chemical_formula_sum              'As2 Ca1 Cu1 O7'
_publ_section_title
;
Synthese und Kristallstruktur von Calcium-Kupfer-Diarsenat Ca Cu As2 
O7
;
loop_
_citation_id
_citation_journal_abbrev
_citation_year
_citation_journal_volume
_citation_page_first
_citation_page_last
_citation_journal_id_ASTM
primary 'Zeitschrift fuer Anorganische und Allgemeine Chemie (1950) (DE)'
 1998 624 1796 1800 ZAACAB
_publ_author_name                  'Staack, M.;Mueller Buschbaum, H.'
_cell_length_a                     7.2720(11)
_cell_length_b                     8.9458(13)
_cell_length_c                     9.3065(12)
_cell_angle_alpha                  90.
_cell_angle_beta                   109.480(11)
_cell_angle_gamma                  90.
_cell_volume                       570.77
_cell_formula_units_Z              4
_symmetry_space_group_name_H-M     'P 1 21/c 1'
_symmetry_Int_Tables_number        14
_refine_ls_R_factor_all            .0741
loop_
_symmetry_equiv_pos_site_id
_symmetry_equiv_pos_as_xyz
  1	'x, -y+.5, z+.5'
  2	'-x, -y, -z'
  3	'-x, y+.5, -z+.5'
  4	'x, y, z'
loop_
_atom_type_symbol
_atom_type_oxidation_number
As5+	5
Ca2+	2
Cu2+	2
O2-	-2
loop_
_atom_site_label
_atom_site_type_symbol
_atom_site_symmetry_multiplicity
_atom_site_Wyckoff_symbol
_atom_site_fract_x
_atom_site_fract_y
_atom_site_fract_z
_atom_site_occupancy
_atom_site_attached_hydrogens
As1 As5+ 4 e 0.02184(10) 0.19973(7) 0.45492(8) 1. 0 
As2 As5+ 4 e -.57961(11) 0.26181(8) 0.23520(8) 1. 0 
Cu1 Cu2+ 4 e -.21283(13) 0.44682(9) 0.18073(10) 1. 0 
Ca1 Ca2+ 4 e 0.2490(2) 0.56651(15) 0.4387(2) 1. 0 
O1 O2- 4 e 0.0020(7) 0.0870(5) 0.3063(5) 1. 0 
O2 O2- 4 e -.3667(7) 0.2702(5) 0.1999(5) 1. 0 
O3 O2- 4 e 0.0119(7) 0.3800(5) 0.4129(6) 1. 0 
O4 O2- 4 e -.7542(7) 0.3561(6) 0.0810(6) 1. 0 
O5 O2- 4 e -.5697(7) 0.3582(5) 0.3918(5) 1. 0 
O6 O2- 4 e -.6526(8) 0.0825(5) 0.2233(6) 1. 0 
O7 O2- 4 e -.1514(7) 0.1811(5) 0.5354(5) 1. 0 

loop_
_atom_site_aniso_label
_atom_site_aniso_type_symbol
_atom_site_aniso_U_11
_atom_site_aniso_U_22
_atom_site_aniso_U_33
_atom_site_aniso_U_12
_atom_site_aniso_U_13
_atom_site_aniso_U_23
As1 As5+ 0.0109(3) 0.0048(3) 0.0096(3) 0.0003(2) 0.0042(2) 0.0000(2)
As2 As5+ 0.0136(3) 0.0088(3) 0.0154(3) -.0004(3) 0.0060(3) -.0007(2)
Cu1 Cu2+ 0.0144(4) 0.0056(4) 0.0128(4) -.0026(3) 0.0084(3) -.0018(3)
Ca1 Ca2+ 0.0109(6) 0.0051(5) 0.0154(6) 0.0003(5) 0.0028(5) -.0012(5)
O1 O2- 0.028(2) 0.026(2) 0.025(2) 0.003(2) 0.010(2) -.003(2)
O2 O2- 0.026(2) 0.020(2) 0.030(2) -.001(2) 0.013(2) 0.001(2)
O3 O2- 0.032(2) 0.017(2) 0.035(2) 0.001(2) 0.009(2) 0.001(2)
O4 O2- 0.031(3) 0.023(2) 0.032(2) 0.001(2) 0.003(2) 0.000(2)
O5 O2- 0.035(3) 0.024(2) 0.025(2) 0.003(2) 0.012(2) -.002(2)
O6 O2- 0.037(3) 0.019(2) 0.046(3) -.006(2) 0.021(2) -.003(2)
O7 O2- 0.030(2) 0.027(2) 0.027(2) 0.003(2) 0.015(2) 0.005(2)
#End of data_408693-ICSD


