data_31194-ICSD
#?2014 by Fachinformationszentrum Karlsruhe, and the U.S. Secretary of 
#Commerce on behalf of the United States.  All rights reserved.
_database_code_ICSD                31194
_audit_creation_date               1983/12/31
_audit_update_record               2012/02/01
_chemical_name_systematic          'Silver Mercury Arsenic Sulfide'
_chemical_formula_structural       'Ag Hg As S3'
_chemical_formula_sum              'Ag1 As1 Hg1 S3'
_chemical_name_mineral             Laffittite
_publ_section_title
;
Laffittite, Ag Hg As S3: crystal structure and second occurrence from 
the Getchell mine, Nevada
;
loop_
_citation_id
_citation_journal_abbrev
_citation_year
_citation_journal_volume
_citation_page_first
_citation_page_last
_citation_journal_id_ASTM
primary 'American Mineralogist' 1983 68 235 244 AMMIAY
_publ_author_name                  'Nakai, I.;Appleman, D.E.'
_cell_length_a                     7.732(3)
_cell_length_b                     11.285(7)
_cell_length_c                     6.643(4)
_cell_angle_alpha                  90.
_cell_angle_beta                   115.16(3)
_cell_angle_gamma                  90.
_cell_volume                       524.65
_cell_formula_units_Z              4
_symmetry_space_group_name_H-M     'A 1 a 1'
_symmetry_Int_Tables_number        9
_refine_ls_R_factor_all            .072
loop_
_symmetry_equiv_pos_site_id
_symmetry_equiv_pos_as_xyz
  1	'x+.5, -y, z'
  2	'x, y, z'
  3	'x+.5, -y+.5, z+.5'
  4	'x, y+.5, z+.5'
loop_
_atom_type_symbol
_atom_type_oxidation_number
Ag1+	1
As3+	3
Hg2+	2
S2-	-2
loop_
_atom_site_label
_atom_site_type_symbol
_atom_site_symmetry_multiplicity
_atom_site_Wyckoff_symbol
_atom_site_fract_x
_atom_site_fract_y
_atom_site_fract_z
_atom_site_occupancy
_atom_site_attached_hydrogens
Ag1 Ag1+ 4 a 0.25 0.0221(4) 0 1. 0 
Hg1 Hg2+ 4 a 0.7891(6) 0.3166(2) 0.0249(9) 1. 0 
As1 As3+ 4 a 0.2874(11) 0.3523(3) 0.0195(12) 1. 0 
S1 S2- 4 a 0.4214(15) 0.0089(9) 0.4318(18) 1. 0 
S2 S2- 4 a 0.9828(15) 0.2841(9) 0.4697(18) 1. 0 
S3 S2- 4 a 0.4369(16) 0.3722(10) 0.3947(18) 1. 0 

loop_
_atom_site_aniso_label
_atom_site_aniso_type_symbol
_atom_site_aniso_U_11
_atom_site_aniso_U_22
_atom_site_aniso_U_33
_atom_site_aniso_U_12
_atom_site_aniso_U_13
_atom_site_aniso_U_23
Ag1 Ag1+ 0.0291(22) 0.0390(21) 0.0326(23) 0.0092(17) 0.0152(21) -.0047(18)
Hg1 Hg2+ 0.0303(8) 0.0280(8) 0.0292(8) -.0046(11) 0.0165(7) 0.0052(10)
As1 As3+ 0.0137(14) 0.0175(16) 0.0162(17) -.0045(25) 0.0079(13) -.0139(21)
S1 S2- 0.0197(37) 0.0168(40) 0.0171(36) 0.0006(32) 0.0128(32) 0.0000(31)
S2 S2- 0.0178(37) 0.0185(40) 0.0116(33) -.0011(32) 0.0073(30) -.0001(31)
S3 S2- 0.0214(43) 0.0235(44) 0.0109(35) -.0030(35) 0.0093(34) 0.0024(32)
#End of data_31194-ICSD


