data_174312-ICSD
#?2014 by Fachinformationszentrum Karlsruhe, and the U.S. Secretary of 
#Commerce on behalf of the United States.  All rights reserved.
_database_code_ICSD                174312
_audit_creation_date               2010/08/01
_audit_update_record               2014/08/01
_chemical_name_systematic          'Hexapotassium Diferrate(II)'
_chemical_formula_structural       'K6 Fe2 O5'
_chemical_formula_sum              'Fe2 K6 O5'
_publ_section_title
;
Neue Oxoferrate der Alkalimetalle. Synthesen und Kristallchemie
;
loop_
_citation_id
_citation_journal_abbrev
_citation_year
_citation_journal_volume
_citation_page_first
_citation_page_last
_citation_journal_id_ASTM
primary 'Dissertation Albert-Ludwigs-Universitaet Freiburg'
 2006 2006 1 203 DIUFRJ
_publ_author_name                  'Frisch, G.'
_cell_length_a                     6.8558(8)
_cell_length_b                     11.414(1)
_cell_length_c                     6.6410(7)
_cell_angle_alpha                  90.
_cell_angle_beta                   93.158(9)
_cell_angle_gamma                  90.
_cell_volume                       518.88
_cell_formula_units_Z              2
_symmetry_space_group_name_H-M     'C 1 m 1'
_symmetry_Int_Tables_number        8
_refine_ls_R_factor_all            .0429
loop_
_symmetry_equiv_pos_site_id
_symmetry_equiv_pos_as_xyz
  1	'x, -y, z'
  2	'x, y, z'
  3	'x+.5, -y+.5, z'
  4	'x+.5, y+.5, z'
loop_
_atom_type_symbol
_atom_type_oxidation_number
Fe2+	2
K1+	1
O2-	-2
loop_
_atom_site_label
_atom_site_type_symbol
_atom_site_symmetry_multiplicity
_atom_site_Wyckoff_symbol
_atom_site_fract_x
_atom_site_fract_y
_atom_site_fract_z
_atom_site_occupancy
_atom_site_attached_hydrogens
_atom_site_U_iso_or_equiv
K1 K1+ 2 a -0.0033(5) 0 0.6425(6) 1. 0 0.0450(10) 
K2 K1+ 2 a 0.7049(6) 0 -0.0151(5) 1. 0 0.0425(9) 
K3 K1+ 4 b 0.3524(5) 0.34366(6) 0.3166(4) 1. 0 0.0256(2) 
K4 K1+ 4 b 0.3530(5) 0.21297(6) 0.8162(5) 1. 0 0.0256(2) 
Fe1 Fe2+ 2 a 0.1546(1) 0 0.1356(1) 1. 0 0.0227(4) 
Fe2 Fe2+ 2 a 0.5458(2) 0 0.5013(3) 1. 0 0.0268(5) 
O1 O2- 2 a 0.4188(8) 0 0.2367(8) 1. 0 0.0380(10) 
O2 O2- 4 b 0.150(1) 0.3617(7) 0.593(1) 1. 0 0.0300(20) 
O3 O2- 4 b 0.056(1) 0.1401(7) 0.044(1) 1. 0 0.0300(20) 

loop_
_atom_site_aniso_label
_atom_site_aniso_type_symbol
_atom_site_aniso_U_11
_atom_site_aniso_U_22
_atom_site_aniso_U_33
_atom_site_aniso_U_12
_atom_site_aniso_U_13
_atom_site_aniso_U_23
K1 K1+ 0.0254(18) 0.0490(2) 0.0590(2) 0 -0.0053(16) 0
K2 K1+ 0.0410(2) 0.0520(2) 0.0343(16) 0 0.0008(15) 0
K3 K1+ 0.0268(4) 0.0243(3) 0.0256(3) -0.0002(14) 0.0011(3) 0.0033(13)
K4 K1+ 0.0241(4) 0.0255(3) 0.0273(3) 0.0007(12) 0.0008(3) -0.0027(12)
Fe1 Fe2+ 0.0211(10) 0.0211(10) 0.0253(9) 0 -0.0030(7) 0
Fe2 Fe2+ 0.0266(10) 0.0121(8) 0.0396(10) 0 -0.0186(8) 0
O1 O2- 0.0360(30) 0.0330(20) 0.0420(30) 0 -0.0260(20) 0
O2 O2- 0.0310(40) 0.0190(30) 0.0400(40) 0.0070(30) -0.0090(30) 0.0040(30)
O3 O2- 0.0290(40) 0.0280(40) 0.0340(40) 0.0050(30) 0.0020(30) 0.0050(30)
#End of data_174312-ICSD


