data_412381-ICSD
#?2014 by Fachinformationszentrum Karlsruhe, and the U.S. Secretary of 
#Commerce on behalf of the United States.  All rights reserved.
_database_code_ICSD                412381
_audit_creation_date               2003/04/01
_chemical_name_systematic
;
Tricalcium Trichromium(II) Tetrakis(phosphate(V))
;
_chemical_formula_structural       'Ca3 Cr3 (P O4)4'
_chemical_formula_sum              'Ca3 Cr3 O16 P4'
_publ_section_title
;
Beitraege zum thermischen Verhalten und zur Kristallchemie von 
Wasserfreien Phosphaten XXXII. Neue Orthophosphate des zweiwertigen 
Chroms - Mg3 Cr3 (P O4)4, Mg3.75 Cr2.25 (P O4)4, Ca3 Cr3 (P O4)4 und 
Ca2.00 Cr4.00 (P O4)4
;
loop_
_citation_id
_citation_journal_abbrev
_citation_year
_citation_journal_volume
_citation_page_first
_citation_page_last
_citation_journal_id_ASTM
primary 'Zeitschrift fuer Anorganische und Allgemeine Chemie (1950) (DE)'
 2002 628 1663 1672 ZAACAB
_publ_author_name                  'Maass, K.;Glaum, R.;Gruehn, R.'
_cell_length_a                     8.961(1)
_cell_length_b                     8.994(1)
_cell_length_c                     9.881(1)
_cell_angle_alpha                  104.96(2)
_cell_angle_beta                   106.03(2)
_cell_angle_gamma                  110.19(2)
_cell_volume                       660.92
_cell_formula_units_Z              2
_symmetry_space_group_name_H-M     'P -1'
_symmetry_Int_Tables_number        2
_refine_ls_R_factor_all            .037
loop_
_symmetry_equiv_pos_site_id
_symmetry_equiv_pos_as_xyz
  1	'-x, -y, -z'
  2	'x, y, z'
loop_
_atom_type_symbol
_atom_type_oxidation_number
Ca2+	2
Cr2+	2
O2-	-2
P5+	5
loop_
_atom_site_label
_atom_site_type_symbol
_atom_site_symmetry_multiplicity
_atom_site_Wyckoff_symbol
_atom_site_fract_x
_atom_site_fract_y
_atom_site_fract_z
_atom_site_occupancy
_atom_site_attached_hydrogens
_atom_site_U_iso_or_equiv
Cr1 Cr2+ 2 i 0.05585(6) 0.80762(6) 0.58212(7) 1. 0 0.00917(15) 
Cr2 Cr2+ 2 i 0.04695(7) 0.51759(7) 0.26937(7) 1. 0 0.01145(16) 
Ca1 Ca2+ 2 i -.27204(8) 0.71345(8) 0.71073(8) 1. 0 0.00980(17) 
Cr3 Cr2+ 2 i 0.05150(6) 0.80496(6) 0.11606(7) 1. 0 0.01047(16) 
Ca2 Ca2+ 2 i -.31779(8) 0.65301(8) 0.21185(9) 1. 0 0.01063(17) 
Ca3 Ca2+ 2 i 0.52001(8) 0.99872(8) 0.79916(8) 1. 0 0.01007(17) 
P1 P5+ 2 i 0.26479(10) 0.57894(10) 0.60713(10) 1. 0 0.00669(19) 
P2 P5+ 2 i 0.26145(10) 1.0595(1) 0.48182(10) 1. 0 0.00841(19) 
P3 P5+ 2 i 0.18778(10) 1.01003(10) 0.92485(11) 1. 0 0.00780(19) 
P4 P5+ 2 i 0.24129(9) 0.56023(10) 0.05728(10) 1. 0 0.00718(19) 
O1 O2- 2 i 0.2041(3) 0.4757(3) 0.1682(3) 1. 0 0.0134(5) 
O2 O2- 2 i 0.1738(3) 1.0196(3) 1.0798(3) 1. 0 0.0123(5) 
O3 O2- 2 i 0.2394(3) 0.7358(3) 0.1007(3) 1. 0 0.0132(5) 
O4 O2- 2 i 0.3696(3) 1.1104(3) 0.6507(3) 1. 0 0.0137(5) 
O5 O2- 2 i 0.2123(3) 0.4939(3) 0.4356(3) 1. 0 0.0131(5) 
O6 O2- 2 i 0.1263(3) 0.4589(3) 0.6452(3) 1. 0 0.0126(5) 
O7 O2- 2 i 0.1740(3) 1.1827(3) 0.4831(3) 1. 0 0.0145(5) 
O8 O2- 2 i -.0884(3) 0.5646(3) 0.1021(3) 1. 0 0.0105(5) 
O9 O2- 2 i 0.4065(3) 0.5719(3) 0.0420(3) 1. 0 0.0128(5) 
O10 O2- 2 i 0.0463(3) 0.8349(3) 0.7966(3) 1. 0 0.0108(5) 
O11 O2- 2 i -.4410(3) 0.4083(3) 0.3033(3) 1. 0 0.0140(5) 
O12 O2- 2 i 0.1563(3) 1.1549(3) 0.8859(3) 1. 0 0.0120(5) 
O13 O2- 2 i 0.3628(3) 1.0903(3) 0.3829(3) 1. 0 0.0148(5) 
O14 O2- 2 i 0.1209(3) 0.8703(3) 0.4101(3) 1. 0 0.0137(5) 
O15 O2- 2 i 0.3688(3) 1.0354(3) 0.9466(3) 1. 0 0.0139(5) 
O16 O2- 2 i 0.2629(3) 0.7538(3) 0.6460(3) 1. 0 0.0122(5) 

loop_
_atom_site_aniso_label
_atom_site_aniso_type_symbol
_atom_site_aniso_U_11
_atom_site_aniso_U_22
_atom_site_aniso_U_33
_atom_site_aniso_U_12
_atom_site_aniso_U_13
_atom_site_aniso_U_23
Cr1 Cr2+ 0.0091(2) 0.0132(3) 0.0092(4) 0.00861(19) 0.0041(2) 0.0050(2)
Cr2 Cr2+ 0.0125(3) 0.0231(3) 0.0095(4) 0.0147(2) 0.0071(2) 0.0101(2)
Ca1 Ca2+ 0.0090(3) 0.0118(3) 0.0115(4) 0.0075(2) 0.0046(3) 0.0043(3)
Cr3 Cr2+ 0.0091(2) 0.0109(3) 0.0164(4) 0.00791(19) 0.0064(2) 0.0065(2)
Ca2 Ca2+ 0.0108(3) 0.0140(3) 0.0109(4) 0.0087(2) 0.0050(3) 0.0056(3)
Ca3 Ca2+ 0.0071(3) 0.0116(3) 0.0116(4) 0.0051(2) 0.0042(3) 0.0029(3)
P1 P5+ 0.0069(3) 0.0094(4) 0.0062(5) 0.0061(3) 0.0028(3) 0.0032(3)
P2 P5+ 0.0095(4) 0.0109(4) 0.0079(5) 0.0072(3) 0.0039(3) 0.0042(3)
P3 P5+ 0.0080(3) 0.0098(4) 0.0074(5) 0.0064(3) 0.0027(3) 0.0030(3)
P4 P5+ 0.0072(3) 0.0107(4) 0.0069(5) 0.0073(3) 0.0033(3) 0.0034(3)
O1 O2- 0.0158(11) 0.0224(12) 0.0152(16) 0.0150(9) 0.0109(10) 0.0129(10)
O2 O2- 0.0148(10) 0.0126(10) 0.0123(15) 0.0078(8) 0.0069(10) 0.0050(9)
O3 O2- 0.0108(10) 0.0134(11) 0.0190(16) 0.0091(8) 0.0071(10) 0.0053(10)
O4 O2- 0.0186(11) 0.0176(11) 0.0073(15) 0.0124(9) 0.0026(10) 0.0055(10)
O5 O2- 0.0196(11) 0.0171(11) 0.0069(14) 0.0141(9) 0.0037(10) 0.0046(10)
O6 O2- 0.014(1) 0.0141(11) 0.0189(16) 0.0098(9) 0.0122(10) 0.0091(10)
O7 O2- 0.0124(10) 0.0158(11) 0.0190(16) 0.0112(9) 0.0047(10) 0.0074(10)
O8 O2- 0.0098(10) 0.011(1) 0.0114(14) 0.0067(8) 0.0026(9) 0.0044(9)
O9 O2- 0.0084(10) 0.0168(11) 0.0150(15) 0.0086(8) 0.0056(9) 0.0041(10)
O10 O2- 0.010(1) 0.0136(11) 0.0072(14) 0.0053(8) 0.0032(9) 0.0017(9)
O11 O2- 0.0077(10) 0.0191(11) 0.0162(16) 0.0085(9) 0.0028(9) 0.0073(10)
O12 O2- 0.0131(10) 0.0165(11) 0.0146(15) 0.0117(9) 0.0080(9) 0.0085(10)
O13 O2- 0.0194(11) 0.0216(12) 0.0136(16) 0.0142(10) 0.0112(10) 0.010(1)
O14 O2- 0.0166(11) 0.0139(11) 0.0078(15) 0.0060(9) 0.0035(9) 0.0031(9)
O15 O2- 0.0092(10) 0.0201(11) 0.0145(15) 0.0105(9) 0.0037(9) 0.0055(10)
O16 O2- 0.0106(10) 0.0138(11) 0.0136(15) 0.0085(8) 0.0039(9) 0.0043(9)
#End of data_412381-ICSD


