data_97562-ICSD
#?2014 by Fachinformationszentrum Karlsruhe, and the U.S. Secretary of 
#Commerce on behalf of the United States.  All rights reserved.
_database_code_ICSD                97562
_audit_creation_date               2004/10/01
_audit_update_record               2012/02/01
_chemical_name_systematic
;
Dipotassium Tetradysprosium Tetracopper(I) Sulfide
;
_chemical_formula_structural       'K2 Dy4 Cu4 S9'
_chemical_formula_sum              'Cu4 Dy4 K2 S9'
_publ_section_title
;
Syntheses, structures, physical properties and electronic structures 
of K Ln2 Cu S4 (Ln = Dy, Nd, Sm, Tb, Ho) and K2 Ln4 Cu4 S9 (Ln = Dy, 
Ho)
;
loop_
_citation_id
_citation_journal_abbrev
_citation_year
_citation_journal_volume
_citation_page_first
_citation_page_last
_citation_journal_id_ASTM
primary 'Journal of Solid State Chemistry' 2003 176 5 12 JSSCBI
_publ_author_name
;
Yao, J.-Y.;Deng, B.;Ellis, D.E.;Ibers, J.A.
;
_cell_length_a                     13.7061(13)
_cell_length_b                     3.9482(4)
_cell_length_c                     15.8111(15)
_cell_angle_alpha                  90
_cell_angle_beta                   109.723(1)
_cell_angle_gamma                  90
_cell_volume                       805.41
_cell_formula_units_Z              2
_symmetry_space_group_name_H-M     'C 1 2/m 1'
_symmetry_Int_Tables_number        12
_refine_ls_R_factor_all            .0312
loop_
_symmetry_equiv_pos_site_id
_symmetry_equiv_pos_as_xyz
  1	'-x, y, -z'
  2	'-x, -y, -z'
  3	'x, -y, z'
  4	'x, y, z'
  5	'-x+.5, y+.5, -z'
  6	'-x+.5, -y+.5, -z'
  7	'x+.5, -y+.5, z'
  8	'x+.5, y+.5, z'
loop_
_atom_type_symbol
_atom_type_oxidation_number
Cu1+	1
Dy3+	3
K1+	1
S2-	-2
loop_
_atom_site_label
_atom_site_type_symbol
_atom_site_symmetry_multiplicity
_atom_site_Wyckoff_symbol
_atom_site_fract_x
_atom_site_fract_y
_atom_site_fract_z
_atom_site_occupancy
_atom_site_attached_hydrogens
_atom_site_U_iso_or_equiv
K1 K1+ 4 i 0.02819(18) 0 0.76918(16) 1. 0 0.0120(5) 
Dy1 Dy3+ 4 i 0.65433(3) 0 0.05356(3) 1. 0 0.0061(2) 
Dy2 Dy3+ 4 i 0.23313(3) 0 0.60508(3) 1. 0 0.0059(2) 
Cu1 Cu1+ 4 i 0.24655(10) 0 0.22894(8) 1. 0 0.0091(3) 
Cu2 Cu1+ 4 i 0.43211(10) 0 0.54063(9) 1. 0 0.0105(3) 
S1 S2- 4 i 0.1388(2) 0 0.42449(16) 1. 0 0.0065(5) 
S2 S2- 4 i 0.30065(18) 0 0.10273(16) 1. 0 0.0061(5) 
S3 S2- 4 i 0.39047(18) 0 0.37268(16) 1. 0 0.0064(5) 
S4 S2- 4 i 0.6494(2) 0 0.22101(16) 1. 0 0.0076(5) 
S5 S2- 2 a 0 0 0 1. 0 0.0087(7) 

#End of data_97562-ICSD


