data_163981-ICSD
#?2014 by Fachinformationszentrum Karlsruhe, and the U.S. Secretary of 
#Commerce on behalf of the United States.  All rights reserved.
_database_code_ICSD                163981
_audit_creation_date               2009/08/01
_chemical_name_systematic          'Zinc Telluro(IV)molybdate'
_chemical_formula_structural       'Zn (Te Mo O6)'
_chemical_formula_sum              'Mo1 O6 Te1 Zn1'
_publ_section_title
;
Magnetic and neutron diffraction study on quaternary oxides M Te Mo 
O6 (M= Mn and Zn)
;
loop_
_citation_id
_citation_journal_abbrev
_citation_year
_citation_journal_volume
_citation_page_first
_citation_page_last
_citation_journal_id_ASTM
primary 'Journal of Physics: Condensed Matter' 2009 21 046006-1 046006-6 JCOMEL
_publ_author_name
;
Doi, Y.;Suzuki, R.;Hinatsu, Y.;Ohoyama, K.
;
_cell_length_a                     5.2630(2)
_cell_length_b                     5.0426(3)
_cell_length_c                     8.9105(4)
_cell_angle_alpha                  90.
_cell_angle_beta                   90.
_cell_angle_gamma                  90.
_cell_volume                       236.48
_cell_formula_units_Z              2
_symmetry_space_group_name_H-M     'P 21 21 2'
_symmetry_Int_Tables_number        18
_refine_ls_R_factor_all            .009
loop_
_symmetry_equiv_pos_site_id
_symmetry_equiv_pos_as_xyz
  1	'-x+.5, y+.5, -z'
  2	'x+.5, -y+.5, -z'
  3	'-x, -y, z'
  4	'x, y, z'
loop_
_atom_type_symbol
_atom_type_oxidation_number
Mo6+	6
O2-	-2
Te4+	4
Zn2+	2
loop_
_atom_site_label
_atom_site_type_symbol
_atom_site_symmetry_multiplicity
_atom_site_Wyckoff_symbol
_atom_site_fract_x
_atom_site_fract_y
_atom_site_fract_z
_atom_site_occupancy
_atom_site_attached_hydrogens
_atom_site_B_iso_or_equiv
Zn1 Zn2+ 2 a 0 0 0.5218(4) 1. 0 0.46(7) 
Te1 Te4+ 2 b 0 0.5 0.2553(3) 1. 0 0.56(7) 
Mo1 Mo6+ 2 b 0 0.5 0.8088(3) 1. 0 0.46(7) 
O1 O2- 4 c 0.2891(4) 0.8467(4) 0.0745(3) 1. 0 1.13(6) 
O2 O2- 4 c 0.1805(5) 0.7612(4) 0.7067(2) 1. 0 0.77(6) 
O3 O2- 4 c 0.1746(4) 0.7213(4) 0.3933(2) 1. 0 0.66(6) 

#End of data_163981-ICSD


