data_28272-ICSD
#?2014 by Fachinformationszentrum Karlsruhe, and the U.S. Secretary of 
#Commerce on behalf of the United States.  All rights reserved.
_database_code_ICSD                28272
_audit_creation_date               1980/01/01
_audit_update_record               2012/08/01
_chemical_name_systematic          'Dialuminium Oxide Silicate'
_chemical_formula_structural       'Al2 O (Si O4)'
_chemical_formula_sum              'Al2 O5 Si1'
_chemical_name_mineral             Kyanite
_publ_section_title                'La struttura della cianite'
loop_
_citation_id
_citation_journal_abbrev
_citation_year
_citation_journal_volume
_citation_page_first
_citation_page_last
_citation_journal_id_ASTM
primary 'Periodico di Mineralogia' 1965 34 241 256 PEMIA7
_publ_author_name                  'Sgarlata, F.'
_cell_length_a                     7.121
_cell_length_b                     7.861
_cell_length_c                     5.579
_cell_angle_alpha                  90.03
_cell_angle_beta                   101.08
_cell_angle_gamma                  105.95
_cell_volume                       294.21
_cell_formula_units_Z              4
_symmetry_space_group_name_H-M     'P -1'
_symmetry_Int_Tables_number        2
_refine_ls_R_factor_all            .1
loop_
_symmetry_equiv_pos_site_id
_symmetry_equiv_pos_as_xyz
  1	'-x, -y, -z'
  2	'x, y, z'
loop_
_atom_type_symbol
_atom_type_oxidation_number
Al3+	3
O2-	-2
Si4+	4
loop_
_atom_site_label
_atom_site_type_symbol
_atom_site_symmetry_multiplicity
_atom_site_Wyckoff_symbol
_atom_site_fract_x
_atom_site_fract_y
_atom_site_fract_z
_atom_site_occupancy
_atom_site_attached_hydrogens
Al1 Al3+ 2 i 0.17504 -.20384 0.04243 1. 0 
Al2 Al3+ 2 i 0.20222 -.19893 -.45032 1. 0 
Al3 Al3+ 2 i 0.39951 0.1137 -.14061 1. 0 
Al4 Al3+ 2 i 0.38773 -.41754 0.33561 1. 0 
Si1 Si4+ 2 i 0.20806 0.16815 0.31076 1. 0 
Si2 Si4+ 2 i 0.20327 0.43503 -.20644 1. 0 
O1 O2- 2 i -.0022 0.26859 -.25456 1. 0 
O2 O2- 2 i -.0008 0.22481 0.25581 1. 0 
O3 O2- 2 i 0.21569 0.44677 0.03635 1. 0 
O4 O2- 2 i 0.22259 0.04515 -.45589 1. 0 
O5 O2- 2 i 0.39323 0.34866 -.16572 1. 0 
O6 O2- 2 i 0.38788 0.35309 0.37156 1. 0 
O7 O2- 2 i 0.20915 -.43554 -.43545 1. 0 
O8 O2- 2 i 0.22172 0.05444 0.07146 1. 0 
O9 O2- 2 i 0.37763 -.13082 -.14053 1. 0 
O10 O2- 2 i 0.3783 -.1855 0.31866 1. 0 

#End of data_28272-ICSD


