data_422749-ICSD
#?2014 by Fachinformationszentrum Karlsruhe, and the U.S. Secretary of 
#Commerce on behalf of the United States.  All rights reserved.
_database_code_ICSD                422749
_audit_creation_date               2012/02/01
_chemical_name_systematic          'Sodium Copper Oxide (12/7/14)'
_chemical_formula_structural       'Na12 Cu7 O14'
_chemical_formula_sum              'Cu7 Na12 O14'
_publ_section_title
;
Structural ordering principles in quasi one-dimensional Wigner 
crystals of the series Na(1+x) Cu O2 (0 <= x <= 1)
;
loop_
_citation_id
_citation_journal_abbrev
_citation_year
_citation_journal_volume
_citation_journal_issue
_citation_page_first
_citation_page_last
_citation_journal_id_ASTM
primary 'Zeitschrift fuer Kristallographie - Crystalline Materials'
 2011 226 8 627 632 ZKCMAJ
_publ_author_name                  'Nuss, J.;Wedig, U.;Jansen, M.'
_cell_length_a                     5.7674
_cell_length_b                     19.5226
_cell_length_c                     8.0643
_cell_angle_alpha                  90.000
_cell_angle_beta                   110.200
_cell_angle_gamma                  90.000
_cell_volume                       852.15
_cell_formula_units_Z              2
_symmetry_space_group_name_H-M     'P 1 c 1'
_symmetry_Int_Tables_number        7
loop_
_symmetry_equiv_pos_site_id
_symmetry_equiv_pos_as_xyz
  1	'x, -y, z+.5'
  2	'x, y, z'
loop_
_atom_type_symbol
_atom_type_oxidation_number
Cu2.3+	2.3
Na1+	1
O2-	-2
loop_
_atom_site_label
_atom_site_type_symbol
_atom_site_symmetry_multiplicity
_atom_site_Wyckoff_symbol
_atom_site_fract_x
_atom_site_fract_y
_atom_site_fract_z
_atom_site_occupancy
_atom_site_attached_hydrogens
Cu1 Cu2.3+ 2 a -0.0035 0.0362 0.0014 1.000 0 
Cu2 Cu2.3+ 2 a -0.0240 0.1787 -0.0161 1.000 0 
Cu3 Cu2.3+ 2 a -0.0226 0.3213 -0.0150 1.000 0 
Cu4 Cu2.3+ 2 a -0.0019 0.4637 0.0025 1.000 0 
Cu5 Cu2.3+ 2 a 0.0207 -0.3931 0.0143 1.000 0 
Cu6 Cu2.3+ 2 a 0.0238 -0.2500 0.0108 1.000 0 
Cu7 Cu2.3+ 2 a 0.0197 -0.1069 0.0143 1.000 0 
O1 O2- 2 a -0.2347 -0.0365 -0.0469 1.000 0 
O2 O2- 2 a 0.2520 -0.0323 0.0657 1.000 0 
O3 O2- 2 a -0.2629 0.1045 -0.0666 1.000 0 
O4 O2- 2 a -0.2722 0.2501 -0.0719 1.000 0 
O5 O2- 2 a -0.2614 0.3955 -0.0656 1.000 0 
O6 O2- 2 a -0.2328 -0.4636 -0.0449 1.000 0 
O7 O2- 2 a -0.2364 -0.3225 -0.0643 1.000 0 
O8 O2- 2 a -0.2370 -0.1776 -0.0645 1.000 0 
O9 O2- 2 a 0.2348 0.1080 0.0471 1.000 0 
O10 O2- 2 a 0.2368 0.2499 0.0654 1.000 0 
O11 O2- 2 a 0.2366 0.3920 0.0477 1.000 0 
O12 O2- 2 a 0.2532 -0.4676 0.0665 1.000 0 
O13 O2- 2 a 0.2715 -0.3226 0.0720 1.000 0 
O14 O2- 2 a 0.2708 -0.1774 0.0710 1.000 0 
Na1 Na1+ 2 a 0.3936 -0.0216 0.3648 1.000 0 
Na2 Na1+ 2 a -0.3919 0.0962 -0.3687 1.000 0 
Na3 Na1+ 2 a -0.3866 0.2499 -0.3742 1.000 0 
Na4 Na1+ 2 a -0.3907 0.4035 -0.3680 1.000 0 
Na5 Na1+ 2 a 0.3959 -0.4784 0.3662 1.000 0 
Na6 Na1+ 2 a 0.3889 0.3245 -0.1295 1.000 0 
Na7 Na1+ 2 a 0.3881 0.1755 -0.1298 1.000 0 
Na8 Na1+ 2 a -0.3464 0.0869 0.1875 1.000 0 
Na9 Na1+ 2 a -0.3451 0.4133 0.1885 1.000 0 
Na10 Na1+ 2 a 0.3256 0.1673 0.3094 1.000 0 
Na11 Na1+ 2 a 0.3266 0.3325 0.3098 1.000 0 
Na12 Na1+ 2 a -0.3286 0.2501 0.1912 1.000 0 

#End of data_422749-ICSD


