data_26498-ICSD
#?2014 by Fachinformationszentrum Karlsruhe, and the U.S. Secretary of 
#Commerce on behalf of the United States.  All rights reserved.
_database_code_ICSD                26498
_audit_creation_date               1980/01/01
_audit_update_record               2000/12/16
_chemical_name_systematic          'Potassium Dicyanoaurate(I)'
_chemical_formula_structural       'K (Au (C N)2)'
_chemical_formula_sum              'C2 Au1 K1 N2'
_publ_section_title
;
The crystal structure of K Au (C N)2
;
loop_
_citation_id
_citation_journal_abbrev
_citation_year
_citation_journal_volume
_citation_page_first
_citation_page_last
_citation_journal_id_ASTM
primary 'Acta Crystallographica (1,1948-23,1967)' 1959 12 709 712 ACCRA9
_publ_author_name                  'Rosenzweig, A.;Cromer, D.T.'
_cell_length_a                     7.28
_cell_length_b                     7.28
_cell_length_c                     26.35999
_cell_angle_alpha                  90.
_cell_angle_beta                   90.
_cell_angle_gamma                  120.
_cell_volume                       1209.87
_cell_formula_units_Z              9
_symmetry_space_group_name_H-M     'R -3 H'
_symmetry_Int_Tables_number        148
_refine_ls_R_factor_all            .105
loop_
_symmetry_equiv_pos_site_id
_symmetry_equiv_pos_as_xyz
  1	'x-y, x, -z'
  2	'y, -x+y, -z'
  3	'-x, -y, -z'
  4	'-x+y, -x, z'
  5	'-y, x-y, z'
  6	'x, y, z'
  7	'x-y+.6666, x+.3333, -z+.3333'
  8	'x-y+.3333, x+.6666, -z+.6666'
  9	'y+.6666, -x+y+.3333, -z+.3333'
 10	'y+.3333, -x+y+.6666, -z+.6666'
 11	'-x+.6666, -y+.3333, -z+.3333'
 12	'-x+.3333, -y+.6666, -z+.6666'
 13	'-x+y+.6666, -x+.3333, z+.3333'
 14	'-x+y+.3333, -x+.6666, z+.6666'
 15	'-y+.6666, x-y+.3333, z+.3333'
 16	'-y+.3333, x-y+.6666, z+.6666'
 17	'x+.6666, y+.3333, z+.3333'
 18	'x+.3333, y+.6666, z+.6666'
loop_
_atom_type_symbol
_atom_type_oxidation_number
Au1+	1
C2+	2
K1+	1
N3-	-3
loop_
_atom_site_label
_atom_site_type_symbol
_atom_site_symmetry_multiplicity
_atom_site_Wyckoff_symbol
_atom_site_fract_x
_atom_site_fract_y
_atom_site_fract_z
_atom_site_occupancy
_atom_site_attached_hydrogens
_atom_site_B_iso_or_equiv
K1 K1+ 3 a 0 0 0 1. 0 2.11 
K2 K1+ 6 c 0 0 0.3441(7) 1. 0 1.87 
Au1 Au1+ 9 d 0.5 0 0.5 1. 0 2.96 
C1 C2+ 18 f 0.403(9) 0.406(9) 0.424(3) 1. 0 5.56 
N1 N3- 18 f 0.337(9) 0.348(9) 0.383(3) 1. 0 7.62 

#End of data_26498-ICSD


