data_66095-ICSD
#?2014 by Fachinformationszentrum Karlsruhe, and the U.S. Secretary of 
#Commerce on behalf of the United States.  All rights reserved.
_database_code_ICSD                66095
_audit_creation_date               1992/01/20
_chemical_name_systematic          'Hexalithium Molydenum Nitride'
_chemical_formula_structural       'Li6 Mo N4'
_chemical_formula_sum              'Li6 Mo1 N4'
_publ_section_title
;
Ternaere Nitride des Lithiums mit den Elementen Cr, Mo und W
;
loop_
_citation_id
_citation_journal_abbrev
_citation_year
_citation_journal_volume
_citation_page_first
_citation_page_last
_citation_journal_id_ASTM
primary 'Zeitschrift fuer Naturforschung, B: Chemical Sciences'
 1990 45 111 120 ZNBSEN
_publ_author_name
;
Gudat, A.;Haag, S.;Kniep, R.;Rabenau, A.
;
_cell_length_a                     6.673(1)
_cell_length_b                     6.673(1)
_cell_length_c                     4.925(3)
_cell_angle_alpha                  90.
_cell_angle_beta                   90.
_cell_angle_gamma                  90.
_cell_volume                       219.3
_cell_formula_units_Z              2
_symmetry_space_group_name_H-M     'P 42/n m c S'
_symmetry_Int_Tables_number        137
_refine_ls_R_factor_all            .016
loop_
_symmetry_equiv_pos_site_id
_symmetry_equiv_pos_as_xyz
  1	'-y+.5, -x+.5, z+.5'
  2	'y+.5, x+.5, z+.5'
  3	'-y, -x, -z'
  4	'y, x, -z'
  5	'y+.5, -x+.5, z+.5'
  6	'-y+.5, x+.5, z+.5'
  7	'y, -x, -z'
  8	'-y, x, -z'
  9	'x+.5, -y+.5, -z+.5'
 10	'-x+.5, y+.5, -z+.5'
 11	'x, -y, z'
 12	'-x, y, z'
 13	'-x+.5, -y+.5, -z+.5'
 14	'x+.5, y+.5, -z+.5'
 15	'-x, -y, z'
 16	'x, y, z'
loop_
_atom_type_symbol
_atom_type_oxidation_number
Li1+	1
Mo6+	6
N3-	-3
loop_
_atom_site_label
_atom_site_type_symbol
_atom_site_symmetry_multiplicity
_atom_site_Wyckoff_symbol
_atom_site_fract_x
_atom_site_fract_y
_atom_site_fract_z
_atom_site_occupancy
_atom_site_attached_hydrogens
_atom_site_U_iso_or_equiv
Mo1 Mo6+ 2 a 0 0 0 1. 0 0 
N1 N3- 8 g 0 0.2405(7) -.1983(7) 1. 0 0 
Li1 Li1+ 4 d 0 0.5 0.0858(27) 1. 0 0.0083(23) 
Li2 Li1+ 8 f 0.2868(8) 0.2868(8) 0 1. 0 0.0086(14) 

loop_
_atom_site_aniso_label
_atom_site_aniso_type_symbol
_atom_site_aniso_U_11
_atom_site_aniso_U_22
_atom_site_aniso_U_33
_atom_site_aniso_U_12
_atom_site_aniso_U_13
_atom_site_aniso_U_23
Mo1 Mo6+ 0.0055(2) 0.0055(2) 0.0040(3) 0 0 0
N1 N3- 0.0055(18) 0.0039(18) 0.0023(18) 0 0 0.0002(15)
#End of data_66095-ICSD


