data_31100-ICSD
#?2014 by Fachinformationszentrum Karlsruhe, and the U.S. Secretary of 
#Commerce on behalf of the United States.  All rights reserved.
_database_code_ICSD                31100
_audit_creation_date               1980/01/01
_audit_update_record               2012/08/01
_chemical_name_systematic          'Calcium Cyanamide'
_chemical_formula_structural       'Ca (C N2)'
_chemical_formula_sum              'C1 Ca1 N2'
_publ_section_title
;
Ueber die Rumgruppe von (C N2 H2)2 und die Kristallstruktur von Ca C 
N2.
;
loop_
_citation_id
_citation_journal_abbrev
_citation_year
_citation_journal_volume
_citation_page_first
_citation_page_last
_citation_journal_id_ASTM
primary
;
Zeitschrift fuer Kristallographie, Kristallgeometrie, Kristallphysik, 
Kristallchemie (-144,1977)
;
 1927 65 286 290 ZEKGAX
_publ_author_name                  'Dehlinger, U.'
_cell_length_a                     5.11
_cell_length_b                     5.11
_cell_length_c                     5.11
_cell_angle_alpha                  43.83
_cell_angle_beta                   43.83
_cell_angle_gamma                  43.83
_cell_volume                       58.1
_cell_formula_units_Z              1
_symmetry_space_group_name_H-M     'R -3 m R'
_symmetry_Int_Tables_number        166
loop_
_symmetry_equiv_pos_site_id
_symmetry_equiv_pos_as_xyz
  1	'-z, -y, -x'
  2	'-z, -x, -y'
  3	'-x, -z, -y'
  4	'-y, -z, -x'
  5	'-y, -x, -z'
  6	'-x, -y, -z'
  7	'z, y, x'
  8	'z, x, y'
  9	'x, z, y'
 10	'y, z, x'
 11	'y, x, z'
 12	'x, y, z'
loop_
_atom_type_symbol
_atom_type_oxidation_number
C4+	4
Ca2+	2
N3-	-3
loop_
_atom_site_label
_atom_site_type_symbol
_atom_site_symmetry_multiplicity
_atom_site_Wyckoff_symbol
_atom_site_fract_x
_atom_site_fract_y
_atom_site_fract_z
_atom_site_occupancy
_atom_site_attached_hydrogens
Ca1 Ca2+ 1 a 0 0 0 1. 0 
C1 C4+ 1 b 0.5 0.5 0.5 1. 0 
N1 N3- 2 c 0.37 0.37 0.37 1. 0 

#End of data_31100-ICSD


