data_63242-ICSD
#?2014 by Fachinformationszentrum Karlsruhe, and the U.S. Secretary of 
#Commerce on behalf of the United States.  All rights reserved.
_database_code_ICSD                63242
_audit_creation_date               1989/12/04
_audit_update_record               2012/08/01
_chemical_name_systematic          'Zinc Tetrathiodigallate'
_chemical_formula_structural       'Zn (Ga2 S4)'
_chemical_formula_sum              'Ga2 S4 Zn1'
_publ_section_title
;
Redetermination and refinement of the crystal structure of Zn Ga2 S4
;
loop_
_citation_id
_citation_journal_abbrev
_citation_year
_citation_journal_volume
_citation_page_first
_citation_page_last
_citation_journal_id_ASTM
primary Afinidad 1988 45 277 279 AFINAE
_publ_author_name
;
Solans, X.;Font-Altaba, M.;Moreiras, D.;Trobajo Fernandez, M.C.
;
_cell_length_a                     5.278(2)
_cell_length_b                     5.278(2)
_cell_length_c                     10.377(2)
_cell_angle_alpha                  90.
_cell_angle_beta                   90.
_cell_angle_gamma                  90.
_cell_volume                       289.08
_cell_formula_units_Z              2
_symmetry_space_group_name_H-M     'I -4'
_symmetry_Int_Tables_number        82
_refine_ls_R_factor_all            .064
loop_
_symmetry_equiv_pos_site_id
_symmetry_equiv_pos_as_xyz
  1	'-y, x, -z'
  2	'y, -x, -z'
  3	'-x, -y, z'
  4	'x, y, z'
  5	'-y+.5, x+.5, -z+.5'
  6	'y+.5, -x+.5, -z+.5'
  7	'-x+.5, -y+.5, z+.5'
  8	'x+.5, y+.5, z+.5'
loop_
_atom_type_symbol
_atom_type_oxidation_number
Ga3+	3
S2-	-2
Zn2+	2
loop_
_atom_site_label
_atom_site_type_symbol
_atom_site_symmetry_multiplicity
_atom_site_Wyckoff_symbol
_atom_site_fract_x
_atom_site_fract_y
_atom_site_fract_z
_atom_site_occupancy
_atom_site_attached_hydrogens
Ga1 Ga3+ 2 a 0 0 0 1. 0 
Ga2 Ga3+ 2 c 0 0.5 0.25 1. 0 
Zn1 Zn2+ 2 d 0.5 0 0.25 1. 0 
S1 S2- 8 g 0.2582(6) 0.2577(6) 0.1184(2) 1. 0 

loop_
_atom_site_aniso_label
_atom_site_aniso_type_symbol
_atom_site_aniso_U_11
_atom_site_aniso_U_22
_atom_site_aniso_U_33
_atom_site_aniso_U_12
_atom_site_aniso_U_13
_atom_site_aniso_U_23
Ga1 Ga3+ 0.0032(7) 0.0032(7) 0.0151(15) 0 0 0
Ga2 Ga3+ 0.0010(11) 0.0010(11) 0.0010(8) 0 0 0
Zn1 Zn2+ 0.0010(16) 0.0010(16) 0.0328(26) 0 0 0
S1 S2- 0.0092(13) 0.0079(13) 0.0156(13) -.0007(7) 0.0039(10) -.0056(8)
#End of data_63242-ICSD


