data_188954-ICSD
#?2014 by Fachinformationszentrum Karlsruhe, and the U.S. Secretary of 
#Commerce on behalf of the United States.  All rights reserved.
_database_code_ICSD                188954
_audit_creation_date               2014/02/01
_chemical_name_systematic
;
Trilithium Divanadium(III) Triphosphate
;
_chemical_formula_structural       'Li3 V2 (P O4)3'
_chemical_formula_sum              'Li3 O12 P3 V2'
_publ_section_title
;
Crystal structures and 3d electron configurations for the Lix V2 (P 
O4)3 insertion electrode system with a semi-double-electron reaction
;
loop_
_citation_id
_citation_journal_abbrev
_citation_year
_citation_journal_volume
_citation_journal_issue
_citation_page_first
_citation_page_last
_citation_journal_id_ASTM
primary 'Journal of the Physical Society of Japan' 2012 81 9 094801-1 094801-9 JUPSAU
_publ_author_name                  'Onoda, Masashige;Hirose, Hajime'
_cell_length_a                     8.597(1)
_cell_length_b                     8.592(2)
_cell_length_c                     12.001(2)
_cell_angle_alpha                  90.
_cell_angle_beta                   90.57(2)
_cell_angle_gamma                  90.
_cell_volume                       886.42
_cell_formula_units_Z              4
_symmetry_space_group_name_H-M     'P 1 21/n 1'
_symmetry_Int_Tables_number        14
_refine_ls_R_factor_all            .066
loop_
_symmetry_equiv_pos_site_id
_symmetry_equiv_pos_as_xyz
  1	'-x+.5, y+.5, -z+.5'
  2	'-x, -y, -z'
  3	'x+.5, -y+.5, z+.5'
  4	'x, y, z'
loop_
_atom_type_symbol
_atom_type_oxidation_number
Li1+	1
O2-	-2
P5+	5
V3+	3
loop_
_atom_site_label
_atom_site_type_symbol
_atom_site_symmetry_multiplicity
_atom_site_Wyckoff_symbol
_atom_site_fract_x
_atom_site_fract_y
_atom_site_fract_z
_atom_site_occupancy
_atom_site_attached_hydrogens
_atom_site_B_iso_or_equiv
V1 V3+ 4 e 0.74827(8) 0.03821(8) 0.61031(6) 1. 0 0.440(10) 
V2 V3+ 4 e 0.25130(9) 0.02918(8) 0.88981(6) 1. 0 0.456(11) 
P1 P5+ 4 e 0.10588(13) 0.10385(13) 0.14822(9) 1. 0 0.44(2) 
P2 P5+ 4 e 0.60477(13) 0.11488(13) 0.35257(9) 1. 0 0.43(2) 
P3 P5+ 4 e 0.03602(13) 0.24897(13) 0.49345(10) 1. 0 0.49(2) 
O1 O2- 4 e 0.9274(5) 0.1132(5) 0.1495(4) 1. 0 1.08(5) 
O2 O2- 4 e 0.8519(5) 0.0185(4) 0.7625(4) 1. 0 1.12(5) 
O3 O2- 4 e 0.1728(6) 0.0532(6) 0.0400(4) 1. 0 1.46(6) 
O4 O2- 4 e 0.6623(5) 0.2340(4) 0.6860(3) 1. 0 0.78(5) 
O5 O2- 4 e 0.4301(4) 0.0914(5) 0.3319(4) 1. 0 0.95(5) 
O6 O2- 4 e 0.3058(5) 0.0027(4) 0.7201(3) 1. 0 0.90(5) 
O7 O2- 4 e 0.6475(5) 0.0869(5) 0.4722(3) 1. 0 1.03(5) 
O8 O2- 4 e 0.1419(5) 0.2163(4) 0.8192(3) 1. 0 0.88(5) 
O9 O2- 4 e 0.9502(5) 0.1335(5) 0.5666(4) 1. 0 0.97(5) 
O10 O2- 4 e 0.4309(5) 0.1783(5) 0.9044(4) 1. 0 1.20(6) 
O11 O2- 4 e 0.1685(5) 0.1682(5) 0.4294(4) 1. 0 1.03(5) 
O12 O2- 4 e 0.6097(5) 0.1358(5) 0.0732(4) 1. 0 1.27(6) 
Li1 Li1+ 4 e 0.796(2) 0.2196(13) 0.8230(12) 1. 0 1.9(2) 
Li2 Li1+ 4 e 0.430(2) 0.192(2) 0.7386(12) 1. 0 2.8(3) 
Li3 Li1+ 4 e 0.081(2) 0.089(2) 0.6915(11) 1. 0 2.3(3) 

loop_
_atom_site_aniso_label
_atom_site_aniso_type_symbol
_atom_site_aniso_U_11
_atom_site_aniso_U_22
_atom_site_aniso_U_33
_atom_site_aniso_U_12
_atom_site_aniso_U_13
_atom_site_aniso_U_23
V1 V3+ 0.0075(3) 0.0025(3) 0.0068(3) -0.0001(2) 0.0004(2) 0.0005(2)
V2 V3+ 0.0074(3) 0.0033(3) 0.0066(3) 0.0002(2) 0.0003(2) 0.0000(2)
P1 P5+ 0.0082(4) 0.0023(4) 0.0062(4) -0.0006(3) 0.0007(3) -0.0004(3)
P2 P5+ 0.0072(4) 0.0029(4) 0.0063(4) -0.0007(3) 0.0002(3) 0.0002(3)
P3 P5+ 0.0068(4) 0.0015(4) 0.0104(5) 0.0002(3) -0.0002(3) 0.0001(3)
O1 O2- 0.0084(13) 0.009(2) 0.023(2) -0.0004(11) 0.0004(12) -0.0057(13)
O2 O2- 0.022(2) 0.0053(12) 0.015(2) -0.0004(12) -0.0061(13) 0.0008(11)
O3 O2- 0.025(2) 0.019(2) 0.011(2) -0.004(2) 0.008(2) -0.0053(13)
O4 O2- 0.015(2) 0.0057(12) 0.0087(12) 0.0052(11) 0.0008(10) 0.0007(10)
O5 O2- 0.0072(12) 0.0096(13) 0.019(2) -0.0034(11) -0.0010(11) 0.0051(12)
O6 O2- 0.017(2) 0.0038(12) 0.013(2) 0.0043(11) 0.0059(12) 0.0006(10)
O7 O2- 0.018(2) 0.012(2) 0.0090(13) -0.0020(12) -0.0027(11) 0.0039(11)
O8 O2- 0.016(2) 0.0054(12) 0.012(2) 0.0035(11) -0.0019(11) -0.0033(10)
O9 O2- 0.0092(13) 0.011(2) 0.017(2) -0.0052(11) -0.0004(11) 0.0054(12)
O10 O2- 0.013(2) 0.016(2) 0.016(2) -0.0063(13) -0.0010(12) -0.0056(13)
O11 O2- 0.013(2) 0.0068(13) 0.020(2) 0.0023(11) 0.0064(12) 0.0011(12)
O12 O2- 0.020(2) 0.015(2) 0.013(2) 0.009(2) -0.0004(13) 0.0049(12)
Li1 Li1+ 0.026(6) 0.009(4) 0.036(7) 0.005(4) 0.006(5) -0.008(4)
Li2 Li1+ 0.057(10) 0.027(7) 0.024(6) -0.026(7) -0.006(6) 0.006(5)
Li3 Li1+ 0.021(6) 0.041(8) 0.023(6) 0.010(6) -0.003(5) -0.015(6)
#End of data_188954-ICSD


