data_15326-ICSD
#?2014 by Fachinformationszentrum Karlsruhe, and the U.S. Secretary of 
#Commerce on behalf of the United States.  All rights reserved.
_database_code_ICSD                15326
_audit_creation_date               1980/01/01
_audit_update_record               2012/08/01
_chemical_name_systematic          'Dimagnesium Diphosphate(V) - Alpha'
_chemical_formula_structural       'Mg2 (P2 O7)'
_chemical_formula_sum              'Mg2 O7 P2'
_publ_section_title
;
The crystal structure of alpha-Mg2 P2 O7
;
loop_
_citation_id
_citation_journal_abbrev
_citation_year
_citation_journal_volume
_citation_page_first
_citation_page_last
_citation_journal_id_ASTM
primary 'Acta Crystallographica (1,1948-23,1967)' 1967 23 289 295 ACCRA9
2 'Phase Transition' 1992 38 127 220 PHTRDP
_publ_author_name                  'Calvo, C.'
_cell_length_a                     13.198(10)
_cell_length_b                     8.295(5)
_cell_length_c                     9.072(5)
_cell_angle_alpha                  90.
_cell_angle_beta                   104.9(1)
_cell_angle_gamma                  90.
_cell_volume                       959.78
_cell_formula_units_Z              8
_symmetry_space_group_name_H-M     'B 1 21/c 1'
_symmetry_Int_Tables_number        14
_refine_ls_R_factor_all            .082
loop_
_symmetry_equiv_pos_site_id
_symmetry_equiv_pos_as_xyz
  1	'x, -y+.5, z+.5'
  2	'-x, y+.5, -z+.5'
  3	'-x, -y, -z'
  4	'x, y, z'
  5	'x+.5, -y+.5, z'
  6	'-x+.5, y+.5, -z'
  7	'-x+.5, -y, -z+.5'
  8	'x+.5, y, z+.5'
loop_
_atom_type_symbol
_atom_type_oxidation_number
Mg2+	2
O2-	-2
P5+	5
loop_
_atom_site_label
_atom_site_type_symbol
_atom_site_symmetry_multiplicity
_atom_site_Wyckoff_symbol
_atom_site_fract_x
_atom_site_fract_y
_atom_site_fract_z
_atom_site_occupancy
_atom_site_attached_hydrogens
Mg1 Mg2+ 8 e 0.3669(1) 0.9301(3) 0.2562(2) 1. 0 
Mg2 Mg2+ 8 e 0.3993(2) 0.5598(3) 0.2267(2) 1. 0 
P1 P5+ 8 e 0.2780(1) 0.2329(3) 0.0389(1) 1. 0 
P2 P5+ 8 e 0.4844(1) 0.2271(3) -.0480(1) 1. 0 
O1 O2- 8 e 0.3757(3) 0.1744(8) -.0239(4) 1. 0 
O2 O2- 8 e 0.5625(3) 0.2364(7) 0.1097(4) 1. 0 
O3 O2- 8 e 0.2611(3) 0.0989(7) 0.1420(4) 1. 0 
O4 O2- 8 e 0.3042(4) 0.3867(8) 0.1210(5) 1. 0 
O5 O2- 8 e 0.5084(3) 0.0910(7) -.1471(4) 1. 0 
O6 O2- 8 e 0.4745(3) 0.3889(7) -.1293(4) 1. 0 
O7 O2- 8 e 0.1882(3) 0.2418(7) -.1070(4) 1. 0 

loop_
_atom_site_aniso_label
_atom_site_aniso_type_symbol
_atom_site_aniso_U_11
_atom_site_aniso_U_22
_atom_site_aniso_U_33
_atom_site_aniso_U_12
_atom_site_aniso_U_13
_atom_site_aniso_U_23
Mg1 Mg2+ 0.0029(6) 0.0035(17) 0.0034(7) 0.0009(9) -0.0005(10) -0.0005(5)
Mg2 Mg2+ 0.0063(7) 0.0024(16) 0.0049(7) -0.0012(10) -0.0002(10) 0.0004(6)
P1 P5+ 0.0021(4) 0.0029(13) 0.0016(4) 0.0003(6) 0.0009(6) -0.0010(3)
P2 P5+ 0.0064(5) 0.0021(13) 0.0003(4) -0.0002(6) 0.0008(6) 0.0001(3)
O1 O2- 0.0026(13) 0.0120(36) 0.0036(13) 0.0044(17) 0.0005(17) -0.0002(10)
O2 O2- 0.0091(13) 0.0075(35) 0.0010(11) 0.0029(21) -0.0009(17) -0.0005(9)
O3 O2- 0.0032(11) 0.0058(32) 0.0033(11) -0.0008(17) 0.0040(17) -0.0006(9)
O4 O2- 0.0150(18) 0.0042(35) 0.0061(11) -0.0037(22) -0.0007(20) -0.0030(11)
O5 O2- 0.0038(11) 0.0022(30) 0.0007(11) 0.0005(18) -0.0033(16) 0.0015(8)
O6 O2- 0.0122(16) 0.0034(32) 0.0056(14) 0.0054(21) 0.0016(18) 0.0024(11)
O7 O2- 0.0054(11) 0.0045(30) 0.0042(11) 0.0033(20) 0.0021(17) 0.0002(9)
#End of data_15326-ICSD


