data_89956-ICSD
#?2014 by Fachinformationszentrum Karlsruhe, and the U.S. Secretary of 
#Commerce on behalf of the United States.  All rights reserved.
_database_code_ICSD                89956
_audit_creation_date               2002/04/01
_chemical_name_systematic          'Dicalcium Ferro(II)molybdate'
_chemical_formula_structural       'Ca2 (Fe Mo O6)'
_chemical_formula_sum              'Ca2 Fe1 Mo1 O6'
_publ_section_title
;
Preparation, crystal structure, and magnetic and magnetotransport 
properties of the double perovskite Ca2 Fe Mo O6
;
loop_
_citation_id
_citation_journal_abbrev
_citation_year
_citation_journal_volume
_citation_page_first
_citation_page_last
_citation_journal_id_ASTM
primary 'Chemistry of Materials' 2000 12 161 168 CMATEX
_publ_author_name
;
Alonso, J.A.;Casais, M.T.;Martinez Lopez, M.J.;Martinez, 
J.L.;Velasco, P.;Munoz, A.;Fernandez Diaz, M.T.
;
_cell_length_a                     5.4004(1)
_cell_length_b                     5.5219(1)
_cell_length_c                     7.6906(2)
_cell_angle_alpha                  90.
_cell_angle_beta                   89.971(8)
_cell_angle_gamma                  90.
_cell_volume                       229.34
_cell_formula_units_Z              2
_symmetry_space_group_name_H-M     'P 1 21/n 1'
_symmetry_Int_Tables_number        14
_refine_ls_R_factor_all            .043
loop_
_symmetry_equiv_pos_site_id
_symmetry_equiv_pos_as_xyz
  1	'-x+.5, y+.5, -z+.5'
  2	'-x, -y, -z'
  3	'x+.5, -y+.5, z+.5'
  4	'x, y, z'
loop_
_atom_type_symbol
_atom_type_oxidation_number
Ca2+	2
Fe2+	2
Mo6+	6
O2-	-2
loop_
_atom_site_label
_atom_site_type_symbol
_atom_site_symmetry_multiplicity
_atom_site_Wyckoff_symbol
_atom_site_fract_x
_atom_site_fract_y
_atom_site_fract_z
_atom_site_occupancy
_atom_site_attached_hydrogens
_atom_site_B_iso_or_equiv
Ca1 Ca2+ 4 e 0.9920(7) 0.0474(3) 0.249(2) 1. 0 0.46(4) 
Fe1 Fe2+ 2 c 0.5 0 0.5 1. 0 0.44(8) 
Mo1 Mo6+ 2 d 0.5 0 0 1. 0 0.01(9) 
O1 O2- 4 e 0.0814(4) 0.4770(4) 0.2539(11) 1. 0 0.41(3) 
O2 O2- 4 e 0.6970(9) 0.2859(9) 0.043(1) 1. 0 0.80(3) 
O3 O2- 4 e 0.2100(8) 0.1986(8) 0.9560(9) 1. 0 0.08(3) 

#End of data_89956-ICSD


