data_68588-ICSD
#?2014 by Fachinformationszentrum Karlsruhe, and the U.S. Secretary of 
#Commerce on behalf of the United States.  All rights reserved.
_database_code_ICSD                68588
_audit_creation_date               1991/07/10
_audit_update_record               1998/06/26
_chemical_name_systematic          'Magnesium Silicate'
_chemical_formula_structural       'Mg2 (Si O4)'
_chemical_formula_sum              'Mg2 O4 Si1'
_chemical_name_mineral             Forsterite
_publ_section_title
;
A two-circle powder diffractometer for synchrotron radiation with a 
closed loop encoder feedback system
;
loop_
_citation_id
_citation_journal_abbrev
_citation_year
_citation_journal_volume
_citation_page_first
_citation_page_last
_citation_journal_id_ASTM
primary 'Journal of Applied Crystallography' 1990 23 292 296 JACGAR
_publ_author_name
;
Cernik, R.J.;Murray, P.K.;Pattison, P.;Fitch, A.N.
;
_cell_length_a                     4.7533(1)
_cell_length_b                     10.2063(1)
_cell_length_c                     5.9841(1)
_cell_angle_alpha                  90.
_cell_angle_beta                   90.
_cell_angle_gamma                  90.
_cell_volume                       290.31
_cell_formula_units_Z              4
_symmetry_space_group_name_H-M     'P b n m'
_symmetry_Int_Tables_number        62
_refine_ls_R_factor_all            .057
loop_
_symmetry_equiv_pos_site_id
_symmetry_equiv_pos_as_xyz
  1	'-x+.5, y+.5, z'
  2	'x, y, -z+.5'
  3	'x+.5, -y+.5, z+.5'
  4	'-x, -y, -z'
  5	'x+.5, -y+.5, -z'
  6	'-x, -y, z+.5'
  7	'-x+.5, y+.5, -z+.5'
  8	'x, y, z'
loop_
_atom_type_symbol
_atom_type_oxidation_number
Mg2+	2
O2-	-2
Si4+	4
loop_
_atom_site_label
_atom_site_type_symbol
_atom_site_symmetry_multiplicity
_atom_site_Wyckoff_symbol
_atom_site_fract_x
_atom_site_fract_y
_atom_site_fract_z
_atom_site_occupancy
_atom_site_attached_hydrogens
_atom_site_B_iso_or_equiv
Mg1 Mg2+ 4 a 0 0 0 1. 0 0.40(2) 
Mg2 Mg2+ 4 c 0.9921(2) 0.2774(1) 0.25 1. 0 0.29(2) 
Si1 Si4+ 4 c 0.4271(1) 0.0942(1) 0.25 1. 0 0.26(1) 
O1 O2- 4 c 0.7669(3) 0.0915(2) 0.25 1. 0 0.35(3) 
O2 O2- 4 c 0.2211(3) 0.4461(2) 0.25 1. 0 0.25(3) 
O3 O2- 8 d 0.2781(3) 0.1631(1) 0.0326(2) 1. 0 0.31(2) 

#End of data_68588-ICSD


