data_201538-ICSD
#?2014 by Fachinformationszentrum Karlsruhe, and the U.S. Secretary of 
#Commerce on behalf of the United States.  All rights reserved.
_database_code_ICSD                201538
_audit_creation_date               1985/07/17
_audit_update_record               2006/04/01
_chemical_name_systematic          'Calcium Catena-silicate'
_chemical_formula_structural       'Ca (Si O3)'
_chemical_formula_sum              'Ca1 O3 Si1'
_chemical_name_mineral             'Wollastonite 2M'
_publ_section_title
;
Polysynthetically-twinned structures of enstatite and wollastonite
;
loop_
_citation_id
_citation_journal_abbrev
_citation_year
_citation_journal_volume
_citation_page_first
_citation_page_last
_citation_journal_id_ASTM
primary 'Physics and Chemistry of Minerals' 1984 10 217 229 PCMIDU
2 'Golden Book of Phase Transitions, Wroclaw' 2002 1 1 123 GBOPT5
_publ_author_name                  'Ohashi, Y.'
_cell_length_a                     15.424(1)
_cell_length_b                     7.324(1)
_cell_length_c                     7.0692(7)
_cell_angle_alpha                  90.
_cell_angle_beta                   95.371(4)
_cell_angle_gamma                  90.
_cell_volume                       795.07
_cell_formula_units_Z              12
_symmetry_space_group_name_H-M     'P 1 21/a 1'
_symmetry_Int_Tables_number        14
_refine_ls_R_factor_all            .068
loop_
_symmetry_equiv_pos_site_id
_symmetry_equiv_pos_as_xyz
  1	'x+.5, -y+.5, z'
  2	'-x, -y, -z'
  3	'-x+.5, y+.5, -z'
  4	'x, y, z'
loop_
_atom_type_symbol
_atom_type_oxidation_number
Ca2+	2
O2-	-2
Si4+	4
loop_
_atom_site_label
_atom_site_type_symbol
_atom_site_symmetry_multiplicity
_atom_site_Wyckoff_symbol
_atom_site_fract_x
_atom_site_fract_y
_atom_site_fract_z
_atom_site_occupancy
_atom_site_attached_hydrogens
_atom_site_B_iso_or_equiv
Ca1 Ca2+ 4 e 0.40056(6) 0.6248(2) 0.7389(1) 1. 0 0.61(1) 
Ca2 Ca2+ 4 e 0.39880(6) 0.1191(2) 0.7362(1) 1. 0 0.56(2) 
Ca3 Ca2+ 4 e 0.24837(6) 0.3744(3) 0.9736(1) 1. 0 0.60(1) 
Si1 Si4+ 4 e 0.4075(1) 0.6584(2) 0.2311(2) 1. 0 0.47(3) 
Si2 Si4+ 4 e 0.4077(1) 0.0927(2) 0.2311(2) 1. 0 0.54(3) 
Si3 Si4+ 4 e 0.3014(1) 0.3761(2) 0.4438(2) 1. 0 0.49(2) 
O1 O2- 4 e 0.3485(2) 0.6121(7) 0.0366(4) 1. 0 0.63(6) 
O2 O2- 4 e 0.3493(2) 0.1329(8) 0.0369(4) 1. 0 0.75(6) 
O3 O2- 4 e 0.2147(2) 0.3712(8) 0.3011(4) 1. 0 0.55(5) 
O4 O2- 4 e 0.5083(2) 0.6157(8) 0.2335(4) 1. 0 0.70(6) 
O5 O2- 4 e 0.5090(2) 0.1218(8) 0.2367(4) 1. 0 0.89(5) 
O6 O2- 4 e 0.2991(2) 0.3703(8) 0.6708(4) 1. 0 0.70(5) 
O7 O2- 4 e 0.3914(2) 0.8761(6) 0.2753(4) 1. 0 0.95(5) 
O8 O2- 4 e 0.3639(2) 0.1970(5) 0.4053(5) 1. 0 0.86(6) 
O9 O2- 4 e 0.3637(2) 0.5550(5) 0.4056(5) 1. 0 0.72(6) 

#End of data_201538-ICSD


