data_51076-ICSD
#?2014 by Fachinformationszentrum Karlsruhe, and the U.S. Secretary of 
#Commerce on behalf of the United States.  All rights reserved.
_database_code_ICSD                51076
_audit_creation_date               2001/07/16
_chemical_name_systematic          'Tetrayttrium Dialuminium Oxide'
_chemical_formula_structural       'Y4 Al2 O9'
_chemical_formula_sum              'Al2 O9 Y4'
_publ_section_title
;
High-temperature neutron diffraction study of Y4 Al2 O9
;
loop_
_citation_id
_citation_journal_abbrev
_citation_year
_citation_journal_volume
_citation_page_first
_citation_page_last
_citation_journal_id_ASTM
primary 'Journal of Solid State Chemistry' 1998 141 466 474 JSSCBI
_publ_author_name
;
Yamane, H.;Shimada, M.;Hunter, B.A.
;
_cell_length_a                     7.4579(3)
_cell_length_b                     10.5310(4)
_cell_length_c                     11.1498(5)
_cell_angle_alpha                  90.
_cell_angle_beta                   108.806(3)
_cell_angle_gamma                  90.
_cell_volume                       828.95
_cell_formula_units_Z              4
_symmetry_space_group_name_H-M     'P 1 21/c 1'
_symmetry_Int_Tables_number        14
_refine_ls_R_factor_all            .0113
loop_
_symmetry_equiv_pos_site_id
_symmetry_equiv_pos_as_xyz
  1	'x, -y+.5, z+.5'
  2	'-x, -y, -z'
  3	'-x, y+.5, -z+.5'
  4	'x, y, z'
loop_
_atom_type_symbol
_atom_type_oxidation_number
Al3+	3
O2-	-2
Y3+	3
loop_
_atom_site_label
_atom_site_type_symbol
_atom_site_symmetry_multiplicity
_atom_site_Wyckoff_symbol
_atom_site_fract_x
_atom_site_fract_y
_atom_site_fract_z
_atom_site_occupancy
_atom_site_attached_hydrogens
_atom_site_B_iso_or_equiv
Y1 Y3+ 4 e 0.5244(11) 0.1080(8) 0.7870(8) 1. 0 2.5(2) 
Y2 Y3+ 4 e 0.0237(10) 0.0955(6) 0.8050(6) 1. 0 1.25(14) 
Y3 Y3+ 4 e 0.3379(11) 0.1215(8) 0.4337(7) 1. 0 2.0(2) 
Y4 Y3+ 4 e 0.8363(11) 0.1237(8) 0.4169(7) 1. 0 1.9(2) 
Al1 Al3+ 4 e 0.217(2) 0.181(2) 0.1320(14) 1. 0 1.7(2) 
Al2 Al3+ 4 e 0.639(2) 0.1800(14) 0.1098(14) 1. 0 1.7(2) 
O1 O2- 4 e 0.790(2) 0.2314(11) 0.7489(10) 1. 0 2.7(2) 
O2 O2- 4 e 0.2373(13) 0.2367(9) 0.7690(8) 1. 0 1.4(2) 
O3 O2- 4 e 0.214(2) 0.0235 0.1607(11) 1. 0 2.6(2) 
O4 O2- 4 e 0.0737(13) 0.2342(11) 0.9834(9) 1. 0 3.1(2) 
O5 O2- 4 e 0.431(2) 0.2366(8) 0.1137(10) 1. 0 2.9(2) 
O6 O2- 4 e 0.6303(13) 0.2304(9) 0.9570(8) 1. 0 2.0(2) 
O7 O2- 4 e 0.698(2) 0.0281(13) 0.1528(12) 1. 0 3.4(2) 
O8 O2- 4 e 0.083(2) -.0041(11) 0.3939(13) 1. 0 2.8(2) 
O9 O2- 4 e 0.563(2) 0.0057(9) 0.3878(11) 1. 0 1.5(2) 

#End of data_51076-ICSD


