data_88354-ICSD
#?2014 by Fachinformationszentrum Karlsruhe, and the U.S. Secretary of 
#Commerce on behalf of the United States.  All rights reserved.
_database_code_ICSD                88354
_audit_creation_date               2001/07/16
_audit_update_record               2006/04/01
_chemical_name_systematic          'Sodium Vanadium(IV) Vanadium Oxide'
_chemical_formula_structural       'Na (V2 O5)'
_chemical_formula_sum              'Na1 O5 V2'
_publ_section_title
;
Crystal structures and electronic properties in the crossover region 
between the spin-gap system Ca V2 O5 and the linear-chain system Na 
V2 O5
;
loop_
_citation_id
_citation_journal_abbrev
_citation_year
_citation_journal_volume
_citation_page_first
_citation_page_last
_citation_journal_id_ASTM
primary 'Journal of Physics: Condensed Matter' 1999 11 3475 3488 JCOMEL
2 'Golden Book of Phase Transitions, Wroclaw' 2002 1 1 123 GBOPT5
_publ_author_name                  'Onoda, M.;Kagami, T.'
_cell_length_a                     11.295(2)
_cell_length_b                     3.605(1)
_cell_length_c                     4.795(1)
_cell_angle_alpha                  90.
_cell_angle_beta                   90.
_cell_angle_gamma                  90.
_cell_volume                       195.25
_cell_formula_units_Z              2
_symmetry_space_group_name_H-M     'P m m n Z'
_symmetry_Int_Tables_number        59
_refine_ls_R_factor_all            .023
loop_
_symmetry_equiv_pos_site_id
_symmetry_equiv_pos_as_xyz
  1	'x+.5, y+.5, -z'
  2	'-x, y+.5, -z'
  3	'x+.5, -y, -z'
  4	'-x, -y, -z'
  5	'-x+.5, -y+.5, z'
  6	'x, -y+.5, z'
  7	'-x+.5, y, z'
  8	'x, y, z'
loop_
_atom_type_symbol
_atom_type_oxidation_number
Na1+	1
O2-	-2
V4.5+	4.5
loop_
_atom_site_label
_atom_site_type_symbol
_atom_site_symmetry_multiplicity
_atom_site_Wyckoff_symbol
_atom_site_fract_x
_atom_site_fract_y
_atom_site_fract_z
_atom_site_occupancy
_atom_site_attached_hydrogens
_atom_site_B_iso_or_equiv
V1 V4.5+ 4 f 0.40211(3) 0.25 0.39212(7) 1. 0 0.642(4) 
Na1 Na1+ 2 b 0.75 0.25 0.1399(3) 1. 0 1.41(2) 
O1 O2- 4 f 0.3854(1) 0.25 0.0586(3) 1. 0 1.18(2) 
O2 O2- 4 f 0.5731(1) 0.25 0.4878(3) 1. 0 0.80(2) 
O3 O2- 2 a 0.25 0.25 0.5195(4) 1. 0 0.78(3) 

#End of data_88354-ICSD


