data_280991-ICSD
#?2014 by Fachinformationszentrum Karlsruhe, and the U.S. Secretary of 
#Commerce on behalf of the United States.  All rights reserved.
_database_code_ICSD                280991
_audit_creation_date               2003/04/01
_chemical_name_systematic          'Calcium Carbonate'
_chemical_formula_structural       'Ca (C O3)'
_chemical_formula_sum              'C1 Ca1 O3'
_chemical_name_mineral             Aragonite
_publ_section_title
;
On the structure of aragonite - Lawrence Bragg revisited
;
loop_
_citation_id
_citation_journal_abbrev
_citation_year
_citation_journal_volume
_citation_page_first
_citation_page_last
_citation_journal_id_ASTM
primary 'Acta Crystallographica, Section B: Structural Science'
 2002 58 448 456 ASBSDK
_publ_author_name
;
Bevan, D.J.M.;Rossmanith, E.;Mylrea, D.K.;Ness, S.E.;Taylor, 
M.R.;Cuff, C.
;
_cell_length_a                     5.7394(4)
_cell_length_b                     4.9616(2)
_cell_length_c                     7.9700(5)
_cell_angle_alpha                  89.999(4)
_cell_angle_beta                   90.012(5)
_cell_angle_gamma                  89.996(4)
_cell_volume                       226.96
_cell_formula_units_Z              4
_symmetry_space_group_name_H-M     'P -1'
_symmetry_Int_Tables_number        2
_refine_ls_R_factor_all            .026
loop_
_symmetry_equiv_pos_site_id
_symmetry_equiv_pos_as_xyz
  1	'-x, -y, -z'
  2	'x, y, z'
loop_
_atom_type_symbol
_atom_type_oxidation_number
C4+	4
Ca2+	2
O2-	-2
loop_
_atom_site_label
_atom_site_type_symbol
_atom_site_symmetry_multiplicity
_atom_site_Wyckoff_symbol
_atom_site_fract_x
_atom_site_fract_y
_atom_site_fract_z
_atom_site_occupancy
_atom_site_attached_hydrogens
_atom_site_U_iso_or_equiv
Ca1 Ca2+ 2 i 0.74101(3) 0.24923(5) 0.58465(2) 1. 0 0.008421(18) 
Ca2 Ca2+ 2 i 0.23969(3) 0.24995(5) 0.91478(2) 1. 0 0.007976(18) 
C1 C4+ 2 i 0.41592(16) 0.7540(2) 0.76281(10) 1. 0 0.00583(8) 
C2 C4+ 2 i 0.91378(16) 0.7482(2) 0.73876(10) 1. 0 0.01006(9) 
O1 O2- 2 i 0.40398(12) 0.7519(2) 0.92178(8) 1. 0 0.01237(8) 
O2 O2- 2 i 0.90486(12) 0.7500(2) 0.57719(8) 1. 0 0.01184(8) 
O3 O2- 2 i 0.4128(2) 0.52529(17) 0.68209(10) 1. 0 0.01140(8) 
O4 O2- 2 i 0.9109(2) 0.97523(17) 0.8180(1) 1. 0 0.01231(9) 
O5 O2- 2 i 0.41298(18) 0.97498(16) 0.68004(10) 1. 0 0.00951(8) 
O6 O2- 2 i 0.91495(18) 0.52853(15) 0.82219(9) 1. 0 0.01270(9) 

loop_
_atom_site_aniso_label
_atom_site_aniso_type_symbol
_atom_site_aniso_U_11
_atom_site_aniso_U_22
_atom_site_aniso_U_33
_atom_site_aniso_U_12
_atom_site_aniso_U_13
_atom_site_aniso_U_23
Ca1 Ca2+ 0.00775 0.00883 0.00823 0.00018 -0.00042 0.00001
Ca2 Ca2+ 0.0077 0.00886 0.00827 0.00014 -0.00089 0.00002
C1 C4+ 0.00562 0.00814 0.00955 0.00012 -0.00066 -0.00024
C2 C4+ 0.00561 0.00815 0.00979 0.00005 -0.00069 0.00008
O1 O2- 0.01227 0.01702 0.00786 0.00011 -0.00115 -0.00024
O2 O2- 0.01222 0.01733 0.00781 0.00013 -0.00003 0.00024
O3 O2- 0.01243 0.00842 0.01373 0.00026 0.00033 -0.0026
O4 O2- 0.01265 0.00818 0.01348 -0.00007 -0.00187 -0.00296
O5 O2- 0.01254 0.00848 0.01406 0.00004 0.00055 0.00294
O6 O2- 0.01262 0.00799 0.01371 0.00034 -0.00178 0.00269
#End of data_280991-ICSD


