data_39844-ICSD
#?2014 by Fachinformationszentrum Karlsruhe, and the U.S. Secretary of 
#Commerce on behalf of the United States.  All rights reserved.
_database_code_ICSD                39844
_audit_creation_date               1995/10/17
_audit_update_record               2002/04/01
_chemical_name_systematic
;
Calcium Trihydroxotetraoxotriborate
;
_chemical_formula_structural       'Ca (B3 O4 (O H)3)'
_chemical_formula_sum              'H3 B3 Ca1 O7'
_chemical_name_mineral             Unnamed
_publ_section_title
;
Crystal structure of a new natural calcium hydroborate Ca (B3 O4 (O 
H)3)
;
loop_
_citation_id
_citation_journal_abbrev
_citation_year
_citation_journal_volume
_citation_journal_issue
_citation_page_first
_citation_page_last
_citation_journal_id_ASTM
primary Kristallografiya 1994 39 6 991 993 KRISAJ
2 'Crystallography Reports' 1994 39- 905 907 CYSTE3
_publ_author_name
;
Yamnova, N.A.;Egorov Tismenko, Yu.K.;Malinko, S.V.;Pushcharovskii, 
D.Yu.;Dorokhova, G.I.
;
_cell_length_a                     8.386(3)
_cell_length_b                     8.142(4)
_cell_length_c                     7.249(3)
_cell_angle_alpha                  90.
_cell_angle_beta                   98.33(3)
_cell_angle_gamma                  90.
_cell_volume                       489.73
_cell_formula_units_Z              4
_symmetry_space_group_name_H-M     'P 1 21/a 1'
_symmetry_Int_Tables_number        14
_refine_ls_R_factor_all            .035
loop_
_symmetry_equiv_pos_site_id
_symmetry_equiv_pos_as_xyz
  1	'x+.5, -y+.5, z'
  2	'-x, -y, -z'
  3	'-x+.5, y+.5, -z'
  4	'x, y, z'
loop_
_atom_type_symbol
_atom_type_oxidation_number
B3+	3
Ca2+	2
H1+	1
O2-	-2
loop_
_atom_site_label
_atom_site_type_symbol
_atom_site_symmetry_multiplicity
_atom_site_Wyckoff_symbol
_atom_site_fract_x
_atom_site_fract_y
_atom_site_fract_z
_atom_site_occupancy
_atom_site_attached_hydrogens
_atom_site_B_iso_or_equiv
Ca1 Ca2+ 4 e 0.88831(4) 0.20828(4) 0.07616(5) 1. 0 0.68(1) 
B1 B3+ 4 e 0.6681(2) 0.0390(2) 0.3110(2) 1. 0 0.56(3) 
B2 B3+ 4 e 0.1132(2) 0.1480(2) 0.7794(3) 1. 0 0.62(3) 
B3 B3+ 4 e 0.2169(2) 0.1918(2) 0.4853(2) 1. 0 0.63(3) 
O1 O2- 4 e 0.6183(2) 0.2230(1) 0.9246(2) 1. 0 0.72(2) 
O2 O2- 4 e 0.2546(2) 0.0447(2) 0.8317(2) 1. 0 0.64(2) 
O3 O2- 4 e 0.7406(2) 0.2073(2) 0.3394(2) 1. 0 0.77(2) 
O4 O2- 4 e 0.4944(2) 0.0555(2) 0.2452(2) 1. 0 0.70(2) 
O5 O2- 4 e 0.9640(2) 0.0463(2) 0.7963(2) 1. 0 0.89(2) 
O6 O2- 4 e 0.1050(2) 0.2244(2) 0.5980(2) 1. 0 0.87(2) 
O7 O2- 4 e 0.3073(2) 0.0505(2) 0.5092(2) 1. 0 0.71(2) 
H1 H1+ 4 e 0.435(3) 0.059(3) 0.334(3) 1. 0 2.7(6) 
H2 H1+ 4 e 0.897(3) 0.040(3) 0.699(3) 1. 0 3.7(7) 
H3 H1+ 4 e 0.586(3) 0.126(3) 0.870(3) 1. 0 7.0(9) 

#End of data_39844-ICSD


