data_170460-ICSD
#?2014 by Fachinformationszentrum Karlsruhe, and the U.S. Secretary of 
#Commerce on behalf of the United States.  All rights reserved.
_database_code_ICSD                170460
_audit_creation_date               2006/04/01
_chemical_name_systematic
;
Pentapotassium Diuranyl Hydroxysilicate
;
_chemical_formula_structural       'K5 (U O2)2 (Si4 O12 (O H))'
_chemical_formula_sum              'H1 K5 O17 Si4 U2'
_publ_section_title
;
K5 (U O2)2 [Si4 O12 (O H)]: a new uranyl silicate containing chains 
of four silicate tetrahedra linked by Si O...H O Si hydrogen bonds
;
loop_
_citation_id
_citation_journal_abbrev
_citation_year
_citation_journal_volume
_citation_journal_issue
_citation_page_first
_citation_page_last
_citation_journal_id_ASTM
primary 'Inorganic Chemistry' 2005 44 4 935 940 INOCAJ
_publ_author_name                  'Chen, C.-S.;Kao, H.-M.;Li, K.-H.'
_cell_length_a                     13.1274(7)
_cell_length_b                     12.2635(7)
_cell_length_c                     22.2328(12)
_cell_angle_alpha                  90.
_cell_angle_beta                   90.
_cell_angle_gamma                  90.
_cell_volume                       3579.21
_cell_formula_units_Z              8
_symmetry_space_group_name_H-M     'P b c m'
_symmetry_Int_Tables_number        57
_refine_ls_R_factor_all            .0504
loop_
_symmetry_equiv_pos_site_id
_symmetry_equiv_pos_as_xyz
  1	'x, -y+.5, z+.5'
  2	'-x, y+.5, z'
  3	'x, y, -z+.5'
  4	'-x, -y, -z'
  5	'-x, y+.5, -z+.5'
  6	'x, -y+.5, -z'
  7	'-x, -y, z+.5'
  8	'x, y, z'
loop_
_atom_type_symbol
_atom_type_oxidation_number
H1+	1
K1+	1
O2-	-2
Si4+	4
U6+	6
loop_
_atom_site_label
_atom_site_type_symbol
_atom_site_symmetry_multiplicity
_atom_site_Wyckoff_symbol
_atom_site_fract_x
_atom_site_fract_y
_atom_site_fract_z
_atom_site_occupancy
_atom_site_attached_hydrogens
_atom_site_U_iso_or_equiv
K1 K1+ 4 d 0.32333(17) 0.00669(17) 0.7500 1 0 0.0202(5) 
K2 K1+ 4 c -0.16250(17) 0.2500 0.5000 1 0 0.0166(4) 
K3 K1+ 4 d 0.16613(18) -0.25777(17) 0.7500 1 0 0.0205(5) 
K4 K1+ 8 e -0.68742(17) 0.0214(2) 0.49217(9) 1 0 0.0453(6) 
K5 K1+ 8 e -0.95530(15) 0.26509(15) 0.36819(8) 1 0 0.0314(4) 
K6 K1+ 8 e -0.46752(14) 0.00352(14) 0.63723(8) 1 0 0.0315(4) 
K7 K1+ 4 d -0.2507(2) -0.1098(2) 0.7500 1 0 0.0373(7) 
U1 U6+ 4 d 0.02193(3) -0.00480(3) 0.7500 1 0 0.00952(10) 
U2 U6+ 4 d 0.52543(3) 0.24891(2) 0.7500 1 0 0.00995(10) 
U3 U6+ 4 c 0.50672(2) 0.2500 0.5000 1 0 0.01033(11) 
U4 U6+ 4 a 0.0000 0.0000 0.5000 1 0 0.00986(11) 
Si1 Si4+ 8 e 0.82734(13) 0.06151(15) 0.62753(8) 1 0 0.0112(4) 
Si2 Si4+ 8 e 0.69108(14) 0.26795(15) 0.61871(8) 1 0 0.0095(3) 
Si3 Si4+ 8 e 0.19171(13) -0.02110(15) 0.61853(8) 1 0 0.0096(3) 
Si4 Si4+ 8 e 0.33370(14) 0.18672(15) 0.62836(8) 1 0 0.0124(4) 
O1 O2- 8 e 0.7358(4) -0.0256(4) 0.6300(2) 1 0 0.0214(11) 
O2 O2- 8 e 0.7840(4) 0.1859(4) 0.6399(2) 1 0 0.0167(10) 
O3 O2- 8 e 0.8806(4) 0.0670(4) 0.5623(2) 1 0 0.0177(10) 
O4 O2- 8 e 0.9113(4) 0.0467(4) 0.6808(2) 1 0 0.0253(12) 
O5 O2- 8 e 0.6275(3) 0.2043(4) 0.5675(2) 1 0 0.0162(10) 
O6 O2- 8 e 0.6304(4) 0.3114(4) 0.67685(19) 1 0 0.0180(10) 
O7 O2- 8 e 0.7499(3) 0.3731(3) 0.58767(17) 1 0 0.0129(9) 
O8 O2- 8 e 0.2828(4) 0.0647(4) 0.6360(2) 1 0 0.0188(11) 
O9 O2- 8 e 0.1221(4) 0.0371(4) 0.5691(2) 1 0 0.0173(10) 
O10 O2- 8 e 0.1358(4) -0.0602(4) 0.6797(2) 1 0 0.0191(11) 
O11 O2- 8 e 0.2443(4) 0.2747(5) 0.6390(3) 1 0 0.0317(14) 
O12 O2- 8 e 0.3861(4) 0.1934(5) 0.5627(2) 1 0 0.0262(12) 
O13 O2- 8 e 0.4188(4) 0.1877(4) 0.6811(2) 1 0 0.0282(13) 
O14 O2- 4 d 0.0782(6) 0.1293(5) 0.7500 1 0 0.0269(17) 
O15 O2- 4 d -0.0303(5) -0.1426(5) 0.7500 1 0 0.0202(15) 
O16 O2- 4 d 0.5906(6) 0.1178(5) 0.7500 1 0 0.0246(17) 
O17 O2- 4 d 0.4655(5) 0.3841(5) 0.7500 1 0 0.0188(15) 
O18 O2- 8 e 0.5068(3) 0.1127(4) 0.4681(2) 1 0 0.0194(12) 
O19 O2- 8 e 0.0126(4) 0.1362(4) 0.4669(2) 1 0 0.0180(11) 
H1 H1+ 8 e 0.751(7) -0.153(7) 0.637(4) 1 0 0.050 

loop_
_atom_site_aniso_label
_atom_site_aniso_type_symbol
_atom_site_aniso_U_11
_atom_site_aniso_U_22
_atom_site_aniso_U_33
_atom_site_aniso_U_12
_atom_site_aniso_U_13
_atom_site_aniso_U_23
K1 K1+ 0.0254(12) 0.0238(12) 0.0115(11) -0.0028(9) 0.000 0.000
K2 K1+ 0.0199(11) 0.0175(12) 0.0122(10) 0.000 0.000 -0.0010(8)
K3 K1+ 0.0305(13) 0.0199(12) 0.0112(11) 0.0034(9) 0.000 0.000
K4 K1+ 0.0449(13) 0.0705(15) 0.0205(9) -0.0281(11) 0.0061(8) -0.0037(9)
K5 K1+ 0.0344(10) 0.0326(10) 0.0273(10) 0.0026(8) 0.0052(7) 0.0095(7)
K6 K1+ 0.0293(10) 0.0396(12) 0.0257(9) 0.0063(8) -0.0022(8) -0.0104(7)
K7 K1+ 0.0268(13) 0.071(2) 0.0141(11) -0.0127(12) 0.000 0.000
U1 U6+ 0.01176(16) 0.0109(2) 0.00587(18) 0.00139(14) 0.000 0.000
U2 U6+ 0.01186(18) 0.0121(2) 0.00592(18) -0.00239(14) 0.000 0.000
U3 U6+ 0.0114(2) 0.0135(3) 0.0061(2) 0.000 0.000 -0.00027(13)
U4 U6+ 0.0114(2) 0.0123(3) 0.0059(2) 0.00150(11) -0.00011(9) 0.00062(13)
Si1 Si4+ 0.0128(9) 0.0142(9) 0.0066(9) 0.0032(7) -0.0005(6) 0.0008(7)
Si2 Si4+ 0.0098(8) 0.0129(8) 0.0059(8) -0.0003(7) -0.0007(6) 0.0002(7)
Si3 Si4+ 0.0104(8) 0.0129(8) 0.0056(8) 0.0014(7) -0.0004(6) -0.0001(7)
Si4 Si4+ 0.0135(9) 0.0163(10) 0.0073(9) -0.0026(7) 0.0004(6) -0.0011(7)
O1 O2- 0.022(3) 0.017(2) 0.026(3) -0.003(2) 0.006(2) 0.001(2)
O2 O2- 0.022(3) 0.013(2) 0.015(2) 0.0035(19) -0.0064(19) -0.0017(19)
O3 O2- 0.022(3) 0.021(3) 0.011(2) 0.007(2) 0.005(2) 0.000(2)
O4 O2- 0.025(3) 0.038(3) 0.013(3) 0.012(2) -0.006(2) 0.001(2)
O5 O2- 0.017(3) 0.015(2) 0.016(3) 0.0012(18) -0.005(2) -0.002(2)
O6 O2- 0.020(3) 0.021(3) 0.013(2) -0.0009(19) 0.0104(19) 0.001(2)
O7 O2- 0.017(2) 0.016(2) 0.0060(19) -0.0019(17) -0.0002(18) 0.0004(18)
O8 O2- 0.022(3) 0.014(2) 0.020(3) -0.005(2) -0.008(2) 0.003(2)
O9 O2- 0.019(3) 0.023(3) 0.010(2) 0.005(2) -0.0062(19) 0.000(2)
O10 O2- 0.019(3) 0.027(3) 0.011(2) 0.008(2) 0.0066(19) 0.003(2)
O11 O2- 0.030(3) 0.019(3) 0.046(3) 0.004(2) 0.014(3) -0.002(3)
O12 O2- 0.022(3) 0.049(3) 0.008(2) -0.010(2) 0.004(2) -0.001(2)
O13 O2- 0.030(3) 0.041(3) 0.013(3) -0.017(3) -0.010(2) -0.002(2)
O14 O2- 0.042(5) 0.015(4) 0.024(4) -0.008(3) 0.000 0.000
O15 O2- 0.019(4) 0.018(4) 0.024(4) -0.007(3) 0.000 0.000
O16 O2- 0.043(5) 0.018(4) 0.012(4) 0.007(3) 0.000 0.000
O17 O2- 0.019(4) 0.017(4) 0.020(4) 0.008(3) 0.000 0.000
O18 O2- 0.022(3) 0.022(3) 0.014(3) -0.0051(18) 0.0010(18) -0.004(2)
O19 O2- 0.021(3) 0.017(3) 0.016(3) 0.0018(19) 0.0021(19) 0.006(2)
#End of data_170460-ICSD


