data_36503-ICSD
#?2014 by Fachinformationszentrum Karlsruhe, and the U.S. Secretary of 
#Commerce on behalf of the United States.  All rights reserved.
_database_code_ICSD                36503
_audit_creation_date               1992/01/20
_audit_update_record               2013/08/01
_chemical_name_systematic
;
Sodium Octa-mue3-chloro-pentachloro-octahedro-hexamolybdate(II )
;
_chemical_formula_structural       'Na Mo6 Cl13'
_chemical_formula_sum              'Cl13 Mo6 Na1'
_publ_section_title
;
NaMo6Cl13: Ein Beitrag zur Kristallchemie ternaerer Molybdaen(II)-
halogenide
;
loop_
_citation_id
_citation_journal_abbrev
_citation_year
_citation_journal_volume
_citation_page_first
_citation_page_last
_citation_journal_id_ASTM
primary 'Zeitschrift fuer Kristallographie (1979-2010)' 1991 196 159 168 ZEKRDZ
_publ_author_name                  'Boeschen, S.;Keller, H.L.'
_cell_length_a                     8.962(5)
_cell_length_b                     9.089(5)
_cell_length_c                     14.022(9)
_cell_angle_alpha                  96.51(3)
_cell_angle_beta                   101.73(2)
_cell_angle_gamma                  115.13(2)
_cell_volume                       986.44
_cell_formula_units_Z              2
_symmetry_space_group_name_H-M     'P -1'
_symmetry_Int_Tables_number        2
_refine_ls_R_factor_all            .0496
loop_
_symmetry_equiv_pos_site_id
_symmetry_equiv_pos_as_xyz
  1	'-x, -y, -z'
  2	'x, y, z'
loop_
_atom_type_symbol
_atom_type_oxidation_number
Cl1-	-1
Mo2+	2
Na1+	1
loop_
_atom_site_label
_atom_site_type_symbol
_atom_site_symmetry_multiplicity
_atom_site_Wyckoff_symbol
_atom_site_fract_x
_atom_site_fract_y
_atom_site_fract_z
_atom_site_occupancy
_atom_site_attached_hydrogens
Na1 Na1+ 2 i 0.4991(12) 0.7583(12) 0.7275(7) 1. 0 
Mo1 Mo2+ 2 i 0.9457(2) 0.0097(2) 0.6203(1) 1. 0 
Mo2 Mo2+ 2 i 0.2060(2) 0.0074(2) 0.5638(1) 1. 0 
Mo3 Mo2+ 2 i 0.1041(2) 0.2309(2) 0.5250(1) 1. 0 
Mo4 Mo2+ 2 i 0.1364(2) 0.4563(2) 0.0991(1) 1. 0 
Mo5 Mo2+ 2 i 0.1899(2) 0.6210(2) 0.9580(1) 1. 0 
Mo6 Mo2+ 2 i 0.0448(2) 0.6921(2) 0.0876(1) 1. 0 
Cl1 Cl1- 2 i 0.1517(5) 0.7831(5) 0.4251(3) 1. 0 
Cl2 Cl1- 2 i 0.7519(5) 0.7629(5) 0.2978(3) 1. 0 
Cl3 Cl1- 2 i 0.3516(5) 0.2229(5) 0.4712(3) 1. 0 
Cl4 Cl1- 2 i 0.9548(5) 0.2052(5) 0.3456(3) 1. 0 
Cl5 Cl1- 2 i 0.3551(5) 0.7569(5) 0.1349(3) 1. 0 
Cl6 Cl1- 2 i 0.9885(6) 0.5225(6) 0.2163(3) 1. 0 
Cl7 Cl1- 2 i 0.2719(5) 0.3862(5) 0.9704(3) 1. 0 
Cl8 Cl1- 2 i 0.9048(5) 0.1537(5) 0.0515(3) 1. 0 
Cl9 Cl1- 2 i 0.4767(6) 0.0118(6) 0.6428(3) 1. 0 
Cl10 Cl1- 2 i 0.2426(6) 0.5364(6) 0.5633(4) 1. 0 
Cl11 Cl1- 2 i 0.3213(7) 0.4192(7) 0.2402(4) 1. 0 
Cl12 Cl1- 2 i 0.4475(7) 0.7897(7) 0.9070(4) 1. 0 
Cl13 Cl1- 2 i 0.1184(6) 0.9662(5) 0.2071(3) 1. 0 

loop_
_atom_site_aniso_label
_atom_site_aniso_type_symbol
_atom_site_aniso_U_11
_atom_site_aniso_U_22
_atom_site_aniso_U_33
_atom_site_aniso_U_12
_atom_site_aniso_U_13
_atom_site_aniso_U_23
Na1 Na1+ 0.0555(29) 0.0466(29) 0.0378(28) 0.0314(25) 0.0126(27) 0.0114(27)
Mo1 Mo2+ 0.0205(9) 0.0172(9) 0.0163(8) 0.0090(7) 0.0061(7) 0.0018(7)
Mo2 Mo2+ 0.0197(9) 0.0185(9) 0.0187(8) 0.0096(8) 0.0062(7) 0.0036(7)
Mo3 Mo2+ 0.0202(9) 0.0164(9) 0.0202(8) 0.0085(8) 0.0057(7) 0.0023(7)
Mo4 Mo2+ 0.026(1) 0.0216(10) 0.0191(8) 0.0124(8) 0.0032(8) 0.0028(7)
Mo5 Mo2+ 0.0246(9) 0.0214(9) 0.0182(8) 0.0101(8) 0.0058(7) 0.0002(7)
Mo6 Mo2+ 0.0262(10) 0.0200(9) 0.0183(8) 0.0124(8) 0.0061(7) 0.0018(7)
Cl1 Cl1- 0.0140(17) 0.0139(17) 0.0126(16) 0.0071(14) 0.0037(14) 0.0010(14)
Cl2 Cl1- 0.0101(16) 0.0102(16) 0.0115(16) 0.0046(14) 0.0035(14) 0.0000(14)
Cl3 Cl1- 0.0084(15) 0.0110(17) 0.0119(16) 0.0045(13) 0.0048(13) 0.0034(14)
Cl4 Cl1- 0.0119(16) 0.0090(16) 0.0085(15) 0.0063(14) 0.0034(13) 0.0044(13)
Cl5 Cl1- 0.0145(17) 0.0139(17) 0.0131(16) 0.0072(15) 0.0001(14) -.0015(14)
Cl6 Cl1- 0.0264(19) 0.0138(18) 0.0115(16) 0.0088(16) 0.0032(15) 0.0006(15)
Cl7 Cl1- 0.0093(16) 0.0124(17) 0.0151(17) 0.0058(14) 0.0022(14) -.0010(14)
Cl8 Cl1- 0.0110(17) 0.0091(16) 0.0093(15) 0.0068(14) 0.0022(14) 0.0013(13)
Cl9 Cl1- 0.0194(18) 0.0271(20) 0.0211(19) 0.0144(16) 0.0008(16) 0.0026(17)
Cl10 Cl1- 0.0263(20) 0.0104(18) 0.0350(21) 0.0062(16) 0.0023(18) 0.0011(17)
Cl11 Cl1- 0.0321(21) 0.0307(22) 0.0326(21) 0.0194(18) -.0027(19) 0.0106(19)
Cl12 Cl1- 0.0298(21) 0.0319(23) 0.0385(22) 0.0072(19) 0.0219(18) 0.0049(20)
Cl13 Cl1- 0.0229(18) 0.0130(17) 0.0111(16) 0.0090(15) 0.0071(15) -.0010(14)
#End of data_36503-ICSD


