data_154635-ICSD
#?2014 by Fachinformationszentrum Karlsruhe, and the U.S. Secretary of 
#Commerce on behalf of the United States.  All rights reserved.
_database_code_ICSD                154635
_audit_creation_date               2007/04/01
_chemical_name_systematic          'Disilver Diindium Silicon Selenide'
_chemical_formula_structural       'Ag2 In2 Si Se6'
_chemical_formula_sum              'Ag2 In2 Se6 Si1'
_publ_section_title
;
X-ray powder diffraction refinement of Ag2 In Si Se6 structure and 
phase diagram of the (Ag In Se2) - (Si Se2) system
;
loop_
_citation_id
_citation_journal_abbrev
_citation_year
_citation_journal_volume
_citation_page_first
_citation_page_last
_citation_journal_id_ASTM
primary 'Journal of Alloys and Compounds' 2006 414 73 77 JALCEU
_publ_author_name
;
Olekseyuk, I.D.;Sachanyuk, V.P.;Parasyuk, O.V.
;
_cell_length_a                     12.6683(4)
_cell_length_b                     7.4565(3)
_cell_length_c                     12.6133(4)
_cell_angle_alpha                  90.
_cell_angle_beta                   109.286(2)
_cell_angle_gamma                  90.
_cell_volume                       1124.6
_cell_formula_units_Z              4
_symmetry_space_group_name_H-M     'C 1 c 1'
_symmetry_Int_Tables_number        9
_refine_ls_R_factor_all            .0758
loop_
_symmetry_equiv_pos_site_id
_symmetry_equiv_pos_as_xyz
  1	'x, -y, z+.5'
  2	'x, y, z'
  3	'x+.5, -y+.5, z+.5'
  4	'x+.5, y+.5, z'
loop_
_atom_type_symbol
_atom_type_oxidation_number
Ag1+	1
In3+	3
Se2-	-2
Si4+	4
loop_
_atom_site_label
_atom_site_type_symbol
_atom_site_symmetry_multiplicity
_atom_site_Wyckoff_symbol
_atom_site_fract_x
_atom_site_fract_y
_atom_site_fract_z
_atom_site_occupancy
_atom_site_attached_hydrogens
_atom_site_B_iso_or_equiv
Ag1 Ag1+ 4 a 0.3978(8) 0.5899(7) 0.2528(7) 1. 0 3.33(14) 
Ag2 Ag1+ 4 a 0.6005(8) 0.2042(6) 0.4148(7) 1. 0 2.88(13) 
In1 In3+ 4 a 0.4179(7) 0.0945(6) 0.0615(7) 1. 0 1.34(11) 
In2 In3+ 4 a 0.2333(7) 0.0587(5) 0.2576(6) 1. 0 0.74(9) 
Si1 Si4+ 4 a 0.162(2) 0.763(2) 0.001(2) 1. 0 0.7(2) 
Se1 Se2- 4 a 0.35600 0.7532(8) 0.05100 1. 0 0.33(13) 
Se2 Se2- 4 a 0.4050(9) 0.2353(8) 0.2460(8) 1. 0 1.6(2) 
Se3 Se2- 4 a 0.0956(9) 0.0090(10) 0.0563(7) 1. 0 1.57(15) 
Se4 Se2- 4 a 0.0982(9) 0.2690(8) 0.3115(9) 1. 0 1.16(13) 
Se5 Se2- 4 a 0.2882(9) 0.2379(7) 0.8703(8) 1. 0 0.59(11) 
Se6 Se2- 4 a 0.6283(8) 0.0185(8) 0.0901(7) 1. 0 1.5(2) 

#End of data_154635-ICSD


