data_17030-ICSD
#?2014 by Fachinformationszentrum Karlsruhe, and the U.S. Secretary of 
#Commerce on behalf of the United States.  All rights reserved.
_database_code_ICSD                17030
_audit_creation_date               1980/01/01
_audit_update_record               2010/02/01
_chemical_name_systematic          'Zinc Molybdate - Alpha'
_chemical_formula_structural       'Zn (Mo O4)'
_chemical_formula_sum              'Mo1 O4 Zn1'
_publ_section_title
;
Crystal structure of the transition - metal molybdates and tungstates 
III. Diamagnetic alpha - Zn Mo O4
;
loop_
_citation_id
_citation_journal_abbrev
_citation_year
_citation_journal_volume
_citation_page_first
_citation_page_last
_citation_journal_id_ASTM
primary 'Journal of Chemical Physics' 1967 46 2052 2063 JCPSA6
2 'Revue de Chimie Minerale' 1983 20 88 95 RVCMA8
3 'Golden Book of Phase Transitions, Wroclaw' 2002 1 1 123 GBOPT5
_publ_author_name                  'Abrahams, S.C.'
_cell_length_a                     9.625(15)
_cell_length_b                     6.965(10)
_cell_length_c                     8.373(15)
_cell_angle_alpha                  103.28(15)
_cell_angle_beta                   96.30(15)
_cell_angle_gamma                  106.72(15)
_cell_volume                       513.81
_cell_formula_units_Z              6
_symmetry_space_group_name_H-M     'P -1'
_symmetry_Int_Tables_number        2
_refine_ls_R_factor_all            .0726
loop_
_symmetry_equiv_pos_site_id
_symmetry_equiv_pos_as_xyz
  1	'-x, -y, -z'
  2	'x, y, z'
loop_
_atom_type_symbol
_atom_type_oxidation_number
Mo6+	6
O2-	-2
Zn2+	2
loop_
_atom_site_label
_atom_site_type_symbol
_atom_site_symmetry_multiplicity
_atom_site_Wyckoff_symbol
_atom_site_fract_x
_atom_site_fract_y
_atom_site_fract_z
_atom_site_occupancy
_atom_site_attached_hydrogens
_atom_site_B_iso_or_equiv
Mo1 Mo6+ 2 i 0.3409(1) 0.1999(1) 0.1036(1) 1. 0 0 
Mo2 Mo6+ 2 i 0.1251(1) 0.5208(1) 0.7957(1) 1. 0 0 
Mo3 Mo6+ 2 i 0.2559(1) 0.0048(1) 0.4885(1) 1. 0 0 
Zn1 Zn2+ 2 i 0.4094(1) 0.7508(2) 0.1946(2) 1. 0 0 
Zn2 Zn2+ 2 i 0.9886(1) 0.0353(2) 0.1943(2) 1. 0 0 
Zn3 Zn2+ 2 i 0.2138(1) 0.4677(2) 0.3870(2) 1. 0 0 
O1 O2- 2 i 0.1447(9) 0.9504(12) 0.6300(15) 1. 0 0 
O2 O2- 2 i 0.2635(7) 0.7637(9) 0.3670(13) 1. 0 0 
O3 O2- 2 i 0.1830(7) 0.1494(9) 0.3605(13) 1. 0 0 
O4 O2- 2 i 0.1509(7) 0.058(10) 0.0210(14) 1. 0 0 
O5 O2- 2 i 0.2172(9) 0.5212(13) 0.6272(14) 1. 0 0 
O6 O2- 2 i 0.6416(8) 0.5493(9) 0.7668(13) 1. 0 0 
O7 O2- 2 i 0.2513(8) 0.6484(12) 0.9838(15) 1. 0 0 
O8 O2- 2 i 0.5712(8) 0.8414(12) 0.4060(14) 1. 0 0 
O9 O2- 2 i 0.0393(9) 0.2664(11) 0.8009(18) 1. 0 1.5 
O10 O2- 2 i 0.0143(8) 0.3559(9) 0.2315(13) 1. 0 0 
O11 O2- 2 i 0.5738(9) 0.7532(12) 0.0624(16) 1. 0 0 
O12 O2- 2 i 0.4268(8) 0.0596(10) 0.2100(15) 1. 0 0 

#End of data_17030-ICSD


