data_85455-ICSD
#?2014 by Fachinformationszentrum Karlsruhe, and the U.S. Secretary of 
#Commerce on behalf of the United States.  All rights reserved.
_database_code_ICSD                85455
_audit_creation_date               1999/06/02
_audit_update_record               2012/02/01
_chemical_name_systematic          'Cesium Zinc Phosphate(V) - Iii'
_chemical_formula_structural       'Cs Zn (P O4)'
_chemical_formula_sum              'Cs1 O4 P1 Zn1'
_publ_section_title
;
Crystal structures of the three forms of Cs Zn P O4
;
loop_
_citation_id
_citation_journal_abbrev
_citation_year
_citation_journal_volume
_citation_page_first
_citation_page_last
_citation_journal_id_ASTM
primary Ferroelectrics 1986 69 283 292 FEROA8
2 'Golden Book of Phase Transitions, Wroclaw' 2002 1 1 123 GBOPT5
_publ_author_name
;
Blum, D.;Durif, A.;Averbuch-Pouchot, M.T.
;
_cell_length_a                     18.33(9)
_cell_length_b                     5.45(4)
_cell_length_c                     9.25(6)
_cell_angle_alpha                  90.
_cell_angle_beta                   90.14(8)
_cell_angle_gamma                  90.
_cell_volume                       924.06
_cell_formula_units_Z              8
_symmetry_space_group_name_H-M     'P 1 21/a 1'
_symmetry_Int_Tables_number        14
_refine_ls_R_factor_all            .043
loop_
_symmetry_equiv_pos_site_id
_symmetry_equiv_pos_as_xyz
  1	'x+.5, -y+.5, z'
  2	'-x, -y, -z'
  3	'-x+.5, y+.5, -z'
  4	'x, y, z'
loop_
_atom_type_symbol
_atom_type_oxidation_number
Cs1+	1
O2-	-2
P5+	5
Zn2+	2
loop_
_atom_site_label
_atom_site_type_symbol
_atom_site_symmetry_multiplicity
_atom_site_Wyckoff_symbol
_atom_site_fract_x
_atom_site_fract_y
_atom_site_fract_z
_atom_site_occupancy
_atom_site_attached_hydrogens
Cs1 Cs1+ 4 e 0.00299(4) 0.2427(1) 0.20475(9) 1. 0 
Cs2 Cs1+ 4 e 0.25025(4) 0.7218(1) 0.69046(8) 1. 0 
Zn1 Zn2+ 4 e 0.08738(6) 0.2536(2) 0.5831(1) 1. 0 
Zn2 Zn2+ 4 e 0.16610(6) 0.7215(2) 0.0887(1) 1. 0 
P1 P5+ 4 e 0.0965(1) 0.7527(4) 0.4181(3) 1. 0 
P2 P5+ 4 e 0.3453(1) 0.7232(4) 0.0925(3) 1. 0 
O1 O2- 4 e -.0172(4) 0.251(5) 0.5638(11) 1. 0 
O2 O2- 4 e 0.8864(5) 0.188(2) 0.7395(10) 1. 0 
O3 O2- 4 e 0.8700(4) 0.050(1) 0.4855(10) 1. 0 
O4 O2- 4 e 0.3701(4) 0.005(1) 0.5399(10) 1. 0 
O5 O2- 4 e 0.2681(4) 0.742(2) 0.1463(11) 1. 0 
O6 O2- 4 e 0.6037(4) 0.186(1) 0.7880(9) 1. 0 
O7 O2- 4 e 0.3566(5) 0.844(1) 0.9575(10) 1. 0 
O8 O2- 4 e 0.3647(5) 0.457(1) 0.0568(10) 1. 0 

#End of data_85455-ICSD


