data_68347-ICSD
#?2014 by Fachinformationszentrum Karlsruhe, and the U.S. Secretary of 
#Commerce on behalf of the United States.  All rights reserved.
_database_code_ICSD                68347
_audit_creation_date               1991/07/10
_audit_update_record               2011/08/01
_chemical_name_systematic          'Silver Diiron Trisulfide'
_chemical_formula_structural       'Ag Fe2 S3'
_chemical_formula_sum              'Ag1 Fe2 S3'
_chemical_name_mineral             Sternbergite
_publ_section_title
;
Crystal structure of sternbergite, Ag Fe2 S3
;
loop_
_citation_id
_citation_journal_abbrev
_citation_year
_citation_journal_volume
_citation_page_first
_citation_page_last
_citation_journal_id_ASTM
primary 'Neues Jahrbuch fuer Mineralogie. Monatshefte (Band=Jahr) (1950-)'
 1987 1987 458 464 NJMMAW
_publ_author_name                  'Pertlik, F.'
_cell_length_a                     6.615(2)
_cell_length_b                     11.639(4)
_cell_length_c                     12.693(4)
_cell_angle_alpha                  90.
_cell_angle_beta                   90.
_cell_angle_gamma                  90.
_cell_volume                       977.26
_cell_formula_units_Z              8
_symmetry_space_group_name_H-M     'C c m b'
_symmetry_Int_Tables_number        64
_refine_ls_R_factor_all            .078
loop_
_symmetry_equiv_pos_site_id
_symmetry_equiv_pos_as_xyz
  1	'-x+.5, -y, z+.5'
  2	'x+.5, -y, -z+.5'
  3	'x, -y, z'
  4	'-x, -y, -z'
  5	'x+.5, y, -z+.5'
  6	'-x+.5, y, z+.5'
  7	'-x, y, -z'
  8	'x, y, z'
  9	'-x, -y+.5, z+.5'
 10	'x, -y+.5, -z+.5'
 11	'x+.5, -y+.5, z'
 12	'-x+.5, -y+.5, -z'
 13	'x, y+.5, -z+.5'
 14	'-x, y+.5, z+.5'
 15	'-x+.5, y+.5, -z'
 16	'x+.5, y+.5, z'
loop_
_atom_type_symbol
_atom_type_oxidation_number
Ag1+	1
Fe2.5+	2.5
S2-	-2
loop_
_atom_site_label
_atom_site_type_symbol
_atom_site_symmetry_multiplicity
_atom_site_Wyckoff_symbol
_atom_site_fract_x
_atom_site_fract_y
_atom_site_fract_z
_atom_site_occupancy
_atom_site_attached_hydrogens
Ag1 Ag1+ 8 f 0.8531(4) 0 0.6996(2) 1. 0 
Fe1 Fe2.5+ 16 g 0.8335(5) 0.3351(2) 0.5635(2) 1. 0 
S1 S2- 8 f 0.6952(14) 0 0.8800(8) 1. 0 
S2 S2- 16 g 0.6658(8) 0.1786(5) 0.6179(4) 1. 0 

loop_
_atom_site_aniso_label
_atom_site_aniso_type_symbol
_atom_site_aniso_U_11
_atom_site_aniso_U_22
_atom_site_aniso_U_33
_atom_site_aniso_U_12
_atom_site_aniso_U_13
_atom_site_aniso_U_23
Ag1 Ag1+ 0.0283(15) 0.0248(15) 0.0596(18) 0 0.0083(16) 0
Fe1 Fe2.5+ 0.0186(15) 0.0087(15) 0.0261(15) 0.0010(14) 0.0017(14) 
0.0004(16)
S1 S2- 0.0323(56) 0.0099(44) 0.0440(55) 0 -.0089(42) 0
S2 S2- 0.0224(26) 0.0142(30) 0.034(3) -.0041(39) -.0008(29) 0.0041(25)
#End of data_68347-ICSD


