data_200030-ICSD
#?2014 by Fachinformationszentrum Karlsruhe, and the U.S. Secretary of 
#Commerce on behalf of the United States.  All rights reserved.
_database_code_ICSD                200030
_audit_creation_date               1980/01/01
_chemical_name_systematic
;
Dicesium Potassium Hexacyanoferrate(III)
;
_chemical_formula_structural       'Cs2 K (Fe (C N)6)'
_chemical_formula_sum              'C6 Cs2 Fe1 K1 N6'
_publ_section_title
;
Study by X-Ray crystallography and Moessbauer spectroscopy of the 
hexacyanoferrate(III) compounds Cs2 M (Fe (C N)6) (M= Li, Na, or K)
;
loop_
_citation_id
_citation_journal_abbrev
_citation_year
_citation_journal_volume
_citation_page_first
_citation_page_last
_citation_journal_id_ASTM
primary
;
Journal of the Chemical Society. Dalton Transactions, Inorganic 
Chemistry (1972-)
;
 1977 1977 309 316 JCDTBI
_publ_author_name                  'Fletcher, S.R.;Gibb, T.C.'
_cell_length_a                     11.140(1)
_cell_length_b                     8.131(1)
_cell_length_c                     7.660(1)
_cell_angle_alpha                  90.
_cell_angle_beta                   90.165(7)
_cell_angle_gamma                  90.
_cell_volume                       693.83
_cell_formula_units_Z              2
_symmetry_space_group_name_H-M     'P 1 21/n 1'
_symmetry_Int_Tables_number        14
_refine_ls_R_factor_all            .075
loop_
_symmetry_equiv_pos_site_id
_symmetry_equiv_pos_as_xyz
  1	'-x+.5, y+.5, -z+.5'
  2	'-x, -y, -z'
  3	'x+.5, -y+.5, z+.5'
  4	'x, y, z'
loop_
_atom_type_symbol
_atom_type_oxidation_number
C2+	2
Cs1+	1
Fe3+	3
K1+	1
N3-	-3
loop_
_atom_site_label
_atom_site_type_symbol
_atom_site_symmetry_multiplicity
_atom_site_Wyckoff_symbol
_atom_site_fract_x
_atom_site_fract_y
_atom_site_fract_z
_atom_site_occupancy
_atom_site_attached_hydrogens
Cs1 Cs1+ 4 e 0.25055(7) 0.43251(10) -.02065(11) 1. 0 
K1 K1+ 2 d 0 0.5 0.5 1. 0 
Fe1 Fe3+ 2 a 0 0 0 1. 0 
C1 C2+ 4 e 0.0296(10) 0.1280(15) -.2076(14) 1. 0 
C2 C2+ 4 e 0.0387(11) -.1991(14) -.1234(13) 1. 0 
C3 C2+ 4 e 0.1654(10) 0.0193(15) 0.0683(15) 1. 0 
N1 N3- 4 e 0.0497(12) 0.2031(14) -.3326(14) 1. 0 
N2 N3- 4 e 0.0608(12) -.3198(15) -.1972(15) 1. 0 
N3 N3- 4 e 0.2629(10) 0.0357(15) 0.1131(17) 1. 0 

#End of data_200030-ICSD


