data_73970-ICSD
#?2014 by Fachinformationszentrum Karlsruhe, and the U.S. Secretary of 
#Commerce on behalf of the United States.  All rights reserved.
_database_code_ICSD                73970
_audit_creation_date               1995/01/10
_chemical_name_systematic
;
Potassium Lanthanum Germanium Sulfide
;
_chemical_formula_structural       'K La Ge S4'
_chemical_formula_sum              'Ge1 K1 La1 S4'
_publ_section_title
;
Synthesis and structures of the quaternary chalcogenides of the type 
KLnMQ4 (Ln=La, Nd, Gd, Y; M=Si, Ge; Q=S, Se)
;
loop_
_citation_id
_citation_journal_abbrev
_citation_year
_citation_journal_volume
_citation_page_first
_citation_page_last
_citation_journal_id_ASTM
primary 'Journal of Solid State Chemistry' 1993 107 347 355 JSSCBI
_publ_author_name                  'Wu, P.;Ibers, J.A.'
_cell_length_a                     6.653(1)
_cell_length_b                     6.679(2)
_cell_length_c                     8.643(2)
_cell_angle_alpha                  90.
_cell_angle_beta                   107.57(1)
_cell_angle_gamma                  90.
_cell_volume                       366.14
_cell_formula_units_Z              2
_symmetry_space_group_name_H-M     'P 1 21 1'
_symmetry_Int_Tables_number        4
_refine_ls_R_factor_all            .022
loop_
_symmetry_equiv_pos_site_id
_symmetry_equiv_pos_as_xyz
  1	'-x, y+.5, -z'
  2	'x, y, z'
loop_
_atom_type_symbol
_atom_type_oxidation_number
Ge4+	4
K1+	1
La3+	3
S2-	-2
loop_
_atom_site_label
_atom_site_type_symbol
_atom_site_symmetry_multiplicity
_atom_site_Wyckoff_symbol
_atom_site_fract_x
_atom_site_fract_y
_atom_site_fract_z
_atom_site_occupancy
_atom_site_attached_hydrogens
_atom_site_U_iso_or_equiv
La1 La3+ 2 a 0.23221(2) 0.99997(2) 0.55430(2) 1. 0 0.00626(7) 
Ge1 Ge4+ 2 a 0.21624(5) 0.52591(6) 0.31258(4) 1. 0 0.00591(12) 
K1 K1+ 2 a 0.27155(13) 0.0149(2) 0.06556(8) 1. 0 0.0133(3) 
S1 S2- 2 a 0.0147(2) 0.25795(14) 0.27989(12) 1. 0 0.0078(3) 
S2 S2- 2 a 0.0188(2) 0.26895(14) 0.73214(12) 1. 0 0.0074(3) 
S3 S2- 2 a 0.41368(13) 0.5286(2) 0.15277(10) 1. 0 0.0092(3) 
S4 S2- 2 a 0.59168(13) 0.06456(15) 0.43019(10) 1. 0 0.0088(3) 

#End of data_73970-ICSD


