data_73590-ICSD
#?2014 by Fachinformationszentrum Karlsruhe, and the U.S. Secretary of 
#Commerce on behalf of the United States.  All rights reserved.
_database_code_ICSD                73590
_audit_creation_date               1994/06/30
_audit_update_record               2003/04/01
_chemical_name_systematic          'Potassium Manganese(III) Fluoride'
_chemical_formula_structural       'K Mn F4'
_chemical_formula_sum              'F4 K1 Mn1'
_publ_section_title
;
Crystal and magnetic structures of Rb Mn F4 and K Mn F4 investigated 
by neutron powder diffraction: the relationship between structure and 
magnetic properties in the Mn3+ layered perovskites A Mn F4 (A= Na, 
K, Rb, Cs)
;
loop_
_citation_id
_citation_journal_abbrev
_citation_year
_citation_journal_volume
_citation_page_first
_citation_page_last
_citation_journal_id_ASTM
primary 'Journal of Physics: Condensed Matter' 1993 5 4909 4928 JCOMEL
_publ_author_name
;
Moron, M.C.;Palacio, F.;Rodriguez Carvajal, J.
;
_cell_length_a                     7.6830(1)
_cell_length_b                     7.6290(1)
_cell_length_c                     5.7444(1)
_cell_angle_alpha                  90.
_cell_angle_beta                   90.402(2)
_cell_angle_gamma                  90.
_cell_volume                       336.69
_cell_formula_units_Z              4
_symmetry_space_group_name_H-M     'P 1 21/a 1'
_symmetry_Int_Tables_number        14
_refine_ls_R_factor_all            .045
loop_
_symmetry_equiv_pos_site_id
_symmetry_equiv_pos_as_xyz
  1	'x+.5, -y+.5, z'
  2	'-x, -y, -z'
  3	'-x+.5, y+.5, -z'
  4	'x, y, z'
loop_
_atom_type_symbol
_atom_type_oxidation_number
F1-	-1
K1+	1
Mn3+	3
loop_
_atom_site_label
_atom_site_type_symbol
_atom_site_symmetry_multiplicity
_atom_site_Wyckoff_symbol
_atom_site_fract_x
_atom_site_fract_y
_atom_site_fract_z
_atom_site_occupancy
_atom_site_attached_hydrogens
_atom_site_B_iso_or_equiv
Mn1 Mn3+ 2 a 0 0 0 1. 0 0.30(5) 
Mn2 Mn3+ 2 c 0 0.5 0 1. 0 0.65(6) 
F1 F1- 4 e 0.0018(3) 0.2353(3) 0.1201(3) 1. 0 0.85(2) 
F2 F1- 4 e 0.2625(2) 0.0209(2) -.0969(3) 1. 0 0.75(3) 
F3 F1- 4 e 0.0562(2) -.0758(2) 0.2892(3) 1. 0 0.67(3) 
F4 F1- 4 e -.0647(2) 0.5653(2) 0.2888(3) 1. 0 0.58(3) 
K1 K1+ 4 e 0.7465(4) 0.3050(2) 0.4870(3) 1. 0 0.49(3) 

#End of data_73590-ICSD


