data_14158-ICSD
#?2014 by Fachinformationszentrum Karlsruhe, and the U.S. Secretary of 
#Commerce on behalf of the United States.  All rights reserved.
_database_code_ICSD                14158
_audit_creation_date               1980/12/31
_audit_update_record               1999/06/02
_chemical_name_systematic          'Potassium Platinum Oxide (3/2/4)'
_chemical_formula_structural       'K3 Pt2 O4'
_chemical_formula_sum              'K3 O4 Pt2'
_publ_section_title
;
Oxide eines neuen Formeltyps: Zur Kenntnis von K3 Ni2 O4 und K3 Pt2 
O4
;
loop_
_citation_id
_citation_journal_abbrev
_citation_year
_citation_journal_volume
_citation_page_first
_citation_page_last
_citation_journal_id_ASTM
primary 'Zeitschrift fuer Anorganische und Allgemeine Chemie (1950) (DE)'
 1980 462 92 105 ZAACAB
_publ_author_name                  'Zentgraf, H.;Claes, K.;Hoppe, R.'
_cell_length_a                     6.15
_cell_length_b                     9.26
_cell_length_c                     11.51
_cell_angle_alpha                  90.
_cell_angle_beta                   90.
_cell_angle_gamma                  90.
_cell_volume                       655.48
_cell_formula_units_Z              4
_symmetry_space_group_name_H-M     'C m c m'
_symmetry_Int_Tables_number        63
_refine_ls_R_factor_all            .12
loop_
_symmetry_equiv_pos_site_id
_symmetry_equiv_pos_as_xyz
  1	'-x, y, -z+.5'
  2	'-x, -y, z+.5'
  3	'-x, y, z'
  4	'-x, -y, -z'
  5	'x, -y, z+.5'
  6	'x, y, -z+.5'
  7	'x, -y, -z'
  8	'x, y, z'
  9	'-x+.5, y+.5, -z+.5'
 10	'-x+.5, -y+.5, z+.5'
 11	'-x+.5, y+.5, z'
 12	'-x+.5, -y+.5, -z'
 13	'x+.5, -y+.5, z+.5'
 14	'x+.5, y+.5, -z+.5'
 15	'x+.5, -y+.5, -z'
 16	'x+.5, y+.5, z'
loop_
_atom_type_symbol
_atom_type_oxidation_number
K1+	1
O2-	-2
Pt2.5+	2.5
loop_
_atom_site_label
_atom_site_type_symbol
_atom_site_symmetry_multiplicity
_atom_site_Wyckoff_symbol
_atom_site_fract_x
_atom_site_fract_y
_atom_site_fract_z
_atom_site_occupancy
_atom_site_attached_hydrogens
K1 K1+ 8 f 0 0.3543(19) 0.0671(12) 1. 0 
K2 K1+ 4 c 0 0.7089(21) 0.25 1. 0 
Pt1 Pt2.5+ 4 a 0 0 0 1. 0 
Pt2 Pt2.5+ 4 c 0 0.0792(4) 0.25 1. 0 
O1 O2- 16 h 0.2888(41) 0.4187(30) 0.8812(29) 1. 0 

loop_
_atom_site_aniso_label
_atom_site_aniso_type_symbol
_atom_site_aniso_U_11
_atom_site_aniso_U_22
_atom_site_aniso_U_33
_atom_site_aniso_U_12
_atom_site_aniso_U_13
_atom_site_aniso_U_23
K1 K1+ 0.0208(54) 0.0486(83) 0.0258(58) 0 0 -.0039(64)
K2 K1+ 0.0098(60) 0.0317(83) 0.0199(71) 0 0 0
Pt1 Pt2.5+ 0.0068(10) 0.0283(15) 0.0147(11) 0 0 -.0016(10)
Pt2 Pt2.5+ 0.0081(11) 0.0250(14) 0.0156(11) 0 0 0
O1 O2- 0.039(13) 0.053(15) 0.034(11) -0.014(12) -0.009(10) 0.014(12)
#End of data_14158-ICSD


