data_415450-ICSD
#?2014 by Fachinformationszentrum Karlsruhe, and the U.S. Secretary of 
#Commerce on behalf of the United States.  All rights reserved.
_database_code_ICSD                415450
_audit_creation_date               2006/10/01
_audit_update_record               2013/02/01
_chemical_name_systematic          'Pentacalcium Pentaniobate'
_chemical_formula_structural       'Ca5 Nb5 O17'
_chemical_formula_sum              'Ca5 Nb5 O17'
_publ_section_title                'Crystal Structure of Ca5 Nb5 O17'
loop_
_citation_id
_citation_journal_abbrev
_citation_year
_citation_journal_volume
_citation_page_first
_citation_page_last
_citation_journal_id_ASTM
primary 'Journal of Solid State Chemistry' 2005 178 2934 2941 JSSCBI
_publ_author_name
;
Guevarra, J.;van Smaalen, S.;Rotiroti, N.;Paulmann, C.;Lichtenberg, 
F.
;
_cell_length_a                     7.7494(3)
_cell_length_b                     5.4928(1)
_cell_length_c                     32.2411(16)
_cell_angle_alpha                  90
_cell_angle_beta                   96.809(4)
_cell_angle_gamma                  90
_cell_volume                       1362.69
_cell_formula_units_Z              4
_symmetry_space_group_name_H-M     'P 1 21/c 1'
_symmetry_Int_Tables_number        14
_refine_ls_R_factor_all            .0296
loop_
_symmetry_equiv_pos_site_id
_symmetry_equiv_pos_as_xyz
  1	'x, -y+.5, z+.5'
  2	'-x, -y, -z'
  3	'-x, y+.5, -z+.5'
  4	'x, y, z'
loop_
_atom_type_symbol
_atom_type_oxidation_number
Ca2+	2
Nb4.8+	4.8
O2-	-2
loop_
_atom_site_label
_atom_site_type_symbol
_atom_site_symmetry_multiplicity
_atom_site_Wyckoff_symbol
_atom_site_fract_x
_atom_site_fract_y
_atom_site_fract_z
_atom_site_occupancy
_atom_site_attached_hydrogens
_atom_site_U_iso_or_equiv
Ca1 Ca2+ 4 e 0.25443(5) 0.50567(7) 0.006432(15) 1 0 0.00632(10) 
Ca2 Ca2+ 4 e 0.29938(5) 0.99595(6) 0.095475(13) 1 0 0.00458(9) 
Ca3 Ca2+ 4 e 0.79172(5) 0.00012(7) 0.083107(15) 1 0 0.00880(10) 
Ca4 Ca2+ 4 e 0.36144(5) 0.52002(7) 0.208204(15) 1 0 0.01040(11) 
Ca5 Ca2+ 4 e 0.13778(5) 0.08703(7) 0.278335(12) 1 0 0.00536(9) 
Nb1 Nb4.8+ 2 b 0.5 0 0 1 0 0.00183(6) 
Nb2 Nb4.8+ 2 a 0 0 0 1 0 0.00180(6) 
Nb3 Nb4.8+ 4 e 0.54318(2) 0.50348(3) 0.091913(5) 1 0 0.00215(5) 
Nb4 Nb4.8+ 4 e 0.04898(2) 0.50462(3) 0.091141(5) 1 0 0.00199(5) 
Nb5 Nb4.8+ 4 e 0.08600(2) 0.02597(3) 0.177090(5) 1 0 0.00271(5) 
Nb6 Nb4.8+ 4 e 0.59517(2) 0.03032(3) 0.178158(5) 1 0 0.00276(5) 
O1 O2- 4 e 0.55591(18) 0.2935(2) 0.03440(4) 1 0 0.0057(3) 
O2 O2- 4 e 0.97844(18) 0.2942(2) 0.03444(4) 1 0 0.0062(3) 
O3 O2- 4 e 0.48680(18) 0.7895(2) 0.05146(4) 1 0 0.0056(3) 
O4 O2- 4 e 0.06502(18) 0.7900(2) 0.05123(4) 1 0 0.0059(3) 
O5 O2- 4 e 0.07723(18) 0.2953(2) 0.21037(4) 1 0 0.0065(3) 
O6 O2- 4 e 0.63658(18) 0.3189(2) 0.20329(5) 1 0 0.0078(4) 
O7 O2- 4 e 0.13529(17) 0.8047(2) 0.21988(4) 1 0 0.0053(3) 
O8 O2- 4 e 0.59307(18) 0.8238(2) 0.22425(4) 1 0 0.0060(3) 
O9 O2- 4 e 0.03506(17) 0.1869(2) 0.11833(4) 1 0 0.0054(3) 
O10 O2- 4 e 0.58278(17) 0.1836(2) 0.11759(4) 1 0 0.0046(3) 
O11 O2- 4 e 0.33589(18) 0.0900(3) 0.16934(4) 1 0 0.0064(3) 
O12 O2- 4 e 0.16494(18) 0.4281(2) 0.33092(5) 1 0 0.0064(3) 
O13 O2- 4 e 0.12477(18) 0.7051(2) 0.13549(4) 1 0 0.0068(3) 
O14 O2- 4 e 0.51158(18) 0.7019(2) 0.13662(4) 1 0 0.0068(3) 
O15 O2- 4 e 0.79413(18) 0.5632(3) 0.08890(5) 1 0 0.0085(4) 
O16 O2- 4 e 0.28976(17) 0.4141(2) 0.07921(4) 1 0 0.0043(3) 
O17 O2- 4 e 0.75179(17) 0.9207(3) 0.00395(4) 1 0 0.0064(4) 

loop_
_atom_site_aniso_label
_atom_site_aniso_type_symbol
_atom_site_aniso_U_11
_atom_site_aniso_U_22
_atom_site_aniso_U_33
_atom_site_aniso_U_12
_atom_site_aniso_U_13
_atom_site_aniso_U_23
Ca1 Ca2+ 0.00547(18) 0.00594(17) 0.00751(17) -0.00009(12) 0.00057(13) 
0.00138(12)
Ca2 Ca2+ 0.00310(16) 0.00424(15) 0.00642(17) -0.00023(11) 0.00057(13) 
-0.00061(11)
Ca3 Ca2+ 0.00558(17) 0.00865(17) 0.01225(19) -0.00056(13) 0.00134(14) 
-0.00304(13)
Ca4 Ca2+ 0.00595(16) 0.00758(16) 0.0179(2) 0.00064(12) 0.00251(15) 
0.00172(14)
Ca5 Ca2+ 0.00449(15) 0.00452(14) 0.00694(16) 0.00004(12) 0.00019(12) 
-0.00064(12)
Nb1 Nb4.8+ 0.00107(11) 0.00161(10) 0.00299(11) 0.00007(7) 0.00014(9) 
0.00002(7)
Nb2 Nb4.8+ 0.00103(11) 0.00165(10) 0.00286(11) -0.00007(7) 0.00002(9) 
0.00004(7)
Nb3 Nb4.8+ 0.00132(9) 0.00168(8) 0.00340(9) 0.00007(5) 0.00011(7) 
0.00026(5)
Nb4 Nb4.8+ 0.00124(9) 0.00159(8) 0.00308(9) 0.00007(5) 0.00006(7) 
0.00022(5)
Nb5 Nb4.8+ 0.00183(8) 0.00295(8) 0.00336(8) 0.00032(5) 0.00038(6) 
0.00006(5)
Nb6 Nb4.8+ 0.00152(8) 0.00295(8) 0.00371(8) -0.00011(5) -0.00016(6) 
0.00006(5)
O1 O2- 0.0066(6) 0.0047(5) 0.0062(6) -0.0024(4) 0.0021(5) -0.0019(5)
O2 O2- 0.0065(6) 0.0056(6) 0.0060(6) 0.0016(4) -0.0015(5) -0.0022(5)
O3 O2- 0.0060(6) 0.0054(5) 0.0057(6) 0.0005(4) 0.0014(5) 0.0011(5)
O4 O2- 0.0066(6) 0.0043(5) 0.0066(6) 0.0000(4) -0.0003(5) 0.0019(5)
O5 O2- 0.0072(6) 0.0047(6) 0.0079(6) 0.0007(4) 0.0016(5) -0.0014(5)
O6 O2- 0.0050(6) 0.0051(6) 0.0129(7) -0.0007(4) -0.0001(5) -0.0030(5)
O7 O2- 0.0061(6) 0.0038(5) 0.0059(6) -0.0001(4) 0.0001(5) 0.0013(4)
O8 O2- 0.0073(6) 0.0043(6) 0.0066(6) 0.0009(4) 0.0015(5) 0.0020(5)
O9 O2- 0.0057(6) 0.0055(6) 0.0047(6) -0.0014(4) -0.0003(5) 0.0012(4)
O10 O2- 0.0040(6) 0.0050(5) 0.0048(6) 0.0006(4) 0.0006(4) 0.0010(4)
O11 O2- 0.0024(5) 0.0091(6) 0.0078(6) -0.0007(5) 0.0009(5) -0.0012(5)
O12 O2- 0.0022(5) 0.0067(6) 0.0106(6) -0.0004(4) 0.0013(5) 0.0000(5)
O13 O2- 0.0069(6) 0.0069(6) 0.0068(6) -0.0015(5) 0.0014(5) -0.0026(5)
O14 O2- 0.0064(6) 0.0063(6) 0.0073(6) 0.0002(4) 0.0000(5) -0.0019(5)
O15 O2- 0.0028(6) 0.0088(6) 0.0141(7) 0.0002(4) 0.0018(5) -0.0009(5)
O16 O2- 0.0019(5) 0.0043(5) 0.0068(6) 0.0000(4) 0.0005(4) -0.0003(5)
O17 O2- 0.0018(6) 0.0071(6) 0.0104(6) 0.0003(4) 0.0013(5) -0.0003(5)
#End of data_415450-ICSD


