data_61331-ICSD
#?2014 by Fachinformationszentrum Karlsruhe, and the U.S. Secretary of 
#Commerce on behalf of the United States.  All rights reserved.
_database_code_ICSD                61331
_audit_creation_date               1987/03/16
_audit_update_record               2008/02/01
_chemical_name_systematic
;
Trialuminium Disilicate Trihydroxide
;
_chemical_formula_structural       'Al3 (Si2 O7) (O H)3'
_chemical_formula_sum              'H3 Al3 O10 Si2'
_chemical_name_mineral             Piezotite
_publ_section_title
;
The crystal structure of piezotite Al3 Si2 O7 (O H)3
;
loop_
_citation_id
_citation_journal_abbrev
_citation_year
_citation_journal_volume
_citation_journal_issue
_citation_page_first
_citation_page_last
_citation_journal_id_ASTM
primary 'Dissertation Abstracts B: the Sciences and Engineering'
 1967 28- 1874 1874 DABSAQ
2 'Acta Crystallographica (1,1948-23,1967)' 1963 16 2-10 A13 A14 ACCRA9
_publ_author_name                  'Berman, R.'
_cell_length_a                     7.287(8)
_cell_length_b                     7.720(5)
_cell_length_c                     9.729(15)
_cell_angle_alpha                  70.33(1)
_cell_angle_beta                   141.5(1)
_cell_angle_gamma                  115.75(2)
_cell_volume                       306.87
_cell_formula_units_Z              2
_symmetry_space_group_name_H-M     'P -1'
_symmetry_Int_Tables_number        2
_refine_ls_R_factor_all            .091
loop_
_symmetry_equiv_pos_site_id
_symmetry_equiv_pos_as_xyz
  1	'-x, -y, -z'
  2	'x, y, z'
loop_
_atom_type_symbol
_atom_type_oxidation_number
Al3+	3
H1+	1
O2-	-2
Si4+	4
loop_
_atom_site_label
_atom_site_type_symbol
_atom_site_symmetry_multiplicity
_atom_site_Wyckoff_symbol
_atom_site_fract_x
_atom_site_fract_y
_atom_site_fract_z
_atom_site_occupancy
_atom_site_attached_hydrogens
Al1 Al3+ 2 i 0.03004 0.00767 0.28217 1. 0 
Al2 Al3+ 2 i 0.00316 0.60572 0.35254 1. 0 
Al3 Al3+ 2 i 0.99582 0.39565 0.14644 1. 0 
Si1 Si4+ 2 i 0.64081 0.71011 0.36555 1. 0 
Si2 Si4+ 2 i 0.36197 0.2936 0.1396 1. 0 
O1 O2- 2 i 0.80503 0.77053 0.29682 1. 0 
O2 O2- 2 i 0.20016 0.23212 0.21001 1. 0 
O3 O2- 2 i 0.2237 0.84747 0.36188 1. 0 
O4 O2- 2 i 0.77682 0.15269 0.13786 1. 0 
O5 O2- 2 i 0.68438 0.9002 0.43473 1. 0 
O6 O2- 2 i 0.31111 0.10015 0.06692 1. 0 
O7 O2- 2 i 0.21014 0.43978 0.42702 1. 0 
O8 O2- 2 i 0.78848 0.56297 0.07155 1. 0 
O9 O2- 2 i 0.73012 0.39644 0.34121 1. 0 
O10 O2- 2 i 0.27128 0.60358 0.15914 1. 0 
H1 H1+ 2 i 0.46292 0.01883 0.21651 1. 0 
H2 H1+ 2 i 0.5901 0.13158 0.10936 1. 0 
H3 H1+ 2 i 0.41211 0.86904 0.39167 1. 0 

#End of data_61331-ICSD


