data_96962-ICSD
#?2014 by Fachinformationszentrum Karlsruhe, and the U.S. Secretary of 
#Commerce on behalf of the United States.  All rights reserved.
_database_code_ICSD                96962
_audit_creation_date               2004/10/01
_chemical_name_systematic
;
Trilithium Divanadium(III) Tris(phosphate(V)) - Alpha
;
_chemical_formula_structural       'Li3 V2 (P O4)3'
_chemical_formula_sum              'Li3 O12 P3 V2'
_publ_section_title
;
Electrochemical property: structure relationships in monoclinic Li3-y 
V2 (P O4)3
;
loop_
_citation_id
_citation_journal_abbrev
_citation_year
_citation_journal_volume
_citation_page_first
_citation_page_last
_citation_journal_id_ASTM
primary 'Journal of the American Chemical Society' 2003 125 10402 10411 JACSAT
_publ_author_name
;
Yin, S.-C.;Grondey, H.;Strobel, P.;Anne, M.;Nazar, L.F.
;
_cell_length_a                     8.6056(9)
_cell_length_b                     8.5917(9)
_cell_length_c                     12.0370(12)
_cell_angle_alpha                  90
_cell_angle_beta                   90.609(9)
_cell_angle_gamma                  90
_cell_volume                       889.93
_cell_formula_units_Z              4
_symmetry_space_group_name_H-M     'P 1 21/n 1'
_symmetry_Int_Tables_number        14
_refine_ls_R_factor_all            .0442
loop_
_symmetry_equiv_pos_site_id
_symmetry_equiv_pos_as_xyz
  1	'-x+.5, y+.5, -z+.5'
  2	'-x, -y, -z'
  3	'x+.5, -y+.5, z+.5'
  4	'x, y, z'
loop_
_atom_type_symbol
_atom_type_oxidation_number
Li1+	1
O2-	-2
P5+	5
V3+	3
loop_
_atom_site_label
_atom_site_type_symbol
_atom_site_symmetry_multiplicity
_atom_site_Wyckoff_symbol
_atom_site_fract_x
_atom_site_fract_y
_atom_site_fract_z
_atom_site_occupancy
_atom_site_attached_hydrogens
_atom_site_U_iso_or_equiv
V1 V3+ 4 e 0.25103 0.45935 0.10936 1. 0 0.0060 
V2 V3+ 4 e 0.75307 0.47451 0.39038 1. 0 0.0060 
P1 P5+ 4 e 0.1069(19) 0.0996(18) 0.1586(15) 1. 0 0.0037(19) 
P2 P5+ 4 e 0.6078(18) 0.1149(19) 0.3552(15) 1. 0 0.0037(19) 
P3 P5+ 4 e 0.0395(17) 0.2509(23) 0.4885(14) 1. 0 0.0037(19) 
O1 O2- 4 e 0.9276(17) 0.1163(18) 0.1463(13) 1. 0 0.0083(8) 
O2 O2- 4 e 0.1482(18) 0.9769(17) 0.2404(14) 1. 0 0.0083(8) 
O3 O2- 4 e 0.1727(19) 0.0516(17) 0.0346(13) 1. 0 0.0083(8) 
O4 O2- 4 e 0.1618(16) 0.2609(19) 0.1845(14) 1. 0 0.0083(8) 
O5 O2- 4 e 0.4229(18) 0.0912(19) 0.3267(13) 1. 0 0.0083(8) 
O6 O2- 4 e 0.6959(18) 0.0045(18) 0.2841(14) 1. 0 0.0883(8) 
O7 O2- 4 e 0.6416(19) 0.0876(19) 0.4772(13) 1. 0 0.0083(8) 
O8 O2- 4 e 0.6437(17) 0.2933(19) 0.3143(14) 1. 0 0.0083(8) 
O9 O2- 4 e 0.9509(17) 0.1284(21) 0.5695(12) 1. 0 0.0083(8) 
O10 O2- 4 e 0.9307(19) 0.3194(18) 0.4028(13) 1. 0 0.0083(8) 
O11 O2- 4 e 0.1725(19) 0.1630(18) 0.4314(12) 1. 0 0.0083(8) 
O12 O2- 4 e 0.1059(18) 0.3662(20) 0.5761(12) 1. 0 0.0083(8) 
Li1 Li1+ 4 e 0.202(6) 0.781(6) 0.182(4) 1. 0 0.009(7) 
Li2 Li1+ 4 e 0.934(3) 0.312(5) 0.226(4) 1. 0 0.009(7) 
Li3 Li1+ 4 e 0.576(6) 0.429(6) 0.207(4) 1. 0 0.009(7) 

#End of data_96962-ICSD


