data_420878-ICSD
#?2014 by Fachinformationszentrum Karlsruhe, and the U.S. Secretary of 
#Commerce on behalf of the United States.  All rights reserved.
_database_code_ICSD                420878
_audit_creation_date               2010/08/01
_chemical_name_systematic
;
Disamarium(III) Magnesioiridate(IV)
;
_chemical_formula_structural       'Sm2 (Mg Ir O6)'
_chemical_formula_sum              'Ir1 Mg1 O6 Sm2'
_publ_section_title
;
Crystal growth, structure and magnetic properties of the double 
perovskites Ln2 Mg Ir O6 (Ln = Pr, Nd, Sm-Gd)
;
loop_
_citation_id
_citation_journal_abbrev
_citation_year
_citation_journal_volume
_citation_journal_issue
_citation_page_first
_citation_page_last
_citation_journal_id_ASTM
primary 'Journal of Solid State Chemistry' 2010 183 2 465 470 JSSCBI
_publ_author_name
;
Mugavero III, S.J.;Fox, A.H.;Smith, M.D.;zur Loye, H.C.
;
_cell_length_a                     5.41970(10)
_cell_length_b                     5.67150(10)
_cell_length_c                     7.7498(2)
_cell_angle_alpha                  90.00
_cell_angle_beta                   90.0130(10)
_cell_angle_gamma                  90.00
_cell_volume                       238.21
_cell_formula_units_Z              2
_symmetry_space_group_name_H-M     'P 1 21/n 1'
_symmetry_Int_Tables_number        14
_refine_ls_R_factor_all            .0248
loop_
_symmetry_equiv_pos_site_id
_symmetry_equiv_pos_as_xyz
  1	'-x+.5, y+.5, -z+.5'
  2	'-x, -y, -z'
  3	'x+.5, -y+.5, z+.5'
  4	'x, y, z'
loop_
_atom_type_symbol
_atom_type_oxidation_number
Ir4+	4
Mg2+	2
O2-	-2
Sm3+	3
loop_
_atom_site_label
_atom_site_type_symbol
_atom_site_symmetry_multiplicity
_atom_site_Wyckoff_symbol
_atom_site_fract_x
_atom_site_fract_y
_atom_site_fract_z
_atom_site_occupancy
_atom_site_attached_hydrogens
_atom_site_U_iso_or_equiv
Ir1 Ir4+ 2 b 0.5000 0.5000 0.0000 1 0 0.00725(7) 
Sm1 Sm3+ 4 e 0.48414(5) 0.06223(5) 0.25065(5) 1 0 0.00979(7) 
Mg1 Mg2+ 2 a 0.0000 0.0000 0.0000 1 0 0.0066(4) 
O1 O2- 4 e 0.1990(12) 0.3056(11) 0.0520(8) 1 0 0.0110(10) 
O2 O2- 4 e 0.6006(8) 0.4680(8) 0.2466(8) 1 0 0.0109(7) 
O3 O2- 4 e 0.3109(12) 0.7953(11) 0.0519(7) 1 0 0.0100(9) 

loop_
_atom_site_aniso_label
_atom_site_aniso_type_symbol
_atom_site_aniso_U_11
_atom_site_aniso_U_22
_atom_site_aniso_U_33
_atom_site_aniso_U_12
_atom_site_aniso_U_13
_atom_site_aniso_U_23
Ir1 Ir4+ 0.00735(12) 0.00703(12) 0.00737(10) -0.00004(8) 0.0006(2) 
0.00013(10)
Sm1 Sm3+ 0.01007(12) 0.00927(13) 0.01003(11) -0.00054(10) -0.0019(2) 
0.00022(9)
O1 O2- 0.013(2) 0.006(2) 0.014(2) -0.005(2) 0.0003(18) -0.0025(18)
O2 O2- 0.0097(17) 0.0137(18) 0.0093(18) -0.0028(14) -0.0018(18) 0.000(2)
O3 O2- 0.011(2) 0.008(2) 0.0109(19) 0.000(2) -0.0022(17) -0.0009(17)
#End of data_420878-ICSD


