data_10432-ICSD
#?2014 by Fachinformationszentrum Karlsruhe, and the U.S. Secretary of 
#Commerce on behalf of the United States.  All rights reserved.
_database_code_ICSD                10432
_audit_creation_date               1980/12/31
_audit_update_record               2011/08/01
_chemical_name_systematic
;
Octasilver Germanium Hexaselenide - Beta
;
_chemical_formula_structural       'Ag8 Ge Se6'
_chemical_formula_sum              'Ag8 Ge1 Se6'
_publ_section_title
;
Structure de Ag8 Ge Se6 beta'
;
loop_
_citation_id
_citation_journal_abbrev
_citation_year
_citation_journal_volume
_citation_page_first
_citation_page_last
_citation_journal_id_ASTM
primary 'Acta Crystallographica B (24,1968-38,1982)' 1980 36 245 249 ACBCAR
2 'Phase Transition' 1992 38 127 220 PHTRDP
_publ_author_name
;
Carre, D.;Ollitrault-Fichet, R.;Flahaut, J.
;
_cell_length_a                     7.823(1)
_cell_length_b                     7.712(2)
_cell_length_c                     10.885(3)
_cell_angle_alpha                  90.
_cell_angle_beta                   90.
_cell_angle_gamma                  90.
_cell_volume                       656.7
_cell_formula_units_Z              2
_symmetry_space_group_name_H-M     'P m n 21'
_symmetry_Int_Tables_number        31
_refine_ls_R_factor_all            .056
loop_
_symmetry_equiv_pos_site_id
_symmetry_equiv_pos_as_xyz
  1	'x+.5, -y, z+.5'
  2	'-x+.5, -y, z+.5'
  3	'-x, y, z'
  4	'x, y, z'
loop_
_atom_type_symbol
_atom_type_oxidation_number
Ag1+	1
Ge4+	4
Se2-	-2
loop_
_atom_site_label
_atom_site_type_symbol
_atom_site_symmetry_multiplicity
_atom_site_Wyckoff_symbol
_atom_site_fract_x
_atom_site_fract_y
_atom_site_fract_z
_atom_site_occupancy
_atom_site_attached_hydrogens
Ag1 Ag1+ 2 a 0 0.6263(6) 0.0412(6) 1. 0 
Ag2 Ag1+ 4 b 0.2002(4) 0.1020(4) 0.8619(5) 1. 0 
Ag3 Ag1+ 4 b 0.2034(4) 0.5352(4) 0.2696(5) 1. 0 
Ag4 Ag1+ 4 b 0.1912(6) 0.1464(6) 0.1559(6) 1. 0 
Ag5 Ag1+ 2 a 0 0.7238(5) 0.4807(6) 1. 0 
Ge1 Ge4+ 2 a 0 0.2479(5) 0.5200(6) 1. 0 
Se1 Se2- 2 a 0 0.2916(6) 0 1. 0 
Se2 Se2- 2 a 0 0.8083(5) 0.2501(6) 1. 0 
Se3 Se2- 2 a 0 0.0029(5) 0.6482(6) 1. 0 
Se4 Se2- 2 a 0 0.4887(5) 0.6494(6) 1. 0 
Se5 Se2- 4 b 0.2524(4) 0.7536(4) 0.8997(5) 1. 0 

loop_
_atom_site_aniso_label
_atom_site_aniso_type_symbol
_atom_site_aniso_U_11
_atom_site_aniso_U_22
_atom_site_aniso_U_33
_atom_site_aniso_U_12
_atom_site_aniso_U_13
_atom_site_aniso_U_23
Ag1 Ag1+ 0.043(2) 0.039(2) 0.029(2) 0 0 -0.004(2)
Ag2 Ag1+ 0.036(2) 0.036(2) 0.047(2) 0.002(1) 0.009(2) -0.007(2)
Ag3 Ag1+ 0.042(2) 0.030(1) 0.045(2) 0.015(1) 0.014(2) 0.013(2)
Ag4 Ag1+ 0.048(2) 0.080(3) 0.049(2) 0.019(2) -0.018(2) 0.010(2)
Ag5 Ag1+ 0.067(3) 0.029(2) 0.022(2) 0 0 0.010(2)
Ge1 Ge4+ 0.017(2) 0.011(2) 0.011(1) 0 0 0.001(2)
Se1 Se2- 0.029(2) 0.019(2) 0.020(2) 0 0 -0.002(2)
Se2 Se2- 0.023(2) 0.018(2) 0.017(2) 0 0 0.001(2)
Se3 Se2- 0.022(2) 0.014(2) 0.017(2) 0 0 0.005(2)
Se4 Se2- 0.023(2) 0.012(2) 0.017(2) 0 0 -0.001(2)
Se5 Se2- 0.020(1) 0.018(1) 0.019(1) -0.002(1) -0.005(1) -0.001(1)
#End of data_10432-ICSD


