data_24405-ICSD
#?2014 by Fachinformationszentrum Karlsruhe, and the U.S. Secretary of 
#Commerce on behalf of the United States.  All rights reserved.
_database_code_ICSD                24405
_audit_creation_date               1981/12/31
_chemical_name_systematic
;
Dipotassium Mercury Bis(bromate) Bis(nitrate)
;
_chemical_formula_structural       'K2 Hg (Br O3)2 (N O3)2'
_chemical_formula_sum              'Br2 Hg1 K2 N2 O12'
_publ_section_title
;
X-Ray Studies on the Mercury(II) Bromates K2 Hg (Br O3)2 (N O3)2 and 
Hg (Br O3)2 (H2 O)2
;
loop_
_citation_id
_citation_journal_abbrev
_citation_year
_citation_journal_volume
_citation_page_first
_citation_page_last
_citation_journal_id_ASTM
primary 'Acta Chemica Scandinavica, Series A: (28,1974-)'
 1981 35 537 544 ACAPCT
_publ_author_name                  'Aurivillius, K.;Stalhandske, C.'
_cell_length_a                     14.170(2)
_cell_length_b                     7.254(1)
_cell_length_c                     5.656(1)
_cell_angle_alpha                  90.
_cell_angle_beta                   90.
_cell_angle_gamma                  90.
_cell_volume                       581.38
_cell_formula_units_Z              2
_symmetry_space_group_name_H-M     'P n n m'
_symmetry_Int_Tables_number        58
_refine_ls_R_factor_all            .026
loop_
_symmetry_equiv_pos_site_id
_symmetry_equiv_pos_as_xyz
  1	'x+.5, -y+.5, z+.5'
  2	'-x+.5, y+.5, z+.5'
  3	'x, y, -z'
  4	'-x, -y, -z'
  5	'-x+.5, y+.5, -z+.5'
  6	'x+.5, -y+.5, -z+.5'
  7	'-x, -y, z'
  8	'x, y, z'
loop_
_atom_type_symbol
_atom_type_oxidation_number
Br5+	5
Hg2+	2
K1+	1
N5+	5
O2-	-2
loop_
_atom_site_label
_atom_site_type_symbol
_atom_site_symmetry_multiplicity
_atom_site_Wyckoff_symbol
_atom_site_fract_x
_atom_site_fract_y
_atom_site_fract_z
_atom_site_occupancy
_atom_site_attached_hydrogens
_atom_site_B_iso_or_equiv
Hg1 Hg2+ 2 a 0 0 0 1. 0 1.92 
Br1 Br5+ 4 g 0.38400(5) 0.73193(9) 0 1. 0 2. 
K1 K1+ 4 g 0.2807(1) 0.2438(2) 0 1. 0 2.6 
N1 N5+ 4 g 0.0888(5) 0.6265(8) 0 1. 0 2.8 
O1 O2- 8 h 0.1248(3) 0.0882(6) 0.2728(8) 1. 0 3.21 
O2 O2- 8 h 0.4326(4) 0.2049(10) 0.3156(13) 1. 0 6.97 
O3 O2- 4 g 0.2824(4) 0.8385(8) 0 1. 0 3.11 
O4 O2- 4 g 0.1285(7) 0.4812(9) 0 1. 0 6.51 

#End of data_24405-ICSD


