data_260264-ICSD
#?2014 by Fachinformationszentrum Karlsruhe, and the U.S. Secretary of 
#Commerce on behalf of the United States.  All rights reserved.
_database_code_ICSD                260264
_audit_creation_date               2009/08/01
_chemical_name_systematic
;
Tripotassium Trivanadium Bis(arsenate) Hexaoxide
;
_chemical_formula_structural       'K3 V O2 (V2 As2 O12)'
_chemical_formula_sum              'As2 K3 O14 V3'
_publ_section_title                'K3 V O2 (V2 As2 O12)'
loop_
_citation_id
_citation_journal_abbrev
_citation_year
_citation_journal_volume
_citation_journal_issue
_citation_page_first
_citation_page_last
_citation_journal_id_ASTM
primary 'Acta Crystallographica, Section E. Structure Reports Online'
 2009 65 5 i31 i31 ACSEBH
_publ_author_name                  'Ezzine, S.;Zid, M.F.;Driss, A.'
_cell_length_a                     7.7490(10)
_cell_length_b                     16.560(3)
_cell_length_c                     10.212(2)
_cell_angle_alpha                  90.00
_cell_angle_beta                   90.00
_cell_angle_gamma                  90.00
_cell_volume                       1310.44
_cell_formula_units_Z              4
_symmetry_space_group_name_H-M     'P n m a'
_symmetry_Int_Tables_number        62
_refine_ls_R_factor_all            .0256
loop_
_symmetry_equiv_pos_site_id
_symmetry_equiv_pos_as_xyz
  1	'x+.5, y, -z+.5'
  2	'x, -y+.5, z'
  3	'-x+.5, y+.5, z+.5'
  4	'-x, -y, -z'
  5	'-x+.5, -y, z+.5'
  6	'-x, y+.5, -z'
  7	'x+.5, -y+.5, -z+.5'
  8	'x, y, z'
loop_
_atom_type_symbol
_atom_type_oxidation_number
As5+	5
K1+	1
O2-	-2
V5+	5
loop_
_atom_site_label
_atom_site_type_symbol
_atom_site_symmetry_multiplicity
_atom_site_Wyckoff_symbol
_atom_site_fract_x
_atom_site_fract_y
_atom_site_fract_z
_atom_site_occupancy
_atom_site_attached_hydrogens
_atom_site_U_iso_or_equiv
As1 As5+ 8 d 0.10840(5) 0.07562(2) 0.90501(4) 1 0 0.00747(13) 
V1 V5+ 8 d 0.20184(8) 0.05848(4) 0.21845(6) 1 0 0.00838(16) 
V2 V5+ 4 c 0.24092(12) 0.2500 0.77176(9) 1 0 0.0104(2) 
K1 K1+ 8 d 0.08189(12) 0.10726(6) 0.54286(9) 1 0 0.0174(2) 
K2 K1+ 4 c 0.46435(18) 0.2500 0.35139(14) 1 0 0.0203(3) 
O1 O2- 8 d 0.2795(3) 0.01438(15) 0.8753(3) 1 0 0.0101(5) 
O2 O2- 8 d 0.4117(3) 0.03661(16) 0.6225(3) 1 0 0.0113(6) 
O3 O2- 8 d 0.4050(4) 0.04567(16) 0.1786(3) 1 0 0.0152(6) 
O4 O2- 8 d 0.1232(4) 0.11681(16) 0.0562(3) 1 0 0.0126(6) 
O5 O2- 8 d 0.1237(4) 0.15388(16) 0.7961(3) 1 0 0.0143(6) 
O6 O2- 8 d 0.1942(4) 0.14453(16) 0.2994(3) 1 0 0.0127(6) 
O7 O2- 4 c 0.3063(5) 0.2500 0.6193(4) 1 0 0.0164(9) 
O8 O2- 4 c 0.4069(6) 0.2500 0.8710(4) 1 0 0.0195(9) 

loop_
_atom_site_aniso_label
_atom_site_aniso_type_symbol
_atom_site_aniso_U_11
_atom_site_aniso_U_22
_atom_site_aniso_U_33
_atom_site_aniso_U_12
_atom_site_aniso_U_13
_atom_site_aniso_U_23
As1 As5+ 0.0077(2) 0.00609(19) 0.0086(2) -0.00023(14) -0.00015(14) 
0.00011(14)
V1 V5+ 0.0085(3) 0.0072(3) 0.0094(3) 0.0000(2) -0.0009(3) -0.0002(2)
V2 V5+ 0.0136(5) 0.0064(4) 0.0111(5) 0.000 0.0007(4) 0.000
K1 K1+ 0.0220(5) 0.0163(4) 0.0138(4) -0.0007(4) 0.0004(4) -0.0022(4)
K2 K1+ 0.0182(6) 0.0116(5) 0.0312(8) 0.000 -0.0029(6) 0.000
O1 O2- 0.0081(13) 0.0104(12) 0.0117(13) 0.0032(10) 0.0014(11) -0.0020(11)
O2 O2- 0.0047(13) 0.0139(13) 0.0153(14) -0.0009(11) 0.0009(10) 0.0008(11)
O3 O2- 0.0112(14) 0.0168(14) 0.0178(14) 0.0026(11) 0.0032(11) 0.0047(12)
O4 O2- 0.0202(14) 0.0094(12) 0.0083(12) 0.0051(12) -0.0027(11) -0.0009(11)
O5 O2- 0.0185(14) 0.0098(12) 0.0145(14) -0.0007(11) -0.0016(12) 0.0033(11)
O6 O2- 0.0188(14) 0.0090(11) 0.0101(12) -0.0005(11) 0.0004(11) -0.0009(10)
O7 O2- 0.018(2) 0.0172(19) 0.014(2) 0.000 0.0003(17) 0.000
O8 O2- 0.023(2) 0.015(2) 0.020(2) 0.000 -0.0077(18) 0.000
#End of data_260264-ICSD


