data_16970-ICSD
#?2014 by Fachinformationszentrum Karlsruhe, and the U.S. Secretary of 
#Commerce on behalf of the United States.  All rights reserved.
_database_code_ICSD                16970
_audit_creation_date               1984/09/04
_audit_update_record               2010/02/01
_chemical_name_systematic          'Dialuminium Oxide Silicate'
_chemical_formula_structural       'Al2 O (Si O4)'
_chemical_formula_sum              'Al2 O5 Si1'
_chemical_name_mineral             Kyanite
_publ_section_title                'The structure of cyanite'
loop_
_citation_id
_citation_journal_abbrev
_citation_year
_citation_journal_volume
_citation_page_first
_citation_page_last
_citation_journal_id_ASTM
primary
;
Zeitschrift fuer Kristallographie, Kristallgeometrie, Kristallphysik, 
Kristallchemie (-144,1977)
;
 1929 71 117 130 ZEKGAX
_publ_author_name
;
Naray-Szabo, S.;Taylor, W.H.;Jackson, W.W.
;
_cell_length_a                     7.09(2)
_cell_length_b                     7.72(4)
_cell_length_c                     5.56(2)
_cell_angle_alpha                  90.09
_cell_angle_beta                   101.03
_cell_angle_gamma                  105.74
_cell_volume                       287.04
_cell_formula_units_Z              4
_symmetry_space_group_name_H-M     'P -1'
_symmetry_Int_Tables_number        2
loop_
_symmetry_equiv_pos_site_id
_symmetry_equiv_pos_as_xyz
  1	'-x, -y, -z'
  2	'x, y, z'
loop_
_atom_type_symbol
_atom_type_oxidation_number
Al3+	3
O2-	-2
Si4+	4
loop_
_atom_site_label
_atom_site_type_symbol
_atom_site_symmetry_multiplicity
_atom_site_Wyckoff_symbol
_atom_site_fract_x
_atom_site_fract_y
_atom_site_fract_z
_atom_site_occupancy
_atom_site_attached_hydrogens
O1 O2- 2 i 0.38 0.34 0.35 1. 0 
O2 O2- 2 i 0.38 -.16 0.35 1. 0 
O3 O2- 2 i 0.22 0.07 -.45 1. 0 
O4 O2- 2 i 0.22 -.47 -.45 1. 0 
O5 O2- 2 i 0.38 0.34 -.15 1. 0 
O6 O2- 2 i 0.38 -.16 -.15 1. 0 
O7 O2- 2 i 0.22 0.07 0.05 1. 0 
O8 O2- 2 i 0.22 -.47 0.05 1. 0 
O9 O2- 2 i 0 0.25 0.25 1. 0 
O10 O2- 2 i 0 0.25 -.25 1. 0 
Si1 Si4+ 2 i 0.2 0.42 -.2 1. 0 
Si2 Si4+ 2 i 0.2 0.18 0.3 1. 0 
Al1 Al3+ 2 i 0.19 -.21 0.05 1. 0 
Al2 Al3+ 2 i 0.19 -.21 0.45 1. 0 
Al3 Al3+ 2 i 0.39 0.09 -.17 1. 0 
Al4 Al3+ 2 i 0.39 -.41 0.33 1. 0 

#End of data_16970-ICSD


