data_66971-ICSD
#?2014 by Fachinformationszentrum Karlsruhe, and the U.S. Secretary of 
#Commerce on behalf of the United States.  All rights reserved.
_database_code_ICSD                66971
_audit_creation_date               1998/06/26
_chemical_name_systematic          'Distrontium Zinc Hydroxide'
_chemical_formula_structural       'Sr2 Zn (O H)6'
_chemical_formula_sum              'H6 O6 Sr2 Zn1'
_publ_section_title
;
Synthese und Kristallstruktur von Sr2 Zn (O H)6 und Ba2 Zn (O H)6
;
loop_
_citation_id
_citation_journal_abbrev
_citation_year
_citation_journal_volume
_citation_page_first
_citation_page_last
_citation_journal_id_ASTM
primary 'Zeitschrift fuer Anorganische und Allgemeine Chemie (1950) (DE)'
 1998 624 17 20 ZAACAB
_publ_author_name                  'Stahl, R.;Jacobs, H.'
_cell_length_a                     5.794(1)
_cell_length_b                     6.160(1)
_cell_length_c                     8.141(2)
_cell_angle_alpha                  90.
_cell_angle_beta                   91.23(1)
_cell_angle_gamma                  90.
_cell_volume                       290.49
_cell_formula_units_Z              2
_symmetry_space_group_name_H-M     'P 1 21/n 1'
_symmetry_Int_Tables_number        14
_refine_ls_R_factor_all            .0474
loop_
_symmetry_equiv_pos_site_id
_symmetry_equiv_pos_as_xyz
  1	'-x+.5, y+.5, -z+.5'
  2	'-x, -y, -z'
  3	'x+.5, -y+.5, z+.5'
  4	'x, y, z'
loop_
_atom_type_symbol
_atom_type_oxidation_number
H1+	1
O2-	-2
Sr2+	2
Zn2+	2
loop_
_atom_site_label
_atom_site_type_symbol
_atom_site_symmetry_multiplicity
_atom_site_Wyckoff_symbol
_atom_site_fract_x
_atom_site_fract_y
_atom_site_fract_z
_atom_site_occupancy
_atom_site_attached_hydrogens
_atom_site_U_iso_or_equiv
Sr1 Sr2+ 4 e 0.46700(8) 0.07537(7) 0.24977(5) 1. 0 0 
Zn1 Zn2+ 2 b 0 0 0.5 1. 0 0 
O1 O2- 4 e 0.1101(6) 0.0312(6) 0.7462(4) 1. 0 0 
O2 O2- 4 e 0.6684(6) 0.2166(6) 0.9473(5) 1. 0 0 
O3 O2- 4 e 0.6770(7) 0.2039(7) 0.5550(5) 1. 0 0 
H1 H1+ 4 e 0.94(1) 0.10(1) 0.190(7) 1. 0 0.004(8) 
H2 H1+ 4 e 0.76(1) 0.21(1) 0.006(8) 1. 0 0.004(8) 
H3 H1+ 4 e 0.19(1) 0.21(1) 0.023(9) 1. 0 0.004(8) 

loop_
_atom_site_aniso_label
_atom_site_aniso_type_symbol
_atom_site_aniso_U_11
_atom_site_aniso_U_22
_atom_site_aniso_U_33
_atom_site_aniso_U_12
_atom_site_aniso_U_13
_atom_site_aniso_U_23
Sr1 Sr2+ 0.0124(2) 0.0099(1) 0.0112(1) 0.0002(2) 0.0009(1) 0.0006(2)
Zn1 Zn2+ 0.0171(4) 0.0131(3) 0.0092(3) -.0048(3) 0.0004(3) -.0003(3)
O1 O2- 0.015(2) 0.013(2) 0.012(1) 0.001(1) 0.001(1) -.001(1)
O2 O2- 0.012(2) 0.012(2) 0.016(2) 0.004(1) -.004(1) -.004(1)
O3 O2- 0.020(2) 0.012(2) 0.014(2) -.002(1) 0.000(1) 0.005(1)
#End of data_66971-ICSD


