data_249201-ICSD
#?2014 by Fachinformationszentrum Karlsruhe, and the U.S. Secretary of 
#Commerce on behalf of the United States.  All rights reserved.
_database_code_ICSD                249201
_audit_creation_date               2008/02/01
_chemical_name_systematic
;
Tetrarubidium Magnesium Tetradecakis(selenate(IV)) 
Bis(dihydroxoselenate(IV)) Dihydrate
;
_chemical_formula_structural
;
Rb4 Mg Fe8 (Se O3)14 (Se O2 (O H))2 (H2 O)2
;
_chemical_formula_sum              'H6 Fe8 Mg1 O50 Rb4 Se16'
_publ_section_title
;
Crystal structures of the new isotypic compounds Rb4 (M2+) (Fe3+)8 
[Se O3]14 [Se O2 (O H)]2 *2(H2 O) (M=Mg,Cu) with a short review on 
iron(II) selenites
;
loop_
_citation_id
_citation_journal_abbrev
_citation_year
_citation_journal_volume
_citation_journal_issue
_citation_page_first
_citation_page_last
_citation_journal_id_ASTM
primary 'Zeitschrift fuer Kristallographie (1979-2010)' 2006 221 11 722 731 ZEKRDZ
_publ_author_name                  'Giester, G.;Wildner, M.'
_cell_length_a                     7.716(2)
_cell_length_b                     10.325(3)
_cell_length_c                     15.764(4)
_cell_angle_alpha                  77.570(10)
_cell_angle_beta                   89.230(10)
_cell_angle_gamma                  86.090(10)
_cell_volume                       1223.59
_cell_formula_units_Z              1
_symmetry_space_group_name_H-M     'P -1'
_symmetry_Int_Tables_number        2
_refine_ls_R_factor_all            .028
loop_
_symmetry_equiv_pos_site_id
_symmetry_equiv_pos_as_xyz
  1	'-x, -y, -z'
  2	'x, y, z'
loop_
_atom_type_symbol
_atom_type_oxidation_number
Fe3+	3
H1+	1
Mg2+	2
O2-	-2
Rb1+	1
Se4+	4
loop_
_atom_site_label
_atom_site_type_symbol
_atom_site_symmetry_multiplicity
_atom_site_Wyckoff_symbol
_atom_site_fract_x
_atom_site_fract_y
_atom_site_fract_z
_atom_site_occupancy
_atom_site_attached_hydrogens
_atom_site_U_iso_or_equiv
Rb1 Rb1+ 2 i 0.47738(8) 0.30125(6) 0.73559(4) 1 0 0.03183(14) 
Rb2 Rb1+ 2 i 0.09182(8) 0.30926(6) 0.16486(5) 1 0 0.03960(16) 
Se1 Se4+ 2 i 0.44407(6) 0.53975(5) 0.87963(3) 1 0 0.01281(10) 
Se2 Se4+ 2 i 0.19843(6) 0.05844(5) 0.59966(3) 1 0 0.01469(11) 
Se3 Se4+ 2 i 0.31060(6) 0.96723(5) 0.06702(3) 1 0 0.01260(10) 
Se4 Se4+ 2 i 0.03239(6) 0.61959(5) 0.36443(3) 1 0 0.01481(11) 
Se5 Se4+ 2 i 0.32617(6) 0.62630(5) 0.54306(3) 1 0 0.01393(10) 
Se6 Se4+ 2 i 0.28124(6) 0.89504(5) 0.84894(3) 1 0 0.01349(10) 
Se7 Se4+ 2 i 0.33974(6) 0.01671(5) 0.31192(3) 1 0 0.01674(11) 
Se8 Se4+ 2 i 0.03739(6) 0.24987(5) 0.92107(3) 1 0 0.01590(11) 
Mg1 Mg2+ 1 f 0.5000 0.0000 0.5000 1 0 0.0224(5) 
Fe1 Fe3+ 2 i 0.40274(9) 0.74115(7) 0.69176(4) 1 0 0.01323(14) 
Fe2 Fe3+ 2 i 0.25139(9) 0.35213(7) 0.48010(4) 1 0 0.01392(14) 
Fe3 Fe3+ 2 i 0.44749(9) 0.25158(7) 0.00312(4) 1 0 0.01259(14) 
Fe4 Fe3+ 2 i 0.02360(8) 0.90045(7) 0.22932(4) 1 0 0.01292(14) 
O1 O2- 2 i 0.4863(5) 0.5734(3) 0.7709(2) 1 0 0.0194(7) 
O2 O2- 2 i 0.5450(4) 0.3833(3) 0.9046(2) 1 0 0.0151(7) 
O3 O2- 2 i 0.5959(4) 0.6212(4) 0.9196(2) 1 0 0.0193(7) 
O4 O2- 2 i 0.3377(4) 0.1751(3) 0.5532(2) 1 0 0.0199(8) 
O5 O2- 2 i 0.3421(5) -0.0761(4) 0.6110(2) 1 0 0.0247(8) 
O6 O2- 2 i 0.1942(4) 0.0884(4) 0.7009(2) 1 0 0.0179(7) 
O7 O2- 2 i 0.5114(4) 0.8851(3) 0.07022(19) 1 0 0.0139(7) 
O8 O2- 2 i 0.3541(4) 1.1094(3) 0.0977(2) 1 0 0.0167(7) 
O9 O2- 2 i 0.2336(4) 0.8760(3) 0.1616(2) 1 0 0.0192(8) 
O10 O2- 2 i 0.1356(4) 0.7563(3) 0.3197(2) 1 0 0.0189(8) 
O11 O2- 2 i -0.0239(4) 0.6525(3) 0.4626(2) 1 0 0.0184(7) 
O12 O2- 2 i 0.2097(5) 0.5153(4) 0.3913(2) 1 0 0.0239(8) 
O13 O2- 2 i 0.3458(4) 0.4572(3) 0.5631(2) 1 0 0.0175(7) 
O14 O2- 2 i 0.2149(4) 0.6594(4) 0.6314(2) 1 0 0.0186(7) 
O15 O2- 2 i 0.5179(4) 0.6652(3) 0.5847(2) 1 0 0.0147(7) 
O16 O2- 2 i 0.2547(5) 0.7824(3) 0.7854(2) 1 0 0.0188(7) 
O17 O2- 2 i 0.3125(4) 0.7891(3) 0.9472(2) 1 0 0.0163(7) 
O18 O2- 2 i 0.0720(4) 0.9468(3) 0.8624(2) 1 0 0.0191(8) 
O19 O2- 2 i 0.3137(5) -0.0191(5) 0.4231(2) 1 0 0.0373(11) 
O20 O2- 2 i 0.1288(4) 0.0352(3) 0.2852(2) 1 0 0.0184(7) 
O21 O2- 2 i 0.3788(5) 0.1801(4) 0.2897(2) 1 0 0.0279(9) 
O22 O2- 2 i 0.2076(5) 0.3157(4) 0.9559(2) 1 0 0.0240(8) 
O23 O2- 2 i 0.1020(5) 0.2323(4) 0.8221(2) 1 0 0.0226(8) 
O24 O2- 2 i -0.0936(5) 0.3978(4) 0.8945(3) 1 0 0.0304(10) 
O25 O2- 2 i 0.1234(6) 0.2543(5) 0.4010(3) 1 0 0.0282(9) 
H1 H1+ 2 i -0.194(5) 0.384(6) 0.902(4) 1 0 0.018(15) 
H2 H1+ 2 i 0.012(7) 0.279(7) 0.388(4) 1 0 0.05(2) 
H3 H1+ 2 i 0.176(10) 0.208(7) 0.375(5) 1 0 0.06(3) 

loop_
_atom_site_aniso_label
_atom_site_aniso_type_symbol
_atom_site_aniso_U_11
_atom_site_aniso_U_22
_atom_site_aniso_U_33
_atom_site_aniso_U_12
_atom_site_aniso_U_13
_atom_site_aniso_U_23
Rb1 Rb1+ 0.0418(3) 0.0260(3) 0.0297(3) 0.0076(2) -0.0072(2) -0.0133(2)
Rb2 Rb1+ 0.0281(3) 0.0253(3) 0.0627(4) -0.0045(2) 0.0144(3) -0.0034(3)
Se1 Se4+ 0.0155(2) 0.0095(2) 0.0145(2) -0.00125(17) 0.00084(16) 
-0.00507(17)
Se2 Se4+ 0.0186(2) 0.0116(2) 0.0145(2) -0.00071(18) 0.00039(17) 
-0.00426(17)
Se3 Se4+ 0.0149(2) 0.0099(2) 0.0144(2) -0.00178(17) 0.00196(16) 
-0.00568(16)
Se4 Se4+ 0.0176(2) 0.0119(2) 0.0157(2) -0.00139(18) 0.00130(16) 
-0.00453(17)
Se5 Se4+ 0.0165(2) 0.0123(2) 0.0150(2) -0.00200(18) 0.00006(16) 
-0.00711(17)
Se6 Se4+ 0.0151(2) 0.0118(2) 0.0143(2) 0.00014(17) 0.00003(16) -0.00464(17)
Se7 Se4+ 0.0173(2) 0.0141(2) 0.0213(2) -0.00144(18) -0.00031(17) 
-0.00893(18)
Se8 Se4+ 0.0172(2) 0.0146(2) 0.0180(2) -0.00278(19) -0.00001(17) 
-0.00766(18)
Mg1 Mg2+ 0.0197(12) 0.0292(14) 0.0193(11) -0.0007(11) 0.0021(9) -0.0081(10)
Fe1 Fe3+ 0.0158(3) 0.0111(3) 0.0142(3) -0.0016(3) 0.0008(2) -0.0058(2)
Fe2 Fe3+ 0.0155(3) 0.0107(3) 0.0165(3) -0.0011(3) 0.0028(2) -0.0053(3)
Fe3 Fe3+ 0.0152(3) 0.0095(3) 0.0145(3) -0.0017(3) 0.0006(2) -0.0056(2)
Fe4 Fe3+ 0.0146(3) 0.0108(3) 0.0142(3) -0.0009(3) 0.0013(2) -0.0046(2)
O1 O2- 0.032(2) 0.0136(17) 0.0142(15) -0.0010(15) -0.0004(14) -0.0057(13)
O2 O2- 0.0203(17) 0.0098(16) 0.0154(15) 0.0011(13) 0.0043(12) -0.0039(12)
O3 O2- 0.0203(18) 0.0184(18) 0.0236(17) -0.0048(15) 0.0028(13) -0.0133(14)
O4 O2- 0.0206(17) 0.0161(17) 0.0208(16) -0.0014(14) 0.0053(13) 0.0009(14)
O5 O2- 0.028(2) 0.0156(18) 0.0296(19) 0.0021(15) 0.0058(15) -0.0049(15)
O6 O2- 0.0164(17) 0.0213(18) 0.0174(16) 0.0001(14) 0.0049(13) -0.0080(14)
O7 O2- 0.0141(16) 0.0136(16) 0.0157(15) 0.0021(13) 0.0040(12) -0.0082(13)
O8 O2- 0.0223(17) 0.0113(16) 0.0180(16) -0.0031(14) 0.0085(13) -0.0063(13)
O9 O2- 0.0195(17) 0.0151(17) 0.0208(17) 0.0006(14) 0.0097(13) -0.0004(14)
O10 O2- 0.0177(17) 0.0139(17) 0.0226(17) 0.0002(14) 0.0002(13) 0.0008(14)
O11 O2- 0.0177(17) 0.0216(19) 0.0200(16) -0.0040(14) 0.0069(13) -0.0130(14)
O12 O2- 0.028(2) 0.0174(18) 0.0234(18) 0.0077(15) 0.0085(15) -0.0018(15)
O13 O2- 0.0231(18) 0.0107(16) 0.0220(17) -0.0018(14) 0.0040(13) -0.0105(13)
O14 O2- 0.0098(16) 0.0247(19) 0.0256(17) -0.0018(14) 0.0027(13) -0.0149(15)
O15 O2- 0.0129(15) 0.0187(17) 0.0153(15) -0.0024(13) 0.0000(12) -0.0092(13)
O16 O2- 0.0229(18) 0.0142(17) 0.0212(17) 0.0001(14) 0.0026(13) -0.0081(14)
O17 O2- 0.0167(16) 0.0162(17) 0.0159(15) -0.0013(14) -0.0027(12) 
-0.0032(13)
O18 O2- 0.0201(17) 0.0178(18) 0.0175(16) 0.0058(14) 0.0019(13) -0.0018(14)
O19 O2- 0.036(2) 0.056(3) 0.0196(19) -0.018(2) -0.0015(16) -0.0038(19)
O20 O2- 0.0187(17) 0.0153(17) 0.0245(17) -0.0008(14) -0.0030(13) 
-0.0119(14)
O21 O2- 0.033(2) 0.0149(18) 0.035(2) -0.0102(16) -0.0157(17) -0.0003(16)
O22 O2- 0.0199(19) 0.024(2) 0.034(2) 0.0001(16) -0.0087(15) -0.0191(16)
O23 O2- 0.0261(19) 0.023(2) 0.0218(17) -0.0065(16) 0.0054(14) -0.0101(15)
O24 O2- 0.0155(19) 0.021(2) 0.055(3) 0.0028(16) 0.0006(18) -0.0115(19)
O25 O2- 0.022(2) 0.033(2) 0.037(2) -0.0001(18) 0.0018(17) -0.0256(19)
#End of data_249201-ICSD


