data_20646-ICSD
#?2014 by Fachinformationszentrum Karlsruhe, and the U.S. Secretary of 
#Commerce on behalf of the United States.  All rights reserved.
_database_code_ICSD                20646
_audit_creation_date               1983/12/31
_chemical_name_systematic
;
Disodium Barium Dineodymium Tetrakis(silicate) Carbonate
;
_chemical_formula_structural       'Na2 Ba Nd2 (Si4 O12) (C O3)'
_chemical_formula_sum              'C1 Ba1 Na2 Nd2 O15 Si4'
_publ_section_title
;
The crystal structure of Na2 Ba Nd2 (Si4 O12) (C O3)
;
loop_
_citation_id
_citation_journal_abbrev
_citation_year
_citation_journal_volume
_citation_page_first
_citation_page_last
_citation_journal_id_ASTM
primary 'Doklady Akademii Nauk SSSR' 1983 272 1375 1378 DANKAS
_publ_author_name                  'Malinovskii, Yu.A.'
_cell_length_a                     6.9522(7)
_cell_length_b                     13.463(3)
_cell_length_c                     14.027(1)
_cell_angle_alpha                  90.
_cell_angle_beta                   90.
_cell_angle_gamma                  90.
_cell_volume                       1312.89
_cell_formula_units_Z              4
_symmetry_space_group_name_H-M     'P c m n'
_symmetry_Int_Tables_number        62
_refine_ls_R_factor_all            .042
loop_
_symmetry_equiv_pos_site_id
_symmetry_equiv_pos_as_xyz
  1	'-x+.5, y, z+.5'
  2	'x, -y+.5, z'
  3	'x+.5, y+.5, -z+.5'
  4	'-x, -y, -z'
  5	'x+.5, -y, -z+.5'
  6	'-x, y+.5, -z'
  7	'-x+.5, -y+.5, z+.5'
  8	'x, y, z'
loop_
_atom_type_symbol
_atom_type_oxidation_number
Ba2+	2
C4+	4
Na1+	1
Nd3+	3
O2-	-2
Si4+	4
loop_
_atom_site_label
_atom_site_type_symbol
_atom_site_symmetry_multiplicity
_atom_site_Wyckoff_symbol
_atom_site_fract_x
_atom_site_fract_y
_atom_site_fract_z
_atom_site_occupancy
_atom_site_attached_hydrogens
_atom_site_B_iso_or_equiv
Ba1 Ba2+ 4 c 0.41199(13) 0.25 0.14014(7) 1. 0 1.14(1) 
Nd1 Nd3+ 8 d 0.12027 0.05759(4) 0.28759(4) 1. 0 0.75(1) 
Si1 Si4+ 8 d 0.3808(4) 0.6372(2) 0.4261(2) 1. 0 0.87(4) 
Si2 Si4+ 8 d 0.1185(4) 0.6336(2) 0.1495(2) 1. 0 0.75(3) 
Na1 Na1+ 8 d 0.2680(7) 0.4626(4) 0.0301(4) 1. 0 1.62(7) 
C1 C4+ 4 c 0.115(2) 0.25 0.401(1) 1. 0 1.3(2) 
O1 O2- 8 d 0.447(1) 0.3991(5) 0.2782(5) 1. 0 0.88(9) 
O2 O2- 8 d 0.297(1) 0.5603(6) 0.1714(5) 1. 0 0.99(9) 
O3 O2- 8 d 0.072(1) 0.3747(5) 0.1343(5) 1. 0 0.95(9) 
O4 O2- 8 d 0.059(1) 0.6171(5) 0.0382(5) 1. 0 0.96(9) 
O5 O2- 4 c 0.171(2) 0.75 0.1679(8) 1. 0 1.27(16) 
O6 O2- 4 c 0.292(1) 0.75 0.4204(8) 1. 0 1.16(15) 
O7 O2- 8 d 0.205(1) 0.5639(6) 0.4006(5) 1. 0 1.23(11) 
O8 O2- 8 d 0.109(1) 0.1659(6) 0.4468(6) 1. 0 1.55(12) 
O9 O2- 4 c 0.132(2) 0.25 0.3108(8) 1. 0 1.67(18) 

#End of data_20646-ICSD


