data_95029-ICSD
#?2014 by Fachinformationszentrum Karlsruhe, and the U.S. Secretary of 
#Commerce on behalf of the United States.  All rights reserved.
_database_code_ICSD                95029
_audit_creation_date               2003/10/01
_audit_update_record               2007/04/01
_chemical_name_systematic
;
Potassium Dierbium Copper(I) Selenide
;
_chemical_formula_structural       'K Er2 Cu Se4'
_chemical_formula_sum              'Cu1 Er2 K1 Se4'
_publ_section_title
;
Synthesis and structure of IR-transparent rare-earth selenides K Ln2 
Cu Se4 (Ln = Ho, Er)
;
loop_
_citation_id
_citation_journal_abbrev
_citation_year
_citation_journal_volume
_citation_page_first
_citation_page_last
_citation_journal_id_ASTM
primary 'Journal of Alloys and Compounds' 2002 336 148 153 JALCEU
_publ_author_name
;
Zeng, H.-Y.;Mao, J.-G.;Chen, J.-T.;Dong Zhenchao;Guo, G.-C.;Huang, J.-
S.
;
_cell_length_a                     4.061(1)
_cell_length_b                     13.748(4)
_cell_length_c                     14.150(3)
_cell_angle_alpha                  90
_cell_angle_beta                   90
_cell_angle_gamma                  90
_cell_volume                       790
_cell_formula_units_Z              4
_symmetry_space_group_name_H-M     'C m c m'
_symmetry_Int_Tables_number        63
_refine_ls_R_factor_all            .0402
loop_
_symmetry_equiv_pos_site_id
_symmetry_equiv_pos_as_xyz
  1	'-x, y, -z+.5'
  2	'-x, -y, z+.5'
  3	'-x, y, z'
  4	'-x, -y, -z'
  5	'x, -y, z+.5'
  6	'x, y, -z+.5'
  7	'x, -y, -z'
  8	'x, y, z'
  9	'-x+.5, y+.5, -z+.5'
 10	'-x+.5, -y+.5, z+.5'
 11	'-x+.5, y+.5, z'
 12	'-x+.5, -y+.5, -z'
 13	'x+.5, -y+.5, z+.5'
 14	'x+.5, y+.5, -z+.5'
 15	'x+.5, -y+.5, -z'
 16	'x+.5, y+.5, z'
loop_
_atom_type_symbol
_atom_type_oxidation_number
Cu1+	1
Er3+	3
K1+	1
Se2-	-2
loop_
_atom_site_label
_atom_site_type_symbol
_atom_site_symmetry_multiplicity
_atom_site_Wyckoff_symbol
_atom_site_fract_x
_atom_site_fract_y
_atom_site_fract_z
_atom_site_occupancy
_atom_site_attached_hydrogens
_atom_site_B_iso_or_equiv
Er1 Er3+ 8 f 0.5 0.13439(4) -.06445(3) 1. 0 0.752(5) 
Se1 Se2- 4 c 0 0.4366(1) 0.250 1. 0 0.81(2) 
Se2 Se2- 8 f 0.5 0.23383(8) 0.11070(8) 1. 0 0.84(1) 
Se3 Se2- 4 a 0 0 0 1. 0 1.03(2) 
Cu1 Cu1+ 4 c 0.5 0.3391(2) 0.250 1. 0 1.23(3) 
K1 K1+ 4 c 0 0.1129(3) 0.250 1. 0 1.63(6) 

loop_
_atom_site_aniso_label
_atom_site_aniso_type_symbol
_atom_site_aniso_U_11
_atom_site_aniso_U_22
_atom_site_aniso_U_33
_atom_site_aniso_U_12
_atom_site_aniso_U_13
_atom_site_aniso_U_23
Er1 Er3+ 0.0108(2) 0.0086(1) 0.0091(1) 0. 0. 0.0002(2)
Se1 Se2- 0.0124(6) 0.0101(5) 0.0083(5) 0. 0. 0.
Se2 Se2- 0.0129(4) 0.0095(4) 0.0096(4) 0. 0. -0.0009(3)
Se3 Se2- 0.0107(6) 0.0092(5) 0.0194(6) 0. 0. 0.0060(5)
Cu1 Cu1+ 0.0170(9) 0.0154(8) 0.0143(8) 0. 0. 0.
K1 K1+ 0.019(2) 0.013(1) 0.029(2) 0. 0. 0.
#End of data_95029-ICSD


