data_419261-ICSD
#?2014 by Fachinformationszentrum Karlsruhe, and the U.S. Secretary of 
#Commerce on behalf of the United States.  All rights reserved.
_database_code_ICSD                419261
_audit_creation_date               2009/02/01
_audit_update_record               2014/08/01
_chemical_name_systematic
;
Bis(potassium Sulfitochloromercurate(II)) Mercury(II) Dichloride 
Potassium Chloride
;
_chemical_formula_structural       '(K (Hg S O3 Cl))2 (Hg Cl2) (K Cl)'
_chemical_formula_sum              'Cl5 Hg3 K3 O6 S2'
_publ_section_title
;
Structural studies of new sulfito mercurates(II) with general formula 
xM [X Hg S O3] * y Hg X2 * z M X * n H2O (M = NH4, K; X = Cl, Br)
;
loop_
_citation_id
_citation_journal_abbrev
_citation_year
_citation_journal_volume
_citation_journal_issue
_citation_page_first
_citation_page_last
_citation_journal_id_ASTM
primary 'Zeitschrift fuer Anorganische und Allgemeine Chemie (1950) (DE)'
 2008 634 10 1742 1748 ZAACAB
_publ_author_name
;
Weil, M.;Baumann, S.;Breitinger, D.K.
;
_cell_length_a                     22.158(3)
_cell_length_b                     5.9736(7)
_cell_length_c                     12.2486(14)
_cell_angle_alpha                  90.00
_cell_angle_beta                   90.00
_cell_angle_gamma                  90.00
_cell_volume                       1621.26
_cell_formula_units_Z              4
_symmetry_space_group_name_H-M     'P n m a'
_symmetry_Int_Tables_number        62
_refine_ls_R_factor_all            .0385
loop_
_symmetry_equiv_pos_site_id
_symmetry_equiv_pos_as_xyz
  1	'x+.5, y, -z+.5'
  2	'x, -y+.5, z'
  3	'-x+.5, y+.5, z+.5'
  4	'-x, -y, -z'
  5	'-x+.5, -y, z+.5'
  6	'-x, y+.5, -z'
  7	'x+.5, -y+.5, -z+.5'
  8	'x, y, z'
loop_
_atom_type_symbol
_atom_type_oxidation_number
Cl1-	-1
Hg2+	2
K1+	1
O2-	-2
S4+	4
loop_
_atom_site_label
_atom_site_type_symbol
_atom_site_symmetry_multiplicity
_atom_site_Wyckoff_symbol
_atom_site_fract_x
_atom_site_fract_y
_atom_site_fract_z
_atom_site_occupancy
_atom_site_attached_hydrogens
_atom_site_U_iso_or_equiv
Hg1 Hg2+ 4 c 0.313763(13) 0.2500 0.13959(3) 1 0 0.01489(11) 
Hg2 Hg2+ 4 c 0.691720(13) -0.2500 0.38639(3) 1 0 0.01360(10) 
Hg3 Hg2+ 4 c 0.688316(14) 0.2500 0.62544(3) 1 0 0.01868(11) 
K1 K1+ 4 c 0.49835(10) 0.2500 0.37488(15) 1 0 0.0212(5) 
K2 K1+ 4 c 0.48983(9) -0.2500 0.13464(15) 1 0 0.0149(3) 
K3 K1+ 4 c 0.36843(10) -0.2500 -0.13091(15) 1 0 0.0187(4) 
S1 S4+ 4 c 0.58821(8) -0.2500 0.33994(17) 1 0 0.0116(4) 
S2 S4+ 4 c 0.41554(8) 0.2500 0.07850(16) 1 0 0.0096(3) 
Cl1 Cl1- 4 c 0.79984(10) -0.2500 0.38863(17) 1 0 0.0146(4) 
Cl2 Cl1- 4 c 0.79327(10) 0.2500 0.62613(16) 1 0 0.0173(4) 
Cl3 Cl1- 4 c 0.20462(10) 0.2500 0.13353(17) 1 0 0.0140(4) 
Cl4 Cl1- 4 c 0.58406(10) 0.2500 0.6279(2) 1 0 0.0249(5) 
Cl5 Cl1- 4 c 0.30828(13) 0.2500 0.37044(19) 1 0 0.0260(6) 
O1 O2- 8 d 0.42343(19) 0.0480(7) 0.0118(3) 1 0 0.0153(8) 
O2 O2- 4 c 0.4564(3) 0.2500 0.1716(6) 1 0 0.0222(13) 
O3 O2- 8 d 0.5768(2) -0.0489(7) 0.2745(4) 1 0 0.0220(9) 
O4 O2- 4 c 0.5526(3) -0.2500 0.4392(6) 1 0 0.039(2) 

loop_
_atom_site_aniso_label
_atom_site_aniso_type_symbol
_atom_site_aniso_U_11
_atom_site_aniso_U_22
_atom_site_aniso_U_33
_atom_site_aniso_U_12
_atom_site_aniso_U_13
_atom_site_aniso_U_23
Hg1 Hg2+ 0.00952(16) 0.01221(17) 0.0229(2) 0.000 0.00534(10) 0.000
Hg2 Hg2+ 0.00754(16) 0.01264(16) 0.02063(19) 0.000 -0.00303(9) 0.000
Hg3 Hg2+ 0.01079(18) 0.0262(2) 0.0191(2) 0.000 0.00030(10) 0.000
K1 K1+ 0.0307(12) 0.0216(10) 0.0111(9) 0.000 0.0058(7) 0.000
K2 K1+ 0.0130(7) 0.0176(8) 0.0140(9) 0.000 -0.0025(6) 0.000
K3 K1+ 0.0275(10) 0.0155(8) 0.0132(9) 0.000 -0.0025(7) 0.000
S1 S4+ 0.0078(8) 0.0176(9) 0.0094(9) 0.000 -0.0003(7) 0.000
S2 S4+ 0.0095(8) 0.0118(8) 0.0075(9) 0.000 -0.0001(6) 0.000
Cl1 Cl1- 0.0067(7) 0.0133(9) 0.0236(11) 0.000 -0.0025(7) 0.000
Cl2 Cl1- 0.0097(9) 0.0267(11) 0.0157(10) 0.000 0.0000(6) 0.000
Cl3 Cl1- 0.0079(8) 0.0126(8) 0.0217(10) 0.000 0.0032(7) 0.000
Cl4 Cl1- 0.0111(9) 0.0310(12) 0.0326(13) 0.000 0.0021(8) 0.000
Cl5 Cl1- 0.0443(17) 0.0189(11) 0.0148(11) 0.000 -0.0011(8) 0.000
O1 O2- 0.0143(19) 0.0130(18) 0.018(2) -0.0001(16) 0.0028(15) -0.0049(16)
O2 O2- 0.017(3) 0.030(4) 0.019(3) 0.000 -0.007(2) 0.000
O3 O2- 0.020(2) 0.014(2) 0.032(3) 0.0016(17) -0.0115(19) 0.0031(18)
O4 O2- 0.017(3) 0.088(7) 0.012(3) 0.000 0.004(2) 0.000
#End of data_419261-ICSD


