data_420088-ICSD
#?2014 by Fachinformationszentrum Karlsruhe, and the U.S. Secretary of 
#Commerce on behalf of the United States.  All rights reserved.
_database_code_ICSD                420088
_audit_creation_date               2009/08/01
_chemical_name_systematic          'Dipotassium Zinc Ditelluride'
_chemical_formula_structural       'K2 Zn Te2'
_chemical_formula_sum              'K2 Te2 Zn1'
_publ_section_title
;
Syntheses, crystal and electronic structures of three new potassium 
cadmium(II)/zinc(II) tellurides: K2 Cd2 Te3, K6 Cd Te4 and K2 Zn Te2
;
loop_
_citation_id
_citation_journal_abbrev
_citation_year
_citation_journal_volume
_citation_journal_issue
_citation_page_first
_citation_page_last
_citation_journal_id_ASTM
primary 'Journal of Solid State Chemistry' 2009 182 5 1245 1251 JSSCBI
_publ_author_name
;
Li Minjie;Hu Chunli;Lei Xiaowu;Zhou Yong;Mao Jiang Gao
;
_cell_length_a                     7.303(3)
_cell_length_b                     14.022(5)
_cell_length_c                     6.921(2)
_cell_angle_alpha                  90.00
_cell_angle_beta                   90.00
_cell_angle_gamma                  90.00
_cell_volume                       708.73
_cell_formula_units_Z              4
_symmetry_space_group_name_H-M     'I b a m'
_symmetry_Int_Tables_number        72
_refine_ls_R_factor_all            .0153
loop_
_symmetry_equiv_pos_site_id
_symmetry_equiv_pos_as_xyz
  1	'-x, y, z+.5'
  2	'x, -y, z+.5'
  3	'x, y, -z'
  4	'-x, -y, -z'
  5	'x, -y, -z+.5'
  6	'-x, y, -z+.5'
  7	'-x, -y, z'
  8	'x, y, z'
  9	'-x+.5, y+.5, z'
 10	'x+.5, -y+.5, z'
 11	'x+.5, y+.5, -z+.5'
 12	'-x+.5, -y+.5, -z+.5'
 13	'x+.5, -y+.5, -z'
 14	'-x+.5, y+.5, -z'
 15	'-x+.5, -y+.5, z+.5'
 16	'x+.5, y+.5, z+.5'
loop_
_atom_type_symbol
_atom_type_oxidation_number
K1+	1
Te2-	-2
Zn2+	2
loop_
_atom_site_label
_atom_site_type_symbol
_atom_site_symmetry_multiplicity
_atom_site_Wyckoff_symbol
_atom_site_fract_x
_atom_site_fract_y
_atom_site_fract_z
_atom_site_occupancy
_atom_site_attached_hydrogens
_atom_site_U_iso_or_equiv
Te1 Te2- 8 j 0.19474(3) 0.107090(16) 0.0000 1 0 0.01950(10) 
Zn1 Zn2+ 4 a 0.0000 0.0000 0.2500 1 0 0.01868(14) 
K1 K1+ 8 j 0.17986(12) 0.35786(6) 0.0000 1 0 0.0279(2) 

loop_
_atom_site_aniso_label
_atom_site_aniso_type_symbol
_atom_site_aniso_U_11
_atom_site_aniso_U_22
_atom_site_aniso_U_33
_atom_site_aniso_U_12
_atom_site_aniso_U_13
_atom_site_aniso_U_23
Te1 Te2- 0.02231(15) 0.01957(14) 0.01663(15) -0.00648(7) 0.000 0.000
Zn1 Zn2+ 0.0199(3) 0.0197(3) 0.0164(3) 0.000 0.000 0.000
K1 K1+ 0.0290(4) 0.0259(4) 0.0287(5) -0.0041(3) 0.000 0.000
#End of data_420088-ICSD


