data_108963-ICSD
#?2014 by Fachinformationszentrum Karlsruhe, and the U.S. Secretary of 
#Commerce on behalf of the United States.  All rights reserved.
_database_code_ICSD                108963
_audit_creation_date               2007/04/01
_audit_update_record               2008/02/01
_chemical_name_systematic          'Magnesium Diantimonate'
_chemical_formula_structural       'Mg (Sb2 O6)'
_chemical_formula_sum              'Mg1 O6 Sb2'
_publ_section_title
;
Properties of Sb-compounds with rutile-like structures
;
loop_
_citation_id
_citation_journal_abbrev
_citation_year
_citation_journal_volume
_citation_page_first
_citation_page_last
_citation_journal_id_ASTM
primary 'Acta Chemica Scandinavica, Series A: (28,1974-)'
 1975 29 803 809 ACAPCT
_publ_author_name
;
Donaldson, J.D.;Kjekshus, A.;Nicholson, D.G.;Rakke, T.
;
_cell_length_a                     4.6489(6)
_cell_length_b                     4.6489(6)
_cell_length_c                     9.2334(17)
_cell_angle_alpha                  90.
_cell_angle_beta                   90.
_cell_angle_gamma                  90.
_cell_volume                       199.55
_cell_formula_units_Z              2
_symmetry_space_group_name_H-M     'P 42/m n m'
_symmetry_Int_Tables_number        136
loop_
_symmetry_equiv_pos_site_id
_symmetry_equiv_pos_as_xyz
  1	'-y+.5, x+.5, -z+.5'
  2	'y+.5, -x+.5, -z+.5'
  3	'y, x, -z'
  4	'-y, -x, -z'
  5	'y+.5, -x+.5, z+.5'
  6	'-y+.5, x+.5, z+.5'
  7	'-y, -x, z'
  8	'y, x, z'
  9	'x+.5, -y+.5, -z+.5'
 10	'-x+.5, y+.5, -z+.5'
 11	'x, y, -z'
 12	'-x, -y, -z'
 13	'-x+.5, y+.5, z+.5'
 14	'x+.5, -y+.5, z+.5'
 15	'-x, -y, z'
 16	'x, y, z'
loop_
_atom_type_symbol
_atom_type_oxidation_number
Mg2+	2
O2-	-2
Sb5+	5
loop_
_atom_site_label
_atom_site_type_symbol
_atom_site_symmetry_multiplicity
_atom_site_Wyckoff_symbol
_atom_site_fract_x
_atom_site_fract_y
_atom_site_fract_z
_atom_site_occupancy
_atom_site_attached_hydrogens
Mg1 Mg2+ 2 a 0 0 0 1. 0 
Sb1 Sb5+ 4 e 0 0 0.333 1. 0 
O1 O2- 4 f 0.305 0.305 0 1. 0 
O2 O2- 8 j 0.303 0.303 0.328 1. 0 

#End of data_108963-ICSD


