data_174514-ICSD
#?2014 by Fachinformationszentrum Karlsruhe, and the U.S. Secretary of 
#Commerce on behalf of the United States.  All rights reserved.
_database_code_ICSD                174514
_audit_creation_date               2011/02/01
_chemical_name_systematic
;
Dipotassium Diaqua Dodecafluoro-closo-dodecaborate
;
_chemical_formula_structural       'K2 (H2 O)2 B12 F12'
_chemical_formula_sum              'H4 B12 F12 K2 O2'
_publ_section_title
;
Latent porosity in potassium dodecafluoro-closo-dodecaborate(2-). 
Structures and rapid room temperature interconversions of crystalline 
K2 B12 F12, K2 (H2 O)2 B12 F12, and K2 (H2 O)4 B12 F12 in the 
presence of water vapor
;
loop_
_citation_id
_citation_journal_abbrev
_citation_year
_citation_journal_volume
_citation_journal_issue
_citation_page_first
_citation_page_last
_citation_journal_id_ASTM
primary 'Journal of the American Chemical Society' 2010 132 39 13902 13913 JACSAT
_publ_author_name
;
Peryshkov, D.V.;Popov, A.A.;Strauss, S.H.
;
_cell_length_a                     7.2955(2)
_cell_length_b                     11.2522(3)
_cell_length_c                     9.2269(2)
_cell_angle_alpha                  90.00
_cell_angle_beta                   103.7300(10)
_cell_angle_gamma                  90.00
_cell_volume                       735.8
_cell_formula_units_Z              2
_symmetry_space_group_name_H-M     'P 1 21/c 1'
_symmetry_Int_Tables_number        14
_refine_ls_R_factor_all            .0198
loop_
_symmetry_equiv_pos_site_id
_symmetry_equiv_pos_as_xyz
  1	'x, -y+.5, z+.5'
  2	'-x, -y, -z'
  3	'-x, y+.5, -z+.5'
  4	'x, y, z'
loop_
_atom_type_symbol
_atom_type_oxidation_number
B.8333+	.8333
F1-	-1
H1+	1
K1+	1
O2-	-2
loop_
_atom_site_label
_atom_site_type_symbol
_atom_site_symmetry_multiplicity
_atom_site_Wyckoff_symbol
_atom_site_fract_x
_atom_site_fract_y
_atom_site_fract_z
_atom_site_occupancy
_atom_site_attached_hydrogens
_atom_site_U_iso_or_equiv
F1 F1- 4 e 0.26985(6) 0.34027(4) 0.25076(4) 1 0 0.01538(8) 
F2 F1- 4 e 0.12731(5) 0.38978(4) 0.53518(5) 1 0 0.01551(8) 
F3 F1- 4 e 0.14047(5) 0.60645(4) 0.29474(4) 1 0 0.01570(8) 
F4 F1- 4 e 0.52147(6) 0.57257(4) 0.18072(4) 1 0 0.01567(7) 
F5 F1- 4 e 0.74234(6) 0.33769(3) 0.34607(4) 1 0 0.01432(7) 
F6 F1- 4 e 0.48829(5) 0.23167(3) 0.56015(4) 1 0 0.01397(7) 
B1 B.8333+ 4 e 0.37963(9) 0.41295(6) 0.35882(7) 1 0 0.01082(10) 
B2 B.8333+ 4 e 0.29213(8) 0.44362(6) 0.52085(7) 1 0 0.01057(10) 
B3 B.8333+ 4 e 0.29967(8) 0.55955(6) 0.38878(7) 1 0 0.01078(10) 
B4 B.8333+ 4 e 0.51098(9) 0.53891(6) 0.32289(7) 1 0 0.01088(10) 
B5 B.8333+ 4 e 0.63419(8) 0.41030(6) 0.41340(7) 1 0 0.01058(10) 
B6 B.8333+ 4 e 0.49786(9) 0.35249(5) 0.53557(7) 1 0 0.01067(10) 
O1 O2- 4 e 0.83093(8) 0.08887(5) 0.56019(6) 1 0 0.02050(10) 
H1 H1+ 4 e 0.7250(19) 0.1067(11) 0.5006(14) 1 0 0.031 
H2 H1+ 4 e 0.8253(19) 0.1167(12) 0.6484(15) 1 0 0.031 
K1 K1+ 4 e 0.12734(2) 0.155989(13) 0.438109(15) 1 0 0.01907(4) 

loop_
_atom_site_aniso_label
_atom_site_aniso_type_symbol
_atom_site_aniso_U_11
_atom_site_aniso_U_22
_atom_site_aniso_U_33
_atom_site_aniso_U_12
_atom_site_aniso_U_13
_atom_site_aniso_U_23
F1 F1- 0.01298(16) 0.01976(18) 0.01206(15) -0.00294(12) 0.00033(12) 
-0.00613(12)
F2 F1- 0.00928(15) 0.01791(17) 0.02066(18) -0.00301(12) 0.00616(13) 
0.00038(13)
F3 F1- 0.00970(15) 0.02380(19) 0.01218(15) 0.00378(13) -0.00023(12) 
0.00356(13)
F4 F1- 0.01724(17) 0.02226(18) 0.00840(14) 0.00188(13) 0.00482(12) 
0.00361(12)
F5 F1- 0.01288(16) 0.01806(17) 0.01322(16) 0.00256(12) 0.00547(12) 
-0.00270(12)
F6 F1- 0.01481(16) 0.01186(15) 0.01572(16) -0.00067(12) 0.00462(12) 
0.00108(12)
B1 B.8333+ 0.0088(2) 0.0147(2) 0.0086(2) -0.00106(18) 0.00129(17) 
-0.00158(18)
B2 B.8333+ 0.0079(2) 0.0140(2) 0.0101(2) -0.00086(18) 0.00273(17) 
-0.00009(18)
B3 B.8333+ 0.0083(2) 0.0148(2) 0.0087(2) 0.00059(18) 0.00103(17) 
0.00048(18)
B4 B.8333+ 0.0098(2) 0.0152(2) 0.0078(2) -0.00001(18) 0.00253(17) 
0.00074(18)
B5 B.8333+ 0.0090(2) 0.0140(2) 0.0090(2) 0.00031(17) 0.00282(17) 
-0.00047(18)
B6 B.8333+ 0.0094(2) 0.0127(2) 0.0101(2) -0.00040(17) 0.00271(18) 
0.00032(18)
O1 O2- 0.0180(2) 0.0249(2) 0.0191(2) 0.00337(18) 0.00535(17) -0.00138(18)
K1 K1+ 0.01899(7) 0.01943(7) 0.01594(7) -0.00805(4) -0.00150(5) 0.00015(4)
#End of data_174514-ICSD


