data_16769-ICSD
#?2014 by Fachinformationszentrum Karlsruhe, and the U.S. Secretary of 
#Commerce on behalf of the United States.  All rights reserved.
_database_code_ICSD                16769
_audit_creation_date               1980/01/01
_audit_update_record               1999/01/19
_chemical_name_systematic
;
Hydrogen Iron Aluminium Silicon Oxide (1/2/9/4/24)
;
_chemical_formula_structural       'H Fe2 Al9 Si4 O24'
_chemical_formula_sum              'H1 Al9 Fe2 O24 Si4'
_chemical_name_mineral             Staurolite
_publ_section_title
;
On the structure of staurolite, H Fe2 Al9 Si4 O24
;
loop_
_citation_id
_citation_journal_abbrev
_citation_year
_citation_journal_volume
_citation_page_first
_citation_page_last
_citation_journal_id_ASTM
primary 'Acta Crystallographica (1,1948-23,1967)' 1958 11 862 865 ACCRA9
2
;
Zeitschrift fuer Kristallographie, Kristallgeometrie, Kristallphysik, 
Kristallchemie (-144,1977)
;
 1929 71 103 116 ZEKGAX
_publ_author_name                  'Naray-Szabo, I.;Sasvari, K.'
_cell_length_a                     7.82
_cell_length_b                     16.51999
_cell_length_c                     5.63
_cell_angle_alpha                  90.
_cell_angle_beta                   90.1
_cell_angle_gamma                  90.
_cell_volume                       727.32
_cell_formula_units_Z              2
_symmetry_space_group_name_H-M     'C 1 2/m 1'
_symmetry_Int_Tables_number        12
loop_
_symmetry_equiv_pos_site_id
_symmetry_equiv_pos_as_xyz
  1	'-x, y, -z'
  2	'-x, -y, -z'
  3	'x, -y, z'
  4	'x, y, z'
  5	'-x+.5, y+.5, -z'
  6	'-x+.5, -y+.5, -z'
  7	'x+.5, -y+.5, z'
  8	'x+.5, y+.5, z'
loop_
_atom_type_symbol
_atom_type_oxidation_number
Al3+	3
Fe2+	2
H1+	1
O2-	-2
Si4+	4
loop_
_atom_site_label
_atom_site_type_symbol
_atom_site_symmetry_multiplicity
_atom_site_Wyckoff_symbol
_atom_site_fract_x
_atom_site_fract_y
_atom_site_fract_z
_atom_site_occupancy
_atom_site_attached_hydrogens
Fe1 Fe2+ 4 i 0.389 0 0.25 1. 0 
Si1 Si4+ 8 j 0.125 0.167 0.27 1. 0 
Al1 Al3+ 4 g 0 0.322 0 1. 0 
Al2 Al3+ 4 h 0 0.322 0.5 1. 0 
Al3 Al3+ 8 j 0.25 0.408 0.25 1. 0 
Al4 Al3+ 2 a 0 0 0 1. 0 
O1 O2- 4 i 0.222 0 0.98 1. 0 
O2 O2- 4 i 0.222 0 0.52 1. 0 
O3 O2- 8 j 0.237 0.158 0.02 1. 0 
O4 O2- 8 j 0.763 0.158 0.52 1. 0 
O5 O2- 8 j 0 0.094 0.27 1. 0 
O6 O2- 8 j 0 0.25 0.23 1. 0 
O7 O2- 8 j 0 0.394 0.23 1. 0 
H1 H1+ 2 c 0 0 0.5 1. 0 

#End of data_16769-ICSD


