data_413830-ICSD
#?2014 by Fachinformationszentrum Karlsruhe, and the U.S. Secretary of 
#Commerce on behalf of the United States.  All rights reserved.
_database_code_ICSD                413830
_audit_creation_date               2005/10/01
_chemical_name_systematic
;
Tetrazinc Dipyrophosphate Decahydrate
;
_chemical_formula_structural       'Zn4 (P2 O7)2 (H2 O)10'
_chemical_formula_sum              'H20 O24 P4 Zn4'
_publ_section_title
;
Crystal structure, vibrational spectra and thermal decomposition of a 
 new tetrazinc(II) dipyrophosphate decahydrate, Zn4 (P2 O7)2.10H2 O
;
loop_
_citation_id
_citation_journal_abbrev
_citation_year
_citation_journal_volume
_citation_journal_issue
_citation_page_first
_citation_page_last
_citation_journal_id_ASTM
primary 'Journal of Chemical Crystallography' 2005 35 1 49 59 JCCYEV
_publ_author_name
;
Assaaoudi, H.;Butler, I.S.;Kozinski, J.;Belanger-Gariepy, F.
;
_cell_length_a                     9.1508(2)
_cell_length_b                     25.5271(5)
_cell_length_c                     8.3574(2)
_cell_angle_alpha                  90.00
_cell_angle_beta                   90.00
_cell_angle_gamma                  90.00
_cell_volume                       1952.23
_cell_formula_units_Z              4
_symmetry_space_group_name_H-M     'P n m a'
_symmetry_Int_Tables_number        62
_refine_ls_R_factor_all            .0598
loop_
_symmetry_equiv_pos_site_id
_symmetry_equiv_pos_as_xyz
  1	'x+.5, y, -z+.5'
  2	'x, -y+.5, z'
  3	'-x+.5, y+.5, z+.5'
  4	'-x, -y, -z'
  5	'-x+.5, -y, z+.5'
  6	'-x, y+.5, -z'
  7	'x+.5, -y+.5, -z+.5'
  8	'x, y, z'
loop_
_atom_type_symbol
_atom_type_oxidation_number
H1+	1
O2-	-2
P5+	5
Zn2+	2
loop_
_atom_site_label
_atom_site_type_symbol
_atom_site_symmetry_multiplicity
_atom_site_Wyckoff_symbol
_atom_site_fract_x
_atom_site_fract_y
_atom_site_fract_z
_atom_site_occupancy
_atom_site_attached_hydrogens
_atom_site_U_iso_or_equiv
Zn1 Zn2+ 8 d 0.52811(7) 0.54474(2) 0.14163(8) 1 0 0.01299(15) 
Zn2 Zn2+ 4 a 0.5000 0.5000 0.5000 1 0 0.0144(2) 
Zn3 Zn2+ 4 c 0.99906(10) 0.2500 0.54885(12) 1 0 0.0194(2) 
P1 P5+ 8 d 0.77429(12) 0.46336(4) 0.29998(14) 1 0 0.0103(2) 
P2 P5+ 8 d 0.68416(12) 0.39359(4) 0.55392(14) 1 0 0.0121(2) 
O1 O2- 8 d 0.6251(4) 0.33876(13) 0.5481(4) 1 0 0.0185(8) 
O2 O2- 8 d 0.6379(3) 0.49784(12) 0.3019(4) 1 0 0.0130(7) 
O3 O2- 8 d 0.8327(4) 0.45227(12) 0.1342(4) 1 0 0.0135(7) 
O4 O2- 8 d 0.8902(3) 0.48338(12) 0.4153(4) 1 0 0.0119(7) 
O5 O2- 8 d 0.8269(4) 0.39608(12) 0.6460(4) 1 0 0.0154(7) 
O6 O2- 8 d 0.5756(4) 0.43451(12) 0.6126(4) 1 0 0.0149(7) 
O7 O2- 8 d 0.7222(4) 0.40736(12) 0.3687(4) 1 0 0.0148(7) 
O8 O2- 8 d 0.36877(2) 0.595126(15) 0.05136(2) 1 0 0.0239(9) 
H1 H1+ 8 d 0.32117(9) 0.57688(5) -0.01033(17) 1 0 0.036 
H2 H1+ 8 d 0.32440(8) 0.5937(5) 0.13650(8) 1 0 0.036 
O9 O2- 4 c 1.21906(3) 0.2500 0.60769(7) 1 0 0.060(2) 
H3 H1+ 8 d 1.26392(9) 0.22452(3) 0.5737(3) 1 0 0.090 
O10 O2- 4 c 0.78368(2) 0.2500 0.46468(8) 1 0 0.0218(12) 
H4 H1+ 8 d 0.73728(8) 0.27549(3) 0.4961(3) 1 0 0.033 
O11 O2- 8 d 0.94862(2) 0.305144(7) 0.72203(5) 1 0 0.0348(10) 
H5 H1+ 8 d 1.01818(6) 0.31343(11) 0.77846(16) 1 0 0.052 
H6 H1+ 8 d 0.91797(13) 0.33295(3) 0.6861(2) 1 0 0.052 
O12 O2- 8 d 1.05335(2) 0.310043(7) 0.38780(5) 1 0 0.0502(13) 
H7 H1+ 8 d 1.07967(13) 0.33659(3) 0.43491(17) 1 0 0.075 
H8 H1+ 8 d 0.98211(6) 0.31916(11) 0.33520(19) 1 0 0.075 
O13 O2- 8 d 0.876762(17) 0.330160(8) 0.13568(9) 1 0 0.0538(15) 
H9 H1+ 8 d 0.9030(2) 0.35775(4) 0.0945(3) 1 0 0.081 
H10 H1+ 8 d 0.78721(3) 0.3312(5) 0.135(4) 1 0 0.081 

loop_
_atom_site_aniso_label
_atom_site_aniso_type_symbol
_atom_site_aniso_U_11
_atom_site_aniso_U_22
_atom_site_aniso_U_33
_atom_site_aniso_U_12
_atom_site_aniso_U_13
_atom_site_aniso_U_23
Zn1 Zn2+ 0.0148(3) 0.0115(3) 0.0126(3) -0.0012(2) -0.0013(2) 0.0014(2)
Zn2 Zn2+ 0.0172(4) 0.0145(4) 0.0116(4) 0.0046(3) 0.0033(3) 0.0038(3)
Zn3 Zn2+ 0.0202(5) 0.0183(4) 0.0197(5) 0.000 -0.0015(4) 0.000
P1 P5+ 0.0118(5) 0.0090(5) 0.0100(5) -0.0001(4) -0.0003(4) 0.0001(4)
P2 P5+ 0.0141(5) 0.0096(5) 0.0125(5) 0.0009(4) 0.0010(4) 0.0024(4)
O1 O2- 0.0198(16) 0.0169(16) 0.0189(18) -0.0033(13) 0.0030(14) 0.0035(14)
O2 O2- 0.0143(14) 0.0149(15) 0.0098(15) 0.0037(12) 0.0024(12) 0.0028(13)
O3 O2- 0.0153(15) 0.0139(14) 0.0112(16) 0.0001(12) -0.0012(13) -0.0012(13)
O4 O2- 0.0151(14) 0.0115(14) 0.0091(15) -0.0033(12) 0.0009(13) 0.0027(12)
O5 O2- 0.0187(16) 0.0117(14) 0.0157(17) 0.0000(12) -0.0036(13) 0.0012(13)
O6 O2- 0.0163(15) 0.0136(14) 0.0148(16) 0.0035(13) 0.0030(13) 0.0042(13)
O7 O2- 0.0197(16) 0.0091(14) 0.0157(16) -0.0003(12) -0.0011(13) -0.0018(12)
O8 O2- 0.035(2) 0.0182(17) 0.0189(18) 0.0043(15) -0.0130(16) -0.0017(15)
O9 O2- 0.020(3) 0.104(6) 0.056(5) 0.000 -0.002(3) 0.000
O10 O2- 0.018(2) 0.015(2) 0.032(3) 0.000 0.001(2) 0.000
O11 O2- 0.050(2) 0.0148(16) 0.040(2) 0.0091(17) -0.029(2) -0.0079(17)
O12 O2- 0.057(3) 0.054(3) 0.040(3) -0.029(2) -0.024(2) 0.026(2)
O13 O2- 0.034(2) 0.081(4) 0.046(3) -0.016(3) -0.010(2) 0.027(3)
#End of data_413830-ICSD


