data_49016-ICSD
#?2014 by Fachinformationszentrum Karlsruhe, and the U.S. Secretary of 
#Commerce on behalf of the United States.  All rights reserved.
_database_code_ICSD                49016
_audit_creation_date               1985/06/11
_audit_update_record               2008/02/01
_chemical_name_systematic          'Sodium Antimony Sulfide - Beta'
_chemical_formula_structural       'Na Sb S2'
_chemical_formula_sum              'Na1 S2 Sb1'
_publ_section_title                'Die Kristallstruktur von Na Sb S2'
loop_
_citation_id
_citation_journal_abbrev
_citation_year
_citation_journal_volume
_citation_page_first
_citation_page_last
_citation_journal_id_ASTM
primary
;
Zeitschrift fuer Naturforschung, Teil B. Anorganische Chemie, 
Organische Chemie (33,1978-41,1986)
;
 1978 33 827 828 ZNBAD2
_publ_author_name                  'Volk, K.;Schaefer, H.'
_cell_length_a                     12.84(2)
_cell_length_b                     5.825(8)
_cell_length_c                     5.813(3)
_cell_angle_alpha                  90.
_cell_angle_beta                   118.74(7)
_cell_angle_gamma                  90.
_cell_volume                       381.21
_cell_formula_units_Z              4
_symmetry_space_group_name_H-M     'C 1 2/m 1'
_symmetry_Int_Tables_number        12
_refine_ls_R_factor_all            .107
loop_
_symmetry_equiv_pos_site_id
_symmetry_equiv_pos_as_xyz
  1	'-x, y, -z'
  2	'-x, -y, -z'
  3	'x, -y, z'
  4	'x, y, z'
  5	'-x+.5, y+.5, -z'
  6	'-x+.5, -y+.5, -z'
  7	'x+.5, -y+.5, z'
  8	'x+.5, y+.5, z'
loop_
_atom_type_symbol
_atom_type_oxidation_number
Na1+	1
S2-	-2
Sb3+	3
loop_
_atom_site_label
_atom_site_type_symbol
_atom_site_symmetry_multiplicity
_atom_site_Wyckoff_symbol
_atom_site_fract_x
_atom_site_fract_y
_atom_site_fract_z
_atom_site_occupancy
_atom_site_attached_hydrogens
_atom_site_U_iso_or_equiv
Sb1 Sb3+ 4 i 0.8764(8) 0 0.141(1) 1. 0 0 
S1 S2- 4 i 0.366(2) 0 0.095(4) 1. 0 0.005(6) 
S2 S2- 4 i 0.119(2) 0 0.435(4) 1. 0 0.011(7) 
Na1 Na1+ 4 i 0.379(3) 0 0.598(7) 1. 0 0.07(2) 

loop_
_atom_site_aniso_label
_atom_site_aniso_type_symbol
_atom_site_aniso_U_11
_atom_site_aniso_U_22
_atom_site_aniso_U_33
_atom_site_aniso_U_12
_atom_site_aniso_U_13
_atom_site_aniso_U_23
Sb1 Sb3+ 0.013(2) 0.04(1) 0.05(2) 0.00(2) 0 0
#End of data_49016-ICSD


