data_69650-ICSD
#?2014 by Fachinformationszentrum Karlsruhe, and the U.S. Secretary of 
#Commerce on behalf of the United States.  All rights reserved.
_database_code_ICSD                69650
_audit_creation_date               1994/01/19
_chemical_name_systematic          'Sodium Gallium Bromide'
_chemical_formula_structural       'Na Ga Br4'
_chemical_formula_sum              'Br4 Ga1 Na1'
_publ_section_title
;
Ternaere Bromide des Aluminiums, Galliums und Indiums vom Typ 
A(I)M(III)Br4 (A(I)=Na,Ga,K,In,Rb). Eine Uebersicht.
;
loop_
_citation_id
_citation_journal_abbrev
_citation_year
_citation_journal_volume
_citation_page_first
_citation_page_last
_citation_journal_id_ASTM
primary 'Zeitschrift fuer Anorganische und Allgemeine Chemie (1950) (DE)'
 1990 585 38 48 ZAACAB
_publ_author_name                  'Staffel, T.;Meyer, G.'
_cell_length_a                     14.044(1)
_cell_length_b                     7.452(1)
_cell_length_c                     7.449(1)
_cell_angle_alpha                  90.
_cell_angle_beta                   90.
_cell_angle_gamma                  90.
_cell_volume                       779.58
_cell_formula_units_Z              4
_symmetry_space_group_name_H-M     'P n m a'
_symmetry_Int_Tables_number        62
_refine_ls_R_factor_all            .139
loop_
_symmetry_equiv_pos_site_id
_symmetry_equiv_pos_as_xyz
  1	'x+.5, y, -z+.5'
  2	'x, -y+.5, z'
  3	'-x+.5, y+.5, z+.5'
  4	'-x, -y, -z'
  5	'-x+.5, -y, z+.5'
  6	'-x, y+.5, -z'
  7	'x+.5, -y+.5, -z+.5'
  8	'x, y, z'
loop_
_atom_type_symbol
_atom_type_oxidation_number
Br1-	-1
Ga3+	3
Na1+	1
loop_
_atom_site_label
_atom_site_type_symbol
_atom_site_symmetry_multiplicity
_atom_site_Wyckoff_symbol
_atom_site_fract_x
_atom_site_fract_y
_atom_site_fract_z
_atom_site_occupancy
_atom_site_attached_hydrogens
_atom_site_U_iso_or_equiv
Na1 Na1+ 4 c 0.6511(11) 0.25 0.0513(21) 1. 0 0.0774(52) 
Ga1 Ga3+ 4 c 0.3987(3) 0.25 0.2042(5) 1. 0 0 
Br1 Br1- 4 c 0.5331(2) 0.25 0.3790(5) 1. 0 0 
Br2 Br1- 4 c 0.4429(2) 0.25 0.9043(5) 1. 0 0 
Br3 Br1- 8 d 0.8031(2) 0.0018(3) 0.2344(3) 1. 0 0 

loop_
_atom_site_aniso_label
_atom_site_aniso_type_symbol
_atom_site_aniso_U_11
_atom_site_aniso_U_22
_atom_site_aniso_U_33
_atom_site_aniso_U_12
_atom_site_aniso_U_13
_atom_site_aniso_U_23
Ga1 Ga3+ 0.0276(22) 0.0232(23) 0.0352(22) -.0023(19) 0 0
Br1 Br1- 0.0391(25) 0.0736(38) 0.0470(24) -.0167(19) 0 0
Br2 Br1- 0.0479(26) 0.0640(33) 0.0362(21) 0.0059(20) 0 0
Br3 Br1- 0.0511(15) 0.0372(13) 0.0630(16) -.0100(14) -.0107(14) -.0036(16)
#End of data_69650-ICSD


