data_81377-ICSD
#?2014 by Fachinformationszentrum Karlsruhe, and the U.S. Secretary of 
#Commerce on behalf of the United States.  All rights reserved.
_database_code_ICSD                81377
_audit_creation_date               1997/11/05
_audit_update_record               2012/02/01
_chemical_name_systematic
;
Dipotassium Uranium(IV) Nonaselenotriphoshate(IV)
;
_chemical_formula_structural       'K2 U (P3 Se9)'
_chemical_formula_sum              'K2 P3 Se9 U1'
_publ_section_title
;
Synthesis and characterization of K2 U P3 Se9. The first actinide 
selenophosphate
;
loop_
_citation_id
_citation_journal_abbrev
_citation_year
_citation_journal_volume
_citation_page_first
_citation_page_last
_citation_journal_id_ASTM
primary
;
Comptes Rendus Hebdomadaires des Seances de l`Academie des Sciences, 
Ser. II (1994-)
;
 1996 322 887 894 CMCAEK
_publ_author_name                  'Chondroudis, K.;Kanatzidis, M.G.'
_cell_length_a                     10.407(3)
_cell_length_b                     16.491(7)
_cell_length_c                     10.143(3)
_cell_angle_alpha                  107.51(3)
_cell_angle_beta                   91.74(2)
_cell_angle_gamma                  90.28(3)
_cell_volume                       1659.16
_cell_formula_units_Z              4
_symmetry_space_group_name_H-M     'P -1'
_symmetry_Int_Tables_number        2
loop_
_symmetry_equiv_pos_site_id
_symmetry_equiv_pos_as_xyz
  1	'-x, -y, -z'
  2	'x, y, z'
loop_
_atom_type_symbol
_atom_type_oxidation_number
K1+	1
P4+	4
Se2-	-2
U4+	4
loop_
_atom_site_label
_atom_site_type_symbol
_atom_site_symmetry_multiplicity
_atom_site_Wyckoff_symbol
_atom_site_fract_x
_atom_site_fract_y
_atom_site_fract_z
_atom_site_occupancy
_atom_site_attached_hydrogens
_atom_site_B_iso_or_equiv
U1 U4+ 2 i 0.78020(8) 0.16846(6) 0.2223(8) 1. 0 0.71(3) 
U2 U4+ 2 i 0.72235(8) 0.22327(6) 0.80589(8) 1. 0 0.63(3) 
Se1 Se2- 2 i 0.7423(2) -.0158(2) 0.0096(2) 1. 0 0.90(8) 
Se2 Se2- 2 i 0.0111(2) 0.0671(2) 0.2754(2) 1. 0 0.88(8) 
Se3 Se2- 2 i 0.9324(2) 0.1484(1) -.0338(2) 1. 0 0.78(8) 
Se4 Se2- 2 i 0.9479(2) 0.3149(2) 0.3499(2) 1. 0 1.08(9) 
Se5 Se2- 2 i 0.8748(2) 0.1715(2) 0.5345(2) 1. 0 1.17(9) 
Se6 Se2- 2 i 0.2055(2) 0.2746(2) 0.5758(2) 1. 0 1.6(1) 
Se7 Se2- 2 i 0.9820(2) 0.3115(2) 0.8756(2) 1. 0 1.19(9) 
Se8 Se2- 2 i 0.9822(2) 0.5001(2) 0.2510(3) 1. 0 1.8(1) 
Se9 Se2- 2 i 0.7222(2) 0.3751(2) 0.7094(2) 1. 0 1.26(9) 
Se10 Se2- 2 i 0.7302(2) 0.0326(2) 0.6427(2) 1. 0 1.11(9) 
Se11 Se2- 2 i 0.6180(2) 0.0359(2) 0.2933(2) 1. 0 1.00(9) 
Se12 Se2- 2 i 0.4898(2) 0.1748(2) 0.6224(2) 1. 0 0.84(8) 
Se13 Se2- 2 i 0.5835(2) 0.2809(2) 0.3736(2) 1. 0 0.98(8) 
Se14 Se2- 2 i 0.7706(2) 0.3260(2) 0.1073(2) 1. 0 0.88(8) 
Se15 Se2- 2 i 0.5319(2) 0.4800(2) 0.2841(2) 1. 0 1.5(1) 
Se16 Se2- 2 i 0.7391(2) 0.7221(2) 0.8918(2) 1. 0 1.6(1) 
Se17 Se2- 2 i 0.5591(2) 0.1483(2) -.0071(2) 1. 0 0.84(8) 
Se18 Se2- 2 i 0.4938(2) 0.3341(2) 0.8873(2) 1. 0 1.3(1) 
K1 K1+ 2 i 0.7600(6) 0.5487(4) 0.5523(6) 1. 0 2.7(3) 
K2 K1+ 2 i 0.6699(5) 0.8498(4) 0.7035(5) 1. 0 1.6(2) 
K3 K1+ 2 i 0.2469(6) 0.4664(4) 0.9717(6) 1. 0 2.7(2) 
K4 K1+ 2 i 0.1861(6) 0.1333(5) 0.7513(7) 1. 0 3.2(3) 
P1 P4+ 2 i 0.9233(5) 0.0086(4) -.0733(6) 1. 0 0.7(2) 
P2 P4+ 2 i 0.0027(5) 0.2822(4) 0.5381(6) 1. 0 0.8(2) 
P3 P4+ 2 i 0.9333(6) 0.3778(4) 0.7235(6) 1. 0 1.1(2) 
P4 P4+ 2 i 0.5719(5) 0.0536(4) 0.5103(6) 1. 0 0.8(2) 
P5 P4+ 2 i 0.5857(6) 0.3491(4) 0.2193(6) 1. 0 1.0(2) 
P6 P4+ 2 i 0.4560(5) 0.2735(4) 0.0478(6) 1. 0 1.0(2) 

#End of data_81377-ICSD


