data_202010-ICSD
#?2014 by Fachinformationszentrum Karlsruhe, and the U.S. Secretary of 
#Commerce on behalf of the United States.  All rights reserved.
_database_code_ICSD                202010
_audit_creation_date               1988/12/19
_audit_update_record               2008/02/01
_chemical_name_systematic          'Potassium Yttrium Tetraamide'
_chemical_formula_structural       'K Y (N H2)4'
_chemical_formula_sum              'H8 K1 N4 Y1'
_publ_section_title
;
Uebergang von dichter Anionenpackung zu perowskitartiger Struktur bei 
Kalium- und Rubidiumamidoyttriat K Y (N H2)4 und Rb Y (N H2)4
;
loop_
_citation_id
_citation_journal_abbrev
_citation_year
_citation_journal_volume
_citation_page_first
_citation_page_last
_citation_journal_id_ASTM
primary 'Journal of the Less-Common Metals' 1986 119 99 113 JCOMAH
_publ_author_name                  'Jacobs, H.;Peters, D.'
_cell_length_a                     7.199(2)
_cell_length_b                     16.6920(20)
_cell_length_c                     5.989(1)
_cell_angle_alpha                  90.
_cell_angle_beta                   120.26(1)
_cell_angle_gamma                  90.
_cell_volume                       621.62
_cell_formula_units_Z              4
_symmetry_space_group_name_H-M     'C 1 2/c 1'
_symmetry_Int_Tables_number        15
_refine_ls_R_factor_all            .024
loop_
_symmetry_equiv_pos_site_id
_symmetry_equiv_pos_as_xyz
  1	'x, -y, z+.5'
  2	'-x, -y, -z'
  3	'-x, y, -z+.5'
  4	'x, y, z'
  5	'x+.5, -y+.5, z+.5'
  6	'-x+.5, -y+.5, -z'
  7	'-x+.5, y+.5, -z+.5'
  8	'x+.5, y+.5, z'
loop_
_atom_type_symbol
_atom_type_oxidation_number
H1+	1
K1+	1
N3-	-3
Y3+	3
loop_
_atom_site_label
_atom_site_type_symbol
_atom_site_symmetry_multiplicity
_atom_site_Wyckoff_symbol
_atom_site_fract_x
_atom_site_fract_y
_atom_site_fract_z
_atom_site_occupancy
_atom_site_attached_hydrogens
_atom_site_B_iso_or_equiv
Y1 Y3+ 4 e 0 0.06508(3) 0.25 1. 0 0 
K1 K1+ 4 e 0 0.30492(1) 0.25 1. 0 0 
N1 N3- 8 f 0.2135(5) 0.1629(2) 0.2088(6) 1. 0 0 
N2 N3- 8 f 0.2881(5) 0.4555(2) 0.2936(5) 1. 0 0 
H1 H1+ 8 f 0.332(8) 0.147(4) 0.218(10) 1. 0 4.(1) 
H2 H1+ 8 f 0.169(9) 0.190(4) 0.072(11) 1. 0 5.(2) 
H3 H1+ 8 f 0.290(9) 0.417(4) 0.168(11) 1. 0 6.(2) 
H4 H1+ 8 f 0.152(7) 0.476(3) 0.22 1. 0 3.(1) 

loop_
_atom_site_aniso_label
_atom_site_aniso_type_symbol
_atom_site_aniso_U_11
_atom_site_aniso_U_22
_atom_site_aniso_U_33
_atom_site_aniso_U_12
_atom_site_aniso_U_13
_atom_site_aniso_U_23
Y1 Y3+ 0.0217(1) 0.0169(2) 0.0118(1) 0 0.00781(7) 0
K1 K1+ 0.0373(6) 0.0267(6) 0.0335(5) 0 0.0024(5) 0
N1 N3- 0.040(1) 0.031(2) 0.033(1) -.009(1) 0.0232(8) -.003(1)
N2 N3- 0.023(1) 0.026(2) 0.0155(9) -.004(1) 0.0073(7) -.002(1)
#End of data_202010-ICSD


