data_425125-ICSD
#?2014 by Fachinformationszentrum Karlsruhe, and the U.S. Secretary of 
#Commerce on behalf of the United States.  All rights reserved.
_database_code_ICSD                425125
_audit_creation_date               2013/02/01
_chemical_name_systematic          'Trisodium Antimony Triselenide'
_chemical_formula_structural       'Na3 Sb Se3'
_chemical_formula_sum              'Na3 Sb1 Se3'
_publ_section_title
;
Na3 Sb Se3: synthesis, crystal structure determination, Raman 
spectroscopy and ionic conductivity
;
loop_
_citation_id
_citation_journal_abbrev
_citation_year
_citation_journal_volume
_citation_journal_issue
_citation_page_first
_citation_page_last
_citation_journal_id_ASTM
primary 'Zeitschrift fuer Anorganische und Allgemeine Chemie (1950) (DE)'
 2012 638 12-13 2158 2162 ZAACAB
_publ_author_name                  'Pompe, C.;Pfitzner, A.'
_cell_length_a                     9.0227(2)
_cell_length_b                     9.0227(2)
_cell_length_c                     9.0227(2)
_cell_angle_alpha                  90.00
_cell_angle_beta                   90.00
_cell_angle_gamma                  90.00
_cell_volume                       734.53
_cell_formula_units_Z              4
_symmetry_space_group_name_H-M     'P 21 3'
_symmetry_Int_Tables_number        198
_refine_ls_R_factor_all            .0243
loop_
_symmetry_equiv_pos_site_id
_symmetry_equiv_pos_as_xyz
  1	'-z+.5, -x, y+.5'
  2	'-y+.5, -z, x+.5'
  3	'-x+.5, -y, z+.5'
  4	'-z, x+.5, -y+.5'
  5	'-y, z+.5, -x+.5'
  6	'-x, y+.5, -z+.5'
  7	'z+.5, -x+.5, -y'
  8	'y+.5, -z+.5, -x'
  9	'x+.5, -y+.5, -z'
 10	'z, x, y'
 11	'y, z, x'
 12	'x, y, z'
loop_
_atom_type_symbol
_atom_type_oxidation_number
Na1+	1
Sb3+	3
Se2-	-2
loop_
_atom_site_label
_atom_site_type_symbol
_atom_site_symmetry_multiplicity
_atom_site_Wyckoff_symbol
_atom_site_fract_x
_atom_site_fract_y
_atom_site_fract_z
_atom_site_occupancy
_atom_site_attached_hydrogens
_atom_site_U_iso_or_equiv
Sb1 Sb3+ 4 a 0.03605(4) 0.03605(4) 0.03605(4) 1 0 0.00845(17) 
Se1 Se2- 12 b 0.23652(6) 0.61312(6) 0.50125(6) 1 0 0.00997(15) 
Na1 Na1+ 4 a 0.5815(3) 0.5815(3) 0.5815(3) 1 0 0.0177(10) 
Na2 Na1+ 4 a 0.3218(3) 0.3218(3) 0.3218(3) 1 0 0.0136(9) 
Na3 Na1+ 4 a 0.8128(3) 0.8128(3) 0.8128(3) 1 0 0.0124(9) 

loop_
_atom_site_aniso_label
_atom_site_aniso_type_symbol
_atom_site_aniso_U_11
_atom_site_aniso_U_22
_atom_site_aniso_U_33
_atom_site_aniso_U_12
_atom_site_aniso_U_13
_atom_site_aniso_U_23
Sb1 Sb3+ 0.00845(17) 0.00845(17) 0.00845(17) -0.00023(15) -0.00023(15) 
-0.00023(15)
Se1 Se2- 0.0088(3) 0.0108(3) 0.0103(3) -0.0016(2) 0.0001(2) 0.0000(2)
Na1 Na1+ 0.0177(10) 0.0177(10) 0.0177(10) 0.0004(10) 0.0004(10) 0.0004(10)
Na2 Na1+ 0.0136(9) 0.0136(9) 0.0136(9) 0.0007(10) 0.0007(10) 0.0007(10)
Na3 Na1+ 0.0124(9) 0.0124(9) 0.0124(9) 0.0003(10) 0.0003(10) 0.0003(10)
#End of data_425125-ICSD


