data_100784-ICSD
#?2014 by Fachinformationszentrum Karlsruhe, and the U.S. Secretary of 
#Commerce on behalf of the United States.  All rights reserved.
_database_code_ICSD                100784
_audit_creation_date               1980/12/31
_audit_update_record               2004/10/01
_chemical_name_systematic
;
Dimagnesium Manganese Bis(phosphate(V))
;
_chemical_formula_structural       'Mg2 Mn (P O4)2'
_chemical_formula_sum              'Mg2 Mn1 O8 P2'
_publ_section_title
;
The cation distribution between five- and six-coordinated sites in 
some (Mg,Me)3 (PO4)2 solid solutions
;
loop_
_citation_id
_citation_journal_abbrev
_citation_year
_citation_journal_volume
_citation_page_first
_citation_page_last
_citation_journal_id_ASTM
primary 'Materials Research Bulletin' 1980 15 1183 1191 MRBUAC
_publ_author_name                  'Nord, A.G.;Stefanidis, T.'
_cell_length_a                     7.617(1)
_cell_length_b                     8.341(2)
_cell_length_c                     5.113(1)
_cell_angle_alpha                  90.
_cell_angle_beta                   94.10(1)
_cell_angle_gamma                  90.
_cell_volume                       324.01
_cell_formula_units_Z              2
_symmetry_space_group_name_H-M     'P 1 21/n 1'
_symmetry_Int_Tables_number        14
_refine_ls_R_factor_all            .13
loop_
_symmetry_equiv_pos_site_id
_symmetry_equiv_pos_as_xyz
  1	'-x+.5, y+.5, -z+.5'
  2	'-x, -y, -z'
  3	'x+.5, -y+.5, z+.5'
  4	'x, y, z'
loop_
_atom_type_symbol
_atom_type_oxidation_number
Mg2+	2
Mn2+	2
O2-	-2
P5+	5
loop_
_atom_site_label
_atom_site_type_symbol
_atom_site_symmetry_multiplicity
_atom_site_Wyckoff_symbol
_atom_site_fract_x
_atom_site_fract_y
_atom_site_fract_z
_atom_site_occupancy
_atom_site_attached_hydrogens
_atom_site_B_iso_or_equiv
Mg1 Mg2+ 4 e 0.612(3) 0.140(3) 0.097(3) 1. 0 -2. 
Mn1 Mn2+ 2 b 0 0 0.5 1. 0 -2. 
P1 P5+ 4 e 0.201(3) 0.201(3) 0.033(3) 1. 0 -2. 
O1 O2- 4 e 0.062(3) 0.149(3) 0.826(3) 1. 0 -2. 
O2 O2- 4 e 0.132(3) 0.202(3) 0.292(3) 1. 0 -2. 
O3 O2- 4 e 0.277(3) 0.365(3) 0.941(3) 1. 0 -2. 
O4 O2- 4 e 0.349(3) 0.084(3) 0.045(3) 1. 0 -2. 

#End of data_100784-ICSD


