data_93603-ICSD
#?2014 by Fachinformationszentrum Karlsruhe, and the U.S. Secretary of 
#Commerce on behalf of the United States.  All rights reserved.
_database_code_ICSD                93603
_audit_creation_date               2003/04/01
_chemical_name_systematic          'Dimagnesium Divanadate - Alpha'
_chemical_formula_structural       'Mg2 (V2 O7)'
_chemical_formula_sum              'Mg2 O7 V2'
_publ_section_title
;
Crystal structure of alpha-(Mg2 V2 O7) from synchrotron X-ray powder 
diffraction and characterization by (51)V MAS NMR spectroscopy
;
loop_
_citation_id
_citation_journal_abbrev
_citation_year
_citation_journal_volume
_citation_page_first
_citation_page_last
_citation_journal_id_ASTM
primary 'Journal of the Chemical Society, Dalton Transactions (2001-)'
 2001 2001 3214 3218 JCSDAA
_publ_author_name
;
Nielsen, U.G.;Jakobsen, H.J.;Skibsted, J.;Norby, P.
;
_cell_length_a                     6.599(1)
_cell_length_b                     8.406(1)
_cell_length_c                     9.472(2)
_cell_angle_alpha                  90
_cell_angle_beta                   100.6085(4)
_cell_angle_gamma                  90
_cell_volume                       516.44
_cell_formula_units_Z              4
_symmetry_space_group_name_H-M     'P 1 21/c 1'
_symmetry_Int_Tables_number        14
_refine_ls_R_factor_all            .042
loop_
_symmetry_equiv_pos_site_id
_symmetry_equiv_pos_as_xyz
  1	'x, -y+.5, z+.5'
  2	'-x, -y, -z'
  3	'-x, y+.5, -z+.5'
  4	'x, y, z'
loop_
_atom_type_symbol
_atom_type_oxidation_number
Mg2+	2
O2-	-2
V5+	5
loop_
_atom_site_label
_atom_site_type_symbol
_atom_site_symmetry_multiplicity
_atom_site_Wyckoff_symbol
_atom_site_fract_x
_atom_site_fract_y
_atom_site_fract_z
_atom_site_occupancy
_atom_site_attached_hydrogens
_atom_site_U_iso_or_equiv
Mg1 Mg2+ 4 e 0.1481(4) 0.1214(4) 0.4635(3) 1. 0 0.016(1) 
Mg2 Mg2+ 4 e 0.3121(5) 0.3895(4) 0.6821(3) 1. 0 0.016(1) 
V1 V5+ 4 e 0.3591(2) 0.7587(2) 0.5400(2) 1. 0 0.0128(6) 
V2 V5+ 4 e 0.1919(2) 0.0199(2) 0.8151(2) 1. 0 0.0115(6) 
O1 O2- 4 e 0.6108(8) 0.1282(5) 0.1224(5) 1. 0 0.010(2) 
O2 O2- 4 e 0.4310(8) 0.1307(5) 0.4010(5) 1. 0 0.010(2) 
O3 O2- 4 e 0.1713(7) 0.3698(6) 0.4592(5) 1. 0 0.012(2) 
O4 O2- 4 e 0.2507(8) 0.3580(5) 0.1881(6) 1. 0 0.012(2) 
O5 O2- 4 e 0.6773(8) 0.3728(7) 0.3510(6) 1. 0 0.019(2) 
O6 O2- 4 e 0.0254(7) 0.0769(5) 0.2454(5) 1. 0 0.014(2) 
O7 O2- 4 e 0.8503(7) 0.3783(5) 0.0028(5) 1. 0 0.010(2) 

#End of data_93603-ICSD


