data_174102-ICSD
#?2014 by Fachinformationszentrum Karlsruhe, and the U.S. Secretary of 
#Commerce on behalf of the United States.  All rights reserved.
_database_code_ICSD                174102
_audit_creation_date               2010/02/01
_audit_update_record               2013/08/01
_chemical_name_systematic          'Lithium Germanium Oxide (2/7/15)'
_chemical_formula_structural       'Li2 Ge7 O15'
_chemical_formula_sum              'Ge7 Li2 O15'
_publ_section_title
;
Neutron diffraction study of structural phase transition in 
ferroelectric Li2 Ge7 O15
;
loop_
_citation_id
_citation_journal_abbrev
_citation_year
_citation_journal_volume
_citation_journal_issue
_citation_page_first
_citation_page_last
_citation_journal_id_ASTM
primary 'Journal of the Physical Society of Japan' 1987 56 7 2420 2427 JUPSAU
_publ_author_name
;
Iwata, Y.;Shibuya, I.;Wada, M.;Sawada, A.;Ishibashi, Y.
;
_cell_length_a                     7.36
_cell_length_b                     16.76
_cell_length_c                     9.69
_cell_angle_alpha                  90.
_cell_angle_beta                   90.
_cell_angle_gamma                  90.
_cell_volume                       1195.3
_cell_formula_units_Z              4
_symmetry_space_group_name_H-M     'P b c n'
_symmetry_Int_Tables_number        60
_refine_ls_R_factor_all            .065
loop_
_symmetry_equiv_pos_site_id
_symmetry_equiv_pos_as_xyz
  1	'x, -y, z+.5'
  2	'-x+.5, y+.5, z'
  3	'x+.5, y+.5, -z+.5'
  4	'-x, -y, -z'
  5	'-x, y, -z+.5'
  6	'x+.5, -y+.5, -z'
  7	'-x+.5, -y+.5, z+.5'
  8	'x, y, z'
loop_
_atom_type_symbol
_atom_type_oxidation_number
Ge4+	4
Li1+	1
O2-	-2
loop_
_atom_site_label
_atom_site_type_symbol
_atom_site_symmetry_multiplicity
_atom_site_Wyckoff_symbol
_atom_site_fract_x
_atom_site_fract_y
_atom_site_fract_z
_atom_site_occupancy
_atom_site_attached_hydrogens
Ge1 Ge4+ 4 c 0 0.4132(2) 0.25 1. 0 
Ge2 Ge4+ 8 d 0.2139(3) 0.0584(1) 0.2488(2) 1. 0 
Ge3 Ge4+ 8 d 0.2837(3) 0.3403(1) 0.0332(2) 1. 0 
Ge4 Ge4+ 8 d 0.2862(3) 0.3448(1) 0.4713(2) 1. 0 
O1 O2- 4 c 0 0.0168(4) 0.25 1. 0 
O2 O2- 8 d 0.2883(5) 0.0890(2) 0.4120(3) 1. 0 
O3 O2- 8 d 0.1896(5) 0.1476(2) 0.1525(3) 1. 0 
O4 O2- 8 d 0.2015(5) 0.2491(2) 0.4389(3) 1. 0 
O5 O2- 8 d 0.1387(4) 0.3309(2) 0.1708(3) 1. 0 
O6 O2- 8 d 0.4991(5) 0.3582(3) 0.0942(4) 1. 0 
O7 O2- 8 d 0.1451(4) 0.4172(2) 0.4083(3) 1. 0 
O8 O2- 8 d 0.1421(4) 0.4932(2) 0.1683(3) 1. 0 
Li1 Li1+ 4 b 0 0.5 0 1. 0 
Li2 Li1+ 4 c 0 0.2413(12) 0.25 1. 0 

#End of data_174102-ICSD


