data_419544-ICSD
#?2014 by Fachinformationszentrum Karlsruhe, and the U.S. Secretary of 
#Commerce on behalf of the United States.  All rights reserved.
_database_code_ICSD                419544
_audit_creation_date               2009/08/01
_chemical_name_systematic
;
Dibarium Calcium Divanadium(III) Copper Tetradecafluoride
;
_chemical_formula_structural       'Ba2 Ca V2 Cu F14'
_chemical_formula_sum              'Ba2 Ca1 Cu1 F14 V2'
_chemical_name_mineral             Usovite
_publ_section_title
;
The single crystal structures of the copper usovites Ba2 Ca Cu V2 F14 
and Ba2 Ca Cu Cr2 F14
;
loop_
_citation_id
_citation_journal_abbrev
_citation_year
_citation_journal_volume
_citation_journal_issue
_citation_page_first
_citation_page_last
_citation_journal_id_ASTM
primary 'Zeitschrift fuer Anorganische und Allgemeine Chemie (1950) (DE)'
 2008 634 15 2737 2739 ZAACAB
_publ_author_name
;
le Lirzin, A.;Darriet, J.;Tressaud, A.;Babel, D.
;
_cell_length_a                     13.836(3)
_cell_length_b                     5.4089(8)
_cell_length_c                     14.931(3)
_cell_angle_alpha                  90
_cell_angle_beta                   91.65(3)
_cell_angle_gamma                  90.0000
_cell_volume                       1116.94
_cell_formula_units_Z              4
_symmetry_space_group_name_H-M     'C 1 2/c 1'
_symmetry_Int_Tables_number        15
_refine_ls_R_factor_all            .0327
loop_
_symmetry_equiv_pos_site_id
_symmetry_equiv_pos_as_xyz
  1	'x, -y, z+.5'
  2	'-x, -y, -z'
  3	'-x, y, -z+.5'
  4	'x, y, z'
  5	'x+.5, -y+.5, z+.5'
  6	'-x+.5, -y+.5, -z'
  7	'-x+.5, y+.5, -z+.5'
  8	'x+.5, y+.5, z'
loop_
_atom_type_symbol
_atom_type_oxidation_number
Ba2+	2
Ca2+	2
Cu2+	2
F1-	-1
V3+	3
loop_
_atom_site_label
_atom_site_type_symbol
_atom_site_symmetry_multiplicity
_atom_site_Wyckoff_symbol
_atom_site_fract_x
_atom_site_fract_y
_atom_site_fract_z
_atom_site_occupancy
_atom_site_attached_hydrogens
_atom_site_U_iso_or_equiv
Cu1 Cu2+ 4 b 0.00000 0.50000 0.00000 1.000 0 0.0109(1) 
V1 V3+ 8 f 0.37893(4) 0.48065(8) 0.12352(3) 1.000 0 0.0097(1) 
F1 F1- 8 f 0.16043(14) 0.2002(3) 0.27715(13) 1.000 0 0.0153(5) 
F2 F1- 8 f 0.41586(16) 0.2956(4) 0.01702(14) 1.000 0 0.0195(5) 
F3 F1- 8 f 0.37727(16) 0.2065(3) 0.20585(15) 1.000 0 0.0199(5) 
F4 F1- 8 f 0.36455(15) 0.2297(3) 0.54560(13) 1.000 0 0.0173(5) 
F5 F1- 8 f 0.50773(14) 0.4207(3) 0.65534(14) 1.000 0 0.0161(5) 
F6 F1- 8 f 0.24772(16) 0.4182(4) 0.09330(17) 1.000 0 0.0247(6) 
F7 F1- 8 f 0.44609(16) 0.0684(3) 0.38317(13) 1.000 0 0.0175(5) 
Ba1 Ba2+ 8 f 0.18960(1) -0.05989(3) 0.12210(1) 1.000 0 0.0122(1) 
Ca1 Ca2+ 4 e 0.00000 0.42717(14) 0.25000 1.000 0 0.0125(2) 

loop_
_atom_site_aniso_label
_atom_site_aniso_type_symbol
_atom_site_aniso_U_11
_atom_site_aniso_U_22
_atom_site_aniso_U_33
_atom_site_aniso_U_12
_atom_site_aniso_U_13
_atom_site_aniso_U_23
Cu1 Cu2+ 0.0100(2) 0.0105(2) 0.0122(2) 0.0011(2) -0.0002(2) -0.0028(2)
V1 V3+ 0.0066(2) 0.0102(2) 0.0122(2) -0.0009(1) -0.0015(2) 0.0013(1)
F1 F1- 0.0138(8) 0.0158(8) 0.0162(8) -0.0034(6) 0.0011(7) 0.0001(6)
F2 F1- 0.0216(10) 0.0194(9) 0.0172(9) 0.0022(7) -0.0030(8) -0.0029(7)
F3 F1- 0.0180(10) 0.0152(8) 0.0266(10) 0.0038(7) 0.0037(8) 0.0076(7)
F4 F1- 0.0185(9) 0.0166(8) 0.0169(9) -0.0017(7) 0.0004(7) -0.0044(7)
F5 F1- 0.0078(7) 0.0196(8) 0.0210(9) 0.0008(6) -0.0003(7) 0.0069(7)
F6 F1- 0.0091(8) 0.0233(10) 0.0413(14) -0.0033(7) -0.0066(9) 0.0012(9)
F7 F1- 0.0159(9) 0.0192(8) 0.0175(9) 0.0008(7) 0.0019(7) -0.0029(7)
Ba1 Ba2+ 0.0076(1) 0.0140(1) 0.0150(1) 0.0012(1) 0.0002(1) -0.0018(1)
Ca1 Ca2+ 0.0116(3) 0.0124(3) 0.0135(3) 0.0000 0.0009(3) 0.0000
#End of data_419544-ICSD


