data_67498-ICSD
#?2014 by Fachinformationszentrum Karlsruhe, and the U.S. Secretary of 
#Commerce on behalf of the United States.  All rights reserved.
_database_code_ICSD                67498
_audit_creation_date               1993/08/22
_chemical_name_systematic          'Aluminium Phosphate'
_chemical_formula_structural       'Al (P O4)'
_chemical_formula_sum              'Al1 O4 P1'
_publ_section_title
;
Loesung der Struktur eines metallsubstituierten 
Alumophosphatkatalysators durch Elektronenmikroskopie, 
Computersimulation und Pulver-Roentenbeugungsuntersuchung
;
loop_
_citation_id
_citation_journal_abbrev
_citation_year
_citation_journal_volume
_citation_journal_issue
_citation_page_first
_citation_page_last
_citation_journal_id_ASTM
primary 'Angewandte Chemie (German Edition)' 1992 104 11 1526 1529 ANCEAD
_publ_author_name
;
Wright, P.A.;Natarajan, S.;Thomas, J.M.;Bell, R.G.;Gai-Boyes, 
P.L.;Jones, R.H.;Chen, J.
;
_cell_length_a                     13.46
_cell_length_b                     22.17
_cell_length_c                     5.29
_cell_angle_alpha                  90.16
_cell_angle_beta                   92.01
_cell_angle_gamma                  89.95
_cell_volume                       1577.6
_cell_formula_units_Z              12
_symmetry_space_group_name_H-M     'C -1'
_symmetry_Int_Tables_number        2
_refine_ls_R_factor_all            .098
loop_
_symmetry_equiv_pos_site_id
_symmetry_equiv_pos_as_xyz
  1	'-x, -y, -z'
  2	'x, y, z'
  3	'-x+.5, -y+.5, -z'
  4	'x+.5, y+.5, z'
loop_
_atom_type_symbol
_atom_type_oxidation_number
Al3+	3
O2-	-2
P5+	5
loop_
_atom_site_label
_atom_site_type_symbol
_atom_site_symmetry_multiplicity
_atom_site_Wyckoff_symbol
_atom_site_fract_x
_atom_site_fract_y
_atom_site_fract_z
_atom_site_occupancy
_atom_site_attached_hydrogens
_atom_site_U_iso_or_equiv
Al1 Al3+ 4 i 0.12 0.9608 0.2681 1. 0 0.015 
Al2 Al3+ 4 i 0.8085 0.8235 0.2714 1. 0 0.015 
Al3 Al3+ 4 i 0.3838 0.7438 0.2749 1. 0 0.015 
P1 P5+ 4 i 0.88 0.9587 0.2312 1. 0 0.015 
P2 P5+ 4 i 0.1905 0.8251 0.2349 1. 0 0.015 
P3 P5+ 4 i 0.6141 0.7441 0.224 1. 0 0.015 
O1 O2- 4 i 0.1821 0.8924 0.2548 1. 0 0.03 
O2 O2- 4 i 0.8235 0.9006 0.2409 1. 0 0.03 
O3 O2- 4 i 0.9911 0.9447 0.2466 1. 0 0.03 
O4 O2- 4 i 0.1409 0.0008 0.5477 1. 0 0.03 
O5 O2- 4 i 0.8592 0.992 0.9875 1. 0 0.03 
O6 O2- 4 i 0.296 0.8027 0.2602 1. 0 0.03 
O7 O2- 4 i 0.6862 0.7962 0.244 1. 0 0.03 
O8 O2- 4 i 0.1486 0.804 0.9809 1. 0 0.03 
O9 O2- 4 i 0.8655 0.2044 0.5554 1. 0 0.03 
O10 O2- 4 i 0.8584 0.799 0.563 1. 0 0.03 
O11 O2- 4 i 0.129 0.2128 0.9732 1. 0 0.03 
O12 O2- 4 i 0.5077 0.7629 0.2457 1. 0 0.03 

#End of data_67498-ICSD


