data_16182-ICSD
#?2014 by Fachinformationszentrum Karlsruhe, and the U.S. Secretary of 
#Commerce on behalf of the United States.  All rights reserved.
_database_code_ICSD                16182
_audit_creation_date               1980/01/01
_audit_update_record               2011/02/01
_chemical_name_systematic          'Sodium Samarium Germanate'
_chemical_formula_structural       'Na Sm (Ge O4)'
_chemical_formula_sum              'Ge1 Na1 O4 Sm1'
_publ_section_title
;
Crystal structure of sodium samarium orthogermanate
;
loop_
_citation_id
_citation_journal_abbrev
_citation_year
_citation_journal_volume
_citation_page_first
_citation_page_last
_citation_journal_id_ASTM
primary Kristallografiya 1970 15 1064 1065 KRISAJ
2 'Soviet Physics, Crystallography (= Kristallografiya)'
 1970 15 924 925 SPHCA6
_publ_author_name
;
Kharakh, E.A.;Chichagov, A.V.;Belov, N.V.
;
_cell_length_a                     5.27(2)
_cell_length_b                     11.70(3)
_cell_length_c                     6.50(2)
_cell_angle_alpha                  90.
_cell_angle_beta                   90.
_cell_angle_gamma                  90.
_cell_volume                       400.78
_cell_formula_units_Z              4
_symmetry_space_group_name_H-M     'P b n 21'
_symmetry_Int_Tables_number        33
_refine_ls_R_factor_all            .16
loop_
_symmetry_equiv_pos_site_id
_symmetry_equiv_pos_as_xyz
  1	'-x+.5, y+.5, z'
  2	'x+.5, -y+.5, z+.5'
  3	'-x, -y, z+.5'
  4	'x, y, z'
loop_
_atom_type_symbol
_atom_type_oxidation_number
Ge4+	4
Na1+	1
O2-	-2
Sm3+	3
loop_
_atom_site_label
_atom_site_type_symbol
_atom_site_symmetry_multiplicity
_atom_site_Wyckoff_symbol
_atom_site_fract_x
_atom_site_fract_y
_atom_site_fract_z
_atom_site_occupancy
_atom_site_attached_hydrogens
Sm1 Sm3+ 4 a 0.0013 0.221 0 1. 0 
Ge1 Ge4+ 4 a 0.057 0.094 0.5 1. 0 
Na1 Na1+ 4 a 0.5 0.002 0.25 1. 0 
O1 O2- 4 a 0.711 0.33 0.2 1. 0 
O2 O2- 4 a 0.217 0.17 0.301 1. 0 
O3 O2- 4 a 0.345 0.453 0.5 1. 0 
O4 O2- 4 a 0.77 0.11 0.5 1. 0 

#End of data_16182-ICSD


