data_72394-ICSD
#?2014 by Fachinformationszentrum Karlsruhe, and the U.S. Secretary of 
#Commerce on behalf of the United States.  All rights reserved.
_database_code_ICSD                72394
_audit_creation_date               1994/01/19
_chemical_name_systematic
;
Potassium Phyllo-tetrafluoromanganate(III)
;
_chemical_formula_structural       'K (Mn F4)'
_chemical_formula_sum              'F4 K1 Mn1'
_publ_section_title
;
Die Kristallstrukturen der Tetrafluoromanganate(III) AMnF4 (A=K, Rb, 
Cs)
;
loop_
_citation_id
_citation_journal_abbrev
_citation_year
_citation_journal_volume
_citation_page_first
_citation_page_last
_citation_journal_id_ASTM
primary 'Zeitschrift fuer Naturforschung, B: Chemical Sciences'
 1992 47 783 788 ZNBSEN
_publ_author_name                  'Molinier, M.;Massa, W.'
_cell_length_a                     7.699(2)
_cell_length_b                     7.644(2)
_cell_length_c                     5.769(1)
_cell_angle_alpha                  90.
_cell_angle_beta                   90.54(3)
_cell_angle_gamma                  90.
_cell_volume                       339.5
_cell_formula_units_Z              4
_symmetry_space_group_name_H-M     'P 1 21/a 1'
_symmetry_Int_Tables_number        14
_refine_ls_R_factor_all            .029
loop_
_symmetry_equiv_pos_site_id
_symmetry_equiv_pos_as_xyz
  1	'x+.5, -y+.5, z'
  2	'-x, -y, -z'
  3	'-x+.5, y+.5, -z'
  4	'x, y, z'
loop_
_atom_type_symbol
_atom_type_oxidation_number
F1-	-1
K1+	1
Mn3+	3
loop_
_atom_site_label
_atom_site_type_symbol
_atom_site_symmetry_multiplicity
_atom_site_Wyckoff_symbol
_atom_site_fract_x
_atom_site_fract_y
_atom_site_fract_z
_atom_site_occupancy
_atom_site_attached_hydrogens
K1 K1+ 4 e 0.2465(4) 0.3028(2) 0.4869(2) 1. 0 
Mn1 Mn3+ 2 a 0 0 0 1. 0 
Mn2 Mn3+ 2 c 0.5 0 0 1. 0 
F1 F1- 4 e 0.2324(8) -.0196(5) 0.0969(7) 1. 0 
F2 F1- 4 e -.0668(7) -.0583(7) 0.2885(12) 1. 0 
F3 F1- 4 e 0.5058(11) 0.2303(7) 0.1178(6) 1. 0 
F4 F1- 4 e 0.5517(7) -.0766(7) 0.2880(11) 1. 0 

loop_
_atom_site_aniso_label
_atom_site_aniso_type_symbol
_atom_site_aniso_U_11
_atom_site_aniso_U_22
_atom_site_aniso_U_33
_atom_site_aniso_U_12
_atom_site_aniso_U_13
_atom_site_aniso_U_23
K1 K1+ 0.0244(6) 0.0180(6) 0.0278(6) -.0021(16) 0.0003(14) 0.0042(7)
Mn1 Mn3+ 0.0133(10) 0.0112(9) 0.0166(13) -.0010(12) 0.0006(9) -.0006(9)
Mn2 Mn3+ 0.0139(10) 0.0080(9) 0.0192(14) -.0012(12) -.0002(9) -.0003(9)
F1 F1- 0.016(2) 0.031(2) 0.031(2) 0.001(3) -.006(3) 0.008(2)
F2 F1- 0.019(3) 0.016(3) 0.029(4) 0.001(2) 0.001(3) 0.001(2)
F3 F1- 0.028(2) 0.012(2) 0.024(2) 0.004(2) 0.004(3) -.001(2)
F4 F1- 0.023(3) 0.020(3) 0.019(3) -.002(2) -.005(2) 0.005(2)
#End of data_72394-ICSD


