data_8075-ICSD
#?2014 by Fachinformationszentrum Karlsruhe, and the U.S. Secretary of 
#Commerce on behalf of the United States.  All rights reserved.
_database_code_ICSD                8075
_audit_creation_date               1980/01/01
_chemical_name_systematic          'Silver Iodide Nitrate'
_chemical_formula_structural       'Ag2 I N O3'
_chemical_formula_sum              'Ag2 I1 N1 O3'
_publ_section_title
;
The crystal structure of Ag2 I N O3
;
loop_
_citation_id
_citation_journal_abbrev
_citation_year
_citation_journal_volume
_citation_page_first
_citation_page_last
_citation_journal_id_ASTM
primary 'Acta Crystallographica B (24,1968-38,1982)' 1979 35 302 306 ACBCAR
_publ_author_name                  'Persson, K.'
_cell_length_a                     7.4354(4)
_cell_length_b                     7.7759(4)
_cell_length_c                     17.1338(12)
_cell_angle_alpha                  90.
_cell_angle_beta                   90.
_cell_angle_gamma                  90.
_cell_volume                       990.62
_cell_formula_units_Z              8
_symmetry_space_group_name_H-M     'P 21 21 21'
_symmetry_Int_Tables_number        19
_refine_ls_R_factor_all            .029
loop_
_symmetry_equiv_pos_site_id
_symmetry_equiv_pos_as_xyz
  1	'-x, y+.5, -z+.5'
  2	'x+.5, -y+.5, -z'
  3	'-x+.5, -y, z+.5'
  4	'x, y, z'
loop_
_atom_type_symbol
_atom_type_oxidation_number
Ag1+	1
I1-	-1
N5+	5
O2-	-2
loop_
_atom_site_label
_atom_site_type_symbol
_atom_site_symmetry_multiplicity
_atom_site_Wyckoff_symbol
_atom_site_fract_x
_atom_site_fract_y
_atom_site_fract_z
_atom_site_occupancy
_atom_site_attached_hydrogens
Ag1 Ag1+ 4 a 0.67435(11) 0.03154(11) 0.44214(4) 1. 0 
Ag2 Ag1+ 4 a 0.24780(11) 0.02963(11) 0.44081(4) 1. 0 
Ag3 Ag1+ 4 a 0.71726(11) 0.53074(12) 0.31602(5) 1. 0 
Ag4 Ag1+ 4 a 0.32554(11) 0.48515(12) 0.30493(4) 1. 0 
I1 I1- 4 a 0.47074(8) 0.84270(8) 0.32144(3) 1. 0 
I2 I1- 4 a 0.45908(8) 0.35323(7) 0.44995(3) 1. 0 
O1 O2- 4 a 0.46911(96) 0.44874(83) 0.76430(31) 1. 0 
O2 O2- 4 a 0.62920(94) 0.30936(88) 0.68016(42) 1. 0 
O3 O2- 4 a 0.33518(98) 0.30268(85) 0.67359(36) 1. 0 
O4 O2- 4 a 0.45349(99) 0.67090(81) 0.61412(34) 1. 0 
O5 O2- 4 a 0.6383(10) 0.76749(96) 0.52591(38) 1. 0 
O6 O2- 4 a 0.4198(10) 0.93288(82) 0.569 1. 0 
N1 N5+ 4 a 0.47594(94) 0.35369(95) 0.70566(36) 1. 0 
N2 N5+ 4 a 0.50243(96) 0.79035(93) 0.57119(37) 1. 0 

#End of data_8075-ICSD


