data_26611-ICSD
#?2014 by Fachinformationszentrum Karlsruhe, and the U.S. Secretary of 
#Commerce on behalf of the United States.  All rights reserved.
_database_code_ICSD                26611
_audit_creation_date               1986/10/06
_audit_update_record               2004/10/01
_chemical_name_systematic          'Trisodium Octafluorotantalate'
_chemical_formula_structural       'Na3 (Ta F8)'
_chemical_formula_sum              'F8 Na3 Ta1'
_publ_section_title
;
Structures of complex fluorides. the structure of sodium 
octafluorotantalate, Na3 Ta F8
;
loop_
_citation_id
_citation_journal_abbrev
_citation_year
_citation_journal_volume
_citation_page_first
_citation_page_last
_citation_journal_id_ASTM
primary 'Journal of the American Chemical Society' 1954 76 3820 3823 JACSAT
_publ_author_name
;
Hoard, J.L.;Martin, W.J.;Smith, M.E.;Whitney, J.F.
;
_cell_length_a                     11.52
_cell_length_b                     5.38
_cell_length_c                     11.21
_cell_angle_alpha                  90.
_cell_angle_beta                   120.92
_cell_angle_gamma                  90.
_cell_volume                       596.03
_cell_formula_units_Z              4
_symmetry_space_group_name_H-M     'C 1 2/c 1'
_symmetry_Int_Tables_number        15
_refine_ls_R_factor_all            .067
loop_
_symmetry_equiv_pos_site_id
_symmetry_equiv_pos_as_xyz
  1	'x, -y, z+.5'
  2	'-x, -y, -z'
  3	'-x, y, -z+.5'
  4	'x, y, z'
  5	'x+.5, -y+.5, z+.5'
  6	'-x+.5, -y+.5, -z'
  7	'-x+.5, y+.5, -z+.5'
  8	'x+.5, y+.5, z'
loop_
_atom_type_symbol
_atom_type_oxidation_number
F1-	-1
Na1+	1
Ta5+	5
loop_
_atom_site_label
_atom_site_type_symbol
_atom_site_symmetry_multiplicity
_atom_site_Wyckoff_symbol
_atom_site_fract_x
_atom_site_fract_y
_atom_site_fract_z
_atom_site_occupancy
_atom_site_attached_hydrogens
_atom_site_B_iso_or_equiv
Ta1 Ta5+ 4 e 0 0.56 0.25 1. 0 0.8 
Na1 Na1+ 4 a 0 0 0 1. 0 1.6 
Na2 Na1+ 8 f 0.217 0.505 0.104 1. 0 1.6 
F1 F1- 8 f -.015 0.365 0.394 1. 0 1.6 
F2 F1- 8 f 0.11 0.75 0.418 1. 0 1.6 
F3 F1- 8 f 0.171 0.375 0.36 1. 0 1.6 
F4 F1- 8 f 0.129 0.75 0.212 1. 0 1.6 

#End of data_26611-ICSD


