data_280193-ICSD
#?2014 by Fachinformationszentrum Karlsruhe, and the U.S. Secretary of 
#Commerce on behalf of the United States.  All rights reserved.
_database_code_ICSD                280193
_audit_creation_date               2000/12/16
_audit_update_record               2014/08/01
_chemical_name_systematic
;
Potassium Dicopper Europium Tetratelluride
;
_chemical_formula_structural       'K Cu2 Eu Te4'
_chemical_formula_sum              'Cu2 Eu1 K1 Te4'
_publ_section_title
;
Cu0.66 Eu Te2, K Cu2 Eu Te4 and Na0.2 Ag2.8 Eu Te4: compounds with 
modulated square Te nets
;
loop_
_citation_id
_citation_journal_abbrev
_citation_year
_citation_journal_volume
_citation_page_first
_citation_page_last
_citation_journal_id_ASTM
primary 'Journal of Materials Chemistry' 1999 9 2293 2296 JMACEP
_publ_author_name
;
Patschke, R.;Brazis, P.;Kannewurf, C.R.;Kanatzidis, M.G.
;
_cell_length_a                     4.4365(6)
_cell_length_b                     4.4365(6)
_cell_length_c                     11.365(2)
_cell_angle_alpha                  90.
_cell_angle_beta                   90.
_cell_angle_gamma                  90.
_cell_volume                       223.69
_cell_formula_units_Z              1
_symmetry_space_group_name_H-M     'P 4 m m'
_symmetry_Int_Tables_number        99
_refine_ls_R_factor_all            .0823
loop_
_symmetry_equiv_pos_site_id
_symmetry_equiv_pos_as_xyz
  1	'y, -x, z'
  2	'-y, x, z'
  3	'-y, -x, z'
  4	'y, x, z'
  5	'x, -y, z'
  6	'-x, y, z'
  7	'-x, -y, z'
  8	'x, y, z'
loop_
_atom_type_symbol
_atom_type_oxidation_number
Cu2+	2
Eu3+	3
K1+	1
Te2-	-2
loop_
_atom_site_label
_atom_site_type_symbol
_atom_site_symmetry_multiplicity
_atom_site_Wyckoff_symbol
_atom_site_fract_x
_atom_site_fract_y
_atom_site_fract_z
_atom_site_occupancy
_atom_site_attached_hydrogens
Eu1 Eu3+ 1 a 0 0 0.0000(3) 1. 0 
Te1 Te2- 1 a 0 0 0.3661(4) 1. 0 
Te2 Te2- 1 b 0.5 0.5 0.0940(4) 1. 0 
Te3 Te2- 2 c 0.5 0 0.7655(2) 1. 0 
Cu1 Cu2+ 2 c 0.5 0 0.2416(6) 1. 0 
K1 K1+ 1 b 0.5 0.5 0.5029(18) 1. 0 

loop_
_atom_site_aniso_label
_atom_site_aniso_type_symbol
_atom_site_aniso_U_11
_atom_site_aniso_U_22
_atom_site_aniso_U_33
_atom_site_aniso_U_12
_atom_site_aniso_U_13
_atom_site_aniso_U_23
Eu1 Eu3+ 0.0161(10) 0.0161(10) 0.0345(16) 0 0 0
Te1 Te2- 0.0196(13) 0.0196(13) 0.035(2) 0 0 0
Te2 Te2- 0.0181(11) 0.0181(11) 0.0321(19) 0 0 0
Te3 Te2- 0.0208(13) 0.0209(13) 0.031(2) 0 0 0
Cu1 Cu2+ 0.032(3) 0.065(4) 0.027(3) 0 0 0
K1 K1+ 0.016(3) 0.016(3) 0.036(5) 0 0 0
#End of data_280193-ICSD


