data_79691-ICSD
#?2014 by Fachinformationszentrum Karlsruhe, and the U.S. Secretary of 
#Commerce on behalf of the United States.  All rights reserved.
_database_code_ICSD                79691
_audit_creation_date               1996/10/14
_chemical_name_systematic          'Tripotassium Dicerium Nitrate(V)'
_chemical_formula_structural       'K3 Ce2 (N O3)9'
_chemical_formula_sum              'Ce2 K3 N9 O27'
_publ_section_title
;
Cerous potassium nitrate, K3 Ce2 (N O3)9
;
loop_
_citation_id
_citation_journal_abbrev
_citation_year
_citation_journal_volume
_citation_page_first
_citation_page_last
_citation_journal_id_ASTM
primary 'Acta Crystallographica, Section C: Crystal Structure Communications'
 1995 51 1032 1034 ACSCEE
_publ_author_name
;
Guillou, N.;Auufredic, J.P.;Louer, D.
;
_cell_length_a                     13.5975(8)
_cell_length_b                     13.5975(8)
_cell_length_c                     13.5975(8)
_cell_angle_alpha                  90.
_cell_angle_beta                   90.
_cell_angle_gamma                  90.
_cell_volume                       2514.07
_cell_formula_units_Z              4
_symmetry_space_group_name_H-M     'P 41 3 2'
_symmetry_Int_Tables_number        213
_refine_ls_R_factor_all            .044
loop_
_symmetry_equiv_pos_site_id
_symmetry_equiv_pos_as_xyz
  1	'-z+.25, y+.75, x+.25'
  2	'z+.25, -y+.25, x+.75'
  3	'z+.75, y+.25, -x+.25'
  4	'-z+.75, -y+.75, -x+.75'
  5	'y+.75, x+.25, -z+.25'
  6	'-y+.25, x+.75, z+.25'
  7	'y+.25, -x+.25, z+.75'
  8	'-y+.75, -x+.75, -z+.75'
  9	'x+.25, -z+.25, y+.75'
 10	'x+.75, z+.25, -y+.25'
 11	'-x+.25, z+.75, y+.25'
 12	'-x+.75, -z+.75, -y+.75'
 13	'z+.5, -x+.5, -y'
 14	'-z+.5, -x, y+.5'
 15	'-z, x+.5, -y+.5'
 16	'z, x, y'
 17	'-y, z+.5, -x+.5'
 18	'y+.5, -z+.5, -x'
 19	'-y+.5, -z, x+.5'
 20	'y, z, x'
 21	'-x+.5, -y, z+.5'
 22	'-x, y+.5, -z+.5'
 23	'x+.5, -y+.5, -z'
 24	'x, y, z'
loop_
_atom_type_symbol
_atom_type_oxidation_number
Ce3+	3
K1+	1
N5+	5
O2-	-2
loop_
_atom_site_label
_atom_site_type_symbol
_atom_site_symmetry_multiplicity
_atom_site_Wyckoff_symbol
_atom_site_fract_x
_atom_site_fract_y
_atom_site_fract_z
_atom_site_occupancy
_atom_site_attached_hydrogens
Ce1 Ce3+ 8 c 0.54899(3) 0.54899(3) 0.54899(3) 1. 0 
K1 K1+ 12 d 0.375 0.1875(1) 0.5625(1) 1. 0 
N1 N5+ 24 e 0.3995(5) 0.4124(5) 0.6397(5) 1. 0 
O1 O2- 24 e 0.4440(4) 0.3900(3) 0.5610(4) 1. 0 
O2 O2- 24 e 0.4170(4) 0.4964(4) 0.6753(4) 1. 0 
O3 O2- 24 e 0.3419(5) 0.3555(5) 0.6778(4) 1. 0 
N2 N5+ 12 d 0.625 0.5127(4) 0.7627(4) 1. 0 
O4 O2- 24 e 0.5934(4) 0.5952(4) 0.7418(4) 1. 0 
O5 O2- 12 d 0.625 0.4463(3) 0.6963(3) 1. 0 

loop_
_atom_site_aniso_label
_atom_site_aniso_type_symbol
_atom_site_aniso_U_11
_atom_site_aniso_U_22
_atom_site_aniso_U_33
_atom_site_aniso_U_12
_atom_site_aniso_U_13
_atom_site_aniso_U_23
Ce1 Ce3+ 0.01864(7) 0.01864(7) 0.01864(7) 0.0007(2) 0.0007(2) 0.0007(2)
K1 K1+ 0.049(1) 0.0335(7) 0.0335(7) -.0054(7) -.0054(7) 0.000(1)
N1 N5+ 0.029(3) 0.029(3) 0.037(3) -.006(3) 0.003(3) 0.003(3)
O1 O2- 0.040(3) 0.028(2) 0.026(2) -.004(2) 0.007(2) 0.000(2)
O2 O2- 0.034(3) 0.031(2) 0.038(3) -.004(2) 0.008(2) -.009(2)
O3 O2- 0.059(3) 0.049(3) 0.052(3) -.028(3) 0.028(3) -.006(3)
N2 N5+ 0.021(4) 0.019(2) 0.019(2) 0.001(2) -.001(2) -.001(3)
O4 O2- 0.039(3) 0.021(2) 0.030(2) 0.008(2) -.001(2) 0.000(2)
O5 O2- 0.034(3) 0.020(2) 0.020(2) 0.004(2) -.004(2) 0.003(3)
#End of data_79691-ICSD


