data_261455-ICSD
#?2014 by Fachinformationszentrum Karlsruhe, and the U.S. Secretary of 
#Commerce on behalf of the United States.  All rights reserved.
_database_code_ICSD                261455
_audit_creation_date               2011/08/01
_chemical_name_systematic          'Dodecalithium Pentamolybdate'
_chemical_formula_structural       'Li12 Mo5 O17'
_chemical_formula_sum              'Li12 Mo5 O17'
_publ_section_title
;
HRTEM and neutron diffraction study of Li(x) Mo5 O17: From the ribbon 
(x=5) structure to the rock salt (x=12) structure
;
loop_
_citation_id
_citation_journal_abbrev
_citation_year
_citation_journal_volume
_citation_journal_issue
_citation_page_first
_citation_page_last
_citation_journal_id_ASTM
primary 'Journal of Solid State Chemistry' 2011 184 4 790 796 JSSCBI
_publ_author_name
;
Lebedev, O.I.;Caignaert, V.;Raveau, B.;Pop, N.;Gozzo, F.;van 
Tendeloo, G.;Pralong, V.
;
_cell_length_a                     6.554(1)
_cell_length_b                     8.849(1)
_cell_length_c                     11.606(2)
_cell_angle_alpha                  77.54(1)
_cell_angle_beta                   96.34(1)
_cell_angle_gamma                  72.04(1)
_cell_volume                       613.77
_cell_formula_units_Z              2
_symmetry_space_group_name_H-M     'P -1'
_symmetry_Int_Tables_number        2
_refine_ls_R_factor_all            .0536
loop_
_symmetry_equiv_pos_site_id
_symmetry_equiv_pos_as_xyz
  1	'-x, -y, -z'
  2	'x, y, z'
loop_
_atom_type_symbol
_atom_type_oxidation_number
Li1+	1
Mo4.4+	4.4
O2-	-2
loop_
_atom_site_label
_atom_site_type_symbol
_atom_site_symmetry_multiplicity
_atom_site_Wyckoff_symbol
_atom_site_fract_x
_atom_site_fract_y
_atom_site_fract_z
_atom_site_occupancy
_atom_site_attached_hydrogens
_atom_site_U_iso_or_equiv
Mo1 Mo4.4+ 2 i 0.170(2) 0.7873(16) 0.6970(11) 1. 0 0.0127(6) 
Mo2 Mo4.4+ 2 i 0.229(2) 0.4713(17) 0.8317(12) 1. 0 0.0127(6) 
Mo3 Mo4.4+ 2 i 0.243(2) 0.9308(19) 0.3513(13) 1. 0 0.0127(6) 
Mo4 Mo4.4+ 2 i 0.6679(20) 0.1767(14) 0.8966(11) 1. 0 0.0127(6) 
Mo5 Mo4.4+ 2 i 0.709(2) 0.3423(17) 0.5262(13) 1. 0 0.0127(6) 
Li1 Li1+ 2 i 0.545(3) 0.829(3) 0.5778(18) 1. 0 0.0268(14) 
Li2 Li1+ 2 i 0.926(3) 0.585(3) 0.5993(18) 1. 0 0.0268(14) 
Li3 Li1+ 2 i 0.003(3) 0.258(3) 0.7572(18) 1. 0 0.0268(14) 
Li4 Li1+ 2 i 0.400(3) 0.999(3) 0.7737(18) 1. 0 0.0268(14) 
Li5 Li1+ 2 i 0.291(3) 0.123(3) 0.9930(18) 1. 0 0.0268(14) 
Li6 Li1+ 2 i 0.124(3) 0.108(3) 0.5421(18) 1. 0 0.0268(14) 
Li7 Li1+ 2 i 0.334(3) 0.317(2) 0.6346(18) 1. 0 0.0268(14) 
Li8 Li1+ 2 i 0.596(3) 0.518(3) 0.7217(18) 1. 0 0.0268(14) 
Li9 Li1+ 2 i 0.806(3) 0.737(2) 0.8142(18) 1. 0 0.0268(14) 
Li10 Li1+ 2 i 0.522(3) 0.350(2) 0.0711(18) 1. 0 0.0268(14) 
Li11 Li1+ 2 i 0.941(3) 0.066(3) 0.1050(18) 1. 0 0.0268(14) 
Li12 Li1+ 2 i 0.881(3) 0.400(3) 0.9574(18) 1. 0 0.0268(14) 
O1 O2- 2 i 0.478(2) 0.7512(18) 0.7522(13) 1. 0 0.0122(3) 
O2 O2- 2 i 0.141(2) 0.7015(19) 0.8653(13) 1. 0 0.0122(3) 
O3 O2- 2 i 0.256(2) 0.5621(18) 0.6506(14) 1. 0 0.0122(3) 
O4 O2- 2 i 0.853(2) 0.8254(18) 0.6395(13) 1. 0 0.0122(3) 
O5 O2- 2 i 0.207(3) 0.8715(19) 0.5252(13) 1. 0 0.0122(3) 
O6 O2- 2 i 0.081(3) 0.0197(18) 0.7198(13) 1. 0 0.0122(3) 
O7 O2- 2 i 0.205(3) 0.3723(19) 0.0111(14) 1. 0 0.0122(3) 
O8 O2- 2 i 0.568(3) 0.4220(19) 0.8985(14) 1. 0 0.0122(3) 
O9 O2- 2 i 0.920(2) 0.5015(18) 0.7814(13) 1. 0 0.0122(3) 
O10 O2- 2 i 0.333(3) 0.2267(19) 0.8175(13) 1. 0 0.0122(3) 
O11 O2- 2 i 0.546(3) 0.9222(18) 0.3957(14) 1. 0 0.0122(3) 
O12 O2- 2 i 0.331(2) 0.7228(18) 0.2988(13) 1. 0 0.0122(3) 
O13 O2- 2 i 0.271(3) 0.0180(18) 0.1731(13) 1. 0 0.0122(3) 
O14 O2- 2 i 0.969(2) 0.1638(19) 0.9331(14) 1. 0 0.0122(3) 
O15 O2- 2 i 0.613(2) 0.1120(17) 0.0547(13) 1. 0 0.0122(3) 
O16 O2- 2 i 0.005(3) 0.3357(19) 0.5730(14) 1. 0 0.0122(3) 
O17 O2- 2 i 0.390(2) 0.4131(18) 0.4613(13) 1. 0 0.0122(3) 

#End of data_261455-ICSD


