data_415260-ICSD
#?2014 by Fachinformationszentrum Karlsruhe, and the U.S. Secretary of 
#Commerce on behalf of the United States.  All rights reserved.
_database_code_ICSD                415260
_audit_creation_date               2006/10/01
_chemical_name_systematic
;
Potassium Strontium Tri-mu-imidocyclotriphosphate
;
_chemical_formula_structural       'K Sr (P O2 N H)3 (H2 O)4'
_chemical_formula_sum              'H11 K1 N3 O10 P3 Sr1'
_publ_section_title
;
Synthesis, crystal structures and properties of the 
trimetaphosphimates Na Ba (P O2 N H)3, K Sr (P O2 N H)3 4(H2 O) and N 
H4 Sr (P O2 N H)3 4(H2 O)
;
loop_
_citation_id
_citation_journal_abbrev
_citation_year
_citation_journal_volume
_citation_page_first
_citation_page_last
_citation_journal_id_ASTM
primary 'Solid State Sciences' 2005 7 1261 1271 SSSCFJ
_publ_author_name
;
Correll, S.;Sedlmaier, S.;Schnick, W.
;
_cell_length_a                     10.872(2)
_cell_length_b                     10.496(2)
_cell_length_c                     11.912(2)
_cell_angle_alpha                  90.00
_cell_angle_beta                   111.98(3)
_cell_angle_gamma                  90.00
_cell_volume                       1260.51
_cell_formula_units_Z              4
_symmetry_space_group_name_H-M     'P 1 21/n 1'
_symmetry_Int_Tables_number        14
_refine_ls_R_factor_all            .0399
loop_
_symmetry_equiv_pos_site_id
_symmetry_equiv_pos_as_xyz
  1	'-x+.5, y+.5, -z+.5'
  2	'-x, -y, -z'
  3	'x+.5, -y+.5, z+.5'
  4	'x, y, z'
loop_
_atom_type_symbol
_atom_type_oxidation_number
H1+	1
K1+	1
N3-	-3
O2-	-2
P5+	5
Sr2+	2
loop_
_atom_site_label
_atom_site_type_symbol
_atom_site_symmetry_multiplicity
_atom_site_Wyckoff_symbol
_atom_site_fract_x
_atom_site_fract_y
_atom_site_fract_z
_atom_site_occupancy
_atom_site_attached_hydrogens
_atom_site_U_iso_or_equiv
Sr1 Sr2+ 4 e 0.201281(19) 0.476150(18) 0.041451(19) 1 0 0.01038(5) 
K1 K1+ 4 e -0.43836(6) 0.13207(6) -0.20295(6) 1 0 0.02772(13) 
P1 P5+ 4 e 0.22264(5) 0.14460(5) 0.15424(5) 1 0 0.01038(11) 
P2 P5+ 4 e -0.04689(5) 0.22162(5) 0.00240(5) 1 0 0.00967(11) 
P3 P5+ 4 e 0.14812(5) 0.15964(5) -0.10683(5) 1 0 0.01029(11) 
N1 N3- 4 e 0.05823(17) 0.14842(17) 0.12675(17) 1 0 0.0122(4) 
H1 H1+ 4 e 0.0248 0.0799 0.1431 1 0 0.015 
N2 N3- 4 e -0.00838(17) 0.16195(16) -0.11121(17) 1 0 0.0119(3) 
H2 H1+ 4 e -0.0613 0.1814 -0.1767 1 0 0.014 
N3 N3- 4 e 0.23316(17) 0.08821(16) 0.02550(17) 1 0 0.0115(3) 
H3 H1+ 4 e 0.2207 0.0090 0.0158 1 0 0.014 
O1 O2- 4 e 0.27008(15) 0.27943(14) 0.17012(14) 1 0 0.0152(3) 
O2 O2- 4 e 0.28608(15) 0.05101(14) 0.25275(15) 1 0 0.0160(3) 
O3 O2- 4 e -0.01371(14) 0.36160(13) 0.02022(15) 1 0 0.0131(3) 
O4 O2- 4 e -0.18706(14) 0.18657(14) -0.01825(15) 1 0 0.0155(3) 
O5 O2- 4 e 0.20141(15) 0.29302(14) -0.10206(15) 1 0 0.0152(3) 
O6 O2- 4 e 0.15187(16) 0.07592(15) -0.20726(15) 1 0 0.0173(3) 
O7 O2- 4 e 0.21815(18) 0.62133(16) -0.13450(17) 1 0 0.0239(4) 
H4 H1+ 4 e 0.2258 0.6927 -0.1101 1 0 0.029 
H5 H1+ 4 e 0.2549 0.6219 -0.1798 1 0 0.029 
O8 O2- 4 e 0.44052(17) 0.5321(2) 0.10947(19) 1 0 0.0358(5) 
H6 H1+ 4 e 0.4571 0.5937 0.0795 1 0 0.043 
H7 H1+ 4 e 0.5098 0.5182 0.1554 1 0 0.043 
O9 O2- 4 e -0.51806(19) 0.24162(19) -0.0335(2) 1 0 0.0348(5) 
H8 H1+ 4 e -0.6078 0.2608 -0.0406 1 0 0.042 
H9 H1+ 4 e -0.4779 0.1914 0.0309 1 0 0.042 
O10 O2- 4 e -0.6164(3) -0.0900(2) -0.1668(2) 1 0 0.0555(7) 
H10 H1+ 4 e -0.6443 -0.1142 -0.2366 1 0 0.067 
H11 H1+ 4 e -0.6744 -0.0406 -0.1683 1 0 0.067 

loop_
_atom_site_aniso_label
_atom_site_aniso_type_symbol
_atom_site_aniso_U_11
_atom_site_aniso_U_22
_atom_site_aniso_U_33
_atom_site_aniso_U_12
_atom_site_aniso_U_13
_atom_site_aniso_U_23
Sr1 Sr2+ 0.01098(8) 0.00889(8) 0.01098(10) -0.00014(7) 0.00377(7) 
-0.00004(8)
K1 K1+ 0.0243(3) 0.0339(3) 0.0229(3) 0.0077(2) 0.0064(2) 0.0002(2)
P1 P5+ 0.0125(2) 0.0084(2) 0.0078(3) 0.00074(18) 0.0010(2) 0.0013(2)
P2 P5+ 0.0091(2) 0.0086(2) 0.0112(3) 0.00009(17) 0.0036(2) -0.00018(19)
P3 P5+ 0.0114(2) 0.0107(2) 0.0087(3) -0.00035(18) 0.0037(2) -0.0013(2)
N1 N3- 0.0138(8) 0.0110(8) 0.0126(10) -0.0003(6) 0.0058(7) 0.0027(7)
N2 N3- 0.0103(8) 0.0142(8) 0.0081(9) 0.0020(6) 0.0000(7) 0.0003(7)
N3 N3- 0.0140(8) 0.0088(8) 0.0107(10) 0.0015(6) 0.0033(7) -0.0010(7)
O1 O2- 0.0167(7) 0.0114(7) 0.0114(8) -0.0012(6) -0.0016(6) 0.0003(6)
O2 O2- 0.0204(8) 0.0138(7) 0.0112(8) 0.0046(6) 0.0029(6) 0.0049(6)
O3 O2- 0.0107(7) 0.0097(7) 0.0173(9) 0.0007(5) 0.0035(6) 0.0005(6)
O4 O2- 0.0114(7) 0.0151(7) 0.0204(10) -0.0017(6) 0.0064(6) -0.0026(6)
O5 O2- 0.0197(8) 0.0129(7) 0.0146(9) -0.0038(6) 0.0081(6) -0.0010(6)
O6 O2- 0.0189(8) 0.0203(8) 0.0136(9) 0.0013(6) 0.0070(7) -0.0040(6)
O7 O2- 0.0338(10) 0.0206(8) 0.0249(11) -0.0019(7) 0.0199(8) -0.0018(7)
O8 O2- 0.0139(8) 0.0502(12) 0.0377(13) -0.0041(8) 0.0033(8) 0.0201(10)
O9 O2- 0.0262(10) 0.0380(11) 0.0440(14) -0.0006(8) 0.0172(9) 0.0035(10)
O10 O2- 0.0715(17) 0.0556(15) 0.0284(14) 0.0340(13) 0.0061(12) -0.0071(11)
#End of data_415260-ICSD


