data_60536-ICSD
#?2014 by Fachinformationszentrum Karlsruhe, and the U.S. Secretary of 
#Commerce on behalf of the United States.  All rights reserved.
_database_code_ICSD                60536
_audit_creation_date               1986/12/03
_audit_update_record               2012/08/01
_chemical_name_systematic
;
Tripotassium Hexacyanoferrate(III) - Lt
;
_chemical_formula_structural       'K3 (Fe (C N)6)'
_chemical_formula_sum              'C6 Fe1 K3 N6'
_publ_section_title
;
Crystal structure of the room- and low-temperature phases of 
monoclinic potassium ferricyanide
;
loop_
_citation_id
_citation_journal_abbrev
_citation_year
_citation_journal_volume
_citation_page_first
_citation_page_last
_citation_journal_id_ASTM
primary 'Journal of the Physical Society of Japan' 1985 54 2184 2189 JUPSAU
2 'Phase Transition' 1992 38 127 220 PHTRDP
_publ_author_name
;
Morioka, Y.;Toriumi, K.;Ito, T.;Saito, A.;Nakagawa, I.
;
_cell_length_a                     14.021(2)
_cell_length_b                     10.401(1)
_cell_length_c                     8.339(2)
_cell_angle_alpha                  90.
_cell_angle_beta                   107.21(1)
_cell_angle_gamma                  90.
_cell_volume                       1161.65
_cell_formula_units_Z              4
_symmetry_space_group_name_H-M     'P 1 21/n 1'
_symmetry_Int_Tables_number        14
_refine_ls_R_factor_all            .027
loop_
_symmetry_equiv_pos_site_id
_symmetry_equiv_pos_as_xyz
  1	'-x+.5, y+.5, -z+.5'
  2	'-x, -y, -z'
  3	'x+.5, -y+.5, z+.5'
  4	'x, y, z'
loop_
_atom_type_symbol
_atom_type_oxidation_number
C2+	2
Fe3+	3
K1+	1
N3-	-3
loop_
_atom_site_label
_atom_site_type_symbol
_atom_site_symmetry_multiplicity
_atom_site_Wyckoff_symbol
_atom_site_fract_x
_atom_site_fract_y
_atom_site_fract_z
_atom_site_occupancy
_atom_site_attached_hydrogens
Fe1 Fe3+ 4 e 0.24646(2) 0.01021(3) -.00164(4) 1. 0 
K1 K1+ 4 e 0.24403(3) 0.01120(4) 0.49692(6) 1. 0 
K2 K1+ 4 e 0.50149(4) -.24807(5) 0.12551(7) 1. 0 
K3 K1+ 4 e 0.49936(4) 0.21903(5) 0.37569(6) 1. 0 
N1 N3- 4 e 0.34962(16) 0.27568(18) 0.05198(27) 1. 0 
N2 N3- 4 e 0.39647(14) -.07146(19) 0.33793(24) 1. 0 
N3 N3- 4 e 0.39917(15) -.0715(2) -.18799(25) 1. 0 
N4 N3- 4 e 0.14852(15) -.25991(18) -.05011(27) 1. 0 
N5 N3- 4 e 0.10050(15) 0.10213(20) -.33726(25) 1. 0 
N6 N3- 4 e 0.09796(15) 0.10287(19) 0.18502(25) 1. 0 
C1 C2+ 4 e 0.30814(16) 0.17861(20) 0.02983(27) 1. 0 
C2 C2+ 4 e 0.34069(16) -.04254(20) 0.21005(27) 1. 0 
C3 C2+ 4 e 0.34237(16) -.04214(20) -.11736(26) 1. 0 
C4 C2+ 4 e 0.18604(16) -.15968(20) -.03120(26) 1. 0 
C5 C2+ 4 e 0.15322(16) 0.06658(20) -.21179(27) 1. 0 
C6 C2+ 4 e 0.15184(15) 0.06648(19) 0.11360(25) 1. 0 

loop_
_atom_site_aniso_label
_atom_site_aniso_type_symbol
_atom_site_aniso_U_11
_atom_site_aniso_U_22
_atom_site_aniso_U_33
_atom_site_aniso_U_12
_atom_site_aniso_U_13
_atom_site_aniso_U_23
Fe1 Fe3+ 0.0078(1) 0.0090(1) 0.0057(1) 0.0003(1) 0.0024(1) 0.0003(1)
K1 K1+ 0.0130(2) 0.0129(2) 0.0094(2) 0.0012(2) -0.0039(2) -0.0002(1)
K2 K1+ 0.0119(3) 0.0236(2) 0.0088(2) -0.0024(2) 0.0036(2) -0.0005(2)
K3 K1+ 0.0111(2) 0.0187(2) 0.0083(2) 0.0012(2) 0.0031(2) 0.0002(2)
N1 N3- 0.0143(10) 0.0145(9) 0.0145(10) 0.0008(7) 0.0042(8) -0.0003(7)
N2 N3- 0.0131(9) 0.0187(9) 0.0128(9) 0.0015(7) 0.0032(7) 0.0011(7)
N3 N3- 0.0155(9) 0.0237(10) 0.123(9) 0.0032(8) 0.0046(7) 0.0004(8)
N4 N3- 0.0113(10) 0.0139(9) 0.0151(11) 0.0010(6) 0.0033(8) 0.0000(7)
N5 N3- 0.0163(9) 0.024(1) 0.0130(9) 0.0048(8) 0.0042(8) 0.0011(8)
N6 N3- 0.0155(9) 0.0202(9) 0.0129(9) 0.0039(7) 0.0046(7) 0.0007(7)
C1 C2+ 0.0099(10) 0.0149(10) 0.0085(9) 0.0026(7) 0.0034(8) 0.0017(7)
C2 C2+ 0.0114(9) 0.0112(9) 0.0117(10) 0.0000(7) 0.0065(8) -0.0007(7)
C3 C2+ 0.0121(9) 0.0118(9) 0.0069(9) 0.0000(7) 0.0009(7) 0.0005(7)
C4 C2+ 0.0097(9) 0.0144(9) 0.0085(9) 0.0016(7) 0.0024(7) -0.0002(7)
C5 C2+ 0.0118(10) 0.0134(10) 0.0106(10) 0.0008(7) 0.0055(8) -0.0011(7)
C6 C2+ 0.0115(9) 0.0119(9) 0.0064(9) 0.0001(7) 0.0013(7) 0.0021(7)
#End of data_60536-ICSD


