data_67256-ICSD
#?2014 by Fachinformationszentrum Karlsruhe, and the U.S. Secretary of 
#Commerce on behalf of the United States.  All rights reserved.
_database_code_ICSD                67256
_audit_creation_date               1990/12/27
_audit_update_record               2006/04/01
_chemical_name_systematic
;
Dicesium Potassium Hexacyanomanganate(III)
;
_chemical_formula_structural       'Cs2 K (Mn (C N)6)'
_chemical_formula_sum              'C6 Cs2 K1 Mn1 N6'
_publ_section_title
;
Hexacyanomanganate(III) mit Kryolithstruktur: Cs2 Na Mn (C N)6 und 
Cs2 K Mn (C N)6
;
loop_
_citation_id
_citation_journal_abbrev
_citation_year
_citation_journal_volume
_citation_page_first
_citation_page_last
_citation_journal_id_ASTM
primary 'Zeitschrift fuer Naturforschung, B: Chemical Sciences'
 1989 44 896 902 ZNBSEN
_publ_author_name                  'Ziegler, B.;Haegele, R.;Babel, D.'
_cell_length_a                     7.698(2)
_cell_length_b                     8.204(1)
_cell_length_c                     11.207(2)
_cell_angle_alpha                  90.
_cell_angle_beta                   90.25(1)
_cell_angle_gamma                  90.
_cell_volume                       707.76
_cell_formula_units_Z              2
_symmetry_space_group_name_H-M     'P 1 21/n 1'
_symmetry_Int_Tables_number        14
_refine_ls_R_factor_all            .046
loop_
_symmetry_equiv_pos_site_id
_symmetry_equiv_pos_as_xyz
  1	'-x+.5, y+.5, -z+.5'
  2	'-x, -y, -z'
  3	'x+.5, -y+.5, z+.5'
  4	'x, y, z'
loop_
_atom_type_symbol
_atom_type_oxidation_number
C2+	2
Cs1+	1
K1+	1
Mn3+	3
N3-	-3
loop_
_atom_site_label
_atom_site_type_symbol
_atom_site_symmetry_multiplicity
_atom_site_Wyckoff_symbol
_atom_site_fract_x
_atom_site_fract_y
_atom_site_fract_z
_atom_site_occupancy
_atom_site_attached_hydrogens
Cs1 Cs1+ 4 e 0.52158(5) -.06944(4) 0.24929(3) 1. 0 
K1 K1+ 2 b 0 0 0.5 1. 0 
Mn1 Mn3+ 2 a 0 0 0 1. 0 
C1 C2+ 4 e 0.0724(6) 0.0227(6) 0.1702(4) 1. 0 
N1 N3- 4 e 0.1160(6) 0.0398(6) 0.2668(4) 1. 0 
C2 C2+ 4 e -.2131(6) 0.1299(6) 0.0332(4) 1. 0 
N2 N3- 4 e -.3360(6) 0.2051(6) 0.0536(4) 1. 0 
C3 C2+ 4 e 0.1281(6) 0.2052(6) -.0397(4) 1. 0 
N3 N3- 4 e 0.2015(6) 0.3207(6) -.0647(4) 1. 0 

loop_
_atom_site_aniso_label
_atom_site_aniso_type_symbol
_atom_site_aniso_U_11
_atom_site_aniso_U_22
_atom_site_aniso_U_33
_atom_site_aniso_U_12
_atom_site_aniso_U_13
_atom_site_aniso_U_23
Cs1 Cs1+ 0.0551(2) 0.0417(2) 0.0527(2) -.0055(2) 0.0018(2) 0.0015(3)
K1 K1+ 0.0373(8) 0.032(1) 0.034(1) -.0003(7) -.0017(7) 0.0008(8)
Mn1 Mn3+ 0.0291(5) 0.0215(5) 0.0245(5) 0.0007(4) 0.0008(4) 0.0014(5)
C1 C2+ 0.040(3) 0.031(3) 0.035(3) 0.005(2) 0.004(2) -.003(2)
N1 N3- 0.072(3) 0.067(4) 0.032(3) 0.011(3) -.005(2) -.002(3)
C2 C2+ 0.042(3) 0.031(3) 0.031(3) 0.000(2) 0.003(2) 0.003(2)
N2 N3- 0.054(3) 0.050(3) 0.074(4) 0.020(3) 0.015(3) 0.015(3)
C3 C2+ 0.030(3) 0.036(3) 0.037(3) -.002(2) -.003(2) 0.001(2)
N3 N3- 0.054(3) 0.039(3) 0.072(3) -.015(2) -.008(3) 0.015(3)
#End of data_67256-ICSD


