data_619339-ICSD
#?2014 by Fachinformationszentrum Karlsruhe, and the U.S. Secretary of 
#Commerce on behalf of the United States.  All rights reserved.
_database_code_ICSD                619339
_audit_creation_date               2008/08/01
_audit_update_record               2010/02/01
_chemical_name_systematic          'Calcium Hydride'
_chemical_formula_structural       'Ca H2'
_chemical_formula_sum              'H2 Ca1'
_publ_section_title                'Konstitution der Erdalkalihydride'
loop_
_citation_id
_citation_journal_abbrev
_citation_year
_citation_journal_volume
_citation_page_first
_citation_page_last
_citation_journal_id_ASTM
primary 'Zeitschrift fuer Elektrochemie und Angewandte Physikalische Chemie'
 1935 41 33 52 ZEAPAA
_publ_author_name                  'Zintl, E.;Harder, A.'
_cell_length_a                     5.9480
_cell_length_b                     6.8520
_cell_length_c                     3.6070
_cell_angle_alpha                  90.0
_cell_angle_beta                   90.0
_cell_angle_gamma                  90.0
_cell_volume                       147.01
_cell_formula_units_Z              4
_symmetry_space_group_name_H-M     'P n a m'
_symmetry_Int_Tables_number        62
loop_
_symmetry_equiv_pos_site_id
_symmetry_equiv_pos_as_xyz
  1	'x+.5, -y+.5, z'
  2	'x, y, -z+.5'
  3	'-x+.5, y+.5, z+.5'
  4	'-x, -y, -z'
  5	'-x+.5, y+.5, -z'
  6	'-x, -y, z+.5'
  7	'x+.5, -y+.5, -z+.5'
  8	'x, y, z'
loop_
_atom_type_symbol
_atom_type_oxidation_number
Ca2+	2
H1-	-1
loop_
_atom_site_label
_atom_site_type_symbol
_atom_site_symmetry_multiplicity
_atom_site_Wyckoff_symbol
_atom_site_fract_x
_atom_site_fract_y
_atom_site_fract_z
_atom_site_occupancy
_atom_site_attached_hydrogens
Ca1 Ca2+ 4 c 0.26000 0.11000 0.25 1.000 0 
H1 H1- 4 c 0.26000 0.43000 0.25 1.000 0 
H2 H1- 4 c 0.49600 0.74200 0.25 1.000 0 

#End of data_619339-ICSD


