data_425061-ICSD
#?2014 by Fachinformationszentrum Karlsruhe, and the U.S. Secretary of 
#Commerce on behalf of the United States.  All rights reserved.
_database_code_ICSD                425061
_audit_creation_date               2014/08/01
_chemical_name_systematic          'Lithium Thiocyanate'
_chemical_formula_structural       'Li (S C N)'
_chemical_formula_sum              'C1 Li1 N1 S1'
_publ_section_title
;
Single-crystal structures and vibrational spectra of Li [S C N] and 
Li [S C N] * 2 H2 O
;
loop_
_citation_id
_citation_journal_abbrev
_citation_year
_citation_journal_volume
_citation_journal_issue
_citation_page_first
_citation_page_last
_citation_journal_id_ASTM
primary 'Zeitschrift fuer Naturforschung, B: Chemical Sciences'
 2014 69 1 15 24 ZNBSEN
_publ_author_name
;
Olaf Reckeweg;Armin Schulz;Bjoern Blaschkowski;Thomas Schleid;Francis 
J. DiSalvo
;
_cell_length_a                     12.151(3)
_cell_length_b                     3.7361(11)
_cell_length_c                     5.2990(15)
_cell_angle_alpha                  90.00
_cell_angle_beta                   90.00
_cell_angle_gamma                  90.00
_cell_volume                       240.56
_cell_formula_units_Z              4
_symmetry_space_group_name_H-M     'P n m a'
_symmetry_Int_Tables_number        62
_refine_ls_R_factor_all            .0266
loop_
_symmetry_equiv_pos_site_id
_symmetry_equiv_pos_as_xyz
  1	'x+.5, y, -z+.5'
  2	'x, -y+.5, z'
  3	'-x+.5, y+.5, z+.5'
  4	'-x, -y, -z'
  5	'-x+.5, -y, z+.5'
  6	'-x, y+.5, -z'
  7	'x+.5, -y+.5, -z+.5'
  8	'x, y, z'
loop_
_atom_type_symbol
_atom_type_oxidation_number
C1+	1
Li1+	1
N3-	-3
S1+	1
loop_
_atom_site_label
_atom_site_type_symbol
_atom_site_symmetry_multiplicity
_atom_site_Wyckoff_symbol
_atom_site_fract_x
_atom_site_fract_y
_atom_site_fract_z
_atom_site_occupancy
_atom_site_attached_hydrogens
_atom_site_U_iso_or_equiv
Li1 Li1+ 4 c 0.3985(3) 0.2500 0.0590(8) 1 0 0.0247(10) 
S1 S1+ 4 c 0.18762(5) 0.2500 0.85799(11) 1 0 0.01424(18) 
C1 C1+ 4 c 0.10922(17) 0.2500 0.1105(4) 1 0 0.0125(5) 
N2 N3- 4 c 0.05491(16) 0.2500 0.2911(4) 1 0 0.0188(5) 

loop_
_atom_site_aniso_label
_atom_site_aniso_type_symbol
_atom_site_aniso_U_11
_atom_site_aniso_U_22
_atom_site_aniso_U_33
_atom_site_aniso_U_12
_atom_site_aniso_U_13
_atom_site_aniso_U_23
Li1 Li1+ 0.018(2) 0.032(3) 0.024(2) 0.000 -0.0056(18) 0.000
S1 S1+ 0.0123(3) 0.0201(3) 0.0103(3) 0.000 0.0015(2) 0.000
C1 C1+ 0.0096(10) 0.0139(11) 0.0140(12) 0.000 -0.0049(9) 0.000
N2 N3- 0.0129(9) 0.0299(12) 0.0138(10) 0.000 0.0000(8) 0.000
#End of data_425061-ICSD


