data_188683-ICSD
#?2014 by Fachinformationszentrum Karlsruhe, and the U.S. Secretary of 
#Commerce on behalf of the United States.  All rights reserved.
_database_code_ICSD                188683
_audit_creation_date               2014/02/01
_chemical_name_systematic
;
Calcium Tin Hexakis(dihydrogen Phosphate(I))
;
_chemical_formula_structural       'Ca (Sn (H2 P O2)6)'
_chemical_formula_sum              'H12 Ca1 O12 P6 Sn1'
_publ_section_title
;
Calcium hexakis(dihydrogenphosphito)stannate(IV), Ca (Sn (H2 P O2)6), 
with some remarks on the so-called Ge2 (H2 P O2)6 structure type
;
loop_
_citation_id
_citation_journal_abbrev
_citation_year
_citation_journal_volume
_citation_journal_issue
_citation_page_first
_citation_page_last
_citation_journal_id_ASTM
primary 'Acta Crystallographica, Section E. Structure Reports Online'
 2013 69 8 i44 i44 ACSEBH
_publ_author_name                  'Tobias Gieschen;Hans Reuter'
_cell_length_a                     11.8619(4)
_cell_length_b                     11.8619(4)
_cell_length_c                     9.8668(4)
_cell_angle_alpha                  90.
_cell_angle_beta                   90.
_cell_angle_gamma                  120.
_cell_volume                       1202.31
_cell_formula_units_Z              3
_symmetry_space_group_name_H-M     'R -3 H'
_symmetry_Int_Tables_number        148
_refine_ls_R_factor_all            .02
loop_
_symmetry_equiv_pos_site_id
_symmetry_equiv_pos_as_xyz
  1	'x-y, x, -z'
  2	'y, -x+y, -z'
  3	'-x, -y, -z'
  4	'-x+y, -x, z'
  5	'-y, x-y, z'
  6	'x, y, z'
  7	'x-y+.6666, x+.3333, -z+.3333'
  8	'x-y+.3333, x+.6666, -z+.6666'
  9	'y+.6666, -x+y+.3333, -z+.3333'
 10	'y+.3333, -x+y+.6666, -z+.6666'
 11	'-x+.6666, -y+.3333, -z+.3333'
 12	'-x+.3333, -y+.6666, -z+.6666'
 13	'-x+y+.6666, -x+.3333, z+.3333'
 14	'-x+y+.3333, -x+.6666, z+.6666'
 15	'-y+.6666, x-y+.3333, z+.3333'
 16	'-y+.3333, x-y+.6666, z+.6666'
 17	'x+.6666, y+.3333, z+.3333'
 18	'x+.3333, y+.6666, z+.6666'
loop_
_atom_type_symbol
_atom_type_oxidation_number
Ca2+	2
H1+	1
O2-	-2
P1+	1
Sn4+	4
loop_
_atom_site_label
_atom_site_type_symbol
_atom_site_symmetry_multiplicity
_atom_site_Wyckoff_symbol
_atom_site_fract_x
_atom_site_fract_y
_atom_site_fract_z
_atom_site_occupancy
_atom_site_attached_hydrogens
_atom_site_U_iso_or_equiv
Sn1 Sn4+ 3 a 1.0000 1.0000 0.0000 1 0 0.01807(11) 
Ca1 Ca2+ 3 b 1.0000 1.0000 0.5000 1 0 0.0192(2) 
P1 P1+ 18 f 0.78540(5) 0.97330(6) 0.22095(6) 1 0 0.02205(14) 
H1 H1+ 18 f 0.7214 0.8488 0.1657 1 0 0.040(6) 
H2 H1+ 18 f 0.7073 1.0296 0.2122 1 0 0.040(6) 
O1 O2- 18 f 0.89193(16) 1.05182(16) 0.11547(15) 1 0 0.0244(3) 
O2 O2- 18 f 0.82943(19) 0.9728(2) 0.36084(18) 1 0 0.0408(5) 

loop_
_atom_site_aniso_label
_atom_site_aniso_type_symbol
_atom_site_aniso_U_11
_atom_site_aniso_U_22
_atom_site_aniso_U_33
_atom_site_aniso_U_12
_atom_site_aniso_U_13
_atom_site_aniso_U_23
Sn1 Sn4+ 0.02121(13) 0.02121(13) 0.01179(16) 0.01061(7) 0.000 0.000
Ca1 Ca2+ 0.0229(3) 0.0229(3) 0.0117(4) 0.01146(15) 0.000 0.000
P1 P1+ 0.0205(3) 0.0291(3) 0.0184(3) 0.0138(2) 0.00185(19) 0.0010(2)
O1 O2- 0.0300(8) 0.0253(8) 0.0196(7) 0.0150(7) 0.0060(6) 0.0019(6)
O2 O2- 0.0325(10) 0.0739(15) 0.0187(8) 0.0286(10) 0.0021(7) 0.0070(8)
#End of data_188683-ICSD


