data_98822-ICSD
#?2014 by Fachinformationszentrum Karlsruhe, and the U.S. Secretary of 
#Commerce on behalf of the United States.  All rights reserved.
_database_code_ICSD                98822
_audit_creation_date               2005/04/01
_chemical_name_systematic          'Dicalcium Diferrate(III)'
_chemical_formula_structural       'Ca2 (Fe2 O5)'
_chemical_formula_sum              'Ca2 Fe2 O5'
_publ_section_title
;
Structural variations in the brownmillerite series Ca2 (Fe2-x Alx) 
O5: single-crystal X-ray diffraction at 25C and high-temperature X-
ray powder diffraction (25C < T < 1000C)
;
loop_
_citation_id
_citation_journal_abbrev
_citation_year
_citation_journal_volume
_citation_page_first
_citation_page_last
_citation_journal_id_ASTM
primary 'American Mineralogist' 2004 89 405 420 AMMIAY
_publ_author_name
;
Redhammer, G.J.;Tippelt, G.;Roth, G.;Amthauer, G.
;
_cell_length_a                     5.4268(3)
_cell_length_b                     14.7631(5)
_cell_length_c                     5.5969(2)
_cell_angle_alpha                  90
_cell_angle_beta                   90
_cell_angle_gamma                  90
_cell_volume                       448.4
_cell_formula_units_Z              4
_symmetry_space_group_name_H-M     'P n m a'
_symmetry_Int_Tables_number        62
_refine_ls_R_factor_all            .0215
loop_
_symmetry_equiv_pos_site_id
_symmetry_equiv_pos_as_xyz
  1	'x+.5, y, -z+.5'
  2	'x, -y+.5, z'
  3	'-x+.5, y+.5, z+.5'
  4	'-x, -y, -z'
  5	'-x+.5, -y, z+.5'
  6	'-x, y+.5, -z'
  7	'x+.5, -y+.5, -z+.5'
  8	'x, y, z'
loop_
_atom_type_symbol
_atom_type_oxidation_number
Ca2+	2
Fe3+	3
O2-	-2
loop_
_atom_site_label
_atom_site_type_symbol
_atom_site_symmetry_multiplicity
_atom_site_Wyckoff_symbol
_atom_site_fract_x
_atom_site_fract_y
_atom_site_fract_z
_atom_site_occupancy
_atom_site_attached_hydrogens
_atom_site_U_iso_or_equiv
Ca1 Ca2+ 8 d 0.4808(1) 0.10798(4) 0.0227(1) 1. 0 0.0073(2) 
Fe1 Fe3+ 4 a 0 0 0 1. 0 0.0049(2) 
Fe2 Fe3+ 4 c 0.9461(1) 0.250 0.93403(9) 1. 0 0.0046(2) 
O1 O2- 8 d 0.2628(3) 0.9843(1) 0.2370(3) 1. 0 0.0070(4) 
O2 O2- 8 d 0.0240(3) 0.1406(1) 0.0735(3) 1. 0 0.0087(4) 
O3 O2- 4 c 0.5991(5) 0.250 0.8741(4) 1. 0 0.0074(5) 

#End of data_98822-ICSD


