data_16006-ICSD
#?2014 by Fachinformationszentrum Karlsruhe, and the U.S. Secretary of 
#Commerce on behalf of the United States.  All rights reserved.
_database_code_ICSD                16006
_audit_creation_date               1980/01/01
_audit_update_record               2012/08/01
_chemical_name_systematic
;
Tetraargentotelluronium Nitrate - Beta
;
_chemical_formula_structural       'Ag4 Te (N O3)2'
_chemical_formula_sum              'Ag4 N2 O6 Te1'
_publ_section_title
;
Die Kristallstruktur des beta-Tetraargentotellurnitrates, beta-Ag4 Te 
(N O3)2
;
loop_
_citation_id
_citation_journal_abbrev
_citation_year
_citation_journal_volume
_citation_page_first
_citation_page_last
_citation_journal_id_ASTM
primary 'Acta Crystallographica B (24,1968-38,1982)' 1969 25 2645 2648 ACBCAR
_publ_author_name
;
Schultze-Rhonhof, E.;Bergerhoff, G.
;
_cell_length_a                     8.627(3)
_cell_length_b                     8.627(3)
_cell_length_c                     8.627(3)
_cell_angle_alpha                  90.
_cell_angle_beta                   90.
_cell_angle_gamma                  90.
_cell_volume                       642.07
_cell_formula_units_Z              4
_symmetry_space_group_name_H-M     'P 21 3'
_symmetry_Int_Tables_number        198
_refine_ls_R_factor_all            .112
loop_
_symmetry_equiv_pos_site_id
_symmetry_equiv_pos_as_xyz
  1	'-z+.5, -x, y+.5'
  2	'-y+.5, -z, x+.5'
  3	'-x+.5, -y, z+.5'
  4	'-z, x+.5, -y+.5'
  5	'-y, z+.5, -x+.5'
  6	'-x, y+.5, -z+.5'
  7	'z+.5, -x+.5, -y'
  8	'y+.5, -z+.5, -x'
  9	'x+.5, -y+.5, -z'
 10	'z, x, y'
 11	'y, z, x'
 12	'x, y, z'
loop_
_atom_type_symbol
_atom_type_oxidation_number
Ag1+	1
N5+	5
O2-	-2
Te2-	-2
loop_
_atom_site_label
_atom_site_type_symbol
_atom_site_symmetry_multiplicity
_atom_site_Wyckoff_symbol
_atom_site_fract_x
_atom_site_fract_y
_atom_site_fract_z
_atom_site_occupancy
_atom_site_attached_hydrogens
_atom_site_B_iso_or_equiv
Te1 Te2- 4 a 0.684(1) 0.684(1) 0.684(1) 1. 0 0.88 
Ag1 Ag1+ 4 a 0.977(2) 0.977(2) 0.977(2) 1. 0 2.49 
Ag2 Ag1+ 12 b 0.0115(4) 0.0865(4) 0.2884(4) 1. 0 1.79 
N1 N5+ 4 a 0.812(9) 0.812(9) 0.812(9) 1. 0 7.9 
O1 O2- 12 b 0.92(2) 0.72(2) 0.79(2) 1. 0 7.9 
N2 N5+ 4 a 0.312(8) 0.312(8) 0.312(8) 1. 0 2.9 
O2 O2- 12 b 0.31(2) 0.41(2) 0.21(2) 1. 0 2.9 

#End of data_16006-ICSD


