data_62545-ICSD
#?2014 by Fachinformationszentrum Karlsruhe, and the U.S. Secretary of 
#Commerce on behalf of the United States.  All rights reserved.
_database_code_ICSD                62545
_audit_creation_date               1988/02/22
_audit_update_record               1998/06/26
_chemical_name_systematic
;
Calcium Magnesium Catena-disilicate
;
_chemical_formula_structural       'Ca Mg (Si2 O6)'
_chemical_formula_sum              'Ca1 Mg1 O6 Si2'
_chemical_name_mineral             Diopside
_publ_section_title
;
Structure refinements of solid solutions in the system Ca O * Mg O *2 
Si O2 - Al2 O3.
;
loop_
_citation_id
_citation_journal_abbrev
_citation_year
_citation_journal_volume
_citation_page_first
_citation_page_last
_citation_journal_id_ASTM
primary 'Yoop Hakoechi (Journal of the Korean Ceramic Society)'
 1986 23 25 34 YPHJAP
_publ_author_name                  'Ahn, Y.P.;Kim, B.-H.;Ishizowa, N.'
_cell_length_a                     9.751(3)
_cell_length_b                     8.931(3)
_cell_length_c                     5.255(2)
_cell_angle_alpha                  90.
_cell_angle_beta                   105.89(3)
_cell_angle_gamma                  90.
_cell_volume                       440.15
_cell_formula_units_Z              4
_symmetry_space_group_name_H-M     'C 1 2/c 1'
_symmetry_Int_Tables_number        15
_refine_ls_R_factor_all            .025
loop_
_symmetry_equiv_pos_site_id
_symmetry_equiv_pos_as_xyz
  1	'x, -y, z+.5'
  2	'-x, -y, -z'
  3	'-x, y, -z+.5'
  4	'x, y, z'
  5	'x+.5, -y+.5, z+.5'
  6	'-x+.5, -y+.5, -z'
  7	'-x+.5, y+.5, -z+.5'
  8	'x+.5, y+.5, z'
loop_
_atom_type_symbol
_atom_type_oxidation_number
Ca2+	2
Mg2+	2
O2-	-2
Si4+	4
loop_
_atom_site_label
_atom_site_type_symbol
_atom_site_symmetry_multiplicity
_atom_site_Wyckoff_symbol
_atom_site_fract_x
_atom_site_fract_y
_atom_site_fract_z
_atom_site_occupancy
_atom_site_attached_hydrogens
Mg1 Mg2+ 4 e 0 0.90815(8) 0.25 1. 0 
Ca1 Ca2+ 4 e 0 0.30121(4) 0.25 1. 0 
Si1 Si4+ 8 f 0.28652(4) 0.093330(4) 0.23017(7) 1. 0 
O1 O2- 8 f 0.11580(9) 0.0876 0.1423(2) 1. 0 
O2 O2- 8 f 0.3616(1) 0.2497(1) 0.3199(2) 1. 0 
O3 O2- 8 f 0.3506(1) 0.0180(1) 0.9955(2) 1. 0 

#End of data_62545-ICSD


