data_155020-ICSD
#?2014 by Fachinformationszentrum Karlsruhe, and the U.S. Secretary of 
#Commerce on behalf of the United States.  All rights reserved.
_database_code_ICSD                155020
_audit_creation_date               2007/04/01
_chemical_name_systematic          'Dilithium Zirconium Fluoride - Hp'
_chemical_formula_structural       'Li2 Zr F6'
_chemical_formula_sum              'F6 Li2 Zr1'
_publ_section_title
;
Dilithium zirconium hexafluoride Li2 Zr F6 at high pressures: a new 
monoclinic phase
;
loop_
_citation_id
_citation_journal_abbrev
_citation_year
_citation_journal_volume
_citation_page_first
_citation_page_last
_citation_journal_id_ASTM
primary 'Journal of Physics and Chemistry of Solids' 2005 66 1769 1774 JPCSAW
_publ_author_name
;
Grzechnik, A.;Dmitriev, V.;Weber, H.P.
;
_cell_length_a                     9.651(6)
_cell_length_b                     7.533(8)
_cell_length_c                     4.988(3)
_cell_angle_alpha                  90.
_cell_angle_beta                   114.94(4)
_cell_angle_gamma                  90.
_cell_volume                       328.82
_cell_formula_units_Z              4
_symmetry_space_group_name_H-M     'C 1 2/c 1'
_symmetry_Int_Tables_number        15
_refine_ls_R_factor_all            .0626
loop_
_symmetry_equiv_pos_site_id
_symmetry_equiv_pos_as_xyz
  1	'x, -y, z+.5'
  2	'-x, -y, -z'
  3	'-x, y, -z+.5'
  4	'x, y, z'
  5	'x+.5, -y+.5, z+.5'
  6	'-x+.5, -y+.5, -z'
  7	'-x+.5, y+.5, -z+.5'
  8	'x+.5, y+.5, z'
loop_
_atom_type_symbol
_atom_type_oxidation_number
F1-	-1
Li1+	1
Zr4+	4
loop_
_atom_site_label
_atom_site_type_symbol
_atom_site_symmetry_multiplicity
_atom_site_Wyckoff_symbol
_atom_site_fract_x
_atom_site_fract_y
_atom_site_fract_z
_atom_site_occupancy
_atom_site_attached_hydrogens
_atom_site_U_iso_or_equiv
Li1 Li1+ 8 f 0.255(7) 0.536(9) 0.576(15) 1. 0 0 
Zr1 Zr4+ 4 e 0 0.315(1) 0.250 1. 0 0.003(1) 
F1 F1- 8 f 0.121(3) 0.233(3) 0.060(6) 1. 0 0.042(8) 
F2 F1- 8 f 0.395(4) 0.041(3) 0.350(6) 1. 0 0.042(8) 
F3 F1- 8 f 0.112(2) 0.101(3) 0.480(6) 1. 0 0.042(8) 

#End of data_155020-ICSD


