data_82621-ICSD
#?2014 by Fachinformationszentrum Karlsruhe, and the U.S. Secretary of 
#Commerce on behalf of the United States.  All rights reserved.
_database_code_ICSD                82621
_audit_creation_date               1997/11/10
_chemical_name_systematic
;
Potassium Chromium Bis(chromate(VI))
;
_chemical_formula_structural       'K Cr (Cr O4)2'
_chemical_formula_sum              'Cr3 K1 O8'
_publ_section_title
;
Synthesis, thermal decomposition and vibrational spectra of the 
phases M(I) Cr (Cr O4)2 (M(I) = Na, K, Rb)
;
loop_
_citation_id
_citation_journal_abbrev
_citation_year
_citation_journal_volume
_citation_journal_issue
_citation_page_first
_citation_page_last
_citation_journal_id_ASTM
primary 'Journal of Physics and Chemistry of Solids' 1996 57 12 1929 1935 JPCSAW
_publ_author_name
;
Saavedra, M.J.;Parada, C.;Baran, E.J.
;
_cell_length_a                     8.5716(5)
_cell_length_b                     5.4625(3)
_cell_length_c                     7.6234(5)
_cell_angle_alpha                  90.
_cell_angle_beta                   95.199(4)
_cell_angle_gamma                  90.
_cell_volume                       355.48
_cell_formula_units_Z              2
_symmetry_space_group_name_H-M     'C 1 2/m 1'
_symmetry_Int_Tables_number        12
_refine_ls_R_factor_all            .07
loop_
_symmetry_equiv_pos_site_id
_symmetry_equiv_pos_as_xyz
  1	'-x, y, -z'
  2	'-x, -y, -z'
  3	'x, -y, z'
  4	'x, y, z'
  5	'-x+.5, y+.5, -z'
  6	'-x+.5, -y+.5, -z'
  7	'x+.5, -y+.5, z'
  8	'x+.5, y+.5, z'
loop_
_atom_type_symbol
_atom_type_oxidation_number
Cr3+	3
Cr6+	6
K1+	1
O2-	-2
loop_
_atom_site_label
_atom_site_type_symbol
_atom_site_symmetry_multiplicity
_atom_site_Wyckoff_symbol
_atom_site_fract_x
_atom_site_fract_y
_atom_site_fract_z
_atom_site_occupancy
_atom_site_attached_hydrogens
_atom_site_B_iso_or_equiv
K1 K1+ 2 a 0 0 0 1. 0 0.437(1) 
Cr1 Cr3+ 2 c 0 0 0.5 1. 0 0.104(1) 
Cr2 Cr6+ 4 i 0.6248(4) 0 0.2919(5) 1. 0 0.246(1) 
O1 O2- 4 i 0.2279(14) 0 0.5591(16) 1. 0 0.3(1) 
O2 O2- 4 i 0.6863(15) 0 0.0884(18) 1. 0 0.3(1) 
O3 O2- 8 j 0.0162(9) 0.2509(14) 0.3079(11) 1. 0 0.3(1) 

#End of data_82621-ICSD


