data_415570-ICSD
#?2014 by Fachinformationszentrum Karlsruhe, and the U.S. Secretary of 
#Commerce on behalf of the United States.  All rights reserved.
_database_code_ICSD                415570
_audit_creation_date               2012/08/01
_audit_update_record               2013/08/01
_chemical_name_systematic
;
Potassium Disilver(I) Copper(I) Tetracyanide - Phase I
;
_chemical_formula_structural       'K (Ag2 Cu (C N)4)'
_chemical_formula_sum              'C4 Ag2 Cu1 K1 N4'
_publ_section_title
;
Interpenetrating copper-silver cyanometallate networks: polymorphs or 
topological isomers
;
loop_
_citation_id
_citation_journal_abbrev
_citation_year
_citation_journal_volume
_citation_journal_issue
_citation_page_first
_citation_page_last
_citation_journal_id_ASTM
primary 'Angewandte Chemie. International Edition' 2005 44 48 7942 7946 ACIEF5
_publ_author_name
;
Chippindale, A.M.;Cheyne, S.M.;Hibble, S.J.
;
_cell_length_a                     8.1480(4)
_cell_length_b                     7.1005(3)
_cell_length_c                     7.4533(3)
_cell_angle_alpha                  90
_cell_angle_beta                   101.760(2)
_cell_angle_gamma                  90
_cell_volume                       422.16
_cell_formula_units_Z              2
_symmetry_space_group_name_H-M     'P 1 2/c 1'
_symmetry_Int_Tables_number        13
_refine_ls_R_factor_all            .0403
loop_
_symmetry_equiv_pos_site_id
_symmetry_equiv_pos_as_xyz
  1	'x, -y, z+.5'
  2	'-x, -y, -z'
  3	'-x, y, -z+.5'
  4	'x, y, z'
loop_
_atom_type_symbol
_atom_type_oxidation_number
Ag1+	1
C2+	2
Cu1+	1
K1+	1
N3-	-3
loop_
_atom_site_label
_atom_site_type_symbol
_atom_site_symmetry_multiplicity
_atom_site_Wyckoff_symbol
_atom_site_fract_x
_atom_site_fract_y
_atom_site_fract_z
_atom_site_occupancy
_atom_site_attached_hydrogens
_atom_site_U_iso_or_equiv
Ag1 Ag1+ 2 a 0.0000 0.0000 1.0000 1.0000 0 0.0263 
Ag2 Ag1+ 2 e 0.0000 0.43399(11) 0.2500 1.0000 0 0.0251 
Cu1 Cu1+ 2 f 0.5000 0.25648(14) 0.7500 1.0000 0 0.0167 
K1 K1+ 2 f 0.5000 -0.7527(3) 0.2500 1.0000 0 0.0199 
N1 N3- 4 g 0.3381(6) 0.1154(7) 0.8690(6) 1.0000 0 0.0189 
N2 N3- 4 g 0.3362(6) 0.3983(7) 0.5589(6) 1.0000 0 0.0191 
C1 C2+ 4 g 0.2174(7) 0.0743(9) 0.9156(8) 1.0000 0 0.0190 
C2 C2+ 4 g 0.2151(7) 0.4202(8) 0.4510(8) 1.0000 0 0.0183 

loop_
_atom_site_aniso_label
_atom_site_aniso_type_symbol
_atom_site_aniso_U_11
_atom_site_aniso_U_22
_atom_site_aniso_U_33
_atom_site_aniso_U_12
_atom_site_aniso_U_13
_atom_site_aniso_U_23
Ag1 Ag1+ 0.0170(3) 0.0325(5) 0.0315(4) -0.0047(2) 0.0096(3) 0.0045(2)
Ag2 Ag1+ 0.0174(3) 0.0309(4) 0.0232(3) 0.0000 -0.0048(2) 0.0000
Cu1 Cu1+ 0.0122(4) 0.0231(5) 0.0149(4) 0.0000 0.0027(3) 0.0000
K1 K1+ 0.0206(8) 0.0239(9) 0.0156(8) 0.0000 0.0045(6) 0.0000
N1 N3- 0.022(2) 0.017(2) 0.017(2) -0.0019(18) 0.0027(17) 0.0015(17)
N2 N3- 0.020(2) 0.019(3) 0.018(2) 0.0018(19) 0.0044(18) 0.0003(17)
C1 C2+ 0.016(3) 0.022(3) 0.020(3) -0.001(2) 0.006(2) 0.003(2)
C2 C2+ 0.013(3) 0.018(3) 0.023(3) 0.000(2) 0.0026(19) -0.001(2)
#End of data_415570-ICSD


