data_185447-ICSD
#?2014 by Fachinformationszentrum Karlsruhe, and the U.S. Secretary of 
#Commerce on behalf of the United States.  All rights reserved.
_database_code_ICSD                185447
_audit_creation_date               2013/02/01
_chemical_name_systematic          'Calcium Titanate'
_chemical_formula_structural       'Ca (Ti O3)'
_chemical_formula_sum              'Ca1 O3 Ti1'
_publ_section_title
;
High-pressure crystal structure of elastically isotropic Ca Ti O3 
perovskite under hydrostatic and non-hydrostatic conditions
;
loop_
_citation_id
_citation_journal_abbrev
_citation_year
_citation_journal_volume
_citation_page_first
_citation_page_last
_citation_journal_id_ASTM
primary 'Journal of Physics: Condensed Matter' 2011 23 455401-1 455401-10 JCOMEL
_publ_author_name
;
Zhao Jing;Ross, N.L.;Wang Di;Angel, R.J.
;
_cell_length_a                     5.3431(4)
_cell_length_b                     5.40683(52)
_cell_length_c                     7.58547(54)
_cell_angle_alpha                  89.965(7)
_cell_angle_beta                   89.968(7)
_cell_angle_gamma                  90.125(4)
_cell_volume                       219.14
_cell_formula_units_Z              4
_symmetry_space_group_name_H-M     'P b n m'
_symmetry_Int_Tables_number        62
_refine_ls_R_factor_all            .034
loop_
_symmetry_equiv_pos_site_id
_symmetry_equiv_pos_as_xyz
  1	'-x+.5, y+.5, z'
  2	'x, y, -z+.5'
  3	'x+.5, -y+.5, z+.5'
  4	'-x, -y, -z'
  5	'x+.5, -y+.5, -z'
  6	'-x, -y, z+.5'
  7	'-x+.5, y+.5, -z+.5'
  8	'x, y, z'
loop_
_atom_type_symbol
_atom_type_oxidation_number
Ca2+	2
O2-	-2
Ti4+	4
loop_
_atom_site_label
_atom_site_type_symbol
_atom_site_symmetry_multiplicity
_atom_site_Wyckoff_symbol
_atom_site_fract_x
_atom_site_fract_y
_atom_site_fract_z
_atom_site_occupancy
_atom_site_attached_hydrogens
_atom_site_B_iso_or_equiv
Ca1 Ca2+ 4 c -0.00673(18) 0.0367(3) 0.250 1. 0 0.580(19) 
Ti1 Ti4+ 4 b 0 0.5 0 1. 0 0.348(18) 
O1 O2- 4 c 0.0721(6) 0.4840(6) 0.250 1. 0 0.43(5) 
O2 O2- 8 d 0.7096(5) 0.2898(6) 0.0383(3) 1. 0 0.59(4) 

#End of data_185447-ICSD


