data_419114-ICSD
#?2014 by Fachinformationszentrum Karlsruhe, and the U.S. Secretary of 
#Commerce on behalf of the United States.  All rights reserved.
_database_code_ICSD                419114
_audit_creation_date               2009/02/01
_audit_update_record               2011/02/01
_chemical_name_systematic
;
Potassium Bismuth Bis(wolframate(VI))
;
_chemical_formula_structural       'K Bi (W O4)2'
_chemical_formula_sum              'Bi1 K1 O8 W2'
_publ_section_title
;
Phase relations in the K2 W2 O7 - K2 W O4 - Bi2 O3 system and 
structure of K6.5 Bi2.5 W4 P6 O34
;
loop_
_citation_id
_citation_journal_abbrev
_citation_year
_citation_journal_volume
_citation_journal_issue
_citation_page_first
_citation_page_last
_citation_journal_id_ASTM
primary 'Journal of Solid State Chemistry' 2008 181 9 2393 2400 JSSCBI
_publ_author_name
;
Terebilenko, K.V.;Zatovsky, I.V.;Baumer, V.N.;Ogorodnyk, 
I.V.;Slobodyanik, N.S.;Shishkin, O.V.
;
_cell_length_a                     10.8512(7)
_cell_length_b                     10.5782(5)
_cell_length_c                     7.6147(2)
_cell_angle_alpha                  90
_cell_angle_beta                   130.746(4)
_cell_angle_gamma                  90
_cell_volume                       662.2
_cell_formula_units_Z              4
_symmetry_space_group_name_H-M     'C 1 2/c 1'
_symmetry_Int_Tables_number        15
_refine_ls_R_factor_all            .02
loop_
_symmetry_equiv_pos_site_id
_symmetry_equiv_pos_as_xyz
  1	'x, -y, z+.5'
  2	'-x, -y, -z'
  3	'-x, y, -z+.5'
  4	'x, y, z'
  5	'x+.5, -y+.5, z+.5'
  6	'-x+.5, -y+.5, -z'
  7	'-x+.5, y+.5, -z+.5'
  8	'x+.5, y+.5, z'
loop_
_atom_type_symbol
_atom_type_oxidation_number
Bi3+	3
K1+	1
O2-	-2
W6+	6
loop_
_atom_site_label
_atom_site_type_symbol
_atom_site_symmetry_multiplicity
_atom_site_Wyckoff_symbol
_atom_site_fract_x
_atom_site_fract_y
_atom_site_fract_z
_atom_site_occupancy
_atom_site_attached_hydrogens
_atom_site_U_iso_or_equiv
W1 W6+ 8 f 0.30571(2) 0.499713(19) 0.26638(3) 1 0 0.00232(8) 
Bi1 Bi3+ 4 e 0.5 0.22664(3) 0.25 1 0 0.00817(9) 
K1 K1+ 4 e 0.5 0.2028(2) -0.25 1 0 0.0152(4) 
O1 O2- 8 f 0.3116(5) 0.5695(4) 0.0594(7) 1 0 0.0071(7) 
O2 O2- 8 f 0.5230(5) 0.3932(4) 0.4744(7) 1 0 0.0050(7) 
O3 O2- 8 f 0.2274(6) 0.3436(4) 0.1361(7) 1 0 0.0101(8) 
O4 O2- 8 f 0.1308(5) 0.5792(4) 0.1860(7) 1 0 0.0088(8) 

loop_
_atom_site_aniso_label
_atom_site_aniso_type_symbol
_atom_site_aniso_U_11
_atom_site_aniso_U_22
_atom_site_aniso_U_33
_atom_site_aniso_U_12
_atom_site_aniso_U_13
_atom_site_aniso_U_23
W1 W6+ 0.00307(11) 0.00219(11) 0.00119(10) 0.00023(6) 0.00117(8) 
-0.00090(6)
Bi1 Bi3+ 0.01466(15) 0.00520(14) 0.00773(13) 0 0.00866(12) 0
K1 K1+ 0.0177(9) 0.0133(9) 0.0144(8) 0 0.0104(7) 0
O1 O2- 0.0105(18) 0.0092(19) 0.0058(16) -0.0011(14) 0.0072(15) -0.0001(14)
O2 O2- 0.0065(16) 0.0036(17) 0.0041(16) -0.0004(13) 0.0031(14) -0.0023(13)
O3 O2- 0.0114(19) 0.009(2) 0.0039(17) -0.0016(15) 0.0023(16) -0.0030(14)
O4 O2- 0.0071(17) 0.012(2) 0.0072(17) 0.0021(15) 0.0049(15) -0.0020(15)
#End of data_419114-ICSD


