data_421801-ICSD
#?2014 by Fachinformationszentrum Karlsruhe, and the U.S. Secretary of 
#Commerce on behalf of the United States.  All rights reserved.
_database_code_ICSD                421801
_audit_creation_date               2011/02/01
_chemical_name_systematic
;
Potassium Europium Bis(sulfate(VI)) Hydrate
;
_chemical_formula_structural       'K Eu (S O4)2 (H2 O)'
_chemical_formula_sum              'H2 Eu1 K1 O9 S2'
_publ_section_title
;
Syntheses, crystal structures and vibrational spectra of K Ln (S 
O4)2¨²H2 O (Ln = La, Nd, Sm, Eu, Gd, Dy)
;
loop_
_citation_id
_citation_journal_abbrev
_citation_year
_citation_journal_volume
_citation_journal_issue
_citation_page_first
_citation_page_last
_citation_journal_id_ASTM
primary 'Journal of Solid State Chemistry' 2010 183 9 2087 2094 JSSCBI
_publ_author_name                  'Kazmiercak, K.;Hoeppe, H.A.'
_cell_length_a                     10.076(2)
_cell_length_b                     8.4240(17)
_cell_length_c                     10.352(2)
_cell_angle_alpha                  90.00
_cell_angle_beta                   119.19(3)
_cell_angle_gamma                  90.00
_cell_volume                       767.09
_cell_formula_units_Z              4
_symmetry_space_group_name_H-M     'P 1 21/c 1'
_symmetry_Int_Tables_number        14
_refine_ls_R_factor_all            .0183
loop_
_symmetry_equiv_pos_site_id
_symmetry_equiv_pos_as_xyz
  1	'x, -y+.5, z+.5'
  2	'-x, -y, -z'
  3	'-x, y+.5, -z+.5'
  4	'x, y, z'
loop_
_atom_type_symbol
_atom_type_oxidation_number
Eu3+	3
H1+	1
K1+	1
O2-	-2
S6+	6
loop_
_atom_site_label
_atom_site_type_symbol
_atom_site_symmetry_multiplicity
_atom_site_Wyckoff_symbol
_atom_site_fract_x
_atom_site_fract_y
_atom_site_fract_z
_atom_site_occupancy
_atom_site_attached_hydrogens
_atom_site_U_iso_or_equiv
Eu1 Eu3+ 4 e 0.75950(3) 0.84851(3) 0.03408(3) 1 0 0.01202(14) 
K1 K1+ 4 e 0.28750(15) 0.81895(15) 0.30983(15) 1 0 0.0259(3) 
S1 S6+ 4 e 0.55062(15) 0.86691(15) 0.17931(15) 1 0 0.0121(3) 
O1 O2- 4 e 0.5740(4) 0.7881(4) 0.3141(4) 1 0 0.0183(9) 
O2 O2- 4 e 0.4012(4) 0.9435(5) 0.1132(4) 1 0 0.0206(9) 
O3 O2- 4 e 0.5560(4) 0.7509(4) 0.0742(4) 1 0 0.0194(9) 
O4 O2- 4 e 0.6719(4) 0.9822(4) 0.2107(4) 1 0 0.0227(10) 
S2 S6+ 4 e 0.99222(16) 0.80854(16) 0.89358(16) 1 0 0.0166(3) 
O5 O2- 4 e 0.9553(4) 0.6840(4) 0.7811(4) 1 0 0.0191(9) 
O6 O2- 4 e 0.0960(4) 0.9178(4) 0.8793(4) 1 0 0.0189(9) 
O7 O2- 4 e 0.8514(5) 0.8903(5) 0.8632(6) 1 0 0.0394(13) 
O8 O2- 4 e 0.0570(7) 0.7390(6) 0.0387(5) 1 0 0.0604(17) 
O9 O2- 4 e 0.8168(5) 0.5596(5) 0.0469(5) 1 0 0.0266(11) 
H1 H1+ 4 e 0.899(4) 0.530(6) 0.104(5) 1 0 0.001 
H2 H1+ 4 e 0.790(6) 0.531(6) -0.034(4) 1 0 0.001 

loop_
_atom_site_aniso_label
_atom_site_aniso_type_symbol
_atom_site_aniso_U_11
_atom_site_aniso_U_22
_atom_site_aniso_U_33
_atom_site_aniso_U_12
_atom_site_aniso_U_13
_atom_site_aniso_U_23
Eu1 Eu3+ 0.01153(19) 0.01100(18) 0.0100(2) -0.00103(12) 0.00249(14) 
0.00048(11)
K1 K1+ 0.0217(7) 0.0307(7) 0.0248(8) 0.0026(6) 0.0109(6) 0.0014(6)
S1 S6+ 0.0106(7) 0.0134(7) 0.0113(8) 0.0030(6) 0.0046(6) 0.0035(6)
O1 O2- 0.019(2) 0.025(2) 0.013(2) 0.0042(18) 0.0101(18) 0.0042(17)
O2 O2- 0.011(2) 0.029(2) 0.019(2) 0.0076(17) 0.0051(18) 0.0054(18)
O3 O2- 0.023(2) 0.024(2) 0.013(2) 0.0009(18) 0.0108(19) -0.0044(18)
O4 O2- 0.014(2) 0.024(2) 0.027(3) -0.0046(17) 0.008(2) 0.0009(18)
S2 S6+ 0.0210(8) 0.0178(8) 0.0135(8) -0.0107(6) 0.0103(7) -0.0058(6)
O5 O2- 0.019(2) 0.021(2) 0.012(2) -0.0018(17) 0.0032(18) -0.0020(17)
O6 O2- 0.019(2) 0.017(2) 0.023(2) -0.0036(17) 0.0116(19) 0.0022(18)
O7 O2- 0.030(3) 0.043(3) 0.062(4) -0.016(2) 0.036(3) -0.028(2)
O8 O2- 0.107(5) 0.041(3) 0.013(3) -0.040(3) 0.015(3) 0.001(2)
O9 O2- 0.023(2) 0.025(2) 0.022(3) 0.007(2) 0.003(2) 0.001(2)
#End of data_421801-ICSD


