data_424200-ICSD
#?2014 by Fachinformationszentrum Karlsruhe, and the U.S. Secretary of 
#Commerce on behalf of the United States.  All rights reserved.
_database_code_ICSD                424200
_audit_creation_date               2013/02/01
_chemical_name_systematic
;
Disodium Chromate(VI) Sesquihydrate
;
_chemical_formula_structural       'Na2 (Cr O4) (H2 O)1.5'
_chemical_formula_sum              'H3 Cr1 Na2 O5.5'
_publ_section_title
;
Crystal structures of two hydrated sodium chromates : Na2 Cr O4 ? 10 
H2 O and Na2 Cr O4 ? 1.5 H2 O
;
loop_
_citation_id
_citation_journal_abbrev
_citation_year
_citation_journal_volume
_citation_journal_issue
_citation_page_first
_citation_page_last
_citation_journal_id_ASTM
primary 'Zeitschrift fuer Kristallographie - Crystalline Materials'
 2012 227 9 621 628 ZKCMAJ
_publ_author_name                  'Kahlenberg, V.'
_cell_length_a                     6.7797(9)
_cell_length_b                     8.6548(10)
_cell_length_c                     35.078(5)
_cell_angle_alpha                  90
_cell_angle_beta                   90
_cell_angle_gamma                  90
_cell_volume                       2058.27
_cell_formula_units_Z              16
_symmetry_space_group_name_H-M     'F 2 d d'
_symmetry_Int_Tables_number        43
_refine_ls_R_factor_all            .023
loop_
_symmetry_equiv_pos_site_id
_symmetry_equiv_pos_as_xyz
  1	'x+.25, -y+.25, z+.25'
  2	'x+.25, y+.25, -z+.25'
  3	'x, -y, -z'
  4	'x, y, z'
  5	'x+.25, -y+.75, z+.75'
  6	'x+.75, -y+.25, z+.75'
  7	'x+.75, -y+.75, z+.25'
  8	'x+.25, y+.75, -z+.75'
  9	'x+.75, y+.25, -z+.75'
 10	'x+.75, y+.75, -z+.25'
 11	'x, -y+.5, -z+.5'
 12	'x+.5, -y, -z+.5'
 13	'x+.5, -y+.5, -z'
 14	'x, y+.5, z+.5'
 15	'x+.5, y, z+.5'
 16	'x+.5, y+.5, z'
loop_
_atom_type_symbol
_atom_type_oxidation_number
Cr6+	6
H1+	1
Na1+	1
O2-	-2
loop_
_atom_site_label
_atom_site_type_symbol
_atom_site_symmetry_multiplicity
_atom_site_Wyckoff_symbol
_atom_site_fract_x
_atom_site_fract_y
_atom_site_fract_z
_atom_site_occupancy
_atom_site_attached_hydrogens
_atom_site_U_iso_or_equiv
Cr1 Cr6+ 16 b 0.45737(7) 0.26244(4) 0.188031(10) 1 0 0.00855(11) 
Na1 Na1+ 16 b 0.94963(19) 0.41066(12) 0.15619(3) 1 0 0.0143(2) 
Na2 Na1+ 16 b 0.14170(18) 0.04558(13) 0.24568(3) 1 0 0.0147(2) 
O1 O2- 16 b 0.6669(3) 0.3548(2) 0.19632(5) 1 0 0.0135(4) 
O2 O2- 16 b 0.4374(3) 0.1152(2) 0.21757(5) 1 0 0.0144(4) 
O3 O2- 16 b 0.4579(4) 0.1946(2) 0.14424(5) 1 0 0.0138(4) 
O4 O2- 16 b 0.2715(3) 0.3847(3) 0.19334(6) 1 0 0.0148(4) 
O5 O2- 16 b 0.9343(3) 0.1382(2) 0.14722(6) 1 0 0.0162(4) 
O6 O2- 8 a 0.9158(4) 0.25 0.25 1 0 0.0163(6) 
H1 H1+ 16 b 1.027(5) 0.086(4) 0.1371(11) 1 0 0.035(7) 
H2 H1+ 16 b 0.890(6) 0.078(4) 0.1643(10) 1 0 0.035(7) 
H3 H1+ 16 b 0.835(4) 0.267(6) 0.2313(4) 1 0 0.035(7) 

loop_
_atom_site_aniso_label
_atom_site_aniso_type_symbol
_atom_site_aniso_U_11
_atom_site_aniso_U_22
_atom_site_aniso_U_33
_atom_site_aniso_U_12
_atom_site_aniso_U_13
_atom_site_aniso_U_23
Cr1 Cr6+ 0.00956(18) 0.00794(19) 0.00816(16) -0.00008(17) 0.00007(17) 
-0.00036(14)
Na1 Na1+ 0.0160(5) 0.0129(5) 0.0141(4) -0.0005(5) -0.0001(5) 0.0004(4)
Na2 Na1+ 0.0144(5) 0.0151(6) 0.0148(5) -0.0022(4) 0.0031(4) -0.0023(4)
O1 O2- 0.0139(11) 0.0144(9) 0.0122(8) -0.0019(8) -0.0004(7) -0.0005(8)
O2 O2- 0.0136(10) 0.0140(9) 0.0157(8) -0.0009(8) 0.0007(8) 0.0031(7)
O3 O2- 0.0148(9) 0.0142(9) 0.0125(8) 0.0015(10) -0.0001(9) -0.0026(6)
O4 O2- 0.0164(11) 0.0146(10) 0.0136(9) 0.0047(8) 0.0016(8) -0.0011(8)
O5 O2- 0.0169(11) 0.0139(10) 0.0179(9) 0.0004(9) 0.0042(9) 0.0014(7)
O6 O2- 0.0130(17) 0.0192(15) 0.0167(12) 0 0 0.0052(10)
#End of data_424200-ICSD


