data_74564-ICSD
#?2014 by Fachinformationszentrum Karlsruhe, and the U.S. Secretary of 
#Commerce on behalf of the United States.  All rights reserved.
_database_code_ICSD                74564
_audit_creation_date               1995/10/17
_audit_update_record               2006/04/01
_chemical_name_systematic
;
Pentalead Trialuminium Fluoride - Iii
;
_chemical_formula_structural       'Pb5 Al3 F19'
_chemical_formula_sum              'Al3 F19 Pb5'
_publ_section_title
;
Relationship between the structures of ferroelectric Pb5 Cr3 F19 and 
antiferroelectric Pb5 Al3 F19 at 295 K and the phase III- phase IV 
transition in Pb5 Al3 F19 on cooling to about 110 K
;
loop_
_citation_id
_citation_journal_abbrev
_citation_year
_citation_journal_volume
_citation_page_first
_citation_page_last
_citation_journal_id_ASTM
primary 'Acta Crystallographica, Section B: Structural Science'
 1994 50 135 141 ASBSDK
2 'Golden Book of Phase Transitions, Wroclaw' 2002 1 1 123 GBOPT5
_publ_author_name
;
Andriamampianina, V.;Gravereau, P.;Ravez, J.;Abrahams, S.C.
;
_cell_length_a                     20.1738(4)
_cell_length_b                     20.1738(4)
_cell_length_c                     7.2205(1)
_cell_angle_alpha                  90.
_cell_angle_beta                   90.
_cell_angle_gamma                  90.
_cell_volume                       2938.62
_cell_formula_units_Z              8
_symmetry_space_group_name_H-M     'P 4/n Z'
_symmetry_Int_Tables_number        85
_refine_ls_R_factor_all            .058
loop_
_symmetry_equiv_pos_site_id
_symmetry_equiv_pos_as_xyz
  1	'-y, x+.5, -z'
  2	'y+.5, -x, -z'
  3	'x+.5, y+.5, -z'
  4	'-x, -y, -z'
  5	'y, -x+.5, z'
  6	'-y+.5, x, z'
  7	'-x+.5, -y+.5, z'
  8	'x, y, z'
loop_
_atom_type_symbol
_atom_type_oxidation_number
Al3+	3
F1-	-1
Pb2+	2
loop_
_atom_site_label
_atom_site_type_symbol
_atom_site_symmetry_multiplicity
_atom_site_Wyckoff_symbol
_atom_site_fract_x
_atom_site_fract_y
_atom_site_fract_z
_atom_site_occupancy
_atom_site_attached_hydrogens
_atom_site_U_iso_or_equiv
Pb1 Pb2+ 8 g 0.1734(1) 0.0867(1) 0.0091(5) 1. 0 0 
Pb2 Pb2+ 8 g 0.1102(1) 0.1741(1) 0.5037(4) 1. 0 0 
Pb3 Pb2+ 8 g 0.1700(1) 0.8889(1) 0.0007(5) 1. 0 0 
Pb4 Pb2+ 8 g 0.9118(1) 0.1722(1) 0.4958(5) 1. 0 0 
Pb5 Pb2+ 8 g 0.9932(2) 0.9858(2) 0.2352(9) 1. 0 0 
Al1 Al3+ 2 c 0.25 0.25 0.2389(68) 1. 0 0.0105(13) 
Al2 Al3+ 2 c 0.25 0.25 0.758(11) 1. 0 0.0105(13) 
Al3 Al3+ 4 f 0.25 0.75 0.2437(50) 1. 0 0.0105(13) 
Al4 Al3+ 8 g 0.0072(9) 0.1663(9) 0.0054(32) 1. 0 0.0105(13) 
Al5 Al3+ 8 g 0.8345(10) 0.0097(9) 0.4921(29) 1. 0 0.0105(13) 
F1 F1- 2 c 0.25 0.25 0 1. 0 0.0275(14) 
F2 F1- 2 c 0.25 0.25 0.5 1. 0 0.0275(14) 
F3 F1- 8 g 0.2150(15) 0.1686(17) 0.2322(63) 1. 0 0.0275(14) 
F4 F1- 8 g 0.2809(15) 0.3322(16) 0.7553(69) 1. 0 0.0275(14) 
F5 F1- 2 a 0.25 0.75 0 1. 0 0.0275(14) 
F6 F1- 8 g 0.8334(16) 0.2171(16) 0.2232(60) 1. 0 0.0275(14) 
F7 F1- 8 g 0.1669(16) 0.7821(17) 0.2329(67) 1. 0 0.0275(14) 
F8 F1- 2 b 0.75 0.25 0.5 1. 0 0.0275(14) 
F9 F1- 8 g 0.0695(18) 0.1718(18) 0.8438(60) 1. 0 0.0275(14) 
F10 F1- 8 g 0.9509(17) 0.1383(18) 0.8415(55) 1. 0 0.0275(14) 
F11 F1- 8 g 0.9445(18) 0.1475(19) 0.1578(52) 1. 0 0.0275(14) 
F12 F1- 8 g 0.0664(17) 0.1931(18) 0.1682(57) 1. 0 0.0275(14) 
F13 F1- 8 g 0.9883(16) 0.2519(16) 0.9837(76) 1. 0 0.0275(14) 
F14 F1- 8 g 0.0307(19) 0.0820(18) 0.0434(51) 1. 0 0.0275(14) 
F15 F1- 8 g 0.9230(17) 0.0331(17) 0.5062(71) 1. 0 0.0275(14) 
F16 F1- 8 g 0.8569(17) 0.9462(17) 0.3154(54) 1. 0 0.0275(14) 
F17 F1- 8 g 0.8428(17) 0.9424(17) 0.6774(55) 1. 0 0.0275(14) 
F18 F1- 8 g 0.8170(17) 0.0732(18) 0.6731(64) 1. 0 0.0275(14) 
F19 F1- 8 g 0.8316(17) 0.0740(16) 0.3176(59) 1. 0 0.0275(14) 
F20 F1- 8 g 0.7487(17) 0.9896(18) 0.4546(71) 1. 0 0.0275(14) 
F21 F1- 8 g 0.8980(18) 0.0227(20) -.0096(63) 1. 0 0.0275(14) 
F22 F1- 8 g 0.0190(19) 0.1064(17) 0.5122(70) 1. 0 0.0275(14) 

loop_
_atom_site_aniso_label
_atom_site_aniso_type_symbol
_atom_site_aniso_U_11
_atom_site_aniso_U_22
_atom_site_aniso_U_33
_atom_site_aniso_U_12
_atom_site_aniso_U_13
_atom_site_aniso_U_23
Pb1 Pb2+ 0.0260(16) 0.0158(14) 0.0242(35) -0.0046(12) -0.0010(17) 
-0.0013(15)
Pb2 Pb2+ 0.0125(13) 0.0205(13) 0.0131(29) -0.0035(11) 0.0007(16) 
-0.0001(15)
Pb3 Pb2+ 0.0148(12) 0.0092(12) 0.0201(33) 0.0028(10) -0.0018(16) 
-0.0005(16)
Pb4 Pb2+ 0.0159(13) 0.0266(16) 0.0107(26) 0.0032(12) 0.0016(15) -0.0040(16)
Pb5 Pb2+ 0.0527(22) 0.0604(24) 0.0227(21) 0.0057(19) -0.0128(15) 
-0.0096(17)
#End of data_74564-ICSD


