data_164167-ICSD
#?2014 by Fachinformationszentrum Karlsruhe, and the U.S. Secretary of 
#Commerce on behalf of the United States.  All rights reserved.
_database_code_ICSD                164167
_audit_creation_date               2010/02/01
_chemical_name_systematic          'Zinc Dichromium Sulfide - Lt'
_chemical_formula_structural       'Zn Cr2 S4'
_chemical_formula_sum              'Cr2 S4 Zn1'
_publ_section_title
;
Spin-driven phase transitions in Zn Cr2 Se4 and Zn Cr2 S4 probed by 
high-resolution synchrotron X-ray and neutron powder diffraction
;
loop_
_citation_id
_citation_journal_abbrev
_citation_year
_citation_journal_volume
_citation_page_first
_citation_page_last
_citation_journal_id_ASTM
primary 'Physical Review, Serie 3. B - Condensed Matter (18,1978-)'
 2009 79 064423-1 064423-6 PRBMDO
_publ_author_name
;
Yokaichiya, F.;Krimmel, A.;Tsurkan, V.;Margiolaki, I.;Thompson, 
P.;Bordallo, H.N.;Buchsteiner, A.;Stuesser, N.;Argyriou, D.N.;Loidl, 
A.
;
_cell_length_a                     7.04679(5)
_cell_length_b                     7.06743(5)
_cell_length_c                     9.98328(8)
_cell_angle_alpha                  90.
_cell_angle_beta                   90.
_cell_angle_gamma                  90.
_cell_volume                       497.19
_cell_formula_units_Z              4
_symmetry_space_group_name_H-M     'I m m a'
_symmetry_Int_Tables_number        74
_refine_ls_R_factor_all            .0436
loop_
_symmetry_equiv_pos_site_id
_symmetry_equiv_pos_as_xyz
  1	'-x, y+.5, -z'
  2	'-x, -y+.5, z'
  3	'-x, y, z'
  4	'-x, -y, -z'
  5	'x, -y+.5, z'
  6	'x, y+.5, -z'
  7	'x, -y, -z'
  8	'x, y, z'
  9	'-x+.5, y, -z+.5'
 10	'-x+.5, -y, z+.5'
 11	'-x+.5, y+.5, z+.5'
 12	'-x+.5, -y+.5, -z+.5'
 13	'x+.5, -y, z+.5'
 14	'x+.5, y, -z+.5'
 15	'x+.5, -y+.5, -z+.5'
 16	'x+.5, y+.5, z+.5'
loop_
_atom_type_symbol
_atom_type_oxidation_number
Cr3+	3
S2-	-2
Zn2+	2
loop_
_atom_site_label
_atom_site_type_symbol
_atom_site_symmetry_multiplicity
_atom_site_Wyckoff_symbol
_atom_site_fract_x
_atom_site_fract_y
_atom_site_fract_z
_atom_site_occupancy
_atom_site_attached_hydrogens
_atom_site_B_iso_or_equiv
Zn1 Zn2+ 4 e 0 0.75 0.125 1. 0 0.131(13) 
Cr1 Cr3+ 4 c 0.25 0.25 0.25 1. 0 0.189(39) 
Cr2 Cr3+ 4 b 0 0 0.5 1. 0 0.189(39) 
S1 S2- 8 h 0 0.52253(18) 0.26136(9) 1. 0 0.184(17) 
S2 S2- 8 i 0.26136(9) 0.25 -0.01136(9) 1. 0 0.184(17) 

#End of data_164167-ICSD


