data_185364-ICSD
#?2014 by Fachinformationszentrum Karlsruhe, and the U.S. Secretary of 
#Commerce on behalf of the United States.  All rights reserved.
_database_code_ICSD                185364
_audit_creation_date               2013/02/01
_chemical_name_systematic          'Silver Chlorate(VII)'
_chemical_formula_structural       'Ag (Cl O4)'
_chemical_formula_sum              'Ag1 Cl1 O4'
_publ_section_title
;
Pressure-induced phase transitions in Ag Cl O4
;
loop_
_citation_id
_citation_journal_abbrev
_citation_year
_citation_journal_volume
_citation_page_first
_citation_page_last
_citation_journal_id_ASTM
primary 'Physical Review, Serie 3. B - Condensed Matter (18,1978-)'
 2011 84 064103-1 064103-11 PRBMDO
_publ_author_name
;
Errandonea, D.;Gracia, L.;Beltran, A.;Vegas, A.;Meng, Y.
;
_cell_length_a                     8.214(8)
_cell_length_b                     5.160(5)
_cell_length_c                     6.651(6)
_cell_angle_alpha                  90.
_cell_angle_beta                   90.
_cell_angle_gamma                  90.
_cell_volume                       281.9
_cell_formula_units_Z              4
_symmetry_space_group_name_H-M     'P n m a'
_symmetry_Int_Tables_number        62
_refine_ls_R_factor_all            .0125
loop_
_symmetry_equiv_pos_site_id
_symmetry_equiv_pos_as_xyz
  1	'x+.5, y, -z+.5'
  2	'x, -y+.5, z'
  3	'-x+.5, y+.5, z+.5'
  4	'-x, -y, -z'
  5	'-x+.5, -y, z+.5'
  6	'-x, y+.5, -z'
  7	'x+.5, -y+.5, -z+.5'
  8	'x, y, z'
loop_
_atom_type_symbol
_atom_type_oxidation_number
Ag1+	1
Cl7+	7
O2-	-2
loop_
_atom_site_label
_atom_site_type_symbol
_atom_site_symmetry_multiplicity
_atom_site_Wyckoff_symbol
_atom_site_fract_x
_atom_site_fract_y
_atom_site_fract_z
_atom_site_occupancy
_atom_site_attached_hydrogens
Ag1 Ag1+ 4 c 0.1822(2) 0.250 0.3345(3) 1. 0 
Cl1 Cl7+ 4 c 0.0697(1) 0.250 0.8122(9) 1. 0 
O1 O2- 4 c 0.1902(2) 0.250 0.9503(9) 1. 0 
O2 O2- 8 d 0.4033(4) 0.5433(4) 0.1961(2) 1. 0 
O3 O2- 4 c 0.4253(4) 0.250 0.5901(5) 1. 0 

#End of data_185364-ICSD


