data_190923-ICSD
#?2014 by Fachinformationszentrum Karlsruhe, and the U.S. Secretary of 
#Commerce on behalf of the United States.  All rights reserved.
_database_code_ICSD                190923
_audit_creation_date               2014/08/01
_chemical_name_systematic          'Potassium Niobate'
_chemical_formula_structural       'K (Nb O3)'
_chemical_formula_sum              'K1 Nb1 O3'
_publ_section_title
;
Electronic polarization in K Nb O3 visualized by synchrotron 
radiation powder diffraction
;
loop_
_citation_id
_citation_journal_abbrev
_citation_year
_citation_journal_volume
_citation_journal_issue
_citation_page_first
_citation_page_last
_citation_journal_id_ASTM
primary 'Japanese Journal of Applied Physics' 2013 52 9 09KF04-1 09KF04-4 JJAPB6
_publ_author_name
;
Kawamura, Shoto;Magome, Eisuke;Moriyoshi, Chikako;Kuroiwa, 
Yoshihiro;Taniguchi, Nao;Tanaka, Hiroshi;Maki, Sachiko;Takata, 
Masaki;Wada, Satoshi
;
_cell_length_a                     4.01374(3)
_cell_length_b                     4.01374(3)
_cell_length_c                     4.01374(3)
_cell_angle_alpha                  89.824(7)
_cell_angle_beta                   89.824(7)
_cell_angle_gamma                  89.824(7)
_cell_volume                       64.66
_cell_formula_units_Z              1
_symmetry_space_group_name_H-M     'R 3 m R'
_symmetry_Int_Tables_number        160
_refine_ls_R_factor_all            .0279
loop_
_symmetry_equiv_pos_site_id
_symmetry_equiv_pos_as_xyz
  1	'z, y, x'
  2	'z, x, y'
  3	'x, z, y'
  4	'y, z, x'
  5	'y, x, z'
  6	'x, y, z'
loop_
_atom_type_symbol
_atom_type_oxidation_number
K1+	1
Nb5+	5
O2-	-2
loop_
_atom_site_label
_atom_site_type_symbol
_atom_site_symmetry_multiplicity
_atom_site_Wyckoff_symbol
_atom_site_fract_x
_atom_site_fract_y
_atom_site_fract_z
_atom_site_occupancy
_atom_site_attached_hydrogens
_atom_site_U_iso_or_equiv
K1 K1+ 1 a 0 0 0 1. 0 0.0043(1) 
Nb1 Nb5+ 1 a 0.5134(2) 0.5134(2) 0.5134(2) 1. 0 0 
O1 O2- 3 b 0.4824(5) 0.4824(5) -0.0178(7) 1. 0 0.0037(2) 

loop_
_atom_site_aniso_label
_atom_site_aniso_type_symbol
_atom_site_aniso_U_11
_atom_site_aniso_U_22
_atom_site_aniso_U_33
_atom_site_aniso_U_12
_atom_site_aniso_U_13
_atom_site_aniso_U_23
Nb1 Nb5+ 0.00219(7) 0.00219(7) 0.00219(7) 0.0005(2) 0.0005(2) 0.0005(2)
#End of data_190923-ICSD


