data_73607-ICSD
#?2014 by Fachinformationszentrum Karlsruhe, and the U.S. Secretary of 
#Commerce on behalf of the United States.  All rights reserved.
_database_code_ICSD                73607
_audit_creation_date               1994/06/30
_audit_update_record               2010/02/01
_chemical_name_systematic
;
Calcium Tecto-dititanotriphosphate(V) (0.5/1)
;
_chemical_formula_structural       'Ca0.5 (Ti2 P3 O12)'
_chemical_formula_sum              'Ca0.5 O12 P3 Ti2'
_publ_section_title
;
Structural refinement using high-resolution powder X-ray diffraction 
data of Ca0.5 Ti2 P3 O12, a low-thermal-expansion material
;
loop_
_citation_id
_citation_journal_abbrev
_citation_year
_citation_journal_volume
_citation_journal_issue
_citation_page_first
_citation_page_last
_citation_journal_id_ASTM
primary 'Journal of Materials Chemistry' 1993 3 3 309 314 JMACEP
_publ_author_name
;
Senbhagaraman, S.;Guru Row, T.N.;Umarji, A.M.
;
_cell_length_a                     8.3754(7)
_cell_length_b                     8.3754(7)
_cell_length_c                     22.0617(23)
_cell_angle_alpha                  90.
_cell_angle_beta                   90.
_cell_angle_gamma                  120.
_cell_volume                       1340.23
_cell_formula_units_Z              6
_symmetry_space_group_name_H-M     'R -3 H'
_symmetry_Int_Tables_number        148
_refine_ls_R_factor_all            .056
loop_
_symmetry_equiv_pos_site_id
_symmetry_equiv_pos_as_xyz
  1	'x-y, x, -z'
  2	'y, -x+y, -z'
  3	'-x, -y, -z'
  4	'-x+y, -x, z'
  5	'-y, x-y, z'
  6	'x, y, z'
  7	'x-y+.6666, x+.3333, -z+.3333'
  8	'x-y+.3333, x+.6666, -z+.6666'
  9	'y+.6666, -x+y+.3333, -z+.3333'
 10	'y+.3333, -x+y+.6666, -z+.6666'
 11	'-x+.6666, -y+.3333, -z+.3333'
 12	'-x+.3333, -y+.6666, -z+.6666'
 13	'-x+y+.6666, -x+.3333, z+.3333'
 14	'-x+y+.3333, -x+.6666, z+.6666'
 15	'-y+.6666, x-y+.3333, z+.3333'
 16	'-y+.3333, x-y+.6666, z+.6666'
 17	'x+.6666, y+.3333, z+.3333'
 18	'x+.3333, y+.6666, z+.6666'
loop_
_atom_type_symbol
_atom_type_oxidation_number
Ca2+	2
O2-	-2
P5+	5
Ti4+	4
loop_
_atom_site_label
_atom_site_type_symbol
_atom_site_symmetry_multiplicity
_atom_site_Wyckoff_symbol
_atom_site_fract_x
_atom_site_fract_y
_atom_site_fract_z
_atom_site_occupancy
_atom_site_attached_hydrogens
_atom_site_U_iso_or_equiv
Ca1 Ca2+ 3 a 0 0 0 1. 0 0.0126(92) 
Ti1 Ti4+ 6 c 0 0 0.1472(7) 1. 0 0.0170(62) 
Ti2 Ti4+ 6 c 0 0 0.6439(7) 1. 0 0.0170(62) 
P1 P5+ 18 f 0.2883(11) 0.0032(17) 0.2523(12) 1. 0 0.0106(39) 
O1 O2- 18 f 0.1778(26) -.0059(32) 0.1918(12) 1. 0 0.0094(42) 
O2 O2- 18 f 0.0668(31) 0.8476(28) 0.6960(11) 1. 0 0.0087(30) 
O3 O2- 18 f 0.1775(29) 0.1862(27) 0.0854(12) 1. 0 0.0110(32) 
O4 O2- 18 f 0.2103(26) 0.0655(30) 0.5969(11) 1. 0 0.0098(31) 

#End of data_73607-ICSD


