data_69358-ICSD
#?2014 by Fachinformationszentrum Karlsruhe, and the U.S. Secretary of 
#Commerce on behalf of the United States.  All rights reserved.
_database_code_ICSD                69358
_audit_creation_date               1992/08/20
_audit_update_record               2007/08/01
_chemical_name_systematic          'Aluminium Phosphate(V) - D'
_chemical_formula_structural       'Al (P O4)'
_chemical_formula_sum              'Al1 O4 P1'
_chemical_name_mineral             AlPO-D
_publ_section_title
;
Synthesis, structures of Al P O4-C and Al P O4-D and their topotactic 
transformation
;
loop_
_citation_id
_citation_journal_abbrev
_citation_year
_citation_journal_volume
_citation_page_first
_citation_page_last
_citation_journal_id_ASTM
primary 'Solid State Ionics' 1990 43 93 102 SSIOD3
_publ_author_name
;
Keller, E.B.;Meier, W.M.;Kirchner, R.M.
;
_cell_length_a                     19.187(1)
_cell_length_b                     8.576(1)
_cell_length_c                     9.804(1)
_cell_angle_alpha                  90.
_cell_angle_beta                   90.
_cell_angle_gamma                  90.
_cell_volume                       1613.23
_cell_formula_units_Z              16
_symmetry_space_group_name_H-M     'P c a 21'
_symmetry_Int_Tables_number        29
_refine_ls_R_factor_all            .081
loop_
_symmetry_equiv_pos_site_id
_symmetry_equiv_pos_as_xyz
  1	'x+.5, -y, z'
  2	'-x+.5, y, z+.5'
  3	'-x, -y, z+.5'
  4	'x, y, z'
loop_
_atom_type_symbol
_atom_type_oxidation_number
Al3+	3
O2-	-2
P5+	5
loop_
_atom_site_label
_atom_site_type_symbol
_atom_site_symmetry_multiplicity
_atom_site_Wyckoff_symbol
_atom_site_fract_x
_atom_site_fract_y
_atom_site_fract_z
_atom_site_occupancy
_atom_site_attached_hydrogens
_atom_site_B_iso_or_equiv
P1 P5+ 4 a 0.574(2) -.031(5) 0.421(5) 1. 0 6.90(26) 
P2 P5+ 4 a 0.529(2) 0.473(5) 0.107(6) 1. 0 2.50(19) 
P3 P5+ 4 a 0.680(2) -.051(4) 0.040(6) 1. 0 0.80(17) 
P4 P5+ 4 a 0.724(2) 0.453(4) 0.298(6) 1. 0 0.20(14) 
Al1 Al3+ 4 a 0.531(2) 0.065(6) 0.133(5) 1. 0 9.10(33) 
Al2 Al3+ 4 a 0.572(2) 0.574(5) 0.385(7) 1. 0 4.00(26) 
Al3 Al3+ 4 a 0.721(2) 0.074(4) 0.320(6) 1. 0 0.20(18) 
Al4 Al3+ 4 a 0.681(2) 0.572(5) 0.026(5) 1. 0 0.80(21) 
O1 O2- 4 a 0.645(3) 0.035(7) 0.406(7) 1. 0 1.30(38) 
O2 O2- 4 a 0.593(3) 0.526(7) 0.031(7) 1. 0 0.10(39) 
O3 O2- 4 a 0.531(3) 0.284(6) 0.130(8) 1. 0 8.70(46) 
O4 O2- 4 a 0.584(3) 0.784(6) 0.418(7) 1. 0 4.00(36) 
O5 O2- 4 a 0.540(3) 0.017(8) 0.553(5) 1. 0 6.40(53) 
O6 O2- 4 a 0.469(3) 0.518(7) 0.019(8) 1. 0 0.80(41) 
O7 O2- 4 a 0.532(3) 0.018(8) 0.302(5) 1. 0 5.10(45) 
O8 O2- 4 a 0.524(3) 0.557(7) 0.238(7) 1. 0 0.80(33) 
O9 O2- 4 a 0.691(3) 0.773(5) 0.060(7) 1. 0 4.00(35) 
O10 O2- 4 a 0.734(3) 0.278(5) 0.320(8) 1. 0 8.00(88) 
O11 O2- 4 a 0.601(3) -.015(8) 0.045(8) 1. 0 0.70(41) 
O12 O2- 4 a 0.655(3) 0.498(9) 0.361(8) 1. 0 9.40(71) 
O13 O2- 4 a 0.716(3) 0.025(7) 0.154(7) 1. 0 0.80(36) 
O14 O2- 4 a 0.724(3) 0.478(8) 0.150(6) 1. 0 0.80(38) 
O15 O2- 4 a 0.789(3) -.010(8) 0.405(7) 1. 0 0.80(41) 
O16 O2- 4 a 0.719(3) 0.539(8) 0.869(7) 1. 0 6.20(51) 

#End of data_69358-ICSD


