data_2015-ICSD
#?2014 by Fachinformationszentrum Karlsruhe, and the U.S. Secretary of 
#Commerce on behalf of the United States.  All rights reserved.
_database_code_ICSD                2015
_audit_creation_date               1980/01/01
_audit_update_record               2012/08/01
_chemical_name_systematic          'Potassium Cyclo-triselenylimide'
_chemical_formula_structural       'K3 (N (Se O2))3'
_chemical_formula_sum              'K3 N3 O6 Se3'
_publ_section_title
;
Crystal structure of potassium triselenylimide, K3 (N Se O2)3
;
loop_
_citation_id
_citation_journal_abbrev
_citation_year
_citation_journal_volume
_citation_page_first
_citation_page_last
_citation_journal_id_ASTM
primary 'Acta Crystallographica B (24,1968-38,1982)' 1974 30 6 12 ACBCAR
_publ_author_name                  'Kocman, V.;Rucklidge, J.C.'
_cell_length_a                     7.452(8)
_cell_length_b                     12.767(11)
_cell_length_c                     11.845(10)
_cell_angle_alpha                  90.
_cell_angle_beta                   113.95(2)
_cell_angle_gamma                  90.
_cell_volume                       1029.9
_cell_formula_units_Z              4
_symmetry_space_group_name_H-M     'P 1 21/c 1'
_symmetry_Int_Tables_number        14
_refine_ls_R_factor_all            .055
loop_
_symmetry_equiv_pos_site_id
_symmetry_equiv_pos_as_xyz
  1	'x, -y+.5, z+.5'
  2	'-x, -y, -z'
  3	'-x, y+.5, -z+.5'
  4	'x, y, z'
loop_
_atom_type_symbol
_atom_type_oxidation_number
K1+	1
N3-	-3
O2-	-2
Se6+	6
loop_
_atom_site_label
_atom_site_type_symbol
_atom_site_symmetry_multiplicity
_atom_site_Wyckoff_symbol
_atom_site_fract_x
_atom_site_fract_y
_atom_site_fract_z
_atom_site_occupancy
_atom_site_attached_hydrogens
Se1 Se6+ 4 e -.24706(16) 0.16621(8) 0.1831(1) 1. 0 
Se2 Se6+ 4 e 0.11536(17) 0.06125(9) 0.34489(11) 1. 0 
Se3 Se6+ 4 e -.20807(17) -.06429(9) 0.16572(11) 1. 0 
K1 K1+ 4 e -.28007(37) 0.42135(19) 0.36854(23) 1. 0 
K2 K1+ 4 e 0.19179(35) 0.24926(20) 0.09437(22) 1. 0 
K3 K1+ 4 e -.39907(42) 0.14105(22) 0.43068(25) 1. 0 
O1 O2- 4 e -0.1804(11) 0.20175(61) 0.07441(65) 1. 0 
O2 O2- 4 e -0.4030(12) 0.24737(67) 0.19905(80) 1. 0 
O3 O2- 4 e 0.2391(12) 0.08281(63) 0.26015(69) 1. 0 
O4 O2- 4 e 0.2622(13) 0.05918(68) 0.48797(75) 1. 0 
O5 O2- 4 e -0.3418(13) -.16402(66) 0.16983(88) 1. 0 
O6 O2- 4 e -0.1366(12) -.07114(60) 0.05402(65) 1. 0 
N1 N3- 4 e -0.0511(15) 0.16590(76) 0.32864(94) 1. 0 
N2 N3- 4 e -0.0014(17) -.06242(78) 0.3090(10) 1. 0 
N3 N3- 4 e -0.3674(15) 0.04427(79) 0.1501(10) 1. 0 

#End of data_2015-ICSD


