data_156312-ICSD
#?2014 by Fachinformationszentrum Karlsruhe, and the U.S. Secretary of 
#Commerce on behalf of the United States.  All rights reserved.
_database_code_ICSD                156312
_audit_creation_date               2007/08/01
_chemical_name_systematic
;
Beryllium Aluminium Hydride - Beta (hp)
;
_chemical_formula_structural       'Be Al H5'
_chemical_formula_sum              'H5 Al1 Be1'
_publ_section_title
;
Structure and bonding in B Al H5 (B = Be, Ca, Sr) from first-
principle calculations
;
loop_
_citation_id
_citation_journal_abbrev
_citation_year
_citation_journal_volume
_citation_page_first
_citation_page_last
_citation_journal_id_ASTM
primary 'Journal of Alloys and Compounds' 2007 433 225 232 JALCEU
_publ_author_name
;
Klaveness, A.;Vajeeston, P.;Ravindran, P.;Fjellvag, H.;Kjekshus, A.
;
_cell_length_a                     5.959
_cell_length_b                     7.008
_cell_length_c                     6.241
_cell_angle_alpha                  90.
_cell_angle_beta                   116.205
_cell_angle_gamma                  90.
_cell_volume                       233.84
_cell_formula_units_Z              4
_symmetry_space_group_name_H-M     'C 1 2/c 1'
_symmetry_Int_Tables_number        15
loop_
_symmetry_equiv_pos_site_id
_symmetry_equiv_pos_as_xyz
  1	'x, -y, z+.5'
  2	'-x, -y, -z'
  3	'-x, y, -z+.5'
  4	'x, y, z'
  5	'x+.5, -y+.5, z+.5'
  6	'-x+.5, -y+.5, -z'
  7	'-x+.5, y+.5, -z+.5'
  8	'x+.5, y+.5, z'
loop_
_atom_type_symbol
_atom_type_oxidation_number
Al3+	3
Be2+	2
H1-	-1
loop_
_atom_site_label
_atom_site_type_symbol
_atom_site_symmetry_multiplicity
_atom_site_Wyckoff_symbol
_atom_site_fract_x
_atom_site_fract_y
_atom_site_fract_z
_atom_site_occupancy
_atom_site_attached_hydrogens
Be1 Be2+ 4 e 0 0.333 0.250 1. 0 
Al1 Al3+ 4 a 0 0 0 1. 0 
H1 H1- 4 e 0 0.904 0.250 1. 0 
H2 H1- 8 f 0.902 0.777 0.881 1. 0 
H3 H1- 8 f 0.688 0.044 0.913 1. 0 

#End of data_156312-ICSD


