data_79251-ICSD
#?2014 by Fachinformationszentrum Karlsruhe, and the U.S. Secretary of 
#Commerce on behalf of the United States.  All rights reserved.
_database_code_ICSD                79251
_audit_creation_date               1996/10/14
_audit_update_record               2005/10/01
_chemical_name_systematic          'Disilver Phyllo-trithiohafnate'
_chemical_formula_structural       'Ag2 (Hf S3)'
_chemical_formula_sum              'Ag2 Hf1 S3'
_publ_section_title
;
Crystal structures and ionic conductivities of new silver hafnium 
sulfides
;
loop_
_citation_id
_citation_journal_abbrev
_citation_year
_citation_journal_volume
_citation_page_first
_citation_page_last
_citation_journal_id_ASTM
primary 'Journal of Alloys and Compounds' 1995 219 55 58 JALCEU
2 'Golden Book of Phase Transitions, Wroclaw' 2002 1 1 123 GBOPT5
_publ_author_name                  'Wada, H.;Amiel, O.;Sato, A.'
_cell_length_a                     11.4579(16)
_cell_length_b                     6.6275(10)
_cell_length_c                     12.7739(16)
_cell_angle_alpha                  90.
_cell_angle_beta                   90.
_cell_angle_gamma                  90.
_cell_volume                       970.01
_cell_formula_units_Z              8
_symmetry_space_group_name_H-M     'C m c a'
_symmetry_Int_Tables_number        64
_refine_ls_R_factor_all            .041
loop_
_symmetry_equiv_pos_site_id
_symmetry_equiv_pos_as_xyz
  1	'-x, -y+.5, z+.5'
  2	'-x, y+.5, -z+.5'
  3	'-x, y, z'
  4	'-x, -y, -z'
  5	'x, y+.5, -z+.5'
  6	'x, -y+.5, z+.5'
  7	'x, -y, -z'
  8	'x, y, z'
  9	'-x+.5, -y, z+.5'
 10	'-x+.5, y, -z+.5'
 11	'-x+.5, y+.5, z'
 12	'-x+.5, -y+.5, -z'
 13	'x+.5, y, -z+.5'
 14	'x+.5, -y, z+.5'
 15	'x+.5, -y+.5, -z'
 16	'x+.5, y+.5, z'
loop_
_atom_type_symbol
_atom_type_oxidation_number
Ag1+	1
Hf4+	4
S2-	-2
loop_
_atom_site_label
_atom_site_type_symbol
_atom_site_symmetry_multiplicity
_atom_site_Wyckoff_symbol
_atom_site_fract_x
_atom_site_fract_y
_atom_site_fract_z
_atom_site_occupancy
_atom_site_attached_hydrogens
_atom_site_B_iso_or_equiv
Hf1 Hf4+ 8 d 0.16220(6) 0 0 1. 0 0.942(8) 
Ag1 Ag1+ 8 e 0.25 0.8974(3) 0.25 1. 0 2.77(3) 
Ag2 Ag1+ 8 f 0 -.0247(3) 0.3208(2) 1. 0 2.57(3) 
S1 S2- 16 g 0.3250(3) 0.1729(5) 0.1036(3) 1. 0 1.11(5) 
S2 S2- 8 f 0 0.3913(7) 0.6237(4) 1. 0 0.98(6) 

#End of data_79251-ICSD


