data_35403-ICSD
#?2014 by Fachinformationszentrum Karlsruhe, and the U.S. Secretary of 
#Commerce on behalf of the United States.  All rights reserved.
_database_code_ICSD                35403
_audit_creation_date               1983/12/31
_chemical_name_systematic
;
Tetraiodophosphorus(V) Tetraiodoaluminate
;
_chemical_formula_structural       'P I4 Al I4'
_chemical_formula_sum              'Al1 I8 P1'
_publ_section_title
;
Darstellung und Kristallstruktur von (P I4)(+) (Al I4)(-)
;
loop_
_citation_id
_citation_journal_abbrev
_citation_year
_citation_journal_volume
_citation_page_first
_citation_page_last
_citation_journal_id_ASTM
primary 'Zeitschrift fuer Anorganische und Allgemeine Chemie (1950) (DE)'
 1983 498 15 19 ZAACAB
_publ_author_name                  'Pohl, S.'
_cell_length_a                     11.094(3)
_cell_length_b                     10.485(3)
_cell_length_c                     15.293(4)
_cell_angle_alpha                  90.
_cell_angle_beta                   90.
_cell_angle_gamma                  90.
_cell_volume                       1778.89
_cell_formula_units_Z              4
_symmetry_space_group_name_H-M     'P n a 21'
_symmetry_Int_Tables_number        33
_refine_ls_R_factor_all            .052
loop_
_symmetry_equiv_pos_site_id
_symmetry_equiv_pos_as_xyz
  1	'x+.5, -y+.5, z'
  2	'-x+.5, y+.5, z+.5'
  3	'-x, -y, z+.5'
  4	'x, y, z'
loop_
_atom_type_symbol
_atom_type_oxidation_number
Al3+	3
I1-	-1
P5+	5
loop_
_atom_site_label
_atom_site_type_symbol
_atom_site_symmetry_multiplicity
_atom_site_Wyckoff_symbol
_atom_site_fract_x
_atom_site_fract_y
_atom_site_fract_z
_atom_site_occupancy
_atom_site_attached_hydrogens
_atom_site_B_iso_or_equiv
I1 I1- 4 a 0.43613(18) 0.43926(21) 0 1. 0 0 
I2 I1- 4 a 0.31189(22) 0.71339(20) 0.16642(20) 1. 0 0 
I3 I1- 4 a 0.60799(19) 0.49857(21) 0.24056(19) 1. 0 0 
I4 I1- 4 a 0.27429(22) 0.33580(25) 0.22849(21) 1. 0 0 
I5 I1- 4 a 0.01524(27) 0.28853(23) 0.42621(23) 1. 0 0 
I6 I1- 4 a -.06842(18) 0.57331(24) 0.57740(19) 1. 0 0 
I7 I1- 4 a -.03411(19) 0.62817(20) 0.32798(19) 1. 0 0 
I8 I1- 4 a 0.25552(18) 0.54638(21) 0.47191(19) 1. 0 0 
Al1 Al3+ 4 a 0.41360(72) 0.50013(79) 0.16205(58) 1. 0 3.07 
P1 P5+ 4 a 0.04398(71) 0.51234(75) 0.45245(56) 1. 0 3.84 

loop_
_atom_site_aniso_label
_atom_site_aniso_type_symbol
_atom_site_aniso_B_11
_atom_site_aniso_B_22
_atom_site_aniso_B_33
_atom_site_aniso_B_12
_atom_site_aniso_B_13
_atom_site_aniso_B_23
I1 I1- 4.5(1) 4.7(1) 3.26(9) -.11(8) 0.65(8) -.86(8)
I2 I1- 6.65(13) 4.06(10) 5.72(12) 1.62(10) -1.60(11) -1.89(10)
I3 I1- 4.48(9) 4.76(10) 5.29(11) -.22(9) -1.11(10) 0.26(10)
I4 I1- 6.15(13) 6.97(14) 5.17(12) -2.78(11) -.20(11) 2.17(11)
I5 I1- 8.50(17) 4.24(11) 9.79(20) -2.26(12) -.02(15) -.03(12)
I6 I1- 4.59(10) 6.51(13) 4.25(11) -1.33(10) 0.23(9) 0.72(10)
I7 I1- 5.20(11) 4.89(11) 3.80(9) -.28(9) -.80(9) 0.94(9)
I8 I1- 3.91(9) 5.12(11) 5.18(11) -.61(8) -.95(8) 0.23(10)
#End of data_35403-ICSD


