data_162776-ICSD
#?2014 by Fachinformationszentrum Karlsruhe, and the U.S. Secretary of 
#Commerce on behalf of the United States.  All rights reserved.
_database_code_ICSD                162776
_audit_creation_date               2009/08/01
_chemical_name_systematic          'Calcium Ruthenate(IV)'
_chemical_formula_structural       'Ca (Ru O3)'
_chemical_formula_sum              'Ca1 O3 Ru1'
_publ_section_title
;
Electrochemical crystal growth of perovskite ruthenates
;
loop_
_citation_id
_citation_journal_abbrev
_citation_year
_citation_journal_volume
_citation_page_first
_citation_page_last
_citation_journal_id_ASTM
primary 'Journal of Crystal Growth' 2009 311 623 626 JCRGAE
_publ_author_name
;
Samata, H.;Saeki, Y.;Mizusaki, S.;Nagata, Y.;Ozawa, T.C.;Sato, A.
;
_cell_length_a                     5.5324(4)
_cell_length_b                     7.6640(5)
_cell_length_c                     5.3563(4)
_cell_angle_alpha                  90.
_cell_angle_beta                   90.
_cell_angle_gamma                  90.
_cell_volume                       227.11
_cell_formula_units_Z              4
_symmetry_space_group_name_H-M     'P n m a'
_symmetry_Int_Tables_number        62
_refine_ls_R_factor_all            .0268
loop_
_symmetry_equiv_pos_site_id
_symmetry_equiv_pos_as_xyz
  1	'x+.5, y, -z+.5'
  2	'x, -y+.5, z'
  3	'-x+.5, y+.5, z+.5'
  4	'-x, -y, -z'
  5	'-x+.5, -y, z+.5'
  6	'-x, y+.5, -z'
  7	'x+.5, -y+.5, -z+.5'
  8	'x, y, z'
loop_
_atom_type_symbol
_atom_type_oxidation_number
Ca2+	2
O2-	-2
Ru4+	4
loop_
_atom_site_label
_atom_site_type_symbol
_atom_site_symmetry_multiplicity
_atom_site_Wyckoff_symbol
_atom_site_fract_x
_atom_site_fract_y
_atom_site_fract_z
_atom_site_occupancy
_atom_site_attached_hydrogens
_atom_site_U_iso_or_equiv
Ca1 Ca2+ 4 c 0.4451(1) 0.250 0.01341(6) 1. 0 0.0088(1) 
Ru1 Ru4+ 4 a 0 0 0 1. 0 0.0048(1) 
O1 O2- 4 c 0.9742(3) 0.750 0.0922(3) 1. 0 0.0089(2) 
O2 O2- 8 d 0.2021(2) 0.0472(1) 0.3018(2) 1. 0 0.0090(2) 

#End of data_162776-ICSD


