data_290207-ICSD
#?2014 by Fachinformationszentrum Karlsruhe, and the U.S. Secretary of 
#Commerce on behalf of the United States.  All rights reserved.
_database_code_ICSD                290207
_audit_creation_date               2013/08/01
_chemical_name_systematic          'Dimagnesium Silicate'
_chemical_formula_structural       'Mg2 Si O4'
_chemical_formula_sum              'Mg2 O4 Si1'
_chemical_name_mineral             'Wadsleyite (anhydrous)'
_publ_section_title
;
High-temperature structural behaviors of anhydrous wadsleyite and 
forsterite
;
loop_
_citation_id
_citation_journal_abbrev
_citation_year
_citation_journal_volume
_citation_journal_issue
_citation_page_first
_citation_page_last
_citation_journal_id_ASTM
primary 'American Mineralogist' 2012 97 10 1582 1590 AMMIAY
_publ_author_name
;
Trots, D.M.;Kurnosov, A.;Boffa Ballaran, T.;Frost, D.J.
;
_cell_length_a                     5.7321(1)
_cell_length_b                     11.4998(2)
_cell_length_c                     8.3163(2)
_cell_angle_alpha                  90.000
_cell_angle_beta                   90.000
_cell_angle_gamma                  90.000
_cell_volume                       548.19
_cell_formula_units_Z              8
_symmetry_space_group_name_H-M     'I m m a'
_symmetry_Int_Tables_number        74
loop_
_symmetry_equiv_pos_site_id
_symmetry_equiv_pos_as_xyz
  1	'-x, y+.5, -z'
  2	'-x, -y+.5, z'
  3	'-x, y, z'
  4	'-x, -y, -z'
  5	'x, -y+.5, z'
  6	'x, y+.5, -z'
  7	'x, -y, -z'
  8	'x, y, z'
  9	'-x+.5, y, -z+.5'
 10	'-x+.5, -y, z+.5'
 11	'-x+.5, y+.5, z+.5'
 12	'-x+.5, -y+.5, -z+.5'
 13	'x+.5, -y, z+.5'
 14	'x+.5, y, -z+.5'
 15	'x+.5, -y+.5, -z+.5'
 16	'x+.5, y+.5, z+.5'
loop_
_atom_type_symbol
_atom_type_oxidation_number
Mg2+	2
O2-	-2
Si4+	4
loop_
_atom_site_label
_atom_site_type_symbol
_atom_site_symmetry_multiplicity
_atom_site_Wyckoff_symbol
_atom_site_fract_x
_atom_site_fract_y
_atom_site_fract_z
_atom_site_occupancy
_atom_site_attached_hydrogens
_atom_site_B_iso_or_equiv
Mg1 Mg2+ 4 a 0.0000 0.0000 0.0000 1.000 0 0.41(4) 
Mg2 Mg2+ 4 e 0.0000 0.2500 0.9697(5) 1.000 0 0.41(4) 
Mg3 Mg2+ 8 g 0.2500 0.1301(5) 0.2500 1.000 0 0.41(4) 
Si1 Si4+ 8 h 0.0000 0.1188(3) 0.6163(4) 1.000 0 0.41(4) 
O1 O2- 4 e 0.0000 0.2500 0.2164(10) 1.000 0 0.41(4) 
O2 O2- 4 e 0.0000 0.2500 0.7147(10) 1.000 0 0.41(4) 
O3 O2- 8 h 0.0000 0.9907(4) 0.2538(10) 1.000 0 0.41(4) 
O4 O2- 16 j 0.2639(6) 0.1235(13) 0.9939(5) 1.000 0 0.41(4) 

#End of data_290207-ICSD


