data_422751-ICSD
#?2014 by Fachinformationszentrum Karlsruhe, and the U.S. Secretary of 
#Commerce on behalf of the United States.  All rights reserved.
_database_code_ICSD                422751
_audit_creation_date               2012/02/01
_chemical_name_systematic          'Sodium Copper Oxide (2/1/2)'
_chemical_formula_structural       'Na2 Cu O2'
_chemical_formula_sum              'Cu1 Na2 O2'
_publ_section_title
;
Structural ordering principles in quasi one-dimensional Wigner 
crystals of the series Na(1+x) Cu O2 (0 <= x <= 1)
;
loop_
_citation_id
_citation_journal_abbrev
_citation_year
_citation_journal_volume
_citation_journal_issue
_citation_page_first
_citation_page_last
_citation_journal_id_ASTM
primary 'Zeitschrift fuer Kristallographie - Crystalline Materials'
 2011 226 8 627 632 ZKCMAJ
_publ_author_name                  'Nuss, J.;Wedig, U.;Jansen, M.'
_cell_length_a                     5.6314
_cell_length_b                     2.9194
_cell_length_c                     7.9823
_cell_angle_alpha                  90.000
_cell_angle_beta                   108.493
_cell_angle_gamma                  90.000
_cell_volume                       124.46
_cell_formula_units_Z              2
_symmetry_space_group_name_H-M     'P 1 21/m 1'
_symmetry_Int_Tables_number        11
loop_
_symmetry_equiv_pos_site_id
_symmetry_equiv_pos_as_xyz
  1	'x, -y+.5, z'
  2	'-x, -y, -z'
  3	'-x, y+.5, -z'
  4	'x, y, z'
loop_
_atom_type_symbol
_atom_type_oxidation_number
Cu2+	2
Na1+	1
O2-	-2
loop_
_atom_site_label
_atom_site_type_symbol
_atom_site_symmetry_multiplicity
_atom_site_Wyckoff_symbol
_atom_site_fract_x
_atom_site_fract_y
_atom_site_fract_z
_atom_site_occupancy
_atom_site_attached_hydrogens
Cu1 Cu2+ 2 e -0.0264 0.2500 0.2366 1.000 0 
O1 O2- 2 e 0.2349 0.7500 0.3182 1.000 0 
O2 O2- 2 e -0.2724 -0.2500 0.1746 1.000 0 
Na1 Na1+ 2 e 0.3867 0.2500 0.1236 1.000 0 
Na2 Na1+ 2 e 0.3219 0.2500 0.5582 1.000 0 

#End of data_422751-ICSD


