data_83582-ICSD
#?2014 by Fachinformationszentrum Karlsruhe, and the U.S. Secretary of 
#Commerce on behalf of the United States.  All rights reserved.
_database_code_ICSD                83582
_audit_creation_date               1998/06/26
_chemical_name_systematic          'Dicobalt Lithium Triphosphate'
_chemical_formula_structural       'Co2 Li (P3 O10)'
_chemical_formula_sum              'Co2 Li1 O10 P3'
_publ_section_title
;
A new type of triphosphate group: crystal structure and magnetic 
properties of Co2 Li P3 O10
;
loop_
_citation_id
_citation_journal_abbrev
_citation_year
_citation_journal_volume
_citation_page_first
_citation_page_last
_citation_journal_id_ASTM
primary 'European Journal of Solid State Inorganic Chemistry'
 1997 34 221 230 EJSCE5
_publ_author_name
;
Rissouli, K.;Benhouja, K.;Sadel, A.;Bettach, M.;Zahir, M.;Giorgi, 
M.;Pierrot, M.;Drillon, M.
;
_cell_length_a                     4.589(1)
_cell_length_b                     8.446(2)
_cell_length_c                     8.976(3)
_cell_angle_alpha                  90.
_cell_angle_beta                   97.76(3)
_cell_angle_gamma                  90.
_cell_volume                       344.71
_cell_formula_units_Z              2
_symmetry_space_group_name_H-M     'P 1 21/m 1'
_symmetry_Int_Tables_number        11
_refine_ls_R_factor_all            .033
loop_
_symmetry_equiv_pos_site_id
_symmetry_equiv_pos_as_xyz
  1	'x, -y+.5, z'
  2	'-x, -y, -z'
  3	'-x, y+.5, -z'
  4	'x, y, z'
loop_
_atom_type_symbol
_atom_type_oxidation_number
Co2+	2
Li1+	1
O2-	-2
P5+	5
loop_
_atom_site_label
_atom_site_type_symbol
_atom_site_symmetry_multiplicity
_atom_site_Wyckoff_symbol
_atom_site_fract_x
_atom_site_fract_y
_atom_site_fract_z
_atom_site_occupancy
_atom_site_attached_hydrogens
_atom_site_U_iso_or_equiv
Co1 Co2+ 4 f 0.03797(4) 0.06707(2) 0.33462(2) 1. 0 0.0062(4) 
Li1 Li1+ 2 a 0 0 0 1. 0 0.025(1) 
P1 P5+ 2 e 0.4617(1) 0.25 0.14303(6) 1. 0 0.0048(8) 
P2 P5+ 2 e 0.3332(1) 0.25 0.82249(6) 1. 0 0.0050(8) 
P3 P5+ 2 e 0.6031(1) 0.25 0.53623(5) 1. 0 0.0045(8) 
O1 O2- 4 f 0.2858(2) 0.1007(1) 0.1565(1) 1. 0 0.0081(1) 
O2 O2- 2 e 0.7612(3) 0.25 0.2389(2) 1. 0 0.0072(2) 
O3 O2- 2 e 0.5657(4) 0.25 0.7104(2) 1. 0 0.0108(2) 
O4 O2- 2 e 0.5561(3) 0.25 0.9748(2) 1. 0 0.0072(2) 
O5 O2- 4 f 0.1602(2) 0.0999(1) 0.8139(1) 1. 0 0.0102(1) 
O6 O2- 4 f 0.7739(2) 0.0995(1) 0.5153(1) 1. 0 0.0077(1) 
O7 O2- 2 e 0.2993(3) 0.25 0.4463(2) 1. 0 0.0073(2) 

#End of data_83582-ICSD


