data_75441-ICSD
#?2014 by Fachinformationszentrum Karlsruhe, and the U.S. Secretary of 
#Commerce on behalf of the United States.  All rights reserved.
_database_code_ICSD                75441
_audit_creation_date               1996/04/22
_audit_update_record               1999/01/19
_chemical_name_systematic
;
Sodium Tricobalt Phosphate(V) Bis(hydrogenphosphate(V))
;
_chemical_formula_structural       'Na Co3 (P O4) (H P O4)2'
_chemical_formula_sum              'H2 Co3 Na1 O12 P3'
_chemical_name_mineral             Alluaudite-(Co)
_publ_section_title
;
Hydrothermal synthesis and crystal structures of Na Co3 (P O4) (H 
PO4)2 and Na Co3 (As O4) (H As O4)2: synthetic modifications of the 
mineral alluaudite
;
loop_
_citation_id
_citation_journal_abbrev
_citation_year
_citation_journal_volume
_citation_page_first
_citation_page_last
_citation_journal_id_ASTM
primary 'Inorganic Chemistry' 1994 33 3028 3031 INOCAJ
_publ_author_name                  'Lii, K.-H.;Shih, P.-F.'
_cell_length_a                     11.865(2)
_cell_length_b                     12.137(2)
_cell_length_c                     6.512(1)
_cell_angle_alpha                  90.
_cell_angle_beta                   114.12(1)
_cell_angle_gamma                  90.
_cell_volume                       855.89
_cell_formula_units_Z              4
_symmetry_space_group_name_H-M     'C 1 2/c 1'
_symmetry_Int_Tables_number        15
_refine_ls_R_factor_all            .037
loop_
_symmetry_equiv_pos_site_id
_symmetry_equiv_pos_as_xyz
  1	'x, -y, z+.5'
  2	'-x, -y, -z'
  3	'-x, y, -z+.5'
  4	'x, y, z'
  5	'x+.5, -y+.5, z+.5'
  6	'-x+.5, -y+.5, -z'
  7	'-x+.5, y+.5, -z+.5'
  8	'x+.5, y+.5, z'
loop_
_atom_type_symbol
_atom_type_oxidation_number
Co2+	2
H1+	1
Na1+	1
O2-	-2
P5+	5
loop_
_atom_site_label
_atom_site_type_symbol
_atom_site_symmetry_multiplicity
_atom_site_Wyckoff_symbol
_atom_site_fract_x
_atom_site_fract_y
_atom_site_fract_z
_atom_site_occupancy
_atom_site_attached_hydrogens
_atom_site_U_iso_or_equiv
Na1 Na1+ 4 e 0 0.0246(5) 0.75 1. 0 0.039(2) 
Co1 Co2+ 4 e 0 0.2810(1) 0.25 1. 0 0.0103(4) 
Co2 Co2+ 8 f 0.29008(8) 0.66232(8) 0.3758(1) 1. 0 0.0089(3) 
P1 P5+ 4 e 0 0.6842(2) 0.25 1. 0 0.0080(7) 
P2 P5+ 8 f 0.2183(1) 0.8886(1) 0.1125(3) 1. 0 0.0077(5) 
O1 O2- 8 f 0.4647(4) 0.7432(4) 0.5394(7) 1. 0 0.011(1) 
O2 O2- 8 f 0.1074(4) 0.6077(4) 0.2645(7) 1. 0 0.011(1) 
O3 O2- 8 f 0.3463(4) 0.6719(4) 0.1127(7) 1. 0 0.010(1) 
O4 O2- 8 f 0.1415(4) 0.4080(4) 0.3430(7) 1. 0 0.011(1) 
O5 O2- 8 f 0.2151(4) 0.8207(4) 0.3067(7) 1. 0 0.009(1) 
O6 O2- 8 f 0.3443(4) 0.4990(4) 0.4004(7) 1. 0 0.011(1) 
H1 H1+ 8 f 0.8766 0.4831 0.1775 1. 0 0.05(1) 

#End of data_75441-ICSD


