data_174519-ICSD
#?2014 by Fachinformationszentrum Karlsruhe, and the U.S. Secretary of 
#Commerce on behalf of the United States.  All rights reserved.
_database_code_ICSD                174519
_audit_creation_date               2011/02/01
_chemical_name_systematic          'Silver Palladium Tris(iodate(V))'
_chemical_formula_structural       'Ag Pd (I O3)3'
_chemical_formula_sum              'Ag1 I3 O9 Pd1'
_publ_section_title
;
Polar or non-polar? Syntheses, crystal structures, and optical 
properties of three new palladium(II) iodates
;
loop_
_citation_id
_citation_journal_abbrev
_citation_year
_citation_journal_volume
_citation_journal_issue
_citation_page_first
_citation_page_last
_citation_journal_id_ASTM
primary 'Inorganic Chemistry' 2010 49 20 9581 9589 INOCAJ
_publ_author_name
;
Sun Chuan Fu;Hu Chunli;Xu Xiang;Mao Jiang Gao
;
_cell_length_a                     7.315(5)
_cell_length_b                     7.991(6)
_cell_length_c                     8.575(5)
_cell_angle_alpha                  63.75(2)
_cell_angle_beta                   76.59(3)
_cell_angle_gamma                  82.27(3)
_cell_volume                       437
_cell_formula_units_Z              2
_symmetry_space_group_name_H-M     'P -1'
_symmetry_Int_Tables_number        2
_refine_ls_R_factor_all            .0218
loop_
_symmetry_equiv_pos_site_id
_symmetry_equiv_pos_as_xyz
  1	'-x, -y, -z'
  2	'x, y, z'
loop_
_atom_type_symbol
_atom_type_oxidation_number
Ag1+	1
I5+	5
O2-	-2
Pd2+	2
loop_
_atom_site_label
_atom_site_type_symbol
_atom_site_symmetry_multiplicity
_atom_site_Wyckoff_symbol
_atom_site_fract_x
_atom_site_fract_y
_atom_site_fract_z
_atom_site_occupancy
_atom_site_attached_hydrogens
_atom_site_U_iso_or_equiv
Ag1 Ag1+ 2 i -0.31668(10) -0.17858(11) 0.84249(8) 1 0 0.0303(2) 
Pd1 Pd2+ 1 b 0.0000 0.0000 0.5000 1 0 0.0121(2) 
Pd2 Pd2+ 1 a 0.0000 0.0000 0.0000 1 0 0.0123(2) 
I1 I5+ 2 i -0.27980(6) -0.20912(7) 0.39695(6) 1 0 0.01305(15) 
I2 I5+ 2 i -0.24649(7) 0.35600(7) 0.23197(6) 1 0 0.01519(16) 
I3 I5+ 2 i 0.30580(6) -0.28441(7) 0.21444(6) 1 0 0.01310(15) 
O1 O2- 2 i -0.1405(7) -0.2263(8) 0.5578(6) 1 0 0.0203(13) 
O2 O2- 2 i -0.0791(7) -0.2238(8) 0.2279(6) 1 0 0.0197(13) 
O3 O2- 2 i -0.3214(7) -0.4513(8) 0.4908(6) 1 0 0.0208(13) 
O4 O2- 2 i -0.0894(7) 0.1414(8) 0.2690(7) 1 0 0.0212(13) 
O5 O2- 2 i -0.2136(8) 0.4399(9) -0.0035(7) 1 0 0.0272(14) 
O6 O2- 2 i -0.4625(7) 0.2359(8) 0.3129(7) 1 0 0.0253(14) 
O7 O2- 2 i 0.2738(7) -0.0689(8) 0.0134(7) 1 0 0.0210(13) 
O8 O2- 2 i 0.3250(7) -0.1665(8) 0.3455(7) 1 0 0.0225(13) 
O9 O2- 2 i 0.5539(7) -0.3266(8) 0.1424(7) 1 0 0.0232(13) 

loop_
_atom_site_aniso_label
_atom_site_aniso_type_symbol
_atom_site_aniso_U_11
_atom_site_aniso_U_22
_atom_site_aniso_U_33
_atom_site_aniso_U_12
_atom_site_aniso_U_13
_atom_site_aniso_U_23
Ag1 Ag1+ 0.0417(4) 0.0276(4) 0.0181(4) -0.0079(3) 0.0004(3) -0.0079(3)
Pd1 Pd2+ 0.0110(4) 0.0132(5) 0.0137(4) -0.0003(3) -0.0037(3) -0.0066(4)
Pd2 Pd2+ 0.0115(4) 0.0128(5) 0.0095(4) 0.0000(3) -0.0025(3) -0.0020(4)
I1 I5+ 0.0120(3) 0.0126(3) 0.0128(3) -0.0024(2) -0.00251(19) -0.0034(2)
I2 I5+ 0.0180(3) 0.0145(3) 0.0154(3) 0.0015(2) -0.0062(2) -0.0075(2)
I3 I5+ 0.0120(3) 0.0138(3) 0.0136(3) 0.0010(2) -0.0045(2) -0.0053(2)
O1 O2- 0.024(3) 0.025(4) 0.013(3) -0.009(3) -0.009(2) -0.004(3)
O2 O2- 0.014(3) 0.021(3) 0.018(3) 0.003(2) 0.001(2) -0.006(3)
O3 O2- 0.030(3) 0.016(3) 0.018(3) -0.008(3) -0.008(3) -0.005(3)
O4 O2- 0.028(3) 0.020(4) 0.020(3) 0.006(3) -0.012(3) -0.010(3)
O5 O2- 0.030(3) 0.031(4) 0.014(3) 0.009(3) -0.005(3) -0.006(3)
O6 O2- 0.023(3) 0.031(4) 0.025(3) -0.008(3) -0.001(3) -0.015(3)
O7 O2- 0.017(3) 0.016(3) 0.019(3) -0.002(2) -0.005(2) 0.004(3)
O8 O2- 0.033(3) 0.021(4) 0.022(3) 0.006(3) -0.013(3) -0.015(3)
O9 O2- 0.013(3) 0.027(4) 0.020(3) 0.006(2) -0.001(2) -0.004(3)
#End of data_174519-ICSD


