data_67170-ICSD
#?2014 by Fachinformationszentrum Karlsruhe, and the U.S. Secretary of 
#Commerce on behalf of the United States.  All rights reserved.
_database_code_ICSD                67170
_audit_creation_date               1990/12/27
_audit_update_record               2012/02/01
_chemical_name_systematic
;
Tetradecapotassium Tridecaoxotetraferrate(III)
;
_chemical_formula_structural       'K14 (Fe4 O13)'
_chemical_formula_sum              'Fe4 K14 O13'
_publ_section_title
;
Das erste oligomere Oxoferrat(III): K14 (Fe4 O13)
;
loop_
_citation_id
_citation_journal_abbrev
_citation_year
_citation_journal_volume
_citation_page_first
_citation_page_last
_citation_journal_id_ASTM
primary 'Zeitschrift fuer Anorganische und Allgemeine Chemie (1950) (DE)'
 1990 580 57 70 ZAACAB
_publ_author_name                  'Mueller, H.P.;Hoppe, R.'
_cell_length_a                     6.718
_cell_length_b                     29.562
_cell_length_c                     6.721
_cell_angle_alpha                  90.
_cell_angle_beta                   119.41
_cell_angle_gamma                  90.
_cell_volume                       1162.76
_cell_formula_units_Z              2
_symmetry_space_group_name_H-M     'P 1 21/c 1'
_symmetry_Int_Tables_number        14
_refine_ls_R_factor_all            .0452
loop_
_symmetry_equiv_pos_site_id
_symmetry_equiv_pos_as_xyz
  1	'x, -y+.5, z+.5'
  2	'-x, -y, -z'
  3	'-x, y+.5, -z+.5'
  4	'x, y, z'
loop_
_atom_type_symbol
_atom_type_oxidation_number
Fe3+	3
K1+	1
O2-	-2
loop_
_atom_site_label
_atom_site_type_symbol
_atom_site_symmetry_multiplicity
_atom_site_Wyckoff_symbol
_atom_site_fract_x
_atom_site_fract_y
_atom_site_fract_z
_atom_site_occupancy
_atom_site_attached_hydrogens
K1 K1+ 4 e 0.27020(11) 0.99911(2) 0.04042(11) 1. 0 
K2 K1+ 4 e 0.28181(11) 0.88583(2) 0.04223(11) 1. 0 
K3 K1+ 4 e 0.72410(12) 0.78024(2) 0.94851(12) 1. 0 
K4 K1+ 4 e 0.14796(12) 0.94967(2) 0.49876(13) 1. 0 
K5 K1+ 4 e 0.87016(11) 0.84879(2) 0.50207(13) 1. 0 
K6 K1+ 4 e 0.27466(12) 0.77047(2) 0.05440(12) 1. 0 
K7 K1+ 4 e 0.74005(11) 0.88812(2) 0.95706(11) 1. 0 
Fe1 Fe3+ 4 e 0.65423(6) 0.94560(1) 0.49937(6) 1. 0 
Fe2 Fe3+ 4 e 0.35251(7) 0.83628(1) 0.49912(7) 1. 0 
O1 O2- 4 e 0.47248(23) 0.89641(6) 0.50106(34) 1. 0 
O2 O2- 4 e 0.32559(33) 0.05665(6) 0.76663(33) 1. 0 
O3 O2- 4 e 0.33137(35) 0.67151(7) 0.26540(33) 1. 0 
O4 O2- 4 e 0.07107(33) 0.82954(7) 0.23161(35) 1. 0 
O5 O2- 4 e 0.06192(32) 0.05683(6) 0.23535(33) 1. 0 
O6 O2- 4 e 0.56286(35) 0.70599(6) 0.00165(35) 1. 0 
O7 O2- 2 d 0.5 0 0.5 1. 0 

loop_
_atom_site_aniso_label
_atom_site_aniso_type_symbol
_atom_site_aniso_U_11
_atom_site_aniso_U_22
_atom_site_aniso_U_33
_atom_site_aniso_U_12
_atom_site_aniso_U_13
_atom_site_aniso_U_23
K1 K1+ 0.0176(3) 0.0184(3) 0.0132(3) -.0009(2) 0.0063(2) -.0001(2)
K2 K1+ 0.0174(3) 0.0186(3) 0.0138(3) -.0002(2) 0.0069(3) -.0009(2)
K3 K1+ 0.0185(3) 0.0190(3) 0.0212(4) -.0059(3) 0.0038(3) 0.0030(3)
K4 K1+ 0.0166(3) 0.0324(4) 0.0330(4) -.0012(3) 0.0162(3) 0.0007(3)
K5 K1+ 0.0166(3) 0.0200(3) 0.0270(4) 0.0001(3) 0.0132(3) 0.0001(3)
K6 K1+ 0.0244(4) 0.0205(3) 0.0198(4) 0.0043(3) 0.0126(3) 0.0002(3)
K7 K1+ 0.0198(3) 0.0174(3) 0.0136(3) 0.0010(2) 0.0079(3) 0.0009(2)
Fe1 Fe3+ 0.0081(2) 0.0076(2) 0.0090(2) 0.0002(1) 0.0044(1) 0.0001(1)
Fe2 Fe3+ 0.0091(2) 0.0085(2) 0.0097(2) -.0004(1) 0.0050(2) 0.0001(1)
O1 O2- 0.0169(10) 0.0130(9) 0.0166(11) -.0045(7) 0.0081(8) -.0003(8)
O2 O2- 0.0172(10) 0.022(1) 0.0142(11) -.0001(8) 0.0103(8) -.0002(8)
O3 O2- 0.0188(11) 0.0228(10) 0.0131(11) -.0023(8) 0.0099(9) -.0023(8)
O4 O2- 0.0113(10) 0.0230(11) 0.0171(11) -.0019(8) 0.0045(9) -.0025(8)
O5 O2- 0.0100(9) 0.021(1) 0.0157(11) 0.0001(8) 0.0037(8) 0.0005(8)
O6 O2- 0.015(1) 0.0150(9) 0.0214(11) -.0021(8) 0.0104(9) 0.0009(9)
O7 O2- 0.0152(15) 0.0113(12) 0.0152(14) 0.0034(10) 0.0071(13) -.0014(10)
#End of data_67170-ICSD


