data_40528-ICSD
#?2014 by Fachinformationszentrum Karlsruhe, and the U.S. Secretary of 
#Commerce on behalf of the United States.  All rights reserved.
_database_code_ICSD                40528
_audit_creation_date               1999/11/30
_chemical_name_systematic          'Calcium Iron Silicate Hydroxide *'
_chemical_formula_structural       'Ca Fe3 Si2 O8 (O H)'
_chemical_formula_sum              'H1 Ca1 Fe3 O9 Si2'
_chemical_name_mineral             'Ilvaite M'
_publ_section_title
;
Electron ordering in ilvaite, a mixed-valence iron silicate: crystal 
structure refinement at 138 K
;
loop_
_citation_id
_citation_journal_abbrev
_citation_year
_citation_journal_volume
_citation_page_first
_citation_page_last
_citation_journal_id_ASTM
primary 'American Mineralogist' 1985 70 1248 1252 AMMIAY
_publ_author_name
;
Ghose, S.;Sen Gupta, P.K.;Schlemper, E.O.
;
_cell_length_a                     13.008(1)
_cell_length_b                     8.784(1)
_cell_length_c                     5.836(1)
_cell_angle_alpha                  90.
_cell_angle_beta                   90.21(1)
_cell_angle_gamma                  90.
_cell_volume                       666.83
_cell_formula_units_Z              4
_symmetry_space_group_name_H-M     'P 1 21/a 1'
_symmetry_Int_Tables_number        14
_refine_ls_R_factor_all            .024
loop_
_symmetry_equiv_pos_site_id
_symmetry_equiv_pos_as_xyz
  1	'x+.5, -y+.5, z'
  2	'-x, -y, -z'
  3	'-x+.5, y+.5, -z'
  4	'x, y, z'
loop_
_atom_type_symbol
_atom_type_oxidation_number
Ca2+	2
Fe2+	2
Fe2.3+	2.3
Fe2.7+	2.7
H1+	1
O2-	-2
Si4+	4
loop_
_atom_site_label
_atom_site_type_symbol
_atom_site_symmetry_multiplicity
_atom_site_Wyckoff_symbol
_atom_site_fract_x
_atom_site_fract_y
_atom_site_fract_z
_atom_site_occupancy
_atom_site_attached_hydrogens
_atom_site_B_iso_or_equiv
Fe1 Fe2.3+ 4 e 0.89001(2) 0.05004(4) 0.00852(5) 1. 0 0.320(5) 
Fe2 Fe2.7+ 4 e 0.88996(2) 0.05218(4) 0.49051(5) 1. 0 0.307(5) 
Fe3 Fe2+ 4 e 0.94134(2) 0.74089(4) 0.24923(6) 1. 0 0.307(5) 
Ca1 Ca2+ 4 e 0.81261(3) 0.37020(5) 0.75256(8) 1. 0 0.316(7) 
Si1 Si4+ 4 e 0.95954(5) 0.36916(7) 0.2492(1) 1. 0 0.233(9) 
Si2 Si4+ 4 e 0.67914(5) 0.22764(7) 0.2518(1) 1. 0 0.231(9) 
O1 O2- 4 e 0.0090(1) 0.0294(2) 0.7379(3) 1. 0 0.51(3) 
O2 O2- 4 e 0.9369(1) 0.2722(2) 0.0159(3) 1. 0 0.35(3) 
O3 O2- 4 e 0.9354(1) 0.2728(2) 0.4829(3) 1. 0 0.34(2) 
O4 O2- 4 e 0.7774(1) 0.1102(2) 0.2553(3) 1. 0 0.33(3) 
O5 O2- 4 e 0.6706(1) 0.3289(2) 0.0179(3) 1. 0 0.37(3) 
O6 O2- 4 e 0.6703(1) 0.3318(2) 0.4830(3) 1. 0 0.36(3) 
O7 O2- 4 e 0.5848(1) 0.1008(2) 0.2524(3) 1. 0 0.33(3) 
O8 O2- 4 e 0.6018(1) 0.0264(2) 0.7519(3) 1. 0 0.43(3) 
O9 O2- 4 e 0.7980(1) 0.1096(2) 0.7441(3) 1. 0 0.43(3) 
H1 H1+ 4 e 0.741(3) 0.098(6) 0.743(7) 1. 0 3.2(9) 

#End of data_40528-ICSD


