data_68247-ICSD
#?2014 by Fachinformationszentrum Karlsruhe, and the U.S. Secretary of 
#Commerce on behalf of the United States.  All rights reserved.
_database_code_ICSD                68247
_audit_creation_date               1991/07/10
_audit_update_record               2012/08/01
_chemical_name_systematic          'Dilithium Heptagermanate'
_chemical_formula_structural       'Li2 (Ge7 O15)'
_chemical_formula_sum              'Ge7 Li2 O15'
_publ_section_title
;
Neutron diffraction refinement of the crystal structure of Li2 Ge7 
O15 at 298 K
;
loop_
_citation_id
_citation_journal_abbrev
_citation_year
_citation_journal_volume
_citation_page_first
_citation_page_last
_citation_journal_id_ASTM
primary 'Kyoto University, Research Reactor Institute: Annual Report'
 1986 19 11 22 KURAAV
2 'Phase Transition' 1992 38 127 220 PHTRDP
_publ_author_name                  'Iwata, Y.;Koyano, N.;Shibuya, I.'
_cell_length_a                     7.36
_cell_length_b                     16.76
_cell_length_c                     9.69
_cell_angle_alpha                  90.
_cell_angle_beta                   90.
_cell_angle_gamma                  90.
_cell_volume                       1195.3
_cell_formula_units_Z              4
_symmetry_space_group_name_H-M     'P b c n'
_symmetry_Int_Tables_number        60
_refine_ls_R_factor_all            .067
loop_
_symmetry_equiv_pos_site_id
_symmetry_equiv_pos_as_xyz
  1	'x, -y, z+.5'
  2	'-x+.5, y+.5, z'
  3	'x+.5, y+.5, -z+.5'
  4	'-x, -y, -z'
  5	'-x, y, -z+.5'
  6	'x+.5, -y+.5, -z'
  7	'-x+.5, -y+.5, z+.5'
  8	'x, y, z'
loop_
_atom_type_symbol
_atom_type_oxidation_number
Ge4+	4
Li1+	1
O2-	-2
loop_
_atom_site_label
_atom_site_type_symbol
_atom_site_symmetry_multiplicity
_atom_site_Wyckoff_symbol
_atom_site_fract_x
_atom_site_fract_y
_atom_site_fract_z
_atom_site_occupancy
_atom_site_attached_hydrogens
Ge1 Ge4+ 4 c 0 0.4130(2) 0.25 1. 0 
Ge2 Ge4+ 8 d 0.2135(3) 0.0583(1) 0.2490(3) 1. 0 
Ge3 Ge4+ 8 d 0.2837(3) 0.3404(1) 0.0331(2) 1. 0 
Ge4 Ge4+ 8 d 0.2863(3) 0.3447(1) 0.4714(2) 1. 0 
O1 O2- 4 c 0 0.0159(3) 0.25 1. 0 
O2 O2- 8 d 0.2886(6) 0.0889(2) 0.4117(4) 1. 0 
O3 O2- 8 d 0.1894(5) 0.1479(2) 0.1524(4) 1. 0 
O4 O2- 8 d 0.2017(6) 0.2491(2) 0.4386(4) 1. 0 
O5 O2- 8 d 0.1388(5) 0.3306(2) 0.1704(4) 1. 0 
O6 O2- 8 d 0.4994(6) 0.3591(3) 0.0947(4) 1. 0 
O7 O2- 8 d 0.1449(5) 0.4172(2) 0.4084(3) 1. 0 
O8 O2- 8 d 0.1418(5) 0.4932(2) 0.1678(4) 1. 0 
Li1 Li1+ 4 b 0 0.5 0 1. 0 
Li2 Li1+ 4 c 0 0.2414(10) 0.25 1. 0 

#End of data_68247-ICSD


