data_38208-ICSD
#?2014 by Fachinformationszentrum Karlsruhe, and the U.S. Secretary of 
#Commerce on behalf of the United States.  All rights reserved.
_database_code_ICSD                38208
_audit_creation_date               1980/01/01
_audit_update_record               2006/04/01
_chemical_name_systematic          'Lithium Manganese Phosphate(V)'
_chemical_formula_structural       'Li Mn (P O4)'
_chemical_formula_sum              'Li1 Mn1 O4 P1'
_chemical_name_mineral             Lithiophilite
_publ_section_title
;
Minerals of the varutrask pegmatite. IX. X-ray studies on triphylite, 
varulite, and their oxidation products
;
loop_
_citation_id
_citation_journal_abbrev
_citation_year
_citation_journal_volume
_citation_page_first
_citation_page_last
_citation_journal_id_ASTM
primary 'Geologiska Foereningens i Stockholm Foerhandlingar'
 1938 60 67 72 GFSFA4
_publ_author_name                  'Bjoerling, C.O.;Westgren, A.'
_cell_length_a                     4.711
_cell_length_b                     10.374
_cell_length_c                     6.038
_cell_angle_alpha                  90.
_cell_angle_beta                   90.
_cell_angle_gamma                  90.
_cell_volume                       295.09
_cell_formula_units_Z              4
_symmetry_space_group_name_H-M     'P b n m'
_symmetry_Int_Tables_number        62
loop_
_symmetry_equiv_pos_site_id
_symmetry_equiv_pos_as_xyz
  1	'-x+.5, y+.5, z'
  2	'x, y, -z+.5'
  3	'x+.5, -y+.5, z+.5'
  4	'-x, -y, -z'
  5	'x+.5, -y+.5, -z'
  6	'-x, -y, z+.5'
  7	'-x+.5, y+.5, -z+.5'
  8	'x, y, z'
loop_
_atom_type_symbol
_atom_type_oxidation_number
Li1+	1
Mn2+	2
O2-	-2
P5+	5
loop_
_atom_site_label
_atom_site_type_symbol
_atom_site_symmetry_multiplicity
_atom_site_Wyckoff_symbol
_atom_site_fract_x
_atom_site_fract_y
_atom_site_fract_z
_atom_site_occupancy
_atom_site_attached_hydrogens
Li1 Li1+ 4 a 0 0 0 1. 0 
Mn1 Mn2+ 4 c -.0278 0.2778 0.25 1. 0 
P1 P5+ 4 c 0.4167 0.0972 0.25 1. 0 
O1 O2- 4 c -.25 0.0556 0.25 1. 0 
O2 O2- 4 c 0.25 0.4444 0.25 1. 0 
O3 O2- 8 d 0.1944 0.1667 0.0278 1. 0 

#End of data_38208-ICSD


