data_87960-ICSD
#?2014 by Fachinformationszentrum Karlsruhe, and the U.S. Secretary of 
#Commerce on behalf of the United States.  All rights reserved.
_database_code_ICSD                87960
_audit_creation_date               2001/07/16
_audit_update_record               2007/08/01
_chemical_name_systematic
;
Dicesium Tetraiodozincate - Coexistence Phase I
;
_chemical_formula_structural       'Cs2 (Zn I4)'
_chemical_formula_sum              'Cs2 I4 Zn1'
_publ_section_title
;
Powder x-ray diffraction study in Cs2 Zn I4
;
loop_
_citation_id
_citation_journal_abbrev
_citation_year
_citation_journal_volume
_citation_page_first
_citation_page_last
_citation_journal_id_ASTM
primary Ferroelectrics 1999 229 195 200 FEROA8
2 'Golden Book of Phase Transitions, Wroclaw' 2002 1 1 123 GBOPT5
_publ_author_name                  'Kurihama, T.;Shimizu, F.;Izumi, T.'
_cell_length_a                     8.2278(4)
_cell_length_b                     14.3204(8)
_cell_length_c                     10.7697(6)
_cell_angle_alpha                  90.
_cell_angle_beta                   90.
_cell_angle_gamma                  90.
_cell_volume                       1268.94
_cell_formula_units_Z              4
_symmetry_space_group_name_H-M     'P m c n'
_symmetry_Int_Tables_number        62
_refine_ls_R_factor_all            .051
loop_
_symmetry_equiv_pos_site_id
_symmetry_equiv_pos_as_xyz
  1	'x, -y+.5, z+.5'
  2	'-x+.5, y, z'
  3	'x+.5, y+.5, -z+.5'
  4	'-x, -y, -z'
  5	'-x, y+.5, -z+.5'
  6	'x+.5, -y, -z'
  7	'-x+.5, -y+.5, z+.5'
  8	'x, y, z'
loop_
_atom_type_symbol
_atom_type_oxidation_number
Cs1+	1
I1-	-1
Zn2+	2
loop_
_atom_site_label
_atom_site_type_symbol
_atom_site_symmetry_multiplicity
_atom_site_Wyckoff_symbol
_atom_site_fract_x
_atom_site_fract_y
_atom_site_fract_z
_atom_site_occupancy
_atom_site_attached_hydrogens
_atom_site_B_iso_or_equiv
Cs1 Cs1+ 4 c 0.25 0.6648(8) 0.522(1) 1. 0 4.72(6) 
Cs2 Cs1+ 4 c 0.25 0.3913(7) 0.869(1) 1. 0 4.72(6) 
Zn1 Zn2+ 4 c 0.25 0.409(2) 0.251(2) 1. 0 4.7(2) 
I1 I1- 4 c 0.25 0.4017(7) 0.503(1) 1. 0 2.84(3) 
I2 I1- 4 c 0.25 0.5919(8) 0.193(1) 1. 0 2.84(3) 
I3 I1- 8 d 0.503(2) 0.3436(5) 0.1699(8) 1. 0 2.84(3) 

#End of data_87960-ICSD


