data_411796-ICSD
#?2014 by Fachinformationszentrum Karlsruhe, and the U.S. Secretary of 
#Commerce on behalf of the United States.  All rights reserved.
_database_code_ICSD                411796
_audit_creation_date               2002/10/01
_chemical_name_systematic          'Silver Hexafluorotantalate'
_chemical_formula_structural       'Ag (Ta F6)'
_chemical_formula_sum              'Ag1 F6 Ta1'
_publ_section_title
;
Crystal structures of Ag A F6 (A = P, As, Sb, Nb, Ta) at ambient 
temperatures
;
loop_
_citation_id
_citation_journal_abbrev
_citation_year
_citation_journal_volume
_citation_page_first
_citation_page_last
_citation_journal_id_ASTM
primary 'Journal of Fluorine Chemistry' 2001 110 117 122 JFLCAR
_publ_author_name
;
Matsumoto, K.;Hagiwara, R.;Ito, Y.;Tamada, O.
;
_cell_length_a                     4.9949(4)
_cell_length_b                     4.9949(4)
_cell_length_c                     9.6051(8)
_cell_angle_alpha                  90.
_cell_angle_beta                   90.
_cell_angle_gamma                  90.
_cell_volume                       239.64
_cell_formula_units_Z              2
_symmetry_space_group_name_H-M     'P 42/m c m'
_symmetry_Int_Tables_number        132
_refine_ls_R_factor_all            .0609
loop_
_symmetry_equiv_pos_site_id
_symmetry_equiv_pos_as_xyz
  1	'-y, x, -z+.5'
  2	'y, -x, -z+.5'
  3	'-y, -x, -z'
  4	'y, x, -z'
  5	'-y, x, z+.5'
  6	'y, -x, z+.5'
  7	'-y, -x, z'
  8	'y, x, z'
  9	'x, -y, -z+.5'
 10	'-x, y, -z+.5'
 11	'-x, -y, -z'
 12	'x, y, -z'
 13	'x, -y, z+.5'
 14	'-x, y, z+.5'
 15	'-x, -y, z'
 16	'x, y, z'
loop_
_atom_type_symbol
_atom_type_oxidation_number
Ag1+	1
F1-	-1
Ta5+	5
loop_
_atom_site_label
_atom_site_type_symbol
_atom_site_symmetry_multiplicity
_atom_site_Wyckoff_symbol
_atom_site_fract_x
_atom_site_fract_y
_atom_site_fract_z
_atom_site_occupancy
_atom_site_attached_hydrogens
Ag1 Ag1+ 2 d 0.5 0.5 0.25 1. 0 
Ta1 Ta5+ 2 a 0 0 0 1. 0 
F1 F1- 4 i 0.733(5) 0.733(5) 0 1. 0 
F2 F1- 8 o -.188(5) 0.188(5) 0.135(2) 1. 0 

loop_
_atom_site_aniso_label
_atom_site_aniso_type_symbol
_atom_site_aniso_U_11
_atom_site_aniso_U_22
_atom_site_aniso_U_33
_atom_site_aniso_U_12
_atom_site_aniso_U_13
_atom_site_aniso_U_23
Ag1 Ag1+ 0.026(1) 0.026(1) 0.041(2) 0 0 0
Ta1 Ta5+ 0.038(1) 0.038(1) 0.042(1) 0.0023(6) 0 0
F1 F1- 0.025(5) 0.025(5) 0.13(2) -.013(7) 0 0
F2 F1- 0.04(1) 0.06(1) 0.021(5) 0.043(7) 0.01(1) 0.00(1)
#End of data_411796-ICSD


