data_409984-ICSD
#?2014 by Fachinformationszentrum Karlsruhe, and the U.S. Secretary of 
#Commerce on behalf of the United States.  All rights reserved.
_database_code_ICSD                409984
_audit_creation_date               2009/08/01
_chemical_name_systematic
;
Dipotassium Hexaaquairon(II) Bis(sulfate)
;
_chemical_formula_structural       'K2 (Fe (H2 O)6) (S O4)2'
_chemical_formula_sum              'H12 Fe1 K2 O14 S2'
_publ_section_title
;
Refinement of the crystal structure of potassium hexaaquairon(II) 
sulfate, K2 [Fe (H2 O)6] (S O4)2 and potassium hexaaquazinc(II) 
sulfate, K2 [Zn (H2 O)6] (S O4)2
;
loop_
_citation_id
_citation_journal_abbrev
_citation_year
_citation_journal_volume
_citation_journal_issue
_citation_page_first
_citation_page_last
_citation_journal_id_ASTM
primary 'Zeitschrift fuer Kristallographie - New Crystal Structures'
 2009 224 2 171 173 ZKNSFT
_publ_author_name
;
Euler, H.;Barbier, B.;Meents, A.;Kirfel, A.
;
_cell_length_a                     9.0651(10)
_cell_length_b                     12.2520(10)
_cell_length_c                     6.1646(5)
_cell_angle_alpha                  90.00
_cell_angle_beta                   104.536(7)
_cell_angle_gamma                  90.00
_cell_volume                       662.76
_cell_formula_units_Z              2
_symmetry_space_group_name_H-M     'P 1 21/a 1'
_symmetry_Int_Tables_number        14
_refine_ls_R_factor_all            .0199
loop_
_symmetry_equiv_pos_site_id
_symmetry_equiv_pos_as_xyz
  1	'x+.5, -y+.5, z'
  2	'-x, -y, -z'
  3	'-x+.5, y+.5, -z'
  4	'x, y, z'
loop_
_atom_type_symbol
_atom_type_oxidation_number
Fe2+	2
H1+	1
K1+	1
O2-	-2
S6+	6
loop_
_atom_site_label
_atom_site_type_symbol
_atom_site_symmetry_multiplicity
_atom_site_Wyckoff_symbol
_atom_site_fract_x
_atom_site_fract_y
_atom_site_fract_z
_atom_site_occupancy
_atom_site_attached_hydrogens
_atom_site_U_iso_or_equiv
Fe1 Fe2+ 2 a 0.0000 0.0000 0.0000 1 0 0.01729(5) 
S1 S6+ 4 e 0.41178(2) 0.134992(17) 0.72661(3) 1 0 0.01907(6) 
O1 O2- 4 e 0.40647(11) 0.22938(7) 0.57602(14) 1 0 0.03555(18) 
O2 O2- 4 e 0.55546(9) 0.07640(9) 0.74991(17) 1 0 0.0421(2) 
O3 O2- 4 e 0.28553(8) 0.06112(6) 0.62209(13) 1 0 0.02625(14) 
O4 O2- 4 e 0.39594(9) 0.17214(6) 0.94769(12) 1 0 0.02898(14) 
O5 O2- 4 e 0.17282(8) 0.11376(6) 0.17119(13) 1 0 0.02676(14) 
O6 O2- 4 e -0.17256(8) 0.11678(6) 0.03126(13) 1 0 0.02503(13) 
O7 O2- 4 e -0.00410(9) -0.07084(6) 0.30219(13) 1 0 0.02599(13) 
K1 K1+ 4 e 0.13294(3) 0.34616(2) 0.34168(4) 1 0 0.03143(6) 
H1 H1+ 4 e 0.208(2) 0.0913(16) 0.283(4) 1 0 0.046(5) 
H2 H1+ 4 e 0.242(2) 0.1242(15) 0.099(3) 1 0 0.037(4) 
H3 H1+ 4 e -0.256(2) 0.1076(15) -0.054(3) 1 0 0.040(4) 
H4 H1+ 4 e -0.150(2) 0.1768(15) 0.003(3) 1 0 0.039(4) 
H5 H1+ 4 e -0.075(3) -0.0666(17) 0.338(4) 1 0 0.056(6) 
H6 H1+ 4 e 0.026(2) -0.1347(17) 0.334(3) 1 0 0.047(5) 

loop_
_atom_site_aniso_label
_atom_site_aniso_type_symbol
_atom_site_aniso_U_11
_atom_site_aniso_U_22
_atom_site_aniso_U_33
_atom_site_aniso_U_12
_atom_site_aniso_U_13
_atom_site_aniso_U_23
Fe1 Fe2+ 0.01629(8) 0.01734(8) 0.01800(8) -0.00107(5) 0.00386(6) 0.00037(5)
S1 S6+ 0.01743(9) 0.02045(10) 0.01946(10) -0.00261(6) 0.00482(7) 
-0.00198(6)
O1 O2- 0.0529(5) 0.0270(3) 0.0260(3) -0.0133(3) 0.0084(3) 0.0022(3)
O2 O2- 0.0213(3) 0.0567(5) 0.0457(5) 0.0099(3) 0.0032(3) -0.0110(4)
O3 O2- 0.0229(3) 0.0267(3) 0.0298(3) -0.0084(2) 0.0077(2) -0.0058(2)
O4 O2- 0.0394(4) 0.0278(3) 0.0215(3) -0.0032(3) 0.0109(3) -0.0045(2)
O5 O2- 0.0241(3) 0.0313(3) 0.0232(3) -0.0075(2) 0.0030(2) -0.0006(3)
O6 O2- 0.0216(3) 0.0234(3) 0.0303(3) 0.0021(2) 0.0069(2) 0.0009(2)
O7 O2- 0.0315(3) 0.0242(3) 0.0255(3) 0.0031(2) 0.0131(3) 0.0036(2)
K1 K1+ 0.03424(11) 0.03197(11) 0.03042(11) -0.00259(8) 0.01247(9) 
-0.00037(8)
#End of data_409984-ICSD


