data_202671-ICSD
#?2014 by Fachinformationszentrum Karlsruhe, and the U.S. Secretary of 
#Commerce on behalf of the United States.  All rights reserved.
_database_code_ICSD                202671
_audit_creation_date               1989/06/19
_audit_update_record               2005/10/01
_chemical_name_systematic
;
Dipotassium Tris(oxovanadium) Bis(diphosphate(V))
;
_chemical_formula_structural       'K2 (V O)3 (P2 O7)2'
_chemical_formula_sum              'K2 O17 P4 V3'
_publ_section_title
;
Concerning the intersecting tunnel structure of a novel 
vanadyldiphosphate K2 (V O3) (P2 O7)2 and its structural 
relationships with other V(V) and V(IV) phosphates and relatives
;
loop_
_citation_id
_citation_journal_abbrev
_citation_year
_citation_journal_volume
_citation_page_first
_citation_page_last
_citation_journal_id_ASTM
primary 'Journal of Solid State Chemistry' 1988 77 170 179 JSSCBI
2 'Golden Book of Phase Transitions, Wroclaw' 2002 1 1 123 GBOPT5
_publ_author_name
;
Leclaire, A.;Chahboun, H.;Groult, D.;Raveau, B.
;
_cell_length_a                     17.407(1)
_cell_length_b                     11.3438(7)
_cell_length_c                     7.2964(15)
_cell_angle_alpha                  90.
_cell_angle_beta                   90.
_cell_angle_gamma                  90.
_cell_volume                       1440.76
_cell_formula_units_Z              4
_symmetry_space_group_name_H-M     'P n a 21'
_symmetry_Int_Tables_number        33
_refine_ls_R_factor_all            .049
loop_
_symmetry_equiv_pos_site_id
_symmetry_equiv_pos_as_xyz
  1	'x+.5, -y+.5, z'
  2	'-x+.5, y+.5, z+.5'
  3	'-x, -y, z+.5'
  4	'x, y, z'
loop_
_atom_type_symbol
_atom_type_oxidation_number
K1+	1
O2-	-2
P5+	5
V4+	4
loop_
_atom_site_label
_atom_site_type_symbol
_atom_site_symmetry_multiplicity
_atom_site_Wyckoff_symbol
_atom_site_fract_x
_atom_site_fract_y
_atom_site_fract_z
_atom_site_occupancy
_atom_site_attached_hydrogens
_atom_site_B_iso_or_equiv
V1 V4+ 4 a 0.1005(2) 0.6612(3) 0.25 1. 0 0.57(6) 
V2 V4+ 4 a 0.1901(2) 0.3392(3) 0.2692(19) 1. 0 0.72(7) 
V3 V4+ 4 a 0.0013(4) 0.0017(6) 0.0412(14) 1. 0 0.89(7) 
K1 K1+ 4 a 0.1728(4) 0.1371(6) 0.7612(37) 1. 0 3.16(14) 
K2 K1+ 4 a 0.3619(5) 0.0352(7) 0.2418(31) 1. 0 4.31(21) 
P1 P5+ 4 a 0.3247(10) 0.3886(15) -.0430(29) 1. 0 0.97(28) 
P2 P5+ 4 a 0.3285(10) 0.3916(14) -.4435(32) 1. 0 0.97(27) 
P3 P5+ 4 a 0.0297(8) 0.2898(14) 0.0511(26) 1. 0 0.67(21) 
P4 P5+ 4 a 0.0258(8) 0.2936(14) 0.4589(25) 1. 0 0.67(23) 
O1 O2- 4 a 0.1534(8) 0.5488(13) 0.2773(48) 1. 0 0.83(28) 
O2 O2- 4 a 0.1560(14) 0.7569(23) 0.4344(40) 1. 0 1.03(49) 
O3 O2- 4 a 0.1436(14) 0.7662(22) 0.0641(44) 1. 0 1.03(5) 
O4 O2- 4 a 0.0273(16) 0.6255(25) 0.46303(37) 1. 0 0.99(44) 
O5 O2- 4 a 0.0177(16) 0.6289(25) 0.0933(37) 1. 0 0.99(51) 
O6 O2- 4 a 0.1093(19) 0.3465(25) 0.0540(57) 1. 0 1.11(56) 
O7 O2- 4 a 0.1092(19) 0.3299(25) 0.4523(52) 1. 0 1.11(58) 
O8 O2- 4 a 0.2638(12) 0.4137(20) 0.4163(33) 1. 0 0.72(39) 
O9 O2- 4 a 0.2216(10) 0.2074(16) 0.2410(59) 1. 0 2.27(42) 
O10 O2- 4 a 0.2504(11) 0.4086(19) 0.0433(38) 1. 0 0.72(35) 
O11 O2- 4 a 0.0327(13) 0.1702(24) -.0117(37) 1. 0 0.76(47) 
O12 O2- 4 a 0.0071(14) 0.0095(20) 0.2699(64) 1. 0 3.96(56) 
O13 O2- 4 a -.0181(13) -.1649(23) 0.0486(45) 1. 0 0.76(38) 
O14 O2- 4 a -.1101(14) 0.0328(22) 0.0604(40) 1. 0 1.38(40) 
O15 O2- 4 a 0.1112(14) -.0263(22) 0.0309(43) 1. 0 1.38(45) 
O16 O2- 4 a -.0078(8) 0.2921(13) 0.2483(53) 1. 0 1.18(30) 
O17 O2- 4 a 0.3022(12) 0.4297(19) -.237(12) 1. 0 3.87(47) 

#End of data_202671-ICSD


