data_34855-ICSD
#?2014 by Fachinformationszentrum Karlsruhe, and the U.S. Secretary of 
#Commerce on behalf of the United States.  All rights reserved.
_database_code_ICSD                34855
_audit_creation_date               1980/01/01
_audit_update_record               2012/02/01
_chemical_name_systematic
;
Calcium Phyllo-tetraalumodisilicate Dihydroxide
;
_chemical_formula_structural       'Ca (Al4 Si2 O10) (O H)2'
_chemical_formula_sum              'H2 Al4 Ca1 O12 Si2'
_chemical_name_mineral             'Margarite 2M1'
_publ_section_title
;
Refinement of the margarite structure in subgroup symmetry
;
loop_
_citation_id
_citation_journal_abbrev
_citation_year
_citation_journal_volume
_citation_page_first
_citation_page_last
_citation_journal_id_ASTM
primary 'American Mineralogist' 1975 60 1023 1029 AMMIAY
_publ_author_name                  'Guggenheim, S.;Bailey, S.W.'
_cell_length_a                     5.1038(4)
_cell_length_b                     8.8287(7)
_cell_length_c                     19.1480(10)
_cell_angle_alpha                  90.
_cell_angle_beta                   95.46(3)
_cell_angle_gamma                  90.
_cell_volume                       858.89
_cell_formula_units_Z              4
_symmetry_space_group_name_H-M     'C 1 c 1'
_symmetry_Int_Tables_number        9
_refine_ls_R_factor_all            .075
loop_
_symmetry_equiv_pos_site_id
_symmetry_equiv_pos_as_xyz
  1	'x, -y, z+.5'
  2	'x, y, z'
  3	'x+.5, -y+.5, z+.5'
  4	'x+.5, y+.5, z'
loop_
_atom_type_symbol
_atom_type_oxidation_number
Al3+	3
Ca2+	2
H1+	1
O2-	-2
Si4+	4
loop_
_atom_site_label
_atom_site_type_symbol
_atom_site_symmetry_multiplicity
_atom_site_Wyckoff_symbol
_atom_site_fract_x
_atom_site_fract_y
_atom_site_fract_z
_atom_site_occupancy
_atom_site_attached_hydrogens
_atom_site_B_iso_or_equiv
Ca1 Ca2+ 4 a 0 0.0932(2) 0.25 1. 0 1.02(2) 
Al1 Al3+ 4 a 0.7469(7) 0.9187(4) 0.9997(2) 1. 0 0.73(6) 
Al2 Al3+ 4 a 0.2510(7) 0.0863(4) 0.9998(2) 1. 0 0.55(6) 
Al3 Al3+ 4 a 0.4647(7) 0.9285(4) 0.1416(2) 1. 0 0.99(7) 
Si1 Si4+ 4 a 0.5364(6) 0.0752(3) 0.8549(2) 1. 0 0.58(5) 
Si2 Si4+ 4 a 0.4567(6) 0.2572(3) 0.1444(2) 1. 0 0.61(5) 
Al4 Al3+ 4 a 0.5500(7) 0.7437(4) 0.8573(2) 1. 0 0.97(6) 
O1 O2- 4 a 0.960(2) 0.4436(9) 0.0512(4) 1. 0 1.0(1) 
O2 O2- 4 a 0.046(2) 0.5585(8) 0.9390(4) 1. 0 0.5(1) 
O3 O2- 4 a 0.395(2) 0.254(9) 0.0568(4) 1. 0 0.9(1) 
O4 O2- 4 a 0.619(2) 0.7489(9) 0.9447(4) 1. 0 0.7(1) 
O5 O2- 4 a 0.367(2) 0.0974(9) 0.1775(5) 1. 0 1.1(1) 
O6 O2- 4 a 0.641(2) 0.9167(9) 0.8226(4) 1. 0 0.6(1) 
O7 O2- 4 a 0.266(2) 0.7784(9) 0.1665(4) 1. 0 0.5(1) 
O8 O2- 4 a 0.711(2) 0.214(1) 0.8304(4) 1. 0 1.1(1) 
O9 O2- 4 a 0.287(2) 0.3926(8) 0.1785(4) 1. 0 0.4(1) 
O10 O2- 4 a 0.737(2) 0.608(1) 0.8211(5) 1. 0 1.4(2) 
O11 O2- 4 a 0.448(2) 0.5693(8) 0.0488(4) 1. 0 0.4(1) 
O12 O2- 4 a 0.543(2) 0.4417(9) 0.9468(4) 1. 0 1.0(1) 
H1 H1+ 4 a 0.397 0.637 0.083 1. 0 0.78(1) 
H2 H1+ 4 a 0.603 0.363 0.917 1. 0 0.78(1) 

#End of data_34855-ICSD


