data_24677-ICSD
#?2014 by Fachinformationszentrum Karlsruhe, and the U.S. Secretary of 
#Commerce on behalf of the United States.  All rights reserved.
_database_code_ICSD                24677
_audit_creation_date               1980/01/01
_chemical_name_systematic
;
Sodium Dipotassium Chloride Dithionate
;
_chemical_formula_structural       'Na K2 Cl S2 O6'
_chemical_formula_sum              'Cl1 K2 Na1 O6 S2'
_publ_section_title
;
The Crystal Structures of Two Potassium Sodium Chloride Dithionates
;
loop_
_citation_id
_citation_journal_abbrev
_citation_year
_citation_journal_volume
_citation_page_first
_citation_page_last
_citation_journal_id_ASTM
primary 'Acta Crystallographica (1,1948-23,1967)' 1953 6 187 196 ACCRA9
_publ_author_name                  'Stanley, E.'
_cell_length_a                     12.1180(6)
_cell_length_b                     12.1180(6)
_cell_length_c                     5.522(4)
_cell_angle_alpha                  90.
_cell_angle_beta                   90.
_cell_angle_gamma                  90.
_cell_volume                       810.88
_cell_formula_units_Z              4
_symmetry_space_group_name_H-M     'P 4/n S'
_symmetry_Int_Tables_number        85
_refine_ls_R_factor_all            .16
loop_
_symmetry_equiv_pos_site_id
_symmetry_equiv_pos_as_xyz
  1	'y+.5, -x+.5, z'
  2	'-y+.5, x+.5, z'
  3	'y, -x, -z'
  4	'-y, x, -z'
  5	'-x+.5, -y+.5, -z'
  6	'x+.5, y+.5, -z'
  7	'-x, -y, z'
  8	'x, y, z'
loop_
_atom_type_symbol
_atom_type_oxidation_number
Cl1-	-1
K1+	1
Na1+	1
O2-	-2
S5+	5
loop_
_atom_site_label
_atom_site_type_symbol
_atom_site_symmetry_multiplicity
_atom_site_Wyckoff_symbol
_atom_site_fract_x
_atom_site_fract_y
_atom_site_fract_z
_atom_site_occupancy
_atom_site_attached_hydrogens
Na1 Na1+ 2 a 0 0 0 1. 0 
Na2 Na1+ 2 c 0 0.5 0.051 1. 0 
K1 K1+ 8 g 0.235 0.055 0.523 1. 0 
Cl1 Cl1- 2 b 0 0 0.5 1. 0 
Cl2 Cl1- 2 c 0 0.5 0.553 1. 0 
S1 S5+ 8 g 0.165 0.242 0.981 1. 0 
O1 O2- 8 g 0.149 0.236 0.714 1. 0 
O2 O2- 8 g 0.119 0.329 0.129 1. 0 
O3 O2- 8 g 0.131 0.128 0.062 1. 0 

#End of data_24677-ICSD


