data_281289-ICSD
#?2014 by Fachinformationszentrum Karlsruhe, and the U.S. Secretary of 
#Commerce on behalf of the United States.  All rights reserved.
_database_code_ICSD                281289
_audit_creation_date               2003/10/01
_audit_update_record               2008/02/01
_chemical_name_systematic          'Potassium Praseodymium Fluoride'
_chemical_formula_structural       'K Pr F4'
_chemical_formula_sum              'F4 K1 Pr1'
_publ_section_title                'K Pr F4'
loop_
_citation_id
_citation_journal_abbrev
_citation_year
_citation_journal_volume
_citation_page_first
_citation_page_last
_citation_journal_id_ASTM
primary 'Acta Crystallographica, Section E. Structure Reports Online'
 2003 59 i47 i49 ACSEBH
_publ_author_name                  'Werner, F.;Weil, M.;Kubel, F.'
_cell_length_a                     6.2727(8)
_cell_length_b                     3.7821(5)
_cell_length_c                     15.578(3)
_cell_angle_alpha                  90.
_cell_angle_beta                   90.
_cell_angle_gamma                  90.
_cell_volume                       369.57
_cell_formula_units_Z              4
_symmetry_space_group_name_H-M     'P n m a'
_symmetry_Int_Tables_number        62
_refine_ls_R_factor_all            .018
loop_
_symmetry_equiv_pos_site_id
_symmetry_equiv_pos_as_xyz
  1	'x+.5, y, -z+.5'
  2	'x, -y+.5, z'
  3	'-x+.5, y+.5, z+.5'
  4	'-x, -y, -z'
  5	'-x+.5, -y, z+.5'
  6	'-x, y+.5, -z'
  7	'x+.5, -y+.5, -z+.5'
  8	'x, y, z'
loop_
_atom_type_symbol
_atom_type_oxidation_number
F1-	-1
K1+	1
Pr3+	3
loop_
_atom_site_label
_atom_site_type_symbol
_atom_site_symmetry_multiplicity
_atom_site_Wyckoff_symbol
_atom_site_fract_x
_atom_site_fract_y
_atom_site_fract_z
_atom_site_occupancy
_atom_site_attached_hydrogens
_atom_site_U_iso_or_equiv
K1 K1+ 4 c 0.27642(13) 0.75 0.20181(6) 1. 0 0.01499(18) 
Pr1 Pr3+ 4 c 0.25113(2) 0.25 0.438200(12) 1. 0 0.00661(12) 
F1 F1- 4 c 0.1374(3) 0.25 0.03669(14) 1. 0 0.0128(4) 
F2 F1- 4 c -.0044(3) 0.75 0.44107(12) 1. 0 0.0102(4) 
F3 F1- 4 c 0.3956(3) 0.75 0.36516(15) 1. 0 0.0113(4) 
F4 F1- 4 c 0.0883(3) 0.25 0.30555(15) 1. 0 0.0143(4) 

loop_
_atom_site_aniso_label
_atom_site_aniso_type_symbol
_atom_site_aniso_U_11
_atom_site_aniso_U_22
_atom_site_aniso_U_33
_atom_site_aniso_U_12
_atom_site_aniso_U_13
_atom_site_aniso_U_23
K1 K1+ 0.0110(3) 0.0213(4) 0.0126(4) 0 0.0006(3) 0
Pr1 Pr3+ 0.00646(14) 0.00644(15) 0.00693(16) 0 0.00008(5) 0
F1 F1- 0.0106(9) 0.0131(9) 0.0147(12) 0 0.0026(9) 0
F2 F1- 0.0099(9) 0.0097(10) 0.0109(11) 0 0.0005(7) 0
F3 F1- 0.0124(9) 0.0106(9) 0.011(1) 0 0.0026(7) 0
F4 F1- 0.0170(9) 0.0158(10) 0.0101(10) 0 -0.0026(8) 0
#End of data_281289-ICSD


