data_81688-ICSD
#?2014 by Fachinformationszentrum Karlsruhe, and the U.S. Secretary of 
#Commerce on behalf of the United States.  All rights reserved.
_database_code_ICSD                81688
_audit_creation_date               1997/05/13
_audit_update_record               2003/04/01
_chemical_name_systematic          'Dipotassium Selenate(VI)'
_chemical_formula_structural       'K2 (Se O4)'
_chemical_formula_sum              'K2 O4 Se1'
_publ_section_title
;
Study on K2 Se O4 at different temperatures
;
loop_
_citation_id
_citation_journal_abbrev
_citation_year
_citation_journal_volume
_citation_page_first
_citation_page_last
_citation_journal_id_ASTM
primary Ferroelectrics 1996 177 191 199 FEROA8
2 'Phase Transition' 1992 38 127 220 PHTRDP
_publ_author_name
;
Gonzalez-Silgo, C.;Solans, X.;Ruiz Perez, C.;Martinez-Sarrion, 
M.L.;Mestres, L.
;
_cell_length_a                     7.619(9)
_cell_length_b                     10.413(5)
_cell_length_c                     5.9706(7)
_cell_angle_alpha                  90.
_cell_angle_beta                   90.
_cell_angle_gamma                  90.
_cell_volume                       473.69
_cell_formula_units_Z              4
_symmetry_space_group_name_H-M     'P n a m'
_symmetry_Int_Tables_number        62
_refine_ls_R_factor_all            .036
loop_
_symmetry_equiv_pos_site_id
_symmetry_equiv_pos_as_xyz
  1	'x+.5, -y+.5, z'
  2	'x, y, -z+.5'
  3	'-x+.5, y+.5, z+.5'
  4	'-x, -y, -z'
  5	'-x+.5, y+.5, -z'
  6	'-x, -y, z+.5'
  7	'x+.5, -y+.5, -z+.5'
  8	'x, y, z'
loop_
_atom_type_symbol
_atom_type_oxidation_number
K1+	1
O2-	-2
Se6+	6
loop_
_atom_site_label
_atom_site_type_symbol
_atom_site_symmetry_multiplicity
_atom_site_Wyckoff_symbol
_atom_site_fract_x
_atom_site_fract_y
_atom_site_fract_z
_atom_site_occupancy
_atom_site_attached_hydrogens
_atom_site_U_iso_or_equiv
K1 K1+ 4 c 0.1702(2) 0.0841(1) 0.25 1. 0 0.020(1) 
K2 K1+ 4 c -.0054(1) 0.7092(1) 0.25 1. 0 0.017(1) 
Se1 Se6+ 4 c 0.2242(1) 0.4201(1) 0.25 1. 0 0.009(1) 
O1 O2- 8 d 0.2939(5) 0.3464(4) 0.0272(5) 1. 0 0.034(1) 
O2 O2- 4 c 0.3024(7) 0.5662(4) 0.25 1. 0 0.030(1) 
O3 O2- 4 c 0.0126(7) 0.4245(5) 0.25 1. 0 0.040(1) 

#End of data_81688-ICSD


