data_61218-ICSD
#?2014 by Fachinformationszentrum Karlsruhe, and the U.S. Secretary of 
#Commerce on behalf of the United States.  All rights reserved.
_database_code_ICSD                61218
_audit_creation_date               1986/12/03
_audit_update_record               1999/11/30
_chemical_name_systematic          'Octalithium Platinum Hexaoxide'
_chemical_formula_structural       'Li8 Pt O6'
_chemical_formula_sum              'Li8 O6 Pt1'
_publ_section_title
;
Neue Vertreter der Li8 Sn O6-Familie: Li8 Ir O6, Li8 Pt O6 und Li8 Ce 
O6
;
loop_
_citation_id
_citation_journal_abbrev
_citation_year
_citation_journal_volume
_citation_page_first
_citation_page_last
_citation_journal_id_ASTM
primary 'Zeitschrift fuer Anorganische und Allgemeine Chemie (1950) (DE)'
 1986 536 81 91 ZAACAB
_publ_author_name                  'Kroeschell, P.;Wolf, R.;Hoppe, R.'
_cell_length_a                     5.4146(2)
_cell_length_b                     5.4146(2)
_cell_length_c                     15.0143(14)
_cell_angle_alpha                  90.
_cell_angle_beta                   90.
_cell_angle_gamma                  120.
_cell_volume                       381.21
_cell_formula_units_Z              3
_symmetry_space_group_name_H-M     'R -3 H'
_symmetry_Int_Tables_number        148
_refine_ls_R_factor_all            .0257
loop_
_symmetry_equiv_pos_site_id
_symmetry_equiv_pos_as_xyz
  1	'x-y, x, -z'
  2	'y, -x+y, -z'
  3	'-x, -y, -z'
  4	'-x+y, -x, z'
  5	'-y, x-y, z'
  6	'x, y, z'
  7	'x-y+.6666, x+.3333, -z+.3333'
  8	'x-y+.3333, x+.6666, -z+.6666'
  9	'y+.6666, -x+y+.3333, -z+.3333'
 10	'y+.3333, -x+y+.6666, -z+.6666'
 11	'-x+.6666, -y+.3333, -z+.3333'
 12	'-x+.3333, -y+.6666, -z+.6666'
 13	'-x+y+.6666, -x+.3333, z+.3333'
 14	'-x+y+.3333, -x+.6666, z+.6666'
 15	'-y+.6666, x-y+.3333, z+.3333'
 16	'-y+.3333, x-y+.6666, z+.6666'
 17	'x+.6666, y+.3333, z+.3333'
 18	'x+.3333, y+.6666, z+.6666'
loop_
_atom_type_symbol
_atom_type_oxidation_number
Li1+	1
O2-	-2
Pt4+	4
loop_
_atom_site_label
_atom_site_type_symbol
_atom_site_symmetry_multiplicity
_atom_site_Wyckoff_symbol
_atom_site_fract_x
_atom_site_fract_y
_atom_site_fract_z
_atom_site_occupancy
_atom_site_attached_hydrogens
Pt1 Pt4+ 3 a 0 0 0 1. 0 
Li1 Li1+ 18 f 0.6306(25) 0.6473(26) 0.8816(8) 1. 0 
Li2 Li1+ 6 c 0 0 0.3443(16) 1. 0 
O1 O2- 18 f 0.6787(11) 0.6475(11) 0.4131(3) 1. 0 

loop_
_atom_site_aniso_label
_atom_site_aniso_type_symbol
_atom_site_aniso_U_11
_atom_site_aniso_U_22
_atom_site_aniso_U_33
_atom_site_aniso_U_12
_atom_site_aniso_U_13
_atom_site_aniso_U_23
Pt1 Pt4+ 0.0053(2) 0.0053(2) 0.0021(3) 0.00265 0 0
Li1 Li1+ 0.0078(44) 0.0077(44) 0.0137(43) -.0028(37) -.0016(39) 0.0052(40)
Li2 Li1+ 0.0353(67) 0.0353(67) 0.0022(68) 0.0177(34) 0 0
O1 O2- 0.0122(20) 0.0098(20) 0.0097(18) 0.0068(17) 0.0007(17) -.0016(17)
#End of data_61218-ICSD


