data_15388-ICSD
#?2014 by Fachinformationszentrum Karlsruhe, and the U.S. Secretary of 
#Commerce on behalf of the United States.  All rights reserved.
_database_code_ICSD                15388
_audit_creation_date               1980/01/01
_audit_update_record               2014/08/01
_chemical_name_systematic          'Disodium Catena-silicate'
_chemical_formula_structural       'Na2 (Si O3)'
_chemical_formula_sum              'Na2 O3 Si1'
_publ_section_title
;
A reinvestigation of the structure of sodium metasilicate, Na2 Si O3
;
loop_
_citation_id
_citation_journal_abbrev
_citation_year
_citation_journal_volume
_citation_page_first
_citation_page_last
_citation_journal_id_ASTM
primary 'Acta Crystallographica (1,1948-23,1967)' 1967 22 37 43 ACCRA9
_publ_author_name                  'McDonald, W.S.;Cruickshank, D.W.J.'
_cell_length_a                     10.48
_cell_length_b                     6.07
_cell_length_c                     4.82
_cell_angle_alpha                  90.
_cell_angle_beta                   90.
_cell_angle_gamma                  90.
_cell_volume                       306.62
_cell_formula_units_Z              4
_symmetry_space_group_name_H-M     'C m c 21'
_symmetry_Int_Tables_number        36
_refine_ls_R_factor_all            .196
loop_
_symmetry_equiv_pos_site_id
_symmetry_equiv_pos_as_xyz
  1	'x, -y, z+.5'
  2	'-x, -y, z+.5'
  3	'-x, y, z'
  4	'x, y, z'
  5	'x+.5, -y+.5, z+.5'
  6	'-x+.5, -y+.5, z+.5'
  7	'-x+.5, y+.5, z'
  8	'x+.5, y+.5, z'
loop_
_atom_type_symbol
_atom_type_oxidation_number
Na1+	1
O2-	-2
Si4+	4
loop_
_atom_site_label
_atom_site_type_symbol
_atom_site_symmetry_multiplicity
_atom_site_Wyckoff_symbol
_atom_site_fract_x
_atom_site_fract_y
_atom_site_fract_z
_atom_site_occupancy
_atom_site_attached_hydrogens
Na1 Na1+ 8 b 0.16562(9) 0.33880(15) 0 1. 0 
Si1 Si4+ 4 a 0 0.15737(11) 0.53676(32) 1. 0 
O1 O2- 8 b 0.12947(15) 0.28733(28) 0.48105(47) 1. 0 
O2 O2- 4 a 0 0.08436(37) 0.87224(58) 1. 0 

loop_
_atom_site_aniso_label
_atom_site_aniso_type_symbol
_atom_site_aniso_U_11
_atom_site_aniso_U_22
_atom_site_aniso_U_33
_atom_site_aniso_U_12
_atom_site_aniso_U_13
_atom_site_aniso_U_23
Na1 Na1+ 0.0117(4) 0.0120(4) 0.0163(7) -.00040(25) -.00055(20) -.00030(35)
Si1 Si4+ 0.0057(3) 0.0045(3) 0.0087(3) 0 0 0.00025(25)
O1 O2- 0.0086(6) 0.0128(6) 0.0142(6) -.00295(55) 0.00155(40) 0.00105(40)
O2 O2- 0.0168(9) 0.0071(8) 0.0094(7) 0 0 0.00170(55)
#End of data_15388-ICSD


