data_65307-ICSD
#?2014 by Fachinformationszentrum Karlsruhe, and the U.S. Secretary of 
#Commerce on behalf of the United States.  All rights reserved.
_database_code_ICSD                65307
_audit_creation_date               1989/12/04
_audit_update_record               2010/08/01
_chemical_name_systematic          'Potassium Lanthanum Chromate'
_chemical_formula_structural       'K La (Cr O4)2'
_chemical_formula_sum              'Cr2 K1 La1 O8'
_publ_section_title
;
Crystal growth, structure, and properties of K La (Cr O4)2
;
loop_
_citation_id
_citation_journal_abbrev
_citation_year
_citation_journal_volume
_citation_page_first
_citation_page_last
_citation_journal_id_ASTM
primary
;
Journal of the Chemical Society. Dalton Transactions, Inorganic 
Chemistry (1972-)
;
 1988 1988 1911 1914 JCDTBI
_publ_author_name
;
Bueno, I.;Parada, C.;Garcia, O.;Puebla, E.G.;Monge, A.;Valero, C.R.
;
_cell_length_a                     8.729(2)
_cell_length_b                     7.4752(7)
_cell_length_c                     11.049(6)
_cell_angle_alpha                  90.
_cell_angle_beta                   92.42(1)
_cell_angle_gamma                  90.
_cell_volume                       720.32
_cell_formula_units_Z              4
_symmetry_space_group_name_H-M     'P 1 21/c 1'
_symmetry_Int_Tables_number        14
_refine_ls_R_factor_all            .024
loop_
_symmetry_equiv_pos_site_id
_symmetry_equiv_pos_as_xyz
  1	'x, -y+.5, z+.5'
  2	'-x, -y, -z'
  3	'-x, y+.5, -z+.5'
  4	'x, y, z'
loop_
_atom_type_symbol
_atom_type_oxidation_number
Cr6+	6
K1+	1
La3+	3
O2-	-2
loop_
_atom_site_label
_atom_site_type_symbol
_atom_site_symmetry_multiplicity
_atom_site_Wyckoff_symbol
_atom_site_fract_x
_atom_site_fract_y
_atom_site_fract_z
_atom_site_occupancy
_atom_site_attached_hydrogens
_atom_site_U_iso_or_equiv
La1 La3+ 4 e 0.05964(4) 0.16075(5) 0.34360(3) 1. 0 0.00799(8) 
Cr1 Cr6+ 4 e 0.28534(10) 0.33444(16) 0.08843(8) 1. 0 0.00892(23) 
Cr2 Cr6+ 4 e -.19408(10) 0.16180(16) 0.10609(8) 1. 0 0.00805(23) 
K1 K1+ 4 e 0.43053(15) -.15257(22) 0.16406(13) 1. 0 0.01487(32) 
O1 O2- 4 e 0.26763(55) 0.17906(73) 0.19406(42) 1. 0 0.0185(13) 
O2 O2- 4 e 0.111590(51) 0.43514(70) 0.06246(43) 1. 0 0.0159(13) 
O3 O2- 4 e 0.31382(52) 0.24612(68) -.04628(42) 1. 0 0.0154(13) 
O4 O2- 4 e 0.41620(59) 0.47705(75) 0.12845(46) 1. 0 0.0216(14) 
O5 O2- 4 e -.14874(51) 0.33980(69) 0.19277(39) 1. 0 0.0146(11) 
O6 O2- 4 e -.09514(52) -.00428(67) 0.17654(43) 1. 0 0.0155(13) 
O7 O2- 4 e -.37595(50) 0.12809(66) 0.10624(46) 1. 0 0.0174(13) 
O8 O2- 4 e -.14139(55) 0.18909(68) -.03418(40) 1. 0 0.0171(14) 

#End of data_65307-ICSD


