data_35197-ICSD
#?2014 by Fachinformationszentrum Karlsruhe, and the U.S. Secretary of 
#Commerce on behalf of the United States.  All rights reserved.
_database_code_ICSD                35197
_audit_creation_date               1982/12/31
_audit_update_record               2010/08/01
_chemical_name_systematic          'Sodium Catena-phosphate(V)'
_chemical_formula_structural       'Na (P O3)'
_chemical_formula_sum              'Na1 O3 P1'
_publ_section_title
;
A new form of sodium Kurrol salt studied by the Rietveld method from 
X-ray diffraction data
;
loop_
_citation_id
_citation_journal_abbrev
_citation_year
_citation_journal_volume
_citation_page_first
_citation_page_last
_citation_journal_id_ASTM
primary 'Acta Crystallographica B (24,1968-38,1982)' 1982 38 2788 2792 ACBCAR
2 'Golden Book of Phase Transitions, Wroclaw' 2002 1 1 123 GBOPT5
_publ_author_name                  'Immirzi, A.;Porzio, W.'
_cell_length_a                     13.177(5)
_cell_length_b                     13.177(5)
_cell_length_c                     5.940(3)
_cell_angle_alpha                  90.
_cell_angle_beta                   90.
_cell_angle_gamma                  90.
_cell_volume                       1031.38
_cell_formula_units_Z              16
_symmetry_space_group_name_H-M     'I 41/a Z'
_symmetry_Int_Tables_number        88
_refine_ls_R_factor_all            .055
loop_
_symmetry_equiv_pos_site_id
_symmetry_equiv_pos_as_xyz
  1	'-y+.75, x+.75, -z+.75'
  2	'y+.25, -x+.75, -z+.75'
  3	'x, y+.5, -z'
  4	'-x, -y, -z'
  5	'y+.25, -x+.25, z+.25'
  6	'-y+.75, x+.25, z+.25'
  7	'-x, -y+.5, z'
  8	'x, y, z'
  9	'-y+.25, x+.25, -z+.25'
 10	'y+.75, -x+.25, -z+.25'
 11	'x+.5, y, -z+.5'
 12	'-x+.5, -y+.5, -z+.5'
 13	'y+.75, -x+.75, z+.75'
 14	'-y+.25, x+.75, z+.75'
 15	'-x+.5, -y, z+.5'
 16	'x+.5, y+.5, z+.5'
loop_
_atom_type_symbol
_atom_type_oxidation_number
Na1+	1
O2-	-2
P5+	5
loop_
_atom_site_label
_atom_site_type_symbol
_atom_site_symmetry_multiplicity
_atom_site_Wyckoff_symbol
_atom_site_fract_x
_atom_site_fract_y
_atom_site_fract_z
_atom_site_occupancy
_atom_site_attached_hydrogens
Na1 Na1+ 16 f 0.3865(22) -.1856(13) 0.4379(43) 1. 0 
P1 P5+ 16 f 0.3423(18) -.0861(18) -.0827(52) 1. 0 
O1 O2- 16 f 0.3356(34) 0.0350(19) -.0952(62) 1. 0 
O2 O2- 16 f 0.3681(90) -.1951(23) -.084(26) 1. 0 
O3 O2- 16 f 0.3312(71) -.1074(55) -.3254(56) 1. 0 

#End of data_35197-ICSD


