data_171020-ICSD
#?2014 by Fachinformationszentrum Karlsruhe, and the U.S. Secretary of 
#Commerce on behalf of the United States.  All rights reserved.
_database_code_ICSD                171020
_audit_creation_date               2006/04/01
_chemical_name_systematic          'Calcium Chlorate(III)'
_chemical_formula_structural       'Ca (Cl O2)2'
_chemical_formula_sum              'Ca1 Cl2 O4'
_publ_section_title
;
Calcium chlorite, Ca (Cl O2)2, from x-ray powder diffraction data
;
loop_
_citation_id
_citation_journal_abbrev
_citation_year
_citation_journal_volume
_citation_page_first
_citation_page_last
_citation_journal_id_ASTM
primary 'Acta Crystallographica, Section E. Structure Reports Online'
 2005 61 i246 i248 ACSEBH
_publ_author_name                  'Smolentsev, A.I.;Naumov, D.Yu.'
_cell_length_a                     5.7434(7)
_cell_length_b                     12.6002(9)
_cell_length_c                     5.7405(7)
_cell_angle_alpha                  90.
_cell_angle_beta                   90.
_cell_angle_gamma                  90.
_cell_volume                       415.43
_cell_formula_units_Z              4
_symmetry_space_group_name_H-M     'C c c a Z'
_symmetry_Int_Tables_number        68
_refine_ls_R_factor_all            .08
loop_
_symmetry_equiv_pos_site_id
_symmetry_equiv_pos_as_xyz
  1	'x, y+.5, -z'
  2	'-x+.5, y+.5, -z+.5'
  3	'x+.5, -y, -z+.5'
  4	'-x, -y, -z'
  5	'-x, -y+.5, z'
  6	'x+.5, -y+.5, z+.5'
  7	'-x+.5, y, z+.5'
  8	'x, y, z'
  9	'x+.5, y, -z'
 10	'-x, y, -z+.5'
 11	'x, -y+.5, -z+.5'
 12	'-x+.5, -y+.5, -z'
 13	'-x+.5, -y, z'
 14	'x, -y, z+.5'
 15	'-x, y+.5, z+.5'
 16	'x+.5, y+.5, z'
loop_
_atom_type_symbol
_atom_type_oxidation_number
Ca2+	2
Cl3+	3
O2-	-2
loop_
_atom_site_label
_atom_site_type_symbol
_atom_site_symmetry_multiplicity
_atom_site_Wyckoff_symbol
_atom_site_fract_x
_atom_site_fract_y
_atom_site_fract_z
_atom_site_occupancy
_atom_site_attached_hydrogens
_atom_site_U_iso_or_equiv
Ca1 Ca2+ 4 a 0.00000 0.25000 0.25000 1.00000 0 0.0054(6) 
Cl1 Cl3+ 8 f 0.50000 0.08227(11) 0.25000 1.00000 0 0.0172(4) 
O1 O2- 16 i 0.3337(6) 0.14953(10) 0.0865(6) 1.00000 0 0.0321(9) 

#End of data_171020-ICSD


