data_27729-ICSD
#?2014 by Fachinformationszentrum Karlsruhe, and the U.S. Secretary of 
#Commerce on behalf of the United States.  All rights reserved.
_database_code_ICSD                27729
_audit_creation_date               1980/01/01
_audit_update_record               2009/02/01
_chemical_name_systematic          'Disodium Dimanganese Disilicate'
_chemical_formula_structural       'Na2 Mn2 (Si2 O7)'
_chemical_formula_sum              'Mn2 Na2 O7 Si2'
_publ_section_title
;
Determination of the crystal structure of Na2 Mn2 Si2 O7 by the 
superposition method
;
loop_
_citation_id
_citation_journal_abbrev
_citation_year
_citation_journal_volume
_citation_page_first
_citation_page_last
_citation_journal_id_ASTM
primary Kristallografiya 1969 14 3 8 KRISAJ
2 'Soviet Physics, Crystallography (= Kristallografiya)'
 1969 14 1 4 SPHCA6
_publ_author_name                  'Astakhova, L.P.;Simonov, V.I.'
_cell_length_a                     8.757(3)
_cell_length_b                     13.294(6)
_cell_length_c                     5.744(2)
_cell_angle_alpha                  90.
_cell_angle_beta                   90.17(3)
_cell_angle_gamma                  90.
_cell_volume                       668.69
_cell_formula_units_Z              4
_symmetry_space_group_name_H-M     'P 1 21/n 1'
_symmetry_Int_Tables_number        14
_refine_ls_R_factor_all            .138
loop_
_symmetry_equiv_pos_site_id
_symmetry_equiv_pos_as_xyz
  1	'-x+.5, y+.5, -z+.5'
  2	'-x, -y, -z'
  3	'x+.5, -y+.5, z+.5'
  4	'x, y, z'
loop_
_atom_type_symbol
_atom_type_oxidation_number
Mn2+	2
Na1+	1
O2-	-2
Si4+	4
loop_
_atom_site_label
_atom_site_type_symbol
_atom_site_symmetry_multiplicity
_atom_site_Wyckoff_symbol
_atom_site_fract_x
_atom_site_fract_y
_atom_site_fract_z
_atom_site_occupancy
_atom_site_attached_hydrogens
_atom_site_B_iso_or_equiv
Mn1 Mn2+ 4 e 0.7092 0.0077 0.1374 1. 0 0.55 
Mn2 Mn2+ 4 e 0.1169 0.0822 0.3385 1. 0 0.59 
Si1 Si4+ 4 e 0.9707 0.1189 0.8195 1. 0 0.4 
Si2 Si4+ 4 e 0.4508 0.1667 0.1844 1. 0 0.5 
Na1 Na1+ 4 e 0.3058 0.2451 0.7217 1. 0 1.45 
Na2 Na1+ 4 e 0.6162 0.161 0.6716 1. 0 1.85 
O1 O2- 4 e 0.9579 0.2094 0.6219 1. 0 1.24 
O2 O2- 4 e 0.0885 0.0388 0.6992 1. 0 1.25 
O3 O2- 4 e 0.6178 0.1333 0.2675 1. 0 1.25 
O4 O2- 4 e 0.0241 0.1654 0.0703 1. 0 1.25 
O5 O2- 4 e 0.3194 0.1553 0.3725 1. 0 1.58 
O6 O2- 4 e 0.8133 0.055 0.829 1. 0 1.23 
O7 O2- 4 e 0.4159 0.1148 0.9355 1. 0 0.77 

#End of data_27729-ICSD


