data_262578-ICSD
#?2014 by Fachinformationszentrum Karlsruhe, and the U.S. Secretary of 
#Commerce on behalf of the United States.  All rights reserved.
_database_code_ICSD                262578
_audit_creation_date               2012/08/01
_audit_update_record               2013/02/01
_chemical_name_systematic
;
Tripotassium Nickel Dioxide - Alpha Phase
;
_chemical_formula_structural       'K3 Ni O2'
_chemical_formula_sum              'K3 Ni1 O2'
_publ_section_title
;
K3 Ni O2 revisited, phase transition and crystal structure refinement
;
loop_
_citation_id
_citation_journal_abbrev
_citation_year
_citation_journal_volume
_citation_journal_issue
_citation_page_first
_citation_page_last
_citation_journal_id_ASTM
primary 'Zeitschrift fuer Anorganische und Allgemeine Chemie (1950) (DE)'
 2012 638 5 737 743 ZAACAB
_publ_author_name                  'Duris, K.;Mueller, U.;Jansen, M.'
_cell_length_a                     6.0300(9)
_cell_length_b                     6.0300(9)
_cell_length_c                     14.065(3)
_cell_angle_alpha                  90.
_cell_angle_beta                   90.
_cell_angle_gamma                  90.
_cell_volume                       511.42
_cell_formula_units_Z              4
_symmetry_space_group_name_H-M     'P 41 21 2'
_symmetry_Int_Tables_number        92
_refine_ls_R_factor_all            .0318
loop_
_symmetry_equiv_pos_site_id
_symmetry_equiv_pos_as_xyz
  1	'x+.5, -y+.5, -z+.75'
  2	'-x+.5, y+.5, -z+.25'
  3	'-y, -x, -z+.5'
  4	'y, x, -z'
  5	'y+.5, -x+.5, z+.75'
  6	'-y+.5, x+.5, z+.25'
  7	'-x, -y, z+.5'
  8	'x, y, z'
loop_
_atom_type_symbol
_atom_type_oxidation_number
K1+	1
Ni1+	1
O2-	-2
loop_
_atom_site_label
_atom_site_type_symbol
_atom_site_symmetry_multiplicity
_atom_site_Wyckoff_symbol
_atom_site_fract_x
_atom_site_fract_y
_atom_site_fract_z
_atom_site_occupancy
_atom_site_attached_hydrogens
_atom_site_U_iso_or_equiv
Ni1 Ni1+ 4 a -0.0052(1) -0.0052(1) 0 1. 0 0.017(1) 
K1 K1+ 8 b -0.0192(1) 0.4788(1) 0.1250(1) 1. 0 0.028(1) 
K2 K1+ 4 a 0.4478(2) 0.4478(2) 0 1. 0 0.070(1) 
O1 O2- 8 b 0.1997(3) 0.7879(3) 0.0105(1) 1. 0 0.029(1) 

loop_
_atom_site_aniso_label
_atom_site_aniso_type_symbol
_atom_site_aniso_U_11
_atom_site_aniso_U_22
_atom_site_aniso_U_33
_atom_site_aniso_U_12
_atom_site_aniso_U_13
_atom_site_aniso_U_23
Ni1 Ni1+ 0.0156(1) 0.0156(1) 0.0202(2) 0.0028(1) 0.0004(1) -0.0004(1)
K1 K1+ 0.0284(3) 0.0310(3) 0.0257(2) -0.0003(3) 0.0009(2) -0.0023(3)
K2 K1+ 0.0481(5) 0.0481(5) 0.113(1) -0.0014(4) 0.0014(4) 0.0342(6)
O1 O2- 0.0203(7) 0.0216(7) 0.0453(9) 0.0070(5) -0.0001(9) 0.0024(9)
#End of data_262578-ICSD


