data_300167-ICSD
#?2014 by Fachinformationszentrum Karlsruhe, and the U.S. Secretary of 
#Commerce on behalf of the United States.  All rights reserved.
_database_code_ICSD                300167
_audit_creation_date               1991/07/10
_audit_update_record               2010/02/01
_chemical_name_systematic
;
Hexasodium Di-mue-thio-bis(dithioaluminate) - Ht
;
_chemical_formula_structural       'Na6 (S2 (Al S2)2)'
_chemical_formula_sum              'Al2 Na6 S6'
_publ_section_title
;
Crystal structure of hexasodium di-mue-thiobis(dithioaluminate) - HT
;
loop_
_citation_id
_citation_journal_abbrev
_citation_year
_citation_journal_volume
_citation_page_first
_citation_page_last
_citation_journal_id_ASTM
primary 'Zeitschrift fuer Kristallographie (1979-2010)' 1991 197 161 162 ZEKRDZ
_publ_author_name                  'Eisenmann, B.;Hofmann, A.'
_cell_length_a                     13.706(5)
_cell_length_b                     12.071(5)
_cell_length_c                     7.608(3)
_cell_angle_alpha                  90.
_cell_angle_beta                   98.60(6)
_cell_angle_gamma                  90.
_cell_volume                       1244.55
_cell_formula_units_Z              4
_symmetry_space_group_name_H-M     'P 1 21/c 1'
_symmetry_Int_Tables_number        14
_refine_ls_R_factor_all            .078
loop_
_symmetry_equiv_pos_site_id
_symmetry_equiv_pos_as_xyz
  1	'x, -y+.5, z+.5'
  2	'-x, -y, -z'
  3	'-x, y+.5, -z+.5'
  4	'x, y, z'
loop_
_atom_type_symbol
_atom_type_oxidation_number
Al3+	3
Na1+	1
S2-	-2
loop_
_atom_site_label
_atom_site_type_symbol
_atom_site_symmetry_multiplicity
_atom_site_Wyckoff_symbol
_atom_site_fract_x
_atom_site_fract_y
_atom_site_fract_z
_atom_site_occupancy
_atom_site_attached_hydrogens
Na1 Na1+ 4 e 0.0114(2) 0.7557(3) 0.0056(4) 1. 0 
Na2 Na1+ 4 e 0.1935(2) 0.0174(3) 0.0837(4) 1. 0 
Na3 Na1+ 4 e 0.2413(2) 0.3080(3) 0.0276(5) 1. 0 
Na4 Na1+ 4 e 0.4728(3) 0.2431(3) 0.4126(5) 1. 0 
Na5 Na1+ 4 e 0.6356(2) 0.0872(3) 0.1113(4) 1. 0 
Na6 Na1+ 4 e 0.7581(2) 0.3245(2) 0.0048(4) 1. 0 
Al1 Al3+ 4 e 0.0737(1) 0.4928(1) 0.1730(2) 1. 0 
Al2 Al3+ 4 e 0.5662(1) 0.4793(1) 0.1778(2) 1. 0 
S1 S2- 4 e 0.0957(1) 0.0012(1) 0.3797(2) 1. 0 
S2 S2- 4 e 0.1251(1) 0.3337(1) 0.2946(2) 1. 0 
S3 S2- 4 e 0.1448(1) 0.6401(1) 0.3091(2) 1. 0 
S4 S2- 4 e 0.3868(1) 0.1105(1) 0.1245(2) 1. 0 
S5 S2- 4 e 0.3978(1) 0.4666(1) 0.0937(2) 1. 0 
S6 S2- 4 e 0.6308(1) 0.3180(1) 0.2621(2) 1. 0 

#End of data_300167-ICSD


