data_280286-ICSD
#?2014 by Fachinformationszentrum Karlsruhe, and the U.S. Secretary of 
#Commerce on behalf of the United States.  All rights reserved.
_database_code_ICSD                280286
_audit_creation_date               2002/04/01
_chemical_name_systematic
;
Tripotassium Catena-octaselenosodiotristannate
;
_chemical_formula_structural       'K3 (Na Sn3 Se8)'
_chemical_formula_sum              'K3 Na1 Se8 Sn3'
_publ_section_title
;
Potassium sodium tin selenide, K3 Na Sn3 Se8
;
loop_
_citation_id
_citation_journal_abbrev
_citation_year
_citation_journal_volume
_citation_page_first
_citation_page_last
_citation_journal_id_ASTM
primary 'Acta Crystallographica, Section C: Crystal Structure Communications'
 2000 56 1181 1182 ACSCEE
_publ_author_name                  'Chen, X.;Huang, X.;Li, J.'
_cell_length_a                     8.121(1)
_cell_length_b                     8.121(1)
_cell_length_c                     13.672(3)
_cell_angle_alpha                  90.
_cell_angle_beta                   90.
_cell_angle_gamma                  90.
_cell_volume                       901.68
_cell_formula_units_Z              2
_symmetry_space_group_name_H-M     'P 4/n b m Z'
_symmetry_Int_Tables_number        125
_refine_ls_R_factor_all            .046
loop_
_symmetry_equiv_pos_site_id
_symmetry_equiv_pos_as_xyz
  1	'y+.5, x+.5, z'
  2	'y, -x+.5, z'
  3	'-y+.5, x, z'
  4	'-y, -x, z'
  5	'-y+.5, -x+.5, -z'
  6	'-y, x+.5, -z'
  7	'y+.5, -x, -z'
  8	'y, x, -z'
  9	'x+.5, y+.5, -z'
 10	'-x+.5, y, -z'
 11	'x, -y+.5, -z'
 12	'-x, -y, -z'
 13	'-x+.5, -y+.5, z'
 14	'x+.5, -y, z'
 15	'-x, y+.5, z'
 16	'x, y, z'
loop_
_atom_type_symbol
_atom_type_oxidation_number
K1+	1
Na1+	1
Se2-	-2
Sn4+	4
loop_
_atom_site_label
_atom_site_type_symbol
_atom_site_symmetry_multiplicity
_atom_site_Wyckoff_symbol
_atom_site_fract_x
_atom_site_fract_y
_atom_site_fract_z
_atom_site_occupancy
_atom_site_attached_hydrogens
Sn1 Sn4+ 2 d 0.75 0.25 0.5 1. 0 
Sn2 Sn4+ 4 h 0.75 0.25 0.24580(7) 1. 0 
Se1 Se2- 8 m 0.91418(11) 0.08582(11) 0.37801(8) 1. 0 
Se2 Se2- 8 m 0.56892(11) 0.06892(11) 0.14732(8) 1. 0 
K1 K1+ 2 a 0.25 0.25 0 1. 0 
K2 K1+ 4 g 0.25 0.25 0.2773(3) 1. 0 
Na1 Na1+ 2 c 0.75 0.25 0 1. 0 

loop_
_atom_site_aniso_label
_atom_site_aniso_type_symbol
_atom_site_aniso_U_11
_atom_site_aniso_U_22
_atom_site_aniso_U_33
_atom_site_aniso_U_12
_atom_site_aniso_U_13
_atom_site_aniso_U_23
Sn1 Sn4+ 0.0258(6) 0.0258(6) 0.0095(6) 0 0 0
Sn2 Sn4+ 0.0233(4) 0.0233(4) 0.0121(5) -.0052(5) 0 0
Se1 Se2- 0.0250(4) 0.0250(4) 0.0165(5) 0.0037(5) 0.0002(3) -.0002(3)
Se2 Se2- 0.0244(4) 0.0244(4) 0.0187(6) -.0039(5) -.0012(3) -.0012(3)
K1 K1+ 0.041(2) 0.041(2) 0.036(3) 0 0 0
K2 K1+ 0.0268(12) 0.0268(12) 0.039(2) 0 0 0
Na1 Na1+ 0.046(4) 0.046(4) 0.007(4) 0 0 0
#End of data_280286-ICSD


