data_412391-ICSD
#?2014 by Fachinformationszentrum Karlsruhe, and the U.S. Secretary of 
#Commerce on behalf of the United States.  All rights reserved.
_database_code_ICSD                412391
_audit_creation_date               2003/04/01
_chemical_name_systematic          'Tripotassium Arsenate(V)'
_chemical_formula_structural       'K3 (As O4)'
_chemical_formula_sum              'As1 K3 O4'
_publ_section_title
;
Neue Oxopnictate A(I)3 M(V) O4: Darstellung und Kristallstruktur von 
A3 As O4 (A = K, Rb, Cs) und K3 Bi O4
;
loop_
_citation_id
_citation_journal_abbrev
_citation_year
_citation_journal_volume
_citation_page_first
_citation_page_last
_citation_journal_id_ASTM
primary 'Zeitschrift fuer Naturforschung, B: Chemical Sciences'
 2002 57 599 604 ZNBSEN
_publ_author_name                  'Emmerling, F.;Idilbi, M.;Roehr, C.'
_cell_length_a                     10.6011(12)
_cell_length_b                     11.3521(13)
_cell_length_c                     16.9401(19)
_cell_angle_alpha                  90.
_cell_angle_beta                   90.
_cell_angle_gamma                  90.
_cell_volume                       2038.65
_cell_formula_units_Z              16
_symmetry_space_group_name_H-M     'C c c m'
_symmetry_Int_Tables_number        66
_refine_ls_R_factor_all            .0515
loop_
_symmetry_equiv_pos_site_id
_symmetry_equiv_pos_as_xyz
  1	'-x, y, z+.5'
  2	'x, -y, z+.5'
  3	'x, y, -z'
  4	'-x, -y, -z'
  5	'x, -y, -z+.5'
  6	'-x, y, -z+.5'
  7	'-x, -y, z'
  8	'x, y, z'
  9	'-x+.5, y+.5, z+.5'
 10	'x+.5, -y+.5, z+.5'
 11	'x+.5, y+.5, -z'
 12	'-x+.5, -y+.5, -z'
 13	'x+.5, -y+.5, -z+.5'
 14	'-x+.5, y+.5, -z+.5'
 15	'-x+.5, -y+.5, z'
 16	'x+.5, y+.5, z'
loop_
_atom_type_symbol
_atom_type_oxidation_number
As5+	5
K1+	1
O2-	-2
loop_
_atom_site_label
_atom_site_type_symbol
_atom_site_symmetry_multiplicity
_atom_site_Wyckoff_symbol
_atom_site_fract_x
_atom_site_fract_y
_atom_site_fract_z
_atom_site_occupancy
_atom_site_attached_hydrogens
_atom_site_U_iso_or_equiv
As1 As5+ 8 l 0.26214(10) 0.00274(8) 0 1. 0 0.0116(4) 
O1 O2- 8 l 0.3812(7) 0.1016(7) 0 1. 0 0.0196(16) 
O2 O2- 8 l 0.1267(7) 0.0794(8) 0 1. 0 0.029(2) 
O3 O2- 16 m 0.2673(6) 0.0819(7) 0.4194(4) 1. 0 0.0406(19) 
As2 As5+ 8 h 0 0.25345(9) 0.25 1. 0 0.0120(4) 
O4 O2- 16 m 0.1277(5) 0.3398(5) 0.2403(3) 1. 0 0.0195(12) 
O5 O2- 16 m 0.0169(6) 0.1664(6) 0.3303(4) 1. 0 0.0303(15) 
K1 K1+ 8 l 0.5594(2) 0.2576(2) 0 1. 0 0.0214(6) 
K2 K1+ 8 j 0 0.5 0.13807(15) 1. 0 0.0167(6) 
K3 K1+ 8 k 0.25 0.25 0.10896(15) 1. 0 0.0192(6) 
K4 K1+ 8 g 0.1969(2) 0 0.25 1. 0 0.0261(7) 
K5 K1+ 8 k 0.25 0.25 0.3447(3) 1. 0 0.0546(11) 
K6 K1+ 8 i 0 0 0.0995(3) 1. 0 0.0685(14) 

loop_
_atom_site_aniso_label
_atom_site_aniso_type_symbol
_atom_site_aniso_U_11
_atom_site_aniso_U_22
_atom_site_aniso_U_33
_atom_site_aniso_U_12
_atom_site_aniso_U_13
_atom_site_aniso_U_23
As1 As5+ 0.0106(6) 0.0092(6) 0.0148(7) -0.0009(3) 0 0
O1 O2- 0.017(4) 0.018(4) 0.025(4) -0.007(3) 0 0
O2 O2- 0.013(4) 0.024(5) 0.051(6) 0.001(3) 0 0
O3 O2- 0.036(4) 0.051(5) 0.035(4) 0.018(3) 0.009(3) 0.025(3)
As2 As5+ 0.0120(6) 0.0091(7) 0.0150(7) 0 -0.0010(4) 0
O4 O2- 0.015(2) 0.015(3) 0.028(3) -0.003(2) -0.001(2) 0.002(2)
O5 O2- 0.035(3) 0.030(4) 0.026(3) 0.001(3) -0.001(3) 0.015(3)
K1 K1+ 0.0178(12) 0.0141(12) 0.0323(14) -0.0014(9) 0 0
K2 K1+ 0.0162(11) 0.0158(12) 0.0180(12) 0.0015(8) 0 0
K3 K1+ 0.0241(12) 0.0161(12) 0.0174(12) 0.0025(8) 0 0
K4 K1+ 0.0160(12) 0.0134(12) 0.0487(18) 0 0 0.0008(10)
K5 K1+ 0.054(2) 0.049(2) 0.060(3) 0.0040(17) 0 0
K6 K1+ 0.104(4) 0.051(3) 0.051(3) -0.012(2) 0 0
#End of data_412391-ICSD


