data_203081-ICSD
#?2014 by Fachinformationszentrum Karlsruhe, and the U.S. Secretary of 
#Commerce on behalf of the United States.  All rights reserved.
_database_code_ICSD                203081
_audit_creation_date               1990/12/27
_audit_update_record               2013/02/01
_chemical_name_systematic          'Potassium Copper(III) Oxide'
_chemical_formula_structural       'K Cu O2'
_chemical_formula_sum              'Cu1 K1 O2'
_publ_section_title
;
Crystal structures of Na Cu O2 and K Cu O2 by neutron diffraction
;
loop_
_citation_id
_citation_journal_abbrev
_citation_year
_citation_journal_volume
_citation_page_first
_citation_page_last
_citation_journal_id_ASTM
primary 'Journal of Solid State Chemistry' 1989 83 1 7 JSSCBI
_publ_author_name
;
Brese, N.E.;O'Keeffe, M.;von Dreele, R.B.;Young, V.G.jr.
;
_cell_length_a                     4.3742(1)
_cell_length_b                     11.6859(4)
_cell_length_c                     5.4124(2)
_cell_angle_alpha                  90.
_cell_angle_beta                   90.
_cell_angle_gamma                  90.
_cell_volume                       276.66
_cell_formula_units_Z              4
_symmetry_space_group_name_H-M     'C m c m'
_symmetry_Int_Tables_number        63
_refine_ls_R_factor_all            .022
loop_
_symmetry_equiv_pos_site_id
_symmetry_equiv_pos_as_xyz
  1	'-x, y, -z+.5'
  2	'-x, -y, z+.5'
  3	'-x, y, z'
  4	'-x, -y, -z'
  5	'x, -y, z+.5'
  6	'x, y, -z+.5'
  7	'x, -y, -z'
  8	'x, y, z'
  9	'-x+.5, y+.5, -z+.5'
 10	'-x+.5, -y+.5, z+.5'
 11	'-x+.5, y+.5, z'
 12	'-x+.5, -y+.5, -z'
 13	'x+.5, -y+.5, z+.5'
 14	'x+.5, y+.5, -z+.5'
 15	'x+.5, -y+.5, -z'
 16	'x+.5, y+.5, z'
loop_
_atom_type_symbol
_atom_type_oxidation_number
Cu3+	3
K1+	1
O2-	-2
loop_
_atom_site_label
_atom_site_type_symbol
_atom_site_symmetry_multiplicity
_atom_site_Wyckoff_symbol
_atom_site_fract_x
_atom_site_fract_y
_atom_site_fract_z
_atom_site_occupancy
_atom_site_attached_hydrogens
K1 K1+ 4 c 0 0.3008(2) 0.25 1. 0 
Cu1 Cu3+ 4 c 0 0.0033(1) 0.25 1. 0 
O1 O2- 8 f 0 0.10522(5) -.0072(3) 1. 0 

loop_
_atom_site_aniso_label
_atom_site_aniso_type_symbol
_atom_site_aniso_U_11
_atom_site_aniso_U_22
_atom_site_aniso_U_33
_atom_site_aniso_U_12
_atom_site_aniso_U_13
_atom_site_aniso_U_23
K1 K1+ 0.015(1) 0.011(1) 0.0122(8) 0 0 0
Cu1 Cu3+ 0.0150(7) 0.0055(6) 0.0010(4) 0 0 0
O1 O2- 0.0328(8) 0.0056(5) 0.0026(4) 0 0 0.0013(5)
#End of data_203081-ICSD


