data_201778-ICSD
#?2014 by Fachinformationszentrum Karlsruhe, and the U.S. Secretary of 
#Commerce on behalf of the United States.  All rights reserved.
_database_code_ICSD                201778
_audit_creation_date               1986/12/03
_audit_update_record               1997/05/13
_chemical_name_systematic          'Dipotassium Tetranitratopalladate'
_chemical_formula_structural       'K2 (Pd (N O3)4)'
_chemical_formula_sum              'K2 N4 O12 Pd1'
_publ_section_title
;
Synthesis and crystal structure of potassium tetranitrato 
palladate(II)
;
loop_
_citation_id
_citation_journal_abbrev
_citation_year
_citation_journal_volume
_citation_page_first
_citation_page_last
_citation_journal_id_ASTM
primary 'Inorganica Chimica Acta' 1986 114 71 74 ICHAA3
_publ_author_name
;
Elding, L.I.;Noren, B.;Oskarsson, A.
;
_cell_length_a                     7.940(2)
_cell_length_b                     15.469(4)
_cell_length_c                     9.453(2)
_cell_angle_alpha                  90.
_cell_angle_beta                   91.10(3)
_cell_angle_gamma                  90.
_cell_volume                       1160.84
_cell_formula_units_Z              4
_symmetry_space_group_name_H-M     'P 1 21/c 1'
_symmetry_Int_Tables_number        14
_refine_ls_R_factor_all            .023
loop_
_symmetry_equiv_pos_site_id
_symmetry_equiv_pos_as_xyz
  1	'x, -y+.5, z+.5'
  2	'-x, -y, -z'
  3	'-x, y+.5, -z+.5'
  4	'x, y, z'
loop_
_atom_type_symbol
_atom_type_oxidation_number
K1+	1
N5+	5
O2-	-2
Pd2+	2
loop_
_atom_site_label
_atom_site_type_symbol
_atom_site_symmetry_multiplicity
_atom_site_Wyckoff_symbol
_atom_site_fract_x
_atom_site_fract_y
_atom_site_fract_z
_atom_site_occupancy
_atom_site_attached_hydrogens
_atom_site_U_iso_or_equiv
Pd1 Pd2+ 4 e 0.270070(28) 0.620240(15) 0.327470(25) 1. 0 0.02402(7) 
K1 K1+ 4 e 0.254780(94) 0.90655(5) 0.44876(8) 1. 0 0.03305(21) 
K2 K1+ 4 e 0.223420(91) 0.339570(53) 0.485620(79) 1. 0 0.03458(22) 
N1 N5+ 4 e 0.57082(34) 0.69370(19) 0.21514(32) 1. 0 0.0330(9) 
O1 O2- 4 e 0.50946(27) 0.65947(16) 0.32881(25) 1. 0 0.0325(7) 
O2 O2- 4 e 0.48597(35) 0.69906(18) 0.10630(28) 1. 0 0.0445(9) 
O3 O2- 4 e 0.71651(32) 0.72002(20) 0.22757(33) 1. 0 0.0505(10) 
N2 N5+ 4 e 0.10292(34) 0.76695(19) 0.20737(32) 1. 0 0.0319(8) 
O4 O2- 4 e 0.19794(30) 0.74394(15) 0.31579(26) 1. 0 0.0343(7) 
O5 O2- 4 e 0.07092(33) 0.71587(18) 0.11331(27) 1. 0 0.0411(8) 
O6 O2- 4 e 0.05033(39) 0.84110(18) 0.21040(35) 1. 0 0.0557(10) 
N3 N5+ 4 e -.04662(34) 0.54074(18) 0.26097(31) 1. 0 0.0320(9) 
O7 O2- 4 e 0.03190(28) 0.58575(17) 0.36032(26) 1. 0 0.0343(7) 
O8 O2- 4 e 0.02925(34) 0.51740(18) 0.15671(28) 1. 0 0.0440(9) 
O9 O2- 4 e -.1944(3) 0.52522(19) 0.28238(33) 1. 0 0.0474(9) 
N4 N5+ 4 e 0.43214(35) 0.46195(19) 0.26332(33) 1. 0 0.0344(9) 
O10 O2- 4 e 0.34431(31) 0.49779(16) 0.36296(26) 1. 0 0.0351(7) 
O11 O2- 4 e 0.45159(32) 0.49910(18) 0.15043(27) 1. 0 0.0401(8) 
O12 O2- 4 e 0.49082(41) 0.39073(17) 0.29056(35) 1. 0 0.0543(10) 

#End of data_201778-ICSD


