data_241230-ICSD
#?2014 by Fachinformationszentrum Karlsruhe, and the U.S. Secretary of 
#Commerce on behalf of the United States.  All rights reserved.
_database_code_ICSD                241230
_audit_creation_date               2008/08/01
_chemical_name_systematic
;
Potassium Yttrium Tetrakis(phosphate(V))
;
_chemical_formula_structural       'K Y (P O3)4'
_chemical_formula_sum              'K1 O12 P4 Y1'
_publ_section_title
;
A monoclinic polymorph of K Y (P O3)4
;
loop_
_citation_id
_citation_journal_abbrev
_citation_year
_citation_journal_volume
_citation_journal_issue
_citation_page_first
_citation_page_last
_citation_journal_id_ASTM
primary 'Acta Crystallographica, Section E. Structure Reports Online'
 2008 64 6 i34 i34 ACSEBH
_publ_author_name
;
Horchani-Naifer, K.;Jouini, A.;Ferid, M.
;
_cell_length_a                     7.2244(3)
_cell_length_b                     8.2825(3)
_cell_length_c                     7.854(4)
_cell_angle_alpha                  90.00
_cell_angle_beta                   91.735(3)
_cell_angle_gamma                  90.00
_cell_volume                       469.74
_cell_formula_units_Z              2
_symmetry_space_group_name_H-M     'P 1 21 1'
_symmetry_Int_Tables_number        4
_refine_ls_R_factor_all            .0475
loop_
_symmetry_equiv_pos_site_id
_symmetry_equiv_pos_as_xyz
  1	'-x, y+.5, -z'
  2	'x, y, z'
loop_
_atom_type_symbol
_atom_type_oxidation_number
K1+	1
O2-	-2
P5+	5
Y3+	3
loop_
_atom_site_label
_atom_site_type_symbol
_atom_site_symmetry_multiplicity
_atom_site_Wyckoff_symbol
_atom_site_fract_x
_atom_site_fract_y
_atom_site_fract_z
_atom_site_occupancy
_atom_site_attached_hydrogens
_atom_site_U_iso_or_equiv
Y1 Y3+ 2 a 0.23704(8) 0.75897(9) 0.24245(8) 1 0 0.0086(3) 
K1 K1+ 2 a 0.2703(3) 0.4566(3) -0.2812(3) 1 0 0.0303(6) 
P1 P5+ 2 a 0.4367(3) 0.3830(2) 0.0947(3) 1 0 0.0091(4) 
P2 P5+ 2 a 0.0994(3) 0.1755(2) 0.0978(2) 1 0 0.0086(4) 
P3 P5+ 2 a -0.0018(3) 0.4085(2) 0.3809(2) 1 0 0.0088(4) 
P4 P5+ 2 a 0.6161(3) 0.5114(2) 0.3992(2) 1 0 0.0084(4) 
O1 O2- 2 a 0.3212(8) 0.5292(7) 0.0721(7) 1 0 0.0140(12) 
O2 O2- 2 a 0.5736(8) 0.3558(8) -0.0387(8) 1 0 0.0184(13) 
O3 O2- 2 a 0.3126(7) 0.2261(7) 0.1093(8) 1 0 0.0169(13) 
O4 O2- 2 a 0.5360(8) 0.3706(7) 0.2789(7) 1 0 0.0139(12) 
O5 O2- 2 a 0.0239(8) 0.2062(7) -0.0776(7) 1 0 0.0150(12) 
O6 O2- 2 a 0.0880(8) 0.0105(7) 0.1732(7) 1 0 0.0163(12) 
O7 O2- 2 a -0.0076(8) 0.2991(7) 0.2159(8) 1 0 0.0189(13) 
O8 O2- 2 a 0.1660(7) 0.5100(7) 0.3846(7) 1 0 0.0124(11) 
O9 O2- 2 a -0.0337(8) 0.3109(7) 0.5348(8) 1 0 0.0167(12) 
O10 O2- 2 a -0.1755(8) 0.5225(7) 0.3407(7) 1 0 0.0121(11) 
O11 O2- 2 a 0.5258(8) 0.6648(7) 0.3514(7) 1 0 0.0138(11) 
O12 O2- 2 a 0.6118(7) 0.4535(7) 0.5773(7) 1 0 0.0121(11) 

loop_
_atom_site_aniso_label
_atom_site_aniso_type_symbol
_atom_site_aniso_U_11
_atom_site_aniso_U_22
_atom_site_aniso_U_33
_atom_site_aniso_U_12
_atom_site_aniso_U_13
_atom_site_aniso_U_23
Y1 Y3+ 0.0092(4) 0.0103(4) 0.0067(4) -0.0004(3) 0.0048(2) -0.0001(2)
K1 K1+ 0.0180(10) 0.0601(16) 0.0129(8) 0.0108(9) 0.0031(7) -0.0019(10)
P1 P5+ 0.0100(9) 0.0098(10) 0.0080(9) -0.0003(7) 0.0044(7) -0.0004(6)
P2 P5+ 0.0084(9) 0.0095(9) 0.0082(9) -0.0008(6) 0.0034(7) -0.0004(7)
P3 P5+ 0.0090(9) 0.0107(10) 0.0070(9) -0.0009(7) 0.0055(7) 0.0003(7)
P4 P5+ 0.0086(9) 0.0088(9) 0.0081(8) 0.0003(6) 0.0032(7) 0.0001(6)
O1 O2- 0.018(3) 0.012(3) 0.012(3) 0.001(2) 0.003(2) -0.001(2)
O2 O2- 0.021(3) 0.021(3) 0.014(3) 0.007(2) 0.011(2) -0.001(2)
O3 O2- 0.010(3) 0.018(3) 0.023(3) -0.003(2) 0.000(2) -0.004(2)
O4 O2- 0.016(3) 0.015(3) 0.011(3) 0.001(2) -0.002(2) 0.000(2)
O5 O2- 0.014(3) 0.020(3) 0.011(3) 0.004(2) 0.002(2) -0.003(2)
O6 O2- 0.019(3) 0.011(3) 0.019(3) 0.003(2) -0.002(2) 0.004(2)
O7 O2- 0.018(3) 0.020(3) 0.019(3) 0.003(2) 0.008(2) -0.010(2)
O8 O2- 0.008(3) 0.016(3) 0.013(3) -0.004(2) 0.004(2) 0.004(2)
O9 O2- 0.017(3) 0.019(3) 0.015(3) 0.003(2) 0.010(2) 0.007(2)
O10 O2- 0.011(3) 0.015(3) 0.011(3) -0.002(2) 0.005(2) 0.003(2)
O11 O2- 0.012(3) 0.015(3) 0.014(3) 0.003(2) 0.000(2) 0.002(2)
O12 O2- 0.010(2) 0.019(3) 0.008(2) 0.005(2) 0.002(2) 0.000(2)
#End of data_241230-ICSD


