data_26995-ICSD
#?2014 by Fachinformationszentrum Karlsruhe, and the U.S. Secretary of 
#Commerce on behalf of the United States.  All rights reserved.
_database_code_ICSD                26995
_audit_creation_date               1980/01/01
_audit_update_record               1985/05/17
_chemical_name_systematic
;
Trimanganese(IV) Dilithium Zinc Oxide
;
_chemical_formula_structural       'Mn3 Li2 Zn O8'
_chemical_formula_sum              'Li2 Mn3 O8 Zn1'
_publ_section_title
;
Etude de deux types d'ordre dans le spinelle Mn3 Li2 Zn O8
;
loop_
_citation_id
_citation_journal_abbrev
_citation_year
_citation_journal_volume
_citation_page_first
_citation_page_last
_citation_journal_id_ASTM
primary
;
Comptes Rendus Hebdomadaires des Seances de l`Academie des Sciences 
(1884 - 1965)
;
 1964 258 4482 4485 COREAF
_publ_author_name                  'Joubert, J.C.;Durif, A.'
_cell_length_a                     8.192(3)
_cell_length_b                     8.192(3)
_cell_length_c                     8.192(3)
_cell_angle_alpha                  90.
_cell_angle_beta                   90.
_cell_angle_gamma                  90.
_cell_volume                       549.76
_cell_formula_units_Z              4
_symmetry_space_group_name_H-M     'P 21 3'
_symmetry_Int_Tables_number        198
loop_
_symmetry_equiv_pos_site_id
_symmetry_equiv_pos_as_xyz
  1	'-z+.5, -x, y+.5'
  2	'-y+.5, -z, x+.5'
  3	'-x+.5, -y, z+.5'
  4	'-z, x+.5, -y+.5'
  5	'-y, z+.5, -x+.5'
  6	'-x, y+.5, -z+.5'
  7	'z+.5, -x+.5, -y'
  8	'y+.5, -z+.5, -x'
  9	'x+.5, -y+.5, -z'
 10	'z, x, y'
 11	'y, z, x'
 12	'x, y, z'
loop_
_atom_type_symbol
_atom_type_oxidation_number
Li1+	1
Mn4+	4
O2-	-2
Zn2+	2
loop_
_atom_site_label
_atom_site_type_symbol
_atom_site_symmetry_multiplicity
_atom_site_Wyckoff_symbol
_atom_site_fract_x
_atom_site_fract_y
_atom_site_fract_z
_atom_site_occupancy
_atom_site_attached_hydrogens
Mn1 Mn4+ 12 b 0.125 0.375 0.875 1. 0 
Li1 Li1+ 4 a 0.625 0.625 0.625 1. 0 
Li2 Li1+ 4 a 0.25 0.25 0.25 1. 0 
Zn1 Zn2+ 4 a 0 0 0 1. 0 
O1 O2- 12 b 0.125 0.125 0.375 1. 0 
O2 O2- 12 b 0.125 0.875 0.125 1. 0 
O3 O2- 4 a 0.375 0.375 0.375 1. 0 
O4 O2- 4 a 0.875 0.875 0.875 1. 0 

#End of data_26995-ICSD


