data_171711-ICSD
#?2014 by Fachinformationszentrum Karlsruhe, and the U.S. Secretary of 
#Commerce on behalf of the United States.  All rights reserved.
_database_code_ICSD                171711
_audit_creation_date               2006/10/01
_chemical_name_systematic
;
Potassium Neodymium Tetrakisphosphate(V)
;
_chemical_formula_structural       'K Nd (P O3)4'
_chemical_formula_sum              'K1 Nd1 O12 P4'
_publ_section_title
;
Crystal structure and optical characterization of pure and Nd-
substituted type III K Gd (P O3)4
;
loop_
_citation_id
_citation_journal_abbrev
_citation_year
_citation_journal_volume
_citation_journal_issue
_citation_page_first
_citation_page_last
_citation_journal_id_ASTM
primary 'Chemistry of Materials' 2006 18 1 221 228 CMATEX
_publ_author_name
;
Parreu, I.;Carvajal, J.J.;Solans, X.;Diaz, F.;Aguilo, M.
;
_cell_length_a                     7.2860(10)
_cell_length_b                     8.4420(10)
_cell_length_c                     8.0340(10)
_cell_angle_alpha                  90
_cell_angle_beta                   92.170(10)
_cell_angle_gamma                  90
_cell_volume                       493.8
_cell_formula_units_Z              2
_symmetry_space_group_name_H-M     'P 1 21 1'
_symmetry_Int_Tables_number        4
_refine_ls_R_factor_all            .0386
loop_
_symmetry_equiv_pos_site_id
_symmetry_equiv_pos_as_xyz
  1	'-x, y+.5, -z'
  2	'x, y, z'
loop_
_atom_type_symbol
_atom_type_oxidation_number
K1+	1
Nd3+	3
O2-	-2
P5+	5
loop_
_atom_site_label
_atom_site_type_symbol
_atom_site_symmetry_multiplicity
_atom_site_Wyckoff_symbol
_atom_site_fract_x
_atom_site_fract_y
_atom_site_fract_z
_atom_site_occupancy
_atom_site_attached_hydrogens
_atom_site_U_iso_or_equiv
Nd1 Nd3+ 2 a 0.2349(1) 0.2500(1) 0.2422(1) 1. 0 0.017(1) 
K1 K1+ 2 a 0.7268(3) 0.0543(3) 0.2808(2) 1. 0 0.038(1) 
P1 P5+ 2 a 0.1031(2) 0.8304(3) 0.1037(2) 1. 0 0.018(1) 
P2 P5+ 2 a 0.4342(3) 0.6280(2) 0.0979(2) 1. 0 0.018(1) 
P3 P5+ 2 a 0.6220(2) 0.4965(2) 0.3959(2) 1. 0 0.017(1) 
P4 P5+ 2 a 0.0006(3) 0.1013(3) 0.6196(2) 1. 0 0.018(1) 
O1 O2- 2 a 0.0847(8) 0.9901(7) 0.1734(7) 1. 0 0.024(1) 
O2 O2- 2 a 0.6881(8) 0.2808(6) 0.8761(7) 1. 0 0.025(1) 
O3 O2- 2 a 0.0105(9) 0.2072(8) 0.7845(8) 1. 0 0.030(1) 
O4 O2- 2 a 0.8294(7) 0.0028(8) 0.6153(7) 1. 0 0.023(1) 
O5 O2- 2 a 0.6830(9) 0.9837(8) 0.9297(7) 1. 0 0.024(1) 
O6 O2- 2 a 0.4313(9) 0.1527(9) 0.0334(8) 1. 0 0.032(1) 
O7 O2- 2 a 0.0266(9) 0.2072(7) 0.4714(8) 1. 0 0.026(1) 
O8 O2- 2 a 0.1687(7) -0.0119(6) 0.6552(6) 1. 0 0.020(1) 
O9 O2- 2 a 0.4608(9) 0.1344(7) 0.7263(7) 1. 0 0.024(1) 
O10 O2- 2 a 0.5377(8) 0.3441(7) 0.3448(7) 1. 0 0.025(1) 
O11 O2- 2 a 0.9635(7) 0.2975(7) 0.0680(6) 1. 0 0.023(1) 
O12 O2- 2 a 0.3858(8) 0.0558(7) 0.4277(6) 1. 0 0.023(1) 

#End of data_171711-ICSD


