data_411051-ICSD
#?2014 by Fachinformationszentrum Karlsruhe, and the U.S. Secretary of 
#Commerce on behalf of the United States.  All rights reserved.
_database_code_ICSD                411051
_audit_creation_date               2002/04/01
_audit_update_record               2013/08/01
_chemical_name_systematic
;
Tripotassium Hexachlorotitanate(III)
;
_chemical_formula_structural       'K3 (Ti Cl6)'
_chemical_formula_sum              'Cl6 K3 Ti1'
_publ_section_title
;
Ternaere Halogenide vom Typ A3 M X6. IX Kristallstrukturen von Na3 Ti 
Cl6 und K3 Ti Cl6
;
loop_
_citation_id
_citation_journal_abbrev
_citation_year
_citation_journal_volume
_citation_page_first
_citation_page_last
_citation_journal_id_ASTM
primary 'Zeitschrift fuer Anorganische und Allgemeine Chemie (1950) (DE)'
 2000 626 822 824 ZAACAB
_publ_author_name                  'Hinz, D.;Gloger, T.;Meyer, G.'
_cell_length_a                     12.107(2)
_cell_length_b                     7.5136(8)
_cell_length_c                     12.2616(2)
_cell_angle_alpha                  90.
_cell_angle_beta                   108.296(16)
_cell_angle_gamma                  90.
_cell_volume                       1059.02
_cell_formula_units_Z              4
_symmetry_space_group_name_H-M     'P 1 21/a 1'
_symmetry_Int_Tables_number        14
_refine_ls_R_factor_all            .0967
loop_
_symmetry_equiv_pos_site_id
_symmetry_equiv_pos_as_xyz
  1	'x+.5, -y+.5, z'
  2	'-x, -y, -z'
  3	'-x+.5, y+.5, -z'
  4	'x, y, z'
loop_
_atom_type_symbol
_atom_type_oxidation_number
Cl1-	-1
K1+	1
Ti3+	3
loop_
_atom_site_label
_atom_site_type_symbol
_atom_site_symmetry_multiplicity
_atom_site_Wyckoff_symbol
_atom_site_fract_x
_atom_site_fract_y
_atom_site_fract_z
_atom_site_occupancy
_atom_site_attached_hydrogens
Ti1 Ti3+ 2 c 0 0.5 0 1. 0 
Ti2 Ti3+ 2 d 0.5 0.5 0.5 1. 0 
Cl1 Cl1- 4 e 0.0070(2) 0.2991(3) 0.8545(2) 1. 0 
Cl2 Cl1- 4 e 0.1036(2) 0.2936(3) 0.1466(2) 1. 0 
Cl3 Cl1- 4 e 0.18509(18) 0.6328(3) 0.0011(2) 1. 0 
Cl4 Cl1- 4 e 0.4037(2) 0.2288(3) 0.4001(2) 1. 0 
Cl5 Cl1- 4 e 0.3782(2) 0.4904(3) 0.6150(2) 1. 0 
Cl6 Cl1- 4 e 0.8557(2) -.1849(3) 0.3704(2) 1. 0 
K1 K1+ 4 e 0.88497(18) 0.0678(3) 0.17761(18) 1. 0 
K2 K1+ 4 e 0.23714(19) -.0616(3) 0.1866(2) 1. 0 
K3 K1+ 4 e 0.3617(2) -.0274(4) 0.5987(2) 1. 0 

loop_
_atom_site_aniso_label
_atom_site_aniso_type_symbol
_atom_site_aniso_U_11
_atom_site_aniso_U_22
_atom_site_aniso_U_33
_atom_site_aniso_U_12
_atom_site_aniso_U_13
_atom_site_aniso_U_23
Ti1 Ti3+ 0.0166(12) 0.0131(11) 0.0148(14) 0.0005(9) 0.0045(10) -.0002(8)
Ti2 Ti3+ 0.0153(12) 0.0158(11) 0.0183(14) 0.0030(9) 0.0053(10) 0.0033(9)
Cl1 Cl1- 0.0369(14) 0.0328(13) 0.0391(17) -.0026(11) 0.0158(12) -.0186(11)
Cl2 Cl1- 0.0284(13) 0.0283(12) 0.0368(17) 0.008(1) 0.0069(11) 0.0149(11)
Cl3 Cl1- 0.0206(11) 0.0232(11) 0.0306(14) -.0018(9) 0.0088(10) 0.0010(9)
Cl4 Cl1- 0.0352(14) 0.0230(12) 0.0329(16) -.0075(10) 0.0076(11) -.0004(10)
Cl5 Cl1- 0.0262(13) 0.0483(15) 0.0286(16) -.0006(11) 0.0159(12) 0.0045(11)
Cl6 Cl1- 0.0315(13) 0.0332(13) 0.0276(15) -.0134(11) 0.0054(11) -.0105(10)
K1 K1+ 0.0354(12) 0.0255(11) 0.0240(14) -.0006(10) 0.0042(10) 0.0030(9)
K2 K1+ 0.0409(13) 0.0253(11) 0.0325(15) 0.0081(10) 0.0138(11) 0.0089(10)
K3 K1+ 0.0415(15) 0.078(2) 0.046(2) 0.0253(14) 0.0175(13) 0.0135(14)
#End of data_411051-ICSD


