data_10423-ICSD
#?2014 by Fachinformationszentrum Karlsruhe, and the U.S. Secretary of 
#Commerce on behalf of the United States.  All rights reserved.
_database_code_ICSD                10423
_audit_creation_date               1980/01/01
_audit_update_record               2012/02/01
_chemical_name_systematic
;
Hexaaquamagnesium Tetrahydroxopentaoxotetraborate Dihydrate
;
_chemical_formula_structural
;
(Mg (H2 O)5) (B4 O5 (O H)4) (H2 O)2
;
_chemical_formula_sum              'H18 B4 Mg1 O16'
_chemical_name_mineral             Hungchaoite
_publ_section_title
;
Hungchaoite, Mg (H2 O)5 B4 O5 (O H)4 (H2 O)2 : a hydrogen-bonded 
molecular complex
;
loop_
_citation_id
_citation_journal_abbrev
_citation_year
_citation_journal_volume
_citation_page_first
_citation_page_last
_citation_journal_id_ASTM
primary 'American Mineralogist' 1977 62 1135 1143 AMMIAY
_publ_author_name                  'Wan, C.;Ghose, S.'
_cell_length_a                     8.807(1)
_cell_length_b                     10.657(1)
_cell_length_c                     7.897(1)
_cell_angle_alpha                  103.39(1)
_cell_angle_beta                   108.53(1)
_cell_angle_gamma                  97.18(1)
_cell_volume                       667.62
_cell_formula_units_Z              2
_symmetry_space_group_name_H-M     'P -1'
_symmetry_Int_Tables_number        2
_refine_ls_R_factor_all            .049
loop_
_symmetry_equiv_pos_site_id
_symmetry_equiv_pos_as_xyz
  1	'-x, -y, -z'
  2	'x, y, z'
loop_
_atom_type_symbol
_atom_type_oxidation_number
B3+	3
H1+	1
Mg2+	2
O2-	-2
loop_
_atom_site_label
_atom_site_type_symbol
_atom_site_symmetry_multiplicity
_atom_site_Wyckoff_symbol
_atom_site_fract_x
_atom_site_fract_y
_atom_site_fract_z
_atom_site_occupancy
_atom_site_attached_hydrogens
_atom_site_U_iso_or_equiv
Mg1 Mg2+ 2 i 0.82907(6) 0.22643(5) 0.13238(7) 1. 0 0 
B1 B3+ 2 i 0.1812(2) 0.3017(2) 0.4835(2) 1. 0 0 
B2 B3+ 2 i 0.2242(2) 0.0830(2) 0.5269(2) 1. 0 0 
B3 B3+ 2 i 0.2786(2) 0.2761(2) 0.7926(2) 1. 0 0 
B4 B3+ 2 i 0.4629(2) 0.4094(2) 0.6887(2) 1. 0 0 
O1 O2- 2 i 0.1915(1) 0.1614(1) 0.4106(1) 1. 0 0 
O2 O2- 2 i 0.2731(1) 0.1322(1) 0.7163(1) 1. 0 0 
O3 O2- 2 i 0.4437(1) 0.3536(1) 0.8219(1) 1. 0 0 
O4 O2- 2 i 0.3412(1) 0.3893(1) 0.5202(1) 1. 0 0 
O5 O2- 2 i 0.1545(1) 0.3188(1) 0.6596(1) 1. 0 0 
O6 O2- 2 i 0.0509(1) 0.3305(1) 0.3391(1) 1. 0 0 
O7 O2- 2 i 0.2054(2) 0.9517(1) 0.4428(2) 1. 0 0 
O8 O2- 2 i 0.2539(1) 0.2893(1) 0.9977(2) 1. 0 0 
O9 O2- 2 i 0.6132(1) 0.4891(1) 0.7326(2) 1. 0 0 
O10 O2- 2 i 0.6108(2) 0.1148(1) 0.9272(2) 1. 0 0 
O11 O2- 2 i 0.8876(2) 0.0453(1) 0.1425(2) 1. 0 0 
O12 O2- 2 i 0.7246(2) 0.2192(1) 0.3387(2) 1. 0 0 
O13 O2- 2 i 0.7415(2) 0.3950(1) 0.1071(2) 1. 0 0 
O14 O2- 2 i 0.9268(2) 0.2267(1) 0.9257(2) 1. 0 0 
O15 O2- 2 i 0.3975(2) 0.1503(1) 0.2039(2) 1. 0 0 
O16 O2- 2 i 0.8919(2) 0.4104(1) 0.6640(2) 1. 0 0 
H1 H1+ 2 i 0.077(3) 0.413(2) 0.346(3) 1. 0 0.053(7) 
H2 H1+ 2 i 0.227(3) 0.907(3) 0.510(4) 1. 0 0.063(8) 
H3 H1+ 2 i 0.293(3) 0.366(3) 0.049(3) 1. 0 0.055(7) 
H4 H1+ 2 i 0.619(3) 0.520(2) 0.651(3) 1. 0 0.040(6) 
H5 H1+ 2 i 0.518(3) 0.127(2) 0.866(3) 1. 0 0.049(7) 
H6 H1+ 2 i 0.609(3) 0.028(3) 0.877(4) 1. 0 0.065(8) 
H7 H1+ 2 i 0.838(3) 0.987(3) 0.178(4) 1. 0 0.064(8) 
H8 H1+ 2 i 0.994(3) 0.059(2) 0.208(4) 1. 0 0.057(8) 
H9 H1+ 2 i 0.617(3) 0.211(2) 0.300(3) 1. 0 0.058(7) 
H10 H1+ 2 i 0.762(3) 0.291(3) 0.432(4) 1. 0 0.062(8) 
H11 H1+ 2 i 0.776(3) 0.475(3) 0.180(4) 1. 0 0.065(8) 
H12 H1+ 2 i 0.649(2) 0.390(2) 0.023(3) 1. 0 0.036(5) 
H13 H1+ 2 i 0.030(3) 0.250(3) 0.947(4) 1. 0 0.058(8) 
H14 H1+ 2 i 0.883(3) 0.169(3) 0.823(4) 1. 0 0.059(8) 
H15 H1+ 2 i 0.340(3) 0.156(2) 0.268(3) 1. 0 0.050(7) 
H16 H1+ 2 i 0.357(3) 0.192(3) 0.133(4) 1. 0 0.064(8) 
H17 H1+ 2 i 0.975(3) 0.379(3) 0.665(4) 1. 0 0.060(8) 
H18 H1+ 2 i 0.858(3) 0.403(2) 0.755(3) 1. 0 0.050(7) 

loop_
_atom_site_aniso_label
_atom_site_aniso_type_symbol
_atom_site_aniso_U_11
_atom_site_aniso_U_22
_atom_site_aniso_U_33
_atom_site_aniso_U_12
_atom_site_aniso_U_13
_atom_site_aniso_U_23
Mg1 Mg2+ 0.0165(2) 0.0193(3) 0.0181(2) 0.0028(2) 0.0035(2) 0.0067(2)
B1 B3+ 0.0133(7) 0.0151(8) 0.0151(7) 0.0019(5) 0.0035(6) 0.0060(6)
B2 B3+ 0.0200(8) 0.0172(8) 0.0179(8) 0.0053(6) 0.0053(6) 0.0061(7)
B3 B3+ 0.0152(7) 0.0161(8) 0.0137(7) 0.0027(6) 0.0048(6) 0.0048(6)
B4 B3+ 0.0138(7) 0.0171(8) 0.0153(8) 0.0021(6) 0.0053(6) 0.0043(6)
O1 O2- 0.0207(5) 0.0159(5) 0.0144(5) 0.0045(4) 0.0050(4) 0.0060(4)
O2 O2- 0.0236(5) 0.0148(5) 0.0149(5) 0.0042(4) 0.0049(4) 0.0055(4)
O3 O2- 0.0127(5) 0.0231(6) 0.0149(5) 0.0001(4) 0.0025(4) 0.0067(4)
O4 O2- 0.0138(5) 0.0218(6) 0.0145(5) 0.0016(4) 0.0027(4) 0.0077(4)
O5 O2- 0.0124(4) 0.0180(5) 0.0152(5) 0.0043(4) 0.0052(4) 0.0064(4)
O6 O2- 0.0151(5) 0.0162(6) 0.0186(5) 0.0014(4) 0.0000(4) 0.0080(4)
O7 O2- 0.0595(9) 0.0163(6) 0.0194(6) 0.0091(6) 0.0082(6) 0.0055(5)
O8 O2- 0.0225(5) 0.0203(6) 0.0136(5) 0.0005(4) 0.0079(4) 0.0040(4)
O9 O2- 0.0163(5) 0.0279(6) 0.0158(5) 0.0056(4) 0.0037(4) 0.0080(5)
O10 O2- 0.0183(6) 0.0251(7) 0.0304(7) 0.0054(5) 0.0019(5) 0.0025(6)
O11 O2- 0.0198(6) 0.0211(6) 0.0311(7) 0.0028(5) 0.0040(5) 0.0104(5)
O12 O2- 0.0204(6) 0.0269(7) 0.0236(6) 0.0029(5) 0.0072(5) 0.0066(5)
O13 O2- 0.0274(7) 0.0221(7) 0.0311(7) 0.0093(5) 0.0044(5) 0.0052(6)
O14 O2- 0.0237(6) 0.0336(7) 0.0199(6) 0.0012(5) 0.0090(5) 0.0035(6)
O15 O2- 0.0226(6) 0.0298(7) 0.0260(7) 0.0080(5) 0.0112(5) 0.0093(6)
O16 O2- 0.0252(6) 0.0255(6) 0.0359(7) 0.0105(5) 0.0143(6) 0.0110(6)
#End of data_10423-ICSD


