data_1945-ICSD
#?2014 by Fachinformationszentrum Karlsruhe, and the U.S. Secretary of 
#Commerce on behalf of the United States.  All rights reserved.
_database_code_ICSD                1945
_audit_creation_date               1980/01/01
_audit_update_record               2012/02/01
_chemical_name_systematic
;
Trizinc Bis(phosphate(V)) Tetrahydrate
;
_chemical_formula_structural       'Zn3 (P O4)2 (H2 O)4'
_chemical_formula_sum              'H8 O12 P2 Zn3'
_chemical_name_mineral             Hopeite
_publ_section_title
;
The crystal structure of hopeite, Zn3 (P O4)2 (H2 O)4
;
loop_
_citation_id
_citation_journal_abbrev
_citation_year
_citation_journal_volume
_citation_page_first
_citation_page_last
_citation_journal_id_ASTM
primary 'Acta Crystallographica B (24,1968-38,1982)' 1975 31 2026 2035 ACBCAR
_publ_author_name                  'Whitaker, A.'
_cell_length_a                     10.629(2)
_cell_length_b                     18.3390(30)
_cell_length_c                     5.040(1)
_cell_angle_alpha                  90.
_cell_angle_beta                   90.
_cell_angle_gamma                  90.
_cell_volume                       982.42
_cell_formula_units_Z              4
_symmetry_space_group_name_H-M     'P n m a'
_symmetry_Int_Tables_number        62
_refine_ls_R_factor_all            .068
loop_
_symmetry_equiv_pos_site_id
_symmetry_equiv_pos_as_xyz
  1	'x+.5, y, -z+.5'
  2	'x, -y+.5, z'
  3	'-x+.5, y+.5, z+.5'
  4	'-x, -y, -z'
  5	'-x+.5, -y, z+.5'
  6	'-x, y+.5, -z'
  7	'x+.5, -y+.5, -z+.5'
  8	'x, y, z'
loop_
_atom_type_symbol
_atom_type_oxidation_number
H1+	1
O2-	-2
P5+	5
Zn2+	2
loop_
_atom_site_label
_atom_site_type_symbol
_atom_site_symmetry_multiplicity
_atom_site_Wyckoff_symbol
_atom_site_fract_x
_atom_site_fract_y
_atom_site_fract_z
_atom_site_occupancy
_atom_site_attached_hydrogens
_atom_site_B_iso_or_equiv
Zn1 Zn2+ 4 c 0.23618(13) 0.25 0.57284(29) 1. 0 0 
Zn2 Zn2+ 8 d 0.14267(7) -.00087(5) 0.20768(16) 1. 0 0 
P1 P5+ 8 d 0.10285(16) 0.09421(4) 0.72589(35) 1. 0 0 
O1 O2- 4 c 0.10737(75) 0.25 0.2573(14) 1. 0 0 
O2 O2- 4 c 0.38614(73) 0.25 0.8490(18) 1. 0 0 
O3 O2- 8 d 0.33521(57) 0.16977(35) 0.3392(13) 1. 0 0 
O4 O2- 8 d 0.14010(26) 0.17265(30) 0.7846(11) 1. 0 0 
O5 O2- 8 d 0.10004(69) 0.07994(33) 0.4298(11) 1. 0 0 
O6 O2- 8 d 0.47552(46) 0.07867(29) 0.6414(12) 1. 0 0 
O7 O2- 8 d 0.19496(45) 0.04067(28) 0.8607(10) 1. 0 0 
H1 H1+ 8 d 0.122(21) 0.188(12) 0.121(46) 1. 0 4. 
H2 H1+ 8 d 0.456(21) 0.198(11) 0.792(48) 1. 0 4. 
H3 H1+ 8 d 0.233(21) 0.134(12) 0.248(50) 1. 0 4. 
H4 H1+ 8 d 0.396(21) 0.136(12) 0.493(48) 1. 0 4. 

#End of data_1945-ICSD


