data_14360-ICSD
#?2014 by Fachinformationszentrum Karlsruhe, and the U.S. Secretary of 
#Commerce on behalf of the United States.  All rights reserved.
_database_code_ICSD                14360
_audit_creation_date               1986/10/02
_audit_update_record               2006/04/01
_chemical_name_systematic          'Dilithium Tetrafluoroberyllate'
_chemical_formula_structural       'Li2 (Be F4)'
_chemical_formula_sum              'Be1 F4 Li2'
_publ_section_title
;
Refinement of the crystal structure of Li2 Be F4
;
loop_
_citation_id
_citation_journal_abbrev
_citation_year
_citation_journal_volume
_citation_page_first
_citation_page_last
_citation_journal_id_ASTM
primary 'Acta Crystallographica (1,1948-23,1967)' 1966 20 135 138 ACCRA9
2 'Golden Book of Phase Transitions, Wroclaw' 2002 1 1 123 GBOPT5
_publ_author_name                  'Burns, J.H.;Gordon, E.K.'
_cell_length_a                     13.29(1)
_cell_length_b                     13.29(1)
_cell_length_c                     8.91(1)
_cell_angle_alpha                  90.
_cell_angle_beta                   90.
_cell_angle_gamma                  120.
_cell_volume                       1362.88
_cell_formula_units_Z              18
_symmetry_space_group_name_H-M     'R -3 H'
_symmetry_Int_Tables_number        148
_refine_ls_R_factor_all            .025
loop_
_symmetry_equiv_pos_site_id
_symmetry_equiv_pos_as_xyz
  1	'x-y, x, -z'
  2	'y, -x+y, -z'
  3	'-x, -y, -z'
  4	'-x+y, -x, z'
  5	'-y, x-y, z'
  6	'x, y, z'
  7	'x-y+.6666, x+.3333, -z+.3333'
  8	'x-y+.3333, x+.6666, -z+.6666'
  9	'y+.6666, -x+y+.3333, -z+.3333'
 10	'y+.3333, -x+y+.6666, -z+.6666'
 11	'-x+.6666, -y+.3333, -z+.3333'
 12	'-x+.3333, -y+.6666, -z+.6666'
 13	'-x+y+.6666, -x+.3333, z+.3333'
 14	'-x+y+.3333, -x+.6666, z+.6666'
 15	'-y+.6666, x-y+.3333, z+.3333'
 16	'-y+.3333, x-y+.6666, z+.6666'
 17	'x+.6666, y+.3333, z+.3333'
 18	'x+.3333, y+.6666, z+.6666'
loop_
_atom_type_symbol
_atom_type_oxidation_number
Be2+	2
F1-	-1
Li1+	1
loop_
_atom_site_label
_atom_site_type_symbol
_atom_site_symmetry_multiplicity
_atom_site_Wyckoff_symbol
_atom_site_fract_x
_atom_site_fract_y
_atom_site_fract_z
_atom_site_occupancy
_atom_site_attached_hydrogens
Li1 Li1+ 18 f -.02153(8) -.21540(8) 0.58160(11) 1. 0 
Li2 Li1+ 18 f -.01634(8) -.20734(8) -.0849(1) 1. 0 
Be1 Be2+ 18 f -.01546(5) -.21169(5) 0.24927(7) 1. 0 
F1 F1- 18 f 0.11055(3) -.10576(3) 0.25193(3) 1. 0 
F2 F1- 18 f -.00590(3) -.32318(2) 0.24859(4) 1. 0 
F3 F1- 18 f -.07496(3) -.20347(3) 0.10408(3) 1. 0 
F4 F1- 18 f -.08185(3) -.20918(3) 0.39227(3) 1. 0 

#End of data_14360-ICSD


