data_89506-ICSD
#?2014 by Fachinformationszentrum Karlsruhe, and the U.S. Secretary of 
#Commerce on behalf of the United States.  All rights reserved.
_database_code_ICSD                89506
_audit_creation_date               2002/04/01
_chemical_name_systematic          'Potassium Manganate(VII)'
_chemical_formula_structural       'K (Mn O4)'
_chemical_formula_sum              'K1 Mn1 O4'
_publ_section_title
;
Zur Kenntnis von Oxyden A (M O4): Ueber Li Mn O4, K Mn O4, Rb Mn O4, 
Cs Mn O4 sowie Rb I O4 und Cs I O4. (-Was heisst eigentlich "Die 
Kristallstruktur von..."?-)
;
loop_
_citation_id
_citation_journal_abbrev
_citation_year
_citation_journal_volume
_citation_page_first
_citation_page_last
_citation_journal_id_ASTM
primary 'Zeitschrift fuer Anorganische und Allgemeine Chemie (1950) (DE)'
 1999 625 1135 1142 ZAACAB
_publ_author_name
;
Hoppe, R.;Fischer, D.;Schneider, J.
;
_cell_length_a                     9.128(1)
_cell_length_b                     5.728(1)
_cell_length_c                     7.436(1)
_cell_angle_alpha                  90.
_cell_angle_beta                   90.
_cell_angle_gamma                  90.
_cell_volume                       388.79
_cell_formula_units_Z              4
_symmetry_space_group_name_H-M     'P n m a'
_symmetry_Int_Tables_number        62
_refine_ls_R_factor_all            .043
loop_
_symmetry_equiv_pos_site_id
_symmetry_equiv_pos_as_xyz
  1	'x+.5, y, -z+.5'
  2	'x, -y+.5, z'
  3	'-x+.5, y+.5, z+.5'
  4	'-x, -y, -z'
  5	'-x+.5, -y, z+.5'
  6	'-x, y+.5, -z'
  7	'x+.5, -y+.5, -z+.5'
  8	'x, y, z'
loop_
_atom_type_symbol
_atom_type_oxidation_number
K1+	1
Mn7+	7
O2-	-2
loop_
_atom_site_label
_atom_site_type_symbol
_atom_site_symmetry_multiplicity
_atom_site_Wyckoff_symbol
_atom_site_fract_x
_atom_site_fract_y
_atom_site_fract_z
_atom_site_occupancy
_atom_site_attached_hydrogens
K1 K1+ 4 c 0.3183(1) 0.25 0.6588(1) 1. 0 
Mn1 Mn7+ 4 c 0.4384(1) 0.25 0.1916(1) 1. 0 
O1 O2- 4 c 0.3141(4) 0.25 0.0402(4) 1. 0 
O2 O2- 4 c 0.5969(3) 0.25 0.1023(5) 1. 0 
O3 O2- 8 d 0.4199(2) 0.0209(3) 0.3149(2) 1. 0 

loop_
_atom_site_aniso_label
_atom_site_aniso_type_symbol
_atom_site_aniso_U_11
_atom_site_aniso_U_22
_atom_site_aniso_U_33
_atom_site_aniso_U_12
_atom_site_aniso_U_13
_atom_site_aniso_U_23
K1 K1+ 0.0286(4) 0.0503(5) 0.0325(4) 0 -.0010(3) 0
Mn1 Mn7+ 0.0248(2) 0.0291(2) 0.0238(2) 0 0.0002(2) 0
O1 O2- 0.0583(21) 0.0636(19) 0.0400(13) 0 -.0225(15) 0
O2 O2- 0.0388(19) 0.0792(23) 0.0710(22) 0 0.0232(15) 0
O3 O2- 0.0480(12) 0.0357(9) 0.0446(10) 0.0007(9) -.0051(10) 0.0094(8)
#End of data_89506-ICSD


