data_35252-ICSD
#?2014 by Fachinformationszentrum Karlsruhe, and the U.S. Secretary of 
#Commerce on behalf of the United States.  All rights reserved.
_database_code_ICSD                35252
_audit_creation_date               1982/12/31
_chemical_name_systematic          '16-lithium Tetraniobium Oxide'
_chemical_formula_structural       'Li16 Nb4 O18'
_chemical_formula_sum              'Li16 Nb4 O18'
_publ_section_title                'Zur Kenntnis von Li16 Nb4 O18'
loop_
_citation_id
_citation_journal_abbrev
_citation_year
_citation_journal_volume
_citation_page_first
_citation_page_last
_citation_journal_id_ASTM
primary 'Zeitschrift fuer Anorganische und Allgemeine Chemie (1950) (DE)'
 1982 493 7 16 ZAACAB
_publ_author_name                  'Braun, R.M.;Hoppe, R.'
_cell_length_a                     15.21
_cell_length_b                     8.815
_cell_length_c                     5.858
_cell_angle_alpha                  109.8
_cell_angle_beta                   101.4
_cell_angle_gamma                  87.
_cell_volume                       724.31
_cell_formula_units_Z              2
_symmetry_space_group_name_H-M     'P -1'
_symmetry_Int_Tables_number        2
_refine_ls_R_factor_all            .0567
loop_
_symmetry_equiv_pos_site_id
_symmetry_equiv_pos_as_xyz
  1	'-x, -y, -z'
  2	'x, y, z'
loop_
_atom_type_symbol
_atom_type_oxidation_number
Li1+	1
Nb5+	5
O2-	-2
loop_
_atom_site_label
_atom_site_type_symbol
_atom_site_symmetry_multiplicity
_atom_site_Wyckoff_symbol
_atom_site_fract_x
_atom_site_fract_y
_atom_site_fract_z
_atom_site_occupancy
_atom_site_attached_hydrogens
_atom_site_U_iso_or_equiv
Li1 Li1+ 2 i 0.3542(22) 0.8989(34) 0.7628(42) 1. 0 0.0152(45) 
Li2 Li1+ 2 i 0.1499(23) 0.8425(34) 0.1317(43) 1. 0 0.0206(47) 
Li3 Li1+ 2 i 0.3383(23) 0.3346(34) 0.4701(43) 1. 0 0.0193(46) 
Li4 Li1+ 2 i 0.1522(24) 0.4138(37) 0.4214(44) 1. 0 0.0283(47) 
Li5 Li1+ 2 i 0.2625(24) 0.1258(36) 0.0566(44) 1. 0 0.0197(46) 
Li6 Li1+ 2 i 0.2605(25) 0.1233(36) 0.5946(44) 1. 0 0.0242(47) 
Li7 Li1+ 2 i 0.2438(25) 0.6253(37) 0.3004(44) 1. 0 0.0196(46) 
Li8 Li1+ 2 i 0.2377(25) 0.6220(37) 0.8338(45) 1. 0 0.0266(47) 
Li9 Li1+ 2 i 0.0393(24) 0.1268(35) 0.4655(44) 1. 0 0.0194(46) 
Li10 Li1+ 2 i 0.0267(24) 0.1203(36) 0.9404(44) 1. 0 0.0262(47) 
Li11 Li1+ 2 i 0.0544(24) 0.6249(36) 0.2255(44) 1. 0 0.0198(46) 
Li12 Li1+ 2 i 0.0374(25) 0.6294(37) 0.7190(45) 1. 0 0.0307(48) 
Li13 Li1+ 2 i 0.4587(24) 0.1298(35) 0.1681(43) 1. 0 0.0161(46) 
Li14 Li1+ 2 i 0.4505(26) 0.1229(37) 0.6543(45) 1. 0 0.0356(48) 
Li15 Li1+ 2 i 0.4722(23) 0.6216(35) 0.4132(43) 1. 0 0.0193(47) 
Li16 Li1+ 2 i 0.4554(23) 0.6259(35) 0.9343(43) 1. 0 0.0166(46) 
Nb1 Nb5+ 2 i 0.3548(1) 0.8758(2) 0.2481(3) 1. 0 0 
Nb2 Nb5+ 2 i 0.1503(1) 0.8736(2) 0.6445(3) 1. 0 0 
Nb3 Nb5+ 2 i 0.3565(1) 0.3753(2) 0.9974(3) 1. 0 0 
Nb4 Nb5+ 2 i 0.1388(1) 0.3727(2) 0.8826(3) 1. 0 0 
O1 O2- 2 i 0.2463(9) 0.8775(16) 0.9452(23) 1. 0 0 
O2 O2- 2 i 0.2507(9) 0.8761(15) 0.4449(21) 1. 0 0 
O3 O2- 2 i 0.3434(7) 0.6274(11) 0.1112(17) 1. 0 0 
O4 O2- 2 i 0.1590(7) 0.1232(14) 0.7640(23) 1. 0 0 
O5 O2- 2 i 0.2454(9) 0.3777(17) 0.7167(22) 1. 0 0 
O6 O2- 2 i 0.2476(10) 0.3765(16) 0.1817(21) 1. 0 0 
O7 O2- 2 i 0.4441(9) 0.8620(16) 0.5079(22) 1. 0 0 
O8 O2- 2 i 0.4411(8) 0.8642(14) 0.0361(21) 1. 0 0 
O9 O2- 2 i 0.3462(7) 0.1079(13) 0.3544(17) 1. 0 0 
O10 O2- 2 i 0.0619(7) 0.8857(13) 0.8356(19) 1. 0 0 
O11 O2- 2 i 0.0648(8) 0.8842(13) 0.3578(19) 1. 0 0 
O12 O2- 2 i 0.1588(8) 0.6465(13) 0.5278(22) 1. 0 0 
O13 O2- 2 i 0.4374(8) 0.3876(14) 0.7891(22) 1. 0 0 
O14 O2- 2 i 0.4447(9) 0.3883(14) 0.2844(23) 1. 0 0 
O15 O2- 2 i 0.3575(7) 0.1430(12) 0.8762(17) 1. 0 0 
O16 O2- 2 i 0.0616(8) 0.3555(15) 0.0744(20) 1. 0 0 
O17 O2- 2 i 0.0580(8) 0.3644(15) 0.5861(20) 1. 0 0 
O18 O2- 2 i 0.1420(8) 0.6019(15) 0.9999(23) 1. 0 0 

loop_
_atom_site_aniso_label
_atom_site_aniso_type_symbol
_atom_site_aniso_U_11
_atom_site_aniso_U_22
_atom_site_aniso_U_33
_atom_site_aniso_U_12
_atom_site_aniso_U_13
_atom_site_aniso_U_23
Nb1 Nb5+ 0.0040(7) 0.0048(8) 0.0052(8) -.0005(6) 0.0008(6) 0.0018(6)
Nb2 Nb5+ 0.0033(7) 0.0032(7) 0.0033(7) -.0011(5) 0.0004(6) 0.0005(6)
Nb3 Nb5+ 0.0037(7) 0.0068(7) 0.0046(8) 0.0014(5) 0.0019(6) 0.0024(6)
Nb4 Nb5+ 0.0030(7) 0.0047(8) 0.0060(8) -.0017(6) -.0011(6) 0.0012(7)
O1 O2- 0.0213(35) 0.0266(36) 0.0451(39) 0.0030(31) 0.0069(33) 0.0054(34)
O2 O2- 0.0405(38) 0.0266(36) 0.0294(37) -.0048(33) 0.0113(34) -.0012(33)
O3 O2- 0.0323(37) 0.0317(38) 0.0196(37) 0.0015(34) -.0022(34) 0.0039(34)
O4 O2- 0.0315(39) 0.0470(41) 0.0795(44) 0.0039(37) 0.0078(39) 0.0263(39)
O5 O2- 0.0275(37) 0.0527(40) 0.0412(39) -.0055(35) 0.0123(35) 0.0209(35)
O6 O2- 0.0385(38) 0.0372(38) 0.0324(38) -.0034(34) 0.0006(35) 0.0164(33)
O7 O2- 0.0374(40) 0.0469(41) 0.0491(41) -.0008(37) -.0062(37) 0.0168(37)
O8 O2- 0.0369(40) 0.0339(38) 0.0454(40) -.0015(36) -.0081(37) 0.0144(35)
O9 O2- 0.0515(39) 0.0220(35) 0.0063(34) 0.0027(34) 0.0081(33) 0.0043(30)
O10 O2- 0.0169(34) 0.0347(38) 0.0334(38) 0.0037(32) 0.0118(32) 0.0082(34)
O11 O2- 0.0334(37) 0.0322(38) 0.0174(36) 0.0052(34) 0.0023(33) 0.0045(33)
O12 O2- 0.0431(40) 0.0261(38) 0.0579(42) -.0184(35) 0.0024(38) 0.0059(36)
O13 O2- 0.0446(40) 0.0250(38) 0.0487(41) -.0230(35) 0.0096(37) 0.0001(36)
O14 O2- 0.0460(39) 0.0260(38) 0.0425(40) -.0243(35) 0.0098(36) -.0014(35)
O15 O2- 0.0386(39) 0.0311(37) 0.0176(36) -.0028(34) 0.0125(33) 0.0149(31)
O16 O2- 0.0342(37) 0.0598(40) 0.0338(37) 0.0257(25) 0.0216(33) 0.0320(33)
O17 O2- 0.0353(37) 0.0508(39) 0.0278(37) 0.0185(35) 0.0111(33) 0.0285(33)
O18 O2- 0.0330(38) 0.0374(39) 0.0588(42) -.0030(35) 0.0117(37) 0.0086(37)
#End of data_35252-ICSD


