data_415569-ICSD
#?2014 by Fachinformationszentrum Karlsruhe, and the U.S. Secretary of 
#Commerce on behalf of the United States.  All rights reserved.
_database_code_ICSD                415569
_audit_creation_date               2007/04/01
_chemical_name_systematic
;
Dirubidium Magnesium Tungsten Dioxide Bis(phosphate)
;
_chemical_formula_structural       'Rb2 Mg W O2 (P O4)2'
_chemical_formula_sum              'Mg1 O10 P2 Rb2 W1'
_publ_section_title
;
Crystal structure and vibrational properties of Rb2 Mg W O2 (P O4)2 - 
A new framework phosphate
;
loop_
_citation_id
_citation_journal_abbrev
_citation_year
_citation_journal_volume
_citation_journal_issue
_citation_page_first
_citation_page_last
_citation_journal_id_ASTM
primary 'Journal of Solid State Chemistry' 2006 179 1 103 110 JSSCBI
_publ_author_name
;
Maczka, M.;Waskowska, A.;Hanuza, J.
;
_cell_length_a                     9.891(2)
_cell_length_b                     12.641(3)
_cell_length_c                     15.338(3)
_cell_angle_alpha                  90.00
_cell_angle_beta                   90.00
_cell_angle_gamma                  90.00
_cell_volume                       1917.74
_cell_formula_units_Z              8
_symmetry_space_group_name_H-M     'P b c a'
_symmetry_Int_Tables_number        61
_refine_ls_R_factor_all            .0485
loop_
_symmetry_equiv_pos_site_id
_symmetry_equiv_pos_as_xyz
  1	'x+.5, y, -z+.5'
  2	'x, -y+.5, z+.5'
  3	'-x+.5, y+.5, z'
  4	'-x, -y, -z'
  5	'-x+.5, -y, z+.5'
  6	'-x, y+.5, -z+.5'
  7	'x+.5, -y+.5, -z'
  8	'x, y, z'
loop_
_atom_type_symbol
_atom_type_oxidation_number
Mg2+	2
O2-	-2
P5+	5
Rb1+	1
W6+	6
loop_
_atom_site_label
_atom_site_type_symbol
_atom_site_symmetry_multiplicity
_atom_site_Wyckoff_symbol
_atom_site_fract_x
_atom_site_fract_y
_atom_site_fract_z
_atom_site_occupancy
_atom_site_attached_hydrogens
_atom_site_U_iso_or_equiv
W1 W6+ 8 c 0.748281(15) 0.507208(9) 0.358012(9) 1 0 0.00471(4) 
Rb1 Rb1+ 8 c 0.88954(5) 0.67368(3) 0.15703(3) 1 0 0.02658(11) 
Rb2 Rb1+ 8 c 0.39057(5) 0.36607(4) 0.38619(4) 1 0 0.03789(15) 
Mg1 Mg2+ 8 c 0.99980(14) 0.63090(9) 0.50271(9) 1 0 0.0073(2) 
P1 P5+ 8 c 0.75790(11) 0.75601(7) 0.40547(6) 1 0 0.00623(17) 
P2 P5+ 8 c 1.07525(9) 0.50495(7) 0.33417(7) 1 0 0.00631(18) 
O1 O2- 8 c 0.8748(3) 0.75017(18) 0.46755(19) 1 0 0.0130(6) 
O2 O2- 8 c 0.6231(3) 0.75709(18) 0.44954(19) 1 0 0.0122(6) 
O3 O2- 8 c 0.7676(3) 0.66142(17) 0.34006(17) 1 0 0.0107(6) 
O4 O2- 8 c 0.7722(3) 0.85301(18) 0.34271(17) 1 0 0.0129(6) 
O5 O2- 8 c 1.0889(3) 0.60635(19) 0.38752(18) 1 0 0.0101(6) 
O6 O2- 8 c 1.0975(3) 0.40371(19) 0.38718(19) 1 0 0.0115(6) 
O7 O2- 8 c 1.1921(2) 0.50923(19) 0.26516(18) 1 0 0.0106(5) 
O8 O2- 8 c 0.9386(2) 0.50066(19) 0.28442(17) 1 0 0.0089(5) 
O9 O2- 8 c 0.8542(2) 0.4998(2) 0.45010(18) 1 0 0.0117(6) 
O10 O2- 8 c 0.5924(3) 0.52148(19) 0.40695(19) 1 0 0.0151(6) 

loop_
_atom_site_aniso_label
_atom_site_aniso_type_symbol
_atom_site_aniso_U_11
_atom_site_aniso_U_22
_atom_site_aniso_U_33
_atom_site_aniso_U_12
_atom_site_aniso_U_13
_atom_site_aniso_U_23
W1 W6+ 0.00587(6) 0.00379(6) 0.00448(6) -0.00011(6) -0.00023(7) 0.00006(5)
Rb1 Rb1+ 0.0262(2) 0.0208(2) 0.0328(3) 0.00430(17) 0.0093(2) 0.0129(2)
Rb2 Rb1+ 0.0170(2) 0.0333(2) 0.0634(4) -0.0045(2) -0.0072(3) 0.0274(3)
Mg1 Mg2+ 0.0097(6) 0.0065(5) 0.0056(6) 0.0000(5) 0.0014(5) 0.0000(5)
P1 P5+ 0.0078(4) 0.0041(3) 0.0067(4) 0.0004(4) 0.0001(5) 0.0002(3)
P2 P5+ 0.0066(4) 0.0073(4) 0.0050(4) 0.0003(4) 0.0006(4) 0.0005(4)
O1 O2- 0.0150(15) 0.0056(12) 0.0184(15) 0.0020(11) -0.0046(14) -0.0026(11)
O2 O2- 0.0098(14) 0.0063(12) 0.0206(16) 0.0017(10) 0.0019(13) 0.0022(11)
O3 O2- 0.0194(16) 0.0026(10) 0.0101(14) 0.0017(10) 0.0016(13) -0.0021(9)
O4 O2- 0.0221(17) 0.0085(11) 0.0083(14) 0.0010(11) 0.0036(13) 0.0009(10)
O5 O2- 0.0146(15) 0.0090(12) 0.0067(14) -0.0011(11) 0.0019(12) -0.0052(11)
O6 O2- 0.0127(14) 0.0110(12) 0.0106(15) -0.0010(12) 0.0018(13) 0.0050(11)
O7 O2- 0.0094(12) 0.0151(13) 0.0072(13) -0.0008(11) 0.0018(11) -0.0004(12)
O8 O2- 0.0075(11) 0.0113(12) 0.0079(12) -0.0004(11) -0.0013(11) 0.0014(12)
O9 O2- 0.0077(12) 0.0160(13) 0.0114(14) -0.0023(11) 0.0020(11) -0.0018(12)
O10 O2- 0.0134(14) 0.0127(13) 0.0192(17) -0.0014(11) 0.0046(13) -0.0004(11)
#End of data_415569-ICSD


