data_236334-ICSD
#?2014 by Fachinformationszentrum Karlsruhe, and the U.S. Secretary of 
#Commerce on behalf of the United States.  All rights reserved.
_database_code_ICSD                236334
_audit_creation_date               2014/02/01
_chemical_name_systematic
;
Hexaaquamagnesium(II) Sulfate(VI) Pentahydrate
;
_chemical_formula_structural       '(Mg (H2 O)6) (S O4) (H2 O)5'
_chemical_formula_sum              'H22 Mg1 O15 S1'
_publ_section_title
;
Mg S O4 * 11 H2 O and Mg Cr O4 * 11 H2 O based on time-of-flight 
neutron single-crystal Laue data
;
loop_
_citation_id
_citation_journal_abbrev
_citation_year
_citation_journal_volume
_citation_journal_issue
_citation_page_first
_citation_page_last
_citation_journal_id_ASTM
primary 'Acta Crystallographica, Section C: Crystal Structure Communications'
 2013 69 4 324 329 ACSCEE
_publ_author_name
;
Fortes, A.Dominic;Wood, Ian G.;Gutmann, Matthias J.
;
_cell_length_a                     6.7283(13)
_cell_length_b                     6.7839(14)
_cell_length_c                     17.332(4)
_cell_angle_alpha                  88.181(13)
_cell_angle_beta                   89.349(14)
_cell_angle_gamma                  62.515(12)
_cell_volume                       701.45
_cell_formula_units_Z              2
_symmetry_space_group_name_H-M     'P -1'
_symmetry_Int_Tables_number        2
_refine_ls_R_factor_all            .0668
loop_
_symmetry_equiv_pos_site_id
_symmetry_equiv_pos_as_xyz
  1	'-x, -y, -z'
  2	'x, y, z'
loop_
_atom_type_symbol
_atom_type_oxidation_number
H1+	1
Mg2+	2
O2-	-2
S6+	6
loop_
_atom_site_label
_atom_site_type_symbol
_atom_site_symmetry_multiplicity
_atom_site_Wyckoff_symbol
_atom_site_fract_x
_atom_site_fract_y
_atom_site_fract_z
_atom_site_occupancy
_atom_site_attached_hydrogens
_atom_site_U_iso_or_equiv
Mg1 Mg2+ 1 a 1.0000 0.0000 0.0000 1 0 0.00309(17) 
O1 O2- 2 i 0.65691(14) 0.17344(16) 0.00821(6) 1 0 0.00641(14) 
H1 H1+ 2 i 0.5556(4) 0.2338(5) 0.05090(16) 1 0 0.0226(5) 
H2 H1+ 2 i 0.5648(4) 0.1897(4) -0.03695(15) 1 0 0.0195(4) 
O2 O2- 2 i 0.99062(15) -0.26902(14) 0.05542(7) 1 0 0.00605(14) 
H3 H1+ 2 i 1.1165(4) -0.4050(4) 0.07339(18) 1 0 0.0214(4) 
H4 H1+ 2 i 0.8563(3) -0.2707(4) 0.07618(16) 1 0 0.0187(4) 
O3 O2- 2 i 1.04714(15) 0.11065(15) 0.10544(6) 1 0 0.00586(14) 
H5 H1+ 2 i 1.0430(5) 0.0428(4) 0.15481(15) 1 0 0.0210(4) 
H6 H1+ 2 i 1.1320(4) 0.1928(4) 0.11117(16) 1 0 0.0209(4) 
Mg2 Mg2+ 1 b 1.0000 0.0000 0.5000 1 0 0.00292(17) 
O4 O2- 2 i 1.15158(14) -0.11150(15) 0.39413(6) 1 0 0.00532(13) 
H7 H1+ 2 i 1.3000(3) -0.1225(4) 0.38388(15) 1 0 0.0181(4) 
H8 H1+ 2 i 1.0784(4) -0.0869(4) 0.34364(15) 1 0 0.0182(4) 
O5 O2- 2 i 0.80442(16) -0.15462(16) 0.48629(7) 1 0 0.00664(14) 
H9 H1+ 2 i 0.7715(4) -0.2430(4) 0.52506(16) 1 0 0.0200(4) 
H10 H1+ 2 i 0.7129(4) -0.1394(4) 0.44090(16) 1 0 0.0195(4) 
O6 O2- 2 i 0.75619(14) 0.28506(15) 0.44646(6) 1 0 0.00600(14) 
H11 H1+ 2 i 0.7997(4) 0.3342(4) 0.39855(16) 1 0 0.0192(4) 
H12 H1+ 2 i 0.6015(3) 0.3155(4) 0.43816(17) 1 0 0.0197(4) 
S1 S6+ 2 i 0.4053(2) 0.3200(3) 0.20064(11) 1 0 0.0020(2) 
O7 O2- 2 i 0.31690(14) 0.33018(14) 0.12243(6) 1 0 0.00443(13) 
O8 O2- 2 i 0.21813(14) 0.43819(14) 0.25486(6) 1 0 0.00484(13) 
O9 O2- 2 i 0.53006(14) 0.08315(14) 0.22698(6) 1 0 0.00493(13) 
O10 O2- 2 i 0.55692(14) 0.42090(15) 0.20021(6) 1 0 0.00561(14) 
O11 O2- 2 i 0.31115(15) 0.40412(15) 0.41252(6) 1 0 0.00597(14) 
H13 H1+ 2 i 0.2872(4) 0.4092(4) 0.35678(15) 1 0 0.0202(4) 
H14 H1+ 2 i 0.2379(4) 0.5584(4) 0.42643(19) 1 0 0.0246(5) 
O12 O2- 2 i 0.60549(15) -0.24763(15) 0.11976(6) 1 0 0.00598(14) 
H15 H1+ 2 i 0.5589(4) -0.1284(4) 0.15631(16) 1 0 0.0201(4) 
H16 H1+ 2 i 0.5906(4) -0.3698(4) 0.14565(17) 1 0 0.0205(4) 
O13 O2- 2 i 0.56102(15) -0.14706(15) 0.36038(6) 1 0 0.00562(13) 
H17 H1+ 2 i 0.5357(4) -0.0430(4) 0.31630(16) 1 0 0.0192(4) 
H18 H1+ 2 i 0.6588(4) -0.2941(3) 0.33980(16) 1 0 0.0185(4) 
O14 O2- 2 i 0.83217(15) 0.43812(16) 0.30797(6) 1 0 0.00604(14) 
H19 H1+ 2 i 0.7453(4) 0.4115(4) 0.26813(16) 1 0 0.0195(4) 
H20 H1+ 2 i 0.9726(4) 0.4156(4) 0.28472(16) 1 0 0.0204(4) 
O15 O2- 2 i 0.99540(15) -0.09053(15) 0.24597(7) 1 0 0.00620(14) 
H21 H1+ 2 i 1.0629(4) -0.2510(3) 0.24017(17) 1 0 0.0206(4) 
H22 H1+ 2 i 0.8344(3) -0.0324(4) 0.23867(16) 1 0 0.0194(4) 

loop_
_atom_site_aniso_label
_atom_site_aniso_type_symbol
_atom_site_aniso_U_11
_atom_site_aniso_U_22
_atom_site_aniso_U_33
_atom_site_aniso_U_12
_atom_site_aniso_U_13
_atom_site_aniso_U_23
Mg1 Mg2+ 0.0020(3) 0.0035(3) 0.0033(5) -0.0009(3) 0.0001(3) -0.0002(3)
O1 O2- 0.0027(2) 0.0092(3) 0.0057(4) -0.0014(2) 0.0003(2) -0.0013(3)
H1 H1+ 0.0161(8) 0.0311(11) 0.0151(11) -0.0058(7) 0.0073(7) -0.0080(9)
H2 H1+ 0.0150(7) 0.0279(10) 0.0139(10) -0.0082(7) -0.0035(6) -0.0019(8)
O2 O2- 0.0045(2) 0.0048(3) 0.0082(4) -0.0018(2) 0.0005(2) 0.0018(3)
H3 H1+ 0.0144(7) 0.0152(7) 0.0271(13) -0.0008(6) -0.0029(7) 0.0061(8)
H4 H1+ 0.0129(7) 0.0216(8) 0.0232(11) -0.0095(6) 0.0032(7) 0.0017(8)
O3 O2- 0.0066(3) 0.0083(3) 0.0041(4) -0.0047(2) 0.0004(2) -0.0009(3)
H5 H1+ 0.0291(10) 0.0277(10) 0.0111(10) -0.0177(9) -0.0008(8) 0.0050(8)
H6 H1+ 0.0261(10) 0.0261(9) 0.0195(12) -0.0198(8) -0.0014(8) -0.0010(9)
Mg2 Mg2+ 0.0026(3) 0.0031(3) 0.0031(5) -0.0014(3) 0.0000(3) -0.0003(3)
O4 O2- 0.0041(2) 0.0078(3) 0.0037(4) -0.0023(2) 0.0006(2) -0.0010(3)
H7 H1+ 0.0119(6) 0.0245(9) 0.0190(11) -0.0094(6) 0.0026(6) -0.0019(8)
H8 H1+ 0.0175(7) 0.0245(9) 0.0118(10) -0.0090(7) -0.0040(6) 0.0003(8)
O5 O2- 0.0078(3) 0.0094(3) 0.0055(4) -0.0064(2) -0.0016(3) 0.0015(3)
H9 H1+ 0.0257(9) 0.0248(9) 0.0159(11) -0.0174(8) 0.0001(8) 0.0056(8)
H10 H1+ 0.0201(8) 0.0251(9) 0.0159(11) -0.0127(7) -0.0071(7) 0.0012(8)
O6 O2- 0.0038(2) 0.0062(3) 0.0063(4) -0.0010(2) -0.0003(2) 0.0016(3)
H11 H1+ 0.0178(8) 0.0230(9) 0.0160(11) -0.0094(7) 0.0015(7) 0.0062(7)
H12 H1+ 0.0101(6) 0.0251(9) 0.0232(12) -0.0077(6) -0.0013(6) 0.0018(8)
S1 S6+ 0.0013(4) 0.0026(4) 0.0020(7) -0.0009(3) 0.0003(4) -0.0004(4)
O7 O2- 0.0042(2) 0.0060(3) 0.0030(4) -0.0022(2) -0.0009(2) -0.0006(2)
O8 O2- 0.0032(2) 0.0056(3) 0.0045(4) -0.0008(2) 0.0019(2) -0.0017(3)
O9 O2- 0.0047(2) 0.0032(2) 0.0056(4) -0.0007(2) -0.0003(2) 0.0007(2)
O10 O2- 0.0052(3) 0.0076(3) 0.0065(4) -0.0052(2) -0.0005(2) 0.0004(3)
O11 O2- 0.0059(3) 0.0057(3) 0.0061(4) -0.0025(2) 0.0002(2) -0.0001(3)
H13 H1+ 0.0231(9) 0.0258(9) 0.0101(10) -0.0100(8) -0.0006(7) 0.0000(8)
H14 H1+ 0.0251(10) 0.0139(7) 0.0304(15) -0.0050(7) 0.0027(9) -0.0081(9)
O12 O2- 0.0059(3) 0.0068(3) 0.0058(4) -0.0034(2) 0.0001(2) -0.0002(3)
H15 H1+ 0.0235(9) 0.0174(7) 0.0194(11) -0.0090(7) 0.0047(8) -0.0077(8)
H16 H1+ 0.0266(10) 0.0175(8) 0.0215(12) -0.0139(7) 0.0011(8) 0.0034(8)
O13 O2- 0.0052(3) 0.0072(3) 0.0044(4) -0.0028(2) 0.0003(2) -0.0002(3)
H17 H1+ 0.0214(8) 0.0179(8) 0.0168(11) -0.0080(7) -0.0004(7) 0.0056(7)
H18 H1+ 0.0181(7) 0.0137(7) 0.0200(11) -0.0040(6) 0.0023(7) -0.0036(7)
O14 O2- 0.0055(3) 0.0082(3) 0.0052(4) -0.0038(2) 0.0003(2) -0.0004(3)
H19 H1+ 0.0199(8) 0.0260(9) 0.0164(11) -0.0136(7) -0.0035(7) -0.0022(8)
H20 H1+ 0.0128(7) 0.0266(9) 0.0223(12) -0.0095(7) 0.0057(7) -0.0034(9)
O15 O2- 0.0053(3) 0.0065(3) 0.0061(4) -0.0021(2) -0.0003(2) -0.0001(3)
H21 H1+ 0.0206(8) 0.0120(6) 0.0256(13) -0.0043(6) 0.0013(8) -0.0044(8)
H22 H1+ 0.0106(6) 0.0215(8) 0.0228(12) -0.0047(6) -0.0010(6) 0.0002(8)
#End of data_236334-ICSD


