data_98549-ICSD
#?2014 by Fachinformationszentrum Karlsruhe, and the U.S. Secretary of 
#Commerce on behalf of the United States.  All rights reserved.
_database_code_ICSD                98549
_audit_creation_date               2005/04/01
_chemical_name_systematic
;
Disilver Dioxourano(VI)ditungstate(VI) - Alpha
;
_chemical_formula_structural       'Ag2 ((U O2) W2 O8)'
_chemical_formula_sum              'Ag2 O10 U1 W2'
_publ_section_title
;
A novel rigid uranyl tungstate sheet in the structures of Na2 ((U O2) 
W2 O8) and alpha- and beta-(Ag2 ((U O2) W2 O8))
;
loop_
_citation_id
_citation_journal_abbrev
_citation_year
_citation_journal_volume
_citation_page_first
_citation_page_last
_citation_journal_id_ASTM
primary 'Solid State Sciences' 2003 5 373 381 SSSCFJ
_publ_author_name                  'Krivovichev, S.V.;Burns, P.C.'
_cell_length_a                     8.4263(7)
_cell_length_b                     7.4897(7)
_cell_length_c                     12.927(1)
_cell_angle_alpha                  90
_cell_angle_beta                   95.443(2)
_cell_angle_gamma                  90
_cell_volume                       812.15
_cell_formula_units_Z              4
_symmetry_space_group_name_H-M     'P 1 21/c 1'
_symmetry_Int_Tables_number        14
_refine_ls_R_factor_all            .049
loop_
_symmetry_equiv_pos_site_id
_symmetry_equiv_pos_as_xyz
  1	'x, -y+.5, z+.5'
  2	'-x, -y, -z'
  3	'-x, y+.5, -z+.5'
  4	'x, y, z'
loop_
_atom_type_symbol
_atom_type_oxidation_number
Ag1+	1
O2-	-2
U6+	6
W6+	6
loop_
_atom_site_label
_atom_site_type_symbol
_atom_site_symmetry_multiplicity
_atom_site_Wyckoff_symbol
_atom_site_fract_x
_atom_site_fract_y
_atom_site_fract_z
_atom_site_occupancy
_atom_site_attached_hydrogens
_atom_site_U_iso_or_equiv
U1 U6+ 4 e 0.97265(5) 0.87848(6) 0.24811(3) 1. 0 0.0093(1) 
W1 W6+ 4 e 0.63013(5) 0.12946(6) 0.16650(4) 1. 0 0.0095(1) 
W2 W6+ 4 e 0.62865(6) 0.63028(6) 0.16460(4) 1. 0 0.0096(1) 
Ag1 Ag1+ 4 e 0.1951(1) 0.1165(2) 0.04991(8) 1. 0 0.0189(2) 
Ag2 Ag1+ 4 e 0.1981(1) 0.6313(2) 0.03882(8) 1. 0 0.0236(2) 
O1 O2- 4 e 0.8486(10) 0.6037(11) 0.2319(7) 1. 0 0.0133(17) 
O2 O2- 4 e 0.9604(11) 0.8819(12) 0.3882(7) 1. 0 0.0184(19) 
O3 O2- 4 e 0.9944(11) 0.8771(12) 0.1088(7) 1. 0 0.0164(18) 
O4 O2- 4 e 0.6845(10) 0.8781(11) 0.2014(7) 1. 0 0.0140(18) 
O5 O2- 4 e 0.8509(11) 0.1557(11) 0.2321(7) 1. 0 0.0148(18) 
O6 O2- 4 e 0.6649(11) 0.1100(14) 0.0380(7) 1. 0 0.020(2) 
O7 O2- 4 e 0.6258(11) 0.3780(11) 0.1661(7) 1. 0 0.0168(18) 
O8 O2- 4 e 0.4213(11) 0.0953(11) 0.1689(7) 1. 0 0.0137(18) 
O9 O2- 4 e 0.4179(11) 0.6599(11) 0.1644(7) 1. 0 0.0141(18) 
O10 O2- 4 e 0.6637(12) 0.6498(13) 0.0356(7) 1. 0 0.019(2) 

loop_
_atom_site_aniso_label
_atom_site_aniso_type_symbol
_atom_site_aniso_U_11
_atom_site_aniso_U_22
_atom_site_aniso_U_33
_atom_site_aniso_U_12
_atom_site_aniso_U_13
_atom_site_aniso_U_23
U1 U6+ .0066(2) .0089(2) .0126(2) -.0001(2) .0013(1) .0001(2)
W1 W6+ .0064(2) .0098(2) .0124(2) -.0001(2) .0009(1) -.0001(2)
W2 W6+ .0064(2) .0098(2) .0128(2) -.0001(2) .0012(1) .0003(2)
Ag1 Ag1+ .0153(5) .0244(5) .0168(5) .0019(4) .0004(3) -.0012(4)
Ag2 Ag1+ .0201(6) .0291(6) .0212(6) -.0046(5) -.0004(4) .0022(5)
O1 O2- .007(4) .012(4) .020(5) .000(3) -.001(3) .006(4)
O2 O2- .018(5) .022(5) .015(5) -.002(4) -.004(3) .003(4)
O3 O2- .017(5) .015(4) .017(5) -.001(4) .000(3) -.003(4)
O4 O2- .007(4) .006(4) .029(5) .004(3) .006(3) .000(4)
O5 O2- .008(4) .016(4) .019(5) .002(3) .000(3) -.003(4)
O6 O2- .012(5) .032(6) .017(5) .007(4) .004(3) .005(4)
O7 O2- .016(5) .016(4) .019(5) .003(4) .005(3) .003(4)
O8 O2- .018(5) .010(4) .013(4) .003(3) .002(3) .000(3)
O9 O2- .019(5) .013(4) .010(4) -.003(3) -.002(3) .001(3)
O10 O2- .028(6) .017(5) .012(5) .003(4) .006(4) .003(4)
#End of data_98549-ICSD


