data_82637-ICSD
#?2014 by Fachinformationszentrum Karlsruhe, and the U.S. Secretary of 
#Commerce on behalf of the United States.  All rights reserved.
_database_code_ICSD                82637
_audit_creation_date               1997/11/10
_audit_update_record               2007/04/01
_chemical_name_systematic
;
Pentapotassium Nonaselenodiargentotriarsenate(III)
;
_chemical_formula_structural       'K5 (Ag2 As3 Se9)'
_chemical_formula_sum              'Ag2 As3 K5 Se9'
_publ_section_title
;
Isolation of beta-Ag3 As Se3, (Me3 N H) (Ag3 As2 Se5), K5 Ag2 As3 
Se9, and K Ag3 As2 S5 : novel solid state silver thio- and 
selenoarsenates from solvento-thermal synthesis
;
loop_
_citation_id
_citation_journal_abbrev
_citation_year
_citation_journal_volume
_citation_page_first
_citation_page_last
_citation_journal_id_ASTM
primary 'Journal of Solid State Chemistry' 1996 127 186 201 JSSCBI
_publ_author_name                  'Kanatzidis, M.G.;Chou Junhong'
_cell_length_a                     12.599(2)
_cell_length_b                     12.607(3)
_cell_length_c                     14.067(3)
_cell_angle_alpha                  90.
_cell_angle_beta                   90.
_cell_angle_gamma                  90.
_cell_volume                       2234.34
_cell_formula_units_Z              4
_symmetry_space_group_name_H-M     'P n m a'
_symmetry_Int_Tables_number        62
_refine_ls_R_factor_all            .04
loop_
_symmetry_equiv_pos_site_id
_symmetry_equiv_pos_as_xyz
  1	'x+.5, y, -z+.5'
  2	'x, -y+.5, z'
  3	'-x+.5, y+.5, z+.5'
  4	'-x, -y, -z'
  5	'-x+.5, -y, z+.5'
  6	'-x, y+.5, -z'
  7	'x+.5, -y+.5, -z+.5'
  8	'x, y, z'
loop_
_atom_type_symbol
_atom_type_oxidation_number
Ag1+	1
As3+	3
As5+	5
K1+	1
Se2-	-2
loop_
_atom_site_label
_atom_site_type_symbol
_atom_site_symmetry_multiplicity
_atom_site_Wyckoff_symbol
_atom_site_fract_x
_atom_site_fract_y
_atom_site_fract_z
_atom_site_occupancy
_atom_site_attached_hydrogens
_atom_site_B_iso_or_equiv
Ag1 Ag1+ 8 d 0.2369(1) 0.0892(2) 0.7118(2) 1. 0 2.16(9) 
Se1 Se2- 4 c 0.3547(3) 0.75 0.5712(3) 1. 0 1.5(2) 
Se2 Se2- 4 c 0.2825(2) 0.25 0.8258(3) 1. 0 1.2(1) 
Se3 Se2- 8 d 0.0358(2) 0.0958(2) 0.6494(2) 1. 0 1.4(1) 
Se4 Se2- 8 d 0.2853(2) 0.8999(2) 0.7974(2) 1. 0 1.6(1) 
Se5 Se2- 4 c 0.0741(3) 0.75 0.6552(3) 1. 0 2.1(2) 
Se6 Se2- 8 d 0.3781(2) 0.1025(2) 0.5681(2) 1. 0 1.6(1) 
As1 As5+ 4 c 0.2481(2) 0.75 0.7051(3) 1. 0 1.1(1) 
As2 As3+ 4 c -.0365(2) 0.25 0.7165(2) 1. 0 0.9(1) 
As3 As3+ 4 c 0.4835(2) 0.25 0.6010(3) 1. 0 1.3(2) 
K1 K1+ 8 d 0.1787(4) -.0718(4) 0.4961(4) 1. 0 2.3(3) 
K2 K1+ 8 d 0.9796(4) 0.0801(4) 0.1694(4) 1. 0 2.2(2) 
K3 K1+ 4 c 0.1707(6) 0.25 0.4897(7) 1. 0 2.2(4) 

#End of data_82637-ICSD


