data_2234-ICSD
#?2014 by Fachinformationszentrum Karlsruhe, and the U.S. Secretary of 
#Commerce on behalf of the United States.  All rights reserved.
_database_code_ICSD                2234
_audit_creation_date               1980/01/01
_audit_update_record               2012/08/01
_chemical_name_systematic
;
Aluminium Tetrahydroxide Sulfate Heptahydrate
;
_chemical_formula_structural       'Al2 (O H)4 (H2 O)3 (S O4) (H2 O)4'
_chemical_formula_sum              'H18 Al2 O15 S1'
_chemical_name_mineral             Aluminite
_publ_section_title                'The crystal structure of aluminite'
loop_
_citation_id
_citation_journal_abbrev
_citation_year
_citation_journal_volume
_citation_page_first
_citation_page_last
_citation_journal_id_ASTM
primary 'Acta Crystallographica B (24,1968-38,1982)' 1978 34 2407 2412 ACBCAR
_publ_author_name                  'Sabelli, C.;Ferroni, T.'
_cell_length_a                     7.440(1)
_cell_length_b                     15.583(2)
_cell_length_c                     11.700(2)
_cell_angle_alpha                  90.
_cell_angle_beta                   110.18(2)
_cell_angle_gamma                  90.
_cell_volume                       1273.2
_cell_formula_units_Z              4
_symmetry_space_group_name_H-M     'P 1 21/c 1'
_symmetry_Int_Tables_number        14
_refine_ls_R_factor_all            .035
loop_
_symmetry_equiv_pos_site_id
_symmetry_equiv_pos_as_xyz
  1	'x, -y+.5, z+.5'
  2	'-x, -y, -z'
  3	'-x, y+.5, -z+.5'
  4	'x, y, z'
loop_
_atom_type_symbol
_atom_type_oxidation_number
Al3+	3
H1+	1
O2-	-2
S6+	6
loop_
_atom_site_label
_atom_site_type_symbol
_atom_site_symmetry_multiplicity
_atom_site_Wyckoff_symbol
_atom_site_fract_x
_atom_site_fract_y
_atom_site_fract_z
_atom_site_occupancy
_atom_site_attached_hydrogens
_atom_site_B_iso_or_equiv
S1 S6+ 4 e 0.70076(14) 0.37376(6) 0.93018(8) 1. 0 0 
Al1 Al3+ 4 e 0.65581(15) 0.45332(7) 0.47633(9) 1. 0 0 
Al2 Al3+ 4 e 0.07306(15) 0.46600(7) 0.62873(9) 1. 0 0 
O1 O2- 4 e 0.7166(4) 0.2878(2) 0.8897(3) 1. 0 0 
O2 O2- 4 e 0.5012(4) 0.3905(2) 0.9217(2) 1. 0 0 
O3 O2- 4 e 0.7539(4) 0.4342(2) 0.8525(2) 1. 0 0 
O4 O2- 4 e 0.8284(4) 0.3836(2) 0.0584(2) 1. 0 0 
O5 O2- 4 e 0.8713(3) 0.5403(1) 0.5230(2) 1. 0 0 
O6 O2- 4 e 0.7393(3) 0.4539(1) 0.3423(2) 1. 0 0 
O7 O2- 4 e 0.8684(3) 0.3947(1) 0.5778(2) 1. 0 0 
O8 O2- 4 e 0.4451(3) 0.5226(2) 0.4023(2) 1. 0 0 
O9 O2- 4 e 0.5257(4) 0.3487(2) 0.4235(2) 1. 0 0 
O10 O2- 4 e 0.2421(4) 0.3758(2) 0.7019(2) 1. 0 0 
O11 O2- 4 e 0.0346(4) 0.4930(2) 0.7774(2) 1. 0 0 
O12 O2- 4 e 0.8517(4) 0.2530(2) 0.7101(2) 1. 0 0 
O13 O2- 4 e 0.1782(4) 0.2181(2) 0.6079(3) 1. 0 0 
O14 O2- 4 e 0.1737(4) 0.3019(2) 0.4012(2) 1. 0 0 
O15 O2- 4 e 0.4317(4) 0.4095(2) 0.1035(2) 1. 0 0 
H1 H1+ 4 e 0.852(8) 0.588(4) 0.554(5) 1. 0 5. 
H2 H1+ 4 e 0.658(8) 0.440(3) 0.283(5) 1. 0 5. 
H3 H1+ 4 e 0.857(8) 0.350(4) 0.608(5) 1. 0 5. 
H4 H1+ 4 e 0.408(7) 0.541(3) 0.342(5) 1. 0 5. 
H5 H1+ 4 e 0.400(8) 0.334(3) 0.410(5) 1. 0 5. 
H6 H1+ 4 e 0.581(8) 0.298(4) 0.409(5) 1. 0 5. 
H7 H1+ 4 e 0.197(7) 0.319(3) 0.680(4) 1. 0 5. 
H8 H1+ 4 e 0.327(7) 0.378(3) 0.780(5) 1. 0 5. 
H9 H1+ 4 e 0.936(7) 0.472(3) 0.802(4) 1. 0 5. 
H10 H1+ 4 e 0.100(7) 0.533(3) 0.831(4) 1. 0 5. 
H11 H1+ 4 e 0.794(7) 0.263(3) 0.775(4) 1. 0 5. 
H12 H1+ 4 e 0.780(7) 0.218(3) 0.661(5) 1. 0 5. 
H13 H1+ 4 e 0.506(7) 0.185(3) 0.594(4) 1. 0 5. 
H14 H1+ 4 e 0.268(7) 0.181(3) 0.621(4) 1. 0 5. 
H15 H1+ 4 e 0.071(7) 0.279(3) 0.331(5) 1. 0 5. 
H16 H1+ 4 e 0.156(7) 0.275(3) 0.467(4) 1. 0 5. 
H17 H1+ 4 e 0.458(7) 0.405(3) 0.061(4) 1. 0 5. 
H18 H1+ 4 e 0.370(7) 0.466(3) 0.130(4) 1. 0 5. 

#End of data_2234-ICSD


