data_420443-ICSD
#?2014 by Fachinformationszentrum Karlsruhe, and the U.S. Secretary of 
#Commerce on behalf of the United States.  All rights reserved.
_database_code_ICSD                420443
_audit_creation_date               2010/02/01
_chemical_name_systematic
;
Potassium Tetrakis(trifluoromethyl)borate
;
_chemical_formula_structural       'K (B (C F3)4)'
_chemical_formula_sum              'C4 B1 F12 K1'
_publ_section_title
;
Crystal structures and phase-transitions of potassium 
tetrakis(trifluoromethyl)borate, K [B (C F3)4]
;
loop_
_citation_id
_citation_journal_abbrev
_citation_year
_citation_journal_volume
_citation_journal_issue
_citation_page_first
_citation_page_last
_citation_journal_id_ASTM
primary 'Zeitschrift fuer Anorganische und Allgemeine Chemie (1950) (DE)'
 2009 635 12 2009 2015 ZAACAB
_publ_author_name
;
Bernhardt, E.;Berkei, M.;Willner, H.
;
_cell_length_a                     9.2593(14)
_cell_length_b                     9.7527(15)
_cell_length_c                     10.2170(16)
_cell_angle_alpha                  90.00
_cell_angle_beta                   90.00
_cell_angle_gamma                  90.00
_cell_volume                       922.63
_cell_formula_units_Z              4
_symmetry_space_group_name_H-M     'P 21 21 21'
_symmetry_Int_Tables_number        19
_refine_ls_R_factor_all            .0401
loop_
_symmetry_equiv_pos_site_id
_symmetry_equiv_pos_as_xyz
  1	'-x, y+.5, -z+.5'
  2	'x+.5, -y+.5, -z'
  3	'-x+.5, -y, z+.5'
  4	'x, y, z'
loop_
_atom_type_symbol
_atom_type_oxidation_number
B3+	3
C2+	2
F1-	-1
K1+	1
loop_
_atom_site_label
_atom_site_type_symbol
_atom_site_symmetry_multiplicity
_atom_site_Wyckoff_symbol
_atom_site_fract_x
_atom_site_fract_y
_atom_site_fract_z
_atom_site_occupancy
_atom_site_attached_hydrogens
_atom_site_U_iso_or_equiv
K1 K1+ 4 a 0.97304(4) 0.02226(4) 0.50249(4) 1 0 0.02449(9) 
B1 B3+ 4 a 0.5121(2) 0.01374(18) 0.5134(2) 1 0 0.0192(4) 
C1 C2+ 4 a 0.5423(2) 0.08984(18) 0.37520(18) 1 0 0.0266(4) 
C2 C2+ 4 a 0.5885(2) -0.13705(17) 0.5129(2) 1 0 0.0233(4) 
C3 C2+ 4 a 0.3407(2) -0.0032(2) 0.5387(2) 1 0 0.0317(5) 
C4 C2+ 4 a 0.5826(2) 0.10414(17) 0.63065(18) 1 0 0.0212(4) 
F1 F1- 4 a 0.68284(16) 0.12303(12) 0.35660(13) 1 0 0.0398(3) 
F2 F1- 4 a 0.46901(17) 0.20926(12) 0.36123(12) 1 0 0.0464(4) 
F3 F1- 4 a 0.50506(15) 0.01447(12) 0.26894(10) 1 0 0.0382(3) 
F4 F1- 4 a 0.72447(13) -0.13515(11) 0.46286(12) 1 0 0.0346(3) 
F5 F1- 4 a 0.51862(14) -0.23253(10) 0.44083(13) 1 0 0.0385(3) 
F6 F1- 4 a 0.60305(16) -0.19287(13) 0.63206(13) 1 0 0.0434(4) 
F7 F1- 4 a 0.26566(14) -0.05068(13) 0.43422(14) 1 0 0.0480(3) 
F8 F1- 4 a 0.27408(14) 0.11569(13) 0.57185(16) 1 0 0.0491(4) 
F9 F1- 4 a 0.30815(15) -0.09021(13) 0.63741(14) 1 0 0.0473(4) 
F10 F1- 4 a 0.53771(14) 0.06553(12) 0.75185(10) 1 0 0.0336(3) 
F11 F1- 4 a 0.55006(14) 0.24005(10) 0.62396(11) 1 0 0.0315(3) 
F12 F1- 4 a 0.72769(13) 0.09856(13) 0.63621(12) 1 0 0.0353(3) 

loop_
_atom_site_aniso_label
_atom_site_aniso_type_symbol
_atom_site_aniso_U_11
_atom_site_aniso_U_22
_atom_site_aniso_U_33
_atom_site_aniso_U_12
_atom_site_aniso_U_13
_atom_site_aniso_U_23
K1 K1+ 0.02391(19) 0.02725(17) 0.02231(17) -0.00390(17) 0.0016(2) 
-0.00101(19)
B1 B3+ 0.0180(10) 0.0173(7) 0.0222(9) 0.0017(7) 0.0015(8) -0.0017(8)
C1 C2+ 0.0379(13) 0.0203(8) 0.0216(9) 0.0018(9) 0.0000(9) -0.0031(7)
C2 C2+ 0.0216(10) 0.0186(7) 0.0296(10) 0.0006(7) 0.0036(9) 0.0015(9)
C3 C2+ 0.0263(11) 0.0260(9) 0.0426(12) 0.0003(8) 0.0012(9) -0.0096(9)
C4 C2+ 0.0251(11) 0.0202(8) 0.0182(9) 0.0018(8) 0.0026(8) 0.0009(7)
F1 F1- 0.0506(9) 0.0352(6) 0.0337(7) -0.0133(6) 0.0138(6) 0.0032(6)
F2 F1- 0.0794(10) 0.0316(6) 0.0281(6) 0.0227(7) -0.0033(8) 0.0052(5)
F3 F1- 0.0559(9) 0.0392(6) 0.0194(5) 0.0038(6) -0.0045(5) -0.0077(5)
F4 F1- 0.0235(7) 0.0269(5) 0.0534(8) 0.0026(5) 0.0104(5) -0.0043(5)
F5 F1- 0.0338(7) 0.0220(5) 0.0597(8) -0.0029(5) -0.0010(7) -0.0132(6)
F6 F1- 0.0618(9) 0.0305(6) 0.0379(7) 0.0172(6) 0.0095(7) 0.0151(6)
F7 F1- 0.0241(7) 0.0559(8) 0.0639(9) -0.0020(6) -0.0109(7) -0.0195(7)
F8 F1- 0.0270(8) 0.0427(7) 0.0776(10) 0.0127(6) 0.0010(7) -0.0205(7)
F9 F1- 0.0358(8) 0.0486(7) 0.0574(8) -0.0131(6) 0.0217(7) 0.0002(7)
F10 F1- 0.0456(8) 0.0372(6) 0.0179(5) 0.0000(6) 0.0029(6) 0.0021(5)
F11 F1- 0.0469(8) 0.0191(5) 0.0286(6) 0.0014(5) -0.0012(6) -0.0041(4)
F12 F1- 0.0233(7) 0.0460(7) 0.0366(6) -0.0023(6) -0.0041(6) -0.0124(6)
#End of data_420443-ICSD


