data_33870-ICSD
#?2014 by Fachinformationszentrum Karlsruhe, and the U.S. Secretary of 
#Commerce on behalf of the United States.  All rights reserved.
_database_code_ICSD                33870
_audit_creation_date               1992/01/20
_audit_update_record               2012/08/01
_chemical_name_systematic
;
Dicesium Trisodium Tetraoxothallate
;
_chemical_formula_structural       'Cs2 Na3 (Tl O4)'
_chemical_formula_sum              'Cs2 Na3 O4 Tl1'
_publ_section_title
;
Neue Vertreter des A2A3'(MO4)-Typs: Rb2Na3(InO4), Cs2Na3(InO4) und 
Cs2Na3(TlO4)
;
loop_
_citation_id
_citation_journal_abbrev
_citation_year
_citation_journal_volume
_citation_page_first
_citation_page_last
_citation_journal_id_ASTM
primary 'Zeitschrift fuer Anorganische und Allgemeine Chemie (1950) (DE)'
 1991 595 95 114 ZAACAB
_publ_author_name                  'Glaum, H.;Hoppe, R.'
_cell_length_a                     6.42
_cell_length_b                     10.182
_cell_length_c                     12.645
_cell_angle_alpha                  90.
_cell_angle_beta                   111.12
_cell_angle_gamma                  90.
_cell_volume                       771.06
_cell_formula_units_Z              4
_symmetry_space_group_name_H-M     'P 1 21/c 1'
_symmetry_Int_Tables_number        14
_refine_ls_R_factor_all            .091
loop_
_symmetry_equiv_pos_site_id
_symmetry_equiv_pos_as_xyz
  1	'x, -y+.5, z+.5'
  2	'-x, -y, -z'
  3	'-x, y+.5, -z+.5'
  4	'x, y, z'
loop_
_atom_type_symbol
_atom_type_oxidation_number
Cs1+	1
Na1+	1
O2-	-2
Tl3+	3
loop_
_atom_site_label
_atom_site_type_symbol
_atom_site_symmetry_multiplicity
_atom_site_Wyckoff_symbol
_atom_site_fract_x
_atom_site_fract_y
_atom_site_fract_z
_atom_site_occupancy
_atom_site_attached_hydrogens
Tl1 Tl3+ 4 e 0.8994(1) 0.7801(1) 0.5637(1) 1. 0 
Cs1 Cs1+ 4 e 0.7151(3) 0.2717(2) 0.6070(2) 1. 0 
Cs2 Cs1+ 4 e 0.7191(3) 0.4977(3) 0.3646(2) 1. 0 
Na1 Na1+ 4 e 0.6085(16) 0.7438(9) 0.1998(8) 1. 0 
Na2 Na1+ 4 e 0.9121(16) 0.9745(10) 0.2914(8) 1. 0 
Na3 Na1+ 4 e 0.3621(14) 0.5104(9) 0.0684(7) 1. 0 
O1 O2- 4 e 0.2433(28) 0.6782(16) 0.1555(16) 1. 0 
O2 O2- 4 e 0.7770(26) 0.8075(16) 0.3820(13) 1. 0 
O3 O2- 4 e 0.7811(26) 0.8989(16) 0.1078(13) 1. 0 
O4 O2- 4 e 0.7336(25) 0.9374(15) 0.6216(13) 1. 0 

loop_
_atom_site_aniso_label
_atom_site_aniso_type_symbol
_atom_site_aniso_U_11
_atom_site_aniso_U_22
_atom_site_aniso_U_33
_atom_site_aniso_U_12
_atom_site_aniso_U_13
_atom_site_aniso_U_23
Tl1 Tl3+ 0.0092(4) 0.0111(4) 0.0022(3) 0.0026(4) 0.0019(3) -.0004(4)
Cs1 Cs1+ 0.0303(10) 0.0426(12) 0.0160(9) -.0007(9) 0.0112(8) -.0025(8)
Cs2 Cs1+ 0.0304(9) 0.0220(8) 0.0160(8) 0.0019(8) 0.0015(7) 0.0007(7)
Na1 Na1+ 0.0203(40) 0.0112(41) 0.0051(38) -.0009(33) -.0051(34) 0.0061(31)
Na2 Na1+ 0.0160(41) 0.0369(49) 0.0113(16) -.0015(40) 0.0123(37) 0.0006(39)
Na3 Na1+ 0.0146(41) 0.0194(41) 0.0041(36) -.0024(34) 0.0051(33) -.0066(34)
O1 O2- 0.0178(60) 0.0180(58) 0.0185(63) -.0059(53) -.0107(58) -.0003(55)
O2 O2- 0.027(6) 0.0225(61) 0.0028(54) -.0079(55) -.0033(52) -.0024(54)
O3 O2- 0.0222(57) 0.0285(60) 0.0081(52) 0.0076(51) 0.0097(46) 0.0123(49)
O4 O2- 0.0160(57) 0.0215(58) 0.0073(55) 0.0074(51) 0.0099(49) 0.0061(51)
#End of data_33870-ICSD


