data_14353-ICSD
#?2014 by Fachinformationszentrum Karlsruhe, and the U.S. Secretary of 
#Commerce on behalf of the United States.  All rights reserved.
_database_code_ICSD                14353
_audit_creation_date               1980/01/01
_audit_update_record               2003/04/01
_chemical_name_systematic          'Trisodium Pentairon(III) Oxide'
_chemical_formula_structural       'Na3 Fe5 O9'
_chemical_formula_sum              'Fe5 Na3 O9'
_publ_section_title
;
The preparation, crystal structure and magnetic properties of Na3 Fe5 
O9
;
loop_
_citation_id
_citation_journal_abbrev
_citation_year
_citation_journal_volume
_citation_page_first
_citation_page_last
_citation_journal_id_ASTM
primary 'Acta Crystallographica (1,1948-23,1967)' 1967 22 766 771 ACCRA9
2 'Journal of the Physical Society of Japan' 1962 17 722 723 JUPSAU
_publ_author_name
;
Gomers, C.;Rooymans, C.J.M.;de Graaff, R.A.G.
;
_cell_length_a                     13.390(5)
_cell_length_b                     12.075(5)
_cell_length_c                     5.294(2)
_cell_angle_alpha                  90.
_cell_angle_beta                   89.17(3)
_cell_angle_gamma                  90.
_cell_volume                       855.87
_cell_formula_units_Z              4
_symmetry_space_group_name_H-M     'C 1 2/c 1'
_symmetry_Int_Tables_number        15
_refine_ls_R_factor_all            .112
loop_
_symmetry_equiv_pos_site_id
_symmetry_equiv_pos_as_xyz
  1	'x, -y, z+.5'
  2	'-x, -y, -z'
  3	'-x, y, -z+.5'
  4	'x, y, z'
  5	'x+.5, -y+.5, z+.5'
  6	'-x+.5, -y+.5, -z'
  7	'-x+.5, y+.5, -z+.5'
  8	'x+.5, y+.5, z'
loop_
_atom_type_symbol
_atom_type_oxidation_number
Fe3+	3
Na1+	1
O2-	-2
loop_
_atom_site_label
_atom_site_type_symbol
_atom_site_symmetry_multiplicity
_atom_site_Wyckoff_symbol
_atom_site_fract_x
_atom_site_fract_y
_atom_site_fract_z
_atom_site_occupancy
_atom_site_attached_hydrogens
Fe1 Fe3+ 8 f 0.1153(12) 0.3196(13) 0.2823(21) 1. 0 
Fe2 Fe3+ 8 f 0.3591(13) 0.3393(13) 0.2181(21) 1. 0 
Fe3 Fe3+ 4 e 0 0.0637(18) 0.25 1. 0 
Na1 Na1+ 8 f 0.2384(57) 0.0767(54) 0.2724(77) 1. 0 
Na2 Na1+ 4 e 0 0.5954(84) 0.25 1. 0 
O1 O2- 8 f 0.0943(71) 0.1822(69) 0.118(11) 1. 0 
O2 O2- 8 f 0.3674(86) 0.2019(80) 0.377(12) 1. 0 
O3 O2- 8 f 0.2295(68) 0.3909(75) 0.177(11) 1. 0 
O4 O2- 8 f 0.418(7) 0.4470(66) 0.425(11) 1. 0 
O5 O2- 4 e 0 0.4048(88) 0.25 1. 0 

loop_
_atom_site_aniso_label
_atom_site_aniso_type_symbol
_atom_site_aniso_U_11
_atom_site_aniso_U_22
_atom_site_aniso_U_33
_atom_site_aniso_U_12
_atom_site_aniso_U_13
_atom_site_aniso_U_23
Fe1 Fe3+ 0.0057 0.0067 0.0051 -0.0005 0.0003 0.0003
Fe2 Fe3+ 0.0065 0.0074 0.004 -0.001 -0.0011 0.0002
Fe3 Fe3+ 0.0058 0.0058 0.0058 0 -0.0002 0
Na1 Na1+ 0.0162 0.0149 0.0212 0.0021 -0.002 -0.0013
Na2 Na1+ 0.0238 0.0208 0.0208 0 -0.0006 0
O1 O2- 0.0102 0.0072 0.0125 -0.0005 -0.0014 -0.0006
O2 O2- 0.0159 0.0109 0.0161 -0.0024 0.0086 0.0005
O3 O2- 0.0083 0.0115 0.0119 0.0021 0.0031 0.0079
O4 O2- 0.0108 0.008 0.0049 -0.0046 -0.0036 0.0058
O5 O2- 0.0074 0.0067 0.0067 0 -0.0002 0
#End of data_14353-ICSD


