data_9434-ICSD
#?2014 by Fachinformationszentrum Karlsruhe, and the U.S. Secretary of 
#Commerce on behalf of the United States.  All rights reserved.
_database_code_ICSD                9434
_audit_creation_date               1980/01/01
_audit_update_record               2010/02/01
_chemical_name_systematic
;
Cesium Lithium Tetrafluoroberyllate
;
_chemical_formula_structural       'Cs Li (Be F4)'
_chemical_formula_sum              'Be1 Cs1 F4 Li1'
_publ_section_title
;
Tetrahedral-framework structures of (N H4) Li Be F4 and Cs Li Be F4
;
loop_
_citation_id
_citation_journal_abbrev
_citation_year
_citation_journal_volume
_citation_page_first
_citation_page_last
_citation_journal_id_ASTM
primary 'Materials Research Bulletin' 1972 7 1209 1218 MRBUAC
2 'Phase Transition' 1992 38 127 220 PHTRDP
_publ_author_name                  'Chung, S.J.;Hahn, T.'
_cell_length_a                     9.306(1)
_cell_length_b                     5.383(1)
_cell_length_c                     8.738(1)
_cell_angle_alpha                  90.
_cell_angle_beta                   90.
_cell_angle_gamma                  89.75
_cell_volume                       437.72
_cell_formula_units_Z              4
_symmetry_space_group_name_H-M     'P 1 1 21/n'
_symmetry_Int_Tables_number        14
_refine_ls_R_factor_all            .049
loop_
_symmetry_equiv_pos_site_id
_symmetry_equiv_pos_as_xyz
  1	'x+.5, y+.5, -z+.5'
  2	'-x, -y, -z'
  3	'-x+.5, -y+.5, z+.5'
  4	'x, y, z'
loop_
_atom_type_symbol
_atom_type_oxidation_number
Be2+	2
Cs1+	1
F1-	-1
Li1+	1
loop_
_atom_site_label
_atom_site_type_symbol
_atom_site_symmetry_multiplicity
_atom_site_Wyckoff_symbol
_atom_site_fract_x
_atom_site_fract_y
_atom_site_fract_z
_atom_site_occupancy
_atom_site_attached_hydrogens
_atom_site_B_iso_or_equiv
Cs1 Cs1+ 4 e 0.2237(1) 0.2531(1) 0.5020(1) 1. 0 1.7 
Li1 Li1+ 4 e 0.4173(20) 0.7547(39) 0.3181(18) 1. 0 1.1 
Be1 Be2+ 4 e 0.4170(14) 0.7453(25) 0.7019(13) 1. 0 1.1 
F1 F1- 4 e 0.5830(9) 0.2482(14) 0.4737(6) 1. 0 2.8 
F2 F1- 4 e 0.9601(6) 0.5031(10) 0.7356(7) 1. 0 2.2 
F3 F1- 4 e 0.5278(6) 0.5495(12) 0.7591(8) 1. 0 2.2 
F4 F1- 4 e 0.2667(6) 0.6728(15) 0.7586(8) 1. 0 2.5 

#End of data_9434-ICSD


