data_76933-ICSD
#?2014 by Fachinformationszentrum Karlsruhe, and the U.S. Secretary of 
#Commerce on behalf of the United States.  All rights reserved.
_database_code_ICSD                76933
_audit_creation_date               2001/07/16
_chemical_name_systematic          'Tripotassium Copper(I) Cyanide'
_chemical_formula_structural       'K3 Cu (C N)4'
_chemical_formula_sum              'C4 Cu1 K3 N4'
_publ_section_title
;
La struttura cristallina del cuprocianuro di potassio: K3 Cu (C N)4
;
loop_
_citation_id
_citation_journal_abbrev
_citation_year
_citation_journal_volume
_citation_page_first
_citation_page_last
_citation_journal_id_ASTM
primary 'Periodico di Mineralogia' 1966 35 431 453 PEMIA7
_publ_author_name                  'Giuseppetti, G.;Tadini, C.'
_cell_length_a                     9.637(2)
_cell_length_b                     9.637
_cell_length_c                     17.3050(20)
_cell_angle_alpha                  90.
_cell_angle_beta                   90.
_cell_angle_gamma                  120.
_cell_volume                       1391.83
_cell_formula_units_Z              6
_symmetry_space_group_name_H-M     'R 3 c H'
_symmetry_Int_Tables_number        161
_refine_ls_R_factor_all            .105
loop_
_symmetry_equiv_pos_site_id
_symmetry_equiv_pos_as_xyz
  1	'-x+y, y, z+.5'
  2	'x, x-y, z+.5'
  3	'-y, -x, z+.5'
  4	'-x+y, -x, z'
  5	'-y, x-y, z'
  6	'x, y, z'
  7	'-x+y+.6666, y+.3333, z+.8333'
  8	'-x+y+.3333, y+.6666, z+.1666'
  9	'x+.6666, x-y+.3333, z+.8333'
 10	'x+.3333, x-y+.6666, z+.1666'
 11	'-y+.6666, -x+.3333, z+.8333'
 12	'-y+.3333, -x+.6666, z+.1666'
 13	'-x+y+.6666, -x+.3333, z+.3333'
 14	'-x+y+.3333, -x+.6666, z+.6666'
 15	'-y+.6666, x-y+.3333, z+.3333'
 16	'-y+.3333, x-y+.6666, z+.6666'
 17	'x+.6666, y+.3333, z+.3333'
 18	'x+.3333, y+.6666, z+.6666'
loop_
_atom_type_symbol
_atom_type_oxidation_number
C2+	2
Cu1+	1
K1+	1
N3-	-3
loop_
_atom_site_label
_atom_site_type_symbol
_atom_site_symmetry_multiplicity
_atom_site_Wyckoff_symbol
_atom_site_fract_x
_atom_site_fract_y
_atom_site_fract_z
_atom_site_occupancy
_atom_site_attached_hydrogens
_atom_site_B_iso_or_equiv
Cu1 Cu1+ 6 a 0 0 0 1. 0 0.57 
K1 K1+ 18 b 0.421 0.036 0.5551 1. 0 2.54 
C1 C2+ 18 b 0.8625 0.3466 0.3728 1. 0 4.93 
N1 N3- 18 b 0.992 0.3734 0.3873 1. 0 3.61 
C2 C2+ 6 a 0 0 0.3852 1. 0 0.37 
N2 N3- 6 a 0 0 0.3164 1. 0 1.74 

#End of data_76933-ICSD


