data_64675-ICSD
#?2014 by Fachinformationszentrum Karlsruhe, and the U.S. Secretary of 
#Commerce on behalf of the United States.  All rights reserved.
_database_code_ICSD                64675
_audit_creation_date               1989/12/04
_audit_update_record               2012/02/01
_chemical_name_systematic
;
Potassium Copper Hexafluorochromate(III)
;
_chemical_formula_structural       'K Cu (Cr F6)'
_chemical_formula_sum              'Cr1 Cu1 F6 K1'
_publ_section_title
;
Zur Kristallstruktur von K Cu Cr F6.
;
loop_
_citation_id
_citation_journal_abbrev
_citation_year
_citation_journal_volume
_citation_page_first
_citation_page_last
_citation_journal_id_ASTM
primary 'Zeitschrift fuer Anorganische und Allgemeine Chemie (1950) (DE)'
 1988 557 161 170 ZAACAB
_publ_author_name                  'Kissel, D.;Hoppe, R.'
_cell_length_a                     7.256
_cell_length_b                     9.933
_cell_length_c                     6.75
_cell_angle_alpha                  90.
_cell_angle_beta                   92.61
_cell_angle_gamma                  90.
_cell_volume                       485.99
_cell_formula_units_Z              4
_symmetry_space_group_name_H-M     'P 1 21/c 1'
_symmetry_Int_Tables_number        14
_refine_ls_R_factor_all            .1026
loop_
_symmetry_equiv_pos_site_id
_symmetry_equiv_pos_as_xyz
  1	'x, -y+.5, z+.5'
  2	'-x, -y, -z'
  3	'-x, y+.5, -z+.5'
  4	'x, y, z'
loop_
_atom_type_symbol
_atom_type_oxidation_number
Cr3+	3
Cu2+	2
F1-	-1
K1+	1
loop_
_atom_site_label
_atom_site_type_symbol
_atom_site_symmetry_multiplicity
_atom_site_Wyckoff_symbol
_atom_site_fract_x
_atom_site_fract_y
_atom_site_fract_z
_atom_site_occupancy
_atom_site_attached_hydrogens
Cu1 Cu2+ 4 e 0.2534(1) 0.2660(1) 0.8172(1) 1. 0 
Cr1 Cr3+ 2 b 0.5 0 0 1. 0 
Cr2 Cr3+ 2 a 0 0 0 1. 0 
K1 K1+ 4 e 0.2429(3) 0.8844(2) 0.4956(3) 1. 0 
F1 F1- 4 e 0.9811(6) 0.1663(4) 0.8726(6) 1. 0 
F2 F1- 4 e 0.5068(5) 0.8239(4) 0.1041(6) 1. 0 
F3 F1- 4 e 0.2475(6) 0.3290(4) 0.0783(6) 1. 0 
F4 F1- 4 e 0.7531(5) 0.0183(4) 0.0799(6) 1. 0 
F5 F1- 4 e 0.0732(5) 0.0851(4) 0.2412(6) 1. 0 
F6 F1- 4 e 0.5560(5) 0.5649(4) 0.2499(6) 1. 0 

loop_
_atom_site_aniso_label
_atom_site_aniso_type_symbol
_atom_site_aniso_U_11
_atom_site_aniso_U_22
_atom_site_aniso_U_33
_atom_site_aniso_U_12
_atom_site_aniso_U_13
_atom_site_aniso_U_23
Cu1 Cu2+ 0.0116(3) 0.0074(4) 0.0045(3) 0.0025(3) -.0002(3) 0.0000(3)
Cr1 Cr3+ 0.0080(7) 0.0067(7) 0.0078(7) 0.0006(6) -.0009(6) -.0006(6)
Cr2 Cr3+ 0.0093(7) 0.0059(7) 0.0079(7) -.0010(6) 0.0026(6) 0.0001(6)
K1 K1+ 0.0330(9) 0.0201(8) 0.0254(8) -.0007(8) -.0055(7) 0.0060(8)
F1 F1- 0.025(2) 0.004(2) 0.021(2) 0.003(2) 0.002(2) 0.003(2)
F2 F1- 0.018(2) 0.006(2) 0.025(2) 0.000(1) -.004(2) 0.003(2)
F3 F1- 0.027(2) 0.013(2) 0.009(2) -.003(2) 0.002(2) 0.003(2)
F4 F1- 0.006(2) 0.023(2) 0.018(2) 0.001(2) -.002(1) 0.002(2)
F5 F1- 0.015(2) 0.014(2) 0.015(2) -.003(1) -.003(2) -.004(2)
F6 F1- 0.018(2) 0.015(2) 0.012(2) -.004(2) -.002(2) 0.003(2)
#End of data_64675-ICSD


