data_280600-ICSD
#?2014 by Fachinformationszentrum Karlsruhe, and the U.S. Secretary of 
#Commerce on behalf of the United States.  All rights reserved.
_database_code_ICSD                280600
_audit_creation_date               2002/04/01
_chemical_name_systematic          'Potassium Dinitramide'
_chemical_formula_structural       'K (N3 O4)'
_chemical_formula_sum              'K1 N3 O4'
_publ_section_title
;
Anisotropic thermal expansion of potassium dinitramide: a variable-
temperature crystallographic study
;
loop_
_citation_id
_citation_journal_abbrev
_citation_year
_citation_journal_volume
_citation_page_first
_citation_page_last
_citation_journal_id_ASTM
primary 'Acta Crystallographica, Section B: Structural Science'
 2001 57 113 118 ASBSDK
_publ_author_name
;
Hardie, M.J.;Martin, A.;Pinkerton, A.A.;Zhurova, E.A.
;
_cell_length_a                     6.6010(3)
_cell_length_b                     9.1253(5)
_cell_length_c                     7.1657(4)
_cell_angle_alpha                  90.
_cell_angle_beta                   97.890(1)
_cell_angle_gamma                  90.
_cell_volume                       427.55
_cell_formula_units_Z              4
_symmetry_space_group_name_H-M     'P 1 21/n 1'
_symmetry_Int_Tables_number        14
_refine_ls_R_factor_all            .0356
loop_
_symmetry_equiv_pos_site_id
_symmetry_equiv_pos_as_xyz
  1	'-x+.5, y+.5, -z+.5'
  2	'-x, -y, -z'
  3	'x+.5, -y+.5, z+.5'
  4	'x, y, z'
loop_
_atom_type_symbol
_atom_type_oxidation_number
K1+	1
N1+	1
N3+	3
O2-	-2
loop_
_atom_site_label
_atom_site_type_symbol
_atom_site_symmetry_multiplicity
_atom_site_Wyckoff_symbol
_atom_site_fract_x
_atom_site_fract_y
_atom_site_fract_z
_atom_site_occupancy
_atom_site_attached_hydrogens
K1 K1+ 4 e 0.85986(5) 0.34296(3) 0.83151(4) 1. 0 
O1 O2- 4 e 1.0097(2) 0.34379(12) 0.2150(2) 1. 0 
O2 O2- 4 e 0.7268(2) 0.53839(12) 0.1558(2) 1. 0 
N1 N3+ 4 e 0.6489(2) 0.46223(13) 0.2683(2) 1. 0 
O3 O2- 4 e 0.4639(2) 0.46152(13) 0.2799(2) 1. 0 
N2 N1+ 4 e 0.7594(2) 0.37658(14) 0.4071(2) 1. 0 
N3 N3+ 4 e 0.9499(2) 0.34079(12) 0.3713(2) 1. 0 
O4 O2- 4 e 1.0620(2) 0.29468(12) 0.51298(14) 1. 0 

loop_
_atom_site_aniso_label
_atom_site_aniso_type_symbol
_atom_site_aniso_U_11
_atom_site_aniso_U_22
_atom_site_aniso_U_33
_atom_site_aniso_U_12
_atom_site_aniso_U_13
_atom_site_aniso_U_23
K1 K1+ 0.0148(2) 0.0202(2) 0.0133(2) -.00209(11) 0.00379(13) 0.00038(10)
O1 O2- 0.0172(6) 0.0290(6) 0.0120(5) 0.0023(4) 0.0058(4) 0.0011(4)
O2 O2- 0.0219(6) 0.0203(6) 0.0198(6) -.0019(4) 0.0023(4) 0.0065(4)
N1 N3+ 0.0160(6) 0.0147(6) 0.0149(6) 0.0003(4) 0.0023(5) -.0021(4)
O3 O2- 0.0126(6) 0.0268(6) 0.0264(6) 0.0039(4) 0.0029(5) -.0024(4)
N2 N1+ 0.0150(7) 0.0185(6) 0.0160(6) 0.0044(5) 0.0050(5) 0.0030(5)
N3 N3+ 0.0136(6) 0.0138(6) 0.0124(6) -.0014(4) 0.0035(5) -.0006(4)
O4 O2- 0.0178(6) 0.0224(6) 0.0127(5) 0.0036(4) 0.0000(4) 0.0014(4)
#End of data_280600-ICSD


