data_94840-ICSD
#?2014 by Fachinformationszentrum Karlsruhe, and the U.S. Secretary of 
#Commerce on behalf of the United States.  All rights reserved.
_database_code_ICSD                94840
_audit_creation_date               2003/10/01
_audit_update_record               2012/02/01
_chemical_name_systematic
;
Dipotassium Dizinc Decavanadate(V) Hexadecahydrate
;
_chemical_formula_structural       'K2 Zn2 (V10 O28) (H2 O)16'
_chemical_formula_sum              'H32 K2 O44 V10 Zn2'
_publ_section_title
;
Refinement of the crystal structure of K2 Zn2 V10 O28 * 16(H2 O)
;
loop_
_citation_id
_citation_journal_abbrev
_citation_year
_citation_journal_volume
_citation_journal_issue
_citation_page_first
_citation_page_last
_citation_journal_id_ASTM
primary 'Doklady Akad. Nauk' 2002 384 3 334 340 DAKNEQ
2 'Doklady Physics' 2002 47 5 346 352 DOPHFU
_publ_author_name
;
Yakubovich, O.V.;Anan'eva, E.N.;Dimitrova, O.V.;Urusov, V.S.
;
_cell_length_a                     10.802(2)
_cell_length_b                     11.157(2)
_cell_length_c                     8.770(2)
_cell_angle_alpha                  104.83(3)
_cell_angle_beta                   109.43(3)
_cell_angle_gamma                  64.99(3)
_cell_volume                       895.03
_cell_formula_units_Z              1
_symmetry_space_group_name_H-M     'P -1'
_symmetry_Int_Tables_number        2
_refine_ls_R_factor_all            .039
loop_
_symmetry_equiv_pos_site_id
_symmetry_equiv_pos_as_xyz
  1	'-x, -y, -z'
  2	'x, y, z'
loop_
_atom_type_symbol
_atom_type_oxidation_number
H1+	1
K1+	1
O2-	-2
V5+	5
Zn2+	2
loop_
_atom_site_label
_atom_site_type_symbol
_atom_site_symmetry_multiplicity
_atom_site_Wyckoff_symbol
_atom_site_fract_x
_atom_site_fract_y
_atom_site_fract_z
_atom_site_occupancy
_atom_site_attached_hydrogens
_atom_site_U_iso_or_equiv
V1 V5+ 2 i -.00274(9) 0.47729(8) 0.67734(10) 1. 0 0.0170(2) 
V2 V5+ 2 i 0.28103(9) 0.44692(8) 0.61576(10) 1. 0 0.0188(2) 
V3 V5+ 2 i 0.94915(9) 0.27565(8) 0.35303(10) 1. 0 0.0183(2) 
V4 V5+ 2 i 0.23696(9) 0.24458(9) 0.30811(11) 1. 0 0.0207(2) 
V5 V5+ 2 i 0.22779(9) 0.19733(8) 0.63439(11) 1. 0 0.0210(2) 
Zn1 Zn2+ 2 i 0.77078(7) 0.20981(6) 0.77442(8) 1. 0 0.0236(2) 
K1 K1+ 2 i 0.5831(1) 0.2258(1) 0.3146(2) 1. 0 0.0352(3) 
O1 O2- 2 i 0.3052(4) 0.1288(3) 0.4583(4) 1. 0 0.0219(7) 
O2 O2- 2 i 0.1002(3) 0.3785(3) 0.4855(4) 1. 0 0.0171(7) 
O3 O2- 2 i 0.8573(3) 0.4101(3) 0.5240(4) 1. 0 0.0162(6) 
O4 O2- 2 i 0.0976(4) 0.3368(3) 0.7682(4) 1. 0 0.0211(7) 
O5 O2- 2 i 0.8617(3) 0.4469(3) 0.2593(4) 1. 0 0.0179(7) 
O6 O2- 2 i 0.3428(4) 0.3452(3) 0.4366(4) 1. 0 0.0211(7) 
O7 O2- 2 i 0.3976(4) 0.5133(4) 0.7059(5) 1. 0 0.0272(8) 
O8 O2- 2 i 0.3387(4) 0.3026(3) 0.7217(4) 1. 0 0.0216(7) 
O9 O2- 2 i 0.0624(4) 0.1634(3) 0.5087(4) 1. 0 0.0208(7) 
O10 O2- 2 i 0.8267(4) 0.2173(4) 0.2602(4) 1. 0 0.0259(8) 
O11 O2- 2 i 0.0690(4) 0.2045(3) 0.2216(4) 1. 0 0.0211(7) 
O12 O2- 2 i 0.6917(4) 0.9225(4) 0.2572(5) 1. 0 0.0303(9) 
O13 O2- 2 i 0.1087(4) 0.4158(3) 0.2028(4) 1. 0 0.0205(7) 
O14 O2- 2 i 0.3233(4) 0.1610(4) 0.1727(5) 1. 0 0.0309(9) 
O15 O2- 2 i 0.3233(5) 0.6322(4) 0.3650(5) 1.000 0 0.0304(9) 
O16 O2- 2 i 0.6534(5) 0.3356(5) 0.9410(6) 1.000 0 0.0363(10) 
O17 O2- 2 i 0.1276(5) 0.8986(4) 0.4076(6) 1.000 0 0.0356(10) 
O18 O2- 2 i 0.3941(4) 0.8564(4) 0.3734(5) 1.000 0 0.0290(9) 
O19 O2- 2 i 0.0597(6) 0.7330(6) 0.0977(6) 1.000 0 0.0499(14) 
O20 O2- 2 i 0.1559(5) 0.9398(4) 0.0817(5) 1.000 0 0.0339(10) 
O21 O2- 2 i 0.3459(6) 0.4093(5) 0.0702(6) 1.000 0 0.0452(12) 
O22 O2- 2 i 0.4179(7) 0.8878(7) 0.0055(7) 1.000 0 0.0498(13) 
H1 H1+ 2 i 0.472(7) 0.824(6) 0.366(7) 1. 0 0.02(2) 
H2 H1+ 2 i 0.033(7) 0.744(7) 0.011(9) 1. 0 0.03(2) 
H3 H1+ 2 i 0.384(6) 0.928(6) 0.397(7) 1. 0 0.03(2) 
H4 H1+ 2 i 0.272(7) 0.613(6) 0.397(8) 1. 0 0.02(2) 
H5 H1+ 2 i 0.093(7) 0.978(7) 0.424(8) 1. 0 0.05(2) 
H6 H1+ 2 i 0.677(9) 0.311(9) 0.023(11) 1. 0 0.04(3) 
H7 H1+ 2 i 0.051(7) 0.886(7) 0.395(8) 1. 0 0.03(2) 
H8 H1+ 2 i 0.004(7) 0.722(7) 0.138(8) 1. 0 0.05(2) 
H9 H1+ 2 i 0.118(8) 0.014(7) 0.106(9) 1. 0 0.04(2) 
H10 H1+ 2 i 0.221(8) 0.930(7) 0.046(9) 1. 0 0.06(2) 
H11 H1+ 2 i 0.345(8) 0.389(8) -0.007(10) 1. 0 0.08(3) 
H12 H1+ 2 i 0.281(9) 0.409(8) 0.089(10) 1. 0 0.03(3) 
H13 H1+ 2 i 0.401(12) 0.958(12) 0.019(13) 1. 0 0.08(5) 
H14 H1+ 2 i 0.639(9) 0.414(9) 0.963(11) 1. 0 0.11(3) 
H15 H1+ 2 i 0.368(7) 0.566(7) 0.320(8) 1. 0 0.05(2) 
H16 H1+ 2 i 0.487(12) 0.866(11) 0.064(14) 1. 0 0.16(5) 

#End of data_94840-ICSD


