data_249327-ICSD
#?2014 by Fachinformationszentrum Karlsruhe, and the U.S. Secretary of 
#Commerce on behalf of the United States.  All rights reserved.
_database_code_ICSD                249327
_audit_creation_date               2008/02/01
_chemical_name_systematic
;
Potassium Strontium Diniobium Hexaoxide Fluoride
;
_chemical_formula_structural       'K Sr Nb2 O6 F'
_chemical_formula_sum              'F1 K1 Nb2 O6 Sr1'
_publ_section_title
;
A new layered perovskite, K Sr Nb2 O6 F, by powder neutron 
diffraction
;
loop_
_citation_id
_citation_journal_abbrev
_citation_year
_citation_journal_volume
_citation_journal_issue
_citation_page_first
_citation_page_last
_citation_journal_id_ASTM
primary 'Acta Crystallographica, Section C: Crystal Structure Communications'
 2007 63 7 i63 i65 ACSCEE
_publ_author_name
;
Yoo Chung-Yul;Hong Kun-Pyo;Kim Seung-Joo
;
_cell_length_a                     3.8604(2)
_cell_length_b                     22.2200(10)
_cell_length_c                     7.6932(3)
_cell_angle_alpha                  90.00
_cell_angle_beta                   90.00
_cell_angle_gamma                  90.00
_cell_volume                       659.91
_cell_formula_units_Z              4
_symmetry_space_group_name_H-M     'I m m m'
_symmetry_Int_Tables_number        71
_refine_ls_R_factor_all            .039
loop_
_symmetry_equiv_pos_site_id
_symmetry_equiv_pos_as_xyz
  1	'x, y, -z'
  2	'x, -y, z'
  3	'-x, y, z'
  4	'-x, -y, -z'
  5	'-x, -y, z'
  6	'-x, y, -z'
  7	'x, -y, -z'
  8	'x, y, z'
  9	'x+.5, y+.5, -z+.5'
 10	'x+.5, -y+.5, z+.5'
 11	'-x+.5, y+.5, z+.5'
 12	'-x+.5, -y+.5, -z+.5'
 13	'-x+.5, -y+.5, z+.5'
 14	'-x+.5, y+.5, -z+.5'
 15	'x+.5, -y+.5, -z+.5'
 16	'x+.5, y+.5, z+.5'
loop_
_atom_type_symbol
_atom_type_oxidation_number
F1-	-1
K1+	1
Nb5+	5
O2-	-2
Sr2+	2
loop_
_atom_site_label
_atom_site_type_symbol
_atom_site_symmetry_multiplicity
_atom_site_Wyckoff_symbol
_atom_site_fract_x
_atom_site_fract_y
_atom_site_fract_z
_atom_site_occupancy
_atom_site_attached_hydrogens
_atom_site_U_iso_or_equiv
K1 K1+ 4 g 0.5000 0.2630(3) 0.5000 1 0 0.0094(12) 
Sr1 Sr2+ 2 a 0.5000 0.5000 0.5000 1 0 0.0102(6) 
Sr2 Sr2+ 2 c 0.5000 0.5000 0.0000 1 0 0.0102(6) 
Nb1 Nb5+ 8 l 0.0000 0.39227(9) 0.2542(6) 1 0 0.0054(4) 
F1 F1- 4 j 0.0000 0.5000 0.2355(8) 1 0 0.0078(7) 
O1 O2- 8 l 0.5000 0.41316(10) 0.2496(9) 1 0 0.0072(3) 
O2 O2- 4 g 0.0000 0.4100(3) 0.0000 1 0 0.0072(3) 
O3 O2- 4 h 0.0000 0.4191(3) 0.5000 1 0 0.0072(3) 
O4 O2- 8 l 0.0000 0.31290(13) 0.2705(6) 1 0 0.0138(6) 

#End of data_249327-ICSD


