data_47111-ICSD
#?2014 by Fachinformationszentrum Karlsruhe, and the U.S. Secretary of 
#Commerce on behalf of the United States.  All rights reserved.
_database_code_ICSD                47111
_audit_creation_date               1985/02/12
_chemical_name_systematic          'Potassium Hexathiodigermanate(III)'
_chemical_formula_structural       'K6 Ge2 S6'
_chemical_formula_sum              'Ge2 K6 S6'
_publ_section_title
;
Ueber Thio-, Selenido- und Telluridogermanate(III): Zur Kenntnis von 
K6 Ge2 S6, K6 Ge2 Se6 und Na6 Ge2 Te6
;
loop_
_citation_id
_citation_journal_abbrev
_citation_year
_citation_journal_volume
_citation_page_first
_citation_page_last
_citation_journal_id_ASTM
primary 'Zeitschrift fuer Anorganische und Allgemeine Chemie (1950) (DE)'
 1984 516 49 54 ZAACAB
_publ_author_name
;
Eisenmann, B.;Kieselbach, E.;Schaefer, H.;Schrod, H.
;
_cell_length_a                     8.705(4)
_cell_length_b                     12.346(6)
_cell_length_c                     8.822(4)
_cell_angle_alpha                  90.
_cell_angle_beta                   116.62(5)
_cell_angle_gamma                  90.
_cell_volume                       847.61
_cell_formula_units_Z              2
_symmetry_space_group_name_H-M     'C 1 2/m 1'
_symmetry_Int_Tables_number        12
_refine_ls_R_factor_all            .0033
loop_
_symmetry_equiv_pos_site_id
_symmetry_equiv_pos_as_xyz
  1	'-x, y, -z'
  2	'-x, -y, -z'
  3	'x, -y, z'
  4	'x, y, z'
  5	'-x+.5, y+.5, -z'
  6	'-x+.5, -y+.5, -z'
  7	'x+.5, -y+.5, z'
  8	'x+.5, y+.5, z'
loop_
_atom_type_symbol
_atom_type_oxidation_number
Ge3+	3
K1+	1
S2-	-2
loop_
_atom_site_label
_atom_site_type_symbol
_atom_site_symmetry_multiplicity
_atom_site_Wyckoff_symbol
_atom_site_fract_x
_atom_site_fract_y
_atom_site_fract_z
_atom_site_occupancy
_atom_site_attached_hydrogens
K1 K1+ 4 e 0.25 0.25 0 1. 0 
K2 K1+ 4 i 0.7810(2) 0 0.3136(2) 1. 0 
K3 K1+ 4 h 0 0.3318(1) 0.5 1. 0 
Ge1 Ge3+ 4 i 0.8823(1) 0 0.8449(1) 1. 0 
S1 S2- 4 i 0.6319(2) 0 0.8574(2) 1. 0 
S2 S2- 8 j 0.9032(1) 0.1469(1) 0.7007(1) 1. 0 

loop_
_atom_site_aniso_label
_atom_site_aniso_type_symbol
_atom_site_aniso_U_11
_atom_site_aniso_U_22
_atom_site_aniso_U_33
_atom_site_aniso_U_12
_atom_site_aniso_U_13
_atom_site_aniso_U_23
K1 K1+ 0.0343(8) 0.0242(7) 0.0316(7) -.0097(6) -.0011(6) 0.0058(6)
K2 K1+ 0.0225(6) 0.0544(10) 0.0263(7) 0 0.0113(5) 0
K3 K1+ 0.0187(5) 0.0219(6) 0.0213(6) 0 0.0063(4) 0
Ge1 Ge3+ 0.0104(2) 0.0125(2) 0.0114(2) 0 0.0032(2) 0
S1 S2- 0.0134(6) 0.0203(6) 0.0210(6) 0 0.0079(5) 0
S2 S2- 0.0191(4) 0.0215(5) 0.0216(4) -.0029(4) 0.0065(4) 0.0075(4)
#End of data_47111-ICSD


