data_84913-ICSD
#?2014 by Fachinformationszentrum Karlsruhe, and the U.S. Secretary of 
#Commerce on behalf of the United States.  All rights reserved.
_database_code_ICSD                84913
_audit_creation_date               1999/01/19
_chemical_name_systematic
;
Dipotassium Tecto-divanado(IV)tetraphosphate(V)
;
_chemical_formula_structural       'K2 (V2 P4 O15)'
_chemical_formula_sum              'K2 O15 P4 V2'
_publ_section_title
;
A V(IV) tetraphosphate with a tunnel structure K2 (V O)2 P4 O13
;
loop_
_citation_id
_citation_journal_abbrev
_citation_year
_citation_journal_volume
_citation_page_first
_citation_page_last
_citation_journal_id_ASTM
primary 'Journal of Solid State Chemistry' 1997 132 41 46 JSSCBI
_publ_author_name
;
Borel, M.M.;Leclaire, A.;Chardon, J.;Provost, J.;Rebbah, H.;Raveau, 
B.
;
_cell_length_a                     22.181(2)
_cell_length_b                     11.564(1)
_cell_length_c                     9.548(1)
_cell_angle_alpha                  90.
_cell_angle_beta                   90.
_cell_angle_gamma                  90.
_cell_volume                       2449.07
_cell_formula_units_Z              8
_symmetry_space_group_name_H-M     'P b c a'
_symmetry_Int_Tables_number        61
_refine_ls_R_factor_all            .043
loop_
_symmetry_equiv_pos_site_id
_symmetry_equiv_pos_as_xyz
  1	'x+.5, y, -z+.5'
  2	'x, -y+.5, z+.5'
  3	'-x+.5, y+.5, z'
  4	'-x, -y, -z'
  5	'-x+.5, -y, z+.5'
  6	'-x, y+.5, -z+.5'
  7	'x+.5, -y+.5, -z'
  8	'x, y, z'
loop_
_atom_type_symbol
_atom_type_oxidation_number
K1+	1
O2-	-2
P5+	5
V4+	4
loop_
_atom_site_label
_atom_site_type_symbol
_atom_site_symmetry_multiplicity
_atom_site_Wyckoff_symbol
_atom_site_fract_x
_atom_site_fract_y
_atom_site_fract_z
_atom_site_occupancy
_atom_site_attached_hydrogens
_atom_site_B_iso_or_equiv
V1 V4+ 8 c 0.0304(1) 0.1198(2) 0.2578(2) 1. 0 0.51(5) 
V2 V4+ 8 c 0.22498(9) -.0687(2) -.0163(2) 1. 0 0.60(5) 
P1 P5+ 8 c 0.0299(1) 0.3814(3) 0.1254(3) 1. 0 0.52(6) 
P2 P5+ 8 c 0.1131(1) 0.5596(2) 0.2191(3) 1. 0 0.44(6) 
P3 P5+ 8 c 0.3086(1) 0.1510(2) -.0201(3) 1. 0 0.47(6) 
P4 P5+ 8 c 0.1675(1) 0.0270(2) 0.2708(3) 1. 0 0.46(6) 
K1 K1+ 8 c -.0619(1) 0.1544(2) -.0661(3) 1. 0 1.42(8) 
K2 K1+ 8 c 0.1351(1) 0.1998(2) -.0365(3) 1. 0 1.61(9) 
O1 O2- 8 c 0.0361(4) 0.0856(6) 0.0959(7) 1. 0 1.1(2) 
O2 O2- 8 c 0.0204(3) -.0394(6) 0.3326(7) 1. 0 0.8(2) 
O3 O2- 8 c 0.1190(3) 0.1151(6) 0.2973(7) 1. 0 0.6(2) 
O4 O2- 8 c 0.0416(3) 0.2917(6) 0.2393(8) 1. 0 0.6(2) 
O5 O2- 8 c -.0608(3) 0.1418(5) 0.2559(8) 1. 0 0.7(2) 
O6 O2- 8 c 0.0239(3) 0.1714(5) 0.4821(7) 1. 0 0.5(2) 
O7 O2- 8 c 0.2759(3) 0.8834(7) 0.0824(7) 1. 0 1.2(2) 
O8 O2- 8 c 0.2712(3) -.0729(6) 0.8050(7) 1. 0 0.8(2) 
O9 O2- 8 c 0.1626(3) -.0253(6) 0.1262(8) 1. 0 0.7(2) 
O10 O2- 8 c 0.1839(3) 0.7760(6) -.0516(8) 1. 0 0.6(2) 
O11 O2- 8 c 0.2459(3) 0.1038(5) -.0141(7) 1. 0 0.8(2) 
O12 O2- 8 c 0.1446(3) -.0163(6) 0.8443(7) 1. 0 0.7(2) 
O13 O2- 8 c 0.0915(3) 0.4573(6) 0.1211(8) 1. 0 0.6(2) 
O14 O2- 8 c 0.3410(3) 0.1299(7) 0.1257(8) 1. 0 1.1(2) 
O15 O2- 8 c 0.3470(3) 0.0796(6) 0.8751(8) 1. 0 0.6(2) 

#End of data_84913-ICSD


