data_84709-ICSD
#?2014 by Fachinformationszentrum Karlsruhe, and the U.S. Secretary of 
#Commerce on behalf of the United States.  All rights reserved.
_database_code_ICSD                84709
_audit_creation_date               1999/01/19
_audit_update_record               2010/02/01
_chemical_name_systematic
;
Sodium Tecto-cobalto(II)phosphate(V)
;
_chemical_formula_structural       'Na (Co P O4)'
_chemical_formula_sum              'Co1 Na1 O4 P1'
_publ_section_title
;
Synthesis, crystal structure, and magnetic properties of a new 
polymorphic sodium cobalt phosphate with trigonal bipyramidal Co(2+) 
and a tunnel structure
;
loop_
_citation_id
_citation_journal_abbrev
_citation_year
_citation_journal_volume
_citation_page_first
_citation_page_last
_citation_journal_id_ASTM
primary 'Journal of Solid State Chemistry' 1997 129 328 333 JSSCBI
_publ_author_name
;
Feng, P.-Y.;Bu Xianhui;Stucky, G.D.
;
_cell_length_a                     5.7856(1)
_cell_length_b                     11.0954(2)
_cell_length_c                     9.9228(3)
_cell_angle_alpha                  90.
_cell_angle_beta                   92.668(2)
_cell_angle_gamma                  90.
_cell_volume                       636.29
_cell_formula_units_Z              8
_symmetry_space_group_name_H-M     'P 1 21/c 1'
_symmetry_Int_Tables_number        14
_refine_ls_R_factor_all            .021
loop_
_symmetry_equiv_pos_site_id
_symmetry_equiv_pos_as_xyz
  1	'x, -y+.5, z+.5'
  2	'-x, -y, -z'
  3	'-x, y+.5, -z+.5'
  4	'x, y, z'
loop_
_atom_type_symbol
_atom_type_oxidation_number
Co2+	2
Na1+	1
O2-	-2
P5+	5
loop_
_atom_site_label
_atom_site_type_symbol
_atom_site_symmetry_multiplicity
_atom_site_Wyckoff_symbol
_atom_site_fract_x
_atom_site_fract_y
_atom_site_fract_z
_atom_site_occupancy
_atom_site_attached_hydrogens
_atom_site_U_iso_or_equiv
Co1 Co2+ 4 e 0.8896(1) 0.1037(1) 0.2672(1) 1. 0 0.008(1) 
Co2 Co2+ 4 e 0.6527(1) 0.8788(1) 0.5016(1) 1. 0 0.008(1) 
P1 P5+ 4 e 0.6236(1) 0.6152(1) 0.3297(1) 1. 0 0.006(1) 
P2 P5+ 4 e 0.1240(1) 0.8627(1) 0.4127(1) 1. 0 0.006(1) 
Na1 Na1+ 4 e 0.8755(2) 0.6308(1) 0.6218(1) 1. 0 0.020(1) 
Na2 Na1+ 4 e 0.3796(2) 0.6523(1) 0.6307(1) 1. 0 0.018(1) 
O1 O2- 4 e -.0952(3) 0.9389(1) 0.3747(2) 1. 0 0.009(1) 
O2 O2- 4 e 0.5935(3) 0.0334(2) 0.1723(2) 1. 0 0.010(1) 
O3 O2- 4 e 0.1549(3) 0.0365(2) 0.1509(2) 1. 0 0.011(1) 
O4 O2- 4 e 0.1520(3) 0.7711(2) 0.3015(2) 1. 0 0.011(1) 
O5 O2- 4 e -.0848(3) 0.1964(2) 0.4498(2) 1. 0 0.012(1) 
O6 O2- 4 e 0.3418(3) 0.9424(1) 0.4237(2) 1. 0 0.009(1) 
O7 O2- 4 e 0.6158(3) 0.7022(3) 0.4497(2) 1. 0 0.010(1) 
O8 O2- 4 e 0.6346(3) 0.8147(2) 0.6954(2) 1. 0 0.011(1) 

#End of data_84709-ICSD


