data_93527-ICSD
#?2014 by Fachinformationszentrum Karlsruhe, and the U.S. Secretary of 
#Commerce on behalf of the United States.  All rights reserved.
_database_code_ICSD                93527
_audit_creation_date               2003/04/01
_chemical_name_systematic
;
Potassium Oxotungsto(V)diphosphate(V)
;
_chemical_formula_structural       'K ((W O) (P2 O7))'
_chemical_formula_sum              'K1 O8 P2 W1'
_publ_section_title
;
Stabilization of the tungstyl ion configuration: the W(V) diphosphate 
K W O P2 O7
;
loop_
_citation_id
_citation_journal_abbrev
_citation_year
_citation_journal_volume
_citation_page_first
_citation_page_last
_citation_journal_id_ASTM
primary 'Journal of Materials Chemistry' 2001 11 846 848 JMACEP
_publ_author_name
;
Leclaire, A.;Chardon, J.;Raveau, B.
;
_cell_length_a                     5.0629(3)
_cell_length_b                     11.770(2)
_cell_length_c                     11.551(1)
_cell_angle_alpha                  90
_cell_angle_beta                   91.039(6)
_cell_angle_gamma                  90
_cell_volume                       688.21
_cell_formula_units_Z              4
_symmetry_space_group_name_H-M     'P 1 21/n 1'
_symmetry_Int_Tables_number        14
_refine_ls_R_factor_all            .036
loop_
_symmetry_equiv_pos_site_id
_symmetry_equiv_pos_as_xyz
  1	'-x+.5, y+.5, -z+.5'
  2	'-x, -y, -z'
  3	'x+.5, -y+.5, z+.5'
  4	'x, y, z'
loop_
_atom_type_symbol
_atom_type_oxidation_number
K1+	1
O2-	-2
P5+	5
W5+	5
loop_
_atom_site_label
_atom_site_type_symbol
_atom_site_symmetry_multiplicity
_atom_site_Wyckoff_symbol
_atom_site_fract_x
_atom_site_fract_y
_atom_site_fract_z
_atom_site_occupancy
_atom_site_attached_hydrogens
_atom_site_U_iso_or_equiv
W1 W5+ 4 e 0.26183(5) 0.11761(2) 0.16749(2) 1. 0 0.00593(5) 
P1 P5+ 4 e 0.7520(4) 0.4345(2) 0.3671(2) 1. 0 0.0067(4) 
P2 P5+ 4 e 0.7664(4) 0.3054(2) 0.1511(2) 1. 0 0.0070(4) 
K1 K1+ 4 e 0.7734(4) 0.1295(2) 0.4494(2) 1. 0 0.00239(5) 
O1 O2- 4 e 0.312(1) 0.1291(6) 0.3118(5) 1. 0 0.020(2) 
O2 O2- 4 e 0.052(1) 0.2616(5) 0.1455(5) 1. 0 0.014(1) 
O3 O2- 4 e 0.573(1) 0.2112(5) 0.1179(5) 1. 0 0.012(1) 
O4 O2- 4 e -0.071(1) 0.0248(5) 0.1817(4) 1. 0 0.011(1) 
O5 O2- 4 e 0.460(1) -0.0284(5) 0.1434(5) 1. 0 0.014(1) 
O6 O2- 4 e 0.187(1) 0.1080(5) -0.0144(4) 1. 0 0.014(1) 
O7 O2- 4 e 0.719(1) 0.3234(4) 0.2883(5) 1. 0 0.011(1) 
O8 O2- 4 e 0.730(1) 0.4116(5) 0.0863(5) 1. 0 0.017(2) 

loop_
_atom_site_aniso_label
_atom_site_aniso_type_symbol
_atom_site_aniso_U_11
_atom_site_aniso_U_22
_atom_site_aniso_U_33
_atom_site_aniso_U_12
_atom_site_aniso_U_13
_atom_site_aniso_U_23
W1 W5+ 0.00244(8) 0.00772(9) 0.00762(9) -0.0007(1) 0.00013(5) -0.0016(1)
P1 P5+ 0.0049(7) 0.0071(7) 0.0080(7) 0.0007(6) 0.0004(6) -0.0005(6)
P2 P5+ 0.0045(7) 0.0061(7) 0.0103(9) -0.0002(6) 0.0010(6) -0.0020(6)
K1 K1+ 0.0250(9) 0.0173(9) 0.0289(9) 0.0018(7) -0.0096(7) -0.0031(8)
O1 O2- 0.016(2) 0.031(4) 0.013(2) -0.002(3) -0.001(2) -0.004(3)
O2 O2- 0.003(2) 0.012(2) 0.027(3) 0.002(2) 0.001(2) -0.001(2)
O3 O2- 0.005(2) 0.014(2) 0.017(2) -0.005(2) 0.003(2) -0.003(2)
O4 O2- 0.006(2) 0.013(2) 0.013(2) -0.004(2) -0.001(2) 0.000(2)
O5 O2- 0.008(2) 0.010(2) 0.025(3) 0.001(2) -0.000(2) 0.001(2)
O6 O2- 0.012(2) 0.019(3) 0.010(2) -0.000(2) 0.001(2) 0.001(2)
O7 O2- 0.013(2) 0.006(2) 0.015(2) -0.002(2) 0.003(2) -0.000(2)
O8 O2- 0.020(3) 0.010(2) 0.022(3) 0.001(2) 0.002(2) 0.005(2)
#End of data_93527-ICSD


