data_50376-ICSD
#?2014 by Fachinformationszentrum Karlsruhe, and the U.S. Secretary of 
#Commerce on behalf of the United States.  All rights reserved.
_database_code_ICSD                50376
_audit_creation_date               1999/11/30
_chemical_name_systematic
;
Disodium Phyllo-vanado(IV)diphosphate(V)
;
_chemical_formula_structural       'Na2 (V P2 O8)'
_chemical_formula_sum              'Na2 O8 P2 V1'
_publ_section_title
;
New polymorphs of A2 V P2 O8 (A = Na, Rb): structure determination 
and ionic conductivity
;
loop_
_citation_id
_citation_journal_abbrev
_citation_year
_citation_journal_volume
_citation_page_first
_citation_page_last
_citation_journal_id_ASTM
primary 'Solid State Ionics' 1998 106 103 112 SSIOD3
_publ_author_name                  'Daidouh, A.;Veiga, M.L.;Pico, C.'
_cell_length_a                     8.108(4)
_cell_length_b                     8.108(4)
_cell_length_c                     4.943(6)
_cell_angle_alpha                  90.
_cell_angle_beta                   90.
_cell_angle_gamma                  90.
_cell_volume                       324.95
_cell_formula_units_Z              2
_symmetry_space_group_name_H-M     'P 4 b m'
_symmetry_Int_Tables_number        100
_refine_ls_R_factor_all            .0623
loop_
_symmetry_equiv_pos_site_id
_symmetry_equiv_pos_as_xyz
  1	'-y+.5, -x+.5, z'
  2	'y+.5, x+.5, z'
  3	'y, -x, z'
  4	'-y, x, z'
  5	'-x+.5, y+.5, z'
  6	'x+.5, -y+.5, z'
  7	'-x, -y, z'
  8	'x, y, z'
loop_
_atom_type_symbol
_atom_type_oxidation_number
Na1+	1
O2-	-2
P5+	5
V4+	4
loop_
_atom_site_label
_atom_site_type_symbol
_atom_site_symmetry_multiplicity
_atom_site_Wyckoff_symbol
_atom_site_fract_x
_atom_site_fract_y
_atom_site_fract_z
_atom_site_occupancy
_atom_site_attached_hydrogens
V1 V4+ 2 a 0 0 -.030(1) 1. 0 
Na1 Na1+ 4 c 0.829(1) 0.329(1) 0.474(6) 1. 0 
P1 P5+ 4 c 0.618(3) 0.118(3) -.018 1. 0 
O1 O2- 2 a 0.5 0.5 0.281(6) 1. 0 
O2 O2- 4 c 0.637(2) 0.137(2) 0.279(6) 1. 0 
O3 O2- 8 d 0.722(1) 0.562(2) -.145(5) 1. 0 
O4 O2- 2 b 0.5 0 -.174(2) 1. 0 

#End of data_50376-ICSD


