data_26127-ICSD
#?2014 by Fachinformationszentrum Karlsruhe, and the U.S. Secretary of 
#Commerce on behalf of the United States.  All rights reserved.
_database_code_ICSD                26127
_audit_creation_date               1980/01/01
_audit_update_record               2006/04/01
_chemical_name_systematic
;
Dipotassium Hexachlorotellurate(IV)
;
_chemical_formula_structural       'K2 (Te Cl6)'
_chemical_formula_sum              'Cl6 K2 Te1'
_publ_section_title
;
Die Kristallstrukturen einiger Hexachlorokomplexsalze.
;
loop_
_citation_id
_citation_journal_abbrev
_citation_year
_citation_journal_volume
_citation_page_first
_citation_page_last
_citation_journal_id_ASTM
primary
;
Zeitschrift fuer Kristallographie, Kristallgeometrie, Kristallphysik, 
Kristallchemie (-144,1977)
;
 1935 90 341 373 ZEKGAX
_publ_author_name                  'Engel, G.'
_cell_length_a                     7.17
_cell_length_b                     7.17
_cell_length_c                     10.14
_cell_angle_alpha                  90.
_cell_angle_beta                   90.
_cell_angle_gamma                  90.
_cell_volume                       521.29
_cell_formula_units_Z              2
_symmetry_space_group_name_H-M     'I 1 2/m 1'
_symmetry_Int_Tables_number        12
loop_
_symmetry_equiv_pos_site_id
_symmetry_equiv_pos_as_xyz
  1	'x, -y, z'
  2	'-x, -y, -z'
  3	'-x, y, -z'
  4	'x, y, z'
  5	'x+.5, -y+.5, z+.5'
  6	'-x+.5, -y+.5, -z+.5'
  7	'-x+.5, y+.5, -z+.5'
  8	'x+.5, y+.5, z+.5'
loop_
_atom_type_symbol
_atom_type_oxidation_number
Cl1-	-1
K1+	1
Te4+	4
loop_
_atom_site_label
_atom_site_type_symbol
_atom_site_symmetry_multiplicity
_atom_site_Wyckoff_symbol
_atom_site_fract_x
_atom_site_fract_y
_atom_site_fract_z
_atom_site_occupancy
_atom_site_attached_hydrogens
Te1 Te4+ 2 a 0 0 0 1. 0 
K1 K1+ 4 i 0.5 0 0.25 1. 0 
Cl1 Cl1- 4 i 0 0 0.25 1. 0 
Cl2 Cl1- 8 j 0.251 0.251 0 1. 0 

#End of data_26127-ICSD


