data_88600-ICSD
#?2014 by Fachinformationszentrum Karlsruhe, and the U.S. Secretary of 
#Commerce on behalf of the United States.  All rights reserved.
_database_code_ICSD                88600
_audit_creation_date               2001/07/16
_chemical_name_systematic          'Barium Disamarium Zinc Oxide'
_chemical_formula_structural       'Ba Sm2 Zn O5'
_chemical_formula_sum              'Ba1 O5 Sm2 Zn1'
_publ_section_title
;
Crystal structures and reference powder patterns of Ba R2 Zn O5 (R = 
La, Nd, Sm, Eu, Gd, Dy, Ho, Y, Er and Tm)
;
loop_
_citation_id
_citation_journal_abbrev
_citation_year
_citation_journal_volume
_citation_journal_issue
_citation_page_first
_citation_page_last
_citation_journal_id_ASTM
primary
;
Journal of Research of the National Institute of standards and 
Technology
;
 1999 104 2 147 171 JRITEF
_publ_author_name
;
Kaduk, J.A.;Wong-Ng, W.;Greenwood, W.;Dillingham, J.;Toby, B.H.
;
_cell_length_a                     7.20447(14)
_cell_length_b                     12.58817(23)
_cell_length_c                     5.81214(10)
_cell_angle_alpha                  90.
_cell_angle_beta                   90.
_cell_angle_gamma                  90.
_cell_volume                       527.11
_cell_formula_units_Z              4
_symmetry_space_group_name_H-M     'P b n m'
_symmetry_Int_Tables_number        62
_refine_ls_R_factor_all            .059
loop_
_symmetry_equiv_pos_site_id
_symmetry_equiv_pos_as_xyz
  1	'-x+.5, y+.5, z'
  2	'x, y, -z+.5'
  3	'x+.5, -y+.5, z+.5'
  4	'-x, -y, -z'
  5	'x+.5, -y+.5, -z'
  6	'-x, -y, z+.5'
  7	'-x+.5, y+.5, -z+.5'
  8	'x, y, z'
loop_
_atom_type_symbol
_atom_type_oxidation_number
Ba2+	2
O2-	-2
Sm3+	3
Zn2+	2
loop_
_atom_site_label
_atom_site_type_symbol
_atom_site_symmetry_multiplicity
_atom_site_Wyckoff_symbol
_atom_site_fract_x
_atom_site_fract_y
_atom_site_fract_z
_atom_site_occupancy
_atom_site_attached_hydrogens
_atom_site_U_iso_or_equiv
Ba1 Ba2+ 4 c 0.9246(3) 0.9012(2) 0.25 1. 0 0.0071(7) 
Sm1 Sm3+ 4 c 0.1186(3) 0.2920(2) 0.25 1. 0 0.0041(4) 
Sm2 Sm3+ 4 c 0.3965(3) 0.0750(2) 0.25 1. 0 0.0041(4) 
Zn1 Zn2+ 4 c 0.6890(7) 0.6499(4) 0.25 1. 0 0.0071(16) 
O1 O2- 8 d 0.1692(22) 0.4292(17) -.0226(29) 1. 0 0.014(3) 
O2 O2- 8 d 0.3566(26) 0.2174(15) 0.5020(31) 1. 0 0.014(3) 
O3 O2- 4 c 0.0663(34) 0.0996(21) 0.25 1. 0 0.014(3) 

#End of data_88600-ICSD


