data_73011-ICSD
#?2014 by Fachinformationszentrum Karlsruhe, and the U.S. Secretary of 
#Commerce on behalf of the United States.  All rights reserved.
_database_code_ICSD                73011
_audit_creation_date               1994/06/30
_audit_update_record               2008/02/01
_chemical_name_systematic
;
Dicarbonylsilver Tetrakis(oxopentafluorotellurato)borate
;
_chemical_formula_structural       '(Ag (C O)2) (B (O Te F5)4)'
_chemical_formula_sum              'C2 Ag1 B1 F20 O6 Te4'
_publ_section_title
;
(Ag (C O)2) (B (O Te F5)4): the first structurally characterized M (C 
O)2 complex
;
loop_
_citation_id
_citation_journal_abbrev
_citation_year
_citation_journal_volume
_citation_journal_issue
_citation_page_first
_citation_page_last
_citation_journal_id_ASTM
primary 'Inorganic Chemistry' 1993 32 4 373 374 INOCAJ
_publ_author_name
;
Hurlburt, P.K.;Rack, J.J.;Dec, S.F.;Anderson, O.P.;Strauss, S.H.
;
_cell_length_a                     10.367(5)
_cell_length_b                     13.146(7)
_cell_length_c                     16.56(1)
_cell_angle_alpha                  87.77(5)
_cell_angle_beta                   76.38(4)
_cell_angle_gamma                  89.06(4)
_cell_volume                       2191.68
_cell_formula_units_Z              4
_symmetry_space_group_name_H-M     'P -1'
_symmetry_Int_Tables_number        2
_refine_ls_R_factor_all            .078
loop_
_symmetry_equiv_pos_site_id
_symmetry_equiv_pos_as_xyz
  1	'-x, -y, -z'
  2	'x, y, z'
loop_
_atom_type_symbol
_atom_type_oxidation_number
Ag1+	1
B3+	3
C2+	2
F1-	-1
O2-	-2
Te6+	6
loop_
_atom_site_label
_atom_site_type_symbol
_atom_site_symmetry_multiplicity
_atom_site_Wyckoff_symbol
_atom_site_fract_x
_atom_site_fract_y
_atom_site_fract_z
_atom_site_occupancy
_atom_site_attached_hydrogens
_atom_site_U_iso_or_equiv
Ag1 Ag1+ 2 i 0.21284(28) 0.26144(14) 0.05981(12) 1. 0 0 
Ag2 Ag1+ 1 b 0 0 0.5 1. 0 0 
Ag3 Ag1+ 1 h 0.5 0.5 0.5 1. 0 0 
C1 C2+ 2 i 0.0075(35) 0.2309(19) 0.0533(15) 1. 0 0 
C2 C2+ 2 i 0.4208(38) 0.2620(21) 0.0596(18) 1. 0 0 
C3 C2+ 2 i 0.8922(52) 0.9624(24) 0.4157(24) 1. 0 0 
C4 C2+ 2 i 0.4115(26) 0.4985(19) 0.3959(18) 1. 0 0 
O1 O2- 2 i 0.9098(26) 0.2065(19) 0.0524(15) 1. 0 0 
O2 O2- 2 i 0.5250(28) 0.2620(17) 0.0625(14) 1. 0 0 
O3 O2- 2 i 0.8252(27) 0.9438(18) 0.3766(18) 1. 0 0 
O4 O2- 2 i 0.3683(19) 0.4989(14) 0.3426(12) 1. 0 0 
O5 O2- 2 i 0.08158(96) 0.54535(89) 0.23293(66) 1. 0 0 
O6 O2- 2 i 0.8812(10) 0.51851(76) 0.33713(62) 1. 0 0 
O7 O2- 2 i 0.8769(11) 0.55089(83) 0.19178(68) 1. 0 0 
O8 O2- 2 i 0.9528(11) 0.39031(79) 0.23823(68) 1. 0 0 
O9 O2- 2 i 0.3683(11) 0.92703(91) 0.19787(77) 1. 0 0 
O10 O2- 2 i 0.4154(12) 0.08105(86) 0.25370(72) 1. 0 0 
O11 O2- 2 i 0.3557(12) 0.93954(90) 0.34514(71) 1. 0 0 
O12 O2- 2 i 0.5629(12) 0.93236(98) 0.24497(71) 1. 0 0 
B1 B3+ 2 i 0.9458(16) 0.5008(13) 0.2511(10) 1. 0 0 
B2 B3+ 2 i 0.4273(18) 0.9697(14) 0.2602(11) 1. 0 0 
Te1 Te6+ 2 i 0.20859(10) 0.55275(8) 0.13676(6) 1. 0 0 
Te2 Te6+ 2 i 0.88431(10) 0.62742(7) 0.40150(6) 1. 0 0 
Te3 Te6+ 2 i 0.71798(10) 0.51749(8) 0.17068(6) 1. 0 0 
Te4 Te6+ 2 i 0.97478(10) 0.28556(7) 0.31030(6) 1. 0 0 
Te5 Te6+ 2 i 0.2088(1) 0.94602(8) 0.17092(7) 1. 0 0 
Te6 Te6+ 2 i 0.45056(12) 0.17526(9) 0.32517(8) 1. 0 0 
Te7 Te6+ 2 i 0.36572(12) 0.82002(8) 0.40550(6) 1. 0 0 
Te8 Te6+ 2 i 0.69072(11) 0.92802(9) 0.14884(7) 1. 0 0 
F1 F1- 2 i 0.28792(95) 0.43713(81) 0.16687(72) 1. 0 0 
F2 F1- 2 i 0.1207(10) 0.47332(78) 0.07984(61) 1. 0 0 
F3 F1- 2 i 0.1385(13) 0.66453(83) 0.09604(70) 1. 0 0 
F4 F1- 2 i 0.31173(99) 0.63007(83) 0.18501(70) 1. 0 0 
F5 F1- 2 i 0.3426(11) 0.5572(10) 0.04416(68) 1. 0 0 
F6 F1- 2 i 0.8450(12) 0.54423(81) 0.49299(58) 1. 0 0 
F7 F1- 2 i 0.0610(11) 0.61273(87) 0.40060(72) 1. 0 0 
F8 F1- 2 i 0.9167(11) 0.71917(73) 0.31491(60) 1. 0 0 
F9 F1- 2 i 0.7041(11) 0.64722(89) 0.41377(66) 1. 0 0 
F10 F1- 2 i 0.8781(15) 0.73303(96) 0.47049(72) 1. 0 0 
F11 F1- 2 i 0.7881(12) 0.41498(92) 0.10520(73) 1. 0 0 
F12 F1- 2 i 0.7551(11) 0.60643(93) 0.08048(65) 1. 0 0 
F13 F1- 2 i 0.6312(10) 0.61759(91) 0.23392(69) 1. 0 0 
F14 F1- 2 i 0.6673(10) 0.42884(82) 0.25987(68) 1. 0 0 
F15 F1- 2 i 0.5647(12) 0.4908(12) 0.14331(83) 1. 0 0 
F16 F1- 2 i 0.8261(14) 0.31252(92) 0.38790(79) 1. 0 0 
F17 F1- 2 i 0.0757(13) 0.35839(80) 0.36299(65) 1. 0 0 
F18 F1- 2 i 0.1239(10) 0.24445(76) 0.23751(64) 1. 0 0 
F19 F1- 2 i 0.8845(13) 0.20262(98) 0.26142(92) 1. 0 0 
F20 F1- 2 i 0.9996(13) 0.17624(84) 0.37786(74) 1. 0 0 
F21 F1- 2 i 0.1339(14) 0.0161(11) 0.26313(90) 1. 0 0 
F22 F1- 2 i 0.2657(16) 0.06865(97) 0.11385(92) 1. 0 0 
F23 F1- 2 i 0.2707(13) 0.8782(10) 0.07602(64) 1. 0 0 
F24 F1- 2 i 0.1398(13) 0.82988(99) 0.22203(83) 1. 0 0 
F25 F1- 2 i 0.0563(14) 0.9683(17) 0.1375(11) 1. 0 0 
F26 F1- 2 i 0.2905(16) 0.1551(12) 0.39610(87) 1. 0 0 
F27 F1- 2 i 0.5389(19) 0.0894(10) 0.3818(10) 1. 0 0.1160(81) 
F28 F1- 2 i 0.6115(14) 0.2083(11) 0.2538(11) 1. 0 0.1049(64) 
F29 F1- 2 i 0.3740(14) 0.27182(97) 0.27278(96) 1. 0 0.0942(57) 
F30 F1- 2 i 0.4827(18) 0.2738(10) 0.39170(96) 1. 0 0.1036(67) 
F31 F1- 2 i 0.3106(14) 0.88618(92) 0.50164(59) 1. 0 0.0799(45) 
F32 F1- 2 i 0.1919(15) 0.7984(13) 0.41186(97) 1. 0 0.1072(66) 
F33 F1- 2 i 0.4129(16) 0.74003(90) 0.31626(75) 1. 0 0.0990(58) 
F34 F1- 2 i 0.5347(14) 0.8350(13) 0.41257(92) 1. 0 0.1063(65) 
F35 F1- 2 i 0.3643(18) 0.7045(10) 0.46984(79) 1. 0 0.1123(65) 
F36 F1- 2 i 0.7850(13) 0.8347(10) 0.19455(85) 1. 0 0.0882(51) 
F37 F1- 2 i 0.7836(11) 0.0314(11) 0.18044(87) 1. 0 0.0896(51) 
F38 F1- 2 i 0.6078(12) 0.0195(10) 0.09079(66) 1. 0 0.0809(44) 
F39 F1- 2 i 0.6159(13) 0.8260(10) 0.10696(83) 1. 0 0.0875(52) 
F40 F1- 2 i 0.8236(12) 0.9214(11) 0.05387(73) 1. 0 0.0861(49) 

loop_
_atom_site_aniso_label
_atom_site_aniso_type_symbol
_atom_site_aniso_U_11
_atom_site_aniso_U_22
_atom_site_aniso_U_33
_atom_site_aniso_U_12
_atom_site_aniso_U_13
_atom_site_aniso_U_23
Ag1 Ag1+ 0.1688(23) 0.0641(10) 0.0768(11) 0.0040(12) -.0062(12) 0.0033(8)
Ag2 Ag1+ 0.1463(35) 0.1162(28) 0.1448(32) 0.0304(25) -.0362(27) 0.0130(23)
Ag3 Ag1+ 0.0833(18) 0.1034(21) 0.1236(23) -.0160(15) -.0076(16) 0.0113(18)
C1 C2+ 0.129(23) 0.063(12) 0.065(12) 0.007(14) -0.022(14) 0.0085(94)
C2 C2+ 0.137(26) 0.064(14) 0.087(17) -0.002(16) -0.013(18) -0.006(11)
C3 C2+ 0.213(49) 0.060(17) 0.120(27) 0.055(24) -0.032(26) -0.009(15)
C4 C2+ 0.072(14) 0.072(14) 0.102(18) -0.004(11) 0.021(13) 0.006(13)
O1 O2- 0.134(19) 0.106(16) 0.124(16) 0.037(15) -0.026(16) 0.014(13)
O2 O2- 0.152(21) 0.095(14) 0.111(15) -.0494 0.001(15) 0.001(11)
O3 O2- 0.128(20) 0.078(13) 0.166(25) 0.013(13) -0.005(16) -0.005(15)
O4 O2- 0.089(12) 0.088(12) 0.096(12) 0.0020(91) 0.0051(97) 0.014(10)
O5 O2- 0.0331(47) 0.0693(70) 0.0569(59) -.0046(44) -.0079(42) -.0112(50)
O6 O2- 0.0471(53) 0.0422(50) 0.0518(54) 0.0004(40) 0.0037(43) 0.0019(41)
O7 O2- 0.0502(58) 0.0511(58) 0.0591(60) -.0004(45) -.0079(48) 0.0155(47)
O8 O2- 0.0477(55) 0.0441(53) 0.0637(63) 0.0024(42) -.0114(47) 0.0026(45)
O9 O2- 0.0483(60) 0.0568(64) 0.0733(72) -.0007(49) -.0098(53) -.0024(54)
O10 O2- 0.0593(67) 0.0526(61) 0.0621(64) 0.0002(50) -.0187(53) -.0017(50)
O11 O2- 0.0628(69) 0.0549(63) 0.0565(61) 0.0019(51) -.0069(51) 0.0010(49)
O12 O2- 0.0521(63) 0.0738(77) 0.0564(63) 0.0006(55) -.0113(50) 0.0071(55)
B1 B3+ 0.0430(78) 0.0466(81) 0.0461(78) 0.0076(62) -.0037(62) 0.0037(63)
B2 B3+ 0.0470(86) 0.0484(87) 0.0557(92) 0.0001(68) -.0075(71) 0.0016(70)
Te1 Te6+ 0.0432(5) 0.0479(5) 0.0499(5) -.0075(4) -.0023(4) 0.0002(4)
Te2 Te6+ 0.0533(5) 0.0454(5) 0.0449(5) 0.0011(4) -.0028(4) 0.0008(4)
Te3 Te6+ 0.0399(5) 0.0560(6) 0.0539(5) 0.0047(4) -.0090(4) -.0004(4)
Te4 Te6+ 0.0479(5) 0.0433(5) 0.0535(5) -.0020(4) -.0045(4) 0.0037(4)
Te5 Te6+ 0.0439(5) 0.0539(6) 0.0701(7) -.0021(4) -.0163(5) 0.0005(5)
Te6 Te6+ 0.0610(7) 0.0482(6) 0.0837(8) 0.0026(5) -.0268(6) -.0075(5)
Te7 Te6+ 0.0621(6) 0.0531(6) 0.0492(5) 0.0052(5) 0.0038(4) 0.0023(4)
Te8 Te6+ 0.0488(5) 0.0604(6) 0.0547(6) 0.0070(4) -.0023(4) -.0048(4)
F1 F1- 0.0423(48) 0.0654(61) 0.0940(74) 0.0061(43) -.0023(47) 0.0016(53)
F2 F1- 0.0608(56) 0.0623(57) 0.0643(55) -.0189(44) -.0037(44) -.0126(44)
F3 F1- 0.0968(87) 0.0593(61) 0.0765(68) -.0066(57) -.0288(62) 0.0110(51)
F4 F1- 0.0504(53) 0.0669(61) 0.0880(71) -.0148(45) -.0154(49) -.0076(52)
F5 F1- 0.0619(64) 0.1056(92) 0.0688(64) -.0281(61) 0.0029(50) 0.0004(60)
F6 F1- 0.0894(77) 0.0624(58) 0.0510(51) -.0083(52) -.0086(49) 0.0062(43)
F7 F1- 0.0580(58) 0.0735(68) 0.0877(72) -.0137(49) -.0230(54) -.0036(55)
F8 F1- 0.0872(75) 0.048(5) 0.0597(54) -.0053(48) -.0021(50) 0.0068(41)
F9 F1- 0.0649(63) 0.0740(67) 0.0703(62) 0.0145(52) 0.0068(49) -.0020(51)
F10 F1- 0.118(11) 0.0737(74) 0.0680(67) -.0087(69) -.0107(66) -.0153(56)
F11 F1- 0.0689(66) 0.0782(73) 0.0850(73) 0.0087(54) -.0254(57) -.0209(58)
F12 F1- 0.0674(65) 0.0889(78) 0.0636(59) 0.0261(57) -.0129(49) 0.0002(53)
F13 F1- 0.0514(55) 0.0805(71) 0.0792(67) 0.0118(49) -.0018(48) -.0111(55)
F14 F1- 0.0613(61) 0.0650(62) 0.0815(68) -.0157(48) -.0115(51) 0.0140(52)
F15 F1- 0.0573(67) 0.126(11) 0.0972(89) 0.0099(68) -.0293(63) -.0065(78)
F16 F1- 0.0940(89) 0.0681(71) 0.0881(77) 0.0017(61) 0.0340(65) 0.0098(59)
F17 F1- 0.1029(87) 0.0595(59) 0.0631(59) 0.0016(56) -.0384(59) -.0031(46)
F18 F1- 0.0580(55) 0.0569(54) 0.0746(61) 0.0164(44) -.0059(46) 0.0011(46)
F19 F1- 0.0707(73) 0.0746(75) 0.131(11) -.0282(59) -.0349(73) 0.0167(72)
F20 F1- 0.0909(81) 0.0578(60) 0.0867(75) 0.0067(55) -.0166(62) 0.0233(54)
F21 F1- 0.0796(83) 0.0881(87) 0.1107(96) 0.0313(69) 0.0001(71) -.0201(74)
F22 F1- 0.122(11) 0.0611(69) 0.1120(99) -.0056(70) -.0243(85) 0.0283(67)
F23 F1- 0.0912(83) 0.0929(82) 0.0539(55) -.0194(64) -.0186(54) -.0003(53)
F24 F1- 0.0798(81) 0.0798(79) 0.1040(89) -.0393(64) 0.0067(67) -.0012(67)
F25 F1- 0.0600(81) 0.193(19) 0.137(13) 0.0001(97) -.0375(86) -0.007(13)
F26 F1- 0.110(11) 0.104(11) 0.0950(91) -.0001(86) 0.0373(79) -.0285(79)
#End of data_73011-ICSD


