data_261585-ICSD
#?2014 by Fachinformationszentrum Karlsruhe, and the U.S. Secretary of 
#Commerce on behalf of the United States.  All rights reserved.
_database_code_ICSD                261585
_audit_creation_date               2011/08/01
_chemical_name_systematic
;
Dipotassium Cobalt(II) Bis(dihydrogendiphosphate) Dihydrate
;
_chemical_formula_structural       'K2 Co (H2 P2 O7)2 (H2 O)2'
_chemical_formula_sum              'H8 Co1 K2 O16 P4'
_publ_section_title
;
The triclinic form of dipotassium cobalt(II) 
bis(dihydrogendiphosphate) dihydrate
;
loop_
_citation_id
_citation_journal_abbrev
_citation_year
_citation_journal_volume
_citation_journal_issue
_citation_page_first
_citation_page_last
_citation_journal_id_ASTM
primary 'Acta Crystallographica, Section E. Structure Reports Online'
 2011 67 6 i37 i38 ACSEBH
_publ_author_name
;
Lamhamdi, A.;Essehli, R.;El Bali, B.;Dusek, M.;Fejfarova, K.
;
_cell_length_a                     6.8737(14)
_cell_length_b                     7.3565(11)
_cell_length_c                     7.6141(14)
_cell_angle_alpha                  80.740(14)
_cell_angle_beta                   72.397(17)
_cell_angle_gamma                  83.484(14)
_cell_volume                       361.35
_cell_formula_units_Z              1
_symmetry_space_group_name_H-M     'P -1'
_symmetry_Int_Tables_number        2
_refine_ls_R_factor_all            .0382
loop_
_symmetry_equiv_pos_site_id
_symmetry_equiv_pos_as_xyz
  1	'-x, -y, -z'
  2	'x, y, z'
loop_
_atom_type_symbol
_atom_type_oxidation_number
Co2+	2
H1+	1
K1+	1
O2-	-2
P5+	5
loop_
_atom_site_label
_atom_site_type_symbol
_atom_site_symmetry_multiplicity
_atom_site_Wyckoff_symbol
_atom_site_fract_x
_atom_site_fract_y
_atom_site_fract_z
_atom_site_occupancy
_atom_site_attached_hydrogens
_atom_site_U_iso_or_equiv
K1 K1+ 2 i 0.89288(17) 0.26574(14) 0.70307(15) 1 0 0.0365(4) 
Co1 Co2+ 1 h 0.5 0.5 0.5 1 0 0.0172(3) 
P1 P5+ 2 i 0.32488(16) 0.27153(14) 0.24623(14) 1 0 0.0181(4) 
P2 P5+ 2 i 0.75153(16) 0.18965(14) 0.24070(14) 1 0 0.0177(4) 
O1 O2- 2 i 0.5649(4) 0.2309(4) 0.1518(4) 1 0 0.0242(11) 
O2 O2- 2 i 0.2951(4) 0.3930(4) 0.3932(4) 1 0 0.0213(10) 
O3 O2- 2 i 0.2401(4) 0.3486(4) 0.0882(4) 1 0 0.0241(10) 
O4 O2- 2 i 0.2372(5) 0.0812(4) 0.3353(4) 1 0 0.0263(11) 
H1 H1+ 2 i 0.252(7) 0.045(6) 0.437(6) 1 0 0.0316 
O5 O2- 2 i 0.7435(4) 0.3267(4) 0.3681(4) 1 0 0.0231(10) 
O6 O2- 2 i 0.9309(4) 0.2143(4) 0.0601(4) 1 0 0.0258(11) 
H2 H1+ 2 i 1.011(7) 0.252(7) 0.083(7) 1 0 0.0309 
O7 O2- 2 i 0.7467(5) -0.0072(4) 0.3310(4) 1 0 0.0283(11) 
O8 O2- 2 i 0.5496(5) 0.7064(4) 0.2702(4) 1 0 0.0274(12) 
H3 H1+ 2 i 0.602(8) 0.692(7) 0.176(7) 1 0 0.0329 
H4 H1+ 2 i 0.606(7) 0.790(7) 0.280(7) 1 0 0.0329 

loop_
_atom_site_aniso_label
_atom_site_aniso_type_symbol
_atom_site_aniso_U_11
_atom_site_aniso_U_22
_atom_site_aniso_U_33
_atom_site_aniso_U_12
_atom_site_aniso_U_13
_atom_site_aniso_U_23
K1 K1+ 0.0433(6) 0.0353(6) 0.0362(6) 0.0096(5) -0.0215(5) -0.0093(5)
Co1 Co2+ 0.0201(4) 0.0177(4) 0.0175(4) 0.0005(3) -0.0093(3) -0.0069(3)
P1 P5+ 0.0183(5) 0.0215(6) 0.0184(5) -0.0008(4) -0.0095(4) -0.0062(4)
P2 P5+ 0.0193(5) 0.0204(6) 0.0166(5) 0.0009(4) -0.0084(4) -0.0068(4)
O1 O2- 0.0183(15) 0.0363(18) 0.0229(15) 0.0048(12) -0.0110(12) -0.0128(13)
O2 O2- 0.0212(15) 0.0236(15) 0.0238(15) -0.0009(12) -0.0095(12) -0.0110(12)
O3 O2- 0.0222(16) 0.0337(17) 0.0198(15) -0.0011(13) -0.0130(13) -0.0008(13)
O4 O2- 0.0359(18) 0.0235(16) 0.0238(17) -0.0081(13) -0.0143(15) -0.0005(13)
O5 O2- 0.0225(16) 0.0294(16) 0.0225(15) 0.0037(13) -0.0099(13) -0.0156(13)
O6 O2- 0.0215(17) 0.0403(19) 0.0180(15) -0.0081(14) -0.0039(13) -0.0105(14)
O7 O2- 0.0388(18) 0.0224(16) 0.0269(17) -0.0040(14) -0.0137(14) -0.0024(13)
O8 O2- 0.039(2) 0.0253(18) 0.0188(16) -0.0079(15) -0.0065(15) -0.0063(14)
#End of data_261585-ICSD


