data_261132-ICSD
#?2014 by Fachinformationszentrum Karlsruhe, and the U.S. Secretary of 
#Commerce on behalf of the United States.  All rights reserved.
_database_code_ICSD                261132
_audit_creation_date               2011/02/01
_chemical_name_systematic
;
Magnesium Bis(chlorate(VII)) Dihydrate
;
_chemical_formula_structural       'Mg (Cl O4)2 (H2 O)2'
_chemical_formula_sum              'H4 Cl2 Mg1 O10'
_publ_section_title
;
Determination of the crystal structure of magnesium perchlorate 
hydrates by X-ray powder diffraction and the charge-flipping method
;
loop_
_citation_id
_citation_journal_abbrev
_citation_year
_citation_journal_volume
_citation_journal_issue
_citation_page_first
_citation_page_last
_citation_journal_id_ASTM
primary 'Acta Crystallographica, Section B: Structural Science'
 2010 66 6 579 584 ASBSDK
_publ_author_name                  'Robertson, K.;Bish, D.'
_cell_length_a                     14.38776(64)
_cell_length_b                     5.21861(19)
_cell_length_c                     5.43805(25)
_cell_angle_alpha                  90
_cell_angle_beta                   108.1987(21)
_cell_angle_gamma                  90
_cell_volume                       387.89
_cell_formula_units_Z              2
_symmetry_space_group_name_H-M     'C 1 2/m 1'
_symmetry_Int_Tables_number        12
_refine_ls_R_factor_all            .053
loop_
_symmetry_equiv_pos_site_id
_symmetry_equiv_pos_as_xyz
  1	'-x, y, -z'
  2	'-x, -y, -z'
  3	'x, -y, z'
  4	'x, y, z'
  5	'-x+.5, y+.5, -z'
  6	'-x+.5, -y+.5, -z'
  7	'x+.5, -y+.5, z'
  8	'x+.5, y+.5, z'
loop_
_atom_type_symbol
_atom_type_oxidation_number
Cl7+	7
H1+	1
Mg2+	2
O2-	-2
loop_
_atom_site_label
_atom_site_type_symbol
_atom_site_symmetry_multiplicity
_atom_site_Wyckoff_symbol
_atom_site_fract_x
_atom_site_fract_y
_atom_site_fract_z
_atom_site_occupancy
_atom_site_attached_hydrogens
_atom_site_B_iso_or_equiv
Mg1 Mg2+ 2 c 0 0 0.5 1 0 0.8 
Cl1 Cl7+ 4 i 0.62578 1 0.83043 1 0 0.4 
O1 O2- 4 i 0.38167 0.5 0.64837 1 0 1.2 
O2 O2- 4 i 0.32043 1 0.89 1 0 1.2 
O3 O2- 8 j 0.05762 0.25 0.79317 1 0 1.2 
O4 O2- 4 i 0.31265 1 0.34525 1 0 1.2 
H1 H1+ 8 j 0.67187 0.62617 0.43766 1 0 1 

#End of data_261132-ICSD


