data_59857-ICSD
#?2014 by Fachinformationszentrum Karlsruhe, and the U.S. Secretary of 
#Commerce on behalf of the United States.  All rights reserved.
_database_code_ICSD                59857
_audit_creation_date               2005/10/01
_chemical_name_systematic
;
Potassium Tetratin(II) Tris(orthophosphate)
;
_chemical_formula_structural       'K Sn4 (P O4)3'
_chemical_formula_sum              'K1 O12 P3 Sn4'
_publ_section_title                'K Sn4 (P O4)3'
loop_
_citation_id
_citation_journal_abbrev
_citation_year
_citation_journal_volume
_citation_page_first
_citation_page_last
_citation_journal_id_ASTM
primary 'Acta Crystallographica, Section E. Structure Reports Online'
 2004 60 i116 i117 ACSEBH
_publ_author_name
;
Deng, J.-F.;Kang, Y.-J.;Mi Jinxiao;Li, M.-R.;Zhao, J.-T.;Mao, S.-Y.
;
_cell_length_a                     9.7342(5)
_cell_length_b                     9.7342(5)
_cell_length_c                     24.4754(14)
_cell_angle_alpha                  90.
_cell_angle_beta                   90.
_cell_angle_gamma                  120.
_cell_volume                       2008.45
_cell_formula_units_Z              6
_symmetry_space_group_name_H-M     'R 3 c H'
_symmetry_Int_Tables_number        161
_refine_ls_R_factor_all            .0172
loop_
_symmetry_equiv_pos_site_id
_symmetry_equiv_pos_as_xyz
  1	'-x+y, y, z+.5'
  2	'x, x-y, z+.5'
  3	'-y, -x, z+.5'
  4	'-x+y, -x, z'
  5	'-y, x-y, z'
  6	'x, y, z'
  7	'-x+y+.6666, y+.3333, z+.8333'
  8	'-x+y+.3333, y+.6666, z+.1666'
  9	'x+.6666, x-y+.3333, z+.8333'
 10	'x+.3333, x-y+.6666, z+.1666'
 11	'-y+.6666, -x+.3333, z+.8333'
 12	'-y+.3333, -x+.6666, z+.1666'
 13	'-x+y+.6666, -x+.3333, z+.3333'
 14	'-x+y+.3333, -x+.6666, z+.6666'
 15	'-y+.6666, x-y+.3333, z+.3333'
 16	'-y+.3333, x-y+.6666, z+.6666'
 17	'x+.6666, y+.3333, z+.3333'
 18	'x+.3333, y+.6666, z+.6666'
loop_
_atom_type_symbol
_atom_type_oxidation_number
K1+	1
O2-	-2
P5+	5
Sn2+	2
loop_
_atom_site_label
_atom_site_type_symbol
_atom_site_symmetry_multiplicity
_atom_site_Wyckoff_symbol
_atom_site_fract_x
_atom_site_fract_y
_atom_site_fract_z
_atom_site_occupancy
_atom_site_attached_hydrogens
_atom_site_U_iso_or_equiv
Sn1 Sn2+ 6 a 1.0000 1.0000 0.82700(2) 1 0 0.01923(15) 
Sn2 Sn2+ 18 b 1.14901(4) 0.73914(4) 0.630155(11) 1 0 0.01765(11) 
P1 P5+ 18 b 0.67206(14) 0.87550(14) 0.75941(5) 1 0 0.0119(2) 
O1 O2- 18 b 1.2176(4) 0.9535(4) 0.58913(16) 1 0 0.0249(8) 
O2 O2- 18 b 0.8366(3) 1.0149(4) 0.77424(14) 1 0 0.0186(7) 
O3 O2- 18 b 1.1921(4) 0.8698(4) 0.70307(13) 1 0 0.0187(7) 
O4 O2- 18 b 0.6269(5) 0.7469(4) 0.80247(15) 1 0 0.0231(8) 
K1 K1+ 6 a 1.0000 1.0000 0.67666(9) 1 0 0.0208(4) 

loop_
_atom_site_aniso_label
_atom_site_aniso_type_symbol
_atom_site_aniso_U_11
_atom_site_aniso_U_22
_atom_site_aniso_U_33
_atom_site_aniso_U_12
_atom_site_aniso_U_13
_atom_site_aniso_U_23
Sn1 Sn2+ 0.0222(2) 0.0222(2) 0.0133(3) 0.01110(11) 0.000 0.000
Sn2 Sn2+ 0.01883(18) 0.01411(18) 0.02176(17) 0.00954(15) 0.00202(12) 
-0.00066(13)
P1 P5+ 0.0103(5) 0.0113(5) 0.0135(5) 0.0049(5) 0.0034(4) 0.0018(4)
O1 O2- 0.0206(17) 0.0146(18) 0.024(2) -0.0030(14) -0.0038(14) 0.0044(14)
O2 O2- 0.0094(16) 0.0117(15) 0.0319(19) 0.0032(13) 0.0005(14) 0.0019(14)
O3 O2- 0.0204(18) 0.0150(18) 0.0163(17) 0.0055(14) -0.0028(14) 0.0021(14)
O4 O2- 0.034(2) 0.0142(18) 0.0155(18) 0.0082(16) 0.0065(15) 0.0032(13)
K1 K1+ 0.0189(6) 0.0189(6) 0.0247(10) 0.0094(3) 0.000 0.000
#End of data_59857-ICSD


