data_1152-ICSD
#?2014 by Fachinformationszentrum Karlsruhe, and the U.S. Secretary of 
#Commerce on behalf of the United States.  All rights reserved.
_database_code_ICSD                1152
_audit_creation_date               1980/01/01
_audit_update_record               2012/08/01
_chemical_name_systematic          'Silver Tetrachloroaurate'
_chemical_formula_structural       'Ag (Au Cl4)'
_chemical_formula_sum              'Ag1 Au1 Cl4'
_publ_section_title
;
Die Kristallstruktur des Silbertetrachloroaurats(III) Ag Au Cl4 und 
seine kristallchemische Verwandtschaft zum Rubidiumtetrachloro- 
Aurat(III) Rb Au Cl4
;
loop_
_citation_id
_citation_journal_abbrev
_citation_year
_citation_journal_volume
_citation_page_first
_citation_page_last
_citation_journal_id_ASTM
primary
;
Zeitschrift fuer Naturforschung, Teil B. Anorganische Chemie, 
Organische Chemie (2,1947-32,1977)
;
 1977 32 741 744 ZENBAX
_publ_author_name                  'Werner, W.;Straehle, J.'
_cell_length_a                     13.223(9)
_cell_length_b                     4.101(4)
_cell_length_c                     13.089(8)
_cell_angle_alpha                  90.
_cell_angle_beta                   122.72(8)
_cell_angle_gamma                  90.
_cell_volume                       597.16
_cell_formula_units_Z              4
_symmetry_space_group_name_H-M     'I 1 2/c 1'
_symmetry_Int_Tables_number        15
_refine_ls_R_factor_all            .068
loop_
_symmetry_equiv_pos_site_id
_symmetry_equiv_pos_as_xyz
  1	'-x, y, -z+.5'
  2	'-x, -y, -z'
  3	'x, -y, z+.5'
  4	'x, y, z'
  5	'-x+.5, y+.5, -z'
  6	'-x+.5, -y+.5, -z+.5'
  7	'x+.5, -y+.5, z'
  8	'x+.5, y+.5, z+.5'
loop_
_atom_type_symbol
_atom_type_oxidation_number
Ag1+	1
Au3+	3
Cl1-	-1
loop_
_atom_site_label
_atom_site_type_symbol
_atom_site_symmetry_multiplicity
_atom_site_Wyckoff_symbol
_atom_site_fract_x
_atom_site_fract_y
_atom_site_fract_z
_atom_site_occupancy
_atom_site_attached_hydrogens
Ag1 Ag1+ 4 e 0 0.4915(17) 0.25 1. 0 
Au1 Au3+ 4 a 0 0 0 1. 0 
Cl1 Cl1- 8 f 0.1179(6) 0.0272(33) 0.2067(5) 1. 0 
Cl2 Cl1- 8 f 0.1383(7) 0.3126(23) -.0084(7) 1. 0 

#End of data_1152-ICSD


