data_24387-ICSD
#?2014 by Fachinformationszentrum Karlsruhe, and the U.S. Secretary of 
#Commerce on behalf of the United States.  All rights reserved.
_database_code_ICSD                24387
_audit_creation_date               1981/12/31
_chemical_name_systematic          'Calcium Digallium Selenide'
_chemical_formula_structural       'Ca Ga2 Se4'
_chemical_formula_sum              'Ca1 Ga2 Se4'
_publ_section_title
;
Darstellung und Struktur von Ba Al2 Se4, Ba Ga2 Se4, Ca Ga2 Se4 und 
Ca In2 Te4
;
loop_
_citation_id
_citation_journal_abbrev
_citation_year
_citation_journal_volume
_citation_page_first
_citation_page_last
_citation_journal_id_ASTM
primary 'Zeitschrift fuer Anorganische und Allgemeine Chemie (1950) (DE)'
 1981 479 125 133 ZAACAB
_publ_author_name                  'Klee, W.;Schaefer, H.'
_cell_length_a                     21.06(2)
_cell_length_b                     21.00(2)
_cell_length_c                     12.66(2)
_cell_angle_alpha                  90.
_cell_angle_beta                   90.
_cell_angle_gamma                  90.
_cell_volume                       5599.01
_cell_formula_units_Z              32
_symmetry_space_group_name_H-M     'F d d d Z'
_symmetry_Int_Tables_number        70
_refine_ls_R_factor_all            .098
loop_
_symmetry_equiv_pos_site_id
_symmetry_equiv_pos_as_xyz
  1	'x+.75, y+.75, -z'
  2	'x+.75, -y, z+.75'
  3	'-x, y+.75, z+.75'
  4	'-x, -y, -z'
  5	'-x+.25, -y+.25, z'
  6	'-x+.25, y, -z+.25'
  7	'x, -y+.25, -z+.25'
  8	'x, y, z'
  9	'x+.75, y+.25, -z+.5'
 10	'x+.25, y+.75, -z+.5'
 11	'x+.25, y+.25, -z'
 12	'x+.75, -y+.5, z+.25'
 13	'x+.25, -y, z+.25'
 14	'x+.25, -y+.5, z+.75'
 15	'-x, y+.25, z+.25'
 16	'-x+.5, y+.75, z+.25'
 17	'-x+.5, y+.25, z+.75'
 18	'-x, -y+.5, -z+.5'
 19	'-x+.5, -y, -z+.5'
 20	'-x+.5, -y+.5, -z'
 21	'-x+.25, -y+.75, z+.5'
 22	'-x+.75, -y+.25, z+.5'
 23	'-x+.75, -y+.75, z'
 24	'-x+.25, y+.5, -z+.75'
 25	'-x+.75, y, -z+.75'
 26	'-x+.75, y+.5, -z+.25'
 27	'x, -y+.75, -z+.75'
 28	'x+.5, -y+.25, -z+.75'
 29	'x+.5, -y+.75, -z+.25'
 30	'x, y+.5, z+.5'
 31	'x+.5, y, z+.5'
 32	'x+.5, y+.5, z'
loop_
_atom_type_symbol
_atom_type_oxidation_number
Ca2+	2
Ga3+	3
Se2-	-2
loop_
_atom_site_label
_atom_site_type_symbol
_atom_site_symmetry_multiplicity
_atom_site_Wyckoff_symbol
_atom_site_fract_x
_atom_site_fract_y
_atom_site_fract_z
_atom_site_occupancy
_atom_site_attached_hydrogens
_atom_site_U_iso_or_equiv
Ca1 Ca2+ 8 a 0.125 0.125 0.125 1. 0 0.016(3) 
Ca2 Ca2+ 8 b 0.125 0.125 0.625 1. 0 0.016(3) 
Ca3 Ca2+ 16 e 0.8724(8) 0.125 0.125 1. 0 0.016(3) 
Ga1 Ga3+ 32 h 0.9998(4) 0.8048(3) 0.1665(11) 1. 0 0.011(2) 
Ga2 Ga3+ 32 h 0.0004(5) 0.2382(3) 0.3731(15) 1. 0 0.020(2) 
Se1 Se2- 32 h 0.1630(3) 0.2507(7) 0.0181(35) 1. 0 0.013(2) 
Se2 Se2- 32 h 0.1628(3) 0.4993(7) 0.2344(35) 1. 0 0.013(2) 
Se3 Se2- 32 h 0.9993(8) 0.3422(3) 0.9959(12) 1. 0 0.020(2) 
Se4 Se2- 32 h 0.0017(9) 0.4162(3) 0.2657(12) 1. 0 0.018(2) 

#End of data_24387-ICSD


