data_85125-ICSD
#?2014 by Fachinformationszentrum Karlsruhe, and the U.S. Secretary of 
#Commerce on behalf of the United States.  All rights reserved.
_database_code_ICSD                85125
_audit_creation_date               1999/06/02
_chemical_name_systematic
;
Dicalcium Iron(III) Manganese(III) Oxide
;
_chemical_formula_structural       'Ca2 Fe Mn O5'
_chemical_formula_sum              'Ca2 Fe1 Mn1 O5'
_publ_section_title
;
Synthesis and crystal structure of (Sr1-x Cax)2 Fe Mn Oy (x=0-1.0)
;
loop_
_citation_id
_citation_journal_abbrev
_citation_year
_citation_journal_volume
_citation_page_first
_citation_page_last
_citation_journal_id_ASTM
primary 'Materials Letters' 1997 30 163 167 MLETDJ
_publ_author_name
;
Nakahara, Y.;Kato, S.;Sugai, M.;Ohshima, Y.;Makino, K.
;
_cell_length_a                     5.338
_cell_length_b                     14.834
_cell_length_c                     5.515
_cell_angle_alpha                  90.
_cell_angle_beta                   90.
_cell_angle_gamma                  90.
_cell_volume                       436.7
_cell_formula_units_Z              4
_symmetry_space_group_name_H-M     'P n m a'
_symmetry_Int_Tables_number        62
_refine_ls_R_factor_all            .042
loop_
_symmetry_equiv_pos_site_id
_symmetry_equiv_pos_as_xyz
  1	'x+.5, y, -z+.5'
  2	'x, -y+.5, z'
  3	'-x+.5, y+.5, z+.5'
  4	'-x, -y, -z'
  5	'-x+.5, -y, z+.5'
  6	'-x, y+.5, -z'
  7	'x+.5, -y+.5, -z+.5'
  8	'x, y, z'
loop_
_atom_type_symbol
_atom_type_oxidation_number
Ca2+	2
Fe3+	3
Mn3+	3
O2-	-2
loop_
_atom_site_label
_atom_site_type_symbol
_atom_site_symmetry_multiplicity
_atom_site_Wyckoff_symbol
_atom_site_fract_x
_atom_site_fract_y
_atom_site_fract_z
_atom_site_occupancy
_atom_site_attached_hydrogens
Ca1 Ca2+ 8 d -.006(3) 0.112(1) 0.487(2) 1. 0 
Fe1 Fe3+ 4 c 0.956(2) 0.25 0.936(2) 1. 0 
Mn1 Mn3+ 4 a 0 0 0 1. 0 
O1 O2- 8 d 0.247(16) -.008(2) 0.236(5) 1. 0 
O2 O2- 8 d 0.002(7) 0.136(2) 0.050(4) 1. 0 
O3 O2- 4 c 0.119(8) 0.25 0.637(7) 1. 0 

#End of data_85125-ICSD


