data_81095-ICSD
#?2014 by Fachinformationszentrum Karlsruhe, and the U.S. Secretary of 
#Commerce on behalf of the United States.  All rights reserved.
_database_code_ICSD                81095
_audit_creation_date               1997/05/13
_audit_update_record               2006/04/01
_chemical_name_systematic          'Dicalcium Silicate - Gamma'
_chemical_formula_structural       'Ca2 (Si O4)'
_chemical_formula_sum              'Ca2 O4 Si1'
_publ_section_title
;
Rietveld crystal structure refinements, crystal chemistry and 
calculated powder diffraction data for the polymorphs of dicalcium 
silicate and related phases
;
loop_
_citation_id
_citation_journal_abbrev
_citation_year
_citation_journal_volume
_citation_journal_issue
_citation_page_first
_citation_page_last
_citation_journal_id_ASTM
primary 'Neues Jahrbuch fuer Mineralogie. Abhandlungen (Band-Nr) (1950-)'
 1995 169 1 35 68 NJMIAK
2 'Golden Book of Phase Transitions, Wroclaw' 2002 1- 1 123 GBOPT5
_publ_author_name
;
Mumme, W.G.;Hill, R.J.;Bushnell, G.W.;Segnit, E.R.
;
_cell_length_a                     5.0821(1)
_cell_length_b                     11.2237(1)
_cell_length_c                     6.7638(1)
_cell_angle_alpha                  90.
_cell_angle_beta                   90.
_cell_angle_gamma                  90.
_cell_volume                       385.81
_cell_formula_units_Z              4
_symmetry_space_group_name_H-M     'P b n m'
_symmetry_Int_Tables_number        62
_refine_ls_R_factor_all            .04
loop_
_symmetry_equiv_pos_site_id
_symmetry_equiv_pos_as_xyz
  1	'-x+.5, y+.5, z'
  2	'x, y, -z+.5'
  3	'x+.5, -y+.5, z+.5'
  4	'-x, -y, -z'
  5	'x+.5, -y+.5, -z'
  6	'-x, -y, z+.5'
  7	'-x+.5, y+.5, -z+.5'
  8	'x, y, z'
loop_
_atom_type_symbol
_atom_type_oxidation_number
Ca2+	2
O2-	-2
Si4+	4
loop_
_atom_site_label
_atom_site_type_symbol
_atom_site_symmetry_multiplicity
_atom_site_Wyckoff_symbol
_atom_site_fract_x
_atom_site_fract_y
_atom_site_fract_z
_atom_site_occupancy
_atom_site_attached_hydrogens
_atom_site_B_iso_or_equiv
Ca1 Ca2+ 4 a 0 0 0 1. 0 0.81(4) 
Ca2 Ca2+ 4 c 0.9893(4) 0.2809(1) 0.25 1. 0 0.65(4) 
Si1 Si4+ 4 c 0.4286(5) 0.0978(2) 0.25 1. 0 0.55(5) 
O1 O2- 4 c 0.7431(10) 0.0931(5) 0.25 1. 0 1.16(13) 
O2 O2- 4 c 0.2936(10) 0.9630(5) 0.25 1. 0 1.00(13) 
O3 O2- 8 d 0.3015(8) 0.1601(3) 0.0588(6) 1. 0 1.31(10) 

#End of data_81095-ICSD


