data_9987-ICSD
#?2014 by Fachinformationszentrum Karlsruhe, and the U.S. Secretary of 
#Commerce on behalf of the United States.  All rights reserved.
_database_code_ICSD                9987
_audit_creation_date               1980/01/01
_audit_update_record               2000/07/15
_chemical_name_systematic          'Hexalithium Digallium Borate'
_chemical_formula_structural       'Li6 Ga2 (B O3)4'
_chemical_formula_sum              'B4 Ga2 Li6 O12'
_publ_section_title
;
Crystal structure of lithium gallium borate
;
loop_
_citation_id
_citation_journal_abbrev
_citation_year
_citation_journal_volume
_citation_page_first
_citation_page_last
_citation_journal_id_ASTM
primary 'Zhurnal Strukturnoi Khimii (Issue-No. from 1981)'
 1972 13 943 946 ZSTKAI
_publ_author_name                  'Abdullaev, G.K.;Mamedov, Kh.S.'
_cell_length_a                     6.23(3)
_cell_length_b                     4.90(2)
_cell_length_c                     8.42(5)
_cell_angle_alpha                  90.0(5)
_cell_angle_beta                   118.0(5)
_cell_angle_gamma                  90.0(5)
_cell_volume                       226.95
_cell_formula_units_Z              1
_symmetry_space_group_name_H-M     'P -1'
_symmetry_Int_Tables_number        2
_refine_ls_R_factor_all            .141
loop_
_symmetry_equiv_pos_site_id
_symmetry_equiv_pos_as_xyz
  1	'-x, -y, -z'
  2	'x, y, z'
loop_
_atom_type_symbol
_atom_type_oxidation_number
B3+	3
Ga3+	3
Li1+	1
O2-	-2
loop_
_atom_site_label
_atom_site_type_symbol
_atom_site_symmetry_multiplicity
_atom_site_Wyckoff_symbol
_atom_site_fract_x
_atom_site_fract_y
_atom_site_fract_z
_atom_site_occupancy
_atom_site_attached_hydrogens
_atom_site_B_iso_or_equiv
Li1 Li1+ 2 i 0.14 0.308 0.557 1. 0 0.4(5) 
Li2 Li1+ 2 i 0.125 0.847 0.72 1. 0 0.4(5) 
Li3 Li1+ 2 i 0.494 0.972 0.684 1. 0 0.4(5) 
Ga1 Ga3+ 2 i 0.185 0.363 0.235 1. 0 0.4(5) 
B1 B3+ 2 i 0.278 0.817 0.433 1. 0 0.4(5) 
B2 B3+ 2 i 0.301 0.353 0.95 1. 0 0.4(5) 
O1 O2- 2 i 0.308 0.196 0.092 1. 0 0.4(5) 
O2 O2- 2 i 0.225 0.096 0.405 1. 0 0.4(5) 
O3 O2- 2 i 0.206 0.694 0.538 1. 0 0.4(5) 
O4 O2- 2 i 0.321 0.221 0.818 1. 0 0.4(5) 
O5 O2- 2 i 0.193 0.605 0.913 1. 0 0.4(5) 
O6 O2- 2 i 0.358 0.687 0.33 1. 0 0.4(5) 

#End of data_9987-ICSD


