data_79816-ICSD
#?2014 by Fachinformationszentrum Karlsruhe, and the U.S. Secretary of 
#Commerce on behalf of the United States.  All rights reserved.
_database_code_ICSD                79816
_audit_creation_date               1996/10/14
_chemical_name_systematic          'Aluminium Trifluoride - Kappa'
_chemical_formula_structural       'Al F3'
_chemical_formula_sum              'Al1 F3'
_publ_section_title
;
Preparation and structural characterization of two new phases of 
aluminium trifluoride
;
loop_
_citation_id
_citation_journal_abbrev
_citation_year
_citation_journal_volume
_citation_page_first
_citation_page_last
_citation_journal_id_ASTM
primary 'Chemistry of Materials' 1995 7 75 83 CMATEX
_publ_author_name
;
Herron, N.;Thorn, D.L.;Harlow, R.L.;Jones, G.A.;Parise, 
J.B.;Fernandez-Baca, J.A.;Vogt, T.
;
_cell_length_a                     11.4033(4)
_cell_length_b                     11.4033(4)
_cell_length_c                     3.5436(1)
_cell_angle_alpha                  90.
_cell_angle_beta                   90.
_cell_angle_gamma                  90.
_cell_volume                       460.79
_cell_formula_units_Z              10
_symmetry_space_group_name_H-M     'P 4/m b m'
_symmetry_Int_Tables_number        127
_refine_ls_R_factor_all            .093
loop_
_symmetry_equiv_pos_site_id
_symmetry_equiv_pos_as_xyz
  1	'y+.5, x+.5, -z'
  2	'-y+.5, -x+.5, -z'
  3	'-y, x, -z'
  4	'y, -x, -z'
  5	'x+.5, -y+.5, -z'
  6	'-x+.5, y+.5, -z'
  7	'x, y, -z'
  8	'-x, -y, -z'
  9	'-y+.5, -x+.5, z'
 10	'y+.5, x+.5, z'
 11	'y, -x, z'
 12	'-y, x, z'
 13	'-x+.5, y+.5, z'
 14	'x+.5, -y+.5, z'
 15	'-x, -y, z'
 16	'x, y, z'
loop_
_atom_type_symbol
_atom_type_oxidation_number
Al3+	3
F1-	-1
loop_
_atom_site_label
_atom_site_type_symbol
_atom_site_symmetry_multiplicity
_atom_site_Wyckoff_symbol
_atom_site_fract_x
_atom_site_fract_y
_atom_site_fract_z
_atom_site_occupancy
_atom_site_attached_hydrogens
_atom_site_U_iso_or_equiv
Al1 Al3+ 8 i 0.4205(3) 0.2928(2) 0 1. 0 0.0126(6) 
Al2 Al3+ 2 d 0.5 0 0 1. 0 0.0126(6) 
F1 F1- 8 i 0.3585(2) 0.4333(3) 0 1. 0 0.0026(6) 
F2 F1- 8 i 0.5049(2) 0.1568(3) 0 1. 0 0.0026(6) 
F3 F1- 8 j 0.4264(3) 0.2950(3) 0.5 1. 0 0.0251(9) 
F4 F1- 4 g 0.2838(3) 0.2162(3) 0 1. 0 0.0026(6) 
F5 F1- 2 c 0.5 0 0.5 1. 0 0.0251(9) 

#End of data_79816-ICSD


