data_159511-ICSD
#?2014 by Fachinformationszentrum Karlsruhe, and the U.S. Secretary of 
#Commerce on behalf of the United States.  All rights reserved.
_database_code_ICSD                159511
_audit_creation_date               2008/08/01
_chemical_name_systematic          'Disodium Chromate(IV)'
_chemical_formula_structural       'Na2 (Cr O4)'
_chemical_formula_sum              'Cr1 Na2 O4'
_publ_section_title
;
The crystal structure of anhydrous sodium chromate, Na2 Cr O4
;
loop_
_citation_id
_citation_journal_abbrev
_citation_year
_citation_journal_volume
_citation_page_first
_citation_page_last
_citation_journal_id_ASTM
primary
;
Zeitschrift fuer Kristallographie, Kristallgeometrie, Kristallphysik, 
Kristallchemie (-144,1977)
;
 1936 94 131 136 ZEKGAX
_publ_author_name                  'Miller, J.J.'
_cell_length_a                     5.91
_cell_length_b                     9.23
_cell_length_c                     7.2
_cell_angle_alpha                  90
_cell_angle_beta                   90
_cell_angle_gamma                  90
_cell_volume                       392.75
_cell_formula_units_Z              4
_symmetry_space_group_name_H-M     'P b n n'
_symmetry_Int_Tables_number        52
loop_
_symmetry_equiv_pos_site_id
_symmetry_equiv_pos_as_xyz
  1	'x+.5, y+.5, -z+.5'
  2	'x+.5, -y, z+.5'
  3	'-x, y+.5, z'
  4	'-x, -y, -z'
  5	'-x+.5, -y+.5, z+.5'
  6	'-x+.5, y, -z+.5'
  7	'x, -y+.5, -z'
  8	'x, y, z'
loop_
_atom_type_symbol
_atom_type_oxidation_number
Cr6+	6
Na1+	1
O2-	-2
loop_
_atom_site_label
_atom_site_type_symbol
_atom_site_symmetry_multiplicity
_atom_site_Wyckoff_symbol
_atom_site_fract_x
_atom_site_fract_y
_atom_site_fract_z
_atom_site_occupancy
_atom_site_attached_hydrogens
Na1 Na1+ 4 d 0.25 0.45 0.25 1. 0 
Na2 Na1+ 4 c -0.25 0.25 0 1. 0 
Cr1 Cr6+ 4 d 0.25 0.0972 0.25 1. 0 
O1 O2- 8 e 0.0278 0.2 0.25 1. 0 
O2 O2- 8 e 0.25 0 0.0694 1. 0 

#End of data_159511-ICSD


