data_59943-ICSD
#?2014 by Fachinformationszentrum Karlsruhe, and the U.S. Secretary of 
#Commerce on behalf of the United States.  All rights reserved.
_database_code_ICSD                59943
_audit_creation_date               2005/10/01
_chemical_name_systematic
;
Dipotassium Hydrogen Chromatoarsenate - Phase I
;
_chemical_formula_structural       'K2 (H Cr2 As O10)'
_chemical_formula_sum              'H1 As1 Cr2 K2 O10'
_publ_section_title
;
K2 [H Cr2 As O10]: redetermination of phase II and the predicted 
structure of phase I
;
loop_
_citation_id
_citation_journal_abbrev
_citation_year
_citation_journal_volume
_citation_page_first
_citation_page_last
_citation_journal_id_ASTM
primary 'Acta Crystallographica, Section C: Crystal Structure Communications'
 2004 60 i113 i116 ACSCEE
_publ_author_name
;
Weakley, T.J.R.;Ylvisaker, E.R.;Yager, R.J.;Wu, P.;Photinos, 
P.;Abrahams, S.C.
;
_cell_length_a                     7.6963(9)
_cell_length_b                     7.6963(9)
_cell_length_c                     14.6171(11)
_cell_angle_alpha                  90.00
_cell_angle_beta                   90.00
_cell_angle_gamma                  120.00
_cell_volume                       749.82
_cell_formula_units_Z              3
_symmetry_space_group_name_H-M     'P 32'
_symmetry_Int_Tables_number        145
_refine_ls_R_factor_all            .0228
loop_
_symmetry_equiv_pos_site_id
_symmetry_equiv_pos_as_xyz
  1	'-x+y, -x, z+.3333'
  2	'-y, x-y, z+.6667'
  3	'x, y, z'
loop_
_atom_type_symbol
_atom_type_oxidation_number
As5+	5
Cr6+	6
H1+	1
K1+	1
O2-	-2
loop_
_atom_site_label
_atom_site_type_symbol
_atom_site_symmetry_multiplicity
_atom_site_Wyckoff_symbol
_atom_site_fract_x
_atom_site_fract_y
_atom_site_fract_z
_atom_site_occupancy
_atom_site_attached_hydrogens
_atom_site_U_iso_or_equiv
As1 As5+ 3 a 0.12958(6) 0.02179(6) 0.50004(5) 1 0 0.01795(11) 
Cr1 Cr6+ 3 a 0.00117(11) -0.41910(11) 0.43038(5) 1 0 0.01938(16) 
Cr2 Cr6+ 3 a 0.42899(11) 0.42481(11) 0.60655(5) 1 0 0.01996(16) 
O1 O2- 3 a 0.1424(6) -0.4423(7) 0.3570(3) 1 0 0.0379(10) 
O2 O2- 3 a -0.0883(8) -0.5988(6) 0.5024(3) 1 0 0.0491(12) 
O3 O2- 3 a -0.1692(6) -0.4012(7) 0.3758(3) 1 0 0.0421(10) 
O4 O2- 3 a 0.1520(6) -0.1879(6) 0.4966(3) 1 0 0.0318(8) 
O5 O2- 3 a 0.0914(6) 0.1001(5) 0.4024(2) 1 0 0.0309(8) 
O6 O2- 3 a -0.0582(5) -0.0195(7) 0.5728(2) 1 0 0.0330(9) 
O7 O2- 3 a 0.3559(5) 0.1869(5) 0.5468(3) 1 0 0.0258(7) 
O8 O2- 3 a 0.6242(6) 0.4793(7) 0.6657(4) 1 0 0.0465(12) 
O9 O2- 3 a 0.4665(9) 0.5909(6) 0.5314(3) 1 0 0.0515(13) 
O10 O2- 3 a 0.2526(7) 0.3923(7) 0.6749(3) 1 0 0.0388(9) 
K1 K1+ 3 a 0.43080(16) 0.45187(16) 0.34636(8) 1 0 0.0280(2) 
K2 K1+ 3 a 0.60914(17) 0.00606(17) 0.51907(8) 1 0 0.0285(2) 
H1 H1+ 3 a 0.0256 -0.0279 0.3206 1 0 0.050 

loop_
_atom_site_aniso_label
_atom_site_aniso_type_symbol
_atom_site_aniso_U_11
_atom_site_aniso_U_22
_atom_site_aniso_U_33
_atom_site_aniso_U_12
_atom_site_aniso_U_13
_atom_site_aniso_U_23
As1 As5+ 0.0195(2) 0.0160(2) 0.01738(19) 0.00821(18) -0.00247(17) 
-0.00145(17)
Cr1 Cr6+ 0.0200(3) 0.0152(3) 0.0205(4) 0.0070(3) -0.0008(3) -0.0013(3)
Cr2 Cr6+ 0.0219(3) 0.0160(3) 0.0216(4) 0.0092(3) -0.0049(3) -0.0050(3)
O1 O2- 0.039(2) 0.048(2) 0.036(2) 0.029(2) 0.0047(18) -0.0059(18)
O2 O2- 0.071(3) 0.0216(19) 0.030(2) 0.004(2) 0.001(2) 0.0050(17)
O3 O2- 0.031(2) 0.046(3) 0.051(3) 0.021(2) -0.0144(19) -0.009(2)
O4 O2- 0.036(2) 0.0216(16) 0.040(2) 0.0164(16) -0.0169(17) -0.0068(15)
O5 O2- 0.042(2) 0.0284(19) 0.0218(17) 0.0175(17) -0.0046(15) 0.0024(14)
O6 O2- 0.0225(17) 0.052(3) 0.0227(18) 0.0175(17) 0.0042(14) 0.0040(17)
O7 O2- 0.0196(16) 0.0216(16) 0.0343(19) 0.0089(13) -0.0048(14) -0.0153(14)
O8 O2- 0.031(2) 0.050(3) 0.059(3) 0.021(2) -0.023(2) -0.028(2)
O9 O2- 0.086(4) 0.026(2) 0.038(2) 0.024(2) -0.001(2) 0.0030(18)
O10 O2- 0.039(2) 0.042(2) 0.041(2) 0.0248(19) 0.0033(18) -0.0111(18)
K1 K1+ 0.0255(5) 0.0269(5) 0.0315(6) 0.0131(4) 0.0015(4) -0.0013(5)
K2 K1+ 0.0296(5) 0.0258(5) 0.0287(5) 0.0130(4) -0.0002(5) 0.0019(4)
#End of data_59943-ICSD


