data_52376-ICSD
#?2014 by Fachinformationszentrum Karlsruhe, and the U.S. Secretary of 
#Commerce on behalf of the United States.  All rights reserved.
_database_code_ICSD                52376
_audit_creation_date               2003/04/01
_audit_update_record               2006/04/01
_chemical_name_systematic          'Potassium Nitrate(V) - Alpha'
_chemical_formula_structural       'K (N O3)'
_chemical_formula_sum              'K1 N1 O3'
_chemical_name_mineral             Niter
_publ_section_title
;
A determination of the complete crystal structure of potassium 
nitrate
;
loop_
_citation_id
_citation_journal_abbrev
_citation_year
_citation_journal_volume
_citation_page_first
_citation_page_last
_citation_journal_id_ASTM
primary
;
Zeitschrift fuer Kristallographie, Kristallgeometrie, Kristallphysik, 
Kristallchemie (-144,1977)
;
 1931 80 154 163 ZEKGAX
_publ_author_name                  'Edwards, D.A.'
_cell_length_a                     5.42
_cell_length_b                     9.17
_cell_length_c                     6.45
_cell_angle_alpha                  90.
_cell_angle_beta                   90.
_cell_angle_gamma                  90.
_cell_volume                       320.57
_cell_formula_units_Z              4
_symmetry_space_group_name_H-M     'P m c n'
_symmetry_Int_Tables_number        62
loop_
_symmetry_equiv_pos_site_id
_symmetry_equiv_pos_as_xyz
  1	'x, -y+.5, z+.5'
  2	'-x+.5, y, z'
  3	'x+.5, y+.5, -z+.5'
  4	'-x, -y, -z'
  5	'-x, y+.5, -z+.5'
  6	'x+.5, -y, -z'
  7	'-x+.5, -y+.5, z+.5'
  8	'x, y, z'
loop_
_atom_type_symbol
_atom_type_oxidation_number
K1+	1
N5+	5
O2-	-2
loop_
_atom_site_label
_atom_site_type_symbol
_atom_site_symmetry_multiplicity
_atom_site_Wyckoff_symbol
_atom_site_fract_x
_atom_site_fract_y
_atom_site_fract_z
_atom_site_occupancy
_atom_site_attached_hydrogens
K1 K1+ 4 c 0.25 0 0.667 1. 0 
N1 N5+ 4 c 0.25 0.18 0 1. 0 
O1 O2- 4 c 0.25 0.167 0.167 1. 0 
O2 O2- 8 d 0.556 0.687 0.583 1. 0 

#End of data_52376-ICSD


