data_202280-ICSD
#?2014 by Fachinformationszentrum Karlsruhe, and the U.S. Secretary of 
#Commerce on behalf of the United States.  All rights reserved.
_database_code_ICSD                202280
_audit_creation_date               1988/12/19
_audit_update_record               2007/08/01
_chemical_name_systematic          'Calcium Magnesium Silicate'
_chemical_formula_structural       'Ca Mg (Si O4)'
_chemical_formula_sum              'Ca1 Mg1 O4 Si1'
_chemical_name_mineral             Monticellite
_publ_section_title
;
High-pressure crystal chemistry of monticellite, Ca Mg Si O4
;
loop_
_citation_id
_citation_journal_abbrev
_citation_year
_citation_journal_volume
_citation_page_first
_citation_page_last
_citation_journal_id_ASTM
primary 'American Mineralogist' 1987 72 748 755 AMMIAY
_publ_author_name
;
Sharp, Z.D.;Hazen, R.M.;Finger, L.W.
;
_cell_length_a                     4.821(2)
_cell_length_b                     11.105(3)
_cell_length_c                     6.381(1)
_cell_angle_alpha                  90.
_cell_angle_beta                   90.
_cell_angle_gamma                  90.
_cell_volume                       341.62
_cell_formula_units_Z              4
_symmetry_space_group_name_H-M     'P b n m'
_symmetry_Int_Tables_number        62
_refine_ls_R_factor_all            .074
loop_
_symmetry_equiv_pos_site_id
_symmetry_equiv_pos_as_xyz
  1	'-x+.5, y+.5, z'
  2	'x, y, -z+.5'
  3	'x+.5, -y+.5, z+.5'
  4	'-x, -y, -z'
  5	'x+.5, -y+.5, -z'
  6	'-x, -y, z+.5'
  7	'-x+.5, y+.5, -z+.5'
  8	'x, y, z'
loop_
_atom_type_symbol
_atom_type_oxidation_number
Ca2+	2
Mg2+	2
O2-	-2
Si4+	4
loop_
_atom_site_label
_atom_site_type_symbol
_atom_site_symmetry_multiplicity
_atom_site_Wyckoff_symbol
_atom_site_fract_x
_atom_site_fract_y
_atom_site_fract_z
_atom_site_occupancy
_atom_site_attached_hydrogens
_atom_site_B_iso_or_equiv
Mg1 Mg2+ 4 a 0 0 0 1. 0 1.04(8) 
Ca1 Ca2+ 4 c 0.9774(7) 0.2771(3) 0.25 1. 0 1.01(7) 
Si1 Si4+ 4 c 0.4111(10) 0.0823(4) 0.25 1. 0 0.96(8) 
O1 O2- 4 c 0.7474(23) 0.0773(8) 0.25 1. 0 1.17(18) 
O2 O2- 4 c 0.2523(23) 0.4494(9) 0.25 1. 0 1.04(19) 
O3 O2- 8 d 0.2728(16) 0.1470(6) 0.0467(10) 1. 0 1.14(13) 

#End of data_202280-ICSD


