data_415324-ICSD
#?2014 by Fachinformationszentrum Karlsruhe, and the U.S. Secretary of 
#Commerce on behalf of the United States.  All rights reserved.
_database_code_ICSD                415324
_audit_creation_date               2006/10/01
_chemical_name_systematic
;
Potassium Ytterbium Diphosphate Dihydrate
;
_chemical_formula_structural       'K Yb P2 O7 (H2 O)2'
_chemical_formula_sum              'H4 K1 O9 P2 Yb1'
_publ_section_title
;
Crystal structure of new lanthanide diphosphates K Ln P2 O7 . 2H2 O 
(Ln = Gd, Tb, Yb)
;
loop_
_citation_id
_citation_journal_abbrev
_citation_year
_citation_journal_volume
_citation_journal_issue
_citation_page_first
_citation_page_last
_citation_journal_id_ASTM
primary 'Zeitschrift fuer Kristallographie (1979-2010)' 2006 221 3 173 177 ZEKRDZ
_publ_author_name
;
Tahiri, A.A.;El Bali, B.;Lachkar, M.;Piniella, J.F.;Capitelli, F.
;
_cell_length_a                     7.6791(3)
_cell_length_b                     10.4992(7)
_cell_length_c                     9.9554(9)
_cell_angle_alpha                  90.000(6)
_cell_angle_beta                   93.214(6)
_cell_angle_gamma                  90.000(4)
_cell_volume                       801.39
_cell_formula_units_Z              4
_symmetry_space_group_name_H-M     'P 1 21/c 1'
_symmetry_Int_Tables_number        14
_refine_ls_R_factor_all            .0595
loop_
_symmetry_equiv_pos_site_id
_symmetry_equiv_pos_as_xyz
  1	'x, -y+.5, z+.5'
  2	'-x, -y, -z'
  3	'-x, y+.5, -z+.5'
  4	'x, y, z'
loop_
_atom_type_symbol
_atom_type_oxidation_number
H1+	1
K1+	1
O2-	-2
P5+	5
Yb3+	3
loop_
_atom_site_label
_atom_site_type_symbol
_atom_site_symmetry_multiplicity
_atom_site_Wyckoff_symbol
_atom_site_fract_x
_atom_site_fract_y
_atom_site_fract_z
_atom_site_occupancy
_atom_site_attached_hydrogens
_atom_site_U_iso_or_equiv
Yb1 Yb3+ 4 e 0.75018(5) 0.37915(3) 0.17094(3) 1 0 0.0373(3) 
K1 K1+ 4 e 0.2532(3) 0.2836(3) 0.1484(2) 1 0 0.0544(6) 
P1 P5+ 4 e 0.5997(3) 0.1063(2) 0.3330(2) 1 0 0.0385(5) 
P2 P5+ 4 e 0.9639(3) 0.1447(2) 0.3712(2) 1 0 0.0375(5) 
O1 O2- 4 e 0.5734(10) 0.1429(7) 0.4771(7) 1 0 0.0440(14) 
O2 O2- 4 e 0.4929(9) -0.0062(6) 0.2832(6) 1 0 0.0443(14) 
O3 O2- 4 e 0.5829(8) 0.2180(6) 0.2368(6) 1 0 0.0444(14) 
O4 O2- 4 e 0.7990(9) 0.0545(6) 0.3268(6) 1 0 0.0403(12) 
O5 O2- 4 e 0.9373(9) 0.1870(7) 0.5138(6) 1 0 0.0467(14) 
O6 O2- 4 e 1.1248(8) 0.0643(6) 0.3586(7) 1 0 0.0463(14) 
O7 O2- 4 e 0.9562(8) 0.2577(6) 0.2753(6) 1 0 0.0450(14) 
O8 O2- 4 e 0.3756(14) 0.1207(7) -0.0549(10) 1 0 0.062(2) 
O9 O2- 4 e 0.7873(9) 0.4427(6) 0.4025(7) 1 0 0.0576(18) 
H1 H1+ 4 e 0.474(10) 0.154(7) -0.092(9) 1 0 0.086 
H2 H1+ 4 e 0.288(5) 0.101(10) -0.119(7) 1 0 0.086 
H3 H1+ 4 e 0.6729 0.4351 0.4470 1 0 0.086 
H4 H1+ 4 e 0.8192 0.5356 0.4103 1 0 0.086 

loop_
_atom_site_aniso_label
_atom_site_aniso_type_symbol
_atom_site_aniso_U_11
_atom_site_aniso_U_22
_atom_site_aniso_U_33
_atom_site_aniso_U_12
_atom_site_aniso_U_13
_atom_site_aniso_U_23
Yb1 Yb3+ 0.0368(4) 0.0412(4) 0.0340(3) 0.00017(11) 0.0026(2) 0.00080(10)
K1 K1+ 0.0444(12) 0.0616(15) 0.0570(11) 0.0034(8) 0.0000(9) -0.0003(10)
P1 P5+ 0.0410(13) 0.0411(11) 0.0331(11) -0.0014(8) 0.0003(9) 0.0010(8)
P2 P5+ 0.0363(12) 0.0416(10) 0.0346(11) 0.0010(9) 0.0027(8) 0.0008(8)
O1 O2- 0.047(4) 0.053(3) 0.032(3) 0.000(3) 0.005(3) -0.001(3)
O2 O2- 0.045(3) 0.045(3) 0.043(3) -0.002(3) 0.001(3) -0.001(3)
O3 O2- 0.045(3) 0.049(4) 0.039(3) -0.005(3) 0.000(2) 0.006(3)
O4 O2- 0.040(3) 0.044(3) 0.038(3) -0.003(3) 0.001(2) -0.003(2)
O5 O2- 0.044(3) 0.060(4) 0.037(3) -0.009(3) 0.006(2) 0.000(3)
O6 O2- 0.038(3) 0.046(4) 0.055(4) 0.003(3) 0.001(3) 0.004(3)
O7 O2- 0.046(3) 0.047(3) 0.042(3) -0.005(3) 0.000(2) 0.004(3)
O8 O2- 0.069(6) 0.065(6) 0.052(5) -0.010(3) 0.011(4) -0.005(3)
O9 O2- 0.060(4) 0.069(5) 0.043(3) 0.003(4) 0.000(3) -0.006(3)
#End of data_415324-ICSD


