data_65443-ICSD
#?2014 by Fachinformationszentrum Karlsruhe, and the U.S. Secretary of 
#Commerce on behalf of the United States.  All rights reserved.
_database_code_ICSD                65443
_audit_creation_date               1989/12/04
_audit_update_record               2012/08/01
_chemical_name_systematic
;
Hexapotassium Sodium Hexaoxoiodate(VII) Bis(oxoaurate(I))
;
_chemical_formula_structural       'K6 Na (I O6) (Au O)2'
_chemical_formula_sum              'Au2 I1 K6 Na1 O8'
_publ_section_title
;
Das erste quinquinaere Oxoaurat(I) K6 Na (I O6) (Au O)2 = K6 (Na I 
O6) (Au O2/2)2
;
loop_
_citation_id
_citation_journal_abbrev
_citation_year
_citation_journal_volume
_citation_page_first
_citation_page_last
_citation_journal_id_ASTM
primary 'Zeitschrift fuer Anorganische und Allgemeine Chemie (1950) (DE)'
 1989 574 54 64 ZAACAB
_publ_author_name                  'Schneider, J.;Hoppe, R.'
_cell_length_a                     7.074
_cell_length_b                     9.773
_cell_length_c                     11.994
_cell_angle_alpha                  90.
_cell_angle_beta                   122.9
_cell_angle_gamma                  90.
_cell_volume                       696.21
_cell_formula_units_Z              2
_symmetry_space_group_name_H-M     'P 1 2/c 1'
_symmetry_Int_Tables_number        13
_refine_ls_R_factor_all            .068
loop_
_symmetry_equiv_pos_site_id
_symmetry_equiv_pos_as_xyz
  1	'x, -y, z+.5'
  2	'-x, -y, -z'
  3	'-x, y, -z+.5'
  4	'x, y, z'
loop_
_atom_type_symbol
_atom_type_oxidation_number
Au1+	1
I7+	7
K1+	1
Na1+	1
O2-	-2
loop_
_atom_site_label
_atom_site_type_symbol
_atom_site_symmetry_multiplicity
_atom_site_Wyckoff_symbol
_atom_site_fract_x
_atom_site_fract_y
_atom_site_fract_z
_atom_site_occupancy
_atom_site_attached_hydrogens
Au1 Au1+ 2 e 0 0.0426(1) 0.25 1. 0 
Au2 Au1+ 2 a 0 0 0 1. 0 
I1 I7+ 2 b 0.5 0.5 0 1. 0 
K1 K1+ 4 g 0.9901(5) 0.3375(3) 0.0893(3) 1. 0 
K2 K1+ 2 e 0 0.6467(4) 0.25 1. 0 
K3 K1+ 4 g 0.5278(5) 0.8194(3) 0.9117(3) 1. 0 
K4 K1+ 2 f 0.5 0.1578(4) 0.75 1. 0 
Na1 Na1+ 2 f 0.5 0.5061(7) 0.25 1. 0 
O1 O2- 4 g 0.7116(14) 0.4204(9) 0.1671(8) 1. 0 
O2 O2- 4 g 0.7373(14) 0.4259(8) 0.4873(9) 1. 0 
O3 O2- 4 g 0.4975(16) 0.6608(9) 0.4091(9) 1. 0 
O4 O2- 4 g 0.2136(16) 0.9462(12) 0.6855(9) 1. 0 

loop_
_atom_site_aniso_label
_atom_site_aniso_type_symbol
_atom_site_aniso_U_11
_atom_site_aniso_U_22
_atom_site_aniso_U_33
_atom_site_aniso_U_12
_atom_site_aniso_U_13
_atom_site_aniso_U_23
Au1 Au1+ 0.0163(3) 0.0144(3) 0.0174(3) 0 0.0109(3) 0
Au2 Au1+ 0.0150(3) 0.0148(3) 0.0194(4) -.0021(3) 0.0118(3) -.0049(3)
I1 I7+ 0.0090(5) 0.0086(4) 0.0081(4) 0.0001(4) 0.0073(4) 0.0002(4)
K1 K1+ 0.0171(13) 0.0165(13) 0.0198(14) 0.0009(10) 0.0136(12) 0.0004(11)
K2 K1+ 0.019(2) 0.0224(22) 0.0186(20) 0 0.0095(17) 0
K3 K1+ 0.0204(15) 0.0165(14) 0.0255(16) 0.0002(11) 0.0138(13) 0.0065(11)
K4 K1+ 0.0301(24) 0.0142(19) 0.0235(21) 0 0.0191(20) 0
Na1 Na1+ 0.0331(47) 0.0040(31) 0.025(4) 0 0.0184(37) 0
O1 O2- 0.0107(40) 0.0140(42) 0.0111(40) 0.0045(32) 0.0053(34) 0.0041(32)
O2 O2- 0.0154(43) 0.0097(39) 0.0213(45) 0.0031(32) 0.0155(39) -.0032(33)
O3 O2- 0.0236(50) 0.0056(39) 0.0208(46) -.0023(34) 0.0158(42) 0.0021(33)
O4 O2- 0.019(5) 0.0409(64) 0.0184(48) -.0004(47) 0.0122(42) 0.0071(46)
#End of data_65443-ICSD


