data_170140-ICSD
#?2014 by Fachinformationszentrum Karlsruhe, and the U.S. Secretary of 
#Commerce on behalf of the United States.  All rights reserved.
_database_code_ICSD                170140
_audit_creation_date               2006/04/01
_audit_update_record               2007/08/01
_chemical_name_systematic          'Dipotassium Zinc Bis(sulfate(VI))'
_chemical_formula_structural       'K2 Zn (S O4)2'
_chemical_formula_sum              'K2 O8 S2 Zn1'
_publ_section_title
;
The reaction between Zn O and molten Na2 S2 O7 or K2 S2 O7 forming 
Na2 Zn (S O4)2 or K2 Zn (S O4)2, studied by Raman spectroscopy and x-
ray diffraction
;
loop_
_citation_id
_citation_journal_abbrev
_citation_year
_citation_journal_volume
_citation_journal_issue
_citation_page_first
_citation_page_last
_citation_journal_id_ASTM
primary 'Inorganic Chemistry' 2005 44 10 3485 3493 INOCAJ
2 'Golden Book of Phase Transitions, Wroclaw' 2002 1- 1 123 GBOPT5
_publ_author_name                  'Berg, R.W.;Thorup, N.'
_cell_length_a                     5.3582(11)
_cell_length_b                     8.7653(18)
_cell_length_c                     16.152(3)
_cell_angle_alpha                  90.00
_cell_angle_beta                   91.78(3)
_cell_angle_gamma                  90.00
_cell_volume                       758.23
_cell_formula_units_Z              4
_symmetry_space_group_name_H-M     'P 1 21/n 1'
_symmetry_Int_Tables_number        14
_refine_ls_R_factor_all            .0526
loop_
_symmetry_equiv_pos_site_id
_symmetry_equiv_pos_as_xyz
  1	'-x+.5, y+.5, -z+.5'
  2	'-x, -y, -z'
  3	'x+.5, -y+.5, z+.5'
  4	'x, y, z'
loop_
_atom_type_symbol
_atom_type_oxidation_number
K1+	1
O2-	-2
S6+	6
Zn2+	2
loop_
_atom_site_label
_atom_site_type_symbol
_atom_site_symmetry_multiplicity
_atom_site_Wyckoff_symbol
_atom_site_fract_x
_atom_site_fract_y
_atom_site_fract_z
_atom_site_occupancy
_atom_site_attached_hydrogens
_atom_site_U_iso_or_equiv
Zn1 Zn2+ 4 e 0.24459(7) 0.52820(5) 0.63046(2) 1 0 0.01091(13) 
K1 K1+ 4 e 0.26381(16) 0.17285(10) 0.47760(5) 1 0 0.01795(19) 
S1 S6+ 4 e 0.26453(16) 0.88425(10) 0.67672(5) 1 0 0.01138(19) 
K2 K1+ 4 e 0.73457(15) 1.14449(9) 0.72887(5) 1 0 0.01736(19) 
S2 S6+ 4 e 0.75457(16) 0.39075(10) 0.57224(5) 1 0 0.01105(19) 
O1 O2- 4 e 0.3317(5) 0.6180(3) 0.51531(15) 1 0 0.0175(6) 
O2 O2- 4 e 0.5304(5) 0.3788(3) 0.62523(15) 1 0 0.0154(5) 
O3 O2- 4 e -0.1213(5) 0.5398(3) 0.58997(16) 1 0 0.0166(5) 
O4 O2- 4 e -0.0718(5) 0.2670(3) 0.59260(16) 1 0 0.0209(6) 
O5 O2- 4 e 0.3573(5) 0.9538(3) 0.75544(15) 1 0 0.0202(6) 
O6 O2- 4 e 0.3656(5) 0.9699(3) 0.60784(16) 1 0 0.0230(6) 
O7 O2- 4 e 0.3688(5) 0.7262(3) 0.67683(17) 1 0 0.0222(6) 
O8 O2- 4 e -0.0075(5) 0.8786(3) 0.67242(17) 1 0 0.0215(6) 

loop_
_atom_site_aniso_label
_atom_site_aniso_type_symbol
_atom_site_aniso_U_11
_atom_site_aniso_U_22
_atom_site_aniso_U_33
_atom_site_aniso_U_12
_atom_site_aniso_U_13
_atom_site_aniso_U_23
Zn1 Zn2+ 0.0095(2) 0.0123(2) 0.0110(2) 0.00104(16) 0.00173(15) -0.00021(16)
K1 K1+ 0.0177(4) 0.0193(4) 0.0170(4) 0.0026(3) 0.0030(3) 0.0009(3)
S1 S6+ 0.0135(4) 0.0105(4) 0.0103(4) -0.0003(3) 0.0021(3) -0.0010(3)
K2 K1+ 0.0172(4) 0.0181(4) 0.0168(4) -0.0036(3) 0.0017(3) 0.0013(3)
S2 S6+ 0.0083(4) 0.0136(4) 0.0114(4) 0.0011(3) 0.0036(3) 0.0017(3)
O1 O2- 0.0186(14) 0.0242(14) 0.0097(12) -0.0023(11) 0.0007(10) 0.0003(10)
O2 O2- 0.0126(13) 0.0170(13) 0.0170(13) 0.0027(10) 0.0078(10) 0.0045(10)
O3 O2- 0.0132(12) 0.0159(13) 0.0207(13) -0.0037(11) -0.0003(10) 0.0008(11)
O4 O2- 0.0190(14) 0.0230(15) 0.0213(14) 0.0113(12) 0.0085(11) 0.0059(11)
O5 O2- 0.0200(14) 0.0269(15) 0.0141(13) -0.0092(12) 0.0060(11) -0.0101(11)
O6 O2- 0.0291(16) 0.0213(15) 0.0191(14) 0.0027(12) 0.0099(12) 0.0075(11)
O7 O2- 0.0279(16) 0.0129(14) 0.0253(15) 0.0037(11) -0.0078(12) -0.0033(11)
O8 O2- 0.0140(14) 0.0269(15) 0.0236(14) 0.0005(11) 0.0003(11) -0.0036(12)
#End of data_170140-ICSD


