data_186609-ICSD
#?2014 by Fachinformationszentrum Karlsruhe, and the U.S. Secretary of 
#Commerce on behalf of the United States.  All rights reserved.
_database_code_ICSD                186609
_audit_creation_date               2013/08/01
_chemical_name_systematic          'Cesium Aluminosilicate'
_chemical_formula_structural       'Cs (Al Si O4)'
_chemical_formula_sum              'Al1 Cs1 O4 Si1'
_publ_section_title
;
Phase stability and thermo-elastic behaviour of Cs Al Si O4 (ABW): A 
potential nuclear waste disposal material
;
loop_
_citation_id
_citation_journal_abbrev
_citation_year
_citation_journal_volume
_citation_page_first
_citation_page_last
_citation_journal_id_ASTM
primary 'Microporous and Mesoporous Materials' 2012 163 147 152 MIMMFJ
_publ_author_name
;
Gatta, G.D.;Merlini, M.;Lotti, P.;Lausi, A.;Rieder, M.
;
_cell_length_a                     9.3797(1)
_cell_length_b                     5.4341(1)
_cell_length_c                     9.1205(1)
_cell_angle_alpha                  90.
_cell_angle_beta                   90.
_cell_angle_gamma                  90.
_cell_volume                       464.87
_cell_formula_units_Z              4
_symmetry_space_group_name_H-M     'P c 21 n'
_symmetry_Int_Tables_number        33
_refine_ls_R_factor_all            .0706
loop_
_symmetry_equiv_pos_site_id
_symmetry_equiv_pos_as_xyz
  1	'-x+.5, y, z+.5'
  2	'x+.5, y+.5, -z+.5'
  3	'-x, y+.5, -z'
  4	'x, y, z'
loop_
_atom_type_symbol
_atom_type_oxidation_number
Al3+	3
Cs1+	1
O2-	-2
Si4+	4
loop_
_atom_site_label
_atom_site_type_symbol
_atom_site_symmetry_multiplicity
_atom_site_Wyckoff_symbol
_atom_site_fract_x
_atom_site_fract_y
_atom_site_fract_z
_atom_site_occupancy
_atom_site_attached_hydrogens
_atom_site_U_iso_or_equiv
Cs1 Cs1+ 4 a 0.1933(2) 0.490(4) 0.496(1) 1. 0 0.060(1) 
Si1 Si4+ 4 a 0.079(1) 0.0022(7) 0.1879(5) 1. 0 0.026(2) 
Al1 Al3+ 4 a 0.406(1) -0.0031(7) 0.3235(7) 1. 0 0.026(2) 
O1 O2- 4 a 0.0963(2) -0.0018(7) 0.0138(7) 1. 0 0.042(4) 
O2 O2- 4 a 0.006(2) -0.2533(8) 0.2428(1) 1. 0 0.042(4) 
O3 O2- 4 a -0.018(1) 0.2289(8) 0.2470(2) 1. 0 0.042(4) 
O4 O2- 4 a 0.234(2) 0.031(1) 0.264(2) 1. 0 0.042(4) 

#End of data_186609-ICSD


