data_418257-ICSD
#?2014 by Fachinformationszentrum Karlsruhe, and the U.S. Secretary of 
#Commerce on behalf of the United States.  All rights reserved.
_database_code_ICSD                418257
_audit_creation_date               2008/08/01
_chemical_name_systematic          'Potassium Tetrathiogermanate'
_chemical_formula_structural       'K4 Ge S4'
_chemical_formula_sum              'Ge1 K4 S4'
_publ_section_title
;
Syntheses, crystal structures, UV - Vis spectra and first NMR spectra 
of new potassium salts of chalcogenogermanates
;
loop_
_citation_id
_citation_journal_abbrev
_citation_year
_citation_journal_volume
_citation_journal_issue
_citation_page_first
_citation_page_last
_citation_journal_id_ASTM
primary 'Zeitschrift fuer Anorganische und Allgemeine Chemie (1950) (DE)'
 2007 633 13-14 2159 2167 ZAACAB
_publ_author_name                  'Melullis, M.;Dehnen, S.'
_cell_length_a                     12.7450(15)
_cell_length_b                     12.7450(15)
_cell_length_c                     12.7450(15)
_cell_angle_alpha                  90.00
_cell_angle_beta                   90.00
_cell_angle_gamma                  90.00
_cell_volume                       2070.23
_cell_formula_units_Z              8
_symmetry_space_group_name_H-M     'P -4 3 n'
_symmetry_Int_Tables_number        218
_refine_ls_R_factor_all            .0216
loop_
_symmetry_equiv_pos_site_id
_symmetry_equiv_pos_as_xyz
  1	'-z+.5, y+.5, -x+.5'
  2	'-y+.5, x+.5, -z+.5'
  3	'-x+.5, z+.5, -y+.5'
  4	'z+.5, -y+.5, -x+.5'
  5	'y+.5, -x+.5, -z+.5'
  6	'x+.5, -z+.5, -y+.5'
  7	'-z+.5, -y+.5, x+.5'
  8	'-y+.5, -x+.5, z+.5'
  9	'-x+.5, -z+.5, y+.5'
 10	'z+.5, y+.5, x+.5'
 11	'y+.5, x+.5, z+.5'
 12	'x+.5, z+.5, y+.5'
 13	'-z, -x, y'
 14	'-y, -z, x'
 15	'-x, -y, z'
 16	'z, -x, -y'
 17	'y, -z, -x'
 18	'x, -y, -z'
 19	'-z, x, -y'
 20	'-y, z, -x'
 21	'-x, y, -z'
 22	'z, x, y'
 23	'y, z, x'
 24	'x, y, z'
loop_
_atom_type_symbol
_atom_type_oxidation_number
Ge4+	4
K1+	1
S2-	-2
loop_
_atom_site_label
_atom_site_type_symbol
_atom_site_symmetry_multiplicity
_atom_site_Wyckoff_symbol
_atom_site_fract_x
_atom_site_fract_y
_atom_site_fract_z
_atom_site_occupancy
_atom_site_attached_hydrogens
_atom_site_U_iso_or_equiv
Ge1 Ge4+ 6 c 0.5000 0.0000 0.2500 1 0 0.00935(19) 
Ge2 Ge4+ 2 a 0.5000 0.5000 0.5000 1 0 0.0093(2) 
K1 K1+ 8 e 0.34742(6) 0.34742(6) 0.65258(6) 1 0 0.0185(3) 
K2 K1+ 24 i 0.36505(5) 0.15146(5) 0.41446(6) 1 0 0.0171(2) 
S1 S2- 24 i 0.40419(6) 0.11026(6) 0.15485(6) 1 0 0.0147(2) 
S2 S2- 8 e 0.39966(7) 0.60034(7) 0.60034(7) 1 0 0.0154(3) 

loop_
_atom_site_aniso_label
_atom_site_aniso_type_symbol
_atom_site_aniso_U_11
_atom_site_aniso_U_22
_atom_site_aniso_U_33
_atom_site_aniso_U_12
_atom_site_aniso_U_13
_atom_site_aniso_U_23
Ge1 Ge4+ 0.0093(2) 0.0093(2) 0.0093(3) 0.000 0.000 0.000
Ge2 Ge4+ 0.0093(2) 0.0093(2) 0.0093(2) 0.000 0.000 0.000
K1 K1+ 0.0185(3) 0.0185(3) 0.0185(3) -0.0014(3) 0.0014(3) 0.0014(3)
K2 K1+ 0.0176(4) 0.0173(4) 0.0164(4) 0.0015(2) 0.0007(3) -0.0008(3)
S1 S2- 0.0152(4) 0.0139(4) 0.0149(4) 0.0031(3) -0.0023(3) 0.0026(3)
S2 S2- 0.0154(3) 0.0154(3) 0.0154(3) 0.0029(3) 0.0029(3) -0.0029(3)
#End of data_418257-ICSD


