data_72873-ICSD
#?2014 by Fachinformationszentrum Karlsruhe, and the U.S. Secretary of 
#Commerce on behalf of the United States.  All rights reserved.
_database_code_ICSD                72873
_audit_creation_date               1994/01/19
_chemical_name_systematic          'Tripotassium Niobatodiphosphate'
_chemical_formula_structural       'K3 (Nb P2 O9)'
_chemical_formula_sum              'K3 Nb1 O9 P2'
_publ_section_title
;
Redetermination de la structure cristalline de K3NbP2O9
;
loop_
_citation_id
_citation_journal_abbrev
_citation_year
_citation_journal_volume
_citation_page_first
_citation_page_last
_citation_journal_id_ASTM
primary 'Journal of Solid State Chemistry' 1992 99 201 206 JSSCBI
_publ_author_name                  'Zid, M.F.;Jouini, T.;Piffard, Y.'
_cell_length_a                     5.214(2)
_cell_length_b                     17.695(6)
_cell_length_c                     9.751(3)
_cell_angle_alpha                  90.
_cell_angle_beta                   90.48(3)
_cell_angle_gamma                  90.
_cell_volume                       899.61
_cell_formula_units_Z              4
_symmetry_space_group_name_H-M     'P 1 21/c 1'
_symmetry_Int_Tables_number        14
_refine_ls_R_factor_all            .058
loop_
_symmetry_equiv_pos_site_id
_symmetry_equiv_pos_as_xyz
  1	'x, -y+.5, z+.5'
  2	'-x, -y, -z'
  3	'-x, y+.5, -z+.5'
  4	'x, y, z'
loop_
_atom_type_symbol
_atom_type_oxidation_number
K1+	1
Nb5+	5
O2-	-2
P5+	5
loop_
_atom_site_label
_atom_site_type_symbol
_atom_site_symmetry_multiplicity
_atom_site_Wyckoff_symbol
_atom_site_fract_x
_atom_site_fract_y
_atom_site_fract_z
_atom_site_occupancy
_atom_site_attached_hydrogens
_atom_site_B_iso_or_equiv
Nb1 Nb5+ 4 e 0.2410(5) 0.4104(1) 0.6849(2) 1. 0 0.86(3) 
P1 P5+ 4 e 0.748(1) 0.2889(3) 0.7349(5) 1. 0 0.8(1) 
P2 P5+ 4 e 0.736(1) 0.5383(3) 0.6697(6) 1. 0 0.8(1) 
K1 K1+ 4 e 0.250(1) 0.2054(3) 0.5410(6) 1. 0 2.1(1) 
K2 K1+ 4 e 0.747(1) 0.0735(3) 0.5418(5) 1. 0 2.0(1) 
K3 K1+ 4 e 0.757(2) 0.3635(3) 0.4236(5) 1. 0 1.2(1) 
O1 O2- 4 e 0.218(3) 0.421(1) 0.864(2) 1. 0 2.3(3) 
O2 O2- 4 e 0.722(3) 0.2087(8) 0.691(2) 1. 0 1.2(3) 
O3 O2- 4 e 0.776(4) 0.5706(9) 0.812(2) 1. 0 2.2(3) 
O4 O2- 4 e 0.744(3) 0.3016(9) 0.888(2) 1. 0 1.5(3) 
O5 O2- 4 e 0.252(3) 0.4032(8) 0.446(2) 1. 0 0.9(2) 
O6 O2- 4 e -.008(3) 0.3238(9) 0.667(1) 1. 0 1.1(3) 
O7 O2- 4 e 0.469(3) 0.4985(9) 0.659(2) 1. 0 1.7(3) 
O8 O2- 4 e 0.526(4) 0.337(1) 0.666(2) 1. 0 2.0(3) 
O9 O2- 4 e -.056(4) 0.477(1) 0.643(2) 1. 0 2.4(3) 

#End of data_72873-ICSD


