data_61044-ICSD
#?2014 by Fachinformationszentrum Karlsruhe, and the U.S. Secretary of 
#Commerce on behalf of the United States.  All rights reserved.
_database_code_ICSD                61044
_audit_creation_date               1986/12/03
_chemical_name_systematic
;
Dilanthanum Zinc Digallium Hexasulfur Oxide
;
_chemical_formula_structural       'La2 Zn Ga2 S6 O'
_chemical_formula_sum              'Ga2 La2 O1 S6 Zn1'
_publ_section_title
;
Ueber Oxidsulfide mit Akermanitstruktur Ca La Ga3 S6 O, Sr La Ga3 S6 
O, La2 Zn Ga2 S6 O und Sr2 Zn Ge2 S6 O
;
loop_
_citation_id
_citation_journal_abbrev
_citation_year
_citation_journal_volume
_citation_page_first
_citation_page_last
_citation_journal_id_ASTM
primary 'Zeitschrift fuer Anorganische und Allgemeine Chemie (1950) (DE)'
 1985 531 52 60 ZAACAB
_publ_author_name                  'Teske, C.L.'
_cell_length_a                     9.3653(15)
_cell_length_b                     9.3653(15)
_cell_length_c                     6.0928(10)
_cell_angle_alpha                  90.
_cell_angle_beta                   90.
_cell_angle_gamma                  90.
_cell_volume                       534.39
_cell_formula_units_Z              2
_symmetry_space_group_name_H-M     'P -4 21 m'
_symmetry_Int_Tables_number        113
_refine_ls_R_factor_all            .057
loop_
_symmetry_equiv_pos_site_id
_symmetry_equiv_pos_as_xyz
  1	'-y+.5, -x+.5, z'
  2	'y, -x, -z'
  3	'y+.5, x+.5, z'
  4	'-y, x, -z'
  5	'x+.5, -y+.5, -z'
  6	'-x, -y, z'
  7	'-x+.5, y+.5, -z'
  8	'x, y, z'
loop_
_atom_type_symbol
_atom_type_oxidation_number
Ga3+	3
La3+	3
O2-	-2
S2-	-2
Zn2+	2
loop_
_atom_site_label
_atom_site_type_symbol
_atom_site_symmetry_multiplicity
_atom_site_Wyckoff_symbol
_atom_site_fract_x
_atom_site_fract_y
_atom_site_fract_z
_atom_site_occupancy
_atom_site_attached_hydrogens
La1 La3+ 4 e 0.1559(1) 0.6559(1) 0.4921(3) 1. 0 
Zn1 Zn2+ 2 a 0 0 0 1. 0 
Ga1 Ga3+ 4 e 0.3736(3) 0.8736(3) 0.9147(6) 1. 0 
S1 S2- 4 e 0.3689(7) 0.8689(7) 0.2807(12) 1. 0 
S2 S2- 8 f 0.3320(6) 0.4340(6) 0.2568(9) 1. 0 
O1 O2- 2 c 0 0.5 0.2336(3) 1. 0 

loop_
_atom_site_aniso_label
_atom_site_aniso_type_symbol
_atom_site_aniso_U_11
_atom_site_aniso_U_22
_atom_site_aniso_U_33
_atom_site_aniso_U_12
_atom_site_aniso_U_13
_atom_site_aniso_U_23
La1 La3+ 0.0075(4) 0.0075(4) 0.0097(6) -.0003(5) -.0008(5) -.0008(5)
Zn1 Zn2+ 0.0093(11) 0.0093(11) 0.0074(17) 0 0 0
Ga1 Ga3+ 0.0083(8) 0.0083(8) 0.0073(12) -.0007(11) 0.0012(8) 0.0012(8)
S1 S2- 0.0119(19) 0.0119(19) 0.0063(24) -.0001(25) 0.0004(17) 0.0004(17)
S2 S2- 0.0103(20) 0.0069(18) 0.0089(18) 0.0005(17) 0.0017(16) 0.0024(18)
O1 O2- 0.0808(77) 0.0808(77) 0.0108(75) 0.0589(78) 0 0
#End of data_61044-ICSD


