data_182626-ICSD
#?2014 by Fachinformationszentrum Karlsruhe, and the U.S. Secretary of 
#Commerce on behalf of the United States.  All rights reserved.
_database_code_ICSD                182626
_audit_creation_date               2012/02/01
_audit_update_record               2012/08/01
_chemical_name_systematic          'Potassium Holmium Ditungstate'
_chemical_formula_structural       'K Ho (W O4)2'
_chemical_formula_sum              'Ho1 K1 O8 W2'
_publ_section_title
;
Crystalline structure of potassium holmium double tungstate
;
loop_
_citation_id
_citation_journal_abbrev
_citation_year
_citation_journal_volume
_citation_journal_issue
_citation_page_first
_citation_page_last
_citation_journal_id_ASTM
primary 'Acta Physica Polonica, A' 2011 119 6 835 837 ATPLB6
_publ_author_name
;
Borowiec, M.T.;Dyakonov, V.P.;Wozniak, K.;Dobrzycki, L.;Majchrowski, 
A.;Michalski, E.;Zubov, E.E.;Khatsko, E.N.;Zayarnyuk, T.;Szewczyk, 
A.;Gutowska, M.U.;Rykova, A.I.;Baranski, M.;Domukhovski, 
V.;Shtyrkhunova, V.;Iwanowski, P.;Zmija, J.;Szymczak, H.
;
_cell_length_a                     10.624(2)
_cell_length_b                     10.352(2)
_cell_length_c                     7.5434(15)
_cell_angle_alpha                  90.
_cell_angle_beta                   130.78(3)
_cell_angle_gamma                  90.
_cell_volume                       628.21
_cell_formula_units_Z              4
_symmetry_space_group_name_H-M     'C 1 2/c 1'
_symmetry_Int_Tables_number        15
loop_
_symmetry_equiv_pos_site_id
_symmetry_equiv_pos_as_xyz
  1	'x, -y, z+.5'
  2	'-x, -y, -z'
  3	'-x, y, -z+.5'
  4	'x, y, z'
  5	'x+.5, -y+.5, z+.5'
  6	'-x+.5, -y+.5, -z'
  7	'-x+.5, y+.5, -z+.5'
  8	'x+.5, y+.5, z'
loop_
_atom_type_symbol
_atom_type_oxidation_number
Ho3+	3
K1+	1
O2-	-2
W6+	6
loop_
_atom_site_label
_atom_site_type_symbol
_atom_site_symmetry_multiplicity
_atom_site_Wyckoff_symbol
_atom_site_fract_x
_atom_site_fract_y
_atom_site_fract_z
_atom_site_occupancy
_atom_site_attached_hydrogens
_atom_site_U_iso_or_equiv
Ho1 Ho3+ 4 e 0 0.7717(1) 0.750 1. 0 0.007(1) 
W1 W6+ 8 f 0.8039(1) 0.4999(1) 0.7642(1) 1. 0 0.005(1) 
K1 K1+ 4 e 0 0.7991(3) 0.250 1. 0 0.015(1) 
O1 O2- 8 f 0.9765(6) 0.3913(5) 0.0304(8) 1. 0 0.007(1) 
O2 O2- 8 f 0.8100(6) 0.4251(5) 0.5592(9) 1. 0 0.009(1) 
O3 O2- 8 f 0.6259(6) 0.4203(5) 0.6885(8) 1. 0 0.009(1) 
O4 O2- 8 f 0.7258(6) 0.6571(5) 0.6261(8) 1. 0 0.010(1) 

loop_
_atom_site_aniso_label
_atom_site_aniso_type_symbol
_atom_site_aniso_U_11
_atom_site_aniso_U_22
_atom_site_aniso_U_33
_atom_site_aniso_U_12
_atom_site_aniso_U_13
_atom_site_aniso_U_23
Ho1 Ho3+ 0.008(1) 0.006(1) 0.006(1) 0. 0.004(1) 0.
W1 W6+ 0.005(1) 0.006(1) 0.004(1) 0.000(1) 0.002(1) 0.001(1)
K1 K1+ 0.013(1) 0.015(1) 0.012(1) 0. 0.007(1) 0.
O1 O2- 0.006(2) 0.007(2) 0.007(2) -0.003(2) 0.004(2) 0.000(2)
O2 O2- 0.009(2) 0.007(2) 0.010(2) 0.002(2) 0.007(2) 0.001(2)
O3 O2- 0.007(2) 0.012(3) 0.007(2) -0.001(2) 0.003(2) 0.001(2)
O4 O2- 0.009(2) 0.008(3) 0.009(2) 0.002(2) 0.005(2) 0.004(2)
#End of data_182626-ICSD


