data_94466-ICSD
#?2014 by Fachinformationszentrum Karlsruhe, and the U.S. Secretary of 
#Commerce on behalf of the United States.  All rights reserved.
_database_code_ICSD                94466
_audit_creation_date               2003/10/01
_chemical_name_systematic          'Tripotassium Iron Iron(III) Oxide'
_chemical_formula_structural       'K3 (Fe2 O4)'
_chemical_formula_sum              'Fe2 K3 O4'
_publ_section_title
;
Das gemischtvalente ternaere Oxoferrat(II,III) K3 (Fe2 O4) - eine 
aufgefuellte Variante des K2 (Fe2 O4) - Typs
;
loop_
_citation_id
_citation_journal_abbrev
_citation_year
_citation_journal_volume
_citation_page_first
_citation_page_last
_citation_journal_id_ASTM
primary 'Zeitschrift fuer Anorganische und Allgemeine Chemie (1950) (DE)'
 2001 627 2537 2541 ZAACAB
_publ_author_name                  'Moeller, A.'
_cell_length_a                     5.958(1)
_cell_length_b                     11.380(2)
_cell_length_c                     17.116(2)
_cell_angle_alpha                  90
_cell_angle_beta                   90
_cell_angle_gamma                  90
_cell_volume                       1160.5
_cell_formula_units_Z              8
_symmetry_space_group_name_H-M     'F d d d Z'
_symmetry_Int_Tables_number        70
_refine_ls_R_factor_all            .054
loop_
_symmetry_equiv_pos_site_id
_symmetry_equiv_pos_as_xyz
  1	'x+.75, y+.75, -z'
  2	'x+.75, -y, z+.75'
  3	'-x, y+.75, z+.75'
  4	'-x, -y, -z'
  5	'-x+.25, -y+.25, z'
  6	'-x+.25, y, -z+.25'
  7	'x, -y+.25, -z+.25'
  8	'x, y, z'
  9	'x+.75, y+.25, -z+.5'
 10	'x+.25, y+.75, -z+.5'
 11	'x+.25, y+.25, -z'
 12	'x+.75, -y+.5, z+.25'
 13	'x+.25, -y, z+.25'
 14	'x+.25, -y+.5, z+.75'
 15	'-x, y+.25, z+.25'
 16	'-x+.5, y+.75, z+.25'
 17	'-x+.5, y+.25, z+.75'
 18	'-x, -y+.5, -z+.5'
 19	'-x+.5, -y, -z+.5'
 20	'-x+.5, -y+.5, -z'
 21	'-x+.25, -y+.75, z+.5'
 22	'-x+.75, -y+.25, z+.5'
 23	'-x+.75, -y+.75, z'
 24	'-x+.25, y+.5, -z+.75'
 25	'-x+.75, y, -z+.75'
 26	'-x+.75, y+.5, -z+.25'
 27	'x, -y+.75, -z+.75'
 28	'x+.5, -y+.25, -z+.75'
 29	'x+.5, -y+.75, -z+.25'
 30	'x, y+.5, z+.5'
 31	'x+.5, y, z+.5'
 32	'x+.5, y+.5, z'
loop_
_atom_type_symbol
_atom_type_oxidation_number
Fe2.5+	2.5
K1+	1
O2-	-2
loop_
_atom_site_label
_atom_site_type_symbol
_atom_site_symmetry_multiplicity
_atom_site_Wyckoff_symbol
_atom_site_fract_x
_atom_site_fract_y
_atom_site_fract_z
_atom_site_occupancy
_atom_site_attached_hydrogens
_atom_site_U_iso_or_equiv
K1 K1+ 8 b 0.125 0.625 0.125 1. 0 0.0161(6) 
K2 K1+ 16 g 0.625 0.625 0.2341(1) 1. 0 0.0124(5) 
Fe1 Fe2.5+ 16 g 0.375 0.875 0.06672(6) 1. 0 0.0108(5) 
O1 O2- 16 f 0.125 0.9442(1) 0.125 1. 0 0.0141(11) 
O2 O2- 16 d 0.5 0.250 0.250 1. 0 0.0152(11) 

loop_
_atom_site_aniso_label
_atom_site_aniso_type_symbol
_atom_site_aniso_U_11
_atom_site_aniso_U_22
_atom_site_aniso_U_33
_atom_site_aniso_U_12
_atom_site_aniso_U_13
_atom_site_aniso_U_23
K1 K1+ 0.0223(12) 0.0152(11) 0.0109(10) 0. 0. 0.
K2 K1+ 0.0119(8) 0.0123(8) 0.0129(9) -0.0018(6) 0. 0.
Fe1 Fe2.5+ 0.0113(7) 0.0107(7) 0.0104(6) -0.0003(4) 0. 0.
O1 O2- 0.0179(24) 0.0131(22) 0.0114(22) 0. 0.0024(23) 0.
O2 O2- 0.0143(23) 0.0160(22) 0.0153(24) -0.0012(23) -0.0016(22) 0.0004(22)
#End of data_94466-ICSD


