data_68383-ICSD
#?2014 by Fachinformationszentrum Karlsruhe, and the U.S. Secretary of 
#Commerce on behalf of the United States.  All rights reserved.
_database_code_ICSD                68383
_audit_creation_date               1991/07/10
_audit_update_record               2006/10/01
_chemical_name_systematic
;
Potassium Catena-dithioferrate(III)
;
_chemical_formula_structural       'K (Fe S2)'
_chemical_formula_sum              'Fe1 K1 S2'
_publ_section_title
;
Experimental electron density distribution of potassium iron 
disulfide, a low-dimensional material
;
loop_
_citation_id
_citation_journal_abbrev
_citation_year
_citation_journal_volume
_citation_page_first
_citation_page_last
_citation_journal_id_ASTM
primary 'Physical Review, Serie 3. B - Condensed Matter (18,1978-)'
 1988 37 1109 1120 PRBMDO
_publ_author_name                  'Pant, A.K.;Stevens, E.D.'
_cell_length_a                     7.079(1)
_cell_length_b                     11.304(2)
_cell_length_c                     5.398(1)
_cell_angle_alpha                  90.
_cell_angle_beta                   113.20(1)
_cell_angle_gamma                  90.
_cell_volume                       397.02
_cell_formula_units_Z              4
_symmetry_space_group_name_H-M     'C 1 2/c 1'
_symmetry_Int_Tables_number        15
_refine_ls_R_factor_all            .0342
loop_
_symmetry_equiv_pos_site_id
_symmetry_equiv_pos_as_xyz
  1	'x, -y, z+.5'
  2	'-x, -y, -z'
  3	'-x, y, -z+.5'
  4	'x, y, z'
  5	'x+.5, -y+.5, z+.5'
  6	'-x+.5, -y+.5, -z'
  7	'-x+.5, y+.5, -z+.5'
  8	'x+.5, y+.5, z'
loop_
_atom_type_symbol
_atom_type_oxidation_number
Fe3+	3
K1+	1
S2-	-2
loop_
_atom_site_label
_atom_site_type_symbol
_atom_site_symmetry_multiplicity
_atom_site_Wyckoff_symbol
_atom_site_fract_x
_atom_site_fract_y
_atom_site_fract_z
_atom_site_occupancy
_atom_site_attached_hydrogens
Fe1 Fe3+ 4 e 0 -.00342(5) 0.25 1. 0 
K1 K1+ 4 e 0 0.35688(10) 0.25 1. 0 
S1 S2- 8 f 0.19593(13) 0.11002(7) 0.10678(13) 1. 0 

loop_
_atom_site_aniso_label
_atom_site_aniso_type_symbol
_atom_site_aniso_U_11
_atom_site_aniso_U_22
_atom_site_aniso_U_33
_atom_site_aniso_U_12
_atom_site_aniso_U_13
_atom_site_aniso_U_23
Fe1 Fe3+ 0.01463(34) 0.01658(40) 0.01016(30) 0 0.00564(19) 0
K1 K1+ 0.02938(48) 0.03193(55) 0.02700(48) 0 0.00768(35) 0
S1 S2- 0.02560(41) 0.02656(43) 0.01885(43) -.00880(31) 0.01028(26) 
-.00352(23)
#End of data_68383-ICSD


