data_262632-ICSD
#?2014 by Fachinformationszentrum Karlsruhe, and the U.S. Secretary of 
#Commerce on behalf of the United States.  All rights reserved.
_database_code_ICSD                262632
_audit_creation_date               2012/08/01
_chemical_name_systematic
;
Silver(I) Sulfide - Lp Phase (4.7gpa)
;
_chemical_formula_structural       'Ag2 S'
_chemical_formula_sum              'Ag2 S1'
_chemical_name_mineral             Acanthite
_publ_section_title
;
Compression of silver sulfide: X-ray diffraction measurements and 
total-energy calculations
;
loop_
_citation_id
_citation_journal_abbrev
_citation_year
_citation_journal_volume
_citation_journal_issue
_citation_page_first
_citation_page_last
_citation_journal_id_ASTM
primary 'Inorganic Chemistry' 2012 51 9 5289 5298 INOCAJ
_publ_author_name
;
Santamaria-Perez, D.;Marques, M.;Chulia-Jordan, R.;Menendez, 
J.M.;Gomis, O.;Ruiz-Fuertes, J.;Sans, J.A.;Errandonea, D.;Recio, J.M.
;
_cell_length_a                     4.1266(2)
_cell_length_b                     6.6989(4)
_cell_length_c                     7.8383(4)
_cell_angle_alpha                  90.00000
_cell_angle_beta                   99.672(3)
_cell_angle_gamma                  90.00000
_cell_volume                       213.6
_cell_formula_units_Z              4
_symmetry_space_group_name_H-M     'P 1 21/n 1'
_symmetry_Int_Tables_number        14
_refine_ls_R_factor_all            .06
loop_
_symmetry_equiv_pos_site_id
_symmetry_equiv_pos_as_xyz
  1	'-x+.5, y+.5, -z+.5'
  2	'-x, -y, -z'
  3	'x+.5, -y+.5, z+.5'
  4	'x, y, z'
loop_
_atom_type_symbol
_atom_type_oxidation_number
Ag1+	1
S2-	-2
loop_
_atom_site_label
_atom_site_type_symbol
_atom_site_symmetry_multiplicity
_atom_site_Wyckoff_symbol
_atom_site_fract_x
_atom_site_fract_y
_atom_site_fract_z
_atom_site_occupancy
_atom_site_attached_hydrogens
_atom_site_U_iso_or_equiv
Ag1 Ag1+ 4 e 0.7440(4) 0.0269(3) 0.32764(19) 1.00000 0 0.0349(6) 
Ag2 Ag1+ 4 e 0.2532(4) 0.3406(3) 0.4402(3) 1.00000 0 0.0247(5) 
S1 S2- 4 e 0.3261(11) 0.2526(7) 0.1313(6) 1.00000 0 0.0120(12) 

#End of data_262632-ICSD


