data_411818-ICSD
#?2014 by Fachinformationszentrum Karlsruhe, and the U.S. Secretary of 
#Commerce on behalf of the United States.  All rights reserved.
_database_code_ICSD                411818
_audit_creation_date               2002/10/01
_chemical_name_systematic          'Sodium Dinitridophosphate(V)'
_chemical_formula_structural       'Na (P N2)'
_chemical_formula_sum              'N2 Na1 P1'
_publ_section_title
;
Hochdruck-Synthese, Kristallstruktur und Eigenschaften von Na P N2
;
loop_
_citation_id
_citation_journal_abbrev
_citation_year
_citation_journal_volume
_citation_page_first
_citation_page_last
_citation_journal_id_ASTM
primary 'Zeitschrift fuer Anorganische und Allgemeine Chemie (1950) (DE)'
 2001 627 2469 2472 ZAACAB
_publ_author_name
;
Landskron, K.;Schmid, S.;Schnick, W.
;
_cell_length_a                     4.9721(2)
_cell_length_b                     4.9721(2)
_cell_length_c                     6.9760(3)
_cell_angle_alpha                  90.
_cell_angle_beta                   90.
_cell_angle_gamma                  90.
_cell_volume                       172.46
_cell_formula_units_Z              4
_symmetry_space_group_name_H-M     'I -4 2 d'
_symmetry_Int_Tables_number        122
_refine_ls_R_factor_all            .0502
loop_
_symmetry_equiv_pos_site_id
_symmetry_equiv_pos_as_xyz
  1	'-y, -x+.5, z+.25'
  2	'y, -x, -z'
  3	'y, x+.5, z+.25'
  4	'-y, x, -z'
  5	'x, -y+.5, -z+.25'
  6	'-x, -y, z'
  7	'-x, y+.5, -z+.25'
  8	'x, y, z'
  9	'-y+.5, -x, z+.75'
 10	'y+.5, -x+.5, -z+.5'
 11	'y+.5, x, z+.75'
 12	'-y+.5, x+.5, -z+.5'
 13	'x+.5, -y, -z+.75'
 14	'-x+.5, -y+.5, z+.5'
 15	'-x+.5, y, -z+.75'
 16	'x+.5, y+.5, z+.5'
loop_
_atom_type_symbol
_atom_type_oxidation_number
N3-	-3
Na1+	1
P5+	5
loop_
_atom_site_label
_atom_site_type_symbol
_atom_site_symmetry_multiplicity
_atom_site_Wyckoff_symbol
_atom_site_fract_x
_atom_site_fract_y
_atom_site_fract_z
_atom_site_occupancy
_atom_site_attached_hydrogens
_atom_site_U_iso_or_equiv
P1 P5+ 4 a 0 0 0 1. 0 0.0262(6) 
Na1 Na1+ 4 b 0 0 0.5 1. 0 0.0289(8) 
N1 N3- 8 d 0.1239(1) 0.25 0.125 1. 0 0.0172(10) 

#End of data_411818-ICSD


