data_151576-ICSD
#?2014 by Fachinformationszentrum Karlsruhe, and the U.S. Secretary of 
#Commerce on behalf of the United States.  All rights reserved.
_database_code_ICSD                151576
_audit_creation_date               2006/10/01
_chemical_name_systematic          'Calcium Digermanate'
_chemical_formula_structural       'Ca (Ge2 O5)'
_chemical_formula_sum              'Ca1 Ge2 O5'
_publ_section_title
;
Structure and phase transition of Ca Ge2 O5 revisited
;
loop_
_citation_id
_citation_journal_abbrev
_citation_year
_citation_journal_volume
_citation_page_first
_citation_page_last
_citation_journal_id_ASTM
primary 'Physics and Chemistry of Minerals' 2004 31 224 231 PCMIDU
_publ_author_name                  'Malcherek, T.;Bosenick, A.'
_cell_length_a                     6.5678(4)
_cell_length_b                     8.8187(5)
_cell_length_c                     6.8833(4)
_cell_angle_alpha                  89.857(2)
_cell_angle_beta                   112.960(1)
_cell_angle_gamma                  90.072(2)
_cell_volume                       367.09
_cell_formula_units_Z              4
_symmetry_space_group_name_H-M     'C -1'
_symmetry_Int_Tables_number        2
_refine_ls_R_factor_all            .073
loop_
_symmetry_equiv_pos_site_id
_symmetry_equiv_pos_as_xyz
  1	'-x, -y, -z'
  2	'x, y, z'
  3	'-x+.5, -y+.5, -z'
  4	'x+.5, y+.5, z'
loop_
_atom_type_symbol
_atom_type_oxidation_number
Ca2+	2
Ge4+	4
O2-	-2
loop_
_atom_site_label
_atom_site_type_symbol
_atom_site_symmetry_multiplicity
_atom_site_Wyckoff_symbol
_atom_site_fract_x
_atom_site_fract_y
_atom_site_fract_z
_atom_site_occupancy
_atom_site_attached_hydrogens
_atom_site_U_iso_or_equiv
Ca1 Ca2+ 4 i 0.0035(19) 0.6696(5) 0.2524(17) 1. 0 0.0060(16) 
Ge1 Ge4+ 4 i 0.9991(12) 0.3140(3) 0.2473(10) 1. 0 0.0070(10) 
Ge2 Ge4+ 2 a 0 0 0 1. 0 0.0030(22) 
Ge3 Ge4+ 2 b 0 0 0.5 1. 0 0.0122(24) 
O1 O2- 4 i 0.993(5) 0.9268(13) 0.2456(42) 1. 0 0.0100(19) 
O2 O2- 4 i 0.391(4) 0.2985(23) 0.8984(35) 1. 0 0.0100(19) 
O3 O2- 4 i 0.815(4) 0.4383(25) 0.0803(33) 1. 0 0.0100(19) 
O4 O2- 4 i 0.185(4) 0.4394(25) 0.4273(32) 1. 0 0.0100(19) 
O5 O2- 4 i 0.114(4) 0.7958(22) 0.6010(36) 1. 0 0.0100(19) 

#End of data_151576-ICSD


