data_51508-ICSD
#?2014 by Fachinformationszentrum Karlsruhe, and the U.S. Secretary of 
#Commerce on behalf of the United States.  All rights reserved.
_database_code_ICSD                51508
_audit_creation_date               2003/04/01
_chemical_name_systematic
;
Pentacesium Silver Cyclo-trisilicate
;
_chemical_formula_structural       'Cs5 Ag (Si3 O9)'
_chemical_formula_sum              'Ag1 Cs5 O9 Si3'
_publ_section_title
;
Neue Cyclosilicate der Alkalielemente: Cs5 Ag Si3 O9 und Cs6 Na6 Si6 
O18
;
loop_
_citation_id
_citation_journal_abbrev
_citation_year
_citation_journal_volume
_citation_page_first
_citation_page_last
_citation_journal_id_ASTM
primary 'Zeitschrift fuer Anorganische und Allgemeine Chemie (1950) (DE)'
 2001 627 172 179 ZAACAB
_publ_author_name                  'Moeller, A.;Amann, P.'
_cell_length_a                     9.682(2)
_cell_length_b                     6.527(1)
_cell_length_c                     11.626(3)
_cell_angle_alpha                  90
_cell_angle_beta                   93.84(2)
_cell_angle_gamma                  90
_cell_volume                       733.05
_cell_formula_units_Z              2
_symmetry_space_group_name_H-M     'P 1 21/m 1'
_symmetry_Int_Tables_number        11
_refine_ls_R_factor_all            .069
loop_
_symmetry_equiv_pos_site_id
_symmetry_equiv_pos_as_xyz
  1	'x, -y+.5, z'
  2	'-x, -y, -z'
  3	'-x, y+.5, -z'
  4	'x, y, z'
loop_
_atom_type_symbol
_atom_type_oxidation_number
Ag1+	1
Cs1+	1
O2-	-2
Si4+	4
loop_
_atom_site_label
_atom_site_type_symbol
_atom_site_symmetry_multiplicity
_atom_site_Wyckoff_symbol
_atom_site_fract_x
_atom_site_fract_y
_atom_site_fract_z
_atom_site_occupancy
_atom_site_attached_hydrogens
_atom_site_U_iso_or_equiv
Cs1 Cs1+ 2 e 0.5388(2) 0.25 0.3984(2) 1. 0 0.0321(5) 
Cs2 Cs1+ 2 e 0.7774(2) 0.25 0.6870(2) 1. 0 0.0332(5) 
Cs3 Cs1+ 2 e 0.6625(2) 0.25 0.0637(2) 1. 0 0.0367(6) 
Cs4 Cs1+ 2 e 0.9514(2) 0.25 0.3807(2) 1. 0 0.0320(5) 
Cs5 Cs1+ 2 e 0.7284(33) 0.75 0.8572(3) 1. 0 0.0608(9) 
Ag1 Ag1+ 2 a 0.0 0.0 0.0 1. 0 0.0308(6) 
Si1 Si4+ 2 e 0.4424(9) 0.25 0.7907(7) 1. 0 0.0263(19) 
Si2 Si4+ 2 e 0.1284(8) 0.25 0.7990(6) 1. 0 0.0238(18) 
Si3 Si4+ 2 e 0.2542(8) 0.25 0.5637(7) 1. 0 0.0246(18) 
O1 O2- 4 f 0.054(2) 0.043(3) 0.834(1) 1. 0 0.0411(44) 
O2 O2- 4 f 0.243(2) 0.042(3) 0.491(1) 1. 0 0.0413(42) 
O3 O2- 4 f 0.524(2) 0.041(2) 0.825(1) 1. 0 0.0428(45) 
O4 O2- 2 e 0.292(1) 0.25 0.852(2) 1. 0 0.0301(51) 
O5 O2- 2 e 0.399(2) 0.25 0.650(1) 1. 0 0.0324(53) 
O6 O2- 2 e 0.128(2) 0.25 0.657(1) 1. 0 0.0271(48) 

loop_
_atom_site_aniso_label
_atom_site_aniso_type_symbol
_atom_site_aniso_U_11
_atom_site_aniso_U_22
_atom_site_aniso_U_33
_atom_site_aniso_U_12
_atom_site_aniso_U_13
_atom_site_aniso_U_23
Cs1 Cs1+ 0.0338(11) 0.0309(12) 0.0316(10) 0 0.0034(8) 0
Cs2 Cs1+ 0.0373(12) 0.0344(12) 0.0281(10) 0 0.0046(8) 0
Cs3 Cs1+ 0.0419(12) 0.0355(13) 0.0332(11) 0 0.0055(9) 0
Cs4 Cs1+ 0.0314(11) 0.0296(12) 0.0349(11) 0 0.0018(8) 0
Cs5 Cs1+ 0.0458(15) 0.0294(13) 0.1021(23) 0 -0.0328(15) 0
Ag1 Ag1+ 0.0309(13) 0.0332(14) 0.0285(12) -0.0050(10) 0.0033(10) 0.0026(10)
Si1 Si4+ 0.0303(46) 0.0262(47) 0.0216(41) 0 -0.0045(35) 0
Si2 Si4+ 0.0230(42) 0.0284(46) 0.0205(39) 0 0.0055(32) 0
Si3 Si4+ 0.0231(42) 0.0553(49) 0.0171(36) 0 0.0015(31) 0
O1 O2- 0.0673(124) 0.0335(110) 0.0228(77) -0.0068(85) 0.0056(76) 0.0092(69)
O2 O2- 0.0366(93) 0.0430(107) 0.0420(91) -0.0072(80) -0.0128(75) 
-0.0113(81)
O3 O2- 0.0642(120) 0.0201(97) 0.0421(94) 0.0109(79) -0.0089(85) -0.0096(70)
O4 O2- 0.0088(95) 0.0527(151) 0.0280(106) 0 -0.0052(80) 0
O5 O2- 0.0192(108) 0.0451(145) 0.0364(119) 0 0.0074(94) 0
O6 O2- 0.0119(98) 0.0250(121) 0.0438(125) 0 -0.0033(87) 0
#End of data_51508-ICSD


