data_422686-ICSD
#?2014 by Fachinformationszentrum Karlsruhe, and the U.S. Secretary of 
#Commerce on behalf of the United States.  All rights reserved.
_database_code_ICSD                422686
_audit_creation_date               2012/02/01
_chemical_name_systematic
;
Silver Fluoride Hexafluoroaurate(V)
;
_chemical_formula_structural       '(Ag F) (Au F6)'
_chemical_formula_sum              'Ag1 Au1 F7'
_publ_section_title
;
X-ray single crystal structures of Hg (Au F6)2 and Ag F Au F6
;
loop_
_citation_id
_citation_journal_abbrev
_citation_year
_citation_journal_volume
_citation_page_first
_citation_page_last
_citation_journal_id_ASTM
primary 'Journal of Fluorine Chemistry' 2011 132 686 689 JFLCAR
_publ_author_name                  'Mazej, Z.;Goreshnik, E.;Tavcar, G.'
_cell_length_a                     7.1706(7)
_cell_length_b                     7.6167(7)
_cell_length_c                     10.1361(10)
_cell_angle_alpha                  90
_cell_angle_beta                   90
_cell_angle_gamma                  90
_cell_volume                       553.6
_cell_formula_units_Z              4
_symmetry_space_group_name_H-M     'P m n b'
_symmetry_Int_Tables_number        62
_refine_ls_R_factor_all            .0502
loop_
_symmetry_equiv_pos_site_id
_symmetry_equiv_pos_as_xyz
  1	'x, y+.5, -z+.5'
  2	'-x+.5, y, z'
  3	'x+.5, -y+.5, z+.5'
  4	'-x, -y, -z'
  5	'-x, -y+.5, z+.5'
  6	'x+.5, -y, -z'
  7	'-x+.5, y+.5, -z+.5'
  8	'x, y, z'
loop_
_atom_type_symbol
_atom_type_oxidation_number
Ag2+	2
Au5+	5
F1-	-1
loop_
_atom_site_label
_atom_site_type_symbol
_atom_site_symmetry_multiplicity
_atom_site_Wyckoff_symbol
_atom_site_fract_x
_atom_site_fract_y
_atom_site_fract_z
_atom_site_occupancy
_atom_site_attached_hydrogens
_atom_site_U_iso_or_equiv
Au1 Au5+ 4 c 0.2500 0.30322(3) 0.05822(3) 1 0 0.01791(7) 
Ag1 Ag2+ 4 c 0.7500 0.36596(6) 0.24198(5) 1 0 0.01660(12) 
F1 F1- 4 c 0.7500 0.1146(5) 0.1889(5) 1 0 0.0279(12) 
F2 F1- 4 c 0.7500 0.4668(6) 0.0245(4) 1 0 0.0243(11) 
F3 F1- 8 d 0.9315(5) 0.2744(5) 0.4331(3) 1 0 0.0298(10) 
F4 F1- 8 d 0.4345(4) 0.3793(5) 0.1805(3) 1 0 0.0307(9) 
F5 F1- 4 c 0.2500 0.0860(8) 0.1342(6) 1 0 0.057(2) 

loop_
_atom_site_aniso_label
_atom_site_aniso_type_symbol
_atom_site_aniso_U_11
_atom_site_aniso_U_22
_atom_site_aniso_U_33
_atom_site_aniso_U_12
_atom_site_aniso_U_13
_atom_site_aniso_U_23
Au1 Au5+ 0.01908(13) 0.01806(13) 0.01660(13) 0.000 0.000 0.00021(10)
Ag1 Ag2+ 0.0174(2) 0.0125(2) 0.0199(2) 0.000 0.000 -0.0007(2)
F1 F1- 0.039(2) 0.0067(17) 0.037(2) 0.000 0.000 -0.0110(17)
F2 F1- 0.032(2) 0.0202(19) 0.0207(18) 0.000 0.000 -0.0019(17)
F3 F1- 0.0225(16) 0.0428(19) 0.0240(16) -0.0095(16) 0.0051(12) 0.0036(14)
F4 F1- 0.0227(15) 0.0423(18) 0.0271(15) 0.0032(15) -0.0052(14) -0.0040(14)
F5 F1- 0.090(5) 0.040(3) 0.040(3) 0.000 0.000 0.020(3)
#End of data_422686-ICSD


