data_291004-ICSD
#?2014 by Fachinformationszentrum Karlsruhe, and the U.S. Secretary of 
#Commerce on behalf of the United States.  All rights reserved.
_database_code_ICSD                291004
_audit_creation_date               2014/08/01
_chemical_name_systematic          'Calcium Diiron(III) Tetraoxide'
_chemical_formula_structural       'Ca Fe2 O4'
_chemical_formula_sum              'Ca1 Fe2 O4'
_chemical_name_mineral             Harmunite
_publ_section_title
;
Harmunite Ca Fe2 O4: A new mineral from the Jabel Harmun, West Bank, 
Palestinian Autonomy, Israel
;
loop_
_citation_id
_citation_journal_abbrev
_citation_year
_citation_journal_volume
_citation_journal_issue
_citation_page_first
_citation_page_last
_citation_journal_id_ASTM
primary 'American Mineralogist' 2014 99 5-6 965 975 AMMIAY
_publ_author_name
;
Galuskina, Irina O.;Vapnik, Yevgeny;Lazic, Biljana;Armbruster, 
Thomas;Murashko, Mikhail;Galuskin, Evgeny V.
;
_cell_length_a                     9.2183(3)
_cell_length_b                     3.01750(10)
_cell_length_c                     10.6934(4)
_cell_angle_alpha                  90.00
_cell_angle_beta                   90.00
_cell_angle_gamma                  90.00
_cell_volume                       297.45
_cell_formula_units_Z              4
_symmetry_space_group_name_H-M     'P n m a'
_symmetry_Int_Tables_number        62
_refine_ls_R_factor_all            .0262
loop_
_symmetry_equiv_pos_site_id
_symmetry_equiv_pos_as_xyz
  1	'x+.5, y, -z+.5'
  2	'x, -y+.5, z'
  3	'-x+.5, y+.5, z+.5'
  4	'-x, -y, -z'
  5	'-x+.5, -y, z+.5'
  6	'-x, y+.5, -z'
  7	'x+.5, -y+.5, -z+.5'
  8	'x, y, z'
loop_
_atom_type_symbol
_atom_type_oxidation_number
Ca2+	2
Fe3+	3
O2-	-2
loop_
_atom_site_label
_atom_site_type_symbol
_atom_site_symmetry_multiplicity
_atom_site_Wyckoff_symbol
_atom_site_fract_x
_atom_site_fract_y
_atom_site_fract_z
_atom_site_occupancy
_atom_site_attached_hydrogens
_atom_site_U_iso_or_equiv
Ca1 Ca2+ 4 c 0.75664(9) -0.2500 0.34592(7) 1 0 0.00828(18) 
Fe1 Fe3+ 4 c 0.56673(6) 0.2500 0.61181(5) 1 0 0.00735(15) 
Fe2 Fe3+ 4 c 0.08148(6) -0.7500 0.39465(5) 1 0 0.00754(16) 
O1 O2- 4 c 0.5813(3) 0.2500 0.4271(2) 1 0 0.0078(6) 
O2 O2- 4 c 0.8815(3) -0.7500 0.4767(2) 1 0 0.0078(6) 
O3 O2- 4 c 0.7063(3) -0.2500 0.6635(2) 1 0 0.0079(5) 
O4 O2- 4 c 0.4757(3) 0.2500 0.7827(2) 1 0 0.0073(5) 

loop_
_atom_site_aniso_label
_atom_site_aniso_type_symbol
_atom_site_aniso_U_11
_atom_site_aniso_U_22
_atom_site_aniso_U_33
_atom_site_aniso_U_12
_atom_site_aniso_U_13
_atom_site_aniso_U_23
Ca1 Ca2+ 0.0086(4) 0.0073(4) 0.0090(3) 0.000 -0.0004(3) 0.000
Fe1 Fe3+ 0.0080(3) 0.0070(3) 0.0070(2) 0.000 -0.0002(2) 0.000
Fe2 Fe3+ 0.0080(3) 0.0068(3) 0.0079(3) 0.000 0.0004(2) 0.000
O1 O2- 0.0093(14) 0.0077(14) 0.0064(11) 0.000 -0.0018(10) 0.000
O2 O2- 0.0089(13) 0.0063(13) 0.0083(12) 0.000 0.0013(10) 0.000
O3 O2- 0.0059(12) 0.0084(14) 0.0093(12) 0.000 0.0015(10) 0.000
O4 O2- 0.0086(13) 0.0076(13) 0.0058(11) 0.000 0.0019(9) 0.000
#End of data_291004-ICSD


