data_413603-ICSD
#?2014 by Fachinformationszentrum Karlsruhe, and the U.S. Secretary of 
#Commerce on behalf of the United States.  All rights reserved.
_database_code_ICSD                413603
_audit_creation_date               2005/10/01
_audit_update_record               2008/02/01
_chemical_name_systematic          'Trizinc Diborate'
_chemical_formula_structural       'Zn3 (B2 O6)'
_chemical_formula_sum              'B2 O6 Zn3'
_publ_section_title
;
Synthesis, band structures and optical properties of Zn3 B2 O6 and K 
Zn4 B3 O9
;
loop_
_citation_id
_citation_journal_abbrev
_citation_year
_citation_journal_volume
_citation_page_first
_citation_page_last
_citation_journal_id_ASTM
primary 'Solid State Sciences' 2005 7 179 188 SSSCFJ
_publ_author_name
;
Chen, D.-G.;Cheng, W.-D.;Wu, D.-S.;Zhang, H.;Zhang, Y.-J.;Gong, Y.-
J.;Kan, Z.-G.
;
_cell_length_a                     23.826(4)
_cell_length_b                     5.043(1)
_cell_length_c                     8.383(2)
_cell_angle_alpha                  90
_cell_angle_beta                   102.912(3)
_cell_angle_gamma                  90
_cell_volume                       981.79
_cell_formula_units_Z              8
_symmetry_space_group_name_H-M     'C 1 2/c 1'
_symmetry_Int_Tables_number        15
_refine_ls_R_factor_all            .053
loop_
_symmetry_equiv_pos_site_id
_symmetry_equiv_pos_as_xyz
  1	'x, -y, z+.5'
  2	'-x, -y, -z'
  3	'-x, y, -z+.5'
  4	'x, y, z'
  5	'x+.5, -y+.5, z+.5'
  6	'-x+.5, -y+.5, -z'
  7	'-x+.5, y+.5, -z+.5'
  8	'x+.5, y+.5, z'
loop_
_atom_type_symbol
_atom_type_oxidation_number
B3+	3
O2-	-2
Zn2+	2
loop_
_atom_site_label
_atom_site_type_symbol
_atom_site_symmetry_multiplicity
_atom_site_Wyckoff_symbol
_atom_site_fract_x
_atom_site_fract_y
_atom_site_fract_z
_atom_site_occupancy
_atom_site_attached_hydrogens
_atom_site_U_iso_or_equiv
Zn1 Zn2+ 8 f .29045(5) .1905(3) .28927(16) 1. 0 .0075(5) 
Zn2 Zn2+ 8 f .37254(5) .1839(3) .62125(16) 1. 0 .0082(5) 
Zn3 Zn2+ 8 f .45051(6) .3280(3) .32501(16) 1. 0 .0089(5) 
B1 B3+ 8 f .4346(6) .175(3) -.0358(17) 1. 0 .011(5) 
B2 B3+ 8 f .1879(6) .184(3) .0199(17) 1. 0 .010(3) 
O1 O2- 8 f .3147(3) .4115(16) .4791(9) 1. 0 .0086(17) 
O2 O2- 8 f .2150(3) .3145(15) .1609(10) 1. 0 .0097(18) 
O3 O2- 8 f .4635(3) .3016(16) .0989(10) 1. 0 .0109(18) 
O4 O2- 8 f .4194(4) .0858(16) .4589(10) 1. 0 .0121(18) 
O5 O2- 8 f .3371(3) .1747(15) .1196(10) 1. 0 .0085(17) 
O6 O2- 8 f .4193(3) .3207(15) .8200(10) 1. 0 .0107(17) 

#End of data_413603-ICSD


