data_404229-ICSD
#?2014 by Fachinformationszentrum Karlsruhe, and the U.S. Secretary of 
#Commerce on behalf of the United States.  All rights reserved.
_database_code_ICSD                404229
_audit_creation_date               1996/10/14
_audit_update_record               2000/07/15
_chemical_name_systematic          'Trizink Bis(arsenate(V)) - Beta'
_chemical_formula_structural       'Zn3 (As O4)2'
_chemical_formula_sum              'As2 O8 Zn3'
_publ_section_title
;
Zur Kenntnis zweier Formen des Zinkorthoarsenates: alpha Zn3 (As O4)2 
und beta - Zn3 (As O4)2
;
loop_
_citation_id
_citation_journal_abbrev
_citation_year
_citation_journal_volume
_citation_page_first
_citation_page_last
_citation_journal_id_ASTM
primary 'Zeitschrift fuer Naturforschung, B: Chemical Sciences'
 1996 51 333 337 ZNBSEN
_publ_author_name                  'Mueller Buschbaum, H.;Park, C.-H.'
_cell_length_a                     5.2805(9)
_cell_length_b                     8.494(2)
_cell_length_c                     7.726(3)
_cell_angle_alpha                  90.
_cell_angle_beta                   96.39(3)
_cell_angle_gamma                  90.
_cell_volume                       344.38
_cell_formula_units_Z              2
_symmetry_space_group_name_H-M     'P 1 21/n 1'
_symmetry_Int_Tables_number        14
_refine_ls_R_factor_all            .1832
loop_
_symmetry_equiv_pos_site_id
_symmetry_equiv_pos_as_xyz
  1	'-x+.5, y+.5, -z+.5'
  2	'-x, -y, -z'
  3	'x+.5, -y+.5, z+.5'
  4	'x, y, z'
loop_
_atom_type_symbol
_atom_type_oxidation_number
As5+	5
O2-	-2
Zn2+	2
loop_
_atom_site_label
_atom_site_type_symbol
_atom_site_symmetry_multiplicity
_atom_site_Wyckoff_symbol
_atom_site_fract_x
_atom_site_fract_y
_atom_site_fract_z
_atom_site_occupancy
_atom_site_attached_hydrogens
Zn1 Zn2+ 4 e -.4103(3) 0.1384(2) 0.1119(2) 1. 0 
Zn2 Zn2+ 2 b -.5 0.5 0 1. 0 
As1 As5+ 4 e 0.0437(2) 0.30755(14) 0.19134(15) 1. 0 
O1 O2- 4 e -.0712(14) 0.1316(10) 0.2517(10) 1. 0 
O2 O2- 4 e -.1828(16) 0.3634(11) 0.0373(11) 1. 0 
O3 O2- 4 e 0.3321(16) 0.3024(11) 0.1204(13) 1. 0 
O4 O2- 4 e 0.0687(18) 0.4341(10) 0.363(1) 1. 0 

loop_
_atom_site_aniso_label
_atom_site_aniso_type_symbol
_atom_site_aniso_U_11
_atom_site_aniso_U_22
_atom_site_aniso_U_33
_atom_site_aniso_U_12
_atom_site_aniso_U_13
_atom_site_aniso_U_23
Zn1 Zn2+ 0.0090(6) 0.0103(6) 0.0148(7) -.0005(5) -.0028(5) -.0007(5)
Zn2 Zn2+ 0.0167(10) 0.0224(12) 0.0302(13) 0.0031(9) -.0007(9) 0.0031(10)
As1 As5+ 0.0041(4) 0.0089(5) 0.0090(5) 0.0001(4) -.0003(3) -.0009(4)
O1 O2- 0.011(3) 0.022(4) 0.019(4) -.005(3) 0.002(3) 0.002(3)
O2 O2- 0.015(4) 0.028(4) 0.022(4) 0.003(3) -.004(3) 0.001(4)
O3 O2- 0.014(3) 0.020(4) 0.041(5) 0.001(3) 0.003(3) 0.002(4)
O4 O2- 0.032(5) 0.018(4) 0.015(4) -.003(4) -.003(3) 0.003(3)
#End of data_404229-ICSD


