data_41110-ICSD
#?2014 by Fachinformationszentrum Karlsruhe, and the U.S. Secretary of 
#Commerce on behalf of the United States.  All rights reserved.
_database_code_ICSD                41110
_audit_creation_date               1999/11/30
_audit_update_record               2014/08/01
_chemical_name_systematic
;
Aluminium Germanium Oxide (5/1/9.5) - Supercell
;
_chemical_formula_structural       'Al5 Ge1 O9.5'
_chemical_formula_sum              'Al5 Ge1 O9.5'
_publ_section_title
;
Observation of ordering in silicon and germanium mullites
;
loop_
_citation_id
_citation_journal_abbrev
_citation_year
_citation_journal_volume
_citation_page_first
_citation_page_last
_citation_journal_id_ASTM
primary 'Journal of Solid State Chemistry' 1991 90 234 248 JSSCBI
_publ_author_name
;
Kahn-Harari, A.;Abolhassani, S.;Michel, D.;Mazerolles, L.;Portier, 
R.;Perez-Ramirez, J.G.
;
_cell_length_a                     30.65999
_cell_length_b                     7.765
_cell_length_c                     5.842
_cell_angle_alpha                  90.
_cell_angle_beta                   90.
_cell_angle_gamma                  90.
_cell_volume                       1390.83
_cell_formula_units_Z              8
_symmetry_space_group_name_H-M     'B b 21 m'
_symmetry_Int_Tables_number        36
loop_
_symmetry_equiv_pos_site_id
_symmetry_equiv_pos_as_xyz
  1	'-x, y+.5, z'
  2	'-x, y+.5, -z'
  3	'x, y, -z'
  4	'x, y, z'
  5	'-x+.5, y+.5, z+.5'
  6	'-x+.5, y+.5, -z+.5'
  7	'x+.5, y, -z+.5'
  8	'x+.5, y, z+.5'
loop_
_atom_type_symbol
_atom_type_oxidation_number
Al3+	3
Ge4+	4
O2-	-2
loop_
_atom_site_label
_atom_site_type_symbol
_atom_site_symmetry_multiplicity
_atom_site_Wyckoff_symbol
_atom_site_fract_x
_atom_site_fract_y
_atom_site_fract_z
_atom_site_occupancy
_atom_site_attached_hydrogens
Al1 Al3+ 8 b 0.062 0 0.25 1. 0 
Al2 Al3+ 8 b 0.312 0 0.25 1. 0 
Al3 Al3+ 4 a 0.1 0.34 0 1. 0 
Al4 Al3+ 4 a 0.6 0.34 0 1. 0 
Al5 Al3+ 4 a 0.85 0.34 0 1. 0 
Al6 Al3+ 4 a 0.775 0.66 0 1. 0 
Al7 Al3+ 4 a 0.525 0.66 0 1. 0 
Al8 Al3+ 4 a 0.025 0.66 0 1. 0 
Ge1 Ge4+ 4 a 0.38 0.205 0 1. 0 
Ge2 Ge4+ 4 a 0.247 0.795 0 1. 0 
O1 O2- 4 a 0.152 0.422 0 1. 0 
O2 O2- 4 a 0.652 0.422 0 1. 0 
O3 O2- 4 a 0.402 0.422 0 1. 0 
O4 O2- 4 a 0.902 0.422 0 1. 0 
O5 O2- 4 a 0.223 0.578 0 1. 0 
O6 O2- 4 a 0.723 0.578 0 1. 0 
O7 O2- 4 a 0.472 0.578 0 1. 0 
O8 O2- 4 a 0.972 0.578 0 1. 0 
O9 O2- 8 b 0.094 0.219 0.25 1. 0 
O10 O2- 8 b 0.344 0.219 0.25 1. 0 
O11 O2- 8 b 0.281 0.781 0.25 1. 0 
O12 O2- 8 b 0.531 0.781 0.25 1. 0 
O13 O2- 4 a 0.425 0.05 0 1. 0 
O14 O2- 4 a 0.2 0.945 0 1. 0 
O15 O2- 4 a 0.937 0 0 1. 0 

#End of data_41110-ICSD


