data_300229-ICSD
#?2014 by Fachinformationszentrum Karlsruhe, and the U.S. Secretary of 
#Commerce on behalf of the United States.  All rights reserved.
_database_code_ICSD                300229
_audit_creation_date               1992/08/20
_audit_update_record               2005/10/01
_chemical_name_systematic          'Zinc Tetraphosphate(V)'
_chemical_formula_structural       'Zn P4 O11'
_chemical_formula_sum              'O11 P4 Zn1'
_publ_section_title
;
Crystal structure of zinc ultraphosphate
;
loop_
_citation_id
_citation_journal_abbrev
_citation_year
_citation_journal_volume
_citation_page_first
_citation_page_last
_citation_journal_id_ASTM
primary 'Zeitschrift fuer Kristallographie (1979-2010)' 1993 203 282 283 ZEKRDZ
_publ_author_name
;
Baez-Doelle, C.;Stachel, D.;Svoboda, I.;Fuess, H.
;
_cell_length_a                     5.302(1)
_cell_length_b                     22.244(3)
_cell_length_c                     7.407(1)
_cell_angle_alpha                  90.
_cell_angle_beta                   110.11(1)
_cell_angle_gamma                  90.
_cell_volume                       820.31
_cell_formula_units_Z              4
_symmetry_space_group_name_H-M     'P 1 21/c 1'
_symmetry_Int_Tables_number        14
_refine_ls_R_factor_all            .033
loop_
_symmetry_equiv_pos_site_id
_symmetry_equiv_pos_as_xyz
  1	'x, -y+.5, z+.5'
  2	'-x, -y, -z'
  3	'-x, y+.5, -z+.5'
  4	'x, y, z'
loop_
_atom_type_symbol
_atom_type_oxidation_number
O2-	-2
P5+	5
Zn2+	2
loop_
_atom_site_label
_atom_site_type_symbol
_atom_site_symmetry_multiplicity
_atom_site_Wyckoff_symbol
_atom_site_fract_x
_atom_site_fract_y
_atom_site_fract_z
_atom_site_occupancy
_atom_site_attached_hydrogens
Zn1 Zn2+ 4 e 1.00500(7) 0.38619(2) 0.37020(5) 1. 0 
O1 O2- 4 e 0.21814(46) 0.45533(10) 0.31369(33) 1. 0 
O2 O2- 4 e 0.66066(44) 0.43506(11) 0.24920(35) 1. 0 
P1 P5+ 4 e 0.40200(15) 0.46500(3) 0.20779(11) 1. 0 
O3 O2- 4 e 0.76941(42) 0.54531(10) 0.01823(30) 1. 0 
O4 O2- 4 e 0.44700(43) 0.53713(10) 0.20253(33) 1. 0 
P2 P5+ 4 e 0.69487(15) 0.57205(3) 0.18740(11) 1. 0 
O5 O2- 4 e 0.93049(44) 0.57545(10) 0.36089(31) 1. 0 
O6 O2- 4 e 0.57292(44) 0.6358(1) 0.11654(33) 1. 0 
O7 O2- 4 e 0.08701(45) 0.65489(11) -.09384(33) 1. 0 
P3 P5+ 4 e 0.32189(15) 0.67836(3) 0.05439(11) 1. 0 
O8 O2- 4 e 0.46132(46) 0.73348(10) -.00020(35) 1. 0 
O9 O2- 4 e 0.25549(45) 0.69383(10) 0.23715(31) 1. 0 
P4 P5+ 4 e 0.39400(15) 0.80431(3) -.03149(11) 1. 0 
O10 O2- 4 e 0.18373(50) 0.81688(11) 0.05003(36) 1. 0 
O11 O2- 4 e 0.64573(49) 0.83708(11) 0.02114(37) 1. 0 

#End of data_300229-ICSD


