data_39315-ICSD
#?2014 by Fachinformationszentrum Karlsruhe, and the U.S. Secretary of 
#Commerce on behalf of the United States.  All rights reserved.
_database_code_ICSD                39315
_audit_creation_date               1990/12/27
_audit_update_record               2010/02/01
_chemical_name_systematic          'Calcium Bis(hexafluoroaurate(V))'
_chemical_formula_structural       'Ca (Au F6)2'
_chemical_formula_sum              'Au2 Ca1 F12'
_publ_section_title
;
Structure of fluoroaurates(V) earth alkali elements
;
loop_
_citation_id
_citation_journal_abbrev
_citation_year
_citation_journal_volume
_citation_page_first
_citation_page_last
_citation_journal_id_ASTM
primary 'Zhurnal Neorganicheskoi Khimii' 1990 35 1970 1977 ZNOKAQ
2 'Russian Journal of Inorganic Chemistry' 1990 35 1122 1127 RJICAQ
_publ_author_name
;
Popov, A.I.;Val'kovskii, M.D.;Kiselev, Yu.M.;Chumaevskii, 
N.A.;Sokolov, V.B.;Spirin, S.N.
;
_cell_length_a                     5.019(3)
_cell_length_b                     5.019(3)
_cell_length_c                     8.428(8)
_cell_angle_alpha                  90.
_cell_angle_beta                   90.
_cell_angle_gamma                  90.
_cell_volume                       212.3
_cell_formula_units_Z              1
_symmetry_space_group_name_H-M     'P -4'
_symmetry_Int_Tables_number        81
_refine_ls_R_factor_all            .141
loop_
_symmetry_equiv_pos_site_id
_symmetry_equiv_pos_as_xyz
  1	'-y, x, -z'
  2	'y, -x, -z'
  3	'-x, -y, z'
  4	'x, y, z'
loop_
_atom_type_symbol
_atom_type_oxidation_number
Au5+	5
Ca2+	2
F1-	-1
loop_
_atom_site_label
_atom_site_type_symbol
_atom_site_symmetry_multiplicity
_atom_site_Wyckoff_symbol
_atom_site_fract_x
_atom_site_fract_y
_atom_site_fract_z
_atom_site_occupancy
_atom_site_attached_hydrogens
Ca1 Ca2+ 1 a 0 0 0 1. 0 
Au1 Au5+ 2 g 0 0.5 0.278(2) 1. 0 
F1 F1- 4 h 0.262 0.762 0.278(2) 1. 0 
F2 F1- 4 h 0.262 0.238 0.278(2) 1. 0 
F3 F1- 2 g 0 0.5 0.499(2) 1. 0 
F4 F1- 2 g 0 0.5 0.057(2) 1. 0 

#End of data_39315-ICSD


