data_202400-ICSD
#?2014 by Fachinformationszentrum Karlsruhe, and the U.S. Secretary of 
#Commerce on behalf of the United States.  All rights reserved.
_database_code_ICSD                202400
_audit_creation_date               1988/05/17
_audit_update_record               2007/08/01
_chemical_name_systematic          'Sodium Triniobate'
_chemical_formula_structural       'Na (Nb3 O8)'
_chemical_formula_sum              'Na1 Nb3 O8'
_publ_section_title
;
The sodium niobate Na Nb3 O8: A novel lamellar oxide synthesized by 
soft chemistry
;
loop_
_citation_id
_citation_journal_abbrev
_citation_year
_citation_journal_volume
_citation_page_first
_citation_page_last
_citation_journal_id_ASTM
primary 'Journal of Solid State Chemistry' 1987 71 182 188 JSSCBI
_publ_author_name
;
Nedjar, R.;Borel, M.M.;Leclaire, A.;Raveau, B.
;
_cell_length_a                     8.771(14)
_cell_length_b                     10.16(2)
_cell_length_c                     3.784(3)
_cell_angle_alpha                  90.
_cell_angle_beta                   90.
_cell_angle_gamma                  90.
_cell_volume                       337.2
_cell_formula_units_Z              2
_symmetry_space_group_name_H-M     'P m n m Z'
_symmetry_Int_Tables_number        59
_refine_ls_R_factor_all            .07
loop_
_symmetry_equiv_pos_site_id
_symmetry_equiv_pos_as_xyz
  1	'x+.5, -y, z+.5'
  2	'-x, -y, z+.5'
  3	'x+.5, -y, -z'
  4	'-x, -y, -z'
  5	'-x+.5, y, -z+.5'
  6	'x, y, -z+.5'
  7	'-x+.5, y, z'
  8	'x, y, z'
loop_
_atom_type_symbol
_atom_type_oxidation_number
Na1+	1
Nb5+	5
O2-	-2
loop_
_atom_site_label
_atom_site_type_symbol
_atom_site_symmetry_multiplicity
_atom_site_Wyckoff_symbol
_atom_site_fract_x
_atom_site_fract_y
_atom_site_fract_z
_atom_site_occupancy
_atom_site_attached_hydrogens
_atom_site_B_iso_or_equiv
Nb1 Nb5+ 4 e 0.94 0.76 0.25 1. 0 0.6 
Nb2 Nb5+ 2 a 0.25 0.48 0.25 1. 0 0.6 
Na1 Na1+ 2 b 0.25 0.92 0.75 1. 0 0.8 
O1 O2- 4 e 0.44 0.28 0.25 1. 0 1. 
O2 O2- 4 e 0.03 0.9 0.25 1. 0 1. 
O3 O2- 4 e 0.09 0.58 0.25 1. 0 1. 
O4 O2- 2 b 0.25 0.41 0.75 1. 0 1. 
O5 O2- 2 b 0.25 0.14 0.75 1. 0 1. 

#End of data_202400-ICSD


