data_657803-ICSD
#?2014 by Fachinformationszentrum Karlsruhe, and the U.S. Secretary of 
#Commerce on behalf of the United States.  All rights reserved.
_database_code_ICSD                657803
_audit_creation_date               2008/07/07
_audit_update_record               2012/02/01
_chemical_name_systematic
;
Dipotassium Iron Hexathiodiphosphate(IV)
;
_chemical_formula_structural       'Fe K2 (P2 S6)'
_chemical_formula_sum              'Fe1 K2 P2 S6'
_publ_section_title
;
Synthesis, crystal structure, magnetism and vibrational spectrum of 
dipotassium iron(II) hexathiodiphosphate(IV), K2 Fe [P2 S6]
;
loop_
_citation_id
_citation_journal_abbrev
_citation_year
_citation_journal_volume
_citation_page_first
_citation_page_last
_citation_journal_id_ASTM
primary 'Zeitschrift fuer Anorganische und Allgemeine Chemie (1950) (DE)'
 1994 620 489 494 ZAACAB
_publ_author_name
;
Carrillo Cabrera, W.;Sassmannshausen, J.;von Schnering, H.G.;Menzel, 
F.;Brockner, W.
;
_cell_length_a                     7.3787(8)
_cell_length_b                     12.172(1)
_cell_length_c                     8.5995(5)
_cell_angle_alpha                  90.0
_cell_angle_beta                   136.24(7)
_cell_angle_gamma                  90.0
_cell_volume                       534.19
_cell_formula_units_Z              2
_symmetry_space_group_name_H-M     'P 1 21/c 1'
_symmetry_Int_Tables_number        14
_refine_ls_R_factor_all            .024
loop_
_symmetry_equiv_pos_site_id
_symmetry_equiv_pos_as_xyz
  1	'x, -y+.5, z+.5'
  2	'-x, -y, -z'
  3	'-x, y+.5, -z+.5'
  4	'x, y, z'
loop_
_atom_type_symbol
_atom_type_oxidation_number
Fe2+	2
K1+	1
P4+	4
S2-	-2
loop_
_atom_site_label
_atom_site_type_symbol
_atom_site_symmetry_multiplicity
_atom_site_Wyckoff_symbol
_atom_site_fract_x
_atom_site_fract_y
_atom_site_fract_z
_atom_site_occupancy
_atom_site_attached_hydrogens
Fe1 Fe2+ 2 c 0 0 0.5 1 0 
K1 K1+ 4 e 0.3121 0.31819 0.7786 1 0 
P1 P4+ 4 e 0.34779 0.53742 0.47890 1 0 
S1 S2- 4 e 0.54729 0.56924 0.80039 1 0 
S2 S2- 4 e 0.94161 0.57512 0.68795 1 0 
S3 S2- 4 e 0.78577 0.33245 0.72597 1 0 

#End of data_657803-ICSD


