data_71540-ICSD
#?2014 by Fachinformationszentrum Karlsruhe, and the U.S. Secretary of 
#Commerce on behalf of the United States.  All rights reserved.
_database_code_ICSD                71540
_audit_creation_date               1993/01/06
_chemical_name_systematic
;
Potassium Manganese Bis(selenate(IV))
;
_chemical_formula_structural       'K2 Mn (Se O3)2'
_chemical_formula_sum              'K2 Mn1 O6 Se2'
_publ_section_title
;
Structure of K2Mn(SeO3)2, a further buetschliite-type selenite
;
loop_
_citation_id
_citation_journal_abbrev
_citation_year
_citation_journal_volume
_citation_page_first
_citation_page_last
_citation_journal_id_ASTM
primary 'Acta Crystallographica, Section C: Crystal Structure Communications'
 1992 48 595 595 ACSCEE
_publ_author_name                  'Wildner, M.'
_cell_length_a                     5.615(1)
_cell_length_b                     5.615(1)
_cell_length_c                     18.667(3)
_cell_angle_alpha                  90.
_cell_angle_beta                   90.
_cell_angle_gamma                  120.
_cell_volume                       509.69
_cell_formula_units_Z              3
_symmetry_space_group_name_H-M     'R -3 m H'
_symmetry_Int_Tables_number        166
_refine_ls_R_factor_all            .033
loop_
_symmetry_equiv_pos_site_id
_symmetry_equiv_pos_as_xyz
  1	'x-y, -y, -z'
  2	'-x, -x+y, -z'
  3	'y, x, -z'
  4	'x-y, x, -z'
  5	'y, -x+y, -z'
  6	'-x, -y, -z'
  7	'-x+y, y, z'
  8	'x, x-y, z'
  9	'-y, -x, z'
 10	'-x+y, -x, z'
 11	'-y, x-y, z'
 12	'x, y, z'
 13	'x-y+.6666, -y+.3333, -z+.3333'
 14	'x-y+.3333, -y+.6666, -z+.6666'
 15	'-x+.6666, -x+y+.3333, -z+.3333'
 16	'-x+.3333, -x+y+.6666, -z+.6666'
 17	'y+.6666, x+.3333, -z+.3333'
 18	'y+.3333, x+.6666, -z+.6666'
 19	'x-y+.6666, x+.3333, -z+.3333'
 20	'x-y+.3333, x+.6666, -z+.6666'
 21	'y+.6666, -x+y+.3333, -z+.3333'
 22	'y+.3333, -x+y+.6666, -z+.6666'
 23	'-x+.6666, -y+.3333, -z+.3333'
 24	'-x+.3333, -y+.6666, -z+.6666'
 25	'-x+y+.6666, y+.3333, z+.3333'
 26	'-x+y+.3333, y+.6666, z+.6666'
 27	'x+.6666, x-y+.3333, z+.3333'
 28	'x+.3333, x-y+.6666, z+.6666'
 29	'-y+.6666, -x+.3333, z+.3333'
 30	'-y+.3333, -x+.6666, z+.6666'
 31	'-x+y+.6666, -x+.3333, z+.3333'
 32	'-x+y+.3333, -x+.6666, z+.6666'
 33	'-y+.6666, x-y+.3333, z+.3333'
 34	'-y+.3333, x-y+.6666, z+.6666'
 35	'x+.6666, y+.3333, z+.3333'
 36	'x+.3333, y+.6666, z+.6666'
loop_
_atom_type_symbol
_atom_type_oxidation_number
K1+	1
Mn2+	2
O2-	-2
Se4+	4
loop_
_atom_site_label
_atom_site_type_symbol
_atom_site_symmetry_multiplicity
_atom_site_Wyckoff_symbol
_atom_site_fract_x
_atom_site_fract_y
_atom_site_fract_z
_atom_site_occupancy
_atom_site_attached_hydrogens
K1 K1+ 6 c 0 0 0.19504(6) 1. 0 
Mn1 Mn2+ 3 a 0 0 0 1. 0 
Se1 Se4+ 6 c 0 0 0.62803(2) 1. 0 
O1 O2- 18 h 0.15808(20) 0.84192(20) 0.59039(12) 1. 0 

loop_
_atom_site_aniso_label
_atom_site_aniso_type_symbol
_atom_site_aniso_U_11
_atom_site_aniso_U_22
_atom_site_aniso_U_33
_atom_site_aniso_U_12
_atom_site_aniso_U_13
_atom_site_aniso_U_23
K1 K1+ 0.0291(4) 0.0291(4) 0.0219(5) 0.0145(2) 0 0
Mn1 Mn2+ 0.0155(2) 0.0155(2) 0.0184(4) 0.0077(1) 0 0
Se1 Se4+ 0.0152(2) 0.0152(2) 0.0167(2) 0.0076(1) 0 0
O1 O2- 0.0270(7) 0.0270(7) 0.0225(9) 0.0192(8) 0.0005(3) -.0005(3)
#End of data_71540-ICSD


