data_30430-ICSD
#?2014 by Fachinformationszentrum Karlsruhe, and the U.S. Secretary of 
#Commerce on behalf of the United States.  All rights reserved.
_database_code_ICSD                30430
_audit_creation_date               1980/01/01
_audit_update_record               2012/08/01
_chemical_name_systematic
;
Potassium Dioxotetracyanorhenate(V)
;
_chemical_formula_structural       'K3 Re O2 (C N)4'
_chemical_formula_sum              'C4 K3 N4 O2 Re1'
_publ_section_title
;
The Crystal structure of Potassium Oxycyanorhenate
;
loop_
_citation_id
_citation_journal_abbrev
_citation_year
_citation_journal_volume
_citation_page_first
_citation_page_last
_citation_journal_id_ASTM
primary
;
Bulletin de l`Academie Polonaise des Sciences, Serie des Sciences 
Chimiques
;
 1961 9 613 617 BAPCAQ
_publ_author_name                  'Lukaszewicz, K.;Glovyak, T.'
_cell_length_a                     7.73(2)
_cell_length_b                     7.35(2)
_cell_length_c                     6.32(2)
_cell_angle_alpha                  107.47(17)
_cell_angle_beta                   108.33(17)
_cell_angle_gamma                  114.33(17)
_cell_volume                       269.53
_cell_formula_units_Z              1
_symmetry_space_group_name_H-M     'P -1'
_symmetry_Int_Tables_number        2
_refine_ls_R_factor_all            .22
loop_
_symmetry_equiv_pos_site_id
_symmetry_equiv_pos_as_xyz
  1	'-x, -y, -z'
  2	'x, y, z'
loop_
_atom_type_symbol
_atom_type_oxidation_number
C2+	2
K1+	1
N3-	-3
O2-	-2
Re5+	5
loop_
_atom_site_label
_atom_site_type_symbol
_atom_site_symmetry_multiplicity
_atom_site_Wyckoff_symbol
_atom_site_fract_x
_atom_site_fract_y
_atom_site_fract_z
_atom_site_occupancy
_atom_site_attached_hydrogens
Re1 Re5+ 1 a 0 0 0 1. 0 
K1 K1+ 1 d 0.5 0 0 1. 0 
K2 K1+ 2 i 0.165 0.362 0.666 1. 0 
O1 O2- 2 i 0.97 0.22 0.95 1. 0 
C1 C2+ 2 i 0.27 0.27 0.28 1. 0 
C2 C2+ 2 i 0.13 0.95 0.8 1. 0 
N1 N3- 2 i 0.43 0.43 0.46 1. 0 
N2 N3- 2 i 0.22 0.92 0.69 1. 0 

#End of data_30430-ICSD


