data_71696-ICSD
#?2014 by Fachinformationszentrum Karlsruhe, and the U.S. Secretary of 
#Commerce on behalf of the United States.  All rights reserved.
_database_code_ICSD                71696
_audit_creation_date               1993/08/22
_audit_update_record               2010/08/01
_chemical_name_systematic
;
Hexadecalithium Ditantalum Octanitride Oxide
;
_chemical_formula_structural       'Li16 Ta2 N8 O'
_chemical_formula_sum              'Li16 N8 O1 Ta2'
_publ_section_title
;
Darstellung und Struktur eines neuen Nitridoxides mit Lithium und 
Tantal: Li6 Ta2 N8 O
;
loop_
_citation_id
_citation_journal_abbrev
_citation_year
_citation_journal_volume
_citation_page_first
_citation_page_last
_citation_journal_id_ASTM
primary 'Journal of Alloys and Compounds' 1992 185 109 119 JALCEU
_publ_author_name
;
Wachsmann, C.;Brokamp, T.;Jacobs, H.
;
_cell_length_a                     5.982(1)
_cell_length_b                     5.982(1)
_cell_length_c                     25.48(1)
_cell_angle_alpha                  90.
_cell_angle_beta                   90.
_cell_angle_gamma                  120.
_cell_volume                       789.63
_cell_formula_units_Z              3
_symmetry_space_group_name_H-M     'R -3 H'
_symmetry_Int_Tables_number        148
_refine_ls_R_factor_all            .036
loop_
_symmetry_equiv_pos_site_id
_symmetry_equiv_pos_as_xyz
  1	'x-y, x, -z'
  2	'y, -x+y, -z'
  3	'-x, -y, -z'
  4	'-x+y, -x, z'
  5	'-y, x-y, z'
  6	'x, y, z'
  7	'x-y+.6666, x+.3333, -z+.3333'
  8	'x-y+.3333, x+.6666, -z+.6666'
  9	'y+.6666, -x+y+.3333, -z+.3333'
 10	'y+.3333, -x+y+.6666, -z+.6666'
 11	'-x+.6666, -y+.3333, -z+.3333'
 12	'-x+.3333, -y+.6666, -z+.6666'
 13	'-x+y+.6666, -x+.3333, z+.3333'
 14	'-x+y+.3333, -x+.6666, z+.6666'
 15	'-y+.6666, x-y+.3333, z+.3333'
 16	'-y+.3333, x-y+.6666, z+.6666'
 17	'x+.6666, y+.3333, z+.3333'
 18	'x+.3333, y+.6666, z+.6666'
loop_
_atom_type_symbol
_atom_type_oxidation_number
Li1+	1
N3-	-3
O2-	-2
Ta5+	5
loop_
_atom_site_label
_atom_site_type_symbol
_atom_site_symmetry_multiplicity
_atom_site_Wyckoff_symbol
_atom_site_fract_x
_atom_site_fract_y
_atom_site_fract_z
_atom_site_occupancy
_atom_site_attached_hydrogens
_atom_site_B_iso_or_equiv
Ta1 Ta5+ 6 c 0 0 0.24924(4) 1. 0 0.230(8) 
N1 N3- 18 f 0.308(2) 0.312(2) 0.2240(4) 1. 0 0.5(1) 
N2 N3- 6 c 0 0 0.3254(7) 1. 0 0.7(3) 
O1 O2- 3 a 0 0 0 1. 0 0.8(3) 
Li1 Li1+ 18 f 0.350(4) 0.303(4) 0.4754(8) 1. 0 0.8(3) 
Li2 Li1+ 18 f 0.043(5) 0.344(5) 0.0247(9) 1. 0 1.4(4) 
Li3 Li1+ 6 c 0 0 0.077(2) 1. 0 1.4(7) 
Li4 Li1+ 6 c 0 0 0.418(2) 1. 0 0.9(6) 

#End of data_71696-ICSD


