data_183237-ICSD
#?2014 by Fachinformationszentrum Karlsruhe, and the U.S. Secretary of 
#Commerce on behalf of the United States.  All rights reserved.
_database_code_ICSD                183237
_audit_creation_date               2012/08/01
_chemical_name_systematic
;
Magnesium Zirconium Diphosphate Tetrahydrate
;
_chemical_formula_structural       'Mg Zr (P O4)2 (H2 O)4'
_chemical_formula_sum              'H8 Mg1 O12 P2 Zr1'
_chemical_name_mineral             Zigrasite
_publ_section_title
;
The crystal structure of zigrasite, Mg Zr (P O4)2 (H2 O)4, a 
heteropolyhedral framework structure
;
loop_
_citation_id
_citation_journal_abbrev
_citation_year
_citation_journal_volume
_citation_journal_issue
_citation_page_first
_citation_page_last
_citation_journal_id_ASTM
primary 'Mineralogical Magazine (1969-)' 2010 74 3 567 575 MNLMBB
_publ_author_name                  'Hawthorne, F.C.;Simmons, W.B.'
_cell_length_a                     5.3049(2)
_cell_length_b                     9.3372(4)
_cell_length_c                     9.6282(5)
_cell_angle_alpha                  97.348(1)
_cell_angle_beta                   91.534(1)
_cell_angle_gamma                  90.512(4)
_cell_volume                       472.79
_cell_formula_units_Z              2
_symmetry_space_group_name_H-M     'P -1'
_symmetry_Int_Tables_number        2
_refine_ls_R_factor_all            .0375
loop_
_symmetry_equiv_pos_site_id
_symmetry_equiv_pos_as_xyz
  1	'-x, -y, -z'
  2	'x, y, z'
loop_
_atom_type_symbol
_atom_type_oxidation_number
H1+	1
Mg2+	2
O2-	-2
P5+	5
Zr4+	4
loop_
_atom_site_label
_atom_site_type_symbol
_atom_site_symmetry_multiplicity
_atom_site_Wyckoff_symbol
_atom_site_fract_x
_atom_site_fract_y
_atom_site_fract_z
_atom_site_occupancy
_atom_site_attached_hydrogens
_atom_site_U_iso_or_equiv
Zr1 Zr4+ 2 i 0.25362(4) 0.74773(3) 0.49040(2) 1. 0 0.00794(9) 
P1 P5+ 2 i 0.26500(14) 0.45008(8) 0.68108(8) 1. 0 0.0129(2) 
P2 P5+ 2 i 0.23232(14) 0.06111(4) 0.32252(8) 1. 0 0.0123(2) 
Mg1 Mg2+ 1 a 0 0 0 1. 0 0.0185(3) 
Mg2 Mg2+ 1 e 0.5 0.5 0 1. 0 0.0199(3) 
O1 O2- 2 i 0.3139(5) 0.5903(3) 0.6181(3) 1. 0 0.0234(5) 
O2 O2- 2 i 0.2402(4) 0.4846(3) 0.8389(2) 1. 0 0.0197(5) 
O3 O2- 2 i 0.4845(4) 0.3458(3) 0.6475(2) 1. 0 0.0195(5) 
O4 O2- 2 i 0.0220(4) 0.3765(3) 0.6176(3) 1. 0 0.0228(5) 
O5 O2- 2 i 0.0048(4) 0.1546(3) 0.3686(3) 1. 0 0.0219(5) 
O6 O2- 2 i 0.2539(4) 0.0557(3) 0.1641(2) 1. 0 0.0188(4) 
O7 O2- 2 i 0.4720(4) 0.1273(3) 0.3959(2) 1. 0 0.0201(5) 
O8 O2- 2 i 0.1909(5) -0.0929(2) 0.3600(3) 1. 0 0.0200(5) 
O9 O2- 2 i 0.2710(5) 0.8701(3) 0.8935(3) 1. 0 0.0247(5) 
O10 O2- 2 i 0.1377(6) 0.1631(3) 0.8947(3) 1. 0 0.0310(6) 
O11 O2- 2 i 0.2305(5) 0.3942(3) 0.1149(3) 1. 0 0.0275(5) 
O12 O2- 2 i 0.3467(6) 0.6878(3) 0.0819(3) 1. 0 0.0313(6) 
H1 H1+ 2 i 0.436(6) 0.912(7) 0.877(7) 1. 0 0.084(8) 
H2 H1+ 2 i 0.203(12) 0.819(7) 0.805(4) 1. 0 0.084(8) 
H3 H1+ 2 i 0.135(13) 0.260(3) 0.947(6) 1. 0 0.084(8) 
H4 H1+ 2 i 0.112(13) 0.156(7) 0.793(1) 1. 0 0.084(8) 
H5 H1+ 2 i 0.075(7) 0.449(6) 0.133(7) 1. 0 0.084(8) 
H6 H1+ 2 i 0.273(13) 0.360(7) 0.205(4) 1. 0 0.084(8) 
H7 H1+ 2 i 0.320(13) 0.764(5) 0.022(6) 1. 0 0.084(8) 
H8 H1+ 2 i 0.420(12) 0.717(7) 0.176(3) 1. 0 0.084(8) 

loop_
_atom_site_aniso_label
_atom_site_aniso_type_symbol
_atom_site_aniso_U_11
_atom_site_aniso_U_22
_atom_site_aniso_U_33
_atom_site_aniso_U_12
_atom_site_aniso_U_13
_atom_site_aniso_U_23
Zr1 Zr4+ 0.00537(13) 0.00899(13) 0.00943(13) -0.00084(8) -0.00038(8) 
0.00079(8)
P1 P5+ 0.0104(3) 0.0144(3) 0.0137(3) -0.0010(3) -0.0005(3) 0.0016(3)
P2 P5+ 0.0102(3) 0.0132(3) 0.0133(3) -0.0013(3) -0.0003(2) 0.0014(3)
Mg1 Mg2+ 0.0126(7) 0.0290(8) 0.0139(7) -0.0030(6) -0.0010(5) 0.0030(6)
Mg2 Mg2+ 0.0179(7) 0.0242(8) 0.0168(7) -0.0002(6) -0.0017(6) 0.0004(6)
O1 O2- 0.0225(12) 0.0209(11) 0.0280(12) -0.0004(9) 0.0006(9) 0.0073(9)
O2 O2- 0.0173(11) 0.0272(12) 0.0140(10) 0.0020(9) -0.0005(8) 0.0010(8)
O3 O2- 0.0165(11) 0.0217(11) 0.0205(11) 0.0055(9) 0.0025(8) 0.0026(9)
O4 O2- 0.0159(11) 0.0254(12) 0.0254(11) -0.0062(9) -0.0035(9) -0.0014(9)
O5 O2- 0.0169(11) 0.0233(12) 0.0248(11) 0.0035(9) 0.0040(9) -0.0003(9)
O6 O2- 0.0136(10) 0.0286(12) 0.0145(10) -0.0032(9) -0.0009(8) 0.0043(8)
O7 O2- 0.0162(11) 0.0222(11) 0.0213(11) -0.0056(9) -0.0032(8) 0.0021(9)
O8 O2- 0.0214(11) 0.0144(10) 0.0247(11) -0.0035(8) -0.0042(9) 0.0054(8)
O9 O2- 0.0160(11) 0.0356(14) 0.0218(11) -0.0026(10) 0.0006(9) 0.0014(10)
O10 O2- 0.0298(14) 0.0305(14) 0.0333(14) -0.0092(11) -0.0013(11) 0.0064(11)
O11 O2- 0.0221(12) 0.0312(14) 0.0300(13) 0.0012(10) 0.0039(10) 0.0056(11)
O12 O2- 0.0354(15) 0.0309(14) 0.0270(13) 0.0095(12) -0.0031(11) 0.0018(11)
#End of data_183237-ICSD


