data_82212-ICSD
#?2014 by Fachinformationszentrum Karlsruhe, and the U.S. Secretary of 
#Commerce on behalf of the United States.  All rights reserved.
_database_code_ICSD                82212
_audit_creation_date               1999/11/30
_audit_update_record               2007/08/01
_chemical_name_systematic          'Calcium Cobalt Catena-disilicate'
_chemical_formula_structural       'Ca Co (Si2 O6)'
_chemical_formula_sum              'Ca1 Co1 O6 Si2'
_publ_section_title
;
Synthesis, structure, and magnetic properties of Ca M Si2 O6 (M = Co, 
Ni) compounds and their solid solutions
;
loop_
_citation_id
_citation_journal_abbrev
_citation_year
_citation_journal_volume
_citation_page_first
_citation_page_last
_citation_journal_id_ASTM
primary 'Journal of Solid State Chemistry' 1996 124 374 380 JSSCBI
2 'Powder Diffraction' 1986 1 265 275 PODIE2
_publ_author_name
;
Durand, G.;Vilminot, S.;Rabu, P.;Derory, A.;Lambour, J.P.
;
_cell_length_a                     9.7970(4)
_cell_length_b                     8.9577(4)
_cell_length_c                     5.2445(2)
_cell_angle_alpha                  90.
_cell_angle_beta                   105.513(3)
_cell_angle_gamma                  90.
_cell_volume                       443.48
_cell_formula_units_Z              4
_symmetry_space_group_name_H-M     'C 1 2/c 1'
_symmetry_Int_Tables_number        15
_refine_ls_R_factor_all            .132
loop_
_symmetry_equiv_pos_site_id
_symmetry_equiv_pos_as_xyz
  1	'x, -y, z+.5'
  2	'-x, -y, -z'
  3	'-x, y, -z+.5'
  4	'x, y, z'
  5	'x+.5, -y+.5, z+.5'
  6	'-x+.5, -y+.5, -z'
  7	'-x+.5, y+.5, -z+.5'
  8	'x+.5, y+.5, z'
loop_
_atom_type_symbol
_atom_type_oxidation_number
Ca2+	2
Co2+	2
O2-	-2
Si4+	4
loop_
_atom_site_label
_atom_site_type_symbol
_atom_site_symmetry_multiplicity
_atom_site_Wyckoff_symbol
_atom_site_fract_x
_atom_site_fract_y
_atom_site_fract_z
_atom_site_occupancy
_atom_site_attached_hydrogens
_atom_site_B_iso_or_equiv
Co1 Co2+ 4 e 0 0.9090(7) 0.25 1. 0 2.0(2) 
Ca1 Ca2+ 4 e 0 0.2956(8) 0.25 1. 0 3.9(3) 
Si1 Si4+ 8 f 0.2891(6) 0.0919(8) 0.2349(12) 1. 0 2.5(2) 
O1 O2- 8 f 0.1124(10) 0.0872(14) 0.1443(20) 1. 0 3.0(3) 
O2 O2- 8 f 0.3639(13) 0.2448(14) 0.3199(24) 1. 0 3.2(4) 
O3 O2- 8 f 0.3491(11) 0.0190(11) -.0204(27) 1. 0 2.3(3) 

#End of data_82212-ICSD


