data_280977-ICSD
#?2014 by Fachinformationszentrum Karlsruhe, and the U.S. Secretary of 
#Commerce on behalf of the United States.  All rights reserved.
_database_code_ICSD                280977
_audit_creation_date               2003/04/01
_chemical_name_systematic          'Dirubidium Phyllo-dialumodiborate'
_chemical_formula_structural       'Rb2 (Al2 B2 O7)'
_chemical_formula_sum              'Al2 B2 O7 Rb2'
_publ_section_title                'Rb2 Al2 B2 O7'
loop_
_citation_id
_citation_journal_abbrev
_citation_year
_citation_journal_volume
_citation_page_first
_citation_page_last
_citation_journal_id_ASTM
primary 'Acta Crystallographica, Section E. Structure Reports Online'
 2002 58 85 87 ACSEBH
_publ_author_name                  'Kissick, J.L.;Keszler, D.A.'
_cell_length_a                     8.901(2)
_cell_length_b                     7.539(1)
_cell_length_c                     11.905(2)
_cell_angle_alpha                  90.
_cell_angle_beta                   103.97(1)
_cell_angle_gamma                  90.
_cell_volume                       775.25
_cell_formula_units_Z              4
_symmetry_space_group_name_H-M     'P 1 21/c 1'
_symmetry_Int_Tables_number        14
_refine_ls_R_factor_all            .03
loop_
_symmetry_equiv_pos_site_id
_symmetry_equiv_pos_as_xyz
  1	'x, -y+.5, z+.5'
  2	'-x, -y, -z'
  3	'-x, y+.5, -z+.5'
  4	'x, y, z'
loop_
_atom_type_symbol
_atom_type_oxidation_number
Al3+	3
B3+	3
O2-	-2
Rb1+	1
loop_
_atom_site_label
_atom_site_type_symbol
_atom_site_symmetry_multiplicity
_atom_site_Wyckoff_symbol
_atom_site_fract_x
_atom_site_fract_y
_atom_site_fract_z
_atom_site_occupancy
_atom_site_attached_hydrogens
_atom_site_U_iso_or_equiv
Rb1 Rb1+ 4 e 0.03371(4) 0.14003(5) 0.62650(3) 1. 0 0.02092(11) 
Rb2 Rb1+ 4 e 0.45632(4) -.13338(6) 0.85435(3) 1. 0 0.02143(11) 
Al1 Al3+ 4 e -.34247(12) -.12434(14) 0.62207(8) 1. 0 0.0101(2) 
Al2 Al3+ 4 e -.18525(12) 0.08342(14) 0.86588(8) 1. 0 0.0113(2) 
O1 O2- 4 e -.2027(3) 0.1892(3) 0.3953(2) 1. 0 0.0176(5) 
O2 O2- 4 e -.3084(3) 0.0199(4) 0.7370(2) 1. 0 0.0191(6) 
O3 O2- 4 e 0.0064(3) 0.0407(4) 0.8620(2) 1. 0 0.0180(6) 
O4 O2- 4 e 0.4631(3) -.1894(4) 0.5892(2) 1. 0 0.0195(6) 
O5 O2- 4 e 0.2828(3) 0.0324(4) 0.4962(2) 1. 0 0.0226(6) 
O6 O2- 4 e 0.2373(3) 0.1790(3) 0.8455(2) 1. 0 0.0167(5) 
O7 O2- 4 e -.2294(3) 0.5381(4) 0.4795(2) 1. 0 0.0249(7) 
B1 B3+ 4 e 0.1552(5) 0.0873(5) 0.9114(3) 1. 0 0.0134(8) 
B2 B3+ 4 e 0.3191(5) -.1147(5) 0.5634(3) 1. 0 0.0129(7) 

loop_
_atom_site_aniso_label
_atom_site_aniso_type_symbol
_atom_site_aniso_U_11
_atom_site_aniso_U_22
_atom_site_aniso_U_33
_atom_site_aniso_U_12
_atom_site_aniso_U_13
_atom_site_aniso_U_23
Rb1 Rb1+ 0.0239(2) 0.02130(18) 0.01522(17) 0.00202(16) 0.00023(14) 
-0.00159(15)
Rb2 Rb1+ 0.02018(19) 0.0257(2) 0.01822(17) -0.00420(16) 0.00437(13) 
-0.00026(15)
Al1 Al3+ 0.0111(5) 0.0101(5) 0.0085(4) 0.0004(4) 0.0016(4) 0.0002(4)
Al2 Al3+ 0.0115(5) 0.0122(5) 0.0101(5) -0.0013(4) 0.0025(4) -0.0005(4)
O1 O2- 0.0185(13) 0.0151(11) 0.0212(13) 0.0038(11) 0.0086(11) 0.0047(10)
O2 O2- 0.0177(13) 0.0190(13) 0.0185(12) 0.0021(11) -0.0001(10) -0.0093(11)
O3 O2- 0.0118(12) 0.0217(13) 0.0209(13) -0.0033(11) 0.0048(10) -0.0019(11)
O4 O2- 0.0141(12) 0.0216(13) 0.0214(13) -0.0024(11) 0.0018(10) -0.0014(11)
O5 O2- 0.0311(16) 0.0193(13) 0.0214(13) 0.0061(12) 0.0140(12) 0.0098(11)
O6 O2- 0.0228(13) 0.0163(13) 0.0109(11) -0.0081(11) 0.0037(10) -0.0016(9)
O7 O2- 0.0190(14) 0.0343(16) 0.0197(14) 0.0047(13) 0.0012(11) -0.0138(13)
B1 B3+ 0.0122(18) 0.0109(17) 0.0171(18) -0.0008(14) 0.0035(15) -0.0013(14)
B2 B3+ 0.0177(19) 0.0136(18) 0.0080(14) -0.0002(16) 0.0042(14) -0.0028(14)
#End of data_280977-ICSD


