data_95121-ICSD
#?2014 by Fachinformationszentrum Karlsruhe, and the U.S. Secretary of 
#Commerce on behalf of the United States.  All rights reserved.
_database_code_ICSD                95121
_audit_creation_date               2003/10/01
_chemical_name_systematic
;
Tetrasilver Cadmium Heptathiodigermanate
;
_chemical_formula_structural       'Ag4 Cd (Ge2 S7)'
_chemical_formula_sum              'Ag4 Cd1 Ge2 S7'
_publ_section_title
;
Crystal structures of the Ag4 Hg Ge2 S7 and Ag4 Cd Ge2 S7 compounds
;
loop_
_citation_id
_citation_journal_abbrev
_citation_year
_citation_journal_volume
_citation_page_first
_citation_page_last
_citation_journal_id_ASTM
primary 'Journal of Alloys and Compounds' 2002 340 157 166 JALCEU
_publ_author_name
;
Gulay, L.D.;Olekseyuk, I.D.;Parasyuk, O.V.
;
_cell_length_a                     17.4364(8)
_cell_length_b                     6.8334(3)
_cell_length_c                     10.5350(4)
_cell_angle_alpha                  90
_cell_angle_beta                   93.589(3)
_cell_angle_gamma                  90
_cell_volume                       1252.78
_cell_formula_units_Z              4
_symmetry_space_group_name_H-M     'C 1 c 1'
_symmetry_Int_Tables_number        9
_refine_ls_R_factor_all            .0727
loop_
_symmetry_equiv_pos_site_id
_symmetry_equiv_pos_as_xyz
  1	'x, -y, z+.5'
  2	'x, y, z'
  3	'x+.5, -y+.5, z+.5'
  4	'x+.5, y+.5, z'
loop_
_atom_type_symbol
_atom_type_oxidation_number
Ag1+	1
Cd2+	2
Ge4+	4
S2-	-2
loop_
_atom_site_label
_atom_site_type_symbol
_atom_site_symmetry_multiplicity
_atom_site_Wyckoff_symbol
_atom_site_fract_x
_atom_site_fract_y
_atom_site_fract_z
_atom_site_occupancy
_atom_site_attached_hydrogens
_atom_site_B_iso_or_equiv
Ag1 Ag1+ 4 a 0.9995(6) 0.190(1) 0.9990(7) 1. 0 1.6(2) 
Ag2 Ag1+ 4 a 0.0632(5) 0.315(1) 0.3905(7) 1. 0 1.4(2) 
Ag3 Ag1+ 4 a 0.2055(6) 0.331(1) 0.1106(7) 1. 0 1.1(2) 
Ag4 Ag1+ 4 a 0.2707(8) 0.1202(9) 0.438(1) 1. 0 1.2(2) 
Cd1 Cd2+ 4 a 0.3456(6) 0.7034(9) 0.2787(7) 1. 0 1.0(2) 
Ge1 Ge4+ 4 a 0.431(1) 0.171(3) 0.163(2) 1. 0 0.3(3) 
Ge2 Ge4+ 4 a 0.639(1) 0.321(3) 0.230(2) 1. 0 1.1(3) 
S1 S2- 4 a 0.034(2) 0.185(5) 0.612(3) 1. 0 2.4(4) 
S2 S2- 4 a 0.171(2) 0.153(5) 0.275(3) 1. 0 0.4(6) 
S3 S2- 4 a 0.233(2) 0.694(5) 0.130(3) 1. 0 0.2(7) 
S4 S2- 4 a 0.344(2) 0.184(4) 0.028(3) 1. 0 2.1(7) 
S5 S2- 4 a 0.375(2) 0.318(5) 0.329(3) 1. 0 1.1(6) 
S6 S2- 4 a 0.473(2) 0.153(4) 0.709(3) 1. 0 1.4(7) 
S7 S2- 4 a 0.598(3) 0.160(4) 0.434(3) 1. 0 2.4(6) 

#End of data_95121-ICSD


