data_10257-ICSD
#?2014 by Fachinformationszentrum Karlsruhe, and the U.S. Secretary of 
#Commerce on behalf of the United States.  All rights reserved.
_database_code_ICSD                10257
_audit_creation_date               1980/01/01
_audit_update_record               2006/04/01
_chemical_name_systematic          'Trilithium Phosphate(V)'
_chemical_formula_structural       'Li3 (P O4)'
_chemical_formula_sum              'Li3 O4 P1'
_chemical_name_mineral             'Lithiophosphate low'
_publ_section_title
;
The crystal structure of twinned lowtemperature lithium phosphate
;
loop_
_citation_id
_citation_journal_abbrev
_citation_year
_citation_journal_volume
_citation_page_first
_citation_page_last
_citation_journal_id_ASTM
primary 'Inorganic Chemistry' 1967 6 119 125 INOCAJ
_publ_author_name
;
Keffer, C.;Mighell, A.D.;Mauer, F.;Swanson, H.;Block, S.
;
_cell_length_a                     6.115(1)
_cell_length_b                     5.2394(11)
_cell_length_c                     4.8554(10)
_cell_angle_alpha                  90.
_cell_angle_beta                   90.
_cell_angle_gamma                  90.
_cell_volume                       155.56
_cell_formula_units_Z              2
_symmetry_space_group_name_H-M     'P m n 21'
_symmetry_Int_Tables_number        31
_refine_ls_R_factor_all            .054
loop_
_symmetry_equiv_pos_site_id
_symmetry_equiv_pos_as_xyz
  1	'x+.5, -y, z+.5'
  2	'-x+.5, -y, z+.5'
  3	'-x, y, z'
  4	'x, y, z'
loop_
_atom_type_symbol
_atom_type_oxidation_number
Li1+	1
O2-	-2
P5+	5
loop_
_atom_site_label
_atom_site_type_symbol
_atom_site_symmetry_multiplicity
_atom_site_Wyckoff_symbol
_atom_site_fract_x
_atom_site_fract_y
_atom_site_fract_z
_atom_site_occupancy
_atom_site_attached_hydrogens
_atom_site_B_iso_or_equiv
P1 P5+ 2 a 0 0.82430(42) 0 1. 0 0.034(32) 
O1 O2- 4 b 0.20777(78) 0.68676(84) 0.8961(12) 1. 0 0.556(75) 
O2 O2- 2 a 0 0.1052(12) 0.9004(18) 1. 0 0.273(97) 
O3 O2- 2 a 0.5 0.1814(15) 0.8172(16) 1. 0 0.47(12) 
Li1 Li1+ 4 b 0.2481(20) 0.3277(21) 0.9860(41) 1. 0 0.98(18) 
Li2 Li1+ 2 a 0.5 0.8428(32) 0.9893(56) 1. 0 0.86(24) 

#End of data_10257-ICSD


