data_23911-ICSD
#?2014 by Fachinformationszentrum Karlsruhe, and the U.S. Secretary of 
#Commerce on behalf of the United States.  All rights reserved.
_database_code_ICSD                23911
_audit_creation_date               1980/01/01
_audit_update_record               2007/08/01
_chemical_name_systematic          'Magnesium Sulfate(VI) Tetrahydrate'
_chemical_formula_structural       'Mg (S O4) (H2 O)4'
_chemical_formula_sum              'H8 Mg1 O8 S1'
_chemical_name_mineral             Starkeyite
_publ_section_title
;
Zur Kristallchemie der Salzhydrate. Die Kristallstrukturen von Mg S 
O4 (H2 O)4 (Leonhardtit) und Fe S O4 (H2 O)4 (Rozenit)
;
loop_
_citation_id
_citation_journal_abbrev
_citation_year
_citation_journal_volume
_citation_page_first
_citation_page_last
_citation_journal_id_ASTM
primary 'Acta Crystallographica (1,1948-23,1967)' 1962 15 815 826 ACCRA9
_publ_author_name                  'Baur, W.H.'
_cell_length_a                     5.922(6)
_cell_length_b                     13.604(4)
_cell_length_c                     7.905(5)
_cell_angle_alpha                  90.
_cell_angle_beta                   90.85(17)
_cell_angle_gamma                  90.
_cell_volume                       636.78
_cell_formula_units_Z              4
_symmetry_space_group_name_H-M     'P 1 21/n 1'
_symmetry_Int_Tables_number        14
_refine_ls_R_factor_all            .078
loop_
_symmetry_equiv_pos_site_id
_symmetry_equiv_pos_as_xyz
  1	'-x+.5, y+.5, -z+.5'
  2	'-x, -y, -z'
  3	'x+.5, -y+.5, z+.5'
  4	'x, y, z'
loop_
_atom_type_symbol
_atom_type_oxidation_number
H1+	1
Mg2+	2
O2-	-2
S6+	6
loop_
_atom_site_label
_atom_site_type_symbol
_atom_site_symmetry_multiplicity
_atom_site_Wyckoff_symbol
_atom_site_fract_x
_atom_site_fract_y
_atom_site_fract_z
_atom_site_occupancy
_atom_site_attached_hydrogens
_atom_site_B_iso_or_equiv
Mg1 Mg2+ 4 e 0.0694(6) 0.1028(3) 0.2213(4) 1. 0 1.1 
S1 S6+ 4 e 0.1957(3) 0.1068(1) 0.8259(2) 1. 0 0.8 
O1 O2- 4 e 0.0058(8) 0.0461(4) 0.7595(6) 1. 0 1.3 
O2 O2- 4 e 0.2485(8) 0.0772(4) 0.0024(6) 1. 0 1.3 
O3 O2- 4 e 0.3983(8) 0.0911(4) 0.7227(6) 1. 0 1.3 
O4 O2- 4 e 0.1290(8) 0.2112(4) 0.8145(6) 1. 0 1.3 
O5 O2- 4 e 0.3555(11) 0.0748(5) 0.3591(8) 1. 0 1.8 
O6 O2- 4 e 0.7718(11) 0.1394(5) 0.0910(8) 1. 0 1.8 
O7 O2- 4 e 0.8907(11) 0.1273(5) 0.4405(8) 1. 0 1.8 
O8 O2- 4 e 0.1778(11) 0.2491(5) 0.2195(8) 1. 0 1.8 
H1 H1+ 4 e 0.36(1) 0.070(4) 0.485(7) 1. 0 2.4 
H2 H1+ 4 e 0.444(10) 0.017(4) 0.323(7) 1. 0 2.4 
H3 H1+ 4 e 0.682(10) 0.198(4) 0.092(7) 1. 0 2.4 
H4 H1+ 4 e 0.684(10) 0.098(4) 0.017(7) 1. 0 2.4 
H5 H1+ 4 e 0.766(10) 0.171(4) 0.463(7) 1. 0 2.4 
H6 H1+ 4 e 0.935(10) 0.096(4) 0.547(7) 1. 0 2.4 
H7 H1+ 4 e 0.322(10) 0.242(4) 0.275(7) 1. 0 2.4 
H8 H1+ 4 e 0.62(1) 0.190(4) 0.759(7) 1. 0 2.4 

#End of data_23911-ICSD


