data_89992-ICSD
#?2014 by Fachinformationszentrum Karlsruhe, and the U.S. Secretary of 
#Commerce on behalf of the United States.  All rights reserved.
_database_code_ICSD                89992
_audit_creation_date               2002/04/01
_chemical_name_systematic
;
Trilithium Diiron(III) Tris(phosphate(V))
;
_chemical_formula_structural       'Li3 Fe2 (P O4)3'
_chemical_formula_sum              'Fe2 Li3 O12 P3'
_publ_section_title
;
A powder neutron diffraction investigation of the two rhombohedral 
NASICON analogues: gamma-(Na3 Fe2 (P O4)3) and Li3 Fe2 (P O4)3
;
loop_
_citation_id
_citation_journal_abbrev
_citation_year
_citation_journal_volume
_citation_page_first
_citation_page_last
_citation_journal_id_ASTM
primary 'Chemistry of Materials' 2000 12 525 532 CMATEX
_publ_author_name
;
Masquelier, C.;Wurm, C.;Rodriguez Carvajal, J.;Gaubicher, J.;Nazar, 
L.
;
_cell_length_a                     8.3162(4)
_cell_length_b                     8.3162(4)
_cell_length_c                     22.459(1)
_cell_angle_alpha                  90.
_cell_angle_beta                   90.
_cell_angle_gamma                  120.
_cell_volume                       1345.15
_cell_formula_units_Z              6
_symmetry_space_group_name_H-M     'R -3 H'
_symmetry_Int_Tables_number        148
_refine_ls_R_factor_all            .035
loop_
_symmetry_equiv_pos_site_id
_symmetry_equiv_pos_as_xyz
  1	'x-y, x, -z'
  2	'y, -x+y, -z'
  3	'-x, -y, -z'
  4	'-x+y, -x, z'
  5	'-y, x-y, z'
  6	'x, y, z'
  7	'x-y+.6666, x+.3333, -z+.3333'
  8	'x-y+.3333, x+.6666, -z+.6666'
  9	'y+.6666, -x+y+.3333, -z+.3333'
 10	'y+.3333, -x+y+.6666, -z+.6666'
 11	'-x+.6666, -y+.3333, -z+.3333'
 12	'-x+.3333, -y+.6666, -z+.6666'
 13	'-x+y+.6666, -x+.3333, z+.3333'
 14	'-x+y+.3333, -x+.6666, z+.6666'
 15	'-y+.6666, x-y+.3333, z+.3333'
 16	'-y+.3333, x-y+.6666, z+.6666'
 17	'x+.6666, y+.3333, z+.3333'
 18	'x+.3333, y+.6666, z+.6666'
loop_
_atom_type_symbol
_atom_type_oxidation_number
Fe3+	3
Li1+	1
O2-	-2
P5+	5
loop_
_atom_site_label
_atom_site_type_symbol
_atom_site_symmetry_multiplicity
_atom_site_Wyckoff_symbol
_atom_site_fract_x
_atom_site_fract_y
_atom_site_fract_z
_atom_site_occupancy
_atom_site_attached_hydrogens
_atom_site_B_iso_or_equiv
Fe1 Fe3+ 6 c 0 0 0.1461(2) 1. 0 0.28(5) 
Fe2 Fe3+ 6 c 0 0 0.6528(2) 1. 0 0.31(5) 
P1 P5+ 18 f 0.2923(4) 0.0019(5) 0.2513(2) 1. 0 0.32(4) 
O1 O2- 18 f 0.1915(6) -.0096(6) 0.1919(2) 1. 0 2.49(9) 
O2 O2- 18 f 0.7656(5) 0.9126(5) 0.6990(1) 1. 0 1.44(6) 
O3 O2- 18 f 0.2434(5) 0.8007(5) 0.2659(2) 1. 0 1.36(7) 
O4 O2- 18 f 0.5006(4) 0.8796(5) 0.7556(2) 1. 0 1.10(6) 
Li1 Li1+ 18 f 0.341(2) 0.024(2) 0.3819(6) 1. 0 0 

#End of data_89992-ICSD


