data_29411-ICSD
#?2014 by Fachinformationszentrum Karlsruhe, and the U.S. Secretary of 
#Commerce on behalf of the United States.  All rights reserved.
_database_code_ICSD                29411
_audit_creation_date               1985/01/24
_audit_update_record               1985/01/29
_chemical_name_systematic          'Cesium Disodium Chloride Dihydrate'
_chemical_formula_structural       'Cs Na2 Cl3 (H2 O)2'
_chemical_formula_sum              'H4 Cl3 Cs1 Na2 O2'
_publ_section_title
;
A Crystal Chemical Study of the System Cs Cl - Na Cl - H2 O; 
Structures of the Cs Cl Derivative Compounds Cs1-x (Na H2 O)x Cl, Cs 
Na2 Cl3 (H2 O)2, and Cs2 Ca Cl4 (H2 O)2
;
loop_
_citation_id
_citation_journal_abbrev
_citation_year
_citation_journal_volume
_citation_page_first
_citation_page_last
_citation_journal_id_ASTM
primary 'Acta Crystallographica, Section B: Structural Science'
 1984 40 86 92 ASBSDK
_publ_author_name
;
Evans, H.T.jr.;Konnert, J.A.;Chou, I.M.;Romankiw, L.A.
;
_cell_length_a                     13.6235(16)
_cell_length_b                     5.8322(5)
_cell_length_c                     10.7053(12)
_cell_angle_alpha                  90.
_cell_angle_beta                   91.26(1)
_cell_angle_gamma                  90.
_cell_volume                       850.38
_cell_formula_units_Z              4
_symmetry_space_group_name_H-M     'I 1 2/c 1'
_symmetry_Int_Tables_number        15
_refine_ls_R_factor_all            .022
loop_
_symmetry_equiv_pos_site_id
_symmetry_equiv_pos_as_xyz
  1	'-x, y, -z+.5'
  2	'-x, -y, -z'
  3	'x, -y, z+.5'
  4	'x, y, z'
  5	'-x+.5, y+.5, -z'
  6	'-x+.5, -y+.5, -z+.5'
  7	'x+.5, -y+.5, z'
  8	'x+.5, y+.5, z+.5'
loop_
_atom_type_symbol
_atom_type_oxidation_number
Cl1-	-1
Cs1+	1
H1+	1
Na1+	1
O2-	-2
loop_
_atom_site_label
_atom_site_type_symbol
_atom_site_symmetry_multiplicity
_atom_site_Wyckoff_symbol
_atom_site_fract_x
_atom_site_fract_y
_atom_site_fract_z
_atom_site_occupancy
_atom_site_attached_hydrogens
_atom_site_U_iso_or_equiv
Cs1 Cs1+ 4 c 0.25 0.25 0.25 1. 0 0 
Na1 Na1+ 4 a 0 0 0 1. 0 0 
Na2 Na1+ 4 e 0 0.6652(2) 0.25 1. 0 0 
Cl1 Cl1- 8 f 0.15861(3) 0.26673(10) 0.58579(5) 1. 0 0 
Cl2 Cl1- 4 e 0 0.18249(14) 0.25 1. 0 0 
O1 O2- 8 f 0.3941(1) 0.2049(3) 0.5741(2) 1. 0 0 
H1 H1+ 8 f 0.326(3) 0.25(1) 0.580(4) 1. 0 0.17(3) 
H2 H1+ 8 f 0.385(3) 0.073(7) 0.519(4) 1. 0 0.22(5) 

loop_
_atom_site_aniso_label
_atom_site_aniso_type_symbol
_atom_site_aniso_U_11
_atom_site_aniso_U_22
_atom_site_aniso_U_33
_atom_site_aniso_U_12
_atom_site_aniso_U_13
_atom_site_aniso_U_23
Cs1 Cs1+ 0.0233(1) 0.0293(1) 0.0414(1) 0.0014(1) -.0019(1) 0.0046(1)
Na1 Na1+ 0.0284(6) 0.0284(8) 0.0318(7) 0.0007(5) 0.0003(5) 0.0059(5)
Na2 Na1+ 0.02791 0.0343(7) 0.0254(6) 0 -.0003(5) 0
Cl1 Cl1- 0.0237(2) 0.0267(3) 0.0346(3) -.0018(2) 0.0005(2) 0.0009(2)
Cl2 Cl1- 0.0245(7) 0.0266(4) 0.0297(4) 0 0.0015(3) 0
O1 O2- 0.0268(7) 0.028(1) 0.0317(7) 0.0010(6) -.0008(6) -.0036(7)
#End of data_29411-ICSD


