data_69531-ICSD
#?2014 by Fachinformationszentrum Karlsruhe, and the U.S. Secretary of 
#Commerce on behalf of the United States.  All rights reserved.
_database_code_ICSD                69531
_audit_creation_date               1992/08/20
_chemical_name_systematic          'Dialuminium Tetrayttrium Oxide'
_chemical_formula_structural       'Al2 Y4 O9'
_chemical_formula_sum              'Al2 O9 Y4'
_publ_section_title
;
A comparison of three sets of diffraction data for Al2Y4O9: X-ray 
synchrotron powder data, X-ray single crystal data from Ag Kalpha 
radiation, and neutron single crystal data from 1.01 Angstroem 
neutrons
;
loop_
_citation_id
_citation_journal_abbrev
_citation_year
_citation_journal_volume
_citation_page_first
_citation_page_last
_citation_journal_id_ASTM
primary 'Acta Chemica Scandinavica (43,1989-)' 1991 45 226 230 ACHSE7
_publ_author_name                  'Christensen, A.N.;Hazell, R.G.'
_cell_length_a                     7.375(1)
_cell_length_b                     10.507(2)
_cell_length_c                     11.113(1)
_cell_angle_alpha                  90.
_cell_angle_beta                   108.58(2)
_cell_angle_gamma                  90.
_cell_volume                       816.25
_cell_formula_units_Z              4
_symmetry_space_group_name_H-M     'P 1 21/c 1'
_symmetry_Int_Tables_number        14
_refine_ls_R_factor_all            .109
loop_
_symmetry_equiv_pos_site_id
_symmetry_equiv_pos_as_xyz
  1	'x, -y+.5, z+.5'
  2	'-x, -y, -z'
  3	'-x, y+.5, -z+.5'
  4	'x, y, z'
loop_
_atom_type_symbol
_atom_type_oxidation_number
Al3+	3
O2-	-2
Y3+	3
loop_
_atom_site_label
_atom_site_type_symbol
_atom_site_symmetry_multiplicity
_atom_site_Wyckoff_symbol
_atom_site_fract_x
_atom_site_fract_y
_atom_site_fract_z
_atom_site_occupancy
_atom_site_attached_hydrogens
Y1 Y3+ 4 e 0.5194(9) 0.1076(7) 0.7873(7) 1. 0 
Y2 Y3+ 4 e 0.0269(9) 0.0953(7) 0.8064(8) 1. 0 
Y3 Y3+ 4 e 0.3455(9) 0.1281(7) 0.4357(7) 1. 0 
Y4 Y3+ 4 e 0.8303(9) 0.1211(8) 0.4160(8) 1. 0 
Al1 Al3+ 4 e 0.2123(26) 0.1829(18) 0.1244(19) 1. 0 
Al2 Al3+ 4 e 0.665(2) 0.1757(15) 0.1205(15) 1. 0 
O1 O2- 4 e 0.7773(18) 0.2346(13) 0.7592(13) 1. 0 
O2 O2- 4 e 0.2304(18) 0.2361(13) 0.7567(13) 1. 0 
O3 O2- 4 e 0.2008(14) 0.0174(11) 0.1471(11) 1. 0 
O4 O2- 4 e 0.0804(16) 0.2338(12) 0.9715(12) 1. 0 
O5 O2- 4 e 0.4325(15) 0.2357(8) 0.1188(11) 1. 0 
O6 O2- 4 e 0.6414(16) 0.2320(12) 0.9711(12) 1. 0 
O7 O2- 4 e 0.7067(13) 0.0217(10) 0.1677(10) 1. 0 
O8 O2- 4 e 0.0814(12) -.0006(8) 0.3988(9) 1. 0 
O9 O2- 4 e 0.5607(15) 0.0018(10) 0.3861(12) 1. 0 

#End of data_69531-ICSD


