data_40265-ICSD
#?2014 by Fachinformationszentrum Karlsruhe, and the U.S. Secretary of 
#Commerce on behalf of the United States.  All rights reserved.
_database_code_ICSD                40265
_audit_creation_date               1999/11/30
_audit_update_record               2012/02/01
_chemical_name_systematic          'Dilithium Tin Tellurate'
_chemical_formula_structural       'Li2 Sn (Te O6)'
_chemical_formula_sum              'Li2 O6 Sn1 Te1'
_publ_section_title
;
Ordering phenomena in the Li Sb O3 type structure: The new mixed 
tellurates Li2 Ti Te O6 and Li2 Sn Te O6
;
loop_
_citation_id
_citation_journal_abbrev
_citation_year
_citation_journal_volume
_citation_page_first
_citation_page_last
_citation_journal_id_ASTM
primary 'Journal of Solid State Chemistry' 1989 82 272 278 JSSCBI
_publ_author_name                  'Choisnet, J.;Rulmont, A.;Tarte, P.'
_cell_length_a                     5.192(2)
_cell_length_b                     4.927(2)
_cell_length_c                     8.513(5)
_cell_angle_alpha                  90.
_cell_angle_beta                   90.
_cell_angle_gamma                  90.
_cell_volume                       217.77
_cell_formula_units_Z              2
_symmetry_space_group_name_H-M     'P n n 2'
_symmetry_Int_Tables_number        34
loop_
_symmetry_equiv_pos_site_id
_symmetry_equiv_pos_as_xyz
  1	'x+.5, -y+.5, z+.5'
  2	'-x+.5, y+.5, z+.5'
  3	'-x, -y, z'
  4	'x, y, z'
loop_
_atom_type_symbol
_atom_type_oxidation_number
Li1+	1
O2-	-2
Sn4+	4
Te6+	6
loop_
_atom_site_label
_atom_site_type_symbol
_atom_site_symmetry_multiplicity
_atom_site_Wyckoff_symbol
_atom_site_fract_x
_atom_site_fract_y
_atom_site_fract_z
_atom_site_occupancy
_atom_site_attached_hydrogens
_atom_site_B_iso_or_equiv
Li1 Li1+ 2 a 0 0 0.726 1. 0 1. 
Li2 Li1+ 2 b 0 0.5 0.78 1. 0 1. 
Te1 Te6+ 2 a 0 0 0.1014 1. 0 1. 
Sn1 Sn4+ 2 b 0 0.5 0.4027 1. 0 0.9 
O1 O2- 4 c 0.18 0.252 0.253 1. 0 2. 
O2 O2- 4 c 0.663 0.208 0.079 1. 0 1.3 
O3 O2- 4 c 0.836 0.792 0.928 1. 0 1.1 

#End of data_40265-ICSD


