data_89835-ICSD
#?2014 by Fachinformationszentrum Karlsruhe, and the U.S. Secretary of 
#Commerce on behalf of the United States.  All rights reserved.
_database_code_ICSD                89835
_audit_creation_date               2002/04/01
_chemical_name_systematic
;
Tricalcium Dimanganese(III) Trigermanium Oxide
;
_chemical_formula_structural       'Ca3 Mn2 Ge3 O12'
_chemical_formula_sum              'Ca3 Ge3 Mn2 O12'
_chemical_name_mineral             Unnamed_Garnet
_publ_section_title
;
Structure and twinning of tetragonal Ca3 Mn2 Ge3 O12 garnet
;
loop_
_citation_id
_citation_journal_abbrev
_citation_year
_citation_journal_volume
_citation_page_first
_citation_page_last
_citation_journal_id_ASTM
primary 'American Mineralogist' 2000 85 993 1000 AMMIAY
_publ_author_name                  'Heinemann, S.;Miletich, R.'
_cell_length_a                     12.3098(7)
_cell_length_b                     12.3098(7)
_cell_length_c                     12.3277(9)
_cell_angle_alpha                  90.
_cell_angle_beta                   90.
_cell_angle_gamma                  90.
_cell_volume                       1868.03
_cell_formula_units_Z              8
_symmetry_space_group_name_H-M     'I 41/a Z'
_symmetry_Int_Tables_number        88
_refine_ls_R_factor_all            .031
loop_
_symmetry_equiv_pos_site_id
_symmetry_equiv_pos_as_xyz
  1	'-y+.75, x+.75, -z+.75'
  2	'y+.25, -x+.75, -z+.75'
  3	'x, y+.5, -z'
  4	'-x, -y, -z'
  5	'y+.25, -x+.25, z+.25'
  6	'-y+.75, x+.25, z+.25'
  7	'-x, -y+.5, z'
  8	'x, y, z'
  9	'-y+.25, x+.25, -z+.25'
 10	'y+.75, -x+.25, -z+.25'
 11	'x+.5, y, -z+.5'
 12	'-x+.5, -y+.5, -z+.5'
 13	'y+.75, -x+.75, z+.75'
 14	'-y+.25, x+.75, z+.75'
 15	'-x+.5, -y, z+.5'
 16	'x+.5, y+.5, z+.5'
loop_
_atom_type_symbol
_atom_type_oxidation_number
Ca2+	2
Ge4+	4
Mn3+	3
O2-	-2
loop_
_atom_site_label
_atom_site_type_symbol
_atom_site_symmetry_multiplicity
_atom_site_Wyckoff_symbol
_atom_site_fract_x
_atom_site_fract_y
_atom_site_fract_z
_atom_site_occupancy
_atom_site_attached_hydrogens
Ca1 Ca2+ 16 f 0.62510(12) 0.99771(11) 0.2504(1) 1. 0 
Ca2 Ca2+ 8 e 0.5 0.25 0.62281(13) 1. 0 
Mn1 Mn3+ 8 c 0.5 0 0.5 1. 0 
Mn2 Mn3+ 8 d 0.5 0 0 1. 0 
Ge1 Ge4+ 4 a 0.5 0.25 0.375 1. 0 
Ge2 Ge4+ 4 b 0.5 0.25 0.875 1. 0 
Ge3 Ge4+ 16 f 0.62518(6) 0.00317(6) 0.74330(6) 1. 0 
O1 O2- 16 f 0.9518(4) 0.6497(4) 0.9642(4) 1. 0 
O2 O2- 16 f 0.5522(4) 0.6529(4) 0.0334(4) 1. 0 
O3 O2- 16 f 0.1601(4) 0.0311(4) 0.0569(4) 1. 0 
O4 O2- 16 f 0.3558(4) 0.0372(4) 0.9538(4) 1. 0 
O5 O2- 16 f 0.5319(4) 0.0527(4) 0.6452(4) 1. 0 
O6 O2- 16 f 0.9648(4) 0.0499(4) 0.3399(4) 1. 0 

#End of data_89835-ICSD


