data_74811-ICSD
#?2014 by Fachinformationszentrum Karlsruhe, and the U.S. Secretary of 
#Commerce on behalf of the United States.  All rights reserved.
_database_code_ICSD                74811
_audit_creation_date               1995/10/17
_chemical_name_systematic          'Thallium Zinc Phosphate'
_chemical_formula_structural       'Tl Zn (P O4)'
_chemical_formula_sum              'O4 P1 Tl1 Zn1'
_publ_section_title
;
Die Kristallstruktur von TlZnPO4 und TlZnAsO4
;
loop_
_citation_id
_citation_journal_abbrev
_citation_year
_citation_journal_volume
_citation_page_first
_citation_page_last
_citation_journal_id_ASTM
primary 'Zeitschrift fuer Naturforschung, B: Chemical Sciences'
 1994 49 1282 1288 ZNBSEN
_publ_author_name                  'Andratschke, M.'
_cell_length_a                     8.732(2)
_cell_length_b                     5.468(1)
_cell_length_c                     8.841(2)
_cell_angle_alpha                  90.
_cell_angle_beta                   90.61(2)
_cell_angle_gamma                  90.
_cell_volume                       422.1
_cell_formula_units_Z              4
_symmetry_space_group_name_H-M     'P 1 21 1'
_symmetry_Int_Tables_number        4
_refine_ls_R_factor_all            .072
loop_
_symmetry_equiv_pos_site_id
_symmetry_equiv_pos_as_xyz
  1	'-x, y+.5, -z'
  2	'x, y, z'
loop_
_atom_type_symbol
_atom_type_oxidation_number
O2-	-2
P5+	5
Tl1+	1
Zn2+	2
loop_
_atom_site_label
_atom_site_type_symbol
_atom_site_symmetry_multiplicity
_atom_site_Wyckoff_symbol
_atom_site_fract_x
_atom_site_fract_y
_atom_site_fract_z
_atom_site_occupancy
_atom_site_attached_hydrogens
_atom_site_U_iso_or_equiv
Tl1 Tl1+ 2 a 0.0024(1) 0 0.1889(1) 1. 0 0.0161(4) 
Tl2 Tl1+ 2 a 0.5044(1) 0.0146(5) 0.3173(1) 1. 0 0.0247(5) 
Zn1 Zn2+ 2 a 0.1731(2) 0.0181(9) 0.5968(2) 1. 0 0.0081(9) 
Zn2 Zn2+ 2 a 0.6723(2) -.0124(10) -.0739(3) 1. 0 0.0122(10) 
P1 P5+ 2 a 0.8062(4) 0.0126(17) 0.5998(5) 1. 0 0.0078(9) 
P2 P5+ 2 a 0.3047(5) -.0115(18) -.0690(5) 1. 0 0.0093(9) 
O1 O2- 2 a 0.0345(12) 0.4845(41) 0.3281(13) 1. 0 0.0162(28) 
O2 O2- 2 a 0.4651(11) 0.0251(37) 0.0014(12) 1. 0 0.0114(25) 
O3 O2- 2 a 0.2155(16) 0.7770(28) -.0431(18) 1. 0 0.0126(30) 
O4 O2- 2 a 0.7951(17) 0.1628(31) 0.452(2) 1. 0 0.0261(38) 
O5 O2- 2 a 0.3113(18) 0.5918(29) 0.2854(20) 1. 0 0.0277(39) 
O6 O2- 2 a 0.2215(17) 0.2344(29) 0.0100(18) 1. 0 0.0144(32) 
O7 O2- 2 a 0.2282(19) 0.2357(33) 0.4413(21) 1. 0 0.0252(37) 
O8 O2- 2 a 0.6804(16) 0.5793(29) 0.2400(18) 1. 0 0.0257(38) 

#End of data_74811-ICSD


