data_89473-ICSD
#?2014 by Fachinformationszentrum Karlsruhe, and the U.S. Secretary of 
#Commerce on behalf of the United States.  All rights reserved.
_database_code_ICSD                89473
_audit_creation_date               2002/04/01
_chemical_name_systematic          'Potassium Tantalum Telluride'
_chemical_formula_structural       'K Ta Te3'
_chemical_formula_sum              'K1 Ta1 Te3'
_publ_section_title
;
New tantalum polychalcogenides with infinite anionic chains: K12 Ta6 
Se35 and K Ta Te3
;
loop_
_citation_id
_citation_journal_abbrev
_citation_year
_citation_journal_volume
_citation_page_first
_citation_page_last
_citation_journal_id_ASTM
primary 'Solid State Sciences' 1999 1 523 534 SSSCFJ
_publ_author_name                  'Tougait, O.;Ibers, J.A.'
_cell_length_a                     7.7177(15)
_cell_length_b                     13.826(3)
_cell_length_c                     30.9810(60)
_cell_angle_alpha                  90.
_cell_angle_beta                   90.11(3)
_cell_angle_gamma                  90.
_cell_volume                       3305.82
_cell_formula_units_Z              20
_symmetry_space_group_name_H-M     'P 1 21/c 1'
_symmetry_Int_Tables_number        14
_refine_ls_R_factor_all            .061
loop_
_symmetry_equiv_pos_site_id
_symmetry_equiv_pos_as_xyz
  1	'x, -y+.5, z+.5'
  2	'-x, -y, -z'
  3	'-x, y+.5, -z+.5'
  4	'x, y, z'
loop_
_atom_type_symbol
_atom_type_oxidation_number
K1+	1
Ta5+	5
Te2-	-2
loop_
_atom_site_label
_atom_site_type_symbol
_atom_site_symmetry_multiplicity
_atom_site_Wyckoff_symbol
_atom_site_fract_x
_atom_site_fract_y
_atom_site_fract_z
_atom_site_occupancy
_atom_site_attached_hydrogens
_atom_site_U_iso_or_equiv
Ta1 Ta5+ 4 e 0.22129(16) 0.18319(8) 0.19495(3) 1. 0 0.0170(3) 
Ta2 Ta5+ 4 e 0.23306(16) 0.24245(8) 0.09095(4) 1. 0 0.0176(3) 
Ta3 Ta5+ 4 e 0.27881(16) 0.25404(8) 0.49214(4) 1. 0 0.0176(3) 
Ta4 Ta5+ 4 e 0.31438(16) 0.24530(8) 0.39639(3) 1. 0 0.0174(3) 
Ta5 Ta5+ 4 e 0.34972(16) 0.21348(8) 0.29780(3) 1. 0 0.0179(3) 
Te1 Te2- 4 e 0.0081(3) 0.13350(14) 0.25590(6) 1. 0 0.0219(5) 
Te2 Te2- 4 e 0.0082(2) 0.80353(13) 0.34949(5) 1. 0 0.0186(4) 
Te3 Te2- 4 e 0.0325(2) 0.17406(14) 0.43858(6) 1. 0 0.0212(5) 
Te4 Te2- 4 e 0.0544(3) 0.12279(14) 0.03809(5) 1. 0 0.0219(5) 
Te5 Te2- 4 e 0.1260(3) 0.34705(13) 0.33235(5) 1. 0 0.0207(5) 
Te6 Te2- 4 e 0.1697(3) 0.40301(13) 0.04489(6) 1. 0 0.0247(5) 
Te7 Te2- 4 e 0.2504(3) 0.04875(13) 0.13644(5) 1. 0 0.0207(5) 
Te8 Te2- 4 e 0.2688(3) 0.06547(13) 0.35013(6) 1. 0 0.0217(5) 
Te9 Te2- 4 e 0.3192(3) 0.36568(13) 0.23566(6) 1. 0 0.0206(5) 
Te10 Te2- 4 e 0.3214(3) 0.41625(13) 0.44129(6) 1. 0 0.0219(5) 
Te11 Te2- 4 e 0.4771(2) 0.31215(13) 0.15373(5) 1. 0 0.0188(4) 
Te12 Te2- 4 e 0.5280(3) 0.11982(13) 0.23607(6) 1. 0 0.0206(5) 
Te13 Te2- 4 e 0.5439(2) 0.15507(13) 0.45179(6) 1. 0 0.0193(5) 
Te14 Te2- 4 e 0.5462(2) 0.20955(14) 0.05356(5) 1. 0 0.0206(5) 
Te15 Te2- 4 e 0.6197(2) 0.27367(13) 0.34473(6) 1. 0 0.0204(5) 
K1 K1+ 4 e 0.2210(9) 0.5382(5) 0.1477(2) 1. 0 0.0287(16) 
K2 K1+ 4 e 0.2234(9) 0.6164(5) 0.5507(2) 1. 0 0.0341(18) 
K3 K1+ 4 e 0.2406(9) 0.5866(5) 0.3589(2) 1. 0 0.0276(16) 
K4 K1+ 4 e 0.718(1) 0.4437(5) 0.0502(2) 1. 0 0.0336(17) 
K5 K1+ 4 e 0.7906(9) 0.3910(5) 0.24941(19) 1. 0 0.0295(17) 

#End of data_89473-ICSD


