data_49004-ICSD
#?2014 by Fachinformationszentrum Karlsruhe, and the U.S. Secretary of 
#Commerce on behalf of the United States.  All rights reserved.
_database_code_ICSD                49004
_audit_creation_date               1985/07/17
_audit_update_record               2012/08/01
_chemical_name_systematic
;
Sodium Hexa-mue-seleno-tetraselenotetragermanate(III)
;
_chemical_formula_structural       'Na8 Ge4 Se10'
_chemical_formula_sum              'Ge4 Na8 Se10'
_publ_section_title
;
Zur Kenntnis der Selenidosilikate und -germanate Na4 Si4 Se10, Na2 Ge 
Se3 und Na8 Ge4 Se10
;
loop_
_citation_id
_citation_journal_abbrev
_citation_year
_citation_journal_volume
_citation_page_first
_citation_page_last
_citation_journal_id_ASTM
primary
;
Zeitschrift fuer Naturforschung, Teil B. Anorganische Chemie, 
Organische Chemie (33,1978-41,1986)
;
 1985 40 450 457 ZNBAD2
_publ_author_name
;
Eisenmann, B.;Hansa, J.;Schaefer, H.
;
_cell_length_a                     13.104(5)
_cell_length_b                     12.057(5)
_cell_length_c                     14.101(5)
_cell_angle_alpha                  90.
_cell_angle_beta                   92.9(1)
_cell_angle_gamma                  90.
_cell_volume                       2225.03
_cell_formula_units_Z              4
_symmetry_space_group_name_H-M     'P 1 21/c 1'
_symmetry_Int_Tables_number        14
_refine_ls_R_factor_all            .104
loop_
_symmetry_equiv_pos_site_id
_symmetry_equiv_pos_as_xyz
  1	'x, -y+.5, z+.5'
  2	'-x, -y, -z'
  3	'-x, y+.5, -z+.5'
  4	'x, y, z'
loop_
_atom_type_symbol
_atom_type_oxidation_number
Ge3+	3
Na1+	1
Se2-	-2
loop_
_atom_site_label
_atom_site_type_symbol
_atom_site_symmetry_multiplicity
_atom_site_Wyckoff_symbol
_atom_site_fract_x
_atom_site_fract_y
_atom_site_fract_z
_atom_site_occupancy
_atom_site_attached_hydrogens
Se1 Se2- 4 e 0.3921(3) 0.1134(3) 0.0466(3) 1. 0 
Se2 Se2- 4 e 0.5170(3) 0.8399(4) 0.2657(3) 1. 0 
Se3 Se2- 4 e 0.1042(3) 0.8706(4) 0.4545(3) 1. 0 
Se4 Se2- 4 e 0.9934(3) 0.0887(4) 0.2519(3) 1. 0 
Se5 Se2- 4 e 0.1104(3) 0.3710(4) 0.4547(3) 1. 0 
Se6 Se2- 4 e 0.6126(3) 0.1185(3) 0.4620(3) 1. 0 
Se7 Se2- 4 e 0.2986(3) 0.1152(3) 0.3312(3) 1. 0 
Se8 Se2- 4 e 0.2126(3) 0.8448(4) 0.1394(3) 1. 0 
Se9 Se2- 4 e 0.8076(3) 0.8588(4) 0.3321(3) 1. 0 
Se10 Se2- 4 e 0.7104(3) 0.0918(3) 0.1535(3) 1. 0 
Ge1 Ge3+ 4 e 0.7776(3) 0.1657(3) 0.4214(3) 1. 0 
Ge2 Ge3+ 4 e 0.7228(3) 0.9078(3) 0.0802(3) 1. 0 
Ge3 Ge3+ 4 e 0.1732(3) 0.5514(3) 0.2119(3) 1. 0 
Ge4 Ge3+ 4 e 0.3238(3) 0.2988(3) 0.2863(3) 1. 0 
Na1 Na1+ 4 e 0.0924(16) 0.1207(15) 0.4425(13) 1. 0 
Na2 Na1+ 4 e 0.3888(12) 0.3651(15) 0.0342(12) 1. 0 
Na3 Na1+ 4 e 0.1947(14) 0.0876(16) 0.1480(13) 1. 0 
Na4 Na1+ 4 e 0.9163(14) 0.1214(14) 0.0494(13) 1. 0 
Na5 Na1+ 4 e 0.5143(14) 0.0885(18) 0.2685(16) 1. 0 
Na6 Na1+ 4 e 0.0159(14) 0.8387(14) 0.2342(13) 1. 0 
Na7 Na1+ 4 e 0.5777(14) 0.3643(16) 0.4276(13) 1. 0 
Na8 Na1+ 4 e 0.2945(17) 0.8568(16) 0.3442(15) 1. 0 

loop_
_atom_site_aniso_label
_atom_site_aniso_type_symbol
_atom_site_aniso_U_11
_atom_site_aniso_U_22
_atom_site_aniso_U_33
_atom_site_aniso_U_12
_atom_site_aniso_U_13
_atom_site_aniso_U_23
Se1 Se2- 0.0169(20) 0.0092(20) 0.0037(18) -.0037(16) -.0021(16) -.0018(16)
Se2 Se2- 0.0087(18) 0.0129(21) 0.0156(20) 0.0020(15) 0.0038(16) -.0016(16)
Se3 Se2- 0.0104(19) 0.0144(22) 0.0165(21) 0.0011(17) -.0008(16) 0.0007(19)
Se4 Se2- 0.0031(17) 0.0147(22) 0.0095(19) -.0006(14) -.0008(14) -.0035(15)
Se5 Se2- 0.0076(19) 0.0160(22) 0.0182(22) -.0050(16) 0.0048(17) -.0049(19)
Se6 Se2- 0.0111(20) 0.0134(22) 0.0151(21) 0.0000(17) 0.0073(17) 0.0041(18)
Se7 Se2- 0.0126(19) 0.0012(18) 0.0115(19) 0.0007(14) 0.0021(16) 0.0012(15)
Se8 Se2- 0.0191(21) 0.0134(21) 0.0102(19) 0.0039(17) 0.0033(16) -.0053(17)
Se9 Se2- 0.0169(20) 0.012(2) 0.0104(19) -.0024(17) -.0008(16) 0.0020(16)
Se10 Se2- 0.0097(18) 0.0012(17) 0.0057(17) 0.0008(14) 0.0015(14) -.0015(14)
Ge1 Ge3+ 0.0085(18) 0.0032(19) 0.0060(18) 0.0005(15) 0.0021(15) 0.0022(15)
Ge2 Ge3+ 0.0094(19) 0.0057(19) 0.0031(18) -.0012(15) 0.0005(15) 0.0010(15)
Ge3 Ge3+ 0.0097(19) 0.0022(18) 0.0019(18) -.0007(15) 0.0024(15) -.0018(14)
Ge4 Ge3+ 0.0045(18) 0.0044(19) 0.0107(19) -.0009(15) 0.0023(15) -.0023(16)
Na1 Na1+ 0.044(11) 0.0142(89) 0.0199(90) -.0075(81) -.0216(84) 0.0049(72)
Na2 Na1+ 0.0151(81) 0.0218(92) 0.0219(92) 0.0047(71) 0.0074(72) -.0073(77)
Na3 Na1+ 0.0286(98) 0.034(11) 0.0151(88) -.0160(83) 0.0100(76) 0.0029(79)
Na4 Na1+ 0.0309(96) 0.0103(82) 0.0214(91) -.0064(71) 0.0109(77) -.0021(70)
Na5 Na1+ 0.0157(93) 0.035(12) 0.054(13) 0.0057(80) 0.0220(93) 0.009(10)
Na6 Na1+ 0.0284(92) 0.0114(86) 0.024(9) -.0060(72) 0.0012(76) -.0027(73)
Na7 Na1+ 0.0244(93) 0.031(11) 0.0203(91) 0.0077(81) 0.0142(78) -.0121(83)
Na8 Na1+ 0.053(13) 0.019(10) 0.042(13) 0.0155(91) 0.023(11) -.0126(92)
#End of data_49004-ICSD


