data_40127-ICSD
#?2014 by Fachinformationszentrum Karlsruhe, and the U.S. Secretary of 
#Commerce on behalf of the United States.  All rights reserved.
_database_code_ICSD                40127
_audit_creation_date               1999/06/02
_chemical_name_systematic          'Trisilver Arsenic Sulfide'
_chemical_formula_structural       'Ag3 As S3'
_chemical_formula_sum              'Ag3 As1 S3'
_chemical_name_mineral             Xanthoconite
_publ_section_title
;
Neuberechnung der Kristallstruktur von natuerlichem und synthetischem 
monoklinen Ag3 As S3 (=Xanthokon) nebst einer Diskussion zur 
Symmetrie
;
loop_
_citation_id
_citation_journal_abbrev
_citation_year
_citation_journal_volume
_citation_page_first
_citation_page_last
_citation_journal_id_ASTM
primary 'Mitteilungen der Oesterreichischen Mineralogischen Gesellschaft'
 1993 138 9 15 MOMGA4
_publ_author_name                  'Rosenstingl, J.;Pertlik, F.'
_cell_length_a                     12.02(1)
_cell_length_b                     6.262(1)
_cell_length_c                     17.080(10)
_cell_angle_alpha                  90.
_cell_angle_beta                   110.9(1)
_cell_angle_gamma                  90.
_cell_volume                       1201.01
_cell_formula_units_Z              8
_symmetry_space_group_name_H-M     'C 1 2/c 1'
_symmetry_Int_Tables_number        15
_refine_ls_R_factor_all            .048
loop_
_symmetry_equiv_pos_site_id
_symmetry_equiv_pos_as_xyz
  1	'x, -y, z+.5'
  2	'-x, -y, -z'
  3	'-x, y, -z+.5'
  4	'x, y, z'
  5	'x+.5, -y+.5, z+.5'
  6	'-x+.5, -y+.5, -z'
  7	'-x+.5, y+.5, -z+.5'
  8	'x+.5, y+.5, z'
loop_
_atom_type_symbol
_atom_type_oxidation_number
Ag1+	1
As3+	3
S2-	-2
loop_
_atom_site_label
_atom_site_type_symbol
_atom_site_symmetry_multiplicity
_atom_site_Wyckoff_symbol
_atom_site_fract_x
_atom_site_fract_y
_atom_site_fract_z
_atom_site_occupancy
_atom_site_attached_hydrogens
Ag1 Ag1+ 8 f 0.1421(1) 0.0329(2) 0.2171(1) 1. 0 
Ag2 Ag1+ 8 f 0.0641(1) 0.9403(2) 0.4388(1) 1. 0 
Ag3 Ag1+ 8 f 0.3603(1) 0.0463(2) 0.1373(1) 1. 0 
As1 As3+ 8 f 0.3577(1) 0.0559(2) 0.4288(1) 1. 0 
S1 S2- 8 f 0.1535(2) 0.1934(5) 0.0846(2) 1. 0 
S2 S2- 8 f 0.4255(2) 0.1399(5) 0.3258(2) 1. 0 
S3 S2- 8 f 0.1658(2) 0.1436(5) 0.3599(2) 1. 0 

loop_
_atom_site_aniso_label
_atom_site_aniso_type_symbol
_atom_site_aniso_U_11
_atom_site_aniso_U_22
_atom_site_aniso_U_33
_atom_site_aniso_U_12
_atom_site_aniso_U_13
_atom_site_aniso_U_23
Ag1 Ag1+ 0.0690(7) 0.0794(10) 0.0399(6) -.0027(3) 0.0064(2) -.0092(5)
Ag2 Ag1+ 0.0510(6) 0.0749(9) 0.0494(6) -.0064(2) 0.0055(2) 0.0141(5)
Ag3 Ag1+ 0.0346(5) 0.0401(7) 0.1350(13) -.0002(2) 0.0008(2) -.0011(5)
As1 As3+ 0.0251(4) 0.0226(5) 0.0279(5) -.0009(2) 0.0034(1) -.0016(3)
S1 S2- 0.0281(11) 0.0210(13) 0.0376(15) -.0011(4) 0.0002(4) -.0025(8)
S2 S2- 0.0292(12) 0.0362(16) 0.0360(14) 0.0001(5) 0.0003(4) 0.0013(10)
S3 S2- 0.0253(11) 0.0230(13) 0.0368(14) 0.0014(4) 0.0049(4) 0.0008(8)
#End of data_40127-ICSD


