data_250102-ICSD
#?2014 by Fachinformationszentrum Karlsruhe, and the U.S. Secretary of 
#Commerce on behalf of the United States.  All rights reserved.
_database_code_ICSD                250102
_audit_creation_date               2004/04/01
_chemical_name_systematic
;
Disodium Strontium Tetrakis(vanadate)
;
_chemical_formula_structural       'Na2 Sr (V O3)4'
_chemical_formula_sum              'Na2 O12 Sr1 V4'
_publ_section_title
;
Crystal structure of alkali element strontium tetrametavanadates A2 
Sr (V O3)4, where A= Na, K, Rb or Cs
;
loop_
_citation_id
_citation_journal_abbrev
_citation_year
_citation_journal_volume
_citation_page_first
_citation_page_last
_citation_journal_id_ASTM
primary 'Zhurnal Neorganicheskoi Khimii' 2003 48 2074 2079 ZNOKAQ
_publ_author_name
;
Zubkov, V.G.;Tyutyunnik, A.P.;Berger, I.F.;Surat, L.L.;Slobodin, B.V.
;
_cell_length_a                     10.63449(4)
_cell_length_b                     10.63449(4)
_cell_length_c                     4.96205(4)
_cell_angle_alpha                  90.
_cell_angle_beta                   90.
_cell_angle_gamma                  90.
_cell_volume                       561.17
_cell_formula_units_Z              2
_symmetry_space_group_name_H-M     'P 4/n b m Z'
_symmetry_Int_Tables_number        125
_refine_ls_R_factor_all            .0316
loop_
_symmetry_equiv_pos_site_id
_symmetry_equiv_pos_as_xyz
  1	'y+.5, x+.5, z'
  2	'y, -x+.5, z'
  3	'-y+.5, x, z'
  4	'-y, -x, z'
  5	'-y+.5, -x+.5, -z'
  6	'-y, x+.5, -z'
  7	'y+.5, -x, -z'
  8	'y, x, -z'
  9	'x+.5, y+.5, -z'
 10	'-x+.5, y, -z'
 11	'x, -y+.5, -z'
 12	'-x, -y, -z'
 13	'-x+.5, -y+.5, z'
 14	'x+.5, -y, z'
 15	'-x, y+.5, z'
 16	'x, y, z'
loop_
_atom_type_symbol
_atom_type_oxidation_number
Na1+	1
O2-	-2
Sr2+	2
V5+	5
loop_
_atom_site_label
_atom_site_type_symbol
_atom_site_symmetry_multiplicity
_atom_site_Wyckoff_symbol
_atom_site_fract_x
_atom_site_fract_y
_atom_site_fract_z
_atom_site_occupancy
_atom_site_attached_hydrogens
_atom_site_U_iso_or_equiv
Na1 Na1+ 4 f 0 0 0.5 1. 0 0.0161(2) 
Sr1 Sr2+ 2 b 0.25 0.25 0.5 1. 0 0.0160(2) 
V1 V5+ 8 k 0.5353(2) 0.25 0 1. 0 0.0152(2) 
O1 O2- 8 m 0.6305(2) 0.3695(2) 0.1553(4) 1. 0 0.0129(3) 
O2 O2- 16 n 0.1839(1) 0.0529(1) 0.2352(3) 1. 0 0.0113(3) 

#End of data_250102-ICSD


