data_35628-ICSD
#?2014 by Fachinformationszentrum Karlsruhe, and the U.S. Secretary of 
#Commerce on behalf of the United States.  All rights reserved.
_database_code_ICSD                35628
_audit_creation_date               1983/12/31
_chemical_name_systematic          'Silver Hexathiodiphosphate(IV)'
_chemical_formula_structural       'Ag4 P2 S6'
_chemical_formula_sum              'Ag4 P2 S6'
_publ_section_title
;
Structure d'une Deuxieme Variete d'Hexathiodiphosphate(IV) d'Argent, 
Ag4 P2 S6. Comparaison des Structures des Deux Varietes
;
loop_
_citation_id
_citation_journal_abbrev
_citation_year
_citation_journal_volume
_citation_page_first
_citation_page_last
_citation_journal_id_ASTM
primary 'Acta Crystallographica, Section C: Crystal Structure Communications'
 1983 39 1485 1488 ACSCEE
_publ_author_name
;
Toffoli, P.;Khodadad, P.;Rodier, N.
;
_cell_length_a                     13.901(7)
_cell_length_b                     11.073(6)
_cell_length_c                     6.303(4)
_cell_angle_alpha                  90.
_cell_angle_beta                   90.
_cell_angle_gamma                  90.
_cell_volume                       970.19
_cell_formula_units_Z              4
_symmetry_space_group_name_H-M     'P 21 21 21'
_symmetry_Int_Tables_number        19
_refine_ls_R_factor_all            .051
loop_
_symmetry_equiv_pos_site_id
_symmetry_equiv_pos_as_xyz
  1	'-x, y+.5, -z+.5'
  2	'x+.5, -y+.5, -z'
  3	'-x+.5, -y, z+.5'
  4	'x, y, z'
loop_
_atom_type_symbol
_atom_type_oxidation_number
Ag1+	1
P4+	4
S2-	-2
loop_
_atom_site_label
_atom_site_type_symbol
_atom_site_symmetry_multiplicity
_atom_site_Wyckoff_symbol
_atom_site_fract_x
_atom_site_fract_y
_atom_site_fract_z
_atom_site_occupancy
_atom_site_attached_hydrogens
Ag1 Ag1+ 4 a 0.3622(2) 0.1125(2) 0.8479(3) 1. 0 
Ag2 Ag1+ 4 a 0.3735(2) 0.3873(2) 0.8481(3) 1. 0 
Ag3 Ag1+ 4 a 0.1294(1) 0.0609(1) 0.7504(3) 1. 0 
Ag4 Ag1+ 4 a 0.6182(2) 0.0502(2) 0.0779(4) 1. 0 
P1 P4+ 4 a 0.2901(3) 0.2520(4) 0.3350(7) 1. 0 
P2 P4+ 4 a 0.4510(3) 0.2291(4) 0.3782(6) 1. 0 
S1 S2- 4 a 0.2316(3) 0.2597(4) 0.6261(6) 1. 0 
S2 S2- 4 a 0.2434(3) 0.1092(4) 0.1614(8) 1. 0 
S3 S2- 4 a 0.2740(3) 0.4143(3) 0.1801(7) 1. 0 
S4 S2- 4 a 0.4975(3) 0.3736(4) 0.5518(8) 1. 0 
S5 S2- 4 a 0.5094(3) 0.2331(4) 0.0818(7) 1. 0 
S6 S2- 4 a 0.4697(3) 0.0699(4) 0.5281(7) 1. 0 

#End of data_35628-ICSD


