data_412871-ICSD
#?2014 by Fachinformationszentrum Karlsruhe, and the U.S. Secretary of 
#Commerce on behalf of the United States.  All rights reserved.
_database_code_ICSD                412871
_audit_creation_date               2014/08/01
_chemical_name_systematic          'Potassium Tricyanofluoroborate'
_chemical_formula_structural       'K (B F (C N)3)'
_chemical_formula_sum              'C3 B1 F1 K1 N3'
_publ_section_title
;
The Reactions of M[BF4] (M = Li, K) and (C2 H5)2 O?BF3 with (CH3)3 Si 
CN. Formation of M[BFx(CN)4-x] (M = Li, K; x = 1, 2) and (CH3)3 Si N 
C B Fx (CN)3-x, (x = 0, 1)
;
loop_
_citation_id
_citation_journal_abbrev
_citation_year
_citation_journal_volume
_citation_journal_issue
_citation_page_first
_citation_page_last
_citation_journal_id_ASTM
primary 'Zeitschrift fuer Anorganische und Allgemeine Chemie (1950) (DE)'
 2003 629 4 677 685 ZAACAB
_publ_author_name
;
Eduard Bernhardt;Michael Berkei;Helge Willner;Markus Schuermann
;
_cell_length_a                     6.519(1)
_cell_length_b                     7.319(1)
_cell_length_c                     7.633(2)
_cell_angle_alpha                  68.02(3)
_cell_angle_beta                   74.70(3)
_cell_angle_gamma                  89.09(3)
_cell_volume                       324.34
_cell_formula_units_Z              2
_symmetry_space_group_name_H-M     'P -1'
_symmetry_Int_Tables_number        2
_refine_ls_R_factor_all            .0458
loop_
_symmetry_equiv_pos_site_id
_symmetry_equiv_pos_as_xyz
  1	'-x, -y, -z'
  2	'x, y, z'
loop_
_atom_type_symbol
_atom_type_oxidation_number
B3+	3
C2+	2
F1-	-1
K1+	1
N3-	-3
loop_
_atom_site_label
_atom_site_type_symbol
_atom_site_symmetry_multiplicity
_atom_site_Wyckoff_symbol
_atom_site_fract_x
_atom_site_fract_y
_atom_site_fract_z
_atom_site_occupancy
_atom_site_attached_hydrogens
_atom_site_U_iso_or_equiv
K1 K1+ 2 i 0.33638(8) 0.08579(7) 0.76052(7) 1 0 0.0464(3) 
F1 F1- 2 i 1.2275(2) 0.3655(2) 0.4499(2) 1 0 0.0567(4) 
N1 N3- 2 i 1.3880(3) 0.2177(3) 0.0538(3) 1 0 0.0604(6) 
N2 N3- 2 i 1.0752(4) 0.7558(3) 0.0896(3) 1 0 0.0630(6) 
N3 N3- 2 i 0.7423(4) 0.1617(3) 0.4558(3) 1 0 0.0630(6) 
C1 C2+ 2 i 1.2849(4) 0.2846(3) 0.1556(3) 1 0 0.0438(5) 
C2 C2+ 2 i 1.1029(3) 0.5985(3) 0.1769(3) 1 0 0.0436(6) 
C3 C2+ 2 i 0.9053(4) 0.2500(3) 0.3931(3) 1 0 0.0462(6) 
B1 B3+ 2 i 1.1355(4) 0.3751(4) 0.3011(4) 1 0 0.0393(6) 

loop_
_atom_site_aniso_label
_atom_site_aniso_type_symbol
_atom_site_aniso_U_11
_atom_site_aniso_U_22
_atom_site_aniso_U_33
_atom_site_aniso_U_12
_atom_site_aniso_U_13
_atom_site_aniso_U_23
K1 K1+ 0.0479(4) 0.0500(4) 0.0394(3) 0.0125(2) -0.0097(2) -0.0171(3)
F1 F1- 0.0648(10) 0.0652(10) 0.0470(8) 0.0151(7) -0.0251(7) -0.0229(7)
N1 N3- 0.0515(13) 0.074(2) 0.0684(14) 0.0194(11) -0.0148(11) -0.0434(13)
N2 N3- 0.0556(14) 0.0499(14) 0.0657(14) 0.0132(11) -0.0074(11) -0.0094(11)
N3 N3- 0.0545(14) 0.0635(15) 0.0615(13) -0.0051(11) -0.0008(11) -0.0234(12)
C1 C2+ 0.0379(12) 0.0468(13) 0.0478(13) 0.0088(10) -0.0146(10) -0.0177(11)
C2 C2+ 0.0339(12) 0.0462(14) 0.0434(12) 0.0061(10) -0.0026(10) -0.0149(11)
C3 C2+ 0.0493(15) 0.0442(13) 0.0407(12) 0.0075(11) -0.0066(11) -0.0157(11)
B1 B3+ 0.0396(13) 0.0421(14) 0.0341(12) 0.0083(11) -0.0100(10) -0.0127(10)
#End of data_412871-ICSD


