data_245074-ICSD
#?2014 by Fachinformationszentrum Karlsruhe, and the U.S. Secretary of 
#Commerce on behalf of the United States.  All rights reserved.
_database_code_ICSD                245074
_audit_creation_date               2007/08/01
_chemical_name_systematic          'Dicalcium Silicate'
_chemical_formula_structural       'Ca2 (Si O4)'
_chemical_formula_sum              'Ca2 O4 Si1'
_publ_section_title
;
Charge states of Ca atoms in beta-dicalcium silicate
;
loop_
_citation_id
_citation_journal_abbrev
_citation_year
_citation_journal_volume
_citation_journal_issue
_citation_page_first
_citation_page_last
_citation_journal_id_ASTM
primary 'Journal of Solid State Chemistry' 2006 179 11 3286 3294 JSSCBI
_publ_author_name
;
Mori, K.;Kiyanagi, R.;Yonemura, M.;Iwase, K.;Sato, T.;Itoh, 
K.;Sugiyama, M.;Kamiyama, T.;Fukunaga, T.
;
_cell_length_a                     5.50684(10)
_cell_length_b                     6.74839(13)
_cell_length_c                     9.30320(18)
_cell_angle_alpha                  90
_cell_angle_beta                   94.590(1)
_cell_angle_gamma                  90
_cell_volume                       344.62
_cell_formula_units_Z              4
_symmetry_space_group_name_H-M     'P 1 21/n 1'
_symmetry_Int_Tables_number        14
_refine_ls_R_factor_all            .0331
loop_
_symmetry_equiv_pos_site_id
_symmetry_equiv_pos_as_xyz
  1	'-x+.5, y+.5, -z+.5'
  2	'-x, -y, -z'
  3	'x+.5, -y+.5, z+.5'
  4	'x, y, z'
loop_
_atom_type_symbol
_atom_type_oxidation_number
Ca2+	2
O2-	-2
Si4+	4
loop_
_atom_site_label
_atom_site_type_symbol
_atom_site_symmetry_multiplicity
_atom_site_Wyckoff_symbol
_atom_site_fract_x
_atom_site_fract_y
_atom_site_fract_z
_atom_site_occupancy
_atom_site_attached_hydrogens
_atom_site_B_iso_or_equiv
Ca1 Ca2+ 4 e 0.22713(21) 0.34205(20) 0.43014(15) 1. 0 0.773(30) 
Ca2 Ca2+ 4 e 0.22040(25) 0.99706(23) 0.70239(14) 1. 0 0.795(32) 
Si1 Si4+ 4 e 0.26655(27) 0.78183(17) 0.41734(15) 1. 0 0.384(32) 
O1 O2- 4 e 0.21702(19) 0.01223(16) 0.44055(12) 1. 0 1.033(33) 
O2 O2- 4 e 0.49902(20) 0.74878(17) 0.30783(11) 1. 0 0.828(27) 
O3 O2- 4 e 0.013437(19) 0.66726(18) 0.36274(12) 1. 0 0.894(29) 
O4 O2- 4 e 0.34546(19) 0.67176(20) 0.57325(11) 1. 0 0.890(26) 

#End of data_245074-ICSD


