data_30584-ICSD
#?2014 by Fachinformationszentrum Karlsruhe, and the U.S. Secretary of 
#Commerce on behalf of the United States.  All rights reserved.
_database_code_ICSD                30584
_audit_creation_date               1984/12/31
_audit_update_record               2006/04/01
_chemical_name_systematic          'Trilithium Tantalate - Alpha, Ht'
_chemical_formula_structural       'Li3 (Ta O4)'
_chemical_formula_sum              'Li3 O4 Ta1'
_publ_section_title                Corrigendum
loop_
_citation_id
_citation_journal_abbrev
_citation_year
_citation_journal_volume
_citation_page_first
_citation_page_last
_citation_journal_id_ASTM
primary 'Journal of Solid State Chemistry' 1984 53 277 278 JSSCBI
2 'Journal of Solid State Chemistry' 1983 48 420 430 JSSCBI
_publ_author_name
;
Zocchi, M.;Gatti, M.;Santoro, A.;Roth, R.S.
;
_cell_length_a                     6.018(1)
_cell_length_b                     5.995(1)
_cell_length_c                     12.865(2)
_cell_angle_alpha                  90.
_cell_angle_beta                   103.53(1)
_cell_angle_gamma                  90.
_cell_volume                       451.26
_cell_formula_units_Z              6
_symmetry_space_group_name_H-M     'P 1 2/n 1'
_symmetry_Int_Tables_number        13
_refine_ls_R_factor_all            .067
loop_
_symmetry_equiv_pos_site_id
_symmetry_equiv_pos_as_xyz
  1	'x+.5, -y, z+.5'
  2	'-x+.5, y, -z+.5'
  3	'-x, -y, -z'
  4	'x, y, z'
loop_
_atom_type_symbol
_atom_type_oxidation_number
Li1+	1
O2-	-2
Ta5+	5
loop_
_atom_site_label
_atom_site_type_symbol
_atom_site_symmetry_multiplicity
_atom_site_Wyckoff_symbol
_atom_site_fract_x
_atom_site_fract_y
_atom_site_fract_z
_atom_site_occupancy
_atom_site_attached_hydrogens
_atom_site_B_iso_or_equiv
Ta1 Ta5+ 2 f 0.25 0.580(2) 0.75 1. 0 0.3 
Ta2 Ta5+ 4 g 0.403(1) 0.134(1) 0.0821(5) 1. 0 0.3 
O1 O2- 4 g -.016(1) 0.142(1) 0.2579(6) 1. 0 0.5 
O2 O2- 4 g 0.487(1) 0.386(1) 0.7432(7) 1. 0 0.5 
O3 O2- 4 g 0.162(2) 0.360(1) 0.0779(5) 1. 0 0.5 
O4 O2- 4 g 0.652(2) 0.357(2) 0.0906(5) 1. 0 0.5 
O5 O2- 4 g 0.681(2) 0.116(2) 0.5876(6) 1. 0 0.5 
O6 O2- 4 g 0.145(2) 0.113(1) 0.5729(5) 1. 0 0.5 
Li1 Li1+ 2 e 0.75 0.124(4) 0.75 1. 0 1. 
Li2 Li1+ 4 g 0.396(2) 0.416(3) 0.594(2) 1. 0 1. 
Li3 Li1+ 4 g -.084(4) 0.130(6) 0.096(2) 1. 0 1. 
Li4 Li1+ 2 e 0.25 0.416(6) 0.25 1. 0 1. 
Li5 Li1+ 2 f 0.25 0.132(7) 0.75 1. 0 1. 
Li6 Li1+ 4 g 0.608(4) 0.369(4) -.081(2) 1. 0 1. 

#End of data_30584-ICSD


