data_241206-ICSD
#?2014 by Fachinformationszentrum Karlsruhe, and the U.S. Secretary of 
#Commerce on behalf of the United States.  All rights reserved.
_database_code_ICSD                241206
_audit_creation_date               2008/08/01
_chemical_name_systematic          'Calcium Trivanadate(IV)'
_chemical_formula_structural       'Ca (V3 O7)'
_chemical_formula_sum              'Ca1 O7 V3'
_publ_section_title
;
Temperature dependence of the A V3 O7 (A = Ca, Sr) structure
;
loop_
_citation_id
_citation_journal_abbrev
_citation_year
_citation_journal_volume
_citation_journal_issue
_citation_page_first
_citation_page_last
_citation_journal_id_ASTM
primary 'Acta Crystallographica, Section B: Structural Science'
 2007 63 6 836 842 ASBSDK
_publ_author_name                  'Prinz, S.;Sparta, K.M.;Roth, G.'
_cell_length_a                     10.409(3)
_cell_length_b                     10.374(2)
_cell_length_c                     5.2876(15)
_cell_angle_alpha                  90.00
_cell_angle_beta                   90.00
_cell_angle_gamma                  90.00
_cell_volume                       570.97
_cell_formula_units_Z              4
_symmetry_space_group_name_H-M     'P n m a'
_symmetry_Int_Tables_number        62
_refine_ls_R_factor_all            .0185
loop_
_symmetry_equiv_pos_site_id
_symmetry_equiv_pos_as_xyz
  1	'x+.5, y, -z+.5'
  2	'x, -y+.5, z'
  3	'-x+.5, y+.5, z+.5'
  4	'-x, -y, -z'
  5	'-x+.5, -y, z+.5'
  6	'-x, y+.5, -z'
  7	'x+.5, -y+.5, -z+.5'
  8	'x, y, z'
loop_
_atom_type_symbol
_atom_type_oxidation_number
Ca2+	2
O2-	-2
V4+	4
loop_
_atom_site_label
_atom_site_type_symbol
_atom_site_symmetry_multiplicity
_atom_site_Wyckoff_symbol
_atom_site_fract_x
_atom_site_fract_y
_atom_site_fract_z
_atom_site_occupancy
_atom_site_attached_hydrogens
_atom_site_U_iso_or_equiv
Ca1 Ca2+ 4 c 0.08497(9) 0.2500 0.29980(14) 1 0 0.0045(3) 
V1 V4+ 4 c 0.28919(7) 0.2500 0.79228(13) 1 0 0.0036(3) 
V2 V4+ 8 d 0.18733(5) 0.52010(5) 0.78334(9) 1 0 0.0037(3) 
O1 O2- 4 c 0.4445(3) 0.2500 0.8089(5) 1 0 0.0073(7) 
O2 O2- 8 d 0.0391(2) 0.5650(2) 0.7658(3) 1 0 0.0076(6) 
O3 O2- 8 d 0.22037(19) 0.37948(19) 0.0260(4) 1 0 0.0048(5) 
O4 O2- 8 d 0.22696(19) 0.37927(19) 0.5478(3) 1 0 0.0043(5) 

loop_
_atom_site_aniso_label
_atom_site_aniso_type_symbol
_atom_site_aniso_U_11
_atom_site_aniso_U_22
_atom_site_aniso_U_33
_atom_site_aniso_U_12
_atom_site_aniso_U_13
_atom_site_aniso_U_23
Ca1 Ca2+ 0.0032(5) 0.0049(6) 0.0055(5) 0.000 -0.0003(3) 0.000
V1 V4+ 0.0022(5) 0.0041(5) 0.0046(5) 0.000 -0.0006(3) 0.000
V2 V4+ 0.0028(4) 0.0039(4) 0.0044(4) 0.0007(2) -0.0001(2) 0.00003(19)
#End of data_241206-ICSD


