data_423129-ICSD
#?2014 by Fachinformationszentrum Karlsruhe, and the U.S. Secretary of 
#Commerce on behalf of the United States.  All rights reserved.
_database_code_ICSD                423129
_audit_creation_date               2012/08/01
_chemical_name_systematic          'Calcium Silicate'
_chemical_formula_structural       'Ca (Si O3)'
_chemical_formula_sum              'Ca1 O3 Si1'
_chemical_name_mineral             Pseudowollastonite
_publ_section_title
;
Natural pseudowollastonite: crystal structure, associated minerals 
and geological context
;
loop_
_citation_id
_citation_journal_abbrev
_citation_year
_citation_journal_volume
_citation_page_first
_citation_page_last
_citation_journal_id_ASTM
primary Lithos 2012 134 75 90 LITHAN
_publ_author_name
;
Seryotkin, Y.V.;Sokol, E.V.;Kokh, S.N.
;
_cell_length_a                     6.83556(10)
_cell_length_b                     11.86962(18)
_cell_length_c                     19.6255(3)
_cell_angle_alpha                  90.
_cell_angle_beta                   90.6805(13)
_cell_angle_gamma                  90.
_cell_volume                       1592.21
_cell_formula_units_Z              24
_symmetry_space_group_name_H-M     'C 1 2/c 1'
_symmetry_Int_Tables_number        15
_refine_ls_R_factor_all            .029
loop_
_symmetry_equiv_pos_site_id
_symmetry_equiv_pos_as_xyz
  1	'x, -y, z+.5'
  2	'-x, -y, -z'
  3	'-x, y, -z+.5'
  4	'x, y, z'
  5	'x+.5, -y+.5, z+.5'
  6	'-x+.5, -y+.5, -z'
  7	'-x+.5, y+.5, -z+.5'
  8	'x+.5, y+.5, z'
loop_
_atom_type_symbol
_atom_type_oxidation_number
Ca2+	2
O2-	-2
Si4+	4
loop_
_atom_site_label
_atom_site_type_symbol
_atom_site_symmetry_multiplicity
_atom_site_Wyckoff_symbol
_atom_site_fract_x
_atom_site_fract_y
_atom_site_fract_z
_atom_site_occupancy
_atom_site_attached_hydrogens
Ca1 Ca2+ 4 a 0 0 0 1. 0 
Ca2 Ca2+ 4 e 0 0.34269(3) 0.25 1. 0 
Ca3 Ca2+ 4 e 0 0.32896(3) 0.75 1. 0 
Ca4 Ca2+ 4 e 0 0.00448(3) 0.75 1. 0 
Ca5 Ca2+ 8 f 0.01122(3) 0.33571(2) 0.000464(12) 1. 0 
Si1 Si4+ 8 f 0.29303(5) 0.03890(3) 0.375037(17) 1. 0 
Si2 Si4+ 8 f 0.09278(5) 0.17031(3) 0.127899(17) 1. 0 
Si3 Si4+ 8 f 0.29810(5) 0.29718(3) 0.377897(17) 1. 0 
O1 O2- 8 f 0.34745(14) 0.34490(8) 0.45191(5) 1. 0 
O2 O2- 8 f 0.15487(14) 0.48795(8) 0.19702(5) 1. 0 
O3 O2- 8 f 0.19045(14) 0.17213(8) 0.20202(5) 1. 0 
O4 O2- 8 f 0.05634(13) 0.28089(8) 0.37485(5) 1. 0 
O5 O2- 8 f 0.20079(14) 0.17030(9) 0.05692(5) 1. 0 
O6 O2- 8 f 0.05207(13) 0.05802(8) 0.37383(5) 1. 0 
O7 O2- 8 f 0.35422(14) 0.35114(8) 0.30691(5) 1. 0 
O8 O2- 8 f 0.15807(14) 0.48531(8) 0.05277(5) 1. 0 
O9 O2- 8 f 0.38925(13) 0.16732(7) 0.37621(5) 1. 0 

loop_
_atom_site_aniso_label
_atom_site_aniso_type_symbol
_atom_site_aniso_U_11
_atom_site_aniso_U_22
_atom_site_aniso_U_33
_atom_site_aniso_U_12
_atom_site_aniso_U_13
_atom_site_aniso_U_23
Ca1 Ca2+ 0.01309(15) 0.01008(15) 0.00812(14) 0.00418(11) 0.00093(11) 
0.00120(11)
Ca2 Ca2+ 0.01180(14) 0.00765(14) 0.00786(14) 0. 0.00140(10) 0.
Ca3 Ca2+ 0.00714(13) 0.01540(16) 0.00802(14) 0. -0.00032(10) 0.
Ca4 Ca2+ 0.01026(14) 0.00850(14) 0.00740(14) 0. 0.00032(10) 0.
Ca5 Ca2+ 0.00892(10) 0.00997(10) 0.00752(10) -0.00142(8) 0.00043(7) 
-0.00043(7)
Si1 Si4+ 0.00749(14) 0.00693(14) 0.00579(13) 0.00082(10) -0.00009(10) 
-0.00023(10)
Si2 Si4+ 0.00611(13) 0.00820(14) 0.00587(13) -0.00012(10) 0.00017(10) 
0.00013(10)
Si3 Si4+ 0.00794(14) 0.00666(14) 0.00588(14) -0.00066(10) 0.00019(10) 
-0.00006(10)
O1 O2- 0.0146(4) 0.0120(4) 0.0078(4) -0.0023(3) -0.0011(3) -0.0017(3)
O2 O2- 0.0158(4) 0.0123(4) 0.0077(4) -0.0026(3) 0.0014(3) 0.0023(3)
O3 O2- 0.0113(4) 0.0159(4) 0.0078(4) 0.0008(3) -0.0022(3) 0.0001(3)
O4 O2- 0.0075(4) 0.0079(4) 0.0148(4) -0.0002(3) -0.0004(3) -0.0005(3)
O5 O2- 0.0117(4) 0.0192(5) 0.0084(4) 0.0006(3) 0.0034(3) 0.0013(3)
O6 O2- 0.0071(3) 0.0081(4) 0.0149(4) 0.0002(3) -0.0001(3) -0.0002(3)
O7 O2- 0.0168(4) 0.0126(4) 0.0088(4) -0.0036(3) 0.0018(3) 0.0020(3)
O8 O2- 0.0158(4) 0.0134(4) 0.0078(4) -0.0029(3) -0.0008(3) -0.0023(3)
O9 O2- 0.0084(3) 0.0075(4) 0.0145(4) -0.0004(3) -0.0003(3) 0.0000(3)
#End of data_423129-ICSD


