data_415143-ICSD
#?2014 by Fachinformationszentrum Karlsruhe, and the U.S. Secretary of 
#Commerce on behalf of the United States.  All rights reserved.
_database_code_ICSD                415143
_audit_creation_date               2009/02/01
_audit_update_record               2013/02/01
_chemical_name_systematic
;
Dicalcium Tetracosabismuth Octamolybdodichromate
;
_chemical_formula_structural       'Ca2 Bi24 (Mo8 Cr2 O68)'
_chemical_formula_sum              'Bi24 Ca2 Cr2 Mo8 O68'
_publ_section_title
;
Crystal structure and ionic conductivity of the series A2 Bi24 Mo8 X2 
O68 (A= Ca, Sr and Ba and X= Cr and W) in the (Bi2 O3)-(Mo O3) system
;
loop_
_citation_id
_citation_journal_abbrev
_citation_year
_citation_journal_volume
_citation_page_first
_citation_page_last
_citation_journal_id_ASTM
primary 'Structural Chemistry' 2007 18 195 202 STCHES
_publ_author_name                  'Muktha, B.;Guru Row, T.N.'
_cell_length_a                     11.687(4)
_cell_length_b                     5.784(2)
_cell_length_c                     24.728(9)
_cell_angle_alpha                  90
_cell_angle_beta                   101.911(6)
_cell_angle_gamma                  90
_cell_volume                       1635.56
_cell_formula_units_Z              1
_symmetry_space_group_name_H-M     'P 1 2/c 1'
_symmetry_Int_Tables_number        13
_refine_ls_R_factor_all            .081
loop_
_symmetry_equiv_pos_site_id
_symmetry_equiv_pos_as_xyz
  1	'x, -y, z+.5'
  2	'-x, -y, -z'
  3	'-x, y, -z+.5'
  4	'x, y, z'
loop_
_atom_type_symbol
_atom_type_oxidation_number
Bi3+	3
Ca2+	2
Cr6+	6
Mo6+	6
O2-	-2
loop_
_atom_site_label
_atom_site_type_symbol
_atom_site_symmetry_multiplicity
_atom_site_Wyckoff_symbol
_atom_site_fract_x
_atom_site_fract_y
_atom_site_fract_z
_atom_site_occupancy
_atom_site_attached_hydrogens
_atom_site_U_iso_or_equiv
Bi1 Bi3+ 4 g 0.65861(10) 0.4179(2) 0.74516(5) 1 0 0.0296(4) 
Bi2 Bi3+ 4 g 0.45996(10) -0.0795(2) 0.67320(5) 1 0 0.0284(4) 
Bi3 Bi3+ 4 g 0.25712(11) 0.5121(2) 0.60011(6) 1 0 0.0307(4) 
Bi4 Bi3+ 4 g 0.22814(11) 0.9961(2) 0.34087(6) 1 0 0.0298(4) 
Bi5 Bi3+ 4 g 0.58185(11) 0.5089(2) 0.59135(5) 1 0 0.0293(4) 
Bi6 Bi3+ 4 g 0.13890(11) 0.0048(2) 0.67807(6) 1 0 0.0301(4) 
Mo1 Mo6+ 4 g -0.0757(3) 0.4957(6) 0.57736(15) 1 0 0.0363(8) 
Mo2 Mo6+ 4 g 0.3294(3) 0.0125(6) 0.51193(15) 1 0 0.0408(9) 
Cr1 Cr6+ 2 e 0.0000 -0.4896(9) 0.7500 1 0 0.0114(12) 
Ca1 Ca2+ 2 a 0.0000 0.0000 0.5000 1 0 0.034(3) 
O1 O2- 2 f 0.5000 0.233(6) 0.7500 1 0 0.033(7) 
O2 O2- 2 f 0.5000 -0.255(6) 0.7500 1 0 0.032(7) 
O3 O2- 4 g 0.3620(17) 1.244(4) 0.3427(10) 1 0 0.029(5) 
O4 O2- 4 g 0.2700(19) -0.228(4) 0.6673(10) 1 0 0.032(5) 
O5 O2- 4 g 0.263(2) 0.263(4) 0.6636(9) 1 0 0.033(5) 
O6 O2- 4 g 0.3695(19) 0.746(4) 0.3475(10) 1 0 0.030(5) 
O7 O2- 4 g 0.244(2) 0.086(5) 0.7564(10) 1 0 0.036(6) 
O8 O2- 4 g 0.439(2) 0.567(5) 0.6336(12) 1 0 0.039(6) 
O9 O2- 4 g -0.129(3) -0.334(9) 0.742(2) 1 0 0.110(18) 
O10 O2- 4 g 0.209(3) -0.077(7) 0.5322(17) 1 0 0.076(11) 
O11 O2- 4 g -0.196(3) 0.487(8) 0.6095(17) 1 0 0.082(13) 
O12 O2- 4 g -0.002(4) 0.232(8) 0.5795(18) 1 0 0.091(13) 
O13 O2- 4 g 0.309(4) 0.051(7) 0.4400(14) 1 0 0.076(11) 
O14 O2- 4 g 0.387(3) 0.247(7) 0.5516(15) 1 0 0.078(12) 
O15 O2- 4 g 0.028(4) 0.695(9) 0.599(3) 1 0 0.120(19) 
O16 O2- 4 g -0.137(7) 0.580(17) 0.519(2) 1 0 0.20(4) 
O17 O2- 4 g 0.425(5) -0.220(8) 0.529(3) 1 0 0.13(2) 
O18 O2- 4 g -0.012(5) -0.659(15) 0.693(3) 1 0 0.24(6) 

loop_
_atom_site_aniso_label
_atom_site_aniso_type_symbol
_atom_site_aniso_U_11
_atom_site_aniso_U_22
_atom_site_aniso_U_33
_atom_site_aniso_U_12
_atom_site_aniso_U_13
_atom_site_aniso_U_23
Bi1 Bi3+ 0.0296(6) 0.0279(8) 0.0325(7) -0.0001(5) 0.0093(5) 0.0005(5)
Bi2 Bi3+ 0.0306(6) 0.0279(7) 0.0275(7) 0.0000(5) 0.0082(5) 0.0009(5)
Bi3 Bi3+ 0.0350(7) 0.0299(8) 0.0273(7) -0.0016(5) 0.0064(5) 0.0004(5)
Bi4 Bi3+ 0.0272(7) 0.0317(8) 0.0320(8) -0.0014(4) 0.0099(5) -0.0028(5)
Bi5 Bi3+ 0.0327(7) 0.0293(8) 0.0269(7) 0.0018(5) 0.0086(5) 0.0003(5)
Bi6 Bi3+ 0.0263(6) 0.0297(8) 0.0350(8) -0.0006(4) 0.0079(5) -0.0030(5)
Mo1 Mo6+ 0.0317(16) 0.040(2) 0.0401(19) -0.0020(12) 0.0139(13) -0.0017(14)
Mo2 Mo6+ 0.056(2) 0.0356(19) 0.0308(18) 0.0026(14) 0.0081(15) 0.0016(14)
Cr1 Cr6+ 0.011(3) 0.006(3) 0.019(3) 0.000 0.006(2) 0.000
Ca1 Ca2+ 0.027(4) 0.028(5) 0.068(7) -0.018(3) 0.036(5) -0.035(5)
O1 O2- 0.039(16) 0.04(2) 0.026(16) 0.000 0.013(13) 0.000
O2 O2- 0.038(16) 0.028(18) 0.028(16) 0.000 0.003(13) 0.000
O3 O2- 0.024(10) 0.028(12) 0.035(12) -0.018(9) 0.009(9) -0.005(11)
O4 O2- 0.033(11) 0.022(11) 0.040(13) 0.002(9) 0.008(9) 0.001(11)
O5 O2- 0.048(13) 0.029(13) 0.021(10) 0.005(10) 0.008(9) 0.001(11)
O6 O2- 0.038(12) 0.021(11) 0.030(12) 0.005(9) 0.004(9) -0.001(10)
O7 O2- 0.036(12) 0.039(15) 0.035(13) -0.008(10) 0.008(10) -0.004(12)
O8 O2- 0.035(12) 0.032(13) 0.057(17) -0.006(10) 0.023(11) -0.006(13)
O9 O2- 0.06(2) 0.14(4) 0.13(4) 0.05(3) 0.01(2) -0.06(3)
O10 O2- 0.07(2) 0.08(3) 0.08(3) -0.015(19) 0.030(19) 0.02(2)
O11 O2- 0.052(19) 0.13(4) 0.08(3) 0.003(19) 0.048(19) 0.03(2)
O12 O2- 0.12(3) 0.08(3) 0.09(3) 0.02(3) 0.07(3) 0.03(2)
O13 O2- 0.12(3) 0.08(3) 0.034(17) -0.02(2) 0.027(18) -0.010(18)
O14 O2- 0.09(2) 0.09(3) 0.07(2) -0.02(2) 0.032(18) -0.06(2)
O15 O2- 0.09(3) 0.08(3) 0.19(6) -0.03(3) 0.04(3) -0.02(4)
O16 O2- 0.21(7) 0.31(10) 0.07(3) 0.17(7) -0.03(4) -0.05(5)
O17 O2- 0.16(4) 0.08(3) 0.17(5) 0.07(3) 0.06(4) 0.08(4)
O18 O2- 0.13(4) 0.27(9) 0.27(9) 0.13(5) -0.10(5) -0.22(8)
#End of data_415143-ICSD


