data_260572-ICSD
#?2014 by Fachinformationszentrum Karlsruhe, and the U.S. Secretary of 
#Commerce on behalf of the United States.  All rights reserved.
_database_code_ICSD                260572
_audit_creation_date               2010/02/01
_audit_update_record               2013/02/01
_chemical_name_systematic
;
Lithium Iron(II) Phosphate(V) (1/1/1)
;
_chemical_formula_structural       'Li Fe (P O4)'
_chemical_formula_sum              'Fe1 Li1 O4 P1'
_chemical_name_mineral             Triphylite
_publ_section_title
;
Structural, spectroscopic and magnetic investigation of the Li Fe(1-
x) Mn(x) P O4 (x=0-0.18) solid solution
;
loop_
_citation_id
_citation_journal_abbrev
_citation_year
_citation_journal_volume
_citation_journal_issue
_citation_page_first
_citation_page_last
_citation_journal_id_ASTM
primary 'Journal of Solid State Chemistry' 2009 182 7 1972 1981 JSSCBI
_publ_author_name
;
Bini, M.;Mozzati, M.C.;Galinetto, P.;Capsoni, D.;Ferrari, S.;Grandi, 
M.S.;Massarotti, V.
;
_cell_length_a                     10.32545(52)
_cell_length_b                     6.00354(28)
_cell_length_c                     4.68793(29)
_cell_angle_alpha                  90
_cell_angle_beta                   90
_cell_angle_gamma                  90
_cell_volume                       290.6
_cell_formula_units_Z              4
_symmetry_space_group_name_H-M     'P n m a'
_symmetry_Int_Tables_number        62
_refine_ls_R_factor_all            .0213
loop_
_symmetry_equiv_pos_site_id
_symmetry_equiv_pos_as_xyz
  1	'x+.5, y, -z+.5'
  2	'x, -y+.5, z'
  3	'-x+.5, y+.5, z+.5'
  4	'-x, -y, -z'
  5	'-x+.5, -y, z+.5'
  6	'-x, y+.5, -z'
  7	'x+.5, -y+.5, -z+.5'
  8	'x, y, z'
loop_
_atom_type_symbol
_atom_type_oxidation_number
Fe2+	2
Li1+	1
O2-	-2
P5+	5
loop_
_atom_site_label
_atom_site_type_symbol
_atom_site_symmetry_multiplicity
_atom_site_Wyckoff_symbol
_atom_site_fract_x
_atom_site_fract_y
_atom_site_fract_z
_atom_site_occupancy
_atom_site_attached_hydrogens
_atom_site_B_iso_or_equiv
Li1 Li1+ 4 a 0 0 0 1 0 3.0(20) 
Fe1 Fe2+ 4 c 0.28635(47) 0.25 0.9660(15) 1 0 1.88(27) 
P1 P5+ 4 c 0.0982(10) 0.25 0.4214(29) 1 0 1.06(36) 
O1 O2- 4 c 0.0966(20) 0.25 0.7456(43) 1 0 0.10(63) 
O2 O2- 4 c 0.4555(29) 0.25 0.2241(27) 1 0 0.41(58) 
O3 O2- 8 d 0.1696(16) 0.0478(27) 0.2879(23) 1 0 3.00(52) 

#End of data_260572-ICSD


