data_18211-ICSD
#?2014 by Fachinformationszentrum Karlsruhe, and the U.S. Secretary of 
#Commerce on behalf of the United States.  All rights reserved.
_database_code_ICSD                18211
_audit_creation_date               1980/01/01
_audit_update_record               2007/08/01
_chemical_name_systematic
;
Potassium Closo-pentaborate Tetrahydrate
;
_chemical_formula_structural       'K (B5 O8) (H2 O)4'
_chemical_formula_sum              'H8 B5 K1 O12'
_chemical_name_mineral             Santite
_publ_section_title
;
Refinement of the structure of potassium pentaborate tetrahydrate
;
loop_
_citation_id
_citation_journal_abbrev
_citation_year
_citation_journal_volume
_citation_page_first
_citation_page_last
_citation_journal_id_ASTM
primary 'Acta Crystallographica (1,1948-23,1967)' 1963 16 376 379 ACCRA9
2 'Acta Crystallographica B (24,1968-38,1982)' 1968 24 1131 1133 ACBCAR
3 'Golden Book of Phase Transitions, Wroclaw' 2002 1 1 123 GBOPT5
_publ_author_name                  'Zachariasen, W.H.;Plettinger, H.A.'
_cell_length_a                     11.062(3)
_cell_length_b                     11.175(3)
_cell_length_c                     9.041(3)
_cell_angle_alpha                  90.
_cell_angle_beta                   90.
_cell_angle_gamma                  90.
_cell_volume                       1117.63
_cell_formula_units_Z              4
_symmetry_space_group_name_H-M     'A b a 2'
_symmetry_Int_Tables_number        41
_refine_ls_R_factor_all            .03
loop_
_symmetry_equiv_pos_site_id
_symmetry_equiv_pos_as_xyz
  1	'x+.5, -y+.5, z'
  2	'-x+.5, y+.5, z'
  3	'-x, -y, z'
  4	'x, y, z'
  5	'x+.5, -y, z+.5'
  6	'-x+.5, y, z+.5'
  7	'-x, -y+.5, z+.5'
  8	'x, y+.5, z+.5'
loop_
_atom_type_symbol
_atom_type_oxidation_number
B3+	3
H1+	1
K1+	1
O2-	-2
loop_
_atom_site_label
_atom_site_type_symbol
_atom_site_symmetry_multiplicity
_atom_site_Wyckoff_symbol
_atom_site_fract_x
_atom_site_fract_y
_atom_site_fract_z
_atom_site_occupancy
_atom_site_attached_hydrogens
_atom_site_B_iso_or_equiv
K1 K1+ 4 a 0 0 0 1. 0 0 
B1 B3+ 4 a 0 0 0.4041(11) 1. 0 0 
B2 B3+ 8 b 0.1890(4) 0.0943(5) 0.3126(8) 1. 0 0 
B3 B3+ 8 b 0.2042(4) 0.9432(5) 0.4952(11) 1. 0 0 
O1 O2- 8 b 0.0672(2) 0.0843(3) 0.3082(5) 1. 0 0 
O2 O2- 8 b 0.0832(2) 0.9313(3) 0.4991(6) 1. 0 0 
O3 O2- 8 b 0.2591(2) 0.0254(3) 0.4033(3) 1. 0 0 
O4 O2- 8 b 0.2448(3) 0.1753(3) 0.2235(6) 1. 0 0 
O5 O2- 8 b 0.2816(2) 0.8801(4) 0.5802(6) 1. 0 0 
O6 O2- 8 b 0.0151(3) 0.1707(4) 0.7588(5) 1. 0 0 
H1 H1+ 8 b 0.965 0.208 0.682 1. 0 5.9 
H2 H1+ 8 b 0.965 0.125 0.828 1. 0 5.9 
H3 H1+ 8 b 0.161(5) 0.159(7) 0.741(9) 1. 0 5.9 
H4 H1+ 8 b 0.251(7) 0.316(7) 0.193(14) 1. 0 5.9 

#End of data_18211-ICSD


