data_60889-ICSD
#?2014 by Fachinformationszentrum Karlsruhe, and the U.S. Secretary of 
#Commerce on behalf of the United States.  All rights reserved.
_database_code_ICSD                60889
_audit_creation_date               1988/02/22
_chemical_name_systematic
;
Potassium Triborate(III) Trihydrate
;
_chemical_formula_structural       'K B3 O5 (H2 O)3'
_chemical_formula_sum              'H6 B3 K1 O8'
_publ_section_title
;
Synthesis,characterization and crystal structure of a new potassium 
borate, Kb3O5*3H2O
;
loop_
_citation_id
_citation_journal_abbrev
_citation_year
_citation_journal_volume
_citation_page_first
_citation_page_last
_citation_journal_id_ASTM
primary 'Inorganic Chemistry' 1987 26 128 132 INOCAJ
_publ_author_name                  'Salentine, C.G.'
_cell_length_a                     15.540(5)
_cell_length_b                     6.821(2)
_cell_length_c                     14.273(4)
_cell_angle_alpha                  90.
_cell_angle_beta                   104.44(2)
_cell_angle_gamma                  90.
_cell_volume                       1465.12
_cell_formula_units_Z              8
_symmetry_space_group_name_H-M     'C 1 2/c 1'
_symmetry_Int_Tables_number        15
_refine_ls_R_factor_all            .029
loop_
_symmetry_equiv_pos_site_id
_symmetry_equiv_pos_as_xyz
  1	'x, -y, z+.5'
  2	'-x, -y, -z'
  3	'-x, y, -z+.5'
  4	'x, y, z'
  5	'x+.5, -y+.5, z+.5'
  6	'-x+.5, -y+.5, -z'
  7	'-x+.5, y+.5, -z+.5'
  8	'x+.5, y+.5, z'
loop_
_atom_type_symbol
_atom_type_oxidation_number
B3+	3
H1+	1
K1+	1
O2-	-2
loop_
_atom_site_label
_atom_site_type_symbol
_atom_site_symmetry_multiplicity
_atom_site_Wyckoff_symbol
_atom_site_fract_x
_atom_site_fract_y
_atom_site_fract_z
_atom_site_occupancy
_atom_site_attached_hydrogens
K1 K1+ 4 e 0 0.1479(1) 0.25 1. 0 
K2 K1+ 4 c 0.25 0.25 0 1. 0 
O1 O2- 8 f -.14801(9) 0.0206(2) 0.3071(1) 1. 0 
O2 O2- 8 f -.12477(9) -.0265(2) 0.4775(1) 1. 0 
O3 O2- 8 f -.17146(9) -.2940(2) 0.3710(1) 1. 0 
O4 O2- 8 f -.02179(9) -.1637(2) 0.3937(1) 1. 0 
O5 O2- 8 f 0.09421(10) -.3740(2) 0.3880(1) 1. 0 
O6 O2- 8 f -.05168(9) -.5039(2) 0.3585(1) 1. 0 
O7 O2- 8 f -.19963(9) -.6241(2) 0.3372(1) 1. 0 
O8 O2- 8 f -.15393(10) 0.2652(2) 0.1158(1) 1. 0 
B1 B3+ 8 f -.1164(1) -.1151(3) 0.3876(2) 1. 0 
B2 B3+ 8 f 0.0069(2) -.3463(4) 0.3803(2) 1. 0 
B3 B3+ 8 f -.1409(2) -.4734(3) 0.3552(2) 1. 0 
H1 H1+ 8 f -.202(2) 0.242(4) 0.124(2) 1. 0 
H2 H1+ 8 f -.151(2) 0.202(4) 0.065(2) 1. 0 
H3 H1+ 8 f -.180(1) -.036(4) 0.264(2) 1. 0 
H4 H1+ 8 f -.083(1) 0.011(4) 0.505(2) 1. 0 
H5 H1+ 8 f 0.105(2) -.463(4) 0.382(2) 1. 0 
H6 H1+ 8 f -.183(2) -.718(4) 0.329(2) 1. 0 

#End of data_60889-ICSD


