data_15105-ICSD
#?2014 by Fachinformationszentrum Karlsruhe, and the U.S. Secretary of 
#Commerce on behalf of the United States.  All rights reserved.
_database_code_ICSD                15105
_audit_creation_date               1980/01/01
_audit_update_record               2007/04/01
_chemical_name_systematic          'Lithium Manganese(III) Oxide'
_chemical_formula_structural       'Li Mn O2'
_chemical_formula_sum              'Li1 Mn1 O2'
_publ_section_title                'Zur Kristallstruktur von Li Mn O2'
loop_
_citation_id
_citation_journal_abbrev
_citation_year
_citation_journal_volume
_citation_page_first
_citation_page_last
_citation_journal_id_ASTM
primary 'Zeitschrift fuer Anorganische und Allgemeine Chemie (1950) (DE)'
 1969 368 262 270 ZAACAB
_publ_author_name                  'Dittrich, G.;Hoppe, R.'
_cell_length_a                     2.804
_cell_length_b                     5.758
_cell_length_c                     4.576
_cell_angle_alpha                  90.
_cell_angle_beta                   90.
_cell_angle_gamma                  90.
_cell_volume                       73.88
_cell_formula_units_Z              2
_symmetry_space_group_name_H-M     'P m 2 m'
_symmetry_Int_Tables_number        25
loop_
_symmetry_equiv_pos_site_id
_symmetry_equiv_pos_as_xyz
  1	'-x, y, z'
  2	'x, y, -z'
  3	'-x, y, -z'
  4	'x, y, z'
loop_
_atom_type_symbol
_atom_type_oxidation_number
Li1+	1
Mn3+	3
O2-	-2
loop_
_atom_site_label
_atom_site_type_symbol
_atom_site_symmetry_multiplicity
_atom_site_Wyckoff_symbol
_atom_site_fract_x
_atom_site_fract_y
_atom_site_fract_z
_atom_site_occupancy
_atom_site_attached_hydrogens
Li1 Li1+ 1 a 0 0.5 0 1. 0 
Li2 Li1+ 1 d 0.5 0.75 0.5 1. 0 
Mn1 Mn3+ 1 a 0 0 0 1. 0 
Mn2 Mn3+ 1 d 0.5 0.25 0.5 1. 0 
O1 O2- 1 c 0 0.46 0.5 1. 0 
O2 O2- 1 b 0.5 0.21 0 1. 0 
O3 O2- 1 b 0.5 0.79 0 1. 0 
O4 O2- 1 c 0 0.04 0.5 1. 0 

#End of data_15105-ICSD


