data_95832-ICSD
#?2014 by Fachinformationszentrum Karlsruhe, and the U.S. Secretary of 
#Commerce on behalf of the United States.  All rights reserved.
_database_code_ICSD                95832
_audit_creation_date               2004/04/01
_chemical_name_systematic
;
Silver(II) Fluoride Tetrafluoroargentate(III)
;
_chemical_formula_structural       'Ag F (Ag F4)'
_chemical_formula_sum              'Ag2 F5'
_publ_section_title
;
Die Kristallstruktur von Ag(II) F (Ag(III) F4)
;
loop_
_citation_id
_citation_journal_abbrev
_citation_year
_citation_journal_volume
_citation_page_first
_citation_page_last
_citation_journal_id_ASTM
primary 'Zeitschrift fuer Anorganische und Allgemeine Chemie (1950) (DE)'
 2002 628 2592 2596 ZAACAB
_publ_author_name                  'Fischer, R.;Mueller, B.G.'
_cell_length_a                     4.999(2)
_cell_length_b                     11.087(5)
_cell_length_c                     7.357(3)
_cell_angle_alpha                  90.05(3)
_cell_angle_beta                   106.54(4)
_cell_angle_gamma                  90.18(4)
_cell_volume                       390.88
_cell_formula_units_Z              4
_symmetry_space_group_name_H-M     'P -1'
_symmetry_Int_Tables_number        2
_refine_ls_R_factor_all            .0725
loop_
_symmetry_equiv_pos_site_id
_symmetry_equiv_pos_as_xyz
  1	'-x, -y, -z'
  2	'x, y, z'
loop_
_atom_type_symbol
_atom_type_oxidation_number
Ag2+	2
Ag3+	3
F1-	-1
loop_
_atom_site_label
_atom_site_type_symbol
_atom_site_symmetry_multiplicity
_atom_site_Wyckoff_symbol
_atom_site_fract_x
_atom_site_fract_y
_atom_site_fract_z
_atom_site_occupancy
_atom_site_attached_hydrogens
_atom_site_U_iso_or_equiv
Ag1 Ag2+ 1 f 0.5 0 0.5 1. 0 0.0171(2) 
Ag2 Ag2+ 1 e 0.5 0.5 0 1. 0 0.0186(2) 
Ag3 Ag2+ 2 i 0.96492(11) 0.75214(4) 0.27739(7) 1. 0 0.0165(2) 
Ag4 Ag3+ 1 d 0.5 0 0 1. 0 0.0170(2) 
Ag5 Ag3+ 1 h 0.5 0.5 0.5 1. 0 0.0170(2) 
Ag6 Ag3+ 2 i 0.95977(11) 0.76853(4) 0.78613(7) 1. 0 0.0180(2) 
F1 F1- 2 i 0.5734(11) 0.4224(4) 0.2850(7) 1. 0 0.0252(10) 
F2 F1- 2 i 0.3350(11) 0.0888(4) 0.7732(7) 1. 0 0.0245(10) 
F3 F1- 2 i 0.5123(10) 0.1370(4) 0.1565(7) 1. 0 0.0257(10) 
F4 F1- 2 i 0.0590(11) 0.8563(4) 0.0210(7) 1. 0 0.0265(10) 
F5 F1- 2 i 0.3709(12) 0.3409(4) 0.8735(8) 1. 0 0.0285(11) 
F6 F1- 2 i 0.1989(12) 0.5801(4) 0.3275(8) 1. 0 0.0300(12) 
F7 F1- 2 i 0.1124(11) 0.0830(4) 0.3549(8) 1. 0 0.0281(11) 
F8 F1- 2 i 0.2990(11) 0.8387(4) 0.4429(8) 1. 0 0.0276(11) 
F9 F1- 2 i 0.8531(12) 0.6823(4) 0.5509(7) 1. 0 0.0277(11) 
F10 F1- 2 i 0.0350(12) 0.6238(4) 0.9267(8) 1. 0 0.0317(12) 

loop_
_atom_site_aniso_label
_atom_site_aniso_type_symbol
_atom_site_aniso_U_11
_atom_site_aniso_U_22
_atom_site_aniso_U_33
_atom_site_aniso_U_12
_atom_site_aniso_U_13
_atom_site_aniso_U_23
Ag1 Ag2+ 0.0135(3) 0.0145(3) 0.0211(4) -0.0022(2) 0.0012(3) -0.0023(2)
Ag2 Ag2+ 0.0216(4) 0.0135(3) 0.0175(3) -0.0024(2) 0.0003(3) -0.0006(2)
Ag3 Ag2+ 0.0154(3) 0.0116(2) 0.0200(3) -0.0023(2) 0.0011(2) 0.0012(2)
Ag4 Ag3+ 0.0158(4) 0.0167(3) 0.0172(3) -0.0024(2) 0.0027(3) -0.0002(2)
Ag5 Ag3+ 0.0180(4) 0.0133(3) 0.0181(3) 0.0000(2) 0.0025(3) 0.0012(2)
Ag6 Ag3+ 0.0161(3) 0.0177(2) 0.0181(3) -0.0019(2) 0.0016(2) 0.0011(2)
F1 F1- 0.027(3) 0.023(2) 0.022(2) 0.006(2) 0.003(2) 0.001(2)
F2 F1- 0.028(3) 0.023(2) 0.021(2) 0.002(2) 0.004(2) 0.004(2)
F3 F1- 0.020(2) 0.024(2) 0.030(2) 0.001(2) 0.003(2) -0.008(2)
F4 F1- 0.023(3) 0.032(2) 0.021(2) -0.006(2) 0.001(2) -0.007(2)
F5 F1- 0.027(3) 0.019(2) 0.034(3) -0.006(2) 0.000(2) -0.007(2)
F6 F1- 0.031(3) 0.027(2) 0.024(2) 0.011(2) -0.005(2) 0.002(2)
F7 F1- 0.019(2) 0.025(2) 0.037(3) -0.002(2) 0.003(2) 0.009(2)
F8 F1- 0.024(3) 0.023(2) 0.033(3) -0.011(2) 0.005(2) -0.006(2)
F9 F1- 0.032(3) 0.024(2) 0.027(2) -0.011(2) 0.008(2) -0.004(2)
F10 F1- 0.030(3) 0.026(2) 0.036(3) 0.000(2) 0.004(2) 0.013(2)
#End of data_95832-ICSD


