data_47180-ICSD
#?2014 by Fachinformationszentrum Karlsruhe, and the U.S. Secretary of 
#Commerce on behalf of the United States.  All rights reserved.
_database_code_ICSD                47180
_audit_creation_date               1985/06/13
_audit_update_record               2011/02/01
_chemical_name_systematic
;
Barium Calcium Gallium Heptafluoride
;
_chemical_formula_structural       'Ba Ca Ga F7'
_chemical_formula_sum              'Ba1 Ca1 F7 Ga1'
_publ_section_title
;
Die Kristallstruktur der Verbindungen Ba Ca Ga F7 und Ba Ca Cr F7.
;
loop_
_citation_id
_citation_journal_abbrev
_citation_year
_citation_journal_volume
_citation_page_first
_citation_page_last
_citation_journal_id_ASTM
primary 'Zeitschrift fuer Anorganische und Allgemeine Chemie (1950) (DE)'
 1985 523 89 98 ZAACAB
_publ_author_name                  'Holler, H.;Babel, D.'
_cell_length_a                     5.390(1)
_cell_length_b                     5.410(1)
_cell_length_c                     18.978(3)
_cell_angle_alpha                  90.
_cell_angle_beta                   92.33(1)
_cell_angle_gamma                  90.
_cell_volume                       552.94
_cell_formula_units_Z              4
_symmetry_space_group_name_H-M     'P 1 2/n 1'
_symmetry_Int_Tables_number        13
_refine_ls_R_factor_all            .028
loop_
_symmetry_equiv_pos_site_id
_symmetry_equiv_pos_as_xyz
  1	'x+.5, -y, z+.5'
  2	'-x+.5, y, -z+.5'
  3	'-x, -y, -z'
  4	'x, y, z'
loop_
_atom_type_symbol
_atom_type_oxidation_number
Ba2+	2
Ca2+	2
F1-	-1
Ga3+	3
loop_
_atom_site_label
_atom_site_type_symbol
_atom_site_symmetry_multiplicity
_atom_site_Wyckoff_symbol
_atom_site_fract_x
_atom_site_fract_y
_atom_site_fract_z
_atom_site_occupancy
_atom_site_attached_hydrogens
Ga1 Ga3+ 4 g 0.20244(7) 0.22526(6) 0.38093(2) 1. 0 
Ba1 Ba2+ 4 g 0.24989(4) 0.24081(3) -.06858(1) 1. 0 
Ca1 Ca2+ 2 e 0.75 0.2089(1) 0.75 1. 0 
Ca2 Ca2+ 2 f 0.25 0.6791(2) 0.75 1. 0 
F1 F1- 4 g 0.5909(5) 0.5926(4) 0.5612(1) 1. 0 
F2 F1- 4 g 0.5594(4) 0.8698(4) 0.6831(1) 1. 0 
F3 F1- 4 g 0.0812(4) 0.4894(4) 0.3250(1) 1. 0 
F4 F1- 4 g 0.4213(4) 0.3697(4) 0.6913(1) 1. 0 
F5 F1- 4 g 0.0587(5) 0.7178(4) 0.5582(1) 1. 0 
F6 F1- 4 g 0.0222(4) -.0248(4) 0.6766(1) 1. 0 
F7 F1- 4 g 0.2768(5) -.0550(4) 0.4359(1) 1. 0 

loop_
_atom_site_aniso_label
_atom_site_aniso_type_symbol
_atom_site_aniso_U_11
_atom_site_aniso_U_22
_atom_site_aniso_U_33
_atom_site_aniso_U_12
_atom_site_aniso_U_13
_atom_site_aniso_U_23
Ga1 Ga3+ 0.0072(2) 0.0069(1) 0.0071(2) 0.0002(1) -.0005(1) 0.0001(1)
Ba1 Ba2+ 0.0102(1) 0.0109(1) 0.0088(1) 0.0023(1) -.0007(1) 0.0003(1)
Ca1 Ca2+ 0.0077(4) 0.0069(3) 0.0092(4) 0 -.0012(3) 0
Ca2 Ca2+ 0.0063(4) 0.0081(3) 0.0092(4) 0 -.0008(3) 0
F1 F1- 0.0199(12) 0.0207(10) 0.0122(10) -.0112(9) -.0047(9) -.0016(8)
F2 F1- 0.0114(9) 0.0128(8) 0.0183(11) -.0016(7) 0.0050(8) -.0040(7)
F3 F1- 0.0116(9) 0.0105(8) 0.0138(9) -.0004(7) -.0036(8) 0.0055(7)
F4 F1- 0.0092(9) 0.0131(8) 0.0122(9) 0.0026(7) -.0025(8) -.0032(7)
F5 F1- 0.0128(10) 0.0204(10) 0.0143(10) 0.0041(8) 0.0046(8) -.0001(8)
F6 F1- 0.0102(9) 0.0101(8) 0.0114(9) -.0011(7) -.0015(8) -.0010(7)
F7 F1- 0.0209(12) 0.0132(9) 0.0198(11) 0.0046(8) 0.0003(10) 0.0074(8)
#End of data_47180-ICSD


