data_63029-ICSD
#?2014 by Fachinformationszentrum Karlsruhe, and the U.S. Secretary of 
#Commerce on behalf of the United States.  All rights reserved.
_database_code_ICSD                63029
_audit_creation_date               1989/06/19
_audit_update_record               2007/08/01
_chemical_name_systematic
;
Calcium Bis(dioxouranium) Bis(hydroxotrioxosilicate) Pentahydrate
;
_chemical_formula_structural       'Ca (U O2)2 (Si O3 O H)2 (H2 O)5'
_chemical_formula_sum              'H12 Ca1 O17 Si2 U2'
_chemical_name_mineral             'Uranophane alpha'
_publ_section_title
;
Structure de l'uranophane alpha, Ca (U O2)2 (Si O3 O H)2 (H2 O)5
;
loop_
_citation_id
_citation_journal_abbrev
_citation_year
_citation_journal_volume
_citation_page_first
_citation_page_last
_citation_journal_id_ASTM
primary 'Acta Crystallographica, Section C: Crystal Structure Communications'
 1988 44 421 424 ACSCEE
_publ_author_name                  'Ginderow, D.'
_cell_length_a                     15.909(6)
_cell_length_b                     7.002(3)
_cell_length_c                     6.665(3)
_cell_angle_alpha                  90.
_cell_angle_beta                   97.27(4)
_cell_angle_gamma                  90.
_cell_volume                       736.48
_cell_formula_units_Z              2
_symmetry_space_group_name_H-M     'P 1 21 1'
_symmetry_Int_Tables_number        4
_refine_ls_R_factor_all            .03
loop_
_symmetry_equiv_pos_site_id
_symmetry_equiv_pos_as_xyz
  1	'-x, y+.5, -z'
  2	'x, y, z'
loop_
_atom_type_symbol
_atom_type_oxidation_number
Ca2+	2
H1+	1
O2-	-2
Si4+	4
U6+	6
loop_
_atom_site_label
_atom_site_type_symbol
_atom_site_symmetry_multiplicity
_atom_site_Wyckoff_symbol
_atom_site_fract_x
_atom_site_fract_y
_atom_site_fract_z
_atom_site_occupancy
_atom_site_attached_hydrogens
_atom_site_B_iso_or_equiv
U1 U6+ 2 a 0.00568(3) 0.78217(5) 0.1340(1) 1. 0 0.58(1) 
U2 U6+ 2 a -.50568(3) -.7822(1) -.1340(1) 1. 0 0.58(1) 
Si1 Si4+ 2 a 0.0329(2) 0.2796(6) 0.3405(5) 1. 0 0.8(1) 
Si2 Si4+ 2 a -.5329(2) -.2796(6) -.3405(5) 1. 0 0.8(1) 
O1 O2- 2 a 0.1193(7) 0.8004(18) 0.1393(17) 1. 0 1.5(3) 
O2 O2- 2 a -.6193(7) -.8004(18) -.1393(17) 1. 0 1.5(3) 
O3 O2- 2 a -.1076(6) 0.7612(18) 0.1240(16) 1. 0 1.4(3) 
O4 O2- 2 a -.3924(6) -.7612(18) -.1240(16) 1. 0 1.4(3) 
O5 O2- 2 a 0.0198(7) 0.4592(13) 0.1873(14) 1. 0 1.1(3) 
O6 O2- 2 a -.5198(7) -.4592(13) -.1873(14) 1. 0 1.1(3) 
O7 O2- 2 a 0.0048(8) 0.1064(14) 0.1837(14) 1. 0 1.2(3) 
O8 O2- 2 a -.5048(8) -.1064(14) -.1837(14) 1. 0 1.2(3) 
O9 O2- 2 a -.0213(6) 0.2865(17) 0.5271(12) 1. 0 1.2(2) 
O10 O2- 2 a -.4787(6) -.2865(17) -.5271(12) 1. 0 1.2(2) 
O11 O2- 2 a 0.1338(7) 0.2691(22) 0.4274(18) 1. 0 1.8(4) 
O12 O2- 2 a -.6338(7) -.2691(22) -.4274(18) 1. 0 1.8(4) 
O13 O2- 2 a 0.8190(8) 0.3723(22) 0.3634(23) 1. 0 3.1(5) 
O14 O2- 2 a 0.7438(9) 0.0145(18) 0.2052(31) 1. 0 3.4(6) 
O15 O2- 2 a 0.6869(7) 0.6329(30) 0.5493(17) 1. 0 3.4(6) 
O16 O2- 2 a 0.7431(7) 0.518(2) 0.9517(16) 1. 0 2.2(4) 
O17 O2- 2 a 0.7615(17) 0.0299(54) 0.7653(41) 1. 0 11.3(2) 
Ca1 Ca2+ 2 a 0.7682(1) 0.6837(3) 0.2767(3) 1. 0 1.3(1) 
H1 H1+ 2 a 0.173 0.344 0.391 1. 0 4.0(1) 
H2 H1+ 2 a 0.656 0.343 0.437 1. 0 4.0(1) 
H3 H1+ 2 a 0.875 0.316 0.383 1. 0 4.0(1) 
H4 H1+ 2 a 0.77 0.316 0.303 1. 0 4.0(1) 
H5 H1+ 2 a 0.266 0.477 0.969 1. 0 4.0(1) 
H6 H1+ 2 a 0.68 0.086 0.242 1. 0 4.0(1) 
H7 H1+ 2 a 0.367 0.184 0.445 1. 0 4.0(1) 
H8 H1+ 2 a 0.293 0.093 0.312 1. 0 4.0(1) 
H9 H1+ 2 a 0.797 0.468 0.891 1. 0 4.0(1) 
H10 H1+ 2 a 0.694 0.43 0.943 1. 0 4.0(1) 
H11 H1+ 2 a 0.816 0.109 0.82 1. 0 4.0(1) 
H12 H1+ 2 a 0.711 0.117 0.695 1. 0 4.0(1) 

#End of data_63029-ICSD


