data_425887-ICSD
#?2014 by Fachinformationszentrum Karlsruhe, and the U.S. Secretary of 
#Commerce on behalf of the United States.  All rights reserved.
_database_code_ICSD                425887
_audit_creation_date               2014/02/01
_chemical_name_systematic
;
Hexapotassium Tris(thiosulfate(VI)) Hydrate
;
_chemical_formula_structural       'K6 (S2 O3)3 (H2 O)'
_chemical_formula_sum              'H2 K6 O10 S6'
_publ_section_title
;
Crystal structures of the alkali thiosulfates A2 S2 O3 * nH2O (A/n = 
K/0, K/1/3, Rb/1)
;
loop_
_citation_id
_citation_journal_abbrev
_citation_year
_citation_journal_volume
_citation_journal_issue
_citation_page_first
_citation_page_last
_citation_journal_id_ASTM
primary 'Zeitschrift fuer Naturforschung, B: Chemical Sciences'
 2013 68 4 323 337 ZNBSEN
_publ_author_name
;
Lehner, A.J.;Schindler, L.V.;Roehr, C.
;
_cell_length_a                     9.3827(6)
_cell_length_b                     6.0283(4)
_cell_length_c                     30.960(2)
_cell_angle_alpha                  90.00
_cell_angle_beta                   98.415(6)
_cell_angle_gamma                  90.00
_cell_volume                       1732.3
_cell_formula_units_Z              4
_symmetry_space_group_name_H-M     'P 1 21/c 1'
_symmetry_Int_Tables_number        14
_refine_ls_R_factor_all            .0327
loop_
_symmetry_equiv_pos_site_id
_symmetry_equiv_pos_as_xyz
  1	'x, -y+.5, z+.5'
  2	'-x, -y, -z'
  3	'-x, y+.5, -z+.5'
  4	'x, y, z'
loop_
_atom_type_symbol
_atom_type_oxidation_number
H1+	1
K1+	1
O2-	-2
S2-	-2
S6+	6
loop_
_atom_site_label
_atom_site_type_symbol
_atom_site_symmetry_multiplicity
_atom_site_Wyckoff_symbol
_atom_site_fract_x
_atom_site_fract_y
_atom_site_fract_z
_atom_site_occupancy
_atom_site_attached_hydrogens
_atom_site_U_iso_or_equiv
K1 K1+ 4 e 0.00423(8) 0.18919(13) 0.44700(2) 1 0 0.04091(19) 
K2 K1+ 4 e 0.05587(7) 0.25038(11) 0.15242(2) 1 0 0.03496(17) 
K3 K1+ 4 e 0.25146(7) 0.07936(11) 0.27257(2) 1 0 0.03287(17) 
K4 K1+ 4 e 0.48951(8) 0.10657(13) 0.17318(2) 1 0 0.03870(18) 
K5 K1+ 4 e 0.58648(7) 0.14241(12) 0.40606(2) 1 0 0.03454(17) 
K6 K1+ 4 e 0.69390(9) 0.18129(12) 0.03649(2) 1 0 0.0450(2) 
S1 S6+ 4 e 0.23927(7) 0.36448(11) 0.37375(2) 1 0 0.02039(15) 
S2 S2- 4 e 0.23687(9) 0.03225(12) 0.37946(3) 1 0 0.02821(18) 
O1 O2- 4 e 0.1269(2) 0.4615(3) 0.39634(7) 1 0 0.0314(5) 
O2 O2- 4 e 0.2158(2) 0.4235(4) 0.32742(7) 1 0 0.0350(5) 
O3 O2- 4 e 0.3813(2) 0.4465(3) 0.39412(6) 1 0 0.0292(5) 
S3 S6+ 4 e 0.21856(8) 0.17454(11) 0.05087(2) 1 0 0.02302(15) 
S4 S2- 4 e 0.33525(10) 0.32146(14) 0.00903(3) 1 0 0.0374(2) 
O4 O2- 4 e 0.0685(3) 0.2455(4) 0.03975(9) 1 0 0.0570(7) 
O5 O2- 4 e 0.2307(2) 0.5657(3) 0.54536(7) 1 0 0.0380(5) 
O6 O2- 4 e 0.2765(3) 0.2401(4) 0.09569(7) 1 0 0.0549(7) 
S5 S6+ 4 e 0.34167(7) 0.59292(12) 0.20478(2) 1 0 0.02220(16) 
S6 S2- 4 e 0.17965(9) 0.75492(13) 0.16849(3) 1 0 0.0351(2) 
O7 O2- 4 e 0.2955(2) 0.3654(3) 0.20957(7) 1 0 0.0327(5) 
O8 O2- 4 e 0.5329(2) 0.0978(4) 0.31808(7) 1 0 0.0382(6) 
O9 O2- 4 e 0.6267(2) 0.2019(4) 0.25323(7) 1 0 0.0451(6) 
O10 O2- 4 e 0.0418(3) 0.6959(4) 0.26484(8) 1 0 0.0454(6) 
H1 H1+ 4 e 0.075(4) 0.717(8) 0.2360(7) 1 0 0.089(11) 
H2 H1+ 4 e 0.113(4) 0.588(6) 0.2802(13) 1 0 0.089(11) 

loop_
_atom_site_aniso_label
_atom_site_aniso_type_symbol
_atom_site_aniso_U_11
_atom_site_aniso_U_22
_atom_site_aniso_U_33
_atom_site_aniso_U_12
_atom_site_aniso_U_13
_atom_site_aniso_U_23
K1 K1+ 0.0360(4) 0.0437(5) 0.0456(4) 0.0023(3) 0.0149(3) 0.0069(4)
K2 K1+ 0.0299(4) 0.0289(4) 0.0432(4) 0.0000(3) -0.0041(3) -0.0026(3)
K3 K1+ 0.0361(4) 0.0323(4) 0.0298(4) 0.0025(3) 0.0034(3) -0.0023(3)
K4 K1+ 0.0381(4) 0.0398(4) 0.0382(4) 0.0081(3) 0.0058(3) -0.0105(3)
K5 K1+ 0.0351(4) 0.0350(4) 0.0315(4) 0.0085(3) -0.0018(3) 0.0008(3)
K6 K1+ 0.0771(6) 0.0295(4) 0.0288(4) 0.0024(4) 0.0088(4) 0.0017(3)
S1 S6+ 0.0215(4) 0.0199(4) 0.0200(3) 0.0018(3) 0.0041(3) 0.0015(3)
S2 S2- 0.0310(4) 0.0226(4) 0.0309(4) -0.0021(3) 0.0040(3) 0.0017(3)
O1 O2- 0.0268(12) 0.0339(12) 0.0359(12) 0.0077(9) 0.0126(9) 0.0018(9)
O2 O2- 0.0472(14) 0.0333(12) 0.0243(11) 0.0021(10) 0.0039(10) 0.0063(9)
O3 O2- 0.0245(12) 0.0276(12) 0.0353(12) -0.0020(9) 0.0034(9) -0.0036(9)
S3 S6+ 0.0320(4) 0.0177(3) 0.0197(3) -0.0023(3) 0.0052(3) -0.0010(3)
S4 S2- 0.0539(5) 0.0302(4) 0.0300(4) -0.0064(4) 0.0119(4) 0.0019(3)
O4 O2- 0.0492(16) 0.0560(17) 0.0699(18) 0.0152(13) 0.0221(14) 0.0128(14)
O5 O2- 0.0475(14) 0.0261(12) 0.0418(13) 0.0020(10) 0.0111(11) -0.0003(10)
O6 O2- 0.0843(19) 0.0548(16) 0.0271(13) -0.0313(14) 0.0127(12) -0.0069(11)
S5 S6+ 0.0218(4) 0.0221(4) 0.0226(4) -0.0006(3) 0.0030(3) -0.0011(3)
S6 S2- 0.0345(4) 0.0271(4) 0.0411(5) 0.0073(3) -0.0038(4) 0.0040(3)
O7 O2- 0.0322(12) 0.0215(11) 0.0427(13) -0.0023(9) 0.0003(10) 0.0086(9)
O8 O2- 0.0224(12) 0.0578(15) 0.0365(13) -0.0007(10) 0.0114(9) -0.0110(11)
O9 O2- 0.0519(15) 0.0491(15) 0.0301(12) -0.0094(12) -0.0077(10) 0.0174(11)
O10 O2- 0.0382(14) 0.0456(15) 0.0544(17) 0.0050(11) 0.0132(12) 0.0004(13)
#End of data_425887-ICSD


