data_63489-ICSD
#?2014 by Fachinformationszentrum Karlsruhe, and the U.S. Secretary of 
#Commerce on behalf of the United States.  All rights reserved.
_database_code_ICSD                63489
_audit_creation_date               1992/08/20
_audit_update_record               2012/08/01
_chemical_name_systematic          'Tripotassium Disodium Indate'
_chemical_formula_structural       'K3 Na2 (In O4)'
_chemical_formula_sum              'In1 K3 Na2 O4'
_publ_section_title
;
Ein neuer Typ quaternaerer Oxometallate: K3Na2(InO4)
;
loop_
_citation_id
_citation_journal_abbrev
_citation_year
_citation_journal_volume
_citation_page_first
_citation_page_last
_citation_journal_id_ASTM
primary 'Monatshefte fuer Chemie' 1990 121 853 864 MOCMB7
_publ_author_name                  'Glaum, H.;Hoppe, R.'
_cell_length_a                     10.126
_cell_length_b                     9.699
_cell_length_c                     7.254
_cell_angle_alpha                  90.
_cell_angle_beta                   91.02
_cell_angle_gamma                  90.
_cell_volume                       712.32
_cell_formula_units_Z              4
_symmetry_space_group_name_H-M     'P 1 21/n 1'
_symmetry_Int_Tables_number        14
_refine_ls_R_factor_all            .073
loop_
_symmetry_equiv_pos_site_id
_symmetry_equiv_pos_as_xyz
  1	'-x+.5, y+.5, -z+.5'
  2	'-x, -y, -z'
  3	'x+.5, -y+.5, z+.5'
  4	'x, y, z'
loop_
_atom_type_symbol
_atom_type_oxidation_number
In3+	3
K1+	1
Na1+	1
O2-	-2
loop_
_atom_site_label
_atom_site_type_symbol
_atom_site_symmetry_multiplicity
_atom_site_Wyckoff_symbol
_atom_site_fract_x
_atom_site_fract_y
_atom_site_fract_z
_atom_site_occupancy
_atom_site_attached_hydrogens
In1 In3+ 4 e 0.229 0.8662 0.0242(1) 1. 0 
K1 K1+ 4 e 0.8375(1) 0.2452(1) 0.3963(2) 1. 0 
K2 K1+ 4 e 0.6023(1) 0.3375(1) 0.6733(2) 1. 0 
K3 K1+ 4 e 0.9828(1) 0.4938(1) 0.7633(2) 1. 0 
Na1 Na1+ 4 e 0.7251(2) 0.4330(2) 0.0400(3) 1. 0 
Na2 Na1+ 4 e 0.4918(2) 0.6655(2) 0.7444(3) 1. 0 
O1 O2- 4 e 0.4076(3) 0.2066(3) 0.5133(5) 1. 0 
O2 O2- 4 e 0.0839(3) 0.2878(4) 0.5144(5) 1. 0 
O3 O2- 4 e 0.7098(4) 0.5810(4) 0.8005(5) 1. 0 
O4 O2- 4 e 0.1821(4) 0.0223(4) 0.8435(6) 1. 0 

loop_
_atom_site_aniso_label
_atom_site_aniso_type_symbol
_atom_site_aniso_U_11
_atom_site_aniso_U_22
_atom_site_aniso_U_33
_atom_site_aniso_U_12
_atom_site_aniso_U_13
_atom_site_aniso_U_23
In1 In3+ 0.0090(1) 0.0110(1) 0.0101(1) 0.0001(1) -.0001(1) -.0004(1)
K1 K1+ 0.0174(5) 0.0258(6) 0.0208(6) -.0009(4) -.0013(5) 0.0039(5)
K2 K1+ 0.0337(7) 0.0282(7) 0.0179(6) -.0164(6) -.0052(5) 0.0039(5)
K3 K1+ 0.0235(6) 0.0198(5) 0.0223(6) -.0014(4) -.0020(5) 0.0012(5)
Na1 Na1+ 0.0225(10) 0.0167(9) 0.014(1) 0.0037(9) 0.0001(8) 0.0027(9)
Na2 Na1+ 0.0128(9) 0.0240(12) 0.0163(10) 0.0016(8) 0.0022(8) -.0030(9)
O1 O2- 0.0110(16) 0.0119(16) 0.0192(19) 0.0004(12) -.0001(14) 0.0011(14)
O2 O2- 0.0029(15) 0.0192(18) 0.0174(19) -.0032(13) 0.0001(14) 0.0024(15)
O3 O2- 0.0191(18) 0.0205(18) 0.0140(18) -.0004(14) 0.0005(15) 0.0026(15)
O4 O2- 0.0279(21) 0.0192(19) 0.0160(19) 0.0045(16) -.0013(16) 0.0051(16)
#End of data_63489-ICSD


