data_163379-ICSD
#?2014 by Fachinformationszentrum Karlsruhe, and the U.S. Secretary of 
#Commerce on behalf of the United States.  All rights reserved.
_database_code_ICSD                163379
_audit_creation_date               2009/08/01
_chemical_name_systematic
;
Sodium Potassium Tetrahydridoborate
;
_chemical_formula_structural       'Na K (B H4)2'
_chemical_formula_sum              'H8 B2 K1 Na1'
_publ_section_title
;
Metastability and crystal structure of the bialkali complex metal 
borohydride Na K (B H4)2
;
loop_
_citation_id
_citation_journal_abbrev
_citation_year
_citation_journal_volume
_citation_page_first
_citation_page_last
_citation_journal_id_ASTM
primary 'Journal of Alloys and Compounds' 2009 476 446 450 JALCEU
_publ_author_name
;
Seballos, L.;Zhang Jin Z.;Roennebro, E.;Herberg, J.L.;Majzoub, E.H.
;
_cell_length_a                     4.55711
_cell_length_b                     4.55711
_cell_length_c                     22.24725
_cell_angle_alpha                  90.
_cell_angle_beta                   90.
_cell_angle_gamma                  120.
_cell_volume                       400.12
_cell_formula_units_Z              3
_symmetry_space_group_name_H-M     'R 3 H'
_symmetry_Int_Tables_number        146
loop_
_symmetry_equiv_pos_site_id
_symmetry_equiv_pos_as_xyz
  1	'-x+y, -x, z'
  2	'-y, x-y, z'
  3	'x, y, z'
  4	'-x+y+.6666, -x+.3333, z+.3333'
  5	'-x+y+.3333, -x+.6666, z+.6666'
  6	'-y+.6666, x-y+.3333, z+.3333'
  7	'-y+.3333, x-y+.6666, z+.6666'
  8	'x+.6666, y+.3333, z+.3333'
  9	'x+.3333, y+.6666, z+.6666'
loop_
_atom_type_symbol
_atom_type_oxidation_number
B3+	3
H1-	-1
K1+	1
Na1+	1
loop_
_atom_site_label
_atom_site_type_symbol
_atom_site_symmetry_multiplicity
_atom_site_Wyckoff_symbol
_atom_site_fract_x
_atom_site_fract_y
_atom_site_fract_z
_atom_site_occupancy
_atom_site_attached_hydrogens
H1 H1- 9 b 0.40255 0.08922 0.45477 1. 0 
H2 H1- 3 a 0 0 0.04844 1. 0 
H3 H1- 9 b 0.14545 0.85253 0.61091 1. 0 
H4 H1- 3 a 0 0 0.53710 1. 0 
B1 B3+ 3 a 0 0 0.10374 1. 0 
B2 B3+ 3 a 0 0 0.59207 1. 0 
Na1 Na1+ 3 a 0 0 0.85648 1. 0 
K1 K1+ 3 a 0 0 0.35251 1. 0 

#End of data_163379-ICSD


