data_31338-ICSD
#?2014 by Fachinformationszentrum Karlsruhe, and the U.S. Secretary of 
#Commerce on behalf of the United States.  All rights reserved.
_database_code_ICSD                31338
_audit_creation_date               1983/12/31
_chemical_name_systematic          'Calcium Catena-germanate'
_chemical_formula_structural       'Ca Ge O3'
_chemical_formula_sum              'Ca1 Ge1 O3'
_publ_section_title
;
The crystal structure of Ca Ge O3 Perovskite and the crystal 
chemistry of the Gd Fe O3-type Perovskites
;
loop_
_citation_id
_citation_journal_abbrev
_citation_year
_citation_journal_volume
_citation_page_first
_citation_page_last
_citation_journal_id_ASTM
primary 'American Mineralogist' 1983 68 1189 1198 AMMIAY
_publ_author_name
;
Sasaki, S.;Prewitt, C.T.;Liebermann, R.C.
;
_cell_length_a                     5.2607(6)
_cell_length_b                     5.2688(10)
_cell_length_c                     7.4452(15)
_cell_angle_alpha                  90.
_cell_angle_beta                   90.
_cell_angle_gamma                  90.
_cell_volume                       206.36
_cell_formula_units_Z              4
_symmetry_space_group_name_H-M     'P b n m'
_symmetry_Int_Tables_number        62
_refine_ls_R_factor_all            .035
loop_
_symmetry_equiv_pos_site_id
_symmetry_equiv_pos_as_xyz
  1	'-x+.5, y+.5, z'
  2	'x, y, -z+.5'
  3	'x+.5, -y+.5, z+.5'
  4	'-x, -y, -z'
  5	'x+.5, -y+.5, -z'
  6	'-x, -y, z+.5'
  7	'-x+.5, y+.5, -z+.5'
  8	'x, y, z'
loop_
_atom_type_symbol
_atom_type_oxidation_number
Ca2+	2
Ge4+	4
O2-	-2
loop_
_atom_site_label
_atom_site_type_symbol
_atom_site_symmetry_multiplicity
_atom_site_Wyckoff_symbol
_atom_site_fract_x
_atom_site_fract_y
_atom_site_fract_z
_atom_site_occupancy
_atom_site_attached_hydrogens
Ca1 Ca2+ 4 c -.0051(3) 0.0283(3) 0.25 1. 0 
Ge1 Ge4+ 4 b 0 0.5 0 1. 0 
O1 O2- 4 c 0.0606(9) 0.4916(8) 0.25 1. 0 
O2 O2- 8 d 0.7157(6) 0.2830(6) 0.0320(5) 1. 0 

#End of data_31338-ICSD


