data_300177-ICSD
#?2014 by Fachinformationszentrum Karlsruhe, and the U.S. Secretary of 
#Commerce on behalf of the United States.  All rights reserved.
_database_code_ICSD                300177
_audit_creation_date               1991/07/10
_audit_update_record               1991/10/30
_chemical_name_systematic
;
Pentapotassium Tetraselenidogallate(III)
;
_chemical_formula_structural       'K5 Ga Se4'
_chemical_formula_sum              'Ga1 K5 Se4'
_publ_section_title
;
Crystal structure of pentapotassium tetraselenidogallate(III)
;
loop_
_citation_id
_citation_journal_abbrev
_citation_year
_citation_journal_volume
_citation_page_first
_citation_page_last
_citation_journal_id_ASTM
primary 'Zeitschrift fuer Kristallographie (1979-2010)' 1991 197 163 164 ZEKRDZ
_publ_author_name                  'Eisenmann, B.;Hofmann, A.'
_cell_length_a                     15.665(6)
_cell_length_b                     12.588(5)
_cell_length_c                     12.899(5)
_cell_angle_alpha                  90.
_cell_angle_beta                   90.00(6)
_cell_angle_gamma                  90.
_cell_volume                       2543.57
_cell_formula_units_Z              8
_symmetry_space_group_name_H-M     'P b c a'
_symmetry_Int_Tables_number        61
_refine_ls_R_factor_all            .091
loop_
_symmetry_equiv_pos_site_id
_symmetry_equiv_pos_as_xyz
  1	'x+.5, y, -z+.5'
  2	'x, -y+.5, z+.5'
  3	'-x+.5, y+.5, z'
  4	'-x, -y, -z'
  5	'-x+.5, -y, z+.5'
  6	'-x, y+.5, -z+.5'
  7	'x+.5, -y+.5, -z'
  8	'x, y, z'
loop_
_atom_type_symbol
_atom_type_oxidation_number
Ga3+	3
K1+	1
Se2-	-2
loop_
_atom_site_label
_atom_site_type_symbol
_atom_site_symmetry_multiplicity
_atom_site_Wyckoff_symbol
_atom_site_fract_x
_atom_site_fract_y
_atom_site_fract_z
_atom_site_occupancy
_atom_site_attached_hydrogens
K1 K1+ 8 c 0.2795(4) 0.0521(5) 0.3402(4) 1. 0 
K2 K1+ 8 c 0.0583(4) 0.3858(5) 0.0127(5) 1. 0 
K3 K1+ 8 c 0.1079(4) 0.0595(5) 0.0719(5) 1. 0 
K4 K1+ 8 c 0.2672(4) 0.1784(5) 0.6457(50) 1. 0 
K5 K1+ 8 c 0.9867(5) 0.2737(6) 0.7891(5) 1. 0 
Ga1 Ga3+ 8 c 0.3361(2) 0.1643(2) 0.9346(2) 1. 0 
Se1 Se2- 8 c 0.3221(2) 0.0696(2) 0.0974(2) 1. 0 
Se2 Se2- 8 c 0.4268(1) 0.3193(2) 0.9649(2) 1. 0 
Se3 Se2- 8 c 0.1917(2) 0.2149(2) 0.8847(2) 1. 0 
Se4 Se2- 8 c 0.4090(2) 0.0541(2) 0.8081(2) 1. 0 

#End of data_300177-ICSD


