data_74433-ICSD
#?2014 by Fachinformationszentrum Karlsruhe, and the U.S. Secretary of 
#Commerce on behalf of the United States.  All rights reserved.
_database_code_ICSD                74433
_audit_creation_date               1995/10/17
_audit_update_record               2011/02/01
_chemical_name_systematic
;
Potassium Tecto-vanadatophosphate (1/3/4/17)
;
_chemical_formula_structural       'K (V3 P4 O17)'
_chemical_formula_sum              'K1 O17 P4 V3'
_publ_section_title
;
A new mixed-valence vanadium phosphate with an intersecting tunnel 
structure: KV3P4O17
;
loop_
_citation_id
_citation_journal_abbrev
_citation_year
_citation_journal_volume
_citation_page_first
_citation_page_last
_citation_journal_id_ASTM
primary 'Journal of Solid State Chemistry' 1992 97 131 140 JSSCBI
_publ_author_name
;
Benhamada, L.;Grandin, A.;Borel, M.M.;Leclaire, A.;Raveau, B.
;
_cell_length_a                     7.8654(5)
_cell_length_b                     10.0104(7)
_cell_length_c                     16.2715(8)
_cell_angle_alpha                  90.
_cell_angle_beta                   90.
_cell_angle_gamma                  90.
_cell_volume                       1281.15
_cell_formula_units_Z              4
_symmetry_space_group_name_H-M     'P 21 21 21'
_symmetry_Int_Tables_number        19
_refine_ls_R_factor_all            .053
loop_
_symmetry_equiv_pos_site_id
_symmetry_equiv_pos_as_xyz
  1	'-x, y+.5, -z+.5'
  2	'x+.5, -y+.5, -z'
  3	'-x+.5, -y, z+.5'
  4	'x, y, z'
loop_
_atom_type_symbol
_atom_type_oxidation_number
K1+	1
O2-	-2
P5+	5
V4+	4
V5+	5
loop_
_atom_site_label
_atom_site_type_symbol
_atom_site_symmetry_multiplicity
_atom_site_Wyckoff_symbol
_atom_site_fract_x
_atom_site_fract_y
_atom_site_fract_z
_atom_site_occupancy
_atom_site_attached_hydrogens
_atom_site_B_iso_or_equiv
V1 V4+ 4 a 0.7880(7) 0.3222(4) 0.1529(2) 1. 0 0.91(6) 
V2 V5+ 4 a 0.2910(6) 0.2473(5) 0.4940(3) 1. 0 0.70(6) 
V3 V4+ 4 a 0.2846(7) 0.3185(4) 0.1521(3) 1. 0 0.93(6) 
P1 P5+ 4 a 0.1912(8) 0.6357(5) 0.1860(3) 1. 0 0.22(8) 
P2 P5+ 4 a 0.1997(9) 0.5614(5) 0.4655(3) 1. 0 0.30(8) 
P3 P5+ 4 a 0.1902(9) 0.1368(6) 0.3143(3) 1. 0 0.42(9) 
P4 P5+ 4 a 0.192(1) 0.0607(6) 0.0367(3) 1. 0 0.54(9) 
K1 K1+ 4 a 0.504(1) 0.4553(6) 0.3214(3) 1. 0 1.42(9) 
O1 O2- 4 a 0.998(3) 0.332(1) 0.1631(8) 1. 0 1.0(3) 
O2 O2- 4 a 0.729(2) 0.248(2) 0.2660(9) 1. 0 0.8(3) 
O3 O2- 4 a 0.486(3) 0.312(1) 0.1442(8) 1. 0 0.6(3) 
O4 O2- 4 a 0.760(2) 0.137(2) 0.111(1) 1. 0 0.8(3) 
O5 O2- 4 a 0.717(3) 0.503(2) 0.198(1) 1. 0 1.1(3) 
O6 O2- 4 a 0.777(3) 0.382(2) 0.042(1) 1. 0 1.0(3) 
O7 O2- 4 a 0.313(3) 0.327(2) 0.5958(9) 1. 0 0.7(3) 
O8 O2- 4 a 0.258(2) 0.084(2) 0.552(1) 1. 0 0.8(3) 
O9 O2- 4 a 0.483(3) 0.229(2) 0.464(1) 1. 0 1.4(3) 
O10 O2- 4 a 0.254(2) 0.414(2) 0.447(1) 1. 0 0.8(3) 
O11 O2- 4 a 0.177(2) 0.173(2) 0.406(1) 1. 0 0.6(3) 
O12 O2- 4 a 0.274(3) 0.502(2) 0.200(1) 1. 0 0.8(3) 
O13 O2- 4 a 0.223(3) 0.390(2) 0.040(1) 1. 0 0.9(3) 
O14 O2- 4 a 0.266(2) 0.247(2) 0.265(1) 1. 0 0.6(3) 
O15 O2- 4 a 0.228(2) 0.135(2) 0.115(1) 1. 0 1.2(3) 
O16 O2- 4 a 0.002(3) 0.621(2) 0.2156(9) 1. 0 0.7(3) 
O17 O2- 4 a 0.003(4) 0.560(2) 0.481(1) 1. 0 1.7(3) 

#End of data_74433-ICSD


