data_150355-ICSD
#?2014 by Fachinformationszentrum Karlsruhe, and the U.S. Secretary of 
#Commerce on behalf of the United States.  All rights reserved.
_database_code_ICSD                150355
_audit_creation_date               2006/04/01
_audit_update_record               2013/02/01
_chemical_name_systematic          'Gadolinium Aluminate'
_chemical_formula_structural       'Gd (Al O3)'
_chemical_formula_sum              'Al1 Gd1 O3'
_publ_section_title
;
High-presure structural behavior of Gd Al O3 and Gd Fe O3 perovskites
;
loop_
_citation_id
_citation_journal_abbrev
_citation_year
_citation_journal_volume
_citation_page_first
_citation_page_last
_citation_journal_id_ASTM
primary 'Journal of Steroid Biochemistry' 2004 177 3768 3775 JSTBBK
_publ_author_name                  'Ross, N.L.;Zhao, J.;Angel, R.J.'
_cell_length_a                     5.1999(2)
_cell_length_b                     5.2136(1)
_cell_length_c                     7.3533(1)
_cell_angle_alpha                  90.
_cell_angle_beta                   90.
_cell_angle_gamma                  90.
_cell_volume                       199.35
_cell_formula_units_Z              4
_symmetry_space_group_name_H-M     'P b n m'
_symmetry_Int_Tables_number        62
_refine_ls_R_factor_all            .024
loop_
_symmetry_equiv_pos_site_id
_symmetry_equiv_pos_as_xyz
  1	'-x+.5, y+.5, z'
  2	'x, y, -z+.5'
  3	'x+.5, -y+.5, z+.5'
  4	'-x, -y, -z'
  5	'x+.5, -y+.5, -z'
  6	'-x, -y, z+.5'
  7	'-x+.5, y+.5, -z+.5'
  8	'x, y, z'
loop_
_atom_type_symbol
_atom_type_oxidation_number
Al3+	3
Gd3+	3
O2-	-2
loop_
_atom_site_label
_atom_site_type_symbol
_atom_site_symmetry_multiplicity
_atom_site_Wyckoff_symbol
_atom_site_fract_x
_atom_site_fract_y
_atom_site_fract_z
_atom_site_occupancy
_atom_site_attached_hydrogens
_atom_site_B_iso_or_equiv
Gd1 Gd3+ 4 c -0.00677(8) 0.0316(1) 0.250 1. 0 0.49(2) 
Al1 Al3+ 4 b 0 0.5 0.5 1. 0 0.45(5) 
O1 O2- 4 c 0.070(2) 0.489(1) 0.250 1. 0 0.6(1) 
O2 O2- 8 d 0.7168(7) 0.2833(6) 0.0379(5) 1. 0 0.45(7) 

#End of data_150355-ICSD


