data_10108-ICSD
#?2014 by Fachinformationszentrum Karlsruhe, and the U.S. Secretary of 
#Commerce on behalf of the United States.  All rights reserved.
_database_code_ICSD                10108
_audit_creation_date               1980/01/01
_audit_update_record               1985/04/23
_chemical_name_systematic
;
Potassium Hexatelluroduo-digermanate
;
_chemical_formula_structural       'K6 Ge2 Te6'
_chemical_formula_sum              'Ge2 K6 Te6'
_publ_section_title
;
Die Kristallstrukturen von K6 (Ge2 Te6) und K6 (Sn2 Te6) und ihre 
kristall-chemische Beziehung zum K6 (S Te6) -Typ
;
loop_
_citation_id
_citation_journal_abbrev
_citation_year
_citation_journal_volume
_citation_page_first
_citation_page_last
_citation_journal_id_ASTM
primary 'Zeitschrift fuer Anorganische und Allgemeine Chemie (1950) (DE)'
 1979 453 68 78 ZAACAB
_publ_author_name                  'Dittmar, G.'
_cell_length_a                     16.010(8)
_cell_length_b                     13.619(8)
_cell_length_c                     9.713(5)
_cell_angle_alpha                  90.
_cell_angle_beta                   95.19(5)
_cell_angle_gamma                  90.
_cell_volume                       2109.14
_cell_formula_units_Z              4
_symmetry_space_group_name_H-M     'C 1 2/c 1'
_symmetry_Int_Tables_number        15
_refine_ls_R_factor_all            .068
loop_
_symmetry_equiv_pos_site_id
_symmetry_equiv_pos_as_xyz
  1	'x, -y, z+.5'
  2	'-x, -y, -z'
  3	'-x, y, -z+.5'
  4	'x, y, z'
  5	'x+.5, -y+.5, z+.5'
  6	'-x+.5, -y+.5, -z'
  7	'-x+.5, y+.5, -z+.5'
  8	'x+.5, y+.5, z'
loop_
_atom_type_symbol
_atom_type_oxidation_number
Ge3+	3
K1+	1
Te2-	-2
loop_
_atom_site_label
_atom_site_type_symbol
_atom_site_symmetry_multiplicity
_atom_site_Wyckoff_symbol
_atom_site_fract_x
_atom_site_fract_y
_atom_site_fract_z
_atom_site_occupancy
_atom_site_attached_hydrogens
K1 K1+ 8 f 0.2363(7) 0.0112(6) 0.224(1) 1. 0 
K2 K1+ 8 f 0.5907(7) 0.7809(8) 0.132(1) 1. 0 
K3 K1+ 4 e 0.5 0.0967(9) 0.25 1. 0 
K4 K1+ 4 e 0.5 0.4085(9) 0.25 1. 0 
Ge1 Ge3+ 8 f 0.3216(2) 0.7535(2) 0.9595(4) 1. 0 
Te1 Te2- 8 f 0.3113(2) 0.7424(2) 0.6923(3) 1. 0 
Te2 Te2- 8 f 0.3924(2) 0.9172(2) 0.0378(3) 1. 0 
Te3 Te2- 8 f 0.4098(2) 0.6096(2) 0.0619(3) 1. 0 

loop_
_atom_site_aniso_label
_atom_site_aniso_type_symbol
_atom_site_aniso_U_11
_atom_site_aniso_U_22
_atom_site_aniso_U_33
_atom_site_aniso_U_12
_atom_site_aniso_U_13
_atom_site_aniso_U_23
K1 K1+ 0.032(7) 0.020(5) 0.069(9) -.003(4) 0.029(7) -.014(5)
K2 K1+ 0.013(7) 0.080(8) 0.026(8) 0.006(5) 0.009(6) -.008(5)
K3 K1+ 0.019(9) 0.035(8) 0.022(9) 0 0.022(8) 0
K4 K1+ 0.022(9) 0.027(7) 0.030(9) 0 0.016(8) 0
Ge1 Ge3+ 0.006(2) 0.016(2) 0.011(3) -.001(1) 0.008(2) 0.000(2)
Te1 Te2- 0.006(2) 0.021(1) 0.010(2) 0.000(1) 0.007(1) -.001(1)
Te2 Te2- 0.014(2) 0.022(1) 0.020(2) -.010(1) 0.011(1) -.009(1)
Te3 Te2- 0.012(2) 0.032(2) 0.025(2) 0.012(2) 0.011(2) 0.014(1)
#End of data_10108-ICSD


