data_262563-ICSD
#?2014 by Fachinformationszentrum Karlsruhe, and the U.S. Secretary of 
#Commerce on behalf of the United States.  All rights reserved.
_database_code_ICSD                262563
_audit_creation_date               2012/08/01
_chemical_name_systematic
;
Dipotassium Tripalladium(II) Uranium(IV) Hexasulfide
;
_chemical_formula_structural       'K2 Pd3 U S6'
_chemical_formula_sum              'K2 Pd3 S6 U1'
_publ_section_title
;
Syntheses and characterization of nine quaternary uranium 
chalcogenides among the compounds A2 M3 U Q6 (A = K, Rb, Cs; M = Pd, 
Pt; Q = S, Se)
;
loop_
_citation_id
_citation_journal_abbrev
_citation_year
_citation_journal_volume
_citation_journal_issue
_citation_page_first
_citation_page_last
_citation_journal_id_ASTM
primary 'Inorganic Chemistry' 2012 51 7 4224 4230 INOCAJ
_publ_author_name                  'Oh, G.N.;Choi Eun Sang;Ibers, J.A.'
_cell_length_a                     9.7256(5)
_cell_length_b                     13.8721(6)
_cell_length_c                     16.7541(8)
_cell_angle_alpha                  90.00
_cell_angle_beta                   90.00
_cell_angle_gamma                  90.00
_cell_volume                       2260.37
_cell_formula_units_Z              8
_symmetry_space_group_name_H-M     'F m m m'
_symmetry_Int_Tables_number        69
_refine_ls_R_factor_all            .0501
loop_
_symmetry_equiv_pos_site_id
_symmetry_equiv_pos_as_xyz
  1	'x, y, -z'
  2	'x, -y, z'
  3	'-x, y, z'
  4	'-x, -y, -z'
  5	'-x, -y, z'
  6	'-x, y, -z'
  7	'x, -y, -z'
  8	'x, y, z'
  9	'x, y+.5, -z+.5'
 10	'x+.5, y, -z+.5'
 11	'x+.5, y+.5, -z'
 12	'x, -y+.5, z+.5'
 13	'x+.5, -y, z+.5'
 14	'x+.5, -y+.5, z'
 15	'-x, y+.5, z+.5'
 16	'-x+.5, y, z+.5'
 17	'-x+.5, y+.5, z'
 18	'-x, -y+.5, -z+.5'
 19	'-x+.5, -y, -z+.5'
 20	'-x+.5, -y+.5, -z'
 21	'-x, -y+.5, z+.5'
 22	'-x+.5, -y, z+.5'
 23	'-x+.5, -y+.5, z'
 24	'-x, y+.5, -z+.5'
 25	'-x+.5, y, -z+.5'
 26	'-x+.5, y+.5, -z'
 27	'x, -y+.5, -z+.5'
 28	'x+.5, -y, -z+.5'
 29	'x+.5, -y+.5, -z'
 30	'x, y+.5, z+.5'
 31	'x+.5, y, z+.5'
 32	'x+.5, y+.5, z'
loop_
_atom_type_symbol
_atom_type_oxidation_number
K1+	1
Pd2+	2
S2-	-2
U4+	4
loop_
_atom_site_label
_atom_site_type_symbol
_atom_site_symmetry_multiplicity
_atom_site_Wyckoff_symbol
_atom_site_fract_x
_atom_site_fract_y
_atom_site_fract_z
_atom_site_occupancy
_atom_site_attached_hydrogens
_atom_site_U_iso_or_equiv
U1 U4+ 8 i 0.0000 0.0000 0.16858(3) 1 0 0.0076(2) 
Pd1 Pd2+ 16 n 0.33946(7) 0.0000 0.15674(4) 1 0 0.0065(2) 
Pd2 Pd2+ 8 g 0.17606(9) 0.0000 0.0000 1 0 0.0062(3) 
K1 K1+ 8 f 0.2500 0.2500 0.2500 1 0 0.0083(5) 
K2 K1+ 8 h 0.0000 0.2943(2) 0.0000 1 0 0.0190(6) 
S1 S2- 32 p 0.19179(15) 0.11640(11) 0.10098(10) 1 0 0.0080(3) 
S2 S2- 16 m 0.0000 0.11614(16) 0.30097(13) 1 0 0.0079(4) 

loop_
_atom_site_aniso_label
_atom_site_aniso_type_symbol
_atom_site_aniso_U_11
_atom_site_aniso_U_22
_atom_site_aniso_U_33
_atom_site_aniso_U_12
_atom_site_aniso_U_13
_atom_site_aniso_U_23
U1 U4+ 0.0077(3) 0.0079(3) 0.0072(3) 0.000 0.000 0.000
Pd1 Pd2+ 0.0066(5) 0.0069(5) 0.0059(4) 0.000 -0.0003(2) 0.000
Pd2 Pd2+ 0.0069(5) 0.0060(5) 0.0055(5) 0.000 0.000 0.000
K1 K1+ 0.0098(12) 0.0063(12) 0.0087(13) 0.000 0.000 0.000
K2 K1+ 0.0222(15) 0.0187(15) 0.0162(14) 0.000 0.000 0.000
S1 S2- 0.0088(7) 0.0076(8) 0.0076(7) 0.0006(5) -0.0021(5) -0.0005(6)
S2 S2- 0.0075(10) 0.0076(10) 0.0086(11) 0.000 0.000 0.0003(8)
#End of data_262563-ICSD


