data_31308-ICSD
#?2014 by Fachinformationszentrum Karlsruhe, and the U.S. Secretary of 
#Commerce on behalf of the United States.  All rights reserved.
_database_code_ICSD                31308
_audit_creation_date               1983/12/31
_audit_update_record               1997/11/10
_chemical_name_systematic          'Distrontium Magnesium Disilicate'
_chemical_formula_structural       'Sr2 Mg (Si2 O7)'
_chemical_formula_sum              'Mg1 O7 Si2 Sr2'
_chemical_name_mineral             Akermanite-(Sr)
_publ_section_title
;
The structural properties of synthetic Sr-akermanite, Sr2 Mg Si2 O7
;
loop_
_citation_id
_citation_journal_abbrev
_citation_year
_citation_journal_volume
_citation_page_first
_citation_page_last
_citation_journal_id_ASTM
primary 'Zeitschrift fuer Kristallographie (1979-2010)' 1983 163 295 304 ZEKRDZ
_publ_author_name                  'Kimata, M.'
_cell_length_a                     7.9957(10)
_cell_length_b                     7.9957(10)
_cell_length_c                     5.1521(9)
_cell_angle_alpha                  90.
_cell_angle_beta                   90.
_cell_angle_gamma                  90.
_cell_volume                       329.38
_cell_formula_units_Z              2
_symmetry_space_group_name_H-M     'P -4 21 m'
_symmetry_Int_Tables_number        113
_refine_ls_R_factor_all            .043
loop_
_symmetry_equiv_pos_site_id
_symmetry_equiv_pos_as_xyz
  1	'-y+.5, -x+.5, z'
  2	'y, -x, -z'
  3	'y+.5, x+.5, z'
  4	'-y, x, -z'
  5	'x+.5, -y+.5, -z'
  6	'-x, -y, z'
  7	'-x+.5, y+.5, -z'
  8	'x, y, z'
loop_
_atom_type_symbol
_atom_type_oxidation_number
Mg2+	2
O2-	-2
Si4+	4
Sr2+	2
loop_
_atom_site_label
_atom_site_type_symbol
_atom_site_symmetry_multiplicity
_atom_site_Wyckoff_symbol
_atom_site_fract_x
_atom_site_fract_y
_atom_site_fract_z
_atom_site_occupancy
_atom_site_attached_hydrogens
Sr1 Sr2+ 4 e 0.3345(5) 0.1655 0.5077(1) 1. 0 
Mg1 Mg2+ 2 a 0 0 0 1. 0 
Si1 Si4+ 4 e 0.1387(2) 0.3613 0.9438(4) 1. 0 
O1 O2- 2 c 0.5 0 0.1603(15) 1. 0 
O2 O2- 4 e 0.1396(6) 0.3604 0.2528(10) 1. 0 
O3 O2- 8 f 0.0793(5) 0.1915(5) 0.8034(7) 1. 0 

#End of data_31308-ICSD


