data_38304-ICSD
#?2014 by Fachinformationszentrum Karlsruhe, and the U.S. Secretary of 
#Commerce on behalf of the United States.  All rights reserved.
_database_code_ICSD                38304
_audit_creation_date               1984/12/31
_audit_update_record               2012/08/01
_chemical_name_systematic
;
Dipotassium Tricobalt(II) Dihydroxide Tris(sulfate(VI)) Dihydrate
;
_chemical_formula_structural       'K2 Co3 (O H)2 (S O4)3 (H2 O)2'
_chemical_formula_sum              'H6 Co3 K2 O16 S3'
_publ_section_title
;
Die Kristallstruktur von Dikalium-tricobalt(II)-dihydroxid trisulfat-
dihydrat, K2 Co3 (O H)2 (S O4)3 (H2 O)2
;
loop_
_citation_id
_citation_journal_abbrev
_citation_year
_citation_journal_volume
_citation_page_first
_citation_page_last
_citation_journal_id_ASTM
primary 'Monatshefte fuer Chemie' 1984 115 165 177 MOCMB7
_publ_author_name                  'Effenberger, H.;Langhof, H.'
_cell_length_a                     17.945(4)
_cell_length_b                     7.557(2)
_cell_length_c                     9.760(3)
_cell_angle_alpha                  90.
_cell_angle_beta                   90.
_cell_angle_gamma                  90.
_cell_volume                       1323.56
_cell_formula_units_Z              4
_symmetry_space_group_name_H-M     'C m c 21'
_symmetry_Int_Tables_number        36
_refine_ls_R_factor_all            .025
loop_
_symmetry_equiv_pos_site_id
_symmetry_equiv_pos_as_xyz
  1	'x, -y, z+.5'
  2	'-x, -y, z+.5'
  3	'-x, y, z'
  4	'x, y, z'
  5	'x+.5, -y+.5, z+.5'
  6	'-x+.5, -y+.5, z+.5'
  7	'-x+.5, y+.5, z'
  8	'x+.5, y+.5, z'
loop_
_atom_type_symbol
_atom_type_oxidation_number
Co2+	2
H1+	1
K1+	1
O2-	-2
S6+	6
loop_
_atom_site_label
_atom_site_type_symbol
_atom_site_symmetry_multiplicity
_atom_site_Wyckoff_symbol
_atom_site_fract_x
_atom_site_fract_y
_atom_site_fract_z
_atom_site_occupancy
_atom_site_attached_hydrogens
_atom_site_B_iso_or_equiv
K1 K1+ 8 b 0.1931(1) 0.0448(2) -.2616(2) 1. 0 0 
Co1 Co2+ 4 a 0 0.2001(2) 0 1. 0 0 
Co2 Co2+ 8 b 0.0854(1) 0.4663(1) 0.2828(2) 1. 0 0 
S1 S6+ 8 b 0.1741(1) 0.3045(2) 0.0135(2) 1. 0 0 
O1 O2- 8 b 0.1166(3) 0.1644(7) 0.0083(7) 1. 0 0 
O2 O2- 8 b 0.1750(3) 0.3998(8) -.1177(6) 1. 0 0 
O3 O2- 8 b 0.2461(3) 0.2190(7) 0.0358(6) 1. 0 0 
O4 O2- 8 b 0.1597(3) 0.4259(8) 0.1266(5) 1. 0 0 
S2 S6+ 4 a 0 0.1826(3) -.3206(3) 1. 0 0 
O5 O2- 4 a 0 0.0745(9) -.4456(7) 1. 0 0 
O6 O2- 8 b 0.0668(3) 0.2945(7) -.3216(6) 1. 0 0 
O7 O2- 4 a 0 0.070(1) -.1972(8) 1. 0 0 
O8 O2- 4 a 0 0.3125(10) 0.2000(7) 1. 0 0 
O9 O2- 4 a 0 0.455(1) -.0795(8) 1. 0 0 
O10 O2- 8 b 0.1236(4) 0.2353(9) 0.3882(6) 1. 0 0 
H1 H1+ 4 a 0 0.205(20) 0.236(14) 1. 0 0.50(28) 
H2 H1+ 4 a 0 0.509(18) -.017(16) 1. 0 0.20(31) 
H3 H1+ 8 b 0.100(5) 0.189(12) 0.426(9) 1. 0 0.10(22) 
H4 H1+ 8 b 0.156(6) 0.274(15) 0.441(11) 1. 0 1.10(25) 

#End of data_38304-ICSD


