data_150-ICSD
#?2014 by Fachinformationszentrum Karlsruhe, and the U.S. Secretary of 
#Commerce on behalf of the United States.  All rights reserved.
_database_code_ICSD                150
_audit_creation_date               1980/01/01
_audit_update_record               2009/08/01
_chemical_name_systematic          'Calcium Carbonate'
_chemical_formula_structural       'Ca (C O3)'
_chemical_formula_sum              'C1 Ca1 O3'
_publ_section_title
;
Crystal structure of Ca C O3(II), a high-pressure metastable phase 
calcium carbonate
;
loop_
_citation_id
_citation_journal_abbrev
_citation_year
_citation_journal_volume
_citation_page_first
_citation_page_last
_citation_journal_id_ASTM
primary 'Acta Crystallographica B (24,1968-38,1982)' 1975 31 343 349 ACBCAR
_publ_author_name                  'Merrill, L.;Bassett, W.A.'
_cell_length_a                     6.334(20)
_cell_length_b                     4.948(15)
_cell_length_c                     8.033(25)
_cell_angle_alpha                  90.
_cell_angle_beta                   107.9
_cell_angle_gamma                  90.
_cell_volume                       239.57
_cell_formula_units_Z              4
_symmetry_space_group_name_H-M     'P 1 21/c 1'
_symmetry_Int_Tables_number        14
_refine_ls_R_factor_all            .078
loop_
_symmetry_equiv_pos_site_id
_symmetry_equiv_pos_as_xyz
  1	'x, -y+.5, z+.5'
  2	'-x, -y, -z'
  3	'-x, y+.5, -z+.5'
  4	'x, y, z'
loop_
_atom_type_symbol
_atom_type_oxidation_number
C4+	4
Ca2+	2
O2-	-2
loop_
_atom_site_label
_atom_site_type_symbol
_atom_site_symmetry_multiplicity
_atom_site_Wyckoff_symbol
_atom_site_fract_x
_atom_site_fract_y
_atom_site_fract_z
_atom_site_occupancy
_atom_site_attached_hydrogens
_atom_site_B_iso_or_equiv
Ca1 Ca2+ 4 e 0.234(2) 0.738(2) 0.217(1) 1. 0 0.48 
C1 C4+ 4 e 0.260(8) 0.253(9) 0.504(3) 1. 0 0.93 
O1 O2- 4 e 0.380(7) 0.156(3) 0.637(3) 1. 0 1.5 
O2 O2- 4 e 0.134(7) 0.088(4) 0.381(3) 1. 0 2.13 
O3 O2- 4 e 0.221(6) 0.490(4) 0.467(3) 1. 0 1.31 

#End of data_150-ICSD


