data_426552-ICSD
#?2014 by Fachinformationszentrum Karlsruhe, and the U.S. Secretary of 
#Commerce on behalf of the United States.  All rights reserved.
_database_code_ICSD                426552
_audit_creation_date               2014/08/01
_chemical_name_systematic
;
Tripotassium Trisulfidoantimonate(III)
;
_chemical_formula_structural       'K3 Sb S3'
_chemical_formula_sum              'K3 S3 Sb1'
_publ_section_title
;
New sulfido antimonates of the heavy alkali metals. Synthesis, 
crystal structure and chemical bonding of (K/Rb/Cs)3 Sb S3 and Cs3 Sb 
S4 * H2 O
;
loop_
_citation_id
_citation_journal_abbrev
_citation_year
_citation_journal_volume
_citation_journal_issue
_citation_page_first
_citation_page_last
_citation_journal_id_ASTM
primary 'Zeitschrift fuer Naturforschung, B: Chemical Sciences'
 2013 68 12 1295 1309 ZNBSEN
_publ_author_name
;
Schindler, Lisa V.;Schwarz, Michael;Roehr, Caroline
;
_cell_length_a                     9.4721(7)
_cell_length_b                     9.4721(7)
_cell_length_c                     9.4721(7)
_cell_angle_alpha                  90.
_cell_angle_beta                   90.
_cell_angle_gamma                  90.
_cell_volume                       849.84
_cell_formula_units_Z              4
_symmetry_space_group_name_H-M     'P 21 3'
_symmetry_Int_Tables_number        198
_refine_ls_R_factor_all            .0159
loop_
_symmetry_equiv_pos_site_id
_symmetry_equiv_pos_as_xyz
  1	'-z+.5, -x, y+.5'
  2	'-y+.5, -z, x+.5'
  3	'-x+.5, -y, z+.5'
  4	'-z, x+.5, -y+.5'
  5	'-y, z+.5, -x+.5'
  6	'-x, y+.5, -z+.5'
  7	'z+.5, -x+.5, -y'
  8	'y+.5, -z+.5, -x'
  9	'x+.5, -y+.5, -z'
 10	'z, x, y'
 11	'y, z, x'
 12	'x, y, z'
loop_
_atom_type_symbol
_atom_type_oxidation_number
K1+	1
S2-	-2
Sb3+	3
loop_
_atom_site_label
_atom_site_type_symbol
_atom_site_symmetry_multiplicity
_atom_site_Wyckoff_symbol
_atom_site_fract_x
_atom_site_fract_y
_atom_site_fract_z
_atom_site_occupancy
_atom_site_attached_hydrogens
_atom_site_U_iso_or_equiv
K1 K1+ 4 a 0.05951(8) 0.05951(8) 0.05951(8) 1 0 0.0261(3) 
K2 K1+ 4 a 0.56432(9) 0.56432(9) 0.56432(9) 1 0 0.0281(3) 
K3 K1+ 4 a 0.82207(10) 0.82207(10) 0.82207(10) 1 0 0.0395(4) 
Sb1 Sb3+ 4 a 0.27877(2) 0.27877(2) 0.27877(2) 1 0 0.02401(11) 
S1 S2- 12 b 0.03425(9) 0.25413(9) 0.34830(9) 1 0 0.02698(19) 

loop_
_atom_site_aniso_label
_atom_site_aniso_type_symbol
_atom_site_aniso_U_11
_atom_site_aniso_U_22
_atom_site_aniso_U_33
_atom_site_aniso_U_12
_atom_site_aniso_U_13
_atom_site_aniso_U_23
K1 K1+ 0.0261(3) 0.0261(3) 0.0261(3) -0.0013(3) -0.0013(3) -0.0013(3)
K2 K1+ 0.0281(3) 0.0281(3) 0.0281(3) 0.0028(3) 0.0028(3) 0.0028(3)
K3 K1+ 0.0395(4) 0.0395(4) 0.0395(4) -0.0020(3) -0.0020(3) -0.0020(3)
Sb1 Sb3+ 0.02401(11) 0.02401(11) 0.02401(11) -0.00233(8) -0.00233(8) 
-0.00233(8)
S1 S2- 0.0287(4) 0.0240(4) 0.0283(4) 0.0040(3) 0.0066(3) 0.0004(3)
#End of data_426552-ICSD


