data_39418-ICSD
#?2014 by Fachinformationszentrum Karlsruhe, and the U.S. Secretary of 
#Commerce on behalf of the United States.  All rights reserved.
_database_code_ICSD                39418
_audit_creation_date               1992/01/20
_chemical_name_systematic          'Lead Zinc Divanadate'
_chemical_formula_structural       'Pb Zn V2 O7'
_chemical_formula_sum              'O7 Pb1 V2 Zn1'
_publ_section_title
;
Crystal structure of double pseudopyrovanadates PbM'V2O7 (M'=Mg,Zn)
;
loop_
_citation_id
_citation_journal_abbrev
_citation_year
_citation_journal_volume
_citation_page_first
_citation_page_last
_citation_journal_id_ASTM
primary Kristallografiya 1991 36 617 621 KRISAJ
2 'Soviet Physics, Crystallography (= Kristallografiya)'
 1991 36 340 342 SPHCA6
_publ_author_name
;
Murashova, E.V.;Velikodnyi, Yu.A.;Trunov, V.K.
;
_cell_length_a                     6.911(2)
_cell_length_b                     14.853(2)
_cell_length_c                     11.338(2)
_cell_angle_alpha                  90.
_cell_angle_beta                   99.51(1)
_cell_angle_gamma                  90.
_cell_volume                       1147.84
_cell_formula_units_Z              8
_symmetry_space_group_name_H-M     'P 1 21/c 1'
_symmetry_Int_Tables_number        14
_refine_ls_R_factor_all            .058
loop_
_symmetry_equiv_pos_site_id
_symmetry_equiv_pos_as_xyz
  1	'x, -y+.5, z+.5'
  2	'-x, -y, -z'
  3	'-x, y+.5, -z+.5'
  4	'x, y, z'
loop_
_atom_type_symbol
_atom_type_oxidation_number
O2-	-2
Pb2+	2
V5+	5
Zn2+	2
loop_
_atom_site_label
_atom_site_type_symbol
_atom_site_symmetry_multiplicity
_atom_site_Wyckoff_symbol
_atom_site_fract_x
_atom_site_fract_y
_atom_site_fract_z
_atom_site_occupancy
_atom_site_attached_hydrogens
_atom_site_B_iso_or_equiv
Pb1 Pb2+ 4 e 0.6558(2) 0.12688(7) 0.0218(1) 1. 0 1.30(2) 
Pb2 Pb2+ 4 e 0.9209(2) 0.01317(7) 0.7573(1) 1. 0 1.24(2) 
Zn1 Zn2+ 4 e 0.3487(5) 0.1723(2) 0.4221(3) 1. 0 1.00(5) 
Zn2 Zn2+ 4 e -.0093(5) 0.2537(2) 0.2507(3) 1. 0 0.99(5) 
V1 V5+ 4 e 0.4807(7) 0.2027(3) 0.6996(4) 1. 0 0.93(8) 
V2 V5+ 4 e 0.4092(6) 0.0135(3) 0.6784(4) 1. 0 0.90(7) 
V3 V5+ 4 e 0.1301(6) -.1381(3) 0.5190(4) 1. 0 0.75(7) 
V4 V5+ 4 e 0.1509(7) 0.3627(3) 0.5198(4) 1. 0 0.84(7) 
O1 O2- 4 e 0.574(2) 0.103(1) 0.782(2) 1. 0 1.3(4) 
O2 O2- 4 e 0.311(3) 0.245(1) 0.779(2) 1. 0 1.1(3) 
O3 O2- 4 e 0.344(3) 0.284(1) 0.541(2) 1. 0 1.1(3) 
O4 O2- 4 e 0.680(3) 0.269(1) 0.703(2) 1. 0 1.6(4) 
O5 O2- 4 e 0.390(3) 0.117(1) 0.588(2) 1. 0 0.9(3) 
O6 O2- 4 e 0.588(3) -.060(1) 0.671(2) 1. 0 1.4(4) 
O7 O2- 4 e 0.222(3) -.029(1) 0.548(2) 1. 0 1.5(4) 
O8 O2- 4 e 0.284(3) -.012(1) 0.785(1) 1. 0 1.8(4) 
O9 O2- 4 e -.039(2) -.160(1) 0.611(2) 1. 0 0.9(3) 
O10 O2- 4 e 0.033(3) -.143(1) 0.308(2) 1. 0 1.2(3) 
O11 O2- 4 e 0.317(3) -.209(1) 0.543(2) 1. 0 1.0(3) 
O12 O2- 4 e 0.001(2) 0.359(1) 0.384(2) 1. 0 1.1(3) 
O13 O2- 4 e 0.006(3) 0.348(1) 0.625(2) 1. 0 1.1(3) 
O14 O2- 4 e 0.238(3) 0.465(1) 0.542(2) 1. 0 2.0(4) 

#End of data_39418-ICSD


