data_413760-ICSD
#?2014 by Fachinformationszentrum Karlsruhe, and the U.S. Secretary of 
#Commerce on behalf of the United States.  All rights reserved.
_database_code_ICSD                413760
_audit_creation_date               2005/10/01
_audit_update_record               2014/08/01
_chemical_name_systematic
;
Tetrasodium Bis(triphosphimato(V))cobaltate Dodecahydrate
;
_chemical_formula_structural       'Na4 (Co ((P O2 N H)3)2) (H2 O)12'
_chemical_formula_sum              'H30 Co1 N6 Na4 O24 P6'
_publ_section_title
;
Synthesis, crystal structures and properties of the bis-
(trimetaphosphimato)-metallates Na4 (Co ((P O2 N)3)2).12H2 O and Na4 
(Ni ((P O2 N H)3)2).12H2 O
;
loop_
_citation_id
_citation_journal_abbrev
_citation_year
_citation_journal_volume
_citation_page_first
_citation_page_last
_citation_journal_id_ASTM
primary 'Solid State Sciences' 2004 6 953 965 SSSCFJ
_publ_author_name                  'Correll, S.;Stock, N.;Schnick, W.'
_cell_length_a                     8.871(2)
_cell_length_b                     19.001(4)
_cell_length_c                     17.072(3)
_cell_angle_alpha                  90.00
_cell_angle_beta                   104.59(2)
_cell_angle_gamma                  90.00
_cell_volume                       2784.83
_cell_formula_units_Z              4
_symmetry_space_group_name_H-M     'P 1 21/n 1'
_symmetry_Int_Tables_number        14
_refine_ls_R_factor_all            .0538
loop_
_symmetry_equiv_pos_site_id
_symmetry_equiv_pos_as_xyz
  1	'-x+.5, y+.5, -z+.5'
  2	'-x, -y, -z'
  3	'x+.5, -y+.5, z+.5'
  4	'x, y, z'
loop_
_atom_type_symbol
_atom_type_oxidation_number
Co2+	2
H1+	1
N3-	-3
Na1+	1
O2-	-2
P5+	5
loop_
_atom_site_label
_atom_site_type_symbol
_atom_site_symmetry_multiplicity
_atom_site_Wyckoff_symbol
_atom_site_fract_x
_atom_site_fract_y
_atom_site_fract_z
_atom_site_occupancy
_atom_site_attached_hydrogens
_atom_site_U_iso_or_equiv
Co1 Co2+ 2 a 0.0000 0.0000 0.0000 1 0 0.00834(12) 
Co2 Co2+ 2 b 0.5000 0.5000 0.0000 1 0 0.00716(12) 
Na1 Na1+ 4 e 0.33158(15) 0.02361(7) -0.07299(8) 1 0 0.0238(3) 
Na2 Na1+ 4 e 0.82214(13) 0.52621(6) -0.06332(7) 1 0 0.0137(2) 
Na3 Na1+ 4 e -0.01466(12) 0.64354(6) -0.24950(7) 1 0 0.0139(2) 
Na4 Na1+ 4 e 0.56607(13) 0.45591(6) 0.19582(7) 1 0 0.0146(2) 
P1 P5+ 4 e 0.09330(8) 0.15524(4) -0.04329(4) 1 0 0.00816(15) 
P2 P5+ 4 e -0.18072(8) 0.14068(4) 0.01895(4) 1 0 0.00843(15) 
P3 P5+ 4 e 0.12717(8) 0.12500(4) 0.12649(4) 1 0 0.00862(15) 
P4 P5+ 4 e 0.57690(7) 0.65913(4) -0.04226(4) 1 0 0.00735(15) 
P5 P5+ 4 e 0.30099(7) 0.63854(4) 0.01576(4) 1 0 0.00779(15) 
P6 P5+ 4 e 0.60576(8) 0.62568(4) 0.12576(4) 1 0 0.00777(15) 
N1 N3- 4 e -0.0906(3) 0.18037(12) -0.04538(13) 1 0 0.0091(4) 
H1 H1+ 4 e -0.0958 0.2218 -0.0403 1 0 0.011 
N2 N3- 4 e -0.0588(3) 0.15190(12) 0.11117(14) 1 0 0.0108(5) 
H2 H1+ 4 e -0.0764 0.1894 0.1359 1 0 0.013 
N3 N3- 4 e 0.1961(2) 0.16307(12) 0.05333(13) 1 0 0.0093(4) 
H3 H1+ 4 e 0.2394 0.2026 0.0664 1 0 0.011 
N4 N3- 4 e 0.3899(2) 0.68058(12) -0.04729(13) 1 0 0.0084(4) 
H4 H1+ 4 e 0.3788 0.7231 -0.0383 1 0 0.010 
N5 N3- 4 e 0.4177(3) 0.64844(12) 0.10932(14) 1 0 0.0097(4) 
H5 H1+ 4 e 0.4006 0.6851 0.1329 1 0 0.012 
N6 N3- 4 e 0.6732(3) 0.66709(12) 0.05454(13) 1 0 0.0092(4) 
H6 H1+ 4 e 0.7155 0.7057 0.0645 1 0 0.011 
O1 O2- 4 e 0.0867(2) 0.07827(10) -0.06447(12) 1 0 0.0103(4) 
O2 O2- 4 e 0.1581(2) 0.20364(10) -0.09555(12) 1 0 0.0120(4) 
O3 O2- 4 e -0.1902(2) 0.06316(10) -0.00012(12) 1 0 0.0117(4) 
O4 O2- 4 e -0.3319(2) 0.17672(10) 0.01577(12) 1 0 0.0123(4) 
O5 O2- 4 e 0.1187(2) 0.04691(10) 0.10979(12) 1 0 0.0118(4) 
O6 O2- 4 e 0.2214(2) 0.14862(10) 0.20732(11) 1 0 0.0126(4) 
O7 O2- 4 e 0.5766(2) 0.58220(10) -0.06460(11) 1 0 0.0084(4) 
O8 O2- 4 e 0.6406(2) 0.70911(10) -0.09351(12) 1 0 0.0109(4) 
O9 O2- 4 e 0.2969(2) 0.56129(10) -0.00588(11) 1 0 0.0097(4) 
O10 O2- 4 e 0.1482(2) 0.67353(10) 0.01190(12) 1 0 0.0110(4) 
O11 O2- 4 e 0.6064(2) 0.54809(10) 0.10785(11) 1 0 0.0095(4) 
O12 O2- 4 e 0.6934(2) 0.64942(10) 0.20773(11) 1 0 0.0121(4) 
O13 O2- 4 e 0.4282(2) 0.13427(12) -0.12396(13) 1 0 0.0200(5) 
H7 H1+ 4 e 0.4963 0.1498 -0.0839 1 0 0.024 
H8 H1+ 4 e 0.3580 0.1660 -0.1212 1 0 0.024 
O14 O2- 4 e 0.5204(3) -0.06623(15) -0.05638(16) 1 0 0.0336(6) 
H9 H1+ 4 e 0.4622 -0.1061 -0.0479 1 0 0.040 
H10 H1+ 4 e 0.5911 -0.0786 -0.0764 1 0 0.040 
O15 O2- 4 e 0.6642(3) 0.52273(13) 0.31126(13) 1 0 0.0241(5) 
H11 H1+ 4 e 0.6891 0.5635 0.2956 1 0 0.029 
H12 H1+ 4 e 0.5802 0.5326 0.3343 1 0 0.029 
O16 O2- 4 e 0.9032(2) 0.63712(11) -0.12139(12) 1 0 0.0152(4) 
H13 H1+ 4 e 0.9781 0.6523 -0.0774 1 0 0.018 
H14 H1+ 4 e 0.8191 0.6626 -0.1221 1 0 0.018 
O17 O2- 4 e 0.9858(2) 0.56236(11) 0.06224(12) 1 0 0.0150(4) 
H15 H1+ 4 e 1.0287 0.6020 0.0532 1 0 0.018 
H16 H1+ 4 e 0.9644 0.5709 0.1048 1 0 0.018 
O18 O2- 4 e 0.6825(2) 0.48700(11) -0.19131(13) 1 0 0.0170(4) 
H17 H1+ 4 e 0.6866 0.4397 -0.2025 1 0 0.020 
H18 H1+ 4 e 0.7266 0.5050 -0.2278 1 0 0.020 
O19 O2- 4 e 0.1646(2) 0.73366(11) -0.20215(12) 1 0 0.0168(4) 
H19 H1+ 4 e 0.1925 0.7691 -0.2258 1 0 0.020 
H20 H1+ 4 e 0.2397 0.7188 -0.1764 1 0 0.020 
O20 O2- 4 e -0.1848(2) 0.73853(11) -0.29947(12) 1 0 0.0159(4) 
H21 H1+ 4 e -0.2019 0.7708 -0.2640 1 0 0.019 
H22 H1+ 4 e -0.2692 0.7260 -0.3282 1 0 0.019 
O21 O2- 4 e 0.7643(3) 0.57406(12) -0.30351(14) 1 0 0.0247(5) 
H23 H1+ 4 e 0.7232 0.5532 -0.3512 1 0 0.030 
H24 H1+ 4 e 0.6869 0.6006 -0.2941 1 0 0.030 
O22 O2- 4 e 0.1608(2) 0.55575(11) -0.18609(13) 1 0 0.0178(4) 
H25 H1+ 4 e 0.1127 0.5149 -0.2022 1 0 0.021 
H26 H1+ 4 e 0.1867 0.5562 -0.1335 1 0 0.021 
O23 O2- 4 e 0.4942(3) 0.34905(13) 0.25014(14) 1 0 0.0256(5) 
H27 H1+ 4 e 0.4460 0.3197 0.2096 1 0 0.031 
H28 H1+ 4 e 0.5477 0.3199 0.2913 1 0 0.031 
O24 O2- 4 e 0.9817(3) 0.58360(13) 0.22749(16) 1 0 0.0281(6) 
H29 H1+ 4 e 1.0750 0.6056 0.2544 1 0 0.034 
H30 H1+ 4 e 0.9113 0.6087 0.2285 1 0 0.034 

loop_
_atom_site_aniso_label
_atom_site_aniso_type_symbol
_atom_site_aniso_U_11
_atom_site_aniso_U_22
_atom_site_aniso_U_33
_atom_site_aniso_U_12
_atom_site_aniso_U_13
_atom_site_aniso_U_23
Co1 Co2+ 0.0088(2) 0.0065(2) 0.0097(3) -0.00024(18) 0.00255(19) 0.00018(19)
Co2 Co2+ 0.0074(2) 0.0067(2) 0.0079(2) -0.00010(18) 0.00286(18) 
-0.00039(18)
Na1 Na1+ 0.0193(6) 0.0199(7) 0.0301(7) 0.0001(5) 0.0025(5) 0.0016(6)
Na2 Na1+ 0.0104(5) 0.0130(6) 0.0180(6) 0.0000(4) 0.0039(4) 0.0005(4)
Na3 Na1+ 0.0126(5) 0.0131(6) 0.0159(6) -0.0001(4) 0.0035(4) 0.0001(4)
Na4 Na1+ 0.0153(5) 0.0157(6) 0.0127(5) -0.0014(4) 0.0034(4) 0.0003(5)
P1 P5+ 0.0094(3) 0.0067(3) 0.0090(3) -0.0010(2) 0.0034(2) 0.0000(2)
P2 P5+ 0.0070(3) 0.0070(3) 0.0116(3) 0.0001(2) 0.0027(2) 0.0003(2)
P3 P5+ 0.0086(3) 0.0084(3) 0.0088(3) -0.0003(2) 0.0022(2) 0.0000(2)
P4 P5+ 0.0072(3) 0.0068(3) 0.0087(3) -0.0007(2) 0.0033(2) -0.0004(2)
P5 P5+ 0.0064(3) 0.0073(3) 0.0103(3) 0.0001(2) 0.0032(2) -0.0008(2)
P6 P5+ 0.0078(3) 0.0079(3) 0.0079(3) 0.0002(2) 0.0024(2) -0.0010(2)
N1 N3- 0.0110(10) 0.0053(10) 0.0111(11) 0.0006(8) 0.0032(8) 0.0014(8)
N2 N3- 0.0098(10) 0.0113(11) 0.0115(11) 0.0002(9) 0.0030(9) -0.0012(9)
N3 N3- 0.0083(10) 0.0104(11) 0.0093(11) -0.0016(8) 0.0024(8) -0.0003(9)
N4 N3- 0.0081(10) 0.0056(10) 0.0117(11) 0.0004(8) 0.0027(8) 0.0001(8)
N5 N3- 0.0096(10) 0.0097(11) 0.0105(11) 0.0012(8) 0.0036(8) -0.0021(9)
N6 N3- 0.0101(10) 0.0070(10) 0.0111(11) -0.0041(8) 0.0037(8) -0.0021(8)
O1 O2- 0.0129(9) 0.0073(9) 0.0118(9) -0.0010(7) 0.0051(7) -0.0010(7)
O2 O2- 0.0150(9) 0.0102(10) 0.0120(9) -0.0037(8) 0.0061(7) 0.0005(8)
O3 O2- 0.0094(9) 0.0083(9) 0.0168(10) 0.0003(7) 0.0022(7) -0.0007(8)
O4 O2- 0.0077(9) 0.0100(10) 0.0192(10) 0.0000(7) 0.0035(7) -0.0015(8)
O5 O2- 0.0150(9) 0.0066(9) 0.0119(9) 0.0006(7) -0.0002(7) -0.0004(7)
O6 O2- 0.0131(9) 0.0131(10) 0.0104(10) -0.0006(8) 0.0006(7) -0.0004(8)
O7 O2- 0.0097(8) 0.0076(9) 0.0094(9) -0.0005(7) 0.0052(7) 0.0001(7)
O8 O2- 0.0117(9) 0.0097(9) 0.0127(9) -0.0015(7) 0.0060(7) 0.0020(7)
O9 O2- 0.0085(8) 0.0091(9) 0.0119(9) -0.0009(7) 0.0031(7) -0.0008(7)
O10 O2- 0.0079(9) 0.0101(9) 0.0155(10) 0.0012(7) 0.0039(7) -0.0008(8)
O11 O2- 0.0121(9) 0.0070(9) 0.0098(9) 0.0009(7) 0.0033(7) 0.0005(7)
O12 O2- 0.0116(9) 0.0141(10) 0.0097(9) 0.0012(7) 0.0010(7) -0.0033(7)
O13 O2- 0.0123(10) 0.0292(13) 0.0182(11) 0.0028(9) 0.0032(8) -0.0006(9)
O14 O2- 0.0278(13) 0.0433(16) 0.0350(14) 0.0065(12) 0.0177(11) 0.0011(12)
O15 O2- 0.0253(12) 0.0279(13) 0.0200(11) 0.0019(10) 0.0077(9) -0.0076(10)
O16 O2- 0.0115(9) 0.0201(11) 0.0148(10) 0.0009(8) 0.0046(8) -0.0006(8)
O17 O2- 0.0170(10) 0.0139(10) 0.0162(10) -0.0020(8) 0.0081(8) -0.0017(8)
O18 O2- 0.0186(10) 0.0157(11) 0.0181(10) 0.0018(8) 0.0073(8) -0.0004(8)
O19 O2- 0.0156(10) 0.0153(10) 0.0171(11) -0.0006(8) -0.0004(8) 0.0040(8)
O20 O2- 0.0163(10) 0.0150(10) 0.0148(10) -0.0006(8) 0.0009(8) -0.0018(8)
O21 O2- 0.0237(12) 0.0243(12) 0.0242(12) -0.0056(10) 0.0027(10) -0.0019(10)
O22 O2- 0.0189(10) 0.0174(11) 0.0179(11) 0.0054(8) 0.0062(8) 0.0026(9)
O23 O2- 0.0345(13) 0.0208(12) 0.0174(11) -0.0045(10) -0.0010(10) 0.0032(9)
O24 O2- 0.0139(10) 0.0266(13) 0.0431(15) 0.0032(9) 0.0056(10) -0.0068(11)
#End of data_413760-ICSD


