data_16937-ICSD
#?2014 by Fachinformationszentrum Karlsruhe, and the U.S. Secretary of 
#Commerce on behalf of the United States.  All rights reserved.
_database_code_ICSD                16937
_audit_creation_date               1980/01/01
_audit_update_record               1987/04/16
_chemical_name_systematic          'Zinc Tellurium Oxide'
_chemical_formula_structural       'Zn Te O3'
_chemical_formula_sum              'O3 Te1 Zn1'
_publ_section_title
;
Zinktellurit: Kristallstruktur und Beziehungen zu einigen Seleniten
;
loop_
_citation_id
_citation_journal_abbrev
_citation_year
_citation_journal_volume
_citation_page_first
_citation_page_last
_citation_journal_id_ASTM
primary Naturwissenschaften 1967 54 199 199 NATWAY
_publ_author_name                  'Hanke, K.'
_cell_length_a                     7.36
_cell_length_b                     6.38
_cell_length_c                     12.32
_cell_angle_alpha                  90.
_cell_angle_beta                   90.
_cell_angle_gamma                  90.
_cell_volume                       578.51
_cell_formula_units_Z              8
_symmetry_space_group_name_H-M     'P b c a'
_symmetry_Int_Tables_number        61
_refine_ls_R_factor_all            .07
loop_
_symmetry_equiv_pos_site_id
_symmetry_equiv_pos_as_xyz
  1	'x+.5, y, -z+.5'
  2	'x, -y+.5, z+.5'
  3	'-x+.5, y+.5, z'
  4	'-x, -y, -z'
  5	'-x+.5, -y, z+.5'
  6	'-x, y+.5, -z+.5'
  7	'x+.5, -y+.5, -z'
  8	'x, y, z'
loop_
_atom_type_symbol
_atom_type_oxidation_number
O2-	-2
Te4+	4
Zn2+	2
loop_
_atom_site_label
_atom_site_type_symbol
_atom_site_symmetry_multiplicity
_atom_site_Wyckoff_symbol
_atom_site_fract_x
_atom_site_fract_y
_atom_site_fract_z
_atom_site_occupancy
_atom_site_attached_hydrogens
Zn1 Zn2+ 8 c 0.1097 0.1218 0.4095 1. 0 
Te1 Te4+ 8 c 0.0627 0.0926 0.1435 1. 0 
O1 O2- 8 c 0.4728 0.1999 0.2246 1. 0 
O2 O2- 8 c 0.039 0.3429 0.0671 1. 0 
O3 O2- 8 c 0.1562 0.4739 0.4093 1. 0 

#End of data_16937-ICSD


