data_73212-ICSD
#?2014 by Fachinformationszentrum Karlsruhe, and the U.S. Secretary of 
#Commerce on behalf of the United States.  All rights reserved.
_database_code_ICSD                73212
_audit_creation_date               1994/06/30
_audit_update_record               2013/08/01
_chemical_name_systematic          'Tripotassium Cobalt(I) Oxide'
_chemical_formula_structural       'K3 Co O2'
_chemical_formula_sum              'Co1 K3 O2'
_publ_section_title
;
Zur Existenz polynaerer Oxide der Alkalimetalle mit einwertigem 
Cobalt bzw. Nickel
;
loop_
_citation_id
_citation_journal_abbrev
_citation_year
_citation_journal_volume
_citation_page_first
_citation_page_last
_citation_journal_id_ASTM
primary 'Zeitschrift fuer Anorganische und Allgemeine Chemie (1950) (DE)'
 1993 619 923 933 ZAACAB
_publ_author_name
;
Burow, W.;Birx, J.;Bernhardt, F.;Hoppe, R.
;
_cell_length_a                     11.890(3)
_cell_length_b                     7.285(1)
_cell_length_c                     6.041(1)
_cell_angle_alpha                  90.
_cell_angle_beta                   90.
_cell_angle_gamma                  90.
_cell_volume                       523.26
_cell_formula_units_Z              4
_symmetry_space_group_name_H-M     'P n m a'
_symmetry_Int_Tables_number        62
_refine_ls_R_factor_all            .05
loop_
_symmetry_equiv_pos_site_id
_symmetry_equiv_pos_as_xyz
  1	'x+.5, y, -z+.5'
  2	'x, -y+.5, z'
  3	'-x+.5, y+.5, z+.5'
  4	'-x, -y, -z'
  5	'-x+.5, -y, z+.5'
  6	'-x, y+.5, -z'
  7	'x+.5, -y+.5, -z+.5'
  8	'x, y, z'
loop_
_atom_type_symbol
_atom_type_oxidation_number
Co1+	1
K1+	1
O2-	-2
loop_
_atom_site_label
_atom_site_type_symbol
_atom_site_symmetry_multiplicity
_atom_site_Wyckoff_symbol
_atom_site_fract_x
_atom_site_fract_y
_atom_site_fract_z
_atom_site_occupancy
_atom_site_attached_hydrogens
Co1 Co1+ 4 c 0.1180(1) 0.75 0.1747(1) 1. 0 
K1 K1+ 8 d 0.3605(1) 0 0.1646(2) 1. 0 
K2 K1+ 4 c 0.5941(1) 0.25 0.2784(2) 1. 0 
O1 O2- 4 c 0.7170(3) 0.75 0.5417(7) 1. 0 
O2 O2- 4 c 0.5266(3) 0.75 0.0981(7) 1. 0 

loop_
_atom_site_aniso_label
_atom_site_aniso_type_symbol
_atom_site_aniso_U_11
_atom_site_aniso_U_22
_atom_site_aniso_U_33
_atom_site_aniso_U_12
_atom_site_aniso_U_13
_atom_site_aniso_U_23
Co1 Co1+ 0.0166(3) 0.0189(3) 0.0202(3) 0 0.0005(2) 0
K1 K1+ 0.0246(4) 0.0227(4) 0.0299(4) -.0012(3) 0.0030(3) -.0031(3)
K2 K1+ 0.0283(6) 0.0640(11) 0.0282(6) 0 0.0015(5) 0
O1 O2- 0.0221(17) 0.0332(21) 0.0253(19) 0 -.0022(15) 0
O2 O2- 0.0219(18) 0.0367(22) 0.0309(21) 0 -.0070(16) 0
#End of data_73212-ICSD


