data_170194-ICSD
#?2014 by Fachinformationszentrum Karlsruhe, and the U.S. Secretary of 
#Commerce on behalf of the United States.  All rights reserved.
_database_code_ICSD                170194
_audit_creation_date               2006/04/01
_chemical_name_systematic          'Cesium Yttrium Zinc Trirelluride'
_chemical_formula_structural       'Cs Y Zn Te3'
_chemical_formula_sum              'Cs1 Te3 Y1 Zn1'
_publ_section_title
;
Syntheses, structure, some band gaps, and electronic structures of Cs 
Ln Zn Te3 (Ln = La, Pr, Nd, Sm, Gd, Tb, Dy, Ho, Er, Tm, Y)
;
loop_
_citation_id
_citation_journal_abbrev
_citation_year
_citation_journal_volume
_citation_journal_issue
_citation_page_first
_citation_page_last
_citation_journal_id_ASTM
primary 'Inorganic Chemistry' 2004 43 24 7735 7740 INOCAJ
_publ_author_name
;
Yao, J.;Deng, B.;Sherry, L.J.;McFarland, A.D.;Ellis, D.E.;van Duyne, 
R.P.;Ibers, J.A.
;
_cell_length_a                     4.3864(3)
_cell_length_b                     16.7115(12)
_cell_length_c                     11.6102(8)
_cell_angle_alpha                  90.00
_cell_angle_beta                   90.00
_cell_angle_gamma                  90.00
_cell_volume                       851.07
_cell_formula_units_Z              4
_symmetry_space_group_name_H-M     'C m c m'
_symmetry_Int_Tables_number        63
_refine_ls_R_factor_all            .0171
loop_
_symmetry_equiv_pos_site_id
_symmetry_equiv_pos_as_xyz
  1	'-x, y, -z+.5'
  2	'-x, -y, z+.5'
  3	'-x, y, z'
  4	'-x, -y, -z'
  5	'x, -y, z+.5'
  6	'x, y, -z+.5'
  7	'x, -y, -z'
  8	'x, y, z'
  9	'-x+.5, y+.5, -z+.5'
 10	'-x+.5, -y+.5, z+.5'
 11	'-x+.5, y+.5, z'
 12	'-x+.5, -y+.5, -z'
 13	'x+.5, -y+.5, z+.5'
 14	'x+.5, y+.5, -z+.5'
 15	'x+.5, -y+.5, -z'
 16	'x+.5, y+.5, z'
loop_
_atom_type_symbol
_atom_type_oxidation_number
Cs1+	1
Te2-	-2
Y3+	3
Zn2+	2
loop_
_atom_site_label
_atom_site_type_symbol
_atom_site_symmetry_multiplicity
_atom_site_Wyckoff_symbol
_atom_site_fract_x
_atom_site_fract_y
_atom_site_fract_z
_atom_site_occupancy
_atom_site_attached_hydrogens
_atom_site_U_iso_or_equiv
Cs1 Cs1+ 4 c 0.0000 0.744323(18) 0.2500 1 0 0.01405(11) 
Y1 Y3+ 4 a 0.0000 0.0000 0.0000 1 0 0.00800(13) 
Zn1 Zn2+ 4 c 0.0000 0.46003(4) 0.2500 1 0 0.01001(14) 
Te1 Te2- 8 f 0.0000 0.377282(14) 0.056391(17) 1 0 0.00833(11) 
Te2 Te2- 4 c 0.0000 0.058802(18) 0.2500 1 0 0.00753(11) 

loop_
_atom_site_aniso_label
_atom_site_aniso_type_symbol
_atom_site_aniso_U_11
_atom_site_aniso_U_22
_atom_site_aniso_U_33
_atom_site_aniso_U_12
_atom_site_aniso_U_13
_atom_site_aniso_U_23
Cs1 Cs1+ 0.01313(18) 0.01019(19) 0.01881(19) 0.000 0.000 0.000
Y1 Y3+ 0.0085(2) 0.0093(2) 0.0063(2) 0.000 0.000 -0.00006(16)
Zn1 Zn2+ 0.0107(3) 0.0114(3) 0.0080(3) 0.000 0.000 0.000
Te1 Te2- 0.00912(15) 0.00784(15) 0.00803(15) 0.000 0.000 -0.00007(7)
Te2 Te2- 0.00878(17) 0.00777(18) 0.00605(17) 0.000 0.000 0.000
#End of data_170194-ICSD


