data_18098-ICSD
#?2014 by Fachinformationszentrum Karlsruhe, and the U.S. Secretary of 
#Commerce on behalf of the United States.  All rights reserved.
_database_code_ICSD                18098
_audit_creation_date               1980/01/01
_audit_update_record               2008/02/01
_chemical_name_systematic          'Lead Dicalcium Cyclo-trisilicate'
_chemical_formula_structural       'Pb Ca2 (Si3 O9)'
_chemical_formula_sum              'Ca2 O9 Pb1 Si3'
_chemical_name_mineral             Margarosanite
_publ_section_title
;
Determination and refinement of the crystal structure of 
margarosanite, Pb Ca2 Si3 O9
;
loop_
_citation_id
_citation_journal_abbrev
_citation_year
_citation_journal_volume
_citation_page_first
_citation_page_last
_citation_journal_id_ASTM
primary
;
Zeitschrift fuer Kristallographie, Kristallgeometrie, Kristallphysik, 
Kristallchemie (-144,1977)
;
 1969 128 218 228 ZEKGAX
_publ_author_name                  'Freed, R.L.;Peacor, D.R.'
_cell_length_a                     6.768(4)
_cell_length_b                     9.575(4)
_cell_length_c                     6.718(5)
_cell_angle_alpha                  110.36(3)
_cell_angle_beta                   102.98(4)
_cell_angle_gamma                  83.02(5)
_cell_volume                       397.27
_cell_formula_units_Z              2
_symmetry_space_group_name_H-M     'P -1'
_symmetry_Int_Tables_number        2
_refine_ls_R_factor_all            .074
loop_
_symmetry_equiv_pos_site_id
_symmetry_equiv_pos_as_xyz
  1	'-x, -y, -z'
  2	'x, y, z'
loop_
_atom_type_symbol
_atom_type_oxidation_number
Ca2+	2
O2-	-2
Pb2+	2
Si4+	4
loop_
_atom_site_label
_atom_site_type_symbol
_atom_site_symmetry_multiplicity
_atom_site_Wyckoff_symbol
_atom_site_fract_x
_atom_site_fract_y
_atom_site_fract_z
_atom_site_occupancy
_atom_site_attached_hydrogens
_atom_site_B_iso_or_equiv
Pb1 Pb2+ 2 i 0.0886(1) 0.1582(1) 0.2865(1) 1. 0 0.57(1) 
Ca1 Ca2+ 2 i 0.2700(5) 0.4951(3) 0.7629(5) 1. 0 0.19(5) 
Ca2 Ca2+ 2 i 0.4430(6) 0.1677(4) 0.9297(5) 1. 0 0.43(5) 
Si1 Si4+ 2 i 0.0957(7) 0.7817(5) 0.1590(7) 1. 0 0.28(7) 
Si2 Si4+ 2 i 0.2328(7) 0.5149(5) 0.2803(7) 1. 0 0.38(7) 
Si3 Si4+ 2 i 0.4382(7) 0.7982(5) 0.5148(7) 1. 0 0.30(7) 
O1 O2- 2 i 0.2274(20) 0.7469(13) 0.9779(20) 1. 0 0.35(19) 
O2 O2- 2 i 0.1092(19) 0.1245(13) 0.9071(19) 1. 0 0.24(18) 
O3 O2- 2 i 0.2299(23) 0.8790(16) 0.3955(24) 1. 0 1.15(13) 
O4 O2- 2 i 0.0469(19) 0.6266(13) 0.1967(19) 1. 0 0.34(19) 
O5 O2- 2 i 0.3732(20) 0.4380(14) 0.1057(20) 1. 0 0.49(19) 
O6 O2- 2 i 0.1238(21) 0.4072(14) 0.3561(21) 1. 0 0.72(21) 
O7 O2- 2 i 0.3569(20) 0.6373(13) 0.5073(20) 1. 0 0.37(18) 
O8 O2- 2 i 0.4795(20) 0.0977(13) 0.2392(20) 1. 0 0.39(19) 
O9 O2- 2 i 0.3885(19) 0.2379(13) 0.6244(19) 1. 0 0.35(19) 

#End of data_18098-ICSD


