data_72100-ICSD
#?2014 by Fachinformationszentrum Karlsruhe, and the U.S. Secretary of 
#Commerce on behalf of the United States.  All rights reserved.
_database_code_ICSD                72100
_audit_creation_date               1993/08/22
_audit_update_record               2003/04/01
_chemical_name_systematic          'Trilithium Phyllo-gallosilicate'
_chemical_formula_structural       'Li3 (Ga Si O5)'
_chemical_formula_sum              'Ga1 Li3 O5 Si1'
_publ_section_title
;
Crystal structure of Li3 A B O5(A= Al, Ga; B= Si, Ge): a novel 
wurtzite superstructure
;
loop_
_citation_id
_citation_journal_abbrev
_citation_year
_citation_journal_volume
_citation_page_first
_citation_page_last
_citation_journal_id_ASTM
primary 'Journal of Solid State Chemistry' 1992 98 33 39 JSSCBI
_publ_author_name
;
Skakle, J.M.S.;Fletcher, J.G.;Howie, R.A.;Lee, C.-K.;West, A.R.
;
_cell_length_a                     4.8536(2)
_cell_length_b                     5.4066(3)
_cell_length_c                     15.6854(8)
_cell_angle_alpha                  90.
_cell_angle_beta                   90.
_cell_angle_gamma                  90.
_cell_volume                       411.61
_cell_formula_units_Z              4
_symmetry_space_group_name_H-M     'P 21 n b'
_symmetry_Int_Tables_number        33
_refine_ls_R_factor_all            .046
loop_
_symmetry_equiv_pos_site_id
_symmetry_equiv_pos_as_xyz
  1	'x, y+.5, -z+.5'
  2	'x+.5, -y+.5, z+.5'
  3	'x+.5, -y, -z'
  4	'x, y, z'
loop_
_atom_type_symbol
_atom_type_oxidation_number
Ga3+	3
Li1+	1
O2-	-2
Si4+	4
loop_
_atom_site_label
_atom_site_type_symbol
_atom_site_symmetry_multiplicity
_atom_site_Wyckoff_symbol
_atom_site_fract_x
_atom_site_fract_y
_atom_site_fract_z
_atom_site_occupancy
_atom_site_attached_hydrogens
Ga1 Ga3+ 4 a 0.51(2) 0.327(1) 0.2015(3) 1. 0 
Si1 Si4+ 4 a 0 0.163(2) 0.0957(8) 1. 0 
O1 O2- 4 a 0.60(1) 0.642(5) 0.214(2) 1. 0 
O2 O2- 4 a 0.654(9) 0.185(5) 0.106(2) 1. 0 
O3 O2- 4 a 0.10(2) 0.271(5) 0.014(2) 1. 0 
O4 O2- 4 a 0.103(9) 0.858(5) 0.094(2) 1. 0 
O5 O2- 4 a 0.14(1) 0.315(6) 0.201(2) 1. 0 
Li1 Li1+ 4 a 0.96(2) 0.17(1) 0.292(6) 1. 0 
Li2 Li1+ 4 a 0.51(5) 0.34(2) 0.994(4) 1. 0 
Li3 Li1+ 4 a 0.51(2) 0.82(2) 0.098(7) 1. 0 

#End of data_72100-ICSD


