data_245402-ICSD
#?2014 by Fachinformationszentrum Karlsruhe, and the U.S. Secretary of 
#Commerce on behalf of the United States.  All rights reserved.
_database_code_ICSD                245402
_audit_creation_date               2008/02/01
_audit_update_record               2011/02/01
_chemical_name_systematic          'Tetralithium Tetraoxocarbonate'
_chemical_formula_structural       'Li4 (C O4)'
_chemical_formula_sum              'C1 Li4 O4'
_publ_section_title
;
Possible existence of alkali metal orthocarbonates at high pressure
;
loop_
_citation_id
_citation_journal_abbrev
_citation_year
_citation_journal_volume
_citation_journal_issue
_citation_page_first
_citation_page_last
_citation_journal_id_ASTM
primary 'Chemistry - A European Journal' 2007 13 26 7330 7348 CEUJED
_publ_author_name
;
Cancarevic, Z.;Schoen, J.C.;Jansen, M.
;
_cell_length_a                     4.24568
_cell_length_b                     5.68262
_cell_length_c                     5.76918
_cell_angle_alpha                  90
_cell_angle_beta                   121.52540
_cell_angle_gamma                  90
_cell_volume                       118.65
_cell_formula_units_Z              2
_symmetry_space_group_name_H-M     'P 1 c 1'
_symmetry_Int_Tables_number        7
loop_
_symmetry_equiv_pos_site_id
_symmetry_equiv_pos_as_xyz
  1	'x, -y, z+.5'
  2	'x, y, z'
loop_
_atom_type_symbol
_atom_type_oxidation_number
C4+	4
Li1+	1
O2-	-2
loop_
_atom_site_label
_atom_site_type_symbol
_atom_site_symmetry_multiplicity
_atom_site_Wyckoff_symbol
_atom_site_fract_x
_atom_site_fract_y
_atom_site_fract_z
_atom_site_occupancy
_atom_site_attached_hydrogens
C1 C4+ 2 a 0.15995 0.22280 0.28843 1. 0 
O1 O2- 2 a 0.20064 0.95623 0.33259 1. 0 
O2 O2- 2 a 0.49622 0.31868 0.29930 1. 0 
O3 O2- 2 a 0.12975 0.33589 0.51644 1. 0 
O4 O2- 2 a 0.81216 0.27487 0.01175 1. 0 
Li1 Li1+ 2 a 0.79382 0.55401 0.19528 1. 0 
Li2 Li1+ 2 a 0.58377 0.13209 0.63821 1. 0 
Li3 Li1+ 2 a 0.83940 0.05177 0.43795 1. 0 
Li4 Li1+ 2 a 0.30856 0.60528 0.39874 1. 0 

#End of data_245402-ICSD


