data_92469-ICSD
#?2014 by Fachinformationszentrum Karlsruhe, and the U.S. Secretary of 
#Commerce on behalf of the United States.  All rights reserved.
_database_code_ICSD                92469
_audit_creation_date               2002/10/01
_chemical_name_systematic
;
Potassium Copper Zirconium Fluoride
;
_chemical_formula_structural       'K Cu Zr F7'
_chemical_formula_sum              'Cu1 F7 K1 Zr1'
_publ_section_title
;
K Cu M(IV) F7 (M(IV) = Zr(4+), Hf(4+)), ein neuer Strukturtyp
;
loop_
_citation_id
_citation_journal_abbrev
_citation_year
_citation_journal_volume
_citation_page_first
_citation_page_last
_citation_journal_id_ASTM
primary 'Zeitschrift fuer Anorganische und Allgemeine Chemie (1950) (DE)'
 2000 626 1929 1933 ZAACAB
_publ_author_name                  'Kraus, M.;Mueller, B.G.'
_cell_length_a                     8.2963
_cell_length_b                     12.7646
_cell_length_c                     10.1156
_cell_angle_alpha                  90.
_cell_angle_beta                   90.
_cell_angle_gamma                  90.
_cell_volume                       1071.23
_cell_formula_units_Z              8
_symmetry_space_group_name_H-M     'C m c m'
_symmetry_Int_Tables_number        63
_refine_ls_R_factor_all            .04
loop_
_symmetry_equiv_pos_site_id
_symmetry_equiv_pos_as_xyz
  1	'-x, y, -z+.5'
  2	'-x, -y, z+.5'
  3	'-x, y, z'
  4	'-x, -y, -z'
  5	'x, -y, z+.5'
  6	'x, y, -z+.5'
  7	'x, -y, -z'
  8	'x, y, z'
  9	'-x+.5, y+.5, -z+.5'
 10	'-x+.5, -y+.5, z+.5'
 11	'-x+.5, y+.5, z'
 12	'-x+.5, -y+.5, -z'
 13	'x+.5, -y+.5, z+.5'
 14	'x+.5, y+.5, -z+.5'
 15	'x+.5, -y+.5, -z'
 16	'x+.5, y+.5, z'
loop_
_atom_type_symbol
_atom_type_oxidation_number
Cu2+	2
F1-	-1
K1+	1
Zr4+	4
loop_
_atom_site_label
_atom_site_type_symbol
_atom_site_symmetry_multiplicity
_atom_site_Wyckoff_symbol
_atom_site_fract_x
_atom_site_fract_y
_atom_site_fract_z
_atom_site_occupancy
_atom_site_attached_hydrogens
K1 K1+ 8 g 0.75951(14) 0.60377(12) 0.25 1. 0 
Cu1 Cu2+ 8 f 0.5 0.86618(3) 0.07078(4) 1. 0 
Zr1 Zr4+ 8 f 0.5 0.63403(2) 0.56957(3) 1. 0 
F1 F1- 4 b 0.5 0 0 1. 0 
F2 F1- 4 c 0.5 0.91924(29) 0.25 1. 0 
F3 F1- 8 f 0.5 0.47448(24) 0.61243(24) 1. 0 
F4 F1- 8 f 0.5 0.72236(19) 0.11267(24) 1. 0 
F5 F1- 8 f 0.5 0.79291(18) 0.61111(23) 1. 0 
F6 F1- 8 g 0.35970(31) 0.63546(20) 0.75 1. 0 
F7 F1- 16 h 0.26745(22) 0.62787(14) 0.51489(20) 1. 0 

loop_
_atom_site_aniso_label
_atom_site_aniso_type_symbol
_atom_site_aniso_U_11
_atom_site_aniso_U_22
_atom_site_aniso_U_33
_atom_site_aniso_U_12
_atom_site_aniso_U_13
_atom_site_aniso_U_23
K1 K1+ 0.02907(49) 0.06055(77) 0.01575(37) -.01742(49) 0 0
Cu1 Cu2+ 0.01903(21) 0.00765(18) 0.00997(19) 0 0 0.00035(12)
Zr1 Zr4+ 0.01314(15) 0.00845(15) 0.00994(15) 0 0 0.00006(9)
F1 F1- 0.0327(20) 0.0125(14) 0.0467(26) 0 0 0.0105(16)
F2 F1- 0.0338(20) 0.0167(15) 0.0167(15) 0 0 0
F3 F1- 0.0249(11) 0.01328(91) 0.01271(91) 0 0 0.00031(91)
F4 F1- 0.0348(13) 0.0125(19) 0.01307(94) 0 0 0.00153(77)
F5 F1- 0.0233(11) 0.01196(85) 0.01196(85) 0 0 -.00077(71)
F6 F1- 0.01584(99) 0.0258(11) 0.01235(90) -.00025(85) 0 0
F7 F1- 0.01841(75) 0.02689(75) 0.01706(76) 0.00082(62) 0.00246(62) 
0.00009(61)
#End of data_92469-ICSD


