data_420874-ICSD
#?2014 by Fachinformationszentrum Karlsruhe, and the U.S. Secretary of 
#Commerce on behalf of the United States.  All rights reserved.
_database_code_ICSD                420874
_audit_creation_date               2010/08/01
_chemical_name_systematic
;
Dieuropium(III) Magnesium Iridium(IV) Hexaoxide
;
_chemical_formula_structural       'Eu2 Mg Ir O6'
_chemical_formula_sum              'Eu2 Ir1 Mg1 O6'
_publ_section_title
;
Crystal growth, structure and magnetic properties of the double 
perovskites Ln2 Mg Ir O6 (Ln = Pr, Nd, Sm-Gd)
;
loop_
_citation_id
_citation_journal_abbrev
_citation_year
_citation_journal_volume
_citation_journal_issue
_citation_page_first
_citation_page_last
_citation_journal_id_ASTM
primary 'Journal of Solid State Chemistry' 2010 183 2 465 470 JSSCBI
_publ_author_name
;
Mugavero III, S.J.;Fox, A.H.;Smith, M.D.;zur Loye, H.C.
;
_cell_length_a                     5.3919(2)
_cell_length_b                     5.6797(2)
_cell_length_c                     7.7258(3)
_cell_angle_alpha                  90.00
_cell_angle_beta                   90.0590(10)
_cell_angle_gamma                  90.00
_cell_volume                       236.6
_cell_formula_units_Z              2
_symmetry_space_group_name_H-M     'P 1 21/n 1'
_symmetry_Int_Tables_number        14
_refine_ls_R_factor_all            .0316
loop_
_symmetry_equiv_pos_site_id
_symmetry_equiv_pos_as_xyz
  1	'-x+.5, y+.5, -z+.5'
  2	'-x, -y, -z'
  3	'x+.5, -y+.5, z+.5'
  4	'x, y, z'
loop_
_atom_type_symbol
_atom_type_oxidation_number
Eu3+	3
Ir4+	4
Mg2+	2
O2-	-2
loop_
_atom_site_label
_atom_site_type_symbol
_atom_site_symmetry_multiplicity
_atom_site_Wyckoff_symbol
_atom_site_fract_x
_atom_site_fract_y
_atom_site_fract_z
_atom_site_occupancy
_atom_site_attached_hydrogens
_atom_site_U_iso_or_equiv
Ir1 Ir4+ 2 b 0.5000 0.5000 0.0000 1 0 0.00711(8) 
Eu1 Eu3+ 4 e 0.48263(7) 0.06521(6) 0.25090(6) 1 0 0.00951(9) 
Mg1 Mg2+ 2 a 0.0000 0.0000 0.0000 1 0 0.0068(5) 
O1 O2- 4 e 0.1975(12) 0.3041(13) 0.0527(9) 1 0 0.0126(13) 
O2 O2- 4 e 0.6055(10) 0.4638(10) 0.2467(8) 1 0 0.0095(9) 
O3 O2- 4 e 0.3140(13) 0.7986(12) 0.0539(8) 1 0 0.0115(12) 

loop_
_atom_site_aniso_label
_atom_site_aniso_type_symbol
_atom_site_aniso_U_11
_atom_site_aniso_U_22
_atom_site_aniso_U_33
_atom_site_aniso_U_12
_atom_site_aniso_U_13
_atom_site_aniso_U_23
Ir1 Ir4+ 0.00781(15) 0.00624(16) 0.00728(13) 0.00004(13) 0.0007(3) 
-0.00008(13)
Eu1 Eu3+ 0.01007(15) 0.00874(17) 0.00973(14) -0.00064(14) 0.0006(3) 
0.00017(11)
O1 O2- 0.010(3) 0.008(3) 0.019(3) 0.000(2) 0.002(2) -0.002(2)
O2 O2- 0.012(2) 0.010(3) 0.007(2) 0.0006(17) 0.000(2) 0.002(2)
O3 O2- 0.014(3) 0.010(3) 0.010(3) 0.003(2) -0.003(2) -0.001(2)
#End of data_420874-ICSD


