data_74978-ICSD
#?2014 by Fachinformationszentrum Karlsruhe, and the U.S. Secretary of 
#Commerce on behalf of the United States.  All rights reserved.
_database_code_ICSD                74978
_audit_creation_date               1995/10/17
_audit_update_record               2008/02/01
_chemical_name_systematic          'Lithium Copper(III) Oxide'
_chemical_formula_structural       'Li Cu O2'
_chemical_formula_sum              'Cu1 Li1 O2'
_publ_section_title
;
Room temperature synthesis and structural characterization of 
monoclinic Li Cu O2 by X-ray and neutron diffraction
;
loop_
_citation_id
_citation_journal_abbrev
_citation_year
_citation_journal_volume
_citation_page_first
_citation_page_last
_citation_journal_id_ASTM
primary 'Journal of Alloys and Compounds' 1994 203 203 207 JALCEU
_publ_author_name                  'Berger, R.;Tergenius, L.E.'
_cell_length_a                     5.733(1)
_cell_length_b                     2.7176(3)
_cell_length_c                     5.622(1)
_cell_angle_alpha                  90.
_cell_angle_beta                   120.68(2)
_cell_angle_gamma                  90.
_cell_volume                       75.33
_cell_formula_units_Z              2
_symmetry_space_group_name_H-M     'C 1 2/m 1'
_symmetry_Int_Tables_number        12
_refine_ls_R_factor_all            .028
loop_
_symmetry_equiv_pos_site_id
_symmetry_equiv_pos_as_xyz
  1	'-x, y, -z'
  2	'-x, -y, -z'
  3	'x, -y, z'
  4	'x, y, z'
  5	'-x+.5, y+.5, -z'
  6	'-x+.5, -y+.5, -z'
  7	'x+.5, -y+.5, z'
  8	'x+.5, y+.5, z'
loop_
_atom_type_symbol
_atom_type_oxidation_number
Cu3+	3
Li1+	1
O2-	-2
loop_
_atom_site_label
_atom_site_type_symbol
_atom_site_symmetry_multiplicity
_atom_site_Wyckoff_symbol
_atom_site_fract_x
_atom_site_fract_y
_atom_site_fract_z
_atom_site_occupancy
_atom_site_attached_hydrogens
Cu1 Cu3+ 2 a 0 0 0 1. 0 
Li1 Li1+ 2 d 0.5 0 0.5 1. 0 
O1 O2- 4 i 0.3130(7) 0 0.7567(7) 1. 0 

#End of data_74978-ICSD


