data_62066-ICSD
#?2014 by Fachinformationszentrum Karlsruhe, and the U.S. Secretary of 
#Commerce on behalf of the United States.  All rights reserved.
_database_code_ICSD                62066
_audit_creation_date               1988/02/22
_chemical_name_systematic          'Trisodium Oxoaurate(I)'
_chemical_formula_structural       'Na3 (Au O2)'
_chemical_formula_sum              'Au1 Na3 O2'
_publ_section_title
;
Oxydation intermetallischer Phasen: Na3(Au O2) aus NaAu und Na2O2
;
loop_
_citation_id
_citation_journal_abbrev
_citation_year
_citation_journal_volume
_citation_page_first
_citation_page_last
_citation_journal_id_ASTM
primary 'Zeitschrift fuer Anorganische und Allgemeine Chemie (1950) (DE)'
 1987 549 26 34 ZAACAB
_publ_author_name                  'Wagner, G.;Hoppe, R.'
_cell_length_a                     9.705(1)
_cell_length_b                     9.705(1)
_cell_length_c                     4.578(1)
_cell_angle_alpha                  90.
_cell_angle_beta                   90.
_cell_angle_gamma                  90.
_cell_volume                       431.19
_cell_formula_units_Z              4
_symmetry_space_group_name_H-M     'P 42/m n m'
_symmetry_Int_Tables_number        136
_refine_ls_R_factor_all            .07
loop_
_symmetry_equiv_pos_site_id
_symmetry_equiv_pos_as_xyz
  1	'-y+.5, x+.5, -z+.5'
  2	'y+.5, -x+.5, -z+.5'
  3	'y, x, -z'
  4	'-y, -x, -z'
  5	'y+.5, -x+.5, z+.5'
  6	'-y+.5, x+.5, z+.5'
  7	'-y, -x, z'
  8	'y, x, z'
  9	'x+.5, -y+.5, -z+.5'
 10	'-x+.5, y+.5, -z+.5'
 11	'x, y, -z'
 12	'-x, -y, -z'
 13	'-x+.5, y+.5, z+.5'
 14	'x+.5, -y+.5, z+.5'
 15	'-x, -y, z'
 16	'x, y, z'
loop_
_atom_type_symbol
_atom_type_oxidation_number
Au1+	1
Na1+	1
O2-	-2
loop_
_atom_site_label
_atom_site_type_symbol
_atom_site_symmetry_multiplicity
_atom_site_Wyckoff_symbol
_atom_site_fract_x
_atom_site_fract_y
_atom_site_fract_z
_atom_site_occupancy
_atom_site_attached_hydrogens
Au1 Au1+ 4 f 0.1642(1) 0.1642(1) 0 1. 0 
Na1 Na1+ 4 g 0.3225(11) 0.3225(11) 0.5 1. 0 
Na2 Na1+ 8 i 0.4859(17) 0.1516(13) 0 1. 0 
O1 O2- 8 i 0.6908(19) 0.9876(25) 0 1. 0 

loop_
_atom_site_aniso_label
_atom_site_aniso_type_symbol
_atom_site_aniso_U_11
_atom_site_aniso_U_22
_atom_site_aniso_U_33
_atom_site_aniso_U_12
_atom_site_aniso_U_13
_atom_site_aniso_U_23
Au1 Au1+ 0.0054(4) 0.0051(4) 0.0076(6) 0.0019(5) 0 0
Na1 Na1+ 0.0129(36) 0.0129(36) 0.0068(49) 0.0024(17) 0 0
Na2 Na1+ 0.0347(60) 0.0323(55) 0.016(5) 0.0057(18) 0 0
O1 O2- 0.0126(62) 0.0311(76) 0.0155(71) -.0068(67) 0 0
#End of data_62066-ICSD


