data_281362-ICSD
#?2014 by Fachinformationszentrum Karlsruhe, and the U.S. Secretary of 
#Commerce on behalf of the United States.  All rights reserved.
_database_code_ICSD                281362
_audit_creation_date               2004/04/01
_audit_update_record               2006/04/01
_chemical_name_systematic          'Sodium Carbonate - Gamma'
_chemical_formula_structural       'Na2 (C O3)'
_chemical_formula_sum              'C1 Na2 O3'
_publ_section_title                'Sodium carbonate revisited'
loop_
_citation_id
_citation_journal_abbrev
_citation_year
_citation_journal_volume
_citation_page_first
_citation_page_last
_citation_journal_id_ASTM
primary 'Acta Crystallographica, Section B: Structural Science'
 2003 59 337 352 ASBSDK
2 'Golden Book of Phase Transitions, Wroclaw' 2002 1 1 123 GBOPT5
_publ_author_name
;
Dusek, M.;Chapuis, G.;Meyer, M.;Petricek, V.
;
_cell_length_a                     8.9195
_cell_length_b                     5.2454
_cell_length_c                     6.05
_cell_angle_alpha                  90.
_cell_angle_beta                   101.354
_cell_angle_gamma                  90.
_cell_volume                       277.52
_cell_formula_units_Z              4
_symmetry_space_group_name_H-M     'C 1 2/m 1'
_symmetry_Int_Tables_number        12
_refine_ls_R_factor_all            .046
loop_
_symmetry_equiv_pos_site_id
_symmetry_equiv_pos_as_xyz
  1	'-x, y, -z'
  2	'-x, -y, -z'
  3	'x, -y, z'
  4	'x, y, z'
  5	'-x+.5, y+.5, -z'
  6	'-x+.5, -y+.5, -z'
  7	'x+.5, -y+.5, z'
  8	'x+.5, y+.5, z'
loop_
_atom_type_symbol
_atom_type_oxidation_number
C4+	4
Na1+	1
O2-	-2
loop_
_atom_site_label
_atom_site_type_symbol
_atom_site_symmetry_multiplicity
_atom_site_Wyckoff_symbol
_atom_site_fract_x
_atom_site_fract_y
_atom_site_fract_z
_atom_site_occupancy
_atom_site_attached_hydrogens
_atom_site_U_iso_or_equiv
Na1 Na1+ 2 a 0 0 0 1. 0 0.01731(11) 
Na2 Na1+ 2 c 0 0 0.5 1. 0 0.01673(11) 
Na3 Na1+ 4 i 0.17055(4) 0.5 0.74801(6) 1. 0 0.02554(10) 
C1 C4+ 4 i 0.16446(7) 0.5 0.24914(10) 1. 0 0.01155(13) 
O1 O2- 8 j 0.10159(5) 0.29384(7) 0.28535(7) 1. 0 0.02607(12) 
O2 O2- 4 i 0.28987(6) 0.5 0.17757(11) 1. 0 0.02274(14) 

loop_
_atom_site_aniso_label
_atom_site_aniso_type_symbol
_atom_site_aniso_U_11
_atom_site_aniso_U_22
_atom_site_aniso_U_33
_atom_site_aniso_U_12
_atom_site_aniso_U_13
_atom_site_aniso_U_23
Na1 Na1+ 0.01757(18) 0.01860(15) 0.01713(19) 0 0.00672(16) 0
Na2 Na1+ 0.01919(19) 0.01561(15) 0.01686(19) 0 0.00714(17) 0
Na3 Na1+ 0.02174(16) 0.02568(14) 0.0307(2) 0 0.00888(16) 0
C1 C4+ 0.0111(2) 0.01219(17) 0.0119(2) 0 0.0037(2) 0
O1 O2- 0.0318(2) 0.01881(14) 0.0299(2) -0.00956(13) 0.01172(18) 0.00055(13)
O2 O2- 0.0148(2) 0.0324(3) 0.0237(3) 0 0.0104(2) 0
#End of data_281362-ICSD


