data_152165-ICSD
#?2014 by Fachinformationszentrum Karlsruhe, and the U.S. Secretary of 
#Commerce on behalf of the United States.  All rights reserved.
_database_code_ICSD                152165
_audit_creation_date               2006/10/01
_audit_update_record               2012/02/01
_chemical_name_systematic
;
Sodium Tetracesium Heptadecafluorotrihafnate - Hydrofluoric Acid 
(1/2)
;
_chemical_formula_structural       '(Na Cs4 (Hf3 F17)) (H F)2'
_chemical_formula_sum              'H2 Cs4 F19 Hf3 Na1'
_publ_section_title
;
Structure and ion mobility in M M'4 A3 F17 * 2(H F) (M= Li, Na; M'= N 
H4, Rb, Cs; A = Zr, Hf) compounds
;
loop_
_citation_id
_citation_journal_abbrev
_citation_year
_citation_journal_volume
_citation_journal_issue
_citation_page_first
_citation_page_last
_citation_journal_id_ASTM
primary 'Zhurnal Neorganicheskoi Khimii' 2004 49 2 293 303 ZNOKAQ
_publ_author_name
;
Tkachenko, I.A.;Gerasimenko, A.V.;Kavun, V.Ya.;Antokhina, 
T.F.;Davidovich, R.L.;Sergienko, V.I.
;
_cell_length_a                     11.500(2)
_cell_length_b                     6.866(1)
_cell_length_c                     13.279(2)
_cell_angle_alpha                  90.
_cell_angle_beta                   110.416(3)
_cell_angle_gamma                  90.
_cell_volume                       982.63
_cell_formula_units_Z              2
_symmetry_space_group_name_H-M     'P 1 21/m 1'
_symmetry_Int_Tables_number        11
_refine_ls_R_factor_all            .0256
loop_
_symmetry_equiv_pos_site_id
_symmetry_equiv_pos_as_xyz
  1	'x, -y+.5, z'
  2	'-x, -y, -z'
  3	'-x, y+.5, -z'
  4	'x, y, z'
loop_
_atom_type_symbol
_atom_type_oxidation_number
Cs1+	1
F1-	-1
H1+	1
Hf4+	4
Na1+	1
loop_
_atom_site_label
_atom_site_type_symbol
_atom_site_symmetry_multiplicity
_atom_site_Wyckoff_symbol
_atom_site_fract_x
_atom_site_fract_y
_atom_site_fract_z
_atom_site_occupancy
_atom_site_attached_hydrogens
_atom_site_U_iso_or_equiv
Hf1 Hf4+ 2 e 0.23020(2) 0.250 0.74841(2) 1. 0 0.01352(5) 
Hf2 Hf4+ 2 e 0.91624(2) 0.250 0.75506(2) 1. 0 0.01417(5) 
Hf3 Hf4+ 2 e 0.59487(2) 0.250 0.74727(2) 1. 0 0.01415(5) 
Na1 Na1+ 2 e 0.7368(2) 0.750 0.7486(2) 1. 0 0.0254(6) 
F1 F1- 4 f 0.3166(3) 0.0537(4) 0.8619(2) 1. 0 0.0346(8) 
F2 F1- 4 f 0.1977(3) 0.0533(4) 0.6294(2) 1. 0 0.0342(7) 
F3 F1- 4 f 0.0828(2) 0.0810(4) 0.7638(2) 1. 0 0.0305(7) 
F4 F1- 2 e 0.0179(4) 0.250 0.9150(3) 1. 0 0.062(2) 
F5 F1- 2 e 0.9101(4) 0.250 0.6037(3) 1. 0 0.040(1) 
F6 F1- 4 f 0.8758(3) -0.0293(4) 0.7585(3) 1. 0 0.0499(9) 
F7 F1- 2 e 0.7182(3) 0.250 0.6601(3) 1. 0 0.034(1) 
F8 F1- 2 e 0.7849(3) 0.250 0.8439(3) 1. 0 0.032(1) 
F9 F1- 2 e 0.5976(4) 0.250 0.8977(3) 1. 0 0.043(1) 
F10 F1- 4 f 0.5858(3) -0.0383(4) 0.7425(3) 1. 0 0.0359(8) 
F11 F1- 2 e 0.4920(4) 0.250 0.5864(4) 1. 0 0.068(2) 
F12 F1- 2 e 0.4067(3) 0.250 0.7329(3) 1. 0 0.035(1) 
F13 F1- 2 e 0.6892(6) 0.750 0.5630(4) 1. 0 0.083(3) 
F14 F1- 2 e 0.7926(6) 0.750 0.9393(4) 1. 0 0.074(2) 
Cs1 Cs1+ 2 e 0.64433(4) 0.250 0.42620(3) 1. 0 0.0295(1) 
Cs2 Cs1+ 2 e 0.86383(4) 0.250 0.07593(3) 1. 0 0.0280(1) 
Cs3 Cs1+ 2 e 0.52244(4) 0.750 0.92734(3) 1. 0 0.0280(1) 
Cs4 Cs1+ 2 e 0.03008(4) 0.250 0.41652(3) 1. 0 0.0281(1) 
H1 H1+ 2 e 0.8615 0.750 0.0031 1. 0 0.09 
H2 H1+ 2 e 0.6599 0.750 0.4968 1. 0 0.08 

#End of data_152165-ICSD


