data_1438-ICSD
#?2014 by Fachinformationszentrum Karlsruhe, and the U.S. Secretary of 
#Commerce on behalf of the United States.  All rights reserved.
_database_code_ICSD                1438
_audit_creation_date               1980/01/01
_audit_update_record               2010/02/01
_chemical_name_systematic
;
Pentapotassium Mue3-oxo-hexa-mue-sulfato(VI)-triaquairon(III) 
Heptahydrate - Beta
;
_chemical_formula_structural
;
K5 (O (S O4)6 (Fe3 (H2 O)3)) (H2 O)7
;
_chemical_formula_sum              'H20 Fe3 K5 O35 S6'
_publ_section_title
;
Die Kristallstruktur von beta-Pentakalium-(mue3-oxo-hexa-mue-sulfato-
triaquaeisen(III))-Heptahydrat, eine monokline Modifikation des 
Mausschen Salzes
;
loop_
_citation_id
_citation_journal_abbrev
_citation_year
_citation_journal_volume
_citation_page_first
_citation_page_last
_citation_journal_id_ASTM
primary 'Acta Crystallographica B (24,1968-38,1982)' 1978 34 378 384 ACBCAR
_publ_author_name                  'Mereiter, K.;Voellenkle, H.'
_cell_length_a                     9.491(3)
_cell_length_b                     18.474(6)
_cell_length_c                     18.109(6)
_cell_angle_alpha                  90.
_cell_angle_beta                   92.38(5)
_cell_angle_gamma                  90.
_cell_volume                       3172.43
_cell_formula_units_Z              4
_symmetry_space_group_name_H-M     'P 1 21/c 1'
_symmetry_Int_Tables_number        14
_refine_ls_R_factor_all            .035
loop_
_symmetry_equiv_pos_site_id
_symmetry_equiv_pos_as_xyz
  1	'x, -y+.5, z+.5'
  2	'-x, -y, -z'
  3	'-x, y+.5, -z+.5'
  4	'x, y, z'
loop_
_atom_type_symbol
_atom_type_oxidation_number
Fe3+	3
H1+	1
K1+	1
O2-	-2
S6+	6
loop_
_atom_site_label
_atom_site_type_symbol
_atom_site_symmetry_multiplicity
_atom_site_Wyckoff_symbol
_atom_site_fract_x
_atom_site_fract_y
_atom_site_fract_z
_atom_site_occupancy
_atom_site_attached_hydrogens
_atom_site_U_iso_or_equiv
K1 K1+ 4 e 0.54292(13) 0.15530(7) 0.24569(7) 1. 0 0 
K2 K1+ 4 e 0.63730(15) 0.22467(7) 0.03809(8) 1. 0 0 
K3 K1+ 4 e 0.27069(14) 0.10196(7) 0.04945(7) 1. 0 0 
K4 K1+ 4 e 0.12321(14) 0.20390(8) 0.27225(9) 1. 0 0 
K5 K1+ 4 e 0.32772(15) 0.11218(8) 0.44202(8) 1. 0 0 
Fe1 Fe3+ 4 e 0.31502(7) 0.41637(4) 0.25680(4) 1. 0 0 
Fe2 Fe3+ 4 e 0.63302(7) 0.40832(4) 0.34178(4) 1. 0 0 
Fe3 Fe3+ 4 e 0.59817(7) 0.39747(4) 0.15754(4) 1. 0 0 
S1 S6+ 4 e 0.38938(13) 0.52069(7) 0.39218(7) 1. 0 0 
S2 S6+ 4 e 0.39733(13) 0.29594(7) 0.38248(7) 1. 0 0 
S3 S6+ 4 e 0.77980(13) 0.52338(7) 0.24094(7) 1. 0 0 
S4 S6+ 4 e 0.81386(12) 0.29505(7) 0.24462(7) 1. 0 0 
S5 S6+ 4 e 0.36347(13) 0.51355(7) 0.10713(7) 1. 0 0 
S6 S6+ 4 e 0.31755(13) 0.29533(7) 0.12788(7) 1. 0 0 
O1 O2- 4 e 0.3285(4) 0.5085(2) 0.3160(2) 1. 0 0 
O2 O2- 4 e 0.5077(4) 0.4688(2) 0.4052(2) 1. 0 0 
O3 O2- 4 e 0.2825(4) 0.5064(2) 0.4456(2) 1. 0 0 
O4 O2- 4 e 0.4414(4) 0.5941(2) 0.3977(2) 1. 0 0 
O5 O2- 4 e 0.3059(4) 0.3545(2) 0.3486(2) 1. 0 0 
O6 O2- 4 e 0.5477(4) 0.3170(2) 0.3754(2) 1. 0 0 
O7 O2- 4 e 0.3698(4) 0.2900(2) 0.4601(2) 1. 0 0 
O8 O2- 4 e 0.3737(4) 0.2282(2) 0.3436(2) 1. 0 0 
O9 O2- 4 e 0.7305(4) 0.5007(2) 0.3149(2) 1. 0 0 
O10 O2- 4 e 0.7646(4) 0.4613(2) 0.1893(2) 1. 0 0 
O11 O2- 4 e 0.9297(4) 0.5423(2) 0.2490(2) 1. 0 0 
O12 O2- 4 e 0.6989(4) 0.5852(2) 0.2148(2) 1. 0 0 
O13 O2- 4 e 0.7914(4) 0.3482(2) 0.3047(2) 1. 0 0 
O14 O2- 4 e 0.6980(4) 0.3045(2) 0.1866(2) 1. 0 0 
O15 O2- 4 e 0.9500(4) 0.3100(2) 0.2138(2) 1. 0 0 
O16 O2- 4 e 0.8067(4) 0.2217(2) 0.2720(2) 1. 0 0 
O17 O2- 4 e 0.5076(4) 0.4815(2) 0.1064(2) 1. 0 0 
O18 O2- 4 e 0.2849(4) 0.4779(2) 0.1659(2) 1. 0 0 
O19 O2- 4 e 0.2903(4) 0.5008(2) 0.0365(2) 1. 0 0 
O20 O2- 4 e 0.3795(4) 0.5897(2) 0.1220(2) 1. 0 0 
O21 O2- 4 e 0.4503(4) 0.3320(2) 0.1080(2) 1. 0 0 
O22 O2- 4 e 0.2719(4) 0.3266(2) 0.1990(2) 1. 0 0 
O23 O2- 4 e 0.2119(4) 0.3101(2) 0.0696(2) 1. 0 0 
O24 O2- 4 e 0.3430(5) 0.2191(2) 0.1387(2) 1. 0 0 
O25 O2- 4 e 0.5153(3) 0.4089(2) 0.2513(2) 1. 0 0 
O26 O2- 4 e 0.1000(4) 0.4241(2) 0.2677(2) 1. 0 0 
O27 O2- 4 e 0.7591(4) 0.4042(2) 0.4382(2) 1. 0 0 
O28 O2- 4 e 0.7053(4) 0.3854(2) 0.0605(2) 1. 0 0 
O29 O2- 4 e 0.0033(6) 0.0688(4) 0.0992(3) 1. 0 0 
O30 O2- 4 e 0.9186(7) 0.2125(3) 0.0773(4) 1. 0 0 
O31 O2- 4 e 0.9814(4) 0.4050(2) 0.0607(3) 1. 0 0 
O32 O2- 4 e 0.9607(6) 0.5567(3) 0.0865(3) 1. 0 0 
O33 O2- 4 e 0.9283(5) 0.7310(3) 0.0725(3) 1. 0 0 
O34 O2- 4 e 0.9627(4) 0.8835(2) 0.0670(2) 1. 0 0 
O35 O2- 4 e 0.7819(4) 0.2085(2) 0.4299(2) 1. 0 0 
H1 H1+ 4 e 0.051(7) 0.458(4) 0.259(4) 1. 0 0.0507 
H2 H1+ 4 e 0.059(7) 0.387(4) 0.249(4) 1. 0 0.0507 
H3 H1+ 4 e 0.741(7) 0.436(4) 0.473(4) 1. 0 0.0507 
H4 H1+ 4 e 0.855(7) 0.400(4) 0.431(4) 1. 0 0.0507 
H5 H1+ 4 e 0.708(7) 0.422(4) 0.040(4) 1. 0 0.0507 
H6 H1+ 4 e 0.818(7) 0.376(4) 0.061(4) 1. 0 0.0507 
H7 H1+ 4 e -.08 0.042 0.081 1. 0 0.076 
H8 H1+ 4 e 0.024(7) 0.050(4) 0.151(4) 1. 0 0.076 
H9 H1+ 4 e 0.923(8) 0.242(4) 0.120(4) 1. 0 0.076 
H10 H1+ 4 e 0.948 0.163 0.089 1. 0 0.076 
H11 H1+ 4 e 0.057(8) 0.373(4) 0.083(4) 1. 0 0.076 
H12 H1+ 4 e -.001(8) 0.440(4) 0.073(5) 1. 0 0.076 
H13 H1+ 4 e 0.002(9) 0.579(5) 0.135(4) 1. 0 0.076 
H14 H1+ 4 e 0.990(9) 0.588(5) 0.055(5) 1. 0 0.076 
H15 H1+ 4 e 0.895(7) 0.735(4) 0.021(4) 1. 0 0.076 
H16 H1+ 4 e 0.022(8) 0.717(4) 0.071(4) 1. 0 0.076 
H17 H1+ 4 e 0.918(8) 0.902(4) 0.099(4) 1. 0 0.076 
H18 H1+ 4 e 0.947(8) 0.831(4) 0.072(4) 1. 0 0.076 
H19 H1+ 4 e 0.787(9) 0.229(4) 0.388(4) 1. 0 0.076 
H20 H1+ 4 e 0.749(9) 0.171(4) 0.422(5) 1. 0 0.001 

loop_
_atom_site_aniso_label
_atom_site_aniso_type_symbol
_atom_site_aniso_U_11
_atom_site_aniso_U_22
_atom_site_aniso_U_33
_atom_site_aniso_U_12
_atom_site_aniso_U_13
_atom_site_aniso_U_23
K1 K1+ 0.0285(7) 0.0360(7) 0.0244(7) -.0051(6) 0.0002(6) 0.0003(6)
K2 K1+ 0.0394(8) 0.0307(7) 0.0434(8) -.0011(6) -.0044(7) 0.0022(7)
K3 K1+ 0.0368(7) 0.0319(8) 0.0356(8) -.0026(6) -.0014(6) -.0058(6)
K4 K1+ 0.0363(8) 0.0321(8) 0.0708(11) 0.0119(6) -.0155(8) -.0026(8)
K5 K1+ 0.0513(9) 0.0339(8) 0.0310(7) 0.0033(7) 0.0082(7) 0.0067(6)
Fe1 Fe3+ 0.0123(4) 0.0138(4) 0.0108(4) 0.0008(3) -.0003(3) -.0009(3)
Fe2 Fe3+ 0.0125(4) 0.0147(4) 0.0116(4) 0.0005(3) -.0008(3) -.0004(3)
Fe3 Fe3+ 0.0136(4) 0.0164(4) 0.0111(4) 0.0014(3) -.0001(3) -.0003(3)
S1 S6+ 0.0177(6) 0.0146(6) 0.0135(6) 0.0004(5) -.0002(5) -.0032(5)
S2 S6+ 0.0176(6) 0.0142(6) 0.0164(6) -.0014(5) 0.0004(5) 0.0035(5)
S3 S6+ 0.0162(6) 0.0145(6) 0.0192(7) -.0015(5) 0.0002(5) -.0009(5)
S4 S6+ 0.0131(6) 0.0166(6) 0.0183(6) 0.0013(5) -.0001(5) 0.0006(5)
S5 S6+ 0.0194(6) 0.0170(7) 0.0149(6) 0.0028(5) -.0026(5) 0.0014(5)
S6 S6+ 0.0183(6) 0.0154(6) 0.0160(6) 0.0007(5) -.0025(5) -.0037(5)
O1 O2- 0.0272(19) 0.0160(18) 0.0136(18) 0.0040(15) -.0066(15) -.0031(15)
O2 O2- 0.0187(18) 0.0292(20) 0.0145(18) 0.0052(16) 0.0000(15) -.0055(16)
O3 O2- 0.0216(19) 0.0290(21) 0.0178(19) -.0003(16) 0.0043(15) -.0029(16)
O4 O2- 0.0354(22) 0.0166(19) 0.0278(21) -.0045(16) -.0046(17) -.0024(16)
O5 O2- 0.0208(18) 0.0189(18) 0.0147(18) 0.0025(15) 0.0023(15) 0.0043(15)
O6 O2- 0.0187(19) 0.0248(20) 0.0369(23) 0.0014(16) 0.0004(16) 0.0163(18)
O7 O2- 0.0335(22) 0.0481(26) 0.0163(20) 0.0062(20) 0.0038(17) 0.0094(19)
O8 O2- 0.0398(24) 0.0173(20) 0.0385(24) 0.0023(18) -.0085(19) -.0063(18)
O9 O2- 0.0340(21) 0.0242(20) 0.0178(19) -.0122(17) 0.0066(16) -.0026(16)
O10 O2- 0.0189(18) 0.0208(19) 0.0199(19) -.0015(15) 0.0030(15) -.0026(15)
O11 O2- 0.0197(19) 0.0280(21) 0.0297(21) -.0033(16) -.0020(16) -.0012(17)
O12 O2- 0.0242(20) 0.022(2) 0.0371(23) 0.0019(16) 0.0010(17) 0.0017(18)
O13 O2- 0.0176(18) 0.0271(20) 0.0163(18) 0.0053(16) -.0029(15) -.0028(16)
O14 O2- 0.0212(19) 0.0171(19) 0.0242(20) 0.0041(15) -.0079(15) -.0030(16)
O15 O2- 0.0167(19) 0.0297(22) 0.0327(22) -.0001(16) 0.0029(16) -.0046(18)
O16 O2- 0.0359(23) 0.0206(20) 0.0348(23) 0.0033(17) -.0030(19) 0.0007(18)
O17 O2- 0.0228(20) 0.0375(24) 0.0281(21) 0.0084(18) 0.0088(17) 0.0129(19)
O18 O2- 0.0229(20) 0.0405(24) 0.0196(20) 0.0045(18) -.0001(16) 0.0106(18)
O19 O2- 0.0383(23) 0.0332(22) 0.0146(19) -.0035(18) -.0056(17) -.0014(17)
O20 O2- 0.0474(26) 0.0221(21) 0.0441(26) 0.0040(19) -.0144(21) -.0040(19)
O21 O2- 0.0188(19) 0.0529(27) 0.0244(21) -.0084(18) 0.0026(16) -.0178(20)
O22 O2- 0.0274(20) 0.0237(20) 0.0194(19) -.0060(16) 0.0028(16) -.0107(16)
O23 O2- 0.0222(20) 0.0436(25) 0.0226(21) 0.0039(18) -.0109(16) -.0053(18)
O24 O2- 0.0767(33) 0.0207(22) 0.0291(22) 0.0097(21) -.0073(22) -.0073(18)
O25 O2- 0.0132(16) 0.0194(18) 0.0113(16) 0.0030(14) 0.0000(13) -.0006(14)
O26 O2- 0.0110(17) 0.0243(20) 0.0344(22) 0.0005(15) -.0023(16) 0.0012(17)
O27 O2- 0.0253(20) 0.0410(24) 0.0153(18) 0.0082(18) -.0033(15) -.0081(17)
O28 O2- 0.0278(20) 0.0266(20) 0.0158(18) 0.0043(17) 0.0049(15) 0.0039(16)
O29 O2- 0.0573(35) 0.1369(56) 0.0725(41) -.0167(37) -.0219(31) 0.0473(40)
O30 O2- 0.0948(47) 0.0931(49) 0.1040(42) 0.0137(39) -.0194(40) -.0393(41)
O31 O2- 0.0330(25) 0.0362(29) 0.0711(34) 0.0063(21) 0.0049(23) 0.0043(25)
O32 O2- 0.0777(39) 0.0809(41) 0.0532(34) -.0048(32) 0.0212(29) 0.0128(30)
O33 O2- 0.0451(28) 0.0730(36) 0.0560(32) 0.0118(26) -.0019(24) -.0129(28)
O34 O2- 0.0278(22) 0.0552(29) 0.0463(27) -.0032(21) 0.0069(20) 0.0010(23)
O35 O2- 0.0443(26) 0.0437(26) 0.0351(25) -.0214(21) -.0066(20) 0.0133(21)
#End of data_1438-ICSD


