data_408000-ICSD
#?2014 by Fachinformationszentrum Karlsruhe, and the U.S. Secretary of 
#Commerce on behalf of the United States.  All rights reserved.
_database_code_ICSD                408000
_audit_creation_date               1999/06/02
_chemical_name_systematic          'Tetrapotassium Dibismuthate(III)'
_chemical_formula_structural       'K4 (Bi2 O5)'
_chemical_formula_sum              'Bi2 K4 O5'
_publ_section_title
;
K4 Bi2 O5, a novel ternary oxobismuthate(III)
;
loop_
_citation_id
_citation_journal_abbrev
_citation_year
_citation_journal_volume
_citation_page_first
_citation_page_last
_citation_journal_id_ASTM
primary 'Journal of Solid State Chemistry' 1998 139 342 346 JSSCBI
_publ_author_name                  'Zoche, N.;Sievers, R.;Jansen, M.'
_cell_length_a                     5.693(2)
_cell_length_b                     9.528(4)
_cell_length_c                     9.786(2)
_cell_angle_alpha                  106.47(2)
_cell_angle_beta                   105.06(2)
_cell_angle_gamma                  106.42(3)
_cell_volume                       453.71
_cell_formula_units_Z              2
_symmetry_space_group_name_H-M     'P -1'
_symmetry_Int_Tables_number        2
_refine_ls_R_factor_all            .0386
loop_
_symmetry_equiv_pos_site_id
_symmetry_equiv_pos_as_xyz
  1	'-x, -y, -z'
  2	'x, y, z'
loop_
_atom_type_symbol
_atom_type_oxidation_number
Bi3+	3
K1+	1
O2-	-2
loop_
_atom_site_label
_atom_site_type_symbol
_atom_site_symmetry_multiplicity
_atom_site_Wyckoff_symbol
_atom_site_fract_x
_atom_site_fract_y
_atom_site_fract_z
_atom_site_occupancy
_atom_site_attached_hydrogens
Bi1 Bi3+ 2 i -.10189(5) 0.11904(3) 0.12466(3) 1. 0 
Bi2 Bi3+ 2 i 0.14155(5) 0.54355(3) 0.22877(3) 1. 0 
K1 K1+ 2 i 0.3951(4) 0.2986(2) -.0436(2) 1. 0 
K2 K1+ 2 i 0.6307(4) 0.3795(2) 0.3681(2) 1. 0 
K3 K1+ 2 i -.1229(4) 0.7858(2) 0.4509(2) 1. 0 
K4 K1+ 2 i 0.3970(4) 0.9913(2) 0.3137(2) 1. 0 
O1 O2- 2 i 0.2543(11) 0.1189(6) 0.1099(6) 1. 0 
O2 O2- 2 i -.1312(12) -.0035(6) 0.2625(6) 1. 0 
O3 O2- 2 i 0.1167(12) 0.3732(6) 0.3329(7) 1. 0 
O4 O2- 2 i 0.3508(12) 0.7492(6) 0.4195(7) 1. 0 
O5 O2- 2 i -.2242(12) 0.5424(6) 0.1981(7) 1. 0 

loop_
_atom_site_aniso_label
_atom_site_aniso_type_symbol
_atom_site_aniso_U_11
_atom_site_aniso_U_22
_atom_site_aniso_U_33
_atom_site_aniso_U_12
_atom_site_aniso_U_13
_atom_site_aniso_U_23
Bi1 Bi3+ 0.0150(2) 0.01212(13) 0.00941(15) 0.00647(11) 0.00360(11) 
0.00624(11)
Bi2 Bi3+ 0.0166(2) 0.01234(13) 0.00794(14) 0.00620(11) 0.00462(11) 
0.00575(10)
K1 K1+ 0.0260(9) 0.0144(7) 0.0153(8) 0.0064(7) 0.0048(7) 0.0093(6)
K2 K1+ 0.0207(8) 0.0188(7) 0.0139(8) 0.0072(7) 0.0060(7) 0.0103(7)
K3 K1+ 0.0208(9) 0.0244(8) 0.0170(8) 0.0099(7) 0.0034(7) 0.0005(7)
K4 K1+ 0.0273(9) 0.0181(7) 0.0155(8) 0.0108(7) 0.0081(7) 0.0105(7)
O1 O2- 0.020(3) 0.018(2) 0.009(2) 0.007(2) 0.010(2) 0.008(2)
O2 O2- 0.027(3) 0.017(2) 0.013(3) 0.008(2) 0.010(2) 0.011(2)
O3 O2- 0.024(3) 0.011(2) 0.013(3) 0.004(2) 0.004(2) 0.000(2)
O4 O2- 0.021(3) 0.016(2) 0.012(3) 0.005(2) -.001(2) 0.003(2)
O5 O2- 0.020(3) 0.017(2) 0.015(3) 0.007(2) 0.004(2) 0.009(2)
#End of data_408000-ICSD


