data_163128-ICSD
#?2014 by Fachinformationszentrum Karlsruhe, and the U.S. Secretary of 
#Commerce on behalf of the United States.  All rights reserved.
_database_code_ICSD                163128
_audit_creation_date               2009/08/01
_chemical_name_systematic          'Sodium Vanadium Catena-disilicate'
_chemical_formula_structural       'Na V (Si2 O6)'
_chemical_formula_sum              'Na1 O6 Si2 V1'
_chemical_name_mineral             Unnamed_Clinopyroxene
_publ_section_title
;
Lattice compression and structural behavior of Na V Si2 O6 
clinopyroxene to 11 GPa
;
loop_
_citation_id
_citation_journal_abbrev
_citation_year
_citation_journal_volume
_citation_page_first
_citation_page_last
_citation_journal_id_ASTM
primary 'American Mineralogist' 2009 94 557 564 AMMIAY
_publ_author_name
;
Ullrich, A.;Miletich, R.;Nestola, F.;Weikusat, C.;Ohashi, H.
;
_cell_length_a                     9.496(10)
_cell_length_b                     8.568(9)
_cell_length_c                     5.201(4)
_cell_angle_alpha                  90.
_cell_angle_beta                   106.25(8)
_cell_angle_gamma                  90.
_cell_volume                       406.26
_cell_formula_units_Z              4
_symmetry_space_group_name_H-M     'C 1 2/c 1'
_symmetry_Int_Tables_number        15
_refine_ls_R_factor_all            .0437
loop_
_symmetry_equiv_pos_site_id
_symmetry_equiv_pos_as_xyz
  1	'x, -y, z+.5'
  2	'-x, -y, -z'
  3	'-x, y, -z+.5'
  4	'x, y, z'
  5	'x+.5, -y+.5, z+.5'
  6	'-x+.5, -y+.5, -z'
  7	'-x+.5, y+.5, -z+.5'
  8	'x+.5, y+.5, z'
loop_
_atom_type_symbol
_atom_type_oxidation_number
Na1+	1
O2-	-2
Si4+	4
V3+	3
loop_
_atom_site_label
_atom_site_type_symbol
_atom_site_symmetry_multiplicity
_atom_site_Wyckoff_symbol
_atom_site_fract_x
_atom_site_fract_y
_atom_site_fract_z
_atom_site_occupancy
_atom_site_attached_hydrogens
_atom_site_U_iso_or_equiv
Na1 Na1+ 4 e 0 0.3064(6) 0.250 1. 0 0.0134(11) 
V1 V3+ 4 e 0 0.9068(3) 0.250 1. 0 0.0074(6) 
Si1 Si4+ 8 f 0.2922(3) 0.0930(3) 0.2401(4) 1. 0 0.0067(6) 
O1 O2- 8 f 0.1157(6) 0.0831(7) 0.1455(9) 1. 0 0.0061(12) 
O2 O2- 8 f 0.3596(8) 0.2605(7) 0.3183(11) 1. 0 0.0102(13) 
O3 O2- 8 f 0.3553(7) 0.0168(7) 0.0044(10) 1. 0 0.0090(12) 

#End of data_163128-ICSD


