data_246140-ICSD
#?2014 by Fachinformationszentrum Karlsruhe, and the U.S. Secretary of 
#Commerce on behalf of the United States.  All rights reserved.
_database_code_ICSD                246140
_audit_creation_date               2009/02/01
_chemical_name_systematic          'Calcium Amidoborane'
_chemical_formula_structural       'Ca (N H2 B H3)2'
_chemical_formula_sum              'H10 B2 Ca1 N2'
_publ_section_title
;
Alkali and alkaline-earth metal amidoboranes: Structure, crystal 
chemistry, and hydrogen storage properties
;
loop_
_citation_id
_citation_journal_abbrev
_citation_year
_citation_journal_volume
_citation_journal_issue
_citation_page_first
_citation_page_last
_citation_journal_id_ASTM
primary 'Journal of the American Chemical Society' 2008 130 44 14834 14839 JACSAT
_publ_author_name                  'Wu Hui;Zhou Wei;Yildirim, T.'
_cell_length_a                     9.100(2)
_cell_length_b                     4.731(1)
_cell_length_c                     6.441(2)
_cell_angle_alpha                  90.
_cell_angle_beta                   93.19(2)
_cell_angle_gamma                  90.
_cell_volume                       276.87
_cell_formula_units_Z              2
_symmetry_space_group_name_H-M     'C 1 2 1'
_symmetry_Int_Tables_number        5
loop_
_symmetry_equiv_pos_site_id
_symmetry_equiv_pos_as_xyz
  1	'-x, y, -z'
  2	'x, y, z'
  3	'-x+.5, y+.5, -z'
  4	'x+.5, y+.5, z'
loop_
_atom_type_symbol
_atom_type_oxidation_number
B3+	3
Ca2+	2
H1-	-1
H1+	1
N3-	-3
loop_
_atom_site_label
_atom_site_type_symbol
_atom_site_symmetry_multiplicity
_atom_site_Wyckoff_symbol
_atom_site_fract_x
_atom_site_fract_y
_atom_site_fract_z
_atom_site_occupancy
_atom_site_attached_hydrogens
B1 B3+ 4 c 0.83234 0.03289 0.79012 1. 0 
N1 N3- 4 c 0.67050 0.95782 0.72330 1. 0 
H1 H1- 4 c 0.92498 0.87340 0.70563 1. 0 
H2 H1- 4 c 0.14178 0.29997 0.25553 1. 0 
H3 H1- 4 c 0.85512 0.00574 0.98245 1. 0 
H4 H1+ 4 c 0.63958 0.06673 0.58681 1. 0 
H5 H1+ 4 c 0.34391 0.72990 0.30919 1. 0 
Ca1 Ca2+ 2 a 0 0.55723 0 1. 0 

#End of data_246140-ICSD


