data_62646-ICSD
#?2014 by Fachinformationszentrum Karlsruhe, and the U.S. Secretary of 
#Commerce on behalf of the United States.  All rights reserved.
_database_code_ICSD                62646
_audit_creation_date               1988/02/22
_audit_update_record               1990/06/01
_chemical_name_systematic
;
Dicopper Potassium Hydroxide Bis(monofluorophosphate) Hydrate
;
_chemical_formula_structural       'Cu2 K (O H) (P O3 F)2 (H2 O)'
_chemical_formula_sum              'H3 Cu2 F2 K1 O8 P2'
_publ_section_title
;
Darstellung und Kristallstruktur von Kalium-dikupferhydroxid-
bis(monofluorophosphat)-Monohydrat Cu2 K (O H) (P O3 F)2 * H2 O.
;
loop_
_citation_id
_citation_journal_abbrev
_citation_year
_citation_journal_volume
_citation_page_first
_citation_page_last
_citation_journal_id_ASTM
primary 'Zeitschrift fuer Anorganische und Allgemeine Chemie (1950) (DE)'
 1987 547 75 82 ZAACAB
_publ_author_name
;
Moewius, F.;Ziemer, B.;Reck, G.;Meisel, M.;Grunze, H.
;
_cell_length_a                     9.094(4)
_cell_length_b                     7.755(6)
_cell_length_c                     6.333(3)
_cell_angle_alpha                  90.
_cell_angle_beta                   90.
_cell_angle_gamma                  117.55(5)
_cell_volume                       395.98
_cell_formula_units_Z              2
_symmetry_space_group_name_H-M     'B 1 1 2/m'
_symmetry_Int_Tables_number        12
_refine_ls_R_factor_all            .0251
loop_
_symmetry_equiv_pos_site_id
_symmetry_equiv_pos_as_xyz
  1	'-x, -y, z'
  2	'-x, -y, -z'
  3	'x, y, -z'
  4	'x, y, z'
  5	'-x+.5, -y, z+.5'
  6	'-x+.5, -y, -z+.5'
  7	'x+.5, y, -z+.5'
  8	'x+.5, y, z+.5'
loop_
_atom_type_symbol
_atom_type_oxidation_number
Cu2+	2
F1-	-1
H1+	1
K1+	1
O2-	-2
P5+	5
loop_
_atom_site_label
_atom_site_type_symbol
_atom_site_symmetry_multiplicity
_atom_site_Wyckoff_symbol
_atom_site_fract_x
_atom_site_fract_y
_atom_site_fract_z
_atom_site_occupancy
_atom_site_attached_hydrogens
_atom_site_U_iso_or_equiv
K1 K1+ 2 a 0 0 0 1. 0 0 
Cu1 Cu2+ 4 f 0.25 0.5 0.25 1. 0 0 
P1 P5+ 4 i 0.4322 0.2349 0 1. 0 0 
F1 F1- 4 i 0.3203 0.0087 0 1. 0 0 
O1 O2- 4 i 0.3122 0.3171 0 1. 0 0 
O2 O2- 8 j 0.0332 0.2747 0.3015 1. 0 0 
O3 O2- 4 i 0.1545 0.5727 0 1. 0 0 
H1 H1+ 2 d 0.5 0.5 0.5 1. 0 0.02 
H2 H1+ 4 i 0.2902 0.3018 0.5 1. 0 0.02 

loop_
_atom_site_aniso_label
_atom_site_aniso_type_symbol
_atom_site_aniso_U_11
_atom_site_aniso_U_22
_atom_site_aniso_U_33
_atom_site_aniso_U_12
_atom_site_aniso_U_13
_atom_site_aniso_U_23
K1 K1+ 0.012 0.0115 0.0188 0.0028 0 0
Cu1 Cu2+ 0.0054 0.0113 0.0076 0.0021 0 0
P1 P5+ 0.0055 0.0111 0.007 0.0036 0 0
F1 F1- 0.0147 0.0088 0.0303 0.0015 0 0
O1 O2- 0.0096 0.0133 0.0144 0.0069 0 0
O2 O2- 0.0074 0.015 0.0088 0.0024 -.0018 0.0022
O3 O2- 0.0086 0.0121 0.0113 0.0052 0 0
#End of data_62646-ICSD


