data_423847-ICSD
#?2014 by Fachinformationszentrum Karlsruhe, and the U.S. Secretary of 
#Commerce on behalf of the United States.  All rights reserved.
_database_code_ICSD                423847
_audit_creation_date               2012/08/01
_chemical_name_systematic
;
Lithium Sodium Nickel Phosphate Fluoride
;
_chemical_formula_structural       'Li Na Ni (P O4) F'
_chemical_formula_sum              'F1 Li1 Na1 Ni1 O4 P1'
_publ_section_title
;
Single crystal x-ray structure study of the Li2-x Nax Ni (P O4) F 
system
;
loop_
_citation_id
_citation_journal_abbrev
_citation_year
_citation_journal_volume
_citation_page_first
_citation_page_last
_citation_journal_id_ASTM
primary 'Dalton Transactions' 2012 41 5838 5847 DTARAF
_publ_author_name
;
Ben Yahia, H.;Shikano, M.;Koike, S.;Tatsumi, K.;Kobayashi, H.
;
_cell_length_a                     6.772(4)
_cell_length_b                     11.154(6)
_cell_length_c                     5.021(3)
_cell_angle_alpha                  90
_cell_angle_beta                   90
_cell_angle_gamma                  90
_cell_volume                       379.26
_cell_formula_units_Z              4
_symmetry_space_group_name_H-M     'P 1 21/c 1'
_symmetry_Int_Tables_number        14
_refine_ls_R_factor_all            .0228
loop_
_symmetry_equiv_pos_site_id
_symmetry_equiv_pos_as_xyz
  1	'x, -y+.5, z+.5'
  2	'-x, -y, -z'
  3	'-x, y+.5, -z+.5'
  4	'x, y, z'
loop_
_atom_type_symbol
_atom_type_oxidation_number
F1-	-1
Li1+	1
Na1+	1
Ni2+	2
O2-	-2
P5+	5
loop_
_atom_site_label
_atom_site_type_symbol
_atom_site_symmetry_multiplicity
_atom_site_Wyckoff_symbol
_atom_site_fract_x
_atom_site_fract_y
_atom_site_fract_z
_atom_site_occupancy
_atom_site_attached_hydrogens
_atom_site_U_iso_or_equiv
Na1 Na1+ 4 e 0.5099(2) 0.16529(11) 0.7480(3) 1 0 0.0149(5) 
Li1 Li1+ 4 e -0.2537(8) 0.0823(4) 0.2344(15) 1 0 0.0062(15) 
Ni1 Ni2+ 4 e -0.01963(7) 0.17231(3) 0.76617(9) 1 0 0.00562(13) 
P1 P5+ 4 e 0.24213(13) 0.41794(6) 0.7742(2) 1 0 0.0049(2) 
O1 O2- 4 e -0.5461(3) 0.12388(19) 0.2372(5) 1 0 0.0118(6) 
O2 O2- 4 e 0.1029(4) 0.32913(19) 0.6364(5) 1 0 0.0100(7) 
O3 O2- 4 e 0.1937(4) 0.07442(18) 0.5745(5) 1 0 0.0086(7) 
O4 O2- 4 e 0.2160(4) -0.04105(18) 0.1445(4) 1 0 0.0085(6) 
F1 F1- 4 e -0.2096(3) 0.21364(17) 0.4652(3) 1 0 0.0102(5) 

loop_
_atom_site_aniso_label
_atom_site_aniso_type_symbol
_atom_site_aniso_U_11
_atom_site_aniso_U_22
_atom_site_aniso_U_33
_atom_site_aniso_U_12
_atom_site_aniso_U_13
_atom_site_aniso_U_23
Na1 Na1+ 0.0140(8) 0.0140(7) 0.0166(9) 0.0026(5) -0.0015(13) 0.0005(6)
Li1 Li1+ 0.009(3) 0.006(2) 0.004(3) 0.0029(17) -0.005(4) -0.0030(18)
Ni1 Ni2+ 0.0059(2) 0.0049(2) 0.0060(2) -0.00009(13) 0.0005(2) -0.00021(16)
P1 P5+ 0.0050(4) 0.0041(4) 0.0056(4) -0.0003(2) -0.0004(5) 0.0000(3)
O1 O2- 0.0079(11) 0.0123(10) 0.0152(12) -0.0029(8) -0.0004(13) -0.0013(10)
O2 O2- 0.0141(14) 0.0081(10) 0.0078(12) -0.0058(8) -0.0018(10) 0.0019(8)
O3 O2- 0.0085(13) 0.0102(11) 0.0072(11) 0.0017(9) 0.0006(10) 0.0005(8)
O4 O2- 0.0098(12) 0.0054(10) 0.0103(11) -0.0016(9) 0.0014(10) -0.0008(9)
F1 F1- 0.0068(10) 0.0121(9) 0.0116(9) -0.0023(7) -0.0004(8) 0.0019(8)
#End of data_423847-ICSD


