data_200381-ICSD
#?2014 by Fachinformationszentrum Karlsruhe, and the U.S. Secretary of 
#Commerce on behalf of the United States.  All rights reserved.
_database_code_ICSD                200381
_audit_creation_date               1980/01/01
_audit_update_record               2006/04/01
_chemical_name_systematic
;
Dipotassium Dicadmium Tris(sulfate(VI))
;
_chemical_formula_structural       'K2 Cd2 (S O4)3'
_chemical_formula_sum              'Cd2 K2 O12 S3'
_publ_section_title
;
Piezoelectric langbeinite-type K2 Cd2 (S O4)3. Room temperature 
crystal structure and ferroelastic transformation
;
loop_
_citation_id
_citation_journal_abbrev
_citation_year
_citation_journal_volume
_citation_page_first
_citation_page_last
_citation_journal_id_ASTM
primary 'Journal of Chemical Physics' 1977 67 2146 2150 JCPSA6
2 'Golden Book of Phase Transitions, Wroclaw' 2002 1 1 123 GBOPT5
_publ_author_name                  'Abrahams, S.C.;Bernstein, J.L.'
_cell_length_a                     10.2082(2)
_cell_length_b                     10.2837(3)
_cell_length_c                     10.1661(1)
_cell_angle_alpha                  90.
_cell_angle_beta                   90.
_cell_angle_gamma                  90.
_cell_volume                       1067.22
_cell_formula_units_Z              4
_symmetry_space_group_name_H-M     'P 21 21 21'
_symmetry_Int_Tables_number        19
_refine_ls_R_factor_all            .023
loop_
_symmetry_equiv_pos_site_id
_symmetry_equiv_pos_as_xyz
  1	'-x, y+.5, -z+.5'
  2	'x+.5, -y+.5, -z'
  3	'-x+.5, -y, z+.5'
  4	'x, y, z'
loop_
_atom_type_symbol
_atom_type_oxidation_number
Cd2+	2
K1+	1
O2-	-2
S6+	6
loop_
_atom_site_label
_atom_site_type_symbol
_atom_site_symmetry_multiplicity
_atom_site_Wyckoff_symbol
_atom_site_fract_x
_atom_site_fract_y
_atom_site_fract_z
_atom_site_occupancy
_atom_site_attached_hydrogens
K1 K1+ 4 a 0.16989(9) 0.31338(3) 0.69258(10) 1. 0 
K2 K1+ 4 a 0.03765(10) 0.05560(12) 0.06124(10) 1. 0 
Cd1 Cd2+ 4 a 0.30676(2) 0.34101(3) 0.33128(2) 1. 0 
Cd2 Cd2+ 4 a 0.39839(2) 0.09032(3) 0.92583(3) 1. 0 
S1 S6+ 4 a 0.21419(8) 0.37197(8) 0.02572(9) 1. 0 
S2 S6+ 4 a 0.38453(8) 0.00656(8) 0.24690(8) 1. 0 
S3 S6+ 4 a 0.00024(8) 0.21601(8) 0.36872(8) 1. 0 
O1 O2- 4 a 0.3054(4) 0.2626(3) 0.0329(4) 1. 0 
O2 O2- 4 a 0.0822(3) 0.3261(3) 0.9885(3) 1. 0 
O3 O2- 4 a 0.2596(3) 0.4639(3) 0.9240(4) 1. 0 
O4 O2- 4 a 0.2101(3) 0.4349(3) 0.1571(3) 1. 0 
O5 O2- 4 a 0.3057(3) 0.9313(3) 0.3409(3) 1. 0 
O6 O2- 4 a 0.3921(3) 0.1431(3) 0.2867(4) 1. 0 
O7 O2- 4 a 0.5191(3) 0.9549(3) 0.2534(4) 1. 0 
O8 O2- 4 a 0.3286(4) 0.9897(4) 0.1157(3) 1. 0 
O9 O2- 4 a 0.0562(3) 0.0939(3) 0.3175(3) 1. 0 
O10 O2- 4 a 0.9034(3) 0.1884(4) 0.4706(3) 1. 0 
O11 O2- 4 a 0.9344(3) 0.2816(4) 0.2594(4) 1. 0 
O12 O2- 4 a 0.1056(3) 0.2988(4) 0.4220(3) 1. 0 

#End of data_200381-ICSD


