data_290137-ICSD
#?2014 by Fachinformationszentrum Karlsruhe, and the U.S. Secretary of 
#Commerce on behalf of the United States.  All rights reserved.
_database_code_ICSD                290137
_audit_creation_date               2013/08/01
_chemical_name_systematic
;
Dicalcium Tecto-dihydroxopentadecaoxotetraalumotetrasilicate 
Tetrahydrate
;
_chemical_formula_structural       'Ca2 (Al4 Si4 O15 (O H)2) (H2 O)4'
_chemical_formula_sum              'H10 Al4 Ca2 O21 Si4'
_chemical_name_mineral             Partheite
_publ_section_title
;
Hydrogen-bond system and dehydration behavior of the natural zeolite 
partheite
;
loop_
_citation_id
_citation_journal_abbrev
_citation_year
_citation_journal_volume
_citation_journal_issue
_citation_page_first
_citation_page_last
_citation_journal_id_ASTM
primary 'American Mineralogist' 2012 97 11-12 1866 1873 AMMIAY
_publ_author_name
;
Lazic, B.;Armbruster, T.;Liebich, B.W.;Perfler, L.
;
_cell_length_a                     21.5474(4)
_cell_length_b                     8.75638(15)
_cell_length_c                     9.30578(16)
_cell_angle_alpha                  90
_cell_angle_beta                   91.5524(18)
_cell_angle_gamma                  90
_cell_volume                       1755.14
_cell_formula_units_Z              4
_symmetry_space_group_name_H-M     'C 1 2/c 1'
_symmetry_Int_Tables_number        15
_refine_ls_R_factor_all            .0346
loop_
_symmetry_equiv_pos_site_id
_symmetry_equiv_pos_as_xyz
  1	'x, -y, z+.5'
  2	'-x, -y, -z'
  3	'-x, y, -z+.5'
  4	'x, y, z'
  5	'x+.5, -y+.5, z+.5'
  6	'-x+.5, -y+.5, -z'
  7	'-x+.5, y+.5, -z+.5'
  8	'x+.5, y+.5, z'
loop_
_atom_type_symbol
_atom_type_oxidation_number
Al3+	3
Ca2+	2
H1+	1
O2-	-2
Si4+	4
loop_
_atom_site_label
_atom_site_type_symbol
_atom_site_symmetry_multiplicity
_atom_site_Wyckoff_symbol
_atom_site_fract_x
_atom_site_fract_y
_atom_site_fract_z
_atom_site_occupancy
_atom_site_attached_hydrogens
_atom_site_U_iso_or_equiv
Si1 Si4+ 8 f 0.06721(3) 0.18348(8) 0.28940(7) 1 0 0.00653(15) 
Si2 Si4+ 8 f 0.23984(3) 0.00789(8) 0.46198(7) 1 0 0.00596(15) 
Al1 Al3+ 8 f 0.11617(4) 0.08403(9) 0.60078(8) 1 0 0.00693(17) 
Al2 Al3+ 8 f 0.19981(4) 0.31654(9) 0.28577(8) 1 0 0.00626(16) 
Ca1 Ca2+ 8 f 0.35596(3) 0.19896(6) 0.04443(6) 1 0 0.01130(13) 
O1 O2- 8 f 0.06952(8) 0.0168(2) 0.21617(19) 1 0 0.0098(4) 
O2 O2- 8 f 0.07252(8) 0.1721(2) 0.46320(19) 1 0 0.0100(4) 
O3 O2- 8 f 0.12242(8) 0.2886(2) 0.22936(19) 1 0 0.0094(4) 
O4 O2- 8 f 0.17245(8) 0.0354(2) 0.02491(19) 1 0 0.0093(4) 
O5 O2- 8 f 0.20795(8) 0.46651(19) 0.40976(19) 1 0 0.0090(4) 
O6 O2- 8 f 0.23450(9) 0.1559(2) 0.36083(19) 1 0 0.0109(4) 
O7 O2- 8 f 0.23371(8) 0.3601(2) 0.12194(18) 1 0 0.0084(4) 
O8 O2- 4 e 0 0.2627(3) 0.25 1 0 0.0082(5) 
O9 O2- 8 f 0.35277(9) 0.2676(2) 0.2914(2) 1 0 0.0125(4) 
O10 O2- 8 f 0.07184(11) 0.5030(3) 0.0158(3) 1 0 0.0342(6) 
O11 O2- 8 f 0.45417(10) 0.3049(3) 0.0797(2) 1 0 0.0212(5) 
H1 H1+ 8 f 0.4552(17) 0.387(3) 0.141(3) 1 0 0.038(11) 
H2 H1+ 8 f 0.4911(12) 0.312(5) 0.033(4) 1 0 0.051(13) 
H3 H1+ 8 f 0.3205(12) 0.216(4) 0.327(4) 1 0 0.034(10) 
H4 H1+ 8 f 0.051(3) 0.466(8) 0.095(5) 1 0 0.18(3) 
H5 H1+ 8 f 0.0772(19) 0.609(2) 0.014(5) 1 0 0.060(14) 

loop_
_atom_site_aniso_label
_atom_site_aniso_type_symbol
_atom_site_aniso_U_11
_atom_site_aniso_U_22
_atom_site_aniso_U_33
_atom_site_aniso_U_12
_atom_site_aniso_U_13
_atom_site_aniso_U_23
Si1 Si4+ 0.0059(3) 0.0079(3) 0.0059(3) 0.0000(3) 0.0005(3) 0.0002(3)
Si2 Si4+ 0.0062(3) 0.0061(3) 0.0057(3) 0.0009(3) 0.0007(3) -0.0003(3)
Al1 Al3+ 0.0072(4) 0.0079(4) 0.0058(4) 0.0005(3) 0.0010(3) 0.0013(3)
Al2 Al3+ 0.0068(4) 0.0064(4) 0.0055(3) -0.0009(3) 0.0001(3) 0.0004(3)
Ca1 Ca2+ 0.0126(3) 0.0107(3) 0.0105(3) -0.0031(2) -0.0020(2) 0.0002(2)
O1 O2- 0.0094(9) 0.0107(9) 0.0095(9) -0.0003(7) 0.0044(8) -0.0017(7)
O2 O2- 0.0106(9) 0.0117(9) 0.0076(9) 0.0026(7) 0.0004(8) 0.0008(7)
O3 O2- 0.0075(9) 0.0110(9) 0.0096(9) -0.0020(7) 0.0000(7) 0.0012(7)
O4 O2- 0.0065(9) 0.0097(9) 0.0119(9) 0.0004(7) 0.0037(7) -0.0005(7)
O5 O2- 0.0101(9) 0.0085(9) 0.0084(9) 0.0004(7) -0.0016(7) -0.0011(7)
O6 O2- 0.0139(10) 0.0090(9) 0.0099(9) 0.0012(7) -0.0002(8) 0.0045(7)
O7 O2- 0.0112(9) 0.0089(9) 0.0053(8) -0.0031(7) 0.0023(7) 0.0003(7)
O8 O2- 0.0046(12) 0.0088(12) 0.0112(12) 0 -0.0006(10) 0
O9 O2- 0.0123(10) 0.0139(10) 0.0114(9) -0.0051(8) 0.0011(8) -0.0023(8)
O10 O2- 0.0301(14) 0.0124(12) 0.0604(18) 0.0015(10) 0.0062(13) 0.0054(12)
O11 O2- 0.0145(11) 0.0265(12) 0.0231(12) -0.0073(9) 0.0081(9) -0.0139(10)
#End of data_290137-ICSD


