data_153542-ICSD
#?2014 by Fachinformationszentrum Karlsruhe, and the U.S. Secretary of 
#Commerce on behalf of the United States.  All rights reserved.
_database_code_ICSD                153542
_audit_creation_date               2006/10/01
_chemical_name_systematic
;
Dipotassium Strontium Vanado(IV)divanadate
;
_chemical_formula_structural       'K2 Sr (V3 O9)'
_chemical_formula_sum              'K2 O9 Sr1 V3'
_publ_section_title
;
Crystal structure and properties of the new complex vanadium oxide K2 
Sr V3 O9
;
loop_
_citation_id
_citation_journal_abbrev
_citation_year
_citation_journal_volume
_citation_page_first
_citation_page_last
_citation_journal_id_ASTM
primary 'Materials Research Bulletin' 2005 40 800 809 MRBUAC
_publ_author_name
;
Tsirlin, A.A.;Chernaya, V.V.;Shpanchenko, R.V.;Antipov, 
E.V.;Hadermann, J.
;
_cell_length_a                     10.19198(12)
_cell_length_b                     5.41684(2)
_cell_length_c                     16.1416(2)
_cell_angle_alpha                  90.
_cell_angle_beta                   90.
_cell_angle_gamma                  90.
_cell_volume                       891.15
_cell_formula_units_Z              4
_symmetry_space_group_name_H-M     'P n m a'
_symmetry_Int_Tables_number        62
_refine_ls_R_factor_all            .018
loop_
_symmetry_equiv_pos_site_id
_symmetry_equiv_pos_as_xyz
  1	'x+.5, y, -z+.5'
  2	'x, -y+.5, z'
  3	'-x+.5, y+.5, z+.5'
  4	'-x, -y, -z'
  5	'-x+.5, -y, z+.5'
  6	'-x, y+.5, -z'
  7	'x+.5, -y+.5, -z+.5'
  8	'x, y, z'
loop_
_atom_type_symbol
_atom_type_oxidation_number
K1+	1
O2-	-2
Sr2+	2
V4+	4
V5+	5
loop_
_atom_site_label
_atom_site_type_symbol
_atom_site_symmetry_multiplicity
_atom_site_Wyckoff_symbol
_atom_site_fract_x
_atom_site_fract_y
_atom_site_fract_z
_atom_site_occupancy
_atom_site_attached_hydrogens
_atom_site_U_iso_or_equiv
Sr1 Sr2+ 4 c 0.9709(2) 0.250 0.88638(9) 1. 0 0.0072(5) 
K1 K1+ 4 c 0.4701(4) 0.250 0.2135(2) 1. 0 0.016(1) 
K2 K1+ 4 c 0.5306(4) 0.250 0.9301(2) 1. 0 0.036(1) 
V1 V4+ 4 c 0.7913(2) 0.250 0.0931(2) 1. 0 0.011(1) 
V2 V5+ 4 c 0.1928(3) 0.250 0.0431(2) 1. 0 0.011(1) 
V3 V5+ 4 c 0.2507(4) 0.250 0.7703(2) 1. 0 0.005(1) 
O1 O2- 4 c 0.6311(8) 0.250 0.0823(6) 1. 0 0.010(1) 
O2 O2- 8 d 0.6432(5) 0.9960(13) 0.5146(4) 1. 0 0.010 
O3 O2- 4 c 0.4049(9) 0.250 0.7852(5) 1. 0 0.010 
O4 O2- 8 d 0.3251(6) 0.0103(9) 0.3204(4) 1. 0 0.010 
O5 O2- 4 c 0.3564(8) 0.250 0.0648(5) 1. 0 0.010 
O6 O2- 4 c 0.7209(8) 0.250 0.8249(5) 1. 0 0.010 
O7 O2- 4 c 0.0975(8) 0.250 0.1336(5) 1. 0 0.010 

#End of data_153542-ICSD


