data_4335-ICSD
#?2014 by Fachinformationszentrum Karlsruhe, and the U.S. Secretary of 
#Commerce on behalf of the United States.  All rights reserved.
_database_code_ICSD                4335
_audit_creation_date               1980/01/01
_audit_update_record               2012/08/01
_chemical_name_systematic          'Rubidium Alumosilicate'
_chemical_formula_structural       'Rb (Al Si O4)'
_chemical_formula_sum              'Al1 O4 Rb1 Si1'
_publ_section_title
;
Die Kristallstruktur und die Verzwillingung von  Rb Al Si O4
;
loop_
_citation_id
_citation_journal_abbrev
_citation_year
_citation_journal_volume
_citation_page_first
_citation_page_last
_citation_journal_id_ASTM
primary
;
Zeitschrift fuer Kristallographie, Kristallgeometrie, Kristallphysik, 
Kristallchemie (-144,1977)
;
 1975 142 225 238 ZEKGAX
2 Naturwissenschaften 1973 60 299 299 NATWAY
_publ_author_name                  'Klaska, R.;Jarchow, O.'
_cell_length_a                     9.226
_cell_length_b                     5.337
_cell_length_c                     8.741
_cell_angle_alpha                  90.
_cell_angle_beta                   90.
_cell_angle_gamma                  90.
_cell_volume                       430.4
_cell_formula_units_Z              4
_symmetry_space_group_name_H-M     'P c 21 n'
_symmetry_Int_Tables_number        33
_refine_ls_R_factor_all            .026
loop_
_symmetry_equiv_pos_site_id
_symmetry_equiv_pos_as_xyz
  1	'-x+.5, y, z+.5'
  2	'x+.5, y+.5, -z+.5'
  3	'-x, y+.5, -z'
  4	'x, y, z'
loop_
_atom_type_symbol
_atom_type_oxidation_number
Al3+	3
O2-	-2
Rb1+	1
Si4+	4
loop_
_atom_site_label
_atom_site_type_symbol
_atom_site_symmetry_multiplicity
_atom_site_Wyckoff_symbol
_atom_site_fract_x
_atom_site_fract_y
_atom_site_fract_z
_atom_site_occupancy
_atom_site_attached_hydrogens
Rb1 Rb1+ 4 a 0.2037(1) 0.5003(9) 0.5009(2) 1. 0 
Si1 Si4+ 4 a 0.0840(2) -.0184(20) 0.1939(2) 1. 0 
Al1 Al3+ 4 a 0.4166(2) -.017(2) 0.3128(2) 1. 0 
O1 O2- 4 a 0.0848(6) -.0176(20) 0.0100(6) 1. 0 
O2 O2- 4 a -.0311(7) -.2247(10) 0.2569(9) 1. 0 
O3 O2- 4 a 0.0381(7) 0.2566(10) 0.2568(9) 1. 0 
O4 O2- 4 a 0.2436(8) -.0957(10) 0.2535(8) 1. 0 

#End of data_4335-ICSD


