data_1861-ICSD
#?2014 by Fachinformationszentrum Karlsruhe, and the U.S. Secretary of 
#Commerce on behalf of the United States.  All rights reserved.
_database_code_ICSD                1861
_audit_creation_date               1980/01/01
_audit_update_record               2010/02/01
_chemical_name_systematic          'Zinc Catena-silicate'
_chemical_formula_structural       'Zn (Si O3)'
_chemical_formula_sum              'O3 Si1 Zn1'
_publ_section_title
;
Crystal structures of pyroxene-type Zn Si O3 and Zn Mg Si2 O6
;
loop_
_citation_id
_citation_journal_abbrev
_citation_year
_citation_journal_volume
_citation_page_first
_citation_page_last
_citation_journal_id_ASTM
primary 'Acta Crystallographica B (24,1968-38,1982)' 1975 31 1041 1049 ACBCAR
_publ_author_name
;
Morimoto, N.;Nakajima, Y.;Syono, Y.;Akimoto, S.;Matsui, Y.
;
_cell_length_a                     18.204(5)
_cell_length_b                     9.087(3)
_cell_length_c                     5.278(2)
_cell_angle_alpha                  90.
_cell_angle_beta                   90.
_cell_angle_gamma                  90.
_cell_volume                       873.09
_cell_formula_units_Z              16
_symmetry_space_group_name_H-M     'P b c a'
_symmetry_Int_Tables_number        61
_refine_ls_R_factor_all            .073
loop_
_symmetry_equiv_pos_site_id
_symmetry_equiv_pos_as_xyz
  1	'x+.5, y, -z+.5'
  2	'x, -y+.5, z+.5'
  3	'-x+.5, y+.5, z'
  4	'-x, -y, -z'
  5	'-x+.5, -y, z+.5'
  6	'-x, y+.5, -z+.5'
  7	'x+.5, -y+.5, -z'
  8	'x, y, z'
loop_
_atom_type_symbol
_atom_type_oxidation_number
O2-	-2
Si4+	4
Zn2+	2
loop_
_atom_site_label
_atom_site_type_symbol
_atom_site_symmetry_multiplicity
_atom_site_Wyckoff_symbol
_atom_site_fract_x
_atom_site_fract_y
_atom_site_fract_z
_atom_site_occupancy
_atom_site_attached_hydrogens
Zn1 Zn2+ 8 c 0.1255(1) 0.3559(1) 0.4039(2) 1. 0 
Zn2 Zn2+ 8 c 0.3761(1) 0.5092(1) 0.4005(2) 1. 0 
Si1 Si4+ 8 c 0.2741(1) 0.3363(2) 0.0867(4) 1. 0 
Si2 Si4+ 8 c 0.4730(1) 0.1656(2) 0.2839(4) 1. 0 
O1 O2- 8 c 0.1853(3) 0.3346(6) 0.082(1) 1. 0 
O2 O2- 8 c 0.3115(3) 0.4966(6) 0.104(1) 1. 0 
O3 O2- 8 c 0.3039(3) 0.2521(7) 0.340(1) 1. 0 
O4 O2- 8 c 0.5621(3) 0.3389(6) 0.780(1) 1. 0 
O5 O2- 8 c 0.4327(3) 0.4853(6) 0.704(1) 1. 0 
O6 O2- 8 c 0.4488(3) 0.2100(6) 0.571(1) 1. 0 

#End of data_1861-ICSD


