data_26510-ICSD
#?2014 by Fachinformationszentrum Karlsruhe, and the U.S. Secretary of 
#Commerce on behalf of the United States.  All rights reserved.
_database_code_ICSD                26510
_audit_creation_date               1980/01/01
_audit_update_record               1999/11/30
_chemical_name_systematic
;
Dichloroiodine(III) Tetrachloroaluminate
;
_chemical_formula_structural       '(I Cl2) (Al Cl4)'
_chemical_formula_sum              'Al1 Cl6 I1'
_publ_section_title
;
The crystal structure of I Sb Cl8 and I Al Cl6
;
loop_
_citation_id
_citation_journal_abbrev
_citation_year
_citation_journal_volume
_citation_page_first
_citation_page_last
_citation_journal_id_ASTM
primary 'Acta Crystallographica (1,1948-23,1967)' 1959 12 859 866 ACCRA9
_publ_author_name                  'Vonk, C.G.;Wiebenga, E.H.'
_cell_length_a                     6.92(3)
_cell_length_b                     11.02(5)
_cell_length_c                     6.11(3)
_cell_angle_alpha                  90.
_cell_angle_beta                   99.1
_cell_angle_gamma                  90.
_cell_volume                       460.07
_cell_formula_units_Z              2
_symmetry_space_group_name_H-M     'P 1 21 1'
_symmetry_Int_Tables_number        4
_refine_ls_R_factor_all            .072
loop_
_symmetry_equiv_pos_site_id
_symmetry_equiv_pos_as_xyz
  1	'-x, y+.5, -z'
  2	'x, y, z'
loop_
_atom_type_symbol
_atom_type_oxidation_number
Al3+	3
Cl1-	-1
I3+	3
loop_
_atom_site_label
_atom_site_type_symbol
_atom_site_symmetry_multiplicity
_atom_site_Wyckoff_symbol
_atom_site_fract_x
_atom_site_fract_y
_atom_site_fract_z
_atom_site_occupancy
_atom_site_attached_hydrogens
_atom_site_B_iso_or_equiv
I1 I3+ 2 a 0.191(6) 0.25 0.007(6) 1. 0 3. 
Al1 Al3+ 2 a 0.522(45) 0.093(45) 0.595(45) 1. 0 3. 
Cl1 Cl1- 2 a 0.993(35) 0.211(35) 0.266(35) 1. 0 4. 
Cl2 Cl1- 2 a 0.982(35) 0.375(35) 0.792(35) 1. 0 4. 
Cl3 Cl1- 2 a 0.808(35) 0.045(35) 0.694(35) 1. 0 4. 
Cl4 Cl1- 2 a 0.484(35) 0.091(35) 0.230(35) 1. 0 4. 
Cl5 Cl1- 2 a 0.672(35) 0.467(35) 0.309(35) 1. 0 4. 
Cl6 Cl1- 2 a 0.457(35) 0.269(35) 0.691(35) 1. 0 4. 

#End of data_26510-ICSD


