data_417470-ICSD
#?2014 by Fachinformationszentrum Karlsruhe, and the U.S. Secretary of 
#Commerce on behalf of the United States.  All rights reserved.
_database_code_ICSD                417470
_audit_creation_date               2008/08/01
_chemical_name_systematic          'Trisilver(I) Vanadate(V) - Beta'
_chemical_formula_structural       'Ag3 (V O4)'
_chemical_formula_sum              'Ag3 O4 V1'
_publ_section_title                'Polymorphism of Ag3 V O4'
loop_
_citation_id
_citation_journal_abbrev
_citation_year
_citation_journal_volume
_citation_journal_issue
_citation_page_first
_citation_page_last
_citation_journal_id_ASTM
primary 'Zeitschrift fuer Kristallographie - New Crystal Structures'
 2007 222 8 420 426 ZKNSFT
_publ_author_name
;
Dinnebier, R.E.;Kowalevsky, A.;Reichertt, H.;Jansen, M.
;
_cell_length_a                     4.9968(1)
_cell_length_b                     4.9968(1)
_cell_length_c                     9.69111(27)
_cell_angle_alpha                  90.0
_cell_angle_beta                   90.0
_cell_angle_gamma                  90.0
_cell_volume                       241.97
_cell_formula_units_Z              2
_symmetry_space_group_name_H-M     'I -4 2 m'
_symmetry_Int_Tables_number        121
_refine_ls_R_factor_all            .01
loop_
_symmetry_equiv_pos_site_id
_symmetry_equiv_pos_as_xyz
  1	'-y, -x, z'
  2	'y, x, z'
  3	'y, -x, -z'
  4	'-y, x, -z'
  5	'x, -y, -z'
  6	'-x, y, -z'
  7	'-x, -y, z'
  8	'x, y, z'
  9	'-y+.5, -x+.5, z+.5'
 10	'y+.5, x+.5, z+.5'
 11	'y+.5, -x+.5, -z+.5'
 12	'-y+.5, x+.5, -z+.5'
 13	'x+.5, -y+.5, -z+.5'
 14	'-x+.5, y+.5, -z+.5'
 15	'-x+.5, -y+.5, z+.5'
 16	'x+.5, y+.5, z+.5'
loop_
_atom_type_symbol
_atom_type_oxidation_number
Ag1+	1
O2-	-2
V5+	5
loop_
_atom_site_label
_atom_site_type_symbol
_atom_site_symmetry_multiplicity
_atom_site_Wyckoff_symbol
_atom_site_fract_x
_atom_site_fract_y
_atom_site_fract_z
_atom_site_occupancy
_atom_site_attached_hydrogens
_atom_site_U_iso_or_equiv
Ag1 Ag1+ 4 d 0.0 0.5 0.75 1.0 0 0.1925(16) 
Ag2 Ag1+ 2 b 0.0 0.0 0.5 1.0 0 0.1927(20) 
V1 V5+ 2 a 0.0 0.0 0.0 1.0 0 0.0316(20) 
O1 O2- 8 i 0.8073(5) 0.1927(5) -0.0997(5) 1.0 0 0.0057(16) 

#End of data_417470-ICSD


