data_415458-ICSD
#?2014 by Fachinformationszentrum Karlsruhe, and the U.S. Secretary of 
#Commerce on behalf of the United States.  All rights reserved.
_database_code_ICSD                415458
_audit_creation_date               2007/08/01
_chemical_name_systematic
;
Potassium Tecto-phosphato(V)ferrate(II)
;
_chemical_formula_structural       'K (Fe (P O4))'
_chemical_formula_sum              'Fe1 K1 O4 P1'
_publ_section_title
;
A new type of anionic framework in microporous potassium iron(II) 
phosphate K (Fe (P O4))
;
loop_
_citation_id
_citation_journal_abbrev
_citation_year
_citation_journal_volume
_citation_page_first
_citation_page_last
_citation_journal_id_ASTM
primary 'Zeitschrift fuer Anorganische und Allgemeine Chemie (1950) (DE)'
 2005 631 2445 2449 ZAACAB
_publ_author_name
;
Yakubovich, O.V.;Massa, W.;Dimitrova, O.V.
;
_cell_length_a                     9.6199(10)
_cell_length_b                     8.6756(8)
_cell_length_c                     10.8996(13)
_cell_angle_alpha                  90.00
_cell_angle_beta                   115.577(8)
_cell_angle_gamma                  90.00
_cell_volume                       820.52
_cell_formula_units_Z              8
_symmetry_space_group_name_H-M     'P 1 21/n 1'
_symmetry_Int_Tables_number        14
_refine_ls_R_factor_all            .023
loop_
_symmetry_equiv_pos_site_id
_symmetry_equiv_pos_as_xyz
  1	'-x+.5, y+.5, -z+.5'
  2	'-x, -y, -z'
  3	'x+.5, -y+.5, z+.5'
  4	'x, y, z'
loop_
_atom_type_symbol
_atom_type_oxidation_number
Fe2+	2
K1+	1
O2-	-2
P5+	5
loop_
_atom_site_label
_atom_site_type_symbol
_atom_site_symmetry_multiplicity
_atom_site_Wyckoff_symbol
_atom_site_fract_x
_atom_site_fract_y
_atom_site_fract_z
_atom_site_occupancy
_atom_site_attached_hydrogens
_atom_site_U_iso_or_equiv
Fe1 Fe2+ 4 e 0.40818(3) 0.87300(3) 0.06015(3) 1 0 0.01245(9) 
Fe2 Fe2+ 4 e 0.60946(3) 0.34563(3) 0.45708(3) 1 0 0.01223(9) 
K1 K1+ 4 e 0.73455(5) 0.97326(5) 0.67130(4) 1 0 0.01773(11) 
K2 K1+ 4 e 0.68963(5) 0.50497(5) 0.15866(4) 1 0 0.01686(11) 
P1 P5+ 4 e 0.56888(6) 0.71768(6) 0.37142(5) 1 0 0.01086(11) 
P2 P5+ 4 e 0.45504(6) 0.19060(6) 0.14887(5) 1 0 0.01147(11) 
O1 O2- 4 e 0.57637(18) 0.10579(19) 0.11578(14) 1 0 0.0178(3) 
O2 O2- 4 e 0.31594(17) 0.07481(17) 0.09928(14) 1 0 0.0140(3) 
O3 O2- 4 e 0.54966(17) 0.78778(18) 0.23584(14) 1 0 0.0160(3) 
O4 O2- 4 e 0.72325(17) 0.77152(17) 0.48415(14) 1 0 0.0154(3) 
O5 O2- 4 e 0.56433(18) 0.54119(17) 0.35615(14) 1 0 0.0172(3) 
O6 O2- 4 e 0.51699(18) 0.20213(18) 0.30393(14) 1 0 0.0178(3) 
O7 O2- 4 e 0.56374(17) 0.23134(18) 0.59527(15) 1 0 0.0168(3) 
O8 O2- 4 e 0.4067(2) 0.34238(18) 0.07604(15) 1 0 0.0204(3) 

loop_
_atom_site_aniso_label
_atom_site_aniso_type_symbol
_atom_site_aniso_U_11
_atom_site_aniso_U_22
_atom_site_aniso_U_33
_atom_site_aniso_U_12
_atom_site_aniso_U_13
_atom_site_aniso_U_23
Fe1 Fe2+ 0.01403(14) 0.01270(14) 0.01020(13) 0.00083(10) 0.00484(11) 
0.00006(9)
Fe2 Fe2+ 0.01428(14) 0.01109(14) 0.01063(13) -0.00175(10) 0.00471(10) 
-0.00069(9)
K1 K1+ 0.0214(2) 0.0162(2) 0.0176(2) 0.00179(16) 0.01031(17) 0.00082(15)
K2 K1+ 0.0164(2) 0.0186(2) 0.01432(18) -0.00036(16) 0.00547(15) 
-0.00048(14)
P1 P5+ 0.0116(2) 0.0103(2) 0.0101(2) 0.00014(16) 0.00413(17) 0.00109(15)
P2 P5+ 0.0125(2) 0.0111(2) 0.0103(2) -0.00058(17) 0.00449(17) -0.00029(15)
O1 O2- 0.0150(7) 0.0252(8) 0.0143(6) 0.0033(6) 0.0074(5) 0.0027(5)
O2 O2- 0.0120(6) 0.0137(6) 0.0148(6) -0.0007(5) 0.0043(5) -0.0021(5)
O3 O2- 0.0163(7) 0.0184(7) 0.0121(6) 0.0017(5) 0.0051(5) 0.0033(5)
O4 O2- 0.0145(7) 0.0143(7) 0.0145(6) 0.0012(5) 0.0034(5) -0.0017(5)
O5 O2- 0.0217(7) 0.0111(7) 0.0153(6) 0.0000(5) 0.0048(6) 0.0008(5)
O6 O2- 0.0228(7) 0.0169(7) 0.0119(6) -0.0045(6) 0.0059(5) -0.0026(5)
O7 O2- 0.0165(7) 0.0184(7) 0.0194(7) 0.0030(6) 0.0114(6) 0.0054(5)
O8 O2- 0.0266(8) 0.0148(7) 0.0175(6) 0.0016(6) 0.0074(6) 0.0024(5)
#End of data_415458-ICSD


