data_181633-ICSD
#?2014 by Fachinformationszentrum Karlsruhe, and the U.S. Secretary of 
#Commerce on behalf of the United States.  All rights reserved.
_database_code_ICSD                181633
_audit_creation_date               2012/02/01
_audit_update_record               2012/08/01
_chemical_name_systematic          'Calcium Hydrogen Borate'
_chemical_formula_structural       'Ca H (B O3)'
_chemical_formula_sum              'H1 B1 Ca1 O3'
_chemical_name_mineral             Sibirskite
_publ_section_title
;
Hydrothermal synthesis and single-crystal X-ray structure refinement 
of three borates: sibirskite, parasibirskite and priceite
;
loop_
_citation_id
_citation_journal_abbrev
_citation_year
_citation_journal_volume
_citation_journal_issue
_citation_page_first
_citation_page_last
_citation_journal_id_ASTM
primary 'Canadian Mineralogist' 2011 49 3 823 834 CAMIA6
_publ_author_name
;
Sun, Wei;Huang,Ya Xi;Li, Zu Cheng;Pan, Yuan Ming;Mi, Jin Xiao
;
_cell_length_a                     3.5624(7)
_cell_length_b                     9.5225(19)
_cell_length_c                     8.6231(17)
_cell_angle_alpha                  90.
_cell_angle_beta                   119.452(3)
_cell_angle_gamma                  90.
_cell_volume                       254.72
_cell_formula_units_Z              4
_symmetry_space_group_name_H-M     'P 1 21/c 1'
_symmetry_Int_Tables_number        14
_refine_ls_R_factor_all            .0383
loop_
_symmetry_equiv_pos_site_id
_symmetry_equiv_pos_as_xyz
  1	'x, -y+.5, z+.5'
  2	'-x, -y, -z'
  3	'-x, y+.5, -z+.5'
  4	'x, y, z'
loop_
_atom_type_symbol
_atom_type_oxidation_number
B3+	3
Ca2+	2
H1+	1
O2-	-2
loop_
_atom_site_label
_atom_site_type_symbol
_atom_site_symmetry_multiplicity
_atom_site_Wyckoff_symbol
_atom_site_fract_x
_atom_site_fract_y
_atom_site_fract_z
_atom_site_occupancy
_atom_site_attached_hydrogens
_atom_site_U_iso_or_equiv
Ca1 Ca2+ 4 e 0.50358(18) 0.49298(6) 0.71256(8) 1. 0 0 
O1 O2- 4 e 0.1641(6) 0.3794(2) 0.4262(3) 1. 0 0 
O2 O2- 4 e 0.1026(6) 0.1525(2) 0.2908(3) 1. 0 0 
O3 O2- 4 e 0.1282(7) 0.1669(2) 0.5671(3) 1. 0 0 
B1 B3+ 4 e 0.1405(10) 0.2363(3) 0.4250(4) 1. 0 0 
H1 H1+ 4 e 0.093(14) 0.230(4) 0.627(6) 1. 0 0.045(13) 

loop_
_atom_site_aniso_label
_atom_site_aniso_type_symbol
_atom_site_aniso_U_11
_atom_site_aniso_U_22
_atom_site_aniso_U_33
_atom_site_aniso_U_12
_atom_site_aniso_U_13
_atom_site_aniso_U_23
Ca1 Ca2+ 0.0103(3) 0.0103(3) 0.0117(4) -0.0004(2) 0.0056(3) -0.0005(2)
O1 O2- 0.0129(9) 0.0087(10) 0.0111(10) 0.0005(8) 0.0055(8) -0.0013(8)
O2 O2- 0.0134(10) 0.0117(10) 0.0123(11) -0.0019(8) 0.0073(8) -0.0030(8)
O3 O2- 0.0274(12) 0.0108(11) 0.0162(12) 0.0025(9) 0.0142(10) 0.0027(9)
B1 B3+ 0.0056(14) 0.0153(16) 0.0094(15) -0.0002(11) 0.0035(12) -0.0001(13)
#End of data_181633-ICSD


