data_68361-ICSD
#?2014 by Fachinformationszentrum Karlsruhe, and the U.S. Secretary of 
#Commerce on behalf of the United States.  All rights reserved.
_database_code_ICSD                68361
_audit_creation_date               1991/07/10
_chemical_name_systematic          'Tetrapotassium Diuranate'
_chemical_formula_structural       'K8 (U2 O10)'
_chemical_formula_sum              'K8 O10 U2'
_publ_section_title
;
Neues ueber Oxouranate(VI): Na4 UO5 und K74 UO5
;
loop_
_citation_id
_citation_journal_abbrev
_citation_year
_citation_journal_volume
_citation_page_first
_citation_page_last
_citation_journal_id_ASTM
primary 'Revue de Chimie Minerale' 1986 23 828 848 RVCMA8
_publ_author_name                  'Wolf, R.;Hoppe, R.'
_cell_length_a                     6.4738(6)
_cell_length_b                     9.6979(8)
_cell_length_c                     6.3438(5)
_cell_angle_alpha                  101.17(1)
_cell_angle_beta                   102.30(1)
_cell_angle_gamma                  109.02(1)
_cell_volume                       352.65
_cell_formula_units_Z              1
_symmetry_space_group_name_H-M     'P -1'
_symmetry_Int_Tables_number        2
_refine_ls_R_factor_all            .033
loop_
_symmetry_equiv_pos_site_id
_symmetry_equiv_pos_as_xyz
  1	'-x, -y, -z'
  2	'x, y, z'
loop_
_atom_type_symbol
_atom_type_oxidation_number
K1+	1
O2-	-2
U6+	6
loop_
_atom_site_label
_atom_site_type_symbol
_atom_site_symmetry_multiplicity
_atom_site_Wyckoff_symbol
_atom_site_fract_x
_atom_site_fract_y
_atom_site_fract_z
_atom_site_occupancy
_atom_site_attached_hydrogens
U1 U6+ 2 i 0.1895(1) 0.1967(1) 0.1024(1) 1. 0 
K1 K1+ 1 c 0 0.5 0 1. 0 
K2 K1+ 1 b 0 0 0.5 1. 0 
K3 K1+ 2 i 0.4336(7) 0.9093(6) 0.2074(9) 1. 0 
K4 K1+ 2 i 0.5975(9) 0.5919(8) 0.288(1) 1. 0 
K5 K1+ 2 i 0.7935(7) 0.2966(5) 0.4186(7) 1. 0 
O1 O2- 2 i 0.5007(23) 0.3084(15) 0.0573(23) 1. 0 
O2 O2- 2 i 0.8509(22) 0.0340(14) 0.1073(25) 1. 0 
O3 O2- 2 i 0.9761(20) 0.7639(16) 0.1801(22) 1. 0 
O4 O2- 2 i 0.1770(23) 0.3940(14) 0.2989(22) 1. 0 
O5 O2- 2 i 0.3518(22) 0.1578(16) 0.3776(23) 1. 0 

loop_
_atom_site_aniso_label
_atom_site_aniso_type_symbol
_atom_site_aniso_U_11
_atom_site_aniso_U_22
_atom_site_aniso_U_33
_atom_site_aniso_U_12
_atom_site_aniso_U_13
_atom_site_aniso_U_23
U1 U6+ 0.0021(2) 0.0087(2) 0.0100(2) 0.0022(2) -.0010(2) 0.0013(2)
K1 K1+ 0.0424(30) 0.0233(24) 0.0215(25) 0.0235(23) 0.0026(23) 0.0115(20)
K2 K1+ 0.0410(29) 0.0058(18) 0.0115(21) 0.0087(19) -.0077(21) -.0039(16)
K3 K1+ 0.0097(15) 0.0267(19) 0.0342(22) 0.0056(14) 0.0038(14) -.0013(17)
K4 K1+ 0.0209(19) 0.0483(27) 0.0362(22) 0.0120(19) 0.0162(17) 0.0167(21)
K5 K1+ 0.0130(14) 0.0295(19) 0.0178(16) 0.0065(13) 0.0094(12) 0.0152(14)
O1 O2- 0.0183(38) 0.0133(29) 0.0241(40) 0.0008(33) 0.0013(35) 0.0059(34)
O2 O2- 0.0136(30) 0.0049(33) 0.0336(42) -.0005(15) -.0017(36) -.0010(33)
O3 O2- 0.0065(27) 0.0223(38) 0.0176(38) 0.0004(11) -.0039(32) 0.0012(34)
O4 O2- 0.0246(39) 0.0064(26) 0.0187(38) 0.0027(31) -.0082(35) 0.0056(31)
O5 O2- 0.0148(37) 0.0125(37) 0.0227(39) -.0102(34) 0.0014(34) 0.0018(34)
#End of data_68361-ICSD


