data_159977-ICSD
#?2014 by Fachinformationszentrum Karlsruhe, and the U.S. Secretary of 
#Commerce on behalf of the United States.  All rights reserved.
_database_code_ICSD                159977
_audit_creation_date               2008/08/01
_chemical_name_systematic          'Dilead Dialumodisilicate'
_chemical_formula_structural       'Pb2 (Al2 Si2 O9)'
_chemical_formula_sum              'Al2 O9 Pb2 Si2'
_publ_section_title
;
Crystal structures of synthetic melanotekite (Pb2 Fe2 Si2 O9), 
kentrolite (Pb2 Mn2 Si2 O9) and the aluminum analogue
;
loop_
_citation_id
_citation_journal_abbrev
_citation_year
_citation_journal_volume
_citation_page_first
_citation_page_last
_citation_journal_id_ASTM
primary 'American Mineralogist' 2008 93 573 583 AMMIAY
_publ_author_name
;
Doersam, G.;Liebscher, A.;Wunder, B.;Franz, G.
;
_cell_length_a                     6.8981(7)
_cell_length_b                     10.6906(15)
_cell_length_c                     9.7413(10)
_cell_angle_alpha                  90.
_cell_angle_beta                   90.
_cell_angle_gamma                  90.
_cell_volume                       718.37
_cell_formula_units_Z              4
_symmetry_space_group_name_H-M     'P b c n'
_symmetry_Int_Tables_number        60
_refine_ls_R_factor_all            .0223
loop_
_symmetry_equiv_pos_site_id
_symmetry_equiv_pos_as_xyz
  1	'x, -y, z+.5'
  2	'-x+.5, y+.5, z'
  3	'x+.5, y+.5, -z+.5'
  4	'-x, -y, -z'
  5	'-x, y, -z+.5'
  6	'x+.5, -y+.5, -z'
  7	'-x+.5, -y+.5, z+.5'
  8	'x, y, z'
loop_
_atom_type_symbol
_atom_type_oxidation_number
Al3+	3
O2-	-2
Pb2+	2
Si4+	4
loop_
_atom_site_label
_atom_site_type_symbol
_atom_site_symmetry_multiplicity
_atom_site_Wyckoff_symbol
_atom_site_fract_x
_atom_site_fract_y
_atom_site_fract_z
_atom_site_occupancy
_atom_site_attached_hydrogens
_atom_site_U_iso_or_equiv
Pb1 Pb2+ 8 d 0.45060(4) 0.30435(3) 0.54954(3) 1. 0 0.0123(2) 
Al1 Al3+ 4 b 0.5 0 0 1. 0 0.006(1) 
Al2 Al3+ 4 c 0.5 0.1467(3) 0.250 1. 0 0.007(1) 
Si1 Si4+ 8 d 0.2171(3) -0.0883(2) 0.2488(2) 1. 0 0.007(1) 
O1 O2- 8 d 0.3477(6) 0.0082(4) 0.3372(5) 1. 0 0.008(1) 
O2 O2- 8 d 0.3080(7) -0.1068(5) 0.0965(5) 1. 0 0.011(1) 
O3 O2- 8 d 0.1854(6) -0.2260(5) 0.3169(5) 1. 0 0.009(1) 
O4 O2- 4 c 0 -0.0227(7) 0.250 1. 0 0.010(1) 
O5 O2- 8 d 0.6096(7) 0.1410(5) 0.4230(5) 1. 0 0.008(1) 

loop_
_atom_site_aniso_label
_atom_site_aniso_type_symbol
_atom_site_aniso_U_11
_atom_site_aniso_U_22
_atom_site_aniso_U_33
_atom_site_aniso_U_12
_atom_site_aniso_U_13
_atom_site_aniso_U_23
Pb1 Pb2+ 0.0137(2) 0.0153(2) 0.0079(2) -0.0001(1) -0.0006(1) -0.0010(1)
Al1 Al3+ 0.0050(12) 0.0104(17) 0.0021(13) 0.0014(12) -0.0003(10) 
-0.0001(11)
Al2 Al3+ 0.0066(12) 0.0108(17) 0.0027(13) 0. -0.0012(11) 0.
Si1 Si4+ 0.0053(8) 0.0129(11) 0.0036(8) -0.0009(7) 0.0001(6) 0.0005(7)
O1 O2- 0.0079(20) 0.0142(27) 0.0032(21) -0.0006(20) 0.0009(19) 0.0005(19)
O2 O2- 0.0147(24) 0.0138(29) 0.0038(20) -0.0039(20) 0.0031(19) -0.0021(19)
O3 O2- 0.0080(22) 0.0103(27) 0.0096(24) -0.0036(19) 0.0013(19) 0.0007(18)
O4 O2- 0.0049(29) 0.0077(39) 0.0180(37) 0. -0.0007(29) 0.
O5 O2- 0.0066(21) 0.0122(27) 0.0038(21) -0.0013(20) -0.0018(18) 0.0007(18)
#End of data_159977-ICSD


