data_202906-ICSD
#?2014 by Fachinformationszentrum Karlsruhe, and the U.S. Secretary of 
#Commerce on behalf of the United States.  All rights reserved.
_database_code_ICSD                202906
_audit_creation_date               1990/06/08
_chemical_name_systematic          'Sodium Tetraoxodititanate'
_chemical_formula_structural       'Na (Ti2 O4)'
_chemical_formula_sum              'Na1 O4 Ti2'
_publ_section_title
;
Synthesis and Crystal Structure of Na Ti2 O4: A New Mixed-Valence 
Sodium Titanate
;
loop_
_citation_id
_citation_journal_abbrev
_citation_year
_citation_journal_volume
_citation_page_first
_citation_page_last
_citation_journal_id_ASTM
primary 'Journal of Solid State Chemistry' 1989 79 212 217 JSSCBI
_publ_author_name                  'Akimoto, J.;Takei, H.'
_cell_length_a                     9.2615(10)
_cell_length_b                     10.7537(7)
_cell_length_c                     2.9556(3)
_cell_angle_alpha                  90.
_cell_angle_beta                   90.
_cell_angle_gamma                  90.
_cell_volume                       294.36
_cell_formula_units_Z              4
_symmetry_space_group_name_H-M     'P n a m'
_symmetry_Int_Tables_number        62
_refine_ls_R_factor_all            .029
loop_
_symmetry_equiv_pos_site_id
_symmetry_equiv_pos_as_xyz
  1	'x+.5, -y+.5, z'
  2	'x, y, -z+.5'
  3	'-x+.5, y+.5, z+.5'
  4	'-x, -y, -z'
  5	'-x+.5, y+.5, -z'
  6	'-x, -y, z+.5'
  7	'x+.5, -y+.5, -z+.5'
  8	'x, y, z'
loop_
_atom_type_symbol
_atom_type_oxidation_number
Na1+	1
O2-	-2
Ti3.5+	3.5
loop_
_atom_site_label
_atom_site_type_symbol
_atom_site_symmetry_multiplicity
_atom_site_Wyckoff_symbol
_atom_site_fract_x
_atom_site_fract_y
_atom_site_fract_z
_atom_site_occupancy
_atom_site_attached_hydrogens
Na1 Na1+ 4 c 0.24363(12) 0.34683(11) 0.75 1. 0 
Ti1 Ti3.5+ 4 c 0.06624(4) 0.10964(4) 0.75 1. 0 
Ti2 Ti3.5+ 4 c 0.08209(4) 0.60455(4) 0.75 1. 0 
O1 O2- 4 c 0.2884(2) 0.6512(2) 0.75 1. 0 
O2 O2- 4 c 0.3875(2) 0.9803(2) 0.75 1. 0 
O3 O2- 4 c 0.4795(2) 0.2177(2) 0.75 1. 0 
O4 O2- 4 c 0.0801(2) 0.9304(2) 0.75 1. 0 

#End of data_202906-ICSD


