data_409541-ICSD
#?2014 by Fachinformationszentrum Karlsruhe, and the U.S. Secretary of 
#Commerce on behalf of the United States.  All rights reserved.
_database_code_ICSD                409541
_audit_creation_date               2002/10/01
_chemical_name_systematic          'Trisilver Chloride Chromate(VI)'
_chemical_formula_structural       'Ag3 Cl (Cr O4)'
_chemical_formula_sum              'Ag3 Cl1 Cr1 O4'
_publ_section_title
;
Crystal stucture of silver chloride chromate (VI), Ag3 Cl Cr O4
;
loop_
_citation_id
_citation_journal_abbrev
_citation_year
_citation_journal_volume
_citation_page_first
_citation_page_last
_citation_journal_id_ASTM
primary 'Zeitschrift fuer Kristallographie - New Crystal Structures'
 2001 216 180 180 ZKNSFT
_publ_author_name
;
Curda, J.;Peters, E.M.;Klein, W.;Jansen, M.
;
_cell_length_a                     7.3889(5)
_cell_length_b                     7.3889(5)
_cell_length_c                     5.3065(3)
_cell_angle_alpha                  90.
_cell_angle_beta                   90.
_cell_angle_gamma                  90.
_cell_volume                       289.71
_cell_formula_units_Z              2
_symmetry_space_group_name_H-M     'P 4/n m m S'
_symmetry_Int_Tables_number        129
_refine_ls_R_factor_all            .0425
loop_
_symmetry_equiv_pos_site_id
_symmetry_equiv_pos_as_xyz
  1	'-y+.5, -x+.5, z'
  2	'y+.5, x+.5, z'
  3	'-y, -x, -z'
  4	'y, x, -z'
  5	'y+.5, -x+.5, z'
  6	'-y+.5, x+.5, z'
  7	'y, -x, -z'
  8	'-y, x, -z'
  9	'x+.5, -y+.5, -z'
 10	'-x+.5, y+.5, -z'
 11	'x, -y, z'
 12	'-x, y, z'
 13	'-x+.5, -y+.5, -z'
 14	'x+.5, y+.5, -z'
 15	'-x, -y, z'
 16	'x, y, z'
loop_
_atom_type_symbol
_atom_type_oxidation_number
Ag1+	1
Cl1-	-1
Cr6+	6
O2-	-2
loop_
_atom_site_label
_atom_site_type_symbol
_atom_site_symmetry_multiplicity
_atom_site_Wyckoff_symbol
_atom_site_fract_x
_atom_site_fract_y
_atom_site_fract_z
_atom_site_occupancy
_atom_site_attached_hydrogens
Ag1 Ag1+ 2 c 0 0.5 0.10101(11) 1. 0 
Ag2 Ag1+ 4 e 0.25 0.25 0.5 1. 0 
Cr1 Cr6+ 2 a 0 0 0 1. 0 
O1 O2- 8 i 0 0.1793(5) 0.1849(8) 1. 0 
Cl1 Cl1- 2 c 0 0.5 0.6267(3) 1. 0 

loop_
_atom_site_aniso_label
_atom_site_aniso_type_symbol
_atom_site_aniso_U_11
_atom_site_aniso_U_22
_atom_site_aniso_U_33
_atom_site_aniso_U_12
_atom_site_aniso_U_13
_atom_site_aniso_U_23
Ag1 Ag1+ 0.0310(3) 0.0310(3) 0.0232(3) 0 0 0
Ag2 Ag1+ 0.0438(3) 0.0438(3) 0.0486(4) 0.0181(2) -.00495(14) 0.00495(14)
Cr1 Cr6+ 0.0174(3) 0.0174(3) 0.0246(6) 0 0 0
O1 O2- 0.063(2) 0.0225(13) 0.0425(18) 0 0 -.0063(14)
Cl1 Cl1- 0.0375(6) 0.0375(6) 0.0200(7) 0 0 0
#End of data_409541-ICSD


