data_30432-ICSD
#?2014 by Fachinformationszentrum Karlsruhe, and the U.S. Secretary of 
#Commerce on behalf of the United States.  All rights reserved.
_database_code_ICSD                30432
_audit_creation_date               1980/01/01
_audit_update_record               2000/07/15
_chemical_name_systematic
;
Potassium Dithorium Tris(phosphate(V))
;
_chemical_formula_structural       'K Th2 (P O4)3'
_chemical_formula_sum              'K1 O12 P3 Th2'
_publ_section_title
;
The crystal structure of potassium dithorium trisphosphate, K Th2 (P 
O4)3
;
loop_
_citation_id
_citation_journal_abbrev
_citation_year
_citation_journal_volume
_citation_page_first
_citation_page_last
_citation_journal_id_ASTM
primary 'Croatica Chemica Acta' 1968 40 147 161 CCACAA
2 'Bulletin de la Societe Chimique de France (Vol=Year)'
 1968 1968 1777 1779 BSCFAS
_publ_author_name
;
Matkovic, B.;Prodic, B.;Sljukic, M.
;
_cell_length_a                     17.57(14)
_cell_length_b                     6.863(3)
_cell_length_c                     8.138(4)
_cell_angle_alpha                  90.
_cell_angle_beta                   101.77(12)
_cell_angle_gamma                  90.
_cell_volume                       960.67
_cell_formula_units_Z              4
_symmetry_space_group_name_H-M     'C 1 2/c 1'
_symmetry_Int_Tables_number        15
_refine_ls_R_factor_all            .081
loop_
_symmetry_equiv_pos_site_id
_symmetry_equiv_pos_as_xyz
  1	'x, -y, z+.5'
  2	'-x, -y, -z'
  3	'-x, y, -z+.5'
  4	'x, y, z'
  5	'x+.5, -y+.5, z+.5'
  6	'-x+.5, -y+.5, -z'
  7	'-x+.5, y+.5, -z+.5'
  8	'x+.5, y+.5, z'
loop_
_atom_type_symbol
_atom_type_oxidation_number
K1+	1
O2-	-2
P5+	5
Th4+	4
loop_
_atom_site_label
_atom_site_type_symbol
_atom_site_symmetry_multiplicity
_atom_site_Wyckoff_symbol
_atom_site_fract_x
_atom_site_fract_y
_atom_site_fract_z
_atom_site_occupancy
_atom_site_attached_hydrogens
_atom_site_B_iso_or_equiv
Th1 Th4+ 8 f 0.1539(1) 0.0927(2) 0.0343(2) 1. 0 0 
K1 K1+ 4 e 0 0.3994(34) 0.25 1. 0 0 
P1 P5+ 8 f 0.3106(6) 0.0884(14) 0.3148(13) 1. 0 0 
P2 P5+ 4 e 0 -.0986(23) 0.25 1. 0 0 
O1 O2- 8 f 0.0686(14) 0.0256(39) 0.2423(32) 1. 0 0.8 
O2 O2- 8 f -.0215(18) -.2171(49) 0.0852(41) 1. 0 1.9 
O3 O2- 8 f 0.2263(13) 0.0459(35) 0.3354(30) 1. 0 0.4 
O4 O2- 8 f 0.3591(15) -.0963(41) 0.3448(33) 1. 0 1. 
O5 O2- 8 f 0.2994(15) 0.1538(42) 0.1247(35) 1. 0 1.1 
O6 O2- 8 f 0.3463(22) 0.2690(59) 0.4144(53) 1. 0 3. 

#End of data_30432-ICSD


