data_84733-ICSD
#?2014 by Fachinformationszentrum Karlsruhe, and the U.S. Secretary of 
#Commerce on behalf of the United States.  All rights reserved.
_database_code_ICSD                84733
_audit_creation_date               1999/01/19
_chemical_name_systematic          'Disilver Vanado(IV)diphosphate(V)'
_chemical_formula_structural       'Ag2 (V P2 O8)'
_chemical_formula_sum              'Ag2 O8 P2 V1'
_publ_section_title
;
Structure characterization and ionic conductivity of Ag2 V P2 O8
;
loop_
_citation_id
_citation_journal_abbrev
_citation_year
_citation_journal_volume
_citation_page_first
_citation_page_last
_citation_journal_id_ASTM
primary 'Journal of Solid State Chemistry' 1997 130 28 34 JSSCBI
_publ_author_name                  'Daidouh, A.;Veiga, M.L.;Pico, C.'
_cell_length_a                     7.739(1)
_cell_length_b                     13.611(1)
_cell_length_c                     6.294(1)
_cell_angle_alpha                  90.
_cell_angle_beta                   99.00(8)
_cell_angle_gamma                  90.
_cell_volume                       654.82
_cell_formula_units_Z              4
_symmetry_space_group_name_H-M     'P 1 21/c 1'
_symmetry_Int_Tables_number        14
_refine_ls_R_factor_all            .06
loop_
_symmetry_equiv_pos_site_id
_symmetry_equiv_pos_as_xyz
  1	'x, -y+.5, z+.5'
  2	'-x, -y, -z'
  3	'-x, y+.5, -z+.5'
  4	'x, y, z'
loop_
_atom_type_symbol
_atom_type_oxidation_number
Ag1+	1
O2-	-2
P5+	5
V4+	4
loop_
_atom_site_label
_atom_site_type_symbol
_atom_site_symmetry_multiplicity
_atom_site_Wyckoff_symbol
_atom_site_fract_x
_atom_site_fract_y
_atom_site_fract_z
_atom_site_occupancy
_atom_site_attached_hydrogens
V1 V4+ 4 e 0.223(7) 0.422(3) 0.269(3) 1. 0 
P1 P5+ 4 e 0.359(9) 0.627(9) 0.538(8) 1. 0 
P2 P5+ 4 e 0.171(6) 0.479(5) 0.745(1) 1. 0 
Ag1 Ag1+ 4 e 0.062(4) 0.701(8) 0.150(9) 1. 0 
Ag2 Ag1+ 4 e 0.514(2) 0.353(3) 0.914(2) 1. 0 
O1 O2- 4 e 0.361(3) 0.557(7) 0.358(3) 1. 0 
O2 O2- 4 e 0.466(8) 0.358(4) 0.314(6) 1. 0 
O3 O2- 4 e 0.123(5) 0.324(5) 0.198(5) 1. 0 
O4 O2- 4 e 0.231(6) 0.408(6) 0.586(1) 1. 0 
O5 O2- 4 e 0.015(3) 0.521(8) 0.244(1) 1. 0 
O6 O2- 4 e 0.272(1) 0.454 -.032 1. 0 
O7 O2- 4 e 0.221(9) 0.592(7) 0.693(2) 1. 0 
O8 O2- 4 e 0.286(9) 0.726(4) 0.473(5) 1. 0 

#End of data_84733-ICSD


