data_109075-ICSD
#?2014 by Fachinformationszentrum Karlsruhe, and the U.S. Secretary of 
#Commerce on behalf of the United States.  All rights reserved.
_database_code_ICSD                109075
_audit_creation_date               2007/04/01
_chemical_name_systematic
;
Dipotassium Sodium Heptairon Diniobooctasilicate Trioxide 
Tetrahydroxide
;
_chemical_formula_structural
;
K2 Na Fe7 (Nb2 Si8 O24) (O3 (O H)4)
;
_chemical_formula_sum              'H4 Fe7 K2 Na1 Nb2 O31 Si8'
_chemical_name_mineral             Niobophyllite
_publ_section_title
;
Niobophyllite - the niobium analogue of astrophyllite, a new mineral 
from Seal Lake, Labrador
;
loop_
_citation_id
_citation_journal_abbrev
_citation_year
_citation_journal_volume
_citation_page_first
_citation_page_last
_citation_journal_id_ASTM
primary 'Canadian Mineralogist' 1964 8 40 52 CAMIA6
_publ_author_name
;
Nickel, E.H.;Rowland, J.F.;Charette, D.J.
;
_cell_length_a                     5.391
_cell_length_b                     11.66
_cell_length_c                     11.88
_cell_angle_alpha                  113.1
_cell_angle_beta                   103.1
_cell_angle_gamma                  94.5
_cell_volume                       657.23
_cell_formula_units_Z              1
_symmetry_space_group_name_H-M     'P -1'
_symmetry_Int_Tables_number        2
loop_
_symmetry_equiv_pos_site_id
_symmetry_equiv_pos_as_xyz
  1	'-x, -y, -z'
  2	'x, y, z'
loop_
_atom_type_symbol
_atom_type_oxidation_number
Fe2+	2
H1+	1
K1+	1
Na1+	1
Nb4.5+	4.5
O2-	-2
Si4+	4
loop_
_atom_site_label
_atom_site_type_symbol
_atom_site_symmetry_multiplicity
_atom_site_Wyckoff_symbol
_atom_site_fract_x
_atom_site_fract_y
_atom_site_fract_z
_atom_site_occupancy
_atom_site_attached_hydrogens
Fe1 Fe2+ 1 d 0.5 0 0 1. 0 
Fe2 Fe2+ 2 i 0.077 0.013 0.147 1. 0 
Fe3 Fe2+ 2 i 0.651 0.019 0.294 1. 0 
Fe4 Fe2+ 2 i 0.219 0.011 0.432 1. 0 
Nb1 Nb4.5+ 2 i 0.420 0.300 0.413 1. 0 
K1 K1+ 2 i 0.366 0.504 0.234 1. 0 
Na1 Na1+ 1 g 0 0.5 0.5 1. 0 
Si1 Si4+ 2 i 0.314 0.754 0.046 1. 0 
Si2 Si4+ 2 i 0.880 0.756 0.175 1. 0 
Si3 Si4+ 2 i 0.007 0.736 0.432 1. 0 
Si4 Si4+ 2 i 0.177 0.732 0.772 1. 0 
O1 O2- 2 i 0.643 0.870 0.760 1. 0 
O2 O2- 2 i 0.226 .886 0.819 1. 0 
O3 O2- 2 i 0.797 0.900 0.967 1.000 0 
O4 O2- 2 i 0.372 0.906 0.109 1. 0 
O5 O2- 2 i 0.945 0.910 0.243 1. 0 
O6 O2- 2 i 0.509 0.909 0.383 1.000 0 
O7 O2- 2 i 0.071 0.899 0.515 1. 0 
O8 O2- 2 i 0.370 0.667 0.692 1. 0 
O9 O2- 2 i 0.884 0.668 0.690 1. 0 
O10 O2- 2 i 0.231 0.694 0.893 1. 0 
O11 O2- 2 i 0.076 0.700 0.087 1. 0 
O12 O2- 2 i 0.575 0.701 0.089 1. 0 
O13 O2- 2 i 0.925 0.698 0.280 1. 0 
O14 O2- 2 i 0.767 0.670 0.450 1. 0 
O15 O2- 2 i 0.253 0.672 0.459 1. 0 
O16 O2- 1 h 0.5 0.5 0.5 1. 0 
H1 H1+ 2 i 0.736 0.809 0.911 1. 0 
H2 H1+ 2 i 0.457 0.813 0.345 1. 0 

#End of data_109075-ICSD


