data_90070-ICSD
#?2014 by Fachinformationszentrum Karlsruhe, and the U.S. Secretary of 
#Commerce on behalf of the United States.  All rights reserved.
_database_code_ICSD                90070
_audit_creation_date               2002/04/01
_chemical_name_systematic
;
Silver(II) Bis(tetrafluoroargentate(III))
;
_chemical_formula_structural       'Ag (Ag F4)2'
_chemical_formula_sum              'Ag3 F8'
_publ_section_title
;
Structural features of Ag (Au F4) and Ag (Au F6) and the structural 
relationship of Ag (Ag F4)2 and Au (Au F4)2 to Ag (Au F4)2
;
loop_
_citation_id
_citation_journal_abbrev
_citation_year
_citation_journal_volume
_citation_page_first
_citation_page_last
_citation_journal_id_ASTM
primary 'Inorganic Chemistry' 2000 39 1545 1548 INOCAJ
_publ_author_name
;
Graudejus, O.;Wilkinson, A.P.;Bartlett, N.
;
_cell_length_a                     5.04664(8)
_cell_length_b                     11.0542(2)
_cell_length_c                     5.44914(9)
_cell_angle_alpha                  90.
_cell_angle_beta                   97.170(2)
_cell_angle_gamma                  90.
_cell_volume                       301.61
_cell_formula_units_Z              2
_symmetry_space_group_name_H-M     'P 1 21/n 1'
_symmetry_Int_Tables_number        14
_refine_ls_R_factor_all            .06
loop_
_symmetry_equiv_pos_site_id
_symmetry_equiv_pos_as_xyz
  1	'-x+.5, y+.5, -z+.5'
  2	'-x, -y, -z'
  3	'x+.5, -y+.5, z+.5'
  4	'x, y, z'
loop_
_atom_type_symbol
_atom_type_oxidation_number
Ag2+	2
Ag3+	3
F1-	-1
loop_
_atom_site_label
_atom_site_type_symbol
_atom_site_symmetry_multiplicity
_atom_site_Wyckoff_symbol
_atom_site_fract_x
_atom_site_fract_y
_atom_site_fract_z
_atom_site_occupancy
_atom_site_attached_hydrogens
_atom_site_U_iso_or_equiv
Ag1 Ag2+ 2 d 0 0.5 0.5 1. 0 0.0234(7) 
Ag2 Ag3+ 4 e 0.2275(4) 0.1826(2) 0.4721(4) 1. 0 0.0226(5) 
F1 F1- 4 e 0.220(3) 0.089(1) 0.178(3) 1. 0 0.020(4) 
F2 F1- 4 e 0.248(3) 0.040(2) 0.651(3) 1. 0 0.035(4) 
F3 F1- 4 e 0.208(3) 0.323(2) 0.289(3) 1. 0 0.034(4) 
F4 F1- 4 e 0.205(3) 0.282(2) 0.751(3) 1. 0 0.036(5) 

#End of data_90070-ICSD


