data_247979-ICSD
#?2014 by Fachinformationszentrum Karlsruhe, and the U.S. Secretary of 
#Commerce on behalf of the United States.  All rights reserved.
_database_code_ICSD                247979
_audit_creation_date               2014/08/01
_chemical_name_systematic
;
Lithium Sodium Magnesium Phosphate Fluoride
;
_chemical_formula_structural       'Li Na Mg (P O4) F'
_chemical_formula_sum              'F1 Li1 Mg1 Na1 O4 P1'
_publ_section_title
;
Structural relationships among LiNaMg[PO4]F and Na2M[PO4]F (M = Mn-
Ni, and Mg), and the magnetic structure of LiNaNi[PO4]F
;
loop_
_citation_id
_citation_journal_abbrev
_citation_year
_citation_journal_volume
_citation_journal_issue
_citation_page_first
_citation_page_last
_citation_journal_id_ASTM
primary 'Dalton Transactions' 2014 43 5 2044 2051 DTARAF
_publ_author_name
;
Ben Yahia, Hamdi;Shikano, Masahiro;Kobayashi, Hironori;Avdeev, 
Maxim;Liu, Samuel;Ling, Chris D.
;
_cell_length_a                     6.7788(2)
_cell_length_b                     11.1702(3)
_cell_length_c                     5.01886(16)
_cell_angle_alpha                  90
_cell_angle_beta                   89.736(2)
_cell_angle_gamma                  90
_cell_volume                       380.03
_cell_formula_units_Z              4
_symmetry_space_group_name_H-M     'P 1 21/c 1'
_symmetry_Int_Tables_number        14
_refine_ls_R_factor_all            .0489
loop_
_symmetry_equiv_pos_site_id
_symmetry_equiv_pos_as_xyz
  1	'x, -y+.5, z+.5'
  2	'-x, -y, -z'
  3	'-x, y+.5, -z+.5'
  4	'x, y, z'
loop_
_atom_type_symbol
_atom_type_oxidation_number
F1-	-1
Li1+	1
Mg2+	2
Na1+	1
O2-	-2
P5+	5
loop_
_atom_site_label
_atom_site_type_symbol
_atom_site_symmetry_multiplicity
_atom_site_Wyckoff_symbol
_atom_site_fract_x
_atom_site_fract_y
_atom_site_fract_z
_atom_site_occupancy
_atom_site_attached_hydrogens
_atom_site_B_iso_or_equiv
Li1 Li1+ 4 e -0.250(5) 0.082(2) 0.269(6) 1. 0 0.14(8) 
Na1 Na1+ 4 e 0.516(2) 0.1674(13) 0.749(4) 1. 0 0.14(8) 
Mg1 Mg2+ 4 e -0.0200(10) 0.1720(5) 0.7624(13) 1. 0 0.14(8) 
P1 P5+ 4 e 0.2494(16) 0.4194(9) 0.762(2) 1. 0 0.14(8) 
O1 O2- 4 e -0.5461(12) 0.1248(6) 0.237(2) 1. 0 0.14(8) 
O2 O2- 4 e 0.0904(14) 0.3269(10) 0.6397(19) 1. 0 0.14(8) 
O3 O2- 4 e 0.1961(14) 0.0731(8) 0.5688(18) 1. 0 0.14(8) 
O4 O2- 4 e 0.2125(14) -0.0395(9) 0.1477(15) 1. 0 0.14(8) 
F1 F1- 4 e -0.2033(16) 0.2143(7) 0.4594(20) 1. 0 0.14(8) 

#End of data_247979-ICSD


