data_15965-ICSD
#?2014 by Fachinformationszentrum Karlsruhe, and the U.S. Secretary of 
#Commerce on behalf of the United States.  All rights reserved.
_database_code_ICSD                15965
_audit_creation_date               1980/01/01
_audit_update_record               2005/10/01
_chemical_name_systematic          'Cesium Tecto-alumodisilicate'
_chemical_formula_structural       'Cs (Al Si2 O6)'
_chemical_formula_sum              'Al1 Cs1 O6 Si2'
_chemical_name_mineral             Pollucite
_publ_section_title
;
Die Struktur des Pollucits (Cs Al Si2 O6)*(H2 O)X
;
loop_
_citation_id
_citation_journal_abbrev
_citation_year
_citation_journal_volume
_citation_page_first
_citation_page_last
_citation_journal_id_ASTM
primary
;
Zeitschrift fuer Kristallographie, Kristallgeometrie, Kristallphysik, 
Kristallchemie (-144,1977)
;
 1938 99 277 282 ZEKGAX
2 'Golden Book of Phase Transitions, Wroclaw' 2002 1 1 123 GBOPT5
_publ_author_name                  'Naray-Szabo, S.'
_cell_length_a                     13.74
_cell_length_b                     13.74
_cell_length_c                     13.74
_cell_angle_alpha                  90.
_cell_angle_beta                   90.
_cell_angle_gamma                  90.
_cell_volume                       2593.94
_cell_formula_units_Z              16
_symmetry_space_group_name_H-M     'I 41/a c d S'
_symmetry_Int_Tables_number        142
loop_
_symmetry_equiv_pos_site_id
_symmetry_equiv_pos_as_xyz
  1	'-y+.5, -x, z+.25'
  2	'y+.5, -x, z+.75'
  3	'-y, -x, -z+.5'
  4	'y, -x, -z'
  5	'y+.5, x, z+.25'
  6	'-y+.5, x, z+.75'
  7	'y, x, -z+.5'
  8	'-y, x, -z'
  9	'-x, y+.5, -z+.75'
 10	'-x, -y+.5, -z+.25'
 11	'-x, y, z+.5'
 12	'-x, -y, z'
 13	'x, -y+.5, -z+.75'
 14	'x, y+.5, -z+.25'
 15	'x, -y, z+.5'
 16	'x, y, z'
 17	'-y, -x+.5, z+.75'
 18	'y, -x+.5, z+.25'
 19	'-y+.5, -x+.5, -z'
 20	'y+.5, -x+.5, -z+.5'
 21	'y, x+.5, z+.75'
 22	'-y, x+.5, z+.25'
 23	'y+.5, x+.5, -z'
 24	'-y+.5, x+.5, -z+.5'
 25	'-x+.5, y, -z+.25'
 26	'-x+.5, -y, -z+.75'
 27	'-x+.5, y+.5, z'
 28	'-x+.5, -y+.5, z+.5'
 29	'x+.5, -y, -z+.25'
 30	'x+.5, y, -z+.75'
 31	'x+.5, -y+.5, z'
 32	'x+.5, y+.5, z+.5'
loop_
_atom_type_symbol
_atom_type_oxidation_number
Al3+	3
Cs1+	1
O2-	-2
Si4+	4
loop_
_atom_site_label
_atom_site_type_symbol
_atom_site_symmetry_multiplicity
_atom_site_Wyckoff_symbol
_atom_site_fract_x
_atom_site_fract_y
_atom_site_fract_z
_atom_site_occupancy
_atom_site_attached_hydrogens
Cs1 Cs1+ 16 f 0.125 0.125 0.25 1. 0 
Si1 Si4+ 32 g 0.125 0.411 0.212 1. 0 
Al1 Al3+ 16 f 0.339 0.339 0.25 1. 0 
O1 O2- 32 g 0.119 0.111 0.653 1. 0 
O2 O2- 32 g 0.131 0.472 0.736 1. 0 
O3 O2- 32 g 0.278 0.139 0.756 1. 0 

#End of data_15965-ICSD


