data_401239-ICSD
#?2014 by Fachinformationszentrum Karlsruhe, and the U.S. Secretary of 
#Commerce on behalf of the United States.  All rights reserved.
_database_code_ICSD                401239
_audit_creation_date               1995/10/17
_audit_update_record               2000/07/15
_chemical_name_systematic
;
Lithium Dibarium Dicopper Copper(III) Oxide
;
_chemical_formula_structural       'Li Ba2 Cu3 O6'
_chemical_formula_sum              'Ba2 Cu3 Li1 O6'
_publ_section_title
;
Notiz zur Kristallchemie von Li Ba2 Cu3 O6
;
loop_
_citation_id
_citation_journal_abbrev
_citation_year
_citation_journal_volume
_citation_page_first
_citation_page_last
_citation_journal_id_ASTM
primary 'Zeitschrift fuer Naturforschung, B: Chemical Sciences'
 1995 50 681 683 ZNBSEN
_publ_author_name
;
Tams, G.;Mueller Buschbaum, H.;Lang, C.
;
_cell_length_a                     8.219(2)
_cell_length_b                     11.520(2)
_cell_length_c                     14.284(3)
_cell_angle_alpha                  90.
_cell_angle_beta                   90.
_cell_angle_gamma                  90.
_cell_volume                       1352.45
_cell_formula_units_Z              8
_symmetry_space_group_name_H-M     'F m m m'
_symmetry_Int_Tables_number        69
_refine_ls_R_factor_all            .11
loop_
_symmetry_equiv_pos_site_id
_symmetry_equiv_pos_as_xyz
  1	'x, y, -z'
  2	'x, -y, z'
  3	'-x, y, z'
  4	'-x, -y, -z'
  5	'-x, -y, z'
  6	'-x, y, -z'
  7	'x, -y, -z'
  8	'x, y, z'
  9	'x, y+.5, -z+.5'
 10	'x+.5, y, -z+.5'
 11	'x+.5, y+.5, -z'
 12	'x, -y+.5, z+.5'
 13	'x+.5, -y, z+.5'
 14	'x+.5, -y+.5, z'
 15	'-x, y+.5, z+.5'
 16	'-x+.5, y, z+.5'
 17	'-x+.5, y+.5, z'
 18	'-x, -y+.5, -z+.5'
 19	'-x+.5, -y, -z+.5'
 20	'-x+.5, -y+.5, -z'
 21	'-x, -y+.5, z+.5'
 22	'-x+.5, -y, z+.5'
 23	'-x+.5, -y+.5, z'
 24	'-x, y+.5, -z+.5'
 25	'-x+.5, y, -z+.5'
 26	'-x+.5, y+.5, -z'
 27	'x, -y+.5, -z+.5'
 28	'x+.5, -y, -z+.5'
 29	'x+.5, -y+.5, -z'
 30	'x, y+.5, z+.5'
 31	'x+.5, y, z+.5'
 32	'x+.5, y+.5, z'
loop_
_atom_type_symbol
_atom_type_oxidation_number
Ba2+	2
Cu2+	2
Cu3+	3
Li1+	1
O2-	-2
loop_
_atom_site_label
_atom_site_type_symbol
_atom_site_symmetry_multiplicity
_atom_site_Wyckoff_symbol
_atom_site_fract_x
_atom_site_fract_y
_atom_site_fract_z
_atom_site_occupancy
_atom_site_attached_hydrogens
Ba1 Ba2+ 8 h 0 0.2339(1) 0 1. 0 
Ba2 Ba2+ 8 f 0.25 0.25 0.25 1. 0 
Cu1 Cu3+ 8 g 0.6875(2) 0 0 1. 0 
Cu2 Cu2+ 16 n 0.3450(1) 0 0.3452(1) 1. 0 
Li1 Li1+ 8 i 0 0 0.3366(11) 1. 0 
O1 O2- 16 m 0 0.113(5) 0.198(4) 1. 0 
O2 O2- 32 p 0.199(6) 0.891(1) 0.403(3) 1. 0 

loop_
_atom_site_aniso_label
_atom_site_aniso_type_symbol
_atom_site_aniso_U_11
_atom_site_aniso_U_22
_atom_site_aniso_U_33
_atom_site_aniso_U_12
_atom_site_aniso_U_13
_atom_site_aniso_U_23
Ba1 Ba2+ 0.011(1) 0.013(1) 0.013(1) 0 0 0
Ba2 Ba2+ 0.011(1) 0.015(1) 0.014(1) 0 0 0
Cu1 Cu3+ 0.017(1) 0.024(1) 0.018(1) 0 0 0
Cu2 Cu2+ 0.017(1) 0.025(1) 0.021(1) 0 0.001(1) 0
Li1 Li1+ 0.018(7) 0.013(6) 0.026(7) 0 0 0
O1 O2- 0.019(2) 0.044(3) 0.044(3) 0 0 -.007(3)
O2 O2- 0.031(2) 0.034(2) 0.036(2) -.004(2) 0.004(2) -.001(2)
#End of data_401239-ICSD


