data_280587-ICSD
#?2014 by Fachinformationszentrum Karlsruhe, and the U.S. Secretary of 
#Commerce on behalf of the United States.  All rights reserved.
_database_code_ICSD                280587
_audit_creation_date               2002/04/01
_chemical_name_systematic
;
Potassium Bis(thiocyanato)argentate
;
_chemical_formula_structural       'K (Ag (S C N)2)'
_chemical_formula_sum              'C2 Ag1 K1 N2 S2'
_publ_section_title                'Potassium silver thiocyanate'
loop_
_citation_id
_citation_journal_abbrev
_citation_year
_citation_journal_volume
_citation_page_first
_citation_page_last
_citation_journal_id_ASTM
primary 'Acta Crystallographica, Section E. Structure Reports Online'
 2001 57 52 54 ACSEBH
_publ_author_name                  'Valkonen, J.;Guenes, M.'
_cell_length_a                     6.719(1)
_cell_length_b                     18.0240(10)
_cell_length_c                     10.826(2)
_cell_angle_alpha                  90.
_cell_angle_beta                   90.
_cell_angle_gamma                  90.
_cell_volume                       1311.06
_cell_formula_units_Z              8
_symmetry_space_group_name_H-M     'P b c a'
_symmetry_Int_Tables_number        61
_refine_ls_R_factor_all            .0924
loop_
_symmetry_equiv_pos_site_id
_symmetry_equiv_pos_as_xyz
  1	'x+.5, y, -z+.5'
  2	'x, -y+.5, z+.5'
  3	'-x+.5, y+.5, z'
  4	'-x, -y, -z'
  5	'-x+.5, -y, z+.5'
  6	'-x, y+.5, -z+.5'
  7	'x+.5, -y+.5, -z'
  8	'x, y, z'
loop_
_atom_type_symbol
_atom_type_oxidation_number
Ag1+	1
C4+	4
K1+	1
N3-	-3
S2-	-2
loop_
_atom_site_label
_atom_site_type_symbol
_atom_site_symmetry_multiplicity
_atom_site_Wyckoff_symbol
_atom_site_fract_x
_atom_site_fract_y
_atom_site_fract_z
_atom_site_occupancy
_atom_site_attached_hydrogens
Ag1 Ag1+ 8 c 0.17017(6) 0.50256(2) 0.37237(4) 1. 0 
K1 K1+ 8 c 0.35256(14) 0.26974(6) 0.37357(9) 1. 0 
S1 S2- 8 c 0.54341(18) 0.53295(7) 0.3495(1) 1. 0 
S2 S2- 8 c 0.01889(16) 0.39124(6) 0.48980(9) 1. 0 
C1 C4+ 8 c 0.5208(7) 0.6245(3) 0.3470(4) 1. 0 
C2 C4+ 8 c -.1691(7) 0.3682(2) 0.3970(4) 1. 0 
N1 N3- 8 c 0.5050(7) 0.6887(2) 0.3502(4) 1. 0 
N2 N3- 8 c -.3002(6) 0.3505(3) 0.3362(4) 1. 0 

loop_
_atom_site_aniso_label
_atom_site_aniso_type_symbol
_atom_site_aniso_U_11
_atom_site_aniso_U_22
_atom_site_aniso_U_33
_atom_site_aniso_U_12
_atom_site_aniso_U_13
_atom_site_aniso_U_23
Ag1 Ag1+ 0.0487(3) 0.0437(2) 0.0462(2) -.01424(18) 0.00546(18) 0.00078(17)
K1 K1+ 0.0318(5) 0.0402(5) 0.0423(5) -.0018(4) -.0006(5) 0.0033(5)
S1 S2- 0.0335(6) 0.0353(6) 0.0328(5) -.0006(5) -.0002(5) 0.0067(5)
S2 S2- 0.0307(5) 0.0301(5) 0.0303(5) -.0007(5) -.0013(4) -.0009(4)
C1 C4+ 0.028(2) 0.041(3) 0.029(2) -.0031(18) 0.0040(19) -.0011(17)
C2 C4+ 0.032(2) 0.0234(19) 0.036(2) -.0034(17) 0.0054(19) -.0041(16)
N1 N3- 0.042(2) 0.042(2) 0.062(3) 0.001(2) 0.006(2) 0.000(2)
N2 N3- 0.034(2) 0.056(3) 0.053(3) -.008(2) 0.0007(19) -.016(2)
#End of data_280587-ICSD


