data_59887-ICSD
#?2014 by Fachinformationszentrum Karlsruhe, and the U.S. Secretary of 
#Commerce on behalf of the United States.  All rights reserved.
_database_code_ICSD                59887
_audit_creation_date               2005/10/01
_chemical_name_systematic          'Tripotassium Dibismuth Triarsenate'
_chemical_formula_structural       'K3 Bi2 (As O4)3'
_chemical_formula_sum              'As3 Bi2 K3 O12'
_publ_section_title
;
Tripotassium dibismuth(III) tris[arsenate(V)], K3 Bi2 (As O4)3
;
loop_
_citation_id
_citation_journal_abbrev
_citation_year
_citation_journal_volume
_citation_page_first
_citation_page_last
_citation_journal_id_ASTM
primary 'Acta Crystallographica, Section E. Structure Reports Online'
 2004 60 i74 i76 ACSEBH
_publ_author_name                  'Falah, C.;Boughzala, H.;Jouini, T.'
_cell_length_a                     14.030(2)
_cell_length_b                     13.773(2)
_cell_length_c                     7.009(2)
_cell_angle_alpha                  90.00
_cell_angle_beta                   114.71(2)
_cell_angle_gamma                  90.00
_cell_volume                       1230.37
_cell_formula_units_Z              4
_symmetry_space_group_name_H-M     'C 1 2/c 1'
_symmetry_Int_Tables_number        15
_refine_ls_R_factor_all            .0392
loop_
_symmetry_equiv_pos_site_id
_symmetry_equiv_pos_as_xyz
  1	'x, -y, z+.5'
  2	'-x, -y, -z'
  3	'-x, y, -z+.5'
  4	'x, y, z'
  5	'x+.5, -y+.5, z+.5'
  6	'-x+.5, -y+.5, -z'
  7	'-x+.5, y+.5, -z+.5'
  8	'x+.5, y+.5, z'
loop_
_atom_type_symbol
_atom_type_oxidation_number
As5+	5
Bi3+	3
K1+	1
O2-	-2
loop_
_atom_site_label
_atom_site_type_symbol
_atom_site_symmetry_multiplicity
_atom_site_Wyckoff_symbol
_atom_site_fract_x
_atom_site_fract_y
_atom_site_fract_z
_atom_site_occupancy
_atom_site_attached_hydrogens
_atom_site_U_iso_or_equiv
Bi1 Bi3+ 8 f 0.26492(2) 0.35529(3) 0.33414(6) 1 0 0.00740(10) 
As1 As5+ 8 f 0.74345(6) 0.39168(7) 0.64105(14) 1 0 0.0059(2) 
As2 As5+ 4 e 0.5000 0.25740(10) 0.7500 1 0 0.0064(3) 
K1 K1+ 4 e 0.5000 0.4809(2) 0.2500 1 0 0.0146(7) 
K2 K1+ 4 e 0.5000 0.2230(2) 0.2500 1 0 0.0166(7) 
K3 K1+ 4 b 0.5000 0.0000 0.5000 1 0 0.0223(7) 
O1 O2- 8 f 0.4261(5) 0.1874(5) 0.8290(10) 1 0 0.017(2) 
O2 O2- 8 f 0.5689(4) 0.3355(5) 0.9520(10) 1 0 0.012(2) 
O3 O2- 8 f 0.8531(5) 0.4344(5) 0.6360(10) 1 0 0.017(2) 
O4 O2- 8 f 0.6725(5) 0.3346(5) 0.4080(10) 1 0 0.012(2) 
O5 O2- 8 f 0.6681(4) 0.4806(5) 0.6740(10) 1 0 0.0110(10) 
O6 O2- 8 f 0.7713(5) 0.3113(5) 0.8450(10) 1 0 0.0120(10) 

loop_
_atom_site_aniso_label
_atom_site_aniso_type_symbol
_atom_site_aniso_U_11
_atom_site_aniso_U_22
_atom_site_aniso_U_33
_atom_site_aniso_U_12
_atom_site_aniso_U_13
_atom_site_aniso_U_23
Bi1 Bi3+ 0.0066(2) 0.0060(2) 0.0089(2) -0.00010(10) 0.00260(10) 0.0008(2)
As1 As5+ 0.0062(4) 0.0035(5) 0.0072(4) -0.0002(4) 0.0022(3) -0.0001(4)
As2 As5+ 0.0049(6) 0.0067(7) 0.0059(6) 0.000 0.0005(5) 0.000
K1 K1+ 0.0120(10) 0.012(2) 0.018(2) 0.000 0.0050(10) 0.000
K2 K1+ 0.0120(10) 0.015(2) 0.020(2) 0.000 0.0040(10) 0.000
K3 K1+ 0.0170(10) 0.027(2) 0.019(2) -0.005(2) 0.0040(10) 0.008(2)
O1 O2- 0.012(3) 0.018(4) 0.017(4) -0.008(3) 0.004(3) -0.001(3)
O2 O2- 0.010(3) 0.012(4) 0.013(3) -0.002(3) 0.002(3) -0.008(3)
O3 O2- 0.012(3) 0.018(4) 0.019(4) -0.003(3) 0.005(3) 0.003(3)
O4 O2- 0.021(3) 0.007(4) 0.011(3) -0.004(3) 0.009(3) -0.001(3)
O5 O2- 0.010(3) 0.006(4) 0.020(4) 0.004(3) 0.008(3) -0.003(3)
O6 O2- 0.017(3) 0.006(3) 0.008(3) 0.001(3) 0.002(3) 0.006(3)
#End of data_59887-ICSD


