data_249701-ICSD
#?2014 by Fachinformationszentrum Karlsruhe, and the U.S. Secretary of 
#Commerce on behalf of the United States.  All rights reserved.
_database_code_ICSD                249701
_audit_creation_date               2009/02/01
_chemical_name_systematic
;
Potassium Copper Uranium(IV) Trisulfide
;
_chemical_formula_structural       'K Cu U S3'
_chemical_formula_sum              'Cu1 K1 S3 U1'
_publ_section_title
;
Syntheses, structures, physical properties, and electronic properties 
of some AMUQ3 compounds (A = alkali metal, M = Cu or Ag, Q = S or Se)
;
loop_
_citation_id
_citation_journal_abbrev
_citation_year
_citation_journal_volume
_citation_journal_issue
_citation_page_first
_citation_page_last
_citation_journal_id_ASTM
primary 'Inorganic Chemistry' 2008 47 15 6873 6879 INOCAJ
_publ_author_name
;
Yao Ji Yong;Wells, D.M.;Chan, G.-H.;Zeng Huiyi;Ellis, D.E.;van Duyne, 
R.P.;Ibers, J.A.
;
_cell_length_a                     3.9711(6)
_cell_length_b                     13.894(2)
_cell_length_c                     10.2903(15)
_cell_angle_alpha                  90.00
_cell_angle_beta                   90.00
_cell_angle_gamma                  90.00
_cell_volume                       567.76
_cell_formula_units_Z              4
_symmetry_space_group_name_H-M     'C m c m'
_symmetry_Int_Tables_number        63
_refine_ls_R_factor_all            .0198
loop_
_symmetry_equiv_pos_site_id
_symmetry_equiv_pos_as_xyz
  1	'-x, y, -z+.5'
  2	'-x, -y, z+.5'
  3	'-x, y, z'
  4	'-x, -y, -z'
  5	'x, -y, z+.5'
  6	'x, y, -z+.5'
  7	'x, -y, -z'
  8	'x, y, z'
  9	'-x+.5, y+.5, -z+.5'
 10	'-x+.5, -y+.5, z+.5'
 11	'-x+.5, y+.5, z'
 12	'-x+.5, -y+.5, -z'
 13	'x+.5, -y+.5, z+.5'
 14	'x+.5, y+.5, -z+.5'
 15	'x+.5, -y+.5, -z'
 16	'x+.5, y+.5, z'
loop_
_atom_type_symbol
_atom_type_oxidation_number
Cu1+	1
K1+	1
S2-	-2
U4+	4
loop_
_atom_site_label
_atom_site_type_symbol
_atom_site_symmetry_multiplicity
_atom_site_Wyckoff_symbol
_atom_site_fract_x
_atom_site_fract_y
_atom_site_fract_z
_atom_site_occupancy
_atom_site_attached_hydrogens
_atom_site_U_iso_or_equiv
K1 K1+ 4 c 0.0000 0.74254(19) 0.2500 1 0 0.0316(6) 
U1 U4+ 4 a 0.0000 0.0000 0.0000 1 0 0.01161(18) 
Cu1 Cu1+ 4 c 0.0000 0.46512(11) 0.2500 1 0 0.0162(3) 
S1 S2- 4 c 0.0000 0.06280(19) 0.2500 1 0 0.0124(5) 
S2 S2- 8 f 0.0000 0.37460(13) 0.06045(17) 1 0 0.0129(4) 

loop_
_atom_site_aniso_label
_atom_site_aniso_type_symbol
_atom_site_aniso_U_11
_atom_site_aniso_U_22
_atom_site_aniso_U_33
_atom_site_aniso_U_12
_atom_site_aniso_U_13
_atom_site_aniso_U_23
K1 K1+ 0.0295(14) 0.0227(14) 0.0425(16) 0.000 0.000 0.000
U1 U4+ 0.0091(2) 0.0187(3) 0.0070(2) 0.000 0.000 0.00014(14)
Cu1 Cu1+ 0.0153(7) 0.0240(7) 0.0093(6) 0.000 0.000 0.000
S1 S2- 0.0119(12) 0.0167(13) 0.0086(11) 0.000 0.000 0.000
S2 S2- 0.0114(8) 0.0154(9) 0.0119(9) 0.000 0.000 -0.0010(7)
#End of data_249701-ICSD


