data_171423-ICSD
#?2014 by Fachinformationszentrum Karlsruhe, and the U.S. Secretary of 
#Commerce on behalf of the United States.  All rights reserved.
_database_code_ICSD                171423
_audit_creation_date               2006/10/01
_chemical_name_systematic          'Potassium Tetrastrontium Borate'
_chemical_formula_structural       'K Sr4 (B O3)3'
_chemical_formula_sum              'B3 K1 O9 Sr4'
_publ_section_title
;
Structure determination and relative properties of novel non-
centrosymmetric borates M M'4 (B O3)3 (M = Na, M' = Ca and M = K, M' 
= Ca, Sr)
;
loop_
_citation_id
_citation_journal_abbrev
_citation_year
_citation_journal_volume
_citation_journal_issue
_citation_page_first
_citation_page_last
_citation_journal_id_ASTM
primary 'Inorganic Chemistry' 2006 45 7 3042 3047 INOCAJ
_publ_author_name
;
Wu, L.;Chen, X.-L.;Xu, Y.-P.;Sun, Y.P.
;
_cell_length_a                     11.03843(8)
_cell_length_b                     11.98974(9)
_cell_length_c                     6.88446(5)
_cell_angle_alpha                  90.00
_cell_angle_beta                   90.00
_cell_angle_gamma                  90.00
_cell_volume                       911.14
_cell_formula_units_Z              4
_symmetry_space_group_name_H-M     'A m a 2'
_symmetry_Int_Tables_number        40
_refine_ls_R_factor_all            .0712
loop_
_symmetry_equiv_pos_site_id
_symmetry_equiv_pos_as_xyz
  1	'x+.5, -y, z'
  2	'-x+.5, y, z'
  3	'-x, -y, z'
  4	'x, y, z'
  5	'x+.5, -y+.5, z+.5'
  6	'-x+.5, y+.5, z+.5'
  7	'-x, -y+.5, z+.5'
  8	'x, y+.5, z+.5'
loop_
_atom_type_symbol
_atom_type_oxidation_number
B3+	3
K1+	1
O2-	-2
Sr2+	2
loop_
_atom_site_label
_atom_site_type_symbol
_atom_site_symmetry_multiplicity
_atom_site_Wyckoff_symbol
_atom_site_fract_x
_atom_site_fract_y
_atom_site_fract_z
_atom_site_occupancy
_atom_site_attached_hydrogens
_atom_site_U_iso_or_equiv
Sr1 Sr2+ 4 b .2500 .3551(2) .0623(5) 1 0 .0080(5) 
Sr2 Sr2+ 8 c -.0293(1) .2148(1) .9297(4) 1 0 .0082(3) 
Sr3 Sr2+ 4 a .0000 .0000 .2829 1 0 .0107(5) 
K1 K1+ 4 b .2500 .5844(5) .3305(9) 1 0 .016(1) 
O1 O2- 4 b .2500 .3475(11) .4541(25) 1 0 .004(4) 
O2 O2- 4 b .2500 .5713(16) .912(3) 1 0 .041(3) 
O3 O2- 8 c .1360(10) .6727(9) .6668(14) 1 0 .005(3) 
O4 O2- 8 c .0302(7) .4017(9) .1092(16) 1 0 .003(2) 
O5 O2- 8 c .8584(11) .1982(8) .2406(17) 1 0 .005(3) 
O6 O2- 4 a .0000 .5000 .410(3) 1 0 .010(4) 
B1 B3+ 4 b .2500 .643(2) .751(4) 1 0 .001(6) 
B2 B3+ 4 b .2500 .328(2) .650(4) 1 0 .004(6) 
B3 B3+ 4 a .0000 .5000 .210(5) 1 0 .015(7) 

#End of data_171423-ICSD


