data_88467-ICSD
#?2014 by Fachinformationszentrum Karlsruhe, and the U.S. Secretary of 
#Commerce on behalf of the United States.  All rights reserved.
_database_code_ICSD                88467
_audit_creation_date               2001/07/16
_chemical_name_systematic          'Dilithium Strontium Diniobate'
_chemical_formula_structural       'Li2 Sr (Nb2 O7)'
_chemical_formula_sum              'Li2 Nb2 O7 Sr1'
_publ_section_title
;
New n=2 members of the Li2 Srn-1 Mn O3n+1 family, closely related to 
the Ruddlesden-Popper phases: structure and non-stoichiometry
;
loop_
_citation_id
_citation_journal_abbrev
_citation_year
_citation_journal_volume
_citation_page_first
_citation_page_last
_citation_journal_id_ASTM
primary 'Journal of Materials Chemistry' 1999 9 3101 3106 JMACEP
_publ_author_name
;
Floros, N.;Michel, C.;Hervieu, M.;Raveau, B.
;
_cell_length_a                     18.0071(5)
_cell_length_b                     5.5979(3)
_cell_length_c                     5.5920(3)
_cell_angle_alpha                  90.
_cell_angle_beta                   90.
_cell_angle_gamma                  90.
_cell_volume                       563.68
_cell_formula_units_Z              4
_symmetry_space_group_name_H-M     'C m c m'
_symmetry_Int_Tables_number        63
_refine_ls_R_factor_all            .048
loop_
_symmetry_equiv_pos_site_id
_symmetry_equiv_pos_as_xyz
  1	'-x, y, -z+.5'
  2	'-x, -y, z+.5'
  3	'-x, y, z'
  4	'-x, -y, -z'
  5	'x, -y, z+.5'
  6	'x, y, -z+.5'
  7	'x, -y, -z'
  8	'x, y, z'
  9	'-x+.5, y+.5, -z+.5'
 10	'-x+.5, -y+.5, z+.5'
 11	'-x+.5, y+.5, z'
 12	'-x+.5, -y+.5, -z'
 13	'x+.5, -y+.5, z+.5'
 14	'x+.5, y+.5, -z+.5'
 15	'x+.5, -y+.5, -z'
 16	'x+.5, y+.5, z'
loop_
_atom_type_symbol
_atom_type_oxidation_number
Li1+	1
Nb5+	5
O2-	-2
Sr2+	2
loop_
_atom_site_label
_atom_site_type_symbol
_atom_site_symmetry_multiplicity
_atom_site_Wyckoff_symbol
_atom_site_fract_x
_atom_site_fract_y
_atom_site_fract_z
_atom_site_occupancy
_atom_site_attached_hydrogens
_atom_site_B_iso_or_equiv
Li1 Li1+ 8 e 0.2596(5) 0 0 1. 0 1.4(1) 
Sr1 Sr2+ 4 c 0 0.2514(8) 0.25 1. 0 0.65(3) 
Nb1 Nb5+ 8 g 0.1150(1) 0.7503(6) 0.25 1. 0 0.40(2) 
O1 O2- 4 c 0 0.7125(8) 0.25 1. 0 0.53(8) 
O2 O2- 8 g 0.2182(1) 0.7766(7) 0.25 1. 0 0.67(8) 
O3 O2- 8 e 0.6144(1) 0 0 1. 0 0.78(4) 
O4 O2- 8 e 0.0982(1) 0 0 1. 0 0.53(4) 

#End of data_88467-ICSD


