data_300173-ICSD
#?2014 by Fachinformationszentrum Karlsruhe, and the U.S. Secretary of 
#Commerce on behalf of the United States.  All rights reserved.
_database_code_ICSD                300173
_audit_creation_date               1991/07/10
_audit_update_record               2000/07/15
_chemical_name_systematic          'Sodium Phyllo-diselenidoaluminate'
_chemical_formula_structural       'Na (Al Se2)'
_chemical_formula_sum              'Al1 Na1 Se2'
_publ_section_title
;
Crystal structure of sodium phyllo-diselenidoaluminate
;
loop_
_citation_id
_citation_journal_abbrev
_citation_year
_citation_journal_volume
_citation_page_first
_citation_page_last
_citation_journal_id_ASTM
primary 'Zeitschrift fuer Kristallographie (1979-2010)' 1991 197 171 172 ZEKRDZ
_publ_author_name                  'Eisenmann, B.;Hofmann, A.'
_cell_length_a                     10.720(5)
_cell_length_b                     10.708(5)
_cell_length_c                     14.126(6)
_cell_angle_alpha                  90.
_cell_angle_beta                   100.90(6)
_cell_angle_gamma                  90.
_cell_volume                       1592.27
_cell_formula_units_Z              16
_symmetry_space_group_name_H-M     'C 1 2/c 1'
_symmetry_Int_Tables_number        15
_refine_ls_R_factor_all            .088
loop_
_symmetry_equiv_pos_site_id
_symmetry_equiv_pos_as_xyz
  1	'x, -y, z+.5'
  2	'-x, -y, -z'
  3	'-x, y, -z+.5'
  4	'x, y, z'
  5	'x+.5, -y+.5, z+.5'
  6	'-x+.5, -y+.5, -z'
  7	'-x+.5, y+.5, -z+.5'
  8	'x+.5, y+.5, z'
loop_
_atom_type_symbol
_atom_type_oxidation_number
Al3+	3
Na1+	1
Se2-	-2
loop_
_atom_site_label
_atom_site_type_symbol
_atom_site_symmetry_multiplicity
_atom_site_Wyckoff_symbol
_atom_site_fract_x
_atom_site_fract_y
_atom_site_fract_z
_atom_site_occupancy
_atom_site_attached_hydrogens
Na1 Na1+ 8 f 0.4664(16) 0.3128(17) 0.1195(9) 1. 0 
Na2 Na1+ 8 f 0.2825(15) 0.0610(14) 0.3780(8) 1. 0 
Al1 Al3+ 8 f 0.0992(5) 0.1877(5) 0.1520(4) 1. 0 
Al2 Al3+ 8 f 0.1478(5) 0.4357(5) 0.3480(4) 1. 0 
Se1 Se2- 4 e 0 0.0510(3) 0.25 1. 0 
Se2 Se2- 4 e 0 0.5679(3) 0.25 1. 0 
Se3 Se2- 8 f 0.2000(2) 0.0627(2) 0.0504(2) 1. 0 
Se4 Se2- 8 f 0.2563(1) 0.3148(2) 0.2502(1) 1. 0 
Se5 Se2- 8 f 0.0505(2) 0.3119(3) 0.4528(2) 1. 0 

#End of data_300173-ICSD


