data_415752-ICSD
#?2014 by Fachinformationszentrum Karlsruhe, and the U.S. Secretary of 
#Commerce on behalf of the United States.  All rights reserved.
_database_code_ICSD                415752
_audit_creation_date               2006/10/01
_chemical_name_systematic
;
Potassium Diantimony Undecafluoride
;
_chemical_formula_structural       'K Sb2 F11'
_chemical_formula_sum              'F11 K1 Sb2'
_publ_section_title
;
Synthesis and characterisation of alkali metal and thallium 
polyfluoroantimonates, A Sb(n) F(5n+1) (n = 2,3)
;
loop_
_citation_id
_citation_journal_abbrev
_citation_year
_citation_journal_volume
_citation_journal_issue
_citation_page_first
_citation_page_last
_citation_journal_id_ASTM
primary 'European Journal of Inorganic Chemistry  (online)'
 2006 2006 5 1084 1092 EJICFO
_publ_author_name
;
Benkic, P.;Jenkins, H.D.B.;Ponikvar, M.;Mazej, Z.
;
_cell_length_a                     11.4165(8)
_cell_length_b                     12.7996(9)
_cell_length_c                     39.485(3)
_cell_angle_alpha                  90.00
_cell_angle_beta                   90.00
_cell_angle_gamma                  90.00
_cell_volume                       5769.81
_cell_formula_units_Z              24
_symmetry_space_group_name_H-M     'P b c a'
_symmetry_Int_Tables_number        61
_refine_ls_R_factor_all            .0695
loop_
_symmetry_equiv_pos_site_id
_symmetry_equiv_pos_as_xyz
  1	'x+.5, y, -z+.5'
  2	'x, -y+.5, z+.5'
  3	'-x+.5, y+.5, z'
  4	'-x, -y, -z'
  5	'-x+.5, -y, z+.5'
  6	'-x, y+.5, -z+.5'
  7	'x+.5, -y+.5, -z'
  8	'x, y, z'
loop_
_atom_type_symbol
_atom_type_oxidation_number
F1-	-1
K1+	1
Sb5+	5
loop_
_atom_site_label
_atom_site_type_symbol
_atom_site_symmetry_multiplicity
_atom_site_Wyckoff_symbol
_atom_site_fract_x
_atom_site_fract_y
_atom_site_fract_z
_atom_site_occupancy
_atom_site_attached_hydrogens
_atom_site_U_iso_or_equiv
Sb1 Sb5+ 8 c 0.38622(5) 0.50305(4) 0.183160(14) 1 0 0.03101(14) 
Sb2 Sb5+ 8 c 0.51049(5) 0.68296(4) 0.254949(15) 1 0 0.03397(15) 
Sb3 Sb5+ 8 c 0.36208(5) 0.46374(4) 0.052693(14) 1 0 0.03383(15) 
Sb4 Sb5+ 8 c 0.50244(5) 0.20214(5) 0.020229(17) 1 0 0.03907(16) 
Sb5 Sb5+ 8 c 1.01151(4) 0.37079(4) 0.128621(16) 1 0 0.03424(15) 
Sb6 Sb5+ 8 c 0.72857(5) 0.20261(4) 0.133060(14) 1 0 0.03270(14) 
K1 K1+ 8 c 0.75008(19) 0.45104(18) 0.05067(6) 1 0 0.0511(5) 
K2 K1+ 8 c 0.75514(18) 0.43849(16) 0.21301(5) 1 0 0.0436(5) 
K3 K1+ 8 c 0.16937(19) 0.69656(16) 0.12401(6) 1 0 0.0496(5) 
F1 F1- 8 c 0.4405(5) 0.6274(4) 0.21145(13) 1 0 0.0447(12) 
F2 F1- 8 c 0.4147(5) 0.3393(4) 0.02453(14) 1 0 0.0546(15) 
F3 F1- 8 c 0.8983(4) 0.2482(4) 0.13225(14) 1 0 0.0431(12) 
F4 F1- 8 c 0.5301(5) 0.4466(5) 0.1928(2) 1 0 0.0680(19) 
F5 F1- 8 c 0.3281(6) 0.4510(5) 0.22294(14) 1 0 0.0620(17) 
F6 F1- 8 c 0.2498(6) 0.5788(5) 0.17755(19) 1 0 0.083(2) 
F7 F1- 8 c 0.4475(9) 0.5721(6) 0.14658(18) 1 0 0.094(3) 
F8 F1- 8 c 0.3364(5) 0.3888(4) 0.15819(14) 1 0 0.0480(13) 
F9 F1- 8 c 0.6248(6) 0.5837(6) 0.24772(19) 1 0 0.084(2) 
F10 F1- 8 c 0.4186(8) 0.5850(6) 0.27638(18) 1 0 0.096(3) 
F11 F1- 8 c 0.3859(6) 0.7758(6) 0.25505(19) 1 0 0.076(2) 
F12 F1- 8 c 0.5938(6) 0.7740(5) 0.22779(17) 1 0 0.075(2) 
F13 F1- 8 c 0.5739(5) 0.7299(4) 0.29493(15) 1 0 0.0570(15) 
F14 F1- 8 c 0.3822(8) 0.3774(5) 0.08940(17) 1 0 0.095(3) 
F15 F1- 8 c 0.5175(5) 0.4989(6) 0.0548(2) 1 0 0.073(2) 
F16 F1- 8 c 0.3513(6) 0.5264(5) 0.01113(16) 1 0 0.0677(18) 
F17 F1- 8 c 0.2134(6) 0.4134(7) 0.0475(2) 1 0 0.107(3) 
F18 F1- 8 c 0.3132(5) 0.5767(4) 0.07774(16) 1 0 0.0592(16) 
F19 F1- 8 c 0.4474(8) 0.1747(5) 0.06280(19) 1 0 0.089(2) 
F20 F1- 8 c 0.6268(6) 0.2740(6) 0.0386(2) 1 0 0.094(3) 
F21 F1- 8 c 0.5430(8) 0.2493(6) -0.02185(18) 1 0 0.097(3) 
F22 F1- 8 c 0.3677(6) 0.1490(6) 0.0013(3) 1 0 0.108(3) 
F23 F1- 8 c 0.5846(6) 0.0774(5) 0.01957(18) 1 0 0.0708(19) 
F24 F1- 8 c 0.9360(6) 0.4016(6) 0.08951(19) 1 0 0.085(2) 
F25 F1- 8 c 0.9019(7) 0.4402(5) 0.1536(3) 1 0 0.105(3) 
F26 F1- 8 c 1.0781(8) 0.3220(7) 0.1673(2) 1 0 0.114(4) 
F27 F1- 8 c 1.1087(6) 0.2808(5) 0.1064(2) 1 0 0.081(2) 
F28 F1- 8 c 1.1093(5) 0.4852(4) 0.12454(17) 1 0 0.0561(16) 
F29 F1- 8 c 0.7034(5) 0.3172(5) 0.10578(17) 1 0 0.0664(18) 
F30 F1- 8 c 0.7132(5) 0.2873(5) 0.17073(16) 1 0 0.0673(18) 
F31 F1- 8 c 0.7775(5) 0.0967(5) 0.16138(18) 1 0 0.0664(19) 
F32 F1- 8 c 0.7620(6) 0.1224(6) 0.09596(18) 1 0 0.076(2) 
F33 F1- 8 c 0.5708(5) 0.1652(5) 0.13349(15) 1 0 0.0564(15) 

loop_
_atom_site_aniso_label
_atom_site_aniso_type_symbol
_atom_site_aniso_U_11
_atom_site_aniso_U_22
_atom_site_aniso_U_33
_atom_site_aniso_U_12
_atom_site_aniso_U_13
_atom_site_aniso_U_23
Sb1 Sb5+ 0.0377(3) 0.0294(3) 0.0260(3) 0.0004(2) -0.0056(2) -0.0001(2)
Sb2 Sb5+ 0.0383(3) 0.0287(3) 0.0350(3) -0.0028(2) -0.0015(2) -0.0056(2)
Sb3 Sb5+ 0.0387(3) 0.0340(3) 0.0288(3) 0.0004(2) 0.0039(2) -0.0016(2)
Sb4 Sb5+ 0.0432(3) 0.0328(3) 0.0412(4) 0.0017(2) -0.0050(2) -0.0064(2)
Sb5 Sb5+ 0.0267(3) 0.0282(3) 0.0478(4) -0.00139(19) 0.0009(2) 0.0025(2)
Sb6 Sb5+ 0.0294(3) 0.0330(3) 0.0357(3) -0.0050(2) -0.0034(2) -0.0010(2)
K1 K1+ 0.0481(12) 0.0565(13) 0.0487(13) -0.0058(9) -0.0050(10) 0.0013(10)
K2 K1+ 0.0442(10) 0.0429(11) 0.0438(12) 0.0013(8) -0.0074(9) -0.0082(8)
K3 K1+ 0.0458(12) 0.0390(11) 0.0640(15) -0.0024(8) -0.0057(10) 0.0029(10)
F1 F1- 0.063(3) 0.030(3) 0.041(3) -0.003(2) -0.016(2) -0.002(2)
F2 F1- 0.087(4) 0.037(3) 0.039(3) 0.019(3) -0.003(3) -0.005(2)
F3 F1- 0.031(3) 0.032(3) 0.066(4) -0.0064(19) -0.001(2) 0.008(2)
F4 F1- 0.037(3) 0.055(4) 0.113(6) 0.010(3) -0.018(3) -0.022(4)
F5 F1- 0.092(5) 0.063(4) 0.031(3) -0.028(3) 0.015(3) -0.007(3)
F6 F1- 0.078(5) 0.075(5) 0.097(6) 0.040(4) -0.055(4) -0.028(4)
F7 F1- 0.167(8) 0.074(5) 0.042(4) -0.040(5) 0.009(5) 0.013(3)
F8 F1- 0.065(3) 0.038(3) 0.041(3) -0.004(2) -0.010(3) -0.006(2)
F9 F1- 0.088(5) 0.087(5) 0.076(5) 0.052(4) -0.029(4) -0.041(4)
F10 F1- 0.136(7) 0.098(5) 0.054(5) -0.075(5) -0.005(4) 0.012(4)
F11 F1- 0.066(4) 0.078(5) 0.083(5) 0.028(3) -0.010(4) -0.034(4)
F12 F1- 0.086(5) 0.079(5) 0.060(4) -0.040(4) 0.002(4) 0.000(4)
F13 F1- 0.070(4) 0.054(3) 0.048(4) 0.000(3) -0.018(3) -0.015(3)
F14 F1- 0.187(9) 0.065(4) 0.034(4) 0.021(5) 0.012(5) 0.012(3)
F15 F1- 0.044(3) 0.080(5) 0.096(6) 0.004(3) 0.003(3) -0.029(4)
F16 F1- 0.093(5) 0.066(4) 0.044(4) 0.024(3) -0.007(3) 0.008(3)
F17 F1- 0.054(4) 0.141(8) 0.125(8) -0.043(5) 0.014(4) -0.047(6)
F18 F1- 0.059(4) 0.052(3) 0.067(4) 0.009(3) 0.012(3) -0.020(3)
F19 F1- 0.134(7) 0.065(4) 0.067(5) 0.023(4) 0.041(5) 0.020(4)
F20 F1- 0.068(4) 0.069(5) 0.145(8) -0.012(4) -0.040(5) -0.010(5)
F21 F1- 0.149(7) 0.091(5) 0.051(5) 0.038(5) 0.024(5) 0.006(4)
F22 F1- 0.072(5) 0.069(5) 0.183(10) 0.003(4) -0.049(5) -0.055(6)
F23 F1- 0.079(4) 0.048(3) 0.085(5) 0.021(3) -0.010(4) -0.011(3)
F24 F1- 0.071(4) 0.098(5) 0.085(5) -0.034(4) -0.039(4) 0.048(4)
F25 F1- 0.099(6) 0.053(4) 0.161(9) -0.014(4) 0.067(6) -0.034(5)
F26 F1- 0.098(6) 0.130(7) 0.115(7) -0.056(6) -0.053(5) 0.063(6)
F27 F1- 0.061(4) 0.050(4) 0.132(7) 0.003(3) 0.038(4) -0.012(4)
F28 F1- 0.054(3) 0.033(3) 0.081(5) -0.016(2) 0.001(3) 0.006(3)
F29 F1- 0.053(4) 0.074(4) 0.073(5) -0.001(3) -0.016(3) 0.030(3)
F30 F1- 0.054(4) 0.088(5) 0.060(4) -0.010(3) 0.008(3) -0.030(3)
F31 F1- 0.050(3) 0.057(4) 0.093(5) -0.010(3) -0.010(3) 0.035(3)
F32 F1- 0.073(4) 0.086(5) 0.069(5) -0.009(4) 0.012(3) -0.042(4)
F33 F1- 0.032(3) 0.065(4) 0.072(4) -0.014(3) -0.008(3) 0.005(3)
#End of data_415752-ICSD


