data_236248-ICSD
#?2014 by Fachinformationszentrum Karlsruhe, and the U.S. Secretary of 
#Commerce on behalf of the United States.  All rights reserved.
_database_code_ICSD                236248
_audit_creation_date               2013/08/01
_chemical_name_systematic          'Dicopper Zinc Silicon Tetrasulfide'
_chemical_formula_structural       'Cu2 Zn Si S4'
_chemical_formula_sum              'Cu2 S4 Si1 Zn1'
_publ_section_title
;
Synchrotron X-ray powder diffraction and electronic band structure of 
alpha - and beta - Cu2 Zn Si S4
;
loop_
_citation_id
_citation_journal_abbrev
_citation_year
_citation_journal_volume
_citation_journal_issue
_citation_page_first
_citation_page_last
_citation_journal_id_ASTM
primary 'Zeitschrift fuer Anorganische und Allgemeine Chemie (1950) (DE)'
 2012 638 15 2578 2584 ZAACAB
_publ_author_name
;
Rosmus, Kimberly A.;Brunetta, Carl D.;Srnec, Matthew 
N.;Karuppannan,;Balamurugan;Aitken, Jennifer A.
;
_cell_length_a                     6.134092(6)
_cell_length_b                     6.392752(5)
_cell_length_c                     7.421228(8)
_cell_angle_alpha                  90
_cell_angle_beta                   90
_cell_angle_gamma                  90
_cell_volume                       291.01
_cell_formula_units_Z              2
_symmetry_space_group_name_H-M     'P 1 n 1'
_symmetry_Int_Tables_number        7
_refine_ls_R_factor_all            .0857
loop_
_symmetry_equiv_pos_site_id
_symmetry_equiv_pos_as_xyz
  1	'x+.5, -y, z+.5'
  2	'x, y, z'
loop_
_atom_type_symbol
_atom_type_oxidation_number
Cu1+	1
S2-	-2
Si4+	4
Zn2+	2
loop_
_atom_site_label
_atom_site_type_symbol
_atom_site_symmetry_multiplicity
_atom_site_Wyckoff_symbol
_atom_site_fract_x
_atom_site_fract_y
_atom_site_fract_z
_atom_site_occupancy
_atom_site_attached_hydrogens
_atom_site_U_iso_or_equiv
Cu1 Cu1+ 2 a 0.9207(2) 0.6731(4) 0.2767(2) 1. 0 0.0067(4) 
Cu2 Cu1+ 2 a 0.4159(2) 0.8480(1) 0.5256(3) 1. 0 0.0079(2) 
Zn1 Zn2+ 2 a 0.9170(2) 0.6754(4) 0.7709(2) 1. 0 0.0075(4) 
Si1 Si4+ 2 a 0.9163(5) 0.1744(2) 0.5245(7) 1. 0 0.0069(4) 
S1 S2- 2 a 0.2970(4) 0.6726(6) 0.7873(2) 1. 0 0.0046(1) 
S2 S2- 2 a 0.2964(4) 0.6725(6) 0.2605(2) 1. 0 0.0047(1) 
S3 S2- 2 a 0.2633(2) 0.1779(2) 0.5272(4) 1. 0 0.0046(1) 
S4 S2- 2 a 0.7915(2) 0.8619(2) 0.5229(4) 1. 0 0.0051(1) 

#End of data_236248-ICSD


