data_79881-ICSD
#?2014 by Fachinformationszentrum Karlsruhe, and the U.S. Secretary of 
#Commerce on behalf of the United States.  All rights reserved.
_database_code_ICSD                79881
_audit_creation_date               1996/10/14
_chemical_name_systematic
;
Silver(II) Fluoride Hexafluororuthenate(V)
;
_chemical_formula_structural       'Ag F (Ru F6)'
_chemical_formula_sum              'Ag1 F7 Ru1'
_publ_section_title
;
Preparation and structural and magnetic properties of (Ag F)(+) (M 
F6)(-) (M=Ir,Ru,Sb,Bi) and Ag(2+) ((Bi F6)(-))2
;
loop_
_citation_id
_citation_journal_abbrev
_citation_year
_citation_journal_volume
_citation_page_first
_citation_page_last
_citation_journal_id_ASTM
primary 'Inorganic Chemistry' 1995 34 2692 2698 INOCAJ
_publ_author_name
;
Lucier, G.;Muenzenberg, J.;Casteel, W.J.jr.;Bartlett, N.
;
_cell_length_a                     8.3432(13)
_cell_length_b                     5.4933(8)
_cell_length_c                     11.9286(22)
_cell_angle_alpha                  90.
_cell_angle_beta                   108.36(1)
_cell_angle_gamma                  90.
_cell_volume                       518.88
_cell_formula_units_Z              4
_symmetry_space_group_name_H-M     'P 1 21/n 1'
_symmetry_Int_Tables_number        14
_refine_ls_R_factor_all            .027
loop_
_symmetry_equiv_pos_site_id
_symmetry_equiv_pos_as_xyz
  1	'-x+.5, y+.5, -z+.5'
  2	'-x, -y, -z'
  3	'x+.5, -y+.5, z+.5'
  4	'x, y, z'
loop_
_atom_type_symbol
_atom_type_oxidation_number
Ag2+	2
F1-	-1
Ru5+	5
loop_
_atom_site_label
_atom_site_type_symbol
_atom_site_symmetry_multiplicity
_atom_site_Wyckoff_symbol
_atom_site_fract_x
_atom_site_fract_y
_atom_site_fract_z
_atom_site_occupancy
_atom_site_attached_hydrogens
_atom_site_B_iso_or_equiv
Ag1 Ag2+ 4 e 0.07248(1) 0.21192(7) 0.22002(1) 1. 0 1.440(5) 
Ru1 Ru5+ 4 e 0.22722(1) 0.28784(7) 0.93846(1) 1. 0 1.297(6) 
F1 F1- 4 e 0.0755(3) 0.4622(5) 0.8100(2) 1. 0 1.99(5) 
F2 F1- 4 e 0.1559(3) -.0026(5) 0.8513(2) 1. 0 2.06(5) 
F3 F1- 4 e 0.0544(3) 0.2482(6) 0.0034(2) 1. 0 2.30(5) 
F4 F1- 4 e 0.3904(3) 0.3208(6) 0.8665(2) 1. 0 2.53(6) 
F5 F1- 4 e 0.2867(3) 0.5730(6) 0.0181(2) 1. 0 2.70(6) 
F6 F1- 4 e 0.3696(3) 0.1148(7) 0.0581(2) 1. 0 2.81(6) 
F7 F1- 4 e 0.2124(3) -.0913(5) 0.2374(2) 1. 0 2.30(5) 

#End of data_79881-ICSD


