data_155818-ICSD
#?2014 by Fachinformationszentrum Karlsruhe, and the U.S. Secretary of 
#Commerce on behalf of the United States.  All rights reserved.
_database_code_ICSD                155818
_audit_creation_date               2007/08/01
_chemical_name_systematic          'Dicesium Silver(II) Fluoride'
_chemical_formula_structural       'Cs2 Ag F4'
_chemical_formula_sum              'Ag1 Cs2 F4'
_publ_section_title
;
Magnetic behaviour of layered Ag(II) fluorides
;
loop_
_citation_id
_citation_journal_abbrev
_citation_year
_citation_journal_volume
_citation_page_first
_citation_page_last
_citation_journal_id_ASTM
primary 'Nature Materials' 2006 5 561 566 NMAACR
_publ_author_name
;
McLain, S.E.;Dolgos, M.R.;Tennant, D.A.;Turner, J.F.C.;Barnes, 
T.;Proffen, T.;Sales, B.C.;Bewley, R.I.
;
_cell_length_a                     6.4345(9)
_cell_length_b                     6.4390(9)
_cell_length_c                     14.14950(12)
_cell_angle_alpha                  90.
_cell_angle_beta                   90.
_cell_angle_gamma                  90.
_cell_volume                       586.24
_cell_formula_units_Z              4
_symmetry_space_group_name_H-M     'B b c m'
_symmetry_Int_Tables_number        64
loop_
_symmetry_equiv_pos_site_id
_symmetry_equiv_pos_as_xyz
  1	'-x+.5, y+.5, -z'
  2	'x+.5, -y+.5, -z'
  3	'x, y, -z'
  4	'-x, -y, -z'
  5	'x+.5, -y+.5, z'
  6	'-x+.5, y+.5, z'
  7	'-x, -y, z'
  8	'x, y, z'
  9	'-x, y+.5, -z+.5'
 10	'x, -y+.5, -z+.5'
 11	'x+.5, y, -z+.5'
 12	'-x+.5, -y, -z+.5'
 13	'x, -y+.5, z+.5'
 14	'-x, y+.5, z+.5'
 15	'-x+.5, -y, z+.5'
 16	'x+.5, y, z+.5'
loop_
_atom_type_symbol
_atom_type_oxidation_number
Ag2+	2
Cs1+	1
F1-	-1
loop_
_atom_site_label
_atom_site_type_symbol
_atom_site_symmetry_multiplicity
_atom_site_Wyckoff_symbol
_atom_site_fract_x
_atom_site_fract_y
_atom_site_fract_z
_atom_site_occupancy
_atom_site_attached_hydrogens
Ag1 Ag2+ 4 a 0 0 0 1. 0 
Cs1 Cs1+ 8 d 0 0 0.356741 1. 0 
F1 F1- 8 d 0 0 0.149220 1. 0 
F2 F1- 8 f 0.238227 0.225628 0 1. 0 

#End of data_155818-ICSD


