data_280199-ICSD
#?2014 by Fachinformationszentrum Karlsruhe, and the U.S. Secretary of 
#Commerce on behalf of the United States.  All rights reserved.
_database_code_ICSD                280199
_audit_creation_date               2002/04/01
_chemical_name_systematic
;
Lithium Europium(II) Tetraselenophosphate(V)
;
_chemical_formula_structural       'Li Eu (P Se4)'
_chemical_formula_sum              'Eu1 Li1 P1 Se4'
_publ_section_title
;
Li Eu P Se4 and K Eu P Se4: Novel selenophosphates with the 
tetrahedral (P Se4)3- building block
;
loop_
_citation_id
_citation_journal_abbrev
_citation_year
_citation_journal_volume
_citation_page_first
_citation_page_last
_citation_journal_id_ASTM
primary 'Inorganic Chemistry' 2000 39 1525 1533 INOCAJ
_publ_author_name
;
Aitken, J.A.;Chondroudis, K.;Young, V.G.jr.;Kanatzidis, M.G.
;
_cell_length_a                     10.5592(9)
_cell_length_b                     10.415(1)
_cell_length_c                     6.4924(7)
_cell_angle_alpha                  90.
_cell_angle_beta                   90.
_cell_angle_gamma                  90.
_cell_volume                       714
_cell_formula_units_Z              4
_symmetry_space_group_name_H-M     'A m a 2'
_symmetry_Int_Tables_number        40
_refine_ls_R_factor_all            .051
loop_
_symmetry_equiv_pos_site_id
_symmetry_equiv_pos_as_xyz
  1	'x+.5, -y, z'
  2	'-x+.5, y, z'
  3	'-x, -y, z'
  4	'x, y, z'
  5	'x+.5, -y+.5, z+.5'
  6	'-x+.5, y+.5, z+.5'
  7	'-x, -y+.5, z+.5'
  8	'x, y+.5, z+.5'
loop_
_atom_type_symbol
_atom_type_oxidation_number
Eu3+	3
Li1+	1
P4+	4
Se2-	-2
loop_
_atom_site_label
_atom_site_type_symbol
_atom_site_symmetry_multiplicity
_atom_site_Wyckoff_symbol
_atom_site_fract_x
_atom_site_fract_y
_atom_site_fract_z
_atom_site_occupancy
_atom_site_attached_hydrogens
_atom_site_U_iso_or_equiv
Li1 Li1+ 4 a 0.5 1 0.6080(99) 1. 0 0.001(6) 
Eu1 Eu3+ 4 a 0.5 1 0.1139(3) 1. 0 0 
P1 P4+ 4 b 0.75 0.7212(5) 0.1336(13) 1. 0 0 
Se1 Se2- 4 b 0.25 0.9372(3) -.1423(4) 1. 0 0 
Se2 Se2- 4 b 0.75 0.9020(2) 0.3156(4) 1. 0 0 
Se3 Se2- 8 c 0.4203(2) 0.7754(2) 0.4385(3) 1. 0 0 

loop_
_atom_site_aniso_label
_atom_site_aniso_type_symbol
_atom_site_aniso_U_11
_atom_site_aniso_U_22
_atom_site_aniso_U_33
_atom_site_aniso_U_12
_atom_site_aniso_U_13
_atom_site_aniso_U_23
Eu1 Eu3+ 0.0154(5) 0.0121(8) 0.0202(9) 0.0027(3) 0 0
P1 P4+ 0.012(2) 0.010(3) 0.012(3) 0 0 -.001(3)
Se1 Se2- 0.0179(11) 0.0162(15) 0.018(2) 0 0 -.0054(12)
Se2 Se2- 0.0168(10) 0.0096(13) 0.0065(14) 0 0 -.0029(11)
Se3 Se2- 0.0177(8) 0.0173(13) 0.0181(12) 0.0040(6) 0.0079(6) 0.0085(9)
#End of data_280199-ICSD


