data_79787-ICSD
#?2014 by Fachinformationszentrum Karlsruhe, and the U.S. Secretary of 
#Commerce on behalf of the United States.  All rights reserved.
_database_code_ICSD                79787
_audit_creation_date               1996/10/14
_audit_update_record               2006/04/01
_chemical_name_systematic          'Dilead Magnesium Tungstate - Ii'
_chemical_formula_structural       'Pb2 Mg (W O6)'
_chemical_formula_sum              'Mg1 O6 Pb2 W1'
_publ_section_title
;
Crystal structure of the antiferroelectric perovskite Pb2 Mg W O6
;
loop_
_citation_id
_citation_journal_abbrev
_citation_year
_citation_journal_volume
_citation_page_first
_citation_page_last
_citation_journal_id_ASTM
primary 'Acta Crystallographica, Section B: Structural Science'
 1995 51 668 673 ASBSDK
2 'Golden Book of Phase Transitions, Wroclaw' 2002 1 1 123 GBOPT5
_publ_author_name
;
Baldinozzi, G.;Sciau, P.;Pinot, M.;Grebille, D.
;
_cell_length_a                     7.9041(3)
_cell_length_b                     5.7035(2)
_cell_length_c                     11.4442(4)
_cell_angle_alpha                  90.
_cell_angle_beta                   90.
_cell_angle_gamma                  90.
_cell_volume                       515.92
_cell_formula_units_Z              4
_symmetry_space_group_name_H-M     'P m c n'
_symmetry_Int_Tables_number        62
_refine_ls_R_factor_all            .029
loop_
_symmetry_equiv_pos_site_id
_symmetry_equiv_pos_as_xyz
  1	'x, -y+.5, z+.5'
  2	'-x+.5, y, z'
  3	'x+.5, y+.5, -z+.5'
  4	'-x, -y, -z'
  5	'-x, y+.5, -z+.5'
  6	'x+.5, -y, -z'
  7	'-x+.5, -y+.5, z+.5'
  8	'x, y, z'
loop_
_atom_type_symbol
_atom_type_oxidation_number
Mg2+	2
O2-	-2
Pb2+	2
W6+	6
loop_
_atom_site_label
_atom_site_type_symbol
_atom_site_symmetry_multiplicity
_atom_site_Wyckoff_symbol
_atom_site_fract_x
_atom_site_fract_y
_atom_site_fract_z
_atom_site_occupancy
_atom_site_attached_hydrogens
_atom_site_B_iso_or_equiv
Pb1 Pb2+ 8 d 0.0062(2) 0.7887(2) 0.1464(1) 1. 0 0.34(2) 
Mg1 Mg2+ 4 c 0.25 0.7537(6) 0.3780(3) 1. 0 0.21(4) 
W1 W6+ 4 c 0.25 0.2569(5) 0.1136(2) 1. 0 0.34(3) 
O1 O2- 8 d 0.4910(3) 0.2298(3) 0.1340(2) 1. 0 0.51(3) 
O2 O2- 4 c 0.25 0.0135(8) 0.0032(8) 1. 0 0.53(2) 
O3 O2- 4 c 0.25 0.4974(11) 0.0097(3) 1. 0 0.53(2) 
O4 O2- 4 c 0.25 -.0253(9) 0.2359(3) 1. 0 0.53(2) 
O5 O2- 4 c 0.25 0.4629(9) 0.2514(3) 1. 0 0.53(2) 

#End of data_79787-ICSD


