data_262323-ICSD
#?2014 by Fachinformationszentrum Karlsruhe, and the U.S. Secretary of 
#Commerce on behalf of the United States.  All rights reserved.
_database_code_ICSD                262323
_audit_creation_date               2012/08/01
_chemical_name_systematic          'Distrontium Zinc Tungstate'
_chemical_formula_structural       'Ca2 Ca W O6'
_chemical_formula_sum              'Ca3 O6 W1'
_publ_section_title
;
Structures of ordered tungsten- or molybdenum-containing quaternary 
perovskite oxides
;
loop_
_citation_id
_citation_journal_abbrev
_citation_year
_citation_journal_volume
_citation_journal_issue
_citation_page_first
_citation_page_last
_citation_journal_id_ASTM
primary 'Journal of Solid State Chemistry' 2012 185 1 107 116 JSSCBI
_publ_author_name
;
Day, B.E.;Bley, N.D.;Jones, H.R.;McCullough, R.M.;Eng, H.W.;Porter, 
S.H.;Woodward, P.M.;Barnes, P.W.
;
_cell_length_a                     5.5518(3)
_cell_length_b                     5.8100(3)
_cell_length_c                     8.0066(4)
_cell_angle_alpha                  90.
_cell_angle_beta                   89.808(1)
_cell_angle_gamma                  90.
_cell_volume                       258.26
_cell_formula_units_Z              2
_symmetry_space_group_name_H-M     'P 1 21/n 1'
_symmetry_Int_Tables_number        14
_refine_ls_R_factor_all            .0253
loop_
_symmetry_equiv_pos_site_id
_symmetry_equiv_pos_as_xyz
  1	'-x+.5, y+.5, -z+.5'
  2	'-x, -y, -z'
  3	'x+.5, -y+.5, z+.5'
  4	'x, y, z'
loop_
_atom_type_symbol
_atom_type_oxidation_number
Ca2+	2
O2-	-2
W6+	6
loop_
_atom_site_label
_atom_site_type_symbol
_atom_site_symmetry_multiplicity
_atom_site_Wyckoff_symbol
_atom_site_fract_x
_atom_site_fract_y
_atom_site_fract_z
_atom_site_occupancy
_atom_site_attached_hydrogens
_atom_site_U_iso_or_equiv
Ca1 Ca2+ 4 e 0.4852(2) 0.5569(1) 0.2558(2) 1. 0 0.0080(2) 
Ca2 Ca2+ 2 c 0 0.5 0 1. 0 0.0056(3) 
W1 W6+ 2 d 0.5 0 0 1. 0 0.0048(3) 
O1 O2- 4 e 0.3335(1) 0.2751(1) 0.0694(1) 1. 0 0.0089(4) 
O2 O2- 4 e 0.2170(1) 0.8245(1) 0.0495(1) 1. 0 0.0073(4) 
O3 O2- 4 e 0.6124(1) -0.0526(1) 0.2254(1) 1. 0 0.0088(4) 

loop_
_atom_site_aniso_label
_atom_site_aniso_type_symbol
_atom_site_aniso_U_11
_atom_site_aniso_U_22
_atom_site_aniso_U_33
_atom_site_aniso_U_12
_atom_site_aniso_U_13
_atom_site_aniso_U_23
O1 O2- 0.0089(4) 0.0057(4) 0.0111(5) 0.0029(3) 0.0007(3) -0.0032(4)
O2 O2- 0.0073(4) 0.0082(4) 0.0099(5) -0.0045(3) -0.0032(3) 0.0029(4)
O3 O2- 0.0088(4) 0.0086(4) 0.0046(4) -0.0011(3) -0.0001(4) -0.0002(3)
#End of data_262323-ICSD


