data_107382-ICSD
#?2014 by Fachinformationszentrum Karlsruhe, and the U.S. Secretary of 
#Commerce on behalf of the United States.  All rights reserved.
_database_code_ICSD                107382
_audit_creation_date               2013/08/01
_chemical_name_systematic          'Aluminium Silicate Hydroxide *'
_chemical_formula_structural       'Al4 (O H)8 (Si4 O10)'
_chemical_formula_sum              'H8 Al4 O18 Si4'
_chemical_name_mineral             'Kaolinite 1A'
_publ_section_title
;
What is the Structure of Kaolinite? Reconciling Theory and Experiment
;
loop_
_citation_id
_citation_journal_abbrev
_citation_year
_citation_journal_volume
_citation_page_first
_citation_page_last
_citation_journal_id_ASTM
primary 'Clays and Clay Minerals (-28,1980)' 1988 36 225 232 CCMPA7
_publ_author_name
;
White, C.E.;Provis, J.L.;Riley, D.P.;Kearley, G.J.;van Deventer, 
J,S.J.
;
_cell_length_a                     5.149
_cell_length_b                     8.9335(1)
_cell_length_c                     7.3844(1)
_cell_angle_alpha                  91.930(1)
_cell_angle_beta                   105.042(1)
_cell_angle_gamma                  89.791(1)
_cell_volume                       327.84
_cell_formula_units_Z              1
_symmetry_space_group_name_H-M     'P 1'
_symmetry_Int_Tables_number        1
loop_
_symmetry_equiv_pos_site_id
_symmetry_equiv_pos_as_xyz
  1	'x, y, z'
loop_
_atom_type_symbol
_atom_type_oxidation_number
Al3+	3
H1+	1
O2-	-2
Si4+	4
loop_
_atom_site_label
_atom_site_type_symbol
_atom_site_symmetry_multiplicity
_atom_site_Wyckoff_symbol
_atom_site_fract_x
_atom_site_fract_y
_atom_site_fract_z
_atom_site_occupancy
_atom_site_attached_hydrogens
Al1 Al3+ 1 a 0.36265 0.49399 0.45958 1. 0 
Al2 Al3+ 1 a 0.3549 0.83003 0.45825 1. 0 
Al3 Al3+ 1 a 0.86259 0.99387 0.45967 1. 0 
Al4 Al3+ 1 a 0.85507 0.32991 0.45764 1. 0 
Si1 Si4+ 1 a 0.05414 0.33438 0.06745 1. 0 
Si2 Si4+ 1 a 0.06748 0.66331 0.06764 1. 0 
Si3 Si4+ 1 a 0.55437 0.83436 0.06874 1. 0 
Si4 Si4+ 1 a 0.56729 0.16318 0.06911 1. 0 
O1 O2- 1 a 0.11306 0.34958 0.29345 1. 0 
O2 O2- 1 a 0.17747 0.66159 0.29469 1. 0 
O3 O2- 1 a 0.07893 0.4955 -.02856 1. 0 
O4 O2- 1 a 0.2525 0.21594 -.00686 1. 0 
O5 O2- 1 a 0.24675 0.77145 -.02869 1. 0 
O6 O2- 1 a 0.61295 0.84951 0.29357 1. 0 
O7 O2- 1 a 0.67706 0.16137 0.29487 1. 0 
O8 O2- 1 a 0.57867 -.00453 -.02854 1. 0 
O9 O2- 1 a 0.75259 0.71594 -.0068 1. 0 
O10 O2- 1 a 0.74654 0.27141 -.02832 1. 0 
O11 O2- 1 a 0.1144 0.97134 0.30543 1. 0 
O12 O2- 1 a 0.03016 0.16628 0.58721 1. 0 
O13 O2- 1 a 0.09793 0.47636 0.5875 1. 0 
O14 O2- 1 a 0.09636 0.85302 0.59303 1. 0 
O15 O2- 1 a 0.61504 0.47134 0.30552 1. 0 
O16 O2- 1 a 0.53047 0.66657 0.58699 1. 0 
O17 O2- 1 a 0.5964 0.97724 0.58695 1. 0 
O18 O2- 1 a 0.59898 0.35448 0.59412 1. 0 
H1 H1+ 1 a 0.21289 0.06533 0.31752 1. 0 
H2 H1+ 1 a 0.11587 0.17028 0.72057 1. 0 
H3 H1+ 1 a 0.1168 0.49857 0.71973 1. 0 
H4 H1+ 1 a 0.10864 0.817 0.71715 1. 0 
H5 H1+ 1 a 0.71314 0.56548 0.31786 1. 0 
H6 H1+ 1 a 0.61696 0.66992 0.72021 1. 0 
H7 H1+ 1 a 0.61526 0.99977 0.7191 1. 0 
H8 H1+ 1 a 0.60669 0.31526 0.71593 1. 0 

#End of data_107382-ICSD


