data_107385-ICSD
#?2014 by Fachinformationszentrum Karlsruhe, and the U.S. Secretary of 
#Commerce on behalf of the United States.  All rights reserved.
_database_code_ICSD                107385
_audit_creation_date               2013/08/01
_chemical_name_systematic          'Aluminium Silicate Hydroxide *'
_chemical_formula_structural       'Al4 (O H)8 (Si4 O10)'
_chemical_formula_sum              'H8 Al4 O18 Si4'
_chemical_name_mineral             'Kaolinite 1A'
_publ_section_title
;
What is the Structure of Kaolinite? Reconciling Theory and Experiment
;
loop_
_citation_id
_citation_journal_abbrev
_citation_year
_citation_journal_volume
_citation_page_first
_citation_page_last
_citation_journal_id_ASTM
primary 'Clays and Clay Minerals (-28,1980)' 1988 36 225 232 CCMPA7
_publ_author_name
;
White, C.E.;Provis, J.L.;Riley, D.P.;Kearley, G.J.;van Deventer, 
J,S.J.
;
_cell_length_a                     5.149
_cell_length_b                     8.9335(1)
_cell_length_c                     7.3844(1)
_cell_angle_alpha                  91.930(1)
_cell_angle_beta                   105.042(1)
_cell_angle_gamma                  89.791(1)
_cell_volume                       327.84
_cell_formula_units_Z              1
_symmetry_space_group_name_H-M     'P 1'
_symmetry_Int_Tables_number        1
loop_
_symmetry_equiv_pos_site_id
_symmetry_equiv_pos_as_xyz
  1	'x, y, z'
loop_
_atom_type_symbol
_atom_type_oxidation_number
Al3+	3
H1+	1
O2-	-2
Si4+	4
loop_
_atom_site_label
_atom_site_type_symbol
_atom_site_symmetry_multiplicity
_atom_site_Wyckoff_symbol
_atom_site_fract_x
_atom_site_fract_y
_atom_site_fract_z
_atom_site_occupancy
_atom_site_attached_hydrogens
Al1 Al3+ 1 a 0.3615 0.49308 0.45838 1. 0 
Al2 Al3+ 1 a 0.35366 0.82912 0.45728 1. 0 
Al3 Al3+ 1 a 0.86134 0.99303 0.4584 1. 0 
Al4 Al3+ 1 a 0.85394 0.32902 0.45676 1. 0 
Si1 Si4+ 1 a 0.05589 0.33544 0.06956 1. 0 
Si2 Si4+ 1 a 0.06909 0.6644 0.0714 1. 0 
Si3 Si4+ 1 a 0.5557 0.83539 0.06971 1. 0 
Si4 Si4+ 1 a 0.56929 0.16419 0.07143 1. 0 
O1 O2- 1 a 0.11261 0.35061 0.29519 1. 0 
O2 O2- 1 a 0.17943 0.66193 0.29564 1. 0 
O3 O2- 1 a 0.07034 0.49689 -.02436 1. 0 
O4 O2- 1 a 0.26109 0.22297 -.00283 1. 0 
O5 O2- 1 a 0.25445 0.76734 -.0247 1. 0 
O6 O2- 1 a 0.61236 0.85056 0.29388 1. 0 
O7 O2- 1 a 0.67928 0.16167 0.29534 1. 0 
O8 O2- 1 a 0.57018 -.00322 -.02435 1. 0 
O9 O2- 1 a 0.7605 0.72263 -.00263 1. 0 
O10 O2- 1 a 0.75482 0.26712 -.02437 1. 0 
O11 O2- 1 a 0.1138 0.97007 0.30622 1. 0 
O12 O2- 1 a 0.02582 0.16536 0.58557 1. 0 
O13 O2- 1 a 0.09684 0.47716 0.5868 1. 0 
O14 O2- 1 a 0.09822 0.85429 0.59201 1. 0 
O15 O2- 1 a 0.61432 0.46997 0.3064 1. 0 
O16 O2- 1 a 0.52607 0.66561 0.58531 1. 0 
O17 O2- 1 a 0.59723 0.97447 0.58566 1. 0 
O18 O2- 1 a 0.59968 0.35554 0.59312 1. 0 
H1 H1+ 1 a 0.21087 0.06279 0.31804 1. 0 
H2 H1+ 1 a 0.1155 0.16936 0.71623 1. 0 
H3 H1+ 1 a 0.114 0.49977 0.7152 1. 0 
H4 H1+ 1 a 0.10697 0.81739 0.71345 1. 0 
H5 H1+ 1 a 0.71078 0.56285 0.31782 1. 0 
H6 H1+ 1 a 0.61653 0.66897 0.71538 1. 0 
H7 H1+ 1 a 0.61256 1.0009 0.71454 1. 0 
H8 H1+ 1 a 0.60539 0.3158 0.71246 1. 0 

#End of data_107385-ICSD


