data_9290-ICSD
#?2014 by Fachinformationszentrum Karlsruhe, and the U.S. Secretary of 
#Commerce on behalf of the United States.  All rights reserved.
_database_code_ICSD                9290
_audit_creation_date               1980/01/01
_audit_update_record               2012/08/01
_chemical_name_systematic
;
Trimagnesium Chlorotridecaoxoheptaborate
;
_chemical_formula_structural       'Mg3 (B7 O13 Cl)'
_chemical_formula_sum              'B7 Cl1 Mg3 O13'
_chemical_name_mineral             Boracite
_publ_section_title
;
Crystal-structure refinements for orthorhombic boracite, Mg3 B7 O13 
Cl, and a trigonal, iron-rich analogue
;
loop_
_citation_id
_citation_journal_abbrev
_citation_year
_citation_journal_volume
_citation_page_first
_citation_page_last
_citation_journal_id_ASTM
primary
;
Zeitschrift fuer Kristallographie, Kristallgeometrie, Kristallphysik, 
Kristallchemie (-144,1977)
;
 1973 138 64 99 ZEKGAX
2 'Phase Transition' 1992 38 127 220 PHTRDP
_publ_author_name                  'Dowty, E.;Clark, J.R.'
_cell_length_a                     8.5496(6)
_cell_length_b                     8.5496(6)
_cell_length_c                     12.0910(9)
_cell_angle_alpha                  90.
_cell_angle_beta                   90.
_cell_angle_gamma                  90.
_cell_volume                       883.8
_cell_formula_units_Z              4
_symmetry_space_group_name_H-M     'P c a 21'
_symmetry_Int_Tables_number        29
_refine_ls_R_factor_all            .038
loop_
_symmetry_equiv_pos_site_id
_symmetry_equiv_pos_as_xyz
  1	'x+.5, -y, z'
  2	'-x+.5, y, z+.5'
  3	'-x, -y, z+.5'
  4	'x, y, z'
loop_
_atom_type_symbol
_atom_type_oxidation_number
B3+	3
Cl1-	-1
Mg2+	2
O2-	-2
loop_
_atom_site_label
_atom_site_type_symbol
_atom_site_symmetry_multiplicity
_atom_site_Wyckoff_symbol
_atom_site_fract_x
_atom_site_fract_y
_atom_site_fract_z
_atom_site_occupancy
_atom_site_attached_hydrogens
Mg1 Mg2+ 4 a 0.2417(2) 0.7488(3) 0.4770(2) 1. 0 
Mg2 Mg2+ 4 a 0.4851(2) 0.9704(2) 0.2537(2) 1. 0 
Mg3 Mg2+ 4 a 0.4850(2) 0.5284(2) 0.2514(2) 1. 0 
B1 B3+ 4 a 0.4982(7) 0.9983(6) 0.5018(5) 1. 0 
B2 B3+ 4 a 0.2560(5) 0.2487(9) 0.2488(5) 1. 0 
B3 B3+ 4 a 0.4981(7) 0.5023(7) 0.5016(6) 1. 0 
B4 B3+ 4 a 0.2523(5) 0.4037(7) 0.4202(6) 1. 0 
B5 B3+ 4 a 0.2535(5) 0.0964(7) 0.4224(6) 1. 0 
B6 B3+ 4 a 0.4053(4) 0.2499(6) 0.5735(4) 1. 0 
B7 B3+ 4 a 0.5472(5) 0.7500(7) 0.6012(4) 1. 0 
O1 O2- 4 a 0.2673(3) 0.2493(5) 0.4914(3) 1. 0 
O2 O2- 4 a 0.3324(3) 0.9718(4) 0.4794(4) 1. 0 
O3 O2- 4 a 0.4106(4) 0.4607(4) 0.4019(4) 1. 0 
O4 O2- 4 a 0.3289(3) 0.1253(4) 0.3156(4) 1. 0 
O5 O2- 4 a 0.1643(4) 0.5201(4) 0.4813(4) 1. 0 
O6 O2- 4 a 0.0896(4) 0.0572(4) 0.4059(4) 1. 0 
O7 O2- 4 a 0.1770(4) 0.3653(4) 0.3172(4) 1. 0 
O8 O2- 4 a 0.3830(3) 0.3301(4) 0.1865(3) 1. 0 
O9 O2- 4 a 0.5385(4) 0.9113(3) 0.6066(4) 1. 0 
O10 O2- 4 a 0.5337(4) 0.1629(4) 0.5226(4) 1. 0 
O11 O2- 4 a 0.3609(3) 0.1743(4) 0.6764(3) 1. 0 
O12 O2- 4 a 0.4504(4) 0.4097(3) 0.5965(3) 1. 0 
O13 O2- 4 a 0.4575(4) 0.6706(4) 0.5261(4) 1. 0 
Cl1 Cl1- 4 a 0.2741(1) 0.7494(2) 0.2618 1. 0 

#End of data_9290-ICSD


