data_261620-ICSD
#?2014 by Fachinformationszentrum Karlsruhe, and the U.S. Secretary of 
#Commerce on behalf of the United States.  All rights reserved.
_database_code_ICSD                261620
_audit_creation_date               2011/08/01
_audit_update_record               2012/02/01
_chemical_name_systematic
;
Dimagnesium Boron Dinitride Bromide
;
_chemical_formula_structural       'Mg2 (B N2) Br'
_chemical_formula_sum              'B1 Br1 Mg2 N2'
_publ_section_title
;
Synthesis, crystal structure and vibrational spectra of Mg2 [B N2] 
Br: a new magnesium nitridoborate halide with discrete [N-B-N]3- 
groups
;
loop_
_citation_id
_citation_journal_abbrev
_citation_year
_citation_journal_volume
_citation_journal_issue
_citation_page_first
_citation_page_last
_citation_journal_id_ASTM
primary 'Zeitschrift fuer Anorganische und Allgemeine Chemie (1950) (DE)'
 2011 637 7-8 915 918 ZAACAB
_publ_author_name
;
Kokal, I.;Somer, M.;Akselrud, L.;Hoehn, P.;Carrillo-Cabrera, W.
;
_cell_length_a                     9.1509(3)
_cell_length_b                     6.6209(3)
_cell_length_c                     6.4756(2)
_cell_angle_alpha                  90
_cell_angle_beta                   109.353(3)
_cell_angle_gamma                  90
_cell_volume                       370.17
_cell_formula_units_Z              4
_symmetry_space_group_name_H-M     'C 1 2/c 1'
_symmetry_Int_Tables_number        15
_refine_ls_R_factor_all            .0916
loop_
_symmetry_equiv_pos_site_id
_symmetry_equiv_pos_as_xyz
  1	'x, -y, z+.5'
  2	'-x, -y, -z'
  3	'-x, y, -z+.5'
  4	'x, y, z'
  5	'x+.5, -y+.5, z+.5'
  6	'-x+.5, -y+.5, -z'
  7	'-x+.5, y+.5, -z+.5'
  8	'x+.5, y+.5, z'
loop_
_atom_type_symbol
_atom_type_oxidation_number
B3+	3
Br1-	-1
Mg2+	2
N3-	-3
loop_
_atom_site_label
_atom_site_type_symbol
_atom_site_symmetry_multiplicity
_atom_site_Wyckoff_symbol
_atom_site_fract_x
_atom_site_fract_y
_atom_site_fract_z
_atom_site_occupancy
_atom_site_attached_hydrogens
_atom_site_U_iso_or_equiv
Mg1 Mg2+ 8 f 0.2419(1) 0.1035(2) 0.6634(1) 1. 0 0.0165(4) 
B1 B3+ 4 e 0 0.1178(15) 0.25 1. 0 0.0211(17) 
N1 N3- 8 f 0.1567(2) 0.1126(4) 0.3184(3) 1. 0 0.0118(7) 
Br1 Br1- 4 e 0 0.63113(15) 0.25 1. 0 0.0183(2) 

loop_
_atom_site_aniso_label
_atom_site_aniso_type_symbol
_atom_site_aniso_U_11
_atom_site_aniso_U_22
_atom_site_aniso_U_33
_atom_site_aniso_U_12
_atom_site_aniso_U_13
_atom_site_aniso_U_23
Br1 Br1- 0.0040(3) 0.0285(4) 0.0229(4) 0.0069(3) 0.0000 0.0000
#End of data_261620-ICSD


