data_67543-ICSD
#?2014 by Fachinformationszentrum Karlsruhe, and the U.S. Secretary of 
#Commerce on behalf of the United States.  All rights reserved.
_database_code_ICSD                67543
_audit_creation_date               1993/08/22
_chemical_name_systematic          'Tetralithium Terbium(IV) Fluoride'
_chemical_formula_structural       'Li4 Tb F8'
_chemical_formula_sum              'F8 Li4 Tb1'
_publ_section_title
;
X-ray powder diffraction study of Li4TbF8
;
loop_
_citation_id
_citation_journal_abbrev
_citation_year
_citation_journal_volume
_citation_page_first
_citation_page_last
_citation_journal_id_ASTM
primary 'European Journal of Solid State Inorganic Chemistry'
 1992 29 981 992 EJSCE5
_publ_author_name
;
El Ghozzi, M.;Avignant, D.;Cousseins, J.C.
;
_cell_length_a                     9.6582(9)
_cell_length_b                     9.7411(8)
_cell_length_c                     5.7155(4)
_cell_angle_alpha                  90.
_cell_angle_beta                   90.
_cell_angle_gamma                  90.
_cell_volume                       537.72
_cell_formula_units_Z              4
_symmetry_space_group_name_H-M     'P n m a'
_symmetry_Int_Tables_number        62
_refine_ls_R_factor_all            .0615
loop_
_symmetry_equiv_pos_site_id
_symmetry_equiv_pos_as_xyz
  1	'x+.5, y, -z+.5'
  2	'x, -y+.5, z'
  3	'-x+.5, y+.5, z+.5'
  4	'-x, -y, -z'
  5	'-x+.5, -y, z+.5'
  6	'-x, y+.5, -z'
  7	'x+.5, -y+.5, -z+.5'
  8	'x, y, z'
loop_
_atom_type_symbol
_atom_type_oxidation_number
F1-	-1
Li1+	1
Tb4+	4
loop_
_atom_site_label
_atom_site_type_symbol
_atom_site_symmetry_multiplicity
_atom_site_Wyckoff_symbol
_atom_site_fract_x
_atom_site_fract_y
_atom_site_fract_z
_atom_site_occupancy
_atom_site_attached_hydrogens
_atom_site_B_iso_or_equiv
Li1 Li1+ 8 d 0.371(4) 0.062(2) 0.112(8) 1. 0 0.3 
Li2 Li1+ 8 d 0.401(2) 0.083(2) 0.636(9) 1. 0 0.3 
Tb1 Tb4+ 4 c 0.1355(2) 0.25 0.3703(4) 1. 0 0.25(5) 
F1 F1- 8 d 0.0157(6) 0.1149(7) 0.155(2) 1. 0 0.1(1) 
F2 F1- 8 d 0.0180(8) 0.1176(7) 0.622(2) 1. 0 1.5(2) 
F3 F1- 8 d 0.2406(7) 0.4673(7) 0.365(3) 1. 0 0.2(1) 
F4 F1- 4 c 0.2982(9) 0.25 0.104(4) 1. 0 0.8(1) 
F5 F1- 4 c 0.296(1) 0.25 0.624(4) 1. 0 0.8(1) 

#End of data_67543-ICSD


