data_608441-ICSD
#?2014 by Fachinformationszentrum Karlsruhe, and the U.S. Secretary of 
#Commerce on behalf of the United States.  All rights reserved.
_database_code_ICSD                608441
_audit_creation_date               2012/02/01
_chemical_name_systematic
;
Magnesium Aluminium Sulfide (1/2/4)
;
_chemical_formula_structural       'Mg Al2 S4'
_chemical_formula_sum              'Al2 Mg1 S4'
_publ_section_title
;
Contribution a l''etude du sulfure d''aluminium
;
loop_
_citation_id
_citation_journal_abbrev
_citation_year
_citation_journal_volume
_citation_page_first
_citation_page_last
_citation_journal_id_ASTM
primary 'Annales de Chimie (Paris) (Vol=Year)' 1952 7 632 696 ANCPAC
2
;
Comptes Rendus Hebdomadaires des Seances de l`Academie des Sciences 
(1884 - 1965)
;
 1951 233 1279 1281 COREAF
_publ_author_name                  'Flahaut, J.'
_cell_length_a                     3.669
_cell_length_b                     3.669
_cell_length_c                     36.075
_cell_angle_alpha                  90.
_cell_angle_beta                   90.
_cell_angle_gamma                  120.
_cell_volume                       420.56
_cell_formula_units_Z              3
_symmetry_space_group_name_H-M     'R 3 m H'
_symmetry_Int_Tables_number        160
loop_
_symmetry_equiv_pos_site_id
_symmetry_equiv_pos_as_xyz
  1	'-x+y, y, z'
  2	'x, x-y, z'
  3	'-y, -x, z'
  4	'-x+y, -x, z'
  5	'-y, x-y, z'
  6	'x, y, z'
  7	'-x+y+.6666, y+.3333, z+.3333'
  8	'-x+y+.3333, y+.6666, z+.6666'
  9	'x+.6666, x-y+.3333, z+.3333'
 10	'x+.3333, x-y+.6666, z+.6666'
 11	'-y+.6666, -x+.3333, z+.3333'
 12	'-y+.3333, -x+.6666, z+.6666'
 13	'-x+y+.6666, -x+.3333, z+.3333'
 14	'-x+y+.3333, -x+.6666, z+.6666'
 15	'-y+.6666, x-y+.3333, z+.3333'
 16	'-y+.3333, x-y+.6666, z+.6666'
 17	'x+.6666, y+.3333, z+.3333'
 18	'x+.3333, y+.6666, z+.6666'
loop_
_atom_type_symbol
_atom_type_oxidation_number
Al3+	3
Mg2+	2
S2-	-2
loop_
_atom_site_label
_atom_site_type_symbol
_atom_site_symmetry_multiplicity
_atom_site_Wyckoff_symbol
_atom_site_fract_x
_atom_site_fract_y
_atom_site_fract_z
_atom_site_occupancy
_atom_site_attached_hydrogens
Mg1 Mg2+ 3 a 0 0 0.000 1. 0 
Al1 Al3+ 3 a 0 0 -.234 1. 0 
Al2 Al3+ 3 a 0 0 0.237 1. 0 
S1 S2- 3 a 0 0 -.123 1. 0 
S2 S2- 3 a 0 0 0.124 1. 0 
S3 S2- 3 a 0 0 0.298 1. 0 
S4 S2- 3 a 0 0 -.298 1. 0 

#End of data_608441-ICSD


