data_280204-ICSD
#?2014 by Fachinformationszentrum Karlsruhe, and the U.S. Secretary of 
#Commerce on behalf of the United States.  All rights reserved.
_database_code_ICSD                280204
_audit_creation_date               2002/04/01
_audit_update_record               2006/04/01
_chemical_name_systematic          'Dipotassium Dichromate - Beta'
_chemical_formula_structural       'K2 (Cr2 O7)'
_chemical_formula_sum              'Cr2 K2 O7'
_publ_section_title                'beta - K2 Cr2 O7'
loop_
_citation_id
_citation_journal_abbrev
_citation_year
_citation_journal_volume
_citation_page_first
_citation_page_last
_citation_journal_id_ASTM
primary 'Acta Crystallographica, Section C: Crystal Structure Communications'
 2000 56 629 630 ACSCEE
2 'Golden Book of Phase Transitions, Wroclaw' 2002 1 1 123 GBOPT5
_publ_author_name
;
Krivovichev, S.V.;Kir'yanova, E.V.;Filatov, S.K.;Burns, P.C.
;
_cell_length_a                     13.0339(17)
_cell_length_b                     7.375(1)
_cell_length_c                     7.4672(10)
_cell_angle_alpha                  90.
_cell_angle_beta                   91.923(2)
_cell_angle_gamma                  90.
_cell_volume                       717.38
_cell_formula_units_Z              4
_symmetry_space_group_name_H-M     'C 1 2/c 1'
_symmetry_Int_Tables_number        15
_refine_ls_R_factor_all            .032
loop_
_symmetry_equiv_pos_site_id
_symmetry_equiv_pos_as_xyz
  1	'x, -y, z+.5'
  2	'-x, -y, -z'
  3	'-x, y, -z+.5'
  4	'x, y, z'
  5	'x+.5, -y+.5, z+.5'
  6	'-x+.5, -y+.5, -z'
  7	'-x+.5, y+.5, -z+.5'
  8	'x+.5, y+.5, z'
loop_
_atom_type_symbol
_atom_type_oxidation_number
Cr6+	6
K1+	1
O2-	-2
loop_
_atom_site_label
_atom_site_type_symbol
_atom_site_symmetry_multiplicity
_atom_site_Wyckoff_symbol
_atom_site_fract_x
_atom_site_fract_y
_atom_site_fract_z
_atom_site_occupancy
_atom_site_attached_hydrogens
Cr1 Cr6+ 8 f 0.39714(3) 0.17429(5) 0.13497(5) 1. 0 
K1 K1+ 8 f 0.14473(5) 0.15065(9) 0.35562(8) 1. 0 
O1 O2- 8 f 0.44153(18) 0.3071(3) -.0176(3) 1. 0 
O2 O2- 8 f 0.33753(18) 0.2974(3) 0.2780(3) 1. 0 
O3 O2- 4 e 0.5 0.0595(4) 0.25 1. 0 
O4 O2- 8 f 0.32025(19) 0.0254(3) 0.0494(3) 1. 0 

loop_
_atom_site_aniso_label
_atom_site_aniso_type_symbol
_atom_site_aniso_U_11
_atom_site_aniso_U_22
_atom_site_aniso_U_33
_atom_site_aniso_U_12
_atom_site_aniso_U_13
_atom_site_aniso_U_23
Cr1 Cr6+ 0.0206(3) 0.0226(3) 0.0207(3) -.00247(14) 0.00292(18) -.00125(14)
K1 K1+ 0.0336(4) 0.0382(4) 0.0266(4) -.0056(3) 0.0002(3) -.0043(2)
O1 O2- 0.0334(12) 0.0398(11) 0.0281(10) -.0049(9) 0.0069(9) 0.0076(8)
O2 O2- 0.0379(12) 0.0373(10) 0.0277(10) 0.0088(9) 0.0082(9) -.0012(8)
O3 O2- 0.0256(13) 0.0251(12) 0.0343(15) 0 0.0020(11) 0
O4 O2- 0.0371(12) 0.0368(11) 0.0479(13) -.0112(9) -.0072(11) -.0054(10)
#End of data_280204-ICSD


