data_405832-ICSD
#?2014 by Fachinformationszentrum Karlsruhe, and the U.S. Secretary of 
#Commerce on behalf of the United States.  All rights reserved.
_database_code_ICSD                405832
_audit_creation_date               1999/06/02
_audit_update_record               2012/02/01
_chemical_name_systematic          'Hexaaquacalcium Bis(iodate)'
_chemical_formula_structural       '(Ca (H2 O)6) (I O3)2'
_chemical_formula_sum              'H12 Ca1 I2 O12'
_publ_section_title
;
Single-Crystal Raman and Single-Crystal Neutron Diffraction Studies 
on Partially Deuterated Ca(IO3)2 * 6H2O, Assignment of Hydrogen Bonds
;
loop_
_citation_id
_citation_journal_abbrev
_citation_year
_citation_journal_volume
_citation_page_first
_citation_page_last
_citation_journal_id_ASTM
primary 'Journal of Molecular Structure' 1997 416 249 260 JMOSB4
_publ_author_name                  'Suchanek, E.;Peter, S.;Lutz, H.D.'
_cell_length_a                     14.859(1)
_cell_length_b                     23.0180(20)
_cell_length_c                     6.3944(5)
_cell_angle_alpha                  90.
_cell_angle_beta                   90.
_cell_angle_gamma                  90.
_cell_volume                       2187.04
_cell_formula_units_Z              8
_symmetry_space_group_name_H-M     'F d d 2'
_symmetry_Int_Tables_number        43
_refine_ls_R_factor_all            .055
loop_
_symmetry_equiv_pos_site_id
_symmetry_equiv_pos_as_xyz
  1	'x+.25, -y+.25, z+.25'
  2	'-x+.25, y+.25, z+.25'
  3	'-x, -y, z'
  4	'x, y, z'
  5	'x+.25, -y+.75, z+.75'
  6	'x+.75, -y+.25, z+.75'
  7	'x+.75, -y+.75, z+.25'
  8	'-x+.25, y+.75, z+.75'
  9	'-x+.75, y+.25, z+.75'
 10	'-x+.75, y+.75, z+.25'
 11	'-x, -y+.5, z+.5'
 12	'-x+.5, -y, z+.5'
 13	'-x+.5, -y+.5, z'
 14	'x, y+.5, z+.5'
 15	'x+.5, y, z+.5'
 16	'x+.5, y+.5, z'
loop_
_atom_type_symbol
_atom_type_oxidation_number
Ca2+	2
H1+	1
I5+	5
O2-	-2
loop_
_atom_site_label
_atom_site_type_symbol
_atom_site_symmetry_multiplicity
_atom_site_Wyckoff_symbol
_atom_site_fract_x
_atom_site_fract_y
_atom_site_fract_z
_atom_site_occupancy
_atom_site_attached_hydrogens
Ca1 Ca2+ 8 a 0 0 0.18910(57) 1. 0 
I1 I5+ 16 b 0.51447(13) 0.13944(8) 0 1. 0 
O1 O2- 16 b 0.17051(16) 0.57372(9) 0.12928(45) 1. 0 
O2 O2- 16 b 0.02556(15) 0.43440(7) -.01325(44) 1. 0 
O3 O2- 16 b 0.23491(14) 0.09516(8) 0.01926(43) 1. 0 
O4 O2- 16 b 0.16495(15) 0.00639(9) 0.27836(50) 1. 0 
O5 O2- 16 b 0.05189(16) 0.09801(9) 0.09281(48) 1. 0 
O6 O2- 16 b 0.15359(21) 0.22765(13) 0.12410(54) 1. 0 
H1 H1+ 16 b 0.19962(31) 0.02861(22) 0.17991(88) 1. 0 
H2 H1+ 16 b 0.17299(35) 0.02645(23) 0.40944(80) 1. 0 
H3 H1+ 16 b 0.11573(33) 0.09998(20) 0.06887(82) 1. 0 
H4 H1+ 16 b 0.02610(31) 0.11935(18) -.02256(76) 1. 0 
H5 H1+ 16 b 0.12609(40) 0.26117(27) 0.06224(93) 1. 0 
H6 H1+ 16 b 0.18078(37) 0.21050(24) 0.00815(91) 1. 0 

loop_
_atom_site_aniso_label
_atom_site_aniso_type_symbol
_atom_site_aniso_U_11
_atom_site_aniso_U_22
_atom_site_aniso_U_33
_atom_site_aniso_U_12
_atom_site_aniso_U_13
_atom_site_aniso_U_23
Ca1 Ca2+ 0.0120(13) 0.0085(11) 0.0084(12) -.0005(10) 0 0
I1 I5+ 0.0099(7) 0.0083(6) 0.0066(7) -.0012(6) -.0002(7) 0.0006(6)
O1 O2- 0.0151(9) 0.0210(9) 0.0204(9) -.0044(7) -.0024(8) -.0046(8)
O2 O2- 0.0218(9) 0.0114(7) 0.0134(8) -.0047(7) -.0043(7) 0.0017(7)
O3 O2- 0.0189(9) 0.0183(7) 0.0091(7) -.0017(7) 0.0018(8) 0.0024(7)
O4 O2- 0.0182(9) 0.0137(8) 0.0211(10) 0.0001(7) -.0019(9) -.0006(9)
O5 O2- 0.0208(10) 0.0147(8) 0.0155(9) 0.0003(7) 0.0045(8) 0.0029(8)
O6 O2- 0.0314(13) 0.0288(12) 0.0179(11) 0.0033(10) -.0035(10) -.0080(9)
H1 H1+ 0.0298(22) 0.0360(22) 0.0365(22) -.0018(18) -.0014(20) 0.0018(18)
H2 H1+ 0.0361(24) 0.0369(22) 0.0273(21) -.0021(18) -.0056(18) 0.0013(17)
H3 H1+ 0.0281(20) 0.0379(20) 0.033(2) 0.0008(16) -.0037(18) 0.0033(19)
H4 H1+ 0.0293(18) 0.0299(17) 0.0294(22) 0.0018(16) 0.0006(16) 0.0031(17)
H5 H1+ 0.0464(26) 0.0434(26) 0.0314(24) 0.0053(22) -.0034(21) -.0036(20)
H6 H1+ 0.0480(26) 0.0403(23) 0.0307(22) 0.0096(19) -.0031(23) -.0088(20)
#End of data_405832-ICSD


