data_20483-ICSD
#?2014 by Fachinformationszentrum Karlsruhe, and the U.S. Secretary of 
#Commerce on behalf of the United States.  All rights reserved.
_database_code_ICSD                20483
_audit_creation_date               1980/01/01
_audit_update_record               1989/03/08
_chemical_name_systematic          'Potassium Trinitrocarbonate(II)'
_chemical_formula_structural       'K C (N O2)3'
_chemical_formula_sum              'C1 K1 N3 O6'
_publ_section_title
;
The X-Ray Investigation of Potassium Salt of Nitroform
;
loop_
_citation_id
_citation_journal_abbrev
_citation_year
_citation_journal_volume
_citation_page_first
_citation_page_last
_citation_journal_id_ASTM
primary 'Zhurnal Strukturnoi Khimii (Issue-No. from 1981)'
 1967 8 307 311 ZSTKAI
_publ_author_name                  'Golovina, N.I.;Atovmyan, L.O.'
_cell_length_a                     11.38(8)
_cell_length_b                     11.38(8)
_cell_length_c                     8.75(5)
_cell_angle_alpha                  90.
_cell_angle_beta                   90.
_cell_angle_gamma                  90.
_cell_volume                       1133.16
_cell_formula_units_Z              8
_symmetry_space_group_name_H-M     'I 41 m d'
_symmetry_Int_Tables_number        109
_refine_ls_R_factor_all            .16
loop_
_symmetry_equiv_pos_site_id
_symmetry_equiv_pos_as_xyz
  1	'y, -x+.5, z+.25'
  2	'-y, x+.5, z+.25'
  3	'x, -y, z'
  4	'-x, y, z'
  5	'-y, -x+.5, z+.25'
  6	'y, x+.5, z+.25'
  7	'-x, -y, z'
  8	'x, y, z'
  9	'y+.5, -x, z+.75'
 10	'-y+.5, x, z+.75'
 11	'x+.5, -y+.5, z+.5'
 12	'-x+.5, y+.5, z+.5'
 13	'-y+.5, -x, z+.75'
 14	'y+.5, x, z+.75'
 15	'-x+.5, -y+.5, z+.5'
 16	'x+.5, y+.5, z+.5'
loop_
_atom_type_symbol
_atom_type_oxidation_number
C2+	2
K1+	1
N3+	3
O2-	-2
loop_
_atom_site_label
_atom_site_type_symbol
_atom_site_symmetry_multiplicity
_atom_site_Wyckoff_symbol
_atom_site_fract_x
_atom_site_fract_y
_atom_site_fract_z
_atom_site_occupancy
_atom_site_attached_hydrogens
_atom_site_B_iso_or_equiv
K1 K1+ 8 b 0 0.204(6) 0 1. 0 1.4 
C1 C2+ 8 b 0.5 0.266(25) -.009 1. 0 1.4 
N1 N3+ 8 b 0.5 0.142(25) -.03 1. 0 1.3 
N2 N3+ 16 c 0.390(25) 0.280(25) 0.054(25) 1. 0 2. 
O1 O2- 8 b 0.5 0.109(25) -.160(25) 1. 0 1.6 
O2 O2- 8 b 0.5 0.106(25) 0.103(25) 1. 0 1.5 
O3 O2- 16 c 0.290(25) 0.257(25) 0.016(25) 1. 0 1.5 
O4 O2- 16 c 0.398(25) 0.386(25) 0.090(25) 1. 0 1.4 

#End of data_20483-ICSD


