data_247353-ICSD
#?2014 by Fachinformationszentrum Karlsruhe, and the U.S. Secretary of 
#Commerce on behalf of the United States.  All rights reserved.
_database_code_ICSD                247353
_audit_creation_date               2011/02/01
_chemical_name_systematic
;
Calcium Dodecahydro-closo-dodecaborate
;
_chemical_formula_structural       'Ca B12 H12'
_chemical_formula_sum              'H12 B12 Ca1'
_publ_section_title
;
Probing the structure, stability and hydrogen storage properties of 
calcium dodecahydro-closo-dodecaborate
;
loop_
_citation_id
_citation_journal_abbrev
_citation_year
_citation_journal_volume
_citation_journal_issue
_citation_page_first
_citation_page_last
_citation_journal_id_ASTM
primary 'Journal of Solid State Chemistry' 2010 183 5 1133 1140 JSSCBI
_publ_author_name
;
Stavila, V.;Her Jae-Hyuk;Zhou Wei;Hwang Song-Jong;Kim, C.;Ottley, 
L.A.M.;Udovic, T.J.
;
_cell_length_a                     7.242(1)
_cell_length_b                     11.971(3)
_cell_length_c                     10.744(2)
_cell_angle_alpha                  90
_cell_angle_beta                   89.82(3)
_cell_angle_gamma                  90
_cell_volume                       931.44
_cell_formula_units_Z              4
_symmetry_space_group_name_H-M     'C 1 2/c 1'
_symmetry_Int_Tables_number        15
loop_
_symmetry_equiv_pos_site_id
_symmetry_equiv_pos_as_xyz
  1	'x, -y, z+.5'
  2	'-x, -y, -z'
  3	'-x, y, -z+.5'
  4	'x, y, z'
  5	'x+.5, -y+.5, z+.5'
  6	'-x+.5, -y+.5, -z'
  7	'-x+.5, y+.5, -z+.5'
  8	'x+.5, y+.5, z'
loop_
_atom_type_symbol
_atom_type_oxidation_number
B.8333+	.8333
Ca2+	2
H1-	-1
loop_
_atom_site_label
_atom_site_type_symbol
_atom_site_symmetry_multiplicity
_atom_site_Wyckoff_symbol
_atom_site_fract_x
_atom_site_fract_y
_atom_site_fract_z
_atom_site_occupancy
_atom_site_attached_hydrogens
Ca1 Ca2+ 4 e 0 0.8297 0.25 1. 0 
B1 B.8333+ 8 f -0.156 0.234 0.3336 1. 0 
B2 B.8333+ 8 f -0.1586 0.0924 0.3336 1. 0 
B3 B.8333+ 8 f 0.083 0.2785 0.3107 1. 0 
B4 B.8333+ 8 f 0.0821 0.0494 0.3118 1. 0 
B5 B.8333+ 8 f 0.0356 0.1635 0.4022 1. 0 
B6 B.8333+ 8 f 0.2293 0.1635 0.2978 1. 0 
H1 H1- 8 f -0.2663 0.2848 0.3961 1. 0 
H2 H1- 8 f -0.271 0.0429 0.3937 1. 0 
H3 H1- 8 f 0.1441 0.3602 0.3537 1. 0 
H4 H1- 8 f 0.1464 -0.0305 0.3589 1. 0 
H5 H1- 8 f 0.0645 0.1634 0.511 1. 0 
H6 H1- 8 f 0.3933 0.1626 0.3344 1. 0 

#End of data_247353-ICSD


