data_426621-ICSD
#?2014 by Fachinformationszentrum Karlsruhe, and the U.S. Secretary of 
#Commerce on behalf of the United States.  All rights reserved.
_database_code_ICSD                426621
_audit_creation_date               2014/08/01
_chemical_name_systematic
;
Vanadium(IV) Potassium Oxotrifluoride
;
_chemical_formula_structural       'V K O F3'
_chemical_formula_sum              'F3 K1 O1 V1'
_publ_section_title
;
Structural diversity in hybrid vanadium(IV) oxyfluorides based on a 
common building block
;
loop_
_citation_id
_citation_journal_abbrev
_citation_year
_citation_journal_volume
_citation_journal_issue
_citation_page_first
_citation_page_last
_citation_journal_id_ASTM
primary 'Dalton Transactions' 2014 43 2 568 575 DTARAF
_publ_author_name
;
Farida H. Aidoudi;Cameron Black;Kasun S. Athukorala 
Arachchige;Alexandra M. Z. Slawin;Russell E. Morris;Philip Lightfoot
;
_cell_length_a                     13.564(6)
_cell_length_b                     7.595(3)
_cell_length_c                     7.207(3)
_cell_angle_alpha                  90.00
_cell_angle_beta                   104.102(11)
_cell_angle_gamma                  90.00
_cell_volume                       720.07
_cell_formula_units_Z              8
_symmetry_space_group_name_H-M     'C 1 2/m 1'
_symmetry_Int_Tables_number        12
_refine_ls_R_factor_all            .098
loop_
_symmetry_equiv_pos_site_id
_symmetry_equiv_pos_as_xyz
  1	'-x, y, -z'
  2	'-x, -y, -z'
  3	'x, -y, z'
  4	'x, y, z'
  5	'-x+.5, y+.5, -z'
  6	'-x+.5, -y+.5, -z'
  7	'x+.5, -y+.5, z'
  8	'x+.5, y+.5, z'
loop_
_atom_type_symbol
_atom_type_oxidation_number
F1-	-1
K1+	1
O2-	-2
V4+	4
loop_
_atom_site_label
_atom_site_type_symbol
_atom_site_symmetry_multiplicity
_atom_site_Wyckoff_symbol
_atom_site_fract_x
_atom_site_fract_y
_atom_site_fract_z
_atom_site_occupancy
_atom_site_attached_hydrogens
_atom_site_U_iso_or_equiv
V1 V4+ 8 j 0.14677(12) 0.25435(17) 0.3180(2) 1 0 0.0055(6) 
K1 K1+ 4 i 0.1078(2) 0.0000 0.7638(4) 1 0 0.0126(8) 
K2 K1+ 4 i 0.3516(2) 0.0000 1.1386(4) 1 0 0.0124(8) 
F1 F1- 4 i 0.1330(7) 0.0000 0.3775(11) 1 0 0.0164(18) 
F2 F1- 8 j 0.1897(4) 0.2857(7) 0.5995(7) 1 0 0.0078(12) 
F3 F1- 4 i 0.1880(6) 0.5000 0.2734(11) 1 0 0.0119(17) 
F4 F1- 8 j 0.1622(4) 0.1989(7) 0.0744(8) 1 0 0.0148(13) 
O1 O2- 8 j 0.0251(5) 0.2941(8) 0.2826(10) 1 0 0.0129(15) 

loop_
_atom_site_aniso_label
_atom_site_aniso_type_symbol
_atom_site_aniso_U_11
_atom_site_aniso_U_22
_atom_site_aniso_U_33
_atom_site_aniso_U_12
_atom_site_aniso_U_13
_atom_site_aniso_U_23
V1 V4+ 0.0084(10) 0.0028(9) 0.0054(9) -0.0008(5) 0.0019(7) 0.0002(5)
K1 K1+ 0.0131(15) 0.0080(14) 0.0167(16) 0.000 0.0035(12) 0.000
K2 K1+ 0.0144(16) 0.0090(14) 0.0146(15) 0.000 0.0047(12) 0.000
F1 F1- 0.031(5) 0.009(4) 0.008(4) 0.000 0.002(4) 0.000
F2 F1- 0.007(3) 0.010(2) 0.005(2) 0.006(2) 0.000(2) 0.000(2)
F3 F1- 0.017(4) 0.001(3) 0.016(4) 0.000 0.001(3) 0.000
F4 F1- 0.021(3) 0.009(3) 0.013(3) 0.003(2) 0.002(2) 0.000(2)
O1 O2- 0.008(3) 0.005(3) 0.024(4) 0.002(3) 0.000(3) -0.003(3)
#End of data_426621-ICSD


