data_68625-ICSD
#?2014 by Fachinformationszentrum Karlsruhe, and the U.S. Secretary of 
#Commerce on behalf of the United States.  All rights reserved.
_database_code_ICSD                68625
_audit_creation_date               1991/07/10
_audit_update_record               2012/08/01
_chemical_name_systematic
;
Potassium Vanadium(III) Diphosphate
;
_chemical_formula_structural       'K V (P2 O7)'
_chemical_formula_sum              'K1 O7 P2 V1'
_publ_section_title                'Structure of KVP2O7'
loop_
_citation_id
_citation_journal_abbrev
_citation_year
_citation_journal_volume
_citation_page_first
_citation_page_last
_citation_journal_id_ASTM
primary 'Acta Crystallographica, Section C: Crystal Structure Communications'
 1991 47 424 425 ACSCEE
_publ_author_name
;
Benhamada, L.;Grandin, A.;Borel, M.M.;Leclaire, A.;Raveau, B.
;
_cell_length_a                     7.3686(3)
_cell_length_b                     10.0527(5)
_cell_length_c                     8.1874(4)
_cell_angle_alpha                  90.
_cell_angle_beta                   106.580(3)
_cell_angle_gamma                  90.
_cell_volume                       581.26
_cell_formula_units_Z              4
_symmetry_space_group_name_H-M     'P 1 21/c 1'
_symmetry_Int_Tables_number        14
_refine_ls_R_factor_all            .027
loop_
_symmetry_equiv_pos_site_id
_symmetry_equiv_pos_as_xyz
  1	'x, -y+.5, z+.5'
  2	'-x, -y, -z'
  3	'-x, y+.5, -z+.5'
  4	'x, y, z'
loop_
_atom_type_symbol
_atom_type_oxidation_number
K1+	1
O2-	-2
P5+	5
V3+	3
loop_
_atom_site_label
_atom_site_type_symbol
_atom_site_symmetry_multiplicity
_atom_site_Wyckoff_symbol
_atom_site_fract_x
_atom_site_fract_y
_atom_site_fract_z
_atom_site_occupancy
_atom_site_attached_hydrogens
V1 V3+ 4 e 0.23510(3) 0.10036(2) 0.26134(3) 1. 0 
P1 P5+ 4 e 0.13510(5) 0.40356(4) 0.33024(4) 1. 0 
P2 P5+ 4 e 0.44366(5) 0.36225(4) 0.19165(5) 1. 0 
K1 K1+ 4 e 0.82177(6) 0.17838(5) 0.44649(6) 1. 0 
O1 O2- 4 e 0.1445(2) 0.0908(2) 0.0151(1) 1. 0 
O2 O2- 4 e 0.3213(2) 0.1077(2) 0.5136(2) 1. 0 
O3 O2- 4 e -.0025(2) 0.0050(1) 0.2788(1) 1. 0 
O4 O2- 4 e 0.4554(2) 0.2162(1) 0.2413(2) 1. 0 
O5 O2- 4 e 0.3591(2) -.0792(1) 0.2689(2) 1. 0 
O6 O2- 4 e 0.0831(2) 0.2650(1) 0.2556(2) 1. 0 
O7 O2- 4 e 0.3425(2) 0.4385(1) 0.3158(2) 1. 0 

#End of data_68625-ICSD


