data_411613-ICSD
#?2014 by Fachinformationszentrum Karlsruhe, and the U.S. Secretary of 
#Commerce on behalf of the United States.  All rights reserved.
_database_code_ICSD                411613
_audit_creation_date               2002/10/01
_chemical_name_systematic
;
Pentastrontium Dialuminium Fluoride
;
_chemical_formula_structural       'Sr5 Al2 F16'
_chemical_formula_sum              'Al2 F16 Sr5'
_publ_section_title
;
Preparation and crystal structure of the strontium aluminium fluoride 
Sr5 Al2 F16
;
loop_
_citation_id
_citation_journal_abbrev
_citation_year
_citation_journal_volume
_citation_page_first
_citation_page_last
_citation_journal_id_ASTM
primary 'Zeitschrift fuer Anorganische und Allgemeine Chemie (1950) (DE)'
 2001 627 2669 2672 ZAACAB
_publ_author_name                  'Weil, M.'
_cell_length_a                     7.4488(4)
_cell_length_b                     12.4714(7)
_cell_length_c                     14.1411(8)
_cell_angle_alpha                  90.
_cell_angle_beta                   90.
_cell_angle_gamma                  90.
_cell_volume                       1313.67
_cell_formula_units_Z              4
_symmetry_space_group_name_H-M     'C c c a Z'
_symmetry_Int_Tables_number        68
_refine_ls_R_factor_all            .0393
loop_
_symmetry_equiv_pos_site_id
_symmetry_equiv_pos_as_xyz
  1	'x, y+.5, -z'
  2	'-x+.5, y+.5, -z+.5'
  3	'x+.5, -y, -z+.5'
  4	'-x, -y, -z'
  5	'-x, -y+.5, z'
  6	'x+.5, -y+.5, z+.5'
  7	'-x+.5, y, z+.5'
  8	'x, y, z'
  9	'x+.5, y, -z'
 10	'-x, y, -z+.5'
 11	'x, -y+.5, -z+.5'
 12	'-x+.5, -y+.5, -z'
 13	'-x+.5, -y, z'
 14	'x, -y, z+.5'
 15	'-x, y+.5, z+.5'
 16	'x+.5, y+.5, z'
loop_
_atom_type_symbol
_atom_type_oxidation_number
Al3+	3
F1-	-1
Sr2+	2
loop_
_atom_site_label
_atom_site_type_symbol
_atom_site_symmetry_multiplicity
_atom_site_Wyckoff_symbol
_atom_site_fract_x
_atom_site_fract_y
_atom_site_fract_z
_atom_site_occupancy
_atom_site_attached_hydrogens
Sr1 Sr2+ 8 h 0.25 0.5 0.12353(3) 1. 0 
Sr2 Sr2+ 4 b 0.5 0.25 0.25 1. 0 
Sr3 Sr2+ 8 g 0 0.25 0.03298(3) 1. 0 
Al1 Al3+ 8 h 0.25 0 0.12822(10) 1. 0 
F1 F1- 16 i 0.3352(3) 0.08402(17) 0.21921(14) 1. 0 
F2 F1- 16 i 0.3086(3) 0.30254(17) 0.10451(14) 1. 0 
F3 F1- 16 i 0.0496(3) 0.08204(19) 0.12743(18) 1. 0 
F4 F1- 16 i 0.3487(3) 0.08187(18) 0.03786(15) 1. 0 

loop_
_atom_site_aniso_label
_atom_site_aniso_type_symbol
_atom_site_aniso_U_11
_atom_site_aniso_U_22
_atom_site_aniso_U_33
_atom_site_aniso_U_12
_atom_site_aniso_U_13
_atom_site_aniso_U_23
Sr1 Sr2+ 0.0191(2) 0.0099(2) 0.0104(2) -.0022(2) 0 0
Sr2 Sr2+ 0.0114(3) 0.0072(3) 0.0104(3) 0 0 0
Sr3 Sr2+ 0.0125(2) 0.0121(2) 0.0108(2) -.0031(2) 0 0
Al1 Al3+ 0.0123(6) 0.0099(7) 0.0085(6) -.0023(7) 0 0
F1 F1- 0.0228(12) 0.0141(12) 0.0133(9) -.0080(9) -.0035(8) -.0015(8)
F2 F1- 0.0152(10) 0.0146(11) 0.0167(10) 0.0009(9) -.0007(8) -.0019(8)
F3 F1- 0.0142(11) 0.0238(14) 0.0389(14) 0.0045(10) -.0063(9) 0.0073(12)
F4 F1- 0.0513(16) 0.0183(13) 0.0155(11) -.0183(11) 0.0066(11) 0.0005(9)
#End of data_411613-ICSD


