data_414464-ICSD
#?2014 by Fachinformationszentrum Karlsruhe, and the U.S. Secretary of 
#Commerce on behalf of the United States.  All rights reserved.
_database_code_ICSD                414464
_audit_creation_date               2007/04/01
_chemical_name_systematic          'Disilver Tellurate'
_chemical_formula_structural       'Ag2 (Te O4)'
_chemical_formula_sum              'Ag2 O4 Te1'
_publ_section_title                'Disilberoxotellurat(VI), Ag2 Te O4'
loop_
_citation_id
_citation_journal_abbrev
_citation_year
_citation_journal_volume
_citation_page_first
_citation_page_last
_citation_journal_id_ASTM
primary 'Zeitschrift fuer Anorganische und Allgemeine Chemie (1950) (DE)'
 2005 631 723 727 ZAACAB
_publ_author_name
;
Klein, W.;Curda, J.;Peters, E.M.;Jansen, M.
;
_cell_length_a                     9.0588(9)
_cell_length_b                     9.2456(8)
_cell_length_c                     13.6230(12)
_cell_angle_alpha                  90.00
_cell_angle_beta                   91.758(8)
_cell_angle_gamma                  90.00
_cell_volume                       1140.44
_cell_formula_units_Z              12
_symmetry_space_group_name_H-M     'C 1 2/c 1'
_symmetry_Int_Tables_number        15
_refine_ls_R_factor_all            .0232
loop_
_symmetry_equiv_pos_site_id
_symmetry_equiv_pos_as_xyz
  1	'x, -y, z+.5'
  2	'-x, -y, -z'
  3	'-x, y, -z+.5'
  4	'x, y, z'
  5	'x+.5, -y+.5, z+.5'
  6	'-x+.5, -y+.5, -z'
  7	'-x+.5, y+.5, -z+.5'
  8	'x+.5, y+.5, z'
loop_
_atom_type_symbol
_atom_type_oxidation_number
Ag1+	1
O2-	-2
Te6+	6
loop_
_atom_site_label
_atom_site_type_symbol
_atom_site_symmetry_multiplicity
_atom_site_Wyckoff_symbol
_atom_site_fract_x
_atom_site_fract_y
_atom_site_fract_z
_atom_site_occupancy
_atom_site_attached_hydrogens
_atom_site_U_iso_or_equiv
Ag1 Ag1+ 4 e 0.0000 0.27757(9) 0.2500 1 0 0.02664(19) 
Ag2 Ag1+ 4 e 0.5 0.44134(10) 0.2500 1 0 0.0440(3) 
Ag3 Ag1+ 8 f 0.32971(5) 0.06376(6) 0.17273(4) 1 0 0.02689(16) 
Ag4 Ag1+ 8 f 0.13192(6) 0.35419(5) 0.06097(5) 1 0 0.02843(16) 
Te1 Te6+ 4 a 0.0000 0.0000 0.0000 1 0 0.00779(14) 
Te2 Te6+ 8 f 0.29189(4) 0.20470(4) 0.39621(2) 1 0 0.00830(13) 
O1 O2- 8 f 0.1559(5) 0.1132(4) 0.0502(3) 1 0 0.0153(8) 
O2 O2- 8 f 0.4554(4) 0.3429(4) 0.4055(3) 1 0 0.0126(8) 
O3 O2- 8 f 0.1214(4) 0.0724(4) 0.3931(3) 1 0 0.0132(8) 
O4 O2- 8 f 0.1654(4) 0.3456(4) 0.4647(3) 1 0 0.0111(8) 
O5 O2- 8 f 0.2355(4) 0.2821(5) 0.2740(3) 1 0 0.0166(9) 
O6 O2- 8 f 0.4141(4) 0.0591(4) 0.3521(3) 1 0 0.0158(8) 

loop_
_atom_site_aniso_label
_atom_site_aniso_type_symbol
_atom_site_aniso_U_11
_atom_site_aniso_U_22
_atom_site_aniso_U_33
_atom_site_aniso_U_12
_atom_site_aniso_U_13
_atom_site_aniso_U_23
Ag1 Ag1+ 0.0147(3) 0.0383(4) 0.0265(4) 0.000 -0.0055(3) 0.000
Ag2 Ag1+ 0.0829(7) 0.0362(5) 0.0132(4) 0.000 0.0091(4) 0.000
Ag3 Ag1+ 0.0214(3) 0.0360(3) 0.0228(3) 0.0074(2) -0.0074(2) -0.0106(2)
Ag4 Ag1+ 0.0286(3) 0.0139(3) 0.0435(3) -0.00336(19) 0.0135(2) -0.0085(2)
Te1 Te6+ 0.0076(2) 0.0067(2) 0.0090(2) 0.00180(16) -0.00024(17) 0.00010(17)
Te2 Te6+ 0.00863(18) 0.00760(19) 0.00868(19) -0.00175(12) 0.00059(12) 
-0.00045(12)
O1 O2- 0.017(2) 0.0078(18) 0.021(2) -0.0039(15) -0.0038(17) -0.0009(16)
O2 O2- 0.0122(18) 0.0101(19) 0.016(2) -0.0060(15) 0.0033(15) -0.0025(16)
O3 O2- 0.0137(18) 0.014(2) 0.0121(19) -0.0083(15) 0.0011(15) -0.0005(15)
O4 O2- 0.0122(18) 0.0113(18) 0.0100(19) 0.0017(14) 0.0007(14) 0.0003(15)
O5 O2- 0.0147(19) 0.021(2) 0.014(2) -0.0025(17) -0.0019(16) 0.0058(17)
O6 O2- 0.018(2) 0.0097(18) 0.020(2) -0.0002(15) 0.0066(17) -0.0026(16)
#End of data_414464-ICSD


