data_80654-ICSD
#?2014 by Fachinformationszentrum Karlsruhe, and the U.S. Secretary of 
#Commerce on behalf of the United States.  All rights reserved.
_database_code_ICSD                80654
_audit_creation_date               1997/05/13
_audit_update_record               2006/04/01
_chemical_name_systematic
;
Neodymium Trialuminium Tetrakis(borate) - Beta
;
_chemical_formula_structural       'Nd Al3 (B O3)4'
_chemical_formula_sum              'Al3 B4 Nd1 O12'
_publ_section_title
;
Structure of beta-Nd Al3 (B O3)4 (NAB) crystal
;
loop_
_citation_id
_citation_journal_abbrev
_citation_year
_citation_journal_volume
_citation_page_first
_citation_page_last
_citation_journal_id_ASTM
primary 'Materials Research Bulletin' 1991 26 1085 1089 MRBUAC
2 'Phase Transition' 1992 38 127 220 PHTRDP
_publ_author_name                  'Wang, G.-F.;He, M.-Y.;Luo, Z.-D.'
_cell_length_a                     7.246(3)
_cell_length_b                     9.343(5)
_cell_length_c                     11.107(3)
_cell_angle_alpha                  90.
_cell_angle_beta                   103.38(3)
_cell_angle_gamma                  90.
_cell_volume                       731.53
_cell_formula_units_Z              4
_symmetry_space_group_name_H-M     'C 1 2/c 1'
_symmetry_Int_Tables_number        15
_refine_ls_R_factor_all            .066
loop_
_symmetry_equiv_pos_site_id
_symmetry_equiv_pos_as_xyz
  1	'x, -y, z+.5'
  2	'-x, -y, -z'
  3	'-x, y, -z+.5'
  4	'x, y, z'
  5	'x+.5, -y+.5, z+.5'
  6	'-x+.5, -y+.5, -z'
  7	'-x+.5, y+.5, -z+.5'
  8	'x+.5, y+.5, z'
loop_
_atom_type_symbol
_atom_type_oxidation_number
Al3+	3
B3+	3
Nd3+	3
O2-	-2
loop_
_atom_site_label
_atom_site_type_symbol
_atom_site_symmetry_multiplicity
_atom_site_Wyckoff_symbol
_atom_site_fract_x
_atom_site_fract_y
_atom_site_fract_z
_atom_site_occupancy
_atom_site_attached_hydrogens
Nd1 Nd3+ 4 e 0 0.03739(7) 0.25 1. 0 
Al1 Al3+ 8 f 0.0555(4) 0.2506(3) 0.5289(2) 1. 0 
Al2 Al3+ 4 e 0.5 0.0894(4) 0.25 1. 0 
O1 O2- 8 f 0.685(1) -.0434(7) 0.2399(8) 1. 0 
O2 O2- 8 f 0.0608(9) 0.2436(7) 0.1391(6) 1. 0 
O3 O2- 8 f -.0978(9) -.0986(7) 0.0629(6) 1. 0 
O4 O2- 8 f 0.4029(9) 0.1029(6) 0.0732(6) 1. 0 
O5 O2- 8 f 0.751(1) 0.1178(7) 0.0036(7) 1. 0 
O6 O2- 8 f 0.3407(9) 0.2377(7) 0.2933(5) 1. 0 
B1 B3+ 8 f 0.695(2) 0.811(1) 0.224(1) 1. 0 
B2 B3+ 8 f 0.749(2) -.026(1) -.005(1) 1. 0 

#End of data_80654-ICSD


