data_245418-ICSD
#?2014 by Fachinformationszentrum Karlsruhe, and the U.S. Secretary of 
#Commerce on behalf of the United States.  All rights reserved.
_database_code_ICSD                245418
_audit_creation_date               2008/02/01
_chemical_name_systematic          'Tetrapotassium Tetraoxocarbonate'
_chemical_formula_structural       'K4 (C O4)'
_chemical_formula_sum              'C1 K4 O4'
_publ_section_title
;
Possible existence of alkali metal orthocarbonates at high pressure
;
loop_
_citation_id
_citation_journal_abbrev
_citation_year
_citation_journal_volume
_citation_journal_issue
_citation_page_first
_citation_page_last
_citation_journal_id_ASTM
primary 'Chemistry - A European Journal' 2007 13 26 7330 7348 CEUJED
_publ_author_name
;
Cancarevic, Z.;Schoen, J.C.;Jansen, M.
;
_cell_length_a                     5.16252
_cell_length_b                     5.16252
_cell_length_c                     5.16252
_cell_angle_alpha                  84.77769
_cell_angle_beta                   84.77769
_cell_angle_gamma                  84.77769
_cell_volume                       135.97
_cell_formula_units_Z              1
_symmetry_space_group_name_H-M     'R 3 R'
_symmetry_Int_Tables_number        146
loop_
_symmetry_equiv_pos_site_id
_symmetry_equiv_pos_as_xyz
  1	'z, x, y'
  2	'y, z, x'
  3	'x, y, z'
loop_
_atom_type_symbol
_atom_type_oxidation_number
C4+	4
K1+	1
O2-	-2
loop_
_atom_site_label
_atom_site_type_symbol
_atom_site_symmetry_multiplicity
_atom_site_Wyckoff_symbol
_atom_site_fract_x
_atom_site_fract_y
_atom_site_fract_z
_atom_site_occupancy
_atom_site_attached_hydrogens
C1 C4+ 1 a 0.99961 0.99961 0.99961 1. 0 
O1 O2- 3 b 0.81909 0.19316 0.81909 1. 0 
O2 O2- 1 a 0.16322 0.16322 0.16322 1. 0 
K1 K1+ 1 a 0.71409 0.71409 0.71409 1. 0 
K2 K1+ 3 b 0.49861 0.10286 0.49861 1. 0 

#End of data_245418-ICSD


