data_67951-ICSD
#?2014 by Fachinformationszentrum Karlsruhe, and the U.S. Secretary of 
#Commerce on behalf of the United States.  All rights reserved.
_database_code_ICSD                67951
_audit_creation_date               1995/01/10
_chemical_name_systematic
;
Pentasilver Copper Arsenate Diarsenate
;
_chemical_formula_structural       'Ag5 Cu (As O4) (As2 O7)'
_chemical_formula_sum              'Ag5 As3 Cu1 O11'
_publ_section_title
;
Crystal structure of Ag5Cu(AsO4)(As2O7) and Ag7Cu(As2O7)2Cl with a 
survey on pyroarsenate anions
;
loop_
_citation_id
_citation_journal_abbrev
_citation_year
_citation_journal_volume
_citation_page_first
_citation_page_last
_citation_journal_id_ASTM
primary 'Zeitschrift fuer Kristallographie (1979-2010)' 1993 207 223 236 ZEKRDZ
_publ_author_name                  'Effenberger, H.;Pertlik, F.'
_cell_length_a                     5.859(1)
_cell_length_b                     9.019(2)
_cell_length_c                     10.384(2)
_cell_angle_alpha                  97.18(2)
_cell_angle_beta                   90.98(2)
_cell_angle_gamma                  92.11(2)
_cell_volume                       543.91
_cell_formula_units_Z              2
_symmetry_space_group_name_H-M     'P -1'
_symmetry_Int_Tables_number        2
_refine_ls_R_factor_all            .041
loop_
_symmetry_equiv_pos_site_id
_symmetry_equiv_pos_as_xyz
  1	'-x, -y, -z'
  2	'x, y, z'
loop_
_atom_type_symbol
_atom_type_oxidation_number
Ag1+	1
As5+	5
Cu2+	2
O2-	-2
loop_
_atom_site_label
_atom_site_type_symbol
_atom_site_symmetry_multiplicity
_atom_site_Wyckoff_symbol
_atom_site_fract_x
_atom_site_fract_y
_atom_site_fract_z
_atom_site_occupancy
_atom_site_attached_hydrogens
Ag1 Ag1+ 2 i 0.54641(6) 0.00830(6) 0.16805(4) 1. 0 
Ag2 Ag1+ 2 i 0.25312(6) 0.35477(4) 0.13060(4) 1. 0 
Ag3 Ag1+ 2 i 0.74465(6) 0.67606(4) 0.17016(4) 1. 0 
Ag4 Ag1+ 2 i 0.71511(7) 0.34134(4) 0.31104(4) 1. 0 
Ag5 Ag1+ 2 i 0.20793(6) 0.67657(4) 0.34444(4) 1. 0 
Cu1 Cu2+ 1 a 0 0 0 1. 0 
Cu2 Cu2+ 1 f 0.5 0 0.5 1. 0 
As1 As5+ 2 i 0.25517(7) 0.70388(4) 0.01276(4) 1. 0 
As2 As5+ 2 i 0.04478(6) 0.03515(4) 0.31079(4) 1. 0 
As3 As5+ 2 i 0.27120(7) 0.31817(4) 0.47736(4) 1. 0 
O1 O2- 2 i 0.4710(6) 0.8205(4) -.0249(4) 1. 0 
O2 O2- 2 i 0.3513(5) 0.6105(4) 0.1324(3) 1. 0 
O3 O2- 2 i 0.0349(5) 0.8122(3) 0.0704(3) 1. 0 
O4 O2- 2 i 0.1591(6) 0.5895(4) -.1184(3) 1. 0 
O5 O2- 2 i 0.0336(5) 0.1969(3) 0.4239(3) 1. 0 
O6 O2- 2 i 0.2798(5) -.0525(3) 0.3485(3) 1. 0 
O7 O2- 2 i 0.0729(6) 0.1073(4) 0.1695(3) 1. 0 
O8 O2- 2 i -.2048(5) -.0544(4) 0.3264(4) 1. 0 
O9 O2- 2 i 0.1811(6) 0.3995(4) 0.6177(3) 1. 0 
O10 O2- 2 i 0.5020(5) 0.2108(3) 0.4809(4) 1. 0 
O11 O2- 2 i 0.3208(6) 0.4295(4) 0.3652(4) 1. 0 

loop_
_atom_site_aniso_label
_atom_site_aniso_type_symbol
_atom_site_aniso_U_11
_atom_site_aniso_U_22
_atom_site_aniso_U_33
_atom_site_aniso_U_12
_atom_site_aniso_U_13
_atom_site_aniso_U_23
Ag1 Ag1+ 0.0257(1) 0.0434(2) 0.0250(2) -.0020(1) -.0024(1) 0.0121(2)
Ag2 Ag1+ 0.0269(1) 0.0186(1) 0.0297(2) -.0018(1) 0.0001(1) 0.0016(1)
Ag3 Ag1+ 0.0264(1) 0.0247(1) 0.0307(1) -.0027(1) -.0020(1) 0.0072(1)
Ag4 Ag1+ 0.0353(2) 0.0236(1) 0.0287(2) 0.0020(1) 0.0094(1) 0.0040(1)
Ag5 Ag1+ 0.0294(1) 0.0184(1) 0.0279(2) 0.0002(1) 0.0033(1) 0.0010(1)
Cu1 Cu2+ 0.0195(2) 0.0131(2) 0.0145(3) 0.0015(2) 0.0002(2) 0.0016(2)
Cu2 Cu2+ 0.0192(2) 0.0126(2) 0.0208(3) 0.0000(2) -.0048(2) 0.0025(2)
As1 As5+ 0.0174(1) 0.0131(1) 0.0169(2) 0.0010(1) 0.0012(1) 0.0023(1)
As2 As5+ 0.0153(1) 0.0137(1) 0.0158(2) 0.0000(1) -.0008(1) 0.0022(1)
As3 As5+ 0.0175(1) 0.0137(1) 0.0165(2) 0.0014(1) 0.0008(1) 0.0016(1)
O1 O2- 0.0241(13) 0.0229(13) 0.0254(15) -.0028(10) 0.0039(12) 0.0061(13)
O2 O2- 0.0241(12) 0.0208(12) 0.0214(14) 0.0012(10) -.0010(11) 0.0060(12)
O3 O2- 0.0221(11) 0.0167(11) 0.0219(13) 0.0044(9) 0.0050(11) 0.0044(11)
O4 O2- 0.0296(14) 0.0197(12) 0.0200(13) 0.0009(11) -.0013(12) -.0008(11)
O5 O2- 0.0166(10) 0.0183(11) 0.0231(13) 0.0012(8) -.0011(10) -.0041(11)
O6 O2- 0.0188(11) 0.0179(11) 0.0249(14) 0.0030(9) -.0046(11) 0.0004(11)
O7 O2- 0.0380(16) 0.0175(11) 0.0161(12) -.0062(11) -.0015(12) 0.0018(11)
O8 O2- 0.0173(10) 0.0235(13) 0.0268(15) -.0015(9) 0.0016(11) 0.0045(12)
O9 O2- 0.0265(13) 0.0214(13) 0.0192(13) -.0012(11) 0.0012(11) -.0051(12)
O10 O2- 0.0185(10) 0.0155(10) 0.0299(16) 0.0014(8) -.0009(11) 0.0034(11)
O11 O2- 0.0324(15) 0.0229(13) 0.0235(15) 0.0033(12) 0.0038(13) 0.0081(13)
#End of data_67951-ICSD


