data_188494-ICSD
#?2014 by Fachinformationszentrum Karlsruhe, and the U.S. Secretary of 
#Commerce on behalf of the United States.  All rights reserved.
_database_code_ICSD                188494
_audit_creation_date               2014/02/01
_chemical_name_systematic
;
Dilithium Phosphorus Dioxide Nitride
;
_chemical_formula_structural       'Li2 (P O2 N)'
_chemical_formula_sum              'Li2 N1 O2 P1'
_publ_section_title
;
A new crystalline Li P O N electrolyte: Synthesis, properties, and 
electronic structure
;
loop_
_citation_id
_citation_journal_abbrev
_citation_year
_citation_journal_volume
_citation_page_first
_citation_page_last
_citation_journal_id_ASTM
primary 'Solid State Ionics' 2013 233 95 101 SSIOD3
_publ_author_name
;
Senevirathne, Keerthi;Day, Cynthia S.;Gross, Michael D.;Lachgar, 
Abdessadek;Holzwarth, N.A.W.
;
_cell_length_a                     8.86
_cell_length_b                     5.30
_cell_length_c                     4.64
_cell_angle_alpha                  90.
_cell_angle_beta                   90.
_cell_angle_gamma                  90.
_cell_volume                       217.89
_cell_formula_units_Z              4
_symmetry_space_group_name_H-M     'C m c 21'
_symmetry_Int_Tables_number        36
loop_
_symmetry_equiv_pos_site_id
_symmetry_equiv_pos_as_xyz
  1	'x, -y, z+.5'
  2	'-x, -y, z+.5'
  3	'-x, y, z'
  4	'x, y, z'
  5	'x+.5, -y+.5, z+.5'
  6	'-x+.5, -y+.5, z+.5'
  7	'-x+.5, y+.5, z'
  8	'x+.5, y+.5, z'
loop_
_atom_type_symbol
_atom_type_oxidation_number
Li1+	1
N3-	-3
O2-	-2
P5+	5
loop_
_atom_site_label
_atom_site_type_symbol
_atom_site_symmetry_multiplicity
_atom_site_Wyckoff_symbol
_atom_site_fract_x
_atom_site_fract_y
_atom_site_fract_z
_atom_site_occupancy
_atom_site_attached_hydrogens
Li1 Li1+ 8 b 0.333 0.341 0.002 1. 0 
P1 P5+ 4 a 0 0.343 0 1. 0 
O1 O2- 8 b 0.359 0.691 0.916 1. 0 
N1 N3- 4 a 0 0.616 0.845 1. 0 

#End of data_188494-ICSD


