data_98215-ICSD
#?2014 by Fachinformationszentrum Karlsruhe, and the U.S. Secretary of 
#Commerce on behalf of the United States.  All rights reserved.
_database_code_ICSD                98215
_audit_creation_date               2004/10/01
_audit_update_record               2008/08/01
_chemical_name_systematic          'Tetrapotassium Nonagermanate'
_chemical_formula_structural       'K4 (Ge9 O20)'
_chemical_formula_sum              'Ge9 K4 O20'
_publ_section_title
;
(H3 O)4 Ge7 O16 * 3(H2 O) and K4 Ge9 O20: two microporous germanates 
constructed by Ge10 O28 units
;
loop_
_citation_id
_citation_journal_abbrev
_citation_year
_citation_journal_volume
_citation_journal_issue
_citation_page_first
_citation_page_last
_citation_journal_id_ASTM
primary 'Hua Hsueh Hsueh Pao' 2003 61 3 382 387 HHHPA4
_publ_author_name
;
Zhou Yaming;Liu Zhichen;Chen Zhenxia;Weng Linhong;Zhao Dongyuan
;
_cell_length_a                     15.002(3)
_cell_length_b                     15.002(3)
_cell_length_c                     7.383(2)
_cell_angle_alpha                  90
_cell_angle_beta                   90
_cell_angle_gamma                  90
_cell_volume                       1661.62
_cell_formula_units_Z              4
_symmetry_space_group_name_H-M     'I 41/a Z'
_symmetry_Int_Tables_number        88
_refine_ls_R_factor_all            .0392
loop_
_symmetry_equiv_pos_site_id
_symmetry_equiv_pos_as_xyz
  1	'-y+.75, x+.75, -z+.75'
  2	'y+.25, -x+.75, -z+.75'
  3	'x, y+.5, -z'
  4	'-x, -y, -z'
  5	'y+.25, -x+.25, z+.25'
  6	'-y+.75, x+.25, z+.25'
  7	'-x, -y+.5, z'
  8	'x, y, z'
  9	'-y+.25, x+.25, -z+.25'
 10	'y+.75, -x+.25, -z+.25'
 11	'x+.5, y, -z+.5'
 12	'-x+.5, -y+.5, -z+.5'
 13	'y+.75, -x+.75, z+.75'
 14	'-y+.25, x+.75, z+.75'
 15	'-x+.5, -y, z+.5'
 16	'x+.5, y+.5, z+.5'
loop_
_atom_type_symbol
_atom_type_oxidation_number
Ge4+	4
K1+	1
O2-	-2
loop_
_atom_site_label
_atom_site_type_symbol
_atom_site_symmetry_multiplicity
_atom_site_Wyckoff_symbol
_atom_site_fract_x
_atom_site_fract_y
_atom_site_fract_z
_atom_site_occupancy
_atom_site_attached_hydrogens
_atom_site_U_iso_or_equiv
Ge1 Ge4+ 4 a 0 0.250 0.125 1. 0 0.008(1) 
Ge2 Ge4+ 16 f 0.0323(1) 0.3456(1) 0.7595(1) 1. 0 0.006(1) 
Ge3 Ge4+ 16 f 0.8636(1) 0.4542(1) 0.7006(9) 1. 0 0.007(3) 
O1 O2- 16 f 0.0375(4) 0.3426(4) 0.0051(8) 1. 0 0.010(1) 
O2 O2- 16 f 0.0279(4) 0.3292(4) 0.5039(8) 1. 0 0.009(1) 
O3 O2- 16 f 0.1416(4) 0.4039(4) 0.7458(8) 1. 0 0.008(1) 
O4 O2- 16 f 0.8112(4) 0.4279(4) 0.9065(8) 1. 0 0.011(1) 
O5 O2- 16 f -0.0243(4) 0.4544(4) 0.7588(9) 1. 0 0.011(1) 
K1 K1+ 16 f 0.0871(3) 0.5553(3) 0.8297(7) 1. 0 0.066(1) 

#End of data_98215-ICSD


