data_656498-ICSD
#?2014 by Fachinformationszentrum Karlsruhe, and the U.S. Secretary of 
#Commerce on behalf of the United States.  All rights reserved.
_database_code_ICSD                656498
_audit_creation_date               2013/08/01
_chemical_name_systematic          'Silver Dysprosium Sulfide (1/1/2)'
_chemical_formula_structural       'Ag Dy S2'
_chemical_formula_sum              'Ag1 Dy1 S2'
_publ_section_title
;
Syntheses and structures of Ag Ln S2 (Ln= Sm - Yb) compounds
;
loop_
_citation_id
_citation_journal_abbrev
_citation_year
_citation_journal_volume
_citation_page_first
_citation_page_last
_citation_journal_id_ASTM
primary 'Journal of Alloys and Compounds' 1992 178 57 70 JALCEU
_publ_author_name
;
van der Lee, A.;van de Belt, R.;Wiegers, G.A.
;
_cell_length_a                     7.692(2)
_cell_length_b                     7.667(1)
_cell_length_c                     12.059(2)
_cell_angle_alpha                  90.0
_cell_angle_beta                   90.30(2)
_cell_angle_gamma                  90.0
_cell_volume                       711.16
_cell_formula_units_Z              8
_symmetry_space_group_name_H-M     'P 1 21 1'
_symmetry_Int_Tables_number        4
loop_
_symmetry_equiv_pos_site_id
_symmetry_equiv_pos_as_xyz
  1	'-x, y+.5, -z'
  2	'x, y, z'
loop_
_atom_type_symbol
_atom_type_oxidation_number
Ag1+	1
Dy3+	3
S2-	-2
loop_
_atom_site_label
_atom_site_type_symbol
_atom_site_symmetry_multiplicity
_atom_site_Wyckoff_symbol
_atom_site_fract_x
_atom_site_fract_y
_atom_site_fract_z
_atom_site_occupancy
_atom_site_attached_hydrogens
Ag1 Ag1+ 2 a 0.496 0.751 0.221 1. 0 
Ag2 Ag1+ 2 a 0 0.252 0.295 1. 0 
Ag3 Ag1+ 2 a 0.248 0.503 -.017 1. 0 
Ag4 Ag1+ 2 a 0.252 -.002 0.486 1. 0 
Dy1 Dy3+ 2 a 0.253 0 -.001 1. 0 
Dy2 Dy3+ 2 a 0 0.751 0.247 1. 0 
Dy3 Dy3+ 2 a 0.502 0.247 0.253 1. 0 
Dy4 Dy3+ 2 a 0.246 0.500 0.497 1. 0 
S1 S2- 2 a -.017 0.271 0.529 1. 0 
S2 S2- 2 a 0.510 0.745 0.518 1. 0 
S3 S2- 2 a 0.273 0.025 -.230 1. 0 
S4 S2- 2 a 0.275 -.018 0.225 1. 0 
S5 S2- 2 a 0.230 0.479 0.268 1. 0 
S6 S2- 2 a 0.779 0.032 0.278 1. 0 
S7 S2- 2 a -.024 0.778 0.019 1. 0 
S8 S2- 2 a 0.523 0.229 0.028 1. 0 

#End of data_656498-ICSD


