data_71645-ICSD
#?2014 by Fachinformationszentrum Karlsruhe, and the U.S. Secretary of 
#Commerce on behalf of the United States.  All rights reserved.
_database_code_ICSD                71645
_audit_creation_date               1993/08/22
_audit_update_record               2004/04/01
_chemical_name_systematic          'Rubidium Heptasilver Sulfide'
_chemical_formula_structural       'Rb Ag7 S4'
_chemical_formula_sum              'Ag7 Rb1 S4'
_publ_section_title
;
Darstellung und Struktur der silberreichen Alkalimetallsilbersulfide, 
Cs Ag7 S4 und Rb Ag7 S4
;
loop_
_citation_id
_citation_journal_abbrev
_citation_year
_citation_journal_volume
_citation_page_first
_citation_page_last
_citation_journal_id_ASTM
primary 'Journal of Alloys and Compounds' 1992 183 377 384 JALCEU
_publ_author_name                  'Huster, J.'
_cell_length_a                     11.001(2)
_cell_length_b                     11.001(2)
_cell_length_c                     8.511(3)
_cell_angle_alpha                  90.
_cell_angle_beta                   90.
_cell_angle_gamma                  90.
_cell_volume                       1030.02
_cell_formula_units_Z              4
_symmetry_space_group_name_H-M     'P 4/n Z'
_symmetry_Int_Tables_number        85
_refine_ls_R_factor_all            .029
loop_
_symmetry_equiv_pos_site_id
_symmetry_equiv_pos_as_xyz
  1	'-y, x+.5, -z'
  2	'y+.5, -x, -z'
  3	'x+.5, y+.5, -z'
  4	'-x, -y, -z'
  5	'y, -x+.5, z'
  6	'-y+.5, x, z'
  7	'-x+.5, -y+.5, z'
  8	'x, y, z'
loop_
_atom_type_symbol
_atom_type_oxidation_number
Ag1+	1
Rb1+	1
S2-	-2
loop_
_atom_site_label
_atom_site_type_symbol
_atom_site_symmetry_multiplicity
_atom_site_Wyckoff_symbol
_atom_site_fract_x
_atom_site_fract_y
_atom_site_fract_z
_atom_site_occupancy
_atom_site_attached_hydrogens
Rb1 Rb1+ 2 c 0.25 0.25 0.3752(4) 1. 0 
Rb2 Rb1+ 2 c 0.25 0.25 0.8760(5) 1. 0 
Ag1 Ag1+ 4 d 0 0 0 1. 0 
Ag2 Ag1+ 8 g 0.4751(1) 0.9605(1) 0.3403(2) 1. 0 
Ag3 Ag1+ 8 g 0.7343(1) 0.3887(1) 0.1243(2) 1. 0 
Ag4 Ag1+ 8 g 0.2898(1) 0.6064(1) 0.3804(2) 1. 0 
S1 S2- 8 g 0.9951(3) 0.1951(3) 0.1312(5) 1. 0 
S2 S2- 8 g -.0001(3) 0.8037(3) 0.3782(5) 1. 0 

loop_
_atom_site_aniso_label
_atom_site_aniso_type_symbol
_atom_site_aniso_U_11
_atom_site_aniso_U_22
_atom_site_aniso_U_33
_atom_site_aniso_U_12
_atom_site_aniso_U_13
_atom_site_aniso_U_23
Rb1 Rb1+ 0.0252(7) 0.0252(7) 0.022(1) 0 0 0
Rb2 Rb1+ 0.0274(7) 0.0274(7) 0.027(1) 0 0 0
Ag1 Ag1+ 0.061(1) 0.0279(9) 0.053(1) -.0103(8) 0.030(1) -.020(1)
Ag2 Ag1+ 0.0227(5) 0.0418(6) 0.0450(7) -.0057(5) -.0106(7) -.0092(7)
Ag3 Ag1+ 0.0325(5) 0.0310(5) 0.0213(5) -.0008(5) 0.0011(7) -.0026(8)
Ag4 Ag1+ 0.0246(5) 0.0294(5) 0.0357(6) -.0080(5) 0.0017(7) -.0012(8)
S1 S2- 0.024(1) 0.021(1) 0.017(2) -.003(1) -.002(2) 0.001(2)
S2 S2- 0.018(1) 0.017(1) 0.020(2) -.001(1) 0.001(2) -.001(2)
#End of data_71645-ICSD


