data_240671-ICSD
#?2014 by Fachinformationszentrum Karlsruhe, and the U.S. Secretary of 
#Commerce on behalf of the United States.  All rights reserved.
_database_code_ICSD                240671
_audit_creation_date               2007/08/01
_audit_update_record               2008/02/01
_chemical_name_systematic
;
Dipotassium Selenate(VI) Bis(hydrogeniodate(V))
;
_chemical_formula_structural       'K2 (Se O4) (H I O3)2'
_chemical_formula_sum              'H2 I2 K2 O10 Se1'
_publ_section_title
;
Intercalation of iodic acid into the layered uranyl iodate, U O2 (I 
O3)2 (H2 O)
;
loop_
_citation_id
_citation_journal_abbrev
_citation_year
_citation_journal_volume
_citation_journal_issue
_citation_page_first
_citation_page_last
_citation_journal_id_ASTM
primary 'Inorganic Chemistry' 2007 46 2 346 347 INOCAJ
_publ_author_name                  'Ling, J.;Albrecht Schmitt, T.E.'
_cell_length_a                     20.2713(13)
_cell_length_b                     4.8809(3)
_cell_length_c                     14.0473(9)
_cell_angle_alpha                  90.00
_cell_angle_beta                   132.8070(10)
_cell_angle_gamma                  90.00
_cell_volume                       1019.67
_cell_formula_units_Z              4
_symmetry_space_group_name_H-M     'C 1 2/c 1'
_symmetry_Int_Tables_number        15
_refine_ls_R_factor_all            .0224
loop_
_symmetry_equiv_pos_site_id
_symmetry_equiv_pos_as_xyz
  1	'x, -y, z+.5'
  2	'-x, -y, -z'
  3	'-x, y, -z+.5'
  4	'x, y, z'
  5	'x+.5, -y+.5, z+.5'
  6	'-x+.5, -y+.5, -z'
  7	'-x+.5, y+.5, -z+.5'
  8	'x+.5, y+.5, z'
loop_
_atom_type_symbol
_atom_type_oxidation_number
H1+	1
I5+	5
K1+	1
O2-	-2
Se6+	6
loop_
_atom_site_label
_atom_site_type_symbol
_atom_site_symmetry_multiplicity
_atom_site_Wyckoff_symbol
_atom_site_fract_x
_atom_site_fract_y
_atom_site_fract_z
_atom_site_occupancy
_atom_site_attached_hydrogens
_atom_site_U_iso_or_equiv
K1 K1+ 8 f 0.59443(5) -0.26064(14) 0.14774(7) 1 0 0.01738(15) 
I1 I5+ 8 f 0.662372(11) -0.68367(3) 0.005063(16) 1 0 0.01107(10) 
Se1 Se6+ 4 e 0.5000 0.18025(7) 0.2500 1 0 0.01192(12) 
O1 O2- 8 f 0.72784(14) -0.4246(4) 0.1442(2) 1 0 0.0179(4) 
O2 O2- 8 f 0.59772(15) -0.8046(4) 0.0393(2) 1 0 0.0171(5) 
O3 O2- 8 f 0.75244(13) -0.9298(4) 0.0909(2) 1 0 0.0155(4) 
O4 O2- 8 f 0.58889(16) -0.0120(5) 0.3198(2) 1 0 0.0289(5) 
O5 O2- 8 f 0.51403(18) 0.3650(5) 0.3589(3) 1 0 0.0265(5) 
H1 H1+ 8 f 0.735(3) -0.281(10) 0.123(5) 1 0 0.028(11) 

loop_
_atom_site_aniso_label
_atom_site_aniso_type_symbol
_atom_site_aniso_U_11
_atom_site_aniso_U_22
_atom_site_aniso_U_33
_atom_site_aniso_U_12
_atom_site_aniso_U_13
_atom_site_aniso_U_23
K1 K1+ 0.0171(3) 0.0200(3) 0.0192(3) 0.0008(2) 0.0140(3) 0.0011(2)
I1 I5+ 0.01086(14) 0.01151(13) 0.01347(14) 0.00014(5) 0.00930(11) 
0.00112(5)
Se1 Se6+ 0.0115(2) 0.0101(2) 0.0155(2) 0.000 0.00969(19) 0.000
O1 O2- 0.0222(11) 0.0142(10) 0.0180(10) -0.0040(8) 0.0139(9) -0.0037(8)
O2 O2- 0.0160(11) 0.0210(11) 0.0209(12) -0.0005(7) 0.0152(10) 0.0035(7)
O3 O2- 0.0137(9) 0.0129(9) 0.0204(10) 0.0039(7) 0.0118(9) 0.0036(8)
O4 O2- 0.0276(12) 0.0408(14) 0.0240(12) 0.0207(11) 0.0199(11) 0.0143(10)
O5 O2- 0.0306(13) 0.0235(11) 0.0382(14) -0.0112(10) 0.0284(12) -0.0168(11)
#End of data_240671-ICSD


