data_95237-ICSD
#?2014 by Fachinformationszentrum Karlsruhe, and the U.S. Secretary of 
#Commerce on behalf of the United States.  All rights reserved.
_database_code_ICSD                95237
_audit_creation_date               2003/10/01
_audit_update_record               2011/02/01
_chemical_name_systematic
;
Dipotassium Trimercury Digermanium Selenide
;
_chemical_formula_structural       'K2 Hg3 Ge2 Se8'
_chemical_formula_sum              'Ge2 Hg3 K2 Se8'
_publ_section_title
;
Synthesis and characterization of a novel quaternary metal selenide 
K2 Hg3 Ge2 Se8
;
loop_
_citation_id
_citation_journal_abbrev
_citation_year
_citation_journal_volume
_citation_page_first
_citation_page_last
_citation_journal_id_ASTM
primary 'Journal of Alloys and Compounds' 2002 347 67 71 JALCEU
_publ_author_name
;
Jin, X.-R.;Zhang, L.-D.;Shu, G.-M.;Wang, R.-J.;Guo, H.-Y.
;
_cell_length_a                     19.851(2)
_cell_length_b                     10.0040(7)
_cell_length_c                     8.6097(7)
_cell_angle_alpha                  90
_cell_angle_beta                   90
_cell_angle_gamma                  90
_cell_volume                       1709.8
_cell_formula_units_Z              4
_symmetry_space_group_name_H-M     'A b a 2'
_symmetry_Int_Tables_number        41
_refine_ls_R_factor_all            .0562
loop_
_symmetry_equiv_pos_site_id
_symmetry_equiv_pos_as_xyz
  1	'x+.5, -y+.5, z'
  2	'-x+.5, y+.5, z'
  3	'-x, -y, z'
  4	'x, y, z'
  5	'x+.5, -y, z+.5'
  6	'-x+.5, y, z+.5'
  7	'-x, -y+.5, z+.5'
  8	'x, y+.5, z+.5'
loop_
_atom_type_symbol
_atom_type_oxidation_number
Ge4+	4
Hg2+	2
K1+	1
Se2-	-2
loop_
_atom_site_label
_atom_site_type_symbol
_atom_site_symmetry_multiplicity
_atom_site_Wyckoff_symbol
_atom_site_fract_x
_atom_site_fract_y
_atom_site_fract_z
_atom_site_occupancy
_atom_site_attached_hydrogens
_atom_site_U_iso_or_equiv
Hg1 Hg2+ 4 a 0.5 0 0.96331(13) 1. 0 0.0207(2) 
Hg2 Hg2+ 8 b 0.74260(3) 0.54620(8) 0.12387(11) 1. 0 0.0294(2) 
Ge1 Ge4+ 8 b 0.63293(7) 0.78769(16) 0.81383(18) 1. 0 0.0071(3) 
Se1 Se2- 8 b 0.72960(7) 0.79323(15) 0.9618(2) 1. 0 0.0137(3) 
Se2 Se2- 8 b 0.86758(7) 0.59221(15) 0.16199(17) 1. 0 0.0117(3) 
Se3 Se2- 8 b 0.62004(7) 0.48365(15) 0.16519(18) 1. 0 0.0111(3) 
Se4 Se2- 8 b 0.53448(7) 0.76399(16) 0.9687(2) 1. 0 0.0129(3) 
K1 K1+ 8 b 0.88313(19) 0.2958(4) 0.3207(5) 1. 0 0.0221(8) 

#End of data_95237-ICSD


