data_241198-ICSD
#?2014 by Fachinformationszentrum Karlsruhe, and the U.S. Secretary of 
#Commerce on behalf of the United States.  All rights reserved.
_database_code_ICSD                241198
_audit_creation_date               2008/08/01
_chemical_name_systematic          'Calcium Trivanadate(IV)'
_chemical_formula_structural       'Ca (V3 O7)'
_chemical_formula_sum              'Ca1 O7 V3'
_publ_section_title
;
Temperature dependence of the A V3 O7 (A = Ca, Sr) structure
;
loop_
_citation_id
_citation_journal_abbrev
_citation_year
_citation_journal_volume
_citation_journal_issue
_citation_page_first
_citation_page_last
_citation_journal_id_ASTM
primary 'Acta Crystallographica, Section B: Structural Science'
 2007 63 6 836 842 ASBSDK
_publ_author_name                  'Prinz, S.;Sparta, K.M.;Roth, G.'
_cell_length_a                     10.426(3)
_cell_length_b                     10.367(2)
_cell_length_c                     5.2909(15)
_cell_angle_alpha                  90.00
_cell_angle_beta                   90.00
_cell_angle_gamma                  90.00
_cell_volume                       571.87
_cell_formula_units_Z              4
_symmetry_space_group_name_H-M     'P n m a'
_symmetry_Int_Tables_number        62
_refine_ls_R_factor_all            .0193
loop_
_symmetry_equiv_pos_site_id
_symmetry_equiv_pos_as_xyz
  1	'x+.5, y, -z+.5'
  2	'x, -y+.5, z'
  3	'-x+.5, y+.5, z+.5'
  4	'-x, -y, -z'
  5	'-x+.5, -y, z+.5'
  6	'-x, y+.5, -z'
  7	'x+.5, -y+.5, -z+.5'
  8	'x, y, z'
loop_
_atom_type_symbol
_atom_type_oxidation_number
Ca2+	2
O2-	-2
V4+	4
loop_
_atom_site_label
_atom_site_type_symbol
_atom_site_symmetry_multiplicity
_atom_site_Wyckoff_symbol
_atom_site_fract_x
_atom_site_fract_y
_atom_site_fract_z
_atom_site_occupancy
_atom_site_attached_hydrogens
_atom_site_U_iso_or_equiv
Ca1 Ca2+ 4 c 0.08481(10) 0.2500 0.29974(15) 1 0 0.0063(3) 
V1 V4+ 4 c 0.28883(7) 0.2500 0.79219(13) 1 0 0.0051(3) 
V2 V4+ 8 d 0.18737(6) 0.52020(6) 0.78357(10) 1 0 0.0051(3) 
O1 O2- 4 c 0.4436(3) 0.2500 0.8083(5) 1 0 0.0103(8) 
O2 O2- 8 d 0.0397(2) 0.5656(2) 0.7663(4) 1 0 0.0113(6) 
O3 O2- 8 d 0.22039(19) 0.3797(2) 0.0260(4) 1 0 0.0060(5) 
O4 O2- 8 d 0.22680(19) 0.3795(2) 0.5480(4) 1 0 0.0058(5) 

loop_
_atom_site_aniso_label
_atom_site_aniso_type_symbol
_atom_site_aniso_U_11
_atom_site_aniso_U_22
_atom_site_aniso_U_33
_atom_site_aniso_U_12
_atom_site_aniso_U_13
_atom_site_aniso_U_23
Ca1 Ca2+ 0.0047(5) 0.0065(6) 0.0076(6) 0.000 -0.0003(3) 0.000
V1 V4+ 0.0047(5) 0.0050(6) 0.0055(5) 0.000 -0.0004(3) 0.000
V2 V4+ 0.0049(4) 0.0048(5) 0.0055(4) 0.0008(2) 0.0001(2) 0.0001(2)
#End of data_241198-ICSD


