data_402784-ICSD
#?2014 by Fachinformationszentrum Karlsruhe, and the U.S. Secretary of 
#Commerce on behalf of the United States.  All rights reserved.
_database_code_ICSD                402784
_audit_creation_date               1998/06/26
_chemical_name_systematic          'Trisodium Nonanitratodineodymate'
_chemical_formula_structural       'Na3 (Nd2 (N O3)9)'
_chemical_formula_sum              'N9 Na3 Nd2 O27'
_publ_section_title
;
Crystal structure of sodium neodymium nitrate, Na3 (Nd2 (N O3)9)
;
loop_
_citation_id
_citation_journal_abbrev
_citation_year
_citation_journal_volume
_citation_page_first
_citation_page_last
_citation_journal_id_ASTM
primary 'Zeitschrift fuer Kristallographie - New Crystal Structures'
 1997 212 316 316 ZKNSFT
_publ_author_name                  'Stockhause, S.;Meyer, G.'
_cell_length_a                     13.1279(8)
_cell_length_b                     13.1279(8)
_cell_length_c                     13.1279(8)
_cell_angle_alpha                  90.
_cell_angle_beta                   90.
_cell_angle_gamma                  90.
_cell_volume                       2262.49
_cell_formula_units_Z              4
_symmetry_space_group_name_H-M     'P 41 3 2'
_symmetry_Int_Tables_number        213
_refine_ls_R_factor_all            .041
loop_
_symmetry_equiv_pos_site_id
_symmetry_equiv_pos_as_xyz
  1	'-z+.25, y+.75, x+.25'
  2	'z+.25, -y+.25, x+.75'
  3	'z+.75, y+.25, -x+.25'
  4	'-z+.75, -y+.75, -x+.75'
  5	'y+.75, x+.25, -z+.25'
  6	'-y+.25, x+.75, z+.25'
  7	'y+.25, -x+.25, z+.75'
  8	'-y+.75, -x+.75, -z+.75'
  9	'x+.25, -z+.25, y+.75'
 10	'x+.75, z+.25, -y+.25'
 11	'-x+.25, z+.75, y+.25'
 12	'-x+.75, -z+.75, -y+.75'
 13	'z+.5, -x+.5, -y'
 14	'-z+.5, -x, y+.5'
 15	'-z, x+.5, -y+.5'
 16	'z, x, y'
 17	'-y, z+.5, -x+.5'
 18	'y+.5, -z+.5, -x'
 19	'-y+.5, -z, x+.5'
 20	'y, z, x'
 21	'-x+.5, -y, z+.5'
 22	'-x, y+.5, -z+.5'
 23	'x+.5, -y+.5, -z'
 24	'x, y, z'
loop_
_atom_type_symbol
_atom_type_oxidation_number
N5+	5
Na1+	1
Nd3+	3
O2-	-2
loop_
_atom_site_label
_atom_site_type_symbol
_atom_site_symmetry_multiplicity
_atom_site_Wyckoff_symbol
_atom_site_fract_x
_atom_site_fract_y
_atom_site_fract_z
_atom_site_occupancy
_atom_site_attached_hydrogens
Nd1 Nd3+ 8 c 0.71181(4) 0.71181(4) 0.71181(4) 1. 0 
Na1 Na1+ 12 d 0.5796(3) 0.625 0.3296(3) 1. 0 
N1 N5+ 12 d 0.7445(6) 0.625 0.4945(6) 1. 0 
O1 O2- 24 e 0.7651(4) 0.5860(5) 0.4119(5) 1. 0 
O2 O2- 12 d 0.8138(4) 0.625 0.5638(4) 1. 0 
N2 N5+ 24 e 0.6318(7) 0.6026(7) 0.1114(7) 1. 0 
O3 O2- 24 e 0.6770(6) 0.6538(5) 0.1761(6) 1. 0 
O4 O2- 24 e 0.5506(5) 0.5556(5) 0.1329(4) 1. 0 
O5 O2- 24 e 0.6681(5) 0.5916(5) 0.0223(5) 1. 0 

loop_
_atom_site_aniso_label
_atom_site_aniso_type_symbol
_atom_site_aniso_U_11
_atom_site_aniso_U_22
_atom_site_aniso_U_33
_atom_site_aniso_U_12
_atom_site_aniso_U_13
_atom_site_aniso_U_23
Nd1 Nd3+ 0.0265(2) 0.0265(2) 0.0265(2) 0.0011(3) 0.0011(3) 0.0011(3)
Na1 Na1+ 0.048(3) 0.114(7) 0.048(3) -.005(3) -.003(3) 0.005(3)
N1 N5+ 0.030(4) 0.025(7) 0.030(4) 0.000(3) 0.006(5) 0.000(3)
O1 O2- 0.034(4) 0.046(5) 0.023(4) 0.006(3) 0.001(3) -.004(3)
O2 O2- 0.027(3) 0.042(6) 0.027(3) -.002(3) -.008(4) 0.002(3)
N2 N5+ 0.043(6) 0.039(6) 0.033(5) 0.009(5) -.003(4) -.002(4)
O3 O2- 0.068(6) 0.043(4) 0.048(5) -.007(4) -.006(4) -.018(4)
O4 O2- 0.037(5) 0.042(5) 0.034(4) -.006(4) 0.003(4) -.008(3)
O5 O2- 0.044(4) 0.037(4) 0.033(4) -.003(3) 0.003(3) 0.002(3)
#End of data_402784-ICSD


