data_290451-ICSD
#?2014 by Fachinformationszentrum Karlsruhe, and the U.S. Secretary of 
#Commerce on behalf of the United States.  All rights reserved.
_database_code_ICSD                290451
_audit_creation_date               2014/02/01
_chemical_name_systematic          'Potassium Lithium Selenide'
_chemical_formula_structural       'K Li Se'
_chemical_formula_sum              'K1 Li1 Se1'
_publ_section_title
;
Structural, electronic and elastic properties of the new ternary 
alkali metal chalcogenides K Li X (X = S, Se and Te)
;
loop_
_citation_id
_citation_journal_abbrev
_citation_year
_citation_journal_volume
_citation_page_first
_citation_page_last
_citation_journal_id_ASTM
primary 'Computational Materials Science, Elsevier' 2012 61 206 212 CMMSEM
_publ_author_name
;
Seddik, T.;Khenata, R.;Bouhemadou, A.;Rached, D.;Varshney, Dinesh;Bin-
Omran, S.
;
_cell_length_a                     4.462
_cell_length_b                     4.462
_cell_length_c                     7.289
_cell_angle_alpha                  90.
_cell_angle_beta                   90.
_cell_angle_gamma                  90.
_cell_volume                       145.12
_cell_formula_units_Z              2
_symmetry_space_group_name_H-M     'P 4/n m m Z'
_symmetry_Int_Tables_number        129
loop_
_symmetry_equiv_pos_site_id
_symmetry_equiv_pos_as_xyz
  1	'y+.5, x+.5, -z'
  2	'-y, x+.5, -z'
  3	'y+.5, -x, -z'
  4	'-y, -x, -z'
  5	'x+.5, y+.5, -z'
  6	'-x, y+.5, -z'
  7	'x+.5, -y, -z'
  8	'-x, -y, -z'
  9	'-y+.5, -x+.5, z'
 10	'y, -x+.5, z'
 11	'-y+.5, x, z'
 12	'y, x, z'
 13	'-x+.5, -y+.5, z'
 14	'x, -y+.5, z'
 15	'-x+.5, y, z'
 16	'x, y, z'
loop_
_atom_type_symbol
_atom_type_oxidation_number
K1+	1
Li1+	1
Se2-	-2
loop_
_atom_site_label
_atom_site_type_symbol
_atom_site_symmetry_multiplicity
_atom_site_Wyckoff_symbol
_atom_site_fract_x
_atom_site_fract_y
_atom_site_fract_z
_atom_site_occupancy
_atom_site_attached_hydrogens
K1 K1+ 2 c 0.25 0.25 0.6623 1. 0 
Li1 Li1+ 2 a 0.75 0.25 0 1. 0 
Se1 Se2- 2 c 0.25 0.25 0.1920 1. 0 

#End of data_290451-ICSD


