data_161515-ICSD
#?2014 by Fachinformationszentrum Karlsruhe, and the U.S. Secretary of 
#Commerce on behalf of the United States.  All rights reserved.
_database_code_ICSD                161515
_audit_creation_date               2009/02/01
_chemical_name_systematic          'Dicalcium Diferrate(III)'
_chemical_formula_structural       'Ca2 (Fe2 O5)'
_chemical_formula_sum              'Ca2 Fe2 O5'
_chemical_name_mineral             Brownmillerite
_publ_section_title
;
The effect of oxygen vacancies and aluminium substitution on the high-
pressure properties of brownmillerite-structured Ca2 Fe2-x Alx O5
;
loop_
_citation_id
_citation_journal_abbrev
_citation_year
_citation_journal_volume
_citation_page_first
_citation_page_last
_citation_journal_id_ASTM
primary 'Physics and Chemistry of Minerals' 2008 35 493 504 PCMIDU
_publ_author_name
;
Vanpeteghem, C.B.;Angel, R.J.;Zhao Jing;Ross, N.L.;Redhammer, 
G.J.;Seifert, F.
;
_cell_length_a                     5.3035(2)
_cell_length_b                     14.4389(3)
_cell_length_c                     5.4979(1)
_cell_angle_alpha                  90.
_cell_angle_beta                   90.
_cell_angle_gamma                  90.
_cell_volume                       421.01
_cell_formula_units_Z              4
_symmetry_space_group_name_H-M     'P n m a'
_symmetry_Int_Tables_number        62
_refine_ls_R_factor_all            .043
loop_
_symmetry_equiv_pos_site_id
_symmetry_equiv_pos_as_xyz
  1	'x+.5, y, -z+.5'
  2	'x, -y+.5, z'
  3	'-x+.5, y+.5, z+.5'
  4	'-x, -y, -z'
  5	'-x+.5, -y, z+.5'
  6	'-x, y+.5, -z'
  7	'x+.5, -y+.5, -z+.5'
  8	'x, y, z'
loop_
_atom_type_symbol
_atom_type_oxidation_number
Ca2+	2
Fe3+	3
O2-	-2
loop_
_atom_site_label
_atom_site_type_symbol
_atom_site_symmetry_multiplicity
_atom_site_Wyckoff_symbol
_atom_site_fract_x
_atom_site_fract_y
_atom_site_fract_z
_atom_site_occupancy
_atom_site_attached_hydrogens
_atom_site_B_iso_or_equiv
Ca1 Ca2+ 8 d 0.4804(2) 0.1089(2) 0.0219(2) 1. 0 0.65(2) 
Fe1 Fe3+ 4 a 0 0 0 1. 0 0.37(2) 
Fe2 Fe3+ 4 c 0.9449(2) 0.250 0.9352(2) 1. 0 0.45(2) 
O1 O2- 8 d 0.2622(6) 0.9825(7) 0.2376(6) 1. 0 0.59(6) 
O2 O2- 8 d 0.0276(8) 0.1417(8) 0.0756(8) 1. 0 0.90(7) 
O3 O2- 4 c 0.5945(9) 0.250 0.8756(9) 1. 0 0.52(9) 

#End of data_161515-ICSD


