data_20589-ICSD
#?2014 by Fachinformationszentrum Karlsruhe, and the U.S. Secretary of 
#Commerce on behalf of the United States.  All rights reserved.
_database_code_ICSD                20589
_audit_creation_date               1980/01/01
_audit_update_record               2012/02/01
_chemical_name_systematic          'Calcium Catena-silicate'
_chemical_formula_structural       'Ca (Si O3)'
_chemical_formula_sum              'Ca1 O3 Si1'
_chemical_name_mineral             'Wollastonite 2M'
_publ_section_title
;
The crystal structure of wollastonite
;
loop_
_citation_id
_citation_journal_abbrev
_citation_year
_citation_journal_volume
_citation_page_first
_citation_page_last
_citation_journal_id_ASTM
primary 'Doklady Akademii Nauk SSSR' 1956 107 463 466 DANKAS
2 'Golden Book of Phase Transitions, Wroclaw' 2002 1 1 123 GBOPT5
_publ_author_name                  'Mamedov, Kh.S.;Belov, N.V.'
_cell_length_a                     15.36
_cell_length_b                     7.285
_cell_length_c                     7.084
_cell_angle_alpha                  90.
_cell_angle_beta                   95.4
_cell_angle_gamma                  90.
_cell_volume                       789.16
_cell_formula_units_Z              12
_symmetry_space_group_name_H-M     'P 1 21/a 1'
_symmetry_Int_Tables_number        14
_refine_ls_R_factor_all            .24
loop_
_symmetry_equiv_pos_site_id
_symmetry_equiv_pos_as_xyz
  1	'x+.5, -y+.5, z'
  2	'-x, -y, -z'
  3	'-x+.5, y+.5, -z'
  4	'x, y, z'
loop_
_atom_type_symbol
_atom_type_oxidation_number
Ca2+	2
O2-	-2
Si4+	4
loop_
_atom_site_label
_atom_site_type_symbol
_atom_site_symmetry_multiplicity
_atom_site_Wyckoff_symbol
_atom_site_fract_x
_atom_site_fract_y
_atom_site_fract_z
_atom_site_occupancy
_atom_site_attached_hydrogens
_atom_site_B_iso_or_equiv
Ca1 Ca2+ 4 e 0.25 0.375 0 1. 0 0.6 
Ca2 Ca2+ 4 e 0.602 0.375 0.263 1. 0 0.6 
Ca3 Ca2+ 4 e 0.602 0.875 0.263 1. 0 0.6 
Si1 Si4+ 4 e 0.406 0.08 0.232 1. 0 0.6 
Si2 Si4+ 4 e 0.406 0.67 0.232 1. 0 0.6 
Si3 Si4+ 4 e 0.3 0.375 0.443 1. 0 0.6 
O1 O2- 4 e 0.297 0.375 0.667 1. 0 0.6 
O2 O2- 4 e 0.297 0.875 0.667 1. 0 0.6 
O3 O2- 4 e 0.345 0.125 0.047 1. 0 0.6 
O4 O2- 4 e 0.345 0.625 0.047 1. 0 0.6 
O5 O2- 4 e 0.507 0.125 0.229 1. 0 0.6 
O6 O2- 4 e 0.507 0.625 0.229 1. 0 0.6 
O7 O2- 4 e 0.362 0.198 0.406 1. 0 0.6 
O8 O2- 4 e 0.362 0.552 0.406 1. 0 0.6 
O9 O2- 4 e 0.406 0.875 0.232 1. 0 0.6 

#End of data_20589-ICSD


