data_59988-ICSD
#?2014 by Fachinformationszentrum Karlsruhe, and the U.S. Secretary of 
#Commerce on behalf of the United States.  All rights reserved.
_database_code_ICSD                59988
_audit_creation_date               2005/10/01
_chemical_name_systematic          'Calcium Terbium Hexafluoride'
_chemical_formula_structural       'Ca Tb F6'
_chemical_formula_sum              'Ca1 F6 Tb1'
_publ_section_title
;
Anti-K Sb F7 structure of Ca Tb F6 and Cd Tb F6: a confirmation of 
the singular crystal chemistry of Tb(4+) in fluorides
;
loop_
_citation_id
_citation_journal_abbrev
_citation_year
_citation_journal_volume
_citation_page_first
_citation_page_last
_citation_journal_id_ASTM
primary 'Acta Crystallographica, Section B: Structural Science'
 2005 61 1 10 ASBSDK
_publ_author_name
;
Josse, M.;Dubois, M.;El Ghozzi, M.;Cellier, J.;Avignant, D.
;
_cell_length_a                     5.2677(3)
_cell_length_b                     5.2677(3)
_cell_length_c                     7.7066(9)
_cell_angle_alpha                  90
_cell_angle_beta                   90
_cell_angle_gamma                  90
_cell_volume                       213.85
_cell_formula_units_Z              2
_symmetry_space_group_name_H-M     'P 42/m'
_symmetry_Int_Tables_number        84
loop_
_symmetry_equiv_pos_site_id
_symmetry_equiv_pos_as_xyz
  1	'-y, x, -z+.5'
  2	'y, -x, -z+.5'
  3	'x, y, -z'
  4	'-x, -y, -z'
  5	'y, -x, z+.5'
  6	'-y, x, z+.5'
  7	'-x, -y, z'
  8	'x, y, z'
loop_
_atom_type_symbol
_atom_type_oxidation_number
Ca2+	2
F1-	-1
Tb4+	4
loop_
_atom_site_label
_atom_site_type_symbol
_atom_site_symmetry_multiplicity
_atom_site_Wyckoff_symbol
_atom_site_fract_x
_atom_site_fract_y
_atom_site_fract_z
_atom_site_occupancy
_atom_site_attached_hydrogens
_atom_site_B_iso_or_equiv
Ca1 Ca2+ 2 a 0 0 .5 1 0 1.85(5) 
Tb1 Tb4+ 2 f .5 .5 .75 1 0 1.60(2) 
F1 F1- 8 k .214(1) .356(1) .3174(4) 1 0 2.25(8) 
F2 F1- 4 j .352(2) .683(2) .5 1 0 2.25(8) 

#End of data_59988-ICSD


