data_69447-ICSD
#?2014 by Fachinformationszentrum Karlsruhe, and the U.S. Secretary of 
#Commerce on behalf of the United States.  All rights reserved.
_database_code_ICSD                69447
_audit_creation_date               1992/08/20
_audit_update_record               2012/02/01
_chemical_name_systematic
;
Dicalcium Iron Iron(III) Catena-pentasilicate Hydroxide
;
_chemical_formula_structural       'Ca2 Fe Fe (Si5 O14) (O H)'
_chemical_formula_sum              'H1 Ca2 Fe2 O15 Si5'
_chemical_name_mineral             Babingtonite
_publ_section_title
;
Neutron diffraction study of babingtonite at 80 K
;
loop_
_citation_id
_citation_journal_abbrev
_citation_year
_citation_journal_volume
_citation_journal_issue
_citation_page_first
_citation_page_last
_citation_journal_id_ASTM
primary 'Mineralogical Journal (Japan)' 1990 15 1 8 18 MJTOAS
_publ_author_name                  'Tagai, T.;Joswig, W.;Fuess, H.'
_cell_length_a                     7.497(1)
_cell_length_b                     12.225(1)
_cell_length_c                     6.710(1)
_cell_angle_alpha                  86.18(1)
_cell_angle_beta                   93.90(1)
_cell_angle_gamma                  112.27(1)
_cell_volume                       567.23
_cell_formula_units_Z              2
_symmetry_space_group_name_H-M     'P -1'
_symmetry_Int_Tables_number        2
_refine_ls_R_factor_all            .027
loop_
_symmetry_equiv_pos_site_id
_symmetry_equiv_pos_as_xyz
  1	'-x, -y, -z'
  2	'x, y, z'
loop_
_atom_type_symbol
_atom_type_oxidation_number
Ca2+	2
Fe2+	2
Fe3+	3
H1+	1
O2-	-2
Si4+	4
loop_
_atom_site_label
_atom_site_type_symbol
_atom_site_symmetry_multiplicity
_atom_site_Wyckoff_symbol
_atom_site_fract_x
_atom_site_fract_y
_atom_site_fract_z
_atom_site_occupancy
_atom_site_attached_hydrogens
Ca1 Ca2+ 2 i 0.1604(2) 0.9423(2) 0.8577(3) 1. 0 
Ca2 Ca2+ 2 i 0.2824(2) 0.5201(1) 0.6956(3) 1. 0 
Fe1 Fe2+ 2 i 0.0502(2) 0.6440(1) 0.9392(2) 1. 0 
Fe2 Fe3+ 2 i 0.1887(1) 0.2353(1) 0.8158(2) 1. 0 
Si1 Si4+ 2 i 0.7651(3) 0.0532(2) 0.6590(4) 1. 0 
Si2 Si4+ 2 i 0.8528(3) 0.3133(2) 0.5754(3) 1. 0 
Si3 Si4+ 2 i 0.6389(3) 0.4551(2) 0.7904(3) 1. 0 
Si4 Si4+ 2 i 0.7260(3) 0.7134(2) 0.6902(4) 1. 0 
Si5 Si4+ 2 i 0.5085(3) 0.8356(2) 0.8940(4) 1. 0 
H1 H1+ 2 i 0.2123(4) 0.0956(2) 0.5229(5) 1. 0 
O1 O2- 2 i 0.7891(2) 0.9874(1) 0.4664(2) 1. 0 
O2 O2- 2 i 0.9507(2) 0.0803(1) 0.8155(3) 1. 0 
O3 O2- 2 i 0.7375(2) 0.1711(1) 0.5638(3) 1. 0 
O4 O2- 2 i 0.0216(2) 0.3382(1) 0.7535(3) 1. 0 
O5 O2- 2 i 0.0703(2) 0.6203(1) 0.6339(3) 1. 0 
O6 O2- 2 i 0.6931(2) 0.3707(1) 0.6273(3) 1. 0 
O7 O2- 2 i 0.4152(2) 0.3844(1) 0.8419(3) 1. 0 
O8 O2- 2 i 0.7968(2) 0.4753(1) 0.9736(2) 1. 0 
O9 O2- 2 i 0.6430(2) 0.5686(1) 0.6621(3) 1. 0 
O10 O2- 2 i 0.8828(2) 0.7553(1) 0.8751(3) 1. 0 
O11 O2- 2 i 0.1996(2) 0.2208(1) 0.5219(3) 1. 0 
O12 O2- 2 i 0.5327(2) 0.7369(1) 0.7492(3) 1. 0 
O13 O2- 2 i 0.2886(2) 0.7989(1) 0.9435(3) 1. 0 
O14 O2- 2 i 0.3365(2) 0.1424(1) 0.9183(3) 1. 0 
O15 O2- 2 i 0.5736(2) 0.9675(1) 0.7741(3) 1. 0 

loop_
_atom_site_aniso_label
_atom_site_aniso_type_symbol
_atom_site_aniso_U_11
_atom_site_aniso_U_22
_atom_site_aniso_U_33
_atom_site_aniso_U_12
_atom_site_aniso_U_13
_atom_site_aniso_U_23
Ca1 Ca2+ 0.00126(8) 0.00057(8) 0.0008(1) 0.00031(7) 0.00012(9) -.00015(9)
Ca2 Ca2+ 0.00059(8) 0.00080(8) 0.0008(1) 0.00030(6) 0.00019(9) 0.00014(9)
Fe1 Fe2+ 0.00112(5) 0.00114(5) 0.00124(8) 0.00042(4) 0.00010(6) -.00007(6)
Fe2 Fe3+ 0.00059(4) 0.00054(4) 0.00048(6) 0.00022(3) 0.00007(4) 0.00003(4)
Si1 Si4+ 0.00075(9) 0.00044(9) 0.0005(1) 0.00026(7) -.0001(1) 0.0001(1)
Si2 Si4+ 0.00066(9) 0.00039(9) 0.0003(1) 0.00024(7) -.0001(1) -.0001(1)
Si3 Si4+ 0.00059(9) 0.00044(9) 0.0003(1) 0.00018(7) 0.0000(1) 0.0000(1)
Si4 Si4+ 0.00067(9) 0.00037(9) 0.0004(1) 0.00021(7) 0.0001(1) 0.0001(1)
Si5 Si4+ 0.00035(8) 0.00042(9) 0.0006(1) 0.00009(7) 0.0001(1) -.0001(1)
H1 H1+ 0.0038(2) 0.0015(1) 0.0019(2) 0.0013(1) 0.0005(2) 0.0001(1)
O1 O2- 0.00191(8) 0.00077(8) 0.0005(1) 0.00061(6) 0.00003(8) -.00021(8)
O2 O2- 0.00056(6) 0.00078(6) 0.00039(9) 0.00019(5) -.00015(7) -.00001(7)
O3 O2- 0.00109(7) 0.00046(7) 0.0009(1) 0.00035(5) -.00028(8) 0.00000(7)
O4 O2- 0.00061(6) 0.00074(6) 0.00047(9) 0.00027(5) -.00017(8) -.00014(7)
O5 O2- 0.00091(7) 0.00086(6) 0.00050(9) 0.00050(5) 0.00033(8) 0.00027(7)
O6 O2- 0.00066(6) 0.00068(6) 0.00061(9) 0.00044(5) 0.00005(7) -.00007(7)
O7 O2- 0.00054(6) 0.00054(6) 0.00067(9) 0.00023(5) 0.00026(7) 0.00023(7)
O8 O2- 0.00069(6) 0.00075(7) 0.0006(1) 0.00046(5) -.00008(7) -.00015(7)
O9 O2- 0.00064(7) 0.00037(6) 0.0009(1) 0.00013(5) -.00023(8) -.00015(7)
O10 O2- 0.00056(7) 0.00068(6) 0.00044(9) 0.00021(5) 0.00001(7) -.00011(7)
O11 O2- 0.00128(7) 0.00067(7) 0.00040(9) 0.00036(6) 0.00037(8) 0.00018(8)
O12 O2- 0.00072(7) 0.00068(7) 0.00051(9) 0.00037(5) 0.00008(7) -.00018(7)
O13 O2- 0.00061(7) 0.00068(7) 0.0011(1) 0.00021(5) 0.00028(8) -.00010(8)
O14 O2- 0.00095(7) 0.00065(6) 0.00053(9) 0.00039(5) -.00037(8) -.00024(7)
O15 O2- 0.00087(7) 0.00051(7) 0.00098(9) 0.00030(6) 0.00020(8) 0.00029(8)
#End of data_69447-ICSD


