data_65193-ICSD
#?2014 by Fachinformationszentrum Karlsruhe, and the U.S. Secretary of 
#Commerce on behalf of the United States.  All rights reserved.
_database_code_ICSD                65193
_audit_creation_date               1989/12/04
_audit_update_record               2005/10/01
_chemical_name_systematic
;
Tripotassium Cerium Bis(phosphate(V))
;
_chemical_formula_structural       'K3 Ce (P O4)2'
_chemical_formula_sum              'Ce1 K3 O8 P2'
_publ_section_title
;
L'orthophosphate de cerium III et de potassium K3 Ce (P O4)2: donnees 
cristallographiques et structurales
;
loop_
_citation_id
_citation_journal_abbrev
_citation_year
_citation_journal_volume
_citation_journal_issue
_citation_page_first
_citation_page_last
_citation_journal_id_ASTM
primary
;
Comptes Rendus Hebdomadaires des Seances de l`Academie des Sciences, 
Serie 2 (1984-1993)
;
 1988 307 10 1177 1179 CRAMED
_publ_author_name
;
Zah-Letho, J.J.;Houenou, P.;Eholie, R.
;
_cell_length_a                     9.621(1)
_cell_length_b                     5.656(3)
_cell_length_c                     7.496(1)
_cell_angle_alpha                  90.
_cell_angle_beta                   90.6(1)
_cell_angle_gamma                  90.
_cell_volume                       407.88
_cell_formula_units_Z              2
_symmetry_space_group_name_H-M     'P 1 21/m 1'
_symmetry_Int_Tables_number        11
_refine_ls_R_factor_all            .029
loop_
_symmetry_equiv_pos_site_id
_symmetry_equiv_pos_as_xyz
  1	'x, -y+.5, z'
  2	'-x, -y, -z'
  3	'-x, y+.5, -z'
  4	'x, y, z'
loop_
_atom_type_symbol
_atom_type_oxidation_number
Ce3+	3
K1+	1
O2-	-2
P5+	5
loop_
_atom_site_label
_atom_site_type_symbol
_atom_site_symmetry_multiplicity
_atom_site_Wyckoff_symbol
_atom_site_fract_x
_atom_site_fract_y
_atom_site_fract_z
_atom_site_occupancy
_atom_site_attached_hydrogens
_atom_site_B_iso_or_equiv
K1 K1+ 2 e 0.3085(2) 0.25 0.4918(3) 1. 0 1.33(3) 
K2 K1+ 2 e 0.5832(2) 0.25 0.2039(3) 1. 0 1.08(3) 
K3 K1+ 2 e 0.9054(2) 0.25 0.6390(3) 1. 0 1.31(3) 
Ce1 Ce3+ 2 e 0.20816(6) 0.25 -.00839(7) 1. 0 0.603(5) 
P1 P5+ 2 e 0.9259(2) 0.25 0.2002(3) 1. 0 0.81(3) 
P2 P5+ 2 e 0.5856(2) 0.25 0.7642(3) 1. 0 0.62(3) 
O1 O2- 2 e 0.4315(6) 0.25 0.8182(8) 1. 0 0.9(1) 
O2 O2- 2 e 0.5997(6) 0.25 0.5631(9) 1. 0 1.4(1) 
O3 O2- 2 e 0.0744(6) 0.25 0.2847(8) 1. 0 1.0(1) 
O4 O2- 2 e 0.9424(7) 0.25 -.0029(9) 1. 0 3.3(2) 
O5 O2- 4 f 0.1542(4) 0.5284(9) 0.7418(6) 1. 0 1.43(8) 
O6 O2- 4 f 0.3427(4) 0.5268(6) 0.1575(6) 1. 0 1.24(7) 

#End of data_65193-ICSD


