data_188033-ICSD
#?2014 by Fachinformationszentrum Karlsruhe, and the U.S. Secretary of 
#Commerce on behalf of the United States.  All rights reserved.
_database_code_ICSD                188033
_audit_creation_date               2014/02/01
_chemical_name_systematic
;
Disilver Diindium Germanium Hexasulfide
;
_chemical_formula_structural       'Ag2 (In2 Ge S6)'
_chemical_formula_sum              'Ag2 Ge1 In2 S6'
_publ_section_title
;
X-ray photoelectron spectrum, X-ray diffraction data, and electronic 
structure of chalcogenide quaternary sulfide Ag2 In2 Ge S6: 
experiment and theory
;
loop_
_citation_id
_citation_journal_abbrev
_citation_year
_citation_journal_volume
_citation_journal_issue
_citation_page_first
_citation_page_last
_citation_journal_id_ASTM
primary 'Journal of Materials Science' 2013 48 3 1342 1350 JMTSAS
2 'Journal of Alloys and Compounds' 2008 452- 348 358 JALCEU
_publ_author_name
;
Reshak, A.H.;Kityk, I.V.;Parasyuk, O.V.;Fedorchuk, A.O.;Alahmed, 
Z.A.;AlZayed, N.;Kamarudin, H.;Auluck, S.
;
_cell_length_a                     12.2088
_cell_length_b                     12.1978
_cell_length_c                     7.2114
_cell_angle_alpha                  90.
_cell_angle_beta                   109.508
_cell_angle_gamma                  90.
_cell_volume                       1012.28
_cell_formula_units_Z              4
_symmetry_space_group_name_H-M     'C 1 c 1'
_symmetry_Int_Tables_number        9
loop_
_symmetry_equiv_pos_site_id
_symmetry_equiv_pos_as_xyz
  1	'x, -y, z+.5'
  2	'x, y, z'
  3	'x+.5, -y+.5, z+.5'
  4	'x+.5, y+.5, z'
loop_
_atom_type_symbol
_atom_type_oxidation_number
Ag1+	1
Ge4+	4
In3+	3
S2-	-2
loop_
_atom_site_label
_atom_site_type_symbol
_atom_site_symmetry_multiplicity
_atom_site_Wyckoff_symbol
_atom_site_fract_x
_atom_site_fract_y
_atom_site_fract_z
_atom_site_occupancy
_atom_site_attached_hydrogens
Ag1 Ag1+ 4 a 0.39530 0.59117 0.25324 1. 0 
Ag2 Ag1+ 4 a 0.59751 0.21145 0.41179 1. 0 
In1 In3+ 4 a 0.41842 0.09926 0.06017 1. 0 
In2 In3+ 4 a 0.23511 0.06570 0.25662 1. 0 
Ge1 Ge4+ 4 a 0.16993 0.76345 0.00016 1. 0 
S1 S2- 4 a 0.36124 0.76003 0.04849 1. 0 
S2 S2- 4 a 0.40727 0.24178 0.24264 1. 0 
S3 S2- 4 a 0.09085 0.00625 0.05656 1. 0 
S4 S2- 4 a 0.09375 0.26720 0.30889 1. 0 
S5 S2- 4 a 0.28833 0.23029 0.87063 1. 0 
S6 S2- 4 a 0.62332 0.01416 0.08297 1. 0 

#End of data_188033-ICSD


