data_60138-ICSD
#?2014 by Fachinformationszentrum Karlsruhe, and the U.S. Secretary of 
#Commerce on behalf of the United States.  All rights reserved.
_database_code_ICSD                60138
_audit_creation_date               1986/04/14
_audit_update_record               2004/10/01
_chemical_name_systematic          'Potassium Dithioantimonate(III)'
_chemical_formula_structural       'K (Sb S2)'
_chemical_formula_sum              'K1 S2 Sb1'
_publ_section_title
;
Darstellung und Kristallstruktur von K Sb S2
;
loop_
_citation_id
_citation_journal_abbrev
_citation_year
_citation_journal_volume
_citation_page_first
_citation_page_last
_citation_journal_id_ASTM
primary 'Zeitschrift fuer Anorganische und Allgemeine Chemie (1950) (DE)'
 1975 414 211 219 ZAACAB
_publ_author_name                  'Graf, H.A.;Schaefer, H.'
_cell_length_a                     8.75(1)
_cell_length_b                     8.98(1)
_cell_length_c                     6.84(1)
_cell_angle_alpha                  90.
_cell_angle_beta                   121.6(1)
_cell_angle_gamma                  90.
_cell_volume                       457.76
_cell_formula_units_Z              4
_symmetry_space_group_name_H-M     'C 1 2/c 1'
_symmetry_Int_Tables_number        15
_refine_ls_R_factor_all            .121
loop_
_symmetry_equiv_pos_site_id
_symmetry_equiv_pos_as_xyz
  1	'x, -y, z+.5'
  2	'-x, -y, -z'
  3	'-x, y, -z+.5'
  4	'x, y, z'
  5	'x+.5, -y+.5, z+.5'
  6	'-x+.5, -y+.5, -z'
  7	'-x+.5, y+.5, -z+.5'
  8	'x+.5, y+.5, z'
loop_
_atom_type_symbol
_atom_type_oxidation_number
K1+	1
S2-	-2
Sb3+	3
loop_
_atom_site_label
_atom_site_type_symbol
_atom_site_symmetry_multiplicity
_atom_site_Wyckoff_symbol
_atom_site_fract_x
_atom_site_fract_y
_atom_site_fract_z
_atom_site_occupancy
_atom_site_attached_hydrogens
Sb1 Sb3+ 4 e 0 0.5926(1) 0.25 1. 0 
K1 K1+ 4 e 0 0.1397(2) 0.25 1. 0 
S1 S2- 8 f 0.2026(2) 0.4243(2) 0.2221(3) 1. 0 

loop_
_atom_site_aniso_label
_atom_site_aniso_type_symbol
_atom_site_aniso_U_11
_atom_site_aniso_U_22
_atom_site_aniso_U_33
_atom_site_aniso_U_12
_atom_site_aniso_U_13
_atom_site_aniso_U_23
Sb1 Sb3+ 0.0225(3) 0.0197(3) 0.0268(3) 0 0.0158(2) 0
K1 K1+ 0.0165(6) 0.0243(8) 0.0254(8) 0 0.0094(6) 0
S1 S2- 0.0141(5) 0.0260(6) 0.0186(6) 0.0012(4) 0.0086(4) 0.0017(4)
#End of data_60138-ICSD


