data_201933-ICSD
#?2014 by Fachinformationszentrum Karlsruhe, and the U.S. Secretary of 
#Commerce on behalf of the United States.  All rights reserved.
_database_code_ICSD                201933
_audit_creation_date               1988/12/19
_audit_update_record               2010/02/01
_chemical_name_systematic          'Zinc Hexathioduo-diphosphate'
_chemical_formula_structural       'Zn2 (P2 S6)'
_chemical_formula_sum              'P2 S6 Zn2'
_publ_section_title                'Structure determination of Zn P S3'
loop_
_citation_id
_citation_journal_abbrev
_citation_year
_citation_journal_volume
_citation_page_first
_citation_page_last
_citation_journal_id_ASTM
primary 'Materials Research Bulletin' 1986 21 195 200 MRBUAC
2 'Materials Research Bulletin' 1986 21 643 644 MRBUAC
_publ_author_name                  'Prouzet, E.;Ouvrard, G.;Brec, R.'
_cell_length_a                     5.9717(4)
_cell_length_b                     10.3424(8)
_cell_length_c                     6.7565(5)
_cell_angle_alpha                  90.
_cell_angle_beta                   107.139(4)
_cell_angle_gamma                  90.
_cell_volume                       398.76
_cell_formula_units_Z              2
_symmetry_space_group_name_H-M     'C 1 2/m 1'
_symmetry_Int_Tables_number        12
_refine_ls_R_factor_all            .04
loop_
_symmetry_equiv_pos_site_id
_symmetry_equiv_pos_as_xyz
  1	'-x, y, -z'
  2	'-x, -y, -z'
  3	'x, -y, z'
  4	'x, y, z'
  5	'-x+.5, y+.5, -z'
  6	'-x+.5, -y+.5, -z'
  7	'x+.5, -y+.5, z'
  8	'x+.5, y+.5, z'
loop_
_atom_type_symbol
_atom_type_oxidation_number
P4+	4
S2-	-2
Zn2+	2
loop_
_atom_site_label
_atom_site_type_symbol
_atom_site_symmetry_multiplicity
_atom_site_Wyckoff_symbol
_atom_site_fract_x
_atom_site_fract_y
_atom_site_fract_z
_atom_site_occupancy
_atom_site_attached_hydrogens
Zn1 Zn2+ 4 g 0 0.3324(1) 0 1. 0 
P1 P4+ 4 i 0.0563(3) 0 0.1695(3) 1. 0 
S1 S2- 4 i 0.7530(3) 0 0.2473(3) 1. 0 
S2 S2- 8 j 0.2466(2) 0.1643(2) 0.2493(2) 1. 0 

#End of data_201933-ICSD


