data_406544-ICSD
#?2014 by Fachinformationszentrum Karlsruhe, and the U.S. Secretary of 
#Commerce on behalf of the United States.  All rights reserved.
_database_code_ICSD                406544
_audit_creation_date               1997/11/10
_chemical_name_systematic
;
Silver Strontium Dodecaoxoheptaborate
;
_chemical_formula_structural       'Ag Sr (B7 O12)'
_chemical_formula_sum              'Ag1 B7 O12 Sr1'
_publ_section_title
;
Ag Sr (B7 O12): Das erste wasserfreie quarternaere Silber(I)-Borat 
mit vierfach koordiniertem Silber und einem neuartigen Boratanion
;
loop_
_citation_id
_citation_journal_abbrev
_citation_year
_citation_journal_volume
_citation_page_first
_citation_page_last
_citation_journal_id_ASTM
primary 'Zeitschrift fuer Naturforschung, B: Chemical Sciences'
 1997 52 227 230 ZNBSEN
_publ_author_name                  'Wiesch, A.;Bluhm, K.'
_cell_length_a                     6.642(4)
_cell_length_b                     11.536(2)
_cell_length_c                     21.980(6)
_cell_angle_alpha                  90.
_cell_angle_beta                   92.52(3)
_cell_angle_gamma                  90.
_cell_volume                       1682.53
_cell_formula_units_Z              8
_symmetry_space_group_name_H-M     'C 1 2/c 1'
_symmetry_Int_Tables_number        15
_refine_ls_R_factor_all            .1031
loop_
_symmetry_equiv_pos_site_id
_symmetry_equiv_pos_as_xyz
  1	'x, -y, z+.5'
  2	'-x, -y, -z'
  3	'-x, y, -z+.5'
  4	'x, y, z'
  5	'x+.5, -y+.5, z+.5'
  6	'-x+.5, -y+.5, -z'
  7	'-x+.5, y+.5, -z+.5'
  8	'x+.5, y+.5, z'
loop_
_atom_type_symbol
_atom_type_oxidation_number
Ag1+	1
B3+	3
O2-	-2
Sr2+	2
loop_
_atom_site_label
_atom_site_type_symbol
_atom_site_symmetry_multiplicity
_atom_site_Wyckoff_symbol
_atom_site_fract_x
_atom_site_fract_y
_atom_site_fract_z
_atom_site_occupancy
_atom_site_attached_hydrogens
_atom_site_U_iso_or_equiv
Ag1 Ag1+ 8 f 0.14011(10) 0.59728(5) 0.30167(3) 1. 0 0 
Sr1 Sr2+ 8 f -.00513(10) 0.83476(6) 0.44289(3) 1. 0 0 
O1 O2- 8 f 0.2968(7) 0.6611(4) 0.4474(2) 1. 0 0.0047(8) 
O2 O2- 8 f 0.2618(8) 0.7823(4) 0.1748(2) 1. 0 0.0102(10) 
O3 O2- 8 f 0.0223(8) 0.9000(4) 0.3329(2) 1. 0 0.0107(10) 
O4 O2- 8 f 0.1051(7) 1.0645(4) 0.4317(2) 1. 0 0.0050(9) 
O5 O2- 8 f 0.3465(7) 0.9156(4) 0.4323(2) 1. 0 0.0077(9) 
O6 O2- 8 f -.0393(7) 0.6164(4) 0.4288(2) 1. 0 0.0077(9) 
O7 O2- 8 f 0.6000(7) 0.7703(4) 0.4445(2) 1. 0 0.0038(9) 
O8 O2- 8 f -.1952(7) 0.5284(4) 0.3410(2) 1. 0 0.0067(9) 
O9 O2- 8 f 0.4423(7) 0.6841(4) 0.3520(2) 1. 0 0.0057(9) 
O10 O2- 8 f 0.6942(8) 0.9626(4) 0.4360(2) 1. 0 0.0084(10) 
O11 O2- 4 e 0.5 0.7085(7) 0.25 1. 0 0.013(2) 
O12 O2- 4 e 0 0.7679(6) 0.25 1. 0 0.0076(13) 
O13 O2- 8 f 0.2275(7) 0.9343(4) 0.2488(2) 1. 0 0.0074(9) 
B1 B3+ 8 f -.0090(11) 1.1679(7) 0.4166(3) 1. 0 0.0040(12) 
B2 B3+ 8 f 0.5387(11) 0.8809(6) 0.4363(3) 1. 0 0.0024(13) 
B3 B3+ 8 f 0.1235(11) 0.8448(6) 0.2120(3) 1. 0 0.0046(13) 
B4 B3+ 8 f 0.1510(12) 0.5802(7) 0.4372(3) 1. 0 0.0064(14) 
B5 B3+ 8 f -.2036(12) 0.5367(7) 0.4083(4) 1. 0 0.0090(15) 
B6 B3+ 8 f 0.5641(12) 0.7268(7) 0.3087(3) 1. 0 0.0053(13) 
B7 B3+ 8 f -.3132(12) 0.4541(7) 0.3089(3) 1. 0 0.0089(15) 

loop_
_atom_site_aniso_label
_atom_site_aniso_type_symbol
_atom_site_aniso_U_11
_atom_site_aniso_U_22
_atom_site_aniso_U_33
_atom_site_aniso_U_12
_atom_site_aniso_U_13
_atom_site_aniso_U_23
Ag1 Ag1+ 0.0160(3) 0.0160(3) 0.0167(3) 0.0009(3) 0.0004(2) -.0014(2)
Sr1 Sr2+ 0.0060(3) 0.0055(2) 0.0076(2) 0.0006(3) 0.0007(2) 0.0012(3)
#End of data_406544-ICSD


