data_710063-ICSD
#?2014 by Fachinformationszentrum Karlsruhe, and the U.S. Secretary of 
#Commerce on behalf of the United States.  All rights reserved.
_database_code_ICSD                710063
_audit_creation_date               2011/08/01
_chemical_name_systematic
;
Dipotassium Tricadmium(II) Tetraselenide
;
_chemical_formula_structural       'K2 Cd3 Se4'
_chemical_formula_sum              'Cd3 K2 Se4'
_publ_section_title
;
Refinement of the crystal structure of dipotassium tricadmium(II) 
tetraselenide, K2 Cd3 Se4
;
loop_
_citation_id
_citation_journal_abbrev
_citation_year
_citation_journal_volume
_citation_journal_issue
_citation_page_first
_citation_page_last
_citation_journal_id_ASTM
primary 'Zeitschrift fuer Kristallographie - New Crystal Structures'
 2011 226 2 157 158 ZKNSFT
_publ_author_name
;
Kim Young-Tae;Yun Hoseop;Kim Kang-Woo
;
_cell_length_a                     14.312(4)
_cell_length_b                     10.604(3)
_cell_length_c                     6.839(2)
_cell_angle_alpha                  90.00
_cell_angle_beta                   90.00
_cell_angle_gamma                  90.00
_cell_volume                       1037.92
_cell_formula_units_Z              4
_symmetry_space_group_name_H-M     'P n m a'
_symmetry_Int_Tables_number        62
_refine_ls_R_factor_all            .0268
loop_
_symmetry_equiv_pos_site_id
_symmetry_equiv_pos_as_xyz
  1	'x+.5, y, -z+.5'
  2	'x, -y+.5, z'
  3	'-x+.5, y+.5, z+.5'
  4	'-x, -y, -z'
  5	'-x+.5, -y, z+.5'
  6	'-x, y+.5, -z'
  7	'x+.5, -y+.5, -z+.5'
  8	'x, y, z'
loop_
_atom_type_symbol
_atom_type_oxidation_number
Cd2+	2
K1+	1
Se2-	-2
loop_
_atom_site_label
_atom_site_type_symbol
_atom_site_symmetry_multiplicity
_atom_site_Wyckoff_symbol
_atom_site_fract_x
_atom_site_fract_y
_atom_site_fract_z
_atom_site_occupancy
_atom_site_attached_hydrogens
_atom_site_U_iso_or_equiv
K1 K1+ 4 a 0.5000 0.5000 0.5000 1 0 0.0209(5) 
K2 K1+ 4 c 0.53326(16) 0.2500 -0.0218(3) 1 0 0.0204(5) 
Cd1 Cd2+ 4 c 0.29692(5) 0.2500 0.27103(10) 1 0 0.01323(18) 
Cd2 Cd2+ 8 d 0.24665(3) 0.40651(4) -0.16373(7) 1 0 0.01358(14) 
Se1 Se2- 4 c 0.13853(7) 0.2500 0.06898(14) 1 0 0.0123(2) 
Se2 Se2- 4 c 0.35560(7) 0.2500 0.62923(13) 1 0 0.0127(2) 
Se3 Se2- 8 d 0.36723(5) 0.46791(6) 0.11281(9) 1 0 0.01164(16) 

loop_
_atom_site_aniso_label
_atom_site_aniso_type_symbol
_atom_site_aniso_U_11
_atom_site_aniso_U_22
_atom_site_aniso_U_33
_atom_site_aniso_U_12
_atom_site_aniso_U_13
_atom_site_aniso_U_23
K1 K1+ 0.0200(11) 0.0183(10) 0.0244(11) 0.0023(8) -0.0087(10) -0.0014(9)
K2 K1+ 0.0200(11) 0.0181(10) 0.0231(11) 0.000 -0.0001(10) 0.000
Cd1 Cd2+ 0.0160(4) 0.0130(3) 0.0108(3) 0.000 -0.0015(3) 0.000
Cd2 Cd2+ 0.0149(2) 0.0139(2) 0.0119(2) 0.00139(18) -0.0014(2) 0.00070(18)
Se1 Se2- 0.0109(4) 0.0127(4) 0.0134(5) 0.000 0.0002(4) 0.000
Se2 Se2- 0.0145(5) 0.0141(4) 0.0096(4) 0.000 0.0012(4) 0.000
Se3 Se2- 0.0116(3) 0.0113(3) 0.0121(3) -0.0007(2) 0.0001(3) -0.0014(2)
#End of data_710063-ICSD


