data_73879-ICSD
#?2014 by Fachinformationszentrum Karlsruhe, and the U.S. Secretary of 
#Commerce on behalf of the United States.  All rights reserved.
_database_code_ICSD                73879
_audit_creation_date               1995/01/10
_audit_update_record               2006/04/01
_chemical_name_systematic          'Dialuminium Tris(tungstate)'
_chemical_formula_structural       'Al2 (W O4)3'
_chemical_formula_sum              'Al2 O12 W3'
_publ_section_title
;
The structure and spectroscopic properties of Al2-x Crx (W O4)3 
crystals in orthorhombic and monoclinic phases
;
loop_
_citation_id
_citation_journal_abbrev
_citation_year
_citation_journal_volume
_citation_page_first
_citation_page_last
_citation_journal_id_ASTM
primary 'Journal of Solid State Chemistry' 1993 105 49 69 JSSCBI
_publ_author_name
;
Hanuza, J.;Maczka, M.;Hermanowicz, K.;Andruszkiewicz, M.;Pietraszko, 
A.;Strek, W.;Deren, P.
;
_cell_length_a                     8.962
_cell_length_b                     9.08
_cell_length_c                     12.587
_cell_angle_alpha                  90.
_cell_angle_beta                   90.06
_cell_angle_gamma                  90.
_cell_volume                       1024.27
_cell_formula_units_Z              4
_symmetry_space_group_name_H-M     'P 1 21 1'
_symmetry_Int_Tables_number        4
_refine_ls_R_factor_all            .085
loop_
_symmetry_equiv_pos_site_id
_symmetry_equiv_pos_as_xyz
  1	'-x, y+.5, -z'
  2	'x, y, z'
loop_
_atom_type_symbol
_atom_type_oxidation_number
Al3+	3
O2-	-2
W6+	6
loop_
_atom_site_label
_atom_site_type_symbol
_atom_site_symmetry_multiplicity
_atom_site_Wyckoff_symbol
_atom_site_fract_x
_atom_site_fract_y
_atom_site_fract_z
_atom_site_occupancy
_atom_site_attached_hydrogens
_atom_site_U_iso_or_equiv
W1 W6+ 2 a 0.22199(23) 0.2547(12) 0.75191 1. 0 0.00210(55) 
W2 W6+ 2 a 0.27510(23) 0.7550(12) 0.75098(18) 1. 0 0.00320(55) 
W3 W6+ 2 a 0.14086(27) 0.1215(12) 0.10413(23) 1. 0 0.00445(59) 
W4 W6+ 2 a 0.35427(27) 0.8833(12) 0.39244(22) 1. 0 0.00558(60) 
W5 W6+ 2 a 0.63813(25) 0.1124(12) 0.89404(20) 1. 0 0.00269(56) 
W6 W6+ 2 a 0.84784(24) 0.8752(12) 0.60471(19) 1. 0 0.00210(56) 
Al1 Al3+ 2 a 0.9979(15) 0.4720(20) 0.1369(13) 1. 0 0.0031(25) 
Al2 Al3+ 2 a 0.5034(16) 0.5348(20) 0.3734(14) 1. 0 0.0016(25) 
Al3 Al3+ 2 a 0.5060(15) 0.4738(20) 0.8712(13) 1. 0 0.0031(25) 
Al4 Al3+ 2 a 0.9829(20) 0.5291(23) 0.6452(16) 1. 0 0.0098(29) 
O1 O2- 2 a 0.1293(29) 0.1099(27) 0.8125(23) 1. 0 0.0221(45) 
O2 O2- 2 a 0.0922(38) 0.3827(38) 0.7088(37) 1. 0 0.0537(59) 
O3 O2- 2 a 0.3287(42) 0.1857(46) 0.6482(27) 1. 0 0.0630(60) 
O4 O2- 2 a 0.3382(31) 0.3299(35) 0.8466(22) 1. 0 0.0053(49) 
O5 O2- 2 a 0.1674(38) 0.6284(36) 0.6809(31) 1. 0 0.0336(57) 
O6 O2- 2 a 0.3714(30) 0.8733(30) 0.6684(23) 1. 0 0.0113(46) 
O7 O2- 2 a 0.4034(37) 0.6511(41) 0.8234(33) 1. 0 0.0515(59) 
O8 O2- 2 a 0.1580(27) 0.8458(31) 0.8411(20) 1. 0 0.0101(44) 
O9 O2- 2 a 0.1211(32) 0.3142(20) 0.0999(25) 1. 0 0.0091(45) 
O10 O2- 2 a 0.3336(18) 0.0866(33) 0.1084(25) 1. 0 0.0121(45) 
O11 O2- 2 a 0.0804(29) 0.0595(31) 0.2279(16) 1. 0 0.0211(44) 
O12 O2- 2 a 0.0618(30) 0.0289(31) 0.9990(18) 1. 0 0.0102(44) 
O13 O2- 2 a 0.4645(27) 0.9198(33) 0.2798(17) 1. 0 0.0132(43) 
O14 O2- 2 a 0.4217(30) 0.7057(23) 0.4214(25) 1. 0 0.0213(44) 
O15 O2- 2 a 0.1673(18) 0.8946(33) 0.3657(25) 1. 0 0.0114(45) 
O16 O2- 2 a 0.4071(38) 0.0039(35) 0.4924(23) 1. 0 0.0188(53) 
O17 O2- 2 a 0.8297(18) 0.0936(36) 0.8709(27) 1. 0 0.0160(47) 
O18 O2- 2 a 0.5793(31) 0.9950(29) 0.9933(19) 1. 0 0.0201(44) 
O19 O2- 2 a 0.5507(39) 0.0876(43) 0.7709(19) 1. 0 0.0286(55) 
O20 O2- 2 a 0.6152(46) 0.2967(25) 0.9295(37) 1. 0 0.0528(59) 
O21 O2- 2 a 0.6576(18) 0.9211(33) 0.6001(25) 1. 0 0.0321(44) 
O22 O2- 2 a 0.9418(40) 0.9771(40) 0.5103(28) 1. 0 0.0442(57) 
O23 O2- 2 a 0.9187(38) 0.9314(39) 0.7293(19) 1. 0 0.0188(52) 
O24 O2- 2 a 0.8805(31) 0.6842(21) 0.6014(25) 1. 0 0.0321(45) 

#End of data_73879-ICSD


