data_20198-ICSD
#?2014 by Fachinformationszentrum Karlsruhe, and the U.S. Secretary of 
#Commerce on behalf of the United States.  All rights reserved.
_database_code_ICSD                20198
_audit_creation_date               1980/01/01
_audit_update_record               2012/02/01
_chemical_name_systematic          'Potassium Iodate(V)'
_chemical_formula_structural       'K (I O3)'
_chemical_formula_sum              'I1 K1 O3'
_publ_section_title
;
About the crystal structure of the triclinic modification of 
potassium iodate
;
loop_
_citation_id
_citation_journal_abbrev
_citation_year
_citation_journal_volume
_citation_page_first
_citation_page_last
_citation_journal_id_ASTM
primary 'Doklady Akademii Nauk SSSR' 1978 239 590 593 DANKAS
2 'Koordinatsionnaya Khimiya (= Coordination Chemistry (USSR))'
 1979 5 1549 1557 KOKHDC
_publ_author_name
;
Kalinin, V.P.;Ilyukhin, V.V.;Belov, N.V.
;
_cell_length_a                     7.71(1)
_cell_length_b                     7.701(7)
_cell_length_c                     7.698(6)
_cell_angle_alpha                  109.06(6)
_cell_angle_beta                   109.27(10)
_cell_angle_gamma                  109.29(10)
_cell_volume                       355.25
_cell_formula_units_Z              4
_symmetry_space_group_name_H-M     'P 1'
_symmetry_Int_Tables_number        1
_refine_ls_R_factor_all            .035
loop_
_symmetry_equiv_pos_site_id
_symmetry_equiv_pos_as_xyz
  1	'x, y, z'
loop_
_atom_type_symbol
_atom_type_oxidation_number
I5+	5
K1+	1
O2-	-2
loop_
_atom_site_label
_atom_site_type_symbol
_atom_site_symmetry_multiplicity
_atom_site_Wyckoff_symbol
_atom_site_fract_x
_atom_site_fract_y
_atom_site_fract_z
_atom_site_occupancy
_atom_site_attached_hydrogens
I1 I5+ 1 a 0 0 0 1. 0 
I2 I5+ 1 a -.0132(1) 0.5067(1) 0.5076(1) 1. 0 
I3 I5+ 1 a 0.4936(1) -.0022(1) 0.5092(1) 1. 0 
I4 I5+ 1 a 0.4928(1) 0.4913(1) 0.0163(1) 1. 0 
K1 K1+ 1 a 0.0072(5) 0.0208(5) 0.5116(5) 1. 0 
K2 K1+ 1 a 0.0047(4) 0.5122(4) 0.0179(4) 1. 0 
K3 K1+ 1 a 0.5145(4) 0.0023(5) 0.0211(5) 1. 0 
K4 K1+ 1 a 0.4965(4) 0.5084(4) 0.5292(5) 1. 0 
O1 O2- 1 a 0.079(1) -.152(2) -.154(2) 1. 0 
O2 O2- 1 a 0.793(1) -.199(1) -.007(2) 1. 0 
O3 O2- 1 a 0.845(1) 0.046(2) -.192(1) 1. 0 
O4 O2- 1 a -.007(1) 0.303(1) 0.317(1) 1. 0 
O5 O2- 1 a 0.791(1) 0.343(1) 0.539(2) 1. 0 
O6 O2- 1 a 0.841(2) 0.586(1) 0.341(2) 1. 0 
O7 O2- 1 a 0.533(2) -.156(1) 0.309(1) 1. 0 
O8 O2- 1 a 0.342(1) -.203(1) 0.548(2) 1. 0 
O9 O2- 1 a 0.287(1) 0.024(2) 0.346(1) 1. 0 
O10 O2- 1 a 0.345(1) 0.339(1) 0.095(1) 1. 0 
O11 O2- 1 a 0.286(1) 0.485(1) -.188(1) 1. 0 
O12 O2- 1 a 0.528(2) 0.297(1) -.149(1) 1. 0 

#End of data_20198-ICSD


