data_62413-ICSD
#?2014 by Fachinformationszentrum Karlsruhe, and the U.S. Secretary of 
#Commerce on behalf of the United States.  All rights reserved.
_database_code_ICSD                62413
_audit_creation_date               1988/12/19
_audit_update_record               2007/08/01
_chemical_name_systematic
;
Calcium Iron(III) Diiron Bis(silicate) Hydroxide
;
_chemical_formula_structural       'Ca Fe3 (Si O4)2 (O H)'
_chemical_formula_sum              'H1 Ca1 Fe3 O9 Si2'
_chemical_name_mineral             Ilvaite
_publ_section_title
;
Crystal structure of monoclinic ilvaite and the nature of the 
monoclinic-orthorhombic transition at high pressure
;
loop_
_citation_id
_citation_journal_abbrev
_citation_year
_citation_journal_volume
_citation_page_first
_citation_page_last
_citation_journal_id_ASTM
primary 'Zeitschrift fuer Kristallographie (1979-2010)' 1987 179 415 430 ZEKRDZ
_publ_author_name                  'Finger, L.W.;Hazen, R.M.'
_cell_length_a                     13.0056(6)
_cell_length_b                     8.7976(5)
_cell_length_c                     5.8539(5)
_cell_angle_alpha                  90.
_cell_angle_beta                   90.105(6)
_cell_angle_gamma                  90.
_cell_volume                       669.79
_cell_formula_units_Z              4
_symmetry_space_group_name_H-M     'P 1 21/a 1'
_symmetry_Int_Tables_number        14
_refine_ls_R_factor_all            .041
loop_
_symmetry_equiv_pos_site_id
_symmetry_equiv_pos_as_xyz
  1	'x+.5, -y+.5, z'
  2	'-x, -y, -z'
  3	'-x+.5, y+.5, -z'
  4	'x, y, z'
loop_
_atom_type_symbol
_atom_type_oxidation_number
Ca2+	2
Fe2.33+	2.33
H1+	1
O2-	-2
Si4+	4
loop_
_atom_site_label
_atom_site_type_symbol
_atom_site_symmetry_multiplicity
_atom_site_Wyckoff_symbol
_atom_site_fract_x
_atom_site_fract_y
_atom_site_fract_z
_atom_site_occupancy
_atom_site_attached_hydrogens
_atom_site_B_iso_or_equiv
Fe1 Fe2.33+ 4 e 0.89012(5) 0.05043(7) 0.00783(10) 1. 0 0 
Fe2 Fe2.33+ 4 e 0.89007(5) 0.05136(7) 0.4922(1) 1. 0 0 
Fe3 Fe2.33+ 4 e 0.94103(4) 0.74039(7) 0.2494(1) 1. 0 0 
Ca1 Ca2+ 4 e 0.81271(6) 0.37021(9) 0.7512(2) 1. 0 0 
Si1 Si4+ 4 e 0.95961(9) 0.3690(1) 0.2496(2) 1. 0 0 
Si2 Si4+ 4 e 0.67938(9) 0.2272(1) 0.2508(2) 1. 0 0 
O1 O2- 4 e 0.0097(2) 0.0300(3) 0.7453(5) 1. 0 0 
O2 O2- 4 e 0.9367(2) 0.2723(4) 0.0172(5) 1. 0 0 
O3 O2- 4 e 0.9360(2) 0.2727(4) 0.4823(5) 1. 0 0 
O4 O2- 4 e 0.7776(2) 0.1095(4) 0.2527(5) 1. 0 0 
O5 O2- 4 e 0.6707(2) 0.3293(4) 0.0190(5) 1. 0 0 
O6 O2- 4 e 0.6708(2) 0.3301(4) 0.4818(5) 1. 0 0 
O7 O2- 4 e 0.5852(2) 0.1009(3) 0.2509(5) 1. 0 0 
O8 O2- 4 e 0.6013(2) 0.0260(3) 0.7511(5) 1. 0 0 
O9 O2- 4 e 0.7979(3) 0.1092(4) 0.7478(5) 1. 0 0 
H1 H1+ 4 e 0.740(5) 0.068(7) 0.756(12) 1. 0 0.10(13) 

#End of data_62413-ICSD


