data_604340-ICSD
#?2014 by Fachinformationszentrum Karlsruhe, and the U.S. Secretary of 
#Commerce on behalf of the United States.  All rights reserved.
_database_code_ICSD                604340
_audit_creation_date               2013/02/01
_chemical_name_systematic          'Potassium Chromium Sulfide (1/3/5)'
_chemical_formula_structural       'K Cr3 S5'
_chemical_formula_sum              'Cr3 K1 S5'
_publ_section_title
;
Zur Kenntnis der Kaliumthiochromite
;
loop_
_citation_id
_citation_journal_abbrev
_citation_year
_citation_journal_volume
_citation_page_first
_citation_page_last
_citation_journal_id_ASTM
primary 'Monatshefte fuer Chemie' 1984 115 975 985 MOCMB7
_publ_author_name                  'Quint, R.;Boller, H.;Blaha, H.'
_cell_length_a                     19.16
_cell_length_b                     3.49
_cell_length_c                     12.02
_cell_angle_alpha                  90.0
_cell_angle_beta                   123.0
_cell_angle_gamma                  90.0
_cell_volume                       674.09
_cell_formula_units_Z              4
_symmetry_space_group_name_H-M     'C 1 2/m 1'
_symmetry_Int_Tables_number        12
loop_
_symmetry_equiv_pos_site_id
_symmetry_equiv_pos_as_xyz
  1	'-x, y, -z'
  2	'-x, -y, -z'
  3	'x, -y, z'
  4	'x, y, z'
  5	'-x+.5, y+.5, -z'
  6	'-x+.5, -y+.5, -z'
  7	'x+.5, -y+.5, z'
  8	'x+.5, y+.5, z'
loop_
_atom_type_symbol
_atom_type_oxidation_number
Cr3+	3
K1+	1
S2-	-2
loop_
_atom_site_label
_atom_site_type_symbol
_atom_site_symmetry_multiplicity
_atom_site_Wyckoff_symbol
_atom_site_fract_x
_atom_site_fract_y
_atom_site_fract_z
_atom_site_occupancy
_atom_site_attached_hydrogens
K1 K1+ 4 i 0.260 0 0.169 1. 0 
Cr1 Cr3+ 2 b 0 0.5 0 1. 0 
Cr2 Cr3+ 2 d 0 0.5 0.5 1. 0 
Cr3 Cr3+ 4 i 0.165 0 0.389 1. 0 
Cr4 Cr3+ 4 i -.013 0 0.229 1. 0 
S1 S2- 4 i 0.078 0 0.151 1. 0 
S2 S2- 4 i -.092 0.5 0.080 1. 0 
S3 S2- 4 i 0.076 0.5 0.394 1. 0 
S4 S2- 4 i 0.246 0.5 0.379 1. 0 
S5 S2- 4 i -.082 0 0.346 1. 0 

#End of data_604340-ICSD


