data_172768-ICSD
#?2014 by Fachinformationszentrum Karlsruhe, and the U.S. Secretary of 
#Commerce on behalf of the United States.  All rights reserved.
_database_code_ICSD                172768
_audit_creation_date               2007/08/01
_chemical_name_systematic          'Dilanthanum Barium Zinc Pentaoxide'
_chemical_formula_structural       'La2 Ba Zn O5'
_chemical_formula_sum              'Ba1 La2 O5 Zn1'
_publ_section_title
;
Crystal chemistry study of the solid solutions in the system La2 Ba 
Zn O5-Eu2 Ba Zn O5
;
loop_
_citation_id
_citation_journal_abbrev
_citation_year
_citation_journal_volume
_citation_journal_issue
_citation_page_first
_citation_page_last
_citation_journal_id_ASTM
primary 'Zeitschrift fuer Kristallographie (1979-2010)' 2006 221 4 246 251 ZEKRDZ
_publ_author_name
;
Hernandez-Perez, A.;Bucio, L.;Ibarra-Palos, A.;Villafuerte Castrejon, 
M.E.
;
_cell_length_a                     6.9148(1)
_cell_length_b                     6.9148(1)
_cell_length_c                     11.5989(1)
_cell_angle_alpha                  90.
_cell_angle_beta                   90.
_cell_angle_gamma                  90.
_cell_volume                       554.6
_cell_formula_units_Z              4
_symmetry_space_group_name_H-M     'I 4/m c m'
_symmetry_Int_Tables_number        140
_refine_ls_R_factor_all            .111
loop_
_symmetry_equiv_pos_site_id
_symmetry_equiv_pos_as_xyz
  1	'y, x, -z+.5'
  2	'-y, -x, -z+.5'
  3	'-y, x, -z'
  4	'y, -x, -z'
  5	'x, -y, -z+.5'
  6	'-x, y, -z+.5'
  7	'x, y, -z'
  8	'-x, -y, -z'
  9	'-y, -x, z+.5'
 10	'y, x, z+.5'
 11	'y, -x, z'
 12	'-y, x, z'
 13	'-x, y, z+.5'
 14	'x, -y, z+.5'
 15	'-x, -y, z'
 16	'x, y, z'
 17	'y+.5, x+.5, -z'
 18	'-y+.5, -x+.5, -z'
 19	'-y+.5, x+.5, -z+.5'
 20	'y+.5, -x+.5, -z+.5'
 21	'x+.5, -y+.5, -z'
 22	'-x+.5, y+.5, -z'
 23	'x+.5, y+.5, -z+.5'
 24	'-x+.5, -y+.5, -z+.5'
 25	'-y+.5, -x+.5, z'
 26	'y+.5, x+.5, z'
 27	'y+.5, -x+.5, z+.5'
 28	'-y+.5, x+.5, z+.5'
 29	'-x+.5, y+.5, z'
 30	'x+.5, -y+.5, z'
 31	'-x+.5, -y+.5, z+.5'
 32	'x+.5, y+.5, z+.5'
loop_
_atom_type_symbol
_atom_type_oxidation_number
Ba2+	2
La3+	3
O2-	-2
Zn2+	2
loop_
_atom_site_label
_atom_site_type_symbol
_atom_site_symmetry_multiplicity
_atom_site_Wyckoff_symbol
_atom_site_fract_x
_atom_site_fract_y
_atom_site_fract_z
_atom_site_occupancy
_atom_site_attached_hydrogens
_atom_site_B_iso_or_equiv
La1 La3+ 8 h 0.1739(1) 0.6739(1) 0 1. 0 .62(3) 
Ba1 Ba2+ 4 a 0 0 0.25 1. 0 .90(4) 
Zn1 Zn2+ 4 b 0 0.5 0.25 1. 0 .60(8) 
O1 O2- 4 c 0 0 0 1. 0 2.0(1) 
O2 O2- 16 l 0.3563(10) 0.8562(10) 0.1319(6) 1. 0 2.0(1) 

#End of data_172768-ICSD


