data_9672-ICSD
#?2014 by Fachinformationszentrum Karlsruhe, and the U.S. Secretary of 
#Commerce on behalf of the United States.  All rights reserved.
_database_code_ICSD                9672
_audit_creation_date               1980/01/01
_audit_update_record               2012/02/01
_chemical_name_systematic          'Calcium Magnesium Catena-silicate'
_chemical_formula_structural       'Ca Mg Si2 O6'
_chemical_formula_sum              'Ca1 Mg1 O6 Si2'
_chemical_name_mineral             Diopside
_publ_section_title
;
Crystal-Chemical Characterization of Clinopyroxenes based on Eight 
New Structure Refinements
;
loop_
_citation_id
_citation_journal_abbrev
_citation_year
_citation_journal_volume
_citation_page_first
_citation_page_last
_citation_journal_id_ASTM
primary 'Mineralogical Society of America: Special Papers'
 1969 2 31 50 MSAPAX
2 'American Mineralogist' 1973 58 594 618 AMMIAY
_publ_author_name
;
Clark, J.R.;Appleman, D.E.;Papike, J.J.
;
_cell_length_a                     9.746(4)
_cell_length_b                     8.899(5)
_cell_length_c                     5.251(6)
_cell_angle_alpha                  90.
_cell_angle_beta                   105.63(6)
_cell_angle_gamma                  90.
_cell_volume                       438.58
_cell_formula_units_Z              4
_symmetry_space_group_name_H-M     'C 1 2/c 1'
_symmetry_Int_Tables_number        15
_refine_ls_R_factor_all            .023
loop_
_symmetry_equiv_pos_site_id
_symmetry_equiv_pos_as_xyz
  1	'x, -y, z+.5'
  2	'-x, -y, -z'
  3	'-x, y, -z+.5'
  4	'x, y, z'
  5	'x+.5, -y+.5, z+.5'
  6	'-x+.5, -y+.5, -z'
  7	'-x+.5, y+.5, -z+.5'
  8	'x+.5, y+.5, z'
loop_
_atom_type_symbol
_atom_type_oxidation_number
Ca2+	2
Mg2+	2
O2-	-2
Si4+	4
loop_
_atom_site_label
_atom_site_type_symbol
_atom_site_symmetry_multiplicity
_atom_site_Wyckoff_symbol
_atom_site_fract_x
_atom_site_fract_y
_atom_site_fract_z
_atom_site_occupancy
_atom_site_attached_hydrogens
Ca1 Ca2+ 4 e 0 0.30154(5) 0.25 1. 0 
Mg1 Mg2+ 4 e 0 0.90823(9) 0.25 1. 0 
Si1 Si4+ 8 f 0.28623(5) 0.09331(5) 0.22928(9) 1. 0 
O1 O2- 8 f 0.1156(1) 0.0873(1) 0.1422(2) 1. 0 
O2 O2- 8 f 0.3611(1) 0.2500(1) 0.3180(3) 1. 0 
O3 O2- 8 f 0.3505(1) 0.0176(1) -.0047(2) 1. 0 

#End of data_9672-ICSD


