data_412140-ICSD
#?2014 by Fachinformationszentrum Karlsruhe, and the U.S. Secretary of 
#Commerce on behalf of the United States.  All rights reserved.
_database_code_ICSD                412140
_audit_creation_date               2004/04/01
_audit_update_record               2005/04/01
_chemical_name_systematic          'Tricesium Alumodigermanate'
_chemical_formula_structural       'Cs3 (Al Ge2 O7)'
_chemical_formula_sum              'Al1 Cs3 Ge2 O7'
_publ_section_title
;
Neue Oxogermanate(IV) der schweren Alkalimetalle. Synthese und 
Kristallstrukturen
;
loop_
_citation_id
_citation_journal_abbrev
_citation_year
_citation_journal_volume
_citation_page_first
_citation_page_last
_citation_journal_id_ASTM
primary 'Zeitschrift fuer Naturforschung, B: Chemical Sciences'
 2001 56 1245 1256 ZNBSEN
_publ_author_name                  'Hoch, C.;Roehr, C.'
_cell_length_a                     9.6152(17)
_cell_length_b                     17.197(2)
_cell_length_c                     7.6170(9)
_cell_angle_alpha                  90.
_cell_angle_beta                   126.51(12)
_cell_angle_gamma                  90.
_cell_volume                       1012.32
_cell_formula_units_Z              4
_symmetry_space_group_name_H-M     'C 1 2/c 1'
_symmetry_Int_Tables_number        15
_refine_ls_R_factor_all            .0495
loop_
_symmetry_equiv_pos_site_id
_symmetry_equiv_pos_as_xyz
  1	'x, -y, z+.5'
  2	'-x, -y, -z'
  3	'-x, y, -z+.5'
  4	'x, y, z'
  5	'x+.5, -y+.5, z+.5'
  6	'-x+.5, -y+.5, -z'
  7	'-x+.5, y+.5, -z+.5'
  8	'x+.5, y+.5, z'
loop_
_atom_type_symbol
_atom_type_oxidation_number
Al3+	3
Cs1+	1
Ge4+	4
O2-	-2
loop_
_atom_site_label
_atom_site_type_symbol
_atom_site_symmetry_multiplicity
_atom_site_Wyckoff_symbol
_atom_site_fract_x
_atom_site_fract_y
_atom_site_fract_z
_atom_site_occupancy
_atom_site_attached_hydrogens
_atom_site_U_iso_or_equiv
Cs1 Cs1+ 4 e 0 0.01144(6) 0.25 1. 0 0.0194(2) 
Cs2 Cs1+ 8 f 0.29028(7) 0.30406(4) 0.27346(10) 1. 0 0.0201(2) 
Ge1 Ge4+ 8 f 0.33821(11) 0.09933(6) 0.26156(14) 1. 0 0.0091(2) 
Al1 Al3+ 4 e 0 0.4420(2) 0.25 1. 0 0.0101(7) 
O1 O2- 8 f 0.1584(8) 0.4987(4) 0.2661(11) 1. 0 0.0126(12) 
O2 O2- 8 f 0.0998(9) 0.3794(4) 0.4754(11) 1. 0 0.0157(13) 
O3 O2- 8 f 0.1403(8) 0.1368(4) 0.0637(12) 1. 0 0.0204(14) 
O4 O2- 4 e 0 0.6443(6) 0.25 1. 0 0.0173(19) 

loop_
_atom_site_aniso_label
_atom_site_aniso_type_symbol
_atom_site_aniso_U_11
_atom_site_aniso_U_22
_atom_site_aniso_U_33
_atom_site_aniso_U_12
_atom_site_aniso_U_13
_atom_site_aniso_U_23
Cs1 Cs1+ 0.0133(4) 0.0306(5) 0.0113(4) 0 0.0055(3) 0
Cs2 Cs1+ 0.0139(3) 0.0227(3) 0.0184(3) -0.0001(2) 0.0067(2) -0.0016(2)
Ge1 Ge4+ 0.0062(4) 0.0138(4) 0.0046(4) 0.0012(3) 0.0017(3) 0.0004(3)
Al1 Al3+ 0.0064(14) 0.0141(18) 0.0076(15) 0 0.0030(13) 0
O1 O2- 0.013(3) 0.011(3) 0.015(3) 0.003(2) 0.009(3) 0.003(2)
O2 O2- 0.019(3) 0.018(3) 0.010(3) 0.003(3) 0.008(2) 0.001(2)
O3 O2- 0.010(3) 0.025(4) 0.016(3) 0.008(3) 0.002(3) 0.005(3)
O4 O2- 0.019(4) 0.018(5) 0.026(5) 0 0.019(4) 0
#End of data_412140-ICSD


