data_410579-ICSD
#?2014 by Fachinformationszentrum Karlsruhe, and the U.S. Secretary of 
#Commerce on behalf of the United States.  All rights reserved.
_database_code_ICSD                410579
_audit_creation_date               1999/11/30
_chemical_name_systematic          'Tricalcium Trinitridoaluminate'
_chemical_formula_structural       'Ca3 (Al N3)'
_chemical_formula_sum              'Al1 Ca3 N3'
_publ_section_title
;
Dimers (Al2 N6)12- and chains (Al (N3-)4/2) in the crystal structures 
of Ca3 (Al N3) and Ba3 (Al2 N4)
;
loop_
_citation_id
_citation_journal_abbrev
_citation_year
_citation_journal_volume
_citation_page_first
_citation_page_last
_citation_journal_id_ASTM
primary 'Zeitschrift fuer Naturforschung, B: Chemical Sciences'
 1999 54 461 465 ZNBSEN
_publ_author_name                  'Ludwig, M.;Niewa, R.;Kniep, R.'
_cell_length_a                     6.937(3)
_cell_length_b                     6.149(3)
_cell_length_c                     9.871(5)
_cell_angle_alpha                  90.
_cell_angle_beta                   94.01(3)
_cell_angle_gamma                  90.
_cell_volume                       420.02
_cell_formula_units_Z              4
_symmetry_space_group_name_H-M     'P 1 21/c 1'
_symmetry_Int_Tables_number        14
_refine_ls_R_factor_all            .0349
loop_
_symmetry_equiv_pos_site_id
_symmetry_equiv_pos_as_xyz
  1	'x, -y+.5, z+.5'
  2	'-x, -y, -z'
  3	'-x, y+.5, -z+.5'
  4	'x, y, z'
loop_
_atom_type_symbol
_atom_type_oxidation_number
Al3+	3
Ca2+	2
N3-	-3
loop_
_atom_site_label
_atom_site_type_symbol
_atom_site_symmetry_multiplicity
_atom_site_Wyckoff_symbol
_atom_site_fract_x
_atom_site_fract_y
_atom_site_fract_z
_atom_site_occupancy
_atom_site_attached_hydrogens
Ca1 Ca2+ 4 e 0.07648(8) 0.14284(9) 0.14811(5) 1. 0 
Ca2 Ca2+ 4 e 0.37549(8) 0.28850(9) 0.42447(5) 1. 0 
Ca3 Ca2+ 4 e 0.64940(8) 0.28091(9) 0.19630(5) 1. 0 
Al1 Al3+ 4 e 0.83899(11) 0.09109(13) 0.44088(7) 1. 0 
N1 N3- 4 e 0.1009(3) 0.0381(4) 0.3811(2) 1. 0 
N2 N3- 4 e 0.7428(3) 0.1239(4) 0.9729(2) 1. 0 
N3 N3- 4 e 0.3438(3) 0.0674(4) 0.6725(2) 1. 0 

loop_
_atom_site_aniso_label
_atom_site_aniso_type_symbol
_atom_site_aniso_U_11
_atom_site_aniso_U_22
_atom_site_aniso_U_33
_atom_site_aniso_U_12
_atom_site_aniso_U_13
_atom_site_aniso_U_23
Ca1 Ca2+ 0.0196(3) 0.0165(3) 0.0199(3) 0.0017(2) 0.0022(2) 0.00102(19)
Ca2 Ca2+ 0.0189(3) 0.0163(3) 0.0235(3) -.0018(2) 0.0027(2) -.00128(19)
Ca3 Ca2+ 0.0174(3) 0.0164(3) 0.0219(3) 0.0007(2) 0.0025(2) 0.0016(2)
Al1 Al3+ 0.0131(4) 0.0117(4) 0.0159(3) -.0001(3) 0.0015(3) 0.0000(3)
N1 N3- 0.0176(10) 0.0169(11) 0.0194(10) -.0007(9) 0.0011(8) 0.0004(8)
N2 N3- 0.0194(11) 0.0154(11) 0.022(1) -.0004(9) 0.0041(9) -.0008(8)
N3 N3- 0.0182(11) 0.0172(11) 0.0232(11) -.0009(9) -.0013(9) -.0026(9)
#End of data_410579-ICSD


