data_6059-ICSD
#?2014 by Fachinformationszentrum Karlsruhe, and the U.S. Secretary of 
#Commerce on behalf of the United States.  All rights reserved.
_database_code_ICSD                6059
_audit_creation_date               1980/01/01
_chemical_name_systematic
;
Potassium Pentachloroantimonate(III)
;
_chemical_formula_structural       'K2 Sb Cl5'
_chemical_formula_sum              'Cl5 K2 Sb1'
_publ_section_title
;
Crystal Structure of Potassium Pentachloroantimonate(III)
;
loop_
_citation_id
_citation_journal_abbrev
_citation_year
_citation_journal_volume
_citation_page_first
_citation_page_last
_citation_journal_id_ASTM
primary 'Inorganic Chemistry' 1974 13 1678 1680 INOCAJ
_publ_author_name                  'Wismer, R.K.;Jacobson, R.A.'
_cell_length_a                     8.8686(7)
_cell_length_b                     12.4577(13)
_cell_length_c                     8.9280(13)
_cell_angle_alpha                  90.
_cell_angle_beta                   110.512(11)
_cell_angle_gamma                  90.
_cell_volume                       923.85
_cell_formula_units_Z              4
_symmetry_space_group_name_H-M     'P 1 21/c 1'
_symmetry_Int_Tables_number        14
_refine_ls_R_factor_all            .055
loop_
_symmetry_equiv_pos_site_id
_symmetry_equiv_pos_as_xyz
  1	'x, -y+.5, z+.5'
  2	'-x, -y, -z'
  3	'-x, y+.5, -z+.5'
  4	'x, y, z'
loop_
_atom_type_symbol
_atom_type_oxidation_number
Cl1-	-1
K1+	1
Sb3+	3
loop_
_atom_site_label
_atom_site_type_symbol
_atom_site_symmetry_multiplicity
_atom_site_Wyckoff_symbol
_atom_site_fract_x
_atom_site_fract_y
_atom_site_fract_z
_atom_site_occupancy
_atom_site_attached_hydrogens
Sb1 Sb3+ 4 e 0.1836(1) -.0068(1) 0.2025(1) 1. 0 
Cl1 Cl1- 4 e 0.2414(3) 0.0959(2) 0.0510(3) 1. 0 
Cl2 Cl1- 4 e -.0097(3) 0.1519(2) 0.2070(3) 1. 0 
Cl3 Cl1- 4 e 0.4157(3) -.1400(2) 0.2121(3) 1. 0 
Cl4 Cl1- 4 e 0.3885(3) 0.1137(2) 0.3563(3) 1. 0 
Cl5 Cl1- 4 e 0.1706(3) -.0770(2) 0.4611(3) 1. 0 
K1 K1+ 4 e 0.1853(3) 0.1746(2) 0.5939(3) 1. 0 
K2 K1+ 4 e 0.3742(3) -.1285(2) 0.8452(2) 1. 0 

#End of data_6059-ICSD


