data_36518-ICSD
#?2014 by Fachinformationszentrum Karlsruhe, and the U.S. Secretary of 
#Commerce on behalf of the United States.  All rights reserved.
_database_code_ICSD                36518
_audit_creation_date               1992/08/20
_audit_update_record               2010/02/01
_chemical_name_systematic          'Sodium Hexachloroniobate'
_chemical_formula_structural       'Na (Nb Cl6)'
_chemical_formula_sum              'Cl6 Na1 Nb1'
_publ_section_title
;
Zur kristallchemischen Einordnung von Na Sb Cl6, Na Nb Cl6 und Na Ta 
Cl6
;
loop_
_citation_id
_citation_journal_abbrev
_citation_year
_citation_journal_volume
_citation_page_first
_citation_page_last
_citation_journal_id_ASTM
primary 'Zeitschrift fuer Kristallographie (1979-2010)' 1992 198 1 16 ZEKRDZ
2 'Phase Transition' 1992 38 127 220 PHTRDP
_publ_author_name                  'Henke, H.'
_cell_length_a                     6.398(2)
_cell_length_b                     6.850(2)
_cell_length_c                     19.012(6)
_cell_angle_alpha                  90.
_cell_angle_beta                   90.72(2)
_cell_angle_gamma                  90.
_cell_volume                       833.16
_cell_formula_units_Z              4
_symmetry_space_group_name_H-M     'P 1 21/c 1'
_symmetry_Int_Tables_number        14
_refine_ls_R_factor_all            .018
loop_
_symmetry_equiv_pos_site_id
_symmetry_equiv_pos_as_xyz
  1	'x, -y+.5, z+.5'
  2	'-x, -y, -z'
  3	'-x, y+.5, -z+.5'
  4	'x, y, z'
loop_
_atom_type_symbol
_atom_type_oxidation_number
Cl1-	-1
Na1+	1
Nb5+	5
loop_
_atom_site_label
_atom_site_type_symbol
_atom_site_symmetry_multiplicity
_atom_site_Wyckoff_symbol
_atom_site_fract_x
_atom_site_fract_y
_atom_site_fract_z
_atom_site_occupancy
_atom_site_attached_hydrogens
Nb1 Nb5+ 4 e 0.25649(2) 0.21685(3) 0.11204(1) 1. 0 
Cl1 Cl1- 4 e 0.37626(8) 0.18638(8) 0.23592(3) 1. 0 
Cl2 Cl1- 4 e 0.54836(8) 0.39781(9) 0.09008(3) 1. 0 
Cl3 Cl1- 4 e 0.07698(8) 0.50488(7) 0.15244(3) 1. 0 
Cl4 Cl1- 4 e 0.11166(9) 0.25204(9) 0.00427(3) 1. 0 
Cl5 Cl1- 4 e -.04530(7) 0.03729(7) 0.15308(3) 1. 0 
Cl6 Cl1- 4 e 0.41267(9) -.07678(8) 0.08983(3) 1. 0 
Na1 Na1+ 4 e 0.7909(1) 0.3068(1) 0.24880(6) 1. 0 

loop_
_atom_site_aniso_label
_atom_site_aniso_type_symbol
_atom_site_aniso_U_11
_atom_site_aniso_U_22
_atom_site_aniso_U_33
_atom_site_aniso_U_12
_atom_site_aniso_U_13
_atom_site_aniso_U_23
Nb1 Nb5+ 0.0276(1) 0.0233(1) 0.0249(1) -0.0001(1) 0.0012(1) 0.0010(1)
Cl1 Cl1- 0.0421(3) 0.0389(3) 0.0304(2) -0.0066(2) -0.0092(2) 0.0055(2)
Cl2 Cl1- 0.0351(3) 0.0457(3) 0.0560(4) -0.0108(2) 0.0049(2) 0.0107(3)
Cl3 Cl1- 0.0423(3) 0.0256(2) 0.0396(3) 0.0054(2) 0.0014(2) -0.0034(2)
Cl4 Cl1- 0.0598(3) 0.0468(4) 0.0281(2) -0.0001(3) -0.0089(2) 0.0011(2)
Cl5 Cl1- 0.0298(2) 0.0309(3) 0.0387(3) -0.0067(2) 0.0035(2) -0.0015(2)
Cl6 Cl1- 0.0494(3) 0.0312(3) 0.0571(4) 0.0108(2) 0.0113(3) -0.0033(3)
Na1 Na1+ 0.0469(5) 0.0412(6) 0.0664(7) 0.0009(4) 0.0061(5) -0.0122(5)
#End of data_36518-ICSD


