data_100339-ICSD
#?2014 by Fachinformationszentrum Karlsruhe, and the U.S. Secretary of 
#Commerce on behalf of the United States.  All rights reserved.
_database_code_ICSD                100339
_audit_creation_date               1980/12/31
_audit_update_record               2007/08/01
_chemical_name_systematic
;
Calcium Tetraantimony Tetraoxide Dihydroxide Bis(sulfate(VI)) 
Dihydrate
;
_chemical_formula_structural       'Ca Sb4 O4 (O H)2 (S O4)2 (H2 O)2'
_chemical_formula_sum              'H6 Ca1 O16 S2 Sb4'
_chemical_name_mineral             Peretaite
_publ_section_title
;
Pretaite, Ca Sb4 O4 (O H)2 (S O4)2 (H2 O)2: its atomic arrangement 
and twinning
;
loop_
_citation_id
_citation_journal_abbrev
_citation_year
_citation_journal_volume
_citation_page_first
_citation_page_last
_citation_journal_id_ASTM
primary 'American Mineralogist' 1980 65 940 946 AMMIAY
2 'American Mineralogist' 1980 65 936 939 AMMIAY
_publ_author_name                  'Menchetti, S.;Sabelli, C.'
_cell_length_a                     24.6650(40)
_cell_length_b                     5.6006(9)
_cell_length_c                     10.185(1)
_cell_angle_alpha                  90.
_cell_angle_beta                   95.98(1)
_cell_angle_gamma                  90.
_cell_volume                       1399.29
_cell_formula_units_Z              4
_symmetry_space_group_name_H-M     'C 1 2/c 1'
_symmetry_Int_Tables_number        15
_refine_ls_R_factor_all            .037
loop_
_symmetry_equiv_pos_site_id
_symmetry_equiv_pos_as_xyz
  1	'x, -y, z+.5'
  2	'-x, -y, -z'
  3	'-x, y, -z+.5'
  4	'x, y, z'
  5	'x+.5, -y+.5, z+.5'
  6	'-x+.5, -y+.5, -z'
  7	'-x+.5, y+.5, -z+.5'
  8	'x+.5, y+.5, z'
loop_
_atom_type_symbol
_atom_type_oxidation_number
Ca2+	2
H1+	1
O2-	-2
S6+	6
Sb3+	3
loop_
_atom_site_label
_atom_site_type_symbol
_atom_site_symmetry_multiplicity
_atom_site_Wyckoff_symbol
_atom_site_fract_x
_atom_site_fract_y
_atom_site_fract_z
_atom_site_occupancy
_atom_site_attached_hydrogens
_atom_site_B_iso_or_equiv
Sb1 Sb3+ 8 f 0.29249(2) 0.50504(7) 0.51525(4) 1. 0 0 
Sb2 Sb3+ 8 f 0.31537(2) 0.05196(6) 0.26706(4) 1. 0 0 
Ca1 Ca2+ 4 e 0.5 0.1856(3) 0.25 1. 0 0 
S1 S6+ 8 f 0.4201(1) -.0163(2) 0.5184(1) 1. 0 0 
O1 O2- 8 f 0.3600(2) 0.0049(9) 0.5276(5) 1. 0 0 
O2 O2- 8 f 0.4296(2) 0.0463(8) 0.3829(4) 1. 0 0 
O3 O2- 8 f 0.4511(2) 0.1391(8) 0.6159(4) 1. 0 0 
O4 O2- 8 f 0.4378(2) -.2635(7) 0.5487(4) 1. 0 0 
O5 O2- 8 f 0.4446(2) 0.5206(7) 0.3043(4) 1. 0 0 
O6 O2- 8 f 0.2609(2) 0.1778(7) 0.3871(4) 1. 0 0 
O7 O2- 8 f 0.2625(2) 0.1787(6) 0.1146(4) 1. 0 0 
O8 O2- 8 f 0.3394(2) 0.3860(7) 0.2667(4) 1. 0 0 
H1 H1+ 8 f 0.45 0.6 0.21 1. 0 4. 
H2 H1+ 8 f 0.45 0.66 0.38 1. 0 4. 
H3 H1+ 8 f 0.382 0.42 0.285 1. 0 4. 

#End of data_100339-ICSD


