data_152281-ICSD
#?2014 by Fachinformationszentrum Karlsruhe, and the U.S. Secretary of 
#Commerce on behalf of the United States.  All rights reserved.
_database_code_ICSD                152281
_audit_creation_date               2006/10/01
_audit_update_record               2013/08/01
_chemical_name_systematic          'Dibismuth Zincodiborate'
_chemical_formula_structural       'Bi2 (Zn B2 O7)'
_chemical_formula_sum              'B2 Bi2 O7 Zn1'
_publ_section_title
;
Melilite-type borates Bi2 Zn B2 O7 and Ca Bi Ga B2 O7
;
loop_
_citation_id
_citation_journal_abbrev
_citation_year
_citation_journal_volume
_citation_page_first
_citation_page_last
_citation_journal_id_ASTM
primary 'Chemistry of Materials' 2005 17 3130 3136 CMATEX
_publ_author_name
;
Barbier, J.;Penin, N.;Cranswick, L.M.D.
;
_cell_length_a                     10.8268(4)
_cell_length_b                     11.0329(4)
_cell_length_c                     4.8848(2)
_cell_angle_alpha                  90.
_cell_angle_beta                   90.
_cell_angle_gamma                  90.
_cell_volume                       583.49
_cell_formula_units_Z              4
_symmetry_space_group_name_H-M     'P b a 2'
_symmetry_Int_Tables_number        32
_refine_ls_R_factor_all            .028
loop_
_symmetry_equiv_pos_site_id
_symmetry_equiv_pos_as_xyz
  1	'x+.5, -y+.5, z'
  2	'-x+.5, y+.5, z'
  3	'-x, -y, z'
  4	'x, y, z'
loop_
_atom_type_symbol
_atom_type_oxidation_number
B3+	3
Bi3+	3
O2-	-2
Zn2+	2
loop_
_atom_site_label
_atom_site_type_symbol
_atom_site_symmetry_multiplicity
_atom_site_Wyckoff_symbol
_atom_site_fract_x
_atom_site_fract_y
_atom_site_fract_z
_atom_site_occupancy
_atom_site_attached_hydrogens
_atom_site_B_iso_or_equiv
Bi1 Bi3+ 4 c 0.6812(4) 0.9666(4) 0.5770 1. 0 0.45(8) 
Bi2 Bi3+ 4 c 0.4841(4) 0.6874(4) 0.5800(12) 1. 0 0.39(8) 
Zn1 Zn2+ 4 c 0.2598(6) 0.7593(5) 0.0714(18) 1. 0 0.32(10) 
B1 B3+ 4 c 0.1150(5) 0.9802(5) 0.0818(18) 1. 0 0.55(10) 
B2 B3+ 4 c 0.5154(5) 0.8731(4) 0.1201(14) 1. 0 0.43(10) 
O1 O2- 4 c 0.4141(6) 0.7997(6) 0.2513(18) 1. 0 0.77(12) 
O2 O2- 4 c 0.1309(6) 0.6725(6) 0.2694(17) 1. 0 0.59(12) 
O3 O2- 4 c 0.1946(6) 0.9149(5) -0.0625(17) 1. 0 0.53(11) 
O4 O2- 4 c 0.3008(6) 0.6737(6) -0.2614(16) 1. 0 0.55(11) 
O5 O2- 4 c 0.5197(6) 0.8583(5) -0.1762(16) 1. 0 0.67(12) 
O6 O2- 2 b 0.5 0 0.2119(19) 1. 0 0.33(15) 
O7 O2- 4 c 0.1352(6) 0.0246(6) 0.3338(15) 1. 0 0.57(13) 
O8 O2- 2 a 0 0 -0.0394(19) 1. 0 0.54(15) 

#End of data_152281-ICSD


