data_166608-ICSD
#?2014 by Fachinformationszentrum Karlsruhe, and the U.S. Secretary of 
#Commerce on behalf of the United States.  All rights reserved.
_database_code_ICSD                166608
_audit_creation_date               2010/08/01
_chemical_name_systematic
;
Dipotassium Zirconium Disilicate - Ii
;
_chemical_formula_structural       'K2 Zr (Si2 O7)'
_chemical_formula_sum              'K2 O7 Si2 Zr1'
_chemical_name_mineral             Khibinskite
_publ_section_title
;
Crystal structure of synthetic khibinskite - K2 Zr Si2 O7 (II)
;
loop_
_citation_id
_citation_journal_abbrev
_citation_year
_citation_journal_volume
_citation_page_first
_citation_page_last
_citation_journal_id_ASTM
primary 'Doklady Akademii Nauk SSSR' 1976 231 1351 1353 DANKAS
_publ_author_name
;
Nosyrev, N.A.;Treushnikov, E.N.;Voronkov, A.A.;Ilyukhin, V.V.;Ganiev, 
R.M.;Belov, N.V.
;
_cell_length_a                     19.188
_cell_length_b                     14.072
_cell_length_c                     11.075
_cell_angle_alpha                  90.
_cell_angle_beta                   90.
_cell_angle_gamma                  117.067
_cell_volume                       2662.88
_cell_formula_units_Z              16
_symmetry_space_group_name_H-M     'B 1 1 2/m'
_symmetry_Int_Tables_number        12
_refine_ls_R_factor_all            .107
loop_
_symmetry_equiv_pos_site_id
_symmetry_equiv_pos_as_xyz
  1	'-x, -y, z'
  2	'-x, -y, -z'
  3	'x, y, -z'
  4	'x, y, z'
  5	'-x+.5, -y, z+.5'
  6	'-x+.5, -y, -z+.5'
  7	'x+.5, y, -z+.5'
  8	'x+.5, y, z+.5'
loop_
_atom_type_symbol
_atom_type_oxidation_number
K1+	1
O2-	-2
Si4+	4
Zr4+	4
loop_
_atom_site_label
_atom_site_type_symbol
_atom_site_symmetry_multiplicity
_atom_site_Wyckoff_symbol
_atom_site_fract_x
_atom_site_fract_y
_atom_site_fract_z
_atom_site_occupancy
_atom_site_attached_hydrogens
Zr1 Zr4+ 4 i -0.0058(4) 0.228(1) 0 1. 0 
Zr2 Zr4+ 4 i 0.5069(4) 0.275(2) 0 1. 0 
Zr3 Zr4+ 8 j 0.257(3) 0.262(1) 0.2488(2) 1. 0 
Si1 Si4+ 8 j 0.961(1) 0.381(1) 0.237(1) 1. 0 
Si2 Si4+ 8 j 0.043(1) 0.118(2) 0.252(1) 1. 0 
Si3 Si4+ 4 i 0.214(1) 0.371(2) 0 1. 0 
Si4 Si4+ 4 i 0.303(1) 0.133(2) 0 1. 0 
Si5 Si4+ 4 i 0.723(1) 0.383(2) 0 1. 0 
Si6 Si4+ 4 i 0.787(2) 0.112(2) 0 1. 0 
K1 K1+ 8 j 0.146(1) 0.405(1) 0.251(1) 1. 0 
K2 K1+ 8 j 0.369(1) 0.082(1) 0.246(1) 1. 0 
K3 K1+ 4 i 0.403(1) 0.439(1) 0 1. 0 
K4 K1+ 4 i 0.112(1) 0.071(1) 0 1. 0 
K5 K1+ 4 i 0.620(1) 0.104(1) 0 1. 0 
K6 K1+ 4 i 0.899(1) 0.439(1) 0 1. 0 
O1 O2- 4 i 0.874(2) 0.116(3) 0 1. 0 
O2 O2- 8 j 0.008(2) 0.107(2) 0.129(3) 1. 0 
O3 O2- 8 j 0.513(2) 0.176(2) 0.132(3) 1. 0 
O4 O2- 8 j 0.490(2) 0.355(3) 0.133(3) 1. 0 
O5 O2- 4 h 0 0.5 0.204(4) 1. 0 
O6 O2- 4 g 0 0 0.313(4) 1. 0 
O7 O2- 4 i 0.391(3) 0.136(4) 0 1. 0 
O8 O2- 4 i 0.628(3) 0.358(3) 0 1. 0 
O9 O2- 8 j 0.137(2) 0.156(3) 0.220(3) 1. 0 
O10 O2- 8 j 0.370(2) 0.336(3) 0.268(3) 1. 0 
O11 O2- 8 j 0.462(2) 0.140(3) 0.372(3) 1. 0 
O12 O2- 8 j 0.737(2) 0.331(2) 0.106(3) 1. 0 
O13 O2- 8 j 0.267(2) 0.140(3) 0.130(3) 1. 0 
O14 O2- 8 j 0.755(2) 0.354(3) 0.379(3) 1. 0 
O15 O2- 4 i 0.221(3) 0.502(4) 0 1. 0 
O16 O2- 4 i 0.268(3) 0.015(4) 0 1. 0 
O17 O2- 8 j 0.456(2) 0.299(2) 0.352(3) 1. 0 
O18 O2- 4 i 0.112(3) 0.323(3) 0 1. 0 

#End of data_166608-ICSD


