data_82535-ICSD
#?2014 by Fachinformationszentrum Karlsruhe, and the U.S. Secretary of 
#Commerce on behalf of the United States.  All rights reserved.
_database_code_ICSD                82535
_audit_creation_date               1997/11/10
_audit_update_record               1998/06/26
_chemical_name_systematic
;
Potassium Oxovanadium Hydrogen Bis(selenate(IV))
;
_chemical_formula_structural       'K (V O) H (Se O3)2'
_chemical_formula_sum              'H1 K1 O7 Se2 V1'
_publ_section_title
;
K (V O) (Se O3)2 H: a new one-dimensional compound with strong 
hydrogen bonding
;
loop_
_citation_id
_citation_journal_abbrev
_citation_year
_citation_journal_volume
_citation_page_first
_citation_page_last
_citation_journal_id_ASTM
primary 'Inorganic Chemistry' 1996 35 7394 7398 INOCAJ
_publ_author_name
;
Kim, Y.H.;Lee, K.-S.;Kwon, Y.-U.;Han, O.H.
;
_cell_length_a                     7.8659(7)
_cell_length_b                     10.4298(7)
_cell_length_c                     4.0872(7)
_cell_angle_alpha                  90.
_cell_angle_beta                   96.45(1)
_cell_angle_gamma                  90.
_cell_volume                       333.19
_cell_formula_units_Z              2
_symmetry_space_group_name_H-M     'P 1 21/m 1'
_symmetry_Int_Tables_number        11
_refine_ls_R_factor_all            .022
loop_
_symmetry_equiv_pos_site_id
_symmetry_equiv_pos_as_xyz
  1	'x, -y+.5, z'
  2	'-x, -y, -z'
  3	'-x, y+.5, -z'
  4	'x, y, z'
loop_
_atom_type_symbol
_atom_type_oxidation_number
H1+	1
K1+	1
O2-	-2
Se4+	4
V4+	4
loop_
_atom_site_label
_atom_site_type_symbol
_atom_site_symmetry_multiplicity
_atom_site_Wyckoff_symbol
_atom_site_fract_x
_atom_site_fract_y
_atom_site_fract_z
_atom_site_occupancy
_atom_site_attached_hydrogens
_atom_site_U_iso_or_equiv
Se1 Se4+ 4 f 0.1900(1) 0.5118(1) 0.2897(1) 1. 0 0.010(1) 
V1 V4+ 2 e 0.9434(1) 0.75 0.0520(3) 1. 0 0.009(1) 
K1 K1+ 2 e 0.5525(2) 0.25 0.1010(4) 1. 0 0.018(1) 
O1 O2- 2 e 0.9512(6) 0.75 0.4469(11) 1. 0 0.016(1) 
O2 O2- 4 f 0.1189(4) 0.6171(3) -.0145(7) 1. 0 0.014(1) 
O3 O2- 4 f 0.2387(4) 0.3804(3) 0.0713(8) 1. 0 0.013(1) 
O4 O2- 4 f 0.3890(4) 0.5749(3) 0.3818(8) 1. 0 0.018(1) 
H1 H1+ 2 d 0.5 0.5 0.5 1. 0 0.060(34) 

#End of data_82535-ICSD


