data_98019-ICSD
#?2014 by Fachinformationszentrum Karlsruhe, and the U.S. Secretary of 
#Commerce on behalf of the United States.  All rights reserved.
_database_code_ICSD                98019
_audit_creation_date               2004/10/01
_audit_update_record               2009/08/01
_chemical_name_systematic          'Lithium Hydrogensulfide - Lt'
_chemical_formula_structural       'Li (H S)'
_chemical_formula_sum              'H1 Li1 S1'
_publ_section_title
;
The low-temperature structure of Li S H
;
loop_
_citation_id
_citation_journal_abbrev
_citation_year
_citation_journal_volume
_citation_journal_issue
_citation_page_first
_citation_page_last
_citation_journal_id_ASTM
primary 'Phase Transition' 2003 76 1 187 195 PHTRDP
_publ_author_name                  'Winkler, B.;Hytha, M.;Milman, V.'
_cell_length_a                     7.829
_cell_length_b                     7.829
_cell_length_c                     6.143
_cell_angle_alpha                  90
_cell_angle_beta                   90
_cell_angle_gamma                  90
_cell_volume                       376.52
_cell_formula_units_Z              8
_symmetry_space_group_name_H-M     'P 42/m b c'
_symmetry_Int_Tables_number        135
loop_
_symmetry_equiv_pos_site_id
_symmetry_equiv_pos_as_xyz
  1	'-y+.5, -x+.5, z+.5'
  2	'-x+.5, y+.5, z'
  3	'y, -x, z+.5'
  4	'-x, -y, z'
  5	'-y+.5, -x+.5, -z+.5'
  6	'-x+.5, y+.5, -z'
  7	'y, -x, -z+.5'
  8	'-x, -y, -z'
  9	'y+.5, x+.5, -z+.5'
 10	'x+.5, -y+.5, -z'
 11	'-y, x, -z+.5'
 12	'x, y, -z'
 13	'y+.5, x+.5, z+.5'
 14	'x+.5, -y+.5, z'
 15	'-y, x, z+.5'
 16	'x, y, z'
loop_
_atom_type_symbol
_atom_type_oxidation_number
H1+	1
Li1+	1
S2-	-2
loop_
_atom_site_label
_atom_site_type_symbol
_atom_site_symmetry_multiplicity
_atom_site_Wyckoff_symbol
_atom_site_fract_x
_atom_site_fract_y
_atom_site_fract_z
_atom_site_occupancy
_atom_site_attached_hydrogens
S1 S2- 8 h 0.25033 0.51554 0.5 1. 0 
H1 H1+ 8 h 0.31340 0.24887 0 1. 0 
Li1 Li1+ 4 d 0 0.5 0.250 1. 0 
Li2 Li1+ 4 b 0 0 0.250 1. 0 

#End of data_98019-ICSD


