data_426218-ICSD
#?2014 by Fachinformationszentrum Karlsruhe, and the U.S. Secretary of 
#Commerce on behalf of the United States.  All rights reserved.
_database_code_ICSD                426218
_audit_creation_date               2014/08/01
_chemical_name_systematic          'Lithium Thorium(IV) Fluoride'
_chemical_formula_structural       'Li Th F5'
_chemical_formula_sum              'F5 Li1 Th1'
_publ_section_title
;
Crystal structures and stability of Li Ce F5 and Li Th F5 at high 
pressures: A comparative study of the coordination around the Ce(4+) 
and Th(4+) ions
;
loop_
_citation_id
_citation_journal_abbrev
_citation_year
_citation_journal_volume
_citation_page_first
_citation_page_last
_citation_journal_id_ASTM
primary 'Journal of Fluorine Chemistry' 2013 156 124 129 JFLCAR
_publ_author_name
;
Grzechnik, Andrzej;Underwood, Christopher C.;Kolis, Joseph W.;Friese, 
Karen
;
_cell_length_a                     15.0538(9)
_cell_length_b                     15.0538(9)
_cell_length_c                     6.6060(5)
_cell_angle_alpha                  90.
_cell_angle_beta                   90.
_cell_angle_gamma                  90.
_cell_volume                       1497.03
_cell_formula_units_Z              16
_symmetry_space_group_name_H-M     'I 41/a S'
_symmetry_Int_Tables_number        88
_refine_ls_R_factor_all            .0491
loop_
_symmetry_equiv_pos_site_id
_symmetry_equiv_pos_as_xyz
  1	'y, -x+.5, z+.25'
  2	'-y, x+.5, z+.25'
  3	'y, -x, -z'
  4	'-y, x, -z'
  5	'-x, -y+.5, -z+.25'
  6	'x, y+.5, -z+.25'
  7	'-x, -y, z'
  8	'x, y, z'
  9	'y+.5, -x, z+.75'
 10	'-y+.5, x, z+.75'
 11	'y+.5, -x+.5, -z+.5'
 12	'-y+.5, x+.5, -z+.5'
 13	'-x+.5, -y, -z+.75'
 14	'x+.5, y, -z+.75'
 15	'-x+.5, -y+.5, z+.5'
 16	'x+.5, y+.5, z+.5'
loop_
_atom_type_symbol
_atom_type_oxidation_number
F1-	-1
Li1+	1
Th4+	4
loop_
_atom_site_label
_atom_site_type_symbol
_atom_site_symmetry_multiplicity
_atom_site_Wyckoff_symbol
_atom_site_fract_x
_atom_site_fract_y
_atom_site_fract_z
_atom_site_occupancy
_atom_site_attached_hydrogens
_atom_site_U_iso_or_equiv
Th1 Th4+ 16 f 0.19377(10) 0.06052(10) 0.1233(4) 1 0 0.0100(6) 
F1 F1- 16 f 0.2937(15) 0.0673(15) 0.384(6) 1 0 0.031(6) 
F2 F1- 16 f 0.2990(15) 0.1586(15) -0.020(4) 1 0 0.019(7) 
F3 F1- 16 f 0.0819(14) 0.0483(14) 0.365(6) 1 0 0.019(6) 
F4 F1- 16 f 0.3024(15) -0.0364(14) -0.010(5) 1 0 0.015(6) 
F5 F1- 16 f 0.0673(14) 0.1079(14) -0.046(4) 1 0 0.010(6) 
Li1 Li1+ 16 f 0.421(5) -0.062(5) 0.103(19) 1 0 0.032 

#End of data_426218-ICSD


