data_180764-ICSD
#?2014 by Fachinformationszentrum Karlsruhe, and the U.S. Secretary of 
#Commerce on behalf of the United States.  All rights reserved.
_database_code_ICSD                180764
_audit_creation_date               2011/08/01
_audit_update_record               2012/08/01
_chemical_name_systematic          'Disilver Trithiosilicate'
_chemical_formula_structural       'Ag2 (Si S3)'
_chemical_formula_sum              'Ag2 S3 Si1'
_publ_section_title
;
Crystal structure of the Ag2 Si S3 compound
;
loop_
_citation_id
_citation_journal_abbrev
_citation_year
_citation_journal_volume
_citation_page_first
_citation_page_last
_citation_journal_id_ASTM
primary 'Journal of Alloys and Compounds' 2011 509 4372 4374 JALCEU
_publ_author_name
;
Zhbankov, O.;Fedorchuk, A.;Kityk, I.;Olekseyuk, I.;Parasyuk, O.
;
_cell_length_a                     6.6709(1)
_cell_length_b                     6.6567(2)
_cell_length_c                     13.1748(3)
_cell_angle_alpha                  90.
_cell_angle_beta                   118.658(1)
_cell_angle_gamma                  90.
_cell_volume                       513.37
_cell_formula_units_Z              4
_symmetry_space_group_name_H-M     'P 1 21/c 1'
_symmetry_Int_Tables_number        14
_refine_ls_R_factor_all            .0493
loop_
_symmetry_equiv_pos_site_id
_symmetry_equiv_pos_as_xyz
  1	'x, -y+.5, z+.5'
  2	'-x, -y, -z'
  3	'-x, y+.5, -z+.5'
  4	'x, y, z'
loop_
_atom_type_symbol
_atom_type_oxidation_number
Ag1+	1
S2-	-2
Si4+	4
loop_
_atom_site_label
_atom_site_type_symbol
_atom_site_symmetry_multiplicity
_atom_site_Wyckoff_symbol
_atom_site_fract_x
_atom_site_fract_y
_atom_site_fract_z
_atom_site_occupancy
_atom_site_attached_hydrogens
_atom_site_B_iso_or_equiv
Ag1 Ag1+ 4 e 0.2242(5) 0.5203(3) 0.2515(2) 1. 0 1.68(11) 
Ag2 Ag1+ 4 e 0.4871(5) 0.3941(4) 0.1132(2) 1. 0 2.45(12) 
Si1 Si4+ 4 e 0.840(2) 0.1498(13) -0.0070(7) 1. 0 0.5(5) 
S1 S2- 4 e 0.8764(15) 0.2997(11) 0.1436(8) 1. 0 0.6(4) 
S2 S2- 4 e 0.8504(14) -0.1689(11) 0.0181(7) 1. 0 0.4(4) 
S3 S2- 4 e 0.557(2) 0.2468(10) -0.1578(8) 1. 0 0.7(4) 

#End of data_180764-ICSD


