data_59836-ICSD
#?2014 by Fachinformationszentrum Karlsruhe, and the U.S. Secretary of 
#Commerce on behalf of the United States.  All rights reserved.
_database_code_ICSD                59836
_audit_creation_date               2005/10/01
_audit_update_record               2012/02/01
_chemical_name_systematic
;
Potassium Gadolinium Tetrakis(catena-phosphate(V))
;
_chemical_formula_structural       'K Gd (P O3)4'
_chemical_formula_sum              'Gd1 K1 O12 P4'
_publ_section_title
;
Potassium gadolinium polyphosphate, K Gd (P O3)4
;
loop_
_citation_id
_citation_journal_abbrev
_citation_year
_citation_journal_volume
_citation_page_first
_citation_page_last
_citation_journal_id_ASTM
primary 'Acta Crystallographica, Section C: Crystal Structure Communications'
 2004 60 i50 i52 ACSCEE
_publ_author_name                  'Rekik, W.;Naili, H.;Mhiri, T.'
_cell_length_a                     10.412(2)
_cell_length_b                     8.996(2)
_cell_length_c                     10.836(2)
_cell_angle_alpha                  90.00
_cell_angle_beta                   105.940(10)
_cell_angle_gamma                  90.00
_cell_volume                       975.94
_cell_formula_units_Z              4
_symmetry_space_group_name_H-M     'P 1 21/n 1'
_symmetry_Int_Tables_number        14
_refine_ls_R_factor_all            .0183
loop_
_symmetry_equiv_pos_site_id
_symmetry_equiv_pos_as_xyz
  1	'-x+.5, y+.5, -z+.5'
  2	'-x, -y, -z'
  3	'x+.5, -y+.5, z+.5'
  4	'x, y, z'
loop_
_atom_type_symbol
_atom_type_oxidation_number
Gd3+	3
K1+	1
O2-	-2
P5+	5
loop_
_atom_site_label
_atom_site_type_symbol
_atom_site_symmetry_multiplicity
_atom_site_Wyckoff_symbol
_atom_site_fract_x
_atom_site_fract_y
_atom_site_fract_z
_atom_site_occupancy
_atom_site_attached_hydrogens
_atom_site_U_iso_or_equiv
Gd1 Gd3+ 4 e -0.000118(16 0.228200(18) 0.815525(15) 1 0 0.00652(8) 
K1 K1+ 4 e 0.29451(10) -0.42810(13) 1.04311(9) 1 0 0.0302(2) 
P1 P5+ 4 e 0.03972(9) -0.17043(9) 0.85859(8) 1 0 0.00733(18) 
P2 P5+ 4 e 0.25049(8) -0.02288(9) 0.76926(8) 1 0 0.00739(18) 
P3 P5+ 4 e 0.32330(9) 0.10578(10) 1.01953(8) 1 0 0.00760(17) 
P4 P5+ 4 e 0.35386(9) -0.09521(10) 1.23991(8) 1 0 0.00764(18) 
O1 O2- 4 e -0.0236(3) -0.2920(3) 0.7506(2) 1 0 0.0119(5) 
O2 O2- 4 e 0.3311(3) -0.0502(3) 1.0933(2) 1 0 0.0129(5) 
O3 O2- 4 e 0.1455(2) 0.0883(3) 0.7080(2) 1 0 0.0113(5) 
O4 O2- 4 e 0.1840(2) -0.1543(3) 0.8323(2) 1 0 0.0114(5) 
O5 O2- 4 e 0.0645(3) -0.2387(3) 0.9883(3) 1 0 0.0131(5) 
O6 O2- 4 e -0.0394(3) -0.0310(3) 0.8238(3) 1 0 0.0132(5) 
O7 O2- 4 e 0.3577(2) 0.0469(3) 0.8923(2) 1 0 0.0100(5) 
O8 O2- 4 e 0.3284(3) -0.0904(3) 0.6868(2) 1 0 0.0120(5) 
O9 O2- 4 e 0.4311(3) 0.2075(3) 1.0911(2) 1 0 0.0127(5) 
O10 O2- 4 e 0.1825(2) 0.1592(3) 0.9827(2) 1 0 0.0137(5) 
O11 O2- 4 e 0.2374(3) -0.1819(3) 1.2543(3) 1 0 0.0155(5) 
O12 O2- 4 e 0.3977(3) 0.0359(3) 1.3250(2) 1 0 0.0128(5) 

loop_
_atom_site_aniso_label
_atom_site_aniso_type_symbol
_atom_site_aniso_U_11
_atom_site_aniso_U_22
_atom_site_aniso_U_33
_atom_site_aniso_U_12
_atom_site_aniso_U_13
_atom_site_aniso_U_23
Gd1 Gd3+ 0.00751(11) 0.00571(12) 0.00645(11) 0.00052(6) 0.00207(7) 
0.00081(6)
K1 K1+ 0.0279(5) 0.0459(7) 0.0172(5) 0.0032(5) 0.0067(4) -0.0050(4)
P1 P5+ 0.0088(4) 0.0056(4) 0.0081(4) -0.0006(3) 0.0031(3) -0.0002(3)
P2 P5+ 0.0083(4) 0.0072(4) 0.0073(4) 0.0001(3) 0.0034(3) 0.0000(3)
P3 P5+ 0.0086(4) 0.0080(4) 0.0059(4) -0.0004(3) 0.0011(3) 0.0004(3)
P4 P5+ 0.0088(4) 0.0060(4) 0.0074(4) -0.0001(3) 0.0012(3) 0.0006(3)
O1 O2- 0.0136(13) 0.0123(13) 0.0115(13) -0.0054(11) 0.0056(10) -0.0048(10)
O2 O2- 0.0185(13) 0.0095(13) 0.0086(12) -0.0025(11) 0.0008(10) 0.0034(10)
O3 O2- 0.0124(12) 0.0125(13) 0.0093(12) 0.0036(10) 0.0029(10) 0.0023(10)
O4 O2- 0.0115(12) 0.0088(12) 0.0155(13) -0.0007(10) 0.0058(10) 0.0005(10)
O5 O2- 0.0142(14) 0.0164(14) 0.0091(13) 0.0020(11) 0.0041(11) 0.0019(10)
O6 O2- 0.0106(12) 0.0086(13) 0.0216(14) 0.0016(10) 0.0063(11) 0.0014(11)
O7 O2- 0.0091(12) 0.0115(13) 0.0098(12) -0.0019(10) 0.0035(10) -0.0012(10)
O8 O2- 0.0138(13) 0.0131(13) 0.0113(12) 0.0008(11) 0.0064(10) -0.0024(10)
O9 O2- 0.0135(13) 0.0143(13) 0.0105(13) -0.0030(11) 0.0034(10) -0.0025(11)
O10 O2- 0.0110(13) 0.0199(15) 0.0097(12) 0.0054(11) 0.0014(10) 0.0010(11)
O11 O2- 0.0108(13) 0.0154(14) 0.0190(14) -0.0018(11) 0.0029(11) 0.0064(12)
O12 O2- 0.0195(14) 0.0069(12) 0.0135(13) -0.0015(11) 0.0069(11) -0.0017(10)
#End of data_59836-ICSD


