data_20926-ICSD
#?2014 by Fachinformationszentrum Karlsruhe, and the U.S. Secretary of 
#Commerce on behalf of the United States.  All rights reserved.
_database_code_ICSD                20926
_audit_creation_date               1985/07/16
_audit_update_record               2012/08/01
_chemical_name_systematic          'Sodium Silver Nitrate(III)'
_chemical_formula_structural       'Na Ag (N O2)2'
_chemical_formula_sum              'Ag1 N2 Na1 O4'
_publ_section_title
;
The decoding of the crystal structure of sodium silver nitrite Na Ag 
(N O2)2
;
loop_
_citation_id
_citation_journal_abbrev
_citation_year
_citation_journal_volume
_citation_page_first
_citation_page_last
_citation_journal_id_ASTM
primary 'Soobshcheniya Akademii Nauk Gruzinskoi SSR' 1983 112 281 284 SAKNAH
_publ_author_name
;
Sanadze, V.V.;Gordadze, E.G.;Soboleva, L.V.
;
_cell_length_a                     7.899(2)
_cell_length_b                     10.847(4)
_cell_length_c                     10.697(2)
_cell_angle_alpha                  90.
_cell_angle_beta                   90.
_cell_angle_gamma                  90.
_cell_volume                       916.52
_cell_formula_units_Z              8
_symmetry_space_group_name_H-M     'F 2 2 2'
_symmetry_Int_Tables_number        22
_refine_ls_R_factor_all            .046
loop_
_symmetry_equiv_pos_site_id
_symmetry_equiv_pos_as_xyz
  1	'-x, y, -z'
  2	'x, -y, -z'
  3	'-x, -y, z'
  4	'x, y, z'
  5	'-x, y+.5, -z+.5'
  6	'-x+.5, y, -z+.5'
  7	'-x+.5, y+.5, -z'
  8	'x, -y+.5, -z+.5'
  9	'x+.5, -y, -z+.5'
 10	'x+.5, -y+.5, -z'
 11	'-x, -y+.5, z+.5'
 12	'-x+.5, -y, z+.5'
 13	'-x+.5, -y+.5, z'
 14	'x, y+.5, z+.5'
 15	'x+.5, y, z+.5'
 16	'x+.5, y+.5, z'
loop_
_atom_type_symbol
_atom_type_oxidation_number
Ag1+	1
N3+	3
Na1+	1
O2-	-2
loop_
_atom_site_label
_atom_site_type_symbol
_atom_site_symmetry_multiplicity
_atom_site_Wyckoff_symbol
_atom_site_fract_x
_atom_site_fract_y
_atom_site_fract_z
_atom_site_occupancy
_atom_site_attached_hydrogens
Ag1 Ag1+ 4 a 0 0 0 1. 0 
Ag2 Ag1+ 4 c 0.25 0.25 0.25 1. 0 
Na1 Na1+ 4 b 0 0 0.5 1. 0 
Na2 Na1+ 4 d 0.25 0.25 0.75 1. 0 
O1 O2- 16 k 0.2907 0.1594 0.0426 1. 0 
O2 O2- 16 k 0.0361 0.0958 0.7355 1. 0 
N1 N3+ 8 h 0.25 0.25 0.5187 1. 0 
N2 N3+ 8 g 0 0 0.7941 1. 0 

#End of data_20926-ICSD


