data_50671-ICSD
#?2014 by Fachinformationszentrum Karlsruhe, and the U.S. Secretary of 
#Commerce on behalf of the United States.  All rights reserved.
_database_code_ICSD                50671
_audit_creation_date               2000/07/15
_chemical_name_systematic
;
Silver Magnesium Tris(phosphate(V))
;
_chemical_formula_structural       'Ag Mg (P O3)3'
_chemical_formula_sum              'Ag1 Mg1 O9 P3'
_publ_section_title
;
Crystal structure and luminescence properties of silver in Ag M (P 
O3)3 (M= Mg, Zn, Ba) polyphosphates
;
loop_
_citation_id
_citation_journal_abbrev
_citation_year
_citation_journal_volume
_citation_page_first
_citation_page_last
_citation_journal_id_ASTM
primary 'Journal of Solid State Chemistry' 1999 145 97 103 JSSCBI
_publ_author_name
;
Belharouak, I.;Aouad, H.;Mesnaoui, M.;Maazaz, M.;Parent, C.;Tanguy, 
B.;Gravereau, P.;le Flem, G.
;
_cell_length_a                     13.888(1)
_cell_length_b                     10.7302(1)
_cell_length_c                     9.97301(5)
_cell_angle_alpha                  90.
_cell_angle_beta                   90.
_cell_angle_gamma                  90.
_cell_volume                       1486.19
_cell_formula_units_Z              8
_symmetry_space_group_name_H-M     'P c c a'
_symmetry_Int_Tables_number        54
_refine_ls_R_factor_all            .042
loop_
_symmetry_equiv_pos_site_id
_symmetry_equiv_pos_as_xyz
  1	'x, -y, z+.5'
  2	'-x+.5, y, z+.5'
  3	'x+.5, y, -z'
  4	'-x, -y, -z'
  5	'-x, y, -z+.5'
  6	'x+.5, -y, -z+.5'
  7	'-x+.5, -y, z'
  8	'x, y, z'
loop_
_atom_type_symbol
_atom_type_oxidation_number
Ag1+	1
Mg2+	2
O2-	-2
P5+	5
loop_
_atom_site_label
_atom_site_type_symbol
_atom_site_symmetry_multiplicity
_atom_site_Wyckoff_symbol
_atom_site_fract_x
_atom_site_fract_y
_atom_site_fract_z
_atom_site_occupancy
_atom_site_attached_hydrogens
_atom_site_B_iso_or_equiv
Ag1 Ag1+ 8 f 0.3770(1) 0.2488(2) 0.0244(6) 1. 0 2.24(2) 
Mg1 Mg2+ 4 e 0.25 0.5 0.4670(5) 1. 0 0.8(1) 
Mg2 Mg2+ 4 a 0 0 0 1. 0 0.6(1) 
P1 P5+ 8 f 0.1489(2) 0.0458(3) 0.2385(3) 1. 0 0.64(7) 
P2 P5+ 8 f 0.1260(3) 0.2504(6) 0.0486(2) 1. 0 0.56(5) 
P3 P5+ 8 f 0.1007(7) 0.4693(7) 0.2158(7) 1. 0 0.6(1) 
O1 O2- 4 d 0.25 0 0.2934(1) 1. 0 1.1(2) 
O2 O2- 8 f 0.1808(4) 0.1700(6) 0.1583(7) 1. 0 0.8(2) 
O3 O2- 8 f 0.0648(5) 0.3482(6) 0.1355(7) 1. 0 1.1(1) 
O4 O2- 4 c 0.5 0.4686(4) 0.25 1. 0 0.9(1) 
O5 O2- 8 f 0.0921(4) 0.0831(8) 0.3581(7) 1. 0 1.1(2) 
O6 O2- 8 f 0.3932(5) 0.0439(8) 0.1422(7) 1. 0 1.3(2) 
O7 O2- 8 f 0.2973(6) 0.3178(7) 0.4724(7) 1. 0 1.0(2) 
O8 O2- 8 f 0.0570(6) 0.1737(7) 0.9738(7) 1. 0 0.8(2) 
O9 O2- 8 f 0.3503(5) 0.4453(8) 0.1210(7) 1. 0 0.9(2) 
O10 O2- 8 f 0.1510(5) 0.4311(8) 0.3391(7) 1. 0 1.2(2) 

#End of data_50671-ICSD


