data_425886-ICSD
#?2014 by Fachinformationszentrum Karlsruhe, and the U.S. Secretary of 
#Commerce on behalf of the United States.  All rights reserved.
_database_code_ICSD                425886
_audit_creation_date               2014/02/01
_chemical_name_systematic          'Dipotassium Thiosulfate(VI)'
_chemical_formula_structural       'K2 (S2 O3)'
_chemical_formula_sum              'K2 O3 S2'
_publ_section_title
;
Crystal structures of the alkali thiosulfates A2 S2 O3 * nH2O (A/n = 
K/0, K/1/3, Rb/1)
;
loop_
_citation_id
_citation_journal_abbrev
_citation_year
_citation_journal_volume
_citation_journal_issue
_citation_page_first
_citation_page_last
_citation_journal_id_ASTM
primary 'Zeitschrift fuer Naturforschung, B: Chemical Sciences'
 2013 68 4 323 337 ZNBSEN
_publ_author_name
;
Lehner, A.J.;Schindler, L.V.;Roehr, C.
;
_cell_length_a                     10.1015(14)
_cell_length_b                     9.1065(12)
_cell_length_c                     13.294(2)
_cell_angle_alpha                  90.00
_cell_angle_beta                   111.984(11)
_cell_angle_gamma                  90.00
_cell_volume                       1133.99
_cell_formula_units_Z              8
_symmetry_space_group_name_H-M     'P 1 21/c 1'
_symmetry_Int_Tables_number        14
_refine_ls_R_factor_all            .0664
loop_
_symmetry_equiv_pos_site_id
_symmetry_equiv_pos_as_xyz
  1	'x, -y+.5, z+.5'
  2	'-x, -y, -z'
  3	'-x, y+.5, -z+.5'
  4	'x, y, z'
loop_
_atom_type_symbol
_atom_type_oxidation_number
K1+	1
O2-	-2
S2-	-2
S6+	6
loop_
_atom_site_label
_atom_site_type_symbol
_atom_site_symmetry_multiplicity
_atom_site_Wyckoff_symbol
_atom_site_fract_x
_atom_site_fract_y
_atom_site_fract_z
_atom_site_occupancy
_atom_site_attached_hydrogens
_atom_site_U_iso_or_equiv
K1 K1+ 4 e 0.41854(11) 0.31114(12) 0.05249(8) 1 0 0.0325(2) 
K2 K1+ 4 e 0.21531(11) 0.01089(11) 0.19458(8) 1 0 0.0304(2) 
K3 K1+ 4 e 0.87783(11) 0.32332(11) 0.04022(8) 1 0 0.0299(2) 
K4 K1+ 4 e 0.26398(12) 0.49072(11) 0.29424(9) 1 0 0.0337(3) 
S1 S6+ 4 e 0.05918(11) 0.16691(12) 0.35457(8) 1 0 0.0230(2) 
S2 S2- 4 e 0.09524(14) 0.35039(13) 0.44333(10) 1 0 0.0326(3) 
O1 O2- 4 e 0.1931(3) 0.0843(4) 0.3845(3) 1 0 0.0304(7) 
O2 O2- 4 e 0.0459(3) 0.5767(4) 0.1217(3) 1 0 0.0315(7) 
O3 O2- 4 e 0.0070(5) 0.2062(5) 0.2400(3) 1 0 0.0473(10) 
S3 S6+ 4 e 0.54321(12) 0.22922(11) 0.32164(9) 1 0 0.0236(2) 
S4 S2- 4 e 0.59194(13) 0.38627(13) 0.43541(9) 1 0 0.0287(3) 
O4 O2- 4 e 0.3923(3) 0.2454(4) 0.2512(3) 1 0 0.0337(7) 
O5 O2- 4 e 0.6323(4) 0.2497(4) 0.2573(3) 1 0 0.0345(8) 
O6 O2- 4 e 0.5711(5) 0.0861(4) 0.3757(4) 1 0 0.0568(11) 

loop_
_atom_site_aniso_label
_atom_site_aniso_type_symbol
_atom_site_aniso_U_11
_atom_site_aniso_U_22
_atom_site_aniso_U_33
_atom_site_aniso_U_12
_atom_site_aniso_U_13
_atom_site_aniso_U_23
K1 K1+ 0.0322(6) 0.0332(5) 0.0275(5) 0.0048(4) 0.0060(4) -0.0044(4)
K2 K1+ 0.0324(5) 0.0294(5) 0.0318(5) 0.0005(4) 0.0146(4) -0.0067(4)
K3 K1+ 0.0322(5) 0.0295(5) 0.0283(5) -0.0031(4) 0.0115(4) -0.0018(4)
K4 K1+ 0.0286(5) 0.0324(5) 0.0369(6) 0.0051(4) 0.0087(4) 0.0092(4)
S1 S6+ 0.0236(5) 0.0266(5) 0.0170(4) 0.0013(4) 0.0058(4) -0.0002(4)
S2 S2- 0.0376(7) 0.0248(5) 0.0347(6) -0.0029(5) 0.0127(5) -0.0057(5)
O1 O2- 0.0249(17) 0.0355(17) 0.0312(16) 0.0036(14) 0.0108(13) -0.0024(14)
O2 O2- 0.0256(17) 0.0335(17) 0.0364(17) 0.0060(14) 0.0129(14) 0.0079(14)
O3 O2- 0.059(3) 0.055(2) 0.0217(16) 0.011(2) 0.0090(16) 0.0055(16)
S3 S6+ 0.0249(6) 0.0173(4) 0.0263(5) 0.0000(4) 0.0071(4) 0.0012(4)
S4 S2- 0.0316(6) 0.0311(5) 0.0221(5) -0.0024(5) 0.0086(4) -0.0045(4)
O4 O2- 0.0226(17) 0.0375(18) 0.0373(17) -0.0039(14) 0.0070(14) -0.0076(15)
O5 O2- 0.0308(19) 0.0372(18) 0.0394(18) -0.0010(14) 0.0175(15) -0.0125(15)
O6 O2- 0.078(3) 0.0249(18) 0.058(3) 0.0057(19) 0.014(2) 0.0176(18)
#End of data_425886-ICSD


