data_30895-ICSD
#?2014 by Fachinformationszentrum Karlsruhe, and the U.S. Secretary of 
#Commerce on behalf of the United States.  All rights reserved.
_database_code_ICSD                30895
_audit_creation_date               1985/05/29
_audit_update_record               2009/08/01
_chemical_name_systematic          'Magnesium Catena-silicate'
_chemical_formula_structural       'Mg (Si O3)'
_chemical_formula_sum              'Mg1 O3 Si1'
_chemical_name_mineral
;
Clinoenstatite low (heated and quenched orthoenstatite)
;
_publ_section_title
;
High temperature crystal structure refinements of low-clinoenstatite 
up to 700 degrees C
;
loop_
_citation_id
_citation_journal_abbrev
_citation_year
_citation_journal_volume
_citation_page_first
_citation_page_last
_citation_journal_id_ASTM
primary 'Neues Jahrbuch fuer Mineralogie. Abhandlungen (Band-Nr) (1950-)'
 1984 150 219 228 NJMIAK
2 'Golden Book of Phase Transitions, Wroclaw' 2002 1 1 123 GBOPT5
_publ_author_name                  'Pannhorst, W.'
_cell_length_a                     9.675(4)
_cell_length_b                     8.889(2)
_cell_length_c                     5.207(2)
_cell_angle_alpha                  90.
_cell_angle_beta                   108.60(2)
_cell_angle_gamma                  90.
_cell_volume                       424.42
_cell_formula_units_Z              8
_symmetry_space_group_name_H-M     'P 1 21/c 1'
_symmetry_Int_Tables_number        14
_refine_ls_R_factor_all            .061
loop_
_symmetry_equiv_pos_site_id
_symmetry_equiv_pos_as_xyz
  1	'x, -y+.5, z+.5'
  2	'-x, -y, -z'
  3	'-x, y+.5, -z+.5'
  4	'x, y, z'
loop_
_atom_type_symbol
_atom_type_oxidation_number
Mg2+	2
O2-	-2
Si4+	4
loop_
_atom_site_label
_atom_site_type_symbol
_atom_site_symmetry_multiplicity
_atom_site_Wyckoff_symbol
_atom_site_fract_x
_atom_site_fract_y
_atom_site_fract_z
_atom_site_occupancy
_atom_site_attached_hydrogens
_atom_site_U_iso_or_equiv
Mg1 Mg2+ 4 e 0.2509(5) 0.6518(5) 0.2213(9) 1. 0 0 
Mg2 Mg2+ 4 e 0.2556(6) 0.0135(4) 0.2186(10) 1. 0 0 
Si1 Si4+ 4 e 0.0441(3) 0.3403(5) 0.2922(6) 1. 0 0 
Si2 Si4+ 4 e 0.5525(4) 0.8372(6) 0.2341(7) 1. 0 0 
O1 O2- 4 e 0.8687(9) 0.341(1) 0.180(2) 1. 0 0.011(2) 
O2 O2- 4 e 0.1227(3) 0.500(1) 0.324(2) 1. 0 0.016(2) 
O3 O2- 4 e 0.1052(8) 0.276(1) 0.609(2) 1. 0 0.017(2) 
O4 O2- 4 e 0.3748(9) 0.841(1) 0.127(2) 1. 0 0.014(2) 
O5 O2- 4 e 0.6341(9) 0.984(1) 0.387(2) 1. 0 0.017(2) 
O6 O2- 4 e 0.6018(8) 0.697(1) 0.459(2) 1. 0 0.014(2) 

loop_
_atom_site_aniso_label
_atom_site_aniso_type_symbol
_atom_site_aniso_U_11
_atom_site_aniso_U_22
_atom_site_aniso_U_33
_atom_site_aniso_U_12
_atom_site_aniso_U_13
_atom_site_aniso_U_23
Mg1 Mg2+ 0.013(2) 0.012(2) 0.012(2) 0.000(3) 0.003(2) 0.001(3)
Mg2 Mg2+ 0.013(2) 0.015(2) 0.015(2) 0.000(2) -.002(2) 0.003(3)
Si1 Si4+ 0.090(2) 0.013(2) 0.010(2) -.002(2) 0.004(1) -.002(2)
Si2 Si4+ 0.007(2) 0.017(2) 0.012(2) -.001(2) 0.003(1) -.004(2)
#End of data_30895-ICSD


