data_200773-ICSD
#?2014 by Fachinformationszentrum Karlsruhe, and the U.S. Secretary of 
#Commerce on behalf of the United States.  All rights reserved.
_database_code_ICSD                200773
_audit_creation_date               1984/09/13
_audit_update_record               1985/05/30
_chemical_name_systematic
;
Potassium Oxovanadium(IV) Diphosphate
;
_chemical_formula_structural       'K2 V O P2 O7'
_chemical_formula_sum              'K2 O8 P2 V1'
_publ_section_title
;
Structure of crystals of potassium vanadyl pyrophosphate K2 V O P2 O7
;
loop_
_citation_id
_citation_journal_abbrev
_citation_year
_citation_journal_volume
_citation_page_first
_citation_page_last
_citation_journal_id_ASTM
primary 'Doklady Akademii Nauk SSSR' 1980 250 350 353 DANKAS
_publ_author_name
;
Gorbunova, Yu.E.;Linde, S.A.;Lavrov, A.V.;Tananaev, I.V.
;
_cell_length_a                     8.277(3)
_cell_length_b                     8.277(3)
_cell_length_c                     5.420(2)
_cell_angle_alpha                  90.
_cell_angle_beta                   90.
_cell_angle_gamma                  90.
_cell_volume                       371.32
_cell_formula_units_Z              2
_symmetry_space_group_name_H-M     'P 4 b m'
_symmetry_Int_Tables_number        100
_refine_ls_R_factor_all            .026
loop_
_symmetry_equiv_pos_site_id
_symmetry_equiv_pos_as_xyz
  1	'-y+.5, -x+.5, z'
  2	'y+.5, x+.5, z'
  3	'y, -x, z'
  4	'-y, x, z'
  5	'-x+.5, y+.5, z'
  6	'x+.5, -y+.5, z'
  7	'-x, -y, z'
  8	'x, y, z'
loop_
_atom_type_symbol
_atom_type_oxidation_number
K1+	1
O2-	-2
P5+	5
V4+	4
loop_
_atom_site_label
_atom_site_type_symbol
_atom_site_symmetry_multiplicity
_atom_site_Wyckoff_symbol
_atom_site_fract_x
_atom_site_fract_y
_atom_site_fract_z
_atom_site_occupancy
_atom_site_attached_hydrogens
V1 V4+ 2 a 0 0 0.1 1. 0 
K1 K1+ 4 c 0.1711 0.32892(8) 0.6254(4) 1. 0 
P1 P5+ 4 c 0.372 0.1280(1) 0.1153(5) 1. 0 
O1 O2- 2 a 0.5 0.5 0.3959(12) 1. 0 
O2 O2- 4 c 0.3723 0.1277(3) 0.3904(9) 1. 0 
O3 O2- 8 d 0.7149(4) 0.4250(5) -.0071(8) 1. 0 
O4 O2- 2 b 0.5 0 0.0060(13) 1. 0 

loop_
_atom_site_aniso_label
_atom_site_aniso_type_symbol
_atom_site_aniso_B_11
_atom_site_aniso_B_22
_atom_site_aniso_B_33
_atom_site_aniso_B_12
_atom_site_aniso_B_13
_atom_site_aniso_B_23
V1 V4+ 0.77 0.77(2) 0.82(4) 0 0 0
K1 K1+ 1.57 1.57(3) 1.15(4) 0.57(3) -.02 0.02(4)
P1 P5+ 0.88 0.88(2) 0.84(4) -.06(3) -.03 0.03(4)
O1 O2- 2.15 2.15(16) 1.18(21) 0 0 0
O2 O2- 1.58 1.58(9) 0.89(14) 0.36(13) 0.12 -.12(9)
O3 O2- 1.44(11) 4.62(18) 1.53(12) 1.40(12) -.08(11) -.26(14)
O4 O2- 3.46 3.46(23) 0.90(23) 0 0 0
#End of data_200773-ICSD


