data_300235-ICSD
#?2014 by Fachinformationszentrum Karlsruhe, and the U.S. Secretary of 
#Commerce on behalf of the United States.  All rights reserved.
_database_code_ICSD                300235
_audit_creation_date               1992/08/20
_audit_update_record               2007/08/01
_chemical_name_systematic          'Hexasodium Heptaselenodistannate'
_chemical_formula_structural       'Na6 (Sn2 Se7)'
_chemical_formula_sum              'Na6 Se7 Sn2'
_publ_section_title
;
Crystal structure of hexasodium heptaselenidodistannate
;
loop_
_citation_id
_citation_journal_abbrev
_citation_year
_citation_journal_volume
_citation_page_first
_citation_page_last
_citation_journal_id_ASTM
primary 'Zeitschrift fuer Kristallographie (1979-2010)' 1993 203 297 298 ZEKRDZ
_publ_author_name                  'Eisenmann, B.;Hansa, J.'
_cell_length_a                     9.710(5)
_cell_length_b                     11.193(5)
_cell_length_c                     16.064(6)
_cell_angle_alpha                  90.
_cell_angle_beta                   105.1(1)
_cell_angle_gamma                  90.
_cell_volume                       1685.62
_cell_formula_units_Z              4
_symmetry_space_group_name_H-M     'C 1 2/c 1'
_symmetry_Int_Tables_number        15
_refine_ls_R_factor_all            .045
loop_
_symmetry_equiv_pos_site_id
_symmetry_equiv_pos_as_xyz
  1	'x, -y, z+.5'
  2	'-x, -y, -z'
  3	'-x, y, -z+.5'
  4	'x, y, z'
  5	'x+.5, -y+.5, z+.5'
  6	'-x+.5, -y+.5, -z'
  7	'-x+.5, y+.5, -z+.5'
  8	'x+.5, y+.5, z'
loop_
_atom_type_symbol
_atom_type_oxidation_number
Na1+	1
Se2-	-2
Sn4+	4
loop_
_atom_site_label
_atom_site_type_symbol
_atom_site_symmetry_multiplicity
_atom_site_Wyckoff_symbol
_atom_site_fract_x
_atom_site_fract_y
_atom_site_fract_z
_atom_site_occupancy
_atom_site_attached_hydrogens
Se1 Se2- 8 f 0.1186(1) 0.3662(1) 0.1802(1) 1. 0 
Se2 Se2- 8 f 0.2978(1) 0.5663(1) 0.0179(1) 1. 0 
Se3 Se2- 8 f 0.4566(2) 0.2285(1) 0.1031(1) 1. 0 
Se4 Se2- 4 e 0 0.0478(2) 0.25 1. 0 
Sn1 Sn4+ 8 f 0.3407(1) 0.4137(1) 0.1364(1) 1. 0 
Na1 Na1+ 8 f 0.2247(8) 0.2720(6) 0.3607(5) 1. 0 
Na2 Na1+ 8 f 0.1073(7) 0.1441(6) 0.0734(4) 1. 0 
Na3 Na1+ 4 b 0 0.5 0 1. 0 
Na4 Na1+ 4 e 0.5 0.0720(8) 0.25 1. 0 

loop_
_atom_site_aniso_label
_atom_site_aniso_type_symbol
_atom_site_aniso_U_11
_atom_site_aniso_U_22
_atom_site_aniso_U_33
_atom_site_aniso_U_12
_atom_site_aniso_U_13
_atom_site_aniso_U_23
Se1 Se2- 0.0226(7) 0.0295(8) 0.0296(7) -0.0004(6) 0.0116(6) -0.0011(6)
Se2 Se2- 0.0227(7) 0.0250(7) 0.0248(7) 0.0045(6) 0.0036(5) 0.0015(6)
Se3 Se2- 0.0360(8) 0.0230(7) 0.0307(8) 0.0008(6) 0.0095(6) 0.0092(6)
Se4 Se2- 0.048(1) 0.019(1) 0.040(1) 0 -0.019(1) 0
Sn1 Sn4+ 0.0171(4) 0.0182(5) 0.0214(5) 0.0013(4) 0.0039(3) 0.0013(3)
Na1 Na1+ 0.049(4) 0.043(4) 0.047(4) 0.004(3) 0.011(3) -0.002(3)
Na2 Na1+ 0.040(3) 0.042(4) 0.035(3) -0.009(3) 0.009(3) -0.004(3)
Na3 Na1+ 0.019(4) 0.051(6) 0.047(5) -0.002(5) 0.001(4) -0.006(4)
Na4 Na1+ 0.068(7) 0.029(5) 0.041(5) 0 0.020(5) 0
#End of data_300235-ICSD


