data_39631-ICSD
#?2014 by Fachinformationszentrum Karlsruhe, and the U.S. Secretary of 
#Commerce on behalf of the United States.  All rights reserved.
_database_code_ICSD                39631
_audit_creation_date               1993/08/22
_audit_update_record               2005/10/01
_chemical_name_systematic
;
Dipotassium Pentafluoroantimonate(III) - Lt
;
_chemical_formula_structural       'K2 (Sb F5)'
_chemical_formula_sum              'F5 K2 Sb1'
_publ_section_title
;
X-ray investigation of sequential phase transitions in potassium 
pentafluoroantimonate(III) over a temperature range 323-98 K. 
II.Crystal structure.
;
loop_
_citation_id
_citation_journal_abbrev
_citation_year
_citation_journal_volume
_citation_page_first
_citation_page_last
_citation_journal_id_ASTM
primary Kristallografiya 1992 37 735 752 KRISAJ
2 'Soviet Physics, Crystallography (= Kristallografiya)'
 1992 37 388 397 SPHCA6
3 'Golden Book of Phase Transitions, Wroclaw' 2002 1 1 123 GBOPT5
_publ_author_name
;
Udovenko, A.A.;Eiberman, M.F.;Davidovich, R.L.
;
_cell_length_a                     68.81(2)
_cell_length_b                     13.635(3)
_cell_length_c                     6.508(2)
_cell_angle_alpha                  90.
_cell_angle_beta                   90.
_cell_angle_gamma                  90.
_cell_volume                       6105.96
_cell_formula_units_Z              44
_symmetry_space_group_name_H-M     'P b c n'
_symmetry_Int_Tables_number        60
_refine_ls_R_factor_all            .032
loop_
_symmetry_equiv_pos_site_id
_symmetry_equiv_pos_as_xyz
  1	'x, -y, z+.5'
  2	'-x+.5, y+.5, z'
  3	'x+.5, y+.5, -z+.5'
  4	'-x, -y, -z'
  5	'-x, y, -z+.5'
  6	'x+.5, -y+.5, -z'
  7	'-x+.5, -y+.5, z+.5'
  8	'x, y, z'
loop_
_atom_type_symbol
_atom_type_oxidation_number
F1-	-1
K1+	1
Sb3+	3
loop_
_atom_site_label
_atom_site_type_symbol
_atom_site_symmetry_multiplicity
_atom_site_Wyckoff_symbol
_atom_site_fract_x
_atom_site_fract_y
_atom_site_fract_z
_atom_site_occupancy
_atom_site_attached_hydrogens
Sb1 Sb3+ 4 c 0 0.0895(1) 0.25 1. 0 
Sb2 Sb3+ 8 d 0.0455 0.4105 0.7540(1) 1. 0 
Sb3 Sb3+ 8 d 0.0909 0.0895 0.2433(1) 1. 0 
Sb4 Sb3+ 8 d 0.1364 0.4105 0.7573(1) 1. 0 
Sb5 Sb3+ 8 d 0.1818 0.0895 0.2444(1) 1. 0 
Sb6 Sb3+ 8 d 0.2273 0.4105 0.7521(1) 1. 0 
K1 K1+ 4 c 0 0.4305(3) 0.25 1. 0 
K2 K1+ 8 d 0.0455 0.0696(2) 0.7527(4) 1. 0 
K3 K1+ 8 d 0.0909 0.4303(2) 0.2455(4) 1. 0 
K4 K1+ 8 d 0.1364 0.0097(2) 0.7549(4) 1. 0 
K5 K1+ 8 d 0.1818 0.4304(2) 0.2463(4) 1. 0 
K6 K1+ 8 d 0.2273 0.0696(2) 0.7514(4) 1. 0 
K7 K1+ 4 c 0 0.2479(3) 0.75 1. 0 
K8 K1+ 8 d 0.0455 0.2520(5) 0.2560(5) 1. 0 
K9 K1+ 8 d 0.0909 0.2481(4) 0.7401(4) 1. 0 
K10 K1+ 8 d 0.1364 0.2519(2) 0.2607(4) 1. 0 
K11 K1+ 8 d 0.1818 0.2481(2) 0.7417(5) 1. 0 
K12 K1+ 8 d 0.2273 0.2520(2) 0.2531(5) 1. 0 
F1 F1- 4 c 0 0.2304(7) 0.25 1. 0 
F2 F1- 8 d 0.0209(2) 0.1277(10) 0.0359(12) 1. 0 
F3 F1- 8 d 0.0216(2) 0.1108(10) 0.4703(14) 1. 0 
F4 F1- 8 d 0.0455(1) 0.2698(5) 0.7354(13) 1. 0 
F5 F1- 8 d 0.0674(2) 0.3925(8) 0.5330(14) 1. 0 
F6 F1- 8 d 0.0660(2) 0.3693(8) 0.9668(12) 1. 0 
F7 F1- 8 d 0.0240(2) 0.3851(11) 0.9719(13) 1. 0 
F8 F1- 8 d 0.0245(2) 0.3763(11) 0.5372(14) 1. 0 
F9 F1- 8 d 0.0909(1) 0.2299(5) 0.2732(13) 1. 0 
F10 F1- 8 d 0.0700(2) 0.1202(11) 0.4635(14) 1. 0 
F11 F1- 8 d 0.0694(2) 0.1184(11) 0.0291(14) 1. 0 
F12 F1- 8 d 0.1112(2) 0.1319(7) 0.0306(12) 1. 0 
F13 F1- 8 d 0.1113(2) 0.1059(7) 0.4629(15) 1. 0 
F14 F1- 8 d 0.1364(1) 0.2702(5) 0.7250(13) 1. 0 
F15 F1- 8 d 0.1562(2) 0.3689(7) 0.9718(12) 1. 0 
F16 F1- 8 d 0.1592(2) 0.3938(7) 0.5407(14) 1. 0 
F17 F1- 8 d 0.1158(2) 0.3814(10) 0.5338(14) 1. 0 
F18 F1- 8 d 0.1145(2) 0.3801(10) 0.9680(14) 1. 0 
F19 F1- 8 d 0.1818(1) 0.2301(5) 0.2698(13) 1. 0 
F20 F1- 8 d 0.1594(2) 0.1189(10) 0.0359(15) 1. 0 
F21 F1- 8 d 0.1617(2) 0.1194(10) 0.4700(14) 1. 0 
F22 F1- 8 d 0.2048(2) 0.1081(8) 0.4574(14) 1. 0 
F23 F1- 8 d 0.2015(2) 0.1290(8) 0.0265(12) 1. 0 
F24 F1- 8 d 0.2273(1) 0.2697(5) 0.7422(13) 1. 0 
F25 F1- 8 d 0.2075(2) 0.3778(10) 0.5271(13) 1. 0 
F26 F1- 8 d 0.2045(2) 0.3843(10) 0.9603(14) 1. 0 
F27 F1- 8 d 0.2468(2) 0.3743(9) 0.9740(12) 1. 0 
F28 F1- 8 d 0.2503(2) 0.3884(9) 0.5424(14) 1. 0 

loop_
_atom_site_aniso_label
_atom_site_aniso_type_symbol
_atom_site_aniso_U_11
_atom_site_aniso_U_22
_atom_site_aniso_U_33
_atom_site_aniso_U_12
_atom_site_aniso_U_13
_atom_site_aniso_U_23
Sb1 Sb3+ 0.0098(7) 0.0137(6) 0.0159(6) 0 0.0014(5) 0
Sb2 Sb3+ 0.0097(4) 0.0137(3) 0.0151(3) 0.0(3) -.0013(4) -.0007(3)
Sb3 Sb3+ 0.0097(4) 0.0138(3) 0.0136(3) 0.0(3) 0.0010(4) -.0010(3)
Sb4 Sb3+ 0.0096(4) 0.0139(3) 0.0131(3) 0.0(3) -.0005(4) -.0011(3)
Sb5 Sb3+ 0.0097(4) 0.0139(3) 0.0142(3) 0.0(3) 0.0001(4) -.0008(3)
Sb6 Sb3+ 0.0097(4) 0.0138(3) 0.0156(3) 0.00(33) 0.0001(4) -.0003(3)
K1 K1+ 0.018(2) 0.030(3) 0.017(2) 0 -.004(2) 0
K2 K1+ 0.018(1) 0.030(2) 0.016(1) 0.0(1) 0.004(2) 0.005(1)
K3 K1+ 0.017(2) 0.031(2) 0.015(1) 0.0(1) -.004(2) 0.008(1)
K4 K1+ 0.017(2) 0.031(2) 0.015(1) 0.0(1) 0.004(2) 0.008(1)
K5 K1+ 0.017(1) 0.031(2) 0.016(1) 0.0(1) -.004(2) 0.006(1)
K6 K1+ 0.017(2) 0.030(2) 0.017(1) 0.0(1) 0.005(2) 0.003(1)
K7 K1+ 0.026(3) 0.023(3) 0.037(3) 0 0.0(2) 0
K8 K1+ 0.026(2) 0.023(1) 0.035(2) 0.0(1) 0.0(2) -.002(1)
K9 K1+ 0.025(2) 0.022(1) 0.032(2) 0.0(1) 0.0(2) -.004(1)
K10 K1+ 0.025(1) 0.022(1) 0.031(2) 0.0(1) -.001(2) -.004(1)
K11 K1+ 0.026(2) 0.022(1) 0.033(2) 0.0(1) 0.001(2) -.003(1)
K12 K1+ 0.026(1) 0.023(1) 0.036(2) 0.0(1) -.002(2) -.001(1)
F1 F1- 0.046(8) 0.013(6) 0.064(8) 0 -.001(7) 0
F2 F1- 0.035(7) 0.053(7) 0.030(5) -.009(4) 0.017(4) -.011(4)
F3 F1- 0.046(8) 0.048(8) 0.052(6) -.020(4) -.038(5) 0.020(5)
F4 F1- 0.046(6) 0.014(4) 0.055(5) 0.0(3) 0.001(5) -.008(4)
F5 F1- 0.044(7) 0.036(7) 0.056(6) 0.016(4) 0.039(5) 0.020(4)
F6 F1- 0.036(7) 0.039(6) 0.028(4) 0.002(4) -.017(4) -.007(4)
F7 F1- 0.045(8) 0.059(9) 0.047(6) -.020(5) 0.036(5) -.020(5)
F8 F1- 0.037(7) 0.064(9) 0.032(5) -.013(4) -.019(4) 0.011(4)
F9 F1- 0.047(5) 0.014(4) 0.041(5) 0.0(5) 0.001(5) -.011(4)
F10 F1- 0.036(8) 0.067(9) 0.034(6) 0.015(4) 0.020(5) 0.006(5)
F11 F1- 0.045(8) 0.063(9) 0.044(6) 0.019(6) -.034(5) -.021(5)
F12 F1- 0.034(6) 0.031(5) 0.025(5) 0.004(6) 0.016(4) -.001(4)
F13 F1- 0.039(7) 0.030(6) 0.057(6) -.010(4) -.035(5) 0.018(5)
F14 F1- 0.047(5) 0.015(4) 0.037(5) 0.0(3) -.002(5) -.011(3)
F15 F1- 0.032(6) 0.032(5) 0.023(4) -.008(4) -.016(4) 0.006(4)
F16 F1- 0.032(6) 0.035(6) 0.054(6) 0.006(4) 0.030(5) 0.019(5)
F17 F1- 0.037(7) 0.064(9) 0.036(6) -.016(6) -.022(5) 0.002(5)
F18 F1- 0.042(8) 0.065(9) 0.045(6) -.020(6) 0.033(5) -.025(5)
F19 F1- 0.046(5) 0.014(4) 0.047(5) 0.0(3) 0.003(6) -.010(4)
F20 F1- 0.038(7) 0.067(9) 0.047(6) 0.022(6) -.031(5) -.031(5)
F21 F1- 0.034(7) 0.060(8) 0.034(6) 0.014(5) 0.020(4) -.004(5)
F22 F1- 0.027(6) 0.046(7) 0.051(6) -.007(54) -.026(4) 0.022(5)
F23 F1- 0.029(6) 0.040(6) 0.023(4) 0.007(4) 0.015(4) 0.010(4)
F24 F1- 0.045(6) 0.014(4) 0.062(6) 0.0(4) -.005(7) -.005(4)
F25 F1- 0.031(7) 0.057(7) 0.030(5) -.007(5) -.017(4) -.009(4)
F26 F1- 0.030(7) 0.068(9) 0.048(6) -.019(5) 0.028(5) -.032(6)
F27 F1- 0.028(6) 0.050(6) 0.026(5) -.002(4) -.015(4) 0.011(4)
F28 F1- 0.026(6) 0.060(8) 0.049(6) 0.012(5) 0.025(5) 0.028(5)
#End of data_39631-ICSD


