data_631088-ICSD
#?2014 by Fachinformationszentrum Karlsruhe, and the U.S. Secretary of 
#Commerce on behalf of the United States.  All rights reserved.
_database_code_ICSD                631088
_audit_creation_date               2013/02/01
_chemical_name_systematic          'Zinc Erbium Sulfide (1/2/4)'
_chemical_formula_structural       'Zn Er2 S4'
_chemical_formula_sum              'Er2 S4 Zn1'
_publ_section_title
;
Zinc rare-earth sulphides with the olivine structure
;
loop_
_citation_id
_citation_journal_abbrev
_citation_year
_citation_journal_volume
_citation_journal_issue
_citation_page_first
_citation_page_last
_citation_journal_id_ASTM
primary 'Acta Crystallographica B (24,1968-38,1982)' 1982 38 9 2442 2444 ACBCAR
2 'Doklady Akademii Nauk Azerbaidzhanskoi SSR' 1988 44 11 41 43 DAZRA7
_publ_author_name                  'Vollebregt, F.H.A.;Ijdo, D.J.W.'
_cell_length_a                     13.344(4)
_cell_length_b                     7.786(2)
_cell_length_c                     6.299(1)
_cell_angle_alpha                  90.0
_cell_angle_beta                   90.0
_cell_angle_gamma                  90.0
_cell_volume                       654.44
_cell_formula_units_Z              4
_symmetry_space_group_name_H-M     'P n m a'
_symmetry_Int_Tables_number        62
loop_
_symmetry_equiv_pos_site_id
_symmetry_equiv_pos_as_xyz
  1	'x+.5, y, -z+.5'
  2	'x, -y+.5, z'
  3	'-x+.5, y+.5, z+.5'
  4	'-x, -y, -z'
  5	'-x+.5, -y, z+.5'
  6	'-x, y+.5, -z'
  7	'x+.5, -y+.5, -z+.5'
  8	'x, y, z'
loop_
_atom_type_symbol
_atom_type_oxidation_number
Er3+	3
S2-	-2
Zn2+	2
loop_
_atom_site_label
_atom_site_type_symbol
_atom_site_symmetry_multiplicity
_atom_site_Wyckoff_symbol
_atom_site_fract_x
_atom_site_fract_y
_atom_site_fract_z
_atom_site_occupancy
_atom_site_attached_hydrogens
Er1 Er3+ 4 c 0.229 0.25 0.507 1. 0 
Er2 Er3+ 4 a 0 0 0 1. 0 
Zn1 Zn2+ 4 c 0.410 0.25 0.086 1. 0 
S1 S2- 4 c 0.407 0.25 0.725 1. 0 
S2 S2- 4 c 0.568 0.25 0.242 1. 0 
S3 S2- 8 d 0.332 0.018 0.250 1. 0 

#End of data_631088-ICSD


