data_87486-ICSD
#?2014 by Fachinformationszentrum Karlsruhe, and the U.S. Secretary of 
#Commerce on behalf of the United States.  All rights reserved.
_database_code_ICSD                87486
_audit_creation_date               2000/12/16
_chemical_name_systematic
;
Tetrapotassium Manganese Tris(molybdate)
;
_chemical_formula_structural       'K4 Mn (Mo O4)3'
_chemical_formula_sum              'K4 Mn1 Mo3 O12'
_publ_section_title
;
Binary molybdates K4 M(2+) (Mo O4)3 (M(2+) = Mg, Mn, Co) and crystal 
structure of K4 Mn (Mo O4)3
;
loop_
_citation_id
_citation_journal_abbrev
_citation_year
_citation_journal_volume
_citation_journal_issue
_citation_page_first
_citation_page_last
_citation_journal_id_ASTM
primary 'Journal of Structural Chemistry (USSR) (= Zhurnal Strukturnoi Khimii)'
 1998 39 2 230 237 JSTCAM
_publ_author_name
;
Solodovnikov, S.F.;Klevtsov, P.V.;Solodovnikova, Z.A.;Glinskaya, 
L.A.;Klevtsova, R.F.
;
_cell_length_a                     7.613(3)
_cell_length_b                     9.855(5)
_cell_length_c                     10.156(3)
_cell_angle_alpha                  92.28(3)
_cell_angle_beta                   106.66(2)
_cell_angle_gamma                  105.58(3)
_cell_volume                       697.5
_cell_formula_units_Z              2
_symmetry_space_group_name_H-M     'P -1'
_symmetry_Int_Tables_number        2
_refine_ls_R_factor_all            .03
loop_
_symmetry_equiv_pos_site_id
_symmetry_equiv_pos_as_xyz
  1	'-x, -y, -z'
  2	'x, y, z'
loop_
_atom_type_symbol
_atom_type_oxidation_number
K1+	1
Mn2+	2
Mo6+	6
O2-	-2
loop_
_atom_site_label
_atom_site_type_symbol
_atom_site_symmetry_multiplicity
_atom_site_Wyckoff_symbol
_atom_site_fract_x
_atom_site_fract_y
_atom_site_fract_z
_atom_site_occupancy
_atom_site_attached_hydrogens
_atom_site_U_iso_or_equiv
Mo1 Mo6+ 2 i 0.37366(6) 0.15345(4) 0.88609(4) 1. 0 0.0206(1) 
Mo2 Mo6+ 2 i 0.12213(6) 0.64321(4) 0.31888(4) 1. 0 0.0202(1) 
Mo3 Mo6+ 2 i 0.24051(6) 0.19745(4) 0.24893(4) 1. 0 0.0208(1) 
Mn1 Mn2+ 2 i 0.14750(13) 0.88043(8) 0.05503(8) 1. 0 0.0248(2) 
K1 K1+ 2 i 0.3437(2) 0.4274(1) 0.6112(1) 1. 0 0.0291(2) 
K2 K1+ 2 i 0.7703(2) 0.2325(1) 0.2753(1) 1. 0 0.0268(2) 
K3 K1+ 1 b 0 0 0.5 1. 0 0.0352(4) 
K4 K1+ 1 f 0.5 0 0.5 1. 0 0.0499(6) 
K5 K1+ 2 i 0.2514(2) 0.4862(2) 0.0234(2) 1. 0 0.0386(3) 
O1 O2- 2 i 0.3189(6) 0.0584(4) 0.7240(4) 1. 0 0.0335(9) 
O2 O2- 2 i 0.3836(6) 0.3301(4) 0.8662(4) 1. 0 0.0306(8) 
O3 O2- 2 i 0.3961(6) 0.8482(5) 0.0080(4) 1. 0 0.0297(8) 
O4 O2- 2 i 0.1860(6) 0.0807(4) 0.9591(5) 1. 0 0.0340(9) 
O5 O2- 2 i 0.3130(8) 0.5746(8) 0.3773(8) 1. 0 0.0675(19) 
O6 O2- 2 i 0.0850(7) 0.4936(5) 0.7032(6) 1. 0 0.0473(13) 
O7 O2- 2 i 0.1411(9) 0.7831(5) 0.4392(5) 1. 0 0.0503(13) 
O8 O2- 2 i 0.1124(7) 0.6951(4) 0.1510(4) 1. 0 0.0359(10) 
O9 O2- 2 i 0.2200(9) 0.2210(5) 0.4130(5) 1. 0 0.0541(15) 
O10 O2- 2 i 0.4461(6) 0.3185(5) 0.2357(5) 1. 0 0.0362(9) 
O11 O2- 2 i 0.0359(6) 0.2302(4) 0.1335(4) 1. 0 0.0309(8) 
O12 O2- 2 i 0.2592(7) 0.0217(4) 0.2339(4) 1. 0 0.0331(9) 

#End of data_87486-ICSD


