data_402274-ICSD
#?2014 by Fachinformationszentrum Karlsruhe, and the U.S. Secretary of 
#Commerce on behalf of the United States.  All rights reserved.
_database_code_ICSD                402274
_audit_creation_date               1997/05/13
_chemical_name_systematic          'Trisodium Tetraselenodiferrate'
_chemical_formula_structural       'Na3 (Fe2 Se4)'
_chemical_formula_sum              'Fe2 Na3 Se4'
_publ_section_title
;
Crystal structure of trisodium tetraseleno diferrate, Na3 Fe2 Se4
;
loop_
_citation_id
_citation_journal_abbrev
_citation_year
_citation_journal_volume
_citation_page_first
_citation_page_last
_citation_journal_id_ASTM
primary 'Zeitschrift fuer Kristallographie (1979-2010)' 1996 211 626 626 ZEKRDZ
_publ_author_name                  'Klepp, K.O.;Sparlinek, W.'
_cell_length_a                     6.902(2)
_cell_length_b                     10.994(3)
_cell_length_c                     11.127(4)
_cell_angle_alpha                  90.
_cell_angle_beta                   90.
_cell_angle_gamma                  90.
_cell_volume                       844.32
_cell_formula_units_Z              4
_symmetry_space_group_name_H-M     'P n m a'
_symmetry_Int_Tables_number        62
_refine_ls_R_factor_all            .03
loop_
_symmetry_equiv_pos_site_id
_symmetry_equiv_pos_as_xyz
  1	'x+.5, y, -z+.5'
  2	'x, -y+.5, z'
  3	'-x+.5, y+.5, z+.5'
  4	'-x, -y, -z'
  5	'-x+.5, -y, z+.5'
  6	'-x, y+.5, -z'
  7	'x+.5, -y+.5, -z+.5'
  8	'x, y, z'
loop_
_atom_type_symbol
_atom_type_oxidation_number
Fe2.5+	2.5
Na1+	1
Se2-	-2
loop_
_atom_site_label
_atom_site_type_symbol
_atom_site_symmetry_multiplicity
_atom_site_Wyckoff_symbol
_atom_site_fract_x
_atom_site_fract_y
_atom_site_fract_z
_atom_site_occupancy
_atom_site_attached_hydrogens
Na1 Na1+ 4 c 0.0740(7) 0.25 0.7601(5) 1. 0 
Na2 Na1+ 8 d 0.0501(5) 0.4174(3) 0.1405(3) 1. 0 
Fe1 Fe2.5+ 8 d 0.0476(2) 0.3787(1) 0.4683(1) 1. 0 
Se1 Se2- 4 c 0.3068(2) 0.25 0.5398(1) 1. 0 
Se2 Se2- 4 c 0.3764(2) 0.25 0.1691(1) 1. 0 
Se3 Se2- 8 d 0.1767(1) 0.55775(7) 0.37317(7) 1. 0 

loop_
_atom_site_aniso_label
_atom_site_aniso_type_symbol
_atom_site_aniso_U_11
_atom_site_aniso_U_22
_atom_site_aniso_U_33
_atom_site_aniso_U_12
_atom_site_aniso_U_13
_atom_site_aniso_U_23
Na1 Na1+ 0.023(2) 0.029(2) 0.021(2) 0 0.002(2) 0
Na2 Na1+ 0.032(2) 0.044(2) 0.030(2) 0.011(2) -.004(2) 0.002(2)
Fe1 Fe2.5+ 0.0146(5) 0.0140(5) 0.0142(5) -.0008(5) -.0007(5) 0.0013(6)
Se1 Se2- 0.0137(5) 0.0222(6) 0.0145(5) 0 -.0021(6) 0
Se2 Se2- 0.0166(6) 0.0184(6) 0.0160(6) 0 0.0045(5) 0
Se3 Se2- 0.0207(4) 0.0161(3) 0.0211(4) -.0002(4) 0.0076(4) 0.0028(4)
#End of data_402274-ICSD


