data_300236-ICSD
#?2014 by Fachinformationszentrum Karlsruhe, and the U.S. Secretary of 
#Commerce on behalf of the United States.  All rights reserved.
_database_code_ICSD                300236
_audit_creation_date               1992/08/20
_audit_update_record               2007/08/01
_chemical_name_systematic          'Hexasodium Heptaselenodisilicate'
_chemical_formula_structural       'Na6 (Si2 Se7)'
_chemical_formula_sum              'Na6 Se7 Si2'
_publ_section_title
;
Crystal structure of hexasodium heptaselenidosilicate
;
loop_
_citation_id
_citation_journal_abbrev
_citation_year
_citation_journal_volume
_citation_page_first
_citation_page_last
_citation_journal_id_ASTM
primary 'Zeitschrift fuer Kristallographie (1979-2010)' 1993 203 295 296 ZEKRDZ
_publ_author_name                  'Eisenmann, B.;Hansa, J.'
_cell_length_a                     9.390(4)
_cell_length_b                     10.805(4)
_cell_length_c                     15.794(5)
_cell_angle_alpha                  90.
_cell_angle_beta                   105.0(1)
_cell_angle_gamma                  90.
_cell_volume                       1547.84
_cell_formula_units_Z              4
_symmetry_space_group_name_H-M     'C 1 2/c 1'
_symmetry_Int_Tables_number        15
_refine_ls_R_factor_all            .1
loop_
_symmetry_equiv_pos_site_id
_symmetry_equiv_pos_as_xyz
  1	'x, -y, z+.5'
  2	'-x, -y, -z'
  3	'-x, y, -z+.5'
  4	'x, y, z'
  5	'x+.5, -y+.5, z+.5'
  6	'-x+.5, -y+.5, -z'
  7	'-x+.5, y+.5, -z+.5'
  8	'x+.5, y+.5, z'
loop_
_atom_type_symbol
_atom_type_oxidation_number
Na1+	1
Se2-	-2
Si4+	4
loop_
_atom_site_label
_atom_site_type_symbol
_atom_site_symmetry_multiplicity
_atom_site_Wyckoff_symbol
_atom_site_fract_x
_atom_site_fract_y
_atom_site_fract_z
_atom_site_occupancy
_atom_site_attached_hydrogens
Se1 Se2- 8 f 0.1343(3) 0.3775(3) 0.1790(2) 1. 0 
Se2 Se2- 8 f 0.3047(3) 0.5640(2) 0.0321(2) 1. 0 
Se3 Se2- 8 f 0.4472(3) 0.2470(3) 0.1069(2) 1. 0 
Se4 Se2- 4 e 0 0.0366(4) 0.25 1. 0 
Si1 Si4+ 8 f 0.3433(9) 0.4196(7) 0.1403(5) 1. 0 
Na1 Na1+ 8 f 0.2296(15) 0.2803(12) 0.3591(9) 1. 0 
Na2 Na1+ 8 f 0.1197(14) 0.1468(11) 0.0731(8) 1. 0 
Na3 Na1+ 4 b 0 0.5 0 1. 0 
Na4 Na1+ 4 e 0.5 0.0819(15) 0.25 1. 0 

loop_
_atom_site_aniso_label
_atom_site_aniso_type_symbol
_atom_site_aniso_U_11
_atom_site_aniso_U_22
_atom_site_aniso_U_33
_atom_site_aniso_U_12
_atom_site_aniso_U_13
_atom_site_aniso_U_23
Se1 Se2- 0.023(2) 0.018(2) 0.022(2) 0.002(1) 0.013(1) 0.003(1)
Se2 Se2- 0.022(1) 0.009(1) 0.021(1) 0.005(1) 0.005(1) 0.001(1)
Se3 Se2- 0.026(2) 0.012(1) 0.027(2) 0.0004(12) 0.008(1) 0.007(1)
Se4 Se2- 0.043(3) 0.009(2) 0.031(3) 0 -0.013(2) 0
Si1 Si4+ 0.022(4) 0.007(4) 0.018(4) 0.002(3) 0.001(3) -0.002(3)
Na1 Na1+ 0.046(8) 0.027(8) 0.036(7) 0.010(6) 0.022(6) -0.004(6)
Na2 Na1+ 0.042(8) 0.015(6) 0.035(7) -0.008(5) 0.020(6) -0.001(5)
Na3 Na1+ 0.021(9) 0.037(11) 0.044(11) 0.006(9) 0.015(8) -0.008(8)
Na4 Na1+ 0.078(15) 0.008(8) 0.029(10) 0 0.004(9) 0
#End of data_300236-ICSD


