data_4117-ICSD
#?2014 by Fachinformationszentrum Karlsruhe, and the U.S. Secretary of 
#Commerce on behalf of the United States.  All rights reserved.
_database_code_ICSD                4117
_audit_creation_date               1980/01/01
_audit_update_record               1999/05/11
_chemical_name_systematic          'Pentasodium Tetraoxogallate'
_chemical_formula_structural       'Na5 Ga O4'
_chemical_formula_sum              'Ga1 Na5 O4'
_publ_section_title                'Ein neues Oxogallat Na5 Ga O4'
loop_
_citation_id
_citation_journal_abbrev
_citation_year
_citation_journal_volume
_citation_page_first
_citation_page_last
_citation_journal_id_ASTM
primary 'Zeitschrift fuer Anorganische und Allgemeine Chemie (1950) (DE)'
 1975 414 193 288 ZAACAB
_publ_author_name                  'Fink, D.;Hoppe, R.'
_cell_length_a                     10.263
_cell_length_b                     5.95
_cell_length_c                     18.064
_cell_angle_alpha                  90.
_cell_angle_beta                   90.
_cell_angle_gamma                  90.
_cell_volume                       1103.08
_cell_formula_units_Z              8
_symmetry_space_group_name_H-M     'P b c a'
_symmetry_Int_Tables_number        61
loop_
_symmetry_equiv_pos_site_id
_symmetry_equiv_pos_as_xyz
  1	'x+.5, y, -z+.5'
  2	'x, -y+.5, z+.5'
  3	'-x+.5, y+.5, z'
  4	'-x, -y, -z'
  5	'-x+.5, -y, z+.5'
  6	'-x, y+.5, -z+.5'
  7	'x+.5, -y+.5, -z'
  8	'x, y, z'
loop_
_atom_type_symbol
_atom_type_oxidation_number
Ga3+	3
Na1+	1
O2-	-2
loop_
_atom_site_label
_atom_site_type_symbol
_atom_site_symmetry_multiplicity
_atom_site_Wyckoff_symbol
_atom_site_fract_x
_atom_site_fract_y
_atom_site_fract_z
_atom_site_occupancy
_atom_site_attached_hydrogens
_atom_site_B_iso_or_equiv
Ga1 Ga3+ 8 c 0.0393(1) 0.1753(1) 0.1239(1) 1. 0 0.81 
Na1 Na1+ 8 c 0.1726(2) 0.1067(5) 0.8276(1) 1. 0 1.52 
Na2 Na1+ 8 c 0.0627(3) 0.0838(6) 0.4353(2) 1. 0 2.01 
Na3 Na1+ 8 c 0.4172(3) 0.1052(6) 0.7504(1) 1. 0 1.66 
Na4 Na1+ 8 c 0.3382(2) 0.0924(5) 0.5021(1) 1. 0 1.89 
Na5 Na1+ 8 c 0.3008(2) 0.0782(5) 0.1382(1) 1. 0 1.77 
O1 O2- 8 c 0.3646(4) 0.2647(8) 0.3744(2) 1. 0 1.4 
O2 O2- 8 c 0.1262(4) 0.2666(9) 0.2106(2) 1. 0 1.5 
O3 O2- 8 c 0.1309(4) 0.1961(9) 0.5465(2) 1. 0 1.1 
O4 O2- 8 c 0.4530(4) 0.1353(8) 0.6202(2) 1. 0 1.4 

#End of data_4117-ICSD


