data_91946-ICSD
#?2014 by Fachinformationszentrum Karlsruhe, and the U.S. Secretary of 
#Commerce on behalf of the United States.  All rights reserved.
_database_code_ICSD                91946
_audit_creation_date               2002/10/01
_chemical_name_systematic
;
Trisodium Titanium(III) Octaphosphate(V)
;
_chemical_formula_structural       'Na3 Ti (P8 O23)'
_chemical_formula_sum              'Na3 O23 P8 Ti1'
_publ_section_title
;
Synthesis and structure of double phosphates of titanium and alkali 
metals
;
loop_
_citation_id
_citation_journal_abbrev
_citation_year
_citation_journal_volume
_citation_journal_issue
_citation_page_first
_citation_page_last
_citation_journal_id_ASTM
primary 'Proc. Estonian Acad. Sci. Chem.' 2000 49 1 29 35 PESCFO
_publ_author_name                  'Chudinova, N.;Murashova, E.'
_cell_length_a                     11.968(4)
_cell_length_b                     11.968(4)
_cell_length_c                     11.968(4)
_cell_angle_alpha                  90.
_cell_angle_beta                   90.
_cell_angle_gamma                  90.
_cell_volume                       1714.21
_cell_formula_units_Z              4
_symmetry_space_group_name_H-M     'P 41 3 2'
_symmetry_Int_Tables_number        213
_refine_ls_R_factor_all            .033
loop_
_symmetry_equiv_pos_site_id
_symmetry_equiv_pos_as_xyz
  1	'-z+.25, y+.75, x+.25'
  2	'z+.25, -y+.25, x+.75'
  3	'z+.75, y+.25, -x+.25'
  4	'-z+.75, -y+.75, -x+.75'
  5	'y+.75, x+.25, -z+.25'
  6	'-y+.25, x+.75, z+.25'
  7	'y+.25, -x+.25, z+.75'
  8	'-y+.75, -x+.75, -z+.75'
  9	'x+.25, -z+.25, y+.75'
 10	'x+.75, z+.25, -y+.25'
 11	'-x+.25, z+.75, y+.25'
 12	'-x+.75, -z+.75, -y+.75'
 13	'z+.5, -x+.5, -y'
 14	'-z+.5, -x, y+.5'
 15	'-z, x+.5, -y+.5'
 16	'z, x, y'
 17	'-y, z+.5, -x+.5'
 18	'y+.5, -z+.5, -x'
 19	'-y+.5, -z, x+.5'
 20	'y, z, x'
 21	'-x+.5, -y, z+.5'
 22	'-x, y+.5, -z+.5'
 23	'x+.5, -y+.5, -z'
 24	'x, y, z'
loop_
_atom_type_symbol
_atom_type_oxidation_number
Na1+	1
O2-	-2
P5+	5
Ti3+	3
loop_
_atom_site_label
_atom_site_type_symbol
_atom_site_symmetry_multiplicity
_atom_site_Wyckoff_symbol
_atom_site_fract_x
_atom_site_fract_y
_atom_site_fract_z
_atom_site_occupancy
_atom_site_attached_hydrogens
_atom_site_B_iso_or_equiv
Ti1 Ti3+ 4 a 0.375 0.375 0.375 1. 0 0.62(1) 
Na1 Na1+ 12 d 0.125 0.0430(2) 0.2930(2) 1. 0 1.49(4) 
P1 P5+ 24 e 0.1429(1) 0.1455(1) 0.5684(1) 1. 0 0.68(2) 
P2 P5+ 8 c 0.0186(1) 0.0186(1) 0.0186(1) 1. 0 0.64(1) 
O1 O2- 24 e 0.0418(3) 0.1197(5) 0.6365(3) 1. 0 1.13(6) 
O2 O2- 24 e 0.4247(3) 0.0064(3) 0.4038(3) 1. 0 1.14(6) 
O3 O2- 12 d 0.125 0.2666(3) 0.5166(3) 1. 0 1.11(7) 
O4 O2- 24 e 0.3131(3) 0.0660(3) 0.2371(3) 1. 0 1.08(6) 
O5 O2- 8 c 0.0892(2) 0.0892(2) 0.0892(2) 1. 0 1.04(5) 

#End of data_91946-ICSD


