data_246188-ICSD
#?2014 by Fachinformationszentrum Karlsruhe, and the U.S. Secretary of 
#Commerce on behalf of the United States.  All rights reserved.
_database_code_ICSD                246188
_audit_creation_date               2009/02/01
_audit_update_record               2010/02/01
_chemical_name_systematic          'Lithium Phosphato(V)dioxouranate'
_chemical_formula_structural       'Li ((U O2) (P O4))'
_chemical_formula_sum              'Li1 O6 P1 U1'
_publ_section_title
;
Crystal chemistry of anhydrous Li uranyl phosphates and arsenates. I. 
Polymorphism and structure topology: Synthesis and crystal structures 
of alpha-Li [(U O2) (P O4)], alpha-Li [(U O2) (As O4)], beta-Li [(U 
O2) (P O4)] and Li2 [(U O2)3 (P2 O7)2]
;
loop_
_citation_id
_citation_journal_abbrev
_citation_year
_citation_journal_volume
_citation_journal_issue
_citation_page_first
_citation_page_last
_citation_journal_id_ASTM
primary 'Journal of Solid State Chemistry' 2008 181 11 3010 3015 JSSCBI
_publ_author_name
;
Alekseev, E.V.;Krivovichev, S.V.;Malcherek, T.;Depmeier, W.
;
_cell_length_a                     5.0271(1)
_cell_length_b                     9.8799(2)
_cell_length_c                     10.8920(2)
_cell_angle_alpha                  108.282(9)
_cell_angle_beta                   102.993(8)
_cell_angle_gamma                  104.13(1)
_cell_volume                       470.68
_cell_formula_units_Z              4
_symmetry_space_group_name_H-M     'P -1'
_symmetry_Int_Tables_number        2
_refine_ls_R_factor_all            .045
loop_
_symmetry_equiv_pos_site_id
_symmetry_equiv_pos_as_xyz
  1	'-x, -y, -z'
  2	'x, y, z'
loop_
_atom_type_symbol
_atom_type_oxidation_number
Li1+	1
O2-	-2
P5+	5
U6+	6
loop_
_atom_site_label
_atom_site_type_symbol
_atom_site_symmetry_multiplicity
_atom_site_Wyckoff_symbol
_atom_site_fract_x
_atom_site_fract_y
_atom_site_fract_z
_atom_site_occupancy
_atom_site_attached_hydrogens
_atom_site_U_iso_or_equiv
U1 U6+ 2 i 0.03259(9) 0.79585(5) 0.02086(4) 1. 0 0.00628(9) 
U2 U6+ 2 i -0.02230(9) 0.72020(5) 0.48380(4) 1. 0 0.00678(9) 
P1 P5+ 2 i 0.2758(6) 0.5840(3) 0.2205(3) 1. 0 0.0060(5) 
P2 P5+ 2 i 0.3397(7) 1.1093(3) 0.2655(3) 1. 0 0.0063(5) 
Li1 Li1+ 2 i 0.736(6) 0.905(3) 0.303(3) 1. 0 0.022(6) 
Li2 Li1+ 2 i 0.677(6) 0.380(3) 0.228(3) 1. 0 0.022(6) 
O1 O2- 2 i -0.210(2) 0.811(1) 0.1184(9) 1. 0 0.011(2) 
O2 O2- 2 i 0.622(2) 1.248(1) 0.338(1) 1. 0 0.011(2) 
O3 O2- 2 i 0.130(2) 1.119(1) 0.350(1) 1. 0 0.014(2) 
O4 O2- 2 i 0.045(2) 0.563(1) 0.2933(9) 1. 0 0.012(2) 
O5 O2- 2 i 0.566(2) 0.703(1) 0.3258(9) 1. 0 0.012(2) 
O6 O2- 2 i 0.269(2) 0.778(1) -0.076(1) 1. 0 0.018(2) 
O7 O2- 2 i 0.185(2) 1.096(1) 0.121(1) 1. 0 0.012(2) 
O8 O2- 2 i 0.321(2) 0.431(1) 0.1584(1) 1. 0 0.010(2) 
O9 O2- 2 i 0.177(2) 0.641(1) 0.1108(9) 1. 0 0.010(2) 
O10 O2- 2 i 0.168(2) 0.887(1) 0.468(1) 1. 0 0.015(2) 
O11 O2- 2 i -0.226(2) 0.556(1) 0.496(1) 1. 0 0.15(2) 
O12 O2- 2 i 0.401(2) 0.960(1) 0.2370(9) 1. 0 0.009(2) 

#End of data_246188-ICSD


