data_280655-ICSD
#?2014 by Fachinformationszentrum Karlsruhe, and the U.S. Secretary of 
#Commerce on behalf of the United States.  All rights reserved.
_database_code_ICSD                280655
_audit_creation_date               2002/10/01
_audit_update_record               2005/04/01
_chemical_name_systematic
;
Decapotassium Trithorium Tetrakis(heptathiodiphosphate(V)) 
Bis(tetrathiophosphate(V))
;
_chemical_formula_structural       'K10 Th3 (P2 S7)4 (P S4)2'
_chemical_formula_sum              'K10 P10 S36 Th3'
_publ_section_title
;
Synthesis and characterization of six new quaternary actinide 
thiophosphate compounds: Cs8 U5 (P3 S10)2 (P S4)6, K10 Th3 (P2 S7)4 
(P S4)2, and A5 An (P S4)3, (A = K, Rb, Cs; An = U, Th)
;
loop_
_citation_id
_citation_journal_abbrev
_citation_year
_citation_journal_volume
_citation_page_first
_citation_page_last
_citation_journal_id_ASTM
primary 'Inorganic Chemistry' 2001 40 2851 2859 INOCAJ
_publ_author_name
;
Hess, R.F.;Abney, K.D.;Burris, J.L.;Hochheimer, H.D.;Dorhout, P.K.
;
_cell_length_a                     32.80849(60)
_cell_length_b                     9.0482(2)
_cell_length_c                     27.2972(3)
_cell_angle_alpha                  90.
_cell_angle_beta                   125.720(1)
_cell_angle_gamma                  90.
_cell_volume                       6578.98
_cell_formula_units_Z              4
_symmetry_space_group_name_H-M     'C 1 2/c 1'
_symmetry_Int_Tables_number        15
_refine_ls_R_factor_all            .0546
loop_
_symmetry_equiv_pos_site_id
_symmetry_equiv_pos_as_xyz
  1	'x, -y, z+.5'
  2	'-x, -y, -z'
  3	'-x, y, -z+.5'
  4	'x, y, z'
  5	'x+.5, -y+.5, z+.5'
  6	'-x+.5, -y+.5, -z'
  7	'-x+.5, y+.5, -z+.5'
  8	'x+.5, y+.5, z'
loop_
_atom_type_symbol
_atom_type_oxidation_number
K1+	1
P5+	5
S2-	-2
Th4+	4
loop_
_atom_site_label
_atom_site_type_symbol
_atom_site_symmetry_multiplicity
_atom_site_Wyckoff_symbol
_atom_site_fract_x
_atom_site_fract_y
_atom_site_fract_z
_atom_site_occupancy
_atom_site_attached_hydrogens
Th1 Th4+ 4 e 0 0.96509(3) 0.25 1. 0 
Th2 Th4+ 8 f 0.136570(7) 0.69604(2) 0.555720(8) 1. 0 
K1 K1+ 8 f 0.18359(5) 0.0460(2) 0.42645(6) 1. 0 
K2 K1+ 8 f 0.07178(6) 0.2228(2) 0.60055(10) 1. 0 
K3 K1+ 8 f 0.02812(6) 1.3851(2) 0.37339(6) 1. 0 
K4 K1+ 8 f 0.27331(5) 0.4315(2) 0.73627(6) 1. 0 
K5 K1+ 8 f 0.14781(7) 0.5546(2) 0.33688(7) 1. 0 
S1 S2- 8 f 0.04096(6) 0.6939(2) 0.32007(6) 1. 0 
S2 S2- 8 f 0.04955(5) 1.2435(2) 0.26076(6) 1. 0 
S3 S2- 8 f 0.05977(6) 1.0252(2) 0.37756(6) 1. 0 
S4 S2- 8 f 0.09091(6) 0.9172(2) 0.25588(7) 1. 0 
S5 S2- 8 f 0.03989(5) 0.7345(2) 0.44127(6) 1. 0 
S6 S2- 8 f 0.14655(5) 0.7591(2) 0.45863(6) 1. 0 
S7 S2- 8 f 0.22602(5) 0.5350(2) 0.59184(6) 1. 0 
S8 S2- 8 f 0.11383(5) 0.3927(2) 0.51319(7) 1. 0 
S9 S2- 8 f 0.22762(5) 0.8777(2) 0.63705(6) 1. 0 
S10 S2- 8 f 0.16963(5) 0.6377(2) 0.67820(6) 1. 0 
S11 S2- 8 f 0.05260(5) 0.6136(2) 0.56030(6) 1. 0 
S12 S2- 8 f 0.11126(5) 1.0003(2) 0.54631(7) 1. 0 
S13 S2- 8 f 0.07594(6) 0.8403(2) 0.66191(6) 1. 0 
S14 S2- 8 f 0.08378(6) 0.4690(2) 0.69181(7) 1. 0 
S15 S2- 8 f 0.18757(8) 0.3800(2) 0.46022(8) 1. 0 
S16 S2- 8 f 0.21286(5) 0.1602(2) 0.56378(6) 1. 0 
S17 S2- 8 f 0.18986(6) 0.1946(2) 0.67139(6) 1. 0 
S18 S2- 8 f 0.16965(6) 0.2172(2) 0.31162(7) 1. 0 
P1 P5+ 8 f 0.07174(5) 0.8057(2) 0.39991(6) 1. 0 
P2 P5+ 8 f 0.09774(5) 0.6242(2) 0.65221(6) 1. 0 
P3 P5+ 8 f 0.18378(5) 0.0637(2) 0.60893(6) 1. 0 
P4 P5+ 8 f 0.18249(6) 0.3743(2) 0.52944(6) 1. 0 
P5 P5+ 8 f 0.10093(5) 0.1405(2) 0.25334(6) 1. 0 

loop_
_atom_site_aniso_label
_atom_site_aniso_type_symbol
_atom_site_aniso_U_11
_atom_site_aniso_U_22
_atom_site_aniso_U_33
_atom_site_aniso_U_12
_atom_site_aniso_U_13
_atom_site_aniso_U_23
Th1 Th4+ 0.01653(14) 0.01268(15) 0.01049(14) 0 0.00841(12) 0
Th2 Th4+ 0.01485(10) 0.01379(11) 0.01077(10) 0.00030(8) 0.00819(8) 
-.00033(8)
K1 K1+ 0.0373(8) 0.0226(7) 0.0331(8) -.0024(6) 0.0270(7) -.0009(6)
K2 K1+ 0.0290(9) 0.0684(14) 0.0937(15) -.0084(9) 0.0346(10) -.0521(12)
K3 K1+ 0.0389(8) 0.0253(8) 0.0234(7) -.0047(7) 0.0106(7) -.0010(6)
K4 K1+ 0.0346(8) 0.0278(8) 0.0252(7) -.0019(6) 0.0189(7) -.0037(6)
K5 K1+ 0.0612(11) 0.0405(10) 0.0275(8) 0.0091(8) 0.0249(8) 0.0035(7)
S1 S2- 0.0320(8) 0.0144(7) 0.0134(7) 0.0002(7) 0.0123(7) 0.0010(6)
S2 S2- 0.0227(7) 0.0190(7) 0.0200(7) 0.0007(6) 0.0158(7) 0.0005(6)
S3 S2- 0.0293(8) 0.0138(7) 0.0120(7) 0.0025(6) 0.0092(6) -.0001(6)
S4 S2- 0.0314(8) 0.0175(8) 0.0397(9) 0.0057(7) 0.0277(8) 0.0086(7)
S5 S2- 0.0164(7) 0.0267(8) 0.0144(7) 0.0001(6) 0.0090(6) 0.0036(6)
S6 S2- 0.0184(7) 0.0211(8) 0.0165(7) 0.0036(6) 0.0120(6) 0.0047(6)
S7 S2- 0.0190(7) 0.0159(7) 0.0225(7) 0.0019(6) 0.0128(6) -.0008(6)
S8 S2- 0.0195(7) 0.0155(7) 0.0229(8) 0.0001(6) 0.0087(7) -.0028(6)
S9 S2- 0.0186(7) 0.0162(8) 0.0197(7) 0.0003(6) 0.0101(6) 0.0010(6)
S10 S2- 0.0195(7) 0.0306(9) 0.0138(7) 0.0009(7) 0.0105(6) -.0001(6)
S11 S2- 0.0177(7) 0.0345(9) 0.0132(7) -.0063(7) 0.0099(6) -.0062(6)
S12 S2- 0.0195(7) 0.0165(7) 0.0221(8) 0.0000(6) 0.0108(6) -.0037(6)
S13 S2- 0.0319(8) 0.0201(8) 0.0191(7) 0.0043(6) 0.0199(7) 0.0023(6)
S14 S2- 0.0365(9) 0.0199(8) 0.0236(8) -.0071(7) 0.0218(7) -.0015(6)
S15 S2- 0.0866(14) 0.0234(9) 0.037(1) 0.0155(10) 0.0507(11) 0.0087(8)
S16 S2- 0.0247(7) 0.0153(7) 0.0211(7) 0.0027(6) 0.0171(7) 0.0022(6)
S17 S2- 0.0286(8) 0.0223(8) 0.0190(7) -.0026(7) 0.0156(7) -.0073(6)
S18 S2- 0.0206(7) 0.0303(9) 0.0202(8) 0.0005(7) 0.0109(7) 0.0017(7)
P1 P5+ 0.0192(7) 0.0146(7) 0.0120(7) 0.0016(6) 0.0095(6) 0.0009(6)
P2 P5+ 0.0213(7) 0.0174(8) 0.0138(7) -.0020(6) 0.0123(6) -.0024(6)
P3 P5+ 0.0176(7) 0.0143(8) 0.0147(7) -.0010(6) 0.0100(6) -.0014(6)
P4 P5+ 0.0273(8) 0.0146(8) 0.0159(7) 0.0032(7) 0.0150(7) 0.0011(6)
P5 P5+ 0.0197(7) 0.0171(8) 0.0164(7) 0.0035(6) 0.0133(6) 0.0031(6)
#End of data_280655-ICSD


