data_201329-ICSD
#?2014 by Fachinformationszentrum Karlsruhe, and the U.S. Secretary of 
#Commerce on behalf of the United States.  All rights reserved.
_database_code_ICSD                201329
_audit_creation_date               1982/12/31
_audit_update_record               2006/04/01
_chemical_name_systematic          'Potassium Trifluorocadmate'
_chemical_formula_structural       'K (Cd F3)'
_chemical_formula_sum              'Cd1 F3 K1'
_publ_section_title                'The crystal structure of K Cd F3'
loop_
_citation_id
_citation_journal_abbrev
_citation_year
_citation_journal_volume
_citation_page_first
_citation_page_last
_citation_journal_id_ASTM
primary 'Journal de Physique (Paris)' 1982 43 1227 1232 JOPQAG
2 'Phase Transition' 1992 38 127 220 PHTRDP
_publ_author_name                  'Hidaka, M.;Hosogi, S.'
_cell_length_a                     6.103
_cell_length_b                     6.103
_cell_length_c                     8.66
_cell_angle_alpha                  90.
_cell_angle_beta                   90.
_cell_angle_gamma                  90.
_cell_volume                       322.56
_cell_formula_units_Z              4
_symmetry_space_group_name_H-M     'P b n m'
_symmetry_Int_Tables_number        62
_refine_ls_R_factor_all            .08
loop_
_symmetry_equiv_pos_site_id
_symmetry_equiv_pos_as_xyz
  1	'-x+.5, y+.5, z'
  2	'x, y, -z+.5'
  3	'x+.5, -y+.5, z+.5'
  4	'-x, -y, -z'
  5	'x+.5, -y+.5, -z'
  6	'-x, -y, z+.5'
  7	'-x+.5, y+.5, -z+.5'
  8	'x, y, z'
loop_
_atom_type_symbol
_atom_type_oxidation_number
Cd2+	2
F1-	-1
K1+	1
loop_
_atom_site_label
_atom_site_type_symbol
_atom_site_symmetry_multiplicity
_atom_site_Wyckoff_symbol
_atom_site_fract_x
_atom_site_fract_y
_atom_site_fract_z
_atom_site_occupancy
_atom_site_attached_hydrogens
_atom_site_B_iso_or_equiv
K1 K1+ 4 c -.0091(3) 0.0276(3) 0.25 1. 0 1.38(3) 
Cd1 Cd2+ 4 b 0.5 0 0 1. 0 0 
F1 F1- 4 c 0.0663(12) 0.4824(6) 0.25 1. 0 2.16(15) 
F2 F1- 8 d -.2889(4) 0.2885(4) 0.0268(3) 1. 0 1.12(6) 

#End of data_201329-ICSD


