data_130054-ICSD
#?2014 by Fachinformationszentrum Karlsruhe, and the U.S. Secretary of 
#Commerce on behalf of the United States.  All rights reserved.
_database_code_ICSD                130054
_audit_creation_date               2013/02/01
_chemical_name_systematic          'Calcium Tetrazirconium Oxide'
_chemical_formula_structural       'Ca Zr4 O9'
_chemical_formula_sum              'Ca1 O9 Zr4'
_publ_section_title
;
Stability of phases Ca Zr O3 and Ca Zr4 O9 incorpotated in the system 
CaO-ZrO2
;
loop_
_citation_id
_citation_journal_abbrev
_citation_year
_citation_journal_volume
_citation_page_first
_citation_page_last
_citation_journal_id_ASTM
primary 'Journal of Solid State Chemistry' 1989 79 218 231 JSSCBI
_publ_author_name                  'Dwivedi, A.;Cormack, A.N.'
_cell_length_a                     17.835
_cell_length_b                     14.739
_cell_length_c                     12.127
_cell_angle_alpha                  90.
_cell_angle_beta                   122.84
_cell_angle_gamma                  90.
_cell_volume                       2678.37
_cell_formula_units_Z              16
_symmetry_space_group_name_H-M     'C 1 2/c 1'
_symmetry_Int_Tables_number        15
loop_
_symmetry_equiv_pos_site_id
_symmetry_equiv_pos_as_xyz
  1	'x, -y, z+.5'
  2	'-x, -y, -z'
  3	'-x, y, -z+.5'
  4	'x, y, z'
  5	'x+.5, -y+.5, z+.5'
  6	'-x+.5, -y+.5, -z'
  7	'-x+.5, y+.5, -z+.5'
  8	'x+.5, y+.5, z'
loop_
_atom_type_symbol
_atom_type_oxidation_number
Ca2+	2
O2-	-2
Zr4+	4
loop_
_atom_site_label
_atom_site_type_symbol
_atom_site_symmetry_multiplicity
_atom_site_Wyckoff_symbol
_atom_site_fract_x
_atom_site_fract_y
_atom_site_fract_z
_atom_site_occupancy
_atom_site_attached_hydrogens
Zr1 Zr4+ 4 e 0 0.1838 0.25 1. 0 
Zr2 Zr4+ 4 e 0.5 0.1877 0.25 1. 0 
Zr3 Zr4+ 8 f 0.4005 0.1896 0.4498 1. 0 
Zr4 Zr4+ 8 f 0.8854 0.1877 0.4431 1. 0 
Zr5 Zr4+ 8 f 0.8101 0.1833 0.6648 1. 0 
Zr6 Zr4+ 8 f 0.5936 0.0655 0.5466 1. 0 
Zr7 Zr4+ 8 f 0.1027 0.0530 0.5592 1. 0 
Zr8 Zr4+ 8 f 0.6976 0.0598 0.3626 1. 0 
Zr9 Zr4+ 8 f 0.1983 0.0651 0.3499 1. 0 
Ca1 Ca2+ 4 e 0 0.0614 0.75 1. 0 
Ca2 Ca2+ 4 e 0.5 0.0665 0.75 1. 0 
Ca3 Ca2+ 8 f 0.3004 0.1878 0.6474 1. 0 
O1 O2- 8 f 0.1032 0.1738 0.2173 1. 0 
O2 O2- 8 f 0.3684 0.1698 0.2631 1. 0 
O3 O2- 8 f 0.7770 0.1593 0.4822 1. 0 
O4 O2- 8 f 0.5257 0.2102 0.4837 1. 0 
O5 O2- 8 f 0.2822 0.1643 0.4241 1. 0 
O6 O2- 8 f 0.4366 0.2192 0.6245 1. 0 
O7 O2- 8 f 0.1380 0.1811 0.6274 1. 0 
O8 O2- 8 f 0.9169 0.2102 0.6558 1. 0 
O9 O2- 8 f 0.6933 0.2013 0.6379 1. 0 
O10 O2- 8 f 0.1376 0.0529 0.7554 1. 0 
O11 O2- 8 f 0.1300 0.4597 0.2300 1. 0 
O12 O2- 8 f 0.0437 0.4357 0.4961 1. 0 
O13 O2- 8 f 0.7968 0.4742 0.4405 1. 0 
O14 O2- 8 f 0.5373 0.4272 0.4886 1. 0 
O15 O2- 8 f 0.2871 0.4571 0.4644 1. 0 
O16 O2- 8 f 0.4313 0.4134 0.6221 1. 0 
O17 O2- 8 f 0.9255 0.4122 0.6321 1. 0 
O18 O2- 8 f 0.2971 0.4278 0.8192 1. 0 

#End of data_130054-ICSD


