data_66014-ICSD
#?2014 by Fachinformationszentrum Karlsruhe, and the U.S. Secretary of 
#Commerce on behalf of the United States.  All rights reserved.
_database_code_ICSD                66014
_audit_creation_date               1990/12/27
_chemical_name_systematic          'Silver(II) Fluoride'
_chemical_formula_structural       'Ag F2'
_chemical_formula_sum              'Ag1 F2'
_publ_section_title                'Einkristalluntersuchungen an Ag F2'
loop_
_citation_id
_citation_journal_abbrev
_citation_year
_citation_journal_volume
_citation_page_first
_citation_page_last
_citation_journal_id_ASTM
primary 'Zeitschrift fuer Anorganische und Allgemeine Chemie (1950) (DE)'
 1990 588 77 83 ZAACAB
_publ_author_name
;
Jesih, A.;Lutar, K.;Zemva, B.;Bachmann, B.;Becker, S.;Mueller, 
B.G.;Hoppe, R.
;
_cell_length_a                     5.568(1)
_cell_length_b                     5.831(1)
_cell_length_c                     5.101(1)
_cell_angle_alpha                  90.
_cell_angle_beta                   90.
_cell_angle_gamma                  90.
_cell_volume                       165.61
_cell_formula_units_Z              4
_symmetry_space_group_name_H-M     'P b c a'
_symmetry_Int_Tables_number        61
_refine_ls_R_factor_all            .0347
loop_
_symmetry_equiv_pos_site_id
_symmetry_equiv_pos_as_xyz
  1	'x+.5, y, -z+.5'
  2	'x, -y+.5, z+.5'
  3	'-x+.5, y+.5, z'
  4	'-x, -y, -z'
  5	'-x+.5, -y, z+.5'
  6	'-x, y+.5, -z+.5'
  7	'x+.5, -y+.5, -z'
  8	'x, y, z'
loop_
_atom_type_symbol
_atom_type_oxidation_number
Ag2+	2
F1-	-1
loop_
_atom_site_label
_atom_site_type_symbol
_atom_site_symmetry_multiplicity
_atom_site_Wyckoff_symbol
_atom_site_fract_x
_atom_site_fract_y
_atom_site_fract_z
_atom_site_occupancy
_atom_site_attached_hydrogens
Ag1 Ag2+ 4 a 0 0 0 1. 0 
F1 F1- 8 c 0.3050(5) -.1309(6) 0.1846(6) 1. 0 

loop_
_atom_site_aniso_label
_atom_site_aniso_type_symbol
_atom_site_aniso_U_11
_atom_site_aniso_U_22
_atom_site_aniso_U_33
_atom_site_aniso_U_12
_atom_site_aniso_U_13
_atom_site_aniso_U_23
Ag1 Ag2+ 0.0108(2) 0.0139(2) 0.0136(4) 0.0006(3) -.0007(3) -.0026(3)
F1 F1- 0.0150(11) 0.0210(13) 0.0207(13) -.0054(11) -.0084(12) 0.0030(15)
#End of data_66014-ICSD


