data_108864-ICSD
#?2014 by Fachinformationszentrum Karlsruhe, and the U.S. Secretary of 
#Commerce on behalf of the United States.  All rights reserved.
_database_code_ICSD                108864
_audit_creation_date               2007/04/01
_chemical_name_systematic
;
Potassium Europium Cyclo-tetraphosphate(V)
;
_chemical_formula_structural       'K Eu (P O3)4'
_chemical_formula_sum              'Eu1 K1 O12 P4'
_publ_section_title
;
Crystal structure of potassium europium metaphosphate
;
loop_
_citation_id
_citation_journal_abbrev
_citation_year
_citation_journal_volume
_citation_page_first
_citation_page_last
_citation_journal_id_ASTM
primary 'Yingyong Huaxue' 1984 1 47 50 YIHUED
_publ_author_name
;
Hu Ninghai;Lin Yonghua;Zhou Qing-Lian;Liu Shu-Zhen
;
_cell_length_a                     7.932
_cell_length_b                     8.375
_cell_length_c                     7.261
_cell_angle_alpha                  90.
_cell_angle_beta                   92.05
_cell_angle_gamma                  90.
_cell_volume                       482.04
_cell_formula_units_Z              2
_symmetry_space_group_name_H-M     'P 1 21 1'
_symmetry_Int_Tables_number        4
_refine_ls_R_factor_all            .084
loop_
_symmetry_equiv_pos_site_id
_symmetry_equiv_pos_as_xyz
  1	'-x, y+.5, -z'
  2	'x, y, z'
loop_
_atom_type_symbol
_atom_type_oxidation_number
Eu3+	3
K1+	1
O2-	-2
P5+	5
loop_
_atom_site_label
_atom_site_type_symbol
_atom_site_symmetry_multiplicity
_atom_site_Wyckoff_symbol
_atom_site_fract_x
_atom_site_fract_y
_atom_site_fract_z
_atom_site_occupancy
_atom_site_attached_hydrogens
Eu1 Eu3+ 2 a 0.241 0.25 0.233 1. 0 
K1 K1+ 2 a 0.280 0.053 0.727 1. 0 
P1 P5+ 2 a 0.892 0.324 0.895 1. 0 
P2 P5+ 2 a 0.900 0.127 0.567 1. 0 
P3 P5+ 2 a 0.394 0.495 0.625 1. 0 
P4 P5+ 2 a 0.620 0.101 0.999 1. 0 
O1 O2- 2 a 0.822 0.483 0.915 1. 0 
O2 O2- 2 a 0.867 0.280 0.685 1. 0 
O3 O2- 2 a 0.784 0.205 0.008 1. 0 
O4 O2- 2 a 0.614 0.002 0.828 1. 0 
O5 O2- 2 a 0.076 0.483 0.315 1. 0 
O6 O2- 2 a 0.033 0.156 0.438 1. 0 
O7 O2- 2 a 0.475 0.204 0.028 1. 0 
O8 O2- 2 a 0.656 0.986 0.167 1. 0 
O9 O2- 2 a 0.730 0.127 0.453 1. 0 
O10 O2- 2 a 0.350 0.341 0.541 1. 0 
O11 O2- 2 a 0.067 0.295 0.957 1. 0 
O12 O2- 2 a 0.435 0.052 0.390 1. 0 

#End of data_108864-ICSD


