data_380487-ICSD
#?2014 by Fachinformationszentrum Karlsruhe, and the U.S. Secretary of 
#Commerce on behalf of the United States.  All rights reserved.
_database_code_ICSD                380487
_audit_creation_date               2011/02/01
_audit_update_record               2012/02/01
_chemical_name_systematic          'Tripotassium Dicopper Tetraoxide'
_chemical_formula_structural       'K3 Cu2 O4'
_chemical_formula_sum              'Cu2 K3 O4'
_publ_section_title
;
Syntheses and crystal structures of new chain alkalioxocuprates 
A(1+x) Cu O2 (A = K, Na)
;
loop_
_citation_id
_citation_journal_abbrev
_citation_year
_citation_journal_volume
_citation_journal_issue
_citation_page_first
_citation_page_last
_citation_journal_id_ASTM
primary 'Zeitschrift fuer Anorganische und Allgemeine Chemie (1950) (DE)'
 2010 636 11 2059 2059 ZAACAB
2 'Zeitschrift fuer Anorganische und Allgemeine Chemie (1950) (DE)'
 2011 637 9 1101 1107 ZAACAB
_publ_author_name
;
Duris, K.;Sofin, M.;Nuss, J.;Jansen, M.
;
_cell_length_a                     6.1275(4)
_cell_length_b                     8.9908(7)
_cell_length_c                     10.8708(8)
_cell_angle_alpha                  90.00
_cell_angle_beta                   90.00
_cell_angle_gamma                  90.00
_cell_volume                       598.88
_cell_formula_units_Z              4
_symmetry_space_group_name_H-M     'C m c m'
_symmetry_Int_Tables_number        63
_refine_ls_R_factor_all            .0429
loop_
_symmetry_equiv_pos_site_id
_symmetry_equiv_pos_as_xyz
  1	'-x, y, -z+.5'
  2	'-x, -y, z+.5'
  3	'-x, y, z'
  4	'-x, -y, -z'
  5	'x, -y, z+.5'
  6	'x, y, -z+.5'
  7	'x, -y, -z'
  8	'x, y, z'
  9	'-x+.5, y+.5, -z+.5'
 10	'-x+.5, -y+.5, z+.5'
 11	'-x+.5, y+.5, z'
 12	'-x+.5, -y+.5, -z'
 13	'x+.5, -y+.5, z+.5'
 14	'x+.5, y+.5, -z+.5'
 15	'x+.5, -y+.5, -z'
 16	'x+.5, y+.5, z'
loop_
_atom_type_symbol
_atom_type_oxidation_number
Cu2.5+	2.5
K1+	1
O2-	-2
loop_
_atom_site_label
_atom_site_type_symbol
_atom_site_symmetry_multiplicity
_atom_site_Wyckoff_symbol
_atom_site_fract_x
_atom_site_fract_y
_atom_site_fract_z
_atom_site_occupancy
_atom_site_attached_hydrogens
_atom_site_U_iso_or_equiv
Cu1 Cu2.5+ 4 a 0.0000 0.0000 0.0000 1 0 0.0165(2) 
Cu2 Cu2.5+ 4 c 0.0000 0.06068(10) 0.2500 1 0 0.0148(2) 
K1 K1+ 8 f 0.0000 0.34766(15) 0.06759(13) 1 0 0.0236(3) 
K2 K1+ 4 c 0.0000 0.6943(2) 0.2500 1 0 0.0226(3) 
O1 O2- 16 h 0.2952(5) 0.4377(4) 0.8859(3) 1 0 0.0234(6) 

loop_
_atom_site_aniso_label
_atom_site_aniso_type_symbol
_atom_site_aniso_U_11
_atom_site_aniso_U_22
_atom_site_aniso_U_33
_atom_site_aniso_U_12
_atom_site_aniso_U_13
_atom_site_aniso_U_23
Cu1 Cu2.5+ 0.0115(4) 0.0241(4) 0.0139(4) 0.000 0.000 -0.0037(3)
Cu2 Cu2.5+ 0.0127(4) 0.0169(4) 0.0149(4) 0.000 0.000 0.000
K1 K1+ 0.0198(5) 0.0238(5) 0.0274(6) 0.000 0.000 0.0055(5)
K2 K1+ 0.0169(7) 0.0259(8) 0.0249(8) 0.000 0.000 0.000
O1 O2- 0.0118(11) 0.0421(17) 0.0165(11) -0.0017(11) -0.0008(9) -0.0071(11)
#End of data_380487-ICSD


