data_165407-ICSD
#?2014 by Fachinformationszentrum Karlsruhe, and the U.S. Secretary of 
#Commerce on behalf of the United States.  All rights reserved.
_database_code_ICSD                165407
_audit_creation_date               2010/02/01
_audit_update_record               2010/08/01
_chemical_name_systematic
;
Dicalcium Vanadium(III) Phosphate(V) Diphosphate(V)
;
_chemical_formula_structural       'Ca2 V (P O4) (P2 O7)'
_chemical_formula_sum              'Ca2 O11 P3 V1'
_publ_section_title
;
Hydrothermal synthesis and structural characterization of two calcium 
vanadium(III) phosphates: Ca2 V (P O4) (H P O4)2 * (H2 O) and Ca2 V 
(P O4) (P2 O7)
;
loop_
_citation_id
_citation_journal_abbrev
_citation_year
_citation_journal_volume
_citation_journal_issue
_citation_page_first
_citation_page_last
_citation_journal_id_ASTM
primary 'Inorganic Chemistry' 1992 31 3 439 442 INOCAJ
_publ_author_name
;
Lii, K.-H.;Wen, N.S.;Su, C.-C.;Chueh, B.R.
;
_cell_length_a                     6.391(2)
_cell_length_b                     6.6362(9)
_cell_length_c                     19.071(2)
_cell_angle_alpha                  90.
_cell_angle_beta                   99.26(2)
_cell_angle_gamma                  90.
_cell_volume                       798.3
_cell_formula_units_Z              4
_symmetry_space_group_name_H-M     'P 1 21/c 1'
_symmetry_Int_Tables_number        14
_refine_ls_R_factor_all            .029
loop_
_symmetry_equiv_pos_site_id
_symmetry_equiv_pos_as_xyz
  1	'x, -y+.5, z+.5'
  2	'-x, -y, -z'
  3	'-x, y+.5, -z+.5'
  4	'x, y, z'
loop_
_atom_type_symbol
_atom_type_oxidation_number
Ca2+	2
O2-	-2
P5+	5
V3+	3
loop_
_atom_site_label
_atom_site_type_symbol
_atom_site_symmetry_multiplicity
_atom_site_Wyckoff_symbol
_atom_site_fract_x
_atom_site_fract_y
_atom_site_fract_z
_atom_site_occupancy
_atom_site_attached_hydrogens
_atom_site_B_iso_or_equiv
Ca1 Ca2+ 4 e 0.67011(18) 0.64524(19) 0.07768(6) 1. 0 0.95(4) 
Ca2 Ca2+ 4 e 0.67074(18) -0.01060(16) 0.27244(7) 1. 0 0.81(4) 
V1 V3+ 4 e 0.94683(13) 0.14427(13) 0.12229(5) 1. 0 0.33(3) 
P1 P5+ 4 e 0.42809(21) 0.15421(20) 0.08817(7) 1. 0 0.41(5) 
P2 P5+ 4 e 0.17104(22) -0.20579(20) 0.04854(7) 1. 0 0.49(5) 
P3 P5+ 4 e 0.18400(21) -0.01081(19) 0.27365(7) 1. 0 0.38(5) 
O1 O2- 4 e 0.9807(6) -0.1271(5) 0.08165(19) 1. 0 0.61(13) 
O2 O2- 4 e 0.2728(5) 0.2026(5) 0.13890(19) 1. 0 0.60(4) 
O3 O2- 4 e 0.3098(6) -0.3427(5) 0.09743(19) 1. 0 0.94(14) 
O4 O2- 4 e 0.6340(5) 0.0590(5) 0.12566(19) 1. 0 0.69(14) 
O5 O2- 4 e 0.4696(6) 0.3267(5) 0.04101(19) 1. 0 0.74(14) 
O6 O2- 4 e 0.9070(6) 0.2820(5) 0.02645(19) 1. 0 0.71(14) 
O7 O2- 4 e 0.3121(6) -0.0121(6) 0.03447(19) 1. 0 0.71(14) 
O8 O2- 4 e 0.9856(6) 0.0354(5) 0.21851(19) 1. 0 0.73(14) 
O9 O2- 4 e 0.3267(6) -0.1680(6) 0.24845(20) 1. 0 0.87(14) 
O10 O2- 4 e 0.9081(6) 0.4193(5) 0.15898(19) 1. 0 0.58(13) 
O11 O2- 4 e 0.3143(5) 0.1757(5) 0.29667(19) 1. 0 0.76(14) 

#End of data_165407-ICSD


