data_415208-ICSD
#?2014 by Fachinformationszentrum Karlsruhe, and the U.S. Secretary of 
#Commerce on behalf of the United States.  All rights reserved.
_database_code_ICSD                415208
_audit_creation_date               2006/10/01
_chemical_name_systematic
;
Europium Lithium Tetrathiophosphate
;
_chemical_formula_structural       'Eu Li P S4'
_chemical_formula_sum              'Eu1 Li1 P1 S4'
_publ_section_title
;
Der PrPS4-Strukturtyp und eine "aufgefuellte" Variante: Die 
Verbindungen TbPS4 und LiEuPS4
;
loop_
_citation_id
_citation_journal_abbrev
_citation_year
_citation_journal_volume
_citation_page_first
_citation_page_last
_citation_journal_id_ASTM
primary 'Zeitschrift fuer Naturforschung, B: Chemical Sciences'
 2005 60 705 708 ZNBSEN
_publ_author_name                  'Joergens, S.;Alili,L.;Mewis, A.'
_cell_length_a                     11.498(2)
_cell_length_b                     11.498(2)
_cell_length_c                     19.882(4)
_cell_angle_alpha                  90.
_cell_angle_beta                   90.
_cell_angle_gamma                  90.
_cell_volume                       2628.48
_cell_formula_units_Z              16
_symmetry_space_group_name_H-M     'I 41/a c d Z'
_symmetry_Int_Tables_number        142
_refine_ls_R_factor_all            .0637
loop_
_symmetry_equiv_pos_site_id
_symmetry_equiv_pos_as_xyz
  1	'y+.25, x+.75, -z+.75'
  2	'-y+.75, x+.75, -z+.25'
  3	'x, y+.5, -z'
  4	'-x, y+.5, -z+.5'
  5	'-y+.75, -x+.25, z+.25'
  6	'y+.25, -x+.25, z+.75'
  7	'-x, -y+.5, z'
  8	'x, -y+.5, z+.5'
  9	'y+.25, -x+.75, -z+.25'
 10	'-y+.75, -x+.75, -z+.75'
 11	'x, -y, -z+.5'
 12	'-x, -y, -z'
 13	'-y+.75, x+.25, z+.75'
 14	'y+.25, x+.25, z+.25'
 15	'-x, y, z+.5'
 16	'x, y, z'
 17	'y+.75, x+.25, -z+.25'
 18	'-y+.25, x+.25, -z+.75'
 19	'x+.5, y, -z+.5'
 20	'-x+.5, y, -z'
 21	'-y+.25, -x+.75, z+.75'
 22	'y+.75, -x+.75, z+.25'
 23	'-x+.5, -y, z+.5'
 24	'x+.5, -y, z'
 25	'y+.75, -x+.25, -z+.75'
 26	'-y+.25, -x+.25, -z+.25'
 27	'x+.5, -y+.5, -z'
 28	'-x+.5, -y+.5, -z+.5'
 29	'-y+.25, x+.75, z+.25'
 30	'y+.75, x+.75, z+.75'
 31	'-x+.5, y+.5, z'
 32	'x+.5, y+.5, z+.5'
loop_
_atom_type_symbol
_atom_type_oxidation_number
Eu2+	2
Li1+	1
P5+	5
S2-	-2
loop_
_atom_site_label
_atom_site_type_symbol
_atom_site_symmetry_multiplicity
_atom_site_Wyckoff_symbol
_atom_site_fract_x
_atom_site_fract_y
_atom_site_fract_z
_atom_site_occupancy
_atom_site_attached_hydrogens
_atom_site_U_iso_or_equiv
Eu1 Eu2+ 8 b 0.0000 0.2500 0.1250 1 0 0.01524(19) 
Eu2 Eu2+ 8 a 0.0000 0.2500 0.3750 1 0 0.01579(19) 
S1 S2- 32 g 0.24740(11) 0.31637(8) 0.91563(4) 1 0 0.01771(18) 
S2 S2- 32 g 0.10240(8) 0.11554(8) 0.00246(6) 1 0 0.01625(17) 
P1 P5+ 16 e 0.03493(11) 0.0000 0.2500 1 0 0.0114(2) 
Li1 Li1+ 16 e 0.2832(10) 0.0000 0.2500 1 0 0.033(3) 

loop_
_atom_site_aniso_label
_atom_site_aniso_type_symbol
_atom_site_aniso_U_11
_atom_site_aniso_U_22
_atom_site_aniso_U_33
_atom_site_aniso_U_12
_atom_site_aniso_U_13
_atom_site_aniso_U_23
Eu1 Eu2+ 0.0164(3) 0.0164(3) 0.0129(3) -0.00015(12) 0.000 0.000
Eu2 Eu2+ 0.0164(3) 0.0164(3) 0.0145(3) 0.000 0.000 0.000
S1 S2- 0.0166(4) 0.0194(4) 0.0171(4) 0.0002(4) 0.0011(4) 0.0070(3)
S2 S2- 0.0156(4) 0.0152(4) 0.0179(4) -0.0029(3) 0.0015(4) -0.0010(4)
P1 P5+ 0.0105(5) 0.0128(5) 0.0109(5) 0.000 0.000 0.0000(6)
Li1 Li1+ 0.015(4) 0.045(7) 0.040(7) 0.000 0.000 0.000(6)
#End of data_415208-ICSD


