data_107928-ICSD
#?2014 by Fachinformationszentrum Karlsruhe, and the U.S. Secretary of 
#Commerce on behalf of the United States.  All rights reserved.
_database_code_ICSD                107928
_audit_creation_date               2010/08/01
_chemical_name_systematic          'Potassium Gallium Sulfide'
_chemical_formula_structural       'K Ga S2'
_chemical_formula_sum              'Ga1 K1 S2'
_publ_section_title
;
Growth and crystal structure of the layered compound Tl Ga Se2
;
loop_
_citation_id
_citation_journal_abbrev
_citation_year
_citation_journal_volume
_citation_journal_issue
_citation_page_first
_citation_page_last
_citation_journal_id_ASTM
primary 'Crystal Research and Technology' 2007 42 7 663 666 CRTEDF
_publ_author_name
;
Delgado, G.E.;Mora, A.J.;Perez, F.V.;Gonzalez, J.
;
_cell_length_a                     10.425(3)
_cell_length_b                     10.4424(2)
_cell_length_c                     14.791(5)
_cell_angle_alpha                  90.
_cell_angle_beta                   100.16(2)
_cell_angle_gamma                  90.
_cell_volume                       1584.93
_cell_formula_units_Z              16
_symmetry_space_group_name_H-M     'C 1 2/c 1'
_symmetry_Int_Tables_number        15
_refine_ls_R_factor_all            .04
loop_
_symmetry_equiv_pos_site_id
_symmetry_equiv_pos_as_xyz
  1	'x, -y, z+.5'
  2	'-x, -y, -z'
  3	'-x, y, -z+.5'
  4	'x, y, z'
  5	'x+.5, -y+.5, z+.5'
  6	'-x+.5, -y+.5, -z'
  7	'-x+.5, y+.5, -z+.5'
  8	'x+.5, y+.5, z'
loop_
_atom_type_symbol
_atom_type_oxidation_number
Ga3+	3
K1+	1
S2-	-2
loop_
_atom_site_label
_atom_site_type_symbol
_atom_site_symmetry_multiplicity
_atom_site_Wyckoff_symbol
_atom_site_fract_x
_atom_site_fract_y
_atom_site_fract_z
_atom_site_occupancy
_atom_site_attached_hydrogens
_atom_site_U_iso_or_equiv
K1 K1+ 8 f 0.465 0.312 0.109 1. 0 0.0256 
K2 K1+ 8 f 0.285 0.063 0.390 1. 0 0.0327 
Ga1 Ga3+ 8 f 0.102 0.189 0.163 1. 0 0.0166 
Ga2 Ga3+ 8 f 0.145 0.436 0.338 1. 0 0.0173 
S1 S2- 4 e 0 0.060 0.250 1. 0 0.0126 
S2 S2- 4 e 0 0.570 0.250 1. 0 0.0097 
S3 S2- 8 f 0.199 0.062 0.076 1. 0 0.0248 
S4 S2- 8 f 0.255 0.310 0.250 1. 0 0.0292 
S5 S2- 8 f 0.045 0.313 0.432 1. 0 0.0220 

#End of data_107928-ICSD


