data_85558-ICSD
#?2014 by Fachinformationszentrum Karlsruhe, and the U.S. Secretary of 
#Commerce on behalf of the United States.  All rights reserved.
_database_code_ICSD                85558
_audit_creation_date               1999/06/02
_chemical_name_systematic          'Trisodium Iron Bis(phosphate(V))'
_chemical_formula_structural       'Na3 Fe (P O4)2'
_chemical_formula_sum              'Fe1 Na3 O8 P2'
_publ_section_title
;
Structure of Na3 Fe (P O4)2 from powder X-ray data
;
loop_
_citation_id
_citation_journal_abbrev
_citation_year
_citation_journal_volume
_citation_page_first
_citation_page_last
_citation_journal_id_ASTM
primary 'Annales de Chimie (Paris) (Vol=Year)' 1998 23 117 120 ANCPAC
_publ_author_name
;
Belkhiria, M.S.;Laaribi, S.;Ben Hadj Amara, A.;Ben Amara, M.
;
_cell_length_a                     9.0637(3)
_cell_length_b                     5.0281(2)
_cell_length_c                     13.8581(3)
_cell_angle_alpha                  90.
_cell_angle_beta                   91.434(2)
_cell_angle_gamma                  90.
_cell_volume                       631.36
_cell_formula_units_Z              4
_symmetry_space_group_name_H-M     'C 1 2/c 1'
_symmetry_Int_Tables_number        15
_refine_ls_R_factor_all            .064
loop_
_symmetry_equiv_pos_site_id
_symmetry_equiv_pos_as_xyz
  1	'x, -y, z+.5'
  2	'-x, -y, -z'
  3	'-x, y, -z+.5'
  4	'x, y, z'
  5	'x+.5, -y+.5, z+.5'
  6	'-x+.5, -y+.5, -z'
  7	'-x+.5, y+.5, -z+.5'
  8	'x+.5, y+.5, z'
loop_
_atom_type_symbol
_atom_type_oxidation_number
Fe3+	3
Na1+	1
O2-	-2
P5+	5
loop_
_atom_site_label
_atom_site_type_symbol
_atom_site_symmetry_multiplicity
_atom_site_Wyckoff_symbol
_atom_site_fract_x
_atom_site_fract_y
_atom_site_fract_z
_atom_site_occupancy
_atom_site_attached_hydrogens
_atom_site_B_iso_or_equiv
Fe1 Fe3+ 4 a 0 0 0 1. 0 0.56(8) 
P1 P5+ 8 f 0.1678(6) 0.5194(11) 0.3863(2) 1. 0 0.34(9) 
Na1 Na1+ 4 e 0 0.0481(21) 0.25 1. 0 1.63(21) 
Na2 Na1+ 8 f 0.3331(8) 0.0392(14) 0.3666(3) 1. 0 0.48(13) 
O1 O2- 8 f 0.1107(13) 0.3270(21) 0.4599(4) 1. 0 0.27(21) 
O2 O2- 8 f 0.3308(13) 0.594(2) 0.4151(4) 1. 0 0.27(21) 
O3 O2- 8 f 0.0776(12) 0.7819(19) 0.3834(5) 1. 0 0.3(2) 
O4 O2- 8 f 0.1669(13) 0.3870(19) 0.2864(4) 1. 0 0.76(24) 

#End of data_85558-ICSD


