data_15621-ICSD
#?2014 by Fachinformationszentrum Karlsruhe, and the U.S. Secretary of 
#Commerce on behalf of the United States.  All rights reserved.
_database_code_ICSD                15621
_audit_creation_date               1986/10/06
_audit_update_record               2006/04/01
_chemical_name_systematic          'Sodium Trifluoromanganate(II)'
_chemical_formula_structural       'Na (Mn F3)'
_chemical_formula_sum              'F3 Mn1 Na1'
_publ_section_title
;
Distorsioni cristallografiche nelle strutture A B F3. Nota I.: 
Struttura cristallina di Na Mn F3
;
loop_
_citation_id
_citation_journal_abbrev
_citation_year
_citation_journal_volume
_citation_page_first
_citation_page_last
_citation_journal_id_ASTM
primary 'Ricerca Scientifica' 1969 39 21 34 RISCAZ
2 'Golden Book of Phase Transitions, Wroclaw' 2002 1 1 123 GBOPT5
_publ_author_name                  'Pompa, F.;Siciliano, F.'
_cell_length_a                     5.747
_cell_length_b                     8.004
_cell_length_c                     5.548
_cell_angle_alpha                  90.
_cell_angle_beta                   90.
_cell_angle_gamma                  90.
_cell_volume                       255.2
_cell_formula_units_Z              4
_symmetry_space_group_name_H-M     'P n m a'
_symmetry_Int_Tables_number        62
loop_
_symmetry_equiv_pos_site_id
_symmetry_equiv_pos_as_xyz
  1	'x+.5, y, -z+.5'
  2	'x, -y+.5, z'
  3	'-x+.5, y+.5, z+.5'
  4	'-x, -y, -z'
  5	'-x+.5, -y, z+.5'
  6	'-x, y+.5, -z'
  7	'x+.5, -y+.5, -z+.5'
  8	'x, y, z'
loop_
_atom_type_symbol
_atom_type_oxidation_number
F1-	-1
Mn2+	2
Na1+	1
loop_
_atom_site_label
_atom_site_type_symbol
_atom_site_symmetry_multiplicity
_atom_site_Wyckoff_symbol
_atom_site_fract_x
_atom_site_fract_y
_atom_site_fract_z
_atom_site_occupancy
_atom_site_attached_hydrogens
_atom_site_B_iso_or_equiv
Mn1 Mn2+ 4 b 0.5 0.5 0 1. 0 1.25 
Na1 Na1+ 4 c 0.0532 0.25 0.0074 1. 0 2.06 
F1 F1- 4 c 0.4466 0.25 0.1208 1. 0 0.42 
F2 F1- 8 d 0.1935 0.5578 0.1876 1. 0 2. 

#End of data_15621-ICSD


