data_424194-ICSD
#?2014 by Fachinformationszentrum Karlsruhe, and the U.S. Secretary of 
#Commerce on behalf of the United States.  All rights reserved.
_database_code_ICSD                424194
_audit_creation_date               2014/02/01
_chemical_name_systematic
;
Lithium Sodium Cobalt Fluoro Phosphate(V)
;
_chemical_formula_structural       'Li Na Co (P O4) F'
_chemical_formula_sum              'Co1 F1 Li1 Na1 O4 P1'
_publ_section_title
;
Synthesis and characterization of the crystal structure and magnetic 
properties of the new fluorophosphate Li Na Co [P O4] F
;
loop_
_citation_id
_citation_journal_abbrev
_citation_year
_citation_journal_volume
_citation_journal_issue
_citation_page_first
_citation_page_last
_citation_journal_id_ASTM
primary 'Inorganic Chemistry' 2012 51 16 8729 8738 INOCAJ
_publ_author_name
;
Hamdi Ben Yahia;Shikano, M.;Koike, S.;Tatsumi, K.;Kobayashi, 
H.;Kawaji, H.;Adeev, M.;Miiller, W.;Ling, C.D.;Jia Liu;Myung-Hwan 
Whangbo
;
_cell_length_a                     10.9334(6)
_cell_length_b                     6.2934(11)
_cell_length_c                     11.3556(10)
_cell_angle_alpha                  90
_cell_angle_beta                   90
_cell_angle_gamma                  90
_cell_volume                       781.36
_cell_formula_units_Z              8
_symmetry_space_group_name_H-M     'P n m a'
_symmetry_Int_Tables_number        62
_refine_ls_R_factor_all            .0282
loop_
_symmetry_equiv_pos_site_id
_symmetry_equiv_pos_as_xyz
  1	'x+.5, y, -z+.5'
  2	'x, -y+.5, z'
  3	'-x+.5, y+.5, z+.5'
  4	'-x, -y, -z'
  5	'-x+.5, -y, z+.5'
  6	'-x, y+.5, -z'
  7	'x+.5, -y+.5, -z+.5'
  8	'x, y, z'
loop_
_atom_type_symbol
_atom_type_oxidation_number
Co2+	2
F1-	-1
Li1+	1
Na1+	1
O2-	-2
P5+	5
loop_
_atom_site_label
_atom_site_type_symbol
_atom_site_symmetry_multiplicity
_atom_site_Wyckoff_symbol
_atom_site_fract_x
_atom_site_fract_y
_atom_site_fract_z
_atom_site_occupancy
_atom_site_attached_hydrogens
_atom_site_U_iso_or_equiv
Na1 Na1+ 8 d 0.22335(13) 0.00825(19) 0.34659(12) 1 0 0.0203(4) 
Li1 Li1+ 4 c 0.2738(7) 0.25 0.5903(6) 1 0 0.013(2) 
Li2 Li1+ 4 c -0.0506(7) 0.25 0.2676(7) 1 0 0.015(2) 
Co1 Co2+ 4 a 0 0 0 1 0 0.00965(19) 
Co2 Co2+ 4 b 0 0 0.5 1 0 0.00975(19) 
P1 P5+ 4 c 0.04193(11) 0.25 0.74266(10) 1 0 0.0098(3) 
P2 P5+ 4 c 0.24660(9) 0.25 0.07828(11) 1 0 0.0093(3) 
O1 O2- 8 d 0.18045(18) 0.0490(3) 0.03573(19) 1 0 0.0131(6) 
O2 O2- 4 c 0.2659(3) 0.25 0.2096(3) 1 0 0.0150(10) 
O3 O2- 4 c 0.1814(3) 0.25 0.7418(3) 1 0 0.0139(10) 
O4 O2- 4 c 0.3752(3) 0.25 0.0164(3) 1 0 0.0130(9) 
O5 O2- 4 c 0.4921(2) 0.25 0.6288(3) 1 0 0.0120(9) 
O6 O2- 8 d 0.00739(19) 0.5483(3) 0.31988(19) 1 0 0.0116(6) 
F1 F1- 4 c 0.1276(2) 0.25 0.4731(2) 1 0 0.0140(8) 
F2 F1- 4 c 0.4410(2) 0.25 0.3935(2) 1 0 0.0158(8) 

loop_
_atom_site_aniso_label
_atom_site_aniso_type_symbol
_atom_site_aniso_U_11
_atom_site_aniso_U_22
_atom_site_aniso_U_33
_atom_site_aniso_U_12
_atom_site_aniso_U_13
_atom_site_aniso_U_23
Na1 Na1+ 0.0223(7) 0.0184(8) 0.0203(8) 0.0026(5) 0.0034(5) 0.0020(6)
Li1 Li1+ 0.017(4) 0.010(4) 0.011(4) 0 0.007(3) 0
Li2 Li1+ 0.012(4) 0.020(4) 0.014(4) 0 0.002(3) 0
Co1 Co2+ 0.0088(3) 0.0089(4) 0.0113(3) -0.00033(19) -0.0001(2) 0.0004(3)
Co2 Co2+ 0.0101(3) 0.0084(3) 0.0107(3) 0.00019(19) 0.0000(2) 0.0000(3)
P1 P5+ 0.0105(5) 0.0098(5) 0.0089(6) 0 -0.0003(4) 0
P2 P5+ 0.0082(5) 0.0086(5) 0.0111(5) 0 0.0003(4) 0
O1 O2- 0.0096(11) 0.0120(11) 0.0176(11) -0.0007(8) -0.0007(8) -0.0011(10)
O2 O2- 0.0183(18) 0.0142(17) 0.0126(16) 0 -0.0008(12) 0
O3 O2- 0.0114(17) 0.0130(16) 0.0173(17) 0 -0.0004(12) 0
O4 O2- 0.0103(15) 0.0088(15) 0.0199(17) 0 0.0021(12) 0
O5 O2- 0.0141(16) 0.0136(17) 0.0082(16) 0 -0.0017(11) 0
O6 O2- 0.0159(11) 0.0106(11) 0.0082(10) 0.0015(8) 0.0000(8) 0.0002(10)
F1 F1- 0.0128(13) 0.0111(13) 0.0180(14) 0 -0.0001(10) 0
F2 F1- 0.0231(15) 0.0125(13) 0.0118(13) 0 -0.0013(10) 0
#End of data_424194-ICSD


