data_240892-ICSD
#?2014 by Fachinformationszentrum Karlsruhe, and the U.S. Secretary of 
#Commerce on behalf of the United States.  All rights reserved.
_database_code_ICSD                240892
_audit_creation_date               2008/08/01
_chemical_name_systematic
;
Dipotassium Hexafluoridozirconate(IV) Hydrogen Fluoride
;
_chemical_formula_structural       'K2 (Zr F6) (H F)'
_chemical_formula_sum              'H1 F7 K2 Zr1'
_publ_section_title
;
Dipotassium hexafluoridozirconate(IV) hydrogen fluoride, K2 Zr F6 * H 
F
;
loop_
_citation_id
_citation_journal_abbrev
_citation_year
_citation_journal_volume
_citation_journal_issue
_citation_page_first
_citation_page_last
_citation_journal_id_ASTM
primary 'Acta Crystallographica, Section E. Structure Reports Online'
 2007 63 8 i171 i171 ACSEBH
_publ_author_name
;
Gerasimenko, A.V.;Didenko, N.A.;Kavun, V.Ya.
;
_cell_length_a                     13.3641(5)
_cell_length_b                     11.4457(4)
_cell_length_c                     8.5211(3)
_cell_angle_alpha                  90.00
_cell_angle_beta                   90.00
_cell_angle_gamma                  90.00
_cell_volume                       1303.4
_cell_formula_units_Z              8
_symmetry_space_group_name_H-M     'P b c a'
_symmetry_Int_Tables_number        61
_refine_ls_R_factor_all            .03
loop_
_symmetry_equiv_pos_site_id
_symmetry_equiv_pos_as_xyz
  1	'x+.5, y, -z+.5'
  2	'x, -y+.5, z+.5'
  3	'-x+.5, y+.5, z'
  4	'-x, -y, -z'
  5	'-x+.5, -y, z+.5'
  6	'-x, y+.5, -z+.5'
  7	'x+.5, -y+.5, -z'
  8	'x, y, z'
loop_
_atom_type_symbol
_atom_type_oxidation_number
F1-	-1
H1+	1
K1+	1
Zr4+	4
loop_
_atom_site_label
_atom_site_type_symbol
_atom_site_symmetry_multiplicity
_atom_site_Wyckoff_symbol
_atom_site_fract_x
_atom_site_fract_y
_atom_site_fract_z
_atom_site_occupancy
_atom_site_attached_hydrogens
_atom_site_U_iso_or_equiv
Zr1 Zr4+ 8 c 0.118901(5) 0.040452(6) 0.094477(8) 1 0 0.008460(10) 
K1 K1+ 8 c 0.170769(16) 0.740441(15) 0.84850(2) 1 0 0.01749(3) 
K2 K1+ 8 c 0.106835(15) 0.06846(2) 0.61088(3) 1 0 0.01853(3) 
F1 F1- 8 c 0.08118(5) -0.02918(5) 0.30531(7) 1 0 0.01728(10) 
F2 F1- 8 c 0.20020(4) -0.10800(5) 0.07447(7) 1 0 0.01528(9) 
F3 F1- 8 c 0.04308(4) -0.06348(6) -0.08217(8) 1 0 0.02043(11) 
F4 F1- 8 c 0.25374(5) 0.09337(6) 0.16899(10) 1 0 0.02846(15) 
F5 F1- 8 c 0.15406(7) 0.12846(7) -0.09782(8) 1 0 0.02574(14) 
F6 F1- 8 c 0.08494(5) 0.19919(5) 0.20043(8) 1 0 0.02147(12) 
F7 F1- 8 c -0.03330(6) 0.18673(8) 0.40966(9) 1 0 0.02981(17) 
H1 H1+ 8 c 0.0108(18) 0.198(2) 0.335(3) 1 0 0.045 

loop_
_atom_site_aniso_label
_atom_site_aniso_type_symbol
_atom_site_aniso_U_11
_atom_site_aniso_U_22
_atom_site_aniso_U_33
_atom_site_aniso_U_12
_atom_site_aniso_U_13
_atom_site_aniso_U_23
Zr1 Zr4+ 0.00841(2) 0.00835(2) 0.00861(3) -0.00061(2) -0.00108(2) 
0.00001(2)
K1 K1+ 0.02166(7) 0.01343(5) 0.01738(7) -0.00241(5) 0.00038(5) -0.00296(5)
K2 K1+ 0.01207(6) 0.02388(7) 0.01963(7) 0.00100(5) -0.00039(5) -0.00405(6)
F1 F1- 0.0187(2) 0.0189(2) 0.0143(2) 0.00307(17) 0.00298(17) 0.00444(16)
F2 F1- 0.01427(19) 0.01355(17) 0.0180(2) 0.00254(15) -0.00253(16) 
-0.00328(15)
F3 F1- 0.01218(19) 0.0261(2) 0.0230(2) 0.00429(18) -0.00479(17) 
-0.01411(19)
F4 F1- 0.0159(2) 0.0211(2) 0.0483(4) -0.00098(19) -0.0129(3) -0.0108(3)
F5 F1- 0.0333(3) 0.0260(3) 0.0179(3) -0.0053(3) 0.0052(2) 0.0075(2)
F6 F1- 0.0268(3) 0.01294(18) 0.0247(3) -0.00303(18) 0.0042(2) -0.00626(18)
F7 F1- 0.0254(3) 0.0383(4) 0.0258(3) 0.0039(3) 0.0074(2) -0.0036(3)
#End of data_240892-ICSD


