data_24456-ICSD
#?2014 by Fachinformationszentrum Karlsruhe, and the U.S. Secretary of 
#Commerce on behalf of the United States.  All rights reserved.
_database_code_ICSD                24456
_audit_creation_date               1980/01/01
_audit_update_record               2012/02/01
_chemical_name_systematic
;
Iron Dialuminium Bis(phosphate(V)) Dihydroxide Octahydrate
;
_chemical_formula_structural       'Fe Al2 (P O4)2 (O H)2 (H2 O)8'
_chemical_formula_sum              'H18 Al2 Fe1 O18 P2'
_chemical_name_mineral             Paravauxite
_publ_section_title
;
The crystal structure of paravauxite, Fe Al2 (P O4)2 (O H)2 (O H2)6 
(H2 O)2
;
loop_
_citation_id
_citation_journal_abbrev
_citation_year
_citation_journal_volume
_citation_page_first
_citation_page_last
_citation_journal_id_ASTM
primary 'Neues Jahrbuch fuer Mineralogie. Monatshefte (Band=Jahr) (1950-)'
 1969 1969 430 433 NJMMAW
_publ_author_name                  'Baur, W.H.'
_cell_length_a                     5.233
_cell_length_b                     10.541
_cell_length_c                     6.962
_cell_angle_alpha                  106.9
_cell_angle_beta                   110.8
_cell_angle_gamma                  72.1
_cell_volume                       334.43
_cell_formula_units_Z              1
_symmetry_space_group_name_H-M     'P -1'
_symmetry_Int_Tables_number        2
_refine_ls_R_factor_all            .054
loop_
_symmetry_equiv_pos_site_id
_symmetry_equiv_pos_as_xyz
  1	'-x, -y, -z'
  2	'x, y, z'
loop_
_atom_type_symbol
_atom_type_oxidation_number
Al3+	3
Fe2+	2
H1+	1
O2-	-2
P5+	5
loop_
_atom_site_label
_atom_site_type_symbol
_atom_site_symmetry_multiplicity
_atom_site_Wyckoff_symbol
_atom_site_fract_x
_atom_site_fract_y
_atom_site_fract_z
_atom_site_occupancy
_atom_site_attached_hydrogens
_atom_site_B_iso_or_equiv
Fe1 Fe2+ 1 a 0 0 0 1. 0 1.1 
Al1 Al3+ 1 c 0 0.5 0 1. 0 0.6 
Al2 Al3+ 1 g 0 0.5 0.5 1. 0 0.6 
P1 P5+ 2 i 0.3431 0.6665 0.9224 1. 0 0.6 
O1 O2- 2 i 0.1639 0.6481 0.042 1. 0 0.8 
O2 O2- 2 i 0.2935 0.5759 0.7002 1. 0 0.9 
O3 O2- 2 i 0.2691 0.8167 0.9069 1. 0 1.2 
O4 O2- 2 i 0.3405 0.372 0.9567 1. 0 0.8 
O5 O2- 2 i 0.1398 0.5034 0.2912 1. 0 0.9 
O6 O2- 2 i 0.2333 0.3189 0.5437 1. 0 1.1 
O7 O2- 2 i 0.2474 0.0124 0.3195 1. 0 2.2 
O8 O2- 2 i 0.2225 0.1085 0.9283 1. 0 2.3 
O9 O2- 2 i 0.264 0.8072 0.505 1. 0 2.1 
H1 H1+ 2 i 0.31 0.5 0.3 1. 0 3. 
H2 H1+ 2 i 0.27 0.3 0.68 1. 0 3. 
H3 H1+ 2 i 0.41 0.3 0.52 1. 0 3. 
H4 H1+ 2 i 0.25 0.08 0.39 1. 0 3. 
H5 H1+ 2 i 0.25 0.93 0.37 1. 0 3. 
H6 H1+ 2 i 0.17 0.16 0.95 1. 0 3. 
H7 H1+ 2 i 0.36 0.14 0.03 1. 0 3. 
H8 H1+ 2 i 0.3 0.75 0.64 1. 0 3. 
H9 H1+ 2 i 0.16 0.74 0.46 1. 0 3. 

#End of data_24456-ICSD


