data_415375-ICSD
#?2014 by Fachinformationszentrum Karlsruhe, and the U.S. Secretary of 
#Commerce on behalf of the United States.  All rights reserved.
_database_code_ICSD                415375
_audit_creation_date               2007/08/01
_chemical_name_systematic
;
Dipotassium Sulfato(VI)trifluoromanganate(III) - Lt
;
_chemical_formula_structural       'K2 (Mn F3 (S O4))'
_chemical_formula_sum              'F3 K2 Mn1 O4 S1'
_publ_section_title
;
Jahn-Teller-Ordnung in Mangan(III)-fluoridsulfaten.  II. 
Phasen?bergang und Verzwillingung bei K2 (Mn F3 (S O4)) und 1D 
Magnetismus in Verbindungen A2 (Mn F3 (S O4)) (A = K, N H4, Rb, Cs)
;
loop_
_citation_id
_citation_journal_abbrev
_citation_year
_citation_journal_volume
_citation_page_first
_citation_page_last
_citation_journal_id_ASTM
primary 'Zeitschrift fuer Anorganische und Allgemeine Chemie (1950) (DE)'
 2005 631 1785 1792 ZAACAB
_publ_author_name
;
Klein, U.;Hahn, F.;Massa, W.;Pebler, J.
;
_cell_length_a                     7.1965(8)
_cell_length_b                     10.7044(12)
_cell_length_c                     8.4273(12)
_cell_angle_alpha                  90.00
_cell_angle_beta                   91.843(10)
_cell_angle_gamma                  90.00
_cell_volume                       648.85
_cell_formula_units_Z              4
_symmetry_space_group_name_H-M     'P 1 21/c 1'
_symmetry_Int_Tables_number        14
_refine_ls_R_factor_all            .0203
loop_
_symmetry_equiv_pos_site_id
_symmetry_equiv_pos_as_xyz
  1	'x, -y+.5, z+.5'
  2	'-x, -y, -z'
  3	'-x, y+.5, -z+.5'
  4	'x, y, z'
loop_
_atom_type_symbol
_atom_type_oxidation_number
F1-	-1
K1+	1
Mn3+	3
O2-	-2
S6+	6
loop_
_atom_site_label
_atom_site_type_symbol
_atom_site_symmetry_multiplicity
_atom_site_Wyckoff_symbol
_atom_site_fract_x
_atom_site_fract_y
_atom_site_fract_z
_atom_site_occupancy
_atom_site_attached_hydrogens
_atom_site_U_iso_or_equiv
K1 K1+ 4 e 0.19168(3) 0.19121(2) 0.32757(3) 1 0 0.01006(6) 
K2 K1+ 4 e -0.30480(3) 0.30898(2) 0.17368(3) 1 0 0.00976(6) 
Mn1 Mn3+ 2 b 0.5000 0.0000 0.0000 1 0 0.00515(6) 
Mn2 Mn3+ 2 a 0.0000 0.0000 0.0000 1 0 0.00493(6) 
S1 S6+ 4 e 0.74936(4) -0.00044(2) 0.31242(3) 1 0 0.00644(6) 
F1 F1- 4 e 0.47610(10) 0.33720(7) 0.43991(8) 1 0 0.00861(13) 
F2 F1- 4 e -0.02705(10) 0.16243(7) 0.05384(9) 1 0 0.00864(13) 
F3 F1- 4 e 0.24124(10) 0.00111(7) 0.11065(9) 1 0 0.00864(13) 
O1 O2- 4 e 0.10935(12) 0.43805(8) 0.28648(10) 1 0 0.00898(15) 
O2 O2- 4 e 0.60645(12) 0.06018(8) 0.20065(10) 1 0 0.00805(15) 
O3 O2- 4 e 0.65949(13) -0.09487(9) 0.40668(11) 1 0 0.01288(17) 
O4 O2- 4 e 0.83340(13) 0.10012(9) 0.40572(11) 1 0 0.01201(16) 

loop_
_atom_site_aniso_label
_atom_site_aniso_type_symbol
_atom_site_aniso_U_11
_atom_site_aniso_U_22
_atom_site_aniso_U_33
_atom_site_aniso_U_12
_atom_site_aniso_U_13
_atom_site_aniso_U_23
K1 K1+ 0.01192(12) 0.00794(11) 0.01013(11) -0.00079(8) -0.00240(8) 
-0.00001(8)
K2 K1+ 0.01132(11) 0.00809(11) 0.01006(10) 0.00063(8) 0.00321(8) 
-0.00021(8)
Mn1 Mn3+ 0.00448(10) 0.00462(11) 0.00637(11) 0.00022(7) 0.00048(7) 
0.00018(7)
Mn2 Mn3+ 0.00440(10) 0.00427(10) 0.00614(11) 0.00035(7) 0.00056(7) 
-0.00054(7)
S1 S6+ 0.00601(12) 0.00743(12) 0.00591(11) -0.00058(8) 0.00053(8) 
0.00024(8)
F1 F1- 0.0101(3) 0.0054(3) 0.0103(3) -0.0007(2) -0.0001(2) -0.0010(2)
F2 F1- 0.0097(3) 0.0054(3) 0.0108(3) 0.0010(2) 0.0013(2) -0.0009(2)
F3 F1- 0.0058(3) 0.0110(3) 0.0091(3) 0.0000(2) 0.0008(2) 0.0004(2)
O1 O2- 0.0093(3) 0.0089(4) 0.0089(3) -0.0011(3) 0.0025(3) -0.0002(3)
O2 O2- 0.0091(3) 0.0075(4) 0.0075(3) 0.0008(3) -0.0010(3) -0.0003(3)
O3 O2- 0.0107(4) 0.0159(4) 0.0122(4) -0.0020(3) 0.0014(3) 0.0073(3)
O4 O2- 0.0104(4) 0.0135(4) 0.0120(4) -0.0016(3) -0.0011(3) -0.0059(3)
#End of data_415375-ICSD


