data_406087-ICSD
#?2014 by Fachinformationszentrum Karlsruhe, and the U.S. Secretary of 
#Commerce on behalf of the United States.  All rights reserved.
_database_code_ICSD                406087
_audit_creation_date               1997/11/10
_chemical_name_systematic
;
Tripotassium Tri-mue-imido-cyclo-triphosphate(V)
;
_chemical_formula_structural       'K3 (P O2 (N H))3'
_chemical_formula_sum              'H3 K3 N3 O6 P3'
_publ_section_title
;
Synthesen, Kristallstrukturen und Eigenschaften von Trisilber- und 
Trikalium-tri-mue-imido-cyclotriphosphat, Ag3 (P O2 N H)3 und K3 (P 
O2 NH)3
;
loop_
_citation_id
_citation_journal_abbrev
_citation_year
_citation_journal_volume
_citation_page_first
_citation_page_last
_citation_journal_id_ASTM
primary 'Zeitschrift fuer Naturforschung, B: Chemical Sciences'
 1997 52 251 255 ZNBSEN
_publ_author_name                  'Stock, N.;Schnick, W.'
_cell_length_a                     12.714(2)
_cell_length_b                     12.714(2)
_cell_length_c                     10.179(2)
_cell_angle_alpha                  90.
_cell_angle_beta                   90.
_cell_angle_gamma                  120.
_cell_volume                       1424.95
_cell_formula_units_Z              6
_symmetry_space_group_name_H-M     'R -3 H'
_symmetry_Int_Tables_number        148
_refine_ls_R_factor_all            .0689
loop_
_symmetry_equiv_pos_site_id
_symmetry_equiv_pos_as_xyz
  1	'x-y, x, -z'
  2	'y, -x+y, -z'
  3	'-x, -y, -z'
  4	'-x+y, -x, z'
  5	'-y, x-y, z'
  6	'x, y, z'
  7	'x-y+.6666, x+.3333, -z+.3333'
  8	'x-y+.3333, x+.6666, -z+.6666'
  9	'y+.6666, -x+y+.3333, -z+.3333'
 10	'y+.3333, -x+y+.6666, -z+.6666'
 11	'-x+.6666, -y+.3333, -z+.3333'
 12	'-x+.3333, -y+.6666, -z+.6666'
 13	'-x+y+.6666, -x+.3333, z+.3333'
 14	'-x+y+.3333, -x+.6666, z+.6666'
 15	'-y+.6666, x-y+.3333, z+.3333'
 16	'-y+.3333, x-y+.6666, z+.6666'
 17	'x+.6666, y+.3333, z+.3333'
 18	'x+.3333, y+.6666, z+.6666'
loop_
_atom_type_symbol
_atom_type_oxidation_number
H1+	1
K1+	1
N3-	-3
O2-	-2
P5+	5
loop_
_atom_site_label
_atom_site_type_symbol
_atom_site_symmetry_multiplicity
_atom_site_Wyckoff_symbol
_atom_site_fract_x
_atom_site_fract_y
_atom_site_fract_z
_atom_site_occupancy
_atom_site_attached_hydrogens
_atom_site_U_iso_or_equiv
P1 P5+ 18 f 0.54346(9) 0.35598(9) 0.13342(10) 1. 0 0 
K1 K1+ 18 f 0.40005(10) 0.10542(10) -.07683(10) 1. 0 0 
O1 O2- 18 f 0.4632(3) 0.3721(3) 0.2299(3) 1. 0 0 
O2 O2- 18 f 0.5231(3) 0.3616(3) -.0101(3) 1. 0 0 
N1 N3- 18 f 0.6876(3) 0.4651(3) 0.1696(3) 1. 0 0 
H1 H1+ 18 f 0.6907(3) 0.4994(3) 0.2496(3) 1. 0 0.029(16) 

loop_
_atom_site_aniso_label
_atom_site_aniso_type_symbol
_atom_site_aniso_U_11
_atom_site_aniso_U_22
_atom_site_aniso_U_33
_atom_site_aniso_U_12
_atom_site_aniso_U_13
_atom_site_aniso_U_23
P1 P5+ 0.0140(5) 0.0150(5) 0.0165(5) 0.0081(4) -.0013(4) 0.0003(4)
K1 K1+ 0.0299(5) 0.0341(6) 0.0218(5) 0.0199(5) -.0041(4) -.0051(4)
O1 O2- 0.0173(15) 0.023(2) 0.032(2) 0.0121(13) 0.0037(12) -.0010(13)
O2 O2- 0.031(2) 0.027(2) 0.0197(15) 0.0124(15) -.0089(13) 0.0013(13)
N1 N3- 0.016(2) 0.015(2) 0.018(2) 0.0075(13) -.0005(13) -.0022(12)
#End of data_406087-ICSD


