data_181341-ICSD
#?2014 by Fachinformationszentrum Karlsruhe, and the U.S. Secretary of 
#Commerce on behalf of the United States.  All rights reserved.
_database_code_ICSD                181341
_audit_creation_date               2012/02/01
_chemical_name_systematic          'Lithium Iron Phosphate'
_chemical_formula_structural       'Li Fe (P O4)'
_chemical_formula_sum              'Fe1 Li1 O4 P1'
_publ_section_title
;
Crystal structure and lithium electrochemical extraction properties 
of olivine type Li Fe P O4
;
loop_
_citation_id
_citation_journal_abbrev
_citation_year
_citation_journal_volume
_citation_page_first
_citation_page_last
_citation_journal_id_ASTM
primary 'Materials Chemistry and Physics' 2011 129 756 760 MCHPDR
_publ_author_name                  'Dong, Y.-Z.;Zhao, Y.-M.;Duan, H.'
_cell_length_a                     10.321971(15
_cell_length_b                     6.004723(7)
_cell_length_c                     4.691035(9)
_cell_angle_alpha                  90.
_cell_angle_beta                   90.
_cell_angle_gamma                  90.
_cell_volume                       290.75
_cell_formula_units_Z              4
_symmetry_space_group_name_H-M     'P n m a'
_symmetry_Int_Tables_number        62
_refine_ls_R_factor_all            .0456
loop_
_symmetry_equiv_pos_site_id
_symmetry_equiv_pos_as_xyz
  1	'x+.5, y, -z+.5'
  2	'x, -y+.5, z'
  3	'-x+.5, y+.5, z+.5'
  4	'-x, -y, -z'
  5	'-x+.5, -y, z+.5'
  6	'-x, y+.5, -z'
  7	'x+.5, -y+.5, -z+.5'
  8	'x, y, z'
loop_
_atom_type_symbol
_atom_type_oxidation_number
Fe2+	2
Li1+	1
O2-	-2
P5+	5
loop_
_atom_site_label
_atom_site_type_symbol
_atom_site_symmetry_multiplicity
_atom_site_Wyckoff_symbol
_atom_site_fract_x
_atom_site_fract_y
_atom_site_fract_z
_atom_site_occupancy
_atom_site_attached_hydrogens
Li1 Li1+ 4 a 0 0 0 1. 0 
Fe1 Fe2+ 4 c 0.28192(8) 0.250 0.97436(6) 1. 0 
P1 P5+ 4 c 0.09430(5) 0.250 0.41634(8) 1. 0 
O1 O2- 4 c 0.09631(7) 0.250 0.74639(4) 1. 0 
O2 O2- 4 c 0.45249(5) 0.250 0.21239(8) 1. 0 
O3 O2- 8 d 0.16908(3) 0.45707(9) 0.28356(6) 1. 0 

#End of data_181341-ICSD


