data_290615-ICSD
#?2014 by Fachinformationszentrum Karlsruhe, and the U.S. Secretary of 
#Commerce on behalf of the United States.  All rights reserved.
_database_code_ICSD                290615
_audit_creation_date               2014/02/01
_chemical_name_systematic
;
Trizinc Bisarsenate(V) Tetrahydrate
;
_chemical_formula_structural       'Zn3 (As O4)2 (H2 O)4'
_chemical_formula_sum              'H8 As2 O12 Zn3'
_chemical_name_mineral             Davidlloydite
_publ_section_title
;
Davidlloydite, ideally Zn3 (As O4)2 (H2 O)4, a new arsenate mineral 
from the Tsumeb mine, Otjikoto (Oshikoto) region, Namibia: 
description and crystal structure
;
loop_
_citation_id
_citation_journal_abbrev
_citation_year
_citation_journal_volume
_citation_journal_issue
_citation_page_first
_citation_page_last
_citation_journal_id_ASTM
primary 'Mineralogical Magazine (1969-)' 2012 76 1 45 57 MNLMBB
_publ_author_name
;
Hawthorne, F.C.;Cooper, M.A.;Abdu, Y.A.;Ball, N.A.;Back, M.E.;Tait, 
K.T.
;
_cell_length_a                     5.9756(4)
_cell_length_b                     7.6002(5)
_cell_length_c                     5.4471(4)
_cell_angle_alpha                  84.2892(9)
_cell_angle_beta                   90.4920(9)
_cell_angle_gamma                  87.9958(9)
_cell_volume                       245.99
_cell_formula_units_Z              1
_symmetry_space_group_name_H-M     'P -1'
_symmetry_Int_Tables_number        2
_refine_ls_R_factor_all            .0151
loop_
_symmetry_equiv_pos_site_id
_symmetry_equiv_pos_as_xyz
  1	'-x, -y, -z'
  2	'x, y, z'
loop_
_atom_type_symbol
_atom_type_oxidation_number
As5+	5
H1+	1
O2-	-2
Zn2+	2
loop_
_atom_site_label
_atom_site_type_symbol
_atom_site_symmetry_multiplicity
_atom_site_Wyckoff_symbol
_atom_site_fract_x
_atom_site_fract_y
_atom_site_fract_z
_atom_site_occupancy
_atom_site_attached_hydrogens
_atom_site_U_iso_or_equiv
Zn1 Zn2+ 1 g 0 0.5 0.5 1. 0 0.01224(12) 
Zn2 Zn2+ 2 i 0.23922(4) 0.10407(3) 0.81081(4) 1. 0 0.01226(7) 
As1 As5+ 2 i 0.25896(3) 0.87032(3) 0.33696(4) 1. 0 0.00916(6) 
O1 O2- 2 i 0.4813(3) 0.7644(2) 0.2259(3) 1. 0 0.0153(3) 
O2 O2- 2 i 0.2996(3) 0.8972(2) 0.6354(3) 1. 0 0.0146(3) 
O3 O2- 2 i 0.0271(3) 0.7464(2) 0.3144(3) 1. 0 0.0128(3) 
O4 O2- 2 i 0.1952(3) 0.0630(2) 0.1674(3) 1. 0 0.0145(3) 
O5 O2- 2 i 0.2229(3) 0.4010(2) 0.2726(3) 1. 0 0.0181(3) 
O6 O2- 2 i 0.2711(3) 0.5420(2) 0.7834(4) 1. 0 0.0208(3) 
H1 H1+ 2 i 0.211(6) 0.2762(14) 0.245(7) 1. 0 0.039(10) 
H2 H1+ 2 i 0.232(7) 0.453(5) 0.101(3) 1. 0 0.056(13) 
H3 H1+ 2 i 0.413(4) 0.481(5) 0.748(8) 1. 0 0.058(13) 
H4 H1+ 2 i 0.325(7) 0.662(2) 0.791(8) 1. 0 0.059(13) 

loop_
_atom_site_aniso_label
_atom_site_aniso_type_symbol
_atom_site_aniso_U_11
_atom_site_aniso_U_22
_atom_site_aniso_U_33
_atom_site_aniso_U_12
_atom_site_aniso_U_13
_atom_site_aniso_U_23
Zn1 Zn2+ 0.01425(19) 0.01053(18) 0.01178(19) 0.00005(13) 0.00126(12) 
-0.00034(12)
Zn2 Zn2+ 0.01204(12) 0.01445(12) 0.01032(11) 0.00121(9) -0.00006(8) 
-0.00186(8)
As1 As5+ 0.00945(10) 0.00940(10) 0.00869(10) 0.00002(7) 0.00025(7) 
-0.00125(7)
O1 O2- 0.0119(7) 0.0140(7) 0.0204(8) 0.0007(5) 0.0037(6) -0.0045(6)
O2 O2- 0.0200(8) 0.0144(7) 0.0096(7) 0.0007(6) -0.0011(5) -0.0027(5)
O3 O2- 0.0103(6) 0.0120(7) 0.0157(7) -0.0014(5) -0.0012(5) 0.0002(5)
O4 O2- 0.0209(8) 0.0116(7) 0.0105(7) 0.0015(6) -0.0006(6) 0.0010(5)
O5 O2- 0.0253(9) 0.0134(7) 0.0155(8) 0.0009(6) 0.0037(6) -0.0007(6)
O6 O2- 0.0190(8) 0.0162(8) 0.0270(9) -0.0009(6) 0.0031(7) -0.0008(6)
#End of data_290615-ICSD


