data_260819-ICSD
#?2014 by Fachinformationszentrum Karlsruhe, and the U.S. Secretary of 
#Commerce on behalf of the United States.  All rights reserved.
_database_code_ICSD                260819
_audit_creation_date               2011/02/01
_chemical_name_systematic
;
Calcium Disodium Hexathiodiphosphate(IV) Octahydrate
;
_chemical_formula_structural       'Ca Na2 (P2 S6) (H2 O)8'
_chemical_formula_sum              'H16 Ca1 Na2 O8 P2 S6'
_publ_section_title
;
Calcium disodium hexathiodiphosphate(IV) octahydrate
;
loop_
_citation_id
_citation_journal_abbrev
_citation_year
_citation_journal_volume
_citation_journal_issue
_citation_page_first
_citation_page_last
_citation_journal_id_ASTM
primary 'Acta Crystallographica, Section E. Structure Reports Online'
 2010 66 8 i54 i54 ACSEBH
_publ_author_name                  'Ehrhardt, C.;Gjikaj, M.'
_cell_length_a                     14.702(2)
_cell_length_b                     9.3081(14)
_cell_length_c                     14.052(2)
_cell_angle_alpha                  90.00
_cell_angle_beta                   115.383(11)
_cell_angle_gamma                  90.00
_cell_volume                       1737.34
_cell_formula_units_Z              4
_symmetry_space_group_name_H-M     'C 1 2/c 1'
_symmetry_Int_Tables_number        15
_refine_ls_R_factor_all            .0285
loop_
_symmetry_equiv_pos_site_id
_symmetry_equiv_pos_as_xyz
  1	'x, -y, z+.5'
  2	'-x, -y, -z'
  3	'-x, y, -z+.5'
  4	'x, y, z'
  5	'x+.5, -y+.5, z+.5'
  6	'-x+.5, -y+.5, -z'
  7	'-x+.5, y+.5, -z+.5'
  8	'x+.5, y+.5, z'
loop_
_atom_type_symbol
_atom_type_oxidation_number
Ca2+	2
H1+	1
Na1+	1
O2-	-2
P4+	4
S2-	-2
loop_
_atom_site_label
_atom_site_type_symbol
_atom_site_symmetry_multiplicity
_atom_site_Wyckoff_symbol
_atom_site_fract_x
_atom_site_fract_y
_atom_site_fract_z
_atom_site_occupancy
_atom_site_attached_hydrogens
_atom_site_U_iso_or_equiv
Ca1 Ca2+ 4 e 0.5000 0.24842(5) 0.2500 1 0 0.01531(10) 
Na1 Na1+ 4 c 0.2500 0.2500 0.0000 1 0 0.0240(2) 
Na2 Na1+ 4 e 0.5000 0.67523(13) 0.2500 1 0 0.0318(2) 
P1 P4+ 8 f 0.20227(3) 0.76310(4) 0.04363(3) 1 0 0.01394(9) 
S1 S2- 8 f 0.06893(3) 0.67248(4) -0.04913(3) 1 0 0.02064(10) 
S2 S2- 8 f 0.18887(3) 0.97575(4) 0.06497(3) 1 0 0.01807(9) 
S3 S2- 8 f 0.27954(3) 0.66563(4) 0.18473(3) 1 0 0.02051(10) 
O1 O2- 8 f 0.59411(11) 0.04315(16) 0.23418(13) 1 0 0.0268(3) 
O2 O2- 8 f 0.50720(10) 0.45732(14) 0.14604(10) 1 0 0.0217(2) 
O3 O2- 8 f 0.41702(10) 0.16862(14) 0.06107(10) 1 0 0.0216(2) 
O4 O2- 8 f 0.31872(9) 0.32895(14) 0.17753(10) 1 0 0.0199(2) 
H1 H1+ 8 f 0.629(4) 0.053(5) 0.205(4) 1 0 0.096(15) 
H2 H1+ 8 f 0.627(3) 0.002(4) 0.287(3) 1 0 0.068(12) 
H3 H1+ 8 f 0.554(3) 0.462(3) 0.133(3) 1 0 0.048(9) 
H4 H1+ 8 f 0.453(2) 0.477(3) 0.088(3) 1 0 0.045(8) 
H5 H1+ 8 f 0.4123(19) 0.085(3) 0.059(2) 1 0 0.029(6) 
H6 H1+ 8 f 0.454(2) 0.192(3) 0.030(2) 1 0 0.042(8) 
H7 H1+ 8 f 0.288(2) 0.294(3) 0.212(3) 1 0 0.049(8) 
H8 H1+ 8 f 0.306(2) 0.416(3) 0.172(2) 1 0 0.040(7) 

loop_
_atom_site_aniso_label
_atom_site_aniso_type_symbol
_atom_site_aniso_U_11
_atom_site_aniso_U_22
_atom_site_aniso_U_33
_atom_site_aniso_U_12
_atom_site_aniso_U_13
_atom_site_aniso_U_23
Ca1 Ca2+ 0.0144(2) 0.01655(19) 0.01458(19) 0.000 0.00584(15) 0.000
Na1 Na1+ 0.0192(5) 0.0302(5) 0.0196(5) -0.0001(4) 0.0053(4) -0.0011(4)
Na2 Na1+ 0.0283(6) 0.0396(6) 0.0249(5) 0.000 0.0089(4) 0.000
P1 P4+ 0.01509(18) 0.01411(17) 0.01436(17) 0.00019(13) 0.00797(14) 
0.00016(12)
S1 S2- 0.01688(19) 0.02004(18) 0.0257(2) -0.00401(14) 0.00981(15) 
-0.00281(14)
S2 S2- 0.01954(19) 0.01504(17) 0.01967(18) 0.00092(13) 0.00844(14) 
-0.00104(13)
S3 S2- 0.0250(2) 0.02236(19) 0.01657(17) 0.00676(15) 0.01122(15) 
0.00515(14)
O1 O2- 0.0201(6) 0.0272(6) 0.0298(7) 0.0039(5) 0.0075(5) -0.0023(5)
O2 O2- 0.0197(6) 0.0261(6) 0.0187(5) -0.0009(5) 0.0076(5) 0.0038(5)
O3 O2- 0.0241(6) 0.0203(6) 0.0227(6) 0.0002(5) 0.0124(5) -0.0026(5)
O4 O2- 0.0210(6) 0.0195(5) 0.0214(6) 0.0014(4) 0.0112(5) -0.0002(4)
#End of data_260819-ICSD


