data_77342-ICSD
#?2014 by Fachinformationszentrum Karlsruhe, and the U.S. Secretary of 
#Commerce on behalf of the United States.  All rights reserved.
_database_code_ICSD                77342
_audit_creation_date               2003/04/01
_chemical_name_systematic
;
Dipotassium Platinum Tetrakis(nitrate(III))
;
_chemical_formula_structural       'K2 Pt (N O2)4'
_chemical_formula_sum              'K2 N4 O8 Pt1'
_publ_section_title
;
Recherches sur le platonitrite de potassium K2 Pt (N O2)4. 2. 
Structure cristalline et proprietes physiques
;
loop_
_citation_id
_citation_journal_abbrev
_citation_year
_citation_journal_volume
_citation_page_first
_citation_page_last
_citation_journal_id_ASTM
primary 'Bulletin de la Societe Chimique de Belgique' 1943 12 541 544 BSBQAM
2 'Bulletin de la Societe Chimique de Belgique' 1943 12 463 467 BSBQAM
_publ_author_name                  'Lambot, H.'
_cell_length_a                     7.76
_cell_length_b                     12.9
_cell_length_c                     9.26
_cell_angle_alpha                  90.
_cell_angle_beta                   96.25
_cell_angle_gamma                  90.
_cell_volume                       921.45
_cell_formula_units_Z              4
_symmetry_space_group_name_H-M     'P 1 21/a 1'
_symmetry_Int_Tables_number        14
loop_
_symmetry_equiv_pos_site_id
_symmetry_equiv_pos_as_xyz
  1	'x+.5, -y+.5, z'
  2	'-x, -y, -z'
  3	'-x+.5, y+.5, -z'
  4	'x, y, z'
loop_
_atom_type_symbol
_atom_type_oxidation_number
K1+	1
N3+	3
O2-	-2
Pt2+	2
loop_
_atom_site_label
_atom_site_type_symbol
_atom_site_symmetry_multiplicity
_atom_site_Wyckoff_symbol
_atom_site_fract_x
_atom_site_fract_y
_atom_site_fract_z
_atom_site_occupancy
_atom_site_attached_hydrogens
K1 K1+ 4 e 0.417 0.144 0.25 1. 0 
K2 K1+ 4 e 0.144 0.333 0.75 1. 0 
Pt1 Pt2+ 2 a 0 0 0 1. 0 
Pt2 Pt2+ 2 d 0 0 0.5 1. 0 
N1 N3+ 4 e 0 0.148 0.067 1. 0 
N2 N3+ 4 e 0 0.148 0.567 1. 0 
N3 N3+ 4 e 0.254 -.016 0.074 1. 0 
N4 N3+ 4 e 0.254 -.016 0.574 1. 0 
O1 O2- 4 e 0 0.214 -.027 1. 0 
O2 O2- 4 e 0 0.214 0.473 1. 0 
O3 O2- 4 e 0 0.163 0.196 1. 0 
O4 O2- 4 e 0 0.163 0.696 1. 0 
O5 O2- 4 e 0.274 -.017 0.206 1. 0 
O6 O2- 4 e 0.274 -.017 0.706 1. 0 
O7 O2- 4 e 0.37 -.023 -.005 1. 0 
O8 O2- 4 e 0.37 -.023 0.494 1. 0 

#End of data_77342-ICSD


