data_39851-ICSD
#?2014 by Fachinformationszentrum Karlsruhe, and the U.S. Secretary of 
#Commerce on behalf of the United States.  All rights reserved.
_database_code_ICSD                39851
_audit_creation_date               1995/10/17
_audit_update_record               2010/02/01
_chemical_name_systematic
;
Dipotassium Dichlorodinitropalladate
;
_chemical_formula_structural       'K2 (Pd (N O2)2 Cl2)'
_chemical_formula_sum              'Cl2 K2 N2 O4 Pd1'
_publ_section_title
;
Crystal structure of K2 (Pd (N O2)2 Cl2), comparison with K2 (Pd (N 
O2)4) and K2 Pd Cl4
;
loop_
_citation_id
_citation_journal_abbrev
_citation_year
_citation_journal_volume
_citation_page_first
_citation_page_last
_citation_journal_id_ASTM
primary 'Zhurnal Neorganicheskoi Khimii' 1994 39 2017 2021 ZNOKAQ
2 'Russian Journal of Inorganic Chemistry' 1994 39 1932 1935 RJICAQ
_publ_author_name
;
Gromilov, S.A.;Alekseev, V.I.;Baidina, I.A.;Khranenko, S.P.;Belyaev, 
A.V.
;
_cell_length_a                     7.663(2)
_cell_length_b                     13.630(3)
_cell_length_c                     4.102(1)
_cell_angle_alpha                  90.
_cell_angle_beta                   107.86(3)
_cell_angle_gamma                  90.
_cell_volume                       407.79
_cell_formula_units_Z              2
_symmetry_space_group_name_H-M     'C 1 2/m 1'
_symmetry_Int_Tables_number        12
_refine_ls_R_factor_all            .02
loop_
_symmetry_equiv_pos_site_id
_symmetry_equiv_pos_as_xyz
  1	'-x, y, -z'
  2	'-x, -y, -z'
  3	'x, -y, z'
  4	'x, y, z'
  5	'-x+.5, y+.5, -z'
  6	'-x+.5, -y+.5, -z'
  7	'x+.5, -y+.5, z'
  8	'x+.5, y+.5, z'
loop_
_atom_type_symbol
_atom_type_oxidation_number
Cl1-	-1
K1+	1
N3+	3
O2-	-2
Pd2+	2
loop_
_atom_site_label
_atom_site_type_symbol
_atom_site_symmetry_multiplicity
_atom_site_Wyckoff_symbol
_atom_site_fract_x
_atom_site_fract_y
_atom_site_fract_z
_atom_site_occupancy
_atom_site_attached_hydrogens
_atom_site_U_iso_or_equiv
Pd1 Pd2+ 2 c 0.5 0.5 0.5 1. 0 0.017 
K1 K1+ 4 h 0 0.64735(4) 0.5 1. 0 0.03 
Cl1 Cl1- 4 i 0.22292(9) 0.5 0.11505(18) 1. 0 0.028 
N1 N3+ 4 g 0.5 0.64698(15) 0 1. 0 0.024 
O1 O2- 8 j 0.62419(21) 0.69295(11) 0.2013(5) 1. 0 0.045 

#End of data_39851-ICSD


