data_86309-ICSD
#?2014 by Fachinformationszentrum Karlsruhe, and the U.S. Secretary of 
#Commerce on behalf of the United States.  All rights reserved.
_database_code_ICSD                86309
_audit_creation_date               1999/11/30
_audit_update_record               2007/08/01
_chemical_name_systematic          'Potassium Iron(III) Diphosphate(V)'
_chemical_formula_structural       'K Fe (P2 O7)'
_chemical_formula_sum              'Fe1 K1 O7 P2'
_publ_section_title
;
Synthesis and structure of double pyrophosphates K Fe P2 O7 and K Ga 
P2 O7
;
loop_
_citation_id
_citation_journal_abbrev
_citation_year
_citation_journal_volume
_citation_journal_issue
_citation_page_first
_citation_page_last
_citation_journal_id_ASTM
primary 'Zhurnal Strukturnoi Khimii (Issue-No. from 1981)'
 1989 30 1 173 175 ZSTKAI
2 'Powder Diffraction' 1986 1 2 64 77 PODIE2
_publ_author_name                  'Genkina, E.A.;Timofeeva, V.A.'
_cell_length_a                     7.3461(3)
_cell_length_b                     9.9852(3)
_cell_length_c                     8.1764(3)
_cell_angle_alpha                  90.
_cell_angle_beta                   106.4(1)
_cell_angle_gamma                  90.
_cell_volume                       575.36
_cell_formula_units_Z              4
_symmetry_space_group_name_H-M     'P 1 21/c 1'
_symmetry_Int_Tables_number        14
_refine_ls_R_factor_all            .041
loop_
_symmetry_equiv_pos_site_id
_symmetry_equiv_pos_as_xyz
  1	'x, -y+.5, z+.5'
  2	'-x, -y, -z'
  3	'-x, y+.5, -z+.5'
  4	'x, y, z'
loop_
_atom_type_symbol
_atom_type_oxidation_number
Fe3+	3
K1+	1
O2-	-2
P5+	5
loop_
_atom_site_label
_atom_site_type_symbol
_atom_site_symmetry_multiplicity
_atom_site_Wyckoff_symbol
_atom_site_fract_x
_atom_site_fract_y
_atom_site_fract_z
_atom_site_occupancy
_atom_site_attached_hydrogens
_atom_site_B_iso_or_equiv
K1 K1+ 4 e 0.1782(1) 0.6796(1) 0.0534(1) 1. 0 1.50(3) 
Fe1 Fe3+ 4 e 0.2358(1) 0.4003 0.7602(1) 1. 0 0.47(2) 
P1 P5+ 4 e 0.4416(1) 0.3632(1) 0.1904(1) 1. 0 0.54(3) 
P2 P5+ 4 e 0.1334(1) 0.0954(1) 0.8300(1) 1. 0 0.55(3) 
O1 O2- 4 e 0.3213(6) 0.3926(4) 0.0125(5) 1. 0 1.45(8) 
O2 O2- 4 e 0.6401(5) 0.4208(4) 0.2319(6) 1. 0 1.21(7) 
O3 O2- 4 e 0.4520(5) 0.2159(4) 0.2410(5) 1. 0 1.08(7) 
O4 O2- 4 e 0.1464(6) 0.4107(4) 0.5144(5) 1. 0 1.44(8) 
O5 O2- 4 e 0.9988(5) 0.5069(4) 0.2219(4) 1. 0 0.97(7) 
O6 O2- 4 e 0.0809(5) 0.2659(3) 0.2544(5) 1. 0 1.01(7) 
O7 O2- 4 e 0.3409(5) 0.0592(4) 0.8137(5) 1. 0 1.04(7) 

#End of data_86309-ICSD


