data_418670-ICSD
#?2014 by Fachinformationszentrum Karlsruhe, and the U.S. Secretary of 
#Commerce on behalf of the United States.  All rights reserved.
_database_code_ICSD                418670
_audit_creation_date               2009/02/01
_chemical_name_systematic          'Sodium Hexafluorochromate(V) - I'
_chemical_formula_structural       'Na (Cr F6)'
_chemical_formula_sum              'Cr1 F6 Na1'
_publ_section_title
;
Alkali metal (Li+ - Cs+) salts with hexafluorochromate(V), 
hexafluorochromate(IV), pentafluorochromate(IV), and 
undecafluorodichromate(IV) anions
;
loop_
_citation_id
_citation_journal_abbrev
_citation_year
_citation_journal_volume
_citation_journal_issue
_citation_page_first
_citation_page_last
_citation_journal_id_ASTM
primary 'European Journal of Inorganic Chemistry  (online)'
 2008 2008 11 1795 1812 EJICFO
_publ_author_name                  'Mazej, Z.;Goreshnik, E.'
_cell_length_a                     9.3970(22)
_cell_length_b                     5.8159(13)
_cell_length_c                     7.7226(18)
_cell_angle_alpha                  90
_cell_angle_beta                   90
_cell_angle_gamma                  90
_cell_volume                       422.06
_cell_formula_units_Z              4
_symmetry_space_group_name_H-M     'P n m a'
_symmetry_Int_Tables_number        62
_refine_ls_R_factor_all            .0268
loop_
_symmetry_equiv_pos_site_id
_symmetry_equiv_pos_as_xyz
  1	'x+.5, y, -z+.5'
  2	'x, -y+.5, z'
  3	'-x+.5, y+.5, z+.5'
  4	'-x, -y, -z'
  5	'-x+.5, -y, z+.5'
  6	'-x, y+.5, -z'
  7	'x+.5, -y+.5, -z+.5'
  8	'x, y, z'
loop_
_atom_type_symbol
_atom_type_oxidation_number
Cr5+	5
F1-	-1
Na1+	1
loop_
_atom_site_label
_atom_site_type_symbol
_atom_site_symmetry_multiplicity
_atom_site_Wyckoff_symbol
_atom_site_fract_x
_atom_site_fract_y
_atom_site_fract_z
_atom_site_occupancy
_atom_site_attached_hydrogens
_atom_site_U_iso_or_equiv
Cr1 Cr5+ 4 c 0.72779(5) 0.2500 0.61683(5) 1 0 0.0125(2) 
Na1 Na1+ 4 c 0.99611(13) 0.7500 0.66472(16) 1 0 0.0188(3) 
F1 F1- 8 d 0.60541(16) 0.4649(3) 0.67225(19) 1 0 0.0291(4) 
F2 F1- 4 c 0.6669(2) 0.2500 0.4036(2) 1 0 0.0204(4) 
F3 F1- 8 d 0.85611(14) 0.0362(2) 0.55130(16) 1 0 0.0233(3) 
F4 F1- 4 c 0.8023(2) 0.2500 0.8165(2) 1 0 0.0234(4) 

loop_
_atom_site_aniso_label
_atom_site_aniso_type_symbol
_atom_site_aniso_U_11
_atom_site_aniso_U_22
_atom_site_aniso_U_33
_atom_site_aniso_U_12
_atom_site_aniso_U_13
_atom_site_aniso_U_23
Cr1 Cr5+ 0.0134(3) 0.0110(3) 0.0131(3) 0.000 0.00024(15) 0.000
Na1 Na1+ 0.0210(6) 0.0135(7) 0.0218(6) 0.000 -0.0003(5) 0.000
F1 F1- 0.0294(7) 0.0272(8) 0.0306(7) 0.0136(6) 0.0016(6) -0.0064(6)
F2 F1- 0.0242(10) 0.0183(10) 0.0186(8) 0.000 -0.0070(7) 0.000
F3 F1- 0.0257(7) 0.0211(7) 0.0231(7) 0.0104(6) -0.0016(5) -0.0035(5)
F4 F1- 0.0298(10) 0.0249(11) 0.0155(8) 0.000 -0.0040(7) 0.000
#End of data_418670-ICSD


