data_406330-ICSD
#?2014 by Fachinformationszentrum Karlsruhe, and the U.S. Secretary of 
#Commerce on behalf of the United States.  All rights reserved.
_database_code_ICSD                406330
_audit_creation_date               1997/11/10
_audit_update_record               2000/07/15
_chemical_name_systematic
;
Barium Tamarium Zinc Platinum Oxide (17/16/8/4/57)
;
_chemical_formula_structural       'Ba17 Tm16 Zn8 Pt4 O57'
_chemical_formula_sum              'Ba17 O57 Pt4 Tm16 Zn8'
_publ_section_title
;
Zur Kristallchemie von Oxozinkat-Platinaten und Oxozinkaten der 
Zusammensetzung Ba17 Tm16 Zn8 Pt4 O57 und Ba5 Tm8 Zn4 O21
;
loop_
_citation_id
_citation_journal_abbrev
_citation_year
_citation_journal_volume
_citation_page_first
_citation_page_last
_citation_journal_id_ASTM
primary 'Zeitschrift fuer Anorganische und Allgemeine Chemie (1950) (DE)'
 1997 623 699 704 ZAACAB
_publ_author_name
;
Sfreddo, O.;Rabbow, C.;Mueller Buschbaum, H.
;
_cell_length_a                     22.758(1)
_cell_length_b                     22.758(1)
_cell_length_c                     5.684(1)
_cell_angle_alpha                  90.
_cell_angle_beta                   90.
_cell_angle_gamma                  90.
_cell_volume                       2943.89
_cell_formula_units_Z              2
_symmetry_space_group_name_H-M     'I 4/m'
_symmetry_Int_Tables_number        87
_refine_ls_R_factor_all            .2106
loop_
_symmetry_equiv_pos_site_id
_symmetry_equiv_pos_as_xyz
  1	'-y, x, -z'
  2	'y, -x, -z'
  3	'x, y, -z'
  4	'-x, -y, -z'
  5	'y, -x, z'
  6	'-y, x, z'
  7	'-x, -y, z'
  8	'x, y, z'
  9	'-y+.5, x+.5, -z+.5'
 10	'y+.5, -x+.5, -z+.5'
 11	'x+.5, y+.5, -z+.5'
 12	'-x+.5, -y+.5, -z+.5'
 13	'y+.5, -x+.5, z+.5'
 14	'-y+.5, x+.5, z+.5'
 15	'-x+.5, -y+.5, z+.5'
 16	'x+.5, y+.5, z+.5'
loop_
_atom_type_symbol
_atom_type_oxidation_number
Ba2+	2
O2-	-2
Pt4+	4
Tm3+	3
Zn2+	2
loop_
_atom_site_label
_atom_site_type_symbol
_atom_site_symmetry_multiplicity
_atom_site_Wyckoff_symbol
_atom_site_fract_x
_atom_site_fract_y
_atom_site_fract_z
_atom_site_occupancy
_atom_site_attached_hydrogens
_atom_site_U_iso_or_equiv
Pt1 Pt4+ 8 h 0.35606(4) 0.08255(4) 0.5 1. 0 0.0070(2) 
Tm1 Tm3+ 8 h 0.40055(5) 0.48800(5) 0 1. 0 0.0057(2) 
Tm2 Tm3+ 8 h 0.24885(5) 0.00654(5) 0.5 1. 0 0.0060(2) 
Tm3 Tm3+ 8 h 0.44746(5) 0.32779(5) 0.5 1. 0 0.0052(2) 
Tm4 Tm3+ 8 h 0.45059(5) 0.17455(5) 0.5 1. 0 0.0059(2) 
Ba1 Ba2+ 2 a 0 0 0 1. 0 0.0059(6) 
Ba2 Ba2+ 8 h 0.38835(7) 0.77513(7) 0.5 1. 0 0.0085(3) 
Ba3 Ba2+ 8 h 0.34318(7) 0.34979(7) 0 1. 0 0.0096(3) 
Ba4 Ba2+ 8 h 0.18956(7) 0.26798(7) 0 1. 0 0.0081(3) 
Ba5 Ba2+ 8 h 0.44236(7) 0.06762(7) 0 1. 0 0.0098(3) 
Zn1 Zn2+ 8 h 0.28880(12) 0.87931(13) 0.5 1. 0 0.0065(6) 
Zn2 Zn2+ 8 h 0.36699(12) 0.42431(12) 0.5 1. 0 0.0070(6) 
O1 O2- 2 b 0 0 0.5 1. 0 0.008(7) 
O2 O2- 8 h 0.4461(9) 0.0623(8) 0.5 1. 0 0.021(5) 
O3 O2- 8 h 0.3390(9) 0.3425(9) 0.5 1. 0 0.024(5) 
O4 O2- 8 h 0.2681(6) 0.1090(7) 0.5 1. 0 0.002(3) 
O5 O2- 8 h 0.2629(9) 0.7989(8) 0.5 1. 0 0.014(4) 
O6 O2- 16 i 0.3234(5) 0.4714(4) 0.2484(23) 1. 0 0.003(2) 
O7 O2- 16 i 0.3765(5) 0.1438(5) 0.7438(23) 1. 0 0.009(3) 
O8 O2- 16 i 0.3320(5) 0.0220(5) 0.7462(23) 1. 0 0.011(3) 
O9 O2- 16 i 0.2469(5) 0.9286(5) 0.7509(25) 1. 0 0.011(3) 
O10 O2- 16 i 0.4352(6) 0.4093(6) 0.2476(26) 1. 0 0.018(3) 

#End of data_406330-ICSD


