data_68907-ICSD
#?2014 by Fachinformationszentrum Karlsruhe, and the U.S. Secretary of 
#Commerce on behalf of the United States.  All rights reserved.
_database_code_ICSD                68907
_audit_creation_date               1992/01/20
_chemical_name_systematic
;
Dipotassium Pentachlorooxorhenate(V)
;
_chemical_formula_structural       'K2 (Re Cl5 O)'
_chemical_formula_sum              'Cl5 K2 O1 Re1'
_publ_section_title
;
Structure of dipotassium pentachlorooxorhenate(V)
;
loop_
_citation_id
_citation_journal_abbrev
_citation_year
_citation_journal_volume
_citation_page_first
_citation_page_last
_citation_journal_id_ASTM
primary 'Acta Crystallographica, Section C: Crystal Structure Communications'
 1991 47 177 178 ACSCEE
_publ_author_name
;
Glovyak, T.;Jezowska-Trzebiatowska, B.;Lis, T.
;
_cell_length_a                     13.2584(7)
_cell_length_b                     9.960(6)
_cell_length_c                     6.806(4)
_cell_angle_alpha                  90.
_cell_angle_beta                   90.
_cell_angle_gamma                  90.
_cell_volume                       898.76
_cell_formula_units_Z              4
_symmetry_space_group_name_H-M     'P n m a'
_symmetry_Int_Tables_number        62
_refine_ls_R_factor_all            .025
loop_
_symmetry_equiv_pos_site_id
_symmetry_equiv_pos_as_xyz
  1	'x+.5, y, -z+.5'
  2	'x, -y+.5, z'
  3	'-x+.5, y+.5, z+.5'
  4	'-x, -y, -z'
  5	'-x+.5, -y, z+.5'
  6	'-x, y+.5, -z'
  7	'x+.5, -y+.5, -z+.5'
  8	'x, y, z'
loop_
_atom_type_symbol
_atom_type_oxidation_number
Cl1-	-1
K1+	1
O2-	-2
Re5+	5
loop_
_atom_site_label
_atom_site_type_symbol
_atom_site_symmetry_multiplicity
_atom_site_Wyckoff_symbol
_atom_site_fract_x
_atom_site_fract_y
_atom_site_fract_z
_atom_site_occupancy
_atom_site_attached_hydrogens
Re1 Re5+ 4 c 0.09817(2) 0.25 0.17657(5) 1. 0 
K1 K1+ 8 d 0.36028(11) 0.00114(15) 0.18049(27) 1. 0 
Cl1 Cl1- 8 d 0.11004(11) 0.01200(13) 0.19374(26) 1. 0 
Cl2 Cl1- 4 c 0.22408(17) 0.25 0.92909(36) 1. 0 
Cl3 Cl1- 4 c 0.24656(16) 0.25 0.40380(36) 1. 0 
Cl4 Cl1- 4 c 0.00167(16) 0.25 0.47183(37) 1. 0 
O1 O2- 4 c 0.99923(42) 0.25 0.0284(11) 1. 0 

loop_
_atom_site_aniso_label
_atom_site_aniso_type_symbol
_atom_site_aniso_U_11
_atom_site_aniso_U_22
_atom_site_aniso_U_33
_atom_site_aniso_U_12
_atom_site_aniso_U_13
_atom_site_aniso_U_23
Re1 Re5+ 0.0189(2) 0.0184(2) 0.0197(2) 0 0.0008(3) 0
K1 K1+ 0.0368(8) 0.0407(8) 0.0417(9) -.0022(6) 0.0074(8) 0.0005(9)
Cl1 Cl1- 0.0344(9) 0.0205(6) 0.0376(9) 0.0009(6) -.0007(9) -.0008(7)
Cl2 Cl1- 0.0362(14) 0.0350(13) 0.0224(13) 0 0.0076(10) 0
Cl3 Cl1- 0.0254(11) 0.0354(13) 0.0237(12) 0 -.0063(10) 0
Cl4 Cl1- 0.0290(13) 0.0329(12) 0.0349(15) 0 0.0136(11) 0
O1 O2- 0.031(4) 0.035(4) 0.042(5) 0 -.014(4) 0
#End of data_68907-ICSD


