data_100327-ICSD
#?2014 by Fachinformationszentrum Karlsruhe, and the U.S. Secretary of 
#Commerce on behalf of the United States.  All rights reserved.
_database_code_ICSD                100327
_audit_creation_date               1980/01/01
_audit_update_record               1985/05/21
_chemical_name_systematic
;
Potassium Molybdenum Oxide (0.3/1/3)
;
_chemical_formula_structural       'K0.3 Mo O3'
_chemical_formula_sum              'K0.3 Mo1 O3'
_publ_section_title
;
Verfeinerung der Kristallstruktur der blauen Kalium Molybdaen-bronze, 
K0.3 Mo O3, durch Roentgenbeugung
;
loop_
_citation_id
_citation_journal_abbrev
_citation_year
_citation_journal_volume
_citation_page_first
_citation_page_last
_citation_journal_id_ASTM
primary 'Zeitschrift fuer Kristallographie (1979-2010)' 1979 149 127 128 ZEKRDZ
2 'Acta Crystallographica (1,1948-23,1967)' 1966 20 93 100 ACCRA9
_publ_author_name
;
Bartl, H.;Schuster, D.;Schroeder, F.A.
;
_cell_length_a                     18.255(9)
_cell_length_b                     7.564(6)
_cell_length_c                     9.894(3)
_cell_angle_alpha                  90.
_cell_angle_beta                   117.6(5)
_cell_angle_gamma                  90.
_cell_volume                       1210.71
_cell_formula_units_Z              20
_symmetry_space_group_name_H-M     'C 1 2/m 1'
_symmetry_Int_Tables_number        12
_refine_ls_R_factor_all            .05
loop_
_symmetry_equiv_pos_site_id
_symmetry_equiv_pos_as_xyz
  1	'-x, y, -z'
  2	'-x, -y, -z'
  3	'x, -y, z'
  4	'x, y, z'
  5	'-x+.5, y+.5, -z'
  6	'-x+.5, -y+.5, -z'
  7	'x+.5, -y+.5, z'
  8	'x+.5, y+.5, z'
loop_
_atom_type_symbol
_atom_type_oxidation_number
K1+	1
Mo5.7+	5.7
O2-	-2
loop_
_atom_site_label
_atom_site_type_symbol
_atom_site_symmetry_multiplicity
_atom_site_Wyckoff_symbol
_atom_site_fract_x
_atom_site_fract_y
_atom_site_fract_z
_atom_site_occupancy
_atom_site_attached_hydrogens
K1 K1+ 2 d 0 0.5 0.5 1. 0 
K2 K1+ 4 i 0.8118(5) 0 0.2803(3) 1. 0 
Mo1 Mo5.7+ 4 i 0.22587(5) 0 0.1736(9) 1. 0 
Mo2 Mo5.7+ 8 j 0.42053(3) 0.24456(8) 0.04277(6) 1. 0 
Mo3 Mo5.7+ 8 j 0.13847(3) 0.24991(8) 0.34634(6) 1. 0 
O1 O2- 4 f 0.25 0.25 0.5 1. 0 
O2 O2- 4 i 0.2498(5) 0 0.0260(9) 1. 0 
O3 O2- 4 i 0.3191(5) 0 0.3367(9) 1. 0 
O4 O2- 4 i 0.4199(5) 0 0.0109(9) 1. 0 
O5 O2- 4 i 0.9109(5) 0 0.0067(8) 1. 0 
O6 O2- 4 i 0.1563(4) 0 0.3130(8) 1. 0 
O7 O2- 4 i 0.6412(5) 0 0.3305(9) 1. 0 
O8 O2- 8 j 0.3986(4) 0.2444(8) 0.1915(7) 1. 0 
O9 O2- 8 j 0.1853(3) 0.2422(7) 0.1610(6) 1. 0 
O10 O2- 8 j 0.0884(4) 0.2179(8) 0.4508(7) 1. 0 
O11 O2- 8 j 0.0379(3) 0.2460(7) 0.1459(6) 1. 0 

#End of data_100327-ICSD


