data_80039-ICSD
#?2014 by Fachinformationszentrum Karlsruhe, and the U.S. Secretary of 
#Commerce on behalf of the United States.  All rights reserved.
_database_code_ICSD                80039
_audit_creation_date               1996/10/14
_chemical_name_systematic          'Dialuminium Tetrayttrium Oxide'
_chemical_formula_structural       'Al2 Y4 O9'
_chemical_formula_sum              'Al2 O9 Y4'
_publ_section_title
;
Thermogravimetry and Rietveld analysis for the high-temperature X-ray 
powder diffraction pattern of Y4 Al2 O9
;
loop_
_citation_id
_citation_journal_abbrev
_citation_year
_citation_journal_volume
_citation_page_first
_citation_page_last
_citation_journal_id_ASTM
primary 'Journal of Materials Science. Letters' 1995 14 470 473 JMSLD5
_publ_author_name                  'Yamane, H.;Omori, M.;Hirai, T.'
_cell_length_a                     7.3781(1)
_cell_length_b                     10.4735(1)
_cell_length_c                     11.1253(1)
_cell_angle_alpha                  90.
_cell_angle_beta                   108.540(1)
_cell_angle_gamma                  90.
_cell_volume                       815.09
_cell_formula_units_Z              4
_symmetry_space_group_name_H-M     'P 1 21/c 1'
_symmetry_Int_Tables_number        14
_refine_ls_R_factor_all            .016
loop_
_symmetry_equiv_pos_site_id
_symmetry_equiv_pos_as_xyz
  1	'x, -y+.5, z+.5'
  2	'-x, -y, -z'
  3	'-x, y+.5, -z+.5'
  4	'x, y, z'
loop_
_atom_type_symbol
_atom_type_oxidation_number
Al3+	3
O2-	-2
Y3+	3
loop_
_atom_site_label
_atom_site_type_symbol
_atom_site_symmetry_multiplicity
_atom_site_Wyckoff_symbol
_atom_site_fract_x
_atom_site_fract_y
_atom_site_fract_z
_atom_site_occupancy
_atom_site_attached_hydrogens
Y1 Y3+ 4 e 0.525(2) 0.108(1) 0.784(1) 1. 0 
Y2 Y3+ 4 e 0.024(2) 0.096(1) 0.808(1) 1. 0 
Y3 Y3+ 4 e 0.339(2) 0.127(1) 0.436(1) 1. 0 
Y4 Y3+ 4 e 0.837(2) 0.121(1) 0.417(1) 1. 0 
Al1 Al3+ 4 e 0.215(5) 0.179(4) 0.128(3) 1. 0 
Al2 Al3+ 4 e 0.656(5) 0.177(4) 0.112(3) 1. 0 
O1 O2- 4 e 0.213(10) 0.015(8) 0.163(6) 1. 0 
O2 O2- 4 e 0.697(10) 0.024(7) 0.154(6) 1. 0 
O3 O2- 4 e 0.078(13) 0.002(6) 0.384(6) 1. 0 
O4 O2- 4 e 0.568(13) 0.008(6) 0.396(6) 1. 0 
O5 O2- 4 e 0.229(8) 0.255(6) 0.265(6) 1. 0 
O6 O2- 4 e 0.082(9) 0.226(7) 0.988(5) 1. 0 
O7 O2- 4 e 0.796(8) 0.261(7) 0.252(5) 1. 0 
O8 O2- 4 e 0.632(8) 0.235(7) 0.957(5) 1. 0 
O9 O2- 4 e 0.421(11) 0.233(4) 0.114(4) 1. 0 

#End of data_80039-ICSD


