data_167294-ICSD
#?2014 by Fachinformationszentrum Karlsruhe, and the U.S. Secretary of 
#Commerce on behalf of the United States.  All rights reserved.
_database_code_ICSD                167294
_audit_creation_date               2010/08/01
_chemical_name_systematic          'Dialuminium Oxide Silicate'
_chemical_formula_structural       'Al2 O (Si O4)'
_chemical_formula_sum              'Al2 O5 Si1'
_chemical_name_mineral             Kyanite
_publ_section_title
;
Plastic deformations in kyanites by tectonometamorphic processes: a 
single-crystal X-ray diffraction study
;
loop_
_citation_id
_citation_journal_abbrev
_citation_year
_citation_journal_volume
_citation_journal_issue
_citation_page_first
_citation_page_last
_citation_journal_id_ASTM
primary 'Mineralogical Magazine (1969-)' 2009 73 3 359 371 MNLMBB
_publ_author_name
;
Gatta, G.D.;Rotiroti, N.;Zucali, M.
;
_cell_length_a                     7.1301(9)
_cell_length_b                     7.8670(13)
_cell_length_c                     5.5760(9)
_cell_angle_alpha                  90.140(10)
_cell_angle_beta                   101.140(10)
_cell_angle_gamma                  106.120(9)
_cell_volume                       294.29
_cell_formula_units_Z              4
_symmetry_space_group_name_H-M     'P -1'
_symmetry_Int_Tables_number        2
_refine_ls_R_factor_all            .026
loop_
_symmetry_equiv_pos_site_id
_symmetry_equiv_pos_as_xyz
  1	'-x, -y, -z'
  2	'x, y, z'
loop_
_atom_type_symbol
_atom_type_oxidation_number
Al3+	3
O2-	-2
Si4+	4
loop_
_atom_site_label
_atom_site_type_symbol
_atom_site_symmetry_multiplicity
_atom_site_Wyckoff_symbol
_atom_site_fract_x
_atom_site_fract_y
_atom_site_fract_z
_atom_site_occupancy
_atom_site_attached_hydrogens
_atom_site_U_iso_or_equiv
Al1 Al3+ 2 i 0.32518(8) 0.70412(8) 0.45808(9) 1. 0 0.0053(2) 
Al2 Al3+ 2 i 0.29751(8) 0.69887(8) 0.95052(9) 1. 0 0.0043(2) 
Al3 Al3+ 2 i 0.10005(8) 0.38625(8) 0.64031(9) 1. 0 0.0046(2) 
Al4 Al3+ 2 i 0.11230(8) 0.91758(9) 0.1648(1) 1. 0 0.0052(2) 
Si1 Si4+ 2 i 0.29636(7) 0.06486(8) 0.70662(9) 1. 0 0.0046(2) 
Si2 Si4+ 2 i 0.29106(7) 0.33168(8) 0.18933(9) 1. 0 0.0047(2) 
O1 O2- 2 i 0.1098(2) 0.1470(2) 0.1291(2) 1. 0 0.0060(4) 
O2 O2- 2 i 0.1230(2) 0.6856(2) 0.1812(2) 1. 0 0.0060(4) 
O3 O2- 2 i 0.2749(2) 0.4542(2) 0.9553(2) 1. 0 0.0062(5) 
O4 O2- 2 i 0.2839(2) 0.9361(2) 0.9356(2) 1. 0 0.0064(5) 
O5 O2- 2 i 0.1085(2) 0.1523(2) 0.6674(2) 1. 0 0.0060(4) 
O6 O2- 2 i 0.1221(2) 0.6304(2) 0.6395(2) 1. 0 0.0055(4) 
O7 O2- 2 i 0.2822(2) 0.4450(2) 0.4289(2) 1. 0 0.0057(5) 
O8 O2- 2 i 0.2908(2) 0.9468(2) 0.4656(2) 1. 0 0.0059(4) 
O9 O2- 2 i 0.5006(2) 0.2753(2) 0.2440(2) 1. 0 0.0063(4) 
O10 O2- 2 i 0.5011(2) 0.2309(2) 0.7558(2) 1. 0 0.0061(5) 

loop_
_atom_site_aniso_label
_atom_site_aniso_type_symbol
_atom_site_aniso_U_11
_atom_site_aniso_U_22
_atom_site_aniso_U_33
_atom_site_aniso_U_12
_atom_site_aniso_U_13
_atom_site_aniso_U_23
Al1 Al3+ 0.0074(2) 0.0037(4) 0.0051(3) 0.0021(3) 0.0017(2) 0.0016(2)
Al2 Al3+ 0.0066(3) 0.0016(4) 0.0051(3) 0.0015(3) 0.0015(2) 0.0010(2)
Al3 Al3+ 0.0065(3) 0.0017(3) 0.0062(3) 0.0016(2) 0.0019(2) 0.0015(2)
Al4 Al3+ 0.0071(3) 0.0028(3) 0.0066(3) 0.0023(3) 0.0019(2) 0.0019(2)
Si1 Si4+ 0.0067(3) 0.0022(3) 0.0055(2) 0.0018(3) 0.0017(2) 0.0011(2)
Si2 Si4+ 0.0069(2) 0.0024(3) 0.0056(2) 0.0022(2) 0.0019(2) 0.0013(2)
O1 O2- 0.0088(6) 0.0026(8) 0.0067(6) 0.0025(6) 0.0010(5) 0.0010(5)
O2 O2- 0.0078(6) 0.0046(8) 0.0067(6) 0.0027(6) 0.0024(5) 0.0019(5)
O3 O2- 0.0094(6) 0.0039(8) 0.0055(6) 0.0021(7) 0.0013(5) 0.0013(5)
O4 O2- 0.0089(7) 0.0053(8) 0.0065(6) 0.0038(7) 0.0029(5) 0.0021(5)
O5 O2- 0.0085(6) 0.0037(8) 0.0070(6) 0.0023(6) 0.0032(5) 0.0020(5)
O6 O2- 0.0066(6) 0.0041(8) 0.0066(6) 0.0024(6) 0.0015(5) 0.0006(5)
O7 O2- 0.0083(6) 0.0034(8) 0.0065(6) 0.0027(7) 0.0024(5) -0.0004(5)
O8 O2- 0.0076(6) 0.0034(8) 0.0064(6) 0.0016(6) 0.0010(5) -0.0005(5)
O9 O2- 0.0071(6) 0.0051(8) 0.0068(6) 0.0019(6) 0.0012(5) 0.0013(5)
O10 O2- 0.0075(6) 0.0037(8) 0.0073(6) 0.0016(6) 0.0021(5) 0.0015(5)
#End of data_167294-ICSD


