data_62541-ICSD
#?2014 by Fachinformationszentrum Karlsruhe, and the U.S. Secretary of 
#Commerce on behalf of the United States.  All rights reserved.
_database_code_ICSD                62541
_audit_creation_date               1988/02/22
_audit_update_record               2007/04/01
_chemical_name_systematic
;
Dicesium Potassium Hexacyanochromate(III)
;
_chemical_formula_structural       'Cs2 K (Cr (C N)6)'
_chemical_formula_sum              'C6 Cr1 Cs2 K1 N6'
_publ_section_title
;
Covalence in the (Cr (C N)6)3- Ion studied by X-ray diffraction from 
Cs2 K Cr (C N)6.
;
loop_
_citation_id
_citation_journal_abbrev
_citation_year
_citation_journal_volume
_citation_page_first
_citation_page_last
_citation_journal_id_ASTM
primary
;
Journal of the Chemical Society. Dalton Transactions, Inorganic 
Chemistry (1972-)
;
 1987 1987 1747 1753 JCDTBI
2 'Inorganic Chemistry' 1987 26 101 105 INOCAJ
_publ_author_name                  'Figgis, B.N.;Reynolds, P.A.'
_cell_length_a                     11.199(4)
_cell_length_b                     8.301(3)
_cell_length_c                     7.703(2)
_cell_angle_alpha                  90.
_cell_angle_beta                   90.82
_cell_angle_gamma                  90.
_cell_volume                       716.02
_cell_formula_units_Z              2
_symmetry_space_group_name_H-M     'P 1 21/n 1'
_symmetry_Int_Tables_number        14
_refine_ls_R_factor_all            .0022
loop_
_symmetry_equiv_pos_site_id
_symmetry_equiv_pos_as_xyz
  1	'-x+.5, y+.5, -z+.5'
  2	'-x, -y, -z'
  3	'x+.5, -y+.5, z+.5'
  4	'x, y, z'
loop_
_atom_type_symbol
_atom_type_oxidation_number
C2+	2
Cr3+	3
Cs1+	1
K1+	1
N3-	-3
loop_
_atom_site_label
_atom_site_type_symbol
_atom_site_symmetry_multiplicity
_atom_site_Wyckoff_symbol
_atom_site_fract_x
_atom_site_fract_y
_atom_site_fract_z
_atom_site_occupancy
_atom_site_attached_hydrogens
Cr1 Cr3+ 2 a 0 0 0 1. 0 
K1 K1+ 2 d 0 0.5 0.5 1. 0 
Cs1 Cs1+ 4 e 0.2525(1) 0.4223(1) -.0261(1) 1. 0 
C1 C2+ 4 e 0.0368(3) 0.1319(3) -.2197(3) 1. 0 
C2 C2+ 4 e 0.0469(3) -.2095(3) -.1287(3) 1. 0 
C3 C2+ 4 e 0.1743(3) 0.0282(3) 0.0842(3) 1. 0 
N1 N3- 4 e 0.0593(5) 0.2048(5) -.3444(5) 1. 0 
N2 N3- 4 e 0.0761(4) -.3251(4) -.2019(5) 1. 0 
N3 N3- 4 e 0.2711(3) 0.0481(5) 0.1312(5) 1. 0 

#End of data_62541-ICSD


