data_423404-ICSD
#?2014 by Fachinformationszentrum Karlsruhe, and the U.S. Secretary of 
#Commerce on behalf of the United States.  All rights reserved.
_database_code_ICSD                423404
_audit_creation_date               2012/08/01
_chemical_name_systematic
;
Silver Cadmium Germanium Sulfide (2/1/1/4)
;
_chemical_formula_structural       'Ag2 Cd Ge S4'
_chemical_formula_sum              'Ag2 Cd1 Ge1 S4'
_publ_section_title
;
Cation ordering and physicochemical characterization of the 
quaternary diamond-like semiconductor Ag2 Cd Ge S4
;
loop_
_citation_id
_citation_journal_abbrev
_citation_year
_citation_journal_volume
_citation_journal_issue
_citation_page_first
_citation_page_last
_citation_journal_id_ASTM
primary 'Journal of Solid State Chemistry' 2012 187 3 177 185 JSSCBI
_publ_author_name
;
Brunetta, C.D.;Minsterman III, W.C.;Lake, C.H.;Aitken, J.A.
;
_cell_length_a                     13.7415(8)
_cell_length_b                     8.0367(5)
_cell_length_c                     6.5907(4)
_cell_angle_alpha                  90.00
_cell_angle_beta                   90.00
_cell_angle_gamma                  90.00
_cell_volume                       727.85
_cell_formula_units_Z              4
_symmetry_space_group_name_H-M     'P n a 21'
_symmetry_Int_Tables_number        33
_refine_ls_R_factor_all            .0235
loop_
_symmetry_equiv_pos_site_id
_symmetry_equiv_pos_as_xyz
  1	'x+.5, -y+.5, z'
  2	'-x+.5, y+.5, z+.5'
  3	'-x, -y, z+.5'
  4	'x, y, z'
loop_
_atom_type_symbol
_atom_type_oxidation_number
Ag1+	1
Cd2+	2
Ge4+	4
S2-	-2
loop_
_atom_site_label
_atom_site_type_symbol
_atom_site_symmetry_multiplicity
_atom_site_Wyckoff_symbol
_atom_site_fract_x
_atom_site_fract_y
_atom_site_fract_z
_atom_site_occupancy
_atom_site_attached_hydrogens
_atom_site_U_iso_or_equiv
Ge1 Ge4+ 4 a 0.40914(3) 0.74090(5) 0.2118(1) 1 0 0.0130(1) 
Cd1 Cd2+ 4 a 0.65785(2) 0.51335(4) 0.20492(8) 1 0 0.0227(1) 
Ag1 Ag1+ 4 a 0.57554(4) 0.76193(5) 0.71659(10) 1 0 0.040(1) 
Ag2 Ag1+ 4 a 0.65876(3) 1.00059(5) 0.1976(1) 1 0 0.0383(2) 
S1 S2- 4 a 0.55977(1) 0.7574(1) 0.3286(3) 1 0 0.0191(3) 
S2 S2- 4 a 0.33610(9) 0.5134(1) 0.3216(3) 1 0 0.0199(3) 
S3 S2- 4 a 0.40697(1) 0.74320(1) -0.1246(3) 1 0 0.0201(3) 
S4 S2- 4 a 0.33420(8) 0.9697(1) 0.3176(3) 1 0 0.0186(3) 

loop_
_atom_site_aniso_label
_atom_site_aniso_type_symbol
_atom_site_aniso_U_11
_atom_site_aniso_U_22
_atom_site_aniso_U_33
_atom_site_aniso_U_12
_atom_site_aniso_U_13
_atom_site_aniso_U_23
Ge1 Ge4+ 0.0129(2) 0.0143(2) 0.0119(3) 0.0004(1) 0.0001(3) -0.0004(5)
Cd1 Cd2+ 0.0217(2) 0.0236(2) 0.0228(3) -0.0002(1) 0.0009(2) 0.0014(3)
Ag1 Ag1+ 0.0426(3) 0.0445(3) 0.0342(4) -0.0049(1) 0.0044(4) 0.0010(6)
Ag2 Ag1+ 0.0414(3) 0.0396(3) 0.0339(5) 0.0038(1) 0.0040(3) 0.0018(4)
S1 S2- 0.0131(6) 0.0233(6) 0.0210(7) 0.0026(4) -0.0020(6) -0.0023(5)
S2 S2- 0.0233(6) 0.0188(5) 0.0175(8) -0.0047(4) -0.0010(5) 0.0018(6)
S3 S2- 0.0276(8) 0.0218(6) 0.0109(7) -0.0027(5) 0.0003(5) -0.0005(5)
S4 S2- 0.0182(6) 0.0172(5) 0.0205(8) 0.0040(4) -0.0022(5) -0.0043(6)
#End of data_423404-ICSD


