data_188639-ICSD
#?2014 by Fachinformationszentrum Karlsruhe, and the U.S. Secretary of 
#Commerce on behalf of the United States.  All rights reserved.
_database_code_ICSD                188639
_audit_creation_date               2014/02/01
_chemical_name_systematic
;
Octasodium Bis(tetrahydridoborate) Hexakis(gallium Germanate)
;
_chemical_formula_structural       '(Na8 (B H4)2) (Ga Ge O4)6'
_chemical_formula_sum              'H8 B2 Ga6 Ge6 Na8 O24'
_publ_section_title
;
Synthesis, crystal structure and temperature-dependent behavior of 
gallogermanate tetrahydroborate sodalite (Na8 (B H4)2) (Ga Ge O4)6
;
loop_
_citation_id
_citation_journal_abbrev
_citation_year
_citation_journal_volume
_citation_page_first
_citation_page_last
_citation_journal_id_ASTM
primary 'Microporous and Mesoporous Materials' 2013 174 54 61 MIMMFJ
_publ_author_name
;
Poltz, Irma;Robben, Lars;Buhl, Josef-Christian;Gesing, Thorsten M.
;
_cell_length_a                     9.12581(1)
_cell_length_b                     9.12581(1)
_cell_length_c                     9.12581(1)
_cell_angle_alpha                  90.
_cell_angle_beta                   90.
_cell_angle_gamma                  90.
_cell_volume                       760
_cell_formula_units_Z              1
_symmetry_space_group_name_H-M     'P -4 3 n'
_symmetry_Int_Tables_number        218
_refine_ls_R_factor_all            .0194
loop_
_symmetry_equiv_pos_site_id
_symmetry_equiv_pos_as_xyz
  1	'-z+.5, y+.5, -x+.5'
  2	'-y+.5, x+.5, -z+.5'
  3	'-x+.5, z+.5, -y+.5'
  4	'z+.5, -y+.5, -x+.5'
  5	'y+.5, -x+.5, -z+.5'
  6	'x+.5, -z+.5, -y+.5'
  7	'-z+.5, -y+.5, x+.5'
  8	'-y+.5, -x+.5, z+.5'
  9	'-x+.5, -z+.5, y+.5'
 10	'z+.5, y+.5, x+.5'
 11	'y+.5, x+.5, z+.5'
 12	'x+.5, z+.5, y+.5'
 13	'-z, -x, y'
 14	'-y, -z, x'
 15	'-x, -y, z'
 16	'z, -x, -y'
 17	'y, -z, -x'
 18	'x, -y, -z'
 19	'-z, x, -y'
 20	'-y, z, -x'
 21	'-x, y, -z'
 22	'z, x, y'
 23	'y, z, x'
 24	'x, y, z'
loop_
_atom_type_symbol
_atom_type_oxidation_number
B3+	3
Ga3+	3
Ge4+	4
H1-	-1
Na1+	1
O2-	-2
loop_
_atom_site_label
_atom_site_type_symbol
_atom_site_symmetry_multiplicity
_atom_site_Wyckoff_symbol
_atom_site_fract_x
_atom_site_fract_y
_atom_site_fract_z
_atom_site_occupancy
_atom_site_attached_hydrogens
_atom_site_B_iso_or_equiv
Na1 Na1+ 8 e 0.17116(11) 0.17116(11) 0.17116(11) 1. 0 1.29(4) 
Ga1 Ga3+ 6 d 0.250 0 0.5 1. 0 0.39(4) 
Ge1 Ge4+ 6 c 0.250 0.5 0 1. 0 0.36(3) 
O1 O2- 24 i 0.13802(33) 0.14696(31) 0.42001(14) 1. 0 0.47(3) 
B1 B3+ 2 a 0 0 0 1. 0 1.92(11) 
H1 H1- 8 e 0.42111(61) 0.42111(61) 0.42111(61) 1. 0 1.92(11) 

#End of data_188639-ICSD


