data_420737-ICSD
#?2014 by Fachinformationszentrum Karlsruhe, and the U.S. Secretary of 
#Commerce on behalf of the United States.  All rights reserved.
_database_code_ICSD                420737
_audit_creation_date               2010/02/01
_chemical_name_systematic
;
Tripotassium Dysprosium(II) Bis(tetrathioarsenate(V))
;
_chemical_formula_structural       'K3 Dy (As S4)2'
_chemical_formula_sum              'As2 Dy1 K3 S8'
_publ_section_title
;
Syntheses, crystal structures and spectroscopic properties of K Eu 
[As S4], K3 Dy [As S4]2 and Rb4 Nd0.67 [As S4]2
;
loop_
_citation_id
_citation_journal_abbrev
_citation_year
_citation_journal_volume
_citation_journal_issue
_citation_page_first
_citation_page_last
_citation_journal_id_ASTM
primary 'Solid State Sciences' 2009 11 9 1542 1548 SSSCFJ
_publ_author_name                  'Wu Yuan Dong;Bensch, W.'
_cell_length_a                     10.3381(7)
_cell_length_b                     18.7439(12)
_cell_length_c                     8.8185(6)
_cell_angle_alpha                  90.00
_cell_angle_beta                   117.060(7)
_cell_angle_gamma                  90.00
_cell_volume                       1521.75
_cell_formula_units_Z              4
_symmetry_space_group_name_H-M     'C 1 2/c 1'
_symmetry_Int_Tables_number        15
_refine_ls_R_factor_all            .0306
loop_
_symmetry_equiv_pos_site_id
_symmetry_equiv_pos_as_xyz
  1	'x, -y, z+.5'
  2	'-x, -y, -z'
  3	'-x, y, -z+.5'
  4	'x, y, z'
  5	'x+.5, -y+.5, z+.5'
  6	'-x+.5, -y+.5, -z'
  7	'-x+.5, y+.5, -z+.5'
  8	'x+.5, y+.5, z'
loop_
_atom_type_symbol
_atom_type_oxidation_number
As5+	5
Dy3+	3
K1+	1
S2-	-2
loop_
_atom_site_label
_atom_site_type_symbol
_atom_site_symmetry_multiplicity
_atom_site_Wyckoff_symbol
_atom_site_fract_x
_atom_site_fract_y
_atom_site_fract_z
_atom_site_occupancy
_atom_site_attached_hydrogens
_atom_site_U_iso_or_equiv
Dy1 Dy3+ 4 e 0.5000 0.256642(14) 0.2500 1 0 0.00981(14) 
As1 As5+ 8 f 0.21861(4) 0.12364(2) 0.10131(6) 1 0 0.01017(16) 
K1 K1+ 4 e 0.5000 0.50588(8) 0.2500 1 0 0.0207(3) 
K2 K1+ 4 b 0.5000 0.0000 0.0000 1 0 0.0394(5) 
K3 K1+ 4 e 0.5000 0.23592(9) -0.2500 1 0 0.0268(4) 
S1 S2- 8 f 0.25320(12) 0.01153(5) 0.12672(16) 1 0 0.0160(3) 
S2 S2- 8 f 0.51305(11) 0.35475(6) 0.02237(15) 1 0 0.0136(2) 
S3 S2- 8 f 0.20057(12) 0.32674(6) 0.06120(15) 1 0 0.0156(2) 
S4 S2- 8 f 0.68055(13) 0.17729(7) 0.15433(15) 1 0 0.0186(3) 

loop_
_atom_site_aniso_label
_atom_site_aniso_type_symbol
_atom_site_aniso_U_11
_atom_site_aniso_U_22
_atom_site_aniso_U_33
_atom_site_aniso_U_12
_atom_site_aniso_U_13
_atom_site_aniso_U_23
Dy1 Dy3+ 0.00885(19) 0.01226(18) 0.0064(2) 0.000 0.00183(14) 0.000
As1 As5+ 0.0085(2) 0.0110(2) 0.0076(3) -0.00199(13) 0.0007(2) 0.00102(14)
K1 K1+ 0.0175(7) 0.0285(8) 0.0142(8) 0.000 0.0056(6) 0.000
K2 K1+ 0.0184(8) 0.0843(16) 0.0127(10) -0.0033(8) 0.0045(7) -0.0094(8)
K3 K1+ 0.0357(9) 0.0301(8) 0.0191(9) 0.000 0.0164(8) 0.000
S1 S2- 0.0149(5) 0.0120(5) 0.0168(7) 0.0013(4) 0.0035(5) 0.0028(4)
S2 S2- 0.0089(4) 0.0158(5) 0.0133(6) -0.0007(4) 0.0027(4) 0.0037(4)
S3 S2- 0.0158(5) 0.0195(5) 0.0123(6) -0.0052(4) 0.0071(5) -0.0016(4)
S4 S2- 0.0197(6) 0.0253(6) 0.0077(6) 0.0109(4) 0.0035(5) 0.0026(4)
#End of data_420737-ICSD


