data_73813-ICSD
#?2014 by Fachinformationszentrum Karlsruhe, and the U.S. Secretary of 
#Commerce on behalf of the United States.  All rights reserved.
_database_code_ICSD                73813
_audit_creation_date               1995/01/10
_audit_update_record               2003/04/01
_chemical_name_systematic
;
Silver Potassium Bis(catena-phosphate(V))
;
_chemical_formula_structural       'Ag K (P O3)2'
_chemical_formula_sum              'Ag1 K1 O6 P2'
_publ_section_title
;
Structural investigation of a new series of long-chain 
polyphosphates. Crystal structure of Ag K (P O3)2 and crystal data 
for Ag M (P O3)2 with M= K, Rb, Cs and Tl
;
loop_
_citation_id
_citation_journal_abbrev
_citation_year
_citation_journal_volume
_citation_page_first
_citation_page_last
_citation_journal_id_ASTM
primary 'Journal of Solid State Chemistry' 1993 102 93 99 JSSCBI
_publ_author_name                  'Averbuch-Pouchot, M.T.'
_cell_length_a                     7.490(6)
_cell_length_b                     13.175(10)
_cell_length_c                     6.037(5)
_cell_angle_alpha                  90.
_cell_angle_beta                   94.32(6)
_cell_angle_gamma                  90.
_cell_volume                       594.04
_cell_formula_units_Z              4
_symmetry_space_group_name_H-M     'P 1 21/a 1'
_symmetry_Int_Tables_number        14
_refine_ls_R_factor_all            .031
loop_
_symmetry_equiv_pos_site_id
_symmetry_equiv_pos_as_xyz
  1	'x+.5, -y+.5, z'
  2	'-x, -y, -z'
  3	'-x+.5, y+.5, -z'
  4	'x, y, z'
loop_
_atom_type_symbol
_atom_type_oxidation_number
Ag1+	1
K1+	1
O2-	-2
P5+	5
loop_
_atom_site_label
_atom_site_type_symbol
_atom_site_symmetry_multiplicity
_atom_site_Wyckoff_symbol
_atom_site_fract_x
_atom_site_fract_y
_atom_site_fract_z
_atom_site_occupancy
_atom_site_attached_hydrogens
Ag1 Ag1+ 4 e 0.69526(5) 0.02801(2) 0.81253(6) 1. 0 
K1 K1+ 4 e 0.7681(1) 0.33005(7) 0.7033(2) 1. 0 
P1 P5+ 4 e 0.6512(1) 0.13196(7) 0.3143(2) 1. 0 
P2 P5+ 4 e 0.5065(1) 0.32610(7) 0.1516(2) 1. 0 
O1 O2- 4 e 0.3627(4) 0.9719(2) 0.7847(5) 1. 0 
O2 O2- 4 e 0.0918(4) 0.3481(2) 0.5395(4) 1. 0 
O3 O2- 4 e 0.0477(4) 0.2941(2) 0.1358(5) 1. 0 
O4 O2- 4 e 0.8544(4) 0.1715(2) 0.3244(5) 1. 0 
O5 O2- 4 e 0.6659(4) 0.3766(2) 0.2614(6) 1. 0 
O6 O2- 4 e 0.4353(4) 0.3543(3) 0.9246(5) 1. 0 

#End of data_73813-ICSD


