data_51245-ICSD
#?2014 by Fachinformationszentrum Karlsruhe, and the U.S. Secretary of 
#Commerce on behalf of the United States.  All rights reserved.
_database_code_ICSD                51245
_audit_creation_date               2002/04/01
_chemical_name_systematic          'Magnesium Chloride'
_chemical_formula_structural       'Mg Cl2'
_chemical_formula_sum              'Cl2 Mg1'
_publ_section_title
;
Determination of structure candidates of simple crystalline A B2 
systems
;
loop_
_citation_id
_citation_journal_abbrev
_citation_year
_citation_journal_volume
_citation_page_first
_citation_page_last
_citation_journal_id_ASTM
primary 'Journal of Solid State Chemistry' 1998 136 233 246 JSSCBI
_publ_author_name
;
Wevers, M.A.C.;Schoen, J.C.;Jansen, M.
;
_cell_length_a                     4.06
_cell_length_b                     4.06
_cell_length_c                     4.188
_cell_angle_alpha                  90.
_cell_angle_beta                   90.
_cell_angle_gamma                  90.
_cell_volume                       69.03
_cell_formula_units_Z              1
_symmetry_space_group_name_H-M     'P -4 m 2'
_symmetry_Int_Tables_number        115
loop_
_symmetry_equiv_pos_site_id
_symmetry_equiv_pos_as_xyz
  1	'-y, -x, -z'
  2	'x, -y, z'
  3	'y, x, -z'
  4	'-x, y, z'
  5	'y, -x, -z'
  6	'-x, -y, z'
  7	'-y, x, -z'
  8	'x, y, z'
loop_
_atom_type_symbol
_atom_type_oxidation_number
Cl1-	-1
Mg2+	2
loop_
_atom_site_label
_atom_site_type_symbol
_atom_site_symmetry_multiplicity
_atom_site_Wyckoff_symbol
_atom_site_fract_x
_atom_site_fract_y
_atom_site_fract_z
_atom_site_occupancy
_atom_site_attached_hydrogens
Mg1 Mg2+ 1 b 0.5 0.5 0 1. 0 
Cl1 Cl1- 2 g 0 0.5 0.228 1. 0 

#End of data_51245-ICSD


