data_413705-ICSD
#?2014 by Fachinformationszentrum Karlsruhe, and the U.S. Secretary of 
#Commerce on behalf of the United States.  All rights reserved.
_database_code_ICSD                413705
_audit_creation_date               2005/10/01
_chemical_name_systematic
;
Dipotassium Tetracyanodibromoplatinate(IV)
;
_chemical_formula_structural       'K2 (Pt (C N)4 Br2)'
_chemical_formula_sum              'C4 Br2 K2 N4 Pt1'
_publ_section_title
;
Kristallzucht und Strukturaufklaerung von K2 (Pt (C N)4 Cl2), K2 (Pt 
(C N)4 Br2), K2 (Pt (C N)4 I2) und K2 (Pt (C N)4 Cl2).2 H2 O
;
loop_
_citation_id
_citation_journal_abbrev
_citation_year
_citation_journal_volume
_citation_page_first
_citation_page_last
_citation_journal_id_ASTM
primary 'Zeitschrift fuer Naturforschung, B: Chemical Sciences'
 2004 59 567 572 ZNBSEN
_publ_author_name
;
Muehle, C.;Karpov, A.;Nuss, J.;Jansen, M.
;
_cell_length_a                     7.1601(6)
_cell_length_b                     8.9912(7)
_cell_length_c                     8.6788(7)
_cell_angle_alpha                  90.00
_cell_angle_beta                   106.851(2)
_cell_angle_gamma                  90.00
_cell_volume                       534.73
_cell_formula_units_Z              2
_symmetry_space_group_name_H-M     'P 1 21/c 1'
_symmetry_Int_Tables_number        14
_refine_ls_R_factor_all            .0517
loop_
_symmetry_equiv_pos_site_id
_symmetry_equiv_pos_as_xyz
  1	'x, -y+.5, z+.5'
  2	'-x, -y, -z'
  3	'-x, y+.5, -z+.5'
  4	'x, y, z'
loop_
_atom_type_symbol
_atom_type_oxidation_number
Br1-	-1
C2+	2
K1+	1
N3-	-3
Pt4+	4
loop_
_atom_site_label
_atom_site_type_symbol
_atom_site_symmetry_multiplicity
_atom_site_Wyckoff_symbol
_atom_site_fract_x
_atom_site_fract_y
_atom_site_fract_z
_atom_site_occupancy
_atom_site_attached_hydrogens
_atom_site_U_iso_or_equiv
Pt1 Pt4+ 2 a 0.0000 0.0000 0.0000 1 0 0.01840(3) 
Br1 Br1- 4 e 0.10065(3) 0.26508(2) 0.03274(3) 1 0 0.03099(5) 
K1 K1+ 4 e 0.49862(7) 0.77715(6) 0.62206(6) 1 0 0.03128(9) 
C1 C2+ 4 e 0.7945(3) 0.0378(3) 0.1119(3) 1 0 0.0242(4) 
C2 C2+ 4 e 0.1960(3) 0.9528(3) 0.2111(3) 1 0 0.0234(4) 
N1 N3- 4 e 0.6721(3) 0.0591(3) 0.1687(3) 1 0 0.0352(4) 
N2 N3- 4 e 0.3154(3) 0.9277(2) 0.3284(3) 1 0 0.0330(4) 

loop_
_atom_site_aniso_label
_atom_site_aniso_type_symbol
_atom_site_aniso_U_11
_atom_site_aniso_U_22
_atom_site_aniso_U_33
_atom_site_aniso_U_12
_atom_site_aniso_U_13
_atom_site_aniso_U_23
Pt1 Pt4+ 0.01748(4) 0.01872(4) 0.01892(4) 0.00058(3) 0.00515(3) -0.00001(4)
Br1 Br1- 0.03461(9) 0.02141(8) 0.03732(11) -0.00325(8) 0.01105(11) 
-0.00211(9)
K1 K1+ 0.0357(2) 0.0316(2) 0.0269(2) -0.00440(17) 0.0095(2) -0.0020(2)
C1 C2+ 0.0241(9) 0.0242(8) 0.0241(8) -0.0007(7) 0.0065(7) 0.0010(7)
C2 C2+ 0.0235(9) 0.0224(8) 0.0249(9) 0.0004(7) 0.0080(7) 0.0007(7)
N1 N3- 0.0319(9) 0.0388(10) 0.0394(11) 0.0011(8) 0.0173(10) -0.0016(10)
N2 N3- 0.0316(8) 0.0329(9) 0.0296(9) -0.0008(7) 0.0011(9) 0.0035(9)
#End of data_413705-ICSD


