data_15880-ICSD
#?2014 by Fachinformationszentrum Karlsruhe, and the U.S. Secretary of 
#Commerce on behalf of the United States.  All rights reserved.
_database_code_ICSD                15880
_audit_creation_date               1980/01/01
_audit_update_record               2012/02/01
_chemical_name_systematic          'Dipotassium Imidodisulfate(VI)'
_chemical_formula_structural       'K2 (N H (S O3)2)'
_chemical_formula_sum              'H1 K2 N1 O6 S2'
_publ_section_title
;
A refinement of the crystal structure of potassium imidodisulphate
;
loop_
_citation_id
_citation_journal_abbrev
_citation_year
_citation_journal_volume
_citation_page_first
_citation_page_last
_citation_journal_id_ASTM
primary 'Acta Crystallographica (1,1948-23,1967)' 1963 16 877 883 ACCRA9
_publ_author_name                  'Cruickshank, D.W.J.;Jones, D.W.'
_cell_length_a                     12.43
_cell_length_b                     7.458
_cell_length_c                     7.175
_cell_angle_alpha                  90.
_cell_angle_beta                   91.18
_cell_angle_gamma                  90.
_cell_volume                       665
_cell_formula_units_Z              4
_symmetry_space_group_name_H-M     'C 1 2/c 1'
_symmetry_Int_Tables_number        15
_refine_ls_R_factor_all            .094
loop_
_symmetry_equiv_pos_site_id
_symmetry_equiv_pos_as_xyz
  1	'x, -y, z+.5'
  2	'-x, -y, -z'
  3	'-x, y, -z+.5'
  4	'x, y, z'
  5	'x+.5, -y+.5, z+.5'
  6	'-x+.5, -y+.5, -z'
  7	'-x+.5, y+.5, -z+.5'
  8	'x+.5, y+.5, z'
loop_
_atom_type_symbol
_atom_type_oxidation_number
H1+	1
K1+	1
N3-	-3
O2-	-2
S6+	6
loop_
_atom_site_label
_atom_site_type_symbol
_atom_site_symmetry_multiplicity
_atom_site_Wyckoff_symbol
_atom_site_fract_x
_atom_site_fract_y
_atom_site_fract_z
_atom_site_occupancy
_atom_site_attached_hydrogens
K1 K1+ 8 f 0.3476 0.6414 0.6427 1. 0 
S1 S6+ 8 f 0.3988 0.1783 0.6398 1. 0 
O1 O2- 8 f 0.4437 0.2717 0.4819 1. 0 
O2 O2- 8 f 0.3282 0.0335 0.589 1. 0 
O3 O2- 8 f 0.3519 0.2999 0.7723 1. 0 
N1 N3- 4 e 0.5 0.077 0.75 1. 0 
H1 H1+ 4 e 0.5 -.0576 0.75 1. 0 

loop_
_atom_site_aniso_label
_atom_site_aniso_type_symbol
_atom_site_aniso_U_11
_atom_site_aniso_U_22
_atom_site_aniso_U_33
_atom_site_aniso_U_12
_atom_site_aniso_U_13
_atom_site_aniso_U_23
K1 K1+ 0.0403 0.0417 0.034 0.0004 0.00655 0.0013
S1 S6+ 0.0292 0.0323 0.027 0.0011 0.00085 0.00215
O1 O2- 0.042 0.06 0.0386 -.00625 0.0165 0.00195
O2 O2- 0.039 0.0455 0.0547 -.0044 -.00405 -.0038
O3 O2- 0.044 0.0437 0.0489 0.01285 0.00135 0.00165
N1 N3- 0.0374 0.028 0.0332 0 0 0.00665
#End of data_15880-ICSD


