data_83531-ICSD
#?2014 by Fachinformationszentrum Karlsruhe, and the U.S. Secretary of 
#Commerce on behalf of the United States.  All rights reserved.
_database_code_ICSD                83531
_audit_creation_date               1998/06/26
_audit_update_record               2005/10/01
_chemical_name_systematic          'Potassium Tecto-alumotrisilicate'
_chemical_formula_structural       'K (Al Si3 O8)'
_chemical_formula_sum              'Al1 K1 O8 Si3'
_chemical_name_mineral             'Microcline (ordered)'
_publ_section_title
;
A high-pressure structural study of microcline (K Al Si3 O8) to 7 GPa
;
loop_
_citation_id
_citation_journal_abbrev
_citation_year
_citation_journal_volume
_citation_page_first
_citation_page_last
_citation_journal_id_ASTM
primary 'European Journal of Mineralogy' 1997 9 263 275 EJMIER
_publ_author_name                  'Allan, D.R.;Angel, R.J.'
_cell_length_a                     8.5733(5)
_cell_length_b                     12.9375(13)
_cell_length_c                     7.2075(3)
_cell_angle_alpha                  90.530(8)
_cell_angle_beta                   115.972(4)
_cell_angle_gamma                  87.968(8)
_cell_volume                       718.23
_cell_formula_units_Z              4
_symmetry_space_group_name_H-M     'C -1'
_symmetry_Int_Tables_number        2
_refine_ls_R_factor_all            .074
loop_
_symmetry_equiv_pos_site_id
_symmetry_equiv_pos_as_xyz
  1	'-x, -y, -z'
  2	'x, y, z'
  3	'-x+.5, -y+.5, -z'
  4	'x+.5, y+.5, z'
loop_
_atom_type_symbol
_atom_type_oxidation_number
Al3+	3
K1+	1
O2-	-2
Si4+	4
loop_
_atom_site_label
_atom_site_type_symbol
_atom_site_symmetry_multiplicity
_atom_site_Wyckoff_symbol
_atom_site_fract_x
_atom_site_fract_y
_atom_site_fract_z
_atom_site_occupancy
_atom_site_attached_hydrogens
_atom_site_B_iso_or_equiv
K1 K1+ 4 i 0.2841(5) -.0071(7) 0.1367(4) 1. 0 1.97(10) 
Al1 Al3+ 4 i 0.0102(6) 0.1881(9) 0.2180(5) 1. 0 1.30(8) 
Si2 Si4+ 4 i 0.0088(6) 0.8182(9) 0.2315(5) 1. 0 1.30(7) 
Si3 Si4+ 4 i 0.7105(6) 0.1206(9) 0.3405(5) 1. 0 1.30(7) 
Si4 Si4+ 4 i 0.7069(5) 0.8864(9) 0.3497(5) 1. 0 1.34(7) 
O1 O2- 4 i 0.0017(13) 0.1406(20) -.0157(13) 1. 0 1.73(18) 
O2 O2- 4 i 0.6396(13) 0.0050(22) 0.2859(14) 1. 0 1.51(18) 
O3 O2- 4 i 0.8211(14) 0.1499(20) 0.2205(13) 1. 0 1.96(19) 
O4 O2- 4 i 0.8324(13) 0.8558(20) 0.2380(13) 1. 0 2.08(19) 
O5 O2- 4 i 0.0347(14) 0.3214(22) 0.2530(13) 1. 0 1.78(18) 
O6 O2- 4 i 0.0384(14) 0.6912(22) 0.2684(14) 1. 0 1.65(18) 
O7 O2- 4 i 0.1884(13) 0.1253(19) 0.4045(12) 1. 0 1.59(18) 
O8 O2- 4 i 0.1768(14) 0.8700(21) 0.4102(13) 1. 0 1.67(18) 

#End of data_83531-ICSD


