data_260232-ICSD
#?2014 by Fachinformationszentrum Karlsruhe, and the U.S. Secretary of 
#Commerce on behalf of the United States.  All rights reserved.
_database_code_ICSD                260232
_audit_creation_date               2009/08/01
_chemical_name_systematic
;
Calcium(II) Tellurium(IV) Oxide - Beta Prime
;
_chemical_formula_structural       'Ca (Te O3)'
_chemical_formula_sum              'Ca1 O3 Te1'
_publ_section_title
;
Polymorphism of Ca Te O3 and solid solutions Ca(x) Sr(1-x) Te O3
;
loop_
_citation_id
_citation_journal_abbrev
_citation_year
_citation_journal_volume
_citation_journal_issue
_citation_page_first
_citation_page_last
_citation_journal_id_ASTM
primary 'Acta Crystallographica, Section B: Structural Science'
 2009 65 2 167 181 ASBSDK
_publ_author_name
;
Stoeger, B.;Weil, M.;Zobetz, E.;Giester, G.
;
_cell_length_a                     25.6149(4)
_cell_length_b                     10.3921(2)
_cell_length_c                     11.2440(2)
_cell_angle_alpha                  108.6080(10)
_cell_angle_beta                   112.394(2)
_cell_angle_gamma                  32.3130(10)
_cell_volume                       1479.25
_cell_formula_units_Z              18
_symmetry_space_group_name_H-M     'P -1'
_symmetry_Int_Tables_number        2
_refine_ls_R_factor_all            .034
loop_
_symmetry_equiv_pos_site_id
_symmetry_equiv_pos_as_xyz
  1	'-x, -y, -z'
  2	'x, y, z'
loop_
_atom_type_symbol
_atom_type_oxidation_number
Ca2+	2
O2-	-2
Te4+	4
loop_
_atom_site_label
_atom_site_type_symbol
_atom_site_symmetry_multiplicity
_atom_site_Wyckoff_symbol
_atom_site_fract_x
_atom_site_fract_y
_atom_site_fract_z
_atom_site_occupancy
_atom_site_attached_hydrogens
_atom_site_U_iso_or_equiv
Te1 Te4+ 2 i 0.213549(17) 0.18718(4) -0.23816(2) 1 0 0.00955(5) 
Te2 Te4+ 2 i 0.547554(17) 0.18975(4) -0.27497(2) 1 0 0.00823(5) 
Te3 Te4+ 2 i -0.141696(17 0.23835(4) 0.73149(2) 1 0 0.00786(5) 
Te4 Te4+ 2 i 0.028898(18) -0.27956(4) 0.48246(2) 1 0 0.01179(5) 
Te5 Te4+ 2 i 0.353524(18) -0.19004(4) 0.47736(2) 1 0 0.01221(5) 
Te6 Te4+ 2 i -0.307513(17 0.70931(4) 0.44464(2) 1 0 0.00969(5) 
Te7 Te4+ 2 i 0.166095(17) 0.29255(4) 0.18868(2) 1 0 0.00891(5) 
Te8 Te4+ 2 i 0.484313(17) -0.71572(4) 0.16411(2) 1 0 0.00811(5) 
Te9 Te4+ 2 i -0.135498(17 0.20477(4) 0.17834(2) 1 0 0.00875(5) 
Ca1 Ca2+ 2 i -0.08161(5) -0.27293(13) 0.12004(7) 1 0 0.01070(14) 
Ca2 Ca2+ 2 i 0.24491(5) -0.18978(13) 0.14148(7) 1 0 0.01094(14) 
Ca3 Ca2+ 2 i 0.59101(5) -0.24736(13) 0.13903(7) 1 0 0.01002(14) 
Ca4 Ca2+ 2 i -0.07701(5) -0.24965(13) 0.62740(7) 1 0 0.01054(14) 
Ca5 Ca2+ 2 i 0.26444(5) -0.27104(13) 0.58564(7) 1 0 0.00989(14) 
Ca6 Ca2+ 2 i -0.43690(5) 0.78116(13) 0.61322(7) 1 0 0.01025(14) 
Ca7 Ca2+ 2 i 0.02698(5) -0.24109(13) -0.03518(7) 1 0 0.01056(14) 
Ca8 Ca2+ 2 i 0.36621(5) -0.25524(12) -0.03349(7) 1 0 0.00917(14) 
Ca9 Ca2+ 2 i 0.67455(5) -0.25599(12) -0.05513(7) 1 0 0.00899(14) 
O1 O2- 2 i 0.22964(19) -0.0252(5) -0.2316(2) 1 0 0.0128(5) 
O2 O2- 2 i 0.54083(19) 0.0475(4) -0.2250(2) 1 0 0.0111(5) 
O3 O2- 2 i -0.12029(18) 0.0435(4) 0.7918(2) 1 0 0.0109(5) 
O4 O2- 2 i 0.08590(19) 0.4643(4) -0.2020(3) 1 0 0.0127(5) 
O5 O2- 2 i 0.43498(18) 0.3999(4) -0.4078(2) 1 0 0.0114(5) 
O6 O2- 2 i -0.17825(18) 0.4392(4) 0.8748(2) 1 0 0.0121(5) 
O7 O2- 2 i 0.2936(2) 0.0969(5) -0.0743(3) 1 0 0.0151(6) 
O8 O2- 2 i 0.49962(19) 0.4104(4) -0.1385(2) 1 0 0.0132(5) 
O9 O2- 2 i -0.26642(18) 0.4331(4) 0.6245(2) 1 0 0.0133(5) 
O10 O2- 2 i 0.0004(2) -0.2705(5) 0.3059(3) 1 0 0.0196(6) 
O11 O2- 2 i 0.3688(2) -0.3272(6) 0.3166(3) 1 0 0.0315(8) 
O12 O2- 2 i -0.4004(2) 0.9473(5) 0.3194(3) 1 0 0.0156(6) 
O13 O2- 2 i 0.0606(2) -0.5054(5) 0.5151(3) 1 0 0.0185(6) 
O14 O2- 2 i 0.24478(19) -0.0610(5) 0.4906(3) 1 0 0.0157(6) 
O15 O2- 2 i -0.29943(19) 0.5153(4) 0.3288(2) 1 0 0.0120(5) 
O16 O2- 2 i -0.09756(19) -0.0266(5) 0.5169(3) 1 0 0.0163(6) 
O17 O2- 2 i 0.2873(2) 0.0859(6) 0.4317(3) 1 0 0.0263(7) 
O18 O2- 2 i -0.40718(19) 0.8892(4) 0.5252(3) 1 0 0.0133(5) 
O19 O2- 2 i 0.05750(18) 0.5180(4) 0.0542(2) 1 0 0.0100(5) 
O20 O2- 2 i 0.38503(18) -0.4860(4) 0.0284(2) 1 0 0.0105(5) 
O21 O2- 2 i -0.25417(19) 0.5049(5) 0.1020(3) 1 0 0.0176(6) 
O22 O2- 2 i 0.2399(2) 0.0286(5) 0.0773(3) 1 0 0.0159(6) 
O23 O2- 2 i 0.54539(18) -0.9705(4) 0.0499(2) 1 0 0.0108(5) 
O24 O2- 2 i -0.1402(2) 0.0403(5) 0.0628(3) 1 0 0.0179(6) 
O25 O2- 2 i 0.1138(2) 0.2489(5) 0.2142(3) 1 0 0.0141(5) 
O26 O2- 2 i 0.39494(19) -0.6565(5) 0.1837(2) 1 0 0.0115(5) 
O27 O2- 2 i -0.04583(19) 0.0926(5) 0.1091(3) 1 0 0.0130(5) 

loop_
_atom_site_aniso_label
_atom_site_aniso_type_symbol
_atom_site_aniso_U_11
_atom_site_aniso_U_22
_atom_site_aniso_U_33
_atom_site_aniso_U_12
_atom_site_aniso_U_13
_atom_site_aniso_U_23
Te1 Te4+ 0.00915(11) 0.00917(10) 0.00973(12) -0.00733(10) 0.00256(9) 
0.00001(8)
Te2 Te4+ 0.00773(10) 0.00867(10) 0.00740(11) -0.00659(9) 0.00167(8) 
0.00006(8)
Te3 Te4+ 0.00721(10) 0.00735(10) 0.00777(11) -0.00578(9) 0.00151(8) 
0.00023(8)
Te4 Te4+ 0.01140(11) 0.01473(11) 0.00940(12) -0.01101(11) 0.00245(9) 
-0.00120(9)
Te5 Te4+ 0.01200(11) 0.01438(12) 0.01022(12) -0.01118(11) 0.00161(9) 
-0.00040(9)
Te6 Te4+ 0.00800(10) 0.00872(10) 0.00959(12) -0.00641(10) 0.00131(8) 
0.00089(8)
Te7 Te4+ 0.00887(10) 0.00898(10) 0.00891(11) -0.00728(10) 0.00185(8) 
0.00053(8)
Te8 Te4+ 0.00782(10) 0.00778(10) 0.00849(11) -0.00640(9) 0.00168(8) 
0.00008(8)
Te9 Te4+ 0.00753(10) 0.00781(10) 0.00839(11) -0.00590(10) 0.00134(8) 
0.00052(8)
Ca1 Ca2+ 0.0122(3) 0.0114(3) 0.0112(4) -0.0101(3) 0.0042(3) -0.0017(3)
Ca2 Ca2+ 0.0085(3) 0.0101(3) 0.0120(4) -0.0073(3) 0.0016(3) 0.0011(3)
Ca3 Ca2+ 0.0094(3) 0.0102(3) 0.0096(4) -0.0078(3) 0.0022(3) 0.0003(3)
Ca4 Ca2+ 0.0101(3) 0.0094(3) 0.0099(4) -0.0075(3) 0.0031(3) -0.0002(3)
Ca5 Ca2+ 0.0105(3) 0.0086(3) 0.0091(3) -0.0077(3) 0.0013(3) 0.0008(3)
Ca6 Ca2+ 0.0094(3) 0.0109(3) 0.0081(3) -0.0080(3) 0.0015(3) 0.0006(3)
Ca7 Ca2+ 0.0114(3) 0.0097(3) 0.0092(4) -0.0088(3) -0.0004(3) 0.0018(3)
Ca8 Ca2+ 0.0090(3) 0.0079(3) 0.0094(4) -0.0066(3) 0.0026(3) -0.0002(3)
Ca9 Ca2+ 0.0083(3) 0.0085(3) 0.0100(3) -0.0068(3) 0.0025(3) -0.0002(3)
O1 O2- 0.0162(13) 0.0155(13) 0.0104(13) -0.0141(12) 0.0028(11) -0.0017(10)
O2 O2- 0.0111(12) 0.0102(12) 0.0121(13) -0.0086(11) 0.0030(10) 0.0006(10)
O3 O2- 0.0111(12) 0.0103(12) 0.0129(13) -0.0092(11) 0.0010(10) 0.0013(10)
O4 O2- 0.0112(12) 0.0103(12) 0.0132(14) -0.0078(11) 0.0046(10) 0.0003(10)
O5 O2- 0.0080(12) 0.0105(12) 0.0110(13) -0.0071(11) -0.0001(10) 0.0014(10)
O6 O2- 0.0103(12) 0.0098(12) 0.0111(13) -0.0076(11) 0.0046(10) -0.0038(10)
O7 O2- 0.0169(14) 0.0165(13) 0.0139(14) -0.0149(13) -0.0032(11) 0.0040(11)
O8 O2- 0.0145(13) 0.0106(12) 0.0104(14) -0.0097(12) 0.0063(11) -0.0042(10)
O9 O2- 0.0071(12) 0.0111(12) 0.0118(14) -0.0060(11) 0.0007(10) 0.0008(10)
O10 O2- 0.0223(15) 0.0266(16) 0.0072(14) -0.0200(14) 0.0024(11) -0.0001(11)
O11 O2- 0.0165(16) 0.0268(17) 0.0194(17) -0.0148(15) 0.0038(13) -0.0100(13)
O12 O2- 0.0172(14) 0.0131(13) 0.0121(14) -0.0119(12) -0.0001(11) 0.0035(10)
O13 O2- 0.0206(15) 0.0120(13) 0.0183(15) -0.0120(13) 0.0072(12) -0.0004(11)
O14 O2- 0.0116(13) 0.0156(13) 0.0208(15) -0.0110(12) 0.0017(11) 0.0043(11)
O15 O2- 0.0146(13) 0.0106(12) 0.0115(13) -0.0104(12) 0.0042(11) -0.0010(10)
O16 O2- 0.0104(13) 0.0128(13) 0.0166(15) -0.0077(12) 0.0051(11) -0.0010(11)
O17 O2- 0.0349(18) 0.0365(18) 0.0268(18) -0.0333(17) -0.0047(14) 0.0106(14)
O18 O2- 0.0108(12) 0.0104(12) 0.0167(14) -0.0078(11) 0.0051(11) 0.0001(10)
O19 O2- 0.0088(12) 0.0090(11) 0.0101(13) -0.0070(11) 0.0002(10) 0.0022(9)
O20 O2- 0.0106(12) 0.0082(11) 0.0097(13) -0.0073(11) 0.0021(10) 0.0003(9)
O21 O2- 0.0092(13) 0.0097(12) 0.0214(16) -0.0043(11) 0.0033(11) 0.0067(11)
O22 O2- 0.0154(14) 0.0129(13) 0.0201(15) -0.0110(12) 0.0106(12) -0.0049(11)
O23 O2- 0.0094(12) 0.0081(11) 0.0095(13) -0.0060(11) 0.0043(10) -0.0014(9)
O24 O2- 0.0226(15) 0.0152(13) 0.0165(15) -0.0166(13) -0.0015(12) 0.0027(11)
O25 O2- 0.0163(13) 0.0164(13) 0.0144(14) -0.0140(12) 0.0052(11) -0.0007(11)
O26 O2- 0.0148(13) 0.0163(13) 0.0115(13) -0.0141(12) 0.0019(10) 0.0017(10)
O27 O2- 0.0101(12) 0.0141(13) 0.0177(14) -0.0098(12) 0.0049(11) 0.0005(11)
#End of data_260232-ICSD


