data_16122-ICSD
#?2014 by Fachinformationszentrum Karlsruhe, and the U.S. Secretary of 
#Commerce on behalf of the United States.  All rights reserved.
_database_code_ICSD                16122
_audit_creation_date               1980/01/01
_audit_update_record               2007/08/01
_chemical_name_systematic          'Dipotassium Tetramolybdate'
_chemical_formula_structural       'K2 (Mo4 O13)'
_chemical_formula_sum              'K2 Mo4 O13'
_publ_section_title
;
Crystal structure of potassium tetramolybdate, K2 Mo4 O13, and its 
relationship to the structures of other univalent metal 
polymolybdates
;
loop_
_citation_id
_citation_journal_abbrev
_citation_year
_citation_journal_volume
_citation_page_first
_citation_page_last
_citation_journal_id_ASTM
primary
;
Journal of the Chemical Society A: Inorganic, Physical, Theoretical 
(1966-1971)
;
 1971 1971 2107 2112 JCSIAP
2 'Chemical Communications (1965 - 1969)' 1970 1970 740 741 CCOMA8
_publ_author_name                  'Gatehouse, B.M.;Leverett, P.'
_cell_length_a                     7.972(2)
_cell_length_b                     8.352(2)
_cell_length_c                     10.994(3)
_cell_angle_alpha                  119.4(1)
_cell_angle_beta                   62.7(1)
_cell_angle_gamma                  109.8(1)
_cell_volume                       560.57
_cell_formula_units_Z              2
_symmetry_space_group_name_H-M     'P -1'
_symmetry_Int_Tables_number        2
_refine_ls_R_factor_all            .12
loop_
_symmetry_equiv_pos_site_id
_symmetry_equiv_pos_as_xyz
  1	'-x, -y, -z'
  2	'x, y, z'
loop_
_atom_type_symbol
_atom_type_oxidation_number
K1+	1
Mo6+	6
O2-	-2
loop_
_atom_site_label
_atom_site_type_symbol
_atom_site_symmetry_multiplicity
_atom_site_Wyckoff_symbol
_atom_site_fract_x
_atom_site_fract_y
_atom_site_fract_z
_atom_site_occupancy
_atom_site_attached_hydrogens
_atom_site_B_iso_or_equiv
Mo1 Mo6+ 2 i 0.7231(4) 0.0053(6) 0.2083(3) 1. 0 0.18(1) 
Mo2 Mo6+ 2 i 0.7253(4) 0.6260(6) 0.2286(3) 1. 0 0.24(1) 
Mo3 Mo6+ 2 i 0.3100(4) -.0444(6) 0.4513(3) 1. 0 0.15(1) 
Mo4 Mo6+ 2 i 0.3292(4) 0.3461(6) 0.4385(3) 1. 0 0.24(1) 
K1 K1+ 2 i 0.1896(14) 0.4291(20) 0.1907(13) 1. 0 1.91(1) 
K2 K1+ 2 i 0.2455(13) 0.8503(18) 0.0642(11) 1. 0 1.23(1) 
O1 O2- 2 i 0.6296(42) 0.8777(56) 0.0667(36) 1. 0 1.34(1) 
O2 O2- 2 i 0.5946(41) 0.4844(54) 0.1103(35) 1. 0 1.2(1) 
O3 O2- 2 i 0.9088(41) 0.5127(55) 0.1566(35) 1. 0 1.1(1) 
O4 O2- 2 i 0.8981(38) 0.1557(51) 0.1453(32) 1. 0 0.71(1) 
O5 O2- 2 i 0.8658(40) 0.8210(54) 0.1630(34) 1. 0 1.04(1) 
O6 O2- 2 i 0.3063(40) 0.2045(53) 0.2653(34) 1. 0 1.05(1) 
O7 O2- 2 i 0.2208(41) 0.8225(54) 0.3094(35) 1. 0 1.21(1) 
O8 O2- 2 i 0.5243(36) 0.1366(50) 0.3563(31) 1. 0 0.48(1) 
O9 O2- 2 i 0.5488(38) 0.5178(52) 0.3816(32) 1. 0 0.88(1) 
O10 O2- 2 i 0.5446(35) 0.8522(49) 0.3646(30) 1. 0 0.36(1) 
O11 O2- 2 i 0.8232(36) 0.1274(49) 0.4121(31) 1. 0 0.5(1) 
O12 O2- 2 i 0.7951(40) 0.8250(53) 0.4465(34) 1. 0 0.98(1) 
O13 O2- 2 i 0.8412(49) 0.5158(62) 0.4604(41) 1. 0 2.09(1) 

#End of data_16122-ICSD


