data_190040-ICSD
#?2014 by Fachinformationszentrum Karlsruhe, and the U.S. Secretary of 
#Commerce on behalf of the United States.  All rights reserved.
_database_code_ICSD                190040
_audit_creation_date               2014/08/01
_chemical_name_systematic          'Hexacalcium Tetrasilicate'
_chemical_formula_structural       'Ca6 (Si O4) (Si3 O10)'
_chemical_formula_sum              'Ca6 O14 Si4'
_chemical_name_mineral             Kilchoanite
_publ_section_title
;
Pavlovskyite Ca8 (Si O4)2 (Si3 O10): A new mineral of altered 
silicate-carbonate xenoliths from the two Russian type localities, 
Birkhin massif, Baikal Lake area and Upper Chegem caldera, North 
Caucasus
;
loop_
_citation_id
_citation_journal_abbrev
_citation_year
_citation_journal_volume
_citation_journal_issue
_citation_page_first
_citation_page_last
_citation_journal_id_ASTM
primary 'American Mineralogist' 2012 97 4 503 512 AMMIAY
_publ_author_name
;
Evgeny V. Galuskin;Frank Gfeller;Valentina B. Savelyeva;Thomas 
Armbruster;Biljana Lazic;Irina O. Galuskina;Daniel M. 
Toebbens;Aleksandr E. Zadov;Piotr Dzierzanowski;Nikolai N. 
Pertsev;Viktor M. Gazeev
;
_cell_length_a                     11.4525(2)
_cell_length_b                     5.08670(10)
_cell_length_c                     21.9963(3)
_cell_angle_alpha                  90.
_cell_angle_beta                   90.
_cell_angle_gamma                  90.
_cell_volume                       1281.4
_cell_formula_units_Z              4
_symmetry_space_group_name_H-M     'I 2 c m'
_symmetry_Int_Tables_number        46
_refine_ls_R_factor_all            .02
loop_
_symmetry_equiv_pos_site_id
_symmetry_equiv_pos_as_xyz
  1	'x, -y, z+.5'
  2	'x, y, -z+.5'
  3	'x, -y, -z'
  4	'x, y, z'
  5	'x+.5, -y+.5, z'
  6	'x+.5, y+.5, -z'
  7	'x+.5, -y+.5, -z+.5'
  8	'x+.5, y+.5, z+.5'
loop_
_atom_type_symbol
_atom_type_oxidation_number
Ca2+	2
O2-	-2
Si4+	4
loop_
_atom_site_label
_atom_site_type_symbol
_atom_site_symmetry_multiplicity
_atom_site_Wyckoff_symbol
_atom_site_fract_x
_atom_site_fract_y
_atom_site_fract_z
_atom_site_occupancy
_atom_site_attached_hydrogens
_atom_site_U_iso_or_equiv
Ca1 Ca2+ 4 a 0.01150(3) 0 0 1. 0 0.00918(5) 
Ca2 Ca2+ 4 b 0.31064(3) 0.99909(6) 0.250 1. 0 0.00740(5) 
Ca3 Ca2+ 8 c 0.03527(2) 0.00353(4) 0.168222(10) 1. 0 0.00937(4) 
Ca4 Ca2+ 8 c 0.241867(19) 0.49751(4) 0.104083(10) 1. 0 0.00734(4) 
Si1 Si4+ 4 b 0.12152(4) 0.42774(8) 0.250 1. 0 0.00589(7) 
Si2 Si4+ 8 c 0.43213(3) 0.94159(6) 0.100328(14) 1. 0 0.00624(5) 
Si3 Si4+ 4 a 0.26486(4) 0 0 1. 0 0.00626(7) 
O1 O2- 8 c 0.18816(8) 0.29836(15) 0.19132(4) 1. 0 0.00859(13) 
O2 O2- 4 b 0.99064(11) 0.2935(2) 0.250 1. 0 0.00872(19) 
O3 O2- 4 b 0.12178(13) 0.7475(2) 0.250 1. 0 0.00942(19) 
O4 O2- 8 c 0.36993(8) 0.80255(16) 0.15865(4) 1. 0 0.00880(13) 
O5 O2- 8 c 0.05900(8) 0.69266(17) 0.09191(4) 1. 0 0.00949(14) 
O6 O2- 8 c 0.35498(8) 0.81255(16) 0.04103(4) 1. 0 0.00821(12) 
O7 O2- 8 c 0.42751(9) 0.25721(16) 0.09613(4) 1. 0 0.00901(13) 
O8 O2- 8 c 0.18431(8) 0.17820(17) 0.04188(4) 1. 0 0.01153(14) 

#End of data_190040-ICSD


