data_15015-ICSD
#?2014 by Fachinformationszentrum Karlsruhe, and the U.S. Secretary of 
#Commerce on behalf of the United States.  All rights reserved.
_database_code_ICSD                15015
_audit_creation_date               1980/01/01
_audit_update_record               2012/08/01
_chemical_name_systematic
;
Bis(dichlorophosphato)bis(trichlorophosphato)magnesium
;
_chemical_formula_structural       'Mg (P O2 Cl2)2 (P O Cl3)2'
_chemical_formula_sum              'Cl10 Mg1 O6 P4'
_publ_section_title
;
Direct determination of the crystal structure of bis(di 
chlorophosphate)bis(phosphoryl chloride) magnesium: Mg (P O2 Cl2)2 (P 
O Cl3)2
;
loop_
_citation_id
_citation_journal_abbrev
_citation_year
_citation_journal_volume
_citation_page_first
_citation_page_last
_citation_journal_id_ASTM
primary 'Acta Chemica Scandinavica (1-27,1973-42,1988)' 1970 24 59 71 ACSAA4
_publ_author_name                  'Nyborg, J.;Danielsen, J.'
_cell_length_a                     11.21
_cell_length_b                     10.97
_cell_length_c                     9.75
_cell_angle_alpha                  116.7
_cell_angle_beta                   83.85
_cell_angle_gamma                  114.08
_cell_volume                       973.66
_cell_formula_units_Z              2
_symmetry_space_group_name_H-M     'P -1'
_symmetry_Int_Tables_number        2
_refine_ls_R_factor_all            .1
loop_
_symmetry_equiv_pos_site_id
_symmetry_equiv_pos_as_xyz
  1	'-x, -y, -z'
  2	'x, y, z'
loop_
_atom_type_symbol
_atom_type_oxidation_number
Cl1-	-1
Mg2+	2
O2-	-2
P5+	5
loop_
_atom_site_label
_atom_site_type_symbol
_atom_site_symmetry_multiplicity
_atom_site_Wyckoff_symbol
_atom_site_fract_x
_atom_site_fract_y
_atom_site_fract_z
_atom_site_occupancy
_atom_site_attached_hydrogens
Mg1 Mg2+ 2 i 0.0586(4) 0.9926(5) 0.2322(4) 1. 0 
O1 O2- 2 i 0.2155(11) 0.1602(13) 0.1864(11) 1. 0 
O2 O2- 2 i 0.1058(11) 0.1431(12) 0.4542(10) 1. 0 
O3 O2- 2 i 0.0804(10) 0.1658(12) 0.7229(10) 1. 0 
O4 O2- 2 i 0.2063(12) 0.9278(14) 0.2566(12) 1. 0 
O5 O2- 2 i 0.0438(10) 0.8512(12) 0.0064(9) 1. 0 
O6 O2- 2 i 0.0693(10) 0.9335(12) 0.7975(10) 1. 0 
P1 P5+ 2 i 0.3281(4) 0.2839(6) 0.1918(5) 1. 0 
P2 P5+ 2 i 0.2490(5) 0.8261(6) 0.2679(5) 1. 0 
P3 P5+ 2 i 0.0840(4) 0.8418(5) 0.8579(4) 1. 0 
P4 P5+ 2 i 0.1521(4) 0.2176(4) 0.6151(4) 1. 0 
Cl1 Cl1- 2 i 0.3540(6) 0.4713(6) 0.3751(6) 1. 0 
Cl2 Cl1- 2 i 0.3288(8) 0.3215(8) 0.0200(7) 1. 0 
Cl3 Cl1- 2 i 0.4906(6) 0.2605(9) 0.1964(10) 1. 0 
Cl4 Cl1- 2 i 0.4385(6) 0.8913(10) 0.2693(9) 1. 0 
Cl5 Cl1- 2 i 0.1770(8) 0.6265(7) 0.0975(6) 1. 0 
Cl6 Cl1- 2 i 0.2054(7) 0.7998(7) 0.4511(6) 1. 0 
Cl7 Cl1- 2 i 0.3366(5) 0.2374(8) 0.6309(6) 1. 0 
Cl8 Cl1- 2 i 0.1816(6) 0.4312(5) 0.6971(6) 1. 0 
Cl9 Cl1- 2 i 0.2735(5) 0.8719(7) 0.8511(6) 1. 0 
Cl10 Cl1- 2 i 0.0023(6) 0.3710(6) 0.2993(5) 1. 0 

loop_
_atom_site_aniso_label
_atom_site_aniso_type_symbol
_atom_site_aniso_U_11
_atom_site_aniso_U_22
_atom_site_aniso_U_33
_atom_site_aniso_U_12
_atom_site_aniso_U_13
_atom_site_aniso_U_23
Mg1 Mg2+ 0.031(3) 0.030(3) 0.027(2) 0.014(2) 0.002(2) 0.017(2)
O1 O2- 0.047(7) 0.060(8) 0.060(7) 0.016(7) 0.018(6) 0.035(7)
O2 O2- 0.057(8) 0.049(7) 0.032(5) 0.024(7) 0.002(5) 0.011(5)
O3 O2- 0.050(7) 0.039(7) 0.045(6) -.004(6) 0.004(5) 0.027(6)
O4 O2- 0.067(9) 0.072(9) 0.063(7) 0.047(8) -.007(6) 0.029(7)
O5 O2- 0.043(7) 0.048(7) 0.029(5) 0.023(6) 0.009(5) 0.020(5)
O6 O2- 0.041(6) 0.051(7) 0.045(5) 0.030(6) 0.011(5) 0.032(6)
P1 P5+ 0.028(3) 0.060(3) 0.057(3) 0.003(2) 0.007(2) 0.040(2)
P2 P5+ 0.152(3) 0.066(4) 0.040(2) 0.036(3) 0.014(2) 0.027(2)
P3 P5+ 0.033(2) 0.036(2) 0.028(2) 0.021(2) 0.004(1) 0.013(2)
P4 P5+ 0.029(2) 0.027(2) 0.025(2) 0.006(2) 0.004(1) 0.011(2)
Cl1 Cl1- 0.089(4) 0.060(4) 0.089(4) -.003(3) -.006(3) 0.011(3)
Cl2 Cl1- 0.151(7) 0.137(6) 0.102(4) 0.016(5) 0.006(4) 0.096(5)
Cl3 Cl1- 0.040(3) 0.153(7) 0.194(7) 0.038(4) -.005(4) 0.066(6)
Cl4 Cl1- 0.059(4) 0.218(9) 0.162(6) 0.079(5) 0.040(4) 0.115(6)
Cl5 Cl1- 0.190(8) 0.073(5) 0.076(3) 0.065(5) 0.012(4) 0.009(3)
Cl6 Cl1- 0.124(5) 0.114(5) 0.066(3) 0.046(4) 0.021(3) 0.061(4)
Cl7 Cl1- 0.044(3) 0.128(6) 0.083(4) 0.036(3) -.006(3) 0.035(4)
Cl8 Cl1- 0.124(5) 0.032(3) 0.070(3) 0.024(3) 0.019(3) 0.019(2)
Cl9 Cl1- 0.042(3) 0.129(5) 0.094(4) 0.058(3) 0.025(3) 0.062(4)
Cl10 Cl1- 0.113(5) 0.043(3) 0.051(2) 0.038(3) 0.003(3) 0.001(2)
#End of data_15015-ICSD


