data_1692-ICSD
#?2014 by Fachinformationszentrum Karlsruhe, and the U.S. Secretary of 
#Commerce on behalf of the United States.  All rights reserved.
_database_code_ICSD                1692
_audit_creation_date               1980/01/01
_audit_update_record               2012/02/01
_chemical_name_systematic          'Zinc Chloride'
_chemical_formula_structural       'Zn Cl2'
_chemical_formula_sum              'Cl2 Zn1'
_publ_section_title
;
Preparation and structure of anhydrous zinc chloride
;
loop_
_citation_id
_citation_journal_abbrev
_citation_year
_citation_journal_volume
_citation_page_first
_citation_page_last
_citation_journal_id_ASTM
primary 'Inorganic Chemistry' 1978 17 1376 1377 INOCAJ
_publ_author_name                  'Brynestad, J.;Yakel, H.L.jr.'
_cell_length_a                     6.443(2)
_cell_length_b                     7.693(4)
_cell_length_c                     6.125(4)
_cell_angle_alpha                  90.
_cell_angle_beta                   90.
_cell_angle_gamma                  90.
_cell_volume                       303.59
_cell_formula_units_Z              4
_symmetry_space_group_name_H-M     'P n a 21'
_symmetry_Int_Tables_number        33
loop_
_symmetry_equiv_pos_site_id
_symmetry_equiv_pos_as_xyz
  1	'x+.5, -y+.5, z'
  2	'-x+.5, y+.5, z+.5'
  3	'-x, -y, z+.5'
  4	'x, y, z'
loop_
_atom_type_symbol
_atom_type_oxidation_number
Cl1-	-1
Zn2+	2
loop_
_atom_site_label
_atom_site_type_symbol
_atom_site_symmetry_multiplicity
_atom_site_Wyckoff_symbol
_atom_site_fract_x
_atom_site_fract_y
_atom_site_fract_z
_atom_site_occupancy
_atom_site_attached_hydrogens
Zn1 Zn2+ 4 a 0.0833 0.125 0.375 1. 0 
Cl1 Cl1- 4 a 0.0833 0.125 0 1. 0 
Cl2 Cl1- 4 a 0.0833 0.625 0 1. 0 

#End of data_1692-ICSD


