data_75442-ICSD
#?2014 by Fachinformationszentrum Karlsruhe, and the U.S. Secretary of 
#Commerce on behalf of the United States.  All rights reserved.
_database_code_ICSD                75442
_audit_creation_date               1996/04/22
_audit_update_record               1999/01/19
_chemical_name_systematic
;
Sodium Tricobalt Arsenate(V) Bis(hydrogenarsenate(V))
;
_chemical_formula_structural       'Na Co3 (As O4) (H As O4)2'
_chemical_formula_sum              'H2 As3 Co3 Na1 O12'
_chemical_name_mineral             'Alluaudite-(Co, As)'
_publ_section_title
;
Hydrothermal synthesis and crystal structures of Na Co3 (P O4) (H P 
O4)2 and Na Co3 (As O4) (H As O4)2: synthetic modifications of the 
mineral alluaudite
;
loop_
_citation_id
_citation_journal_abbrev
_citation_year
_citation_journal_volume
_citation_page_first
_citation_page_last
_citation_journal_id_ASTM
primary 'Inorganic Chemistry' 1994 33 3028 3031 INOCAJ
_publ_author_name                  'Lii, K.-H.;Shih, P.-F.'
_cell_length_a                     12.054(1)
_cell_length_b                     12.378(1)
_cell_length_c                     6.780(2)
_cell_angle_alpha                  90.
_cell_angle_beta                   113.03(1)
_cell_angle_gamma                  90.
_cell_volume                       930.98
_cell_formula_units_Z              4
_symmetry_space_group_name_H-M     'C 1 2/c 1'
_symmetry_Int_Tables_number        15
_refine_ls_R_factor_all            .018
loop_
_symmetry_equiv_pos_site_id
_symmetry_equiv_pos_as_xyz
  1	'x, -y, z+.5'
  2	'-x, -y, -z'
  3	'-x, y, -z+.5'
  4	'x, y, z'
  5	'x+.5, -y+.5, z+.5'
  6	'-x+.5, -y+.5, -z'
  7	'-x+.5, y+.5, -z+.5'
  8	'x+.5, y+.5, z'
loop_
_atom_type_symbol
_atom_type_oxidation_number
As5+	5
Co2+	2
H1+	1
Na1+	1
O2-	-2
loop_
_atom_site_label
_atom_site_type_symbol
_atom_site_symmetry_multiplicity
_atom_site_Wyckoff_symbol
_atom_site_fract_x
_atom_site_fract_y
_atom_site_fract_z
_atom_site_occupancy
_atom_site_attached_hydrogens
_atom_site_U_iso_or_equiv
Na1 Na1+ 4 e 0 0.0040(2) 0.75 1. 0 0.0305(9) 
Co1 Co2+ 4 e 0 0.28195(5) 0.25 1. 0 0.0086(2) 
Co2 Co2+ 8 f 0.29406(4) 0.66026(4) 0.38280(7) 1. 0 0.0074(3) 
As1 As5+ 4 e 0 0.68926(4) 0.25 1. 0 0.0072(2) 
As2 As5+ 8 f 0.22017(3) 0.88489(3) 0.11316(5) 1. 0 0.0064(1) 
O1 O2- 8 f 0.4662(2) 0.7365(2) 0.5269(3) 1. 0 0.0090(7) 
O2 O2- 8 f 0.1149(2) 0.6049(2) 0.2696(4) 1. 0 0.0108(8) 
O3 O2- 8 f 0.3471(2) 0.6775(2) 0.1255(4) 1. 0 0.0090(7) 
O4 O2- 8 f 0.1307(2) 0.4070(2) 0.3350(4) 1. 0 0.0112(8) 
O5 O2- 8 f 0.2126(2) 0.8116(2) 0.3152(4) 1. 0 0.0084(7) 
O6 O2- 8 f 0.3513(2) 0.5029(2) 0.4022(4) 1. 0 0.0092(8) 
H1 H1+ 8 f 0.8808 0.4884 0.1986 1. 0 0.05(8) 

#End of data_75442-ICSD


