data_417403-ICSD
#?2014 by Fachinformationszentrum Karlsruhe, and the U.S. Secretary of 
#Commerce on behalf of the United States.  All rights reserved.
_database_code_ICSD                417403
_audit_creation_date               2008/08/01
_chemical_name_systematic
;
Lithium Hexarubidium 16-chloroundecaneodymium(III) 
Dodecakis(trioxoselenate(IV))
;
_chemical_formula_structural       'Li Rb6 Cl16 Nd11 (Se O3)12'
_chemical_formula_sum              'Cl16 Li1 Nd11 O36 Rb6 Se12'
_publ_section_title
;
Rb6 Li Nd11 Cl16 [Se O3]12: Ein durch zwei chloridische Flussmittel 
derivatisiertes Neodym(III) - Oxoselenat(IV)
;
loop_
_citation_id
_citation_journal_abbrev
_citation_year
_citation_journal_volume
_citation_page_first
_citation_page_last
_citation_journal_id_ASTM
primary 'Zeitschrift fuer Kristallographie (1979-2010)' 2005 22 165 165 ZEKRDZ
_publ_author_name                  'Lipp, C.;Schleid, T.'
_cell_length_a                     15.8169(6)
_cell_length_b                     15.8169(6)
_cell_length_c                     24.7702(9)
_cell_angle_alpha                  90.00
_cell_angle_beta                   90.00
_cell_angle_gamma                  90.00
_cell_volume                       6196.87
_cell_formula_units_Z              4
_symmetry_space_group_name_H-M     'I 4/m c m'
_symmetry_Int_Tables_number        140
_refine_ls_R_factor_all            .0323
loop_
_symmetry_equiv_pos_site_id
_symmetry_equiv_pos_as_xyz
  1	'y, x, -z+.5'
  2	'-y, -x, -z+.5'
  3	'-y, x, -z'
  4	'y, -x, -z'
  5	'x, -y, -z+.5'
  6	'-x, y, -z+.5'
  7	'x, y, -z'
  8	'-x, -y, -z'
  9	'-y, -x, z+.5'
 10	'y, x, z+.5'
 11	'y, -x, z'
 12	'-y, x, z'
 13	'-x, y, z+.5'
 14	'x, -y, z+.5'
 15	'-x, -y, z'
 16	'x, y, z'
 17	'y+.5, x+.5, -z'
 18	'-y+.5, -x+.5, -z'
 19	'-y+.5, x+.5, -z+.5'
 20	'y+.5, -x+.5, -z+.5'
 21	'x+.5, -y+.5, -z'
 22	'-x+.5, y+.5, -z'
 23	'x+.5, y+.5, -z+.5'
 24	'-x+.5, -y+.5, -z+.5'
 25	'-y+.5, -x+.5, z'
 26	'y+.5, x+.5, z'
 27	'y+.5, -x+.5, z+.5'
 28	'-y+.5, x+.5, z+.5'
 29	'-x+.5, y+.5, z'
 30	'x+.5, -y+.5, z'
 31	'-x+.5, -y+.5, z+.5'
 32	'x+.5, y+.5, z+.5'
loop_
_atom_type_symbol
_atom_type_oxidation_number
Cl1-	-1
Li1+	1
Nd3+	3
O2-	-2
Rb1+	1
Se4+	4
loop_
_atom_site_label
_atom_site_type_symbol
_atom_site_symmetry_multiplicity
_atom_site_Wyckoff_symbol
_atom_site_fract_x
_atom_site_fract_y
_atom_site_fract_z
_atom_site_occupancy
_atom_site_attached_hydrogens
_atom_site_U_iso_or_equiv
Rb1 Rb1+ 8 h 0.37634(5) 0.87634(5) 0.0000 1 0 0.0204(2) 
Rb2 Rb1+ 16 k 0.12943(5) 0.12059(5) 0.0000 1 0 0.0245(2) 
Li1 Li1+ 4 b 0.0000 0.5000 0.2500 1 0 0.12(3) 
Nd1 Nd3+ 4 a 0.0000 0.0000 0.2500 1 0 0.00433(14) 
Nd2 Nd3+ 8 e 0.2500 0.2500 0.2500 1 0 0.00457(12) 
Nd3 Nd3+ 16 j 0.25695(2) 0.0000 0.2500 1 0 0.00418(10) 
Nd4 Nd3+ 16 l 0.121130(14) 0.621130(14) 0.124693(15) 1 0 0.00487(11) 
Cl1 Cl1- 8 f 0.0000 0.0000 0.07769(11) 1 0 0.0287(6) 
Cl2 Cl1- 8 g 0.0000 0.5000 0.07680(11) 1 0 0.0128(5) 
Cl3 Cl1- 16 l 0.23918(9) 0.73918(9) 0.07686(8) 1 0 0.0194(4) 
Cl4 Cl1- 32 m 0.49277(8) 0.23444(8) 0.07537(6) 1 0 0.0196(3) 
Se1 Se4+ 16 l 0.10764(3) 0.60764(3) 0.32808(3) 1 0 0.00482(14) 
Se2 Se4+ 32 m 0.14953(3) 0.12161(3) 0.160431(19) 1 0 0.00410(12) 
O1 O2- 16 l 0.1398(2) 0.6398(2) 0.2654(2) 1 0 0.0076(9) 
O2 O2- 32 m 0.12440(19) 0.0381(2) 0.19971(14) 1 0 0.0067(6) 
O3 O2- 32 m 0.12094(19) 0.2072(2) 0.19795(14) 1 0 0.0082(6) 
O4 O2- 32 m 0.25365(19) 0.12367(19) 0.18255(14) 1 0 0.0074(7) 
O5 O2- 32 m 0.37852(19) 0.0027(2) 0.31488(14) 1 0 0.0090(7) 

loop_
_atom_site_aniso_label
_atom_site_aniso_type_symbol
_atom_site_aniso_U_11
_atom_site_aniso_U_22
_atom_site_aniso_U_33
_atom_site_aniso_U_12
_atom_site_aniso_U_13
_atom_site_aniso_U_23
Rb1 Rb1+ 0.0216(3) 0.0216(3) 0.0181(6) 0.0050(4) 0.000 0.000
Rb2 Rb1+ 0.0254(4) 0.0248(4) 0.0234(5) -0.0026(3) 0.000 0.000
Nd1 Nd3+ 0.00289(18) 0.00289(18) 0.0072(3) 0.000 0.000 0.000
Nd2 Nd3+ 0.00374(15) 0.00374(15) 0.0062(2) 0.00026(15) -0.00044(12) 
0.00044(12)
Nd3 Nd3+ 0.00410(16) 0.00389(16) 0.00456(17) 0.000 0.000 0.00017(12)
Nd4 Nd3+ 0.00509(12) 0.00509(12) 0.00444(18) -0.00026(10) -0.00027(8) 
-0.00027(8)
Cl1 Cl1- 0.0305(9) 0.0305(9) 0.0251(15) 0.000 0.000 0.000
Cl2 Cl1- 0.0141(7) 0.0141(7) 0.0101(11) -0.0050(8) 0.000 0.000
Cl3 Cl1- 0.0191(5) 0.0191(5) 0.0201(9) 0.0019(7) 0.0075(5) 0.0075(5)
Cl4 Cl1- 0.0202(6) 0.0182(6) 0.0204(6) 0.0000(5) 0.0104(5) 0.0067(5)
Se1 Se4+ 0.00520(18) 0.00520(18) 0.0041(3) 0.0013(2) -0.00005(16) 
-0.00005(16)
Se2 Se4+ 0.0043(2) 0.0048(2) 0.0032(2) -0.00016(14) -0.00051(16) 
0.00001(15)
O1 O2- 0.0074(12) 0.0074(12) 0.008(2) -0.0013(16) 0.0018(13) 0.0018(13)
O2 O2- 0.0070(15) 0.0060(15) 0.0071(16) -0.0013(10) 0.0007(12) 0.0030(13)
O3 O2- 0.0078(15) 0.0079(15) 0.0089(16) 0.0008(11) 0.0010(12) -0.0007(13)
O4 O2- 0.0047(15) 0.0081(15) 0.0095(16) -0.0012(11) 0.0000(12) -0.0003(12)
O5 O2- 0.0096(15) 0.0053(14) 0.0122(17) -0.0022(11) -0.0028(13) -0.0006(13)
#End of data_417403-ICSD


