data_49904-ICSD
#?2014 by Fachinformationszentrum Karlsruhe, and the U.S. Secretary of 
#Commerce on behalf of the United States.  All rights reserved.
_database_code_ICSD                49904
_audit_creation_date               1988/05/18
_audit_update_record               1998/06/26
_chemical_name_systematic
;
Potassium Calcium Silicate Fluoride *
;
_chemical_formula_structural       'K Ca4 Si8 O20 F (H2 O)8'
_chemical_formula_sum              'H16 Ca4 F1 K1 O28 Si8'
_chemical_name_mineral             Apophyllite-(KF)
_publ_section_title
;
A neutron diffraction and thermogravimetric study of the hydrogen 
bonding and dehydration behaviour in fluorapophyllite, K Ca4 (Si8 
O20) F (H2 O)8, and its partially dehydrated form
;
loop_
_citation_id
_citation_journal_abbrev
_citation_year
_citation_journal_volume
_citation_page_first
_citation_page_last
_citation_journal_id_ASTM
primary 'Acta Crystallographica, Section B: Structural Science'
 1987 43 517 523 ASBSDK
_publ_author_name                  'Stahl, K.;Kvick, A.;Ghose, S.'
_cell_length_a                     8.970(1)
_cell_length_b                     8.970(1)
_cell_length_c                     15.792(4)
_cell_angle_alpha                  90.
_cell_angle_beta                   90.
_cell_angle_gamma                  90.
_cell_volume                       1270.64
_cell_formula_units_Z              2
_symmetry_space_group_name_H-M     'P 4/m n c'
_symmetry_Int_Tables_number        128
_refine_ls_R_factor_all            .05
loop_
_symmetry_equiv_pos_site_id
_symmetry_equiv_pos_as_xyz
  1	'y+.5, x+.5, -z+.5'
  2	'-y+.5, -x+.5, -z+.5'
  3	'-y, x, -z'
  4	'y, -x, -z'
  5	'x+.5, -y+.5, -z+.5'
  6	'-x+.5, y+.5, -z+.5'
  7	'x, y, -z'
  8	'-x, -y, -z'
  9	'-y+.5, -x+.5, z+.5'
 10	'y+.5, x+.5, z+.5'
 11	'y, -x, z'
 12	'-y, x, z'
 13	'-x+.5, y+.5, z+.5'
 14	'x+.5, -y+.5, z+.5'
 15	'-x, -y, z'
 16	'x, y, z'
loop_
_atom_type_symbol
_atom_type_oxidation_number
Ca2+	2
F1-	-1
H1+	1
K1+	1
O2-	-2
Si4+	4
loop_
_atom_site_label
_atom_site_type_symbol
_atom_site_symmetry_multiplicity
_atom_site_Wyckoff_symbol
_atom_site_fract_x
_atom_site_fract_y
_atom_site_fract_z
_atom_site_occupancy
_atom_site_attached_hydrogens
F1 F1- 2 a 0 0 0 1. 0 
K1 K1+ 2 b 0 0 0.5 1. 0 
Ca1 Ca2+ 8 h 0.11045(12) 0.24639(12) 0 1. 0 
Si1 Si4+ 16 i 0.22635(9) 0.08612(9) 0.18985(5) 1. 0 
O1 O2- 8 g 0.36376(7) 0.13622(7) 0.25 1. 0 
O2 O2- 16 i 0.08490(7) 0.18964(7) 0.21761(4) 1. 0 
O3 O2- 16 i 0.26476(7) 0.10127(7) 0.09211(4) 1. 0 
O4 O2- 16 i 0.21411(10) 0.44899(4) 0.08978(5) 1. 0 
H1 H1+ 16 i 0.44943(16) 0.17193(18) 0.08875(10) 1. 0 
H2 H1+ 16 i 0.22149(25) 0.42610(19) 0.14844(10) 1. 0 

#End of data_49904-ICSD


