data_280613-ICSD
#?2014 by Fachinformationszentrum Karlsruhe, and the U.S. Secretary of 
#Commerce on behalf of the United States.  All rights reserved.
_database_code_ICSD                280613
_audit_creation_date               2002/04/01
_audit_update_record               2014/08/01
_chemical_name_systematic          'Dicalcium Cobalt Disilicate'
_chemical_formula_structural       'Ca2 Co (Si2 O7)'
_chemical_formula_sum              'Ca2 Co1 O7 Si2'
_publ_section_title
;
Commensurate structure of Ca2 Co Si2 O7, a new twinned orthorhombic 
structure
;
loop_
_citation_id
_citation_journal_abbrev
_citation_year
_citation_journal_volume
_citation_page_first
_citation_page_last
_citation_journal_id_ASTM
primary 'Acta Crystallographica, Section B: Structural Science'
 2001 57 271 277 ASBSDK
_publ_author_name
;
Hagiya, K.;Kusaka, K.;Ohmasa, M.;Iishi, K.
;
_cell_length_a                     23.5100(40)
_cell_length_b                     23.5100(40)
_cell_length_c                     5.025(1)
_cell_angle_alpha                  90.
_cell_angle_beta                   90.
_cell_angle_gamma                  90.
_cell_volume                       2777.42
_cell_formula_units_Z              18
_symmetry_space_group_name_H-M     'P 21 21 2'
_symmetry_Int_Tables_number        18
_refine_ls_R_factor_all            .084
loop_
_symmetry_equiv_pos_site_id
_symmetry_equiv_pos_as_xyz
  1	'-x+.5, y+.5, -z'
  2	'x+.5, -y+.5, -z'
  3	'-x, -y, z'
  4	'x, y, z'
loop_
_atom_type_symbol
_atom_type_oxidation_number
Ca2+	2
Co2+	2
O2-	-2
Si4+	4
loop_
_atom_site_label
_atom_site_type_symbol
_atom_site_symmetry_multiplicity
_atom_site_Wyckoff_symbol
_atom_site_fract_x
_atom_site_fract_y
_atom_site_fract_z
_atom_site_occupancy
_atom_site_attached_hydrogens
_atom_site_B_iso_or_equiv
Ca1 Ca2+ 4 c 0.10805(5) 0.05308(5) 0.5006(3) 1. 0 0.45(1) 
Ca2 Ca2+ 4 c 0.11481(5) 0.39212(5) 0.4878(2) 1. 0 0.45(1) 
Ca3 Ca2+ 4 c 0.05519(5) 0.22522(5) 0.5005(3) 1. 0 0.50(1) 
Ca4 Ca2+ 4 c 0.27514(5) 0.11095(5) 0.5130(3) 1. 0 0.49(1) 
Ca5 Ca2+ 4 c 0.26862(5) 0.45055(5) 0.4755(3) 1. 0 0.57(1) 
Ca6 Ca2+ 4 c 0.21538(5) 0.26525(5) 0.5219(3) 1. 0 0.53(1) 
Ca7 Ca2+ 4 c 0.44151(6) 0.05269(5) 0.5219(3) 1. 0 0.62(2) 
Ca8 Ca2+ 4 c 0.45099(5) 0.39793(5) 0.5141(3) 1. 0 0.52(2) 
Ca9 Ca2+ 4 c 0.40170(5) 0.21196(5) 0.4946(3) 1. 0 0.57(2) 
Co1 Co2+ 2 a 0 0 -.0043(3) 1. 0 0.41(1) 
Co2 Co2+ 4 c 0.00627(4) 0.33660(3) 0.0089(2) 1. 0 0.36(1) 
Co3 Co2+ 4 c 0.16357(4) 0.16126(3) 0.0099(2) 1. 0 0.343(8) 
Co4 Co2+ 4 c 0.33356(4) 0.00219(4) 0.0115(2) 1. 0 0.35(1) 
Co5 Co2+ 4 c 0.33464(4) 0.33023(4) 0.0056(2) 1. 0 0.409(7) 
Si1 Si4+ 4 c 0.04218(8) 0.12090(9) -.0717(4) 1. 0 0.44(2) 
Si2 Si4+ 4 c 0.04905(8) 0.45595(8) -.0847(4) 1. 0 0.45(2) 
Si3 Si4+ 4 c 0.12567(8) 0.28563(8) 0.0695(4) 1. 0 0.45(2) 
Si4 Si4+ 4 c 0.21204(8) 0.04121(8) 0.0748(4) 1. 0 0.38(2) 
Si5 Si4+ 4 c 0.21478(8) 0.38168(8) 0.0449(4) 1. 0 0.48(2) 
Si6 Si4+ 4 c 0.28318(8) 0.21005(8) -.0407(4) 1. 0 0.44(2) 
Si7 Si4+ 4 c 0.38136(8) 0.12282(8) -.0542(4) 1. 0 0.37(2) 
Si8 Si4+ 4 c 0.38253(8) 0.45181(8) -.0505(4) 1. 0 0.44(2) 
Si9 Si4+ 4 c 0.45547(8) 0.27992(8) 0.0594(4) 1. 0 0.47(2) 
O1 O2- 4 c -.0085(2) 0.1645(2) 0.819(1) 1. 0 0.58(6) 
O2 O2- 4 c 0.1737(2) -.0146(2) 0.176(1) 1. 0 0.48(5) 
O3 O2- 4 c 0.1798(2) 0.3266(2) 0.1710(9) 1. 0 0.52(5) 
O4 O2- 4 c 0.3396(2) 0.1754(2) 0.841(1) 1. 0 0.56(5) 
O5 O2- 2 b 0.5 0 0.202(2) 1. 0 0.86(9) 
O6 O2- 4 c 0.0423(2) 0.1180(2) 0.248(1) 1. 0 0.55(6) 
O7 O2- 4 c 0.0506(2) 0.4581(2) 0.233(1) 1. 0 0.67(5) 
O8 O2- 4 c 0.1245(2) 0.2811(2) 0.752(1) 1. 0 0.67(6) 
O9 O2- 4 c 0.2157(2) 0.0434(2) 0.758(1) 1. 0 0.69(6) 
O10 O2- 4 c 0.2084(2) 0.3852(2) 0.727(1) 1. 0 0.69(6) 
O11 O2- 4 c 0.2791(2) 0.2032(2) 0.276(1) 1. 0 0.65(6) 
O12 O2- 4 c 0.3846(2) 0.1210(2) 0.264(1) 1. 0 0.59(5) 
O13 O2- 4 c 0.3860(2) 0.4585(2) 0.266(1) 1. 0 0.68(6) 
O14 O2- 4 c 0.4623(2) 0.2747(2) 0.743(1) 1. 0 0.65(6) 
O15 O2- 4 c 0.0244(2) 0.0628(2) 0.770(1) 1. 0 0.44(5) 
O16 O2- 4 c 0.0992(2) 0.1422(2) 0.780(1) 1. 0 0.46(5) 
O17 O2- 4 c 0.0335(3) 0.3962(3) 0.773(1) 1. 0 0.98(7) 
O18 O2- 4 c 0.1043(2) 0.4789(2) 0.757(1) 1. 0 0.63(5) 
O19 O2- 4 c 0.1391(2) 0.2259(2) 0.229(1) 1. 0 0.60(5) 
O20 O2- 4 c 0.0714(2) 0.3130(2) 0.222(1) 1. 0 0.56(5) 
O21 O2- 4 c 0.1828(2) 0.0945(2) 0.227(1) 1. 0 0.62(5) 
O22 O2- 4 c 0.2715(2) 0.0300(2) 0.232(1) 1. 0 0.52(5) 
O23 O2- 4 c 0.1854(2) 0.4358(2) 0.205(1) 1. 0 0.61(5) 
O24 O2- 4 c 0.2778(2) 0.3783(2) 0.171(1) 1. 0 0.62(5) 
O25 O2- 4 c 0.2867(2) 0.2732(2) 0.838(1) 1. 0 0.63(5) 
O26 O2- 4 c 0.2306(2) 0.1802(2) 0.799(1) 1. 0 0.52(5) 
O27 O2- 4 c 0.3560(2) 0.0676(2) 0.793(1) 1. 0 0.68(6) 
O28 O2- 4 c 0.4406(2) 0.1361(2) 0.791(1) 1. 0 0.42(5) 
O29 O2- 4 c 0.3808(2) 0.3878(2) 0.829(1) 1. 0 0.59(5) 
O30 O2- 4 c 0.4345(2) 0.4818(2) 0.784(1) 1. 0 0.49(5) 
O31 O2- 4 c 0.4845(2) 0.2263(2) 0.224(1) 1. 0 0.45(5) 
O32 O2- 4 c 0.3925(2) 0.2844(2) 0.183(1) 1. 0 0.62(5) 

#End of data_280613-ICSD


