data_260877-ICSD
#?2014 by Fachinformationszentrum Karlsruhe, and the U.S. Secretary of 
#Commerce on behalf of the United States.  All rights reserved.
_database_code_ICSD                260877
_audit_creation_date               2011/02/01
_chemical_name_systematic
;
Dipotassium Heptafluorotantalate(V) - Beta
;
_chemical_formula_structural       'K2 Ta F7'
_chemical_formula_sum              'F7 K2 Ta1'
_publ_section_title
;
Structure of K2 Ta F7 at 993 K: the combined use of synchrotron 
powder data and solid-state DFT calculations
;
loop_
_citation_id
_citation_journal_abbrev
_citation_year
_citation_journal_volume
_citation_page_first
_citation_page_last
_citation_journal_id_ASTM
primary 'Journal of Applied Crystallography' 2008 41 634 636 JACGAR
_publ_author_name
;
Smrcok, L.;Brunelli, M.;Boca, M.;Kucharik, M.
;
_cell_length_a                     10.0731(7)
_cell_length_b                     5.9456(4)
_cell_length_c                     12.1527(9)
_cell_angle_alpha                  90.00
_cell_angle_beta                   90.00
_cell_angle_gamma                  90.00
_cell_volume                       727.83
_cell_formula_units_Z              4
_symmetry_space_group_name_H-M     'P n m a'
_symmetry_Int_Tables_number        62
_refine_ls_R_factor_all            .0964
loop_
_symmetry_equiv_pos_site_id
_symmetry_equiv_pos_as_xyz
  1	'x+.5, y, -z+.5'
  2	'x, -y+.5, z'
  3	'-x+.5, y+.5, z+.5'
  4	'-x, -y, -z'
  5	'-x+.5, -y, z+.5'
  6	'-x, y+.5, -z'
  7	'x+.5, -y+.5, -z+.5'
  8	'x, y, z'
loop_
_atom_type_symbol
_atom_type_oxidation_number
F1-	-1
K1+	1
Ta5+	5
loop_
_atom_site_label
_atom_site_type_symbol
_atom_site_symmetry_multiplicity
_atom_site_Wyckoff_symbol
_atom_site_fract_x
_atom_site_fract_y
_atom_site_fract_z
_atom_site_occupancy
_atom_site_attached_hydrogens
_atom_site_U_iso_or_equiv
Ta1 Ta5+ 4 c 0.24260 0.25000 0.13150 1.00000 0 0.074(4) 
K1 K1+ 4 c 0.12810 0.75000 0.95060 1.00000 0 0.25(2) 
K2 K1+ 4 c 0.46380 0.25000 0.82820 1.00000 0 0.25(2) 
F1 F1- 8 d 0.35950 0.03360 0.05480 1.00000 0 0.147(17) 
F2 F1- 8 d 0.09270 0.03340 0.14590 1.00000 0 0.147(17) 
F3 F1- 8 d 0.30000 0.04770 0.25230 1.00000 0 0.147(17) 
F4 F1- 4 c 0.16340 0.25000 0.97990 1.00000 0 0.147(17) 

#End of data_260877-ICSD


