data_15185-ICSD
#?2014 by Fachinformationszentrum Karlsruhe, and the U.S. Secretary of 
#Commerce on behalf of the United States.  All rights reserved.
_database_code_ICSD                15185
_audit_creation_date               1986/08/06
_audit_update_record               1998/06/26
_chemical_name_systematic
;
Copper Calcium Silicate Hydrate (2/2/3/2)
;
_chemical_formula_structural       'Cu2 Ca2 Si3 O10 (H2 O)2'
_chemical_formula_sum              'H4 Ca2 Cu2 O12 Si3'
_chemical_name_mineral             Kinoite
_publ_section_title                'The crystal structure of Kinoite'
loop_
_citation_id
_citation_journal_abbrev
_citation_year
_citation_journal_volume
_citation_page_first
_citation_page_last
_citation_journal_id_ASTM
primary 'American Mineralogist' 1971 56 193 199 AMMIAY
_publ_author_name                  'Laughon, R.B.'
_cell_length_a                     6.991(2)
_cell_length_b                     12.884(3)
_cell_length_c                     5.655(2)
_cell_angle_alpha                  90.
_cell_angle_beta                   96.18(3)
_cell_angle_gamma                  90.
_cell_volume                       506.4
_cell_formula_units_Z              2
_symmetry_space_group_name_H-M     'P 1 21/m 1'
_symmetry_Int_Tables_number        11
_refine_ls_R_factor_all            .037
loop_
_symmetry_equiv_pos_site_id
_symmetry_equiv_pos_as_xyz
  1	'x, -y+.5, z'
  2	'-x, -y, -z'
  3	'-x, y+.5, -z'
  4	'x, y, z'
loop_
_atom_type_symbol
_atom_type_oxidation_number
Ca2+	2
Cu2+	2
H1+	1
O2-	-2
Si4+	4
loop_
_atom_site_label
_atom_site_type_symbol
_atom_site_symmetry_multiplicity
_atom_site_Wyckoff_symbol
_atom_site_fract_x
_atom_site_fract_y
_atom_site_fract_z
_atom_site_occupancy
_atom_site_attached_hydrogens
_atom_site_B_iso_or_equiv
Cu1 Cu2+ 2 e 0.4819(1) 0.25 0.2179(1) 1. 0 0 
Cu2 Cu2+ 2 e 0.4884(1) 0.25 0.7139(1) 1. 0 0 
Ca1 Ca2+ 4 f 0.8461(1) 0.1061(1) 0.0269(1) 1. 0 0 
Si1 Si4+ 4 f 0.2337(1) 0.0803(1) 0.4518(2) 1. 0 0 
Si2 Si4+ 2 e 0.9432(2) 0.25 0.5477(3) 1. 0 0 
O1 O2- 2 e 0.8107(7) 0.25 0.7624(9) 1. 0 0 
O2 O2- 4 f 0.0847(5) 0.1485(3) 0.5901(6) 1. 0 0 
O3 O2- 4 f 0.4348(5) 0.1475(3) 0.4573(6) 1. 0 0 
O4 O2- 2 e 0.8344(7) 0.25 0.2847(9) 1. 0 0 
O5 O2- 4 f 0.1539(5) 0.0498(3) 0.1867(6) 1. 0 0 
O6 O2- 4 f 0.7201(5) 0.0189(3) 0.3676(6) 1. 0 0 
O7 O2- 4 f 0.5073(5) 0.1475(3) 0.9714(6) 1. 0 0 
H1 H1+ 4 f 0.4 0.08 0.98 1. 0 0.73 
H2 H1+ 4 f 0.62 0.14 0.8 1. 0 0.73 

#End of data_15185-ICSD


