data_168044-ICSD
#?2014 by Fachinformationszentrum Karlsruhe, and the U.S. Secretary of 
#Commerce on behalf of the United States.  All rights reserved.
_database_code_ICSD                168044
_audit_creation_date               2011/02/01
_chemical_name_systematic
;
Calcium Manganese Hexaoxodisilicate
;
_chemical_formula_structural       'Ca Mn (Si2 O6)'
_chemical_formula_sum              'Ca1 Mn1 O6 Si2'
_chemical_name_mineral             Johannsenite
_publ_section_title
;
High-pressure behavior of Ca/Na clinopyroxenes: the effect of 
divalent and trivalent 3d-transition elements
;
loop_
_citation_id
_citation_journal_abbrev
_citation_year
_citation_journal_volume
_citation_page_first
_citation_page_last
_citation_journal_id_ASTM
primary 'American Mineralogist' 2010 95 832 838 AMMIAY
_publ_author_name
;
Nestola, F.;Boffa Ballaran, T.;Angel, R.J.;Zhao Jing;Ohashi, H.
;
_cell_length_a                     9.7895(5)
_cell_length_b                     8.9603(5)
_cell_length_c                     5.1886(3)
_cell_angle_alpha                  90.00
_cell_angle_beta                   104.145(4)
_cell_angle_gamma                  90.00
_cell_volume                       441.33
_cell_formula_units_Z              4
_symmetry_space_group_name_H-M     'C 1 2/c 1'
_symmetry_Int_Tables_number        15
_refine_ls_R_factor_all            .0313
loop_
_symmetry_equiv_pos_site_id
_symmetry_equiv_pos_as_xyz
  1	'x, -y, z+.5'
  2	'-x, -y, -z'
  3	'-x, y, -z+.5'
  4	'x, y, z'
  5	'x+.5, -y+.5, z+.5'
  6	'-x+.5, -y+.5, -z'
  7	'-x+.5, y+.5, -z+.5'
  8	'x+.5, y+.5, z'
loop_
_atom_type_symbol
_atom_type_oxidation_number
Ca2+	2
Mn2+	2
O2-	-2
Si4+	4
loop_
_atom_site_label
_atom_site_type_symbol
_atom_site_symmetry_multiplicity
_atom_site_Wyckoff_symbol
_atom_site_fract_x
_atom_site_fract_y
_atom_site_fract_z
_atom_site_occupancy
_atom_site_attached_hydrogens
_atom_site_U_iso_or_equiv
Ca1 Ca2+ 4 e 0.0000 0.30380(16) 0.2500 1 0 0.0090(3) 
Mn1 Mn2+ 4 e 0.0000 0.90724(11) 0.2500 1 0 0.0077(3) 
Si1 Si4+ 8 f 0.28803(12) 0.09322(13) 0.2340(2) 1 0 0.0060(3) 
O1 O2- 8 f 0.1211(3) 0.0941(4) 0.1543(6) 1 0 0.0093(7) 
O2 O2- 8 f 0.3620(3) 0.2462(4) 0.3341(6) 1 0 0.0117(7) 
O3 O2- 8 f 0.3504(3) 0.0252(4) -0.0135(5) 1 0 0.0090(7) 

#End of data_168044-ICSD


