data_84322-ICSD
#?2014 by Fachinformationszentrum Karlsruhe, and the U.S. Secretary of 
#Commerce on behalf of the United States.  All rights reserved.
_database_code_ICSD                84322
_audit_creation_date               1999/01/19
_audit_update_record               2005/10/01
_chemical_name_systematic          'Cesium Tecto-alumodisilicate'
_chemical_formula_structural       'Cs (Al Si2 O6)'
_chemical_formula_sum              'Al1 Cs1 O6 Si2'
_chemical_name_mineral             Pollucite
_publ_section_title
;
Tetragonal-to-cubic structural phase transition in pollucite by low-
temperature X-ray powder diffraction
;
loop_
_citation_id
_citation_journal_abbrev
_citation_year
_citation_journal_volume
_citation_journal_issue
_citation_page_first
_citation_page_last
_citation_journal_id_ASTM
primary 'Journal of the American Ceramic Society' 1997 80 10 2693 2695 JACTAW
2 'Golden Book of Phase Transitions, Wroclaw' 2002 1- 1 123 GBOPT5
_publ_author_name
;
Yanase, I.;Kobayashi, H.;Shibasaki, Y.;Mitamura, T.
;
_cell_length_a                     13.6337(4)
_cell_length_b                     13.6337(4)
_cell_length_c                     13.6986(6)
_cell_angle_alpha                  90.
_cell_angle_beta                   90.
_cell_angle_gamma                  90.
_cell_volume                       2546.27
_cell_formula_units_Z              16
_symmetry_space_group_name_H-M     'I 41/a c d S'
_symmetry_Int_Tables_number        142
_refine_ls_R_factor_all            .065
loop_
_symmetry_equiv_pos_site_id
_symmetry_equiv_pos_as_xyz
  1	'-y+.5, -x, z+.25'
  2	'y+.5, -x, z+.75'
  3	'-y, -x, -z+.5'
  4	'y, -x, -z'
  5	'y+.5, x, z+.25'
  6	'-y+.5, x, z+.75'
  7	'y, x, -z+.5'
  8	'-y, x, -z'
  9	'-x, y+.5, -z+.75'
 10	'-x, -y+.5, -z+.25'
 11	'-x, y, z+.5'
 12	'-x, -y, z'
 13	'x, -y+.5, -z+.75'
 14	'x, y+.5, -z+.25'
 15	'x, -y, z+.5'
 16	'x, y, z'
 17	'-y, -x+.5, z+.75'
 18	'y, -x+.5, z+.25'
 19	'-y+.5, -x+.5, -z'
 20	'y+.5, -x+.5, -z+.5'
 21	'y, x+.5, z+.75'
 22	'-y, x+.5, z+.25'
 23	'y+.5, x+.5, -z'
 24	'-y+.5, x+.5, -z+.5'
 25	'-x+.5, y, -z+.25'
 26	'-x+.5, -y, -z+.75'
 27	'-x+.5, y+.5, z'
 28	'-x+.5, -y+.5, z+.5'
 29	'x+.5, -y, -z+.25'
 30	'x+.5, y, -z+.75'
 31	'x+.5, -y+.5, z'
 32	'x+.5, y+.5, z+.5'
loop_
_atom_type_symbol
_atom_type_oxidation_number
Al3+	3
Cs1+	1
O2-	-2
Si4+	4
loop_
_atom_site_label
_atom_site_type_symbol
_atom_site_symmetry_multiplicity
_atom_site_Wyckoff_symbol
_atom_site_fract_x
_atom_site_fract_y
_atom_site_fract_z
_atom_site_occupancy
_atom_site_attached_hydrogens
_atom_site_B_iso_or_equiv
Cs1 Cs1+ 16 f 0.1227(5) 0.1227(5) 0.25 1. 0 3.3(1) 
Al1 Al3+ 16 f 0.347(1) 0.347(1) 0.25 1. 0 0.5(7) 
Si1 Si4+ 32 g 0.120(1) 0.420(1) 0.211(1) 1. 0 0.9(3) 
O1 O2- 32 g 0.111(3) 0.111(2) 0.655(1) 1. 0 0.9(2) 
O2 O2- 32 g 0.138(3) 0.470(2) 0.739(2) 1. 0 0.9(2) 
O3 O2- 32 g 0.276(2) 0.168(1) 0.750(1) 1. 0 0.9(2) 

#End of data_84322-ICSD


