data_156158-ICSD
#?2014 by Fachinformationszentrum Karlsruhe, and the U.S. Secretary of 
#Commerce on behalf of the United States.  All rights reserved.
_database_code_ICSD                156158
_audit_creation_date               2007/08/01
_chemical_name_systematic
;
Sodium Magnesium Fluoride - Post-perovskite Phase
;
_chemical_formula_structural       'Na Mg F3'
_chemical_formula_sum              'F3 Mg1 Na1'
_chemical_name_mineral             Neighborite
_publ_section_title
;
Rietveld structure refinement of perovskite and post-perovskite 
phases of Na Mg F3 (neighborite) at high pressures
;
loop_
_citation_id
_citation_journal_abbrev
_citation_year
_citation_journal_volume
_citation_page_first
_citation_page_last
_citation_journal_id_ASTM
primary 'American Mineralogist' 2006 91 1703 1706 AMMIAY
_publ_author_name
;
Martin, C.D.;Crichton, W.A.;Liu Haozhe;Prakapenka, V.;Chen Jiu-
Hua;Parise, J.B.
;
_cell_length_a                     2.7143(9)
_cell_length_b                     8.393(3)
_cell_length_c                     6.846(2)
_cell_angle_alpha                  90.
_cell_angle_beta                   90.
_cell_angle_gamma                  90.
_cell_volume                       155.96
_cell_formula_units_Z              4
_symmetry_space_group_name_H-M     'C m c 21'
_symmetry_Int_Tables_number        36
_refine_ls_R_factor_all            .0325
loop_
_symmetry_equiv_pos_site_id
_symmetry_equiv_pos_as_xyz
  1	'x, -y, z+.5'
  2	'-x, -y, z+.5'
  3	'-x, y, z'
  4	'x, y, z'
  5	'x+.5, -y+.5, z+.5'
  6	'-x+.5, -y+.5, z+.5'
  7	'-x+.5, y+.5, z'
  8	'x+.5, y+.5, z'
loop_
_atom_type_symbol
_atom_type_oxidation_number
F1-	-1
Mg2+	2
Na1+	1
loop_
_atom_site_label
_atom_site_type_symbol
_atom_site_symmetry_multiplicity
_atom_site_Wyckoff_symbol
_atom_site_fract_x
_atom_site_fract_y
_atom_site_fract_z
_atom_site_occupancy
_atom_site_attached_hydrogens
Na1 Na1+ 4 a 0 0.2531(6) 0.0036(7) 1. 0 
Mg1 Mg2+ 4 a 0 0.0129(13) 0.2556(18) 1. 0 
F1 F1- 4 a 0 0.9251(7) 0.0000(7) 1. 0 
F2 F1- 4 a 0 0.6286(10) 0.1551(9) 1. 0 
F3 F1- 4 a 0 0.6554(8) 0.7902(13) 1. 0 

#End of data_156158-ICSD


