data_201675-ICSD
#?2014 by Fachinformationszentrum Karlsruhe, and the U.S. Secretary of 
#Commerce on behalf of the United States.  All rights reserved.
_database_code_ICSD                201675
_audit_creation_date               1986/04/14
_chemical_name_systematic          'Potassium Hexazirconium 14-iodide'
_chemical_formula_structural       'Zr6 I14 K'
_chemical_formula_sum              'I14 K1 Zr6'
_publ_section_title
;
A remarkable alkali-metal-centered Zirconium cluster in potassium 
hexazirconium tetradecaiodide Zr6 I14 K Synthesis and 
characterization
;
loop_
_citation_id
_citation_journal_abbrev
_citation_year
_citation_journal_volume
_citation_page_first
_citation_page_last
_citation_journal_id_ASTM
primary 'Journal of the American Chemical Society' 1984 106 4618 4619 JACSAT
_publ_author_name                  'Smith, J.D.;Corbett, J.D.'
_cell_length_a                     15.933(3)
_cell_length_b                     14.377(2)
_cell_length_c                     12.952(2)
_cell_angle_alpha                  90.
_cell_angle_beta                   90.
_cell_angle_gamma                  90.
_cell_volume                       2966.9
_cell_formula_units_Z              4
_symmetry_space_group_name_H-M     'C m c a'
_symmetry_Int_Tables_number        64
_refine_ls_R_factor_all            .045
loop_
_symmetry_equiv_pos_site_id
_symmetry_equiv_pos_as_xyz
  1	'-x, -y+.5, z+.5'
  2	'-x, y+.5, -z+.5'
  3	'-x, y, z'
  4	'-x, -y, -z'
  5	'x, y+.5, -z+.5'
  6	'x, -y+.5, z+.5'
  7	'x, -y, -z'
  8	'x, y, z'
  9	'-x+.5, -y, z+.5'
 10	'-x+.5, y, -z+.5'
 11	'-x+.5, y+.5, z'
 12	'-x+.5, -y+.5, -z'
 13	'x+.5, y, -z+.5'
 14	'x+.5, -y, z+.5'
 15	'x+.5, -y+.5, -z'
 16	'x+.5, y+.5, z'
loop_
_atom_type_symbol
_atom_type_oxidation_number
I1-	-1
K1+	1
Zr2.16+	2.16
loop_
_atom_site_label
_atom_site_type_symbol
_atom_site_symmetry_multiplicity
_atom_site_Wyckoff_symbol
_atom_site_fract_x
_atom_site_fract_y
_atom_site_fract_z
_atom_site_occupancy
_atom_site_attached_hydrogens
I1 I1- 16 g 0.12513(6) 0.08981(6) 0.24784(7) 1. 0 
I2 I1- 16 g 0.12567(5) 0.25609(6) 0.00725(7) 1. 0 
I3 I1- 8 e 0.25 0.34728(9) 0.25 1. 0 
I4 I1- 8 f 0 0.15615(9) 0.7660(1) 1. 0 
I5 I1- 8 d 0.24601(8) 0 0 1. 0 
Zr1 Zr2.16+ 16 g 0.39034(9) 0.06613(9) 0.8883(1) 1. 0 
Zr2 Zr2.16+ 8 f 0 0.3612(1) 0.8980(1) 1. 0 
K1 K1+ 4 b 0.5 0.5 0.5 1. 0 

loop_
_atom_site_aniso_label
_atom_site_aniso_type_symbol
_atom_site_aniso_B_11
_atom_site_aniso_B_22
_atom_site_aniso_B_33
_atom_site_aniso_B_12
_atom_site_aniso_B_13
_atom_site_aniso_B_23
I1 I1- 1.79(5) 1.53(4) 1.38(4) 0.20(3) 0.48(3) 0.32(3)
I2 I1- 1.74(4) 1.43(4) 1.45(4) 0.37(3) -.31(3) -.22(3)
I3 I1- 1.60(6) 1.61(5) 1.40(5) 0 -.45(4) 0
I4 I1- 1.50(6) 1.82(6) 1.29(5) 0 0 -.48(4)
I5 I1- 1.26(5) 2.04(6) 1.37(5) 0 0 0.34(4)
Zr1 Zr2.16+ 1.50(6) 1.29(5) 1.04(5) -.18(4) 0.13(4) -.10(4)
Zr2 Zr2.16+ 1.12(8) 1.59(7) 1.17(7) 0 0 0.20(6)
K1 K1+ 0.9(2) 1.2(2) 0.4(2) 0 0 0.1(2)
#End of data_201675-ICSD


