data_421485-ICSD
#?2014 by Fachinformationszentrum Karlsruhe, and the U.S. Secretary of 
#Commerce on behalf of the United States.  All rights reserved.
_database_code_ICSD                421485
_audit_creation_date               2011/02/01
_chemical_name_systematic
;
Potassium Bismuth Tetrathiosilicate
;
_chemical_formula_structural       'K Bi Si S4'
_chemical_formula_sum              'Bi1 K1 S4 Si1'
_publ_section_title
;
K Bi M S4 (M = Si, Ge): Synthesis, structure, and electronic 
structure
;
loop_
_citation_id
_citation_journal_abbrev
_citation_year
_citation_journal_volume
_citation_journal_issue
_citation_page_first
_citation_page_last
_citation_journal_id_ASTM
primary 'Journal of Solid State Chemistry' 2010 183 7 1640 1644 JSSCBI
_publ_author_name
;
Mei Dajiang;Lin Zheshuai;Bai Lei;Yao Ji Yong;Fu Pei Zhen;Wu Yi cheng
;
_cell_length_a                     6.4769(13)
_cell_length_b                     6.7371(13)
_cell_length_c                     17.168(4)
_cell_angle_alpha                  90.00
_cell_angle_beta                   108.14(3)
_cell_angle_gamma                  90.00
_cell_volume                       711.9
_cell_formula_units_Z              4
_symmetry_space_group_name_H-M     'P 1 21/c 1'
_symmetry_Int_Tables_number        14
_refine_ls_R_factor_all            .0147
loop_
_symmetry_equiv_pos_site_id
_symmetry_equiv_pos_as_xyz
  1	'x, -y+.5, z+.5'
  2	'-x, -y, -z'
  3	'-x, y+.5, -z+.5'
  4	'x, y, z'
loop_
_atom_type_symbol
_atom_type_oxidation_number
Bi3+	3
K1+	1
S2-	-2
Si4+	4
loop_
_atom_site_label
_atom_site_type_symbol
_atom_site_symmetry_multiplicity
_atom_site_Wyckoff_symbol
_atom_site_fract_x
_atom_site_fract_y
_atom_site_fract_z
_atom_site_occupancy
_atom_site_attached_hydrogens
_atom_site_U_iso_or_equiv
K1 K1+ 4 e 0.21028(13) 0.74518(12) 0.96350(5) 1 0 0.01060(18) 
Bi1 Bi3+ 4 e 0.73492(2) 0.18058(2) 0.781160(8) 1 0 0.00508(5) 
Si1 Si4+ 4 e 0.29847(16) 0.26957(15) 0.84677(6) 1 0 0.0049(2) 
S1 S2- 4 e 0.49453(13) 0.01032(13) 0.86274(5) 1 0 0.00631(18) 
S2 S2- 4 e 0.08739(14) 0.24036(14) 0.91834(6) 1 0 0.00726(19) 
S3 S2- 4 e 0.51388(14) 0.51006(14) 0.87375(5) 1 0 0.00720(19) 
S4 S2- 4 e 0.10759(14) 0.31249(13) 0.72050(5) 1 0 0.00605(18) 

loop_
_atom_site_aniso_label
_atom_site_aniso_type_symbol
_atom_site_aniso_U_11
_atom_site_aniso_U_22
_atom_site_aniso_U_33
_atom_site_aniso_U_12
_atom_site_aniso_U_13
_atom_site_aniso_U_23
K1 K1+ 0.0133(4) 0.0126(4) 0.0065(4) 0.0027(3) 0.0039(3) 0.0009(3)
Bi1 Bi3+ 0.00475(7) 0.00548(7) 0.00550(8) -0.00028(6) 0.00229(5) 
-0.00030(6)
Si1 Si4+ 0.0052(5) 0.0050(5) 0.0049(5) 0.0002(4) 0.0020(4) -0.0006(4)
S1 S2- 0.0071(4) 0.0044(5) 0.0087(5) 0.0003(3) 0.0043(3) 0.0012(4)
S2 S2- 0.0060(4) 0.0117(5) 0.0052(5) -0.0008(4) 0.0033(4) -0.0009(4)
S3 S2- 0.0074(4) 0.0061(5) 0.0075(4) -0.0017(4) 0.0014(3) 0.0002(4)
S4 S2- 0.0066(4) 0.0076(4) 0.0041(4) -0.0019(4) 0.0020(3) -0.0002(4)
#End of data_421485-ICSD


