data_162749-ICSD
#?2014 by Fachinformationszentrum Karlsruhe, and the U.S. Secretary of 
#Commerce on behalf of the United States.  All rights reserved.
_database_code_ICSD                162749
_audit_creation_date               2009/08/01
_audit_update_record               2013/08/01
_chemical_name_systematic
;
Dipotassium Trizinc Bis(diphosphate(V))
;
_chemical_formula_structural       'K2 Zn3 (P2 O7)2'
_chemical_formula_sum              'K2 O14 P4 Zn3'
_publ_section_title
;
Crystal structure of the K2 (Zn3 P4 O14) compound
;
loop_
_citation_id
_citation_journal_abbrev
_citation_year
_citation_journal_volume
_citation_journal_issue
_citation_page_first
_citation_page_last
_citation_journal_id_ASTM
primary 'Glass Physics and Chemistry' 2007 33 6 590 595 GPHCEE
_publ_author_name
;
Lapshin, A.E.;Petrova, M.A.;Shepelev, Yu.F.
;
_cell_length_a                     10.111(5)
_cell_length_b                     12.901(5)
_cell_length_c                     9.955(5)
_cell_angle_alpha                  90.
_cell_angle_beta                   90.
_cell_angle_gamma                  90.
_cell_volume                       1298.55
_cell_formula_units_Z              4
_symmetry_space_group_name_H-M     'P 21 21 21'
_symmetry_Int_Tables_number        19
_refine_ls_R_factor_all            .0418
loop_
_symmetry_equiv_pos_site_id
_symmetry_equiv_pos_as_xyz
  1	'-x, y+.5, -z+.5'
  2	'x+.5, -y+.5, -z'
  3	'-x+.5, -y, z+.5'
  4	'x, y, z'
loop_
_atom_type_symbol
_atom_type_oxidation_number
K1+	1
O2-	-2
P5+	5
Zn2+	2
loop_
_atom_site_label
_atom_site_type_symbol
_atom_site_symmetry_multiplicity
_atom_site_Wyckoff_symbol
_atom_site_fract_x
_atom_site_fract_y
_atom_site_fract_z
_atom_site_occupancy
_atom_site_attached_hydrogens
_atom_site_U_iso_or_equiv
K1 K1+ 4 a 0.8425(2) 0.7217(2) 0.7739(2) 1. 0 0.021(1) 
K2 K1+ 4 a 0.4811(2) 0.0040(2) 0.9028(2) 1. 0 0.022(1) 
Zn1 Zn2+ 4 a 0.5972(1) 0.5788(1) 0.2020(1) 1. 0 0.011(1) 
Zn2 Zn2+ 4 a 0.1848(1) 0.6349(1) 0.5225(1) 1. 0 0.011(1) 
Zn3 Zn2+ 4 a 0.0139(1) 0.2975(1) 0.3484(1) 1. 0 0.011(1) 
P1 P5+ 4 a 0.7974(2) -0.0020(2) 0.7236(2) 1. 0 0.008(1) 
P2 P5+ 4 a 0.8268(2) 0.1961(2) 0.5723(2) 1. 0 0.008(1) 
P3 P5+ 4 a 0.8089(2) 0.4947(2) 0.4057(2) 1. 0 0.008(1) 
P4 P5+ 4 a 0.9131(2) 0.7016(2) 0.4419(2) 1. 0 0.009(1) 
O1 O2- 4 a 0.6941(6) -0.0580(5) 0.6421(7) 1. 0 0.016(1) 
O2 O2- 4 a 0.7323(6) 0.0555(5) 0.8378(7) 1. 0 0.016(1) 
O3 O2- 4 a 0.9096(6) -0.0724(5) 0.7662(8) 1. 0 0.020(2) 
O4 O2- 4 a 0.8670(6) 0.0845(5) 0.6280(7) 1. 0 0.012(1) 
O5 O2- 4 a 0.8974(6) 0.1982(5) 0.4392(7) 1. 0 0.014(1) 
O6 O2- 4 a 0.6787(5) 0.2037(5) 0.5549(6) 1. 0 0.013(1) 
O7 O2- 4 a 0.8815(6) 0.2731(5) 0.6737(8) 1. 0 0.020(2) 
O8 O2- 4 a 0.8839(6) 0.4108(5) 0.3357(7) 1. 0 0.015(1) 
O9 O2- 4 a 0.8085(7) 0.4891(5) 0.5581(7) 1. 0 0.016(1) 
O10 O2- 4 a 0.6675(5) 0.5000(5) 0.3538(7) 1. 0 0.015(1) 
O11 O2- 4 a 0.8796(7) 0.6002(5) 0.3548(7) 1. 0 0.014(1) 
O12 O2- 4 a 0.9768(6) 0.7725(5) 0.3419(7) 1. 0 0.015(1) 
O13 O2- 4 a 0.0034(6) 0.6687(5) 0.5542(6) 1. 0 0.012(1) 
O14 O2- 4 a 0.7853(6) 0.7394(5) 0.5030(7) 1. 0 0.014(1) 

#End of data_162749-ICSD


