data_1562-ICSD
#?2014 by Fachinformationszentrum Karlsruhe, and the U.S. Secretary of 
#Commerce on behalf of the United States.  All rights reserved.
_database_code_ICSD                1562
_audit_creation_date               1980/01/01
_audit_update_record               2010/02/01
_chemical_name_systematic          'Potassium Ruthenium Oxide (1/4/8)'
_chemical_formula_structural       'K (Ru4 O8)'
_chemical_formula_sum              'K1 O8 Ru4'
_publ_section_title
;
Eine neue Rutheniumbronze: K Ru4 O8
;
loop_
_citation_id
_citation_journal_abbrev
_citation_year
_citation_journal_volume
_citation_page_first
_citation_page_last
_citation_journal_id_ASTM
primary 'Zeitschrift fuer Anorganische und Allgemeine Chemie (1950) (DE)'
 1978 438 90 96 ZAACAB
_publ_author_name                  'Wilhelm, M.;Hoppe, R.'
_cell_length_a                     9.885
_cell_length_b                     9.885
_cell_length_c                     3.127
_cell_angle_alpha                  90.
_cell_angle_beta                   90.
_cell_angle_gamma                  90.
_cell_volume                       305.55
_cell_formula_units_Z              2
_symmetry_space_group_name_H-M     'I 4/m'
_symmetry_Int_Tables_number        87
_refine_ls_R_factor_all            .031
loop_
_symmetry_equiv_pos_site_id
_symmetry_equiv_pos_as_xyz
  1	'-y, x, -z'
  2	'y, -x, -z'
  3	'x, y, -z'
  4	'-x, -y, -z'
  5	'y, -x, z'
  6	'-y, x, z'
  7	'-x, -y, z'
  8	'x, y, z'
  9	'-y+.5, x+.5, -z+.5'
 10	'y+.5, -x+.5, -z+.5'
 11	'x+.5, y+.5, -z+.5'
 12	'-x+.5, -y+.5, -z+.5'
 13	'y+.5, -x+.5, z+.5'
 14	'-y+.5, x+.5, z+.5'
 15	'-x+.5, -y+.5, z+.5'
 16	'x+.5, y+.5, z+.5'
loop_
_atom_type_symbol
_atom_type_oxidation_number
K1+	1
O2-	-2
Ru3.75+	3.75
loop_
_atom_site_label
_atom_site_type_symbol
_atom_site_symmetry_multiplicity
_atom_site_Wyckoff_symbol
_atom_site_fract_x
_atom_site_fract_y
_atom_site_fract_z
_atom_site_occupancy
_atom_site_attached_hydrogens
_atom_site_B_iso_or_equiv
Ru1 Ru3.75+ 8 h 0.35020(4) 0.16770(4) 0 1. 0 0.3 
K1 K1+ 2 b 0 0 0.5 1. 0 1.56 
O1 O2- 8 h 0.1478(4) 0.1985(4) 0 1. 0 0.7 
O2 O2- 8 h 0.5458(4) 0.1578(4) 0 1. 0 0.7 

#End of data_1562-ICSD


