data_79867-ICSD
#?2014 by Fachinformationszentrum Karlsruhe, and the U.S. Secretary of 
#Commerce on behalf of the United States.  All rights reserved.
_database_code_ICSD                79867
_audit_creation_date               1996/10/14
_chemical_name_systematic
;
Tetralithium Strontium Calcium Bis(silicate)
;
_chemical_formula_structural       'Li4 Sr Ca (Si O4)2'
_chemical_formula_sum              'Ca1 Li4 O8 Si2 Sr1'
_publ_section_title
;
The new orthosilicate Li4 Sr Ca (Si O4)2: structure and Eu(2+) 
luminescence
;
loop_
_citation_id
_citation_journal_abbrev
_citation_year
_citation_journal_volume
_citation_page_first
_citation_page_last
_citation_journal_id_ASTM
primary 'Inorganic Chemistry' 1995 34 1308 1310 INOCAJ
_publ_author_name                  'Akella, A.;Keszler, D.A.'
_cell_length_a                     4.983(2)
_cell_length_b                     9.930(2)
_cell_length_c                     14.057(2)
_cell_angle_alpha                  90.
_cell_angle_beta                   90.
_cell_angle_gamma                  90.
_cell_volume                       695.56
_cell_formula_units_Z              4
_symmetry_space_group_name_H-M     'P b c m'
_symmetry_Int_Tables_number        57
_refine_ls_R_factor_all            .056
loop_
_symmetry_equiv_pos_site_id
_symmetry_equiv_pos_as_xyz
  1	'x, -y+.5, z+.5'
  2	'-x, y+.5, z'
  3	'x, y, -z+.5'
  4	'-x, -y, -z'
  5	'-x, y+.5, -z+.5'
  6	'x, -y+.5, -z'
  7	'-x, -y, z+.5'
  8	'x, y, z'
loop_
_atom_type_symbol
_atom_type_oxidation_number
Ca2+	2
Li1+	1
O2-	-2
Si4+	4
Sr2+	2
loop_
_atom_site_label
_atom_site_type_symbol
_atom_site_symmetry_multiplicity
_atom_site_Wyckoff_symbol
_atom_site_fract_x
_atom_site_fract_y
_atom_site_fract_z
_atom_site_occupancy
_atom_site_attached_hydrogens
_atom_site_B_iso_or_equiv
Sr1 Sr2+ 4 d 0.0553(2) 0.23147(8) 0.75 1. 0 0.72(3) 
Ca1 Ca2+ 4 b 0.5 0 0.5 1. 0 0.43(5) 
Si1 Si4+ 4 d 0.4732(4) -.0253(2) 0.75 1. 0 0.31(7) 
Si2 Si4+ 4 c 0.0174(4) 0.25 0 1. 0 0.36(7) 
O1 O2- 4 d 0.579(1) 0.3128(6) 0.75 1. 0 0.5(2) 
O2 O2- 4 d 0.797(1) -.0001(6) 0.75 1. 0 0.6(2) 
O3 O2- 8 e 0.3338(8) 0.0448(4) 0.6558(3) 1. 0 0.5(1) 
O4 O2- 8 e 0.2090(8) 0.3350(4) 0.9274(3) 1. 0 0.6(1) 
O5 O2- 8 e 0.8218(9) 0.1503(4) 0.5616(3) 1. 0 0.6(2) 
Li1 Li1+ 8 e -.041(2) -.0022(9) 0.8731(7) 1. 0 0.1(1) 
Li2 Li1+ 8 e 0.521(2) 0.225(1) 0.6275(8) 1. 0 0.71(2) 

#End of data_79867-ICSD


