data_609323-ICSD
#?2014 by Fachinformationszentrum Karlsruhe, and the U.S. Secretary of 
#Commerce on behalf of the United States.  All rights reserved.
_database_code_ICSD                609323
_audit_creation_date               2012/02/01
_chemical_name_systematic
;
Thallium Aluminium Selenide (1/1/2)
;
_chemical_formula_structural       'Tl Al Se2'
_chemical_formula_sum              'Al1 Se2 Tl1'
_publ_section_title
;
Zur Struktur ternaerer Chalkogenide des Thalliums mit Aluminium, 
Gallium und Indium. XXII
;
loop_
_citation_id
_citation_journal_abbrev
_citation_year
_citation_journal_volume
_citation_page_first
_citation_page_last
_citation_journal_id_ASTM
primary
;
Zeitschrift fuer Naturforschung, Teil B. Anorganische Chemie, 
Organische Chemie (33,1978-41,1986)
;
 1974 29 117 118 ZNBAD2
_publ_author_name
;
Mueller, D.;Poltmann, F.E.;Hahn, H.
;
_cell_length_a                     10.74
_cell_length_b                     10.66
_cell_length_c                     15.46
_cell_angle_alpha                  90.0
_cell_angle_beta                   100.
_cell_angle_gamma                  90.0
_cell_volume                       1743.1
_cell_formula_units_Z              16
_symmetry_space_group_name_H-M     'C 1 2/c 1'
_symmetry_Int_Tables_number        15
loop_
_symmetry_equiv_pos_site_id
_symmetry_equiv_pos_as_xyz
  1	'x, -y, z+.5'
  2	'-x, -y, -z'
  3	'-x, y, -z+.5'
  4	'x, y, z'
  5	'x+.5, -y+.5, z+.5'
  6	'-x+.5, -y+.5, -z'
  7	'-x+.5, y+.5, -z+.5'
  8	'x+.5, y+.5, z'
loop_
_atom_type_symbol
_atom_type_oxidation_number
Al3+	3
Se2-	-2
Tl1+	1
loop_
_atom_site_label
_atom_site_type_symbol
_atom_site_symmetry_multiplicity
_atom_site_Wyckoff_symbol
_atom_site_fract_x
_atom_site_fract_y
_atom_site_fract_z
_atom_site_occupancy
_atom_site_attached_hydrogens
Tl1 Tl1+ 8 f 0.466 0.312 .117 1. 0 
Tl2 Tl1+ 8 f 0.284 0.062 .382 1. 0 
Al1 Al3+ 8 f 0.100 0.189 .163 1. 0 
Al2 Al3+ 8 f 0.145 0.438 .338 1. 0 
Se1 Se2- 4 e 0 0.052 .25 1. 0 
Se2 Se2- 4 e 0 0.576 .25 1. 0 
Se3 Se2- 8 f 0.259 0.311 .251 1. 0 
Se4 Se2- 8 f 0.049 0.312 .448 1. 0 
Se5 Se2- 8 f 0.203 0.062 .060 1. 0 

#End of data_609323-ICSD


