data_415199-ICSD
#?2014 by Fachinformationszentrum Karlsruhe, and the U.S. Secretary of 
#Commerce on behalf of the United States.  All rights reserved.
_database_code_ICSD                415199
_audit_creation_date               2006/10/01
_chemical_name_systematic          'Lithium Triborate'
_chemical_formula_structural       'B3 Li O5'
_chemical_formula_sum              'B3 Li1 O5'
_publ_section_title
;
Li B3 O5 crystal structure at 20, 227, and 377 degree C
;
loop_
_citation_id
_citation_journal_abbrev
_citation_year
_citation_journal_volume
_citation_page_first
_citation_page_last
_citation_journal_id_ASTM
primary 'Journal of Solid State Chemistry' 2005 178 2987 2997 JSSCBI
_publ_author_name
;
Shepelev, Yu.F.;Bubnova, R.S.;Filatov, S.K.;Sennova, N.A.;Pilneva, 
N.A.
;
_cell_length_a                     8.746(7)
_cell_length_b                     7.480(6)
_cell_length_c                     5.013(5)
_cell_angle_alpha                  90.00
_cell_angle_beta                   90.00
_cell_angle_gamma                  90.00
_cell_volume                       327.95
_cell_formula_units_Z              4
_symmetry_space_group_name_H-M     'P n a 21'
_symmetry_Int_Tables_number        33
_refine_ls_R_factor_all            .0301
loop_
_symmetry_equiv_pos_site_id
_symmetry_equiv_pos_as_xyz
  1	'x+.5, -y+.5, z'
  2	'-x+.5, y+.5, z+.5'
  3	'-x, -y, z+.5'
  4	'x, y, z'
loop_
_atom_type_symbol
_atom_type_oxidation_number
B3+	3
Li1+	1
O2-	-2
loop_
_atom_site_label
_atom_site_type_symbol
_atom_site_symmetry_multiplicity
_atom_site_Wyckoff_symbol
_atom_site_fract_x
_atom_site_fract_y
_atom_site_fract_z
_atom_site_occupancy
_atom_site_attached_hydrogens
_atom_site_B_iso_or_equiv
Li1 Li1+ 4 a .38696(61) .56275(35) .02755(0) 1. 0 6.445(97) 
B1 B3+ 4 a .51026(9) .83512(9) .353(1) 1. 0 1.208(11) 
B2 B3+ 4 a .68917(8) .05489(9) .548(1) 1. 0 .995(9) 
B3 B3+ 4 a .65730(7) .75098(9) .735(1) 1. 0 1.058(10) 
O1 O2- 4 a .58768(7) .99078(7) .339(1) 1. 0 1.568(8) 
O2 O2- 4 a .38682(7) .79821(6) .196(1) 1. 0 1.478(8) 
O3 O2- 4 a .55699(7) .70327(7) .532(1) 1. 0 1.587(9) 
O4 O2- 4 a .73164(6) .91016(6) .738(1) 1. 0 1.226(7) 
O5 O2- 4 a .67118(6) .62094(7) .924(1) 1. 0 1.476(8) 

#End of data_415199-ICSD


