data_73895-ICSD
#?2014 by Fachinformationszentrum Karlsruhe, and the U.S. Secretary of 
#Commerce on behalf of the United States.  All rights reserved.
_database_code_ICSD                73895
_audit_creation_date               1995/01/10
_chemical_name_systematic
;
Bismuth Dimagnesium Dioxide Arsenate
;
_chemical_formula_structural       'Bi Mg2 O2 (As O4)'
_chemical_formula_sum              'As1 Bi1 Mg2 O6'
_publ_section_title
;
Synthesis and characterization of bismuth magnesium phosphate and 
arsenate: BiMg2PO6 and BiMg2AsO6
;
loop_
_citation_id
_citation_journal_abbrev
_citation_year
_citation_journal_volume
_citation_page_first
_citation_page_last
_citation_journal_id_ASTM
primary 'Journal of Solid State Chemistry' 1993 105 599 606 JSSCBI
_publ_author_name                  'Huang, J.;Gu, Q.;Sleight, A.W.'
_cell_length_a                     7.9142(5)
_cell_length_b                     12.1637(8)
_cell_length_c                     5.3898(4)
_cell_angle_alpha                  90.
_cell_angle_beta                   90.
_cell_angle_gamma                  90.
_cell_volume                       518.85
_cell_formula_units_Z              4
_symmetry_space_group_name_H-M     'C m c m'
_symmetry_Int_Tables_number        63
_refine_ls_R_factor_all            .063
loop_
_symmetry_equiv_pos_site_id
_symmetry_equiv_pos_as_xyz
  1	'-x, y, -z+.5'
  2	'-x, -y, z+.5'
  3	'-x, y, z'
  4	'-x, -y, -z'
  5	'x, -y, z+.5'
  6	'x, y, -z+.5'
  7	'x, -y, -z'
  8	'x, y, z'
  9	'-x+.5, y+.5, -z+.5'
 10	'-x+.5, -y+.5, z+.5'
 11	'-x+.5, y+.5, z'
 12	'-x+.5, -y+.5, -z'
 13	'x+.5, -y+.5, z+.5'
 14	'x+.5, y+.5, -z+.5'
 15	'x+.5, -y+.5, -z'
 16	'x+.5, y+.5, z'
loop_
_atom_type_symbol
_atom_type_oxidation_number
As5+	5
Bi3+	3
Mg2+	2
O2-	-2
loop_
_atom_site_label
_atom_site_type_symbol
_atom_site_symmetry_multiplicity
_atom_site_Wyckoff_symbol
_atom_site_fract_x
_atom_site_fract_y
_atom_site_fract_z
_atom_site_occupancy
_atom_site_attached_hydrogens
_atom_site_B_iso_or_equiv
Bi1 Bi3+ 4 c 0.5 0.0930(4) 0.25 1. 0 0.34(8) 
As1 As5+ 4 c 0 0.1987(9) 0.25 1. 0 1.2(3) 
Mg1 Mg2+ 8 g 0.305(2) 0.408(2) 0.25 1. 0 0.9(4) 
O1 O2- 8 e 0.329(5) 0 0.5 1. 0 0.7(8) 
O2 O2- 8 f 0 0.882(3) 0.491(6) 1. 0 0.7(8) 
O3 O2- 8 g 0.673(7) 0.771(5) 0.25 1. 0 3.00(16) 

#End of data_73895-ICSD


