data_27771-ICSD
#?2014 by Fachinformationszentrum Karlsruhe, and the U.S. Secretary of 
#Commerce on behalf of the United States.  All rights reserved.
_database_code_ICSD                27771
_audit_creation_date               1980/01/01
_audit_update_record               2006/04/01
_chemical_name_systematic          'Dialuminium Silicate Oxide'
_chemical_formula_structural       'Al2 (Si O4) O'
_chemical_formula_sum              'Al2 O5 Si1'
_chemical_name_mineral             Kyanite
_publ_section_title
;
Comparaison de deux affinements de la structure de la cyanite
;
loop_
_citation_id
_citation_journal_abbrev
_citation_year
_citation_journal_volume
_citation_page_first
_citation_page_last
_citation_journal_id_ASTM
primary
;
Bulletin de la Societe Francaise de Mineralogie et de 
Cristallographie (72,1949-100,1977)
;
 1966 89 419 424 BUFCAE
_publ_author_name
;
de Rango, C.;Tsoucaris, G.;Zelwer, C.;Devaux, J.
;
_cell_length_a                     7.11(1)
_cell_length_b                     7.83(1)
_cell_length_c                     5.58(1)
_cell_angle_alpha                  89.88(12)
_cell_angle_beta                   101.23(12)
_cell_angle_gamma                  106.10(12)
_cell_volume                       292.3
_cell_formula_units_Z              4
_symmetry_space_group_name_H-M     'P -1'
_symmetry_Int_Tables_number        2
_refine_ls_R_factor_all            .015
loop_
_symmetry_equiv_pos_site_id
_symmetry_equiv_pos_as_xyz
  1	'-x, -y, -z'
  2	'x, y, z'
loop_
_atom_type_symbol
_atom_type_oxidation_number
Al3+	3
O2-	-2
Si4+	4
loop_
_atom_site_label
_atom_site_type_symbol
_atom_site_symmetry_multiplicity
_atom_site_Wyckoff_symbol
_atom_site_fract_x
_atom_site_fract_y
_atom_site_fract_z
_atom_site_occupancy
_atom_site_attached_hydrogens
O1 O2- 2 i 0.3904(4) 0.3538(4) 0.3721(5) 1. 0 
O2 O2- 2 i 0.3767(4) -.1860(4) 0.3192(5) 1. 0 
O3 O2- 2 i 0.2259(4) 0.0464(4) -.4559(5) 1. 0 
O4 O2- 2 i 0.2169(5) -.4343(4) -.4347(5) 1. 0 
O5 O2- 2 i 0.3899(5) 0.3465(4) -.1673(5) 1. 0 
O6 O2- 2 i 0.3780(4) -.1312(4) -.1392(5) 1. 0 
O7 O2- 2 i 0.2169(5) 0.0542(5) 0.0700(6) 1. 0 
O8 O2- 2 i 0.2081(5) -.4472(4) 0.0351(5) 1. 0 
O9 O2- 2 i -.0005(4) 0.2255(4) 0.2562(5) 1. 0 
O10 O2- 2 i -.0018(4) 0.2682(4) -.2562(5) 1. 0 
Si1 Si4+ 2 i 0.2035(2) 0.4347(2) -.2069(2) 1. 0 
Si2 Si4+ 2 i 0.2090(2) 0.1687(2) 0.3108(2) 1. 0 
Al1 Al3+ 2 i 0.1739(2) -.2041(2) 0.0424(2) 1. 0 
Al2 Al3+ 2 i 0.2026(2) -.1989(2) -.4498(2) 1. 0 
Al3 Al3+ 2 i 0.4000(2) 0.1134(2) -.1410(2) 1. 0 
Al4 Al3+ 2 i 0.3880(2) -.4171(2) 0.3348(2) 1. 0 

#End of data_27771-ICSD


