data_68638-ICSD
#?2014 by Fachinformationszentrum Karlsruhe, and the U.S. Secretary of 
#Commerce on behalf of the United States.  All rights reserved.
_database_code_ICSD                68638
_audit_creation_date               1991/07/10
_audit_update_record               2003/10/01
_chemical_name_systematic          'Potassium Diselenidoarsenate(III)'
_chemical_formula_structural       'K (As Se2)'
_chemical_formula_sum              'As1 K1 Se2'
_publ_section_title                'On the structure of KAsSe2'
loop_
_citation_id
_citation_journal_abbrev
_citation_year
_citation_journal_volume
_citation_page_first
_citation_page_last
_citation_journal_id_ASTM
primary 'Acta Crystallographica, Section C: Crystal Structure Communications'
 1989 45 2029 2029 ACSCEE
2 'Zeitschrift fuer Anorganische und Allgemeine Chemie (1950) (DE)'
 1988 561 139 148 ZAACAB
_publ_author_name
;
Kapon, M.;Reisner, G.M.;Marsh, R.E.
;
_cell_length_a                     7.75
_cell_length_b                     10.576
_cell_length_c                     12.628
_cell_angle_alpha                  90.
_cell_angle_beta                   107.88
_cell_angle_gamma                  90.
_cell_volume                       985.05
_cell_formula_units_Z              8
_symmetry_space_group_name_H-M     'C 1 c 1'
_symmetry_Int_Tables_number        9
_refine_ls_R_factor_all            .075
loop_
_symmetry_equiv_pos_site_id
_symmetry_equiv_pos_as_xyz
  1	'x, -y, z+.5'
  2	'x, y, z'
  3	'x+.5, -y+.5, z+.5'
  4	'x+.5, y+.5, z'
loop_
_atom_type_symbol
_atom_type_oxidation_number
As3+	3
K1+	1
Se2-	-2
loop_
_atom_site_label
_atom_site_type_symbol
_atom_site_symmetry_multiplicity
_atom_site_Wyckoff_symbol
_atom_site_fract_x
_atom_site_fract_y
_atom_site_fract_z
_atom_site_occupancy
_atom_site_attached_hydrogens
K1 K1+ 4 a 0.2183 0.2736 0.2591 1. 0 
K2 K1+ 4 a 0.1527 0.0188 0.4976 1. 0 
As1 As3+ 4 a 0.7222 0.1528 0.1768 1. 0 
As2 As3+ 4 a 0.6668 0.0695 0.4425 1. 0 
Se1 Se2- 4 a 0.9578 0.0094 0.2076 1. 0 
Se2 Se2- 4 a 0.539 0.1286 -.0184 1. 0 
Se3 Se2- 4 a 0.5002 0.2196 0.4999 1. 0 
Se4 Se2- 4 a 0.4997 0.0428 0.2448 1. 0 

#End of data_68638-ICSD


