data_409588-ICSD
#?2014 by Fachinformationszentrum Karlsruhe, and the U.S. Secretary of 
#Commerce on behalf of the United States.  All rights reserved.
_database_code_ICSD                409588
_audit_creation_date               2003/10/01
_chemical_name_systematic          'Dibarium Zinc Disilicate'
_chemical_formula_structural       'Ba2 Zn (Si2 O7)'
_chemical_formula_sum              'Ba2 O7 Si2 Zn1'
_publ_section_title
;
Crystal structure of the new barium zinc silicate Ba2 Zn Si2 O7
;
loop_
_citation_id
_citation_journal_abbrev
_citation_year
_citation_journal_volume
_citation_page_first
_citation_page_last
_citation_journal_id_ASTM
primary 'Zeitschrift fuer Kristallographie - New Crystal Structures'
 2002 217 25 26 ZKNSFT
_publ_author_name                  'Kaiser, J.W.;Jeitschko, W.'
_cell_length_a                     8.434(2)
_cell_length_b                     10.722(2)
_cell_length_c                     8.436(2)
_cell_angle_alpha                  90.
_cell_angle_beta                   111.30(3)
_cell_angle_gamma                  90.
_cell_volume                       710.75
_cell_formula_units_Z              4
_symmetry_space_group_name_H-M     'C 1 2/c 1'
_symmetry_Int_Tables_number        15
_refine_ls_R_factor_all            .02
loop_
_symmetry_equiv_pos_site_id
_symmetry_equiv_pos_as_xyz
  1	'x, -y, z+.5'
  2	'-x, -y, -z'
  3	'-x, y, -z+.5'
  4	'x, y, z'
  5	'x+.5, -y+.5, z+.5'
  6	'-x+.5, -y+.5, -z'
  7	'-x+.5, y+.5, -z+.5'
  8	'x+.5, y+.5, z'
loop_
_atom_type_symbol
_atom_type_oxidation_number
Ba2+	2
O2-	-2
Si4+	4
Zn2+	2
loop_
_atom_site_label
_atom_site_type_symbol
_atom_site_symmetry_multiplicity
_atom_site_Wyckoff_symbol
_atom_site_fract_x
_atom_site_fract_y
_atom_site_fract_z
_atom_site_occupancy
_atom_site_attached_hydrogens
_atom_site_U_iso_or_equiv
Ba1 Ba2+ 8 f 0.225995(10) 0.042667(7) 0.473812(9) 1. 0 0.00832(2) 
Zn1 Zn2+ 4 e 0 0.74136(2) 0.25 1. 0 0.00801(4) 
Si1 Si4+ 8 f 0.11403(5) 0.28212(4) 0.13705(4) 1. 0 0.00608(7) 
O1 O2- 8 f 0.10987(13) 0.1327(1) 0.13214(12) 1. 0 0.0107(2) 
O2 O2- 8 f 0.30020(12) 0.34311(10) 0.23444(12) 1. 0 0.00931(19) 
O3 O2- 8 f 0.47162(13) 0.14722(10) 0.04391(11) 1. 0 0.0098(2) 
O4 O2- 4 e 0 0.33324(15) 0.25 1. 0 0.0115(3) 

loop_
_atom_site_aniso_label
_atom_site_aniso_type_symbol
_atom_site_aniso_U_11
_atom_site_aniso_U_22
_atom_site_aniso_U_33
_atom_site_aniso_U_12
_atom_site_aniso_U_13
_atom_site_aniso_U_23
Ba1 Ba2+ 0.00942(3) 0.00676(3) 0.00904(2) 0.00002(2) 0.00367(2) -0.00050(2)
Zn1 Zn2+ 0.00859(8) 0.00787(9) 0.00758(6) 0 0.00295(6) 0
Si1 Si4+ 0.00695(12) 0.00529(13) 0.00638(10) -0.00014(12) 0.00289(9) 
-0.00022(10)
O1 O2- 0.0139(4) 0.0060(4) 0.0137(3) 0.0005(3) 0.0068(3) 0.0003(3)
O2 O2- 0.0068(3) 0.0086(4) 0.0109(3) -0.0009(3) 0.0013(3) -0.0011(3)
O3 O2- 0.0126(4) 0.0086(4) 0.0071(3) 0.0004(3) 0.0022(3) -0.0005(3)
O4 O2- 0.0154(5) 0.0098(6) 0.0139(4) 0 0.0109(4) 0
#End of data_409588-ICSD


