data_38226-ICSD
#?2014 by Fachinformationszentrum Karlsruhe, and the U.S. Secretary of 
#Commerce on behalf of the United States.  All rights reserved.
_database_code_ICSD                38226
_audit_creation_date               1980/01/01
_audit_update_record               2012/08/01
_chemical_name_systematic
;
Potassium Pentabromocarbonyliridate(III)
;
_chemical_formula_structural       'K2 Ir Br5 C O'
_chemical_formula_sum              'C1 Br5 Ir1 K2 O1'
_publ_section_title
;
Struttura cristallina del pentabromocarboniliridato(III) di potassio
;
loop_
_citation_id
_citation_journal_abbrev
_citation_year
_citation_journal_volume
_citation_page_first
_citation_page_last
_citation_journal_id_ASTM
primary 'Ricerca Scientifica, Parte 2: Rendiconti, Sezione A: Abiologica'
 1964 7 613 621 RSRAAQ
_publ_author_name
;
Bonamico, M.;Duranti, D.;Vaciago, A.;Zambonelli, L.
;
_cell_length_a                     14.00(4)
_cell_length_b                     10.663
_cell_length_c                     7.17(2)
_cell_angle_alpha                  90.
_cell_angle_beta                   90.
_cell_angle_gamma                  90.
_cell_volume                       1070.35
_cell_formula_units_Z              4
_symmetry_space_group_name_H-M     'P n m a'
_symmetry_Int_Tables_number        62
loop_
_symmetry_equiv_pos_site_id
_symmetry_equiv_pos_as_xyz
  1	'x+.5, y, -z+.5'
  2	'x, -y+.5, z'
  3	'-x+.5, y+.5, z+.5'
  4	'-x, -y, -z'
  5	'-x+.5, -y, z+.5'
  6	'-x, y+.5, -z'
  7	'x+.5, -y+.5, -z+.5'
  8	'x, y, z'
loop_
_atom_type_symbol
_atom_type_oxidation_number
Br1-	-1
C2+	2
Ir3+	3
K1+	1
O2-	-2
loop_
_atom_site_label
_atom_site_type_symbol
_atom_site_symmetry_multiplicity
_atom_site_Wyckoff_symbol
_atom_site_fract_x
_atom_site_fract_y
_atom_site_fract_z
_atom_site_occupancy
_atom_site_attached_hydrogens
_atom_site_B_iso_or_equiv
Ir1 Ir3+ 4 c 0.1137 0.25 0.1865 1. 0 1.6 
Br1 Br1- 8 d 0.1135 0.0164 0.1826 1. 0 2.2 
Br2 Br1- 4 c 0.0076 0.25 0.451 1. 0 2.2 
Br3 Br1- 4 c 0.2232 0.25 -.1234 1. 0 2.8 
Br4 Br1- 4 c 0.2592 0.25 0.4284 1. 0 2.2 
K1 K1+ 8 d 0.3492 -.0016 0.16 1. 0 4.9 
O1 O2- 4 c -.025 0.25 -.077 1. 0 2.5 
C1 C2+ 4 c 0.025 0.25 0.027 1. 0 2.5 

#End of data_38226-ICSD


