data_179-ICSD
#?2014 by Fachinformationszentrum Karlsruhe, and the U.S. Secretary of 
#Commerce on behalf of the United States.  All rights reserved.
_database_code_ICSD                179
_audit_creation_date               1980/01/01
_audit_update_record               2009/08/01
_chemical_name_systematic
;
Dipotassium Strontium Hexanitroniccolate
;
_chemical_formula_structural       'K2 Sr (Ni (N O2)6)'
_chemical_formula_sum              'K2 N6 Ni1 O12 Sr1'
_publ_section_title
;
Potassium strontium hexanitrocuprate(II) and potassium strontium 
hexanitronickelate(II)
;
loop_
_citation_id
_citation_journal_abbrev
_citation_year
_citation_journal_volume
_citation_page_first
_citation_page_last
_citation_journal_id_ASTM
primary 'Acta Crystallographica B (24,1968-38,1982)' 1976 32 2524 2526 ACBCAR
_publ_author_name
;
Takagi, S.;Joesten, M.D.;Lenhert, P.G.
;
_cell_length_a                     10.5063(5)
_cell_length_b                     10.5063(5)
_cell_length_c                     10.5063(5)
_cell_angle_alpha                  90.
_cell_angle_beta                   90.
_cell_angle_gamma                  90.
_cell_volume                       1159.71
_cell_formula_units_Z              4
_symmetry_space_group_name_H-M     'F m -3'
_symmetry_Int_Tables_number        202
_refine_ls_R_factor_all            .026
loop_
_symmetry_equiv_pos_site_id
_symmetry_equiv_pos_as_xyz
  1	'z, x, -y'
  2	'y, z, -x'
  3	'x, y, -z'
  4	'-z, -x, y'
  5	'-y, -z, x'
  6	'-x, -y, z'
  7	'z, -x, y'
  8	'y, -z, x'
  9	'x, -y, z'
 10	'-z, x, -y'
 11	'-y, z, -x'
 12	'-x, y, -z'
 13	'-z, x, y'
 14	'-y, z, x'
 15	'-x, y, z'
 16	'z, -x, -y'
 17	'y, -z, -x'
 18	'x, -y, -z'
 19	'-z, -x, -y'
 20	'-y, -z, -x'
 21	'-x, -y, -z'
 22	'z, x, y'
 23	'y, z, x'
 24	'x, y, z'
 25	'z, x+.5, -y+.5'
 26	'z+.5, x, -y+.5'
 27	'z+.5, x+.5, -y'
 28	'y, z+.5, -x+.5'
 29	'y+.5, z, -x+.5'
 30	'y+.5, z+.5, -x'
 31	'x, y+.5, -z+.5'
 32	'x+.5, y, -z+.5'
 33	'x+.5, y+.5, -z'
 34	'-z, -x+.5, y+.5'
 35	'-z+.5, -x, y+.5'
 36	'-z+.5, -x+.5, y'
 37	'-y, -z+.5, x+.5'
 38	'-y+.5, -z, x+.5'
 39	'-y+.5, -z+.5, x'
 40	'-x, -y+.5, z+.5'
 41	'-x+.5, -y, z+.5'
 42	'-x+.5, -y+.5, z'
 43	'z, -x+.5, y+.5'
 44	'z+.5, -x, y+.5'
 45	'z+.5, -x+.5, y'
 46	'y, -z+.5, x+.5'
 47	'y+.5, -z, x+.5'
 48	'y+.5, -z+.5, x'
 49	'x, -y+.5, z+.5'
 50	'x+.5, -y, z+.5'
 51	'x+.5, -y+.5, z'
 52	'-z, x+.5, -y+.5'
 53	'-z+.5, x, -y+.5'
 54	'-z+.5, x+.5, -y'
 55	'-y, z+.5, -x+.5'
 56	'-y+.5, z, -x+.5'
 57	'-y+.5, z+.5, -x'
 58	'-x, y+.5, -z+.5'
 59	'-x+.5, y, -z+.5'
 60	'-x+.5, y+.5, -z'
 61	'-z, x+.5, y+.5'
 62	'-z+.5, x, y+.5'
 63	'-z+.5, x+.5, y'
 64	'-y, z+.5, x+.5'
 65	'-y+.5, z, x+.5'
 66	'-y+.5, z+.5, x'
 67	'-x, y+.5, z+.5'
 68	'-x+.5, y, z+.5'
 69	'-x+.5, y+.5, z'
 70	'z, -x+.5, -y+.5'
 71	'z+.5, -x, -y+.5'
 72	'z+.5, -x+.5, -y'
 73	'y, -z+.5, -x+.5'
 74	'y+.5, -z, -x+.5'
 75	'y+.5, -z+.5, -x'
 76	'x, -y+.5, -z+.5'
 77	'x+.5, -y, -z+.5'
 78	'x+.5, -y+.5, -z'
 79	'-z, -x+.5, -y+.5'
 80	'-z+.5, -x, -y+.5'
 81	'-z+.5, -x+.5, -y'
 82	'-y, -z+.5, -x+.5'
 83	'-y+.5, -z, -x+.5'
 84	'-y+.5, -z+.5, -x'
 85	'-x, -y+.5, -z+.5'
 86	'-x+.5, -y, -z+.5'
 87	'-x+.5, -y+.5, -z'
 88	'z, x+.5, y+.5'
 89	'z+.5, x, y+.5'
 90	'z+.5, x+.5, y'
 91	'y, z+.5, x+.5'
 92	'y+.5, z, x+.5'
 93	'y+.5, z+.5, x'
 94	'x, y+.5, z+.5'
 95	'x+.5, y, z+.5'
 96	'x+.5, y+.5, z'
loop_
_atom_type_symbol
_atom_type_oxidation_number
K1+	1
N3+	3
Ni2+	2
O2-	-2
Sr2+	2
loop_
_atom_site_label
_atom_site_type_symbol
_atom_site_symmetry_multiplicity
_atom_site_Wyckoff_symbol
_atom_site_fract_x
_atom_site_fract_y
_atom_site_fract_z
_atom_site_occupancy
_atom_site_attached_hydrogens
_atom_site_B_iso_or_equiv
Ni1 Ni2+ 4 a 0 0 0 1. 0 0.782 
Sr1 Sr2+ 4 b 0 0 0.5 1. 0 0.777 
K1 K1+ 8 c 0.25 0.25 0.25 1. 0 2.258 
O1 O2- 48 h 0 0.10098(7) 0.26042(9) 1. 0 0 
N1 N3+ 24 e 0 0 0.19778(13) 1. 0 0 

loop_
_atom_site_aniso_label
_atom_site_aniso_type_symbol
_atom_site_aniso_B_11
_atom_site_aniso_B_22
_atom_site_aniso_B_33
_atom_site_aniso_B_12
_atom_site_aniso_B_13
_atom_site_aniso_B_23
O1 O2- 2.69(3) 1.26(3) 1.20(3) 0 0 -.29(2)
N1 N3+ 1.13(4) 1.17(4) 0.96(4) 0 0 0
#End of data_179-ICSD


