data_81083-ICSD
#?2014 by Fachinformationszentrum Karlsruhe, and the U.S. Secretary of 
#Commerce on behalf of the United States.  All rights reserved.
_database_code_ICSD                81083
_audit_creation_date               1997/05/13
_audit_update_record               2003/04/01
_chemical_name_systematic
;
Dipotassium Dicobalt Tris(sulfate(VI))
;
_chemical_formula_structural       'K2 Co2 (S O4)3'
_chemical_formula_sum              'Co2 K2 O12 S3'
_publ_section_title
;
Structural study of phase transition in K2 Co2 (S O4)3 crystals
;
loop_
_citation_id
_citation_journal_abbrev
_citation_year
_citation_journal_volume
_citation_journal_issue
_citation_page_first
_citation_page_last
_citation_journal_id_ASTM
primary 'Journal of the Physical Society of Japan' 1995 64 12 4726 4732 JUPSAU
2 'Phase Transition' 1992 38- 127 220 PHTRDP
_publ_author_name                  'Moriyoshi, C.;Itoh, K.;Hikita, T.'
_cell_length_a                     9.8976(12)
_cell_length_b                     9.8976(12)
_cell_length_c                     9.8976(12)
_cell_angle_alpha                  90.
_cell_angle_beta                   90.
_cell_angle_gamma                  90.
_cell_volume                       969.59
_cell_formula_units_Z              4
_symmetry_space_group_name_H-M     'P 21 3'
_symmetry_Int_Tables_number        198
_refine_ls_R_factor_all            .047
loop_
_symmetry_equiv_pos_site_id
_symmetry_equiv_pos_as_xyz
  1	'-z+.5, -x, y+.5'
  2	'-y+.5, -z, x+.5'
  3	'-x+.5, -y, z+.5'
  4	'-z, x+.5, -y+.5'
  5	'-y, z+.5, -x+.5'
  6	'-x, y+.5, -z+.5'
  7	'z+.5, -x+.5, -y'
  8	'y+.5, -z+.5, -x'
  9	'x+.5, -y+.5, -z'
 10	'z, x, y'
 11	'y, z, x'
 12	'x, y, z'
loop_
_atom_type_symbol
_atom_type_oxidation_number
Co2+	2
K1+	1
O2-	-2
S6+	6
loop_
_atom_site_label
_atom_site_type_symbol
_atom_site_symmetry_multiplicity
_atom_site_Wyckoff_symbol
_atom_site_fract_x
_atom_site_fract_y
_atom_site_fract_z
_atom_site_occupancy
_atom_site_attached_hydrogens
Co1 Co2+ 4 a 0.33542(9) 0.33542(9) 0.33542(9) 1. 0 
Co2 Co2+ 4 a 0.59487(10) 0.59487(10) 0.59487(10) 1. 0 
K1 K1+ 4 a 0.81465(17) 0.81465(17) 0.81465(17) 1. 0 
K2 K1+ 4 a 0.04962(19) 0.04962(19) 0.04962(19) 1. 0 
S1 S6+ 12 b 0.21843(5) 0.37589(5) 0.01805(5) 1. 0 
O1 O2- 12 b 0.31082(24) 0.27455(26) 0.96156(32) 1. 0 
O2 O2- 12 b 0.07787(21) 0.33041(26) 0.00074(28) 1. 0 
O3 O2- 12 b 0.24249(33) 0.50126(32) 0.94299(35) 1. 0 
O4 O2- 12 b 0.24843(30) 0.40593(34) 0.15975(24) 1. 0 

loop_
_atom_site_aniso_label
_atom_site_aniso_type_symbol
_atom_site_aniso_U_11
_atom_site_aniso_U_22
_atom_site_aniso_U_33
_atom_site_aniso_U_12
_atom_site_aniso_U_13
_atom_site_aniso_U_23
Co1 Co2+ 0.0069(2) 0.0069(2) 0.0069(2) -0.0013(2) -0.0013(2) -0.0013(2)
Co2 Co2+ 0.0072(2) 0.0072(2) 0.0072(2) 0.0001(2) 0.0001(2) 0.0001(2)
K1 K1+ 0.0126(4) 0.0126(4) 0.0126(4) -0.0006(4) -0.0006(4) -0.0006(4)
K2 K1+ 0.0141(4) 0.0141(4) 0.0141(4) -0.0001(5) -0.0001(5) -0.0001(5)
S1 S6+ 0.0051(2) 0.0057(2) 0.0058(2) 0.0008(1) 0.0005(1) 0.0000(1)
O1 O2- 0.0144(8) 0.0194(9) 0.0339(13) 0.0097(7) -0.0044(9) -0.0143(9)
O2 O2- 0.0075(6) 0.0219(9) 0.0292(11) -0.0039(6) 0.0005(7) -0.0106(9)
O3 O2- 0.0246(11) 0.0239(11) 0.0396(16) 0.0020(9) 0.0010(11) 0.0246(12)
O4 O2- 0.0252(11) 0.0363(14) 0.0114(7) 0.0097(11) -0.0091(8) -0.0070(9)
#End of data_81083-ICSD


