data_69763-ICSD
#?2014 by Fachinformationszentrum Karlsruhe, and the U.S. Secretary of 
#Commerce on behalf of the United States.  All rights reserved.
_database_code_ICSD                69763
_audit_creation_date               1993/01/06
_chemical_name_systematic          'Lithium Germanium Tris(phosphate)'
_chemical_formula_structural       'Li Ge2 (P O4)3'
_chemical_formula_sum              'Ge2 Li1 O12 P3'
_publ_section_title
;
Structure and thermal expansion of LiGe2(PO4)3
;
loop_
_citation_id
_citation_journal_abbrev
_citation_year
_citation_journal_volume
_citation_page_first
_citation_page_last
_citation_journal_id_ASTM
primary 'Journal of Solid State Chemistry' 1991 90 185 193 JSSCBI
_publ_author_name
;
Alami, M.;Brochu, R.;Soubeyroux, J.L.;Gravereau, P.;le Flem, 
G.;Hagenmuller, P.
;
_cell_length_a                     8.275(5)
_cell_length_b                     8.275(5)
_cell_length_c                     20.47(3)
_cell_angle_alpha                  90.
_cell_angle_beta                   90.
_cell_angle_gamma                  120.
_cell_volume                       1213.9
_cell_formula_units_Z              6
_symmetry_space_group_name_H-M     'R -3 c H'
_symmetry_Int_Tables_number        167
_refine_ls_R_factor_all            .024
loop_
_symmetry_equiv_pos_site_id
_symmetry_equiv_pos_as_xyz
  1	'x-y, -y, -z+.5'
  2	'-x, -x+y, -z+.5'
  3	'y, x, -z+.5'
  4	'x-y, x, -z'
  5	'y, -x+y, -z'
  6	'-x, -y, -z'
  7	'-x+y, y, z+.5'
  8	'x, x-y, z+.5'
  9	'-y, -x, z+.5'
 10	'-x+y, -x, z'
 11	'-y, x-y, z'
 12	'x, y, z'
 13	'x-y+.6666, -y+.3333, -z+.8333'
 14	'x-y+.3333, -y+.6666, -z+.1666'
 15	'-x+.6666, -x+y+.3333, -z+.8333'
 16	'-x+.3333, -x+y+.6666, -z+.1666'
 17	'y+.6666, x+.3333, -z+.8333'
 18	'y+.3333, x+.6666, -z+.1666'
 19	'x-y+.6666, x+.3333, -z+.3333'
 20	'x-y+.3333, x+.6666, -z+.6666'
 21	'y+.6666, -x+y+.3333, -z+.3333'
 22	'y+.3333, -x+y+.6666, -z+.6666'
 23	'-x+.6666, -y+.3333, -z+.3333'
 24	'-x+.3333, -y+.6666, -z+.6666'
 25	'-x+y+.6666, y+.3333, z+.8333'
 26	'-x+y+.3333, y+.6666, z+.1666'
 27	'x+.6666, x-y+.3333, z+.8333'
 28	'x+.3333, x-y+.6666, z+.1666'
 29	'-y+.6666, -x+.3333, z+.8333'
 30	'-y+.3333, -x+.6666, z+.1666'
 31	'-x+y+.6666, -x+.3333, z+.3333'
 32	'-x+y+.3333, -x+.6666, z+.6666'
 33	'-y+.6666, x-y+.3333, z+.3333'
 34	'-y+.3333, x-y+.6666, z+.6666'
 35	'x+.6666, y+.3333, z+.3333'
 36	'x+.3333, y+.6666, z+.6666'
loop_
_atom_type_symbol
_atom_type_oxidation_number
Ge4+	4
Li1+	1
O2-	-2
P5+	5
loop_
_atom_site_label
_atom_site_type_symbol
_atom_site_symmetry_multiplicity
_atom_site_Wyckoff_symbol
_atom_site_fract_x
_atom_site_fract_y
_atom_site_fract_z
_atom_site_occupancy
_atom_site_attached_hydrogens
Li1 Li1+ 6 b 0 0 0 1. 0 
Ge1 Ge4+ 12 c 0 0 0.14097(1) 1. 0 
P1 P5+ 18 e 0.2879(1) 0 0.25 1. 0 
O1 O2- 36 f 0.1802(2) -.0152(2) 0.1883(1) 1. 0 
O2 O2- 36 f 0.1845(2) 0.1593(2) 0.0821(1) 1. 0 

loop_
_atom_site_aniso_label
_atom_site_aniso_type_symbol
_atom_site_aniso_U_11
_atom_site_aniso_U_22
_atom_site_aniso_U_33
_atom_site_aniso_U_12
_atom_site_aniso_U_13
_atom_site_aniso_U_23
Li1 Li1+ 0.0405(50) 0.0405(50) 0.0118(45) 0.0203(25) 0 0
Ge1 Ge4+ 0.0030(1) 0.0030(1) 0.0037(2) 0.0015(1) 0 0
P1 P5+ 0.0026(2) 0.0034(3) 0.0049(3) 0.0013(1) 0.0006(1) 0.0012(2)
O1 O2- 0.0103(6) 0.0138(7) 0.0106(6) 0.0077(5) -.0045(5) 0.0006(5)
O2 O2- 0.0052(5) 0.0065(6) 0.0081(5) -.0008(5) 0.0010(4) 0.0010(5)
#End of data_69763-ICSD


