data_167191-ICSD
#?2014 by Fachinformationszentrum Karlsruhe, and the U.S. Secretary of 
#Commerce on behalf of the United States.  All rights reserved.
_database_code_ICSD                167191
_audit_creation_date               2010/08/01
_chemical_name_systematic          'Dizinc Silicate - O2'
_chemical_formula_structural       'Zn2 (Si O4)'
_chemical_formula_sum              'O4 Si1 Zn2'
_publ_section_title
;
Phase stability and pressure-induced structural transitions at zero 
temperature in Zn Si O3 and Zn2 Si O4
;
loop_
_citation_id
_citation_journal_abbrev
_citation_year
_citation_journal_volume
_citation_page_first
_citation_page_last
_citation_journal_id_ASTM
primary 'Journal of Physics: Condensed Matter' 2009 21 485801-01 485801-09 JCOMEL
_publ_author_name
;
Karazhanov, S.Z.;Ravindran, P.;Vajeeston, P.;Ulyashin, A.G.;Fjellvag, 
H.;Svensson, B.G.
;
_cell_length_a                     5.8096
_cell_length_b                     11.6392
_cell_length_c                     8.5397
_cell_angle_alpha                  90.
_cell_angle_beta                   90.
_cell_angle_gamma                  90.
_cell_volume                       577.45
_cell_formula_units_Z              8
_symmetry_space_group_name_H-M     'I m m a'
_symmetry_Int_Tables_number        74
loop_
_symmetry_equiv_pos_site_id
_symmetry_equiv_pos_as_xyz
  1	'-x, y+.5, -z'
  2	'-x, -y+.5, z'
  3	'-x, y, z'
  4	'-x, -y, -z'
  5	'x, -y+.5, z'
  6	'x, y+.5, -z'
  7	'x, -y, -z'
  8	'x, y, z'
  9	'-x+.5, y, -z+.5'
 10	'-x+.5, -y, z+.5'
 11	'-x+.5, y+.5, z+.5'
 12	'-x+.5, -y+.5, -z+.5'
 13	'x+.5, -y, z+.5'
 14	'x+.5, y, -z+.5'
 15	'x+.5, -y+.5, -z+.5'
 16	'x+.5, y+.5, z+.5'
loop_
_atom_type_symbol
_atom_type_oxidation_number
O2-	-2
Si4+	4
Zn2+	2
loop_
_atom_site_label
_atom_site_type_symbol
_atom_site_symmetry_multiplicity
_atom_site_Wyckoff_symbol
_atom_site_fract_x
_atom_site_fract_y
_atom_site_fract_z
_atom_site_occupancy
_atom_site_attached_hydrogens
Zn1 Zn2+ 4 a 0 0 0 1. 0 
Zn2 Zn2+ 4 e 0.5 0.75 0.4683 1. 0 
Zn3 Zn2+ 8 g 0.25 0.1254 0.25 1. 0 
Si1 Si4+ 8 h 0 0.1208 0.6164 1. 0 
O1 O2- 4 e 0 0.25 0.2125 1. 0 
O2 O2- 4 e 0 0.25 0.7130 1. 0 
O3 O2- 8 h 0 0.4873 0.7579 1. 0 
O4 O2- 16 j 0.2639 0.1229 0.9917 1. 0 

#End of data_167191-ICSD


