data_16229-ICSD
#?2014 by Fachinformationszentrum Karlsruhe, and the U.S. Secretary of 
#Commerce on behalf of the United States.  All rights reserved.
_database_code_ICSD                16229
_audit_creation_date               1980/01/01
_chemical_name_systematic
;
Pentalithium Aluminium Oxide - Beta
;
_chemical_formula_structural       'Li5 Al O4'
_chemical_formula_sum              'Al1 Li5 O4'
_publ_section_title
;
Zur Kristallstruktur von beta-Li5 Al O4
;
loop_
_citation_id
_citation_journal_abbrev
_citation_year
_citation_journal_volume
_citation_page_first
_citation_page_last
_citation_journal_id_ASTM
primary 'Zeitschrift fuer Anorganische und Allgemeine Chemie (1950) (DE)'
 1971 381 149 160 ZAACAB
_publ_author_name                  'Stewner, F.;Hoppe, R.'
_cell_length_a                     6.424(3)
_cell_length_b                     6.305(3)
_cell_length_c                     4.623(2)
_cell_angle_alpha                  90.
_cell_angle_beta                   90.
_cell_angle_gamma                  90.
_cell_volume                       187.25
_cell_formula_units_Z              2
_symmetry_space_group_name_H-M     'P m m n Z'
_symmetry_Int_Tables_number        59
_refine_ls_R_factor_all            .122
loop_
_symmetry_equiv_pos_site_id
_symmetry_equiv_pos_as_xyz
  1	'x+.5, y+.5, -z'
  2	'-x, y+.5, -z'
  3	'x+.5, -y, -z'
  4	'-x, -y, -z'
  5	'-x+.5, -y+.5, z'
  6	'x, -y+.5, z'
  7	'-x+.5, y, z'
  8	'x, y, z'
loop_
_atom_type_symbol
_atom_type_oxidation_number
Al3+	3
Li1+	1
O2-	-2
loop_
_atom_site_label
_atom_site_type_symbol
_atom_site_symmetry_multiplicity
_atom_site_Wyckoff_symbol
_atom_site_fract_x
_atom_site_fract_y
_atom_site_fract_z
_atom_site_occupancy
_atom_site_attached_hydrogens
_atom_site_B_iso_or_equiv
Al1 Al3+ 2 a 0.25 0.25 0.230(2) 1. 0 -.25 
O1 O2- 4 e 0.25 0.0165(2) 0 1. 0 0.7 
O2 O2- 4 f 0.0177(2) 0.25 0.416(2) 1. 0 0.7 
Li1 Li1+ 8 g 0.065(2) 0.026(2) 0.764(7) 1. 0 2. 
Li2 Li1+ 2 b 0.25 0.75 0.757(10) 1. 0 1. 

#End of data_16229-ICSD


