data_410777-ICSD
#?2014 by Fachinformationszentrum Karlsruhe, and the U.S. Secretary of 
#Commerce on behalf of the United States.  All rights reserved.
_database_code_ICSD                410777
_audit_creation_date               1999/11/30
_chemical_name_systematic
;
Potassium Decaoxotetrahydroxohexaborophosphate(V)
;
_chemical_formula_structural       'K (B6 P O10 (O H)4)'
_chemical_formula_sum              'H4 B6 K1 O14 P1'
_publ_section_title
;
K (B6 P O10 (O H)4): Ein Borophosphat mit gestreckten Baendern aus 
Tetraeder-Vierer-Ringen und offen-zyklischen Verzweigungen ueber 
planare B2 O3 (O H)2-Gruppen
;
loop_
_citation_id
_citation_journal_abbrev
_citation_year
_citation_journal_volume
_citation_page_first
_citation_page_last
_citation_journal_id_ASTM
primary 'Zeitschrift fuer Naturforschung, B: Chemical Sciences'
 1999 54 895 898 ZNBSEN
_publ_author_name                  'Boy, I.;Kniep, R.'
_cell_length_a                     12.0966(13)
_cell_length_b                     12.0966(12)
_cell_length_c                     7.5905(7)
_cell_angle_alpha                  90.
_cell_angle_beta                   90.
_cell_angle_gamma                  90.
_cell_volume                       1110.7
_cell_formula_units_Z              4
_symmetry_space_group_name_H-M     'P 4/n c c Z'
_symmetry_Int_Tables_number        130
_refine_ls_R_factor_all            .0394
loop_
_symmetry_equiv_pos_site_id
_symmetry_equiv_pos_as_xyz
  1	'y+.5, x+.5, -z+.5'
  2	'-y, x+.5, -z'
  3	'y+.5, -x, -z'
  4	'-y, -x, -z+.5'
  5	'x+.5, y+.5, -z'
  6	'-x, y+.5, -z+.5'
  7	'x+.5, -y, -z+.5'
  8	'-x, -y, -z'
  9	'-y+.5, -x+.5, z+.5'
 10	'y, -x+.5, z'
 11	'-y+.5, x, z'
 12	'y, x, z+.5'
 13	'-x+.5, -y+.5, z'
 14	'x, -y+.5, z+.5'
 15	'-x+.5, y, z+.5'
 16	'x, y, z'
loop_
_atom_type_symbol
_atom_type_oxidation_number
B3+	3
H1+	1
K1+	1
O2-	-2
P5+	5
loop_
_atom_site_label
_atom_site_type_symbol
_atom_site_symmetry_multiplicity
_atom_site_Wyckoff_symbol
_atom_site_fract_x
_atom_site_fract_y
_atom_site_fract_z
_atom_site_occupancy
_atom_site_attached_hydrogens
_atom_site_U_iso_or_equiv
K1 K1+ 4 c 0.25 0.25 -.11099(11) 1. 0 0 
B1 B3+ 16 g 0.05565(15) 0.07002(15) 0.1848(3) 1. 0 0 
B2 B3+ 8 f 0.63326(14) 0.36674(14) 0.25 1. 0 0 
P1 P5+ 4 b 0.75 0.25 0 1. 0 0 
O1 O2- 16 g 0.14979(9) 0.71728(9) 0.11066(14) 1. 0 0 
O2 O2- 16 g 0.15043(9) 0.52207(9) 0.18218(15) 1. 0 0 
O3 O2- 16 g 0.15862(10) 0.09503(11) 0.1231(2) 1. 0 0 
O4 O2- 8 f 0.46657(10) 0.53343(10) 0.25 1. 0 0 
H1 H1+ 16 g 0.201(2) 0.036(2) 0.134(4) 1. 0 0.049(8) 

loop_
_atom_site_aniso_label
_atom_site_aniso_type_symbol
_atom_site_aniso_U_11
_atom_site_aniso_U_22
_atom_site_aniso_U_33
_atom_site_aniso_U_12
_atom_site_aniso_U_13
_atom_site_aniso_U_23
K1 K1+ 0.0314(3) 0.0314(3) 0.0267(4) 0 0 0
B1 B3+ 0.0159(7) 0.0170(7) 0.0292(9) 0.0007(6) 0.0018(7) -.0003(7)
B2 B3+ 0.0145(6) 0.0145(6) 0.0191(10) 0.0018(8) -.0017(6) -.0017(6)
P1 P5+ 0.0131(2) 0.0131(2) 0.0157(4) 0 0 0
O1 O2- 0.0147(5) 0.0188(5) 0.0197(5) 0.0001(4) 0.0013(4) 0.0012(4)
O2 O2- 0.0151(5) 0.0144(5) 0.0272(6) -.0015(4) 0.0029(4) -.0046(4)
O3 O2- 0.0155(6) 0.0218(6) 0.0554(9) 0.0038(5) 0.0104(5) 0.0060(6)
O4 O2- 0.0175(5) 0.0175(5) 0.0623(13) 0.0035(6) -.0090(6) -.0090(6)
#End of data_410777-ICSD


