data_162952-ICSD
#?2014 by Fachinformationszentrum Karlsruhe, and the U.S. Secretary of 
#Commerce on behalf of the United States.  All rights reserved.
_database_code_ICSD                162952
_audit_creation_date               2009/08/01
_chemical_name_systematic          'Lithium Iron(III) Digermanate'
_chemical_formula_structural       'Li Fe (Ge2 O6)'
_chemical_formula_sum              'Fe1 Ge2 Li1 O6'
_chemical_name_mineral             Unnamed_Clinopyroxene
_publ_section_title
;
High-pressure phase transformation in Li Fe Ge2 O6 pyroxene
;
loop_
_citation_id
_citation_journal_abbrev
_citation_year
_citation_journal_volume
_citation_page_first
_citation_page_last
_citation_journal_id_ASTM
primary 'American Mineralogist' 2009 94 616 621 AMMIAY
_publ_author_name
;
Nestola, F.;Redhammer, G.J.;Pamato, M.G.;Secco, L.;dal Negro, A.
;
_cell_length_a                     9.893(1)
_cell_length_b                     8.836(6)
_cell_length_c                     5.379(5)
_cell_angle_alpha                  90.00
_cell_angle_beta                   108.83(5)
_cell_angle_gamma                  90.00
_cell_volume                       445.04
_cell_formula_units_Z              4
_symmetry_space_group_name_H-M     'P 1 21/c 1'
_symmetry_Int_Tables_number        14
_refine_ls_R_factor_all            .0716
loop_
_symmetry_equiv_pos_site_id
_symmetry_equiv_pos_as_xyz
  1	'x, -y+.5, z+.5'
  2	'-x, -y, -z'
  3	'-x, y+.5, -z+.5'
  4	'x, y, z'
loop_
_atom_type_symbol
_atom_type_oxidation_number
Fe3+	3
Ge4+	4
Li1+	1
O2-	-2
loop_
_atom_site_label
_atom_site_type_symbol
_atom_site_symmetry_multiplicity
_atom_site_Wyckoff_symbol
_atom_site_fract_x
_atom_site_fract_y
_atom_site_fract_z
_atom_site_occupancy
_atom_site_attached_hydrogens
_atom_site_U_iso_or_equiv
Ge1 Ge4+ 4 e 0.0453(2) 0.3420(3) 0.2797(4) 1 0 0.016(1) 
O1 O2- 4 e 0.8612(17) 0.3323(16) 0.1740(20) 1 0 0.016(3) 
O2 O2- 4 e 0.1082(18) 0.5178(17) 0.2850(20) 1 0 0.022(3) 
O3 O2- 4 e 0.1187(17) 0.2895(18) 0.6170(20) 1 0 0.019(3) 
Ge2 Ge4+ 4 e 0.5517(2) 0.8394(3) 0.2311(4) 1 0 0.015(1) 
O4 O2- 4 e 0.3611(17) 0.8285(15) 0.1000(20) 1 0 0.016(3) 
O5 O2- 4 e 0.6311(18) 0.0039(16) 0.3850(20) 1 0 0.023(3) 
O6 O2- 4 e 0.6131(18) 0.6924(17) 0.4620(30) 1 0 0.023(3) 
Fe1 Fe3+ 4 e 0.2510(3) 0.6500(4) 0.2153(5) 1. 0 0.016(1) 
Li1 Li1+ 4 e 0.2580(40) 0.0200(50) 0.2200(50) 1. 0 0.018(7) 

#End of data_162952-ICSD


