data_69681-ICSD
#?2014 by Fachinformationszentrum Karlsruhe, and the U.S. Secretary of 
#Commerce on behalf of the United States.  All rights reserved.
_database_code_ICSD                69681
_audit_creation_date               1994/01/19
_chemical_name_systematic          'Dirubidium Magnesium Fluoride'
_chemical_formula_structural       'Rb2 Mg F4'
_chemical_formula_sum              'F4 Mg1 Rb2'
_publ_section_title
;
Kristallstruktur-Verfeinerungen an Rubidiumtetrafluorometallaten(II): 
Rb2MF4 (M=Mg, Co, Ni)
;
loop_
_citation_id
_citation_journal_abbrev
_citation_year
_citation_journal_volume
_citation_page_first
_citation_page_last
_citation_journal_id_ASTM
primary 'Zeitschrift fuer Naturforschung, B: Chemical Sciences'
 1991 46 161 164 ZNBSEN
_publ_author_name                  'Welsch, M.;Babel, D.'
_cell_length_a                     4.055(3)
_cell_length_b                     4.055(3)
_cell_length_c                     13.79(1)
_cell_angle_alpha                  90.
_cell_angle_beta                   90.
_cell_angle_gamma                  90.
_cell_volume                       226.75
_cell_formula_units_Z              2
_symmetry_space_group_name_H-M     'I 4/m m m'
_symmetry_Int_Tables_number        139
_refine_ls_R_factor_all            .097
loop_
_symmetry_equiv_pos_site_id
_symmetry_equiv_pos_as_xyz
  1	'y, x, -z'
  2	'-y, -x, -z'
  3	'-y, x, -z'
  4	'y, -x, -z'
  5	'-x, y, -z'
  6	'x, -y, -z'
  7	'x, y, -z'
  8	'-x, -y, -z'
  9	'-y, -x, z'
 10	'y, x, z'
 11	'y, -x, z'
 12	'-y, x, z'
 13	'x, -y, z'
 14	'-x, y, z'
 15	'-x, -y, z'
 16	'x, y, z'
 17	'y+.5, x+.5, -z+.5'
 18	'-y+.5, -x+.5, -z+.5'
 19	'-y+.5, x+.5, -z+.5'
 20	'y+.5, -x+.5, -z+.5'
 21	'-x+.5, y+.5, -z+.5'
 22	'x+.5, -y+.5, -z+.5'
 23	'x+.5, y+.5, -z+.5'
 24	'-x+.5, -y+.5, -z+.5'
 25	'-y+.5, -x+.5, z+.5'
 26	'y+.5, x+.5, z+.5'
 27	'y+.5, -x+.5, z+.5'
 28	'-y+.5, x+.5, z+.5'
 29	'x+.5, -y+.5, z+.5'
 30	'-x+.5, y+.5, z+.5'
 31	'-x+.5, -y+.5, z+.5'
 32	'x+.5, y+.5, z+.5'
loop_
_atom_type_symbol
_atom_type_oxidation_number
F1-	-1
Mg2+	2
Rb1+	1
loop_
_atom_site_label
_atom_site_type_symbol
_atom_site_symmetry_multiplicity
_atom_site_Wyckoff_symbol
_atom_site_fract_x
_atom_site_fract_y
_atom_site_fract_z
_atom_site_occupancy
_atom_site_attached_hydrogens
Rb1 Rb1+ 4 e 0 0 0.3507(3) 1. 0 
Mg1 Mg2+ 2 a 0 0 0 1. 0 
F1 F1- 4 e 0 0 0.1445(17) 1. 0 
F2 F1- 4 c 0.5 0 0 1. 0 

loop_
_atom_site_aniso_label
_atom_site_aniso_type_symbol
_atom_site_aniso_U_11
_atom_site_aniso_U_22
_atom_site_aniso_U_33
_atom_site_aniso_U_12
_atom_site_aniso_U_13
_atom_site_aniso_U_23
Rb1 Rb1+ 0.0119(9) 0.0119(9) 0.041(2) 0 0 0
Mg1 Mg2+ 0.004(3) 0.004(3) 0.027(7) 0 0 0
F1 F1- 0.015(4) 0.015(4) 0.06(1) 0 0 0
F2 F1- 0.008(6) 0.014(7) 0.05(1) 0 0 0
#End of data_69681-ICSD


