data_380254-ICSD
#?2014 by Fachinformationszentrum Karlsruhe, and the U.S. Secretary of 
#Commerce on behalf of the United States.  All rights reserved.
_database_code_ICSD                380254
_audit_creation_date               2005/10/01
_audit_update_record               2007/04/01
_chemical_name_systematic          'Calcium Distrontium Molybdate'
_chemical_formula_structural       'Ca Sr2 (Mo O6)'
_chemical_formula_sum              'Ca1 Mo1 O6 Sr2'
_publ_section_title
;
Structural chemistry of the cation-ordered perovskites Sr2 Ca Mo1-x 
Tex O6 (0 <= x <= 1)
;
loop_
_citation_id
_citation_journal_abbrev
_citation_year
_citation_journal_volume
_citation_page_first
_citation_page_last
_citation_journal_id_ASTM
primary 'Journal of Solid State Chemistry' 2005 178 153 157 JSSCBI
_publ_author_name
;
Prior, T.J.;Couper, V.J.;Battle, P.D.
;
_cell_length_a                     5.76228(7)
_cell_length_b                     5.84790(7)
_cell_length_c                     8.18707(9)
_cell_angle_alpha                  90.0
_cell_angle_beta                   90.1941(6)
_cell_angle_gamma                  90.0
_cell_volume                       275.88
_cell_formula_units_Z              2
_symmetry_space_group_name_H-M     'P 1 21/n 1'
_symmetry_Int_Tables_number        14
loop_
_symmetry_equiv_pos_site_id
_symmetry_equiv_pos_as_xyz
  1	'-x+.5, y+.5, -z+.5'
  2	'-x, -y, -z'
  3	'x+.5, -y+.5, z+.5'
  4	'x, y, z'
loop_
_atom_type_symbol
_atom_type_oxidation_number
Ca2+	2
Mo6+	6
O2-	-2
Sr2+	2
loop_
_atom_site_label
_atom_site_type_symbol
_atom_site_symmetry_multiplicity
_atom_site_Wyckoff_symbol
_atom_site_fract_x
_atom_site_fract_y
_atom_site_fract_z
_atom_site_occupancy
_atom_site_attached_hydrogens
_atom_site_U_iso_or_equiv
Sr1 Sr2+ 4 e 0.50801(22) 0.53827(14) 0.25000(20) 1.0 0 0.01226(23) 
Ca1 Ca2+ 2 c 1.0 0.5 0.0 1.0 0 0.0096(5) 
Mo1 Mo6+ 2 d 0.5 0.0 0.0 1.0 0 0.00545(31) 
O1 O2- 4 e 0.23286(23) 0.18868(22) 0.96181(19) 1.0 0 0.01314(33) 
O2 O2- 4 e 0.31567(23) 0.73071(21) 0.95576(17) 1.0 0 0.01215(31) 
O3 O2- 4 e 0.42321(20) 0.97639(20) 0.22685(16) 1.0 0 0.01184(30) 

#End of data_380254-ICSD


