data_191528-ICSD
#?2014 by Fachinformationszentrum Karlsruhe, and the U.S. Secretary of 
#Commerce on behalf of the United States.  All rights reserved.
_database_code_ICSD                191528
_audit_creation_date               2014/08/01
_chemical_name_systematic
;
Heptalithium Trilanthanum Dizirconium Dodecaoxide
;
_chemical_formula_structural       'Li7 La3 Zr2 O12'
_chemical_formula_sum              'La3 Li7 O12 Zr2'
_publ_section_title
;
Insight into lithium distribution in lithium-stuffed garnet oxides 
through neutron diffraction and atomistic simulation: Li7-x La3 Zr2-x 
Tax O12 (x = 0-2) series
;
loop_
_citation_id
_citation_journal_abbrev
_citation_year
_citation_journal_volume
_citation_page_first
_citation_page_last
_citation_journal_id_ASTM
primary 'Solid State Ionics' 2014 255 39 49 SSIOD3
_publ_author_name                  'Wang, Yuxing;Huq, Ashfia;Lai, Wei'
_cell_length_a                     13.1065(1)
_cell_length_b                     13.1065(1)
_cell_length_c                     12.6143(1)
_cell_angle_alpha                  90.
_cell_angle_beta                   90.
_cell_angle_gamma                  90.
_cell_volume                       2166.89
_cell_formula_units_Z              8
_symmetry_space_group_name_H-M     'I 41/a c d Z'
_symmetry_Int_Tables_number        142
_refine_ls_R_factor_all            .0421
loop_
_symmetry_equiv_pos_site_id
_symmetry_equiv_pos_as_xyz
  1	'y+.25, x+.75, -z+.75'
  2	'-y+.75, x+.75, -z+.25'
  3	'x, y+.5, -z'
  4	'-x, y+.5, -z+.5'
  5	'-y+.75, -x+.25, z+.25'
  6	'y+.25, -x+.25, z+.75'
  7	'-x, -y+.5, z'
  8	'x, -y+.5, z+.5'
  9	'y+.25, -x+.75, -z+.25'
 10	'-y+.75, -x+.75, -z+.75'
 11	'x, -y, -z+.5'
 12	'-x, -y, -z'
 13	'-y+.75, x+.25, z+.75'
 14	'y+.25, x+.25, z+.25'
 15	'-x, y, z+.5'
 16	'x, y, z'
 17	'y+.75, x+.25, -z+.25'
 18	'-y+.25, x+.25, -z+.75'
 19	'x+.5, y, -z+.5'
 20	'-x+.5, y, -z'
 21	'-y+.25, -x+.75, z+.75'
 22	'y+.75, -x+.75, z+.25'
 23	'-x+.5, -y, z+.5'
 24	'x+.5, -y, z'
 25	'y+.75, -x+.25, -z+.75'
 26	'-y+.25, -x+.25, -z+.25'
 27	'x+.5, -y+.5, -z'
 28	'-x+.5, -y+.5, -z+.5'
 29	'-y+.25, x+.75, z+.25'
 30	'y+.75, x+.75, z+.75'
 31	'-x+.5, y+.5, z'
 32	'x+.5, y+.5, z+.5'
loop_
_atom_type_symbol
_atom_type_oxidation_number
La3+	3
Li1+	1
O2-	-2
Zr4+	4
loop_
_atom_site_label
_atom_site_type_symbol
_atom_site_symmetry_multiplicity
_atom_site_Wyckoff_symbol
_atom_site_fract_x
_atom_site_fract_y
_atom_site_fract_z
_atom_site_occupancy
_atom_site_attached_hydrogens
_atom_site_U_iso_or_equiv
La1 La3+ 8 b 0 0.250 0.125 1. 0 0.00024(16) 
La2 La3+ 16 e 0.1274(8) 0 0.250 1. 0 0.00076(13) 
Zr1 Zr4+ 16 c 0 0 0 1. 0 0.00099(13) 
Li1 Li1+ 8 a 0 0.250 0.375 1. 0 0.0042(9) 
Li2 Li1+ 16 f 0.1798(3) 0.4298(3) 0.125 1. 0 0.0111(10) 
Li3 Li1+ 32 g 0.0813(3) 0.0871(3) 0.8057(3) 1. 0 0.0080(6) 
O1 O2- 32 g 0.9655(1) 0.0555(1) 0.1529(1) 1. 0 0.00276(16) 
O2 O2- 32 g 0.0544(1) 0.8527(1) 0.5343(1) 1. 0 0.00283(16) 
O3 O2- 32 g 0.1499(1) 0.0280(1) 0.4471(1) 1. 0 0.00232(16) 

#End of data_191528-ICSD


