data_415259-ICSD
#?2014 by Fachinformationszentrum Karlsruhe, and the U.S. Secretary of 
#Commerce on behalf of the United States.  All rights reserved.
_database_code_ICSD                415259
_audit_creation_date               2006/10/01
_chemical_name_systematic
;
Sodium Barium Tri-mu-imidocyclotriphosphate
;
_chemical_formula_structural       'Na Ba (P O2 N H)3'
_chemical_formula_sum              'H3 Ba1 N3 Na1 O6 P3'
_publ_section_title
;
Synthesis, crystal structures and properties of the 
trimetaphosphimates Na Ba (P O2 N H)3, K Sr (P O2 N H)3 4(H2 O) and N 
H4 Sr (P O2 N H)3 4(H2 O)
;
loop_
_citation_id
_citation_journal_abbrev
_citation_year
_citation_journal_volume
_citation_page_first
_citation_page_last
_citation_journal_id_ASTM
primary 'Solid State Sciences' 2005 7 1261 1271 SSSCFJ
_publ_author_name
;
Correll, S.;Sedlmaier, S.;Schnick, W.
;
_cell_length_a                     10.845(2)
_cell_length_b                     10.250(2)
_cell_length_c                     7.9624(16)
_cell_angle_alpha                  90.00
_cell_angle_beta                   115.18(3)
_cell_angle_gamma                  90.00
_cell_volume                       801
_cell_formula_units_Z              4
_symmetry_space_group_name_H-M     'C 1 2/m 1'
_symmetry_Int_Tables_number        12
_refine_ls_R_factor_all            .0251
loop_
_symmetry_equiv_pos_site_id
_symmetry_equiv_pos_as_xyz
  1	'-x, y, -z'
  2	'-x, -y, -z'
  3	'x, -y, z'
  4	'x, y, z'
  5	'-x+.5, y+.5, -z'
  6	'-x+.5, -y+.5, -z'
  7	'x+.5, -y+.5, z'
  8	'x+.5, y+.5, z'
loop_
_atom_type_symbol
_atom_type_oxidation_number
Ba2+	2
H1+	1
N3-	-3
Na1+	1
O2-	-2
P5+	5
loop_
_atom_site_label
_atom_site_type_symbol
_atom_site_symmetry_multiplicity
_atom_site_Wyckoff_symbol
_atom_site_fract_x
_atom_site_fract_y
_atom_site_fract_z
_atom_site_occupancy
_atom_site_attached_hydrogens
_atom_site_U_iso_or_equiv
Ba1 Ba2+ 4 i 0.42981(2) 0.0000 0.69386(3) 1 0 0.01380(11) 
Na1 Na1+ 4 h 0.5000 -0.3242(2) 0.5000 1 0 0.0318(5) 
P1 P5+ 4 i 0.20233(12) 0.0000 0.91816(15) 1 0 0.0154(2) 
P2 P5+ 8 j 0.20883(8) 0.14291(8) 0.24357(11) 1 0 0.01578(17) 
N1 N3- 8 j 0.1611(3) 0.1281(3) 1.0136(4) 1 0 0.0187(5) 
H1 H1+ 8 j 0.1072 0.1869 0.9426 1 0 0.022 
N2 N3- 4 i 0.1660(4) 0.0000 0.3090(5) 1 0 0.0173(7) 
H2 H1+ 4 i 0.0800 0.0000 0.3007 1 0 0.021 
O1 O2- 4 i 0.1151(4) 0.0000 0.7141(4) 1 0 0.0210(7) 
O2 O2- 4 i 0.3533(3) 0.0000 0.9767(5) 1 0 0.0229(7) 
O3 O2- 8 j 0.3618(2) 0.1499(2) 0.3416(3) 1 0 0.0210(5) 
O4 O2- 8 j 0.1241(3) 0.2456(3) 0.2739(3) 1 0 0.0253(5) 

loop_
_atom_site_aniso_label
_atom_site_aniso_type_symbol
_atom_site_aniso_U_11
_atom_site_aniso_U_22
_atom_site_aniso_U_33
_atom_site_aniso_U_12
_atom_site_aniso_U_13
_atom_site_aniso_U_23
Ba1 Ba2+ 0.01592(15) 0.01452(15) 0.01203(14) 0.000 0.00697(10) 0.000
Na1 Na1+ 0.0298(11) 0.0266(11) 0.0281(10) 0.000 0.0018(9) 0.000
P1 P5+ 0.0146(5) 0.0217(5) 0.0104(4) 0.000 0.0058(4) 0.000
P2 P5+ 0.0163(4) 0.0163(4) 0.0145(3) 0.0010(3) 0.0063(3) -0.0018(3)
N1 N3- 0.0192(13) 0.0213(13) 0.0137(11) 0.0038(10) 0.0050(10) 0.0027(9)
N2 N3- 0.0174(18) 0.0185(18) 0.0189(17) 0.000 0.0104(15) 0.000
O1 O2- 0.0261(18) 0.0221(16) 0.0129(14) 0.000 0.0065(13) 0.000
O2 O2- 0.0159(16) 0.038(2) 0.0159(14) 0.000 0.0081(12) 0.000
O3 O2- 0.0185(11) 0.0228(12) 0.0198(10) -0.0014(9) 0.0064(9) -0.0034(9)
O4 O2- 0.0306(14) 0.0210(12) 0.0265(11) 0.0082(10) 0.0143(11) -0.0022(9)
#End of data_415259-ICSD


