data_170317-ICSD
#?2014 by Fachinformationszentrum Karlsruhe, and the U.S. Secretary of 
#Commerce on behalf of the United States.  All rights reserved.
_database_code_ICSD                170317
_audit_creation_date               2006/04/01
_chemical_name_systematic          'Potassium Silver Tin Sulfide'
_chemical_formula_structural       'K2 Ag6 Sn3 S10'
_chemical_formula_sum              'Ag6 K2 S10 Sn3'
_publ_section_title
;
K2 Ag6 Sn3 S10: a quaternary sulfide composed of silver sulfide 
layers pillared by zigzag chains [Sn S3](2-)
;
loop_
_citation_id
_citation_journal_abbrev
_citation_year
_citation_journal_volume
_citation_journal_issue
_citation_page_first
_citation_page_last
_citation_journal_id_ASTM
primary 'Inorganic Chemistry' 2004 43 13 3764 3765 INOCAJ
_publ_author_name
;
Baiyin, M.;An, Y.;Liu, X.;Ji, M.;Jia, C.;Ning, G.
;
_cell_length_a                     24.0201(16)
_cell_length_b                     6.4017(3)
_cell_length_c                     13.3056(4)
_cell_angle_alpha                  90.00
_cell_angle_beta                   90.00
_cell_angle_gamma                  90.00
_cell_volume                       2046
_cell_formula_units_Z              4
_symmetry_space_group_name_H-M     'P b c n'
_symmetry_Int_Tables_number        60
_refine_ls_R_factor_all            .0414
loop_
_symmetry_equiv_pos_site_id
_symmetry_equiv_pos_as_xyz
  1	'x, -y, z+.5'
  2	'-x+.5, y+.5, z'
  3	'x+.5, y+.5, -z+.5'
  4	'-x, -y, -z'
  5	'-x, y, -z+.5'
  6	'x+.5, -y+.5, -z'
  7	'-x+.5, -y+.5, z+.5'
  8	'x, y, z'
loop_
_atom_type_symbol
_atom_type_oxidation_number
Ag1+	1
K1+	1
S2-	-2
Sn4+	4
loop_
_atom_site_label
_atom_site_type_symbol
_atom_site_symmetry_multiplicity
_atom_site_Wyckoff_symbol
_atom_site_fract_x
_atom_site_fract_y
_atom_site_fract_z
_atom_site_occupancy
_atom_site_attached_hydrogens
_atom_site_U_iso_or_equiv
Sn1 Sn4+ 8 d 0.29926(2) 0.04815(13) 0.05830(5) 1 0 0.0129(3) 
Sn2 Sn4+ 4 c 0.5000 0.52663(18) 0.2500 1 0 0.0136(3) 
Ag1 Ag1+ 8 d 0.40130(3) 0.95312(17) -0.20715(6) 1 0 0.0333(3) 
Ag2 Ag1+ 8 d 0.46116(4) 0.92854(17) -0.41237(7) 1 0 0.0397(4) 
Ag3 Ag1+ 8 d 0.40431(5) 0.51443(18) 0.02761(8) 1 0 0.0502(4) 
K1 K1+ 8 d 0.32101(9) 0.4255(4) -0.21134(18) 1 0 0.0287(7) 
S1 S2- 8 d 0.30322(10) 0.0919(5) 0.23129(17) 1 0 0.0203(8) 
S2 S2- 8 d 0.21170(9) 0.1927(5) -0.00409(19) 1 0 0.0206(8) 
S3 S2- 8 d 0.45995(9) 0.3092(5) 0.37805(17) 1 0 0.0190(7) 
S4 S2- 8 d 0.37919(9) 0.1618(5) -0.03177(17) 1 0 0.0181(7) 
S5 S2- 8 d 0.57005(9) 0.7355(5) 0.32694(17) 1 0 0.0183(7) 

loop_
_atom_site_aniso_label
_atom_site_aniso_type_symbol
_atom_site_aniso_U_11
_atom_site_aniso_U_22
_atom_site_aniso_U_33
_atom_site_aniso_U_12
_atom_site_aniso_U_13
_atom_site_aniso_U_23
Sn1 Sn4+ 0.0141(3) 0.0110(7) 0.0135(3) 0.0000(3) 0.0000(2) -0.0008(3)
Sn2 Sn4+ 0.0134(4) 0.0126(9) 0.0150(4) 0.000 -0.0003(3) 0.000
Ag1 Ag1+ 0.0335(5) 0.0367(9) 0.0297(5) 0.0088(5) -0.0037(4) 0.0039(5)
Ag2 Ag1+ 0.0363(5) 0.0404(10) 0.0423(5) 0.0094(5) 0.0080(4) 0.0080(5)
Ag3 Ag1+ 0.0833(8) 0.0317(9) 0.0356(5) -0.0211(7) -0.0087(5) -0.0095(6)
K1 K1+ 0.0272(11) 0.025(2) 0.0342(13) 0.0091(12) -0.0029(10) -0.0002(13)
S1 S2- 0.0201(11) 0.026(2) 0.0143(11) 0.0010(12) -0.0006(9) -0.0040(13)
S2 S2- 0.0178(11) 0.015(2) 0.0292(12) 0.0022(12) -0.0098(10) -0.0071(14)
S3 S2- 0.0204(11) 0.018(2) 0.0185(11) -0.0051(12) 0.0035(9) 0.0025(13)
S4 S2- 0.0194(12) 0.018(2) 0.0173(11) -0.0034(12) 0.0047(9) -0.0017(13)
S5 S2- 0.0194(11) 0.016(2) 0.0199(11) -0.0044(13) -0.0053(9) 0.0037(13)
#End of data_170317-ICSD


