data_92984-ICSD
#?2014 by Fachinformationszentrum Karlsruhe, and the U.S. Secretary of 
#Commerce on behalf of the United States.  All rights reserved.
_database_code_ICSD                92984
_audit_creation_date               2003/04/01
_chemical_name_systematic
;
Magnesium Divanadate(V) Heptahydrate
;
_chemical_formula_structural       'Mg (V2 O6) (H2 O)7'
_chemical_formula_sum              'H14 Mg1 O13 V2'
_chemical_name_mineral             Dickthomssenite
_publ_section_title
;
Dickthomssenite, Mg (V2 O6) * 7(H2 O), a new mineral species from the 
Firefly - Pigmay mine, Utah: descriptive mineralogy and arrangement 
of atoms
;
loop_
_citation_id
_citation_journal_abbrev
_citation_year
_citation_journal_volume
_citation_page_first
_citation_page_last
_citation_journal_id_ASTM
primary 'Canadian Mineralogist' 2001 39 1691 1700 CAMIA6
_publ_author_name
;
Hughes, J.M.;Cureton, F.E.;Marty, J.;Gault, R.A.;Gunter, 
M.E.;Campana, C.F.;Rakovan, J.;Sommer, A.;Brueseke, M.E.
;
_cell_length_a                     38.954(2)
_cell_length_b                     7.2010(4)
_cell_length_c                     16.3465(9)
_cell_angle_alpha                  90
_cell_angle_beta                   97.602(1)
_cell_angle_gamma                  90
_cell_volume                       4545.02
_cell_formula_units_Z              16
_symmetry_space_group_name_H-M     'C 1 2/c 1'
_symmetry_Int_Tables_number        15
_refine_ls_R_factor_all            .064
loop_
_symmetry_equiv_pos_site_id
_symmetry_equiv_pos_as_xyz
  1	'x, -y, z+.5'
  2	'-x, -y, -z'
  3	'-x, y, -z+.5'
  4	'x, y, z'
  5	'x+.5, -y+.5, z+.5'
  6	'-x+.5, -y+.5, -z'
  7	'-x+.5, y+.5, -z+.5'
  8	'x+.5, y+.5, z'
loop_
_atom_type_symbol
_atom_type_oxidation_number
H1+	1
Mg2+	2
O2-	-2
V5+	5
loop_
_atom_site_label
_atom_site_type_symbol
_atom_site_symmetry_multiplicity
_atom_site_Wyckoff_symbol
_atom_site_fract_x
_atom_site_fract_y
_atom_site_fract_z
_atom_site_occupancy
_atom_site_attached_hydrogens
_atom_site_U_iso_or_equiv
V1 V5+ 8 f 0.1506(1) 0.1163(2) 0.2101(1) 1. 0 0.008(1) 
V2 V5+ 8 f 0.0991(1) 0.3673(2) 0.2912(1) 1. 0 0.009(1) 
V3 V5+ 8 f 0.1518(1) 0.6170(2) 0.2117(1) 1. 0 0.009(1) 
V4 V5+ 8 f 0.0987(1) 0.8661(2) 0.2904(1) 1. 0 0.009(1) 
Mg1 Mg2+ 8 f 0.1255(1) 0.6238(3) 0.0018(1) 1. 0 0.019(1) 
Mg2 Mg2+ 4 b 0 0.5 0 1. 0 0.021(1) 
Mg3 Mg2+ 4 d 0.750 0.750 0.5 1. 0 0.022(1) 
O1 O2- 8 f 0.1132(1) 0.1176(8) 0.2833(2) 1. 0 0.020(1) 
O2 O2- 8 f 0.1364(1) 0.3688(8) 0.2184(2) 1. 0 0.019(1) 
O3 O2- 8 f 0.1157(1) 0.6180(8) 0.2906(2) 1. 0 0.016(1) 
O4 O2- 8 f 0.1346(1) 0.8663(8) 0.2117(2) 1. 0 0.016(1) 
O5 O2- 8 f 0.1895(1) 0.1120(9) 0.2605(2) 1. 0 0.023(1) 
O6 O2- 8 f 0.1547(1) 0.1253(8) 0.1095(2) 1. 0 0.018(1) 
O7 O2- 8 f 0.0607(1) 0.3744(9) 0.2388(2) 1. 0 0.022(1) 
O8 O2- 8 f 0.0930(1) 0.6350(8) 0.8914(2) 1. 0 0.015(1) 
O9 O2- 8 f 0.1896(1) 0.6249(10) 0.2653(2) 1. 0 0.023(1) 
O10 O2- 8 f 0.1581(1) 0.6154(8) 0.1119(2) 1. 0 0.015(1) 
O11 O2- 8 f 0.0604(1) 0.8582(9) 0.2377(2) 1. 0 0.024(1) 
O12 O2- 8 f 0.0937(1) 0.8754(9) 0.3903(2) 1. 0 0.022(1) 
O13 O2- 8 f 0.1435(1) 0.8942(5) -0.0206(2) 1.000 0 0.026(1) 
H1 H1+ 8 f 0.1250 0.9576 -0.0237 1. 0 0.031 
H2 H1+ 8 f 0.1553 0.9412 0.0218 1. 0 0.031 
O14 O2- 8 f 0.0900(1) 0.7474(6) 0.0675(2) 1.000 0 0.036(1) 
H3 H1+ 8 f 0.0964 0.7313 0.1188 1. 0 0.044 
H4 H1+ 8 f 0.0847 0.8543 0.0477 1. 0 0.044 
O15 O2- 8 f 0.1062(1) 0.3563(5) 0.0191(2) 1.000 0 0.025(1) 
H5 H1+ 8 f 0.1113 0.2898 -0.0205 1. 0 0.029 
H6 H1+ 8 f 0.0954 0.2869 0.0492 1. 0 0.029 
O16 O2- 8 f 0.1607(1) 0.4948(6) -0.0646(2) 1.000 0 0.038(1) 
H7 H1+ 8 f 0.1621 0.5505 0.8902 1. 0 0.045 
H8 H1+ 8 f 0.1807 0.4920 -0.0367 1. 0 0.045 
O17 O2- 8 f -0.0264(1) 0.5035(7) 0.0997(2) 1.000 0 0.025(1) 
H9 H1+ 8 f -0.0332 0.6136 0.1072 1. 0 0.030 
H10 H1+ 8 f -0.0131 0.4663 0.1420 1. 0 0.030 
O18 O2- 8 f 0.0416(1) 0.3922(6) 0.0715(2) 1.000 0 0.040(1) 
H11 H1+ 8 f 0.0352 0.2958 0.0953 1. 0 0.048 
H12 H1+ 8 f 0.0572 0.3634 0.0421 1. 0 0.048 
O19 O2- 8 f -0.0188(1) 0.2306(5) -0.0267(2) 1.000 0 0.030(1) 
H13 H1+ 8 f -0.0056 0.1600 0.0052 1. 0 0.036 
H14 H1+ 8 f -0.0332 0.1581 -0.0542 1. 0 0.036 
O20 O2- 8 f 0.7762(1) 0.7523(7) 0.4015(2) 1.000 0 0.028(1) 
H15 H1+ 8 f 0.7723 0.6677 0.3652 1. 0 0.034 
H16 H1+ 8 f 0.7803 0.8633 0.3878 1. 0 0.034 
O21 O2- 8 f 0.7918(1) 0.8566(6) 0.5734(2) 1.000 0 0.039(1) 
H17 H1+ 8 f 0.7966 0.9656 0.5586 1. 0 0.046 
H18 H1+ 8 f 0.8097 0.7911 0.5697 1. 0 0.046 
O22 O2- 8 f 0.7680(1) 0.4802(5) 0.5271(2) 1.000 0 0.030(1) 
H19 H1+ 8 f 0.7561 0.4064 0.4941 1. 0 0.036 
H20 H1+ 8 f 0.7829 0.4102 0.5546 1. 0 0.036 
O23 O2- 8 f 0.7503(1) 0.4161(9) 0.2475(2) 1.000 0 0.024(2) 
H21 H1+ 8 f 0.7684 0.4801 0.2440 1. 0 0.029 
H22 H1+ 8 f 0.7425 0.3657 0.2018 1. 0 0.029 
O24 O2- 8 f 0.7748(1) 0.2516(7) 0.3974(2) 1.000 0 0.030(1) 
H23 H1+ 8 f 0.7614 0.1811 0.4204 1. 0 0.036 
H24 H1+ 8 f 0.7956 0.2169 0.3965 1. 0 0.036 
O25 O2- 8 f 0.9755(1) 0.0019(7) 0.6015(2) 1.000 0 0.028(1) 
H25 H1+ 8 f 0.9547 0.0393 0.6005 1. 0 0.034 
H26 H1+ 8 f 0.9887 0.0726 0.5782 1. 0 0.034 
O26 O2- 4 e 0 0.3382(10) 0.750 1.000 0 0.026(2) 
H27 H1+ 8 f 0.9814 0.3070 0.7682 1. 0 0.031 
O27 O2- 4 e 0 0.8307(10) 0.750 1.000 0 0.030(2) 
H28 H1+ 8 f 0.9926 0.8833 0.7045 1. 0 0.036 

#End of data_92984-ICSD


