data_22022-ICSD
#?2014 by Fachinformationszentrum Karlsruhe, and the U.S. Secretary of 
#Commerce on behalf of the United States.  All rights reserved.
_database_code_ICSD                22022
_audit_creation_date               1980/01/01
_audit_update_record               1999/06/02
_chemical_name_systematic          'Calcium Tecto-dialumodisilicate'
_chemical_formula_structural       'Ca Al2 (Si O4)2'
_chemical_formula_sum              'Al2 Ca1 O8 Si2'
_chemical_name_mineral             Anorthite
_publ_section_title
;
The anorthite crystal structure at 410 and 830 degrees C
;
loop_
_citation_id
_citation_journal_abbrev
_citation_year
_citation_journal_volume
_citation_page_first
_citation_page_last
_citation_journal_id_ASTM
primary 'American Mineralogist' 1973 58 665 675 AMMIAY
_publ_author_name                  'Foit, F.F.jr.;Peacor, D.R.'
_cell_length_a                     8.194(8)
_cell_length_b                     12.897(8)
_cell_length_c                     14.190(7)
_cell_angle_alpha                  92.98(5)
_cell_angle_beta                   115.82(5)
_cell_angle_gamma                  91.15(5)
_cell_volume                       1346.52
_cell_formula_units_Z              8
_symmetry_space_group_name_H-M     'P -1'
_symmetry_Int_Tables_number        2
_refine_ls_R_factor_all            .076
loop_
_symmetry_equiv_pos_site_id
_symmetry_equiv_pos_as_xyz
  1	'-x, -y, -z'
  2	'x, y, z'
loop_
_atom_type_symbol
_atom_type_oxidation_number
Al3+	3
Ca2+	2
O2-	-2
Si4+	4
loop_
_atom_site_label
_atom_site_type_symbol
_atom_site_symmetry_multiplicity
_atom_site_Wyckoff_symbol
_atom_site_fract_x
_atom_site_fract_y
_atom_site_fract_z
_atom_site_occupancy
_atom_site_attached_hydrogens
_atom_site_B_iso_or_equiv
Ca1 Ca2+ 2 i 0.2672(10) 0.9878(5) 0.0822(5) 1. 0 3.8(1) 
Ca2 Ca2+ 2 i 0.2740(7) 0.0333(3) 0.5452(3) 1. 0 1.65(7) 
Ca3 Ca2+ 2 i 0.7736(6) 0.5326(3) 0.5465(3) 1. 0 1.27(6) 
Ca4 Ca2+ 2 i 0.7623(8) 0.5099(4) 0.0656(4) 1. 0 2.21(7) 
Si1 Si4+ 2 i 0.0132(16) 0.1548(6) 0.1069(8) 1. 0 1.0(1) 
Si2 Si4+ 2 i 0.5009(7) 0.6644(7) 0.6026(8) 1. 0 1.2(1) 
Si3 Si4+ 2 i 0.9998(6) 0.8116(5) 0.6136(8) 1. 0 0.9(1) 
Si4 Si4+ 2 i 0.5066(17) 0.3238(5) 0.1129(8) 1. 0 1.1(1) 
Si5 Si4+ 2 i 0.6723(20) 0.1059(9) 0.6625(8) 1. 0 1.4(1) 
Si6 Si4+ 2 i 0.1834(19) 0.6063(8) 0.1545(7) 1. 0 0.7(1) 
Si7 Si4+ 2 i 0.6742(18) 0.8806(7) 0.1864(6) 1. 0 1.2(1) 
Si8 Si4+ 2 i 0.1805(17) 0.3822(7) 0.6753(6) 1. 0 0.9(1) 
Al1 Al3+ 2 i 0.0059(19) 0.1587(6) 0.6111(9) 1. 0 1.1(1) 
Al2 Al3+ 2 i 0.4994(18) 0.6704(6) 0.1126(8) 1. 0 0.8(1) 
Al3 Al3+ 2 i 0.9897(16) 0.8110(8) 0.1192(9) 1. 0 1.1(1) 
Al4 Al3+ 2 i 0.5115(16) 0.3187(7) 0.6204(8) 1. 0 0.8(1) 
Al5 Al3+ 2 i 0.6896(28) 0.1146(13) 0.1565(9) 1. 0 1.6(2) 
Al6 Al3+ 2 i 0.1899(26) 0.6126(12) 0.6645(9) 1. 0 0.9(2) 
Al7 Al3+ 2 i 0.6835(20) 0.8711(7) 0.6727(8) 1. 0 1.1(1) 
Al8 Al3+ 2 i 0.1866(18) 0.3799(7) 0.1813(7) 1. 0 0.8(1) 
O1 O2- 2 i 0.0156(39) 0.1335(13) 0.9943(19) 1. 0 1.7(3) 
O2 O2- 2 i 0.9785(22) 0.1295(13) 0.4869(13) 1. 0 1.2(3) 
O3 O2- 2 i 0.4988(39) 0.6191(14) 0.4870(19) 1. 0 1.5(3) 
O4 O2- 2 i 0.5199(25) 0.6262(15) 0.9947(15) 1. 0 1.5(3) 
O5 O2- 2 i 0.5826(20) 0.9939(9) 0.1516(9) 1. 0 1.3(2) 
O6 O2- 2 i 0.5730(23) 0.9931(10) 0.6473(10) 1. 0 1.7(3) 
O7 O2- 2 i 0.0783(18) 0.4874(8) 0.6308(8) 1. 0 0.7(2) 
O8 O2- 2 i 0.0793(17) 0.4905(8) 0.1313(8) 1. 0 0.7(2) 
O9 O2- 2 i 0.8103(32) 0.1086(14) 0.0865(14) 1. 0 1.9(3) 
O10 O2- 2 i 0.8117(25) 0.1013(13) 0.6035(10) 1. 0 1.4(2) 
O11 O2- 2 i 0.3343(31) 0.5947(14) 0.5985(15) 1. 0 1.3(2) 
O12 O2- 2 i 0.2825(30) 0.6068(16) 0.0819(12) 1. 0 1.6(3) 
O13 O2- 2 i 0.8226(36) 0.8585(19) 0.1374(14) 1. 0 2.6(3) 
O14 O2- 2 i 0.8129(31) 0.8546(16) 0.6066(11) 1. 0 1.6(3) 
O15 O2- 2 i 0.2960(31) 0.3546(16) 0.6161(12) 1. 0 2.1(3) 
O16 O2- 2 i 0.3403(37) 0.3592(20) 0.1262(15) 1. 0 3.2(4) 
O17 O2- 2 i 0.0283(26) 0.2754(13) 0.1491(11) 1. 0 1.7(2) 
O18 O2- 2 i 0.0384(24) 0.2922(13) 0.6471(13) 1. 0 1.6(2) 
O19 O2- 2 i 0.4994(23) 0.7846(11) 0.6253(9) 1. 0 1.1(2) 
O20 O2- 2 i 0.5002(24) 0.7974(12) 0.1511(13) 1. 0 1.3(2) 
O21 O2- 2 i 0.9987(33) 0.6808(15) 0.1152(14) 1. 0 1.3(2) 
O22 O2- 2 i 0.0042(40) 0.6888(17) 0.6098(15) 1. 0 1.8(3) 
O23 O2- 2 i 0.5193(34) 0.1812(15) 0.6023(14) 1. 0 1.6(3) 
O24 O2- 2 i 0.5114(39) 0.1926(17) 0.0946(15) 1. 0 1.5(3) 
O25 O2- 2 i 0.1821(41) 0.1131(17) 0.1941(18) 1. 0 2.6(3) 
O26 O2- 2 i 0.2126(31) 0.1087(13) 0.6879(14) 1. 0 1.3(2) 
O27 O2- 2 i 0.6984(32) 0.6029(13) 0.6822(13) 1. 0 1.1(2) 
O28 O2- 2 i 0.6885(31) 0.6001(14) 0.1973(14) 1. 0 1.7(3) 
O29 O2- 2 i 0.2043(29) 0.8773(12) 0.2136(13) 1. 0 1.7(2) 
O30 O2- 2 i 0.1657(33) 0.8592(15) 0.7160(16) 1. 0 2.8(3) 
O31 O2- 2 i 0.6857(30) 0.3597(12) 0.7251(13) 1. 0 2.1(3) 
O32 O2- 2 i 0.7024(25) 0.3629(11) 0.2041(12) 1. 0 1.3(2) 

#End of data_22022-ICSD


