data_152596-ICSD
#?2014 by Fachinformationszentrum Karlsruhe, and the U.S. Secretary of 
#Commerce on behalf of the United States.  All rights reserved.
_database_code_ICSD                152596
_audit_creation_date               2006/10/01
_chemical_name_systematic
;
Trizinc Tetrairon(III) Hexakis(vanadate)
;
_chemical_formula_structural       'Zn3 Fe4 (V O4)6'
_chemical_formula_sum              'Fe4 O24 V6 Zn3'
_publ_section_title
;
Neutron diffraction study of Zn3 Fe4 (V O4)6
;
loop_
_citation_id
_citation_journal_abbrev
_citation_year
_citation_journal_volume
_citation_page_first
_citation_page_last
_citation_journal_id_ASTM
primary 'Journal of Alloys and Compounds' 2005 391 20 25 JALCEU
_publ_author_name
;
Guskos, N.;Bezkrovnyi, A.;Typek, J.;Ryabova, N.Yu.;Blonska-Tabero, 
A.;Kurzawa, M.;Maryniak, M.
;
_cell_length_a                     6.681(1)
_cell_length_b                     8.016(1)
_cell_length_c                     9.777(1)
_cell_angle_alpha                  105.23(1)
_cell_angle_beta                   105.02(1)
_cell_angle_gamma                  102.21(1)
_cell_volume                       465.48
_cell_formula_units_Z              1
_symmetry_space_group_name_H-M     'P -1'
_symmetry_Int_Tables_number        2
loop_
_symmetry_equiv_pos_site_id
_symmetry_equiv_pos_as_xyz
  1	'-x, -y, -z'
  2	'x, y, z'
loop_
_atom_type_symbol
_atom_type_oxidation_number
Fe3+	3
O2-	-2
V5+	5
Zn2+	2
loop_
_atom_site_label
_atom_site_type_symbol
_atom_site_symmetry_multiplicity
_atom_site_Wyckoff_symbol
_atom_site_fract_x
_atom_site_fract_y
_atom_site_fract_z
_atom_site_occupancy
_atom_site_attached_hydrogens
Zn1 Zn2+ 1 g 0 0.5 0.5 1. 0 
Zn2 Zn2+ 2 i 0.721(2) 0.714(1) 0.211(1) 1. 0 
Fe1 Fe3+ 2 i 0.375(1) 0.949(1) 0.609(1) 1. 0 
Fe2 Fe3+ 2 i 0.045(1) 0.207(1) 0.015(1) 1. 0 
V1 V5+ 2 i 0.8917(3) 0.8998(3) 0.6644(3) 1. 0 
V2 V5+ 2 i 0.2208(3) 0.6546(2) 0.2699(3) 1. 0 
V3 V5+ 2 i 0.5030(3) 0.2681(2) 0.1236(2) 1. 0 
O1 O2- 2 i 0.088(2) 0.061(2) 0.149(1) 1. 0 
O2 O2- 2 i 0.563(2) 0.125(2) 0.214(1) 1. 0 
O3 O2- 2 i 0.189(2) 0.429(1) 0.196(1) 1. 0 
O4 O2- 2 i 0.985(2) 0.276(1) 0.829(1) 1. 0 
O5 O2- 2 i 0.244(1) 0.791(1) 0.975(1) 1. 0 
O6 O2- 2 i 0.876(2) 0.963(2) 0.348(1) 1. 0 
O7 O2- 2 i 0.537(2) 0.237(1) 0.740(2) 1. 0 
O8 O2- 2 i 0.338(2) 0.244(2) 0.988(1) 1. 0 
O9 O2- 2 i 0.333(2) 0.037(1) 0.423(1) 1. 0 
O10 O2- 2 i 0.224(2) 0.689(2) 0.463(1) 1. 0 
O11 O2- 2 i 0.708(2) 0.498(1) 0.256(1) 1. 0 
O12 O2- 2 i 0.129(2) 0.300(1) 0.415(1) 1. 0 

#End of data_152596-ICSD


