data_200077-ICSD
#?2014 by Fachinformationszentrum Karlsruhe, and the U.S. Secretary of 
#Commerce on behalf of the United States.  All rights reserved.
_database_code_ICSD                200077
_audit_creation_date               1980/01/01
_audit_update_record               2012/02/01
_chemical_name_systematic
;
Dipotassium Cerium(IV) Tecto-15-oxohexasilicate
;
_chemical_formula_structural       'K2 Ce Si6 O15'
_chemical_formula_sum              'Ce1 K2 O15 Si6'
_publ_section_title
;
Crystal structure of a K, Ce silicate with a three-dimensional anion 
framework: K2 Ce Si6 O15
;
loop_
_citation_id
_citation_journal_abbrev
_citation_year
_citation_journal_volume
_citation_page_first
_citation_page_last
_citation_journal_id_ASTM
primary Kristallografiya 1977 22 382 384 KRISAJ
2 Kristallografiya 1977 22 174 174 KRISAJ
3 'Soviet Physics, Crystallography (= Kristallografiya)'
 1977 22 215 216 SPHCA6
_publ_author_name
;
Karpov, O.G.;Pobedimskaya, E.A.;Belov, N.V.
;
_cell_length_a                     17.661(6)
_cell_length_b                     11.854(4)
_cell_length_c                     8.698(2)
_cell_angle_alpha                  90.
_cell_angle_beta                   90.
_cell_angle_gamma                  132.32
_cell_volume                       1346.41
_cell_formula_units_Z              4
_symmetry_space_group_name_H-M     'B 1 1 2/b'
_symmetry_Int_Tables_number        15
_refine_ls_R_factor_all            .022
loop_
_symmetry_equiv_pos_site_id
_symmetry_equiv_pos_as_xyz
  1	'x, y+.5, -z'
  2	'-x, -y, -z'
  3	'-x, -y+.5, z'
  4	'x, y, z'
  5	'x+.5, y+.5, -z+.5'
  6	'-x+.5, -y, -z+.5'
  7	'-x+.5, -y+.5, z+.5'
  8	'x+.5, y, z+.5'
loop_
_atom_type_symbol
_atom_type_oxidation_number
Ce4+	4
K1+	1
O2-	-2
Si4+	4
loop_
_atom_site_label
_atom_site_type_symbol
_atom_site_symmetry_multiplicity
_atom_site_Wyckoff_symbol
_atom_site_fract_x
_atom_site_fract_y
_atom_site_fract_z
_atom_site_occupancy
_atom_site_attached_hydrogens
Ce1 Ce4+ 4 e 0 0.25 0.16637(2) 1. 0 
K1 K1+ 8 f 0.42072(5) 0.34379(8) 0.32364(7) 1. 0 
Si1 Si4+ 8 f 0.16424(5) 0.18448(7) 0.26193(7) 1. 0 
Si2 Si4+ 8 f 0.27491(5) 0.92754(7) 0.47083(7) 1. 0 
Si3 Si4+ 8 f 0.40442(5) 0.08219(7) 0.03174(7) 1. 0 
O1 O2- 8 f 0.2641(2) 0.6661(2) 0.1304(2) 1. 0 
O2 O2- 8 f 0.4096(1) 0.8200(2) 0.3491(2) 1. 0 
O3 O2- 8 f 0.2571(1) 0.8157(2) 0.3364(2) 1. 0 
O4 O2- 8 f 0.4047(1) 0.9646(2) 0.1263(2) 1. 0 
O5 O2- 8 f 0.2020(2) 0.9596(3) 0.4250(2) 1. 0 
O6 O2- 8 f 0.1074(1) 0.9205(3) 0.0170(2) 1. 0 
O7 O2- 4 e 0.5 0.25 0.1056(3) 1. 0 
O8 O2- 8 f 0.4195(1) 0.5822(2) 0.1475(2) 1. 0 

loop_
_atom_site_aniso_label
_atom_site_aniso_type_symbol
_atom_site_aniso_B_11
_atom_site_aniso_B_22
_atom_site_aniso_B_33
_atom_site_aniso_B_12
_atom_site_aniso_B_13
_atom_site_aniso_B_23
Ce1 Ce4+ 0.52 0.54 0.36 0.39 0 0
K1 K1+ 1.04(2) 2.05(2) 1.22(2) 0.79(2) -.11(1) -.20(2)
Si1 Si4+ 0.57(2) 0.55(2) 0.42(2) 0.43(2) 0 0
Si2 Si4+ 0.48(2) 0.51(2) 0.43(2) 0.34(2) 0 0
Si3 Si4+ 0.59(2) 0.53(2) 0.46(2) 0.39(2) 0.09(1) 0.12(1)
O1 O2- 1.40(6) 0.83(5) 0.75(5) 0.59(5) -.06(5) -.32(4)
O2 O2- 1.06(5) 1.38(6) 0.70(5) 1.02(5) -.06(4) 0.06(4)
O3 O2- 0.56(5) 0.85(5) 0.86(5) 0.45(4) -.02(4) -.31(4)
O4 O2- 0.91(5) 0.93(5) 1.04(5) 0.71(5) 0.24(4) 0.46(4)
O5 O2- 1.51(7) 2.25(8) 1.14(6) 1.69(7) 0.46(5) 0.60(6)
O6 O2- 0.66(5) 0.80(5) 0.90(6) 0.22(4) -.11(4) 0.29(4)
O7 O2- 1.6(1) 0.85(8) 0.66(8) 0.41(8) 0 0
O8 O2- 1.04(5) 0.84(5) 0.62(5) 0.55(5) -.20(4) -.18(4)
#End of data_200077-ICSD


