data_109092-ICSD
#?2014 by Fachinformationszentrum Karlsruhe, and the U.S. Secretary of 
#Commerce on behalf of the United States.  All rights reserved.
_database_code_ICSD                109092
_audit_creation_date               2007/04/01
_chemical_name_systematic          'Trilithium Vanadate'
_chemical_formula_structural       'Li3 (V O4)'
_chemical_formula_sum              'Li3 O4 V1'
_publ_section_title
;
On the structure of some compounds Li3 Me(5+) O4 and some other mixed 
metal oxides containing lithium
;
loop_
_citation_id
_citation_journal_abbrev
_citation_year
_citation_journal_volume
_citation_page_first
_citation_page_last
_citation_journal_id_ASTM
primary 'Zeitschrift fuer Anorganische und Allgemeine Chemie (1950) (DE)'
 1964 331 44 50 ZAACAB
_publ_author_name                  'Blasse, G.'
_cell_length_a                     4.97
_cell_length_b                     6.40
_cell_length_c                     10.90
_cell_angle_alpha                  90.
_cell_angle_beta                   90.
_cell_angle_gamma                  90.
_cell_volume                       346.71
_cell_formula_units_Z              4
_symmetry_space_group_name_H-M     'P c m n'
_symmetry_Int_Tables_number        62
loop_
_symmetry_equiv_pos_site_id
_symmetry_equiv_pos_as_xyz
  1	'-x+.5, y, z+.5'
  2	'x, -y+.5, z'
  3	'x+.5, y+.5, -z+.5'
  4	'-x, -y, -z'
  5	'x+.5, -y, -z+.5'
  6	'-x, y+.5, -z'
  7	'-x+.5, -y+.5, z+.5'
  8	'x, y, z'
loop_
_atom_type_symbol
_atom_type_oxidation_number
Li1+	1
O2-	-2
V5+	5
loop_
_atom_site_label
_atom_site_type_symbol
_atom_site_symmetry_multiplicity
_atom_site_Wyckoff_symbol
_atom_site_fract_x
_atom_site_fract_y
_atom_site_fract_z
_atom_site_occupancy
_atom_site_attached_hydrogens
Li1 Li1+ 8 d 0.303 0.501 0.164 1. 0 
Li2 Li1+ 4 c 0.206 0.75 0.423 1. 0 
V1 V5+ 4 c 0.309 0.25 0.411 1. 0 
O1 O2- 8 d 0.204 0.044 0.342 1. 0 
O2 O2- 4 c 0.294 0.25 0.050 1. 0 
O3 O2- 4 c 0.119 0.75 0.090 1. 0 

#End of data_109092-ICSD


