data_425985-ICSD
#?2014 by Fachinformationszentrum Karlsruhe, and the U.S. Secretary of 
#Commerce on behalf of the United States.  All rights reserved.
_database_code_ICSD                425985
_audit_creation_date               2014/02/01
_chemical_name_systematic
;
Tripotassium Trithiooxomolybdate Hydrogen Sulfide
;
_chemical_formula_structural       'K3 (Mo O S3) (S H)'
_chemical_formula_sum              'H1 K3 Mo1 O1 S4'
_publ_section_title
;
Potassium double salts with the mixed trisulfidometalate ions (Mo O 
S3)(2-) and (W O S3)(2-)
;
loop_
_citation_id
_citation_journal_abbrev
_citation_year
_citation_journal_volume
_citation_journal_issue
_citation_page_first
_citation_page_last
_citation_journal_id_ASTM
primary 'Zeitschrift fuer Naturforschung, B: Chemical Sciences'
 2013 68 7 761 777 ZNBSEN
_publ_author_name                  'Lehner, A.J.;Roehr, C.'
_cell_length_a                     9.577(2)
_cell_length_b                     6.3619(19)
_cell_length_c                     8.1244(16)
_cell_angle_alpha                  90.00
_cell_angle_beta                   90.00
_cell_angle_gamma                  90.00
_cell_volume                       495
_cell_formula_units_Z              2
_symmetry_space_group_name_H-M     'P m n 21'
_symmetry_Int_Tables_number        31
_refine_ls_R_factor_all            .0316
loop_
_symmetry_equiv_pos_site_id
_symmetry_equiv_pos_as_xyz
  1	'x+.5, -y, z+.5'
  2	'-x+.5, -y, z+.5'
  3	'-x, y, z'
  4	'x, y, z'
loop_
_atom_type_symbol
_atom_type_oxidation_number
H1+	1
K1+	1
Mo6+	6
O2-	-2
S2-	-2
loop_
_atom_site_label
_atom_site_type_symbol
_atom_site_symmetry_multiplicity
_atom_site_Wyckoff_symbol
_atom_site_fract_x
_atom_site_fract_y
_atom_site_fract_z
_atom_site_occupancy
_atom_site_attached_hydrogens
_atom_site_U_iso_or_equiv
K1 K1+ 4 b 0.27131(11) 0.10327(18) 0.2400(2) 1 0 0.0395(3) 
K2 K1+ 2 a 0.0000 0.4986(3) -0.0006(3) 1 0 0.0370(3) 
Mo1 Mo6+ 2 a 0.0000 0.50119(11) 0.49037(5) 1 0 0.02447(14) 
S1 S2- 4 b 0.18600(13) 0.5960(2) 0.3504(2) 1 0 0.0364(3) 
S2 S2- 2 a 0.0000 0.1611(3) 0.5216(3) 1 0 0.0422(5) 
S3 S2- 2 a 0.0000 0.0021(3) 0.0208(2) 1 0 0.0305(5) 
O1 O2- 2 a 0.0000 0.6271(8) 0.6782(6) 1 0 0.0377(13) 
H1 H1+ 2 a 0.0000 -0.091(15) 0.168(6) 1 0 0.07(3) 

loop_
_atom_site_aniso_label
_atom_site_aniso_type_symbol
_atom_site_aniso_U_11
_atom_site_aniso_U_22
_atom_site_aniso_U_33
_atom_site_aniso_U_12
_atom_site_aniso_U_13
_atom_site_aniso_U_23
K1 K1+ 0.0344(6) 0.0428(5) 0.0413(6) -0.0006(5) -0.0066(7) 0.0006(8)
K2 K1+ 0.0400(7) 0.0319(6) 0.0392(8) 0.000 0.000 0.0069(10)
Mo1 Mo6+ 0.0242(2) 0.0270(2) 0.0223(3) 0.000 0.000 -0.0019(3)
S1 S2- 0.0263(6) 0.0421(7) 0.0410(8) -0.0031(6) 0.0062(6) 0.0025(6)
S2 S2- 0.0469(10) 0.0290(8) 0.0505(16) 0.000 0.000 0.0080(9)
S3 S2- 0.0302(7) 0.0298(7) 0.0314(16) 0.000 0.000 -0.0033(11)
O1 O2- 0.041(3) 0.040(3) 0.032(3) 0.000 0.000 -0.001(2)
#End of data_425985-ICSD


