data_602138-ICSD
#?2014 by Fachinformationszentrum Karlsruhe, and the U.S. Secretary of 
#Commerce on behalf of the United States.  All rights reserved.
_database_code_ICSD                602138
_audit_creation_date               2011/02/01
_chemical_name_systematic
;
Silver Gadolinium(III) Selenide (1/1/2)
;
_chemical_formula_structural       'Ag Gd Se2'
_chemical_formula_sum              'Ag1 Gd1 Se2'
_publ_section_title
;
Chimie minerale. Etude cristallographique des systemes formes entre 
les seleniures L2 Se3 des terres rares et le selen
;
loop_
_citation_id
_citation_journal_abbrev
_citation_year
_citation_journal_volume
_citation_page_first
_citation_page_last
_citation_journal_id_ASTM
primary
;
Comptes Rendus Hebdomadaires des Seances de l`Academie des Sciences, 
Serie C, Sciences Chimiques (1966-)
;
 1969 269 316 319 CHDCAQ
_publ_author_name                  'Julien Pouzol, M.;Guittard, M.'
_cell_length_a                     5.66(2)
_cell_length_b                     5.66(2)
_cell_length_c                     12.45(4)
_cell_angle_alpha                  90.0
_cell_angle_beta                   90.0
_cell_angle_gamma                  90.0
_cell_volume                       398.84
_cell_formula_units_Z              4
_symmetry_space_group_name_H-M     'I 41 m d'
_symmetry_Int_Tables_number        109
loop_
_symmetry_equiv_pos_site_id
_symmetry_equiv_pos_as_xyz
  1	'y, -x+.5, z+.25'
  2	'-y, x+.5, z+.25'
  3	'x, -y, z'
  4	'-x, y, z'
  5	'-y, -x+.5, z+.25'
  6	'y, x+.5, z+.25'
  7	'-x, -y, z'
  8	'x, y, z'
  9	'y+.5, -x, z+.75'
 10	'-y+.5, x, z+.75'
 11	'x+.5, -y+.5, z+.5'
 12	'-x+.5, y+.5, z+.5'
 13	'-y+.5, -x, z+.75'
 14	'y+.5, x, z+.75'
 15	'-x+.5, -y+.5, z+.5'
 16	'x+.5, y+.5, z+.5'
loop_
_atom_type_symbol
_atom_type_oxidation_number
Ag1+	1
Gd3+	3
Se2-	-2
loop_
_atom_site_label
_atom_site_type_symbol
_atom_site_symmetry_multiplicity
_atom_site_Wyckoff_symbol
_atom_site_fract_x
_atom_site_fract_y
_atom_site_fract_z
_atom_site_occupancy
_atom_site_attached_hydrogens
Gd1 Gd3+ 4 a 0 0 0 1. 0 
Ag1 Ag1+ 4 a 0 0 0.540 1. 0 
Se1 Se2- 4 a 0 0 0.230 1. 0 
Se2 Se2- 4 a 0 0 0.770 1. 0 

#End of data_602138-ICSD


