data_418672-ICSD
#?2014 by Fachinformationszentrum Karlsruhe, and the U.S. Secretary of 
#Commerce on behalf of the United States.  All rights reserved.
_database_code_ICSD                418672
_audit_creation_date               2009/02/01
_chemical_name_systematic          'Potassium Hexafluorochromate(V)'
_chemical_formula_structural       'K (Cr F6)'
_chemical_formula_sum              'Cr1 F6 K1'
_publ_section_title
;
Alkali metal (Li+ - Cs+) salts with hexafluorochromate(V), 
hexafluorochromate(IV), pentafluorochromate(IV), and 
undecafluorodichromate(IV) anions
;
loop_
_citation_id
_citation_journal_abbrev
_citation_year
_citation_journal_volume
_citation_journal_issue
_citation_page_first
_citation_page_last
_citation_journal_id_ASTM
primary 'European Journal of Inorganic Chemistry  (online)'
 2008 2008 11 1795 1812 EJICFO
_publ_author_name                  'Mazej, Z.;Goreshnik, E.'
_cell_length_a                     7.3315(8)
_cell_length_b                     7.3315(8)
_cell_length_c                     7.2148(10)
_cell_angle_alpha                  90
_cell_angle_beta                   90
_cell_angle_gamma                  120
_cell_volume                       335.85
_cell_formula_units_Z              3
_symmetry_space_group_name_H-M     'R -3 H'
_symmetry_Int_Tables_number        148
_refine_ls_R_factor_all            .048
loop_
_symmetry_equiv_pos_site_id
_symmetry_equiv_pos_as_xyz
  1	'x-y, x, -z'
  2	'y, -x+y, -z'
  3	'-x, -y, -z'
  4	'-x+y, -x, z'
  5	'-y, x-y, z'
  6	'x, y, z'
  7	'x-y+.6666, x+.3333, -z+.3333'
  8	'x-y+.3333, x+.6666, -z+.6666'
  9	'y+.6666, -x+y+.3333, -z+.3333'
 10	'y+.3333, -x+y+.6666, -z+.6666'
 11	'-x+.6666, -y+.3333, -z+.3333'
 12	'-x+.3333, -y+.6666, -z+.6666'
 13	'-x+y+.6666, -x+.3333, z+.3333'
 14	'-x+y+.3333, -x+.6666, z+.6666'
 15	'-y+.6666, x-y+.3333, z+.3333'
 16	'-y+.3333, x-y+.6666, z+.6666'
 17	'x+.6666, y+.3333, z+.3333'
 18	'x+.3333, y+.6666, z+.6666'
loop_
_atom_type_symbol
_atom_type_oxidation_number
Cr5+	5
F1-	-1
K1+	1
loop_
_atom_site_label
_atom_site_type_symbol
_atom_site_symmetry_multiplicity
_atom_site_Wyckoff_symbol
_atom_site_fract_x
_atom_site_fract_y
_atom_site_fract_z
_atom_site_occupancy
_atom_site_attached_hydrogens
_atom_site_U_iso_or_equiv
Cr1 Cr5+ 3 b 1 0 0.5 1 0 0.0189(7) 
K1 K1+ 3 a 1 0 1 1 0 0.0269(8) 
F1 F1- 18 f 1.1324(7) -0.0896(7) 0.6420(5) 1 0 0.0423(11) 

loop_
_atom_site_aniso_label
_atom_site_aniso_type_symbol
_atom_site_aniso_U_11
_atom_site_aniso_U_22
_atom_site_aniso_U_33
_atom_site_aniso_U_12
_atom_site_aniso_U_13
_atom_site_aniso_U_23
Cr1 Cr5+ 0.0175(8) 0.0175(8) 0.0216(11) 0.0088(4) 0 0
K1 K1+ 0.0278(10) 0.0278(10) 0.0251(14) 0.0139(5) 0 0
F1 F1- 0.055(2) 0.055(2) 0.0384(19) 0.043(2) -0.0035(17) 0.0065(17)
#End of data_418672-ICSD


