data_260231-ICSD
#?2014 by Fachinformationszentrum Karlsruhe, and the U.S. Secretary of 
#Commerce on behalf of the United States.  All rights reserved.
_database_code_ICSD                260231
_audit_creation_date               2009/08/01
_audit_update_record               2011/02/01
_chemical_name_systematic
;
Calcium(II) Tellurium(IV) Oxide - Beta Prime
;
_chemical_formula_structural       'Ca (Te O3)'
_chemical_formula_sum              'Ca1 O3 Te1'
_publ_section_title
;
Polymorphism of Ca Te O3 and solid solutions Ca(x) Sr(1-x) Te O3
;
loop_
_citation_id
_citation_journal_abbrev
_citation_year
_citation_journal_volume
_citation_journal_issue
_citation_page_first
_citation_page_last
_citation_journal_id_ASTM
primary 'Acta Crystallographica, Section B: Structural Science'
 2009 65 2 167 181 ASBSDK
_publ_author_name
;
Stoeger, B.;Weil, M.;Zobetz, E.;Giester, G.
;
_cell_length_a                     25.5990(5)
_cell_length_b                     10.3871(2)
_cell_length_c                     11.2384(3)
_cell_angle_alpha                  108.6200(10)
_cell_angle_beta                   112.398(2)
_cell_angle_gamma                  32.307(2)
_cell_volume                       1476.6
_cell_formula_units_Z              18
_symmetry_space_group_name_H-M     'P -1'
_symmetry_Int_Tables_number        2
_refine_ls_R_factor_all            .0386
loop_
_symmetry_equiv_pos_site_id
_symmetry_equiv_pos_as_xyz
  1	'-x, -y, -z'
  2	'x, y, z'
loop_
_atom_type_symbol
_atom_type_oxidation_number
Ca2+	2
O2-	-2
Te4+	4
loop_
_atom_site_label
_atom_site_type_symbol
_atom_site_symmetry_multiplicity
_atom_site_Wyckoff_symbol
_atom_site_fract_x
_atom_site_fract_y
_atom_site_fract_z
_atom_site_occupancy
_atom_site_attached_hydrogens
_atom_site_U_iso_or_equiv
Te1 Te4+ 2 i 0.21366(2) 0.18711(5) -0.23828(3) 1 0 0.00770(6) 
Te2 Te4+ 2 i 0.54787(2) 0.18894(5) -0.27507(3) 1 0 0.00665(6) 
Te3 Te4+ 2 i -0.14168(2) 0.23824(5) 0.73139(3) 1 0 0.00636(6) 
Te4 Te4+ 2 i 0.02903(2) -0.27990(6) 0.48255(3) 1 0 0.00954(6) 
Te5 Te4+ 2 i 0.35367(2) -0.18971(6) 0.47748(3) 1 0 0.00988(6) 
Te6 Te4+ 2 i -0.30743(2) 0.70895(5) 0.44460(3) 1 0 0.00778(6) 
Te7 Te4+ 2 i 0.16591(2) 0.29312(5) 0.18864(3) 1 0 0.00707(6) 
Te8 Te4+ 2 i 0.48424(2) -0.71540(5) 0.16415(3) 1 0 0.00642(6) 
Te9 Te4+ 2 i -0.13538(2) 0.20468(5) 0.17876(3) 1 0 0.00705(6) 
Ca1 Ca2+ 2 i -0.08191(7) -0.27243(16) 0.11981(9) 1 0 0.00873(17) 
Ca2 Ca2+ 2 i 0.24491(7) -0.18945(16) 0.14145(9) 1 0 0.00906(17) 
Ca3 Ca2+ 2 i 0.59105(7) -0.24742(16) 0.13900(9) 1 0 0.00785(17) 
Ca4 Ca2+ 2 i -0.07686(7) -0.24963(16) 0.62739(9) 1 0 0.00844(17) 
Ca5 Ca2+ 2 i 0.26468(7) -0.27132(16) 0.58561(9) 1 0 0.00801(17) 
Ca6 Ca2+ 2 i -0.43729(7) 0.78212(16) 0.61323(9) 1 0 0.00790(17) 
Ca7 Ca2+ 2 i 0.02681(7) -0.24072(16) -0.03523(9) 1 0 0.00858(17) 
Ca8 Ca2+ 2 i 0.36616(7) -0.25500(16) -0.03372(9) 1 0 0.00715(16) 
Ca9 Ca2+ 2 i 0.67459(7) -0.25628(16) -0.05540(9) 1 0 0.00716(16) 
O1 O2- 2 i 0.2300(2) -0.0248(6) -0.2307(3) 1 0 0.0109(7) 
O2 O2- 2 i 0.5409(2) 0.0468(6) -0.2255(3) 1 0 0.0094(6) 
O3 O2- 2 i -0.1204(2) 0.0438(6) 0.7920(3) 1 0 0.0086(6) 
O4 O2- 2 i 0.0854(2) 0.4648(6) -0.2026(3) 1 0 0.0095(6) 
O5 O2- 2 i 0.4353(2) 0.3993(6) -0.4083(3) 1 0 0.0106(6) 
O6 O2- 2 i -0.1783(2) 0.4402(6) 0.8753(3) 1 0 0.0102(6) 
O7 O2- 2 i 0.2932(3) 0.0980(6) -0.0744(3) 1 0 0.0126(7) 
O8 O2- 2 i 0.5001(2) 0.4094(6) -0.1385(3) 1 0 0.0106(6) 
O9 O2- 2 i -0.2671(2) 0.4350(6) 0.6244(3) 1 0 0.0104(7) 
O10 O2- 2 i 0.0006(3) -0.2719(7) 0.3051(3) 1 0 0.0155(7) 
O11 O2- 2 i 0.3695(3) -0.3273(7) 0.3165(4) 1 0 0.0273(10) 
O12 O2- 2 i -0.4006(3) 0.9474(6) 0.3194(3) 1 0 0.0127(7) 
O13 O2- 2 i 0.0606(3) -0.5053(6) 0.5151(4) 1 0 0.0159(7) 
O14 O2- 2 i 0.2448(2) -0.0606(6) 0.4904(3) 1 0 0.0123(7) 
O15 O2- 2 i -0.2995(2) 0.5147(6) 0.3283(3) 1 0 0.0117(7) 
O16 O2- 2 i -0.0973(2) -0.0267(6) 0.5168(3) 1 0 0.0138(7) 
O17 O2- 2 i 0.2876(3) 0.0867(7) 0.4327(4) 1 0 0.0202(8) 
O18 O2- 2 i -0.4070(2) 0.8891(6) 0.5259(3) 1 0 0.0095(6) 
O19 O2- 2 i 0.0572(2) 0.5185(6) 0.0543(3) 1 0 0.0088(6) 
O20 O2- 2 i 0.3851(2) -0.4856(6) 0.0283(3) 1 0 0.0090(6) 
O21 O2- 2 i -0.2538(2) 0.5060(6) 0.1029(4) 1 0 0.0152(7) 
O22 O2- 2 i 0.2400(3) 0.0290(6) 0.0761(3) 1 0 0.0117(7) 
O23 O2- 2 i 0.5455(2) -0.9699(6) 0.0498(3) 1 0 0.0092(6) 
O24 O2- 2 i -0.1402(3) 0.0394(6) 0.0625(3) 1 0 0.0155(7) 
O25 O2- 2 i 0.1143(2) 0.2486(6) 0.2145(3) 1 0 0.0110(7) 
O26 O2- 2 i 0.3948(2) -0.6556(6) 0.1835(3) 1 0 0.0098(6) 
O27 O2- 2 i -0.0454(2) 0.0921(6) 0.1095(3) 1 0 0.0115(7) 

loop_
_atom_site_aniso_label
_atom_site_aniso_type_symbol
_atom_site_aniso_U_11
_atom_site_aniso_U_22
_atom_site_aniso_U_33
_atom_site_aniso_U_12
_atom_site_aniso_U_13
_atom_site_aniso_U_23
Te1 Te4+ 0.00766(13) 0.00766(13) 0.00741(14) -0.00606(12) 0.00282(11) 
-0.00049(10)
Te2 Te4+ 0.00648(12) 0.00720(12) 0.00557(13) -0.00543(11) 0.00219(10) 
-0.00060(10)
Te3 Te4+ 0.00626(12) 0.00627(12) 0.00554(13) -0.00490(11) 0.00190(10) 
-0.00025(10)
Te4 Te4+ 0.00953(13) 0.01210(13) 0.00707(14) -0.00902(12) 0.00285(11) 
-0.00166(11)
Te5 Te4+ 0.01008(13) 0.01199(14) 0.00788(14) -0.00929(13) 0.00213(11) 
-0.00085(11)
Te6 Te4+ 0.00663(12) 0.00728(12) 0.00720(14) -0.00526(11) 0.00185(10) 
0.00014(10)
Te7 Te4+ 0.00738(12) 0.00760(12) 0.00668(13) -0.00611(12) 0.00222(10) 
-0.00016(10)
Te8 Te4+ 0.00648(12) 0.00656(12) 0.00610(13) -0.00527(11) 0.00205(10) 
-0.00043(10)
Te9 Te4+ 0.00658(12) 0.00682(12) 0.00595(13) -0.00516(12) 0.00161(10) 
0.00000(10)
Ca1 Ca2+ 0.0101(4) 0.0088(4) 0.0093(4) -0.0079(4) 0.0047(3) -0.0020(3)
Ca2 Ca2+ 0.0077(4) 0.0085(4) 0.0099(4) -0.0064(4) 0.0024(3) 0.0000(3)
Ca3 Ca2+ 0.0074(4) 0.0077(4) 0.0074(4) -0.0059(4) 0.0027(3) -0.0004(3)
Ca4 Ca2+ 0.0084(4) 0.0074(4) 0.0074(4) -0.0059(4) 0.0033(3) -0.0007(3)
Ca5 Ca2+ 0.0087(4) 0.0071(4) 0.0073(4) -0.0063(4) 0.0016(3) 0.0005(3)
Ca6 Ca2+ 0.0077(4) 0.0091(4) 0.0055(4) -0.0067(4) 0.0019(3) -0.0005(3)
Ca7 Ca2+ 0.0099(4) 0.0083(4) 0.0072(4) -0.0076(4) 0.0010(3) 0.0003(3)
Ca8 Ca2+ 0.0068(4) 0.0063(4) 0.0066(4) -0.0050(4) 0.0026(3) -0.0008(3)
Ca9 Ca2+ 0.0063(4) 0.0068(4) 0.0071(4) -0.0050(3) 0.0021(3) 0.0001(3)
O1 O2- 0.0137(16) 0.0120(15) 0.0098(16) -0.0109(15) 0.0038(13) -0.0004(13)
O2 O2- 0.0104(15) 0.0096(15) 0.0095(16) -0.0081(14) 0.0032(13) 0.0003(12)
O3 O2- 0.0079(14) 0.0094(15) 0.0095(16) -0.0072(14) 0.0000(12) 0.0024(12)
O4 O2- 0.0050(14) 0.0063(14) 0.0108(16) -0.0031(13) 0.0046(12) -0.0008(12)
O5 O2- 0.0087(15) 0.0087(15) 0.0084(16) -0.0066(14) -0.0003(12) 0.0009(12)
O6 O2- 0.0083(15) 0.0093(15) 0.0090(16) -0.0067(14) 0.0018(13) -0.0004(12)
O7 O2- 0.0145(16) 0.0137(16) 0.0097(16) -0.0124(15) -0.0008(13) 0.0008(13)
O8 O2- 0.0096(15) 0.0099(15) 0.0107(17) -0.0078(14) 0.0067(13) -0.0054(13)
O9 O2- 0.0051(14) 0.0090(15) 0.0073(15) -0.0039(13) 0.0019(12) 0.0003(12)
O10 O2- 0.0196(18) 0.0204(18) 0.0053(16) -0.0162(17) 0.0024(14) 0.0009(14)
O11 O2- 0.0126(18) 0.023(2) 0.015(2) -0.0110(18) 0.0065(15) -0.0123(16)
O12 O2- 0.0166(17) 0.0107(15) 0.0057(15) -0.0105(15) -0.0005(13) 0.0033(12)
O13 O2- 0.0168(17) 0.0118(16) 0.0163(18) -0.0107(16) 0.0048(15) 0.0012(14)
O14 O2- 0.0073(15) 0.0114(15) 0.0169(18) -0.0069(14) -0.0001(13) 0.0062(13)
O15 O2- 0.0117(16) 0.0097(15) 0.0105(16) -0.0083(14) 0.0024(13) 0.0001(13)
O16 O2- 0.0088(15) 0.0098(16) 0.0144(18) -0.0060(14) 0.0059(14) -0.0028(13)
O17 O2- 0.026(2) 0.028(2) 0.021(2) -0.0242(19) -0.0013(17) 0.0084(17)
O18 O2- 0.0092(15) 0.0080(14) 0.0114(16) -0.0064(14) 0.0055(13) -0.0007(12)
O19 O2- 0.0095(15) 0.0114(15) 0.0058(15) -0.0087(14) 0.0013(12) 0.0002(12)
O20 O2- 0.0103(15) 0.0085(14) 0.0069(15) -0.0072(14) 0.0018(12) 0.0013(12)
O21 O2- 0.0089(15) 0.0097(15) 0.0190(19) -0.0048(14) 0.0044(14) 0.0056(14)
O22 O2- 0.0132(16) 0.0085(15) 0.0146(17) -0.0084(14) 0.0110(14) -0.0064(13)
O23 O2- 0.0101(15) 0.0072(14) 0.0067(15) -0.0064(14) 0.0043(12) -0.0026(12)
O24 O2- 0.0170(17) 0.0127(16) 0.0133(18) -0.0128(16) -0.0050(14) 0.0050(14)
O25 O2- 0.0117(15) 0.0123(15) 0.0130(17) -0.0100(14) 0.0056(13) -0.0009(13)
O26 O2- 0.0091(15) 0.0112(15) 0.0115(16) -0.0083(14) 0.0040(13) 0.0002(13)
O27 O2- 0.0067(14) 0.0101(15) 0.0160(18) -0.0058(14) 0.0050(13) 0.0009(13)
#End of data_260231-ICSD


