data_162214-ICSD
#?2014 by Fachinformationszentrum Karlsruhe, and the U.S. Secretary of 
#Commerce on behalf of the United States.  All rights reserved.
_database_code_ICSD                162214
_audit_creation_date               2009/08/01
_chemical_name_systematic          'Potassium Tantalum Bis(borate)'
_chemical_formula_structural       'K Ta (B O3)2'
_chemical_formula_sum              'B2 K1 O6 Ta1'
_publ_section_title
;
Phase relations of the (Li2 O) - (Ta2 O5) - (B2 O3) and (Li2 O) - (W 
O3) - (B2 O3) systems and promising nonlinear optical compounds in 
(K2 O) - (Ta2 O5) - (B2 O3) system
;
loop_
_citation_id
_citation_journal_abbrev
_citation_year
_citation_journal_volume
_citation_page_first
_citation_page_last
_citation_journal_id_ASTM
primary 'Materials Research Bulletin' 2009 44 189 193 MRBUAC
_publ_author_name
;
Cai Gemei;Wang, W.-Y.;Li, M.;Lou, Y.F.;Sun, Y.P.;Chen, X.-L.
;
_cell_length_a                     7.3253(4)
_cell_length_b                     3.8402(2)
_cell_length_c                     9.3040(5)
_cell_angle_alpha                  90.
_cell_angle_beta                   90.
_cell_angle_gamma                  90.
_cell_volume                       261.73
_cell_formula_units_Z              2
_symmetry_space_group_name_H-M     'P m n 21'
_symmetry_Int_Tables_number        31
_refine_ls_R_factor_all            .073
loop_
_symmetry_equiv_pos_site_id
_symmetry_equiv_pos_as_xyz
  1	'x+.5, -y, z+.5'
  2	'-x+.5, -y, z+.5'
  3	'-x, y, z'
  4	'x, y, z'
loop_
_atom_type_symbol
_atom_type_oxidation_number
B3+	3
K1+	1
O2-	-2
Ta5+	5
loop_
_atom_site_label
_atom_site_type_symbol
_atom_site_symmetry_multiplicity
_atom_site_Wyckoff_symbol
_atom_site_fract_x
_atom_site_fract_y
_atom_site_fract_z
_atom_site_occupancy
_atom_site_attached_hydrogens
_atom_site_B_iso_or_equiv
K1 K1+ 2 a 0 0.5229(2) 0.3524(2) 1. 0 1.212(0) 
Ta1 Ta5+ 2 a 0 -0.1695(2) 0.7484(2) 1. 0 1.011(1) 
O1 O2- 4 b -0.1874 -0.1713(2) 0.6164(3) 1. 0 1.215(3) 
O2 O2- 4 b 0.1822 -0.0992(2) 0.9090(3) 1. 0 1.118(2) 
O3 O2- 2 a 0 -0.6660(2) 0.7714(3) 1. 0 1.874(3) 
O4 O2- 2 a 0 0.0459(3) 0.1150(4) 1. 0 0.842(2) 
B1 B3+ 4 b 0.3375(6) -0.0197(4) 0.5444(4) 1. 0 1.054(9) 

#End of data_162214-ICSD


