data_35234-ICSD
#?2014 by Fachinformationszentrum Karlsruhe, and the U.S. Secretary of 
#Commerce on behalf of the United States.  All rights reserved.
_database_code_ICSD                35234
_audit_creation_date               1982/12/31
_chemical_name_systematic          'Dibarium Trizinc Catena-phosphate'
_chemical_formula_structural       'Ba2 Zn3 P10 O30'
_chemical_formula_sum              'Ba2 O30 P10 Zn3'
_publ_section_title
;
Crystal Structure of a Barium-Zinc Decametaphosphate Ba2 Zn3 P10 O30
;
loop_
_citation_id
_citation_journal_abbrev
_citation_year
_citation_journal_volume
_citation_page_first
_citation_page_last
_citation_journal_id_ASTM
primary 'Journal of Solid State Chemistry' 1982 45 159 163 JSSCBI
_publ_author_name
;
Bagieu Beucher, M.;Durif, A.;Guitel, J.C.
;
_cell_length_a                     21.738(15)
_cell_length_b                     5.356(5)
_cell_length_c                     10.748(8)
_cell_angle_alpha                  90.
_cell_angle_beta                   99.65(3)
_cell_angle_gamma                  90.
_cell_volume                       1233.67
_cell_formula_units_Z              2
_symmetry_space_group_name_H-M     'P 1 2/n 1'
_symmetry_Int_Tables_number        13
_refine_ls_R_factor_all            .041
loop_
_symmetry_equiv_pos_site_id
_symmetry_equiv_pos_as_xyz
  1	'x+.5, -y, z+.5'
  2	'-x+.5, y, -z+.5'
  3	'-x, -y, -z'
  4	'x, y, z'
loop_
_atom_type_symbol
_atom_type_oxidation_number
Ba2+	2
O2-	-2
P5+	5
Zn2+	2
loop_
_atom_site_label
_atom_site_type_symbol
_atom_site_symmetry_multiplicity
_atom_site_Wyckoff_symbol
_atom_site_fract_x
_atom_site_fract_y
_atom_site_fract_z
_atom_site_occupancy
_atom_site_attached_hydrogens
_atom_site_B_iso_or_equiv
Ba1 Ba2+ 4 g 0.57580(2) 0.4983(1) 0.18736(4) 1. 0 0.6 
Zn1 Zn2+ 2 c 0.5 0.5 0.5 1. 0 0.71 
Zn2 Zn2+ 2 f 0.25 0.4514(2) 0.75 1. 0 0.53 
Zn3 Zn2+ 2 e 0.25 0.5307(2) 0.25 1. 0 0.66 
P1 P5+ 4 g 0.42580(9) 0.0939(4) 0.0552(2) 1. 0 0.51 
P2 P5+ 4 g 0.47814(7) -.0158(4) 0.3173(2) 1. 0 0.4 
P3 P5+ 4 g 0.37042(8) -.2145(4) 0.4134(2) 1. 0 0.48 
P4 P5+ 4 g 0.30431(8) -.0444(8) 0.6222(2) 1. 0 0.38 
P5 P5+ 4 g 0.20406(9) 0.2234(4) 0.4789(2) 1. 0 0.47 
O1 O2- 4 g 0.4595(3) -.078(1) 0.1694(5) 1. 0 0.58 
O2 O2- 4 g 0.4140(2) -.007(1) 0.3666(5) 1. 0 0.8 
O3 O2- 4 g 0.3504(3) -.056(1) 0.5249(6) 1. 0 1.35 
O4 O2- 4 g 0.2356(2) -.032(1) 0.5395(5) 1. 0 0.75 
O5 O2- 4 g 0.3586(3) 0.116(1) 0.0979(5) 1. 0 0.88 
O6 O2- 4 g 0.4544(3) 0.348(1) 0.0586(6) 1. 0 1.06 
O7 O2- 4 g 0.4211(3) -.050(1) -.0653(5) 1. 0 1.28 
O8 O2- 4 g 0.5051(3) 0.240(1) 0.3365(5) 1. 0 0.88 
O9 O2- 4 g 0.5168(3) -.234(1) 0.3692(5) 1. 0 0.78 
O10 O2- 4 g 0.3162(3) -.245(1) 0.3108(7) 1. 0 1.57 
O11 O2- 4 g 0.4066(3) -.439(1) 0.4620(6) 1. 0 1.12 
O12 O2- 4 g 0.3180(3) 0.195(1) 0.6918(6) 1. 0 0.87 
O13 O2- 4 g 0.3093(3) -.283(1) 0.6950(6) 1. 0 0.79 
O14 O2- 4 g 0.2433(3) 0.317(1) 0.3896(6) 1. 0 1.31 
O15 O2- 4 g 0.1908(3) 0.394(1) 0.5809(5) 1. 0 0.72 

#End of data_35234-ICSD


