data_421816-ICSD
#?2014 by Fachinformationszentrum Karlsruhe, and the U.S. Secretary of 
#Commerce on behalf of the United States.  All rights reserved.
_database_code_ICSD                421816
_audit_creation_date               2011/02/01
_chemical_name_systematic
;
Potassium Neodymium Bis(sulfate(VI)) Hydrate
;
_chemical_formula_structural       'K Nd (S O4)2 (H2 O)'
_chemical_formula_sum              'H2 K1 Nd1 O9 S2'
_publ_section_title
;
Syntheses, crystal structures and vibrational spectra of K Ln (S 
O4)2.H2 O (Ln = La, Nd, Sm, Eu, Gd, Dy)
;
loop_
_citation_id
_citation_journal_abbrev
_citation_year
_citation_journal_volume
_citation_journal_issue
_citation_page_first
_citation_page_last
_citation_journal_id_ASTM
primary 'Journal of Solid State Chemistry' 2010 183 9 2087 2094 JSSCBI
_publ_author_name                  'Kazmiercak, K.;Hoeppe, H.A.'
_cell_length_a                     10.0500(5)
_cell_length_b                     8.5250(4)
_cell_length_c                     10.3597(5)
_cell_angle_alpha                  90.00
_cell_angle_beta                   118.486(2)
_cell_angle_gamma                  90.00
_cell_volume                       780.12
_cell_formula_units_Z              4
_symmetry_space_group_name_H-M     'P 1 21/c 1'
_symmetry_Int_Tables_number        14
_refine_ls_R_factor_all            .0247
loop_
_symmetry_equiv_pos_site_id
_symmetry_equiv_pos_as_xyz
  1	'x, -y+.5, z+.5'
  2	'-x, -y, -z'
  3	'-x, y+.5, -z+.5'
  4	'x, y, z'
loop_
_atom_type_symbol
_atom_type_oxidation_number
H1+	1
K1+	1
Nd3+	3
O2-	-2
S6+	6
loop_
_atom_site_label
_atom_site_type_symbol
_atom_site_symmetry_multiplicity
_atom_site_Wyckoff_symbol
_atom_site_fract_x
_atom_site_fract_y
_atom_site_fract_z
_atom_site_occupancy
_atom_site_attached_hydrogens
_atom_site_U_iso_or_equiv
Nd1 Nd3+ 4 e 0.26317(3) 0.33993(3) 0.03263(3) 1 0 0.01113(13) 
K1 K1+ 4 e 0.78354(16) 0.18693(16) 0.80600(15) 1 0 0.0245(3) 
S1 S6+ 4 e 0.51749(16) 0.68497(16) 0.11136(15) 1 0 0.0129(3) 
O1 O2- 4 e 0.5342(5) 0.8160(5) 0.2115(4) 1 0 0.0190(9) 
O2 O2- 4 e 0.4046(5) 0.5785(5) 0.1130(4) 1 0 0.0208(10) 
O3 O2- 4 e 0.6650(5) 0.6055(5) 0.1629(5) 1 0 0.0228(10) 
O4 O2- 4 e 0.4737(5) 0.7433(5) 0.9634(4) 1 0 0.0235(10) 
S2 S6+ 4 e 0.04709(16) 0.36839(16) 0.17587(15) 1 0 0.0128(3) 
O5 O2- 4 e 0.0675(5) 0.2887(5) 0.3095(4) 1 0 0.0186(10) 
O6 O2- 4 e 0.9011(4) 0.4499(5) 0.1126(4) 1 0 0.0199(10) 
O7 O2- 4 e 0.0480(5) 0.2548(5) 0.0681(4) 1 0 0.0201(10) 
O8 O2- 4 e 0.1737(4) 0.4766(5) 0.2084(4) 1 0 0.0189(10) 
O9 O2- 4 e 0.3069(5) 0.0424(5) 0.0353(5) 1 0 0.0250(12) 
H1 H1+ 4 e 0.351(7) 0.006(11) 1.004(5) 1 0 0.050 
H2 H1+ 4 e 0.261(9) 0.010(11) 0.963(6) 1 0 0.050 

loop_
_atom_site_aniso_label
_atom_site_aniso_type_symbol
_atom_site_aniso_U_11
_atom_site_aniso_U_22
_atom_site_aniso_U_33
_atom_site_aniso_U_12
_atom_site_aniso_U_13
_atom_site_aniso_U_23
Nd1 Nd3+ 0.00855(18) 0.01280(17) 0.01070(18) -0.00029(14) 0.00352(13) 
-0.00011(14)
K1 K1+ 0.0194(7) 0.0296(8) 0.0232(8) -0.0042(6) 0.0090(6) -0.0027(6)
S1 S6+ 0.0121(7) 0.0145(7) 0.0117(8) -0.0035(6) 0.0054(6) -0.0017(6)
O1 O2- 0.021(2) 0.024(2) 0.014(2) -0.0032(18) 0.0100(19) -0.0044(18)
O2 O2- 0.018(2) 0.023(2) 0.024(3) -0.0081(19) 0.012(2) -0.0020(18)
O3 O2- 0.014(2) 0.028(2) 0.028(3) 0.0041(19) 0.012(2) 0.003(2)
O4 O2- 0.029(3) 0.026(2) 0.013(2) -0.004(2) 0.009(2) 0.0001(18)
S2 S6+ 0.0098(7) 0.0176(8) 0.0101(7) 0.0030(6) 0.0041(6) 0.0033(6)
O5 O2- 0.016(2) 0.027(2) 0.012(2) 0.0036(18) 0.0072(18) 0.0070(18)
O6 O2- 0.011(2) 0.026(2) 0.020(2) 0.0075(18) 0.0056(19) 0.0068(18)
O7 O2- 0.019(2) 0.026(2) 0.017(2) -0.0036(19) 0.0097(19) -0.0050(18)
O8 O2- 0.014(2) 0.022(2) 0.020(2) -0.0042(18) 0.0077(19) 0.0003(18)
O9 O2- 0.024(3) 0.023(2) 0.027(3) 0.001(2) 0.011(2) -0.004(2)
#End of data_421816-ICSD


