data_39652-ICSD
#?2014 by Fachinformationszentrum Karlsruhe, and the U.S. Secretary of 
#Commerce on behalf of the United States.  All rights reserved.
_database_code_ICSD                39652
_audit_creation_date               1993/08/22
_chemical_name_systematic          'Tripotassium Dineodymium Nitrate'
_chemical_formula_structural       'K3 Nd2 (N O3)9'
_chemical_formula_sum              'K3 N9 Nd2 O27'
_publ_section_title
;
Low-temperature X-ray investigation of potassium-neodymium 
nitratesK3(Nd2(NO3)9) and K2(Nd(NO3)5(H2O)2).
;
loop_
_citation_id
_citation_journal_abbrev
_citation_year
_citation_journal_volume
_citation_page_first
_citation_page_last
_citation_journal_id_ASTM
primary Kristallografiya 1992 37 882 888 KRISAJ
2 'Soviet Physics, Crystallography (= Kristallografiya)'
 1992 37 466 469 SPHCA6
_publ_author_name
;
Vigdorchik, A.G.;Malinovskii, Yu.A.;Dryuchko, A.G.;Verin, I.A.
;
_cell_length_a                     13.474(3)
_cell_length_b                     13.474(3)
_cell_length_c                     13.474(3)
_cell_angle_alpha                  90.
_cell_angle_beta                   90.
_cell_angle_gamma                  90.
_cell_volume                       2446.19
_cell_formula_units_Z              4
_symmetry_space_group_name_H-M     'P 43 3 2'
_symmetry_Int_Tables_number        212
_refine_ls_R_factor_all            .0167
loop_
_symmetry_equiv_pos_site_id
_symmetry_equiv_pos_as_xyz
  1	'z+.25, y+.75, -x+.75'
  2	'-z+.75, y+.25, x+.75'
  3	'y+.25, x+.75, -z+.75'
  4	'-y+.75, x+.25, z+.75'
  5	'x+.25, z+.75, -y+.75'
  6	'-x+.75, z+.25, y+.75'
  7	'z+.75, -y+.75, x+.25'
  8	'-z+.25, -y+.25, -x+.25'
  9	'y+.75, -x+.75, z+.25'
 10	'-y+.25, -x+.25, -z+.25'
 11	'x+.75, -z+.75, y+.25'
 12	'-x+.25, -z+.25, -y+.25'
 13	'-y+.5, -z, x+.5'
 14	'-y, z+.5, -x+.5'
 15	'y+.5, -z+.5, -x'
 16	'y, z, x'
 17	'z+.5, -x+.5, -y'
 18	'-z+.5, -x, y+.5'
 19	'-z, x+.5, -y+.5'
 20	'z, x, y'
 21	'-x+.5, -y, z+.5'
 22	'-x, y+.5, -z+.5'
 23	'x+.5, -y+.5, -z'
 24	'x, y, z'
loop_
_atom_type_symbol
_atom_type_oxidation_number
K1+	1
N5+	5
Nd3+	3
O2-	-2
loop_
_atom_site_label
_atom_site_type_symbol
_atom_site_symmetry_multiplicity
_atom_site_Wyckoff_symbol
_atom_site_fract_x
_atom_site_fract_y
_atom_site_fract_z
_atom_site_occupancy
_atom_site_attached_hydrogens
_atom_site_B_iso_or_equiv
Nd1 Nd3+ 8 c 0.3003(1) 0.3003(1) 0.3003(1) 1. 0 0.802(5) 
K1 K1+ 12 d 0.3120(1) 0.9382 0.125 1. 0 1.33(1) 
N1 N5+ 12 d 0.4862(1) 0.7638 0.125 1. 0 0.92(4) 
O1 O2- 24 e 0.4026(1) 0.7422(1) 0.0930(1) 1. 0 1.14(3) 
O2 O2- 12 d 0.5533(1) 0.6966 0.125 1. 0 0.98(4) 
N2 N5+ 24 e 0.3890(1) 0.1635(1) 0.1516(1) 1. 0 1.10(3) 
O3 O2- 24 e 0.3109(1) 0.1402(1) 0.1984(1) 1. 0 1.26(3) 
O4 O2- 24 e 0.4280(1) 0.1062(1) 0.0924(1) 1. 0 1.80(4) 
O5 O2- 24 e 0.4256(1) 0.2478(1) 0.1688(1) 1. 0 1.26(3) 

#End of data_39652-ICSD


