data_28099-ICSD
#?2014 by Fachinformationszentrum Karlsruhe, and the U.S. Secretary of 
#Commerce on behalf of the United States.  All rights reserved.
_database_code_ICSD                28099
_audit_creation_date               1980/01/01
_audit_update_record               2012/08/01
_chemical_name_systematic          'Sodium Indium Tungstate'
_chemical_formula_structural       'Na In (W O4)2'
_chemical_formula_sum              'In1 Na1 O8 W2'
_publ_section_title
;
X-ray Structure Study of Na In (W O4)2
;
loop_
_citation_id
_citation_journal_abbrev
_citation_year
_citation_journal_volume
_citation_page_first
_citation_page_last
_citation_journal_id_ASTM
primary 'Zhurnal Strukturnoi Khimii (Issue-No. from 1981)'
 1971 12 1108 1110 ZSTKAI
_publ_author_name                  'Kravchenko, V.B.'
_cell_length_a                     10.077
_cell_length_b                     5.808
_cell_length_c                     5.027
_cell_angle_alpha                  90.
_cell_angle_beta                   91.16
_cell_angle_gamma                  90.
_cell_volume                       294.16
_cell_formula_units_Z              2
_symmetry_space_group_name_H-M     'P 1 2/c 1'
_symmetry_Int_Tables_number        13
_refine_ls_R_factor_all            .149
loop_
_symmetry_equiv_pos_site_id
_symmetry_equiv_pos_as_xyz
  1	'x, -y, z+.5'
  2	'-x, -y, -z'
  3	'-x, y, -z+.5'
  4	'x, y, z'
loop_
_atom_type_symbol
_atom_type_oxidation_number
In3+	3
Na1+	1
O2-	-2
W6+	6
loop_
_atom_site_label
_atom_site_type_symbol
_atom_site_symmetry_multiplicity
_atom_site_Wyckoff_symbol
_atom_site_fract_x
_atom_site_fract_y
_atom_site_fract_z
_atom_site_occupancy
_atom_site_attached_hydrogens
_atom_site_B_iso_or_equiv
Na1 Na1+ 2 e 0 0.605(10) 0.25 1. 0 2.3 
In1 In3+ 2 f 0.5 0.6908(14) 0.25 1. 0 0.21 
W1 W6+ 4 g 0.2564(4) 0.1783(6) 0.2541(11) 1. 0 0.10 
O1 O2- 4 g 0.144(6) 0.378(10) 0.141(16) 1. 0 0.2 
O2 O2- 4 g 0.175(6) 0.91(1) 0.048(16) 1. 0 0.45 
O3 O2- 4 g 0.383(6) 0.388(10) 0.385(16) 1. 0 0.58 
O4 O2- 4 g 0.366(6) 0.892(10) 0.432(16) 1. 0 0.12 

#End of data_28099-ICSD


