data_51304-ICSD
#?2014 by Fachinformationszentrum Karlsruhe, and the U.S. Secretary of 
#Commerce on behalf of the United States.  All rights reserved.
_database_code_ICSD                51304
_audit_creation_date               2002/10/01
_audit_update_record               2008/02/01
_chemical_name_systematic
;
Dipotassium Dodecahydroxo-closo-dodecaborate
;
_chemical_formula_structural       'K2 (B12 (O H)12)'
_chemical_formula_sum              'H12 B12 K2 O12'
_publ_section_title
;
Dodecahydroxy-closo-dodecaborate(2-)
;
loop_
_citation_id
_citation_journal_abbrev
_citation_year
_citation_journal_volume
_citation_page_first
_citation_page_last
_citation_journal_id_ASTM
primary 'Journal of the American Chemical Society' 2001 123 2182 2185 JACSAT
_publ_author_name
;
Peymann, T.;Knobler, C.B.;Khan, S.I.;Hawthorne, M.F.
;
_cell_length_a                     7.168(6)
_cell_length_b                     10.240(9)
_cell_length_c                     8.969(8)
_cell_angle_alpha                  90.
_cell_angle_beta                   93.692(16)
_cell_angle_gamma                  90.
_cell_volume                       656.96
_cell_formula_units_Z              2
_symmetry_space_group_name_H-M     'P 1 21/n 1'
_symmetry_Int_Tables_number        14
_refine_ls_R_factor_all            .0304
loop_
_symmetry_equiv_pos_site_id
_symmetry_equiv_pos_as_xyz
  1	'-x+.5, y+.5, -z+.5'
  2	'-x, -y, -z'
  3	'x+.5, -y+.5, z+.5'
  4	'x, y, z'
loop_
_atom_type_symbol
_atom_type_oxidation_number
B.833+	.833
H1+	1
K1+	1
O2-	-2
loop_
_atom_site_label
_atom_site_type_symbol
_atom_site_symmetry_multiplicity
_atom_site_Wyckoff_symbol
_atom_site_fract_x
_atom_site_fract_y
_atom_site_fract_z
_atom_site_occupancy
_atom_site_attached_hydrogens
_atom_site_U_iso_or_equiv
K1 K1+ 4 e 0.7650(1) 0.5491(1) 0.5153(1) 1. 0 0 
B1 B.833+ 4 e 0.6919(3) 0.5303(2) 0.1158(3) 1. 0 0 
O1 O2- 4 e 0.8534(2) 0.5490(1) 0.2200(2) 1. 0 0 
B2 B.833+ 4 e 0.4606(3) 0.5625(2) 0.1712(3) 1. 0 0 
O2 O2- 4 e 0.4303(2) 0.6094(2) 0.3177(2) 1. 0 0 
B3 B.833+ 4 e 0.5568(3) 0.6600(2) 0.0297(3) 1. 0 0 
O3 O2- 4 e 0.5935(2) 0.7972(1) 0.0501(2) 1. 0 0 
B4 B.833+ 4 e 0.6937(3) 0.5561(2) -.0814(3) 1. 0 0 
O4 O2- 4 e 0.8508(2) 0.6084(2) -.1535(2) 1. 0 0 
B5 B.833+ 4 e 0.6817(3) 0.3944(2) -.0094(3) 1. 0 0 
O5 O2- 4 e 0.8297(2) 0.3009(1) -.0238(2) 1. 0 0 
B6 B.833+ 4 e 0.5366(3) 0.3984(2) 0.1474(3) 1. 0 0 
O6 O2- 4 e 0.5701(2) 0.3140(2) 0.2753(2) 1. 0 0 
H1 H1+ 4 e 0.874(4) 0.606(2) 0.225(3) 1. 0 0.02 
H2 H1+ 4 e 0.406(4) 0.678(2) 0.314(3) 1. 0 0.022 
H3 H1+ 4 e 0.687(3) 0.806(2) 0.100(3) 1. 0 0.021 
H4 H1+ 4 e 0.902(4) 0.572(3) -.169(3) 1. 0 0.021 
H5 H1+ 4 e 0.917(3) 0.324(2) 0.015(3) 1. 0 0.022 
H6 H1+ 4 e 0.487(3) 0.289(2) 0.305(3) 1. 0 0.021 

loop_
_atom_site_aniso_label
_atom_site_aniso_type_symbol
_atom_site_aniso_U_11
_atom_site_aniso_U_22
_atom_site_aniso_U_33
_atom_site_aniso_U_12
_atom_site_aniso_U_13
_atom_site_aniso_U_23
K1 K1+ 0.032(1) 0.020(1) 0.026(1) -.001(1) 0.007(1) 0.001(1)
B1 B.833+ 0.010(1) 0.010(1) 0.011(1) 0.000(1) 0.001(1) 0.001(1)
O1 O2- 0.013(1) 0.014(1) 0.018(1) -.002(1) -.003(1) -.001(1)
B2 B.833+ 0.011(1) 0.010(1) 0.011(1) -.001(1) 0.001(1) 0.001(1)
O2 O2- 0.023(1) 0.014(1) 0.014(1) 0.001(1) 0.004(1) -.003(1)
B3 B.833+ 0.011(1) 0.008(1) 0.012(1) 0.001(1) 0.000(1) 0.001(1)
O3 O2- 0.016(1) 0.009(1) 0.023(1) -.002(1) -.005(1) -.002(1)
B4 B.833+ 0.009(1) 0.009(1) 0.012(1) -.001(1) 0.001(1) 0.002(1)
O4 O2- 0.013(1) 0.015(1) 0.022(1) 0.000(1) 0.007(1) 0.000(1)
B5 B.833+ 0.010(1) 0.009(1) 0.013(1) 0.000(1) 0.001(1) -.001(1)
O5 O2- 0.011(1) 0.015(1) 0.024(1) 0.003(1) -.003(1) -.003(1)
B6 B.833+ 0.010(1) 0.010(1) 0.011(1) 0.000(1) -.001(1) 0.001(1)
O6 O2- 0.015(1) 0.017(1) 0.017(1) 0.000(1) 0.002(1) 0.007(1)
#End of data_51304-ICSD


