data_249969-ICSD
#?2014 by Fachinformationszentrum Karlsruhe, and the U.S. Secretary of 
#Commerce on behalf of the United States.  All rights reserved.
_database_code_ICSD                249969
_audit_creation_date               2010/08/01
_chemical_name_systematic
;
Potassium Silver Neptunium(IV) Trisulfide
;
_chemical_formula_structural       'K Ag Np S3'
_chemical_formula_sum              'Ag1 K1 Np1 S3'
_publ_section_title
;
Quaternary neptunium compounds: Syntheses and characterization of K 
Cu Np S3, Rb Cu Np S3, Cs Cu Np S3, K Ag Np S3, and Cs Ag Np S3
;
loop_
_citation_id
_citation_journal_abbrev
_citation_year
_citation_journal_volume
_citation_journal_issue
_citation_page_first
_citation_page_last
_citation_journal_id_ASTM
primary 'Inorganic Chemistry' 2009 48 24 11513 11517 INOCAJ
_publ_author_name
;
Wells, D.M.;Jin Geng Bang;Skanthakumar, S.;Haire, R.G.;Soderholm, 
L.;Ibers, J.
;
_cell_length_a                     4.0575(17)
_cell_length_b                     13.989(6)
_cell_length_c                     10.422(4)
_cell_angle_alpha                  90.00
_cell_angle_beta                   90.00
_cell_angle_gamma                  90.00
_cell_volume                       591.56
_cell_formula_units_Z              4
_symmetry_space_group_name_H-M     'C m c m'
_symmetry_Int_Tables_number        63
_refine_ls_R_factor_all            .0292
loop_
_symmetry_equiv_pos_site_id
_symmetry_equiv_pos_as_xyz
  1	'-x, y, -z+.5'
  2	'-x, -y, z+.5'
  3	'-x, y, z'
  4	'-x, -y, -z'
  5	'x, -y, z+.5'
  6	'x, y, -z+.5'
  7	'x, -y, -z'
  8	'x, y, z'
  9	'-x+.5, y+.5, -z+.5'
 10	'-x+.5, -y+.5, z+.5'
 11	'-x+.5, y+.5, z'
 12	'-x+.5, -y+.5, -z'
 13	'x+.5, -y+.5, z+.5'
 14	'x+.5, y+.5, -z+.5'
 15	'x+.5, -y+.5, -z'
 16	'x+.5, y+.5, z'
loop_
_atom_type_symbol
_atom_type_oxidation_number
Ag1+	1
K1+	1
Np4+	4
S2-	-2
loop_
_atom_site_label
_atom_site_type_symbol
_atom_site_symmetry_multiplicity
_atom_site_Wyckoff_symbol
_atom_site_fract_x
_atom_site_fract_y
_atom_site_fract_z
_atom_site_occupancy
_atom_site_attached_hydrogens
_atom_site_U_iso_or_equiv
K1 K1+ 4 c 0.0000 0.74013(15) 0.2500 1 0 0.0247(4) 
Ag1 Ag1+ 4 c 0.0000 0.45370(6) 0.2500 1 0 0.01907(15) 
Np1 Np4+ 4 a 0.0000 0.0000 0.0000 1 0 0.01093(9) 
S1 S2- 4 c 0.0000 0.06374(15) 0.2500 1 0 0.0134(4) 
S2 S2- 8 f 0.0000 0.37303(11) 0.03885(13) 1 0 0.0145(3) 

loop_
_atom_site_aniso_label
_atom_site_aniso_type_symbol
_atom_site_aniso_U_11
_atom_site_aniso_U_22
_atom_site_aniso_U_33
_atom_site_aniso_U_12
_atom_site_aniso_U_13
_atom_site_aniso_U_23
K1 K1+ 0.0192(10) 0.0193(10) 0.0355(10) 0.000 0.000 0.000
Ag1 Ag1+ 0.0172(3) 0.0291(4) 0.0109(3) 0.000 0.000 0.000
Np1 Np4+ 0.00809(14) 0.01736(17) 0.00734(13) 0.000 0.000 0.00011(12)
S1 S2- 0.0121(9) 0.0194(10) 0.0087(8) 0.000 0.000 0.000
S2 S2- 0.0131(7) 0.0170(7) 0.0134(5) 0.000 0.000 -0.0012(5)
#End of data_249969-ICSD


