data_418086-ICSD
#?2014 by Fachinformationszentrum Karlsruhe, and the U.S. Secretary of 
#Commerce on behalf of the United States.  All rights reserved.
_database_code_ICSD                418086
_audit_creation_date               2010/08/01
_chemical_name_systematic
;
Dirubidium Zinc Bis(dihydrogendiphosphate(V)) Dihydrate
;
_chemical_formula_structural       'Rb2 Zn (H2 P2 O7)2 (H2 O)2'
_chemical_formula_sum              'H8 O16 P4 Rb2 Zn1'
_publ_section_title
;
Two new acidic diphosphates Rb2 M (H2 P2 O7)2 * 2(H2 O) (M= Zn and 
Mg): crystal structures and vibrational study
;
loop_
_citation_id
_citation_journal_abbrev
_citation_year
_citation_journal_volume
_citation_page_first
_citation_page_last
_citation_journal_id_ASTM
primary 'Journal of Alloys and Compounds' 2010 492 358 362 JALCEU
_publ_author_name
;
Essehli, R.;El Bali, B.;Lachkar, M.;Cruciani, G.
;
_cell_length_a                     6.9573(10)
_cell_length_b                     7.3615(10)
_cell_length_c                     7.7938(10)
_cell_angle_alpha                  81.851(10)
_cell_angle_beta                   70.622(10)
_cell_angle_gamma                  86.263(10)
_cell_volume                       372.68
_cell_formula_units_Z              1
_symmetry_space_group_name_H-M     'P -1'
_symmetry_Int_Tables_number        2
_refine_ls_R_factor_all            .0277
loop_
_symmetry_equiv_pos_site_id
_symmetry_equiv_pos_as_xyz
  1	'-x, -y, -z'
  2	'x, y, z'
loop_
_atom_type_symbol
_atom_type_oxidation_number
H1+	1
O2-	-2
P5+	5
Rb1+	1
Zn2+	2
loop_
_atom_site_label
_atom_site_type_symbol
_atom_site_symmetry_multiplicity
_atom_site_Wyckoff_symbol
_atom_site_fract_x
_atom_site_fract_y
_atom_site_fract_z
_atom_site_occupancy
_atom_site_attached_hydrogens
_atom_site_U_iso_or_equiv
Zn1 Zn2+ 1 c 0.0000 0.5000 0.0000 1 0 0.0164(2) 
P1 P5+ 2 i 0.26469(12) 0.19938(11) -0.25446(10) 1 0 0.0152(2) 
P2 P5+ 2 i -0.15092(12) 0.26296(11) -0.25647(10) 1 0 0.0155(2) 
O1 O2- 2 i 0.2557(4) 0.3471(3) -0.1384(3) 1 0 0.0236(5) 
O2 O2- 2 i 0.4526(4) 0.2169(4) -0.4309(3) 1 0 0.0246(5) 
H1 H1+ 2 i 0.564(4) 0.251(6) -0.410(6) 1 0 0.030 
O3 O2- 2 i 0.2460(4) 0.0067(3) -0.1560(3) 1 0 0.0282(6) 
O4 O2- 2 i 0.0891(3) 0.2315(3) -0.3482(3) 1 0 0.0224(5) 
O5 O2- 2 i -0.1883(4) 0.3831(3) -0.1078(3) 1 0 0.0207(5) 
O6 O2- 2 i -0.2269(4) 0.3380(4) -0.4121(3) 1 0 0.0239(5) 
O7 O2- 2 i -0.2434(4) 0.0708(3) -0.1713(3) 1 0 0.0261(5) 
H2 H1+ 2 i -0.204(7) 0.030(6) -0.074(4) 1 0 0.031 
O8 O2- 2 i 0.0573(4) 0.7122(3) -0.2235(3) 1 0 0.0276(6) 
H3 H1+ 2 i 0.099(7) 0.707(5) -0.3377(18) 1 0 0.033 
H4 H1+ 2 i 0.107(6) 0.806(4) -0.205(5) 1 0 0.033 
Rb1 Rb1+ 2 i -0.40598(5) 0.71645(5) -0.21091(4) 1 0 0.02972(19) 

loop_
_atom_site_aniso_label
_atom_site_aniso_type_symbol
_atom_site_aniso_U_11
_atom_site_aniso_U_22
_atom_site_aniso_U_33
_atom_site_aniso_U_12
_atom_site_aniso_U_13
_atom_site_aniso_U_23
Zn1 Zn2+ 0.0169(3) 0.0169(3) 0.0171(3) 0.0001(2) -0.0067(2) -0.0052(2)
P1 P5+ 0.0144(4) 0.0181(4) 0.0141(4) 0.0003(3) -0.0052(3) -0.0039(3)
P2 P5+ 0.0149(4) 0.0169(4) 0.0163(4) -0.0012(3) -0.0068(3) -0.0027(3)
O1 O2- 0.0217(12) 0.0284(13) 0.0258(12) 0.0029(9) -0.0106(10) -0.0152(10)
O2 O2- 0.0157(11) 0.0424(15) 0.0159(11) -0.0040(10) -0.0031(9) -0.0077(9)
O3 O2- 0.0375(14) 0.0211(13) 0.0284(13) -0.0037(10) -0.0151(11) 0.0010(10)
O4 O2- 0.0149(11) 0.0341(14) 0.0212(11) 0.0025(9) -0.0079(9) -0.0094(10)
O5 O2- 0.0198(11) 0.0221(12) 0.0233(11) -0.0010(9) -0.0092(9) -0.0077(9)
O6 O2- 0.0226(12) 0.0326(14) 0.0181(11) -0.0039(10) -0.0101(9) 0.0009(9)
O7 O2- 0.0344(14) 0.0213(12) 0.0249(12) -0.0086(10) -0.0121(10) -0.0010(9)
O8 O2- 0.0377(15) 0.0255(14) 0.0184(11) -0.0068(11) -0.0070(10) -0.0011(9)
Rb1 Rb1+ 0.0336(3) 0.0301(3) 0.0273(3) 0.00611(17) -0.01345(18) 
-0.00401(16)
#End of data_418086-ICSD


