data_169474-ICSD
#?2014 by Fachinformationszentrum Karlsruhe, and the U.S. Secretary of 
#Commerce on behalf of the United States.  All rights reserved.
_database_code_ICSD                169474
_audit_creation_date               2011/08/01
_chemical_name_systematic          'Lithium Iron Digermanate'
_chemical_formula_structural       'Li Fe (Ge2 O6)'
_chemical_formula_sum              'Fe1 Ge2 Li1 O6'
_publ_section_title
;
Thermal expansion and high-temperature P21/c - C2/c phase transition 
in clinopyroxene-type Li Fe Ge2 O6 and comparison to Na Fe (Si, Ge)2 
O6
;
loop_
_citation_id
_citation_journal_abbrev
_citation_year
_citation_journal_volume
_citation_page_first
_citation_page_last
_citation_journal_id_ASTM
primary 'Physics and Chemistry of Minerals' 2010 37 685 704 PCMIDU
_publ_author_name
;
Redhammer, G.J.;Camara, F.;Alvaro, M.;Nestola, F.;Tippelt, G.;Prinz, 
S.;Simons, J.;Roth, G.;Amthauer, G.
;
_cell_length_a                     9.8712(6)
_cell_length_b                     8.8052(6)
_cell_length_c                     5.3703(4)
_cell_angle_alpha                  90.
_cell_angle_beta                   108.841(3)
_cell_angle_gamma                  90.
_cell_volume                       441.76
_cell_formula_units_Z              4
_symmetry_space_group_name_H-M     'P 1 21/c 1'
_symmetry_Int_Tables_number        14
_refine_ls_R_factor_all            .0275
loop_
_symmetry_equiv_pos_site_id
_symmetry_equiv_pos_as_xyz
  1	'x, -y+.5, z+.5'
  2	'-x, -y, -z'
  3	'-x, y+.5, -z+.5'
  4	'x, y, z'
loop_
_atom_type_symbol
_atom_type_oxidation_number
Fe3+	3
Ge4+	4
Li1+	1
O2-	-2
loop_
_atom_site_label
_atom_site_type_symbol
_atom_site_symmetry_multiplicity
_atom_site_Wyckoff_symbol
_atom_site_fract_x
_atom_site_fract_y
_atom_site_fract_z
_atom_site_occupancy
_atom_site_attached_hydrogens
_atom_site_U_iso_or_equiv
Li1 Li1+ 4 e 0.2583(7) 0.4892(8) 0.7214(3) 1. 0 0.0155(15) 
Fe1 Fe3+ 4 e 0.25078(5) 0.65061(6) 0.2138(1) 1. 0 0.0057(2) 
Ge1 Ge4+ 4 e 0.04590(4) 0.34198(4) 0.28081(8) 1. 0 0.0060(2) 
Ge2 Ge4+ 4 e 0.55243(4) 0.83949(4) 0.23031(8) 1. 0 0.0058(2) 
O1 O2- 4 e -0.1412(3) 0.3321(3) 0.1755(5) 1. 0 0.0065(6) 
O2 O2- 4 e 0.1143(3) 0.5216(3) 0.28545(5) 1. 0 0.0107(6) 
O3 O2- 4 e 0.1173(3) 0.2900(3) 0.6138(5) 1. 0 0.0088(6) 
O4 O2- 4 e 0.3643(3) 0.8314(3) 0.1074(5) 1. 0 0.0069(6) 
O5 O2- 4 e 0.6297(3) 0.0044(3) 0.3847(5) 1. 0 0.0083(5) 
O6 O2- 4 e 0.6125(3) 0.6896(3) 0.4579(5) 1. 0 0.0068(5) 

#End of data_169474-ICSD


