data_59942-ICSD
#?2014 by Fachinformationszentrum Karlsruhe, and the U.S. Secretary of 
#Commerce on behalf of the United States.  All rights reserved.
_database_code_ICSD                59942
_audit_creation_date               2005/10/01
_chemical_name_systematic
;
Dipotassium Hydrogen Chromatoarsenate - Phase Ii
;
_chemical_formula_structural       'K2 (H Cr2 As O10)'
_chemical_formula_sum              'H1 As1 Cr2 K2 O10'
_publ_section_title
;
K2 [H Cr2 As O10]: redetermination of phase II and the predicted 
structure of phase I
;
loop_
_citation_id
_citation_journal_abbrev
_citation_year
_citation_journal_volume
_citation_page_first
_citation_page_last
_citation_journal_id_ASTM
primary 'Acta Crystallographica, Section C: Crystal Structure Communications'
 2004 60 i113 i116 ACSCEE
_publ_author_name
;
Weakley, T.J.R.;Ylvisaker, E.R.;Yager, R.J.;Wu, P.;Photinos, 
P.;Abrahams, S.C.
;
_cell_length_a                     7.6931(8)
_cell_length_b                     7.6931(8)
_cell_length_c                     14.623(3)
_cell_angle_alpha                  90.00
_cell_angle_beta                   90.00
_cell_angle_gamma                  120.00
_cell_volume                       749.5
_cell_formula_units_Z              3
_symmetry_space_group_name_H-M     'P 31'
_symmetry_Int_Tables_number        144
_refine_ls_R_factor_all            .0505
loop_
_symmetry_equiv_pos_site_id
_symmetry_equiv_pos_as_xyz
  1	'-x+y, -x, z+.6667'
  2	'-y, x-y, z+.3333'
  3	'x, y, z'
loop_
_atom_type_symbol
_atom_type_oxidation_number
As5+	5
Cr6+	6
H1+	1
K1+	1
O2-	-2
loop_
_atom_site_label
_atom_site_type_symbol
_atom_site_symmetry_multiplicity
_atom_site_Wyckoff_symbol
_atom_site_fract_x
_atom_site_fract_y
_atom_site_fract_z
_atom_site_occupancy
_atom_site_attached_hydrogens
_atom_site_U_iso_or_equiv
As1 As5+ 3 a 0.10826(13) -0.02094(14) 0.49989(8) 1 0 0.01945(18) 
Cr1 Cr6+ 3 a 0.0041(2) -0.4249(2) 0.60617(10) 1 0 0.0200(3) 
Cr2 Cr6+ 3 a 0.4201(2) 0.4191(2) 0.43023(10) 1 0 0.0201(3) 
O1 O2- 3 a -0.1383(15) -0.3891(14) 0.6749(7) 1 0 0.039(2) 
O2 O2- 3 a -0.1214(19) -0.5908(15) 0.5301(7) 1 0 0.055(3) 
O3 O2- 3 a 0.1440(15) -0.4780(16) 0.6664(8) 1 0 0.046(2) 
O4 O2- 3 a 0.1691(11) -0.1884(12) 0.5449(6) 1 0 0.0289(16) 
O5 O2- 3 a -0.0079(14) -0.0971(13) 0.4020(5) 1 0 0.0361(19) 
O6 O2- 3 a -0.0392(14) 0.0180(15) 0.5724(5) 1 0 0.0349(18) 
O7 O2- 3 a 0.3389(12) 0.1870(11) 0.4962(6) 1 0 0.0310(17) 
O8 O2- 3 a 0.2329(16) 0.4022(16) 0.3750(8) 1 0 0.046(2) 
O9 O2- 3 a 0.5089(19) 0.5990(14) 0.5027(6) 1 0 0.047(3) 
O10 O2- 3 a 0.5860(14) 0.4415(15) 0.3572(6) 1 0 0.0375(19) 
K1 K1+ 3 a -0.0199(4) -0.4513(3) 0.34633(17) 1 0 0.0288(4) 
K2 K1+ 3 a 0.6027(4) -0.0061(4) 0.51916(17) 1 0 0.0292(4) 
H1 H1+ 3 a 0.0256 -0.0279 0.3206 1 0 0.050 

loop_
_atom_site_aniso_label
_atom_site_aniso_type_symbol
_atom_site_aniso_U_11
_atom_site_aniso_U_22
_atom_site_aniso_U_33
_atom_site_aniso_U_12
_atom_site_aniso_U_13
_atom_site_aniso_U_23
As1 As5+ 0.0201(4) 0.0202(4) 0.0171(3) 0.0094(4) -0.0003(3) 0.0027(3)
Cr1 Cr6+ 0.0197(7) 0.0170(6) 0.0210(7) 0.0075(6) 0.0006(5) 0.0047(5)
Cr2 Cr6+ 0.0223(7) 0.0167(6) 0.0211(6) 0.0096(6) 0.0005(5) 0.0011(5)
O1 O2- 0.040(5) 0.035(5) 0.048(5) 0.023(4) 0.016(4) 0.012(4)
O2 O2- 0.072(8) 0.030(5) 0.031(4) 0.002(5) -0.004(4) -0.005(3)
O3 O2- 0.034(5) 0.046(6) 0.060(6) 0.022(4) -0.002(4) 0.020(5)
O4 O2- 0.022(3) 0.030(4) 0.038(4) 0.015(3) 0.007(3) 0.016(3)
O5 O2- 0.043(5) 0.039(5) 0.013(3) 0.010(4) -0.007(3) -0.002(3)
O6 O2- 0.050(5) 0.049(5) 0.021(4) 0.036(5) -0.004(3) -0.007(3)
O7 O2- 0.020(3) 0.017(3) 0.042(4) -0.002(3) -0.006(3) 0.011(3)
O8 O2- 0.045(5) 0.048(6) 0.052(6) 0.029(5) -0.003(4) 0.008(4)
O9 O2- 0.082(8) 0.028(4) 0.025(4) 0.024(5) 0.002(4) -0.007(3)
O10 O2- 0.037(5) 0.047(5) 0.030(4) 0.023(4) 0.005(3) 0.005(3)
K1 K1+ 0.0296(11) 0.0286(11) 0.0291(10) 0.0153(9) 0.0029(8) 0.0010(8)
K2 K1+ 0.0298(11) 0.0278(11) 0.0278(10) 0.0128(9) -0.0017(9) -0.0010(8)
#End of data_59942-ICSD


