data_200291-ICSD
#?2014 by Fachinformationszentrum Karlsruhe, and the U.S. Secretary of 
#Commerce on behalf of the United States.  All rights reserved.
_database_code_ICSD                200291
_audit_creation_date               1980/01/01
_audit_update_record               2012/08/01
_chemical_name_systematic
;
Dipotassium Dicadmium Tris(sulfate(VI))
;
_chemical_formula_structural       'K2 Cd2 (S O4)3'
_chemical_formula_sum              'Cd2 K2 O12 S3'
_publ_section_title
;
Piezoelectric langbeinite-type K2 Cd2 (S O4)3 structure at four 
temperatures below and one above the 432 K ferroelastic- paraelastic 
transition
;
loop_
_citation_id
_citation_journal_abbrev
_citation_year
_citation_journal_volume
_citation_page_first
_citation_page_last
_citation_journal_id_ASTM
primary 'Journal of Chemical Physics' 1978 68 1926 1935 JCPSA6
2 'Phase Transition' 1992 38 127 220 PHTRDP
_publ_author_name
;
Abrahams, S.C.;Lissalde, F.;Bernstein, J.L.
;
_cell_length_a                     10.2084(8)
_cell_length_b                     10.2813(8)
_cell_length_c                     10.1684(8)
_cell_angle_alpha                  90.
_cell_angle_beta                   90.
_cell_angle_gamma                  90.
_cell_volume                       1067.23
_cell_formula_units_Z              4
_symmetry_space_group_name_H-M     'P 21 21 21'
_symmetry_Int_Tables_number        19
_refine_ls_R_factor_all            .028
loop_
_symmetry_equiv_pos_site_id
_symmetry_equiv_pos_as_xyz
  1	'-x, y+.5, -z+.5'
  2	'x+.5, -y+.5, -z'
  3	'-x+.5, -y, z+.5'
  4	'x, y, z'
loop_
_atom_type_symbol
_atom_type_oxidation_number
Cd2+	2
K1+	1
O2-	-2
S6+	6
loop_
_atom_site_label
_atom_site_type_symbol
_atom_site_symmetry_multiplicity
_atom_site_Wyckoff_symbol
_atom_site_fract_x
_atom_site_fract_y
_atom_site_fract_z
_atom_site_occupancy
_atom_site_attached_hydrogens
K1 K1+ 4 a 0.17012(9) 0.31356(10) 0.69223(10) 1. 0 
K2 K1+ 4 a 0.03815(10) 0.05562(12) 0.06101(10) 1. 0 
Cd1 Cd2+ 4 a 0.30681(2) 0.34105(3) 0.33136(3) 1. 0 
Cd2 Cd2+ 4 a 0.39831(2) 0.09039(3) 0.92580(3) 1. 0 
S1 S6+ 4 a 0.21410(8) 0.37222(8) 0.02556(9) 1. 0 
S2 S6+ 4 a 0.38451(8) 0.00655(9) 0.24697(9) 1. 0 
S3 S6+ 4 a 0.00036(8) 0.21604(8) 0.36900(8) 1. 0 
O1 O2- 4 a 0.3056(3) 0.2628(3) 0.0336(3) 1. 0 
O2 O2- 4 a 0.0824(3) 0.3259(3) 0.9880(3) 1. 0 
O3 O2- 4 a 0.2593(3) 0.4634(3) 0.9226(3) 1. 0 
O4 O2- 4 a 0.2110(3) 0.4345(3) 0.1572(3) 1. 0 
O5 O2- 4 a 0.3054(3) 0.9308(3) 0.3384(3) 1. 0 
O6 O2- 4 a 0.3909(3) 0.1427(3) 0.2881(3) 1. 0 
O7 O2- 4 a 0.5176(3) 0.9550(3) 0.2517(4) 1. 0 
O8 O2- 4 a 0.3284(4) 0.9881(4) 0.1161(3) 1. 0 
O9 O2- 4 a 0.0561(3) 0.0940(3) 0.3170(3) 1. 0 
O10 O2- 4 a 0.9031(3) 0.1885(4) 0.4702(3) 1. 0 
O11 O2- 4 a 0.9353(3) 0.2817(4) 0.2570(4) 1. 0 
O12 O2- 4 a 0.1063(3) 0.2980(4) 0.4217(3) 1. 0 

#End of data_200291-ICSD


