data_68249-ICSD
#?2014 by Fachinformationszentrum Karlsruhe, and the U.S. Secretary of 
#Commerce on behalf of the United States.  All rights reserved.
_database_code_ICSD                68249
_audit_creation_date               1991/07/10
_audit_update_record               2003/04/01
_chemical_name_systematic
;
Potassium Gadolinium Bis(tungstate)
;
_chemical_formula_structural       'K Gd (W O4)2'
_chemical_formula_sum              'Gd1 K1 O8 W2'
_publ_section_title
;
Crystal structure and Raman scattering in K Gd (W O4)2 crystals
;
loop_
_citation_id
_citation_journal_abbrev
_citation_year
_citation_journal_volume
_citation_page_first
_citation_page_last
_citation_journal_id_ASTM
primary 'Lietuvos Fizikos Rinkinys' 1988 28 224 235 LFRMA7
2 'Phase Transition' 1992 38 127 220 PHTRDP
_publ_author_name
;
Viscakas, J.;Mochalov, I.;Mikhailov, A.;Klevtsova, R.;Liubimov, A.
;
_cell_length_a                     8.098(4)
_cell_length_b                     10.417(4)
_cell_length_c                     7.583(3)
_cell_angle_alpha                  90.
_cell_angle_beta                   94.43(2)
_cell_angle_gamma                  90.
_cell_volume                       637.77
_cell_formula_units_Z              4
_symmetry_space_group_name_H-M     'C 1 2/c 1'
_symmetry_Int_Tables_number        15
loop_
_symmetry_equiv_pos_site_id
_symmetry_equiv_pos_as_xyz
  1	'x, -y, z+.5'
  2	'-x, -y, -z'
  3	'-x, y, -z+.5'
  4	'x, y, z'
  5	'x+.5, -y+.5, z+.5'
  6	'-x+.5, -y+.5, -z'
  7	'-x+.5, y+.5, -z+.5'
  8	'x+.5, y+.5, z'
loop_
_atom_type_symbol
_atom_type_oxidation_number
Gd3+	3
K1+	1
O2-	-2
W6+	6
loop_
_atom_site_label
_atom_site_type_symbol
_atom_site_symmetry_multiplicity
_atom_site_Wyckoff_symbol
_atom_site_fract_x
_atom_site_fract_y
_atom_site_fract_z
_atom_site_occupancy
_atom_site_attached_hydrogens
_atom_site_B_iso_or_equiv
W1 W6+ 8 f 0.1984(1) -.0001(1) 0.4589(1) 1. 0 0.24 
Gd1 Gd3+ 4 e 0.5 0.2284(1) 0.25 1. 0 0.28 
K1 K1+ 4 e 0.5 0.8079(6) 0.25 1. 0 1.54 
O1 O2- 8 f 0.3727(16) -.0764(14) 0.5588(22) 1. 0 0.59 
O2 O2- 8 f 0.0242(15) -.1074(12) 0.5515(21) 1. 0 0.28 
O3 O2- 8 f 0.2740(17) 0.1593(12) 0.4024(22) 1. 0 0.47 
O4 O2- 8 f 0.1882(15) -.0758(13) 0.2492(23) 1. 0 0.53 

#End of data_68249-ICSD


