data_154175-ICSD
#?2014 by Fachinformationszentrum Karlsruhe, and the U.S. Secretary of 
#Commerce on behalf of the United States.  All rights reserved.
_database_code_ICSD                154175
_audit_creation_date               2007/04/01
_chemical_name_systematic          'Dilithium Strontium Ditantalate'
_chemical_formula_structural       'Li2 Sr (Ta2 O7)'
_chemical_formula_sum              'Li2 O7 Sr1 Ta2'
_publ_section_title
;
Stacking faults in protonated layered perovskite phases: DIFFaX 
simulation studies on H2 Sr Ta2 O7
;
loop_
_citation_id
_citation_journal_abbrev
_citation_year
_citation_journal_volume
_citation_page_first
_citation_page_last
_citation_journal_id_ASTM
primary 'Solid State Sciences' 2005 7 530 538 SSSCFJ
_publ_author_name
;
Crosnier-Lopez, M.P.;Fourquet, J L.
;
_cell_length_a                     3.9499(1)
_cell_length_b                     3.9499(1)
_cell_length_c                     18.200(3)
_cell_angle_alpha                  90.
_cell_angle_beta                   90.
_cell_angle_gamma                  90.
_cell_volume                       283.95
_cell_formula_units_Z              2
_symmetry_space_group_name_H-M     'I 4/m m m'
_symmetry_Int_Tables_number        139
_refine_ls_R_factor_all            .018
loop_
_symmetry_equiv_pos_site_id
_symmetry_equiv_pos_as_xyz
  1	'y, x, -z'
  2	'-y, -x, -z'
  3	'-y, x, -z'
  4	'y, -x, -z'
  5	'-x, y, -z'
  6	'x, -y, -z'
  7	'x, y, -z'
  8	'-x, -y, -z'
  9	'-y, -x, z'
 10	'y, x, z'
 11	'y, -x, z'
 12	'-y, x, z'
 13	'x, -y, z'
 14	'-x, y, z'
 15	'-x, -y, z'
 16	'x, y, z'
 17	'y+.5, x+.5, -z+.5'
 18	'-y+.5, -x+.5, -z+.5'
 19	'-y+.5, x+.5, -z+.5'
 20	'y+.5, -x+.5, -z+.5'
 21	'-x+.5, y+.5, -z+.5'
 22	'x+.5, -y+.5, -z+.5'
 23	'x+.5, y+.5, -z+.5'
 24	'-x+.5, -y+.5, -z+.5'
 25	'-y+.5, -x+.5, z+.5'
 26	'y+.5, x+.5, z+.5'
 27	'y+.5, -x+.5, z+.5'
 28	'-y+.5, x+.5, z+.5'
 29	'x+.5, -y+.5, z+.5'
 30	'-x+.5, y+.5, z+.5'
 31	'-x+.5, -y+.5, z+.5'
 32	'x+.5, y+.5, z+.5'
loop_
_atom_type_symbol
_atom_type_oxidation_number
Li1+	1
O2-	-2
Sr2+	2
Ta5+	5
loop_
_atom_site_label
_atom_site_type_symbol
_atom_site_symmetry_multiplicity
_atom_site_Wyckoff_symbol
_atom_site_fract_x
_atom_site_fract_y
_atom_site_fract_z
_atom_site_occupancy
_atom_site_attached_hydrogens
_atom_site_B_iso_or_equiv
Ta1 Ta5+ 4 e 0 0 0.38532(6) 1. 0 0.60(1) 
Sr1 Sr2+ 2 a 0 0 0 1. 0 1.01(4) 
O1 O2- 8 g 0 0.5 0.1014(4) 1. 0 1.1(3) 
O2 O2- 4 e 0 0 0.2817(5) 1. 0 1.1(3) 
O3 O2- 2 b 0 0 0.5 1. 0 1.1(3) 
Li1 Li1+ 4 d 0 0.5 0.250 1. 0 2.6(8) 

#End of data_154175-ICSD


