data_182047-ICSD
#?2014 by Fachinformationszentrum Karlsruhe, and the U.S. Secretary of 
#Commerce on behalf of the United States.  All rights reserved.
_database_code_ICSD                182047
_audit_creation_date               2012/02/01
_chemical_name_systematic          'Silver Niobate'
_chemical_formula_structural       'Ag (Nb O3)'
_chemical_formula_sum              'Ag1 Nb1 O3'
_publ_section_title
;
Structure of ferroelectric silver niobate Ag Nb O3
;
loop_
_citation_id
_citation_journal_abbrev
_citation_year
_citation_journal_volume
_citation_page_first
_citation_page_last
_citation_journal_id_ASTM
primary 'Chemistry of Materials' 2011 23 1643 1645 CMATEX
_publ_author_name
;
Yashima, M.;Matsuyama, S.;Sano, R.;Itoh, M.;Tsuda, K.;Fu, De Sheng
;
_cell_length_a                     15.64773(3)
_cell_length_b                     5.55199(1)
_cell_length_c                     5.60908(1)
_cell_angle_alpha                  90.
_cell_angle_beta                   90.
_cell_angle_gamma                  90.
_cell_volume                       487.29
_cell_formula_units_Z              8
_symmetry_space_group_name_H-M     'P m c 21'
_symmetry_Int_Tables_number        26
_refine_ls_R_factor_all            .0147
loop_
_symmetry_equiv_pos_site_id
_symmetry_equiv_pos_as_xyz
  1	'x, -y, z+.5'
  2	'-x, -y, z+.5'
  3	'-x, y, z'
  4	'x, y, z'
loop_
_atom_type_symbol
_atom_type_oxidation_number
Ag1+	1
Nb5+	5
O2-	-2
loop_
_atom_site_label
_atom_site_type_symbol
_atom_site_symmetry_multiplicity
_atom_site_Wyckoff_symbol
_atom_site_fract_x
_atom_site_fract_y
_atom_site_fract_z
_atom_site_occupancy
_atom_site_attached_hydrogens
_atom_site_B_iso_or_equiv
Ag1 Ag1+ 4 c 0.7499(3) 0.7468(3) 0.2601(5) 1.0 0 0.93(4) 
Ag2 Ag1+ 2 b 0.5 0.7466(6) 0.2379(5) 1.0 0 0.93(4) 
Ag3 Ag1+ 2 a 0 0.7424(4) 0.2759(6) 1.0 0 0.93(4) 
Nb1 Nb5+ 4 c 0.6252(2) 0.7525(5) 0.7332(2) 1.0 0 0.38(2) 
Nb2 Nb5+ 4 c 0.1253(2) 0.24159 0.27981 1.0 0 0.38(2) 
O1 O2- 4 c 0.7521(9) 0.7035(12) 0.783(2) 1.0 0 0.74(2) 
O2 O2- 2 b 0.5 0.804(3) 0.796(3) 1.0 0 0.74(2) 
O3 O2- 4 c 0.6057(7) 0.5191(18) 0.4943(18) 1.0 0 0.74(2) 
O4 O2- 4 c 0.6423(7) 0.0164(18) 0.539(2) 1.0 0 0.74(2) 
O5 O2- 2 a 0 0.191(3) 0.256(3) 1.0 0 0.74(2) 
O6 O2- 4 c 0.1339(9) 0.0410(17) 0.980(2) 1.0 0 0.74(2) 
O7 O2- 4 c 0.1154(8) 0.4573(17) 0.5514(19) 1.0 0 0.74(2) 

#End of data_182047-ICSD


