data_415671-ICSD
#?2014 by Fachinformationszentrum Karlsruhe, and the U.S. Secretary of 
#Commerce on behalf of the United States.  All rights reserved.
_database_code_ICSD                415671
_audit_creation_date               2006/10/01
_chemical_name_systematic
;
Potassium Erbium Heptathiodiphosphate
;
_chemical_formula_structural       'K Er P2 S7'
_chemical_formula_sum              'Er1 K1 P2 S7'
_publ_section_title
;
Drei Alkalimetall-Erbium Thiophosphate: von der Schichtstruktur bei K 
Er [P2 S7] zur dreidimensionalen Vernetzung in Na Er [P2 S6] und Cs3 
Er5 [P S4]6
;
loop_
_citation_id
_citation_journal_abbrev
_citation_year
_citation_journal_volume
_citation_journal_issue
_citation_page_first
_citation_page_last
_citation_journal_id_ASTM
primary 'Zeitschrift fuer Anorganische und Allgemeine Chemie (1950) (DE)'
 2006 632 1 42 48 ZAACAB
_publ_author_name                  'Komm, T.;Schleid, T.'
_cell_length_a                     9.5048(7)
_cell_length_b                     12.2306(9)
_cell_length_c                     8.9421(6)
_cell_angle_alpha                  90.00
_cell_angle_beta                   90.132(4)
_cell_angle_gamma                  90.00
_cell_volume                       1039.51
_cell_formula_units_Z              4
_symmetry_space_group_name_H-M     'P 1 21/c 1'
_symmetry_Int_Tables_number        14
_refine_ls_R_factor_all            .0463
loop_
_symmetry_equiv_pos_site_id
_symmetry_equiv_pos_as_xyz
  1	'x, -y+.5, z+.5'
  2	'-x, -y, -z'
  3	'-x, y+.5, -z+.5'
  4	'x, y, z'
loop_
_atom_type_symbol
_atom_type_oxidation_number
Er3+	3
K1+	1
P5+	5
S2-	-2
loop_
_atom_site_label
_atom_site_type_symbol
_atom_site_symmetry_multiplicity
_atom_site_Wyckoff_symbol
_atom_site_fract_x
_atom_site_fract_y
_atom_site_fract_z
_atom_site_occupancy
_atom_site_attached_hydrogens
_atom_site_U_iso_or_equiv
K1 K1+ 4 e 0.61082(16) 0.19212(13) 0.36935(15) 1 0 0.0410(4) 
Er1 Er3+ 4 e 0.14363(3) 0.35707(2) 0.10716(3) 1 0 0.02471(11) 
P1 P5+ 4 e 0.27618(16) 0.39603(12) 0.47593(15) 1 0 0.0237(3) 
P2 P5+ 4 e 0.82126(16) 0.46518(12) 0.19907(15) 1 0 0.0245(3) 
S1 S2- 4 e 0.37215(17) 0.44355(13) 0.28702(15) 1 0 0.0291(4) 
S2 S2- 4 e 0.37199(16) 0.20988(12) 0.11431(16) 1 0 0.0279(3) 
S3 S2- 4 e 0.09222(16) 0.32301(12) 0.41997(15) 1 0 0.0268(3) 
S4 S2- 4 e 0.75574(16) 0.44813(12) 0.42505(14) 1 0 0.0265(3) 
S5 S2- 4 e 0.32979(16) 0.03013(13) 0.42912(15) 1 0 0.0290(4) 
S6 S2- 4 e 0.00136(16) 0.05583(12) 0.31943(15) 1 0 0.0276(3) 
S7 S2- 4 e 0.85487(16) 0.30616(12) 0.14468(16) 1 0 0.0269(3) 

loop_
_atom_site_aniso_label
_atom_site_aniso_type_symbol
_atom_site_aniso_U_11
_atom_site_aniso_U_22
_atom_site_aniso_U_33
_atom_site_aniso_U_12
_atom_site_aniso_U_13
_atom_site_aniso_U_23
K1 K1+ 0.0441(9) 0.0418(9) 0.0369(8) -0.0038(7) -0.0008(7) 0.0034(6)
Er1 Er3+ 0.02682(16) 0.02403(19) 0.02331(15) 0.00033(12) 0.00450(10) 
-0.00111(10)
P1 P5+ 0.0283(8) 0.0227(8) 0.0201(7) -0.0016(7) 0.0049(6) -0.0002(6)
P2 P5+ 0.0280(8) 0.0238(9) 0.0218(7) 0.0000(7) 0.0050(6) -0.0013(6)
S1 S2- 0.0345(9) 0.0320(9) 0.0206(7) -0.0069(7) 0.0086(6) -0.0014(6)
S2 S2- 0.0310(9) 0.0251(9) 0.0277(7) 0.0008(7) -0.0014(6) -0.0026(6)
S3 S2- 0.0279(8) 0.0272(8) 0.0252(7) -0.0025(7) 0.0019(6) 0.0028(6)
S4 S2- 0.0367(9) 0.0221(8) 0.0206(7) 0.0004(7) 0.0074(6) 0.0000(6)
S5 S2- 0.0295(8) 0.0333(9) 0.0243(7) -0.0026(7) 0.0030(6) -0.0042(6)
S6 S2- 0.0307(8) 0.0239(8) 0.0283(7) 0.0028(7) 0.0055(6) -0.0002(6)
S7 S2- 0.0295(8) 0.0232(8) 0.0281(7) -0.0007(7) 0.0046(6) -0.0042(6)
#End of data_415671-ICSD


