data_603205-ICSD
#?2014 by Fachinformationszentrum Karlsruhe, and the U.S. Secretary of 
#Commerce on behalf of the United States.  All rights reserved.
_database_code_ICSD                603205
_audit_creation_date               2011/02/01
_chemical_name_systematic
;
Potassium Yttrium Tetrathiogermanate
;
_chemical_formula_structural       'K Y (Ge S4)'
_chemical_formula_sum              'Ge1 K1 S4 Y1'
_publ_section_title
;
Synthesis and structures of the quaternary chalcogenides of the type 
K Ln M Q4 (Ln = La, Nd, Gd, Y; M = Si, Ge; Q = S,
;
loop_
_citation_id
_citation_journal_abbrev
_citation_year
_citation_journal_volume
_citation_page_first
_citation_page_last
_citation_journal_id_ASTM
primary 'Journal of Solid State Chemistry' 1993 107 347 355 JSSCBI
_publ_author_name                  'Wu, P.;Ibers, J.A.'
_cell_length_a                     6.42(2)
_cell_length_b                     6.60(1)
_cell_length_c                     8.49(2)
_cell_angle_alpha                  90.0
_cell_angle_beta                   107.0(1)
_cell_angle_gamma                  90.0
_cell_volume                       344.02
_cell_formula_units_Z              2
_symmetry_space_group_name_H-M     'P 1 21 1'
_symmetry_Int_Tables_number        4
loop_
_symmetry_equiv_pos_site_id
_symmetry_equiv_pos_as_xyz
  1	'-x, y+.5, -z'
  2	'x, y, z'
loop_
_atom_type_symbol
_atom_type_oxidation_number
Ge4+	4
K1+	1
S2-	-2
Y3+	3
loop_
_atom_site_label
_atom_site_type_symbol
_atom_site_symmetry_multiplicity
_atom_site_Wyckoff_symbol
_atom_site_fract_x
_atom_site_fract_y
_atom_site_fract_z
_atom_site_occupancy
_atom_site_attached_hydrogens
Y1 Y3+ 2 a 0.224 0 0.550 1. 0 
K1 K1+ 2 a 0.268 0.010 0.066 1. 0 
Ge1 Ge4+ 2 a 0.222 0.526 0.313 1. 0 
S1 S2- 2 a 0.586 0.066 0.427 1. 0 
S2 S2- 2 a 0.420 0.533 0.148 1. 0 
S3 S2- 2 a 0.016 0.264 0.262 1. 0 
S4 S2- 2 a 0.015 0.268 0.742 1. 0 

#End of data_603205-ICSD


