data_263115-ICSD
#?2014 by Fachinformationszentrum Karlsruhe, and the U.S. Secretary of 
#Commerce on behalf of the United States.  All rights reserved.
_database_code_ICSD                263115
_audit_creation_date               2013/02/01
_chemical_name_systematic
;
Cesium Vanadyl(IV) Aluminobis(orthophosphate) Hydrate
;
_chemical_formula_structural       'Cs ((V O) (H2 O) Al (P O4)2)'
_chemical_formula_sum              'H2 Al1 Cs1 O10 P2 V1'
_publ_section_title
;
Hydrogen bonds in the crystal structures of vanadyl phosphates Rb (V 
O2) (H P O4) and Cs Al (V O) (P O4)2 (H2 O)
;
loop_
_citation_id
_citation_journal_abbrev
_citation_year
_citation_journal_volume
_citation_journal_issue
_citation_page_first
_citation_page_last
_citation_journal_id_ASTM
primary Kristallografiya 2012 57 5 805 815 KRISAJ
2 'Crystallography Reports' 2012 57 5 722 732 CYSTE3
_publ_author_name
;
Yakubovich, O.V.;Steele, I.;Yakovleva, E.V.;Dimitrova, O.V.
;
_cell_length_a                     8.0128(13)
_cell_length_b                     8.0714(13)
_cell_length_c                     14.118(2)
_cell_angle_alpha                  90.
_cell_angle_beta                   106.302(2)
_cell_angle_gamma                  90.
_cell_volume                       876.37
_cell_formula_units_Z              4
_symmetry_space_group_name_H-M     'P 1 21/c 1'
_symmetry_Int_Tables_number        14
_refine_ls_R_factor_all            .0194
loop_
_symmetry_equiv_pos_site_id
_symmetry_equiv_pos_as_xyz
  1	'x, -y+.5, z+.5'
  2	'-x, -y, -z'
  3	'-x, y+.5, -z+.5'
  4	'x, y, z'
loop_
_atom_type_symbol
_atom_type_oxidation_number
Al3+	3
Cs1+	1
H1+	1
O2-	-2
P5+	5
V4+	4
loop_
_atom_site_label
_atom_site_type_symbol
_atom_site_symmetry_multiplicity
_atom_site_Wyckoff_symbol
_atom_site_fract_x
_atom_site_fract_y
_atom_site_fract_z
_atom_site_occupancy
_atom_site_attached_hydrogens
_atom_site_U_iso_or_equiv
Cs1 Cs1+ 4 e 0.82788(2) 0.53592(2) 0.20940(1) 1. 0 0.01073(7) 
V1 V4+ 4 e 0.28700(6) 0.55365(5) 0.14162(3) 1. 0 0.00817(10) 
Al1 Al3+ 4 e 0.78504(10) 0.53632(9) 0.53201(6) 1. 0 0.00475(15) 
P1 P5+ 4 e 0.00530(8) 0.27766(8) 0.04164(5) 1. 0 0.00686(13) 
P2 P5+ 4 e 0.49868(8) 0.39274(8) 0.35388(5) 1. 0 0.00668(13) 
O1 O2- 4 e 0.1017(2) 0.2224(2) -0.03420(13) 1. 0 0.0098(4) 
O2 O2- 4 e 0.9384(2) 0.1170(2) 0.07935(13) 1. 0 0.0096(4) 
O3 O2- 4 e 0.8519(2) 0.3884(2) -0.00554(13) 1. 0 0.0089(4) 
O4 O2- 4 e 0.1308(2) 0.3561(2) 0.13152(13) 1. 0 0.0095(4) 
O5 O2- 4 e 0.4562(3) 0.3775(3) 0.06288(16) 1. 0 0.0166(4) 
O6 O2- 4 e 0.4730(2) 0.7084(2) 0.12271(13) 1. 0 0.0098(4) 
O7 O2- 4 e 0.2050(2) 0.6722(2) 0.20735(14) 1. 0 0.0111(4) 
O8 O2- 4 e 0.6588(2) 0.4939(2) 0.41230(14) 1. 0 0.0113(4) 
O9 O2- 4 e 0.3414(2) 0.4474(2) 0.38807(15) 1. 0 0.0124(4) 
O10 O2- 4 e 0.4675(2) 0.4316(2) 0.2465(14) 1. 0 0.0095(4) 
H1 H1+ 4 e 0.473(6) 0.291(7) 0.111(4) 1. 0 0.06(1) 
H2 H1+ 4 e 0.474(6) 0.351(6) 0.003(4) 1. 0 0.06(1) 

#End of data_263115-ICSD


