data_638287-ICSD
#?2014 by Fachinformationszentrum Karlsruhe, and the U.S. Secretary of 
#Commerce on behalf of the United States.  All rights reserved.
_database_code_ICSD                638287
_audit_creation_date               2013/08/01
_chemical_name_systematic          'Magnesium Hydride (1/2)'
_chemical_formula_structural       'Mg H2'
_chemical_formula_sum              'H2 Mg1'
_publ_section_title
;
Polymorphisme de l'hydrure de magnesium sous haute pression
;
loop_
_citation_id
_citation_journal_abbrev
_citation_year
_citation_journal_volume
_citation_page_first
_citation_page_last
_citation_journal_id_ASTM
primary 'Mineralogica et Petrographica Acta' 1980 15 1215 1224 MPTAAS
2 'Materials Research Bulletin' 1980 15 1779 1779 MRBUAC
_publ_author_name
;
Bastide, J.P.;Bonnetot, B.;Letoffe, J.-M.;Claudy, P.
;
_cell_length_a                     4.53
_cell_length_b                     5.44
_cell_length_c                     4.93
_cell_angle_alpha                  90.0
_cell_angle_beta                   90.0
_cell_angle_gamma                  90.0
_cell_volume                       121.49
_cell_formula_units_Z              4
_symmetry_space_group_name_H-M     'P b c n'
_symmetry_Int_Tables_number        60
loop_
_symmetry_equiv_pos_site_id
_symmetry_equiv_pos_as_xyz
  1	'x, -y, z+.5'
  2	'-x+.5, y+.5, z'
  3	'x+.5, y+.5, -z+.5'
  4	'-x, -y, -z'
  5	'-x, y, -z+.5'
  6	'x+.5, -y+.5, -z'
  7	'-x+.5, -y+.5, z+.5'
  8	'x, y, z'
loop_
_atom_type_symbol
_atom_type_oxidation_number
H1-	-1
Mg2+	2
loop_
_atom_site_label
_atom_site_type_symbol
_atom_site_symmetry_multiplicity
_atom_site_Wyckoff_symbol
_atom_site_fract_x
_atom_site_fract_y
_atom_site_fract_z
_atom_site_occupancy
_atom_site_attached_hydrogens
Mg1 Mg2+ 4 c 0 0.328 0.25 1. 0 
H1 H1- 8 d 0.273 0.109 0.079 1. 0 

#End of data_638287-ICSD


