data_153799-ICSD
#?2014 by Fachinformationszentrum Karlsruhe, and the U.S. Secretary of 
#Commerce on behalf of the United States.  All rights reserved.
_database_code_ICSD                153799
_audit_creation_date               2007/04/01
_audit_update_record               2007/08/01
_chemical_name_systematic          'Dicalcium Ruthenate(IV)'
_chemical_formula_structural       'Ca2 (Ru O4)'
_chemical_formula_sum              'Ca2 O4 Ru1'
_publ_section_title
;
High-pressure diffraction studies on Ca2 Ru O4
;
loop_
_citation_id
_citation_journal_abbrev
_citation_year
_citation_journal_volume
_citation_page_first
_citation_page_last
_citation_journal_id_ASTM
primary 'Physical Review, Serie 3. B - Condensed Matter (18,1978-)'
 2005 72 094104-1 094104-7 PRBMDO
2 'Golden Book of Phase Transitions, Wroclaw' 2002 1 1 123 GBOPT5
_publ_author_name
;
Steffens, P.;Friedt, O.;Alireza, P.;Marshall, W.G.;Schmidt, 
W.;Nakamura, F.;Nakatsuji, S.;Maeno, Y.;Lengsdorf, R.;Abd-Elmeguid, 
M.M.;Braden, M.
;
_cell_length_a                     5.4044(6)
_cell_length_b                     5.4904(6)
_cell_length_c                     11.9507(10)
_cell_angle_alpha                  90.
_cell_angle_beta                   90.
_cell_angle_gamma                  90.
_cell_volume                       354.6
_cell_formula_units_Z              4
_symmetry_space_group_name_H-M     'P b c a'
_symmetry_Int_Tables_number        61
_refine_ls_R_factor_all            .0333
loop_
_symmetry_equiv_pos_site_id
_symmetry_equiv_pos_as_xyz
  1	'x+.5, y, -z+.5'
  2	'x, -y+.5, z+.5'
  3	'-x+.5, y+.5, z'
  4	'-x, -y, -z'
  5	'-x+.5, -y, z+.5'
  6	'-x, y+.5, -z+.5'
  7	'x+.5, -y+.5, -z'
  8	'x, y, z'
loop_
_atom_type_symbol
_atom_type_oxidation_number
Ca2+	2
O2-	-2
Ru4+	4
loop_
_atom_site_label
_atom_site_type_symbol
_atom_site_symmetry_multiplicity
_atom_site_Wyckoff_symbol
_atom_site_fract_x
_atom_site_fract_y
_atom_site_fract_z
_atom_site_occupancy
_atom_site_attached_hydrogens
_atom_site_U_iso_or_equiv
Ca1 Ca2+ 8 c 0.0108(13) 0.0456(12) 0.3492(5) 1. 0 0.0102(15) 
Ru1 Ru4+ 4 a 0 0 0 1. 0 0.0024(10) 
O1 O2- 8 c 0.1953(6) 0.3030(6) 0.0244(4) 1. 0 0.0082(10) 
O2 O2- 8 c -0.0602(7) -0.0201(10) 0.1657(4) 1. 0 0.0081(11) 

#End of data_153799-ICSD


