data_25638-ICSD
#?2014 by Fachinformationszentrum Karlsruhe, and the U.S. Secretary of 
#Commerce on behalf of the United States.  All rights reserved.
_database_code_ICSD                25638
_audit_creation_date               1980/01/01
_audit_update_record               2013/02/01
_chemical_name_systematic          'Mercury Dialuminium Selenide'
_chemical_formula_structural       'Hg Al2 Se4'
_chemical_formula_sum              'Al2 Hg1 Se4'
_publ_section_title
;
Untersuchung ?ber ternaere Chalkogenide. VI. Ueber ternaere 
Chalkogenide des Aluminiums, Galliums und Indiums mit Zink, Cadmium 
und Quecksilber
;
loop_
_citation_id
_citation_journal_abbrev
_citation_year
_citation_journal_volume
_citation_page_first
_citation_page_last
_citation_journal_id_ASTM
primary 'Zeitschrift fuer Anorganische und Allgemeine Chemie (1950) (DE)'
 1955 279 241 270 ZAACAB
2
;
Zeitschrift fuer Naturforschung, Teil B. Anorganische Chemie, 
Organische Chemie (2,1947-32,1977)
;
 1968 23 1009 1009 ZENBAX
_publ_author_name
;
Hahn, H.;Frank, G.;Klingler, W.;Stoerger, A.D.;Stoerger, G.
;
_cell_length_a                     5.708(5)
_cell_length_b                     5.708(5)
_cell_length_c                     10.74(1)
_cell_angle_alpha                  90.
_cell_angle_beta                   90.
_cell_angle_gamma                  90.
_cell_volume                       349.92
_cell_formula_units_Z              2
_symmetry_space_group_name_H-M     'I -4'
_symmetry_Int_Tables_number        82
loop_
_symmetry_equiv_pos_site_id
_symmetry_equiv_pos_as_xyz
  1	'-y, x, -z'
  2	'y, -x, -z'
  3	'-x, -y, z'
  4	'x, y, z'
  5	'-y+.5, x+.5, -z+.5'
  6	'y+.5, -x+.5, -z+.5'
  7	'-x+.5, -y+.5, z+.5'
  8	'x+.5, y+.5, z+.5'
loop_
_atom_type_symbol
_atom_type_oxidation_number
Al3+	3
Hg2+	2
Se2-	-2
loop_
_atom_site_label
_atom_site_type_symbol
_atom_site_symmetry_multiplicity
_atom_site_Wyckoff_symbol
_atom_site_fract_x
_atom_site_fract_y
_atom_site_fract_z
_atom_site_occupancy
_atom_site_attached_hydrogens
Hg1 Hg2+ 2 a 0 0 0 1. 0 
Al1 Al3+ 2 b 0 0 0.5 1. 0 
Al2 Al3+ 2 c 0 0.5 0.25 1. 0 
Se1 Se2- 8 g 0.275 0.265 0.138 1. 0 

#End of data_25638-ICSD


