data_262677-ICSD
#?2014 by Fachinformationszentrum Karlsruhe, and the U.S. Secretary of 
#Commerce on behalf of the United States.  All rights reserved.
_database_code_ICSD                262677
_audit_creation_date               2012/08/01
_chemical_name_systematic
;
Europium Germanium Hydrogen Potassium Oxide (0.5/1.5/1/1.5/5)
;
_chemical_formula_structural       'Eu0.5 Ge1.5 H K1.5 O5'
_chemical_formula_sum              'H1 Eu0.5 Ge1.5 K1.5 O5'
_publ_section_title
;
K3 [Tb(x) Eu(1-x) Ge3 O8 (O H)2] (x = 1, 0.88, 0.67, 0): 2D-layered 
lanthanide germanates with tunable photoluminescent properties
;
loop_
_citation_id
_citation_journal_abbrev
_citation_year
_citation_journal_volume
_citation_journal_issue
_citation_page_first
_citation_page_last
_citation_journal_id_ASTM
primary 'Inorganic Chemistry' 2012 51 8 4779 4783 INOCAJ
_publ_author_name
;
Wang Xi;Wang Yu;Liu Qiong;Li Yi;Yu Jihong;Xu Ruren
;
_cell_length_a                     13.7053(7)
_cell_length_b                     13.7236(7)
_cell_length_c                     6.1051(3)
_cell_angle_alpha                  90.00
_cell_angle_beta                   90.00
_cell_angle_gamma                  90.00
_cell_volume                       1148.28
_cell_formula_units_Z              8
_symmetry_space_group_name_H-M     'P n m a'
_symmetry_Int_Tables_number        62
_refine_ls_R_factor_all            .025
loop_
_symmetry_equiv_pos_site_id
_symmetry_equiv_pos_as_xyz
  1	'x+.5, y, -z+.5'
  2	'x, -y+.5, z'
  3	'-x+.5, y+.5, z+.5'
  4	'-x, -y, -z'
  5	'-x+.5, -y, z+.5'
  6	'-x, y+.5, -z'
  7	'x+.5, -y+.5, -z+.5'
  8	'x, y, z'
loop_
_atom_type_symbol
_atom_type_oxidation_number
Eu3+	3
Ge4+	4
H1+	1
K1+	1
O2-	-2
loop_
_atom_site_label
_atom_site_type_symbol
_atom_site_symmetry_multiplicity
_atom_site_Wyckoff_symbol
_atom_site_fract_x
_atom_site_fract_y
_atom_site_fract_z
_atom_site_occupancy
_atom_site_attached_hydrogens
_atom_site_U_iso_or_equiv
Eu1 Eu3+ 4 c 0.95801(2) 0.7500 1.08729(5) 1 0 0.00870(9) 
Ge1 Ge4+ 8 d 0.90106(3) 0.59929(3) 0.59088(7) 1 0 0.01056(11) 
Ge2 Ge4+ 4 c 0.74504(5) 0.7500 1.41615(10) 1 0 0.01058(14) 
O1 O2- 8 d 0.9589(3) 0.6256(2) 0.8331(5) 1 0 0.0179(7) 
O2 O2- 8 d 0.7817(2) 0.6486(2) 0.5790(5) 1 0 0.0189(7) 
O3 O2- 8 d 0.9684(2) 0.6293(2) 0.3611(5) 1 0 0.0185(7) 
O4 O2- 4 c 0.7949(3) 0.7500 1.1606(7) 1 0 0.0207(11) 
O5 O2- 4 c 0.6212(3) 0.7500 1.4294(8) 1 0 0.0240(11) 
O6 O2- 8 d 0.8673(2) 0.4736(2) 0.5870(6) 1 0 0.0197(7) 
H1 H1+ 8 d 0.9162 0.4398 0.6015 1 0 0.030 
K1 K1+ 8 d 0.63548(10) 0.51645(9) 0.58913(19) 1 0 0.0316(3) 
K2 K1+ 4 c 0.86900(13) 0.2500 0.4188(3) 1 0 0.0295(4) 

loop_
_atom_site_aniso_label
_atom_site_aniso_type_symbol
_atom_site_aniso_U_11
_atom_site_aniso_U_22
_atom_site_aniso_U_33
_atom_site_aniso_U_12
_atom_site_aniso_U_13
_atom_site_aniso_U_23
Eu1 Eu3+ 0.00748(15) 0.01018(14) 0.00845(15) 0.000 0.00053(12) 0.000
Ge1 Ge4+ 0.0123(2) 0.0095(2) 0.0098(2) -0.00010(17) -0.00004(19) 
0.00051(16)
Ge2 Ge4+ 0.0063(3) 0.0140(3) 0.0113(3) 0.000 0.0005(3) 0.000
O1 O2- 0.0220(18) 0.0170(15) 0.0146(15) 0.0014(15) -0.0059(14) -0.0057(12)
O2 O2- 0.0147(16) 0.0182(16) 0.0240(17) 0.0028(14) 0.0044(15) 0.0080(13)
O3 O2- 0.0201(18) 0.0185(16) 0.0169(16) 0.0039(15) 0.0070(14) 0.0078(13)
O4 O2- 0.011(2) 0.040(3) 0.012(2) 0.000 -0.0007(18) 0.000
O5 O2- 0.006(2) 0.041(3) 0.025(3) 0.000 -0.001(2) 0.000
O6 O2- 0.0174(17) 0.0105(14) 0.0313(19) -0.0018(14) -0.0047(16) 0.0011(14)
K1 K1+ 0.0356(7) 0.0363(6) 0.0227(6) -0.0189(6) 0.0049(5) -0.0042(5)
K2 K1+ 0.0225(8) 0.0467(10) 0.0192(8) 0.000 0.0025(7) 0.000
#End of data_262677-ICSD


