data_60105-ICSD
#?2014 by Fachinformationszentrum Karlsruhe, and the U.S. Secretary of 
#Commerce on behalf of the United States.  All rights reserved.
_database_code_ICSD                60105
_audit_creation_date               1986/04/14
_audit_update_record               2012/08/01
_chemical_name_systematic          'Sodium Gallium Disilicate'
_chemical_formula_structural       'Na Ga (Si2 O6)'
_chemical_formula_sum              'Ga1 Na1 O6 Si2'
_publ_section_title
;
The crystal structure of Na Ga Si2 O6 pyroxene
;
loop_
_citation_id
_citation_journal_abbrev
_citation_year
_citation_journal_volume
_citation_page_first
_citation_page_last
_citation_journal_id_ASTM
primary
;
Ganseki-Kobutsu-Kosho-Gakkai-shi (= Journal of the Japanese 
Association of Mineralogists, Petrologists and Economic Geologists. 
Sendai)
;
 1983 78 159 163 GKKGA2
_publ_author_name                  'Ohashi, H.;Fujita, T.;Osawa, T.'
_cell_length_a                     9.557(5)
_cell_length_b                     8.679(4)
_cell_length_c                     5.260(1)
_cell_angle_alpha                  90.
_cell_angle_beta                   107.68(2)
_cell_angle_gamma                  90.
_cell_volume                       415.68
_cell_formula_units_Z              4
_symmetry_space_group_name_H-M     'C 1 2/c 1'
_symmetry_Int_Tables_number        15
_refine_ls_R_factor_all            .033
loop_
_symmetry_equiv_pos_site_id
_symmetry_equiv_pos_as_xyz
  1	'x, -y, z+.5'
  2	'-x, -y, -z'
  3	'-x, y, -z+.5'
  4	'x, y, z'
  5	'x+.5, -y+.5, z+.5'
  6	'-x+.5, -y+.5, -z'
  7	'-x+.5, y+.5, -z+.5'
  8	'x+.5, y+.5, z'
loop_
_atom_type_symbol
_atom_type_oxidation_number
Ga3+	3
Na1+	1
O2-	-2
Si4+	4
loop_
_atom_site_label
_atom_site_type_symbol
_atom_site_symmetry_multiplicity
_atom_site_Wyckoff_symbol
_atom_site_fract_x
_atom_site_fract_y
_atom_site_fract_z
_atom_site_occupancy
_atom_site_attached_hydrogens
Ga1 Ga3+ 4 e 0 0.90185(9) 0.25 1. 0 
Na1 Na1+ 4 e 0 0.30092(37) 0.25 1. 0 
Si1 Si4+ 8 f 0.29118(15) 0.09090(17) 0.23209(27) 1. 0 
O1 O2- 8 f 0.11169(37) 0.07719(42) 0.13123(65) 1. 0 
O2 O2- 8 f 0.35818(38) 0.25953(42) 0.30113(67) 1. 0 
O3 O2- 8 f 0.35222(39) 0.00977(42) 0.00702(72) 1. 0 

#End of data_60105-ICSD


