data_491-ICSD
#?2014 by Fachinformationszentrum Karlsruhe, and the U.S. Secretary of 
#Commerce on behalf of the United States.  All rights reserved.
_database_code_ICSD                491
_audit_creation_date               1980/01/01
_audit_update_record               2012/08/01
_chemical_name_systematic          'Potassium Chromium Oxide (2/8/16)'
_chemical_formula_structural       'K2 Cr8 O16'
_chemical_formula_sum              'Cr8 K2 O16'
_publ_section_title
;
A new compound K2 Cr8 O16 with hollandite type structure
;
loop_
_citation_id
_citation_journal_abbrev
_citation_year
_citation_journal_volume
_citation_page_first
_citation_page_last
_citation_journal_id_ASTM
primary 'Materials Research Bulletin' 1976 11 609 614 MRBUAC
_publ_author_name
;
Endo, T.;Kume, S.;Kinomura, N.;Koizumi, M.
;
_cell_length_a                     13.82
_cell_length_b                     2.941
_cell_length_c                     9.772
_cell_angle_alpha                  90.
_cell_angle_beta                   135.
_cell_angle_gamma                  90.
_cell_volume                       280.85
_cell_formula_units_Z              1
_symmetry_space_group_name_H-M     'C 1 2/m 1'
_symmetry_Int_Tables_number        12
_refine_ls_R_factor_all            .058
loop_
_symmetry_equiv_pos_site_id
_symmetry_equiv_pos_as_xyz
  1	'-x, y, -z'
  2	'-x, -y, -z'
  3	'x, -y, z'
  4	'x, y, z'
  5	'-x+.5, y+.5, -z'
  6	'-x+.5, -y+.5, -z'
  7	'x+.5, -y+.5, z'
  8	'x+.5, y+.5, z'
loop_
_atom_type_symbol
_atom_type_oxidation_number
Cr3.75+	3.75
K1+	1
O2-	-2
loop_
_atom_site_label
_atom_site_type_symbol
_atom_site_symmetry_multiplicity
_atom_site_Wyckoff_symbol
_atom_site_fract_x
_atom_site_fract_y
_atom_site_fract_z
_atom_site_occupancy
_atom_site_attached_hydrogens
Cr1 Cr3.75+ 4 i 0.1648 0 -.1831 1. 0 
Cr2 Cr3.75+ 4 i 0.3481 0 0.5129 1. 0 
K1 K1+ 2 b 0 0.5 0 1. 0 
O1 O2- 4 i 0.2041 0 0.049 1. 0 
O2 O2- 4 i 0.1524 0 0.3545 1. 0 
O3 O2- 4 i 0.1629 0 -.3796 1. 0 
O4 O2- 4 i 0.5419 0 0.7037 1. 0 

#End of data_491-ICSD


