data_201044-ICSD
#?2014 by Fachinformationszentrum Karlsruhe, and the U.S. Secretary of 
#Commerce on behalf of the United States.  All rights reserved.
_database_code_ICSD                201044
_audit_creation_date               1981/12/31
_chemical_name_systematic          'Dicalcium Diantimony Pentasulfide'
_chemical_formula_structural       'Ca2 Sb2 S5'
_chemical_formula_sum              'Ca2 S5 Sb2'
_publ_section_title
;
Ca2 Sb2 S5 - ein neues erdalkalithioantimonat(III) mit Sb2 S4-
vierringen
;
loop_
_citation_id
_citation_journal_abbrev
_citation_year
_citation_journal_volume
_citation_page_first
_citation_page_last
_citation_journal_id_ASTM
primary 'Revue de Chimie Minerale' 1981 18 218 223 RVCMA8
_publ_author_name                  'Cordier, G.;Schaefer, H.'
_cell_length_a                     15.074(8)
_cell_length_b                     5.694(4)
_cell_length_c                     11.378(6)
_cell_angle_alpha                  90.
_cell_angle_beta                   110.99(8)
_cell_angle_gamma                  90.
_cell_volume                       911.79
_cell_formula_units_Z              4
_symmetry_space_group_name_H-M     'P 1 21/c 1'
_symmetry_Int_Tables_number        14
_refine_ls_R_factor_all            .076
loop_
_symmetry_equiv_pos_site_id
_symmetry_equiv_pos_as_xyz
  1	'x, -y+.5, z+.5'
  2	'-x, -y, -z'
  3	'-x, y+.5, -z+.5'
  4	'x, y, z'
loop_
_atom_type_symbol
_atom_type_oxidation_number
Ca2+	2
S2-	-2
Sb3+	3
loop_
_atom_site_label
_atom_site_type_symbol
_atom_site_symmetry_multiplicity
_atom_site_Wyckoff_symbol
_atom_site_fract_x
_atom_site_fract_y
_atom_site_fract_z
_atom_site_occupancy
_atom_site_attached_hydrogens
_atom_site_U_iso_or_equiv
Ca1 Ca2+ 4 e 0.6677(2) 0.2694(4) 0.8327(2) 1. 0 0.0123(4) 
Ca2 Ca2+ 4 e 0.1060(1) 0.7200(4) 0.3078(2) 1. 0 0.0112(4) 
Sb1 Sb3+ 4 e 0.3856(1) 0.1580(1) 0.9478(1) 1. 0 0.0132(2) 
Sb2 Sb3+ 4 e 0.1248(1) 0.2434(1) 0.5732(1) 1. 0 0.0091(1) 
S1 S2- 4 e 0.9024(2) 0.7787(5) 0.7264(3) 1. 0 0.0109(4) 
S2 S2- 4 e 0.5001(2) 0.4885(5) 0.3474(3) 1. 0 0.0121(5) 
S3 S2- 4 e 0.6951(2) 0.2188(5) 0.0957(3) 1. 0 0.0120(4) 
S4 S2- 4 e 0.8794(2) 0.1878(5) 0.4363(3) 1. 0 0.0108(4) 
S5 S2- 4 e 0.2980(2) 0.2303(5) 0.1588(3) 1. 0 0.0113(4) 

#End of data_201044-ICSD


