data_608642-ICSD
#?2014 by Fachinformationszentrum Karlsruhe, and the U.S. Secretary of 
#Commerce on behalf of the United States.  All rights reserved.
_database_code_ICSD                608642
_audit_creation_date               2013/02/01
_chemical_name_systematic          'Sodium Aluminium Sulfide (3/1/3)'
_chemical_formula_structural       'Na3 Al S3'
_chemical_formula_sum              'Al1 Na3 S3'
_publ_section_title
;
Powder X-ray diffraction identification of some new phases in the Na2 
S - Al2 S3 system
;
loop_
_citation_id
_citation_journal_abbrev
_citation_year
_citation_journal_volume
_citation_journal_issue
_citation_page_first
_citation_page_last
_citation_journal_id_ASTM
primary 'Materials Research Bulletin' 1987 22 8 1029 1037 MRBUAC
_publ_author_name                  'Brown, A.P.;Tani, B.S.'
_cell_length_a                     7.191
_cell_length_b                     6.897
_cell_length_c                     12.699
_cell_angle_alpha                  90.0
_cell_angle_beta                   90.12
_cell_angle_gamma                  90.0
_cell_volume                       629.82
_cell_formula_units_Z              4
_symmetry_space_group_name_H-M     'P 1 21/n 1'
_symmetry_Int_Tables_number        14
loop_
_symmetry_equiv_pos_site_id
_symmetry_equiv_pos_as_xyz
  1	'-x+.5, y+.5, -z+.5'
  2	'-x, -y, -z'
  3	'x+.5, -y+.5, z+.5'
  4	'x, y, z'
loop_
_atom_type_symbol
_atom_type_oxidation_number
Al3+	3
Na1+	1
S2-	-2
loop_
_atom_site_label
_atom_site_type_symbol
_atom_site_symmetry_multiplicity
_atom_site_Wyckoff_symbol
_atom_site_fract_x
_atom_site_fract_y
_atom_site_fract_z
_atom_site_occupancy
_atom_site_attached_hydrogens
Al1 Al3+ 4 e 0.587 0.133 0.076 1. 0 
S1 S2- 4 e 0.916 0.300 0.426 1. 0 
S2 S2- 4 e 0.071 0.731 0.277 1. 0 
S3 S2- 4 e 0.871 0.249 0.073 1. 0 
Na1 Na1+ 4 e 0.729 0.518 0.215 1. 0 
Na2 Na1+ 4 e 0.346 0.486 0.384 1. 0 
Na3 Na1+ 4 e 0.210 0.488 0.097 1. 0 

#End of data_608642-ICSD


