data_88602-ICSD
#?2014 by Fachinformationszentrum Karlsruhe, and the U.S. Secretary of 
#Commerce on behalf of the United States.  All rights reserved.
_database_code_ICSD                88602
_audit_creation_date               2001/07/16
_chemical_name_systematic          'Barium Digadolinium Zinc Oxide'
_chemical_formula_structural       'Ba Gd2 Zn O5'
_chemical_formula_sum              'Ba1 Gd2 O5 Zn1'
_publ_section_title
;
Crystal structures and reference powder patterns of Ba R2 Zn O5 (R = 
La, Nd, Sm, Eu, Gd, Dy, Ho, Y, Er and Tm)
;
loop_
_citation_id
_citation_journal_abbrev
_citation_year
_citation_journal_volume
_citation_journal_issue
_citation_page_first
_citation_page_last
_citation_journal_id_ASTM
primary
;
Journal of Research of the National Institute of standards and 
Technology
;
 1999 104 2 147 171 JRITEF
_publ_author_name
;
Kaduk, J.A.;Wong-Ng, W.;Greenwood, W.;Dillingham, J.;Toby, B.H.
;
_cell_length_a                     7.15729(9)
_cell_length_b                     12.49393(15)
_cell_length_c                     5.77424(7)
_cell_angle_alpha                  90.
_cell_angle_beta                   90.
_cell_angle_gamma                  90.
_cell_volume                       516.35
_cell_formula_units_Z              4
_symmetry_space_group_name_H-M     'P b n m'
_symmetry_Int_Tables_number        62
_refine_ls_R_factor_all            .037
loop_
_symmetry_equiv_pos_site_id
_symmetry_equiv_pos_as_xyz
  1	'-x+.5, y+.5, z'
  2	'x, y, -z+.5'
  3	'x+.5, -y+.5, z+.5'
  4	'-x, -y, -z'
  5	'x+.5, -y+.5, -z'
  6	'-x, -y, z+.5'
  7	'-x+.5, y+.5, -z+.5'
  8	'x, y, z'
loop_
_atom_type_symbol
_atom_type_oxidation_number
Ba2+	2
Gd3+	3
O2-	-2
Zn2+	2
loop_
_atom_site_label
_atom_site_type_symbol
_atom_site_symmetry_multiplicity
_atom_site_Wyckoff_symbol
_atom_site_fract_x
_atom_site_fract_y
_atom_site_fract_z
_atom_site_occupancy
_atom_site_attached_hydrogens
_atom_site_U_iso_or_equiv
Ba1 Ba2+ 4 c 0.9241(2) 0.9006(1) 0.25 1. 0 0.0062(5) 
Gd1 Gd3+ 4 c 0.1196(3) 0.2930(1) 0.25 1. 0 0.0017(3) 
Gd2 Gd3+ 4 c 0.3977(2) 0.0745(1) 0.25 1. 0 0.0017(3) 
Zn1 Zn2+ 4 c 0.6909(5) 0.6490(3) 0.25 1. 0 0.0046(12) 
O1 O2- 8 d 0.1657(15) 0.4323(11) -.0018(19) 1. 0 0.004(2) 
O2 O2- 8 d 0.3547(18) 0.2225(10) 0.5023(21) 1. 0 0.004(2) 
O3 O2- 4 c 0.0748(24) 0.0991(17) 0.25 1. 0 0.004(2) 

#End of data_88602-ICSD


