data_27211-ICSD
#?2014 by Fachinformationszentrum Karlsruhe, and the U.S. Secretary of 
#Commerce on behalf of the United States.  All rights reserved.
_database_code_ICSD                27211
_audit_creation_date               1982/12/31
_chemical_name_systematic          'Sodium Hydroxoborate'
_chemical_formula_structural       'Na2 (B O2 (O H))'
_chemical_formula_sum              'H1 B1 Na2 O3'
_publ_section_title
;
Structure of Hydrated Sodium Borate Na2 (B O2 (O H))
;
loop_
_citation_id
_citation_journal_abbrev
_citation_year
_citation_journal_volume
_citation_page_first
_citation_page_last
_citation_journal_id_ASTM
primary 'Acta Crystallographica B (24,1968-38,1982)' 1982 38 1282 1285 ACBCAR
_publ_author_name                  'Menchetti, S.;Sabelli, C.'
_cell_length_a                     8.627(2)
_cell_length_b                     3.512(1)
_cell_length_c                     9.863(2)
_cell_angle_alpha                  90.
_cell_angle_beta                   90.
_cell_angle_gamma                  90.
_cell_volume                       298.83
_cell_formula_units_Z              4
_symmetry_space_group_name_H-M     'P n m a'
_symmetry_Int_Tables_number        62
_refine_ls_R_factor_all            .028
loop_
_symmetry_equiv_pos_site_id
_symmetry_equiv_pos_as_xyz
  1	'x+.5, y, -z+.5'
  2	'x, -y+.5, z'
  3	'-x+.5, y+.5, z+.5'
  4	'-x, -y, -z'
  5	'-x+.5, -y, z+.5'
  6	'-x, y+.5, -z'
  7	'x+.5, -y+.5, -z+.5'
  8	'x, y, z'
loop_
_atom_type_symbol
_atom_type_oxidation_number
B3+	3
H1+	1
Na1+	1
O2-	-2
loop_
_atom_site_label
_atom_site_type_symbol
_atom_site_symmetry_multiplicity
_atom_site_Wyckoff_symbol
_atom_site_fract_x
_atom_site_fract_y
_atom_site_fract_z
_atom_site_occupancy
_atom_site_attached_hydrogens
_atom_site_B_iso_or_equiv
Na1 Na1+ 4 c 0.42775(9) 0.75 0.10348(8) 1. 0 0 
Na2 Na1+ 4 c 0.3281(1) 0.75 0.44690(9) 1. 0 0 
O1 O2- 4 c 0.1277(2) 0.25 0.3780(1) 1. 0 0 
O2 O2- 4 c 0.2689(2) 0.25 0.1678(1) 1. 0 0 
O3 O2- 4 c -.0048(2) 0.25 0.1633(1) 1. 0 0 
B1 B3+ 4 c 0.1365(3) 0.25 0.2409(2) 1. 0 0 
H1 H1+ 4 c 0.408(4) 0.25 0.273(3) 1. 0 3. 

#End of data_27211-ICSD


