data_160101-ICSD
#?2014 by Fachinformationszentrum Karlsruhe, and the U.S. Secretary of 
#Commerce on behalf of the United States.  All rights reserved.
_database_code_ICSD                160101
_audit_creation_date               2008/08/01
_audit_update_record               2012/02/01
_chemical_name_systematic
;
Trithallium Trisilver Bis(trithioarsenate(V))
;
_chemical_formula_structural       'Tl3 Ag3 (As S3)2'
_chemical_formula_sum              'Ag3 As2 S6 Tl3'
_publ_section_title
;
Two new examples of very short thallium-transition metal contacts: 
Tl3 Ag3 As2 S6
;
loop_
_citation_id
_citation_journal_abbrev
_citation_year
_citation_journal_volume
_citation_page_first
_citation_page_last
_citation_journal_id_ASTM
primary 'Journal of Alloys and Compounds' 2008 457 66 74 JALCEU
_publ_author_name
;
Karanovic, Lj.;Poleti, D.;Balic Zunic, T.;Makovicky, E.;Grzetic, I.
;
_cell_length_a                     11.4415(14)
_cell_length_b                     11.7530(15)
_cell_length_c                     11.9880(16)
_cell_angle_alpha                  90
_cell_angle_beta                   123.516(3)
_cell_angle_gamma                  90
_cell_volume                       1344.02
_cell_formula_units_Z              4
_symmetry_space_group_name_H-M     'P 1 21/c 1'
_symmetry_Int_Tables_number        14
_refine_ls_R_factor_all            .037
loop_
_symmetry_equiv_pos_site_id
_symmetry_equiv_pos_as_xyz
  1	'x, -y+.5, z+.5'
  2	'-x, -y, -z'
  3	'-x, y+.5, -z+.5'
  4	'x, y, z'
loop_
_atom_type_symbol
_atom_type_oxidation_number
Ag1+	1
As3+	3
S2-	-2
Tl1+	1
loop_
_atom_site_label
_atom_site_type_symbol
_atom_site_symmetry_multiplicity
_atom_site_Wyckoff_symbol
_atom_site_fract_x
_atom_site_fract_y
_atom_site_fract_z
_atom_site_occupancy
_atom_site_attached_hydrogens
_atom_site_U_iso_or_equiv
Tl1 Tl1+ 4 e 0.21445(6) 0.88283(5) 0.10078(6) 1. 0 0.0398(2) 
Tl2 Tl1+ 4 e -0.20582(6) 0.01576(5) 0.27670(6) 1. 0 0.0393(2) 
Tl3 Tl1+ 4 e 0.84388(7) 0.75947(6) 0.57238(7) 1. 0 0.0458(2) 
Ag1 Ag1+ 4 e 0.4690(1) 0.8755(1) 0.4215(1) 1. 0 0.0422(3) 
Ag2 Ag1+ 4 e 0.4716(1) 0.8606(1) 0.0425(1) 1. 0 0.0491(3) 
Ag3 Ag1+ 4 e 0.1108(1) 0.1568(1) 0.1771(1) 1. 0 0.0475(3) 
As1 As3+ 4 e 0.1590(1) 0.9094(1) 0.4014(1) 1. 0 0.0268(3) 
As2 As3+ 4 e 0.5043(1) 0.6465(1) 0.2493(1) 1. 0 0.0267(3) 
S1 S2- 4 e 0.5781(4) 0.8275(3) 0.2919(4) 1. 0 0.0314(8) 
S2 S2- 4 e 0.6252(4) 0.5778(3) 0.4597(4) 1. 0 0.0302(8) 
S3 S2- 4 e 0.2502(4) 0.7565(3) 0.3635(4) 1. 0 0.0310(8) 
S4 S2- 4 e 0.0016(4) 0.9678(3) 0.1913(4) 1. 0 0.0347(9) 
S5 S2- 4 e 0.0091(4) 0.8311(3) 0.4496(4) 1. 0 0.0309(8) 
S6 S2- 4 e 0.6375(3) 0.5853(3) 0.1755(3) 1. 0 0.0289(8) 

loop_
_atom_site_aniso_label
_atom_site_aniso_type_symbol
_atom_site_aniso_U_11
_atom_site_aniso_U_22
_atom_site_aniso_U_33
_atom_site_aniso_U_12
_atom_site_aniso_U_13
_atom_site_aniso_U_23
Tl1 Tl1+ 0.0392(4) 0.0406(4) 0.0369(4) -0.0045(3) 0.0193(3) -0.0040(3)
Tl2 Tl1+ 0.0363(3) 0.0397(4) 0.0392(4) 0.0035(3) 0.0191(3) 0.0008(3)
Tl3 Tl1+ 0.0544(4) 0.0475(4) 0.0424(4) -0.0082(3) 0.0310(3) -0.0058(3)
Ag1 Ag1+ 0.0446(7) 0.0453(8) 0.0414(7) -0.0017(5) 0.0267(6) -0.0040(6)
Ag2 Ag1+ 0.0625(8) 0.0508(9) 0.0351(7) -0.0072(6) 0.0276(6) 0.0008(5)
Ag3 Ag1+ 0.0535(8) 0.0453(8) 0.0408(8) 0.0128(6) 0.0243(6) 0.0072(6)
As1 As3+ 0.0273(7) 0.0240(8) 0.0266(8) -0.0016(5) 0.0134(6) -0.0008(6)
As2 As3+ 0.0245(7) 0.0288(8) 0.0259(8) -0.0011(5) 0.0133(6) 0.0003(6)
S1 S2- 0.041(2) 0.028(2) 0.032(2) -0.001(1) 0.024(2) -0.001(1)
S2 S2- 0.037(2) 0.026(2) 0.029(2) -0.002(1) 0.019(2) -0.001(1)
S3 S2- 0.035(2) 0.028(2) 0.032(2) 0.004(1) 0.019(2) -0.000(1)
S4 S2- 0.030(2) 0.037(2) 0.031(2) 0.005(1) 0.014(2) 0.008(2)
S5 S2- 0.033(2) 0.031(2) 0.033(2) -0.002(1) 0.020(2) -0.001(1)
S6 S2- 0.032(2) 0.027(2) 0.028(2) -0.001(1) 0.016(2) -0.002(1)
#End of data_160101-ICSD


