data_83532-ICSD
#?2014 by Fachinformationszentrum Karlsruhe, and the U.S. Secretary of 
#Commerce on behalf of the United States.  All rights reserved.
_database_code_ICSD                83532
_audit_creation_date               1998/06/26
_chemical_name_systematic          'Potassium Tecto-alumotrisilicate'
_chemical_formula_structural       'K (Al Si3 O8)'
_chemical_formula_sum              'Al1 K1 O8 Si3'
_chemical_name_mineral             'Microcline (ordered)'
_publ_section_title
;
A high-pressure structural study of microcline (K Al Si3 O8) to 7 GPa
;
loop_
_citation_id
_citation_journal_abbrev
_citation_year
_citation_journal_volume
_citation_page_first
_citation_page_last
_citation_journal_id_ASTM
primary 'European Journal of Mineralogy' 1997 9 263 275 EJMIER
_publ_author_name                  'Allan, D.R.;Angel, R.J.'
_cell_length_a                     8.4812(14)
_cell_length_b                     12.930(5)
_cell_length_c                     7.1784(7)
_cell_angle_alpha                  90.436(18)
_cell_angle_beta                   116.163(9)
_cell_angle_gamma                  87.97(3)
_cell_volume                       706.07
_cell_formula_units_Z              4
_symmetry_space_group_name_H-M     'C -1'
_symmetry_Int_Tables_number        2
_refine_ls_R_factor_all            .064
loop_
_symmetry_equiv_pos_site_id
_symmetry_equiv_pos_as_xyz
  1	'-x, -y, -z'
  2	'x, y, z'
  3	'-x+.5, -y+.5, -z'
  4	'x+.5, y+.5, z'
loop_
_atom_type_symbol
_atom_type_oxidation_number
Al3+	3
K1+	1
O2-	-2
Si4+	4
loop_
_atom_site_label
_atom_site_type_symbol
_atom_site_symmetry_multiplicity
_atom_site_Wyckoff_symbol
_atom_site_fract_x
_atom_site_fract_y
_atom_site_fract_z
_atom_site_occupancy
_atom_site_attached_hydrogens
_atom_site_B_iso_or_equiv
K1 K1+ 4 i 0.2792(5) -.0049(7) 0.1372(4) 1. 0 2.19(9) 
Al1 Al3+ 4 i 0.0060(6) 0.1886(9) 0.2176(5) 1. 0 1.38(7) 
Si2 Si4+ 4 i 0.0062(5) 0.8202(8) 0.2306(5) 1. 0 1.32(6) 
Si3 Si4+ 4 i 0.7061(6) 0.1205(8) 0.3395(5) 1. 0 1.31(6) 
Si4 Si4+ 4 i 0.7021(6) 0.8861(8) 0.3479(5) 1. 0 1.43(7) 
O1 O2- 4 i 0.0023(14) 0.1410(19) -.0144(12) 1. 0 1.82(16) 
O2 O2- 4 i 0.6294(14) 0.0086(20) 0.2862(12) 1. 0 1.71(17) 
O3 O2- 4 i 0.8165(14) 0.1475(18) 0.2175(11) 1. 0 1.62(16) 
O4 O2- 4 i 0.8260(16) 0.8611(21) 0.2333(14) 1. 0 2.48(19) 
O5 O2- 4 i 0.0298(14) 0.3194(19) 0.2537(12) 1. 0 1.63(15) 
O6 O2- 4 i 0.0327(14) 0.6918(20) 0.2703(13) 1. 0 1.78(16) 
O7 O2- 4 i 0.1900(13) 0.1229(18) 0.4066(12) 1. 0 1.77(16) 
O8 O2- 4 i 0.1749(15) 0.8734(20) 0.4127(12) 1. 0 1.91(17) 

#End of data_83532-ICSD


