data_82110-ICSD
#?2014 by Fachinformationszentrum Karlsruhe, and the U.S. Secretary of 
#Commerce on behalf of the United States.  All rights reserved.
_database_code_ICSD                82110
_audit_creation_date               1999/11/30
_chemical_name_systematic
;
Tetrapotassium Dicerium Decaniobate
;
_chemical_formula_structural       'K4 Ce2 (Nb10 O30)'
_chemical_formula_sum              'Ce2 K4 Nb10 O30'
_publ_section_title
;
TTB structure of K4 Ce2 M10 O30 (M = Nb or Ta): crystal growth and 
joint X-ray and HREM studies
;
loop_
_citation_id
_citation_journal_abbrev
_citation_year
_citation_journal_volume
_citation_page_first
_citation_page_last
_citation_journal_id_ASTM
primary 'Journal of Solid State Chemistry' 1996 122 7 14 JSSCBI
_publ_author_name
;
Brik, F.;Enjalbert, R.;Roucau, C.;Galy, J.
;
_cell_length_a                     12.537(1)
_cell_length_b                     12.537(1)
_cell_length_c                     3.8976(7)
_cell_angle_alpha                  90.
_cell_angle_beta                   90.
_cell_angle_gamma                  90.
_cell_volume                       612.61
_cell_formula_units_Z              1
_symmetry_space_group_name_H-M     'P 4/m b m'
_symmetry_Int_Tables_number        127
_refine_ls_R_factor_all            .048
loop_
_symmetry_equiv_pos_site_id
_symmetry_equiv_pos_as_xyz
  1	'y+.5, x+.5, -z'
  2	'-y+.5, -x+.5, -z'
  3	'-y, x, -z'
  4	'y, -x, -z'
  5	'x+.5, -y+.5, -z'
  6	'-x+.5, y+.5, -z'
  7	'x, y, -z'
  8	'-x, -y, -z'
  9	'-y+.5, -x+.5, z'
 10	'y+.5, x+.5, z'
 11	'y, -x, z'
 12	'-y, x, z'
 13	'-x+.5, y+.5, z'
 14	'x+.5, -y+.5, z'
 15	'-x, -y, z'
 16	'x, y, z'
loop_
_atom_type_symbol
_atom_type_oxidation_number
Ce3+	3
K1+	1
Nb5+	5
O2-	-2
loop_
_atom_site_label
_atom_site_type_symbol
_atom_site_symmetry_multiplicity
_atom_site_Wyckoff_symbol
_atom_site_fract_x
_atom_site_fract_y
_atom_site_fract_z
_atom_site_occupancy
_atom_site_attached_hydrogens
Nb1 Nb5+ 2 c 0 0.5 0.5 1. 0 
Nb2 Nb5+ 8 j 0.07523(7) 0.21514(7) 0.5 1. 0 
Ce1 Ce3+ 2 a 0 0 0 1. 0 
K1 K1+ 4 g 0.1715(2) 0.6715(2) 0 1. 0 
O1 O2- 2 d 0 0.5 0 1. 0 
O2 O2- 8 i 0.076(1) 0.1941(8) 0 1. 0 
O3 O2- 8 j -.0028(7) 0.3431(7) 0.5 1. 0 
O4 O2- 8 j 0.1313(8) 0.0620(7) 0.5 1. 0 
O5 O2- 4 h 0.2853(7) 0.7853(7) 0.5 1. 0 

loop_
_atom_site_aniso_label
_atom_site_aniso_type_symbol
_atom_site_aniso_U_11
_atom_site_aniso_U_22
_atom_site_aniso_U_33
_atom_site_aniso_U_12
_atom_site_aniso_U_13
_atom_site_aniso_U_23
Nb1 Nb5+ 0.0090(5) 0.0090(5) 0.053(2) 0.0013(7) 0 0
Nb2 Nb5+ 0.0078(3) 0.0047(3) 0.0050(3) -.0008(3) 0 0
Ce1 Ce3+ 0.0065(3) 0.0065(3) 0.0071(4) 0 0 0
K1 K1+ 0.028(1) 0.028(1) 0.016(2) -.016(2) 0 0
O1 O2- 0.043(8) 0.043(8) 0.013(8) -.01(1) 0 0
O2 O2- 0.054(7) 0.020(4) 0.008(3) -.014(4) 0 0
O3 O2- 0.014(3) 0.010(3) 0.026(4) 0.002(3) 0 0
O4 O2- 0.025(4) 0.015(4) 0.016(3) 0.009(3) 0 0
O5 O2- 0.011(3) 0.011(3) 0.009(4) 0.003(3) 0 0
#End of data_82110-ICSD


