data_100365-ICSD
#?2014 by Fachinformationszentrum Karlsruhe, and the U.S. Secretary of 
#Commerce on behalf of the United States.  All rights reserved.
_database_code_ICSD                100365
_audit_creation_date               1981/12/31
_chemical_name_systematic          'Magnesium Phosphate 22-hydrate'
_chemical_formula_structural       'Mg3 (P O4)2 (H2 O)22'
_chemical_formula_sum              'H44 Mg3 O30 P2'
_publ_section_title
;
A case of polytypism in hydrated oxysalts: the crystal structure of 
Mg3 (P O4)2 (H2 O)22 (II)
;
loop_
_citation_id
_citation_journal_abbrev
_citation_year
_citation_journal_volume
_citation_page_first
_citation_page_last
_citation_journal_id_ASTM
primary 'Zeitschrift fuer Kristallographie (1979-2010)' 1981 155 53 64 ZEKRDZ
_publ_author_name
;
Gatti, M.;Franchini Angela, M.;Ivaldi, G.
;
_cell_length_a                     6.937(3)
_cell_length_b                     6.932(3)
_cell_length_c                     16.132(5)
_cell_angle_alpha                  82.15(3)
_cell_angle_beta                   89.72(3)
_cell_angle_gamma                  119.49(3)
_cell_volume                       666.57
_cell_formula_units_Z              1
_symmetry_space_group_name_H-M     'P -1'
_symmetry_Int_Tables_number        2
_refine_ls_R_factor_all            .042
loop_
_symmetry_equiv_pos_site_id
_symmetry_equiv_pos_as_xyz
  1	'-x, -y, -z'
  2	'x, y, z'
loop_
_atom_type_symbol
_atom_type_oxidation_number
H1+	1
Mg2+	2
O2-	-2
P5+	5
loop_
_atom_site_label
_atom_site_type_symbol
_atom_site_symmetry_multiplicity
_atom_site_Wyckoff_symbol
_atom_site_fract_x
_atom_site_fract_y
_atom_site_fract_z
_atom_site_occupancy
_atom_site_attached_hydrogens
P1 P5+ 2 i 0.0031(2) -.0368(2) 0.2428(6) 1. 0 
Mg1 Mg2+ 1 c 0 0.5 0 1. 0 
Mg2 Mg2+ 2 i 0.6483(2) 0.2510(2) 0.34371(7) 1. 0 
O1 O2- 2 i -.0261(4) -.0707(4) 0.3369(1) 1. 0 
O2 O2- 2 i 0.1470(4) 0.2165(4) 0.2077(2) 1. 0 
O3 O2- 2 i 0.1173(4) -.1628(4) 0.2137(2) 1. 0 
O4 O2- 2 i -.2263(4) -.1265(4) 0.2056(2) 1. 0 
O5 O2- 2 i -.2235(6) 0.3162(6) 0.1055(2) 1. 0 
O6 O2- 2 i 0.1703(6) 0.7771(6) 0.0582(2) 1. 0 
O7 O2- 2 i 0.2045(6) 0.3862(6) 0.0472(2) 1. 0 
O8 O2- 2 i 0.7473(6) 0.0684(6) 0.4254(2) 1. 0 
O9 O2- 2 i 0.7613(5) 0.5082(5) 0.4116(2) 1. 0 
O10 O2- 2 i 0.9686(5) 0.4124(5) 0.2855(2) 1. 0 
O11 O2- 2 i 0.5721(5) 0.4165(5) 0.2404(2) 1. 0 
O12 O2- 2 i 0.3408(4) 0.1484(5) 0.4078(2) 1. 0 
O13 O2- 2 i 0.5020(5) -.0328(5) 0.2855(2) 1. 0 
O14 O2- 2 i 0.6450(6) 0.8156(6) 0.0488(2) 1. 0 
O15 O2- 2 i 0.2786(7) 0.5280(6) 0.4150(2) 1. 0 
H1 H1+ 2 i -.278(6) 0.351(6) 0.134(2) 1. 0 
H2 H1+ 2 i -.244(11) 0.195(11) 0.130(4) 1. 0 
H3 H1+ 2 i 0.130(9) 0.790(9) 0.107(4) 1. 0 
H4 H1+ 2 i 0.237(6) 0.895(6) 0.033(2) 1. 0 
H5 H1+ 2 i 0.190(8) 0.328(8) 0.098(3) 1. 0 
H6 H1+ 2 i 0.249(7) 0.324(7) 0.022(2) 1. 0 
H7 H1+ 2 i 0.820(6) 0.018(6) 0.402(2) 1. 0 
H8 H1+ 2 i 0.717(6) 0.021(6) 0.470(2) 1. 0 
H9 H1+ 2 i 0.850(9) 0.655(9) 0.388(3) 1. 0 
H10 H1+ 2 i 0.762(6) 0.504(6) 0.459(2) 1. 0 
H11 H1+ 2 i 0.000(6) 0.524(6) 0.264(2) 1. 0 
H12 H1+ 2 i 0.038(8) 0.352(8) 0.257(3) 1. 0 
H13 H1+ 2 i 0.432(8) 0.356(8) 0.232(3) 1. 0 
H14 H1+ 2 i 0.629(6) 0.552(6) 0.237(2) 1. 0 
H15 H1+ 2 i 0.207(7) 0.059(7) 0.384(3) 1. 0 
H16 H1+ 2 i 0.332(6) 0.260(6) 0.412(2) 1. 0 
H17 H1+ 2 i 0.588(6) -.067(6) 0.256(2) 1. 0 
H18 H1+ 2 i 0.384(8) -.068(7) 0.259(3) 1. 0 
H19 H1+ 2 i 0.519(8) 0.747(8) 0.055(3) 1. 0 
H20 H1+ 2 i 0.692(10) 0.843(9) 0.095(3) 1. 0 
H21 H1+ 2 i 0.361(7) 0.655(7) 0.393(3) 1. 0 
H22 H1+ 2 i 0.174(8) 0.489(8) 0.390(3) 1. 0 

loop_
_atom_site_aniso_label
_atom_site_aniso_type_symbol
_atom_site_aniso_B_11
_atom_site_aniso_B_22
_atom_site_aniso_B_33
_atom_site_aniso_B_12
_atom_site_aniso_B_13
_atom_site_aniso_B_23
P1 P5+ 1.22(4) 1.34(4) 1.27(4) 0.65(3) -.12(3) -.28(3)
Mg1 Mg2+ 2.13(8) 1.98(7) 1.26(7) 1.03(6) -.15(6) -.23(6)
Mg2 Mg2+ 1.52(5) 1.43(5) 1.37(5) 0.70(4) -.05(4) -.16(4)
O1 O2- 2.0(1) 1.4(1) 1.7(1) 0.71(9) 0.00(8) -.01(8)
O2 O2- 1.7(1) 2.7(1) 2.2(1) 1.09(9) -.41(9) -.88(9)
O3 O2- 1.9(1) 1.8(1) 1.9(1) 1.10(9) -.02(8) -.41(8)
O4 O2- 1.9(1) 1.7(1) 1.4(1) 0.76(9) -.14(8) -.30(8)
O5 O2- 5.2(2) 1.9(1) 1.8(1) 1.1(1) 0.4(1) -.3(1)
O6 O2- 4.7(2) 4.9(2) 1.9(1) 3.9(2) -.1(1) 0.0(1)
O7 O2- 3.8(2) 3.2(2) 2.1(1) 1.7(1) 0.8(1) -.1(1)
O8 O2- 1.8(1) 2.8(1) 3.2(1) 1.3(1) -.5(1) -1.4(1)
O9 O2- 1.8(1) 1.9(1) 1.8(1) 0.9(1) 0.13(8) -.24(9)
O10 O2- 3.8(2) 1.8(1) 1.4(1) 0.6(1) 0.0(1) -.4(1)
O11 O2- 1.7(1) 1.8(1) 2.2(1) 0.6(1) -.38(9) 0.13(9)
O12 O2- 2.1(1) 1.7(1) 2.4(1) 1.0(1) 0.40(9) 0.2(1)
O13 O2- 4.9(2) 4.7(2) 1.7(1) 4.0(2) 0.6(1) 0.6(1)
O14 O2- 2.6(2) 3.3(1) 2.3(1) 1.3(1) -.3(1) -.3(1)
O15 O2- 3.1(2) 3.1(2) 2.1(1) 1.3(1) -.7(1) -.4(1)
#End of data_100365-ICSD


