data_30808-ICSD
#?2014 by Fachinformationszentrum Karlsruhe, and the U.S. Secretary of 
#Commerce on behalf of the United States.  All rights reserved.
_database_code_ICSD                30808
_audit_creation_date               1984/11/06
_audit_update_record               2006/04/01
_chemical_name_systematic          'Magnesium Catena-silicate'
_chemical_formula_structural       'Mg (Si O3)'
_chemical_formula_sum              'Mg1 O3 Si1'
_chemical_name_mineral             Protoenstatite
_publ_section_title
;
X-ray studies on protoenstatite II. Effect of temperature on the 
structure up to near the incongruent melting point
;
loop_
_citation_id
_citation_journal_abbrev
_citation_year
_citation_journal_volume
_citation_page_first
_citation_page_last
_citation_journal_id_ASTM
primary 'Zeitschrift fuer Kristallographie (1979-2010)' 1984 166 263 275 ZEKRDZ
2 'Zeitschrift fuer Kristallographie (1979-2010)' 1982 160 299 312 ZEKRDZ
3 'Golden Book of Phase Transitions, Wroclaw' 2002 1 1 123 GBOPT5
_publ_author_name
;
Murakami, T.;Takeuchi, Y.;Yamanaka, T.
;
_cell_length_a                     9.349(6)
_cell_length_b                     8.929(6)
_cell_length_c                     5.361(4)
_cell_angle_alpha                  90.
_cell_angle_beta                   90.
_cell_angle_gamma                  90.
_cell_volume                       447.52
_cell_formula_units_Z              8
_symmetry_space_group_name_H-M     'P b c n'
_symmetry_Int_Tables_number        60
_refine_ls_R_factor_all            .125
loop_
_symmetry_equiv_pos_site_id
_symmetry_equiv_pos_as_xyz
  1	'x, -y, z+.5'
  2	'-x+.5, y+.5, z'
  3	'x+.5, y+.5, -z+.5'
  4	'-x, -y, -z'
  5	'-x, y, -z+.5'
  6	'x+.5, -y+.5, -z'
  7	'-x+.5, -y+.5, z+.5'
  8	'x, y, z'
loop_
_atom_type_symbol
_atom_type_oxidation_number
Mg2+	2
O2-	-2
Si4+	4
loop_
_atom_site_label
_atom_site_type_symbol
_atom_site_symmetry_multiplicity
_atom_site_Wyckoff_symbol
_atom_site_fract_x
_atom_site_fract_y
_atom_site_fract_z
_atom_site_occupancy
_atom_site_attached_hydrogens
_atom_site_B_iso_or_equiv
Mg1 Mg2+ 4 c 0 0.102(1) 0.75 1. 0 2.9 
Mg2 Mg2+ 4 c 0 0.265(1) 0.25 1. 0 2.78 
Si1 Si4+ 8 d 0.2902(5) 0.0899(5) 0.0743(7) 1. 0 1.29 
O1 O2- 8 d 0.124(2) 0.094(1) 0.079(3) 1. 0 3.1 
O2 O2- 8 d 0.383(2) 0.246(2) 0.065(3) 1. 0 2.65 
O3 O2- 8 d 0.346(2) 0.983(2) 0.313(2) 1. 0 3.42 

#End of data_30808-ICSD


