data_409999-ICSD
#?2014 by Fachinformationszentrum Karlsruhe, and the U.S. Secretary of 
#Commerce on behalf of the United States.  All rights reserved.
_database_code_ICSD                409999
_audit_creation_date               2010/02/01
_chemical_name_systematic
;
Dipotassium Hexaaquacobalt(II) Bis(selenate)
;
_chemical_formula_structural       'K2 (Co (H2 O)6) (Se O4)2'
_chemical_formula_sum              'H12 Co1 K2 O14 Se2'
_publ_section_title
;
Crystal structure of Tutton¡§s salts K2 [M(II) (H2 O)6] (Se O4)2, 
M(II) = Co, Ni, Zn and refinement of the crystal structure of 
potassium hexaaquamagnesium(II) selenate, K2 [Mg (H2 O)6] (Se O4)2
;
loop_
_citation_id
_citation_journal_abbrev
_citation_year
_citation_journal_volume
_citation_journal_issue
_citation_page_first
_citation_page_last
_citation_journal_id_ASTM
primary 'Zeitschrift fuer Kristallographie - New Crystal Structures'
 2009 224 3 351 354 ZKNSFT
_publ_author_name
;
Euler, H.;Barbier, B.;Meents, A.;Kirfel, A.
;
_cell_length_a                     9.2263(11)
_cell_length_b                     12.3754(13)
_cell_length_c                     6.2768(7)
_cell_angle_alpha                  90.00
_cell_angle_beta                   104.210(9)
_cell_angle_gamma                  90.00
_cell_volume                       694.75
_cell_formula_units_Z              2
_symmetry_space_group_name_H-M     'P 1 21/a 1'
_symmetry_Int_Tables_number        14
_refine_ls_R_factor_all            .0199
loop_
_symmetry_equiv_pos_site_id
_symmetry_equiv_pos_as_xyz
  1	'x+.5, -y+.5, z'
  2	'-x, -y, -z'
  3	'-x+.5, y+.5, -z'
  4	'x, y, z'
loop_
_atom_type_symbol
_atom_type_oxidation_number
Co2+	2
H1+	1
K1+	1
O2-	-2
Se6+	6
loop_
_atom_site_label
_atom_site_type_symbol
_atom_site_symmetry_multiplicity
_atom_site_Wyckoff_symbol
_atom_site_fract_x
_atom_site_fract_y
_atom_site_fract_z
_atom_site_occupancy
_atom_site_attached_hydrogens
_atom_site_U_iso_or_equiv
Co1 Co2+ 2 a 0.0000 0.0000 0.0000 1 0 0.01726(15) 
Se1 Se6+ 4 e 0.41354(3) 0.134449(18) 0.72614(4) 1 0 0.01920(13) 
O1 O2- 4 e 0.4078(2) 0.23787(15) 0.5624(3) 1 0 0.0364(5) 
O2 O2- 4 e 0.5712(2) 0.0717(2) 0.7517(4) 1 0 0.0461(6) 
O3 O2- 4 e 0.27756(19) 0.05284(14) 0.6117(3) 1 0 0.0267(4) 
O4 O2- 4 e 0.3939(2) 0.17573(14) 0.9663(3) 1 0 0.0288(4) 
O5 O2- 4 e 0.1676(2) 0.10969(18) 0.1679(4) 1 0 0.0259(5) 
O6 O2- 4 e -0.1674(2) 0.11314(15) 0.0359(3) 1 0 0.0248(4) 
O7 O2- 4 e -0.0081(2) -0.06643(16) 0.2920(3) 1 0 0.0258(4) 
K1 K1+ 4 e 0.13714(7) 0.33950(5) 0.33770(10) 1 0 0.03184(17) 
H1 H1+ 4 e 0.184(4) 0.090(3) 0.253(6) 1 0 0.027(12) 
H2 H1+ 4 e 0.224(4) 0.130(2) 0.116(5) 1 0 0.022(9) 
H3 H1+ 4 e -0.244(4) 0.109(2) -0.051(5) 1 0 0.024(8) 
H4 H1+ 4 e -0.142(5) 0.172(3) 0.018(6) 1 0 0.049(11) 
H5 H1+ 4 e -0.087(4) -0.062(2) 0.324(5) 1 0 0.031(9) 
H6 H1+ 4 e 0.009(6) -0.121(4) 0.335(8) 1 0 0.066(15) 

loop_
_atom_site_aniso_label
_atom_site_aniso_type_symbol
_atom_site_aniso_U_11
_atom_site_aniso_U_22
_atom_site_aniso_U_33
_atom_site_aniso_U_12
_atom_site_aniso_U_13
_atom_site_aniso_U_23
Co1 Co2+ 0.0156(2) 0.0188(2) 0.0174(2) -0.00077(16) 0.00422(17) 0.00050(16)
Se1 Se6+ 0.01673(18) 0.02155(17) 0.01928(17) -0.00209(9) 0.00436(11) 
-0.00215(8)
O1 O2- 0.0528(13) 0.0290(10) 0.0268(9) -0.0125(9) 0.0087(9) 0.0043(8)
O2 O2- 0.0239(11) 0.0593(15) 0.0509(13) 0.0123(10) 0.0010(9) -0.0138(11)
O3 O2- 0.0224(9) 0.0289(9) 0.0294(9) -0.0082(7) 0.0077(8) -0.0060(7)
O4 O2- 0.0402(11) 0.0272(9) 0.0213(9) -0.0034(8) 0.0121(8) -0.0039(7)
O5 O2- 0.0251(11) 0.0313(11) 0.0202(12) -0.0069(8) 0.0037(10) 0.0003(9)
O6 O2- 0.0214(11) 0.0226(10) 0.0301(10) 0.0008(8) 0.0057(9) 0.0009(8)
O7 O2- 0.0286(11) 0.0260(10) 0.0260(10) 0.0036(8) 0.0131(8) 0.0047(8)
K1 K1+ 0.0337(4) 0.0327(3) 0.0305(3) -0.0018(3) 0.0107(3) 0.0003(2)
#End of data_409999-ICSD


