data_68875-ICSD
#?2014 by Fachinformationszentrum Karlsruhe, and the U.S. Secretary of 
#Commerce on behalf of the United States.  All rights reserved.
_database_code_ICSD                68875
_audit_creation_date               1992/01/20
_audit_update_record               2003/04/01
_chemical_name_systematic          'Potassium Terbium Chromate'
_chemical_formula_structural       'K Tb (Cr O4)2'
_chemical_formula_sum              'Cr2 K1 O8 Tb1'
_publ_section_title
;
Crystal growth and crystal structure of K Tb (Cr O4)2
;
loop_
_citation_id
_citation_journal_abbrev
_citation_year
_citation_journal_volume
_citation_page_first
_citation_page_last
_citation_journal_id_ASTM
primary 'Journal of Solid State Chemistry' 1990 85 83 87 JSSCBI
_publ_author_name
;
Bueno, I.;Parada, C.;Hermoso, J.A.;Vegas, A.;Martinez-Ripoll, M.
;
_cell_length_a                     13.804(5)
_cell_length_b                     5.735(1)
_cell_length_c                     9.029(2)
_cell_angle_alpha                  90.
_cell_angle_beta                   90.
_cell_angle_gamma                  90.
_cell_volume                       714.79
_cell_formula_units_Z              4
_symmetry_space_group_name_H-M     'P 21 21 21'
_symmetry_Int_Tables_number        19
_refine_ls_R_factor_all            .073
loop_
_symmetry_equiv_pos_site_id
_symmetry_equiv_pos_as_xyz
  1	'-x, y+.5, -z+.5'
  2	'x+.5, -y+.5, -z'
  3	'-x+.5, -y, z+.5'
  4	'x, y, z'
loop_
_atom_type_symbol
_atom_type_oxidation_number
Cr6+	6
K1+	1
O2-	-2
Tb3+	3
loop_
_atom_site_label
_atom_site_type_symbol
_atom_site_symmetry_multiplicity
_atom_site_Wyckoff_symbol
_atom_site_fract_x
_atom_site_fract_y
_atom_site_fract_z
_atom_site_occupancy
_atom_site_attached_hydrogens
_atom_site_U_iso_or_equiv
Tb1 Tb3+ 4 a -.1405(1) 0.2334(3) 0.0379(1) 1. 0 0.0155(3) 
Cr1 Cr6+ 4 a 0.1608(3) 0.2566(12) -.3408(4) 1. 0 0.0114(11) 
Cr2 Cr6+ 4 a 0.1162(3) 0.2442(18) 0.1845(5) 1. 0 0.0191(13) 
K1 K1+ 4 a 0.4143(6) 0.2524(32) 0.4202(10) 1. 0 0.0400(26) 
O1 O2- 4 a 0.2179(18) 0.2765(71) -.1850(28) 1. 0 0.0312(60) 
O2 O2- 4 a 0.0967(20) 0.0171(52) -.3769(30) 1. 0 0.0171(58) 
O3 O2- 4 a 0.0870(18) 0.4838(46) -.3345(28) 1. 0 0.013(5) 
O4 O2- 4 a 0.232(2) 0.3193(53) -.4781(33) 1. 0 0.0351(72) 
O5 O2- 4 a 0.0390(14) 0.2205(50) 0.0480(25) 1. 0 0.0196(44) 
O6 O2- 4 a 0.2255(17) 0.2033(52) 0.1199(25) 1. 0 0.0217(53) 
O7 O2- 4 a 0.1094(22) 0.4997(58) 0.2673(34) 1. 0 0.0262(66) 
O8 O2- 4 a 0.0932(23) 0.0378(62) 0.3088(35) 1. 0 0.0305(71) 

#End of data_68875-ICSD


