data_97854-ICSD
#?2014 by Fachinformationszentrum Karlsruhe, and the U.S. Secretary of 
#Commerce on behalf of the United States.  All rights reserved.
_database_code_ICSD                97854
_audit_creation_date               2004/10/01
_chemical_name_systematic          'Dirubidium Tetrabromozincate - Hp'
_chemical_formula_structural       'Rb2 (Zn Br4)'
_chemical_formula_sum              'Br4 Rb2 Zn1'
_publ_section_title
;
X-ray study of Rb2 Zn Br4 under high pressure
;
loop_
_citation_id
_citation_journal_abbrev
_citation_year
_citation_journal_volume
_citation_journal_issue
_citation_page_first
_citation_page_last
_citation_journal_id_ASTM
primary 'Journal of the Physical Society of Japan' 2002 71 12 2925 2929 JUPSAU
_publ_author_name                  'Asahi, T.;Hasebe, K.'
_cell_length_a                     7.423(7)
_cell_length_b                     13.017(9)
_cell_length_c                     9.534(5)
_cell_angle_alpha                  90
_cell_angle_beta                   90
_cell_angle_gamma                  90.42(2)
_cell_volume                       921.2
_cell_formula_units_Z              4
_symmetry_space_group_name_H-M     'P 1 1 21/n'
_symmetry_Int_Tables_number        14
_refine_ls_R_factor_all            .132
loop_
_symmetry_equiv_pos_site_id
_symmetry_equiv_pos_as_xyz
  1	'x+.5, y+.5, -z+.5'
  2	'-x, -y, -z'
  3	'-x+.5, -y+.5, z+.5'
  4	'x, y, z'
loop_
_atom_type_symbol
_atom_type_oxidation_number
Br1-	-1
Rb1+	1
Zn2+	2
loop_
_atom_site_label
_atom_site_type_symbol
_atom_site_symmetry_multiplicity
_atom_site_Wyckoff_symbol
_atom_site_fract_x
_atom_site_fract_y
_atom_site_fract_z
_atom_site_occupancy
_atom_site_attached_hydrogens
_atom_site_B_iso_or_equiv
Rb1 Rb1+ 4 e 0.2398(23) 0.1040(7) 0.1239(13) 1. 0 4.3(3) 
Rb2 Rb1+ 4 e 0.2492(29) 0.8268(6) 0.4852(14) 1. 0 3.0(2) 
Zn1 Zn2+ 4 e 0.2542(20) 0.4255(7) 0.2251(14) 1. 0 2.0(3) 
Br1 Br1- 4 e 0.2636(23) 0.4158(7) -0.0231(13) 1. 0 2.8(2) 
Br2 Br1- 4 e 0.1998(13) 0.5887(7) 0.3231(13) 1. 0 2.2(3) 
Br3 Br1- 4 e 0.0123(17) 0.3157(7) 0.3108(17) 1. 0 3.1(3) 
Br4 Br1- 4 e 0.5260(18) 0.3619(8) 0.3187(17) 1. 0 4.2(3) 

#End of data_97854-ICSD


