data_84911-ICSD
#?2014 by Fachinformationszentrum Karlsruhe, and the U.S. Secretary of 
#Commerce on behalf of the United States.  All rights reserved.
_database_code_ICSD                84911
_audit_creation_date               1999/01/19
_chemical_name_systematic
;
Sodium Pentanitridotantalo(IV)ditantalate
;
_chemical_formula_structural       'Na (Ta3 N5)'
_chemical_formula_sum              'N5 Na1 Ta3'
_publ_section_title
;
A new conducting ternary nitride : Nax Ta3 N5 (0<x<1.4)
;
loop_
_citation_id
_citation_journal_abbrev
_citation_year
_citation_journal_volume
_citation_page_first
_citation_page_last
_citation_journal_id_ASTM
primary 'Journal of Solid State Chemistry' 1997 132 394 398 JSSCBI
_publ_author_name                  'Clarke, S.J.;DiSalvo, F.J.'
_cell_length_a                     3.995(1)
_cell_length_b                     10.197(2)
_cell_length_c                     10.331(2)
_cell_angle_alpha                  90.
_cell_angle_beta                   90.
_cell_angle_gamma                  90.
_cell_volume                       420.85
_cell_formula_units_Z              4
_symmetry_space_group_name_H-M     'C m c m'
_symmetry_Int_Tables_number        63
_refine_ls_R_factor_all            .012
loop_
_symmetry_equiv_pos_site_id
_symmetry_equiv_pos_as_xyz
  1	'-x, y, -z+.5'
  2	'-x, -y, z+.5'
  3	'-x, y, z'
  4	'-x, -y, -z'
  5	'x, -y, z+.5'
  6	'x, y, -z+.5'
  7	'x, -y, -z'
  8	'x, y, z'
  9	'-x+.5, y+.5, -z+.5'
 10	'-x+.5, -y+.5, z+.5'
 11	'-x+.5, y+.5, z'
 12	'-x+.5, -y+.5, -z'
 13	'x+.5, -y+.5, z+.5'
 14	'x+.5, y+.5, -z+.5'
 15	'x+.5, -y+.5, -z'
 16	'x+.5, y+.5, z'
loop_
_atom_type_symbol
_atom_type_oxidation_number
N3-	-3
Na1+	1
Ta4.667+	4.667
loop_
_atom_site_label
_atom_site_type_symbol
_atom_site_symmetry_multiplicity
_atom_site_Wyckoff_symbol
_atom_site_fract_x
_atom_site_fract_y
_atom_site_fract_z
_atom_site_occupancy
_atom_site_attached_hydrogens
_atom_site_U_iso_or_equiv
Ta1 Ta4.667+ 4 c 0 0.2004(3) 0.25 1. 0 0.004(1) 
Ta2 Ta4.667+ 8 f 0 0.1384(2) 0.5523(3) 1. 0 0.003(1) 
Na1 Na1+ 4 c 0 0.501(3) 0.75 1. 0 0.024(9) 
N1 N3- 4 c 0 0.754(6) 0.25 1. 0 0.025(9) 
N2 N3- 8 f 0 0.043(4) 0.129(3) 1. 0 0.025(9) 
N3 N3- 8 f 0 0.344(4) 0.076(4) 1. 0 0.025(9) 

#End of data_84911-ICSD


