data_24543-ICSD
#?2014 by Fachinformationszentrum Karlsruhe, and the U.S. Secretary of 
#Commerce on behalf of the United States.  All rights reserved.
_database_code_ICSD                24543
_audit_creation_date               1980/01/01
_audit_update_record               1985/05/13
_chemical_name_systematic
;
Pentapotassium Yttrium Hexanitroniccolate(II)
;
_chemical_formula_structural       'K5 Y (Ni (N O2)6)2'
_chemical_formula_sum              'K5 N12 Ni2 O24 Y1'
_publ_section_title
;
Metalloesanitriti di un catione trivalente (Ce o Y) e di un catione 
monovalente (K, Rb, Cs, N H4, Tl)
;
loop_
_citation_id
_citation_journal_abbrev
_citation_year
_citation_journal_volume
_citation_page_first
_citation_page_last
_citation_journal_id_ASTM
primary 'Gazzetta Chimica Italiana' 1951 81 964 981 GCITA9
_publ_author_name
;
Ferrari, A.;Cavalca, L.;Nardelli, M.
;
_cell_length_a                     10.36
_cell_length_b                     10.36
_cell_length_c                     10.36
_cell_angle_alpha                  90.
_cell_angle_beta                   90.
_cell_angle_gamma                  90.
_cell_volume                       1111.93
_cell_formula_units_Z              2
_symmetry_space_group_name_H-M     'P n -3 S'
_symmetry_Int_Tables_number        201
loop_
_symmetry_equiv_pos_site_id
_symmetry_equiv_pos_as_xyz
  1	'-z+.5, x+.5, y+.5'
  2	'z+.5, x+.5, -y+.5'
  3	'z+.5, -x+.5, y+.5'
  4	'-z+.5, -x+.5, -y+.5'
  5	'y+.5, -z+.5, x+.5'
  6	'-y+.5, z+.5, x+.5'
  7	'y+.5, z+.5, -x+.5'
  8	'-y+.5, -z+.5, -x+.5'
  9	'x+.5, y+.5, -z+.5'
 10	'x+.5, -y+.5, z+.5'
 11	'-x+.5, y+.5, z+.5'
 12	'-x+.5, -y+.5, -z+.5'
 13	'z, -x, -y'
 14	'-z, -x, y'
 15	'-z, x, -y'
 16	'z, x, y'
 17	'-y, z, -x'
 18	'y, -z, -x'
 19	'-y, -z, x'
 20	'y, z, x'
 21	'-x, -y, z'
 22	'-x, y, -z'
 23	'x, -y, -z'
 24	'x, y, z'
loop_
_atom_type_symbol
_atom_type_oxidation_number
K1+	1
N3+	3
Ni2+	2
O2-	-2
Y3+	3
loop_
_atom_site_label
_atom_site_type_symbol
_atom_site_symmetry_multiplicity
_atom_site_Wyckoff_symbol
_atom_site_fract_x
_atom_site_fract_y
_atom_site_fract_z
_atom_site_occupancy
_atom_site_attached_hydrogens
K1 K1+ 4 c 0.75 0.75 0.75 1. 0 
K2 K1+ 6 d 0 0.5 0.5 1. 0 
Y1 Y3+ 2 a 0 0 0 1. 0 
Ni1 Ni2+ 4 b 0.25 0.25 0.25 1. 0 
N1 N3+ 24 h 0.046 0.25 0.25 1. 0 
O1 O2- 24 h -.005 0.148 0.25 1. 0 
O2 O2- 24 h -.005 0.352 0.25 1. 0 

#End of data_24543-ICSD


