data_402230-ICSD
#?2014 by Fachinformationszentrum Karlsruhe, and the U.S. Secretary of 
#Commerce on behalf of the United States.  All rights reserved.
_database_code_ICSD                402230
_audit_creation_date               1996/10/14
_audit_update_record               2013/08/01
_chemical_name_systematic          'Potassium Ditellurotriargentate(I)'
_chemical_formula_structural       'K (Ag3 Te2)'
_chemical_formula_sum              'Ag3 K1 Te2'
_publ_section_title
;
Crystal structure of potassium telluro triargentate(I), K Ag3 Te2
;
loop_
_citation_id
_citation_journal_abbrev
_citation_year
_citation_journal_volume
_citation_page_first
_citation_page_last
_citation_journal_id_ASTM
primary 'Zeitschrift fuer Kristallographie (1979-2010)' 1996 211 393 393 ZEKRDZ
_publ_author_name                  'Klepp, K.O.;Sparlinek, W.'
_cell_length_a                     17.43(1)
_cell_length_b                     4.587(2)
_cell_length_c                     9.044(3)
_cell_angle_alpha                  90.
_cell_angle_beta                   113.33(3)
_cell_angle_gamma                  90.
_cell_volume                       663.96
_cell_formula_units_Z              4
_symmetry_space_group_name_H-M     'C 1 2/m 1'
_symmetry_Int_Tables_number        12
_refine_ls_R_factor_all            .078
loop_
_symmetry_equiv_pos_site_id
_symmetry_equiv_pos_as_xyz
  1	'-x, y, -z'
  2	'-x, -y, -z'
  3	'x, -y, z'
  4	'x, y, z'
  5	'-x+.5, y+.5, -z'
  6	'-x+.5, -y+.5, -z'
  7	'x+.5, -y+.5, z'
  8	'x+.5, y+.5, z'
loop_
_atom_type_symbol
_atom_type_oxidation_number
Ag1+	1
K1+	1
Te2-	-2
loop_
_atom_site_label
_atom_site_type_symbol
_atom_site_symmetry_multiplicity
_atom_site_Wyckoff_symbol
_atom_site_fract_x
_atom_site_fract_y
_atom_site_fract_z
_atom_site_occupancy
_atom_site_attached_hydrogens
K1 K1+ 4 i 0.1339(5) 0 0.0477(9) 1. 0 
Ag1 Ag1+ 4 i 0.5893(2) 0 0.6289(3) 1. 0 
Ag2 Ag1+ 4 i 0.6925(2) 0 0.4579(3) 1. 0 
Ag3 Ag1+ 4 i 0.0627(2) 0 0.4082(3) 1. 0 
Te1 Te2- 4 i 0.2058(1) 0 0.7101(2) 1. 0 
Te2 Te2- 4 i 0.5175(1) 0 0.2210(2) 1. 0 

loop_
_atom_site_aniso_label
_atom_site_aniso_type_symbol
_atom_site_aniso_U_11
_atom_site_aniso_U_22
_atom_site_aniso_U_33
_atom_site_aniso_U_12
_atom_site_aniso_U_13
_atom_site_aniso_U_23
K1 K1+ 0.032(3) 0.045(5) 0.044(3) 0 0.009(2) 0
Ag1 Ag1+ 0.050(1) 0.037(2) 0.059(1) 0 0.0358(7) 0
Ag2 Ag1+ 0.036(1) 0.067(2) 0.053(1) 0 0.0251(8) 0
Ag3 Ag1+ 0.071(2) 0.036(2) 0.030(1) 0 0.005(1) 0
Te1 Te2- 0.0215(8) 0.028(1) 0.0249(7) 0 0.0072(5) 0
Te2 Te2- 0.0219(7) 0.027(1) 0.0229(7) 0 0.0064(5) 0
#End of data_402230-ICSD


