data_82216-ICSD
#?2014 by Fachinformationszentrum Karlsruhe, and the U.S. Secretary of 
#Commerce on behalf of the United States.  All rights reserved.
_database_code_ICSD                82216
_audit_creation_date               1999/11/30
_chemical_name_systematic          'Calcium Nickel Catena-disilicate'
_chemical_formula_structural       'Ca Ni (Si2 O6)'
_chemical_formula_sum              'Ca1 Ni1 O6 Si2'
_publ_section_title
;
Synthesis, structure, and magnetic properties of Ca M Si2 O6 (M = Co, 
Ni) compounds and their solid solutions
;
loop_
_citation_id
_citation_journal_abbrev
_citation_year
_citation_journal_volume
_citation_page_first
_citation_page_last
_citation_journal_id_ASTM
primary 'Journal of Solid State Chemistry' 1996 124 374 380 JSSCBI
_publ_author_name
;
Durand, G.;Vilminot, S.;Rabu, P.;Derory, A.;Lambour, J.P.
;
_cell_length_a                     9.7355(4)
_cell_length_b                     8.9025(3)
_cell_length_c                     5.2272(2)
_cell_angle_alpha                  90.
_cell_angle_beta                   105.839(2)
_cell_angle_gamma                  90.
_cell_volume                       435.84
_cell_formula_units_Z              4
_symmetry_space_group_name_H-M     'C 1 2/c 1'
_symmetry_Int_Tables_number        15
_refine_ls_R_factor_all            .096
loop_
_symmetry_equiv_pos_site_id
_symmetry_equiv_pos_as_xyz
  1	'x, -y, z+.5'
  2	'-x, -y, -z'
  3	'-x, y, -z+.5'
  4	'x, y, z'
  5	'x+.5, -y+.5, z+.5'
  6	'-x+.5, -y+.5, -z'
  7	'-x+.5, y+.5, -z+.5'
  8	'x+.5, y+.5, z'
loop_
_atom_type_symbol
_atom_type_oxidation_number
Ca2+	2
Ni2+	2
O2-	-2
Si4+	4
loop_
_atom_site_label
_atom_site_type_symbol
_atom_site_symmetry_multiplicity
_atom_site_Wyckoff_symbol
_atom_site_fract_x
_atom_site_fract_y
_atom_site_fract_z
_atom_site_occupancy
_atom_site_attached_hydrogens
_atom_site_B_iso_or_equiv
Ni1 Ni2+ 4 e 0 0.9061(5) 0.25 1. 0 1.8(1) 
Ca1 Ca2+ 4 e 0 0.2956(6) 0.25 1. 0 3.6(2) 
Si1 Si4+ 8 f 0.2861(5) 0.0915(6) 0.228(1) 1. 0 3.2(2) 
O1 O2- 8 f 0.1146(9) 0.0829(13) 0.1390(17) 1. 0 3.1(3) 
O2 O2- 8 f 0.3693(9) 0.2558(11) 0.3231(16) 1. 0 1.9(3) 
O3 O2- 8 f 0.3457(9) 0.0179(9) -.0151(23) 1. 0 1.8(2) 

#End of data_82216-ICSD


