data_74057-ICSD
#?2014 by Fachinformationszentrum Karlsruhe, and the U.S. Secretary of 
#Commerce on behalf of the United States.  All rights reserved.
_database_code_ICSD                74057
_audit_creation_date               1995/01/10
_audit_update_record               2012/08/01
_chemical_name_systematic
;
Octazinc Diselenide Tecto-dodecaborate
;
_chemical_formula_structural       'Zn8 Se2 (B O2)12'
_chemical_formula_sum              'B12 O24 Se2 Zn8'
_publ_section_title
;
Synthesis and characterization of mixed ZnSe/GaP semiconductor 
species included in the sodalite structure
;
loop_
_citation_id
_citation_journal_abbrev
_citation_year
_citation_journal_volume
_citation_page_first
_citation_page_last
_citation_journal_id_ASTM
primary 'Journal of the American Chemical Society' 1993 115 10553 10558 JACSAT
_publ_author_name
;
Moran, K.L.;Gier, T.E.;Harrison, W.T.A.;Stucky, G.D.;Eckert, 
H.;Eichele, K.;Wasylishen, R.E.
;
_cell_length_a                     7.6801(4)
_cell_length_b                     7.6801(4)
_cell_length_c                     7.6801(4)
_cell_angle_alpha                  90.
_cell_angle_beta                   90.
_cell_angle_gamma                  90.
_cell_volume                       453
_cell_formula_units_Z              1
_symmetry_space_group_name_H-M     'I -4 3 m'
_symmetry_Int_Tables_number        217
_refine_ls_R_factor_all            .039
loop_
_symmetry_equiv_pos_site_id
_symmetry_equiv_pos_as_xyz
  1	'-z, -y, x'
  2	'-y, -x, z'
  3	'-x, -z, y'
  4	'-z, -x, y'
  5	'-y, -z, x'
  6	'-x, -y, z'
  7	'-z, y, -x'
  8	'-y, x, -z'
  9	'-x, z, -y'
 10	'-z, x, -y'
 11	'-y, z, -x'
 12	'-x, y, -z'
 13	'z, -y, -x'
 14	'y, -x, -z'
 15	'x, -z, -y'
 16	'z, -x, -y'
 17	'y, -z, -x'
 18	'x, -y, -z'
 19	'z, y, x'
 20	'y, x, z'
 21	'x, z, y'
 22	'z, x, y'
 23	'y, z, x'
 24	'x, y, z'
 25	'-z+.5, -y+.5, x+.5'
 26	'-y+.5, -x+.5, z+.5'
 27	'-x+.5, -z+.5, y+.5'
 28	'-z+.5, -x+.5, y+.5'
 29	'-y+.5, -z+.5, x+.5'
 30	'-x+.5, -y+.5, z+.5'
 31	'-z+.5, y+.5, -x+.5'
 32	'-y+.5, x+.5, -z+.5'
 33	'-x+.5, z+.5, -y+.5'
 34	'-z+.5, x+.5, -y+.5'
 35	'-y+.5, z+.5, -x+.5'
 36	'-x+.5, y+.5, -z+.5'
 37	'z+.5, -y+.5, -x+.5'
 38	'y+.5, -x+.5, -z+.5'
 39	'x+.5, -z+.5, -y+.5'
 40	'z+.5, -x+.5, -y+.5'
 41	'y+.5, -z+.5, -x+.5'
 42	'x+.5, -y+.5, -z+.5'
 43	'z+.5, y+.5, x+.5'
 44	'y+.5, x+.5, z+.5'
 45	'x+.5, z+.5, y+.5'
 46	'z+.5, x+.5, y+.5'
 47	'y+.5, z+.5, x+.5'
 48	'x+.5, y+.5, z+.5'
loop_
_atom_type_symbol
_atom_type_oxidation_number
B3+	3
O2-	-2
Se2-	-2
Zn2+	2
loop_
_atom_site_label
_atom_site_type_symbol
_atom_site_symmetry_multiplicity
_atom_site_Wyckoff_symbol
_atom_site_fract_x
_atom_site_fract_y
_atom_site_fract_z
_atom_site_occupancy
_atom_site_attached_hydrogens
_atom_site_B_iso_or_equiv
B1 B3+ 12 d 0.25 0.5 0 1. 0 0.1 
O1 O2- 24 g 0.14387(3) 0.14387(3) 0.4291(4) 1. 0 0.5(2) 
Zn1 Zn2+ 8 c 0.17788(2) 0.17788(2) 0.17788(2) 1. 0 0.40(6) 
Se1 Se2- 2 a 0 0 0 1. 0 0.68(8) 

#End of data_74057-ICSD


