data_92954-ICSD
#?2014 by Fachinformationszentrum Karlsruhe, and the U.S. Secretary of 
#Commerce on behalf of the United States.  All rights reserved.
_database_code_ICSD                92954
_audit_creation_date               2003/04/01
_audit_update_record               2006/04/01
_chemical_name_systematic
;
Sodium Vanadium(IV) Vanadium Oxide - Alpha'
;
_chemical_formula_structural       'Na (V2 O5)'
_chemical_formula_sum              'Na1 O5 V2'
_publ_section_title
;
Structure determination, valence and superexchange in the dimerized 
low temperature phase of alpha'-(Na V2 O5)
;
loop_
_citation_id
_citation_journal_abbrev
_citation_year
_citation_journal_volume
_citation_page_first
_citation_page_last
_citation_journal_id_ASTM
primary 'The European Physical Journal B' 2001 21 535 546 EPJBFY
2 'Golden Book of Phase Transitions, Wroclaw' 2002 1 1 123 GBOPT5
_publ_author_name
;
Bernert, A.;Chatterji, T.;Thalmeier, P.;Fulde, P.
;
_cell_length_a                     11.3030(1)
_cell_length_b                     3.61095(3)
_cell_length_c                     4.7525(1)
_cell_angle_alpha                  90
_cell_angle_beta                   90
_cell_angle_gamma                  90
_cell_volume                       193.97
_cell_formula_units_Z              2
_symmetry_space_group_name_H-M     'P m m n Z'
_symmetry_Int_Tables_number        59
_refine_ls_R_factor_all            .06
loop_
_symmetry_equiv_pos_site_id
_symmetry_equiv_pos_as_xyz
  1	'x+.5, y+.5, -z'
  2	'-x, y+.5, -z'
  3	'x+.5, -y, -z'
  4	'-x, -y, -z'
  5	'-x+.5, -y+.5, z'
  6	'x, -y+.5, z'
  7	'-x+.5, y, z'
  8	'x, y, z'
loop_
_atom_type_symbol
_atom_type_oxidation_number
Na1+	1
O2-	-2
V4.5+	4.5
loop_
_atom_site_label
_atom_site_type_symbol
_atom_site_symmetry_multiplicity
_atom_site_Wyckoff_symbol
_atom_site_fract_x
_atom_site_fract_y
_atom_site_fract_z
_atom_site_occupancy
_atom_site_attached_hydrogens
V1 V4.5+ 4 f 0.40212(7) 0.250 0.39067(22) 1. 0 
Na1 Na1+ 2 b 0.250 0.750 0.85362(73) 1. 0 
O1 O2- 2 a 0.250 0.250 0.5111(12) 1. 0 
O2 O2- 4 f 0.38565(42) 0.250 0.0541(15) 1. 0 
O3 O2- 4 f 0.42595(39) 0.750 0.50381(93) 1. 0 

#End of data_92954-ICSD


