data_62595-ICSD
#?2014 by Fachinformationszentrum Karlsruhe, and the U.S. Secretary of 
#Commerce on behalf of the United States.  All rights reserved.
_database_code_ICSD                62595
_audit_creation_date               1988/02/22
_chemical_name_systematic          'Tetrasodium Orthogermanate'
_chemical_formula_structural       'Na4 Ge O4'
_chemical_formula_sum              'Ge1 Na4 O4'
_publ_section_title
;
Comparison of the crystal structures of sodium orthosilicate, Na4 Si 
O4, and sodium orthogermanate Na4 Ge O4.
;
loop_
_citation_id
_citation_journal_abbrev
_citation_year
_citation_journal_volume
_citation_page_first
_citation_page_last
_citation_journal_id_ASTM
primary 'Monatshefte fuer Chemie' 1986 117 793 797 MOCMB7
2 'Monatshefte fuer Chemie' 1985 116 1367 1367 MOCMB7
_publ_author_name
;
Baur, W.H.;Halwax, E.;Voellenkle, H.
;
_cell_length_a                     5.688
_cell_length_b                     5.701
_cell_length_c                     8.583
_cell_angle_alpha                  81.32
_cell_angle_beta                   71.5
_cell_angle_gamma                  67.95
_cell_volume                       244.48
_cell_formula_units_Z              2
_symmetry_space_group_name_H-M     'P -1'
_symmetry_Int_Tables_number        2
loop_
_symmetry_equiv_pos_site_id
_symmetry_equiv_pos_as_xyz
  1	'-x, -y, -z'
  2	'x, y, z'
loop_
_atom_type_symbol
_atom_type_oxidation_number
Ge4+	4
Na1+	1
O2-	-2
loop_
_atom_site_label
_atom_site_type_symbol
_atom_site_symmetry_multiplicity
_atom_site_Wyckoff_symbol
_atom_site_fract_x
_atom_site_fract_y
_atom_site_fract_z
_atom_site_occupancy
_atom_site_attached_hydrogens
Na1 Na1+ 2 i 0.449(1) 0.738(1) 0.1053(6) 1. 0 
Na2 Na1+ 2 i 0.740(1) 0.258(1) 0.4845(6) 1. 0 
Na3 Na1+ 2 i 0.895(1) 0.770(1) 0.3226(6) 1. 0 
Na4 Na1+ 2 i 0.981(1) 0.236(1) 0.0635(6) 1. 0 
Ge1 Ge4+ 2 i 0.3436(2) 0.2217(2) 0.2250(1) 1. 0 
O1 O2- 2 i 0.140(2) 0.036(2) 0.306(1) 1. 0 
O2 O2- 2 i 0.204(2) 0.472(2) 0.124(1) 1. 0 
O3 O2- 2 i 0.355(2) 0.352(2) 0.424(1) 1. 0 
O4 O2- 2 i 0.664(2) 0.033(2) 0.139(1) 1. 0 

#End of data_62595-ICSD


