data_82030-ICSD
#?2014 by Fachinformationszentrum Karlsruhe, and the U.S. Secretary of 
#Commerce on behalf of the United States.  All rights reserved.
_database_code_ICSD                82030
_audit_creation_date               1999/11/30
_chemical_name_systematic
;
Nonacalcium Iron(III) Heptakis(phosphate(V)) - S
;
_chemical_formula_structural       'Ca9 Fe (P O4)7'
_chemical_formula_sum              'Ca9 Fe1 O28 P7'
_publ_section_title
;
Crystal structures and characterization of Ca9 Fe (P O4)7 and Ca9 Fe 
H0.9 (P O4)7
;
loop_
_citation_id
_citation_journal_abbrev
_citation_year
_citation_journal_volume
_citation_page_first
_citation_page_last
_citation_journal_id_ASTM
primary 'Journal of Solid State Chemistry' 1996 122 15 21 JSSCBI
_publ_author_name
;
Lazoryak, B.I.;Morozov, V.A.;Belik, A.A.;Khasanov, S.S.;Shekhtman, 
V.Sh.
;
_cell_length_a                     10.3391(2)
_cell_length_b                     10.3391(2)
_cell_length_c                     37.1300(10)
_cell_angle_alpha                  90.
_cell_angle_beta                   90.
_cell_angle_gamma                  120.
_cell_volume                       3437.33
_cell_formula_units_Z              6
_symmetry_space_group_name_H-M     'R 3 c H'
_symmetry_Int_Tables_number        161
_refine_ls_R_factor_all            .028
loop_
_symmetry_equiv_pos_site_id
_symmetry_equiv_pos_as_xyz
  1	'-x+y, y, z+.5'
  2	'x, x-y, z+.5'
  3	'-y, -x, z+.5'
  4	'-x+y, -x, z'
  5	'-y, x-y, z'
  6	'x, y, z'
  7	'-x+y+.6666, y+.3333, z+.8333'
  8	'-x+y+.3333, y+.6666, z+.1666'
  9	'x+.6666, x-y+.3333, z+.8333'
 10	'x+.3333, x-y+.6666, z+.1666'
 11	'-y+.6666, -x+.3333, z+.8333'
 12	'-y+.3333, -x+.6666, z+.1666'
 13	'-x+y+.6666, -x+.3333, z+.3333'
 14	'-x+y+.3333, -x+.6666, z+.6666'
 15	'-y+.6666, x-y+.3333, z+.3333'
 16	'-y+.3333, x-y+.6666, z+.6666'
 17	'x+.6666, y+.3333, z+.3333'
 18	'x+.3333, y+.6666, z+.6666'
loop_
_atom_type_symbol
_atom_type_oxidation_number
Ca2+	2
Fe3+	3
O2-	-2
P5+	5
loop_
_atom_site_label
_atom_site_type_symbol
_atom_site_symmetry_multiplicity
_atom_site_Wyckoff_symbol
_atom_site_fract_x
_atom_site_fract_y
_atom_site_fract_z
_atom_site_occupancy
_atom_site_attached_hydrogens
_atom_site_B_iso_or_equiv
Ca1 Ca2+ 18 b 0.719(1) 0.852(2) 0.4337(5) 1. 0 0.2(2) 
Ca2 Ca2+ 18 b 0.622(1) 0.824(2) 0.2331(5) 1. 0 1.2(2) 
Ca3 Ca2+ 18 b 0.127(1) 0.2750(7) 0.3271(5) 1. 0 0.5(2) 
Fe1 Fe3+ 6 a 0 0 0 1. 0 0.5(2) 
P1 P5+ 6 a 0 0 0.2713(6) 1. 0 0.9(4) 
P2 P5+ 18 b 0.684(1) 0.853(2) 0.1371(5) 1. 0 0.2(3) 
P3 P5+ 18 b 0.656(2) 0.850(2) 0.0328(6) 1. 0 1.8(4) 
O1 O2- 6 a 0 0 0.3148(9) 1. 0 2.4(8) 
O2 O2- 18 b 0.017(3) 0.867(2) 0.2580(9) 1. 0 0.4(6) 
O3 O2- 18 b 0.729(3) 0.913(3) 0.1753(9) 1. 0 1.8(8) 
O4 O2- 18 b 0.743(4) 0.758(4) 0.1240(8) 1. 0 1.5(9) 
O5 O2- 18 b 0.722(4) 0.005(3) 0.1148(9) 1. 0 0.2(7) 
O6 O2- 18 b 0.509(3) 0.761(5) 0.1352(9) 1. 0 0.7(6) 
O7 O2- 18 b 0.610(3) 0.946(3) 0.0470(8) 1. 0 2.5(6) 
O8 O2- 18 b 0.578(3) 0.693(3) 0.0524(9) 1. 0 2.5(6) 
O9 O2- 18 b 0.824(3) 0.918(4) 0.0397(8) 1. 0 2.5(6) 
O10 O2- 18 b 0.622(2) 0.813(4) 0.9923(9) 1. 0 1.1(5) 

#End of data_82030-ICSD


