data_72416-ICSD
#?2014 by Fachinformationszentrum Karlsruhe, and the U.S. Secretary of 
#Commerce on behalf of the United States.  All rights reserved.
_database_code_ICSD                72416
_audit_creation_date               1994/01/19
_audit_update_record               2007/08/01
_chemical_name_systematic          'Dialuminium Beryllate'
_chemical_formula_structural       'Al2 (Be O4)'
_chemical_formula_sum              'Al2 Be1 O4'
_chemical_name_mineral             Chrysoberyl
_publ_section_title
;
Atomic thermal parameters and thermodynamic functions for chrysoberyl 
(Be Al2 O4) from vibrational spectra and transfer of empirical force 
fields
;
loop_
_citation_id
_citation_journal_abbrev
_citation_year
_citation_journal_volume
_citation_page_first
_citation_page_last
_citation_journal_id_ASTM
primary 'Acta Crystallographica, Section B: Structural Science'
 1993 49 216 222 ASBSDK
2 'Golden Book of Phase Transitions, Wroclaw' 2002 1 1 123 GBOPT5
3 'Powder Diffraction' 2002 17 135 138 PODIE2
_publ_author_name
;
Pilati, T.;Demartin, F.;Cariati, F.;Bruni, S.;Gramaccioli, C.M.
;
_cell_length_a                     9.4019(9)
_cell_length_b                     5.4746(3)
_cell_length_c                     4.4259(2)
_cell_angle_alpha                  90.
_cell_angle_beta                   90.
_cell_angle_gamma                  90.
_cell_volume                       227.81
_cell_formula_units_Z              4
_symmetry_space_group_name_H-M     'P n m a'
_symmetry_Int_Tables_number        62
_refine_ls_R_factor_all            .011
loop_
_symmetry_equiv_pos_site_id
_symmetry_equiv_pos_as_xyz
  1	'x+.5, y, -z+.5'
  2	'x, -y+.5, z'
  3	'-x+.5, y+.5, z+.5'
  4	'-x, -y, -z'
  5	'-x+.5, -y, z+.5'
  6	'-x, y+.5, -z'
  7	'x+.5, -y+.5, -z+.5'
  8	'x, y, z'
loop_
_atom_type_symbol
_atom_type_oxidation_number
Al3+	3
Be2+	2
O2-	-2
loop_
_atom_site_label
_atom_site_type_symbol
_atom_site_symmetry_multiplicity
_atom_site_Wyckoff_symbol
_atom_site_fract_x
_atom_site_fract_y
_atom_site_fract_z
_atom_site_occupancy
_atom_site_attached_hydrogens
Al1 Al3+ 4 a 0 0 0 1. 0 
Al2 Al3+ 4 c 0.27283(2) 0.25 0.99494(5) 1. 0 
Be1 Be2+ 4 c 0.0928(1) 0.25 0.4339(2) 1. 0 
O1 O2- 4 c 0.09034(5) 0.25 0.7877(1) 1. 0 
O2 O2- 4 c 0.43300(4) 0.25 0.2414(1) 1. 0 
O3 O2- 8 d 0.16329(3) 0.01543(6) 0.25688(8) 1. 0 

loop_
_atom_site_aniso_label
_atom_site_aniso_type_symbol
_atom_site_aniso_U_11
_atom_site_aniso_U_22
_atom_site_aniso_U_33
_atom_site_aniso_U_12
_atom_site_aniso_U_13
_atom_site_aniso_U_23
Al1 Al3+ 0.00360(5) 0.00292(6) 0.00328(5) -.00040(5) 0.00010(6) -.00016(6)
Al2 Al3+ 0.00302(5) 0.00364(6) 0.00336(6) 0 -.00006(6) 0
Be1 Be2+ 0.0058(2) 0.0052(2) 0.0042(2) 0 0.0002(2) 0
O1 O2- 0.0037(1) 0.0037(1) 0.0028(1) 0 0.0002(1) 0
O2 O2- 0.0033(1) 0.0040(1) 0.0037(1) 0 -.0006(1) 0
O3 O2- 0.00390(8) 0.00379(9) 0.00368(8) 0.00036(8) -.00034(9) 0.0003(1)
#End of data_72416-ICSD


