data_183502-ICSD
#?2014 by Fachinformationszentrum Karlsruhe, and the U.S. Secretary of 
#Commerce on behalf of the United States.  All rights reserved.
_database_code_ICSD                183502
_audit_creation_date               2012/08/01
_chemical_name_systematic          'Mercury Dialuminium Tetraselenide'
_chemical_formula_structural       'Hg Al2 Se4'
_chemical_formula_sum              'Al2 Hg1 Se4'
_publ_section_title
;
Electronic and optical properties of defect chalcopyrite Hg Al2 Se4
;
loop_
_citation_id
_citation_journal_abbrev
_citation_year
_citation_journal_volume
_citation_page_first
_citation_page_last
_citation_journal_id_ASTM
primary 'Journal of Physics and Chemistry of Solids' 2011 72 1414 1418 JPCSAW
_publ_author_name                  'Singh, P.;Verma, U.P.;Jensen, P.'
_cell_length_a                     5.687
_cell_length_b                     5.687
_cell_length_c                     10.691
_cell_angle_alpha                  90.
_cell_angle_beta                   90.
_cell_angle_gamma                  90.
_cell_volume                       345.77
_cell_formula_units_Z              2
_symmetry_space_group_name_H-M     'I -4'
_symmetry_Int_Tables_number        82
loop_
_symmetry_equiv_pos_site_id
_symmetry_equiv_pos_as_xyz
  1	'-y, x, -z'
  2	'y, -x, -z'
  3	'-x, -y, z'
  4	'x, y, z'
  5	'-y+.5, x+.5, -z+.5'
  6	'y+.5, -x+.5, -z+.5'
  7	'-x+.5, -y+.5, z+.5'
  8	'x+.5, y+.5, z+.5'
loop_
_atom_type_symbol
_atom_type_oxidation_number
Al3+	3
Hg2+	2
Se2-	-2
loop_
_atom_site_label
_atom_site_type_symbol
_atom_site_symmetry_multiplicity
_atom_site_Wyckoff_symbol
_atom_site_fract_x
_atom_site_fract_y
_atom_site_fract_z
_atom_site_occupancy
_atom_site_attached_hydrogens
Hg1 Hg2+ 2 a 0 0 0 1. 0 
Al1 Al3+ 2 b 0 0 0.5 1. 0 
Al2 Al3+ 2 c 0 0.5 0.250 1. 0 
Se1 Se2- 8 g 0.276 0.263 0.139 1. 0 

#End of data_183502-ICSD


