data_63664-ICSD
#?2014 by Fachinformationszentrum Karlsruhe, and the U.S. Secretary of 
#Commerce on behalf of the United States.  All rights reserved.
_database_code_ICSD                63664
_audit_creation_date               1988/12/19
_audit_update_record               2007/04/01
_chemical_name_systematic
;
Aluminium Phosphate(V) - Calcined At 873k
;
_chemical_formula_structural       'Al (P O4)'
_chemical_formula_sum              'Al1 O4 P1'
_publ_section_title
;
Rietveld profile analysis of calcined Al P O4-11 using pulsed neutron 
powder diffraction
;
loop_
_citation_id
_citation_journal_abbrev
_citation_year
_citation_journal_volume
_citation_page_first
_citation_page_last
_citation_journal_id_ASTM
primary 'Acta Crystallographica, Section B: Structural Science'
 1988 44 367 373 ASBSDK
_publ_author_name
;
Richardson, J.W.jr.;Pluth, J.J.;Smith, J.V.
;
_cell_length_a                     18.4821(10)
_cell_length_b                     13.5336(7)
_cell_length_c                     8.3703(4)
_cell_angle_alpha                  90.
_cell_angle_beta                   90.
_cell_angle_gamma                  90.
_cell_volume                       2093.66
_cell_formula_units_Z              20
_symmetry_space_group_name_H-M     'I m a 2'
_symmetry_Int_Tables_number        46
_refine_ls_R_factor_all            .058
loop_
_symmetry_equiv_pos_site_id
_symmetry_equiv_pos_as_xyz
  1	'x+.5, -y, z'
  2	'-x+.5, y, z'
  3	'-x, -y, z'
  4	'x, y, z'
  5	'x, -y+.5, z+.5'
  6	'-x, y+.5, z+.5'
  7	'-x+.5, -y+.5, z+.5'
  8	'x+.5, y+.5, z+.5'
loop_
_atom_type_symbol
_atom_type_oxidation_number
Al3+	3
O2-	-2
P5+	5
loop_
_atom_site_label
_atom_site_type_symbol
_atom_site_symmetry_multiplicity
_atom_site_Wyckoff_symbol
_atom_site_fract_x
_atom_site_fract_y
_atom_site_fract_z
_atom_site_occupancy
_atom_site_attached_hydrogens
_atom_site_U_iso_or_equiv
P1 P5+ 8 c 0.025(1) 0.143(2) 0.182(6) 1. 0 0.035(9) 
Al1 Al3+ 8 c 0.035(2) 0.134(2) -.199(8) 1. 0 0.035(9) 
P2 P5+ 8 c 0.104(2) 0.953(2) -.306(5) 1. 0 0.045(9) 
Al2 Al3+ 8 c 0.102(3) 0.949(4) 0.317(6) 1. 0 0.045(9) 
P3 P5+ 4 b 0.25 0.857(2) 0.185(5) 1. 0 0.024(11) 
Al3 Al3+ 4 b 0.25 0.850(4) -.185(6) 1. 0 0.024(11) 
O1 O2- 8 c 0.039(1) 0.143(3) 0 1. 0 0.154(19) 
O2 O2- 8 c 0.105(1) 0.945(1) 0.517(5) 1. 0 0.077(9) 
O3 O2- 4 b 0.25 0.860(3) 0.024(9) 1. 0 0.123(32) 
O4 O2- 8 c 0.068(1) 0.242(2) 0.243(5) 1. 0 0.064(32) 
O5 O2- 8 c 0.088(2) 0.068(1) 0.252(6) 1. 0 0.068(8) 
O6 O2- 8 c 0.091(2) 0.057(1) -.257(5) 1. 0 0.068(8) 
O7 O2- 8 c 0.955(3) 0.118(3) 0.232(9) 1. 0 0.108(14) 
O8 O2- 8 c 0.954(3) 0.125(3) -.264(9) 1. 0 0.108(14) 
O9 O2- 8 c 0.179(2) 0.913(3) 0.232(6) 1. 0 0.111(11) 
O10 O2- 8 c 0.177(2) 0.909(3) -.263(7) 1. 0 0.111(11) 
O11 O2- 4 b 0.25 0.762(3) 0.234(8) 1. 0 0.089(23) 

#End of data_63664-ICSD


