data_37021-ICSD
#?2014 by Fachinformationszentrum Karlsruhe, and the U.S. Secretary of 
#Commerce on behalf of the United States.  All rights reserved.
_database_code_ICSD                37021
_audit_creation_date               1983/12/31
_chemical_name_systematic          'Sodium Phosphate Hemihydrate'
_chemical_formula_structural       'Na3 P O4 (H2 O).5'
_chemical_formula_sum              'H1 Na3 O4.5 P1'
_publ_section_title
;
Crystal Structure of Na3 P O4 (H2 O).5
;
loop_
_citation_id
_citation_journal_abbrev
_citation_year
_citation_journal_volume
_citation_page_first
_citation_page_last
_citation_journal_id_ASTM
primary 'Journal of Solid State Chemistry' 1983 46 193 196 JSSCBI
_publ_author_name                  'Averbuch-Pouchot, M.T.;Durif, A.'
_cell_length_a                     9.631(3)
_cell_length_b                     5.416(2)
_cell_length_c                     16.938(8)
_cell_angle_alpha                  90.
_cell_angle_beta                   102.60(5)
_cell_angle_gamma                  90.
_cell_volume                       862.23
_cell_formula_units_Z              8
_symmetry_space_group_name_H-M     'C 1 2/c 1'
_symmetry_Int_Tables_number        15
_refine_ls_R_factor_all            .027
loop_
_symmetry_equiv_pos_site_id
_symmetry_equiv_pos_as_xyz
  1	'x, -y, z+.5'
  2	'-x, -y, -z'
  3	'-x, y, -z+.5'
  4	'x, y, z'
  5	'x+.5, -y+.5, z+.5'
  6	'-x+.5, -y+.5, -z'
  7	'-x+.5, y+.5, -z+.5'
  8	'x+.5, y+.5, z'
loop_
_atom_type_symbol
_atom_type_oxidation_number
H1+	1
Na1+	1
O2-	-2
P5+	5
loop_
_atom_site_label
_atom_site_type_symbol
_atom_site_symmetry_multiplicity
_atom_site_Wyckoff_symbol
_atom_site_fract_x
_atom_site_fract_y
_atom_site_fract_z
_atom_site_occupancy
_atom_site_attached_hydrogens
_atom_site_B_iso_or_equiv
P1 P5+ 8 f 0.15691(4) 0.38662(7) 0.11307(2) 1. 0 0 
Na1 Na1+ 8 f 0.18100(8) 0.5305(1) 0.95193(4) 1. 0 0 
Na2 Na1+ 8 f 0.00084(9) 0.0973(2) 0.59730(5) 1. 0 0 
Na3 Na1+ 8 f 0.64975(7) 0.1680(1) 0.78490(4) 1. 0 0 
O1 O2- 4 e 0 0.9551(3) 0.25 1. 0 0 
O2 O2- 8 f 0.1013(1) 0.2354(2) 0.03580(7) 1. 0 0 
O3 O2- 8 f 0.0324(1) 0.5265(2) 0.64902(7) 1. 0 0 
O4 O2- 8 f 0.7564(1) 0.2800(2) 0.67431(7) 1. 0 0 
O5 O2- 8 f 0.7412(1) 0.1124(2) 0.09349(7) 1. 0 0 
H1 H1+ 8 f 0.429(3) 0.357(6) 0.229(2) 1. 0 3.1 

#End of data_37021-ICSD


