data_605734-ICSD
#?2014 by Fachinformationszentrum Karlsruhe, and the U.S. Secretary of 
#Commerce on behalf of the United States.  All rights reserved.
_database_code_ICSD                605734
_audit_creation_date               2013/02/01
_audit_update_record               2014/02/01
_chemical_name_systematic          'Silver Zinc Tin Sulfide (2/1/1/4)'
_chemical_formula_structural       'Ag2 Zn Sn S4'
_chemical_formula_sum              'Ag2 S4 Sn1 Zn1'
_chemical_name_mineral             Pirquitasite
_publ_section_title
;
La pirquitasite, Ag2 Zn Sn S4, un nouveau membre de groupe de la 
stannite
;
loop_
_citation_id
_citation_journal_abbrev
_citation_year
_citation_journal_volume
_citation_page_first
_citation_page_last
_citation_journal_id_ASTM
primary 'Bulletin de Mineralogie (101,1978-)' 1982 105 229 235 BULMD9
_publ_author_name                  'Johan, Z.;Picot, P.'
_cell_length_a                     5.786(4)
_cell_length_b                     5.786(4)
_cell_length_c                     10.829(6)
_cell_angle_alpha                  90.0
_cell_angle_beta                   90.0
_cell_angle_gamma                  90.0
_cell_volume                       362.53
_cell_formula_units_Z              2
_symmetry_space_group_name_H-M     'I -4 2 m'
_symmetry_Int_Tables_number        121
loop_
_symmetry_equiv_pos_site_id
_symmetry_equiv_pos_as_xyz
  1	'-y, -x, z'
  2	'y, x, z'
  3	'y, -x, -z'
  4	'-y, x, -z'
  5	'x, -y, -z'
  6	'-x, y, -z'
  7	'-x, -y, z'
  8	'x, y, z'
  9	'-y+.5, -x+.5, z+.5'
 10	'y+.5, x+.5, z+.5'
 11	'y+.5, -x+.5, -z+.5'
 12	'-y+.5, x+.5, -z+.5'
 13	'x+.5, -y+.5, -z+.5'
 14	'-x+.5, y+.5, -z+.5'
 15	'-x+.5, -y+.5, z+.5'
 16	'x+.5, y+.5, z+.5'
loop_
_atom_type_symbol
_atom_type_oxidation_number
Ag1+	1
S2-	-2
Sn4+	4
Zn2+	2
loop_
_atom_site_label
_atom_site_type_symbol
_atom_site_symmetry_multiplicity
_atom_site_Wyckoff_symbol
_atom_site_fract_x
_atom_site_fract_y
_atom_site_fract_z
_atom_site_occupancy
_atom_site_attached_hydrogens
Zn1 Zn2+ 2 a 0 0 0 1. 0 
Sn1 Sn4+ 2 b 0.5 0.5 0 1. 0 
Ag1 Ag1+ 4 d 0 0.5 0.25 1. 0 
S1 S2- 8 i 0.756 0.756 0.870 1. 0 

#End of data_605734-ICSD


