data_28307-ICSD
#?2014 by Fachinformationszentrum Karlsruhe, and the U.S. Secretary of 
#Commerce on behalf of the United States.  All rights reserved.
_database_code_ICSD                28307
_audit_creation_date               1985/03/08
_audit_update_record               2012/08/01
_chemical_name_systematic          'Dilithium Beryllium Silicate'
_chemical_formula_structural       'Li2 Be (Si O4)'
_chemical_formula_sum              'Be1 Li2 O4 Si1'
_chemical_name_mineral             Liberite
_publ_section_title                'The crystal structure of liberite'
loop_
_citation_id
_citation_journal_abbrev
_citation_year
_citation_journal_volume
_citation_page_first
_citation_page_last
_citation_journal_id_ASTM
primary 'Kexue Tongbao (= Bulletin der Wissenschaften)' 1966 17 425 428 KETOD8
2 'Acta Geologica Sinica' 1966 46 76 86 AGSINZ
_publ_author_name                  'Chang, H.-C.'
_cell_length_a                     4.68(2)
_cell_length_b                     4.95(3)
_cell_length_c                     6.13(2)
_cell_angle_alpha                  90.
_cell_angle_beta                   90.33(8)
_cell_angle_gamma                  90.
_cell_volume                       142.01
_cell_formula_units_Z              2
_symmetry_space_group_name_H-M     'P 1 n 1'
_symmetry_Int_Tables_number        7
_refine_ls_R_factor_all            .08
loop_
_symmetry_equiv_pos_site_id
_symmetry_equiv_pos_as_xyz
  1	'x+.5, -y, z+.5'
  2	'x, y, z'
loop_
_atom_type_symbol
_atom_type_oxidation_number
Be2+	2
Li1+	1
O2-	-2
Si4+	4
loop_
_atom_site_label
_atom_site_type_symbol
_atom_site_symmetry_multiplicity
_atom_site_Wyckoff_symbol
_atom_site_fract_x
_atom_site_fract_y
_atom_site_fract_z
_atom_site_occupancy
_atom_site_attached_hydrogens
Li1 Li1+ 2 a 0 0.162 0.56 1. 0 
Li2 Li1+ 2 a 0.5 0.325 0.735 1. 0 
Be1 Be2+ 2 a 0.52 0.33 0.245 1. 0 
Si1 Si4+ 2 a 0 0.17 0 1. 0 
O1 O2- 2 a 0.355 0.16 0.05 1. 0 
O2 O2- 2 a 0.42 0.15 0.455 1. 0 
O3 O2- 2 a 0.42 0.65 0.265 1. 0 
O4 O2- 2 a 0.845 0.345 0.205 1. 0 

#End of data_28307-ICSD


