data_51212-ICSD
#?2014 by Fachinformationszentrum Karlsruhe, and the U.S. Secretary of 
#Commerce on behalf of the United States.  All rights reserved.
_database_code_ICSD                51212
_audit_creation_date               2002/04/01
_chemical_name_systematic
;
Tribarium Dilithium Dichloride Tetrakis(oxomolybdenum) 
Hexakis(phosphate(V))
;
_chemical_formula_structural       'Ba3 Li2 Cl2 (Mo O)4 (P O4)6'
_chemical_formula_sum              'Ba3 Cl2 Li2 Mo4 O28 P6'
_publ_section_title
;
A molybdenyl chloromonophosphate with an intersecting tunnel 
structure: Ba3 Li2 Cl2 (Mo O)4 (P O4)6
;
loop_
_citation_id
_citation_journal_abbrev
_citation_year
_citation_journal_volume
_citation_page_first
_citation_page_last
_citation_journal_id_ASTM
primary 'Journal of Solid State Chemistry' 1998 141 587 593 JSSCBI
_publ_author_name
;
Borel, M.M.;Leclaire, A.;Chardon, J.;Provost, J.;Raveau, B.
;
_cell_length_a                     9.1768(4)
_cell_length_b                     15.660(1)
_cell_length_c                     18.1170(20)
_cell_angle_alpha                  90.
_cell_angle_beta                   90.
_cell_angle_gamma                  90.
_cell_volume                       2603.57
_cell_formula_units_Z              4
_symmetry_space_group_name_H-M     'P 21 21 21'
_symmetry_Int_Tables_number        19
_refine_ls_R_factor_all            .034
loop_
_symmetry_equiv_pos_site_id
_symmetry_equiv_pos_as_xyz
  1	'-x, y+.5, -z+.5'
  2	'x+.5, -y+.5, -z'
  3	'-x+.5, -y, z+.5'
  4	'x, y, z'
loop_
_atom_type_symbol
_atom_type_oxidation_number
Ba2+	2
Cl1-	-1
Li1+	1
Mo5+	5
O2-	-2
P5+	5
loop_
_atom_site_label
_atom_site_type_symbol
_atom_site_symmetry_multiplicity
_atom_site_Wyckoff_symbol
_atom_site_fract_x
_atom_site_fract_y
_atom_site_fract_z
_atom_site_occupancy
_atom_site_attached_hydrogens
_atom_site_U_iso_or_equiv
Mo1 Mo5+ 4 a 0.2168(2) 0.2060(1) 0.5016(1) 1. 0 0 
Mo2 Mo5+ 4 a 0.2143(2) 0.30688(9) 0.2484(1) 1. 0 0 
Mo3 Mo5+ 4 a 0.2144(2) 0.28010(9) 0.7486(1) 1. 0 0 
Mo4 Mo5+ 4 a 0.2144(2) 0.2058(1) 0.0014(1) 1. 0 0 
Ba1 Ba2+ 4 a 0.5057(2) 0.44828(9) 0.83150(7) 1. 0 0 
Ba2 Ba2+ 4 a 0.4390(1) 0.01065(8) 0.40756(7) 1. 0 0 
Ba3 Ba2+ 4 a 0.4239(2) 0.4674(1) 0.56691(8) 1. 0 0 
Cl1 Cl1- 4 a 0.1616(6) 0.0065(4) 0.3124(3) 1. 0 0.020(1) 
Cl2 Cl1- 4 a 0.1654(6) 0.5042(4) 0.4645(3) 1. 0 0.026(1) 
Li1 Li1+ 4 a 0.143(4) 0.050(2) 0.718(2) 1. 0 0.012(7) 
Li2 Li1+ 4 a 0.079(6) 0.410(3) 0.866(3) 1. 0 0.06(2) 
P1 P5+ 4 a 0.4645(5) 0.2409(3) 0.6259(3) 1. 0 0.006(1) 
P2 P5+ 4 a 0.4614(5) 0.2465(3) 0.3744(3) 1. 0 0.006(1) 
P3 P5+ 4 a 0.4671(5) 0.2709(3) 0.1251(3) 1. 0 0.003(1) 
P4 P5+ 4 a 0.4696(6) 0.2253(4) 0.8766(3) 1. 0 0.006(1) 
P5 P5+ 4 a 0.1788(5) 0.4912(3) 0.7315(3) 1. 0 0.007(1) 
P6 P5+ 4 a 0.3122(5) 0.0051(3) 0.0567(3) 1. 0 0.007(1) 
O1 O2- 4 a 0.239(1) 0.3122(9) 0.5061(9) 1. 0 0.017(4) 
O2 O2- 4 a 0.374(1) 0.1828(9) 0.5769(8) 1. 0 0.010(3) 
O3 O2- 4 a 0.063(2) 0.1976(8) 0.4204(7) 1. 0 0.010(3) 
O4 O2- 4 a 0.375(1) 0.1825(9) 0.4218(8) 1. 0 0.013(3) 
O5 O2- 4 a 0.057(2) 0.1948(8) 0.5771(7) 1. 0 0.010(3) 
O6 O2- 4 a 0.201(1) 0.0700(8) 0.5010(8) 1. 0 0.009(3) 
O7 O2- 4 a 0.198(2) 0.1997(9) 0.2332(8) 1. 0 0.016(3) 
O8 O2- 4 a 0.382(1) 0.3275(8) 0.1778(8) 1. 0 0.008(3) 
O9 O2- 4 a 0.360(2) 0.3036(9) 0.3312(9) 1. 0 0.013(3) 
O10 O2- 4 a 0.074(1) 0.3370(7) 0.1630(7) 1. 0 0.005(2) 
O11 O2- 4 a 0.051(1) 0.3162(8) 0.3214(7) 1. 0 0.008(3) 
O12 O2- 4 a 0.218(1) 0.4389(7) 0.2623(7) 1. 0 0.006(2) 
O13 O2- 4 a 0.195(1) 0.1748(7) 0.7399(7) 1. 0 0.006(3) 
O14 O2- 4 a 0.381(1) 0.2806(8) 0.8223(7) 1. 0 0.007(3) 
O15 O2- 4 a 0.363(2) 0.3036(9) 0.6683(8) 1. 0 0.012(3) 
O16 O2- 4 a 0.069(2) 0.2919(8) 0.8337(7) 1. 0 0.008(3) 
O17 O2- 4 a 0.055(1) 0.3110(8) 0.6766(7) 1. 0 0.006(3) 
O18 O2- 4 a 0.232(1) 0.4080(8) 0.7731(7) 1. 0 0.008(3) 
O19 O2- 4 a 0.198(2) 0.310(1) -.0200(8) 1. 0 0.016(3) 
O20 O2- 4 a 0.055(2) 0.2049(8) 0.0795(7) 1. 0 0.008(3) 
O21 O2- 4 a 0.368(1) 0.2131(8) 0.0783(7) 1. 0 0.006(3) 
O22 O2- 4 a 0.059(1) 0.1697(8) -.0763(7) 1. 0 0.007(3) 
O23 O2- 4 a 0.372(1) 0.1726(9) -.0731(8) 1. 0 0.009(3) 
O24 O2- 4 a 0.208(1) 0.0733(9) 0.0242(7) 1. 0 0.011(3) 
O25 O2- 4 a 0.202(1) 0.4788(8) 0.6492(7) 1. 0 0.013(3) 
O26 O2- 4 a 0.021(1) 0.5045(8) 0.7477(8) 1. 0 0.015(3) 
O27 O2- 4 a 0.471(1) 0.0349(8) 0.0576(7) 1. 0 0.009(3) 
O28 O2- 4 a 0.256(1) -.0200(8) 0.1334(7) 1. 0 0.016(3) 

loop_
_atom_site_aniso_label
_atom_site_aniso_type_symbol
_atom_site_aniso_U_11
_atom_site_aniso_U_22
_atom_site_aniso_U_33
_atom_site_aniso_U_12
_atom_site_aniso_U_13
_atom_site_aniso_U_23
Mo1 Mo5+ 0.0046(8) 0.0040(9) 0.006(1) 0.0004(8) -.0013(8) 0.0018(7)
Mo2 Mo5+ 0.0053(7) 0.0045(6) 0.0038(7) 0.0000(7) -.0004(9) 0.0016(8)
Mo3 Mo5+ 0.0044(7) 0.0056(6) 0.0026(7) -.0001(7) -.0005(8) -.0011(9)
Mo4 Mo5+ 0.0047(8) 0.0057(9) 0.004(1) -.0006(8) -.0004(8) 0.0019(7)
Ba1 Ba2+ 0.0129(5) 0.02102 0.0134(5) -.0040(6) -.0009(5) -.0007(6)
Ba2 Ba2+ 0.0130(6) 0.0113(6) 0.0130(6) 0.0016(5) 0.0047(5) 0.0013(5)
Ba3 Ba2+ 0.0141(7) 0.065(1) 0.0172(7) 0.0115(8) 0.0045(6) 0.0137(8)
#End of data_51212-ICSD


