data_87080-ICSD
#?2014 by Fachinformationszentrum Karlsruhe, and the U.S. Secretary of 
#Commerce on behalf of the United States.  All rights reserved.
_database_code_ICSD                87080
_audit_creation_date               2000/07/15
_chemical_name_systematic          'Barium Didysprosium Zinc Oxide'
_chemical_formula_structural       'Ba Dy2 Zn O5'
_chemical_formula_sum              'Ba1 Dy2 O5 Zn1'
_publ_section_title
;
Crystallographic studies of Ba R2 Zn O5 (R = La, Nd, Dy, Ho, Er and 
Y)
;
loop_
_citation_id
_citation_journal_abbrev
_citation_year
_citation_journal_volume
_citation_journal_issue
_citation_page_first
_citation_page_last
_citation_journal_id_ASTM
primary 'Powder Diffraction' 1998 13 3 144 151 PODIE2
_publ_author_name                  'Wong-Ng, W.;Toby, B.;Greenwood, W.'
_cell_length_a                     7.0944(1)
_cell_length_b                     12.3885(2)
_cell_length_c                     5.7314(1)
_cell_angle_alpha                  90.
_cell_angle_beta                   90.
_cell_angle_gamma                  90.
_cell_volume                       503.73
_cell_formula_units_Z              4
_symmetry_space_group_name_H-M     'P b n m'
_symmetry_Int_Tables_number        62
_refine_ls_R_factor_all            .044
loop_
_symmetry_equiv_pos_site_id
_symmetry_equiv_pos_as_xyz
  1	'-x+.5, y+.5, z'
  2	'x, y, -z+.5'
  3	'x+.5, -y+.5, z+.5'
  4	'-x, -y, -z'
  5	'x+.5, -y+.5, -z'
  6	'-x, -y, z+.5'
  7	'-x+.5, y+.5, -z+.5'
  8	'x, y, z'
loop_
_atom_type_symbol
_atom_type_oxidation_number
Ba2+	2
Dy3+	3
O2-	-2
Zn2+	2
loop_
_atom_site_label
_atom_site_type_symbol
_atom_site_symmetry_multiplicity
_atom_site_Wyckoff_symbol
_atom_site_fract_x
_atom_site_fract_y
_atom_site_fract_z
_atom_site_occupancy
_atom_site_attached_hydrogens
_atom_site_U_iso_or_equiv
Ba1 Ba2+ 4 c 0.9252(10) 0.9007(5) 0.25 1. 0 0.020(2) 
Dy1 Dy3+ 4 c 0.1210(4) 0.2927(2) 0.25 1. 0 0.0170(6) 
Dy2 Dy3+ 4 c 0.3984(3) 0.0744(2) 0.25 1. 0 0.0157(5) 
Zn1 Zn2+ 4 c 0.6894(9) 0.6492(6) 0.25 1. 0 0.0179(13) 
O1 O2- 8 d 0.1678(6) 0.4343(5) -.0008(8) 1. 0 0.0189(10) 
O2 O2- 8 d 0.3586(8) 0.2249(4) 0.5058(10) 1. 0 0.0218(12) 
O3 O2- 4 c 0.0762(11) 0.0999(6) 0.25 1. 0 0.026(2) 

#End of data_87080-ICSD


