data_94063-ICSD
#?2014 by Fachinformationszentrum Karlsruhe, and the U.S. Secretary of 
#Commerce on behalf of the United States.  All rights reserved.
_database_code_ICSD                94063
_audit_creation_date               2003/04/01
_chemical_name_systematic          'Dicalcium Beryllium Disilicate'
_chemical_formula_structural       'Ca2 Be (Si2 O7)'
_chemical_formula_sum              'Be1 Ca2 O7 Si2'
_chemical_name_mineral             Gugiaite
_publ_section_title
;
The crystal structure of natural gugiaite, Ca2 Be Si2 O7
;
loop_
_citation_id
_citation_journal_abbrev
_citation_year
_citation_journal_volume
_citation_journal_issue
_citation_page_first
_citation_page_last
_citation_journal_id_ASTM
primary 'Neues Jahrbuch fuer Mineralogie. Monatshefte (Band=Jahr) (1950-)'
 2001 2001 4 186 192 NJMMAW
_publ_author_name
;
Yang, Z.;Fleck, M.;Pertlik, F.;Tillmanns, E.;Tao, K.
;
_cell_length_a                     7.4330(10)
_cell_length_b                     7.4330(10)
_cell_length_c                     4.9970(10)
_cell_angle_alpha                  90
_cell_angle_beta                   90
_cell_angle_gamma                  90
_cell_volume                       276.08
_cell_formula_units_Z              2
_symmetry_space_group_name_H-M     'P -4 21 m'
_symmetry_Int_Tables_number        113
_refine_ls_R_factor_all            .0274
loop_
_symmetry_equiv_pos_site_id
_symmetry_equiv_pos_as_xyz
  1	'-y+.5, -x+.5, z'
  2	'y, -x, -z'
  3	'y+.5, x+.5, z'
  4	'-y, x, -z'
  5	'x+.5, -y+.5, -z'
  6	'-x, -y, z'
  7	'-x+.5, y+.5, -z'
  8	'x, y, z'
loop_
_atom_type_symbol
_atom_type_oxidation_number
Be2+	2
Ca2+	2
O2-	-2
Si4+	4
loop_
_atom_site_label
_atom_site_type_symbol
_atom_site_symmetry_multiplicity
_atom_site_Wyckoff_symbol
_atom_site_fract_x
_atom_site_fract_y
_atom_site_fract_z
_atom_site_occupancy
_atom_site_attached_hydrogens
_atom_site_U_iso_or_equiv
Ca1 Ca2+ 4 e 0.16376(7) 0.66376(7) 0.48894(16) 1. 0 0.0177(3) 
Be1 Be2+ 2 a 0 0 0 1. 0 0.0038(11) 
Si1 Si4+ 4 e 0.35325(10) 0.85325(10) -0.0396(2) 1. 0 0.0138(11) 
O1 O2- 2 c 0.5 0 0.8359(9) 1. 0 0.0172(9) 
O2 O2- 4 e 0.3594(3) 0.8594(3) 0.2786(6) 1. 0 0.0162(6) 
O3 O2- 8 f 0.3332(3) 0.4144(3) 0.1816(4) 1. 0 0.0174(5) 

loop_
_atom_site_aniso_label
_atom_site_aniso_type_symbol
_atom_site_aniso_U_11
_atom_site_aniso_U_22
_atom_site_aniso_U_33
_atom_site_aniso_U_12
_atom_site_aniso_U_13
_atom_site_aniso_U_23
Ca1 Ca2+ 0.0186(4) 0.0186(4) 0.0161(5) -0.0039(3) -0.0007(2) -0.0007(2)
Be1 Be2+ 0.0047(14) 0.0047(14) 0.0020(3) 0. 0. 0.
Si1 Si4+ 0.0134(4) 0.0134(4) 0.0145(6) -0.0004(4) -0.0003(3) -0.0003(3)
O1 O2- 0.0172(13) 0.0172(13) 0.0170(2) -0.0018(15) 0. 0.
O2 O2- 0.0164(9) 0.0164(9) 0.0158(13) -0.0006(11) -0.0001(8) -0.0001(8)
O3 O2- 0.0135(10) 0.0222(12) 0.0164(10) -0.0026(9) -0.0004(8) 0.0026(8)
#End of data_94063-ICSD


