data_414155-ICSD
#?2014 by Fachinformationszentrum Karlsruhe, and the U.S. Secretary of 
#Commerce on behalf of the United States.  All rights reserved.
_database_code_ICSD                414155
_audit_creation_date               2005/10/01
_chemical_name_systematic
;
Cubo-tetrabismuthtetraselenium Tetrakis(tetrachloroaluminate)
;
_chemical_formula_structural       '(Bi4 Se4) (Al Cl4)4'
_chemical_formula_sum              'Al4 Bi4 Cl16 Se4'
_publ_section_title
;
The cube-shaped main group element clusters (Bi4 S4)(4+) and (Bi4 
Se4)(4+) - synthesis from chloroaluminate melts, crystal structures 
and vibrational spectra
;
loop_
_citation_id
_citation_journal_abbrev
_citation_year
_citation_journal_volume
_citation_page_first
_citation_page_last
_citation_journal_id_ASTM
primary 'Zeitschrift fuer Anorganische und Allgemeine Chemie (1950) (DE)'
 2004 630 2512 2519 ZAACAB
_publ_author_name                  'Beck, J.;Schlueter, S.;Zotov, N.'
_cell_length_a                     11.9932(2)
_cell_length_b                     11.9932(2)
_cell_length_c                     11.1864(3)
_cell_angle_alpha                  90.00
_cell_angle_beta                   90.00
_cell_angle_gamma                  90.00
_cell_volume                       1609.02
_cell_formula_units_Z              2
_symmetry_space_group_name_H-M     'I -4'
_symmetry_Int_Tables_number        82
_refine_ls_R_factor_all            .0389
loop_
_symmetry_equiv_pos_site_id
_symmetry_equiv_pos_as_xyz
  1	'-y, x, -z'
  2	'y, -x, -z'
  3	'-x, -y, z'
  4	'x, y, z'
  5	'-y+.5, x+.5, -z+.5'
  6	'y+.5, -x+.5, -z+.5'
  7	'-x+.5, -y+.5, z+.5'
  8	'x+.5, y+.5, z+.5'
loop_
_atom_type_symbol
_atom_type_oxidation_number
Al3+	3
Bi3+	3
Cl1-	-1
Se2-	-2
loop_
_atom_site_label
_atom_site_type_symbol
_atom_site_symmetry_multiplicity
_atom_site_Wyckoff_symbol
_atom_site_fract_x
_atom_site_fract_y
_atom_site_fract_z
_atom_site_occupancy
_atom_site_attached_hydrogens
_atom_site_U_iso_or_equiv
Bi1 Bi3+ 8 g 0.44012(3) 0.84294(3) 0.62916(3) 1 0 0.03210(15) 
Se1 Se2- 8 g 0.64732(7) 0.94453(8) 0.61891(8) 1 0 0.0311(2) 
Cl1 Cl1- 8 g 0.8621(2) 0.5500(3) 0.6384(2) 1 0 0.0450(6) 
Cl2 Cl1- 8 g 0.7008(2) 0.6815(2) 0.8656(3) 1 0 0.0489(6) 
Cl3 Cl1- 8 g 0.6083(2) 0.6507(2) 0.5727(3) 1 0 0.0438(6) 
Cl4 Cl1- 8 g 0.6341(3) 0.4157(2) 0.7709(3) 1 0 0.0547(7) 
Al1 Al3+ 8 g 0.6983(3) 0.5711(2) 0.7146(2) 1 0 0.0327(6) 

loop_
_atom_site_aniso_label
_atom_site_aniso_type_symbol
_atom_site_aniso_U_11
_atom_site_aniso_U_22
_atom_site_aniso_U_33
_atom_site_aniso_U_12
_atom_site_aniso_U_13
_atom_site_aniso_U_23
Bi1 Bi3+ 0.0327(2) 0.0322(2) 0.0314(2) -0.00064(13) -0.00068(17) 
-0.00503(16)
Se1 Se2- 0.0285(5) 0.0348(5) 0.0301(4) 0.0016(4) 0.0027(5) -0.0013(5)
Cl1 Cl1- 0.0358(12) 0.0655(18) 0.0336(11) 0.0097(12) 0.0019(12) -0.0026(15)
Cl2 Cl1- 0.0683(17) 0.0398(12) 0.0386(12) 0.0053(11) -0.0027(15) 
-0.0076(13)
Cl3 Cl1- 0.0460(15) 0.0433(14) 0.0420(12) 0.0119(12) -0.0107(12) 
-0.0013(12)
Cl4 Cl1- 0.0624(18) 0.0345(13) 0.0671(18) -0.0057(13) 0.0044(15) 0.0090(14)
Al1 Al3+ 0.0346(15) 0.0301(15) 0.0334(14) 0.0027(12) -0.0006(13) 
-0.0024(12)
#End of data_414155-ICSD


