data_188039-ICSD
#?2014 by Fachinformationszentrum Karlsruhe, and the U.S. Secretary of 
#Commerce on behalf of the United States.  All rights reserved.
_database_code_ICSD                188039
_audit_creation_date               2014/02/01
_chemical_name_systematic          'Dicalcium Borate Chloride'
_chemical_formula_structural       'Ca2 (B O3) Cl'
_chemical_formula_sum              'B1 Ca2 Cl1 O3'
_publ_section_title
;
Design, synthesis and characterization of a novel yellow long-
persistent phosphor: Ca2 B O3 Cl:Eu(2+), Dy(3+)
;
loop_
_citation_id
_citation_journal_abbrev
_citation_year
_citation_journal_volume
_citation_journal_issue
_citation_page_first
_citation_page_last
_citation_journal_id_ASTM
primary
;
Journal of Materials Chemistry C: Materials for Optical and 
Electronic Devices
;
 2013 1 17 3004 3011 JMCCCX
_publ_author_name
;
Zeng Wei;Wang Yuhua;Han Shaochun;Chen Wenbo;Li Gen;Wang Yanzhao;Wen 
Yan
;
_cell_length_a                     3.9581
_cell_length_b                     8.6925
_cell_length_c                     12.4155
_cell_angle_alpha                  90.
_cell_angle_beta                   100.2855
_cell_angle_gamma                  90.
_cell_volume                       420.3
_cell_formula_units_Z              4
_symmetry_space_group_name_H-M     'P 1 21/c 1'
_symmetry_Int_Tables_number        14
_refine_ls_R_factor_all            .0933
loop_
_symmetry_equiv_pos_site_id
_symmetry_equiv_pos_as_xyz
  1	'x, -y+.5, z+.5'
  2	'-x, -y, -z'
  3	'-x, y+.5, -z+.5'
  4	'x, y, z'
loop_
_atom_type_symbol
_atom_type_oxidation_number
B3+	3
Ca2+	2
Cl1-	-1
O2-	-2
loop_
_atom_site_label
_atom_site_type_symbol
_atom_site_symmetry_multiplicity
_atom_site_Wyckoff_symbol
_atom_site_fract_x
_atom_site_fract_y
_atom_site_fract_z
_atom_site_occupancy
_atom_site_attached_hydrogens
_atom_site_U_iso_or_equiv
Ca1 Ca2+ 4 e 0.29548 0.61657 0.36095 1. 0 0.0045 
Ca2 Ca2+ 4 e 0.32924 0.12200 0.38377 1. 0 0.0052 
B1 B3+ 4 e 0.29182 0.36058 0.15478 1. 0 -0.0011 
O1 O2- 4 e 0.48583 0.36066 0.07145 1. 0 0.0195 
O2 O2- 4 e 0.21440 0.22835 0.20567 1. 0 0.0226 
O3 O2- 4 e 0.19688 0.51097 0.18396 1. 0 0.0158 
Cl1 Cl1- 4 e 0.19813 0.87635 0.08826 1. 0 0.0129 

#End of data_188039-ICSD


