data_81129-ICSD
#?2014 by Fachinformationszentrum Karlsruhe, and the U.S. Secretary of 
#Commerce on behalf of the United States.  All rights reserved.
_database_code_ICSD                81129
_audit_creation_date               1997/05/13
_audit_update_record               1999/01/19
_chemical_name_systematic          'Dimagnesium Catena-disilicate'
_chemical_formula_structural       'Mg2 (Si2 O6)'
_chemical_formula_sum              'Mg2 O6 Si2'
_chemical_name_mineral             Enstatite
_publ_section_title
;
High temperature single crystal X-ray diffraction studies of the 
ortho-proto phase transition in enstatite, Mg2 Si2 O6 at 1360 K
;
loop_
_citation_id
_citation_journal_abbrev
_citation_year
_citation_journal_volume
_citation_page_first
_citation_page_last
_citation_journal_id_ASTM
primary 'Physics and Chemistry of Minerals' 1995 22 300 310 PCMIDU
_publ_author_name                  'Yang, H.-X.;Ghose, S.'
_cell_length_a                     18.3410(30)
_cell_length_b                     8.889(1)
_cell_length_c                     5.219(1)
_cell_angle_alpha                  90.
_cell_angle_beta                   90.
_cell_angle_gamma                  90.
_cell_volume                       850.87
_cell_formula_units_Z              8
_symmetry_space_group_name_H-M     'P b c a'
_symmetry_Int_Tables_number        61
_refine_ls_R_factor_all            .034
loop_
_symmetry_equiv_pos_site_id
_symmetry_equiv_pos_as_xyz
  1	'x+.5, y, -z+.5'
  2	'x, -y+.5, z+.5'
  3	'-x+.5, y+.5, z'
  4	'-x, -y, -z'
  5	'-x+.5, -y, z+.5'
  6	'-x, y+.5, -z+.5'
  7	'x+.5, -y+.5, -z'
  8	'x, y, z'
loop_
_atom_type_symbol
_atom_type_oxidation_number
Mg2+	2
O2-	-2
Si4+	4
loop_
_atom_site_label
_atom_site_type_symbol
_atom_site_symmetry_multiplicity
_atom_site_Wyckoff_symbol
_atom_site_fract_x
_atom_site_fract_y
_atom_site_fract_z
_atom_site_occupancy
_atom_site_attached_hydrogens
Mg1 Mg2+ 8 c 0.3754(1) 0.6521(1) 0.8731(2) 1. 0 
Mg2 Mg2+ 8 c 0.3766(1) 0.4872(1) 0.3664(2) 1. 0 
Si1 Si4+ 8 c 0.2719(1) 0.3409(1) 0.0552(1) 1. 0 
Si2 Si4+ 8 c 0.4743(1) 0.3377(1) 0.7936(1) 1. 0 
O1 O2- 8 c 0.1839(1) 0.3395(2) 0.0427(3) 1. 0 
O2 O2- 8 c 0.5629(1) 0.3411(2) 0.7955(3) 1. 0 
O3 O2- 8 c 0.3111(1) 0.5001(2) 0.0527(3) 1. 0 
O4 O2- 8 c 0.4333(1) 0.4838(2) 0.6939(3) 1. 0 
O5 O2- 8 c 0.3028(1) 0.2258(2) 0.8320(3) 1. 0 
O6 O2- 8 c 0.4485(1) 0.1998(2) 0.5956(3) 1. 0 

#End of data_81129-ICSD


