data_404851-ICSD
#?2014 by Fachinformationszentrum Karlsruhe, and the U.S. Secretary of 
#Commerce on behalf of the United States.  All rights reserved.
_database_code_ICSD                404851
_audit_creation_date               1996/10/14
_audit_update_record               2013/08/01
_chemical_name_systematic          'Copper Dimangnesium Bis(vanadate)'
_chemical_formula_structural       'Cu Mg2 (V2 O8)'
_chemical_formula_sum              'Cu1 Mg2 O8 V2'
_publ_section_title
;
Zwei monokline Kupferoxovanadate des Magnesiums mit geordneter 
Metallverteilung: m-Mg2 Cu V2 O8 und Mg Cu2 V2 O8. Ein Beitrag zur 
Dimorphie von Mg2 Cu V2 O8
;
loop_
_citation_id
_citation_journal_abbrev
_citation_year
_citation_journal_volume
_citation_page_first
_citation_page_last
_citation_journal_id_ASTM
primary 'Zeitschrift fuer Naturforschung, B: Chemical Sciences'
 1996 51 817 821 ZNBSEN
_publ_author_name
;
Schrandt, O.;Mueller-Buschbaum, H.K.
;
_cell_length_a                     6.167(3)
_cell_length_b                     8.172(5)
_cell_length_c                     6.400(3)
_cell_angle_alpha                  90.
_cell_angle_beta                   116.22(3)
_cell_angle_gamma                  90.
_cell_volume                       289.35
_cell_formula_units_Z              2
_symmetry_space_group_name_H-M     'P 1 21/a 1'
_symmetry_Int_Tables_number        14
_refine_ls_R_factor_all            .1517
loop_
_symmetry_equiv_pos_site_id
_symmetry_equiv_pos_as_xyz
  1	'x+.5, -y+.5, z'
  2	'-x, -y, -z'
  3	'-x+.5, y+.5, -z'
  4	'x, y, z'
loop_
_atom_type_symbol
_atom_type_oxidation_number
Cu2+	2
Mg2+	2
O2-	-2
V5+	5
loop_
_atom_site_label
_atom_site_type_symbol
_atom_site_symmetry_multiplicity
_atom_site_Wyckoff_symbol
_atom_site_fract_x
_atom_site_fract_y
_atom_site_fract_z
_atom_site_occupancy
_atom_site_attached_hydrogens
Cu1 Cu2+ 2 b 0.5 0 0.5 1. 0 
V1 V5+ 4 e 0.1346(2) 0.87428(14) 0.7426(2) 1. 0 
Mg1 Mg2+ 4 e 0.1184(3) 0.7499(2) 0.2314(3) 1. 0 
O1 O2- 4 e 0.0005(9) 0.2610(5) 0.5090(9) 1. 0 
O2 O2- 4 e 0.2414(8) 0.2695(5) -.0007(8) 1. 0 
O3 O2- 4 e 0.0810(8) 0.0045(6) 0.2537(9) 1. 0 
O4 O2- 4 e 0.1465(8) 0.4952(6) 0.2714(8) 1. 0 

loop_
_atom_site_aniso_label
_atom_site_aniso_type_symbol
_atom_site_aniso_U_11
_atom_site_aniso_U_22
_atom_site_aniso_U_33
_atom_site_aniso_U_12
_atom_site_aniso_U_13
_atom_site_aniso_U_23
Cu1 Cu2+ 0.0110(4) 0.0024(4) 0.0125(5) -.0005(4) 0.0077(4) -.0014(4)
V1 V5+ 0.0068(3) 0.0029(3) 0.0045(3) -.0007(3) 0.0028(3) -.0004(3)
Mg1 Mg2+ 0.0234(8) 0.0185(7) 0.0233(8) -.0007(6) 0.0116(7) -.0006(6)
O1 O2- 0.007(2) 0.0034(14) 0.011(2) -.0004(14) 0.0045(15) 0.0013(15)
O2 O2- 0.007(2) 0.009(2) 0.003(2) 0.0021(14) 0.0025(14) 0.0009(13)
O3 O2- 0.012(2) 0.0062(15) 0.008(2) 0.000(2) 0.0046(15) -.0002(14)
O4 O2- 0.010(2) 0.0037(13) 0.007(2) 0.0003(15) 0.0052(14) -.0002(13)
#End of data_404851-ICSD


