data_161904-ICSD
#?2014 by Fachinformationszentrum Karlsruhe, and the U.S. Secretary of 
#Commerce on behalf of the United States.  All rights reserved.
_database_code_ICSD                161904
_audit_creation_date               2009/02/01
_chemical_name_systematic
;
Potassium Manganese(III) Hydrogentriphosphate(V)
;
_chemical_formula_structural       'K Mn (H P3 O10)'
_chemical_formula_sum              'H1 K1 Mn1 O10 P3'
_publ_section_title
;
Synthesis, structure refinement at 296 K and physico-chemical 
characterizations of K Mn H P3 O10
;
loop_
_citation_id
_citation_journal_abbrev
_citation_year
_citation_journal_volume
_citation_page_first
_citation_page_last
_citation_journal_id_ASTM
primary 'Materials Research Bulletin' 2008 43 3358 3367 MRBUAC
_publ_author_name                  'Mechergui, J.;Belam, W.'
_cell_length_a                     12.104(1)
_cell_length_b                     8.287(1)
_cell_length_c                     9.150(1)
_cell_angle_alpha                  90.
_cell_angle_beta                   110.97(1)
_cell_angle_gamma                  90.
_cell_volume                       857.01
_cell_formula_units_Z              4
_symmetry_space_group_name_H-M     'C 1 2/c 1'
_symmetry_Int_Tables_number        15
_refine_ls_R_factor_all            .022
loop_
_symmetry_equiv_pos_site_id
_symmetry_equiv_pos_as_xyz
  1	'x, -y, z+.5'
  2	'-x, -y, -z'
  3	'-x, y, -z+.5'
  4	'x, y, z'
  5	'x+.5, -y+.5, z+.5'
  6	'-x+.5, -y+.5, -z'
  7	'-x+.5, y+.5, -z+.5'
  8	'x+.5, y+.5, z'
loop_
_atom_type_symbol
_atom_type_oxidation_number
H1+	1
K1+	1
Mn3+	3
O2-	-2
P5+	5
loop_
_atom_site_label
_atom_site_type_symbol
_atom_site_symmetry_multiplicity
_atom_site_Wyckoff_symbol
_atom_site_fract_x
_atom_site_fract_y
_atom_site_fract_z
_atom_site_occupancy
_atom_site_attached_hydrogens
_atom_site_U_iso_or_equiv
Mn1 Mn3+ 4 c 0.750 0.250 0.5 1. 0 0.0158(1) 
P1 P5+ 8 f 0.2935(1) 0.4165(1) 0.7091(1) 1. 0 0.0149(1) 
P2 P5+ 4 e 0 0.1304(1) 0.750 1. 0 0.0163(1) 
K1 K1+ 4 e 0 0.5643(3) 0.750 1. 0 0.2460(3) 
O1 O2- 8 f 0.7424(1) 0.1118(1) 0.3284(1) 1. 0 0.0261(2) 
O2 O2- 8 f 0.7161(1) 0.0644(1) 0.6025(1) 1. 0 0.0208(2) 
O3 O2- 8 f 0.9275(1) 0.2226(1) 0.6089(1) 1. 0 0.0267(3) 
O4 O2- 8 f 0.0811(1) 0.01594(1) 0.6936(1) 1. 0 0.0224(2) 
O5 O2- 8 f 0.8221(1) 0.7982(1) 0.6224(1) 1. 0 0.0319(3) 
H1 H1+ 4 d 0.750 0.750 0.5 1. 0 0.0048 

#End of data_161904-ICSD


