data_75353-ICSD
#?2014 by Fachinformationszentrum Karlsruhe, and the U.S. Secretary of 
#Commerce on behalf of the United States.  All rights reserved.
_database_code_ICSD                75353
_audit_creation_date               1996/04/22
_audit_update_record               2011/02/01
_chemical_name_systematic
;
Silver Bis(oxomolybdenum(V)) Diphosphate(V) Phosphate(V)
;
_chemical_formula_structural       'Ag (Mo O)2 (P2 O7) (P O4)'
_chemical_formula_sum              'Ag1 Mo2 O13 P3'
_publ_section_title
;
A new silver molybdenum(V) phosphate: csi-Ag (Mo O)2 (P2 O7) (P O4)
;
loop_
_citation_id
_citation_journal_abbrev
_citation_year
_citation_journal_volume
_citation_page_first
_citation_page_last
_citation_journal_id_ASTM
primary
;
Comptes Rendus Hebdomadaires des Seances de l`Academie des Sciences, 
Ser. II (1994-)
;
 1994 319 47 52 CMCAEK
_publ_author_name
;
Hoareau, T.;Borel, M.M.;Grandin, A.;Leclaire, A.;Raveau, B.
;
_cell_length_a                     6.376(2)
_cell_length_b                     22.1730(20)
_cell_length_c                     8.718(2)
_cell_angle_alpha                  90.
_cell_angle_beta                   126.1(2)
_cell_angle_gamma                  90.
_cell_volume                       995.85
_cell_formula_units_Z              4
_symmetry_space_group_name_H-M     'P 1 21/c 1'
_symmetry_Int_Tables_number        14
_refine_ls_R_factor_all            .022
loop_
_symmetry_equiv_pos_site_id
_symmetry_equiv_pos_as_xyz
  1	'x, -y+.5, z+.5'
  2	'-x, -y, -z'
  3	'-x, y+.5, -z+.5'
  4	'x, y, z'
loop_
_atom_type_symbol
_atom_type_oxidation_number
Ag1+	1
Mo5+	5
O2-	-2
P5+	5
loop_
_atom_site_label
_atom_site_type_symbol
_atom_site_symmetry_multiplicity
_atom_site_Wyckoff_symbol
_atom_site_fract_x
_atom_site_fract_y
_atom_site_fract_z
_atom_site_occupancy
_atom_site_attached_hydrogens
_atom_site_B_iso_or_equiv
Mo1 Mo5+ 4 e 0.26141(2) 0.20908(1) 0.04469(2) 1. 0 0.412(2) 
Mo2 Mo5+ 4 e 0.54754(2) 0.43771(1) 0.27710(2) 1. 0 0.479(2) 
Ag1 Ag1+ 4 e 0.95123(3) 0.12682(1) 0.30355(2) 1. 0 1.519(3) 
P1 P5+ 4 e 0.64993(7) 0.29621(2) 0.42079(5) 1. 0 0.443(6) 
P2 P5+ 4 e 0.53014(8) 0.58391(2) 0.14766(6) 1. 0 0.485(6) 
P3 P5+ 4 e 0.02104(7) 0.59975(2) 0.79449(6) 1. 0 0.522(6) 
O1 O2- 4 e 0.1998(3) 0.27720(7) -.0533(2) 1. 0 1.10(3) 
O2 O2- 4 e 0.5872(2) 0.18886(7) 0.0641(2) 1. 0 0.76(2) 
O3 O2- 4 e -.0553(2) 0.21047(8) 0.0450(2) 1. 0 0.97(2) 
O4 O2- 4 e 0.0666(3) 0.16031(7) 0.8019(2) 1. 0 0.96(2) 
O5 O2- 4 e 0.5087(3) 0.23858(7) 0.3143(2) 1. 0 0.79(2) 
O6 O2- 4 e 0.3172(3) 0.12392(7) 0.1812(2) 1. 0 0.93(2) 
O7 O2- 4 e 0.7071(3) 0.44611(9) 0.5109(2) 1. 0 1.38(3) 
O8 O2- 4 e 0.4689(3) 0.52362(7) 0.1948(2) 1. 0 1.04(2) 
O9 O2- 4 e 0.5606(3) 0.34761(7) 0.2772(2) 1. 0 0.89(2) 
O10 O2- 4 e 0.1807(2) 0.43326(8) 0.1980(2) 1. 0 1.17(2) 
O11 O2- 4 e 0.8644(2) 0.44208(7) 0.2764(2) 1. 0 0.80(2) 
O12 O2- 4 e 0.3589(2) 0.42096(8) -.0346(2) 1. 0 0.82(2) 
O13 O2- 4 e 0.2484(3) 0.61616(7) 0.0116(2) 1. 0 0.83(2) 

#End of data_75353-ICSD


