data_419828-ICSD
#?2014 by Fachinformationszentrum Karlsruhe, and the U.S. Secretary of 
#Commerce on behalf of the United States.  All rights reserved.
_database_code_ICSD                419828
_audit_creation_date               2009/08/01
_chemical_name_systematic          'Thallium Aluminium Tetrachloride'
_chemical_formula_structural       'Tl (Al Cl4)'
_chemical_formula_sum              'Al1 Cl4 Tl1'
_publ_section_title
;
A systematic study on the crystal structures of Tl M X4 (M = Al, Ga; 
X = Cl, Br, I)
;
loop_
_citation_id
_citation_journal_abbrev
_citation_year
_citation_journal_volume
_citation_journal_issue
_citation_page_first
_citation_page_last
_citation_journal_id_ASTM
primary 'Zeitschrift fuer Anorganische und Allgemeine Chemie (1950) (DE)'
 2009 635 6-7 840 847 ZAACAB
_publ_author_name                  'Timofte, T.;Mudring, A.V.'
_cell_length_a                     10.921(4)
_cell_length_b                     7.031(3)
_cell_length_c                     9.226(4)
_cell_angle_alpha                  90.00
_cell_angle_beta                   90.00
_cell_angle_gamma                  90.00
_cell_volume                       708.42
_cell_formula_units_Z              4
_symmetry_space_group_name_H-M     'P n m a'
_symmetry_Int_Tables_number        62
_refine_ls_R_factor_all            .0775
loop_
_symmetry_equiv_pos_site_id
_symmetry_equiv_pos_as_xyz
  1	'x+.5, y, -z+.5'
  2	'x, -y+.5, z'
  3	'-x+.5, y+.5, z+.5'
  4	'-x, -y, -z'
  5	'-x+.5, -y, z+.5'
  6	'-x, y+.5, -z'
  7	'x+.5, -y+.5, -z+.5'
  8	'x, y, z'
loop_
_atom_type_symbol
_atom_type_oxidation_number
Al3+	3
Cl1-	-1
Tl1+	1
loop_
_atom_site_label
_atom_site_type_symbol
_atom_site_symmetry_multiplicity
_atom_site_Wyckoff_symbol
_atom_site_fract_x
_atom_site_fract_y
_atom_site_fract_z
_atom_site_occupancy
_atom_site_attached_hydrogens
_atom_site_U_iso_or_equiv
Tl1 Tl1+ 4 c 0.18455(14) -0.2500 0.31970(18) 1 0 0.1085(13) 
Al1 Al3+ 4 c 0.4344(8) 0.2500 0.3111(8) 1 0 0.056(2) 
Cl1 Cl1- 8 d 0.4242(6) 0.0077(11) 0.1766(6) 1 0 0.086(2) 
Cl2 Cl1- 4 c 0.2809(10) 0.2500 0.4510(10) 1 0 0.097(3) 
Cl3 Cl1- 4 c 0.6009(11) 0.2500 0.4254(13) 1 0 0.130(5) 

loop_
_atom_site_aniso_label
_atom_site_aniso_type_symbol
_atom_site_aniso_U_11
_atom_site_aniso_U_22
_atom_site_aniso_U_33
_atom_site_aniso_U_12
_atom_site_aniso_U_13
_atom_site_aniso_U_23
Tl1 Tl1+ 0.0591(12) 0.160(2) 0.1059(16) 0.000 0.0004(8) 0.000
Al1 Al3+ 0.046(4) 0.071(6) 0.051(4) 0.000 0.004(4) 0.000
Cl1 Cl1- 0.074(4) 0.089(5) 0.097(4) -0.007(4) 0.008(3) -0.024(4)
Cl2 Cl1- 0.086(6) 0.117(8) 0.086(6) 0.000 0.038(5) 0.000
Cl3 Cl1- 0.096(8) 0.167(12) 0.127(9) 0.000 -0.066(7) 0.000
#End of data_419828-ICSD


