data_62388-ICSD
#?2014 by Fachinformationszentrum Karlsruhe, and the U.S. Secretary of 
#Commerce on behalf of the United States.  All rights reserved.
_database_code_ICSD                62388
_audit_creation_date               1988/12/19
_audit_update_record               2006/04/01
_chemical_name_systematic          'Calcium Hexamolybdenum Octasulfide'
_chemical_formula_structural       'Ca Mo6 S8'
_chemical_formula_sum              'Ca1 Mo6 S8'
_publ_section_title
;
Matrix Effect in Chevrel Phases Containing Divalent Metal Cations. 
The Structure of Rhombohedral CaMo6S8
;
loop_
_citation_id
_citation_journal_abbrev
_citation_year
_citation_journal_volume
_citation_page_first
_citation_page_last
_citation_journal_id_ASTM
primary 'Journal of Solid State Chemistry' 1988 73 188 191 JSSCBI
2 'Golden Book of Phase Transitions, Wroclaw' 2002 1 1 123 GBOPT5
_publ_author_name                  'Kubel, F.;Yvon, K.'
_cell_length_a                     6.5146(5)
_cell_length_b                     6.5146(5)
_cell_length_c                     6.5146(5)
_cell_angle_alpha                  89.63(1)
_cell_angle_beta                   89.63(1)
_cell_angle_gamma                  89.63(1)
_cell_volume                       276.46
_cell_formula_units_Z              1
_symmetry_space_group_name_H-M     'R -3 R'
_symmetry_Int_Tables_number        148
_refine_ls_R_factor_all            .032
loop_
_symmetry_equiv_pos_site_id
_symmetry_equiv_pos_as_xyz
  1	'-z, -x, -y'
  2	'-y, -z, -x'
  3	'-x, -y, -z'
  4	'z, x, y'
  5	'y, z, x'
  6	'x, y, z'
loop_
_atom_type_symbol
_atom_type_oxidation_number
Ca2+	2
Mo2.33+	2.33
S2-	-2
loop_
_atom_site_label
_atom_site_type_symbol
_atom_site_symmetry_multiplicity
_atom_site_Wyckoff_symbol
_atom_site_fract_x
_atom_site_fract_y
_atom_site_fract_z
_atom_site_occupancy
_atom_site_attached_hydrogens
Ca1 Ca2+ 1 a 0 0 0 1. 0 
Mo1 Mo2.33+ 6 f 0.22568(7) 0.41774(7) 0.55977(7) 1. 0 
S1 S2- 6 f 0.3783(2) 0.1269(2) 0.7445(2) 1. 0 
S2 S2- 2 c 0.2391(2) 0.2391(2) 0.2391(2) 1. 0 

loop_
_atom_site_aniso_label
_atom_site_aniso_type_symbol
_atom_site_aniso_U_11
_atom_site_aniso_U_22
_atom_site_aniso_U_33
_atom_site_aniso_U_12
_atom_site_aniso_U_13
_atom_site_aniso_U_23
Mo1 Mo2.33+ 0.0050(2) 0.0045(2) 0.0051(2) 0.0000(1) -.0003(1) -.0004(1)
S1 S2- 0.0089(5) 0.0054(5) 0.0083(5) -.0013(4) 0.0007(4) 0.0009(4)
#End of data_62388-ICSD


