data_64742-ICSD
#?2014 by Fachinformationszentrum Karlsruhe, and the U.S. Secretary of 
#Commerce on behalf of the United States.  All rights reserved.
_database_code_ICSD                64742
_audit_creation_date               1997/11/10
_audit_update_record               2012/08/01
_chemical_name_systematic          'Magnesium Silicate'
_chemical_formula_structural       'Mg2 Si O4'
_chemical_formula_sum              'Mg2 O4 Si1'
_chemical_name_mineral             Forsterite
_publ_section_title
;
Effects of temperature and pressure on the crystal structure of 
Forsterite
;
loop_
_citation_id
_citation_journal_abbrev
_citation_year
_citation_journal_volume
_citation_page_first
_citation_page_last
_citation_journal_id_ASTM
primary 'American Mineralogist' 1976 61 1280 1293 AMMIAY
_publ_author_name                  'Hazen, R.M.'
_cell_length_a                     4.734(5)
_cell_length_b                     10.02(1)
_cell_length_c                     5.940(6)
_cell_angle_alpha                  90.
_cell_angle_beta                   90.
_cell_angle_gamma                  90.
_cell_volume                       281.76
_cell_formula_units_Z              4
_symmetry_space_group_name_H-M     'P b n m'
_symmetry_Int_Tables_number        62
_refine_ls_R_factor_all            .096
loop_
_symmetry_equiv_pos_site_id
_symmetry_equiv_pos_as_xyz
  1	'-x+.5, y+.5, z'
  2	'x, y, -z+.5'
  3	'x+.5, -y+.5, z+.5'
  4	'-x, -y, -z'
  5	'x+.5, -y+.5, -z'
  6	'-x, -y, z+.5'
  7	'-x+.5, y+.5, -z+.5'
  8	'x, y, z'
loop_
_atom_type_symbol
_atom_type_oxidation_number
Mg2+	2
O2-	-2
Si4+	4
loop_
_atom_site_label
_atom_site_type_symbol
_atom_site_symmetry_multiplicity
_atom_site_Wyckoff_symbol
_atom_site_fract_x
_atom_site_fract_y
_atom_site_fract_z
_atom_site_occupancy
_atom_site_attached_hydrogens
_atom_site_B_iso_or_equiv
Mg1 Mg2+ 4 a 0 0 0 1. 0 0.37(9) 
Mg2 Mg2+ 4 c 0.991(1) 0.280(1) 0.25 1. 0 0.52(10) 
Si1 Si4+ 4 c 0.426(1) 0.093(1) 0.25 1. 0 0.45(7) 
O1 O2- 4 c 0.768(2) 0.097(2) 0.25 1. 0 0.1(2) 
O2 O2- 4 c 0.228(2) 0.444(2) 0.25 1. 0 0.1(2) 
O3 O2- 8 d 0.276(2) 0.158(2) 0.035(1) 1. 0 0.4(1) 

#End of data_64742-ICSD


