data_31115-ICSD
#?2014 by Fachinformationszentrum Karlsruhe, and the U.S. Secretary of 
#Commerce on behalf of the United States.  All rights reserved.
_database_code_ICSD                31115
_audit_creation_date               1980/01/01
_audit_update_record               2005/10/01
_chemical_name_systematic          'Dialuminium Silicate Oxide'
_chemical_formula_structural       'Al2 (Si O4) O'
_chemical_formula_sum              'Al2 O5 Si1'
_chemical_name_mineral             Sillimanite
_publ_section_title
;
The structure of sillimanite and mullite.
;
loop_
_citation_id
_citation_journal_abbrev
_citation_year
_citation_journal_volume
_citation_page_first
_citation_page_last
_citation_journal_id_ASTM
primary
;
Zeitschrift fuer Kristallographie, Kristallgeometrie, Kristallphysik, 
Kristallchemie (-144,1977)
;
 1928 68 503 521 ZEKGAX
_publ_author_name                  'Taylor, W.H.'
_cell_length_a                     7.445(30)
_cell_length_b                     7.595(30)
_cell_length_c                     5.75(2)
_cell_angle_alpha                  90.
_cell_angle_beta                   90.
_cell_angle_gamma                  90.
_cell_volume                       325.13
_cell_formula_units_Z              4
_symmetry_space_group_name_H-M     'P b n m'
_symmetry_Int_Tables_number        62
loop_
_symmetry_equiv_pos_site_id
_symmetry_equiv_pos_as_xyz
  1	'-x+.5, y+.5, z'
  2	'x, y, -z+.5'
  3	'x+.5, -y+.5, z+.5'
  4	'-x, -y, -z'
  5	'x+.5, -y+.5, -z'
  6	'-x, -y, z+.5'
  7	'-x+.5, y+.5, -z+.5'
  8	'x, y, z'
loop_
_atom_type_symbol
_atom_type_oxidation_number
Al3+	3
O2-	-2
Si4+	4
loop_
_atom_site_label
_atom_site_type_symbol
_atom_site_symmetry_multiplicity
_atom_site_Wyckoff_symbol
_atom_site_fract_x
_atom_site_fract_y
_atom_site_fract_z
_atom_site_occupancy
_atom_site_attached_hydrogens
Al1 Al3+ 4 a 0 0 0 1. 0 
Al2 Al3+ 4 c -.14 0.33 0.25 1. 0 
Si1 Si4+ 4 c 0.18 -.35 0.25 1. 0 
O1 O2- 4 c 0.11 0.12 0.25 1. 0 
O2 O2- 4 c -.1 -.16 0.25 1. 0 
O3 O2- 4 c 0.08 0.46 0.25 1. 0 
O4 O2- 8 d 0.15 -.18 0 1. 0 

#End of data_31115-ICSD


