data_26640-ICSD
#?2014 by Fachinformationszentrum Karlsruhe, and the U.S. Secretary of 
#Commerce on behalf of the United States.  All rights reserved.
_database_code_ICSD                26640
_audit_creation_date               1980/01/01
_audit_update_record               1988/03/30
_chemical_name_systematic          'Potassium Difluorophosphate'
_chemical_formula_structural       'K P O2 F2'
_chemical_formula_sum              'F2 K1 O2 P1'
_publ_section_title
;
The Structure of Potassium Difluorophosphate
;
loop_
_citation_id
_citation_journal_abbrev
_citation_year
_citation_journal_volume
_citation_page_first
_citation_page_last
_citation_journal_id_ASTM
primary
;
Journal of the Chemical Society A: Inorganic, Physical, Theoretical 
(1966-1971)
;
 1966 1966 1775 1780 JCSIAP
_publ_author_name
;
Harrison, R.W.;Thompson, R.C.;Trotter, J.
;
_cell_length_a                     8.039(10)
_cell_length_b                     6.205(10)
_cell_length_c                     7.635(10)
_cell_angle_alpha                  90.
_cell_angle_beta                   90.
_cell_angle_gamma                  90.
_cell_volume                       380.85
_cell_formula_units_Z              4
_symmetry_space_group_name_H-M     'P n m a'
_symmetry_Int_Tables_number        62
_refine_ls_R_factor_all            .038
loop_
_symmetry_equiv_pos_site_id
_symmetry_equiv_pos_as_xyz
  1	'x+.5, y, -z+.5'
  2	'x, -y+.5, z'
  3	'-x+.5, y+.5, z+.5'
  4	'-x, -y, -z'
  5	'-x+.5, -y, z+.5'
  6	'-x, y+.5, -z'
  7	'x+.5, -y+.5, -z+.5'
  8	'x, y, z'
loop_
_atom_type_symbol
_atom_type_oxidation_number
F1-	-1
K1+	1
O2-	-2
P5+	5
loop_
_atom_site_label
_atom_site_type_symbol
_atom_site_symmetry_multiplicity
_atom_site_Wyckoff_symbol
_atom_site_fract_x
_atom_site_fract_y
_atom_site_fract_z
_atom_site_occupancy
_atom_site_attached_hydrogens
K1 K1+ 4 c 0.1486(19) 0.25 0.1444(20) 1. 0 
P1 P5+ 4 c 0.0917(21) 0.25 -.3101(21) 1. 0 
F1 F1- 4 c 0.2287(74) 0.25 -.4534(66) 1. 0 
F2 F1- 4 c -.0601(70) 0.25 -.4356(71) 1. 0 
O1 O2- 8 d 0.098(5) 0.0443(49) -.2184(50) 1. 0 

loop_
_atom_site_aniso_label
_atom_site_aniso_type_symbol
_atom_site_aniso_U_11
_atom_site_aniso_U_22
_atom_site_aniso_U_33
_atom_site_aniso_U_12
_atom_site_aniso_U_13
_atom_site_aniso_U_23
K1 K1+ 0.0314(9) 0.0234(9) 0.0348(9) 0 0.0027(9) 0
P1 P5+ 0.0264(9) 0.0198(9) 0.0241(9) 0 0.0008(9) 0
F1 F1- 0.0686(36) 0.0610(36) 0.0494(36) 0 0.0315(36) 0
F2 F1- 0.0578(35) 0.0564(35) 0.0619(35) 0 -.0284(35) 0
O1 O2- 0.0528(22) 0.0255(22) 0.0468(22) -.0052(22) -.0015(22) 0.0091(22)
#End of data_26640-ICSD


