data_159388-ICSD
#?2014 by Fachinformationszentrum Karlsruhe, and the U.S. Secretary of 
#Commerce on behalf of the United States.  All rights reserved.
_database_code_ICSD                159388
_audit_creation_date               2008/08/01
_chemical_name_systematic          'Sodium Dioxoniccolate(III)'
_chemical_formula_structural       'Na (Ni O2)'
_chemical_formula_sum              'Na1 Ni1 O2'
_publ_section_title
;
Highly swollen layered nickel oxide with a trilayer hydrate structure
;
loop_
_citation_id
_citation_journal_abbrev
_citation_year
_citation_journal_volume
_citation_page_first
_citation_page_last
_citation_journal_id_ASTM
primary 'Chemistry of Materials' 2008 20 479 485 CMATEX
_publ_author_name
;
Yang Xiaojing;Takada, K.;Itose, M.;Ebina, Y.;Ma Renzhi;Fukuda, 
K.;Sasaki, T.
;
_cell_length_a                     5.3222(3)
_cell_length_b                     2.8458(1)
_cell_length_c                     5.5832(3)
_cell_angle_alpha                  90.
_cell_angle_beta                   110.474(3)
_cell_angle_gamma                  90.
_cell_volume                       79.22
_cell_formula_units_Z              2
_symmetry_space_group_name_H-M     'C 1 2/m 1'
_symmetry_Int_Tables_number        12
_refine_ls_R_factor_all            .0117
loop_
_symmetry_equiv_pos_site_id
_symmetry_equiv_pos_as_xyz
  1	'-x, y, -z'
  2	'-x, -y, -z'
  3	'x, -y, z'
  4	'x, y, z'
  5	'-x+.5, y+.5, -z'
  6	'-x+.5, -y+.5, -z'
  7	'x+.5, -y+.5, z'
  8	'x+.5, y+.5, z'
loop_
_atom_type_symbol
_atom_type_oxidation_number
Na1+	1
Ni3+	3
O2-	-2
loop_
_atom_site_label
_atom_site_type_symbol
_atom_site_symmetry_multiplicity
_atom_site_Wyckoff_symbol
_atom_site_fract_x
_atom_site_fract_y
_atom_site_fract_z
_atom_site_occupancy
_atom_site_attached_hydrogens
_atom_site_U_iso_or_equiv
Ni1 Ni3+ 2 a 0 0 0 1. 0 0.0099(4) 
O1 O2- 4 i 0.2829(4) 0 0.8035(4) 1. 0 0.0107(7) 
Na1 Na1+ 2 d 0 0.5 0.5 1. 0 0.0165(7) 

#End of data_159388-ICSD


