data_247985-ICSD
#?2014 by Fachinformationszentrum Karlsruhe, and the U.S. Secretary of 
#Commerce on behalf of the United States.  All rights reserved.
_database_code_ICSD                247985
_audit_creation_date               2014/08/01
_chemical_name_systematic
;
Dilithium Manganese(II) Pyrophosphate - Beta
;
_chemical_formula_structural       'Li2 Mn P2 O7'
_chemical_formula_sum              'Li2 Mn1 O7 P2'
_publ_section_title
;
A new polymorph of lithium manganese(II) pyrophosphate beta-Li2MnP2O7
;
loop_
_citation_id
_citation_journal_abbrev
_citation_year
_citation_journal_volume
_citation_journal_issue
_citation_page_first
_citation_page_last
_citation_journal_id_ASTM
primary 'Dalton Transactions' 2014 43 4 1502 1504 DTARAF
_publ_author_name
;
Nishimura, Shin-ichi;Natsui, Ryuichi;Yamada, Atsuo
;
_cell_length_a                     8.2522(2)
_cell_length_b                     12.9533(3)
_cell_length_c                     4.98188(12)
_cell_angle_alpha                  90
_cell_angle_beta                   92.8282(14)
_cell_angle_gamma                  90
_cell_volume                       531.88
_cell_formula_units_Z              4
_symmetry_space_group_name_H-M     'P 1 21/n 1'
_symmetry_Int_Tables_number        14
_refine_ls_R_factor_all            .0545
loop_
_symmetry_equiv_pos_site_id
_symmetry_equiv_pos_as_xyz
  1	'-x+.5, y+.5, -z+.5'
  2	'-x, -y, -z'
  3	'x+.5, -y+.5, z+.5'
  4	'x, y, z'
loop_
_atom_type_symbol
_atom_type_oxidation_number
Li1+	1
Mn2+	2
O2-	-2
P5+	5
loop_
_atom_site_label
_atom_site_type_symbol
_atom_site_symmetry_multiplicity
_atom_site_Wyckoff_symbol
_atom_site_fract_x
_atom_site_fract_y
_atom_site_fract_z
_atom_site_occupancy
_atom_site_attached_hydrogens
_atom_site_B_iso_or_equiv
Mn1 Mn2+ 4 e 0.3598(2) 0.37040(13) 0.7278(4) 1. 0 0.64(5) 
P1 P5+ 4 e 0.9580(3) 0.3097(2) 0.6876(6) 1. 0 0.68(7) 
P2 P5+ 4 e 0.7239(3) 0.4710(2) 0.7643(5) 1. 0 0.49(7) 
O1 O2- 4 e 0.7402(7) 0.5719(4) 0.9092(11) 1. 0 0.47(6) 
O2 O2- 4 e 0.6098(6) 0.3943(4) 0.8926(11) 1. 0 0.47(6) 
O3 O2- 4 e 0.6793(6) 0.4835(4) 0.4667(10) 1. 0 0.47(6) 
O4 O2- 4 e 0.9038(6) 0.4196(4) 0.7945(10) 1. 0 0.47(6) 
O5 O2- 4 e 0.9752(7) 0.2378(4) -0.0676(11) 1. 0 0.47(6) 
O6 O2- 4 e 0.8250(7) 0.2738(4) 0.4812(11) 1. 0 0.47(6) 
O7 O2- 4 e 0.1202(7) 0.3238(4) 0.5627(10) 1. 0 0.47(6) 
Li1 Li1+ 4 e 0.666(2) 0.3551(12) 0.282(3) 1. 0 1.0 
Li2 Li1+ 4 e 0.648(2) 0.1945(13) 0.696(3) 1. 0 1.0 

#End of data_247985-ICSD


