data_415472-ICSD
#?2014 by Fachinformationszentrum Karlsruhe, and the U.S. Secretary of 
#Commerce on behalf of the United States.  All rights reserved.
_database_code_ICSD                415472
_audit_creation_date               2007/04/01
_chemical_name_systematic          'Disilver Telluro(IV)tellurate - Ii'
_chemical_formula_structural       'Ag2 (Te2 O6)'
_chemical_formula_sum              'Ag2 O6 Te2'
_publ_section_title                'Neue Silber(I)-oxotellurate(IV/VI)'
loop_
_citation_id
_citation_journal_abbrev
_citation_year
_citation_journal_volume
_citation_page_first
_citation_page_last
_citation_journal_id_ASTM
primary 'Zeitschrift fuer Anorganische und Allgemeine Chemie (1950) (DE)'
 2005 631 2893 2899 ZAACAB
_publ_author_name
;
Klein, W.;Curda, J.;Peters, E.M.;Jansen, M.
;
_cell_length_a                     5.4562(5)
_cell_length_b                     7.4009(7)
_cell_length_c                     6.9122(7)
_cell_angle_alpha                  90.00
_cell_angle_beta                   101.237(2)
_cell_angle_gamma                  90.00
_cell_volume                       273.77
_cell_formula_units_Z              2
_symmetry_space_group_name_H-M     'P 1 21/m 1'
_symmetry_Int_Tables_number        11
_refine_ls_R_factor_all            .0284
loop_
_symmetry_equiv_pos_site_id
_symmetry_equiv_pos_as_xyz
  1	'x, -y+.5, z'
  2	'-x, -y, -z'
  3	'-x, y+.5, -z'
  4	'x, y, z'
loop_
_atom_type_symbol
_atom_type_oxidation_number
Ag1+	1
O2-	-2
Te4+	4
Te6+	6
loop_
_atom_site_label
_atom_site_type_symbol
_atom_site_symmetry_multiplicity
_atom_site_Wyckoff_symbol
_atom_site_fract_x
_atom_site_fract_y
_atom_site_fract_z
_atom_site_occupancy
_atom_site_attached_hydrogens
_atom_site_U_iso_or_equiv
Ag1 Ag1+ 2 a 0.0000 0.0000 0.0000 1 0 0.0334(2) 
Ag2 Ag1+ 2 e 0.45005(11) 0.2500 0.18808(8) 1 0 0.02190(13) 
Te1 Te6+ 2 c 0.0000 0.0000 0.5000 1 0 0.00665(9) 
Te2 Te4+ 2 e 0.51543(7) 0.2500 0.68189(6) 1 0 0.00851(10) 
O1 O2- 2 e 0.6657(8) 0.2500 0.9431(6) 1 0 0.0131(8) 
O2 O2- 2 e -0.0989(8) 0.2500 0.4380(7) 1 0 0.0110(8) 
O3 O2- 4 f 0.2305(6) 0.0125(4) 0.3288(4) 1 0 0.0108(5) 
O4 O2- 4 f 0.2600(5) 0.0645(4) 0.7240(4) 1 0 0.0100(5) 

loop_
_atom_site_aniso_label
_atom_site_aniso_type_symbol
_atom_site_aniso_U_11
_atom_site_aniso_U_22
_atom_site_aniso_U_33
_atom_site_aniso_U_12
_atom_site_aniso_U_13
_atom_site_aniso_U_23
Ag1 Ag1+ 0.0295(3) 0.0575(4) 0.0112(2) 0.0189(3) -0.0006(2) 0.0042(3)
Ag2 Ag1+ 0.0256(3) 0.0228(3) 0.0200(3) 0.000 0.0113(2) 0.000
Te1 Te6+ 0.00725(15) 0.0050(2) 0.0080(2) -0.00012(10) 0.00221(11) 
-0.00025(11)
Te2 Te4+ 0.0085(2) 0.0087(2) 0.0081(2) 0.000 0.00085(11) 0.000
O1 O2- 0.013(2) 0.017(2) 0.008(2) 0.000 0.0000(15) 0.000
O2 O2- 0.012(2) 0.005(2) 0.015(2) 0.000 0.000(2) 0.000
O3 O2- 0.0125(13) 0.0106(13) 0.0110(13) -0.0003(10) 0.0065(10) 0.0015(10)
O4 O2- 0.0104(12) 0.0101(12) 0.0092(13) -0.0011(10) 0.0016(10) 0.0004(10)
#End of data_415472-ICSD


