data_404356-ICSD
#?2014 by Fachinformationszentrum Karlsruhe, and the U.S. Secretary of 
#Commerce on behalf of the United States.  All rights reserved.
_database_code_ICSD                404356
_audit_creation_date               1996/10/14
_chemical_name_systematic          'Hexasilver Digermanate'
_chemical_formula_structural       'Ag6 (Ge2 O7)'
_chemical_formula_sum              'Ag6 Ge2 O7'
_publ_section_title
;
Die Tieftemperaturmmodifikationen von Ag6 Si2 O7 und Ag6 Ge2 O7 
Darstellung, Kristallstrukturen und Vergleich der Ag-Ag Abstaende
;
loop_
_citation_id
_citation_journal_abbrev
_citation_year
_citation_journal_volume
_citation_page_first
_citation_page_last
_citation_journal_id_ASTM
primary 'Zeitschrift fuer Anorganische und Allgemeine Chemie (1950) (DE)'
 1996 622 486 493 ZAACAB
_publ_author_name                  'Linke, C.;Jansen, M.'
_cell_length_a                     5.3713(4)
_cell_length_b                     9.9835(8)
_cell_length_c                     16.2249(14)
_cell_angle_alpha                  90.
_cell_angle_beta                   90.904(8)
_cell_angle_gamma                  90.
_cell_volume                       869.94
_cell_formula_units_Z              4
_symmetry_space_group_name_H-M     'P 1 21 1'
_symmetry_Int_Tables_number        4
_refine_ls_R_factor_all            .0425
loop_
_symmetry_equiv_pos_site_id
_symmetry_equiv_pos_as_xyz
  1	'-x, y+.5, -z'
  2	'x, y, z'
loop_
_atom_type_symbol
_atom_type_oxidation_number
Ag1+	1
Ge4+	4
O2-	-2
loop_
_atom_site_label
_atom_site_type_symbol
_atom_site_symmetry_multiplicity
_atom_site_Wyckoff_symbol
_atom_site_fract_x
_atom_site_fract_y
_atom_site_fract_z
_atom_site_occupancy
_atom_site_attached_hydrogens
Ag1 Ag1+ 2 a 0.7318(2) 0.2892(2) 0.81569(8) 1. 0 
Ag2 Ag1+ 2 a 0.7551(3) 0.2916(2) 0.33457(9) 1. 0 
Ag3 Ag1+ 2 a 0.7534(2) 0.04608(13) 0.70510(8) 1. 0 
Ag4 Ag1+ 2 a 0.7569(2) 0.0294(2) 0.19864(8) 1. 0 
Ag5 Ag1+ 2 a 0.7115(2) 0.81299(13) 0.07529(9) 1. 0 
Ag6 Ag1+ 2 a 0.2442(3) 0.74875(14) 0.96228(10) 1. 0 
Ag7 Ag1+ 2 a 0.7396(2) 0.2721(2) 0.55048(9) 1. 0 
Ag8 Ag1+ 2 a 0.7202(2) 0.49755(14) 0.67616(8) 1. 0 
Ag9 Ag1+ 2 a 0.6789(2) 0.51614(14) 0.17295(8) 1. 0 
Ag10 Ag1+ 2 a 0.2990(2) 0.32788(14) 0.42451(9) 1. 0 
Ag11 Ag1+ 2 a 0.2588(2) 0.5188(2) 0.56888(8) 1. 0 
Ag12 Ag1+ 2 a 0.1796(2) 0.5052(2) 0.07665(8) 1. 0 
Ge1 Ge4+ 2 a 0.7388(3) 0.54199(15) 0.94120(9) 1. 0 
Ge2 Ge4+ 2 a 0.2860(3) 0.2652(2) 0.19759(10) 1. 0 
Ge3 Ge4+ 2 a 0.7444(2) 0.5564(2) 0.46114(9) 1. 0 
Ge4 Ge4+ 2 a 0.2528(3) 0.2606(2) 0.69554(9) 1. 0 
O1 O2- 2 a 0.8498(17) 0.6092(10) 1.0330(6) 1. 0 
O2 O2- 2 a 0.4155(15) 0.5412(9) 0.9318(5) 1. 0 
O3 O2- 2 a 0.8519(18) 0.3780(9) 0.9299(6) 1. 0 
O4 O2- 2 a 0.1229(15) 0.1385(10) 0.1389(6) 1. 0 
O5 O2- 2 a 0.0693(17) 0.3674(10) 0.2447(6) 1. 0 
O6 O2- 2 a 0.4781(18) 0.1783(10) 0.2671(6) 1. 0 
O7 O2- 2 a 0.4522(17) 0.3582(10) 0.1234(6) 1. 0 
O8 O2- 2 a 0.8267(18) 0.6197(10) 0.5566(6) 1. 0 
O9 O2- 2 a 0.8698(17) 0.3972(10) 0.4484(6) 1. 0 
O10 O2- 2 a 0.4189(14) 0.5472(9) 0.4452(6) 1. 0 
O11 O2- 2 a 0.8784(16) 0.6620(11) 0.3857(6) 1. 0 
O12 O2- 2 a 0.1446(17) 0.1957(10) 0.7866(6) 1. 0 
O13 O2- 2 a 0.1421(15) 0.4239(10) 0.6815(6) 1. 0 
O14 O2- 2 a 0.5803(15) 0.2561(10) 0.6893(5) 1. 0 

loop_
_atom_site_aniso_label
_atom_site_aniso_type_symbol
_atom_site_aniso_U_11
_atom_site_aniso_U_22
_atom_site_aniso_U_33
_atom_site_aniso_U_12
_atom_site_aniso_U_13
_atom_site_aniso_U_23
Ag1 Ag1+ 0.0184(6) 0.0446(9) 0.0172(6) 0.0005(6) -.0013(5) -.0136(6)
Ag2 Ag1+ 0.0314(6) 0.0380(9) 0.0322(8) -.0102(6) -.0039(6) -.0106(7)
Ag3 Ag1+ 0.0225(5) 0.0168(7) 0.0272(7) 0.0015(4) -.0011(4) 0.0062(5)
Ag4 Ag1+ 0.0334(6) 0.0341(9) 0.0174(6) 0.0059(6) 0.0017(5) 0.0072(6)
Ag5 Ag1+ 0.0182(5) 0.0163(7) 0.0370(7) 0.0045(5) 0.0019(5) -.0045(6)
Ag6 Ag1+ 0.0379(7) 0.0239(9) 0.0509(10) -.0094(6) 0.0269(7) -.0174(7)
Ag7 Ag1+ 0.0228(5) 0.0233(7) 0.0292(7) -.0025(5) 0.0001(5) 0.0124(6)
Ag8 Ag1+ 0.0239(6) 0.0213(7) 0.0278(7) 0.0052(5) 0.0050(5) 0.0049(6)
Ag9 Ag1+ 0.0293(6) 0.0249(7) 0.0213(6) -.0144(6) 0.0039(4) -.0049(6)
Ag10 Ag1+ 0.0204(5) 0.0160(6) 0.0410(8) -.0039(5) 0.0014(5) 0.0040(6)
Ag11 Ag1+ 0.0193(5) 0.0455(9) 0.0191(6) -.0033(7) 0.0029(4) 0.0087(7)
Ag12 Ag1+ 0.0252(5) 0.0323(8) 0.0271(6) 0.0090(6) -.0048(5) 0.0064(6)
Ge1 Ge4+ 0.0109(6) 0.0082(8) 0.0107(7) -.0005(5) -.0008(5) -.0005(6)
Ge2 Ge4+ 0.0146(7) 0.0098(8) 0.0127(8) -.0022(6) 0.0007(5) -.0028(6)
Ge3 Ge4+ 0.0104(6) 0.0088(8) 0.0123(7) -.0003(5) 0.0014(5) 0.0005(6)
Ge4 Ge4+ 0.0099(6) 0.0112(8) 0.0079(7) -.0005(6) -.0002(5) -.0009(6)
O1 O2- 0.019(4) 0.015(5) 0.014(5) 0.001(4) -.008(4) -.006(4)
O2 O2- 0.010(4) 0.019(5) 0.018(5) -.003(3) 0.000(3) 0.001(4)
O3 O2- 0.026(5) 0.008(5) 0.014(5) 0.009(4) -.003(4) -.002(4)
O4 O2- 0.010(4) 0.019(5) 0.020(5) -.004(4) -.003(3) -.004(4)
O5 O2- 0.015(4) 0.015(5) 0.035(6) -.004(4) 0.009(4) -.015(5)
O6 O2- 0.029(5) 0.017(5) 0.022(5) -.004(4) -.013(4) 0.001(4)
O7 O2- 0.020(4) 0.010(5) 0.018(5) 0.001(4) 0.001(4) 0.004(4)
O8 O2- 0.024(5) 0.018(5) 0.014(5) 0.001(4) -.005(4) -.003(4)
O9 O2- 0.019(5) 0.018(5) 0.018(5) 0.004(4) 0.006(4) -.001(4)
O10 O2- 0.003(3) 0.017(5) 0.029(5) 0.000(3) 0.001(3) 0.008(4)
O11 O2- 0.011(4) 0.029(6) 0.019(5) -.007(4) -.001(3) 0.016(5)
O12 O2- 0.017(4) 0.021(6) 0.022(5) 0.008(4) 0.010(4) 0.009(4)
O13 O2- 0.009(4) 0.019(5) 0.015(5) 0.003(4) 0.002(3) 0.002(4)
O14 O2- 0.007(4) 0.022(6) 0.014(5) 0.002(4) 0.000(3) 0.006(4)
#End of data_404356-ICSD


