data_9841-ICSD
#?2014 by Fachinformationszentrum Karlsruhe, and the U.S. Secretary of 
#Commerce on behalf of the United States.  All rights reserved.
_database_code_ICSD                9841
_audit_creation_date               1984/09/06
_audit_update_record               2006/04/01
_chemical_name_systematic
;
Calcium Titanium Silicate Oxide - Ht
;
_chemical_formula_structural       'Ca Ti (Si O4) O'
_chemical_formula_sum              'Ca1 O5 Si1 Ti1'
_chemical_name_mineral             'Titanite high'
_publ_section_title
;
High-temperature structural study of the P21/a - A2/a phase 
transition in synthetic titanite, Ca Ti Si O5
;
loop_
_citation_id
_citation_journal_abbrev
_citation_year
_citation_journal_volume
_citation_page_first
_citation_page_last
_citation_journal_id_ASTM
primary 'American Mineralogist' 1976 61 435 447 AMMIAY
2 'Golden Book of Phase Transitions, Wroclaw' 2002 1 1 123 GBOPT5
_publ_author_name                  'Taylor, M.;Brown, G.E.'
_cell_length_a                     7.083(4)
_cell_length_b                     8.753(9)
_cell_length_c                     6.596(7)
_cell_angle_alpha                  90.
_cell_angle_beta                   113.55
_cell_angle_gamma                  90.
_cell_volume                       374.88
_cell_formula_units_Z              4
_symmetry_space_group_name_H-M     'A 1 2/a 1'
_symmetry_Int_Tables_number        15
_refine_ls_R_factor_all            .043
loop_
_symmetry_equiv_pos_site_id
_symmetry_equiv_pos_as_xyz
  1	'-x+.5, y, -z'
  2	'-x, -y, -z'
  3	'x+.5, -y, z'
  4	'x, y, z'
  5	'-x+.5, y+.5, -z+.5'
  6	'-x, -y+.5, -z+.5'
  7	'x+.5, -y+.5, z+.5'
  8	'x, y+.5, z+.5'
loop_
_atom_type_symbol
_atom_type_oxidation_number
Ca2+	2
O2-	-2
Si4+	4
Ti4+	4
loop_
_atom_site_label
_atom_site_type_symbol
_atom_site_symmetry_multiplicity
_atom_site_Wyckoff_symbol
_atom_site_fract_x
_atom_site_fract_y
_atom_site_fract_z
_atom_site_occupancy
_atom_site_attached_hydrogens
_atom_site_B_iso_or_equiv
Ca1 Ca2+ 4 e 0.25 0.1691(2) 0 1. 0 2.94(6) 
Ti1 Ti4+ 4 b 0.5 0 0.5 1. 0 1.47(5) 
Si1 Si4+ 4 e 0.75 0.1828(3) 0 1. 0 0.93(6) 
O1 O2- 4 e 0.75 0.0710(8) 0.5 1. 0 1.70(13) 
O2 O2- 8 f 0.9093(7) 0.0667(5) 0.1841(8) 1. 0 1.73(10) 
O3 O2- 8 f 0.3817(6) 0.2101(6) 0.3982(8) 1. 0 1.57(10) 

#End of data_9841-ICSD


