data_21012-ICSD
#?2014 by Fachinformationszentrum Karlsruhe, and the U.S. Secretary of 
#Commerce on behalf of the United States.  All rights reserved.
_database_code_ICSD                21012
_audit_creation_date               1980/01/01
_audit_update_record               2012/08/01
_chemical_name_systematic          'Lithium Vanadium Tellurium Oxide'
_chemical_formula_structural       'Li V Te O5'
_chemical_formula_sum              'Li1 O5 Te1 V1'
_publ_section_title
;
Structure cristalline de la phase Li V Te O5
;
loop_
_citation_id
_citation_journal_abbrev
_citation_year
_citation_journal_volume
_citation_page_first
_citation_page_last
_citation_journal_id_ASTM
primary
;
Bulletin de la Societe Francaise de Mineralogie et de 
Cristallographie (72,1949-100,1977)
;
 1973 96 97 99 BUFCAE
2
;
Comptes Rendus Hebdomadaires des Seances de l`Academie des Sciences, 
Serie C, Sciences Chimiques (1966-)
;
 1969 269 23 25 CHDCAQ
_publ_author_name                  'Darriet, J.'
_cell_length_a                     9.509(5)
_cell_length_b                     8.335(5)
_cell_length_c                     5.285(5)
_cell_angle_alpha                  90.
_cell_angle_beta                   90.
_cell_angle_gamma                  90.
_cell_volume                       418.88
_cell_formula_units_Z              4
_symmetry_space_group_name_H-M     'P 21 21 21'
_symmetry_Int_Tables_number        19
_refine_ls_R_factor_all            .082
loop_
_symmetry_equiv_pos_site_id
_symmetry_equiv_pos_as_xyz
  1	'-x, y+.5, -z+.5'
  2	'x+.5, -y+.5, -z'
  3	'-x+.5, -y, z+.5'
  4	'x, y, z'
loop_
_atom_type_symbol
_atom_type_oxidation_number
Li1+	1
O2-	-2
Te4+	4
V5+	5
loop_
_atom_site_label
_atom_site_type_symbol
_atom_site_symmetry_multiplicity
_atom_site_Wyckoff_symbol
_atom_site_fract_x
_atom_site_fract_y
_atom_site_fract_z
_atom_site_occupancy
_atom_site_attached_hydrogens
_atom_site_B_iso_or_equiv
Li1 Li1+ 4 a 0.2228(40) 0.3484(47) 0.7862(50) 1. 0 0.28 
V1 V5+ 4 a 0.3985(6) 0.2728(5) 0.2844(11) 1. 0 0.96 
Te1 Te4+ 4 a 0.0998(2) 0.0613(2) 0.1993(4) 1. 0 0.61 
O1 O2- 4 a 0.3349(22) 0.0678(32) 0.4322(50) 1. 0 2.3 
O2 O2- 4 a 0.0586(21) 0.2626(26) 0.6099(44) 1. 0 1.59 
O3 O2- 4 a -.0632(20) 0.1525(24) 0.0275(46) 1. 0 1.42 
O4 O2- 4 a 0.2212(23) 0.2245(28) 0.0971(49) 1. 0 1.9 
O5 O2- 4 a 0.3421(21) 0.4280(29) 0.4569(48) 1. 0 2.14 

#End of data_21012-ICSD


