data_10354-ICSD
#?2014 by Fachinformationszentrum Karlsruhe, and the U.S. Secretary of 
#Commerce on behalf of the United States.  All rights reserved.
_database_code_ICSD                10354
_audit_creation_date               1980/01/01
_audit_update_record               2012/08/01
_chemical_name_systematic          'Lithium Amide'
_chemical_formula_structural       'Li (N H2)'
_chemical_formula_sum              'H2 Li1 N1'
_publ_section_title
;
Neubestimmung der Kristallstruktur des Lithiumamids
;
loop_
_citation_id
_citation_journal_abbrev
_citation_year
_citation_journal_volume
_citation_page_first
_citation_page_last
_citation_journal_id_ASTM
primary 'Zeitschrift fuer Anorganische und Allgemeine Chemie (1950) (DE)'
 1972 391 271 279 ZAACAB
_publ_author_name                  'Jacobs, H.;Juza, R.'
_cell_length_a                     5.037
_cell_length_b                     5.037
_cell_length_c                     10.278
_cell_angle_alpha                  90.
_cell_angle_beta                   90.
_cell_angle_gamma                  90.
_cell_volume                       260.77
_cell_formula_units_Z              8
_symmetry_space_group_name_H-M     'I -4'
_symmetry_Int_Tables_number        82
_refine_ls_R_factor_all            .067
loop_
_symmetry_equiv_pos_site_id
_symmetry_equiv_pos_as_xyz
  1	'-y, x, -z'
  2	'y, -x, -z'
  3	'-x, -y, z'
  4	'x, y, z'
  5	'-y+.5, x+.5, -z+.5'
  6	'y+.5, -x+.5, -z+.5'
  7	'-x+.5, -y+.5, z+.5'
  8	'x+.5, y+.5, z+.5'
loop_
_atom_type_symbol
_atom_type_oxidation_number
H1+	1
Li1+	1
N3-	-3
loop_
_atom_site_label
_atom_site_type_symbol
_atom_site_symmetry_multiplicity
_atom_site_Wyckoff_symbol
_atom_site_fract_x
_atom_site_fract_y
_atom_site_fract_z
_atom_site_occupancy
_atom_site_attached_hydrogens
_atom_site_B_iso_or_equiv
N1 N3- 8 g 0.2284(3) 0.2452(5) 0.1148(1) 1. 0 1.2 
Li1 Li1+ 2 a 0 0 0 1. 0 0.98 
Li2 Li1+ 2 c 0 0.5 0.25 1. 0 1.72 
Li3 Li1+ 4 f 0 0.5 0.0042(7) 1. 0 1.7 
H1 H1+ 8 g 0.226(13) 0.149(15) 0.172(5) 1. 0 4.9 
H2 H1+ 8 g 0.308(12) 0.359(14) 0.114(4) 1. 0 3.8 

#End of data_10354-ICSD


