data_423774-ICSD
#?2014 by Fachinformationszentrum Karlsruhe, and the U.S. Secretary of 
#Commerce on behalf of the United States.  All rights reserved.
_database_code_ICSD                423774
_audit_creation_date               2013/02/01
_chemical_name_systematic
;
Trilithium Sodium Barium Hexaborate
;
_chemical_formula_structural       'Li3 Na Ba B6 O12'
_chemical_formula_sum              'B6 Ba1 Li3 Na1 O12'
_publ_section_title
;
Synthesis, crystal structure and characterization of a new compound, 
Li3 Na Ba B6 O12
;
loop_
_citation_id
_citation_journal_abbrev
_citation_year
_citation_journal_volume
_citation_journal_issue
_citation_page_first
_citation_page_last
_citation_journal_id_ASTM
primary 'Solid State Sciences' 2012 14 8 1186 1190 SSSCFJ
_publ_author_name
;
Chen Songjie;Pan Shilie;Zhao Wenwu;Yang Zhihua;Wu Hongping;Yang Yun
;
_cell_length_a                     9.462(9)
_cell_length_b                     9.462(9)
_cell_length_c                     18.71(3)
_cell_angle_alpha                  90.00
_cell_angle_beta                   90.00
_cell_angle_gamma                  120.00
_cell_volume                       1450.68
_cell_formula_units_Z              6
_symmetry_space_group_name_H-M     'R -3 H'
_symmetry_Int_Tables_number        148
_refine_ls_R_factor_all            .0291
loop_
_symmetry_equiv_pos_site_id
_symmetry_equiv_pos_as_xyz
  1	'x-y, x, -z'
  2	'y, -x+y, -z'
  3	'-x, -y, -z'
  4	'-x+y, -x, z'
  5	'-y, x-y, z'
  6	'x, y, z'
  7	'x-y+.6666, x+.3333, -z+.3333'
  8	'x-y+.3333, x+.6666, -z+.6666'
  9	'y+.6666, -x+y+.3333, -z+.3333'
 10	'y+.3333, -x+y+.6666, -z+.6666'
 11	'-x+.6666, -y+.3333, -z+.3333'
 12	'-x+.3333, -y+.6666, -z+.6666'
 13	'-x+y+.6666, -x+.3333, z+.3333'
 14	'-x+y+.3333, -x+.6666, z+.6666'
 15	'-y+.6666, x-y+.3333, z+.3333'
 16	'-y+.3333, x-y+.6666, z+.6666'
 17	'x+.6666, y+.3333, z+.3333'
 18	'x+.3333, y+.6666, z+.6666'
loop_
_atom_type_symbol
_atom_type_oxidation_number
B3+	3
Ba2+	2
Li1+	1
Na1+	1
O2-	-2
loop_
_atom_site_label
_atom_site_type_symbol
_atom_site_symmetry_multiplicity
_atom_site_Wyckoff_symbol
_atom_site_fract_x
_atom_site_fract_y
_atom_site_fract_z
_atom_site_occupancy
_atom_site_attached_hydrogens
_atom_site_U_iso_or_equiv
Ba1 Ba2+ 6 c 1.0000 1.0000 0.14758(2) 1 0 0.01344(17) 
Na1 Na1+ 6 c 1.0000 1.0000 0.33130(16) 1 0 0.0187(6) 
Li1 Li1+ 18 f 0.6055(9) 0.8957(9) 0.1136(4) 1 0 0.0178(15) 
B1 B3+ 18 f 0.6807(5) 0.9424(5) 0.2511(2) 1 0 0.0099(9) 
B2 B3+ 18 f 0.8270(5) 1.1370(5) 0.0052(2) 1 0 0.0091(9) 
O1 O2- 18 f 1.2572(3) 1.1753(3) 0.27055(14) 1 0 0.0121(6) 
O2 O2- 18 f 1.2385(3) 1.0349(3) 0.37960(13) 1 0 0.0108(6) 
O3 O2- 18 f 0.7754(3) 0.9779(3) 0.03722(13) 1 0 0.0100(6) 
O4 O2- 18 f 0.6825(3) 0.8484(3) 0.19831(13) 1 0 0.0110(6) 

loop_
_atom_site_aniso_label
_atom_site_aniso_type_symbol
_atom_site_aniso_U_11
_atom_site_aniso_U_22
_atom_site_aniso_U_33
_atom_site_aniso_U_12
_atom_site_aniso_U_13
_atom_site_aniso_U_23
Ba1 Ba2+ 0.01365(19) 0.01365(19) 0.0130(2) 0.00683(10) 0.000 0.000
Na1 Na1+ 0.0164(9) 0.0164(9) 0.0232(15) 0.0082(4) 0.000 0.000
Li1 Li1+ 0.017(4) 0.025(4) 0.015(3) 0.014(3) -0.003(3) 0.000(3)
B1 B3+ 0.014(2) 0.012(2) 0.0078(19) 0.0101(19) 0.0006(17) 0.0044(17)
B2 B3+ 0.010(2) 0.010(2) 0.007(2) 0.0058(18) -0.0020(16) -0.0005(16)
O1 O2- 0.0133(14) 0.0112(14) 0.0115(13) 0.0059(12) -0.0066(11) -0.0022(11)
O2 O2- 0.0125(14) 0.0115(14) 0.0104(12) 0.0075(12) 0.0011(11) 0.0019(11)
O3 O2- 0.0137(14) 0.0101(14) 0.0061(12) 0.0057(11) -0.0020(10) 0.0010(10)
O4 O2- 0.0143(14) 0.0114(13) 0.0080(13) 0.0070(12) -0.0008(11) -0.0023(11)
#End of data_423774-ICSD


