data_1130-ICSD
#?2014 by Fachinformationszentrum Karlsruhe, and the U.S. Secretary of 
#Commerce on behalf of the United States.  All rights reserved.
_database_code_ICSD                1130
_audit_creation_date               1980/01/01
_audit_update_record               2010/02/01
_chemical_name_systematic          'Calcium Chloride Fluoride'
_chemical_formula_structural       'Ca Cl F'
_chemical_formula_sum              'Ca1 Cl1 F1'
_chemical_name_mineral             Rorisite
_publ_section_title
;
Refinement of the Pb F Cl types Ba F I, Ba F Br and Ca F Cl
;
loop_
_citation_id
_citation_journal_abbrev
_citation_year
_citation_journal_volume
_citation_page_first
_citation_page_last
_citation_journal_id_ASTM
primary 'Acta Crystallographica B (24,1968-38,1982)' 1977 33 2790 2794 ACBCAR
_publ_author_name                  'Liebich, W.;Nicollin, D.'
_cell_length_a                     3.894(3)
_cell_length_b                     3.894(3)
_cell_length_c                     6.818(20)
_cell_angle_alpha                  90.
_cell_angle_beta                   90.
_cell_angle_gamma                  90.
_cell_volume                       103.38
_cell_formula_units_Z              2
_symmetry_space_group_name_H-M     'P 4/n m m Z'
_symmetry_Int_Tables_number        129
_refine_ls_R_factor_all            .081
loop_
_symmetry_equiv_pos_site_id
_symmetry_equiv_pos_as_xyz
  1	'y+.5, x+.5, -z'
  2	'-y, x+.5, -z'
  3	'y+.5, -x, -z'
  4	'-y, -x, -z'
  5	'x+.5, y+.5, -z'
  6	'-x, y+.5, -z'
  7	'x+.5, -y, -z'
  8	'-x, -y, -z'
  9	'-y+.5, -x+.5, z'
 10	'y, -x+.5, z'
 11	'-y+.5, x, z'
 12	'y, x, z'
 13	'-x+.5, -y+.5, z'
 14	'x, -y+.5, z'
 15	'-x+.5, y, z'
 16	'x, y, z'
loop_
_atom_type_symbol
_atom_type_oxidation_number
Ca2+	2
Cl1-	-1
F1-	-1
loop_
_atom_site_label
_atom_site_type_symbol
_atom_site_symmetry_multiplicity
_atom_site_Wyckoff_symbol
_atom_site_fract_x
_atom_site_fract_y
_atom_site_fract_z
_atom_site_occupancy
_atom_site_attached_hydrogens
_atom_site_U_iso_or_equiv
Ca1 Ca2+ 2 c 0.25 0.25 0.1962(12) 1. 0 0.0034(12) 
F1 F1- 2 a 0.75 0.25 0 1. 0 0.0034(12) 
Cl1 Cl1- 2 c 0.25 0.25 0.6432(14) 1. 0 0.0070(17) 

#End of data_1130-ICSD


