data_52149-ICSD
#?2014 by Fachinformationszentrum Karlsruhe, and the U.S. Secretary of 
#Commerce on behalf of the United States.  All rights reserved.
_database_code_ICSD                52149
_audit_creation_date               2003/04/01
_chemical_name_systematic          'Calcium Magnesium Carbonate'
_chemical_formula_structural       'Ca Mg (C O3)2'
_chemical_formula_sum              'C2 Ca1 Mg1 O6'
_chemical_name_mineral             Dolomite
_publ_section_title
;
Lattice-dynamical estimation of atomic displacement parameters in 
carbonates: Calcite and aragonite Ca C O3, dolomite Ca Mg (C O3)2, 
and magnesite Mg C O3
;
loop_
_citation_id
_citation_journal_abbrev
_citation_year
_citation_journal_volume
_citation_page_first
_citation_page_last
_citation_journal_id_ASTM
primary 'Acta Crystallographica, Section B: Structural Science'
 1998 54 515 523 ASBSDK
_publ_author_name
;
Pilati, T.;Demartin, F.;Gramaccioli, C.M.
;
_cell_length_a                     4.808(1)
_cell_length_b                     4.808(1)
_cell_length_c                     16.0220(30)
_cell_angle_alpha                  90.
_cell_angle_beta                   90.
_cell_angle_gamma                  120.
_cell_volume                       320.76
_cell_formula_units_Z              3
_symmetry_space_group_name_H-M     'R -3 H'
_symmetry_Int_Tables_number        148
_refine_ls_R_factor_all            .03
loop_
_symmetry_equiv_pos_site_id
_symmetry_equiv_pos_as_xyz
  1	'x-y, x, -z'
  2	'y, -x+y, -z'
  3	'-x, -y, -z'
  4	'-x+y, -x, z'
  5	'-y, x-y, z'
  6	'x, y, z'
  7	'x-y+.6666, x+.3333, -z+.3333'
  8	'x-y+.3333, x+.6666, -z+.6666'
  9	'y+.6666, -x+y+.3333, -z+.3333'
 10	'y+.3333, -x+y+.6666, -z+.6666'
 11	'-x+.6666, -y+.3333, -z+.3333'
 12	'-x+.3333, -y+.6666, -z+.6666'
 13	'-x+y+.6666, -x+.3333, z+.3333'
 14	'-x+y+.3333, -x+.6666, z+.6666'
 15	'-y+.6666, x-y+.3333, z+.3333'
 16	'-y+.3333, x-y+.6666, z+.6666'
 17	'x+.6666, y+.3333, z+.3333'
 18	'x+.3333, y+.6666, z+.6666'
loop_
_atom_type_symbol
_atom_type_oxidation_number
C4+	4
Ca2+	2
Mg2+	2
O2-	-2
loop_
_atom_site_label
_atom_site_type_symbol
_atom_site_symmetry_multiplicity
_atom_site_Wyckoff_symbol
_atom_site_fract_x
_atom_site_fract_y
_atom_site_fract_z
_atom_site_occupancy
_atom_site_attached_hydrogens
Ca1 Ca2+ 3 a 0 0 0 1. 0 
Mg1 Mg2+ 3 b 0 0 0.5 1. 0 
C1 C4+ 6 c 0 0 0.24297(3) 1. 0 
O1 O2- 18 f 0.24772(8) -.03463(8) 0.24407(2) 1. 0 

loop_
_atom_site_aniso_label
_atom_site_aniso_type_symbol
_atom_site_aniso_U_11
_atom_site_aniso_U_22
_atom_site_aniso_U_33
_atom_site_aniso_U_12
_atom_site_aniso_U_13
_atom_site_aniso_U_23
Ca1 Ca2+ 0.0087 0.0087 0.0078 0.00435 0 0
Mg1 Mg2+ 0.0063 0.0063 0.0078 0.00315 0 0
C1 C4+ 0.0070 0.0070 0.0078 0.0035 0 0
O1 O2- 0.0074 0.0123 0.0143 0.0055 -0.0010 -0.0030
#End of data_52149-ICSD


