data_248483-ICSD
#?2014 by Fachinformationszentrum Karlsruhe, and the U.S. Secretary of 
#Commerce on behalf of the United States.  All rights reserved.
_database_code_ICSD                248483
_audit_creation_date               2014/08/01
_chemical_name_systematic          'Calcium Ferrate(IV) - Ht'
_chemical_formula_structural       'Ca Fe O3'
_chemical_formula_sum              'Ca1 Fe1 O3'
_publ_section_title
;
Structural studies of charge disproportionation and magnetic order in 
CaFeO3
;
loop_
_citation_id
_citation_journal_abbrev
_citation_year
_citation_journal_volume
_citation_journal_issue
_citation_page_first
_citation_page_last
_citation_journal_id_ASTM
primary 'Physical Review, Serie 3. B - Condensed Matter (18,1978-)'
 2000 62 2 844 855 PRBMDO
_publ_author_name
;
Woodward, P.M.;Cox, D.E.;Moshopoulou, E.;Sleight, A.W.;Morimoto, S.
;
_cell_length_a                     5.32631(4)
_cell_length_b                     5.35281(4)
_cell_length_c                     7.53987(5)
_cell_angle_alpha                  90.
_cell_angle_beta                   90.
_cell_angle_gamma                  90.
_cell_volume                       214.97
_cell_formula_units_Z              4
_symmetry_space_group_name_H-M     'P b n m'
_symmetry_Int_Tables_number        62
_refine_ls_R_factor_all            .05
loop_
_symmetry_equiv_pos_site_id
_symmetry_equiv_pos_as_xyz
  1	'-x+.5, y+.5, z'
  2	'x, y, -z+.5'
  3	'x+.5, -y+.5, z+.5'
  4	'-x, -y, -z'
  5	'x+.5, -y+.5, -z'
  6	'-x, -y, z+.5'
  7	'-x+.5, y+.5, -z+.5'
  8	'x, y, z'
loop_
_atom_type_symbol
_atom_type_oxidation_number
Ca2+	2
Fe4+	4
O2-	-2
loop_
_atom_site_label
_atom_site_type_symbol
_atom_site_symmetry_multiplicity
_atom_site_Wyckoff_symbol
_atom_site_fract_x
_atom_site_fract_y
_atom_site_fract_z
_atom_site_occupancy
_atom_site_attached_hydrogens
_atom_site_B_iso_or_equiv
Ca1 Ca2+ 4 c 0.9950(3) 0.0328(1) 0.25 1. 0 1.22(2) 
Fe1 Fe4+ 4 b 0 0.5 0 1. 0 0.92(1) 
O1 O2- 8 d 0.7129(4) 0.2858(3) 0.0327(3) 1. 0 1.05(6) 
O2 O2- 4 c 0.0663(6) 0.4908(4) 0.25 1. 0 1.29(4) 

#End of data_248483-ICSD


