data_90153-ICSD
#?2014 by Fachinformationszentrum Karlsruhe, and the U.S. Secretary of 
#Commerce on behalf of the United States.  All rights reserved.
_database_code_ICSD                90153
_audit_creation_date               2002/04/01
_audit_update_record               2005/10/01
_chemical_name_systematic
;
Potassium Catena-hexaselenobismutho(III)diphosphate(V) - Beta
;
_chemical_formula_structural       'K (Bi P2 Se6)'
_chemical_formula_sum              'Bi1 K1 P2 Se6'
_publ_section_title
;
beta-(K M P2 Se6) (M = Sb, Bi): kinetically accessible phases 
obtained from rapid crystallisation of amorphous precursors
;
loop_
_citation_id
_citation_journal_abbrev
_citation_year
_citation_journal_volume
_citation_page_first
_citation_page_last
_citation_journal_id_ASTM
primary 'Journal of the American Chemical Society' 2000 122 7839 7840 JACSAT
_publ_author_name                  'Breshears, J.D.;Kanatzidis, M.G.'
_cell_length_a                     6.9183(1)
_cell_length_b                     7.663(15)
_cell_length_c                     10.239(2)
_cell_angle_alpha                  90.
_cell_angle_beta                   91.508(3)
_cell_angle_gamma                  90.
_cell_volume                       542.63
_cell_formula_units_Z              2
_symmetry_space_group_name_H-M     'P 1 21 1'
_symmetry_Int_Tables_number        4
_refine_ls_R_factor_all            .053
loop_
_symmetry_equiv_pos_site_id
_symmetry_equiv_pos_as_xyz
  1	'-x, y+.5, -z'
  2	'x, y, z'
loop_
_atom_type_symbol
_atom_type_oxidation_number
Bi3+	3
K1+	1
P4+	4
Se2-	-2
loop_
_atom_site_label
_atom_site_type_symbol
_atom_site_symmetry_multiplicity
_atom_site_Wyckoff_symbol
_atom_site_fract_x
_atom_site_fract_y
_atom_site_fract_z
_atom_site_occupancy
_atom_site_attached_hydrogens
Bi1 Bi3+ 2 a 0.7978(1) 0.7110(1) 0.9804(1) 1. 0 
Se1 Se2- 2 a 0.9266(4) 0.0561(3) 0.8207(3) 1. 0 
Se2 Se2- 2 a 0.0610(4) 0.5608(3) 0.8085(3) 1. 0 
Se3 Se2- 2 a 0.6516(3) 0.3696(3) 0.0183(2) 1. 0 
Se4 Se2- 2 a 0.4224(4) 0.1553(3) 0.7367(3) 1. 0 
Se5 Se2- 2 a 0.5812(4) 0.6738(3) 0.7291(3) 1. 0 
Se6 Se2- 2 a 0.8298(4) 0.3832(3) 0.5030(3) 1. 0 
K1 K1+ 2 a 0.3021(9) 0.4556(7) 0.5017(7) 1. 0 
P1 P4+ 2 a 0.6904(9) 0.2508(7) 0.8214(7) 1. 0 
P2 P4+ 2 a 0.7974(9) 0.4703(8) 0.7003(7) 1. 0 

loop_
_atom_site_aniso_label
_atom_site_aniso_type_symbol
_atom_site_aniso_U_11
_atom_site_aniso_U_22
_atom_site_aniso_U_33
_atom_site_aniso_U_12
_atom_site_aniso_U_13
_atom_site_aniso_U_23
Bi1 Bi3+ 0.017(1) 0.010(1) 0.022(1) -.001(1) -.002(1) -.005(1)
Se1 Se2- 0.013(1) 0.008(1) 0.019(2) 0.001(1) -.004(1) -.001(1)
Se2 Se2- 0.011(1) 0.011(1) 0.017(2) -.001(1) -.001(1) -.001(1)
Se3 Se2- 0.016(2) 0.010(1) 0.013(2) -.002(1) 0.000(1) 0.001(1)
Se4 Se2- 0.013(1) 0.011(1) 0.017(2) -.002(1) -.007(1) 0.001(1)
Se5 Se2- 0.016(1) 0.008(2) 0.019(2) 0.003(1) -.006(1) 0.000(1)
Se6 Se2- 0.023(2) 0.016(1) 0.013(2) -.003(1) 0.001(1) -.001(1)
K1 K1+ 0.026(3) 0.018(3) 0.028(4) 0.003(3) 0.000(3) 0.002(3)
P1 P4+ 0.014(4) 0.002(3) 0.015(4) 0.002(2) -.001(3) 0.001(3)
P2 P4+ 0.015(4) 0.005(3) 0.018(4) -.001(3) -.001(3) -.002(3)
#End of data_90153-ICSD


