data_95028-ICSD
#?2014 by Fachinformationszentrum Karlsruhe, and the U.S. Secretary of 
#Commerce on behalf of the United States.  All rights reserved.
_database_code_ICSD                95028
_audit_creation_date               2003/10/01
_audit_update_record               2007/04/01
_chemical_name_systematic
;
Potassium Diholmium Copper(I) Selenide
;
_chemical_formula_structural       'K Ho2 Cu Se4'
_chemical_formula_sum              'Cu1 Ho2 K1 Se4'
_publ_section_title
;
Synthesis and structure of IR-transparent rare-earth selenides K Ln2 
Cu Se4 (Ln = Ho, Er)
;
loop_
_citation_id
_citation_journal_abbrev
_citation_year
_citation_journal_volume
_citation_page_first
_citation_page_last
_citation_journal_id_ASTM
primary 'Journal of Alloys and Compounds' 2002 336 148 153 JALCEU
_publ_author_name
;
Zeng, H.-Y.;Mao, J.-G.;Chen, J.-T.;Dong Zhenchao;Guo, G.-C.;Huang, J.-
S.
;
_cell_length_a                     4.090(2)
_cell_length_b                     13.829(3)
_cell_length_c                     14.234(5)
_cell_angle_alpha                  90
_cell_angle_beta                   90
_cell_angle_gamma                  90
_cell_volume                       805.08
_cell_formula_units_Z              4
_symmetry_space_group_name_H-M     'C m c m'
_symmetry_Int_Tables_number        63
_refine_ls_R_factor_all            .0462
loop_
_symmetry_equiv_pos_site_id
_symmetry_equiv_pos_as_xyz
  1	'-x, y, -z+.5'
  2	'-x, -y, z+.5'
  3	'-x, y, z'
  4	'-x, -y, -z'
  5	'x, -y, z+.5'
  6	'x, y, -z+.5'
  7	'x, -y, -z'
  8	'x, y, z'
  9	'-x+.5, y+.5, -z+.5'
 10	'-x+.5, -y+.5, z+.5'
 11	'-x+.5, y+.5, z'
 12	'-x+.5, -y+.5, -z'
 13	'x+.5, -y+.5, z+.5'
 14	'x+.5, y+.5, -z+.5'
 15	'x+.5, -y+.5, -z'
 16	'x+.5, y+.5, z'
loop_
_atom_type_symbol
_atom_type_oxidation_number
Cu1+	1
Ho3+	3
K1+	1
Se2-	-2
loop_
_atom_site_label
_atom_site_type_symbol
_atom_site_symmetry_multiplicity
_atom_site_Wyckoff_symbol
_atom_site_fract_x
_atom_site_fract_y
_atom_site_fract_z
_atom_site_occupancy
_atom_site_attached_hydrogens
_atom_site_B_iso_or_equiv
Ho1 Ho3+ 8 f 0.5 0.13424(4) -.06436(4) 1. 0 0.691(6) 
Se1 Se2- 4 c 0 0.4365(1) 0.250 1. 0 0.74(2) 
Se2 Se2- 8 f 0.5 0.23400(8) 0.11130(9) 1. 0 0.70(1) 
Se3 Se2- 4 a 0 0 0 1. 0 0.99(2) 
Cu1 Cu1+ 4 c 0.5 0.3397(2) 0.250 1. 0 1.22(3) 
K1 K1+ 4 c 0 0.1129(3) 0.250 1. 0 1.40(6) 

loop_
_atom_site_aniso_label
_atom_site_aniso_type_symbol
_atom_site_aniso_U_11
_atom_site_aniso_U_22
_atom_site_aniso_U_33
_atom_site_aniso_U_12
_atom_site_aniso_U_13
_atom_site_aniso_U_23
Ho1 Ho3+ 0.0075(2) 0.0099(2) 0.0090(2) 0. 0. 0.0003(2)
Se1 Se2- 0.0092(6) 0.0115(6) 0.0076(5) 0. 0. 0.
Se2 Se2- 0.0088(4) 0.0099(4) 0.0081(4) 0. 0. -0.0005(3)
Se3 Se2- 0.0069(5) 0.0119(5) 0.0190(7) 0. 0. 0.0057(6)
Cu1 Cu1+ 0.0139(9) 0.0183(9) 0.0141(9) 0. 0. 0.
K1 K1+ 0.014(1) 0.014(1) 0.025(2) 0. 0. 0.
#End of data_95028-ICSD


