data_17018-ICSD
#?2014 by Fachinformationszentrum Karlsruhe, and the U.S. Secretary of 
#Commerce on behalf of the United States.  All rights reserved.
_database_code_ICSD                17018
_audit_creation_date               1980/01/01
_audit_update_record               2010/08/01
_chemical_name_systematic
;
Cesium Aluminium Beryllium Boron Oxide (1/4/4/12/28)
;
_chemical_formula_structural       'Cs (Al4 Be4 B12 O28)'
_chemical_formula_sum              'Al4 B12 Be4 Cs1 O28'
_chemical_name_mineral             Rhodizite
_publ_section_title
;
Rhodizite. Structure and composition
;
loop_
_citation_id
_citation_journal_abbrev
_citation_year
_citation_journal_volume
_citation_page_first
_citation_page_last
_citation_journal_id_ASTM
primary Science 1966 152 500 502 SCIEAS
_publ_author_name                  'Buerger, M.J.;Taxer, K.J.'
_cell_length_a                     7.319(1)
_cell_length_b                     7.319(1)
_cell_length_c                     7.319(1)
_cell_angle_alpha                  90.
_cell_angle_beta                   90.
_cell_angle_gamma                  90.
_cell_volume                       392.06
_cell_formula_units_Z              1
_symmetry_space_group_name_H-M     'P -4 3 m'
_symmetry_Int_Tables_number        215
_refine_ls_R_factor_all            .091
loop_
_symmetry_equiv_pos_site_id
_symmetry_equiv_pos_as_xyz
  1	'-z, -y, x'
  2	'-y, -x, z'
  3	'-x, -z, y'
  4	'-z, -x, y'
  5	'-y, -z, x'
  6	'-x, -y, z'
  7	'-z, y, -x'
  8	'-y, x, -z'
  9	'-x, z, -y'
 10	'-z, x, -y'
 11	'-y, z, -x'
 12	'-x, y, -z'
 13	'z, -y, -x'
 14	'y, -x, -z'
 15	'x, -z, -y'
 16	'z, -x, -y'
 17	'y, -z, -x'
 18	'x, -y, -z'
 19	'z, y, x'
 20	'y, x, z'
 21	'x, z, y'
 22	'z, x, y'
 23	'y, z, x'
 24	'x, y, z'
loop_
_atom_type_symbol
_atom_type_oxidation_number
Al3+	3
B2.917+	2.917
Be2+	2
Cs1+	1
O2-	-2
loop_
_atom_site_label
_atom_site_type_symbol
_atom_site_symmetry_multiplicity
_atom_site_Wyckoff_symbol
_atom_site_fract_x
_atom_site_fract_y
_atom_site_fract_z
_atom_site_occupancy
_atom_site_attached_hydrogens
_atom_site_B_iso_or_equiv
Cs1 Cs1+ 1 a 0 0 0 1. 0 1.02(4) 
B1 B2.917+ 12 h 0.245(2) 0.5 0 1. 0 0.8(4) 
Be1 Be2+ 4 e 0.755(3) 0.755(3) 0.755(3) 1. 0 1.4(3) 
Al1 Al3+ 4 e 0.3575(5) 0.3575(5) 0.3575(3) 1. 0 0.55(6) 
O1 O2- 4 e 0.6195(9) 0.6195(9) 0.6195(9) 1. 0 0.51(14) 
O2 O2- 12 i 0.3635(6) 0.3635(6) 0.1017(6) 1. 0 0.32(6) 
O3 O2- 12 i 0.1339(8) 0.1339(8) 0.6019(8) 1. 0 0.75(9) 

#End of data_17018-ICSD


