data_72750-ICSD
#?2014 by Fachinformationszentrum Karlsruhe, and the U.S. Secretary of 
#Commerce on behalf of the United States.  All rights reserved.
_database_code_ICSD                72750
_audit_creation_date               1994/01/19
_chemical_name_systematic
;
Cesium Tetrafluoroaluminate - Gamma
;
_chemical_formula_structural       'Cs (Al F4)'
_chemical_formula_sum              'Al1 Cs1 F4'
_publ_section_title
;
Polymorphism of CsAlF4.Synthesis and structure of two new crystalline 
forms
;
loop_
_citation_id
_citation_journal_abbrev
_citation_year
_citation_journal_volume
_citation_page_first
_citation_page_last
_citation_journal_id_ASTM
primary 'European Journal of Solid State Inorganic Chemistry'
 1992 29 371 381 EJSCE5
_publ_author_name
;
Bentrup, U.;Le Bail, A.;Duroy, H.;Fourquet, J.L.
;
_cell_length_a                     10.5576(6)
_cell_length_b                     6.7500(4)
_cell_length_c                     17.5954(9)
_cell_angle_alpha                  90.
_cell_angle_beta                   90.
_cell_angle_gamma                  90.
_cell_volume                       1253.92
_cell_formula_units_Z              12
_symmetry_space_group_name_H-M     'P n m a'
_symmetry_Int_Tables_number        62
_refine_ls_R_factor_all            .039
loop_
_symmetry_equiv_pos_site_id
_symmetry_equiv_pos_as_xyz
  1	'x+.5, y, -z+.5'
  2	'x, -y+.5, z'
  3	'-x+.5, y+.5, z+.5'
  4	'-x, -y, -z'
  5	'-x+.5, -y, z+.5'
  6	'-x, y+.5, -z'
  7	'x+.5, -y+.5, -z+.5'
  8	'x, y, z'
loop_
_atom_type_symbol
_atom_type_oxidation_number
Al3+	3
Cs1+	1
F1-	-1
loop_
_atom_site_label
_atom_site_type_symbol
_atom_site_symmetry_multiplicity
_atom_site_Wyckoff_symbol
_atom_site_fract_x
_atom_site_fract_y
_atom_site_fract_z
_atom_site_occupancy
_atom_site_attached_hydrogens
_atom_site_B_iso_or_equiv
Cs1 Cs1+ 4 c 0.1920(2) 0.25 0.8179(1) 1. 0 1.50(4) 
Cs2 Cs1+ 4 c 0.3776(2) 0.25 0.0413(1) 1. 0 1.57(4) 
Cs3 Cs1+ 4 c 0.0664(2) 0.25 0.2286(1) 1. 0 3.02(5) 
Al1 Al3+ 4 c 0.2626(6) 0.75 0.9208(4) 1. 0 0.63(8) 
Al2 Al3+ 4 a 0 0 0 1. 0 0.63(8) 
Al3 Al3+ 4 c 0.2937(7) 0.25 0.6299(4) 1. 0 0.63(8) 
F1 F1- 8 d 0.2037(6) 0.048(1) 0.6599(4) 1. 0 1.56(7) 
F2 F1- 4 c 0.2900(9) 0.25 0.3257(7) 1. 0 1.56(7) 
F3 F1- 4 c 0.2254(8) 0.25 0.5321(6) 1. 0 1.56(7) 
F4 F1- 4 c 0.4432(9) 0.75 0.5081(6) 1. 0 1.56(7) 
F5 F1- 8 d 0.3686(6) 0.070(1) 0.4415(4) 1. 0 1.56(7) 
F6 F1- 8 d 0.4155(7) 0.435(1) 0.5810(4) 1. 0 1.56(7) 
F7 F1- 4 c 0.3995(9) 0.25 0.7109(6) 1. 0 1.56(7) 
F8 F1- 8 d 0.3684(6) 0.570(1) 0.9144(4) 1. 0 1.56(7) 

#End of data_72750-ICSD


