data_153081-ICSD
#?2014 by Fachinformationszentrum Karlsruhe, and the U.S. Secretary of 
#Commerce on behalf of the United States.  All rights reserved.
_database_code_ICSD                153081
_audit_creation_date               2006/10/01
_chemical_name_systematic          'Dipotassium Tetrafluoroberyllate'
_chemical_formula_structural       'K2 (Be F4)'
_chemical_formula_sum              'Be1 F4 K2'
_publ_section_title
;
Neutron powder diffraction study of A2 Be F4 (A = K, Rb, Cs): 
structure refinement and analysis of background
;
loop_
_citation_id
_citation_journal_abbrev
_citation_year
_citation_journal_volume
_citation_page_first
_citation_page_last
_citation_journal_id_ASTM
primary 'Journal of Solid State Chemistry' 2005 178 1601 1608 JSSCBI
_publ_author_name
;
da Silva, I.;Gonzalez-Silgo, C.;Gonzalez-Platas, J.;Rodriguez 
Carvajal, J.;Martinez-Sarrion, M.L.;Mestres, L.
;
_cell_length_a                     7.2527(3)
_cell_length_b                     5.6272(2)
_cell_length_c                     9.7969(4)
_cell_angle_alpha                  90.
_cell_angle_beta                   90.
_cell_angle_gamma                  90.
_cell_volume                       399.83
_cell_formula_units_Z              4
_symmetry_space_group_name_H-M     'P n m a'
_symmetry_Int_Tables_number        62
_refine_ls_R_factor_all            .0473
loop_
_symmetry_equiv_pos_site_id
_symmetry_equiv_pos_as_xyz
  1	'x+.5, y, -z+.5'
  2	'x, -y+.5, z'
  3	'-x+.5, y+.5, z+.5'
  4	'-x, -y, -z'
  5	'-x+.5, -y, z+.5'
  6	'-x, y+.5, -z'
  7	'x+.5, -y+.5, -z+.5'
  8	'x, y, z'
loop_
_atom_type_symbol
_atom_type_oxidation_number
Be2+	2
F1-	-1
K1+	1
loop_
_atom_site_label
_atom_site_type_symbol
_atom_site_symmetry_multiplicity
_atom_site_Wyckoff_symbol
_atom_site_fract_x
_atom_site_fract_y
_atom_site_fract_z
_atom_site_occupancy
_atom_site_attached_hydrogens
_atom_site_U_iso_or_equiv
K1 K1+ 4 c 0.1613(5) 0.250 0.0937(6) 1. 0 0.0018(7) 
K2 K1+ 4 c -0.0170(9) 0.250 0.6952(6) 1. 0 0.0150(12) 
Be1 Be2+ 4 c 0.2352(3) 0.250 0.4227(4) 1. 0 0.0063(4) 
F1 F1- 8 d 0.3077(4) 0.0247(5) 0.3466(3) 1. 0 0.0121(5) 
F2 F1- 4 c 0.0210(4) 0.250 0.4136(4) 1. 0 0.0093(6) 
F3 F1- 4 c 0.3089(7) 0.250 0.5684(5) 1. 0 0.0145(9) 

#End of data_153081-ICSD


