data_100320-ICSD
#?2014 by Fachinformationszentrum Karlsruhe, and the U.S. Secretary of 
#Commerce on behalf of the United States.  All rights reserved.
_database_code_ICSD                100320
_audit_creation_date               1980/01/01
_audit_update_record               1997/11/10
_chemical_name_systematic
;
Calcium Dialuminium Tetrahydroxide Silicate
;
_chemical_formula_structural       'Ca Al2 (O H)4 Si O4'
_chemical_formula_sum              'H4 Al2 Ca1 O8 Si1'
_chemical_name_mineral             Chantalite
_publ_section_title
;
The crystal structure of Chantalite, Ca Al2 (O H)4 Si O4
;
loop_
_citation_id
_citation_journal_abbrev
_citation_year
_citation_journal_volume
_citation_page_first
_citation_page_last
_citation_journal_id_ASTM
primary 'Zeitschrift fuer Kristallographie (1979-2010)' 1979 150 53 63 ZEKRDZ
_publ_author_name                  'Liebich, B.W.;Sarp, H.;Parthe, E.'
_cell_length_a                     4.952(1)
_cell_length_b                     4.952(1)
_cell_length_c                     23.2750(60)
_cell_angle_alpha                  90.
_cell_angle_beta                   90.
_cell_angle_gamma                  90.
_cell_volume                       570.76
_cell_formula_units_Z              4
_symmetry_space_group_name_H-M     'I 41/a Z'
_symmetry_Int_Tables_number        88
_refine_ls_R_factor_all            .048
loop_
_symmetry_equiv_pos_site_id
_symmetry_equiv_pos_as_xyz
  1	'-y+.75, x+.75, -z+.75'
  2	'y+.25, -x+.75, -z+.75'
  3	'x, y+.5, -z'
  4	'-x, -y, -z'
  5	'y+.25, -x+.25, z+.25'
  6	'-y+.75, x+.25, z+.25'
  7	'-x, -y+.5, z'
  8	'x, y, z'
  9	'-y+.25, x+.25, -z+.25'
 10	'y+.75, -x+.25, -z+.25'
 11	'x+.5, y, -z+.5'
 12	'-x+.5, -y+.5, -z+.5'
 13	'y+.75, -x+.75, z+.75'
 14	'-y+.25, x+.75, z+.75'
 15	'-x+.5, -y, z+.5'
 16	'x+.5, y+.5, z+.5'
loop_
_atom_type_symbol
_atom_type_oxidation_number
Al3+	3
Ca2+	2
H1+	1
O2-	-2
Si4+	4
loop_
_atom_site_label
_atom_site_type_symbol
_atom_site_symmetry_multiplicity
_atom_site_Wyckoff_symbol
_atom_site_fract_x
_atom_site_fract_y
_atom_site_fract_z
_atom_site_occupancy
_atom_site_attached_hydrogens
_atom_site_U_iso_or_equiv
Ca1 Ca2+ 4 b 0 0.25 0.625 1. 0 0 
Al1 Al3+ 8 e 0 0.25 0.4653(1) 1. 0 0 
Si1 Si4+ 4 a 0 0.25 0.125 1. 0 0 
O1 O2- 16 f 0.1310(6) 0.4967(6) 0.1631(1) 1. 0 0 
O2 O2- 16 f 0.1891(6) 0.9219(6) 0.4703(1) 1. 0 0 
H1 H1+ 16 f 0.39 0.97 0.46 1. 0 0.015 

loop_
_atom_site_aniso_label
_atom_site_aniso_type_symbol
_atom_site_aniso_U_11
_atom_site_aniso_U_22
_atom_site_aniso_U_33
_atom_site_aniso_U_12
_atom_site_aniso_U_13
_atom_site_aniso_U_23
Ca1 Ca2+ 0.010(1) 0.010(1) 0.008(1) 0 0 0
Al1 Al3+ 0.010(1) 0.006(1) 0.008(1) 0.001(1) 0 0
Si1 Si4+ 0.006(1) 0.006(1) 0.010(2) 0 0 0
O1 O2- 0.007(2) 0.010(2) 0.011(2) -.001(1) 0.000(1) 0.005(1)
O2 O2- 0.011(2) 0.007(2) 0.005(2) 0.001(1) 0.000(1) 0.001(1)
#End of data_100320-ICSD


