data_39709-ICSD
#?2014 by Fachinformationszentrum Karlsruhe, and the U.S. Secretary of 
#Commerce on behalf of the United States.  All rights reserved.
_database_code_ICSD                39709
_audit_creation_date               1994/06/30
_audit_update_record               2012/08/01
_chemical_name_systematic
;
Triammonium Calcium Triphosphate Dihydrate
;
_chemical_formula_structural       '(N H4)3 Ca P3 O10 (H2 O)2'
_chemical_formula_sum              'H16 Ca1 N3 O12 P3'
_publ_section_title
;
Crystal structure of ammonium-calcium triphosphate dihydrate 
(NH4)3CaP3O10*2H2O
;
loop_
_citation_id
_citation_journal_abbrev
_citation_year
_citation_journal_volume
_citation_page_first
_citation_page_last
_citation_journal_id_ASTM
primary 'Zhurnal Neorganicheskoi Khimii' 1993 38 1264 1269 ZNOKAQ
_publ_author_name
;
Lyakhov, A.S.;Lyutsko, V.A.;Galkova, T.N.;Palkina, K.K.
;
_cell_length_a                     6.962(2)
_cell_length_b                     18.824(2)
_cell_length_c                     10.529(2)
_cell_angle_alpha                  90.
_cell_angle_beta                   102.76(2)
_cell_angle_gamma                  90.
_cell_volume                       1345.78
_cell_formula_units_Z              4
_symmetry_space_group_name_H-M     'P 1 21/n 1'
_symmetry_Int_Tables_number        14
_refine_ls_R_factor_all            .0247
loop_
_symmetry_equiv_pos_site_id
_symmetry_equiv_pos_as_xyz
  1	'-x+.5, y+.5, -z+.5'
  2	'-x, -y, -z'
  3	'x+.5, -y+.5, z+.5'
  4	'x, y, z'
loop_
_atom_type_symbol
_atom_type_oxidation_number
Ca2+	2
H1+	1
N3-	-3
O2-	-2
P5+	5
loop_
_atom_site_label
_atom_site_type_symbol
_atom_site_symmetry_multiplicity
_atom_site_Wyckoff_symbol
_atom_site_fract_x
_atom_site_fract_y
_atom_site_fract_z
_atom_site_occupancy
_atom_site_attached_hydrogens
_atom_site_B_iso_or_equiv
Ca1 Ca2+ 4 e 0.0980(1) 0.3201 0.5118 1. 0 1.05 
P1 P5+ 4 e 0.1100(1) 0.2073 0.0866(1) 1. 0 1.23 
P2 P5+ 4 e -.0784(1) 0.1762 0.3043(1) 1. 0 1.12 
P3 P5+ 4 e -.2228(1) 0.0334 0.2286(1) 1. 0 1.22 
O1 O2- 4 e -.1349(3) 0.0972(1) 0.3326(2) 1. 0 1.58 
O2 O2- 4 e -.2556(3) 0.2137(1) 0.2274(2) 1. 0 1.54 
O3 O2- 4 e -.3752(3) -.0014(1) 0.2900(2) 1. 0 1.98 
O4 O2- 4 e -.3097(3) 0.0686(1) 0.0996(2) 1. 0 1.63 
O5 O2- 4 e 0.2868(3) 0.1696(1) 0.0573(2) 1. 0 1.97 
O6 O2- 4 e 0.0791(3) 0.1646(1) 0.2170(2) 1. 0 1.79 
O7 O2- 4 e -.0767(3) 0.1963(1) -.0155(2) 1. 0 1.78 
O8 O2- 4 e 0.0244(3) 0.2070(1) 0.4309(2) 1. 0 1.95 
O9 O2- 4 e 0.1465(3) 0.2839(1) 0.1251(2) 1. 0 1.88 
O10 O2- 4 e -.0493(3) -.0137(1) 0.2260(2) 1. 0 2.1 
O11 O2- 4 e 0.0063(4) 0.3661(1) 0.2983(2) 1. 0 2.5 
H1 H1+ 4 e -.455(6) 0.157(2) -.254(4) 1. 0 4. 
H2 H1+ 4 e 0.471(7) 0.096(2) -.232(4) 1. 0 3.(1) 
O12 O2- 4 e 0.2848(5) 0.0051(3) 0.4384(3) 1. 0 5.3(1) 
H3 H1+ 4 e -.204(8) 0.048(3) 0.583(5) 1. 0 7.(1) 
H4 H1+ 4 e 0.291(7) -.006(3) 0.450(5) 1. 0 10.(1) 
N1 N3- 4 e 0.4527(6) 0.1381(2) 0.4096(4) 1. 0 4.2(1) 
H5 H1+ 4 e -.410(6) -.097(2) 0.530(4) 1. 0 0.7(8) 
H6 H1+ 4 e 0.461(8) -.153(3) 0.499(5) 1. 0 8.(1) 
H7 H1+ 4 e 0.486(8) -.135(3) 0.665(5) 1. 0 12.(1) 
H8 H1+ 4 e -.344(8) -.173(3) 0.583(5) 1. 0 15.(1) 
N2 N3- 4 e 0.0190(4) 0.1601(2) 0.7461(3) 1. 0 2.1(1) 
H9 H1+ 4 e -.462(6) 0.395(2) 0.240(4) 1. 0 4.(1) 
H10 H1+ 4 e 0.424(7) 0.329(2) 0.188(4) 1. 0 5.(1) 
H11 H1+ 4 e 0.490(7) 0.329(2) 0.327(5) 1. 0 6.(1) 
H12 H1+ 4 e -.379(8) 0.316(3) 0.226(5) 1. 0 6.(1) 
N3 N3- 4 e 0.2582(4) 0.0204(2) 0.1098(3) 1. 0 2.0(1) 
H13 H1+ 4 e 0.255(6) 0.070(2) 0.083(4) 1. 0 3.(1) 
H14 H1+ 4 e 0.152(7) 0.011(2) 0.142(4) 1. 0 4.(1) 
H15 H1+ 4 e 0.262(6) -.009(2) 0.040(4) 1. 0 3.(1) 
H16 H1+ 4 e 0.366(7) 0.014(2) 0.171(4) 1. 0 4.(1) 

#End of data_39709-ICSD


