data_172890-ICSD
#?2014 by Fachinformationszentrum Karlsruhe, and the U.S. Secretary of 
#Commerce on behalf of the United States.  All rights reserved.
_database_code_ICSD                172890
_audit_creation_date               2008/02/01
_chemical_name_systematic
;
Tetrapotassium Tris(neptunyl) Heptachloride Tetrahydrate
;
_chemical_formula_structural       'K4 (Np O2)3 Cl7 (H2 O)4'
_chemical_formula_sum              'H8 Cl7 K4 Np3 O10'
_publ_section_title
;
The role of cation-cation interactions in a neptunyl chloride hydrate 
and topological aspects of neptunyl structural units
;
loop_
_citation_id
_citation_journal_abbrev
_citation_year
_citation_journal_volume
_citation_journal_issue
_citation_page_first
_citation_page_last
_citation_journal_id_ASTM
primary 'Journal of Solid State Chemistry' 2007 180 1 106 112 JSSCBI
_publ_author_name                  'Forbes, T.Z.;Burns, P.C.'
_cell_length_a                     8.8822(13)
_cell_length_b                     12.0817(17)
_cell_length_c                     12.4026(17)
_cell_angle_alpha                  65.855(2)
_cell_angle_beta                   69.604(2)
_cell_angle_gamma                  74.432(2)
_cell_volume                       1125.98
_cell_formula_units_Z              2
_symmetry_space_group_name_H-M     'P -1'
_symmetry_Int_Tables_number        2
_refine_ls_R_factor_all            .0979
loop_
_symmetry_equiv_pos_site_id
_symmetry_equiv_pos_as_xyz
  1	'-x, -y, -z'
  2	'x, y, z'
loop_
_atom_type_symbol
_atom_type_oxidation_number
Cl1-	-1
H1+	1
K1+	1
Np5+	5
O2-	-2
loop_
_atom_site_label
_atom_site_type_symbol
_atom_site_symmetry_multiplicity
_atom_site_Wyckoff_symbol
_atom_site_fract_x
_atom_site_fract_y
_atom_site_fract_z
_atom_site_occupancy
_atom_site_attached_hydrogens
_atom_site_U_iso_or_equiv
Np1 Np5+ 2 i 0.40082(4) 0.07214(3) 0.83213(3) 1 0 0.01513(8) 
Np2 Np5+ 2 i 0.26820(4) 0.24700(4) 0.49267(4) 1 0 0.01753(7) 
Np3 Np5+ 2 i 0.10075(4) 0.42875(3) 0.16945(3) 1 0 0.01512(8) 
K1 K1+ 2 i 0.0526(2) 0.7803(2) 0.1298(2) 1 0 0.0331(5) 
K2 K1+ 2 i 0.5505(2) 0.2825(2) 0.1470(2) 1 0 0.0361(5) 
K3 K1+ 2 i 0.6417(2) 0.60441(19) 0.1671(2) 1 0 0.0339(5) 
K4 K1+ 2 i 0.1142(3) 0.0614(2) 0.2499(3) 1 0 0.0558(7) 
Cl1 Cl1- 2 i -0.1237(3) 0.3907(2) 0.0733(2) 1 0 0.0252(5) 
Cl2 Cl1- 2 i 0.3681(3) -0.1056(2) 1.0747(2) 1 0 0.0297(6) 
Cl3 Cl1- 2 i 0.1574(3) -0.0519(2) 0.8595(2) 1 0 0.0273(5) 
Cl4 Cl1- 2 i 0.3420(3) 0.5593(2) 0.1294(2) 1 0 0.0277(6) 
Cl5 Cl1- 2 i 0.1847(3) 0.0308(2) 0.5122(2) 1 0 0.0335(5) 
Cl6 Cl1- 2 i 0.5522(3) 0.3595(2) 0.3981(2) 1 0 0.0309(5) 
Cl7 Cl1- 2 i -0.0701(3) 0.2625(3) 0.6088(2) 1 0 0.0379(6) 
O1 O2- 2 i 0.2479(7) 0.3197(6) 0.1041(6) 1 0 0.0238(15) 
O2 O2- 2 i 0.2513(7) 0.1810(6) 0.8927(6) 1 0 0.0270(16) 
O3 O2- 2 i -0.0513(7) 0.5380(6) 0.2330(6) 1 0 0.0259(16) 
O4 O2- 2 i 0.5540(7) -0.0368(6) 0.7701(6) 1 0 0.0255(16) 
O5 O2- 2 i 0.2181(7) 0.3236(6) 0.3441(5) 1 0 0.0252(15) 
O6 O2- 2 i 0.5508(7) 0.2547(7) 0.6817(6) 1 0 0.0284(16) 
O7 O2- 2 i -0.0618(7) 0.2589(7) 0.3347(6) 1 0 0.0297(16) 
O8 O2- 2 i 0.3182(7) 0.1735(6) 0.6398(6) 1 0 0.0316(17) 
O9 O2- 2 i 0.5084(7) 0.1246(6) 0.3891(6) 1 0 0.0289(14) 
O10 O2- 2 i 0.1860(8) 0.4443(6) 0.5312(6) 1 0 0.0394(17) 
H1 H1+ 2 i 0.659(5) 0.246(9) 0.687(9) 1 0 0.050 
H2 H1+ 2 i -0.171(5) 0.282(9) 0.379(8) 1 0 0.050 
H3 H1+ 2 i 0.480(12) 0.049(5) 0.401(9) 1 0 0.050 
H4 H1+ 2 i 0.099(8) 0.441(9) 0.505(9) 1 0 0.050 
H5 H1+ 2 i 0.526(12) 0.207(3) 0.361(9) 1 0 0.050 
H6 H1+ 2 i 0.019(8) 0.309(7) 0.315(9) 1 0 0.050 
H7 H1+ 2 i 0.187(11) 0.443(9) 0.612(6) 1 0 0.050 
H8 H1+ 2 i 0.543(11) 0.282(9) 0.600(4) 1 0 0.050 

loop_
_atom_site_aniso_label
_atom_site_aniso_type_symbol
_atom_site_aniso_U_11
_atom_site_aniso_U_22
_atom_site_aniso_U_33
_atom_site_aniso_U_12
_atom_site_aniso_U_13
_atom_site_aniso_U_23
Np1 Np5+ 0.01642(15) 0.0171(2) 0.01382(18) -0.00154(13) -0.00638(13) 
-0.00593(16)
Np2 Np5+ 0.01843(16) 0.02239(15) 0.01213(15) -0.00381(13) -0.00703(12) 
-0.00348(12)
Np3 Np5+ 0.01657(15) 0.0171(2) 0.01316(18) -0.00052(13) -0.00647(13) 
-0.00592(16)
K1 K1+ 0.0308(10) 0.0306(13) 0.0380(13) -0.0050(9) -0.0116(9) -0.0096(11)
K2 K1+ 0.0295(10) 0.0370(14) 0.0337(13) -0.0041(9) -0.0082(9) -0.0054(11)
K3 K1+ 0.0354(11) 0.0324(11) 0.0409(13) -0.0063(9) -0.0109(9) -0.0183(10)
K4 K1+ 0.0365(12) 0.0645(18) 0.083(2) -0.0005(12) -0.0191(13) -0.0443(17)
Cl1 Cl1- 0.0286(11) 0.0286(14) 0.0194(12) -0.0098(10) -0.0115(9) 
-0.0018(11)
Cl2 Cl1- 0.0352(12) 0.0344(16) 0.0221(13) -0.0197(11) -0.0158(10) 
0.0033(12)
Cl3 Cl1- 0.0276(11) 0.0275(14) 0.0302(14) -0.0104(10) -0.0101(10) 
-0.0075(12)
Cl4 Cl1- 0.0258(11) 0.0292(14) 0.0291(14) -0.0078(10) -0.0121(10) 
-0.0050(11)
Cl5 Cl1- 0.0331(12) 0.0373(14) 0.0361(14) -0.0136(10) -0.0087(10) 
-0.0140(12)
Cl6 Cl1- 0.0287(11) 0.0330(13) 0.0284(13) -0.0118(10) -0.0058(9) 
-0.0054(10)
Cl7 Cl1- 0.0225(11) 0.0564(17) 0.0297(14) -0.0051(11) -0.0014(10) 
-0.0151(13)
O1 O2- 0.021(3) 0.029(4) 0.027(4) 0.001(3) -0.008(3) -0.016(3)
O2 O2- 0.025(3) 0.023(4) 0.038(4) 0.000(3) -0.015(3) -0.012(4)
O3 O2- 0.025(3) 0.028(4) 0.029(4) 0.001(3) -0.007(3) -0.018(3)
O4 O2- 0.024(3) 0.030(4) 0.027(4) 0.005(3) -0.012(3) -0.015(3)
O5 O2- 0.029(3) 0.030(4) 0.012(3) -0.008(3) -0.014(3) 0.006(3)
O6 O2- 0.030(3) 0.042(4) 0.012(3) -0.014(3) -0.011(3) 0.001(3)
O7 O2- 0.028(3) 0.035(4) 0.031(4) -0.016(3) -0.007(3) -0.009(3)
O8 O2- 0.036(4) 0.043(5) 0.017(4) -0.020(3) -0.011(3) 0.001(3)
O9 O2- 0.032(3) 0.025(4) 0.029(4) -0.004(3) -0.004(3) -0.013(3)
O10 O2- 0.050(4) 0.040(4) 0.030(4) -0.006(4) -0.008(3) -0.017(4)
#End of data_172890-ICSD


