data_94134-ICSD
#?2014 by Fachinformationszentrum Karlsruhe, and the U.S. Secretary of 
#Commerce on behalf of the United States.  All rights reserved.
_database_code_ICSD                94134
_audit_creation_date               2003/10/01
_chemical_name_systematic          'Dicalcium Cobalt Disilicate - Ht'
_chemical_formula_structural       'Ca2 Co (Si2 O7)'
_chemical_formula_sum              'Ca2 Co1 O7 Si2'
_chemical_name_mineral             'Akermanite, cobaltian'
_publ_section_title
;
Determination of structures of Ca2 Co Si2 O7, Ca2 Mg Si2 O7 and Ca2 
(Mg0.55 Fe0.45) Si2 O7 in incommensurate and normal phases and 
observation of diffuse streaks at high temperature
;
loop_
_citation_id
_citation_journal_abbrev
_citation_year
_citation_journal_volume
_citation_page_first
_citation_page_last
_citation_journal_id_ASTM
primary 'Physics and Chemistry of Minerals' 2001 28 150 166 PCMIDU
_publ_author_name
;
Kusaka, K.;Hagiya, K.;Ohmasa, M.;Okano, Y.;Mukai, M.;Iishi, K.;Haga, 
N.
;
_cell_length_a                     7.8590(4)
_cell_length_b                     7.8590(4)
_cell_length_c                     5.0260(3)
_cell_angle_alpha                  90
_cell_angle_beta                   90
_cell_angle_gamma                  90
_cell_volume                       310.43
_cell_formula_units_Z              2
_symmetry_space_group_name_H-M     'P -4 21 m'
_symmetry_Int_Tables_number        113
_refine_ls_R_factor_all            .047
loop_
_symmetry_equiv_pos_site_id
_symmetry_equiv_pos_as_xyz
  1	'-y+.5, -x+.5, z'
  2	'y, -x, -z'
  3	'y+.5, x+.5, z'
  4	'-y, x, -z'
  5	'x+.5, -y+.5, -z'
  6	'-x, -y, z'
  7	'-x+.5, y+.5, -z'
  8	'x, y, z'
loop_
_atom_type_symbol
_atom_type_oxidation_number
Ca2+	2
Co2+	2
O2-	-2
Si4+	4
loop_
_atom_site_label
_atom_site_type_symbol
_atom_site_symmetry_multiplicity
_atom_site_Wyckoff_symbol
_atom_site_fract_x
_atom_site_fract_y
_atom_site_fract_z
_atom_site_occupancy
_atom_site_attached_hydrogens
_atom_site_B_iso_or_equiv
Co1 Co2+ 2 a 0 0 0 1. 0 1.02(2) 
Ca1 Ca2+ 4 e 0.3316(1) 0.1684(1) 0.5050(3) 1. 0 1.76(2) 
Si1 Si4+ 4 e 0.1392(1) 0.3608(1) 0.9364(3) 1. 0 0.84(2) 
O1 O2- 2 c 0 0.5 0.822(1) 1. 0 2.5(1) 
O2 O2- 4 e 0.1404(5) 0.3596(5) 0.2540(8) 1. 0 2.0(1) 
O3 O2- 8 f 0.0812(6) 0.1889(4) 0.7851(7) 1. 0 2.3(1) 

#End of data_94134-ICSD


