data_72931-ICSD
#?2014 by Fachinformationszentrum Karlsruhe, and the U.S. Secretary of 
#Commerce on behalf of the United States.  All rights reserved.
_database_code_ICSD                72931
_audit_creation_date               1994/06/30
_audit_update_record               2006/04/01
_chemical_name_systematic          'Dipotassium Tetrabromozincate'
_chemical_formula_structural       'K2 (Zn Br4)'
_chemical_formula_sum              'Br4 K2 Zn1'
_publ_section_title
;
Structure determination of K2 Zn Br4 at 291 and 144 K
;
loop_
_citation_id
_citation_journal_abbrev
_citation_year
_citation_journal_volume
_citation_page_first
_citation_page_last
_citation_journal_id_ASTM
primary 'Acta Crystallographica, Section C: Crystal Structure Communications'
 1993 49 946 950 ACSCEE
2 'Acta Crystallographica, Section B: Structural Science'
 1994 50 257 258 ASBSDK
3 'Golden Book of Phase Transitions, Wroclaw' 2002 1 1 123 GBOPT5
_publ_author_name
;
Fabry, J.;Breczewski, T.;Zuniga, F.J.;Amaiz, A.R.
;
_cell_length_a                     7.204(3)
_cell_length_b                     7.413(4)
_cell_length_c                     9.028(5)
_cell_angle_alpha                  90.
_cell_angle_beta                   108.67(3)
_cell_angle_gamma                  90.
_cell_volume                       456.75
_cell_formula_units_Z              2
_symmetry_space_group_name_H-M     'P 1 21 1'
_symmetry_Int_Tables_number        4
_refine_ls_R_factor_all            .048
loop_
_symmetry_equiv_pos_site_id
_symmetry_equiv_pos_as_xyz
  1	'-x, y+.5, -z'
  2	'x, y, z'
loop_
_atom_type_symbol
_atom_type_oxidation_number
Br1-	-1
K1+	1
Zn2+	2
loop_
_atom_site_label
_atom_site_type_symbol
_atom_site_symmetry_multiplicity
_atom_site_Wyckoff_symbol
_atom_site_fract_x
_atom_site_fract_y
_atom_site_fract_z
_atom_site_occupancy
_atom_site_attached_hydrogens
K1 K1+ 2 a 0.7748(5) 0.245(1) 0.5726(4) 1. 0 
K2 K1+ 2 a 0.7087(5) 0.245(1) 0.0467(4) 1. 0 
Zn1 Zn2+ 2 a 0.2804(2) 0.2573(6) 0.2050(2) 1. 0 
Br1 Br1- 2 a 0.1029(2) 0.2691(6) -.0693(2) 1. 0 
Br2 Br1- 2 a 0.0769(2) 0.2656(7) 0.3676(2) 1. 0 
Br3 Br1- 2 a 0.4929(4) 0.99821 0.2618(3) 1. 0 
Br4 Br1- 2 a 0.5093(4) 0.5046(3) 0.2681(3) 1. 0 

loop_
_atom_site_aniso_label
_atom_site_aniso_type_symbol
_atom_site_aniso_U_11
_atom_site_aniso_U_22
_atom_site_aniso_U_33
_atom_site_aniso_U_12
_atom_site_aniso_U_13
_atom_site_aniso_U_23
K1 K1+ 0.0334(16) 0.0499(25) 0.0214(15) 0.0032(32) 0.0093(13) -0.0002(31)
K2 K1+ 0.0316(16) 0.0521(26) 0.0203(14) 0.0006(31) 0.0068(12) 0.0102(30)
Zn1 Zn2+ 0.0243(8) 0.0294(8) 0.0220(7) 0.0016(15) 0.0080(6) 0.0027(15)
Br1 Br1- 0.0333(8) 0.0679(14) 0.0190(7) -0.0054(16) 0.0048(6) -0.0015(15)
Br2 Br1- 0.0259(7) 0.0781(13) 0.0229(7) -0.0078(17) 0.0097(6) -0.0044(17)
Br3 Br1- 0.0378(14) 0.0289(13) 0.0323(15) 0.0064(12) 0.0072(11) 0.0014(12)
Br4 Br1- 0.0270(11) 0.0200(11) 0.0257(13) 0.003(1) 0.0077(9) 0.0005(10)
#End of data_72931-ICSD


