data_602243-ICSD
#?2014 by Fachinformationszentrum Karlsruhe, and the U.S. Secretary of 
#Commerce on behalf of the United States.  All rights reserved.
_database_code_ICSD                602243
_audit_creation_date               2011/02/01
_chemical_name_systematic          'Rubidium Zinc Sulfide (2/3/4)'
_chemical_formula_structural       'Rb2 Zn3 S4'
_chemical_formula_sum              'Rb2 S4 Zn3'
_publ_section_title
;
Darstellung und Kristallstruktur von Cs2 Zn3 S4 und Rb2 Zn3 S4
;
loop_
_citation_id
_citation_journal_abbrev
_citation_year
_citation_journal_volume
_citation_page_first
_citation_page_last
_citation_journal_id_ASTM
primary 'Revue de Chimie Minerale' 1980 17 555 560 RVCMA8
_publ_author_name                  'Bronger, W.;Hendriks, U.'
_cell_length_a                     5.742(2)
_cell_length_b                     11.043(3)
_cell_length_c                     13.474(5)
_cell_angle_alpha                  90.0
_cell_angle_beta                   90.0
_cell_angle_gamma                  90.0
_cell_volume                       854.37
_cell_formula_units_Z              4
_symmetry_space_group_name_H-M     'I b a m'
_symmetry_Int_Tables_number        72
loop_
_symmetry_equiv_pos_site_id
_symmetry_equiv_pos_as_xyz
  1	'-x, y, z+.5'
  2	'x, -y, z+.5'
  3	'x, y, -z'
  4	'-x, -y, -z'
  5	'x, -y, -z+.5'
  6	'-x, y, -z+.5'
  7	'-x, -y, z'
  8	'x, y, z'
  9	'-x+.5, y+.5, z'
 10	'x+.5, -y+.5, z'
 11	'x+.5, y+.5, -z+.5'
 12	'-x+.5, -y+.5, -z+.5'
 13	'x+.5, -y+.5, -z'
 14	'-x+.5, y+.5, -z'
 15	'-x+.5, -y+.5, z+.5'
 16	'x+.5, y+.5, z+.5'
loop_
_atom_type_symbol
_atom_type_oxidation_number
Rb1+	1
S2-	-2
Zn2+	2
loop_
_atom_site_label
_atom_site_type_symbol
_atom_site_symmetry_multiplicity
_atom_site_Wyckoff_symbol
_atom_site_fract_x
_atom_site_fract_y
_atom_site_fract_z
_atom_site_occupancy
_atom_site_attached_hydrogens
Rb1 Rb1+ 8 j 0.232 0.119 0 1. 0 
Zn1 Zn2+ 4 b 0.5 0 0.25 1. 0 
Zn2 Zn2+ 8 g 0 0.224 0.25 1. 0 
S1 S2- 16 k 0.218 0.367 0.156 1. 0 

#End of data_602243-ICSD


