data_201980-ICSD
#?2014 by Fachinformationszentrum Karlsruhe, and the U.S. Secretary of 
#Commerce on behalf of the United States.  All rights reserved.
_database_code_ICSD                201980
_audit_creation_date               1988/12/19
_chemical_name_systematic          'Lithium Molybdenum Oxide (1/8/10)'
_chemical_formula_structural       'Li Mo8 O10'
_chemical_formula_sum              'Li1 Mo8 O10'
_publ_section_title
;
Synthesis and structure of ternary molybdenum oxides M Mo8 O10 (M=Li 
or Zn) having orthogonal nonintersecting octahedral cluster chains
;
loop_
_citation_id
_citation_journal_abbrev
_citation_year
_citation_journal_volume
_citation_page_first
_citation_page_last
_citation_journal_id_ASTM
primary 'Journal of Solid State Chemistry' 1986 64 347 358 JSSCBI
_publ_author_name
;
Lii, K.-H.;McCarley, R.E.;Kim, S.;Jacobson, R.A.
;
_cell_length_a                     5.8515(6)
_cell_length_b                     5.8515(6)
_cell_length_c                     24.783(3)
_cell_angle_alpha                  90.
_cell_angle_beta                   90.
_cell_angle_gamma                  90.
_cell_volume                       848.57
_cell_formula_units_Z              4
_symmetry_space_group_name_H-M     'I 41 m d'
_symmetry_Int_Tables_number        109
_refine_ls_R_factor_all            .042
loop_
_symmetry_equiv_pos_site_id
_symmetry_equiv_pos_as_xyz
  1	'y, -x+.5, z+.25'
  2	'-y, x+.5, z+.25'
  3	'x, -y, z'
  4	'-x, y, z'
  5	'-y, -x+.5, z+.25'
  6	'y, x+.5, z+.25'
  7	'-x, -y, z'
  8	'x, y, z'
  9	'y+.5, -x, z+.75'
 10	'-y+.5, x, z+.75'
 11	'x+.5, -y+.5, z+.5'
 12	'-x+.5, y+.5, z+.5'
 13	'-y+.5, -x, z+.75'
 14	'y+.5, x, z+.75'
 15	'-x+.5, -y+.5, z+.5'
 16	'x+.5, y+.5, z+.5'
loop_
_atom_type_symbol
_atom_type_oxidation_number
Li1+	1
Mo2.37+	2.37
O2-	-2
loop_
_atom_site_label
_atom_site_type_symbol
_atom_site_symmetry_multiplicity
_atom_site_Wyckoff_symbol
_atom_site_fract_x
_atom_site_fract_y
_atom_site_fract_z
_atom_site_occupancy
_atom_site_attached_hydrogens
_atom_site_B_iso_or_equiv
Mo1 Mo2.37+ 8 b 0.5 0.2262(2) 0 1. 0 0.56 
Mo2 Mo2.37+ 8 b 0 0.2353(3) 0.00429(6) 1. 0 0.64 
Mo3 Mo2.37+ 8 b 0 0.2480(3) 0.32808(7) 1. 0 0.96 
Mo4 Mo2.37+ 8 b 0 0.2760(2) 0.17549(6) 1. 0 0.63 
O1 O2- 8 b 0.5 0.246(2) 0.250(1) 1. 0 0.59 
O2 O2- 8 b 0.5 0.239(2) 0.0811(7) 1. 0 0.48 
O3 O2- 8 b 0.5 0.230(2) 0.4224(9) 1. 0 1.06 
O4 O2- 8 b 0 0.242(3) 0.085(1) 1. 0 1.36 
O5 O2- 8 b 0 0.263(2) 0.4144(9) 1. 0 0.24 
Li1 Li1+ 4 a 0.5 0.5 0.131(2) 1. 0 1.33 

#End of data_201980-ICSD


