data_24750-ICSD
#?2014 by Fachinformationszentrum Karlsruhe, and the U.S. Secretary of 
#Commerce on behalf of the United States.  All rights reserved.
_database_code_ICSD                24750
_audit_creation_date               1986/10/06
_audit_update_record               2010/08/01
_chemical_name_systematic          'Sodium Tetrafluoroantimonate'
_chemical_formula_structural       'Na (Sb F4)'
_chemical_formula_sum              'F4 Na1 Sb1'
_publ_section_title                'The crystal structure of Na Sb F4'
loop_
_citation_id
_citation_journal_abbrev
_citation_year
_citation_journal_volume
_citation_page_first
_citation_page_last
_citation_journal_id_ASTM
primary 'Arkiv foer Kemi' 1953 6 77 87 ARKEAD
_publ_author_name
;
Bystroem, A.;Baecklund, S.;Wilhelmi, K.A.
;
_cell_length_a                     8.06(1)
_cell_length_b                     5.52(1)
_cell_length_c                     8.56(1)
_cell_angle_alpha                  90.
_cell_angle_beta                   94.1(2)
_cell_angle_gamma                  90.
_cell_volume                       379.87
_cell_formula_units_Z              4
_symmetry_space_group_name_H-M     'P 1 21/c 1'
_symmetry_Int_Tables_number        14
_refine_ls_R_factor_all            .16
loop_
_symmetry_equiv_pos_site_id
_symmetry_equiv_pos_as_xyz
  1	'x, -y+.5, z+.5'
  2	'-x, -y, -z'
  3	'-x, y+.5, -z+.5'
  4	'x, y, z'
loop_
_atom_type_symbol
_atom_type_oxidation_number
F1-	-1
Na1+	1
Sb3+	3
loop_
_atom_site_label
_atom_site_type_symbol
_atom_site_symmetry_multiplicity
_atom_site_Wyckoff_symbol
_atom_site_fract_x
_atom_site_fract_y
_atom_site_fract_z
_atom_site_occupancy
_atom_site_attached_hydrogens
Na1 Na1+ 4 e 0.139(10) -.292(15) -.153(10) 1. 0 
Sb1 Sb3+ 4 e 0.331(2) 0.286(3) 0.140(2) 1. 0 
F1 F1- 4 e 0.389(10) -.042(15) 0.278(10) 1. 0 
F2 F1- 4 e 0.167(10) -.431(15) 0.083(10) 1. 0 
F3 F1- 4 e 0.125(10) 0.125(15) 0.181(10) 1. 0 
F4 F1- 4 e 0.306(10) 0.042(15) -.153(10) 1. 0 

#End of data_24750-ICSD


