data_413515-ICSD
#?2014 by Fachinformationszentrum Karlsruhe, and the U.S. Secretary of 
#Commerce on behalf of the United States.  All rights reserved.
_database_code_ICSD                413515
_audit_creation_date               2005/04/01
_chemical_name_systematic
;
Zinc Sulfate(VI) - Mercury Oxide - Water (2/2/1)
;
_chemical_formula_structural       '(Zn (S O4))2 (Hg O)2 (H2 O)'
_chemical_formula_sum              'H2 Hg2 O11 S2 Zn2'
_publ_section_title
;
Preparation and crystal structure analyses of compounds in the 
systems Hg O/M X O4/H2 O (M = Co, Zn, Cd; X = S, Se)
;
loop_
_citation_id
_citation_journal_abbrev
_citation_year
_citation_journal_volume
_citation_page_first
_citation_page_last
_citation_journal_id_ASTM
primary 'Zeitschrift fuer Anorganische und Allgemeine Chemie (1950) (DE)'
 2004 630 921 927 ZAACAB
_publ_author_name                  'Weil, M.'
_cell_length_a                     6.1323(6)
_cell_length_b                     11.2609(13)
_cell_length_c                     12.9574(14)
_cell_angle_alpha                  90.00
_cell_angle_beta                   90.00
_cell_angle_gamma                  90.00
_cell_volume                       894.78
_cell_formula_units_Z              4
_symmetry_space_group_name_H-M     'P b c m'
_symmetry_Int_Tables_number        57
_refine_ls_R_factor_all            .026
loop_
_symmetry_equiv_pos_site_id
_symmetry_equiv_pos_as_xyz
  1	'x, -y+.5, z+.5'
  2	'-x, y+.5, z'
  3	'x, y, -z+.5'
  4	'-x, -y, -z'
  5	'-x, y+.5, -z+.5'
  6	'x, -y+.5, -z'
  7	'-x, -y, z+.5'
  8	'x, y, z'
loop_
_atom_type_symbol
_atom_type_oxidation_number
H1+	1
Hg2+	2
O2-	-2
S6+	6
Zn2+	2
loop_
_atom_site_label
_atom_site_type_symbol
_atom_site_symmetry_multiplicity
_atom_site_Wyckoff_symbol
_atom_site_fract_x
_atom_site_fract_y
_atom_site_fract_z
_atom_site_occupancy
_atom_site_attached_hydrogens
_atom_site_U_iso_or_equiv
Hg1 Hg2+ 4 d 0.20451(4) 0.41956(2) 0.2500 1 0 0.01061(6) 
Hg2 Hg2+ 4 d 0.52429(3) 0.16965(2) 0.2500 1 0 0.01007(6) 
Zn1 Zn2+ 8 e 0.02010(7) 0.16761(4) 0.12606(3) 1 0 0.00895(9) 
S1 S6+ 8 e 0.73187(15) 0.41058(8) 0.07787(7) 1 0 0.00712(17) 
O1 O2- 8 e 0.1102(6) 0.8363(3) 0.1356(2) 1 0 0.0176(7) 
O2 O2- 8 e 0.2223(5) 0.5964(3) 0.0331(2) 1 0 0.0172(7) 
O3 O2- 8 e 0.2453(5) 0.0336(3) 0.1156(3) 1 0 0.0160(6) 
O4 O2- 8 e 0.5099(5) 0.3709(3) 0.1008(3) 1 0 0.0181(7) 
O5 O2- 4 d 0.1684(6) 0.6018(3) 0.2500 1 0 0.0058(7) 
O6 O2- 4 d 0.2181(7) 0.2350(3) 0.2500 1 0 0.0087(7) 
O7 O2- 4 c 0.2074(7) 0.2500 0.0000 1 0 0.0115(8) 
H1 H1+ 8 e 0.280(8) 0.300(4) 0.031(4) 1 0 0.036(19) 

loop_
_atom_site_aniso_label
_atom_site_aniso_type_symbol
_atom_site_aniso_U_11
_atom_site_aniso_U_22
_atom_site_aniso_U_33
_atom_site_aniso_U_12
_atom_site_aniso_U_13
_atom_site_aniso_U_23
Hg1 Hg2+ 0.01255(11) 0.00736(10) 0.01191(10) 0.00015(8) 0.000 0.000
Hg2 Hg2+ 0.00662(9) 0.01133(11) 0.01227(10) 0.00204(8) 0.000 0.000
Zn1 Zn2+ 0.0102(2) 0.0090(2) 0.00756(19) 0.00026(17) 0.00001(16) 
-0.00008(18)
S1 S6+ 0.0075(4) 0.0076(4) 0.0063(4) 0.0002(4) -0.0003(3) -0.0009(3)
O1 O2- 0.0264(17) 0.0124(14) 0.0139(14) -0.0118(13) 0.0081(13) -0.0007(11)
O2 O2- 0.0177(15) 0.0271(18) 0.0066(12) 0.0077(14) 0.0035(11) 0.0007(12)
O3 O2- 0.0130(14) 0.0097(13) 0.0254(16) 0.0024(12) -0.0004(13) -0.0054(13)
O4 O2- 0.0113(15) 0.0226(17) 0.0202(16) -0.0079(12) 0.0023(12) -0.0047(13)
O5 O2- 0.0030(16) 0.0054(17) 0.0090(16) -0.0002(14) 0.000 0.000
O6 O2- 0.0085(18) 0.0073(18) 0.0101(17) 0.0009(16) 0.000 0.000
O7 O2- 0.011(2) 0.012(2) 0.0113(18) 0.000 0.000 -0.0010(16)
H1 H1+ 0.01255(11) 0.00736(10) 0.01191(10) 0.00015(8) 0.000 0.000
#End of data_413515-ICSD


