data_165377-ICSD
#?2014 by Fachinformationszentrum Karlsruhe, and the U.S. Secretary of 
#Commerce on behalf of the United States.  All rights reserved.
_database_code_ICSD                165377
_audit_creation_date               2010/02/01
_chemical_name_systematic          'Silver Tetraoxosilicate (5/1)'
_chemical_formula_structural       'Ag5 (Si O4)'
_chemical_formula_sum              'Ag5 O4 Si1'
_publ_section_title
;
Subvalent ternary silver oxides: synthesis, structural 
characterization and physical properties of pentasilver 
orthosilicate, Ag5 Si O4
;
loop_
_citation_id
_citation_journal_abbrev
_citation_year
_citation_journal_volume
_citation_journal_issue
_citation_page_first
_citation_page_last
_citation_journal_id_ASTM
primary 'Inorganic Chemistry' 1994 33 12 2614 2616 INOCAJ
_publ_author_name                  'Linke, C.;Jansen, M.'
_cell_length_a                     9.856(1)
_cell_length_b                     9.108(1)
_cell_length_c                     6.271(1)
_cell_angle_alpha                  90.
_cell_angle_beta                   90.
_cell_angle_gamma                  90.
_cell_volume                       562.94
_cell_formula_units_Z              4
_symmetry_space_group_name_H-M     'P n n m'
_symmetry_Int_Tables_number        58
_refine_ls_R_factor_all            .0495
loop_
_symmetry_equiv_pos_site_id
_symmetry_equiv_pos_as_xyz
  1	'x+.5, -y+.5, z+.5'
  2	'-x+.5, y+.5, z+.5'
  3	'x, y, -z'
  4	'-x, -y, -z'
  5	'-x+.5, y+.5, -z+.5'
  6	'x+.5, -y+.5, -z+.5'
  7	'-x, -y, z'
  8	'x, y, z'
loop_
_atom_type_symbol
_atom_type_oxidation_number
Ag.667+	.667
Ag1+	1
O2-	-2
Si4+	4
loop_
_atom_site_label
_atom_site_type_symbol
_atom_site_symmetry_multiplicity
_atom_site_Wyckoff_symbol
_atom_site_fract_x
_atom_site_fract_y
_atom_site_fract_z
_atom_site_occupancy
_atom_site_attached_hydrogens
_atom_site_U_iso_or_equiv
Ag1 Ag.667+ 8 h 0.1228(1) 0.5662(1) 0.2227(1) 1. 0 0.012(1) 
Ag2 Ag.667+ 4 g 0.0975(1) 0.2981(1) 0 1. 0 0.014(1) 
Ag3 Ag1+ 8 h 0.1227(1) 0.8931(1) 0.2449(1) 1. 0 0.031(1) 
Si1 Si4+ 4 g 0.3837(2) 0.7393(3) 0 1. 0 0.006(1) 
O1 O2- 4 g 0.0488(7) 0.7278(7) 0.5 1. 0 0.011(2) 
O2 O2- 4 g 0.2024(7) 0.3939(7) 0.5 1. 0 0.010(3) 
O3 O2- 8 h 0.3498(5) 0.6466(5) 0.2175(8) 1. 0 0.012(2) 

#End of data_165377-ICSD


