data_67580-ICSD
#?2014 by Fachinformationszentrum Karlsruhe, and the U.S. Secretary of 
#Commerce on behalf of the United States.  All rights reserved.
_database_code_ICSD                67580
_audit_creation_date               1993/08/22
_audit_update_record               2012/02/01
_chemical_name_systematic
;
Tripotassium Manganate(VI) Manganate(VII)
;
_chemical_formula_structural       'K3 (Mn O4) (Mn O4)'
_chemical_formula_sum              'K3 Mn2 O8'
_publ_section_title
;
Single-crystal mixed-valent tripotassium manganate(VI)/(VII) X-ray 
diffraction structure and electron-transfer rate by dielectric 
relaxometry and DC conductimetry
;
loop_
_citation_id
_citation_journal_abbrev
_citation_year
_citation_journal_volume
_citation_page_first
_citation_page_last
_citation_journal_id_ASTM
primary 'Journal of the Chemical Society. Faraday Transactions'
 1992 88 3071 3077 JCFTEV
_publ_author_name
;
Hursthouse, M.B.;Quillin, K.C.;Rosseinsky, D.R.
;
_cell_length_a                     7.868(1)
_cell_length_b                     5.783(1)
_cell_length_c                     9.797(1)
_cell_angle_alpha                  90.
_cell_angle_beta                   112.00(1)
_cell_angle_gamma                  90.
_cell_volume                       413.31
_cell_formula_units_Z              2
_symmetry_space_group_name_H-M     'P 1 21/m 1'
_symmetry_Int_Tables_number        11
_refine_ls_R_factor_all            .045
loop_
_symmetry_equiv_pos_site_id
_symmetry_equiv_pos_as_xyz
  1	'x, -y+.5, z'
  2	'-x, -y, -z'
  3	'-x, y+.5, -z'
  4	'x, y, z'
loop_
_atom_type_symbol
_atom_type_oxidation_number
K1+	1
Mn6+	6
Mn7+	7
O2-	-2
loop_
_atom_site_label
_atom_site_type_symbol
_atom_site_symmetry_multiplicity
_atom_site_Wyckoff_symbol
_atom_site_fract_x
_atom_site_fract_y
_atom_site_fract_z
_atom_site_occupancy
_atom_site_attached_hydrogens
Mn1 Mn7+ 2 e 0.5530(1) 0.75 0.3499(1) 1. 0 
O1 O2- 2 e 0.4021(7) 0.75 0.4236(6) 1. 0 
O2 O2- 2 e 0.7547(6) 0.75 0.4777(5) 1. 0 
O3 O2- 4 f 0.5287(4) 0.5218(5) 0.2497(3) 1. 0 
Mn2 Mn6+ 2 e 0.9246(1) 0.75 0.1646(1) 1. 0 
O4 O2- 2 e 0.7163(5) 0.75 0.0348(4) 1. 0 
O5 O2- 2 e 1.0792(6) 0.75 0.0878(5) 1. 0 
O6 O2- 4 f 0.9505(4) 0.5169(4) 0.2684(3) 1. 0 
K1 K1+ 2 e 0.8552(2) 0.25 0.4575(1) 1. 0 
K2 K1+ 2 e 0.6670(2) 0.25 1.0479(1) 1. 0 
K3 K1+ 2 e 0.2054(2) 0.25 0.2141(1) 1. 0 

#End of data_67580-ICSD


