data_78929-ICSD
#?2014 by Fachinformationszentrum Karlsruhe, and the U.S. Secretary of 
#Commerce on behalf of the United States.  All rights reserved.
_database_code_ICSD                78929
_audit_creation_date               1998/06/26
_audit_update_record               2007/04/01
_chemical_name_systematic          'Dithallium Triiodoargentate'
_chemical_formula_structural       'Tl2 (Ag I3)'
_chemical_formula_sum              'Ag1 I3 Tl2'
_publ_section_title
;
Die Kristallstrukturen von Tl2 Ag I3 und Na Ag I2 . 3H2 O
;
loop_
_citation_id
_citation_journal_abbrev
_citation_year
_citation_journal_volume
_citation_page_first
_citation_page_last
_citation_journal_id_ASTM
primary 'Zeitschrift fuer Anorganische und Allgemeine Chemie (1950) (DE)'
 1996 622 308 312 ZAACAB
2 'Bulletin de la Societe Royal des Sciences de Liege' 1969 38 490 495 BSRSA6
_publ_author_name                  'Hoyer, M.;Hartl, H.'
_cell_length_a                     10.443(2)
_cell_length_b                     10.443(2)
_cell_length_c                     19.935(3)
_cell_angle_alpha                  90.
_cell_angle_beta                   90.
_cell_angle_gamma                  120.
_cell_volume                       1882.77
_cell_formula_units_Z              9
_symmetry_space_group_name_H-M     'R -3 H'
_symmetry_Int_Tables_number        148
_refine_ls_R_factor_all            .05
loop_
_symmetry_equiv_pos_site_id
_symmetry_equiv_pos_as_xyz
  1	'x-y, x, -z'
  2	'y, -x+y, -z'
  3	'-x, -y, -z'
  4	'-x+y, -x, z'
  5	'-y, x-y, z'
  6	'x, y, z'
  7	'x-y+.6666, x+.3333, -z+.3333'
  8	'x-y+.3333, x+.6666, -z+.6666'
  9	'y+.6666, -x+y+.3333, -z+.3333'
 10	'y+.3333, -x+y+.6666, -z+.6666'
 11	'-x+.6666, -y+.3333, -z+.3333'
 12	'-x+.3333, -y+.6666, -z+.6666'
 13	'-x+y+.6666, -x+.3333, z+.3333'
 14	'-x+y+.3333, -x+.6666, z+.6666'
 15	'-y+.6666, x-y+.3333, z+.3333'
 16	'-y+.3333, x-y+.6666, z+.6666'
 17	'x+.6666, y+.3333, z+.3333'
 18	'x+.3333, y+.6666, z+.6666'
loop_
_atom_type_symbol
_atom_type_oxidation_number
Ag1+	1
I1-	-1
Tl1+	1
loop_
_atom_site_label
_atom_site_type_symbol
_atom_site_symmetry_multiplicity
_atom_site_Wyckoff_symbol
_atom_site_fract_x
_atom_site_fract_y
_atom_site_fract_z
_atom_site_occupancy
_atom_site_attached_hydrogens
Ag1 Ag1+ 3 a 0 0 0 1. 0 
Ag2 Ag1+ 6 c 0 0 0.1586(2) 1. 0 
I1 I1- 18 f 0.2457(2) 0.2434(2) 0.09041(7) 1. 0 
I2 I1- 6 c 0 0 0.2975(1) 1. 0 
I3 I1- 3 b 0 0 0.5 1. 0 
Tl1 Tl1+ 18 f 0.0391(2) 0.2997(1) 0.40878(5) 1. 0 

loop_
_atom_site_aniso_label
_atom_site_aniso_type_symbol
_atom_site_aniso_U_11
_atom_site_aniso_U_22
_atom_site_aniso_U_33
_atom_site_aniso_U_12
_atom_site_aniso_U_13
_atom_site_aniso_U_23
Ag1 Ag1+ 0.050(3) 0.050(3) 0.035(4) 0.025(1) 0 0
Ag2 Ag1+ 0.047(2) 0.047(2) 0.026(2) 0.0235 0 0
I1 I1- 0.018(1) 0.019(1) 0.019(1) 0.0118(8) 0.0032(7) 0.0025(7)
I2 I1- 0.013(1) 0.013(1) 0.014(2) 0.0065(5) 0 0
I3 I1- 0.013(1) 0.013(1) 0.013(2) 0.0066(7) 0 0
Tl1 Tl1+ 0.0212(8) 0.0238(8) 0.0255(8) 0.0069(6) 0.0023(4) 0.0033(4)
#End of data_78929-ICSD


