data_280359-ICSD
#?2014 by Fachinformationszentrum Karlsruhe, and the U.S. Secretary of 
#Commerce on behalf of the United States.  All rights reserved.
_database_code_ICSD                280359
_audit_creation_date               2002/04/01
_audit_update_record               2005/10/01
_chemical_name_systematic          'Silver Niobate'
_chemical_formula_structural       'Ag (Nb O3)'
_chemical_formula_sum              'Ag1 Nb1 O3'
_publ_section_title                'Silver niobium trioxide, Ag Nb O3'
loop_
_citation_id
_citation_journal_abbrev
_citation_year
_citation_journal_volume
_citation_page_first
_citation_page_last
_citation_journal_id_ASTM
primary 'Acta Crystallographica, Section C: Crystal Structure Communications'
 2000 56 916 918 ACSCEE
_publ_author_name
;
Fabry, J.;Zikmund, Z.;Kania, A.;Petricek, V.
;
_cell_length_a                     5.5462(3)
_cell_length_b                     5.6028(4)
_cell_length_c                     15.6365(13)
_cell_angle_alpha                  90.
_cell_angle_beta                   90.
_cell_angle_gamma                  90.
_cell_volume                       485.89
_cell_formula_units_Z              8
_symmetry_space_group_name_H-M     'P b c m'
_symmetry_Int_Tables_number        57
_refine_ls_R_factor_all            .034
loop_
_symmetry_equiv_pos_site_id
_symmetry_equiv_pos_as_xyz
  1	'x, -y+.5, z+.5'
  2	'-x, y+.5, z'
  3	'x, y, -z+.5'
  4	'-x, -y, -z'
  5	'-x, y+.5, -z+.5'
  6	'x, -y+.5, -z'
  7	'-x, -y, z+.5'
  8	'x, y, z'
loop_
_atom_type_symbol
_atom_type_oxidation_number
Ag1+	1
Nb5+	5
O2-	-2
loop_
_atom_site_label
_atom_site_type_symbol
_atom_site_symmetry_multiplicity
_atom_site_Wyckoff_symbol
_atom_site_fract_x
_atom_site_fract_y
_atom_site_fract_z
_atom_site_occupancy
_atom_site_attached_hydrogens
Ag1 Ag1+ 4 d 0.75770(3) 0.22738(7) 0.75 1. 0 
Ag2 Ag1+ 4 c 0.75550(3) 0.25 0.5 1. 0 
Nb1 Nb5+ 8 e 0.74525(2) 0.72338(7) 0.625010(8) 1. 0 
O1 O2- 4 d 0.6978(2) 0.7664(2) 0.75 1. 0 
O2 O2- 4 c 0.8043(2) 0.75 0.5 1. 0 
O3 O2- 8 e 0.4662(2) 0.5364(2) 0.61132(6) 1. 0 
O4 O2- 8 e -.0334(2) 0.4727(2) 0.63865(7) 1. 0 

loop_
_atom_site_aniso_label
_atom_site_aniso_type_symbol
_atom_site_aniso_U_11
_atom_site_aniso_U_22
_atom_site_aniso_U_33
_atom_site_aniso_U_12
_atom_site_aniso_U_13
_atom_site_aniso_U_23
Ag1 Ag1+ 0.0128(2) 0.0123(2) 0.0133(2) -.00211(4) 0 0
Ag2 Ag1+ 0.0113(2) 0.0141(1) 0.0130(2) 0 0 0.00107(7)
Nb1 Nb5+ 0.0051(2) 0.0040(2) 0.0085(2) -.00014(3) -.00061(4) 0.00031(4)
O1 O2- 0.0118(6) 0.0119(7) 0.0031(7) 0.0009(4) 0 0
O2 O2- 0.0100(6) 0.0127(6) 0.0059(7) 0 0 0.0004(4)
O3 O2- 0.0064(4) 0.0084(5) 0.0115(5) -.0033(3) -.0013(3) 0.0014(3)
O4 O2- 0.0086(4) 0.0077(5) 0.0114(5) 0.0030(3) 0.0010(3) 0.0013(3)
#End of data_280359-ICSD


