data_249741-ICSD
#?2014 by Fachinformationszentrum Karlsruhe, and the U.S. Secretary of 
#Commerce on behalf of the United States.  All rights reserved.
_database_code_ICSD                249741
_audit_creation_date               2009/02/01
_chemical_name_systematic          'Dipotassium Disulfate(VI)'
_chemical_formula_structural       'K2 (S2 O7)'
_chemical_formula_sum              'K2 O7 S2'
_publ_section_title
;
In situ crystallography of K H S O4: Probing the kinetic pathway for 
the evolution of a pyrolysis reaction in the crystalline state
;
loop_
_citation_id
_citation_journal_abbrev
_citation_year
_citation_journal_volume
_citation_journal_issue
_citation_page_first
_citation_page_last
_citation_journal_id_ASTM
primary 'Inorganic Chemistry' 2008 47 19 8613 8615 INOCAJ
_publ_author_name                  'Swain, D.;Guru Row, T.N.'
_cell_length_a                     12.454(2)
_cell_length_b                     7.3255(11)
_cell_length_c                     7.2985(10)
_cell_angle_alpha                  90.00
_cell_angle_beta                   92.65(3)
_cell_angle_gamma                  90.00
_cell_volume                       665.14
_cell_formula_units_Z              4
_symmetry_space_group_name_H-M     'C 1 2/c 1'
_symmetry_Int_Tables_number        15
_refine_ls_R_factor_all            .0956
loop_
_symmetry_equiv_pos_site_id
_symmetry_equiv_pos_as_xyz
  1	'x, -y, z+.5'
  2	'-x, -y, -z'
  3	'-x, y, -z+.5'
  4	'x, y, z'
  5	'x+.5, -y+.5, z+.5'
  6	'-x+.5, -y+.5, -z'
  7	'-x+.5, y+.5, -z+.5'
  8	'x+.5, y+.5, z'
loop_
_atom_type_symbol
_atom_type_oxidation_number
K1+	1
O2-	-2
S6+	6
loop_
_atom_site_label
_atom_site_type_symbol
_atom_site_symmetry_multiplicity
_atom_site_Wyckoff_symbol
_atom_site_fract_x
_atom_site_fract_y
_atom_site_fract_z
_atom_site_occupancy
_atom_site_attached_hydrogens
_atom_site_U_iso_or_equiv
K1 K1+ 8 f 0.35370(13) 0.8446(3) 0.1488(2) 1 0 0.0427(6) 
S1 S6+ 8 f 0.39879(13) 0.3157(2) 0.1435(3) 1 0 0.0275(5) 
O1 O2- 4 e 0.5000 0.4178(8) 0.2500 1 0 0.0278(17) 
O2 O2- 8 f 0.3515(4) 0.2020(7) 0.2781(7) 1 0 0.0410(14) 
O3 O2- 8 f 0.4423(4) 0.2116(7) -0.0019(7) 1 0 0.0454(16) 
O4 O2- 8 f 0.3337(4) 0.4651(7) 0.0876(8) 1 0 0.0485(16) 

loop_
_atom_site_aniso_label
_atom_site_aniso_type_symbol
_atom_site_aniso_U_11
_atom_site_aniso_U_22
_atom_site_aniso_U_33
_atom_site_aniso_U_12
_atom_site_aniso_U_13
_atom_site_aniso_U_23
K1 K1+ 0.0504(12) 0.0440(11) 0.0340(13) -0.0074(9) 0.0062(9) -0.0087(9)
S1 S6+ 0.0294(9) 0.0251(9) 0.0284(11) 0.0027(9) 0.0047(8) -0.0006(9)
O1 O2- 0.032(4) 0.016(3) 0.035(5) 0.000 -0.005(3) 0.000
O2 O2- 0.046(3) 0.038(3) 0.040(3) -0.019(3) 0.011(3) 0.007(3)
O3 O2- 0.045(3) 0.054(4) 0.038(4) 0.007(3) 0.010(3) -0.021(3)
O4 O2- 0.043(3) 0.039(3) 0.063(5) 0.013(3) -0.006(3) 0.005(3)
#End of data_249741-ICSD


