data_280793-ICSD
#?2014 by Fachinformationszentrum Karlsruhe, and the U.S. Secretary of 
#Commerce on behalf of the United States.  All rights reserved.
_database_code_ICSD                280793
_audit_creation_date               2002/10/01
_audit_update_record               2012/02/01
_chemical_name_systematic          'Potassium Gallohexatellurate(IV)'
_chemical_formula_structural       'K (Ga Te6 O14)'
_chemical_formula_sum              'Ga1 K1 O14 Te6'
_publ_section_title
;
New tellurites: syntheses, structures, and characterization of K2 Te4 
O9 * 3.2(H2 O), K Ga Te6 O14, and K Ga Te2 O6 * 1.8(H2 O)
;
loop_
_citation_id
_citation_journal_abbrev
_citation_year
_citation_journal_volume
_citation_page_first
_citation_page_last
_citation_journal_id_ASTM
primary 'Chemistry of Materials' 2001 13 4278 4284 CMATEX
_publ_author_name                  'Ok, K.M.;Halasyamani, P.S.'
_cell_length_a                     10.9267(3)
_cell_length_b                     10.9267(3)
_cell_length_c                     10.9267(3)
_cell_angle_alpha                  90.
_cell_angle_beta                   90.
_cell_angle_gamma                  90.
_cell_volume                       1304.57
_cell_formula_units_Z              4
_symmetry_space_group_name_H-M     'P a -3'
_symmetry_Int_Tables_number        205
_refine_ls_R_factor_all            .0175
loop_
_symmetry_equiv_pos_site_id
_symmetry_equiv_pos_as_xyz
  1	'-z+.5, x+.5, y'
  2	'z+.5, x, -y+.5'
  3	'z, -x+.5, y+.5'
  4	'-z, -x, -y'
  5	'y, -z+.5, x+.5'
  6	'-y+.5, z+.5, x'
  7	'y+.5, z, -x+.5'
  8	'-y, -z, -x'
  9	'x+.5, y, -z+.5'
 10	'x, -y+.5, z+.5'
 11	'-x+.5, y+.5, z'
 12	'-x, -y, -z'
 13	'z+.5, -x+.5, -y'
 14	'-z+.5, -x, y+.5'
 15	'-z, x+.5, -y+.5'
 16	'z, x, y'
 17	'-y, z+.5, -x+.5'
 18	'y+.5, -z+.5, -x'
 19	'-y+.5, -z, x+.5'
 20	'y, z, x'
 21	'-x+.5, -y, z+.5'
 22	'-x, y+.5, -z+.5'
 23	'x+.5, -y+.5, -z'
 24	'x, y, z'
loop_
_atom_type_symbol
_atom_type_oxidation_number
Ga3+	3
K1+	1
O2-	-2
Te4+	4
loop_
_atom_site_label
_atom_site_type_symbol
_atom_site_symmetry_multiplicity
_atom_site_Wyckoff_symbol
_atom_site_fract_x
_atom_site_fract_y
_atom_site_fract_z
_atom_site_occupancy
_atom_site_attached_hydrogens
Te1 Te4+ 24 d 0.27159(3) 0.50895(3) 0.26507(3) 1. 0 
Ga1 Ga3+ 4 b 0.5 0.5 0.5 1. 0 
K1 K1+ 4 a 0.5 0.5 0 1. 0 
O1 O2- 24 d 0.3753(3) 0.3892(3) 0.1936(3) 1. 0 
O2 O2- 24 d 0.3744(3) 0.5666(3) 0.3866(3) 1. 0 
O3 O2- 8 c 0.3528(3) 0.6472(3) 0.1472(3) 1. 0 

loop_
_atom_site_aniso_label
_atom_site_aniso_type_symbol
_atom_site_aniso_U_11
_atom_site_aniso_U_22
_atom_site_aniso_U_33
_atom_site_aniso_U_12
_atom_site_aniso_U_13
_atom_site_aniso_U_23
Te1 Te4+ 0.0091(2) 0.0111(2) 0.0107(2) 0.0013(1) -.00204(10) -.00237(10)
Ga1 Ga3+ 0.0083(2) 0.0083(2) 0.0083(2) -.0003(2) -.0003(2) -.0003(2)
K1 K1+ 0.0157(5) 0.0157(5) 0.0157(5) 0.0018(5) 0.0018(5) -.0018(5)
O1 O2- 0.016(2) 0.0112(15) 0.0112(15) 0.0041(12) 0.0012(12) -.0008(12)
O2 O2- 0.0140(15) 0.012(2) 0.0132(15) -.0002(12) -.0057(12) -.0005(12)
O3 O2- 0.0126(11) 0.0126(11) 0.0126(11) -.0008(12) -.0008(12) 0.0008(12)
#End of data_280793-ICSD


