data_171708-ICSD
#?2014 by Fachinformationszentrum Karlsruhe, and the U.S. Secretary of 
#Commerce on behalf of the United States.  All rights reserved.
_database_code_ICSD                171708
_audit_creation_date               2006/10/01
_chemical_name_systematic          'Bismuth Aluminium Trioxide'
_chemical_formula_structural       'Bi Al O3'
_chemical_formula_sum              'Al1 Bi1 O3'
_publ_section_title
;
High-pressure synthesis, crystal structures, and properties of 
perovskite-like Bi Al O3 and pyroxene-like Bi Ga O3
;
loop_
_citation_id
_citation_journal_abbrev
_citation_year
_citation_journal_volume
_citation_journal_issue
_citation_page_first
_citation_page_last
_citation_journal_id_ASTM
primary 'Chemistry of Materials' 2006 18 1 133 139 CMATEX
_publ_author_name
;
Belik, A.A.;Wuernisha, T.;Kamiyama, T.;Mori, K.;Maie, M.;Nagai, 
T.;Matsui, Y.;Takayama Muromachi, E.
;
_cell_length_a                     5.37546(5)
_cell_length_b                     5.37546(5)
_cell_length_c                     13.39334(14)
_cell_angle_alpha                  90.
_cell_angle_beta                   90.
_cell_angle_gamma                  120.
_cell_volume                       335.16
_cell_formula_units_Z              6
_symmetry_space_group_name_H-M     'R 3 c H'
_symmetry_Int_Tables_number        161
_refine_ls_R_factor_all            .0698
loop_
_symmetry_equiv_pos_site_id
_symmetry_equiv_pos_as_xyz
  1	'-x+y, y, z+.5'
  2	'x, x-y, z+.5'
  3	'-y, -x, z+.5'
  4	'-x+y, -x, z'
  5	'-y, x-y, z'
  6	'x, y, z'
  7	'-x+y+.6666, y+.3333, z+.8333'
  8	'-x+y+.3333, y+.6666, z+.1666'
  9	'x+.6666, x-y+.3333, z+.8333'
 10	'x+.3333, x-y+.6666, z+.1666'
 11	'-y+.6666, -x+.3333, z+.8333'
 12	'-y+.3333, -x+.6666, z+.1666'
 13	'-x+y+.6666, -x+.3333, z+.3333'
 14	'-x+y+.3333, -x+.6666, z+.6666'
 15	'-y+.6666, x-y+.3333, z+.3333'
 16	'-y+.3333, x-y+.6666, z+.6666'
 17	'x+.6666, y+.3333, z+.3333'
 18	'x+.3333, y+.6666, z+.6666'
loop_
_atom_type_symbol
_atom_type_oxidation_number
Al3+	3
Bi3+	3
O2-	-2
loop_
_atom_site_label
_atom_site_type_symbol
_atom_site_symmetry_multiplicity
_atom_site_Wyckoff_symbol
_atom_site_fract_x
_atom_site_fract_y
_atom_site_fract_z
_atom_site_occupancy
_atom_site_attached_hydrogens
_atom_site_U_iso_or_equiv
Bi1 Bi3+ 6 a 0 0 0 1. 0 .00613(14) 
Al1 Al3+ 6 a 0 0 0.2222(3) 1. 0 .0015(9) 
O1 O2- 18 b 0.5326(16) 0.0099(14) 0.9581(4) 1. 0 .006(3) 

#End of data_171708-ICSD


