data_4308-ICSD
#?2014 by Fachinformationszentrum Karlsruhe, and the U.S. Secretary of 
#Commerce on behalf of the United States.  All rights reserved.
_database_code_ICSD                4308
_audit_creation_date               1980/01/01
_audit_update_record               1987/04/13
_chemical_name_systematic          'Dipotassium Hexaaquanickel Sulfate'
_chemical_formula_structural       'K2 Ni (H2 O)6 (S O4)2'
_chemical_formula_sum              'H12 K2 Ni1 O14 S2'
_publ_section_title
;
Potassium hexaaquanickel(II) sulphate,  H12 K2 Ni O14 S2  (neutron)
;
loop_
_citation_id
_citation_journal_abbrev
_citation_year
_citation_journal_volume
_citation_page_first
_citation_page_last
_citation_journal_id_ASTM
primary 'Crystal Structure Communications' 1975 4 713 716 CSCMCS
_publ_author_name
;
Hodgson. P.G.;Whitnall, J.;Kennard, C.H.L.;Moore, F.H.
;
_cell_length_a                     8.985(3)
_cell_length_b                     12.167(6)
_cell_length_c                     6.128(2)
_cell_angle_alpha                  90.
_cell_angle_beta                   105.08(2)
_cell_angle_gamma                  90.
_cell_volume                       646.85
_cell_formula_units_Z              2
_symmetry_space_group_name_H-M     'P 1 21/a 1'
_symmetry_Int_Tables_number        14
_refine_ls_R_factor_all            .048
loop_
_symmetry_equiv_pos_site_id
_symmetry_equiv_pos_as_xyz
  1	'x+.5, -y+.5, z'
  2	'-x, -y, -z'
  3	'-x+.5, y+.5, -z'
  4	'x, y, z'
loop_
_atom_type_symbol
_atom_type_oxidation_number
H1+	1
K1+	1
Ni2+	2
O2-	-2
S6+	6
loop_
_atom_site_label
_atom_site_type_symbol
_atom_site_symmetry_multiplicity
_atom_site_Wyckoff_symbol
_atom_site_fract_x
_atom_site_fract_y
_atom_site_fract_z
_atom_site_occupancy
_atom_site_attached_hydrogens
Ni1 Ni2+ 2 a 0 0 0 1. 0 
S1 S6+ 4 e 0.4113(4) 0.1351(3) 0.7253(5) 1. 0 
O1 O2- 4 e 0.4097(2) 0.2293(2) 0.5751(3) 1. 0 
O2 O2- 4 e 0.5572(2) 0.0749(2) 0.7553(3) 1. 0 
O3 O2- 4 e 0.2835(2) 0.0614(1) 0.6195(3) 1. 0 
O4 O2- 4 e 0.3929(2) 0.1736(2) 0.9465(2) 1. 0 
O5 O2- 4 e 0.1682(2) 0.1110(1) 0.1631(3) 1. 0 
O6 O2- 4 e -.1673(2) 0.1128(1) 0.0347(3) 1. 0 
O7 O2- 4 e 0.0001(2) -.0669(1) 0.3018(3) 1. 0 
K1 K1+ 4 e 0.1355(3) 0.3458(2) 0.3436(5) 1. 0 
H1 H1+ 4 e 0.2172(4) 0.0888(3) 0.3189(5) 1. 0 
H2 H1+ 4 e 0.2486(4) 0.1245(3) 0.0883(6) 1. 0 
H3 H1+ 4 e -.2674(4) 0.0978(3) -.0692(5) 1. 0 
H4 H1+ 4 e -.1382(4) 0.1878(3) 0.0004(5) 1. 0 
H5 H1+ 4 e -.0956(4) -.0575(3) 0.3414(5) 1. 0 
H6 H1+ 4 e 0.0273(4) -.1449(3) 0.3308(5) 1. 0 

#End of data_4308-ICSD


