data_67114-ICSD
#?2014 by Fachinformationszentrum Karlsruhe, and the U.S. Secretary of 
#Commerce on behalf of the United States.  All rights reserved.
_database_code_ICSD                67114
_audit_creation_date               1990/12/27
_chemical_name_systematic          'Lithium Borouranate'
_chemical_formula_structural       'Li B U O5'
_chemical_formula_sum              'B1 Li1 O5 U1'
_publ_section_title
;
Synthese et structure du borouranate de lithium LiBUO5
;
loop_
_citation_id
_citation_journal_abbrev
_citation_year
_citation_journal_volume
_citation_page_first
_citation_page_last
_citation_journal_id_ASTM
primary 'Acta Crystallographica, Section C: Crystal Structure Communications'
 1990 46 372 374 ACSCEE
_publ_author_name                  'Gasperin, M.'
_cell_length_a                     5.767(2)
_cell_length_b                     10.574(3)
_cell_length_c                     6.835(2)
_cell_angle_alpha                  90.
_cell_angle_beta                   105.04(3)
_cell_angle_gamma                  90.
_cell_volume                       402.52
_cell_formula_units_Z              4
_symmetry_space_group_name_H-M     'P 1 21/c 1'
_symmetry_Int_Tables_number        14
_refine_ls_R_factor_all            .062
loop_
_symmetry_equiv_pos_site_id
_symmetry_equiv_pos_as_xyz
  1	'x, -y+.5, z+.5'
  2	'-x, -y, -z'
  3	'-x, y+.5, -z+.5'
  4	'x, y, z'
loop_
_atom_type_symbol
_atom_type_oxidation_number
B3+	3
Li1+	1
O2-	-2
U6+	6
loop_
_atom_site_label
_atom_site_type_symbol
_atom_site_symmetry_multiplicity
_atom_site_Wyckoff_symbol
_atom_site_fract_x
_atom_site_fract_y
_atom_site_fract_z
_atom_site_occupancy
_atom_site_attached_hydrogens
_atom_site_B_iso_or_equiv
U1 U6+ 4 e 0.0985(1) 0.0654(1) 0.2710(1) 1. 0 0 
O1 O2- 4 e 0.1519(34) 0.0847(17) 0.9532(27) 1. 0 0 
O2 O2- 4 e 0.8521(31) 0.1734(21) 0.2128(27) 1. 0 0 
O3 O2- 4 e 0.1373(35) 0.0895(18) 0.6114(29) 1. 0 0 
O4 O2- 4 e 0.6651(34) 0.0506(18) 0.6777(32) 1. 0 0 
O5 O2- 4 e 0.3506(31) 0.2427(18) 0.3302(30) 1. 0 0 
B1 B3+ 4 e 0.2167(50) 0.1441(31) 0.7976(44) 1. 0 0.6(5) 
Li1 Li1+ 4 e 0.5583(84) 0.2320(51) 0.6242(75) 1. 0 1.2(9) 

loop_
_atom_site_aniso_label
_atom_site_aniso_type_symbol
_atom_site_aniso_U_11
_atom_site_aniso_U_22
_atom_site_aniso_U_33
_atom_site_aniso_U_12
_atom_site_aniso_U_13
_atom_site_aniso_U_23
U1 U6+ 0.0061(2) 0.0005(1) 0.0062(2) -.0003(1) 0.0011(2) 0.0001(1)
O1 O2- 0.0133(63) 0.0001(18) 0.0001(42) -.0004(25) -.0096(42) -.0023(21)
O2 O2- 0.0057(57) 0.0022(22) 0.0102(52) -.0007(28) -.0015(47) 0.0043(27)
O3 O2- 0.0118(61) 0.001(2) 0.0039(45) 0.0015(27) 0.0001(43) 0.0042(23)
O4 O2- 0.0103(60) 0.0006(21) 0.0097(50) 0.0011(27) 0.0032(49) 0.0013(26)
O5 O2- 0.0037(53) 0.0004(19) 0.0113(52) 0.0029(23) 0.0024(25) 0.0021(25)
#End of data_67114-ICSD


