data_30119-ICSD
#?2014 by Fachinformationszentrum Karlsruhe, and the U.S. Secretary of 
#Commerce on behalf of the United States.  All rights reserved.
_database_code_ICSD                30119
_audit_creation_date               1980/01/01
_audit_update_record               1999/01/19
_chemical_name_systematic
;
Dialuminium Phyllo-tetrasilicate Oxide
;
_chemical_formula_structural       'Al2 (Si4 O10) O'
_chemical_formula_sum              'Al2 O11 Si4'
_chemical_name_mineral             'Pyrophyllite 1A (dehydroxylated)'
_publ_section_title
;
The crystal structures of pyrophyllite, 1 Tc, and of its 
dehydroxylate
;
loop_
_citation_id
_citation_journal_abbrev
_citation_year
_citation_journal_volume
_citation_page_first
_citation_page_last
_citation_journal_id_ASTM
primary 'American Mineralogist' 1972 57 732 750 AMMIAY
_publ_author_name                  'Wardle, R.;Brindley, G.W.'
_cell_length_a                     5.1913(13)
_cell_length_b                     9.1224(14)
_cell_length_c                     9.4990(15)
_cell_angle_alpha                  91.17(2)
_cell_angle_beta                   100.21(2)
_cell_angle_gamma                  88.62(2)
_cell_volume                       442.53
_cell_formula_units_Z              2
_symmetry_space_group_name_H-M     'C -1'
_symmetry_Int_Tables_number        2
_refine_ls_R_factor_all            .112
loop_
_symmetry_equiv_pos_site_id
_symmetry_equiv_pos_as_xyz
  1	'-x, -y, -z'
  2	'x, y, z'
  3	'-x+.5, -y+.5, -z'
  4	'x+.5, y+.5, z'
loop_
_atom_type_symbol
_atom_type_oxidation_number
Al3+	3
O2-	-2
Si4+	4
loop_
_atom_site_label
_atom_site_type_symbol
_atom_site_symmetry_multiplicity
_atom_site_Wyckoff_symbol
_atom_site_fract_x
_atom_site_fract_y
_atom_site_fract_z
_atom_site_occupancy
_atom_site_attached_hydrogens
_atom_site_B_iso_or_equiv
Al1 Al3+ 4 i 0.552 0.149 0 1. 0 1.(2) 
Si1 Si4+ 4 i 0.225 0.486 0.286 1. 0 1.(2) 
Si2 Si4+ 4 i 0.749 0.312 0.286 1. 0 1.(2) 
O1 O2- 2 c 0.25 0.25 0 1. 0 1.(2) 
O2 O2- 4 i 0.123 0.492 0.115 1. 0 1.(2) 
O3 O2- 4 i 0.728 0.292 0.115 1. 0 1.(2) 
O4 O2- 4 i 0.037 0.378 0.355 1. 0 1.(2) 
O5 O2- 4 i 0.717 0.152 0.355 1. 0 1.(2) 
O6 O2- 4 i 0.522 0.425 0.32 1. 0 1.(2) 

#End of data_30119-ICSD


