data_47113-ICSD
#?2014 by Fachinformationszentrum Karlsruhe, and the U.S. Secretary of 
#Commerce on behalf of the United States.  All rights reserved.
_database_code_ICSD                47113
_audit_creation_date               1985/02/12
_audit_update_record               2006/10/01
_chemical_name_systematic
;
Hexasodium Hexatellurodigermanate(III)
;
_chemical_formula_structural       'Na6 (Ge2 Te6)'
_chemical_formula_sum              'Ge2 Na6 Te6'
_publ_section_title
;
Ueber Thio-, Selenido- und Telluridogermanate(III): Zur Kenntnis von 
K6 Ge2 S6, K6 Ge2 Se6 und Na6 Ge2 Te6
;
loop_
_citation_id
_citation_journal_abbrev
_citation_year
_citation_journal_volume
_citation_page_first
_citation_page_last
_citation_journal_id_ASTM
primary 'Zeitschrift fuer Anorganische und Allgemeine Chemie (1950) (DE)'
 1984 516 49 54 ZAACAB
_publ_author_name
;
Eisenmann, B.;Kieselbach, E.;Schaefer, H.;Schrod, H.
;
_cell_length_a                     8.899(4)
_cell_length_b                     12.946(6)
_cell_length_c                     8.908(4)
_cell_angle_alpha                  90.
_cell_angle_beta                   119.87(5)
_cell_angle_gamma                  90.
_cell_volume                       889.93
_cell_formula_units_Z              2
_symmetry_space_group_name_H-M     'P 1 21/c 1'
_symmetry_Int_Tables_number        14
_refine_ls_R_factor_all            .04
loop_
_symmetry_equiv_pos_site_id
_symmetry_equiv_pos_as_xyz
  1	'x, -y+.5, z+.5'
  2	'-x, -y, -z'
  3	'-x, y+.5, -z+.5'
  4	'x, y, z'
loop_
_atom_type_symbol
_atom_type_oxidation_number
Ge3+	3
Na1+	1
Te2-	-2
loop_
_atom_site_label
_atom_site_type_symbol
_atom_site_symmetry_multiplicity
_atom_site_Wyckoff_symbol
_atom_site_fract_x
_atom_site_fract_y
_atom_site_fract_z
_atom_site_occupancy
_atom_site_attached_hydrogens
Na1 Na1+ 4 e 0.9944(6) 0.3458(4) 0.5137 1. 0 
Na2 Na1+ 4 e 0.2271(6) 0.9350(4) 0.7040(6) 1. 0 
Na3 Na1+ 4 e 0.4602(8) 0.2244(5) 0.7674(9) 1. 0 
Ge1 Ge3+ 4 e 0.3493(1) 0.9915(1) 0.3831(1) 1. 0 
Te1 Te2- 4 e 0.2454(1) 0.8064 0.3854(1) 1. 0 
Te2 Te2- 4 e 0.3459(1) 0.0277 0.0980(1) 1. 0 
Te3 Te2- 4 e 0.1662(1) 0.1269(1) 0.4306(1) 1. 0 

loop_
_atom_site_aniso_label
_atom_site_aniso_type_symbol
_atom_site_aniso_U_11
_atom_site_aniso_U_22
_atom_site_aniso_U_33
_atom_site_aniso_U_12
_atom_site_aniso_U_13
_atom_site_aniso_U_23
Na1 Na1+ 0.0410(23) 0.0518(28) 0.0368(22) -.0131(21) 0.0096(19) -.0079(20)
Na2 Na1+ 0.0414(24) 0.060(3) 0.0419(24) -.0120(22) 0.0230(21) -.0047(22)
Na3 Na1+ 0.0606(36) 0.0518(33) 0.0751(40) -.0057(27) -.0005(30) -.0289(30)
Ge1 Ge3+ 0.0156(3) 0.0134(3) 0.0173(3) 0.0000(3) 0.0072(3) -.0002(3)
Te1 Te2- 0.0337(3) 0.0169(2) 0.0255(3) -.0086(2) 0.0146 -.0026
Te2 Te2- 0.0361(3) 0.0310(3) 0.0195(3) -.0058(2) 0.0142(2) 0.0006(2)
Te3 Te2- 0.0222(3) 0.0306(3) 0.0388(3) 0.0083(2) 0.0073(2) -.0137(3)
#End of data_47113-ICSD


