data_20610-ICSD
#?2014 by Fachinformationszentrum Karlsruhe, and the U.S. Secretary of 
#Commerce on behalf of the United States.  All rights reserved.
_database_code_ICSD                20610
_audit_creation_date               1983/12/31
_chemical_name_systematic          'Lithium Iron Cyclo-triphosphate'
_chemical_formula_structural       'Li Fe P3 O9'
_chemical_formula_sum              'Fe1 Li1 O9 P3'
_publ_section_title
;
The crystal structure of Li, Fe-metaphosphate Li Fe P3 O9
;
loop_
_citation_id
_citation_journal_abbrev
_citation_year
_citation_journal_volume
_citation_page_first
_citation_page_last
_citation_journal_id_ASTM
primary 'Doklady Akademii Nauk SSSR' 1983 270 1113 1116 DANKAS
_publ_author_name
;
Genkina, E.A.;Maksimov, B.A.;Kabalov, Yu.K.;Mel'nikov, O.K.
;
_cell_length_a                     8.362(2)
_cell_length_b                     8.573(1)
_cell_length_c                     8.690(2)
_cell_angle_alpha                  90.
_cell_angle_beta                   90.
_cell_angle_gamma                  90.
_cell_volume                       622.96
_cell_formula_units_Z              4
_symmetry_space_group_name_H-M     'P 21 21 21'
_symmetry_Int_Tables_number        19
_refine_ls_R_factor_all            .05
loop_
_symmetry_equiv_pos_site_id
_symmetry_equiv_pos_as_xyz
  1	'-x, y+.5, -z+.5'
  2	'x+.5, -y+.5, -z'
  3	'-x+.5, -y, z+.5'
  4	'x, y, z'
loop_
_atom_type_symbol
_atom_type_oxidation_number
Fe2+	2
Li1+	1
O2-	-2
P5+	5
loop_
_atom_site_label
_atom_site_type_symbol
_atom_site_symmetry_multiplicity
_atom_site_Wyckoff_symbol
_atom_site_fract_x
_atom_site_fract_y
_atom_site_fract_z
_atom_site_occupancy
_atom_site_attached_hydrogens
_atom_site_B_iso_or_equiv
Fe1 Fe2+ 4 a 0.6288(1) 0.3568(1) 0.8412(1) 1. 0 0.84 
P1 P5+ 4 a 0.2014(2) 0.1931(2) 0.5605(2) 1. 0 0.94 
P2 P5+ 4 a 0.3127(2) 0.4789(2) 0.6895(2) 1. 0 0.94 
P3 P5+ 4 a 0.0287(2) 0.6792(2) 0.6836(2) 1. 0 0.92 
O1 O2- 4 a 0.1588(7) 0.1389(7) 0.4039(7) 1. 0 1.37 
O2 O2- 4 a 0.3108(7) 0.0939(6) 0.6551(7) 1. 0 1.17 
O3 O2- 4 a 0.0389(6) 0.2294(6) 0.6536(6) 1. 0 1. 
O4 O2- 4 a 0.2727(6) 0.3646(7) 0.5476(6) 1. 0 1.06 
O5 O2- 4 a 0.3777(7) 0.3829(6) 0.8187(6) 1. 0 1.25 
O6 O2- 4 a 0.4099(7) 0.6125(7) 0.6325(6) 1. 0 1.17 
O7 O2- 4 a 0.1394(7) 0.5368(6) 0.7362(6) 1. 0 1.08 
O8 O2- 4 a -.1039(7) 0.6247(7) 0.5835(6) 1. 0 1.15 
O9 O2- 4 a 0.1313(7) 0.8072(7) 0.6220(6) 1. 0 1.15 
Li1 Li1+ 4 a 0.3476(19) 0.1320(19) 0.8854(17) 1. 0 1.67 

#End of data_20610-ICSD


