data_107515-ICSD
#?2014 by Fachinformationszentrum Karlsruhe, and the U.S. Secretary of 
#Commerce on behalf of the United States.  All rights reserved.
_database_code_ICSD                107515
_audit_creation_date               2013/08/01
_chemical_name_systematic
;
Tetrasodium Gold(III) Cobalt(III) Oxide
;
_chemical_formula_structural       'Na4 (Au Co O5)'
_chemical_formula_sum              'Au1 Co1 Na4 O5'
_publ_section_title
;
Neuartige Maeander mit Co3+ und Au3+: Na4(AuCoO5) = 
Na8((O2/2(CoO)O2AuO2/2)2)
;
loop_
_citation_id
_citation_journal_abbrev
_citation_year
_citation_journal_volume
_citation_page_first
_citation_page_last
_citation_journal_id_ASTM
primary 'Vieweg & Teubner' 2012 1 1 368 VITEU8
2 'Zeitschrift fuer Anorganische und Allgemeine Chemie (1950) (DE)'
 1992 612 89 96 ZAACAB
_publ_author_name                  'Mueller, U.'
_cell_length_a                     5.7749(4)
_cell_length_b                     10.4211(8)
_cell_length_c                     9.4956(7)
_cell_angle_alpha                  90.
_cell_angle_beta                   90.
_cell_angle_gamma                  90.
_cell_volume                       571.45
_cell_formula_units_Z              4
_symmetry_space_group_name_H-M     'B b m m'
_symmetry_Int_Tables_number        63
_refine_ls_R_factor_all            .0316
loop_
_symmetry_equiv_pos_site_id
_symmetry_equiv_pos_as_xyz
  1	'x, -y+.5, -z'
  2	'-x, y+.5, -z'
  3	'x, y, -z'
  4	'-x, -y, -z'
  5	'-x, y+.5, z'
  6	'x, -y+.5, z'
  7	'-x, -y, z'
  8	'x, y, z'
  9	'x+.5, -y+.5, -z+.5'
 10	'-x+.5, y+.5, -z+.5'
 11	'x+.5, y, -z+.5'
 12	'-x+.5, -y, -z+.5'
 13	'-x+.5, y+.5, z+.5'
 14	'x+.5, -y+.5, z+.5'
 15	'-x+.5, -y, z+.5'
 16	'x+.5, y, z+.5'
loop_
_atom_type_symbol
_atom_type_oxidation_number
Au3+	3
Co3+	3
Na1+	1
O2-	-2
loop_
_atom_site_label
_atom_site_type_symbol
_atom_site_symmetry_multiplicity
_atom_site_Wyckoff_symbol
_atom_site_fract_x
_atom_site_fract_y
_atom_site_fract_z
_atom_site_occupancy
_atom_site_attached_hydrogens
_atom_site_U_iso_or_equiv
Au1 Au3+ 4 a 0 0 0 1. 0 .0076 
Co1 Co3+ 4 c 0.2664 0.75 0 1. 0 .0076 
Na1 Na1+ 8 e 0.5 0 0.1683 1. 0 .0134 
Na2 Na1+ 8 g 0.3205 0.75 0.3144 1. 0 .0142 
O1 O2- 16 h 0.8507 0.3828 0.1380 1. 0 .0148 
O2 O2- 4 c 0.4317 0.25 0 1. 0 .0145 

#End of data_107515-ICSD


