data_203032-ICSD
#?2014 by Fachinformationszentrum Karlsruhe, and the U.S. Secretary of 
#Commerce on behalf of the United States.  All rights reserved.
_database_code_ICSD                203032
_audit_creation_date               1990/12/27
_audit_update_record               2007/08/01
_chemical_name_systematic          'Lithium Antimonate'
_chemical_formula_structural       'Li (Sb O3)'
_chemical_formula_sum              'Li1 O3 Sb1'
_publ_section_title
;
Li+ / H+ topotactic exchange on Li Sb O3: The series Li(1-x) Hx Sb O3 
(0<=x<=1).
;
loop_
_citation_id
_citation_journal_abbrev
_citation_year
_citation_journal_volume
_citation_page_first
_citation_page_last
_citation_journal_id_ASTM
primary 'Materials Research Bulletin' 1989 24 1207 1214 MRBUAC
_publ_author_name
;
Fourquet, J.L.;Gillet, P.A.;Le Bail, A.
;
_cell_length_a                     4.9005(2)
_cell_length_b                     8.4892(3)
_cell_length_c                     5.1816(2)
_cell_angle_alpha                  90.
_cell_angle_beta                   90.
_cell_angle_gamma                  90.
_cell_volume                       215.56
_cell_formula_units_Z              4
_symmetry_space_group_name_H-M     'P n c n'
_symmetry_Int_Tables_number        52
_refine_ls_R_factor_all            .079
loop_
_symmetry_equiv_pos_site_id
_symmetry_equiv_pos_as_xyz
  1	'-x+.5, y+.5, z+.5'
  2	'x+.5, y+.5, -z'
  3	'x, -y, z+.5'
  4	'-x, -y, -z'
  5	'x+.5, -y+.5, -z+.5'
  6	'-x+.5, -y+.5, z'
  7	'-x, y, -z+.5'
  8	'x, y, z'
loop_
_atom_type_symbol
_atom_type_oxidation_number
Li1+	1
O2-	-2
Sb5+	5
loop_
_atom_site_label
_atom_site_type_symbol
_atom_site_symmetry_multiplicity
_atom_site_Wyckoff_symbol
_atom_site_fract_x
_atom_site_fract_y
_atom_site_fract_z
_atom_site_occupancy
_atom_site_attached_hydrogens
_atom_site_B_iso_or_equiv
Li1 Li1+ 4 c 0 0.699(2) 0.25 1. 0 0.5 
Sb1 Sb5+ 4 c 0 0.0955(1) 0.25 1. 0 0.30(1) 
O1 O2- 4 d 0.25 0.25 0.409(1) 1. 0 0.42(15) 
O2 O2- 8 e 0.206(1) 0.085(1) 0.924(1) 1. 0 1.91(11) 

#End of data_203032-ICSD


