data_190592-ICSD
#?2014 by Fachinformationszentrum Karlsruhe, and the U.S. Secretary of 
#Commerce on behalf of the United States.  All rights reserved.
_database_code_ICSD                190592
_audit_creation_date               2014/08/01
_chemical_name_systematic
;
Distrontium Zinc Tungsten Hexaoxide
;
_chemical_formula_structural       'Sr2 Zn W O6'
_chemical_formula_sum              'O6 Sr2 W1 Zn1'
_publ_section_title
;
X - ray powder diffraction results for the phase transitions in Sr2 M 
W O6 (M = Ni, Zn, Co, Cu) double perovskite oxides
;
loop_
_citation_id
_citation_journal_abbrev
_citation_year
_citation_journal_volume
_citation_journal_issue
_citation_page_first
_citation_page_last
_citation_journal_id_ASTM
primary 'Journal of Physics: Condensed Matter' 2003 15 36 6199 6217 JCOMEL
_publ_author_name
;
Gateshki, M.;Igartua, J.M.;Hernandez-Bocanegra, E.
;
_cell_length_a                     5.5973(2)
_cell_length_b                     5.5973(2)
_cell_length_c                     7.9889(3)
_cell_angle_alpha                  90.
_cell_angle_beta                   90.
_cell_angle_gamma                  90.
_cell_volume                       250.29
_cell_formula_units_Z              2
_symmetry_space_group_name_H-M     'I 4/m'
_symmetry_Int_Tables_number        87
_refine_ls_R_factor_all            .0537
loop_
_symmetry_equiv_pos_site_id
_symmetry_equiv_pos_as_xyz
  1	'-y, x, -z'
  2	'y, -x, -z'
  3	'x, y, -z'
  4	'-x, -y, -z'
  5	'y, -x, z'
  6	'-y, x, z'
  7	'-x, -y, z'
  8	'x, y, z'
  9	'-y+.5, x+.5, -z+.5'
 10	'y+.5, -x+.5, -z+.5'
 11	'x+.5, y+.5, -z+.5'
 12	'-x+.5, -y+.5, -z+.5'
 13	'y+.5, -x+.5, z+.5'
 14	'-y+.5, x+.5, z+.5'
 15	'-x+.5, -y+.5, z+.5'
 16	'x+.5, y+.5, z+.5'
loop_
_atom_type_symbol
_atom_type_oxidation_number
O2-	-2
Sr2+	2
W6+	6
Zn2+	2
loop_
_atom_site_label
_atom_site_type_symbol
_atom_site_symmetry_multiplicity
_atom_site_Wyckoff_symbol
_atom_site_fract_x
_atom_site_fract_y
_atom_site_fract_z
_atom_site_occupancy
_atom_site_attached_hydrogens
W1 W6+ 2 a 0 0 0 1. 0 
Zn1 Zn2+ 2 b 0 0 0.5 1. 0 
Sr1 Sr2+ 4 d 0 0.5 0.250 1. 0 
O1 O2- 8 h 0.202(2) 0.292(2) 0 1. 0 
O2 O2- 4 e 0 0 0.241(2) 1. 0 

#End of data_190592-ICSD


