data_68533-ICSD
#?2014 by Fachinformationszentrum Karlsruhe, and the U.S. Secretary of 
#Commerce on behalf of the United States.  All rights reserved.
_database_code_ICSD                68533
_audit_creation_date               1991/07/10
_audit_update_record               2000/07/15
_chemical_name_systematic
;
Potassium Molybdenum Oxide (1/4/6) - Ii
;
_chemical_formula_structural       'K Mo4 O6'
_chemical_formula_sum              'K1 Mo4 O6'
_publ_section_title                'Zur Kenntnis von K (Mo4 O6)'
loop_
_citation_id
_citation_journal_abbrev
_citation_year
_citation_journal_volume
_citation_page_first
_citation_page_last
_citation_journal_id_ASTM
primary 'Journal of the Less-Common Metals' 1990 161 279 293 JCOMAH
_publ_author_name
;
Hoffman, R.;Hoppe, R.;Bauer, K.;Range, K.J.
;
_cell_length_a                     9.612(2)
_cell_length_b                     9.612(2)
_cell_length_c                     2.950(1)
_cell_angle_alpha                  90.
_cell_angle_beta                   90.
_cell_angle_gamma                  90.
_cell_volume                       272.55
_cell_formula_units_Z              2
_symmetry_space_group_name_H-M     'P 4/m b m'
_symmetry_Int_Tables_number        127
_refine_ls_R_factor_all            .038
loop_
_symmetry_equiv_pos_site_id
_symmetry_equiv_pos_as_xyz
  1	'y+.5, x+.5, -z'
  2	'-y+.5, -x+.5, -z'
  3	'-y, x, -z'
  4	'y, -x, -z'
  5	'x+.5, -y+.5, -z'
  6	'-x+.5, y+.5, -z'
  7	'x, y, -z'
  8	'-x, -y, -z'
  9	'-y+.5, -x+.5, z'
 10	'y+.5, x+.5, z'
 11	'y, -x, z'
 12	'-y, x, z'
 13	'-x+.5, y+.5, z'
 14	'x+.5, -y+.5, z'
 15	'-x, -y, z'
 16	'x, y, z'
loop_
_atom_type_symbol
_atom_type_oxidation_number
K1+	1
Mo2.75+	2.75
O2-	-2
loop_
_atom_site_label
_atom_site_type_symbol
_atom_site_symmetry_multiplicity
_atom_site_Wyckoff_symbol
_atom_site_fract_x
_atom_site_fract_y
_atom_site_fract_z
_atom_site_occupancy
_atom_site_attached_hydrogens
_atom_site_B_iso_or_equiv
Mo1 Mo2.75+ 4 h 0.1015(1) 0.3985(1) 0.5 1. 0 0 
Mo2 Mo2.75+ 4 g 0.3564(1) 0.1436(1) 0 1. 0 0 
K1 K1+ 2 a 0 0 0 1. 0 0 
O1 O2- 4 g 0.2053(9) 0.2947(9) 0 1. 0 0.81 
O2 O2- 8 j 0.2427(8) 0.0449(9) 0.5 1. 0 0.52 

loop_
_atom_site_aniso_label
_atom_site_aniso_type_symbol
_atom_site_aniso_U_11
_atom_site_aniso_U_22
_atom_site_aniso_U_33
_atom_site_aniso_U_12
_atom_site_aniso_U_13
_atom_site_aniso_U_23
Mo1 Mo2.75+ 0.0029(3) 0.0029(3) 0.020(2) 0.0006(4) 0 0
Mo2 Mo2.75+ 0.0036(3) 0.0036(3) 0.020(2) -.0005(4) 0 0
K1 K1+ 0.013(1) 0.013(1) 0.008(6) 0 0 0
#End of data_68533-ICSD


