data_18135-ICSD
#?2014 by Fachinformationszentrum Karlsruhe, and the U.S. Secretary of 
#Commerce on behalf of the United States.  All rights reserved.
_database_code_ICSD                18135
_audit_creation_date               1980/01/01
_audit_update_record               1999/01/19
_chemical_name_systematic          'Calcium Tungstate'
_chemical_formula_structural       'Ca (W O4)'
_chemical_formula_sum              'Ca1 O4 W1'
_chemical_name_mineral             Scheelite
_publ_section_title
;
Absolute integrated intensity measurement : application to Ca W O4 
and comparison of several refinements
;
loop_
_citation_id
_citation_journal_abbrev
_citation_year
_citation_journal_volume
_citation_page_first
_citation_page_last
_citation_journal_id_ASTM
primary 'Acta Crystallographica (1,1948-23,1967)' 1965 18 88 97 ACCRA9
_publ_author_name                  'Burbank, R.D.'
_cell_length_a                     5.2425(5)
_cell_length_b                     5.2425(5)
_cell_length_c                     11.3715(50)
_cell_angle_alpha                  90.
_cell_angle_beta                   90.
_cell_angle_gamma                  90.
_cell_volume                       312.53
_cell_formula_units_Z              4
_symmetry_space_group_name_H-M     'I 41/a Z'
_symmetry_Int_Tables_number        88
_refine_ls_R_factor_all            .032
loop_
_symmetry_equiv_pos_site_id
_symmetry_equiv_pos_as_xyz
  1	'-y+.75, x+.75, -z+.75'
  2	'y+.25, -x+.75, -z+.75'
  3	'x, y+.5, -z'
  4	'-x, -y, -z'
  5	'y+.25, -x+.25, z+.25'
  6	'-y+.75, x+.25, z+.25'
  7	'-x, -y+.5, z'
  8	'x, y, z'
  9	'-y+.25, x+.25, -z+.25'
 10	'y+.75, -x+.25, -z+.25'
 11	'x+.5, y, -z+.5'
 12	'-x+.5, -y+.5, -z+.5'
 13	'y+.75, -x+.75, z+.75'
 14	'-y+.25, x+.75, z+.75'
 15	'-x+.5, -y, z+.5'
 16	'x+.5, y+.5, z+.5'
loop_
_atom_type_symbol
_atom_type_oxidation_number
Ca2+	2
O2-	-2
W6+	6
loop_
_atom_site_label
_atom_site_type_symbol
_atom_site_symmetry_multiplicity
_atom_site_Wyckoff_symbol
_atom_site_fract_x
_atom_site_fract_y
_atom_site_fract_z
_atom_site_occupancy
_atom_site_attached_hydrogens
Ca1 Ca2+ 4 b 0 0.25 0.625 1. 0 
W1 W6+ 4 a 0 0.25 0.125 1. 0 
O1 O2- 16 f 0.1497(19) 0.0093(19) 0.2097(9) 1. 0 

loop_
_atom_site_aniso_label
_atom_site_aniso_type_symbol
_atom_site_aniso_B_11
_atom_site_aniso_B_22
_atom_site_aniso_B_33
_atom_site_aniso_B_12
_atom_site_aniso_B_13
_atom_site_aniso_B_23
Ca1 Ca2+ 0.84(11) 0.84(11) -.32(15) 0 0 0
W1 W6+ 0.33(2) 0.33(2) 0.57(3) 0 0 0
O1 O2- 0.69(41) 0.80(29) 0.84(39) 0.17(14) 0.28(14) 0.20(12)
#End of data_18135-ICSD


