data_4201-ICSD
#?2014 by Fachinformationszentrum Karlsruhe, and the U.S. Secretary of 
#Commerce on behalf of the United States.  All rights reserved.
_database_code_ICSD                4201
_audit_creation_date               1980/01/01
_chemical_name_systematic          'Trilithium Copper(III) Oxide'
_chemical_formula_structural       'Li3 Cu O3'
_chemical_formula_sum              'Cu1 Li3 O3'
_publ_section_title
;
Preparation et proprietes d'un oxyde de lithium-cuivre(III). Li3 Cu 
O3
;
loop_
_citation_id
_citation_journal_abbrev
_citation_year
_citation_journal_volume
_citation_page_first
_citation_page_last
_citation_journal_id_ASTM
primary 'Revue de Chimie Minerale' 1975 12 203 209 RVCMA8
_publ_author_name
;
Migeon, H.N.;Courtois, A.;Zanne, M.;Gleitzer, C.;Aubry, J.
;
_cell_length_a                     8.71
_cell_length_b                     8.71
_cell_length_c                     3.58
_cell_angle_alpha                  90.
_cell_angle_beta                   90.
_cell_angle_gamma                  90.
_cell_volume                       271.59
_cell_formula_units_Z              4
_symmetry_space_group_name_H-M     'P 42/m n m'
_symmetry_Int_Tables_number        136
_refine_ls_R_factor_all            .11
loop_
_symmetry_equiv_pos_site_id
_symmetry_equiv_pos_as_xyz
  1	'-y+.5, x+.5, -z+.5'
  2	'y+.5, -x+.5, -z+.5'
  3	'y, x, -z'
  4	'-y, -x, -z'
  5	'y+.5, -x+.5, z+.5'
  6	'-y+.5, x+.5, z+.5'
  7	'-y, -x, z'
  8	'y, x, z'
  9	'x+.5, -y+.5, -z+.5'
 10	'-x+.5, y+.5, -z+.5'
 11	'x, y, -z'
 12	'-x, -y, -z'
 13	'-x+.5, y+.5, z+.5'
 14	'x+.5, -y+.5, z+.5'
 15	'-x, -y, z'
 16	'x, y, z'
loop_
_atom_type_symbol
_atom_type_oxidation_number
Cu3+	3
Li1+	1
O2-	-2
loop_
_atom_site_label
_atom_site_type_symbol
_atom_site_symmetry_multiplicity
_atom_site_Wyckoff_symbol
_atom_site_fract_x
_atom_site_fract_y
_atom_site_fract_z
_atom_site_occupancy
_atom_site_attached_hydrogens
_atom_site_B_iso_or_equiv
Cu1 Cu3+ 4 f 0.382 0.382 0 1. 0 0.88 
Li1 Li1+ 8 i 0.6 0.17 0 1. 0 0.88 
Li2 Li1+ 4 f 0.199 0.199 0 1. 0 0.88 
O1 O2- 8 i 0.17 0.367 0 1. 0 0.88 
O2 O2- 4 g 0.389 -.389 0 1. 0 0.88 

#End of data_4201-ICSD


