data_419570-ICSD
#?2014 by Fachinformationszentrum Karlsruhe, and the U.S. Secretary of 
#Commerce on behalf of the United States.  All rights reserved.
_database_code_ICSD                419570
_audit_creation_date               2009/08/01
_audit_update_record               2011/02/01
_chemical_name_systematic
;
Dineodymium Dipotassium Iridium Heptaoxide
;
_chemical_formula_structural       'Nd2 K2 Ir O7'
_chemical_formula_sum              'Ir1 K2 Nd2 O7'
_publ_section_title
;
Nd2 K2 Ir O7 and Sm2 K2 Ir O7: iridium(VI) oxides prepared under 
ambient pressure
;
loop_
_citation_id
_citation_journal_abbrev
_citation_year
_citation_journal_volume
_citation_journal_issue
_citation_page_first
_citation_page_last
_citation_journal_id_ASTM
primary 'Angewandte Chemie. International Edition' 2009 48 1 215 218 ACIEF5
_publ_author_name
;
Mugavero, S.J.;Smith, M.D.;Yoon Wonsub;zur Loye, H.C.
;
_cell_length_a                     5.7326(1)
_cell_length_b                     5.7326(1)
_cell_length_c                     38.0887(15)
_cell_angle_alpha                  90.00
_cell_angle_beta                   90.00
_cell_angle_gamma                  120.00
_cell_volume                       1084
_cell_formula_units_Z              6
_symmetry_space_group_name_H-M     'R -3 c H'
_symmetry_Int_Tables_number        167
_refine_ls_R_factor_all            .0229
loop_
_symmetry_equiv_pos_site_id
_symmetry_equiv_pos_as_xyz
  1	'x-y, -y, -z+.5'
  2	'-x, -x+y, -z+.5'
  3	'y, x, -z+.5'
  4	'x-y, x, -z'
  5	'y, -x+y, -z'
  6	'-x, -y, -z'
  7	'-x+y, y, z+.5'
  8	'x, x-y, z+.5'
  9	'-y, -x, z+.5'
 10	'-x+y, -x, z'
 11	'-y, x-y, z'
 12	'x, y, z'
 13	'x-y+.6666, -y+.3333, -z+.8333'
 14	'x-y+.3333, -y+.6666, -z+.1666'
 15	'-x+.6666, -x+y+.3333, -z+.8333'
 16	'-x+.3333, -x+y+.6666, -z+.1666'
 17	'y+.6666, x+.3333, -z+.8333'
 18	'y+.3333, x+.6666, -z+.1666'
 19	'x-y+.6666, x+.3333, -z+.3333'
 20	'x-y+.3333, x+.6666, -z+.6666'
 21	'y+.6666, -x+y+.3333, -z+.3333'
 22	'y+.3333, -x+y+.6666, -z+.6666'
 23	'-x+.6666, -y+.3333, -z+.3333'
 24	'-x+.3333, -y+.6666, -z+.6666'
 25	'-x+y+.6666, y+.3333, z+.8333'
 26	'-x+y+.3333, y+.6666, z+.1666'
 27	'x+.6666, x-y+.3333, z+.8333'
 28	'x+.3333, x-y+.6666, z+.1666'
 29	'-y+.6666, -x+.3333, z+.8333'
 30	'-y+.3333, -x+.6666, z+.1666'
 31	'-x+y+.6666, -x+.3333, z+.3333'
 32	'-x+y+.3333, -x+.6666, z+.6666'
 33	'-y+.6666, x-y+.3333, z+.3333'
 34	'-y+.3333, x-y+.6666, z+.6666'
 35	'x+.6666, y+.3333, z+.3333'
 36	'x+.3333, y+.6666, z+.6666'
loop_
_atom_type_symbol
_atom_type_oxidation_number
Ir6+	6
K1+	1
Nd3+	3
O2-	-2
loop_
_atom_site_label
_atom_site_type_symbol
_atom_site_symmetry_multiplicity
_atom_site_Wyckoff_symbol
_atom_site_fract_x
_atom_site_fract_y
_atom_site_fract_z
_atom_site_occupancy
_atom_site_attached_hydrogens
_atom_site_U_iso_or_equiv
Ir1 Ir6+ 6 b 0.0000 0.0000 0.0000 1 0 0.00801(12) 
Nd1 Nd3+ 12 c 0.0000 0.0000 0.185194(10) 1 0 0.01095(12) 
K1 K1+ 12 c 0.0000 0.0000 0.08644(5) 1 0 0.0248(4) 
O1 O2- 36 f 0.2516(7) 0.3219(7) 0.02760(8) 1 0 0.0112(6) 
O2 O2- 6 a 0.0000 0.0000 0.2500 1 0 0.024(2) 

loop_
_atom_site_aniso_label
_atom_site_aniso_type_symbol
_atom_site_aniso_U_11
_atom_site_aniso_U_22
_atom_site_aniso_U_33
_atom_site_aniso_U_12
_atom_site_aniso_U_13
_atom_site_aniso_U_23
Ir1 Ir6+ 0.00717(13) 0.00717(13) 0.00967(18) 0.00359(7) 0.000 0.000
Nd1 Nd3+ 0.01042(15) 0.01042(15) 0.0120(2) 0.00521(7) 0.000 0.000
K1 K1+ 0.0318(7) 0.0318(7) 0.0109(7) 0.0159(4) 0.000 0.000
O1 O2- 0.0099(16) 0.0066(15) 0.0140(14) 0.0018(13) -0.0010(13) -0.0001(13)
O2 O2- 0.030(3) 0.030(3) 0.012(4) 0.0148(16) 0.000 0.000
#End of data_419570-ICSD


