data_201665-ICSD
#?2014 by Fachinformationszentrum Karlsruhe, and the U.S. Secretary of 
#Commerce on behalf of the United States.  All rights reserved.
_database_code_ICSD                201665
_audit_creation_date               1985/08/06
_audit_update_record               2005/10/01
_chemical_name_systematic          'Magnesium Catena-germanate'
_chemical_formula_structural       'Mg (Ge O3)'
_chemical_formula_sum              'Ge1 Mg1 O3'
_chemical_name_mineral             Orthopyroxene-(Mg,Ge)
_publ_section_title
;
A high temperature transition in Mg Ge O3 from clinopyroxene (C2/c) 
type to orthopyroxene (Pbca) type
;
loop_
_citation_id
_citation_journal_abbrev
_citation_year
_citation_journal_volume
_citation_page_first
_citation_page_last
_citation_journal_id_ASTM
primary 'American Mineralogist' 1985 70 365 374 AMMIAY
2 'Golden Book of Phase Transitions, Wroclaw' 2002 1 1 123 GBOPT5
_publ_author_name
;
Yamanaka, T.;Hirano, M.;Takeuchi, Y.
;
_cell_length_a                     18.8290(30)
_cell_length_b                     8.952(2)
_cell_length_c                     5.347(1)
_cell_angle_alpha                  90.
_cell_angle_beta                   90.
_cell_angle_gamma                  90.
_cell_volume                       901.28
_cell_formula_units_Z              16
_symmetry_space_group_name_H-M     'P b c a'
_symmetry_Int_Tables_number        61
_refine_ls_R_factor_all            .0521
loop_
_symmetry_equiv_pos_site_id
_symmetry_equiv_pos_as_xyz
  1	'x+.5, y, -z+.5'
  2	'x, -y+.5, z+.5'
  3	'-x+.5, y+.5, z'
  4	'-x, -y, -z'
  5	'-x+.5, -y, z+.5'
  6	'-x, y+.5, -z+.5'
  7	'x+.5, -y+.5, -z'
  8	'x, y, z'
loop_
_atom_type_symbol
_atom_type_oxidation_number
Ge4+	4
Mg2+	2
O2-	-2
loop_
_atom_site_label
_atom_site_type_symbol
_atom_site_symmetry_multiplicity
_atom_site_Wyckoff_symbol
_atom_site_fract_x
_atom_site_fract_y
_atom_site_fract_z
_atom_site_occupancy
_atom_site_attached_hydrogens
_atom_site_B_iso_or_equiv
Mg1 Mg2+ 8 c 0.1232(2) 0.3440(3) 0.3503(5) 1. 0 0.55(6) 
Mg2 Mg2+ 8 c 0.3774(3) 0.4890(5) 0.3443(9) 1. 0 0.51(7) 
Ge1 Ge4+ 8 c 0.2709(1) 0.3454(2) 0.0408(2) 1. 0 0.35(1) 
Ge2 Ge4+ 8 c 0.4722(1) 0.3393(2) 0.8055(2) 1. 0 0.37(1) 
O1 O2- 8 c 0.1787(4) 0.3409(13) 0.0188(14) 1. 0 0.37(9) 
O2 O2- 8 c 0.3119(5) 0.5132(10) 0.0382(18) 1. 0 0.63(11) 
O3 O2- 8 c 0.3071(5) 0.2104(11) 0.8337(17) 1. 0 0.80(15) 
O4 O2- 8 c 0.5636(4) 0.3362(13) 0.8147(16) 1. 0 0.56(11) 
O5 O2- 8 c 0.4299(4) 0.4863(11) 0.6689(19) 1. 0 0.60(12) 
O6 O2- 8 c 0.4455(4) 0.1794(8) 0.6259(15) 1. 0 0.34(11) 

#End of data_201665-ICSD


