data_85628-ICSD
#?2014 by Fachinformationszentrum Karlsruhe, and the U.S. Secretary of 
#Commerce on behalf of the United States.  All rights reserved.
_database_code_ICSD                85628
_audit_creation_date               1999/11/30
_chemical_name_systematic
;
Tripotassium Copper(I) Heptathiodiphosphate(V)
;
_chemical_formula_structural       'K3 Cu (P2 S7)'
_chemical_formula_sum              'Cu1 K3 P2 S7'
_publ_section_title
;
A2 Cu P3 S9 (A = K, Rb), Cs2 Cu2 P2 S6, and K3 Cu P2 S7: new phases 
from the dissolution of copper in molten polythiophosphate fluxes
;
loop_
_citation_id
_citation_journal_abbrev
_citation_year
_citation_journal_volume
_citation_page_first
_citation_page_last
_citation_journal_id_ASTM
primary 'Chemistry of Materials' 1998 10 3040 3049 CMATEX
_publ_author_name
;
Hanko, J.A.;Sayettat, J.;Jobic, S.;Brec, R.;Kanatzidis, M.G.
;
_cell_length_a                     13.113(6)
_cell_length_b                     6.702(9)
_cell_length_c                     15.141(8)
_cell_angle_alpha                  90.
_cell_angle_beta                   98.71(4)
_cell_angle_gamma                  90.
_cell_volume                       1315.3
_cell_formula_units_Z              4
_symmetry_space_group_name_H-M     'P 1 21/a 1'
_symmetry_Int_Tables_number        14
_refine_ls_R_factor_all            .041
loop_
_symmetry_equiv_pos_site_id
_symmetry_equiv_pos_as_xyz
  1	'x+.5, -y+.5, z'
  2	'-x, -y, -z'
  3	'-x+.5, y+.5, -z'
  4	'x, y, z'
loop_
_atom_type_symbol
_atom_type_oxidation_number
Cu1+	1
K1+	1
P5+	5
S2-	-2
loop_
_atom_site_label
_atom_site_type_symbol
_atom_site_symmetry_multiplicity
_atom_site_Wyckoff_symbol
_atom_site_fract_x
_atom_site_fract_y
_atom_site_fract_z
_atom_site_occupancy
_atom_site_attached_hydrogens
_atom_site_U_iso_or_equiv
Cu1 Cu1+ 4 e 0.0674(1) 0.0223(3) 0.8046(1) 1. 0 0.031(1) 
P1 P5+ 4 e 0.1134(2) 0.5007(5) 0.8380(2) 1. 0 0.020(1) 
P2 P5+ 4 e 0.1676(2) 0.7596(5) 0.6459(2) 1. 0 0.021(1) 
S1 S2- 4 e 0.0017(2) 0.3024(5) 0.8600(2) 1. 0 0.025(1) 
S2 S2- 4 e 0.0838(2) 0.5184(5) 0.6938(2) 1. 0 0.022(1) 
S3 S2- 4 e 0.0921(3) 0.0196(5) 0.6625(2) 1. 0 0.028(1) 
S4 S2- 4 e 0.0861(3) 0.7623(5) 0.8974(2) 1. 0 0.029(1) 
S5 S2- 4 e 0.3138(2) 0.7632(5) 0.7070(2) 1. 0 0.028(1) 
S6 S2- 4 e 0.2534(2) 0.3927(6) 0.8812(2) 1. 0 0.032(1) 
S7 S2- 4 e 0.1480(3) 0.6896(6) 0.5144(2) 1. 0 0.029(1) 
K1 K1+ 4 e 0.3187(2) 0.2611(5) 0.6961(2) 1. 0 0.036(1) 
K2 K1+ 4 e 0.3437(3) 0.8518(6) 0.9289(2) 1. 0 0.045(1) 
K3 K1+ 4 e 0.0963(2) 0.2214(5) 0.4726(2) 1. 0 0.035(1) 

#End of data_85628-ICSD


