data_609253-ICSD
#?2014 by Fachinformationszentrum Karlsruhe, and the U.S. Secretary of 
#Commerce on behalf of the United States.  All rights reserved.
_database_code_ICSD                609253
_audit_creation_date               2012/02/01
_chemical_name_systematic          'Aluminium Sulfide (2/3) - Ht'
_chemical_formula_structural       'Al2 S3'
_chemical_formula_sum              'Al2 S3'
_publ_section_title
;
Study of aluminium sulfide: alpha-Al2 S3 and Al2 S3 (tetr.)
;
loop_
_citation_id
_citation_journal_abbrev
_citation_year
_citation_journal_volume
_citation_page_first
_citation_page_last
_citation_journal_id_ASTM
primary
;
Zeitschrift fuer Naturforschung, Teil B. Anorganische Chemie, 
Organische Chemie (33,1978-41,1986)
;
 1981 36 532 . ZNBAD2
_publ_author_name
;
Haeuseler, H.;Cansiz, A.;Lutz, H.D.
;
_cell_length_a                     6.441(1)
_cell_length_b                     6.441(1)
_cell_length_c                     17.898(4)
_cell_angle_alpha                  90.0
_cell_angle_beta                   90.0
_cell_angle_gamma                  120.0
_cell_volume                       643.05
_cell_formula_units_Z              6
_symmetry_space_group_name_H-M     'P 61'
_symmetry_Int_Tables_number        169
loop_
_symmetry_equiv_pos_site_id
_symmetry_equiv_pos_as_xyz
  1	'x-y, x, z+.1667'
  2	'y, -x+y, z+.8333'
  3	'-x, -y, z+.5'
  4	'-x+y, -x, z+.6667'
  5	'-y, x-y, z+.3333'
  6	'x, y, z'
loop_
_atom_type_symbol
_atom_type_oxidation_number
Al3+	3
S2-	-2
loop_
_atom_site_label
_atom_site_type_symbol
_atom_site_symmetry_multiplicity
_atom_site_Wyckoff_symbol
_atom_site_fract_x
_atom_site_fract_y
_atom_site_fract_z
_atom_site_occupancy
_atom_site_attached_hydrogens
Al1 Al3+ 6 a 0.352 0.340 0.216 1. 0 
Al2 Al3+ 6 a 0.695 0.699 0.351 1. 0 
S1 S2- 6 a 0.342 0.339 0.348 1. 0 
S2 S2- 6 a 0.044 0.350 0.163 1. 0 
S3 S2- 6 a 0.711 0.665 0.206 1. 0 

#End of data_609253-ICSD


