data_92475-ICSD
#?2014 by Fachinformationszentrum Karlsruhe, and the U.S. Secretary of 
#Commerce on behalf of the United States.  All rights reserved.
_database_code_ICSD                92475
_audit_creation_date               2002/10/01
_chemical_name_systematic
;
Dipotassium Perfluoromethanedisulfonate
;
_chemical_formula_structural       'K2 ((O3 S)2 C F2)'
_chemical_formula_sum              'C1 F2 K2 O6 S2'
_publ_section_title
;
Barium, potassium, and tris(ethane-1,2-diamine) nickel(II) 
fluoroalkanedisulfonates and the X-ray crystal structures of K2 (O3 
S)2 C H F, K2 (O3 S)2 C F2, K2 (O3 S)2 (C F2)3 * (H2 O) and (Nien)3 
((O3 S)2 (C F2)n) (n=1,3)
;
loop_
_citation_id
_citation_journal_abbrev
_citation_year
_citation_journal_volume
_citation_page_first
_citation_page_last
_citation_journal_id_ASTM
primary 'Zeitschrift fuer Anorganische und Allgemeine Chemie (1950) (DE)'
 2000 626 2012 2019 ZAACAB
_publ_author_name
;
Abrahams, C.T.;Blackshaw, R.;Deacon, G.B.;Gatehouse, B.M.;Henkel, 
G.;Herkelmann, R.;Jueschke, R.;Philosof, A.;Rieland, P.;Sartori, P.
;
_cell_length_a                     9.929(2)
_cell_length_b                     6.048(1)
_cell_length_c                     14.519(2)
_cell_angle_alpha                  90.
_cell_angle_beta                   109.94(1)
_cell_angle_gamma                  90.
_cell_volume                       819.61
_cell_formula_units_Z              4
_symmetry_space_group_name_H-M     'P 1 21/c 1'
_symmetry_Int_Tables_number        14
_refine_ls_R_factor_all            .037
loop_
_symmetry_equiv_pos_site_id
_symmetry_equiv_pos_as_xyz
  1	'x, -y+.5, z+.5'
  2	'-x, -y, -z'
  3	'-x, y+.5, -z+.5'
  4	'x, y, z'
loop_
_atom_type_symbol
_atom_type_oxidation_number
C4+	4
F1-	-1
K1+	1
O2-	-2
S4+	4
loop_
_atom_site_label
_atom_site_type_symbol
_atom_site_symmetry_multiplicity
_atom_site_Wyckoff_symbol
_atom_site_fract_x
_atom_site_fract_y
_atom_site_fract_z
_atom_site_occupancy
_atom_site_attached_hydrogens
_atom_site_U_iso_or_equiv
K1 K1+ 4 e 0.04068(7) 0.72527(11) 0.33479(5) 1. 0 0.0271(2) 
K2 K1+ 4 e 0.27861(7) 0.73168(10) 0.65457(5) 1. 0 0.0258(2) 
S1 S4+ 4 e 0.30126(8) 0.25857(12) 0.32102(5) 1. 0 0.0229(3) 
S2 S4+ 4 e 0.14582(7) 0.21264(11) 0.47300(5) 1. 0 0.0193(2) 
O1 O2- 4 e 0.2343(2) 0.0457(3) 0.2939(2) 1. 0 0.030(1) 
O2 O2- 4 e 0.4467(3) 0.2698(4) 0.3249(2) 1. 0 0.048(1) 
O3 O2- 4 e 0.2130(2) 0.4402(3) 0.2691(2) 1. 0 0.029(1) 
O4 O2- 4 e 0.0299(2) 0.2685(3) 0.3843(2) 1. 0 0.027(1) 
O5 O2- 4 e 0.1646(2) -.0217(3) 0.4906(2) 1. 0 0.030(1) 
O6 O2- 4 e 0.1505(2) 0.3405(4) 0.5574(2) 1. 0 0.034(1) 
C1 C4+ 4 e 0.3076(3) 0.3000(4) 0.4481(2) 1. 0 0.022(1) 
F1 F1- 4 e 0.4213(2) 0.1962(3) 0.5102(2) 1. 0 0.042(1) 
F2 F1- 4 e 0.3252(2) 0.5201(3) 0.4673(1) 1. 0 0.036(1) 

#End of data_92475-ICSD


