data_92852-ICSD
#?2014 by Fachinformationszentrum Karlsruhe, and the U.S. Secretary of 
#Commerce on behalf of the United States.  All rights reserved.
_database_code_ICSD                92852
_audit_creation_date               2003/04/01
_chemical_name_systematic          'Dilithium Cobalt Bis(tungstate)'
_chemical_formula_structural       'Li2 Co (W O4)2'
_chemical_formula_sum              'Co1 Li2 O8 W2'
_publ_section_title
;
Synthesis and characterization of new double tungstates Li2 M(II) (W 
O4)2 (M = Co, Ni and Cu)
;
loop_
_citation_id
_citation_journal_abbrev
_citation_year
_citation_journal_volume
_citation_page_first
_citation_page_last
_citation_journal_id_ASTM
primary 'Chemistry of Materials' 2001 13 3871 3875 CMATEX
_publ_author_name
;
Alvarez-Vega, M.;Rodriguez Carvajal, J.;Reyes-Cardenas, J.G.;Fuentes, 
A.F.;Amador, U.
;
_cell_length_a                     4.9218(1)
_cell_length_b                     5.6675(1)
_cell_length_c                     5.8826(1)
_cell_angle_alpha                  69.49(1)
_cell_angle_beta                   91.46(1)
_cell_angle_gamma                  116.14(1)
_cell_volume                       136.34
_cell_formula_units_Z              1
_symmetry_space_group_name_H-M     'P -1'
_symmetry_Int_Tables_number        2
_refine_ls_R_factor_all            .051
loop_
_symmetry_equiv_pos_site_id
_symmetry_equiv_pos_as_xyz
  1	'-x, -y, -z'
  2	'x, y, z'
loop_
_atom_type_symbol
_atom_type_oxidation_number
Co2+	2
Li1+	1
O2-	-2
W6+	6
loop_
_atom_site_label
_atom_site_type_symbol
_atom_site_symmetry_multiplicity
_atom_site_Wyckoff_symbol
_atom_site_fract_x
_atom_site_fract_y
_atom_site_fract_z
_atom_site_occupancy
_atom_site_attached_hydrogens
_atom_site_B_iso_or_equiv
W1 W6+ 2 i 0.2709(9) 0.5335(9) 0.6644(9) 1. 0 0.04(1) 
Co1 Co2+ 1 d 0.5 0 0 1. 0 0.13(1) 
O1 O2- 2 i 0.8275(8) 0.2783(7) 0.6668(6) 1. 0 0.16(1) 
O2 O2- 2 i 0.2374(8) 0.7506(8) 0.8065(7) 1. 0 0.16(1) 
O3 O2- 2 i 0.6814(8) 0.7260(9) 0.5409(7) 1. 0 0.16(1) 
O4 O2- 2 i 0.2743(8) 0.2413(8) 0.9237(6) 1. 0 0.16(1) 
Li1 Li1+ 2 i 0.051(2) 0.074(2) 0.257(2) 1. 0 1.63(1) 

#End of data_92852-ICSD


