data_408834-ICSD
#?2014 by Fachinformationszentrum Karlsruhe, and the U.S. Secretary of 
#Commerce on behalf of the United States.  All rights reserved.
_database_code_ICSD                408834
_audit_creation_date               1999/06/02
_chemical_name_systematic
;
Hexapotassium Dicopper 24-oxohexahydroxotetraborooctaphosphate(V)
;
_chemical_formula_structural       'K6 Cu2 (B4 P8 O28 (O H)6)'
_chemical_formula_sum              'H6 B4 Cu2 K6 O34 P8'
_publ_section_title
;
Oligomere Tetraeder-Anionen in Borophosphaten: Sechserringe mit 
offenen und cyclischen PhosphatVerzweigungen in der Kristallstruktur 
von K6 Cu2 (B4 P8 O28 (O H)6)
;
loop_
_citation_id
_citation_journal_abbrev
_citation_year
_citation_journal_volume
_citation_page_first
_citation_page_last
_citation_journal_id_ASTM
primary 'Zeitschrift fuer Naturforschung, B: Chemical Sciences'
 1998 53 1440 1444 ZNBSEN
_publ_author_name                  'Boy, I.;Cordier, G.;Kniep, R.'
_cell_length_a                     9.6177(10)
_cell_length_b                     17.5504(10)
_cell_length_c                     9.4204(10)
_cell_angle_alpha                  90.
_cell_angle_beta                   112.294(1)
_cell_angle_gamma                  90.
_cell_volume                       1471.25
_cell_formula_units_Z              2
_symmetry_space_group_name_H-M     'P 1 21/c 1'
_symmetry_Int_Tables_number        14
_refine_ls_R_factor_all            .0339
loop_
_symmetry_equiv_pos_site_id
_symmetry_equiv_pos_as_xyz
  1	'x, -y+.5, z+.5'
  2	'-x, -y, -z'
  3	'-x, y+.5, -z+.5'
  4	'x, y, z'
loop_
_atom_type_symbol
_atom_type_oxidation_number
B3+	3
Cu2+	2
H1+	1
K1+	1
O2-	-2
P5+	5
loop_
_atom_site_label
_atom_site_type_symbol
_atom_site_symmetry_multiplicity
_atom_site_Wyckoff_symbol
_atom_site_fract_x
_atom_site_fract_y
_atom_site_fract_z
_atom_site_occupancy
_atom_site_attached_hydrogens
_atom_site_U_iso_or_equiv
K1 K1+ 4 e 0.01456(7) 0.36887(3) 0.44438(6) 1. 0 0 
K2 K1+ 4 e 0.37227(8) 0.63058(4) 0.03614(8) 1. 0 0 
K3 K1+ 4 e 0.54362(7) 0.38845(4) 0.40393(7) 1. 0 0 
Cu1 Cu2+ 4 e 0.02391(3) 0.332280(16) 0.06429(3) 1. 0 0 
B1 B3+ 4 e 0.0110(3) 0.08724(14) 0.2931(3) 1. 0 0 
B2 B3+ 4 e 0.2766(3) 0.40879(15) 0.0077(3) 1. 0 0 
P1 P5+ 4 e 0.14344(6) 0.71958(3) 0.27663(6) 1. 0 0 
P2 P5+ 4 e 0.20284(7) 0.47780(3) 0.22954(7) 1. 0 0 
P3 P5+ 4 e 0.24559(7) 0.01941(4) 0.24389(7) 1. 0 0 
P4 P5+ 4 e 0.34686(7) 0.25912(3) 0.10324(7) 1. 0 0 
O1 O2- 4 e 0.0670(2) 0.64862(11) 0.3155(2) 1. 0 0 
O2 O2- 4 e 0.0768(2) 0.03706(10) 0.2096(2) 1. 0 0 
O3 O2- 4 e 0.0789(3) 0.79143(11) 0.3121(2) 1. 0 0 
O4 O2- 4 e 0.0981(2) 0.54652(11) 0.1591(2) 1. 0 0 
O5 O2- 4 e 0.1143(2) 0.40615(10) 0.2249(2) 1. 0 0 
O6 O2- 4 e 0.12311(19) 0.11918(10) 0.43274(19) 1. 0 0 
O7 O2- 4 e 0.1271(2) 0.71755(11) 0.1101(2) 1. 0 0 
O8 O2- 4 e 0.2127(2) 0.24831(11) 0.1458(2) 1. 0 0 
O9 O2- 4 e 0.2885(3) 0.06265(13) 0.1226(2) 1. 0 0 
O10 O2- 4 e 0.2930(2) 0.46950(11) 0.1228(2) 1. 0 0 
O11 O2- 4 e 0.3118(2) 0.49597(12) 0.3900(2) 1. 0 0 
O12 O2- 4 e 0.3247(3) 0.28156(13) 0.4482(2) 1. 0 0 
O13 O2- 4 e 0.3362(2) 0.05942(12) 0.3978(2) 1. 0 0 
O14 O2- 4 e 0.3780(2) 0.34561(10) 0.0860(2) 1. 0 0 
O15 O2- 4 e 0.4913(2) 0.22778(12) 0.2205(2) 1. 0 0 
O16 O2- 4 e 0.6884(2) 0.21481(13) 0.1179(2) 1. 0 0 
O17 O2- 4 e 0.7267(3) 0.43624(12) 0.2566(3) 1. 0 0 
H1 H1+ 4 e 0.278(4) 0.260(2) 0.366(5) 1. 0 0.025(9) 
H2 H1+ 4 e 0.613(6) 0.226(3) 0.153(6) 1. 0 0.076(16) 
H3 H1+ 4 e 0.313(6) 0.031(3) 0.024(7) 1. 0 0.095(17) 

loop_
_atom_site_aniso_label
_atom_site_aniso_type_symbol
_atom_site_aniso_U_11
_atom_site_aniso_U_22
_atom_site_aniso_U_33
_atom_site_aniso_U_12
_atom_site_aniso_U_13
_atom_site_aniso_U_23
K1 K1+ 0.0303(3) 0.0271(3) 0.0186(2) -.0069(2) 0.0117(2) -.00496(19)
K2 K1+ 0.0302(3) 0.0350(3) 0.0320(3) -.0018(2) 0.0103(3) -.0073(2)
K3 K1+ 0.0278(3) 0.0280(3) 0.0271(3) -.0034(2) 0.0056(2) 0.0032(2)
Cu1 Cu2+ 0.01438(14) 0.01630(14) 0.01323(13) -.00192(9) 0.00611(10) 
-.00045(9)
B1 B3+ 0.0137(10) 0.0164(10) 0.0145(10) 0.0005(8) 0.0050(8) -.0018(8)
B2 B3+ 0.0148(10) 0.0172(10) 0.0156(11) -.0004(8) 0.0064(9) 0.0000(8)
P1 P5+ 0.0122(2) 0.0157(2) 0.0122(2) 0.00020(18) 0.00490(19) -.00056(18)
P2 P5+ 0.0147(2) 0.0143(2) 0.0147(2) -.00089(19) 0.0058(2) -.00093(19)
P3 P5+ 0.0209(3) 0.0218(3) 0.0195(3) 0.0021(2) 0.0087(2) 0.0001(2)
P4 P5+ 0.0129(2) 0.0176(3) 0.0160(3) 0.00190(19) 0.0054(2) 0.0003(2)
O1 O2- 0.0242(9) 0.0231(8) 0.0139(7) -.0081(7) 0.0080(7) -.0021(6)
O2 O2- 0.0168(8) 0.0206(8) 0.0177(8) 0.0035(6) 0.0065(6) -.0034(6)
O3 O2- 0.0390(11) 0.0204(8) 0.0238(9) 0.0114(8) 0.0198(8) 0.0043(7)
O4 O2- 0.0237(9) 0.0216(8) 0.0219(8) 0.0072(7) 0.0123(7) 0.0051(7)
O5 O2- 0.0274(9) 0.0181(8) 0.0203(8) -.0078(7) 0.0117(7) -.0043(6)
O6 O2- 0.0123(7) 0.0223(8) 0.0148(7) 0.0023(6) 0.0043(6) -.0035(6)
O7 O2- 0.0211(8) 0.0240(8) 0.0130(7) -.0061(7) 0.0080(6) -.0027(6)
O8 O2- 0.0160(8) 0.0241(9) 0.0267(9) 0.0023(7) 0.0108(7) 0.0042(7)
O9 O2- 0.0380(11) 0.0315(10) 0.0277(10) 0.0005(9) 0.0189(9) 0.0020(8)
O10 O2- 0.0204(8) 0.0209(8) 0.0264(9) -.0048(7) 0.0142(7) -.0072(7)
O11 O2- 0.0221(9) 0.0286(9) 0.0168(8) -.0049(7) 0.0036(7) -.0014(7)
O12 O2- 0.0400(12) 0.0272(10) 0.0200(9) -.0080(9) 0.0095(9) 0.0024(8)
O13 O2- 0.0169(8) 0.0347(10) 0.0182(8) 0.0033(7) 0.0071(7) -.0052(7)
O14 O2- 0.0130(7) 0.0189(8) 0.0283(9) 0.0006(6) 0.0039(7) 0.0027(7)
O15 O2- 0.0161(8) 0.0315(10) 0.0219(9) 0.0065(7) 0.0068(7) 0.0064(7)
O16 O2- 0.0129(8) 0.0442(12) 0.0197(9) 0.0008(8) 0.0034(7) -.0072(8)
O17 O2- 0.0317(10) 0.0247(9) 0.0353(11) -.0060(8) 0.0140(9) -.0017(8)
#End of data_408834-ICSD


