data_202761-ICSD
#?2014 by Fachinformationszentrum Karlsruhe, and the U.S. Secretary of 
#Commerce on behalf of the United States.  All rights reserved.
_database_code_ICSD                202761
_audit_creation_date               1989/12/04
_chemical_name_systematic
;
Dibarium Calcium Copper Diiron(III) Fluoride
;
_chemical_formula_structural       'Ba2 Ca Cu Fe2 F14'
_chemical_formula_sum              'Ba2 Ca1 Cu1 F14 Fe2'
_publ_section_title
;
New heteronuclear trimers in fluorides with usovite-type structure
;
loop_
_citation_id
_citation_journal_abbrev
_citation_year
_citation_journal_volume
_citation_page_first
_citation_page_last
_citation_journal_id_ASTM
primary 'Materials Research Bulletin' 1988 23 637 645 MRBUAC
_publ_author_name
;
Qiang, X.;Darriet, J.;Tressaud, A.;Soubeyroux, J.L.;Hagenmuller, P.
;
_cell_length_a                     13.748(1)
_cell_length_b                     5.366(1)
_cell_length_c                     14.811(1)
_cell_angle_alpha                  90.
_cell_angle_beta                   91.47
_cell_angle_gamma                  90.
_cell_volume                       1092.27
_cell_formula_units_Z              4
_symmetry_space_group_name_H-M     'C 1 2/c 1'
_symmetry_Int_Tables_number        15
_refine_ls_R_factor_all            .046
loop_
_symmetry_equiv_pos_site_id
_symmetry_equiv_pos_as_xyz
  1	'x, -y, z+.5'
  2	'-x, -y, -z'
  3	'-x, y, -z+.5'
  4	'x, y, z'
  5	'x+.5, -y+.5, z+.5'
  6	'-x+.5, -y+.5, -z'
  7	'-x+.5, y+.5, -z+.5'
  8	'x+.5, y+.5, z'
loop_
_atom_type_symbol
_atom_type_oxidation_number
Ba2+	2
Ca2+	2
Cu2+	2
F1-	-1
Fe3+	3
loop_
_atom_site_label
_atom_site_type_symbol
_atom_site_symmetry_multiplicity
_atom_site_Wyckoff_symbol
_atom_site_fract_x
_atom_site_fract_y
_atom_site_fract_z
_atom_site_occupancy
_atom_site_attached_hydrogens
_atom_site_B_iso_or_equiv
Ba1 Ba2+ 8 f 0.187(2) -.067(4) 0.118(1) 1. 0 0.8 
Fe1 Fe3+ 8 f 0.382(2) 0.478(4) 0.127(2) 1. 0 0.9 
Ca1 Ca2+ 4 e 0 0.428(4) 0.25 1. 0 1.6 
Cu1 Cu2+ 4 b 0 0.5 0 1. 0 0.8 
F1 F1- 8 f 0.163(2) 0.205(3) 0.277(1) 1. 0 1.8 
F2 F1- 8 f 0.414(2) 0.298(3) 0.016(1) 1. 0 0.4 
F3 F1- 8 f 0.375(2) 0.210(3) 0.207(1) 1. 0 0.3 
F4 F1- 8 f 0.366(2) 0.230(3) 0.545(1) 1. 0 1.2 
F5 F1- 8 f 0.511(2) 0.426(3) 0.655(1) 1. 0 1.1 
F6 F1- 8 f 0.248(2) 0.421(3) 0.090(1) 1. 0 0.4 
F7 F1- 8 f 0.449(2) 0.068(3) 0.384(1) 1. 0 0.3 

#End of data_202761-ICSD


