data_153769-ICSD
#?2014 by Fachinformationszentrum Karlsruhe, and the U.S. Secretary of 
#Commerce on behalf of the United States.  All rights reserved.
_database_code_ICSD                153769
_audit_creation_date               2007/04/01
_audit_update_record               2011/02/01
_chemical_name_systematic          'Tricalcium Diruthenate(IV)'
_chemical_formula_structural       'Ca3 (Ru2 O7)'
_chemical_formula_sum              'Ca3 O7 Ru2'
_publ_section_title
;
Crystal and magnetic structure of Ca3 Ru2 O7
;
loop_
_citation_id
_citation_journal_abbrev
_citation_year
_citation_journal_volume
_citation_page_first
_citation_page_last
_citation_journal_id_ASTM
primary 'Physical Review, Serie 3. B - Condensed Matter (18,1978-)'
 2005 72 054412-1 054412-7 PRBMDO
_publ_author_name
;
Yoshida, Y.;Ikeda, S.I.;Matsuhata, H.;Shirakawa, N.;Lee, C.-
H.;Katano, S.
;
_cell_length_a                     5.3781(2)
_cell_length_b                     5.5227(2)
_cell_length_c                     19.5872(8)
_cell_angle_alpha                  90.
_cell_angle_beta                   90.
_cell_angle_gamma                  90.
_cell_volume                       581.77
_cell_formula_units_Z              4
_symmetry_space_group_name_H-M     'B b 21 m'
_symmetry_Int_Tables_number        36
_refine_ls_R_factor_all            .0598
loop_
_symmetry_equiv_pos_site_id
_symmetry_equiv_pos_as_xyz
  1	'-x, y+.5, z'
  2	'-x, y+.5, -z'
  3	'x, y, -z'
  4	'x, y, z'
  5	'-x+.5, y+.5, z+.5'
  6	'-x+.5, y+.5, -z+.5'
  7	'x+.5, y, -z+.5'
  8	'x+.5, y, z+.5'
loop_
_atom_type_symbol
_atom_type_oxidation_number
Ca2+	2
O2-	-2
Ru4+	4
loop_
_atom_site_label
_atom_site_type_symbol
_atom_site_symmetry_multiplicity
_atom_site_Wyckoff_symbol
_atom_site_fract_x
_atom_site_fract_y
_atom_site_fract_z
_atom_site_occupancy
_atom_site_attached_hydrogens
_atom_site_U_iso_or_equiv
Ru1 Ru4+ 8 b 0.2504(7) 0.7500(13) 0.4008(2) 1. 0 0.0063(6) 
Ca1 Ca2+ 4 a 0.7394(19) 0.2011(19) 0 1. 0 0.0068(16) 
Ca2 Ca2+ 8 b 0.2464(9) 0.3005(18) 0.3115(2) 1. 0 0.0125(13) 
O1 O2- 8 b 0.8163(5) 0.2334(14) 0.6987(2) 1. 0 0.0125(8) 
O2 O2- 4 a 0.3341(9) 0.7735(19) 0.5 1. 0 0.0148(14) 
O3 O2- 8 b 0.4478(7) 0.9499(14) 0.0823(2) 1. 0 0.0100(8) 
O4 O2- 8 b 0.9505(7) 0.0495(14) 0.1162(2) 1. 0 0.0098(9) 

#End of data_153769-ICSD


