data_380153-ICSD
#?2014 by Fachinformationszentrum Karlsruhe, and the U.S. Secretary of 
#Commerce on behalf of the United States.  All rights reserved.
_database_code_ICSD                380153
_audit_creation_date               1999/06/02
_audit_update_record               2014/08/01
_chemical_name_systematic          'Calcium Rhenium Oxide (11/4/24)'
_chemical_formula_structural       'Ca11 Re4 O24'
_chemical_formula_sum              'Ca11 O24 Re4'
_publ_section_title
;
The crystal structure of the potential ferroelectric calcium 
rhenate(VI,VII) Ca11 Re4 O24 and its relation to the structure of 
Sr11 Os4 O24
;
loop_
_citation_id
_citation_journal_abbrev
_citation_year
_citation_journal_volume
_citation_page_first
_citation_page_last
_citation_journal_id_ASTM
primary 'Zeitschrift fuer Naturforschung, B: Chemical Sciences'
 1998 53 31 36 ZNBSEN
_publ_author_name
;
Jeitschko, W.;Moens, H.A.;Rodewald, U.C.;Moeller, M.H.
;
_cell_length_a                     11.070(2)
_cell_length_b                     11.070(2)
_cell_length_c                     16.0930(30)
_cell_angle_alpha                  90.
_cell_angle_beta                   90.
_cell_angle_gamma                  90.
_cell_volume                       1972.12
_cell_formula_units_Z              4
_symmetry_space_group_name_H-M     'I 41'
_symmetry_Int_Tables_number        80
_refine_ls_R_factor_all            .0823
loop_
_symmetry_equiv_pos_site_id
_symmetry_equiv_pos_as_xyz
  1	'y, -x+.5, z+.25'
  2	'-y, x+.5, z+.25'
  3	'-x, -y, z'
  4	'x, y, z'
  5	'y+.5, -x, z+.75'
  6	'-y+.5, x, z+.75'
  7	'-x+.5, -y+.5, z+.5'
  8	'x+.5, y+.5, z+.5'
loop_
_atom_type_symbol
_atom_type_oxidation_number
Ca2+	2
O2-	-2
Re6.5+	6.5
loop_
_atom_site_label
_atom_site_type_symbol
_atom_site_symmetry_multiplicity
_atom_site_Wyckoff_symbol
_atom_site_fract_x
_atom_site_fract_y
_atom_site_fract_z
_atom_site_occupancy
_atom_site_attached_hydrogens
_atom_site_U_iso_or_equiv
Re1 Re6.5+ 8 b 0.00050(4) 0.25691(3) 0 1. 0 0 
Re2 Re6.5+ 8 b 0.24933(3) 0.00012(4) 0.25038(5) 1. 0 0 
Ca1 Ca2+ 8 b 0.2020(2) 0.7332(2) 0.1353(4) 1. 0 0 
Ca2 Ca2+ 8 b 0.2319(2) 0.2991(2) 0.1134(4) 1. 0 0 
Ca3 Ca2+ 8 b 0.2805(2) 0.0190(2) 0.0395(4) 1. 0 0 
Ca4 Ca2+ 8 b 0.2830(2) 0.5191(2) 0.9612(4) 1. 0 0 
Ca5 Ca2+ 4 a 0 0 0.9134(4) 1. 0 0 
Ca6 Ca2+ 4 a 0 0 0.1247(4) 1. 0 0 
Ca7 Ca2+ 4 a 0 0 0.6268(5) 1. 0 0 
O1 O2- 8 b 0.0093(8) 0.2990(8) 0.1157(7) 1. 0 0.0101(13) 
O2 O2- 8 b 0.1161(8) 0.6107(8) 0.2773(7) 1. 0 0.0107(14) 
O3 O2- 8 b 0.1185(9) 0.3802(9) 0.9673(8) 1. 0 0.013(2) 
O4 O2- 8 b 0.1309(9) 0.1492(9) 0.0091(8) 1. 0 0.016(2) 
O5 O2- 8 b 0.1387(9) 0.6566(8) 0.9873(7) 1. 0 0.013(2) 
O6 O2- 8 b 0.2094(8) 0.5096(8) 0.1325(7) 1. 0 0.0088(13) 
O7 O2- 8 b 0.1854(10) 0.1076(9) 0.1737(8) 1. 0 0.014(2) 
O8 O2- 8 b 0.1668(9) 0.0842(9) 0.3363(8) 1. 0 0.013(2) 
O9 O2- 8 b 0.3838(8) 0.1023(8) 0.2709(7) 1. 0 0.0096(13) 
O10 O2- 8 b 0.5812(9) 0.3330(9) 0.9148(8) 1. 0 0.013(2) 
O11 O2- 8 b 0.6034(8) 0.1184(8) 0.9776(7) 1. 0 0.0101(14) 
O12 O2- 8 b 0.6035(9) 0.3156(9) 0.0770(7) 1. 0 0.0115(15) 

loop_
_atom_site_aniso_label
_atom_site_aniso_type_symbol
_atom_site_aniso_U_11
_atom_site_aniso_U_22
_atom_site_aniso_U_33
_atom_site_aniso_U_12
_atom_site_aniso_U_13
_atom_site_aniso_U_23
Re1 Re6.5+ 0.0043(2) 0.00417(12) 0.00459(14) 0.00018(10) -.00015(12) 
-.0008(5)
Re2 Re6.5+ 0.00513(13) 0.0043(2) 0.00581(14) -.00004(11) -.0010(2) 
0.00053(11)
Ca1 Ca2+ 0.0093(9) 0.0143(10) 0.0143(10) -.0022(7) -.0032(7) 0.0048(8)
Ca2 Ca2+ 0.0146(10) 0.0110(9) 0.0122(10) 0.0003(7) 0.0016(8) -.0029(7)
Ca3 Ca2+ 0.0072(8) 0.0115(9) 0.0159(10) 0.0012(7) 0.0006(7) -.0013(7)
Ca4 Ca2+ 0.0091(9) 0.0108(9) 0.0206(12) -.0010(7) -.0021(8) 0.0015(8)
Ca5 Ca2+ 0.0082(11) 0.006(1) 0.0088(12) 0.0000(8) 0 0
Ca6 Ca2+ 0.0091(12) 0.022(2) 0.0078(13) 0.0053(12) 0 0
Ca7 Ca2+ 0.021(2) 0.0082(12) 0.0123(14) -.0053(12) 0 0
#End of data_380153-ICSD


