data_75606-ICSD
#?2014 by Fachinformationszentrum Karlsruhe, and the U.S. Secretary of 
#Commerce on behalf of the United States.  All rights reserved.
_database_code_ICSD                75606
_audit_creation_date               1996/04/22
_chemical_name_systematic          'Dibarium Zinc Bis(borate)'
_chemical_formula_structural       'Ba2 Zn (B O3)2'
_chemical_formula_sum              'B2 Ba2 O6 Zn1'
_publ_section_title
;
A new noncentrosymmetric orthoborate (Ba2 Zn (B O3)2)
;
loop_
_citation_id
_citation_journal_abbrev
_citation_year
_citation_journal_volume
_citation_journal_issue
_citation_page_first
_citation_page_last
_citation_journal_id_ASTM
primary 'Materials Research Bulletin' 1994 29 11 1203 1210 MRBUAC
_publ_author_name                  'Smith, R.W.;Koliha, L.J.'
_cell_length_a                     15.068(2)
_cell_length_b                     8.720(2)
_cell_length_c                     10.128(3)
_cell_angle_alpha                  90.
_cell_angle_beta                   90.
_cell_angle_gamma                  90.
_cell_volume                       1330.75
_cell_formula_units_Z              8
_symmetry_space_group_name_H-M     'P c a 21'
_symmetry_Int_Tables_number        29
_refine_ls_R_factor_all            .083
loop_
_symmetry_equiv_pos_site_id
_symmetry_equiv_pos_as_xyz
  1	'x+.5, -y, z'
  2	'-x+.5, y, z+.5'
  3	'-x, -y, z+.5'
  4	'x, y, z'
loop_
_atom_type_symbol
_atom_type_oxidation_number
B3+	3
Ba2+	2
O2-	-2
Zn2+	2
loop_
_atom_site_label
_atom_site_type_symbol
_atom_site_symmetry_multiplicity
_atom_site_Wyckoff_symbol
_atom_site_fract_x
_atom_site_fract_y
_atom_site_fract_z
_atom_site_occupancy
_atom_site_attached_hydrogens
_atom_site_B_iso_or_equiv
Ba1 Ba2+ 4 a 0.3820(2) 0.6752(5) 0.3884 1. 0 1.1(1) 
Ba2 Ba2+ 4 a 0.3856(2) 0.2087(3) 0.1755(4) 1. 0 1.1(1) 
Ba3 Ba2+ 4 a 0.1125(2) 0.1312(3) 0.1257(5) 1. 0 1.1(1) 
Ba4 Ba2+ 4 a 0.0982(2) 0.6869(4) 0.4132(5) 1. 0 1.1(1) 
Zn1 Zn2+ 4 a 0.2268(4) 0.0112(6) 0.4024(8) 1. 0 1.1(2) 
Zn2 Zn2+ 4 a 0.2106(4) 0.5032(6) 0.1483(7) 1. 0 1.2(2) 
B1 B3+ 4 a 0.013(4) 0.444(6) 0.173(6) 1. 0 1.(1) 
B2 B3+ 4 a 0.241(5) 0.844(6) 0.149(8) 1. 0 1.(1) 
B3 B3+ 4 a 0.235(4) 0.351(6) 0.408(8) 1. 0 1.(1) 
B4 B3+ 4 a 0.014(3) 0.018(6) 0.428(5) 1. 0 1.(1) 
O1 O2- 4 a 0.471(2) 0.692(3) 0.155(4) 1. 0 1.5(6) 
O2 O2- 4 a 0.481(2) 0.452(3) 0.263(3) 1. 0 0.8(6) 
O3 O2- 4 a 0.082(2) 0.477(4) 0.092(4) 1. 0 1.7(7) 
O4 O2- 4 a 0.244(2) 0.838(4) 0.017(4) 1. 0 1.2(6) 
O5 O2- 4 a 0.232(2) 0.705(3) 0.225(3) 1. 0 0.3(5) 
O6 O2- 4 a 0.276(2) 0.970(4) 0.223(4) 1. 0 1.3(6) 
O7 O2- 4 a 0.218(3) 0.478(4) 0.483(4) 1. 0 2.3(7) 
O8 O2- 4 a 0.231(2) 0.340(4) 0.275(4) 1. 0 1.3(6) 
O9 O2- 4 a 0.251(2) 0.211(3) 0.480(4) 1. 0 1.2(6) 
O10 O2- 4 a 0.010(2) 0.872(4) 0.005(4) 1. 0 1.8(7) 
O11 O2- 4 a 0.462(2) 0.110(4) 0.383(4) 1. 0 2.1(7) 
O12 O2- 4 a 0.094(3) 0.013(6) 0.394(6) 1. 0 4.(1) 

#End of data_75606-ICSD


