data_14157-ICSD
#?2014 by Fachinformationszentrum Karlsruhe, and the U.S. Secretary of 
#Commerce on behalf of the United States.  All rights reserved.
_database_code_ICSD                14157
_audit_creation_date               1980/12/31
_audit_update_record               2011/02/01
_chemical_name_systematic          'Potassium Nickel Oxide (3/2/4)'
_chemical_formula_structural       'K3 Ni2 O4'
_chemical_formula_sum              'K3 Ni2 O4'
_publ_section_title
;
Oxide eines neuen Formeltyps: Zur Kenntnis von K3 Ni2 O4 und K3 Pt2 
O4
;
loop_
_citation_id
_citation_journal_abbrev
_citation_year
_citation_journal_volume
_citation_page_first
_citation_page_last
_citation_journal_id_ASTM
primary 'Zeitschrift fuer Anorganische und Allgemeine Chemie (1950) (DE)'
 1980 462 92 105 ZAACAB
_publ_author_name                  'Zentgraf, H.;Claes, K.;Hoppe, R.'
_cell_length_a                     6.04(4)
_cell_length_b                     9.04(9)
_cell_length_c                     10.56(7)
_cell_angle_alpha                  90.
_cell_angle_beta                   90.
_cell_angle_gamma                  90.
_cell_volume                       576.59
_cell_formula_units_Z              4
_symmetry_space_group_name_H-M     'C m c m'
_symmetry_Int_Tables_number        63
_refine_ls_R_factor_all            .086
loop_
_symmetry_equiv_pos_site_id
_symmetry_equiv_pos_as_xyz
  1	'-x, y, -z+.5'
  2	'-x, -y, z+.5'
  3	'-x, y, z'
  4	'-x, -y, -z'
  5	'x, -y, z+.5'
  6	'x, y, -z+.5'
  7	'x, -y, -z'
  8	'x, y, z'
  9	'-x+.5, y+.5, -z+.5'
 10	'-x+.5, -y+.5, z+.5'
 11	'-x+.5, y+.5, z'
 12	'-x+.5, -y+.5, -z'
 13	'x+.5, -y+.5, z+.5'
 14	'x+.5, y+.5, -z+.5'
 15	'x+.5, -y+.5, -z'
 16	'x+.5, y+.5, z'
loop_
_atom_type_symbol
_atom_type_oxidation_number
K1+	1
Ni2.5+	2.5
O2-	-2
loop_
_atom_site_label
_atom_site_type_symbol
_atom_site_symmetry_multiplicity
_atom_site_Wyckoff_symbol
_atom_site_fract_x
_atom_site_fract_y
_atom_site_fract_z
_atom_site_occupancy
_atom_site_attached_hydrogens
K1 K1+ 8 f 0 0.3491(4) 0.0707(4) 1. 0 
K2 K1+ 4 c 0 0.7031(9) 0.25 1. 0 
Ni1 Ni2.5+ 4 a 0 0 0 1. 0 
Ni2 Ni2.5+ 4 c 0 0.0655(4) 0.25 1. 0 
O1 O2- 16 h 0.2956(13) 0.4322(10) 0.8837(7) 1. 0 

loop_
_atom_site_aniso_label
_atom_site_aniso_type_symbol
_atom_site_aniso_U_11
_atom_site_aniso_U_22
_atom_site_aniso_U_33
_atom_site_aniso_U_12
_atom_site_aniso_U_13
_atom_site_aniso_U_23
K1 K1+ 0.0196(19) 0.0222(21) 0.0206(18) 0 0 0.0053(16)
K2 K1+ 0.0225(33) 0.0590(49) 0.0210(29) 0 0 0
Ni1 Ni2.5+ 0.0123(14) 0.0190(16) 0.0064(12) 0 0 -.0035(12)
Ni2 Ni2.5+ 0.0118(15) 0.0145(15) 0.0073(13) 0 0 0
O1 O2- 0.0148(38) 0.0353(51) 0.0100(32) 0.0006(43) -.0006(32) -.0069(32)
#End of data_14157-ICSD


