data_200980-ICSD
#?2014 by Fachinformationszentrum Karlsruhe, and the U.S. Secretary of 
#Commerce on behalf of the United States.  All rights reserved.
_database_code_ICSD                200980
_audit_creation_date               1981/12/31
_chemical_name_systematic
;
Lithium Boron Oxide Chloride (5/7/12.5/1)
;
_chemical_formula_structural       'Li5 B7 O12.5 Cl'
_chemical_formula_sum              'B7 Cl1 Li5 O12.5'
_publ_section_title
;
Crystal structure of Li5 B7 O12.5 Cl at 296 and 425 k
;
loop_
_citation_id
_citation_journal_abbrev
_citation_year
_citation_journal_volume
_citation_page_first
_citation_page_last
_citation_journal_id_ASTM
primary 'Solid State Ionics' 1981 2 33 37 SSIOD3
_publ_author_name
;
Vlasse, M.;Levasseur, A.;Hagenmuller, P.
;
_cell_length_a                     12.136(3)
_cell_length_b                     12.136(3)
_cell_length_c                     12.136(3)
_cell_angle_alpha                  90.
_cell_angle_beta                   90.
_cell_angle_gamma                  90.
_cell_volume                       1787.42
_cell_formula_units_Z              8
_symmetry_space_group_name_H-M     'F 2 3'
_symmetry_Int_Tables_number        196
_refine_ls_R_factor_all            .064
loop_
_symmetry_equiv_pos_site_id
_symmetry_equiv_pos_as_xyz
  1	'-z, -x, y'
  2	'-y, -z, x'
  3	'-x, -y, z'
  4	'-z, x, -y'
  5	'-y, z, -x'
  6	'-x, y, -z'
  7	'z, -x, -y'
  8	'y, -z, -x'
  9	'x, -y, -z'
 10	'z, x, y'
 11	'y, z, x'
 12	'x, y, z'
 13	'-z, -x+.5, y+.5'
 14	'-z+.5, -x, y+.5'
 15	'-z+.5, -x+.5, y'
 16	'-y, -z+.5, x+.5'
 17	'-y+.5, -z, x+.5'
 18	'-y+.5, -z+.5, x'
 19	'-x, -y+.5, z+.5'
 20	'-x+.5, -y, z+.5'
 21	'-x+.5, -y+.5, z'
 22	'-z, x+.5, -y+.5'
 23	'-z+.5, x, -y+.5'
 24	'-z+.5, x+.5, -y'
 25	'-y, z+.5, -x+.5'
 26	'-y+.5, z, -x+.5'
 27	'-y+.5, z+.5, -x'
 28	'-x, y+.5, -z+.5'
 29	'-x+.5, y, -z+.5'
 30	'-x+.5, y+.5, -z'
 31	'z, -x+.5, -y+.5'
 32	'z+.5, -x, -y+.5'
 33	'z+.5, -x+.5, -y'
 34	'y, -z+.5, -x+.5'
 35	'y+.5, -z, -x+.5'
 36	'y+.5, -z+.5, -x'
 37	'x, -y+.5, -z+.5'
 38	'x+.5, -y, -z+.5'
 39	'x+.5, -y+.5, -z'
 40	'z, x+.5, y+.5'
 41	'z+.5, x, y+.5'
 42	'z+.5, x+.5, y'
 43	'y, z+.5, x+.5'
 44	'y+.5, z, x+.5'
 45	'y+.5, z+.5, x'
 46	'x, y+.5, z+.5'
 47	'x+.5, y, z+.5'
 48	'x+.5, y+.5, z'
loop_
_atom_type_symbol
_atom_type_oxidation_number
B3+	3
Cl1-	-1
Li1+	1
O2-	-2
loop_
_atom_site_label
_atom_site_type_symbol
_atom_site_symmetry_multiplicity
_atom_site_Wyckoff_symbol
_atom_site_fract_x
_atom_site_fract_y
_atom_site_fract_z
_atom_site_occupancy
_atom_site_attached_hydrogens
B1 B3+ 24 f 0 0 0.2515(3) 1. 0 
B2 B3+ 16 e 0.0808(3) 0.0808(3) 0.0808(3) 1. 0 
B3 B3+ 16 e 0.6011(2) 0.6011(2) 0.6011(2) 1. 0 
Li1 Li1+ 24 g 0.25 0.25 0.0416(9) 1. 0 
Li2 Li1+ 16 e 0.8650(5) 0.8650(5) 0.8650(5) 1. 0 
O1 O2- 48 h 0.0195(1) 0.0973(1) 0.1805(1) 1. 0 
O2 O2- 48 h 0.0227(1) 0.1827(1) 0.5992(1) 1. 0 
O3 O2- 4 a 0 0 0 1. 0 
Cl1 Cl1- 4 c 0.25 0.25 0.25 1. 0 
Cl2 Cl1- 4 d 0.75 0.75 0.75 1. 0 

loop_
_atom_site_aniso_label
_atom_site_aniso_type_symbol
_atom_site_aniso_U_11
_atom_site_aniso_U_22
_atom_site_aniso_U_33
_atom_site_aniso_U_12
_atom_site_aniso_U_13
_atom_site_aniso_U_23
B1 B3+ 0.0053(8) 0.0042(8) 0.0063(9) 0.0027(9) 0 0
B2 B3+ 0.0108(7) 0.0108(7) 0.0108(7) 0.0064(9) 0.0064(9) 0.0064(9)
B3 B3+ 0.0042(5) 0.0042(5) 0.0042(5) -.0011(5) -.0011(5) -.0011(5)
Li1 Li1+ 0.0169(36) 0.0229(42) 0.0266(47) -.0031(43) 0 0
Li2 Li1+ 0.0158(19) 0.0158(19) 0.0158(19) -.0005(21) -.0005(21) -.0005(21)
O1 O2- 0.0070(5) 0.0057(5) 0.0053(5) 0.0009(4) 0.0016(4) 0.0014(4)
O2 O2- 0.0071(5) 0.0062(5) 0.0059(5) 0.0031(4) 0.0015(4) 0.0017(4)
O3 O2- 0.0124(10) 0.0124(10) 0.0124(10) 0 0 0
Cl1 Cl1- 0.0101(3) 0.0101(3) 0.0101(3) 0 0 0
Cl2 Cl1- 0.0101(3) 0.0101(3) 0.0101(3) 0 0 0
#End of data_200980-ICSD


