data_20161-ICSD
#?2014 by Fachinformationszentrum Karlsruhe, and the U.S. Secretary of 
#Commerce on behalf of the United States.  All rights reserved.
_database_code_ICSD                20161
_audit_creation_date               1980/01/01
_audit_update_record               2012/08/01
_chemical_name_systematic          'Sodium Yttrium Silicate'
_chemical_formula_structural       'Na Y Si O4'
_chemical_formula_sum              'Na1 O4 Si1 Y1'
_publ_section_title
;
The refinement of the crystal structure of Na, Y-orthosilicate Na Y 
Si O4
;
loop_
_citation_id
_citation_journal_abbrev
_citation_year
_citation_journal_volume
_citation_page_first
_citation_page_last
_citation_journal_id_ASTM
primary 'Doklady Akademii Nauk SSSR' 1979 248 1108 1111 DANKAS
2 Kristallografiya 1966 11 681 681 KRISAJ
_publ_author_name
;
Merinov, B.V.;Maksimov, B.A.;Ilyukhin, V.V.;Belov, N.V.
;
_cell_length_a                     5.128(1)
_cell_length_b                     6.393(1)
_cell_length_c                     11.135(3)
_cell_angle_alpha                  90.
_cell_angle_beta                   90.
_cell_angle_gamma                  90.
_cell_volume                       365.04
_cell_formula_units_Z              4
_symmetry_space_group_name_H-M     'P c 21 n'
_symmetry_Int_Tables_number        33
_refine_ls_R_factor_all            .039
loop_
_symmetry_equiv_pos_site_id
_symmetry_equiv_pos_as_xyz
  1	'-x+.5, y, z+.5'
  2	'x+.5, y+.5, -z+.5'
  3	'-x, y+.5, -z'
  4	'x, y, z'
loop_
_atom_type_symbol
_atom_type_oxidation_number
Na1+	1
O2-	-2
Si4+	4
Y3+	3
loop_
_atom_site_label
_atom_site_type_symbol
_atom_site_symmetry_multiplicity
_atom_site_Wyckoff_symbol
_atom_site_fract_x
_atom_site_fract_y
_atom_site_fract_z
_atom_site_occupancy
_atom_site_attached_hydrogens
Y1 Y3+ 4 a 0.0003(2) 0 0.2197(6) 1. 0 
Na1 Na1+ 4 a 0.499(3) 0.253(3) 0.002(1) 1. 0 
Si1 Si4+ 4 a 0.0627(4) 0.506(4) 0.0996(2) 1. 0 
O1 O2- 4 a 0.206(3) 0.710(2) 0.166(1) 1. 0 
O2 O2- 4 a 0.201(3) 0.313(2) 0.176(2) 1. 0 
O3 O2- 4 a 0.330(1) 0.495(3) 0.462(1) 1. 0 
O4 O2- 4 a 0.249(1) 0.017(3) 0.387(3) 1. 0 

#End of data_20161-ICSD


