data_69130-ICSD
#?2014 by Fachinformationszentrum Karlsruhe, and the U.S. Secretary of 
#Commerce on behalf of the United States.  All rights reserved.
_database_code_ICSD                69130
_audit_creation_date               1992/01/20
_audit_update_record               2008/02/01
_chemical_name_systematic
;
Tetrapotassium Dioxouranium(VI) Carbonate
;
_chemical_formula_structural       'K4 (U O2) (C O3)3'
_chemical_formula_sum              'C3 K4 O11 U1'
_publ_section_title
;
The determination of the crystal structure of tetrapotassium uranyl 
tricarbonate by powder X-ray diffraction method
;
loop_
_citation_id
_citation_journal_abbrev
_citation_year
_citation_journal_volume
_citation_journal_issue
_citation_page_first
_citation_page_last
_citation_journal_id_ASTM
primary 'Chinese Journal of Chemistry' 1990 1990 4 313 318 CJOCEV
_publ_author_name
;
Han Jian-Cheng;Rong Suo-Bao;Chen Qi-Ming;Wu Xin-Ran
;
_cell_length_a                     10.240(7)
_cell_length_b                     9.198(4)
_cell_length_c                     12.222(12)
_cell_angle_alpha                  90.
_cell_angle_beta                   95.12(4)
_cell_angle_gamma                  90.
_cell_volume                       1146.57
_cell_formula_units_Z              4
_symmetry_space_group_name_H-M     'C 1 2/c 1'
_symmetry_Int_Tables_number        15
_refine_ls_R_factor_all            .118
loop_
_symmetry_equiv_pos_site_id
_symmetry_equiv_pos_as_xyz
  1	'x, -y, z+.5'
  2	'-x, -y, -z'
  3	'-x, y, -z+.5'
  4	'x, y, z'
  5	'x+.5, -y+.5, z+.5'
  6	'-x+.5, -y+.5, -z'
  7	'-x+.5, y+.5, -z+.5'
  8	'x+.5, y+.5, z'
loop_
_atom_type_symbol
_atom_type_oxidation_number
C4+	4
K1+	1
O2-	-2
U6+	6
loop_
_atom_site_label
_atom_site_type_symbol
_atom_site_symmetry_multiplicity
_atom_site_Wyckoff_symbol
_atom_site_fract_x
_atom_site_fract_y
_atom_site_fract_z
_atom_site_occupancy
_atom_site_attached_hydrogens
_atom_site_B_iso_or_equiv
U1 U6+ 4 e 0 0.19404(8) 0.25 1. 0 1.02(4) 
K1 K1+ 8 f 0.6144(5) 0.1830(8) 0.0552(5) 1. 0 1.34(7) 
K2 K1+ 8 f 0.1888(3) 0.1626(1) 0.8500(1) 1. 0 1.35(7) 
C1 C4+ 4 e 0 0.5182(27) 0.25 1. 0 0.9(3) 
C2 C4+ 8 f 0.8903(8) 0.9675(2) 0.9288(1) 1. 0 1.4(2) 
O1 O2- 4 e 0 0.6524(11) 0.25 1. 0 1.38(8) 
O2 O2- 8 f 0.4684(3) 0.0574(1) 0.8397(14) 1. 0 1.4(1) 
O3 O2- 8 f 0.8936(1) 0.8225(6) 0.9273(1) 1. 0 1.4(1) 
O4 O2- 8 f 0.0477(1) 0.0393(9) 0.6466(7) 1. 0 1.32(9) 
O5 O2- 8 f 0.8332(1) 0.9661(8) 0.4966(11) 1. 0 1.22(7) 
O6 O2- 8 f 0.6561(33) 0.6974(7) 0.3243(2) 1. 0 1.27(1) 

#End of data_69130-ICSD


