data_248206-ICSD
#?2014 by Fachinformationszentrum Karlsruhe, and the U.S. Secretary of 
#Commerce on behalf of the United States.  All rights reserved.
_database_code_ICSD                248206
_audit_creation_date               2011/02/01
_chemical_name_systematic
;
Tricalcium Lithium Hexaoxoosmate(V)
;
_chemical_formula_structural       'Ca3 Li Os O6'
_chemical_formula_sum              'Ca3 Li1 O6 Os1'
_publ_section_title
;
Crystal growth and structure and magnetic properties of the 5d oxide 
Ca3 Li Os O6: Extended superexchange magnetic interaction in oxide
;
loop_
_citation_id
_citation_journal_abbrev
_citation_year
_citation_journal_volume
_citation_journal_issue
_citation_page_first
_citation_page_last
_citation_journal_id_ASTM
primary 'Journal of the American Chemical Society' 2010 132 24 8474 8483 JACSAT
_publ_author_name
;
Shi, Y.G.;Guo, Y.F.;Yu, S.;Arai, M.;Sato, A.;Belik, A.A.;Yamaura, 
K.;Takayama Muromachi, E.
;
_cell_length_a                     9.2738(2)
_cell_length_b                     9.2738(2)
_cell_length_c                     10.7801(4)
_cell_angle_alpha                  90.00
_cell_angle_beta                   90.00
_cell_angle_gamma                  120.00
_cell_volume                       802.91
_cell_formula_units_Z              6
_symmetry_space_group_name_H-M     'R -3 c H'
_symmetry_Int_Tables_number        167
_refine_ls_R_factor_all            .0218
loop_
_symmetry_equiv_pos_site_id
_symmetry_equiv_pos_as_xyz
  1	'x-y, -y, -z+.5'
  2	'-x, -x+y, -z+.5'
  3	'y, x, -z+.5'
  4	'x-y, x, -z'
  5	'y, -x+y, -z'
  6	'-x, -y, -z'
  7	'-x+y, y, z+.5'
  8	'x, x-y, z+.5'
  9	'-y, -x, z+.5'
 10	'-x+y, -x, z'
 11	'-y, x-y, z'
 12	'x, y, z'
 13	'x-y+.6666, -y+.3333, -z+.8333'
 14	'x-y+.3333, -y+.6666, -z+.1666'
 15	'-x+.6666, -x+y+.3333, -z+.8333'
 16	'-x+.3333, -x+y+.6666, -z+.1666'
 17	'y+.6666, x+.3333, -z+.8333'
 18	'y+.3333, x+.6666, -z+.1666'
 19	'x-y+.6666, x+.3333, -z+.3333'
 20	'x-y+.3333, x+.6666, -z+.6666'
 21	'y+.6666, -x+y+.3333, -z+.3333'
 22	'y+.3333, -x+y+.6666, -z+.6666'
 23	'-x+.6666, -y+.3333, -z+.3333'
 24	'-x+.3333, -y+.6666, -z+.6666'
 25	'-x+y+.6666, y+.3333, z+.8333'
 26	'-x+y+.3333, y+.6666, z+.1666'
 27	'x+.6666, x-y+.3333, z+.8333'
 28	'x+.3333, x-y+.6666, z+.1666'
 29	'-y+.6666, -x+.3333, z+.8333'
 30	'-y+.3333, -x+.6666, z+.1666'
 31	'-x+y+.6666, -x+.3333, z+.3333'
 32	'-x+y+.3333, -x+.6666, z+.6666'
 33	'-y+.6666, x-y+.3333, z+.3333'
 34	'-y+.3333, x-y+.6666, z+.6666'
 35	'x+.6666, y+.3333, z+.3333'
 36	'x+.3333, y+.6666, z+.6666'
loop_
_atom_type_symbol
_atom_type_oxidation_number
Ca2+	2
Li1+	1
O2-	-2
Os5+	5
loop_
_atom_site_label
_atom_site_type_symbol
_atom_site_symmetry_multiplicity
_atom_site_Wyckoff_symbol
_atom_site_fract_x
_atom_site_fract_y
_atom_site_fract_z
_atom_site_occupancy
_atom_site_attached_hydrogens
_atom_site_U_iso_or_equiv
Os1 Os5+ 6 b 0.0000 0.0000 0.0000 1 0 0.00792(9) 
Ca1 Ca2+ 18 e 0.64570(6) 0.0000 0.2500 1 0 0.01067(12) 
O1 O2- 36 f 0.0277(2) 0.8442(2) 0.39427(16) 1 0 0.0128(3) 
Li1 Li1+ 6 a 0.0000 0.0000 0.2500 1 0 0.025(4) 

loop_
_atom_site_aniso_label
_atom_site_aniso_type_symbol
_atom_site_aniso_U_11
_atom_site_aniso_U_22
_atom_site_aniso_U_33
_atom_site_aniso_U_12
_atom_site_aniso_U_13
_atom_site_aniso_U_23
Os1 Os5+ 0.00836(10) 0.00836(10) 0.00704(12) 0.00418(5) 0.000 0.000
Ca1 Ca2+ 0.01129(17) 0.0110(2) 0.0096(2) 0.00551(11) -0.00043(7) 
-0.00087(15)
O1 O2- 0.00836(10) 0.00836(10) 0.00704(12) 0.00418(5) 0.000 0.000
Li1 Li1+ 0.028(7) 0.028(7) 0.019(9) 0.014(3) 0.000 0.000
#End of data_248206-ICSD


