data_35651-ICSD
#?2014 by Fachinformationszentrum Karlsruhe, and the U.S. Secretary of 
#Commerce on behalf of the United States.  All rights reserved.
_database_code_ICSD                35651
_audit_creation_date               1983/12/31
_chemical_name_systematic          'Zinc Sodium Catena-phosphate'
_chemical_formula_structural       'Zn Na (P O3)3'
_chemical_formula_sum              'Na1 O9 P3 Zn1'
_publ_section_title
;
Crystal Chemistry of M(II) Ag (P O3)3 Polyphosphates for M(II) = 
Zn,Co,Ni,Mg and M(II)4 Na4 (P4 O12)3 Tetrametaphosphates for 
M(II)=Zn,Co,Ni: Crystal Structures of Zn Ag (P O3)3 and Zn4 Na4 (P4 
O12)3
;
loop_
_citation_id
_citation_journal_abbrev
_citation_year
_citation_journal_volume
_citation_page_first
_citation_page_last
_citation_journal_id_ASTM
primary 'Journal of Solid State Chemistry' 1983 49 341 352 JSSCBI
_publ_author_name                  'Averbuch-Pouchot, M.T.;Durif, A.'
_cell_length_a                     14.58
_cell_length_b                     14.58
_cell_length_c                     14.58
_cell_angle_alpha                  90.
_cell_angle_beta                   90.
_cell_angle_gamma                  90.
_cell_volume                       3099.36
_cell_formula_units_Z              16
_symmetry_space_group_name_H-M     'I -4 3 d'
_symmetry_Int_Tables_number        220
_refine_ls_R_factor_all            .045
loop_
_symmetry_equiv_pos_site_id
_symmetry_equiv_pos_as_xyz
  1	'-y+.25, -x+.75, z+.75'
  2	'y+.75, -x+.25, -z+.75'
  3	'-y+.75, x+.75, -z+.25'
  4	'y+.25, x+.25, z+.25'
  5	'z+.5, -x+.5, -y'
  6	'-z+.5, -x, y+.5'
  7	'-z, x+.5, -y+.5'
  8	'z, x, y'
  9	'z+.75, -y+.25, -x+.75'
 10	'-z+.75, y+.75, -x+.25'
 11	'-z+.25, -y+.75, x+.75'
 12	'z+.25, y+.25, x+.25'
 13	'-y, z+.5, -x+.5'
 14	'y+.5, -z+.5, -x'
 15	'-y+.5, -z, x+.5'
 16	'y, z, x'
 17	'-x+.75, z+.75, -y+.25'
 18	'-x+.25, -z+.75, y+.75'
 19	'x+.75, -z+.25, -y+.75'
 20	'x+.25, z+.25, y+.25'
 21	'-x+.5, -y, z+.5'
 22	'-x, y+.5, -z+.5'
 23	'x+.5, -y+.5, -z'
 24	'x, y, z'
 25	'-y+.75, -x+.25, z+.25'
 26	'y+.25, -x+.75, -z+.25'
 27	'-y+.25, x+.25, -z+.75'
 28	'y+.75, x+.75, z+.75'
 29	'z, -x, -y+.5'
 30	'-z, -x+.5, y'
 31	'-z+.5, x, -y'
 32	'z+.5, x+.5, y+.5'
 33	'z+.25, -y+.75, -x+.25'
 34	'-z+.25, y+.25, -x+.75'
 35	'-z+.75, -y+.25, x+.25'
 36	'z+.75, y+.75, x+.75'
 37	'-y+.5, z, -x'
 38	'y, -z, -x+.5'
 39	'-y, -z+.5, x'
 40	'y+.5, z+.5, x+.5'
 41	'-x+.25, z+.25, -y+.75'
 42	'-x+.75, -z+.25, y+.25'
 43	'x+.25, -z+.75, -y+.25'
 44	'x+.75, z+.75, y+.75'
 45	'-x, -y+.5, z'
 46	'-x+.5, y, -z'
 47	'x, -y, -z+.5'
 48	'x+.5, y+.5, z+.5'
loop_
_atom_type_symbol
_atom_type_oxidation_number
Na1+	1
O2-	-2
P5+	5
Zn2+	2
loop_
_atom_site_label
_atom_site_type_symbol
_atom_site_symmetry_multiplicity
_atom_site_Wyckoff_symbol
_atom_site_fract_x
_atom_site_fract_y
_atom_site_fract_z
_atom_site_occupancy
_atom_site_attached_hydrogens
Zn1 Zn2+ 16 c 0.2350(2) 0.2350(2) 0.2350(2) 1. 0 
P1 P5+ 48 e 0.3281(1) 0.3914(1) 0.1140(1) 1. 0 
Na1 Na1+ 16 c 0.1097(8) 0.1097(8) 0.1097(8) 1. 0 
O1 O2- 48 e 0.0837(4) 0.0532(4) 0.4182(4) 1. 0 
O2 O2- 48 e 0.4767(4) 0.1096(4) 0.3838(4) 1. 0 
O3 O2- 48 e 0.2240(4) 0.4217(4) 0.0984(4) 1. 0 

#End of data_35651-ICSD


