data_415322-ICSD
#?2014 by Fachinformationszentrum Karlsruhe, and the U.S. Secretary of 
#Commerce on behalf of the United States.  All rights reserved.
_database_code_ICSD                415322
_audit_creation_date               2006/10/01
_audit_update_record               2012/02/01
_chemical_name_systematic
;
Potassium Terbium Diphosphate(V) Dihydrate
;
_chemical_formula_structural       'K Tb (P2 O7) (H2 O)2'
_chemical_formula_sum              'H4 K1 O9 P2 Tb1'
_publ_section_title
;
Crystal structure of new lanthanide diphosphates K Ln P2 O7 * 2(H2 O) 
(Ln= Gd, Tb, Yb)
;
loop_
_citation_id
_citation_journal_abbrev
_citation_year
_citation_journal_volume
_citation_journal_issue
_citation_page_first
_citation_page_last
_citation_journal_id_ASTM
primary 'Zeitschrift fuer Kristallographie (1979-2010)' 2006 221 3 173 177 ZEKRDZ
_publ_author_name
;
Tahiri, A.A.;El Bali, B.;Lachkar, M.;Piniella, J.F.;Capitelli, F.
;
_cell_length_a                     7.7381(6)
_cell_length_b                     10.6363(8)
_cell_length_c                     10.1059(7)
_cell_angle_alpha                  90.00
_cell_angle_beta                   93.283(6)
_cell_angle_gamma                  90.00
_cell_volume                       830.4
_cell_formula_units_Z              4
_symmetry_space_group_name_H-M     'P 1 21/c 1'
_symmetry_Int_Tables_number        14
_refine_ls_R_factor_all            .0426
loop_
_symmetry_equiv_pos_site_id
_symmetry_equiv_pos_as_xyz
  1	'x, -y+.5, z+.5'
  2	'-x, -y, -z'
  3	'-x, y+.5, -z+.5'
  4	'x, y, z'
loop_
_atom_type_symbol
_atom_type_oxidation_number
H1+	1
K1+	1
O2-	-2
P5+	5
Tb3+	3
loop_
_atom_site_label
_atom_site_type_symbol
_atom_site_symmetry_multiplicity
_atom_site_Wyckoff_symbol
_atom_site_fract_x
_atom_site_fract_y
_atom_site_fract_z
_atom_site_occupancy
_atom_site_attached_hydrogens
_atom_site_U_iso_or_equiv
Tb1 Tb3+ 4 e 0.74930(3) 0.38044(2) 0.16993(2) 1 0 0.03117(15) 
K1 K1+ 4 e 0.25252(19) 0.28407(17) 0.14902(17) 1 0 0.0502(3) 
P1 P5+ 4 e 0.6024(2) 0.10560(13) 0.33205(15) 1 0 0.0318(3) 
P2 P5+ 4 e 0.96539(19) 0.14815(14) 0.37259(14) 1 0 0.0316(3) 
O1 O2- 4 e 0.5732(6) 0.1433(4) 0.4733(4) 1 0 0.0375(8) 
O2 O2- 4 e 0.5015(6) -0.0083(4) 0.2836(4) 1 0 0.0373(8) 
O3 O2- 4 e 0.5821(6) 0.2157(4) 0.2363(4) 1 0 0.0380(8) 
O4 O2- 4 e 0.8032(6) 0.0579(4) 0.3287(4) 1 0 0.0368(8) 
O5 O2- 4 e 0.9405(6) 0.1885(5) 0.5136(4) 1 0 0.0431(10) 
O6 O2- 4 e 1.1258(6) 0.0696(4) 0.3596(5) 1 0 0.0435(10) 
O7 O2- 4 e 0.9580(6) 0.2588(4) 0.2791(4) 1 0 0.0396(9) 
O8 O2- 4 e 0.3746(9) 0.1243(5) -0.0561(7) 1 0 0.0579(14) 
O9 O2- 4 e 0.7860(8) 0.4446(6) 0.4044(5) 1 0 0.0563(13) 
H1 H1+ 4 e 0.444(10) 0.171(3) -0.109(6) 1 0 0.084 
H2 H1+ 4 e 0.281(3) 0.089(7) -0.103(6) 1 0 0.084 
H3 H1+ 4 e 0.673(4) 0.434(8) 0.447(3) 1 0 0.084 
H4 H1+ 4 e 0.818(12) 0.536(3) 0.410(3) 1 0 0.084 

loop_
_atom_site_aniso_label
_atom_site_aniso_type_symbol
_atom_site_aniso_U_11
_atom_site_aniso_U_22
_atom_site_aniso_U_33
_atom_site_aniso_U_12
_atom_site_aniso_U_13
_atom_site_aniso_U_23
Tb1 Tb3+ 0.0307(2) 0.0311(2) 0.0318(2) 0.00026(8) 0.00197(12) 0.00077(8)
K1 K1+ 0.0372(7) 0.0562(9) 0.0567(8) 0.0025(6) -0.0008(6) -0.0009(7)
P1 P5+ 0.0323(7) 0.0314(6) 0.0316(7) -0.0027(5) 0.0005(5) 0.0009(5)
P2 P5+ 0.0299(7) 0.0313(6) 0.0337(7) 0.0005(5) 0.0022(5) 0.0012(5)
O1 O2- 0.038(2) 0.043(2) 0.0323(19) 0.0017(17) 0.0040(15) -0.0002(16)
O2 O2- 0.036(2) 0.037(2) 0.039(2) -0.0046(16) 0.0017(16) -0.0004(16)
O3 O2- 0.035(2) 0.039(2) 0.041(2) -0.0004(16) 0.0008(16) 0.0059(16)
O4 O2- 0.033(2) 0.0338(19) 0.044(2) -0.0041(16) 0.0026(15) -0.0021(16)
O5 O2- 0.041(2) 0.053(2) 0.035(2) -0.0108(19) 0.0032(17) -0.0010(18)
O6 O2- 0.031(2) 0.040(2) 0.059(3) 0.0021(17) 0.0039(18) -0.002(2)
O7 O2- 0.036(2) 0.042(2) 0.041(2) -0.0005(16) 0.0020(16) 0.0074(17)
O8 O2- 0.060(4) 0.056(3) 0.058(3) -0.011(2) 0.013(3) -0.004(2)
O9 O2- 0.060(3) 0.070(3) 0.039(2) 0.013(3) -0.001(2) -0.008(2)
#End of data_415322-ICSD


