data_33887-ICSD
#?2014 by Fachinformationszentrum Karlsruhe, and the U.S. Secretary of 
#Commerce on behalf of the United States.  All rights reserved.
_database_code_ICSD                33887
_audit_creation_date               1992/01/20
_audit_update_record               2012/08/01
_chemical_name_systematic
;
Dipotassium Rubidium Pentafluoropalladate
;
_chemical_formula_structural       'K2 Rb Pd F5'
_chemical_formula_sum              'F5 K2 Pd1 Rb1'
_publ_section_title
;
Neue Fluoropalladate(II) M2(PdF4) (M = Na, K) sowie K2RbPdF5
;
loop_
_citation_id
_citation_journal_abbrev
_citation_year
_citation_journal_volume
_citation_page_first
_citation_page_last
_citation_journal_id_ASTM
primary 'Zeitschrift fuer Anorganische und Allgemeine Chemie (1950) (DE)'
 1991 597 9 18 ZAACAB
_publ_author_name                  'Bachmann, B.;Mueller, B.G.'
_cell_length_a                     7.249(1)
_cell_length_b                     7.249(1)
_cell_length_c                     6.279(1)
_cell_angle_alpha                  90.
_cell_angle_beta                   90.
_cell_angle_gamma                  90.
_cell_volume                       329.95
_cell_formula_units_Z              2
_symmetry_space_group_name_H-M     'P 4/m b m'
_symmetry_Int_Tables_number        127
_refine_ls_R_factor_all            .0649
loop_
_symmetry_equiv_pos_site_id
_symmetry_equiv_pos_as_xyz
  1	'y+.5, x+.5, -z'
  2	'-y+.5, -x+.5, -z'
  3	'-y, x, -z'
  4	'y, -x, -z'
  5	'x+.5, -y+.5, -z'
  6	'-x+.5, y+.5, -z'
  7	'x, y, -z'
  8	'-x, -y, -z'
  9	'-y+.5, -x+.5, z'
 10	'y+.5, x+.5, z'
 11	'y, -x, z'
 12	'-y, x, z'
 13	'-x+.5, y+.5, z'
 14	'x+.5, -y+.5, z'
 15	'-x, -y, z'
 16	'x, y, z'
loop_
_atom_type_symbol
_atom_type_oxidation_number
F1-	-1
K1+	1
Pd2+	2
Rb1+	1
loop_
_atom_site_label
_atom_site_type_symbol
_atom_site_symmetry_multiplicity
_atom_site_Wyckoff_symbol
_atom_site_fract_x
_atom_site_fract_y
_atom_site_fract_z
_atom_site_occupancy
_atom_site_attached_hydrogens
Rb1 Rb1+ 2 a 0 0 0 1. 0 
K1 K1+ 4 h 0.1769(3) 0.6769(3) 0.5 1. 0 
Pd1 Pd2+ 2 d 0 0.5 0 1. 0 
F1 F1- 2 b 0 0 0.5 1. 0 
F2 F1- 8 k 0.3665(7) 0.8665(7) 0.2161(13) 1. 0 

loop_
_atom_site_aniso_label
_atom_site_aniso_type_symbol
_atom_site_aniso_U_11
_atom_site_aniso_U_22
_atom_site_aniso_U_33
_atom_site_aniso_U_12
_atom_site_aniso_U_13
_atom_site_aniso_U_23
Rb1 Rb1+ 0.0342(9) 0.0342(9) 0.0627(19) 0 0 0
K1 K1+ 0.0131(8) 0.0131(8) 0.0157(14) -.0007(7) 0 0
Pd1 Pd2+ 0.0218(6) 0.0218(6) 0.0163(8) -.0003(5) 0 0
F1 F1- 0.0270(37) 0.0270(37) 0.0844(57) 0 0 0
F2 F1- 0.0420(26) 0.0420(26) 0.0362(37) -.0193(18) 0.0054(13) 0.0054(13)
#End of data_33887-ICSD


