data_86289-ICSD
#?2014 by Fachinformationszentrum Karlsruhe, and the U.S. Secretary of 
#Commerce on behalf of the United States.  All rights reserved.
_database_code_ICSD                86289
_audit_creation_date               1999/11/30
_chemical_name_systematic
;
Potassium Praseodymium Cyclo-tetraphosphate(V)
;
_chemical_formula_structural       'K Pr (P4 O12)'
_chemical_formula_sum              'K1 O12 P4 Pr1'
_publ_section_title
;
Crystal structure of potassium praseodymium metaphosphate
;
loop_
_citation_id
_citation_journal_abbrev
_citation_year
_citation_journal_volume
_citation_journal_issue
_citation_page_first
_citation_page_last
_citation_journal_id_ASTM
primary 'Yingyong Huaxue' 1987 4 2 46 50 YIHUED
_publ_author_name
;
Zhou, Q.-L.;Hu, N.-H.;Hong, G.-Y.;Yue, S.-Y.
;
_cell_length_a                     7.913(2)
_cell_length_b                     12.489(3)
_cell_length_c                     10.659(3)
_cell_angle_alpha                  90.
_cell_angle_beta                   110.48(2)
_cell_angle_gamma                  90.
_cell_volume                       986.8
_cell_formula_units_Z              4
_symmetry_space_group_name_H-M     'C 1 2/c 1'
_symmetry_Int_Tables_number        15
_refine_ls_R_factor_all            .08
loop_
_symmetry_equiv_pos_site_id
_symmetry_equiv_pos_as_xyz
  1	'x, -y, z+.5'
  2	'-x, -y, -z'
  3	'-x, y, -z+.5'
  4	'x, y, z'
  5	'x+.5, -y+.5, z+.5'
  6	'-x+.5, -y+.5, -z'
  7	'-x+.5, y+.5, -z+.5'
  8	'x+.5, y+.5, z'
loop_
_atom_type_symbol
_atom_type_oxidation_number
K1+	1
O2-	-2
P5+	5
Pr3+	3
loop_
_atom_site_label
_atom_site_type_symbol
_atom_site_symmetry_multiplicity
_atom_site_Wyckoff_symbol
_atom_site_fract_x
_atom_site_fract_y
_atom_site_fract_z
_atom_site_occupancy
_atom_site_attached_hydrogens
_atom_site_U_iso_or_equiv
Pr1 Pr3+ 4 e 0 0.3796(1) 0.25 1. 0 0.000(1) 
K1 K1+ 4 e 0 0.3168(4) 0.75 1. 0 0.037(2) 
P1 P5+ 8 f 0.4593(4) 0.3295(2) 0.5001(3) 1. 0 0.001(1) 
P2 P5+ 8 f 0.2848(4) 0.5220(2) 0.5593(3) 1. 0 0.002(1) 
O1 O2- 8 f 0.5630(11) 0.2458(6) 0.5944(8) 1. 0 0.010(2) 
O2 O2- 8 f 0.4284(11) 0.4274(6) 0.5852(8) 1. 0 0.006(2) 
O3 O2- 8 f 0.2905(11) 0.2982(6) 0.3884(8) 1. 0 0.005(2) 
O4 O2- 8 f 0.5900(14) 0.3740(6) 0.4259(11) 1. 0 0.008(2) 
O5 O2- 8 f 0.1585(11) 0.5142(7) 0.4174(8) 1. 0 0.005(2) 
O6 O2- 8 f 0.2182(12) 0.5231(7) 0.6706(10) 1. 0 0.011(2) 

#End of data_86289-ICSD


