data_37070-ICSD
#?2014 by Fachinformationszentrum Karlsruhe, and the U.S. Secretary of 
#Commerce on behalf of the United States.  All rights reserved.
_database_code_ICSD                37070
_audit_creation_date               1983/12/31
_audit_update_record               2003/10/01
_chemical_name_systematic          'Dirubidium Tetrachlorozincate'
_chemical_formula_structural       'Rb2 (Zn Cl4)'
_chemical_formula_sum              'Cl4 Rb2 Zn1'
_publ_section_title
;
Structure of Rubidium Tetrachlorozincate(II), Rb2 (Zn Cl4)
;
loop_
_citation_id
_citation_journal_abbrev
_citation_year
_citation_journal_volume
_citation_page_first
_citation_page_last
_citation_journal_id_ASTM
primary 'Acta Crystallographica, Section C: Crystal Structure Communications'
 1983 39 317 318 ACSCEE
2 'Phase Transition' 1992 38 127 220 PHTRDP
_publ_author_name                  'Secco, A.S.;Trotter, J.'
_cell_length_a                     9.2636(6)
_cell_length_b                     7.2859(11)
_cell_length_c                     12.7193(13)
_cell_angle_alpha                  90.
_cell_angle_beta                   90.
_cell_angle_gamma                  90.
_cell_volume                       858.47
_cell_formula_units_Z              4
_symmetry_space_group_name_H-M     'P n m a'
_symmetry_Int_Tables_number        62
_refine_ls_R_factor_all            .037
loop_
_symmetry_equiv_pos_site_id
_symmetry_equiv_pos_as_xyz
  1	'x+.5, y, -z+.5'
  2	'x, -y+.5, z'
  3	'-x+.5, y+.5, z+.5'
  4	'-x, -y, -z'
  5	'-x+.5, -y, z+.5'
  6	'-x, y+.5, -z'
  7	'x+.5, -y+.5, -z+.5'
  8	'x, y, z'
loop_
_atom_type_symbol
_atom_type_oxidation_number
Cl1-	-1
Rb1+	1
Zn2+	2
loop_
_atom_site_label
_atom_site_type_symbol
_atom_site_symmetry_multiplicity
_atom_site_Wyckoff_symbol
_atom_site_fract_x
_atom_site_fract_y
_atom_site_fract_z
_atom_site_occupancy
_atom_site_attached_hydrogens
Rb1 Rb1+ 4 c 0.6318(2) 0.25 0.4065(2) 1. 0 
Rb2 Rb1+ 4 c 0.4853(1) 0.25 0.8194(1) 1. 0 
Zn1 Zn2+ 4 c 0.2245(2) 0.25 0.4223(1) 1. 0 
Cl1 Cl1- 4 c -.0165(4) 0.25 0.4174(3) 1. 0 
Cl2 Cl1- 4 c 0.3184(4) 0.25 0.5858(3) 1. 0 
Cl3 Cl1- 8 d 0.3153(4) 0.0023(4) 0.3414(3) 1. 0 

loop_
_atom_site_aniso_label
_atom_site_aniso_type_symbol
_atom_site_aniso_U_11
_atom_site_aniso_U_22
_atom_site_aniso_U_33
_atom_site_aniso_U_12
_atom_site_aniso_U_13
_atom_site_aniso_U_23
Rb1 Rb1+ 0.0312(9) 0.065(1) 0.103(2) 0 0.0055(8) 0
Rb2 Rb1+ 0.0297(7) 0.060(1) 0.0330(8) 0 0.0009(5) 0
Zn1 Zn2+ 0.0245(8) 0.0328(9) 0.0294(8) 0 0.0002(6) 0
Cl1 Cl1- 0.023(2) 0.128(5) 0.058(3) 0 0.008(2) 0
Cl2 Cl1- 0.035(2) 0.149(5) 0.031(2) 0 0.009(1) 0
Cl3 Cl1- 0.060(2) 0.050(2) 0.128(3) -0.010(2) 0.034(2) -0.045(2)
#End of data_37070-ICSD


