data_46022-ICSD
#?2014 by Fachinformationszentrum Karlsruhe, and the U.S. Secretary of 
#Commerce on behalf of the United States.  All rights reserved.
_database_code_ICSD                46022
_audit_creation_date               1983/12/31
_chemical_name_systematic          'Lithium Bismuth Dioxide'
_chemical_formula_structural       'Li Bi O2'
_chemical_formula_sum              'Bi1 Li1 O2'
_publ_section_title
;
Conductivity, Structure, And Specific Heat of Li Bi O2
;
loop_
_citation_id
_citation_journal_abbrev
_citation_year
_citation_journal_volume
_citation_page_first
_citation_page_last
_citation_journal_id_ASTM
primary 'Studies in Inorganic Chemistry' 1983 3 287 290 SINCDO
_publ_author_name
;
Andersen, N.H.;Poulsen, F.W.;Eichinger, G.
;
_cell_length_a                     18.041
_cell_length_b                     5.208
_cell_length_c                     4.999
_cell_angle_alpha                  90.
_cell_angle_beta                   90.
_cell_angle_gamma                  90.
_cell_volume                       469.69
_cell_formula_units_Z              8
_symmetry_space_group_name_H-M     'I b a m'
_symmetry_Int_Tables_number        72
loop_
_symmetry_equiv_pos_site_id
_symmetry_equiv_pos_as_xyz
  1	'-x, y, z+.5'
  2	'x, -y, z+.5'
  3	'x, y, -z'
  4	'-x, -y, -z'
  5	'x, -y, -z+.5'
  6	'-x, y, -z+.5'
  7	'-x, -y, z'
  8	'x, y, z'
  9	'-x+.5, y+.5, z'
 10	'x+.5, -y+.5, z'
 11	'x+.5, y+.5, -z+.5'
 12	'-x+.5, -y+.5, -z+.5'
 13	'x+.5, -y+.5, -z'
 14	'-x+.5, y+.5, -z'
 15	'-x+.5, -y+.5, z+.5'
 16	'x+.5, y+.5, z+.5'
loop_
_atom_type_symbol
_atom_type_oxidation_number
Bi3+	3
Li1+	1
O2-	-2
loop_
_atom_site_label
_atom_site_type_symbol
_atom_site_symmetry_multiplicity
_atom_site_Wyckoff_symbol
_atom_site_fract_x
_atom_site_fract_y
_atom_site_fract_z
_atom_site_occupancy
_atom_site_attached_hydrogens
_atom_site_B_iso_or_equiv
Bi1 Bi3+ 8 j 0.106 0.236 0 1. 0 -2. 
O1 O2- 8 j 0.206 0.211 0 1. 0 9. 
O2 O2- 8 j 0.071 -.228 0 1. 0 5.9 
Li1 Li1+ 8 f 0.21 0 0.25 1. 0 1.1 

#End of data_46022-ICSD


