data_34564-ICSD
#?2014 by Fachinformationszentrum Karlsruhe, and the U.S. Secretary of 
#Commerce on behalf of the United States.  All rights reserved.
_database_code_ICSD                34564
_audit_creation_date               1984/09/11
_audit_update_record               2012/02/01
_chemical_name_systematic
;
Disodium Beryllium Silicate - B-phase, Lt
;
_chemical_formula_structural       'Na2 Be (Si O4)'
_chemical_formula_sum              'Be1 Na2 O4 Si1'
_publ_section_title
;
Crystal structures of Na2 Zn (Si O4) and Na2 Be (Si O4), refined with 
allowance for thermal vibration anisotropy of the atoms
;
loop_
_citation_id
_citation_journal_abbrev
_citation_year
_citation_journal_volume
_citation_page_first
_citation_page_last
_citation_journal_id_ASTM
primary Kristallografiya 1979 24 1177 1183 KRISAJ
_publ_author_name                  'Plakhov, G.F.;Belov, N.V.'
_cell_length_a                     7.022
_cell_length_b                     4.96
_cell_length_c                     9.933
_cell_angle_alpha                  90.
_cell_angle_beta                   90.03
_cell_angle_gamma                  90.
_cell_volume                       345.96
_cell_formula_units_Z              4
_symmetry_space_group_name_H-M     'P 1 21/c 1'
_symmetry_Int_Tables_number        14
_refine_ls_R_factor_all            .023
loop_
_symmetry_equiv_pos_site_id
_symmetry_equiv_pos_as_xyz
  1	'x, -y+.5, z+.5'
  2	'-x, -y, -z'
  3	'-x, y+.5, -z+.5'
  4	'x, y, z'
loop_
_atom_type_symbol
_atom_type_oxidation_number
Be2+	2
Na1+	1
O2-	-2
Si4+	4
loop_
_atom_site_label
_atom_site_type_symbol
_atom_site_symmetry_multiplicity
_atom_site_Wyckoff_symbol
_atom_site_fract_x
_atom_site_fract_y
_atom_site_fract_z
_atom_site_occupancy
_atom_site_attached_hydrogens
Be1 Be2+ 4 e 0.5014(3) 0.1851(5) 0.0882(2) 1. 0 
Si1 Si4+ 4 e 0.2784(1) 0.1561(1) 0.3423(1) 1. 0 
Na1 Na1+ 4 e 0.0016(1) 0.2089(2) 0.1101(1) 1. 0 
Na2 Na1+ 4 e 0.7357(1) 0.1830(2) 0.3602(1) 1. 0 
O1 O2- 4 e 0.0615(2) 0.2344(3) 0.3749(1) 1. 0 
O2 O2- 4 e 0.3182(2) 0.2055(3) 0.1823(1) 1. 0 
O3 O2- 4 e 0.4269(2) 0.3234(3) 0.4259(1) 1. 0 
O4 O2- 4 e 0.6851(2) 0.3307(3) 0.1201(1) 1. 0 

#End of data_34564-ICSD


