data_91059-ICSD
#?2014 by Fachinformationszentrum Karlsruhe, and the U.S. Secretary of 
#Commerce on behalf of the United States.  All rights reserved.
_database_code_ICSD                91059
_audit_creation_date               2002/10/01
_chemical_name_systematic          'Calcium Copper Oxide (5/6/12)'
_chemical_formula_structural       'Ca5 Cu6 O12'
_chemical_formula_sum              'Ca5 Cu6 O12'
_publ_section_title
;
Crystal structure of Ca4.78 Cu6 O11.60
;
loop_
_citation_id
_citation_journal_abbrev
_citation_year
_citation_journal_volume
_citation_page_first
_citation_page_last
_citation_journal_id_ASTM
primary 'Journal of Solid State Chemistry' 2000 151 170 180 JSSCBI
_publ_author_name
;
Galez, P.;Lomello-Tafin, M.;Hopfinger, T.;Opagiste, C.;Bertrand, C.
;
_cell_length_a                     10.9459(6)
_cell_length_b                     6.3197(4)
_cell_length_c                     16.8390(10)
_cell_angle_alpha                  90.
_cell_angle_beta                   104.943(4)
_cell_angle_gamma                  90.
_cell_volume                       1125.44
_cell_formula_units_Z              4
_symmetry_space_group_name_H-M     'P 1 2/c 1'
_symmetry_Int_Tables_number        13
_refine_ls_R_factor_all            .047
loop_
_symmetry_equiv_pos_site_id
_symmetry_equiv_pos_as_xyz
  1	'x, -y, z+.5'
  2	'-x, -y, -z'
  3	'-x, y, -z+.5'
  4	'x, y, z'
loop_
_atom_type_symbol
_atom_type_oxidation_number
Ca2+	2
Cu2.333+	2.333
O2-	-2
loop_
_atom_site_label
_atom_site_type_symbol
_atom_site_symmetry_multiplicity
_atom_site_Wyckoff_symbol
_atom_site_fract_x
_atom_site_fract_y
_atom_site_fract_z
_atom_site_occupancy
_atom_site_attached_hydrogens
_atom_site_B_iso_or_equiv
Cu1 Cu2.333+ 2 a 0 0 0 1. 0 0.86(4) 
Cu2 Cu2.333+ 4 g 0.0063(18) 0.0074(20) 0.1712(9) 1. 0 0.86(4) 
Cu3 Cu2.333+ 4 g -.0051(18) 0.511(4) 0.0806(9) 1. 0 0.86(4) 
Cu4 Cu2.333+ 2 e 0 0.515(5) 0.25 1. 0 0.86(4) 
Cu5 Cu2.333+ 2 d 0.5 0 0 1. 0 0.86(4) 
Cu6 Cu2.333+ 4 g 0.5057(19) 0.0115(19) 0.1679(10) 1. 0 0.86(4) 
Cu7 Cu2.333+ 4 g 0.4927(18) 0.507(3) 0.0796(9) 1. 0 0.86(4) 
Cu8 Cu2.333+ 2 f 0.5 0.515(4) 0.25 1. 0 0.86(4) 
Ca1 Ca2+ 4 g 0.2426(20) 0.760(4) 0.4612(12) 1. 0 0.73(10) 
Ca2 Ca2+ 4 g 0.2534(22) 0.748(5) 0.0653(11) 1. 0 0.73(10) 
Ca3 Ca2+ 4 g 0.2588(21) 0.741(4) 0.8588(11) 1. 0 0.73(10) 
Ca4 Ca2+ 4 g 0.2556(24) 0.746(4) 0.6383(12) 1. 0 0.73(10) 
Ca5 Ca2+ 4 g 0.2412(24) 0.748(3) 0.2492(12) 1. 0 0.73(10) 
O1 O2- 4 g 0.287 0.838 0.361 1. 0 0.62(8) 
O2 O2- 4 g 0.382 0.06 0.064 1. 0 0.62(8) 
O3 O2- 4 g 0.383 0.079 0.238 1. 0 0.62(8) 
O4 O2- 4 g 0.141 -.022 0.117 1. 0 0.62(8) 
O5 O2- 4 g 0.107 0.055 0.43 1. 0 0.62(8) 
O6 O2- 4 g 0.106 -.005 0.264 1. 0 0.62(8) 
O7 O2- 4 g 0.114 0.448 0.014 1. 0 0.62(8) 
O8 O2- 4 g 0.125 0.567 0.349 1. 0 0.62(8) 
O9 O2- 4 g 0.121 0.502 0.173 1. 0 0.62(8) 
O10 O2- 4 g 0.398 0.451 0.478 1. 0 0.62(8) 
O11 O2- 4 g 0.388 0.516 0.142 1. 0 0.62(8) 
O12 O2- 4 g 0.381 0.488 0.301 1. 0 0.62(8) 

#End of data_91059-ICSD


