data_72175-ICSD
#?2014 by Fachinformationszentrum Karlsruhe, and the U.S. Secretary of 
#Commerce on behalf of the United States.  All rights reserved.
_database_code_ICSD                72175
_audit_creation_date               1993/08/22
_audit_update_record               2010/08/01
_chemical_name_systematic          'Bismuth Dimagnesium Vanadate'
_chemical_formula_structural       'Bi Mg2 (V O6)'
_chemical_formula_sum              'Bi1 Mg2 O6 V1'
_publ_section_title
;
Synthesis, crystal structure, and optical properties of a new bismuth 
magnesium vanadate: Bi Mg2 V O6
;
loop_
_citation_id
_citation_journal_abbrev
_citation_year
_citation_journal_volume
_citation_page_first
_citation_page_last
_citation_journal_id_ASTM
primary 'Journal of Solid State Chemistry' 1992 100 170 178 JSSCBI
2 'Golden Book of Phase Transitions, Wroclaw' 2002 1 1 123 GBOPT5
_publ_author_name                  'Huang, J.;Sleight, A.W.'
_cell_length_a                     7.9136(6)
_cell_length_b                     12.246(2)
_cell_length_c                     5.444(2)
_cell_angle_alpha                  90.
_cell_angle_beta                   90.
_cell_angle_gamma                  90.
_cell_volume                       527.58
_cell_formula_units_Z              4
_symmetry_space_group_name_H-M     'C m c m'
_symmetry_Int_Tables_number        63
_refine_ls_R_factor_all            .029
loop_
_symmetry_equiv_pos_site_id
_symmetry_equiv_pos_as_xyz
  1	'-x, y, -z+.5'
  2	'-x, -y, z+.5'
  3	'-x, y, z'
  4	'-x, -y, -z'
  5	'x, -y, z+.5'
  6	'x, y, -z+.5'
  7	'x, -y, -z'
  8	'x, y, z'
  9	'-x+.5, y+.5, -z+.5'
 10	'-x+.5, -y+.5, z+.5'
 11	'-x+.5, y+.5, z'
 12	'-x+.5, -y+.5, -z'
 13	'x+.5, -y+.5, z+.5'
 14	'x+.5, y+.5, -z+.5'
 15	'x+.5, -y+.5, -z'
 16	'x+.5, y+.5, z'
loop_
_atom_type_symbol
_atom_type_oxidation_number
Bi3+	3
Mg2+	2
O2-	-2
V5+	5
loop_
_atom_site_label
_atom_site_type_symbol
_atom_site_symmetry_multiplicity
_atom_site_Wyckoff_symbol
_atom_site_fract_x
_atom_site_fract_y
_atom_site_fract_z
_atom_site_occupancy
_atom_site_attached_hydrogens
Bi1 Bi3+ 4 c 0.5 0.09221(2) 0.25 1. 0 
V1 V5+ 4 c 0 0.1979(1) 0.25 1. 0 
Mg1 Mg2+ 8 g 0.3084(3) 0.4113(2) 0.25 1. 0 
O1 O2- 8 e 0.3319(5) 0 0.5 1. 0 
O2 O2- 8 f 0 0.8837(4) 0.492(1) 1. 0 
O3 O2- 8 g 0.673 0.7758(7) 0.25 1. 0 

loop_
_atom_site_aniso_label
_atom_site_aniso_type_symbol
_atom_site_aniso_U_11
_atom_site_aniso_U_22
_atom_site_aniso_U_33
_atom_site_aniso_U_12
_atom_site_aniso_U_13
_atom_site_aniso_U_23
Bi1 Bi3+ 0.0081(1) 0.0076(2) 0.0079(2) 0 0 0
V1 V5+ 0.0127(5) 0.0067(5) 0.0072(6) 0 0 0
Mg1 Mg2+ 0.0035(7) 0.013(1) 0.009(1) 0.0002(6) 0 0
O1 O2- 0.004(1) 0.016(2) 0.007(2) 0 0 0.000(1)
O2 O2- 0.006(1) 0.020(2) 0.010(2) 0 0 0.005(2)
O3 O2- 0.063(5) 0.048(4) 0.016(3) -.049(4) 0 0
#End of data_72175-ICSD


