data_34944-ICSD
#?2014 by Fachinformationszentrum Karlsruhe, and the U.S. Secretary of 
#Commerce on behalf of the United States.  All rights reserved.
_database_code_ICSD                34944
_audit_creation_date               1986/08/06
_audit_update_record               2012/08/01
_chemical_name_systematic          'Calcium Zinc Silicate Hydrate'
_chemical_formula_structural       'Ca Zn (Si O4) (H2 O)'
_chemical_formula_sum              'H2 Ca1 O5 Si1 Zn1'
_chemical_name_mineral             Clinohedrite
_publ_section_title
;
Rededermination of the crystal structure of clinohedrite, Ca Zn Si O4 
H2 O
;
loop_
_citation_id
_citation_journal_abbrev
_citation_year
_citation_journal_volume
_citation_page_first
_citation_page_last
_citation_journal_id_ASTM
primary
;
Zeitschrift fuer Kristallographie, Kristallgeometrie, Kristallphysik, 
Kristallchemie (-144,1977)
;
 1976 144 377 392 ZEKGAX
_publ_author_name
;
Venetopoulos, C.C.;Rentzeperis, P.J.
;
_cell_length_a                     5.090(2)
_cell_length_b                     15.829(6)
_cell_length_c                     5.386(2)
_cell_angle_alpha                  90.
_cell_angle_beta                   103.26(3)
_cell_angle_gamma                  90.
_cell_volume                       422.38
_cell_formula_units_Z              4
_symmetry_space_group_name_H-M     'C 1 c 1'
_symmetry_Int_Tables_number        9
_refine_ls_R_factor_all            .041
loop_
_symmetry_equiv_pos_site_id
_symmetry_equiv_pos_as_xyz
  1	'x, -y, z+.5'
  2	'x, y, z'
  3	'x+.5, -y+.5, z+.5'
  4	'x+.5, y+.5, z'
loop_
_atom_type_symbol
_atom_type_oxidation_number
Ca2+	2
H1+	1
O2-	-2
Si4+	4
Zn2+	2
loop_
_atom_site_label
_atom_site_type_symbol
_atom_site_symmetry_multiplicity
_atom_site_Wyckoff_symbol
_atom_site_fract_x
_atom_site_fract_y
_atom_site_fract_z
_atom_site_occupancy
_atom_site_attached_hydrogens
_atom_site_B_iso_or_equiv
Zn1 Zn2+ 4 a 0 0.24928(4) 0 1. 0 0 
Ca1 Ca2+ 4 a 0.3480(3) 0.5724(1) 0.6384(3) 1. 0 0 
Si1 Si4+ 4 a 0.0139(4) 0.3618(1) 0.5183(4) 1. 0 0 
O1 O2- 4 a 0.1415(11) 0.9591(3) 0.8564(11) 1. 0 0 
O2 O2- 4 a 0.1876(9) 0.1443(3) 0.9489(9) 1. 0 0 
O3 O2- 4 a 0.1410(9) 0.2934(3) 0.3476(9) 1. 0 0 
O4 O2- 4 a 0.1279(10) 0.3406(3) 0.8155(9) 1. 0 0 
O5 O2- 4 a 0.1067(9) 0.5459(3) 0.9479(9) 1. 0 0 
H1 H1+ 4 a 0.186 0.916 0.725 1. 0 0.67 
H2 H1+ 4 a 0.32 0.986 0.942 1. 0 0.67 

loop_
_atom_site_aniso_label
_atom_site_aniso_type_symbol
_atom_site_aniso_U_11
_atom_site_aniso_U_22
_atom_site_aniso_U_33
_atom_site_aniso_U_12
_atom_site_aniso_U_13
_atom_site_aniso_U_23
Zn1 Zn2+ 0.0028(2) 0.0021(2) 0.0033(2) 0 -.0005(1) 0
Ca1 Ca2+ 0.0028(3) 0.0027(3) 0.0026(3) 0 0.0005(2) 0
Si1 Si4+ 0.0010(5) 0.0010(5) 0.0013(5) 0 0.0005(4) 0
O1 O2- 0.0067(17) 0.0077(18) 0.0112(18) 0 0.0032(15) 0
O2 O2- 0.0010(13) 0.0048(15) 0.0060(15) 0 0.0004(11) 0
O3 O2- 0.0040(15) 0.0053(15) 0.0045(15) 0 0.0015(12) 0
O4 O2- 0.0087(17) 0.0045(15) 0.0022(14) 0 -.0010(13) 0
O5 O2- 0.0055(15) 0.0024(15) 0.0046(15) 0 0.0035(12) 0
#End of data_34944-ICSD


