data_188914-ICSD
#?2014 by Fachinformationszentrum Karlsruhe, and the U.S. Secretary of 
#Commerce on behalf of the United States.  All rights reserved.
_database_code_ICSD                188914
_audit_creation_date               2014/02/01
_chemical_name_systematic
;
Tetrapotassium Uranyl(VI) Tricarbonate
;
_chemical_formula_structural       'K4 (U O2) (C O3)3'
_chemical_formula_sum              'C3 K4 O11 U1'
_chemical_name_mineral             Agricolaite
_publ_section_title
;
Agricolaite, a new mineral of uranium from Jachymov, Czech Republic
;
loop_
_citation_id
_citation_journal_abbrev
_citation_year
_citation_journal_volume
_citation_journal_issue
_citation_page_first
_citation_page_last
_citation_journal_id_ASTM
primary 'Mineralogy and Petrology' 2011 103 1-4 169 175 MIPEE9
_publ_author_name
;
Skala, Roman;Ondrus, Petr;Veselovsky, Frantisek;Cisarova, 
Ivana;Hlousek, Jan
;
_cell_length_a                     10.2380(2)
_cell_length_b                     9.1930(2)
_cell_length_c                     12.2110(3)
_cell_angle_alpha                  90.
_cell_angle_beta                   95.108(2)
_cell_angle_gamma                  90.
_cell_volume                       1144.71
_cell_formula_units_Z              4
_symmetry_space_group_name_H-M     'C 1 2/c 1'
_symmetry_Int_Tables_number        15
_refine_ls_R_factor_all            .0184
loop_
_symmetry_equiv_pos_site_id
_symmetry_equiv_pos_as_xyz
  1	'x, -y, z+.5'
  2	'-x, -y, -z'
  3	'-x, y, -z+.5'
  4	'x, y, z'
  5	'x+.5, -y+.5, z+.5'
  6	'-x+.5, -y+.5, -z'
  7	'-x+.5, y+.5, -z+.5'
  8	'x+.5, y+.5, z'
loop_
_atom_type_symbol
_atom_type_oxidation_number
C4+	4
K1+	1
O2-	-2
U6+	6
loop_
_atom_site_label
_atom_site_type_symbol
_atom_site_symmetry_multiplicity
_atom_site_Wyckoff_symbol
_atom_site_fract_x
_atom_site_fract_y
_atom_site_fract_z
_atom_site_occupancy
_atom_site_attached_hydrogens
_atom_site_U_iso_or_equiv
U1 U6+ 4 e 0.5 0.694506(17) 0.250 1. 0 0.01135(10) 
K1 K1+ 8 f 0.68394(8) 0.34580(10) 0.34698(7) 1. 0 0.02091(18) 
K2 K1+ 8 f 0.60216(9) 0.81946(9) 0.54382(7) 1. 0 0.02047(19) 
C1 C4+ 8 f 0.6278(3) 0.5382(4) 0.0860(3) 1. 0 0.0150(6) 
C2 C4+ 4 e 0.5 0.0072(6) 0.250 1. 0 0.0171(9) 
O1 O2- 8 f 0.5423(3) 0.9296(3) 0.1706(2) 1. 0 0.0210(6) 
O2 O2- 8 f 0.6042(3) 0.6780(3) 0.0783(2) 1. 0 0.0166(5) 
O3 O2- 8 f 0.5648(3) 0.4733(3) 0.1611(2) 1. 0 0.0188(5) 
O4 O2- 4 e 0.5 0.1431(4) 0.250 1. 0 0.0235(8) 
O5 O2- 8 f 0.7016(3) 0.4733(3) 0.0279(2) 1. 0 0.0258(6) 
O6 O2- 8 f 0.6619(3) 0.6966(3) 0.3205(3) 1. 0 0.0200(6) 

loop_
_atom_site_aniso_label
_atom_site_aniso_type_symbol
_atom_site_aniso_U_11
_atom_site_aniso_U_22
_atom_site_aniso_U_33
_atom_site_aniso_U_12
_atom_site_aniso_U_13
_atom_site_aniso_U_23
U1 U6+ 0.01226(13) 0.01019(13) 0.01178(13) 0. 0.00210(7) 0.
K1 K1+ 0.0188(4) 0.0222(4) 0.0217(4) 0.0048(3) 0.0018(3) -0.0013(3)
K2 K1+ 0.0199(4) 0.0219(4) 0.0200(4) -0.0034(3) 0.0036(3) -0.0032(3)
C1 C4+ 0.0150(16) 0.0165(16) 0.0135(15) 0.0002(13) 0.0017(12) -0.0021(12)
C2 C4+ 0.019(2) 0.010(2) 0.022(7) 0. 0.0045(19) 0.
O1 O2- 0.0312(16) 0.0137(13) 0.0198(13) 0.0011(11) 0.0113(12) 0.0011(9)
O2 O2- 0.0208(14) 0.0122(12) 0.0173(13) 0.0015(10) 0.0052(11) 0.0018(9)
O3 O2- 0.0246(14) 0.0147(12) 0.0183(12) -0.0010(10) 0.0087(11) 0.0009(9)
O4 O2- 0.035(2) 0.0109(18) 0.027(2) 0. 0.0120(17) 0.
O5 O2- 0.0310(16) 0.0218(14) 0.0265(14) 0.0080(12) 0.0142(12) 0.0000(11)
O6 O2- 0.0172(14) 0.0230(16) 0.0195(14) -0.0011(9) 0.0004(12) 0.0016(9)
#End of data_188914-ICSD


