data_92056-ICSD
#?2014 by Fachinformationszentrum Karlsruhe, and the U.S. Secretary of 
#Commerce on behalf of the United States.  All rights reserved.
_database_code_ICSD                92056
_audit_creation_date               2002/10/01
_chemical_name_systematic          'Calcium Dibismuthoditantalate'
_chemical_formula_structural       'Ca (Bi2 Ta2 O9)'
_chemical_formula_sum              'Bi2 Ca1 O9 Ta2'
_publ_section_title
;
Crystal structure and ferroelectric properties of A Bi2 Ta2 O9 (A = 
Ca, Sr and Ba)
;
loop_
_citation_id
_citation_journal_abbrev
_citation_year
_citation_journal_volume
_citation_page_first
_citation_page_last
_citation_journal_id_ASTM
primary 'Physical Review, Serie 3. B - Condensed Matter (18,1978-)'
 2000 61 6559 6564 PRBMDO
_publ_author_name
;
Shimakawa, Y.;Kubo, Y.;Nakagawa, Y.;Goto, S.;Kamiyama, T.;Asano, 
H.;Izumi, F.
;
_cell_length_a                     5.4625(1)
_cell_length_b                     5.4286(1)
_cell_length_c                     24.94499(60)
_cell_angle_alpha                  90.
_cell_angle_beta                   90.
_cell_angle_gamma                  90.
_cell_volume                       739.71
_cell_formula_units_Z              4
_symmetry_space_group_name_H-M     'A 21 a m'
_symmetry_Int_Tables_number        36
_refine_ls_R_factor_all            .005
loop_
_symmetry_equiv_pos_site_id
_symmetry_equiv_pos_as_xyz
  1	'x+.5, -y, z'
  2	'x+.5, -y, -z'
  3	'x, y, -z'
  4	'x, y, z'
  5	'x+.5, -y+.5, z+.5'
  6	'x+.5, -y+.5, -z+.5'
  7	'x, y+.5, -z+.5'
  8	'x, y+.5, z+.5'
loop_
_atom_type_symbol
_atom_type_oxidation_number
Bi3+	3
Ca2+	2
O2-	-2
Ta5+	5
loop_
_atom_site_label
_atom_site_type_symbol
_atom_site_symmetry_multiplicity
_atom_site_Wyckoff_symbol
_atom_site_fract_x
_atom_site_fract_y
_atom_site_fract_z
_atom_site_occupancy
_atom_site_attached_hydrogens
_atom_site_B_iso_or_equiv
Ca1 Ca2+ 4 a 0 0.2484(11) 0 1. 0 0.43 
Bi1 Bi3+ 8 b 0.4865(15) 0.7749(4) 0.19894(8) 1. 0 1. 
Ta1 Ta5+ 8 b 0.5285(15) 0.7510(7) 0.41680(7) 1. 0 0.1 
O1 O2- 4 a 0.5575(19) 0.3175(10) 0 1. 0 0.98 
O2 O2- 8 b 0.5299(17) 0.6800(7) 0.34439(11) 1. 0 0.9 
O3 O2- 8 b 0.7535(16) 0.9952(9) 0.25025(15) 1. 0 0.84 
O4 O2- 8 b 0.7555(17) 0.9638(8) 0.06389(14) 1. 0 0.59 
O5 O2- 8 b 0.8423(14) 0.9490(8) 0.58578(16) 1. 0 0.94 

#End of data_92056-ICSD


