data_6131-ICSD
#?2014 by Fachinformationszentrum Karlsruhe, and the U.S. Secretary of 
#Commerce on behalf of the United States.  All rights reserved.
_database_code_ICSD                6131
_audit_creation_date               1980/01/01
_audit_update_record               2012/02/01
_chemical_name_systematic          'Calcium Dichromium Oxide - Alpha'
_chemical_formula_structural       'Ca Cr2 O4'
_chemical_formula_sum              'Ca1 Cr2 O4'
_publ_section_title
;
Die Kristallstruktur von alpha-Ca Cr2 O4
;
loop_
_citation_id
_citation_journal_abbrev
_citation_year
_citation_journal_volume
_citation_page_first
_citation_page_last
_citation_journal_id_ASTM
primary 'Zeitschrift fuer Anorganische und Allgemeine Chemie (1950) (DE)'
 1974 405 113 118 ZAACAB
2 'Golden Book of Phase Transitions, Wroclaw' 2002 1 1 123 GBOPT5
_publ_author_name                  'Pausch, H.;Mueller Buschbaum, H.'
_cell_length_a                     11.059
_cell_length_b                     5.836
_cell_length_c                     5.114
_cell_angle_alpha                  90.
_cell_angle_beta                   90.
_cell_angle_gamma                  90.
_cell_volume                       330.06
_cell_formula_units_Z              4
_symmetry_space_group_name_H-M     'P m m n S'
_symmetry_Int_Tables_number        59
_refine_ls_R_factor_all            .091
loop_
_symmetry_equiv_pos_site_id
_symmetry_equiv_pos_as_xyz
  1	'x+.5, -y+.5, -z'
  2	'x+.5, y+.5, -z'
  3	'x, -y, z'
  4	'-x, y, z'
  5	'-x+.5, y+.5, -z'
  6	'-x+.5, -y+.5, -z'
  7	'-x, -y, z'
  8	'x, y, z'
loop_
_atom_type_symbol
_atom_type_oxidation_number
Ca2+	2
Cr3+	3
O2-	-2
loop_
_atom_site_label
_atom_site_type_symbol
_atom_site_symmetry_multiplicity
_atom_site_Wyckoff_symbol
_atom_site_fract_x
_atom_site_fract_y
_atom_site_fract_z
_atom_site_occupancy
_atom_site_attached_hydrogens
Ca1 Ca2+ 2 b 0 0.5 0.1481 1. 0 
Ca2 Ca2+ 2 a 0.5 0.5 0.4648 1. 0 
Cr1 Cr3+ 4 f 0.2578 0 0.4942 1. 0 
Cr2 Cr3+ 4 c 0.25 0.25 0 1. 0 
O1 O2- 4 f 0.344(9) 0 0.162(5) 1. 0 
O2 O2- 4 f 0.159(4) 0 0.821(9) 1. 0 
O3 O2- 8 g 0.152 0.247(1) 0.330(7) 1. 0 

#End of data_6131-ICSD


