data_90906-ICSD
#?2014 by Fachinformationszentrum Karlsruhe, and the U.S. Secretary of 
#Commerce on behalf of the United States.  All rights reserved.
_database_code_ICSD                90906
_audit_creation_date               2002/04/01
_chemical_name_systematic          'Bismuth Dimagnesium Vanadate(V)'
_chemical_formula_structural       'Bi Mg2 (V O6)'
_chemical_formula_sum              'Bi1 Mg2 O6 V1'
_publ_section_title
;
Variable temperature X-ray diffraction study of bismuth magnesium 
vanadate, Bi Mg2 V O6
;
loop_
_citation_id
_citation_journal_abbrev
_citation_year
_citation_journal_volume
_citation_page_first
_citation_page_last
_citation_journal_id_ASTM
primary 'Journal of Solid State Chemistry' 2000 149 143 148 JSSCBI
_publ_author_name                  'Radosavljevic, I.;Sleight, A.W.'
_cell_length_a                     5.4420(2)
_cell_length_b                     7.9152(2)
_cell_length_c                     12.2384(3)
_cell_angle_alpha                  90.
_cell_angle_beta                   90.
_cell_angle_gamma                  90.
_cell_volume                       527.16
_cell_formula_units_Z              4
_symmetry_space_group_name_H-M     'P m c n'
_symmetry_Int_Tables_number        62
_refine_ls_R_factor_all            .07
loop_
_symmetry_equiv_pos_site_id
_symmetry_equiv_pos_as_xyz
  1	'x, -y+.5, z+.5'
  2	'-x+.5, y, z'
  3	'x+.5, y+.5, -z+.5'
  4	'-x, -y, -z'
  5	'-x, y+.5, -z+.5'
  6	'x+.5, -y, -z'
  7	'-x+.5, -y+.5, z+.5'
  8	'x, y, z'
loop_
_atom_type_symbol
_atom_type_oxidation_number
Bi3+	3
Mg2+	2
O2-	-2
V5+	5
loop_
_atom_site_label
_atom_site_type_symbol
_atom_site_symmetry_multiplicity
_atom_site_Wyckoff_symbol
_atom_site_fract_x
_atom_site_fract_y
_atom_site_fract_z
_atom_site_occupancy
_atom_site_attached_hydrogens
_atom_site_U_iso_or_equiv
Bi1 Bi3+ 4 c 0.75 -.0076(1) 0.90794(7) 1. 0 0.0142(6) 
V1 V5+ 4 c 0.25 0.0126(4) 0.6974(4) 1. 0 0.0151(9) 
Mg1 Mg2+ 4 c 0.75 0.305(1) 0.0863(6) 1. 0 0.015(2) 
Mg2 Mg2+ 4 c 0.25 0.310(1) 0.9076(6) 1. 0 0.015(2) 
O1 O2- 8 d -.008(3) 0.005(1) 0.618(1) 1. 0 0.023(2) 
O2 O2- 8 d 0.002(2) 0.165(1) 0.9958(8) 1. 0 0.016(2) 
O3 O2- 4 c 0.25 0.853(2) 0.790(2) 1. 0 0.028(4) 
O4 O2- 4 c 0.75 0.701(2) 0.735(2) 1. 0 0.034(4) 

#End of data_90906-ICSD


