data_240723-ICSD
#?2014 by Fachinformationszentrum Karlsruhe, and the U.S. Secretary of 
#Commerce on behalf of the United States.  All rights reserved.
_database_code_ICSD                240723
_audit_creation_date               2007/04/01
_chemical_name_systematic
;
Dicalcium Tin Dialumosilicate Dihydroxide Dihydrate
;
_chemical_formula_structural       'Ca2 Sn Al2 Si6 O18 (O H)2 (H2 O)2'
_chemical_formula_sum              'H6 Al2 Ca2 O22 Si6 Sn1'
_chemical_name_mineral             Eakerite
_publ_section_title
;
Reinvestigation of eakerite, Ca2 Sn Al2 Si6 O18 (O H)2 . 2 H2 O: H-
atom positions by single-crystal X-ray diffraction and correlation 
with Raman spectroscopy data
;
loop_
_citation_id
_citation_journal_abbrev
_citation_year
_citation_journal_volume
_citation_page_first
_citation_page_last
_citation_journal_id_ASTM
primary 'Acta Crystallographica, Section E. Structure Reports Online'
 2007 63 i47 i49 ACSEBH
_publ_author_name
;
Uchida, H.;Downs, R.T.;Thompson, R.M.
;
_cell_length_a                     15.8202(5)
_cell_length_b                     7.6963(3)
_cell_length_c                     7.4449(3)
_cell_angle_alpha                  90.00
_cell_angle_beta                   101.293(2)
_cell_angle_gamma                  90.00
_cell_volume                       888.92
_cell_formula_units_Z              2
_symmetry_space_group_name_H-M     'P 1 21/a 1'
_symmetry_Int_Tables_number        14
_refine_ls_R_factor_all            .0358
loop_
_symmetry_equiv_pos_site_id
_symmetry_equiv_pos_as_xyz
  1	'x+.5, -y+.5, z'
  2	'-x, -y, -z'
  3	'-x+.5, y+.5, -z'
  4	'x, y, z'
loop_
_atom_type_symbol
_atom_type_oxidation_number
Al3+	3
Ca2+	2
H1+	1
O2-	-2
Si4+	4
Sn4+	4
loop_
_atom_site_label
_atom_site_type_symbol
_atom_site_symmetry_multiplicity
_atom_site_Wyckoff_symbol
_atom_site_fract_x
_atom_site_fract_y
_atom_site_fract_z
_atom_site_occupancy
_atom_site_attached_hydrogens
_atom_site_U_iso_or_equiv
Sn1 Sn4+ 2 a 0.0000 0.0000 0.0000 1 0 0.00651(3) 
Ca1 Ca2+ 4 e 0.300365(19) 0.31104(4) 0.00225(4) 1 0 0.00876(5) 
Si1 Si4+ 4 e 0.45531(5) 0.16988(5) 0.71316(6) 1 0 0.00629(7) 
Si2 Si4+ 4 e 0.16629(3) 0.14507(3) 0.30892(6) 1 0 0.00636(7) 
Si3 Si4+ 4 e 0.49337(3) 0.21803(5) 0.33559(6) 1 0 0.00616(7) 
Al1 Al3+ 4 e 0.27068(3) 0.02215(6) 0.68283(6) 1 0 0.00660(8) 
O1 O2- 4 e 0.01960(7) 0.19958(15) -0.16104(16) 1 0 0.01086(19) 
O2 O2- 4 e 0.50547(8) -0.01656(15) 0.72868(18) 1 0 0.0129(2) 
O3 O2- 4 e 0.21455(7) 0.30912(14) 0.23632(15) 1 0 0.00992(18) 
O4 O2- 4 e 0.12298(7) 0.02274(14) 0.14054(17) 1 0 0.00820(17) 
O5 O2- 4 e 0.36271(7) 0.14553(15) -0.23084(15) 1 0 0.00947(18) 
O6 O2- 4 e 0.44680(7) 0.33291(15) 0.16450(15) 1 0 0.00886(18) 
O7 O2- 4 e 0.23642(7) 0.03515(16) 0.44934(15) 1 0 0.01008(19) 
O8 O2- 4 e 0.31937(8) 0.00282(18) 0.1518(2) 1 0 0.0146(2) 
O9 O2- 4 e 0.20206(7) 0.10401(16) -0.18049(16) 1 0 0.01123(19) 
O10 O2- 4 e 0.43954(7) 0.22846(17) 0.49792(15) 1 0 0.0120(2) 
O11 O2- 4 e 0.09213(7) 0.22090(16) 0.41285(15) 1 0 0.01080(19) 
H1 H1+ 4 e 0.316(3) 0.002(5) 0.239(6) 1 0 0.067(15) 
H2 H1+ 4 e 0.363(2) -0.025(4) 0.140(4) 1 0 0.029(8) 
H3 H1+ 4 e 0.150(2) 0.116(5) -0.204(5) 1 0 0.046(9) 

loop_
_atom_site_aniso_label
_atom_site_aniso_type_symbol
_atom_site_aniso_U_11
_atom_site_aniso_U_22
_atom_site_aniso_U_33
_atom_site_aniso_U_12
_atom_site_aniso_U_13
_atom_site_aniso_U_23
Sn1 Sn4+ 0.00652(5) 0.00640(5) 0.00631(5) -0.00026(4) 0.00054(4) 0.00031(4)
Ca1 Ca2+ 0.00858(11) 0.00888(12) 0.00905(11) -0.00034(9) 0.00227(9) 
-0.00044(9)
Si1 Si4+ 0.00629(15) 0.00606(16) 0.00660(15) -0.00021(12) 0.00144(12) 
-0.00056(12)
Si2 Si4+ 0.00589(15) 0.00666(16) 0.00618(15) 0.00003(12) 0.00030(12) 
0.00033(12)
Si3 Si4+ 0.00625(15) 0.00615(16) 0.00606(15) 0.00018(12) 0.00114(12) 
0.00105(12)
Al1 Al3+ 0.00669(17) 0.00700(19) 0.00594(17) 0.00023(14) 0.00081(14) 
0.00031(14)
O1 O2- 0.0092(4) 0.0108(5) 0.0128(5) -0.0021(4) 0.0026(4) -0.0054(4)
O2 O2- 0.0121(5) 0.0068(5) 0.0190(5) 0.0018(4) 0.0009(4) -0.0015(4)
O3 O2- 0.0126(5) 0.0072(4) 0.0104(4) 0.0021(4) 0.0035(4) 0.0010(3)
O4 O2- 0.0073(4) 0.0089(5) 0.0077(4) -0.0004(3) -0.0005(3) 0.0025(3)
O5 O2- 0.0078(4) 0.0111(5) 0.0101(4) -0.0028(3) 0.0030(3) -0.0016(4)
O6 O2- 0.0085(4) 0.0098(4) 0.0077(4) -0.0001(3) 0.0002(3) 0.0035(3)
O7 O2- 0.0098(4) 0.0120(5) 0.0076(4) -0.0023(4) -0.0005(3) -0.0009(3)
O8 O2- 0.0095(5) 0.0180(6) 0.0157(5) -0.0009(4) 0.0012(4) 0.0001(5)
O9 O2- 0.0075(4) 0.0146(5) 0.0117(5) 0.0013(4) 0.0020(4) -0.0014(4)
O10 O2- 0.0105(4) 0.0186(6) 0.0076(4) 0.0010(4) 0.0035(4) 0.0019(4)
O11 O2- 0.0078(4) 0.0147(5) 0.0097(4) -0.0024(4) 0.0011(3) 0.0024(4)
#End of data_240723-ICSD


