data_409883-ICSD
#?2014 by Fachinformationszentrum Karlsruhe, and the U.S. Secretary of 
#Commerce on behalf of the United States.  All rights reserved.
_database_code_ICSD                409883
_audit_creation_date               2007/04/01
_chemical_name_systematic
;
Potassium Scandium (monophosphate-hydrogenmonoborate-monophosphate)
;
_chemical_formula_structural       'K Sc (B P2 O8 (O H))'
_chemical_formula_sum              'H1 B1 K1 O9 P2 Sc1'
_publ_section_title
;
Crystal structure of potassium scandium (monophosphate-
hydrogenmonoborate-monophosphate), KSc[BP2O8(OH)]
;
loop_
_citation_id
_citation_journal_abbrev
_citation_year
_citation_journal_volume
_citation_journal_issue
_citation_page_first
_citation_page_last
_citation_journal_id_ASTM
primary 'Zeitschrift fuer Kristallographie (1979-2010)' 2006 221 3 251 252 ZEKRDZ
_publ_author_name
;
Menezes, P.W.;Hoffmann, S.;Prots', Yu.;Kniep, R.
;
_cell_length_a                     5.2696(2)
_cell_length_b                     8.2739(8)
_cell_length_c                     8.3890(5)
_cell_angle_alpha                  88.216(11)
_cell_angle_beta                   79.701(6)
_cell_angle_gamma                  86.667(11)
_cell_volume                       359.18
_cell_formula_units_Z              2
_symmetry_space_group_name_H-M     'P -1'
_symmetry_Int_Tables_number        2
loop_
_symmetry_equiv_pos_site_id
_symmetry_equiv_pos_as_xyz
  1	'-x, -y, -z'
  2	'x, y, z'
loop_
_atom_type_symbol
_atom_type_oxidation_number
B3+	3
H1+	1
K1+	1
O2-	-2
P5+	5
Sc3+	3
loop_
_atom_site_label
_atom_site_type_symbol
_atom_site_symmetry_multiplicity
_atom_site_Wyckoff_symbol
_atom_site_fract_x
_atom_site_fract_y
_atom_site_fract_z
_atom_site_occupancy
_atom_site_attached_hydrogens
_atom_site_U_iso_or_equiv
K1 K1+ 2 i 0.72043(10) 0.32182(7) 0.11954(7) 1 0 0.01982(13) 
Sc1 Sc3+ 2 i 0.27654(7) 0.19633(5) 0.80349(5) 1 0 0.00824(10) 
P1 P5+ 2 i 0.19454(10) 0.57507(7) 0.29991(6) 1 0 0.00791(12) 
P2 P5+ 2 i 0.21317(10) 0.06132(7) 0.19231(6) 1 0 0.00782(12) 
B1 B3+ 2 i 0.1138(5) 0.2692(3) 0.4414(3) 1 0 0.0105(4) 
O1 O2- 2 i 0.0283(3) 0.4084(2) 0.7925(2) 1 0 0.0117(3) 
O2 O2- 2 i 0.0364(3) 0.1521(2) 0.33566(19) 1 0 0.0121(3) 
O3 O2- 2 i 0.0626(3) 0.9219(2) 0.1540(2) 1 0 0.0115(3) 
O4 O2- 2 i 0.1269(3) 0.6659(2) 0.46231(19) 1 0 0.0125(3) 
O5 O2- 2 i 0.2649(3) 0.1822(2) 0.04975(19) 1 0 0.0133(3) 
O6 O2- 2 i 0.2592(3) 0.3953(2) 0.3406(2) 1 0 0.0116(3) 
O7 O2- 2 i 0.2848(3) 0.1947(2) 0.5463(2) 1 0 0.0143(3) 
O8 O2- 2 i 0.4411(3) 0.6363(2) 0.20211(19) 1 0 0.0112(3) 
O9 O2- 2 i 0.4686(3) 0.0053(2) 0.2445(2) 1 0 0.0136(3) 
H1 H1+ 2 i 0.401(10) 0.138(6) 0.499(6) 1 0 0.074(17) 

loop_
_atom_site_aniso_label
_atom_site_aniso_type_symbol
_atom_site_aniso_U_11
_atom_site_aniso_U_22
_atom_site_aniso_U_33
_atom_site_aniso_U_12
_atom_site_aniso_U_13
_atom_site_aniso_U_23
K1 K1+ 0.0139(2) 0.0207(3) 0.0245(3) -0.00026(19) -0.00249(19) -0.0005(2)
Sc1 Sc3+ 0.00718(18) 0.0085(2) 0.00915(19) -0.00046(13) -0.00186(13) 
0.00069(13)
P1 P5+ 0.0065(2) 0.0080(3) 0.0089(2) -0.00018(18) -0.00053(17) 0.00042(18)
P2 P5+ 0.0069(2) 0.0079(3) 0.0087(2) -0.00049(18) -0.00167(17) -0.00002(18)
B1 B3+ 0.0100(10) 0.0114(13) 0.0096(10) 0.0027(8) -0.0013(8) -0.0010(8)
O1 O2- 0.0109(7) 0.0100(8) 0.0150(8) -0.0001(6) -0.0044(6) -0.0007(6)
O2 O2- 0.0113(7) 0.0120(9) 0.0123(7) -0.0002(6) 0.0004(5) -0.0031(6)
O3 O2- 0.0107(7) 0.0098(8) 0.0145(7) -0.0042(6) -0.0021(6) -0.0017(6)
O4 O2- 0.0103(7) 0.0153(9) 0.0111(7) 0.0024(6) 0.0003(5) -0.0036(6)
O5 O2- 0.0165(8) 0.0139(9) 0.0102(7) -0.0049(6) -0.0031(6) 0.0015(6)
O6 O2- 0.0110(7) 0.0078(8) 0.0144(7) 0.0007(5) 0.0008(6) 0.0013(6)
O7 O2- 0.0153(8) 0.0174(9) 0.0088(7) 0.0063(6) -0.0015(6) 0.0015(6)
O8 O2- 0.0077(7) 0.0121(8) 0.0133(7) -0.0020(6) 0.0001(5) 0.0004(6)
O9 O2- 0.0101(7) 0.0127(9) 0.0190(8) 0.0025(6) -0.0065(6) -0.0025(6)
#End of data_409883-ICSD


