data_88605-ICSD
#?2014 by Fachinformationszentrum Karlsruhe, and the U.S. Secretary of 
#Commerce on behalf of the United States.  All rights reserved.
_database_code_ICSD                88605
_audit_creation_date               2001/07/16
_chemical_name_systematic          'Barium Diyttrium Zinc Oxide'
_chemical_formula_structural       'Ba Y2 Zn O5'
_chemical_formula_sum              'Ba1 O5 Y2 Zn1'
_publ_section_title
;
Crystal structures and reference powder patterns of Ba R2 Zn O5 (R = 
La, Nd, Sm, Eu, Gd, Dy, Ho, Y, Er and Tm)
;
loop_
_citation_id
_citation_journal_abbrev
_citation_year
_citation_journal_volume
_citation_journal_issue
_citation_page_first
_citation_page_last
_citation_journal_id_ASTM
primary
;
Journal of Research of the National Institute of standards and 
Technology
;
 1999 104 2 147 171 JRITEF
_publ_author_name
;
Kaduk, J.A.;Wong-Ng, W.;Greenwood, W.;Dillingham, J.;Toby, B.H.
;
_cell_length_a                     7.07018(7)
_cell_length_b                     12.33678(12)
_cell_length_c                     5.70908(5)
_cell_angle_alpha                  90.
_cell_angle_beta                   90.
_cell_angle_gamma                  90.
_cell_volume                       497.96
_cell_formula_units_Z              4
_symmetry_space_group_name_H-M     'P b n m'
_symmetry_Int_Tables_number        62
_refine_ls_R_factor_all            .041
loop_
_symmetry_equiv_pos_site_id
_symmetry_equiv_pos_as_xyz
  1	'-x+.5, y+.5, z'
  2	'x, y, -z+.5'
  3	'x+.5, -y+.5, z+.5'
  4	'-x, -y, -z'
  5	'x+.5, -y+.5, -z'
  6	'-x, -y, z+.5'
  7	'-x+.5, y+.5, -z+.5'
  8	'x, y, z'
loop_
_atom_type_symbol
_atom_type_oxidation_number
Ba2+	2
O2-	-2
Y3+	3
Zn2+	2
loop_
_atom_site_label
_atom_site_type_symbol
_atom_site_symmetry_multiplicity
_atom_site_Wyckoff_symbol
_atom_site_fract_x
_atom_site_fract_y
_atom_site_fract_z
_atom_site_occupancy
_atom_site_attached_hydrogens
_atom_site_U_iso_or_equiv
Ba1 Ba2+ 4 c 0.9238(2) 0.8998(1) 0.25 1. 0 0.0039(4) 
Y1 Y3+ 4 c 0.1204(3) 0.2919(2) 0.25 1. 0 0.0055(3) 
Y2 Y3+ 4 c 0.3988(3) 0.0735(2) 0.25 1. 0 0.0063(3) 
Zn1 Zn2+ 4 c 0.6910(4) 0.6499(2) 0.25 1. 0 0.0061(4) 
O1 O2- 8 d 0.1578(12) 0.4323(8) -.0036(16) 1. 0 0.0031(14) 
O2 O2- 8 d 0.3503(13) 0.2281(7) 0.5054(18) 1. 0 0.0031(14) 
O3 O2- 4 c 0.0817(20) 0.0986(11) 0.25 1. 0 0.0031(14) 

#End of data_88605-ICSD


