data_412158-ICSD
#?2014 by Fachinformationszentrum Karlsruhe, and the U.S. Secretary of 
#Commerce on behalf of the United States.  All rights reserved.
_database_code_ICSD                412158
_audit_creation_date               2004/04/01
_chemical_name_systematic          'Disodium Triselenozirconate'
_chemical_formula_structural       'Na2 (Zr Se3)'
_chemical_formula_sum              'Na2 Se3 Zr1'
_publ_section_title
;
Na2 Zr Se3, ein neues Chalcogenometallat(IV) mit Schichtstruktur
;
loop_
_citation_id
_citation_journal_abbrev
_citation_year
_citation_journal_volume
_citation_page_first
_citation_page_last
_citation_journal_id_ASTM
primary 'Zeitschrift fuer Naturforschung, B: Chemical Sciences'
 2001 56 1322 1324 ZNBSEN
_publ_author_name
;
Harringer, N.A.;Kolb, A.;Klepp, K.O.
;
_cell_length_a                     6.925(2)
_cell_length_b                     12.010(1)
_cell_length_c                     7.257(2)
_cell_angle_alpha                  90.
_cell_angle_beta                   108.81(2)
_cell_angle_gamma                  90.
_cell_volume                       571.32
_cell_formula_units_Z              4
_symmetry_space_group_name_H-M     'C 1 2/m 1'
_symmetry_Int_Tables_number        12
_refine_ls_R_factor_all            .016
loop_
_symmetry_equiv_pos_site_id
_symmetry_equiv_pos_as_xyz
  1	'-x, y, -z'
  2	'-x, -y, -z'
  3	'x, -y, z'
  4	'x, y, z'
  5	'-x+.5, y+.5, -z'
  6	'-x+.5, -y+.5, -z'
  7	'x+.5, -y+.5, z'
  8	'x+.5, y+.5, z'
loop_
_atom_type_symbol
_atom_type_oxidation_number
Na1+	1
Se2-	-2
Zr4+	4
loop_
_atom_site_label
_atom_site_type_symbol
_atom_site_symmetry_multiplicity
_atom_site_Wyckoff_symbol
_atom_site_fract_x
_atom_site_fract_y
_atom_site_fract_z
_atom_site_occupancy
_atom_site_attached_hydrogens
_atom_site_U_iso_or_equiv
Na1 Na1+ 2 a 0 0 0 1. 0 0.0126(6) 
Na2 Na1+ 2 d 0.5 0 0.5 1. 0 0.0195(7) 
Na3 Na1+ 4 h 0 0.1571(2) 0.5 1. 0 0.0196(5) 
Zr1 Zr4+ 4 g 0.5 0.16845(4) 0 1. 0 0.00822(9) 
Se1 Se2- 8 j 0.74387(4) 0.18040(3) 0.77559(4) 1. 0 0.00769(6) 
Se2 Se2- 4 i 0.28513(6) 0 0.77725(6) 1. 0 0.0073(1) 

loop_
_atom_site_aniso_label
_atom_site_aniso_type_symbol
_atom_site_aniso_U_11
_atom_site_aniso_U_22
_atom_site_aniso_U_33
_atom_site_aniso_U_12
_atom_site_aniso_U_13
_atom_site_aniso_U_23
Na1 Na1+ 0.0102(9) 0.008(1) 0.018(1) 0 0.0037(8) 0
Na2 Na1+ 0.021(1) 0.022(2) 0.017(1) 0 0.0084(8) 0
Na3 Na1+ 0.0196(7) 0.020(1) 0.0151(9) 0 -0.0007(6) 0
Zr1 Zr4+ 0.0076(1) 0.0076(2) 0.0092(2) 0 0.0023(1) 0
Se1 Se2- 0.0075(1) 0.0088(1) 0.0072(1) -0.0020(1) 0.00305(8) -0.0015(1)
Se2 Se2- 0.0081(1) 0.0057(2) 0.0066(2) 0 0.0005(1) 0
#End of data_412158-ICSD


