data_414335-ICSD
#?2014 by Fachinformationszentrum Karlsruhe, and the U.S. Secretary of 
#Commerce on behalf of the United States.  All rights reserved.
_database_code_ICSD                414335
_audit_creation_date               2005/10/01
_chemical_name_systematic
;
Heptasilver Undecathiotriphosphate(V)
;
_chemical_formula_structural       'Ag7 (P3 S11)'
_chemical_formula_sum              'Ag7 P3 S11'
_publ_section_title
;
Re-entrant phase transition of the crystalline ion conductor Ag7 P3 
S11
;
loop_
_citation_id
_citation_journal_abbrev
_citation_year
_citation_journal_volume
_citation_page_first
_citation_page_last
_citation_journal_id_ASTM
primary 'Solid State Sciences' 2004 6 1077 1088 SSSCFJ
_publ_author_name
;
Brinkmann, C.;Eckert, H.;Wilmer, D.;Vogel, M.;Schmedt auf der Guenne, 
J.;Hoffbauer, W.;Rau, F.;Pfitzner, A.
;
_cell_length_a                     24.0900(10)
_cell_length_b                     6.3400(3)
_cell_length_c                     24.5810(10)
_cell_angle_alpha                  90.00
_cell_angle_beta                   110.870(6)
_cell_angle_gamma                  90.00
_cell_volume                       3507.96
_cell_formula_units_Z              8
_symmetry_space_group_name_H-M     'C 1 2/c 1'
_symmetry_Int_Tables_number        15
_refine_ls_R_factor_all            .0435
loop_
_symmetry_equiv_pos_site_id
_symmetry_equiv_pos_as_xyz
  1	'x, -y, z+.5'
  2	'-x, -y, -z'
  3	'-x, y, -z+.5'
  4	'x, y, z'
  5	'x+.5, -y+.5, z+.5'
  6	'-x+.5, -y+.5, -z'
  7	'-x+.5, y+.5, -z+.5'
  8	'x+.5, y+.5, z'
loop_
_atom_type_symbol
_atom_type_oxidation_number
Ag1+	1
P5+	5
S2-	-2
loop_
_atom_site_label
_atom_site_type_symbol
_atom_site_symmetry_multiplicity
_atom_site_Wyckoff_symbol
_atom_site_fract_x
_atom_site_fract_y
_atom_site_fract_z
_atom_site_occupancy
_atom_site_attached_hydrogens
_atom_site_U_iso_or_equiv
Ag1 Ag1+ 8 f 0.02268(2) 0.19273(8) 0.18709(2) 1 0 0.01746(11) 
Ag2 Ag1+ 8 f 0.09085(2) 0.17660(8) 0.10570(2) 1 0 0.02036(11) 
Ag3 Ag1+ 8 f 0.17119(2) 0.72279(8) 0.18598(2) 1 0 0.01861(11) 
Ag4 Ag1+ 8 f 0.89005(2) 0.28567(8) 0.09945(2) 1 0 0.02094(11) 
Ag5 Ag1+ 8 f 0.74625(2) 0.69313(8) 0.14530(3) 1 0 0.02858(14) 
Ag6 Ag1+ 8 f 0.75976(2) 0.05691(9) 0.06678(2) 1 0 0.02106(12) 
Ag7 Ag1+ 8 f 0.09063(2) 0.73635(9) 0.31800(2) 1 0 0.02394(12) 
P1 P5+ 8 f 0.01055(6) 0.6999(2) 0.10509(6) 1 0 0.0076(3) 
P2 P5+ 8 f -0.14188(6) 0.8133(2) 0.01736(6) 1 0 0.0075(3) 
P3 P5+ 8 f 0.16718(6) 0.2071(2) 0.27950(6) 1 0 0.0075(3) 
S1 S2- 8 f -0.04954(6) 0.8834(2) 0.03761(6) 1 0 0.0109(3) 
S2 S2- 8 f 0.01170(6) 0.7912(2) 0.18488(6) 1 0 0.0106(3) 
S3 S2- 8 f 0.08485(6) 0.7817(2) 0.08940(6) 1 0 0.0114(3) 
S4 S2- 8 f -0.00792(6) 0.3860(2) 0.08843(6) 1 0 0.0118(3) 
S5 S2- 8 f -0.16555(6) 0.6559(2) 0.07666(6) 1 0 0.0115(3) 
S6 S2- 8 f -0.17607(6) 1.1114(2) 0.00526(6) 1 0 0.0131(3) 
S7 S2- 8 f -0.16262(6) 0.6419(2) -0.05788(6) 1 0 0.0104(3) 
S8 S2- 8 f 0.17075(6) 0.3182(2) 0.20348(6) 1 0 0.0136(3) 
S9 S2- 8 f 0.24072(6) 0.3002(2) 0.34915(6) 1 0 0.0099(3) 
S10 S2- 8 f 0.09036(6) 0.3145(2) 0.28954(6) 1 0 0.0106(3) 
S11 S2- 8 f 0.16641(6) -0.1191(2) 0.27851(6) 1 0 0.0104(3) 

loop_
_atom_site_aniso_label
_atom_site_aniso_type_symbol
_atom_site_aniso_U_11
_atom_site_aniso_U_22
_atom_site_aniso_U_33
_atom_site_aniso_U_12
_atom_site_aniso_U_13
_atom_site_aniso_U_23
Ag1 Ag1+ 0.0205(2) 0.0148(2) 0.0146(2) 0.00096(17) 0.00318(17) -0.00113(18)
Ag2 Ag1+ 0.0225(2) 0.0140(2) 0.0302(3) -0.00438(17) 0.0163(2) -0.0034(2)
Ag3 Ag1+ 0.0172(2) 0.0229(3) 0.0160(2) 0.00065(18) 0.00620(17) -0.00423(19)
Ag4 Ag1+ 0.0210(2) 0.0204(3) 0.0227(2) -0.00114(18) 0.00934(19) -0.0073(2)
Ag5 Ag1+ 0.0249(3) 0.0109(2) 0.0351(3) 0.00294(19) -0.0075(2) -0.0026(2)
Ag6 Ag1+ 0.0191(2) 0.0275(3) 0.0205(2) -0.00454(19) 0.01180(19) -0.0061(2)
Ag7 Ag1+ 0.0146(2) 0.0335(3) 0.0263(3) 0.00234(19) 0.01052(19) 0.0127(2)
P1 P5+ 0.0095(6) 0.0058(6) 0.0075(6) 0.0002(5) 0.0029(5) 0.0015(5)
P2 P5+ 0.0088(6) 0.0067(6) 0.0078(6) -0.0001(5) 0.0039(5) -0.0003(5)
P3 P5+ 0.0084(6) 0.0066(6) 0.0081(6) -0.0002(5) 0.0037(5) 0.0012(5)
S1 S2- 0.0097(6) 0.0113(7) 0.0105(6) -0.0008(5) 0.0022(5) 0.0032(5)
S2 S2- 0.0122(6) 0.0118(7) 0.0078(6) -0.0019(5) 0.0034(5) -0.0005(5)
S3 S2- 0.0098(6) 0.0106(7) 0.0152(7) 0.0000(5) 0.0064(5) 0.0011(5)
S4 S2- 0.0123(6) 0.0068(6) 0.0163(7) -0.0008(5) 0.0051(5) -0.0013(6)
S5 S2- 0.0134(6) 0.0123(7) 0.0105(6) -0.0002(5) 0.0064(5) 0.0021(5)
S6 S2- 0.0150(6) 0.0083(6) 0.0162(7) 0.0028(5) 0.0060(5) 0.0013(6)
S7 S2- 0.0124(6) 0.0102(7) 0.0091(6) -0.0013(5) 0.0044(5) -0.0030(5)
S8 S2- 0.0183(7) 0.0137(7) 0.0097(6) -0.0032(5) 0.0063(5) 0.0014(6)
S9 S2- 0.0098(6) 0.0084(6) 0.0101(6) -0.0005(5) 0.0017(5) -0.0004(5)
S10 S2- 0.0093(6) 0.0115(7) 0.0118(6) 0.0021(5) 0.0045(5) -0.0019(5)
S11 S2- 0.0125(6) 0.0071(6) 0.0124(6) -0.0008(5) 0.0054(5) -0.0011(5)
#End of data_414335-ICSD


