data_6129-ICSD
#?2014 by Fachinformationszentrum Karlsruhe, and the U.S. Secretary of 
#Commerce on behalf of the United States.  All rights reserved.
_database_code_ICSD                6129
_audit_creation_date               1980/01/01
_audit_update_record               2012/08/01
_chemical_name_systematic          'Dilithium Dichromate Dihydrate'
_chemical_formula_structural       'Li2 (Cr2 O7) (H2 O)2'
_chemical_formula_sum              'H4 Cr2 Li2 O9'
_publ_section_title
;
Neutron-diffraction study of lithium salt crystal hydrates. V. The 
crystal structure of Li2 Cr2 O7 (H2 O)2
;
loop_
_citation_id
_citation_journal_abbrev
_citation_year
_citation_journal_volume
_citation_page_first
_citation_page_last
_citation_journal_id_ASTM
primary Kristallografiya 1974 19 110 117 KRISAJ
2 'Soviet Physics, Crystallography (= Kristallografiya)'
 1974 19 63 66 SPHCA6
3 Kristallografiya 1970 15 826 826 KRISAJ
_publ_author_name                  'Datt, I.D.;Ozerov, R.P.'
_cell_length_a                     13.28
_cell_length_b                     7.6
_cell_length_c                     7.74
_cell_angle_alpha                  90.
_cell_angle_beta                   93.12
_cell_angle_gamma                  90.
_cell_volume                       780.02
_cell_formula_units_Z              4
_symmetry_space_group_name_H-M     'C 1 c 1'
_symmetry_Int_Tables_number        9
_refine_ls_R_factor_all            .181
loop_
_symmetry_equiv_pos_site_id
_symmetry_equiv_pos_as_xyz
  1	'x, -y, z+.5'
  2	'x, y, z'
  3	'x+.5, -y+.5, z+.5'
  4	'x+.5, y+.5, z'
loop_
_atom_type_symbol
_atom_type_oxidation_number
Cr6+	6
H1+	1
Li1+	1
O2-	-2
loop_
_atom_site_label
_atom_site_type_symbol
_atom_site_symmetry_multiplicity
_atom_site_Wyckoff_symbol
_atom_site_fract_x
_atom_site_fract_y
_atom_site_fract_z
_atom_site_occupancy
_atom_site_attached_hydrogens
_atom_site_B_iso_or_equiv
Li1 Li1+ 4 a 0.111 0.544 0.492 1. 0 4.21 
Li2 Li1+ 4 a -.037 0.572 0.178 1. 0 4.55 
Cr1 Cr6+ 4 a 0.132 0.173 0.348 1. 0 3.71 
Cr2 Cr6+ 4 a -.078 0.223 0.172 1. 0 3.82 
O1 O2- 4 a 0.025 0.083 0.288 1. 0 5.03 
O2 O2- 4 a 0.088 0.313 0.505 1. 0 4.06 
O3 O2- 4 a 0.178 -.01 0.451 1. 0 4.71 
O4 O2- 4 a 0.209 0.256 0.215 1. 0 5.12 
O5 O2- 4 a -.035 0.367 0.018 1. 0 5.23 
O6 O2- 4 a -.165 0.113 0.094 1. 0 4.62 
O7 O2- 4 a -.096 0.333 0.352 1. 0 4.81 
O8 O2- 4 a 0.093 0.736 0.342 1. 0 4.62 
O9 O2- 4 a 0.245 -.42 0.529 1. 0 4.53 
H1 H1+ 4 a 0.1 0.687 0.237 1. 0 5.45 
H2 H1+ 4 a 0.133 0.737 0.42 1. 0 5.12 
H3 H1+ 4 a -.208 0.02 0.096 1. 0 4.29 
H4 H1+ 4 a 0.25 -.234 0.44 1. 0 4.9 

#End of data_6129-ICSD


