data_95532-ICSD
#?2014 by Fachinformationszentrum Karlsruhe, and the U.S. Secretary of 
#Commerce on behalf of the United States.  All rights reserved.
_database_code_ICSD                95532
_audit_creation_date               2003/10/01
_chemical_name_systematic
;
Trisodium Triiron(III) Tetrakis(phosphate(V))
;
_chemical_formula_structural       'Na3 Fe3 (P O4)4'
_chemical_formula_sum              'Fe3 Na3 O16 P4'
_publ_section_title
;
Reinvestigation of the binary diagram (Na3 P O4) - (Fe P O4) and 
crystal structure of a new iron phosphate Na3 Fe3 (P O4)4
;
loop_
_citation_id
_citation_journal_abbrev
_citation_year
_citation_journal_volume
_citation_page_first
_citation_page_last
_citation_journal_id_ASTM
primary 'Materials Research Bulletin' 2002 37 2407 2416 MRBUAC
_publ_author_name
;
Lajmi, B.;Hidouri, M.;Rzaigui, M.;Ben Amara, M.
;
_cell_length_a                     19.601(8)
_cell_length_b                     6.387(1)
_cell_length_c                     10.575(6)
_cell_angle_alpha                  90
_cell_angle_beta                   91.81(4)
_cell_angle_gamma                  90
_cell_volume                       1323.24
_cell_formula_units_Z              4
_symmetry_space_group_name_H-M     'C 1 2/c 1'
_symmetry_Int_Tables_number        15
_refine_ls_R_factor_all            .0241
loop_
_symmetry_equiv_pos_site_id
_symmetry_equiv_pos_as_xyz
  1	'x, -y, z+.5'
  2	'-x, -y, -z'
  3	'-x, y, -z+.5'
  4	'x, y, z'
  5	'x+.5, -y+.5, z+.5'
  6	'-x+.5, -y+.5, -z'
  7	'-x+.5, y+.5, -z+.5'
  8	'x+.5, y+.5, z'
loop_
_atom_type_symbol
_atom_type_oxidation_number
Fe3+	3
Na1+	1
O2-	-2
P5+	5
loop_
_atom_site_label
_atom_site_type_symbol
_atom_site_symmetry_multiplicity
_atom_site_Wyckoff_symbol
_atom_site_fract_x
_atom_site_fract_y
_atom_site_fract_z
_atom_site_occupancy
_atom_site_attached_hydrogens
_atom_site_U_iso_or_equiv
Fe1 Fe3+ 4 d 0.250 0.250 0.5 1. 0 0.0063(1) 
Fe2 Fe3+ 8 f 0.15667(2) 0.47855(5) 0.74716(3) 1. 0 0.00669(8) 
P1 P5+ 8 f 0.20205(3) 0.0181(1) 0.24306(5) 1. 0 0.0060(1) 
O1 O2- 8 f 0.1580(1) 0.8317(2) 0.2738(2) 1. 0 0.0092(3) 
O2 O2- 8 f 0.2561(1) 0.0538(3) 0.3543(1) 1. 0 0.0080(3) 
O3 O2- 8 f 0.1523(1) 0.2086(2) 0.2137(2) 1. 0 0.0098(3) 
O4 O2- 8 f 0.2541(1) 0.9778(2) 0.1362(1) 1. 0 0.0083(1) 
P2 P5+ 8 f 0.91217(3) 0.3404(1) 0.00973(5) 1. 0 0.0063(1) 
O5 O2- 8 f 0.9144(1) 0.4618(3) 0.8834(2) 1. 0 0.0109(3) 
O6 O2- 8 f 0.9047(1) 0.5082(3) 0.1149(2) 1. 0 0.0107(3) 
O7 O2- 8 f 0.9738(1) 0.2092(3) 0.0386(2) 1. 0 0.0126(3) 
O8 O2- 8 f 0.8477(1) 0.2013(3) 0.0064(1) 1. 0 0.0096(3) 
Na1 Na1+ 4 e 0 0.3705(3) 0.250 1. 0 0.0229(3) 
Na2 Na1+ 8 f 0.0834(1) 0.1417(2) 0.9750(1) 1. 0 0.0271(3) 

#End of data_95532-ICSD


