data_20340-ICSD
#?2014 by Fachinformationszentrum Karlsruhe, and the U.S. Secretary of 
#Commerce on behalf of the United States.  All rights reserved.
_database_code_ICSD                20340
_audit_creation_date               1981/12/31
_audit_update_record               2012/08/01
_chemical_name_systematic
;
Tetrasodium Dizirconium Tris(silicate)
;
_chemical_formula_structural       'Na4 Zr2 (Si O4)3'
_chemical_formula_sum              'Na4 O12 Si3 Zr2'
_publ_section_title
;
The refined structure of Na4 Zr2 (Si O4)3 and its place in the series 
of mixed frameworks with the general formula M2 (T O4)3
;
loop_
_citation_id
_citation_journal_abbrev
_citation_year
_citation_journal_volume
_citation_page_first
_citation_page_last
_citation_journal_id_ASTM
primary Kristallografiya 1981 26 293 300 KRISAJ
2 'Doklady Akademii Nauk SSSR' 1972 205 90 90 DANKAS
3 'Soviet Physics, Crystallography (= Kristallografiya)'
 1981 26 165 169 SPHCA6
_publ_author_name
;
Sizova, R.G.;Blinov, V.A.;Voronkov, A.A.;Ilyukhin, V.V.;Belov, N.V.
;
_cell_length_a                     9.106(5)
_cell_length_b                     9.106(5)
_cell_length_c                     9.106(5)
_cell_angle_alpha                  60.60(4)
_cell_angle_beta                   60.60(4)
_cell_angle_gamma                  60.60(4)
_cell_volume                       541.14
_cell_formula_units_Z              2
_symmetry_space_group_name_H-M     'R 3 c R'
_symmetry_Int_Tables_number        161
_refine_ls_R_factor_all            .028
loop_
_symmetry_equiv_pos_site_id
_symmetry_equiv_pos_as_xyz
  1	'z+.5, y+.5, x+.5'
  2	'z, x, y'
  3	'x+.5, z+.5, y+.5'
  4	'y, z, x'
  5	'y+.5, x+.5, z+.5'
  6	'x, y, z'
loop_
_atom_type_symbol
_atom_type_oxidation_number
Na1+	1
O2-	-2
Si4+	4
Zr4+	4
loop_
_atom_site_label
_atom_site_type_symbol
_atom_site_symmetry_multiplicity
_atom_site_Wyckoff_symbol
_atom_site_fract_x
_atom_site_fract_y
_atom_site_fract_z
_atom_site_occupancy
_atom_site_attached_hydrogens
Zr1 Zr4+ 2 a 0.1436(1) 0.1436(1) 0.1436(1) 1. 0 
Zr2 Zr4+ 2 a 0.3502(1) 0.3502(1) 0.3502(1) 1. 0 
Si1 Si4+ 6 b 0.0442(1) 0.7463(1) 0.4499(1) 1. 0 
Na1 Na1+ 2 a 0 0 0 1. 0 
Na2 Na1+ 6 b 0.6182(6) 0.2462(6) 0.8941(7) 1. 0 
O1 O2- 6 b 0.2691(3) 0.0612(3) 0.9189(3) 1. 0 
O2 O2- 6 b 0.5801(4) 0.4301(3) 0.2291(3) 1. 0 
O3 O2- 6 b 0.8713(3) 0.7102(4) 0.4849(4) 1. 0 
O4 O2- 6 b 0.0061(4) 0.7919(4) 0.6191(4) 1. 0 

#End of data_20340-ICSD


