data_39276-ICSD
#?2014 by Fachinformationszentrum Karlsruhe, and the U.S. Secretary of 
#Commerce on behalf of the United States.  All rights reserved.
_database_code_ICSD                39276
_audit_creation_date               1990/12/27
_audit_update_record               2012/02/01
_chemical_name_systematic
;
Magnesium Bis(hydrogensulfate(VI)) - Sulfuric Acid (1/2)
;
_chemical_formula_structural       '(Mg (H S O4)2) (H2 S O4)2'
_chemical_formula_sum              'H6 Mg1 O16 S4'
_publ_section_title
;
Crystal structure of acid magnesium sulphate Mg: S O3 (O H): 2: S O2 
(O H)2: 2
;
loop_
_citation_id
_citation_journal_abbrev
_citation_year
_citation_journal_volume
_citation_page_first
_citation_page_last
_citation_journal_id_ASTM
primary Kristallografiya 1990 35 852 855 KRISAJ
2 'Soviet Physics, Crystallography (= Kristallografiya)'
 1990 35 500 502 SPHCA6
_publ_author_name
;
Troyanov, S.I.;Merinov, B.V.;Verin, I.P.;Kemnitz, E.;Hass, D.
;
_cell_length_a                     5.091(4)
_cell_length_b                     15.329(6)
_cell_length_c                     7.882(6)
_cell_angle_alpha                  90.
_cell_angle_beta                   104.19(6)
_cell_angle_gamma                  90.
_cell_volume                       596.34
_cell_formula_units_Z              2
_symmetry_space_group_name_H-M     'P 1 21/c 1'
_symmetry_Int_Tables_number        14
_refine_ls_R_factor_all            .061
loop_
_symmetry_equiv_pos_site_id
_symmetry_equiv_pos_as_xyz
  1	'x, -y+.5, z+.5'
  2	'-x, -y, -z'
  3	'-x, y+.5, -z+.5'
  4	'x, y, z'
loop_
_atom_type_symbol
_atom_type_oxidation_number
H1+	1
Mg2+	2
O2-	-2
S6+	6
loop_
_atom_site_label
_atom_site_type_symbol
_atom_site_symmetry_multiplicity
_atom_site_Wyckoff_symbol
_atom_site_fract_x
_atom_site_fract_y
_atom_site_fract_z
_atom_site_occupancy
_atom_site_attached_hydrogens
_atom_site_B_iso_or_equiv
Mg1 Mg2+ 2 a 0 0 0 1. 0 0.81(5) 
S1 S6+ 4 e 0.4219(3) 0.0845(1) 0.7652(2) 1. 0 0.79(2) 
S2 S6+ 4 e 0.1242(3) 0.8340(1) 0.7496(2) 1. 0 0.95(3) 
O1 O2- 4 e 0.3841(8) 0.3220(3) 0.2244(6) 1. 0 1.37(9) 
O2 O2- 4 e 0.2940(9) 0.4574(3) 0.0877(6) 1. 0 1.46(9) 
O3 O2- 4 e 0.2961(7) 0.9396(3) 0.1900(6) 1. 0 1.11(9) 
O4 O2- 4 e 0.7176(7) 0.9422(3) 0.1048(6) 1. 0 1.20(9) 
O5 O2- 4 e 0.0224(8) 0.1082(2) 0.1641(6) 1. 0 1.27(9) 
O6 O2- 4 e 0.2780(8) 0.6277(3) 0.1397(6) 1. 0 1.37(9) 
O7 O2- 4 e 0.9316(8) 0.7304(3) 0.1338(6) 1. 0 1.48(9) 
O8 O2- 4 e 0.6969(9) 0.2196(3) 0.1049(6) 1. 0 1.50(9) 
H1 H1+ 4 e 0.598(11) 0.264(4) 0.120(8) 1. 0 3.70(15) 
H2 H1+ 4 e 0.846(9) 0.760(3) 0.177(7) 1. 0 1.30(12) 
H3 H1+ 4 e 0.286(10) 0.506(3) 0.068(7) 1. 0 1.40(12) 

#End of data_39276-ICSD


