data_421311-ICSD
#?2014 by Fachinformationszentrum Karlsruhe, and the U.S. Secretary of 
#Commerce on behalf of the United States.  All rights reserved.
_database_code_ICSD                421311
_audit_creation_date               2011/02/01
_chemical_name_systematic          'Potassium Zinc Triborate'
_chemical_formula_structural       'K Zn B3 O6'
_chemical_formula_sum              'B3 K1 O6 Zn1'
_publ_section_title
;
Stable oxoborate with edge-sharing B O4 tetrahedra synthesized under 
ambient pressure
;
loop_
_citation_id
_citation_journal_abbrev
_citation_year
_citation_journal_volume
_citation_journal_issue
_citation_page_first
_citation_page_last
_citation_journal_id_ASTM
primary 'Angewandte Chemie. International Edition' 2010 49 29 4967 4970 ACIEF5
_publ_author_name
;
Jin Shifeng;Cai Gemei;Wang Wanyan;He Meng;Wang Shunchong;Chen Xiao 
Long
;
_cell_length_a                     6.753(6)
_cell_length_b                     6.911(6)
_cell_length_c                     7.045(7)
_cell_angle_alpha                  63.39(5)
_cell_angle_beta                   72.58(4)
_cell_angle_gamma                  69.13(5)
_cell_volume                       270.8
_cell_formula_units_Z              2
_symmetry_space_group_name_H-M     'P -1'
_symmetry_Int_Tables_number        2
_refine_ls_R_factor_all            .0227
loop_
_symmetry_equiv_pos_site_id
_symmetry_equiv_pos_as_xyz
  1	'-x, -y, -z'
  2	'x, y, z'
loop_
_atom_type_symbol
_atom_type_oxidation_number
B3+	3
K1+	1
O2-	-2
Zn2+	2
loop_
_atom_site_label
_atom_site_type_symbol
_atom_site_symmetry_multiplicity
_atom_site_Wyckoff_symbol
_atom_site_fract_x
_atom_site_fract_y
_atom_site_fract_z
_atom_site_occupancy
_atom_site_attached_hydrogens
_atom_site_U_iso_or_equiv
Zn1 Zn2+ 2 i 0.67479(3) 0.85238(3) 0.12757(3) 1 0 0.01138(8) 
K1 K1+ 2 i 0.25618(7) 0.79622(7) 0.57920(7) 1 0 0.01800(10) 
O1 O2- 2 i 0.8595(2) 0.5838(2) 0.0833(2) 1 0 0.0123(2) 
O2 O2- 2 i 0.7205(3) 0.8515(2) 0.3794(2) 1 0 0.0172(3) 
O3 O2- 2 i 0.6282(2) 1.1403(2) -0.1186(2) 1 0 0.0133(2) 
O4 O2- 2 i 0.1980(2) 0.6715(2) 1.0324(2) 1 0 0.0157(3) 
O5 O2- 2 i -0.1392(2) 0.6877(2) 0.7014(2) 1 0 0.0140(3) 
O6 O2- 2 i 0.6766(2) 1.4934(2) -0.3663(2) 1 0 0.0160(3) 
B1 B3+ 2 i -0.2441(3) 0.6814(3) 0.5658(3) 1 0 0.0117(3) 
B2 B3+ 2 i 0.7030(3) 1.3178(3) -0.1674(3) 1 0 0.0115(3) 
B3 B3+ 2 i -0.0967(3) 0.5056(3) 0.9063(3) 1 0 0.0108(3) 

loop_
_atom_site_aniso_label
_atom_site_aniso_type_symbol
_atom_site_aniso_U_11
_atom_site_aniso_U_22
_atom_site_aniso_U_33
_atom_site_aniso_U_12
_atom_site_aniso_U_13
_atom_site_aniso_U_23
Zn1 Zn2+ 0.01486(12) 0.00983(12) 0.01095(11) -0.00345(8) -0.00523(8) 
-0.00316(8)
K1 K1+ 0.0213(2) 0.0173(2) 0.01872(19) -0.00870(15) -0.00260(15) 
-0.00745(16)
O1 O2- 0.0143(6) 0.0125(6) 0.0128(6) -0.0022(5) -0.0052(5) -0.0063(5)
O2 O2- 0.0319(8) 0.0112(6) 0.0114(6) -0.0085(5) -0.0102(5) -0.0004(5)
O3 O2- 0.0162(6) 0.0107(6) 0.0150(6) -0.0068(5) -0.0060(5) -0.0019(5)
O4 O2- 0.0254(7) 0.0125(6) 0.0128(6) -0.0114(5) -0.0086(5) 0.0003(5)
O5 O2- 0.0209(7) 0.0113(6) 0.0122(5) -0.0083(5) -0.0081(5) 0.0001(5)
O6 O2- 0.0266(7) 0.0128(6) 0.0129(6) -0.0107(5) -0.0103(5) 0.0003(5)
B1 B3+ 0.0161(9) 0.0099(8) 0.0105(8) -0.0044(7) -0.0042(6) -0.0030(6)
B2 B3+ 0.0147(9) 0.0103(8) 0.0112(8) -0.0060(6) -0.0030(6) -0.0030(6)
B3 B3+ 0.0138(9) 0.0105(8) 0.0108(8) -0.0050(6) -0.0046(6) -0.0035(6)
#End of data_421311-ICSD


