data_85193-ICSD
#?2014 by Fachinformationszentrum Karlsruhe, and the U.S. Secretary of 
#Commerce on behalf of the United States.  All rights reserved.
_database_code_ICSD                85193
_audit_creation_date               1999/06/02
_audit_update_record               2003/04/01
_chemical_name_systematic
;
Dicalcium Pentazirconium Dititanium Oxide
;
_chemical_formula_structural       'Ca2 Zr5 Ti2 O16'
_chemical_formula_sum              'Ca2 O16 Ti2 Zr5'
_chemical_name_mineral             'Calzirtite O'
_publ_section_title
;
The crystal structure of the orthorhombic calzirtite from Val Malenco 
(Italy)
;
loop_
_citation_id
_citation_journal_abbrev
_citation_year
_citation_journal_volume
_citation_journal_issue
_citation_page_first
_citation_page_last
_citation_journal_id_ASTM
primary 'Neues Jahrbuch fuer Mineralogie. Monatshefte (Band=Jahr) (1950-)'
 1997 1997 10 467 480 NJMMAW
_publ_author_name
;
Callegari, A.;Mazzi, F.;Ungaretti, L.
;
_cell_length_a                     15.207(4)
_cell_length_b                     15.207(4)
_cell_length_c                     10.114(3)
_cell_angle_alpha                  90.
_cell_angle_beta                   90.
_cell_angle_gamma                  90.
_cell_volume                       2338.89
_cell_formula_units_Z              8
_symmetry_space_group_name_H-M     'P b c a'
_symmetry_Int_Tables_number        61
_refine_ls_R_factor_all            .044
loop_
_symmetry_equiv_pos_site_id
_symmetry_equiv_pos_as_xyz
  1	'x+.5, y, -z+.5'
  2	'x, -y+.5, z+.5'
  3	'-x+.5, y+.5, z'
  4	'-x, -y, -z'
  5	'-x+.5, -y, z+.5'
  6	'-x, y+.5, -z+.5'
  7	'x+.5, -y+.5, -z'
  8	'x, y, z'
loop_
_atom_type_symbol
_atom_type_oxidation_number
Ca2+	2
O2-	-2
Ti4+	4
Zr4+	4
loop_
_atom_site_label
_atom_site_type_symbol
_atom_site_symmetry_multiplicity
_atom_site_Wyckoff_symbol
_atom_site_fract_x
_atom_site_fract_y
_atom_site_fract_z
_atom_site_occupancy
_atom_site_attached_hydrogens
_atom_site_U_iso_or_equiv
Zr1 Zr4+ 8 c 0.0137(1) 0.2628(1) 0.1255(2) 1. 0 0.0092(2) 
Ti1 Ti4+ 8 c 0.1713(1) 0.4210(1) 0.1269(3) 1. 0 0.0066(5) 
Ti2 Ti4+ 8 c 0.6645(1) -.0849(1) 0.6234(3) 1. 0 0.0062(4) 
Ca1 Ca2+ 8 c 0.3320(1) 0.5813(1) 0.1267(3) 1. 0 0.0083(5) 
Ca2 Ca2+ 8 c 0.8325(1) 0.0830(1) 0.6237(3) 1. 0 0.0081(5) 
Zr2 Zr4+ 8 c 0.1633(1) 0.2676(1) 0.3635(1) 1. 0 0.0060(2) 
Zr3 Zr4+ 8 c -.0168(1) -.0871(1) 0.6127(1) 1. 0 0.0061(2) 
Zr4 Zr4+ 8 c 0.6605(1) 0.7681(1) 0.8575(1) 1. 0 0.0058(3) 
Zr5 Zr4+ 8 c 0.4817(1) 0.4105(1) 0.1086(1) 1. 0 0.0061(2) 
O1 O2- 8 c 0.2874(5) -.0005(6) 0.2521(9) 1. 0 0.014(2) 
O2 O2- 8 c 0.2495(5) 0.0374(5) 0.5005(8) 1. 0 0.009(2) 
O3 O2- 8 c 0.5699(5) -.0014(5) 0.2498(9) 1. 0 0.009(2) 
O4 O2- 8 c 0.2509(6) 0.3197(5) 0.5025(9) 1. 0 0.009(2) 
O5 O2- 8 c 0.2442(5) 0.3277(5) 0.2086(8) 1. 0 0.008(2) 
O6 O2- 8 c -.0783(5) -.0078(5) 0.4541(8) 1. 0 0.010(2) 
O7 O2- 8 c 0.7432(5) 0.8274(5) 0.7026(8) 1. 0 0.009(2) 
O8 O2- 8 c 0.4220(5) 0.4937(5) -.0448(8) 1. 0 0.011(2) 
O9 O2- 8 c 0.1110(6) 0.3316(5) 0.0033(9) 1. 0 0.011(2) 
O10 O2- 8 c -.0820(5) 0.8617(5) 0.2502(9) 1. 0 0.009(2) 
O11 O2- 8 c 0.6161(6) 0.8346(6) 0.4935(9) 1. 0 0.015(2) 
O12 O2- 8 c 0.4170(5) 0.3679(5) 0.7486(9) 1. 0 0.012(2) 
O13 O2- 8 c 0.0672(5) 0.3297(5) 0.4957(8) 1. 0 0.009(2) 
O14 O2- 8 c -.0812(5) 0.8156(5) 0.7418(9) 1. 0 0.011(2) 
O15 O2- 8 c 0.5654(5) 0.8286(5) -.0073(8) 1. 0 0.009(2) 
O16 O2- 8 c 0.4214(5) 0.3144(5) 0.2456(9) 1. 0 0.009(2) 

#End of data_85193-ICSD


