data_73549-ICSD
#?2014 by Fachinformationszentrum Karlsruhe, and the U.S. Secretary of 
#Commerce on behalf of the United States.  All rights reserved.
_database_code_ICSD                73549
_audit_creation_date               1994/06/30
_audit_update_record               2010/02/01
_chemical_name_systematic
;
Hexapotassium Tetranitridotrioxoditungstate
;
_chemical_formula_structural       'K6 (W2 O3 N4)'
_chemical_formula_sum              'K6 N4 O3 W2'
_publ_section_title
;
Synthesis and structure of a potassium nitridoditungstenate (K6 W2 N4 
O3), a potassium digermanate (K6 Ge2 O7) and a rubidium digermanate 
(Rb6 Ge2 O7)
;
loop_
_citation_id
_citation_journal_abbrev
_citation_year
_citation_journal_volume
_citation_page_first
_citation_page_last
_citation_journal_id_ASTM
primary 'Journal of Alloys and Compounds' 1993 200 211 215 JALCEU
_publ_author_name                  'Monz, M.;Ostermann, D.;Jacobs, H.'
_cell_length_a                     6.720(2)
_cell_length_b                     9.473(1)
_cell_length_c                     9.581(2)
_cell_angle_alpha                  90.
_cell_angle_beta                   91.99(2)
_cell_angle_gamma                  90.
_cell_volume                       609.54
_cell_formula_units_Z              2
_symmetry_space_group_name_H-M     'P 1 21/n 1'
_symmetry_Int_Tables_number        14
_refine_ls_R_factor_all            .04
loop_
_symmetry_equiv_pos_site_id
_symmetry_equiv_pos_as_xyz
  1	'-x+.5, y+.5, -z+.5'
  2	'-x, -y, -z'
  3	'x+.5, -y+.5, z+.5'
  4	'x, y, z'
loop_
_atom_type_symbol
_atom_type_oxidation_number
K1+	1
N3-	-3
O2-	-2
W6+	6
loop_
_atom_site_label
_atom_site_type_symbol
_atom_site_symmetry_multiplicity
_atom_site_Wyckoff_symbol
_atom_site_fract_x
_atom_site_fract_y
_atom_site_fract_z
_atom_site_occupancy
_atom_site_attached_hydrogens
W1 W6+ 4 e 0.94714(5) 0.14131(4) 0.63316(4) 1. 0 
K1 K1+ 4 e 0.2523(3) 0.0234(3) 0.0496(3) 1. 0 
K2 K1+ 4 e 0.3839(4) 0.1533(3) 0.4309(3) 1. 0 
K3 K1+ 4 e 0.8756(4) 0.2095(3) 0.2810(3) 1. 0 
O1 O2- 2 b 0 0 0.5 1. 0 
O2 O2- 4 e 0.049(1) 0.093(1) 0.8045(9) 1. 0 
N1 N3- 4 e 0.684(1) 0.171(1) 0.640(1) 1. 0 
N2 N3- 4 e 0.567(1) 0.1979(9) 0.0754(9) 1. 0 

loop_
_atom_site_aniso_label
_atom_site_aniso_type_symbol
_atom_site_aniso_U_11
_atom_site_aniso_U_22
_atom_site_aniso_U_33
_atom_site_aniso_U_12
_atom_site_aniso_U_13
_atom_site_aniso_U_23
W1 W6+ 0.0105(1) 0.00586(9) 0.00812(9) -.0010(1) 0.00312(8) -.0013(1)
K1 K1+ 0.0154(8) 0.0151(8) 0.0252(9) -.0022(7) 0.0053(7) -.0053(7)
K2 K1+ 0.0249(9) 0.0240(9) 0.0290(9) -.0060(9) 0.0056(8) 0.0020(9)
K3 K1+ 0.0199(9) 0.0310(9) 0.0202(8) 0.0075(9) -.0006(7) 0.0052(9)
O1 O2- 0.12(2) 0.028(4) 0.035(7) 0.003(9) 0.025(8) -.013(6)
O2 O2- 0.024(3) 0.028(4) 0.025(3) -.006(3) 0.000(3) 0.005(3)
N1 N3- 0.012(3) 0.032(5) 0.038(5) -.002(3) 0.002(3) 0.000(4)
N2 N3- 0.012(13) 0.012(3) 0.021(3) 0.002(3) -.002(3) -.011(3)
#End of data_73549-ICSD


