data_2155-ICSD
#?2014 by Fachinformationszentrum Karlsruhe, and the U.S. Secretary of 
#Commerce on behalf of the United States.  All rights reserved.
_database_code_ICSD                2155
_audit_creation_date               1980/01/01
_audit_update_record               2006/04/01
_chemical_name_systematic          'Tetrapotassium Phyllo-octasilicate'
_chemical_formula_structural       'K4 (Si8 O18)'
_chemical_formula_sum              'K4 O18 Si8'
_publ_section_title
;
Die Kristallstruktur des K4 Si8 O18: ein neuer Silikat-Schichttyp
;
loop_
_citation_id
_citation_journal_abbrev
_citation_year
_citation_journal_volume
_citation_page_first
_citation_page_last
_citation_journal_id_ASTM
primary 'Acta Crystallographica B (24,1968-38,1982)' 1974 30 2206 2213 ACBCAR
2 'Acta Crystallographica B (24,1968-38,1982)' 1974 30 2214 2217 ACBCAR
3 'Phase Transition' 1992 38 127 220 PHTRDP
_publ_author_name                  'Schweinsberg, H.;Liebau, F.'
_cell_length_a                     12.32(2)
_cell_length_b                     4.943(1)
_cell_length_c                     8.369(1)
_cell_angle_alpha                  90.80(2)
_cell_angle_beta                   111.19(1)
_cell_angle_gamma                  89.69(1)
_cell_volume                       475.15
_cell_formula_units_Z              1
_symmetry_space_group_name_H-M     'P -1'
_symmetry_Int_Tables_number        2
_refine_ls_R_factor_all            .098
loop_
_symmetry_equiv_pos_site_id
_symmetry_equiv_pos_as_xyz
  1	'-x, -y, -z'
  2	'x, y, z'
loop_
_atom_type_symbol
_atom_type_oxidation_number
K1+	1
O2-	-2
Si4+	4
loop_
_atom_site_label
_atom_site_type_symbol
_atom_site_symmetry_multiplicity
_atom_site_Wyckoff_symbol
_atom_site_fract_x
_atom_site_fract_y
_atom_site_fract_z
_atom_site_occupancy
_atom_site_attached_hydrogens
_atom_site_B_iso_or_equiv
K1 K1+ 2 i 0.8604(2) 0.2363(6) 0.9237(2) 1. 0 0.97(1) 
K2 K1+ 2 i 0.3493(2) 0.2590(6) 0.9346(2) 1. 0 1.09(1) 
Si1 Si4+ 2 i 0.0641(2) 0.2921(6) 0.7326(2) 1. 0 0.10(1) 
Si2 Si4+ 2 i 0.1458(2) 0.7932(6) 0.5879(2) 1. 0 0.05(1) 
Si3 Si4+ 2 i 0.3988(2) 0.7866(6) 0.5961(2) 1. 0 0.07(1) 
Si4 Si4+ 2 i 0.5520(2) 0.2828(6) 0.7353(2) 1. 0 0.08(1) 
O1 O2- 2 i 0.0954(5) 0.6045(16) 0.6982(7) 1. 0 0.59(1) 
O2 O2- 2 i 0.1396(5) 0.1037(16) 0.6473(7) 1. 0 0.66(1) 
O3 O2- 2 i 0.4346(5) 0.0987(16) 0.6603(8) 1. 0 0.76(1) 
O4 O2- 2 i 0.5000(5) 0.5957(16) 0.7122(7) 1. 0 0.70(1) 
O5 O2- 2 i 0.0743(5) 0.7561(15) 0.3836(7) 1. 0 0.33(1) 
O6 O2- 2 i 0.3771(5) 0.7513(16) 0.3957(7) 1. 0 0.64(1) 
O7 O2- 2 i 0.2795(5) 0.7181(15) 0.6254(7) 1. 0 0.31(1) 
O8 O2- 2 i 0.0914(5) 0.2463(16) 0.9251(7) 1. 0 0.64(1) 
O9 O2- 2 i 0.6305(6) 0.2319(17) 0.92319(17) 1. 0 1.06(1) 

#End of data_2155-ICSD


