data_166623-ICSD
#?2014 by Fachinformationszentrum Karlsruhe, and the U.S. Secretary of 
#Commerce on behalf of the United States.  All rights reserved.
_database_code_ICSD                166623
_audit_creation_date               2010/08/01
_chemical_name_systematic          'Disodium Oxotitanium Silicate'
_chemical_formula_structural       'Na2 (Ti O) (Si O4)'
_chemical_formula_sum              'Na2 O5 Si1 Ti1'
_publ_section_title
;
Crystal structure of the synthetic sodium titanosilicate Na2 (Ti O) 
(Si O4)
;
loop_
_citation_id
_citation_journal_abbrev
_citation_year
_citation_journal_volume
_citation_journal_issue
_citation_page_first
_citation_page_last
_citation_journal_id_ASTM
primary 'Doklady Akademii Nauk SSSR' 1964 157 6 1355 1357 DANKAS
_publ_author_name
;
Nikitin, A.V.;Ilyukhin, V.V.;Litvin, B.N.;Mel'nikov, O.K.;Belov, N.V.
;
_cell_length_a                     6.47
_cell_length_b                     6.47
_cell_length_c                     5.08
_cell_angle_alpha                  90.
_cell_angle_beta                   90.
_cell_angle_gamma                  90.
_cell_volume                       212.65
_cell_formula_units_Z              2
_symmetry_space_group_name_H-M     'P 4/n m m S'
_symmetry_Int_Tables_number        129
_refine_ls_R_factor_all            .097
loop_
_symmetry_equiv_pos_site_id
_symmetry_equiv_pos_as_xyz
  1	'-y+.5, -x+.5, z'
  2	'y+.5, x+.5, z'
  3	'-y, -x, -z'
  4	'y, x, -z'
  5	'y+.5, -x+.5, z'
  6	'-y+.5, x+.5, z'
  7	'y, -x, -z'
  8	'-y, x, -z'
  9	'x+.5, -y+.5, -z'
 10	'-x+.5, y+.5, -z'
 11	'x, -y, z'
 12	'-x, y, z'
 13	'-x+.5, -y+.5, -z'
 14	'x+.5, y+.5, -z'
 15	'-x, -y, z'
 16	'x, y, z'
loop_
_atom_type_symbol
_atom_type_oxidation_number
Na1+	1
O2-	-2
Si4+	4
Ti4+	4
loop_
_atom_site_label
_atom_site_type_symbol
_atom_site_symmetry_multiplicity
_atom_site_Wyckoff_symbol
_atom_site_fract_x
_atom_site_fract_y
_atom_site_fract_z
_atom_site_occupancy
_atom_site_attached_hydrogens
_atom_site_B_iso_or_equiv
Ti1 Ti4+ 2 c 0.5 0 0.932 1. 0 0.83 
Si1 Si4+ 2 a 0 0 0 1. 0 0.83 
Na1 Na1+ 4 e 0.250 0.250 0.5 1. 0 0.83 
O1 O2- 8 i 0.206 0 0.826 1. 0 0.83 
O2 O2- 2 c 0.5 0 -0.742 1. 0 0.83 

#End of data_166623-ICSD


