data_95381-ICSD
#?2014 by Fachinformationszentrum Karlsruhe, and the U.S. Secretary of 
#Commerce on behalf of the United States.  All rights reserved.
_database_code_ICSD                95381
_audit_creation_date               2003/10/01
_chemical_name_systematic          'Lithium Erbium Oxide - Alpha'
_chemical_formula_structural       'Li Er O2'
_chemical_formula_sum              'Er1 Li1 O2'
_publ_section_title
;
Structures and magnetic properties of ternary lithium oxides Li R O2 
( R = rare earths)
;
loop_
_citation_id
_citation_journal_abbrev
_citation_year
_citation_journal_volume
_citation_page_first
_citation_page_last
_citation_journal_id_ASTM
primary 'Chemistry of Materials' 2002 14 3245 3251 CMATEX
_publ_author_name
;
Hashimoto, Y.;Wakeshima, M.;Matsuhira, K.;Hinatsu, Y.
;
_cell_length_a                     4.4291(2)
_cell_length_b                     4.4291(2)
_cell_length_c                     10.2210(5)
_cell_angle_alpha                  90
_cell_angle_beta                   90
_cell_angle_gamma                  90
_cell_volume                       200.5
_cell_formula_units_Z              4
_symmetry_space_group_name_H-M     'I 41/a m d S'
_symmetry_Int_Tables_number        141
_refine_ls_R_factor_all            .0546
loop_
_symmetry_equiv_pos_site_id
_symmetry_equiv_pos_as_xyz
  1	'y, -x+.5, z+.25'
  2	'-y, x+.5, z+.25'
  3	'y, -x, -z'
  4	'-y, x, -z'
  5	'-y, -x+.5, z+.25'
  6	'y, x+.5, z+.25'
  7	'-y, -x, -z'
  8	'y, x, -z'
  9	'x, -y+.5, -z+.25'
 10	'-x, y+.5, -z+.25'
 11	'x, -y, z'
 12	'-x, y, z'
 13	'-x, -y+.5, -z+.25'
 14	'x, y+.5, -z+.25'
 15	'-x, -y, z'
 16	'x, y, z'
 17	'y+.5, -x, z+.75'
 18	'-y+.5, x, z+.75'
 19	'y+.5, -x+.5, -z+.5'
 20	'-y+.5, x+.5, -z+.5'
 21	'-y+.5, -x, z+.75'
 22	'y+.5, x, z+.75'
 23	'-y+.5, -x+.5, -z+.5'
 24	'y+.5, x+.5, -z+.5'
 25	'x+.5, -y, -z+.75'
 26	'-x+.5, y, -z+.75'
 27	'x+.5, -y+.5, z+.5'
 28	'-x+.5, y+.5, z+.5'
 29	'-x+.5, -y, -z+.75'
 30	'x+.5, y, -z+.75'
 31	'-x+.5, -y+.5, z+.5'
 32	'x+.5, y+.5, z+.5'
loop_
_atom_type_symbol
_atom_type_oxidation_number
Er3+	3
Li1+	1
O2-	-2
loop_
_atom_site_label
_atom_site_type_symbol
_atom_site_symmetry_multiplicity
_atom_site_Wyckoff_symbol
_atom_site_fract_x
_atom_site_fract_y
_atom_site_fract_z
_atom_site_occupancy
_atom_site_attached_hydrogens
_atom_site_B_iso_or_equiv
Li1 Li1+ 4 b 0 0 0.5 1. 0 0.99(11) 
Er1 Er3+ 4 a 0 0 0 1. 0 0.10(6) 
O1 O2- 8 e 0 0 0.2234(1) 1. 0 0.84(6) 

#End of data_95381-ICSD


