data_280995-ICSD
#?2014 by Fachinformationszentrum Karlsruhe, and the U.S. Secretary of 
#Commerce on behalf of the United States.  All rights reserved.
_database_code_ICSD                280995
_audit_creation_date               2003/04/01
_audit_update_record               2006/04/01
_chemical_name_systematic          'Dicalcium Silicate'
_chemical_formula_structural       'Ca2 (Si O4)'
_chemical_formula_sum              'Ca2 O4 Si1'
_publ_section_title
;
Simulated annealing structure solution of a new phase of dicalcium 
silicate Ca2 Si O4 and the mechanism of structural changes from alpha-
dicalcium silicate hydrate to alpha'L-dicalcium silicate via the new 
phase
;
loop_
_citation_id
_citation_journal_abbrev
_citation_year
_citation_journal_volume
_citation_page_first
_citation_page_last
_citation_journal_id_ASTM
primary 'Acta Crystallographica, Section B: Structural Science'
 2002 58 613 621 ASBSDK
2 'Golden Book of Phase Transitions, Wroclaw' 2002 1 1 123 GBOPT5
_publ_author_name                  'Toraya, H.;Yamazaki, S.'
_cell_length_a                     8.2127(5)
_cell_length_b                     9.7930(4)
_cell_length_c                     9.7954(5)
_cell_angle_alpha                  90.
_cell_angle_beta                   94.848(5)
_cell_angle_gamma                  90.
_cell_volume                       785
_cell_formula_units_Z              8
_symmetry_space_group_name_H-M     'P 1 21/c 1'
_symmetry_Int_Tables_number        14
_refine_ls_R_factor_all            .0577
loop_
_symmetry_equiv_pos_site_id
_symmetry_equiv_pos_as_xyz
  1	'x, -y+.5, z+.5'
  2	'-x, -y, -z'
  3	'-x, y+.5, -z+.5'
  4	'x, y, z'
loop_
_atom_type_symbol
_atom_type_oxidation_number
Ca2+	2
O2-	-2
Si4+	4
loop_
_atom_site_label
_atom_site_type_symbol
_atom_site_symmetry_multiplicity
_atom_site_Wyckoff_symbol
_atom_site_fract_x
_atom_site_fract_y
_atom_site_fract_z
_atom_site_occupancy
_atom_site_attached_hydrogens
_atom_site_U_iso_or_equiv
Ca1 Ca2+ 4 e 0.8258(3) 0.4210(2) 0.0729(2) 1. 0 0.0160 
Ca2 Ca2+ 4 e 0.6621(3) 0.4181(2) 0.4121(2) 1. 0 0.0160 
Ca3 Ca2+ 4 e 0.3760(3) 0.2889(2) 0.0816(2) 1. 0 0.0160 
Ca4 Ca2+ 4 e 0.9081(3) 0.0681(2) 0.2068(2) 1. 0 0.0160 
Si1 Si4+ 4 e 0.0221(4) 0.2959(3) 0.4326(3) 1. 0 0.0137 
Si2 Si4+ 4 e 0.4618(4) 0.5757(3) 0.2026(3) 1. 0 0.0137 
O1 O2- 4 e 0.8768(7) 0.2993(6) 0.5287(7) 1. 0 0.0175 
O2 O2- 4 e 0.9625(8) 0.3647(5) 0.2856(7) 1. 0 0.0175 
O3 O2- 4 e 0.0641(8) 0.1350(5) 0.4077(7) 1. 0 0.0175 
O4 O2- 4 e 0.1831(7) 0.3873(5) 0.5038(6) 1. 0 0.0175 
O5 O2- 4 e 0.5894(9) 0.4557(5) 0.1682(6) 1. 0 0.0175 
O6 O2- 4 e 0.2903(9) 0.5091(5) 0.1502(6) 1. 0 0.0175 
O7 O2- 4 e 0.4982(7) 0.7130(5) 0.1283(7) 1. 0 0.0175 
O8 O2- 4 e 0.4557(7) 0.5955(5) 0.3702(7) 1. 0 0.0175 

#End of data_280995-ICSD


