data_30504-ICSD
#?2014 by Fachinformationszentrum Karlsruhe, and the U.S. Secretary of 
#Commerce on behalf of the United States.  All rights reserved.
_database_code_ICSD                30504
_audit_creation_date               1980/01/01
_audit_update_record               2011/02/01
_chemical_name_systematic
;
Magnesium Potassium Phosphate Hexahydrate
;
_chemical_formula_structural       'Mg K P O4 (H2 O)6'
_chemical_formula_sum              'H12 K1 Mg1 O10 P1'
_publ_section_title
;
Crystal Structure of a Struvite Analogue, Mg K P O4 (H2 O)6
;
loop_
_citation_id
_citation_journal_abbrev
_citation_year
_citation_journal_volume
_citation_page_first
_citation_page_last
_citation_journal_id_ASTM
primary 'Acta Crystallographica B (24,1968-38,1982)' 1979 35 11 13 ACBCAR
_publ_author_name                  'Mathew, M.;Schroeder, L.W.'
_cell_length_a                     6.873(2)
_cell_length_b                     6.160(2)
_cell_length_c                     11.087(3)
_cell_angle_alpha                  90.
_cell_angle_beta                   90.
_cell_angle_gamma                  90.
_cell_volume                       469.4
_cell_formula_units_Z              2
_symmetry_space_group_name_H-M     'P m n 21'
_symmetry_Int_Tables_number        31
_refine_ls_R_factor_all            .033
loop_
_symmetry_equiv_pos_site_id
_symmetry_equiv_pos_as_xyz
  1	'x+.5, -y, z+.5'
  2	'-x+.5, -y, z+.5'
  3	'-x, y, z'
  4	'x, y, z'
loop_
_atom_type_symbol
_atom_type_oxidation_number
H1+	1
K1+	1
Mg2+	2
O2-	-2
P5+	5
loop_
_atom_site_label
_atom_site_type_symbol
_atom_site_symmetry_multiplicity
_atom_site_Wyckoff_symbol
_atom_site_fract_x
_atom_site_fract_y
_atom_site_fract_z
_atom_site_occupancy
_atom_site_attached_hydrogens
_atom_site_B_iso_or_equiv
K1 K1+ 2 a 0 0.3681(6) 0 1. 0 0 
Mg1 Mg2+ 2 a 0 0.3830(7) 0.6487(4) 1. 0 0 
P1 P5+ 2 a 0 -.0069(6) 0.2744(4) 1. 0 0 
O1 O2- 2 a 0 -.0186(14) 0.1363(8) 1. 0 0 
O2 O2- 2 a 0 -.2386(11) 0.3285(9) 1. 0 0 
O3 O2- 4 b 0.1827(7) 0.1120(8) 0.3181(6) 1. 0 0 
O4 O2- 2 a 0.5 0.3124(15) 0.0631(11) 1. 0 0 
O5 O2- 2 a 0.5 0.9144(13) 0.2404(9) 1. 0 0 
O6 O2- 4 b 0.2223(10) 0.2737(9) 0.5382(6) 1. 0 0 
O7 O2- 4 b 0.2912(8) 0.5105(11) 0.2656(7) 1. 0 0 
H1 H1+ 2 a 0 0.717(20) 0.503(11) 1. 0 3. 
H2 H1+ 2 a 0.5 0.197(20) 0.084(9) 1. 0 3. 
H3 H1+ 4 b 0.382(9) -.013(12) 0.255(7) 1. 0 3. 
H4 H1+ 4 b 0.185(12) 0.228(12) 0.462(8) 1. 0 3. 
H5 H1+ 4 b 0.198(11) 0.802(14) 0.088(5) 1. 0 3. 
H6 H1+ 4 b 0.246(11) 0.408(12) 0.266(7) 1. 0 3. 
H7 H1+ 4 b 0.199(10) 0.593(12) 0.273(8) 1. 0 3. 

loop_
_atom_site_aniso_label
_atom_site_aniso_type_symbol
_atom_site_aniso_U_11
_atom_site_aniso_U_22
_atom_site_aniso_U_33
_atom_site_aniso_U_12
_atom_site_aniso_U_13
_atom_site_aniso_U_23
K1 K1+ 0.064(3) 0.048(2) 0.050(3) 0 0 0.010(2)
Mg1 Mg2+ 0.023(2) 0.016(2) 0.020(3) 0 0 -.004(2)
P1 P5+ 0.020(2) 0.015(2) 0.019(2) 0 0 -.002(2)
O1 O2- 0.031(5) 0.030(5) 0.013(4) 0 0 -.003(5)
O2 O2- 0.032(5) 0.012(4) 0.029(4) 0 0 0.009(5)
O3 O2- 0.020(3) 0.021(3) 0.027(3) -.003(3) 0.003(4) -.005(3)
O4 O2- 0.108(9) 0.010(5) 0.028(6) 0 0 -.013(5)
O5 O2- 0.023(5) 0.031(6) 0.085(8) 0 0 -.030(5)
O6 O2- 0.032(4) 0.047(4) 0.014(3) 0.009(4) -.002(3) -.006(4)
O7 O2- 0.040(4) 0.020(3) 0.051(3) 0.000(4) 0.018(4) 0.008(3)
#End of data_30504-ICSD


