data_401396-ICSD
#?2014 by Fachinformationszentrum Karlsruhe, and the U.S. Secretary of 
#Commerce on behalf of the United States.  All rights reserved.
_database_code_ICSD                401396
_audit_creation_date               1995/10/17
_chemical_name_systematic
;
Tribromoselenium Tetrabromoaluminate
;
_chemical_formula_structural       '(Se Br3) (Al Br4)'
_chemical_formula_sum              'Al1 Br7 Se1'
_publ_section_title
;
Se Br3 (Al Br4) und Te I3 (Al I4) - zwei weitere Vertreter des S Cl3 
(Al Cl4)-Strukturtyps
;
loop_
_citation_id
_citation_journal_abbrev
_citation_year
_citation_journal_volume
_citation_page_first
_citation_page_last
_citation_journal_id_ASTM
primary 'Zeitschrift fuer Anorganische und Allgemeine Chemie (1950) (DE)'
 1995 621 1042 1046 ZAACAB
_publ_author_name                  'Beck, J.;Fischer, A.'
_cell_length_a                     6.707(7)
_cell_length_b                     6.639(5)
_cell_length_c                     14.28
_cell_angle_alpha                  90.
_cell_angle_beta                   101.21(9)
_cell_angle_gamma                  90.
_cell_volume                       623.73
_cell_formula_units_Z              2
_symmetry_space_group_name_H-M     'P 1 c 1'
_symmetry_Int_Tables_number        7
_refine_ls_R_factor_all            .053
loop_
_symmetry_equiv_pos_site_id
_symmetry_equiv_pos_as_xyz
  1	'x, -y, z+.5'
  2	'x, y, z'
loop_
_atom_type_symbol
_atom_type_oxidation_number
Al3+	3
Br1-	-1
Se4+	4
loop_
_atom_site_label
_atom_site_type_symbol
_atom_site_symmetry_multiplicity
_atom_site_Wyckoff_symbol
_atom_site_fract_x
_atom_site_fract_y
_atom_site_fract_z
_atom_site_occupancy
_atom_site_attached_hydrogens
Se1 Se4+ 2 a 0 0.5773(3) 0 1. 0 
Br1 Br1- 2 a -.1218(7) 0.3737(5) 0.1055(3) 1. 0 
Br2 Br1- 2 a 0.2585(5) 0.3873(4) -.0385(3) 1. 0 
Br3 Br1- 2 a 0.1892(5) 0.8001(4) 0.1057(2) 1. 0 
Br4 Br1- 2 a 0.0292(5) 0.8962(4) -.1681(2) 1. 0 
Br5 Br1- 2 a -.3786(5) 0.8865(4) -.0237(2) 1. 0 
Br6 Br1- 2 a -.3281(5) 0.3399(3) -.1741(3) 1. 0 
Br7 Br1- 2 a -.5128(5) 0.8491(3) -.2914(2) 1. 0 
Al1 Al3+ 2 a -.3003(9) 0.9936(9) -.1653(4) 1. 0 

loop_
_atom_site_aniso_label
_atom_site_aniso_type_symbol
_atom_site_aniso_U_11
_atom_site_aniso_U_22
_atom_site_aniso_U_33
_atom_site_aniso_U_12
_atom_site_aniso_U_13
_atom_site_aniso_U_23
Se1 Se4+ 0.0628(12) 0.0467(11) 0.0555(10) -.0031(10) 0.0065(9) 0.0025(10)
Br1 Br1- 0.164(3) 0.078(2) 0.077(2) -.032(2) 0.037(2) 0.0139(14)
Br2 Br1- 0.075(2) 0.090(2) 0.107(2) 0.0183(15) 0.003(2) -.028(2)
Br3 Br1- 0.074(2) 0.072(2) 0.0688(15) -.0108(12) 0.0038(12) -.0122(13)
Br4 Br1- 0.0561(13) 0.0682(14) 0.0677(14) 0.0057(12) 0.0193(10) 0.0040(12)
Br5 Br1- 0.0675(14) 0.075(2) 0.0617(13) -.0005(12) 0.0242(11) 0.0024(12)
Br6 Br1- 0.088(2) 0.0448(12) 0.084(2) 0.0074(11) 0.0022(13) 0.0009(11)
Br7 Br1- 0.0670(14) 0.0620(13) 0.0623(12) 0.0051(11) 0.0014(10) -.0057(11)
Al1 Al3+ 0.050(3) 0.045(3) 0.056(3) 0.003(3) 0.013(3) 0.000(3)
#End of data_401396-ICSD


