data_409811-ICSD
#?2014 by Fachinformationszentrum Karlsruhe, and the U.S. Secretary of 
#Commerce on behalf of the United States.  All rights reserved.
_database_code_ICSD                409811
_audit_creation_date               2005/10/01
_chemical_name_systematic
;
Potassium Terbium Tetrasulfidogermanate
;
_chemical_formula_structural       'K Tb Ge S4'
_chemical_formula_sum              'Ge1 K1 S4 Tb1'
_publ_section_title
;
Crystal structure of potassium terbium(III) tetrasulfidogermanate, K 
Tb Ge S4, and potassium praseodymium(III) tetraselenidogermanate, K 
Pr Ge Se4
;
loop_
_citation_id
_citation_journal_abbrev
_citation_year
_citation_journal_volume
_citation_page_first
_citation_page_last
_citation_journal_id_ASTM
primary 'Zeitschrift fuer Kristallographie - New Crystal Structures'
 2005 220 7 8 ZKNSFT
_publ_author_name                  'Chan, B.-C.;Dorhout, P.K.'
_cell_length_a                     6.471(2)
_cell_length_b                     6.645(2)
_cell_length_c                     8.623(3)
_cell_angle_alpha                  90.00
_cell_angle_beta                   107.992(5)
_cell_angle_gamma                  90.00
_cell_volume                       352.66
_cell_formula_units_Z              2
_symmetry_space_group_name_H-M     'P 1 21 1'
_symmetry_Int_Tables_number        4
_refine_ls_R_factor_all            .0368
loop_
_symmetry_equiv_pos_site_id
_symmetry_equiv_pos_as_xyz
  1	'-x, y+.5, -z'
  2	'x, y, z'
loop_
_atom_type_symbol
_atom_type_oxidation_number
Ge4+	4
K1+	1
S2-	-2
Tb3+	3
loop_
_atom_site_label
_atom_site_type_symbol
_atom_site_symmetry_multiplicity
_atom_site_Wyckoff_symbol
_atom_site_fract_x
_atom_site_fract_y
_atom_site_fract_z
_atom_site_occupancy
_atom_site_attached_hydrogens
_atom_site_U_iso_or_equiv
Tb1 Tb3+ 2 a 0.22959(10) 0.13737(8) 0.55137(7) 1 0 0.0110(3) 
Ge1 Ge4+ 2 a 0.2207(2) -0.3976(3) 0.32269(18) 1 0 0.0099(5) 
S1 S2- 2 a 0.0145(7) -0.1280(6) 0.2949(6) 1 0 0.0132(11) 
S2 S2- 2 a 0.0279(7) -0.1367(6) 0.7226(6) 1 0 0.0135(11) 
S3 S2- 2 a 0.5793(6) 0.1010(7) 0.8377(4) 1 0 0.0170(10) 
S4 S2- 2 a 0.5685(6) 0.0412(6) 0.4259(5) 1 0 0.0133(9) 
K1 K1+ 2 a 0.2665(6) 0.1170(9) 0.0638(4) 1 0 0.0293(10) 

loop_
_atom_site_aniso_label
_atom_site_aniso_type_symbol
_atom_site_aniso_U_11
_atom_site_aniso_U_22
_atom_site_aniso_U_33
_atom_site_aniso_U_12
_atom_site_aniso_U_13
_atom_site_aniso_U_23
Tb1 Tb3+ 0.0085(4) 0.0117(4) 0.0132(4) 0.0000(4) 0.0039(3) 0.0002(4)
Ge1 Ge4+ 0.0083(7) 0.0079(10) 0.0139(8) -0.0001(7) 0.0039(6) 0.0007(7)
S1 S2- 0.014(2) 0.010(2) 0.015(3) 0.0029(18) 0.0030(19) 0.0013(18)
S2 S2- 0.012(2) 0.009(2) 0.018(3) 0.0028(19) 0.0023(19) 0.0020(18)
S3 S2- 0.0136(18) 0.025(3) 0.0138(18) 0.0022(18) 0.0066(15) 0.0032(19)
S4 S2- 0.0079(19) 0.019(2) 0.012(2) 0.0013(17) 0.0023(16) -0.0021(17)
K1 K1+ 0.0331(19) 0.034(3) 0.0210(18) 0.001(2) 0.0090(15) -0.004(2)
#End of data_409811-ICSD


