data_300213-ICSD
#?2014 by Fachinformationszentrum Karlsruhe, and the U.S. Secretary of 
#Commerce on behalf of the United States.  All rights reserved.
_database_code_ICSD                300213
_audit_creation_date               1992/01/23
_audit_update_record               2007/08/01
_chemical_name_systematic          'Aluminium Sulfide - Alpha'
_chemical_formula_structural       'Al2 S3'
_chemical_formula_sum              'Al2 S3'
_publ_section_title
;
Crystal structure of alpha-dialuminium trisulfide
;
loop_
_citation_id
_citation_journal_abbrev
_citation_year
_citation_journal_volume
_citation_page_first
_citation_page_last
_citation_journal_id_ASTM
primary 'Zeitschrift fuer Kristallographie (1979-2010)' 1992 198 307 308 ZEKRDZ
_publ_author_name                  'Eisenmann, B.'
_cell_length_a                     6.430(2)
_cell_length_b                     6.430(2)
_cell_length_c                     17.880(4)
_cell_angle_alpha                  90.
_cell_angle_beta                   90.
_cell_angle_gamma                  120.
_cell_volume                       640.21
_cell_formula_units_Z              6
_symmetry_space_group_name_H-M     'P 61'
_symmetry_Int_Tables_number        169
_refine_ls_R_factor_all            .048
loop_
_symmetry_equiv_pos_site_id
_symmetry_equiv_pos_as_xyz
  1	'x-y, x, z+.1667'
  2	'y, -x+y, z+.8333'
  3	'-x, -y, z+.5'
  4	'-x+y, -x, z+.6667'
  5	'-y, x-y, z+.3333'
  6	'x, y, z'
loop_
_atom_type_symbol
_atom_type_oxidation_number
Al3+	3
S2-	-2
loop_
_atom_site_label
_atom_site_type_symbol
_atom_site_symmetry_multiplicity
_atom_site_Wyckoff_symbol
_atom_site_fract_x
_atom_site_fract_y
_atom_site_fract_z
_atom_site_occupancy
_atom_site_attached_hydrogens
S1 S2- 6 a 0.00003(60) 0.33469(50) 0 1. 0 
S2 S2- 6 a 0.3343(7) 1.01191(50) 0.00395(20) 1. 0 
S3 S2- 6 a 0.66198(60) 0.66843(50) -.00085(20) 1. 0 
Al1 Al3+ 6 a 0.34487(60) 0.35791(40) 0.04327(20) 1. 0 
Al2 Al3+ 6 a -.01134(40) 0.32257(50) -.12815(20) 1. 0 

loop_
_atom_site_aniso_label
_atom_site_aniso_type_symbol
_atom_site_aniso_U_11
_atom_site_aniso_U_22
_atom_site_aniso_U_33
_atom_site_aniso_U_12
_atom_site_aniso_U_13
_atom_site_aniso_U_23
S1 S2- 0.00758(70) 0.00844(80) 0.00686(70) 0.00282(80) -0.00077(60) 
0.0033(6)
S2 S2- 0.01013(80) 0.00987(80) 0.00671(70) -0.00121(70) -0.00179(60) 
0.0076(7)
S3 S2- 0.00999(80) 0.00805(80) 0.01417(80) 0.00174(80) 0.00337(80) 
0.00392(60)
Al1 Al3+ 0.0094(10) 0.0088(11) 0.0067(12) 0.0000(11) 0.00213(90) 
0.00597(80)
Al2 Al3+ 0.0066(13) 0.0104(11) 0.0084(13) 0.00135(90) -0.0016(10) 0.0060(9)
#End of data_300213-ICSD


