data_6153-ICSD
#?2014 by Fachinformationszentrum Karlsruhe, and the U.S. Secretary of 
#Commerce on behalf of the United States.  All rights reserved.
_database_code_ICSD                6153
_audit_creation_date               1980/01/01
_audit_update_record               2004/10/01
_chemical_name_systematic          'Hexapotassium Dicobaltate(IV)'
_chemical_formula_structural       'K6 (Co2 O7)'
_chemical_formula_sum              'Co2 K6 O7'
_publ_section_title
;
Neue Oxocobaltate (IV): zur Kenntnis von K6 (Co2 O7)
;
loop_
_citation_id
_citation_journal_abbrev
_citation_year
_citation_journal_volume
_citation_page_first
_citation_page_last
_citation_journal_id_ASTM
primary 'Zeitschrift fuer Anorganische und Allgemeine Chemie (1950) (DE)'
 1974 409 152 162 ZAACAB
_publ_author_name                  'Jansen, M.;Hoppe, R.'
_cell_length_a                     6.585
_cell_length_b                     9.123
_cell_length_c                     11.479
_cell_angle_alpha                  90.
_cell_angle_beta                   127.1
_cell_angle_gamma                  90.
_cell_volume                       550.01
_cell_formula_units_Z              2
_symmetry_space_group_name_H-M     'P 1 21/c 1'
_symmetry_Int_Tables_number        14
_refine_ls_R_factor_all            .0926
loop_
_symmetry_equiv_pos_site_id
_symmetry_equiv_pos_as_xyz
  1	'x, -y+.5, z+.5'
  2	'-x, -y, -z'
  3	'-x, y+.5, -z+.5'
  4	'x, y, z'
loop_
_atom_type_symbol
_atom_type_oxidation_number
Co4+	4
K1+	1
O2-	-2
loop_
_atom_site_label
_atom_site_type_symbol
_atom_site_symmetry_multiplicity
_atom_site_Wyckoff_symbol
_atom_site_fract_x
_atom_site_fract_y
_atom_site_fract_z
_atom_site_occupancy
_atom_site_attached_hydrogens
_atom_site_B_iso_or_equiv
Co1 Co4+ 4 e 0.4161(1) 0.14216(6) 0.8636(1) 1. 0 0.75 
K1 K1+ 4 e 0.6860(2) 0.0245(1) 0.4419(2) 1. 0 1.52 
K2 K1+ 4 e 0.2004(2) 0.1504(1) 0.0712(2) 1. 0 2.11 
K3 K1+ 4 e 0.8442(2) 0.2946(1) 0.7117(2) 1. 0 1.61 
O1 O2- 4 e 0.1359(6) 0.0898(4) 0.6954(6) 1. 0 1.82 
O2 O2- 4 e 0.3571(6) 0.1994(4) 0.4238(6) 1. 0 1.88 
O3 O2- 4 e 0.3199(7) 0.8380(5) 0.1403(6) 1. 0 2.42 
O4 O2- 2 b 0.5 0 0 1. 0 2.53 

#End of data_6153-ICSD


