data_421803-ICSD
#?2014 by Fachinformationszentrum Karlsruhe, and the U.S. Secretary of 
#Commerce on behalf of the United States.  All rights reserved.
_database_code_ICSD                421803
_audit_creation_date               2011/02/01
_chemical_name_systematic
;
Potassium Samarium Bis(sulfate(VI)) Hydrate
;
_chemical_formula_structural       'K Sm (S O4)2 (H2 O)'
_chemical_formula_sum              'H2 K1 O9 S2 Sm1'
_publ_section_title
;
Syntheses, crystal structures and vibrational spectra of K Ln (S 
O4)2.H2 O (Ln = La, Nd, Sm, Eu, Gd, Dy)
;
loop_
_citation_id
_citation_journal_abbrev
_citation_year
_citation_journal_volume
_citation_journal_issue
_citation_page_first
_citation_page_last
_citation_journal_id_ASTM
primary 'Journal of Solid State Chemistry' 2010 183 9 2087 2094 JSSCBI
_publ_author_name                  'Kazmiercak, K.;Hoeppe, H.A.'
_cell_length_a                     10.0467(1)
_cell_length_b                     8.4555(1)
_cell_length_c                     10.3491(1)
_cell_angle_alpha                  90.00
_cell_angle_beta                   118.90
_cell_angle_gamma                  90.00
_cell_volume                       769.67
_cell_formula_units_Z              4
_symmetry_space_group_name_H-M     'P 1 21/c 1'
_symmetry_Int_Tables_number        14
_refine_ls_R_factor_all            .0232
loop_
_symmetry_equiv_pos_site_id
_symmetry_equiv_pos_as_xyz
  1	'x, -y+.5, z+.5'
  2	'-x, -y, -z'
  3	'-x, y+.5, -z+.5'
  4	'x, y, z'
loop_
_atom_type_symbol
_atom_type_oxidation_number
H1+	1
K1+	1
O2-	-2
S6+	6
Sm3+	3
loop_
_atom_site_label
_atom_site_type_symbol
_atom_site_symmetry_multiplicity
_atom_site_Wyckoff_symbol
_atom_site_fract_x
_atom_site_fract_y
_atom_site_fract_z
_atom_site_occupancy
_atom_site_attached_hydrogens
_atom_site_U_iso_or_equiv
Sm1 Sm3+ 4 e 0.26146(3) 0.84453(3) 0.03233(3) 1 0 0.0087(2) 
K1 K1+ 4 e -0.21429(15) 0.81512(16) 0.30796(15) 1 0 0.0222(3) 
S1 S6+ 4 e 0.51379(16) 1.18658(17) 0.11004(16) 1 0 0.0115(3) 
O1 O2- 4 e 0.5419(4) 1.3141(4) 0.2176(4) 1 0 0.0171(8) 
O2 O2- 4 e 0.4046(4) 1.0793(4) 0.1168(4) 1 0 0.0178(9) 
O3 O2- 4 e 0.6588(4) 1.1041(6) 0.1520(5) 1 0 0.0307(10) 
O4 O2- 4 e 0.4628(6) 1.2502(5) -0.0363(5) 1 0 0.0423(13) 
S2 S6+ 4 e 0.04965(15) 0.86787(16) 0.17740(15) 1 0 0.0091(3) 
O5 O2- 4 e 0.0715(4) 0.7875(4) 0.3108(4) 1 0 0.0146(8) 
O6 O2- 4 e -0.0982(4) 0.9460(5) 0.1125(4) 1 0 0.0186(8) 
O7 O2- 4 e 0.0543(4) 0.7540(4) 0.0713(4) 1 0 0.0179(8) 
O8 O2- 4 e 0.1738(4) 0.9802(4) 0.2109(4) 1 0 0.0201(9) 
O9 O2- 4 e 0.3110(5) 0.5514(5) 0.0400(5) 1 0 0.0242(10) 
H1 H1+ 4 e 0.297(10) 0.517(10) -0.032(6) 1 0 0.050 
H2 H1+ 4 e 0.389(7) 0.523(10) 0.093(8) 1 0 0.050 

loop_
_atom_site_aniso_label
_atom_site_aniso_type_symbol
_atom_site_aniso_U_11
_atom_site_aniso_U_22
_atom_site_aniso_U_33
_atom_site_aniso_U_12
_atom_site_aniso_U_13
_atom_site_aniso_U_23
Sm1 Sm3+ 0.0085(3) 0.0068(3) 0.0090(3) -0.00069(8) 0.00272(19) 0.00030(9)
K1 K1+ 0.0193(7) 0.0256(7) 0.0216(7) 0.0027(5) 0.0099(6) 0.0010(6)
S1 S6+ 0.0155(7) 0.0121(6) 0.0094(7) -0.0078(6) 0.0078(6) -0.0042(6)
O1 O2- 0.020(2) 0.0139(17) 0.015(2) -0.0036(16) 0.0072(17) -0.0055(17)
O2 O2- 0.0170(19) 0.014(2) 0.025(2) -0.0097(16) 0.0126(17) -0.0053(17)
O3 O2- 0.021(2) 0.038(2) 0.044(3) -0.003(2) 0.024(2) -0.012(2)
O4 O2- 0.078(4) 0.027(2) 0.012(2) -0.019(2) 0.014(2) 0.0035(19)
S2 S6+ 0.0082(7) 0.0110(7) 0.0090(7) 0.0027(5) 0.0048(6) 0.0027(5)
O5 O2- 0.0141(18) 0.017(2) 0.0133(18) 0.0040(16) 0.0068(16) 0.0041(17)
O6 O2- 0.0139(19) 0.022(2) 0.0189(19) 0.0056(16) 0.0076(16) 0.0074(17)
O7 O2- 0.0197(18) 0.0197(19) 0.0187(19) -0.0037(16) 0.0128(16) -0.0043(17)
O8 O2- 0.018(2) 0.018(2) 0.027(2) -0.0024(17) 0.0125(17) 0.0004(18)
O9 O2- 0.026(2) 0.019(2) 0.024(2) 0.0086(19) 0.0096(19) 0.0030(19)
#End of data_421803-ICSD


