data_400264-ICSD
#?2014 by Fachinformationszentrum Karlsruhe, and the U.S. Secretary of 
#Commerce on behalf of the United States.  All rights reserved.
_database_code_ICSD                400264
_audit_creation_date               1994/06/30
_chemical_name_systematic          'Sodium Tetrachlorotitanate(II)'
_chemical_formula_structural       'Na2 (Ti Cl4)'
_chemical_formula_sum              'Cl4 Na2 Ti1'
_publ_section_title
;
Synthese, Kristallstruktur und Magnetismus von 
Natriumtetrachlorotitanat(II), Na2TiCl4
;
loop_
_citation_id
_citation_journal_abbrev
_citation_year
_citation_journal_volume
_citation_page_first
_citation_page_last
_citation_journal_id_ASTM
primary 'Zeitschrift fuer Anorganische und Allgemeine Chemie (1950) (DE)'
 1994 620 801 804 ZAACAB
_publ_author_name
;
Hinz, D.J.;Dedecke, T.;Urland, W.;Meyer, G.
;
_cell_length_a                     6.942(1)
_cell_length_b                     11.989(2)
_cell_length_c                     3.856(1)
_cell_angle_alpha                  90.
_cell_angle_beta                   90.
_cell_angle_gamma                  90.
_cell_volume                       320.93
_cell_formula_units_Z              2
_symmetry_space_group_name_H-M     'P b a m'
_symmetry_Int_Tables_number        55
_refine_ls_R_factor_all            .055
loop_
_symmetry_equiv_pos_site_id
_symmetry_equiv_pos_as_xyz
  1	'x+.5, -y+.5, z'
  2	'-x+.5, y+.5, z'
  3	'x, y, -z'
  4	'-x, -y, -z'
  5	'-x+.5, y+.5, -z'
  6	'x+.5, -y+.5, -z'
  7	'-x, -y, z'
  8	'x, y, z'
loop_
_atom_type_symbol
_atom_type_oxidation_number
Cl1-	-1
Na1+	1
Ti2+	2
loop_
_atom_site_label
_atom_site_type_symbol
_atom_site_symmetry_multiplicity
_atom_site_Wyckoff_symbol
_atom_site_fract_x
_atom_site_fract_y
_atom_site_fract_z
_atom_site_occupancy
_atom_site_attached_hydrogens
Na1 Na1+ 4 g 0.4181(3) 0.3179(2) 0 1. 0 
Ti1 Ti2+ 2 d 0 0.5 0.5 1. 0 
Cl1 Cl1- 4 h 0.1272(2) 0.3021(1) 0.5 1. 0 
Cl2 Cl1- 4 g 0.2382(2) 0.5449(1) 0 1. 0 

loop_
_atom_site_aniso_label
_atom_site_aniso_type_symbol
_atom_site_aniso_U_11
_atom_site_aniso_U_22
_atom_site_aniso_U_33
_atom_site_aniso_U_12
_atom_site_aniso_U_13
_atom_site_aniso_U_23
Na1 Na1+ 0.0309(9) 0.0547(13) 0.0269(11) 0 0 0.0056(9)
Ti1 Ti2+ 0.0220(5) 0.0228(5) 0.0184(6) 0 0 0.0012(4)
Cl1 Cl1- 0.0275(5) 0.0246(5) 0.0235(6) 0 0 0.0034(4)
Cl2 Cl1- 0.0250(5) 0.0321(5) 0.0227(6) 0 0 -.0043(4)
#End of data_400264-ICSD


