data_4258-ICSD
#?2014 by Fachinformationszentrum Karlsruhe, and the U.S. Secretary of 
#Commerce on behalf of the United States.  All rights reserved.
_database_code_ICSD                4258
_audit_creation_date               1980/01/01
_audit_update_record               1997/11/10
_chemical_name_systematic
;
Magnesium Dicalcium Phosphate Dihydrate *
;
_chemical_formula_structural       'Mg Ca2 (P O4)2 (H2 O)2'
_chemical_formula_sum              'H4 Ca2 Mg1 O10 P2'
_chemical_name_mineral             Collinsite
_publ_section_title                'Crystal structure of collinsite'
loop_
_citation_id
_citation_journal_abbrev
_citation_year
_citation_journal_volume
_citation_page_first
_citation_page_last
_citation_journal_id_ASTM
primary 'Australian Journal of Chemistry' 1974 27 653 656 AJCHAS
_publ_author_name
;
Brotherton, P.D.;Maslen, E.N.;Pryce, M.W.;White, A.H.
;
_cell_length_a                     5.7344(8)
_cell_length_b                     6.780(1)
_cell_length_c                     5.4413(9)
_cell_angle_alpha                  97.29(1)
_cell_angle_beta                   108.56(1)
_cell_angle_gamma                  107.28(1)
_cell_volume                       185.68
_cell_formula_units_Z              1
_symmetry_space_group_name_H-M     'P -1'
_symmetry_Int_Tables_number        2
_refine_ls_R_factor_all            .033
loop_
_symmetry_equiv_pos_site_id
_symmetry_equiv_pos_as_xyz
  1	'-x, -y, -z'
  2	'x, y, z'
loop_
_atom_type_symbol
_atom_type_oxidation_number
Ca2+	2
H1+	1
Mg2+	2
O2-	-2
P5+	5
loop_
_atom_site_label
_atom_site_type_symbol
_atom_site_symmetry_multiplicity
_atom_site_Wyckoff_symbol
_atom_site_fract_x
_atom_site_fract_y
_atom_site_fract_z
_atom_site_occupancy
_atom_site_attached_hydrogens
_atom_site_U_iso_or_equiv
Mg1 Mg2+ 1 a 0 0 0 1. 0 0 
Ca1 Ca2+ 2 i 0.3031(3) 0.7590(2) 0.6544(3) 1. 0 0 
P1 P5+ 2 i 0.3336(3) 0.2436(3) 0.6633(3) 1. 0 0 
O1 O2- 2 i 0.3319(9) 0.1276(7) 0.8905(9) 1. 0 0 
O2 O2- 2 i 0.2549(9) 0.0720(7) 0.4028(9) 1. 0 0 
O3 O2- 2 i 0.1547(9) 0.3740(7) 0.6334(9) 1. 0 0 
O4 O2- 2 i 0.6185(9) 0.3864(7) 0.7212(9) 1. 0 0 
O5 O2- 2 i 0.9489(10) 0.2776(8) 0.0685(9) 1. 0 0 
H1 H1+ 2 i 0.12(2) 0.39(2) 0.15(2) 1. 0 0.0058(31) 
H2 H1+ 2 i 0.77(3) 0.28(2) 0.89(3) 1. 0 0.0014(5) 

loop_
_atom_site_aniso_label
_atom_site_aniso_type_symbol
_atom_site_aniso_U_11
_atom_site_aniso_U_22
_atom_site_aniso_U_33
_atom_site_aniso_U_12
_atom_site_aniso_U_13
_atom_site_aniso_U_23
Mg1 Mg2+ 0.011(2) 0.010(2) 0.010(2) 0.003(1) 0.002(1) 0.001(1)
Ca1 Ca2+ 0.012(1) 0.013(1) 0.012(1) 0.003(1) 0.004(1) 0.002(1)
P1 P5+ 0.011(1) 0.010(1) 0.009(1) 0.003(1) 0.002(1) 0.002(1)
O1 O2- 0.012(3) 0.013(3) 0.006(3) 0.005(2) 0.002(2) 0.005(2)
O2 O2- 0.011(3) 0.011(3) 0.009(3) 0.000(2) 0.001(2) -.001(2)
O3 O2- 0.013(3) 0.009(3) 0.014(3) 0.006(2) 0.005(2) 0.004(2)
O4 O2- 0.009(3) 0.011(3) 0.009(3) 0.001(2) 0.002(2) 0.004(2)
O5 O2- 0.011(3) 0.012(3) 0.008(3) 0.003(2) 0.003(2) -.003(2)
#End of data_4258-ICSD


