data_300226-ICSD
#?2014 by Fachinformationszentrum Karlsruhe, and the U.S. Secretary of 
#Commerce on behalf of the United States.  All rights reserved.
_database_code_ICSD                300226
_audit_creation_date               1992/01/23
_audit_update_record               2012/02/01
_chemical_name_systematic
;
Dipotassium Iron Hexathiodiphosphate(IV)
;
_chemical_formula_structural       'K2 Fe (P2 S6)'
_chemical_formula_sum              'Fe1 K2 P2 S6'
_publ_section_title
;
Crystal structure of dipotassium iron thiohypodiphosphate
;
loop_
_citation_id
_citation_journal_abbrev
_citation_year
_citation_journal_volume
_citation_page_first
_citation_page_last
_citation_journal_id_ASTM
primary 'Zeitschrift fuer Kristallographie (1979-2010)' 1992 202 150 151 ZEKRDZ
2 'Zeitschrift fuer Anorganische und Allgemeine Chemie (1950) (DE)'
 1994 620 489 494 ZAACAB
_publ_author_name
;
Carrillo Cabrera, W.;Sassmannshausen, J.;von Schnering, H.G.;Menzel, 
F.;Brockner, W.
;
_cell_length_a                     6.0622(4)
_cell_length_b                     12.172(1)
_cell_length_c                     7.3787(8)
_cell_angle_alpha                  90.
_cell_angle_beta                   101.113(7)
_cell_angle_gamma                  90.
_cell_volume                       534.26
_cell_formula_units_Z              2
_symmetry_space_group_name_H-M     'P 1 21/n 1'
_symmetry_Int_Tables_number        14
_refine_ls_R_factor_all            .028
loop_
_symmetry_equiv_pos_site_id
_symmetry_equiv_pos_as_xyz
  1	'-x+.5, y+.5, -z+.5'
  2	'-x, -y, -z'
  3	'x+.5, -y+.5, z+.5'
  4	'x, y, z'
loop_
_atom_type_symbol
_atom_type_oxidation_number
Fe2+	2
K1+	1
P4+	4
S2-	-2
loop_
_atom_site_label
_atom_site_type_symbol
_atom_site_symmetry_multiplicity
_atom_site_Wyckoff_symbol
_atom_site_fract_x
_atom_site_fract_y
_atom_site_fract_z
_atom_site_occupancy
_atom_site_attached_hydrogens
K1 K1+ 4 e 0.2214(1) 0.31819(5) 0.53347(10) 1. 0 
Fe1 Fe2+ 2 c 0 0.5 0 1. 0 
P1 P4+ 4 e 0.52110(8) 0.53742(5) 0.86889(8) 1. 0 
S1 S2- 4 e 0.19961(9) 0.56924(6) 0.74690(9) 1. 0 
S2 S2- 4 e 0.31205(9) 0.57512(5) 0.25366(9) 1. 0 
S3 S2- 4 e 0.27403(9) 0.33245(5) 0.0598(1) 1. 0 

loop_
_atom_site_aniso_label
_atom_site_aniso_type_symbol
_atom_site_aniso_U_11
_atom_site_aniso_U_22
_atom_site_aniso_U_33
_atom_site_aniso_U_12
_atom_site_aniso_U_13
_atom_site_aniso_U_23
K1 K1+ 0.03380(31) 0.03925(35) 0.04831(38) 0.00416(29) -0.00881(27) 
-0.00985
Fe1 Fe2+ 0.01109(19) 0.02350(23) 0.02370(23) -0.00054(18) 0.00333(16) 
0.00012
P1 P4+ 0.01010(21) 0.02037(26) 0.01880(26) 0.00221(20) 0.00348(18) 0.00068
S1 S2- 0.01263(24) 0.04591(37) 0.02432(28) 0.01145(26) 0.00182(21) 0.00555
S2 S2- 0.01484(24) 0.03839(33) 0.02631(29) -0.01292(25) 0.00551(21) 0.00029
S3 S2- 0.01725(25) 0.01862(26) 0.05116(39) 0.00197(25) 0.01034(25) -0.00259
#End of data_300226-ICSD


