data_51643-ICSD
#?2014 by Fachinformationszentrum Karlsruhe, and the U.S. Secretary of 
#Commerce on behalf of the United States.  All rights reserved.
_database_code_ICSD                51643
_audit_creation_date               2003/10/01
_chemical_name_systematic
;
Dipotassium Hexaaquacobalt Bis(sulfate(VI))
;
_chemical_formula_structural       'K2 (Co (H2 O)6) (S O4)2'
_chemical_formula_sum              'H12 Co1 K2 O14 S2'
_publ_section_title
;
Hydrogen Positions in KCo-, CsCo-, CsNi-, and CsCu-Tutton salt 
compounds determined by neutron powder diffraction
;
loop_
_citation_id
_citation_journal_abbrev
_citation_year
_citation_journal_volume
_citation_page_first
_citation_page_last
_citation_journal_id_ASTM
primary 'Materials Science Forum' 2001 378 274 279 MSFOEP
2 'Zeitschrift fuer Kristallographie (1979-2010)' 1998 313 456 460 ZEKRDZ
_publ_author_name
;
Kockelmann, W.;Schaefer, W.;Kirfel, A.;Klapper, H.;Euler, H.
;
_cell_length_a                     9.0449(5)
_cell_length_b                     12.1922(7)
_cell_length_c                     6.1464(3)
_cell_angle_alpha                  90
_cell_angle_beta                   104.830(4)
_cell_angle_gamma                  90
_cell_volume                       655.23
_cell_formula_units_Z              2
_symmetry_space_group_name_H-M     'P 1 21/a 1'
_symmetry_Int_Tables_number        14
_refine_ls_R_factor_all            .039
loop_
_symmetry_equiv_pos_site_id
_symmetry_equiv_pos_as_xyz
  1	'x+.5, -y+.5, z'
  2	'-x, -y, -z'
  3	'-x+.5, y+.5, -z'
  4	'x, y, z'
loop_
_atom_type_symbol
_atom_type_oxidation_number
Co2+	2
H1+	1
K1+	1
O2-	-2
S6+	6
loop_
_atom_site_label
_atom_site_type_symbol
_atom_site_symmetry_multiplicity
_atom_site_Wyckoff_symbol
_atom_site_fract_x
_atom_site_fract_y
_atom_site_fract_z
_atom_site_occupancy
_atom_site_attached_hydrogens
_atom_site_B_iso_or_equiv
Co1 Co2+ 2 a 0.0 0.0 0.0 1. 0 0 
H1 H1+ 4 e 0.2214(20) 0.0899(11) 0.3186(26) 1. 0 2.6(4) 
H2 H1+ 4 e 0.2529(20) 0.1234(15) 0.0960(33) 1. 0 3.9(5) 
H3 H1+ 4 e -.2593(24) 0.1040(17) -.0678(34) 1. 0 4.5(6) 
H4 H1+ 4 e -.1364(18) 0.1891(16) 0.0060(26) 1. 0 3.3(5) 
H5 H1+ 4 e -.1002(24) -.0553(14) 0.3424(33) 1. 0 4.9(6) 
H6 H1+ 4 e 0.0209(20) -.1422(13) 0.3279(30) 1. 0 2.6(4) 
K1 K1+ 4 e 0.13277 0.34543 0.34170 1. 0 0 
S1 S6+ 4 e 0.41152 0.13500 0.72560 1. 0 0 
O1 O2- 4 e 0.40734 0.22982 0.5753 1. 0 0 
O2 O2- 4 e 0.55538 0.07610 0.7522 1. 0 0 
O3 O2- 4 e 0.28488 0.06104 0.61881 1. 0 0 
O4 O2- 4 e 0.39438 0.17274 0.94645 1. 0 0 
O5 O2- 4 e 0.17022 0.11228 0.1666 1. 0 0 
O6 O2- 4 e -.17012 0.11481 0.0343 1. 0 0 
O7 O2- 4 e -.00362 -.06891 0.2997 1. 0 0 

#End of data_51643-ICSD


