data_86117-ICSD
#?2014 by Fachinformationszentrum Karlsruhe, and the U.S. Secretary of 
#Commerce on behalf of the United States.  All rights reserved.
_database_code_ICSD                86117
_audit_creation_date               1999/11/30
_audit_update_record               2010/02/01
_chemical_name_systematic          'Potassium Nitrate(III) - Iii'
_chemical_formula_structural       'K (N O2)'
_chemical_formula_sum              'K1 N1 O2'
_publ_section_title
;
Neutron powder diffraction study of the low-temperature phases of K N 
O2
;
loop_
_citation_id
_citation_journal_abbrev
_citation_year
_citation_journal_volume
_citation_page_first
_citation_page_last
_citation_journal_id_ASTM
primary 'Journal of Physics: Condensed Matter' 1998 10 3341 3351 JCOMEL
2 'Golden Book of Phase Transitions, Wroclaw' 2002 1 1 123 GBOPT5
_publ_author_name
;
Onoda Yamamuro, N.;Honda, H.;Ikeda, R.;Yamamuro, O.;Matsuo, 
T.;Oikawa, K.;Kamiyama, T.;Izumi, F.
;
_cell_length_a                     4.4010(2)
_cell_length_b                     9.5967(3)
_cell_length_c                     6.9817(2)
_cell_angle_alpha                  90.
_cell_angle_beta                   108.274(3)
_cell_angle_gamma                  90.
_cell_volume                       280
_cell_formula_units_Z              4
_symmetry_space_group_name_H-M     'P 1 21/c 1'
_symmetry_Int_Tables_number        14
_refine_ls_R_factor_all            .014
loop_
_symmetry_equiv_pos_site_id
_symmetry_equiv_pos_as_xyz
  1	'x, -y+.5, z+.5'
  2	'-x, -y, -z'
  3	'-x, y+.5, -z+.5'
  4	'x, y, z'
loop_
_atom_type_symbol
_atom_type_oxidation_number
K1+	1
N3+	3
O2-	-2
loop_
_atom_site_label
_atom_site_type_symbol
_atom_site_symmetry_multiplicity
_atom_site_Wyckoff_symbol
_atom_site_fract_x
_atom_site_fract_y
_atom_site_fract_z
_atom_site_occupancy
_atom_site_attached_hydrogens
_atom_site_B_iso_or_equiv
K1 K1+ 4 e 0.4105(8) 0.1407(3) 0.2101(5) 1. 0 0.13(7) 
N1 N3+ 4 e -.0732(4) 0.4107(2) 0.1839(2) 1. 0 0 
O1 O2- 4 e 0.2034(5) 0.4127(3) 0.3067(3) 1. 0 0 
O2 O2- 4 e 0.8385(7) 0.2999(2) 0.0865(3) 1. 0 0 

loop_
_atom_site_aniso_label
_atom_site_aniso_type_symbol
_atom_site_aniso_U_11
_atom_site_aniso_U_22
_atom_site_aniso_U_33
_atom_site_aniso_U_12
_atom_site_aniso_U_13
_atom_site_aniso_U_23
N1 N3+ 0.0057(8) 0.0022(7) 0.0060(8) 0.0011(8) -0.0002(7) -0.0012(7)
O1 O2- 0.001(1) 0.005(1) 0.006(1) 0.0002(14) -0.002(1) -0.0008(11)
O2 O2- 0.004(1) 0.006(1) 0.003(1) 0.0004(11) -0.003(1) -0.0004(10)
#End of data_86117-ICSD


