data_290298-ICSD
#?2014 by Fachinformationszentrum Karlsruhe, and the U.S. Secretary of 
#Commerce on behalf of the United States.  All rights reserved.
_database_code_ICSD                290298
_audit_creation_date               2014/02/01
_chemical_name_systematic
;
Dipotassium Trichlorostannate(II) Chloride Hydrate
;
_chemical_formula_structural       'K2 (Sn Cl3) Cl (H2 O)'
_chemical_formula_sum              'H2 Cl4 K2 O1 Sn1'
_publ_section_title
;
Redetermination of dipotassium trichloridostanate(II) chloride 
Monohydrate
;
loop_
_citation_id
_citation_journal_abbrev
_citation_year
_citation_journal_volume
_citation_journal_issue
_citation_page_first
_citation_page_last
_citation_journal_id_ASTM
primary 'Acta Crystallographica, Section E. Structure Reports Online'
 2013 69 2 i10 i10 ACSEBH
_publ_author_name                  'Fei Ye;Reuter, H.'
_cell_length_a                     11.9233(9)
_cell_length_b                     9.0768(7)
_cell_length_c                     8.1737(6)
_cell_angle_alpha                  90.00
_cell_angle_beta                   90.00
_cell_angle_gamma                  90.00
_cell_volume                       884.6
_cell_formula_units_Z              4
_symmetry_space_group_name_H-M     'P n m a'
_symmetry_Int_Tables_number        62
_refine_ls_R_factor_all            .0126
loop_
_symmetry_equiv_pos_site_id
_symmetry_equiv_pos_as_xyz
  1	'x+.5, y, -z+.5'
  2	'x, -y+.5, z'
  3	'-x+.5, y+.5, z+.5'
  4	'-x, -y, -z'
  5	'-x+.5, -y, z+.5'
  6	'-x, y+.5, -z'
  7	'x+.5, -y+.5, -z+.5'
  8	'x, y, z'
loop_
_atom_type_symbol
_atom_type_oxidation_number
Cl1-	-1
H1+	1
K1+	1
O2-	-2
Sn2+	2
loop_
_atom_site_label
_atom_site_type_symbol
_atom_site_symmetry_multiplicity
_atom_site_Wyckoff_symbol
_atom_site_fract_x
_atom_site_fract_y
_atom_site_fract_z
_atom_site_occupancy
_atom_site_attached_hydrogens
_atom_site_U_iso_or_equiv
Sn1 Sn2+ 4 c 1.010043(11) 0.7500 -0.009701(14 1 0 0.00860(5) 
Cl1 Cl1- 4 c 0.80674(4) 0.7500 0.10649(5) 1 0 0.01085(9) 
Cl2 Cl1- 8 d 1.05741(3) 0.55307(3) 0.20619(4) 1 0 0.01175(7) 
Cl3 Cl1- 4 c 0.73496(4) 0.2500 0.10123(5) 1 0 0.01180(9) 
K1 K1+ 8 d 0.81583(3) 0.48246(3) 0.36996(4) 1 0 0.01235(7) 
O1 O2- 4 c 0.96072(13) 0.2500 0.44548(17) 1 0 0.0146(3) 
H1 H1+ 4 c 1.0397 0.2500 0.4228 1 0 0.070(8) 
H2 H1+ 4 c 0.9554 0.2500 0.5627 1 0 0.070(8) 

loop_
_atom_site_aniso_label
_atom_site_aniso_type_symbol
_atom_site_aniso_U_11
_atom_site_aniso_U_22
_atom_site_aniso_U_33
_atom_site_aniso_U_12
_atom_site_aniso_U_13
_atom_site_aniso_U_23
Sn1 Sn2+ 0.00816(8) 0.00788(7) 0.00976(7) 0.000 0.00094(4) 0.000
Cl1 Cl1- 0.0081(2) 0.01165(19) 0.0128(2) 0.000 0.00042(15) 0.000
Cl2 Cl1- 0.01092(17) 0.01012(14) 0.01423(15) 0.00051(11) -0.00054(11) 
0.00207(11)
Cl3 Cl1- 0.0123(2) 0.01050(19) 0.0126(2) 0.000 -0.00049(16) 0.000
K1 K1+ 0.01198(16) 0.01039(13) 0.01469(14) 0.00027(10) 0.00196(10) 
-0.00046(10)
O1 O2- 0.0131(8) 0.0174(7) 0.0132(7) 0.000 0.0007(5) 0.000
#End of data_290298-ICSD


