data_78069-ICSD
#?2014 by Fachinformationszentrum Karlsruhe, and the U.S. Secretary of 
#Commerce on behalf of the United States.  All rights reserved.
_database_code_ICSD                78069
_audit_creation_date               1995/10/17
_audit_update_record               2012/02/01
_chemical_name_systematic
;
Potassium Phyllo-tetradecaoxotrimolybdophosphate(V) *
;
_chemical_formula_structural       'K (Mo3 P2 O14)'
_chemical_formula_sum              'K1 Mo3 O14 P2'
_publ_section_title
;
A mixed-valent molybdenum monophosphate with a layer structure: K Mo3 
P2 O14
;
loop_
_citation_id
_citation_journal_abbrev
_citation_year
_citation_journal_volume
_citation_page_first
_citation_page_last
_citation_journal_id_ASTM
primary 'Journal of Solid State Chemistry' 1994 109 145 151 JSSCBI
_publ_author_name
;
Guesdon, A.;Borel, M.M.;Leclaire, A.;Grandin, A.;Raveau, B.
;
_cell_length_a                     8.599(2)
_cell_length_b                     6.392(1)
_cell_length_c                     10.602(2)
_cell_angle_alpha                  90.
_cell_angle_beta                   111.65(2)
_cell_angle_gamma                  90.
_cell_volume                       541.63
_cell_formula_units_Z              2
_symmetry_space_group_name_H-M     'P 1 21/m 1'
_symmetry_Int_Tables_number        11
_refine_ls_R_factor_all            .042
loop_
_symmetry_equiv_pos_site_id
_symmetry_equiv_pos_as_xyz
  1	'x, -y+.5, z'
  2	'-x, -y, -z'
  3	'-x, y+.5, -z'
  4	'x, y, z'
loop_
_atom_type_symbol
_atom_type_oxidation_number
K1+	1
Mo5+	5
Mo6+	6
O2-	-2
P5+	5
loop_
_atom_site_label
_atom_site_type_symbol
_atom_site_symmetry_multiplicity
_atom_site_Wyckoff_symbol
_atom_site_fract_x
_atom_site_fract_y
_atom_site_fract_z
_atom_site_occupancy
_atom_site_attached_hydrogens
_atom_site_B_iso_or_equiv
Mo1 Mo6+ 2 e 0.23363(8) 0.25 0.00971(8) 1. 0 0.91(1) 
Mo2 Mo6+ 2 e 0.24876(8) 0.25 0.32984(8) 1. 0 0.894(9) 
Mo3 Mo5+ 2 e 0.84014(8) 0.25 0.38009(8) 1. 0 1.06(1) 
P1 P5+ 2 e 0.8530(2) 0.25 0.0650(2) 1. 0 0.92(3) 
P2 P5+ 2 e 0.1120(3) 0.75 0.2998(2) 1. 0 0.95(3) 
K1 K1+ 2 e 0.4841(3) 0.75 0.2483(2) 1. 0 1.75(3) 
O1 O2- 2 e 0.3904(9) 0.25 -.0467(9) 1. 0 1.9(1) 
O2 O2- 2 e 0.0373(8) 0.25 -.1656(8) 1. 0 1.5(1) 
O3 O2- 4 f 0.2170(6) 0.5597(8) 0.0265(5) 1. 0 1.45(8) 
O4 O2- 2 e 0.3539(7) 0.25 0.2049(7) 1. 0 0.99(9) 
O5 O2- 2 e 0.0438(8) 0.25 0.1169(7) 1. 0 1.3(1) 
O6 O2- 2 e 0.4165(8) 0.25 0.4731(7) 1. 0 1.3(1) 
O7 O2- 2 e 0.0710(7) 0.25 0.3876(7) 1. 0 1.2(1) 
O8 O2- 4 f 0.2252(5) 0.5619(5) 0.3096(5) 1. 0 1.37(7) 
O9 O2- 4 f 0.7219(7) 0.037(1) 0.3719(6) 1. 0 2.3(1) 
O10 O2- 2 e 0.7896(9) 0.25 0.1801(8) 1. 0 1.8(1) 
O11 O2- 2 e 0.9544(9) 0.25 0.5843(7) 1. 0 1.4(1) 

#End of data_78069-ICSD


