data_413425-ICSD
#?2014 by Fachinformationszentrum Karlsruhe, and the U.S. Secretary of 
#Commerce on behalf of the United States.  All rights reserved.
_database_code_ICSD                413425
_audit_creation_date               2005/04/01
_audit_update_record               2011/02/01
_chemical_name_systematic
;
Tripotassium Dihydroxooctaoxoterbiotrisilicate
;
_chemical_formula_structural       'K3 (Tb Si3 O8 (O H)2)'
_chemical_formula_sum              'H2 K3 O10 Si3 Tb1'
_publ_section_title
;
Photoluminescent layered lanthanide silicates
;
loop_
_citation_id
_citation_journal_abbrev
_citation_year
_citation_journal_volume
_citation_page_first
_citation_page_last
_citation_journal_id_ASTM
primary 'Journal of the American Chemical Society' 2004 126 10410 10417 JACSAT
_publ_author_name
;
Ananias, D.;Kostova, M.;Paz, F.A.A.;Ferreira, A.;Carlos, 
L.D.;Klinowski, J.;Rocha, J.
;
_cell_length_a                     13.210(3)
_cell_length_b                     13.543(3)
_cell_length_c                     5.9072(12)
_cell_angle_alpha                  90.00
_cell_angle_beta                   90.00
_cell_angle_gamma                  90.00
_cell_volume                       1056.82
_cell_formula_units_Z              4
_symmetry_space_group_name_H-M     'P n m a'
_symmetry_Int_Tables_number        62
_refine_ls_R_factor_all            .0408
loop_
_symmetry_equiv_pos_site_id
_symmetry_equiv_pos_as_xyz
  1	'x+.5, y, -z+.5'
  2	'x, -y+.5, z'
  3	'-x+.5, y+.5, z+.5'
  4	'-x, -y, -z'
  5	'-x+.5, -y, z+.5'
  6	'-x, y+.5, -z'
  7	'x+.5, -y+.5, -z+.5'
  8	'x, y, z'
loop_
_atom_type_symbol
_atom_type_oxidation_number
H1+	1
K1+	1
O2-	-2
Si4+	4
Tb3+	3
loop_
_atom_site_label
_atom_site_type_symbol
_atom_site_symmetry_multiplicity
_atom_site_Wyckoff_symbol
_atom_site_fract_x
_atom_site_fract_y
_atom_site_fract_z
_atom_site_occupancy
_atom_site_attached_hydrogens
_atom_site_U_iso_or_equiv
Tb1 Tb3+ 4 c 0.04177(2) 0.2500 0.08480(5) 1 0 0.00798(15) 
K1 K1+ 4 c 0.37219(13) 0.2500 -0.0780(3) 1 0 0.0185(4) 
Si1 Si4+ 4 c 0.25251(15) 0.2500 0.4211(3) 1 0 0.0084(4) 
Si2 Si4+ 8 d 0.09889(10) 0.39759(11) 0.5866(2) 1 0 0.0089(3) 
K2 K1+ 8 d 0.36145(10) 0.48372(10) 0.58644(19) 1 0 0.0189(3) 
O1 O2- 4 c 0.2066(4) 0.2500 0.1715(9) 1 0 0.0127(10) 
O2 O2- 8 d 0.2119(3) 0.3463(3) 0.5682(5) 1 0 0.0132(7) 
O3 O2- 8 d 0.1322(3) 0.5165(3) 0.5843(6) 1 0 0.0140(8) 
H1 H1+ 8 d 0.069(3) 0.548(5) 0.604(10) 1 0 0.021 
O4 O2- 8 d 0.0318(3) 0.3706(3) 0.3673(7) 1 0 0.0122(8) 
O5 O2- 8 d 0.0434(2) 0.3726(3) -0.1795(7) 1 0 0.0130(8) 
O6 O2- 4 c -0.1264(4) 0.2500 0.0648(8) 1 0 0.0141(11) 

loop_
_atom_site_aniso_label
_atom_site_aniso_type_symbol
_atom_site_aniso_U_11
_atom_site_aniso_U_22
_atom_site_aniso_U_33
_atom_site_aniso_U_12
_atom_site_aniso_U_13
_atom_site_aniso_U_23
Tb1 Tb3+ 0.0104(2) 0.0086(2) 0.0049(2) 0.000 -0.00032(11) 0.000
K1 K1+ 0.0170(8) 0.0283(10) 0.0101(8) 0.000 0.0001(6) 0.000
Si1 Si4+ 0.0101(9) 0.0096(9) 0.0055(9) 0.000 0.0004(7) 0.000
Si2 Si4+ 0.0125(7) 0.0082(7) 0.0060(7) 0.0009(5) 0.0004(5) -0.0011(5)
K2 K1+ 0.0233(6) 0.0218(6) 0.0116(6) -0.0079(5) -0.0020(4) 0.0022(4)
O1 O2- 0.015(2) 0.017(2) 0.005(2) 0.000 0.001(2) 0.000
O2 O2- 0.0154(17) 0.0133(18) 0.0109(18) 0.0013(15) -0.0013(14) -0.0025(13)
O3 O2- 0.0195(19) 0.0102(18) 0.0123(18) -0.0018(15) -0.0003(15) 0.0013(13)
O4 O2- 0.0163(18) 0.0099(18) 0.0104(18) 0.0021(13) 0.0006(14) -0.0009(15)
O5 O2- 0.019(2) 0.0135(18) 0.0069(18) 0.0015(13) 0.0011(13) 0.0038(14)
O6 O2- 0.015(3) 0.018(3) 0.009(3) 0.000 -0.001(2) 0.000
#End of data_413425-ICSD


