data_51242-ICSD
#?2014 by Fachinformationszentrum Karlsruhe, and the U.S. Secretary of 
#Commerce on behalf of the United States.  All rights reserved.
_database_code_ICSD                51242
_audit_creation_date               2002/04/01
_audit_update_record               2012/08/01
_chemical_name_systematic          'Magnesium Fluoride'
_chemical_formula_structural       'Mg F2'
_chemical_formula_sum              'F2 Mg1'
_publ_section_title
;
Determination of structure candidates of simple crystalline A B2 
systems
;
loop_
_citation_id
_citation_journal_abbrev
_citation_year
_citation_journal_volume
_citation_page_first
_citation_page_last
_citation_journal_id_ASTM
primary 'Journal of Solid State Chemistry' 1998 136 233 246 JSSCBI
_publ_author_name
;
Wevers, M.A.C.;Schoen, J.C.;Jansen, M.
;
_cell_length_a                     3.551
_cell_length_b                     3.155
_cell_length_c                     5.54
_cell_angle_alpha                  90.
_cell_angle_beta                   90.
_cell_angle_gamma                  90.
_cell_volume                       62.07
_cell_formula_units_Z              2
_symmetry_space_group_name_H-M     'A m m 2'
_symmetry_Int_Tables_number        38
loop_
_symmetry_equiv_pos_site_id
_symmetry_equiv_pos_as_xyz
  1	'x, -y, z'
  2	'-x, y, z'
  3	'-x, -y, z'
  4	'x, y, z'
  5	'x, -y+.5, z+.5'
  6	'-x, y+.5, z+.5'
  7	'-x, -y+.5, z+.5'
  8	'x, y+.5, z+.5'
loop_
_atom_type_symbol
_atom_type_oxidation_number
F1-	-1
Mg2+	2
loop_
_atom_site_label
_atom_site_type_symbol
_atom_site_symmetry_multiplicity
_atom_site_Wyckoff_symbol
_atom_site_fract_x
_atom_site_fract_y
_atom_site_fract_z
_atom_site_occupancy
_atom_site_attached_hydrogens
Mg1 Mg2+ 2 b 0.5 0 0.069 1. 0 
F1 F1- 2 a 0 0 0.568 1. 0 
F2 F1- 2 b 0.5 0.5 0.738 1. 0 

#End of data_51242-ICSD


