data_39870-ICSD
#?2014 by Fachinformationszentrum Karlsruhe, and the U.S. Secretary of 
#Commerce on behalf of the United States.  All rights reserved.
_database_code_ICSD                39870
_audit_creation_date               1996/04/22
_audit_update_record               2006/04/01
_chemical_name_systematic          'Calcium Titanium Silicate Oxide'
_chemical_formula_structural       'Ca Ti (Si O4) O'
_chemical_formula_sum              'Ca1 O5 Si1 Ti1'
_chemical_name_mineral             Titanite
_publ_section_title
;
Electron-density distribution in Ca (Ti O(Si O4)) titanite
;
loop_
_citation_id
_citation_journal_abbrev
_citation_year
_citation_journal_volume
_citation_page_first
_citation_page_last
_citation_journal_id_ASTM
primary Kristallografiya 1995 40 485 492 KRISAJ
2 'Crystallography Reports' 1995 40 442 448 CYSTE3
3 'Golden Book of Phase Transitions, Wroclaw' 2002 1 1 123 GBOPT5
_publ_author_name
;
Urusov, V.S.;Eremin, N.N.;Yakubovich, O.V.
;
_cell_length_a                     7.061(1)
_cell_length_b                     8.7165(9)
_cell_length_c                     6.5603(9)
_cell_angle_alpha                  90.
_cell_angle_beta                   113.84(1)
_cell_angle_gamma                  90.
_cell_volume                       369.32
_cell_formula_units_Z              4
_symmetry_space_group_name_H-M     'P 1 21/a 1'
_symmetry_Int_Tables_number        14
_refine_ls_R_factor_all            .0193
loop_
_symmetry_equiv_pos_site_id
_symmetry_equiv_pos_as_xyz
  1	'x+.5, -y+.5, z'
  2	'-x, -y, -z'
  3	'-x+.5, y+.5, -z'
  4	'x, y, z'
loop_
_atom_type_symbol
_atom_type_oxidation_number
Ca2+	2
O2-	-2
Si4+	4
Ti4+	4
loop_
_atom_site_label
_atom_site_type_symbol
_atom_site_symmetry_multiplicity
_atom_site_Wyckoff_symbol
_atom_site_fract_x
_atom_site_fract_y
_atom_site_fract_z
_atom_site_occupancy
_atom_site_attached_hydrogens
Ca1 Ca2+ 4 e 0.24710(2) 0.91843(2) 0.75116(2) 1. 0 
Ti1 Ti4+ 4 e 0.51451(1) 0.75432(1) 0.24959(1) 1. 0 
Si1 Si4+ 4 e 0.74829(2) 0.93291(2) 0.74891(2) 1. 0 
O1 O2- 4 e 0.74966(5) 0.82102(5) 0.24952(6) 1. 0 
O2 O2- 4 e 0.90979(6) 0.81630(4) 0.93433(6) 1. 0 
O3 O2- 4 e 0.38354(6) 0.96115(4) 0.14742(6) 1. 0 
O4 O2- 4 e 0.91211(6) 0.31594(4) 0.43669(6) 1. 0 
O5 O2- 4 e 0.38109(5) 0.46017(4) 0.64717(6) 1. 0 

#End of data_39870-ICSD


