data_91297-ICSD
#?2014 by Fachinformationszentrum Karlsruhe, and the U.S. Secretary of 
#Commerce on behalf of the United States.  All rights reserved.
_database_code_ICSD                91297
_audit_creation_date               2002/10/01
_audit_update_record               2011/02/01
_chemical_name_systematic
;
Potassium Dibismuth Copper(I) Sulfide
;
_chemical_formula_structural       'K Bi2 Cu S4'
_chemical_formula_sum              'Bi2 Cu1 K1 S4'
_publ_section_title
;
Structures and conductivities of the quaternary A/Bi/Cu/S phases K 
Bi2 Cu S4 and A3 Bi5 Cu2 S10 (A = Rb, Cs)
;
loop_
_citation_id
_citation_journal_abbrev
_citation_year
_citation_journal_volume
_citation_page_first
_citation_page_last
_citation_journal_id_ASTM
primary 'Journal of Solid State Chemistry' 2000 155 243 249 JSSCBI
_publ_author_name
;
Yang, Y.-T.;Brazis, P.;Kannewurf, C.R.;Ibers, J.A.
;
_cell_length_a                     4.0273(8)
_cell_length_b                     13.770(3)
_cell_length_c                     14.259(3)
_cell_angle_alpha                  90.
_cell_angle_beta                   90.
_cell_angle_gamma                  90.
_cell_volume                       790.75
_cell_formula_units_Z              4
_symmetry_space_group_name_H-M     'C m c 21'
_symmetry_Int_Tables_number        36
_refine_ls_R_factor_all            .017
loop_
_symmetry_equiv_pos_site_id
_symmetry_equiv_pos_as_xyz
  1	'x, -y, z+.5'
  2	'-x, -y, z+.5'
  3	'-x, y, z'
  4	'x, y, z'
  5	'x+.5, -y+.5, z+.5'
  6	'-x+.5, -y+.5, z+.5'
  7	'-x+.5, y+.5, z'
  8	'x+.5, y+.5, z'
loop_
_atom_type_symbol
_atom_type_oxidation_number
Bi3+	3
Cu1+	1
K1+	1
S2-	-2
loop_
_atom_site_label
_atom_site_type_symbol
_atom_site_symmetry_multiplicity
_atom_site_Wyckoff_symbol
_atom_site_fract_x
_atom_site_fract_y
_atom_site_fract_z
_atom_site_occupancy
_atom_site_attached_hydrogens
_atom_site_U_iso_or_equiv
Bi1 Bi3+ 4 a 0 0.38567(3) 0.17649(2) 1. 0 0.0110(1) 
Bi2 Bi3+ 4 a 0 0.65449(2) 0.29311(2) 1. 0 0.0112(1) 
Cu1 Cu1+ 4 a 0 0.1484(1) 0.4798(1) 1. 0 0.0147(3) 
K1 K1+ 4 a 0 0.1122(2) 0.0045(2) 1. 0 0.0163(5) 
S1 S2- 4 a 0 0.0168(2) 0.2255(2) 1. 0 0.0148(5) 
S2 S2- 4 a 0 0.2556(2) 0.6320(2) 1. 0 0.0113(4) 
S3 S2- 4 a 0 0.2681(2) 0.3630(2) 1. 0 0.0103(4) 
S4 S2- 4 a 0 0.4318(2) -.0001(2) 1. 0 0.0119(5) 

#End of data_91297-ICSD


