data_35549-ICSD
#?2014 by Fachinformationszentrum Karlsruhe, and the U.S. Secretary of 
#Commerce on behalf of the United States.  All rights reserved.
_database_code_ICSD                35549
_audit_creation_date               1980/01/01
_audit_update_record               2012/08/01
_chemical_name_systematic          'Praseodymium Aluminate'
_chemical_formula_structural       'Pr (Al O3)'
_chemical_formula_sum              'Al1 O3 Pr1'
_publ_section_title
;
Crystallographic studies of perovskite-like compounds. II. Rare earth 
aluminates
;
loop_
_citation_id
_citation_journal_abbrev
_citation_year
_citation_journal_volume
_citation_page_first
_citation_page_last
_citation_journal_id_ASTM
primary 'Acta Crystallographica (1,1948-23,1967)' 1956 9 1019 1019 ACCRA9
2 'Golden Book of Phase Transitions, Wroclaw' 2002 1 1 123 GBOPT5
_publ_author_name                  'Geller, S.;Bala, V.B.'
_cell_length_a                     5.307
_cell_length_b                     5.307
_cell_length_c                     5.307
_cell_angle_alpha                  60.33
_cell_angle_beta                   60.33
_cell_angle_gamma                  60.33
_cell_volume                       106.48
_cell_formula_units_Z              2
_symmetry_space_group_name_H-M     'R -3 m R'
_symmetry_Int_Tables_number        166
loop_
_symmetry_equiv_pos_site_id
_symmetry_equiv_pos_as_xyz
  1	'-z, -y, -x'
  2	'-z, -x, -y'
  3	'-x, -z, -y'
  4	'-y, -z, -x'
  5	'-y, -x, -z'
  6	'-x, -y, -z'
  7	'z, y, x'
  8	'z, x, y'
  9	'x, z, y'
 10	'y, z, x'
 11	'y, x, z'
 12	'x, y, z'
loop_
_atom_type_symbol
_atom_type_oxidation_number
Al3+	3
O2-	-2
Pr3+	3
loop_
_atom_site_label
_atom_site_type_symbol
_atom_site_symmetry_multiplicity
_atom_site_Wyckoff_symbol
_atom_site_fract_x
_atom_site_fract_y
_atom_site_fract_z
_atom_site_occupancy
_atom_site_attached_hydrogens
Al1 Al3+ 1 a 0 0 0 1. 0 
Al2 Al3+ 1 b 0.5 0.5 0.5 1. 0 
Pr1 Pr3+ 2 c 0.25 0.25 0.25 1. 0 
O1 O2- 6 h 0.25 0.25 -.25 1. 0 

#End of data_35549-ICSD


