data_10012-ICSD
#?2014 by Fachinformationszentrum Karlsruhe, and the U.S. Secretary of 
#Commerce on behalf of the United States.  All rights reserved.
_database_code_ICSD                10012
_audit_creation_date               1980/01/01
_chemical_name_systematic          'Cesium Tetrafluoroaluminate'
_chemical_formula_structural       'Cs Al F4'
_chemical_formula_sum              'Al1 Cs1 F4'
_publ_section_title
;
Darstellung und Kristallstruktur von Cs Al F4
;
loop_
_citation_id
_citation_journal_abbrev
_citation_year
_citation_journal_volume
_citation_page_first
_citation_page_last
_citation_journal_id_ASTM
primary
;
Zeitschrift fuer Naturforschung, Teil B. Anorganische Chemie, 
Organische Chemie (33,1978-41,1986)
;
 1979 34 131 134 ZNBAD2
_publ_author_name                  'Loesch, R.;Hebecker, C.'
_cell_length_a                     9.5
_cell_length_b                     9.5
_cell_length_c                     3.713
_cell_angle_alpha                  90.
_cell_angle_beta                   90.
_cell_angle_gamma                  120.
_cell_volume                       290.2
_cell_formula_units_Z              3
_symmetry_space_group_name_H-M     'P -6 2 m'
_symmetry_Int_Tables_number        189
_refine_ls_R_factor_all            .056
loop_
_symmetry_equiv_pos_site_id
_symmetry_equiv_pos_as_xyz
  1	'-x, -x+y, -z'
  2	'x-y, -y, -z'
  3	'y, x, -z'
  4	'-x, -x+y, z'
  5	'x-y, -y, z'
  6	'y, x, z'
  7	'-x+y, -x, -z'
  8	'-y, x-y, -z'
  9	'x, y, -z'
 10	'-x+y, -x, z'
 11	'-y, x-y, z'
 12	'x, y, z'
loop_
_atom_type_symbol
_atom_type_oxidation_number
Al3+	3
Cs1+	1
F1-	-1
loop_
_atom_site_label
_atom_site_type_symbol
_atom_site_symmetry_multiplicity
_atom_site_Wyckoff_symbol
_atom_site_fract_x
_atom_site_fract_y
_atom_site_fract_z
_atom_site_occupancy
_atom_site_attached_hydrogens
Cs1 Cs1+ 3 g 0.5694(1) 0 0.5 1. 0 
Al1 Al3+ 3 f 0.2150(5) 0 0 1. 0 
F1 F1- 3 f 0.8458(11) 0 0 1. 0 
F2 F1- 3 g 0.2068(11) 0 0.5 1. 0 
F3 F1- 6 j 0.4191(8) 0.1565(10) 0 1. 0 

loop_
_atom_site_aniso_label
_atom_site_aniso_type_symbol
_atom_site_aniso_B_11
_atom_site_aniso_B_22
_atom_site_aniso_B_33
_atom_site_aniso_B_12
_atom_site_aniso_B_13
_atom_site_aniso_B_23
Cs1 Cs1+ 1.767(24) 2.985(55) 1.113(32) 1.492(24) 0 0
Al1 Al3+ 0.876(49) 0.853(95) 0.74(10) 0.426(48) 0 0
F1 F1- 0.88(19) 0.54(21) 1.99(26) 0.27(10) 0 0
F2 F1- 1.55(20) 1.64(26) 0.85(23) 0.82(13) 0 0
F3 F1- 0.64(16) 1.91(31) 1.65(24) 0.50(15) 0 0
#End of data_10012-ICSD


