data_74812-ICSD
#?2014 by Fachinformationszentrum Karlsruhe, and the U.S. Secretary of 
#Commerce on behalf of the United States.  All rights reserved.
_database_code_ICSD                74812
_audit_creation_date               1995/10/17
_audit_update_record               2008/02/01
_chemical_name_systematic          'Thallium Zinc Arsenate(V)'
_chemical_formula_structural       'Tl Zn (As O4)'
_chemical_formula_sum              'As1 O4 Tl1 Zn1'
_publ_section_title
;
Die Kristallstruktur von Tl Zn P O4 und Tl Zn As O4
;
loop_
_citation_id
_citation_journal_abbrev
_citation_year
_citation_journal_volume
_citation_page_first
_citation_page_last
_citation_journal_id_ASTM
primary 'Zeitschrift fuer Naturforschung, B: Chemical Sciences'
 1994 49 1282 1288 ZNBSEN
2 'Powder Diffraction' 1993 8 145 148 PODIE2
_publ_author_name                  'Andratschke, M.'
_cell_length_a                     8.921(3)
_cell_length_b                     5.631(1)
_cell_length_c                     8.958(3)
_cell_angle_alpha                  90.
_cell_angle_beta                   91.03(2)
_cell_angle_gamma                  90.
_cell_volume                       449.92
_cell_formula_units_Z              4
_symmetry_space_group_name_H-M     'P 1 21 1'
_symmetry_Int_Tables_number        4
_refine_ls_R_factor_all            .093
loop_
_symmetry_equiv_pos_site_id
_symmetry_equiv_pos_as_xyz
  1	'-x, y+.5, -z'
  2	'x, y, z'
loop_
_atom_type_symbol
_atom_type_oxidation_number
As5+	5
O2-	-2
Tl1+	1
Zn2+	2
loop_
_atom_site_label
_atom_site_type_symbol
_atom_site_symmetry_multiplicity
_atom_site_Wyckoff_symbol
_atom_site_fract_x
_atom_site_fract_y
_atom_site_fract_z
_atom_site_occupancy
_atom_site_attached_hydrogens
_atom_site_U_iso_or_equiv
Tl1 Tl1+ 2 a -.0021(2) 0 0.1873(1) 1. 0 0.0183(7) 
Tl2 Tl1+ 2 a 0.5023(2) 0.0258(5) 0.3235(1) 1. 0 0.0233(9) 
Zn1 Zn2+ 2 a 0.1787(4) 0.0140(11) 0.6004(3) 1. 0 0.0123(15) 
Zn2 Zn2+ 2 a 0.6710(4) -.0183(12) -.0728(4) 1. 0 0.0146(17) 
As1 As5+ 2 a 0.8101(3) 0.0142(10) 0.6005(3) 1. 0 0.0068(5) 
As2 As5+ 2 a 0.3092(3) -.0138(9) -.0640(3) 1. 0 0.0084(6) 
O1 O2- 2 a 0.0192(25) 0.4848(59) 0.3164(24) 1. 0 0.0272(52) 
O2 O2- 2 a 0.4808(23) 0.0556(42) 0.0209(20) 1. 0 0.0150(47) 
O3 O2- 2 a 0.2120(34) 0.7721(52) 0.0359(32) 1. 0 0.0282(68) 
O4 O2- 2 a 0.7998(34) 0.1671(52) 0.4437(32) 1. 0 0.0381(73) 
O5 O2- 2 a 0.3249(30) 0.6152(51) 0.2792(29) 1. 0 0.0329(68) 
O6 O2- 2 a 0.2150(32) 0.2443(48) 0.0125(31) 1. 0 0.0216(58) 
O7 O2- 2 a 0.2341(36) 0.2337(58) 0.4321(35) 1. 0 0.0371(72) 
O8 O2- 2 a 0.6716(31) 0.5970(53) 0.250(3) 1. 0 0.0366(73) 

#End of data_74812-ICSD


