data_80563-ICSD
#?2014 by Fachinformationszentrum Karlsruhe, and the U.S. Secretary of 
#Commerce on behalf of the United States.  All rights reserved.
_database_code_ICSD                80563
_audit_creation_date               1997/05/13
_audit_update_record               2007/08/01
_chemical_name_systematic
;
Barium Catena-pentafluoroaluminate - Alpha
;
_chemical_formula_structural       'Ba (Al F5)'
_chemical_formula_sum              'Al1 Ba1 F5'
_publ_section_title
;
Structure determination of beta- and gamma-Ba Al F5 by X-ray and 
neutron powder diffraction: a model for the alpha - beta - gamma 
transitions
;
loop_
_citation_id
_citation_journal_abbrev
_citation_year
_citation_journal_volume
_citation_page_first
_citation_page_last
_citation_journal_id_ASTM
primary 'Journal of Solid State Chemistry' 1990 89 282 291 JSSCBI
2 'Phase Transition' 1992 38 127 220 PHTRDP
_publ_author_name
;
Le Bail, A.;Ferey, G.;Mercier, A.M.;de Kozak, A.;Samouel, M.
;
_cell_length_a                     13.7168(3)
_cell_length_b                     5.6054(2)
_cell_length_c                     4.9329(1)
_cell_angle_alpha                  90.
_cell_angle_beta                   90.
_cell_angle_gamma                  90.
_cell_volume                       379.28
_cell_formula_units_Z              4
_symmetry_space_group_name_H-M     'P 21 21 21'
_symmetry_Int_Tables_number        19
_refine_ls_R_factor_all            .027
loop_
_symmetry_equiv_pos_site_id
_symmetry_equiv_pos_as_xyz
  1	'-x, y+.5, -z+.5'
  2	'x+.5, -y+.5, -z'
  3	'-x+.5, -y, z+.5'
  4	'x, y, z'
loop_
_atom_type_symbol
_atom_type_oxidation_number
Al3+	3
Ba2+	2
F1-	-1
loop_
_atom_site_label
_atom_site_type_symbol
_atom_site_symmetry_multiplicity
_atom_site_Wyckoff_symbol
_atom_site_fract_x
_atom_site_fract_y
_atom_site_fract_z
_atom_site_occupancy
_atom_site_attached_hydrogens
_atom_site_B_iso_or_equiv
Ba1 Ba2+ 4 a -.0943(2) 0.0905(5) 0.0197(4) 1. 0 0.84(4) 
Al1 Al3+ 4 a 0.8348(2) 0.5981(7) 0.4362(8) 1. 0 0.75(5) 
F1 F1- 4 a 0.7260(2) 0.1454(5) 0.8142(5) 1. 0 1.19(5) 
F2 F1- 4 a 0.5812(2) 0.2151(5) 0.1164(5) 1. 0 1.39(5) 
F3 F1- 4 a 0.8959(2) 0.3334(5) 0.5496(5) 1. 0 1.23(5) 
F4 F1- 4 a -.0792(2) 0.5997(5) 0.1563(5) 1. 0 1.33(4) 
F5 F1- 4 a 0.7511(2) 0.4099(5) 0.2258(5) 1. 0 1.09(4) 

#End of data_80563-ICSD


