data_159070-ICSD
#?2014 by Fachinformationszentrum Karlsruhe, and the U.S. Secretary of 
#Commerce on behalf of the United States.  All rights reserved.
_database_code_ICSD                159070
_audit_creation_date               2008/08/01
_chemical_name_systematic          'Sodium Aluminium Catena-disilicate'
_chemical_formula_structural       'Na Al (Si2 O6)'
_chemical_formula_sum              'Al1 Na1 O6 Si2'
_chemical_name_mineral             Jadeite
_publ_section_title
;
Compressibility trends of the clinopyroxenes and in-situ high-
pressure single-crystal X-ray diffraction study of jadeite
;
loop_
_citation_id
_citation_journal_abbrev
_citation_year
_citation_journal_volume
_citation_page_first
_citation_page_last
_citation_journal_id_ASTM
primary 'American Mineralogist' 2008 93 198 209 AMMIAY
_publ_author_name
;
McCarthy, A.C.;Downs, R.T.;Thompson, R.M.
;
_cell_length_a                     9.3372(3)
_cell_length_b                     8.4966(6)
_cell_length_c                     5.1805(3)
_cell_angle_alpha                  90.
_cell_angle_beta                   107.285(3)
_cell_angle_gamma                  90.
_cell_volume                       392.43
_cell_formula_units_Z              4
_symmetry_space_group_name_H-M     'C 1 2/c 1'
_symmetry_Int_Tables_number        15
_refine_ls_R_factor_all            .043
loop_
_symmetry_equiv_pos_site_id
_symmetry_equiv_pos_as_xyz
  1	'x, -y, z+.5'
  2	'-x, -y, -z'
  3	'-x, y, -z+.5'
  4	'x, y, z'
  5	'x+.5, -y+.5, z+.5'
  6	'-x+.5, -y+.5, -z'
  7	'-x+.5, y+.5, -z+.5'
  8	'x+.5, y+.5, z'
loop_
_atom_type_symbol
_atom_type_oxidation_number
Al3+	3
Na1+	1
O2-	-2
Si4+	4
loop_
_atom_site_label
_atom_site_type_symbol
_atom_site_symmetry_multiplicity
_atom_site_Wyckoff_symbol
_atom_site_fract_x
_atom_site_fract_y
_atom_site_fract_z
_atom_site_occupancy
_atom_site_attached_hydrogens
_atom_site_B_iso_or_equiv
Al1 Al3+ 4 e 0 0.9072(4) 0.250 1. 0 0.72(4) 
Na1 Na1+ 4 e 0 0.3021(5) 0.250 1. 0 1.29(6) 
Si1 Si4+ 8 f 0.2912(1) 0.0941(2) 0.2284(2) 1. 0 0.67(3) 
O1 O2- 8 f 0.1085(3) 0.0788(5) 0.1288(6) 1. 0 0.74(6) 
O2 O2- 8 f 0.3606(4) 0.2650(6) 0.2975(6) 1. 0 0.92(7) 
O3 O2- 8 f 0.3550(3) 0.0087(7) 0.0037(6) 1. 0 0.88(6) 

#End of data_159070-ICSD


