data_79985-ICSD
#?2014 by Fachinformationszentrum Karlsruhe, and the U.S. Secretary of 
#Commerce on behalf of the United States.  All rights reserved.
_database_code_ICSD                79985
_audit_creation_date               1996/10/14
_audit_update_record               2012/02/01
_chemical_name_systematic          'Dipotassium Hexaamidostannate'
_chemical_formula_structural       'K2 (Sn (N H2)6)'
_chemical_formula_sum              'H12 K2 N6 Sn1'
_publ_section_title
;
Hexaamidostannates(IV) of the alkali metals potassium, rubidium and 
cesium, M2 (Sn (N H2)6) (M=K,Rb,Cs), synthesis and crystal structures
;
loop_
_citation_id
_citation_journal_abbrev
_citation_year
_citation_journal_volume
_citation_page_first
_citation_page_last
_citation_journal_id_ASTM
primary 'Journal of Alloys and Compounds' 1995 227 109 115 JALCEU
_publ_author_name                  'Flacke, F.;Jacobs, H.'
_cell_length_a                     6.377(4)
_cell_length_b                     6.377(4)
_cell_length_c                     19.769(5)
_cell_angle_alpha                  90.
_cell_angle_beta                   90.
_cell_angle_gamma                  120.
_cell_volume                       696.22
_cell_formula_units_Z              3
_symmetry_space_group_name_H-M     'R -3 H'
_symmetry_Int_Tables_number        148
_refine_ls_R_factor_all            .019
loop_
_symmetry_equiv_pos_site_id
_symmetry_equiv_pos_as_xyz
  1	'x-y, x, -z'
  2	'y, -x+y, -z'
  3	'-x, -y, -z'
  4	'-x+y, -x, z'
  5	'-y, x-y, z'
  6	'x, y, z'
  7	'x-y+.6666, x+.3333, -z+.3333'
  8	'x-y+.3333, x+.6666, -z+.6666'
  9	'y+.6666, -x+y+.3333, -z+.3333'
 10	'y+.3333, -x+y+.6666, -z+.6666'
 11	'-x+.6666, -y+.3333, -z+.3333'
 12	'-x+.3333, -y+.6666, -z+.6666'
 13	'-x+y+.6666, -x+.3333, z+.3333'
 14	'-x+y+.3333, -x+.6666, z+.6666'
 15	'-y+.6666, x-y+.3333, z+.3333'
 16	'-y+.3333, x-y+.6666, z+.6666'
 17	'x+.6666, y+.3333, z+.3333'
 18	'x+.3333, y+.6666, z+.6666'
loop_
_atom_type_symbol
_atom_type_oxidation_number
H1+	1
K1+	1
N3-	-3
Sn4+	4
loop_
_atom_site_label
_atom_site_type_symbol
_atom_site_symmetry_multiplicity
_atom_site_Wyckoff_symbol
_atom_site_fract_x
_atom_site_fract_y
_atom_site_fract_z
_atom_site_occupancy
_atom_site_attached_hydrogens
_atom_site_U_iso_or_equiv
Sn1 Sn4+ 3 a 0 0 0 1. 0 0 
K1 K1+ 6 c 0 0 0.18066(3) 1. 0 0 
N1 N3- 18 f 0.2687(3) 0.2782(3) 0.06595(7) 1. 0 0 
H1 H1+ 18 f 0.216(5) 0.384(5) 0.074(1) 1. 0 0.032(6) 
H2 H1+ 18 f 0.400(5) 0.362(5) 0.043(1) 1. 0 0.032(6) 

loop_
_atom_site_aniso_label
_atom_site_aniso_type_symbol
_atom_site_aniso_U_11
_atom_site_aniso_U_22
_atom_site_aniso_U_33
_atom_site_aniso_U_12
_atom_site_aniso_U_13
_atom_site_aniso_U_23
Sn1 Sn4+ 0.01883(7) 0.01883(7) 0.0195(1) 0.00941(4) 0 0
K1 K1+ 0.02918(6) 0.02918(6) 0.0573(2) 0.01459(3) 0 0
N1 N3- 0.0269(6) 0.0283(6) 0.0303(7) 0.0132(4) -.0058(5) -.0027(6)
#End of data_79985-ICSD


