data_74861-ICSD
#?2014 by Fachinformationszentrum Karlsruhe, and the U.S. Secretary of 
#Commerce on behalf of the United States.  All rights reserved.
_database_code_ICSD                74861
_audit_creation_date               1995/10/17
_chemical_name_systematic          'Trilead Cyclo-fluorodialuminate'
_chemical_formula_structural       'Pb3 (Al2 F12)'
_chemical_formula_sum              'Al2 F12 Pb3'
_publ_section_title
;
Pb3Al2F12: Crystal structure of a cyclo-fluoroaluminate related to 
Ba3Al2F12
;
loop_
_citation_id
_citation_journal_abbrev
_citation_year
_citation_journal_volume
_citation_page_first
_citation_page_last
_citation_journal_id_ASTM
primary 'Zeitschrift fuer Anorganische und Allgemeine Chemie (1950) (DE)'
 1994 620 1449 1454 ZAACAB
_publ_author_name                  'Decap, G.;Retoux, R.;Calage, Y.'
_cell_length_a                     9.435(6)
_cell_length_b                     9.610(5)
_cell_length_c                     10.100(9)
_cell_angle_alpha                  90.
_cell_angle_beta                   90.59(5)
_cell_angle_gamma                  90.
_cell_volume                       915.72
_cell_formula_units_Z              4
_symmetry_space_group_name_H-M     'P 1 21/n 1'
_symmetry_Int_Tables_number        14
_refine_ls_R_factor_all            .046
loop_
_symmetry_equiv_pos_site_id
_symmetry_equiv_pos_as_xyz
  1	'-x+.5, y+.5, -z+.5'
  2	'-x, -y, -z'
  3	'x+.5, -y+.5, z+.5'
  4	'x, y, z'
loop_
_atom_type_symbol
_atom_type_oxidation_number
Al3+	3
F1-	-1
Pb2+	2
loop_
_atom_site_label
_atom_site_type_symbol
_atom_site_symmetry_multiplicity
_atom_site_Wyckoff_symbol
_atom_site_fract_x
_atom_site_fract_y
_atom_site_fract_z
_atom_site_occupancy
_atom_site_attached_hydrogens
Pb1 Pb2+ 4 e -.0170(1) 0.3842(2) 0.3291(1) 1. 0 
Pb2 Pb2+ 4 e 0.5156(1) 0.2836(1) 0.2845(1) 1. 0 
Pb3 Pb2+ 4 e 0.2889(1) 0.4981(1) 0.0015(1) 1. 0 
Al1 Al3+ 4 e 0.8181(5) 0.8510(5) 0.8731(5) 1. 0 
Al2 Al3+ 4 e 0.8111(5) 0.1383(5) 0.0825(5) 1. 0 
F1 F1- 4 e 0.128(2) 0.079(2) 0.281(1) 1. 0 
F2 F1- 4 e 0.361(1) 0.097(2) 0.155(2) 1. 0 
F3 F1- 4 e 0.275(2) 0.716(2) 0.533(2) 1. 0 
F4 F1- 4 e 0.289(1) 0.821(2) 0.306(2) 1. 0 
F5 F1- 4 e 0.504(1) 0.701(1) 0.406(1) 1. 0 
F6 F1- 4 e 0.636(1) 0.518(2) 0.547(1) 1. 0 
F7 F1- 4 e 0.158(2) 0.984(2) 0.792(2) 1. 0 
F8 F1- 4 e 0.263(1) 0.228(2) 0.699(1) 1. 0 
F9 F1- 4 e 0.370(1) 0.915(2) 0.934(2) 1. 0 
F10 F1- 4 e 0.208(1) 0.736(1) 0.047(2) 1. 0 
F11 F1- 4 e 0.005(1) 0.132(1) 0.558(2) 1. 0 
F12 F1- 4 e 0.942(2) 0.535(2) 0.159(2) 1. 0 

loop_
_atom_site_aniso_label
_atom_site_aniso_type_symbol
_atom_site_aniso_U_11
_atom_site_aniso_U_22
_atom_site_aniso_U_33
_atom_site_aniso_U_12
_atom_site_aniso_U_13
_atom_site_aniso_U_23
Pb1 Pb2+ 0.0172(3) 0.0104(3) 0.0170(3) -.0002(2) -.0021(2) -.0012(2)
Pb2 Pb2+ 0.0131(3) 0.0146(3) 0.0160(3) -.0009(2) 0.0001(2) -.0004(2)
Pb3 Pb2+ 0.0140(3) 0.0091(3) 0.0195(3) 0.0004(2) -.0040(2) -.0005(2)
Al1 Al3+ 0.007(2) 0.006(2) 0.011(2) -.001(2) -.004(2) 0.002(2)
Al2 Al3+ 0.007(2) 0.007(2) 0.013(2) -.001(2) -.001(2) -.001(2)
F1 F1- 0.018(5) 0.024(6) 0.010(5) -.007(4) -.004(4) 0.005(4)
F2 F1- 0.005(4) 0.013(5) 0.035(7) 0.001(4) -.008(4) -.001(4)
F3 F1- 0.018(5) 0.013(5) 0.019(5) 0.004(4) 0.004(4) 0.002(4)
F4 F1- 0.017(5) 0.014(5) 0.018(5) 0.004(4) -.003(4) 0.005(4)
F5 F1- 0.006(4) 0.008(4) 0.018(5) -.002(3) -.003(3) 0.001(4)
F6 F1- 0.011(4) 0.010(5) 0.018(5) 0.002(4) -.001(3) 0.002(4)
F7 F1- 0.023(5) 0.009(5) 0.016(5) 0.003(4) 0.003(4) 0.005(4)
F8 F1- 0.013(4) 0.015(5) 0.017(5) -.001(4) -.004(4) 0.010(4)
F9 F1- 0.006(4) 0.017(5) 0.029(6) -.003(4) -.001(4) -.006(4)
F10 F1- 0.012(5) 0.011(5) 0.019(5) 0.002(3) -.002(4) 0.001(4)
F11 F1- 0.013(5) 0.012(5) 0.021(5) -.001(3) 0.003(4) -.004(4)
F12 F1- 0.021(6) 0.015(6) 0.026(6) 0.001(4) -.006(5) -.001(4)
#End of data_74861-ICSD


