data_25533-ICSD
#?2014 by Fachinformationszentrum Karlsruhe, and the U.S. Secretary of 
#Commerce on behalf of the United States.  All rights reserved.
_database_code_ICSD                25533
_audit_creation_date               1980/01/01
_audit_update_record               2012/08/01
_chemical_name_systematic          'Sodium Trifluoroniccolate'
_chemical_formula_structural       'Na (Ni F3)'
_chemical_formula_sum              'F3 Na1 Ni1'
_publ_section_title
;
Struktur, Magnetismus und Reflexionsspektren von Alkali-, Ammonium- 
und Thallium - Nickel(II) - fluoriden
;
loop_
_citation_id
_citation_journal_abbrev
_citation_year
_citation_journal_volume
_citation_page_first
_citation_page_last
_citation_journal_id_ASTM
primary 'Zeitschrift fuer Anorganische und Allgemeine Chemie (1950) (DE)'
 1962 317 261 287 ZAACAB
_publ_author_name
;
Ruedorff, W.;Kaendler, J.;Babel, D.
;
_cell_length_a                     5.36
_cell_length_b                     5.525
_cell_length_c                     7.705
_cell_angle_alpha                  90.
_cell_angle_beta                   90.
_cell_angle_gamma                  90.
_cell_volume                       228.18
_cell_formula_units_Z              4
_symmetry_space_group_name_H-M     'P b n m'
_symmetry_Int_Tables_number        62
loop_
_symmetry_equiv_pos_site_id
_symmetry_equiv_pos_as_xyz
  1	'-x+.5, y+.5, z'
  2	'x, y, -z+.5'
  3	'x+.5, -y+.5, z+.5'
  4	'-x, -y, -z'
  5	'x+.5, -y+.5, -z'
  6	'-x, -y, z+.5'
  7	'-x+.5, y+.5, -z+.5'
  8	'x, y, z'
loop_
_atom_type_symbol
_atom_type_oxidation_number
F1-	-1
Na1+	1
Ni2+	2
loop_
_atom_site_label
_atom_site_type_symbol
_atom_site_symmetry_multiplicity
_atom_site_Wyckoff_symbol
_atom_site_fract_x
_atom_site_fract_y
_atom_site_fract_z
_atom_site_occupancy
_atom_site_attached_hydrogens
Ni1 Ni2+ 4 a 0 0 0 1. 0 
Na1 Na1+ 4 c 0.01556 0.43716 0.25 1. 0 
F1 F1- 8 d 0.3043 0.1984 0.0506 1. 0 
F2 F1- 4 c 0.6005 0.5328 0.25 1. 0 

#End of data_25533-ICSD


