data_183978-ICSD
#?2014 by Fachinformationszentrum Karlsruhe, and the U.S. Secretary of 
#Commerce on behalf of the United States.  All rights reserved.
_database_code_ICSD                183978
_audit_creation_date               2012/08/01
_chemical_name_systematic          'Distrontium Magnesium Disilicate'
_chemical_formula_structural       'Sr2 Mg (Si2 O7)'
_chemical_formula_sum              'Mg1 O7 Si2 Sr2'
_chemical_name_mineral             Unnamed_Melilite
_publ_section_title
;
Melilite-type and melilite-related compounds: structural variations 
along the join Sr2-x Bax Mg Si2 O7  (0<=x<=2) and high-pressure 
behavior of the two end-members
;
loop_
_citation_id
_citation_journal_abbrev
_citation_year
_citation_journal_volume
_citation_page_first
_citation_page_last
_citation_journal_id_ASTM
primary 'Physics and Chemistry of Minerals' 2012 39 199 211 PCMIDU
_publ_author_name
;
Ardit, M.;Dondi, M.;Merlini, M.;Cruciani, G.
;
_cell_length_a                     8.0095(1)
_cell_length_b                     8.0095(1)
_cell_length_c                     5.1643(1)
_cell_angle_alpha                  90.
_cell_angle_beta                   90.
_cell_angle_gamma                  90.
_cell_volume                       331.3
_cell_formula_units_Z              2
_symmetry_space_group_name_H-M     'P -4 21 m'
_symmetry_Int_Tables_number        113
_refine_ls_R_factor_all            .0249
loop_
_symmetry_equiv_pos_site_id
_symmetry_equiv_pos_as_xyz
  1	'-y+.5, -x+.5, z'
  2	'y, -x, -z'
  3	'y+.5, x+.5, z'
  4	'-y, x, -z'
  5	'x+.5, -y+.5, -z'
  6	'-x, -y, z'
  7	'-x+.5, y+.5, -z'
  8	'x, y, z'
loop_
_atom_type_symbol
_atom_type_oxidation_number
Mg2+	2
O2-	-2
Si4+	4
Sr2+	2
loop_
_atom_site_label
_atom_site_type_symbol
_atom_site_symmetry_multiplicity
_atom_site_Wyckoff_symbol
_atom_site_fract_x
_atom_site_fract_y
_atom_site_fract_z
_atom_site_occupancy
_atom_site_attached_hydrogens
_atom_site_U_iso_or_equiv
Sr1 Sr2+ 4 e 0.3345(1) 0.1655(1) 0.5070(2) 1. 0 0.0087 
Mg1 Mg2+ 2 a 0 0 0 1. 0 0.0089 
Si1 Si4+ 4 e 0.1386(2) 0.3614(2) 0.9437(5) 1. 0 0.0054 
O1 O2- 2 c 0.5 0 0.1617(14) 1. 0 0.0128 
O2 O2- 4 e 0.1418(4) 0.3582(4) 0.2527(9) 1. 0 0.0136 
O3 O2- 8 f 0.0784(4) 0.1922(4) 0.8060(7) 1. 0 0.0156 

#End of data_183978-ICSD


