data_186531-ICSD
#?2014 by Fachinformationszentrum Karlsruhe, and the U.S. Secretary of 
#Commerce on behalf of the United States.  All rights reserved.
_database_code_ICSD                186531
_audit_creation_date               2013/08/01
_chemical_name_systematic
;
Bismuth Calcium Magnesium Oxide (1/0.5/0.5/2.5)
;
_chemical_formula_structural       'Bi (Ca0.5 Mg0.5) O2.5'
_chemical_formula_sum              'Bi1 Ca0.5 Mg0.5 O2.5'
_publ_section_title
;
Synthesis, crystal structure determination and ionic properties of 
novel Bi Ca0.5 Mg0.5 O2.5 via X-ray powder diffraction data
;
loop_
_citation_id
_citation_journal_abbrev
_citation_year
_citation_journal_volume
_citation_page_first
_citation_page_last
_citation_journal_id_ASTM
primary 'Elixir Online Journal' 2011 32 2041 2045 EOJLAI
_publ_author_name                  'Mishra, Parashuram'
_cell_length_a                     23.104910
_cell_length_b                     12.618820
_cell_length_c                     3.033075
_cell_angle_alpha                  90.
_cell_angle_beta                   90.
_cell_angle_gamma                  90.
_cell_volume                       884.31
_cell_formula_units_Z              16
_symmetry_space_group_name_H-M     'P n m a'
_symmetry_Int_Tables_number        62
_refine_ls_R_factor_all            .0127
loop_
_symmetry_equiv_pos_site_id
_symmetry_equiv_pos_as_xyz
  1	'x+.5, y, -z+.5'
  2	'x, -y+.5, z'
  3	'-x+.5, y+.5, z+.5'
  4	'-x, -y, -z'
  5	'-x+.5, -y, z+.5'
  6	'-x, y+.5, -z'
  7	'x+.5, -y+.5, -z+.5'
  8	'x, y, z'
loop_
_atom_type_symbol
_atom_type_oxidation_number
Bi3+	3
Ca2+	2
Mg2+	2
O2-	-2
loop_
_atom_site_label
_atom_site_type_symbol
_atom_site_symmetry_multiplicity
_atom_site_Wyckoff_symbol
_atom_site_fract_x
_atom_site_fract_y
_atom_site_fract_z
_atom_site_occupancy
_atom_site_attached_hydrogens
_atom_site_U_iso_or_equiv
Bi1 Bi3+ 8 d 0.05920 0.19990 0.45150 1. 0 0 
O1 O2- 8 d -0.30410 -0.11130 0.27600 1. 0 0 
Bi2 Bi3+ 8 d -0.03790 -0.09450 0.52700 1. 0 0.1267 
O2 O2- 8 d 0.60230 -0.18500 0.40950 1. 0 0.1267 
Ca1 Ca2+ 8 d 0.06700 0.03670 .38990 1. 0 0 
O3 O2- 8 d 0.10100 -0.05700 0.24400 1. 0 0.0063 
Mg1 Mg2+ 8 d 0.13330 0.60360 0.37280 1. 0 0 
O4 O2- 8 d -0.11(5) 0.1(3) -0.8(6) 1. 0 0.0(7) 
O5 O2- 4 a 0 0 0 1. 0 0.0063 

#End of data_186531-ICSD


