data_14118-ICSD
#?2014 by Fachinformationszentrum Karlsruhe, and the U.S. Secretary of 
#Commerce on behalf of the United States.  All rights reserved.
_database_code_ICSD                14118
_audit_creation_date               1986/10/06
_audit_update_record               2012/02/01
_chemical_name_systematic
;
Potassium Heptafluorodiantimonate(III)
;
_chemical_formula_structural       'K (Sb2 F7)'
_chemical_formula_sum              'F7 K1 Sb2'
_publ_section_title
;
Crystal structure of K Sb2 F7. On the existence of the Sb2 F7 ion
;
loop_
_citation_id
_citation_journal_abbrev
_citation_year
_citation_journal_volume
_citation_page_first
_citation_page_last
_citation_journal_id_ASTM
primary 'Inorganic Chemistry' 1971 10 1757 1760 INOCAJ
_publ_author_name                  'Mastin, S.H.;Ryan, R.R.'
_cell_length_a                     10.517(1)
_cell_length_b                     7.596(1)
_cell_length_c                     8.599(1)
_cell_angle_alpha                  90.
_cell_angle_beta                   100.85(2)
_cell_angle_gamma                  90.
_cell_volume                       674.67
_cell_formula_units_Z              4
_symmetry_space_group_name_H-M     'P 1 21/c 1'
_symmetry_Int_Tables_number        14
_refine_ls_R_factor_all            .025
loop_
_symmetry_equiv_pos_site_id
_symmetry_equiv_pos_as_xyz
  1	'x, -y+.5, z+.5'
  2	'-x, -y, -z'
  3	'-x, y+.5, -z+.5'
  4	'x, y, z'
loop_
_atom_type_symbol
_atom_type_oxidation_number
F1-	-1
K1+	1
Sb3+	3
loop_
_atom_site_label
_atom_site_type_symbol
_atom_site_symmetry_multiplicity
_atom_site_Wyckoff_symbol
_atom_site_fract_x
_atom_site_fract_y
_atom_site_fract_z
_atom_site_occupancy
_atom_site_attached_hydrogens
K1 K1+ 4 e 0.4269(1) 0.6641(2) 0.6690(1) 1. 0 
Sb1 Sb3+ 4 e 0.25427(3) 0.18160(3) 0.51269(3) 1. 0 
Sb2 Sb3+ 4 e 0.10205(3) 0.67327(3) 0.34674(3) 1. 0 
F1 F1- 4 e 0.3059(3) 0.1174(4) 0.3168(3) 1. 0 
F2 F1- 4 e 0.1512(3) 0.4166(3) 0.3137(3) 1. 0 
F3 F1- 4 e 0.4049(3) 0.3392(3) 0.5388(3) 1. 0 
F4 F1- 4 e 0.3782(3) 0.0135(3) 0.6195(3) 1. 0 
F5 F1- 4 e 0.2843(3) 0.7028(4) 0.3639(3) 1. 0 
F6 F1- 4 e 0.1272(3) 0.5992(5) 0.5655(3) 1. 0 
F7 F1- 4 e 0.1243(3) 0.9203(4) 0.4532(4) 1. 0 

#End of data_14118-ICSD


