data_419398-ICSD
#?2014 by Fachinformationszentrum Karlsruhe, and the U.S. Secretary of 
#Commerce on behalf of the United States.  All rights reserved.
_database_code_ICSD                419398
_audit_creation_date               2009/02/01
_audit_update_record               2011/02/01
_chemical_name_systematic          'Tripotassium Dithiovanadate(V)'
_chemical_formula_structural       'K3 (V S2 O2)'
_chemical_formula_sum              'K3 O2 S2 V1'
_publ_section_title
;
Potassium-thio/oxo-vanadates(V) K3 [V S(x) O(4-x)] (x = 1 - 4) and 
Na3 [V S O3]: synthesis, structural chemistry, properties
;
loop_
_citation_id
_citation_journal_abbrev
_citation_year
_citation_journal_volume
_citation_journal_issue
_citation_page_first
_citation_page_last
_citation_journal_id_ASTM
primary 'Zeitschrift fuer Naturforschung, B: Chemical Sciences'
 2008 63 7 819 833 ZNBSEN
_publ_author_name                  'Schnabel, S.;Roehr, C.'
_cell_length_a                     10.561(16)
_cell_length_b                     7.322(10)
_cell_length_c                     11.67(2)
_cell_angle_alpha                  90.00
_cell_angle_beta                   121.86(11)
_cell_angle_gamma                  90.00
_cell_volume                       766.46
_cell_formula_units_Z              4
_symmetry_space_group_name_H-M     'P 1 21/c 1'
_symmetry_Int_Tables_number        14
_refine_ls_R_factor_all            .0987
loop_
_symmetry_equiv_pos_site_id
_symmetry_equiv_pos_as_xyz
  1	'x, -y+.5, z+.5'
  2	'-x, -y, -z'
  3	'-x, y+.5, -z+.5'
  4	'x, y, z'
loop_
_atom_type_symbol
_atom_type_oxidation_number
K1+	1
O2-	-2
S2-	-2
V5+	5
loop_
_atom_site_label
_atom_site_type_symbol
_atom_site_symmetry_multiplicity
_atom_site_Wyckoff_symbol
_atom_site_fract_x
_atom_site_fract_y
_atom_site_fract_z
_atom_site_occupancy
_atom_site_attached_hydrogens
_atom_site_U_iso_or_equiv
K1 K1+ 4 e 0.0598(11) 0.2605(17) 0.1169(10) 1 0 0.050(4) 
K2 K1+ 4 e 0.7699(10) 0.2717(16) 0.2083(12) 1 0 0.051(4) 
K3 K1+ 4 e 0.5198(11) 0.3652(16) 0.3403(12) 1 0 0.062(4) 
V1 V5+ 4 e 0.3081(8) 0.1967(11) 0.4722(8) 1 0 0.040(3) 
S1 S2- 4 e 0.2509(12) 0.5335(19) 0.0556(13) 1 0 0.056(4) 
S2 S2- 4 e 0.1415(11) 0.4193(18) 0.4106(12) 1 0 0.053(4) 
O1 O2- 4 e 0.310(2) 0.126(3) 0.3363(14) 1 0 0.034(7) 
O2 O2- 4 e 0.4778(14) 0.281(3) 0.582(2) 1 0 0.044(8) 

loop_
_atom_site_aniso_label
_atom_site_aniso_type_symbol
_atom_site_aniso_U_11
_atom_site_aniso_U_22
_atom_site_aniso_U_33
_atom_site_aniso_U_12
_atom_site_aniso_U_13
_atom_site_aniso_U_23
K1 K1+ 0.062(6) 0.043(8) 0.033(7) 0.007(6) 0.018(5) 0.016(6)
K2 K1+ 0.065(7) 0.029(8) 0.068(7) 0.005(6) 0.041(6) 0.006(6)
K3 K1+ 0.058(7) 0.056(9) 0.058(8) 0.004(6) 0.022(6) -0.005(7)
V1 V5+ 0.054(5) 0.031(6) 0.043(5) -0.007(4) 0.030(4) -0.003(5)
S1 S2- 0.068(8) 0.053(11) 0.048(8) 0.000(7) 0.030(8) 0.000(8)
S2 S2- 0.049(7) 0.057(11) 0.044(8) 0.005(7) 0.017(6) 0.000(8)
#End of data_419398-ICSD


