data_35111-ICSD
#?2014 by Fachinformationszentrum Karlsruhe, and the U.S. Secretary of 
#Commerce on behalf of the United States.  All rights reserved.
_database_code_ICSD                35111
_audit_creation_date               1982/12/31
_audit_update_record               2006/04/01
_chemical_name_systematic          'Potassium Chlorate(VII)'
_chemical_formula_structural       'K (Cl O4)'
_chemical_formula_sum              'Cl1 K1 O4'
_publ_section_title
;
Deformation density in complex anions. III .Potassium perchlorate
;
loop_
_citation_id
_citation_journal_abbrev
_citation_year
_citation_journal_volume
_citation_page_first
_citation_page_last
_citation_journal_id_ASTM
primary 'Acta Crystallographica B (24,1968-38,1982)' 1982 38 2116 2120 ACBCAR
2 'Golden Book of Phase Transitions, Wroclaw' 2002 1 1 123 GBOPT5
_publ_author_name                  'Bats, J.W.;Fuess, H.'
_cell_length_a                     8.765(1)
_cell_length_b                     5.620(1)
_cell_length_c                     7.205(1)
_cell_angle_alpha                  90.
_cell_angle_beta                   90.
_cell_angle_gamma                  90.
_cell_volume                       354.91
_cell_formula_units_Z              4
_symmetry_space_group_name_H-M     'P n m a'
_symmetry_Int_Tables_number        62
_refine_ls_R_factor_all            .03
loop_
_symmetry_equiv_pos_site_id
_symmetry_equiv_pos_as_xyz
  1	'x+.5, y, -z+.5'
  2	'x, -y+.5, z'
  3	'-x+.5, y+.5, z+.5'
  4	'-x, -y, -z'
  5	'-x+.5, -y, z+.5'
  6	'-x, y+.5, -z'
  7	'x+.5, -y+.5, -z+.5'
  8	'x, y, z'
loop_
_atom_type_symbol
_atom_type_oxidation_number
Cl7+	7
K1+	1
O2-	-2
loop_
_atom_site_label
_atom_site_type_symbol
_atom_site_symmetry_multiplicity
_atom_site_Wyckoff_symbol
_atom_site_fract_x
_atom_site_fract_y
_atom_site_fract_z
_atom_site_occupancy
_atom_site_attached_hydrogens
_atom_site_U_iso_or_equiv
K1 K1+ 4 c 0.18038(14) 0.25 0.33865(16) 1. 0 0.0107(5) 
Cl1 Cl7+ 4 c 0.06954(5) 0.25 0.81160(6) 1. 0 0.00864(17) 
O1 O2- 4 c 0.19372(10) 0.25 0.94289(10) 1. 0 0.0154(4) 
O2 O2- 8 d 0.08098(7) 0.04086(8) 0.69491(8) 1. 0 0.0156(2) 
O3 O2- 4 c -.07410(11) 0.25 0.90607(12) 1. 0 0.0126(4) 

#End of data_35111-ICSD


