data_172828-ICSD
#?2014 by Fachinformationszentrum Karlsruhe, and the U.S. Secretary of 
#Commerce on behalf of the United States.  All rights reserved.
_database_code_ICSD                172828
_audit_creation_date               2008/02/01
_audit_update_record               2013/02/01
_chemical_name_systematic
;
Dieuropium Calcium Dicopper Hexaoxide
;
_chemical_formula_structural       'Eu2 Ca (Cu2 O6)'
_chemical_formula_sum              'Ca1 Cu2 Eu2 O6'
_publ_section_title
;
Structure and magnetic properties of Eu2 Ca Cu2 O6
;
loop_
_citation_id
_citation_journal_abbrev
_citation_year
_citation_journal_volume
_citation_journal_issue
_citation_page_first
_citation_page_last
_citation_journal_id_ASTM
primary 'Chemistry of Materials' 2006 18 19 4585 4591 CMATEX
_publ_author_name
;
Xu Qiang;Klimczuk, T.;Jansen, J.;Cava, R.J.;Zandbergen, H.W.
;
_cell_length_a                     6.084(5)
_cell_length_b                     6.148(5)
_cell_length_c                     15.340(2)
_cell_angle_alpha                  90.000
_cell_angle_beta                   108.262(4)
_cell_angle_gamma                  90.000
_cell_volume                       544.88
_cell_formula_units_Z              4
_symmetry_space_group_name_H-M     'A 1 2/a 1'
_symmetry_Int_Tables_number        15
_refine_ls_R_factor_all            .03
loop_
_symmetry_equiv_pos_site_id
_symmetry_equiv_pos_as_xyz
  1	'-x+.5, y, -z'
  2	'-x, -y, -z'
  3	'x+.5, -y, z'
  4	'x, y, z'
  5	'-x+.5, y+.5, -z+.5'
  6	'-x, -y+.5, -z+.5'
  7	'x+.5, -y+.5, z+.5'
  8	'x, y+.5, z+.5'
loop_
_atom_type_symbol
_atom_type_oxidation_number
Ca2+	2
Cu2+	2
Eu3+	3
O2-	-2
loop_
_atom_site_label
_atom_site_type_symbol
_atom_site_symmetry_multiplicity
_atom_site_Wyckoff_symbol
_atom_site_fract_x
_atom_site_fract_y
_atom_site_fract_z
_atom_site_occupancy
_atom_site_attached_hydrogens
_atom_site_B_iso_or_equiv
Eu1 Eu3+ 8 f 0.2189(0) 0.8116(1) 0.2011(0) 1.000 0 1.598(3) 
Cu1 Cu2+ 8 f 0.4893(1) 0.5907(1) 0.0823(0) 1.000 0 0.712(5) 
Ca1 Ca2+ 4 e 0.2500 0.0345(1) 0.0000 1.000 0 0.105(5) 
O1 O2- 8 f 0.4664(0) 0.4828(0) 0.2019(1) 1.000 0 1.69(2) 
O2 O2- 8 f 0.5423(1) 0.8822(0) 0.1238(1) 1.000 0 1.15(2) 
O3 O2- 8 f 0.5533(1) 0.3028(0) 0.0435(1) 1.000 0 2.30(3) 

#End of data_172828-ICSD


