data_163466-ICSD
#?2014 by Fachinformationszentrum Karlsruhe, and the U.S. Secretary of 
#Commerce on behalf of the United States.  All rights reserved.
_database_code_ICSD                163466
_audit_creation_date               2009/08/01
_chemical_name_systematic
;
Pentasodium Erbium Tetrakis(molybdate)
;
_chemical_formula_structural       'Na5 Er (Mo O4)4'
_chemical_formula_sum              'Er1 Mo4 Na5 O16'
_publ_section_title
;
Syntheses, crystal structures, energy bands and optical 
characterizations of Na5 Ln (Mo O4)4 (Ln = Gd, Er)
;
loop_
_citation_id
_citation_journal_abbrev
_citation_year
_citation_journal_volume
_citation_page_first
_citation_page_last
_citation_journal_id_ASTM
primary 'Journal of Molecular Structure' 2009 919 178 184 JMOSB4
_publ_author_name
;
Zhao, D.;Cheng, W.-D.;Zhang, H.;Huang, S.-P.;Fang, M.;Zhang, W.-
L.;Yang, S.-L.
;
_cell_length_a                     11.3745(3)
_cell_length_b                     11.3745(3)
_cell_length_c                     11.4371(4)
_cell_angle_alpha                  90.
_cell_angle_beta                   90.
_cell_angle_gamma                  90.
_cell_volume                       1479.72
_cell_formula_units_Z              4
_symmetry_space_group_name_H-M     'I 41/a Z'
_symmetry_Int_Tables_number        88
_refine_ls_R_factor_all            .0514
loop_
_symmetry_equiv_pos_site_id
_symmetry_equiv_pos_as_xyz
  1	'-y+.75, x+.75, -z+.75'
  2	'y+.25, -x+.75, -z+.75'
  3	'x, y+.5, -z'
  4	'-x, -y, -z'
  5	'y+.25, -x+.25, z+.25'
  6	'-y+.75, x+.25, z+.25'
  7	'-x, -y+.5, z'
  8	'x, y, z'
  9	'-y+.25, x+.25, -z+.25'
 10	'y+.75, -x+.25, -z+.25'
 11	'x+.5, y, -z+.5'
 12	'-x+.5, -y+.5, -z+.5'
 13	'y+.75, -x+.75, z+.75'
 14	'-y+.25, x+.75, z+.75'
 15	'-x+.5, -y, z+.5'
 16	'x+.5, y+.5, z+.5'
loop_
_atom_type_symbol
_atom_type_oxidation_number
Er3+	3
Mo6+	6
Na1+	1
O2-	-2
loop_
_atom_site_label
_atom_site_type_symbol
_atom_site_symmetry_multiplicity
_atom_site_Wyckoff_symbol
_atom_site_fract_x
_atom_site_fract_y
_atom_site_fract_z
_atom_site_occupancy
_atom_site_attached_hydrogens
_atom_site_U_iso_or_equiv
Na1 Na1+ 16 f 0.7049(4) 0.8692(4) 0.4058(5) 1. 0 0.0155(9) 
Na2 Na1+ 4 b 0.5 0.750 0.1250 1. 0 0.032(3) 
Er1 Er3+ 4 a 0.5 0.750 0.6250 1. 0 0.0106(4) 
Mo1 Mo6+ 16 f 0.40664(7) 0.93134(9) 0.36344(8) 1. 0 0.0113(4) 
O1 O2- 16 f 0.4159(6) 0.0702(6) 0.4368(7) 1. 0 0.0139(14) 
O2 O2- 16 f 0.2851(6) 0.9273(7) 0.2719(7) 1. 0 0.0191(16) 
O3 O2- 16 f 0.3886(6) 0.8126(6) 0.4628(7) 1. 0 0.0157(15) 
O4 O2- 16 f 0.5311(6) 0.8992(6) 0.2776(7) 1. 0 0.0170(16) 

#End of data_163466-ICSD


