data_641324-ICSD
#?2014 by Fachinformationszentrum Karlsruhe, and the U.S. Secretary of 
#Commerce on behalf of the United States.  All rights reserved.
_database_code_ICSD                641324
_audit_creation_date               2012/08/01
_chemical_name_systematic          'Potassium Antimony Sulfide (1/1/2)'
_chemical_formula_structural       'K Sb S2'
_chemical_formula_sum              'K1 S2 Sb1'
_publ_section_title
;
Crystal structure of alpha - Na Sb S2
;
loop_
_citation_id
_citation_journal_abbrev
_citation_year
_citation_journal_volume
_citation_page_first
_citation_page_last
_citation_journal_id_ASTM
primary 'Zhurnal Strukturnoi Khimii (Issue-No. from 1981)'
 1979 20 148 152 ZSTKAI
_publ_author_name
;
Kanishcheva, A.S.;Kuznetsov, V.G.;Batog, V.N.
;
_cell_length_a                     8.781(1)
_cell_length_b                     9.013(1)
_cell_length_c                     6.866(1)
_cell_angle_alpha                  90.0
_cell_angle_beta                   121.64
_cell_angle_gamma                  90.0
_cell_volume                       462.63
_cell_formula_units_Z              4
_symmetry_space_group_name_H-M     'C 1 2/c 1'
_symmetry_Int_Tables_number        15
loop_
_symmetry_equiv_pos_site_id
_symmetry_equiv_pos_as_xyz
  1	'x, -y, z+.5'
  2	'-x, -y, -z'
  3	'-x, y, -z+.5'
  4	'x, y, z'
  5	'x+.5, -y+.5, z+.5'
  6	'-x+.5, -y+.5, -z'
  7	'-x+.5, y+.5, -z+.5'
  8	'x+.5, y+.5, z'
loop_
_atom_type_symbol
_atom_type_oxidation_number
K1+	1
S2-	-2
Sb3+	3
loop_
_atom_site_label
_atom_site_type_symbol
_atom_site_symmetry_multiplicity
_atom_site_Wyckoff_symbol
_atom_site_fract_x
_atom_site_fract_y
_atom_site_fract_z
_atom_site_occupancy
_atom_site_attached_hydrogens
K1 K1+ 4 e 0 0.140 0.25 1. 0 
Sb1 Sb3+ 4 e 0 0.593 0.25 1. 0 
S1 S2- 8 f 0.203 0.424 0.222 1. 0 

#End of data_641324-ICSD


