data_186997-ICSD
#?2014 by Fachinformationszentrum Karlsruhe, and the U.S. Secretary of 
#Commerce on behalf of the United States.  All rights reserved.
_database_code_ICSD                186997
_audit_creation_date               2013/08/01
_chemical_name_systematic          'Potassium Erbium Tetrafluoride'
_chemical_formula_structural       'K Er F4'
_chemical_formula_sum              'Er1 F4 K1'
_publ_section_title
;
Crystal structures and stability of trigonal K Ln F4 fluorides (Ln = 
Y, Ho, Er, Tm, Yb)
;
loop_
_citation_id
_citation_journal_abbrev
_citation_year
_citation_journal_volume
_citation_journal_issue
_citation_page_first
_citation_page_last
_citation_journal_id_ASTM
primary 'Dalton Transactions' 2013 42 2 441 447 DTARAF
_publ_author_name
;
Grzechnik, Andrzej;Khaidukov, Nicholas;Friese, Karen
;
_cell_length_a                     14.128(2)
_cell_length_b                     14.128(2)
_cell_length_c                     10.1580(10)
_cell_angle_alpha                  90
_cell_angle_beta                   90
_cell_angle_gamma                  120
_cell_volume                       1755.9
_cell_formula_units_Z              18
_symmetry_space_group_name_H-M     'P 31'
_symmetry_Int_Tables_number        144
_refine_ls_R_factor_all            .0312
loop_
_symmetry_equiv_pos_site_id
_symmetry_equiv_pos_as_xyz
  1	'-x+y, -x, z+.6667'
  2	'-y, x-y, z+.3333'
  3	'x, y, z'
loop_
_atom_type_symbol
_atom_type_oxidation_number
Er3+	3
F1-	-1
K1+	1
loop_
_atom_site_label
_atom_site_type_symbol
_atom_site_symmetry_multiplicity
_atom_site_Wyckoff_symbol
_atom_site_fract_x
_atom_site_fract_y
_atom_site_fract_z
_atom_site_occupancy
_atom_site_attached_hydrogens
_atom_site_U_iso_or_equiv
Er1 Er3+ 3 a 0.12924(4) 0.88850(5) 0.33061(6) 1 0 0.00773(10) 
Er2 Er3+ 3 a 0.28257(4) 0.73204(5) 0.32051(6) 1 0 0.00657(9) 
Er3 Er3+ 3 a 0.77948(5) 0.20594(5) 0.33866(5) 1 0 0.00651(9) 
Er4 Er3+ 3 a 0.94245(6) 0.05903(6) 0.32607(9) 1 0 0.00784(10) 
Er5 Er3+ 3 a 0.45238(7) 0.54450(7) 0.32453(6) 1 0 0.00737(9) 
Er6 Er3+ 3 a 0.60496(4) 0.38766(4) 0.34247(4) 1 0 0.00627(10) 
K1 K1+ 3 a 0.7818(2) 0.7210(2) 0.3192(2) 1 0 0.0168(7) 
K2 K1+ 3 a 0.2670(2) 0.2202(2) 0.3480(3) 1 0 0.0188(7) 
K3 K1+ 3 a 0.1042(2) 0.3948(2) 0.3134(3) 1 0 0.0168(6) 
K4 K1+ 3 a 0.6111(3) 0.8773(2) 0.3460(3) 1 0 0.0213(8) 
K5 K1+ 3 a 0.9493(3) 0.5620(2) 0.3450(3) 1 0 0.0223(8) 
K6 K1+ 3 a 0.4543(2) 0.06467(16) 0.3149(2) 1 0 0.0161(6) 
F1 F1- 3 a 0.1313(4) 0.9347(4) 0.1132(5) 1 0 0.0153(10) 
F2 F1- 3 a 0.0689(5) 0.8763(5) 0.5408(5) 1 0 0.0184(12) 
F3 F1- 3 a 0.2094(4) 0.5943(4) 0.4685(5) 1 0 0.0234(9) 
F4 F1- 3 a 0.3359(6) 0.7290(3) 0.6540(8) 1 0 0.0341(6) 
F5 F1- 3 a 0.7363(5) 0.2032(5) 0.5553(6) 1 0 0.0184(12) 
F6 F1- 3 a 0.7880(4) 0.2676(4) 0.1295(5) 1 0 0.0153(10) 
F7 F1- 3 a 0.0004(5) 0.0602(3) 0.6622(7) 1 0 0.0341(6) 
F8 F1- 3 a -0.1241(4) -0.0762(4) 0.4772(5) 1 0 0.0234(9) 
F9 F1- 3 a 0.3907(4) 0.5368(5) 0.5339(5) 1 0 0.0184(12) 
F10 F1- 3 a 0.4571(5) 0.5899(4) 0.1081(5) 1 0 0.0153(10) 
F11 F1- 3 a 0.5466(5) 0.2887(4) 0.5306(5) 1 0 0.0234(9) 
F12 F1- 3 a -0.2666(6) -0.6056(4) 0.6751(7) 1 0 0.0341(6) 
F13 F1- 3 a 0.7678(5) 0.7290(4) 0.0628(6) 1 0 0.0183(9) 
F14 F1- 3 a 0.8088(5) 0.7239(3) 0.5720(6) 1 0 0.0165(10) 
F15 F1- 3 a 0.2484(4) 0.2237(4) 0.6052(5) 1 0 0.0171(9) 
F16 F1- 3 a 0.8082(5) 0.0743(5) 0.4283(6) 1 0 0.0154(10) 
F17 F1- 3 a 0.1319(4) 0.3933(4) 0.5656(6) 1 0 0.0165(10) 
F18 F1- 3 a 0.0922(4) 0.4018(4) 0.0584(5) 1 0 0.0183(9) 
F19 F1- 3 a 0.1535(4) 0.7551(4) 0.4228(5) 1 0 0.0154(10) 
F20 F1- 3 a 0.5883(4) 0.8836(4) 0.6029(5) 1 0 0.0171(9) 
F21 F1- 3 a 0.9365(4) 0.5741(4) 0.5987(5) 1 0 0.0171(9) 
F22 F1- 3 a -0.5311(5) 0.4112(4) 0.4238(5) 1 0 0.0154(10) 
F23 F1- 3 a 0.4842(4) 0.0682(4) 0.5660(5) 1 0 0.0165(10) 
F24 F1- 3 a 0.4519(5) 0.0857(4) 0.0570(6) 1 0 0.0183(9) 

loop_
_atom_site_aniso_label
_atom_site_aniso_type_symbol
_atom_site_aniso_U_11
_atom_site_aniso_U_22
_atom_site_aniso_U_33
_atom_site_aniso_U_12
_atom_site_aniso_U_13
_atom_site_aniso_U_23
Er1 Er3+ 0.00787(11) 0.00947(12) 0.00863(14) 0.00642(10) -0.00118(10) 
-0.00091(10)
Er2 Er3+ 0.00541(11) 0.00537(11) 0.00965(16) 0.00324(8) -0.00133(11) 
-0.00111(9)
Er3 Er3+ 0.00696(11) 0.00674(11) 0.00708(13) 0.00436(9) 0.00149(8) 
0.00163(9)
Er4 Er3+ 0.00696(12) 0.00709(13) 0.01086(13) 0.00456(11) -0.00212(12) 
-0.00208(11)
Er5 Er3+ 0.00794(10) 0.00881(11) 0.00799(12) 0.00615(9) -0.00090(10) 
-0.00020(10)
Er6 Er3+ 0.00605(12) 0.00683(12) 0.00795(11) 0.00473(13) -0.00041(10) 
-0.00035(10)
K1 K1+ 0.0146(7) 0.0223(11) 0.0099(7) 0.0067(7) 0.0023(6) 0.0074(6)
K2 K1+ 0.0323(10) 0.0172(8) 0.0083(6) 0.0134(8) 0.0024(7) 0.0022(6)
K3 K1+ 0.0182(8) 0.0184(7) 0.0132(7) 0.0087(7) -0.0038(6) -0.0010(7)
K4 K1+ 0.0411(14) 0.0126(7) 0.0148(7) 0.0170(9) -0.0027(9) 0.0024(5)
K5 K1+ 0.0382(14) 0.0132(7) 0.0163(7) 0.0136(7) 0.0055(8) 0.0042(6)
K6 K1+ 0.0158(8) 0.0096(5) 0.0180(8) 0.0026(5) -0.0018(5) 0.0062(5)
F1 F1- 0.0174(13) 0.0193(12) 0.0120(11) 0.0113(11) -0.0001(9) 0.0044(9)
F2 F1- 0.0203(13) 0.0277(18) 0.0131(12) 0.0165(13) 0.0104(10) 0.0027(11)
F3 F1- 0.0252(8) 0.0208(12) 0.0240(7) 0.0113(12) -0.0035(12) 0.0122(8)
F4 F1- 0.0380(10) 0.0027(4) 0.0506(11) 0.001997 -0.0011(8) 0
F5 F1- 0.0203(13) 0.0277(18) 0.0131(12) 0.0165(13) 0.0104(10) 0.0027(11)
F6 F1- 0.0174(13) 0.0193(12) 0.0120(11) 0.0113(11) -0.0001(9) 0.0044(9)
F7 F1- 0.0380(10) 0.0027(4) 0.0506(11) 0.001997 -0.0011(8) 0
F8 F1- 0.0252(8) 0.0208(12) 0.0240(7) 0.0113(12) -0.0035(12) 0.0122(8)
F9 F1- 0.0203(13) 0.0277(18) 0.0131(12) 0.0165(13) 0.0104(10) 0.0027(11)
F10 F1- 0.0174(13) 0.0193(12) 0.0120(11) 0.0113(11) -0.0001(9) 0.0044(9)
F11 F1- 0.0252(8) 0.0208(12) 0.0240(7) 0.0113(12) -0.0035(12) 0.0122(8)
F12 F1- 0.0380(10) 0.0027(4) 0.0506(11) 0.001997 -0.0011(8) 0
F13 F1- 0.0222(10) 0.0148(11) 0.0218(14) 0.0122(10) -0.0012(11) 0.0040(10)
F14 F1- 0.0208(13) 0.0058(11) 0.0161(15) 0.0015(9) -0.0112(10) -0.0038(9)
F15 F1- 0.0165(11) 0.0197(10) 0.0179(13) 0.0111(10) -0.0032(10) -0.0055(10)
F16 F1- 0.0220(13) 0.0171(12) 0.0144(14) 0.0151(11) 0.0068(10) 0.0092(10)
F17 F1- 0.0208(13) 0.0058(11) 0.0161(15) 0.0015(9) -0.0112(10) -0.0038(9)
F18 F1- 0.0222(10) 0.0148(11) 0.0218(14) 0.0122(10) -0.0012(11) 0.0040(10)
F19 F1- 0.0220(13) 0.0171(12) 0.0144(14) 0.0151(11) 0.0068(10) 0.0092(10)
F20 F1- 0.0165(11) 0.0197(10) 0.0179(13) 0.0111(10) -0.0032(10) -0.0055(10)
F21 F1- 0.0165(11) 0.0197(10) 0.0179(13) 0.0111(10) -0.0032(10) -0.0055(10)
F22 F1- 0.0220(13) 0.0171(12) 0.0144(14) 0.0151(11) 0.0068(10) 0.0092(10)
F23 F1- 0.0208(13) 0.0058(11) 0.0161(15) 0.0015(9) -0.0112(10) -0.0038(9)
F24 F1- 0.0222(10) 0.0148(11) 0.0218(14) 0.0122(10) -0.0012(11) 0.0040(10)
#End of data_186997-ICSD


