data_236871-ICSD
#?2014 by Fachinformationszentrum Karlsruhe, and the U.S. Secretary of 
#Commerce on behalf of the United States.  All rights reserved.
_database_code_ICSD                236871
_audit_creation_date               2014/08/01
_chemical_name_systematic          'Magnesium Dichromate'
_chemical_formula_structural       'Mg Cr2 O4'
_chemical_formula_sum              'Cr2 Mg1 O4'
_publ_section_title
;
X-ray single-crystal structural characterization of MgCr2O4, a post-
spinel phase synthesized at 23 GPa and 1600.degree.C
;
loop_
_citation_id
_citation_journal_abbrev
_citation_year
_citation_journal_volume
_citation_journal_issue
_citation_page_first
_citation_page_last
_citation_journal_id_ASTM
primary 'Journal of Physics and Chemistry of Solids' 2014 75 5 638 641 JPCSAW
_publ_author_name
;
Bindi, Luca;Sirotkina, Ekaterina;Bobrov, Andrey V.;Irifune, Tetsuo
;
_cell_length_a                     9.468(1)
_cell_length_b                     9.670(1)
_cell_length_c                     2.845(1)
_cell_angle_alpha                  90.
_cell_angle_beta                   90.
_cell_angle_gamma                  90.
_cell_volume                       260.48
_cell_formula_units_Z              4
_symmetry_space_group_name_H-M     'B b m m'
_symmetry_Int_Tables_number        63
_refine_ls_R_factor_all            .0441
loop_
_symmetry_equiv_pos_site_id
_symmetry_equiv_pos_as_xyz
  1	'x, -y+.5, -z'
  2	'-x, y+.5, -z'
  3	'x, y, -z'
  4	'-x, -y, -z'
  5	'-x, y+.5, z'
  6	'x, -y+.5, z'
  7	'-x, -y, z'
  8	'x, y, z'
  9	'x+.5, -y+.5, -z+.5'
 10	'-x+.5, y+.5, -z+.5'
 11	'x+.5, y, -z+.5'
 12	'-x+.5, -y, -z+.5'
 13	'-x+.5, y+.5, z+.5'
 14	'x+.5, -y+.5, z+.5'
 15	'-x+.5, -y, z+.5'
 16	'x+.5, y, z+.5'
loop_
_atom_type_symbol
_atom_type_oxidation_number
Cr3+	3
Mg2+	2
O2-	-2
loop_
_atom_site_label
_atom_site_type_symbol
_atom_site_symmetry_multiplicity
_atom_site_Wyckoff_symbol
_atom_site_fract_x
_atom_site_fract_y
_atom_site_fract_z
_atom_site_occupancy
_atom_site_attached_hydrogens
_atom_site_U_iso_or_equiv
Mg1 Mg2+ 4 c 0.3886(4) 0.25 0 1. 0 0.0139(7) 
Cr1 Cr3+ 8 f 0.1326(1) 0.07063(9) 0 1. 0 0.0142(3) 
O1 O2- 4 b 0.5 0 0 1. 0 0.014(1) 
O2 O2- 4 c 0.0428(8) 0.25 0 1. 0 0.018(1) 
O3 O2- 8 f 0.2297(7) -0.1136(4) 0 1. 0 0.018(1) 

loop_
_atom_site_aniso_label
_atom_site_aniso_type_symbol
_atom_site_aniso_U_11
_atom_site_aniso_U_22
_atom_site_aniso_U_33
_atom_site_aniso_U_12
_atom_site_aniso_U_13
_atom_site_aniso_U_23
Mg1 Mg2+ 0.013(2) 0.013(1) 0.015(2) 0.000 0.000 0.000
Cr1 Cr3+ 0.015(5) 0.0140(4) 0.135(4) 0.0001(4) 0.000 0.000
O1 O2- 0.015(3) 0.015(2) 0.011(3) 0.001(2) 0.000 0.000
O2 O2- 0.019(3) 0.017(3) 0.017(3) 0.000 0.000 0.000
O3 O2- 0.018(3) 0.018(2) 0.017(3) -0.001(2) 0.000 0.000
#End of data_236871-ICSD


