data_9990-ICSD
#?2014 by Fachinformationszentrum Karlsruhe, and the U.S. Secretary of 
#Commerce on behalf of the United States.  All rights reserved.
_database_code_ICSD                9990
_audit_creation_date               1980/01/01
_chemical_name_systematic          'Dipotassium Heptauranate'
_chemical_formula_structural       'K2 U7 O22'
_chemical_formula_sum              'K2 O22 U7'
_publ_section_title                'Crystal Structure of K2 U7 O22'
loop_
_citation_id
_citation_journal_abbrev
_citation_year
_citation_journal_volume
_citation_page_first
_citation_page_last
_citation_journal_id_ASTM
primary 'Zhurnal Strukturnoi Khimii (Issue-No. from 1981)'
 1972 13 256 258 ZSTKAI
_publ_author_name                  'Kovba, L.M.'
_cell_length_a                     6.945(2)
_cell_length_b                     19.533(5)
_cell_length_c                     7.215(3)
_cell_angle_alpha                  90.
_cell_angle_beta                   90.
_cell_angle_gamma                  90.
_cell_volume                       978.76
_cell_formula_units_Z              2
_symmetry_space_group_name_H-M     'P b a m'
_symmetry_Int_Tables_number        55
_refine_ls_R_factor_all            .12
loop_
_symmetry_equiv_pos_site_id
_symmetry_equiv_pos_as_xyz
  1	'x+.5, -y+.5, z'
  2	'-x+.5, y+.5, z'
  3	'x, y, -z'
  4	'-x, -y, -z'
  5	'-x+.5, y+.5, -z'
  6	'x+.5, -y+.5, -z'
  7	'-x, -y, z'
  8	'x, y, z'
loop_
_atom_type_symbol
_atom_type_oxidation_number
K1+	1
O2-	-2
U6+	6
loop_
_atom_site_label
_atom_site_type_symbol
_atom_site_symmetry_multiplicity
_atom_site_Wyckoff_symbol
_atom_site_fract_x
_atom_site_fract_y
_atom_site_fract_z
_atom_site_occupancy
_atom_site_attached_hydrogens
K1 K1+ 4 h 0.117 0.3 0.5 1. 0 
U1 U6+ 2 a 0 0 0 1. 0 
U2 U6+ 4 g -.036 0.1992 0 1. 0 
U3 U6+ 4 g -.028 0.4002 0 1. 0 
U4 U6+ 4 h 0.195 0.0572 0.5 1. 0 
O1 O2- 4 e 0 0 0.26 1. 0 
O2 O2- 8 i -.04 0.199 0.27 1. 0 
O3 O2- 8 i -.03 0.4 0.27 1. 0 
O4 O2- 4 g 0.333 -.008 0 1. 0 
O5 O2- 4 g 0.108 0.1 0 1. 0 
O6 O2- 4 g 0.324 0.2 0 1. 0 
O7 O2- 4 g 0.18 0.323 0 1. 0 
O8 O2- 4 h 0.258 0.15 0.5 1. 0 
O9 O2- 4 h 0.338 0.46 0.5 1. 0 

#End of data_9990-ICSD


