data_100308-ICSD
#?2014 by Fachinformationszentrum Karlsruhe, and the U.S. Secretary of 
#Commerce on behalf of the United States.  All rights reserved.
_database_code_ICSD                100308
_audit_creation_date               1980/12/31
_audit_update_record               2010/08/01
_chemical_name_systematic          'Dicalcium Aluminium Heptafluoride'
_chemical_formula_structural       'Ca2 Al F7'
_chemical_formula_sum              'Al1 Ca2 F7'
_publ_section_title                'The crystal structure of Ca2 Al F7'
loop_
_citation_id
_citation_journal_abbrev
_citation_year
_citation_journal_volume
_citation_page_first
_citation_page_last
_citation_journal_id_ASTM
primary 'Zeitschrift fuer Kristallographie (1979-2010)' 1980 153 317 328 ZEKRDZ
_publ_author_name                  'Domesle, R.;Hoppe, R.'
_cell_length_a                     7.685(1)
_cell_length_b                     6.998(1)
_cell_length_c                     9.549(1)
_cell_angle_alpha                  90.
_cell_angle_beta                   90.
_cell_angle_gamma                  90.
_cell_volume                       513.54
_cell_formula_units_Z              4
_symmetry_space_group_name_H-M     'P n m a'
_symmetry_Int_Tables_number        62
_refine_ls_R_factor_all            .044
loop_
_symmetry_equiv_pos_site_id
_symmetry_equiv_pos_as_xyz
  1	'x+.5, y, -z+.5'
  2	'x, -y+.5, z'
  3	'-x+.5, y+.5, z+.5'
  4	'-x, -y, -z'
  5	'-x+.5, -y, z+.5'
  6	'-x, y+.5, -z'
  7	'x+.5, -y+.5, -z+.5'
  8	'x, y, z'
loop_
_atom_type_symbol
_atom_type_oxidation_number
Al3+	3
Ca2+	2
F1-	-1
loop_
_atom_site_label
_atom_site_type_symbol
_atom_site_symmetry_multiplicity
_atom_site_Wyckoff_symbol
_atom_site_fract_x
_atom_site_fract_y
_atom_site_fract_z
_atom_site_occupancy
_atom_site_attached_hydrogens
Ca1 Ca2+ 4 c 0.1137(1) 0.25 0.7410(1) 1. 0 
Ca2 Ca2+ 4 c 0.8032(2) 0.25 0.1053(1) 1. 0 
Al1 Al3+ 4 c 0.3103(2) 0.25 0.0565(2) 1. 0 
F1 F1- 4 c 0.3726(5) 0.25 0.6295(3) 1. 0 
F2 F1- 4 c 0.0296(4) 0.25 0.5083(3) 1. 0 
F3 F1- 4 c 0.0965(5) 0.25 0.1265(4) 1. 0 
F4 F1- 8 d 0.2503(3) 0.0748(3) 0.9254(2) 1. 0 
F5 F1- 8 d 0.3693(3) 0.0719(3) 0.1848(2) 1. 0 

loop_
_atom_site_aniso_label
_atom_site_aniso_type_symbol
_atom_site_aniso_U_11
_atom_site_aniso_U_22
_atom_site_aniso_U_33
_atom_site_aniso_U_12
_atom_site_aniso_U_13
_atom_site_aniso_U_23
Ca1 Ca2+ 0.0093(5) 0.0081(5) 0.0079(5) 0 0.0003(4) 0
Ca2 Ca2+ 0.0108(5) 0.0075(5) 0.0090(5) 0 -.0010(4) 0
Al1 Al3+ 0.0091(7) 0.0073(8) 0.0057(7) 0 0.0008(6) 0
F1 F1- 0.0104(15) 0.0193(18) 0.0091(15) 0 0.0007(13) 0
F2 F1- 0.0102(17) 0.0159(18) 0.0083(15) 0 -.0016(13) 0
F3 F1- 0.0102(17) 0.0310(23) 0.0243(20) 0 0.0090(16) 0
F4 F1- 0.0213(12) 0.0089(11) 0.0152(12) -.0014(10) -.0059(10) -.0007(9)
F5 F1- 0.0207(12) 0.0101(11) 0.0088(10) -.0006(10) -.0023(9) 0.0017(9)
#End of data_100308-ICSD


