data_240873-ICSD
#?2014 by Fachinformationszentrum Karlsruhe, and the U.S. Secretary of 
#Commerce on behalf of the United States.  All rights reserved.
_database_code_ICSD                240873
_audit_creation_date               2008/08/01
_chemical_name_systematic
;
Potassium Dysprosium Polyphosphate(V) - Type Iv
;
_chemical_formula_structural       'K Dy (P O3)4'
_chemical_formula_sum              'Dy1 K1 O12 P4'
_publ_section_title
;
The type IV polymorph of K Dy (P O3)4
;
loop_
_citation_id
_citation_journal_abbrev
_citation_year
_citation_journal_volume
_citation_journal_issue
_citation_page_first
_citation_page_last
_citation_journal_id_ASTM
primary 'Acta Crystallographica, Section E. Structure Reports Online'
 2007 63 5 i129 i130 ACSEBH
2 'Zeitschrift fuer Anorganische und Allgemeine Chemie (1950) (DE)'
 1988 559- 123 130 ZAACAB
_publ_author_name                  'Chehimi-Moumen, F.;Ferid, M.'
_cell_length_a                     10.2822(4)
_cell_length_b                     8.9006(3)
_cell_length_c                     10.9848(4)
_cell_angle_alpha                  90.00
_cell_angle_beta                   106.284(2)
_cell_angle_gamma                  90.00
_cell_volume                       964.98
_cell_formula_units_Z              4
_symmetry_space_group_name_H-M     'P 1 21/n 1'
_symmetry_Int_Tables_number        14
_refine_ls_R_factor_all            .027
loop_
_symmetry_equiv_pos_site_id
_symmetry_equiv_pos_as_xyz
  1	'-x+.5, y+.5, -z+.5'
  2	'-x, -y, -z'
  3	'x+.5, -y+.5, z+.5'
  4	'x, y, z'
loop_
_atom_type_symbol
_atom_type_oxidation_number
Dy3+	3
K1+	1
O2-	-2
P5+	5
loop_
_atom_site_label
_atom_site_type_symbol
_atom_site_symmetry_multiplicity
_atom_site_Wyckoff_symbol
_atom_site_fract_x
_atom_site_fract_y
_atom_site_fract_z
_atom_site_occupancy
_atom_site_attached_hydrogens
_atom_site_U_iso_or_equiv
Dy1 Dy3+ 4 e 0.999226(19) 0.22606(2) 0.183461(18) 1 0 0.00897(8) 
K1 K1+ 4 e 0.67724(12) -0.43184(13) -0.04142(10) 1 0 0.0224(2) 
P1 P5+ 4 e 0.74585(11) -0.02656(13) 0.22082(11) 1 0 0.0095(2) 
P2 P5+ 4 e 0.67400(11) 0.10862(13) -0.02360(10) 1 0 0.0094(2) 
P3 P5+ 4 e 0.64637(11) -0.09119(12) -0.24255(11) 1 0 0.0094(2) 
P4 P5+ 4 e 0.45889(11) -0.32647(12) -0.36526(11) 1 0 0.0094(2) 
O1 O2- 4 e 0.8317(3) -0.5948(4) 0.1977(3) 1 0 0.0134(6) 
O2 O2- 4 e 0.8528(3) 0.0846(4) 0.2822(3) 1 0 0.0134(6) 
O3 O2- 4 e 0.6379(3) 0.0460(4) 0.1001(3) 1 0 0.0123(6) 
O4 O2- 4 e 0.8123(3) -0.1580(3) 0.1575(3) 1 0 0.0116(6) 
O5 O2- 4 e 0.8151(3) 0.1651(4) 0.0166(3) 1 0 0.0155(7) 
O6 O2- 4 e 0.5656(3) 0.2116(3) -0.0947(3) 1 0 0.0124(6) 
O7 O2- 4 e 0.6694(3) -0.0471(4) -0.0979(3) 1 0 0.0148(7) 
O8 O2- 4 e 0.7352(3) -0.6772(4) -0.2436(3) 1 0 0.0150(7) 
O9 O2- 4 e 0.6007(3) 0.0416(4) -0.3248(3) 1 0 0.0152(7) 
O10 O2- 4 e 0.5221(3) -0.2052(3) -0.2567(3) 1 0 0.0134(6) 
O11 O2- 4 e 0.4368(3) -0.2579(4) -0.4918(3) 1 0 0.0148(7) 
O12 O2- 4 e 0.5367(3) -0.4672(3) -0.3314(3) 1 0 0.0154(7) 

loop_
_atom_site_aniso_label
_atom_site_aniso_type_symbol
_atom_site_aniso_U_11
_atom_site_aniso_U_22
_atom_site_aniso_U_33
_atom_site_aniso_U_12
_atom_site_aniso_U_13
_atom_site_aniso_U_23
Dy1 Dy3+ 0.00845(12) 0.00866(12) 0.00974(12) -0.00045(7) 0.00244(8) 
-0.00073(7)
K1 K1+ 0.0277(6) 0.0246(6) 0.0139(5) -0.0036(5) 0.0045(4) 0.0008(4)
P1 P5+ 0.0087(5) 0.0098(5) 0.0108(5) -0.0003(4) 0.0040(4) 0.0002(4)
P2 P5+ 0.0086(5) 0.0105(5) 0.0084(5) -0.0001(4) 0.0011(4) -0.0005(4)
P3 P5+ 0.0087(5) 0.0092(5) 0.0097(5) -0.0002(4) 0.0017(4) -0.0011(4)
P4 P5+ 0.0086(5) 0.0081(5) 0.0114(5) -0.0006(4) 0.0029(4) -0.0008(4)
O1 O2- 0.0110(15) 0.0158(16) 0.0154(16) 0.0041(12) 0.0070(13) 0.0007(13)
O2 O2- 0.0115(15) 0.0150(16) 0.0141(16) -0.0027(12) 0.0044(13) -0.0020(12)
O3 O2- 0.0083(15) 0.0153(16) 0.0136(16) 0.0012(12) 0.0038(12) 0.0029(13)
O4 O2- 0.0094(14) 0.0092(15) 0.0172(16) 0.0006(12) 0.0053(12) -0.0026(12)
O5 O2- 0.0120(16) 0.0222(17) 0.0120(16) -0.0026(13) 0.0030(13) -0.0031(13)
O6 O2- 0.0114(15) 0.0135(16) 0.0131(16) 0.0043(12) 0.0050(12) 0.0008(12)
O7 O2- 0.0201(17) 0.0120(15) 0.0106(15) 0.0015(13) 0.0014(13) -0.0025(12)
O8 O2- 0.0101(15) 0.0164(16) 0.0177(16) -0.0011(13) 0.0025(13) 0.0039(13)
O9 O2- 0.0176(17) 0.0109(15) 0.0172(17) 0.0014(13) 0.0053(14) 0.0003(13)
O10 O2- 0.0133(16) 0.0124(16) 0.0144(16) -0.0041(12) 0.0036(13) -0.0032(13)
O11 O2- 0.0130(16) 0.0204(17) 0.0122(16) 0.0011(13) 0.0054(13) 0.0013(13)
O12 O2- 0.0127(16) 0.0100(15) 0.0253(18) -0.0001(13) 0.0083(14) 0.0025(13)
#End of data_240873-ICSD


