data_85632-ICSD
#?2014 by Fachinformationszentrum Karlsruhe, and the U.S. Secretary of 
#Commerce on behalf of the United States.  All rights reserved.
_database_code_ICSD                85632
_audit_creation_date               1999/11/30
_chemical_name_systematic          'Tetrasodium Cobaltate(II)'
_chemical_formula_structural       'Na4 (Co O3)'
_chemical_formula_sum              'Co1 Na4 O3'
_publ_section_title
;
Synthesis, structures, magnetic properties, and absorption spectra of 
the alkaline oxocobaltates(II) : Li6 Co O4, Na4 Co O3, and Na10 Co4 
O9
;
loop_
_citation_id
_citation_journal_abbrev
_citation_year
_citation_journal_volume
_citation_page_first
_citation_page_last
_citation_journal_id_ASTM
primary 'Chemistry of Materials' 1998 10 3196 3201 CMATEX
_publ_author_name                  'Moeller, A.'
_cell_length_a                     11.037(2)
_cell_length_b                     5.7642(7)
_cell_length_c                     8.149(1)
_cell_angle_alpha                  90.
_cell_angle_beta                   114.06(1)
_cell_angle_gamma                  90.
_cell_volume                       473.39
_cell_formula_units_Z              4
_symmetry_space_group_name_H-M     'C 1 c 1'
_symmetry_Int_Tables_number        9
_refine_ls_R_factor_all            .024
loop_
_symmetry_equiv_pos_site_id
_symmetry_equiv_pos_as_xyz
  1	'x, -y, z+.5'
  2	'x, y, z'
  3	'x+.5, -y+.5, z+.5'
  4	'x+.5, y+.5, z'
loop_
_atom_type_symbol
_atom_type_oxidation_number
Co2+	2
Na1+	1
O2-	-2
loop_
_atom_site_label
_atom_site_type_symbol
_atom_site_symmetry_multiplicity
_atom_site_Wyckoff_symbol
_atom_site_fract_x
_atom_site_fract_y
_atom_site_fract_z
_atom_site_occupancy
_atom_site_attached_hydrogens
_atom_site_U_iso_or_equiv
Co1 Co2+ 4 a 0.85544(3) 0.15091(6) 0.68630(4) 1. 0 0.0111(1) 
Na1 Na1+ 4 a 0.9891(2) 0.6600(2) 0.8835(3) 1. 0 0.0221(4) 
Na2 Na1+ 4 a 0.7684(3) 0.6686(3) 0.4765(3) 1. 0 0.0234(4) 
Na3 Na1+ 4 a 0.6844(2) 0.7885(2) 0.7867(2) 1. 0 0.0170(3) 
Na4 Na1+ 4 a 0.0850(1) 0.1585(2) 0.0651(2) 1. 0 0.0144(3) 
O1 O2- 4 a 0.6890(2) 0.0033(5) 0.5456(3) 1. 0 0.0134(5) 
O2 O2- 4 a 0.0154(3) 0.0088(4) 0.7680(4) 1. 0 0.0150(6) 
O3 O2- 4 a 0.8104(2) 0.4487(4) 0.7332(3) 1. 0 0.0128(5) 

#End of data_85632-ICSD


