data_16695-ICSD
#?2014 by Fachinformationszentrum Karlsruhe, and the U.S. Secretary of 
#Commerce on behalf of the United States.  All rights reserved.
_database_code_ICSD                16695
_audit_creation_date               1980/01/01
_audit_update_record               2014/08/01
_chemical_name_systematic          'Calcium Diiron(III) Oxide'
_chemical_formula_structural       'Ca (Fe2 O4)'
_chemical_formula_sum              'Ca1 Fe2 O4'
_publ_section_title                'The structure of calcium ferrite'
loop_
_citation_id
_citation_journal_abbrev
_citation_year
_citation_journal_volume
_citation_page_first
_citation_page_last
_citation_journal_id_ASTM
primary 'Acta Crystallographica (1,1948-23,1967)' 1957 10 332 337 ACCRA9
_publ_author_name                  'Becker, D.F.;Kasper, J.S.'
_cell_length_a                     9.230(12)
_cell_length_b                     3.024(4)
_cell_length_c                     10.705(1)
_cell_angle_alpha                  90.
_cell_angle_beta                   90.
_cell_angle_gamma                  90.
_cell_volume                       298.79
_cell_formula_units_Z              4
_symmetry_space_group_name_H-M     'P n m a'
_symmetry_Int_Tables_number        62
_refine_ls_R_factor_all            .14
loop_
_symmetry_equiv_pos_site_id
_symmetry_equiv_pos_as_xyz
  1	'x+.5, y, -z+.5'
  2	'x, -y+.5, z'
  3	'-x+.5, y+.5, z+.5'
  4	'-x, -y, -z'
  5	'-x+.5, -y, z+.5'
  6	'-x, y+.5, -z'
  7	'x+.5, -y+.5, -z+.5'
  8	'x, y, z'
loop_
_atom_type_symbol
_atom_type_oxidation_number
Ca2+	2
Fe3+	3
O2-	-2
loop_
_atom_site_label
_atom_site_type_symbol
_atom_site_symmetry_multiplicity
_atom_site_Wyckoff_symbol
_atom_site_fract_x
_atom_site_fract_y
_atom_site_fract_z
_atom_site_occupancy
_atom_site_attached_hydrogens
Fe1 Fe3+ 4 c 0.567 0.25 0.61 1. 0 
Fe2 Fe3+ 4 c 0.08 0.25 0.392 1. 0 
Ca1 Ca2+ 4 c 0.244 0.25 0.654 1. 0 
O1 O2- 4 c 0.292 0.25 0.338 1. 0 
O2 O2- 4 c 0.385 0.25 0.023 1. 0 
O3 O2- 4 c 0.479 0.25 0.784 1. 0 
O4 O2- 4 c 0.081 0.25 0.076 1. 0 

#End of data_16695-ICSD


