data_170866-ICSD
#?2014 by Fachinformationszentrum Karlsruhe, and the U.S. Secretary of 
#Commerce on behalf of the United States.  All rights reserved.
_database_code_ICSD                170866
_audit_creation_date               2006/04/01
_chemical_name_systematic
;
Tripotassium Tricopper(I) Dithorium(IV) Heptasulfide
;
_chemical_formula_structural       'K3 Cu3 Th2 S7'
_chemical_formula_sum              'Cu3 K3 S7 Th2'
_publ_section_title
;
Three new phases in the K/Cu/Th/S system: K Cu Th S3, K2 Cu2 Th S4, 
and K3 Cu3 Th2 S7
;
loop_
_citation_id
_citation_journal_abbrev
_citation_year
_citation_journal_volume
_citation_journal_issue
_citation_page_first
_citation_page_last
_citation_journal_id_ASTM
primary 'Inorganic Chemistry' 2005 44 18 6463 6469 INOCAJ
_publ_author_name
;
Selby, H.D.;Chan, B.-C.;Hess, R.F.;Abney, K.D.;Dorhout, P.K.
;
_cell_length_a                     4.051(2)
_cell_length_b                     14.023(8)
_cell_length_c                     24.633(13)
_cell_angle_alpha                  90.00
_cell_angle_beta                   90.00
_cell_angle_gamma                  90.00
_cell_volume                       1399.33
_cell_formula_units_Z              4
_symmetry_space_group_name_H-M     'P b c n'
_symmetry_Int_Tables_number        60
_refine_ls_R_factor_all            .1451
loop_
_symmetry_equiv_pos_site_id
_symmetry_equiv_pos_as_xyz
  1	'x, -y, z+.5'
  2	'-x+.5, y+.5, z'
  3	'x+.5, y+.5, -z+.5'
  4	'-x, -y, -z'
  5	'-x, y, -z+.5'
  6	'x+.5, -y+.5, -z'
  7	'-x+.5, -y+.5, z+.5'
  8	'x, y, z'
loop_
_atom_type_symbol
_atom_type_oxidation_number
Cu1+	1
K1+	1
S2-	-2
Th4+	4
loop_
_atom_site_label
_atom_site_type_symbol
_atom_site_symmetry_multiplicity
_atom_site_Wyckoff_symbol
_atom_site_fract_x
_atom_site_fract_y
_atom_site_fract_z
_atom_site_occupancy
_atom_site_attached_hydrogens
_atom_site_U_iso_or_equiv
Th1 Th4+ 8 d -0.0005(12) 0.69061(6) 0.14214(3) 1 0 0.0059(3) 
Cu1 Cu1+ 4 c 0.5000 0.6595(3) 0.2500 1 0 0.0067(8) 
Cu2 Cu1+ 8 d 0.002(4) 0.7639(2) -0.03761(12) 1 0 0.0097(7) 
K1 K1+ 8 d 0.009(9) 0.9541(4) 0.0615(2) 1 0 0.0135(12) 
K2 K1+ 4 c 1.0000 0.4294(5) 0.2500 1 0 0.0112(15) 
S1 S2- 8 d -0.004(8) 0.6382(4) 0.0328(2) 1 0 0.0093(13) 
S2 S2- 8 d 0.489(6) 0.5647(4) 0.3278(2) 1 0 0.0058(13) 
S3 S2- 4 c 0.0000 0.7542(5) 0.2500 1 0 0.0064(15) 
S4 S2- 8 d 0.005(7) 0.6801(4) -0.1203(3) 1 0 0.0108(13) 

#End of data_170866-ICSD


