data_40945-ICSD
#?2014 by Fachinformationszentrum Karlsruhe, and the U.S. Secretary of 
#Commerce on behalf of the United States.  All rights reserved.
_database_code_ICSD                40945
_audit_creation_date               2000/07/15
_audit_update_record               2009/02/01
_chemical_name_systematic          'Cesium Lithium Chromate - Ii'
_chemical_formula_structural       'Cs Li (Cr O4)'
_chemical_formula_sum              'Cr1 Cs1 Li1 O4'
_publ_section_title
;
Synthesis and crystal-structural investigations of Cs Li Cr O4
;
loop_
_citation_id
_citation_journal_abbrev
_citation_year
_citation_journal_volume
_citation_page_first
_citation_page_last
_citation_journal_id_ASTM
primary Kristallografiya 1989 34 147 153 KRISAJ
2 'Soviet Physics, Crystallography (= Kristallografiya)'
 1989 34 85 89 SPHCA6
3 Kristallografiya 1987 32 1153 1159 KRISAJ
_publ_author_name
;
Klevtsov, P.V.;Perepelitsa, A.P.;Ishchenko, V.N.;Klevtsova, 
R.F.;Glinskaya, L.A.;Kruglik, A.I.;Aleksandrov, K.S.;Simonov, M.A.
;
_cell_length_a                     9.744(2)
_cell_length_b                     5.636(1)
_cell_length_c                     8.946(3)
_cell_angle_alpha                  90.
_cell_angle_beta                   90.
_cell_angle_gamma                  90.45(2)
_cell_volume                       491.27
_cell_formula_units_Z              4
_symmetry_space_group_name_H-M     'P 1 1 21/n'
_symmetry_Int_Tables_number        14
_refine_ls_R_factor_all            .066
loop_
_symmetry_equiv_pos_site_id
_symmetry_equiv_pos_as_xyz
  1	'x+.5, y+.5, -z+.5'
  2	'-x, -y, -z'
  3	'-x+.5, -y+.5, z+.5'
  4	'x, y, z'
loop_
_atom_type_symbol
_atom_type_oxidation_number
Cr6+	6
Cs1+	1
Li1+	1
O2-	-2
loop_
_atom_site_label
_atom_site_type_symbol
_atom_site_symmetry_multiplicity
_atom_site_Wyckoff_symbol
_atom_site_fract_x
_atom_site_fract_y
_atom_site_fract_z
_atom_site_occupancy
_atom_site_attached_hydrogens
_atom_site_B_iso_or_equiv
Cs1 Cs1+ 4 e 0.7794(1) 0.2349(1) 0.0022(1) 1. 0 2.16(2) 
Cr1 Cr6+ 4 e 0.5749(1) 0.7597(1) 0.7906(1) 1. 0 1.12(2) 
Li1 Li1+ 4 e 0.9118(8) 0.7636(14) 0.6848(8) 1. 0 2.75(2) 
O1 O2- 4 e 0.5741(5) 0.7521(7) 0.9721(4) 1. 0 3.23(2) 
O2 O2- 4 e 0.4609(3) 0.9542(6) 0.7342(4) 1. 0 2.8(2) 
O3 O2- 4 e 0.7265(3) 0.8424(7) 0.7303(4) 1. 0 3.23(2) 
O4 O2- 4 e 0.5332(4) 0.4976(5) 0.7235(4) 1. 0 2.75(2) 

#End of data_40945-ICSD


