data_423584-ICSD
#?2014 by Fachinformationszentrum Karlsruhe, and the U.S. Secretary of 
#Commerce on behalf of the United States.  All rights reserved.
_database_code_ICSD                423584
_audit_creation_date               2013/02/01
_chemical_name_systematic          'Potassium Iodate'
_chemical_formula_structural       'K (I O3)'
_chemical_formula_sum              'I1 K1 O3'
_publ_section_title
;
New nonlinear optical potassium iodate K [I O3] and borates K3 [B6 
O10] Br, K Ta [B4 O6 (O H)4] (O H)2 ¨² 1.33 H2 O - Synthesis, 
structures and relation to the properties
;
loop_
_citation_id
_citation_journal_abbrev
_citation_year
_citation_journal_volume
_citation_journal_issue
_citation_page_first
_citation_page_last
_citation_journal_id_ASTM
primary 'Journal of Solid State Chemistry' 2012 195 11 79 85 JSSCBI
_publ_author_name
;
Belokoneva, E.L.;Stefanovich, S.Yu.;Dimitrova, O.V.
;
_cell_length_a                     8.9481(8)
_cell_length_b                     8.9481(8)
_cell_length_c                     8.9481(8)
_cell_angle_alpha                  89.950(10)
_cell_angle_beta                   89.950(10)
_cell_angle_gamma                  89.950(10)
_cell_volume                       716.46
_cell_formula_units_Z              8
_symmetry_space_group_name_H-M     'R 3 R'
_symmetry_Int_Tables_number        146
_refine_ls_R_factor_all            .034
loop_
_symmetry_equiv_pos_site_id
_symmetry_equiv_pos_as_xyz
  1	'z, x, y'
  2	'y, z, x'
  3	'x, y, z'
loop_
_atom_type_symbol
_atom_type_oxidation_number
I5+	5
K1+	1
O2-	-2
loop_
_atom_site_label
_atom_site_type_symbol
_atom_site_symmetry_multiplicity
_atom_site_Wyckoff_symbol
_atom_site_fract_x
_atom_site_fract_y
_atom_site_fract_z
_atom_site_occupancy
_atom_site_attached_hydrogens
_atom_site_U_iso_or_equiv
I1 I5+ 1 a 0.22816(10) 0.22816(10) 0.22816(10) 1 0 0.0146(5) 
I2 I5+ 1 a 0.72812(10) -0.27188(10) 0.72812(10) 1 0 0.0135(5) 
I3 I5+ 3 b 0.23518(10) -0.27178(10) 0.22109(11) 1 0 0.0127(2) 
I4 I5+ 3 b 0.72106(11) -0.26457(10) 0.22821(11) 1 0 0.0143(2) 
K1 K1+ 3 b 0.4734(7) -0.0176(6) 0.4890(6) 1 0 0.0319(11) 
K2 K1+ 3 b -0.0277(7) 0.4821(5) -0.0078(5) 1 0 0.0297(11) 
K3 K1+ 1 a 0.4819(6) -0.5181(6) 0.4819(6) 1 0 0.0250(17) 
K4 K1+ 1 a -0.0183(6) -0.0183(6) -0.0183(6) 1 0 0.038(2) 
O1 O2- 3 b 0.2686(14) -0.2270(14) 0.0271(11) 1 0 0.050(4) 
O2 O2- 3 b 0.5267(11) -0.2230(14) 0.2646(16) 1 0 0.053(4) 
O3 O2- 3 b 0.0322(10) -0.2710(15) 0.2191(12) 1 0 0.049(4) 
O4 O2- 3 b 0.7245(18) -0.4659(11) 0.2186(13) 1 0 0.073(5) 
O5 O2- 3 b 0.2733(12) -0.4673(12) 0.2217(12) 1 0 0.045(3) 
O6 O2- 3 b 0.7278(14) -0.2230(12) 0.0294(10) 1 0 0.055(4) 
O7 O2- 3 b 0.5303(11) -0.2448(12) 0.7211(11) 1 0 0.045(3) 
O8 O2- 3 b 0.0290(11) 0.2815(11) 0.2158(12) 1 0 0.038(3) 

loop_
_atom_site_aniso_label
_atom_site_aniso_type_symbol
_atom_site_aniso_U_11
_atom_site_aniso_U_22
_atom_site_aniso_U_33
_atom_site_aniso_U_12
_atom_site_aniso_U_13
_atom_site_aniso_U_23
I1 I5+ 0.0146(5) 0.0146(5) 0.0146(5) -0.0016(5) -0.0016(5) -0.0016(5)
I2 I5+ 0.0135(5) 0.0135(5) 0.0135(5) 0.0000(5) 0.0000(5) 0.0000(5)
I3 I5+ 0.0122(6) 0.0104(6) 0.0155(7) -0.0003(5) 0.0002(5) -0.0005(5)
I4 I5+ 0.0144(7) 0.0118(6) 0.0169(6) -0.0013(5) -0.0012(5) -0.0024(5)
K1 K1+ 0.040(3) 0.037(3) 0.019(2) 0.002(2) 0.0052(18) 0.0099(19)
K2 K1+ 0.044(3) 0.023(2) 0.022(2) -0.0031(19) 0.0003(18) -0.0062(16)
K3 K1+ 0.0250(17) 0.0250(17) 0.0250(17) 0.0044(17) 0.0044(17) 0.0044(17)
K4 K1+ 0.038(2) 0.038(2) 0.038(2) -0.0104(18) -0.0104(18) -0.0104(18)
O1 O2- 0.077(10) 0.058(8) 0.015(6) -0.043(7) -0.012(6) 0.018(5)
O2 O2- 0.015(6) 0.052(8) 0.093(11) 0.002(6) -0.013(6) -0.053(8)
O3 O2- 0.008(5) 0.100(10) 0.039(6) -0.010(6) -0.006(4) -0.023(6)
O4 O2- 0.180(14) 0.009(6) 0.031(6) -0.021(7) -0.025(7) 0.003(5)
O5 O2- 0.052(8) 0.046(7) 0.036(6) 0.009(6) 0.010(6) -0.015(5)
O6 O2- 0.098(10) 0.065(9) 0.000(4) 0.035(8) 0.012(5) -0.001(5)
O7 O2- 0.006(4) 0.072(8) 0.055(6) -0.002(4) -0.008(4) 0.053(6)
O8 O2- 0.008(5) 0.037(5) 0.069(7) 0.001(4) -0.003(5) -0.013(5)
#End of data_423584-ICSD


