data_249458-ICSD
#?2014 by Fachinformationszentrum Karlsruhe, and the U.S. Secretary of 
#Commerce on behalf of the United States.  All rights reserved.
_database_code_ICSD                249458
_audit_creation_date               2008/08/01
_chemical_name_systematic
;
Pentapotassium Dieuropium Fluoro Tridecaoxotetrasilicate
;
_chemical_formula_structural       'K5 Eu2 F Si4 O13'
_chemical_formula_sum              'Eu2 F1 K5 O13 Si4'
_publ_section_title
;
Flux synthesis, crsytal structure, and luminescence properties of a 
new europium fluoride-silicate: K5 Eu2 F Si4 O13
;
loop_
_citation_id
_citation_journal_abbrev
_citation_year
_citation_journal_volume
_citation_journal_issue
_citation_page_first
_citation_page_last
_citation_journal_id_ASTM
primary 'Inorganic Chemistry' 2007 46 9 3619 3622 INOCAJ
_publ_author_name
;
Chiang Peiyun;Lin Tsaiwei;Dai Jianhung;Chang Borchen;Lii Kwanghwa
;
_cell_length_a                     7.1850(2)
_cell_length_b                     5.7981(2)
_cell_length_c                     18.1675(6)
_cell_angle_alpha                  90.00
_cell_angle_beta                   92.248(2)
_cell_angle_gamma                  90.00
_cell_volume                       756.26
_cell_formula_units_Z              2
_symmetry_space_group_name_H-M     'P 1 21/m 1'
_symmetry_Int_Tables_number        11
_refine_ls_R_factor_all            .0256
loop_
_symmetry_equiv_pos_site_id
_symmetry_equiv_pos_as_xyz
  1	'x, -y+.5, z'
  2	'-x, -y, -z'
  3	'-x, y+.5, -z'
  4	'x, y, z'
loop_
_atom_type_symbol
_atom_type_oxidation_number
Eu3+	3
F1-	-1
K1+	1
O2-	-2
Si4+	4
loop_
_atom_site_label
_atom_site_type_symbol
_atom_site_symmetry_multiplicity
_atom_site_Wyckoff_symbol
_atom_site_fract_x
_atom_site_fract_y
_atom_site_fract_z
_atom_site_occupancy
_atom_site_attached_hydrogens
_atom_site_U_iso_or_equiv
K1 K1+ 2 e 0.5241(2) 0.2500 0.75094(9) 1 0 0.0181(4) 
K2 K1+ 2 e 0.8676(2) 0.7500 0.69533(10) 1 0 0.0210(4) 
K3 K1+ 2 e 0.2041(2) 0.7500 0.81341(10) 1 0 0.0176(4) 
K4 K1+ 2 e 0.8091(3) 0.2500 0.99775(11) 1 0 0.0246(4) 
K5 K1+ 2 e 0.7466(3) 0.7500 0.49089(12) 1 0 0.0358(5) 
Eu1 Eu3+ 2 e 0.66610(5) 0.7500 0.89039(2) 1 0 0.00818(12) 
Eu2 Eu3+ 2 e 0.40176(5) 0.7500 0.62938(2) 1 0 0.00803(12) 
Si1 Si4+ 2 e 0.6685(3) 0.7500 0.08425(11) 1 0 0.0087(4) 
Si2 Si4+ 2 e 0.9596(3) 0.2500 0.82647(11) 1 0 0.0089(4) 
Si3 Si4+ 2 e 0.0807(3) 0.2500 0.66988(11) 1 0 0.0075(4) 
Si4 Si4+ 2 e 0.2855(3) 0.7500 0.42312(11) 1 0 0.0072(4) 
F1 F1- 2 e 0.5395(6) 0.7500 0.7573(2) 1 0 0.0153(9) 
O1 O2- 4 f 0.5502(6) 0.5192(7) 0.0944(2) 1 0 0.0309(10) 
O2 O2- 2 e 0.7820(7) 0.7500 0.0084(3) 1 0 0.0144(11) 
O3 O2- 2 e 0.8158(7) 0.7500 0.1573(3) 1 0 0.0158(12) 
O4 O2- 4 f 0.8723(6) 0.4825(7) 0.8548(2) 1 0 0.0338(11) 
O5 O2- 2 e 0.9317(7) 0.2500 0.7363(3) 1 0 0.0151(12) 
O6 O2- 4 f 0.2022(5) 0.4800(6) 0.6726(2) 1 0 0.0176(8) 
O7 O2- 2 e -0.0564(7) 0.2500 0.5951(3) 1 0 0.0162(12) 
O8 O2- 4 f 0.3729(5) 0.5195(5) 0.38901(19) 1 0 0.0153(8) 
O9 O2- 2 e 0.3062(7) 0.7500 0.5115(3) 1 0 0.0168(12) 

loop_
_atom_site_aniso_label
_atom_site_aniso_type_symbol
_atom_site_aniso_U_11
_atom_site_aniso_U_22
_atom_site_aniso_U_33
_atom_site_aniso_U_12
_atom_site_aniso_U_13
_atom_site_aniso_U_23
K1 K1+ 0.0157(9) 0.0212(8) 0.0176(10) 0.000 0.0022(7) 0.000
K2 K1+ 0.0131(9) 0.0188(7) 0.0309(11) 0.000 -0.0016(8) 0.000
K3 K1+ 0.0140(9) 0.0209(7) 0.0180(10) 0.000 0.0003(7) 0.000
K4 K1+ 0.0373(12) 0.0167(8) 0.0205(10) 0.000 0.0101(9) 0.000
K5 K1+ 0.0586(15) 0.0205(8) 0.0305(12) 0.000 0.0276(11) 0.000
Eu1 Eu3+ 0.0079(2) 0.00766(17) 0.0091(2) 0.000 0.00161(15) 0.000
Eu2 Eu3+ 0.0085(2) 0.00843(17) 0.0072(2) 0.000 0.00049(15) 0.000
Si1 Si4+ 0.0085(10) 0.0112(8) 0.0062(11) 0.000 -0.0001(8) 0.000
Si2 Si4+ 0.0082(10) 0.0124(8) 0.0062(10) 0.000 0.0014(8) 0.000
Si3 Si4+ 0.0066(10) 0.0098(8) 0.0063(10) 0.000 0.0009(8) 0.000
Si4 Si4+ 0.0059(10) 0.0094(8) 0.0063(10) 0.000 -0.0012(8) 0.000
F1 F1- 0.013(2) 0.021(2) 0.011(2) 0.000 0.0023(18) 0.000
O1 O2- 0.038(3) 0.039(2) 0.016(2) -0.030(2) 0.0003(19) 0.0014(19)
O2 O2- 0.014(3) 0.021(2) 0.008(3) 0.000 0.002(2) 0.000
O3 O2- 0.008(3) 0.031(3) 0.008(3) 0.000 -0.002(2) 0.000
O4 O2- 0.034(3) 0.035(2) 0.032(3) 0.025(2) -0.001(2) -0.014(2)
O5 O2- 0.010(3) 0.031(3) 0.005(3) 0.000 0.001(2) 0.000
O6 O2- 0.017(2) 0.0155(16) 0.021(2) -0.0069(15) -0.0002(17) 0.0038(15)
O7 O2- 0.008(3) 0.035(3) 0.005(3) 0.000 0.002(2) 0.000
O8 O2- 0.0158(19) 0.0136(15) 0.016(2) 0.0055(15) -0.0009(16) -0.0002(15)
O9 O2- 0.019(3) 0.023(3) 0.008(3) 0.000 -0.006(2) 0.000
#End of data_249458-ICSD


