data_26445-ICSD
#?2014 by Fachinformationszentrum Karlsruhe, and the U.S. Secretary of 
#Commerce on behalf of the United States.  All rights reserved.
_database_code_ICSD                26445
_audit_creation_date               1981/12/31
_chemical_name_systematic          'Sodium Triselenoferrate(III)'
_chemical_formula_structural       'Na3 Fe Se3'
_chemical_formula_sum              'Fe1 Na3 Se3'
_publ_section_title
;
Darstellung und Kristallstruktur von Na3 Fe Se3
;
loop_
_citation_id
_citation_journal_abbrev
_citation_year
_citation_journal_volume
_citation_page_first
_citation_page_last
_citation_journal_id_ASTM
primary
;
Zeitschrift fuer Naturforschung, Teil B. Anorganische Chemie, 
Organische Chemie (33,1978-41,1986)
;
 1981 36 646 648 ZNBAD2
_publ_author_name                  'Mueller, P.;Bronger, W.'
_cell_length_a                     7.452(3)
_cell_length_b                     7.176(3)
_cell_length_c                     13.081(6)
_cell_angle_alpha                  90.
_cell_angle_beta                   90.5(1)
_cell_angle_gamma                  90.
_cell_volume                       699.49
_cell_formula_units_Z              4
_symmetry_space_group_name_H-M     'P 1 21/n 1'
_symmetry_Int_Tables_number        14
_refine_ls_R_factor_all            .073
loop_
_symmetry_equiv_pos_site_id
_symmetry_equiv_pos_as_xyz
  1	'-x+.5, y+.5, -z+.5'
  2	'-x, -y, -z'
  3	'x+.5, -y+.5, z+.5'
  4	'x, y, z'
loop_
_atom_type_symbol
_atom_type_oxidation_number
Fe3+	3
Na1+	1
Se2-	-2
loop_
_atom_site_label
_atom_site_type_symbol
_atom_site_symmetry_multiplicity
_atom_site_Wyckoff_symbol
_atom_site_fract_x
_atom_site_fract_y
_atom_site_fract_z
_atom_site_occupancy
_atom_site_attached_hydrogens
Fe1 Fe3+ 4 e 0.5774(3) 0.1313(4) 0.0765(2) 1. 0 
Se1 Se2- 4 e 0.9146(3) 0.2952(3) 0.4249(1) 1. 0 
Se2 Se2- 4 e 0.0731(2) 0.7292(3) 0.2740(1) 1. 0 
Se3 Se2- 4 e 0.8740(2) 0.2496(3) 0.0736(1) 1. 0 
Na1 Na1+ 4 e 0.728(1) 0.512(1) 0.2199(6) 1. 0 
Na2 Na1+ 4 e 0.341(1) 0.489(1) 0.3866(6) 1. 0 
Na3 Na1+ 4 e 0.213(1) 0.488(1) 0.0962(7) 1. 0 

loop_
_atom_site_aniso_label
_atom_site_aniso_type_symbol
_atom_site_aniso_U_11
_atom_site_aniso_U_22
_atom_site_aniso_U_33
_atom_site_aniso_U_12
_atom_site_aniso_U_13
_atom_site_aniso_U_23
Fe1 Fe3+ 0.015(1) 0.0139(1) 0.0094(9) 0.000(1) -.0060(8) -.0007(9)
Se1 Se2- 0.0342(9) 0.0118(7) 0.0169(7) -.0036(7) -.0167(6) -.0013(6)
Se2 Se2- 0.0194(7) 0.0179(8) 0.0116(6) -.0006(7) -.0026(6) -.0028(7)
Se3 Se2- 0.0145(6) 0.0175(7) 0.0207(7) -.0019(7) -.0056(6) -.0021(7)
Na1 Na1+ 0.041(4) 0.018(4) 0.023(3) -.004(4) -.016(3) -.004(3)
Na2 Na1+ 0.027(4) 0.023(4) 0.022(3) 0.001(3) -.004(3) -.002(3)
Na3 Na1+ 0.042(5) 0.023(4) 0.033(4) 0.006(1) -.015(4) 0.005(4)
#End of data_26445-ICSD


