data_20148-ICSD
#?2014 by Fachinformationszentrum Karlsruhe, and the U.S. Secretary of 
#Commerce on behalf of the United States.  All rights reserved.
_database_code_ICSD                20148
_audit_creation_date               1981/12/31
_audit_update_record               2012/02/01
_chemical_name_systematic
;
Hexacalcium Disilicate Silicate Dihydroxide - Gamma
;
_chemical_formula_structural       'Ca6 (Si2 O7) (Si O4) (O H)2'
_chemical_formula_sum              'H2 Ca6 O13 Si3'
_chemical_name_mineral             Dellaite
_publ_section_title
;
The refinement of the crystal structure of the cement phase gamma-C6 
S3 H
;
loop_
_citation_id
_citation_journal_abbrev
_citation_year
_citation_journal_volume
_citation_page_first
_citation_page_last
_citation_journal_id_ASTM
primary 'Doklady Akademii Nauk SSSR' 1981 256 1387 1389 DANKAS
2 'Doklady Akademii Nauk SSSR' 1970 190 831 834 DANKAS
_publ_author_name
;
Safronov, A.N.;Nevskii, N.N.;Ilyukhin, V.V.;Belov, N.V.
;
_cell_length_a                     6.825(2)
_cell_length_b                     6.931(1)
_cell_length_c                     12.907(5)
_cell_angle_alpha                  90.68(2)
_cell_angle_beta                   97.57(3)
_cell_angle_gamma                  98.18(2)
_cell_volume                       598.78
_cell_formula_units_Z              2
_symmetry_space_group_name_H-M     'P -1'
_symmetry_Int_Tables_number        2
_refine_ls_R_factor_all            .026
loop_
_symmetry_equiv_pos_site_id
_symmetry_equiv_pos_as_xyz
  1	'-x, -y, -z'
  2	'x, y, z'
loop_
_atom_type_symbol
_atom_type_oxidation_number
Ca2+	2
H1+	1
O2-	-2
Si4+	4
loop_
_atom_site_label
_atom_site_type_symbol
_atom_site_symmetry_multiplicity
_atom_site_Wyckoff_symbol
_atom_site_fract_x
_atom_site_fract_y
_atom_site_fract_z
_atom_site_occupancy
_atom_site_attached_hydrogens
_atom_site_B_iso_or_equiv
Ca1 Ca2+ 2 i 0.0823(1) 0.1931(1) 0.1036(1) 1. 0 0.76(1) 
Ca2 Ca2+ 2 i 0.1923(1) 0.2062(1) 0.4897(1) 1. 0 0.62(1) 
Ca3 Ca2+ 2 i 0.8947(1) 0.4658(1) 0.2913(1) 1. 0 0.63(1) 
Ca4 Ca2+ 2 i 0.5597(1) 0.0333(1) 0.3211(1) 1. 0 0.91(1) 
Ca5 Ca2+ 2 i 0.3145(1) 0.1926(1) 0.8758(1) 1. 0 0.64(1) 
Ca6 Ca2+ 2 i 0.5919(1) 0.4761(1) 0.7026(1) 1. 0 0.56(1) 
Si1 Si4+ 2 i 0.6160(1) 0.2884(1) 0.0978(1) 1. 0 0.39(1) 
Si2 Si4+ 2 i 0.8105(1) 0.2859(1) 0.8857(1) 1. 0 0.40(1) 
Si3 Si4+ 2 i 0.7156(1) 0.2983(1) 0.5090(1) 1. 0 0.37(1) 
O1 O2- 2 i 0.6164(3) 0.4863(2) 0.1656(1) 1. 0 0.63(4) 
O2 O2- 2 i 0.3940(3) 0.1867(3) 0.0539(1) 1. 0 1.13(5) 
O3 O2- 2 i 0.6173(3) 0.1824(3) 0.8074(1) 1. 0 1.06(4) 
O4 O2- 2 i 0.7477(3) 0.1522(3) 0.1747(1) 1. 0 0.86(4) 
O5 O2- 2 i 0.9860(3) 0.1517(3) 0.9128(1) 1. 0 0.90(4) 
O6 O2- 2 i 0.2288(3) 0.1663(3) 0.2997(2) 1. 0 1.45(5) 
O7 O2- 2 i 0.8482(3) 0.1286(3) 0.4833(2) 1. 0 1.07(4) 
O8 O2- 2 i 0.1901(3) 0.2082(3) 0.6863(1) 1. 0 1.06(4) 
O9 O2- 2 i 0.5233(3) 0.2157(3) 0.5663(1) 1. 0 0.75(4) 
O10 O2- 2 i 0.7450(3) 0.3403(3) 0.9998(1) 1. 0 1.30(5) 
O11 O2- 2 i 0.6414(3) 0.3684(3) 0.3914(1) 1. 0 0.83(4) 
O12 O2- 2 i 0.8340(3) 0.4837(2) 0.5817(1) 1. 0 0.71(4) 
O13 O2- 2 i 0.1159(3) 0.5120(2) 0.1694(1) 1. 0 0.71(4) 
H1 H1+ 2 i 0.1996(60) 0.0501(59) 0.2863(32) 1. 0 2.31(81) 
H2 H1+ 2 i 0.0744(44) 0.1300(42) 0.6818(23) 1. 0 2.72(50) 

#End of data_20148-ICSD


