data_188009-ICSD
#?2014 by Fachinformationszentrum Karlsruhe, and the U.S. Secretary of 
#Commerce on behalf of the United States.  All rights reserved.
_database_code_ICSD                188009
_audit_creation_date               2013/08/01
_chemical_name_systematic          'Dilithium Disulfate'
_chemical_formula_structural       'Li2 (S2 O7)'
_chemical_formula_sum              'Li2 O7 S2'
_publ_section_title
;
Crystal structure of lithium  disulfate, Li2 (S2 O7), Li2 O7 S2
;
loop_
_citation_id
_citation_journal_abbrev
_citation_year
_citation_journal_volume
_citation_journal_issue
_citation_page_first
_citation_page_last
_citation_journal_id_ASTM
primary 'Zeitschrift fuer Kristallographie - New Crystal Structures'
 2013 228 2 159 160 ZKNSFT
_publ_author_name
;
Logemann, C.;Witt, J.;Wickleder, M.S.
;
_cell_length_a                     13.177(2)
_cell_length_b                     8.2516(7)
_cell_length_c                     4.8547(4)
_cell_angle_alpha                  90.
_cell_angle_beta                   90.
_cell_angle_gamma                  90.
_cell_volume                       527.86
_cell_formula_units_Z              4
_symmetry_space_group_name_H-M     'P n m a'
_symmetry_Int_Tables_number        62
_refine_ls_R_factor_all            .0338
loop_
_symmetry_equiv_pos_site_id
_symmetry_equiv_pos_as_xyz
  1	'x+.5, y, -z+.5'
  2	'x, -y+.5, z'
  3	'-x+.5, y+.5, z+.5'
  4	'-x, -y, -z'
  5	'-x+.5, -y, z+.5'
  6	'-x, y+.5, -z'
  7	'x+.5, -y+.5, -z+.5'
  8	'x, y, z'
loop_
_atom_type_symbol
_atom_type_oxidation_number
Li1+	1
O2-	-2
S6+	6
loop_
_atom_site_label
_atom_site_type_symbol
_atom_site_symmetry_multiplicity
_atom_site_Wyckoff_symbol
_atom_site_fract_x
_atom_site_fract_y
_atom_site_fract_z
_atom_site_occupancy
_atom_site_attached_hydrogens
S1 S6+ 4 c -0.21600(4) -0.75 -0.2787(1) 1. 0 
S2 S6+ 4 c 0.99614(4) 0.25 0.6139(1) 1. 0 
O1 O2- 8 d -0.2061(1) -0.6027(2) -0.1231(3) 1. 0 
O2 O2- 4 c -0.3002(1) -0.75 -0.4715(4) 1. 0 
O3 O2- 4 c -0.1188(1) -0.75 -0.4986(3) 1. 0 
O4 O2- 8 d 0.0079(1) -0.6027(2) -0.2254(3) 1. 0 
O5 O2- 4 c 0.0546(1) -0.75 -0.6393(4) 1. 0 
Li1 Li1+ 8 d 0.8955(3) 0.5683(4) 0.8990(6) 1. 0 

loop_
_atom_site_aniso_label
_atom_site_aniso_type_symbol
_atom_site_aniso_U_11
_atom_site_aniso_U_22
_atom_site_aniso_U_33
_atom_site_aniso_U_12
_atom_site_aniso_U_13
_atom_site_aniso_U_23
S1 S6+ 0.0137(4) 0.0143(5) 0.0164(4) 0. -0.0003(2) 0.
S2 S6+ 0.0138(4) 0.0136(5) 0.0133(4) 0. -0.0001(2) 0.
O1 O2- 0.0189(7) 0.0186(9) 0.0218(7) -0.0011(5) 0.0013(4) -0.0054(5)
O2 O2- 0.0155(8) 0.016(1) 0.0223(9) 0. -0.0035(7) 0.
O3 O2- 0.0140(8) 0.018(1) 0.0152(9) 0. -0.0003(7) 0.
O4 O2- 0.0172(6) 0.0149(9) 0.0171(6) 0.0005(5) -0.0012(4) -0.0017(5)
O5 O2- 0.0181(8) 0.018(1) 0.0160(8) 0. 0.0026(7) 0.
Li1 Li1+ 0.020(2) 0.020(2) 0.022(2) -0.001(1) 0.000(1) -0.001(1)
#End of data_188009-ICSD


