data_74716-ICSD
#?2014 by Fachinformationszentrum Karlsruhe, and the U.S. Secretary of 
#Commerce on behalf of the United States.  All rights reserved.
_database_code_ICSD                74716
_audit_creation_date               1995/10/17
_chemical_name_systematic
;
Dipotassium Neodymium Catena-phosphate
;
_chemical_formula_structural       'K2 Nd (P O3)5'
_chemical_formula_sum              'K2 Nd1 O15 P5'
_publ_section_title
;
Preparation, structure and properties of potassium neodymium 
polyphosphate, K2Nd(PO3)5
;
loop_
_citation_id
_citation_journal_abbrev
_citation_year
_citation_journal_volume
_citation_page_first
_citation_page_last
_citation_journal_id_ASTM
primary 'Zhurnal Neorganicheskoi Khimii' 1989 34 1175 1179 ZNOKAQ
_publ_author_name
;
Palkina, K.K.;Sazhenkov, A.Yu.;Maksimova, S.I.;Chibiskova, 
N.T.;Masloboev, V.A.
;
_cell_length_a                     8.430(1)
_cell_length_b                     11.752(2)
_cell_length_c                     13.272(2)
_cell_angle_alpha                  90.
_cell_angle_beta                   90.68(1)
_cell_angle_gamma                  90.
_cell_volume                       1314.76
_cell_formula_units_Z              4
_symmetry_space_group_name_H-M     'C 1 c 1'
_symmetry_Int_Tables_number        9
_refine_ls_R_factor_all            .023
loop_
_symmetry_equiv_pos_site_id
_symmetry_equiv_pos_as_xyz
  1	'x, -y, z+.5'
  2	'x, y, z'
  3	'x+.5, -y+.5, z+.5'
  4	'x+.5, y+.5, z'
loop_
_atom_type_symbol
_atom_type_oxidation_number
K1+	1
Nd3+	3
O2-	-2
P5+	5
loop_
_atom_site_label
_atom_site_type_symbol
_atom_site_symmetry_multiplicity
_atom_site_Wyckoff_symbol
_atom_site_fract_x
_atom_site_fract_y
_atom_site_fract_z
_atom_site_occupancy
_atom_site_attached_hydrogens
_atom_site_B_iso_or_equiv
Nd1 Nd3+ 4 a 0 0.09554(2) 0.25 1. 0 0.60(1) 
K1 K1+ 4 a 0.1776(2) 0.3816(1) 0.0567(2) 1. 0 1.94(6) 
K2 K1+ 4 a 0.5065(3) 0.1942(1) 0.2540(2) 1. 0 2.10(5) 
P1 P5+ 4 a 0.8211(2) 0.3757(1) 0.3417(1) 1. 0 0.74(5) 
P2 P5+ 4 a 0.1659(2) 0.3964(1) 0.3261(1) 1. 0 0.76(4) 
P3 P5+ 4 a 0.8060(2) 0.1967(1) 0.0093(1) 1. 0 0.96(5) 
P4 P5+ 4 a 0.5751(2) 0.3894(1) 0.0302(1) 1. 0 0.75(5) 
P5 P5+ 4 a 0.3112(2) 0.0754(1) 0.0587(1) 1. 0 0.78(5) 
O1 O2- 4 a 0.8113(6) 0.3460(4) 0.4580(3) 1. 0 1.1(2) 
O2 O2- 4 a 0.6480(6) 0.2634(4) 0.0392(4) 1. 0 1.8(2) 
O3 O2- 4 a 0.2263(6) 0.4017(3) 0.4387(3) 1. 0 1.4(2) 
O4 O2- 4 a 0.2321(6) 0.0378(4) 0.5170(3) 1. 0 1.4(2) 
O5 O2- 4 a -.0129(5) 0.4432(3) 0.3355(4) 1. 0 1.2(1) 
O6 O2- 4 a 0.8248(5) 0.2620(3) 0.2883(3) 1. 0 1.2(2) 
O7 O2- 4 a 0.2059(6) 0.1370(4) 0.1304(3) 1. 0 1.3(2) 
O8 O2- 4 a 0.6977(5) 0.4615(4) 0.3110(4) 1. 0 1.5(2) 
O9 O2- 4 a 0.4985(5) 0.4142(4) 0.1284(3) 1. 0 1.3(2) 
O10 O2- 4 a 0.4194(6) 0.2334(4) 0.4528(4) 1. 0 1.7(2) 
O11 O2- 4 a 0.9788(6) 0.1023(4) 0.4350(3) 1. 0 1.6(2) 
O12 O2- 4 a 0.7536(6) -.0124(4) 0.2707(3) 1. 0 1.5(2) 
O13 O2- 4 a 0.4742(6) 0.0487(4) 0.0922(4) 1. 0 1.7(2) 
O14 O2- 4 a 0.1655(5) 0.2747(4) 0.2881(3) 1. 0 1.4(2) 
O15 O2- 4 a 0.8551(7) 0.1348(4) 0.1032(4) 1. 0 1.9(2) 

#End of data_74716-ICSD


