data_44110-ICSD
#?2014 by Fachinformationszentrum Karlsruhe, and the U.S. Secretary of 
#Commerce on behalf of the United States.  All rights reserved.
_database_code_ICSD                44110
_audit_creation_date               2000/07/15
_audit_update_record               2003/04/01
_chemical_name_systematic          'Magnesium Carbon Nitride'
_chemical_formula_structural       'Mg C N2'
_chemical_formula_sum              'C1 Mg1 N2'
_publ_section_title
;
Electronic structure of wide-band-gap ternary pnictides with the 
calcopyrite structure
;
loop_
_citation_id
_citation_journal_abbrev
_citation_year
_citation_journal_volume
_citation_journal_issue
_citation_page_first
_citation_page_last
_citation_journal_id_ASTM
primary 'Physical Review, Serie 3. B - Condensed Matter (18,1978-)'
 1994 49 7 4549 4558 PRBMDO
_publ_author_name
;
Petukhov, A.G.;Lambrecht, W.R.L.;Segall, B.
;
_cell_length_a                     4.11
_cell_length_b                     4.11
_cell_length_c                     7.562
_cell_angle_alpha                  90.
_cell_angle_beta                   90.
_cell_angle_gamma                  90.
_cell_volume                       127.74
_cell_formula_units_Z              4
_symmetry_space_group_name_H-M     'I -4 2 d'
_symmetry_Int_Tables_number        122
loop_
_symmetry_equiv_pos_site_id
_symmetry_equiv_pos_as_xyz
  1	'-y, -x+.5, z+.25'
  2	'y, -x, -z'
  3	'y, x+.5, z+.25'
  4	'-y, x, -z'
  5	'x, -y+.5, -z+.25'
  6	'-x, -y, z'
  7	'-x, y+.5, -z+.25'
  8	'x, y, z'
  9	'-y+.5, -x, z+.75'
 10	'y+.5, -x+.5, -z+.5'
 11	'y+.5, x, z+.75'
 12	'-y+.5, x+.5, -z+.5'
 13	'x+.5, -y, -z+.75'
 14	'-x+.5, -y+.5, z+.5'
 15	'-x+.5, y, -z+.75'
 16	'x+.5, y+.5, z+.5'
loop_
_atom_type_symbol
_atom_type_oxidation_number
C4+	4
Mg2+	2
N3-	-3
loop_
_atom_site_label
_atom_site_type_symbol
_atom_site_symmetry_multiplicity
_atom_site_Wyckoff_symbol
_atom_site_fract_x
_atom_site_fract_y
_atom_site_fract_z
_atom_site_occupancy
_atom_site_attached_hydrogens
Mg1 Mg2+ 4 a 0 0 0 1. 0 
C1 C4+ 4 b 0 0 0.5 1. 0 
N1 N3- 8 d 0.32 0.25 0.125 1. 0 

#End of data_44110-ICSD


