data_100482-ICSD
#?2014 by Fachinformationszentrum Karlsruhe, and the U.S. Secretary of 
#Commerce on behalf of the United States.  All rights reserved.
_database_code_ICSD                100482
_audit_creation_date               1980/12/31
_audit_update_record               1998/06/26
_chemical_name_systematic          'Disodium Magnesium Carbonate'
_chemical_formula_structural       'Na2 Mg (C O3)2'
_chemical_formula_sum              'C2 Mg1 Na2 O6'
_chemical_name_mineral             Eitelite
_publ_section_title
;
Crystal structure refinements of Buetschliite and Eitelite: a 
contribution to the stereochemistry of trigonal carbonate minerals
;
loop_
_citation_id
_citation_journal_abbrev
_citation_year
_citation_journal_volume
_citation_page_first
_citation_page_last
_citation_journal_id_ASTM
primary 'Neues Jahrbuch fuer Mineralogie. Monatshefte (Band=Jahr) (1950-)'
 1980 1980 230 236 NJMMAW
_publ_author_name
;
Knobloch, D.;Pertlik, F.;Zemann, J.
;
_cell_length_a                     4.946(2)
_cell_length_b                     4.946(2)
_cell_length_c                     16.422(4)
_cell_angle_alpha                  90.
_cell_angle_beta                   90.
_cell_angle_gamma                  120.
_cell_volume                       347.91
_cell_formula_units_Z              3
_symmetry_space_group_name_H-M     'R -3 H'
_symmetry_Int_Tables_number        148
_refine_ls_R_factor_all            .045
loop_
_symmetry_equiv_pos_site_id
_symmetry_equiv_pos_as_xyz
  1	'x-y, x, -z'
  2	'y, -x+y, -z'
  3	'-x, -y, -z'
  4	'-x+y, -x, z'
  5	'-y, x-y, z'
  6	'x, y, z'
  7	'x-y+.6666, x+.3333, -z+.3333'
  8	'x-y+.3333, x+.6666, -z+.6666'
  9	'y+.6666, -x+y+.3333, -z+.3333'
 10	'y+.3333, -x+y+.6666, -z+.6666'
 11	'-x+.6666, -y+.3333, -z+.3333'
 12	'-x+.3333, -y+.6666, -z+.6666'
 13	'-x+y+.6666, -x+.3333, z+.3333'
 14	'-x+y+.3333, -x+.6666, z+.6666'
 15	'-y+.6666, x-y+.3333, z+.3333'
 16	'-y+.3333, x-y+.6666, z+.6666'
 17	'x+.6666, y+.3333, z+.3333'
 18	'x+.3333, y+.6666, z+.6666'
loop_
_atom_type_symbol
_atom_type_oxidation_number
C4+	4
Mg2+	2
Na1+	1
O2-	-2
loop_
_atom_site_label
_atom_site_type_symbol
_atom_site_symmetry_multiplicity
_atom_site_Wyckoff_symbol
_atom_site_fract_x
_atom_site_fract_y
_atom_site_fract_z
_atom_site_occupancy
_atom_site_attached_hydrogens
Na1 Na1+ 6 c 0 0 0.20144(10) 1. 0 
Mg1 Mg2+ 3 a 0 0 0 1. 0 
C1 C4+ 6 c 0 0 0.59049(19) 1. 0 
O1 O2- 18 f 0.21004(35) 0.91957(35) 0.58941(10) 1. 0 

#End of data_100482-ICSD


