data_14355-ICSD
#?2014 by Fachinformationszentrum Karlsruhe, and the U.S. Secretary of 
#Commerce on behalf of the United States.  All rights reserved.
_database_code_ICSD                14355
_audit_creation_date               1980/01/01
_audit_update_record               2012/02/01
_chemical_name_systematic          'Disodium Tecto-octaborate'
_chemical_formula_structural       'Na2 B8 O13'
_chemical_formula_sum              'B8 Na2 O13'
_publ_section_title
;
The crystal structure of sodium tetraborate
;
loop_
_citation_id
_citation_journal_abbrev
_citation_year
_citation_journal_volume
_citation_page_first
_citation_page_last
_citation_journal_id_ASTM
primary 'Acta Crystallographica (1,1948-23,1967)' 1967 22 815 821 ACCRA9
_publ_author_name
;
Hyman, A.;Perloff, A.;Mauer, F.;Block, S.
;
_cell_length_a                     6.507(1)
_cell_length_b                     17.796(2)
_cell_length_c                     8.377(1)
_cell_angle_alpha                  90.
_cell_angle_beta                   96.57(3)
_cell_angle_gamma                  90.
_cell_volume                       963.67
_cell_formula_units_Z              4
_symmetry_space_group_name_H-M     'P 1 21/a 1'
_symmetry_Int_Tables_number        14
_refine_ls_R_factor_all            .089
loop_
_symmetry_equiv_pos_site_id
_symmetry_equiv_pos_as_xyz
  1	'x+.5, -y+.5, z'
  2	'-x, -y, -z'
  3	'-x+.5, y+.5, -z'
  4	'x, y, z'
loop_
_atom_type_symbol
_atom_type_oxidation_number
B3+	3
Na1+	1
O2-	-2
loop_
_atom_site_label
_atom_site_type_symbol
_atom_site_symmetry_multiplicity
_atom_site_Wyckoff_symbol
_atom_site_fract_x
_atom_site_fract_y
_atom_site_fract_z
_atom_site_occupancy
_atom_site_attached_hydrogens
_atom_site_B_iso_or_equiv
Na1 Na1+ 4 e 0.40913(32) 0.36344(12) 0.02913(25) 1. 0 1.492 
Na2 Na1+ 4 e 0.04214(32) 0.40039(11) 0.57361(25) 1. 0 1.396 
O1 O2- 4 e 0.28617(48) 0.56295(18) 0.85698(37) 1. 0 0.87 
O2 O2- 4 e 0.62003(51) 0.53402(18) 0.81618(39) 1. 0 0.994 
O3 O2- 4 e 0.95484(47) 0.52147(18) 0.72816(37) 1. 0 0.791 
O4 O2- 4 e 0.71036(48) 0.42652(18) 0.67233(37) 1. 0 0.862 
O5 O2- 4 e 0.36111(49) 0.44174(18) 0.74677(37) 1. 0 0.901 
O6 O2- 4 e 0.41744(49) 0.36845(18) 0.52297(39) 1. 0 0.915 
O7 O2- 4 e 0.51672(50) 0.24090(18) 0.57164(39) 1. 0 1.008 
O8 O2- 4 e 0.54274(47) 0.18998(18) 0.82597(37) 1. 0 0.794 
O9 O2- 4 e 0.53633(48) 0.32488(18) 0.79325(37) 1. 0 0.835 
O10 O2- 4 e 0.39526(53) 0.28356(19) 0.30888(40) 1. 0 1.131 
O11 O2- 4 e 0.40497(49) 0.22939(18) 0.06349(38) 1. 0 0.904 
O12 O2- 4 e 0.51686(48) 0.10347(17) 0.03420(37) 1. 0 0.812 
O13 O2- 4 e 0.43583(47) 0.14858(17) 0.29426(36) 1. 0 0.808 
B1 B3+ 4 e 0.41418(71) 0.51139(26) 0.80289(54) 1. 0 0.771 
B2 B3+ 4 e 0.76351(73) 0.49430(27) 0.74188(56) 1. 0 0.87 
B3 B3+ 4 e 0.51060(69) 0.39208(26) 0.68252(53) 1. 0 0.676 
B4 B3+ 4 e 0.44396(73) 0.29906(27) 0.46961(57) 1. 0 0.888 
B5 B3+ 4 e 0.53140(69) 0.25489(25) 0.73447(54) 1. 0 0.691 
B6 B3+ 4 e 0.41239(71) 0.21720(26) 0.22871(54) 1. 0 0.745 
B7 B3+ 4 e 0.48233(70) 0.17267(25) 0.97369(54) 1. 0 0.739 
B8 B3+ 4 e 0.43147(66) 0.08211(25) 0.18553(52) 1. 0 0.588 

#End of data_14355-ICSD


