data_202889-ICSD
#?2014 by Fachinformationszentrum Karlsruhe, and the U.S. Secretary of 
#Commerce on behalf of the United States.  All rights reserved.
_database_code_ICSD                202889
_audit_creation_date               1990/06/08
_audit_update_record               2013/02/01
_chemical_name_systematic          'Sodium Uranate(V)'
_chemical_formula_structural       'Na U O3'
_chemical_formula_sum              'Na1 O3 U1'
_publ_section_title
;
A Structural Study of the Sodium (V) Uranate, Na U O3, by Time-of-
Flight Powder Neutron Diffraction
;
loop_
_citation_id
_citation_journal_abbrev
_citation_year
_citation_journal_volume
_citation_page_first
_citation_page_last
_citation_journal_id_ASTM
primary 'Journal of Solid State Chemistry' 1989 78 256 261 JSSCBI
_publ_author_name
;
Chippindale, A.M.;Dickens, P.G.;Harrison, W.T.A.
;
_cell_length_a                     5.779(4)
_cell_length_b                     5.907(3)
_cell_length_c                     8.283(4)
_cell_angle_alpha                  90.
_cell_angle_beta                   90.
_cell_angle_gamma                  90.
_cell_volume                       282.75
_cell_formula_units_Z              4
_symmetry_space_group_name_H-M     'P b n m'
_symmetry_Int_Tables_number        62
_refine_ls_R_factor_all            .0804
loop_
_symmetry_equiv_pos_site_id
_symmetry_equiv_pos_as_xyz
  1	'-x+.5, y+.5, z'
  2	'x, y, -z+.5'
  3	'x+.5, -y+.5, z+.5'
  4	'-x, -y, -z'
  5	'x+.5, -y+.5, -z'
  6	'-x, -y, z+.5'
  7	'-x+.5, y+.5, -z+.5'
  8	'x, y, z'
loop_
_atom_type_symbol
_atom_type_oxidation_number
Na1+	1
O2-	-2
U5+	5
loop_
_atom_site_label
_atom_site_type_symbol
_atom_site_symmetry_multiplicity
_atom_site_Wyckoff_symbol
_atom_site_fract_x
_atom_site_fract_y
_atom_site_fract_z
_atom_site_occupancy
_atom_site_attached_hydrogens
_atom_site_B_iso_or_equiv
Na1 Na1+ 4 c -.0058(9) 0.0287(6) 0.25 1. 0 1.13(5) 
U1 U5+ 4 b 0.5 0 0 1. 0 0.10(1) 
O1 O2- 4 c 0.0967(4) 0.4692(4) 0.25 1. 0 0.44(4) 
O2 O2- 8 d 0.6989(3) 0.2997(3) 0.0503(2) 1. 0 0.58(2) 

#End of data_202889-ICSD


