data_418802-ICSD
#?2014 by Fachinformationszentrum Karlsruhe, and the U.S. Secretary of 
#Commerce on behalf of the United States.  All rights reserved.
_database_code_ICSD                418802
_audit_creation_date               2008/08/01
_chemical_name_systematic          'Indium(I) Tetraiodoaluminate'
_chemical_formula_structural       'In (Al I4)'
_chemical_formula_sum              'Al1 I4 In1'
_publ_section_title
;
Indium(I) tetraiodoaluminate, In Al I4
;
loop_
_citation_id
_citation_journal_abbrev
_citation_year
_citation_journal_volume
_citation_journal_issue
_citation_page_first
_citation_page_last
_citation_journal_id_ASTM
primary 'Zeitschrift fuer Anorganische und Allgemeine Chemie (1950) (DE)'
 2008 634 4 622 623 ZAACAB
_publ_author_name                  'Timofte, T.;Mudring, A.V.'
_cell_length_a                     7.135(4)
_cell_length_b                     11.822(3)
_cell_length_c                     11.083(6)
_cell_angle_alpha                  90
_cell_angle_beta                   96.32(6)
_cell_angle_gamma                  90
_cell_volume                       929.17
_cell_formula_units_Z              4
_symmetry_space_group_name_H-M     'P 1 21/m 1'
_symmetry_Int_Tables_number        11
_refine_ls_R_factor_all            .0404
loop_
_symmetry_equiv_pos_site_id
_symmetry_equiv_pos_as_xyz
  1	'x, -y+.5, z'
  2	'-x, -y, -z'
  3	'-x, y+.5, -z'
  4	'x, y, z'
loop_
_atom_type_symbol
_atom_type_oxidation_number
Al3+	3
I1-	-1
In1+	1
loop_
_atom_site_label
_atom_site_type_symbol
_atom_site_symmetry_multiplicity
_atom_site_Wyckoff_symbol
_atom_site_fract_x
_atom_site_fract_y
_atom_site_fract_z
_atom_site_occupancy
_atom_site_attached_hydrogens
_atom_site_U_iso_or_equiv
In1 In1+ 4 f 0.5910(9) 0.0149(6) 0.2934(5) 1. 0 0.0085(2) 
Al1 Al3+ 2 e 0.5710(30) 0.25 0.0250(20) 1. 0 0.0031(5) 
I1 I1- 2 e 0.3356(8) 0.25 0.1689(6) 1. 0 0.0056(2) 
I2 I1- 2 e 0.3672(14) 0.25 -0.1650(6) 1. 0 0.0079(3) 
I3 I1- 4 f 0.7728(7) 0.0755(6) 0.0431(5) 1. 0 0.0069(2) 
Al2 Al3+ 2 e 0.7790(30) 0.25 0.5560(2) 1. 0 0.0031(5) 
I4 I1- 2 e 0.9007(8) 0.25 0.3617(5) 1. 0 0.0049(2) 
I5 I1- 2 e 0.4218(8) 0.25 0.5120(6) 1. 0 0.0061(2) 
I6 I1- 4 f 0.8854(7) 0.0717(5) 0.6589(5) 1. 0 0.0073(2) 

#End of data_418802-ICSD


