data_50573-ICSD
#?2014 by Fachinformationszentrum Karlsruhe, and the U.S. Secretary of 
#Commerce on behalf of the United States.  All rights reserved.
_database_code_ICSD                50573
_audit_creation_date               2000/07/15
_chemical_name_systematic
;
Trilithium Bis(oxomolybdenum(V)) Tris(phosphate(V))
;
_chemical_formula_structural       'Li3 (Mo O)2 (P O4)3'
_chemical_formula_sum              'Li3 Mo2 O14 P3'
_publ_section_title
;
A lithium molybdenum(V) monophosphate, Li3 (Mo O)2 (P O4)3 
structurally related to Li2 Na (Mo O)2 (P O4)3
;
loop_
_citation_id
_citation_journal_abbrev
_citation_year
_citation_journal_volume
_citation_page_first
_citation_page_last
_citation_journal_id_ASTM
primary 'Zeitschrift fuer Kristallographie (1979-2010)' 1998 213 85 89 ZEKRDZ
_publ_author_name
;
Ledain, S.;Borel, M.M.;Leclaire, A.;Raveau, B.
;
_cell_length_a                     15.144(1)
_cell_length_b                     8.0558(7)
_cell_length_c                     17.855(2)
_cell_angle_alpha                  90.
_cell_angle_beta                   104.18(1)
_cell_angle_gamma                  90.
_cell_volume                       2111.89
_cell_formula_units_Z              8
_symmetry_space_group_name_H-M     'P 1 21/c 1'
_symmetry_Int_Tables_number        14
_refine_ls_R_factor_all            .037
loop_
_symmetry_equiv_pos_site_id
_symmetry_equiv_pos_as_xyz
  1	'x, -y+.5, z+.5'
  2	'-x, -y, -z'
  3	'-x, y+.5, -z+.5'
  4	'x, y, z'
loop_
_atom_type_symbol
_atom_type_oxidation_number
Li1+	1
Mo5+	5
O2-	-2
P5+	5
loop_
_atom_site_label
_atom_site_type_symbol
_atom_site_symmetry_multiplicity
_atom_site_Wyckoff_symbol
_atom_site_fract_x
_atom_site_fract_y
_atom_site_fract_z
_atom_site_occupancy
_atom_site_attached_hydrogens
_atom_site_B_iso_or_equiv
Mo1 Mo5+ 4 e 0.42155(6) 0.0010(2) 0.35293(6) 1. 0 0.41(2) 
Mo2 Mo5+ 4 e 0.31571(6) -.0162(2) 0.08273(6) 1. 0 0.41(2) 
Mo3 Mo5+ 4 e 0.15704(6) 0.0203(1) 0.45687(6) 1. 0 1.38(2) 
Mo4 Mo5+ 4 e 0.02283(6) 0.0475(1) 0.15058(6) 1. 0 0.41(2) 
P1 P5+ 4 e -.1157(2) 0.1912(4) -.2949(2) 1. 0 0.40(8) 
P2 P5+ 4 e 0.1092(2) -.3415(4) -.4791(2) 1. 0 0.44(7) 
P3 P5+ 4 e -.3816(2) 0.1416(4) 0.4847(2) 1. 0 0.40(7) 
P4 P5+ 4 e -.4966(2) -.3528(4) 0.6955(2) 1. 0 0.43(7) 
P5 P5+ 4 e -.2037(2) -.2026(4) 0.3708(2) 1. 0 0.45(7) 
P6 P5+ 4 e 0.2967(2) 0.3007(4) 0.4129(2) 1. 0 0.48(8) 
Li1 Li1+ 4 e 0.278(2) 0.566(3) 0.272(1) 1. 0 1.8(5) 
Li2 Li1+ 4 e 0.371(2) 0.488(4) 0.161(1) 1. 0 2.6(5) 
Li3 Li1+ 4 e 0.758(2) 0.131(3) 0.079(1) 1. 0 1.6(5) 
Li4 Li1+ 4 e 0.122(2) 0.235(4) 0.283(2) 1. 0 2.5(6) 
Li5 Li1+ 4 e 0.841(2) 0.156(4) 0.350(2) 1. 0 3.2(6) 
Li6 Li1+ 4 e 0.450(2) 0.361(4) 0.339(2) 1. 0 3.4(6) 
O1 O2- 4 e 0.3247(6) -.080(1) 0.3014(5) 1. 0 1.4(2) 
O2 O2- 4 e -.4436(5) 0.111(1) 0.4047(5) 1. 0 0.9(2) 
O3 O2- 4 e 0.4456(5) 0.158(1) 0.2694(5) 1. 0 0.8(2) 
O4 O2- 4 e 0.4329(5) -.109(1) 0.4527(5) 1. 0 0.6(2) 
O5 O2- 4 e 0.3790(5) 0.217(1) 0.3904(5) 1. 0 0.7(2) 
O6 O2- 4 e -.4928(5) -.176(1) 0.3264(5) 1. 0 0.7(2) 
O7 O2- 4 e 0.2930(6) -.170(1) 0.1379(6) 1. 0 1.2(2) 
O8 O2- 4 e -.1869(5) -.054(1) 0.0054(5) 1. 0 0.6(2) 
O9 O2- 4 e 0.3235(6) 0.156(1) -.0025(5) 1. 0 0.7(2) 
O10 O2- 4 e 0.2862(6) 0.176(1) 0.1392(6) 1. 0 0.6(2) 
O11 O2- 4 e 0.3553(5) -.175(1) 0.0063(5) 1. 0 0.6(2) 
O12 O2- 4 e -.4472(5) -.473(1) 0.3602(4) 1. 0 0.6(2) 
O13 O2- 4 e 0.0497(5) 0.056(1) 0.4088(5) 1. 0 0.9(2) 
O14 O2- 4 e 0.2966(5) -.037(1) -.4946(5) 1. 0 1.0(2) 
O15 O2- 4 e 0.1353(5) -.155(1) -.4686(5) 1. 0 0.6(2) 
O16 O2- 4 e 0.1705(5) -.169(1) 0.3803(5) 1. 0 0.7(2) 
O17 O2- 4 e 0.1623(5) 0.181(1) -.4581(5) 1. 0 0.6(2) 
O18 O2- 4 e 0.2128(5) 0.184(1) 0.3928(5) 1. 0 0.7(2) 
O19 O2- 4 e -.0636(5) -.080(1) 0.1556(5) 1. 0 1.0(2) 
O20 O2- 4 e 0.1342(5) 0.222(1) 0.1678(5) 1. 0 0.8(2) 
O21 O2- 4 e -.0203(5) 0.239(1) 0.2062(5) 1. 0 0.6(2) 
O22 O2- 4 e 0.0993(5) -.018(1) 0.2572(4) 1. 0 0.7(2) 
O23 O2- 4 e -.0252(5) 0.141(1) 0.0452(5) 1. 0 0.6(2) 
O24 O2- 4 e 0.0932(5) -.116(1) 0.0998(5) 1. 0 0.9(2) 
O25 O2- 4 e -.1656(5) 0.306(1) -.2530(5) 1. 0 0.5(2) 
O26 O2- 4 e 0.4087(5) -.425(1) 0.2665(5) 1. 0 0.6(2) 
O27 O2- 4 e -.2405(5) -.040(1) 0.3324(4) 1. 0 0.6(2) 
O28 O2- 4 e 0.2378(5) 0.454(1) 0.3619(5) 1. 0 0.8(2) 

#End of data_50573-ICSD


