data_35457-ICSD
#?2014 by Fachinformationszentrum Karlsruhe, and the U.S. Secretary of 
#Commerce on behalf of the United States.  All rights reserved.
_database_code_ICSD                35457
_audit_creation_date               1983/12/31
_audit_update_record               2006/04/01
_chemical_name_systematic          'Tricalcium Uranate - Alpha'
_chemical_formula_structural       'Ca3 (U O6)'
_chemical_formula_sum              'Ca3 O6 U1'
_publ_section_title
;
The synthesis and crystal structure of alpha-Ca3 U O6
;
loop_
_citation_id
_citation_journal_abbrev
_citation_year
_citation_journal_volume
_citation_page_first
_citation_page_last
_citation_journal_id_ASTM
primary 'Journal of Solid State Chemistry' 1983 48 396 400 JSSCBI
2 'Phase Transition' 1992 38 127 220 PHTRDP
_publ_author_name                  'Holc, J.;Golic, L.'
_cell_length_a                     6.729(1)
_cell_length_b                     6.729(1)
_cell_length_c                     6.729(1)
_cell_angle_alpha                  91.30(1)
_cell_angle_beta                   91.30(1)
_cell_angle_gamma                  91.30(1)
_cell_volume                       304.45
_cell_formula_units_Z              2
_symmetry_space_group_name_H-M     'R -3 R'
_symmetry_Int_Tables_number        148
_refine_ls_R_factor_all            .032
loop_
_symmetry_equiv_pos_site_id
_symmetry_equiv_pos_as_xyz
  1	'-z, -x, -y'
  2	'-y, -z, -x'
  3	'-x, -y, -z'
  4	'z, x, y'
  5	'y, z, x'
  6	'x, y, z'
loop_
_atom_type_symbol
_atom_type_oxidation_number
Ca2+	2
O2-	-2
U6+	6
loop_
_atom_site_label
_atom_site_type_symbol
_atom_site_symmetry_multiplicity
_atom_site_Wyckoff_symbol
_atom_site_fract_x
_atom_site_fract_y
_atom_site_fract_z
_atom_site_occupancy
_atom_site_attached_hydrogens
_atom_site_U_iso_or_equiv
Ca1 Ca2+ 6 f 0.25087(7) 0.06039(7) 0.55664(7) 1. 0 0.00648(15) 
U1 U6+ 1 a 0 0 0 1. 0 0.00298(6) 
U2 U6+ 1 b 0.5 0.5 0.5 1. 0 0.00292(6) 
O1 O2- 6 f 0.41310(35) 0.54186(35) 0.20610(34) 1. 0 0.00847(72) 
O2 O2- 6 f 0.06530(33) 0.92572(35) 0.29244(35) 1. 0 0.00846(73) 

#End of data_35457-ICSD


