data_67143-ICSD
#?2014 by Fachinformationszentrum Karlsruhe, and the U.S. Secretary of 
#Commerce on behalf of the United States.  All rights reserved.
_database_code_ICSD                67143
_audit_creation_date               1990/12/27
_audit_update_record               2010/08/01
_chemical_name_systematic
;
Pentabarium Aluminium Iridium(IV) Iridium(V) Undecaoxide
;
_chemical_formula_structural       'Ba5 Al Ir2 O11'
_chemical_formula_sum              'Al1 Ba5 Ir2 O11'
_publ_section_title
;
Ba5 Al Ir2 O11: Eine neue Verbindung mit Iridium(IV,V)
;
loop_
_citation_id
_citation_journal_abbrev
_citation_year
_citation_journal_volume
_citation_page_first
_citation_page_last
_citation_journal_id_ASTM
primary 'Zeitschrift fuer Anorganische und Allgemeine Chemie (1950) (DE)'
 1989 568 29 34 ZAACAB
_publ_author_name                  'Lang, C.;Mueller Buschbaum, H.'
_cell_length_a                     18.8360(35)
_cell_length_b                     5.7887(27)
_cell_length_c                     11.103(6)
_cell_angle_alpha                  90.
_cell_angle_beta                   90.
_cell_angle_gamma                  90.
_cell_volume                       1210.63
_cell_formula_units_Z              4
_symmetry_space_group_name_H-M     'P n m a'
_symmetry_Int_Tables_number        62
_refine_ls_R_factor_all            .0687
loop_
_symmetry_equiv_pos_site_id
_symmetry_equiv_pos_as_xyz
  1	'x+.5, y, -z+.5'
  2	'x, -y+.5, z'
  3	'-x+.5, y+.5, z+.5'
  4	'-x, -y, -z'
  5	'-x+.5, -y, z+.5'
  6	'-x, y+.5, -z'
  7	'x+.5, -y+.5, -z+.5'
  8	'x, y, z'
loop_
_atom_type_symbol
_atom_type_oxidation_number
Al3+	3
Ba2+	2
Ir4.5+	4.5
O2-	-2
loop_
_atom_site_label
_atom_site_type_symbol
_atom_site_symmetry_multiplicity
_atom_site_Wyckoff_symbol
_atom_site_fract_x
_atom_site_fract_y
_atom_site_fract_z
_atom_site_occupancy
_atom_site_attached_hydrogens
_atom_site_B_iso_or_equiv
Ba1 Ba2+ 4 c 0.1380(2) 0.25 0.1920(3) 1. 0 0.40(4) 
Ba2 Ba2+ 4 c 0.9312(2) 0.25 0.0277(3) 1. 0 0.76(5) 
Ba3 Ba2+ 4 c 0.4728(2) 0.25 0.1048(3) 1. 0 0.53(4) 
Ba4 Ba2+ 4 c 0.1747(2) 0.25 0.5485(3) 1. 0 0.50(4) 
Ba5 Ba2+ 4 c 0.7510(2) 0.25 0.6230(3) 1. 0 0.64(4) 
Ir1 Ir4.5+ 4 c 0.5666(1) 0.25 0.7035(2) 1. 0 0.61(3) 
Ir2 Ir4.5+ 4 c 0.9319(1) 0.25 0.7062(2) 1. 0 0.25(3) 
Al1 Al3+ 4 c 0.8110(9) 0.25 0.2586(15) 1. 0 0.37(21) 
O1 O2- 4 c 0.254(3) 0.25 0.365(4) 1. 0 1.10(55) 
O2 O2- 4 c 0.528(2) 0.25 0.883(4) 1. 0 0.45(45) 
O3 O2- 4 c 0.349(2) 0.25 0.692(4) 1. 0 0.58(54) 
O4 O2- 4 c 0.271(2) 0.25 0.101(4) 1. 0 0.64(54) 
O5 O2- 4 c 0.595(2) 0.25 0.538(3) 1. 0 0.28(47) 
O6 O2- 8 d 0.485(1) 0.021(5) 0.684(2) 1. 0 0.50(36) 
O7 O2- 8 d 0.398(1) 0.482(5) 0.901(2) 1. 0 0.50(36) 
O8 O2- 8 d 0.365(2) 0.494(6) 0.254(3) 1. 0 1.12(44) 

#End of data_67143-ICSD


