data_151882-ICSD
#?2014 by Fachinformationszentrum Karlsruhe, and the U.S. Secretary of 
#Commerce on behalf of the United States.  All rights reserved.
_database_code_ICSD                151882
_audit_creation_date               2006/10/01
_chemical_name_systematic          'Potassium Aluminate - Lt'
_chemical_formula_structural       'K (Al O2)'
_chemical_formula_sum              'Al1 K1 O2'
_publ_section_title
;
Potassium aluminate crystalline structure and electroconduction
;
loop_
_citation_id
_citation_journal_abbrev
_citation_year
_citation_journal_volume
_citation_journal_issue
_citation_page_first
_citation_page_last
_citation_journal_id_ASTM
primary 'Russian journal of electrochemistry (= Elektrokhimiya)'
 2004 40 6 619 625 RJELE3
_publ_author_name
;
Burmakin, E.I.;Voronin, V.I.;Akhtyamova, L.Z.;Berger, I.F.;Shekhtman, 
G.Sh.
;
_cell_length_a                     5.445(1)
_cell_length_b                     10.931(1)
_cell_length_c                     15.458(2)
_cell_angle_alpha                  90.
_cell_angle_beta                   90.
_cell_angle_gamma                  90.
_cell_volume                       920.05
_cell_formula_units_Z              16
_symmetry_space_group_name_H-M     'P b c a'
_symmetry_Int_Tables_number        61
_refine_ls_R_factor_all            .0209
loop_
_symmetry_equiv_pos_site_id
_symmetry_equiv_pos_as_xyz
  1	'x+.5, y, -z+.5'
  2	'x, -y+.5, z+.5'
  3	'-x+.5, y+.5, z'
  4	'-x, -y, -z'
  5	'-x+.5, -y, z+.5'
  6	'-x, y+.5, -z+.5'
  7	'x+.5, -y+.5, -z'
  8	'x, y, z'
loop_
_atom_type_symbol
_atom_type_oxidation_number
Al3+	3
K1+	1
O2-	-2
loop_
_atom_site_label
_atom_site_type_symbol
_atom_site_symmetry_multiplicity
_atom_site_Wyckoff_symbol
_atom_site_fract_x
_atom_site_fract_y
_atom_site_fract_z
_atom_site_occupancy
_atom_site_attached_hydrogens
_atom_site_B_iso_or_equiv
Al1 Al3+ 8 c 0.265(1) -0.0012(5) 0.193(1) 1. 0 0.45(6) 
Al2 Al3+ 8 c 0.280(1) 0.262(1) 0.056(1) 1. 0 0.45(6) 
K1 K1+ 8 c 0.737(1) 0.0043(6) 0.063(1) 1. 0 1.3(1) 
K2 K1+ 8 c 0.792(1) 0.263(1) 0.192(1) 1. 0 1.3(1) 
O1 O2- 8 c 0.565(1) 0.285(1) 0.0172(6) 1. 0 2.3(2) 
O2 O2- 8 c 0.182(1) 0.403(1) 0.1076(6) 1. 0 1.4(2) 
O3 O2- 8 c 0.302(1) 0.155(1) 0.1486(7) 1. 0 2.3(2) 
O4 O2- 8 c 0.060(1) 0.491(1) 0.279(1) 1. 0 2.5(2) 

#End of data_151882-ICSD


