data_62543-ICSD
#?2014 by Fachinformationszentrum Karlsruhe, and the U.S. Secretary of 
#Commerce on behalf of the United States.  All rights reserved.
_database_code_ICSD                62543
_audit_creation_date               1988/02/22
_audit_update_record               2012/08/01
_chemical_name_systematic
;
Silver(II) Bis(hexafluorotantalate)
;
_chemical_formula_structural       'Ag (Ta F6)2'
_chemical_formula_sum              'Ag1 F12 Ta2'
_publ_section_title
;
Ag (M F6)2 (M=Nb,Ta), ternaere Fluoride des zweiwertigen Silbers.
;
loop_
_citation_id
_citation_journal_abbrev
_citation_year
_citation_journal_volume
_citation_page_first
_citation_page_last
_citation_journal_id_ASTM
primary 'Angewandte Chemie (German Edition)' 1987 99 685 686 ANCEAD
_publ_author_name                  'Mueller, B.G.'
_cell_length_a                     9.044(4)
_cell_length_b                     5.596(2)
_cell_length_c                     5.198(2)
_cell_angle_alpha                  118.76(2)
_cell_angle_beta                   91.53(3)
_cell_angle_gamma                  102.42(3)
_cell_volume                       222.6
_cell_formula_units_Z              1
_symmetry_space_group_name_H-M     'P -1'
_symmetry_Int_Tables_number        2
_refine_ls_R_factor_all            .073
loop_
_symmetry_equiv_pos_site_id
_symmetry_equiv_pos_as_xyz
  1	'-x, -y, -z'
  2	'x, y, z'
loop_
_atom_type_symbol
_atom_type_oxidation_number
Ag2+	2
F1-	-1
Ta5+	5
loop_
_atom_site_label
_atom_site_type_symbol
_atom_site_symmetry_multiplicity
_atom_site_Wyckoff_symbol
_atom_site_fract_x
_atom_site_fract_y
_atom_site_fract_z
_atom_site_occupancy
_atom_site_attached_hydrogens
Ag1 Ag2+ 1 a 0 0 0 1. 0 
Ta1 Ta5+ 2 i 0.2694(1) 0.5109(1) 0.7346(1) 1. 0 
F1 F1- 2 i 0.4360(8) 0.7349(14) 0.0172(15) 1. 0 
F2 F1- 2 i 0.3712(8) 0.2704(14) 0.4712(15) 1. 0 
F3 F1- 2 i 0.2028(8) 0.2856(14) 0.9136(14) 1. 0 
F4 F1- 2 i 0.1305(8) 0.7300(14) 0.9729(14) 1. 0 
F5 F1- 2 i 0.0810(7) 0.2580(13) 0.4394(13) 1. 0 
F6 F1- 2 i 0.2775(9) 0.7342(14) 0.5579(15) 1. 0 

loop_
_atom_site_aniso_label
_atom_site_aniso_type_symbol
_atom_site_aniso_U_11
_atom_site_aniso_U_22
_atom_site_aniso_U_33
_atom_site_aniso_U_12
_atom_site_aniso_U_13
_atom_site_aniso_U_23
Ag1 Ag2+ 0.0267(7) 0.0237(7) 0.0250(7) 0.0070(6) 0.0029(6) 0.0103(6)
Ta1 Ta5+ 0.0194(2) 0.0188(2) 0.0196(2) 0.0057(2) 0.0039(2) 0.0095(2)
F1 F1- 0.0334(24) 0.0290(23) 0.0376(24) 0.0024(22) -.0050(23) 0.0050(21)
F2 F1- 0.0417(24) 0.0270(23) 0.0353(24) 0.0163(21) 0.0172(22) 0.0073(20)
F3 F1- 0.0387(24) 0.0455(23) 0.0350(23) 0.0148(21) 0.0069(21) 0.0317(19)
F4 F1- 0.0280(23) 0.0417(24) 0.0279(22) 0.0163(20) 0.0075(20) 0.0163(20)
F5 F1- 0.0220(22) 0.0344(24) 0.0293(23) 0.0011(21) -.0015(21) 0.0145(20)
F6 F1- 0.0489(25) 0.0358(23) 0.0379(23) 0.0106(22) 0.0045(22) 0.0257(20)
#End of data_62543-ICSD


