data_155203-ICSD
#?2014 by Fachinformationszentrum Karlsruhe, and the U.S. Secretary of 
#Commerce on behalf of the United States.  All rights reserved.
_database_code_ICSD                155203
_audit_creation_date               2007/04/01
_chemical_name_systematic
;
Potassium Sulfato(VI)dichlorobismuthate(III)
;
_chemical_formula_structural       'K (Bi Cl2 (S O4))'
_chemical_formula_sum              'Bi1 Cl2 K1 O4 S1'
_publ_section_title
;
Crystal structure of potassium sulfatodichlorobismuthate(III)
;
loop_
_citation_id
_citation_journal_abbrev
_citation_year
_citation_journal_volume
_citation_page_first
_citation_page_last
_citation_journal_id_ASTM
primary 'Koordinatsionnaya Khimiya (= Coordination Chemistry (USSR))'
 1985 11 689 691 KOKHDC
_publ_author_name
;
Volkova, L.M.;Udovenko, A.A.;Levin, A.N.;Davidovich, R.L.;Medkov, 
M.A.
;
_cell_length_a                     15.322(5)
_cell_length_b                     7.280(3)
_cell_length_c                     6.361(3)
_cell_angle_alpha                  90.
_cell_angle_beta                   90.
_cell_angle_gamma                  90.
_cell_volume                       709.53
_cell_formula_units_Z              4
_symmetry_space_group_name_H-M     'P 21 21 21'
_symmetry_Int_Tables_number        19
_refine_ls_R_factor_all            .066
loop_
_symmetry_equiv_pos_site_id
_symmetry_equiv_pos_as_xyz
  1	'-x, y+.5, -z+.5'
  2	'x+.5, -y+.5, -z'
  3	'-x+.5, -y, z+.5'
  4	'x, y, z'
loop_
_atom_type_symbol
_atom_type_oxidation_number
Bi3+	3
Cl1-	-1
K1+	1
O2-	-2
S6+	6
loop_
_atom_site_label
_atom_site_type_symbol
_atom_site_symmetry_multiplicity
_atom_site_Wyckoff_symbol
_atom_site_fract_x
_atom_site_fract_y
_atom_site_fract_z
_atom_site_occupancy
_atom_site_attached_hydrogens
_atom_site_B_iso_or_equiv
Bi1 Bi3+ 4 a 0.3664(1) 0.6136(1) 0.2352(1) 1. 0 1.13(2) 
K1 K1+ 4 a 0.0931(6) 0.953(1) 0.278(2) 1. 0 3.2(2) 
Cl1 Cl1- 4 a 0.3015(6) 0.920(1) 0.318(1) 1. 0 2.4(2) 
Cl2 Cl1- 4 a 0.5155(5) 0.757(1) 0.148(1) 1. 0 2.1(2) 
S1 S6+ 4 a 0.3623(5) 0.567(1) 0.744(1) 1. 0 1.4(1) 
O1 O2- 4 a 0.334(1) 0.714(3) -0.108(3) 1. 0 1.1(4) 
O2 O2- 4 a 0.429(1) 0.649(3) 0.591(3) 1. 0 0.8(4) 
O3 O2- 4 a 0.216(2) 0.497(4) 0.122(4) 1. 0 3.1(7) 
O4 O2- 4 a 0.403(2) 0.420(2) -0.136(3) 1. 0 1.7(5) 

#End of data_155203-ICSD


