data_28024-ICSD
#?2014 by Fachinformationszentrum Karlsruhe, and the U.S. Secretary of 
#Commerce on behalf of the United States.  All rights reserved.
_database_code_ICSD                28024
_audit_creation_date               1980/01/01
_audit_update_record               2009/02/01
_chemical_name_systematic
;
Sodium Iron(III) Catena-digermanate
;
_chemical_formula_structural       'Na Fe (Ge2 O6)'
_chemical_formula_sum              'Fe1 Ge2 Na1 O6'
_publ_section_title
;
X-ray study of the sodium - iron metagermanate Na Fe Ge2 O6
;
loop_
_citation_id
_citation_journal_abbrev
_citation_year
_citation_journal_volume
_citation_page_first
_citation_page_last
_citation_journal_id_ASTM
primary Kristallografiya 1967 12 591 594 KRISAJ
2 'Soviet Physics, Crystallography (= Kristallografiya)'
 1967 12 517 520 SPHCA6
_publ_author_name
;
Solov'eva, L.P.;Bakakin, V.V.
;
_cell_length_a                     10.01(1)
_cell_length_b                     8.94(1)
_cell_length_c                     5.52(1)
_cell_angle_alpha                  90.
_cell_angle_beta                   108.0(3)
_cell_angle_gamma                  90.
_cell_volume                       469.8
_cell_formula_units_Z              4
_symmetry_space_group_name_H-M     'C 1 2/c 1'
_symmetry_Int_Tables_number        15
_refine_ls_R_factor_all            .129
loop_
_symmetry_equiv_pos_site_id
_symmetry_equiv_pos_as_xyz
  1	'x, -y, z+.5'
  2	'-x, -y, -z'
  3	'-x, y, -z+.5'
  4	'x, y, z'
  5	'x+.5, -y+.5, z+.5'
  6	'-x+.5, -y+.5, -z'
  7	'-x+.5, y+.5, -z+.5'
  8	'x+.5, y+.5, z'
loop_
_atom_type_symbol
_atom_type_oxidation_number
Fe3+	3
Ge4+	4
Na1+	1
O2-	-2
loop_
_atom_site_label
_atom_site_type_symbol
_atom_site_symmetry_multiplicity
_atom_site_Wyckoff_symbol
_atom_site_fract_x
_atom_site_fract_y
_atom_site_fract_z
_atom_site_occupancy
_atom_site_attached_hydrogens
_atom_site_B_iso_or_equiv
Na1 Na1+ 4 e 0 0.696(4) 0.25 1. 0 3.4 
Fe1 Fe3+ 4 e 0 0.098(1) 0.25 1. 0 0.5 
Ge1 Ge4+ 8 f 0.2121(4) 0.4065(5) 0.2689(16) 1. 0 0.7 
O1 O2- 8 f 0.391(4) 0.418(5) 0.363(12) 1. 0 2.8 
O2 O2- 8 f 0.145(3) 0.228(4) 0.197(11) 1. 0 2. 
O3 O2- 8 f 0.141(3) 0.492(3) 0.513(9) 1. 0 1.1 

#End of data_28024-ICSD


