data_75223-ICSD
#?2014 by Fachinformationszentrum Karlsruhe, and the U.S. Secretary of 
#Commerce on behalf of the United States.  All rights reserved.
_database_code_ICSD                75223
_audit_creation_date               1995/10/17
_audit_update_record               2013/08/01
_chemical_name_systematic          'Trilithium Trithioborate'
_chemical_formula_structural       'Li3 (B S3)'
_chemical_formula_sum              'B1 Li3 S3'
_publ_section_title                Li3BS3
loop_
_citation_id
_citation_journal_abbrev
_citation_year
_citation_journal_volume
_citation_page_first
_citation_page_last
_citation_journal_id_ASTM
primary 'Acta Crystallographica, Section C: Crystal Structure Communications'
 1994 50 1180 1183 ACSCEE
_publ_author_name
;
Vinatier, P.;Gravereau, P.;Menetrier, M.;Trut, L.;Levasseur, A.
;
_cell_length_a                     8.150(3)
_cell_length_b                     10.070(3)
_cell_length_c                     6.159(2)
_cell_angle_alpha                  90.
_cell_angle_beta                   90.
_cell_angle_gamma                  90.
_cell_volume                       505.47
_cell_formula_units_Z              4
_symmetry_space_group_name_H-M     'P n m a'
_symmetry_Int_Tables_number        62
_refine_ls_R_factor_all            .069
loop_
_symmetry_equiv_pos_site_id
_symmetry_equiv_pos_as_xyz
  1	'x+.5, y, -z+.5'
  2	'x, -y+.5, z'
  3	'-x+.5, y+.5, z+.5'
  4	'-x, -y, -z'
  5	'-x+.5, -y, z+.5'
  6	'-x, y+.5, -z'
  7	'x+.5, -y+.5, -z+.5'
  8	'x, y, z'
loop_
_atom_type_symbol
_atom_type_oxidation_number
B3+	3
Li1+	1
S2-	-2
loop_
_atom_site_label
_atom_site_type_symbol
_atom_site_symmetry_multiplicity
_atom_site_Wyckoff_symbol
_atom_site_fract_x
_atom_site_fract_y
_atom_site_fract_z
_atom_site_occupancy
_atom_site_attached_hydrogens
S1 S2- 4 c 0.2993(2) 0.25 0.6577(4) 1. 0 
S2 S2- 8 d 0.4232(2) 0.0934(1) 0.2396(4) 1. 0 
B1 B3+ 4 c 0.3812(9) 0.25 0.383(2) 1. 0 
Li1 Li1+ 4 c 0.006(3) 0.25 0.553(3) 1. 0 
Li2 Li1+ 8 d 0.327(2) 0.007(2) 0.602(3) 1. 0 

loop_
_atom_site_aniso_label
_atom_site_aniso_type_symbol
_atom_site_aniso_U_11
_atom_site_aniso_U_22
_atom_site_aniso_U_33
_atom_site_aniso_U_12
_atom_site_aniso_U_13
_atom_site_aniso_U_23
S1 S2- 0.0148(9) 0.0185(10) 0.0139(11) 0 -.0002(9) 0
S2 S2- 0.0185(5) 0.0141(5) 0.0190(7) 0.0016(6) -.0004(8) -.0017(9)
B1 B3+ 0.0066(34) 0.0176(49) 0.0175(58) 0 -.0082(35) 0
Li1 Li1+ 0.0222(69) 0.069(15) 0.0066(90) 0 0.0002(73) 0
Li2 Li1+ 0.0219(46) 0.0173(55) 0.0629(94) 0.0038(50) -.0092(62) 0.0013(61)
#End of data_75223-ICSD


