data_246730-ICSD
#?2014 by Fachinformationszentrum Karlsruhe, and the U.S. Secretary of 
#Commerce on behalf of the United States.  All rights reserved.
_database_code_ICSD                246730
_audit_creation_date               2010/02/01
_chemical_name_systematic
;
Distrontium Lithium Rhenate(VII) - Lt
;
_chemical_formula_structural       'Sr2 Li (Re O6)'
_chemical_formula_sum              'Li1 O6 Re1 Sr2'
_publ_section_title
;
Structural investigation of Sr2 Li Re O6: Evidence for a continous 
tetragonal-cubic phase transition
;
loop_
_citation_id
_citation_journal_abbrev
_citation_year
_citation_journal_volume
_citation_journal_issue
_citation_page_first
_citation_page_last
_citation_journal_id_ASTM
primary 'Journal of Solid State Chemistry' 2009 182 7 1691 693 JSSCBI
2 'Journal of Solid State Chemistry' 2008 181 10 2789 2795 JSSCBI
_publ_author_name
;
Macquart, R.B.;Zhou Qing Di;Kennedy, B.J.
;
_cell_length_a                     5.55033(4)
_cell_length_b                     5.55033(4)
_cell_length_c                     7.92269(7)
_cell_angle_alpha                  90.
_cell_angle_beta                   90.
_cell_angle_gamma                  90.
_cell_volume                       244.07
_cell_formula_units_Z              2
_symmetry_space_group_name_H-M     'I 4/m'
_symmetry_Int_Tables_number        87
_refine_ls_R_factor_all            .0578
loop_
_symmetry_equiv_pos_site_id
_symmetry_equiv_pos_as_xyz
  1	'-y, x, -z'
  2	'y, -x, -z'
  3	'x, y, -z'
  4	'-x, -y, -z'
  5	'y, -x, z'
  6	'-y, x, z'
  7	'-x, -y, z'
  8	'x, y, z'
  9	'-y+.5, x+.5, -z+.5'
 10	'y+.5, -x+.5, -z+.5'
 11	'x+.5, y+.5, -z+.5'
 12	'-x+.5, -y+.5, -z+.5'
 13	'y+.5, -x+.5, z+.5'
 14	'-y+.5, x+.5, z+.5'
 15	'-x+.5, -y+.5, z+.5'
 16	'x+.5, y+.5, z+.5'
loop_
_atom_type_symbol
_atom_type_oxidation_number
Li1+	1
O2-	-2
Re7+	7
Sr2+	2
loop_
_atom_site_label
_atom_site_type_symbol
_atom_site_symmetry_multiplicity
_atom_site_Wyckoff_symbol
_atom_site_fract_x
_atom_site_fract_y
_atom_site_fract_z
_atom_site_occupancy
_atom_site_attached_hydrogens
Sr1 Sr2+ 4 d 0 0.5 0.25 1. 0 
Li1 Li1+ 2 b 0 0 0.5 1. 0 
Re1 Re7+ 2 a 0 0 0 1. 0 
O1 O2- 8 h 0.308(1) 0.228(1) 0 1. 0 
O2 O2- 4 e 0 0 0.268(1) 1. 0 

#End of data_246730-ICSD


