data_280333-ICSD
#?2014 by Fachinformationszentrum Karlsruhe, and the U.S. Secretary of 
#Commerce on behalf of the United States.  All rights reserved.
_database_code_ICSD                280333
_audit_creation_date               2002/04/01
_audit_update_record               2012/02/01
_chemical_name_systematic          'Disilver Mercurate'
_chemical_formula_structural       'Ag2 (Hg O2)'
_chemical_formula_sum              'Ag2 Hg1 O2'
_publ_section_title
;
Ag2 Hg O2: the first silver mercurate
;
loop_
_citation_id
_citation_journal_abbrev
_citation_year
_citation_journal_volume
_citation_page_first
_citation_page_last
_citation_journal_id_ASTM
primary 'ChemComm - Chemical Communications' 2000 2000 679 680 CHCOFS
_publ_author_name
;
Deibele, S.;Curda, J.;Peters, E.M.;Jansen, M.
;
_cell_length_a                     6.1737(6)
_cell_length_b                     6.1737(6)
_cell_length_c                     8.4219(12)
_cell_angle_alpha                  90.
_cell_angle_beta                   90.
_cell_angle_gamma                  90.
_cell_volume                       321
_cell_formula_units_Z              4
_symmetry_space_group_name_H-M     'P 43 21 2'
_symmetry_Int_Tables_number        96
_refine_ls_R_factor_all            .0322
loop_
_symmetry_equiv_pos_site_id
_symmetry_equiv_pos_as_xyz
  1	'x+.5, -y+.5, -z+.25'
  2	'-x+.5, y+.5, -z+.75'
  3	'-y, -x, -z+.5'
  4	'y, x, -z'
  5	'y+.5, -x+.5, z+.25'
  6	'-y+.5, x+.5, z+.75'
  7	'-x, -y, z+.5'
  8	'x, y, z'
loop_
_atom_type_symbol
_atom_type_oxidation_number
Ag1+	1
Hg2+	2
O2-	-2
loop_
_atom_site_label
_atom_site_type_symbol
_atom_site_symmetry_multiplicity
_atom_site_Wyckoff_symbol
_atom_site_fract_x
_atom_site_fract_y
_atom_site_fract_z
_atom_site_occupancy
_atom_site_attached_hydrogens
Hg1 Hg2+ 4 a 0.78253(9) 0.78253(9) 0 1. 0 
Ag1 Ag1+ 8 b 0.0023(2) 0.2464(2) 0.12316(12) 1. 0 
O1 O2- 8 b 0.3756(16) 0.7525(16) 0.0207(11) 1. 0 

loop_
_atom_site_aniso_label
_atom_site_aniso_type_symbol
_atom_site_aniso_U_11
_atom_site_aniso_U_22
_atom_site_aniso_U_33
_atom_site_aniso_U_12
_atom_site_aniso_U_13
_atom_site_aniso_U_23
Hg1 Hg2+ 0.0243(4) 0.0243(4) 0.0203(4) -.0003(2) -.0006(2) 0.0006(2)
Ag1 Ag1+ 0.0256(6) 0.0321(7) 0.0248(6) 0.0014(5) 0.0005(5) 0.0013(4)
O1 O2- 0.022(4) 0.029(5) 0.020(4) 0.000(4) 0.002(4) -.001(4)
#End of data_280333-ICSD


