data_160823-ICSD
#?2014 by Fachinformationszentrum Karlsruhe, and the U.S. Secretary of 
#Commerce on behalf of the United States.  All rights reserved.
_database_code_ICSD                160823
_audit_creation_date               2009/02/01
_chemical_name_systematic          'Rubidium Tecto-alumosilicate'
_chemical_formula_structural       'Rb (Al Si O4)'
_chemical_formula_sum              'Al1 O4 Rb1 Si1'
_publ_section_title
;
Synthesis and crystal structure of the feldspathoid Cs Al Si O4: an 
open-framework silicate and potential nuclear waste disposal phase
;
loop_
_citation_id
_citation_journal_abbrev
_citation_year
_citation_journal_volume
_citation_page_first
_citation_page_last
_citation_journal_id_ASTM
primary 'American Mineralogist' 2008 93 988 995 AMMIAY
_publ_author_name
;
Gatta, G.D.;Rotiroti, N.;Zanazzi, P.F.;Rieder, M.;Drabek, M.;Weiss, 
Z.;Klaska, R.
;
_cell_length_a                     9.217(1)
_cell_length_b                     5.321(1)
_cell_length_c                     8.724(1)
_cell_angle_alpha                  90.
_cell_angle_beta                   90.
_cell_angle_gamma                  90.
_cell_volume                       427.86
_cell_formula_units_Z              4
_symmetry_space_group_name_H-M     'P c 21 n'
_symmetry_Int_Tables_number        33
_refine_ls_R_factor_all            .0538
loop_
_symmetry_equiv_pos_site_id
_symmetry_equiv_pos_as_xyz
  1	'-x+.5, y, z+.5'
  2	'x+.5, y+.5, -z+.5'
  3	'-x, y+.5, -z'
  4	'x, y, z'
loop_
_atom_type_symbol
_atom_type_oxidation_number
Al3+	3
O2-	-2
Rb1+	1
Si4+	4
loop_
_atom_site_label
_atom_site_type_symbol
_atom_site_symmetry_multiplicity
_atom_site_Wyckoff_symbol
_atom_site_fract_x
_atom_site_fract_y
_atom_site_fract_z
_atom_site_occupancy
_atom_site_attached_hydrogens
_atom_site_U_iso_or_equiv
Rb1 Rb1+ 4 a 0.20402(5) 0.49994 0.50121(6) 1. 0 0.0214(2) 
Si1 Si4+ 4 a 0.08391(15) 0.01013(54) 0.19384(13) 1. 0 0.0149(4) 
Al1 Al3+ 4 a 0.41630(17) 0.01126(58) 0.31297(14) 1. 0 0.0159(5) 
O1 O2- 4 a 0.0856(4) 0.0076(14) 0.0107(2) 1. 0 0.017(1) 
O2 O2- 4 a 0.0359(5) -0.2617(7) 0.2552(4) 1. 0 0.022(1) 
O3 O2- 4 a -0.0285(4) 0.2188(8) 0.2595(5) 1. 0 0.024(2) 
O4 O2- 4 a 0.2432(3) 0.0817(11) 0.2531(4) 1. 0 0.030(2) 

loop_
_atom_site_aniso_label
_atom_site_aniso_type_symbol
_atom_site_aniso_U_11
_atom_site_aniso_U_22
_atom_site_aniso_U_33
_atom_site_aniso_U_12
_atom_site_aniso_U_13
_atom_site_aniso_U_23
Rb1 Rb1+ 0.0271(3) 0.0177(3) 0.0194(3) 0.0275(3) -0.0001(2) 0.0023(4)
Si1 Si4+ 0.0073(6) 0.029(1) 0.0086(5) -0.0066(9) -0.0005(5) -0.0064(9)
Al1 Al3+ 0.0080(7) 0.035(2) 0.0048(6) -0.005(1) -0.0015(5) -0.006(1)
O1 O2- 0.032(2) 0.015(3) 0.005(1) 0.003(4) 0.004(2) 0.0001(2)
O2 O2- 0.039(3) 0.016(2) 0.012(2) 0.000(2) 0.008(2) -0.003(2)
O3 O2- 0.037(3) 0.021(4) 0.014(2) -0.003(2) 0.008(2) 0.003(2)
O4 O2- 0.015(2) 0.054(4) 0.022(2) 0.007(2) -0.008(1) 0.001(2)
#End of data_160823-ICSD


