data_89317-ICSD
#?2014 by Fachinformationszentrum Karlsruhe, and the U.S. Secretary of 
#Commerce on behalf of the United States.  All rights reserved.
_database_code_ICSD                89317
_audit_creation_date               2001/07/16
_audit_update_record               2006/04/01
_chemical_name_systematic          'Sodium Niobate'
_chemical_formula_structural       'Na (Nb O3)'
_chemical_formula_sum              'Na1 Nb1 O3'
_publ_section_title
;
Neutron powder profile refinement of ferroelectric and 
antiferroelectric crystal structures: sodium niobate at 22 C
;
loop_
_citation_id
_citation_journal_abbrev
_citation_year
_citation_journal_volume
_citation_page_first
_citation_page_last
_citation_journal_id_ASTM
primary Ferroelectrics 1974 7 83 85 FEROA8
2 'Acta Crystallographica B (24,1968-38,1982)' 1969 25 851 865 ACBCAR
3 'Golden Book of Phase Transitions, Wroclaw' 2002 1 1 123 GBOPT5
_publ_author_name                  'Hewat, A.W.'
_cell_length_a                     5.5679(3)
_cell_length_b                     15.5156(8)
_cell_length_c                     5.5029(3)
_cell_angle_alpha                  90.
_cell_angle_beta                   90.
_cell_angle_gamma                  90.
_cell_volume                       475.39
_cell_formula_units_Z              8
_symmetry_space_group_name_H-M     'P b m a'
_symmetry_Int_Tables_number        57
_refine_ls_R_factor_all            .046
loop_
_symmetry_equiv_pos_site_id
_symmetry_equiv_pos_as_xyz
  1	'-x+.5, y+.5, z'
  2	'x+.5, y, -z'
  3	'x, -y+.5, z'
  4	'-x, -y, -z'
  5	'x+.5, -y+.5, -z'
  6	'-x+.5, -y, z'
  7	'-x, y+.5, -z'
  8	'x, y, z'
loop_
_atom_type_symbol
_atom_type_oxidation_number
Na1+	1
Nb5+	5
O2-	-2
loop_
_atom_site_label
_atom_site_type_symbol
_atom_site_symmetry_multiplicity
_atom_site_Wyckoff_symbol
_atom_site_fract_x
_atom_site_fract_y
_atom_site_fract_z
_atom_site_occupancy
_atom_site_attached_hydrogens
Nb1 Nb5+ 8 e 0.2705(7) 0.1231(6) 0.247(2) 1. 0 
Na1 Na1+ 4 c 0.75 0 0.257(4) 1. 0 
Na2 Na1+ 4 d 0.781(2) 0.25 0.254(4) 1. 0 
O1 O2- 4 c 0.25 0 0.304(2) 1. 0 
O2 O2- 4 d 0.232(2) 0.25 0.180(2) 1. 0 
O3 O2- 8 e 0.025(1) 0.1410(4) 0.533(1) 1. 0 
O4 O2- 8 e 0.456(1) 0.1090(4) -.036(1) 1. 0 

loop_
_atom_site_aniso_label
_atom_site_aniso_type_symbol
_atom_site_aniso_B_11
_atom_site_aniso_B_22
_atom_site_aniso_B_33
_atom_site_aniso_B_12
_atom_site_aniso_B_13
_atom_site_aniso_B_23
Nb1 Nb5+ 0.4(1) 0.7(1) 0.4(1) 0 0 0
Na1 Na1+ 1.0(2) 1.6(2) 1.0(2) 0 0 0
Na2 Na1+ 1.0(2) 1.6(2) 1.0(2) 0 0 0
O1 O2- 1.2(1) 0.9(1) 1.2(1) 0 0 0
O2 O2- 1.2(1) 0.9(1) 1.2(1) 0 0 0
O3 O2- 0.6(1) 1.2(1) 0.6(1) 0 0.3(1) 0
O4 O2- 0.6(1) 1.2(1) 0.6(1) 0 0.3(1) 0
#End of data_89317-ICSD


