data_280969-ICSD
#?2014 by Fachinformationszentrum Karlsruhe, and the U.S. Secretary of 
#Commerce on behalf of the United States.  All rights reserved.
_database_code_ICSD                280969
_audit_creation_date               2003/04/01
_chemical_name_systematic          'Calcium Pentamolybdenum Octaoxide'
_chemical_formula_structural       'Ca Mo5 O8'
_chemical_formula_sum              'Ca1 Mo5 O8'
_publ_section_title                'Ca Mo5 O8'
loop_
_citation_id
_citation_journal_abbrev
_citation_year
_citation_journal_volume
_citation_page_first
_citation_page_last
_citation_journal_id_ASTM
primary 'Acta Crystallographica, Section E. Structure Reports Online'
 2002 58 65 67 ACSEBH
_publ_author_name                  'Gougeon, P.;Gall, P.'
_cell_length_a                     7.550(5)
_cell_length_b                     9.068(5)
_cell_length_c                     9.983(5)
_cell_angle_alpha                  90.
_cell_angle_beta                   110.07(4)
_cell_angle_gamma                  90.
_cell_volume                       641.97
_cell_formula_units_Z              4
_symmetry_space_group_name_H-M     'P 1 21/c 1'
_symmetry_Int_Tables_number        14
_refine_ls_R_factor_all            .031
loop_
_symmetry_equiv_pos_site_id
_symmetry_equiv_pos_as_xyz
  1	'x, -y+.5, z+.5'
  2	'-x, -y, -z'
  3	'-x, y+.5, -z+.5'
  4	'x, y, z'
loop_
_atom_type_symbol
_atom_type_oxidation_number
Ca2+	2
Mo2.8+	2.8
O2-	-2
loop_
_atom_site_label
_atom_site_type_symbol
_atom_site_symmetry_multiplicity
_atom_site_Wyckoff_symbol
_atom_site_fract_x
_atom_site_fract_y
_atom_site_fract_z
_atom_site_occupancy
_atom_site_attached_hydrogens
_atom_site_U_iso_or_equiv
Ca1 Ca2+ 4 e 0.26502(12) 0.5052(1) 0.52649(9) 1. 0 0.01094(13) 
Mo1 Mo2.8+ 4 e 0.61063(4) -.11555(3) 0.48386(3) 1. 0 0.00331(5) 
Mo2 Mo2.8+ 4 e 0.38311(4) -.11560(3) 0.68223(3) 1. 0 0.00319(5) 
Mo3 Mo2.8+ 4 e 0.17729(4) -.12651(3) 0.38673(3) 1. 0 0.00322(5) 
Mo4 Mo2.8+ 4 e 0.81176(4) -.13391(3) 0.30011(3) 1. 0 0.00319(5) 
Mo5 Mo2.8+ 4 e 0.00045(4) -.12368(3) 0.58644(3) 1. 0 0.02299(5) 
O1 O2- 4 e 0.3994(4) 0.0079(3) 0.8417(3) 1. 0 0.0044(4) 
O2 O2- 4 e 0.0073(4) -.2212(3) 0.9361(3) 1. 0 0.0044(4) 
O3 O2- 4 e -.0133(4) 0.0007(3) 0.2366(3) 1. 0 0.0049(4) 
O4 O2- 4 e 0.4009(4) -.2532(3) 0.0205(3) 1. 0 0.0047(4) 
O5 O2- 4 e 0.8011(4) -.2458(3) 0.1175(3) 1. 0 0.0056(4) 
O6 O2- 4 e 0.2055(4) -.2469(3) 0.2170(3) 1. 0 0.0054(4) 
O7 O2- 4 e 0.6066(4) -.2339(3) 0.8309(3) 1. 0 0.0051(4) 
O8 O2- 4 e 0.3842(4) -.0014(3) 0.3326(3) 1. 0 0.0055(4) 

loop_
_atom_site_aniso_label
_atom_site_aniso_type_symbol
_atom_site_aniso_U_11
_atom_site_aniso_U_22
_atom_site_aniso_U_33
_atom_site_aniso_U_12
_atom_site_aniso_U_13
_atom_site_aniso_U_23
Ca1 Ca2+ 0.0099(3) 0.0114(3) 0.0104(3) -0.0003(3) 0.0021(2) 0.0009(3)
Mo1 Mo2.8+ 0.00338(10) 0.00300(11) 0.00351(10) -0.00028(8) 0.00116(8) 
0.00004(8)
Mo2 Mo2.8+ 0.00314(10) 0.00313(11) 0.0032(1) 0.00024(8) 0.00094(8) 
0.00026(8)
Mo3 Mo2.8+ 0.00326(10) 0.00292(11) 0.00367(10) 0.00013(9) 0.00145(8) 
-0.00013(8)
Mo4 Mo2.8+ 0.00375(11) 0.00313(11) 0.00276(10) 0.00015(8) 0.00123(8) 
-0.00013(8)
Mo5 Mo2.8+ 0.00334(10) 0.00263(10) 0.00282(10) -0.00018(9) 0.00085(8) 
0.00018(8)
O1 O2- 0.0044(9) 0.0048(10) 0.0022(9) 0.0017(8) -0.0010(7) 0.0002(8)
O2 O2- 0.0045(10) 0.006(1) 0.0020(9) 0.0011(8) 0.0002(8) 0.0014(7)
O3 O2- 0.0065(10) 0.0038(10) 0.006(1) 0.0007(8) 0.0041(8) 0.0016(8)
O4 O2- 0.0033(10) 0.0047(10) 0.0061(10) 0.0005(7) 0.0015(8) 0.0014(8)
O5 O2- 0.0053(11) 0.0058(11) 0.0059(10) -0.0006(8) 0.0023(9) -0.0020(8)
O6 O2- 0.0057(11) 0.0063(10) 0.0041(10) -0.0002(8) 0.0018(8) -0.0015(8)
O7 O2- 0.0047(10) 0.0057(10) 0.0039(10) 0.0023(8) 0.0002(8) 0.0005(8)
O8 O2- 0.0067(10) 0.0046(10) 0.0069(10) -0.0010(8) 0.0044(8) 0.0008(8)
#End of data_280969-ICSD


