data_249740-ICSD
#?2014 by Fachinformationszentrum Karlsruhe, and the U.S. Secretary of 
#Commerce on behalf of the United States.  All rights reserved.
_database_code_ICSD                249740
_audit_creation_date               2009/02/01
_chemical_name_systematic
;
Potassium Hydrogensulfate(VI) Dipotassium Disulfate(VI)
;
_chemical_formula_structural       'K (H S O4) (K2 (S2 O7))'
_chemical_formula_sum              'H1 K3 O11 S3'
_publ_section_title
;
In situ crystallography of K H S O4: Probing the kinetic pathway for 
the evolution of a pyrolysis reaction in the crystalline state
;
loop_
_citation_id
_citation_journal_abbrev
_citation_year
_citation_journal_volume
_citation_journal_issue
_citation_page_first
_citation_page_last
_citation_journal_id_ASTM
primary 'Inorganic Chemistry' 2008 47 19 8613 8615 INOCAJ
_publ_author_name                  'Swain, D.;Guru Row, T.N.'
_cell_length_a                     13.4731(15)
_cell_length_b                     8.165(7)
_cell_length_c                     9.811(8)
_cell_angle_alpha                  90.00
_cell_angle_beta                   97.085(15)
_cell_angle_gamma                  90.00
_cell_volume                       1071.05
_cell_formula_units_Z              4
_symmetry_space_group_name_H-M     'P 1 21/c 1'
_symmetry_Int_Tables_number        14
_refine_ls_R_factor_all            .055
loop_
_symmetry_equiv_pos_site_id
_symmetry_equiv_pos_as_xyz
  1	'x, -y+.5, z+.5'
  2	'-x, -y, -z'
  3	'-x, y+.5, -z+.5'
  4	'x, y, z'
loop_
_atom_type_symbol
_atom_type_oxidation_number
H1+	1
K1+	1
O2-	-2
S6+	6
loop_
_atom_site_label
_atom_site_type_symbol
_atom_site_symmetry_multiplicity
_atom_site_Wyckoff_symbol
_atom_site_fract_x
_atom_site_fract_y
_atom_site_fract_z
_atom_site_occupancy
_atom_site_attached_hydrogens
_atom_site_U_iso_or_equiv
K1 K1+ 4 e 0.16848(11) 0.8566(2) 0.20812(15) 1 0 0.0370(4) 
K2 K1+ 4 e 0.18796(11) 0.3844(2) 0.35753(15) 1 0 0.0372(4) 
K3 K1+ 4 e 0.43979(11) 1.0811(2) 0.23455(15) 1 0 0.0373(4) 
S1 S6+ 4 e 0.01305(11) 0.2515(2) 0.58005(14) 1 0 0.0232(4) 
S2 S6+ 4 e 0.39521(12) 0.7301(2) 0.49007(16) 1 0 0.0289(4) 
S3 S6+ 4 e 0.29186(12) 1.0293(2) 0.55381(15) 1 0 0.0272(4) 
O1 O2- 4 e 0.0145(4) 0.2037(7) 0.4312(5) 1 0 0.0370(13) 
O2 O2- 4 e 0.0060(3) 0.0943(6) 0.6593(4) 1 0 0.0348(11) 
O3 O2- 4 e 0.1058(3) 0.3317(6) 0.6273(5) 1 0 0.0401(12) 
O4 O2- 4 e -0.0740(4) 0.3490(6) 0.5912(5) 1 0 0.0407(12) 
O5 O2- 4 e 0.3163(3) 0.6276(6) 0.5282(5) 1 0 0.0415(13) 
O6 O2- 4 e 0.4927(4) 0.6777(7) 0.5483(5) 1 0 0.0453(13) 
O7 O2- 4 e 0.3869(4) 0.7680(7) 0.3476(5) 1 0 0.0572(16) 
O8 O2- 4 e 0.3888(3) 0.9073(6) 0.5676(4) 1 0 0.0276(10) 
O9 O2- 4 e 0.2756(4) 1.0745(7) 0.4121(5) 1 0 0.0528(15) 
O10 O2- 4 e 0.3289(4) 1.1575(7) 0.6447(6) 1 0 0.0557(16) 
O11 O2- 4 e 0.2127(3) 0.9402(7) 0.6014(6) 1 0 0.0496(14) 
H1 H1+ 4 e -0.008(10) 0.127(16) 0.419(14) 1 0 0.13(6) 

loop_
_atom_site_aniso_label
_atom_site_aniso_type_symbol
_atom_site_aniso_U_11
_atom_site_aniso_U_22
_atom_site_aniso_U_33
_atom_site_aniso_U_12
_atom_site_aniso_U_13
_atom_site_aniso_U_23
K1 K1+ 0.0377(9) 0.0368(10) 0.0384(8) 0.0001(7) 0.0124(7) -0.0005(7)
K2 K1+ 0.0451(9) 0.0343(10) 0.0340(8) 0.0039(7) 0.0119(7) -0.0004(7)
K3 K1+ 0.0382(9) 0.0369(11) 0.0363(8) -0.0031(7) 0.0021(6) 0.0008(7)
S1 S6+ 0.0312(8) 0.0211(9) 0.0182(7) 0.0000(7) 0.0065(6) -0.0026(6)
S2 S6+ 0.0331(9) 0.0319(11) 0.0235(8) 0.0030(8) 0.0100(6) -0.0019(7)
S3 S6+ 0.0298(9) 0.0258(10) 0.0271(8) 0.0021(7) 0.0075(6) -0.0009(6)
O1 O2- 0.055(3) 0.033(3) 0.023(2) -0.005(3) 0.008(2) -0.005(2)
O2 O2- 0.053(3) 0.023(3) 0.031(2) 0.004(2) 0.013(2) 0.0037(19)
O3 O2- 0.041(3) 0.039(3) 0.038(3) -0.011(2) -0.002(2) -0.002(2)
O4 O2- 0.042(3) 0.038(3) 0.043(3) 0.016(2) 0.009(2) -0.003(2)
O5 O2- 0.037(3) 0.036(3) 0.053(3) -0.010(2) 0.014(2) -0.007(2)
O6 O2- 0.033(3) 0.040(4) 0.063(3) 0.009(2) 0.004(2) -0.001(3)
O7 O2- 0.096(4) 0.055(4) 0.024(3) 0.012(3) 0.021(3) -0.004(2)
O8 O2- 0.026(2) 0.030(3) 0.025(2) 0.001(2) -0.0010(17) -0.0061(19)
O9 O2- 0.068(4) 0.059(4) 0.032(3) 0.030(3) 0.008(2) 0.013(3)
O10 O2- 0.051(3) 0.046(4) 0.072(4) -0.006(3) 0.015(3) -0.034(3)
O11 O2- 0.038(3) 0.038(4) 0.078(4) -0.002(2) 0.027(3) 0.007(3)
#End of data_249740-ICSD


