data_20098-ICSD
#?2014 by Fachinformationszentrum Karlsruhe, and the U.S. Secretary of 
#Commerce on behalf of the United States.  All rights reserved.
_database_code_ICSD                20098
_audit_creation_date               1980/01/01
_audit_update_record               2012/02/01
_chemical_name_systematic
;
Potassium Sodium Iron Cyclo-tetrasilicate
;
_chemical_formula_structural       'K Na Fe (Si4 O10)'
_chemical_formula_sum              'Fe1 K1 Na1 O10 Si4'
_chemical_name_mineral             Fenaksite
_publ_section_title
;
The crystal structure of phenaxite Fe Na K (Si4 O10) (K Na Fe (Si4 
O10))
;
loop_
_citation_id
_citation_journal_abbrev
_citation_year
_citation_journal_volume
_citation_page_first
_citation_page_last
_citation_journal_id_ASTM
primary 'Doklady Akademii Nauk SSSR' 1970 194 818 820 DANKAS
_publ_author_name
;
Golovachev, V.P.;Drozdov, Yu.N.;Kuz'min, E.A.;Belov, N.V.
;
_cell_length_a                     6.98
_cell_length_b                     8.24
_cell_length_c                     9.98
_cell_angle_alpha                  114.2
_cell_angle_beta                   80.23
_cell_angle_gamma                  115.6
_cell_volume                       472.14
_cell_formula_units_Z              2
_symmetry_space_group_name_H-M     'P -1'
_symmetry_Int_Tables_number        2
_refine_ls_R_factor_all            .148
loop_
_symmetry_equiv_pos_site_id
_symmetry_equiv_pos_as_xyz
  1	'-x, -y, -z'
  2	'x, y, z'
loop_
_atom_type_symbol
_atom_type_oxidation_number
Fe2+	2
K1+	1
Na1+	1
O2-	-2
Si4+	4
loop_
_atom_site_label
_atom_site_type_symbol
_atom_site_symmetry_multiplicity
_atom_site_Wyckoff_symbol
_atom_site_fract_x
_atom_site_fract_y
_atom_site_fract_z
_atom_site_occupancy
_atom_site_attached_hydrogens
_atom_site_B_iso_or_equiv
K1 K1+ 2 i 0.14 0.809 0.01 1. 0 0.6 
Na1 Na1+ 2 i 0.525 0.27 0.41 1. 0 0.6 
Fe1 Fe2+ 2 i 0.049 0.299 0.407 1. 0 0.6 
Si1 Si4+ 2 i 0.669 0.913 0.213 1. 0 0.6 
Si2 Si4+ 2 i 0.23 0.631 0.27 1. 0 0.6 
Si3 Si4+ 2 i 0.38 0.304 0.131 1. 0 0.6 
Si4 Si4+ 2 i 0.803 0.632 0.273 1. 0 0.6 
O1 O2- 2 i 0.63 0.856 0.041 1. 0 0.6 
O2 O2- 2 i 0.294 0.457 0.133 1. 0 0.6 
O3 O2- 2 i 0.632 0.424 0.167 1. 0 0.6 
O4 O2- 2 i 0.431 0.838 0.286 1. 0 0.6 
O5 O2- 2 i 0.791 0.798 0.23 1. 0 0.6 
O6 O2- 2 i 0.79 0.139 0.28 1. 0 0.6 
O7 O2- 2 i 0.033 0.629 0.205 1. 0 0.6 
O8 O2- 2 i 0.175 0.589 0.418 1. 0 0.6 
O9 O2- 2 i 0.76 0.655 0.436 1. 0 0.6 
O10 O2- 2 i 0.251 0.192 0.237 1. 0 0.6 

#End of data_20098-ICSD


