data_162073-ICSD
#?2014 by Fachinformationszentrum Karlsruhe, and the U.S. Secretary of 
#Commerce on behalf of the United States.  All rights reserved.
_database_code_ICSD                162073
_audit_creation_date               2009/02/01
_chemical_name_systematic          'Dilead Hexafluorozincate - Beta'
_chemical_formula_structural       'Pb2 (Zn F6)'
_chemical_formula_sum              'F6 Pb2 Zn1'
_publ_section_title
;
Structure determination of beta-(Pb2 Zn F6) by counting multinuclear 
solid state NMR, powder XRD and ab initio calculations
;
loop_
_citation_id
_citation_journal_abbrev
_citation_year
_citation_journal_volume
_citation_page_first
_citation_page_last
_citation_journal_id_ASTM
primary 'Dalton Transactions' 2008 2008 6150 6158 DTARAF
_publ_author_name
;
Martineau, C.;Fayon, F.;Legein, C.;Buzare, J.Y.;Body, M.;Massiot, 
D.;Goutenoire, F.
;
_cell_length_a                     5.6325
_cell_length_b                     5.6325
_cell_length_c                     16.2474
_cell_angle_alpha                  90.
_cell_angle_beta                   90.
_cell_angle_gamma                  90.
_cell_volume                       515.45
_cell_formula_units_Z              4
_symmetry_space_group_name_H-M     'P 42/n c m Z'
_symmetry_Int_Tables_number        138
loop_
_symmetry_equiv_pos_site_id
_symmetry_equiv_pos_as_xyz
  1	'y+.5, x+.5, -z'
  2	'y+.5, -x, -z+.5'
  3	'-y, x+.5, -z+.5'
  4	'-y, -x, -z'
  5	'x+.5, y+.5, -z'
  6	'-x, y+.5, -z+.5'
  7	'x+.5, -y, -z+.5'
  8	'-x, -y, -z'
  9	'-y+.5, -x+.5, z'
 10	'-y+.5, x, z+.5'
 11	'y, -x+.5, z+.5'
 12	'y, x, z'
 13	'-x+.5, -y+.5, z'
 14	'x, -y+.5, z+.5'
 15	'-x+.5, y, z+.5'
 16	'x, y, z'
loop_
_atom_type_symbol
_atom_type_oxidation_number
F1-	-1
Pb2+	2
Zn2+	2
loop_
_atom_site_label
_atom_site_type_symbol
_atom_site_symmetry_multiplicity
_atom_site_Wyckoff_symbol
_atom_site_fract_x
_atom_site_fract_y
_atom_site_fract_z
_atom_site_occupancy
_atom_site_attached_hydrogens
Pb1 Pb2+ 8 i 0.9927 0.9927 0.1558 1.000 0 
Zn1 Zn2+ 4 c 0.0000 0.0000 0.5000 1.000 0 
F1 F1- 8 i 0.0568 0.0568 0.3791 1.000 0 
F2 F1- 4 a 0.7500 0.2500 0.0000 1.000 0 
F3 F1- 4 e 0.2500 0.2500 0.0381 1.000 0 
F4 F1- 4 b 0.7500 0.2500 0.7500 1.000 0 
F5 F1- 4 e 0.2500 0.2500 0.2413 1.000 0 

#End of data_162073-ICSD


