data_71114-ICSD
#?2014 by Fachinformationszentrum Karlsruhe, and the U.S. Secretary of 
#Commerce on behalf of the United States.  All rights reserved.
_database_code_ICSD                71114
_audit_creation_date               1993/01/06
_audit_update_record               2003/04/01
_chemical_name_systematic          'Aluminium Boron Oxide (20/4/36)'
_chemical_formula_structural       'Al20 B4 O36'
_chemical_formula_sum              'Al20 B4 O36'
_publ_section_title
;
Incorporation of chromium into aluminium borate 9Al2 O3 . 2B2 O3 (A9 
B2)
;
loop_
_citation_id
_citation_journal_abbrev
_citation_year
_citation_journal_volume
_citation_page_first
_citation_page_last
_citation_journal_id_ASTM
primary 'European Journal of Mineralogy' 1991 3 793 808 EJMIER
_publ_author_name
;
Garsche, M.;Tillmanns, E.;Almen, H.;Schneider, H.;Kupcik, V.
;
_cell_length_a                     7.687(3)
_cell_length_b                     15.010(3)
_cell_length_c                     5.670(3)
_cell_angle_alpha                  90.
_cell_angle_beta                   90.
_cell_angle_gamma                  90.
_cell_volume                       654.22
_cell_formula_units_Z              1
_symmetry_space_group_name_H-M     'A 21 a m'
_symmetry_Int_Tables_number        36
_refine_ls_R_factor_all            .055
loop_
_symmetry_equiv_pos_site_id
_symmetry_equiv_pos_as_xyz
  1	'x+.5, -y, z'
  2	'x+.5, -y, -z'
  3	'x, y, -z'
  4	'x, y, z'
  5	'x+.5, -y+.5, z+.5'
  6	'x+.5, -y+.5, -z+.5'
  7	'x, y+.5, -z+.5'
  8	'x, y+.5, z+.5'
loop_
_atom_type_symbol
_atom_type_oxidation_number
Al3+	3
B3+	3
O2-	-2
loop_
_atom_site_label
_atom_site_type_symbol
_atom_site_symmetry_multiplicity
_atom_site_Wyckoff_symbol
_atom_site_fract_x
_atom_site_fract_y
_atom_site_fract_z
_atom_site_occupancy
_atom_site_attached_hydrogens
_atom_site_B_iso_or_equiv
B1 B3+ 4 a 0.7210(6) 0.0156(3) 0 1. 0 0.33 
Al1 Al3+ 8 b 0.5 0.3838(1) 0.2481(2) 1. 0 0.35 
Al2 Al3+ 4 a 0.6858(3) 0.2444(1) 0.5 1. 0 0.41 
Al3 Al3+ 4 a 0.6822(3) 0.0562(1) 0.5 1. 0 0.37 
Al4 Al3+ 4 a 0.8342(3) 0.2967(1) 0 1. 0 0.37 
O1 O2- 8 b 0.7845(3) 0.0483(2) 0.2110(4) 1. 0 0.58 
O2 O2- 8 b 0.7002(4) 0.3096(2) 0.2430(4) 1. 0 0.48 
O3 O2- 4 a 0.5391(5) 0.1487(2) 0.5 1. 0 0.53 
O4 O2- 4 a 0.9345(5) 0.1912(2) 0 1. 0 0.4 
O5 O2- 4 a 0.8695(5) 0.1670(2) 0.5 1. 0 0.57 
O6 O2- 4 a 0.5708(6) 0.4543(2) 0 1. 0 0.57 
O7 O2- 4 a 0.5923(5) 0.4537(2) 0.5 1. 0 0.43 

#End of data_71114-ICSD


