data_80823-ICSD
#?2014 by Fachinformationszentrum Karlsruhe, and the U.S. Secretary of 
#Commerce on behalf of the United States.  All rights reserved.
_database_code_ICSD                80823
_audit_creation_date               1997/05/13
_chemical_name_systematic
;
Trizinc Diiron(III) Hexakis(selenate(IV))
;
_chemical_formula_structural       'Zn3 Fe2 (Se O3)6'
_chemical_formula_sum              'Fe2 O18 Se6 Zn3'
_publ_section_title
;
The crystal structures of the isotypic compounds M3(2+) Fe2(3+) (Se 
O3)6 (M=Cu,Zn)
;
loop_
_citation_id
_citation_journal_abbrev
_citation_year
_citation_journal_volume
_citation_page_first
_citation_page_last
_citation_journal_id_ASTM
primary 'Acta Chemica Scandinavica (43,1989-)' 1995 49 824 828 ACHSE7
_publ_author_name                  'Giester, G.'
_cell_length_a                     12.491(8)
_cell_length_b                     8.331(5)
_cell_length_c                     7.696(5)
_cell_angle_alpha                  90.
_cell_angle_beta                   95.96(4)
_cell_angle_gamma                  90.
_cell_volume                       796.54
_cell_formula_units_Z              2
_symmetry_space_group_name_H-M     'P 1 21/c 1'
_symmetry_Int_Tables_number        14
_refine_ls_R_factor_all            .034
loop_
_symmetry_equiv_pos_site_id
_symmetry_equiv_pos_as_xyz
  1	'x, -y+.5, z+.5'
  2	'-x, -y, -z'
  3	'-x, y+.5, -z+.5'
  4	'x, y, z'
loop_
_atom_type_symbol
_atom_type_oxidation_number
Fe3+	3
O2-	-2
Se4+	4
Zn2+	2
loop_
_atom_site_label
_atom_site_type_symbol
_atom_site_symmetry_multiplicity
_atom_site_Wyckoff_symbol
_atom_site_fract_x
_atom_site_fract_y
_atom_site_fract_z
_atom_site_occupancy
_atom_site_attached_hydrogens
_atom_site_U_iso_or_equiv
Zn1 Zn2+ 2 d 0.5 0 0.5 1. 0 0.0250(4) 
Zn2 Zn2+ 4 e 0.37701(7) 0.10203(11) 0.11502(14) 1. 0 0.0192(3) 
Fe1 Fe3+ 4 e 0.82909(9) 0.00379(13) 0.1418(2) 1. 0 0.0170(3) 
Se1 Se4+ 4 e 0.22028(6) 0.09796(9) 0.44156(12) 1. 0 0.0155(2) 
Se2 Se4+ 4 e 0.95417(6) 0.19788(9) 0.86374(12) 1. 0 0.0173(2) 
Se3 Se4+ 4 e 0.60487(6) 0.17947(9) 0.18258(12) 1. 0 0.0161(2) 
O1 O2- 4 e 0.2473(4) 0.0209(6) 0.6426(8) 1. 0 0.0236(15) 
O2 O2- 4 e 0.3355(4) 0.0431(6) 0.3572(8) 1. 0 0.0175(13) 
O3 O2- 4 e 0.2465(4) 0.2995(6) 0.4805(9) 1. 0 0.0223(14) 
O4 O2- 4 e 0.8673(5) 0.2692(6) 0.6973(9) 1. 0 0.0234(15) 
O5 O2- 4 e 0.8849(4) 0.0300(6) 0.9142(8) 1. 0 0.0185(14) 
O6 O2- 4 e 0.0481(4) 0.1122(6) 0.7460(8) 1. 0 0.0236(14) 
O7 O2- 4 e 0.5251(4) 0.0265(6) 0.2402(8) 1. 0 0.0205(14) 
O8 O2- 4 e 0.6778(4) 0.0887(6) 0.0342(8) 1. 0 0.0167(13) 
O9 O2- 4 e 0.5022(4) 0.2604(4) 0.0443(8) 1. 0 0.0190(14) 

#End of data_80823-ICSD


