data_404097-ICSD
#?2014 by Fachinformationszentrum Karlsruhe, and the U.S. Secretary of 
#Commerce on behalf of the United States.  All rights reserved.
_database_code_ICSD                404097
_audit_creation_date               1996/10/14
_audit_update_record               2000/07/15
_chemical_name_systematic
;
Tetrapotassium Cadmium 15-oxochloropentavanadate
;
_chemical_formula_structural       'K4 Cd (V5 O15 Cl)'
_chemical_formula_sum              'Cd1 Cl1 K4 O15 V5'
_publ_section_title
;
Zur Kenntnis des ersten Alkalimetall-Cadmium-Halogeno-Oxovanadats: K4 
Cd V5 O15 Cl
;
loop_
_citation_id
_citation_journal_abbrev
_citation_year
_citation_journal_volume
_citation_page_first
_citation_page_last
_citation_journal_id_ASTM
primary 'Zeitschrift fuer Naturforschung, B: Chemical Sciences'
 1996 51 493 497 ZNBSEN
_publ_author_name                  'Mueller Buschbaum, H.;Muenchau, S.'
_cell_length_a                     9.097(1)
_cell_length_b                     9.097(1)
_cell_length_c                     5.331(2)
_cell_angle_alpha                  90.
_cell_angle_beta                   90.
_cell_angle_gamma                  90.
_cell_volume                       441.17
_cell_formula_units_Z              1
_symmetry_space_group_name_H-M     'P 4'
_symmetry_Int_Tables_number        75
_refine_ls_R_factor_all            .1429
loop_
_symmetry_equiv_pos_site_id
_symmetry_equiv_pos_as_xyz
  1	'-y, x, z'
  2	'y, -x, z'
  3	'-x, -y, z'
  4	'x, y, z'
loop_
_atom_type_symbol
_atom_type_oxidation_number
Cd2+	2
Cl1-	-1
K1+	1
O2-	-2
V5+	5
loop_
_atom_site_label
_atom_site_type_symbol
_atom_site_symmetry_multiplicity
_atom_site_Wyckoff_symbol
_atom_site_fract_x
_atom_site_fract_y
_atom_site_fract_z
_atom_site_occupancy
_atom_site_attached_hydrogens
K1 K1+ 4 d 0.67446(5) 0.16704(5) 0.41955(9) 1. 0 
Cd1 Cd2+ 1 a 0 0 0.84051(5) 1. 0 
V1 V5+ 4 d 0.38401(3) 0.14370(3) 0.89430(6) 1. 0 
V2 V5+ 1 b 0.5 0.5 0.8599(2) 1. 0 
Cl1 Cl1- 1 a 0 0 0.3257(2) 1. 0 
O1 O2- 4 d 0.38859(14) 0.1443(2) 0.2014(2) 1. 0 
O2 O2- 4 d 0.21352(14) 0.1187(2) 0.7983(3) 1. 0 
O3 O2- 4 d 0.45109(15) 0.30833(14) 0.7680(2) 1. 0 
O4 O2- 2 c 0.5 0 0.7782(3) 1. 0 
O5 O2- 1 b 0.5 0.5 0.1651(5) 1. 0 

loop_
_atom_site_aniso_label
_atom_site_aniso_type_symbol
_atom_site_aniso_U_11
_atom_site_aniso_U_22
_atom_site_aniso_U_33
_atom_site_aniso_U_12
_atom_site_aniso_U_13
_atom_site_aniso_U_23
K1 K1+ 0.0258(2) 0.0431(3) 0.0199(2) -.0098(2) -.0027(2) 0.0029(2)
Cd1 Cd2+ 0.01230(6) 0.01230(6) 0.00721(12) 0 0 0
V1 V5+ 0.01426(12) 0.01278(12) 0.0149(2) -.00146(12) -.0010(2) 0.0001(2)
V2 V5+ 0.00978(15) 0.00978(15) 0.0209(4) 0 0 0
Cl1 Cl1- 0.0270(3) 0.0270(3) 0.0138(5) 0 0 0
O1 O2- 0.0231(7) 0.0171(7) 0.0144(7) 0.0012(7) -.0014(6) 0.0013(6)
O2 O2- 0.0219(7) 0.0541(9) 0.0336(9) -.0203(6) -.0146(7) 0.0265(7)
O3 O2- 0.0387(8) 0.0144(7) 0.0310(9) -.0103(7) 0.0063(7) -.0009(6)
O4 O2- 0.0344(11) 0.0324(11) 0.0285(14) 0.0093(11) 0 0
O5 O2- 0.0233(10) 0.0233(10) 0.015(2) 0 0 0
#End of data_404097-ICSD


