data_420663-ICSD
#?2014 by Fachinformationszentrum Karlsruhe, and the U.S. Secretary of 
#Commerce on behalf of the United States.  All rights reserved.
_database_code_ICSD                420663
_audit_creation_date               2010/08/01
_chemical_name_systematic
;
Potassium Manganese(II/III) Oxide (29/17/34)
;
_chemical_formula_structural       'K29 Mn17 O34'
_chemical_formula_sum              'K29 Mn17 O34'
_publ_section_title
;
The chain manganates K29 Mn17 O34, Rb11 Mn8O 16 and Cs4 Mn3 O6: A new 
family of mixed-valent one-dimensional transitionmetalates
;
loop_
_citation_id
_citation_journal_abbrev
_citation_year
_citation_journal_volume
_citation_journal_issue
_citation_page_first
_citation_page_last
_citation_journal_id_ASTM
primary 'Zeitschrift fuer Anorganische und Allgemeine Chemie (1950) (DE)'
 2010 636 1 23 29 ZAACAB
_publ_author_name                  'Pfeiffer, S.;Nuss, J.;Jansen, M.'
_cell_length_a                     93.149(3)
_cell_length_b                     10.0063(3)
_cell_length_c                     6.0621(2)
_cell_angle_alpha                  90.00
_cell_angle_beta                   90.00
_cell_angle_gamma                  90.00
_cell_volume                       5650.34
_cell_formula_units_Z              4
_symmetry_space_group_name_H-M     'I m a 2'
_symmetry_Int_Tables_number        46
_refine_ls_R_factor_all            .0571
loop_
_symmetry_equiv_pos_site_id
_symmetry_equiv_pos_as_xyz
  1	'x+.5, -y, z'
  2	'-x+.5, y, z'
  3	'-x, -y, z'
  4	'x, y, z'
  5	'x, -y+.5, z+.5'
  6	'-x, y+.5, z+.5'
  7	'-x+.5, -y+.5, z+.5'
  8	'x+.5, y+.5, z+.5'
loop_
_atom_type_symbol
_atom_type_oxidation_number
K1+	1
Mn2.3+	2.3
O2-	-2
loop_
_atom_site_label
_atom_site_type_symbol
_atom_site_symmetry_multiplicity
_atom_site_Wyckoff_symbol
_atom_site_fract_x
_atom_site_fract_y
_atom_site_fract_z
_atom_site_occupancy
_atom_site_attached_hydrogens
_atom_site_U_iso_or_equiv
Mn1 Mn2.3+ 8 c 0.029300(9) 0.51000(8) 0.53028(15) 1 0 0.0161(2) 
Mn2 Mn2.3+ 8 c 0.176456(10) 0.49274(10) 0.42181(17) 1 0 0.0251(3) 
Mn3 Mn2.3+ 8 c 0.205809(11) 0.50141(12) 0.49678(17) 1 0 0.0295(3) 
Mn4 Mn2.3+ 8 c 0.117424(10) 0.49397(9) 0.52075(16) 1 0 0.0211(2) 
Mn5 Mn2.3+ 8 c 0.146922(12) 0.48680(9) 0.4664(2) 1 0 0.0269(2) 
Mn6 Mn2.3+ 8 c 0.059010(10) 0.51264(9) 0.50596(18) 1 0 0.0212(2) 
Mn7 Mn2.3+ 4 a 0.0000 0.5000 0.4567(2) 1 0 0.0143(3) 
Mn8 Mn2.3+ 8 c 0.235272(11) 0.51178(12) 0.4304(2) 1 0 0.0346(3) 
Mn9 Mn2.3+ 8 c 0.088269(9) 0.50312(9) 0.44247(17) 1 0 0.0172(2) 
K1 K1+ 8 c 0.043584(16) 0.33838(14) 0.1203(3) 1 0 0.0294(3) 
K2 K1+ 8 c 0.130137(17) 0.65896(19) 0.0899(3) 1 0 0.0425(5) 
K3 K1+ 8 c 0.21608(2) 0.3401(2) 0.0466(3) 1 0 0.0608(6) 
K4 K1+ 8 c 0.19798(2) 0.6639(2) 0.0360(3) 1 0 0.0552(5) 
K5 K1+ 8 c 0.11219(2) 0.33673(18) 0.0474(3) 1 0 0.0514(5) 
K6 K1+ 8 c 0.18219(2) 0.1631(2) 0.3956(4) 1 0 0.0581(6) 
K7 K1+ 8 c 0.09545(2) 0.66590(17) 0.9047(3) 1 0 0.0457(5) 
K8 K1+ 8 c 0.23268(2) 0.6626(3) 0.9207(4) 1 0 0.0710(7) 
K9 K1+ 8 c 0.02531(2) 0.66143(19) 0.0516(3) 1 0 0.0546(6) 
K10 K1+ 8 c 0.00915(2) 0.33707(17) 0.9107(3) 1 0 0.0455(5) 
K11 K1+ 8 c 0.14761(2) 0.33915(19) 0.9733(4) 1 0 0.0576(5) 
K12 K1+ 8 c 0.06071(2) 0.8411(2) 0.5097(3) 1 0 0.0483(5) 
K13 K1+ 8 c 0.077135(19) 0.34042(16) -0.1163(3) 1 0 0.0425(4) 
K14 K1+ 8 c 0.163700(18) 0.65992(19) -0.1505(3) 1 0 0.0431(5) 
K15 K1+ 4 b 0.2500 0.3392(3) 0.8300(5) 1 0 0.0458(7) 
O1 O2- 8 c 0.18853(5) 0.5917(5) 0.6493(8) 1 0 0.0319(12) 
O2 O2- 8 c 0.10098(5) 0.4001(5) 0.6694(8) 1 0 0.0338(12) 
O3 O2- 8 c 0.01734(5) 0.4158(5) 0.3093(8) 1 0 0.0280(11) 
O4 O2- 8 c 0.10504(5) 0.5910(5) 0.3008(9) 1 0 0.0349(13) 
O5 O2- 8 c 0.22339(6) 0.4081(6) 0.6393(11) 1 0 0.0556(17) 
O6 O2- 8 c 0.07084(5) 0.4127(6) 0.2987(10) 1 0 0.0438(14) 
O7 O2- 8 c 0.04495(6) 0.4332(6) 0.7154(9) 1 0 0.0494(14) 
O8 O2- 8 c 0.19288(6) 0.3983(6) 0.2907(11) 1 0 0.0549(17) 
O9 O2- 8 c 0.04398(5) 0.6172(5) 0.3702(9) 1 0 0.0425(12) 
O10 O2- 8 c 0.01333(4) 0.5964(5) 0.6810(8) 1 0 0.0272(11) 
O11 O2- 8 c 0.13493(6) 0.5762(6) 0.6768(11) 1 0 0.0517(15) 
O12 O2- 8 c 0.15917(6) 0.5845(6) 0.2766(12) 1 0 0.0553(16) 
O13 O2- 4 b 0.2500 0.6076(9) 0.5981(16) 1 0 0.054(2) 
O14 O2- 8 c 0.16238(5) 0.4011(6) 0.6250(11) 1 0 0.0486(16) 
O15 O2- 4 b 0.2500 0.4266(13) 0.256(2) 1 0 0.098(3) 
O16 O2- 8 c 0.07446(5) 0.6073(6) 0.6516(10) 1 0 0.0441(14) 
O17 O2- 8 c 0.13173(5) 0.3772(6) 0.3594(11) 1 0 0.0489(15) 
O18 O2- 8 c 0.21917(7) 0.6175(7) 0.3197(12) 1 0 0.0630(18) 

loop_
_atom_site_aniso_label
_atom_site_aniso_type_symbol
_atom_site_aniso_U_11
_atom_site_aniso_U_22
_atom_site_aniso_U_33
_atom_site_aniso_U_12
_atom_site_aniso_U_13
_atom_site_aniso_U_23
Mn1 Mn2.3+ 0.0110(4) 0.0136(4) 0.0238(4) -0.0007(3) 0.0030(3) -0.0025(4)
Mn2 Mn2.3+ 0.0219(5) 0.0288(5) 0.0246(6) -0.0009(4) -0.0002(4) -0.0023(5)
Mn3 Mn2.3+ 0.0317(5) 0.0339(5) 0.0228(5) -0.0050(4) -0.0036(4) 0.0013(5)
Mn4 Mn2.3+ 0.0203(5) 0.0226(5) 0.0203(5) 0.0034(3) 0.0034(4) -0.0009(4)
Mn5 Mn2.3+ 0.0169(4) 0.0318(4) 0.0320(4) 0.0041(4) -0.0032(3) 0.0013(6)
Mn6 Mn2.3+ 0.0165(4) 0.0144(4) 0.0325(5) 0.0010(3) -0.0027(3) -0.0067(4)
Mn7 Mn2.3+ 0.0140(5) 0.0108(5) 0.0181(6) -0.0021(4) 0.000 0.000
Mn8 Mn2.3+ 0.0260(5) 0.0406(6) 0.0372(6) -0.0042(4) -0.0095(5) 0.0038(6)
Mn9 Mn2.3+ 0.0153(4) 0.0172(4) 0.0191(5) 0.0004(3) 0.0001(4) 0.0012(4)
K1 K1+ 0.0331(7) 0.0260(6) 0.0291(7) -0.0058(6) 0.0073(6) -0.0060(6)
K2 K1+ 0.0375(8) 0.0448(10) 0.0454(9) 0.0001(7) 0.0184(7) 0.0024(8)
K3 K1+ 0.0697(11) 0.0588(12) 0.0540(11) 0.0157(9) 0.0380(9) 0.0125(10)
K4 K1+ 0.0703(11) 0.0517(10) 0.0434(10) 0.0255(9) -0.0260(9) -0.0074(9)
K5 K1+ 0.0792(12) 0.0329(8) 0.0421(10) 0.0022(8) -0.0272(9) -0.0092(8)
K6 K1+ 0.0762(12) 0.0538(11) 0.0444(10) -0.0036(10) -0.0273(10) 0.0085(10)
K7 K1+ 0.0741(11) 0.0302(8) 0.0327(9) -0.0151(8) -0.0253(8) 0.0121(8)
K8 K1+ 0.0777(12) 0.0749(14) 0.0603(12) -0.0169(11) 0.0396(10) 0.0073(11)
K9 K1+ 0.0791(12) 0.0403(9) 0.0443(11) -0.0223(9) -0.0274(9) 0.0133(9)
K10 K1+ 0.0680(10) 0.0322(8) 0.0363(9) 0.0201(7) -0.0259(8) -0.0123(8)
K11 K1+ 0.0546(9) 0.0685(11) 0.0496(8) -0.0123(10) 0.0260(7) -0.0154(13)
K12 K1+ 0.0543(10) 0.0524(10) 0.0382(8) -0.0108(8) 0.0241(8) -0.0012(9)
K13 K1+ 0.0616(10) 0.0247(7) 0.0412(9) -0.0018(7) 0.0279(8) 0.0075(8)
K14 K1+ 0.0437(9) 0.0455(10) 0.0401(10) -0.0070(7) 0.0125(7) -0.0110(9)
K15 K1+ 0.0440(13) 0.0475(14) 0.0460(14) 0.000 0.000 0.0066(13)
O1 O2- 0.024(2) 0.039(2) 0.033(2) 0.0019(17) -0.0002(17) -0.010(2)
O2 O2- 0.0191(19) 0.048(2) 0.034(2) 0.0012(17) 0.0068(16) 0.026(2)
O3 O2- 0.024(2) 0.035(2) 0.026(2) -0.0025(17) 0.0039(16) -0.0208(18)
O4 O2- 0.035(2) 0.039(2) 0.031(2) -0.0005(19) 0.0011(19) 0.015(2)
O5 O2- 0.048(3) 0.061(3) 0.058(3) 0.002(2) -0.001(2) 0.015(3)
O6 O2- 0.033(2) 0.050(3) 0.049(3) 0.007(2) -0.008(2) -0.033(2)
O7 O2- 0.061(3) 0.049(2) 0.039(2) -0.005(2) -0.016(2) 0.025(2)
O8 O2- 0.049(3) 0.060(3) 0.056(3) 0.004(2) 0.000(2) -0.024(3)
O9 O2- 0.0215(19) 0.056(2) 0.050(2) 0.0054(19) 0.0038(19) 0.034(2)
O10 O2- 0.0031(16) 0.046(2) 0.032(2) -0.0043(15) -0.0008(14) -0.0234(19)
O11 O2- 0.038(2) 0.061(3) 0.055(3) 0.004(2) -0.012(2) -0.026(2)
O12 O2- 0.050(3) 0.055(3) 0.061(3) -0.010(2) -0.015(2) 0.028(3)
O13 O2- 0.047(3) 0.058(4) 0.056(4) 0.000 0.000 -0.014(3)
O14 O2- 0.035(2) 0.057(3) 0.054(3) 0.006(2) 0.000(2) 0.023(3)
O15 O2- 0.105(4) 0.094(4) 0.095(5) 0.000 0.000 -0.010(4)
O16 O2- 0.023(2) 0.059(3) 0.051(3) -0.001(2) 0.0040(19) -0.026(2)
O17 O2- 0.032(2) 0.059(3) 0.056(3) -0.001(2) -0.001(2) -0.030(2)
O18 O2- 0.050(3) 0.074(3) 0.065(3) -0.005(2) 0.000(2) 0.025(3)
#End of data_420663-ICSD


