data_47223-ICSD
#?2014 by Fachinformationszentrum Karlsruhe, and the U.S. Secretary of 
#Commerce on behalf of the United States.  All rights reserved.
_database_code_ICSD                47223
_audit_creation_date               1986/04/06
_audit_update_record               2012/02/01
_chemical_name_systematic          'Tetrapotassium Iridate(IV)'
_chemical_formula_structural       'K4 (Ir O4)'
_chemical_formula_sum              'Ir1 K4 O4'
_publ_section_title
;
Die Koordinationszahl 4 bei Ir4+: K4 (Ir O4)
;
loop_
_citation_id
_citation_journal_abbrev
_citation_year
_citation_journal_volume
_citation_page_first
_citation_page_last
_citation_journal_id_ASTM
primary Naturwissenschaften 1985 72 327 328 NATWAY
2 Naturwissenschaften 1985 72 442 442 NATWAY
_publ_author_name                  'Kroeschell, P.;Hoppe, R.'
_cell_length_a                     9.1727(16)
_cell_length_b                     6.3279(6)
_cell_length_c                     6.1261(9)
_cell_angle_alpha                  90.
_cell_angle_beta                   105.50(2)
_cell_angle_gamma                  90.
_cell_volume                       342.65
_cell_formula_units_Z              2
_symmetry_space_group_name_H-M     'C 1 2/m 1'
_symmetry_Int_Tables_number        12
_refine_ls_R_factor_all            .0772
loop_
_symmetry_equiv_pos_site_id
_symmetry_equiv_pos_as_xyz
  1	'-x, y, -z'
  2	'-x, -y, -z'
  3	'x, -y, z'
  4	'x, y, z'
  5	'-x+.5, y+.5, -z'
  6	'-x+.5, -y+.5, -z'
  7	'x+.5, -y+.5, z'
  8	'x+.5, y+.5, z'
loop_
_atom_type_symbol
_atom_type_oxidation_number
Ir4+	4
K1+	1
O2-	-2
loop_
_atom_site_label
_atom_site_type_symbol
_atom_site_symmetry_multiplicity
_atom_site_Wyckoff_symbol
_atom_site_fract_x
_atom_site_fract_y
_atom_site_fract_z
_atom_site_occupancy
_atom_site_attached_hydrogens
Ir1 Ir4+ 2 a 0 0 0 1. 0 
K1 K1+ 4 i 0.1925(5) 0 0.5892(7) 1. 0 
K2 K1+ 4 i 0.3788(5) 0 0.1423(8) 1. 0 
O1 O2- 8 j 0.3914(13) 0.2887(18) 0.7990(16) 1. 0 

loop_
_atom_site_aniso_label
_atom_site_aniso_type_symbol
_atom_site_aniso_U_11
_atom_site_aniso_U_22
_atom_site_aniso_U_33
_atom_site_aniso_U_12
_atom_site_aniso_U_13
_atom_site_aniso_U_23
Ir1 Ir4+ 0.0151(4) 0.0090(4) 0.0096(4) 0 -.0051(3) 0
K1 K1+ 0.0287(19) 0.0210(19) 0.0167(16) 0 -.0039(14) 0
K2 K1+ 0.0233(16) 0.0190(16) 0.0254(18) 0 0.0014(14) 0
O1 O2- 0.0316(42) 0.0234(41) 0.0144(34) -.0036(36) -.0082(31) -.0034(32)
#End of data_47223-ICSD


