data_87596-ICSD
#?2014 by Fachinformationszentrum Karlsruhe, and the U.S. Secretary of 
#Commerce on behalf of the United States.  All rights reserved.
_database_code_ICSD                87596
_audit_creation_date               2000/12/16
_chemical_name_systematic          'Dilithium Oxotitanium Silicate'
_chemical_formula_structural       'Li2 (Ti O) (Si O4)'
_chemical_formula_sum              'Li2 O5 Si1 Ti1'
_publ_section_title
;
A study of Li2 Ti O Si O4 and Li2 Ti O Ge O4 by X-ray powder and 
electron single-crystal diffraction, (17)O MAS NMR and O K-edge and 
Ti L2,3-edge EELS
;
loop_
_citation_id
_citation_journal_abbrev
_citation_year
_citation_journal_volume
_citation_page_first
_citation_page_last
_citation_journal_id_ASTM
primary 'Acta Crystallographica. Section A: Foundations of Crystallography'
 1999 55 127 132 ACACEQ
_publ_author_name
;
Bastow, T.J.;Botton, G.A.;Etheridge, J.;Smith, M.E.;Whitfield, H.J.
;
_cell_length_a                     6.4379(2)
_cell_length_b                     6.4379(2)
_cell_length_c                     4.4003(2)
_cell_angle_alpha                  90.
_cell_angle_beta                   90.
_cell_angle_gamma                  90.
_cell_volume                       182.38
_cell_formula_units_Z              2
_symmetry_space_group_name_H-M     'P 4/n m m Z'
_symmetry_Int_Tables_number        129
_refine_ls_R_factor_all            .115
loop_
_symmetry_equiv_pos_site_id
_symmetry_equiv_pos_as_xyz
  1	'y+.5, x+.5, -z'
  2	'-y, x+.5, -z'
  3	'y+.5, -x, -z'
  4	'-y, -x, -z'
  5	'x+.5, y+.5, -z'
  6	'-x, y+.5, -z'
  7	'x+.5, -y, -z'
  8	'-x, -y, -z'
  9	'-y+.5, -x+.5, z'
 10	'y, -x+.5, z'
 11	'-y+.5, x, z'
 12	'y, x, z'
 13	'-x+.5, -y+.5, z'
 14	'x, -y+.5, z'
 15	'-x+.5, y, z'
 16	'x, y, z'
loop_
_atom_type_symbol
_atom_type_oxidation_number
Li1+	1
O2-	-2
Si4+	4
Ti4+	4
loop_
_atom_site_label
_atom_site_type_symbol
_atom_site_symmetry_multiplicity
_atom_site_Wyckoff_symbol
_atom_site_fract_x
_atom_site_fract_y
_atom_site_fract_z
_atom_site_occupancy
_atom_site_attached_hydrogens
_atom_site_B_iso_or_equiv
Ti1 Ti4+ 2 c 0.25 0.25 0.076 1. 0 0.5 
Li1 Li1+ 4 e 0 0 0.5 1. 0 0.5 
Si1 Si4+ 2 a 0.75 0.25 0 1. 0 0.5 
O1 O2- 8 i 0.25 0.957 0.213 1. 0 0.5 
O2 O2- 2 c 0.25 0.25 0.7 1. 0 0.5 

#End of data_87596-ICSD


