data_604743-ICSD
#?2014 by Fachinformationszentrum Karlsruhe, and the U.S. Secretary of 
#Commerce on behalf of the United States.  All rights reserved.
_database_code_ICSD                604743
_audit_creation_date               2012/02/01
_chemical_name_systematic
;
Heptasilver Tetrathioarsenate(V) Disulfide
;
_chemical_formula_structural       'Ag7 (As S4) S2'
_chemical_formula_sum              'Ag7 As1 S6'
_publ_section_title
;
The argyrodites - a new family of tetrahedrally close-packed 
structures
;
loop_
_citation_id
_citation_journal_abbrev
_citation_year
_citation_journal_volume
_citation_page_first
_citation_page_last
_citation_journal_id_ASTM
primary 'Materials Research Bulletin' 1979 14 241 248 MRBUAC
2 'Materials Research Bulletin' 1979 14 1497 1503 MRBUAC
_publ_author_name
;
Kuhs, W.F.;Nitsche, R.;Scheunemann, K.
;
_cell_length_a                     10.470(2)
_cell_length_b                     10.470(2)
_cell_length_c                     10.470(2)
_cell_angle_alpha                  90.0
_cell_angle_beta                   90.0
_cell_angle_gamma                  90.0
_cell_volume                       1147.73
_cell_formula_units_Z              4
_symmetry_space_group_name_H-M     'P 21 3'
_symmetry_Int_Tables_number        198
loop_
_symmetry_equiv_pos_site_id
_symmetry_equiv_pos_as_xyz
  1	'-z+.5, -x, y+.5'
  2	'-y+.5, -z, x+.5'
  3	'-x+.5, -y, z+.5'
  4	'-z, x+.5, -y+.5'
  5	'-y, z+.5, -x+.5'
  6	'-x, y+.5, -z+.5'
  7	'z+.5, -x+.5, -y'
  8	'y+.5, -z+.5, -x'
  9	'x+.5, -y+.5, -z'
 10	'z, x, y'
 11	'y, z, x'
 12	'x, y, z'
loop_
_atom_type_symbol
_atom_type_oxidation_number
Ag1+	1
As5+	5
S2-	-2
loop_
_atom_site_label
_atom_site_type_symbol
_atom_site_symmetry_multiplicity
_atom_site_Wyckoff_symbol
_atom_site_fract_x
_atom_site_fract_y
_atom_site_fract_z
_atom_site_occupancy
_atom_site_attached_hydrogens
Ag1 Ag1+ 12 b 0.075 0.403 0.205 1. 0 
Ag2 Ag1+ 12 b 0.227 0.482 0.491 1. 0 
Ag3 Ag1+ 4 a 0.146 0.146 0.146 1. 0 
As1 As5+ 4 a 0.743 0.743 0.743 1. 0 
S1 S2- 4 a 0.626 0.626 0.626 1. 0 
S2 S2- 12 b 0.123 0.628 0.142 1. 0 
S3 S2- 4 a 0.280 0.280 0.280 1. 0 
S4 S2- 4 a 0.013 0.013 0.013 1. 0 

#End of data_604743-ICSD


