data_202571-ICSD
#?2014 by Fachinformationszentrum Karlsruhe, and the U.S. Secretary of 
#Commerce on behalf of the United States.  All rights reserved.
_database_code_ICSD                202571
_audit_creation_date               1988/12/19
_audit_update_record               2012/02/01
_chemical_name_systematic
;
Calcium Dizinc Bis(phosphate(V)) - Alpha
;
_chemical_formula_structural       'Ca Zn2 (P O4)2'
_chemical_formula_sum              'Ca1 O8 P2 Zn2'
_publ_section_title
;
Combined single-crystal X-ray diffraction and magic angle spinning 
NMR study of alpha-Ca Zn2 (P O4)2
;
loop_
_citation_id
_citation_journal_abbrev
_citation_year
_citation_journal_volume
_citation_page_first
_citation_page_last
_citation_journal_id_ASTM
primary 'Journal of the American Chemical Society' 1988 110 1140 1143 JACSAT
_publ_author_name                  'Jakeman, R.J.B.;Cheetham, A.K.'
_cell_length_a                     4.960(2)
_cell_length_b                     8.418(4)
_cell_length_c                     8.940(4)
_cell_angle_alpha                  113.75(4)
_cell_angle_beta                   102.45(5)
_cell_angle_gamma                  94.20(6)
_cell_volume                       328.23
_cell_formula_units_Z              2
_symmetry_space_group_name_H-M     'P -1'
_symmetry_Int_Tables_number        2
_refine_ls_R_factor_all            .04
loop_
_symmetry_equiv_pos_site_id
_symmetry_equiv_pos_as_xyz
  1	'-x, -y, -z'
  2	'x, y, z'
loop_
_atom_type_symbol
_atom_type_oxidation_number
Ca2+	2
O2-	-2
P5+	5
Zn2+	2
loop_
_atom_site_label
_atom_site_type_symbol
_atom_site_symmetry_multiplicity
_atom_site_Wyckoff_symbol
_atom_site_fract_x
_atom_site_fract_y
_atom_site_fract_z
_atom_site_occupancy
_atom_site_attached_hydrogens
Zn1 Zn2+ 2 i 0.16241(3) 0.92142(2) 0.71522(2) 1. 0 
Zn2 Zn2+ 2 i 0.37615(4) 0.60709(2) 0.41405(2) 1. 0 
Ca1 Ca2+ 2 i 0.22509(5) 0.73242(3) 0.05449(3) 1. 0 
P1 P5+ 2 i 0.68549(7) 0.79356(4) 0.81995(4) 1. 0 
P2 P5+ 2 i 0.11101(7) 0.28089(4) 0.69375(4) 1. 0 
O1 O2- 2 i 0.6210(3) 0.7478(2) 0.9560(2) 1. 0 
O2 O2- 2 i 0.4241(2) 0.2899(2) 0.7044(1) 1. 0 
O3 O2- 2 i 0.0062(2) 0.8307(1) 0.8522(1) 1. 0 
O4 O2- 2 i 0.5654(3) 0.6338(1) 0.6437(1) 1. 0 
O5 O2- 2 i 0.0060(2) 0.8838(1) 0.2911(1) 1. 0 
O6 O2- 2 i 0.9423(2) 0.2735(2) 0.5212(1) 1. 0 
O7 O2- 2 i 0.5639(2) 0.9504(1) 0.8036(1) 1. 0 
O8 O2- 2 i 0.9615(3) 0.5604(1) 0.1709(1) 1. 0 

loop_
_atom_site_aniso_label
_atom_site_aniso_type_symbol
_atom_site_aniso_U_11
_atom_site_aniso_U_22
_atom_site_aniso_U_33
_atom_site_aniso_U_12
_atom_site_aniso_U_13
_atom_site_aniso_U_23
Zn1 Zn2+ 0.00772(7) 0.00938(7) 0.01125(7) 0.00214(4) 0.00218(4) 0.00462(5)
Zn2 Zn2+ 0.01128(7) 0.00870(7) 0.01081(7) 0.00388(5) 0.00419(5) 0.00454(5)
Ca1 Ca2+ 0.00929(9) 0.00742(9) 0.00750(9) 0.00003(6) 0.00183(6) 0.00194(6)
P1 P5+ 0.0057(1) 0.0054(1) 0.0058(1) 0.0004(1) 0.0007(1) 0.0009(1)
P2 P5+ 0.0058(1) 0.0059(1) 0.0070(1) 0.0010(1) 0.0013(1) 0.0018(1)
O1 O2- 0.0141(4) 0.0166(4) 0.0124(4) 0.0025(3) 0.0058(3) 0.0081(3)
O2 O2- 0.0058(3) 0.0158(4) 0.0138(4) 0.0019(3) 0.0026(3) 0.0083(3)
O3 O2- 0.0062(3) 0.0128(3) 0.0121(3) 0.0012(2) 0.0017(2) 0.0064(3)
O4 O2- 0.0157(4) 0.0063(3) 0.0077(3) 0.0020(3) -.0018(3) -.0005(2)
O5 O2- 0.0101(3) 0.0072(3) 0.0151(4) 0.0014(2) 0.0042(3) 0.0054(3)
O6 O2- 0.0101(3) 0.0130(4) 0.0077(3) 0.0035(3) 0.0002(2) 0.0040(3)
O7 O2- 0.0075(3) 0.0058(3) 0.0133(3) 0.0010(2) 0.0008(3) 0.0026(3)
O8 O2- 0.0139(4) 0.0070(3) 0.0119(4) 0.0018(3) 0.0051(3) 0.0002(3)
#End of data_202571-ICSD


