data_163634-ICSD
#?2014 by Fachinformationszentrum Karlsruhe, and the U.S. Secretary of 
#Commerce on behalf of the United States.  All rights reserved.
_database_code_ICSD                163634
_audit_creation_date               2009/08/01
_chemical_name_systematic
;
Hexasilver Diarsenato(V)tetraarsenato(V)bis(dioxouranate)
;
_chemical_formula_structural       'Ag6 ((U O2)2 (As2 O7) (As4 O13))'
_chemical_formula_sum              'Ag6 As6 O24 U2'
_publ_section_title
;
Novel layered uranyl arsenates, Ag6 ((U O2) (As2 O7) (As4 O13)) and 
A(I)6 ((U O2)2 (As O4)2 (As2 O7)) (A(I)-Ag and Na): first observation 
of a linear (As4 O13)(6-) anion and structure type evolution
;
loop_
_citation_id
_citation_journal_abbrev
_citation_year
_citation_journal_volume
_citation_page_first
_citation_page_last
_citation_journal_id_ASTM
primary 'Journal of Materials Chemistry' 2009 19 2583 2587 JMACEP
_publ_author_name
;
Alekseev, E.V.;Krivovichev, S.V.;Depmeier, W.
;
_cell_length_a                     8.9630(10)
_cell_length_b                     27.5760(10)
_cell_length_c                     9.2070(10)
_cell_angle_alpha                  90.00
_cell_angle_beta                   105.040(3)
_cell_angle_gamma                  90.00
_cell_volume                       2197.68
_cell_formula_units_Z              4
_symmetry_space_group_name_H-M     'P 1 21/n 1'
_symmetry_Int_Tables_number        14
_refine_ls_R_factor_all            .044
loop_
_symmetry_equiv_pos_site_id
_symmetry_equiv_pos_as_xyz
  1	'-x+.5, y+.5, -z+.5'
  2	'-x, -y, -z'
  3	'x+.5, -y+.5, z+.5'
  4	'x, y, z'
loop_
_atom_type_symbol
_atom_type_oxidation_number
Ag1+	1
As5+	5
O2-	-2
U6+	6
loop_
_atom_site_label
_atom_site_type_symbol
_atom_site_symmetry_multiplicity
_atom_site_Wyckoff_symbol
_atom_site_fract_x
_atom_site_fract_y
_atom_site_fract_z
_atom_site_occupancy
_atom_site_attached_hydrogens
_atom_site_U_iso_or_equiv
U1 U6+ 4 e 0.89384(5) 0.137159(14) 0.67009(4) 1 0 0.01550(9) 
U2 U6+ 4 e 0.88927(5) 0.357351(14) 0.64109(4) 1 0 0.01504(9) 
As1 As5+ 4 e 0.75682(14) 0.24857(4) 0.80847(13) 1 0 0.0154(2) 
As2 As5+ 4 e 1.04459(14) 0.24677(4) 0.53044(13) 1 0 0.0160(2) 
As3 As5+ 4 e 0.68041(13) 0.39364(4) 0.93637(12) 1 0 0.0159(2) 
As4 As5+ 4 e 0.90510(14) 0.00574(4) 0.66290(13) 1 0 0.0181(2) 
As5 As5+ 4 e 0.83337(14) 0.49015(4) 0.65020(12) 1 0 0.0170(2) 
As6 As5+ 4 e 1.16900(13) 0.40167(4) 0.44238(12) 1 0 0.0158(2) 
Ag1 Ag1+ 4 e 1.13949(11) 0.25576(4) 0.91066(11) 1 0 0.0250(2) 
Ag2 Ag1+ 4 e 0.79457(13) 0.44026(4) 0.28323(11) 1 0 0.0329(2) 
Ag3 Ag1+ 4 e 0.78060(13) 0.07224(4) 0.30187(11) 1 0 0.0349(3) 
Ag4 Ag1+ 4 e 0.41800(16) 0.31366(4) 0.66385(15) 1 0 0.0479(3) 
Ag5 Ag1+ 4 e 0.53158(12) 0.06461(4) 0.52598(11) 1 0 0.0281(2) 
Ag6 Ag1+ 4 e 0.90670(16) 0.31345(4) 0.21446(14) 1 0 0.0435(3) 
O1 O2- 4 e 0.9905(10) 0.3808(3) 0.4321(9) 1 0 0.0213(18) 
O2 O2- 4 e 0.8973(10) 0.2448(3) 0.3780(10) 1 0 0.024(2) 
O3 O2- 4 e 0.7144(9) 0.2670(3) 0.9764(9) 1 0 0.0197(18) 
O4 O2- 4 e 0.6992(9) 0.3768(3) 0.7689(9) 1 0 0.0219(19) 
O5 O2- 4 e 0.8321(10) 0.3836(3) 1.0808(10) 1 0 0.026(2) 
O6 O2- 4 e 0.8860(9) 0.2908(3) 0.7956(9) 1 0 0.0207(18) 
O7 O2- 4 e 0.5954(10) 0.2484(3) 0.6684(9) 1 0 0.0214(19) 
O8 O2- 4 e 1.0377(10) 0.3866(3) 0.7833(9) 1 0 0.0233(19) 
O9 O2- 4 e 1.3073(11) 0.3857(3) 0.5909(10) 1 0 0.025(2) 
O10 O2- 4 e 0.7433(10) 0.3283(3) 0.5016(9) 1 0 0.0222(19) 
O11 O2- 4 e 1.2017(11) 0.3976(3) 0.2737(9) 1 0 0.025(2) 
O12 O2- 4 e 0.8228(10) 0.0555(3) 0.5717(9) 1 0 0.0210(19) 
O13 O2- 4 e 0.7380(11) 0.1623(3) 0.5296(10) 1 0 0.027(2) 
O14 O2- 4 e 0.8391(10) 0.1945(3) 0.8469(9) 1 0 0.0198(18) 
O15 O2- 4 e 1.0487(10) 0.2041(3) 0.6592(9) 1 0 0.0210(18) 
O16 O2- 4 e 0.8538(10) 0.5343(3) 0.5265(9) 1 0 0.0236(19) 
O17 O2- 4 e 0.5107(10) 0.3781(3) 0.9615(9) 1 0 0.0231(19) 
O18 O2- 4 e 0.8178(10) 0.4387(3) 0.5572(9) 1 0 0.0223(19) 
O19 O2- 4 e 0.8532(10) 0.0020(3) 0.8317(9) 1 0 0.024(2) 
O20 O2- 4 e 1.0921(11) 0.0010(3) 0.7002(11) 1 0 0.031(2) 
O21 O2- 4 e 1.0473(11) 0.1087(3) 0.8048(10) 1 0 0.026(2) 
O22 O2- 4 e 1.0775(10) 0.3009(3) 0.6114(9) 1 0 0.0215(19) 
O23 O2- 4 e 0.8090(11) -0.0417(3) 0.5618(10) 1 0 0.026(2) 
O24 O2- 4 e 0.9709(10) 0.4949(3) 0.8090(9) 1 0 0.023(2) 

loop_
_atom_site_aniso_label
_atom_site_aniso_type_symbol
_atom_site_aniso_U_11
_atom_site_aniso_U_22
_atom_site_aniso_U_33
_atom_site_aniso_U_12
_atom_site_aniso_U_13
_atom_site_aniso_U_23
U1 U6+ 0.0180(2) 0.01446(18) 0.01509(18) -0.00057(15) 0.00612(16) 
-0.00025(14)
U2 U6+ 0.01784(19) 0.01425(18) 0.01402(17) 0.00026(14) 0.00590(15) 
0.00025(14)
As1 As5+ 0.0177(5) 0.0154(5) 0.0147(5) -0.0001(4) 0.0073(4) 0.0003(4)
As2 As5+ 0.0178(5) 0.0152(5) 0.0165(5) -0.0001(4) 0.0074(4) 0.0013(4)
As3 As5+ 0.0189(5) 0.0153(5) 0.0147(5) 0.0005(4) 0.0069(4) 0.0005(4)
As4 As5+ 0.0219(5) 0.0150(5) 0.0201(5) -0.0012(4) 0.0101(5) -0.0004(4)
As5 As5+ 0.0223(5) 0.0152(5) 0.0142(5) 0.0006(4) 0.0057(4) -0.0002(4)
As6 As5+ 0.0186(5) 0.0152(5) 0.0152(5) 0.0009(4) 0.0071(4) 0.0013(4)
Ag1 Ag1+ 0.0215(4) 0.0305(5) 0.0218(4) 0.0021(4) 0.0036(4) -0.0008(3)
Ag2 Ag1+ 0.0334(5) 0.0409(6) 0.0223(5) 0.0117(4) 0.0036(4) 0.0000(4)
Ag3 Ag1+ 0.0404(6) 0.0417(6) 0.0222(5) 0.0159(5) 0.0075(4) 0.0046(4)
Ag4 Ag1+ 0.0548(7) 0.0278(5) 0.0482(7) 0.0132(5) -0.0099(6) 0.0016(5)
Ag5 Ag1+ 0.0265(5) 0.0328(5) 0.0242(4) 0.0022(4) 0.0050(4) 0.0031(4)
Ag6 Ag1+ 0.0586(7) 0.0233(5) 0.0374(6) 0.0060(5) -0.0075(5) 0.0042(4)
O1 O2- 0.028(4) 0.026(4) 0.013(3) -0.003(3) 0.011(3) 0.002(3)
O2 O2- 0.024(4) 0.026(4) 0.023(4) 0.010(3) 0.005(4) 0.003(3)
O3 O2- 0.019(4) 0.027(4) 0.015(4) 0.004(3) 0.008(3) 0.001(3)
O4 O2- 0.017(4) 0.029(4) 0.022(4) 0.001(3) 0.008(3) 0.002(3)
O5 O2- 0.024(4) 0.021(4) 0.032(5) 0.005(3) 0.007(4) 0.004(3)
O6 O2- 0.008(3) 0.032(4) 0.023(4) 0.000(3) 0.007(3) 0.004(3)
O7 O2- 0.019(4) 0.028(4) 0.018(4) 0.003(3) 0.007(3) -0.001(3)
O8 O2- 0.030(4) 0.020(4) 0.025(4) 0.007(3) 0.015(4) 0.000(3)
O9 O2- 0.032(5) 0.019(4) 0.024(4) 0.006(4) 0.006(4) -0.001(3)
O10 O2- 0.023(4) 0.022(4) 0.024(4) 0.004(3) 0.009(3) 0.000(3)
O11 O2- 0.043(5) 0.012(4) 0.023(4) 0.003(3) 0.015(4) 0.000(3)
O12 O2- 0.030(4) 0.017(4) 0.017(4) 0.003(3) 0.007(3) 0.006(3)
O13 O2- 0.029(5) 0.026(4) 0.025(4) -0.005(4) 0.009(4) 0.002(3)
O14 O2- 0.022(4) 0.020(4) 0.016(4) -0.002(3) 0.003(3) -0.003(3)
O15 O2- 0.027(4) 0.019(4) 0.017(4) -0.003(3) 0.007(3) 0.006(3)
O16 O2- 0.031(4) 0.022(4) 0.023(4) 0.003(3) 0.016(4) -0.004(3)
O17 O2- 0.024(4) 0.030(4) 0.018(4) -0.002(3) 0.010(3) -0.005(3)
O18 O2- 0.032(5) 0.012(4) 0.020(4) -0.001(3) 0.002(4) -0.003(3)
O19 O2- 0.024(4) 0.032(5) 0.015(4) -0.006(4) 0.004(3) -0.007(3)
O20 O2- 0.030(5) 0.020(4) 0.045(5) -0.002(4) 0.012(4) 0.001(4)
O21 O2- 0.030(5) 0.022(4) 0.024(4) -0.006(4) 0.001(4) -0.003(3)
O22 O2- 0.021(4) 0.021(4) 0.024(4) 0.004(3) 0.009(3) -0.001(3)
O23 O2- 0.037(5) 0.018(4) 0.022(4) 0.003(4) 0.006(4) 0.000(3)
O24 O2- 0.028(4) 0.021(4) 0.017(4) 0.005(3) -0.002(3) -0.005(3)
#End of data_163634-ICSD


