data_380301-ICSD
#?2014 by Fachinformationszentrum Karlsruhe, and the U.S. Secretary of 
#Commerce on behalf of the United States.  All rights reserved.
_database_code_ICSD                380301
_audit_creation_date               2010/02/01
_chemical_name_systematic
;
Potassium Cyanido-tris(fluoro)borate
;
_chemical_formula_structural       'K (B F3 (C N))'
_chemical_formula_sum              'C1 B1 F3 K1 N1'
_publ_section_title
;
The crystal structures of the cyanidofluoroborates K [B F(x) (C N)(4-
x)], x = 0 - 4
;
loop_
_citation_id
_citation_journal_abbrev
_citation_year
_citation_journal_volume
_citation_journal_issue
_citation_page_first
_citation_page_last
_citation_journal_id_ASTM
primary 'Zeitschrift fuer Anorganische und Allgemeine Chemie (1950) (DE)'
 2009 635 15 2511 2514 ZAACAB
_publ_author_name                  'Bernhardt, E.;Willner, H.'
_cell_length_a                     13.3486(15)
_cell_length_b                     6.5239(7)
_cell_length_c                     10.0085(11)
_cell_angle_alpha                  90.00
_cell_angle_beta                   90.00
_cell_angle_gamma                  90.00
_cell_volume                       871.59
_cell_formula_units_Z              8
_symmetry_space_group_name_H-M     'P b c n'
_symmetry_Int_Tables_number        60
_refine_ls_R_factor_all            .0297
loop_
_symmetry_equiv_pos_site_id
_symmetry_equiv_pos_as_xyz
  1	'x, -y, z+.5'
  2	'-x+.5, y+.5, z'
  3	'x+.5, y+.5, -z+.5'
  4	'-x, -y, -z'
  5	'-x, y, -z+.5'
  6	'x+.5, -y+.5, -z'
  7	'-x+.5, -y+.5, z+.5'
  8	'x, y, z'
loop_
_atom_type_symbol
_atom_type_oxidation_number
B3+	3
C2+	2
F1-	-1
K1+	1
N3-	-3
loop_
_atom_site_label
_atom_site_type_symbol
_atom_site_symmetry_multiplicity
_atom_site_Wyckoff_symbol
_atom_site_fract_x
_atom_site_fract_y
_atom_site_fract_z
_atom_site_occupancy
_atom_site_attached_hydrogens
_atom_site_U_iso_or_equiv
K1 K1+ 8 d 0.12437(3) -0.00263(6) 0.12059(3) 1 0 0.03191(18) 
B1 B3+ 8 d 0.15109(17) 0.3702(3) -0.13045(19) 1 0 0.0292(5) 
F1 F1- 8 d 0.28880(9) 0.12770(17) 0.25725(11) 1 0 0.0509(4) 
F2 F1- 8 d 0.20779(9) 0.33921(16) -0.01628(11) 1 0 0.0464(3) 
F3 F1- 8 d 0.08321(10) 0.21016(17) -0.14185(11) 1 0 0.0443(4) 
C1 C2+ 8 d 0.09230(15) 0.4127(3) 0.38347(16) 1 0 0.0306(4) 
N1 N3- 8 d 0.05253(15) 0.2593(3) 0.39369(17) 1 0 0.0449(5) 

loop_
_atom_site_aniso_label
_atom_site_aniso_type_symbol
_atom_site_aniso_U_11
_atom_site_aniso_U_22
_atom_site_aniso_U_33
_atom_site_aniso_U_12
_atom_site_aniso_U_13
_atom_site_aniso_U_23
K1 K1+ 0.0325(3) 0.0317(3) 0.0314(3) 0.00205(19) -0.00200(17) 0.00349(17)
B1 B3+ 0.0338(12) 0.0263(11) 0.0274(10) 0.0002(10) 0.0017(9) 0.0000(9)
F1 F1- 0.0560(8) 0.0504(7) 0.0464(7) 0.0070(6) -0.0245(6) -0.0051(6)
F2 F1- 0.0505(8) 0.0440(7) 0.0447(7) 0.0073(6) -0.0136(6) 0.0032(5)
F3 F1- 0.0521(8) 0.0295(6) 0.0512(7) -0.0093(6) 0.0046(6) -0.0092(5)
C1 C2+ 0.0308(10) 0.0293(10) 0.0317(10) 0.0009(10) -0.0009(8) 0.0001(7)
N1 N3- 0.0441(11) 0.0344(9) 0.0562(11) -0.0066(9) -0.0008(8) -0.0014(8)
#End of data_380301-ICSD


