data_167189-ICSD
#?2014 by Fachinformationszentrum Karlsruhe, and the U.S. Secretary of 
#Commerce on behalf of the United States.  All rights reserved.
_database_code_ICSD                167189
_audit_creation_date               2010/08/01
_chemical_name_systematic          'Dizinc Silicate - M'
_chemical_formula_structural       'Zn2 (Si O4)'
_chemical_formula_sum              'O4 Si1 Zn2'
_publ_section_title
;
Phase stability and pressure-induced structural transitions at zero 
temperature in Zn Si O3 and Zn2 Si O4
;
loop_
_citation_id
_citation_journal_abbrev
_citation_year
_citation_journal_volume
_citation_page_first
_citation_page_last
_citation_journal_id_ASTM
primary 'Journal of Physics: Condensed Matter' 2009 21 485801-01 485801-09 JCOMEL
_publ_author_name
;
Karazhanov, S.Z.;Ravindran, P.;Vajeeston, P.;Ulyashin, A.G.;Fjellvag, 
H.;Svensson, B.G.
;
_cell_length_a                     5.3752
_cell_length_b                     7.8794
_cell_length_c                     7.5624
_cell_angle_alpha                  90.
_cell_angle_beta                   96.55
_cell_angle_gamma                  90.
_cell_volume                       318.2
_cell_formula_units_Z              4
_symmetry_space_group_name_H-M     'P 1 21/n 1'
_symmetry_Int_Tables_number        14
loop_
_symmetry_equiv_pos_site_id
_symmetry_equiv_pos_as_xyz
  1	'-x+.5, y+.5, -z+.5'
  2	'-x, -y, -z'
  3	'x+.5, -y+.5, z+.5'
  4	'x, y, z'
loop_
_atom_type_symbol
_atom_type_oxidation_number
O2-	-2
Si4+	4
Zn2+	2
loop_
_atom_site_label
_atom_site_type_symbol
_atom_site_symmetry_multiplicity
_atom_site_Wyckoff_symbol
_atom_site_fract_x
_atom_site_fract_y
_atom_site_fract_z
_atom_site_occupancy
_atom_site_attached_hydrogens
Zn1 Zn2+ 4 e 0.3542 0.3811 0.5969 1. 0 
Zn2 Zn2+ 4 e 0.4476 0.9915 0.3091 1. 0 
Si1 Si4+ 4 e 0.1760 0.7380 0.5414 1. 0 
O1 O2- 4 e 0.2697 0.9276 0.5053 1. 0 
O2 O2- 4 e 0.0135 0.7350 0.7089 1. 0 
O3 O2- 4 e 0.4237 0.6246 0.5874 1. 0 
O4 O2- 4 e 0.0019 0.6468 0.3805 1. 0 

#End of data_167189-ICSD


