data_28096-ICSD
#?2014 by Fachinformationszentrum Karlsruhe, and the U.S. Secretary of 
#Commerce on behalf of the United States.  All rights reserved.
_database_code_ICSD                28096
_audit_creation_date               1980/01/01
_audit_update_record               2005/10/01
_chemical_name_systematic          'Dimagnesium Borate Fluoride - Beta'
_chemical_formula_structural       'Mg2 (B O3) F'
_chemical_formula_sum              'B1 F1 Mg2 O3'
_publ_section_title
;
Crystal structure of beta-Mg2 B O3 F
;
loop_
_citation_id
_citation_journal_abbrev
_citation_year
_citation_journal_volume
_citation_page_first
_citation_page_last
_citation_journal_id_ASTM
primary 'Zhurnal Strukturnoi Khimii (Issue-No. from 1981)'
 1971 12 183 184 ZSTKAI
2 'Golden Book of Phase Transitions, Wroclaw' 2002 1 1 123 GBOPT5
_publ_author_name
;
Nikishova, L.V.;Brovkin, A.A.;Kuz'min, E.A.;Pyatkin, S.L.
;
_cell_length_a                     9.33(1)
_cell_length_b                     9.39(1)
_cell_length_c                     3.098(2)
_cell_angle_alpha                  90.
_cell_angle_beta                   90.
_cell_angle_gamma                  90.
_cell_volume                       271.41
_cell_formula_units_Z              4
_symmetry_space_group_name_H-M     'P n a m'
_symmetry_Int_Tables_number        62
_refine_ls_R_factor_all            .135
loop_
_symmetry_equiv_pos_site_id
_symmetry_equiv_pos_as_xyz
  1	'x+.5, -y+.5, z'
  2	'x, y, -z+.5'
  3	'-x+.5, y+.5, z+.5'
  4	'-x, -y, -z'
  5	'-x+.5, y+.5, -z'
  6	'-x, -y, z+.5'
  7	'x+.5, -y+.5, -z+.5'
  8	'x, y, z'
loop_
_atom_type_symbol
_atom_type_oxidation_number
B3+	3
F1-	-1
Mg2+	2
O2-	-2
loop_
_atom_site_label
_atom_site_type_symbol
_atom_site_symmetry_multiplicity
_atom_site_Wyckoff_symbol
_atom_site_fract_x
_atom_site_fract_y
_atom_site_fract_z
_atom_site_occupancy
_atom_site_attached_hydrogens
_atom_site_B_iso_or_equiv
Mg1 Mg2+ 4 c 0.1345 0.071 0.75 1. 0 0.36 
Mg2 Mg2+ 4 c 0.401 0.181 0.25 1. 0 0.37 
B1 B3+ 4 c 0.174 0.37 0.75 1. 0 0.41 
F1 F1- 4 c -.009 0.111 0.25 1. 0 0.65 
O1 O2- 4 c 0.239 0.502 0.75 1. 0 0.35 
O2 O2- 4 c 0.259 0.248 0.75 1. 0 0.52 
O3 O2- 4 c 0.029 0.358 0.75 1. 0 0.59 

#End of data_28096-ICSD


