data_1830-ICSD
#?2014 by Fachinformationszentrum Karlsruhe, and the U.S. Secretary of 
#Commerce on behalf of the United States.  All rights reserved.
_database_code_ICSD                1830
_audit_creation_date               1980/01/01
_audit_update_record               2010/02/01
_chemical_name_systematic
;
Dipotassium Barium Hexanitrocuprate
;
_chemical_formula_structural       'K2 Ba (Cu (N O2)6)'
_chemical_formula_sum              'Ba1 Cu1 K2 N6 O12'
_publ_section_title
;
Potassium barium hexanitrocuprate(II) at 295 K
;
loop_
_citation_id
_citation_journal_abbrev
_citation_year
_citation_journal_volume
_citation_page_first
_citation_page_last
_citation_journal_id_ASTM
primary 'Acta Crystallographica B (24,1968-38,1982)' 1975 31 596 598 ACBCAR
_publ_author_name                  'Takagi, S.;Joesten, M.D.'
_cell_length_a                     11.219(2)
_cell_length_b                     10.728(2)
_cell_length_c                     10.685(1)
_cell_angle_alpha                  90.
_cell_angle_beta                   90.
_cell_angle_gamma                  90.
_cell_volume                       1286.02
_cell_formula_units_Z              4
_symmetry_space_group_name_H-M     'F m m m'
_symmetry_Int_Tables_number        69
_refine_ls_R_factor_all            .016
loop_
_symmetry_equiv_pos_site_id
_symmetry_equiv_pos_as_xyz
  1	'x, y, -z'
  2	'x, -y, z'
  3	'-x, y, z'
  4	'-x, -y, -z'
  5	'-x, -y, z'
  6	'-x, y, -z'
  7	'x, -y, -z'
  8	'x, y, z'
  9	'x, y+.5, -z+.5'
 10	'x+.5, y, -z+.5'
 11	'x+.5, y+.5, -z'
 12	'x, -y+.5, z+.5'
 13	'x+.5, -y, z+.5'
 14	'x+.5, -y+.5, z'
 15	'-x, y+.5, z+.5'
 16	'-x+.5, y, z+.5'
 17	'-x+.5, y+.5, z'
 18	'-x, -y+.5, -z+.5'
 19	'-x+.5, -y, -z+.5'
 20	'-x+.5, -y+.5, -z'
 21	'-x, -y+.5, z+.5'
 22	'-x+.5, -y, z+.5'
 23	'-x+.5, -y+.5, z'
 24	'-x, y+.5, -z+.5'
 25	'-x+.5, y, -z+.5'
 26	'-x+.5, y+.5, -z'
 27	'x, -y+.5, -z+.5'
 28	'x+.5, -y, -z+.5'
 29	'x+.5, -y+.5, -z'
 30	'x, y+.5, z+.5'
 31	'x+.5, y, z+.5'
 32	'x+.5, y+.5, z'
loop_
_atom_type_symbol
_atom_type_oxidation_number
Ba2+	2
Cu2+	2
K1+	1
N3+	3
O2-	-2
loop_
_atom_site_label
_atom_site_type_symbol
_atom_site_symmetry_multiplicity
_atom_site_Wyckoff_symbol
_atom_site_fract_x
_atom_site_fract_y
_atom_site_fract_z
_atom_site_occupancy
_atom_site_attached_hydrogens
Cu1 Cu2+ 4 a 0 0 0 1. 0 
Ba1 Ba2+ 4 b 0 0 0.5 1. 0 
K1 K1+ 8 f 0.25 0.25 0.25 1. 0 
O1 O2- 16 n 0.0940(2) 0 0.2505(1) 1. 0 
O2 O2- 16 o 0.2643(1) 0.0977(2) 0 1. 0 
O3 O2- 16 m 0 0.2505(1) 0.0982(2) 1. 0 
N1 N3+ 8 i 0 0 0.1908(2) 1. 0 
N2 N3+ 8 g 0.2060(2) 0 0 1. 0 
N3 N3+ 8 h 0 0.1909(2) 0 1. 0 

loop_
_atom_site_aniso_label
_atom_site_aniso_type_symbol
_atom_site_aniso_B_11
_atom_site_aniso_B_22
_atom_site_aniso_B_33
_atom_site_aniso_B_12
_atom_site_aniso_B_13
_atom_site_aniso_B_23
Cu1 Cu2+ 1.451(13) 1.007(11) 0.900(11) 0 0 0
Ba1 Ba2+ 1.180(6) 1.043(6) 1.001(6) 0 0 0
K1 K1+ 4.43(5) 3.83(5) 3.91(5) 0 0 0
O1 O2- 2.02(5) 4.58(10) 1.42(4) 0 -.25(4) 0
O2 O2- 1.84(6) 1.82(5) 5.03(11) -.09(4) 0 0
O3 O2- 5.63(12) 1.49(5) 1.65(5) 0 0 -.30(4)
N1 N3+ 1.95(7) 1.68(7) 1.18(6) 0 0 0
N2 N3+ 1.50(7) 1.97(8) 2.19(8) 0 0 0
N3 N3+ 2.15(8) 1.15(6) 1.59(7) 0 0 0
#End of data_1830-ICSD


