data_39417-ICSD
#?2014 by Fachinformationszentrum Karlsruhe, and the U.S. Secretary of 
#Commerce on behalf of the United States.  All rights reserved.
_database_code_ICSD                39417
_audit_creation_date               1992/01/20
_audit_update_record               2012/02/01
_chemical_name_systematic          'Lead Magnesium Divanadate'
_chemical_formula_structural       'Pb Mg (V2 O7)'
_chemical_formula_sum              'Mg1 O7 Pb1 V2'
_publ_section_title
;
Crystal structure of double pseudopyrovanadates Pb M' V2 O7 (M'= Mg, 
Zn)
;
loop_
_citation_id
_citation_journal_abbrev
_citation_year
_citation_journal_volume
_citation_page_first
_citation_page_last
_citation_journal_id_ASTM
primary Kristallografiya 1991 36 617 621 KRISAJ
2 'Soviet Physics, Crystallography (= Kristallografiya)'
 1991 36 340 342 SPHCA6
_publ_author_name
;
Murashova, E.V.;Velikodnyi, Yu.A.;Trunov, V.K.
;
_cell_length_a                     6.854(1)
_cell_length_b                     15.007(5)
_cell_length_c                     11.490(2)
_cell_angle_alpha                  90.
_cell_angle_beta                   97.84(2)
_cell_angle_gamma                  90.
_cell_volume                       1170.79
_cell_formula_units_Z              8
_symmetry_space_group_name_H-M     'P 1 21/c 1'
_symmetry_Int_Tables_number        14
_refine_ls_R_factor_all            .048
loop_
_symmetry_equiv_pos_site_id
_symmetry_equiv_pos_as_xyz
  1	'x, -y+.5, z+.5'
  2	'-x, -y, -z'
  3	'-x, y+.5, -z+.5'
  4	'x, y, z'
loop_
_atom_type_symbol
_atom_type_oxidation_number
Mg2+	2
O2-	-2
Pb2+	2
V5+	5
loop_
_atom_site_label
_atom_site_type_symbol
_atom_site_symmetry_multiplicity
_atom_site_Wyckoff_symbol
_atom_site_fract_x
_atom_site_fract_y
_atom_site_fract_z
_atom_site_occupancy
_atom_site_attached_hydrogens
_atom_site_B_iso_or_equiv
Pb1 Pb2+ 4 e 0.6566(1) 0.12309(5) 0.05290(7) 1. 0 1.74(1) 
Pb2 Pb2+ 4 e 0.8930(1) 0.01626(5) 0.77285(7) 1. 0 1.64(1) 
Mg1 Mg2+ 4 e 0.3741(9) 0.1751(4) 0.4379(5) 1. 0 1.4(1) 
Mg2 Mg2+ 4 e 0.0099(9) 0.2506(4) 0.2603(5) 1. 0 1.3(1) 
V1 V5+ 4 e 0.5083(4) 0.1961(2) 0.7299(3) 1. 0 1.22(5) 
V2 V5+ 4 e 0.3706(4) 0.0071(2) 0.6453(3) 1. 0 1.32(5) 
V3 V5+ 4 e 0.1094(4) -.1411(2) 0.5048(3) 1. 0 1.10(5) 
V4 V5+ 4 e 0.1558(4) 0.3638(2) 0.5204(3) 1. 0 1.09(5) 
O1 O2- 4 e 0.600(2) 0.1164(9) 0.826(1) 1. 0 2.1(3) 
O2 O2- 4 e 0.325(2) 0.2503(8) 0.787(1) 1. 0 1.2(2) 
O3 O2- 4 e 0.348(2) 0.2898(9) 0.534(1) 1. 0 1.6(2) 
O4 O2- 4 e 0.696(2) 0.2663(8) 0.714(1) 1. 0 1.3(2) 
O5 O2- 4 e 0.425(2) 0.1208(8) 0.603(1) 1. 0 1.5(2) 
O6 O2- 4 e 0.566(2) -.0587(8) 0.651(1) 1. 0 1.5(2) 
O7 O2- 4 e 0.203(2) -.0284(7) 0.525(1) 1. 0 1.4(2) 
O8 O2- 4 e 0.266(2) -.0067(9) 0.767(1) 1. 0 1.7(2) 
O9 O2- 4 e -.059(2) -.1625(8) 0.598(1) 1. 0 1.5(2) 
O10 O2- 4 e 0.015(2) -.1483(7) 0.364(1) 1. 0 1.3(2) 
O11 O2- 4 e 0.302(2) -.2082(8) 0.534(1) 1. 0 1.6(2) 
O12 O2- 4 e 0.010(2) 0.3565(9) 0.386(1) 1. 0 1.8(2) 
O13 O2- 4 e 0.014(2) 0.3514(8) 0.633(1) 1. 0 1.3(2) 
O14 O2- 4 e 0.248(2) 0.4681(8) 0.542(1) 1. 0 2.1(3) 

#End of data_39417-ICSD


