data_422417-ICSD
#?2014 by Fachinformationszentrum Karlsruhe, and the U.S. Secretary of 
#Commerce on behalf of the United States.  All rights reserved.
_database_code_ICSD                422417
_audit_creation_date               2011/08/01
_chemical_name_systematic
;
Disilver(I) Fluorosulfate(VI) Silver(II) Tris(fluorosulfate(VI))
;
_chemical_formula_structural       '(Ag2 (F S O3)) (Ag (F S O3)3)'
_chemical_formula_sum              'Ag3 F4 O12 S4'
_publ_section_title
;
Ag3 (S O3 F)4: A rare example of a mixed-valent AgII/AgI compound 
showing 1D antiferromagnetism
;
loop_
_citation_id
_citation_journal_abbrev
_citation_year
_citation_journal_volume
_citation_journal_issue
_citation_page_first
_citation_page_last
_citation_journal_id_ASTM
primary 'European Journal of Inorganic Chemistry  (online)'
 2011 2011 16 2508 2516 EJICFO
_publ_author_name
;
Michalowski, T.;Malinowski, P.J.;Derzsi, M.;Mazej, Z.;Jaglicic, 
Z.;Leszczynski, P.J.;Grochala, W.
;
_cell_length_a                     5.33670(19)
_cell_length_b                     12.9485(4)
_cell_length_c                     19.5976(7)
_cell_angle_alpha                  90
_cell_angle_beta                   100.6407(13)
_cell_angle_gamma                  90
_cell_volume                       1330.95
_cell_formula_units_Z              4
_symmetry_space_group_name_H-M     'P 1 21/c 1'
_symmetry_Int_Tables_number        14
_refine_ls_R_factor_all            .0153
loop_
_symmetry_equiv_pos_site_id
_symmetry_equiv_pos_as_xyz
  1	'x, -y+.5, z+.5'
  2	'-x, -y, -z'
  3	'-x, y+.5, -z+.5'
  4	'x, y, z'
loop_
_atom_type_symbol
_atom_type_oxidation_number
Ag1+	1
Ag2+	2
F1-	-1
O2-	-2
S6+	6
loop_
_atom_site_label
_atom_site_type_symbol
_atom_site_symmetry_multiplicity
_atom_site_Wyckoff_symbol
_atom_site_fract_x
_atom_site_fract_y
_atom_site_fract_z
_atom_site_occupancy
_atom_site_attached_hydrogens
_atom_site_U_iso_or_equiv
Ag1 Ag2+ 4 e 0.0223(7) 0.9830(2) 0.76101(17) 1 0 0.0215(11) 
Ag2 Ag1+ 4 e 0.8000(9) 0.4315(3) 1.0497(2) 1 0 0.0379(17) 
Ag3 Ag1+ 4 e 0.7486(8) 0.3643(2) 0.5557(2) 1 0 0.0420(18) 
S1 S6+ 4 e 0.961(2) 0.7269(9) 0.7790(5) 1 0 0.029(3) 
S2 S6+ 4 e 0.384(2) 0.9653(8) 0.6503(5) 1 0 0.027(4) 
S3 S6+ 4 e -0.6725(19) 1.5082(7) 0.6184(5) 1 0 0.027(3) 
S4 S6+ 4 e 0.2302(19) 0.2200(8) 0.4912(5) 1 0 0.035(4) 
O1 O2- 4 e 0.994(5) 0.8262(13) 0.7452(11) 1 0 0.044(3) 
O2 O2- 4 e 1.145(4) 0.7142(18) 0.8420(8) 1 0 0.044(3) 
F1 F1- 4 e 0.692(3) 0.7342(17) 0.7980(10) 1 0 0.0583 
O3 O2- 4 e 0.936(5) 0.6415(19) 0.7279(14) 1 0 0.044(3) 
O4 O2- 4 e 0.121(3) 0.9868(17) 0.6603(11) 1 0 0.044(3) 
F2 F1- 4 e 0.388(5) 0.8460(10) 0.6457(12) 1 0 0.0841 
O5 O2- 4 e 0.432(4) 1.0026(16) 0.5844(8) 1 0 0.044(3) 
O6 O2- 4 e 0.575(3) 0.9915(16) 0.7084(8) 1 0 0.044(3) 
F3 F1- 4 e -0.627(5) 1.6169(15) 0.6510(14) 1 0 0.1137 
O7 O2- 4 e -0.909(3) 1.4757(15) 0.6395(11) 1 0 0.044(3) 
O8 O2- 4 e -0.703(4) 1.5198(16) 0.5444(6) 1 0 0.044(3) 
O9 O2- 4 e -0.441(3) 1.4517(17) 0.6491(11) 1 0 0.044(3) 
F4 F1- 4 e 0.175(4) 0.2698(19) 0.4186(10) 1 0 0.104 
O10 O2- 4 e 0.132(4) 0.2943(14) 0.5352(11) 1 0 0.044(3) 
O11 O2- 4 e 0.089(4) 0.1226(13) 0.4864(12) 1 0 0.044(3) 
O12 O2- 4 e 0.507(3) 0.2098(16) 0.5049(11) 1 0 0.044(3) 

loop_
_atom_site_aniso_label
_atom_site_aniso_type_symbol
_atom_site_aniso_U_11
_atom_site_aniso_U_22
_atom_site_aniso_U_33
_atom_site_aniso_U_12
_atom_site_aniso_U_13
_atom_site_aniso_U_23
Ag2 Ag1+ 0.057(3) 0.023(2) 0.034(3) -0.003(2) 0.007(2) 0.000(2)
Ag3 Ag1+ 0.067(4) 0.025(2) 0.033(3) 0.007(3) 0.005(2) 0.001(2)
#End of data_422417-ICSD


