data_26685-ICSD
#?2014 by Fachinformationszentrum Karlsruhe, and the U.S. Secretary of 
#Commerce on behalf of the United States.  All rights reserved.
_database_code_ICSD                26685
_audit_creation_date               1980/01/01
_audit_update_record               2010/02/01
_chemical_name_systematic          'Potassium Chlorate(V)'
_chemical_formula_structural       'K (Cl O3)'
_chemical_formula_sum              'Cl1 K1 O3'
_publ_section_title
;
The crystal structure of potassium chlorate
;
loop_
_citation_id
_citation_journal_abbrev
_citation_year
_citation_journal_volume
_citation_page_first
_citation_page_last
_citation_journal_id_ASTM
primary
;
Zeitschrift fuer Kristallographie, Kristallgeometrie, Kristallphysik, 
Kristallchemie (-144,1977)
;
 1929 71 501 516 ZEKGAX
2 'Golden Book of Phase Transitions, Wroclaw' 2002 1 1 123 GBOPT5
_publ_author_name                  'Zachariasen, W.H.'
_cell_length_a                     4.656(4)
_cell_length_b                     5.596(5)
_cell_length_c                     7.099(7)
_cell_angle_alpha                  90.
_cell_angle_beta                   109.63(8)
_cell_angle_gamma                  90.
_cell_volume                       174.21
_cell_formula_units_Z              2
_symmetry_space_group_name_H-M     'P 1 21/m 1'
_symmetry_Int_Tables_number        11
loop_
_symmetry_equiv_pos_site_id
_symmetry_equiv_pos_as_xyz
  1	'x, -y+.5, z'
  2	'-x, -y, -z'
  3	'-x, y+.5, -z'
  4	'x, y, z'
loop_
_atom_type_symbol
_atom_type_oxidation_number
Cl5+	5
K1+	1
O2-	-2
loop_
_atom_site_label
_atom_site_type_symbol
_atom_site_symmetry_multiplicity
_atom_site_Wyckoff_symbol
_atom_site_fract_x
_atom_site_fract_y
_atom_site_fract_z
_atom_site_occupancy
_atom_site_attached_hydrogens
K1 K1+ 2 e 0.366 0.25 -.298 1. 0 
Cl1 Cl5+ 2 e 0.106 0.25 0.175 1. 0 
O1 O2- 2 e 0.405 0.25 0.111 1. 0 
O2 O2- 4 f 0.139 0.472 0.278 1. 0 

#End of data_26685-ICSD


