data_66062-ICSD
#?2014 by Fachinformationszentrum Karlsruhe, and the U.S. Secretary of 
#Commerce on behalf of the United States.  All rights reserved.
_database_code_ICSD                66062
_audit_creation_date               1991/07/10
_audit_update_record               2007/08/01
_chemical_name_systematic          'Tristrontium Cyclo-hexaaluminate'
_chemical_formula_structural       'Sr9 (Al6 O18)'
_chemical_formula_sum              'Al6 O18 Sr9'
_publ_section_title
;
Tristrontium dialuminium hexaoxide: An intricate superstructure of 
perovskite
;
loop_
_citation_id
_citation_journal_abbrev
_citation_year
_citation_journal_volume
_citation_page_first
_citation_page_last
_citation_journal_id_ASTM
primary 'Inorganic Chemistry' 1990 29 4768 4771 INOCAJ
2 'Powder Diffraction' 1987 2 191 201 PODIE2
_publ_author_name
;
Alonso, J.A.;Rasines, I.;Soubeyroux, J.L.
;
_cell_length_a                     15.8476(2)
_cell_length_b                     15.8476(2)
_cell_length_c                     15.8476(2)
_cell_angle_alpha                  90.
_cell_angle_beta                   90.
_cell_angle_gamma                  90.
_cell_volume                       3980.07
_cell_formula_units_Z              8
_symmetry_space_group_name_H-M     'P a -3'
_symmetry_Int_Tables_number        205
_refine_ls_R_factor_all            .0329
loop_
_symmetry_equiv_pos_site_id
_symmetry_equiv_pos_as_xyz
  1	'-z+.5, x+.5, y'
  2	'z+.5, x, -y+.5'
  3	'z, -x+.5, y+.5'
  4	'-z, -x, -y'
  5	'y, -z+.5, x+.5'
  6	'-y+.5, z+.5, x'
  7	'y+.5, z, -x+.5'
  8	'-y, -z, -x'
  9	'x+.5, y, -z+.5'
 10	'x, -y+.5, z+.5'
 11	'-x+.5, y+.5, z'
 12	'-x, -y, -z'
 13	'z+.5, -x+.5, -y'
 14	'-z+.5, -x, y+.5'
 15	'-z, x+.5, -y+.5'
 16	'z, x, y'
 17	'-y, z+.5, -x+.5'
 18	'y+.5, -z+.5, -x'
 19	'-y+.5, -z, x+.5'
 20	'y, z, x'
 21	'-x+.5, -y, z+.5'
 22	'-x, y+.5, -z+.5'
 23	'x+.5, -y+.5, -z'
 24	'x, y, z'
loop_
_atom_type_symbol
_atom_type_oxidation_number
Al3+	3
O2-	-2
Sr2+	2
loop_
_atom_site_label
_atom_site_type_symbol
_atom_site_symmetry_multiplicity
_atom_site_Wyckoff_symbol
_atom_site_fract_x
_atom_site_fract_y
_atom_site_fract_z
_atom_site_occupancy
_atom_site_attached_hydrogens
_atom_site_B_iso_or_equiv
Sr1 Sr2+ 4 a 0 0 0 1. 0 1.51(24) 
Sr2 Sr2+ 4 b 0.5 0 0 1. 0 1.11(23) 
Sr3 Sr2+ 8 c 0.2521(3) 0.2521(3) 0.2521(3) 1. 0 0.45(16) 
Sr4 Sr2+ 8 c 0.3765(4) 0.3765(4) 0.3764(4) 1. 0 1.13(12) 
Sr5 Sr2+ 24 d 0.1345(3) 0.3745(3) 0.1332(4) 1. 0 0.94(7) 
Sr6 Sr2+ 24 d 0.3793(4) 0.3852(3) 0.1242(3) 1. 0 0.67(7) 
Al1 Al3+ 24 d 0.2520(5) 0.0164(8) 0.0184(8) 1. 0 0.83(15) 
Al2 Al3+ 24 d 0.2392(7) 0.2345(7) 0.0041(6) 1. 0 0.70(17) 
O1 O2- 24 d 0.2631(4) 0.1257(7) 0.0032(4) 1. 0 0.93(10) 
O2 O2- 24 d 0.4930(4) 0.1275(6) 0.2448(4) 1. 0 0.79(9) 
O3 O2- 24 d 0.2697(4) 0.2762(4) 0.1001(4) 1. 0 0.96(10) 
O4 O2- 24 d 0.2352(4) 0.4065(3) 0.2804(4) 1. 0 0.79(11) 
O5 O2- 24 d 0.3458(4) -.0261(4) -.0188(5) 1. 0 1.07(12) 
O6 O2- 24 d 0.1544(4) -.0175(4) -.0177(4) 1. 0 0.85(10) 

#End of data_66062-ICSD


