data_10400-ICSD
#?2014 by Fachinformationszentrum Karlsruhe, and the U.S. Secretary of 
#Commerce on behalf of the United States.  All rights reserved.
_database_code_ICSD                10400
_audit_creation_date               1980/01/01
_audit_update_record               1999/11/30
_chemical_name_systematic          'Zinc Arsenate(III)'
_chemical_formula_structural       'Zn3 (As O3)2'
_chemical_formula_sum              'As2 O6 Zn3'
_chemical_name_mineral             Reinerite
_publ_section_title
;
Reinerite, Zn3 (As O3)2 : an arsenite with a novel type of Zn-
tetrahedral double chain
;
loop_
_citation_id
_citation_journal_abbrev
_citation_year
_citation_journal_volume
_citation_page_first
_citation_page_last
_citation_journal_id_ASTM
primary 'American Mineralogist' 1977 62 1129 1134 AMMIAY
_publ_author_name
;
Ghose, S.;Boving, P.;Lachapelle, W.A.;Wan, C.
;
_cell_length_a                     6.092(2)
_cell_length_b                     14.407(2)
_cell_length_c                     7.811(1)
_cell_angle_alpha                  90.
_cell_angle_beta                   90.
_cell_angle_gamma                  90.
_cell_volume                       685.55
_cell_formula_units_Z              4
_symmetry_space_group_name_H-M     'P b a m'
_symmetry_Int_Tables_number        55
_refine_ls_R_factor_all            .046
loop_
_symmetry_equiv_pos_site_id
_symmetry_equiv_pos_as_xyz
  1	'x+.5, -y+.5, z'
  2	'-x+.5, y+.5, z'
  3	'x, y, -z'
  4	'-x, -y, -z'
  5	'-x+.5, y+.5, -z'
  6	'x+.5, -y+.5, -z'
  7	'-x, -y, z'
  8	'x, y, z'
loop_
_atom_type_symbol
_atom_type_oxidation_number
As3+	3
O2-	-2
Zn2+	2
loop_
_atom_site_label
_atom_site_type_symbol
_atom_site_symmetry_multiplicity
_atom_site_Wyckoff_symbol
_atom_site_fract_x
_atom_site_fract_y
_atom_site_fract_z
_atom_site_occupancy
_atom_site_attached_hydrogens
Zn1 Zn2+ 4 f 0 0.5 0.31453(8) 1. 0 
Zn2 Zn2+ 8 i 0.56494(8) 0.77908(3) 0.78434(6) 1. 0 
As1 As3+ 4 h 0.91312(10) 0.87436(4) 0.5 1. 0 
As2 As3+ 4 g 0.22305(10) 0.90126(4) 0 1. 0 
O1 O2- 4 h 0.3304(8) 0.0608(3) 0.5 1. 0 
O2 O2- 4 g 0.3349(8) 0.2807(3) 0 1. 0 
O3 O2- 8 i 0.1519(5) 0.1997(2) 0.3262(4) 1. 0 
O4 O2- 8 i 0.0904(5) 0.3965(2) 0.1736(4) 1. 0 

#End of data_10400-ICSD


