data_150871-ICSD
#?2014 by Fachinformationszentrum Karlsruhe, and the U.S. Secretary of 
#Commerce on behalf of the United States.  All rights reserved.
_database_code_ICSD                150871
_audit_creation_date               2006/04/01
_chemical_name_systematic
;
Sodium Iron(III) Fluoride (5/3/14) - Alpha
;
_chemical_formula_structural       'Na5 Fe3 F14'
_chemical_formula_sum              'F14 Fe3 Na5'
_chemical_name_mineral             Unnamed_Chiolite
_publ_section_title
;
Distorted chiolite crystal structures of alpha-(Na5 M3 F14) (M = Cr, 
Fe, Ga)
;
loop_
_citation_id
_citation_journal_abbrev
_citation_year
_citation_journal_volume
_citation_journal_issue
_citation_page_first
_citation_page_last
_citation_journal_id_ASTM
primary 'Powder Diffraction' 2003 18 2 128 134 PODIE2
_publ_author_name                  'Le Bail, A.;Mercier, A.M.'
_cell_length_a                     10.4342(7)
_cell_length_b                     7.3418(6)
_cell_length_c                     7.4023(6)
_cell_angle_alpha                  90.
_cell_angle_beta                   90.799(5)
_cell_angle_gamma                  90.
_cell_volume                       567
_cell_formula_units_Z              2
_symmetry_space_group_name_H-M     'P 1 21/n 1'
_symmetry_Int_Tables_number        14
_refine_ls_R_factor_all            .04
loop_
_symmetry_equiv_pos_site_id
_symmetry_equiv_pos_as_xyz
  1	'-x+.5, y+.5, -z+.5'
  2	'-x, -y, -z'
  3	'x+.5, -y+.5, z+.5'
  4	'x, y, z'
loop_
_atom_type_symbol
_atom_type_oxidation_number
F1-	-1
Fe3+	3
Na1+	1
loop_
_atom_site_label
_atom_site_type_symbol
_atom_site_symmetry_multiplicity
_atom_site_Wyckoff_symbol
_atom_site_fract_x
_atom_site_fract_y
_atom_site_fract_z
_atom_site_occupancy
_atom_site_attached_hydrogens
_atom_site_B_iso_or_equiv
Na1 Na1+ 4 e 0.2540(11) 0.2051(14) 0.2615(20) 1. 0 1.44(25) 
Na2 Na1+ 4 e 0.2613(13) 0.2582(15) 0.7631(24) 1. 0 2.32(30) 
Na3 Na1+ 2 d 0.5 0 0 1. 0 6.97(65) 
Fe1 Fe3+ 2 a 0 0 0 1. 0 1.17(17) 
Fe2 Fe3+ 2 b 0 0 0.5 1. 0 1.18(17) 
Fe3 Fe3+ 2 c 0.5 0 0.5 1. 0 0.62(16) 
F1 F1- 4 e 0.9542(11) 0.2517(20) 0.9485(19) 1. 0 1.07(37) 
F2 F1- 4 e 0.0049(15) 0.0652(20) 0.2420(23) 1. 0 3.33(47) 
F3 F1- 4 e 0.1712(9) 0.0556(22) 0.9957(20) 1. 0 4.27(47) 
F4 F1- 4 e 0.3841(17) -0.0046(19) 0.6870(22) 1. 0 1.93(38) 
F5 F1- 4 e 0.1101(13) 0.7937(20) 0.4617(22) 1. 0 2.12(38) 
F6 F1- 4 e 0.6261(14) 0.0696(22) 0.6700(20) 1. 0 2.21(40) 
F7 F1- 4 e 0.3595(13) 0.6673(21) 0.9766(22) 1. 0 1.29(43) 

#End of data_150871-ICSD


