data_247719-ICSD
#?2014 by Fachinformationszentrum Karlsruhe, and the U.S. Secretary of 
#Commerce on behalf of the United States.  All rights reserved.
_database_code_ICSD                247719
_audit_creation_date               2013/08/01
_chemical_name_systematic          'Kalium Iodate(V)'
_chemical_formula_structural       'K I O3'
_chemical_formula_sum              'I1 K1 O3'
_publ_section_title                'Phase transitions in K I O3'
loop_
_citation_id
_citation_journal_abbrev
_citation_year
_citation_journal_volume
_citation_journal_issue
_citation_page_first
_citation_page_last
_citation_journal_id_ASTM
primary 'Journal of Physics: Condensed Matter' 2012 24 32 325401-1 325401-11 JCOMEL
_publ_author_name
;
Bayarjargal, Lkhamsuren;Wiehl, Leonore;Friedrich, Alexandra;Winkler, 
Bjoern;Juarez-Arellano, Erick A.;Morgenroth, Wolfgang;Haussuehl, 
Eiken
;
_cell_length_a                     5.89(1)
_cell_length_b                     5.89(1)
_cell_length_c                     5.89(1)
_cell_angle_alpha                  62.4(1)
_cell_angle_beta                   62.4(1)
_cell_angle_gamma                  62.4(1)
_cell_volume                       152.22
_cell_formula_units_Z              2
_symmetry_space_group_name_H-M     'R 3 R'
_symmetry_Int_Tables_number        146
_refine_ls_R_factor_all            .0192
loop_
_symmetry_equiv_pos_site_id
_symmetry_equiv_pos_as_xyz
  1	'z, x, y'
  2	'y, z, x'
  3	'x, y, z'
loop_
_atom_type_symbol
_atom_type_oxidation_number
I5+	5
K1+	1
O2-	-2
loop_
_atom_site_label
_atom_site_type_symbol
_atom_site_symmetry_multiplicity
_atom_site_Wyckoff_symbol
_atom_site_fract_x
_atom_site_fract_y
_atom_site_fract_z
_atom_site_occupancy
_atom_site_attached_hydrogens
_atom_site_U_iso_or_equiv
K1 K1+ 1 a 0.2532(16) 0.2532(16) 0.2532(16) 1. 0 0.0149(9) 
K2 K1+ 1 a 0.7537(16) 0.7537(16) 0.7537(16) 1. 0 0.0143(10) 
I1 I5+ 1 a -0.00004(6) -0.00004(6) -0.00004(6) 1. 0 0.0074(2) 
I2 I5+ 1 a 0.50001(6) 0.50001(6) 0.50001(6) 1. 0 0.0074(2) 
O1 O2- 3 b 0.7295(10) 0.8526(10) 0.2550(11) 1. 0 0.0227(7) 
O2 O2- 3 b 0.3481(10) 0.2333(10) 0.7295(11) 1. 0 0.0215(7) 

loop_
_atom_site_aniso_label
_atom_site_aniso_type_symbol
_atom_site_aniso_U_11
_atom_site_aniso_U_22
_atom_site_aniso_U_33
_atom_site_aniso_U_12
_atom_site_aniso_U_13
_atom_site_aniso_U_23
K1 K1+ 0.0168 0.0168 0.0112   
K2 K1+ 0.0155 0.0155 0.0120   
I1 I5+ 0.0075 0.0073 0.0073   
I2 I5+ 0.0075 0.0075 0.0074   
#End of data_247719-ICSD


