data_15052-ICSD
#?2014 by Fachinformationszentrum Karlsruhe, and the U.S. Secretary of 
#Commerce on behalf of the United States.  All rights reserved.
_database_code_ICSD                15052
_audit_creation_date               1980/01/01
_audit_update_record               1987/04/13
_chemical_name_systematic          'Thallium Zinc Chloride Sulfate'
_chemical_formula_structural       'Tl Zn S O4 Cl'
_chemical_formula_sum              'Cl1 O4 S1 Tl1 Zn1'
_publ_section_title
;
The crystal structure of Tl (Zn S O4 Cl)
;
loop_
_citation_id
_citation_journal_abbrev
_citation_year
_citation_journal_volume
_citation_page_first
_citation_page_last
_citation_journal_id_ASTM
primary 'Acta Chemica Scandinavica (1-27,1973-42,1988)' 1973 27 2230 2231 ACSAA4
_publ_author_name                  'Bosson, B.'
_cell_length_a                     7.278
_cell_length_b                     9.551
_cell_length_c                     8.092
_cell_angle_alpha                  90.
_cell_angle_beta                   93.97
_cell_angle_gamma                  90.
_cell_volume                       561.14
_cell_formula_units_Z              4
_symmetry_space_group_name_H-M     'P 1 21/c 1'
_symmetry_Int_Tables_number        14
_refine_ls_R_factor_all            .073
loop_
_symmetry_equiv_pos_site_id
_symmetry_equiv_pos_as_xyz
  1	'x, -y+.5, z+.5'
  2	'-x, -y, -z'
  3	'-x, y+.5, -z+.5'
  4	'x, y, z'
loop_
_atom_type_symbol
_atom_type_oxidation_number
Cl1-	-1
O2-	-2
S6+	6
Tl1+	1
Zn2+	2
loop_
_atom_site_label
_atom_site_type_symbol
_atom_site_symmetry_multiplicity
_atom_site_Wyckoff_symbol
_atom_site_fract_x
_atom_site_fract_y
_atom_site_fract_z
_atom_site_occupancy
_atom_site_attached_hydrogens
_atom_site_B_iso_or_equiv
Tl1 Tl1+ 4 e 0.3690(2) 0.0894(2) 0.2099(2) 1. 0 0 
Zn1 Zn2+ 4 e 0.9037(5) 0.2014(4) 0.4612(5) 1. 0 0 
Cl1 Cl1- 4 e 0.6232(11) 0.1853(9) 0.5418(12) 1. 0 1.85 
S1 S6+ 4 e 0.1109(8) 0.4369(6) 0.2687(9) 1. 0 0.71 
O1 O2- 4 e 0.1071(31) 0.3552(26) 0.1099(31) 1. 0 2. 
O2 O2- 4 e -.0294(36) 0.3826(28) 0.3655(35) 1. 0 2.51 
O3 O2- 4 e 0.2903(40) 0.4155(36) 0.3525(41) 1. 0 3.25 
O4 O2- 4 e 0.0591(27) 0.5823(24) 0.2386(29) 1. 0 1.54 

#End of data_15052-ICSD


