data_87453-ICSD
#?2014 by Fachinformationszentrum Karlsruhe, and the U.S. Secretary of 
#Commerce on behalf of the United States.  All rights reserved.
_database_code_ICSD                87453
_audit_creation_date               2000/12/16
_chemical_name_systematic
;
Heptasodium Tetrakis(indodiphophate(V)) Phosphate(V)
;
_chemical_formula_structural       'Na7 (In P2 O7)4 (P O4)'
_chemical_formula_sum              'In4 Na7 O32 P9'
_publ_section_title
;
Interaction in the system Na2 O - P2 O5 - In2 O3 and the structure of 
a new double phosphate
;
loop_
_citation_id
_citation_journal_abbrev
_citation_year
_citation_journal_volume
_citation_journal_issue
_citation_page_first
_citation_page_last
_citation_journal_id_ASTM
primary 'Dopov. Nats. Akad. Nauk. Ukr.' 1998 1998 5 141 146 DNAUFL
_publ_author_name                  'Nagornyi, P.G.'
_cell_length_a                     14.205(2)
_cell_length_b                     14.205(2)
_cell_length_c                     6.613(1)
_cell_angle_alpha                  90.
_cell_angle_beta                   90.
_cell_angle_gamma                  90.
_cell_volume                       1334.38
_cell_formula_units_Z              2
_symmetry_space_group_name_H-M     'P -4 21 c'
_symmetry_Int_Tables_number        114
_refine_ls_R_factor_all            .019
loop_
_symmetry_equiv_pos_site_id
_symmetry_equiv_pos_as_xyz
  1	'y+.5, x+.5, z+.5'
  2	'y, -x, -z'
  3	'-y+.5, -x+.5, z+.5'
  4	'-y, x, -z'
  5	'x+.5, -y+.5, -z+.5'
  6	'-x, -y, z'
  7	'-x+.5, y+.5, -z+.5'
  8	'x, y, z'
loop_
_atom_type_symbol
_atom_type_oxidation_number
In3+	3
Na1+	1
O2-	-2
P5+	5
loop_
_atom_site_label
_atom_site_type_symbol
_atom_site_symmetry_multiplicity
_atom_site_Wyckoff_symbol
_atom_site_fract_x
_atom_site_fract_y
_atom_site_fract_z
_atom_site_occupancy
_atom_site_attached_hydrogens
_atom_site_U_iso_or_equiv
In1 In3+ 8 e 0.3042(1) 0.3804(1) 0.1145(1) 1. 0 0.008(1) 
P1 P5+ 2 b 0.5 0.5 0 1. 0 0.009(1) 
P2 P5+ 8 e -.0611(1) 0.3047(1) 0.3821(2) 1. 0 0.010(1) 
P3 P5+ 8 e 0.1044(1) 0.2498(1) 0.1291(2) 1. 0 0.009(1) 
Na1 Na1+ 2 a 0.5 0.5 0.5 1. 0 0.069(2) 
Na2 Na1+ 4 d 0 0.5 0.6410(6) 1. 0 0.066(1) 
Na3 Na1+ 8 e 0.2560(2) 0.0916(1) 0.1286(3) 1. 0 0.018(1) 
O1 O2- 8 e 0.4380(2) 0.4403(2) 0.1425(5) 1. 0 0.012(1) 
O2 O2- 8 e -.0682(2) 0.4095(2) 0.3947(6) 1. 0 0.015(1) 
O3 O2- 8 e 0.8430(2) 0.2613(2) 0.3357(5) 1. 0 0.014(1) 
O4 O2- 8 e -.0145(2) 0.2578(2) 0.5620(5) 1. 0 0.012(1) 
O5 O2- 8 e -.0014(3) 0.2794(3) 0.1808(5) 1. 0 0.016(1) 
O6 O2- 8 e 0.1390(2) 0.1842(2) 0.2947(5) 1. 0 0.013(1) 
O7 O2- 8 e 0.0918(3) 0.1953(3) -.0666(5) 1. 0 0.020(1) 
O8 O2- 8 e 0.1592(3) 0.3400(3) 0.1084(6) 1. 0 0.018(1) 

#End of data_87453-ICSD


