data_63178-ICSD
#?2014 by Fachinformationszentrum Karlsruhe, and the U.S. Secretary of 
#Commerce on behalf of the United States.  All rights reserved.
_database_code_ICSD                63178
_audit_creation_date               1989/12/04
_audit_update_record               2005/10/01
_chemical_name_systematic          'Dimagnesium Silicate - Beta, Lt'
_chemical_formula_structural       'Mg2 (Si O4)'
_chemical_formula_sum              'Mg2 O4 Si1'
_publ_section_title
;
Crystal structure and elastic constants of beta - Mg2 Si O4 under 
high pressure simulated from a potential model
;
loop_
_citation_id
_citation_journal_abbrev
_citation_year
_citation_journal_volume
_citation_page_first
_citation_page_last
_citation_journal_id_ASTM
primary 'Acta Crystallographica, Section B: Structural Science'
 1985 41 377 382 ASBSDK
_publ_author_name                  'Matsui, M.;Matsumoto, T.'
_cell_length_a                     5.696
_cell_length_b                     11.515
_cell_length_c                     8.365
_cell_angle_alpha                  90.
_cell_angle_beta                   90.
_cell_angle_gamma                  90.
_cell_volume                       548.66
_cell_formula_units_Z              8
_symmetry_space_group_name_H-M     'I m m a'
_symmetry_Int_Tables_number        74
loop_
_symmetry_equiv_pos_site_id
_symmetry_equiv_pos_as_xyz
  1	'-x, y+.5, -z'
  2	'-x, -y+.5, z'
  3	'-x, y, z'
  4	'-x, -y, -z'
  5	'x, -y+.5, z'
  6	'x, y+.5, -z'
  7	'x, -y, -z'
  8	'x, y, z'
  9	'-x+.5, y, -z+.5'
 10	'-x+.5, -y, z+.5'
 11	'-x+.5, y+.5, z+.5'
 12	'-x+.5, -y+.5, -z+.5'
 13	'x+.5, -y, z+.5'
 14	'x+.5, y, -z+.5'
 15	'x+.5, -y+.5, -z+.5'
 16	'x+.5, y+.5, z+.5'
loop_
_atom_type_symbol
_atom_type_oxidation_number
Mg2+	2
O2-	-2
Si4+	4
loop_
_atom_site_label
_atom_site_type_symbol
_atom_site_symmetry_multiplicity
_atom_site_Wyckoff_symbol
_atom_site_fract_x
_atom_site_fract_y
_atom_site_fract_z
_atom_site_occupancy
_atom_site_attached_hydrogens
Mg1 Mg2+ 4 a 0 0 0 1. 0 
Mg2 Mg2+ 4 e 0 0.25 0.9648 1. 0 
Mg3 Mg2+ 8 g 0.25 0.1286 0.25 1. 0 
Si1 Si4+ 8 h 0 0.1195 0.6151 1. 0 
O1 O2- 4 e 0 0.25 0.2106 1. 0 
O2 O2- 4 e 0 0.25 0.711 1. 0 
O3 O2- 8 h 0 0.9893 0.2578 1. 0 
O4 O2- 16 j 0.2614 0.1224 0.9928 1. 0 

#End of data_63178-ICSD


