data_50150-ICSD
#?2014 by Fachinformationszentrum Karlsruhe, and the U.S. Secretary of 
#Commerce on behalf of the United States.  All rights reserved.
_database_code_ICSD                50150
_audit_creation_date               1999/01/19
_chemical_name_systematic          'Calcium Tin Oxide Silicate'
_chemical_formula_structural       'Ca Sn O (Si O4)'
_chemical_formula_sum              'Ca1 O5 Si1 Sn1'
_chemical_name_mineral             Malayaite
_publ_section_title
;
Structural investigations along the join Ca Ti O Si O4 - Ca Sn O SiO4
;
loop_
_citation_id
_citation_journal_abbrev
_citation_year
_citation_journal_volume
_citation_page_first
_citation_page_last
_citation_journal_id_ASTM
primary 'Schweizerische Mineralogische und Petrographische Mitteilungen'
 1997 77 1 11 SMPTA8
_publ_author_name
;
Kunz, M.;Xirouchakis, D.;Wang, Y.-B.;Parise, J.B.;Lindsley, D.H.
;
_cell_length_a                     7.15059(12)
_cell_length_b                     8.89373(15)
_cell_length_c                     6.66923(11)
_cell_angle_alpha                  90.
_cell_angle_beta                   113.3330(9)
_cell_angle_gamma                  90.
_cell_volume                       389.45
_cell_formula_units_Z              4
_symmetry_space_group_name_H-M     'A 1 2/a 1'
_symmetry_Int_Tables_number        15
_refine_ls_R_factor_all            .0507
loop_
_symmetry_equiv_pos_site_id
_symmetry_equiv_pos_as_xyz
  1	'-x+.5, y, -z'
  2	'-x, -y, -z'
  3	'x+.5, -y, z'
  4	'x, y, z'
  5	'-x+.5, y+.5, -z+.5'
  6	'-x, -y+.5, -z+.5'
  7	'x+.5, -y+.5, z+.5'
  8	'x, y+.5, z+.5'
loop_
_atom_type_symbol
_atom_type_oxidation_number
Ca2+	2
O2-	-2
Si4+	4
Sn4+	4
loop_
_atom_site_label
_atom_site_type_symbol
_atom_site_symmetry_multiplicity
_atom_site_Wyckoff_symbol
_atom_site_fract_x
_atom_site_fract_y
_atom_site_fract_z
_atom_site_occupancy
_atom_site_attached_hydrogens
_atom_site_U_iso_or_equiv
Ca1 Ca2+ 4 e 0.25 0.1629(2) 0 1. 0 0.0186(8) 
Sn1 Sn4+ 4 b 0.5 0 0.5 1. 0 0.0081(7) 
Si1 Si4+ 4 e 0.75 0.1811(3) 0 1. 0 0.0025(7) 
O1 O2- 4 e 0.75 0.0850(5) 0.5 1. 0 0.005(7) 
O2 O2- 8 f 0.9136(4) 0.0677(3) 0.1755(4) 1. 0 0.005(7) 
O3 O2- 8 f 0.3740(5) 0.2124(3) 0.3920(5) 1. 0 0.005(7) 

#End of data_50150-ICSD


