data_417104-ICSD
#?2014 by Fachinformationszentrum Karlsruhe, and the U.S. Secretary of 
#Commerce on behalf of the United States.  All rights reserved.
_database_code_ICSD                417104
_audit_creation_date               2008/08/01
_chemical_name_systematic
;
Praseodymium Potassium Palladate(II)
;
_chemical_formula_structural       'Pr K Pd O3'
_chemical_formula_sum              'K1 O3 Pd1 Pr1'
_publ_section_title
;
Crystal growth and structural characterization of the new ordered 
palladates, Ln K Pd O3 (Ln = La, Pr, Nd, Sm - Gd) and the 
isostructural, partially Cu-substituted palladate, Pr K (Cu0.14 
Pd0.86) O3
;
loop_
_citation_id
_citation_journal_abbrev
_citation_year
_citation_journal_volume
_citation_journal_issue
_citation_page_first
_citation_page_last
_citation_journal_id_ASTM
primary 'Inorganic Chemistry' 2007 46 8 3116 3122 INOCAJ
_publ_author_name
;
Mugavero, S.J.;Smith, M.D.;zur Loye, H.C.
;
_cell_length_a                     13.2620(5)
_cell_length_b                     3.9576(2)
_cell_length_c                     7.3865(3)
_cell_angle_alpha                  90.00
_cell_angle_beta                   105.1580(10)
_cell_angle_gamma                  90.00
_cell_volume                       374.2
_cell_formula_units_Z              4
_symmetry_space_group_name_H-M     'C 1 2/m 1'
_symmetry_Int_Tables_number        12
_refine_ls_R_factor_all            .0165
loop_
_symmetry_equiv_pos_site_id
_symmetry_equiv_pos_as_xyz
  1	'-x, y, -z'
  2	'-x, -y, -z'
  3	'x, -y, z'
  4	'x, y, z'
  5	'-x+.5, y+.5, -z'
  6	'-x+.5, -y+.5, -z'
  7	'x+.5, -y+.5, z'
  8	'x+.5, y+.5, z'
loop_
_atom_type_symbol
_atom_type_oxidation_number
K1+	1
O2-	-2
Pd2+	2
Pr3+	3
loop_
_atom_site_label
_atom_site_type_symbol
_atom_site_symmetry_multiplicity
_atom_site_Wyckoff_symbol
_atom_site_fract_x
_atom_site_fract_y
_atom_site_fract_z
_atom_site_occupancy
_atom_site_attached_hydrogens
_atom_site_U_iso_or_equiv
Pr1 Pr3+ 4 i 0.650517(15) 0.0000 0.08103(3) 1 0 0.00844(8) 
Pd1 Pd2+ 4 i 0.006646(19) 0.0000 0.77746(4) 1 0 0.00734(8) 
K1 K1+ 4 i 0.35751(7) 0.0000 0.43559(12) 1 0 0.01450(17) 
O1 O2- 4 i 0.8322(2) 0.0000 0.1330(4) 1 0 0.0111(5) 
O2 O2- 4 i 0.4938(2) 0.0000 0.1989(4) 1 0 0.0129(5) 
O3 O2- 4 i 0.1515(2) 0.0000 0.2801(4) 1 0 0.0099(5) 

loop_
_atom_site_aniso_label
_atom_site_aniso_type_symbol
_atom_site_aniso_U_11
_atom_site_aniso_U_22
_atom_site_aniso_U_33
_atom_site_aniso_U_12
_atom_site_aniso_U_13
_atom_site_aniso_U_23
Pr1 Pr3+ 0.00647(11) 0.00795(11) 0.01100(11) 0.000 0.00250(7) 0.000
Pd1 Pd2+ 0.00622(13) 0.00603(14) 0.00967(14) 0.000 0.00190(9) 0.000
K1 K1+ 0.0118(4) 0.0182(4) 0.0134(4) 0.000 0.0031(3) 0.000
O1 O2- 0.0081(11) 0.0119(13) 0.0129(12) 0.000 0.0020(10) 0.000
O2 O2- 0.0139(12) 0.0070(12) 0.0181(13) 0.000 0.0044(10) 0.000
O3 O2- 0.0054(10) 0.0116(12) 0.0120(11) 0.000 0.0013(9) 0.000
#End of data_417104-ICSD


