data_170820-ICSD
#?2014 by Fachinformationszentrum Karlsruhe, and the U.S. Secretary of 
#Commerce on behalf of the United States.  All rights reserved.
_database_code_ICSD                170820
_audit_creation_date               2006/04/01
_chemical_name_systematic          'Calcium Copper Germanate'
_chemical_formula_structural       'Ca Cu Ge2 O6'
_chemical_formula_sum              'Ca1 Cu1 Ge2 O6'
_chemical_name_mineral             Clinopyroxene
_publ_section_title
;
Crystal structure of the clinopyroxene-type compound Ca Cu Ge2 O6 
between 15 K and 700 K
;
loop_
_citation_id
_citation_journal_abbrev
_citation_year
_citation_journal_volume
_citation_page_first
_citation_page_last
_citation_journal_id_ASTM
primary 'Acta Crystallographica, Section B: Structural Science'
 2005 61 367 380 ASBSDK
_publ_author_name
;
Redhammer, G.J.;Tippelt, G.;Merz, M.;Roth, G.;Treutmann, W.;Amthauer, 
G.
;
_cell_length_a                     10.2180(12)
_cell_length_b                     9.2536(7)
_cell_length_c                     5.2468(6)
_cell_angle_alpha                  90
_cell_angle_beta                   105.975(12)
_cell_angle_gamma                  90
_cell_volume                       476.94
_cell_formula_units_Z              4
_symmetry_space_group_name_H-M     'P 1 21/c 1'
_symmetry_Int_Tables_number        14
_refine_ls_R_factor_all            .048
loop_
_symmetry_equiv_pos_site_id
_symmetry_equiv_pos_as_xyz
  1	'x, -y+.5, z+.5'
  2	'-x, -y, -z'
  3	'-x, y+.5, -z+.5'
  4	'x, y, z'
loop_
_atom_type_symbol
_atom_type_oxidation_number
Ca2+	2
Cu2+	2
Ge4+	4
O2-	-2
loop_
_atom_site_label
_atom_site_type_symbol
_atom_site_symmetry_multiplicity
_atom_site_Wyckoff_symbol
_atom_site_fract_x
_atom_site_fract_y
_atom_site_fract_z
_atom_site_occupancy
_atom_site_attached_hydrogens
_atom_site_U_iso_or_equiv
Ca1 Ca2+ 4 e 0.27995(13) 0.45221(13) 0.8007(3) 1 0 0.0179(3) 
Cu1 Cu2+ 4 e 0.22971(7) 0.65993(8) 0.25470(13) 1 0 0.01462(19) 
Ge1 Ge4+ 4 e 0.04801(5) 0.34921(7) 0.21127(12) 1 0 0.01001(15) 
Ge2 Ge4+ 4 e 0.48866(6) 0.34967(7) 0.38415(13) 1 0 0.01411(16) 
O1 O2- 4 e -0.1279(4) 0.3597(5) 0.1153(8) 1 0 0.0167(9) 
O2 O2- 4 e 0.6579(4) 0.3203(4) 0.3833(8) 1 0 0.0117(9) 
O3 O2- 4 e 0.1426(5) 0.4910(5) 0.3712(10) 1 0 0.0222(12) 
O4 O2- 4 e 0.4299(5) 0.5192(4) 0.2562(10) 1 0 0.0235(11) 
O5 O2- 4 e 0.1040(4) 0.1987(5) 0.4301(9) 1 0 0.0163(10) 
O6 O2- 4 e 0.4004(4) 0.2542(5) 0.5776(9) 1 0 0.0153(9) 

loop_
_atom_site_aniso_label
_atom_site_aniso_type_symbol
_atom_site_aniso_U_11
_atom_site_aniso_U_22
_atom_site_aniso_U_33
_atom_site_aniso_U_12
_atom_site_aniso_U_13
_atom_site_aniso_U_23
Ca1 Ca2+ 0.0200(6) 0.0172(5) 0.0164(7) 0.0011(5) 0.0047(5) 0.0022(5)
Cu1 Cu2+ 0.0157(3) 0.0146(3) 0.0108(4) -0.0029(3) -0.0011(3) -0.0001(3)
Ge1 Ge4+ 0.0091(3) 0.0104(3) 0.0096(3) -0.0011(2) 0.0009(2) -0.0002(2)
Ge2 Ge4+ 0.0114(3) 0.0118(3) 0.0206(3) 0.0021(2) 0.0069(2) 0.0045(3)
O1 O2- 0.0096(17) 0.022(2) 0.015(2) 0.0052(17) -0.0032(16) -0.0025(19)
O2 O2- 0.0112(17) 0.013(2) 0.010(2) 0.0003(13) 0.0020(16) -0.0019(14)
O3 O2- 0.032(3) 0.015(2) 0.016(3) -0.0145(17) 0.000(2) -0.0045(17)
O4 O2- 0.036(3) 0.013(2) 0.022(3) 0.0045(18) 0.009(2) 0.0065(18)
O5 O2- 0.020(2) 0.021(2) 0.010(2) 0.0029(15) 0.0065(19) 0.0052(16)
O6 O2- 0.0131(19) 0.023(2) 0.010(2) -0.0066(15) 0.0030(18) 0.0025(16)
#End of data_170820-ICSD


