data_40960-ICSD
#?2014 by Fachinformationszentrum Karlsruhe, and the U.S. Secretary of 
#Commerce on behalf of the United States.  All rights reserved.
_database_code_ICSD                40960
_audit_creation_date               2000/07/15
_audit_update_record               2007/08/01
_chemical_name_systematic          'Silver Holmium Sulfide'
_chemical_formula_structural       'Ag Ho S2'
_chemical_formula_sum              'Ag1 Ho1 S2'
_publ_section_title
;
Syntheses and structures of Ag Ln S2 (Ln= Sm-Yb) compounds
;
loop_
_citation_id
_citation_journal_abbrev
_citation_year
_citation_journal_volume
_citation_page_first
_citation_page_last
_citation_journal_id_ASTM
primary 'Journal of Alloys and Compounds' 1992 178 57 70 JALCEU
_publ_author_name
;
van der Lee, A.;van de Belt, R.;Wiegers, G.A.
;
_cell_length_a                     7.633(2)
_cell_length_b                     7.637(1)
_cell_length_c                     11.958(4)
_cell_angle_alpha                  90.
_cell_angle_beta                   90.07(2)
_cell_angle_gamma                  90.
_cell_volume                       697.07
_cell_formula_units_Z              8
_symmetry_space_group_name_H-M     'P 1 21 1'
_symmetry_Int_Tables_number        4
_refine_ls_R_factor_all            .115
loop_
_symmetry_equiv_pos_site_id
_symmetry_equiv_pos_as_xyz
  1	'-x, y+.5, -z'
  2	'x, y, z'
loop_
_atom_type_symbol
_atom_type_oxidation_number
Ag1+	1
Ho3+	3
S2-	-2
loop_
_atom_site_label
_atom_site_type_symbol
_atom_site_symmetry_multiplicity
_atom_site_Wyckoff_symbol
_atom_site_fract_x
_atom_site_fract_y
_atom_site_fract_z
_atom_site_occupancy
_atom_site_attached_hydrogens
_atom_site_B_iso_or_equiv
Ag1 Ag1+ 2 a 0.501(1) 0.763(2) 0.245(1) 1. 0 11.8(3) 
Ag2 Ag1+ 2 a 0.000(1) 0.259(1) 0.262(1) 1. 0 8.3(2) 
Ag3 Ag1+ 2 a 0.2490(9) 0.506(2) -.014(1) 1. 0 10.8(3) 
Ag4 Ag1+ 2 a 0.2458(8) 0.009(2) 0.485(1) 1. 0 11.1(4) 
Ho1 Ho3+ 2 a 0.2522(2) 0 -.0039(1) 1. 0 1.00(2) 
Ho2 Ho3+ 2 a -.0017(1) 0.7541(3) 0.24809(9) 1. 0 0.72(2) 
Ho3 Ho3+ 2 a 0.4983(1) 0.2475(2) 0.25170(9) 1. 0 0.77(2) 
Ho4 Ho3+ 2 a 0.2484(2) 0.5008(3) 0.4965(1) 1. 0 0.80(2) 
S1 S2- 2 a -.0218(8) 0.275(1) 0.5238(5) 1. 0 0.78(8) 
S2 S2- 2 a 0.5209(8) 0.728(1) 0.5213(5) 1. 0 0.67(7) 
S3 S2- 2 a 0.261(1) 0.012(2) -.2316(5) 1. 0 1.13(9) 
S4 S2- 2 a 0.262(1) -.013(2) 0.2233(6) 1. 0 1.15(9) 
S5 S2- 2 a 0.243(1) 0.495(2) 0.2667(6) 1. 0 1.3(1) 
S6 S2- 2 a 0.771(1) 0.012(2) 0.2775(5) 1. 0 1.7(1) 
S7 S2- 2 a -.0207(7) 0.774(1) 0.0205(5) 1. 0 0.67(7) 
S8 S2- 2 a 0.5218(8) 0.230(1) 0.0237(5) 1. 0 0.76(8) 

#End of data_40960-ICSD


