data_4158-ICSD
#?2014 by Fachinformationszentrum Karlsruhe, and the U.S. Secretary of 
#Commerce on behalf of the United States.  All rights reserved.
_database_code_ICSD                4158
_audit_creation_date               1980/01/01
_audit_update_record               2012/02/01
_chemical_name_systematic          'Dipotassium Dizinc Tris(molybdate)'
_chemical_formula_structural       'K2 Zn2 (Mo O4)3'
_chemical_formula_sum              'K2 Mo3 O12 Zn2'
_publ_section_title
;
Etude structural de molybdates de formule K2 M(II)2 (Mo O4)3 pour 
M(II)= Zn, Mg, Ni, Cu et Co
;
loop_
_citation_id
_citation_journal_abbrev
_citation_year
_citation_journal_volume
_citation_page_first
_citation_page_last
_citation_journal_id_ASTM
primary 'Revue de Chimie Minerale' 1975 12 537 545 RVCMA8
_publ_author_name                  'Gicquel-Mayer, C.;Perez, G.'
_cell_length_a                     7.000(5)
_cell_length_b                     9.010(5)
_cell_length_c                     20.68(1)
_cell_angle_alpha                  90.
_cell_angle_beta                   111.65(5)
_cell_angle_gamma                  90.
_cell_volume                       1212.28
_cell_formula_units_Z              4
_symmetry_space_group_name_H-M     'P 1 21/c 1'
_symmetry_Int_Tables_number        14
_refine_ls_R_factor_all            .057
loop_
_symmetry_equiv_pos_site_id
_symmetry_equiv_pos_as_xyz
  1	'x, -y+.5, z+.5'
  2	'-x, -y, -z'
  3	'-x, y+.5, -z+.5'
  4	'x, y, z'
loop_
_atom_type_symbol
_atom_type_oxidation_number
K1+	1
Mo6+	6
O2-	-2
Zn2+	2
loop_
_atom_site_label
_atom_site_type_symbol
_atom_site_symmetry_multiplicity
_atom_site_Wyckoff_symbol
_atom_site_fract_x
_atom_site_fract_y
_atom_site_fract_z
_atom_site_occupancy
_atom_site_attached_hydrogens
_atom_site_B_iso_or_equiv
Mo1 Mo6+ 4 e 0.4945(2) 0.3261(1) 0.2731(1) 1. 0 0.93 
Mo2 Mo6+ 4 e -.0002(2) 0.2278(1) 0.0993(1) 1. 0 0.87 
Mo3 Mo6+ 4 e 0.3436(2) 0.3386(1) 0.4636(1) 1. 0 0.88 
Zn1 Zn2+ 4 e 0.5419(2) 0.1452(2) 0.1355(1) 1. 0 0.57 
Zn2 Zn2+ 4 e 0.1882(2) 0.5928(2) 0.5632(1) 1. 0 0.59 
K1 K1+ 4 e 0.6133(5) 0.0310(4) 0.4067(2) 1. 0 1.7 
K2 K1+ 4 e -.0219(5) 0.1167(4) 0.2869(2) 1. 0 2.12 
O1 O2- 4 e 0.6094(13) -.0007(11) 0.2169(5) 1. 0 1.05 
O2 O2- 4 e 0.2209(13) 0.1119(10) 0.1116(5) 1. 0 0.74 
O3 O2- 4 e 0.4523(13) 0.2623(10) 0.0414(5) 1. 0 0.84 
O4 O2- 4 e 0.5663(13) 0.3241(11) 0.1990(5) 1. 0 0.85 
O5 O2- 4 e 0.8449(13) 0.1604(11) 0.1437(5) 1. 0 0.94 
O6 O2- 4 e 0.0891(15) 0.4003(12) 0.1322(5) 1. 0 1.43 
O7 O2- 4 e 0.5197(13) 0.4542(11) 0.4393(5) 1. 0 0.83 
O8 O2- 4 e 0.3173(15) 0.1904(13) 0.2657(6) 1. 0 1.74 
O9 O2- 4 e 0.2703(15) 0.2007(12) 0.4025(6) 1. 0 1.67 
O10 O2- 4 e 0.1198(13) 0.4377(10) 0.4601(5) 1. 0 0.93 
O11 O2- 4 e 0.8596(13) 0.2550(11) 0.0092(5) 1. 0 1.04 
O12 O2- 4 e 0.7176(14) 0.2836(11) 0.3493(5) 1. 0 1.1 

#End of data_4158-ICSD


