data_156861-ICSD
#?2014 by Fachinformationszentrum Karlsruhe, and the U.S. Secretary of 
#Commerce on behalf of the United States.  All rights reserved.
_database_code_ICSD                156861
_audit_creation_date               2008/02/01
_chemical_name_systematic          'Sodium Magnesium Trifluoride'
_chemical_formula_structural       'Na Mg F3'
_chemical_formula_sum              'F3 Mg1 Na1'
_chemical_name_mineral             Neighborite
_publ_section_title
;
Local versus average structure: a study of neighborite (Na Mg F3) 
utilizing the pair distribution function method for structure 
determination
;
loop_
_citation_id
_citation_journal_abbrev
_citation_year
_citation_journal_volume
_citation_page_first
_citation_page_last
_citation_journal_id_ASTM
primary 'Journal of Applied Crystallography' 2007 40 441 448 JACGAR
_publ_author_name
;
Martin, C.D.;Chupas, P.J.;Chapman, K.W.;Parise, J.B.
;
_cell_length_a                     5.4505(25)
_cell_length_b                     5.5205(25)
_cell_length_c                     7.7980(32)
_cell_angle_alpha                  90.
_cell_angle_beta                   90.
_cell_angle_gamma                  90.
_cell_volume                       234.64
_cell_formula_units_Z              4
_symmetry_space_group_name_H-M     'P b n m'
_symmetry_Int_Tables_number        62
_refine_ls_R_factor_all            .155
loop_
_symmetry_equiv_pos_site_id
_symmetry_equiv_pos_as_xyz
  1	'-x+.5, y+.5, z'
  2	'x, y, -z+.5'
  3	'x+.5, -y+.5, z+.5'
  4	'-x, -y, -z'
  5	'x+.5, -y+.5, -z'
  6	'-x, -y, z+.5'
  7	'-x+.5, y+.5, -z+.5'
  8	'x, y, z'
loop_
_atom_type_symbol
_atom_type_oxidation_number
F1-	-1
Mg2+	2
Na1+	1
loop_
_atom_site_label
_atom_site_type_symbol
_atom_site_symmetry_multiplicity
_atom_site_Wyckoff_symbol
_atom_site_fract_x
_atom_site_fract_y
_atom_site_fract_z
_atom_site_occupancy
_atom_site_attached_hydrogens
_atom_site_U_iso_or_equiv
Na1 Na1+ 4 c 0.9863(14) 0.02670(74) 0.250 1. 0 0.04595(32) 
Mg1 Mg2+ 4 b 0.5 0 0 1. 0 0.016630(74) 
F1 F1- 4 c 0.0777(11) 0.4459(12) 0.250 1. 0 0.06140(96) 
F2 F1- 8 d 0.71565(92) 0.28550(53) 0.04145(32) 1. 0 0.03083(19) 

#End of data_156861-ICSD


