data_300239-ICSD
#?2014 by Fachinformationszentrum Karlsruhe, and the U.S. Secretary of 
#Commerce on behalf of the United States.  All rights reserved.
_database_code_ICSD                300239
_audit_creation_date               1992/08/20
_audit_update_record               2007/08/01
_chemical_name_systematic          'Disodium Catena-triselenostannate'
_chemical_formula_structural       'Na2 (Sn Se3)'
_chemical_formula_sum              'Na2 Se3 Sn1'
_publ_section_title
;
Crystal structure of disodium catena-triselenostannate
;
loop_
_citation_id
_citation_journal_abbrev
_citation_year
_citation_journal_volume
_citation_page_first
_citation_page_last
_citation_journal_id_ASTM
primary 'Zeitschrift fuer Kristallographie (1979-2010)' 1993 203 291 292 ZEKRDZ
_publ_author_name                  'Eisenmann, B.;Hansa, J.'
_cell_length_a                     13.976(5)
_cell_length_b                     23.725(5)
_cell_length_c                     12.510(5)
_cell_angle_alpha                  90.
_cell_angle_beta                   90.
_cell_angle_gamma                  90.
_cell_volume                       4148.07
_cell_formula_units_Z              24
_symmetry_space_group_name_H-M     'P n m a'
_symmetry_Int_Tables_number        62
_refine_ls_R_factor_all            .098
loop_
_symmetry_equiv_pos_site_id
_symmetry_equiv_pos_as_xyz
  1	'x+.5, y, -z+.5'
  2	'x, -y+.5, z'
  3	'-x+.5, y+.5, z+.5'
  4	'-x, -y, -z'
  5	'-x+.5, -y, z+.5'
  6	'-x, y+.5, -z'
  7	'x+.5, -y+.5, -z+.5'
  8	'x, y, z'
loop_
_atom_type_symbol
_atom_type_oxidation_number
Na1+	1
Se2-	-2
Sn4+	4
loop_
_atom_site_label
_atom_site_type_symbol
_atom_site_symmetry_multiplicity
_atom_site_Wyckoff_symbol
_atom_site_fract_x
_atom_site_fract_y
_atom_site_fract_z
_atom_site_occupancy
_atom_site_attached_hydrogens
_atom_site_U_iso_or_equiv
Se1 Se2- 8 d 0.7135(3) 0.9064(2) 0.0618(3) 1. 0 0 
Se2 Se2- 8 d 0.5573(4) 0.4141(2) 0.0880(3) 1. 0 0 
Se3 Se2- 8 d 0.4727(3) 0.4131(2) 0.4280(3) 1. 0 0 
Se4 Se2- 8 d 0.7009(3) 0.3320(2) 0.3275(4) 1. 0 0 
Se5 Se2- 8 d 0.5515(3) 0.4288(2) 0.7712(3) 1. 0 0 
Se6 Se2- 8 d 0.2979(3) 0.4997(2) 0.6696(4) 1. 0 0 
Se7 Se2- 8 d 0.3433(3) 0.3335(2) 0.6411(4) 1. 0 0 
Se8 Se2- 4 c 0.4431(5) 0.25 0.2469(5) 1. 0 0 
Se9 Se2- 4 c 0.6932(4) 0.25 0.0451(5) 1. 0 0 
Se10 Se2- 4 c 0.4423(5) 0.25 0.9103(5) 1. 0 0 
Se11 Se2- 4 c 0.1442(4) 0.25 0.8031(5) 1. 0 0 
Sn1 Sn4+ 8 d 0.6235(2) 0.5838(1) 0.2310(2) 1. 0 0 
Sn2 Sn4+ 8 d 0.5915(2) 0.0829(1) 0.2812(2) 1. 0 0 
Sn3 Sn4+ 4 c 0.6184(3) 0.25 0.2254(3) 1. 0 0 
Sn4 Sn4+ 4 c 0.3183(3) 0.25 0.7727(3) 1. 0 0 
Na1 Na1+ 8 d 0.3930(12) 0.4926(7) 0.0642(15) 1. 0 0.029(4) 
Na2 Na1+ 8 d 0.6122(12) 0.3279(7) 0.8835(14) 1. 0 0.028(4) 
Na3 Na1+ 8 d 0.4023(14) 0.1696(8) 0.0733(15) 1. 0 0.036(5) 
Na4 Na1+ 8 d 0.0896(18) 0.1550(11) 0.9288(21) 1. 0 0.062(7) 
Na5 Na1+ 8 d 0.1265(16) 0.4844(9) 0.9218(18) 1. 0 0.047(5) 
Na6 Na1+ 8 d 0.3280(18) 0.1668(11) 0.3823(21) 1. 0 0.065(7) 

loop_
_atom_site_aniso_label
_atom_site_aniso_type_symbol
_atom_site_aniso_U_11
_atom_site_aniso_U_22
_atom_site_aniso_U_33
_atom_site_aniso_U_12
_atom_site_aniso_U_13
_atom_site_aniso_U_23
Se1 Se2- 0.018(2) 0.030(2) 0.020(2) 0.001(2) 0.004(2) -0.0002(20)
Se2 Se2- 0.044(3) 0.025(2) 0.018(2) -0.004(2) -0.001(2) 0.002(2)
Se3 Se2- 0.030(2) 0.023(2) 0.023(2) 0.008(2) 0.005(2) 0.002(2)
Se4 Se2- 0.026(2) 0.016(2) 0.031(2) -0.006(2) -0.013(2) 0.002(2)
Se5 Se2- 0.022(2) 0.017(2) 0.021(2) 0.004(2) -0.006(2) -0.002(2)
Se6 Se2- 0.021(2) 0.017(2) 0.047(3) 0.007(2) -0.011(2) -0.007(2)
Se7 Se2- 0.035(3) 0.018(2) 0.021(2) 0.003(2) -0.0004(20) -0.0011(20)
Se8 Se2- 0.024(3) 0.023(3) 0.017(3) 0 -0.001(3) 0
Se9 Se2- 0.020(3) 0.023(3) 0.015(3) 0 -0.008(3) 0
Se10 Se2- 0.021(3) 0.021(3) 0.028(3) 0 -0.004(3) 0
Se11 Se2- 0.014(3) 0.018(3) 0.025(3) 0 0.001(3) 0
Sn1 Sn4+ 0.021(1) 0.013(1) 0.017(1) 0.004(1) -0.003(1) -0.002(1)
Sn2 Sn4+ 0.024(1) 0.014(1) 0.019(1) 0.0001(10) 0.003(1) -0.002(1)
Sn3 Sn4+ 0.015(2) 0.016(2) 0.014(2) 0 -0.003(2) 0
Sn4 Sn4+ 0.019(2) 0.018(2) 0.015(2) 0 -0.002(2) 0
#End of data_300239-ICSD


