data_27229-ICSD
#?2014 by Fachinformationszentrum Karlsruhe, and the U.S. Secretary of 
#Commerce on behalf of the United States.  All rights reserved.
_database_code_ICSD                27229
_audit_creation_date               1982/12/31
_chemical_name_systematic          'Dimagnesium Phosphorus(V) Nitride'
_chemical_formula_structural       'Mg2 P N3'
_chemical_formula_sum              'Mg2 N3 P1'
_publ_section_title
;
Mise en evidence de tetraedres P N4 dans le nitrure Mg2 P N3 de type 
Wurtzite
;
loop_
_citation_id
_citation_journal_abbrev
_citation_year
_citation_journal_volume
_citation_page_first
_citation_page_last
_citation_journal_id_ASTM
primary 'Materials Research Bulletin' 1982 17 399 403 MRBUAC
_publ_author_name                  'Marchand, R.;Laurent, Y.'
_cell_length_a                     9.759(5)
_cell_length_b                     5.635(3)
_cell_length_c                     4.743(3)
_cell_angle_alpha                  90.
_cell_angle_beta                   90.
_cell_angle_gamma                  90.
_cell_volume                       260.83
_cell_formula_units_Z              4
_symmetry_space_group_name_H-M     'C m c 21'
_symmetry_Int_Tables_number        36
_refine_ls_R_factor_all            .09
loop_
_symmetry_equiv_pos_site_id
_symmetry_equiv_pos_as_xyz
  1	'x, -y, z+.5'
  2	'-x, -y, z+.5'
  3	'-x, y, z'
  4	'x, y, z'
  5	'x+.5, -y+.5, z+.5'
  6	'-x+.5, -y+.5, z+.5'
  7	'-x+.5, y+.5, z'
  8	'x+.5, y+.5, z'
loop_
_atom_type_symbol
_atom_type_oxidation_number
Mg2+	2
N3-	-3
P5+	5
loop_
_atom_site_label
_atom_site_type_symbol
_atom_site_symmetry_multiplicity
_atom_site_Wyckoff_symbol
_atom_site_fract_x
_atom_site_fract_y
_atom_site_fract_z
_atom_site_occupancy
_atom_site_attached_hydrogens
_atom_site_B_iso_or_equiv
Mg1 Mg2+ 8 b 0.167(3) 0.819(4) -.062(5) 1. 0 0.5 
P1 P5+ 4 a 0 0.366(4) 0 1. 0 0.5 
N1 N3- 8 b 0.150(6) 0.753(11) 0.406(11) 1. 0 0.8 
N2 N3- 4 a 0 0.324(13) 0.384(14) 1. 0 0.8 

#End of data_27229-ICSD


