data_419589-ICSD
#?2014 by Fachinformationszentrum Karlsruhe, and the U.S. Secretary of 
#Commerce on behalf of the United States.  All rights reserved.
_database_code_ICSD                419589
_audit_creation_date               2009/02/01
_chemical_name_systematic
;
Dodecapotassium Bis(indium Tetraselenide) Selenide
;
_chemical_formula_structural       'K12 (In Se4)2 Se'
_chemical_formula_sum              'In2 K12 Se9'
_publ_section_title
;
Synthesis and characterization of the first salts of the ortho-
selenidoindate anion [In Se4]5-
;
loop_
_citation_id
_citation_journal_abbrev
_citation_year
_citation_journal_volume
_citation_journal_issue
_citation_page_first
_citation_page_last
_citation_journal_id_ASTM
primary 'Zeitschrift fuer Anorganische und Allgemeine Chemie (1950) (DE)'
 2008 634 12-13 2303 2308 ZAACAB
_publ_author_name                  'Heine, J.;Dehnen, S.'
_cell_length_a                     14.511
_cell_length_b                     16.945
_cell_length_c                     12.668
_cell_angle_alpha                  90.00
_cell_angle_beta                   103.03
_cell_angle_gamma                  90.00
_cell_volume                       3034.72
_cell_formula_units_Z              4
_symmetry_space_group_name_H-M     'P 1 21/a 1'
_symmetry_Int_Tables_number        14
_refine_ls_R_factor_all            .0813
loop_
_symmetry_equiv_pos_site_id
_symmetry_equiv_pos_as_xyz
  1	'x+.5, -y+.5, z'
  2	'-x, -y, -z'
  3	'-x+.5, y+.5, -z'
  4	'x, y, z'
loop_
_atom_type_symbol
_atom_type_oxidation_number
In3+	3
K1+	1
Se2-	-2
loop_
_atom_site_label
_atom_site_type_symbol
_atom_site_symmetry_multiplicity
_atom_site_Wyckoff_symbol
_atom_site_fract_x
_atom_site_fract_y
_atom_site_fract_z
_atom_site_occupancy
_atom_site_attached_hydrogens
_atom_site_U_iso_or_equiv
In1 In3+ 4 e 0.79086(13) 0.91696(11) 0.82476(10) 1 0 0.0409(4) 
In2 In3+ 4 e 0.97311(13) 0.79796(11) 0.37712(10) 1 0 0.0408(4) 
Se1 Se2- 4 e 0.71514(19) 0.92857(15) 0.61936(14) 1 0 0.0423(6) 
Se2 Se2- 4 e 0.61380(19) 0.65804(16) 0.53174(14) 1 0 0.0424(6) 
Se3 Se2- 4 e 0.87848(19) 0.68852(15) 0.44409(15) 1 0 0.0436(6) 
Se4 Se2- 4 e 0.6372(2) 0.41579(17) 0.69232(15) 1 0 0.0492(7) 
Se5 Se2- 4 e 0.9231(2) 0.57868(17) 0.81095(14) 1 0 0.0454(6) 
Se6 Se2- 4 e 0.7240(2) 0.79630(16) 0.90603(14) 1 0 0.0465(7) 
Se7 Se2- 4 e 0.7724(2) 1.04947(16) 0.91578(15) 1 0 0.0488(7) 
Se8 Se2- 4 e 0.9629(2) 1.25489(17) 0.78633(15) 1 0 0.0483(7) 
Se9 Se2- 4 e 0.96729(19) 0.88833(17) 0.83055(15) 1 0 0.0488(7) 
K1 K1+ 4 e 0.8151(5) 0.7454(4) 0.6819(3) 1 0 0.0487(15) 
K2 K1+ 4 e 0.6908(4) 0.6022(4) 0.8283(4) 1 0 0.0544(16) 
K3 K1+ 4 e 0.9458(4) 0.9504(4) 0.5874(3) 1 0 0.0470(14) 
K4 K1+ 4 e 0.8188(5) 1.1041(4) 0.6881(3) 1 0 0.0543(16) 
K5 K1+ 4 e 0.9642(4) 0.9273(4) 1.0916(3) 1 0 0.0526(15) 
K6 K1+ 4 e 0.7976(4) 0.3168(4) 0.5881(3) 1 0 0.0489(15) 
K7 K1+ 4 e 1.0520(4) 0.6902(4) 0.6756(3) 1 0 0.0480(14) 
K8 K1+ 4 e 0.7944(5) 0.5375(4) 0.5854(3) 1 0 0.068(2) 
K9 K1+ 4 e 0.7815(5) 0.7432(4) 0.1536(3) 1 0 0.0625(19) 
K10 K1+ 4 e 1.0619(5) 0.4476(4) 0.7226(5) 1 0 0.0677(18) 
K11 K1+ 4 e 0.8742(6) 0.4438(4) 0.9756(4) 1 0 0.073(2) 
K12 K1+ 4 e 0.9703(7) 0.7299(4) 0.9578(4) 1 0 0.075(2) 

loop_
_atom_site_aniso_label
_atom_site_aniso_type_symbol
_atom_site_aniso_U_11
_atom_site_aniso_U_22
_atom_site_aniso_U_33
_atom_site_aniso_U_12
_atom_site_aniso_U_13
_atom_site_aniso_U_23
In1 In3+ 0.0481(12) 0.0377(10) 0.0383(6) -0.0034(10) 0.0128(6) -0.0010(6)
In2 In3+ 0.0453(11) 0.0405(10) 0.0379(7) -0.0009(10) 0.0120(6) 0.0006(6)
Se1 Se2- 0.0492(16) 0.0400(14) 0.0386(9) 0.0007(13) 0.0115(9) 0.0026(9)
Se2 Se2- 0.0429(16) 0.0463(15) 0.0393(9) 0.0046(13) 0.0123(9) 0.0029(9)
Se3 Se2- 0.0487(17) 0.0381(14) 0.0459(10) -0.0045(14) 0.0149(10) 0.0005(9)
Se4 Se2- 0.0601(19) 0.0456(15) 0.0437(10) -0.0085(15) 0.0153(10) 
-0.0063(10)
Se5 Se2- 0.0519(16) 0.0439(14) 0.0426(10) -0.0022(15) 0.0154(10) -0.0002(9)
Se6 Se2- 0.0576(18) 0.0434(15) 0.0406(10) 0.0014(14) 0.0152(10) 0.0007(9)
Se7 Se2- 0.0648(19) 0.0401(15) 0.0434(10) -0.0036(15) 0.0160(10) -0.0046(9)
Se8 Se2- 0.0536(18) 0.0573(18) 0.0351(9) -0.0012(15) 0.0122(9) -0.0030(9)
Se9 Se2- 0.0512(18) 0.0530(16) 0.0448(10) -0.0023(15) 0.0165(10) 
-0.0021(10)
K1 K1+ 0.061(4) 0.048(3) 0.039(2) 0.002(3) 0.016(2) -0.002(2)
K2 K1+ 0.059(4) 0.056(4) 0.054(2) 0.004(3) 0.025(3) 0.006(2)
K3 K1+ 0.041(3) 0.060(4) 0.042(2) -0.008(3) 0.011(2) 0.003(2)
K4 K1+ 0.074(5) 0.048(4) 0.046(2) -0.002(4) 0.024(2) -0.001(2)
K5 K1+ 0.062(4) 0.053(4) 0.043(2) -0.001(3) 0.013(2) 0.003(2)
K6 K1+ 0.053(4) 0.057(4) 0.036(2) 0.005(3) 0.010(2) 0.005(2)
K7 K1+ 0.043(3) 0.052(4) 0.049(2) -0.010(3) 0.011(2) 0.004(2)
K8 K1+ 0.090(6) 0.063(4) 0.041(2) 0.016(4) -0.005(3) -0.010(2)
K9 K1+ 0.087(5) 0.058(4) 0.038(2) -0.004(4) 0.006(2) 0.008(2)
K10 K1+ 0.054(5) 0.045(4) 0.107(4) 0.007(4) 0.024(3) -0.015(3)
K11 K1+ 0.094(6) 0.059(4) 0.073(3) 0.001(4) 0.036(3) 0.012(3)
K12 K1+ 0.134(7) 0.042(4) 0.041(2) 0.018(4) 0.003(3) -0.006(2)
#End of data_419589-ICSD


