data_40486-ICSD
#?2014 by Fachinformationszentrum Karlsruhe, and the U.S. Secretary of 
#Commerce on behalf of the United States.  All rights reserved.
_database_code_ICSD                40486
_audit_creation_date               1999/11/30
_audit_update_record               2010/08/01
_chemical_name_systematic          'Lithium Manganese Oxide (1/1/2)'
_chemical_formula_structural       'Li Mn O2'
_chemical_formula_sum              'Li1 Mn1 O2'
_publ_section_title
;
Phases Lix Mn O2 lambda rattachees au type spinelle
;
loop_
_citation_id
_citation_journal_abbrev
_citation_year
_citation_journal_volume
_citation_page_first
_citation_page_last
_citation_journal_id_ASTM
primary 'Materials Research Bulletin' 1983 18 1375 1381 MRBUAC
_publ_author_name
;
Mosbah, A.;Verbaere, A.;Tournoux, M.
;
_cell_length_a                     5.6504(7)
_cell_length_b                     5.6504(7)
_cell_length_c                     9.242(2)
_cell_angle_alpha                  90.
_cell_angle_beta                   90.
_cell_angle_gamma                  90.
_cell_volume                       295.07
_cell_formula_units_Z              8
_symmetry_space_group_name_H-M     'I 41/a m d Z'
_symmetry_Int_Tables_number        141
_refine_ls_R_factor_all            .033
loop_
_symmetry_equiv_pos_site_id
_symmetry_equiv_pos_as_xyz
  1	'y+.25, x+.75, -z+.25'
  2	'y+.25, -x+.75, -z+.25'
  3	'x, y+.5, -z'
  4	'x, -y, -z'
  5	'-y+.75, x+.75, -z+.25'
  6	'-y+.75, -x+.75, -z+.25'
  7	'-x, y+.5, -z'
  8	'-x, -y, -z'
  9	'-y+.75, -x+.25, z+.75'
 10	'-y+.75, x+.25, z+.75'
 11	'-x, -y+.5, z'
 12	'-x, y, z'
 13	'y+.25, -x+.25, z+.75'
 14	'y+.25, x+.25, z+.75'
 15	'x, -y+.5, z'
 16	'x, y, z'
 17	'y+.75, x+.25, -z+.75'
 18	'y+.75, -x+.25, -z+.75'
 19	'x+.5, y, -z+.5'
 20	'x+.5, -y+.5, -z+.5'
 21	'-y+.25, x+.25, -z+.75'
 22	'-y+.25, -x+.25, -z+.75'
 23	'-x+.5, y, -z+.5'
 24	'-x+.5, -y+.5, -z+.5'
 25	'-y+.25, -x+.75, z+.25'
 26	'-y+.25, x+.75, z+.25'
 27	'-x+.5, -y, z+.5'
 28	'-x+.5, y+.5, z+.5'
 29	'y+.75, -x+.75, z+.25'
 30	'y+.75, x+.75, z+.25'
 31	'x+.5, -y, z+.5'
 32	'x+.5, y+.5, z+.5'
loop_
_atom_type_symbol
_atom_type_oxidation_number
Li1+	1
Mn3+	3
O2-	-2
loop_
_atom_site_label
_atom_site_type_symbol
_atom_site_symmetry_multiplicity
_atom_site_Wyckoff_symbol
_atom_site_fract_x
_atom_site_fract_y
_atom_site_fract_z
_atom_site_occupancy
_atom_site_attached_hydrogens
_atom_site_B_iso_or_equiv
Li1 Li1+ 8 d 0 0 0.5 1. 0 0.5 
Mn1 Mn3+ 8 c 0 0 0 1. 0 0.5(2) 
O1 O2- 16 h 0 0.517(3) 0.252(3) 1. 0 0.9(2) 

#End of data_40486-ICSD


