data_73055-ICSD
#?2014 by Fachinformationszentrum Karlsruhe, and the U.S. Secretary of 
#Commerce on behalf of the United States.  All rights reserved.
_database_code_ICSD                73055
_audit_creation_date               1994/06/30
_chemical_name_systematic
;
Potassium Triselenidoferrate(II) Tetraselenidoferrate(III)
;
_chemical_formula_structural       'K9 (Fe Se3) (Fe Se4)'
_chemical_formula_sum              'Fe2 K9 Se7'
_publ_section_title
;
New ternary iron chalcogenides A9Fe2X7(A=K,Rb,Cs;X=S,Se): synthesis, 
crystal structure and magnetic properties
;
loop_
_citation_id
_citation_journal_abbrev
_citation_year
_citation_journal_volume
_citation_page_first
_citation_page_last
_citation_journal_id_ASTM
primary 'Journal of Alloys and Compounds' 1993 197 83 86 JALCEU
_publ_author_name                  'Bronger, W.;Ruschewitz, U.'
_cell_length_a                     13.118(1)
_cell_length_b                     13.118(1)
_cell_length_c                     13.118(1)
_cell_angle_alpha                  90.
_cell_angle_beta                   90.
_cell_angle_gamma                  90.
_cell_volume                       2257.37
_cell_formula_units_Z              4
_symmetry_space_group_name_H-M     'P 21 3'
_symmetry_Int_Tables_number        198
_refine_ls_R_factor_all            .049
loop_
_symmetry_equiv_pos_site_id
_symmetry_equiv_pos_as_xyz
  1	'-z+.5, -x, y+.5'
  2	'-y+.5, -z, x+.5'
  3	'-x+.5, -y, z+.5'
  4	'-z, x+.5, -y+.5'
  5	'-y, z+.5, -x+.5'
  6	'-x, y+.5, -z+.5'
  7	'z+.5, -x+.5, -y'
  8	'y+.5, -z+.5, -x'
  9	'x+.5, -y+.5, -z'
 10	'z, x, y'
 11	'y, z, x'
 12	'x, y, z'
loop_
_atom_type_symbol
_atom_type_oxidation_number
Fe2+	2
Fe3+	3
K1+	1
Se2-	-2
loop_
_atom_site_label
_atom_site_type_symbol
_atom_site_symmetry_multiplicity
_atom_site_Wyckoff_symbol
_atom_site_fract_x
_atom_site_fract_y
_atom_site_fract_z
_atom_site_occupancy
_atom_site_attached_hydrogens
K1 K1+ 12 b 0.8315(6) 0.0011(5) 0.3004(6) 1. 0 
K2 K1+ 12 b 0.1784(6) 0.0422(5) 0.7952(7) 1. 0 
K3 K1+ 4 a 0.4180(5) 0.4180(5) 0.4180(5) 1. 0 
K4 K1+ 4 a 0.2413(6) 0.2413(6) 0.2413(6) 1. 0 
K5 K1+ 4 a 0.0591(6) 0.0591(6) 0.0591(6) 1. 0 
Fe1 Fe2+ 4 a 0.5703(3) 0.5703(3) 0.5703(3) 1. 0 
Fe2 Fe3+ 4 a 0.8990(3) 0.8990(3) 0.8990(3) 1. 0 
Se1 Se2- 12 b 0.9135(2) 0.0695(2) 0.8308(2) 1. 0 
Se2 Se2- 12 b 0.0751(3) 0.0625(3) 0.3086(2) 1. 0 
Se3 Se2- 4 a 0.7902(2) 0.7902(2) 0.7902(2) 1. 0 

loop_
_atom_site_aniso_label
_atom_site_aniso_type_symbol
_atom_site_aniso_U_11
_atom_site_aniso_U_22
_atom_site_aniso_U_33
_atom_site_aniso_U_12
_atom_site_aniso_U_13
_atom_site_aniso_U_23
K1 K1+ 0.013(3) 0.028(4) 0.016(3) -.0020(3) 0.004(3) -.001(3)
K2 K1+ 0.027(4) 0.014(3) 0.036(4) 0.007(3) 0.000(4) -.002(3)
K3 K1+ 0.034(3) 0.034(3) 0.034(3) -.013(4) -.013(4) -.013(4)
K4 K1+ 0.023(3) 0.023(3) 0.023(3) 0.002(3) 0.002(3) 0.002(3)
K5 K1+ 0.030(3) 0.030(3) 0.030(3) -.008(3) -.008(3) -.008(3)
Fe1 Fe2+ 0.014(1) 0.014(1) 0.014(1) 0.000(2) 0.000(2) 0.000(2)
Fe2 Fe3+ 0.010(1) 0.010(1) 0.010(1) -.001(2) -.001(2) -.001(2)
Se1 Se2- 0.024(1) 0.018(1) 0.012(1) -.002(1) -.005(1) 0.003(1)
Se2 Se2- 0.018(1) 0.018(1) 0.022(1) -.006(1) 0.007(1) -.007(1)
Se3 Se2- 0.015(1) 0.015(1) 0.015(1) -.002(1) -.002(1) -.002(1)
#End of data_73055-ICSD


