data_168716-ICSD
#?2014 by Fachinformationszentrum Karlsruhe, and the U.S. Secretary of 
#Commerce on behalf of the United States.  All rights reserved.
_database_code_ICSD                168716
_audit_creation_date               2011/02/01
_chemical_name_systematic
;
Potassium Calcium Trihydride - Hypothetical
;
_chemical_formula_structural       'K Ca H3'
_chemical_formula_sum              'H3 Ca1 K1'
_publ_section_title
;
Structural investigation and thermodynamical properties of alkali 
calcium trihydrides
;
loop_
_citation_id
_citation_journal_abbrev
_citation_year
_citation_journal_volume
_citation_page_first
_citation_page_last
_citation_journal_id_ASTM
primary 'Journal of Chemical Physics' 2010 132 114504-1 114504-9 JCPSA6
_publ_author_name
;
Vajeeston, P.;Ravindran, P.;Fjellvag, H.
;
_cell_length_a                     6.3219
_cell_length_b                     8.9293
_cell_length_c                     6.3073
_cell_angle_alpha                  90.
_cell_angle_beta                   90.
_cell_angle_gamma                  90.
_cell_volume                       356.05
_cell_formula_units_Z              4
_symmetry_space_group_name_H-M     'P n m a'
_symmetry_Int_Tables_number        62
loop_
_symmetry_equiv_pos_site_id
_symmetry_equiv_pos_as_xyz
  1	'x+.5, y, -z+.5'
  2	'x, -y+.5, z'
  3	'-x+.5, y+.5, z+.5'
  4	'-x, -y, -z'
  5	'-x+.5, -y, z+.5'
  6	'-x, y+.5, -z'
  7	'x+.5, -y+.5, -z+.5'
  8	'x, y, z'
loop_
_atom_type_symbol
_atom_type_oxidation_number
Ca2+	2
H1-	-1
K1+	1
loop_
_atom_site_label
_atom_site_type_symbol
_atom_site_symmetry_multiplicity
_atom_site_Wyckoff_symbol
_atom_site_fract_x
_atom_site_fract_y
_atom_site_fract_z
_atom_site_occupancy
_atom_site_attached_hydrogens
K1 K1+ 4 c 0.0165 0.250 0.9966 1. 0 
Ca1 Ca2+ 4 b 0 0 0.5 1. 0 
H1 H1- 4 c 0.9860 0.250 0.4439 1. 0 
H2 H1- 8 d 0.2219 0.9705 0.2218 1. 0 

#End of data_168716-ICSD


