data_2307-ICSD
#?2014 by Fachinformationszentrum Karlsruhe, and the U.S. Secretary of 
#Commerce on behalf of the United States.  All rights reserved.
_database_code_ICSD                2307
_audit_creation_date               1980/01/01
_audit_update_record               2012/08/01
_chemical_name_systematic          'Sodium Tetrachloroaluminate'
_chemical_formula_structural       'Na Al Cl4'
_chemical_formula_sum              'Al1 Cl4 Na1'
_publ_section_title
;
X-ray, NMR, and NQR investigations of the crystal structure and 
charge distribution of sodium tetrachloroaluminate, Na Al Cl4
;
loop_
_citation_id
_citation_journal_abbrev
_citation_year
_citation_journal_volume
_citation_page_first
_citation_page_last
_citation_journal_id_ASTM
primary
;
Zeitschrift fuer Naturforschung, Teil A. Physikalische Chemie, 
Kosmophysik (2,1947-32,1977)
;
 1976 31 1354 1369 ZENAAU
_publ_author_name                  'Scheinert, W.;Weiss, A.'
_cell_length_a                     10.331(2)
_cell_length_b                     9.905(2)
_cell_length_c                     6.189(1)
_cell_angle_alpha                  90.
_cell_angle_beta                   90.
_cell_angle_gamma                  90.
_cell_volume                       633.31
_cell_formula_units_Z              4
_symmetry_space_group_name_H-M     'P 21 21 21'
_symmetry_Int_Tables_number        19
_refine_ls_R_factor_all            .079
loop_
_symmetry_equiv_pos_site_id
_symmetry_equiv_pos_as_xyz
  1	'-x, y+.5, -z+.5'
  2	'x+.5, -y+.5, -z'
  3	'-x+.5, -y, z+.5'
  4	'x, y, z'
loop_
_atom_type_symbol
_atom_type_oxidation_number
Al3+	3
Cl1-	-1
Na1+	1
loop_
_atom_site_label
_atom_site_type_symbol
_atom_site_symmetry_multiplicity
_atom_site_Wyckoff_symbol
_atom_site_fract_x
_atom_site_fract_y
_atom_site_fract_z
_atom_site_occupancy
_atom_site_attached_hydrogens
Na1 Na1+ 4 a 0.1251(17) 0.2116(11) 0.6885(20) 1. 0 
Al1 Al3+ 4 a 0.0380(7) 0.4857(7) 0.2068(9) 1. 0 
Cl1 Cl1- 4 a 0.0320(7) 0.4919(6) 0.5522(8) 1. 0 
Cl2 Cl1- 4 a 0.1481(7) 0.3153(4) 0.1096(9) 1. 0 
Cl3 Cl1- 4 a 0.3469(6) 0.0228(5) 0.9253(8) 1. 0 
Cl4 Cl1- 4 a 0.3773(7) 0.3350(4) 0.5732(9) 1. 0 

#End of data_2307-ICSD


