data_20752-ICSD
#?2014 by Fachinformationszentrum Karlsruhe, and the U.S. Secretary of 
#Commerce on behalf of the United States.  All rights reserved.
_database_code_ICSD                20752
_audit_creation_date               1980/01/01
_audit_update_record               2007/08/01
_chemical_name_systematic
;
Potassium Tris(thiocyanato)mercurate
;
_chemical_formula_structural       'K (Hg (S C N)3)'
_chemical_formula_sum              'C3 Hg1 K1 N3 S3'
_publ_section_title
;
The crystal structure of rhodanides. 4. The X-ray of the crystal 
structure of Hg (S C N)2 A S C N; A-K, N H4
;
loop_
_citation_id
_citation_journal_abbrev
_citation_year
_citation_journal_volume
_citation_page_first
_citation_page_last
_citation_journal_id_ASTM
primary 'Zhurnal Fizicheskoi Khimii' 1952 26 469 478 ZFKHA9
_publ_author_name                  'Zhdanov, G.S.;Sanadze, V.V.'
_cell_length_a                     11.081
_cell_length_b                     4.07
_cell_length_c                     10.915
_cell_angle_alpha                  90.
_cell_angle_beta                   114.916
_cell_angle_gamma                  90.
_cell_volume                       446.45
_cell_formula_units_Z              2
_symmetry_space_group_name_H-M     'P 1 21/m 1'
_symmetry_Int_Tables_number        11
loop_
_symmetry_equiv_pos_site_id
_symmetry_equiv_pos_as_xyz
  1	'x, -y+.5, z'
  2	'-x, -y, -z'
  3	'-x, y+.5, -z'
  4	'x, y, z'
loop_
_atom_type_symbol
_atom_type_oxidation_number
C4+	4
Hg2+	2
K1+	1
N3-	-3
S2-	-2
loop_
_atom_site_label
_atom_site_type_symbol
_atom_site_symmetry_multiplicity
_atom_site_Wyckoff_symbol
_atom_site_fract_x
_atom_site_fract_y
_atom_site_fract_z
_atom_site_occupancy
_atom_site_attached_hydrogens
Hg1 Hg2+ 2 e 0.146 0.25 0.727 1. 0 
K1 K1+ 2 e 0.6 0.75 0.722 1. 0 
S1 S2- 2 e 0.12 0.25 0.512 1. 0 
S2 S2- 2 e 0.333 0.75 0.813 1. 0 
S3 S2- 2 e 0.063 0.25 0.901 1. 0 
N1 N3- 2 e 0.398 0.25 0.567 1. 0 
N2 N3- 2 e 0.61 0.25 0.914 1. 0 
N3 N3- 2 e 0.795 0.25 0.731 1. 0 
C1 C4+ 2 e 0.282 0.25 0.549 1. 0 
C2 C4+ 2 e 0.354 0.75 0.972 1. 0 
C3 C4+ 2 e 0.911 0.25 0.791 1. 0 

#End of data_20752-ICSD


