data_80985-ICSD
#?2014 by Fachinformationszentrum Karlsruhe, and the U.S. Secretary of 
#Commerce on behalf of the United States.  All rights reserved.
_database_code_ICSD                80985
_audit_creation_date               1997/05/13
_audit_update_record               2012/08/01
_chemical_name_systematic          'Sodium Carbonate - Beta'
_chemical_formula_structural       'Na2 (C O3)'
_chemical_formula_sum              'C1 Na2 O3'
_publ_section_title
;
Neutron powder diffraction study of the ferroelastic phase transition 
and lattice melting in sodium carbonate, Na2 C O3
;
loop_
_citation_id
_citation_journal_abbrev
_citation_year
_citation_journal_volume
_citation_page_first
_citation_page_last
_citation_journal_id_ASTM
primary 'Journal of Physics: Condensed Matter' 1995 7 4395 4417 JCOMEL
2 'Phase Transition' 1992 38 127 220 PHTRDP
_publ_author_name
;
Swainson, I.P.;Dove, M.T.;Harris, M.J.
;
_cell_length_a                     8.97605
_cell_length_b                     5.25081
_cell_length_c                     6.21057
_cell_angle_alpha                  90.
_cell_angle_beta                   99.327
_cell_angle_gamma                  90.
_cell_volume                       288.84
_cell_formula_units_Z              4
_symmetry_space_group_name_H-M     'C 1 2/m 1'
_symmetry_Int_Tables_number        12
loop_
_symmetry_equiv_pos_site_id
_symmetry_equiv_pos_as_xyz
  1	'-x, y, -z'
  2	'-x, -y, -z'
  3	'x, -y, z'
  4	'x, y, z'
  5	'-x+.5, y+.5, -z'
  6	'-x+.5, -y+.5, -z'
  7	'x+.5, -y+.5, z'
  8	'x+.5, y+.5, z'
loop_
_atom_type_symbol
_atom_type_oxidation_number
C4+	4
Na1+	1
O2-	-2
loop_
_atom_site_label
_atom_site_type_symbol
_atom_site_symmetry_multiplicity
_atom_site_Wyckoff_symbol
_atom_site_fract_x
_atom_site_fract_y
_atom_site_fract_z
_atom_site_occupancy
_atom_site_attached_hydrogens
Na1 Na1+ 2 a 0 0 0 1. 0 
Na2 Na1+ 2 c 0 0 0.5 1. 0 
Na3 Na1+ 4 i 0.1739 0.5 0.7509 1. 0 
C1 C4+ 4 i 0.1626 0.5 0.2475 1. 0 
O1 O2- 8 j 0.1034 0.2976(1) 0.2828 1. 0 
O2 O2- 4 i 0.2924 0.5 0.1825 1. 0 

#End of data_80985-ICSD


