data_94895-ICSD
#?2014 by Fachinformationszentrum Karlsruhe, and the U.S. Secretary of 
#Commerce on behalf of the United States.  All rights reserved.
_database_code_ICSD                94895
_audit_creation_date               2003/10/01
_chemical_name_systematic          'Dilithium Zirconate'
_chemical_formula_structural       'Li2 (Zr O3)'
_chemical_formula_sum              'Li2 O3 Zr1'
_publ_section_title
;
Structural and anisotropic thermal expansion correlation of Li2 Zr O3 
at different temperatures
;
loop_
_citation_id
_citation_journal_abbrev
_citation_year
_citation_journal_volume
_citation_page_first
_citation_page_last
_citation_journal_id_ASTM
primary 'Journal of Applied Crystallography' 2002 35 634 636 JACGAR
_publ_author_name                  'Heiba, Z.K.;El Sayed, K.'
_cell_length_a                     5.4240(1)
_cell_length_b                     9.0263(2)
_cell_length_c                     5.4197(1)
_cell_angle_alpha                  90
_cell_angle_beta                   112.701(1)
_cell_angle_gamma                  90
_cell_volume                       244.79
_cell_formula_units_Z              4
_symmetry_space_group_name_H-M     'C 1 2/c 1'
_symmetry_Int_Tables_number        15
_refine_ls_R_factor_all            .053
loop_
_symmetry_equiv_pos_site_id
_symmetry_equiv_pos_as_xyz
  1	'x, -y, z+.5'
  2	'-x, -y, -z'
  3	'-x, y, -z+.5'
  4	'x, y, z'
  5	'x+.5, -y+.5, z+.5'
  6	'-x+.5, -y+.5, -z'
  7	'-x+.5, y+.5, -z+.5'
  8	'x+.5, y+.5, z'
loop_
_atom_type_symbol
_atom_type_oxidation_number
Li1+	1
O2-	-2
Zr4+	4
loop_
_atom_site_label
_atom_site_type_symbol
_atom_site_symmetry_multiplicity
_atom_site_Wyckoff_symbol
_atom_site_fract_x
_atom_site_fract_y
_atom_site_fract_z
_atom_site_occupancy
_atom_site_attached_hydrogens
Zr1 Zr4+ 4 e 0 0.0915(2) 0.250 1. 0 
O1 O2- 4 d 0.250 0.250 0.5 1. 0 
O2 O2- 8 f 0.2718(10) 0.5753(7) 0.4870(10) 1. 0 
Li1 Li1+ 4 e 0 0.4129(37) 0.250 1. 0 
Li2 Li1+ 4 e 0 0.7380(33) 0.250 1. 0 

loop_
_atom_site_aniso_label
_atom_site_aniso_type_symbol
_atom_site_aniso_U_11
_atom_site_aniso_U_22
_atom_site_aniso_U_33
_atom_site_aniso_U_12
_atom_site_aniso_U_13
_atom_site_aniso_U_23
Zr1 Zr4+ 0.00455(108) 0.00144(111) 0.00085(53) 0. 0. 0.
#End of data_94895-ICSD


