data_109001-ICSD
#?2014 by Fachinformationszentrum Karlsruhe, and the U.S. Secretary of 
#Commerce on behalf of the United States.  All rights reserved.
_database_code_ICSD                109001
_audit_creation_date               2010/08/01
_chemical_name_systematic          'Silver Yttrium Sulfide'
_chemical_formula_structural       'Ag Y S2'
_chemical_formula_sum              'Ag1 S2 Y1'
_publ_section_title
;
Une classe de nouveaux composes sulfures de terres rares et d'argent 
de type AgTS2
;
loop_
_citation_id
_citation_journal_abbrev
_citation_year
_citation_journal_volume
_citation_page_first
_citation_page_last
_citation_journal_id_ASTM
primary
;
Comptes Rendus Hebdomadaires des Seances de l`Academie des Sciences, 
Serie C, Sciences Chimiques (1966-)
;
 1966 262 1253 1256 CHDCAQ
_publ_author_name                  'Ballestracci, R.'
_cell_length_a                     7.66
_cell_length_b                     7.66
_cell_length_c                     12.02
_cell_angle_alpha                  90.
_cell_angle_beta                   90.5
_cell_angle_gamma                  90.
_cell_volume                       705.25
_cell_formula_units_Z              8
_symmetry_space_group_name_H-M     'P 1 21 1'
_symmetry_Int_Tables_number        4
_refine_ls_R_factor_all            .122
loop_
_symmetry_equiv_pos_site_id
_symmetry_equiv_pos_as_xyz
  1	'-x, y+.5, -z'
  2	'x, y, z'
loop_
_atom_type_symbol
_atom_type_oxidation_number
Ag1+	1
S2-	-2
Y3+	3
loop_
_atom_site_label
_atom_site_type_symbol
_atom_site_symmetry_multiplicity
_atom_site_Wyckoff_symbol
_atom_site_fract_x
_atom_site_fract_y
_atom_site_fract_z
_atom_site_occupancy
_atom_site_attached_hydrogens
_atom_site_B_iso_or_equiv
Ag1 Ag1+ 2 a 0.0040 0.2809 0.2790 1. 0 8.3(2) 
Ag2 Ag1+ 2 a 0.2479 0.0319 0.5013 1. 0 10.8(3) 
Ag3 Ag1+ 2 a 0.2520 0.5289 0.5170 1. 0 11.1(4) 
Ag4 Ag1+ 2 a 0.5000 0.7799 0.2053 1. 0 11.8(3) 
Y1 Y3+ 2 a 0.0016 0.2845 0.7531 1. 0 0.72(2) 
Y2 Y3+ 2 a 0.2472 0.0319 0.5013 1. 0 1.00(2) 
Y3 Y3+ 2 a 0.2538 0.5320 0.0028 1. 0 0.80(2) 
Y4 Y3+ 2 a 0.5000 0.2799 0.2053 1. 0 0.77(2) 
S1 S2- 2 a 0.0099 0.7869 0.0181 1. 0 1.32(8) 
S2 S2- 2 a 0.0231 0.3029 0.5279 1. 0 2.1(1) 
S3 S2- 2 a 0.2251 0.0499 0.2747 1. 0 0.62(6) 
S4 S2- 2 a 0.2267 0.0069 0.7304 1. 0 0.80(6) 
S5 S2- 2 a 0.2705 0.5529 0.2325 1. 0 0.72(6) 
S6 S2- 2 a 0.4830 0.2609 0.0287 1. 0 0.74(6) 
S7 S2- 2 a 0.5244 0.2539 0.4813 1. 0 1.18(7) 
S8 S2- 2 a 0.7213 0.0000 0.2218 1. 0 0.54(5) 

#End of data_109001-ICSD


