data_200913-ICSD
#?2014 by Fachinformationszentrum Karlsruhe, and the U.S. Secretary of 
#Commerce on behalf of the United States.  All rights reserved.
_database_code_ICSD                200913
_audit_creation_date               1980/01/01
_audit_update_record               1985/05/30
_chemical_name_systematic          'Disodium Zirconium Molybdate'
_chemical_formula_structural       'Na2 Zr (Mo O4)3'
_chemical_formula_sum              'Mo3 Na2 O12 Zr1'
_publ_section_title
;
Synthesis and crystal structure of double molybdates of sodium and 
zirconium
;
loop_
_citation_id
_citation_journal_abbrev
_citation_year
_citation_journal_volume
_citation_page_first
_citation_page_last
_citation_journal_id_ASTM
primary Kristallografiya 1979 24 751 756 KRISAJ
2 'Soviet Physics, Crystallography (= Kristallografiya)'
 1979 24 429 432 SPHCA6
_publ_author_name
;
Klevtsova, R.F.;Gaponenko, L.A.;Glinskaya, L.A.;Zolotova, 
E.S.;Podberezskaya, N.V.;Klevtsov, P.V.
;
_cell_length_a                     16.37
_cell_length_b                     11.35
_cell_length_c                     5.02
_cell_angle_alpha                  90.
_cell_angle_beta                   103.5
_cell_angle_gamma                  90.
_cell_volume                       906.94
_cell_formula_units_Z              4
_symmetry_space_group_name_H-M     'C 1 2/c 1'
_symmetry_Int_Tables_number        15
_refine_ls_R_factor_all            .09
loop_
_symmetry_equiv_pos_site_id
_symmetry_equiv_pos_as_xyz
  1	'x, -y, z+.5'
  2	'-x, -y, -z'
  3	'-x, y, -z+.5'
  4	'x, y, z'
  5	'x+.5, -y+.5, z+.5'
  6	'-x+.5, -y+.5, -z'
  7	'-x+.5, y+.5, -z+.5'
  8	'x+.5, y+.5, z'
loop_
_atom_type_symbol
_atom_type_oxidation_number
Mo6+	6
Na1+	1
O2-	-2
Zr4+	4
loop_
_atom_site_label
_atom_site_type_symbol
_atom_site_symmetry_multiplicity
_atom_site_Wyckoff_symbol
_atom_site_fract_x
_atom_site_fract_y
_atom_site_fract_z
_atom_site_occupancy
_atom_site_attached_hydrogens
_atom_site_B_iso_or_equiv
Mo1 Mo6+ 4 e 0 0.146 0.25 1. 0 0.56 
Mo2 Mo6+ 8 f 0.1626 0.3953 0.3962 1. 0 0.55 
Zr1 Zr4+ 4 e 0 0.6241 0.25 1. 0 0.58 
Na1 Na1+ 8 f 0.153 0.882 0.399 1. 0 3.8 
O1 O2- 8 f 0.078 0.057 0.433 1. 0 1. 
O2 O2- 8 f 0.048 0.234 0.025 1. 0 1.2 
O3 O2- 8 f 0.23 0.472 0.656 1. 0 1.2 
O4 O2- 8 f 0.072 0.465 0.118 1. 0 0.7 
O5 O2- 8 f 0.219 0.297 0.255 1. 0 0.9 
O6 O2- 8 f 0.103 0.308 0.588 1. 0 1.1 

#End of data_200913-ICSD


