data_84234-ICSD
#?2014 by Fachinformationszentrum Karlsruhe, and the U.S. Secretary of 
#Commerce on behalf of the United States.  All rights reserved.
_database_code_ICSD                84234
_audit_creation_date               1999/01/19
_audit_update_record               2012/02/01
_chemical_name_systematic
;
Tripotassium Neodymium Bis(vanadate)
;
_chemical_formula_structural       'K3 Nd (V O4)2'
_chemical_formula_sum              'K3 Nd1 O8 V2'
_publ_section_title
;
Structures of neodymium potassium vanadate and erbium vanadate and a 
theoretical consideration of the lanthanide-oxygen bonds
;
loop_
_citation_id
_citation_journal_abbrev
_citation_year
_citation_journal_volume
_citation_journal_issue
_citation_page_first
_citation_page_last
_citation_journal_id_ASTM
primary 'Vestnik Moskovskogo Universiteta, Khimiya' 1990 31 3 266 270 VMUKA5
_publ_author_name
;
Efremov, V.A.;Mel'nikov, P.P.;Carrillo Heredero, J.D.
;
_cell_length_a                     7.555(2)
_cell_length_b                     5.926(1)
_cell_length_c                     9.161(2)
_cell_angle_alpha                  90.
_cell_angle_beta                   90.83(1)
_cell_angle_gamma                  90.
_cell_volume                       410.1
_cell_formula_units_Z              2
_symmetry_space_group_name_H-M     'P 1 21/m 1'
_symmetry_Int_Tables_number        11
_refine_ls_R_factor_all            .023
loop_
_symmetry_equiv_pos_site_id
_symmetry_equiv_pos_as_xyz
  1	'x, -y+.5, z'
  2	'-x, -y, -z'
  3	'-x, y+.5, -z'
  4	'x, y, z'
loop_
_atom_type_symbol
_atom_type_oxidation_number
K1+	1
Nd3+	3
O2-	-2
V5+	5
loop_
_atom_site_label
_atom_site_type_symbol
_atom_site_symmetry_multiplicity
_atom_site_Wyckoff_symbol
_atom_site_fract_x
_atom_site_fract_y
_atom_site_fract_z
_atom_site_occupancy
_atom_site_attached_hydrogens
_atom_site_B_iso_or_equiv
Nd1 Nd3+ 2 e 0.49229(8) 0.75 0.20868(6) 1. 0 0.861(1) 
V1 V5+ 2 e 0.3064(3) 0.25 0.0766(2) 1. 0 0.83(4) 
V2 V5+ 2 e 0.7398(3) 0.25 0.4123(2) 1. 0 0.79(4) 
K1 K1+ 2 e 0 0.25 0.6930(3) 1. 0 1.53(6) 
K2 K1+ 2 e 0.3102 0.25 0.4203(3) 1. 0 1.38(6) 
K3 K1+ 2 e 0.8637(4) 0.25 0.0872(3) 1. 0 1.83(6) 
O1 O2- 2 e 0.5260(9) 0.25 0.0439(9) 1. 0 2.9(2) 
O2 O2- 2 e 0.2094(9) 0.25 -.0802(8) 1. 0 1.52(2) 
O3 O2- 4 f 0.2507(8) 0.4875(9) 0.1651(5) 1. 0 1.7(1) 
O4 O2- 2 e 0.9600(9) 0.25 0.4060(8) 1. 0 2.0(2) 
O5 O2- 2 e 0.6709(9) 0.25 0.5773(8) 1. 0 1.6(2) 
O6 O2- 4 f 0.6614(7) 0.4895(9) 0.3313(5) 1. 0 1.8(1) 

#End of data_84234-ICSD


