data_34338-ICSD
#?2014 by Fachinformationszentrum Karlsruhe, and the U.S. Secretary of 
#Commerce on behalf of the United States.  All rights reserved.
_database_code_ICSD                34338
_audit_creation_date               1980/01/01
_audit_update_record               2008/02/01
_chemical_name_systematic          'Tricalcium Disilicate'
_chemical_formula_structural       'Ca3 (Si2 O7)'
_chemical_formula_sum              'Ca3 O7 Si2'
_chemical_name_mineral             Rankinite
_publ_section_title                'The structure of rankinite'
loop_
_citation_id
_citation_journal_abbrev
_citation_year
_citation_journal_volume
_citation_page_first
_citation_page_last
_citation_journal_id_ASTM
primary 'Mineralogical Journal (Japan)' 1975 8 38 47 MJTOAS
_publ_author_name
;
Kusachi, I.;Henmi, C.;Kawahara, A.;Henmi, K.
;
_cell_length_a                     10.60(2)
_cell_length_b                     8.92(2)
_cell_length_c                     7.89(2)
_cell_angle_alpha                  90.
_cell_angle_beta                   119.6(1)
_cell_angle_gamma                  90.
_cell_volume                       648.66
_cell_formula_units_Z              4
_symmetry_space_group_name_H-M     'P 1 21/a 1'
_symmetry_Int_Tables_number        14
_refine_ls_R_factor_all            .116
loop_
_symmetry_equiv_pos_site_id
_symmetry_equiv_pos_as_xyz
  1	'x+.5, -y+.5, z'
  2	'-x, -y, -z'
  3	'-x+.5, y+.5, -z'
  4	'x, y, z'
loop_
_atom_type_symbol
_atom_type_oxidation_number
Ca2+	2
O2-	-2
Si4+	4
loop_
_atom_site_label
_atom_site_type_symbol
_atom_site_symmetry_multiplicity
_atom_site_Wyckoff_symbol
_atom_site_fract_x
_atom_site_fract_y
_atom_site_fract_z
_atom_site_occupancy
_atom_site_attached_hydrogens
_atom_site_B_iso_or_equiv
Ca1 Ca2+ 4 e 0.0071(3) 0.0552(3) 0.2893(4) 1. 0 1.46 
Ca2 Ca2+ 4 e 0.1677(3) 0.5745(3) 0.2083(4) 1. 0 1.42 
Ca3 Ca2+ 4 e 0.3403(3) 0.9034(3) 0.2839(4) 1. 0 1.41 
Si1 Si4+ 4 e 0.2948(4) 0.2357(4) 0.4314(5) 1. 0 1.1 
Si2 Si4+ 4 e 0.0903(4) 0.2145(4) 0.9843(5) 1. 0 0.95 
O1 O2- 4 e 0.3579(10) 0.4038(10) 0.4229(13) 1. 0 0.89 
O2 O2- 4 e 0.1782(10) 0.2344(10) 0.5033(13) 1. 0 1.12 
O3 O2- 4 e 0.4105(10) 0.1016(10) 0.5523(13) 1. 0 0.78 
O4 O2- 4 e 0.2007(10) 0.1629(10) 0.2120(13) 1. 0 0.63 
O5 O2- 4 e 0.097(1) 0.3857(10) 0.9810(13) 1. 0 0.51 
O6 O2- 4 e 0.1451(10) 0.1487(10) 0.8437(13) 1. 0 0.55 
O7 O2- 4 e 0.9299(10) 0.1536(10) 0.9394(14) 1. 0 0.17 

#End of data_34338-ICSD


