data_170333-ICSD
#?2014 by Fachinformationszentrum Karlsruhe, and the U.S. Secretary of 
#Commerce on behalf of the United States.  All rights reserved.
_database_code_ICSD                170333
_audit_creation_date               2006/04/01
_audit_update_record               2012/02/01
_chemical_name_systematic
;
Potassium Diselenium Tetraselenophosphate(V)
;
_chemical_formula_structural       'K (Se2) (P Se4)'
_chemical_formula_sum              'K1 P1 Se6'
_publ_section_title
;
A P Se6 (A= K, Pb, and Cs): polymeric selenophosphates with 
reversible phase-change properties
;
loop_
_citation_id
_citation_journal_abbrev
_citation_year
_citation_journal_volume
_citation_journal_issue
_citation_page_first
_citation_page_last
_citation_journal_id_ASTM
primary 'Inorganic Chemistry' 2004 43 9 2762 2764 INOCAJ
_publ_author_name
;
Chung, I.;Do, J.;Canlas, C.G.;Weliky, D.P.;Kanatzidis, M.G.
;
_cell_length_a                     11.491(12)
_cell_length_b                     6.791(7)
_cell_length_c                     11.289(12)
_cell_angle_alpha                  90.
_cell_angle_beta                   90.
_cell_angle_gamma                  90.
_cell_volume                       880.94
_cell_formula_units_Z              4
_symmetry_space_group_name_H-M     'P c a 21'
_symmetry_Int_Tables_number        29
_refine_ls_R_factor_all            .0476
loop_
_symmetry_equiv_pos_site_id
_symmetry_equiv_pos_as_xyz
  1	'x+.5, -y, z'
  2	'-x+.5, y, z+.5'
  3	'-x, -y, z+.5'
  4	'x, y, z'
loop_
_atom_type_symbol
_atom_type_oxidation_number
K1+	1
P5+	5
Se2-	-2
Se1+	1
loop_
_atom_site_label
_atom_site_type_symbol
_atom_site_symmetry_multiplicity
_atom_site_Wyckoff_symbol
_atom_site_fract_x
_atom_site_fract_y
_atom_site_fract_z
_atom_site_occupancy
_atom_site_attached_hydrogens
_atom_site_U_iso_or_equiv
P1 P5+ 4 a 0.8312(2) 1.2296(4) 0.6585(2) 1 0 0.0197(6) 
K1 K1+ 4 a 0.8678(2) 0.8176(5) 0.3522(3) 1 0 0.0487(8) 
Se1 Se2- 4 a 0.86816(9) 0.92293(16) 0.68657(10) 1 0 0.0254(2) 
Se2 Se1+ 4 a 1.12664(7) 0.93317(15) 0.46243(9) 1 0 0.0219(2) 
Se3 Se2- 4 a 1.13332(9) 1.56231(15) 0.29642(10) 1 0 0.0280(3) 
Se4 Se2- 4 a 1.14003(8) 0.73152(15) 0.63084(10) 1 0 0.0236(2) 
Se5 Se1+ 4 a 0.60501(8) 0.74692(15) 0.54431(10) 1 0 0.0240(2) 
Se6 Se2- 4 a 0.91496(8) 1.32610(15) 0.48444(10) 1 0 0.0263(2) 

loop_
_atom_site_aniso_label
_atom_site_aniso_type_symbol
_atom_site_aniso_U_11
_atom_site_aniso_U_22
_atom_site_aniso_U_33
_atom_site_aniso_U_12
_atom_site_aniso_U_13
_atom_site_aniso_U_23
P1 P5+ 0.0230(12) 0.0188(13) 0.0173(15) 0.0001(10) 0.0006(9) 0.0018(10)
K1 K1+ 0.0357(14) 0.069(2) 0.0416(18) 0.0137(14) -0.0092(13) -0.0103(16)
Se1 Se2- 0.0300(5) 0.0196(5) 0.0267(6) 0.0043(4) 0.0063(5) 0.0044(4)
Se2 Se1+ 0.0233(5) 0.0248(5) 0.0176(5) 0.0010(4) -0.0008(4) 0.0002(4)
Se3 Se2- 0.0392(6) 0.0213(5) 0.0237(6) -0.0017(5) 0.0072(5) 0.0029(5)
Se4 Se2- 0.0236(5) 0.0231(6) 0.0243(6) -0.0027(4) -0.0001(4) 0.0042(5)
Se5 Se1+ 0.0280(5) 0.0222(5) 0.0219(6) 0.0028(4) 0.0027(4) 0.0007(4)
Se6 Se2- 0.0306(5) 0.0274(5) 0.0209(5) 0.0032(4) 0.0029(5) 0.0077(5)
#End of data_170333-ICSD


