data_202194-ICSD
#?2014 by Fachinformationszentrum Karlsruhe, and the U.S. Secretary of 
#Commerce on behalf of the United States.  All rights reserved.
_database_code_ICSD                202194
_audit_creation_date               1988/12/19
_chemical_name_systematic          'Zinc Iron(III) Fluoride Dihydrate'
_chemical_formula_structural       'Zn Fe F5 (H2 O)2'
_chemical_formula_sum              'H4 F5 Fe1 O2 Zn1'
_publ_section_title
;
Ordered magnetic frustration. VI. Crystal and magnetic structures of 
the inverse Weberites Zn Fe F5 (H2 O)2 and Mn Fe F5 (H2 O)2 at 1.5K 
from powder neutron diffraction
;
loop_
_citation_id
_citation_journal_abbrev
_citation_year
_citation_journal_volume
_citation_page_first
_citation_page_last
_citation_journal_id_ASTM
primary 'Journal of Solid State Chemistry' 1987 66 242 250 JSSCBI
_publ_author_name
;
Laligant, Y.;Pannetier, J.;Ferey, G.
;
_cell_length_a                     7.451(1)
_cell_length_b                     10.747(1)
_cell_length_c                     6.524(1)
_cell_angle_alpha                  90.
_cell_angle_beta                   90.
_cell_angle_gamma                  90.
_cell_volume                       522.42
_cell_formula_units_Z              4
_symmetry_space_group_name_H-M     'I m m 2'
_symmetry_Int_Tables_number        44
_refine_ls_R_factor_all            .0341
loop_
_symmetry_equiv_pos_site_id
_symmetry_equiv_pos_as_xyz
  1	'x, -y, z'
  2	'-x, y, z'
  3	'-x, -y, z'
  4	'x, y, z'
  5	'x+.5, -y+.5, z+.5'
  6	'-x+.5, y+.5, z+.5'
  7	'-x+.5, -y+.5, z+.5'
  8	'x+.5, y+.5, z+.5'
loop_
_atom_type_symbol
_atom_type_oxidation_number
F1-	-1
Fe3+	3
H1+	1
O2-	-2
Zn2+	2
loop_
_atom_site_label
_atom_site_type_symbol
_atom_site_symmetry_multiplicity
_atom_site_Wyckoff_symbol
_atom_site_fract_x
_atom_site_fract_y
_atom_site_fract_z
_atom_site_occupancy
_atom_site_attached_hydrogens
_atom_site_B_iso_or_equiv
Zn1 Zn2+ 4 d 0 0.25 0.75 1. 0 0.25 
Fe1 Fe3+ 4 c 0.25 0 0 1. 0 0.25 
F1 F1- 8 e 0.274(1) 0.872(1) 0.222(4) 1. 0 0.57 
F2 F1- 8 e 0.687(1) 0.624(1) 0.316(3) 1. 0 0.57 
F3 F1- 2 a 0 0 0.065(6) 1. 0 0.57 
F4 F1- 2 b 0 0.5 0.401(4) 1. 0 0.57 
O1 O2- 4 d 0.5 0.307(4) 0.968(6) 1. 0 0.57 
O2 O2- 4 d 0.5 0.183(4) 0.566(6) 1. 0 0.57 
H1 H1+ 8 e 0.120(5) 0.843(4) 0.389(6) 1. 0 0.67 
H2 H1+ 8 e 0.908(4) 0.669(5) 0.131(5) 1. 0 0.67 

#End of data_202194-ICSD


