data_40497-ICSD
#?2014 by Fachinformationszentrum Karlsruhe, and the U.S. Secretary of 
#Commerce on behalf of the United States.  All rights reserved.
_database_code_ICSD                40497
_audit_creation_date               1999/11/30
_audit_update_record               2012/02/01
_chemical_name_systematic
;
Sodium Lanthanum Manganese Tungsten Oxide
;
_chemical_formula_structural       '(Na La) (Mg W) O6'
_chemical_formula_sum              'La1 Mg1 Na1 O6 W1'
_publ_section_title
;
Cation ordering in (Na La) (Mg W) O6 with the perovskite structure
;
loop_
_citation_id
_citation_journal_abbrev
_citation_year
_citation_journal_volume
_citation_page_first
_citation_page_last
_citation_journal_id_ASTM
primary 'Bulletin of the Chemical Society of Japan' 1984 57 1859 1862 BCSJA8
_publ_author_name
;
Sekiya, T.;Yamamoto, T.;Yasuyoshi, T.
;
_cell_length_a                     5.5239(5)
_cell_length_b                     5.5253(4)
_cell_length_c                     7.8939(6)
_cell_angle_alpha                  90.
_cell_angle_beta                   90.16(1)
_cell_angle_gamma                  90.
_cell_volume                       240.93
_cell_formula_units_Z              2
_symmetry_space_group_name_H-M     'P 1 21/m 1'
_symmetry_Int_Tables_number        11
loop_
_symmetry_equiv_pos_site_id
_symmetry_equiv_pos_as_xyz
  1	'x, -y+.5, z'
  2	'-x, -y, -z'
  3	'-x, y+.5, -z'
  4	'x, y, z'
loop_
_atom_type_symbol
_atom_type_oxidation_number
La3+	3
Mg2+	2
Na1+	1
O2-	-2
W6+	6
loop_
_atom_site_label
_atom_site_type_symbol
_atom_site_symmetry_multiplicity
_atom_site_Wyckoff_symbol
_atom_site_fract_x
_atom_site_fract_y
_atom_site_fract_z
_atom_site_occupancy
_atom_site_attached_hydrogens
Mg1 Mg2+ 2 e 0.25 0.25 0.25 1. 0 
W1 W6+ 2 e 0.25 0.25 0.75 1. 0 
La1 La3+ 2 e 0.75 0.25 0 1. 0 
Na1 Na1+ 2 e 0.75 0.25 0.5 1. 0 
O1 O2- 4 f -.01 0.51 0.25 1. 0 
O3 O2- 4 f 0.51 -.01 0.25 1. 0 
O5 O2- 2 e 0.25 0.25 -.01 1. 0 
O6 O2- 2 e 0.25 0.25 0.51 1. 0 

#End of data_40497-ICSD


