data_63011-ICSD
#?2014 by Fachinformationszentrum Karlsruhe, and the U.S. Secretary of 
#Commerce on behalf of the United States.  All rights reserved.
_database_code_ICSD                63011
_audit_creation_date               1989/06/19
_audit_update_record               2004/10/01
_chemical_name_systematic          'Disodium Triselenidotellurate'
_chemical_formula_structural       'Na2 (Te Se3)'
_chemical_formula_sum              'Na2 Se3 Te1'
_publ_section_title
;
Selenidotellurate (IV): Darstellung und Kristallstrukturen von Na2 Te 
Se3 und K2 Te Se3.
;
loop_
_citation_id
_citation_journal_abbrev
_citation_year
_citation_journal_volume
_citation_page_first
_citation_page_last
_citation_journal_id_ASTM
primary 'Zeitschrift fuer Kristallographie (1979-2010)' 1988 183 193 200 ZEKRDZ
_publ_author_name                  'Zagler, R.;Eisenmann, B.'
_cell_length_a                     21.741(6)
_cell_length_b                     6.001(2)
_cell_length_c                     12.011(4)
_cell_angle_alpha                  90.
_cell_angle_beta                   121.1(1)
_cell_angle_gamma                  90.
_cell_volume                       1341.81
_cell_formula_units_Z              8
_symmetry_space_group_name_H-M     'C 1 2/c 1'
_symmetry_Int_Tables_number        15
_refine_ls_R_factor_all            .068
loop_
_symmetry_equiv_pos_site_id
_symmetry_equiv_pos_as_xyz
  1	'x, -y, z+.5'
  2	'-x, -y, -z'
  3	'-x, y, -z+.5'
  4	'x, y, z'
  5	'x+.5, -y+.5, z+.5'
  6	'-x+.5, -y+.5, -z'
  7	'-x+.5, y+.5, -z+.5'
  8	'x+.5, y+.5, z'
loop_
_atom_type_symbol
_atom_type_oxidation_number
Na1+	1
Se2-	-2
Te4+	4
loop_
_atom_site_label
_atom_site_type_symbol
_atom_site_symmetry_multiplicity
_atom_site_Wyckoff_symbol
_atom_site_fract_x
_atom_site_fract_y
_atom_site_fract_z
_atom_site_occupancy
_atom_site_attached_hydrogens
Na1 Na1+ 8 f 0.7518(4) 0.0118(14) 0.1239(7) 1. 0 
Na2 Na1+ 8 f 0.9278(5) 0.5355(15) 0.3092(8) 1. 0 
Te1 Te4+ 8 f 0.8931(1) 0.0510(2) 0.4924(1) 1. 0 
Se1 Se2- 8 f 0.9098(1) 0.4615(3) 0.5414(2) 1. 0 
Se2 Se2- 8 f 0.9139(1) 0.0327(3) 0.3065(2) 1. 0 
Se3 Se2- 8 f 0.7601(1) 0.0095(3) 0.3835(2) 1. 0 

loop_
_atom_site_aniso_label
_atom_site_aniso_type_symbol
_atom_site_aniso_U_11
_atom_site_aniso_U_22
_atom_site_aniso_U_33
_atom_site_aniso_U_12
_atom_site_aniso_U_13
_atom_site_aniso_U_23
Na1 Na1+ 0.0232(34) 0.0350(42) 0.0144(30) -.0056(31) 0.0063(27) -.0037(29)
Na2 Na1+ 0.0363(42) 0.0313(42) 0.0242(37) -.0057(36) 0.0148(33) -.0004(33)
Te1 Te4+ 0.0146(4) 0.0160(5) 0.0108(4) 0.0004(4) 0.0085(3) 0.0008(4)
Se1 Se2- 0.0169(7) 0.0191(8) 0.0159(7) -.0029(6) 0.0102(6) -.0037(6)
Se2 Se2- 0.0198(7) 0.0232(8) 0.0174(8) 0.0(6) 0.0139(6) -.0034(6)
Se3 Se2- 0.0152(7) 0.0199(8) 0.0179(7) -.0013(6) 0.0110(6) -.0007(6)
#End of data_63011-ICSD


