data_20770-ICSD
#?2014 by Fachinformationszentrum Karlsruhe, and the U.S. Secretary of 
#Commerce on behalf of the United States.  All rights reserved.
_database_code_ICSD                20770
_audit_creation_date               1984/11/20
_chemical_name_systematic
;
Potassium Holmium Cobalt Disilicate
;
_chemical_formula_structural       'K Ho Co Si2 O7'
_chemical_formula_sum              'Co1 Ho1 K1 O7 Si2'
_publ_section_title
;
The crystal structure of the new synthetic silicate K Ho Co Si2 O7
;
loop_
_citation_id
_citation_journal_abbrev
_citation_year
_citation_journal_volume
_citation_page_first
_citation_page_last
_citation_journal_id_ASTM
primary 'Doklady Akademii Nauk SSSR' 1980 253 1130 1132 DANKAS
_publ_author_name
;
Ragimov, K.G.;Chigarov, M.I.;Mamedov, Kh.S.
;
_cell_length_a                     8.491(2)
_cell_length_b                     10.755(4)
_cell_length_c                     8.488(3)
_cell_angle_alpha                  90.
_cell_angle_beta                   111.35(2)
_cell_angle_gamma                  90.
_cell_volume                       721.94
_cell_formula_units_Z              4
_symmetry_space_group_name_H-M     'P 1 2 1'
_symmetry_Int_Tables_number        3
_refine_ls_R_factor_all            .074
loop_
_symmetry_equiv_pos_site_id
_symmetry_equiv_pos_as_xyz
  1	'-x, y, -z'
  2	'x, y, z'
loop_
_atom_type_symbol
_atom_type_oxidation_number
Co2+	2
Ho3+	3
K1+	1
O2-	-2
Si4+	4
loop_
_atom_site_label
_atom_site_type_symbol
_atom_site_symmetry_multiplicity
_atom_site_Wyckoff_symbol
_atom_site_fract_x
_atom_site_fract_y
_atom_site_fract_z
_atom_site_occupancy
_atom_site_attached_hydrogens
_atom_site_B_iso_or_equiv
Ho1 Ho3+ 2 e 0.2816 0 0.2818 1. 0 0.71 
Ho2 Ho3+ 2 e 0.7421 0.5149 0.2512 1. 0 0.86 
K1 K1+ 2 e 0.2332 0.4216 0.2301 1. 0 1.08 
K2 K1+ 2 e 0.8001 0.9207 0.2877 1. 0 1.16 
Co1 Co2+ 1 c 0.5 0.2052 0 1. 0 0.65 
Co2 Co2+ 1 b 0 0.2106 0.5 1. 0 0.73 
Co3 Co2+ 1 a 0 0.7241 0 1. 0 0.6 
Co4 Co2+ 1 d 0.5 0.7086 0.5 1. 0 0.57 
Si1 Si4+ 2 e 0.6054 0.2425 0.3891 1. 0 0.52 
Si2 Si4+ 2 e 0.8891 0.1881 0.1144 1. 0 0.38 
Si3 Si4+ 2 e 0.1131 0.6845 0.3844 1. 0 0.46 
Si4 Si4+ 2 e 0.4001 0.7551 0.1121 1. 0 0.49 
O1 O2- 2 e 0.0011 0.1166 0.2948 1. 0 0.92 
O2 O2- 2 e 0.7137 0.1157 0.0177 1. 0 1.15 
O3 O2- 2 e 0.7892 0.3144 0.4717 1. 0 1.31 
O4 O2- 2 e 0.535 0.3097 0.2051 1. 0 1.28 
O5 O2- 1 a 0 0.1399 0 1. 0 1.12 
O6 O2- 2 e 0.6031 0.0934 0.4001 1. 0 0.99 
O7 O2- 2 e 0.8952 0.3367 0.112 1. 0 1.63 
O8 O2- 1 c 0.5 0.812 0 1. 0 1.05 
O9 O2- 2 e 0.212 0.8161 0.0351 1. 0 1.21 
O10 O2- 2 e 0.0106 0.6353 0.2028 1. 0 1.19 
O11 O2- 2 e 0.489 0.811 0.295 1. 0 1.08 
O12 O2- 2 e 0.2815 0.6101 0.467 1. 0 0.95 
O13 O2- 2 e 0.1238 0.833 0.3656 1. 0 1.42 
O14 O2- 2 e 0.404 0.606 0.0921 1. 0 1.36 
O15 O2- 1 b 0 0.666 0.5 1. 0 1.18 
O16 O2- 1 d 0.5 0.2938 0.5 1. 0 1.09 

#End of data_20770-ICSD


