data_200022-ICSD
#?2014 by Fachinformationszentrum Karlsruhe, and the U.S. Secretary of 
#Commerce on behalf of the United States.  All rights reserved.
_database_code_ICSD                200022
_audit_creation_date               1980/01/01
_chemical_name_systematic          'Tripotassium Copper Nitrate(III)'
_chemical_formula_structural       'K3 Cu (N O2)5'
_chemical_formula_sum              'Cu1 K3 N5 O10'
_publ_section_title
;
The crystal structure of K3 Cu (N O2)3
;
loop_
_citation_id
_citation_journal_abbrev
_citation_year
_citation_journal_volume
_citation_page_first
_citation_page_last
_citation_journal_id_ASTM
primary 'Inorganica Chimica Acta' 1977 23 117 129 ICHAA3
_publ_author_name
;
Klanderman, K.A.;Hamilton, W.C.;Bernal, I.
;
_cell_length_a                     21.70(4)
_cell_length_b                     18.94(4)
_cell_length_c                     10.88(2)
_cell_angle_alpha                  90.
_cell_angle_beta                   90.
_cell_angle_gamma                  90.
_cell_volume                       4471.66
_cell_formula_units_Z              16
_symmetry_space_group_name_H-M     'P b n m'
_symmetry_Int_Tables_number        62
_refine_ls_R_factor_all            .056
loop_
_symmetry_equiv_pos_site_id
_symmetry_equiv_pos_as_xyz
  1	'-x+.5, y+.5, z'
  2	'x, y, -z+.5'
  3	'x+.5, -y+.5, z+.5'
  4	'-x, -y, -z'
  5	'x+.5, -y+.5, -z'
  6	'-x, -y, z+.5'
  7	'-x+.5, y+.5, -z+.5'
  8	'x, y, z'
loop_
_atom_type_symbol
_atom_type_oxidation_number
Cu2+	2
K1+	1
N3+	3
O2-	-2
loop_
_atom_site_label
_atom_site_type_symbol
_atom_site_symmetry_multiplicity
_atom_site_Wyckoff_symbol
_atom_site_fract_x
_atom_site_fract_y
_atom_site_fract_z
_atom_site_occupancy
_atom_site_attached_hydrogens
_atom_site_B_iso_or_equiv
Cu1 Cu2+ 4 c 0.2517(1) 0.1267(1) 0.25 1. 0 0 
Cu2 Cu2+ 4 c 0.0062(1) 0.3685(1) 0.25 1. 0 0 
Cu3 Cu2+ 4 c 0.4984(1) 0.3736(1) 0.25 1. 0 0 
Cu4 Cu2+ 4 c 0.2658(1) 0.3868(1) -.25 1. 0 0 
K1 K1+ 4 c 0.0079(2) 0.3432(3) -.25 1. 0 0 
K2 K1+ 4 c 0.0101(2) 0.1674(3) 0.25 1. 0 0 
K3 K1+ 4 c 0.2510(2) 0.4150(3) 0.25 1. 0 0 
K4 K1+ 4 c 0.2528(2) 0.0913(3) -.25 1. 0 0 
K5 K1+ 8 d 0.3665(2) 0.2515(2) 0.0099(3) 1. 0 0 
K6 K1+ 8 d 0.1545(2) 0.2642(2) -.0123(3) 1. 0 0 
K7 K1+ 8 d 0.1052(2) 0.0078(2) -.0086(3) 1. 0 0 
K8 K1+ 8 d 0.3945(2) 0.0061(2) 0.0014(3) 1. 0 0 
O1 O2- 8 d 0.2028(4) 0.1242(5) 0.0032(9) 1. 0 2.9 
O2 O2- 8 d 0.3006(4) 0.1149(5) 0.0035(9) 1. 0 2.9 
O3 O2- 8 d 0.2583(4) 0.2723(5) 0.1533(10) 1. 0 2.9 
O4 O2- 8 d 0.4574(5) 0.1401(5) -.004(1) 1. 0 2.7 
O5 O2- 8 d 0.0557(4) 0.3604(5) 0.0031(10) 1. 0 2.9 
O6 O2- 8 d 0.0030(5) 0.4907(6) -.1519(11) 1. 0 3.1 
O7 O2- 8 d 0.4867(5) 0.2920(6) 0.1158(12) 1. 0 4.3 
O8 O2- 8 d 0.0414(6) 0.1436(7) -.0020(13) 1. 0 5.7 
O9 O2- 8 d 0.0014(6) -.0118(8) 0.1572(2) 1. 0 6. 
O10 O2- 8 d 0.3769(4) 0.3863(5) 0.1523(10) 1. 0 3.3 
O11 O2- 8 d 0.2146(5) 0.4085(6) -.0013(9) 1. 0 3.7 
O12 O2- 8 d 0.2788(4) 0.4635(5) -.1113(10) 1. 0 3.1 
O13 O2- 8 d 0.2623(5) 0.2776(6) -.1551(12) 1. 0 4.8 
O14 O2- 8 d 0.3871(4) 0.3710(5) -.1517(10) 1. 0 2.9 
O15 O2- 4 c 0.3726(7) 0.1604(9) 0.25 1. 0 4.1 
O16 O2- 4 c 0.3357(9) 0.0582(11) 0.25 1. 0 6.3 
O17 O2- 4 c 0.1402(10) 0.1345(11) 0.25 1. 0 6.5 
O18 O2- 4 c 0.1805(9) 0.0403(11) 0.25 1. 0 6.4 
O19 O2- 4 c 0.1174(8) 0.3922(10) 0.25 1. 0 5.8 
O20 O2- 4 c 0.0829(8) 0.2909(9) 0.25 1. 0 4.7 
O21 O2- 4 c 0.3846(7) 0.1181(9) -.25 1. 0 4.9 
O22 O2- 4 c 0.4340(8) 0.2124(8) -.25 1. 0 4.4 
O23 O2- 4 c 0.1225(7) 0.0771(8) -.25 1. 0 3.3 
O24 O2- 4 c 0.1169(7) 0.1885(9) -.25 1. 0 4.4 
O25 O2- 4 c 0.1397(7) 0.3481(8) -.25 1. 0 3.6 
O26 O2- 4 c 0.1521(6) 0.4594(8) -.25 1. 0 3.2 
N1 N3+ 8 d 0.2517(4) 0.1211(6) 0.0637(12) 1. 0 2. 
N2 N3+ 8 d 0.0071(5) 0.3622(6) 0.0660(11) 1. 0 1.7 
N3 N3+ 8 d 0.0074(6) 0.1961(7) -.0136(15) 1. 0 3.6 
N4 N3+ 8 d 0.2534(5) 0.4559(7) -.0076(14) 1. 0 3.3 
N5 N3+ 4 c 0.1349(11) 0.0730(12) 0.25 1. 0 5. 
N6 N3+ 4 c 0.2548(7) 0.2370(8) 0.25 1. 0 1.6 
N7 N3+ 4 c 0.3768(12) 0.0947(14) 0.25 1. 0 6.8 
N8 N3+ 4 c 0.3865(11) 0.1815(13) -.25 1. 0 5.5 
N9 N3+ 4 c -.0003(8) 0.4775(10) 0.25 1. 0 3.7 
N10 N3+ 4 c 0.1282(9) 0.3293(10) 0.25 1. 0 3.3 
N11 N3+ 4 c 0.0905(8) 0.1293(9) -.25 1. 0 2.6 
N12 N3+ 4 c 0.4977(11) 0.5161(14) 0.25 1. 0 6.3 
N13 N3+ 4 c 0.4058(7) 0.3828(9) 0.25 1. 0 2.3 
N14 N3+ 4 c 0.1752(8) 0.3988(9) -.25 1. 0 2.5 
N15 N3+ 4 c 0.2583(8) 0.2439(11) -.25 1. 0 3.3 
N16 N3+ 4 c 0.3570(7) 0.3767(8) -.25 1. 0 2.1 

#End of data_200022-ICSD


