data_78565-ICSD
#?2014 by Fachinformationszentrum Karlsruhe, and the U.S. Secretary of 
#Commerce on behalf of the United States.  All rights reserved.
_database_code_ICSD                78565
_audit_creation_date               1996/10/14
_chemical_name_systematic
;
Cesium Lithium Phyllo-disilicate (1.33/0.67/1)
;
_chemical_formula_structural       '(Cs1.33 Li0.67) (Si2 O5)'
_chemical_formula_sum              'Cs1.33 Li0.67 O5 Si2'
_publ_section_title
;
Extended structures in crystalline phyllosilicates: silica ring 
systems in lithium, rubidium, cesium, and cesium/lithium 
phyllosilicate
;
loop_
_citation_id
_citation_journal_abbrev
_citation_year
_citation_journal_volume
_citation_page_first
_citation_page_last
_citation_journal_id_ASTM
primary 'Journal of Non-Crystalline Solids' 1994 176 164 171 JNCSBJ
_publ_author_name
;
de Jong, B.H.W.S.;Slaats, P.G.G.;Super, H.T.J.;Veldman, N.;Spek, A.L.
;
_cell_length_a                     10.9547(9)
_cell_length_b                     8.4281(7)
_cell_length_c                     18.9620(20)
_cell_angle_alpha                  90.
_cell_angle_beta                   90.314(7)
_cell_angle_gamma                  90.
_cell_volume                       1750.68
_cell_formula_units_Z              12
_symmetry_space_group_name_H-M     'P 1 21/m 1'
_symmetry_Int_Tables_number        11
_refine_ls_R_factor_all            .0501
loop_
_symmetry_equiv_pos_site_id
_symmetry_equiv_pos_as_xyz
  1	'x, -y+.5, z'
  2	'-x, -y, -z'
  3	'-x, y+.5, -z'
  4	'x, y, z'
loop_
_atom_type_symbol
_atom_type_oxidation_number
Cs1+	1
Li1+	1
O2-	-2
Si4+	4
loop_
_atom_site_label
_atom_site_type_symbol
_atom_site_symmetry_multiplicity
_atom_site_Wyckoff_symbol
_atom_site_fract_x
_atom_site_fract_y
_atom_site_fract_z
_atom_site_occupancy
_atom_site_attached_hydrogens
_atom_site_B_iso_or_equiv
Si1 Si4+ 4 f 0.24923(14) 0.0592(2) 0.09537(9) 1. 0 0 
Si2 Si4+ 4 f -.00476(14) 0.0579(2) 0.16525(9) 1. 0 0 
Si3 Si4+ 4 f -.01750(14) 0.0582(2) 0.32896(9) 1. 0 0 
Si4 Si4+ 4 f -.25519(14) 0.0598(2) 0.41235(9) 1. 0 0 
Si5 Si4+ 4 f -.49519(14) -.0640(2) 0.33517(9) 1. 0 0 
Si6 Si4+ 4 f 0.48550(14) -.0623(2) 0.17017(9) 1. 0 0 
O1 O2- 4 f 0.3589(4) 0.0336(5) 0.1536(2) 1. 0 0 
O2 O2- 4 f 0.2693(4) -.0256(6) 0.0228(2) 1. 0 0 
O3 O2- 2 e 0.2339(5) 0.25 0.0876(4) 1. 0 0 
O4 O2- 4 f 0.1265(3) -.0034(6) 0.1364(3) 1. 0 0 
O5 O2- 2 e 0.0008(6) 0.25 0.1681(4) 1. 0 0 
O6 O2- 4 f -.1145(4) -.0051(6) 0.1208(3) 1. 0 0 
O7 O2- 4 f -.0107(3) -.0036(6) 0.2469(2) 1. 0 0 
O8 O2- 2 e -.0190(6) 0.25 0.3252(4) 1. 0 0 
O9 O2- 4 f 0.0895(4) -.0081(6) 0.3745(3) 1. 0 0 
O10 O2- 4 f -.1531(4) 0.0014(5) 0.3549(3) 1. 0 0 
O11 O2- 2 e -.2375(5) 0.25 0.4217(4) 1. 0 0 
O12 O2- 4 f -.2468(4) -.0287(6) 0.4844(2) 1. 0 0 
O13 O2- 4 f -.3870(4) 0.0393(6) 0.3719(2) 1. 0 0 
O14 O2- 2 e -.4535(6) 0.75 0.3412(4) 1. 0 0.3412(4) 
O15 O2- 4 f 0.3768(4) -.0256(6) 0.3669(3) 1. 0 0 
O16 O2- 4 f 0.5156(4) -.0162(6) 0.2522(2) 1. 0 0.2522(2) 
O17 O2- 2 e 0.4488(6) 0.75 0.1689(4) 1. 0 0 
O18 O2- 4 f 0.5951(4) -.0168(6) 0.1218(3) 1. 0 0 
Li1 Li1+ 4 f 0.7397(8) 0.5111(13) 0.0726(6) 1. 0 0 
Li2 Li1+ 4 f 0.2384(9) 0.5164(15) 0.4197(6) 1. 0 0 
Cs1 Cs1+ 2 e 0.77477(5) 0.75 0.22908(3) 1. 0 0 
Cs2 Cs1+ 2 e 0.70829(5) 0.25 0.22500(3) 1. 0 0 
Cs3 Cs1+ 2 e 0.27506(5) 0.25 0.27803(3) 1. 0 0 
Cs4 Cs1+ 2 e 0.20649(5) 0.75 0.26565(3) 1. 0 0 
Cs5 Cs1+ 2 e 0.45871(5) 0.25 0.48610(3) 1. 0 0 
Cs6 Cs1+ 2 e 0.02947(5) 0.25 0.51656(3) 1. 0 0 
Cs7 Cs1+ 2 e 0.51763(5) 0.25 0.00831(3) 1. 0 0 
Cs8 Cs1+ 2 e 0.03920(5) 0.75 0.01696(3) 1. 0 0 

#End of data_78565-ICSD


