data_28032-ICSD
#?2014 by Fachinformationszentrum Karlsruhe, and the U.S. Secretary of 
#Commerce on behalf of the United States.  All rights reserved.
_database_code_ICSD                28032
_audit_creation_date               1980/01/01
_audit_update_record               2004/04/01
_chemical_name_systematic
;
Tetrapotassium Hexacyanodiniccolate(I)
;
_chemical_formula_structural       'K4 (Ni2 (C N)6)'
_chemical_formula_sum              'C6 K4 N6 Ni2'
_publ_section_title
;
Die Kristallstruktur von K4 (Ni2 (C N)6)
;
loop_
_citation_id
_citation_journal_abbrev
_citation_year
_citation_journal_volume
_citation_page_first
_citation_page_last
_citation_journal_id_ASTM
primary
;
Zeitschrift fuer Kristallographie, Kristallgeometrie, Kristallphysik, 
Kristallchemie (-144,1977)
;
 1972 136 122 134 ZEKGAX
2
;
Zeitschrift fuer Kristallographie, Kristallgeometrie, Kristallphysik, 
Kristallchemie (-144,1977)
;
 1972 136 106 121 ZEKGAX
_publ_author_name                  'Jarchow, O.'
_cell_length_a                     44.02
_cell_length_b                     16.10
_cell_length_c                     7.44
_cell_angle_alpha                  90.
_cell_angle_beta                   91.5
_cell_angle_gamma                  90.
_cell_volume                       5271.08
_cell_formula_units_Z              2
_symmetry_space_group_name_H-M     'P -1'
_symmetry_Int_Tables_number        2
_refine_ls_R_factor_all            .08
loop_
_symmetry_equiv_pos_site_id
_symmetry_equiv_pos_as_xyz
  1	'-x, -y, -z'
  2	'x, y, z'
loop_
_atom_type_symbol
_atom_type_oxidation_number
C2+	2
K1+	1
N3-	-3
Ni1+	1
loop_
_atom_site_label
_atom_site_type_symbol
_atom_site_symmetry_multiplicity
_atom_site_Wyckoff_symbol
_atom_site_fract_x
_atom_site_fract_y
_atom_site_fract_z
_atom_site_occupancy
_atom_site_attached_hydrogens
_atom_site_B_iso_or_equiv
K1 K1+ 2 i 0.0271(1) 0.0000(5) 0.7539(4) 1. 0 1.57(5) 
K2 K1+ 2 i -.0001(1) 0.2494(5) 0.3381(4) 1. 0 1.40(4) 
K3 K1+ 2 i 0.0911(1) 0.1891(4) -.0187(6) 1. 0 1.53(4) 
K4 K1+ 2 i 0.0911(1) -.1892(4) 0.5578(6) 1. 0 1.50(4) 
Ni1 Ni1+ 2 i 0.0631(3) 0.0555(2) 0.3558(3) 1. 0 0.67(2) 
Ni2 Ni1+ 2 i 0.0631(3) -.0554(2) 0.1570(2) 1. 0 0.67(2) 
C1 C2+ 2 i 0.0965(3) 0.0066(18) 0.4697(21) 1. 0 0.91(15) 
C2 C2+ 2 i 0.0965(3) -.0067(20) 0.0432(22) 1. 0 1.03(15) 
C3 C2+ 2 i 0.0363(3) 0.0894(16) 0.1716(22) 1. 0 1.37(17) 
C4 C2+ 2 i 0.0363(3) -.0894(17) 0.3424(22) 1. 0 1.44(17) 
C5 C2+ 2 i 0.0567(3) 0.1394(17) 0.5459(22) 1. 0 1.26(18) 
C6 C2+ 2 i 0.0567(3) -.1394(8) -.0300(25) 1. 0 1.36(19) 
N1 N3- 2 i 0.1176(3) -.0245(17) 0.5342(21) 1. 0 1.91(20) 
N2 N3- 2 i 0.1176(3) 0.0243(17) -.0328(21) 1. 0 1.89(20) 
N3 N3- 2 i 0.0213(3) 0.1130(15) 0.0474(22) 1. 0 1.90(19) 
N4 N3- 2 i 0.0213(3) -.1128(15) 0.4475(21) 1. 0 1.76(18) 
N5 N3- 2 i 0.0518(3) 0.1836(16) 0.6550(21) 1. 0 2.13(19) 
N6 N3- 2 i 0.0518(3) -.1825(16) -.1438(22) 1. 0 2.20(10) 

#End of data_28032-ICSD


