data_26750-ICSD
#?2014 by Fachinformationszentrum Karlsruhe, and the U.S. Secretary of 
#Commerce on behalf of the United States.  All rights reserved.
_database_code_ICSD                26750
_audit_creation_date               1980/01/01
_audit_update_record               2005/10/01
_chemical_name_systematic          'Silver Nitrate(III)'
_chemical_formula_structural       'Ag (N O2)'
_chemical_formula_sum              'Ag1 N1 O2'
_publ_section_title
;
Die Kristallstruktur des Silbernitrits.
;
loop_
_citation_id
_citation_journal_abbrev
_citation_year
_citation_journal_volume
_citation_page_first
_citation_page_last
_citation_journal_id_ASTM
primary
;
Zeitschrift fuer Kristallographie, Kristallgeometrie, Kristallphysik, 
Kristallchemie (-144,1977)
;
 1936 95 383 393 ZEKGAX
_publ_author_name                  'Ketelaar, J.A.A.'
_cell_length_a                     3.512(7)
_cell_length_b                     6.148(10)
_cell_length_c                     5.17(2)
_cell_angle_alpha                  90.
_cell_angle_beta                   90.
_cell_angle_gamma                  90.
_cell_volume                       111.63
_cell_formula_units_Z              2
_symmetry_space_group_name_H-M     'I m m 2'
_symmetry_Int_Tables_number        44
loop_
_symmetry_equiv_pos_site_id
_symmetry_equiv_pos_as_xyz
  1	'x, -y, z'
  2	'-x, y, z'
  3	'-x, -y, z'
  4	'x, y, z'
  5	'x+.5, -y+.5, z+.5'
  6	'-x+.5, y+.5, z+.5'
  7	'-x+.5, -y+.5, z+.5'
  8	'x+.5, y+.5, z+.5'
loop_
_atom_type_symbol
_atom_type_oxidation_number
Ag1+	1
N3+	3
O2-	-2
loop_
_atom_site_label
_atom_site_type_symbol
_atom_site_symmetry_multiplicity
_atom_site_Wyckoff_symbol
_atom_site_fract_x
_atom_site_fract_y
_atom_site_fract_z
_atom_site_occupancy
_atom_site_attached_hydrogens
Ag1 Ag1+ 2 a 0 0 0 1. 0 
N1 N3+ 2 a 0 0 0.40(5) 1. 0 
O1 O2- 4 d 0 0.167(10) 0.50(3) 1. 0 

#End of data_26750-ICSD


