data_41060-ICSD
#?2014 by Fachinformationszentrum Karlsruhe, and the U.S. Secretary of 
#Commerce on behalf of the United States.  All rights reserved.
_database_code_ICSD                41060
_audit_creation_date               2000/07/15
_chemical_name_systematic          'Calcium Vanadium Nitride (3/1/3)'
_chemical_formula_structural       'Ca3 V N3'
_chemical_formula_sum              'Ca3 N3 V1'
_publ_section_title
;
Synthesis and characterization of a new ternary nitride, Ca3 V N3
;
loop_
_citation_id
_citation_journal_abbrev
_citation_year
_citation_journal_volume
_citation_page_first
_citation_page_last
_citation_journal_id_ASTM
primary 'Journal of Solid State Chemistry' 1992 98 318 322 JSSCBI
_publ_author_name                  'Vennos, D.A.;DiSalvo, F.J.'
_cell_length_a                     6.717(2)
_cell_length_b                     5.064(2)
_cell_length_c                     6.720(3)
_cell_angle_alpha                  90.
_cell_angle_beta                   78.88(3)
_cell_angle_gamma                  90.
_cell_volume                       224.29
_cell_formula_units_Z              2
_symmetry_space_group_name_H-M     'P 1 21/m 1'
_symmetry_Int_Tables_number        11
_refine_ls_R_factor_all            .032
loop_
_symmetry_equiv_pos_site_id
_symmetry_equiv_pos_as_xyz
  1	'x, -y+.5, z'
  2	'-x, -y, -z'
  3	'-x, y+.5, -z'
  4	'x, y, z'
loop_
_atom_type_symbol
_atom_type_oxidation_number
Ca2+	2
N3-	-3
V3+	3
loop_
_atom_site_label
_atom_site_type_symbol
_atom_site_symmetry_multiplicity
_atom_site_Wyckoff_symbol
_atom_site_fract_x
_atom_site_fract_y
_atom_site_fract_z
_atom_site_occupancy
_atom_site_attached_hydrogens
V1 V3+ 2 e 0.8028(2) 0.25 0.3028(2) 1. 0 
Ca1 Ca2+ 2 e 0.3915(2) 0.25 0.8915(2) 1. 0 
Ca2 Ca2+ 2 e 0.9021(2) 0.25 0.8297(2) 1. 0 
Ca3 Ca2+ 2 e 0.3298(2) 0.25 0.4022(2) 1. 0 
N1 N3- 2 e 0.6268(9) 0.25 0.1271(9) 1. 0 
N2 N3- 2 e 0.318(1) 0.75 0.4315(9) 1. 0 
N3 N3- 2 e 0.9317(10) 0.75 0.8159(9) 1. 0 

#End of data_41060-ICSD


