data_68465-ICSD
#?2014 by Fachinformationszentrum Karlsruhe, and the U.S. Secretary of 
#Commerce on behalf of the United States.  All rights reserved.
_database_code_ICSD                68465
_audit_creation_date               1991/07/10
_chemical_name_systematic          'Lithium Gallium Sulfide'
_chemical_formula_structural       'Li Ga S2'
_chemical_formula_sum              'Ga1 Li1 S2'
_publ_section_title
;
Structure of Lithium Gallium Sulfide, LiGaS2
;
loop_
_citation_id
_citation_journal_abbrev
_citation_year
_citation_journal_volume
_citation_page_first
_citation_page_last
_citation_journal_id_ASTM
primary 'Acta Crystallographica, Section C: Crystal Structure Communications'
 1990 46 2017 2019 ACSCEE
_publ_author_name
;
Leal-Gonzalez, J.;Melibary, S.S.;Smith, A.J.
;
_cell_length_a                     6.519(6)
_cell_length_b                     7.872(7)
_cell_length_c                     6.238(4)
_cell_angle_alpha                  90.
_cell_angle_beta                   90.
_cell_angle_gamma                  90.
_cell_volume                       320.12
_cell_formula_units_Z              4
_symmetry_space_group_name_H-M     'P n a 21'
_symmetry_Int_Tables_number        33
_refine_ls_R_factor_all            .049
loop_
_symmetry_equiv_pos_site_id
_symmetry_equiv_pos_as_xyz
  1	'x+.5, -y+.5, z'
  2	'-x+.5, y+.5, z+.5'
  3	'-x, -y, z+.5'
  4	'x, y, z'
loop_
_atom_type_symbol
_atom_type_oxidation_number
Ga3+	3
Li1+	1
S2-	-2
loop_
_atom_site_label
_atom_site_type_symbol
_atom_site_symmetry_multiplicity
_atom_site_Wyckoff_symbol
_atom_site_fract_x
_atom_site_fract_y
_atom_site_fract_z
_atom_site_occupancy
_atom_site_attached_hydrogens
_atom_site_B_iso_or_equiv
Li1 Li1+ 4 a 0.4178(47) 0.1445(54) 0.126(16) 1. 0 1.30(41) 
Ga1 Ga3+ 4 a 0.0736(3) 0.1271(4) 0.6135 1. 0 0 
S1 S2- 4 a 0.0951(6) 0.6351(12) 0.0065(8) 1. 0 0 
S2 S2- 4 a 0.0659(7) 0.1153(11) 0.9879(10) 1. 0 0 

#End of data_68465-ICSD


