data_200200-ICSD
#?2014 by Fachinformationszentrum Karlsruhe, and the U.S. Secretary of 
#Commerce on behalf of the United States.  All rights reserved.
_database_code_ICSD                200200
_audit_creation_date               1986/08/05
_chemical_name_systematic          'Potassium Hexacyanoferrate(III)'
_chemical_formula_structural       'K3 (Fe (C N)6)'
_chemical_formula_sum              'C6 Fe1 K3 N6'
_publ_section_title
;
Crystal structures of the simple monoclinic and orthorhombic 
polytypes of tripotassium hexacyanoferrate(III)
;
loop_
_citation_id
_citation_journal_abbrev
_citation_year
_citation_journal_volume
_citation_page_first
_citation_page_last
_citation_journal_id_ASTM
primary 'Australian Journal of Chemistry' 1978 31 1195 1199 AJCHAS
_publ_author_name
;
Figgis, B.N.;Skelton, B.W.;White, A.H.
;
_cell_length_a                     7.047(3)
_cell_length_b                     10.400(3)
_cell_length_c                     8.384(3)
_cell_angle_alpha                  90.
_cell_angle_beta                   107.29(3)
_cell_angle_gamma                  90.
_cell_volume                       586.69
_cell_formula_units_Z              2
_symmetry_space_group_name_H-M     'P 1 21/c 1'
_symmetry_Int_Tables_number        14
_refine_ls_R_factor_all            .036
loop_
_symmetry_equiv_pos_site_id
_symmetry_equiv_pos_as_xyz
  1	'x, -y+.5, z+.5'
  2	'-x, -y, -z'
  3	'-x, y+.5, -z+.5'
  4	'x, y, z'
loop_
_atom_type_symbol
_atom_type_oxidation_number
C2+	2
Fe3+	3
K1+	1
N3-	-3
loop_
_atom_site_label
_atom_site_type_symbol
_atom_site_symmetry_multiplicity
_atom_site_Wyckoff_symbol
_atom_site_fract_x
_atom_site_fract_y
_atom_site_fract_z
_atom_site_occupancy
_atom_site_attached_hydrogens
K1 K1+ 4 e 0.5025(1) -.27007(9) 0.12528(9) 1. 0 
K2 K1+ 2 c 0 0 0.5 1. 0 
Fe1 Fe3+ 2 a 0 0 0 1. 0 
C1 C2+ 4 e 0.1205(5) 0.1683(3) 0.0288(4) 1. 0 
N1 N3- 4 e 0.1996(5) 0.2665(3) 0.0485(4) 1. 0 
C2 C2+ 4 e 0.1875(5) -.0524(3) 0.2102(4) 1. 0 
N2 N3- 4 e 0.2962(5) -.0826(3) 0.3361(4) 1. 0 
C3 C2+ 4 e 0.1887(5) -.0554(3) -.1145(3) 1. 0 
N3 N3- 4 e 0.2974(5) -.0881(3) -.1846(4) 1. 0 

loop_
_atom_site_aniso_label
_atom_site_aniso_type_symbol
_atom_site_aniso_U_11
_atom_site_aniso_U_22
_atom_site_aniso_U_33
_atom_site_aniso_U_12
_atom_site_aniso_U_13
_atom_site_aniso_U_23
K1 K1+ 0.0312(4) 0.0641(6) 0.0235(3) 0.0064(4) 0.0092(3) 0.0013(3)
K2 K1+ 0.0364(5) 0.0345(5) 0.0258(4) -.0045(5) 0.0122(4) -.0021(4)
Fe1 Fe3+ 0.0193(3) 0.0238(3) 0.0155(2) 0.0011(3) 0.0056(2) 0.0003(2)
C1 C2+ 0.025(1) 0.029(2) 0.025(1) 0.002(1) 0.008(1) 0.000(1)
N1 N3- 0.032(1) 0.031(2) 0.042(2) -.002(1) 0.008(1) 0.000(1)
C2 C2+ 0.025(1) 0.032(2) 0.023(1) 0.002(1) 0.009(1) 0.000(1)
N2 N3- 0.035(2) 0.060(2) 0.030(1) 0.008(2) 0.008(1) 0.005(1)
C3 C2+ 0.028(1) 0.032(2) 0.019(1) 0.005(1) 0.007(1) 0.001(1)
N3 N3- 0.039(2) 0.060(2) 0.032(1) 0.013(2) 0.017(1) 0.000(1)
#End of data_200200-ICSD


