data_94907-ICSD
#?2014 by Fachinformationszentrum Karlsruhe, and the U.S. Secretary of 
#Commerce on behalf of the United States.  All rights reserved.
_database_code_ICSD                94907
_audit_creation_date               2003/10/01
_chemical_name_systematic
;
Tripotassium Plutonium(III) Bis(tetrathiophosphate(V))
;
_chemical_formula_structural       'K3 Pu (P S4)2'
_chemical_formula_sum              'K3 P2 Pu1 S8'
_publ_section_title
;
Synthesis and structural characterization of the first quaternary 
plutonium thiophosphates : K3 Pu (P S4)2 and A Pu P2 S7 (A = K, 
Rb,Cs)
;
loop_
_citation_id
_citation_journal_abbrev
_citation_year
_citation_journal_volume
_citation_journal_issue
_citation_page_first
_citation_page_last
_citation_journal_id_ASTM
primary 'Journal of the American Chemical Society' 2002 124 7 1327 1333 JACSAT
_publ_author_name
;
Hess, R.F.;Gordon, P.L.;Tait, C.D.;Abney, K.D.;Dorhout, P.K.
;
_cell_length_a                     9.157(1)
_cell_length_b                     16.866(2)
_cell_length_c                     9.538(1)
_cell_angle_alpha                  90
_cell_angle_beta                   90.610(3)
_cell_angle_gamma                  90
_cell_volume                       1472.98
_cell_formula_units_Z              4
_symmetry_space_group_name_H-M     'P 1 21/c 1'
_symmetry_Int_Tables_number        14
_refine_ls_R_factor_all            .0371
loop_
_symmetry_equiv_pos_site_id
_symmetry_equiv_pos_as_xyz
  1	'x, -y+.5, z+.5'
  2	'-x, -y, -z'
  3	'-x, y+.5, -z+.5'
  4	'x, y, z'
loop_
_atom_type_symbol
_atom_type_oxidation_number
K1+	1
P5+	5
Pu3+	3
S2-	-2
loop_
_atom_site_label
_atom_site_type_symbol
_atom_site_symmetry_multiplicity
_atom_site_Wyckoff_symbol
_atom_site_fract_x
_atom_site_fract_y
_atom_site_fract_z
_atom_site_occupancy
_atom_site_attached_hydrogens
_atom_site_U_iso_or_equiv
Pu1 Pu3+ 4 e 0.7286(1) -0.0142(1) 0.5243(1) 1. 0 0.021(1) 
P1 P5+ 4 e 0.0250(3) 0.0979(2) 0.7208(2) 1. 0 0.022(1) 
P2 P5+ 4 e 0.4956(3) -0.0999(2) 0.7447(3) 1. 0 0.022(1) 
K1 K1+ 4 e 0.7686(3) 0.4679(2) 0.4861(2) 1. 0 0.038(1) 
K2 K1+ 4 e 0.3787(4) 0.2936(2) 0.3745(3) 1. 0 0.054(1) 
K3 K1+ 4 e 0.8841(5) 0.2125(2) 0.3665(3) 1. 0 0.068(1) 
S1 S2- 4 e 0.8366(4) 0.8420(2) 0.4085(3) 1. 0 0.030(1) 
S2 S2- 4 e 0.8137(4) 0.1274(2) 0.6718(3) 1. 0 0.031(1) 
S3 S2- 4 e 0.0418(4) -0.0220(2) 0.6781(3) 1. 0 0.027(1) 
S4 S2- 4 e 0.4648(3) 0.8793(2) 0.5335(3) 1. 0 0.026(1) 
S5 S2- 4 e 0.7153(3) 0.8877(2) 0.7743(3) 1. 0 0.031(1) 
S6 S2- 4 e 0.4422(4) 0.0174(2) 0.7604(3) 1. 0 0.033(1) 
S7 S2- 4 e 0.3827(4) 0.8230(2) 0.8604(3) 1. 0 0.035(1) 
S8 S2- 4 e 0.0671(4) 0.1255(2) 0.9215(3) 1. 0 0.031(1) 

loop_
_atom_site_aniso_label
_atom_site_aniso_type_symbol
_atom_site_aniso_U_11
_atom_site_aniso_U_22
_atom_site_aniso_U_33
_atom_site_aniso_U_12
_atom_site_aniso_U_13
_atom_site_aniso_U_23
Pu1 Pu3+ 0.025(1) 0.021(1) 0.018(1) 0.000(1) -0.004(1) 0.001(1)
P1 P5+ 0.025(2) 0.024(2) 0.016(1) 0.001(1) -0.004(1) -0.001(1)
P2 P5+ 0.025(2) 0.026(2) 0.016(1) -0.001(1) -0.003(1) 0.002(1)
K1 K1+ 0.046(2) 0.041(2) 0.028(1) -0.001(1) 0.009(1) 0.001(1)
K2 K1+ 0.053(3) 0.037(2) 0.071(2) 0.011(2) -0.025(2) -0.004(1)
K3 K1+ 0.097(3) 0.039(2) 0.069(2) -0.019(2) -0.044(2) 0.019(2)
S1 S2- 0.037(2) 0.023(2) 0.029(1) -0.004(1) 0.003(1) 0.002(1)
S2 S2- 0.028(2) 0.031(2) 0.035(2) 0.006(1) -0.013(1) -0.008(1)
S3 S2- 0.032(2) 0.021(2) 0.027(1) 0.000(1) -0.001(1) 0.001(1)
S4 S2- 0.028(2) 0.033(2) 0.018(1) 0.007(1) -0.006(1) -0.003(1)
S5 S2- 0.027(2) 0.045(2) 0.020(1) 0.002(1) -0.007(1) 0.003(1)
S6 S2- 0.048(3) 0.025(2) 0.026(1) 0.001(1) -0.003(1) 0.000(1)
S7 S2- 0.040(2) 0.033(2) 0.032(2) -0.007(1) 0.002(1) 0.011(1)
S8 S2- 0.037(2) 0.039(2) 0.018(1) 0.001(1) -0.007(1) -0.007(1)
#End of data_94907-ICSD


