data_413970-ICSD
#?2014 by Fachinformationszentrum Karlsruhe, and the U.S. Secretary of 
#Commerce on behalf of the United States.  All rights reserved.
_database_code_ICSD                413970
_audit_creation_date               2005/10/01
_chemical_name_systematic          'Calcium Nickel Diphosphate(V)'
_chemical_formula_structural       'Ca Ni (P2 O7)'
_chemical_formula_sum              'Ca1 Ni1 O7 P2'
_publ_section_title
;
Darstellung, Kristallstruktur und spektroskopische Charakterisierung 
von Ni P4 O11 und Ca Ni P2 O7
;
loop_
_citation_id
_citation_journal_abbrev
_citation_year
_citation_journal_volume
_citation_page_first
_citation_page_last
_citation_journal_id_ASTM
primary 'Zeitschrift fuer Anorganische und Allgemeine Chemie (1950) (DE)'
 2004 630 1040 1047 ZAACAB
_publ_author_name
;
Funke, M.;Blum, M.;Glaum, R.;ElBali, B.
;
_cell_length_a                     6.433(3)
_cell_length_b                     6.536(4)
_cell_length_c                     6.515(2)
_cell_angle_alpha                  66.4(2)
_cell_angle_beta                   82.7(2)
_cell_angle_gamma                  87.5(2)
_cell_volume                       248.98
_cell_formula_units_Z              2
_symmetry_space_group_name_H-M     'P -1'
_symmetry_Int_Tables_number        2
_refine_ls_R_factor_all            .0582
loop_
_symmetry_equiv_pos_site_id
_symmetry_equiv_pos_as_xyz
  1	'-x, -y, -z'
  2	'x, y, z'
loop_
_atom_type_symbol
_atom_type_oxidation_number
Ca2+	2
Ni2+	2
O2-	-2
P5+	5
loop_
_atom_site_label
_atom_site_type_symbol
_atom_site_symmetry_multiplicity
_atom_site_Wyckoff_symbol
_atom_site_fract_x
_atom_site_fract_y
_atom_site_fract_z
_atom_site_occupancy
_atom_site_attached_hydrogens
_atom_site_U_iso_or_equiv
Ca1 Ca2+ 2 i 0.12894(8) 0.80276(9) 0.73255(8) 1 0 0.01348(10) 
Ni1 Ni2+ 2 i 0.35344(5) 0.22243(5) 0.90009(5) 1 0 0.00759(8) 
P1 P5+ 2 i 0.62529(9) 0.67188(10) 0.63840(10) 1 0 0.00606(10) 
P2 P5+ 2 i 0.14022(9) 0.74673(10) 0.22913(10) 1 0 0.00561(10) 
O1 O2- 2 i 0.0600(3) 0.8653(3) 0.3767(3) 1 0 0.0092(3) 
O2 O2- 2 i 0.3231(3) 0.8665(3) 0.0482(3) 1 0 0.0099(3) 
O3 O2- 2 i 0.7290(3) 0.7465(3) 0.7920(3) 1 0 0.0111(3) 
O4 O2- 2 i 0.3803(3) 0.1568(3) 0.6008(3) 1 0 0.0105(3) 
O5 O2- 2 i 0.5876(3) 0.4384(3) 0.2524(3) 1 0 0.0099(3) 
O6 O2- 2 i 0.9715(3) 0.6975(3) 0.1105(3) 1 0 0.0120(3) 
O7 O2- 2 i 0.7738(3) 0.4800(3) 0.6044(3) 1 0 0.0093(3) 

loop_
_atom_site_aniso_label
_atom_site_aniso_type_symbol
_atom_site_aniso_U_11
_atom_site_aniso_U_22
_atom_site_aniso_U_33
_atom_site_aniso_U_12
_atom_site_aniso_U_13
_atom_site_aniso_U_23
Ca1 Ca2+ 0.0141(2) 0.0190(2) 0.0089(2) 0.00895(17) -0.00438(16) 
-0.00714(18)
Ni1 Ni2+ 0.00685(13) 0.00763(14) 0.00863(13) 0.00004(9) -0.00124(10) 
-0.00350(10)
P1 P5+ 0.0056(2) 0.0064(2) 0.0062(2) 0.00010(18) -0.00167(18) -0.00222(18)
P2 P5+ 0.0054(2) 0.0068(2) 0.0050(2) 0.00034(17) -0.00088(18) -0.00269(18)
O1 O2- 0.0102(7) 0.0091(7) 0.0097(7) 0.0008(6) -0.0003(6) -0.0054(6)
O2 O2- 0.0104(7) 0.0094(7) 0.0076(7) -0.0015(6) 0.0020(6) -0.0018(6)
O3 O2- 0.0115(7) 0.0126(8) 0.0109(7) -0.0025(6) -0.0018(6) -0.0061(6)
O4 O2- 0.0117(7) 0.0097(7) 0.0077(7) 0.0023(6) -0.0030(6) -0.0005(6)
O5 O2- 0.0067(7) 0.0104(7) 0.0118(7) -0.0011(6) -0.0001(6) -0.0038(6)
O6 O2- 0.0079(7) 0.0212(9) 0.0107(7) 0.0009(6) -0.0041(6) -0.0095(7)
O7 O2- 0.0113(7) 0.0080(7) 0.0081(7) 0.0038(6) -0.0017(6) -0.0028(6)
#End of data_413970-ICSD


