data_185308-ICSD
#?2014 by Fachinformationszentrum Karlsruhe, and the U.S. Secretary of 
#Commerce on behalf of the United States.  All rights reserved.
_database_code_ICSD                185308
_audit_creation_date               2013/02/01
_chemical_name_systematic          'Lithium Iron Phosphate(V)'
_chemical_formula_structural       'Li Fe (P O4)'
_chemical_formula_sum              'Fe1 Li1 O4 P1'
_publ_section_title
;
Synthesis and electrochemical properties of Li Fe P O4 single-
crystalline nanoplates dominated with bc-planes
;
loop_
_citation_id
_citation_journal_abbrev
_citation_year
_citation_journal_volume
_citation_page_first
_citation_page_last
_citation_journal_id_ASTM
primary 'Materials Letters' 2012 74 22 25 MLETDJ
2 'Solid State Ionics' 2006 177 1327 1330 SSIOD3
_publ_author_name
;
Ju Shuyuan;Peng Hongrui;Li Guicun;Chen Kezheng
;
_cell_length_a                     10.294
_cell_length_b                     5.987
_cell_length_c                     4.696
_cell_angle_alpha                  90.
_cell_angle_beta                   90.
_cell_angle_gamma                  90.
_cell_volume                       289.42
_cell_formula_units_Z              4
_symmetry_space_group_name_H-M     'P n m a'
_symmetry_Int_Tables_number        62
loop_
_symmetry_equiv_pos_site_id
_symmetry_equiv_pos_as_xyz
  1	'x+.5, y, -z+.5'
  2	'x, -y+.5, z'
  3	'-x+.5, y+.5, z+.5'
  4	'-x, -y, -z'
  5	'-x+.5, -y, z+.5'
  6	'-x, y+.5, -z'
  7	'x+.5, -y+.5, -z+.5'
  8	'x, y, z'
loop_
_atom_type_symbol
_atom_type_oxidation_number
Fe2+	2
Li1+	1
O2-	-2
P5+	5
loop_
_atom_site_label
_atom_site_type_symbol
_atom_site_symmetry_multiplicity
_atom_site_Wyckoff_symbol
_atom_site_fract_x
_atom_site_fract_y
_atom_site_fract_z
_atom_site_occupancy
_atom_site_attached_hydrogens
Li1 Li1+ 4 a 0 0 0 1. 0 
Fe1 Fe2+ 4 c 0.282 0.250 0.974 1. 0 
P1 P5+ 4 c 0.094 0.250 0.417 1. 0 
O1 O2- 4 c 0.098 0.250 0.744 1. 0 
O2 O2- 4 c 0.457 0.250 0.206 1. 0 
O3 O2- 8 d 0.166 0.047 0.285 1. 0 

#End of data_185308-ICSD


