data_39210-ICSD
#?2014 by Fachinformationszentrum Karlsruhe, and the U.S. Secretary of 
#Commerce on behalf of the United States.  All rights reserved.
_database_code_ICSD                39210
_audit_creation_date               1990/06/08
_audit_update_record               2012/08/01
_chemical_name_systematic          'Sodium Tantalum Germanium Oxide'
_chemical_formula_structural       'Na Ta Ge O5'
_chemical_formula_sum              'Ge1 Na1 O5 Ta1'
_publ_section_title
;
Synthesis and crystal structure of compounds A+ M5+ Ge O5 (A= Li, Na; 
M= Nb, Ta, Sb) and Li Ta Si O5
;
loop_
_citation_id
_citation_journal_abbrev
_citation_year
_citation_journal_volume
_citation_page_first
_citation_page_last
_citation_journal_id_ASTM
primary Kristallografiya 1990 35 316 323 KRISAJ
2 'Soviet Physics, Crystallography (= Kristallografiya)'
 1990 35 176 180 SPHCA6
_publ_author_name
;
Mill', B.V.;Belokoneva, E.L.;Butashin, A.V.
;
_cell_length_a                     6.843(4)
_cell_length_b                     8.916(4)
_cell_length_c                     7.417(7)
_cell_angle_alpha                  90.
_cell_angle_beta                   114.77(2)
_cell_angle_gamma                  90.
_cell_volume                       410.89
_cell_formula_units_Z              4
_symmetry_space_group_name_H-M     'C 1 2/c 1'
_symmetry_Int_Tables_number        15
_refine_ls_R_factor_all            .063
loop_
_symmetry_equiv_pos_site_id
_symmetry_equiv_pos_as_xyz
  1	'x, -y, z+.5'
  2	'-x, -y, -z'
  3	'-x, y, -z+.5'
  4	'x, y, z'
  5	'x+.5, -y+.5, z+.5'
  6	'-x+.5, -y+.5, -z'
  7	'-x+.5, y+.5, -z+.5'
  8	'x+.5, y+.5, z'
loop_
_atom_type_symbol
_atom_type_oxidation_number
Ge4+	4
Na1+	1
O2-	-2
Ta5+	5
loop_
_atom_site_label
_atom_site_type_symbol
_atom_site_symmetry_multiplicity
_atom_site_Wyckoff_symbol
_atom_site_fract_x
_atom_site_fract_y
_atom_site_fract_z
_atom_site_occupancy
_atom_site_attached_hydrogens
_atom_site_B_iso_or_equiv
Na1 Na1+ 4 e 0 0.321(9) 0.75 1. 0 7.6(2) 
Ta1 Ta5+ 4 a 0 0 0 1. 0 0 
Ge1 Ge4+ 4 e 0 0.3183(9) 0.25 1. 0 0 
O1 O2- 8 f 0.191(7) 0.450(5) 0.406(6) 1. 0 1.3(6) 
O2 O2- 8 f 0.094(6) 0.200(5) 0.110(6) 1. 0 1.0(6) 
O3 O2- 4 e 0 0.062(6) 0.75 1. 0 0.4(6) 

loop_
_atom_site_aniso_label
_atom_site_aniso_type_symbol
_atom_site_aniso_B_11
_atom_site_aniso_B_22
_atom_site_aniso_B_33
_atom_site_aniso_B_12
_atom_site_aniso_B_13
_atom_site_aniso_B_23
Ta1 Ta5+ 0.10(7) 0.31(9) 0.49(9) -.11(31) 0.15(6) -.32(45)
Ge1 Ge4+ 0.10(21) 0.33(26) 0.32(27) 0 0.14(19) 0
#End of data_39210-ICSD


