data_415323-ICSD
#?2014 by Fachinformationszentrum Karlsruhe, and the U.S. Secretary of 
#Commerce on behalf of the United States.  All rights reserved.
_database_code_ICSD                415323
_audit_creation_date               2006/10/01
_chemical_name_systematic
;
Potassium Gadolinium Diphosphate Dihydrate
;
_chemical_formula_structural       'K Gd P2 O7 (H2 O)2'
_chemical_formula_sum              'H4 Gd1 K1 O9 P2'
_publ_section_title
;
Crystal structure of new lanthanide diphosphates K Ln P2 O7 . 2H2 O 
(Ln = Gd, Tb, Yb)
;
loop_
_citation_id
_citation_journal_abbrev
_citation_year
_citation_journal_volume
_citation_journal_issue
_citation_page_first
_citation_page_last
_citation_journal_id_ASTM
primary 'Zeitschrift fuer Kristallographie (1979-2010)' 2006 221 3 173 177 ZEKRDZ
_publ_author_name
;
Tahiri, A.A.;El Bali, B.;Lachkar, M.;Piniella, J.F.;Capitelli, F.
;
_cell_length_a                     7.7522(2)
_cell_length_b                     10.6732(8)
_cell_length_c                     10.1375(7)
_cell_angle_alpha                  90.000(6)
_cell_angle_beta                   93.308(5)
_cell_angle_gamma                  90.000(5)
_cell_volume                       837.39
_cell_formula_units_Z              4
_symmetry_space_group_name_H-M     'P 1 21/c 1'
_symmetry_Int_Tables_number        14
_refine_ls_R_factor_all            .0467
loop_
_symmetry_equiv_pos_site_id
_symmetry_equiv_pos_as_xyz
  1	'x, -y+.5, z+.5'
  2	'-x, -y, -z'
  3	'-x, y+.5, -z+.5'
  4	'x, y, z'
loop_
_atom_type_symbol
_atom_type_oxidation_number
Gd3+	3
H1+	1
K1+	1
O2-	-2
P5+	5
loop_
_atom_site_label
_atom_site_type_symbol
_atom_site_symmetry_multiplicity
_atom_site_Wyckoff_symbol
_atom_site_fract_x
_atom_site_fract_y
_atom_site_fract_z
_atom_site_occupancy
_atom_site_attached_hydrogens
_atom_site_U_iso_or_equiv
Gd1 Gd3+ 4 e 0.74907(3) 0.381076(18) 0.169662(19) 1 0 0.02989(13) 
K1 K1+ 4 e 0.25248(14) 0.28407(14) 0.14981(14) 1 0 0.0497(3) 
P1 P5+ 4 e 0.60324(16) 0.10590(10) 0.33157(12) 1 0 0.0311(2) 
P2 P5+ 4 e 0.96621(14) 0.14905(11) 0.37294(11) 1 0 0.0303(2) 
O1 O2- 4 e 0.5740(5) 0.1430(3) 0.4723(4) 1 0 0.0360(6) 
O2 O2- 4 e 0.5032(4) -0.0088(3) 0.2841(3) 1 0 0.0367(7) 
O3 O2- 4 e 0.5818(4) 0.2146(3) 0.2355(3) 1 0 0.0372(7) 
O4 O2- 4 e 0.8032(5) 0.0592(3) 0.3290(3) 1 0 0.0354(6) 
O5 O2- 4 e 0.9410(5) 0.1896(4) 0.5139(3) 1 0 0.0433(8) 
O6 O2- 4 e 1.1251(4) 0.0715(3) 0.3596(4) 1 0 0.0439(8) 
O7 O2- 4 e 0.9582(4) 0.2601(3) 0.2795(4) 1 0 0.0394(7) 
O8 O2- 4 e 0.3734(7) 0.1234(4) -0.0567(6) 1 0 0.0556(12) 
O9 O2- 4 e 0.7850(7) 0.4460(5) 0.4054(4) 1 0 0.0555(10) 
H1 H1+ 4 e 0.438(9) 0.173(3) -0.110(5) 1 0 0.083 
H2 H1+ 4 e 0.278(3) 0.087(6) -0.101(5) 1 0 0.083 
H3 H1+ 4 e 0.667(2) 0.463(7) 0.437(3) 1 0 0.083 
H4 H1+ 4 e 0.850(8) 0.527(4) 0.409(3) 1 0 0.083 

loop_
_atom_site_aniso_label
_atom_site_aniso_type_symbol
_atom_site_aniso_U_11
_atom_site_aniso_U_22
_atom_site_aniso_U_33
_atom_site_aniso_U_12
_atom_site_aniso_U_13
_atom_site_aniso_U_23
Gd1 Gd3+ 0.03065(18) 0.02854(17) 0.03049(17) 0.00025(5) 0.00185(10) 
0.00085(6)
K1 K1+ 0.0365(6) 0.0540(7) 0.0578(7) 0.0023(4) -0.0023(5) -0.0013(5)
P1 P5+ 0.0328(6) 0.0296(5) 0.0307(5) -0.0018(4) 0.0004(4) 0.0007(4)
P2 P5+ 0.0294(5) 0.0298(5) 0.0318(5) 0.0011(4) 0.0022(4) 0.0015(4)
O1 O2- 0.0368(17) 0.0381(15) 0.0331(15) 0.0015(13) 0.0011(12) -0.0018(13)
O2 O2- 0.0382(16) 0.0335(16) 0.0385(16) -0.0058(12) 0.0041(13) -0.0010(12)
O3 O2- 0.0355(16) 0.0340(16) 0.0421(17) -0.0032(11) 0.0018(12) 0.0062(13)
O4 O2- 0.0347(16) 0.0297(14) 0.0418(16) 0.0002(12) 0.0009(11) -0.0002(12)
O5 O2- 0.0429(18) 0.055(2) 0.0322(15) -0.0138(15) 0.0062(12) -0.0024(14)
O6 O2- 0.0334(17) 0.0328(18) 0.066(2) 0.0054(13) 0.0021(15) -0.0011(16)
O7 O2- 0.0362(16) 0.0360(17) 0.0459(17) -0.0006(12) 0.0007(12) 0.0111(14)
O8 O2- 0.058(3) 0.053(3) 0.057(3) -0.0105(16) 0.015(2) -0.0056(17)
O9 O2- 0.065(3) 0.062(3) 0.0395(19) 0.010(2) 0.0002(17) -0.0074(18)
#End of data_415323-ICSD


