data_68549-ICSD
#?2014 by Fachinformationszentrum Karlsruhe, and the U.S. Secretary of 
#Commerce on behalf of the United States.  All rights reserved.
_database_code_ICSD                68549
_audit_creation_date               1991/07/10
_audit_update_record               2012/02/01
_chemical_name_systematic
;
Potassium Dioxovanadium Hydrogenphosphate(V)
;
_chemical_formula_structural       'K (V O2) (H P O4)'
_chemical_formula_sum              'H1 K1 O6 P1 V1'
_publ_section_title
;
Crystal structure of A (V O2) (H P O4) (A= N H4(+), K(+), Rb(+)) 
solved from X-ray powder diffraction
;
loop_
_citation_id
_citation_journal_abbrev
_citation_year
_citation_journal_volume
_citation_page_first
_citation_page_last
_citation_journal_id_ASTM
primary 'European Journal of Solid State Inorganic Chemistry'
 1988 25 599 607 EJSCE5
_publ_author_name
;
Amoros, P.;Beltran Porter, D.;LeBail, A.;Ferey, G.;Villeneuve, G.
;
_cell_length_a                     6.7550(3)
_cell_length_b                     9.1026(4)
_cell_length_c                     17.0808(6)
_cell_angle_alpha                  90.
_cell_angle_beta                   90.
_cell_angle_gamma                  90.
_cell_volume                       1050.27
_cell_formula_units_Z              8
_symmetry_space_group_name_H-M     'P b c a'
_symmetry_Int_Tables_number        61
_refine_ls_R_factor_all            .043
loop_
_symmetry_equiv_pos_site_id
_symmetry_equiv_pos_as_xyz
  1	'x+.5, y, -z+.5'
  2	'x, -y+.5, z+.5'
  3	'-x+.5, y+.5, z'
  4	'-x, -y, -z'
  5	'-x+.5, -y, z+.5'
  6	'-x, y+.5, -z+.5'
  7	'x+.5, -y+.5, -z'
  8	'x, y, z'
loop_
_atom_type_symbol
_atom_type_oxidation_number
H1+	1
K1+	1
O2-	-2
P5+	5
V5+	5
loop_
_atom_site_label
_atom_site_type_symbol
_atom_site_symmetry_multiplicity
_atom_site_Wyckoff_symbol
_atom_site_fract_x
_atom_site_fract_y
_atom_site_fract_z
_atom_site_occupancy
_atom_site_attached_hydrogens
_atom_site_B_iso_or_equiv
K1 K1+ 8 c 0.2766(3) 0.8124(2) 0.1005(1) 1. 0 1.66(4) 
V1 V5+ 8 c 0.0175(3) 0.9483(3) 0.7606(1) 1. 0 0.71(3) 
P1 P5+ 8 c 0.8074(4) 0.8876(3) 0.5959(2) 1. 0 1.55(5) 
O1 O2- 8 c 0.8803(5) 0.7432(5) 0.5552(3) 1. 0 2.40(5) 
O2 O2- 8 c 0.7606(6) 0.0034(6) 0.5289(2) 1. 0 2.40(5) 
O3 O2- 8 c 0.1076(7) 0.8657(5) 0.8561(3) 1. 0 2.40(5) 
O4 O2- 8 c 0.4824(7) 0.9537(5) 0.8496(2) 1. 0 2.40(5) 
O5 O2- 8 c -.0199(7) 0.8815(4) 0.2246(3) 1. 0 2.40(5) 
O6 O2- 8 c 0.2152(7) 0.1054(4) 0.2238(3) 1. 0 2.40(5) 
H1 H1+ 8 c 0.690 0.123 0.542 1. 0 0 

#End of data_68549-ICSD


