data_163179-ICSD
#?2014 by Fachinformationszentrum Karlsruhe, and the U.S. Secretary of 
#Commerce on behalf of the United States.  All rights reserved.
_database_code_ICSD                163179
_audit_creation_date               2009/08/01
_chemical_name_systematic          'Dilithium Tetraborate'
_chemical_formula_structural       'Li2 (B4 O7)'
_chemical_formula_sum              'B4 Li2 O7'
_publ_section_title
;
The crystal structure of Li2 B4 O7 compound in the temperature range 
10 - 290 K
;
loop_
_citation_id
_citation_journal_abbrev
_citation_year
_citation_journal_volume
_citation_page_first
_citation_page_last
_citation_journal_id_ASTM
primary 'Journal of Alloys and Compounds' 2009 475 869 873 JALCEU
_publ_author_name
;
Adamiv, V.T.;Burak, Ya.V.;Teslyuk, I.M.
;
_cell_length_a                     9.4595
_cell_length_b                     9.4595
_cell_length_c                     10.304
_cell_angle_alpha                  90.
_cell_angle_beta                   90.
_cell_angle_gamma                  90.
_cell_volume                       922.02
_cell_formula_units_Z              8
_symmetry_space_group_name_H-M     'I 41 c d'
_symmetry_Int_Tables_number        110
loop_
_symmetry_equiv_pos_site_id
_symmetry_equiv_pos_as_xyz
  1	'-y, -x+.5, z+.75'
  2	'-y, x+.5, z+.25'
  3	'x, -y, z+.5'
  4	'-x, -y, z'
  5	'y, x+.5, z+.75'
  6	'y, -x+.5, z+.25'
  7	'-x, y, z+.5'
  8	'x, y, z'
  9	'-y+.5, -x, z+.25'
 10	'-y+.5, x, z+.75'
 11	'x+.5, -y+.5, z'
 12	'-x+.5, -y+.5, z+.5'
 13	'y+.5, x, z+.25'
 14	'y+.5, -x, z+.75'
 15	'-x+.5, y+.5, z'
 16	'x+.5, y+.5, z+.5'
loop_
_atom_type_symbol
_atom_type_oxidation_number
B3+	3
Li1+	1
O2-	-2
loop_
_atom_site_label
_atom_site_type_symbol
_atom_site_symmetry_multiplicity
_atom_site_Wyckoff_symbol
_atom_site_fract_x
_atom_site_fract_y
_atom_site_fract_z
_atom_site_occupancy
_atom_site_attached_hydrogens
_atom_site_B_iso_or_equiv
Li1 Li1+ 16 b 0.145(1) 0.165(1) 0.851(1) 1. 0 1.89(9) 
B1 B3+ 16 b 0.167(1) 0.087(1) 0.200(1) 1. 0 1.14(6) 
B2 B3+ 16 b 0.944(1) 0.112(1) 0.083(1) 1. 0 0.64(6) 
O1 O2- 16 b 0.2806(2) 0.1375(2) 0.2672(3) 1. 0 0.38(4) 
O2 O2- 16 b 0.0636(1) 0.1784(2) 0.1580(2) 1. 0 0.47(4) 
O3 O2- 16 b 0.1582(2) -0.0579(2) 0.1831(6) 1. 0 0.45(3) 
O4 O2- 8 a 0 0 0 1. 0 0.54(8) 

#End of data_163179-ICSD


