data_409609-ICSD
#?2014 by Fachinformationszentrum Karlsruhe, and the U.S. Secretary of 
#Commerce on behalf of the United States.  All rights reserved.
_database_code_ICSD                409609
_audit_creation_date               2003/04/01
_chemical_name_systematic
;
Aluminium Catena-pentahydroxoheptaoxodiborodiphosphate(V) Hydrate
;
_chemical_formula_structural       'Al (B2 P2 O7 (O H)5) (H2 O)'
_chemical_formula_sum              'H7 Al1 B2 O13 P2'
_publ_section_title
;
Crystal structure of aluminum catena-(monohydrogenborate -
dihydrogenborate-bis(monohydrogenphosphate)) monohydrate, Al (B2 P2 
O7 (O H)5) * (H2 O)
;
loop_
_citation_id
_citation_journal_abbrev
_citation_year
_citation_journal_volume
_citation_page_first
_citation_page_last
_citation_journal_id_ASTM
primary 'Zeitschrift fuer Kristallographie - New Crystal Structures'
 2002 217 187 188 ZKNSFT
_publ_author_name                  'Kniep, R.;Koch, D.;Borrmann, H.'
_cell_length_a                     18.994(4)
_cell_length_b                     6.7040(13)
_cell_length_c                     6.9100(14)
_cell_angle_alpha                  90.
_cell_angle_beta                   99.03(3)
_cell_angle_gamma                  90.
_cell_volume                       868.99
_cell_formula_units_Z              4
_symmetry_space_group_name_H-M     'C 1 2/c 1'
_symmetry_Int_Tables_number        15
_refine_ls_R_factor_all            .055
loop_
_symmetry_equiv_pos_site_id
_symmetry_equiv_pos_as_xyz
  1	'x, -y, z+.5'
  2	'-x, -y, -z'
  3	'-x, y, -z+.5'
  4	'x, y, z'
  5	'x+.5, -y+.5, z+.5'
  6	'-x+.5, -y+.5, -z'
  7	'-x+.5, y+.5, -z+.5'
  8	'x+.5, y+.5, z'
loop_
_atom_type_symbol
_atom_type_oxidation_number
Al3+	3
B3+	3
H1+	1
O2-	-2
P5+	5
loop_
_atom_site_label
_atom_site_type_symbol
_atom_site_symmetry_multiplicity
_atom_site_Wyckoff_symbol
_atom_site_fract_x
_atom_site_fract_y
_atom_site_fract_z
_atom_site_occupancy
_atom_site_attached_hydrogens
_atom_site_U_iso_or_equiv
P1 P5+ 8 f 0.33442(5) 0.12772(16) 0.91156(14) 1. 0 0.0098(3) 
Al1 Al3+ 4 d 0.25 0.25 0.5 1. 0 0.0086(4) 
O1 O2- 8 f 0.45437(15) 0.3308(5) 1.3599(4) 1. 0 0.0146(6) 
O2 O2- 8 f 0.37655(15) 0.2542(4) 1.0768(4) 1. 0 0.0112(6) 
O3 O2- 8 f 0.31178(15) 0.2702(4) 0.7448(4) 1. 0 0.0113(6) 
O4 O2- 8 f 0.38985(15) -.0226(5) 0.8517(4) 1. 0 0.0137(6) 
O5 O2- 4 e 0.5 0.7806(8) 0.25 1. 0 0.0272(11) 
O6 O2- 8 f 0.17216(15) 0.1671(5) 0.6293(4) 1. 0 0.0117(6) 
O7 O2- 8 f 0.27451(15) 0.0145(4) 0.9800(4) 1. 0 0.0117(6) 
B1 B3+ 8 f 0.3849(2) 0.2349(7) 0.2904(6) 1. 0 0.0098(8) 
H1 H1+ 4 e 0.5 0.32(2) 0.25 1. 0 0.10(4) 
H2 H1+ 8 f 0.176(4) 0.059(13) 0.668(11) 1. 0 0.04(2) 
H3 H1+ 8 f 0.536(3) 0.87(1) 0.225(9) 1. 0 0.035(17) 
H4 H1+ 8 f 0.170(5) -.118(16) 0.610(13) 1. 0 0.11(3) 

loop_
_atom_site_aniso_label
_atom_site_aniso_type_symbol
_atom_site_aniso_U_11
_atom_site_aniso_U_22
_atom_site_aniso_U_33
_atom_site_aniso_U_12
_atom_site_aniso_U_13
_atom_site_aniso_U_23
P1 P5+ 0.0109(5) 0.0100(5) 0.0086(5) -0.0010(4) 0.0018(3) -0.0002(4)
Al1 Al3+ 0.0108(8) 0.0083(8) 0.0067(7) 0.0003(6) 0.0020(6) 0.0005(6)
O1 O2- 0.0136(13) 0.0183(15) 0.0120(13) -0.0031(12) 0.0027(10) 0.0001(12)
O2 O2- 0.0136(13) 0.0119(14) 0.0075(12) -0.0029(11) 0.0003(10) 0.0003(10)
O3 O2- 0.0140(13) 0.0136(14) 0.0059(12) -0.0019(12) -0.0002(10) -0.0012(11)
O4 O2- 0.0126(13) 0.0110(14) 0.0184(14) -0.0012(11) 0.0051(11) -0.0005(11)
O5 O2- 0.021(2) 0.028(3) 0.034(3) 0 0.009(2) 0
O6 O2- 0.0118(13) 0.0113(15) 0.0137(14) -0.0004(12) 0.0071(10) 0.0020(11)
O7 O2- 0.0156(14) 0.0081(14) 0.0122(13) -0.0009(11) 0.0051(11) 0.001(1)
B1 B3+ 0.0109(19) 0.010(2) 0.0083(19) 0.0010(16) 0.0012(15) 0.0004(15)
#End of data_409609-ICSD


