data_31307-ICSD
#?2014 by Fachinformationszentrum Karlsruhe, and the U.S. Secretary of 
#Commerce on behalf of the United States.  All rights reserved.
_database_code_ICSD                31307
_audit_creation_date               1983/12/31
_audit_update_record               2007/08/01
_chemical_name_systematic
;
Hydrogen Calcium Diiron Iron(III) Dioxide Disilicate
;
_chemical_formula_structural       'H Ca Fe3 O2 (Si2 O7)'
_chemical_formula_sum              'H1 Ca1 Fe3 O9 Si2'
_chemical_name_mineral             Ilvaite
_publ_section_title
;
X-ray study on polymorphism of ilvaite, H Ca (Fe2+)2 Fe3+ O2 (Si2 O7)
;
loop_
_citation_id
_citation_journal_abbrev
_citation_year
_citation_journal_volume
_citation_page_first
_citation_page_last
_citation_journal_id_ASTM
primary 'Zeitschrift fuer Kristallographie (1979-2010)' 1983 163 267 283 ZEKRDZ
_publ_author_name                  'Takeuchi, Y.;Haga, N.;Bunno, M.'
_cell_length_a                     13.013(3)
_cell_length_b                     8.8197(6)
_cell_length_c                     5.8424(5)
_cell_angle_alpha                  90.
_cell_angle_beta                   90.03(1)
_cell_angle_gamma                  90.
_cell_volume                       670.54
_cell_formula_units_Z              4
_symmetry_space_group_name_H-M     'P 1 21/a 1'
_symmetry_Int_Tables_number        14
_refine_ls_R_factor_all            .0351
loop_
_symmetry_equiv_pos_site_id
_symmetry_equiv_pos_as_xyz
  1	'x+.5, -y+.5, z'
  2	'-x, -y, -z'
  3	'-x+.5, y+.5, -z'
  4	'x, y, z'
loop_
_atom_type_symbol
_atom_type_oxidation_number
Ca2+	2
Fe2+	2
Fe2.44+	2.44
Fe2.56+	2.56
H1+	1
O2-	-2
Si4+	4
loop_
_atom_site_label
_atom_site_type_symbol
_atom_site_symmetry_multiplicity
_atom_site_Wyckoff_symbol
_atom_site_fract_x
_atom_site_fract_y
_atom_site_fract_z
_atom_site_occupancy
_atom_site_attached_hydrogens
_atom_site_B_iso_or_equiv
Ca1 Ca2+ 4 e 0.18721(2) 0.37036(4) 0.24959(6) 1. 0 0 
Fe1 Fe2.44+ 4 e 0.10977(2) 0.05063(3) 0.99240(4) 1. 0 0 
Fe2 Fe2.56+ 4 e 0.10980(2) 0.05086(3) 0.50752(4) 1. 0 0 
Fe3 Fe2+ 4 e 0.44035(2) 0.23975(3) 0.24973(4) 1. 0 0 
Si1 Si4+ 4 e 0.04073(3) 0.36862(5) 0.75046(8) 1. 0 0 
Si2 Si4+ 4 e 0.32047(3) 0.22720(5) 0.74975(8) 1. 0 0 
O1 O2- 4 e 0.4906(1) 0.4722(1) 0.2513(3) 1. 0 0 
O2 O2- 4 e 0.06353(9) 0.2723(1) 0.9839(2) 1. 0 0 
O3 O2- 4 e 0.06377(9) 0.2724(1) 0.5168(2) 1. 0 0 
O4 O2- 4 e 0.22271(9) 0.1091(1) 0.7496(2) 1. 0 0 
O5 O2- 4 e 0.32914(9) 0.3296(1) 0.9820(2) 1. 0 0 
O6 O2- 4 e 0.32928(9) 0.3301(1) 0.5183(2) 1. 0 0 
O7 O2- 4 e 0.41525(9) 0.1011(1) 0.7496(2) 1. 0 0 
O8 O2- 4 e 0.3978(1) 0.0243(1) 0.2505(3) 1. 0 0 
O9 O2- 4 e 0.20177(9) 0.1094(1) 0.2502(2) 1. 0 0 
H1 H1+ 4 e 0.236(4) 0.081(7) 0.26(1) 1. 0 1.642 

#End of data_31307-ICSD


