data_79353-ICSD
#?2014 by Fachinformationszentrum Karlsruhe, and the U.S. Secretary of 
#Commerce on behalf of the United States.  All rights reserved.
_database_code_ICSD                79353
_audit_creation_date               1996/10/14
_audit_update_record               1999/01/19
_chemical_name_systematic          'Calcium Iron Dititanate'
_chemical_formula_structural       'Ca Fe (Ti2 O6)'
_chemical_formula_sum              'Ca1 Fe1 O6 Ti2'
_chemical_name_mineral             Perovskite-(Ca,Fe)
_publ_section_title
;
High-pressure synthesis and crystal structure of Ca Fe Ti2 O6, a new 
perovskite structure type
;
loop_
_citation_id
_citation_journal_abbrev
_citation_year
_citation_journal_volume
_citation_page_first
_citation_page_last
_citation_journal_id_ASTM
primary 'Journal of Solid State Chemistry' 1995 114 277 281 JSSCBI
_publ_author_name                  'Leinenweber, K.;Parise, K.'
_cell_length_a                     7.5157(2)
_cell_length_b                     7.5157(2)
_cell_length_c                     7.5548(2)
_cell_angle_alpha                  90.
_cell_angle_beta                   90.
_cell_angle_gamma                  90.
_cell_volume                       426.74
_cell_formula_units_Z              4
_symmetry_space_group_name_H-M     'P 42/n m c Z'
_symmetry_Int_Tables_number        137
_refine_ls_R_factor_all            .038
loop_
_symmetry_equiv_pos_site_id
_symmetry_equiv_pos_as_xyz
  1	'y+.5, x+.5, -z+.5'
  2	'-y, x+.5, -z+.5'
  3	'y+.5, -x, -z+.5'
  4	'-y, -x, -z+.5'
  5	'x+.5, y+.5, -z'
  6	'-x, y+.5, -z'
  7	'x+.5, -y, -z'
  8	'-x, -y, -z'
  9	'-y+.5, -x+.5, z+.5'
 10	'y, -x+.5, z+.5'
 11	'-y+.5, x, z+.5'
 12	'y, x, z+.5'
 13	'-x+.5, -y+.5, z'
 14	'x, -y+.5, z'
 15	'-x+.5, y, z'
 16	'x, y, z'
loop_
_atom_type_symbol
_atom_type_oxidation_number
Ca2+	2
Fe2+	2
O2-	-2
Ti4+	4
loop_
_atom_site_label
_atom_site_type_symbol
_atom_site_symmetry_multiplicity
_atom_site_Wyckoff_symbol
_atom_site_fract_x
_atom_site_fract_y
_atom_site_fract_z
_atom_site_occupancy
_atom_site_attached_hydrogens
Fe1 Fe2+ 2 b 0.75 0.25 0.25 1. 0 
Fe2 Fe2+ 2 a 0.75 0.25 0.75 1. 0 
Ti1 Ti4+ 8 e 0 0 0 1. 0 
Ca1 Ca2+ 4 d 0.25 0.25 0.2246(1) 1. 0 
O1 O2- 8 g 0.4457(3) 0.25 0.4638(2) 1. 0 
O2 O2- 8 g 0.25 0.5437(3) 0.5657(3) 1. 0 
O3 O2- 8 f 0.4473(2) -.0527(2) 0.25 1. 0 

loop_
_atom_site_aniso_label
_atom_site_aniso_type_symbol
_atom_site_aniso_U_11
_atom_site_aniso_U_22
_atom_site_aniso_U_33
_atom_site_aniso_U_12
_atom_site_aniso_U_13
_atom_site_aniso_U_23
Fe1 Fe2+ 0.0119(3) 0.0119 0.0084(4) 0 0 0
Fe2 Fe2+ 0.0086(3) 0.0086(3) 0.0609(8) 0 0 0
Ti1 Ti4+ 0.0061(3) 0.0063(3) 0.0077(2) -.0009(2) -.0002(2) -.0001(2)
Ca1 Ca2+ 0.0075(4) 0.0146(4) 0.0064(3) 0 0 0
O1 O2- 0.0113(10) 0.0046(9) 0.0111(8) 0 -.0010(8) 0
O2 O2- 0.0044(9) 0.011(1) 0.0126(8) 0 0 -.0001(8)
O3 O2- 0.0105(6) 0.0105(6) 0.0058(7) 0.0006(8) 0.0002(5) -.0002
#End of data_79353-ICSD


