data_260041-ICSD
#?2014 by Fachinformationszentrum Karlsruhe, and the U.S. Secretary of 
#Commerce on behalf of the United States.  All rights reserved.
_database_code_ICSD                260041
_audit_creation_date               2009/02/01
_audit_update_record               2013/08/01
_chemical_name_systematic          'Calcium Ditellurate(IV)'
_chemical_formula_structural       'Ca (Te2 O5)'
_chemical_formula_sum              'Ca1 O5 Te2'
_publ_section_title
;
A non-twinned polymorph of Ca Te2 O5 from a hydrothermally grown 
crystal
;
loop_
_citation_id
_citation_journal_abbrev
_citation_year
_citation_journal_volume
_citation_journal_issue
_citation_page_first
_citation_page_last
_citation_journal_id_ASTM
primary 'Acta Crystallographica, Section C: Crystal Structure Communications'
 2008 64 9 i79 i81 ACSCEE
_publ_author_name                  'Weil, M.;Stoeger, B.'
_cell_length_a                     9.382(2)
_cell_length_b                     5.7095(14)
_cell_length_c                     11.132(3)
_cell_angle_alpha                  90.00
_cell_angle_beta                   115.109(4)
_cell_angle_gamma                  90.00
_cell_volume                       539.95
_cell_formula_units_Z              4
_symmetry_space_group_name_H-M     'P 1 21/c 1'
_symmetry_Int_Tables_number        14
_refine_ls_R_factor_all            .0355
loop_
_symmetry_equiv_pos_site_id
_symmetry_equiv_pos_as_xyz
  1	'x, -y+.5, z+.5'
  2	'-x, -y, -z'
  3	'-x, y+.5, -z+.5'
  4	'x, y, z'
loop_
_atom_type_symbol
_atom_type_oxidation_number
Ca2+	2
O2-	-2
Te4+	4
loop_
_atom_site_label
_atom_site_type_symbol
_atom_site_symmetry_multiplicity
_atom_site_Wyckoff_symbol
_atom_site_fract_x
_atom_site_fract_y
_atom_site_fract_z
_atom_site_occupancy
_atom_site_attached_hydrogens
_atom_site_U_iso_or_equiv
Ca1 Ca2+ 4 e 0.01913(15) 0.7969(2) 0.63901(12) 1 0 0.0138(2) 
Te1 Te4+ 4 e 0.26400(5) 0.32196(7) 0.72052(4) 1 0 0.01340(12) 
Te2 Te4+ 4 e 0.34909(5) 0.64469(7) 0.49039(4) 1 0 0.01257(12) 
O1 O2- 4 e 0.1455(5) 0.4895(8) 0.7882(4) 1 0 0.0150(9) 
O2 O2- 4 e 0.1183(6) 0.1442(8) 0.5884(4) 1 0 0.0199(10) 
O3 O2- 4 e 0.2264(6) 0.5903(8) 0.5982(5) 1 0 0.0185(9) 
O4 O2- 4 e 0.2030(5) 0.0176(8) 0.8467(4) 1 0 0.0176(9) 
O5 O2- 4 e 0.4774(6) 0.3938(9) 0.5903(5) 1 0 0.0182(9) 

loop_
_atom_site_aniso_label
_atom_site_aniso_type_symbol
_atom_site_aniso_U_11
_atom_site_aniso_U_22
_atom_site_aniso_U_33
_atom_site_aniso_U_12
_atom_site_aniso_U_13
_atom_site_aniso_U_23
Ca1 Ca2+ 0.0167(6) 0.0150(6) 0.0105(5) 0.0028(5) 0.0064(5) 0.0016(4)
Te1 Te4+ 0.0113(2) 0.0169(2) 0.0105(2) 0.00192(14) 0.00315(15) -0.00057(13)
Te2 Te4+ 0.0117(2) 0.0147(2) 0.00964(19) -0.00146(14) 0.00295(14) 
-0.00065(13)
O1 O2- 0.017(2) 0.017(2) 0.015(2) 0.0026(17) 0.0105(18) 0.0043(17)
O2 O2- 0.027(3) 0.017(2) 0.010(2) -0.0062(19) 0.0022(19) -0.0026(16)
O3 O2- 0.018(2) 0.023(2) 0.018(2) 0.0068(19) 0.0105(19) 0.0060(18)
O4 O2- 0.016(2) 0.021(2) 0.011(2) 0.0002(18) 0.0011(17) 0.0042(17)
O5 O2- 0.017(2) 0.025(2) 0.015(2) 0.0067(19) 0.0090(18) 0.0105(18)
#End of data_260041-ICSD


