data_280251-ICSD
#?2014 by Fachinformationszentrum Karlsruhe, and the U.S. Secretary of 
#Commerce on behalf of the United States.  All rights reserved.
_database_code_ICSD                280251
_audit_creation_date               2002/04/01
_chemical_name_systematic
;
Tetracalcium Germanium Tetranitride
;
_chemical_formula_structural       'Ca4 Ge N4'
_chemical_formula_sum              'Ca4 Ge1 N4'
_publ_section_title
;
New calcium germanium nitrides: Ca2 Ge N2, Ca4 Ge N4, and Ca5 Ge2 N6
;
loop_
_citation_id
_citation_journal_abbrev
_citation_year
_citation_journal_volume
_citation_page_first
_citation_page_last
_citation_journal_id_ASTM
primary 'Inorganic Chemistry' 2000 39 2631 2634 INOCAJ
_publ_author_name                  'Clarke, S.J.;DiSalvo, F.J.'
_cell_length_a                     9.2823(8)
_cell_length_b                     6.0429(5)
_cell_length_c                     11.1612(9)
_cell_angle_alpha                  90.
_cell_angle_beta                   116.498(6)
_cell_angle_gamma                  90.
_cell_volume                       560.29
_cell_formula_units_Z              4
_symmetry_space_group_name_H-M     'P 1 21/c 1'
_symmetry_Int_Tables_number        14
_refine_ls_R_factor_all            .0351
loop_
_symmetry_equiv_pos_site_id
_symmetry_equiv_pos_as_xyz
  1	'x, -y+.5, z+.5'
  2	'-x, -y, -z'
  3	'-x, y+.5, -z+.5'
  4	'x, y, z'
loop_
_atom_type_symbol
_atom_type_oxidation_number
Ca2+	2
Ge4+	4
N3-	-3
loop_
_atom_site_label
_atom_site_type_symbol
_atom_site_symmetry_multiplicity
_atom_site_Wyckoff_symbol
_atom_site_fract_x
_atom_site_fract_y
_atom_site_fract_z
_atom_site_occupancy
_atom_site_attached_hydrogens
Ge1 Ge4+ 4 e 0.26924(3) 0.35885(5) 0.05185(3) 1. 0 
Ca1 Ca2+ 4 e 0.07798(6) 0.75612(9) 0.04371(6) 1. 0 
Ca2 Ca2+ 4 e 0.14675(7) 0.34522(9) 0.27039(6) 1. 0 
Ca3 Ca2+ 4 e 0.54803(7) 0.42246(9) 0.38031(6) 1. 0 
Ca4 Ca2+ 4 e 0.65326(7) 0.4167(1) 0.15562(6) 1. 0 
N1 N3- 4 e 0.0959(3) 0.0186(4) 0.3902(2) 1. 0 
N2 N3- 4 e 0.1976(3) 0.1117(4) 0.1146(2) 1. 0 
N3 N3- 4 e 0.3368(3) 0.5841(4) 0.1854(3) 1. 0 
N4 N3- 4 e 0.4111(3) 0.2468(4) 0.4852(2) 1. 0 

loop_
_atom_site_aniso_label
_atom_site_aniso_type_symbol
_atom_site_aniso_U_11
_atom_site_aniso_U_22
_atom_site_aniso_U_33
_atom_site_aniso_U_12
_atom_site_aniso_U_13
_atom_site_aniso_U_23
Ge1 Ge4+ 0.0058(2) 0.0047(2) 0.0051(2) 0.00037(9) 0.00179(12) 0.00003(10)
Ca1 Ca2+ 0.0072(3) 0.0058(2) 0.0082(2) -.0003(2) 0.0024(2) -.0001(2)
Ca2 Ca2+ 0.0090(3) 0.0085(2) 0.0071(3) 0.0010(2) 0.0021(2) 0.0012(2)
Ca3 Ca2+ 0.0080(2) 0.0064(2) 0.0068(2) 0.0000(2) 0.0032(2) 0.0002(2)
Ca4 Ca2+ 0.0125(3) 0.0078(3) 0.0075(3) -.0012(2) 0.0027(2) 0.0000(2)
N1 N3- 0.0087(10) 0.008(1) 0.0067(10) -.0027(9) 0.0014(8) -.0011(9)
N2 N3- 0.0089(11) 0.0053(10) 0.0068(10) -.0003(8) 0.0018(9) 0.0009(8)
N3 N3- 0.0094(10) 0.0066(10) 0.0079(10) -.0001(9) 0.0002(9) -.0025(9)
N4 N3- 0.0076(10) 0.0081(10) 0.0076(10) -.0012(8) 0.0028(9) 0.0008(9)
#End of data_280251-ICSD


