data_165326-ICSD
#?2014 by Fachinformationszentrum Karlsruhe, and the U.S. Secretary of 
#Commerce on behalf of the United States.  All rights reserved.
_database_code_ICSD                165326
_audit_creation_date               2010/02/01
_audit_update_record               2011/02/01
_chemical_name_systematic          'Lithium Molybdate(III)'
_chemical_formula_structural       'Li (Mo O2)'
_chemical_formula_sum              'Li1 Mo1 O2'
_publ_section_title
;
The true structure and metal-metal-bonded framework of Li Mo(III) O2 
determined from total neutron scattering
;
loop_
_citation_id
_citation_journal_abbrev
_citation_year
_citation_journal_volume
_citation_journal_issue
_citation_page_first
_citation_page_last
_citation_journal_id_ASTM
primary 'Inorganic Chemistry' 1997 36 9 1749 1753 INOCAJ
_publ_author_name
;
Hibble, S.J.;Fawcett, I.D.;Hannon, A.C.
;
_cell_length_a                     10.543(6)
_cell_length_b                     2.8626(5)
_cell_length_c                     10.899(6)
_cell_angle_alpha                  90.
_cell_angle_beta                   153.29(1)
_cell_angle_gamma                  90.
_cell_volume                       147.85
_cell_formula_units_Z              4
_symmetry_space_group_name_H-M     'C 1 2/m 1'
_symmetry_Int_Tables_number        12
_refine_ls_R_factor_all            .0035
loop_
_symmetry_equiv_pos_site_id
_symmetry_equiv_pos_as_xyz
  1	'-x, y, -z'
  2	'-x, -y, -z'
  3	'x, -y, z'
  4	'x, y, z'
  5	'-x+.5, y+.5, -z'
  6	'-x+.5, -y+.5, -z'
  7	'x+.5, -y+.5, z'
  8	'x+.5, y+.5, z'
loop_
_atom_type_symbol
_atom_type_oxidation_number
Li1+	1
Mo3+	3
O2-	-2
loop_
_atom_site_label
_atom_site_type_symbol
_atom_site_symmetry_multiplicity
_atom_site_Wyckoff_symbol
_atom_site_fract_x
_atom_site_fract_y
_atom_site_fract_z
_atom_site_occupancy
_atom_site_attached_hydrogens
_atom_site_B_iso_or_equiv
Mo1 Mo3+ 4 i 0.4701(9) 0 0.2210(9) 1. 0 0.93(5) 
O1 O2- 4 i 0.248(1) 0 0.867(1) 1. 0 0.45(2) 
O2 O2- 4 i 0.755(1) 0 0.615(1) 1. 0 0.45(2) 
Li1 Li1+ 2 c 0.5 0.5 0.5 1. 0 1.8(1) 
Li2 Li1+ 2 a 0 0 0 1. 0 1.8(1) 

#End of data_165326-ICSD


