data_155155-ICSD
#?2014 by Fachinformationszentrum Karlsruhe, and the U.S. Secretary of 
#Commerce on behalf of the United States.  All rights reserved.
_database_code_ICSD                155155
_audit_creation_date               2007/04/01
_audit_update_record               2008/02/01
_chemical_name_systematic          'Potassium Lutetium Bis(tungstate)'
_chemical_formula_structural       'K Lu (W O4)2'
_chemical_formula_sum              'K1 Lu1 O8 W2'
_publ_section_title
;
Growth and structure of monoclinic K Lu (W O4)2 crystals
;
loop_
_citation_id
_citation_journal_abbrev
_citation_year
_citation_journal_volume
_citation_page_first
_citation_page_last
_citation_journal_id_ASTM
primary 'Journal of Crystal Growth' 2006 292 373 376 JCRGAE
_publ_author_name
;
Zhang Jianxiu;Wang Ji Yang;Wang Kunpeng;Yu Wen Tao;Zhang Huai 
Jin;Wang Zhengping;Wang Xuping;Ba Mingfang
;
_cell_length_a                     10.5915(16)
_cell_length_b                     10.2446(16)
_cell_length_c                     7.5003(11)
_cell_angle_alpha                  90.
_cell_angle_beta                   130.732(10)
_cell_angle_gamma                  90.
_cell_volume                       616.69
_cell_formula_units_Z              4
_symmetry_space_group_name_H-M     'C 1 2/c 1'
_symmetry_Int_Tables_number        15
_refine_ls_R_factor_all            .067
loop_
_symmetry_equiv_pos_site_id
_symmetry_equiv_pos_as_xyz
  1	'x, -y, z+.5'
  2	'-x, -y, -z'
  3	'-x, y, -z+.5'
  4	'x, y, z'
  5	'x+.5, -y+.5, z+.5'
  6	'-x+.5, -y+.5, -z'
  7	'-x+.5, y+.5, -z+.5'
  8	'x+.5, y+.5, z'
loop_
_atom_type_symbol
_atom_type_oxidation_number
K1+	1
Lu3+	3
O2-	-2
W6+	6
loop_
_atom_site_label
_atom_site_type_symbol
_atom_site_symmetry_multiplicity
_atom_site_Wyckoff_symbol
_atom_site_fract_x
_atom_site_fract_y
_atom_site_fract_z
_atom_site_occupancy
_atom_site_attached_hydrogens
_atom_site_U_iso_or_equiv
W1 W6+ 8 f 0.19714(6) 0.50009(4) 0.23557(9) 1. 0 0.0045(3) 
Lu1 Lu3+ 4 e 0 0.22818(8) 0.250 1. 0 0.0057(4) 
K1 K1+ 4 e 0.5 0.2990(6) 0.250 1. 0 0.0127(9) 
O1 O2- 8 f 0.0233(11) 0.6106(10) -0.0314(16) 1. 0 0.0058(17) 
O2 O2- 8 f 0.2788(13) 0.3412(11) 0.3782(16) 1. 0 0.011(2) 
O3 O2- 8 f 0.1901(12) 0.5768(10) 0.4421(16) 1. 0 0.0069(17) 
O4 O2- 8 f 0.3734(12) 0.5830(12) 0.3109(17) 1. 0 0.0012(2) 

#End of data_155155-ICSD


