data_50724-ICSD
#?2014 by Fachinformationszentrum Karlsruhe, and the U.S. Secretary of 
#Commerce on behalf of the United States.  All rights reserved.
_database_code_ICSD                50724
_audit_creation_date               2000/07/15
_chemical_name_systematic
;
Sodium Tetranickel Tris(phosphate(V))
;
_chemical_formula_structural       'Na Ni4 (P O4)3'
_chemical_formula_sum              'Na1 Ni4 O12 P3'
_publ_section_title
;
Structure characterization and magnetic behavior of Na Ni4 (P O4)3 
and K Mn4 (P O4)3
;
loop_
_citation_id
_citation_journal_abbrev
_citation_year
_citation_journal_volume
_citation_page_first
_citation_page_last
_citation_journal_id_ASTM
primary 'Journal of Solid State Chemistry' 1999 144 169 174 JSSCBI
_publ_author_name
;
Daidouh, A.;Martinez, J.L.;Pico, C.;Veiga, M.L.
;
_cell_length_a                     6.148(6)
_cell_length_b                     16.2100(10)
_cell_length_c                     9.479(4)
_cell_angle_alpha                  90.
_cell_angle_beta                   90.
_cell_angle_gamma                  90.
_cell_volume                       944.67
_cell_formula_units_Z              4
_symmetry_space_group_name_H-M     'P m n n'
_symmetry_Int_Tables_number        58
_refine_ls_R_factor_all            .0652
loop_
_symmetry_equiv_pos_site_id
_symmetry_equiv_pos_as_xyz
  1	'x+.5, -y+.5, z+.5'
  2	'x+.5, y+.5, -z+.5'
  3	'-x, y, z'
  4	'-x, -y, -z'
  5	'-x+.5, y+.5, -z+.5'
  6	'-x+.5, -y+.5, z+.5'
  7	'x, -y, -z'
  8	'x, y, z'
loop_
_atom_type_symbol
_atom_type_oxidation_number
Na1+	1
Ni2+	2
O2-	-2
P5+	5
loop_
_atom_site_label
_atom_site_type_symbol
_atom_site_symmetry_multiplicity
_atom_site_Wyckoff_symbol
_atom_site_fract_x
_atom_site_fract_y
_atom_site_fract_z
_atom_site_occupancy
_atom_site_attached_hydrogens
Na1 Na1+ 4 g 0.5 0.030(7) 0.797(9) 1. 0 
Ni1 Ni2+ 4 g 0 0.092(8) 0.535(2) 1. 0 
Ni2 Ni2+ 4 g 0 0.141(5) 0.984(7) 1. 0 
Ni3 Ni2+ 8 h 0.251(7) 0.204(5) 0.248(5) 1. 0 
P1 P5+ 4 g 0.5 0.161(1) 0.542(8) 1. 0 
P2 P5+ 4 g 0.5 0.219(7) 0.952(4) 1. 0 
P3 P5+ 4 g 0 0.034(2) 0.205(7) 1. 0 
O1 O2- 4 g 0.5 0.174(1) 0.383(8) 1. 0 
O2 O2- 4 g 0.5 0.228(8) 0.116(8) 1. 0 
O3 O2- 8 h 0.298(4) 0.114(2) 0.591(4) 1. 0 
O4 O2- 4 g 0 0.187(4) 0.390(5) 1. 0 
O5 O2- 4 g 0.5 0.248(9) 0.606(8) 1. 0 
O6 O2- 4 g 0 0.045(8) 0.867(2) 1. 0 
O7 O2- 8 h 0.201(1) 0.087(6) 0.158(6) 1. 0 
O8 O2- 8 h 0.710(4) 0.177(8) 0.895(8) 1. 0 
O9 O2- 4 g 0 0.019(4) 0.365(5) 1. 0 

#End of data_50724-ICSD


