data_656449-ICSD
#?2014 by Fachinformationszentrum Karlsruhe, and the U.S. Secretary of 
#Commerce on behalf of the United States.  All rights reserved.
_database_code_ICSD                656449
_audit_creation_date               2013/08/01
_chemical_name_systematic          'Calcium Fluoride (1/2)'
_chemical_formula_structural       'Ca F2'
_chemical_formula_sum              'Ca1 F2'
_publ_section_title
;
X-ray diffraction investigations of Ca F2 at high pressure
;
loop_
_citation_id
_citation_journal_abbrev
_citation_year
_citation_journal_volume
_citation_page_first
_citation_page_last
_citation_journal_id_ASTM
primary 'Journal of Applied Crystallography' 1992 25 578 581 JACGAR
_publ_author_name
;
Gerward, L.;Olsen, J.S.;Streenstrup, S.;Malinovskii, M.;Asbrink, 
S.;Waskowska, A.
;
_cell_length_a                     5.61(6)
_cell_length_b                     3.45(2)
_cell_length_c                     6.96(7)
_cell_angle_alpha                  90.0
_cell_angle_beta                   90.0
_cell_angle_gamma                  90.0
_cell_volume                       134.71
_cell_formula_units_Z              4
_symmetry_space_group_name_H-M     'P n m a'
_symmetry_Int_Tables_number        62
loop_
_symmetry_equiv_pos_site_id
_symmetry_equiv_pos_as_xyz
  1	'x+.5, y, -z+.5'
  2	'x, -y+.5, z'
  3	'-x+.5, y+.5, z+.5'
  4	'-x, -y, -z'
  5	'-x+.5, -y, z+.5'
  6	'-x, y+.5, -z'
  7	'x+.5, -y+.5, -z+.5'
  8	'x, y, z'
loop_
_atom_type_symbol
_atom_type_oxidation_number
Ca2+	2
F1-	-1
loop_
_atom_site_label
_atom_site_type_symbol
_atom_site_symmetry_multiplicity
_atom_site_Wyckoff_symbol
_atom_site_fract_x
_atom_site_fract_y
_atom_site_fract_z
_atom_site_occupancy
_atom_site_attached_hydrogens
Ca1 Ca2+ 4 c 0.261 0.25 0.096 1. 0 
F1 F1- 4 c 0.858 0.25 0.074 1. 0 
F2 F1- 4 c 0.477 0.25 0.838 1. 0 

#End of data_656449-ICSD


