data_29266-ICSD
#?2014 by Fachinformationszentrum Karlsruhe, and the U.S. Secretary of 
#Commerce on behalf of the United States.  All rights reserved.
_database_code_ICSD                29266
_audit_creation_date               1984/10/31
_audit_update_record               2008/08/01
_chemical_name_systematic
;
Potassium Vanadium Sulfide (0.5/5/8)
;
_chemical_formula_structural       'K0.5 V5 S8'
_chemical_formula_sum              'K0.5 S8 V5'
_publ_section_title
;
The preparation, crystal structures and properties of the potassium 
vanadium sulfides Kx V5 S8 (x= 0.5-0.7)
;
loop_
_citation_id
_citation_journal_abbrev
_citation_year
_citation_journal_volume
_citation_page_first
_citation_page_last
_citation_journal_id_ASTM
primary 'Materials Research Bulletin' 1984 19 555 562 MRBUAC
_publ_author_name
;
Bronsema, K.D.;Jansen, R.;Wiegers, G.A.
;
_cell_length_a                     17.462(4)
_cell_length_b                     6.556(2)
_cell_length_c                     8.4595(9)
_cell_angle_alpha                  90.
_cell_angle_beta                   103.86(1)
_cell_angle_gamma                  90.
_cell_volume                       940.25
_cell_formula_units_Z              4
_symmetry_space_group_name_H-M     'P 1 2 1'
_symmetry_Int_Tables_number        3
_refine_ls_R_factor_all            .062
loop_
_symmetry_equiv_pos_site_id
_symmetry_equiv_pos_as_xyz
  1	'-x, y, -z'
  2	'x, y, z'
loop_
_atom_type_symbol
_atom_type_oxidation_number
K1+	1
S2-	-2
V3.1+	3.1
loop_
_atom_site_label
_atom_site_type_symbol
_atom_site_symmetry_multiplicity
_atom_site_Wyckoff_symbol
_atom_site_fract_x
_atom_site_fract_y
_atom_site_fract_z
_atom_site_occupancy
_atom_site_attached_hydrogens
_atom_site_U_iso_or_equiv
K1 K1+ 1 a 0 0 0 1. 0 0.007(1) 
K2 K1+ 1 c 0.5 0.252(3) 0 1. 0 0.030(2) 
S1 S2- 2 e 0.1620(4) 0.267(2) 0.0040(8) 1. 0 0.011(1) 
S2 S2- 2 e 0.1615(3) 0.764(2) 0.0048(7) 1. 0 0.009(1) 
S3 S2- 2 e 0.6606(3) 0.016(2) 0.0027(7) 1. 0 0.010(1) 
S4 S2- 2 e 0.6607(3) 0.515(2) 0.0035(7) 1. 0 0.010(1) 
S5 S2- 2 e 0.2597(3) 0.013(2) 0.3416(7) 1. 0 0.009(1) 
S6 S2- 2 e 0.2599(3) 0.514(2) 0.3425(7) 1. 0 0.007(1) 
S7 S2- 2 e 0.7599(3) 0.763(2) 0.3409(7) 1. 0 0.008(1) 
S8 S2- 2 e 0.7600(4) 0.264(2) 0.3419(8) 1. 0 0.010(1) 
S9 S2- 2 e 0.0854(3) 0.266(2) 0.3155(7) 1. 0 0.009(1) 
S10 S2- 2 e 0.0850(3) 0.760(2) 0.3143(8) 1. 0 0.010(1) 
S11 S2- 2 e 0.5842(3) 0.010(2) 0.3137(7) 1. 0 0.009(1) 
S12 S2- 2 e 0.5844(3) 0.514(2) 0.3142(8) 1. 0 0.010(1) 
S13 S2- 2 e 0.4261(3) 0.264(2) 0.3238(7) 1. 0 0.008(1) 
S14 S2- 2 e 0.4250(3) 0.763(2) 0.3177(7) 1. 0 0.010(1) 
S15 S2- 2 e 0.9274(3) 0.014(2) 0.3282(7) 1. 0 0.009(1) 
S16 S2- 2 e 0.9259(3) 0.514(2) 0.3221(7) 1. 0 0.009(1) 
V1 V3.1+ 2 e 0.2908(2) 0.264(1) 0.1438(5) 1. 0 0.0092(8) 
V2 V3.1+ 2 e 0.2906(2) 0.764(1) 0.1435(5) 1. 0 0.0091(8) 
V3 V3.1+ 2 e 0.7909(2) 0.013(1) 0.1457(5) 1. 0 0.0092(8) 
V4 V3.1+ 2 e 0.7906(2) 0.515(1) 0.1448(5) 1. 0 0.0098(8) 
V5 V3.1+ 2 e 0.1487(2) 0.014(1) 0.4889(5) 1. 0 0.0102(8) 
V6 V3.1+ 2 e 0.1490(2) 0.516(1) 0.4909(5) 1. 0 0.0090(8) 
V7 V3.1+ 2 e 0.6498(2) 0.264(1) 0.4903(5) 1. 0 0.0093(8) 
V8 V3.1+ 2 e 0.6496(2) 0.766(1) 0.4908(5) 1. 0 0.0092(8) 
V9 V3.1+ 1 b 0 0.282(2) 0.5 1. 0 0.008(1) 
V10 V3.1+ 1 b 0 0.758(2) 0.5 1. 0 0.009(1) 
V11 V3.1+ 1 d 0.5 0.998(2) 0.5 1. 0 0.009(1) 
V12 V3.1+ 1 d 0.5 0.521(2) 0.5 1. 0 0.014(1) 

#End of data_29266-ICSD


