data_95958-ICSD
#?2014 by Fachinformationszentrum Karlsruhe, and the U.S. Secretary of 
#Commerce on behalf of the United States.  All rights reserved.
_database_code_ICSD                95958
_audit_creation_date               2004/04/01
_chemical_name_systematic          'Disodium Zincodiphosphate(V)'
_chemical_formula_structural       'Na2 (Zn P2 O7)'
_chemical_formula_sum              'Na2 O7 P2 Zn1'
_publ_section_title
;
Crystal structures of Na2 Zn P2 O7, K2 Zn P2 O7 and Li K Zn P2 O7 
phases in the (M2 O) - (Zn O) - (P2 O5) glass-forming system (M = Li, 
Na and K)
;
loop_
_citation_id
_citation_journal_abbrev
_citation_year
_citation_journal_volume
_citation_journal_issue
_citation_page_first
_citation_page_last
_citation_journal_id_ASTM
primary 'Glass Physics and Chemistry' 2002 28 5 317 321 GPHCEE
_publ_author_name
;
Shepelev, Yu.F.;Petrova, M.A.;Novikova, A.S.;Lapshin, A.E.
;
_cell_length_a                     7.687(5)
_cell_length_b                     7.687(5)
_cell_length_c                     10.275(7)
_cell_angle_alpha                  90
_cell_angle_beta                   90
_cell_angle_gamma                  90
_cell_volume                       607.15
_cell_formula_units_Z              4
_symmetry_space_group_name_H-M     'P 42/m n m'
_symmetry_Int_Tables_number        136
_refine_ls_R_factor_all            .081
loop_
_symmetry_equiv_pos_site_id
_symmetry_equiv_pos_as_xyz
  1	'-y+.5, x+.5, -z+.5'
  2	'y+.5, -x+.5, -z+.5'
  3	'y, x, -z'
  4	'-y, -x, -z'
  5	'y+.5, -x+.5, z+.5'
  6	'-y+.5, x+.5, z+.5'
  7	'-y, -x, z'
  8	'y, x, z'
  9	'x+.5, -y+.5, -z+.5'
 10	'-x+.5, y+.5, -z+.5'
 11	'x, y, -z'
 12	'-x, -y, -z'
 13	'-x+.5, y+.5, z+.5'
 14	'x+.5, -y+.5, z+.5'
 15	'-x, -y, z'
 16	'x, y, z'
loop_
_atom_type_symbol
_atom_type_oxidation_number
Na1+	1
O2-	-2
P5+	5
Zn2+	2
loop_
_atom_site_label
_atom_site_type_symbol
_atom_site_symmetry_multiplicity
_atom_site_Wyckoff_symbol
_atom_site_fract_x
_atom_site_fract_y
_atom_site_fract_z
_atom_site_occupancy
_atom_site_attached_hydrogens
_atom_site_B_iso_or_equiv
Na1 Na1+ 4 f 0.8002(6) 0.1998(6) 0.5 1. 0 2.4(1) 
Na2 Na1+ 4 g 0.8524(7) 0.1476(7) 0 1. 0 2.7(1) 
Zn1 Zn2+ 4 d 0.5 0 0.250 1. 0 3.1(1) 
P1 P5+ 8 j 0.1371(3) 0.1371(3) 0.2857(3) 1. 0 2.17(6) 
O1 O2- 4 e 0 0 0.3444(18) 1. 0 5.6(5) 
O2 O2- 8 j 0.1379(7) 0.1379(7) 0.1418(9) 1. 0 2.3(2) 
O3 O2- 16 k 0.3028(11) 0.0829(11) 0.3515(7) 1. 0 2.7(1) 

#End of data_95958-ICSD


