data_4202-ICSD
#?2014 by Fachinformationszentrum Karlsruhe, and the U.S. Secretary of 
#Commerce on behalf of the United States.  All rights reserved.
_database_code_ICSD                4202
_audit_creation_date               1980/01/01
_audit_update_record               2011/02/01
_chemical_name_systematic          'Magnesium Dicopper Oxide'
_chemical_formula_structural       'Mg Cu2 O3'
_chemical_formula_sum              'Cu2 Mg1 O3'
_publ_section_title                'Zur Kenntnis von Mg Cu2 O3'
loop_
_citation_id
_citation_journal_abbrev
_citation_year
_citation_journal_volume
_citation_page_first
_citation_page_last
_citation_journal_id_ASTM
primary 'Zeitschrift fuer Anorganische und Allgemeine Chemie (1950) (DE)'
 1975 418 116 120 ZAACAB
_publ_author_name
;
Drenkhahn, H.;Mueller Buschbaum, H.
;
_cell_length_a                     4.
_cell_length_b                     9.35
_cell_length_c                     3.19
_cell_angle_alpha                  90.
_cell_angle_beta                   90.
_cell_angle_gamma                  90.
_cell_volume                       119.31
_cell_formula_units_Z              2
_symmetry_space_group_name_H-M     'P m m n Z'
_symmetry_Int_Tables_number        59
_refine_ls_R_factor_all            .083
loop_
_symmetry_equiv_pos_site_id
_symmetry_equiv_pos_as_xyz
  1	'x+.5, y+.5, -z'
  2	'-x, y+.5, -z'
  3	'x+.5, -y, -z'
  4	'-x, -y, -z'
  5	'-x+.5, -y+.5, z'
  6	'x, -y+.5, z'
  7	'-x+.5, y, z'
  8	'x, y, z'
loop_
_atom_type_symbol
_atom_type_oxidation_number
Cu2+	2
Mg2+	2
O2-	-2
loop_
_atom_site_label
_atom_site_type_symbol
_atom_site_symmetry_multiplicity
_atom_site_Wyckoff_symbol
_atom_site_fract_x
_atom_site_fract_y
_atom_site_fract_z
_atom_site_occupancy
_atom_site_attached_hydrogens
Mg1 Mg2+ 2 a 0.25 0.25 0.369 1. 0 
Cu1 Cu2+ 4 e 0.75 0.086 0.82 1. 0 
O1 O2- 2 b 0.75 0.25 0.453 1. 0 
O2 O2- 4 e 0.25 0.094 0.869 1. 0 

#End of data_4202-ICSD


