data_78088-ICSD
#?2014 by Fachinformationszentrum Karlsruhe, and the U.S. Secretary of 
#Commerce on behalf of the United States.  All rights reserved.
_database_code_ICSD                78088
_audit_creation_date               1995/10/17
_audit_update_record               2011/08/01
_chemical_name_systematic          'Calcium Dibismuth Oxide'
_chemical_formula_structural       'Ca Bi2 O4'
_chemical_formula_sum              'Bi2 Ca1 O4'
_publ_section_title
;
X-ray and neutron diffraction study of Ca Bi2 O4
;
loop_
_citation_id
_citation_journal_abbrev
_citation_year
_citation_journal_volume
_citation_page_first
_citation_page_last
_citation_journal_id_ASTM
primary 'Journal of Solid State Chemistry' 1994 109 251 258 JSSCBI
_publ_author_name
;
Sora, I.N.;Wong-Ng, W.;Huang, Q.;Roth, R.S.;Rawn, C.J.;Burton, 
B.P.;Santoro, A.
;
_cell_length_a                     16.6130(5)
_cell_length_b                     11.5900(4)
_cell_length_c                     13.9939(4)
_cell_angle_alpha                  90.
_cell_angle_beta                   134.048(1)
_cell_angle_gamma                  90.
_cell_volume                       1936.66
_cell_formula_units_Z              16
_symmetry_space_group_name_H-M     'C 1 2/c 1'
_symmetry_Int_Tables_number        15
_refine_ls_R_factor_all            .0293
loop_
_symmetry_equiv_pos_site_id
_symmetry_equiv_pos_as_xyz
  1	'x, -y, z+.5'
  2	'-x, -y, -z'
  3	'-x, y, -z+.5'
  4	'x, y, z'
  5	'x+.5, -y+.5, z+.5'
  6	'-x+.5, -y+.5, -z'
  7	'-x+.5, y+.5, -z+.5'
  8	'x+.5, y+.5, z'
loop_
_atom_type_symbol
_atom_type_oxidation_number
Bi3+	3
Ca2+	2
O2-	-2
loop_
_atom_site_label
_atom_site_type_symbol
_atom_site_symmetry_multiplicity
_atom_site_Wyckoff_symbol
_atom_site_fract_x
_atom_site_fract_y
_atom_site_fract_z
_atom_site_occupancy
_atom_site_attached_hydrogens
_atom_site_B_iso_or_equiv
Bi1 Bi3+ 8 f 0.8715(4) 0.1570(4) 0.5597(4) 1. 0 0.62(8) 
Bi2 Bi3+ 8 f 0.8729(3) 0.3484(3) 0.2709(4) 1. 0 1.01(8) 
Bi3 Bi3+ 8 f 0.6546(3) 0.2145(3) 0.2151(4) 1. 0 0.61(8) 
Bi4 Bi3+ 8 f 0.6505(4) 0.0106(3) 0.4862(4) 1. 0 0.90(9) 
Ca1 Ca2+ 8 f 0.8749(6) 0.0353(6) 0.3350(7) 1. 0 1.1(1) 
Ca2 Ca2+ 8 f 0.8767(7) 0.1492(6) 0.0808(8) 1. 0 0.8(1) 
O1 O2- 8 f 0.7030(5) 0.1107(6) 0.3927(6) 1. 0 1.4(1) 
O2 O2- 8 f 0.6798(5) 0.9304(5) 0.6547(6) 1. 0 0.8(1) 
O3 O2- 8 f 0.8279(5) 0.2414(5) 0.3792(6) 1. 0 1.0(1) 
O4 O2- 8 f 0.6986(5) 0.3364(5) 0.1377(6) 1. 0 0.9(1) 
O5 O2- 8 f 0.8213(5) 0.0348(6) 0.6376(6) 1. 0 1.2(1) 
O6 O2- 8 f 0.6659(5) 0.8570(6) 0.4206(6) 1. 0 1.0(1) 
O7 O2- 8 f 0.9437(5) 0.0242(5) 0.5502(6) 1. 0 0.5(1) 
O8 O2- 8 f 0.9306(5) 0.1876(5) 0.2844(6) 1. 0 0.8(1) 

#End of data_78088-ICSD


