data_4299-ICSD
#?2014 by Fachinformationszentrum Karlsruhe, and the U.S. Secretary of 
#Commerce on behalf of the United States.  All rights reserved.
_database_code_ICSD                4299
_audit_creation_date               1980/01/01
_audit_update_record               2008/02/01
_chemical_name_systematic
;
Tetrapotassium Tetrakis(sulfato(VI))dimolybdate(II) Dihydrate
;
_chemical_formula_structural       'K4 (Mo2 (S O4)4) (H2 O)2'
_chemical_formula_sum              'H4 K4 Mo2 O18 S4'
_publ_section_title
;
Magnetic and electrochemical properties of transition metal complexes 
with multiple metal-to-metal bonds. III. Characterization of 
tetrapotassium and tripotassium tetrasufatodimolybdates
;
loop_
_citation_id
_citation_journal_abbrev
_citation_year
_citation_journal_volume
_citation_journal_issue
_citation_page_first
_citation_page_last
_citation_journal_id_ASTM
primary 'Inorganic Chemistry' 1975 14 2 388 391 INOCAJ
_publ_author_name
;
Cotton, F.A.;Frenz, B.A.;Pedersen, E.;Webb, T.R.
;
_cell_length_a                     17.206(3)
_cell_length_b                     10.193(2)
_cell_length_c                     10.061
_cell_angle_alpha                  90.
_cell_angle_beta                   94.92(2)
_cell_angle_gamma                  90.
_cell_volume                       1758
_cell_formula_units_Z              4
_symmetry_space_group_name_H-M     'C 1 2/c 1'
_symmetry_Int_Tables_number        15
_refine_ls_R_factor_all            .026
loop_
_symmetry_equiv_pos_site_id
_symmetry_equiv_pos_as_xyz
  1	'x, -y, z+.5'
  2	'-x, -y, -z'
  3	'-x, y, -z+.5'
  4	'x, y, z'
  5	'x+.5, -y+.5, z+.5'
  6	'-x+.5, -y+.5, -z'
  7	'-x+.5, y+.5, -z+.5'
  8	'x+.5, y+.5, z'
loop_
_atom_type_symbol
_atom_type_oxidation_number
H1+	1
K1+	1
Mo2+	2
O2-	-2
S6+	6
loop_
_atom_site_label
_atom_site_type_symbol
_atom_site_symmetry_multiplicity
_atom_site_Wyckoff_symbol
_atom_site_fract_x
_atom_site_fract_y
_atom_site_fract_z
_atom_site_occupancy
_atom_site_attached_hydrogens
_atom_site_B_iso_or_equiv
Mo1 Mo2+ 8 f 0.24845(3) 0.29129(4) 0.09597(4) 1. 0 0 
K1 K1+ 4 e 0 0.3458(1) 0.25 1. 0 0 
K2 K1+ 8 f 0.1448(1) 0.3612(1) -.4096(2) 1. 0 0 
K3 K1+ 4 e 0 0.0704(2) -.25 1. 0 0 
S1 S6+ 8 f 0.4150(1) 0.1654(1) 0.0671(1) 1. 0 0 
S2 S6+ 8 f 0.2957(1) 0.5112(1) -.1054(1) 1. 0 0 
O1 O2- 8 f 0.3704(2) 0.2595(4) 0.1483(4) 1. 0 0 
O2 O2- 8 f 0.3732(2) 0.1623(4) -.0719(4) 1. 0 0 
O3 O2- 8 f 0.4934(2) 0.2149(5) 0.0593(4) 1. 0 0 
O4 O2- 8 f 0.4128(3) 0.0357(4) 0.1251(5) 1. 0 0 
O5 O2- 8 f 0.2697(2) 0.4858(4) 0.0314(3) 1. 0 0 
O6 O2- 8 f 0.2738(2) 0.3926(4) -.1897(3) 1. 0 0 
O7 O2- 8 f 0.3791(3) 0.5288(5) -.0968(5) 1. 0 0 
O8 O2- 8 f 0.2546(3) 0.6271(4) -.1594(4) 1. 0 0 
O9 O2- 8 f 0.0916(3) 0.1575(6) 0.3505(6) 1. 0 0 
H1 H1+ 8 f 0.093(4) 0.119(9) 0.421(9) 1. 0 2. 
H2 H1+ 8 f 0.135(5) 0.146(8) 0.321(8) 1. 0 2. 

#End of data_4299-ICSD


