data_100457-ICSD
#?2014 by Fachinformationszentrum Karlsruhe, and the U.S. Secretary of 
#Commerce on behalf of the United States.  All rights reserved.
_database_code_ICSD                100457
_audit_creation_date               1980/01/01
_audit_update_record               2007/08/01
_chemical_name_systematic          'Dialuminium Silicate Oxide'
_chemical_formula_structural       'Al2 (Si O4) O'
_chemical_formula_sum              'Al2 O5 Si1'
_chemical_name_mineral             Kyanite
_publ_section_title
;
Thermal expansion and high temperature crystal chemistry of the Al2 
Si O5 polymorphs
;
loop_
_citation_id
_citation_journal_abbrev
_citation_year
_citation_journal_volume
_citation_page_first
_citation_page_last
_citation_journal_id_ASTM
primary 'American Mineralogist' 1979 64 573 586 AMMIAY
2
;
Zeitschrift fuer Kristallographie, Kristallgeometrie, Kristallphysik, 
Kristallchemie (-144,1977)
;
 1963 118 337 360 ZEKGAX
3
;
Zeitschrift fuer Kristallographie, Kristallgeometrie, Kristallphysik, 
Kristallchemie (-144,1977)
;
 1929 71 117 130 ZEKGAX
_publ_author_name                  'Winter, J.K.;Ghose, S.'
_cell_length_a                     7.1582(9)
_cell_length_b                     7.8821(11)
_cell_length_c                     5.6089(6)
_cell_angle_alpha                  89.90(1)
_cell_angle_beta                   101.21(1)
_cell_angle_gamma                  105.98(1)
_cell_volume                       297.98
_cell_formula_units_Z              4
_symmetry_space_group_name_H-M     'P -1'
_symmetry_Int_Tables_number        2
_refine_ls_R_factor_all            .036
loop_
_symmetry_equiv_pos_site_id
_symmetry_equiv_pos_as_xyz
  1	'-x, -y, -z'
  2	'x, y, z'
loop_
_atom_type_symbol
_atom_type_oxidation_number
Al3+	3
O2-	-2
Si4+	4
loop_
_atom_site_label
_atom_site_type_symbol
_atom_site_symmetry_multiplicity
_atom_site_Wyckoff_symbol
_atom_site_fract_x
_atom_site_fract_y
_atom_site_fract_z
_atom_site_occupancy
_atom_site_attached_hydrogens
Al1 Al3+ 2 i 0.3263(1) 0.7042(1) 0.4586(2) 1. 0 
Al2 Al3+ 2 i 0.2978(1) 0.6990(1) 0.9507(2) 1. 0 
Al3 Al3+ 2 i 0.1001(1) 0.3858(1) 0.6405(2) 1. 0 
Al4 Al3+ 2 i 0.1131(1) 0.9185(1) 0.1659(2) 1. 0 
Si1 Si4+ 2 i 0.2961(1) 0.0650(1) 0.7068(1) 1. 0 
Si2 Si4+ 2 i 0.2908(1) 0.3314(1) 0.1893(1) 1. 0 
O1 O2- 2 i 0.1101(3) 0.1469(3) 0.1291(4) 1. 0 
O2 O2- 2 i 0.1239(3) 0.6868(3) 0.1817(4) 1. 0 
O3 O2- 2 i 0.2744(3) 0.4542(3) 0.9560(4) 1. 0 
O4 O2- 2 i 0.2830(3) 0.9358(3) 0.9341(4) 1. 0 
O5 O2- 2 i 0.1090(3) 0.1524(3) 0.6673(4) 1. 0 
O6 O2- 2 i 0.1229(3) 0.6300(3) 0.6396(4) 1. 0 
O7 O2- 2 i 0.2814(3) 0.4438(3) 0.4280(4) 1. 0 
O8 O2- 2 i 0.2916(3) 0.9483(3) 0.4670(4) 1. 0 
O9 O2- 2 i 0.5004(3) 0.2755(3) 0.2443(3) 1. 0 
O10 O2- 2 i 0.5011(3) 0.2303(3) 0.7550(4) 1. 0 

#End of data_100457-ICSD


