data_412783-ICSD
#?2014 by Fachinformationszentrum Karlsruhe, and the U.S. Secretary of 
#Commerce on behalf of the United States.  All rights reserved.
_database_code_ICSD                412783
_audit_creation_date               2003/10/01
_chemical_name_systematic          'Calcium Bis(thiocyanate)'
_chemical_formula_structural       'Ca (S C N)2'
_chemical_formula_sum              'C2 Ca1 N2 S2'
_publ_section_title
;
Ca (S C N)2 and Ca (S C N)2 * 2(H2 O): crystal structure, thermal 
behavior and vibrational spectroscopy
;
loop_
_citation_id
_citation_journal_abbrev
_citation_year
_citation_journal_volume
_citation_page_first
_citation_page_last
_citation_journal_id_ASTM
primary 'Zeitschrift fuer Naturforschung, B: Chemical Sciences'
 2002 57 1419 1426 ZNBSEN
_publ_author_name                  'Wickleder, C.;Larsen, P.'
_cell_length_a                     9.617(2)
_cell_length_b                     6.4240(17)
_cell_length_c                     7.8717(18)
_cell_angle_alpha                  90.
_cell_angle_beta                   90.82(3)
_cell_angle_gamma                  90.
_cell_volume                       486.26
_cell_formula_units_Z              4
_symmetry_space_group_name_H-M     'C 1 2/c 1'
_symmetry_Int_Tables_number        15
_refine_ls_R_factor_all            .0323
loop_
_symmetry_equiv_pos_site_id
_symmetry_equiv_pos_as_xyz
  1	'x, -y, z+.5'
  2	'-x, -y, -z'
  3	'-x, y, -z+.5'
  4	'x, y, z'
  5	'x+.5, -y+.5, z+.5'
  6	'-x+.5, -y+.5, -z'
  7	'-x+.5, y+.5, -z+.5'
  8	'x+.5, y+.5, z'
loop_
_atom_type_symbol
_atom_type_oxidation_number
C4+	4
Ca2+	2
N3-	-3
S2-	-2
loop_
_atom_site_label
_atom_site_type_symbol
_atom_site_symmetry_multiplicity
_atom_site_Wyckoff_symbol
_atom_site_fract_x
_atom_site_fract_y
_atom_site_fract_z
_atom_site_occupancy
_atom_site_attached_hydrogens
_atom_site_U_iso_or_equiv
Ca1 Ca2+ 4 e 0.5 0.09235(13) 0.75 1. 0 0.0120(2) 
S1 S2- 8 f 0.79745(8) -.05965(11) 0.67554(10) 1. 0 0.0181(2) 
C1 C4+ 8 f 0.6162(3) 0.3602(4) 0.3985(3) 1. 0 0.0118(6) 
N1 N3- 8 f 0.5566(3) 0.2148(4) 0.4496(3) 1. 0 0.0156(6) 

loop_
_atom_site_aniso_label
_atom_site_aniso_type_symbol
_atom_site_aniso_U_11
_atom_site_aniso_U_22
_atom_site_aniso_U_33
_atom_site_aniso_U_12
_atom_site_aniso_U_13
_atom_site_aniso_U_23
Ca1 Ca2+ 0.0149(6) 0.0105(4) 0.0105(4) 0 0.0025(4) 0
S1 S2- 0.0139(5) 0.0131(4) 0.0272(5) 0.0008(3) 0.0047(3) 0.0081(3)
C1 C4+ 0.0123(16) 0.0147(14) 0.0084(12) 0.0036(12) -0.0007(11) -0.0016(11)
N1 N3- 0.0173(15) 0.0130(13) 0.0163(13) -0.0022(11) 0.0000(11) 0.0015(10)
#End of data_412783-ICSD


