data_171809-ICSD
#?2014 by Fachinformationszentrum Karlsruhe, and the U.S. Secretary of 
#Commerce on behalf of the United States.  All rights reserved.
_database_code_ICSD                171809
_audit_creation_date               2006/10/01
_chemical_name_systematic          'Sodium Magnesium Fluoride'
_chemical_formula_structural       'Na Mg F3'
_chemical_formula_sum              'F3 Mg1 Na1'
_publ_section_title
;
Crystal chemistry of Na Mg F3 perovskite at high pressure and 
temperature
;
loop_
_citation_id
_citation_journal_abbrev
_citation_year
_citation_journal_volume
_citation_page_first
_citation_page_last
_citation_journal_id_ASTM
primary 'American Mineralogist' 2005 90 1534 1539 AMMIAY
_publ_author_name
;
Chen, J.;Liu, H.;Martin, C.D.;Parise, J.B.;Weidner, D.J.
;
_cell_length_a                     5.3678(2)
_cell_length_b                     5.4440(3)
_cell_length_c                     7.6587(3)
_cell_angle_alpha                  90
_cell_angle_beta                   90
_cell_angle_gamma                  90
_cell_volume                       223.8
_cell_formula_units_Z              4
_symmetry_space_group_name_H-M     'P b n m'
_symmetry_Int_Tables_number        62
_refine_ls_R_factor_all            .121
loop_
_symmetry_equiv_pos_site_id
_symmetry_equiv_pos_as_xyz
  1	'-x+.5, y+.5, z'
  2	'x, y, -z+.5'
  3	'x+.5, -y+.5, z+.5'
  4	'-x, -y, -z'
  5	'x+.5, -y+.5, -z'
  6	'-x, -y, z+.5'
  7	'-x+.5, y+.5, -z+.5'
  8	'x, y, z'
loop_
_atom_type_symbol
_atom_type_oxidation_number
F1-	-1
Mg2+	2
Na1+	1
loop_
_atom_site_label
_atom_site_type_symbol
_atom_site_symmetry_multiplicity
_atom_site_Wyckoff_symbol
_atom_site_fract_x
_atom_site_fract_y
_atom_site_fract_z
_atom_site_occupancy
_atom_site_attached_hydrogens
_atom_site_U_iso_or_equiv
Na1 Na1+ 4 c 0.9930(8) 0.0296(9) 0.2500 1. 0 0.051(2) 
Mg1 Mg2+ 4 b 0.0000 0.5000 0.0000 1. 0 0.021(1) 
F1 F1- 4 c 0.0788(8) 0.4783(9) 0.2500 1. 0 0.036(3) 
F2 F1- 8 d 0.7017(9) 0.2970(9) 0.0408(8) 1. 0 0.035(2) 

#End of data_171809-ICSD


