data_4046-ICSD
#?2014 by Fachinformationszentrum Karlsruhe, and the U.S. Secretary of 
#Commerce on behalf of the United States.  All rights reserved.
_database_code_ICSD                4046
_audit_creation_date               1980/01/01
_audit_update_record               2012/08/01
_chemical_name_systematic
;
Potassium Tetrafluorothallate - Alpha
;
_chemical_formula_structural       'K Tl F4'
_chemical_formula_sum              'F4 K1 Tl1'
_publ_section_title                'Die kristallstruktur von K Tl F4'
loop_
_citation_id
_citation_journal_abbrev
_citation_year
_citation_journal_volume
_citation_page_first
_citation_page_last
_citation_journal_id_ASTM
primary
;
Zeitschrift fuer Naturforschung, Teil B. Anorganische Chemie, 
Organische Chemie (2,1947-32,1977)
;
 1975 30 305 312 ZENBAX
_publ_author_name                  'Hebecker, C.'
_cell_length_a                     8.025
_cell_length_b                     8.025
_cell_length_c                     10.16
_cell_angle_alpha                  90.
_cell_angle_beta                   90.
_cell_angle_gamma                  120.
_cell_volume                       566.65
_cell_formula_units_Z              6
_symmetry_space_group_name_H-M     'P 31'
_symmetry_Int_Tables_number        144
_refine_ls_R_factor_all            .095
loop_
_symmetry_equiv_pos_site_id
_symmetry_equiv_pos_as_xyz
  1	'-x+y, -x, z+.6667'
  2	'-y, x-y, z+.3333'
  3	'x, y, z'
loop_
_atom_type_symbol
_atom_type_oxidation_number
F1-	-1
K1+	1
Tl3+	3
loop_
_atom_site_label
_atom_site_type_symbol
_atom_site_symmetry_multiplicity
_atom_site_Wyckoff_symbol
_atom_site_fract_x
_atom_site_fract_y
_atom_site_fract_z
_atom_site_occupancy
_atom_site_attached_hydrogens
_atom_site_B_iso_or_equiv
K1 K1+ 3 a 0.479(4) 0.305(4) 0.011(3) 1. 0 1.1 
K2 K1+ 3 a 0.321(4) 0.477(4) 0.702(4) 1. 0 1.8 
Tl1 Tl3+ 3 a 0.0005(5) 0.3604(5) 0.016(1) 1. 0 0.87 
Tl2 Tl3+ 3 a 0.1758(5) 0.1761(5) 0.350(1) 1. 0 0.64 
F1 F1- 3 a 0.05(1) 0.32(1) 0.25(1) 1. 0 1.46 
F2 F1- 3 a 0.47(1) 0.34(1) 0.25(1) 1. 0 1.64 
F3 F1- 3 a 0.35(1) 0.08(1) 0.47(1) 1. 0 2.19 
F4 F1- 3 a 0.35(1) 0.46(1) 0.46(1) 1. 0 2.83 
F5 F1- 3 a 0.28(1) 0.47(1) -.04(1) 1. 0 2.65 
F6 F1- 3 a -.19(1) 0.51(1) 0.43(1) 1. 0 1.51 
F7 F1- 3 a 0.20(1) 0.01(1) 0.18(1) 1. 0 3.85 
F8 F1- 3 a -.07(2) 0.04(2) 0.09(1) 1. 0 4.24 

#End of data_4046-ICSD


