data_67905-ICSD
#?2014 by Fachinformationszentrum Karlsruhe, and the U.S. Secretary of 
#Commerce on behalf of the United States.  All rights reserved.
_database_code_ICSD                67905
_audit_creation_date               1995/01/10
_chemical_name_systematic          'Magnesium Tungstate'
_chemical_formula_structural       'Mg (W O4)'
_chemical_formula_sum              'Mg1 O4 W1'
_publ_section_title
;
The crystal structure of wolframite type tungstates at high pressure
;
loop_
_citation_id
_citation_journal_abbrev
_citation_year
_citation_journal_volume
_citation_page_first
_citation_page_last
_citation_journal_id_ASTM
primary 'Zeitschrift fuer Kristallographie (1979-2010)' 1993 207 193 208 ZEKRDZ
_publ_author_name                  'Macavei, J.;Schulz, H.'
_cell_length_a                     4.624(1)
_cell_length_b                     5.594(2)
_cell_length_c                     4.880(1)
_cell_angle_alpha                  90.
_cell_angle_beta                   90.56(2)
_cell_angle_gamma                  90.
_cell_volume                       126.22
_cell_formula_units_Z              2
_symmetry_space_group_name_H-M     'P 1 2/c 1'
_symmetry_Int_Tables_number        13
_refine_ls_R_factor_all            .0417
loop_
_symmetry_equiv_pos_site_id
_symmetry_equiv_pos_as_xyz
  1	'x, -y, z+.5'
  2	'-x, -y, -z'
  3	'-x, y, -z+.5'
  4	'x, y, z'
loop_
_atom_type_symbol
_atom_type_oxidation_number
Mg2+	2
O2-	-2
W6+	6
loop_
_atom_site_label
_atom_site_type_symbol
_atom_site_symmetry_multiplicity
_atom_site_Wyckoff_symbol
_atom_site_fract_x
_atom_site_fract_y
_atom_site_fract_z
_atom_site_occupancy
_atom_site_attached_hydrogens
_atom_site_U_iso_or_equiv
Mg1 Mg2+ 2 f 0.5 0.672(1) 0.25 1. 0 0.008(1) 
W1 W6+ 2 e 0 0.1834(2) 0.25 1. 0 0.0053(3) 
O1 O2- 4 g 0.219(2) 0.107(2) 0.938(2) 1. 0 0.010(2) 
O2 O2- 4 g 0.255(2) 0.382(2) 0.402(2) 1. 0 0.009(2) 

#End of data_67905-ICSD


