data_21081-ICSD
#?2014 by Fachinformationszentrum Karlsruhe, and the U.S. Secretary of 
#Commerce on behalf of the United States.  All rights reserved.
_database_code_ICSD                21081
_audit_creation_date               1986/10/02
_audit_update_record               2012/08/01
_chemical_name_systematic          'Potassium Tetrafluoroborate'
_chemical_formula_structural       'K (B F4)'
_chemical_formula_sum              'B1 F4 K1'
_chemical_name_mineral             Avogadrite
_publ_section_title
;
Crystal structures of potassium, ammonium, rubidium and cesium 
tetrafluoroborates
;
loop_
_citation_id
_citation_journal_abbrev
_citation_year
_citation_journal_volume
_citation_page_first
_citation_page_last
_citation_journal_id_ASTM
primary 'Canadian Journal of Chemistry' 1969 47 2579 2586 CJCHAG
2 'Golden Book of Phase Transitions, Wroclaw' 2002 1 1 123 GBOPT5
_publ_author_name                  'Clark, M.J.R.;Lynton, H.'
_cell_length_a                     7.032
_cell_length_b                     8.674
_cell_length_c                     5.496
_cell_angle_alpha                  90.
_cell_angle_beta                   90.
_cell_angle_gamma                  90.
_cell_volume                       335.23
_cell_formula_units_Z              4
_symmetry_space_group_name_H-M     'P b n m'
_symmetry_Int_Tables_number        62
_refine_ls_R_factor_all            .072
loop_
_symmetry_equiv_pos_site_id
_symmetry_equiv_pos_as_xyz
  1	'-x+.5, y+.5, z'
  2	'x, y, -z+.5'
  3	'x+.5, -y+.5, z+.5'
  4	'-x, -y, -z'
  5	'x+.5, -y+.5, -z'
  6	'-x, -y, z+.5'
  7	'-x+.5, y+.5, -z+.5'
  8	'x, y, z'
loop_
_atom_type_symbol
_atom_type_oxidation_number
B3+	3
F1-	-1
K1+	1
loop_
_atom_site_label
_atom_site_type_symbol
_atom_site_symmetry_multiplicity
_atom_site_Wyckoff_symbol
_atom_site_fract_x
_atom_site_fract_y
_atom_site_fract_z
_atom_site_occupancy
_atom_site_attached_hydrogens
K1 K1+ 4 c 0.16134(26) 0.18454(20) 0.25 1. 0 
B1 B3+ 4 c 0.6872(13) 0.06322(96) 0.25 1. 0 
F1 F1- 4 c 0.60250(99) -.08114(64) 0.25 1. 0 
F2 F1- 4 c 0.55756(88) 0.17860(67) 0.25 1. 0 
F3 F1- 8 d 0.80416(55) 0.07768(41) 0.04457(72) 1. 0 

#End of data_21081-ICSD


