data_50668-ICSD
#?2014 by Fachinformationszentrum Karlsruhe, and the U.S. Secretary of 
#Commerce on behalf of the United States.  All rights reserved.
_database_code_ICSD                50668
_audit_creation_date               2000/07/15
_chemical_name_systematic
;
Potassium Manganese Hydrogentriphosphate(V)
;
_chemical_formula_structural       'K Mn (H P3 O10)'
_chemical_formula_sum              'H1 K1 Mn1 O10 P3'
_publ_section_title
;
Weak ferromagnetism and framework switching in K Mn H H3 P3 O10
;
loop_
_citation_id
_citation_journal_abbrev
_citation_year
_citation_journal_volume
_citation_page_first
_citation_page_last
_citation_journal_id_ASTM
primary 'Journal of Solid State Chemistry' 1999 145 479 483 JSSCBI
_publ_author_name
;
Wright, A.J.;Ruiz Valero, C.;Attfield, J.P.
;
_cell_length_a                     7.102(2)
_cell_length_b                     7.234(1)
_cell_length_c                     9.109(2)
_cell_angle_alpha                  72.176(8)
_cell_angle_beta                   73.762(9)
_cell_angle_gamma                  70.642(12)
_cell_volume                       411.98
_cell_formula_units_Z              2
_symmetry_space_group_name_H-M     'P -1'
_symmetry_Int_Tables_number        2
_refine_ls_R_factor_all            .026
loop_
_symmetry_equiv_pos_site_id
_symmetry_equiv_pos_as_xyz
  1	'-x, -y, -z'
  2	'x, y, z'
loop_
_atom_type_symbol
_atom_type_oxidation_number
H1+	1
K1+	1
Mn3+	3
O2-	-2
P5+	5
loop_
_atom_site_label
_atom_site_type_symbol
_atom_site_symmetry_multiplicity
_atom_site_Wyckoff_symbol
_atom_site_fract_x
_atom_site_fract_y
_atom_site_fract_z
_atom_site_occupancy
_atom_site_attached_hydrogens
Mn1 Mn3+ 1 c 0 0.5 0 1. 0 
Mn2 Mn3+ 1 f 0.5 0 0.5 1. 0 
K1 K1+ 2 i 0.395(5) -.444(5) 0.245(4) 1. 0 
P1 P5+ 2 i 0.249(4) 0.083(4) 0.243(3) 1. 0 
P2 P5+ 2 i 0.148(3) 0.273(3) 0.726(3) 1. 0 
P3 P5+ 2 i -.141(4) 0.131(4) 0.218(3) 1. 0 
O1 O2- 2 i 0.031(3) 0.112(3) 0.279(3) 1. 0 
O2 O2- 2 i 0.128(3) 0.061(4) 0.822(2) 1. 0 
O3 O2- 2 i 0.251(4) 0.295(3) 0.136(2) 1. 0 
O4 O2- 2 i 0.364(3) 0.246(3) 0.602(3) 1. 0 
O5 O2- 2 i 0.381(4) -.036(4) 0.139(3) 1. 0 
O6 O2- 2 i 0.000(4) 0.382(3) 0.615(3) 1. 0 
O7 O2- 2 i 0.275(4) 0.090(3) 0.419(2) 1. 0 
O8 O2- 2 i 0.188(3) 0.411(3) 0.812(3) 1. 0 
O9 O2- 2 i -.139(4) 0.315(4) 0.058(2) 1. 0 
O10 O2- 2 i 0.366(3) -.173(3) 0.701(2) 1. 0 
H1 H1+ 1 g 0 0.5 0.5 1. 0 
H2 H1+ 1 d 0.5 0 0 1. 0 

#End of data_50668-ICSD


