data_9295-ICSD
#?2014 by Fachinformationszentrum Karlsruhe, and the U.S. Secretary of 
#Commerce on behalf of the United States.  All rights reserved.
_database_code_ICSD                9295
_audit_creation_date               1980/01/01
_audit_update_record               2012/08/01
_chemical_name_systematic          'Potassium Oxotetrafluorovanadate'
_chemical_formula_structural       'K V O F4'
_chemical_formula_sum              'F4 K1 O1 V1'
_publ_section_title
;
Darstellung, Schwingungsspektren und Struktur von 
Oxotetrafluororvanadaten M' V O F4 (M = Na, K, Rb, Cs, Tl, (C H3)4N)
;
loop_
_citation_id
_citation_journal_abbrev
_citation_year
_citation_journal_volume
_citation_page_first
_citation_page_last
_citation_journal_id_ASTM
primary 'Zeitschrift fuer Anorganische und Allgemeine Chemie (1950) (DE)'
 1973 401 158 164 ZAACAB
_publ_author_name                  'Rieskamp, H.;Mattes, R.'
_cell_length_a                     5.603(3)
_cell_length_b                     13.536(8)
_cell_length_c                     5.444(2)
_cell_angle_alpha                  90.
_cell_angle_beta                   95.87(5)
_cell_angle_gamma                  90.
_cell_volume                       410.72
_cell_formula_units_Z              4
_symmetry_space_group_name_H-M     'P 1 21/c 1'
_symmetry_Int_Tables_number        14
_refine_ls_R_factor_all            .064
loop_
_symmetry_equiv_pos_site_id
_symmetry_equiv_pos_as_xyz
  1	'x, -y+.5, z+.5'
  2	'-x, -y, -z'
  3	'-x, y+.5, -z+.5'
  4	'x, y, z'
loop_
_atom_type_symbol
_atom_type_oxidation_number
F1-	-1
K1+	1
O2-	-2
V5+	5
loop_
_atom_site_label
_atom_site_type_symbol
_atom_site_symmetry_multiplicity
_atom_site_Wyckoff_symbol
_atom_site_fract_x
_atom_site_fract_y
_atom_site_fract_z
_atom_site_occupancy
_atom_site_attached_hydrogens
K1 K1+ 4 e 0.7398(4) 0.3746(2) 0.0492(5) 1. 0 
V1 V5+ 4 e 0.2136(3) 0.1477(1) 0.0715(3) 1. 0 
O1 O2- 4 e 0.2984(15) 0.0861(6) 0.8515(14) 1. 0 
F1 F1- 4 e 0.4784(11) 0.2185(5) 0.1595(11) 1. 0 
F2 F1- 4 e 0.2943(12) 0.0644(5) 0.3250(12) 1. 0 
F3 F1- 4 e 0.9089(12) 0.1082(5) 0.0648(13) 1. 0 
F4 F1- 4 e 0.0871(11) 0.2570(4) 0.8909(11) 1. 0 

#End of data_9295-ICSD


