data_41662-ICSD
#?2014 by Fachinformationszentrum Karlsruhe, and the U.S. Secretary of 
#Commerce on behalf of the United States.  All rights reserved.
_database_code_ICSD                41662
_audit_creation_date               1999/11/30
_audit_update_record               2007/08/01
_chemical_name_systematic          'Calcium Digallium Oxide - Hp'
_chemical_formula_structural       'Ca Ga2 O4'
_chemical_formula_sum              'Ca1 Ga2 O4'
_publ_section_title
;
High-pressure modifications of Ca Al2 O4 and Ca Ga2 O4
;
loop_
_citation_id
_citation_journal_abbrev
_citation_year
_citation_journal_volume
_citation_page_first
_citation_page_last
_citation_journal_id_ASTM
primary 'Materials Research Bulletin' 1980 15 925 932 MRBUAC
2 'Phase Transition' 1992 38 127 220 PHTRDP
_publ_author_name
;
Ito, S.;Suzuki, K.;Inagaki, M.;Naka, S.
;
_cell_length_a                     9.12
_cell_length_b                     10.57
_cell_length_c                     2.99
_cell_angle_alpha                  90.
_cell_angle_beta                   90.
_cell_angle_gamma                  90.
_cell_volume                       288.23
_cell_formula_units_Z              4
_symmetry_space_group_name_H-M     'P n a m'
_symmetry_Int_Tables_number        62
loop_
_symmetry_equiv_pos_site_id
_symmetry_equiv_pos_as_xyz
  1	'x+.5, -y+.5, z'
  2	'x, y, -z+.5'
  3	'-x+.5, y+.5, z+.5'
  4	'-x, -y, -z'
  5	'-x+.5, y+.5, -z'
  6	'-x, -y, z+.5'
  7	'x+.5, -y+.5, -z+.5'
  8	'x, y, z'
loop_
_atom_type_symbol
_atom_type_oxidation_number
Ca2+	2
Ga3+	3
O2-	-2
loop_
_atom_site_label
_atom_site_type_symbol
_atom_site_symmetry_multiplicity
_atom_site_Wyckoff_symbol
_atom_site_fract_x
_atom_site_fract_y
_atom_site_fract_z
_atom_site_occupancy
_atom_site_attached_hydrogens
Ga1 Ga3+ 4 c 0.433 0.61 0.25 1. 0 
Ga2 Ga3+ 4 c 0.42 0.108 0.25 1. 0 
Ca1 Ca2+ 4 c 0.756 0.654 0.25 1. 0 
O1 O2- 4 c 0.208 0.162 0.25 1. 0 
O2 O2- 4 c 0.115 0.477 0.25 1. 0 
O3 O2- 4 c 0.521 0.784 0.25 1. 0 
O4 O2- 4 c 0.419 0.424 0.25 1. 0 

#End of data_41662-ICSD


