data_409898-ICSD
#?2014 by Fachinformationszentrum Karlsruhe, and the U.S. Secretary of 
#Commerce on behalf of the United States.  All rights reserved.
_database_code_ICSD                409898
_audit_creation_date               2007/04/01
_audit_update_record               2013/02/01
_chemical_name_systematic
;
Calcium Nickel(II) (monohydrogenmonophosphate-dihydrogenmonoborate-
monophosphate)
;
_chemical_formula_structural       'Ca Ni (B P2 O7 (O H)3)'
_chemical_formula_sum              'H3 B1 Ca1 Ni1 O10 P2'
_publ_section_title
;
Crystal structure of calcium nickel(II) (monohydrogenmonophosphate-
dihydrogenmonoborate-monophosphate), Ca Ni [B P2 O7 (O H)3]
;
loop_
_citation_id
_citation_journal_abbrev
_citation_year
_citation_journal_volume
_citation_page_first
_citation_page_last
_citation_journal_id_ASTM
primary 'Zeitschrift fuer Kristallographie - New Crystal Structures'
 2006 221 429 430 ZKNSFT
_publ_author_name
;
Menezes, P.W.;Hoffmann, S.;Prots', Yu.;Kniep, R.
;
_cell_length_a                     10.2515(9)
_cell_length_b                     8.3364(5)
_cell_length_c                     9.1752(13)
_cell_angle_alpha                  90
_cell_angle_beta                   116.34(4)
_cell_angle_gamma                  90
_cell_volume                       702.71
_cell_formula_units_Z              4
_symmetry_space_group_name_H-M     'C 1 2/c 1'
_symmetry_Int_Tables_number        15
loop_
_symmetry_equiv_pos_site_id
_symmetry_equiv_pos_as_xyz
  1	'x, -y, z+.5'
  2	'-x, -y, -z'
  3	'-x, y, -z+.5'
  4	'x, y, z'
  5	'x+.5, -y+.5, z+.5'
  6	'-x+.5, -y+.5, -z'
  7	'-x+.5, y+.5, -z+.5'
  8	'x+.5, y+.5, z'
loop_
_atom_type_symbol
_atom_type_oxidation_number
B3+	3
Ca2+	2
H1+	1
Ni2+	2
O2-	-2
P5+	5
loop_
_atom_site_label
_atom_site_type_symbol
_atom_site_symmetry_multiplicity
_atom_site_Wyckoff_symbol
_atom_site_fract_x
_atom_site_fract_y
_atom_site_fract_z
_atom_site_occupancy
_atom_site_attached_hydrogens
_atom_site_U_iso_or_equiv
Ca1 Ca2+ 4 e 0 0.13280(6) 0.25 1 0 0.01647(13) 
Ni1 Ni2+ 4 c 0.25 0.25 0 1 0 0.00868(11) 
P1 P5+ 8 f 0.28381(4) 0.43515(5) 0.32563(5) 1 0 0.00881(12) 
B1 B3+ 4 e 0 0.5261(3) 0.25 1 0 0.0087(4) 
O1 O2- 8 f 0.11542(12) 0.41168(15) 0.25726(15) 1 0 0.0112(2) 
O2 O2- 8 f 0.15264(15) 0.18673(18) 0.53166(17) 1 0 0.0196(3) 
O3 O2- 8 f 0.16761(13) 0.10488(15) 0.11627(16) 1 0 0.0125(2) 
O4 O2- 8 f 0.33462(14) 0.39970(17) 0.19771(18) 1 0 0.0161(3) 
O5 O2- 8 f 0.44458(14) 0.11954(16) 0.10211(16) 1 0 0.0138(2) 
H1 H1+ 8 f 0.505(5) 0.168(5) 0.094(5) 1 0 0.050(11) 
H2 H1+ 4 d 0.25 0.25 0.5 1 0 0.20(14) 

loop_
_atom_site_aniso_label
_atom_site_aniso_type_symbol
_atom_site_aniso_U_11
_atom_site_aniso_U_22
_atom_site_aniso_U_33
_atom_site_aniso_U_12
_atom_site_aniso_U_13
_atom_site_aniso_U_23
Ca1 Ca2+ 0.0196(2) 0.0136(2) 0.0204(3) 0 0.0126(2) 0
Ni1 Ni2+ 0.01058(16) 0.00668(16) 0.00919(17) -0.00010(8) 0.00475(12) 
0.00022(9)
P1 P5+ 0.00857(18) 0.00713(19) 0.0108(2) -0.00026(12) 0.00436(15) 
-0.00093(13)
B1 B3+ 0.0090(9) 0.0070(9) 0.0094(9) 0 0.0035(8) 0
O1 O2- 0.0090(5) 0.0088(5) 0.0157(6) 0.0006(4) 0.0056(4) -0.0013(4)
O2 O2- 0.0157(6) 0.0161(6) 0.0182(6) -0.0020(5) -0.0004(5) 0.0069(5)
O3 O2- 0.0141(5) 0.0088(5) 0.0176(6) 0.0028(4) 0.0099(5) 0.0048(4)
O4 O2- 0.0155(5) 0.0173(6) 0.0202(6) -0.0061(5) 0.0121(5) -0.0101(5)
O5 O2- 0.0129(5) 0.0132(6) 0.0156(6) 0.0019(4) 0.0066(5) 0.0062(5)
#End of data_409898-ICSD


