data_424305-ICSD
#?2014 by Fachinformationszentrum Karlsruhe, and the U.S. Secretary of 
#Commerce on behalf of the United States.  All rights reserved.
_database_code_ICSD                424305
_audit_creation_date               2013/08/01
_chemical_name_systematic          'Dimagnesium Tritellurate'
_chemical_formula_structural       'Mg2 Te3 O8'
_chemical_formula_sum              'Mg2 O8 Te3'
_chemical_name_mineral             Spiroffite
_publ_section_title
;
Synthesis, band and crystal structures, and optical properties of the 
ternary compound Mg2 Te3 O8
;
loop_
_citation_id
_citation_journal_abbrev
_citation_year
_citation_journal_volume
_citation_journal_issue
_citation_page_first
_citation_page_last
_citation_journal_id_ASTM
primary 'Zeitschrift fuer Anorganische und Allgemeine Chemie (1950) (DE)'
 2013 639 1 31 34 ZAACAB
_publ_author_name
;
Lin, Wan-Feng;Xing, Qiu-Ju;Ma, Jun;Zou, Jian-Ping;Lei, Si-Liang;Luo, 
Xu-Biao;Guo, Guo-Cong
;
_cell_length_a                     12.6030(7)
_cell_length_b                     5.2254(3)
_cell_length_c                     11.6331(7)
_cell_angle_alpha                  90.00
_cell_angle_beta                   98.6960(10)
_cell_angle_gamma                  90.00
_cell_volume                       757.3
_cell_formula_units_Z              4
_symmetry_space_group_name_H-M     'C 1 2/c 1'
_symmetry_Int_Tables_number        15
_refine_ls_R_factor_all            .0223
loop_
_symmetry_equiv_pos_site_id
_symmetry_equiv_pos_as_xyz
  1	'x, -y, z+.5'
  2	'-x, -y, -z'
  3	'-x, y, -z+.5'
  4	'x, y, z'
  5	'x+.5, -y+.5, z+.5'
  6	'-x+.5, -y+.5, -z'
  7	'-x+.5, y+.5, -z+.5'
  8	'x+.5, y+.5, z'
loop_
_atom_type_symbol
_atom_type_oxidation_number
Mg2+	2
O2-	-2
Te4+	4
loop_
_atom_site_label
_atom_site_type_symbol
_atom_site_symmetry_multiplicity
_atom_site_Wyckoff_symbol
_atom_site_fract_x
_atom_site_fract_y
_atom_site_fract_z
_atom_site_occupancy
_atom_site_attached_hydrogens
_atom_site_U_iso_or_equiv
Te1 Te4+ 4 e 0.0000 0.15729(7) 0.7500 1 0 0.0083(2) 
Te2 Te4+ 8 f -0.13666(2) -0.18650(5) 0.94269(2) 1 0 0.0077(2) 
Mg1 Mg2+ 8 f -0.26842(14) -0.6926(3) 0.85236(13) 1 0 0.0092(3) 
O1 O2- 8 f -0.2627(2) -0.0079(5) 0.9733(2) 1 0 0.0103(6) 
O2 O2- 8 f -0.1145(2) 0.1327(6) 0.8634(2) 1 0 0.0113(6) 
O3 O2- 8 f -0.0803(2) -0.0673(6) 0.6467(2) 1 0 0.0135(6) 
O4 O2- 8 f -0.2000(3) -0.3552(5) 0.8084(2) 1 0 0.0115(6) 

loop_
_atom_site_aniso_label
_atom_site_aniso_type_symbol
_atom_site_aniso_U_11
_atom_site_aniso_U_22
_atom_site_aniso_U_33
_atom_site_aniso_U_12
_atom_site_aniso_U_13
_atom_site_aniso_U_23
Te1 Te4+ 0.0076(3) 0.0088(3) 0.0082(3) 0.000 0.00043(19) 0.000
Te2 Te4+ 0.0076(3) 0.0082(3) 0.0069(3) 0.00101(7) 0.00005(15) -0.00049(7)
Mg1 Mg2+ 0.0100(8) 0.0098(7) 0.0080(7) 0.0003(5) 0.0021(6) 0.0007(4)
O1 O2- 0.0072(12) 0.0113(13) 0.0125(12) 0.0020(10) 0.0025(11) 0.0006(9)
O2 O2- 0.0084(13) 0.0124(14) 0.0137(14) -0.0001(11) 0.0041(11) 0.0032(10)
O3 O2- 0.0103(12) 0.0197(15) 0.0101(12) -0.0056(12) 0.0006(10) -0.0043(11)
O4 O2- 0.0129(13) 0.0140(14) 0.0073(14) -0.0015(11) -0.0002(12) -0.0026(9)
#End of data_424305-ICSD


