data_71860-ICSD
#?2014 by Fachinformationszentrum Karlsruhe, and the U.S. Secretary of 
#Commerce on behalf of the United States.  All rights reserved.
_database_code_ICSD                71860
_audit_creation_date               1993/08/22
_chemical_name_systematic          'Tristrontium Dialuminium Oxide'
_chemical_formula_structural       'Sr3 Al2 O6'
_chemical_formula_sum              'Al2 O6 Sr3'
_publ_section_title
;
Refinement of the structures of Sr3Al2O6 and the hydrogarnet 
Sr3Al2(O4D4)3 by Rietveld analysis of neutron powder diffraction data
;
loop_
_citation_id
_citation_journal_abbrev
_citation_year
_citation_journal_volume
_citation_page_first
_citation_page_last
_citation_journal_id_ASTM
primary 'Acta Crystallographica, Section C: Crystal Structure Communications'
 1992 48 414 419 ACSCEE
_publ_author_name
;
Chakoumakos, B.C.;Lager, G.A.;Fernandez-Baca, J.A.
;
_cell_length_a                     15.8556(4)
_cell_length_b                     15.8556(4)
_cell_length_c                     15.8556(4)
_cell_angle_alpha                  90.
_cell_angle_beta                   90.
_cell_angle_gamma                  90.
_cell_volume                       3986.1
_cell_formula_units_Z              24
_symmetry_space_group_name_H-M     'P a -3'
_symmetry_Int_Tables_number        205
_refine_ls_R_factor_all            .017
loop_
_symmetry_equiv_pos_site_id
_symmetry_equiv_pos_as_xyz
  1	'-z+.5, x+.5, y'
  2	'z+.5, x, -y+.5'
  3	'z, -x+.5, y+.5'
  4	'-z, -x, -y'
  5	'y, -z+.5, x+.5'
  6	'-y+.5, z+.5, x'
  7	'y+.5, z, -x+.5'
  8	'-y, -z, -x'
  9	'x+.5, y, -z+.5'
 10	'x, -y+.5, z+.5'
 11	'-x+.5, y+.5, z'
 12	'-x, -y, -z'
 13	'z+.5, -x+.5, -y'
 14	'-z+.5, -x, y+.5'
 15	'-z, x+.5, -y+.5'
 16	'z, x, y'
 17	'-y, z+.5, -x+.5'
 18	'y+.5, -z+.5, -x'
 19	'-y+.5, -z, x+.5'
 20	'y, z, x'
 21	'-x+.5, -y, z+.5'
 22	'-x, y+.5, -z+.5'
 23	'x+.5, -y+.5, -z'
 24	'x, y, z'
loop_
_atom_type_symbol
_atom_type_oxidation_number
Al3+	3
O2-	-2
Sr2+	2
loop_
_atom_site_label
_atom_site_type_symbol
_atom_site_symmetry_multiplicity
_atom_site_Wyckoff_symbol
_atom_site_fract_x
_atom_site_fract_y
_atom_site_fract_z
_atom_site_occupancy
_atom_site_attached_hydrogens
_atom_site_B_iso_or_equiv
Sr1 Sr2+ 4 a 0 0 0 1. 0 0.5(1) 
Sr2 Sr2+ 4 b 0.5 0 0 1. 0 0.6(1) 
Sr3 Sr2+ 8 c 0.2519(1) 0.2519(1) 0.2519(1) 1. 0 0.1(1) 
Sr4 Sr2+ 8 c 0.3759(2) 0.3759(2) 0.3759(2) 1. 0 0.47(6) 
Sr5 Sr2+ 24 d 0.1343(2) 0.3750(2) 0.1319(2) 1. 0 0.71(3) 
Sr6 Sr2+ 24 d 0.3799(2) 0.3855(1) 0.1247(1) 1. 0 0.39(4) 
Al1 Al3+ 24 d 0.2519(2) 0.0168(4) 0.0193(4) 1. 0 0.22(8) 
Al2 Al3+ 24 d 0.2381(4) 0.2345(4) 0.0041(3) 1. 0 0.35(9) 
O1 O2- 24 d 0.2622(2) 0.1257(4) 0.0028(2) 1. 0 0.63(5) 
O2 O2- 24 d 0.4928(2) 0.1295(3) 0.2437(2) 1. 0 0.59(6) 
O3 O2- 24 d 0.2704(2) 0.2769(2) 0.1002(2) 1. 0 0.70(5) 
O4 O2- 24 d 0.2352(2) 0.4063(2) 0.2800(2) 1. 0 0.48(6) 
O5 O2- 24 d 0.3460(2) -.0256(2) -.0194(2) 1. 0 0.77(7) 
O6 O2- 24 d 0.1539(2) -.0176(2) -.0168(2) 1. 0 0.68(6) 

#End of data_71860-ICSD


