data_1898-ICSD
#?2014 by Fachinformationszentrum Karlsruhe, and the U.S. Secretary of 
#Commerce on behalf of the United States.  All rights reserved.
_database_code_ICSD                1898
_audit_creation_date               1980/01/01
_audit_update_record               2010/02/01
_chemical_name_systematic
;
Sodium Vanado(IV)vanadate - Alpha, Lt
;
_chemical_formula_structural       'Na (V2 O5)'
_chemical_formula_sum              'Na1 O5 V2'
_publ_section_title
;
Affinement de la structure cristalline du bronze Na V2 O5 alpha'
;
loop_
_citation_id
_citation_journal_abbrev
_citation_year
_citation_journal_volume
_citation_page_first
_citation_page_last
_citation_journal_id_ASTM
primary 'Acta Crystallographica B (24,1968-38,1982)' 1975 31 1481 1482 ACBCAR
2 'Golden Book of Phase Transitions, Wroclaw' 2002 1 1 123 GBOPT5
_publ_author_name                  'Carpy, A.;Galy, J.'
_cell_length_a                     11.318(5)
_cell_length_b                     3.611(2)
_cell_length_c                     4.797(3)
_cell_angle_alpha                  90.
_cell_angle_beta                   90.
_cell_angle_gamma                  90.
_cell_volume                       196.05
_cell_formula_units_Z              2
_symmetry_space_group_name_H-M     'P 21 m n'
_symmetry_Int_Tables_number        31
_refine_ls_R_factor_all            .079
loop_
_symmetry_equiv_pos_site_id
_symmetry_equiv_pos_as_xyz
  1	'x+.5, y+.5, -z'
  2	'x+.5, -y+.5, -z'
  3	'x, -y, z'
  4	'x, y, z'
loop_
_atom_type_symbol
_atom_type_oxidation_number
Na1+	1
O2-	-2
V4+	4
V5+	5
loop_
_atom_site_label
_atom_site_type_symbol
_atom_site_symmetry_multiplicity
_atom_site_Wyckoff_symbol
_atom_site_fract_x
_atom_site_fract_y
_atom_site_fract_z
_atom_site_occupancy
_atom_site_attached_hydrogens
_atom_site_B_iso_or_equiv
V1 V4+ 2 a 0.1610(2) 0 0.1184(5) 1. 0 0.69 
V2 V5+ 2 a 0.8566(2) 0 0.0967(6) 1. 0 1.13 
O1 O2- 2 a 0.1429(9) 0 0.4594(18) 1. 0 1.85 
O2 O2- 2 a 0.3251(8) 0 -.0276(19) 1. 0 1.5 
O3 O2- 2 a 0.0046(19) 0 -.0182(15) 1. 0 1.53 
O4 O2- 2 a 0.6838(6) 0 0.0324(15) 1. 0 0.09 
O5 O2- 2 a 0.8777(9) 0 0.4125(22) 1. 0 2.49 
Na1 Na1+ 2 a 0.5198(8) 0 0.3652(12) 1. 0 3.23 

#End of data_1898-ICSD


