data_21042-ICSD
#?2014 by Fachinformationszentrum Karlsruhe, and the U.S. Secretary of 
#Commerce on behalf of the United States.  All rights reserved.
_database_code_ICSD                21042
_audit_creation_date               1980/01/01
_audit_update_record               2007/04/01
_chemical_name_systematic          'Calcium Digallate - Ht'
_chemical_formula_structural       'Ca (Ga2 O4)'
_chemical_formula_sum              'Ca1 Ga2 O4'
_publ_section_title
;
Ueber Erdalkalimetalloxogallate. III. Untersuchung des Aufbaus von Ca 
Ga2 O4
;
loop_
_citation_id
_citation_journal_abbrev
_citation_year
_citation_journal_volume
_citation_page_first
_citation_page_last
_citation_journal_id_ASTM
primary 'Zeitschrift fuer Anorganische und Allgemeine Chemie (1950) (DE)'
 1973 396 157 164 ZAACAB
2
;
Zeitschrift fuer Kristallographie, Kristallgeometrie, Kristallphysik, 
Kristallchemie (-144,1977)
;
 1963 118 252 262 ZEKGAX
_publ_author_name
;
Deiseroth, H.J.;Mueller Buschbaum, H.
;
_cell_length_a                     10.189
_cell_length_b                     7.725
_cell_length_c                     9.032
_cell_angle_alpha                  90.
_cell_angle_beta                   90.
_cell_angle_gamma                  90.
_cell_volume                       710.91
_cell_formula_units_Z              8
_symmetry_space_group_name_H-M     'P n a 21'
_symmetry_Int_Tables_number        33
loop_
_symmetry_equiv_pos_site_id
_symmetry_equiv_pos_as_xyz
  1	'x+.5, -y+.5, z'
  2	'-x+.5, y+.5, z+.5'
  3	'-x, -y, z+.5'
  4	'x, y, z'
loop_
_atom_type_symbol
_atom_type_oxidation_number
Ca2+	2
Ga3+	3
O2-	-2
loop_
_atom_site_label
_atom_site_type_symbol
_atom_site_symmetry_multiplicity
_atom_site_Wyckoff_symbol
_atom_site_fract_x
_atom_site_fract_y
_atom_site_fract_z
_atom_site_occupancy
_atom_site_attached_hydrogens
_atom_site_B_iso_or_equiv
Ca1 Ca2+ 4 a 0.3223 0.5081 0.1259 1. 0 0.38 
Ca2 Ca2+ 4 a 0.386 -.0009 0.0782 1. 0 0.39 
Ga1 Ga3+ 4 a 0.1174 0.2152 0.25 1. 0 0.09 
Ga2 Ga3+ 4 a 0.094 0.81333 0.2492 1. 0 0.18 
Ga3 Ga3+ 4 a 0.3479 0.7585 0.4228 1. 0 0.15 
Ga4 Ga3+ 4 a 0.3714 0.3086 0.4221 1. 0 0.11 
O1 O2- 4 a 0.297 0.209 0.257 1. 0 0.22 
O2 O2- 4 a 0.452 0.831 0.272 1. 0 0.3 
O3 O2- 4 a 0.094 0.369 0.097 1. 0 0.43 
O4 O2- 4 a 0.031 0.018 0.189 1. 0 0.67 
O5 O2- 4 a 0.045 0.262 0.432 1. 0 0.67 
O6 O2- 4 a 0.179 0.832 0.424 1. 0 0.53 
O7 O2- 4 a 0.202 0.74 0.101 1. 0 0.34 
O8 O2- 4 a 0.304 0.527 0.4 1. 0 0.54 

#End of data_21042-ICSD


