data_416931-ICSD
#?2014 by Fachinformationszentrum Karlsruhe, and the U.S. Secretary of 
#Commerce on behalf of the United States.  All rights reserved.
_database_code_ICSD                416931
_audit_creation_date               2007/08/01
_chemical_name_systematic
;
Tetrasilver(I) Copper(II) Hexaoxotellurate(VI)
;
_chemical_formula_structural       'Ag4 Cu Te O6'
_chemical_formula_sum              'Ag4 Cu1 O6 Te1'
_publ_section_title
;
Synthesis, Crystal Structure and Properties of Ag4 Cu Te O6
;
loop_
_citation_id
_citation_journal_abbrev
_citation_year
_citation_journal_volume
_citation_journal_issue
_citation_page_first
_citation_page_last
_citation_journal_id_ASTM
primary 'Zeitschrift fuer Anorganische und Allgemeine Chemie (1950) (DE)'
 2007 633 2 231 234 ZAACAB
_publ_author_name                  'Klein, W.;Curda, J.;Jansen, M.'
_cell_length_a                     11.3021(8)
_cell_length_b                     9.6875(6)
_cell_length_c                     5.7082(5)
_cell_angle_alpha                  90.00
_cell_angle_beta                   99.301(7)
_cell_angle_gamma                  90.00
_cell_volume                       616.77
_cell_formula_units_Z              4
_symmetry_space_group_name_H-M     'C 1 2/c 1'
_symmetry_Int_Tables_number        15
_refine_ls_R_factor_all            .0532
loop_
_symmetry_equiv_pos_site_id
_symmetry_equiv_pos_as_xyz
  1	'x, -y, z+.5'
  2	'-x, -y, -z'
  3	'-x, y, -z+.5'
  4	'x, y, z'
  5	'x+.5, -y+.5, z+.5'
  6	'-x+.5, -y+.5, -z'
  7	'-x+.5, y+.5, -z+.5'
  8	'x+.5, y+.5, z'
loop_
_atom_type_symbol
_atom_type_oxidation_number
Ag1+	1
Cu2+	2
O2-	-2
Te6+	6
loop_
_atom_site_label
_atom_site_type_symbol
_atom_site_symmetry_multiplicity
_atom_site_Wyckoff_symbol
_atom_site_fract_x
_atom_site_fract_y
_atom_site_fract_z
_atom_site_occupancy
_atom_site_attached_hydrogens
_atom_site_U_iso_or_equiv
Ag1 Ag1+ 4 e 0.5000 -0.07322(12) 0.2500 1 0 0.0255(3) 
Ag2 Ag1+ 4 d 0.2500 0.2500 0.5000 1 0 0.0318(4) 
Ag3 Ag1+ 8 f 0.23784(7) 0.41857(10) 0.02575(15) 1 0 0.0273(3) 
Cu1 Cu2+ 4 e 0.5000 0.58246(17) 0.2500 1 0 0.0133(4) 
Te1 Te6+ 4 e 0.5000 0.27509(9) 0.2500 1 0 0.0101(2) 
O1 O2- 8 f 0.3870(5) 0.1378(7) 0.3210(11) 1 0 0.0171(14) 
O2 O2- 8 f 0.3987(6) 0.4250(6) 0.3292(11) 1 0 0.0155(14) 
O3 O2- 8 f 0.4204(6) 0.2759(7) -0.0806(11) 1 0 0.0155(13) 

loop_
_atom_site_aniso_label
_atom_site_aniso_type_symbol
_atom_site_aniso_U_11
_atom_site_aniso_U_22
_atom_site_aniso_U_33
_atom_site_aniso_U_12
_atom_site_aniso_U_13
_atom_site_aniso_U_23
Ag1 Ag1+ 0.0444(8) 0.0130(5) 0.0190(5) 0.000 0.0044(5) 0.000
Ag2 Ag1+ 0.0230(7) 0.0436(9) 0.0325(7) 0.0004(5) 0.0160(6) -0.0027(5)
Ag3 Ag1+ 0.0193(4) 0.0337(6) 0.0261(4) -0.0002(3) -0.0045(4) -0.0046(3)
Cu1 Cu2+ 0.0166(9) 0.0110(8) 0.0130(7) 0.000 0.0042(7) 0.000
Te1 Te6+ 0.0123(5) 0.0112(4) 0.0067(4) 0.000 0.0011(3) 0.000
O1 O2- 0.017(3) 0.017(3) 0.017(3) -0.013(3) 0.002(3) -0.002(3)
O2 O2- 0.017(3) 0.013(3) 0.016(3) 0.001(3) 0.001(3) -0.005(2)
O3 O2- 0.015(3) 0.019(3) 0.012(3) -0.007(3) 0.000(3) -0.002(3)
#End of data_416931-ICSD


