data_16458-ICSD
#?2014 by Fachinformationszentrum Karlsruhe, and the U.S. Secretary of 
#Commerce on behalf of the United States.  All rights reserved.
_database_code_ICSD                16458
_audit_creation_date               1980/12/31
_chemical_name_systematic          'Potassium Octacyanoniobate(III)'
_chemical_formula_structural       'K5 (Nb (C N)8)'
_chemical_formula_sum              'C8 K5 N8 Nb1'
_publ_section_title
;
X-Ray Crystal Structure of K5 (Nb (C N)8) and a Change in the 
Structure of (Nb (C N)8)(5-) in Solution
;
loop_
_citation_id
_citation_journal_abbrev
_citation_year
_citation_journal_volume
_citation_page_first
_citation_page_last
_citation_journal_id_ASTM
primary 'Journal of the Chemical Society. Chemical Communications (1972-)'
 1980 1980 1167 1168 JCCCAT
_publ_author_name                  'Hursthouse, M.B.;Galas, A.M.R.'
_cell_length_a                     9.220(2)
_cell_length_b                     9.220(2)
_cell_length_c                     9.144(2)
_cell_angle_alpha                  90.
_cell_angle_beta                   90.
_cell_angle_gamma                  90.
_cell_volume                       777.32
_cell_formula_units_Z              2
_symmetry_space_group_name_H-M     'I -4'
_symmetry_Int_Tables_number        82
_refine_ls_R_factor_all            .03
loop_
_symmetry_equiv_pos_site_id
_symmetry_equiv_pos_as_xyz
  1	'-y, x, -z'
  2	'y, -x, -z'
  3	'-x, -y, z'
  4	'x, y, z'
  5	'-y+.5, x+.5, -z+.5'
  6	'y+.5, -x+.5, -z+.5'
  7	'-x+.5, -y+.5, z+.5'
  8	'x+.5, y+.5, z+.5'
loop_
_atom_type_symbol
_atom_type_oxidation_number
C2+	2
K1+	1
N3-	-3
Nb3+	3
loop_
_atom_site_label
_atom_site_type_symbol
_atom_site_symmetry_multiplicity
_atom_site_Wyckoff_symbol
_atom_site_fract_x
_atom_site_fract_y
_atom_site_fract_z
_atom_site_occupancy
_atom_site_attached_hydrogens
Nb1 Nb3+ 2 a 0 0 0 1. 0 
K1 K1+ 2 c 0 0.5 0.25 1. 0 
K2 K1+ 8 g 0.3734(1) 0.2326(1) 0.1048(1) 1. 0 
C1 C2+ 8 g 0.2266(4) -.0656(4) 0.0597(5) 1. 0 
N1 N3- 8 g 0.3455(4) -.1001(5) 0.0815(5) 1. 0 
C2 C2+ 8 g 0.0353(5) 0.1367(5) 0.2049(5) 1. 0 
N2 N3- 8 g 0.0475(5) 0.2027(5) 0.3112(5) 1. 0 

loop_
_atom_site_aniso_label
_atom_site_aniso_type_symbol
_atom_site_aniso_U_11
_atom_site_aniso_U_22
_atom_site_aniso_U_33
_atom_site_aniso_U_12
_atom_site_aniso_U_13
_atom_site_aniso_U_23
Nb1 Nb3+ 0.0124(2) 0.0124(2) 0.0105(3) 0 0 0
K1 K1+ 0.0275(7) 0.0275(7) 0.1166(28) 0 0 0
K2 K1+ 0.0302(5) 0.0294(5) 0.0213(6) 0.0027(4) 0.0002(4) 0.0005(4)
C1 C2+ 0.0211(20) 0.0182(18) 0.0155(17) -.0013(14) 0.0002(15) -.0038(14)
N1 N3- 0.0225(18) 0.0334(20) 0.0312(25) -.0034(15) -.0041(16) 0.0016(17)
C2 C2+ 0.0245(19) 0.025(2) 0.0171(21) 0.0018(15) 0.0026(15) -.0003(17)
N2 N3- 0.0385(22) 0.0325(21) 0.0236(21) -.0017(17) 0.0003(16) -.0080(17)
#End of data_16458-ICSD


