data_201666-ICSD
#?2014 by Fachinformationszentrum Karlsruhe, and the U.S. Secretary of 
#Commerce on behalf of the United States.  All rights reserved.
_database_code_ICSD                201666
_audit_creation_date               1985/08/06
_audit_update_record               2005/10/01
_chemical_name_systematic          'Magnesium Catena-germanate'
_chemical_formula_structural       'Mg (Ge O3)'
_chemical_formula_sum              'Ge1 Mg1 O3'
_chemical_name_mineral             Orthopyroxene-(Mg,Ge)
_publ_section_title
;
A high temperature transition in Mg Ge O3 from clinopyroxene (C2/c) 
type to orthopyroxene (Pbca) type
;
loop_
_citation_id
_citation_journal_abbrev
_citation_year
_citation_journal_volume
_citation_page_first
_citation_page_last
_citation_journal_id_ASTM
primary 'American Mineralogist' 1985 70 365 374 AMMIAY
2 'Golden Book of Phase Transitions, Wroclaw' 2002 1 1 123 GBOPT5
_publ_author_name
;
Yamanaka, T.;Hirano, M.;Takeuchi, Y.
;
_cell_length_a                     19.0110(50)
_cell_length_b                     9.084(2)
_cell_length_c                     5.415(2)
_cell_angle_alpha                  90.
_cell_angle_beta                   90.
_cell_angle_gamma                  90.
_cell_volume                       935.15
_cell_formula_units_Z              16
_symmetry_space_group_name_H-M     'P b c a'
_symmetry_Int_Tables_number        61
_refine_ls_R_factor_all            .1155
loop_
_symmetry_equiv_pos_site_id
_symmetry_equiv_pos_as_xyz
  1	'x+.5, y, -z+.5'
  2	'x, -y+.5, z+.5'
  3	'-x+.5, y+.5, z'
  4	'-x, -y, -z'
  5	'-x+.5, -y, z+.5'
  6	'-x, y+.5, -z+.5'
  7	'x+.5, -y+.5, -z'
  8	'x, y, z'
loop_
_atom_type_symbol
_atom_type_oxidation_number
Ge4+	4
Mg2+	2
O2-	-2
loop_
_atom_site_label
_atom_site_type_symbol
_atom_site_symmetry_multiplicity
_atom_site_Wyckoff_symbol
_atom_site_fract_x
_atom_site_fract_y
_atom_site_fract_z
_atom_site_occupancy
_atom_site_attached_hydrogens
_atom_site_B_iso_or_equiv
Mg1 Mg2+ 8 c 0.1237(7) 0.3647(16) 0.3565(24) 1. 0 2.66(22) 
Mg2 Mg2+ 8 c 0.3776(7) 0.4874(16) 0.3532(28) 1. 0 2.97(25) 
Ge1 Ge4+ 8 c 0.2710(17) 0.3450(39) 0.0422(64) 1. 0 1.56(5) 
Ge2 Ge4+ 8 c 0.4729(2) 0.3387(4) 0.8035(6) 1. 0 1.74(5) 
O1 O2- 8 c 0.1771(11) 0.3347(27) 0.0250(44) 1. 0 2.04(41) 
O2 O2- 8 c 0.3093(13) 0.5150(31) 0.0437(56) 1. 0 3.04(54) 
O3 O2- 8 c 0.3069(14) 0.2141(30) 0.8324(60) 1. 0 3.32(56) 
O4 O2- 8 c 0.5667(13) 0.3415(32) 0.8090(56) 1. 0 3.07(49) 
O5 O2- 8 c 0.4289(12) 0.4852(27) 0.6791(53) 1. 0 2.32(45) 
O6 O2- 8 c 0.4481(10) 0.1745(23) 0.6290(37) 1. 0 1.08(34) 

#End of data_201666-ICSD


