data_39587-ICSD
#?2014 by Fachinformationszentrum Karlsruhe, and the U.S. Secretary of 
#Commerce on behalf of the United States.  All rights reserved.
_database_code_ICSD                39587
_audit_creation_date               1993/08/22
_chemical_name_systematic
;
Potassium Tricarbonyltrichloroosmate(II)
;
_chemical_formula_structural       'K (Os (C O)3 Cl3)'
_chemical_formula_sum              'C3 Cl3 K1 O3 Os1'
_publ_section_title
;
Synthesis and crystal structure of potassium and cesium 
tricarbonyltrichloroosmates(II) K(Os(CO)3Cl3) and Cs(Os(CO)3Cl3)
;
loop_
_citation_id
_citation_journal_abbrev
_citation_year
_citation_journal_volume
_citation_page_first
_citation_page_last
_citation_journal_id_ASTM
primary 'Zhurnal Neorganicheskoi Khimii' 1992 37 1997 2005 ZNOKAQ
_publ_author_name
;
Berngardt, E.A.;Ellern, A.M.;Sinitsyn, N.M.;Struchkov, Yu.T.;Kokunov, 
Yu.V.
;
_cell_length_a                     22.335(4)
_cell_length_b                     11.273(2)
_cell_length_c                     21.923(4)
_cell_angle_alpha                  90.
_cell_angle_beta                   100.32(3)
_cell_angle_gamma                  90.
_cell_volume                       5430.53
_cell_formula_units_Z              24
_symmetry_space_group_name_H-M     'C 1 2/c 1'
_symmetry_Int_Tables_number        15
_refine_ls_R_factor_all            .053
loop_
_symmetry_equiv_pos_site_id
_symmetry_equiv_pos_as_xyz
  1	'x, -y, z+.5'
  2	'-x, -y, -z'
  3	'-x, y, -z+.5'
  4	'x, y, z'
  5	'x+.5, -y+.5, z+.5'
  6	'-x+.5, -y+.5, -z'
  7	'-x+.5, y+.5, -z+.5'
  8	'x+.5, y+.5, z'
loop_
_atom_type_symbol
_atom_type_oxidation_number
C2+	2
Cl1-	-1
K1+	1
O2-	-2
Os2+	2
loop_
_atom_site_label
_atom_site_type_symbol
_atom_site_symmetry_multiplicity
_atom_site_Wyckoff_symbol
_atom_site_fract_x
_atom_site_fract_y
_atom_site_fract_z
_atom_site_occupancy
_atom_site_attached_hydrogens
_atom_site_U_iso_or_equiv
Os1 Os2+ 8 f 0.2165(1) 0.2468(1) 0.1123(1) 1. 0 0.008(1) 
Os2 Os2+ 8 f 0.0380(1) 0.7488(1) 0.1312(1) 1. 0 0.009(1) 
Os3 Os2+ 8 f 0.3654(1) 0.7449(1) 0.1622(1) 1. 0 0.008(1) 
K1 K1+ 8 f 0.1624(2) 0.5809(3) 0.0248(2) 1. 0 0.016(1) 
K2 K1+ 8 f 0.0311(2) 0.3058(3) 0.0771(2) 1. 0 0.015(1) 
K3 K1+ 8 f 0.3843(2) 0.5236(3) -.0025(2) 1. 0 0.015(1) 
Cl1 Cl1- 8 f 0.1340(2) 0.1235(3) 0.1338(2) 1. 0 0.013(1) 
Cl2 Cl1- 8 f 0.1676(2) 0.4159(3) 0.1498(2) 1. 0 0.013(1) 
Cl3 Cl1- 8 f 0.1534(2) 0.2878(3) 0.0121(2) 1. 0 0.014(1) 
Cl4 Cl1- 8 f 0.0019(2) 0.8751(3) 0.0435(2) 1. 0 0.013(1) 
Cl5 Cl1- 8 f 0.1402(2) 0.7821(3) 0.1124(2) 1. 0 0.013(1) 
Cl6 Cl1- 8 f 0.0288(2) 0.5888(3) 0.0573(2) 1. 0 0.014(1) 
Cl7 Cl1- 8 f 0.4420(2) 0.6174(3) 0.1308(2) 1. 0 0.013(1) 
Cl8 Cl1- 8 f 0.3024(2) 0.7057(3) 0.0618(2) 1. 0 0.013(1) 
Cl9 Cl1- 8 f 0.4098(2) 0.9105(3) 0.1151(2) 1. 0 0.014(1) 
C1 C2+ 8 f 0.2772(7) 0.3435(14) 0.0933(7) 1. 0 0.011(4) 
C2 C2+ 8 f 0.2487(8) 0.1109(16) 0.0769(7) 1. 0 0.015(5) 
C3 C2+ 8 f 0.2615(8) 0.2171(16) 0.1921(8) 1. 0 0.017(5) 
C4 C2+ 8 f 0.0664(8) 0.6393(13) 0.1962(8) 1. 0 0.014(5) 
C5 C2+ 8 f -.0446(8) 0.7278(15) 0.1409(7) 1. 0 0.014(5) 
C6 C2+ 8 f 0.0500(9) 0.8794(16) 0.1871(8) 1. 0 0.017(5) 
C7 C2+ 8 f 0.3063(7) 0.8469(17) 0.1824(7) 1. 0 0.014(5) 
C8 C2+ 8 f 0.4170(7) 0.7768(14) 0.2378(7) 1. 0 0.013(4) 
C9 C2+ 8 f 0.3299(3) 0.6145(16) 0.1971(7) 1. 0 0.016(5) 
O1 O2- 8 f 0.3148(6) 0.4111(13) 0.0830(7) 1. 0 0.027(5) 
O2 O2- 8 f 0.2640(6) 0.0245(10) 0.0565(6) 1. 0 0.020(4) 
O3 O2- 8 f 0.2884(7) 0.1987(14) 0.2411(6) 1. 0 0.031(5) 
O4 O2- 8 f 0.0824(7) 0.5713(13) 0.2340(6) 1. 0 0.032(5) 
O5 O2- 8 f -.0936(7) 0.7220(14) 0.1476(9) 1. 0 0.039(6) 
O6 O2- 8 f 0.0575(7) 0.9565(14) 0.2221(7) 1. 0 0.032(5) 
O7 O2- 8 f 0.2704(6) 0.9179(12) 0.1924(6) 1. 0 0.021(4) 
O8 O2- 8 f 0.4479(5) 0.7978(12) 0.2847(5) 1. 0 0.021(4) 
O9 O2- 8 f 0.3113(7) 0.5298(13) 0.2145(6) 1. 0 0.028(4) 

#End of data_39587-ICSD


