data_61401-ICSD
#?2014 by Fachinformationszentrum Karlsruhe, and the U.S. Secretary of 
#Commerce on behalf of the United States.  All rights reserved.
_database_code_ICSD                61401
_audit_creation_date               1988/02/22
_chemical_name_systematic
;
Octasodiumdecaselenidotetragermanate(IV)
;
_chemical_formula_structural       'Na8 Ge4 Se10'
_chemical_formula_sum              'Ge4 Na8 Se10'
_publ_section_title
;
Oligoselenidogermanate(III): Zur Kenntnis von Na6 Ge2 Se6 und Na8 Ge4 
Se10
;
loop_
_citation_id
_citation_journal_abbrev
_citation_year
_citation_journal_volume
_citation_page_first
_citation_page_last
_citation_journal_id_ASTM
primary 'Materials Research Bulletin' 1985 20 1339 1346 MRBUAC
_publ_author_name
;
Eisenmann, B.;Hansa, J.;Schaefer, H.
;
_cell_length_a                     7.074(5)
_cell_length_b                     8.098(5)
_cell_length_c                     10.657(6)
_cell_angle_alpha                  73.44(15)
_cell_angle_beta                   70.84(15)
_cell_angle_gamma                  81.73(15)
_cell_volume                       551.9
_cell_formula_units_Z              1
_symmetry_space_group_name_H-M     'P -1'
_symmetry_Int_Tables_number        2
_refine_ls_R_factor_all            .0815
loop_
_symmetry_equiv_pos_site_id
_symmetry_equiv_pos_as_xyz
  1	'-x, -y, -z'
  2	'x, y, z'
loop_
_atom_type_symbol
_atom_type_oxidation_number
Ge3+	3
Na1+	1
Se2-	-2
loop_
_atom_site_label
_atom_site_type_symbol
_atom_site_symmetry_multiplicity
_atom_site_Wyckoff_symbol
_atom_site_fract_x
_atom_site_fract_y
_atom_site_fract_z
_atom_site_occupancy
_atom_site_attached_hydrogens
Se1 Se2- 2 i 0.7394(4) 0.7539(4) 0.2545(3) 1. 0 
Se2 Se2- 2 i 0.4612(4) 0.2517(3) 0.3273(3) 1. 0 
Se3 Se2- 2 i 0.1655(4) 0.7884(3) 0.4258(2) 1. 0 
Se4 Se2- 2 i 0.3579(4) 0.7443(4) 0.0524(2) 1. 0 
Se5 Se2- 2 i 0.9363(4) 0.7564(3) 0.8469(2) 1. 0 
Ge1 Ge3+ 2 i 0.3830(4) 0.1551(3) 0.1660(2) 1. 0 
Ge2 Ge3+ 2 i 0.5730(4) 0.1569(3) 0.7715(2) 1. 0 
Na1 Na1+ 2 i 0.7293(19) 0.5064(15) 0.1038(11) 1. 0 
Na2 Na1+ 1 a 0 0 0 1. 0 
Na3 Na1+ 1 h 0.5 0.5 0.5 1. 0 
Na4 Na1+ 2 i 0.0851(19) 0.4801(15) 0.3169(11) 1. 0 
Na5 Na1+ 2 i 0.7923(19) 0.9971(16) 0.4088(12) 1. 0 

loop_
_atom_site_aniso_label
_atom_site_aniso_type_symbol
_atom_site_aniso_U_11
_atom_site_aniso_U_22
_atom_site_aniso_U_33
_atom_site_aniso_U_12
_atom_site_aniso_U_13
_atom_site_aniso_U_23
Se1 Se2- 0.0281(16) 0.0226(15) 0.0185(13) 0.0000(12) -.0136(11) -.0055(11)
Se2 Se2- 0.0270(15) 0.0201(14) 0.0183(13) 0.0026(11) -.0112(11) -.0115(10)
Se3 Se2- 0.0205(14) 0.0214(14) 0.0103(12) 0.0004(11) -.0004(10) -.0055(10)
Se4 Se2- 0.0306(16) 0.0240(14) 0.0094(11) -.0069(11) -.0094(11) -.0056(10)
Se5 Se2- 0.0184(13) 0.0207(14) 0.0122(12) 0.0003(10) -.0053(10) -.0057(10)
Ge1 Ge3+ 0.0196(14) 0.0132(13) 0.0106(12) 0.0013(11) -.0073(10) -.0066(10)
Ge2 Ge3+ 0.0199(14) 0.0150(14) 0.0064(11) -.0020(11) -.0054(10) -.0028(9)
Na1 Na1+ 0.0390(66) 0.0324(66) 0.0207(54) 0.0019(52) -.0112(49) -.0159(48)
Na2 Na1+ 0.0254(83) 0.0107(72) 0.0285(78) -.0114(61) -.0041(65) -.0034(59)
Na3 Na1+ 0.043(11) 0.0290(95) 0.0295(87) 0.0079(78) -.0249(80) -.0081(70)
Na4 Na1+ 0.0398(67) 0.0274(64) 0.0223(53) -.0072(50) -.0086(49) -.0057(46)
Na5 Na1+ 0.0366(71) 0.0431(77) 0.0275(60) -.0054(57) -.0132(53) -.0077(53)
#End of data_61401-ICSD


