data_68365-ICSD
#?2014 by Fachinformationszentrum Karlsruhe, and the U.S. Secretary of 
#Commerce on behalf of the United States.  All rights reserved.
_database_code_ICSD                68365
_audit_creation_date               1991/07/10
_audit_update_record               2000/07/15
_chemical_name_systematic
;
Strontium Dialuminium Pentaoxide Dichloride
;
_chemical_formula_structural       'Sr3 Al2 O5 Cl2'
_chemical_formula_sum              'Al2 Cl2 O5 Sr3'
_publ_section_title
;
Sr3 Al2 O3 Cl2, ein Oxohalogenoaluminat mit Ba3 Fe2 O5 Cl2 - Struktur
;
loop_
_citation_id
_citation_journal_abbrev
_citation_year
_citation_journal_volume
_citation_page_first
_citation_page_last
_citation_journal_id_ASTM
primary 'Revue de Chimie Minerale' 1986 23 760 765 RVCMA8
_publ_author_name                  'Leib, W.;Mueller Buschbaum, H.'
_cell_length_a                     9.4220(8)
_cell_length_b                     9.4220(8)
_cell_length_c                     9.4220(8)
_cell_angle_alpha                  90.
_cell_angle_beta                   90.
_cell_angle_gamma                  90.
_cell_volume                       836.43
_cell_formula_units_Z              4
_symmetry_space_group_name_H-M     'P 21 21 21'
_symmetry_Int_Tables_number        19
_refine_ls_R_factor_all            .088
loop_
_symmetry_equiv_pos_site_id
_symmetry_equiv_pos_as_xyz
  1	'-x, y+.5, -z+.5'
  2	'x+.5, -y+.5, -z'
  3	'-x+.5, -y, z+.5'
  4	'x, y, z'
loop_
_atom_type_symbol
_atom_type_oxidation_number
Al3+	3
Cl1-	-1
O2-	-2
Sr2+	2
loop_
_atom_site_label
_atom_site_type_symbol
_atom_site_symmetry_multiplicity
_atom_site_Wyckoff_symbol
_atom_site_fract_x
_atom_site_fract_y
_atom_site_fract_z
_atom_site_occupancy
_atom_site_attached_hydrogens
_atom_site_B_iso_or_equiv
Sr1 Sr2+ 4 a 0.4114(2) 0.9877(2) 0.2594(2) 1. 0 0.25(3) 
Sr2 Sr2+ 4 a 0.2408(3) 0.4113(2) 0.0038(3) 1. 0 0.66(3) 
Sr3 Sr2+ 4 a 0.0080(3) 0.2549(3) 0.4112(2) 1. 0 0.65(3) 
Al1 Al3+ 4 a 0.0933(9) 0.0981(8) 0.0957(8) 1. 0 0.34(10) 
Al2 Al3+ 4 a 0.6001(8) 0.5954(7) 0.5988(7) 1. 0 0.37(9) 
Cl1 Cl1- 4 a 0.3158(8) 0.2964(8) 0.3033(8) 1. 0 1.26(11) 
Cl2 Cl1- 4 a 0.7969(8) 0.8162(8) 0.8104(8) 1. 0 1.1(1) 
O1 O2- 4 a 0.982(2) 0.996(2) 0.007(2) 1. 0 0.50(23) 
O2 O2- 4 a 0.497(2) 0.483(2) 0.482(2) 1. 0 1.06(19) 
O3 O2- 4 a 0.144(2) 0.999(2) 0.251(3) 1. 0 0.91(21) 
O4 O2- 4 a 0.242(2) 0.144(1) 0.982(2) 1. 0 1.02(19) 
O5 O2- 4 a 0.998(2) 0.250(3) 0.144(2) 1. 0 1.14(23) 

#End of data_68365-ICSD


