data_402012-ICSD
#?2014 by Fachinformationszentrum Karlsruhe, and the U.S. Secretary of 
#Commerce on behalf of the United States.  All rights reserved.
_database_code_ICSD                402012
_audit_creation_date               1995/10/17
_audit_update_record               1997/11/10
_chemical_name_systematic
;
Calcium Copper Phyllo-tetrasilicate
;
_chemical_formula_structural       'Ca Cu Si4 O10'
_chemical_formula_sum              'Ca1 Cu1 O10 Si4'
_chemical_name_mineral             Cuprorivaite
_publ_section_title
;
Crystal structure of calcium copper phyllo-decaoxotetrasilicate, Ca 
Cu Si4 O10
;
loop_
_citation_id
_citation_journal_abbrev
_citation_year
_citation_journal_volume
_citation_page_first
_citation_page_last
_citation_journal_id_ASTM
primary 'Zeitschrift fuer Kristallographie (1979-2010)' 1995 210 530 530 ZEKRDZ
_publ_author_name                  'Bensch, W.;Schur, M.'
_cell_length_a                     7.314(1)
_cell_length_b                     7.314(1)
_cell_length_c                     15.168(8)
_cell_angle_alpha                  90.
_cell_angle_beta                   90.
_cell_angle_gamma                  90.
_cell_volume                       811.41
_cell_formula_units_Z              4
_symmetry_space_group_name_H-M     'P 4/n c c S'
_symmetry_Int_Tables_number        130
_refine_ls_R_factor_all            .017
loop_
_symmetry_equiv_pos_site_id
_symmetry_equiv_pos_as_xyz
  1	'y+.5, x+.5, z+.5'
  2	'y+.5, -x+.5, z'
  3	'-y, -x, -z+.5'
  4	'y, -x, -z'
  5	'-y+.5, -x+.5, z+.5'
  6	'-y+.5, x+.5, z'
  7	'y, x, -z+.5'
  8	'-y, x, -z'
  9	'x+.5, -y+.5, -z+.5'
 10	'-x+.5, -y+.5, -z'
 11	'x, -y, z+.5'
 12	'-x, -y, z'
 13	'-x+.5, y+.5, -z+.5'
 14	'x+.5, y+.5, -z'
 15	'-x, y, z+.5'
 16	'x, y, z'
loop_
_atom_type_symbol
_atom_type_oxidation_number
Ca2+	2
Cu2+	2
O2-	-2
Si4+	4
loop_
_atom_site_label
_atom_site_type_symbol
_atom_site_symmetry_multiplicity
_atom_site_Wyckoff_symbol
_atom_site_fract_x
_atom_site_fract_y
_atom_site_fract_z
_atom_site_occupancy
_atom_site_attached_hydrogens
Cu1 Cu2+ 4 c 0 0.5 0.08174(3) 1. 0 
Ca1 Ca2+ 4 b 0 0 0 1. 0 
Si1 Si4+ 16 g 0.25297(6) 0.17687(6) 0.14739(3) 1. 0 
O1 O2- 8 f 0.21120(19) 0.21120(19) 0.25 1. 0 
O2 O2- 16 g 0.45754(16) 0.25200(17) 0.12642(8) 1. 0 
O3 O2- 16 g 0.10323(16) 0.25729(14) 0.08213(8) 1. 0 

loop_
_atom_site_aniso_label
_atom_site_aniso_type_symbol
_atom_site_aniso_U_11
_atom_site_aniso_U_22
_atom_site_aniso_U_33
_atom_site_aniso_U_12
_atom_site_aniso_U_13
_atom_site_aniso_U_23
Cu1 Cu2+ 0.00485(21) 0.00485(21) 0.01123(27) 0 0 0
Ca1 Ca2+ 0.00855(26) 0.00855(26) 0.00879(35) 0 0 0
Si1 Si4+ 0.00520(27) 0.00552(26) 0.00802(28) 0.00004(15) 0.00054(15) 
-.00062(15)
O1 O2- 0.02414(60) 0.02414(60) 0.01079(87) -.00340(79) 0.21730(62) 
-.00560(62)
O2 O2- 0.00664(53) 0.01485(63) 0.01610(59) -.00155(45) -.00121(48) 
0.00273(44)
O3 O2- 0.00826(56) 0.00665(55) 0.01740(67) 0.00146(40) -.00370(42) 
-.00110(44)
#End of data_402012-ICSD


