data_79814-ICSD
#?2014 by Fachinformationszentrum Karlsruhe, and the U.S. Secretary of 
#Commerce on behalf of the United States.  All rights reserved.
_database_code_ICSD                79814
_audit_creation_date               1996/10/14
_chemical_name_systematic          'Aluminium Trifluoride - Theta'
_chemical_formula_structural       'Al F3'
_chemical_formula_sum              'Al1 F3'
_publ_section_title
;
Preparation and structural characterization of two new phases of 
aluminium trifluoride
;
loop_
_citation_id
_citation_journal_abbrev
_citation_year
_citation_journal_volume
_citation_page_first
_citation_page_last
_citation_journal_id_ASTM
primary 'Chemistry of Materials' 1995 7 75 83 CMATEX
_publ_author_name
;
Herron, N.;Thorn, D.L.;Harlow, R.L.;Jones, G.A.;Parise, 
J.B.;Fernandez-Baca, J.A.;Vogt, T.
;
_cell_length_a                     10.1844(1)
_cell_length_b                     10.1844(1)
_cell_length_c                     7.1728(1)
_cell_angle_alpha                  90.
_cell_angle_beta                   90.
_cell_angle_gamma                  90.
_cell_volume                       743.98
_cell_formula_units_Z              16
_symmetry_space_group_name_H-M     'P 4/n m m Z'
_symmetry_Int_Tables_number        129
_refine_ls_R_factor_all            .033
loop_
_symmetry_equiv_pos_site_id
_symmetry_equiv_pos_as_xyz
  1	'y+.5, x+.5, -z'
  2	'-y, x+.5, -z'
  3	'y+.5, -x, -z'
  4	'-y, -x, -z'
  5	'x+.5, y+.5, -z'
  6	'-x, y+.5, -z'
  7	'x+.5, -y, -z'
  8	'-x, -y, -z'
  9	'-y+.5, -x+.5, z'
 10	'y, -x+.5, z'
 11	'-y+.5, x, z'
 12	'y, x, z'
 13	'-x+.5, -y+.5, z'
 14	'x, -y+.5, z'
 15	'-x+.5, y, z'
 16	'x, y, z'
loop_
_atom_type_symbol
_atom_type_oxidation_number
Al3+	3
F1-	-1
loop_
_atom_site_label
_atom_site_type_symbol
_atom_site_symmetry_multiplicity
_atom_site_Wyckoff_symbol
_atom_site_fract_x
_atom_site_fract_y
_atom_site_fract_z
_atom_site_occupancy
_atom_site_attached_hydrogens
_atom_site_U_iso_or_equiv
Al1 Al3+ 4 d 0 0 0 1. 0 0.0071(4) 
Al2 Al3+ 2 c 0.25 0.25 -.0932(4) 1. 0 0.0077(6) 
Al3 Al3+ 2 c 0.25 0.25 0.4137(4) 1. 0 0.0074(7) 
Al4 Al3+ 8 i 0.25 -.0862(1) 0.3274(2) 1. 0 0.0070(3) 
F1 F1- 8 j 0.1208(1) 0.1208(1) -.0923(3) 1. 0 0.0075(5) 
F2 F1- 16 k 0.1223(1) -.0522(1) 0.1610(2) 1. 0 0.0102(4) 
F3 F1- 2 c 0.25 0.25 0.1573(6) 1. 0 0.0119(11) 
F4 F1- 2 c 0.25 0.25 0.6645(6) 1. 0 0.0106(11) 
F5 F1- 8 i 0.25 0.0770(2) 0.4130(3) 1. 0 0.0098(6) 
F6 F1- 8 h 0.1262(1) 0.8738(1) 0.5 1. 0 0.0111(6) 
F7 F1- 4 f 0.25 0.75 0.2433(5) 1. 0 0.0070(8) 

#End of data_79814-ICSD


