data_200613-ICSD
#?2014 by Fachinformationszentrum Karlsruhe, and the U.S. Secretary of 
#Commerce on behalf of the United States.  All rights reserved.
_database_code_ICSD                200613
_audit_creation_date               1980/01/01
_audit_update_record               2005/10/01
_chemical_name_systematic
;
Potassium Iron(III) Phosphate(V) Fluoride
;
_chemical_formula_structural       'K Fe (P O4) F'
_chemical_formula_sum              'F1 Fe1 K1 O4 P1'
_publ_section_title
;
The crystal structure of potassium ferric fluoro-orthophosphate, K Fe 
(P O4) F
;
loop_
_citation_id
_citation_journal_abbrev
_citation_year
_citation_journal_volume
_citation_page_first
_citation_page_last
_citation_journal_id_ASTM
primary 'Doklady Akademii Nauk SSSR' 1979 246 875 878 DANKAS
2 'Golden Book of Phase Transitions, Wroclaw' 2002 1 1 123 GBOPT5
_publ_author_name
;
Matvienko, E.N.;Yakubovich, O.V.;Simonov, M.A.;Belov, N.V.
;
_cell_length_a                     10.656(4)
_cell_length_b                     12.885(6)
_cell_length_c                     6.370(2)
_cell_angle_alpha                  90.
_cell_angle_beta                   90.
_cell_angle_gamma                  90.
_cell_volume                       874.62
_cell_formula_units_Z              8
_symmetry_space_group_name_H-M     'P 21 n b'
_symmetry_Int_Tables_number        33
_refine_ls_R_factor_all            .039
loop_
_symmetry_equiv_pos_site_id
_symmetry_equiv_pos_as_xyz
  1	'x, y+.5, -z+.5'
  2	'x+.5, -y+.5, z+.5'
  3	'x+.5, -y, -z'
  4	'x, y, z'
loop_
_atom_type_symbol
_atom_type_oxidation_number
F1-	-1
Fe3+	3
K1+	1
O2-	-2
P5+	5
loop_
_atom_site_label
_atom_site_type_symbol
_atom_site_symmetry_multiplicity
_atom_site_Wyckoff_symbol
_atom_site_fract_x
_atom_site_fract_y
_atom_site_fract_z
_atom_site_occupancy
_atom_site_attached_hydrogens
_atom_site_B_iso_or_equiv
Fe1 Fe3+ 4 a 0 0.1114(1) -.0055(4) 1. 0 0.24 
Fe2 Fe3+ 4 a 0.2503(5) 0.2463(2) 0.2518(5) 1. 0 0.24 
P1 P5+ 4 a -.0020(8) 0.1835(2) 0.4987(9) 1. 0 0.38 
P2 P5+ 4 a 0.2491(8) -.0003(4) 0.1711(4) 1. 0 0.4 
K1 K1+ 4 a 0.4419(5) 0.1044(3) 0.6925(6) 1. 0 1.43 
K2 K1+ 4 a 0.7000(5) 0.1219(3) 0.2754(6) 1. 0 1.47 
O1 O2- 4 a 0.732(1) 0.0984(8) 0.690(2) 1. 0 0.7 
O2 O2- 4 a 0.607(1) 0.2428(9) 0.948(2) 1. 0 0.8 
O3 O2- 4 a 0.880(1) 0.2534(9) 0.534(2) 1. 0 0.5 
O4 O2- 4 a 0.024(1) 0.1146(9) 0.694(2) 1. 0 0.5 
O5 O2- 4 a 0.268(1) 0.0952(8) 0.307(2) 1. 0 0.5 
O6 O2- 4 a 0.130(1) 0.0098(9) 0.033(2) 1. 0 0.3 
O7 O2- 4 a 0.969(1) 0.1129(9) 0.308(9) 1. 0 0.9 
O8 O2- 4 a 0.358(1) -.016(1) 0.018(2) 1. 0 0.9 
F1 F1- 4 a 0.868(1) 0.2250(9) 0.981(2) 1. 0 0.6 
F2 F1- 4 a 0.119(1) 0.2307(9) 0.027(2) 1. 0 0.6 

#End of data_200613-ICSD


