data_86209-ICSD
#?2014 by Fachinformationszentrum Karlsruhe, and the U.S. Secretary of 
#Commerce on behalf of the United States.  All rights reserved.
_database_code_ICSD                86209
_audit_creation_date               1999/11/30
_chemical_name_systematic          'Calcium Chloride'
_chemical_formula_structural       'Ca Cl2'
_chemical_formula_sum              'Ca1 Cl2'
_publ_section_title
;
Phase transition sequence induced by high-pressure in Ca Cl2
;
loop_
_citation_id
_citation_journal_abbrev
_citation_year
_citation_journal_volume
_citation_journal_issue
_citation_page_first
_citation_page_last
_citation_journal_id_ASTM
primary 'Journal of Physics and Chemistry of Solids' 1998 59 8 1199 1204 JPCSAW
_publ_author_name
;
Leger, J.M.;Haines, J.;Danneels, C.
;
_cell_length_a                     7.029
_cell_length_b                     8.366
_cell_length_c                     4.172
_cell_angle_alpha                  90.
_cell_angle_beta                   90.
_cell_angle_gamma                  90.
_cell_volume                       245.33
_cell_formula_units_Z              4
_symmetry_space_group_name_H-M     'P n a m'
_symmetry_Int_Tables_number        62
loop_
_symmetry_equiv_pos_site_id
_symmetry_equiv_pos_as_xyz
  1	'x+.5, -y+.5, z'
  2	'x, y, -z+.5'
  3	'-x+.5, y+.5, z+.5'
  4	'-x, -y, -z'
  5	'-x+.5, y+.5, -z'
  6	'-x, -y, z+.5'
  7	'x+.5, -y+.5, -z+.5'
  8	'x, y, z'
loop_
_atom_type_symbol
_atom_type_oxidation_number
Ca2+	2
Cl1-	-1
loop_
_atom_site_label
_atom_site_type_symbol
_atom_site_symmetry_multiplicity
_atom_site_Wyckoff_symbol
_atom_site_fract_x
_atom_site_fract_y
_atom_site_fract_z
_atom_site_occupancy
_atom_site_attached_hydrogens
Ca1 Ca2+ 4 c 0.23 0.13 0.25 1. 0 
Cl1 Cl1- 4 c 0.35 0.43 0.25 1. 0 
Cl2 Cl1- 4 c 0.01 0.33 0.25 1. 0 

#End of data_86209-ICSD


