data_405538-ICSD
#?2014 by Fachinformationszentrum Karlsruhe, and the U.S. Secretary of 
#Commerce on behalf of the United States.  All rights reserved.
_database_code_ICSD                405538
_audit_creation_date               1997/05/13
_audit_update_record               2002/04/01
_chemical_name_systematic          'Cesium Sodium Telluride'
_chemical_formula_structural       'Cs Na Te'
_chemical_formula_sum              'Cs1 Na1 Te1'
_publ_section_title                'The crystal structure of Cs Na Te'
loop_
_citation_id
_citation_journal_abbrev
_citation_year
_citation_journal_volume
_citation_page_first
_citation_page_last
_citation_journal_id_ASTM
primary 'Zeitschrift fuer Naturforschung, B: Chemical Sciences'
 1996 51 1576 1578 ZNBSEN
_publ_author_name
;
Fischer, K.;Feldbaum-Moeller, E.;Vogt, P.;Wachhold, M.;Winter, 
V.;Sabrowsky, H.
;
_cell_length_a                     5.276(1)
_cell_length_b                     5.276(1)
_cell_length_c                     8.478(2)
_cell_angle_alpha                  90.
_cell_angle_beta                   90.
_cell_angle_gamma                  90.
_cell_volume                       236
_cell_formula_units_Z              2
_symmetry_space_group_name_H-M     'P 4/n m m Z'
_symmetry_Int_Tables_number        129
_refine_ls_R_factor_all            .0862
loop_
_symmetry_equiv_pos_site_id
_symmetry_equiv_pos_as_xyz
  1	'y+.5, x+.5, -z'
  2	'-y, x+.5, -z'
  3	'y+.5, -x, -z'
  4	'-y, -x, -z'
  5	'x+.5, y+.5, -z'
  6	'-x, y+.5, -z'
  7	'x+.5, -y, -z'
  8	'-x, -y, -z'
  9	'-y+.5, -x+.5, z'
 10	'y, -x+.5, z'
 11	'-y+.5, x, z'
 12	'y, x, z'
 13	'-x+.5, -y+.5, z'
 14	'x, -y+.5, z'
 15	'-x+.5, y, z'
 16	'x, y, z'
loop_
_atom_type_symbol
_atom_type_oxidation_number
Cs1+	1
Na1+	1
Te2-	-2
loop_
_atom_site_label
_atom_site_type_symbol
_atom_site_symmetry_multiplicity
_atom_site_Wyckoff_symbol
_atom_site_fract_x
_atom_site_fract_y
_atom_site_fract_z
_atom_site_occupancy
_atom_site_attached_hydrogens
Te1 Te2- 2 c 0.25 0.25 0.7997(2) 1. 0 
Cs1 Cs1+ 2 c 0.25 0.25 0.3434(2) 1. 0 
Na1 Na1+ 2 a 0.75 0.25 0 1. 0 

loop_
_atom_site_aniso_label
_atom_site_aniso_type_symbol
_atom_site_aniso_U_11
_atom_site_aniso_U_22
_atom_site_aniso_U_33
_atom_site_aniso_U_12
_atom_site_aniso_U_13
_atom_site_aniso_U_23
Te1 Te2- 0.0269(7) 0.0269(7) 0.0260(8) 0 0 0
Cs1 Cs1+ 0.0347(8) 0.0347(8) 0.0330(9) 0 0 0
Na1 Na1+ 0.040(3) 0.040(3) 0.003(3) 0 0 0
#End of data_405538-ICSD


