data_401350-ICSD
#?2014 by Fachinformationszentrum Karlsruhe, and the U.S. Secretary of 
#Commerce on behalf of the United States.  All rights reserved.
_database_code_ICSD                401350
_audit_creation_date               1995/10/17
_audit_update_record               2000/07/15
_chemical_name_systematic          'Silver Cadmium Vanadate'
_chemical_formula_structural       'Ag Cd (V O4)'
_chemical_formula_sum              'Ag1 Cd1 O4 V1'
_publ_section_title
;
Zur Kristallchemie eines Silber-Cadmium-Oxovanadats: Ag Cd V O4
;
loop_
_citation_id
_citation_journal_abbrev
_citation_year
_citation_journal_volume
_citation_page_first
_citation_page_last
_citation_journal_id_ASTM
primary 'Zeitschrift fuer Naturforschung, B: Chemical Sciences'
 1995 50 703 706 ZNBSEN
_publ_author_name                  'Muenchau, S.;Mueller Buschbaum, H.'
_cell_length_a                     9.7859(12)
_cell_length_b                     6.9939(10)
_cell_length_c                     5.4391(10)
_cell_angle_alpha                  90.
_cell_angle_beta                   90.
_cell_angle_gamma                  90.
_cell_volume                       372.26
_cell_formula_units_Z              4
_symmetry_space_group_name_H-M     'P n m a'
_symmetry_Int_Tables_number        62
_refine_ls_R_factor_all            .042
loop_
_symmetry_equiv_pos_site_id
_symmetry_equiv_pos_as_xyz
  1	'x+.5, y, -z+.5'
  2	'x, -y+.5, z'
  3	'-x+.5, y+.5, z+.5'
  4	'-x, -y, -z'
  5	'-x+.5, -y, z+.5'
  6	'-x, y+.5, -z'
  7	'x+.5, -y+.5, -z+.5'
  8	'x, y, z'
loop_
_atom_type_symbol
_atom_type_oxidation_number
Ag1+	1
Cd2+	2
O2-	-2
V5+	5
loop_
_atom_site_label
_atom_site_type_symbol
_atom_site_symmetry_multiplicity
_atom_site_Wyckoff_symbol
_atom_site_fract_x
_atom_site_fract_y
_atom_site_fract_z
_atom_site_occupancy
_atom_site_attached_hydrogens
_atom_site_U_iso_or_equiv
Ag1 Ag1+ 4 c 0.35028(2) 0.25 0.00582(5) 1. 0 0 
V1 V5+ 4 c 0.67921(4) 0.25 0.01201(10) 1. 0 0 
Cd1 Cd2+ 4 a 0.5 0.5 0.5 1. 0 0 
O1 O2- 4 c 0.8590(2) 0.25 0.0548(4) 1. 0 0.0070(4) 
O2 O2- 4 c 0.6267(2) 0.25 -.2922(4) 1. 0 0.0108(4) 
O3 O2- 8 d 0.6172(2) 0.4425(3) 0.1569(3) 1. 0 0.0122(3) 

loop_
_atom_site_aniso_label
_atom_site_aniso_type_symbol
_atom_site_aniso_U_11
_atom_site_aniso_U_22
_atom_site_aniso_U_33
_atom_site_aniso_U_12
_atom_site_aniso_U_13
_atom_site_aniso_U_23
Ag1 Ag1+ 0.01891(8) 0.02106(11) 0.01164(9) 0 -.00239(12) 0
V1 V5+ 0.00154(11) 0.0081(2) 0.0030(2) 0 -.0004(2) 0
Cd1 Cd2+ 0.00768(6) 0.01204(8) 0.00998(8) -.00215(6) 0.00262(11) -.00148(9)
#End of data_401350-ICSD


