data_34565-ICSD
#?2014 by Fachinformationszentrum Karlsruhe, and the U.S. Secretary of 
#Commerce on behalf of the United States.  All rights reserved.
_database_code_ICSD                34565
_audit_creation_date               1980/01/01
_audit_update_record               2012/08/01
_chemical_name_systematic          'Disodium Zinc Silicate - D-phase'
_chemical_formula_structural       'Na2 Zn (Si O4)'
_chemical_formula_sum              'Na2 O4 Si1 Zn1'
_publ_section_title
;
Crystal structures of Na2 Zn (Si O4) and Na2 Be (Si O4), refined with 
allowance for thermal vibration anisotropy of the atoms
;
loop_
_citation_id
_citation_journal_abbrev
_citation_year
_citation_journal_volume
_citation_page_first
_citation_page_last
_citation_journal_id_ASTM
primary Kristallografiya 1979 24 1177 1183 KRISAJ
2 'Soviet Physics, Crystallography (= Kristallografiya)'
 1979 24 674 677 SPHCA6
_publ_author_name                  'Plakhov, G.F.;Belov, N.V.'
_cell_length_a                     5.248(1)
_cell_length_b                     7.025(2)
_cell_length_c                     5.445(1)
_cell_angle_alpha                  90.
_cell_angle_beta                   90.
_cell_angle_gamma                  89.77(2)
_cell_volume                       200.74
_cell_formula_units_Z              2
_symmetry_space_group_name_H-M     'P 1 1 n'
_symmetry_Int_Tables_number        7
_refine_ls_R_factor_all            .037
loop_
_symmetry_equiv_pos_site_id
_symmetry_equiv_pos_as_xyz
  1	'x+.5, y+.5, -z'
  2	'x, y, z'
loop_
_atom_type_symbol
_atom_type_oxidation_number
Na1+	1
O2-	-2
Si4+	4
Zn2+	2
loop_
_atom_site_label
_atom_site_type_symbol
_atom_site_symmetry_multiplicity
_atom_site_Wyckoff_symbol
_atom_site_fract_x
_atom_site_fract_y
_atom_site_fract_z
_atom_site_occupancy
_atom_site_attached_hydrogens
Zn1 Zn2+ 2 a 0 0 0.1889(1) 1. 0 
Si1 Si4+ 2 a 0.0045(3) 0.2460(2) 0.6882(2) 1. 0 
Na1 Na1+ 2 a 0.4847(8) 0.2470(6) 0.3214(4) 1. 0 
Na2 Na1+ 2 a 0.4884(9) 0.9929(7) 0.8144(3) 1. 0 
O1 O2- 2 a 0.9294(6) 0.2158(4) 0.3979(5) 1. 0 
O2 O2- 2 a 0.3131(5) 0.2719(4) 0.7141(6) 1. 0 
O3 O2- 2 a 0.9257(6) 0.0537(4) 0.8439(5) 1. 0 
O4 O2- 2 a 0.8656(6) 0.4372(4) 0.7883(5) 1. 0 

#End of data_34565-ICSD


