data_63006-ICSD
#?2014 by Fachinformationszentrum Karlsruhe, and the U.S. Secretary of 
#Commerce on behalf of the United States.  All rights reserved.
_database_code_ICSD                63006
_audit_creation_date               1989/06/19
_chemical_name_systematic
;
Calcium Zinc Tetrabromide Pentahydrate
;
_chemical_formula_structural       'Ca Zn Br4 (H2 O)5'
_chemical_formula_sum              'H10 Br4 Ca1 O5 Zn1'
_publ_section_title
;
Structure of Calcium Zinc Tetrabromide Pentahydrate
;
loop_
_citation_id
_citation_journal_abbrev
_citation_year
_citation_journal_volume
_citation_page_first
_citation_page_last
_citation_journal_id_ASTM
primary 'Acta Crystallographica, Section C: Crystal Structure Communications'
 1988 44 962 965 ACSCEE
_publ_author_name
;
Duhlev, R.;Brown, I.D.;Faggiani, R.
;
_cell_length_a                     7.472(2)
_cell_length_b                     9.722(3)
_cell_length_c                     10.020(3)
_cell_angle_alpha                  84.67(2)
_cell_angle_beta                   113.43(2)
_cell_angle_gamma                  112.38(2)
_cell_volume                       616.09
_cell_formula_units_Z              2
_symmetry_space_group_name_H-M     'P -1'
_symmetry_Int_Tables_number        2
_refine_ls_R_factor_all            .049
loop_
_symmetry_equiv_pos_site_id
_symmetry_equiv_pos_as_xyz
  1	'-x, -y, -z'
  2	'x, y, z'
loop_
_atom_type_symbol
_atom_type_oxidation_number
Br1-	-1
Ca2+	2
H1+	1
O2-	-2
Zn2+	2
loop_
_atom_site_label
_atom_site_type_symbol
_atom_site_symmetry_multiplicity
_atom_site_Wyckoff_symbol
_atom_site_fract_x
_atom_site_fract_y
_atom_site_fract_z
_atom_site_occupancy
_atom_site_attached_hydrogens
_atom_site_U_iso_or_equiv
Zn1 Zn2+ 2 i 0.11811(16) 0.72577(11) 0.26705(11) 1. 0 0.0243(2) 
Br1 Br1- 2 i 0.24257(15) 0.70816(11) 0.08128(10) 1. 0 0.0328(2) 
Br2 Br1- 2 i 0.24091(15) 0.99208(10) 0.32686(10) 1. 0 0.0286(2) 
Br3 Br1- 2 i 0.29967(17) 0.61493(11) 0.47212(10) 1. 0 0.0347(2) 
Br4 Br1- 2 i -.25621(15) 0.62119(10) 0.16895(11) 1. 0 0.0319(2) 
Ca1 Ca2+ 2 i -.0784(3) 0.1468(2) 0.2118(2) 1. 0 0.0262(2) 
O1 O2- 2 i 0.2256(11) 0.3383(8) 0.1998(8) 1. 0 0.042(2) 
O2 O2- 2 i 0.0916(11) 0.2357(7) 0.4610(7) 1. 0 0.039(2) 
O3 O2- 2 i -.287(1) -.0481(7) 0.3183(7) 1. 0 0.033(2) 
O4 O2- 2 i -.2938(13) 0.2642(8) 0.2254(8) 1. 0 0.060(2) 
O5 O2- 2 i -.2463(12) -.0488(7) 0.0292(7) 1. 0 0.043(2) 
H1 H1+ 2 i 0.3523 0.3462 0.3163 1. 0 0.08(2) 
H2 H1+ 2 i 0.2091 0.3949 0.1546 1. 0 0.08(2) 
H3 H1+ 2 i 0.202 0.3527 0.5222 1. 0 0.08(2) 
H4 H1+ 2 i 0.1877 0.2017 0.532 1. 0 0.08(2) 
H5 H1+ 2 i -.4005 -.1601 0.2805 1. 0 0.08(2) 
H6 H1+ 2 i -.3082 -.0391 0.3951 1. 0 0.08(2) 
H7 H1+ 2 i -.2681 0.3597 0.1818 1. 0 0.08(2) 
H8 H1+ 2 i -.3005 0.2799 0.2805 1. 0 0.08(2) 
H9 H1+ 2 i -.2747 -.173 0.0555 1. 0 0.08(2) 
H10 H1+ 2 i -.2276 -.0311 -.0477 1. 0 0.08(2) 

#End of data_63006-ICSD


