data_60284-ICSD
#?2014 by Fachinformationszentrum Karlsruhe, and the U.S. Secretary of 
#Commerce on behalf of the United States.  All rights reserved.
_database_code_ICSD                60284
_audit_creation_date               1986/12/03
_audit_update_record               1999/06/02
_chemical_name_systematic
;
Dipotassium Diberyllium Hexasilicate
;
_chemical_formula_structural       'K2 Be2 Si6 O15'
_chemical_formula_sum              'Be2 K2 O15 Si6'
_chemical_name_mineral             'Epididymite, potassian'
_publ_section_title
;
Crystal structure of synthetic K2 Be2 Si6 O15 of the epidimite group
;
loop_
_citation_id
_citation_journal_abbrev
_citation_year
_citation_journal_volume
_citation_page_first
_citation_page_last
_citation_journal_id_ASTM
primary 'Doklady Akademii Nauk SSSR' 1976 229 856 859 DANKAS
_publ_author_name
;
Naumova, I.S.;Pobedimskaya, E.A.;Pushcharovskii, D.Yu.;Belov, 
N.V.;Altukhova, Yu.N.
;
_cell_length_a                     7.485
_cell_length_b                     15.453
_cell_length_c                     11.148
_cell_angle_alpha                  90.
_cell_angle_beta                   90.
_cell_angle_gamma                  90.
_cell_volume                       1289.44
_cell_formula_units_Z              4
_symmetry_space_group_name_H-M     'C m c 21'
_symmetry_Int_Tables_number        36
_refine_ls_R_factor_all            .069
loop_
_symmetry_equiv_pos_site_id
_symmetry_equiv_pos_as_xyz
  1	'x, -y, z+.5'
  2	'-x, -y, z+.5'
  3	'-x, y, z'
  4	'x, y, z'
  5	'x+.5, -y+.5, z+.5'
  6	'-x+.5, -y+.5, z+.5'
  7	'-x+.5, y+.5, z'
  8	'x+.5, y+.5, z'
loop_
_atom_type_symbol
_atom_type_oxidation_number
Be2+	2
K1+	1
O2-	-2
Si4+	4
loop_
_atom_site_label
_atom_site_type_symbol
_atom_site_symmetry_multiplicity
_atom_site_Wyckoff_symbol
_atom_site_fract_x
_atom_site_fract_y
_atom_site_fract_z
_atom_site_occupancy
_atom_site_attached_hydrogens
_atom_site_B_iso_or_equiv
K1 K1+ 4 a 0.5 0.2818 0.3619 1. 0 2.48 
K2 K1+ 4 a 0.5 0.3987 0.084 1. 0 0.93 
Be1 Be2+ 8 b 0.1489 0.3798 0.2275 1. 0 0.26 
Si1 Si4+ 8 b 0.2117 0.2095 0.1336 1. 0 0.61 
Si2 Si4+ 8 b 0.2046 0.0556 0.3103 1. 0 0.4 
Si3 Si4+ 4 a 0 0.3497 0.4659 1. 0 0.32 
Si4 Si4+ 4 a 0 0.4545 0.0009 1. 0 0.52 
O1 O2- 8 b 0.322 0.2 0.0109 1. 0 0.67 
O2 O2- 8 b 0.2583 0.1291 0.2164 1. 0 1.35 
O3 O2- 8 b 0.3245 0.0764 0.4296 1. 0 0.85 
O4 O2- 8 b 0.2701 0.2958 0.1945 1. 0 0.72 
O5 O2- 8 b 0.2704 0.4623 0.4631 1. 0 1.16 
O6 O2- 4 a 0 0.216 0.0984 1. 0 2.36 
O7 O2- 4 a 0 0.4063 0.1283 1. 0 0.68 
O8 O2- 4 a 0 0.0715 0.3518 1. 0 0.13 
O9 O2- 4 a 0 0.3542 0.332 1. 0 0.52 
O10 O2- 4 a 0 0.4409 0.5256 1. 0 0.95 

#End of data_60284-ICSD


