data_83377-ICSD
#?2014 by Fachinformationszentrum Karlsruhe, and the U.S. Secretary of 
#Commerce on behalf of the United States.  All rights reserved.
_database_code_ICSD                83377
_audit_creation_date               1998/06/26
_chemical_name_systematic          'Potassium Iodate(VII)'
_chemical_formula_structural       'K (I O4)'
_chemical_formula_sum              'I1 K1 O4'
_publ_section_title
;
Strukturverfeinerung von Kalium-periodat bei 297 K und 150 K
;
loop_
_citation_id
_citation_journal_abbrev
_citation_year
_citation_journal_volume
_citation_page_first
_citation_page_last
_citation_journal_id_ASTM
primary 'Zeitschrift fuer Naturforschung, B: Chemical Sciences'
 1996 51 444 446 ZNBSEN
_publ_author_name                  'de Waal, D.;Range, K.J.'
_cell_length_a                     5.704(1)
_cell_length_b                     5.704(1)
_cell_length_c                     12.478(8)
_cell_angle_alpha                  90.
_cell_angle_beta                   90.
_cell_angle_gamma                  90.
_cell_volume                       405.98
_cell_formula_units_Z              4
_symmetry_space_group_name_H-M     'I 41/a Z'
_symmetry_Int_Tables_number        88
_refine_ls_R_factor_all            .021
loop_
_symmetry_equiv_pos_site_id
_symmetry_equiv_pos_as_xyz
  1	'-y+.75, x+.75, -z+.75'
  2	'y+.25, -x+.75, -z+.75'
  3	'x, y+.5, -z'
  4	'-x, -y, -z'
  5	'y+.25, -x+.25, z+.25'
  6	'-y+.75, x+.25, z+.25'
  7	'-x, -y+.5, z'
  8	'x, y, z'
  9	'-y+.25, x+.25, -z+.25'
 10	'y+.75, -x+.25, -z+.25'
 11	'x+.5, y, -z+.5'
 12	'-x+.5, -y+.5, -z+.5'
 13	'y+.75, -x+.75, z+.75'
 14	'-y+.25, x+.75, z+.75'
 15	'-x+.5, -y, z+.5'
 16	'x+.5, y+.5, z+.5'
loop_
_atom_type_symbol
_atom_type_oxidation_number
I7+	7
K1+	1
O2-	-2
loop_
_atom_site_label
_atom_site_type_symbol
_atom_site_symmetry_multiplicity
_atom_site_Wyckoff_symbol
_atom_site_fract_x
_atom_site_fract_y
_atom_site_fract_z
_atom_site_occupancy
_atom_site_attached_hydrogens
I1 I7+ 4 a 0 0.25 0.125 1. 0 
K1 K1+ 4 b 0 0.75 0.375 1. 0 
O1 O2- 16 f 0.1305(5) 0.4705(5) 0.2038(2) 1. 0 

loop_
_atom_site_aniso_label
_atom_site_aniso_type_symbol
_atom_site_aniso_U_11
_atom_site_aniso_U_22
_atom_site_aniso_U_33
_atom_site_aniso_U_12
_atom_site_aniso_U_13
_atom_site_aniso_U_23
I1 I7+ 0.0076(5) 0.0076(5) 0.0085(6) 0 0 0
K1 K1+ 0.0146(9) 0.0146(9) 0.0078(14) 0 0 0
O1 O2- 0.012(1) 0.012(1) 0.014(1) -.003(1) 0.000(1) -.003(1)
#End of data_83377-ICSD


