data_162237-ICSD
#?2014 by Fachinformationszentrum Karlsruhe, and the U.S. Secretary of 
#Commerce on behalf of the United States.  All rights reserved.
_database_code_ICSD                162237
_audit_creation_date               2009/08/01
_audit_update_record               2013/08/01
_chemical_name_systematic
;
Zinc Tungstate - Hp, Beta-fergusonite Phase
;
_chemical_formula_structural       'Zn (W O4)'
_chemical_formula_sum              'O4 W1 Zn1'
_publ_section_title
;
Combined Raman scattering and ab initio investigation of pressure-
induced structural phase transitions in the scintillator Zn W O4
;
loop_
_citation_id
_citation_journal_abbrev
_citation_year
_citation_journal_volume
_citation_page_first
_citation_page_last
_citation_journal_id_ASTM
primary 'Physical Review, Serie 3. B - Condensed Matter (18,1978-)'
 2008 78 054116-1 054116-12 PRBMDO
_publ_author_name
;
Errandonea, D.;Manjon, F.J.;Garro, N.;Rodriguez Hernandez, 
P.;Radescu, S.;Mujica, A.;Munoz, A.;Tu, C.-Y.
;
_cell_length_a                     6.814
_cell_length_b                     9.177
_cell_length_c                     4.819
_cell_angle_alpha                  90.
_cell_angle_beta                   134.976
_cell_angle_gamma                  90.
_cell_volume                       213.17
_cell_formula_units_Z              4
_symmetry_space_group_name_H-M     'C 1 2/c 1'
_symmetry_Int_Tables_number        15
loop_
_symmetry_equiv_pos_site_id
_symmetry_equiv_pos_as_xyz
  1	'x, -y, z+.5'
  2	'-x, -y, -z'
  3	'-x, y, -z+.5'
  4	'x, y, z'
  5	'x+.5, -y+.5, z+.5'
  6	'-x+.5, -y+.5, -z'
  7	'-x+.5, y+.5, -z+.5'
  8	'x+.5, y+.5, z'
loop_
_atom_type_symbol
_atom_type_oxidation_number
O2-	-2
W6+	6
Zn2+	2
loop_
_atom_site_label
_atom_site_type_symbol
_atom_site_symmetry_multiplicity
_atom_site_Wyckoff_symbol
_atom_site_fract_x
_atom_site_fract_y
_atom_site_fract_z
_atom_site_occupancy
_atom_site_attached_hydrogens
Zn1 Zn2+ 4 e 0 0.3750 0.250 1. 0 
W1 W6+ 4 e 0 0.8753 0.250 1. 0 
O1 O2- 8 f 0.1787 0.7994 0.1222 1. 0 
O2 O2- 8 f 0.3066 0.9507 0.7355 1. 0 

#End of data_162237-ICSD


