data_16355-ICSD
#?2014 by Fachinformationszentrum Karlsruhe, and the U.S. Secretary of 
#Commerce on behalf of the United States.  All rights reserved.
_database_code_ICSD                16355
_audit_creation_date               1980/12/31
_chemical_name_systematic          'Calcium Iron Oxide (1/4/6)'
_chemical_formula_structural       'Ca Fe4 O6'
_chemical_formula_sum              'Ca1 Fe4 O6'
_publ_section_title
;
Mise en evidence de Ca Fe4 O6 et determination des structures 
cristallines des ferrites de calcium Ca Fe(2+n) O(4+n) (n= 1,2,3): 
nouvel exemple d'intercroissance
;
loop_
_citation_id
_citation_journal_abbrev
_citation_year
_citation_journal_volume
_citation_page_first
_citation_page_last
_citation_journal_id_ASTM
primary 'Journal of Solid State Chemistry' 1980 35 112 119 JSSCBI
_publ_author_name
;
Evrard, O.;Malaman, B.;Jeannot, F.;Courtois, A.;Alebouyeh, 
H.;Gerardin, R.
;
_cell_length_a                     3.050(1)
_cell_length_b                     9.986(1)
_cell_length_c                     15.321(2)
_cell_angle_alpha                  90.
_cell_angle_beta                   90.
_cell_angle_gamma                  90.
_cell_volume                       466.64
_cell_formula_units_Z              4
_symmetry_space_group_name_H-M     'C m c m'
_symmetry_Int_Tables_number        63
_refine_ls_R_factor_all            .047
loop_
_symmetry_equiv_pos_site_id
_symmetry_equiv_pos_as_xyz
  1	'-x, y, -z+.5'
  2	'-x, -y, z+.5'
  3	'-x, y, z'
  4	'-x, -y, -z'
  5	'x, -y, z+.5'
  6	'x, y, -z+.5'
  7	'x, -y, -z'
  8	'x, y, z'
  9	'-x+.5, y+.5, -z+.5'
 10	'-x+.5, -y+.5, z+.5'
 11	'-x+.5, y+.5, z'
 12	'-x+.5, -y+.5, -z'
 13	'x+.5, -y+.5, z+.5'
 14	'x+.5, y+.5, -z+.5'
 15	'x+.5, -y+.5, -z'
 16	'x+.5, y+.5, z'
loop_
_atom_type_symbol
_atom_type_oxidation_number
Ca2+	2
Fe2+	2
Fe3+	3
O2-	-2
loop_
_atom_site_label
_atom_site_type_symbol
_atom_site_symmetry_multiplicity
_atom_site_Wyckoff_symbol
_atom_site_fract_x
_atom_site_fract_y
_atom_site_fract_z
_atom_site_occupancy
_atom_site_attached_hydrogens
_atom_site_B_iso_or_equiv
Ca1 Ca2+ 4 c 0 0.6528(2) 0.25 1. 0 0.76 
Fe1 Fe2+ 8 f 0 0.1352(1) 0.4554(7) 1. 0 0.39 
Fe2 Fe3+ 8 f 0 0.4028(1) 0.3629(7) 1. 0 0.4 
O1 O2- 4 c 0 0.3211(8) 0.25 1. 0 0.64 
O2 O2- 8 f 0 0.7784(7) 0.4220(4) 1. 0 1.05 
O3 O2- 8 f 0 0.0412(6) 0.3451(3) 1. 0 0.76 
O4 O2- 4 b 0 0.5 0 1. 0 1.1 

#End of data_16355-ICSD


