data_75429-ICSD
#?2014 by Fachinformationszentrum Karlsruhe, and the U.S. Secretary of 
#Commerce on behalf of the United States.  All rights reserved.
_database_code_ICSD                75429
_audit_creation_date               1996/04/22
_chemical_name_systematic
;
Potassium Phyllo-trithiodicupro(I)arsenate(III)
;
_chemical_formula_structural       'K (Cu2 As S3)'
_chemical_formula_sum              'As1 Cu2 K1 S3'
_publ_section_title
;
Synthesis of new low-dimensional quaternary compounds, K Cu2 As S3 
and K Cu4 As S4, in supercritical amine solvent. Alkali metal 
derivatives of sulfosalts
;
loop_
_citation_id
_citation_journal_abbrev
_citation_year
_citation_journal_volume
_citation_page_first
_citation_page_last
_citation_journal_id_ASTM
primary 'Inorganic Chemistry' 1994 33 1733 1734 INOCAJ
_publ_author_name
;
Jerome, J.E.;Wood, P.T.;Pennington, W.T.;Kolis, J.W.
;
_cell_length_a                     6.270(1)
_cell_length_b                     8.942(1)
_cell_length_c                     10.281(1)
_cell_angle_alpha                  90.72(1)
_cell_angle_beta                   91.47(1)
_cell_angle_gamma                  91.06(1)
_cell_volume                       576.08
_cell_formula_units_Z              4
_symmetry_space_group_name_H-M     'P -1'
_symmetry_Int_Tables_number        2
_refine_ls_R_factor_all            .039
loop_
_symmetry_equiv_pos_site_id
_symmetry_equiv_pos_as_xyz
  1	'-x, -y, -z'
  2	'x, y, z'
loop_
_atom_type_symbol
_atom_type_oxidation_number
As3+	3
Cu1+	1
K1+	1
S2-	-2
loop_
_atom_site_label
_atom_site_type_symbol
_atom_site_symmetry_multiplicity
_atom_site_Wyckoff_symbol
_atom_site_fract_x
_atom_site_fract_y
_atom_site_fract_z
_atom_site_occupancy
_atom_site_attached_hydrogens
As1 As3+ 2 i 0.4656(1) 0.6885(1) 0.1523(1) 1. 0 
As2 As3+ 2 i -.0215(1) 0.4478(1) 0.3543(1) 1. 0 
Cu1 Cu1+ 2 i 0.4939(2) 0.4041(1) 0.1632(1) 1. 0 
Cu2 Cu1+ 2 i -.0150(2) 0.7456(1) 0.3557(1) 1. 0 
Cu3 Cu1+ 2 i -.0698(2) 0.6443(1) 0.0391(1) 1. 0 
Cu4 Cu1+ 2 i 0.4314(2) 0.6520(1) 0.4557(1) 1. 0 
K1 K1+ 2 i 0.7962(3) 0.0668(2) 0.1320(2) 1. 0 
K2 K1+ 2 i 0.2990(3) 0.0694(2) 0.3705(2) 1. 0 
S1 S2- 2 i 0.1516(3) 0.8084(2) 0.1641(2) 1. 0 
S2 S2- 2 i 0.6324(3) 0.8069(2) 0.3245(2) 1. 0 
S3 S2- 2 i 0.6321(3) 0.7801(2) -.0232(2) 1. 0 
S4 S2- 2 i 0.3373(3) 0.4177(2) 0.3597(2) 1. 0 
S5 S2- 2 i 0.8647(3) 0.4163(2) 0.1456(2) 1. 0 
S6 S2- 2 i 0.8515(3) 0.2287(2) 0.4398(2) 1. 0 

loop_
_atom_site_aniso_label
_atom_site_aniso_type_symbol
_atom_site_aniso_U_11
_atom_site_aniso_U_22
_atom_site_aniso_U_33
_atom_site_aniso_U_12
_atom_site_aniso_U_13
_atom_site_aniso_U_23
As1 As3+ 0.004(1) 0.008(1) 0.006(1) 0.001(1) 0.000(1) 0.000(1)
As2 As3+ 0.005(1) 0.008(1) 0.007(1) 0.002(1) 0.000(1) -.002(1)
Cu1 Cu1+ 0.013(1) 0.021(1) 0.011(1) -.001(1) 0.002(1) -.004(1)
Cu2 Cu1+ 0.012(1) 0.021(1) 0.013(1) 0.003(1) -.001(1) -.001(1)
Cu3 Cu1+ 0.012(1) 0.022(1) 0.021(1) 0.002(1) 0.001(1) 0.000(1)
Cu4 Cu1+ 0.020(1) 0.026(1) 0.014(1) -.007(1) 0.005(1) -.002(1)
K1 K1+ 0.021(1) 0.013(1) 0.019(1) 0.002(1) -.002(1) 0.002(1)
K2 K1+ 0.023(1) 0.018(1) 0.033(1) 0.005(1) -.005(1) -.008(1)
S1 S2- 0.006(1) 0.014(1) 0.008(1) 0.004(1) -.001(1) -.001(1)
S2 S2- 0.007(1) 0.013(1) 0.006(1) 0.001(1) -.001(1) 0.000(1)
S3 S2- 0.008(1) 0.012(1) 0.005(1) 0.000(1) -.001(1) 0.000(1)
S4 S2- 0.005(1) 0.015(1) 0.007(1) 0.001(1) 0.000(1) 0.001(1)
S5 S2- 0.008(1) 0.013(1) 0.005(1) 0.000(1) 0.000(1) -.001(1)
S6 S2- 0.007(1) 0.012(1) 0.008(1) 0.000(1) -.001(1) 0.002(1)
#End of data_75429-ICSD


