data_95849-ICSD
#?2014 by Fachinformationszentrum Karlsruhe, and the U.S. Secretary of 
#Commerce on behalf of the United States.  All rights reserved.
_database_code_ICSD                95849
_audit_creation_date               2004/04/01
_audit_update_record               2012/02/01
_chemical_name_systematic
;
Dipotassium Neodymium Trithiophosphate(IV) Tetrathiophosphate(V)
;
_chemical_formula_structural       'K2 Nd (P S3) (P S4)'
_chemical_formula_sum              'K2 Nd1 P2 S7'
_publ_section_title
;
K2 Nd P2 S7: a mixed-valent neodymium(III) thiophosphate according to 
K4 Nd2 (P S4)2 (P2 S6) with discrete (P S4)(3-) and (S3 P - P S3)(4-) 
anions
;
loop_
_citation_id
_citation_journal_abbrev
_citation_year
_citation_journal_volume
_citation_page_first
_citation_page_last
_citation_journal_id_ASTM
primary 'Zeitschrift fuer Anorganische und Allgemeine Chemie (1950) (DE)'
 2002 628 7 9 ZAACAB
_publ_author_name
;
Schleid, T.;Hartenbach, I.;Komm, T.
;
_cell_length_a                     9.0476(8)
_cell_length_b                     6.7738(6)
_cell_length_c                     19.887(2)
_cell_angle_alpha                  90
_cell_angle_beta                   97.295(5)
_cell_angle_gamma                  90
_cell_volume                       1208.94
_cell_formula_units_Z              4
_symmetry_space_group_name_H-M     'P 1 21/n 1'
_symmetry_Int_Tables_number        14
_refine_ls_R_factor_all            .026
loop_
_symmetry_equiv_pos_site_id
_symmetry_equiv_pos_as_xyz
  1	'-x+.5, y+.5, -z+.5'
  2	'-x, -y, -z'
  3	'x+.5, -y+.5, z+.5'
  4	'x, y, z'
loop_
_atom_type_symbol
_atom_type_oxidation_number
K1+	1
Nd3+	3
P4+	4
P5+	5
S2-	-2
loop_
_atom_site_label
_atom_site_type_symbol
_atom_site_symmetry_multiplicity
_atom_site_Wyckoff_symbol
_atom_site_fract_x
_atom_site_fract_y
_atom_site_fract_z
_atom_site_occupancy
_atom_site_attached_hydrogens
_atom_site_U_iso_or_equiv
K1 K1+ 4 e 0.2601(1) 0.4919(1) 0.01057(5) 1. 0 0.0340(2) 
K2 K1+ 4 e 0.1476(1) 0.4821(1) 0.30686(5) 1. 0 0.0431(2) 
Nd1 Nd3+ 4 e 0.31131(2) 0.47273(2) 0.65061(1) 1. 0 0.0160(1) 
P1 P5+ 4 e 0.09941(9) 0.0137(1) 0.66844(4) 1. 0 0.0143(2) 
P2 P4+ 4 e 0.41716(9) 0.4925(1) 0.45489(4) 1. 0 0.0158(2) 
S1 S2- 4 e 0.41063(9) 0.2714(1) 0.89110(4) 1. 0 0.0228(2) 
S2 S2- 4 e 0.04694(9) 0.2459(1) 0.60598(4) 1. 0 0.0223(2) 
S3 S2- 4 e 0.04542(9) 0.0079(1) 0.26171(4) 1. 0 0.0244(2) 
S4 S2- 4 e 0.30611(9) 0.0704(1) 0.71992(4) 1. 0 0.0194(2) 
S5 S2- 4 e 0.22321(9) 0.4731(1) 0.49211(4) 1. 0 0.0228(2) 
S6 S2- 4 e 0.47352(9) 0.2568(1) 0.40132(4) 1. 0 0.0218(2) 
S7 S2- 4 e 0.05166(9) 0.2403(1) 0.09892(4) 1. 0 0.0219(2) 

#End of data_95849-ICSD


