data_62029-ICSD
#?2014 by Fachinformationszentrum Karlsruhe, and the U.S. Secretary of 
#Commerce on behalf of the United States.  All rights reserved.
_database_code_ICSD                62029
_audit_creation_date               1988/02/22
_chemical_name_systematic          'Niobium Aluminium Octachloride'
_chemical_formula_structural       'Nb Al Cl8'
_chemical_formula_sum              'Al1 Cl8 Nb1'
_publ_section_title
;
NbAlCl8: A Molecular Dinuclear Complex in the Solid, Melt, and Vapor 
Phases. Synthesis, Crystal Structure, and Raman Spectra
;
loop_
_citation_id
_citation_journal_abbrev
_citation_year
_citation_journal_volume
_citation_page_first
_citation_page_last
_citation_journal_id_ASTM
primary 'Inorganic Chemistry' 1984 23 164 171 INOCAJ
_publ_author_name
;
Krebs, B.;Janssen, H.;Bjerrum, N.J.;Berg, R.W.;Papatheodorou, G.N.
;
_cell_length_a                     8.016(2)
_cell_length_b                     17.139(4)
_cell_length_c                     8.116(2)
_cell_angle_alpha                  90.
_cell_angle_beta                   90.
_cell_angle_gamma                  90.
_cell_volume                       1115.03
_cell_formula_units_Z              4
_symmetry_space_group_name_H-M     'C m c m'
_symmetry_Int_Tables_number        63
_refine_ls_R_factor_all            .03
loop_
_symmetry_equiv_pos_site_id
_symmetry_equiv_pos_as_xyz
  1	'-x, y, -z+.5'
  2	'-x, -y, z+.5'
  3	'-x, y, z'
  4	'-x, -y, -z'
  5	'x, -y, z+.5'
  6	'x, y, -z+.5'
  7	'x, -y, -z'
  8	'x, y, z'
  9	'-x+.5, y+.5, -z+.5'
 10	'-x+.5, -y+.5, z+.5'
 11	'-x+.5, y+.5, z'
 12	'-x+.5, -y+.5, -z'
 13	'x+.5, -y+.5, z+.5'
 14	'x+.5, y+.5, -z+.5'
 15	'x+.5, -y+.5, -z'
 16	'x+.5, y+.5, z'
loop_
_atom_type_symbol
_atom_type_oxidation_number
Al3+	3
Cl1-	-1
Nb5+	5
loop_
_atom_site_label
_atom_site_type_symbol
_atom_site_symmetry_multiplicity
_atom_site_Wyckoff_symbol
_atom_site_fract_x
_atom_site_fract_y
_atom_site_fract_z
_atom_site_occupancy
_atom_site_attached_hydrogens
Nb1 Nb5+ 4 c 0 0.11026(3) 0.25 1. 0 
Al1 Al3+ 4 c 0 0.31627(12) 0.25 1. 0 
Cl1 Cl1- 8 g 0.20516(16) 0.23099(7) 0.25 1. 0 
Cl2 Cl1- 8 g 0.21489(19) 0.02863(8) 0.25 1. 0 
Cl3 Cl1- 8 f 0 0.13221(8) 0.52805(18) 1. 0 
Cl4 Cl1- 8 f 0 0.38144(9) 0.03408(23) 1. 0 

loop_
_atom_site_aniso_label
_atom_site_aniso_type_symbol
_atom_site_aniso_B_11
_atom_site_aniso_B_22
_atom_site_aniso_B_33
_atom_site_aniso_B_12
_atom_site_aniso_B_13
_atom_site_aniso_B_23
Nb1 Nb5+ 2.53(3) 1.64(2) 2.54(3) 0 0 0
Al1 Al3+ 2.70(9) 1.90(8) 3.32(9) 0 0 0
Cl1 Cl1- 2.23(5) 2.27(4) 4.93(7) 0.01(4) 0 0
Cl2 Cl1- 3.38(6) 2.76(5) 5.65(8) 0.85(5) 0 0
Cl3 Cl1- 4.75(8) 4.16(6) 2.73(6) 0 0 0.07(5)
Cl4 Cl1- 4.47(8) 4.27(7) 4.88(8) 0 0 1.85(6)
#End of data_62029-ICSD


