data_180196-ICSD
#?2014 by Fachinformationszentrum Karlsruhe, and the U.S. Secretary of 
#Commerce on behalf of the United States.  All rights reserved.
_database_code_ICSD                180196
_audit_creation_date               2011/08/01
_chemical_name_systematic
;
Strontium Calcium Oxide (0.5/0.5/1)
;
_chemical_formula_structural       'Sr0.5 Ca0.5 O'
_chemical_formula_sum              'Ca0.5 O1 Sr0.5'
_publ_section_title
;
Structural, electronic, optical and thermodynamic properties of Srx 
Ca1-x O, Bax Sr1-x O and Bax Ca1-x O alloys
;
loop_
_citation_id
_citation_journal_abbrev
_citation_year
_citation_journal_volume
_citation_page_first
_citation_page_last
_citation_journal_id_ASTM
primary 'Journal of Alloys and Compounds' 2011 509 1440 1447 JALCEU
_publ_author_name
;
Ghebouli, M.A.;Ghebouli, B.;Bouhemadou, A.;Fatmi, M.;Bouamama, K.
;
_cell_length_a                     5.030
_cell_length_b                     5.030
_cell_length_c                     5.030
_cell_angle_alpha                  90.
_cell_angle_beta                   90.
_cell_angle_gamma                  90.
_cell_volume                       127.26
_cell_formula_units_Z              4
_symmetry_space_group_name_H-M     'P -4 2 m'
_symmetry_Int_Tables_number        111
loop_
_symmetry_equiv_pos_site_id
_symmetry_equiv_pos_as_xyz
  1	'-y, -x, z'
  2	'y, x, z'
  3	'y, -x, -z'
  4	'-y, x, -z'
  5	'x, -y, -z'
  6	'-x, y, -z'
  7	'-x, -y, z'
  8	'x, y, z'
loop_
_atom_type_symbol
_atom_type_oxidation_number
Ca2+	2
O2-	-2
Sr2+	2
loop_
_atom_site_label
_atom_site_type_symbol
_atom_site_symmetry_multiplicity
_atom_site_Wyckoff_symbol
_atom_site_fract_x
_atom_site_fract_y
_atom_site_fract_z
_atom_site_occupancy
_atom_site_attached_hydrogens
O1 O2- 1 a 0 0 0 1. 0 
O2 O2- 2 f 0 0.5 0.5 1. 0 
O3 O2- 1 d 0.5 0.5 0 1. 0 
Sr1 Sr2+ 2 e 0.5 0 0 1. 0 
Ca1 Ca2+ 1 b 0.5 0.5 0.5 1. 0 
Ca2 Ca2+ 1 c 0 0 0.5 1. 0 

#End of data_180196-ICSD


