data_261822-ICSD
#?2014 by Fachinformationszentrum Karlsruhe, and the U.S. Secretary of 
#Commerce on behalf of the United States.  All rights reserved.
_database_code_ICSD                261822
_audit_creation_date               2012/02/01
_chemical_name_systematic
;
Disilver(I) Selenide - Low Temperature Form
;
_chemical_formula_structural       'Ag2 Se'
_chemical_formula_sum              'Ag2 Se1'
_chemical_name_mineral             Naumannite
_publ_section_title
;
Reinvestigation of the low-temperature form of Ag2 Se (naumannite) 
based on single-crystal data
;
loop_
_citation_id
_citation_journal_abbrev
_citation_year
_citation_journal_volume
_citation_journal_issue
_citation_page_first
_citation_page_last
_citation_journal_id_ASTM
primary 'Acta Crystallographica, Section E. Structure Reports Online'
 2011 67 9 i45 i45 ACSEBH
_publ_author_name                  'Yu Jaemin;Yun Hoseop'
_cell_length_a                     4.3359(8)
_cell_length_b                     7.0700(10)
_cell_length_c                     7.7740(10)
_cell_angle_alpha                  90
_cell_angle_beta                   90
_cell_angle_gamma                  90
_cell_volume                       238.31
_cell_formula_units_Z              4
_symmetry_space_group_name_H-M     'P 21 21 21'
_symmetry_Int_Tables_number        19
_refine_ls_R_factor_all            .0311
loop_
_symmetry_equiv_pos_site_id
_symmetry_equiv_pos_as_xyz
  1	'-x, y+.5, -z+.5'
  2	'x+.5, -y+.5, -z'
  3	'-x+.5, -y, z+.5'
  4	'x, y, z'
loop_
_atom_type_symbol
_atom_type_oxidation_number
Ag1+	1
Se2-	-2
loop_
_atom_site_label
_atom_site_type_symbol
_atom_site_symmetry_multiplicity
_atom_site_Wyckoff_symbol
_atom_site_fract_x
_atom_site_fract_y
_atom_site_fract_z
_atom_site_occupancy
_atom_site_attached_hydrogens
_atom_site_U_iso_or_equiv
Ag1 Ag1+ 4 a 0.8537(2) 0.11503(14) 0.45100(14) 1 0 0.0398(3) 
Ag2 Ag1+ 4 a 0.4745(3) 0.77441(14) 0.36152(14) 1 0 0.0447(4) 
Se1 Se2- 4 a 0.1124(2) 0.99787(14) 0.15274(14) 1 0 0.0242(3) 

loop_
_atom_site_aniso_label
_atom_site_aniso_type_symbol
_atom_site_aniso_U_11
_atom_site_aniso_U_22
_atom_site_aniso_U_33
_atom_site_aniso_U_12
_atom_site_aniso_U_13
_atom_site_aniso_U_23
Ag1 Ag1+ 0.0381(6) 0.0378(6) 0.0436(6) -0.0010(5) 0.0080(5) 0.0060(4)
Ag2 Ag1+ 0.0462(7) 0.0338(6) 0.0540(7) 0.0131(4) -0.0100(5) -0.0057(5)
Se1 Se2- 0.0249(5) 0.0190(6) 0.0286(6) 0.0001(4) -0.0011(4) -0.0006(4)
#End of data_261822-ICSD


