data_93684-ICSD
#?2014 by Fachinformationszentrum Karlsruhe, and the U.S. Secretary of 
#Commerce on behalf of the United States.  All rights reserved.
_database_code_ICSD                93684
_audit_creation_date               2003/04/01
_chemical_name_systematic
;
Cesium Diterbium Trisilver(I) Selenide
;
_chemical_formula_structural       'Cs Tb2 Ag3 Se5'
_chemical_formula_sum              'Ag3 Cs1 Se5 Tb2'
_publ_section_title
;
Syntheses, structures and physical properties of the new 
quaternaryrare-earth chalcogenides Rb Nd2 Cu S4, Rb Sm2 Cu S4, Cs La2 
Cu Se4, Cs Sm2 Cu Se4, Rb Er2 Cu3 S5, Cs Gd2 Ag3 Se5, Cs Tb2 Ag3 Se5 
and Rb2 Gd4 Cu4 S9
;
loop_
_citation_id
_citation_journal_abbrev
_citation_year
_citation_journal_volume
_citation_page_first
_citation_page_last
_citation_journal_id_ASTM
primary 'Journal of Solid State Chemistry' 2001 158 299 306 JSSCBI
_publ_author_name                  'Huang, F.-Q.;Ibers, J.A.'
_cell_length_a                     4.2779(4)
_cell_length_b                     15.429(2)
_cell_length_c                     17.426(2)
_cell_angle_alpha                  90
_cell_angle_beta                   90
_cell_angle_gamma                  90
_cell_volume                       1150.18
_cell_formula_units_Z              4
_symmetry_space_group_name_H-M     'C m c m'
_symmetry_Int_Tables_number        63
_refine_ls_R_factor_all            .024
loop_
_symmetry_equiv_pos_site_id
_symmetry_equiv_pos_as_xyz
  1	'-x, y, -z+.5'
  2	'-x, -y, z+.5'
  3	'-x, y, z'
  4	'-x, -y, -z'
  5	'x, -y, z+.5'
  6	'x, y, -z+.5'
  7	'x, -y, -z'
  8	'x, y, z'
  9	'-x+.5, y+.5, -z+.5'
 10	'-x+.5, -y+.5, z+.5'
 11	'-x+.5, y+.5, z'
 12	'-x+.5, -y+.5, -z'
 13	'x+.5, -y+.5, z+.5'
 14	'x+.5, y+.5, -z+.5'
 15	'x+.5, -y+.5, -z'
 16	'x+.5, y+.5, z'
loop_
_atom_type_symbol
_atom_type_oxidation_number
Ag1+	1
Cs1+	1
Se2-	-2
Tb3+	3
loop_
_atom_site_label
_atom_site_type_symbol
_atom_site_symmetry_multiplicity
_atom_site_Wyckoff_symbol
_atom_site_fract_x
_atom_site_fract_y
_atom_site_fract_z
_atom_site_occupancy
_atom_site_attached_hydrogens
_atom_site_U_iso_or_equiv
Cs1 Cs1+ 4 c 0 0.43850(5) 0.250 1. 0 0.0121(2) 
Tb1 Tb3+ 8 f 0 0.30705(2) 0.59531(2) 1. 0 0.0082(1) 
Ag1 Ag1+ 4 c 0 0.15577(6) 0.250 1. 0 0.0122(2) 
Ag2 Ag1+ 8 f 0 0.08222(4) 0.54205(4) 1. 0 0.0129(2) 
Se1 Se2- 8 f 0 0.06855(5) 0.11624(4) 1. 0 0.0086(2) 
Se2 Se2- 4 c 0 0.75310(7) 0.250 1. 0 0.0091(2) 
Se3 Se2- 8 f 0 0.31894(5) 0.06989(4) 1. 0 0.0083(2) 

#End of data_93684-ICSD


