data_65825-ICSD
#?2014 by Fachinformationszentrum Karlsruhe, and the U.S. Secretary of 
#Commerce on behalf of the United States.  All rights reserved.
_database_code_ICSD                65825
_audit_creation_date               1990/12/27
_audit_update_record               2012/02/01
_chemical_name_systematic
;
Tetraaquadizinc Bis(hydrogenphosphate(III)) Hydrate
;
_chemical_formula_structural       '(Zn2 (H2 O)4) (H P O3)2 (H2 O)'
_chemical_formula_sum              'H12 O11 P2 Zn2'
_publ_section_title
;
Synthesis and chracterization of a new series of zinc phosphites
;
loop_
_citation_id
_citation_journal_abbrev
_citation_year
_citation_journal_volume
_citation_page_first
_citation_page_last
_citation_journal_id_ASTM
primary 'Inorganic Chemistry' 1989 28 2608 2615 INOCAJ
_publ_author_name
;
Ortiz-Avila, C.Y.;Squattrito, P.J.;Shieh, M.;Clearfield, A.
;
_cell_length_a                     7.670(2)
_cell_length_b                     9.454(2)
_cell_length_c                     7.554(1)
_cell_angle_alpha                  90.83(1)
_cell_angle_beta                   92.90(1)
_cell_angle_gamma                  88.54(2)
_cell_volume                       546.83
_cell_formula_units_Z              2
_symmetry_space_group_name_H-M     'P -1'
_symmetry_Int_Tables_number        2
_refine_ls_R_factor_all            .022
loop_
_symmetry_equiv_pos_site_id
_symmetry_equiv_pos_as_xyz
  1	'-x, -y, -z'
  2	'x, y, z'
loop_
_atom_type_symbol
_atom_type_oxidation_number
H1+	1
O2-	-2
P3+	3
Zn2+	2
loop_
_atom_site_label
_atom_site_type_symbol
_atom_site_symmetry_multiplicity
_atom_site_Wyckoff_symbol
_atom_site_fract_x
_atom_site_fract_y
_atom_site_fract_z
_atom_site_occupancy
_atom_site_attached_hydrogens
_atom_site_B_iso_or_equiv
Zn1 Zn2+ 1 a 0 0 0 1. 0 0 
Zn2 Zn2+ 2 i 0.00150(5) 0.24999(4) -.49864(5) 1. 0 0 
Zn3 Zn2+ 1 h 0.5 0.5 -.5 1. 0 0 
P1 P3+ 2 i 0.2216(1) 0.00917(8) -.3687(1) 1. 0 0 
P2 P3+ 2 i 0.1137(1) 0.48565(9) -.7267(1) 1. 0 0 
O1 O2- 2 i 0.2383(4) 0.0772(4) 0.1282(4) 1. 0 0 
O2 O2- 2 i 0.0860(3) 0.0387(3) -.2369(3) 1. 0 0 
O3 O2- 2 i -.1210(4) 0.2054(3) -.0028(4) 1. 0 0 
O4 O2- 2 i -.0269(3) 0.3730(2) -.7118(3) 1. 0 0 
O5 O2- 2 i 0.2175(3) 0.1317(2) -.5024(3) 1. 0 0 
O6 O2- 2 i -.0362(3) 0.3652(2) -.2871(3) 1. 0 0 
O7 O2- 2 i 0.2059(3) -.1350(2) -.4605(3) 1. 0 0 
O8 O2- 2 i 0.6138(4) 0.4598(3) -.7529(4) 1. 0 0 
O9 O2- 2 i 0.5196(4) 0.2867(3) -.4167(4) 1. 0 0 
O10 O2- 2 i 0.2619(3) 0.4540(3) -.5972(4) 1. 0 0 
O11 O2- 2 i 0.4939(5) 0.2581(4) -.0135(5) 1. 0 0 
H1 H1+ 2 i 0.168(4) 0.474(4) -.886(4) 1. 0 1.4 
H2 H1+ 2 i 0.379(4) 0.003(4) -.290(4) 1. 0 1.4 
H3 H1+ 2 i 0.244(6) 0.091(5) 0.234(7) 1. 0 3.6 
H4 H1+ 2 i 0.312(6) 0.122(5) 0.064(6) 1. 0 3.6 
H5 H1+ 2 i -.082(5) 0.241(5) -.081(6) 1. 0 2.5 
H6 H1+ 2 i -.077(5) 0.258(4) 0.092(6) 1. 0 2.5 
H7 H1+ 2 i 0.566(5) 0.390(4) -.823(6) 1. 0 3.1 
H8 H1+ 2 i 0.709(6) 0.450(5) -.732(6) 1. 0 3.1 
H9 H1+ 2 i 0.434(6) 0.246(4) -.466(5) 1. 0 2.5 
H10 H1+ 2 i 0.602(5) 0.238(5) -.460(6) 1. 0 2.5 
H11 H1+ 2 i 0.477(7) 0.323(6) -.082(7) 1. 0 5. 
H12 H1+ 2 i 0.562(7) 0.204(6) -.031(8) 1. 0 5. 

loop_
_atom_site_aniso_label
_atom_site_aniso_type_symbol
_atom_site_aniso_U_11
_atom_site_aniso_U_22
_atom_site_aniso_U_33
_atom_site_aniso_U_12
_atom_site_aniso_U_13
_atom_site_aniso_U_23
Zn1 Zn2+ 0.0285(4) 0.0182(3) 0.0143(3) -.0011(3) 0.0066(3) 0.0009(2)
Zn2 Zn2+ 0.0189(3) 0.0131(2) 0.0193(2) 0.0007(2) 0.0012(2) -.0002(2)
Zn3 Zn2+ 0.0144(3) 0.0177(3) 0.0252(3) -.0013(2) -.0017(3) 0.0009(2)
P1 P3+ 0.0168(5) 0.0124(4) 0.0163(4) -.0006(4) 0.0001(4) 0.0018(3)
P2 P3+ 0.0166(5) 0.0119(4) 0.0163(4) -.0013(4) 0.0029(4) 0.0000(3)
O1 O2- 0.042(2) 0.061(2) 0.020(1) -.023(2) 0.003(1) -.004(1)
O2 O2- 0.038(2) 0.033(1) 0.019(1) 0.000(1) 0.012(1) 0.003(1)
O3 O2- 0.042(2) 0.020(1) 0.020(1) -.003(1) 0.007(1) 0.001(1)
O4 O2- 0.019(1) 0.016(1) 0.018(1) -.006(1) -.001(1) 0.000(1)
O5 O2- 0.017(1) 0.016(1) 0.021(1) 0.000(1) 0.005(1) 0.004(1)
O6 O2- 0.034(1) 0.012(1) 0.018(1) -.001(1) 0.001(1) 0.000(1)
O7 O2- 0.018(1) 0.014(1) 0.036(1) -.001(1) 0.003(1) -.003(1)
O8 O2- 0.021(1) 0.048(2) 0.031(2) 0.001(2) 0.002(1) -.010(1)
O9 O2- 0.017(1) 0.018(1) 0.043(2) -.001(1) -.001(1) -.003(1)
O10 O2- 0.016(1) 0.032(1) 0.045(2) -.005(1) -.007(1) 0.006(1)
O11 O2- 0.054(2) 0.069(3) 0.038(2) -.015(2) 0.004(2) 0.007(2)
#End of data_65825-ICSD


