data_421926-ICSD
#?2014 by Fachinformationszentrum Karlsruhe, and the U.S. Secretary of 
#Commerce on behalf of the United States.  All rights reserved.
_database_code_ICSD                421926
_audit_creation_date               2011/02/01
_chemical_name_systematic          'Silver Trithallium Bis(dichromate)'
_chemical_formula_structural       'Ag Tl3 (Cr2 O7)2'
_chemical_formula_sum              'Ag1 Cr4 O14 Tl3'
_publ_section_title
;
Synthesis and crystal structure of Ag Tl3 (Cr2 O7)2
;
loop_
_citation_id
_citation_journal_abbrev
_citation_year
_citation_journal_volume
_citation_journal_issue
_citation_page_first
_citation_page_last
_citation_journal_id_ASTM
primary 'Zeitschrift fuer Naturforschung, B: Chemical Sciences'
 2010 65 11 1301 1304 ZNBSEN
_publ_author_name
;
Dietrich, V.;Pitzschke, D.;Jansen, M.
;
_cell_length_a                     10.3638(2)
_cell_length_b                     10.4817(2)
_cell_length_c                     13.4717(3)
_cell_angle_alpha                  90.00
_cell_angle_beta                   106.55
_cell_angle_gamma                  90.00
_cell_volume                       1402.81
_cell_formula_units_Z              4
_symmetry_space_group_name_H-M     'C 1 2/c 1'
_symmetry_Int_Tables_number        15
_refine_ls_R_factor_all            .0213
loop_
_symmetry_equiv_pos_site_id
_symmetry_equiv_pos_as_xyz
  1	'x, -y, z+.5'
  2	'-x, -y, -z'
  3	'-x, y, -z+.5'
  4	'x, y, z'
  5	'x+.5, -y+.5, z+.5'
  6	'-x+.5, -y+.5, -z'
  7	'-x+.5, y+.5, -z+.5'
  8	'x+.5, y+.5, z'
loop_
_atom_type_symbol
_atom_type_oxidation_number
Ag1+	1
Cr6+	6
O2-	-2
Tl1+	1
loop_
_atom_site_label
_atom_site_type_symbol
_atom_site_symmetry_multiplicity
_atom_site_Wyckoff_symbol
_atom_site_fract_x
_atom_site_fract_y
_atom_site_fract_z
_atom_site_occupancy
_atom_site_attached_hydrogens
_atom_site_U_iso_or_equiv
Ag1 Ag1+ 4 e 0.5000 -0.05340(3) 0.2500 1 0 0.02327(7) 
Tl1 Tl1+ 8 f 0.564289(13) 0.182715(11) 0.501273(10) 1 0 0.02422(4) 
Tl2 Tl1+ 4 e 0.5000 -0.474155(17 0.2500 1 0 0.02778(5) 
Cr1 Cr6+ 8 f 0.20125(4) 0.07112(4) 0.54517(3) 1 0 0.01252(7) 
Cr2 Cr6+ 8 f 0.29133(4) 0.23980(4) 0.25615(3) 1 0 0.01429(8) 
O1 O2- 8 f 0.1412(2) 0.1541(3) 0.63908(18) 1 0 0.0239(5) 
O2 O2- 8 f 0.3660(2) 0.0638(3) 0.58003(19) 1 0 0.0252(5) 
O3 O2- 8 f 0.1472(3) 0.1447(3) 0.43681(19) 1 0 0.0306(5) 
O4 O2- 8 f 0.1415(3) -0.0712(2) 0.5342(3) 1 0 0.0355(6) 
O5 O2- 8 f 0.1280(2) 0.2537(2) 0.21900(18) 1 0 0.0208(4) 
O6 O2- 8 f 0.3363(3) 0.0949(3) 0.2909(2) 1 0 0.0340(6) 
O7 O2- 8 f 0.3487(3) 0.2846(3) 0.1621(2) 1 0 0.0310(6) 

loop_
_atom_site_aniso_label
_atom_site_aniso_type_symbol
_atom_site_aniso_U_11
_atom_site_aniso_U_22
_atom_site_aniso_U_33
_atom_site_aniso_U_12
_atom_site_aniso_U_13
_atom_site_aniso_U_23
Ag1 Ag1+ 0.01898(14) 0.02578(15) 0.02205(14) 0.000 0.00101(11) 0.000
Tl1 Tl1+ 0.02930(7) 0.01981(6) 0.02431(6) -0.00162(4) 0.00886(4) 
-0.00061(4)
Tl2 Tl1+ 0.02922(9) 0.02036(8) 0.03362(10) 0.000 0.00871(7) 0.000
Cr1 Cr6+ 0.01391(17) 0.01278(17) 0.01031(15) 0.00048(13) 0.00255(13) 
-0.00167(12)
Cr2 Cr6+ 0.01302(17) 0.01859(18) 0.01210(17) -0.00058(14) 0.00494(14) 
-0.00421(14)
O1 O2- 0.0172(9) 0.0352(12) 0.0198(10) -0.0028(8) 0.0061(8) -0.0140(9)
O2 O2- 0.0169(9) 0.0340(13) 0.0238(11) 0.0026(9) 0.0041(8) -0.0021(9)
O3 O2- 0.0355(14) 0.0382(14) 0.0154(10) 0.0043(11) 0.0032(9) 0.0064(9)
O4 O2- 0.0382(15) 0.0172(11) 0.0475(17) -0.0072(10) 0.0064(12) -0.0036(11)
O5 O2- 0.0154(9) 0.0252(10) 0.0205(9) -0.0017(7) 0.0033(7) -0.0014(8)
O6 O2- 0.0388(15) 0.0247(12) 0.0381(15) 0.0109(11) 0.0105(12) 0.0002(11)
O7 O2- 0.0318(13) 0.0458(15) 0.0210(11) -0.0127(11) 0.0168(10) -0.0082(10)
#End of data_421926-ICSD


