data_240269-ICSD
#?2014 by Fachinformationszentrum Karlsruhe, and the U.S. Secretary of 
#Commerce on behalf of the United States.  All rights reserved.
_database_code_ICSD                240269
_audit_creation_date               2005/10/01
_chemical_name_systematic          'Dilithium Divanadium Triphosphate'
_chemical_formula_structural       'Li2 V2 (P O4)3'
_chemical_formula_sum              'Li2 O12 P3 V2'
_publ_section_title
;
Li2.5V2(PO4)3: A Room-Temperature Analogue to the Fast-Ion Conducting 
High-Temperature -Phase of Li3V2(PO4)3
;
loop_
_citation_id
_citation_journal_abbrev
_citation_year
_citation_journal_volume
_citation_page_first
_citation_page_last
_citation_journal_id_ASTM
primary 'Chemistry of Materials' 2004 16 1456 1465 CMATEX
_publ_author_name
;
Yin, S.-C.;Strobel, P.S.;Grondey, H.;Nazar, L.F.
;
_cell_length_a                     8.45678
_cell_length_b                     8.62076
_cell_length_c                     11.89577
_cell_angle_alpha                  90.0
_cell_angle_beta                   90.2366
_cell_angle_gamma                  90.0
_cell_volume                       867.24
_cell_formula_units_Z              4
_symmetry_space_group_name_H-M     'P 1 21/n 1'
_symmetry_Int_Tables_number        14
loop_
_symmetry_equiv_pos_site_id
_symmetry_equiv_pos_as_xyz
  1	'-x+.5, y+.5, -z+.5'
  2	'-x, -y, -z'
  3	'x+.5, -y+.5, z+.5'
  4	'x, y, z'
loop_
_atom_type_symbol
_atom_type_oxidation_number
Li1+	1
O2-	-2
P5+	5
V3+	3
V4+	4
loop_
_atom_site_label
_atom_site_type_symbol
_atom_site_symmetry_multiplicity
_atom_site_Wyckoff_symbol
_atom_site_fract_x
_atom_site_fract_y
_atom_site_fract_z
_atom_site_occupancy
_atom_site_attached_hydrogens
_atom_site_U_iso_or_equiv
V1 V4+ 4 e 0.25278 0.45218 0.11713 1.0 0 0.00671 
V2 V3+ 4 e 0.75228 0.47114 0.38639 1.0 0 0.00671 
P1 P5+ 4 e 0.1024 0.1064 0.1486 1.0 0 0.0076 
P2 P5+ 4 e 0.6011 0.1052 0.3556 1.0 0 0.0076 
P3 P5+ 4 e 0.0389 0.2493 0.4978 1.0 0 0.0076 
O1 O2- 4 e 0.9275 0.1152 0.1485 1.0 0 0.01 
O2 O2- 4 e 0.1611 0.9855 0.2373 1.0 0 0.01 
O3 O2- 4 e 0.1695 0.0492 0.0364 1.0 0 0.01 
O4 O2- 4 e 0.1746 0.2672 0.1802 1.0 0 0.01 
O5 O2- 4 e 0.4224 0.0908 0.3406 1.0 0 0.01 
O6 O2- 4 e 0.6839 0.9906 0.2789 1.0 0 0.01 
O7 O2- 4 e 0.6445 0.0736 0.4785 1.0 0 0.01 
O8 O2- 4 e 0.6482 0.2751 0.3247 1.0 0 0.01 
O9 O2- 4 e 0.9348 0.124 0.5612 1.0 0 0.01 
O10 O2- 4 e 0.9404 0.3477 0.4183 1.0 0 0.01 
O11 O2- 4 e 0.1629 0.1621 0.426 1.0 0 0.01 
O12 O2- 4 e 0.1254 0.3382 0.5897 1.0 0 0.01 
Li1 Li1+ 4 e 0.2093 0.7915 0.1795 1.0 0 0.0131 
Li2 Li1+ 4 e 0.7835 0.2796 0.1791 1.0 0 0.0131 

#End of data_240269-ICSD


