data_27245-ICSD
#?2014 by Fachinformationszentrum Karlsruhe, and the U.S. Secretary of 
#Commerce on behalf of the United States.  All rights reserved.
_database_code_ICSD                27245
_audit_creation_date               1980/01/01
_audit_update_record               1988/01/22
_chemical_name_systematic          'Lithium Vanadate *'
_chemical_formula_structural       'Li V2 O5'
_chemical_formula_sum              'Li1 O5 V2'
_publ_section_title
;
Refinement of the Structure of Li V2 O5
;
loop_
_citation_id
_citation_journal_abbrev
_citation_year
_citation_journal_volume
_citation_page_first
_citation_page_last
_citation_journal_id_ASTM
primary 'Acta Crystallographica B (24,1968-38,1982)' 1971 27 1476 1477 ACBCAR
_publ_author_name                  'Anderson, D.N.;Willett, R.D.'
_cell_length_a                     9.702(5)
_cell_length_b                     3.607(3)
_cell_length_c                     10.664(9)
_cell_angle_alpha                  90.
_cell_angle_beta                   90.
_cell_angle_gamma                  90.
_cell_volume                       373.19
_cell_formula_units_Z              4
_symmetry_space_group_name_H-M     'P n m a'
_symmetry_Int_Tables_number        62
_refine_ls_R_factor_all            .11
loop_
_symmetry_equiv_pos_site_id
_symmetry_equiv_pos_as_xyz
  1	'x+.5, y, -z+.5'
  2	'x, -y+.5, z'
  3	'-x+.5, y+.5, z+.5'
  4	'-x, -y, -z'
  5	'-x+.5, -y, z+.5'
  6	'-x, y+.5, -z'
  7	'x+.5, -y+.5, -z+.5'
  8	'x, y, z'
loop_
_atom_type_symbol
_atom_type_oxidation_number
Li1+	1
O2-	-2
V4.5+	4.5
loop_
_atom_site_label
_atom_site_type_symbol
_atom_site_symmetry_multiplicity
_atom_site_Wyckoff_symbol
_atom_site_fract_x
_atom_site_fract_y
_atom_site_fract_z
_atom_site_occupancy
_atom_site_attached_hydrogens
_atom_site_B_iso_or_equiv
Li1 Li1+ 4 c 0.1778(52) 0.25 0.2263(46) 1. 0 2.4 
V1 V4.5+ 4 c 0.3762(5) 0.25 0.4982(5) 1. 0 1.8 
V2 V4.5+ 4 c 0.0657(5) 0.25 0.5987(5) 1. 0 1.6 
O1 O2- 4 c 0.2409(19) 0.25 0.6341(17) 1. 0 1.5 
O2 O2- 4 c 0.4763(23) 0.25 0.7739(19) 1. 0 2.2 
O3 O2- 4 c 0.2863(24) 0.25 0.3667(20) 1. 0 2.2 
O4 O2- 4 c 0.5725(23) 0.25 0.4470(21) 1. 0 2.1 
O5 O2- 4 c 0.4395(27) 0.25 0.0256(42) 1. 0 1.8 

#End of data_27245-ICSD


