data_24842-ICSD
#?2014 by Fachinformationszentrum Karlsruhe, and the U.S. Secretary of 
#Commerce on behalf of the United States.  All rights reserved.
_database_code_ICSD                24842
_audit_creation_date               1982/12/31
_chemical_name_systematic          'Magnesium Thiosulfate Hexahydrate'
_chemical_formula_structural       'Mg S2 O3 (H2 O)6'
_chemical_formula_sum              'H12 Mg1 O9 S2'
_publ_section_title
;
Hydrogen Bonding in Magnesium Thiosulphate Hexahydrate Mg S2 O3 (H2 
O)6. A Neutron Diffraction Study
;
loop_
_citation_id
_citation_journal_abbrev
_citation_year
_citation_journal_volume
_citation_page_first
_citation_page_last
_citation_journal_id_ASTM
primary 'Acta Crystallographica B (24,1968-38,1982)' 1982 38 1799 1801 ACBCAR
_publ_author_name                  'Elerman, Y.;Fuess, H.;Joswig, W.'
_cell_length_a                     9.304(3)
_cell_length_b                     14.447(3)
_cell_length_c                     6.847(3)
_cell_angle_alpha                  90.
_cell_angle_beta                   90.
_cell_angle_gamma                  90.
_cell_volume                       920.34
_cell_formula_units_Z              4
_symmetry_space_group_name_H-M     'P n m a'
_symmetry_Int_Tables_number        62
_refine_ls_R_factor_all            .06
loop_
_symmetry_equiv_pos_site_id
_symmetry_equiv_pos_as_xyz
  1	'x+.5, y, -z+.5'
  2	'x, -y+.5, z'
  3	'-x+.5, y+.5, z+.5'
  4	'-x, -y, -z'
  5	'-x+.5, -y, z+.5'
  6	'-x, y+.5, -z'
  7	'x+.5, -y+.5, -z+.5'
  8	'x, y, z'
loop_
_atom_type_symbol
_atom_type_oxidation_number
H1+	1
Mg2+	2
O2-	-2
S2-	-2
S6+	6
loop_
_atom_site_label
_atom_site_type_symbol
_atom_site_symmetry_multiplicity
_atom_site_Wyckoff_symbol
_atom_site_fract_x
_atom_site_fract_y
_atom_site_fract_z
_atom_site_occupancy
_atom_site_attached_hydrogens
Mg1 Mg2+ 4 a 0 0 0 1. 0 
S1 S6+ 4 c 0.040(1) 0.25 0.4380(11) 1. 0 
S2 S2- 4 c 0.2178(10) 0.25 0.6141(12) 1. 0 
O1 O2- 8 d -.0431(3) 0.1660(2) 0.4773(4) 1. 0 
O2 O2- 4 c 0.0914(6) 0.25 0.2348(6) 1. 0 
O3 O2- 8 d -.1546(4) 0.0815(2) 0.1477(5) 1. 0 
O4 O2- 8 d 0.1277(4) 0.1137(2) -.0312(4) 1. 0 
O5 O2- 8 d -.0982(5) 0.0261(2) -.2598(5) 1. 0 
H1 H1+ 8 d 0.8794(7) 0.1111(4) 0.2693(9) 1. 0 
H2 H1+ 8 d 0.8102(7) 0.1324(4) 0.0656(9) 1. 0 
H3 H1+ 8 d 0.1195(7) 0.1618(4) 0.0696(9) 1. 0 
H4 H1+ 8 d 0.1534(8) 0.1465(4) 0.8520(9) 1. 0 
H5 H1+ 8 d 0.9201(7) 0.0778(4) 0.6506(8) 1. 0 
H6 H1+ 8 d 0.8167(8) 0.9936(3) 0.6982(9) 1. 0 

loop_
_atom_site_aniso_label
_atom_site_aniso_type_symbol
_atom_site_aniso_U_11
_atom_site_aniso_U_22
_atom_site_aniso_U_33
_atom_site_aniso_U_12
_atom_site_aniso_U_13
_atom_site_aniso_U_23
Mg1 Mg2+ 0.0101(23) 0.0042(27) 0.0083(32) 0.000(2) -.0010(21) 0.0005
S1 S6+ 0.0048(30) 0.0085(32) 0.0036(37) 0 0.0003(3) 0
S2 S2- 0.0154(30) 0.0138(32) 0.006(3) 0 0.0005(30) 0
O1 O2- 0.0172(23) 0.0148(25) 0.0122(23) -.0075 -.0023(18) 0.0035(19)
O2 O2- 0.0185(33) 0.0127(28) 0.0083(27) 0 0.0019(26) 0
O3 O2- 0.0132(17) 0.0085(21) 0.0100(27) 0.0000(16) -.0003(19) -.0025(22)
O4 O2- 0.0123(23) 0.0085(22) 0.0117(26) -.002(2) 0.0023(20) -.0020(21)
O5 O2- 0.0123(23) 0.0116(22) 0.0138 -.0034(20) -.0058(21) 0.0030(23)
H1 H1+ 0.0303(36) 0.0243(37) 0.0231(48) 0.0013(30) -.0068(34) -.0060(39)
H2 H1+ 0.0260(37) 0.0180(42) 0.0305(48) 0.0080(32) -.0005(33) -.0023(38)
H3 H1+ 0.0313(43) 0.0159(41) 0.0270(44) -.0013(32) 0.0062(33) -.0065(38)
H4 H1+ 0.0317(40) 0.0233(45) 0.0234(48) -.0034(32) 0.0068(38) 0.0045(40)
H5 H1+ 0.0321(42) 0.0201(47) 0.0243(45) -.0081(35) 0.0000(36) 0.0100(41)
H6 H1+ 0.0277(41) 0.0265(42) 0.0279(45) -.0122(37) -.0100(35) 0.0015(35)
#End of data_24842-ICSD


