data_33278-ICSD
#?2014 by Fachinformationszentrum Karlsruhe, and the U.S. Secretary of 
#Commerce on behalf of the United States.  All rights reserved.
_database_code_ICSD                33278
_audit_creation_date               1985/03/28
_audit_update_record               2014/08/01
_chemical_name_systematic          'Dipotassium Hexathiodiphosphate(V)'
_chemical_formula_structural       'K2 (P2 S6)'
_chemical_formula_sum              'K2 P2 S6'
_publ_section_title
;
Kristallstruktur und Schwingungsspektren der Caesium- und Kalium-
Hexathiometadiphosphate Cs2 P2 S6 und K2 P2 S6
;
loop_
_citation_id
_citation_journal_abbrev
_citation_year
_citation_journal_volume
_citation_page_first
_citation_page_last
_citation_journal_id_ASTM
primary 'Zeitschrift fuer Anorganische und Allgemeine Chemie (1950) (DE)'
 1985 520 51 58 ZAACAB
_publ_author_name
;
Brockner, W.;Becker, R.;Eisenmann, B.;Schaefer, H.
;
_cell_length_a                     8.325(3)
_cell_length_b                     6.864(3)
_cell_length_c                     9.154(3)
_cell_angle_alpha                  90.
_cell_angle_beta                   90.
_cell_angle_gamma                  90.
_cell_volume                       523.09
_cell_formula_units_Z              2
_symmetry_space_group_name_H-M     'I m m m'
_symmetry_Int_Tables_number        71
_refine_ls_R_factor_all            .064
loop_
_symmetry_equiv_pos_site_id
_symmetry_equiv_pos_as_xyz
  1	'x, y, -z'
  2	'x, -y, z'
  3	'-x, y, z'
  4	'-x, -y, -z'
  5	'-x, -y, z'
  6	'-x, y, -z'
  7	'x, -y, -z'
  8	'x, y, z'
  9	'x+.5, y+.5, -z+.5'
 10	'x+.5, -y+.5, z+.5'
 11	'-x+.5, y+.5, z+.5'
 12	'-x+.5, -y+.5, -z+.5'
 13	'-x+.5, -y+.5, z+.5'
 14	'-x+.5, y+.5, -z+.5'
 15	'x+.5, -y+.5, -z+.5'
 16	'x+.5, y+.5, z+.5'
loop_
_atom_type_symbol
_atom_type_oxidation_number
K1+	1
P5+	5
S2-	-2
loop_
_atom_site_label
_atom_site_type_symbol
_atom_site_symmetry_multiplicity
_atom_site_Wyckoff_symbol
_atom_site_fract_x
_atom_site_fract_y
_atom_site_fract_z
_atom_site_occupancy
_atom_site_attached_hydrogens
K1 K1+ 4 e 0.7434(4) 0 0 1. 0 
P1 P5+ 4 i 0 0 0.3401(3) 1. 0 
S1 S2- 4 f 0.3135(4) 0.5 0 1. 0 
S2 S2- 8 l 0 0.2457(3) 0.2296(3) 1. 0 

loop_
_atom_site_aniso_label
_atom_site_aniso_type_symbol
_atom_site_aniso_U_11
_atom_site_aniso_U_22
_atom_site_aniso_U_33
_atom_site_aniso_U_12
_atom_site_aniso_U_13
_atom_site_aniso_U_23
K1 K1+ 0.0439(16) 0.0374(15) 0.0500(17) 0 0 0
P1 P5+ 0.0324(14) 0.0160(11) 0.0250(13) 0 0 0
S1 S2- 0.0288(14) 0.0414(16) 0.0289(13) 0 0 0
S2 S2- 0.0488(13) 0.0231(9) 0.0495(13) 0 0 0.141(10)
#End of data_33278-ICSD


