data_1925-ICSD
#?2014 by Fachinformationszentrum Karlsruhe, and the U.S. Secretary of 
#Commerce on behalf of the United States.  All rights reserved.
_database_code_ICSD                1925
_audit_creation_date               1980/01/01
_audit_update_record               2010/02/01
_chemical_name_systematic
;
Dipotassium Oxovanadium(IV) Divanadate
;
_chemical_formula_structural       'K2 (V O) (V2 O7)'
_chemical_formula_sum              'K2 O8 V3'
_publ_section_title
;
Structure cristalline de K2 V3 O8 ou K2 (V O) (V2 O7)
;
loop_
_citation_id
_citation_journal_abbrev
_citation_year
_citation_journal_volume
_citation_page_first
_citation_page_last
_citation_journal_id_ASTM
primary 'Acta Crystallographica B (24,1968-38,1982)' 1975 31 1794 1795 ACBCAR
_publ_author_name                  'Galy, J.;Carpy, A.'
_cell_length_a                     8.870(6)
_cell_length_b                     8.870(6)
_cell_length_c                     5.215(5)
_cell_angle_alpha                  90.
_cell_angle_beta                   90.
_cell_angle_gamma                  90.
_cell_volume                       410.3
_cell_formula_units_Z              2
_symmetry_space_group_name_H-M     'P 4 b m'
_symmetry_Int_Tables_number        100
_refine_ls_R_factor_all            .038
loop_
_symmetry_equiv_pos_site_id
_symmetry_equiv_pos_as_xyz
  1	'-y+.5, -x+.5, z'
  2	'y+.5, x+.5, z'
  3	'y, -x, z'
  4	'-y, x, z'
  5	'-x+.5, y+.5, z'
  6	'x+.5, -y+.5, z'
  7	'-x, -y, z'
  8	'x, y, z'
loop_
_atom_type_symbol
_atom_type_oxidation_number
K1+	1
O2-	-2
V4+	4
V5+	5
loop_
_atom_site_label
_atom_site_type_symbol
_atom_site_symmetry_multiplicity
_atom_site_Wyckoff_symbol
_atom_site_fract_x
_atom_site_fract_y
_atom_site_fract_z
_atom_site_occupancy
_atom_site_attached_hydrogens
K1 K1+ 4 c 0.3010(4) 0.8010(4) 0.9595(7) 1. 0 
V1 V4+ 2 a 0 0 0.4951(9) 1. 0 
V2 V5+ 4 c 0.1340(2) 0.6340(2) 0.49 1. 0 
O1 O2- 8 d 0.0866(6) 0.8081(6) 0.5996(11) 1. 0 
O2 O2- 4 c 0.1299(14) 0.6299(14) 0.1780(15) 1. 0 
O3 O2- 2 b 0 0.5 0.6104(22) 1. 0 
O4 O2- 2 a 0 0 0.1918(29) 1. 0 

#End of data_1925-ICSD


