data_16626-ICSD
#?2014 by Fachinformationszentrum Karlsruhe, and the U.S. Secretary of 
#Commerce on behalf of the United States.  All rights reserved.
_database_code_ICSD                16626
_audit_creation_date               1980/01/01
_audit_update_record               2007/04/01
_chemical_name_systematic          'Dilithium Catena-silicate'
_chemical_formula_structural       'Li2 (Si O3)'
_chemical_formula_sum              'Li2 O3 Si1'
_publ_section_title
;
Die Kristallstruktur des Lithiummetasilikates, (Li2 Si O3)x
;
loop_
_citation_id
_citation_journal_abbrev
_citation_year
_citation_journal_volume
_citation_page_first
_citation_page_last
_citation_journal_id_ASTM
primary 'Acta Crystallographica (1,1948-23,1967)' 1956 9 251 252 ACCRA9
2
;
Abhandlungen der Deutschen Akademie der Wissenschaften zu Berlin, 
Klasse fuer Chemie, Geologie und Biologie
;
 1957 7 113 116 ADAWAL
_publ_author_name                  'Seemann, H.'
_cell_length_a                     9.36
_cell_length_b                     5.395
_cell_length_c                     4.675
_cell_angle_alpha                  90.
_cell_angle_beta                   90.
_cell_angle_gamma                  90.
_cell_volume                       236.07
_cell_formula_units_Z              4
_symmetry_space_group_name_H-M     'C m c 21'
_symmetry_Int_Tables_number        36
_refine_ls_R_factor_all            .27
loop_
_symmetry_equiv_pos_site_id
_symmetry_equiv_pos_as_xyz
  1	'x, -y, z+.5'
  2	'-x, -y, z+.5'
  3	'-x, y, z'
  4	'x, y, z'
  5	'x+.5, -y+.5, z+.5'
  6	'-x+.5, -y+.5, z+.5'
  7	'-x+.5, y+.5, z'
  8	'x+.5, y+.5, z'
loop_
_atom_type_symbol
_atom_type_oxidation_number
Li1+	1
O2-	-2
Si4+	4
loop_
_atom_site_label
_atom_site_type_symbol
_atom_site_symmetry_multiplicity
_atom_site_Wyckoff_symbol
_atom_site_fract_x
_atom_site_fract_y
_atom_site_fract_z
_atom_site_occupancy
_atom_site_attached_hydrogens
Si1 Si4+ 4 a 0 0.164 0.537 1. 0 
Li1 Li1+ 8 b 0.16 0.32 0 1. 0 
O1 O2- 8 b 0.141 0.321 0.45 1. 0 
O2 O2- 4 a 0 0.1 0.86 1. 0 

#End of data_16626-ICSD


