data_157994-ICSD
#?2014 by Fachinformationszentrum Karlsruhe, and the U.S. Secretary of 
#Commerce on behalf of the United States.  All rights reserved.
_database_code_ICSD                157994
_audit_creation_date               2008/02/01
_chemical_name_systematic          'Calcium Carbonate - Biogenic'
_chemical_formula_structural       'Ca (C O3)'
_chemical_formula_sum              'C1 Ca1 O3'
_chemical_name_mineral             Aragonite
_publ_section_title
;
Atomic structure of biogenic aragonite
;
loop_
_citation_id
_citation_journal_abbrev
_citation_year
_citation_journal_volume
_citation_page_first
_citation_page_last
_citation_journal_id_ASTM
primary 'Chemistry of Materials' 2007 19 3244 3251 CMATEX
_publ_author_name
;
Pokroy, B.;Fieramosca, J.S.;von Dreele, R.B.;Fitch, A.N.;Caspi, 
E.N.;Zolotoyabko, E.
;
_cell_length_a                     4.96667(9)
_cell_length_b                     7.96437(15)
_cell_length_c                     5.75207(8)
_cell_angle_alpha                  90.0
_cell_angle_beta                   90.0
_cell_angle_gamma                  90.0
_cell_volume                       227.53
_cell_formula_units_Z              4
_symmetry_space_group_name_H-M     'P m c n'
_symmetry_Int_Tables_number        62
_refine_ls_R_factor_all            .0298
loop_
_symmetry_equiv_pos_site_id
_symmetry_equiv_pos_as_xyz
  1	'x, -y+.5, z+.5'
  2	'-x+.5, y, z'
  3	'x+.5, y+.5, -z+.5'
  4	'-x, -y, -z'
  5	'-x, y+.5, -z+.5'
  6	'x+.5, -y, -z'
  7	'-x+.5, -y+.5, z+.5'
  8	'x, y, z'
loop_
_atom_type_symbol
_atom_type_oxidation_number
C4+	4
Ca2+	2
O2-	-2
loop_
_atom_site_label
_atom_site_type_symbol
_atom_site_symmetry_multiplicity
_atom_site_Wyckoff_symbol
_atom_site_fract_x
_atom_site_fract_y
_atom_site_fract_z
_atom_site_occupancy
_atom_site_attached_hydrogens
_atom_site_U_iso_or_equiv
Ca1 Ca2+ 4 c 0.25 0.41453(32) 0.7604(4) 1.0 0 0.00947 
C1 C4+ 4 c 0.25 0.76204(17) -0.08479(33) 1.0 0 0.00696 
O1 O2- 4 c 0.25 0.92270(21) -0.0943(4) 1.0 0 0.01178 
O2 O2- 8 d 0.47376(25) 0.68106(15) -0.08662(33) 1.0 0 0.0105 

loop_
_atom_site_aniso_label
_atom_site_aniso_type_symbol
_atom_site_aniso_U_11
_atom_site_aniso_U_22
_atom_site_aniso_U_33
_atom_site_aniso_U_12
_atom_site_aniso_U_13
_atom_site_aniso_U_23
Ca1 Ca2+ 0.0116(11) 0.0112(13) 0.0057(10) 0.0 0.0 0.0024(9)
C1 C4+ 0.0116(11) 0.0112(13) 0.0057(10) 0.0 0.0 0.0024(9)
O1 O2- 0.0209(12) 0.0048(7) 0.0097(10) 0.0 0.0 0.0004(8)
O2 O2- 0.0073(6) 0.0133(7) 0.0108(6) 0.0042(4) -0.0007(6) 0.0012(6)
#End of data_157994-ICSD


