data_75322-ICSD
#?2014 by Fachinformationszentrum Karlsruhe, and the U.S. Secretary of 
#Commerce on behalf of the United States.  All rights reserved.
_database_code_ICSD                75322
_audit_creation_date               1996/04/22
_audit_update_record               2012/08/01
_chemical_name_systematic          'Potassium Oxotitanium Arsenate(V)'
_chemical_formula_structural       'K (Ti O) (As O4)'
_chemical_formula_sum              'As1 K1 O5 Ti1'
_publ_section_title
;
Structure and nonlinear optical properties of K Ti O As O4
;
loop_
_citation_id
_citation_journal_abbrev
_citation_year
_citation_journal_volume
_citation_page_first
_citation_page_last
_citation_journal_id_ASTM
primary 'Acta Crystallographica, Section B: Structural Science'
 1994 50 655 662 ASBSDK
2 'Golden Book of Phase Transitions, Wroclaw' 2002 1 1 123 GBOPT5
_publ_author_name
;
Mayo, S.C.;Thomas, P.A.;Teat, S.J.;Loiacono, G.M.;Loiacono, D.N.
;
_cell_length_a                     13.130(2)
_cell_length_b                     6.581(1)
_cell_length_c                     10.781(1)
_cell_angle_alpha                  90.
_cell_angle_beta                   90.
_cell_angle_gamma                  90.
_cell_volume                       931.57
_cell_formula_units_Z              8
_symmetry_space_group_name_H-M     'P n a 21'
_symmetry_Int_Tables_number        33
_refine_ls_R_factor_all            .02
loop_
_symmetry_equiv_pos_site_id
_symmetry_equiv_pos_as_xyz
  1	'x+.5, -y+.5, z'
  2	'-x+.5, y+.5, z+.5'
  3	'-x, -y, z+.5'
  4	'x, y, z'
loop_
_atom_type_symbol
_atom_type_oxidation_number
As5+	5
K1+	1
O2-	-2
Ti4+	4
loop_
_atom_site_label
_atom_site_type_symbol
_atom_site_symmetry_multiplicity
_atom_site_Wyckoff_symbol
_atom_site_fract_x
_atom_site_fract_y
_atom_site_fract_z
_atom_site_occupancy
_atom_site_attached_hydrogens
K1 K1+ 4 a 0.37725(9) 0.7802(1) 0.6856(1) 1. 0 
K2 K1+ 4 a 0.10748(7) 0.6977(2) 0.9288(1) 1. 0 
Ti1 Ti4+ 4 a 0.37445(4) 0.50584(8) 0.99767(8) 1. 0 
Ti2 Ti4+ 4 a 0.24717(4) 0.26783(7) 0.74776(8) 1. 0 
As1 As5+ 4 a 0.49807(3) 0.33035(4) 0.74007(8) 1. 0 
As2 As5+ 4 a 0.18139(2) 0.50645(5) 0.48803(7) 1. 0 
O1 O2- 4 a 0.4871(2) 0.4948(4) 0.8562(3) 1. 0 
O2 O2- 4 a 0.5066(2) 0.4659(5) 0.6072(2) 1. 0 
O3 O2- 4 a 0.3939(2) 0.1822(4) 0.7214(3) 1. 0 
O4 O2- 4 a 0.5988(2) 0.1738(4) 0.7599(3) 1. 0 
O5 O2- 4 a 0.2206(2) 0.9569(5) 0.3601(2) 1. 0 
O6 O2- 4 a 0.2177(2) 0.0555(5) 0.6101(2) 1. 0 
O7 O2- 4 a 0.1081(2) 0.3057(4) 0.4517(2) 1. 0 
O8 O2- 4 a 0.1057(2) 0.7065(4) 0.5160(3) 1. 0 
O9 O2- 4 a 0.2620(2) 0.5414(5) 0.3664(2) 1. 0 
O10 O2- 4 a 0.2596(2) 0.4648(5) 0.6088(2) 1. 0 

loop_
_atom_site_aniso_label
_atom_site_aniso_type_symbol
_atom_site_aniso_U_11
_atom_site_aniso_U_22
_atom_site_aniso_U_33
_atom_site_aniso_U_12
_atom_site_aniso_U_13
_atom_site_aniso_U_23
K1 K1+ 0.0404(6) 0.0160(4) 0.0357(5) 0.0037(4) -.0105(4) -.0033(4)
K2 K1+ 0.0175(4) 0.0253(4) 0.0404(5) 0.0052(3) -.0002(4) 0.0008(4)
Ti1 Ti4+ 0.0045(2) 0.0047(2) 0.0060(2) -.0003(2) 0.0002(2) -.0006(2)
Ti2 Ti4+ 0.0035(2) 0.0064(2) 0.0056(2) -.0007(1) -.0009(1) 0.0019(2)
As1 As5+ 0.0040(1) 0.0063(1) 0.0069(1) -.0002(1) 0.00070(9) -.0004(2)
As2 As5+ 0.0069(1) 0.0047(1) 0.0068(1) -.0005(1) -.0005(1) 0.0007(1)
O1 O2- 0.013(1) 0.014(2) 0.012(1) -.0039(9) 0.003(1) -.0070(9)
O2 O2- 0.007(1) 0.015(1) 0.014(1) 0.0031(9) 0.0021(9) 0.007(1)
O3 O2- 0.0046(9) 0.010(1) 0.015(2) -.0003(7) -.0023(9) -.0006(9)
O4 O2- 0.0044(9) 0.009(1) 0.015(2) -.0006(7) -.0009(9) 0.0032(9)
O5 O2- 0.005(1) 0.012(1) 0.011(1) 0.001(1) 0.0027(8) 0.001(1)
O6 O2- 0.015(1) 0.009(1) 0.011(1) 0.001(1) -.0049(9) -.004(1)
O7 O2- 0.010(1) 0.0036(9) 0.017(2) -.0035(8) -.0036(9) -.0018(9)
O8 O2- 0.014(1) 0.008(1) 0.017(2) 0.0021(9) 0.005(1) 0.002(1)
O9 O2- 0.010(2) 0.013(1) 0.009(1) 0.004(1) 0.0049(9) 0.0050(9)
O10 O2- 0.013(2) 0.010(1) 0.012(1) -.004(1) -.007(1) 0.0050(9)
#End of data_75322-ICSD


