data_290334-ICSD
#?2014 by Fachinformationszentrum Karlsruhe, and the U.S. Secretary of 
#Commerce on behalf of the United States.  All rights reserved.
_database_code_ICSD                290334
_audit_creation_date               2014/02/01
_chemical_name_systematic          'Lithium Iron Phosphate(V)'
_chemical_formula_structural       'Li Fe (P O4)'
_chemical_formula_sum              'Fe1 Li1 O4 P1'
_publ_section_title
;
Design of a new lithium ion battery test cell for in-situ neutron 
diffraction measurements
;
loop_
_citation_id
_citation_journal_abbrev
_citation_year
_citation_journal_volume
_citation_page_first
_citation_page_last
_citation_journal_id_ASTM
primary 'Journal of Power Sources' 2013 226 249 255 JPSODZ
_publ_author_name
;
Roberts, Matthew;Biendicho, Jordi Jacas;Hull, Stephen;Beran, 
Premysl;Gustafsson, Torbjoern;Svensson, Gunnar;Edstroem, Kristina
;
_cell_length_a                     10.3333(3)
_cell_length_b                     6.0095(2)
_cell_length_c                     4.6949(1)
_cell_angle_alpha                  90.
_cell_angle_beta                   90.
_cell_angle_gamma                  90.
_cell_volume                       291.54
_cell_formula_units_Z              4
_symmetry_space_group_name_H-M     'P n m a'
_symmetry_Int_Tables_number        62
_refine_ls_R_factor_all            .0266
loop_
_symmetry_equiv_pos_site_id
_symmetry_equiv_pos_as_xyz
  1	'x+.5, y, -z+.5'
  2	'x, -y+.5, z'
  3	'-x+.5, y+.5, z+.5'
  4	'-x, -y, -z'
  5	'-x+.5, -y, z+.5'
  6	'-x, y+.5, -z'
  7	'x+.5, -y+.5, -z+.5'
  8	'x, y, z'
loop_
_atom_type_symbol
_atom_type_oxidation_number
Fe2+	2
Li1+	1
O2-	-2
P5+	5
loop_
_atom_site_label
_atom_site_type_symbol
_atom_site_symmetry_multiplicity
_atom_site_Wyckoff_symbol
_atom_site_fract_x
_atom_site_fract_y
_atom_site_fract_z
_atom_site_occupancy
_atom_site_attached_hydrogens
_atom_site_U_iso_or_equiv
Li1 Li1+ 4 a 0 0 0 1. 0 0.0285(48) 
Fe1 Fe2+ 4 c 0.2822(3) 0.25 0.9704(10) 1. 0 0.0082(7) 
P1 P5+ 4 c 0.0949(6) 0.25 0.4181(13) 1. 0 0.0043(12) 
O1 O2- 4 c 0.0961(7) 0.25 0.7477(14) 1. 0 0.0101(12) 
O2 O2- 4 c 0.4570(5) 0.25 0.2011(13) 1. 0 0.0062(13) 
O3 O2- 8 d 0.1651(4) 0.0499(7) 0.2819(8) 1. 0 0.0050(7) 

#End of data_290334-ICSD


