data_35685-ICSD
#?2014 by Fachinformationszentrum Karlsruhe, and the U.S. Secretary of 
#Commerce on behalf of the United States.  All rights reserved.
_database_code_ICSD                35685
_audit_creation_date               1983/12/31
_audit_update_record               2012/02/01
_chemical_name_systematic
;
Trichlorosufur Tetrachloroaluminate
;
_chemical_formula_structural       '(S Cl3) (Al Cl4)'
_chemical_formula_sum              'Al1 Cl7 S1'
_publ_section_title
;
Die Kristallstruktur der Verbindung (S Cl3) (Al Cl4)
;
loop_
_citation_id
_citation_journal_abbrev
_citation_year
_citation_journal_volume
_citation_page_first
_citation_page_last
_citation_journal_id_ASTM
primary 'Zeitschrift fuer Chemie' 1983 23 136 137 ZECEAL
_publ_author_name
;
Troyanov, S.I.;Kolditz, L.;Radde, A.
;
_cell_length_a                     6.287(5)
_cell_length_b                     6.266(5)
_cell_length_c                     13.047(9)
_cell_angle_alpha                  90.
_cell_angle_beta                   101.36(6)
_cell_angle_gamma                  90.
_cell_volume                       503.91
_cell_formula_units_Z              2
_symmetry_space_group_name_H-M     'P 1 c 1'
_symmetry_Int_Tables_number        7
_refine_ls_R_factor_all            .06
loop_
_symmetry_equiv_pos_site_id
_symmetry_equiv_pos_as_xyz
  1	'x, -y, z+.5'
  2	'x, y, z'
loop_
_atom_type_symbol
_atom_type_oxidation_number
Al3+	3
Cl1-	-1
S4+	4
loop_
_atom_site_label
_atom_site_type_symbol
_atom_site_symmetry_multiplicity
_atom_site_Wyckoff_symbol
_atom_site_fract_x
_atom_site_fract_y
_atom_site_fract_z
_atom_site_occupancy
_atom_site_attached_hydrogens
S1 S4+ 2 a -.1221 0.0675(9) 0.8119 1. 0 
Cl1 Cl1- 2 a 0.0453(15) 0.2738(11) 0.9105(8) 1. 0 
Cl2 Cl1- 2 a 0.1109(15) -.0962(12) 0.7679(8) 1. 0 
Cl3 Cl1- 2 a -.2267(15) -.1318(13) 0.9100(7) 1. 0 
Cl4 Cl1- 2 a 0.5184(15) 0.1706(11) 0.1323(8) 1. 0 
Cl5 Cl1- 2 a 0.3422(14) 0.6552(11) 0.0125(8) 1. 0 
Cl6 Cl1- 2 a 0.4861(14) 0.6168(12) 0.2880(8) 1. 0 
Cl7 Cl1- 2 a 0.8847(15) 0.5925(11) 0.1369(7) 1. 0 
Al1 Al3+ 2 a 0.5529(15) 0.5108(13) 0.1421(8) 1. 0 

#End of data_35685-ICSD


