data_8232-ICSD
#?2014 by Fachinformationszentrum Karlsruhe, and the U.S. Secretary of 
#Commerce on behalf of the United States.  All rights reserved.
_database_code_ICSD                8232
_audit_creation_date               1980/01/01
_audit_update_record               2012/02/01
_chemical_name_systematic          'Potassium Dithorium Tris(vanadate)'
_chemical_formula_structural       'K Th2 (V O4)3'
_chemical_formula_sum              'K1 O12 Th2 V3'
_publ_section_title
;
Crystal structure of potassium dithorium orthovanadate
;
loop_
_citation_id
_citation_journal_abbrev
_citation_year
_citation_journal_volume
_citation_page_first
_citation_page_last
_citation_journal_id_ASTM
primary 'Acta Crystallographica B (24,1968-38,1982)' 1979 35 2529 2532 ACBCAR
2 'Powder Diffraction' 1989 4 165 167 PODIE2
_publ_author_name                  'Quarton, M.;Kahn, A.'
_cell_length_a                     18.564(7)
_cell_length_b                     7.157(3)
_cell_length_c                     8.077(4)
_cell_angle_alpha                  90.
_cell_angle_beta                   101.05(5)
_cell_angle_gamma                  90.
_cell_volume                       1053.24
_cell_formula_units_Z              4
_symmetry_space_group_name_H-M     'C 1 2/c 1'
_symmetry_Int_Tables_number        15
_refine_ls_R_factor_all            .047
loop_
_symmetry_equiv_pos_site_id
_symmetry_equiv_pos_as_xyz
  1	'x, -y, z+.5'
  2	'-x, -y, -z'
  3	'-x, y, -z+.5'
  4	'x, y, z'
  5	'x+.5, -y+.5, z+.5'
  6	'-x+.5, -y+.5, -z'
  7	'-x+.5, y+.5, -z+.5'
  8	'x+.5, y+.5, z'
loop_
_atom_type_symbol
_atom_type_oxidation_number
K1+	1
O2-	-2
Th4+	4
V5+	5
loop_
_atom_site_label
_atom_site_type_symbol
_atom_site_symmetry_multiplicity
_atom_site_Wyckoff_symbol
_atom_site_fract_x
_atom_site_fract_y
_atom_site_fract_z
_atom_site_occupancy
_atom_site_attached_hydrogens
_atom_site_B_iso_or_equiv
Th1 Th4+ 8 f 0.15449(2) 0.90867(6) 0.03464(5) 1. 0 0 
V1 V5+ 8 f 0.1886(1) 0.4203(3) 0.1832(2) 1. 0 0 
V2 V5+ 4 e 0 0.1136(4) 0.25 1. 0 0 
K1 K1+ 4 e 0 0.6181(6) 0.25 1. 0 0 
O1 O2- 8 f 0.1447(6) 0.2261(16) 0.0563(14) 1. 0 0.9 
O2 O2- 8 f 0.2801(5) 0.4597(13) 0.1794(12) 1. 0 1.2 
O3 O2- 8 f 0.2032(5) 0.3523(13) 0.3896(12) 1. 0 1.1 
O4 O2- 8 f 0.1371(5) 0.6190(13) 0.1583(12) 1. 0 1.5 
O5 O2- 8 f 0.0769(5) 0.9771(13) 0.2505(12) 1. 0 0.6 
O6 O2- 8 f 0.0296(6) 0.2361(16) 0.4278(14) 1. 0 1.4 

#End of data_8232-ICSD


