data_9096-ICSD
#?2014 by Fachinformationszentrum Karlsruhe, and the U.S. Secretary of 
#Commerce on behalf of the United States.  All rights reserved.
_database_code_ICSD                9096
_audit_creation_date               1980/01/01
_audit_update_record               1988/03/30
_chemical_name_systematic
;
Potassium Tetraimidocyclo-tetraphosphate Tetrahydrate
;
_chemical_formula_structural       'K4 (P O2 N H)4 (H2 O)4'
_chemical_formula_sum              'H12 K4 N4 O12 P4'
_publ_section_title
;
Die Kristallstrukturen von K4 (P O2 N H)4 (H2 O)4, Cs4 (P O2 N H)4 
(H2 O)6 und die Konformationsisomerie des ringfoermigen Anions (P O2 
N H)4(4-)
;
loop_
_citation_id
_citation_journal_abbrev
_citation_year
_citation_journal_volume
_citation_page_first
_citation_page_last
_citation_journal_id_ASTM
primary 'Acta Crystallographica B (24,1968-38,1982)' 1971 27 740 747 ACBCAR
_publ_author_name                  'Berking, B.;Mootz, D.'
_cell_length_a                     6.786(2)
_cell_length_b                     10.371(3)
_cell_length_c                     14.335(4)
_cell_angle_alpha                  90.
_cell_angle_beta                   57.91(2)
_cell_angle_gamma                  90.
_cell_volume                       854.72
_cell_formula_units_Z              2
_symmetry_space_group_name_H-M     'P 1 21/c 1'
_symmetry_Int_Tables_number        14
_refine_ls_R_factor_all            .04
loop_
_symmetry_equiv_pos_site_id
_symmetry_equiv_pos_as_xyz
  1	'x, -y+.5, z+.5'
  2	'-x, -y, -z'
  3	'-x, y+.5, -z+.5'
  4	'x, y, z'
loop_
_atom_type_symbol
_atom_type_oxidation_number
H1+	1
K1+	1
N3-	-3
O2-	-2
P5+	5
loop_
_atom_site_label
_atom_site_type_symbol
_atom_site_symmetry_multiplicity
_atom_site_Wyckoff_symbol
_atom_site_fract_x
_atom_site_fract_y
_atom_site_fract_z
_atom_site_occupancy
_atom_site_attached_hydrogens
K1 K1+ 4 e -.2373(1) -.1772(1) -.2890(1) 1. 0 
K2 K1+ 4 e -.1860(1) -.1621(1) 0.4326(1) 1. 0 
P1 P5+ 4 e -.1124(1) 0.0263(1) 0.1825(1) 1. 0 
P2 P5+ 4 e -.2461(1) 0.1230(1) 0.0223(1) 1. 0 
O1 O2- 4 e -.0751(3) 0.1545(2) 0.2186(2) 1. 0 
O2 O2- 4 e -.2293(3) -.0760(2) 0.2693(1) 1. 0 
O3 O2- 4 e -.0700(3) 0.2266(2) -.0064(1) 1. 0 
O4 O2- 4 e -.4877(3) 0.1612(2) 0.0527(1) 1. 0 
O5 O2- 4 e -.2875(5) 0.0327(2) -.4116(3) 1. 0 
O6 O2- 4 e -.4731(5) 0.2123(3) -.1456(3) 1. 0 
N1 N3- 4 e -.1532(4) 0.0211(3) -.0824(2) 1. 0 
N2 N3- 4 e -.2813(4) 0.0384(2) 0.1302(2) 1. 0 
H1 H1+ 4 e -.250(12) -.027(3) -.073(3) 1. 0 
H2 H1+ 4 e -.359(5) -.044(4) 0.140(3) 1. 0 
H3 H1+ 4 e -.268(11) 0.094(6) -.447(4) 1. 0 
H4 H1+ 4 e -.432(9) 0.042(5) -.376(5) 1. 0 
H5 H1+ 4 e -.470(7) 0.184(4) -.093(4) 1. 0 
H6 H1+ 4 e -.355(10) 0.258(9) -.185(4) 1. 0 

loop_
_atom_site_aniso_label
_atom_site_aniso_type_symbol
_atom_site_aniso_B_11
_atom_site_aniso_B_22
_atom_site_aniso_B_33
_atom_site_aniso_B_12
_atom_site_aniso_B_13
_atom_site_aniso_B_23
K1 K1+ 1.56(3) 1.25(3) 0.73(3) 0.22(3) -.75(3) -.22(3)
K2 K1+ 2.17(3) 1.35(3) 1.13(3) 0.38(3) -1.32(3) -.14(3)
P1 P5+ 0.67(3) 0.51(3) 0.10(3) 0.08(3) -.34(3) -.08(3)
P2 P5+ 0.55(3) 0.37(3) 0.20(3) 0.01(3) -.34(3) -.03(3)
O1 O2- 1.39(3) 1.15(3) 0.90(3) 0.09(3) -.74(3) -.49(3)
O2 O2- 1.53(3) 1.28(3) 0.64(3) -.12(3) -.66(3) 0.46(3)
O3 O2- 1.25(3) 0.76(3) 0.82(3) -.30(3) -.72(3) 0.15(3)
O4 O2- 0.78(3) 1.20(3) 0.85(3) 0.27(3) -.57(3) -.14(3)
O5 O2- 2.16(3) 1.36(3) 2.33(3) 0.34(3) -.49(3) 0.24(3)
O6 O2- 1.81(3) 2.70(3) 2.04(3) -.70(3) -1.50(3) 1.10(3)
N1 N3- 0.86(3) 0.98(3) 0.69(3) -.06(3) -.46(3) -.34(3)
N2 N3- 1.04(3) 0.87(3) 0.75(3) -.31(3) -.81(3) 0.36(3)
#End of data_9096-ICSD


