data_166214-ICSD
#?2014 by Fachinformationszentrum Karlsruhe, and the U.S. Secretary of 
#Commerce on behalf of the United States.  All rights reserved.
_database_code_ICSD                166214
_audit_creation_date               2010/08/01
_chemical_name_systematic          'Zinc Tungstate'
_chemical_formula_structural       'Zn (W O4)'
_chemical_formula_sum              'O4 W1 Zn1'
_publ_section_title
;
Crystal structure of Zn W O4 scintillator material in the range of 3 -
 1423 K
;
loop_
_citation_id
_citation_journal_abbrev
_citation_year
_citation_journal_volume
_citation_page_first
_citation_page_last
_citation_journal_id_ASTM
primary 'Journal of Physics: Condensed Matter' 2009 21 325402-1 325402-9 JCOMEL
_publ_author_name
;
Trots, D.M.;Senyshyn, A.;Vasylechko, L.;Niewa, R.;Vad, T.;Mikhailik, 
V.B.;Kraus, H.
;
_cell_length_a                     4.6902(1)
_cell_length_b                     5.7169(1)
_cell_length_c                     4.9268(1)
_cell_angle_alpha                  90.
_cell_angle_beta                   90.626(1)
_cell_angle_gamma                  90.
_cell_volume                       132.1
_cell_formula_units_Z              2
_symmetry_space_group_name_H-M     'P 1 2/c 1'
_symmetry_Int_Tables_number        13
_refine_ls_R_factor_all            .0474
loop_
_symmetry_equiv_pos_site_id
_symmetry_equiv_pos_as_xyz
  1	'x, -y, z+.5'
  2	'-x, -y, -z'
  3	'-x, y, -z+.5'
  4	'x, y, z'
loop_
_atom_type_symbol
_atom_type_oxidation_number
O2-	-2
W6+	6
Zn2+	2
loop_
_atom_site_label
_atom_site_type_symbol
_atom_site_symmetry_multiplicity
_atom_site_Wyckoff_symbol
_atom_site_fract_x
_atom_site_fract_y
_atom_site_fract_z
_atom_site_occupancy
_atom_site_attached_hydrogens
_atom_site_B_iso_or_equiv
Zn1 Zn2+ 2 f 0.5 0.6838(4) 0.250 1. 0 0.48(4) 
W1 W6+ 2 e 0 0.1820(4) 0.250 1. 0 0.36(4) 
O1 O2- 4 g 0.2171(3) 0.8953(2) 0.4373(3) 1. 0 0.42(2) 
O2 O2- 4 g 0.2557(3) 0.3751(3) 0.3999(3) 1. 0 0.44(2) 

#End of data_166214-ICSD


