data_71916-ICSD
#?2014 by Fachinformationszentrum Karlsruhe, and the U.S. Secretary of 
#Commerce on behalf of the United States.  All rights reserved.
_database_code_ICSD                71916
_audit_creation_date               1993/08/22
_audit_update_record               2006/04/01
_chemical_name_systematic          'Calcium Titanate'
_chemical_formula_structural       'Ca (Ti O3)'
_chemical_formula_sum              'Ca1 O3 Ti1'
_chemical_name_mineral             Perovskite
_publ_section_title
;
Electron difference density and structural parameters in Ca Ti O3
;
loop_
_citation_id
_citation_journal_abbrev
_citation_year
_citation_journal_volume
_citation_page_first
_citation_page_last
_citation_journal_id_ASTM
primary 'Acta Crystallographica, Section B: Structural Science'
 1992 48 644 649 ASBSDK
2 'Golden Book of Phase Transitions, Wroclaw' 2002 1 1 123 GBOPT5
_publ_author_name                  'Buttner, R.H.;Maslen, E.N.'
_cell_length_a                     5.388(1)
_cell_length_b                     5.447(1)
_cell_length_c                     7.654(1)
_cell_angle_alpha                  90.
_cell_angle_beta                   90.
_cell_angle_gamma                  90.
_cell_volume                       224.63
_cell_formula_units_Z              4
_symmetry_space_group_name_H-M     'P b n m'
_symmetry_Int_Tables_number        62
_refine_ls_R_factor_all            .037
loop_
_symmetry_equiv_pos_site_id
_symmetry_equiv_pos_as_xyz
  1	'-x+.5, y+.5, z'
  2	'x, y, -z+.5'
  3	'x+.5, -y+.5, z+.5'
  4	'-x, -y, -z'
  5	'x+.5, -y+.5, -z'
  6	'-x, -y, z+.5'
  7	'-x+.5, y+.5, -z+.5'
  8	'x, y, z'
loop_
_atom_type_symbol
_atom_type_oxidation_number
Ca2+	2
O2-	-2
Ti4+	4
loop_
_atom_site_label
_atom_site_type_symbol
_atom_site_symmetry_multiplicity
_atom_site_Wyckoff_symbol
_atom_site_fract_x
_atom_site_fract_y
_atom_site_fract_z
_atom_site_occupancy
_atom_site_attached_hydrogens
Ti1 Ti4+ 4 b 0 0.5 0 1. 0 
Ca1 Ca2+ 4 c 0.99374(6) 0.03410(5) 0.25 1. 0 
O1 O2- 4 c 0.0704(2) 0.4842(2) 0.25 1. 0 
O2 O2- 8 d 0.7109(1) 0.2884(1) 0.0369(1) 1. 0 

loop_
_atom_site_aniso_label
_atom_site_aniso_type_symbol
_atom_site_aniso_U_11
_atom_site_aniso_U_22
_atom_site_aniso_U_33
_atom_site_aniso_U_12
_atom_site_aniso_U_13
_atom_site_aniso_U_23
Ti1 Ti4+ 0.00590(7) 0.00556(6) 0.00423(4) -.00004(7) 0.00008(6) 0.00028(4)
Ca1 Ca2+ 0.00788(9) 0.00905(8) 0.00849(8) -.00159(9) 0 0
O1 O2- 0.00935(37) 0.01019(34) 0.00358(27) -.00070(26) 0 0
O2 O2- 0.00725(22) 0.00683(21) 0.00916(23) -.00231(19) 0.00059(20) 
-.00087(19)
#End of data_71916-ICSD


