data_74982-ICSD
#?2014 by Fachinformationszentrum Karlsruhe, and the U.S. Secretary of 
#Commerce on behalf of the United States.  All rights reserved.
_database_code_ICSD                74982
_audit_creation_date               1995/10/17
_audit_update_record               2012/08/01
_chemical_name_systematic          'Pentalithium Rhenium(VII) Oxide'
_chemical_formula_structural       'Li5 Re O6'
_chemical_formula_sum              'Li5 O6 Re1'
_publ_section_title
;
Structural studies of Li5ReO6, Li4NpO5 and Li5NpO6 by neutron and X-
ray powder diffraction
;
loop_
_citation_id
_citation_journal_abbrev
_citation_year
_citation_journal_volume
_citation_page_first
_citation_page_last
_citation_journal_id_ASTM
primary 'Journal of Alloys and Compounds' 1994 203 289 295 JALCEU
_publ_author_name
;
Morss, L.R.;Appelman, E.H.;Gerz, R.R.;Martin-Rovet, D.
;
_cell_length_a                     5.0433(1)
_cell_length_b                     8.7058(1)
_cell_length_c                     5.0071(1)
_cell_angle_alpha                  90.
_cell_angle_beta                   110.029(1)
_cell_angle_gamma                  90.
_cell_volume                       206.55
_cell_formula_units_Z              2
_symmetry_space_group_name_H-M     'C 1 2/m 1'
_symmetry_Int_Tables_number        12
_refine_ls_R_factor_all            .056
loop_
_symmetry_equiv_pos_site_id
_symmetry_equiv_pos_as_xyz
  1	'-x, y, -z'
  2	'-x, -y, -z'
  3	'x, -y, z'
  4	'x, y, z'
  5	'-x+.5, y+.5, -z'
  6	'-x+.5, -y+.5, -z'
  7	'x+.5, -y+.5, z'
  8	'x+.5, y+.5, z'
loop_
_atom_type_symbol
_atom_type_oxidation_number
Li1+	1
O2-	-2
Re7+	7
loop_
_atom_site_label
_atom_site_type_symbol
_atom_site_symmetry_multiplicity
_atom_site_Wyckoff_symbol
_atom_site_fract_x
_atom_site_fract_y
_atom_site_fract_z
_atom_site_occupancy
_atom_site_attached_hydrogens
Li1 Li1+ 4 g 0 0.6672(7) 0 1. 0 
Li2 Li1+ 2 d 0 0.5 0.5 1. 0 
Li3 Li1+ 4 h 0.5 0.3235(5) 0.5 1. 0 
Re1 Re7+ 2 a 0 0 0 1. 0 
O1 O2- 8 j 0.2703(3) 0.3471(1) 0.7661(2) 1. 0 
O2 O2- 4 i 0.2727(3) 0.5 0.2261(3) 1. 0 

loop_
_atom_site_aniso_label
_atom_site_aniso_type_symbol
_atom_site_aniso_U_11
_atom_site_aniso_U_22
_atom_site_aniso_U_33
_atom_site_aniso_U_12
_atom_site_aniso_U_13
_atom_site_aniso_U_23
Li1 Li1+ 0.017(3) 0.015(2) 0.022(2) 0 0.007(2) 0
Li2 Li1+ 0.003(2) 0.009(3) 0.010(3) 0 -.002(2) 0
Li3 Li1+ 0.006(2) 0.006(1) 0.004(1) 0 0.004(1) 0
Re1 Re7+ 0.002(1) 0.001(1) 0.003(1) 0 0.002(1) 0
O1 O2- 0.003(1) 0.001(1) 0.002(1) -.001(1) -.0005(3) -.0004(3)
O2 O2- 0.001(1) 0.003(1) 0.004(1) 0 0.001(1) 0
#End of data_74982-ICSD


