data_415153-ICSD
#?2014 by Fachinformationszentrum Karlsruhe, and the U.S. Secretary of 
#Commerce on behalf of the United States.  All rights reserved.
_database_code_ICSD                415153
_audit_creation_date               2006/10/01
_chemical_name_systematic          'Lithium Manganese Diphosphate'
_chemical_formula_structural       'Li Mn P2 O7'
_chemical_formula_sum              'Li1 Mn1 O7 P2'
_publ_section_title
;
Two isostructural manganese(III) diphosphates, acid alpha-Mn H P2 O7  
and double Mn Li P2 O7: crystal structure determination from x-ray 
powder diffraction data
;
loop_
_citation_id
_citation_journal_abbrev
_citation_year
_citation_journal_volume
_citation_journal_issue
_citation_page_first
_citation_page_last
_citation_journal_id_ASTM
primary 'Zeitschrift fuer Kristallographie (1979-2010)' 2006 221 2 115 121 ZEKRDZ
_publ_author_name
;
Ivashkevich, L.S.;Selevich, K.A.;Lesnikovich, A.I.;Selevich, 
A.F.;Lyakhov, A.S.
;
_cell_length_a                     7.0018(5)
_cell_length_b                     8.1616(6)
_cell_length_c                     4.7267(4)
_cell_angle_alpha                  90
_cell_angle_beta                   109.404(3)
_cell_angle_gamma                  90
_cell_volume                       254.77
_cell_formula_units_Z              2
_symmetry_space_group_name_H-M     'P 1 21 1'
_symmetry_Int_Tables_number        4
_refine_ls_R_factor_all            .0307
loop_
_symmetry_equiv_pos_site_id
_symmetry_equiv_pos_as_xyz
  1	'-x, y+.5, -z'
  2	'x, y, z'
loop_
_atom_type_symbol
_atom_type_oxidation_number
Li1+	1
Mn3+	3
O2-	-2
P5+	5
loop_
_atom_site_label
_atom_site_type_symbol
_atom_site_symmetry_multiplicity
_atom_site_Wyckoff_symbol
_atom_site_fract_x
_atom_site_fract_y
_atom_site_fract_z
_atom_site_occupancy
_atom_site_attached_hydrogens
_atom_site_U_iso_or_equiv
Mn1 Mn3+ 2 a 0.2344(6) 0.25 0.2170(12) 1.0 0 0.0038(10) 
Li1 Li1+ 2 a 0.8172(17) 0.3812(14) 0.783(3) 1.0 0 0.025 
P1 P5+ 2 a 0.4061(5) 0.4372(4) 0.8119(8) 1.0 0 0.0038(10) 
P2 P5+ 2 a -0.0018(5) 0.5568(5) 0.4140(7) 1.0 0 0.0038(10) 
O1 O2- 2 a 0.3920(19) 0.2963(15) 0.595(3) 1.0 0 0.0038(10) 
O2 O2- 2 a 0.5899(12) 0.5481(12) 0.897(4) 1.0 0 0.0038(10) 
O3 O2- 2 a 0.352(2) 0.3968(17) 1.082(2) 1.0 0 0.0038(10) 
O4 O2- 2 a -0.0110(18) 0.4564(16) 0.160(2) 1.0 0 0.0038(10) 
O5 O2- 2 a -0.0412(15) 0.7020(12) 0.200(2) 1.0 0 0.0038(10) 
O6 O2- 2 a -0.1239(17) 0.5694(17) 0.623(2) 1.0 0 0.0038(10) 
O7 O2- 2 a 0.2470(7) 0.5669(11) 0.585(2) 1.0 0 0.0038(10) 

#End of data_415153-ICSD


