data_36447-ICSD
#?2014 by Fachinformationszentrum Karlsruhe, and the U.S. Secretary of 
#Commerce on behalf of the United States.  All rights reserved.
_database_code_ICSD                36447
_audit_creation_date               1983/12/31
_audit_update_record               2011/02/01
_chemical_name_systematic          'Dipotassium Dicarbonatocuprate'
_chemical_formula_structural       'K2 (Cu (C O3)2)'
_chemical_formula_sum              'C2 Cu1 K2 O6'
_publ_section_title
;
Electron density in potassium biscarbonatocuprate(II)
;
loop_
_citation_id
_citation_journal_abbrev
_citation_year
_citation_journal_volume
_citation_page_first
_citation_page_last
_citation_journal_id_ASTM
primary 'Proceedings of the Indian Academy of Sciences, Serie: Chem. Sci.'
 1983 92 443 448 PIAADM
_publ_author_name
;
Maslen, E.N.;Spadaccini, N.;Watson, K.J.
;
_cell_length_a                     11.425(3)
_cell_length_b                     17.685(4)
_cell_length_c                     6.154(2)
_cell_angle_alpha                  90.
_cell_angle_beta                   90.
_cell_angle_gamma                  90.
_cell_volume                       1243.42
_cell_formula_units_Z              8
_symmetry_space_group_name_H-M     'F d d 2'
_symmetry_Int_Tables_number        43
_refine_ls_R_factor_all            .035
loop_
_symmetry_equiv_pos_site_id
_symmetry_equiv_pos_as_xyz
  1	'x+.25, -y+.25, z+.25'
  2	'-x+.25, y+.25, z+.25'
  3	'-x, -y, z'
  4	'x, y, z'
  5	'x+.25, -y+.75, z+.75'
  6	'x+.75, -y+.25, z+.75'
  7	'x+.75, -y+.75, z+.25'
  8	'-x+.25, y+.75, z+.75'
  9	'-x+.75, y+.25, z+.75'
 10	'-x+.75, y+.75, z+.25'
 11	'-x, -y+.5, z+.5'
 12	'-x+.5, -y, z+.5'
 13	'-x+.5, -y+.5, z'
 14	'x, y+.5, z+.5'
 15	'x+.5, y, z+.5'
 16	'x+.5, y+.5, z'
loop_
_atom_type_symbol
_atom_type_oxidation_number
C4+	4
Cu2+	2
K1+	1
O2-	-2
loop_
_atom_site_label
_atom_site_type_symbol
_atom_site_symmetry_multiplicity
_atom_site_Wyckoff_symbol
_atom_site_fract_x
_atom_site_fract_y
_atom_site_fract_z
_atom_site_occupancy
_atom_site_attached_hydrogens
Cu1 Cu2+ 8 a 0 0 0 1. 0 
K1 K1+ 16 b 0.57808(4) 0.20005(2) 0.19615(9) 1. 0 
O1 O2- 16 b 0.08278(11) 0.09545(7) 0.01308(29) 1. 0 
O2 O2- 16 b 0.10135(11) 0.19980(7) 0.21335(35) 1. 0 
O3 O2- 16 b 0.05979(14) 0.08876(9) 0.37189(31) 1. 0 
C1 C4+ 16 b 0.08180(14) 0.12671(9) 0.20509(39) 1. 0 

#End of data_36447-ICSD


