data_419264-ICSD
#?2014 by Fachinformationszentrum Karlsruhe, and the U.S. Secretary of 
#Commerce on behalf of the United States.  All rights reserved.
_database_code_ICSD                419264
_audit_creation_date               2009/02/01
_chemical_name_systematic          'Dipotassium Tin(II) Diphosphate'
_chemical_formula_structural       'K2 Sn (P2 O7)'
_chemical_formula_sum              'K2 O7 P2 Sn1'
_publ_section_title
;
Synthesis and characterization of alkali-metal tin(II) phosphates: 
Na10 Sn31 (H P O4)6 (P2 O7)6 (P O4)12 and K2 Sn (P2 O7)
;
loop_
_citation_id
_citation_journal_abbrev
_citation_year
_citation_journal_volume
_citation_journal_issue
_citation_page_first
_citation_page_last
_citation_journal_id_ASTM
primary 'Solid State Sciences' 2008 10 11 1485 1490 SSSCFJ
_publ_author_name
;
Weng Shengfeng;Chen Kueibo;Lee Chishen
;
_cell_length_a                     9.856(3)
_cell_length_b                     6.7244(17)
_cell_length_c                     12.225(3)
_cell_angle_alpha                  90.00
_cell_angle_beta                   108.240(5)
_cell_angle_gamma                  90.00
_cell_volume                       769.51
_cell_formula_units_Z              4
_symmetry_space_group_name_H-M     'P 1 21/n 1'
_symmetry_Int_Tables_number        14
_refine_ls_R_factor_all            .0177
loop_
_symmetry_equiv_pos_site_id
_symmetry_equiv_pos_as_xyz
  1	'-x+.5, y+.5, -z+.5'
  2	'-x, -y, -z'
  3	'x+.5, -y+.5, z+.5'
  4	'x, y, z'
loop_
_atom_type_symbol
_atom_type_oxidation_number
K1+	1
O2-	-2
P5+	5
Sn2+	2
loop_
_atom_site_label
_atom_site_type_symbol
_atom_site_symmetry_multiplicity
_atom_site_Wyckoff_symbol
_atom_site_fract_x
_atom_site_fract_y
_atom_site_fract_z
_atom_site_occupancy
_atom_site_attached_hydrogens
_atom_site_U_iso_or_equiv
Sn1 Sn2+ 4 e 0.252716(13) 0.16138(2) 0.504620(11) 1 0 0.01496(7) 
K1 K1+ 4 e -0.17991(6) -0.14484(7) 0.84295(4) 1 0 0.02312(12) 
K2 K1+ 4 e 0.36588(5) 0.12751(7) 0.85289(4) 1 0 0.02130(11) 
P1 P5+ 4 e 0.01056(6) 0.13101(8) 0.64887(4) 1 0 0.01243(11) 
P2 P5+ 4 e 0.50726(6) 0.13879(7) 0.35531(5) 1 0 0.01258(12) 
O1 O2- 4 e 0.14028(15) 0.0242(2) 0.63485(12) 1 0 0.0204(3) 
O2 O2- 4 e -0.11117(14) -0.01649(19) 0.64281(12) 1 0 0.0200(3) 
O3 O2- 4 e 0.63509(14) 0.1131(2) 0.46591(12) 1 0 0.0183(3) 
O4 O2- 4 e -0.46270(17) -0.19047(19) 0.92421(13) 1 0 0.0230(3) 
O5 O2- 4 e -0.11611(14) 0.2567(2) 0.87969(13) 1 0 0.0231(3) 
O6 O2- 4 e 0.06829(14) 0.2002(2) 0.78320(12) 1 0 0.0170(3) 
O7 O2- 4 e 0.46916(15) -0.0493(2) 0.28904(12) 1 0 0.0249(3) 

loop_
_atom_site_aniso_label
_atom_site_aniso_type_symbol
_atom_site_aniso_U_11
_atom_site_aniso_U_22
_atom_site_aniso_U_33
_atom_site_aniso_U_12
_atom_site_aniso_U_13
_atom_site_aniso_U_23
Sn1 Sn2+ 0.01454(10) 0.01351(11) 0.01735(10) -0.00057(4) 0.00572(7) 
-0.00105(4)
K1 K1+ 0.0268(3) 0.0188(2) 0.0224(2) 0.00079(17) 0.0058(2) 0.00130(17)
K2 K1+ 0.0228(2) 0.0200(2) 0.0186(2) 0.00388(17) 0.00298(18) -0.00197(17)
P1 P5+ 0.0138(2) 0.0129(2) 0.0116(2) -0.00184(18) 0.00529(19) -0.00082(18)
P2 P5+ 0.0122(2) 0.0140(2) 0.0124(2) -0.00034(17) 0.00516(19) 0.00176(17)
O1 O2- 0.0217(7) 0.0192(7) 0.0239(7) -0.0002(5) 0.0125(6) -0.0037(6)
O2 O2- 0.0169(7) 0.0240(7) 0.0176(7) -0.0073(5) 0.0032(5) 0.0025(6)
O3 O2- 0.0174(7) 0.0196(7) 0.0159(7) 0.0040(5) 0.0025(5) 0.0026(5)
O4 O2- 0.0322(9) 0.0168(7) 0.0161(7) 0.0027(6) 0.0019(6) -0.0017(5)
O5 O2- 0.0186(7) 0.0259(7) 0.0289(8) -0.0073(6) 0.0133(6) -0.0091(7)
O6 O2- 0.0166(7) 0.0203(7) 0.0135(7) 0.0044(5) 0.0038(6) -0.0029(5)
O7 O2- 0.0334(8) 0.0205(7) 0.0222(8) -0.0092(6) 0.0108(6) -0.0029(6)
#End of data_419264-ICSD


