data_414420-ICSD
#?2014 by Fachinformationszentrum Karlsruhe, and the U.S. Secretary of 
#Commerce on behalf of the United States.  All rights reserved.
_database_code_ICSD                414420
_audit_creation_date               2005/10/01
_chemical_name_systematic
;
Synthesis, Structure, Band Gap, And Electronic Structure Of Cs Ag Sb4 
S7
;
_chemical_formula_structural       'Cs Ag Sb4 S7'
_chemical_formula_sum              'Ag1 Cs1 S7 Sb4'
_publ_section_title
;
Synthesis, structure, band gap, and electronic structure of Cs Ag Sb4 
S7
;
loop_
_citation_id
_citation_journal_abbrev
_citation_year
_citation_journal_volume
_citation_page_first
_citation_page_last
_citation_journal_id_ASTM
primary 'Journal of Solid State Chemistry' 2005 178 212 217 JSSCBI
_publ_author_name                  'Huang, F.-Q.;Ibers, J.A.'
_cell_length_a                     26.127(2)
_cell_length_b                     8.8599(7)
_cell_length_c                     12.0998(10)
_cell_angle_alpha                  90.00
_cell_angle_beta                   97.6500(10)
_cell_angle_gamma                  90.00
_cell_volume                       2775.96
_cell_formula_units_Z              8
_symmetry_space_group_name_H-M     'C 1 2/c 1'
_symmetry_Int_Tables_number        15
_refine_ls_R_factor_all            .0365
loop_
_symmetry_equiv_pos_site_id
_symmetry_equiv_pos_as_xyz
  1	'x, -y, z+.5'
  2	'-x, -y, -z'
  3	'-x, y, -z+.5'
  4	'x, y, z'
  5	'x+.5, -y+.5, z+.5'
  6	'-x+.5, -y+.5, -z'
  7	'-x+.5, y+.5, -z+.5'
  8	'x+.5, y+.5, z'
loop_
_atom_type_symbol
_atom_type_oxidation_number
Ag1+	1
Cs1+	1
S2-	-2
Sb3+	3
loop_
_atom_site_label
_atom_site_type_symbol
_atom_site_symmetry_multiplicity
_atom_site_Wyckoff_symbol
_atom_site_fract_x
_atom_site_fract_y
_atom_site_fract_z
_atom_site_occupancy
_atom_site_attached_hydrogens
_atom_site_U_iso_or_equiv
Cs1 Cs1+ 4 e 0.0000 0.66403(6) 0.2500 1 0 0.02101(13) 
Cs2 Cs1+ 4 d 0.2500 0.2500 0.5000 1 0 0.01861(12) 
Sb1 Sb3+ 8 f 0.073885(14) 0.05419(4) 0.07803(3) 1 0 0.01016(9) 
Sb2 Sb3+ 8 f 0.141115(14) 0.41881(4) 0.06462(3) 1 0 0.01086(9) 
Sb3 Sb3+ 8 f 0.352327(13) 0.39835(4) 0.17915(3) 1 0 0.00986(9) 
Sb4 Sb3+ 8 f 0.422186(14) 0.20812(4) 0.62891(3) 1 0 0.01120(9) 
Ag1 Ag1+ 8 f 0.257099(19) 0.10153(5) 0.18243(4) 1 0 0.02333(12) 
S1 S2- 8 f 0.03848(5) 0.02658(14) 0.38722(10) 1 0 0.0102(3) 
S2 S2- 8 f 0.05030(5) 0.32277(14) 0.04881(11) 1 0 0.0121(3) 
S3 S2- 8 f 0.15091(5) 0.18178(14) 0.29362(11) 1 0 0.0103(3) 
S4 S2- 8 f 0.16437(5) 0.09306(14) 0.02683(11) 1 0 0.0104(3) 
S5 S2- 8 f 0.26151(5) 0.38671(15) 0.19470(12) 1 0 0.0144(3) 
S6 S2- 8 f 0.35204(6) 0.05232(15) 0.13189(11) 1 0 0.0140(3) 
S7 S2- 8 f 0.39104(6) 0.19468(15) 0.43042(11) 1 0 0.0136(3) 

loop_
_atom_site_aniso_label
_atom_site_aniso_type_symbol
_atom_site_aniso_U_11
_atom_site_aniso_U_22
_atom_site_aniso_U_33
_atom_site_aniso_U_12
_atom_site_aniso_U_13
_atom_site_aniso_U_23
Cs1 Cs1+ 0.0267(3) 0.0176(3) 0.0175(3) 0.000 -0.0017(2) 0.000
Cs2 Cs1+ 0.0158(3) 0.0192(3) 0.0193(3) -0.0013(2) -0.0032(2) -0.0006(2)
Sb1 Sb3+ 0.01144(18) 0.00912(18) 0.01000(18) -0.00052(13) 0.00170(14) 
0.00034(13)
Sb2 Sb3+ 0.00976(18) 0.01076(18) 0.01219(18) -0.00131(13) 0.00195(14) 
0.00001(13)
Sb3 Sb3+ 0.00884(18) 0.01134(18) 0.00941(18) -0.00049(13) 0.00127(13) 
0.00011(13)
Sb4 Sb3+ 0.01155(19) 0.01135(18) 0.01095(18) 0.00317(13) 0.00242(14) 
0.00140(13)
Ag1 Ag1+ 0.0226(3) 0.0151(2) 0.0340(3) -0.00118(18) 0.0101(2) 0.00469(19)
S1 S2- 0.0088(6) 0.0114(6) 0.0105(6) -0.0014(5) 0.0019(5) 0.0009(5)
S2 S2- 0.0091(6) 0.0107(6) 0.0165(7) 0.0011(5) 0.0024(5) 0.0010(5)
S3 S2- 0.0117(6) 0.0091(6) 0.0105(6) 0.0013(5) 0.0031(5) 0.0004(5)
S4 S2- 0.0094(6) 0.0117(6) 0.0100(6) 0.0004(5) 0.0008(5) 0.0009(5)
S5 S2- 0.0097(7) 0.0132(6) 0.0211(7) -0.0028(5) 0.0055(5) -0.0037(5)
S6 S2- 0.0173(7) 0.0116(6) 0.0145(7) 0.0018(5) 0.0072(5) 0.0019(5)
S7 S2- 0.0209(7) 0.0097(6) 0.0104(6) -0.0008(5) 0.0032(5) 0.0006(5)
#End of data_414420-ICSD


