data_81863-ICSD
#?2014 by Fachinformationszentrum Karlsruhe, and the U.S. Secretary of 
#Commerce on behalf of the United States.  All rights reserved.
_database_code_ICSD                81863
_audit_creation_date               1999/11/30
_chemical_name_systematic
;
Dipotassium Pentafluoroaluminate Hydrate
;
_chemical_formula_structural       'K2 (Al F5) (H2 O)'
_chemical_formula_sum              'H2 Al1 F5 K2 O1'
_publ_section_title
;
The crystal structure of a new form of the dipotassium 
pentafluoroaluminate hydrate, K2 Al F5 . (H2 O), and of its 
dehydrate, K2 Al F5
;
loop_
_citation_id
_citation_journal_abbrev
_citation_year
_citation_journal_volume
_citation_page_first
_citation_page_last
_citation_journal_id_ASTM
primary 'Journal of Fluorine Chemistry' 1996 77 39 44 JFLCAR
_publ_author_name
;
de Kozak, A.;Gredin, P.;Pierrard, A.;Renaudin, J.
;
_cell_length_a                     6.133(3)
_cell_length_b                     7.475(4)
_cell_length_c                     6.142(3)
_cell_angle_alpha                  90.
_cell_angle_beta                   97.17(2)
_cell_angle_gamma                  90.
_cell_volume                       279.37
_cell_formula_units_Z              2
_symmetry_space_group_name_H-M     'P 1 21/m 1'
_symmetry_Int_Tables_number        11
_refine_ls_R_factor_all            .03
loop_
_symmetry_equiv_pos_site_id
_symmetry_equiv_pos_as_xyz
  1	'x, -y+.5, z'
  2	'-x, -y, -z'
  3	'-x, y+.5, -z'
  4	'x, y, z'
loop_
_atom_type_symbol
_atom_type_oxidation_number
Al3+	3
F1-	-1
H1+	1
K1+	1
O2-	-2
loop_
_atom_site_label
_atom_site_type_symbol
_atom_site_symmetry_multiplicity
_atom_site_Wyckoff_symbol
_atom_site_fract_x
_atom_site_fract_y
_atom_site_fract_z
_atom_site_occupancy
_atom_site_attached_hydrogens
_atom_site_U_iso_or_equiv
K1 K1+ 2 e 0.0732(1) 0.25 0.5011(1) 1. 0 0 
K2 K1+ 2 e 0.5013(1) 0.25 0.0734(1) 1. 0 0 
Al1 Al3+ 2 a 0 0 0 1. 0 0 
F1 F1- 2 e 0.0013(3) 0.25 0.0019(3) 1. 0 0 
F2 F1- 4 f 0.8079(2) 0.9999(2) 0.1925(2) 1. 0 0 
F3 F1- 4 f 0.2191(2) 0.9998(2) 0.2190(2) 1. 0 0 
O1 O2- 2 e 0.5358(4) 0.25 0.5358(4) 1. 0 0 
H1 H1+ 4 f 0.4077(15) 0.6682(15) 0.4101(15) 1. 0 0.025 

loop_
_atom_site_aniso_label
_atom_site_aniso_type_symbol
_atom_site_aniso_U_11
_atom_site_aniso_U_22
_atom_site_aniso_U_33
_atom_site_aniso_U_12
_atom_site_aniso_U_13
_atom_site_aniso_U_23
K1 K1+ 0.0331(3) 0.0210(3) 0.0220(3) 0 0.0011(3) 0
K2 K1+ 0.0211(3) 0.0212(3) 0.0339(4) 0 0.0012(3) 0
Al1 Al3+ 0.0124(3) 0.0083(3) 0.0134(3) 0.0003(3) -.0007(2) 0.0006(3)
F1 F1- 0.0328(8) 0.0082(7) 0.0346(8) 0 -.0014(7) 0
F2 F1- 0.0367(6) 0.0254(7) 0.0375(6) 0.0103(6) 0.0206(5) 0.0109(6)
F3 F1- 0.0340(6) 0.0214(6) 0.0330(6) 0.0010(7) -.0181(5) 0.0008(7)
O1 O2- 0.0336(11) 0.0234(10) 0.0377(11) 0 -.0086(9) 0
#End of data_81863-ICSD


