data_191582-ICSD
#?2014 by Fachinformationszentrum Karlsruhe, and the U.S. Secretary of 
#Commerce on behalf of the United States.  All rights reserved.
_database_code_ICSD                191582
_audit_creation_date               2014/08/01
_chemical_name_systematic          'Potassium Lanthanum Tetraphosphate'
_chemical_formula_structural       'K La (P O3)4'
_chemical_formula_sum              'K1 La1 O12 P4'
_publ_section_title
;
Crystal structure, electronic properties and optical band gap of K 
La1-x Eux (P O3)4
;
loop_
_citation_id
_citation_journal_abbrev
_citation_year
_citation_journal_volume
_citation_page_first
_citation_page_last
_citation_journal_id_ASTM
primary 'Journal of Alloys and Compounds' 2014 609 222 227 JALCEU
_publ_author_name
;
Ferhi, M.;Horchani-Naifer, K.;Bouzidi, C.;Elhouichet, H.;Ferid, M.
;
_cell_length_a                     7.3104(2)
_cell_length_b                     8.5341(2)
_cell_length_c                     8.0896(2)
_cell_angle_alpha                  90.
_cell_angle_beta                   92.15(0)
_cell_angle_gamma                  90.
_cell_volume                       504.34
_cell_formula_units_Z              2
_symmetry_space_group_name_H-M     'P 1 21 1'
_symmetry_Int_Tables_number        4
_refine_ls_R_factor_all            .0173
loop_
_symmetry_equiv_pos_site_id
_symmetry_equiv_pos_as_xyz
  1	'-x, y+.5, -z'
  2	'x, y, z'
loop_
_atom_type_symbol
_atom_type_oxidation_number
K1+	1
La3+	3
O2-	-2
P5+	5
loop_
_atom_site_label
_atom_site_type_symbol
_atom_site_symmetry_multiplicity
_atom_site_Wyckoff_symbol
_atom_site_fract_x
_atom_site_fract_y
_atom_site_fract_z
_atom_site_occupancy
_atom_site_attached_hydrogens
_atom_site_U_iso_or_equiv
La1 La3+ 2 a 0.2338(1) 0.2518(3) 0.2416(8) 1. 0 0.0066(9) 
P1 P5+ 2 a 0.0031(8) 0.6057(3) 0.3807(6) 1. 0 0.0076(4) 
P2 P5+ 2 a -0.3750(5) 0.4988(1) 0.3940(4) 1. 0 0.0077(2) 
P3 P5+ 2 a 0.1047(6) 0.8281(7) 0.1081(1) 1. 0 0.0077(7) 
P4 P5+ 2 a 0.4337(8) 0.6296(8) 0.1005(7) 1. 0 0.0078(0) 
K1 K1+ 2 a 0.2735(1) 0.5574(4) -0.2813(3) 1. 0 0.0270(6) 
O1 O2- 2 a -0.1676(5) 0.4926(1) 0.3466(9) 1. 0 0.0110(8) 
O2 O2- 2 a -0.3909(2) 0.5568(6) 0.5652(0) 1. 0 0.0115(3) 
O3 O2- 2 a -0.4574(2) 0.3455(1) 0.3518(7) 1. 0 0.0136(1) 
O4 O2- 2 a 0.1701(0) 0.5074(9) 0.3895(4) 1. 0 0.0111(3) 
O5 O2- 2 a -0.0281(3) 0.7071(6) 0.5255(2) 1. 0 0.0148(2) 
O6 O2- 2 a 0.3137(9) 0.7819(7) 0.1366(7) 1. 0 0.0138(7) 
O7 O2- 2 a 0.0456(3) 0.7971(9) -0.0674(3) 1. 0 0.0153(6) 
O8 O2- 2 a 0.0860(5) 0.9861(7) 0.1816(0) 1. 0 0.0166(6) 
O9 O2- 2 a 0.3171(6) 0.4908(5) 0.0751(7) 1. 0 0.0121(4) 
O10 O2- 2 a -0.0066(7) 0.7079(5) 0.2195(4) 1. 0 0.0178(6) 
O11 O2- 2 a -0.4551(9) 0.6321(7) 0.2753(9) 1. 0 0.0144(8) 
O12 O2- 2 a 0.5601(7) 0.6626(4) -0.0343(1) 1. 0 0.0207(2) 

#End of data_191582-ICSD


