data_413290-ICSD
#?2014 by Fachinformationszentrum Karlsruhe, and the U.S. Secretary of 
#Commerce on behalf of the United States.  All rights reserved.
_database_code_ICSD                413290
_audit_creation_date               2004/10/01
_chemical_name_systematic
;
Silver(I) Bismuth Sulfide Dichloride
;
_chemical_formula_structural       'Ag Bi S Cl2'
_chemical_formula_sum              'Ag1 Bi1 Cl2 S1'
_publ_section_title
;
Synthese, Kristallstruktur und elektronische Bandstruktur der 
isotypen Sulfidchloride Cu Bi S Cl2 und Ag Bi S Cl2
;
loop_
_citation_id
_citation_journal_abbrev
_citation_year
_citation_journal_volume
_citation_page_first
_citation_page_last
_citation_journal_id_ASTM
primary 'Zeitschrift fuer Anorganische und Allgemeine Chemie (1950) (DE)'
 2004 630 63 67 ZAACAB
_publ_author_name
;
Ruck, M.;Poudeu Poudeu, P.F.;Soehnel, T.
;
_cell_length_a                     3.971(1)
_cell_length_b                     13.712(3)
_cell_length_c                     8.824(2)
_cell_angle_alpha                  90.
_cell_angle_beta                   90.
_cell_angle_gamma                  90.
_cell_volume                       480.47
_cell_formula_units_Z              4
_symmetry_space_group_name_H-M     'C m c m'
_symmetry_Int_Tables_number        63
_refine_ls_R_factor_all            .015
loop_
_symmetry_equiv_pos_site_id
_symmetry_equiv_pos_as_xyz
  1	'-x, y, -z+.5'
  2	'-x, -y, z+.5'
  3	'-x, y, z'
  4	'-x, -y, -z'
  5	'x, -y, z+.5'
  6	'x, y, -z+.5'
  7	'x, -y, -z'
  8	'x, y, z'
  9	'-x+.5, y+.5, -z+.5'
 10	'-x+.5, -y+.5, z+.5'
 11	'-x+.5, y+.5, z'
 12	'-x+.5, -y+.5, -z'
 13	'x+.5, -y+.5, z+.5'
 14	'x+.5, y+.5, -z+.5'
 15	'x+.5, -y+.5, -z'
 16	'x+.5, y+.5, z'
loop_
_atom_type_symbol
_atom_type_oxidation_number
Ag1+	1
Bi3+	3
Cl1-	-1
S2-	-2
loop_
_atom_site_label
_atom_site_type_symbol
_atom_site_symmetry_multiplicity
_atom_site_Wyckoff_symbol
_atom_site_fract_x
_atom_site_fract_y
_atom_site_fract_z
_atom_site_occupancy
_atom_site_attached_hydrogens
_atom_site_U_iso_or_equiv
Bi1 Bi3+ 4 c 0 0.291515(18) 0.25 1. 0 0.01759(13) 
Ag1 Ag1+ 4 a 0.5 0.5 0.5 1. 0 0.0448(2) 
Cl1 Cl1- 8 f 0 0.34378(9) 0.56215(16) 1. 0 0.0170(3) 
S1 S2- 4 c 0.5 0.41903(12) 0.25 1. 0 0.0115(4) 

loop_
_atom_site_aniso_label
_atom_site_aniso_type_symbol
_atom_site_aniso_U_11
_atom_site_aniso_U_22
_atom_site_aniso_U_33
_atom_site_aniso_U_12
_atom_site_aniso_U_13
_atom_site_aniso_U_23
Bi1 Bi3+ 0.0139(2) 0.01645(16) 0.02244(19) 0 0 0
Ag1 Ag1+ 0.0588(6) 0.0450(4) 0.0306(4) 0 0 -.0257(3)
Cl1 Cl1- 0.0167(8) 0.0220(6) 0.0125(6) 0 0 -.0002(5)
S1 S2- 0.010(1) 0.0139(7) 0.0105(8) 0 0 0
#End of data_413290-ICSD


