data_163264-ICSD
#?2014 by Fachinformationszentrum Karlsruhe, and the U.S. Secretary of 
#Commerce on behalf of the United States.  All rights reserved.
_database_code_ICSD                163264
_audit_creation_date               2009/08/01
_audit_update_record               2011/02/01
_chemical_name_systematic          'Calcium Tetrahydridoborate - Beta'
_chemical_formula_structural       'Ca (B H4)2'
_chemical_formula_sum              'H8 B2 Ca1'
_publ_section_title
;
Crystal structures and phase transformations in Ca (B H4)2
;
loop_
_citation_id
_citation_journal_abbrev
_citation_year
_citation_journal_volume
_citation_page_first
_citation_page_last
_citation_journal_id_ASTM
primary 'Acta Materialia' 2009 57 732 738 ACMAFD
_publ_author_name
;
Filinchuk, Ya.;Roennebro, E.;Chandra, D.
;
_cell_length_a                     6.91894(11)
_cell_length_b                     6.91894(11)
_cell_length_c                     4.34711(12)
_cell_angle_alpha                  90.
_cell_angle_beta                   90.
_cell_angle_gamma                  90.
_cell_volume                       208.1
_cell_formula_units_Z              2
_symmetry_space_group_name_H-M     'P -4'
_symmetry_Int_Tables_number        81
_refine_ls_R_factor_all            .021
loop_
_symmetry_equiv_pos_site_id
_symmetry_equiv_pos_as_xyz
  1	'-y, x, -z'
  2	'y, -x, -z'
  3	'-x, -y, z'
  4	'x, y, z'
loop_
_atom_type_symbol
_atom_type_oxidation_number
B3+	3
Ca2+	2
H1-	-1
loop_
_atom_site_label
_atom_site_type_symbol
_atom_site_symmetry_multiplicity
_atom_site_Wyckoff_symbol
_atom_site_fract_x
_atom_site_fract_y
_atom_site_fract_z
_atom_site_occupancy
_atom_site_attached_hydrogens
_atom_site_B_iso_or_equiv
Ca1 Ca2+ 2 g 0.5 0 0.240(2) 1. 0 3.37(4) 
B1 B3+ 4 h 0.790(1) 0.693(9) 0.259(2) 1. 0 4.26(14) 
H1 H1- 4 h 0.626(2) 0.727(2) 0.217(5) 1. 0 6.0(9) 
H2 H1- 4 h 0.833(3) 0.765(2) 0.491(3) 1. 0 6.0(9) 
H3 H1- 4 h 0.808(3) 0.528(1) 0.262(5) 1. 0 6.0(9) 
H4 H1- 4 h 0.873(3) 0.769(1) 0.062(5) 1. 0 6.0(9) 

#End of data_163264-ICSD


