data_423921-ICSD
#?2014 by Fachinformationszentrum Karlsruhe, and the U.S. Secretary of 
#Commerce on behalf of the United States.  All rights reserved.
_database_code_ICSD                423921
_audit_creation_date               2013/08/01
_chemical_name_systematic          'Silver Erbium Disulfide'
_chemical_formula_structural       'Ag Er S2'
_chemical_formula_sum              'Ag1 Er1 S2'
_publ_section_title
;
Synthesis and crystal structure of Ag Er S2 and Ag Tm S2
;
loop_
_citation_id
_citation_journal_abbrev
_citation_year
_citation_journal_volume
_citation_journal_issue
_citation_page_first
_citation_page_last
_citation_journal_id_ASTM
primary 'Zeitschrift fuer Kristallographie, Supplement Issue'
 2012 2012 32 109 110 ZKSUP2
_publ_author_name                  'Strobel, S.;Spohn, B.;Schleid, T.'
_cell_length_a                     5.3894(3)
_cell_length_b                     5.3894(3)
_cell_length_c                     11.9015(8)
_cell_angle_alpha                  90.00
_cell_angle_beta                   90.00
_cell_angle_gamma                  90.00
_cell_volume                       345.69
_cell_formula_units_Z              4
_symmetry_space_group_name_H-M     'I 41 m d'
_symmetry_Int_Tables_number        109
_refine_ls_R_factor_all            .0207
loop_
_symmetry_equiv_pos_site_id
_symmetry_equiv_pos_as_xyz
  1	'y, -x+.5, z+.25'
  2	'-y, x+.5, z+.25'
  3	'x, -y, z'
  4	'-x, y, z'
  5	'-y, -x+.5, z+.25'
  6	'y, x+.5, z+.25'
  7	'-x, -y, z'
  8	'x, y, z'
  9	'y+.5, -x, z+.75'
 10	'-y+.5, x, z+.75'
 11	'x+.5, -y+.5, z+.5'
 12	'-x+.5, y+.5, z+.5'
 13	'-y+.5, -x, z+.75'
 14	'y+.5, x, z+.75'
 15	'-x+.5, -y+.5, z+.5'
 16	'x+.5, y+.5, z+.5'
loop_
_atom_type_symbol
_atom_type_oxidation_number
Ag1+	1
Er3+	3
S2-	-2
loop_
_atom_site_label
_atom_site_type_symbol
_atom_site_symmetry_multiplicity
_atom_site_Wyckoff_symbol
_atom_site_fract_x
_atom_site_fract_y
_atom_site_fract_z
_atom_site_occupancy
_atom_site_attached_hydrogens
_atom_site_U_iso_or_equiv
Ag1 Ag1+ 4 a 0.0000 0.0000 0.46951(16) 1 0 0.0456(6) 
Er1 Er3+ 4 a 0.0000 0.0000 0.00000(8) 1 0 0.0146(3) 
S1 S2- 4 a 0.0000 0.0000 0.2318(9) 1 0 0.0158(13) 
S2 S2- 4 a 0.0000 0.0000 0.7773(9) 1 0 0.0240(16) 

loop_
_atom_site_aniso_label
_atom_site_aniso_type_symbol
_atom_site_aniso_U_11
_atom_site_aniso_U_22
_atom_site_aniso_U_33
_atom_site_aniso_U_12
_atom_site_aniso_U_13
_atom_site_aniso_U_23
Ag1 Ag1+ 0.0543(11) 0.0355(10) 0.0471(12) 0.000 0.000 0.000
Er1 Er3+ 0.0101(4) 0.0158(5) 0.0179(4) 0.000 0.000 0.000
S1 S2- 0.021(3) 0.012(2) 0.015(3) 0.000 0.000 0.000
S2 S2- 0.019(3) 0.035(5) 0.018(4) 0.000 0.000 0.000
#End of data_423921-ICSD


