data_260270-ICSD
#?2014 by Fachinformationszentrum Karlsruhe, and the U.S. Secretary of 
#Commerce on behalf of the United States.  All rights reserved.
_database_code_ICSD                260270
_audit_creation_date               2009/08/01
_chemical_name_systematic
;
Potassium Nickel(II) Gallium Trisphosphate(V) Dihydrate
;
_chemical_formula_structural       'K Ni Ga2 (P O4)3 (H2 O)2'
_chemical_formula_sum              'H4 Ga2 K1 Ni1 O14 P3'
_publ_section_title
;
Potassium nickel(II) gallium phosphate hydrate, K [Ni Ga2 (P O4)3 (H2 
O)2]
;
loop_
_citation_id
_citation_journal_abbrev
_citation_year
_citation_journal_volume
_citation_journal_issue
_citation_page_first
_citation_page_last
_citation_journal_id_ASTM
primary 'Acta Crystallographica, Section E. Structure Reports Online'
 2009 65 5 i38 i39 ACSEBH
_publ_author_name
;
Chippindale, A.M.;Sharma, A.V.;Hibble, S.J.
;
_cell_length_a                     13.2095(13)
_cell_length_b                     10.1733(9)
_cell_length_c                     8.8130(9)
_cell_angle_alpha                  90
_cell_angle_beta                   107.680(10)
_cell_angle_gamma                  90
_cell_volume                       1128.39
_cell_formula_units_Z              4
_symmetry_space_group_name_H-M     'C 1 2/c 1'
_symmetry_Int_Tables_number        15
_refine_ls_R_factor_all            .0215
loop_
_symmetry_equiv_pos_site_id
_symmetry_equiv_pos_as_xyz
  1	'x, -y, z+.5'
  2	'-x, -y, -z'
  3	'-x, y, -z+.5'
  4	'x, y, z'
  5	'x+.5, -y+.5, z+.5'
  6	'-x+.5, -y+.5, -z'
  7	'-x+.5, y+.5, -z+.5'
  8	'x+.5, y+.5, z'
loop_
_atom_type_symbol
_atom_type_oxidation_number
Ga3+	3
H1+	1
K1+	1
Ni2+	2
O2-	-2
P5+	5
loop_
_atom_site_label
_atom_site_type_symbol
_atom_site_symmetry_multiplicity
_atom_site_Wyckoff_symbol
_atom_site_fract_x
_atom_site_fract_y
_atom_site_fract_z
_atom_site_occupancy
_atom_site_attached_hydrogens
_atom_site_U_iso_or_equiv
Ga1 Ga3+ 8 f 0.172478(11) 0.075592(15) 0.069169(16) 1.0000 0 0.0036 
Ni1 Ni2+ 4 e 0.0000 0.27385(3) 0.2500 1.0000 0 0.0053 
K1 K1+ 4 e 0.0000 0.63513(6) 0.2500 1.0000 0 0.0264 
P1 P5+ 4 e 0.0000 0.00118(5) 0.2500 1.0000 0 0.0036 
P2 P5+ 8 f 0.20870(3) 0.37358(4) 0.17941(4) 1.0000 0 0.0043 
O1 O2- 8 f 0.05847(8) 0.09109(11) -0.11504(12) 1.0000 0 0.0063 
O2 O2- 8 f 0.09754(9) 0.39793(11) 0.18796(14) 1.0000 0 0.0082 
O3 O2- 8 f 0.07314(9) 0.09888(11) 0.19895(13) 1.0000 0 0.0064 
O4 O2- 8 f 0.09834(9) 0.29514(12) 0.48612(14) 1.0000 0 0.0111 
O5 O2- 8 f 0.20652(8) -0.08860(10) 0.16197(12) 1.0000 0 0.0061 
O6 O2- 8 f 0.27707(8) 0.04382(11) -0.04158(13) 1.0000 0 0.0070 
O7 O2- 8 f 0.23679(8) 0.22862(11) 0.15963(13) 1.0000 0 0.0070 
H1 H1+ 8 f 0.135(3) 0.236(3) 0.547(4) 1.0000 0 0.0500 
H2 H1+ 8 f 0.136(3) 0.361(3) 0.481(5) 1.0000 0 0.0500 

loop_
_atom_site_aniso_label
_atom_site_aniso_type_symbol
_atom_site_aniso_U_11
_atom_site_aniso_U_22
_atom_site_aniso_U_33
_atom_site_aniso_U_12
_atom_site_aniso_U_13
_atom_site_aniso_U_23
Ga1 Ga3+ 0.00279(8) 0.00233(9) 0.00525(8) -0.00019(4) 0.00068(5) 0.00009(4)
Ni1 Ni2+ 0.00413(11) 0.00400(12) 0.00818(12) 0.0000 0.00228(8) 0.0000
K1 K1+ 0.0287(3) 0.0109(2) 0.0465(4) 0.0000 0.0215(3) 0.0000
P1 P5+ 0.00246(18) 0.0030(2) 0.00514(19) 0.0000 0.00089(14) 0.0000
P2 P5+ 0.00345(15) 0.00312(15) 0.00631(14) -0.00077(10) 0.00159(11) 
-0.00031(10)
O1 O2- 0.0048(4) 0.0058(4) 0.0066(4) 0.0003(3) -0.0007(3) -0.0014(3)
O2 O2- 0.0042(4) 0.0074(4) 0.0140(4) 0.0001(3) 0.0042(3) 0.0016(4)
O3 O2- 0.0058(4) 0.0043(4) 0.0108(4) -0.0002(3) 0.0051(3) 0.0010(3)
O4 O2- 0.0106(5) 0.0083(4) 0.0115(5) -0.0003(4) -0.0009(4) 0.0023(4)
O5 O2- 0.0063(4) 0.0039(4) 0.0072(4) 0.0008(3) 0.0006(3) 0.0018(3)
O6 O2- 0.0071(4) 0.0062(4) 0.0090(4) 0.0011(3) 0.0042(3) 0.0013(3)
O7 O2- 0.0068(4) 0.0038(4) 0.0104(4) -0.0017(3) 0.0029(3) -0.0030(3)
#End of data_260270-ICSD


