data_171019-ICSD
#?2014 by Fachinformationszentrum Karlsruhe, and the U.S. Secretary of 
#Commerce on behalf of the United States.  All rights reserved.
_database_code_ICSD                171019
_audit_creation_date               2006/04/01
_audit_update_record               2012/02/01
_chemical_name_systematic          'Calcium Octaborate Tetrahydroxide'
_chemical_formula_structural       'Ca B8 O11 (O H)4'
_chemical_formula_sum              'H4 B8 Ca1 O15'
_publ_section_title
;
Redetermination of Ca B8 O11 (O H)4 at low temperature
;
loop_
_citation_id
_citation_journal_abbrev
_citation_year
_citation_journal_volume
_citation_page_first
_citation_page_last
_citation_journal_id_ASTM
primary 'Acta Crystallographica, Section E. Structure Reports Online'
 2005 61 i243 i245 ACSEBH
_publ_author_name                  'Wiggin, S.B.;Weller, M.T.'
_cell_length_a                     7.481(6)
_cell_length_b                     8.2693(12)
_cell_length_c                     9.859(3)
_cell_angle_alpha                  90
_cell_angle_beta                   108.76(6)
_cell_angle_gamma                  90
_cell_volume                       577.5
_cell_formula_units_Z              2
_symmetry_space_group_name_H-M     'P 1 21 1'
_symmetry_Int_Tables_number        4
_refine_ls_R_factor_all            .034
loop_
_symmetry_equiv_pos_site_id
_symmetry_equiv_pos_as_xyz
  1	'-x, y+.5, -z'
  2	'x, y, z'
loop_
_atom_type_symbol
_atom_type_oxidation_number
B3+	3
Ca2+	2
H1+	1
O2-	-2
loop_
_atom_site_label
_atom_site_type_symbol
_atom_site_symmetry_multiplicity
_atom_site_Wyckoff_symbol
_atom_site_fract_x
_atom_site_fract_y
_atom_site_fract_z
_atom_site_occupancy
_atom_site_attached_hydrogens
_atom_site_U_iso_or_equiv
B1 B3+ 2 a 0.1035(4) 0.2765(4) 0.2720(3) 1 0 0.0113(5) 
B2 B3+ 2 a 0.0908(4) 0.2695(4) 0.5216(3) 1 0 0.0114(6) 
B3 B3+ 2 a 0.3787(4) 0.1696(3) 0.7189(3) 1 0 0.0086(6) 
B4 B3+ 2 a 0.4671(4) 0.1318(3) 0.9806(3) 1 0 0.0095(6) 
B5 B3+ 2 a 0.5905(4) 0.3827(3) 0.9050(3) 1 0 0.0092(6) 
B6 B3+ 2 a 0.8931(4) 0.3814(4) 0.8517(3) 1 0 0.0121(6) 
B7 B3+ 2 a 0.5944(4) 0.3830(3) 0.6449(3) 1 0 0.0087(5) 
B8 B3+ 2 a 0.4913(4) 0.1220(3) 0.5148(3) 1 0 0.0099(6) 
O1 O2- 2 a 0.2331(2) 0.3060(2) 0.20108(18) 1 0 0.0141(4) 
O2 O2- 2 a -0.0882(2) 0.2699(3) 0.2085(2) 1 0 0.0166(4) 
O3 O2- 2 a 0.1776(2) 0.2518(2) 0.41723(18) 1 0 0.0137(4) 
O4 O2- 2 a -0.0921(3) 0.3203(3) 0.48254(19) 1 0 0.0202(5) 
O5 O2- 2 a 0.1892(2) 0.2394(2) 0.66179(18) 1 0 0.0116(4) 
O6 O2- 2 a 0.3931(2) 0.0722(2) 0.84528(18) 1 0 0.0105(4) 
O7 O2- 2 a 0.5296(2) 0.2872(2) 1.00614(16) 1 0 0.0102(3) 
O8 O2- 2 a 0.5214(2) 0.3078(2) 0.75752(16) 1 0 0.0092(3) 
O9 O2- 2 a 0.4256(2) 0.0600(2) 0.61924(18) 1 0 0.0094(4) 
O10 O2- 2 a 0.5179(2) 0.5466(2) 0.89685(18) 1 0 0.0108(4) 
O11 O2- 2 a 0.7977(2) 0.3809(2) 0.94971(17) 1 0 0.0124(4) 
O12 O2- 2 a 0.8015(2) 0.4038(2) 0.70949(18) 1 0 0.0117(4) 
O13 O2- 2 a 0.5652(2) 0.2750(2) 0.52450(17) 1 0 0.0101(4) 
O14 O2- 2 a 1.0848(3) 0.3566(3) 0.9032(2) 1 0 0.0190(4) 
O15 O2- 2 a 0.4999(2) 0.0372(2) 0.39748(18) 1 0 0.0107(4) 
Ca1 Ca2+ 2 a 0.60200(6) 0.29083(6) 0.27828(5) 1 0 0.01030(12) 
H1 H1+ 2 a 0.191(5) 0.320(4) 0.109(3) 1 0 0.029(9) 
H2 H1+ 2 a -0.120(5) 0.300(5) 0.119(4) 1 0 0.047(11) 
H3 H1+ 2 a -0.127(6) 0.337(5) 0.560(4) 1 0 0.061(14) 
H4 H1+ 2 a 1.130(6) 0.314(5) 0.827(4) 1 0 0.054(12) 

loop_
_atom_site_aniso_label
_atom_site_aniso_type_symbol
_atom_site_aniso_U_11
_atom_site_aniso_U_22
_atom_site_aniso_U_33
_atom_site_aniso_U_12
_atom_site_aniso_U_13
_atom_site_aniso_U_23
B1 B3+ 0.0134(12) 0.0077(14) 0.0125(13) 0.0017(11) 0.0038(10) -0.0002(11)
B2 B3+ 0.0106(12) 0.0130(14) 0.0108(13) 0.0025(12) 0.0037(10) 0.0016(11)
B3 B3+ 0.0082(13) 0.0079(14) 0.0096(13) -0.0014(10) 0.0028(11) -0.0012(10)
B4 B3+ 0.0081(13) 0.0114(13) 0.0081(14) 0.0012(11) 0.0015(11) 0.0006(11)
B5 B3+ 0.0096(13) 0.0100(13) 0.0077(13) -0.0015(11) 0.0025(11) -0.0010(11)
B6 B3+ 0.0111(14) 0.0117(14) 0.0125(14) -0.0002(11) 0.0024(11) -0.0006(11)
B7 B3+ 0.0104(14) 0.0091(13) 0.0061(13) -0.0001(11) 0.0017(11) -0.0018(11)
B8 B3+ 0.0073(13) 0.0107(13) 0.0105(14) 0.0027(10) 0.0010(10) 0.0022(11)
O1 O2- 0.0138(8) 0.0197(10) 0.0082(8) 0.0015(8) 0.0025(7) 0.0029(8)
O2 O2- 0.0120(8) 0.0257(12) 0.0108(9) 0.0016(8) 0.0021(7) 0.0009(8)
O3 O2- 0.0088(8) 0.0214(10) 0.0105(9) 0.0030(7) 0.0027(7) 0.0016(7)
O4 O2- 0.0140(9) 0.0376(13) 0.0091(9) 0.0075(9) 0.0039(7) 0.0012(8)
O5 O2- 0.0101(9) 0.0132(9) 0.0120(9) 0.0016(6) 0.0039(7) 0.0000(6)
O6 O2- 0.0125(9) 0.0101(9) 0.0089(9) -0.0027(7) 0.0035(7) -0.0001(7)
O7 O2- 0.0130(8) 0.0085(7) 0.0094(7) 0.0003(9) 0.0040(6) -0.0004(8)
O8 O2- 0.0136(8) 0.0068(8) 0.0076(8) -0.0032(8) 0.0037(6) -0.0010(7)
O9 O2- 0.0113(9) 0.0088(9) 0.0086(8) -0.0010(7) 0.0038(7) -0.0001(7)
O10 O2- 0.0139(9) 0.0093(8) 0.0087(9) 0.0015(7) 0.0029(7) 0.0003(7)
O11 O2- 0.0119(9) 0.0159(9) 0.0089(9) 0.0013(8) 0.0026(7) 0.0003(7)
O12 O2- 0.0114(9) 0.0120(9) 0.0115(9) 0.0001(7) 0.0035(7) 0.0013(7)
O13 O2- 0.0112(8) 0.0093(9) 0.0099(8) -0.0012(8) 0.0038(6) -0.0022(7)
O14 O2- 0.0095(9) 0.0366(12) 0.0108(9) 0.0043(8) 0.0030(7) 0.0018(8)
O15 O2- 0.0123(9) 0.0107(8) 0.0082(8) -0.0013(7) 0.0017(7) -0.0013(7)
Ca1 Ca2+ 0.0114(2) 0.0098(2) 0.0096(2) 0.0003(2) 0.00327(17) -0.0004(2)
#End of data_171019-ICSD


