data_202695-ICSD
#?2014 by Fachinformationszentrum Karlsruhe, and the U.S. Secretary of 
#Commerce on behalf of the United States.  All rights reserved.
_database_code_ICSD                202695
_audit_creation_date               1989/12/04
_audit_update_record               2012/02/01
_chemical_name_systematic          'Magnesium Molybdate Hydrate'
_chemical_formula_structural       'Mg Mo O4 (H2 O)'
_chemical_formula_sum              'H2 Mg1 Mo1 O5'
_publ_section_title
;
Preparation, crystal structure, and luminescence of magnesium 
molybdate and tungstate monohydrates, Mg Mo O4 H2 O and Mg W O4 H2 O
;
loop_
_citation_id
_citation_journal_abbrev
_citation_year
_citation_journal_volume
_citation_page_first
_citation_page_last
_citation_journal_id_ASTM
primary 'Journal of Solid State Chemistry' 1988 77 162 169 JSSCBI
_publ_author_name
;
Amberg, M.;Guenter, J.R.;Schmalle, H.W.;Blasse, G.
;
_cell_length_a                     5.662(2)
_cell_length_b                     5.861(1)
_cell_length_c                     6.869(1)
_cell_angle_alpha                  100.84(2)
_cell_angle_beta                   95.03(2)
_cell_angle_gamma                  106.57(2)
_cell_volume                       212.15
_cell_formula_units_Z              2
_symmetry_space_group_name_H-M     'P -1'
_symmetry_Int_Tables_number        2
_refine_ls_R_factor_all            .022
loop_
_symmetry_equiv_pos_site_id
_symmetry_equiv_pos_as_xyz
  1	'-x, -y, -z'
  2	'x, y, z'
loop_
_atom_type_symbol
_atom_type_oxidation_number
H1+	1
Mg2+	2
Mo6+	6
O2-	-2
loop_
_atom_site_label
_atom_site_type_symbol
_atom_site_symmetry_multiplicity
_atom_site_Wyckoff_symbol
_atom_site_fract_x
_atom_site_fract_y
_atom_site_fract_z
_atom_site_occupancy
_atom_site_attached_hydrogens
_atom_site_U_iso_or_equiv
Mo1 Mo6+ 2 i 0.25802(4) 0.12151(4) 0.25128(3) 1. 0 0 
Mg1 Mg2+ 2 i 0.3594(1) 0.2926(1) -.1944(1) 1. 0 0 
O1 O2- 2 i 0.3744(3) 0.3625(3) 0.1229(2) 1. 0 0 
O2 O2- 2 i 0.3640(3) -.1288(3) 0.1674(2) 1. 0 0 
O3 O2- 2 i 0.3653(4) 0.2341(3) 0.5050(2) 1. 0 0 
O4 O2- 2 i -.0715(3) 0.0239(3) 0.2123(3) 1. 0 0 
O5 O2- 2 i 0.0969(3) 0.4764(3) -.2215(3) 1. 0 0 
H1 H1+ 2 i 0.1237 0.6493 -.1984 1. 0 0.06 
H2 H1+ 2 i -.0404 0.4229 -.1815 1. 0 0.06 

loop_
_atom_site_aniso_label
_atom_site_aniso_type_symbol
_atom_site_aniso_U_11
_atom_site_aniso_U_22
_atom_site_aniso_U_33
_atom_site_aniso_U_12
_atom_site_aniso_U_13
_atom_site_aniso_U_23
Mo1 Mo6+ 0.00602(7) 0.00534(7) 0.00585(7) 0.00219(5) 0.00183(5) 0.00092(5)
Mg1 Mg2+ 0.0081(3) 0.0073(3) 0.0070(3) 0.0018(2) 0.0015(2) 0.0015(2)
O1 O2- 0.0115(7) 0.0068(6) 0.0084(6) 0.0034(5) 0.0022(5) -.0006(5)
O2 O2- 0.0101(7) 0.0113(7) 0.0166(8) 0.0032(6) 0.0029(6) 0.0072(6)
O3 O2- 0.0232(9) 0.0179(8) 0.0078(7) 0.0030(6) 0.0015(6) 0.0037(7)
O4 O2- 0.0078(6) 0.0119(7) 0.0195(9) 0.0055(6) 0.0038(6) 0.0014(5)
O5 O2- 0.0146(8) 0.0152(9) 0.033(1) 0.0082(8) 0.0056(8) 0.0074(7)
#End of data_202695-ICSD


