data_419880-ICSD
#?2014 by Fachinformationszentrum Karlsruhe, and the U.S. Secretary of 
#Commerce on behalf of the United States.  All rights reserved.
_database_code_ICSD                419880
_audit_creation_date               2009/08/01
_chemical_name_systematic          'Potassium Osmo(V)osmate'
_chemical_formula_structural       'K (Os2 O6)'
_chemical_formula_sum              'K1 O6 Os2'
_publ_section_title
;
A new triclinic modification of the pyrochlore-type K Os2 O6 
superconductor
;
loop_
_citation_id
_citation_journal_abbrev
_citation_year
_citation_journal_volume
_citation_journal_issue
_citation_page_first
_citation_page_last
_citation_journal_id_ASTM
primary 'Journal of Solid State Chemistry' 2009 182 3 428 434 JSSCBI
_publ_author_name
;
Katrych, S.;Gu, Q.F.;Bukowski, Z.;Zhigadlo, N.D.;Krauss, 
G.;Karpinski, J.
;
_cell_length_a                     5.56680(10)
_cell_length_b                     6.4519(2)
_cell_length_c                     7.2356(2)
_cell_angle_alpha                  65.377(3)
_cell_angle_beta                   70.572(3)
_cell_angle_gamma                  75.613(2)
_cell_volume                       220.96
_cell_formula_units_Z              2
_symmetry_space_group_name_H-M     'P -1'
_symmetry_Int_Tables_number        2
_refine_ls_R_factor_all            .0195
loop_
_symmetry_equiv_pos_site_id
_symmetry_equiv_pos_as_xyz
  1	'-x, -y, -z'
  2	'x, y, z'
loop_
_atom_type_symbol
_atom_type_oxidation_number
K1+	1
O2-	-2
Os5.5+	5.5
loop_
_atom_site_label
_atom_site_type_symbol
_atom_site_symmetry_multiplicity
_atom_site_Wyckoff_symbol
_atom_site_fract_x
_atom_site_fract_y
_atom_site_fract_z
_atom_site_occupancy
_atom_site_attached_hydrogens
_atom_site_U_iso_or_equiv
Os1 Os5.5+ 2 i 0.18776(2) 0.357777(17) 0.449296(16) 1 0 0.00602(3) 
Os2 Os5.5+ 2 i 0.36441(2) 0.913999(17) 0.235906(16) 1 0 0.00594(3) 
K1 K1+ 2 i 0.19008(16) 0.69675(14) 0.89421(12) 1 0 0.01538(12) 
O1 O2- 2 i 0.1040(5) 0.4796(4) 0.6727(4) 1 0 0.0094(4) 
O2 O2- 2 i 0.4950(5) 0.1867(4) 0.5353(4) 1 0 0.0095(3) 
O3 O2- 2 i 0.2971(4) 0.0427(4) 0.9602(3) 1 0 0.0081(3) 
O4 O2- 2 i 0.3816(5) 0.6079(4) 0.2546(4) 1 0 0.0091(3) 
O5 O2- 2 i 0.3025(5) 0.2228(4) 0.2311(4) 1 0 0.0090(3) 
O6 O2- 2 i 0.0101(5) 0.8925(4) 0.3730(4) 1 0 0.0095(4) 

loop_
_atom_site_aniso_label
_atom_site_aniso_type_symbol
_atom_site_aniso_U_11
_atom_site_aniso_U_22
_atom_site_aniso_U_33
_atom_site_aniso_U_12
_atom_site_aniso_U_13
_atom_site_aniso_U_23
Os1 Os5.5+ 0.00611(4) 0.00546(4) 0.00626(4) -0.00040(3) -0.00162(3) 
-0.00211(3)
Os2 Os5.5+ 0.00617(4) 0.00556(4) 0.00582(4) -0.00065(3) -0.00152(3) 
-0.00190(3)
K1 K1+ 0.0157(3) 0.0158(3) 0.0161(3) -0.0037(2) -0.0042(2) -0.0062(2)
O1 O2- 0.0096(9) 0.0105(9) 0.0095(8) 0.0021(7) -0.0050(7) -0.0049(7)
O2 O2- 0.0080(9) 0.0099(8) 0.0098(8) 0.0002(7) -0.0038(7) -0.0027(7)
O3 O2- 0.0078(8) 0.0098(8) 0.0064(7) -0.0016(7) -0.0017(6) -0.0025(6)
O4 O2- 0.0093(9) 0.0072(8) 0.0092(8) -0.0018(7) -0.0002(7) -0.0028(7)
O5 O2- 0.0098(9) 0.0081(8) 0.0093(8) 0.0007(6) -0.0024(7) -0.0046(7)
O6 O2- 0.0078(9) 0.0101(9) 0.0086(8) -0.0024(7) -0.0006(7) -0.0020(7)
#End of data_419880-ICSD


