data_9027-ICSD
#?2014 by Fachinformationszentrum Karlsruhe, and the U.S. Secretary of 
#Commerce on behalf of the United States.  All rights reserved.
_database_code_ICSD                9027
_audit_creation_date               1980/01/01
_audit_update_record               2012/02/01
_chemical_name_systematic
;
Dipotassium Octafluorodioxodiarsenate(V)
;
_chemical_formula_structural       'K2 (As2 F8 O2)'
_chemical_formula_sum              'As2 F8 K2 O2'
_publ_section_title
;
Die Kristall- und Molekuelstruktur von Dicaesium-octafluoro-dioxo-
diarsenat, Cs2 (As2 F8 O2), und dreidimensionale Verfeinerung der 
Strukturen von K2 (As2 F8 O2) und Rb2 (As2 F8 O2)
;
loop_
_citation_id
_citation_journal_abbrev
_citation_year
_citation_journal_volume
_citation_page_first
_citation_page_last
_citation_journal_id_ASTM
primary 'Chemische Berichte' 1974 107 1009 1018 CHBEAM
_publ_author_name                  'Haase, W.'
_cell_length_a                     5.184(3)
_cell_length_b                     5.780(3)
_cell_length_c                     13.448(9)
_cell_angle_alpha                  90.
_cell_angle_beta                   92.1(2)
_cell_angle_gamma                  90.
_cell_volume                       402.68
_cell_formula_units_Z              2
_symmetry_space_group_name_H-M     'P 1 21/n 1'
_symmetry_Int_Tables_number        14
_refine_ls_R_factor_all            .09
loop_
_symmetry_equiv_pos_site_id
_symmetry_equiv_pos_as_xyz
  1	'-x+.5, y+.5, -z+.5'
  2	'-x, -y, -z'
  3	'x+.5, -y+.5, z+.5'
  4	'x, y, z'
loop_
_atom_type_symbol
_atom_type_oxidation_number
As5+	5
F1-	-1
K1+	1
O2-	-2
loop_
_atom_site_label
_atom_site_type_symbol
_atom_site_symmetry_multiplicity
_atom_site_Wyckoff_symbol
_atom_site_fract_x
_atom_site_fract_y
_atom_site_fract_z
_atom_site_occupancy
_atom_site_attached_hydrogens
K1 K1+ 4 e 0.4991(6) -.3665(5) 0.1484(2) 1. 0 
As1 As5+ 4 e 0.0611(2) 0.1179(2) 0.0823(1) 1. 0 
F1 F1- 4 e -.0933(18) -.0717(17) 0.1603(6) 1. 0 
F2 F1- 4 e 0.3135(19) 0.1089(18) 0.1719(17) 1. 0 
F3 F1- 4 e -.0666(20) 0.3432(19) 0.1509(8) 1. 0 
F4 F1- 4 e 0.2428(18) 0.3277(18) 0.0221(7) 1. 0 
O1 O2- 4 e 0.2005(24) -.1158(21) 0.010(1) 1. 0 

loop_
_atom_site_aniso_label
_atom_site_aniso_type_symbol
_atom_site_aniso_B_11
_atom_site_aniso_B_22
_atom_site_aniso_B_33
_atom_site_aniso_B_12
_atom_site_aniso_B_13
_atom_site_aniso_B_23
K1 K1+ 1.50(8) 1.31(10) 1.56(7) 0.00(9) -.05(7) 0.08(7)
As1 As5+ 0.36(3) 0.38(4) 0.40(2) -.01(2) 0.06(2) -.02(2)
F1 F1- 2.3(3) 1.8(3) 1.3(2) 0.7(3) -.3(2) 0.7(2)
F2 F1- 2.1(3) 2.9(4) 1.6(3) -.4(3) 0.4(3) 0.0(3)
F3 F1- 2.1(3) 2.3(4) 2.4(3) 0.1(3) -.4(3) -.3(3)
F4 F1- 2.0(3) 1.5(3) 2.1(3) 0.6(3) 0.3(3) 0.0(3)
O1 O2- 2.2(4) 1.9(4) 3.0(4) 0.1(3) 1.5(3) 0.0(3)
#End of data_9027-ICSD


