data_619354-ICSD
#?2014 by Fachinformationszentrum Karlsruhe, and the U.S. Secretary of 
#Commerce on behalf of the United States.  All rights reserved.
_database_code_ICSD                619354
_audit_creation_date               2013/08/01
_chemical_name_systematic          'Calcium Hafnium Sulfide (1/1/3)'
_chemical_formula_structural       'Ca Hf S3'
_chemical_formula_sum              'Ca1 Hf1 S3'
_publ_section_title
;
Sulfides with the Gd Fe O3 structure
;
loop_
_citation_id
_citation_journal_abbrev
_citation_year
_citation_journal_volume
_citation_page_first
_citation_page_last
_citation_journal_id_ASTM
primary 'Acta Crystallographica B (24,1968-38,1982)' 1980 36 2223 2226 ACBCAR
_publ_author_name                  'Lelieveld, R.;Ijdo, D.J.W.'
_cell_length_a                     6.983(3)
_cell_length_b                     9.537(4)
_cell_length_c                     6.518(3)
_cell_angle_alpha                  90.0
_cell_angle_beta                   90.0
_cell_angle_gamma                  90.0
_cell_volume                       434.08
_cell_formula_units_Z              4
_symmetry_space_group_name_H-M     'P n m a'
_symmetry_Int_Tables_number        62
loop_
_symmetry_equiv_pos_site_id
_symmetry_equiv_pos_as_xyz
  1	'x+.5, y, -z+.5'
  2	'x, -y+.5, z'
  3	'-x+.5, y+.5, z+.5'
  4	'-x, -y, -z'
  5	'-x+.5, -y, z+.5'
  6	'-x, y+.5, -z'
  7	'x+.5, -y+.5, -z+.5'
  8	'x, y, z'
loop_
_atom_type_symbol
_atom_type_oxidation_number
Ca2+	2
Hf4+	4
S2-	-2
loop_
_atom_site_label
_atom_site_type_symbol
_atom_site_symmetry_multiplicity
_atom_site_Wyckoff_symbol
_atom_site_fract_x
_atom_site_fract_y
_atom_site_fract_z
_atom_site_occupancy
_atom_site_attached_hydrogens
Ca1 Ca2+ 4 c 0.077 0.25 0.023 1. 0 
Hf1 Hf4+ 4 b 0 0 0.5 1. 0 
S1 S2- 4 c -.018 0.25 0.599 1. 0 
S2 S2- 8 d 0.196 -.048 0.809 1. 0 

#End of data_619354-ICSD


