data_81271-ICSD
#?2014 by Fachinformationszentrum Karlsruhe, and the U.S. Secretary of 
#Commerce on behalf of the United States.  All rights reserved.
_database_code_ICSD                81271
_audit_creation_date               1997/11/05
_chemical_name_systematic          'Potassium Nickel Phosphate(V)'
_chemical_formula_structural       'K Ni (P O4)'
_chemical_formula_sum              'K1 Ni1 O4 P1'
_publ_section_title
;
Crystal structure and magnetic ordering in magnetoelectric K Ni P O4 
investigated by means of X-ray and neutron diffraction
;
loop_
_citation_id
_citation_journal_abbrev
_citation_year
_citation_journal_volume
_citation_page_first
_citation_page_last
_citation_journal_id_ASTM
primary Ferroelectrics 1994 167 37 44 FEROA8
_publ_author_name
;
Fischer, P.;Lujan, M.;Kubel, F.;Schmid, H.
;
_cell_length_a                     8.6333(5)
_cell_length_b                     9.2565(5)
_cell_length_c                     4.9064(9)
_cell_angle_alpha                  90.
_cell_angle_beta                   90.
_cell_angle_gamma                  90.
_cell_volume                       392.09
_cell_formula_units_Z              4
_symmetry_space_group_name_H-M     'P n a 21'
_symmetry_Int_Tables_number        33
_refine_ls_R_factor_all            .023
loop_
_symmetry_equiv_pos_site_id
_symmetry_equiv_pos_as_xyz
  1	'x+.5, -y+.5, z'
  2	'-x+.5, y+.5, z+.5'
  3	'-x, -y, z+.5'
  4	'x, y, z'
loop_
_atom_type_symbol
_atom_type_oxidation_number
K1+	1
Ni2+	2
O2-	-2
P5+	5
loop_
_atom_site_label
_atom_site_type_symbol
_atom_site_symmetry_multiplicity
_atom_site_Wyckoff_symbol
_atom_site_fract_x
_atom_site_fract_y
_atom_site_fract_z
_atom_site_occupancy
_atom_site_attached_hydrogens
Ni1 Ni2+ 4 a 0.15444(6) 0.04316(5) 0.9959 1. 0 
K1 K1+ 4 a 0.99912(7) 0.31630(6) 0.5205(3) 1. 0 
P1 P5+ 4 a 0.29081(9) 0.3743(1) 0.0602(4) 1. 0 
O1 O2- 4 a 0.6836(3) 0.0185(3) 0.2037(9) 1. 0 
O2 O2- 4 a 0.7867(3) 0.1114(3) 0.7499(8) 1. 0 
O3 O2- 4 a 0.9525(3) 0.0846(3) 0.1822(7) 1. 0 
O4 O2- 4 a 0.2538(3) 0.2191(3) 0.1412(8) 1. 0 

loop_
_atom_site_aniso_label
_atom_site_aniso_type_symbol
_atom_site_aniso_U_11
_atom_site_aniso_U_22
_atom_site_aniso_U_33
_atom_site_aniso_U_12
_atom_site_aniso_U_13
_atom_site_aniso_U_23
Ni1 Ni2+ 0.0124(4) 0.0113(4) 0.0198(5) -.0001(2) -.0002(1) -.0010(4)
K1 K1+ 0.0173(4) 0.0188(4) 0.0278(7) -.0025(2) 0.0012(6) -.0031(5)
P1 P5+ 0.0112(4) 0.0107(5) 0.0174(9) -.0018(3) -.0009(4) -.0006(5)
O1 O2- 0.018(1) 0.019(1) 0.022(2) -.002(1) 0.000(2) 0.003(2)
O2 O2- 0.018(1) 0.018(1) 0.026(3) 0.005(1) -.002(2) -.001(2)
O3 O2- 0.012(1) 0.019(1) 0.017(2) 0.0044(9) -.001(1) 0.000(2)
O4 O2- 0.025(1) 0.013(1) 0.020(2) -.006(1) -.002(2) 0.001(2)
#End of data_81271-ICSD


