data_416823-ICSD
#?2014 by Fachinformationszentrum Karlsruhe, and the U.S. Secretary of 
#Commerce on behalf of the United States.  All rights reserved.
_database_code_ICSD                416823
_audit_creation_date               2008/02/01
_chemical_name_systematic          'Zinc Cobalt Phosphate(V) Hydroxide'
_chemical_formula_structural       'Zn Co (P O4) (O H)'
_chemical_formula_sum              'H1 Co1 O5 P1 Zn1'
_publ_section_title
;
Synthesis and crystal structure of a neutral open framework 
cobalt(II) phosphate Co6 (P O4)4 7(H2 O) with a channel structure
;
loop_
_citation_id
_citation_journal_abbrev
_citation_year
_citation_journal_volume
_citation_page_first
_citation_page_last
_citation_journal_id_ASTM
primary 'Journal of Coordination Chemistry' 2007 60 995 1004 JCCMBQ
_publ_author_name
;
Oki, A.;Zeller, M.;Reynolds, A.;Qiu Xiangdong;Hunter, A.D.
;
_cell_length_a                     5.2458(7)
_cell_length_b                     5.5823(7)
_cell_length_c                     7.3586(10)
_cell_angle_alpha                  94.717(3)
_cell_angle_beta                   100.036(3)
_cell_angle_gamma                  92.601(3)
_cell_volume                       211.08
_cell_formula_units_Z              2
_symmetry_space_group_name_H-M     'P -1'
_symmetry_Int_Tables_number        2
_refine_ls_R_factor_all            .03
loop_
_symmetry_equiv_pos_site_id
_symmetry_equiv_pos_as_xyz
  1	'-x, -y, -z'
  2	'x, y, z'
loop_
_atom_type_symbol
_atom_type_oxidation_number
Co2+	2
H1+	1
O2-	-2
P5+	5
Zn2+	2
loop_
_atom_site_label
_atom_site_type_symbol
_atom_site_symmetry_multiplicity
_atom_site_Wyckoff_symbol
_atom_site_fract_x
_atom_site_fract_y
_atom_site_fract_z
_atom_site_occupancy
_atom_site_attached_hydrogens
_atom_site_U_iso_or_equiv
Zn1 Zn2+ 2 i 0.38750(8) 0.79102(7) 0.36693(6) 1 0 0.00599(15) 
Co1 Co2+ 1 a 1.0000 1.0000 1.0000 1 0 0.00355(17) 
Co2 Co2+ 1 c 1.0000 0.5000 1.0000 1 0 0.00324(17) 
P1 P5+ 2 i 0.44495(17) 0.70448(16) 0.78205(13) 1 0 0.0044(2) 
O1 O2- 2 i 0.4108(5) 0.8933(5) 0.6362(4) 1 0 0.0070(5) 
O2 O2- 2 i 0.2599(5) 0.7502(5) 0.9175(4) 1 0 0.0063(5) 
O3 O2- 2 i 0.7281(5) 0.7277(5) 0.8818(4) 1 0 0.0067(5) 
O4 O2- 2 i 0.3799(5) 0.4543(5) 0.6778(4) 1 0 0.0068(5) 
H1 H1+ 2 i 0.215(6) 0.392(10) 0.615(7) 1 0 0.008 
O5 O2- 2 i 0.0500(5) 0.7732(5) 0.2172(4) 1 0 0.0066(5) 

loop_
_atom_site_aniso_label
_atom_site_aniso_type_symbol
_atom_site_aniso_U_11
_atom_site_aniso_U_22
_atom_site_aniso_U_33
_atom_site_aniso_U_12
_atom_site_aniso_U_13
_atom_site_aniso_U_23
Zn1 Zn2+ 0.0065(2) 0.0058(2) 0.0053(2) 0.00096(15) 0.00012(16) 0.00057(16)
Co1 Co2+ 0.0041(3) 0.0029(3) 0.0035(3) 0.0005(2) 0.0001(2) 0.0005(2)
Co2 Co2+ 0.0035(3) 0.0030(3) 0.0031(3) 0.0005(2) 0.0001(2) 0.0005(2)
P1 P5+ 0.0049(4) 0.0045(4) 0.0040(4) 0.0007(3) 0.0006(3) 0.0010(3)
O1 O2- 0.0083(12) 0.0083(12) 0.0050(12) 0.0001(9) 0.0021(9) 0.0020(9)
O2 O2- 0.0069(12) 0.0070(11) 0.0064(12) 0.0027(9) 0.0041(9) 0.0019(9)
O3 O2- 0.0030(11) 0.0072(11) 0.0090(12) 0.0009(9) -0.0012(9) 0.0002(9)
O4 O2- 0.0053(12) 0.0068(11) 0.0079(12) 0.0009(9) 0.0004(9) -0.0007(9)
O5 O2- 0.0093(12) 0.0069(11) 0.0031(11) -0.0007(9) 0.0003(9) 0.0004(9)
#End of data_416823-ICSD


