data_24614-ICSD
#?2014 by Fachinformationszentrum Karlsruhe, and the U.S. Secretary of 
#Commerce on behalf of the United States.  All rights reserved.
_database_code_ICSD                24614
_audit_creation_date               1980/01/01
_audit_update_record               2012/08/01
_chemical_name_systematic          'Calcium Titanium Silicate Oxide'
_chemical_formula_structural       'Ca Ti (Si O4) O'
_chemical_formula_sum              'Ca1 O5 Si1 Ti1'
_chemical_name_mineral             'Titanite high'
_publ_section_title
;
A reconsideration of the structure of titanite, Ca Ti O Si O 4
;
loop_
_citation_id
_citation_journal_abbrev
_citation_year
_citation_journal_volume
_citation_page_first
_citation_page_last
_citation_journal_id_ASTM
primary 'Mineralogica et Petrographica Acta' 1968 14 123 141 MPTAAS
2 'Gas Journal' 2002 1 1 123 GASJAF
_publ_author_name
;
Mongiorgi, R.;Riva di Sanseverino, L.
;
_cell_length_a                     7.073(4)
_cell_length_b                     8.718(5)
_cell_length_c                     6.555(2)
_cell_angle_alpha                  90.
_cell_angle_beta                   113.97(5)
_cell_angle_gamma                  90.
_cell_volume                       369.34
_cell_formula_units_Z              4
_symmetry_space_group_name_H-M     'A 1 2/a 1'
_symmetry_Int_Tables_number        15
_refine_ls_R_factor_all            .119
loop_
_symmetry_equiv_pos_site_id
_symmetry_equiv_pos_as_xyz
  1	'-x+.5, y, -z'
  2	'-x, -y, -z'
  3	'x+.5, -y, z'
  4	'x, y, z'
  5	'-x+.5, y+.5, -z+.5'
  6	'-x, -y+.5, -z+.5'
  7	'x+.5, -y+.5, z+.5'
  8	'x, y+.5, z+.5'
loop_
_atom_type_symbol
_atom_type_oxidation_number
Ca2+	2
O2-	-2
Si4+	4
Ti4+	4
loop_
_atom_site_label
_atom_site_type_symbol
_atom_site_symmetry_multiplicity
_atom_site_Wyckoff_symbol
_atom_site_fract_x
_atom_site_fract_y
_atom_site_fract_z
_atom_site_occupancy
_atom_site_attached_hydrogens
Ca1 Ca2+ 4 e 0.25 0.1677(7) 0 1. 0 
Ti1 Ti4+ 4 b 0.5 0 0.5 1. 0 
Si1 Si4+ 4 e 0.75 0.1818(6) 0 1. 0 
O1 O2- 4 e 0.75 0.0668(26) 0.5 1. 0 
O2 O2- 8 f 0.9097(13) 0.0689(18) 0.1838(17) 1. 0 
O3 O2- 8 f 0.3737(13) 0.2111(18) 0.3982(15) 1. 0 

#End of data_24614-ICSD


