data_6226-ICSD
#?2014 by Fachinformationszentrum Karlsruhe, and the U.S. Secretary of 
#Commerce on behalf of the United States.  All rights reserved.
_database_code_ICSD                6226
_audit_creation_date               1980/01/01
_audit_update_record               2003/04/01
_chemical_name_systematic
;
Disodium Zinc Sulfate(VI) Tetrahydrate
;
_chemical_formula_structural       'Na2 Zn (S O4)2 (H2 O)4'
_chemical_formula_sum              'H8 Na2 O12 S2 Zn1'
_chemical_name_mineral             Changoite
_publ_section_title
;
A neutronographic investigation of hydrogen bonding in zinc 
astrakanite Na2 Zn (S O4)2 (H2 O)4
;
loop_
_citation_id
_citation_journal_abbrev
_citation_year
_citation_journal_volume
_citation_page_first
_citation_page_last
_citation_journal_id_ASTM
primary 'Zhurnal Strukturnoi Khimii (Issue-No. from 1981)'
 1974 15 712 716 ZSTKAI
_publ_author_name                  'Bukin, V.I.;Nozik, Yu.Z.'
_cell_length_a                     11.05
_cell_length_b                     8.23
_cell_length_c                     5.5
_cell_angle_alpha                  90.
_cell_angle_beta                   100.58
_cell_angle_gamma                  90.
_cell_volume                       491.67
_cell_formula_units_Z              2
_symmetry_space_group_name_H-M     'P 1 21/a 1'
_symmetry_Int_Tables_number        14
_refine_ls_R_factor_all            .116
loop_
_symmetry_equiv_pos_site_id
_symmetry_equiv_pos_as_xyz
  1	'x+.5, -y+.5, z'
  2	'-x, -y, -z'
  3	'-x+.5, y+.5, -z'
  4	'x, y, z'
loop_
_atom_type_symbol
_atom_type_oxidation_number
H1+	1
Na1+	1
O2-	-2
S6+	6
Zn2+	2
loop_
_atom_site_label
_atom_site_type_symbol
_atom_site_symmetry_multiplicity
_atom_site_Wyckoff_symbol
_atom_site_fract_x
_atom_site_fract_y
_atom_site_fract_z
_atom_site_occupancy
_atom_site_attached_hydrogens
_atom_site_B_iso_or_equiv
Zn1 Zn2+ 2 a 0 0 0 1. 0 0.8 
Na1 Na1+ 4 e 0.362 0.07 0.126 1. 0 0.86 
S1 S6+ 4 e 0.136 0.292 0.38 1. 0 0.43 
O1 O2- 4 e 0.266 0.27 0.347 1. 0 1.25 
O2 O2- 4 e 0.079 0.414 0.169 1. 0 1.11 
O3 O2- 4 e 0.071 0.133 0.312 1. 0 1.45 
O4 O2- 4 e 0.13 0.331 0.632 1. 0 1.4 
O5 O2- 4 e 0.162 0.039 0.869 1. 0 0.87 
O6 O2- 4 e 0.418 0.286 0.79 1. 0 0.84 
H1 H1+ 4 e 0.32 0.444 0.221 1. 0 2.18 
H2 H1+ 4 e 0.345 0.639 0.236 1. 0 3.23 
H3 H1+ 4 e 0.356 0.305 0.644 1. 0 3.29 
H4 H1+ 4 e 0.482 0.218 0.764 1. 0 2.92 

#End of data_6226-ICSD


