data_166486-ICSD
#?2014 by Fachinformationszentrum Karlsruhe, and the U.S. Secretary of 
#Commerce on behalf of the United States.  All rights reserved.
_database_code_ICSD                166486
_audit_creation_date               2010/08/01
_chemical_name_systematic          'Dizinc Titanium Oxide'
_chemical_formula_structural       'Zn (Zn Ti) O4'
_chemical_formula_sum              'O4 Ti1 Zn2'
_publ_section_title
;
Un essai de determination des parametres de position dans un spinelle 
ordonne
;
loop_
_citation_id
_citation_journal_abbrev
_citation_year
_citation_journal_volume
_citation_page_first
_citation_page_last
_citation_journal_id_ASTM
primary 'Bulletin de la Societe Chimique de France (Vol=Year)'
 1967 1967 215 218 BSCFAS
_publ_author_name                  'Billiet, Y.;Poix, P.'
_cell_length_a                     6.005
_cell_length_b                     6.005
_cell_length_c                     8.415
_cell_angle_alpha                  90.
_cell_angle_beta                   90.
_cell_angle_gamma                  90.
_cell_volume                       303.45
_cell_formula_units_Z              4
_symmetry_space_group_name_H-M     'P 41 2 2'
_symmetry_Int_Tables_number        91
loop_
_symmetry_equiv_pos_site_id
_symmetry_equiv_pos_as_xyz
  1	'y, x, -z+.75'
  2	'-y, -x, -z+.25'
  3	'x, -y, -z+.5'
  4	'-x, y, -z'
  5	'y, -x, z+.75'
  6	'-y, x, z+.25'
  7	'-x, -y, z+.5'
  8	'x, y, z'
loop_
_atom_type_symbol
_atom_type_oxidation_number
O2-	-2
Ti4+	4
Zn2+	2
loop_
_atom_site_label
_atom_site_type_symbol
_atom_site_symmetry_multiplicity
_atom_site_Wyckoff_symbol
_atom_site_fract_x
_atom_site_fract_y
_atom_site_fract_z
_atom_site_occupancy
_atom_site_attached_hydrogens
O1 O2- 8 d 0.4565(100) 0.2225(70) 0.248(5) 1. 0 
O2 O2- 8 d -0.0005(45) 0.2345(65) 0.2695(55) 1. 0 
Zn1 Zn2+ 4 c 0.7370(100) 0.7370(100) 0.375 1. 0 
Zn2 Zn2+ 4 b 0.5 0.7655(75) 0 1. 0 
Ti1 Ti4+ 4 a 0 0.779(11) 0 1. 0 

#End of data_166486-ICSD


