data_184290-ICSD
#?2014 by Fachinformationszentrum Karlsruhe, and the U.S. Secretary of 
#Commerce on behalf of the United States.  All rights reserved.
_database_code_ICSD                184290
_audit_creation_date               2012/08/01
_chemical_name_systematic          'Hexalithium Yttrium Tris(borate)'
_chemical_formula_structural       'Li6 Y (B O3)3'
_chemical_formula_sum              'B3 Li6 O9 Y1'
_publ_section_title
;
Synthesis and crystallization of lithium-yttrium orthoborate Li6 Y (B 
O3)3 phase
;
loop_
_citation_id
_citation_journal_abbrev
_citation_year
_citation_journal_volume
_citation_page_first
_citation_page_last
_citation_journal_id_ASTM
primary 'Journal of Crystal Growth' 2012 346 69 74 JCRGAE
2 'Jiegon Huaxue' 1989 8 215 219 JHUADF
_publ_author_name                  'Peter, A.;Polgar, K.;Toth, M.'
_cell_length_a                     7.185(2)
_cell_length_b                     16.436(5)
_cell_length_c                     6.638(4)
_cell_angle_alpha                  90.
_cell_angle_beta                   105.30(10)
_cell_angle_gamma                  90.
_cell_volume                       756.12
_cell_formula_units_Z              4
_symmetry_space_group_name_H-M     'P 1 21/c 1'
_symmetry_Int_Tables_number        14
loop_
_symmetry_equiv_pos_site_id
_symmetry_equiv_pos_as_xyz
  1	'x, -y+.5, z+.5'
  2	'-x, -y, -z'
  3	'-x, y+.5, -z+.5'
  4	'x, y, z'
loop_
_atom_type_symbol
_atom_type_oxidation_number
B3+	3
Li1+	1
O2-	-2
Y3+	3
loop_
_atom_site_label
_atom_site_type_symbol
_atom_site_symmetry_multiplicity
_atom_site_Wyckoff_symbol
_atom_site_fract_x
_atom_site_fract_y
_atom_site_fract_z
_atom_site_occupancy
_atom_site_attached_hydrogens
Y1 Y3+ 4 e 0.080 0.310 0.155 1. 0 
O1 O2- 4 e 0.608 0.421 0.424 1. 0 
O2 O2- 4 e 0.421 0.302 0.274 1. 0 
O3 O2- 4 e 0.278 0.068 0.730 1. 0 
O4 O2- 4 e 0.536 0.089 0.413 1. 0 
O5 O2- 4 e 0.740 0.297 0.056 1. 0 
O6 O2- 4 e 0.877 0.075 0.540 1. 0 
O7 O2- 4 e 0.087 0.053 0.177 1. 0 
O8 O2- 4 e 0.147 0.185 0.334 1. 0 
O9 O2- 4 e 0.009 0.327 0.474 1. 0 
B1 B3+ 4 e 0.440 0.385 0.312 1. 0 
B2 B3+ 4 e 0.715 0.120 0.497 1. 0 
B3 B3+ 4 e 0.083 0.136 0.161 1. 0 
Li1 Li1+ 4 e 0.072 0.505 0.173 1. 0 
Li2 Li1+ 4 e 0.550 0.470 0.675 1. 0 
Li3 Li1+ 4 e 0.712 0.205 0.867 1. 0 
Li4 Li1+ 4 e 0.306 0.464 0.941 1. 0 
Li5 Li1+ 4 e 0.438 0.295 0.952 1. 0 
Li6 Li1+ 4 e 0.862 0.052 0.917 1. 0 

#End of data_184290-ICSD


