data_14130-ICSD
#?2014 by Fachinformationszentrum Karlsruhe, and the U.S. Secretary of 
#Commerce on behalf of the United States.  All rights reserved.
_database_code_ICSD                14130
_audit_creation_date               1986/10/02
_audit_update_record               2006/04/01
_chemical_name_systematic
;
Strontium Pentafluoroaluminate - Subcell
;
_chemical_formula_structural       'Sr (Al F5)'
_chemical_formula_sum              'Al1 F5 Sr1'
_publ_section_title
;
Sur quelques fluometallates alcalino-terreux. I. Structure 
cristalline de Ba Fe F5 et Sr Al F5
;
loop_
_citation_id
_citation_journal_abbrev
_citation_year
_citation_journal_volume
_citation_page_first
_citation_page_last
_citation_journal_id_ASTM
primary 'Acta Crystallographica B (24,1968-38,1982)' 1971 27 2345 2353 ACBCAR
2 'Phase Transition' 1992 38 127 220 PHTRDP
_publ_author_name
;
von der Muehll, R.;Andersson, S.;Galy, J.
;
_cell_length_a                     14.089(2)
_cell_length_b                     14.089(2)
_cell_length_c                     7.617(2)
_cell_angle_alpha                  90.
_cell_angle_beta                   90.
_cell_angle_gamma                  90.
_cell_volume                       1511.97
_cell_formula_units_Z              16
_symmetry_space_group_name_H-M     'I 4'
_symmetry_Int_Tables_number        79
_refine_ls_R_factor_all            .139
loop_
_symmetry_equiv_pos_site_id
_symmetry_equiv_pos_as_xyz
  1	'y, -x, z'
  2	'-y, x, z'
  3	'-x, -y, z'
  4	'x, y, z'
  5	'y+.5, -x+.5, z+.5'
  6	'-y+.5, x+.5, z+.5'
  7	'-x+.5, -y+.5, z+.5'
  8	'x+.5, y+.5, z+.5'
loop_
_atom_type_symbol
_atom_type_oxidation_number
Al3+	3
F1-	-1
Sr2+	2
loop_
_atom_site_label
_atom_site_type_symbol
_atom_site_symmetry_multiplicity
_atom_site_Wyckoff_symbol
_atom_site_fract_x
_atom_site_fract_y
_atom_site_fract_z
_atom_site_occupancy
_atom_site_attached_hydrogens
_atom_site_B_iso_or_equiv
Sr1 Sr2+ 8 c 0.2168 0.0545 0 1. 0 0.69 
Sr2 Sr2+ 8 c 0.0692 0.2515 0.4973 1. 0 0.86 
Al1 Al3+ 2 a 0 0 0.267 1. 0 1.28 
Al2 Al3+ 2 a 0 0 0.72 1. 0 0.68 
Al3 Al3+ 4 b 0 0.5 -.0035 1. 0 0.5 
Al4 Al3+ 8 c 0.1809 0.3329 -.009 1. 0 0.59 
F1 F1- 2 a 0 0 0.036 1. 0 2.3 
F2 F1- 2 a 0 0 0.498 1. 0 2.35 
F3 F1- 8 c 0.0458 0.1125 0.271 1. 0 2.5 
F4 F1- 8 c 0.0409 0.112 0.773 1. 0 2.6 
F5 F1- 4 b 0 0.5 0.265 1. 0 1.33 
F6 F1- 8 c 0.1086 0.4444 -.0045 1. 0 0.72 
F7 F1- 8 c 0.1086 0.434 0.5182 1. 0 0.4 
F8 F1- 8 c 0.2528 0.3874 0.177 1. 0 0.76 
F9 F1- 8 c 0.2517 0.4022 -.1716 1. 0 1.7 
F10 F1- 8 c 0.1046 0.2868 0.1632 1. 0 0.42 
F11 F1- 8 c 0.0998 0.279 -.1749 1. 0 1.51 
F12 F1- 8 c 0.2564 0.2307 0.0164 1. 0 0.58 

#End of data_14130-ICSD


