data_189971-ICSD
#?2014 by Fachinformationszentrum Karlsruhe, and the U.S. Secretary of 
#Commerce on behalf of the United States.  All rights reserved.
_database_code_ICSD                189971
_audit_creation_date               2014/08/01
_chemical_name_systematic          'Dimagnesium Silicate'
_chemical_formula_structural       'Mg2 (Si O4)'
_chemical_formula_sum              'Mg2 O4 Si1'
_chemical_name_mineral             Forsterite
_publ_section_title
;
Phase transitions and equation of state of forsterite to 90 GPa from 
single-crystal X-ray diffraction and molecular modeling
;
loop_
_citation_id
_citation_journal_abbrev
_citation_year
_citation_journal_volume
_citation_journal_issue
_citation_page_first
_citation_page_last
_citation_journal_id_ASTM
primary 'American Mineralogist' 2014 99 1 35 43 AMMIAY
_publ_author_name
;
Gregory J. Finkelstein;Przemyslaw K. Dera;Sandro Jahn;Artem R. 
Oganov;Christopher M. Holl;Yue Meng;Thomas S. Duffy
;
_cell_length_a                     4.5232(5)
_cell_length_b                     9.274(5)
_cell_length_c                     5.5467(7)
_cell_angle_alpha                  90.
_cell_angle_beta                   90.
_cell_angle_gamma                  90.
_cell_volume                       232.67
_cell_formula_units_Z              4
_symmetry_space_group_name_H-M     'P b n m'
_symmetry_Int_Tables_number        62
_refine_ls_R_factor_all            .048
loop_
_symmetry_equiv_pos_site_id
_symmetry_equiv_pos_as_xyz
  1	'-x+.5, y+.5, z'
  2	'x, y, -z+.5'
  3	'x+.5, -y+.5, z+.5'
  4	'-x, -y, -z'
  5	'x+.5, -y+.5, -z'
  6	'-x, -y, z+.5'
  7	'-x+.5, y+.5, -z+.5'
  8	'x, y, z'
loop_
_atom_type_symbol
_atom_type_oxidation_number
Mg2+	2
O2-	-2
Si4+	4
loop_
_atom_site_label
_atom_site_type_symbol
_atom_site_symmetry_multiplicity
_atom_site_Wyckoff_symbol
_atom_site_fract_x
_atom_site_fract_y
_atom_site_fract_z
_atom_site_occupancy
_atom_site_attached_hydrogens
_atom_site_U_iso_or_equiv
Mg1 Mg2+ 4 a 0 0 0 1. 0 0.0070(7) 
Mg2 Mg2+ 4 c 0.9845(5) 0.2742(6) 0.250 1. 0 0.0075(7) 
Si1 Si4+ 4 c 0.4250(5) 0.0964(5) 0.250 1. 0 0.0070(7) 
O1 O2- 4 c 0.7675(12) 0.0899(10) 0.250 1. 0 0.0075(13) 
O2 O2- 4 c 0.2271(12) 0.4407(10) 0.250 1. 0 0.0061(13) 
O3 O2- 8 d 0.2638(8) 0.1692(7) 0.0233(6) 1. 0 0.0081(10) 

#End of data_189971-ICSD


