data_608233-ICSD
#?2014 by Fachinformationszentrum Karlsruhe, and the U.S. Secretary of 
#Commerce on behalf of the United States.  All rights reserved.
_database_code_ICSD                608233
_audit_creation_date               2012/02/01
_chemical_name_systematic          'Aluminium Indium Selenide (1/1/3)'
_chemical_formula_structural       'Al In Se3'
_chemical_formula_sum              'Al1 In1 Se3'
_publ_section_title
;
An X-ray diffraction study of the system Al2 Se3 - In2 Se3 in the In-
rich region
;
loop_
_citation_id
_citation_journal_abbrev
_citation_year
_citation_journal_volume
_citation_page_first
_citation_page_last
_citation_journal_id_ASTM
primary 'Journal of Applied Crystallography' 1980 13 454 458 JACGAR
_publ_author_name
;
Grzeta-Plenkovic, B.;Popovic, S.;Desnica, D.;Desnica, U.
;
_cell_length_a                     6.975(4)
_cell_length_b                     6.975(4)
_cell_length_c                     18.850(12)
_cell_angle_alpha                  90.0
_cell_angle_beta                   90.0
_cell_angle_gamma                  120.0
_cell_volume                       794.2
_cell_formula_units_Z              6
_symmetry_space_group_name_H-M     'P 61'
_symmetry_Int_Tables_number        169
loop_
_symmetry_equiv_pos_site_id
_symmetry_equiv_pos_as_xyz
  1	'x-y, x, z+.1667'
  2	'y, -x+y, z+.8333'
  3	'-x, -y, z+.5'
  4	'-x+y, -x, z+.6667'
  5	'-y, x-y, z+.3333'
  6	'x, y, z'
loop_
_atom_type_symbol
_atom_type_oxidation_number
Al3+	3
In3+	3
Se2-	-2
loop_
_atom_site_label
_atom_site_type_symbol
_atom_site_symmetry_multiplicity
_atom_site_Wyckoff_symbol
_atom_site_fract_x
_atom_site_fract_y
_atom_site_fract_z
_atom_site_occupancy
_atom_site_attached_hydrogens
Al1 Al3+ 6 a 0.331 0.001 0.193 1. 0 
In1 In3+ 6 a 0.014 0.335 0.167 1. 0 
Se1 Se2- 6 a 0.045 0.370 0.304 1. 0 
Se2 Se2- 6 a 0.358 0.019 0.671 1. 0 
Se3 Se2- 6 a 0.298 0.008 0.331 1. 0 

#End of data_608233-ICSD


