data_410650-ICSD
#?2014 by Fachinformationszentrum Karlsruhe, and the U.S. Secretary of 
#Commerce on behalf of the United States.  All rights reserved.
_database_code_ICSD                410650
_audit_creation_date               1999/11/30
_chemical_name_systematic
;
Lead Tetrazinc Silicium Tellurium(VI) Oxide
;
_chemical_formula_structural       'Pb Zn4 Si Te O10'
_chemical_formula_sum              'O10 Pb1 Si1 Te1 Zn4'
_publ_section_title
;
Zur Kristallchemie des ersten Blei-Zink-Silizium-Telluroxids: Pb Zn4 
Si Te O10
;
loop_
_citation_id
_citation_journal_abbrev
_citation_year
_citation_journal_volume
_citation_page_first
_citation_page_last
_citation_journal_id_ASTM
primary 'Zeitschrift fuer Naturforschung, B: Chemical Sciences'
 1999 54 469 472 ZNBSEN
_publ_author_name
;
Wedel, B.;Sugiyama, K.;Hiraga, K.;Itagaki, K.
;
_cell_length_a                     6.5311(18)
_cell_length_b                     15.5939(14)
_cell_length_c                     8.2650(15)
_cell_angle_alpha                  90.
_cell_angle_beta                   90.
_cell_angle_gamma                  90.
_cell_volume                       841.75
_cell_formula_units_Z              4
_symmetry_space_group_name_H-M     'P n m a'
_symmetry_Int_Tables_number        62
_refine_ls_R_factor_all            .0806
loop_
_symmetry_equiv_pos_site_id
_symmetry_equiv_pos_as_xyz
  1	'x+.5, y, -z+.5'
  2	'x, -y+.5, z'
  3	'-x+.5, y+.5, z+.5'
  4	'-x, -y, -z'
  5	'-x+.5, -y, z+.5'
  6	'-x, y+.5, -z'
  7	'x+.5, -y+.5, -z+.5'
  8	'x, y, z'
loop_
_atom_type_symbol
_atom_type_oxidation_number
O2-	-2
Pb2+	2
Si4+	4
Te6+	6
Zn2+	2
loop_
_atom_site_label
_atom_site_type_symbol
_atom_site_symmetry_multiplicity
_atom_site_Wyckoff_symbol
_atom_site_fract_x
_atom_site_fract_y
_atom_site_fract_z
_atom_site_occupancy
_atom_site_attached_hydrogens
Pb1 Pb2+ 4 c 0.44381(6) 0.75 0.58816(4) 1. 0 
Te1 Te6+ 4 a 0 0.5 0 1. 0 
Zn1 Zn2+ 8 d 0.71529(11) 0.63532(5) 0.22985(9) 1. 0 
Zn2 Zn2+ 8 d 0.53045(12) 0.56616(5) 0.87757(9) 1. 0 
Si1 Si4+ 4 c 0.4344(4) 0.75 0.0103(3) 1. 0 
O1 O2- 4 c 0.7804(10) 0.75 0.3324(8) 1. 0 
O2 O2- 4 c 0.3053(10) 0.75 0.8436(8) 1. 0 
O3 O2- 8 d 0.4710(7) 0.5892(3) 0.6575(5) 1. 0 
O4 O2- 8 d 0.5846(6) 0.6668(3) 0.0180(6) 1. 0 
O5 O2- 8 d 0.7092(6) 0.4844(3) 0.9958(6) 1. 0 
O6 O2- 8 d 0.9743(7) 0.5842(3) 0.1723(6) 1. 0 

loop_
_atom_site_aniso_label
_atom_site_aniso_type_symbol
_atom_site_aniso_U_11
_atom_site_aniso_U_22
_atom_site_aniso_U_33
_atom_site_aniso_U_12
_atom_site_aniso_U_13
_atom_site_aniso_U_23
Pb1 Pb2+ 0.00675(14) 0.01468(17) 0.00484(13) 0 0.00012(12) 0
Te1 Te6+ 0.00336(19) 0.00434(19) 0.00130(19) 0.00009(17) -.00015(18) 
-.00004(19)
Zn1 Zn2+ 0.0057(3) 0.0090(3) 0.0068(3) 0.0003(3) 0.0003(2) 0.0002(3)
Zn2 Zn2+ 0.0134(3) 0.0081(3) 0.0036(3) 0.0006(3) -.0016(3) 0.0001(2)
Si1 Si4+ 0.0051(9) 0.0058(10) 0.0039(10) 0 0.0003(10) 0
O1 O2- 0.012(3) 0.004(3) 0.010(3) 0 -.009(3) 0
O2 O2- 0.008(3) 0.017(4) 0.003(3) 0 0.003(2) 0
O3 O2- 0.014(2) 0.0069(19) 0.0031(17) 0.0031(18) -.0036(17) -.0027(15)
O4 O2- 0.0077(19) 0.0081(19) 0.011(2) 0.0069(16) -.0017(17) -.0009(18)
O5 O2- 0.0058(16) 0.011(2) 0.0078(19) -.0009(15) 0.0004(17) 0.0039(19)
O6 O2- 0.007(2) 0.016(2) 0.007(2) -.0004(18) -.0001(16) -.0105(18)
#End of data_410650-ICSD


