data_15547-ICSD
#?2014 by Fachinformationszentrum Karlsruhe, and the U.S. Secretary of 
#Commerce on behalf of the United States.  All rights reserved.
_database_code_ICSD                15547
_audit_creation_date               1981/12/31
_chemical_name_systematic          'Sodium Zirconium Silicate (4/2/3)'
_chemical_formula_structural       'Na4 Zr2 Si3 O12'
_chemical_formula_sum              'Na4 O12 Si3 Zr2'
_publ_section_title
;
Crystal structure and ionic conductivity in Na4 Zr2 Si3 O12
;
loop_
_citation_id
_citation_journal_abbrev
_citation_year
_citation_journal_volume
_citation_page_first
_citation_page_last
_citation_journal_id_ASTM
primary 'Journal of Solid State Chemistry' 1981 39 219 229 JSSCBI
_publ_author_name
;
Duc Tran Qui;Vapponi, J.J.;Joubert, J.C.;Shannon, R.D.
;
_cell_length_a                     9.1863(5)
_cell_length_b                     9.1863
_cell_length_c                     22.181(2)
_cell_angle_alpha                  90.
_cell_angle_beta                   90.
_cell_angle_gamma                  120.
_cell_volume                       1621.04
_cell_formula_units_Z              6
_symmetry_space_group_name_H-M     'R -3 c H'
_symmetry_Int_Tables_number        167
_refine_ls_R_factor_all            .029
loop_
_symmetry_equiv_pos_site_id
_symmetry_equiv_pos_as_xyz
  1	'x-y, -y, -z+.5'
  2	'-x, -x+y, -z+.5'
  3	'y, x, -z+.5'
  4	'x-y, x, -z'
  5	'y, -x+y, -z'
  6	'-x, -y, -z'
  7	'-x+y, y, z+.5'
  8	'x, x-y, z+.5'
  9	'-y, -x, z+.5'
 10	'-x+y, -x, z'
 11	'-y, x-y, z'
 12	'x, y, z'
 13	'x-y+.6666, -y+.3333, -z+.8333'
 14	'x-y+.3333, -y+.6666, -z+.1666'
 15	'-x+.6666, -x+y+.3333, -z+.8333'
 16	'-x+.3333, -x+y+.6666, -z+.1666'
 17	'y+.6666, x+.3333, -z+.8333'
 18	'y+.3333, x+.6666, -z+.1666'
 19	'x-y+.6666, x+.3333, -z+.3333'
 20	'x-y+.3333, x+.6666, -z+.6666'
 21	'y+.6666, -x+y+.3333, -z+.3333'
 22	'y+.3333, -x+y+.6666, -z+.6666'
 23	'-x+.6666, -y+.3333, -z+.3333'
 24	'-x+.3333, -y+.6666, -z+.6666'
 25	'-x+y+.6666, y+.3333, z+.8333'
 26	'-x+y+.3333, y+.6666, z+.1666'
 27	'x+.6666, x-y+.3333, z+.8333'
 28	'x+.3333, x-y+.6666, z+.1666'
 29	'-y+.6666, -x+.3333, z+.8333'
 30	'-y+.3333, -x+.6666, z+.1666'
 31	'-x+y+.6666, -x+.3333, z+.3333'
 32	'-x+y+.3333, -x+.6666, z+.6666'
 33	'-y+.6666, x-y+.3333, z+.3333'
 34	'-y+.3333, x-y+.6666, z+.6666'
 35	'x+.6666, y+.3333, z+.3333'
 36	'x+.3333, y+.6666, z+.6666'
loop_
_atom_type_symbol
_atom_type_oxidation_number
Na1+	1
O2-	-2
Si4+	4
Zr4+	4
loop_
_atom_site_label
_atom_site_type_symbol
_atom_site_symmetry_multiplicity
_atom_site_Wyckoff_symbol
_atom_site_fract_x
_atom_site_fract_y
_atom_site_fract_z
_atom_site_occupancy
_atom_site_attached_hydrogens
Zr1 Zr4+ 12 c 0 0 0.14779(2) 1. 0 
Na1 Na1+ 6 b 0 0 0 1. 0 
Na2 Na1+ 18 e -.35890(59) 0 0.25 1. 0 
O1 O2- 36 f 0.18734(41) 0.16685(44) 0.08765(17) 1. 0 
O2 O2- 36 f 0.18002(52) -.02451(55) 0.19206(22) 1. 0 
Si1 Si4+ 18 e 0.29486(17) 0 0.25 1. 0 

loop_
_atom_site_aniso_label
_atom_site_aniso_type_symbol
_atom_site_aniso_U_11
_atom_site_aniso_U_22
_atom_site_aniso_U_33
_atom_site_aniso_U_12
_atom_site_aniso_U_13
_atom_site_aniso_U_23
Zr1 Zr4+ 0.0136(1) 0.0136 0.0141(2) 0.0068 0 0
Na1 Na1+ 0.1120(68) 0.112 0.0223 0.056 0 0
Na2 Na1+ 0.0543(26) 0.0425(28) 0.1600(74) 0.02125 0.0178 0.0356(32)
O1 O2- 0.0213(16) 0.0229(15) 0.0308(18) 0.0014(12) 0.0082(13) 0.0060(14)
O2 O2- 0.0372(21) 0.0518(26) 0.0410(23) 0.0262(19) -.0181(20) 0.0007(19)
Si1 Si4+ 0.0129(4) 0.0147(6) 0.0189(7) 0.00735 0.0016 0.0032(6)
#End of data_15547-ICSD


