data_262603-ICSD
#?2014 by Fachinformationszentrum Karlsruhe, and the U.S. Secretary of 
#Commerce on behalf of the United States.  All rights reserved.
_database_code_ICSD                262603
_audit_creation_date               2012/08/01
_chemical_name_systematic
;
Dipotassium Cadmium Tetrakis(borotetrahydride)
;
_chemical_formula_structural       'K2 Cd (B H4)4'
_chemical_formula_sum              'H16 B4 Cd1 K2'
_publ_section_title
;
Screening of metal borohydrides by mechanochemistry and diffraction
;
loop_
_citation_id
_citation_journal_abbrev
_citation_year
_citation_journal_volume
_citation_journal_issue
_citation_page_first
_citation_page_last
_citation_journal_id_ASTM
primary 'Angewandte Chemie. International Edition' 2012 51 15 3582 3586 ACIEF5
_publ_author_name
;
Ravnsbaek, D.B.;Sorensen, L.H.;Filinchuk, Ya.;Besenbacher, F.;Jensen, 
T.R.
;
_cell_length_a                     13.6992(9)
_cell_length_b                     9.7268(6)
_cell_length_c                     7.9585(6)
_cell_angle_alpha                  90.
_cell_angle_beta                   104.259(3)
_cell_angle_gamma                  90.
_cell_volume                       1027.79
_cell_formula_units_Z              4
_symmetry_space_group_name_H-M     'P 1 21/n 1'
_symmetry_Int_Tables_number        14
_refine_ls_R_factor_all            .0352
loop_
_symmetry_equiv_pos_site_id
_symmetry_equiv_pos_as_xyz
  1	'-x+.5, y+.5, -z+.5'
  2	'-x, -y, -z'
  3	'x+.5, -y+.5, z+.5'
  4	'x, y, z'
loop_
_atom_type_symbol
_atom_type_oxidation_number
B3+	3
Cd2+	2
H1-	-1
K1+	1
loop_
_atom_site_label
_atom_site_type_symbol
_atom_site_symmetry_multiplicity
_atom_site_Wyckoff_symbol
_atom_site_fract_x
_atom_site_fract_y
_atom_site_fract_z
_atom_site_occupancy
_atom_site_attached_hydrogens
Cd1 Cd2+ 4 e 0.6795(5) 0.1518(6) 0.2851(8) 1. 0 
K1 K1+ 4 e 0.5054(12) 0.6332(17) 0.250(2) 1. 0 
K2 K1+ 4 e 0.8402(12) 0.3948(13) 0.758(2) 1. 0 
B1 B3+ 4 e 0.658(3) 0.608(5) 0.997(5) 1. 0 
H1 H1- 4 e 0.680(3) 0.505(5) 0.949(5) 1. 0 
H2 H1- 4 e 0.712(3) 0.689(5) 0.969(5) 1. 0 
H3 H1- 4 e 0.577(3) 0.635(5) 0.924(5) 1. 0 
H4 H1- 4 e 0.662(3) 0.603(5) 0.144(5) 1. 0 
B2 B3+ 4 e 0.052(3) 0.542(4) 0.749(5) 1. 0 
H5 H1- 4 e 0.004(3) 0.636(4) 0.759(5) 1. 0 
H6 H1- 4 e 0.127(3) 0.550(4) 0.851(5) 1. 0 
H7 H1- 4 e 0.010(3) 0.446(4) 0.774(5) 1. 0 
H8 H1- 4 e 0.068(3) 0.538(4) 0.611(5) 1. 0 
B3 B3+ 4 e 0.227(3) 0.297(4) 0.501(6) 1. 0 
H9 H1- 4 e 0.268(3) 0.288(4) 0.645(6) 1. 0 
H10 H1- 4 e 0.148(3) 0.337(4) 0.491(6) 1. 0 
H11 H1- 4 e 0.270(3) 0.371(4) 0.431(6) 1. 0 
H12 H1- 4 e 0.224(3) 0.192(4) 0.437(6) 1. 0 
B4 B3+ 4 e 0.409(3) 0.652(5) 0.573(5) 1. 0 
H13 H1- 4 e 0.411(3) 0.564(5) 0.478(5) 1. 0 
H14 H1- 4 e 0.488(3) 0.669(5) 0.658(5) 1. 0 
H15 H1- 4 e 0.382(3) 0.749(5) 0.495(5) 1. 0 
H16 H1- 4 e 0.355(3) 0.625(5) 0.660(5) 1. 0 

#End of data_262603-ICSD


