data_410086-ICSD
#?2014 by Fachinformationszentrum Karlsruhe, and the U.S. Secretary of 
#Commerce on behalf of the United States.  All rights reserved.
_database_code_ICSD                410086
_audit_creation_date               2005/04/01
_audit_update_record               2006/10/01
_chemical_name_systematic          'Potassium Dihydrogenphosphate(V)'
_chemical_formula_structural       'K (H2 P O4)'
_chemical_formula_sum              'H2 K1 O4 P1'
_publ_section_title
;
Polymorphism of potassium dihydrogen phosphate
;
loop_
_citation_id
_citation_journal_abbrev
_citation_year
_citation_journal_volume
_citation_page_first
_citation_page_last
_citation_journal_id_ASTM
primary 'Chemistry of Materials' 1998 10 2053 2057 CMATEX
_publ_author_name
;
Subramony, J. A.;Lovell, S.;Kahr, B.
;
_cell_length_a                     7.4382(3)
_cell_length_b                     7.3926(4)
_cell_length_c                     7.1996(4)
_cell_angle_alpha                  88.489(3)
_cell_angle_beta                   86.920(3)
_cell_angle_gamma                  87.783(3)
_cell_volume                       394.9
_cell_formula_units_Z              4
_symmetry_space_group_name_H-M     'P -1'
_symmetry_Int_Tables_number        2
_refine_ls_R_factor_all            .0345
loop_
_symmetry_equiv_pos_site_id
_symmetry_equiv_pos_as_xyz
  1	'-x, -y, -z'
  2	'x, y, z'
loop_
_atom_type_symbol
_atom_type_oxidation_number
H1+	1
K1+	1
O2-	-2
P5+	5
loop_
_atom_site_label
_atom_site_type_symbol
_atom_site_symmetry_multiplicity
_atom_site_Wyckoff_symbol
_atom_site_fract_x
_atom_site_fract_y
_atom_site_fract_z
_atom_site_occupancy
_atom_site_attached_hydrogens
_atom_site_U_iso_or_equiv
K1 K1+ 2 i -0.20413(9) 0.24784(9) -0.35899(10) 1 0 0.0251(2) 
K2 K1+ 2 i -0.30811(9) -0.18216(10) 0.06372(10) 1 0 0.0258(2) 
P1 P5+ 2 i -0.20565(10) 0.27197(10) 0.11264(11) 1 0 0.0188(2) 
P2 P5+ 2 i -0.29841(10) -0.24927(10) -0.43168(11) 1 0 0.0186(2) 
O1 O2- 2 i -0.0457(3) 0.3421(3) -0.0099(3) 1 0 0.0234(5) 
H1 H1+ 1 c 0 0.5 0 1 0 0.026 
O2 O2- 2 i -0.3433(3) 0.1883(3) 0.0049(3) 1 0 0.0247(5) 
O3 O2- 2 i -0.1275(3) 0.1216(4) 0.2490(4) 1 0 0.0365(6) 
H2 H1+ 2 i 0.0049 0.1271 0.2751 1 0 0.040 
O4 O2- 2 i -0.2878(3) 0.4272(3) 0.2331(4) 1 0 0.0333(6) 
H3 H1+ 2 i -0.2443 0.5485 0.3192 1 0 0.037 
O5 O2- 2 i -0.4517(3) -0.1601(3) -0.5400(3) 1 0 0.0261(5) 
H4 H1+ 1 f 0.5 0 0.5 1. 0 0.029 
O6 O2- 2 i -0.2074(3) -0.1210(3) -0.3152(3) 1 0 0.0246(5) 
O7 O2- 2 i -0.3732(3) -0.4111(3) -0.3122(3) 1 0 0.0307(6) 
H5 H1+ 2 i -0.4951 -0.4143 -0.2765 1. 0 0.034 
O8 O2- 2 i -0.1559(3) -0.3379(3) -0.5718(3) 1 0 0.0271(5) 

loop_
_atom_site_aniso_label
_atom_site_aniso_type_symbol
_atom_site_aniso_U_11
_atom_site_aniso_U_22
_atom_site_aniso_U_33
_atom_site_aniso_U_12
_atom_site_aniso_U_13
_atom_site_aniso_U_23
K1 K1+ 0.0246(4) 0.0249(4) 0.0256(4) -0.0021(3) 0.0005(3) 0.0007(3)
K2 K1+ 0.0219(4) 0.0282(4) 0.0269(4) 0.0002(3) -0.0010(3) 0.0030(3)
P1 P5+ 0.0167(4) 0.0190(4) 0.0206(4) -0.0033(3) 0.0017(3) -0.0019(3)
P2 P5+ 0.0161(4) 0.0185(4) 0.0210(4) 0.0004(3) -0.0006(3) -0.0003(3)
O1 O2- 0.0217(11) 0.0229(12) 0.0249(11) -0.0043(9) 0.0070(9) -0.0005(9)
O2 O2- 0.0206(11) 0.0277(12) 0.0263(12) -0.0041(9) -0.0032(9) -0.0041(10)
O3 O2- 0.0244(12) 0.0436(15) 0.0415(14) -0.0079(11) -0.0072(11) 0.0208(12)
O4 O2- 0.0256(13) 0.0337(14) 0.0407(14) -0.0093(10) 0.0114(11) -0.0190(11)
O5 O2- 0.0222(12) 0.0259(12) 0.0306(12) 0.0008(9) -0.0083(10) 0.0006(10)
O6 O2- 0.0265(12) 0.0239(12) 0.0242(11) 0.0027(9) -0.0081(9) -0.0065(9)
O7 O2- 0.0240(12) 0.0269(13) 0.0396(14) 0.0020(9) 0.0062(10) 0.0101(11)
O8 O2- 0.0195(11) 0.0291(13) 0.0324(13) -0.0018(9) 0.0061(10) -0.0074(10)
#End of data_410086-ICSD


