data_605319-ICSD
#?2014 by Fachinformationszentrum Karlsruhe, and the U.S. Secretary of 
#Commerce on behalf of the United States.  All rights reserved.
_database_code_ICSD                605319
_audit_creation_date               2012/02/01
_chemical_name_systematic          'Silver Germanium Selenide (8/1/6)'
_chemical_formula_structural       'Ag8 Ge Se6'
_chemical_formula_sum              'Ag8 Ge1 Se6'
_chemical_name_mineral             Argyrodite
_publ_section_title
;
Ag8 Ge Te6, ein Vertreter der Argyroditfamilie
;
loop_
_citation_id
_citation_journal_abbrev
_citation_year
_citation_journal_volume
_citation_page_first
_citation_page_last
_citation_journal_id_ASTM
primary
;
Zeitschrift fuer Naturforschung, Teil B. Anorganische Chemie, 
Organische Chemie (33,1978-41,1986)
;
 1978 33 866 872 ZNBAD2
_publ_author_name                  'von Unterrichter, J.;Range, K.J.'
_cell_length_a                     7.742
_cell_length_b                     7.852
_cell_length_c                     10.925
_cell_angle_alpha                  90.0
_cell_angle_beta                   90.0
_cell_angle_gamma                  90.0
_cell_volume                       664.13
_cell_formula_units_Z              2
_symmetry_space_group_name_H-M     'P n m 21'
_symmetry_Int_Tables_number        31
loop_
_symmetry_equiv_pos_site_id
_symmetry_equiv_pos_as_xyz
  1	'-x, y+.5, z+.5'
  2	'-x, -y+.5, z+.5'
  3	'x, -y, z'
  4	'x, y, z'
loop_
_atom_type_symbol
_atom_type_oxidation_number
Ag1+	1
Ge4+	4
Se2-	-2
loop_
_atom_site_label
_atom_site_type_symbol
_atom_site_symmetry_multiplicity
_atom_site_Wyckoff_symbol
_atom_site_fract_x
_atom_site_fract_y
_atom_site_fract_z
_atom_site_occupancy
_atom_site_attached_hydrogens
Ag1 Ag1+ 2 a 0.626 0 0.041 1. 0 
Ag2 Ag1+ 4 b 0.102 0.200 0.862 1. 0 
Ag3 Ag1+ 4 b 0.535 0.203 0.270 1. 0 
Ag4 Ag1+ 4 b 0.146 0.191 0.156 1. 0 
Ag5 Ag1+ 2 a 0.734 0 0.481 1. 0 
Ge1 Ge4+ 2 a 0.248 0 0.520 1. 0 
Se1 Se2- 2 a 0.292 0 0 1. 0 
Se2 Se2- 2 a 0.808 0 0.250 1. 0 
Se3 Se2- 2 a 0.003 0 0.648 1. 0 
Se4 Se2- 2 a 0.489 0 0.649 1. 0 
Se5 Se2- 4 b 0.754 0.252 0.900 1. 0 

#End of data_605319-ICSD


