data_1841-ICSD
#?2014 by Fachinformationszentrum Karlsruhe, and the U.S. Secretary of 
#Commerce on behalf of the United States.  All rights reserved.
_database_code_ICSD                1841
_audit_creation_date               1980/01/01
_audit_update_record               2010/02/01
_chemical_name_systematic          'Nonacalcium Tris(dialuminate)'
_chemical_formula_structural       'Ca9 (Al2 O6)3'
_chemical_formula_sum              'Al6 Ca9 O18'
_publ_section_title
;
The crystal structure of tricalcium aluminate, Ca3 Al2 O6
;
loop_
_citation_id
_citation_journal_abbrev
_citation_year
_citation_journal_volume
_citation_page_first
_citation_page_last
_citation_journal_id_ASTM
primary 'Acta Crystallographica B (24,1968-38,1982)' 1975 31 689 697 ACBCAR
2
;
Zeitschrift fuer Kristallographie, Kristallgeometrie, Kristallphysik, 
Kristallchemie (-144,1977)
;
 1929 73 17 30 ZEKGAX
_publ_author_name                  'Mondal, P.;Jeffery, J.W.'
_cell_length_a                     15.263(3)
_cell_length_b                     15.263(3)
_cell_length_c                     15.263(3)
_cell_angle_alpha                  90.
_cell_angle_beta                   90.
_cell_angle_gamma                  90.
_cell_volume                       3555.66
_cell_formula_units_Z              8
_symmetry_space_group_name_H-M     'P a -3'
_symmetry_Int_Tables_number        205
_refine_ls_R_factor_all            .051
loop_
_symmetry_equiv_pos_site_id
_symmetry_equiv_pos_as_xyz
  1	'-z+.5, x+.5, y'
  2	'z+.5, x, -y+.5'
  3	'z, -x+.5, y+.5'
  4	'-z, -x, -y'
  5	'y, -z+.5, x+.5'
  6	'-y+.5, z+.5, x'
  7	'y+.5, z, -x+.5'
  8	'-y, -z, -x'
  9	'x+.5, y, -z+.5'
 10	'x, -y+.5, z+.5'
 11	'-x+.5, y+.5, z'
 12	'-x, -y, -z'
 13	'z+.5, -x+.5, -y'
 14	'-z+.5, -x, y+.5'
 15	'-z, x+.5, -y+.5'
 16	'z, x, y'
 17	'-y, z+.5, -x+.5'
 18	'y+.5, -z+.5, -x'
 19	'-y+.5, -z, x+.5'
 20	'y, z, x'
 21	'-x+.5, -y, z+.5'
 22	'-x, y+.5, -z+.5'
 23	'x+.5, -y+.5, -z'
 24	'x, y, z'
loop_
_atom_type_symbol
_atom_type_oxidation_number
Al3+	3
Ca2+	2
O2-	-2
loop_
_atom_site_label
_atom_site_type_symbol
_atom_site_symmetry_multiplicity
_atom_site_Wyckoff_symbol
_atom_site_fract_x
_atom_site_fract_y
_atom_site_fract_z
_atom_site_occupancy
_atom_site_attached_hydrogens
Ca1 Ca2+ 4 a 0 0 0 1. 0 
Ca2 Ca2+ 4 b 0.5 0 0 1. 0 
Ca3 Ca2+ 8 c 0.2561(1) 0.2561(1) 0.2561(1) 1. 0 
Ca4 Ca2+ 8 c 0.3750(1) 0.3750(1) 0.3750(1) 1. 0 
Ca5 Ca2+ 24 d 0.1386(1) 0.3763(1) 0.1272(1) 1. 0 
Ca6 Ca2+ 24 d 0.3800(1) 0.3838(1) 0.1209(1) 1. 0 
Al1 Al3+ 24 d 0.2526(1) 0.0133(1) 0.0197(1) 1. 0 
Al2 Al3+ 24 d 0.2444(1) 0.2335(1) 0.0046(1) 1. 0 
O1 O2- 24 d 0.2777(2) 0.1241(2) 0.0103(2) 1. 0 
O2 O2- 24 d 0.4835(2) 0.1315(2) 0.2536(2) 1. 0 
O3 O2- 24 d 0.2664(2) 0.2841(2) 0.1049(2) 1. 0 
O4 O2- 24 d 0.2350(2) 0.4047(2) 0.2921(2) 1. 0 
O5 O2- 24 d 0.3491(2) -.0385(2) -.0174(2) 1. 0 
O6 O2- 24 d 0.1509(2) -.0104(2) -.0242(2) 1. 0 

loop_
_atom_site_aniso_label
_atom_site_aniso_type_symbol
_atom_site_aniso_U_11
_atom_site_aniso_U_22
_atom_site_aniso_U_33
_atom_site_aniso_U_12
_atom_site_aniso_U_13
_atom_site_aniso_U_23
Ca1 Ca2+ 0.0060(5) 0.0060(5) 0.0060(5) 0.0028(8) 0.0028(8) 0.0028(8)
Ca2 Ca2+ 0.0084(5) 0.0084(5) 0.0084(5) 0.0001(8) 0.0001(8) 0.0001(8)
Ca3 Ca2+ 0.0079(4) 0.0079(4) 0.0079(4) 0.0013(6) 0.0013(6) 0.0013(6)
Ca4 Ca2+ 0.0117(5) 0.0117(5) 0.0117(5) 0.0027(6) 0.0027(6) 0.0027(6)
Ca5 Ca2+ 0.0079(5) 0.0090(5) 0.0223(6) 0.0026(6) 0.0051(7) -0.0010(6)
Ca6 Ca2+ 0.0060(5) 0.0092(5) 0.0096(5) -0.0011(6) 0.0023(5) 0.0011(6)
Al1 Al3+ 0.0056(6) 0.0058(6) 0.0080(7) -0.0022(8) -0.0003(9) -0.0011(10)
Al2 Al3+ 0.0078(7) 0.0059(6) 0.0065(6) -0.0011(9) 0.0015(8) 0.0009(8)
O1 O2- 0.0170(16) 0.0097(16) 0.0176(16) -0.0002(23) -0.0025(24) -0.0039(20)
O2 O2- 0.0138(15) 0.0086(15) 0.0188(16) -0.0039(22) 0.0014(22) -0.0013(22)
O3 O2- 0.0083(13) 0.0182(15) 0.0098(13) -0.0038(21) 0.0067(20) -0.0061(22)
O4 O2- 0.0142(14) 0.0094(14) 0.0191(15) -0.0011(20) 0.0077(22) 0.0054(23)
O5 O2- 0.0090(14) 0.0159(15) 0.0147(14) 0.0044(23) -0.0062(21) -0.0081(23)
O6 O2- 0.0066(14) 0.0154(14) 0.0142(14) 0.0062(20) 0.0047(22) 0.0010(22)
#End of data_1841-ICSD


