data_158801-ICSD
#?2014 by Fachinformationszentrum Karlsruhe, and the U.S. Secretary of 
#Commerce on behalf of the United States.  All rights reserved.
_database_code_ICSD                158801
_audit_creation_date               2008/08/01
_chemical_name_systematic          'Tripotassium Phosphate(V) - Lt'
_chemical_formula_structural       'K3 (P O4)'
_chemical_formula_sum              'K3 O4 P1'
_publ_section_title
;
Crystal structure of the low-temperature form of K3 P O4
;
loop_
_citation_id
_citation_journal_abbrev
_citation_year
_citation_journal_volume
_citation_journal_issue
_citation_page_first
_citation_page_last
_citation_journal_id_ASTM
primary 'Neorganicheskie Materialy' 2006 42 8 1001 1006 NMATEI
2 'Inorganic Materials' 2006 42 8 908 913 INOMAF
_publ_author_name
;
Voronin, V.I.;Ponosov, Yu.S.;Berger, I.F.;Proskurnina, N.V.;Zubkov, 
V.G.;Tyutyunnik, A.P.;Bushmeleva, S.N.;Balagurov, A.M.;Sheptyakov, 
D.V.;Burmakin, E.I.;Shekhtman, G.Sh.;Vovkotrub, E.G.
;
_cell_length_a                     11.2377(2)
_cell_length_b                     8.1046(1)
_cell_length_c                     5.9227(1)
_cell_angle_alpha                  90.
_cell_angle_beta                   90.
_cell_angle_gamma                  90.
_cell_volume                       539.42
_cell_formula_units_Z              4
_symmetry_space_group_name_H-M     'P n m a'
_symmetry_Int_Tables_number        62
_refine_ls_R_factor_all            .0385
loop_
_symmetry_equiv_pos_site_id
_symmetry_equiv_pos_as_xyz
  1	'x+.5, y, -z+.5'
  2	'x, -y+.5, z'
  3	'-x+.5, y+.5, z+.5'
  4	'-x, -y, -z'
  5	'-x+.5, -y, z+.5'
  6	'-x, y+.5, -z'
  7	'x+.5, -y+.5, -z+.5'
  8	'x, y, z'
loop_
_atom_type_symbol
_atom_type_oxidation_number
K1+	1
O2-	-2
P5+	5
loop_
_atom_site_label
_atom_site_type_symbol
_atom_site_symmetry_multiplicity
_atom_site_Wyckoff_symbol
_atom_site_fract_x
_atom_site_fract_y
_atom_site_fract_z
_atom_site_occupancy
_atom_site_attached_hydrogens
_atom_site_U_iso_or_equiv
K1 K1+ 8 d 0.6433(2) 0.9911(3) 0.1958(4) 1. 0 0.0398 
K2 K1+ 4 c 0.4295(3) 0.250 0.3599(6) 1. 0 0.0400 
P1 P5+ 4 c 0.6157(3) 0.250 0.7823(3) 1. 0 0.0281 
O1 O2- 4 c 0.0099(2) 0.250 0.5535(4) 1. 0 0.0389 
O2 O2- 4 c 0.2311(2) 0.250 0.5808(4) 1. 0 0.0356 
O3 O2- 8 d 0.6111(2) 0.0962(2) 0.6349(2) 1. 0 0.0434 

loop_
_atom_site_aniso_label
_atom_site_aniso_type_symbol
_atom_site_aniso_U_11
_atom_site_aniso_U_22
_atom_site_aniso_U_33
_atom_site_aniso_U_12
_atom_site_aniso_U_13
_atom_site_aniso_U_23
K1 K1+ 0.038(1) 0.032(1) 0.050(2) 0.004(1) -0.002(1) 0.0038(8)
K2 K1+ 0.037(2) 0.045(2) 0.039(2) 0. 0.001(1) 0.
P1 P5+ 0.032(1) 0.030(1) 0.022(1) 0. 0.001(1) 0.
O1 O2- 0.033(1) 0.047(1) 0.037(1) 0. -0.0021(9) 0.
O2 O2- 0.025(1) 0.040(1) 0.042(2) 0. -0.0004(9) 0.
O3 O2- 0.042(1) 0.042(1) 0.047(1) 0.0006(8) -0.0051(9) -0.0137(6)
#End of data_158801-ICSD


