data_35219-ICSD
#?2014 by Fachinformationszentrum Karlsruhe, and the U.S. Secretary of 
#Commerce on behalf of the United States.  All rights reserved.
_database_code_ICSD                35219
_audit_creation_date               1982/12/31
_chemical_name_systematic          'Dicalcium Dimanganese(III) Oxide'
_chemical_formula_structural       'Ca Mn O2.5'
_chemical_formula_sum              'Ca1 Mn1 O2.5'
_publ_section_title
;
Structure Determination of Ca Mn O3 and Ca Mn O2.5 by X-Ray and 
Neutron Methods
;
loop_
_citation_id
_citation_journal_abbrev
_citation_year
_citation_journal_volume
_citation_page_first
_citation_page_last
_citation_journal_id_ASTM
primary 'Journal of Solid State Chemistry' 1982 45 71 79 JSSCBI
_publ_author_name
;
Poeppelmeier, K.R.;Leonowicz, M.E.;Scanlon, J.C.;Longo, J.M.;Yelon, 
W.B.
;
_cell_length_a                     5.424(2)
_cell_length_b                     10.230(4)
_cell_length_c                     3.735(2)
_cell_angle_alpha                  90.
_cell_angle_beta                   90.
_cell_angle_gamma                  90.
_cell_volume                       207.25
_cell_formula_units_Z              4
_symmetry_space_group_name_H-M     'P b a m'
_symmetry_Int_Tables_number        55
_refine_ls_R_factor_all            .084
loop_
_symmetry_equiv_pos_site_id
_symmetry_equiv_pos_as_xyz
  1	'x+.5, -y+.5, z'
  2	'-x+.5, y+.5, z'
  3	'x, y, -z'
  4	'-x, -y, -z'
  5	'-x+.5, y+.5, -z'
  6	'x+.5, -y+.5, -z'
  7	'-x, -y, z'
  8	'x, y, z'
loop_
_atom_type_symbol
_atom_type_oxidation_number
Ca2+	2
Mn3+	3
O2-	-2
loop_
_atom_site_label
_atom_site_type_symbol
_atom_site_symmetry_multiplicity
_atom_site_Wyckoff_symbol
_atom_site_fract_x
_atom_site_fract_y
_atom_site_fract_z
_atom_site_occupancy
_atom_site_attached_hydrogens
_atom_site_B_iso_or_equiv
Ca1 Ca2+ 4 h 0.2990(16) 0.361(1) 0.5 1. 0 1.2 
O1 O2- 4 h 0.2875(17) 0.1027(9) 0.5 1. 0 2.8 
Mn1 Mn3+ 4 g 0.2826(22) 0.1201(11) 0 1. 0 0.3 
O2 O2- 4 g 0.0800(13) 0.2824(8) 0 1. 0 0.1 
O3 O2- 2 a 0 0 0 1. 0 0.4 

#End of data_35219-ICSD


