data_80429-ICSD
#?2014 by Fachinformationszentrum Karlsruhe, and the U.S. Secretary of 
#Commerce on behalf of the United States.  All rights reserved.
_database_code_ICSD                80429
_audit_creation_date               1997/05/13
_audit_update_record               2008/02/01
_chemical_name_systematic          'Dibarium Calcium Bis(borate)'
_chemical_formula_structural       'Ba2 Ca (B O3)2'
_chemical_formula_sum              'B2 Ba2 Ca1 O6'
_publ_section_title
;
Crystal structure of the borate Ba2 Ca (B O3)2
;
loop_
_citation_id
_citation_journal_abbrev
_citation_year
_citation_journal_volume
_citation_journal_issue
_citation_page_first
_citation_page_last
_citation_journal_id_ASTM
primary 'Main Group Met. Chem.' 1995 18 1 35 41 MGMCE8
_publ_author_name                  'Akella, A.;Keszler, D.A.'
_cell_length_a                     9.636(2)
_cell_length_b                     5.432(2)
_cell_length_c                     6.635(2)
_cell_angle_alpha                  90.
_cell_angle_beta                   119.38(1)
_cell_angle_gamma                  90.
_cell_volume                       302.63
_cell_formula_units_Z              2
_symmetry_space_group_name_H-M     'C 1 2/m 1'
_symmetry_Int_Tables_number        12
_refine_ls_R_factor_all            .04
loop_
_symmetry_equiv_pos_site_id
_symmetry_equiv_pos_as_xyz
  1	'-x, y, -z'
  2	'-x, -y, -z'
  3	'x, -y, z'
  4	'x, y, z'
  5	'-x+.5, y+.5, -z'
  6	'-x+.5, -y+.5, -z'
  7	'x+.5, -y+.5, z'
  8	'x+.5, y+.5, z'
loop_
_atom_type_symbol
_atom_type_oxidation_number
B3+	3
Ba2+	2
Ca2+	2
O2-	-2
loop_
_atom_site_label
_atom_site_type_symbol
_atom_site_symmetry_multiplicity
_atom_site_Wyckoff_symbol
_atom_site_fract_x
_atom_site_fract_y
_atom_site_fract_z
_atom_site_occupancy
_atom_site_attached_hydrogens
_atom_site_B_iso_or_equiv
Ba1 Ba2+ 4 i 0.21117(5) 0 0.68315(8) 1. 0 0.85(2) 
B1 B3+ 4 i -.063(1) 0.5 0.248(1) 1. 0 0.6(2) 
Ca1 Ca2+ 2 a 0 0 0 1. 0 0.66(5) 
O1 O2- 4 i 0.7780(7) 0.5 0.178(1) 1. 0 1.0(2) 
O2 O2- 8 j 0.0180(5) 0.2790(8) 0.2743(7) 1. 0 0.9(1) 

#End of data_80429-ICSD


