data_167312-ICSD
#?2014 by Fachinformationszentrum Karlsruhe, and the U.S. Secretary of 
#Commerce on behalf of the United States.  All rights reserved.
_database_code_ICSD                167312
_audit_creation_date               2010/08/01
_chemical_name_systematic          'Pentaaluminium Hexaoxide Borate'
_chemical_formula_structural       'Al5 O6 (B O3)'
_chemical_formula_sum              'Al5 B1 O9'
_chemical_name_mineral             'Mullite, boron-containing'
_publ_section_title
;
Stability at high pressure, elastic behavior and pressure-induced 
structural evolution of "Al5 B O9", a mullite-type ceramic material
;
loop_
_citation_id
_citation_journal_abbrev
_citation_year
_citation_journal_volume
_citation_page_first
_citation_page_last
_citation_journal_id_ASTM
primary 'Physics and Chemistry of Minerals' 2010 37 227 236 PCMIDU
_publ_author_name
;
Gatta, G.D.;Rotiroti, N.;Fisch, M.;Armbruster, T.
;
_cell_length_a                     5.655(4)
_cell_length_b                     14.860(30)
_cell_length_c                     7.652(7)
_cell_angle_alpha                  90.
_cell_angle_beta                   90.
_cell_angle_gamma                  90.
_cell_volume                       643.02
_cell_formula_units_Z              4
_symmetry_space_group_name_H-M     'C m c 21'
_symmetry_Int_Tables_number        36
_refine_ls_R_factor_all            .1098
loop_
_symmetry_equiv_pos_site_id
_symmetry_equiv_pos_as_xyz
  1	'x, -y, z+.5'
  2	'-x, -y, z+.5'
  3	'-x, y, z'
  4	'x, y, z'
  5	'x+.5, -y+.5, z+.5'
  6	'-x+.5, -y+.5, z+.5'
  7	'-x+.5, y+.5, z'
  8	'x+.5, y+.5, z'
loop_
_atom_type_symbol
_atom_type_oxidation_number
Al3+	3
B3+	3
O2-	-2
loop_
_atom_site_label
_atom_site_type_symbol
_atom_site_symmetry_multiplicity
_atom_site_Wyckoff_symbol
_atom_site_fract_x
_atom_site_fract_y
_atom_site_fract_z
_atom_site_occupancy
_atom_site_attached_hydrogens
_atom_site_U_iso_or_equiv
Al1 Al3+ 8 b 0.2528(5) 0.1174(4) 0.3325(5) 1. 0 0.0090(5) 
Al2 Al3+ 4 a 0 0.2556(5) 0.5207(7) 1. 0 0.0090(5) 
Al3 Al3+ 4 a 0 0.4453(5) 0.5188(7) 1. 0 0.0090(5) 
Al4 Al3+ 4 a 0 0.2965(5) 0.1677(6) 1. 0 0.0090(5) 
B1 B3+ 4 a 0 0.0166(15) 0.0513(18) 1. 0 0.0090(5) 
O1 O2- 4 a 0 0.3265(10) 0.7008(14) 1. 0 0.0083(8) 
O2 O2- 8 b 0.2590(11) 0.1895(7) 0.5343(8) 1. 0 0.0083(8) 
O3 O2- 4 a 0 0.4554(9) 0.9033(15) 1. 0 0.0083(8) 
O4 O2- 4 a 0 0.0468(8) 0.4194(16) 1. 0 0.0083(8) 
O5 O2- 4 a 0 0.3516(11) 0.3692(11) 1. 0 0.0083(8) 
O6 O2- 4 a 0 0.1898(11) 0.2626(13) 1. 0 0.0083(8) 
O7 O2- 8 b 0.2112(9) 0.0472(7) 0.1216(8) 1. 0 0.0083(8) 

#End of data_167312-ICSD


