data_151871-ICSD
#?2014 by Fachinformationszentrum Karlsruhe, and the U.S. Secretary of 
#Commerce on behalf of the United States.  All rights reserved.
_database_code_ICSD                151871
_audit_creation_date               2006/10/01
_chemical_name_systematic          'Silver Pentaindium Telluride'
_chemical_formula_structural       'Ag In5 Te8'
_chemical_formula_sum              'Ag1 In5 Te8'
_publ_section_title
;
Synthesis and structural study of the Ag In5 Te8 compound by X-ray 
diffraction
;
loop_
_citation_id
_citation_journal_abbrev
_citation_year
_citation_journal_volume
_citation_journal_issue
_citation_page_first
_citation_page_last
_citation_journal_id_ASTM
primary 'Physica Status Solidi A - Applications and Materials'
 2004 201 7 1477 1483 PSSABA
_publ_author_name
;
Mora, A.J.;Delgado, G.E.;Pineda, C.;Tinoco, T.
;
_cell_length_a                     6.1952(2)
_cell_length_b                     6.1952(2)
_cell_length_c                     12.419(4)
_cell_angle_alpha                  90.
_cell_angle_beta                   90.
_cell_angle_gamma                  90.
_cell_volume                       476.65
_cell_formula_units_Z              1
_symmetry_space_group_name_H-M     'P -4 2 m'
_symmetry_Int_Tables_number        111
_refine_ls_R_factor_all            .068
loop_
_symmetry_equiv_pos_site_id
_symmetry_equiv_pos_as_xyz
  1	'-y, -x, z'
  2	'y, x, z'
  3	'y, -x, -z'
  4	'-y, x, -z'
  5	'x, -y, -z'
  6	'-x, y, -z'
  7	'-x, -y, z'
  8	'x, y, z'
loop_
_atom_type_symbol
_atom_type_oxidation_number
Ag1+	1
In3+	3
Te2-	-2
loop_
_atom_site_label
_atom_site_type_symbol
_atom_site_symmetry_multiplicity
_atom_site_Wyckoff_symbol
_atom_site_fract_x
_atom_site_fract_y
_atom_site_fract_z
_atom_site_occupancy
_atom_site_attached_hydrogens
_atom_site_B_iso_or_equiv
Ag1 Ag1+ 1 c 0 0 0.5 1. 0 0.5(5) 
In1 In3+ 4 m 0 0.5 0.2491(6) 1. 0 0.5(5) 
In2 In3+ 1 d 0.5 0.5 0 1. 0 0.5(5) 
Te1 Te2- 4 n 0.2291(8) 0.2291(8) 0.1131(6) 1. 0 0.5(5) 
Te2 Te2- 4 n 0.7150(8) 0.7150(8) 0.6171(6) 1. 0 0.5(5) 

#End of data_151871-ICSD


