data_25752-ICSD
#?2014 by Fachinformationszentrum Karlsruhe, and the U.S. Secretary of 
#Commerce on behalf of the United States.  All rights reserved.
_database_code_ICSD                25752
_audit_creation_date               1980/01/01
_chemical_name_systematic          'Hexalithium Disilicate'
_chemical_formula_structural       'Li6 (Si2 O7)'
_chemical_formula_sum              'Li6 O7 Si2'
_publ_section_title
;
Die Kristallstruktur der Verbindung Li6 (Si2 O7)
;
loop_
_citation_id
_citation_journal_abbrev
_citation_year
_citation_journal_volume
_citation_page_first
_citation_page_last
_citation_journal_id_ASTM
primary 'Monatshefte fuer Chemie' 1969 100 295 303 MOCHAP
_publ_author_name
;
Voellenkle, H.;Wittmann, A.;Nowotny, H.N.
;
_cell_length_a                     7.715
_cell_length_b                     7.715
_cell_length_c                     4.88
_cell_angle_alpha                  90.
_cell_angle_beta                   90.
_cell_angle_gamma                  90.
_cell_volume                       290.46
_cell_formula_units_Z              2
_symmetry_space_group_name_H-M     'P -4 21 m'
_symmetry_Int_Tables_number        113
_refine_ls_R_factor_all            .116
loop_
_symmetry_equiv_pos_site_id
_symmetry_equiv_pos_as_xyz
  1	'-y+.5, -x+.5, z'
  2	'y, -x, -z'
  3	'y+.5, x+.5, z'
  4	'-y, x, -z'
  5	'x+.5, -y+.5, -z'
  6	'-x, -y, z'
  7	'-x+.5, y+.5, -z'
  8	'x, y, z'
loop_
_atom_type_symbol
_atom_type_oxidation_number
Li1+	1
O2-	-2
Si4+	4
loop_
_atom_site_label
_atom_site_type_symbol
_atom_site_symmetry_multiplicity
_atom_site_Wyckoff_symbol
_atom_site_fract_x
_atom_site_fract_y
_atom_site_fract_z
_atom_site_occupancy
_atom_site_attached_hydrogens
_atom_site_B_iso_or_equiv
Si1 Si4+ 4 e 0.3563(7) 0.8563(7) 0.8242(7) 1. 0 0.33 
O1 O2- 2 c 0 0.5 0.3043(31) 1. 0 0.88 
O2 O2- 4 e 0.3675(20) 0.8675(20) 0.1549(19) 1. 0 0.81 
O3 O2- 8 f 0.0969(10) 0.1644(12) 0.2915(16) 1. 0 1.36 
Li1 Li1+ 4 e 0.1078(46) 0.6078(46) 0.6862(53) 1. 0 0.96 
Li2 Li1+ 8 f 0.0760(28) 0.1390(31) 0.7004(45) 1. 0 1.62 

#End of data_25752-ICSD


