data_189838-ICSD
#?2014 by Fachinformationszentrum Karlsruhe, and the U.S. Secretary of 
#Commerce on behalf of the United States.  All rights reserved.
_database_code_ICSD                189838
_audit_creation_date               2014/02/01
_chemical_name_systematic
;
Sodium Ytterbium Tetrakis(tetrahydridoborate)
;
_chemical_formula_structural       'Na Yb (B H4)4'
_chemical_formula_sum              'H16 B4 Na1 Yb1'
_publ_section_title
;
M Yb (B H4)4 (M = K, Na) from laboratory X-ray powder data
;
loop_
_citation_id
_citation_journal_abbrev
_citation_year
_citation_journal_volume
_citation_journal_issue
_citation_page_first
_citation_page_last
_citation_journal_id_ASTM
primary 'Acta Crystallographica, Section C: Crystal Structure Communications'
 2013 69 11 1289 1291 ACSCEE
_publ_author_name
;
Wegner, Wojciech;Jaron, Tomasz;Grochala, Wojciech
;
_cell_length_a                     8.438(4)
_cell_length_b                     12.057(6)
_cell_length_c                     9.057(4)
_cell_angle_alpha                  90
_cell_angle_beta                   90
_cell_angle_gamma                  90
_cell_volume                       921.43
_cell_formula_units_Z              4
_symmetry_space_group_name_H-M     'C m c m'
_symmetry_Int_Tables_number        63
_refine_ls_R_factor_all            .0156
loop_
_symmetry_equiv_pos_site_id
_symmetry_equiv_pos_as_xyz
  1	'-x, y, -z+.5'
  2	'-x, -y, z+.5'
  3	'-x, y, z'
  4	'-x, -y, -z'
  5	'x, -y, z+.5'
  6	'x, y, -z+.5'
  7	'x, -y, -z'
  8	'x, y, z'
  9	'-x+.5, y+.5, -z+.5'
 10	'-x+.5, -y+.5, z+.5'
 11	'-x+.5, y+.5, z'
 12	'-x+.5, -y+.5, -z'
 13	'x+.5, -y+.5, z+.5'
 14	'x+.5, y+.5, -z+.5'
 15	'x+.5, -y+.5, -z'
 16	'x+.5, y+.5, z'
loop_
_atom_type_symbol
_atom_type_oxidation_number
B3+	3
H1-	-1
Na1+	1
Yb3+	3
loop_
_atom_site_label
_atom_site_type_symbol
_atom_site_symmetry_multiplicity
_atom_site_Wyckoff_symbol
_atom_site_fract_x
_atom_site_fract_y
_atom_site_fract_z
_atom_site_occupancy
_atom_site_attached_hydrogens
_atom_site_U_iso_or_equiv
Na1 Na1+ 4 a 0 0 0.5 1 0 0.116(12) 
Yb1 Yb3+ 4 c 0.5 0.1430(3) 0.75 1 0 0.042(2) 
B1 B3+ 8 f 0.5 0.263(2) 0.963(3) 1 0 0.049(12) 
H1 H1- 8 f 0.5 0.320(5) 0.064(6) 1 0 0.058(15) 
H2 H1- 8 f 0.5 0.172(3) 1.002(7) 1 0 0.058(15) 
H3 H1- 16 h 0.6113(2) 0.280(4) 0.893(4) 1 0 0.058(15) 
B2 B3+ 8 g 0.739(3) 0.041(2) 0.75 1 0 0.049(12) 
H4 H1- 8 g 0.866(5) 0.006(8) 0.75 1 0 0.058(15) 
H5 H1- 8 g 0.744(12) 0.136(2) 0.75 1 0 0.058(15) 
H6 H1- 16 h 0.673(5) 0.011(4) 0.85368(19) 1 0 0.058(15) 

#End of data_189838-ICSD


