data_151683-ICSD
#?2014 by Fachinformationszentrum Karlsruhe, and the U.S. Secretary of 
#Commerce on behalf of the United States.  All rights reserved.
_database_code_ICSD                151683
_audit_creation_date               2006/10/01
_chemical_name_systematic
;
Calcium Tetrazirconium Hexakis(phosphate(V))
;
_chemical_formula_structural       'Ca Zr4 (P O4)6'
_chemical_formula_sum              'Ca1 O24 P6 Zr4'
_publ_section_title
;
Crystal structure of Ca1-x Srx (P O4)6 (0 <= x <= 1)
;
loop_
_citation_id
_citation_journal_abbrev
_citation_year
_citation_journal_volume
_citation_journal_issue
_citation_page_first
_citation_page_last
_citation_journal_id_ASTM
primary 'Powder Diffraction' 2004 19 2 153 156 PODIE2
_publ_author_name
;
Fischer, W.;Singheiser, L.;Basu, D.;Dasgupta, A.
;
_cell_length_a                     8.7761(1)
_cell_length_b                     8.7761(1)
_cell_length_c                     22.655(1)
_cell_angle_alpha                  90.
_cell_angle_beta                   90.
_cell_angle_gamma                  120.
_cell_volume                       1511.12
_cell_formula_units_Z              3
_symmetry_space_group_name_H-M     'R -3 H'
_symmetry_Int_Tables_number        148
_refine_ls_R_factor_all            .175
loop_
_symmetry_equiv_pos_site_id
_symmetry_equiv_pos_as_xyz
  1	'x-y, x, -z'
  2	'y, -x+y, -z'
  3	'-x, -y, -z'
  4	'-x+y, -x, z'
  5	'-y, x-y, z'
  6	'x, y, z'
  7	'x-y+.6666, x+.3333, -z+.3333'
  8	'x-y+.3333, x+.6666, -z+.6666'
  9	'y+.6666, -x+y+.3333, -z+.3333'
 10	'y+.3333, -x+y+.6666, -z+.6666'
 11	'-x+.6666, -y+.3333, -z+.3333'
 12	'-x+.3333, -y+.6666, -z+.6666'
 13	'-x+y+.6666, -x+.3333, z+.3333'
 14	'-x+y+.3333, -x+.6666, z+.6666'
 15	'-y+.6666, x-y+.3333, z+.3333'
 16	'-y+.3333, x-y+.6666, z+.6666'
 17	'x+.6666, y+.3333, z+.3333'
 18	'x+.3333, y+.6666, z+.6666'
loop_
_atom_type_symbol
_atom_type_oxidation_number
Ca2+	2
O2-	-2
P5+	5
Zr4+	4
loop_
_atom_site_label
_atom_site_type_symbol
_atom_site_symmetry_multiplicity
_atom_site_Wyckoff_symbol
_atom_site_fract_x
_atom_site_fract_y
_atom_site_fract_z
_atom_site_occupancy
_atom_site_attached_hydrogens
_atom_site_B_iso_or_equiv
Ca1 Ca2+ 3 b 0 0 0.5 1. 0 2.5(1) 
Zr1 Zr4+ 6 c 0 0 0.1407(1) 1. 0 2.1(1) 
Zr2 Zr4+ 6 c 0 0 0.6488(1) 1. 0 1.9(1) 
P1 P5+ 18 f 0.2836(6) 0.990(1) 0.2477(4) 1. 0 1.9(1) 
O1 O2- 18 f 0.164(2) 0.953(2) 0.1933(5) 1. 0 2.3(1) 
O2 O2- 18 f 0.001(2) 0.801(2) 0.6958(6) 1. 0 2.3(1) 
O3 O2- 18 f 0.200(2) 0.163(1) 0.0877(5) 1. 0 2.3(1) 
O4 O2- 18 f 0.822(1) 0.810(1) 0.5837(5) 1. 0 2.3(1) 

#End of data_151683-ICSD


