data_422441-ICSD
#?2014 by Fachinformationszentrum Karlsruhe, and the U.S. Secretary of 
#Commerce on behalf of the United States.  All rights reserved.
_database_code_ICSD                422441
_audit_creation_date               2012/08/01
_chemical_name_systematic
;
Magnesium Tetrakis(ammonium) Bis Cyclo-triphosphate Tetrahydrate
;
_chemical_formula_structural       'Mg (N H4)4 (P3 O9)2 (H2 O)4'
_chemical_formula_sum              'H24 Mg1 N4 O22 P6'
_publ_section_title
;
Crystal structure and infrared spectrum of new magnesium tetra-
ammonium cyclotriphosphate tetrahydrate Mg (N H4)4 (P3 O9)2 ¨² 4 H2 O
;
loop_
_citation_id
_citation_journal_abbrev
_citation_year
_citation_journal_volume
_citation_journal_issue
_citation_page_first
_citation_page_last
_citation_journal_id_ASTM
primary 'Zeitschrift fuer Kristallographie - Crystalline Materials'
 2012 227 3 141 146 ZKCMAJ
_publ_author_name
;
Ezzaafrani, M.;Ennaciri, A.;Harcharras, M.;Khaoulaf, R.;Capitelli, F.
;
_cell_length_a                     8.6120(5)
_cell_length_b                     14.6390(10)
_cell_length_c                     8.8610(17)
_cell_angle_alpha                  90.00
_cell_angle_beta                   95.330(8)
_cell_angle_gamma                  90.00
_cell_volume                       1112.29
_cell_formula_units_Z              2
_symmetry_space_group_name_H-M     'P 1 21/c 1'
_symmetry_Int_Tables_number        14
_refine_ls_R_factor_all            .0277
loop_
_symmetry_equiv_pos_site_id
_symmetry_equiv_pos_as_xyz
  1	'x, -y+.5, z+.5'
  2	'-x, -y, -z'
  3	'-x, y+.5, -z+.5'
  4	'x, y, z'
loop_
_atom_type_symbol
_atom_type_oxidation_number
H1+	1
Mg2+	2
N3-	-3
O2-	-2
P5+	5
loop_
_atom_site_label
_atom_site_type_symbol
_atom_site_symmetry_multiplicity
_atom_site_Wyckoff_symbol
_atom_site_fract_x
_atom_site_fract_y
_atom_site_fract_z
_atom_site_occupancy
_atom_site_attached_hydrogens
_atom_site_U_iso_or_equiv
Mg1 Mg2+ 2 a 0.0000 0.0000 0.0000 1 0 0.01603(18) 
P1 P5+ 4 e 0.15069(5) 0.33510(3) 0.30416(5) 1 0 0.01562(12) 
P2 P5+ 4 e 0.47870(5) 0.33710(3) 0.25671(5) 1 0 0.01815(12) 
P3 P5+ 4 e 0.26044(5) 0.45041(3) 0.06875(5) 1 0 0.02143(13) 
O1 O2- 4 e 0.32053(13) 0.28947(8) 0.30109(14) 1 0 0.0192(3) 
O2 O2- 4 e 0.13454(14) 0.38830(9) 0.14440(14) 1 0 0.0223(3) 
O3 O2- 4 e 0.03291(15) 0.26167(9) 0.29362(16) 1 0 0.0257(3) 
O4 O2- 4 e 0.15744(14) 0.40196(8) 0.43091(14) 1 0 0.0207(3) 
O5 O2- 4 e 0.41733(15) 0.39249(10) 0.10695(16) 1 0 0.0284(3) 
O6 O2- 4 e 0.58311(15) 0.26418(9) 0.21078(18) 1 0 0.0300(3) 
O7 O2- 4 e 0.53768(16) 0.40164(10) 0.37703(16) 1 0 0.0325(3) 
O8 O2- 4 e 0.72643(17) 0.04004(9) 0.35397(17) 1 0 0.0327(3) 
O9 O2- 4 e 0.22438(18) 0.05290(11) 0.40315(16) 1 0 0.0379(4) 
O10 O2- 4 e 0.83937(16) 0.44902(10) 0.33826(17) 1 0 0.0240(3) 
O11 O2- 4 e 0.92484(17) 0.09466(10) 0.15123(16) 1 0 0.0258(3) 
N1 N3- 4 e 0.4249(2) 0.09787(13) 0.1736(2) 1 0 0.0277(4) 
N2 N3- 4 e 0.8121(2) 0.21152(15) 0.4998(2) 1 0 0.0351(4) 
H1 H1+ 4 e 0.757(4) 0.430(2) 0.363(4) 1 0 0.055(9) 
H2 H1+ 4 e 0.829(3) 0.4744(17) 0.261(3) 1 0 0.032(7) 
H3 H1+ 4 e 0.986(3) 0.130(2) 0.195(3) 1 0 0.045(8) 
H4 H1+ 4 e 0.861(4) 0.071(2) 0.211(4) 1 0 0.063(9) 
H5 H1+ 4 e 0.485(3) 0.145(2) 0.175(3) 1 0 0.040(7) 
H6 H1+ 4 e 0.357(4) 0.104(2) 0.093(5) 1 0 0.080(11) 
H7 H1+ 4 e 0.364(3) 0.0922(18) 0.251(4) 1 0 0.049(8) 
H8 H1+ 4 e 0.486(4) 0.051(3) 0.176(4) 1 0 0.072(10) 
H9 H1+ 4 e 0.734(6) 0.231(3) 0.535(5) 1 0 0.104(15) 
H10 H1+ 4 e 0.871(4) 0.238(3) 0.440(5) 1 0 0.081(11) 
H11 H1+ 4 e 0.789(4) 0.155(3) 0.460(4) 1 0 0.068(10) 
H12 H1+ 4 e 0.893(5) 0.207(3) 0.593(6) 1 0 0.106(14) 

loop_
_atom_site_aniso_label
_atom_site_aniso_type_symbol
_atom_site_aniso_U_11
_atom_site_aniso_U_22
_atom_site_aniso_U_33
_atom_site_aniso_U_12
_atom_site_aniso_U_13
_atom_site_aniso_U_23
Mg1 Mg2+ 0.0148(4) 0.0180(4) 0.0153(4) -0.0012(3) 0.0016(3) -0.0002(3)
P1 P5+ 0.0130(2) 0.0165(2) 0.0179(2) -0.00107(14) 0.00430(16) -0.00044(15)
P2 P5+ 0.0145(2) 0.0174(2) 0.0233(2) -0.00092(15) 0.00580(17) -0.00012(16)
P3 P5+ 0.0235(2) 0.0243(2) 0.0174(2) 0.00298(17) 0.00678(18) 0.00470(17)
O1 O2- 0.0147(5) 0.0173(6) 0.0267(7) 0.0008(4) 0.0072(5) 0.0028(5)
O2 O2- 0.0184(6) 0.0292(7) 0.0192(6) -0.0002(5) 0.0021(5) 0.0042(5)
O3 O2- 0.0202(6) 0.0235(7) 0.0341(8) -0.0069(5) 0.0066(5) -0.0022(6)
O4 O2- 0.0191(6) 0.0232(6) 0.0201(6) 0.0041(5) 0.0026(5) -0.0039(5)
O5 O2- 0.0228(6) 0.0343(7) 0.0299(7) 0.0044(5) 0.0114(5) 0.0121(6)
O6 O2- 0.0212(6) 0.0234(7) 0.0476(9) 0.0029(5) 0.0155(6) -0.0006(6)
O7 O2- 0.0305(7) 0.0374(8) 0.0302(8) -0.0130(6) 0.0064(6) -0.0084(6)
O8 O2- 0.0385(8) 0.0239(7) 0.0380(8) 0.0005(6) 0.0160(7) -0.0002(6)
O9 O2- 0.0458(9) 0.0499(10) 0.0189(7) -0.0071(7) 0.0066(6) -0.0088(7)
O10 O2- 0.0205(7) 0.0293(7) 0.0213(7) -0.0012(5) -0.0030(5) 0.0017(6)
O11 O2- 0.0295(7) 0.0241(7) 0.0251(7) -0.0062(6) 0.0099(6) -0.0069(6)
N1 N3- 0.0333(9) 0.0232(9) 0.0271(9) -0.0027(7) 0.0054(8) 0.0014(7)
N2 N3- 0.0347(10) 0.0364(11) 0.0364(11) -0.0026(8) 0.0151(9) -0.0050(8)
#End of data_422441-ICSD


