data_160357-ICSD
#?2014 by Fachinformationszentrum Karlsruhe, and the U.S. Secretary of 
#Commerce on behalf of the United States.  All rights reserved.
_database_code_ICSD                160357
_audit_creation_date               2008/08/01
_chemical_name_systematic          'Dicalcium Magnesium Disilicate'
_chemical_formula_structural       'Ca2 Mg (Si2 O7)'
_chemical_formula_sum              'Ca2 Mg1 O7 Si2'
_chemical_name_mineral             Akermanite
_publ_section_title
;
High-temperature behaviour of melilite: in situ X-ray diffraction 
study of gehlenite - akermanite - Na melilite solid solution
;
loop_
_citation_id
_citation_journal_abbrev
_citation_year
_citation_journal_volume
_citation_page_first
_citation_page_last
_citation_journal_id_ASTM
primary 'Physics and Chemistry of Minerals' 2008 35 147 155 PCMIDU
_publ_author_name
;
Merlini, M.;Gemmi, M.;Cruciani, G.;Artioli, G.
;
_cell_length_a                     7.878
_cell_length_b                     7.878
_cell_length_c                     5.032
_cell_angle_alpha                  90.
_cell_angle_beta                   90.
_cell_angle_gamma                  90.
_cell_volume                       312.3
_cell_formula_units_Z              2
_symmetry_space_group_name_H-M     'P -4 21 m'
_symmetry_Int_Tables_number        113
_refine_ls_R_factor_all            .04
loop_
_symmetry_equiv_pos_site_id
_symmetry_equiv_pos_as_xyz
  1	'-y+.5, -x+.5, z'
  2	'y, -x, -z'
  3	'y+.5, x+.5, z'
  4	'-y, x, -z'
  5	'x+.5, -y+.5, -z'
  6	'-x, -y, z'
  7	'-x+.5, y+.5, -z'
  8	'x, y, z'
loop_
_atom_type_symbol
_atom_type_oxidation_number
Ca2+	2
Mg2+	2
O2-	-2
Si4+	4
loop_
_atom_site_label
_atom_site_type_symbol
_atom_site_symmetry_multiplicity
_atom_site_Wyckoff_symbol
_atom_site_fract_x
_atom_site_fract_y
_atom_site_fract_z
_atom_site_occupancy
_atom_site_attached_hydrogens
Ca1 Ca2+ 4 e 0.3318 0.1682 0.5055 1. 0 
Mg1 Mg2+ 2 a 0 0 0 1. 0 
Si1 Si4+ 4 e 0.1397 0.3603 0.9345 1. 0 
O1 O2- 2 c 0.5 0 0.18 1. 0 
O2 O2- 4 e 0.1412 0.3588 0.2515 1. 0 
O3 O2- 8 f 0.0817 0.1876 0.7871 1. 0 

loop_
_atom_site_aniso_label
_atom_site_aniso_type_symbol
_atom_site_aniso_U_11
_atom_site_aniso_U_22
_atom_site_aniso_U_33
_atom_site_aniso_U_12
_atom_site_aniso_U_13
_atom_site_aniso_U_23
Ca1 Ca2+ 0.0321 0.0321 0.0259 0.0093 0.0051 -0.0051
Mg1 Mg2+ 0.0167 0.0167 0.0235 0. 0. 0.
Si1 Si4+ 0.0158 0.0158 0.0159 0.0019 -0.0003 0.0003
O1 O2- 0.0362 0.0362 0.0181 -0.0236 0. 0.
O2 O2- 0.0435 0.0435 0.0197 0.0114 -0.0026 0.0026
O3 O2- 0.0465 0.0189 0.0285 -0.0093 0.0074 -0.0018
#End of data_160357-ICSD


