data_34361-ICSD
#?2014 by Fachinformationszentrum Karlsruhe, and the U.S. Secretary of 
#Commerce on behalf of the United States.  All rights reserved.
_database_code_ICSD                34361
_audit_creation_date               1980/01/01
_audit_update_record               2012/08/01
_chemical_name_systematic          'Tetralithium Nonagermanium Oxide'
_chemical_formula_structural       'Li4 Ge9 O20'
_chemical_formula_sum              'Ge9 Li4 O20'
_publ_section_title
;
Die Kristallstruktur des Lithium-enneagermanats Li4 (Ge9 O20)
;
loop_
_citation_id
_citation_journal_abbrev
_citation_year
_citation_journal_volume
_citation_page_first
_citation_page_last
_citation_journal_id_ASTM
primary 'Monatshefte fuer Chemie' 1971 102 361 372 MOCHAP
_publ_author_name
;
Voellenkle, H.;Wittmann, A.;Nowotny, H.N.
;
_cell_length_a                     12.43
_cell_length_b                     8.
_cell_length_c                     7.49
_cell_angle_alpha                  90.
_cell_angle_beta                   91.
_cell_angle_gamma                  90.
_cell_volume                       744.69
_cell_formula_units_Z              2
_symmetry_space_group_name_H-M     'C 1 2 1'
_symmetry_Int_Tables_number        5
_refine_ls_R_factor_all            .083
loop_
_symmetry_equiv_pos_site_id
_symmetry_equiv_pos_as_xyz
  1	'-x, y, -z'
  2	'x, y, z'
  3	'-x+.5, y+.5, -z'
  4	'x+.5, y+.5, z'
loop_
_atom_type_symbol
_atom_type_oxidation_number
Ge4+	4
Li1+	1
O2-	-2
loop_
_atom_site_label
_atom_site_type_symbol
_atom_site_symmetry_multiplicity
_atom_site_Wyckoff_symbol
_atom_site_fract_x
_atom_site_fract_y
_atom_site_fract_z
_atom_site_occupancy
_atom_site_attached_hydrogens
_atom_site_B_iso_or_equiv
Ge1 Ge4+ 2 b 0 0.2340(11) 0.5 1. 0 0.84 
Ge2 Ge4+ 4 c 0.0946(3) 0.5886(10) 0.3284(5) 1. 0 0.85 
Ge3 Ge4+ 4 c 0.0990(3) -.0159(10) 0.2393(5) 1. 0 0.67 
Ge4 Ge4+ 4 c 0.2650(3) 0.6566(9) 0.0506(5) 1. 0 0.75 
Ge5 Ge4+ 4 c 0.3477(3) 0 0.2938(5) 1. 0 0.64 
Li1 Li1+ 2 a 0 0.301(29) 0 1. 0 4.51 
Li2 Li1+ 2 a 0.5 0.176(24) 0 1. 0 3.23 
Li3 Li1+ 4 c 0.2885(76) 0.371(15) 0.377(12) 1. 0 2.64 
O1 O2- 4 c 0.0689(22) 0.7743(45) 0.2031(36) 1. 0 0.99 
O2 O2- 4 c 0.1149(21) 0.0787(46) 0.0269(34) 1. 0 0.93 
O3 O2- 4 c 0.1177(21) 0.3550(41) 0.5036(36) 1. 0 0.9 
O4 O2- 4 c 0.2067(17) 0.0041(43) 0.3857(27) 1. 0 0.12 
O5 O2- 4 c 0.2152(18) 0.5334(37) 0.2251(30) 1. 0 0.14 
O6 O2- 4 c 0.3120(23) 0.8472(45) 0.1210(35) 1. 0 0.92 
O7 O2- 4 c 0.3271(22) 0.1780(47) 0.1361(37) 1. 0 1.13 
O8 O2- 4 c 0.3905(19) 0.1664(44) 0.4522(30) 1. 0 0.39 
O9 O2- 4 c 0.4884(23) 0.5878(48) 0.3154(36) 1. 0 1.2 
O10 O2- 4 c 0.4927(17) -.0287(41) 0.2163(27) 1. 0 0.1 

#End of data_34361-ICSD


