data_84289-ICSD
#?2014 by Fachinformationszentrum Karlsruhe, and the U.S. Secretary of 
#Commerce on behalf of the United States.  All rights reserved.
_database_code_ICSD                84289
_audit_creation_date               1999/01/19
_chemical_name_systematic          'Potassium Terbium Pentafluoride'
_chemical_formula_structural       'K (Tb F5)'
_chemical_formula_sum              'F5 K1 Tb1'
_publ_section_title
;
Crystal structure of K Tb F5 and early crystal-chemical data from 
single-crystal works for eight-coordinated Tb(4+) ion
;
loop_
_citation_id
_citation_journal_abbrev
_citation_year
_citation_journal_volume
_citation_page_first
_citation_page_last
_citation_journal_id_ASTM
primary 'European Journal of Solid State Inorganic Chemistry'
 1997 34 1075 1084 EJSCE5
_publ_author_name
;
Gaumet, V.;Largeau, E.;Avignant, D.
;
_cell_length_a                     7.446(1)
_cell_length_b                     8.567(1)
_cell_length_c                     10.834(3)
_cell_angle_alpha                  76.02(2)
_cell_angle_beta                   72.51(2)
_cell_angle_gamma                  67.03(1)
_cell_volume                       600.77
_cell_formula_units_Z              6
_symmetry_space_group_name_H-M     'P -1'
_symmetry_Int_Tables_number        2
_refine_ls_R_factor_all            .035
loop_
_symmetry_equiv_pos_site_id
_symmetry_equiv_pos_as_xyz
  1	'-x, -y, -z'
  2	'x, y, z'
loop_
_atom_type_symbol
_atom_type_oxidation_number
F1-	-1
K1+	1
Tb4+	4
loop_
_atom_site_label
_atom_site_type_symbol
_atom_site_symmetry_multiplicity
_atom_site_Wyckoff_symbol
_atom_site_fract_x
_atom_site_fract_y
_atom_site_fract_z
_atom_site_occupancy
_atom_site_attached_hydrogens
Tb1 Tb4+ 2 i 0.74181(5) 0.33378(5) 0.43103(3) 1. 0 
Tb2 Tb4+ 2 i 0.71827(5) 0.02622(5) 0.74515(4) 1. 0 
Tb3 Tb4+ 2 i 0.76578(5) 0.65968(5) 0.08129(4) 1. 0 
K1 K1+ 2 i 0.2858(3) 0.4925(2) 0.2316(2) 1. 0 
K2 K1+ 2 i 0.7460(3) 0.1565(3) 0.0705(2) 1. 0 
K3 K1+ 2 i 0.7762(4) 0.8150(4) 0.4236(3) 1. 0 
F1 F1- 2 i 0.5931(7) 0.5549(7) 0.5403(5) 1. 0 
F2 F1- 2 i 0.3746(8) 0.8701(7) 0.4448(5) 1. 0 
F3 F1- 2 i 0.0089(8) 0.1107(7) 0.3880(5) 1. 0 
F4 F1- 2 i 0.1750(8) 0.7588(7) 0.3767(5) 1. 0 
F5 F1- 2 i 0.3860(8) 0.1127(7) 0.8034(6) 1. 0 
F6 F1- 2 i 0.5778(8) 0.2388(7) 0.8610(5) 1. 0 
F7 F1- 2 i 0.6644(8) 0.5051(7) 0.0272(6) 1. 0 
F8 F1- 2 i 0.9384(9) 0.0030(8) 0.8304(6) 1. 0 
F9 F1- 2 i 0.3147(9) 0.4434(7) 0.7197(5) 1. 0 
F10 F1- 2 i 0.9692(8) 0.4234(7) 0.4022(6) 1. 0 
F11 F1- 2 i 0.332(1) 0.1307(9) 0.0630(7) 1. 0 
F12 F1- 2 i 0.3134(9) 0.7522(9) 0.7067(6) 1. 0 
F13 F1- 2 i 0.9819(8) 0.7230(8) 0.1133(7) 1. 0 
F14 F1- 2 i 0.0084(8) 0.4033(7) 0.1033(5) 1. 0 
F15 F1- 2 i 0.3453(9) 0.1684(8) 0.2877(8) 1. 0 

loop_
_atom_site_aniso_label
_atom_site_aniso_type_symbol
_atom_site_aniso_U_11
_atom_site_aniso_U_22
_atom_site_aniso_U_33
_atom_site_aniso_U_12
_atom_site_aniso_U_13
_atom_site_aniso_U_23
Tb1 Tb4+ 0.00612(9) 0.0071(1) 0.0068(1) -.00114(8) -.00105(8) -.00170(9)
Tb2 Tb4+ 0.0065(1) 0.0062(1) 0.0081(1) -.00092(8) -.00083(9) -.00148(9)
Tb3 Tb4+ 0.00638(9) 0.0065(1) 0.0071(1) -.00178(8) -.00095(8) -.00105(5)
K1 K1+ 0.0241(7) 0.0172(6) 0.0171(7) -.0109(5) -.0048(5) -.0012(6)
K2 K1+ 0.0210(7) 0.0232(7) 0.0190(7) -.0082(6) -.0078(5) -.0039(6)
K3 K1+ 0.0199(8) 0.050(1) 0.052(1) -.0097(9) -.0123(8) -.013(1)
F1 F1- 0.009(2) 0.019(2) 0.013(2) -.006(1) 0.002(1) -.008(1)
F2 F1- 0.018(2) 0.017(2) 0.015(2) -.012(1) -.005(1) 0.002(2)
F3 F1- 0.013(2) 0.015(2) 0.018(2) 0.003(2) -.007(1) -.004(2)
F4 F1- 0.017(2) 0.017(2) 0.015(2) -.008(1) -.004(1) -.003(2)
F5 F1- 0.011(2) 0.012(2) 0.026(2) -.005(1) -.002(2) -.006(2)
F6 F1- 0.015(2) 0.012(2) 0.018(2) -.002(1) -.003(2) -.007(1)
F7 F1- 0.015(2) 0.021(2) 0.031(2) -.004(2) -.007(2) -.015(2)
F8 F1- 0.024(2) 0.027(3) 0.035(2) 0.003(2) -.016(2) -.017(2)
F9 F1- 0.029(2) 0.016(2) 0.008(2) -.008(2) -.001(2) 0.003(2)
F10 F1- 0.013(2) 0.018(2) 0.025(2) -.009(1) -.001(2) -.005(2)
F11 F1- 0.028(3) 0.022(3) 0.019(3) 0.005(3) 0.001(2) 0.010(2)
F12 F1- 0.021(2) 0.037(3) 0.017(2) -.007(2) -.004(2) -.015(2)
F13 F1- 0.014(2) 0.028(2) 0.035(3) -.009(2) -.005(2) -.013(2)
F14 F1- 0.016(2) 0.013(2) 0.013(2) -.001(2) 0.002(2) -.001(2)
F15 F1- 0.019(2) 0.015(2) 0.050(4) -.010(2) -.003(2) -.004(2)
#End of data_84289-ICSD


