data_280058-ICSD
#?2014 by Fachinformationszentrum Karlsruhe, and the U.S. Secretary of 
#Commerce on behalf of the United States.  All rights reserved.
_database_code_ICSD                280058
_audit_creation_date               2000/07/15
_chemical_name_systematic
;
Calcium Dibarium Bis(hydrogenphosphate(V)) 
Bis(dihydrogenphosphate(V))
;
_chemical_formula_structural       'Ca Ba2 (H P O4)2 (H2 P O4)2'
_chemical_formula_sum              'H6 Ba2 Ca1 O16 P4'
_publ_section_title                'Refinement of CaBa2(HPO4)2(H2PO4)2'
loop_
_citation_id
_citation_journal_abbrev
_citation_year
_citation_journal_volume
_citation_page_first
_citation_page_last
_citation_journal_id_ASTM
primary 'Acta Crystallographica, Section C: Crystal Structure Communications'
 1999 55 1757 1759 ACSCEE
_publ_author_name                  'Ben Tahar, L.;Smiri, L.;Driss, A.'
_cell_length_a                     5.4902(7)
_cell_length_b                     10.2004(12)
_cell_length_c                     12.373(3)
_cell_angle_alpha                  90.
_cell_angle_beta                   100.783(14)
_cell_angle_gamma                  90.
_cell_volume                       680.68
_cell_formula_units_Z              2
_symmetry_space_group_name_H-M     'P 1 21/c 1'
_symmetry_Int_Tables_number        14
_refine_ls_R_factor_all            .032
loop_
_symmetry_equiv_pos_site_id
_symmetry_equiv_pos_as_xyz
  1	'x, -y+.5, z+.5'
  2	'-x, -y, -z'
  3	'-x, y+.5, -z+.5'
  4	'x, y, z'
loop_
_atom_type_symbol
_atom_type_oxidation_number
Ba2+	2
Ca2+	2
H1+	1
O2-	-2
P5+	5
loop_
_atom_site_label
_atom_site_type_symbol
_atom_site_symmetry_multiplicity
_atom_site_Wyckoff_symbol
_atom_site_fract_x
_atom_site_fract_y
_atom_site_fract_z
_atom_site_occupancy
_atom_site_attached_hydrogens
_atom_site_U_iso_or_equiv
Ba1 Ba2+ 4 e 0.14118(4) 0.15542(2) 0.32337(2) 1. 0 0 
Ca1 Ca2+ 2 a 0 0 0 1. 0 0 
P1 P5+ 4 e 0.7668(2) 0.19373(9) 0.55428(7) 1. 0 0 
O1 O2- 4 e 0.7600(5) 0.0454(3) 0.5184(2) 1. 0 0 
O2 O2- 4 e 0.4863(5) 0.2375(3) 0.5199(2) 1. 0 0 
O3 O2- 4 e 0.9294(5) 0.2714(3) 0.4917(2) 1. 0 0 
O4 O2- 4 e 0.8412(5) 0.1949(3) 0.6778(2) 1. 0 0 
P2 P5+ 4 e -.4137(2) -.00876(9) 0.20134(7) 1. 0 0 
O5 O2- 4 e -.1836(5) -.0106(3) 0.1509(2) 1. 0 0 
O6 O2- 4 e -.6388(5) 0.0551(3) 0.1288(2) 1. 0 0 
O7 O2- 4 e -.3685(5) 0.0587(3) 0.3133(2) 1. 0 0 
O8 O2- 4 e -.4747(5) -.1586(3) 0.2178(2) 1. 0 0 
H1 H1+ 4 e 0.455(9) 0.295(4) 0.553(4) 1. 0 0.02(1) 
H2 H1+ 4 e 0.715(9) 0.031(5) 0.446(3) 1. 0 0.04(2) 
H3 H1+ 4 e -.586(9) -.173(5) 0.259(5) 1. 0 0.05(2) 

loop_
_atom_site_aniso_label
_atom_site_aniso_type_symbol
_atom_site_aniso_U_11
_atom_site_aniso_U_22
_atom_site_aniso_U_33
_atom_site_aniso_U_12
_atom_site_aniso_U_13
_atom_site_aniso_U_23
Ba1 Ba2+ 0.0102(1) 0.0175(1) 0.0110(1) 0.00121(10) 0.00104(8) 0.00159(9)
Ca1 Ca2+ 0.0096(5) 0.0100(5) 0.0074(4) -.0005(4) 0.0017(4) -.0009(4)
P1 P5+ 0.0095(4) 0.0107(4) 0.0089(4) 0.0001(3) 0.0006(3) -.0001(3)
O1 O2- 0.014(1) 0.018(2) 0.013(1) 0.004(1) -.001(1) -.005(1)
O2 O2- 0.016(1) 0.023(1) 0.011(1) -.002(1) 0.000(1) 0.000(1)
O3 O2- 0.018(1) 0.011(1) 0.013(1) -.001(1) 0.001(1) -.001(1)
O4 O2- 0.014(1) 0.011(1) 0.018(1) -.003(1) 0.007(1) 0.000(1)
P2 P5+ 0.00986(4) 0.0091(4) 0.0076(4) 0.0005(3) 0.0020(3) 0.0001(3)
O5 O2- 0.010(1) 0.015(1) 0.016(1) 0.000(1) -.005(1) 0.000(1)
O6 O2- 0.021(1) 0.010(1) 0.022(1) -.002(1) 0.008(1) 0.000(1)
O7 O2- 0.020(1) 0.015(1) 0.010(1) 0.000(1) 0.002(1) -.003(1)
O8 O2- 0.013(1) 0.013(2) 0.018(1) 0.003(1) 0.007(1) 0.003(1)
#End of data_280058-ICSD


