data_166896-ICSD
#?2014 by Fachinformationszentrum Karlsruhe, and the U.S. Secretary of 
#Commerce on behalf of the United States.  All rights reserved.
_database_code_ICSD                166896
_audit_creation_date               2010/08/01
_chemical_name_systematic          'Aluminium Phosphate(V)'
_chemical_formula_structural       'Al (P O4)'
_chemical_formula_sum              'Al1 O4 P1'
_publ_section_title
;
Novel large-pore aluminophosphate molecular sieve STA-15 prepared 
using the tetrapropylammonium cation as a structure directing agent
;
loop_
_citation_id
_citation_journal_abbrev
_citation_year
_citation_journal_volume
_citation_journal_issue
_citation_page_first
_citation_page_last
_citation_journal_id_ASTM
primary 'Chemistry of Materials' 2010 22 2 338 346 CMATEX
_publ_author_name
;
Han Zhongxia;Picone, A.L.;Slawin, A.M.Z.;Seymour, v.R.;Ashbrook, 
S.E.;Zhou Wuzong;Thompson, S.P.;Parker, J.E.;Wright, P.A.
;
_cell_length_a                     14.79668(13)
_cell_length_b                     27.52480(26)
_cell_length_c                     8.32555(4)
_cell_angle_alpha                  90.0
_cell_angle_beta                   90.0
_cell_angle_gamma                  90.0
_cell_volume                       3390.79
_cell_formula_units_Z              32
_symmetry_space_group_name_H-M     'I b a 2'
_symmetry_Int_Tables_number        45
_refine_ls_R_factor_all            .075
loop_
_symmetry_equiv_pos_site_id
_symmetry_equiv_pos_as_xyz
  1	'x, -y, z+.5'
  2	'-x, y, z+.5'
  3	'-x, -y, z'
  4	'x, y, z'
  5	'x+.5, -y+.5, z'
  6	'-x+.5, y+.5, z'
  7	'-x+.5, -y+.5, z+.5'
  8	'x+.5, y+.5, z+.5'
loop_
_atom_type_symbol
_atom_type_oxidation_number
Al3+	3
O2-	-2
P5+	5
loop_
_atom_site_label
_atom_site_type_symbol
_atom_site_symmetry_multiplicity
_atom_site_Wyckoff_symbol
_atom_site_fract_x
_atom_site_fract_y
_atom_site_fract_z
_atom_site_occupancy
_atom_site_attached_hydrogens
_atom_site_U_iso_or_equiv
P1 P5+ 8 c 0.9002(4) 0.78073(17) 0.0402(6) 1.0 0 0.0397(4) 
P2 P5+ 8 c 0.9042(4) 0.67099(17) 0.5395(7) 1.0 0 0.0397(4) 
P3 P5+ 8 c 0.72012(34) 0.63869(17) 0.0269(6) 1.0 0 0.0397(4) 
P4 P5+ 8 c 0.39902(35) 0.55398(18) 0.0255(7) 1.0 0 0.0397(4) 
Al1 Al3+ 8 c 0.9066(5) 0.77840(18) 0.6651(6) 1.0 0 0.0397(4) 
Al2 Al3+ 8 c 0.8975(4) 0.67410(19) 0.1578(7) 1.0 0 0.0397(4) 
Al3 Al3+ 8 c 0.5933(4) 0.55535(19) 0.1480(7) 1.0 0 0.0397(4) 
Al4 Al3+ 8 c 0.2738(4) 0.63540(19) 0.1531(5) 1.0 0 0.0397(4) 
O1 O2- 8 c 0.8720(6) 0.73304(18) 0.1146(9) 1.0 0 0.0397(4) 
O2 O2- 8 c 0.9897(5) 0.79915(23) 0.1047(12) 1.0 0 0.0397(4) 
O3 O2- 8 c 0.8264(6) 0.81868(26) 0.0503(8) 1.0 0 0.0397(4) 
O4 O2- 8 c 0.9128(4) 0.76963(23) 0.8661(6) 1.0 0 0.0397(4) 
O5 O2- 8 c 0.8818(7) 0.72168(19) 0.5942(9) 1.0 0 0.0397(4) 
O6 O2- 8 c 0.8382(4) 0.63267(24) 0.5985(9) 1.0 0 0.0397(4) 
O7 O2- 8 c 0.8985(5) 0.67201(24) 0.3606(6) 1.0 0 0.0397(4) 
O8 O2- 8 c 1.0003(4) 0.65623(24) 0.0855(11) 1.0 0 0.0397(4) 
O9 O2- 8 c 0.8173(4) 0.63442(25) 0.0878(9) 1.0 0 0.0397(4) 
O10 O2- 8 c 0.6749(6) 0.68096(27) 0.1132(9) 1.0 0 0.0397(4) 
O11 O2- 8 c 0.7171(5) 0.64889(21) 0.8503(5) 1.0 0 0.0397(4) 
O12 O2- 8 c 0.6742(5) 0.59128(26) 0.0613(9) 1.0 0 0.0397(4) 
O13 O2- 8 c 0.4876(4) 0.57463(24) 0.0917(12) 1.0 0 0.0397(4) 
O14 O2- 8 c 0.3893(5) 0.50163(19) 0.0759(10) 1.0 0 0.0397(4) 
O15 O2- 8 c 0.3211(5) 0.58132(26) 0.1048(9) 1.0 0 0.0397(4) 
O16 O2- 8 c 0.3912(4) 0.55603(23) 0.8481(7) 1.0 0 0.0397(4) 

#End of data_166896-ICSD


