data_35664-ICSD
#?2014 by Fachinformationszentrum Karlsruhe, and the U.S. Secretary of 
#Commerce on behalf of the United States.  All rights reserved.
_database_code_ICSD                35664
_audit_creation_date               1983/12/31
_chemical_name_systematic          'Magnesium Thiosulfate Hexahydrate'
_chemical_formula_structural       'Mg S2 O3 (H2 O)6'
_chemical_formula_sum              'H12 Mg1 O9 S2'
_publ_section_title
;
Deformation Density in Complex Anions. IV. Magnesium Thiosulfate 
Hexahydrate, Mg S2 O3 * 6H2 O
;
loop_
_citation_id
_citation_journal_abbrev
_citation_year
_citation_journal_volume
_citation_page_first
_citation_page_last
_citation_journal_id_ASTM
primary 'Acta Crystallographica, Section C: Crystal Structure Communications'
 1983 39 515 518 ACSCEE
_publ_author_name                  'Elerman, Y.;Bats, J.W.;Fuess, H.'
_cell_length_a                     9.324(2)
_cell_length_b                     14.461(4)
_cell_length_c                     6.862(1)
_cell_angle_alpha                  90.
_cell_angle_beta                   90.
_cell_angle_gamma                  90.
_cell_volume                       925.23
_cell_formula_units_Z              4
_symmetry_space_group_name_H-M     'P n m a'
_symmetry_Int_Tables_number        62
_refine_ls_R_factor_all            .047
loop_
_symmetry_equiv_pos_site_id
_symmetry_equiv_pos_as_xyz
  1	'x+.5, y, -z+.5'
  2	'x, -y+.5, z'
  3	'-x+.5, y+.5, z+.5'
  4	'-x, -y, -z'
  5	'-x+.5, -y, z+.5'
  6	'-x, y+.5, -z'
  7	'x+.5, -y+.5, -z+.5'
  8	'x, y, z'
loop_
_atom_type_symbol
_atom_type_oxidation_number
H1+	1
Mg2+	2
O2-	-2
S2-	-2
S6+	6
loop_
_atom_site_label
_atom_site_type_symbol
_atom_site_symmetry_multiplicity
_atom_site_Wyckoff_symbol
_atom_site_fract_x
_atom_site_fract_y
_atom_site_fract_z
_atom_site_occupancy
_atom_site_attached_hydrogens
Mg1 Mg2+ 4 a 0 0 0 1. 0 
S1 S6+ 4 c 0.04096(14) 0.25 0.43957(20) 1. 0 
S2 S2- 4 c 0.21649(15) 0.25 0.61198(22) 1. 0 
O1 O2- 8 d -.04314(6) 0.16614(4) 0.47737(9) 1. 0 
O2 O2- 4 c 0.09119(9) 0.25 0.23547(11) 1. 0 
O3 O2- 8 d -.15483(5) 0.08144(3) 0.14763(8) 1. 0 
O4 O2- 8 d 0.12792(5) 0.11398(3) -.03015(8) 1. 0 
O5 O2- 8 d -.09866(6) 0.02623(4) -.25960(8) 1. 0 
H1 H1+ 8 d 0.87919(14) 0.11058(9) 0.26887(17) 1. 0 
H2 H1+ 8 d 0.80934(14) 0.13264(8) 0.06707(19) 1. 0 
H3 H1+ 8 d 0.11983(15) 0.16151(8) 0.07098(19) 1. 0 
H4 H1+ 8 d 0.15472(16) 0.14679(9) 0.85137(19) 1. 0 
H5 H1+ 8 d 0.91993(15) 0.07736(9) 0.65198(19) 1. 0 
H6 H1+ 8 d 0.81742(14) 0.99294(9) 0.69599(21) 1. 0 

loop_
_atom_site_aniso_label
_atom_site_aniso_type_symbol
_atom_site_aniso_U_11
_atom_site_aniso_U_22
_atom_site_aniso_U_33
_atom_site_aniso_U_12
_atom_site_aniso_U_13
_atom_site_aniso_U_23
Mg1 Mg2+ 0.0064(2) 0.0051(2) 0.0062(3) -.0005(2) -.0002(2) 0.0008(2)
S1 S6+ 0.0096(5) 0.0049(4) 0.0057(5) 0 0.0011(4) 0
S2 S2- 0.0092(5) 0.0091(5) 0.0082(6) 0 -.0006(4) 0
O1 O2- 0.0179(2) 0.0135(2) 0.0100(2) -.0080(2) -.0021(2) 0.0028(2)
O2 O2- 0.0214(3) 0.0091(2) 0.0058(3) 0 0.0030(3) 0
O3 O2- 0.0091(2) 0.0082(2) 0.0091(2) 0.0006(1) 0.0009(2) -.0005(2)
O4 O2- 0.0129(2) 0.0078(2) 0.0103(2) -.0033(1) 0.0022(2) -.0008(2)
O5 O2- 0.0132(2) 0.0113(2) 0.0095(2) -.0020(2) -.0043(2) 0.0029(2)
H1 H1+ 0.0278(5) 0.0248(5) 0.0172(5) -.0008(4) -.0018(4) -.0044(4)
H2 H1+ 0.0276(5) 0.0205(4) 0.0235(6) 0.0053(4) -.0021(4) 0.0047(4)
H3 H1+ 0.0338(6) 0.0183(4) 0.0206(5) -.0037(4) 0.0033(4) -.0068(4)
H4 H1+ 0.0371(7) 0.0252(5) 0.0185(5) -.0066(5) 0.0076(5) 0.0043(4)
H5 H1+ 0.0313(6) 0.0232(5) 0.0223(5) -.0043(4) -.0028(4) 0.0100(4)
H6 H1+ 0.0234(5) 0.0273(5) 0.0265(6) -.0068(4) -.0086(4) 0.0012(4)
#End of data_35664-ICSD


