data_419646-ICSD
#?2014 by Fachinformationszentrum Karlsruhe, and the U.S. Secretary of 
#Commerce on behalf of the United States.  All rights reserved.
_database_code_ICSD                419646
_audit_creation_date               2009/08/01
_chemical_name_systematic
;
Calcium Pentaoxoditellurate(IV) - Epsilon
;
_chemical_formula_structural       'Ca (Te2 O5)'
_chemical_formula_sum              'Ca1 O5 Te2'
_publ_section_title
;
A new polymorph with a layered structure epsilon-Ca Te2 O5
;
loop_
_citation_id
_citation_journal_abbrev
_citation_year
_citation_journal_volume
_citation_journal_issue
_citation_page_first
_citation_page_last
_citation_journal_id_ASTM
primary 'Solid State Sciences' 2009 11 2 289 293 SSSCFJ
_publ_author_name
;
Barrier, N.;Rueff, J.M.;Lepetit, M.B.;Contreras-Garcia, J.;Malo, 
S.;Raveau, B.
;
_cell_length_a                     9.4639(2)
_cell_length_b                     5.7566(2)
_cell_length_c                     11.228(1)
_cell_angle_alpha                  90
_cell_angle_beta                   115.142(4)
_cell_angle_gamma                  90
_cell_volume                       553.75
_cell_formula_units_Z              4
_symmetry_space_group_name_H-M     'P 1 21/c 1'
_symmetry_Int_Tables_number        14
_refine_ls_R_factor_all            .0382
loop_
_symmetry_equiv_pos_site_id
_symmetry_equiv_pos_as_xyz
  1	'x, -y+.5, z+.5'
  2	'-x, -y, -z'
  3	'-x, y+.5, -z+.5'
  4	'x, y, z'
loop_
_atom_type_symbol
_atom_type_oxidation_number
Ca2+	2
O2-	-2
Te4+	4
loop_
_atom_site_label
_atom_site_type_symbol
_atom_site_symmetry_multiplicity
_atom_site_Wyckoff_symbol
_atom_site_fract_x
_atom_site_fract_y
_atom_site_fract_z
_atom_site_occupancy
_atom_site_attached_hydrogens
_atom_site_U_iso_or_equiv
Te1 Te4+ 4 e 0.34915(2) 0.14487(3) 0.490468(19) 1 0 0.01140(6) 
Te2 Te4+ 4 e 0.26409(2) -0.32209(3) 0.22053(2) 1 0 0.01213(7) 
Ca1 Ca2+ 4 e 0.01891(8) -0.79670(9) 0.13905(6) 1 0 0.0129(2) 
O1 O2- 4 e 0.5220(3) 0.1067(3) 0.4097(2) 1 0 0.0169(8) 
O2 O2- 4 e 0.2031(3) -0.0179(3) 0.3472(2) 1 0 0.0154(8) 
O3 O2- 4 e 0.1451(3) -0.4900(3) 0.2883(2) 1 0 0.0149(8) 
O4 O2- 4 e 0.2257(3) 0.0907(3) 0.5985(2) 1 0 0.0172(8) 
O5 O2- 4 e 0.8823(3) 0.1436(3) 0.9118(2) 1 0 0.0194(8) 

loop_
_atom_site_aniso_label
_atom_site_aniso_type_symbol
_atom_site_aniso_U_11
_atom_site_aniso_U_22
_atom_site_aniso_U_33
_atom_site_aniso_U_12
_atom_site_aniso_U_13
_atom_site_aniso_U_23
Te1 Te4+ 0.01175(9) 0.01148(8) 0.01071(9) -0.00155(7) 0.00453(7) 
-0.00068(6)
Te2 Te4+ 0.01093(9) 0.01317(8) 0.01187(10) -0.00189(7) 0.00445(7) 
0.00046(7)
Ca1 Ca2+ 0.0169(3) 0.0115(2) 0.0119(3) -0.0032(2) 0.0077(2) -0.0017(2)
O1 O2- 0.0150(12) 0.0197(9) 0.0172(12) 0.0037(8) 0.0079(9) 0.0061(8)
O2 O2- 0.0144(11) 0.0155(9) 0.0141(11) -0.0021(8) 0.0039(9) -0.0043(8)
O3 O2- 0.0196(12) 0.0125(9) 0.0183(11) -0.0025(8) 0.0137(10) -0.0020(8)
O4 O2- 0.0201(13) 0.0164(9) 0.0204(12) 0.0048(8) 0.0137(10) 0.0061(8)
O5 O2- 0.0264(13) 0.0172(10) 0.0097(11) 0.0064(9) 0.0028(10) 0.0015(8)
#End of data_419646-ICSD


