data_387-ICSD
#?2014 by Fachinformationszentrum Karlsruhe, and the U.S. Secretary of 
#Commerce on behalf of the United States.  All rights reserved.
_database_code_ICSD                387
_audit_creation_date               1980/01/01
_audit_update_record               2012/02/01
_chemical_name_systematic          'Thallium Zinc Sulfate(VI) Chloride'
_chemical_formula_structural       'Tl Zn (S O4) Cl'
_chemical_formula_sum              'Cl1 O4 S1 Tl1 Zn1'
_publ_section_title
;
The crystal structures of Rb Zn S O4 Cl and Tl Zn S O4 Cl
;
loop_
_citation_id
_citation_journal_abbrev
_citation_year
_citation_journal_volume
_citation_page_first
_citation_page_last
_citation_journal_id_ASTM
primary 'Acta Crystallographica B (24,1968-38,1982)' 1976 32 2044 2047 ACBCAR
_publ_author_name                  'Bosson, B.'
_cell_length_a                     7.278(1)
_cell_length_b                     9.551(1)
_cell_length_c                     8.092(1)
_cell_angle_alpha                  90.
_cell_angle_beta                   93.97(1)
_cell_angle_gamma                  90.
_cell_volume                       561.14
_cell_formula_units_Z              4
_symmetry_space_group_name_H-M     'P 1 21/c 1'
_symmetry_Int_Tables_number        14
_refine_ls_R_factor_all            .07
loop_
_symmetry_equiv_pos_site_id
_symmetry_equiv_pos_as_xyz
  1	'x, -y+.5, z+.5'
  2	'-x, -y, -z'
  3	'-x, y+.5, -z+.5'
  4	'x, y, z'
loop_
_atom_type_symbol
_atom_type_oxidation_number
Cl1-	-1
O2-	-2
S6+	6
Tl1+	1
Zn2+	2
loop_
_atom_site_label
_atom_site_type_symbol
_atom_site_symmetry_multiplicity
_atom_site_Wyckoff_symbol
_atom_site_fract_x
_atom_site_fract_y
_atom_site_fract_z
_atom_site_occupancy
_atom_site_attached_hydrogens
_atom_site_B_iso_or_equiv
Tl1 Tl1+ 4 e 0.36931(9) 0.08903(7) 0.20980(7) 1. 0 0 
Zn1 Zn2+ 4 e 0.9034(2) 0.2014(2) 0.4607(1) 1. 0 0 
Cl1 Cl1- 4 e 0.6219(5) 0.1841(4) 0.5415(4) 1. 0 2.26 
S1 S6+ 4 e 0.1111(4) 0.4365(3) 0.2693(3) 1. 0 1.27 
O1 O2- 4 e 0.1103(14) 0.3568(12) 0.1122(12) 1. 0 2.1 
O2 O2- 4 e -.0365(15) 0.3825(11) 0.3692(12) 1. 0 2.11 
O3 O2- 4 e 0.2896(17) 0.4252(12) 0.3553(14) 1. 0 2.57 
O4 O2- 4 e 0.0597(17) 0.5843(11) 0.2364(14) 1. 0 2.47 

#End of data_387-ICSD


