data_281604-ICSD
#?2014 by Fachinformationszentrum Karlsruhe, and the U.S. Secretary of 
#Commerce on behalf of the United States.  All rights reserved.
_database_code_ICSD                281604
_audit_creation_date               2004/10/01
_chemical_name_systematic          'Sodium Titanium(III) Disilicate'
_chemical_formula_structural       'Na Ti (Si2 O6)'
_chemical_formula_sum              'Na1 O6 Si2 Ti1'
_chemical_name_mineral             Clinopyroxene
_publ_section_title
;
Single-crystal structure refinement of Na Ti Si2 O6 clinopyroxene at 
low temperatures (298 > T > 100 K)
;
loop_
_citation_id
_citation_journal_abbrev
_citation_year
_citation_journal_volume
_citation_page_first
_citation_page_last
_citation_journal_id_ASTM
primary 'Acta Crystallographica, Section B: Structural Science'
 2003 59 730 746 ASBSDK
_publ_author_name
;
Redhammer, G.J.;Ohashi, H.;Roth, G.
;
_cell_length_a                     9.7017(27)
_cell_length_b                     8.8798(17)
_cell_length_c                     5.3045(15)
_cell_angle_alpha                  90.
_cell_angle_beta                   106.83(2)
_cell_angle_gamma                  90.
_cell_volume                       437.4
_cell_formula_units_Z              4
_symmetry_space_group_name_H-M     'C 1 2/c 1'
_symmetry_Int_Tables_number        15
_refine_ls_R_factor_all            .0178
loop_
_symmetry_equiv_pos_site_id
_symmetry_equiv_pos_as_xyz
  1	'x, -y, z+.5'
  2	'-x, -y, -z'
  3	'-x, y, -z+.5'
  4	'x, y, z'
  5	'x+.5, -y+.5, z+.5'
  6	'-x+.5, -y+.5, -z'
  7	'-x+.5, y+.5, -z+.5'
  8	'x+.5, y+.5, z'
loop_
_atom_type_symbol
_atom_type_oxidation_number
Na1+	1
O2-	-2
Si4+	4
Ti3+	3
loop_
_atom_site_label
_atom_site_type_symbol
_atom_site_symmetry_multiplicity
_atom_site_Wyckoff_symbol
_atom_site_fract_x
_atom_site_fract_y
_atom_site_fract_z
_atom_site_occupancy
_atom_site_attached_hydrogens
_atom_site_U_iso_or_equiv
Na1 Na1+ 4 e 0 0.30159(8) 0.25 1. 0 0.01341(15) 
Ti1 Ti3+ 4 e 0 0.90200(3) 0.25 1. 0 0.00440(8) 
Si1 Si4+ 8 f 0.29200(3) 0.08905(3) 0.24072(5) 1. 0 0.00396(8) 
O1 O2- 8 f 0.11694(9) 0.07925(9) 0.14556(15) 1. 0 0.00568(15) 
O2 O2- 8 f 0.36092(10) 0.25294(9) 0.30388(15) 1. 0 0.00788(16) 
O3 O2- 8 f 0.35200(9) 0.00796(10) 0.01526(15) 1. 0 0.00709(16) 

loop_
_atom_site_aniso_label
_atom_site_aniso_type_symbol
_atom_site_aniso_U_11
_atom_site_aniso_U_22
_atom_site_aniso_U_33
_atom_site_aniso_U_12
_atom_site_aniso_U_13
_atom_site_aniso_U_23
Na1 Na1+ 0.0167(4) 0.0101(3) 0.0103(3) 0 -.0010(3) 0
Ti1 Ti3+ 0.00373(14) 0.00450(12) 0.00464(12) 0 0.00069(9) 0
Si1 Si4+ 0.00353(15) 0.00511(13) 0.00321(13) -.00051(9) 0.00091(10) 
-.00015(8)
O1 O2- 0.0044(4) 0.0077(3) 0.0046(3) -.0004(3) 0.0008(3) 0.0004(2)
O2 O2- 0.0084(4) 0.0071(4) 0.0082(3) -.0023(3) 0.0025(3) -.0007(2)
O3 O2- 0.0057(4) 0.0096(4) 0.0059(3) -.0002(3) 0.0016(3) -.0024(2)
#End of data_281604-ICSD


