data_241228-ICSD
#?2014 by Fachinformationszentrum Karlsruhe, and the U.S. Secretary of 
#Commerce on behalf of the United States.  All rights reserved.
_database_code_ICSD                241228
_audit_creation_date               2008/08/01
_chemical_name_systematic
;
Tetrapotassium Diantimony(III) Tin(IV) Tetradecafluoride
;
_chemical_formula_structural       'K4 (Sb2 Sn F14)'
_chemical_formula_sum              'F14 K4 Sb2 Sn1'
_publ_section_title
;
Tetrapotassium diantimony(III) tin(IV) tetradecafluoride
;
loop_
_citation_id
_citation_journal_abbrev
_citation_year
_citation_journal_volume
_citation_journal_issue
_citation_page_first
_citation_page_last
_citation_journal_id_ASTM
primary 'Acta Crystallographica, Section E. Structure Reports Online'
 2008 64 6 i32 i32 ACSEBH
_publ_author_name
;
Gerasimenko, A. V.;Merkulov,  E. B.;Usol¡§tseva, T. I.
;
_cell_length_a                     6.7356(2)
_cell_length_b                     7.4704(2)
_cell_length_c                     7.6370(2)
_cell_angle_alpha                  92.6910(10)
_cell_angle_beta                   91.4610(10)
_cell_angle_gamma                  115.3230(10)
_cell_volume                       346.53
_cell_formula_units_Z              1
_symmetry_space_group_name_H-M     'P -1'
_symmetry_Int_Tables_number        2
_refine_ls_R_factor_all            .037
loop_
_symmetry_equiv_pos_site_id
_symmetry_equiv_pos_as_xyz
  1	'-x, -y, -z'
  2	'x, y, z'
loop_
_atom_type_symbol
_atom_type_oxidation_number
F1-	-1
K1+	1
Sb3+	3
Sn4+	4
loop_
_atom_site_label
_atom_site_type_symbol
_atom_site_symmetry_multiplicity
_atom_site_Wyckoff_symbol
_atom_site_fract_x
_atom_site_fract_y
_atom_site_fract_z
_atom_site_occupancy
_atom_site_attached_hydrogens
_atom_site_U_iso_or_equiv
Sb1 Sb3+ 2 i 0.611210(19) 0.191057(16) 0.312309(15) 1 0 0.01531(2) 
Sn1 Sn4+ 1 a 1.0000 0.0000 0.0000 1 0 0.01467(3) 
K1 K1+ 2 i 0.85162(7) 0.73682(7) 0.41457(6) 1 0 0.02301(9) 
K2 K1+ 2 i 0.71347(7) 0.44513(8) 0.85599(6) 1 0 0.02309(8) 
F1 F1- 2 i 0.5699(2) 0.3363(2) 0.51424(18) 1 0 0.0247(3) 
F2 F1- 2 i 0.5990(2) 0.4270(2) 0.18860(19) 1 0 0.0237(3) 
F3 F1- 2 i 0.9214(2) 0.3796(2) 0.3294(2) 1 0 0.0252(3) 
F4 F1- 2 i 0.7266(2) 0.0671(2) 0.5021(2) 1 0 0.0300(3) 
F5 F1- 2 i 1.1417(3) 0.1313(2) 0.22704(19) 1 0 0.0297(3) 
F6 F1- 2 i 0.7209(3) -0.1279(3) 0.1151(2) 1 0 0.0332(4) 
F7 F1- 2 i 1.0620(3) -0.2265(2) 0.0506(2) 1 0 0.0322(3) 

loop_
_atom_site_aniso_label
_atom_site_aniso_type_symbol
_atom_site_aniso_U_11
_atom_site_aniso_U_22
_atom_site_aniso_U_33
_atom_site_aniso_U_12
_atom_site_aniso_U_13
_atom_site_aniso_U_23
Sb1 Sb3+ 0.01754(4) 0.01469(4) 0.01477(4) 0.00794(3) 0.00034(3) 0.00109(3)
Sn1 Sn4+ 0.01815(5) 0.01411(5) 0.01377(5) 0.00878(4) 0.00109(4) 0.00153(4)
K1 K1+ 0.01943(14) 0.02305(16) 0.02459(16) 0.00756(12) -0.00196(13) 
0.00015(13)
K2 K1+ 0.02202(15) 0.02791(16) 0.02086(15) 0.01186(12) 0.00175(13) 
0.00452(13)
F1 F1- 0.0254(5) 0.0286(5) 0.0191(5) 0.0108(4) 0.0045(4) -0.0032(4)
F2 F1- 0.0302(5) 0.0201(4) 0.0233(5) 0.0131(4) -0.0020(5) 0.0048(4)
F3 F1- 0.0174(4) 0.0274(6) 0.0294(6) 0.0079(4) 0.0038(4) 0.0046(5)
F4 F1- 0.0215(5) 0.0312(6) 0.0363(7) 0.0093(5) -0.0031(5) 0.0159(5)
F5 F1- 0.0381(6) 0.0344(6) 0.0195(5) 0.0197(5) -0.0083(5) -0.0074(5)
F6 F1- 0.0254(6) 0.0395(8) 0.0323(7) 0.0105(5) 0.0098(5) 0.0086(6)
F7 F1- 0.0449(7) 0.0240(5) 0.0353(7) 0.0226(5) -0.0084(6) 0.0009(5)
#End of data_241228-ICSD


