data_412020-ICSD
#?2014 by Fachinformationszentrum Karlsruhe, and the U.S. Secretary of 
#Commerce on behalf of the United States.  All rights reserved.
_database_code_ICSD                412020
_audit_creation_date               2002/10/01
_chemical_name_systematic          'Europium(II) Pentafluoroaluminate'
_chemical_formula_structural       'Eu (Al F5)'
_chemical_formula_sum              'Al1 Eu1 F5'
_publ_section_title
;
Single crystal growth and classification of Eu Al F5 and solid 
solutions M(II)1-x Eux Al F5 (M = Ca, Sr, Ba) within the structural 
family of tetragonal M(II) M(III) F5 compounds
;
loop_
_citation_id
_citation_journal_abbrev
_citation_year
_citation_journal_volume
_citation_page_first
_citation_page_last
_citation_journal_id_ASTM
primary 'Journal of Solid State Chemistry' 2002 164 150 156 JSSCBI
_publ_author_name                  'Weil, M.;Kubel, F.'
_cell_length_a                     19.96419(70)
_cell_length_b                     19.96419(70)
_cell_length_c                     14.3731(5)
_cell_angle_alpha                  90.
_cell_angle_beta                   90.
_cell_angle_gamma                  90.
_cell_volume                       5728.67
_cell_formula_units_Z              64
_symmetry_space_group_name_H-M     'I 41/a Z'
_symmetry_Int_Tables_number        88
_refine_ls_R_factor_all            .0213
loop_
_symmetry_equiv_pos_site_id
_symmetry_equiv_pos_as_xyz
  1	'-y+.75, x+.75, -z+.75'
  2	'y+.25, -x+.75, -z+.75'
  3	'x, y+.5, -z'
  4	'-x, -y, -z'
  5	'y+.25, -x+.25, z+.25'
  6	'-y+.75, x+.25, z+.25'
  7	'-x, -y+.5, z'
  8	'x, y, z'
  9	'-y+.25, x+.25, -z+.25'
 10	'y+.75, -x+.25, -z+.25'
 11	'x+.5, y, -z+.5'
 12	'-x+.5, -y+.5, -z+.5'
 13	'y+.75, -x+.75, z+.75'
 14	'-y+.25, x+.75, z+.75'
 15	'-x+.5, -y, z+.5'
 16	'x+.5, y+.5, z+.5'
loop_
_atom_type_symbol
_atom_type_oxidation_number
Al3+	3
Eu2+	2
F1-	-1
loop_
_atom_site_label
_atom_site_type_symbol
_atom_site_symmetry_multiplicity
_atom_site_Wyckoff_symbol
_atom_site_fract_x
_atom_site_fract_y
_atom_site_fract_z
_atom_site_occupancy
_atom_site_attached_hydrogens
Eu1 Eu2+ 16 f 0.080170(12) 0.113690(12) 0.62779(3) 1. 0 
Eu2 Eu2+ 16 f 0.081370(12) 0.115210(12) 0.12092(3) 1. 0 
Eu3 Eu2+ 16 f 0.160700(12) 0.158080(12) 0.37491(3) 1. 0 
Eu4 Eu2+ 16 f 0.409820(12) 0.090480(12) 0.12411(3) 1. 0 
Al1 Al3+ 16 f 0.07738(7) 0.00778(7) 0.37444(17) 1. 0 
Al2 Al3+ 16 f 0.25144(7) 0.00149(7) 0.1243(2) 1. 0 
Al3 Al3+ 16 f 0.25678(7) 0.17603(7) 0.12564(17) 1. 0 
Al4 Al3+ 8 e 0 0.25 0.27048(12) 1. 0 
Al5 Al3+ 8 e 0 0.25 0.48065(12) 1. 0 
F1 F1- 16 f 0.01026(14) 0.00556(15) 0.6232(3) 1. 0 
F2 F1- 16 f 0.01339(13) 0.00883(15) 0.1261(3) 1. 0 
F3 F1- 16 f 0.03227(17) 0.33187(17) 0.2679(2) 1. 0 
F4 F1- 16 f 0.05430(13) 0.22863(14) 0.3756(2) 1. 0 
F5 F1- 16 f 0.06754(17) 0.22668(16) 0.5551(2) 1. 0 
F6 F1- 16 f 0.06728(17) 0.22642(16) 0.1957(2) 1. 0 
F7 F1- 16 f 0.0733(3) 0.0741(3) 0.2879(3) 1. 0 
F8 F1- 16 f 0.0753(3) 0.0735(3) 0.4606(3) 1. 0 
F9 F1- 16 f 0.16127(14) 0.01942(13) 0.6253(4) 1. 0 
F10 F1- 16 f 0.16384(14) 0.02206(14) 0.1274(4) 1. 0 
F11 F1- 16 f 0.16743(13) 0.02583(14) 0.3723(4) 1. 0 
F12 F1- 16 f 0.1935(2) 0.1610(3) 0.2111(3) 1. 0 
F13 F1- 16 f 0.1927(2) 0.1575(3) 0.0403(3) 1. 0 
F14 F1- 16 f 0.1919(2) 0.1598(3) 0.5376(3) 1. 0 
F15 F1- 16 f 0.25120(17) 0.00304(16) 0.0012(4) 1. 0 
F16 F1- 16 f 0.27819(14) 0.08657(14) 0.1286(4) 1. 0 
F17 F1- 16 f 0.3231(2) 0.1823(3) 0.0392(3) 1. 0 
F18 F1- 16 f 0.3221(3) 0.1838(3) 0.2104(3) 1. 0 
F19 F1- 16 f 0.4063(3) 0.5555(2) 0.0423(3) 1. 0 
F20 F1- 16 f 0.46847(17) 0.16772(17) 0.0165(2) 1. 0 

loop_
_atom_site_aniso_label
_atom_site_aniso_type_symbol
_atom_site_aniso_U_11
_atom_site_aniso_U_22
_atom_site_aniso_U_33
_atom_site_aniso_U_12
_atom_site_aniso_U_13
_atom_site_aniso_U_23
Eu1 Eu2+ 0.01260(13) 0.00996(12) 0.00996(13) 0.00127(8) 0.00105(18) 
0.00094(18)
Eu2 Eu2+ 0.01172(12) 0.00980(12) 0.01010(13) 0.00064(8) -.00062(17) 
-.00030(17)
Eu3 Eu2+ 0.01112(13) 0.01420(13) 0.01033(11) -.00001(9) 0.00012(19) 
-.0001(2)
Eu4 Eu2+ 0.01341(13) 0.01077(13) 0.00915(11) -.00170(9) -.00021(19) 
0.00005(18)
Al1 Al3+ 0.0088(7) 0.0080(7) 0.0085(6) -.0002(5) 0.0004(11) -.0016(11)
Al2 Al3+ 0.0093(5) 0.0077(5) 0.0073(5) 0.0006(4) 0.0000(5) 0.0000(5)
Al3 Al3+ 0.0088(7) 0.0084(7) 0.0084(6) 0.0001(5) -.0019(11) -.0004(10)
Al4 Al3+ 0.014(2) 0.005(2) 0.0097(8) 0.002(2) 0 0
Al5 Al3+ 0.005(2) 0.010(2) 0.0108(8) -.002(2) 0 0
F1 F1- 0.0067(14) 0.0204(16) 0.0222(14) -.0010(12) 0.001(2) -.006(2)
F2 F1- 0.0083(14) 0.0177(15) 0.0232(14) 0.0009(11) 0.001(2) -.005(2)
F3 F1- 0.020(2) 0.0106(19) 0.0196(16) -.0062(15) -.0006(13) -.0048(13)
F4 F1- 0.0089(13) 0.0160(14) 0.0131(12) 0.0069(11) 0.0001(14) -.0007(15)
F5 F1- 0.017(2) 0.0142(19) 0.0142(15) 0.0006(14) -.0013(13) 0.0036(13)
F6 F1- 0.017(2) 0.0131(19) 0.0138(15) 0.0032(14) 0.0003(13) -.0031(12)
F7 F1- 0.024(3) 0.012(3) 0.0122(18) 0.000(2) -.0055(17) 0.0072(16)
F8 F1- 0.016(3) 0.020(3) 0.0142(19) -.001(2) -.0017(16) -.0029(17)
F9 F1- 0.0111(14) 0.0129(14) 0.0216(13) 0.0048(11) -.005(2) -.001(2)
F10 F1- 0.0100(14) 0.0158(15) 0.0190(13) 0.0019(11) -.004(2) -.002(2)
F11 F1- 0.0065(14) 0.0123(14) 0.0275(15) 0.0005(11) -.003(2) 0.001(2)
F12 F1- 0.017(3) 0.023(3) 0.0098(19) -.003(2) 0.0011(16) -.0033(18)
F13 F1- 0.010(3) 0.023(3) 0.0124(19) 0.001(2) -.0039(15) -.0010(18)
F14 F1- 0.014(3) 0.022(3) 0.0124(19) 0.002(2) -.0044(16) -.0023(18)
F15 F1- 0.036(5) 0.023(4) 0.0060(12) 0.003(4) -.0007(12) 0.0002(12)
F16 F1- 0.0090(13) 0.0098(14) 0.0267(15) -.0005(11) 0.000(2) 0.004(2)
F17 F1- 0.010(3) 0.028(3) 0.0127(18) -.002(2) 0.0040(16) 0.0063(17)
F18 F1- 0.025(3) 0.025(3) 0.0137(19) -.001(2) -.0053(18) -.0027(18)
F19 F1- 0.019(3) 0.017(3) 0.0102(18) 0.002(2) 0.0019(17) 0.0049(16)
F20 F1- 0.017(2) 0.0104(18) 0.0215(16) -.0026(15) 0.0002(13) 0.0010(14)
#End of data_412020-ICSD


