data_39424-ICSD
#?2014 by Fachinformationszentrum Karlsruhe, and the U.S. Secretary of 
#Commerce on behalf of the United States.  All rights reserved.
_database_code_ICSD                39424
_audit_creation_date               1992/01/20
_audit_update_record               2012/02/01
_chemical_name_systematic
;
Dipotassium Nitrosobis(nitrato(III))trichloroosmate(III)
;
_chemical_formula_structural       'K2 (Os (N O) (N O2)2 Cl3)'
_chemical_formula_sum              'Cl3 K2 N3 O5 Os1'
_publ_section_title
;
Synthesis and crystal structure of compounds M2 (Os N O (N O2)2 Cl3) 
* n(H2 O)
;
loop_
_citation_id
_citation_journal_abbrev
_citation_year
_citation_journal_volume
_citation_page_first
_citation_page_last
_citation_journal_id_ASTM
primary 'Koordinatsionnaya Khimiya (= Coordination Chemistry (USSR))'
 1991 17 537 541 KOKHDC
_publ_author_name
;
Mikhailov, Yu.N.;Kanishcheva, A.S.;Svetlov, A.A.
;
_cell_length_a                     6.943(6)
_cell_length_b                     7.573(9)
_cell_length_c                     10.260(9)
_cell_angle_alpha                  90.4(8)
_cell_angle_beta                   102.7(7)
_cell_angle_gamma                  90.6(8)
_cell_volume                       526.21
_cell_formula_units_Z              2
_symmetry_space_group_name_H-M     'P -1'
_symmetry_Int_Tables_number        2
_refine_ls_R_factor_all            .043
loop_
_symmetry_equiv_pos_site_id
_symmetry_equiv_pos_as_xyz
  1	'-x, -y, -z'
  2	'x, y, z'
loop_
_atom_type_symbol
_atom_type_oxidation_number
Cl1-	-1
K1+	1
N2+	2
N3+	3
O2-	-2
Os3+	3
loop_
_atom_site_label
_atom_site_type_symbol
_atom_site_symmetry_multiplicity
_atom_site_Wyckoff_symbol
_atom_site_fract_x
_atom_site_fract_y
_atom_site_fract_z
_atom_site_occupancy
_atom_site_attached_hydrogens
_atom_site_U_iso_or_equiv
Os1 Os3+ 2 i 0.1206 0.2526 0.2378 1. 0 0.0169(8) 
K1 K1+ 2 i 0.6109(3) 0.7535(2) 0.1295(2) 1. 0 0.0283(8) 
K2 K1+ 2 i 0.2338(4) 0.7512(4) 0.4767(2) 1. 0 0.045(8) 
Cl1 Cl1- 2 i 0.2865(3) 0.2675(4) 0.4608(2) 1. 0 0.038(8) 
Cl2 Cl1- 2 i -.0813(3) 0.0238(3) 0.2977(2) 1. 0 0.035(8) 
Cl3 Cl1- 2 i -.1010(4) 0.4692(3) 0.2886(2) 1. 0 0.036(8) 
N1 N2+ 2 i 0.007(1) 0.245(1) 0.0675(6) 1. 0 0.027(8) 
N2 N3+ 2 i 0.323(1) 0.0681(9) 0.2070(7) 1. 0 0.027(8) 
N3 N3+ 2 i 0.303(1) 0.4509(9) 0.1972(7) 1. 0 0.028(8) 
O1 O2- 2 i -.054(1) 0.236(1) -.0473(7) 1. 0 0.063(8) 
O2 O2- 2 i 0.402(1) -.038(1) 0.2930(8) 1. 0 0.052(8) 
O3 O2- 2 i 0.362(1) 0.050(1) 0.0935(7) 1. 0 0.043(8) 
O4 O2- 2 i 0.370(1) 0.569(1) 0.2782(8) 1. 0 0.049(8) 
O5 O2- 2 i 0.345(1) 0.458(1) 0.0857(7) 1. 0 0.042(8) 

#End of data_39424-ICSD


