data_68933-ICSD
#?2014 by Fachinformationszentrum Karlsruhe, and the U.S. Secretary of 
#Commerce on behalf of the United States.  All rights reserved.
_database_code_ICSD                68933
_audit_creation_date               1992/01/20
_chemical_name_systematic          'Aluminium Phosphate'
_chemical_formula_structural       'Al (P O4)'
_chemical_formula_sum              'Al1 O4 P1'
_publ_section_title
;
Using X-ray powder diffraction to determine the structure of VPI-5 - 
a molecular sieve with the largest known pores
;
loop_
_citation_id
_citation_journal_abbrev
_citation_year
_citation_journal_volume
_citation_page_first
_citation_page_last
_citation_journal_id_ASTM
primary 'Advances in X-Ray Analysis' 1990 32 507 514 AXRAAA
_publ_author_name
;
Crowder, C.E.;Garces, J.M.;Davis, M.E.
;
_cell_length_a                     18.989(1)
_cell_length_b                     18.989(1)
_cell_length_c                     8.113(1)
_cell_angle_alpha                  90.
_cell_angle_beta                   90.
_cell_angle_gamma                  120.
_cell_volume                       2533.47
_cell_formula_units_Z              18
_symmetry_space_group_name_H-M     'P 63 c m'
_symmetry_Int_Tables_number        185
loop_
_symmetry_equiv_pos_site_id
_symmetry_equiv_pos_as_xyz
  1	'x, x-y, z+.5'
  2	'-x+y, y, z+.5'
  3	'-y, -x, z+.5'
  4	'x-y, x, z+.5'
  5	'y, -x+y, z+.5'
  6	'-x, -y, z+.5'
  7	'-x, -x+y, z'
  8	'x-y, -y, z'
  9	'y, x, z'
 10	'-x+y, -x, z'
 11	'-y, x-y, z'
 12	'x, y, z'
loop_
_atom_type_symbol
_atom_type_oxidation_number
Al3+	3
O2-	-2
P5+	5
loop_
_atom_site_label
_atom_site_type_symbol
_atom_site_symmetry_multiplicity
_atom_site_Wyckoff_symbol
_atom_site_fract_x
_atom_site_fract_y
_atom_site_fract_z
_atom_site_occupancy
_atom_site_attached_hydrogens
P1 P5+ 6 c 0.4122 0.4122 0.2273 1. 0 
P2 P5+ 12 d 0.4949 0.6646 0.2187 1. 0 
Al1 Al3+ 6 c 0.5755 0.5755 0.3329 1. 0 
Al2 Al3+ 12 d 0.3305 0.5006 0.322 1. 0 
O1 O2- 6 c 0.4887 0.4887 0.2919 1. 0 
O2 O2- 6 c 0.5882 0.5882 0.5378 1. 0 
O3 O2- 12 d 0.3343 0.4141 0.2784 1. 0 
O4 O2- 12 d 0.5717 0.6573 0.2613 1. 0 
O5 O2- 12 d 0.3331 0.5054 0.5287 1. 0 
O6 O2- 12 d 0.4142 0.5871 0.2628 1. 0 
O7 O2- 12 d 0.2424 0.4956 0.271 1. 0 

#End of data_68933-ICSD


