data_280905-ICSD
#?2014 by Fachinformationszentrum Karlsruhe, and the U.S. Secretary of 
#Commerce on behalf of the United States.  All rights reserved.
_database_code_ICSD                280905
_audit_creation_date               2003/04/01
_audit_update_record               2005/10/01
_chemical_name_systematic
;
Tripotassium Pentairon(III) Hexakis(phosphate(V))
;
_chemical_formula_structural       'K3 Fe5 (P O4)6'
_chemical_formula_sum              'Fe5 K3 O24 P6'
_publ_section_title                'The iron phosphate K3 Fe5 (P O4)6'
loop_
_citation_id
_citation_journal_abbrev
_citation_year
_citation_journal_volume
_citation_page_first
_citation_page_last
_citation_journal_id_ASTM
primary 'Acta Crystallographica, Section C: Crystal Structure Communications'
 2002 58 i156 i158 ACSCEE
_publ_author_name
;
Lajmi, B.;Hidouri, M.;Ben Amara, M.
;
_cell_length_a                     6.460(4)
_cell_length_b                     30.997(7)
_cell_length_c                     10.665(2)
_cell_angle_alpha                  90.
_cell_angle_beta                   90.22(4)
_cell_angle_gamma                  90.
_cell_volume                       2135.55
_cell_formula_units_Z              4
_symmetry_space_group_name_H-M     'C 1 2/c 1'
_symmetry_Int_Tables_number        15
_refine_ls_R_factor_all            .019
loop_
_symmetry_equiv_pos_site_id
_symmetry_equiv_pos_as_xyz
  1	'x, -y, z+.5'
  2	'-x, -y, -z'
  3	'-x, y, -z+.5'
  4	'x, y, z'
  5	'x+.5, -y+.5, z+.5'
  6	'-x+.5, -y+.5, -z'
  7	'-x+.5, y+.5, -z+.5'
  8	'x+.5, y+.5, z'
loop_
_atom_type_symbol
_atom_type_oxidation_number
Fe3+	3
K1+	1
O2-	-2
P5+	5
loop_
_atom_site_label
_atom_site_type_symbol
_atom_site_symmetry_multiplicity
_atom_site_Wyckoff_symbol
_atom_site_fract_x
_atom_site_fract_y
_atom_site_fract_z
_atom_site_occupancy
_atom_site_attached_hydrogens
_atom_site_U_iso_or_equiv
Fe1 Fe3+ 4 d 0.25 0.25 0.5 1. 0 0.00582(6) 
Fe2 Fe3+ 4 e 0 0.189384(10) 0.25 1. 0 0.00677(6) 
Fe3 Fe3+ 4 e 0 0.193115(10) 0.75 1. 0 0.00679(6) 
Fe4 Fe3+ 8 f 0.24698(3) 0.049909(7) 0.57712(2) 1. 0 0.00737(5) 
P1 P5+ 4 e 0 0.278396(17) 0.25 1. 0 0.00575(9) 
O1 O2- 8 f 0.18853(17) 0.30583(4) 0.22474(11) 1. 0 0.00946(19) 
O2 O2- 8 f 0.03724(17) 0.24513(3) 0.35948(10) 1. 0 0.00758(18) 
P2 P5+ 4 e 0 0.281775(17) 0.75 1. 0 0.00594(9) 
O3 O2- 8 f 0.03802(17) 0.24838(4) 0.6409(1) 1. 0 0.00749(18) 
O4 O2- 8 f 0.18915(17) 0.30916(4) 0.77764(11) 1. 0 0.00936(19) 
P3 P5+ 8 f 0.14632(6) 0.148952(12) 0.50261(3) 1. 0 0.00607(7) 
O5 O2- 8 f 0.01426(18) 0.14707(4) 0.38235(11) 1. 0 0.0108(2) 
O6 O2- 8 f 0.00308(18) 0.15329(4) 0.61488(11) 1. 0 0.0116(2) 
O7 O2- 8 f 0.27196(18) 0.10763(4) 0.51169(12) 1. 0 0.0123(2) 
O8 O2- 8 f 0.29346(17) 0.18761(3) 0.49822(10) 1. 0 0.00887(19) 
P4 P5+ 8 f 0.24699(6) 0.030414(12) 0.87738(4) 1. 0 0.00673(7) 
O9 O2- 8 f 0.22854(19) 0.02291(4) 0.73522(11) 1. 0 0.0145(2) 
O10 O2- 8 f 0.44496(18) 0.05457(4) 0.91038(13) 1. 0 0.0164(2) 
O11 O2- 8 f 0.06373(19) 0.05619(4) 0.92864(13) 1. 0 0.0161(2) 
O12 O2- 8 f 0.2465(2) -.01530(4) 0.93308(12) 1. 0 0.0180(2) 
K1 K1+ 8 f 0.64766(6) 0.138114(15) 0.51135(4) 1. 0 0.02211(9) 
K2 K1+ 4 e 0 0.93923(3) 0.75 1. 0 0.0477(2) 

loop_
_atom_site_aniso_label
_atom_site_aniso_type_symbol
_atom_site_aniso_U_11
_atom_site_aniso_U_22
_atom_site_aniso_U_33
_atom_site_aniso_U_12
_atom_site_aniso_U_13
_atom_site_aniso_U_23
Fe1 Fe3+ 0.00612(12) 0.00613(12) 0.00521(11) -0.00042(9) -0.00027(9) 
0.00017(9)
Fe2 Fe3+ 0.00683(12) 0.00698(12) 0.00649(12) 0 -0.00057(9) 0
Fe3 Fe3+ 0.00667(12) 0.00730(13) 0.00640(12) 0 0.00049(9) 0
Fe4 Fe3+ 0.00765(9) 0.00694(9) 0.00752(9) -0.00004(7) -0.00081(7) 
0.00029(7)
P1 P5+ 0.00450(19) 0.0065(2) 0.0062(2) 0 -0.00064(15) 0
O1 O2- 0.0062(4) 0.0103(5) 0.0118(5) -0.0018(4) -0.0004(3) 0.0020(4)
O2 O2- 0.0081(4) 0.0083(4) 0.0063(4) -0.0002(3) -0.0018(3) 0.0008(3)
P2 P5+ 0.0047(2) 0.0066(2) 0.0065(2) 0 0.00025(16) 0
O3 O2- 0.0079(4) 0.0080(4) 0.0066(4) -0.0005(3) 0.0014(3) -0.0005(3)
O4 O2- 0.0066(4) 0.0108(5) 0.0107(5) -0.0020(4) 0.0002(3) -0.0017(4)
P3 P5+ 0.00581(14) 0.00597(14) 0.00643(14) 0.00054(11) -0.00024(11) 
0.00031(11)
O5 O2- 0.0124(5) 0.0117(5) 0.0083(4) -0.0026(4) -0.0032(4) 0.0021(4)
O6 O2- 0.0103(5) 0.0150(5) 0.0096(5) -0.0029(4) 0.0034(4) -0.0044(4)
O7 O2- 0.0077(4) 0.0069(5) 0.0223(6) 0.0009(4) 0.0013(4) 0.0033(4)
O8 O2- 0.0095(4) 0.0068(4) 0.0103(5) -0.0013(3) -0.0005(4) 0.0004(4)
P4 P5+ 0.00469(14) 0.00813(15) 0.00736(15) -0.00038(12) -0.00054(11) 
0.00131(12)
O9 O2- 0.0144(5) 0.0210(6) 0.0081(5) -0.0007(4) -0.0011(4) 0.0035(4)
O10 O2- 0.0067(5) 0.0192(6) 0.0233(6) -0.0026(4) -0.0015(4) -0.0058(5)
O11 O2- 0.0073(5) 0.0184(6) 0.0226(6) 0.0016(4) 0.0001(4) -0.0061(5)
O12 O2- 0.0285(7) 0.0120(5) 0.0137(5) 0.0005(5) 0.0002(5) 0.0050(4)
K1 K1+ 0.00890(15) 0.0259(2) 0.0315(2) -0.00305(13) -0.00095(14) 
0.00066(16)
K2 K1+ 0.0578(5) 0.0224(3) 0.0628(6) 0 -0.0302(5) 0
#End of data_280905-ICSD


