data_161272-ICSD
#?2014 by Fachinformationszentrum Karlsruhe, and the U.S. Secretary of 
#Commerce on behalf of the United States.  All rights reserved.
_database_code_ICSD                161272
_audit_creation_date               2009/02/01
_audit_update_record               2011/02/01
_chemical_name_systematic
;
Dipotassium Trifluorosulfato(VI)aluminate
;
_chemical_formula_structural       'K2 (Al F3 (S O4))'
_chemical_formula_sum              'Al1 F3 K2 O4 S1'
_chemical_name_mineral             Thermessaite
_publ_section_title
;
Thermessaite, K2 (Al F3 (S O4)), a new ino-aluminofluoride-sulfate 
from La Fossa crater, Vulcano, Aeolian Islands, Italy
;
loop_
_citation_id
_citation_journal_abbrev
_citation_year
_citation_journal_volume
_citation_page_first
_citation_page_last
_citation_journal_id_ASTM
primary 'Canadian Mineralogist' 2008 46 693 700 CAMIA6
_publ_author_name
;
Demartin, F.;Gramaccioli, C.M.;Campostrini, I.;Orlandi, P.
;
_cell_length_a                     10.810(2)
_cell_length_b                     8.336(2)
_cell_length_c                     6.822(1)
_cell_angle_alpha                  90.
_cell_angle_beta                   90.
_cell_angle_gamma                  90.
_cell_volume                       614.75
_cell_formula_units_Z              4
_symmetry_space_group_name_H-M     'P b c n'
_symmetry_Int_Tables_number        60
_refine_ls_R_factor_all            .0286
loop_
_symmetry_equiv_pos_site_id
_symmetry_equiv_pos_as_xyz
  1	'x, -y, z+.5'
  2	'-x+.5, y+.5, z'
  3	'x+.5, y+.5, -z+.5'
  4	'-x, -y, -z'
  5	'-x, y, -z+.5'
  6	'x+.5, -y+.5, -z'
  7	'-x+.5, -y+.5, z+.5'
  8	'x, y, z'
loop_
_atom_type_symbol
_atom_type_oxidation_number
Al3+	3
F1-	-1
K1+	1
O2-	-2
S6+	6
loop_
_atom_site_label
_atom_site_type_symbol
_atom_site_symmetry_multiplicity
_atom_site_Wyckoff_symbol
_atom_site_fract_x
_atom_site_fract_y
_atom_site_fract_z
_atom_site_occupancy
_atom_site_attached_hydrogens
_atom_site_U_iso_or_equiv
K1 K1+ 8 d 0.69572(5) 0.32309(7) 0.20090(8) 1. 0 0.0232(2) 
S1 S6+ 4 c 0 0.18950(8) 0.25 1. 0 0.0125(2) 
Al1 Al3+ 4 b 0.5 0 0 1. 0 0.0102(2) 
F1 F1- 8 d 0.8438(1) 0.4474(2) 0.4773(2) 1. 0 0.0174(3) 
F2 F1- 4 c 0.5 0.0840(2) 0.250 1. 0 0.0155(4) 
O1 O2- 8 d -0.1002(2) 0.0950(2) 0.3301(2) 1. 0 0.0245(4) 
O2 O2- 8 d -0.0528(1) 0.2958(2) 0.0936(2) 1. 0 0.0146(3) 

loop_
_atom_site_aniso_label
_atom_site_aniso_type_symbol
_atom_site_aniso_U_11
_atom_site_aniso_U_22
_atom_site_aniso_U_33
_atom_site_aniso_U_12
_atom_site_aniso_U_13
_atom_site_aniso_U_23
K1 K1+ 0.0212(3) 0.0237(3) 0.0246(3) 0.0027(2) -0.0043(2) -0.0082(2)
S1 S6+ 0.0165(4) 0.0102(4) 0.0108(3) 0. 0.0004(3) 0.
Al1 Al3+ 0.0117(4) 0.0116(4) 0.0074(4) -0.0004(3) 0.0002(3) 0.0000(3)
F1 F1- 0.0128(6) 0.0203(6) 0.0191(7) -0.0023(5) -0.0015(5) -0.0013(5)
F2 F1- 0.0240(10) 0.0146(9) 0.0077(8) 0. 0.0010(7) 0.
O1 O2- 0.0309(10) 0.0215(9) 0.0211(9) -0.0118(7) 0.0012(7) 0.0058(7)
O2 O2- 0.0189(8) 0.0124(7) 0.0125(7) -0.0014(6) -0.0026(6) 0.0021(6)
#End of data_161272-ICSD


