data_33808-ICSD
#?2014 by Fachinformationszentrum Karlsruhe, and the U.S. Secretary of 
#Commerce on behalf of the United States.  All rights reserved.
_database_code_ICSD                33808
_audit_creation_date               1991/07/10
_chemical_name_systematic
;
Tetrapotassium Catena-pentaoxotriberyllate
;
_chemical_formula_structural       'K4 (Be3 O5)'
_chemical_formula_sum              'Be3 K4 O5'
_publ_section_title                'Ein neues Oxoberyllat: K4(Be3O5)'
loop_
_citation_id
_citation_journal_abbrev
_citation_year
_citation_journal_volume
_citation_page_first
_citation_page_last
_citation_journal_id_ASTM
primary 'Zeitschrift fuer Anorganische und Allgemeine Chemie (1950) (DE)'
 1990 591 199 208 ZAACAB
_publ_author_name                  'Schuldt, D.;Hoppe, R.'
_cell_length_a                     10.381(3)
_cell_length_b                     7.228(2)
_cell_length_c                     10.788(3)
_cell_angle_alpha                  90.
_cell_angle_beta                   118.36(1)
_cell_angle_gamma                  90.(1)
_cell_volume                       712.31
_cell_formula_units_Z              4
_symmetry_space_group_name_H-M     'C 1 2/c 1'
_symmetry_Int_Tables_number        15
_refine_ls_R_factor_all            .03
loop_
_symmetry_equiv_pos_site_id
_symmetry_equiv_pos_as_xyz
  1	'x, -y, z+.5'
  2	'-x, -y, -z'
  3	'-x, y, -z+.5'
  4	'x, y, z'
  5	'x+.5, -y+.5, z+.5'
  6	'-x+.5, -y+.5, -z'
  7	'-x+.5, y+.5, -z+.5'
  8	'x+.5, y+.5, z'
loop_
_atom_type_symbol
_atom_type_oxidation_number
Be2+	2
K1+	1
O2-	-2
loop_
_atom_site_label
_atom_site_type_symbol
_atom_site_symmetry_multiplicity
_atom_site_Wyckoff_symbol
_atom_site_fract_x
_atom_site_fract_y
_atom_site_fract_z
_atom_site_occupancy
_atom_site_attached_hydrogens
K1 K1+ 8 f 0.1720(1) 0.0804(1) 0.5748(1) 1. 0 
K2 K1+ 8 f 0.3334(1) 0.1073(1) 0.9054(1) 1. 0 
O1 O2- 8 f 0.0495(2) 0.1782(2) 0.8776(2) 1. 0 
O2 O2- 8 f 0.1273(2) 0.8609(2) 0.7704(2) 1. 0 
O3 O2- 4 e 0.5 0.9776(4) 0.25 1. 0 
Be1 Be2+ 4 e 0 0.9787(6) 0.25 1. 0 
Be2 Be2+ 4 e 0 0.2692(5) 0.25 1. 0 
Be3 Be2+ 4 e 0 0.3107(6) 0.75 1. 0 

loop_
_atom_site_aniso_label
_atom_site_aniso_type_symbol
_atom_site_aniso_U_11
_atom_site_aniso_U_22
_atom_site_aniso_U_33
_atom_site_aniso_U_12
_atom_site_aniso_U_13
_atom_site_aniso_U_23
K1 K1+ 0.0177(3) 0.0210(3) 0.0180(3) -.0056(2) 0.0098(2) -.0058(2)
K2 K1+ 0.0190(3) 0.0220(3) 0.0187(3) -.0091(2) 0.0105(2) -.0070(2)
O1 O2- 0.0175(9) 0.0114(8) 0.0107(7) -.0010(6) 0.0058(7) -.0015(6)
O2 O2- 0.0104(8) 0.0099(8) 0.0227(9) 0.0003(6) 0.0094(7) -.0003(6)
O3 O2- 0.0245(15) 0.0083(12) 0.0486(19) 0 0.0225(15) 0
Be1 Be2+ 0.0100(19) 0.0084(18) 0.0105(18) 0 0.0056(16) 0
Be2 Be2+ 0.0108(20) 0.0089(18) 0.0133(19) 0 0.0054(16) 0
Be3 Be2+ 0.0107(19) 0.0073(19) 0.0147(20) 0 0.0059(16) 0
#End of data_33808-ICSD


