data_50228-ICSD
#?2014 by Fachinformationszentrum Karlsruhe, and the U.S. Secretary of 
#Commerce on behalf of the United States.  All rights reserved.
_database_code_ICSD                50228
_audit_creation_date               1999/06/02
_audit_update_record               2011/02/01
_chemical_name_systematic          'Dibarium Trimagnesium Fluoride'
_chemical_formula_structural       'Ba2 Mg3 F10'
_chemical_formula_sum              'Ba2 F10 Mg3'
_publ_section_title
;
Ba Mg F4 and Ba2 Mg3 F10: new examples for structural relationships 
between hydrides and fluorides
;
loop_
_citation_id
_citation_journal_abbrev
_citation_year
_citation_journal_volume
_citation_page_first
_citation_page_last
_citation_journal_id_ASTM
primary 'Zeitschrift fuer Anorganische und Allgemeine Chemie (1950) (DE)'
 1997 623 705 709 ZAACAB
_publ_author_name                  'Gingl, F.'
_cell_length_a                     18.495(2)
_cell_length_b                     5.9497(9)
_cell_length_c                     7.8187(9)
_cell_angle_alpha                  90.
_cell_angle_beta                   112.04(1)
_cell_angle_gamma                  90.
_cell_volume                       797.49
_cell_formula_units_Z              4
_symmetry_space_group_name_H-M     'C 1 2/m 1'
_symmetry_Int_Tables_number        12
_refine_ls_R_factor_all            .0166
loop_
_symmetry_equiv_pos_site_id
_symmetry_equiv_pos_as_xyz
  1	'-x, y, -z'
  2	'-x, -y, -z'
  3	'x, -y, z'
  4	'x, y, z'
  5	'-x+.5, y+.5, -z'
  6	'-x+.5, -y+.5, -z'
  7	'x+.5, -y+.5, z'
  8	'x+.5, y+.5, z'
loop_
_atom_type_symbol
_atom_type_oxidation_number
Ba2+	2
F1-	-1
Mg2+	2
loop_
_atom_site_label
_atom_site_type_symbol
_atom_site_symmetry_multiplicity
_atom_site_Wyckoff_symbol
_atom_site_fract_x
_atom_site_fract_y
_atom_site_fract_z
_atom_site_occupancy
_atom_site_attached_hydrogens
Ba1 Ba2+ 4 i 0.28377(1) 0 0.68528(2) 1. 0 
Ba2 Ba2+ 4 i 0.38596(1) 0 0.28016(2) 1. 0 
Mg1 Mg2+ 4 i 0.07411(4) 0 0.4541(1) 1. 0 
Mg2 Mg2+ 4 i 0.17724(4) 0 0.01464(9) 1. 0 
Mg3 Mg2+ 4 g 0 0.2533(1) 0 1. 0 
F1 F1- 8 j 0.11074(5) 0.2527(1) 0.0244(1) 1. 0 
F2 F1- 8 j 0.14809(5) 0.2379(1) 0.4744(1) 1. 0 
F3 F1- 4 i 0.02221(7) 0 0.1815(2) 1. 0 
F4 F1- 4 i 0.13432(8) 0 0.7435(2) 1. 0 
F5 F1- 4 i 0.23640(8) 0 0.2785(2) 1. 0 
F6 F1- 4 i 0.51735(7) 0 0.1796(2) 1. 0 
F7 F1- 4 h 0 0.2186(2) 0.5 1. 0 
F8 F1- 4 e 0.25 0.25 0 1. 0 

loop_
_atom_site_aniso_label
_atom_site_aniso_type_symbol
_atom_site_aniso_U_11
_atom_site_aniso_U_22
_atom_site_aniso_U_33
_atom_site_aniso_U_12
_atom_site_aniso_U_13
_atom_site_aniso_U_23
Ba1 Ba2+ 0.01151(6) 0.01213(6) 0.01093(6) 0 0.00463(5) 0
Ba2 Ba2+ 0.01088(6) 0.01131(6) 0.01064(6) 0 0.00464(5) 0
Mg1 Mg2+ 0.0094(3) 0.0099(3) 0.0088(3) 0 0.0030(3) 0
Mg2 Mg2+ 0.0091(3) 0.0104(3) 0.0088(3) 0 0.0039(3) 0
Mg3 Mg2+ 0.0100(3) 0.0092(3) 0.0122(3) 0 0.0052(2) 0
F1 F1- 0.0107(3) 0.0124(4) 0.0194(4) 0.0010(3) 0.0068(3) -.0008(3)
F2 F1- 0.0156(4) 0.0137(4) 0.0168(4) -.0021(3) 0.0070(3) 0.0006(3)
F3 F1- 0.0169(6) 0.0134(5) 0.0085(6) 0 0.0029(5) 0
F4 F1- 0.0217(6) 0.0250(7) 0.0092(6) 0 0.0061(5) 0
F5 F1- 0.0158(6) 0.0304(7) 0.0114(6) 0 0.0023(5) 0
F6 F1- 0.0188(6) 0.0121(5) 0.0116(6) 0 0.0061(5) 0
F7 F1- 0.0123(5) 0.0127(5) 0.0162(6) 0 0.0068(5) 0
F8 F1- 0.0185(6) 0.0211(6) 0.0265(7) 0.0066(5) 0.0107(5) 0.0028(6)
#End of data_50228-ICSD


