data_30246-ICSD
#?2014 by Fachinformationszentrum Karlsruhe, and the U.S. Secretary of 
#Commerce on behalf of the United States.  All rights reserved.
_database_code_ICSD                30246
_audit_creation_date               1980/01/01
_audit_update_record               2007/04/01
_chemical_name_systematic          'Trilithium Niobium Oxide'
_chemical_formula_structural       'Li3 Nb O4'
_chemical_formula_sum              'Li3 Nb1 O4'
_publ_section_title
;
Affinement de la structure de Nb Li3 O4
;
loop_
_citation_id
_citation_journal_abbrev
_citation_year
_citation_journal_volume
_citation_page_first
_citation_page_last
_citation_journal_id_ASTM
primary
;
Bulletin de la Societe Francaise de Mineralogie et de 
Cristallographie (72,1949-100,1977)
;
 1965 88 345 346 BUFCAE
2 'Journal of Alloys and Compounds' 1996 234 256 259 JALCEU
_publ_author_name                  'Grenier, J.C.;Bassi, G.'
_cell_length_a                     8.429(2)
_cell_length_b                     8.429(2)
_cell_length_c                     8.429(2)
_cell_angle_alpha                  90.
_cell_angle_beta                   90.
_cell_angle_gamma                  90.
_cell_volume                       598.86
_cell_formula_units_Z              8
_symmetry_space_group_name_H-M     'I 2 3'
_symmetry_Int_Tables_number        197
_refine_ls_R_factor_all            .06
loop_
_symmetry_equiv_pos_site_id
_symmetry_equiv_pos_as_xyz
  1	'-z, -x, y'
  2	'-y, -z, x'
  3	'-x, -y, z'
  4	'-z, x, -y'
  5	'-y, z, -x'
  6	'-x, y, -z'
  7	'z, -x, -y'
  8	'y, -z, -x'
  9	'x, -y, -z'
 10	'z, x, y'
 11	'y, z, x'
 12	'x, y, z'
 13	'-z+.5, -x+.5, y+.5'
 14	'-y+.5, -z+.5, x+.5'
 15	'-x+.5, -y+.5, z+.5'
 16	'-z+.5, x+.5, -y+.5'
 17	'-y+.5, z+.5, -x+.5'
 18	'-x+.5, y+.5, -z+.5'
 19	'z+.5, -x+.5, -y+.5'
 20	'y+.5, -z+.5, -x+.5'
 21	'x+.5, -y+.5, -z+.5'
 22	'z+.5, x+.5, y+.5'
 23	'y+.5, z+.5, x+.5'
 24	'x+.5, y+.5, z+.5'
loop_
_atom_type_symbol
_atom_type_oxidation_number
Li1+	1
Nb5+	5
O2-	-2
loop_
_atom_site_label
_atom_site_type_symbol
_atom_site_symmetry_multiplicity
_atom_site_Wyckoff_symbol
_atom_site_fract_x
_atom_site_fract_y
_atom_site_fract_z
_atom_site_occupancy
_atom_site_attached_hydrogens
Nb1 Nb5+ 8 c 0.143 0.143 0.143 1. 0 
Li1 Li1+ 24 f 0.37 0.387 0.121 1. 0 
O1 O2- 8 c 0.389 0.389 0.389 1. 0 
O2 O2- 24 f 0.367 0.123 0.132 1. 0 

#End of data_30246-ICSD


