data_401096-ICSD
#?2014 by Fachinformationszentrum Karlsruhe, and the U.S. Secretary of 
#Commerce on behalf of the United States.  All rights reserved.
_database_code_ICSD                401096
_audit_creation_date               1997/05/13
_audit_update_record               2005/10/01
_chemical_name_systematic
;
Hexaaquamagnesium Hexafluorogermanate
;
_chemical_formula_structural       '(Mg (H2 O)6) (Ge F6)'
_chemical_formula_sum              'H12 F6 Ge1 Mg1 O6'
_publ_section_title
;
Crystal structure of low temperature form of hexaaqua magnesium 
hexafluorogermanate, (Mg (H2 O)6) Ge F6
;
loop_
_citation_id
_citation_journal_abbrev
_citation_year
_citation_journal_volume
_citation_page_first
_citation_page_last
_citation_journal_id_ASTM
primary 'Zeitschrift fuer Kristallographie (1979-2010)' 1996 211 936 936 ZEKRDZ
2 'Golden Book of Phase Transitions, Wroclaw' 2002 1 1 123 GBOPT5
_publ_author_name
;
Stepen' Damm, Yu.;Lukaszewicz, K.;Hrabanski, R.
;
_cell_length_a                     6.560(1)
_cell_length_b                     9.590(2)
_cell_length_c                     8.530(2)
_cell_angle_alpha                  90.
_cell_angle_beta                   99.90(3)
_cell_angle_gamma                  90.
_cell_volume                       528.63
_cell_formula_units_Z              2
_symmetry_space_group_name_H-M     'P 1 21/c 1'
_symmetry_Int_Tables_number        14
_refine_ls_R_factor_all            .037
loop_
_symmetry_equiv_pos_site_id
_symmetry_equiv_pos_as_xyz
  1	'x, -y+.5, z+.5'
  2	'-x, -y, -z'
  3	'-x, y+.5, -z+.5'
  4	'x, y, z'
loop_
_atom_type_symbol
_atom_type_oxidation_number
F1-	-1
Ge4+	4
H1+	1
Mg2+	2
O2-	-2
loop_
_atom_site_label
_atom_site_type_symbol
_atom_site_symmetry_multiplicity
_atom_site_Wyckoff_symbol
_atom_site_fract_x
_atom_site_fract_y
_atom_site_fract_z
_atom_site_occupancy
_atom_site_attached_hydrogens
_atom_site_U_iso_or_equiv
Mg1 Mg2+ 2 a 0 0 0 1. 0 0 
Ge1 Ge4+ 2 d 0.5 0 0.5 1. 0 0 
F1 F1- 4 e -.4485(7) 0.0556(6) 0.3119(5) 1. 0 0 
F2 F1- 4 e 0.2627(7) 0.0949(5) 0.4673(6) 1. 0 0 
F3 F1- 4 e 0.3686(7) -.1502(5) 0.4090(5) 1. 0 0 
O1 O2- 4 e 0.2592(9) 0.1249(6) 0.0464(8) 1. 0 0 
O2 O2- 4 e 0.179(1) -.1666(6) 0.0901(7) 1. 0 0 
O3 O2- 4 e -.0626(9) 0.0390(8) 0.2230(6) 1. 0 0 
H1 H1+ 4 e 0.17(1) 0.183(9) 0.09(1) 1. 0 0.06(4) 
H2 H1+ 4 e 0.38(1) 0.12(1) 0.129(9) 1. 0 0.07(4) 
H3 H1+ 4 e 0.27(1) -.217(8) 0.036(8) 1. 0 0.03(2) 
H4 H1+ 4 e 0.24(2) -.17(1) 0.198(5) 1. 0 0.13(5) 
H5 H1+ 4 e 0.04(1) 0.07(1) 0.310(7) 1. 0 0.04(3) 
H6 H1+ 4 e -.179(9) 0.01(1) 0.26(1) 1. 0 0.06(3) 

loop_
_atom_site_aniso_label
_atom_site_aniso_type_symbol
_atom_site_aniso_U_11
_atom_site_aniso_U_22
_atom_site_aniso_U_33
_atom_site_aniso_U_12
_atom_site_aniso_U_13
_atom_site_aniso_U_23
Mg1 Mg2+ 0.023(2) 0.019(2) 0.021(2) 0.000(2) 0.007(1) -.001(1)
Ge1 Ge4+ 0.0196(6) 0.0168(6) 0.0192(6) -.0006(5) 0.0062(4) 0.0005(4)
F1 F1- 0.034(2) 0.049(3) 0.025(2) -.006(2) 0.009(2) 0.007(2)
F2 F1- 0.028(2) 0.036(3) 0.041(3) 0.011(2) 0.0002(2) -.007(2)
F3 F1- 0.040(3) 0.024(2) 0.034(2) -.011(2) -.001(2) -.003(2)
O1 O2- 0.031(3) 0.035(3) 0.050(4) -.010(3) -.005(3) 0.010(3)
O2 O2- 0.048(4) 0.033(3) 0.031(3) 0.019(3) 0.000(3) -.004(3)
O3 O2- 0.030(3) 0.069(5) 0.025(3) -.002(3) 0.009(2) -.010(3)
#End of data_401096-ICSD


