data_262271-ICSD
#?2014 by Fachinformationszentrum Karlsruhe, and the U.S. Secretary of 
#Commerce on behalf of the United States.  All rights reserved.
_database_code_ICSD                262271
_audit_creation_date               2012/08/01
_chemical_name_systematic
;
Magnesium Bis(chlorate(VII)) Tetrakis(hydrate)
;
_chemical_formula_structural       'Mg (Cl O4)2 (H2 O)4'
_chemical_formula_sum              'H8 Cl2 Mg1 O12'
_publ_section_title
;
Revision of the Mg (Cl O4)2 * 4 H2 O crystal structure
;
loop_
_citation_id
_citation_journal_abbrev
_citation_year
_citation_journal_volume
_citation_journal_issue
_citation_page_first
_citation_page_last
_citation_journal_id_ASTM
primary 'Acta Crystallographica, Section B: Structural Science'
 2012 68 1 89 90 ASBSDK
_publ_author_name
;
Solov'yov, L.A.
;
_cell_length_a                     11.4802(2)
_cell_length_b                     8.0016(4)
_cell_length_c                     5.9363(2)
_cell_angle_alpha                  90.000000
_cell_angle_beta                   112.3169(8)
_cell_angle_gamma                  90.000000
_cell_volume                       504.46
_cell_formula_units_Z              2
_symmetry_space_group_name_H-M     'C 1 2/m 1'
_symmetry_Int_Tables_number        12
_refine_ls_R_factor_all            .02
loop_
_symmetry_equiv_pos_site_id
_symmetry_equiv_pos_as_xyz
  1	'-x, y, -z'
  2	'-x, -y, -z'
  3	'x, -y, z'
  4	'x, y, z'
  5	'-x+.5, y+.5, -z'
  6	'-x+.5, -y+.5, -z'
  7	'x+.5, -y+.5, z'
  8	'x+.5, y+.5, z'
loop_
_atom_type_symbol
_atom_type_oxidation_number
Cl7+	7
H1+	1
Mg2+	2
O2-	-2
loop_
_atom_site_label
_atom_site_type_symbol
_atom_site_symmetry_multiplicity
_atom_site_Wyckoff_symbol
_atom_site_fract_x
_atom_site_fract_y
_atom_site_fract_z
_atom_site_occupancy
_atom_site_attached_hydrogens
_atom_site_U_iso_or_equiv
Cl1 Cl7+ 4 i 0.2974(2) 0.00000 0.3935(5) 1.0000 0 0.0373 
Mg1 Mg2+ 2 a 0.00000 0.00000 0.00000 1.0000 0 0.0255 
O1 O2- 4 i 0.1627(3) 0.00000 0.3207(6) 1.0000 0 0.0461 
O2 O2- 8 j 0.3321(2) 0.1458(3) 0.3056(6) 1.0000 0 0.1046 
O3 O2- 4 i 0.3507(3) 0.00000 0.6526(8) 1.0000 0 0.0696 
O4 O2- 4 g 0.00000 0.2513(5) 0.00000 1.0000 0 0.0566 
O5 O2- 4 i -0.1013(4) 0.00000 0.2218(9) 1.0000 0 0.0567 
H1 H1+ 8 j 0.036(5) 0.312(4) 0.121(6) 1.0000 0 0.095(15) 
H2 H1+ 8 j -0.124(2) -0.099(4) 0.222(6) 1.0000 0 0.079(17) 

loop_
_atom_site_aniso_label
_atom_site_aniso_type_symbol
_atom_site_aniso_U_11
_atom_site_aniso_U_22
_atom_site_aniso_U_33
_atom_site_aniso_U_12
_atom_site_aniso_U_13
_atom_site_aniso_U_23
Cl1 Cl7+ 0.023(2) 0.042(2) 0.046(3) 0.0000 0.0127(19) 0.0000
Mg1 Mg2+ 0.025(2) 0.037(3) 0.018(3) 0.0000 0.0116(19) 0.0000
O1 O2- 0.014(4) 0.099(4) 0.021(4) 0.0000 0.001(3) 0.0000
O2 O2- 0.102(4) 0.091(2) 0.138(4) -0.033(2) 0.064(3) 0.040(2)
O3 O2- 0.049(5) 0.092(4) 0.036(4) 0.0000 -0.021(3) 0.0000
O4 O2- 0.078(6) 0.033(5) 0.047(4) 0.0000 0.010(5) 0.0000
O5 O2- 0.054(4) 0.090(6) 0.045(3) 0.0000 0.041(2) 0.0000
#End of data_262271-ICSD


