data_97452-ICSD
#?2014 by Fachinformationszentrum Karlsruhe, and the U.S. Secretary of 
#Commerce on behalf of the United States.  All rights reserved.
_database_code_ICSD                97452
_audit_creation_date               2004/10/01
_audit_update_record               2007/08/01
_chemical_name_systematic
;
Trisodium Molybdenum Trioxide Trifluoride
;
_chemical_formula_structural       'Na3 Mo O3 F3'
_chemical_formula_sum              'F3 Mo1 Na3 O3'
_publ_section_title
;
A combined diffraction (XRD, electron and neutron) and electrical 
study of Na3 Mo O3 F3
;
loop_
_citation_id
_citation_journal_abbrev
_citation_year
_citation_journal_volume
_citation_page_first
_citation_page_last
_citation_journal_id_ASTM
primary 'Journal of Solid State Chemistry' 2003 174 450 458 JSSCBI
2 'Golden Book of Phase Transitions, Wroclaw' 2002 1 1 123 GBOPT5
_publ_author_name
;
Brink, F.J.;Noren, L.;Goossens, D.J.;Withers, R.L.;Liu Yun;Xu Chao-
Nan
;
_cell_length_a                     5.8378(1)
_cell_length_b                     5.8378(1)
_cell_length_c                     5.8378(1)
_cell_angle_alpha                  57.668(2)
_cell_angle_beta                   57.668(2)
_cell_angle_gamma                  57.668(2)
_cell_volume                       133.14
_cell_formula_units_Z              1
_symmetry_space_group_name_H-M     'R 3 R'
_symmetry_Int_Tables_number        146
_refine_ls_R_factor_all            .053
loop_
_symmetry_equiv_pos_site_id
_symmetry_equiv_pos_as_xyz
  1	'z, x, y'
  2	'y, z, x'
  3	'x, y, z'
loop_
_atom_type_symbol
_atom_type_oxidation_number
F1-	-1
Mo6+	6
Na1+	1
O2-	-2
loop_
_atom_site_label
_atom_site_type_symbol
_atom_site_symmetry_multiplicity
_atom_site_Wyckoff_symbol
_atom_site_fract_x
_atom_site_fract_y
_atom_site_fract_z
_atom_site_occupancy
_atom_site_attached_hydrogens
_atom_site_B_iso_or_equiv
Mo1 Mo6+ 1 a 0 0 0 1. 0 0.75(8) 
Na1 Na1+ 1 a 0.2651(7) 0.2651(7) 0.2651(7) 1. 0 0.7(1) 
Na2 Na1+ 1 a 0.490(1) 0.490(1) 0.490(1) 1. 0 0.8(1) 
Na3 Na1+ 1 a 0.7725(7) 0.7725(7) 0.7725(7) 1. 0 1.1(1) 
O1 O2- 3 b 0.3081(8) 0.7458(7) 0.0994(8) 1. 0 1.08(6) 
F1 F1- 3 b 0.6474(8) 0.1754(7) 0.8680(9) 1. 0 0.89(5) 

#End of data_97452-ICSD


