data_409998-ICSD
#?2014 by Fachinformationszentrum Karlsruhe, and the U.S. Secretary of 
#Commerce on behalf of the United States.  All rights reserved.
_database_code_ICSD                409998
_audit_creation_date               2010/02/01
_chemical_name_systematic
;
Dipotassium Hexaaquamagnesium(II) Bis(selenate)
;
_chemical_formula_structural       'K2 (Mg (H2 O)6) (Se O4)2'
_chemical_formula_sum              'H12 K2 Mg1 O14 Se2'
_publ_section_title
;
Crystal structure of Tutton¡§s salts K2 [M(II) (H2 O)6] (Se O4)2, 
M(II) = Co, Ni, Zn and refinement of the crystal structure of 
potassium hexaaquamagnesium(II) selenate, K2 [Mg (H2 O)6] (Se O4)2
;
loop_
_citation_id
_citation_journal_abbrev
_citation_year
_citation_journal_volume
_citation_journal_issue
_citation_page_first
_citation_page_last
_citation_journal_id_ASTM
primary 'Zeitschrift fuer Kristallographie - New Crystal Structures'
 2009 224 3 351 354 ZKNSFT
_publ_author_name
;
Euler, H.;Barbier, B.;Meents, A.;Kirfel, A.
;
_cell_length_a                     9.2640(11)
_cell_length_b                     12.4207(14)
_cell_length_c                     6.2514(8)
_cell_angle_alpha                  90.00
_cell_angle_beta                   104.286(10)
_cell_angle_gamma                  90.00
_cell_volume                       697.08
_cell_formula_units_Z              2
_symmetry_space_group_name_H-M     'P 1 21/a 1'
_symmetry_Int_Tables_number        14
_refine_ls_R_factor_all            .0168
loop_
_symmetry_equiv_pos_site_id
_symmetry_equiv_pos_as_xyz
  1	'x+.5, -y+.5, z'
  2	'-x, -y, -z'
  3	'-x+.5, y+.5, -z'
  4	'x, y, z'
loop_
_atom_type_symbol
_atom_type_oxidation_number
H1+	1
K1+	1
Mg2+	2
O2-	-2
Se6+	6
loop_
_atom_site_label
_atom_site_type_symbol
_atom_site_symmetry_multiplicity
_atom_site_Wyckoff_symbol
_atom_site_fract_x
_atom_site_fract_y
_atom_site_fract_z
_atom_site_occupancy
_atom_site_attached_hydrogens
_atom_site_U_iso_or_equiv
Mg1 Mg2+ 2 a 0.0000 0.0000 0.0000 1 0 0.0174(2) 
Se1 Se6+ 4 e 0.41266(2) 0.135344(16) 0.72637(3) 1 0 0.01886(10) 
O1 O2- 4 e 0.4047(2) 0.23776(13) 0.5589(3) 1 0 0.0355(4) 
O2 O2- 4 e 0.57109(18) 0.07428(17) 0.7542(3) 1 0 0.0479(5) 
O3 O2- 4 e 0.27898(16) 0.05200(12) 0.6127(2) 1 0 0.0263(3) 
O4 O2- 4 e 0.39231(18) 0.17647(12) 0.9670(2) 1 0 0.0285(4) 
O5 O2- 4 e 0.16587(19) 0.10584(14) 0.1677(3) 1 0 0.0255(4) 
O6 O2- 4 e -0.1633(2) 0.11122(15) 0.0327(3) 1 0 0.0245(3) 
O7 O2- 4 e -0.0091(2) -0.06742(14) 0.2905(3) 1 0 0.0253(3) 
K1 K1+ 4 e 0.13589(6) 0.34036(4) 0.33712(9) 1 0 0.03219(15) 
H1 H1+ 4 e 0.200(3) 0.086(2) 0.287(5) 1 0 0.033(8) 
H2 H1+ 4 e 0.222(3) 0.118(2) 0.114(5) 1 0 0.035(9) 
H3 H1+ 4 e -0.243(3) 0.100(2) -0.040(4) 1 0 0.027(7) 
H4 H1+ 4 e -0.145(3) 0.163(2) 0.017(5) 1 0 0.029(9) 
H5 H1+ 4 e -0.076(3) -0.060(2) 0.329(4) 1 0 0.023(7) 
H6 H1+ 4 e 0.019(3) -0.125(3) 0.342(5) 1 0 0.042(9) 

loop_
_atom_site_aniso_label
_atom_site_aniso_type_symbol
_atom_site_aniso_U_11
_atom_site_aniso_U_22
_atom_site_aniso_U_33
_atom_site_aniso_U_12
_atom_site_aniso_U_13
_atom_site_aniso_U_23
Mg1 Mg2+ 0.0163(5) 0.0188(5) 0.0167(5) -0.0007(4) 0.0034(4) 0.0004(4)
Se1 Se6+ 0.01663(13) 0.02137(14) 0.01827(13) -0.00225(8) 0.00373(8) 
-0.00215(8)
O1 O2- 0.0542(11) 0.0278(8) 0.0240(8) -0.0127(8) 0.0086(8) 0.0036(7)
O2 O2- 0.0214(9) 0.0644(13) 0.0530(12) 0.0129(8) -0.0002(8) -0.0139(10)
O3 O2- 0.0232(8) 0.0276(8) 0.0284(8) -0.0082(6) 0.0069(7) -0.0071(7)
O4 O2- 0.0414(9) 0.0276(8) 0.0184(7) -0.0051(7) 0.0108(7) -0.0042(6)
O5 O2- 0.0231(8) 0.0320(9) 0.0201(9) -0.0077(7) 0.0029(7) -0.0005(7)
O6 O2- 0.0209(9) 0.0222(9) 0.0300(9) 0.0003(7) 0.0058(7) 0.0006(7)
O7 O2- 0.0270(9) 0.0270(9) 0.0251(8) 0.0045(7) 0.0124(7) 0.0061(7)
K1 K1+ 0.0342(3) 0.0335(3) 0.0298(3) -0.0024(2) 0.0097(2) 0.0003(2)
#End of data_409998-ICSD


