data_63059-ICSD
#?2014 by Fachinformationszentrum Karlsruhe, and the U.S. Secretary of 
#Commerce on behalf of the United States.  All rights reserved.
_database_code_ICSD                63059
_audit_creation_date               1989/06/19
_audit_update_record               1995/10/17
_chemical_name_systematic
;
Potassium Tetracopper(II) Tris(arsenate)
;
_chemical_formula_structural       'K Cu4 (As O4)3'
_chemical_formula_sum              'As3 Cu4 K1 O12'
_publ_section_title
;
On the crystal chemistry of three copper(II)-arsenates: Cu3 (As O4)2-
III, Na4 Cu (As O4)2, and K Cu4 (As O4)3.
;
loop_
_citation_id
_citation_journal_abbrev
_citation_year
_citation_journal_volume
_citation_page_first
_citation_page_last
_citation_journal_id_ASTM
primary 'Monatshefte fuer Chemie' 1988 119 1103 1112 MOCMB7
_publ_author_name                  'Effenberger, H.'
_cell_length_a                     12.234(5)
_cell_length_b                     12.438(5)
_cell_length_c                     7.307(3)
_cell_angle_alpha                  90.
_cell_angle_beta                   118.17(2)
_cell_angle_gamma                  90.
_cell_volume                       980.18
_cell_formula_units_Z              4
_symmetry_space_group_name_H-M     'C 1 2/c 1'
_symmetry_Int_Tables_number        15
_refine_ls_R_factor_all            .029
loop_
_symmetry_equiv_pos_site_id
_symmetry_equiv_pos_as_xyz
  1	'x, -y, z+.5'
  2	'-x, -y, -z'
  3	'-x, y, -z+.5'
  4	'x, y, z'
  5	'x+.5, -y+.5, z+.5'
  6	'-x+.5, -y+.5, -z'
  7	'-x+.5, y+.5, -z+.5'
  8	'x+.5, y+.5, z'
loop_
_atom_type_symbol
_atom_type_oxidation_number
As5+	5
Cu2+	2
K1+	1
O2-	-2
loop_
_atom_site_label
_atom_site_type_symbol
_atom_site_symmetry_multiplicity
_atom_site_Wyckoff_symbol
_atom_site_fract_x
_atom_site_fract_y
_atom_site_fract_z
_atom_site_occupancy
_atom_site_attached_hydrogens
K1 K1+ 4 e 0 0.98753(9) 0.25 1. 0 
Cu1 Cu2+ 4 e 0 0.50351(4) 0.25 1. 0 
Cu2 Cu2+ 4 e 0 0.26307(5) 0.25 1. 0 
Cu3 Cu2+ 8 f 0.22379(3) 0.15695(3) 0.14369(6) 1. 0 
As1 As5+ 4 e 0 0.72197(4) 0.25 1. 0 
As2 As5+ 8 f 0.26780(3) 0.38189(2) 0.37532(4) 1. 0 
O1 O2- 8 f -.1013(2) 0.6228(2) 0.2423(3) 1. 0 
O2 O2- 8 f -.0466(2) 0.7958(2) 0.0350(3) 1. 0 
O3 O2- 8 f 0.1154(2) 0.3869(2) 0.3209(4) 1. 0 
O4 O2- 8 f 0.2777(2) 0.3067(2) 0.1931(3) 1. 0 
O5 O2- 8 f 0.3199(2) 0.5046(2) 0.3676(4) 1. 0 
O6 O2- 8 f 0.3531(2) 0.3329(2) 0.6180(3) 1. 0 

loop_
_atom_site_aniso_label
_atom_site_aniso_type_symbol
_atom_site_aniso_U_11
_atom_site_aniso_U_22
_atom_site_aniso_U_33
_atom_site_aniso_U_12
_atom_site_aniso_U_13
_atom_site_aniso_U_23
K1 K1+ 0.0171(4) 0.0162(4) 0.0177(4) 0 0.0056(3) 0
Cu1 Cu2+ 0.0093(2) 0.0068(2) 0.0186(2) 0 0.0071(2) 0
Cu2 Cu2+ 0.0083(2) 0.0089(2) 0.0265(3) 0 0.0069(2) 0
Cu3 Cu2+ 0.0079(1) 0.0078(2) 0.0174(2) 0.0001(1) 0.0053(1) -.0009(1)
As1 As5+ 0.0078(2) 0.0077(2) 0.0091(12) 0 0.0030(1) 0
As2 As5+ 0.0079(1) 0.0065(1) 0.0101(1) 0.0005(1) 0.0046(1) 0.0001(1)
O1 O2- 0.0085(8) 0.0074(9) 0.0223(10) 0.0009(7) 0.0076(7) 0.0000(7)
O2 O2- 0.0089(8) 0.014(1) 0.0110(8) 0.0009(8) 0.0037(7) 0.0030(7)
O3 O2- 0.0098(9) 0.0094(9) 0.0272(11) 0.0010(8) 0.0104(8) 0.0005(8)
O4 O2- 0.0139(9) 0.0106(9) 0.0121(8) -.0014(8) 0.0077(7) -.0018(7)
O5 O2- 0.0165(10) 0.0067(9) 0.0225(10) -.0005(8) 0.0113(8) 0.0013(8)
O6 O2- 0.0122(9) 0.0114(10) 0.0116(8) 0.0029(8) 0.0055(7) 0.0028(7)
#End of data_63059-ICSD


