data_63469-ICSD
#?2014 by Fachinformationszentrum Karlsruhe, and the U.S. Secretary of 
#Commerce on behalf of the United States.  All rights reserved.
_database_code_ICSD                63469
_audit_creation_date               1992/01/20
_chemical_name_systematic          'Potassium Tetrachloroferrate(III)'
_chemical_formula_structural       'K (Fe Cl4)'
_chemical_formula_sum              'Cl4 Fe1 K1'
_publ_section_title
;
Caracterisation et etude de proprietes physiques de conducteurs 
ioniques M Fe Cl4 (M = Li, Na, K, Rb, Cs)
;
loop_
_citation_id
_citation_journal_abbrev
_citation_year
_citation_journal_volume
_citation_page_first
_citation_page_last
_citation_journal_id_ASTM
primary 'European Journal of Solid State Inorganic Chemistry'
 1988 25 35 52 EJSCE5
_publ_author_name
;
Cerisier, J.;Guillot, C.;Palvadeau, P.;Rouxel, J.
;
_cell_length_a                     7.295(4)
_cell_length_b                     10.397(6)
_cell_length_c                     9.314(5)
_cell_angle_alpha                  90.
_cell_angle_beta                   93.93(4)
_cell_angle_gamma                  90.
_cell_volume                       704.77
_cell_formula_units_Z              4
_symmetry_space_group_name_H-M     'P 1 21 1'
_symmetry_Int_Tables_number        4
loop_
_symmetry_equiv_pos_site_id
_symmetry_equiv_pos_as_xyz
  1	'-x, y+.5, -z'
  2	'x, y, z'
loop_
_atom_type_symbol
_atom_type_oxidation_number
Cl1-	-1
Fe3+	3
K1+	1
loop_
_atom_site_label
_atom_site_type_symbol
_atom_site_symmetry_multiplicity
_atom_site_Wyckoff_symbol
_atom_site_fract_x
_atom_site_fract_y
_atom_site_fract_z
_atom_site_occupancy
_atom_site_attached_hydrogens
_atom_site_B_iso_or_equiv
Fe1 Fe3+ 2 a 0.01 0.66 0.99 1. 0 2.94 
Fe2 Fe3+ 2 a 0.49 0.55 0.56 1. 0 2.81 
Cl1 Cl1- 2 a 0.02 0.82 0.79 1. 0 5.25 
Cl2 Cl1- 2 a -.05 0.49 0.82 1. 0 4.56 
Cl3 Cl1- 2 a -.21 0.69 0.07 1. 0 4.28 
Cl4 Cl1- 2 a 0.26 0.65 0.05 1. 0 4.7 
Cl5 Cl1- 2 a 0.46 0.39 0.7 1. 0 4.85 
Cl6 Cl1- 2 a 0.54 0.72 0.69 1. 0 6.5 
Cl7 Cl1- 2 a 0.71 0.53 0.42 1. 0 4.27 
Cl8 Cl1- 2 a 0.23 0.57 0.44 1. 0 4.63 
K1 K1+ 2 a 0.44 0.92 0.94 1. 0 5.07 
K2 K1+ 2 a 0.05 0.3 0.56 1. 0 5.4 

#End of data_63469-ICSD


