data_34705-ICSD
#?2014 by Fachinformationszentrum Karlsruhe, and the U.S. Secretary of 
#Commerce on behalf of the United States.  All rights reserved.
_database_code_ICSD                34705
_audit_creation_date               1980/01/01
_audit_update_record               2007/08/01
_chemical_name_systematic
;
Magnesium Thiosulfate(VI) Hexahydrate
;
_chemical_formula_structural       'Mg (S2 O3) (H2 O)6'
_chemical_formula_sum              'H12 Mg1 O9 S2'
_publ_section_title
;
Refinement of the structure of magnesium thiosulphate hexahydrate, Mg 
S2 O3 (H2 O)6
;
loop_
_citation_id
_citation_journal_abbrev
_citation_year
_citation_journal_volume
_citation_page_first
_citation_page_last
_citation_journal_id_ASTM
primary 'Acta Crystallographica B (24,1968-38,1982)' 1969 25 2650 2653 ACBCAR
_publ_author_name                  'Baggio, S.;Amzel, L.M.;Becka, L.N.'
_cell_length_a                     9.397(10)
_cell_length_b                     14.455(15)
_cell_length_c                     6.864(9)
_cell_angle_alpha                  90.
_cell_angle_beta                   90.
_cell_angle_gamma                  90.
_cell_volume                       932.36
_cell_formula_units_Z              4
_symmetry_space_group_name_H-M     'P n m a'
_symmetry_Int_Tables_number        62
_refine_ls_R_factor_all            .06
loop_
_symmetry_equiv_pos_site_id
_symmetry_equiv_pos_as_xyz
  1	'x+.5, y, -z+.5'
  2	'x, -y+.5, z'
  3	'-x+.5, y+.5, z+.5'
  4	'-x, -y, -z'
  5	'-x+.5, -y, z+.5'
  6	'-x, y+.5, -z'
  7	'x+.5, -y+.5, -z+.5'
  8	'x, y, z'
loop_
_atom_type_symbol
_atom_type_oxidation_number
H1+	1
Mg2+	2
O2-	-2
S2-	-2
S6+	6
loop_
_atom_site_label
_atom_site_type_symbol
_atom_site_symmetry_multiplicity
_atom_site_Wyckoff_symbol
_atom_site_fract_x
_atom_site_fract_y
_atom_site_fract_z
_atom_site_occupancy
_atom_site_attached_hydrogens
_atom_site_B_iso_or_equiv
Mg1 Mg2+ 4 a 0 0 0 1. 0 0 
S1 S6+ 4 c 0.0411(2) 0.25 0.4406(2) 1. 0 0 
S2 S2- 4 c 0.2149(2) 0.25 0.6118(2) 1. 0 0 
O1 O2- 8 d -.0421(5) 0.1662(3) 0.4778(5) 1. 0 0 
O2 O2- 4 c 0.0904(7) 0.25 0.2372(7) 1. 0 0 
O3 O2- 8 d -.1545(3) 0.0807(2) 0.1469(4) 1. 0 0 
O4 O2- 8 d 0.1270(4) 0.1141(2) -.0295(5) 1. 0 0 
O5 O2- 8 d -.0982(4) 0.0270(2) -.2592(5) 1. 0 0 
H1 H1+ 8 d 0.877(15) 0.099(9) 0.232(21) 1. 0 1.3 
H2 H1+ 8 d 0.814(14) 0.122(9) 0.080(21) 1. 0 1.1 
H3 H1+ 8 d 0.127(14) 0.150(9) 0.062(20) 1. 0 2.2 
H4 H1+ 8 d 0.142(15) 0.142(10) 0.874(21) 1. 0 2.2 
H5 H1+ 8 d 0.898(15) 0.074(9) 0.655(20) 1. 0 3.5 
H6 H1+ 8 d 0.825(15) 0.985(9) 0.708(20) 1. 0 2.7 

loop_
_atom_site_aniso_label
_atom_site_aniso_type_symbol
_atom_site_aniso_B_11
_atom_site_aniso_B_22
_atom_site_aniso_B_33
_atom_site_aniso_B_12
_atom_site_aniso_B_13
_atom_site_aniso_B_23
Mg1 Mg2+ 0.0124(2) 0.0044(1) 0.0232(5) 0.0000(1) -.0028(3) -.0024(2)
S1 S6+ 0.0228(2) 0.0044(1) 0.0172(4) 0 -.0016(3) 0
S2 S2- 0.0204(2) 0.0076(1) 0.0308(5) 0 0.0008(3) 0
O1 O2- 0.0384(8) 0.0116(2) 0.0424(12) -.0020(4) -.0016(9) -.0020(5)
O2 O2- 0.0496(13) 0.0068(2) 0.0172(13) 0 -.0048(12) 0
O3 O2- 0.0180(5) 0.0064(1) 0.0264(10) -.0008(2) -.0008(6) 0.0008(3)
O4 O2- 0.0296(6) 0.0068(1) 0.0380(11) -.0028(3) -.0024(7) -.0024(4)
O5 O2- 0.0260(6) 0.0088(2) 0.0324(11) -.0012(3) 0.0020(8) -.0008(4)
#End of data_34705-ICSD


