data_414262-ICSD
#?2014 by Fachinformationszentrum Karlsruhe, and the U.S. Secretary of 
#Commerce on behalf of the United States.  All rights reserved.
_database_code_ICSD                414262
_audit_creation_date               2005/10/01
_chemical_name_systematic
;
Dibismuthtetrabromide Bis(aluminiumtetrabromide)
;
_chemical_formula_structural       '(Bi2 Br4) (Al Br4)2'
_chemical_formula_sum              'Al2 Bi2 Br12'
_publ_section_title
;
The Lewis acid-base adducts of bismuth and aluminium trihalides - 
crystal structures of [Bi2 X4] [Al X4]2 (X = Cl, Br)
;
loop_
_citation_id
_citation_journal_abbrev
_citation_year
_citation_journal_volume
_citation_page_first
_citation_page_last
_citation_journal_id_ASTM
primary 'Zeitschrift fuer Kristallographie (1979-2010)' 2005 220 147 151 ZEKRDZ
_publ_author_name
;
Beck, J.;Hengstmann, M.;Schlueter, S.
;
_cell_length_a                     7.693(2)
_cell_length_b                     7.706(2)
_cell_length_c                     9.739(2)
_cell_angle_alpha                  104.19(2)
_cell_angle_beta                   102.65(2)
_cell_angle_gamma                  99.46(2)
_cell_volume                       531.44
_cell_formula_units_Z              1
_symmetry_space_group_name_H-M     'P -1'
_symmetry_Int_Tables_number        2
_refine_ls_R_factor_all            .0747
loop_
_symmetry_equiv_pos_site_id
_symmetry_equiv_pos_as_xyz
  1	'-x, -y, -z'
  2	'x, y, z'
loop_
_atom_type_symbol
_atom_type_oxidation_number
Al3+	3
Bi3+	3
Br1-	-1
loop_
_atom_site_label
_atom_site_type_symbol
_atom_site_symmetry_multiplicity
_atom_site_Wyckoff_symbol
_atom_site_fract_x
_atom_site_fract_y
_atom_site_fract_z
_atom_site_occupancy
_atom_site_attached_hydrogens
_atom_site_U_iso_or_equiv
Bi1 Bi3+ 2 i 0.47712(5) 0.80311(5) 0.29582(3) 1 0 0.02933(11) 
Al1 Al3+ 2 i 0.7237(4) 0.3188(4) 0.1563(3) 1 0 0.0263(5) 
Br1 Br1- 2 i 0.41670(14) 0.24439(16) 0.04765(10) 1 0 0.0463(3) 
Br2 Br1- 2 i 0.82154(14) 0.15176(14) 0.30762(10) 1 0 0.0395(2) 
Br3 Br1- 2 i 0.85869(13) 0.26259(14) -0.03723(9) 1 0 0.0360(2) 
Br4 Br1- 2 i 0.81600(13) 0.62640(13) 0.29104(10) 1 0 0.0358(2) 
Br5 Br1- 2 i 0.70409(13) 0.93496(13) 0.59195(9) 1 0 0.0317(2) 
Br6 Br1- 2 i 0.29540(14) 0.54157(14) 0.36163(11) 1 0 0.0405(2) 

loop_
_atom_site_aniso_label
_atom_site_aniso_type_symbol
_atom_site_aniso_U_11
_atom_site_aniso_U_22
_atom_site_aniso_U_33
_atom_site_aniso_U_12
_atom_site_aniso_U_13
_atom_site_aniso_U_23
Bi1 Bi3+ 0.03101(18) 0.03012(19) 0.02527(16) 0.00704(13) 0.00875(12) 
0.00425(12)
Al1 Al3+ 0.0308(14) 0.0237(13) 0.0214(11) 0.0057(11) 0.0048(10) 0.0035(10)
Br1 Br1- 0.0282(5) 0.0610(7) 0.0381(5) 0.0089(5) 0.0017(4) 0.0012(5)
Br2 Br1- 0.0442(5) 0.0404(6) 0.0336(4) 0.0079(4) 0.0023(4) 0.0191(4)
Br3 Br1- 0.0325(5) 0.0476(6) 0.0239(4) 0.0036(4) 0.0094(3) 0.0056(4)
Br4 Br1- 0.0308(5) 0.0281(5) 0.0399(5) 0.0096(4) 0.0041(4) -0.0023(4)
Br5 Br1- 0.0372(5) 0.0325(5) 0.0235(4) 0.0180(4) 0.0016(3) 0.0041(3)
Br6 Br1- 0.0430(6) 0.0340(5) 0.0477(5) 0.0086(4) 0.0139(4) 0.0167(4)
#End of data_414262-ICSD


