data_202246-ICSD
#?2014 by Fachinformationszentrum Karlsruhe, and the U.S. Secretary of 
#Commerce on behalf of the United States.  All rights reserved.
_database_code_ICSD                202246
_audit_creation_date               1988/12/19
_audit_update_record               1999/01/19
_chemical_name_systematic          'Magnesium Catena-silicate'
_chemical_formula_structural       'Mg (Si O3)'
_chemical_formula_sum              'Mg1 O3 Si1'
_chemical_name_mineral             Perovskite-(Mg,Si)
_publ_section_title
;
Perovskite-type Mg Si O3: Single-crystal x-ray diffraction study
;
loop_
_citation_id
_citation_journal_abbrev
_citation_year
_citation_journal_volume
_citation_page_first
_citation_page_last
_citation_journal_id_ASTM
primary 'American Mineralogist' 1987 72 357 360 AMMIAY
2 'Earth and Planetary Science Letters' 1978 38 443 450 EPSLA2
_publ_author_name                  'Horiuchi, H.;Ito, E.;Weidner, D.J.'
_cell_length_a                     4.7754(3)
_cell_length_b                     4.9292(4)
_cell_length_c                     6.8969(5)
_cell_angle_alpha                  90.
_cell_angle_beta                   90.
_cell_angle_gamma                  90.
_cell_volume                       162.35
_cell_formula_units_Z              4
_symmetry_space_group_name_H-M     'P b n m'
_symmetry_Int_Tables_number        62
_refine_ls_R_factor_all            .024
loop_
_symmetry_equiv_pos_site_id
_symmetry_equiv_pos_as_xyz
  1	'-x+.5, y+.5, z'
  2	'x, y, -z+.5'
  3	'x+.5, -y+.5, z+.5'
  4	'-x, -y, -z'
  5	'x+.5, -y+.5, -z'
  6	'-x, -y, z+.5'
  7	'-x+.5, y+.5, -z+.5'
  8	'x, y, z'
loop_
_atom_type_symbol
_atom_type_oxidation_number
Mg2+	2
O2-	-2
Si4+	4
loop_
_atom_site_label
_atom_site_type_symbol
_atom_site_symmetry_multiplicity
_atom_site_Wyckoff_symbol
_atom_site_fract_x
_atom_site_fract_y
_atom_site_fract_z
_atom_site_occupancy
_atom_site_attached_hydrogens
Mg1 Mg2+ 4 c 0.5141(1) 0.5560(1) 0.25 1. 0 
Si1 Si4+ 4 b 0.5 0 0.5 1. 0 
O1 O2- 4 c 0.1028(2) 0.4660(2) 0.25 1. 0 
O2 O2- 8 d 0.1961(1) 0.2014(2) 0.5531(1) 1. 0 

#End of data_202246-ICSD


