data_182534-ICSD
#?2014 by Fachinformationszentrum Karlsruhe, and the U.S. Secretary of 
#Commerce on behalf of the United States.  All rights reserved.
_database_code_ICSD                182534
_audit_creation_date               2012/02/01
_audit_update_record               2013/08/01
_chemical_name_systematic
;
Aluminium Trihydride - Alpha'
;
_chemical_formula_structural       'Al H3'
_chemical_formula_sum              'H3 Al1'
_publ_section_title
;
Stability enhancement by particle size reduction in Al H3
;
loop_
_citation_id
_citation_journal_abbrev
_citation_year
_citation_journal_volume
_citation_page_first
_citation_page_last
_citation_journal_id_ASTM
primary 'Journal of Alloys and Compounds' 2011 509 S662 S666 JALCEU
_publ_author_name
;
Vajeeston, P.;Ravindran, P.;Fjellvag, H.
;
_cell_length_a                     6.563
_cell_length_b                     11.228
_cell_length_c                     6.654
_cell_angle_alpha                  90.
_cell_angle_beta                   90.
_cell_angle_gamma                  90.
_cell_volume                       490.33
_cell_formula_units_Z              12
_symmetry_space_group_name_H-M     'C m c m'
_symmetry_Int_Tables_number        63
loop_
_symmetry_equiv_pos_site_id
_symmetry_equiv_pos_as_xyz
  1	'-x, y, -z+.5'
  2	'-x, -y, z+.5'
  3	'-x, y, z'
  4	'-x, -y, -z'
  5	'x, -y, z+.5'
  6	'x, y, -z+.5'
  7	'x, -y, -z'
  8	'x, y, z'
  9	'-x+.5, y+.5, -z+.5'
 10	'-x+.5, -y+.5, z+.5'
 11	'-x+.5, y+.5, z'
 12	'-x+.5, -y+.5, -z'
 13	'x+.5, -y+.5, z+.5'
 14	'x+.5, y+.5, -z+.5'
 15	'x+.5, -y+.5, -z'
 16	'x+.5, y+.5, z'
loop_
_atom_type_symbol
_atom_type_oxidation_number
Al3+	3
H1-	-1
loop_
_atom_site_label
_atom_site_type_symbol
_atom_site_symmetry_multiplicity
_atom_site_Wyckoff_symbol
_atom_site_fract_x
_atom_site_fract_y
_atom_site_fract_z
_atom_site_occupancy
_atom_site_attached_hydrogens
Al1 Al3+ 4 b 0 0.5 0 1. 0 
Al2 Al3+ 8 d 0.250 0.250 0 1. 0 
H1 H1- 8 f 0 0.2139 0.4447 1. 0 
H2 H1- 16 h 0.3094 0.1024 0.0505 1. 0 
H3 H1- 4 c 0 0.4571 0.250 1. 0 
H4 H1- 8 g 0.2068 0.2860 0.250 1. 0 

#End of data_182534-ICSD


