data_166446-ICSD
#?2014 by Fachinformationszentrum Karlsruhe, and the U.S. Secretary of 
#Commerce on behalf of the United States.  All rights reserved.
_database_code_ICSD                166446
_audit_creation_date               2010/08/01
_chemical_name_systematic          'Sodium Tetrahydridoborate - Hp'
_chemical_formula_structural       'Na (B H4)'
_chemical_formula_sum              'H4 B1 Na1'
_publ_section_title
;
High-pressure phase of Na B H4: crystal structure from synchrotron 
powder diffraction data
;
loop_
_citation_id
_citation_journal_abbrev
_citation_year
_citation_journal_volume
_citation_page_first
_citation_page_last
_citation_journal_id_ASTM
primary 'Physical Review, Serie 3. B - Condensed Matter (18,1978-)'
 2007 76 092104-1 092104-4 PRBMDO
_publ_author_name
;
Filinchuk, Y.;Talyzin, A.V.;Chernyshov, D.;Dmitriev, V.
;
_cell_length_a                     7.2970(11)
_cell_length_b                     4.1166(5)
_cell_length_c                     5.5692(7)
_cell_angle_alpha                  90.
_cell_angle_beta                   90.
_cell_angle_gamma                  90.
_cell_volume                       167.29
_cell_formula_units_Z              4
_symmetry_space_group_name_H-M     'P n m a'
_symmetry_Int_Tables_number        62
_refine_ls_R_factor_all            .06
loop_
_symmetry_equiv_pos_site_id
_symmetry_equiv_pos_as_xyz
  1	'x+.5, y, -z+.5'
  2	'x, -y+.5, z'
  3	'-x+.5, y+.5, z+.5'
  4	'-x, -y, -z'
  5	'-x+.5, -y, z+.5'
  6	'-x, y+.5, -z'
  7	'x+.5, -y+.5, -z+.5'
  8	'x, y, z'
loop_
_atom_type_symbol
_atom_type_oxidation_number
B3+	3
H1-	-1
Na1+	1
loop_
_atom_site_label
_atom_site_type_symbol
_atom_site_symmetry_multiplicity
_atom_site_Wyckoff_symbol
_atom_site_fract_x
_atom_site_fract_y
_atom_site_fract_z
_atom_site_occupancy
_atom_site_attached_hydrogens
_atom_site_B_iso_or_equiv
Na1 Na1+ 4 c 0.1540(5) 0.250 0.2107(3) 1. 0 1.96(2) 
B1 B3+ 4 c 0.5924(3) 0.250 0.7841(5) 1. 0 2.46(15) 
H1 H1- 4 c 0.4676(7) 0.250 0.9161(11) 1. 0 0.5(4) 
H2 H1- 4 c 0.7298(6) 0.250 0.8926(12) 1. 0 0.5(4) 
H3 H1- 8 d 0.4135(9) 0.9825(8) 0.3363(9) 1. 0 0.5(4) 

#End of data_166446-ICSD


