data_25601-ICSD
#?2014 by Fachinformationszentrum Karlsruhe, and the U.S. Secretary of 
#Commerce on behalf of the United States.  All rights reserved.
_database_code_ICSD                25601
_audit_creation_date               1986/10/15
_chemical_name_systematic          'Calcium Hydride Chloride'
_chemical_formula_structural       'Ca H Cl'
_chemical_formula_sum              'H1 Ca1 Cl1'
_publ_section_title
;
Ueber die Hydridchloride der Erdalkalimetalle
;
loop_
_citation_id
_citation_journal_abbrev
_citation_year
_citation_journal_volume
_citation_page_first
_citation_page_last
_citation_journal_id_ASTM
primary 'Zeitschrift fuer Anorganische und Allgemeine Chemie (1950) (DE)'
 1956 283 58 73 ZAACAB
_publ_author_name                  'Ehrlich, P.;Alt, B.;Gentsch, L.'
_cell_length_a                     3.851
_cell_length_b                     3.851
_cell_length_c                     6.861
_cell_angle_alpha                  90.
_cell_angle_beta                   90.
_cell_angle_gamma                  90.
_cell_volume                       101.75
_cell_formula_units_Z              2
_symmetry_space_group_name_H-M     'P 4/n m m S'
_symmetry_Int_Tables_number        129
loop_
_symmetry_equiv_pos_site_id
_symmetry_equiv_pos_as_xyz
  1	'-y+.5, -x+.5, z'
  2	'y+.5, x+.5, z'
  3	'-y, -x, -z'
  4	'y, x, -z'
  5	'y+.5, -x+.5, z'
  6	'-y+.5, x+.5, z'
  7	'y, -x, -z'
  8	'-y, x, -z'
  9	'x+.5, -y+.5, -z'
 10	'-x+.5, y+.5, -z'
 11	'x, -y, z'
 12	'-x, y, z'
 13	'-x+.5, -y+.5, -z'
 14	'x+.5, y+.5, -z'
 15	'-x, -y, z'
 16	'x, y, z'
loop_
_atom_type_symbol
_atom_type_oxidation_number
Ca2+	2
Cl1-	-1
H1-	-1
loop_
_atom_site_label
_atom_site_type_symbol
_atom_site_symmetry_multiplicity
_atom_site_Wyckoff_symbol
_atom_site_fract_x
_atom_site_fract_y
_atom_site_fract_z
_atom_site_occupancy
_atom_site_attached_hydrogens
Ca1 Ca2+ 2 c 0 0.5 0.146 1. 0 
H1 H1- 2 a 0 0 0 1. 0 
Cl1 Cl1- 2 c 0 0.5 0.695 1. 0 

#End of data_25601-ICSD


