data_411214-ICSD
#?2014 by Fachinformationszentrum Karlsruhe, and the U.S. Secretary of 
#Commerce on behalf of the United States.  All rights reserved.
_database_code_ICSD                411214
_audit_creation_date               2002/04/01
_audit_update_record               2008/02/01
_chemical_name_systematic          'Potassium Antimonate(III)'
_chemical_formula_structural       'K (Sb O2)'
_chemical_formula_sum              'K1 O2 Sb1'
_publ_section_title
;
Alkalimetall-Oxoantimonate: Synthesen, Kristallstrukturen und 
Schwingungsspektren von A Sb O2 (A= K, Rb), A4 Sb2 O5 (A= K, Rb, Cs) 
und Cs3 Sb O4
;
loop_
_citation_id
_citation_journal_abbrev
_citation_year
_citation_journal_volume
_citation_page_first
_citation_page_last
_citation_journal_id_ASTM
primary 'Zeitschrift fuer Anorganische und Allgemeine Chemie (1950) (DE)'
 2000 626 1305 1312 ZAACAB
_publ_author_name                  'Hirschle, C.;Roehr, C.'
_cell_length_a                     7.854
_cell_length_b                     8.221
_cell_length_c                     5.587
_cell_angle_alpha                  90.
_cell_angle_beta                   124.87
_cell_angle_gamma                  90.
_cell_volume                       295.97
_cell_formula_units_Z              4
_symmetry_space_group_name_H-M     'C 1 2/c 1'
_symmetry_Int_Tables_number        15
_refine_ls_R_factor_all            .0304
loop_
_symmetry_equiv_pos_site_id
_symmetry_equiv_pos_as_xyz
  1	'x, -y, z+.5'
  2	'-x, -y, -z'
  3	'-x, y, -z+.5'
  4	'x, y, z'
  5	'x+.5, -y+.5, z+.5'
  6	'-x+.5, -y+.5, -z'
  7	'-x+.5, y+.5, -z+.5'
  8	'x+.5, y+.5, z'
loop_
_atom_type_symbol
_atom_type_oxidation_number
K1+	1
O2-	-2
Sb3+	3
loop_
_atom_site_label
_atom_site_type_symbol
_atom_site_symmetry_multiplicity
_atom_site_Wyckoff_symbol
_atom_site_fract_x
_atom_site_fract_y
_atom_site_fract_z
_atom_site_occupancy
_atom_site_attached_hydrogens
K1 K1+ 4 e 0 0.6339(2) 0.25 1. 0 
Sb1 Sb3+ 4 e 0 0.09767(5) 0.25 1. 0 
O1 O2- 8 f 0.3184(5) 0.4489(5) 0.2803(8) 1. 0 

loop_
_atom_site_aniso_label
_atom_site_aniso_type_symbol
_atom_site_aniso_U_11
_atom_site_aniso_U_22
_atom_site_aniso_U_33
_atom_site_aniso_U_12
_atom_site_aniso_U_13
_atom_site_aniso_U_23
K1 K1+ 0.0149(8) 0.0290(9) 0.0148(8) 0 0.0055(7) 0
Sb1 Sb3+ 0.0134(4) 0.0191(4) 0.0127(4) 0 0.0085(3) 0
O1 O2- 0.0119(15) 0.0292(19) 0.0125(16) -.0053(16) 0.0060(12) -.0014(16)
#End of data_411214-ICSD


