data_88009-ICSD
#?2014 by Fachinformationszentrum Karlsruhe, and the U.S. Secretary of 
#Commerce on behalf of the United States.  All rights reserved.
_database_code_ICSD                88009
_audit_creation_date               2001/07/16
_audit_update_record               2012/02/01
_chemical_name_systematic
;
Disodium Tecto-tungstotetratellurate(IV)
;
_chemical_formula_structural       'Na2 (W Te4 O12)'
_chemical_formula_sum              'Na2 O12 Te4 W1'
_publ_section_title
;
Synthesis and characterization of novel three-dimensional tellurites, 
Na2 M Te4 O12 (M = W, Mo), with intersecting tunnels
;
loop_
_citation_id
_citation_journal_abbrev
_citation_year
_citation_journal_volume
_citation_page_first
_citation_page_last
_citation_journal_id_ASTM
primary 'Inorganic Chemistry' 1999 38 5809 5813 INOCAJ
_publ_author_name                  'Balraj, V.;Vidyasagar, K.'
_cell_length_a                     17.3480(30)
_cell_length_b                     5.7755(10)
_cell_length_c                     11.269(3)
_cell_angle_alpha                  90.
_cell_angle_beta                   104.33(2)
_cell_angle_gamma                  90.
_cell_volume                       1093.95
_cell_formula_units_Z              4
_symmetry_space_group_name_H-M     'C 1 2/c 1'
_symmetry_Int_Tables_number        15
_refine_ls_R_factor_all            .031
loop_
_symmetry_equiv_pos_site_id
_symmetry_equiv_pos_as_xyz
  1	'x, -y, z+.5'
  2	'-x, -y, -z'
  3	'-x, y, -z+.5'
  4	'x, y, z'
  5	'x+.5, -y+.5, z+.5'
  6	'-x+.5, -y+.5, -z'
  7	'-x+.5, y+.5, -z+.5'
  8	'x+.5, y+.5, z'
loop_
_atom_type_symbol
_atom_type_oxidation_number
Na1+	1
O2-	-2
Te4+	4
W6+	6
loop_
_atom_site_label
_atom_site_type_symbol
_atom_site_symmetry_multiplicity
_atom_site_Wyckoff_symbol
_atom_site_fract_x
_atom_site_fract_y
_atom_site_fract_z
_atom_site_occupancy
_atom_site_attached_hydrogens
_atom_site_U_iso_or_equiv
W1 W6+ 4 e 0 0.3404(1) 0.25 1. 0 0.007(1) 
Te1 Te4+ 8 f 0.4045(1) 0.2833(1) 0.4035(1) 1. 0 0.008(1) 
Te2 Te4+ 8 f 0.3440(1) 0.1732(1) 0.0651(1) 1. 0 0.009(1) 
O1 O2- 8 f 0.1095(4) 0.3991(15) 0.3402(7) 1. 0 0.011(2) 
O2 O2- 8 f 0.2423(4) 0.0730(15) 0.0747(8) 1. 0 0.015(2) 
O3 O2- 8 f 0.3370(5) 0.0132(15) 0.4114(7) 1. 0 0.014(2) 
O4 O2- 8 f 0.3430(5) 0.3502(14) 0.2474(7) 1. 0 0.013(2) 
O5 O2- 8 f 0.4865(5) 0.1231(15) 0.3639(7) 1. 0 0.014(2) 
O6 O2- 8 f 0.0260(5) 0.1471(15) 0.1441(8) 1. 0 0.015(2) 
Na1 Na1+ 8 f 0.2119(3) 0.2289(9) 0.2677(5) 1. 0 0.018(1) 

#End of data_88009-ICSD


