data_415537-ICSD
#?2014 by Fachinformationszentrum Karlsruhe, and the U.S. Secretary of 
#Commerce on behalf of the United States.  All rights reserved.
_database_code_ICSD                415537
_audit_creation_date               2007/04/01
_chemical_name_systematic          'Zinc Hydroxide Nitrate'
_chemical_formula_structural       'Zn (O H) (N O3)'
_chemical_formula_sum              'H1 N1 O4 Zn1'
_publ_section_title
;
Solvothermal synthesis and removal capacity fo hydrogen chloride gas 
of Zn (O H) (N O3) with rare (10,3)-d net
;
loop_
_citation_id
_citation_journal_abbrev
_citation_year
_citation_journal_volume
_citation_journal_issue
_citation_page_first
_citation_page_last
_citation_journal_id_ASTM
primary 'Journal of Solid State Chemistry' 2006 179 4 1230 1236 JSSCBI
_publ_author_name
;
Sun, J.;Zhou, Y.;Chen, Z.;Zhu, G.;Fang, Q.;Yang, R.;Qiu, S.;Zhao, D.
;
_cell_length_a                     9.148(3)
_cell_length_b                     7.596(3)
_cell_length_c                     5.500(2)
_cell_angle_alpha                  90.00
_cell_angle_beta                   90.00
_cell_angle_gamma                  90.00
_cell_volume                       382.19
_cell_formula_units_Z              4
_symmetry_space_group_name_H-M     'P n a 21'
_symmetry_Int_Tables_number        33
_refine_ls_R_factor_all            .0326
loop_
_symmetry_equiv_pos_site_id
_symmetry_equiv_pos_as_xyz
  1	'x+.5, -y+.5, z'
  2	'-x+.5, y+.5, z+.5'
  3	'-x, -y, z+.5'
  4	'x, y, z'
loop_
_atom_type_symbol
_atom_type_oxidation_number
H1+	1
N5+	5
O2-	-2
Zn2+	2
loop_
_atom_site_label
_atom_site_type_symbol
_atom_site_symmetry_multiplicity
_atom_site_Wyckoff_symbol
_atom_site_fract_x
_atom_site_fract_y
_atom_site_fract_z
_atom_site_occupancy
_atom_site_attached_hydrogens
_atom_site_U_iso_or_equiv
Zn1 Zn2+ 4 a -0.14427(5) 0.16802(6) 0.8271(2) 1 0 0.0236(2) 
O1 O2- 4 a -0.0126(4) 0.1009(5) 0.5640(7) 1 0 0.0245(7) 
O2 O2- 4 a 0.1586(4) 0.2770(6) 0.7119(9) 1 0 0.0310(9) 
O3 O2- 4 a 0.2209(4) 0.0465(5) 0.4883(8) 1 0 0.0310(8) 
N1 N5+ 4 a 0.1249(5) 0.1430(6) 0.5900(11) 1 0 0.0284(10) 
O4 O2- 4 a -0.0664(6) 0.3289(6) 1.0851(11) 1 0 0.0471(12) 
H1 H1+ 4 a -0.100(8) 0.428(5) 1.116(16) 1 0 0.05(2) 

loop_
_atom_site_aniso_label
_atom_site_aniso_type_symbol
_atom_site_aniso_U_11
_atom_site_aniso_U_22
_atom_site_aniso_U_33
_atom_site_aniso_U_12
_atom_site_aniso_U_13
_atom_site_aniso_U_23
Zn1 Zn2+ 0.0203(3) 0.0230(3) 0.0274(3) 0.00112(18) 0.0047(4) 0.0033(3)
O1 O2- 0.0189(14) 0.0280(18) 0.0267(18) -0.0046(15) 0.0009(15) -0.0044(17)
O2 O2- 0.0208(18) 0.0271(19) 0.045(2) -0.0042(14) 0.0052(18) -0.0140(19)
O3 O2- 0.0205(16) 0.0313(18) 0.041(2) -0.0012(15) 0.0064(17) -0.0152(16)
N1 N5+ 0.030(2) 0.029(2) 0.027(3) -0.0014(17) 0.002(2) -0.0013(19)
O4 O2- 0.049(3) 0.045(3) 0.047(3) -0.002(2) 0.005(3) -0.007(2)
#End of data_415537-ICSD


