data_171066-ICSD
#?2014 by Fachinformationszentrum Karlsruhe, and the U.S. Secretary of 
#Commerce on behalf of the United States.  All rights reserved.
_database_code_ICSD                171066
_audit_creation_date               2006/04/01
_audit_update_record               2008/08/01
_chemical_name_systematic          'Magnesium Silicate - Beta'
_chemical_formula_structural       'Mg2 Si O4'
_chemical_formula_sum              'Mg2 O4 Si1'
_chemical_name_mineral             'Wadsleyite, hydrous'
_publ_section_title
;
A systematic study of OH in hydrous wadsleyite from polarized FTIR 
spectroscopy and single-crystal x-ray diffraction: Oxygen sites for 
hydrogen storage in earths interior
;
loop_
_citation_id
_citation_journal_abbrev
_citation_year
_citation_journal_volume
_citation_page_first
_citation_page_last
_citation_journal_id_ASTM
primary 'American Mineralogist' 2005 90 61 70 AMMIAY
_publ_author_name
;
Jacobsen, S.D.;Demouchy, S.;Frost, D.J.;Boffa Ballaran, T.;Kung, J.
;
_cell_length_a                     5.6890(4)
_cell_length_b                     11.4830(4)
_cell_length_c                     8.2527(4)
_cell_angle_alpha                  90
_cell_angle_beta                   90
_cell_angle_gamma                  90
_cell_volume                       539.12
_cell_formula_units_Z              8
_symmetry_space_group_name_H-M     'I m m a'
_symmetry_Int_Tables_number        74
_refine_ls_R_factor_all            .051
loop_
_symmetry_equiv_pos_site_id
_symmetry_equiv_pos_as_xyz
  1	'-x, y+.5, -z'
  2	'-x, -y+.5, z'
  3	'-x, y, z'
  4	'-x, -y, -z'
  5	'x, -y+.5, z'
  6	'x, y+.5, -z'
  7	'x, -y, -z'
  8	'x, y, z'
  9	'-x+.5, y, -z+.5'
 10	'-x+.5, -y, z+.5'
 11	'-x+.5, y+.5, z+.5'
 12	'-x+.5, -y+.5, -z+.5'
 13	'x+.5, -y, z+.5'
 14	'x+.5, y, -z+.5'
 15	'x+.5, -y+.5, -z+.5'
 16	'x+.5, y+.5, z+.5'
loop_
_atom_type_symbol
_atom_type_oxidation_number
Mg2+	2
O2-	-2
Si4+	4
loop_
_atom_site_label
_atom_site_type_symbol
_atom_site_symmetry_multiplicity
_atom_site_Wyckoff_symbol
_atom_site_fract_x
_atom_site_fract_y
_atom_site_fract_z
_atom_site_occupancy
_atom_site_attached_hydrogens
_atom_site_U_iso_or_equiv
Mg1 Mg2+ 4 a 0.0 0.0 0.0 1. 0 0.00804(19) 
Mg2 Mg2+ 4 e 0.0 0.25 0.97013(10) 1. 0 0.00584(15) 
Mg3 Mg2+ 8 g 0.25 0.12516(6) 0.25 1. 0 0.00660(17) 
Si1 Si4+ 8 h 0.0 0.12033(3) 0.61619(4) 1. 0 0.00460(10) 
O1 O2- 4 e 0.0 0.25 0.21995(19) 1. 0 0.00702(26) 
O2 O2- 4 e 0.0 0.25 0.71649(17) 1. 0 0.00622(26) 
O3 O2- 8 h 0.0 0.98863(10) 0.25578(12) 1. 0 0.00663(22) 
O4 O2- 16 j 0.26092(14) 0.12317(7) 0.99359(8) 1. 0 0.00615(14) 

loop_
_atom_site_aniso_label
_atom_site_aniso_type_symbol
_atom_site_aniso_U_11
_atom_site_aniso_U_22
_atom_site_aniso_U_33
_atom_site_aniso_U_12
_atom_site_aniso_U_13
_atom_site_aniso_U_23
Mg1 Mg2+ 0.0093(5) 0.0049(3) 0.0099(3) 0.0 0.0 0.0009(2)
Mg2 Mg2+ 0.0073(4) 0.0048(3) 0.0054(3) 0.0 0.0 0.0
Mg3 Mg2+ 0.0054(3) 0.0084(3) 0.0060(3) 0.0 -0.00077(16) 0.0
Si1 Si4+ 0.00479(16) 0.00470(15) 0.00432(15) 0.0 0.0 -0.00017(12)
O1 O2- 0.0051(6) 0.0084(6) 0.0076(5) 0.0 0.0 0.0
O2 O2- 0.0085(7) 0.0061(6) 0.0040(5) 0.0 0.0 0.0
O3 O2- 0.0068(6) 0.0074(4) 0.0058(4) 0.0 0.0 0.0007(3)
O4 O2- 0.0056(3) 0.0067(3) 0.0062(3) 0.0003(3) 0.00071(19) 0.0003(2)
#End of data_171066-ICSD


