data_420015-ICSD
#?2014 by Fachinformationszentrum Karlsruhe, and the U.S. Secretary of 
#Commerce on behalf of the United States.  All rights reserved.
_database_code_ICSD                420015
_audit_creation_date               2010/02/01
_chemical_name_systematic
;
Potassium Phyllo-trithiodiargentoantimonate
;
_chemical_formula_structural       'K (Ag2 Sb S3)'
_chemical_formula_sum              'Ag2 K1 S3 Sb1'
_publ_section_title
;
Solvothermal syntheses of two novel layered quaternary silver-
antimony(III) sulfides with different strategies
;
loop_
_citation_id
_citation_journal_abbrev
_citation_year
_citation_journal_volume
_citation_page_first
_citation_page_last
_citation_journal_id_ASTM
primary 'Crystal Growth and Design' 2009 9 3821 3824 CGDEFU
_publ_author_name
;
Yao Huagang;Ji Min;Ji Shouhua;Zhang Renchun;An Yonglin;Ning Guiling
;
_cell_length_a                     6.7406(3)
_cell_length_b                     9.4172(4)
_cell_length_c                     10.9115(5)
_cell_angle_alpha                  90.697(3)
_cell_angle_beta                   92.804(3)
_cell_angle_gamma                  90.732(2)
_cell_volume                       691.69
_cell_formula_units_Z              4
_symmetry_space_group_name_H-M     'P -1'
_symmetry_Int_Tables_number        2
_refine_ls_R_factor_all            .0298
loop_
_symmetry_equiv_pos_site_id
_symmetry_equiv_pos_as_xyz
  1	'-x, -y, -z'
  2	'x, y, z'
loop_
_atom_type_symbol
_atom_type_oxidation_number
Ag1+	1
K1+	1
S2-	-2
Sb3+	3
loop_
_atom_site_label
_atom_site_type_symbol
_atom_site_symmetry_multiplicity
_atom_site_Wyckoff_symbol
_atom_site_fract_x
_atom_site_fract_y
_atom_site_fract_z
_atom_site_occupancy
_atom_site_attached_hydrogens
_atom_site_U_iso_or_equiv
Sb1 Sb3+ 2 i 0.46237(5) 0.94269(3) 0.85138(3) 1 0 0.01641(11) 
Sb2 Sb3+ 2 i 0.95025(5) 1.20945(4) 0.65315(3) 1 0 0.01616(11) 
Ag1 Ag1+ 2 i 0.48203(7) 1.26365(5) 0.85823(5) 1 0 0.02988(13) 
Ag2 Ag1+ 2 i 0.91909(8) 1.16071(6) 0.95364(5) 1 0 0.03420(14) 
Ag3 Ag1+ 2 i 0.97399(9) 0.89792(6) 0.65523(5) 1 0 0.03625(15) 
Ag4 Ag1+ 2 i 0.59122(8) 0.84148(6) 0.45616(5) 1 0 0.03562(15) 
S1 S2- 2 i 0.3616(2) 0.91217(15) 0.63772(12) 1 0 0.0200(3) 
S2 S2- 2 i 0.6445(2) 1.34084(15) 0.66265(13) 1 0 0.0210(3) 
K1 K1+ 2 i 0.6991(2) 1.42806(13) 0.36549(13) 1 0 0.0274(3) 
S3 S2- 2 i 0.3562(2) 0.71074(15) 0.92413(13) 1 0 0.0213(3) 
S4 S2- 2 i 0.8217(2) 0.91431(15) 0.86005(13) 1 0 0.0214(3) 
S5 S2- 2 i 1.1129(2) 1.31381(14) 0.48160(12) 1 0 0.0194(3) 
S6 S2- 2 i 1.1198(2) 1.33389(15) 0.82664(13) 1 0 0.0200(3) 
K2 K1+ 2 i 0.8010(3) 0.57662(17) 0.87153(17) 1 0 0.0430(4) 

loop_
_atom_site_aniso_label
_atom_site_aniso_type_symbol
_atom_site_aniso_U_11
_atom_site_aniso_U_22
_atom_site_aniso_U_33
_atom_site_aniso_U_12
_atom_site_aniso_U_13
_atom_site_aniso_U_23
Sb1 Sb3+ 0.01960(19) 0.01390(18) 0.01577(19) 0.00044(13) 0.00174(13) 
-0.00217(13)
Sb2 Sb3+ 0.01692(19) 0.01384(18) 0.01784(19) 0.00034(12) 0.00219(13) 
-0.00005(13)
Ag1 Ag1+ 0.0292(3) 0.0325(3) 0.0279(3) 0.00439(19) 0.00110(19) 0.00161(19)
Ag2 Ag1+ 0.0369(3) 0.0396(3) 0.0260(3) -0.0111(2) 0.0045(2) -0.0003(2)
Ag3 Ag1+ 0.0421(3) 0.0364(3) 0.0305(3) -0.0028(2) 0.0085(2) -0.0125(2)
Ag4 Ag1+ 0.0271(3) 0.0308(3) 0.0495(3) 0.00293(19) 0.0071(2) 0.0011(2)
S1 S2- 0.0217(7) 0.0217(7) 0.0167(6) -0.0012(5) 0.0011(5) -0.0011(5)
S2 S2- 0.0172(6) 0.0251(7) 0.0209(7) 0.0042(5) 0.0015(5) -0.0011(5)
K1 K1+ 0.0322(7) 0.0194(6) 0.0300(7) 0.0024(5) -0.0044(5) 0.0008(5)
S3 S2- 0.0245(7) 0.0194(6) 0.0200(7) -0.0035(5) 0.0021(5) 0.0001(5)
S4 S2- 0.0184(6) 0.0258(7) 0.0201(7) -0.0007(5) 0.0016(5) 0.0004(5)
S5 S2- 0.0194(6) 0.0201(6) 0.0188(6) -0.0013(5) 0.0012(5) 0.0004(5)
S6 S2- 0.0173(6) 0.0236(7) 0.0190(6) -0.0008(5) 0.0005(5) -0.0005(5)
K2 K1+ 0.0398(8) 0.0303(8) 0.0575(10) 0.0091(6) -0.0083(7) -0.0165(7)
#End of data_420015-ICSD


