data_422203-ICSD
#?2014 by Fachinformationszentrum Karlsruhe, and the U.S. Secretary of 
#Commerce on behalf of the United States.  All rights reserved.
_database_code_ICSD                422203
_audit_creation_date               2012/02/01
_chemical_name_systematic
;
Potassium Triniobium Hexaoxide Diselenate(IV)
;
_chemical_formula_structural       'K Nb3 O6 (Se O3)2'
_chemical_formula_sum              'K1 Nb3 O12 Se2'
_publ_section_title
;
A series of new phases in the alkali metal - Nb(V)/Ta(V) - 
Se(IV)/Te(IV) - O systems
;
loop_
_citation_id
_citation_journal_abbrev
_citation_year
_citation_journal_volume
_citation_page_first
_citation_page_last
_citation_journal_id_ASTM
primary 'Dalton Transactions' 2011 40 2562 2569 DTARAF
_publ_author_name
;
Gu, Qian Hua;Hu, Chun Li;Zhang, Jian Han;Mao, Jiang Gao
;
_cell_length_a                     3.9705(15)
_cell_length_b                     14.845(6)
_cell_length_c                     17.228(6)
_cell_angle_alpha                  90.00
_cell_angle_beta                   90.00
_cell_angle_gamma                  90.00
_cell_volume                       1015.45
_cell_formula_units_Z              4
_symmetry_space_group_name_H-M     'P b c m'
_symmetry_Int_Tables_number        57
_refine_ls_R_factor_all            .0289
loop_
_symmetry_equiv_pos_site_id
_symmetry_equiv_pos_as_xyz
  1	'x, -y+.5, z+.5'
  2	'-x, y+.5, z'
  3	'x, y, -z+.5'
  4	'-x, -y, -z'
  5	'-x, y+.5, -z+.5'
  6	'x, -y+.5, -z'
  7	'-x, -y, z+.5'
  8	'x, y, z'
loop_
_atom_type_symbol
_atom_type_oxidation_number
K1+	1
Nb5+	5
O2-	-2
Se4+	4
loop_
_atom_site_label
_atom_site_type_symbol
_atom_site_symmetry_multiplicity
_atom_site_Wyckoff_symbol
_atom_site_fract_x
_atom_site_fract_y
_atom_site_fract_z
_atom_site_occupancy
_atom_site_attached_hydrogens
_atom_site_U_iso_or_equiv
K1 K1+ 4 d 0.1992(4) 0.43221(12) 0.2500 1 0 0.0206(4) 
Nb1 Nb5+ 4 d 0.26088(15) 0.71093(4) 0.2500 1 0 0.00539(16) 
Nb2 Nb5+ 8 e -0.25566(10) 0.35199(3) 0.06683(3) 1 0 0.00570(14) 
Se1 Se4+ 8 e 0.58719(13) 0.58175(3) 0.10132(3) 1 0 0.00810(15) 
O1 O2- 8 e 0.3005(8) 0.5665(2) 0.0289(2) 1 0 0.0097(7) 
O2 O2- 8 e 0.6769(8) 0.4744(2) 0.1279(2) 1 0 0.0091(7) 
O3 O2- 8 e 0.3080(9) 0.6043(2) 0.1732(2) 1 0 0.0121(8) 
O4 O2- 8 e 0.3132(9) 0.7970(2) 0.1678(2) 1 0 0.0131(8) 
O5 O2- 4 d -0.1888(12) 0.7027(3) 0.2500 1 0 0.0125(11) 
O6 O2- 4 c -0.3156(12) 0.2500 0.0000 1 0 0.0129(11) 
O7 O2- 8 e 0.1898(8) 0.3581(2) 0.0671(2) 1 0 0.0119(8) 

loop_
_atom_site_aniso_label
_atom_site_aniso_type_symbol
_atom_site_aniso_U_11
_atom_site_aniso_U_22
_atom_site_aniso_U_33
_atom_site_aniso_U_12
_atom_site_aniso_U_13
_atom_site_aniso_U_23
K1 K1+ 0.0172(9) 0.0229(9) 0.0218(10) -0.0037(7) 0.000 0.000
Nb1 Nb5+ 0.0044(3) 0.0066(3) 0.0052(3) 0.0006(2) 0.000 0.000
Nb2 Nb5+ 0.0040(2) 0.0070(2) 0.0061(3) 0.00061(16) 0.00003(17) 0.00009(17)
Se1 Se4+ 0.0068(2) 0.0079(2) 0.0096(3) 0.00056(18) -0.0002(2) 0.00009(19)
O1 O2- 0.0089(17) 0.0117(17) 0.0086(19) 0.0003(13) -0.0023(14) 0.0017(15)
O2 O2- 0.0095(17) 0.0079(16) 0.0098(19) 0.0024(13) -0.0030(14) -0.0016(14)
O3 O2- 0.0092(18) 0.0157(18) 0.011(2) -0.0006(13) 0.0016(14) -0.0041(15)
O4 O2- 0.0135(18) 0.0140(18) 0.012(2) -0.0015(14) -0.0019(14) 0.0016(15)
O5 O2- 0.002(2) 0.021(3) 0.015(3) -0.0007(19) 0.000 0.000
O6 O2- 0.014(3) 0.011(3) 0.013(3) 0.000 0.000 -0.005(2)
O7 O2- 0.0026(17) 0.0167(19) 0.016(2) 0.0004(13) 0.0000(14) 0.0015(16)
#End of data_422203-ICSD


