data_107381-ICSD
#?2014 by Fachinformationszentrum Karlsruhe, and the U.S. Secretary of 
#Commerce on behalf of the United States.  All rights reserved.
_database_code_ICSD                107381
_audit_creation_date               2013/08/01
_chemical_name_systematic          'Aluminium Silicate Hydroxide *'
_chemical_formula_structural       'Al4 (O H)8 (Si4 O10)'
_chemical_formula_sum              'H8 Al4 O18 Si4'
_chemical_name_mineral             'Kaolinite 1A'
_publ_section_title
;
What is the Structure of Kaolinite? Reconciling Theory and Experiment
;
loop_
_citation_id
_citation_journal_abbrev
_citation_year
_citation_journal_volume
_citation_page_first
_citation_page_last
_citation_journal_id_ASTM
primary 'Clays and Clay Minerals (-28,1980)' 1988 36 225 232 CCMPA7
_publ_author_name
;
White, C.E.;Provis, J.L.;Riley, D.P.;Kearley, G.J.;van Deventer, 
J,S.J.
;
_cell_length_a                     5.149
_cell_length_b                     8.9335(1)
_cell_length_c                     7.3844(1)
_cell_angle_alpha                  91.930(1)
_cell_angle_beta                   105.042(1)
_cell_angle_gamma                  89.791(1)
_cell_volume                       327.84
_cell_formula_units_Z              1
_symmetry_space_group_name_H-M     'P 1'
_symmetry_Int_Tables_number        1
loop_
_symmetry_equiv_pos_site_id
_symmetry_equiv_pos_as_xyz
  1	'x, y, z'
loop_
_atom_type_symbol
_atom_type_oxidation_number
Al3+	3
H1+	1
O2-	-2
Si4+	4
loop_
_atom_site_label
_atom_site_type_symbol
_atom_site_symmetry_multiplicity
_atom_site_Wyckoff_symbol
_atom_site_fract_x
_atom_site_fract_y
_atom_site_fract_z
_atom_site_occupancy
_atom_site_attached_hydrogens
Al1 Al3+ 1 a 0.36205 0.49357 0.45902 1. 0 
Al2 Al3+ 1 a 0.35401 0.82967 0.45782 1. 0 
Al3 Al3+ 1 a 0.86203 0.99348 0.4592 1. 0 
Al4 Al3+ 1 a 0.8542 0.32948 0.45729 1. 0 
Si1 Si4+ 1 a 0.05544 0.33507 0.06853 1. 0 
Si2 Si4+ 1 a 0.06873 0.66394 0.07006 1. 0 
Si3 Si4+ 1 a 0.55555 0.83503 0.06874 1. 0 
Si4 Si4+ 1 a 0.56868 0.16386 0.07017 1. 0 
O1 O2- 1 a 0.11297 0.34962 0.29425 1. 0 
O2 O2- 1 a 0.17808 0.66138 0.29547 1. 0 
O3 O2- 1 a 0.07636 0.4962 -.0279 1. 0 
O4 O2- 1 a 0.25567 0.21858 -.00629 1. 0 
O5 O2- 1 a 0.24984 0.77025 -.02796 1. 0 
O6 O2- 1 a 0.61285 0.84959 0.29437 1. 0 
O7 O2- 1 a 0.67763 0.16112 0.29567 1. 0 
O8 O2- 1 a 0.57608 -.00387 -.0279 1. 0 
O9 O2- 1 a 0.75561 0.71853 -.0062 1. 0 
O10 O2- 1 a 0.74974 0.27019 -.02755 1. 0 
O11 O2- 1 a 0.11315 0.97019 0.30533 1. 0 
O12 O2- 1 a 0.02817 0.16596 0.58604 1. 0 
O13 O2- 1 a 0.09715 0.47545 0.58624 1. 0 
O14 O2- 1 a 0.09686 0.85355 0.5928 1. 0 
O15 O2- 1 a 0.61374 0.47013 0.30538 1. 0 
O16 O2- 1 a 0.52863 0.66617 0.58568 1. 0 
O17 O2- 1 a 0.59574 0.97623 0.58581 1. 0 
O18 O2- 1 a 0.5995 0.35509 0.59396 1. 0 
H1 H1+ 1 a 0.21221 0.0644 0.31831 1. 0 
H2 H1+ 1 a 0.11674 0.17035 0.71924 1. 0 
H3 H1+ 1 a 0.11405 0.49895 0.7182 1. 0 
H4 H1+ 1 a 0.1095 0.81729 0.71717 1. 0 
H5 H1+ 1 a 0.71236 0.5645 0.31858 1. 0 
H6 H1+ 1 a 0.61754 0.66988 0.71881 1. 0 
H7 H1+ 1 a 0.61285 0.99992 0.71776 1. 0 
H8 H1+ 1 a 0.60729 0.31546 0.71558 1. 0 

#End of data_107381-ICSD


