data_200117-ICSD
#?2014 by Fachinformationszentrum Karlsruhe, and the U.S. Secretary of 
#Commerce on behalf of the United States.  All rights reserved.
_database_code_ICSD                200117
_audit_creation_date               1980/01/01
_audit_update_record               2006/04/01
_chemical_name_systematic          'Magnesium Catena-silicate'
_chemical_formula_structural       'Mg (Si O3)'
_chemical_formula_sum              'Mg1 O3 Si1'
_chemical_name_mineral             Enstatite
_publ_section_title
;
Synthesis and crystal-structure refinement of transition-metal 
orthopyroxenes 1. Orthoenstatite and (Mg, Mn, Co) orthopyroxene
;
loop_
_citation_id
_citation_journal_abbrev
_citation_year
_citation_journal_volume
_citation_page_first
_citation_page_last
_citation_journal_id_ASTM
primary 'Canadian Mineralogist' 1977 15 321 338 CAMIA6
2 'Golden Book of Phase Transitions, Wroclaw' 2002 1 1 123 GBOPT5
_publ_author_name                  'Hawthorne, F.C.;Ito, J.'
_cell_length_a                     18.2160(20)
_cell_length_b                     8.813(1)
_cell_length_c                     5.179(1)
_cell_angle_alpha                  90.
_cell_angle_beta                   90.
_cell_angle_gamma                  90.
_cell_volume                       831.42
_cell_formula_units_Z              16
_symmetry_space_group_name_H-M     'P b c a'
_symmetry_Int_Tables_number        61
_refine_ls_R_factor_all            .033
loop_
_symmetry_equiv_pos_site_id
_symmetry_equiv_pos_as_xyz
  1	'x+.5, y, -z+.5'
  2	'x, -y+.5, z+.5'
  3	'-x+.5, y+.5, z'
  4	'-x, -y, -z'
  5	'-x+.5, -y, z+.5'
  6	'-x, y+.5, -z+.5'
  7	'x+.5, -y+.5, -z'
  8	'x, y, z'
loop_
_atom_type_symbol
_atom_type_oxidation_number
Mg2+	2
O2-	-2
Si4+	4
loop_
_atom_site_label
_atom_site_type_symbol
_atom_site_symmetry_multiplicity
_atom_site_Wyckoff_symbol
_atom_site_fract_x
_atom_site_fract_y
_atom_site_fract_z
_atom_site_occupancy
_atom_site_attached_hydrogens
Mg1 Mg2+ 8 c 0.37580(5) 0.65386(9) 0.8660(2) 1. 0 
Mg2 Mg2+ 8 c 0.37682(5) 0.4870(1) 0.3587(2) 1. 0 
Si1 Si4+ 8 c 0.27171(4) 0.34150(8) 0.0503(1) 1. 0 
Si2 Si4+ 8 c 0.47356(3) 0.33730(8) 0.7982(1) 1. 0 
O1 O2- 8 c 0.18332(9) 0.3399(2) 0.0346(3) 1. 0 
O2 O2- 8 c 0.3110(1) 0.5024(2) 0.0434(4) 1. 0 
O3 O2- 8 c 0.3032(1) 0.2262(2) -.1678(4) 1. 0 
O4 O2- 8 c 0.5624(1) 0.3402(2) 0.7997(4) 1. 0 
O5 O2- 8 c 0.4328(1) 0.4832(2) 0.6890(4) 1. 0 
O6 O2- 8 c 0.4477(1) 0.1950(2) 0.6040(3) 1. 0 

#End of data_200117-ICSD


