data_46012-ICSD
#?2014 by Fachinformationszentrum Karlsruhe, and the U.S. Secretary of 
#Commerce on behalf of the United States.  All rights reserved.
_database_code_ICSD                46012
_audit_creation_date               1984/09/03
_audit_update_record               2012/02/01
_chemical_name_systematic
;
Dipotassium Titanium Phyllo-hexasilicate
;
_chemical_formula_structural       'K2 Ti (Si6 O15)'
_chemical_formula_sum              'K2 O15 Si6 Ti1'
_chemical_name_mineral             Davanite
_publ_section_title
;
Darstellung und Kristallographie von K2 Ti S/6 O15 isotyp mit Dalyit 
K2 Zr Si6 O15
;
loop_
_citation_id
_citation_journal_abbrev
_citation_year
_citation_journal_volume
_citation_page_first
_citation_page_last
_citation_journal_id_ASTM
primary
;
TMPM. Tschermaks Mineralogische und Petrographische Mitteilungen 
(1979-)
;
 1983 31 69 79 TTMMDZ
_publ_author_name
;
Gebert, W.;Medenbach, O.;Floerke, O.W.
;
_cell_length_a                     7.250(2)
_cell_length_b                     7.474(2)
_cell_length_c                     6.909(3)
_cell_angle_alpha                  105.59
_cell_angle_beta                   112.81(5)
_cell_angle_gamma                  99.28(5)
_cell_volume                       317.2
_cell_formula_units_Z              1
_symmetry_space_group_name_H-M     'P -1'
_symmetry_Int_Tables_number        2
_refine_ls_R_factor_all            .034
loop_
_symmetry_equiv_pos_site_id
_symmetry_equiv_pos_as_xyz
  1	'-x, -y, -z'
  2	'x, y, z'
loop_
_atom_type_symbol
_atom_type_oxidation_number
K1+	1
O2-	-2
Si4+	4
Ti4+	4
loop_
_atom_site_label
_atom_site_type_symbol
_atom_site_symmetry_multiplicity
_atom_site_Wyckoff_symbol
_atom_site_fract_x
_atom_site_fract_y
_atom_site_fract_z
_atom_site_occupancy
_atom_site_attached_hydrogens
Ti1 Ti4+ 1 a 0 0 0 1. 0 
K1 K1+ 2 i 0.2862(4) 0.1818(4) 0.7091(4) 1. 0 
Si1 Si4+ 2 i 0.5053(1) 0.6877(1) 0.6856(1) 1. 0 
Si2 Si4+ 2 i 0.1664(1) 0.6301(1) 0.8504(1) 1. 0 
Si3 Si4+ 2 i 0.1885(1) 0.7424(1) 0.3030(1) 1. 0 
O1 O2- 1 h 0.5 0.5 0.5 1. 0 
O2 O2- 2 i 0.0131(4) 0.5780(4) 0.3054(4) 1. 0 
O3 O2- 2 i 0.0900(4) 0.8140(4) 0.8275(4) 1. 0 
O4 O2- 2 i 0.1011(4) 0.9183(4) 0.2613(4) 1. 0 
O5 O2- 2 i 0.2586(4) 0.6436(4) 0.1132(4) 1. 0 
O6 O2- 2 i 0.2681(4) 0.1906(4) 0.1182(4) 1. 0 
O7 O2- 2 i 0.3616(4) 0.6102(4) 0.7949(4) 1. 0 
O8 O2- 2 i 0.3931(4) 0.8196(4) 0.5485(4) 1. 0 

loop_
_atom_site_aniso_label
_atom_site_aniso_type_symbol
_atom_site_aniso_U_11
_atom_site_aniso_U_22
_atom_site_aniso_U_33
_atom_site_aniso_U_12
_atom_site_aniso_U_13
_atom_site_aniso_U_23
Ti1 Ti4+ 0.008 0.009 0.01 0.004 0.004 0.005
K1 K1+ 0.02 0.026 0.025 0.007 0.011 0.002
Si1 Si4+ 0.007 0.01 0.009 0.004 0.004 0.005
Si2 Si4+ 0.009 0.01 0.01 0.005 0.006 0.005
Si3 Si4+ 0.009 0.01 0.01 0.004 0.005 0.005
O1 O2- 0.027 0.02 0.015 0.014 0.011 0.005
O2 O2- 0.015 0.014 0.017 0 0.007 0.005
O3 O2- 0.021 0.016 0.015 0.013 0.01 0.008
O4 O2- 0.014 0.014 0.012 0.008 0.006 0.007
O5 O2- 0.017 0.018 0.012 0.011 0.008 0.008
O6 O2- 0.009 0.018 0.017 0.001 0.001 0.008
O7 O2- 0.012 0.021 0.02 0.008 0.012 0.013
O8 O2- 0.012 0.012 0.012 0.005 0.003 0.006
#End of data_46012-ICSD


