data_51466-ICSD
#?2014 by Fachinformationszentrum Karlsruhe, and the U.S. Secretary of 
#Commerce on behalf of the United States.  All rights reserved.
_database_code_ICSD                51466
_audit_creation_date               2003/04/01
_chemical_name_systematic
;
Dicalcium Manganese(III) Gallium Oxide
;
_chemical_formula_structural       'Ca2 Mn Ga O5'
_chemical_formula_sum              'Ca2 Ga1 Mn1 O5'
_publ_section_title
;
Synthesis and crystal structure of novel layered manganese oxide Ca2 
Mn Ga O(5+delta)
;
loop_
_citation_id
_citation_journal_abbrev
_citation_year
_citation_journal_volume
_citation_page_first
_citation_page_last
_citation_journal_id_ASTM
primary 'Journal of Solid State Chemistry' 2001 158 100 111 JSSCBI
_publ_author_name
;
Abakumov, A.M.;Rozova, M.G.;Pavlyuk, B.P.;Lobanov, M.V.;Antipov, 
E.V.;Lebedev, O.I.;van Tendeloo, G.;Sheptyakov, D.V.;Balagurov, 
A.M.;Bouree, F.
;
_cell_length_a                     15.231(2)
_cell_length_b                     5.4783(9)
_cell_length_c                     5.2722(8)
_cell_angle_alpha                  90
_cell_angle_beta                   90
_cell_angle_gamma                  90
_cell_volume                       439.91
_cell_formula_units_Z              4
_symmetry_space_group_name_H-M     'I m a 2'
_symmetry_Int_Tables_number        46
_refine_ls_R_factor_all            .0502
loop_
_symmetry_equiv_pos_site_id
_symmetry_equiv_pos_as_xyz
  1	'x+.5, -y, z'
  2	'-x+.5, y, z'
  3	'-x, -y, z'
  4	'x, y, z'
  5	'x, -y+.5, z+.5'
  6	'-x, y+.5, z+.5'
  7	'-x+.5, -y+.5, z+.5'
  8	'x+.5, y+.5, z+.5'
loop_
_atom_type_symbol
_atom_type_oxidation_number
Ca2+	2
Ga3+	3
Mn3+	3
O2-	-2
loop_
_atom_site_label
_atom_site_type_symbol
_atom_site_symmetry_multiplicity
_atom_site_Wyckoff_symbol
_atom_site_fract_x
_atom_site_fract_y
_atom_site_fract_z
_atom_site_occupancy
_atom_site_attached_hydrogens
_atom_site_B_iso_or_equiv
Ca1 Ca2+ 8 c 0.112(1) 0.018(4) 0.515(3) 1. 0 0.5 
Mn1 Mn3+ 4 a 0.0 0.0 0.062(7) 1. 0 0.5 
Ga1 Ga3+ 4 b 0.25 0.928(4) 0.047(5) 1. 0 0.5 
O1 O2- 8 c 0.989(1) 0.258(3) 0.249(4) 1. 0 0.70(2) 
O2 O2- 8 c 0.141(1) 0.066(3) 0.968(5) 1. 0 0.70(2) 
O3 O2- 4 b 0.25 0.641(3) 0.161(5) 1. 0 0.70(2) 

#End of data_51466-ICSD


