data_420407-ICSD
#?2014 by Fachinformationszentrum Karlsruhe, and the U.S. Secretary of 
#Commerce on behalf of the United States.  All rights reserved.
_database_code_ICSD                420407
_audit_creation_date               2010/02/01
_chemical_name_systematic
;
Hexasilver Trimolybdotetratellurate(IV)
;
_chemical_formula_structural       'Ag6 (W3 Te4 O20)'
_chemical_formula_sum              'Ag6 O20 Te4 W3'
_publ_section_title
;
Explorations of new second-order NLO materials in the Ag(I) - 
Mo(VI)/W(VI) - Te(IV) - O systems
;
loop_
_citation_id
_citation_journal_abbrev
_citation_year
_citation_journal_volume
_citation_page_first
_citation_page_last
_citation_journal_id_ASTM
primary 'Dalton Transactions' 2009 2009 5747 5754 DTARAF
_publ_author_name
;
Zhou Yong;Hu Chunli;Hu Ting;Kong Fang;Mao Jiang Gao
;
_cell_length_a                     29.792(9)
_cell_length_b                     6.7016(19)
_cell_length_c                     9.534(3)
_cell_angle_alpha                  90.00
_cell_angle_beta                   91.745(6)
_cell_angle_gamma                  90.00
_cell_volume                       1902.62
_cell_formula_units_Z              4
_symmetry_space_group_name_H-M     'C 1 2/c 1'
_symmetry_Int_Tables_number        15
_refine_ls_R_factor_all            .0174
loop_
_symmetry_equiv_pos_site_id
_symmetry_equiv_pos_as_xyz
  1	'x, -y, z+.5'
  2	'-x, -y, -z'
  3	'-x, y, -z+.5'
  4	'x, y, z'
  5	'x+.5, -y+.5, z+.5'
  6	'-x+.5, -y+.5, -z'
  7	'-x+.5, y+.5, -z+.5'
  8	'x+.5, y+.5, z'
loop_
_atom_type_symbol
_atom_type_oxidation_number
Ag1+	1
O2-	-2
Te4+	4
W6+	6
loop_
_atom_site_label
_atom_site_type_symbol
_atom_site_symmetry_multiplicity
_atom_site_Wyckoff_symbol
_atom_site_fract_x
_atom_site_fract_y
_atom_site_fract_z
_atom_site_occupancy
_atom_site_attached_hydrogens
_atom_site_U_iso_or_equiv
W1 W6+ 4 e 0.0000 0.06644(4) 0.2500 1 0 0.00945(7) 
W2 W6+ 8 f 0.165061(6) 0.18745(3) -0.15378(2) 1 0 0.00897(6) 
Te1 Te4+ 8 f 0.079822(10) 0.13932(4) -0.46169(3) 1 0 0.00922(8) 
Te2 Te4+ 8 f 0.229736(10) 0.13100(4) 0.14640(3) 1 0 0.00873(8) 
Ag1 Ag1+ 8 f -0.031757(17 -0.39228(7) 0.09792(5) 1 0 0.03341(13) 
Ag2 Ag1+ 8 f 0.106985(15) 0.35258(6) 0.20544(5) 1 0 0.02283(10) 
Ag3 Ag1+ 8 f 0.18424(2) 0.66708(8) -0.00644(6) 1 0 0.03879(14) 
O1 O2- 8 f 0.22781(11) 0.0862(5) -0.0515(3) 1 0 0.0102(7) 
O2 O2- 8 f 0.02960(11) 0.1922(5) -0.3511(4) 1 0 0.0118(7) 
O3 O2- 8 f 0.29098(11) 0.0565(5) 0.1640(3) 1 0 0.0120(7) 
O4 O2- 8 f 0.04682(11) 0.0047(5) -0.6111(3) 1 0 0.0144(7) 
O5 O2- 8 f 0.08389(12) 0.3840(5) -0.5473(4) 1 0 0.0167(8) 
O6 O2- 8 f 0.20793(11) -0.1320(5) 0.1781(3) 1 0 0.0127(7) 
O7 O2- 8 f 0.14710(12) -0.0647(5) -0.1614(4) 1 0 0.0175(8) 
O8 O2- 8 f 0.03235(13) 0.2294(6) 0.1519(4) 1 0 0.0215(8) 
O9 O2- 8 f 0.14979(12) 0.2593(6) 0.0168(4) 1 0 0.0202(8) 
O10 O2- 8 f 0.12525(12) 0.3099(5) -0.2672(4) 1 0 0.0178(8) 

loop_
_atom_site_aniso_label
_atom_site_aniso_type_symbol
_atom_site_aniso_U_11
_atom_site_aniso_U_22
_atom_site_aniso_U_33
_atom_site_aniso_U_12
_atom_site_aniso_U_13
_atom_site_aniso_U_23
W1 W6+ 0.01040(13) 0.00986(13) 0.00806(14) 0.000 -0.00008(10) 0.000
W2 W6+ 0.00837(10) 0.00936(10) 0.00914(11) 0.00009(6) -0.00042(7) 
-0.00075(7)
Te1 Te4+ 0.00859(15) 0.00923(15) 0.00982(16) 0.00024(11) -0.00025(11) 
0.00052(12)
Te2 Te4+ 0.00993(15) 0.00843(15) 0.00783(15) -0.00006(11) 0.00028(11) 
0.00014(11)
Ag1 Ag1+ 0.0426(3) 0.0240(2) 0.0332(3) -0.0188(2) -0.0058(2) -0.0015(2)
Ag2 Ag1+ 0.0277(2) 0.0192(2) 0.0221(2) -0.00394(16) 0.00932(18) 
-0.00280(17)
Ag3 Ag1+ 0.0605(4) 0.0274(3) 0.0283(3) 0.0136(2) -0.0015(2) -0.0161(2)
O1 O2- 0.0103(16) 0.0129(16) 0.0073(16) 0.0000(12) -0.0011(13) 0.0000(13)
O2 O2- 0.0099(16) 0.0135(17) 0.0121(18) 0.0003(12) 0.0025(13) 0.0002(14)
O3 O2- 0.0118(17) 0.0119(17) 0.0121(17) 0.0036(12) -0.0020(13) 0.0004(14)
O4 O2- 0.0150(17) 0.0169(18) 0.0110(18) -0.0005(14) -0.0029(14) -0.0039(15)
O5 O2- 0.0201(19) 0.0092(16) 0.021(2) 0.0007(14) 0.0037(15) 0.0064(15)
O6 O2- 0.0190(18) 0.0092(16) 0.0098(17) -0.0048(13) -0.0009(13) 0.0000(14)
O7 O2- 0.0170(19) 0.0123(18) 0.023(2) -0.0031(13) 0.0004(15) -0.0023(15)
O8 O2- 0.025(2) 0.023(2) 0.0158(19) -0.0069(16) -0.0021(16) 0.0043(16)
O9 O2- 0.023(2) 0.024(2) 0.0136(19) 0.0017(16) 0.0038(15) -0.0020(16)
O10 O2- 0.0144(18) 0.0176(19) 0.021(2) 0.0018(14) -0.0055(15) -0.0012(15)
#End of data_420407-ICSD


