data_69434-ICSD
#?2014 by Fachinformationszentrum Karlsruhe, and the U.S. Secretary of 
#Commerce on behalf of the United States.  All rights reserved.
_database_code_ICSD                69434
_audit_creation_date               1992/08/20
_chemical_name_systematic
;
Potassium Dioxonium Hexafluoroaluminate
;
_chemical_formula_structural       'K (H3 O)2 (Al F6)'
_chemical_formula_sum              'H6 Al1 F6 K1 O2'
_publ_section_title
;
K(H3O)2AlF6: ESR, infrared and Raman spectroscopy studies
;
loop_
_citation_id
_citation_journal_abbrev
_citation_year
_citation_journal_volume
_citation_page_first
_citation_page_last
_citation_journal_id_ASTM
primary 'European Journal of Solid State Inorganic Chemistry'
 1990 27 913 924 EJSCE5
_publ_author_name
;
Rousseau, J.J.;Boulard, B.;Duroy, H.;Fourquet, J.L.
;
_cell_length_a                     8.6472(2)
_cell_length_b                     8.6472(2)
_cell_length_c                     8.6472(2)
_cell_angle_alpha                  90.
_cell_angle_beta                   90.
_cell_angle_gamma                  90.
_cell_volume                       646.59
_cell_formula_units_Z              4
_symmetry_space_group_name_H-M     'P a -3'
_symmetry_Int_Tables_number        205
_refine_ls_R_factor_all            .019
loop_
_symmetry_equiv_pos_site_id
_symmetry_equiv_pos_as_xyz
  1	'-z+.5, x+.5, y'
  2	'z+.5, x, -y+.5'
  3	'z, -x+.5, y+.5'
  4	'-z, -x, -y'
  5	'y, -z+.5, x+.5'
  6	'-y+.5, z+.5, x'
  7	'y+.5, z, -x+.5'
  8	'-y, -z, -x'
  9	'x+.5, y, -z+.5'
 10	'x, -y+.5, z+.5'
 11	'-x+.5, y+.5, z'
 12	'-x, -y, -z'
 13	'z+.5, -x+.5, -y'
 14	'-z+.5, -x, y+.5'
 15	'-z, x+.5, -y+.5'
 16	'z, x, y'
 17	'-y, z+.5, -x+.5'
 18	'y+.5, -z+.5, -x'
 19	'-y+.5, -z, x+.5'
 20	'y, z, x'
 21	'-x+.5, -y, z+.5'
 22	'-x, y+.5, -z+.5'
 23	'x+.5, -y+.5, -z'
 24	'x, y, z'
loop_
_atom_type_symbol
_atom_type_oxidation_number
Al3+	3
F1-	-1
H1+	1
K1+	1
O2-	-2
loop_
_atom_site_label
_atom_site_type_symbol
_atom_site_symmetry_multiplicity
_atom_site_Wyckoff_symbol
_atom_site_fract_x
_atom_site_fract_y
_atom_site_fract_z
_atom_site_occupancy
_atom_site_attached_hydrogens
_atom_site_B_iso_or_equiv
K1 K1+ 4 a 0 0 0 1. 0 0 
Al1 Al3+ 4 b 0.5 0 0 1. 0 0 
F1 F1- 24 d 0.4401(2) 0.1944(1) 0.0486(2) 1. 0 0 
O1 O2- 8 c 0.1970(2) 0.1970(2) 0.1970(2) 1. 0 0 
H1 H1+ 24 d 0.2887(35) 0.1989(43) 0.1520(34) 1. 0 2.87(88) 

loop_
_atom_site_aniso_label
_atom_site_aniso_type_symbol
_atom_site_aniso_U_11
_atom_site_aniso_U_22
_atom_site_aniso_U_33
_atom_site_aniso_U_12
_atom_site_aniso_U_13
_atom_site_aniso_U_23
K1 K1+ 0.0201(2) 0.0201(2) 0.0201(2) 0.0025(3) 0.0025(3) 0.0025(3)
Al1 Al3+ 0.0117(2) 0.0117(2) 0.0117(2) 0.0012(4) 0.0012(4) 0.0012(4)
F1 F1- 0.0210(6) 0.0130(64) 0.0259(6) 0.0017(6) 0.0070(4) -.0012(5)
O1 O2- 0.0248(5) 0.0248(5) 0.0248(5) 0.0085(7) 0.0085(7) 0.0085(7)
#End of data_69434-ICSD


