data_173367-ICSD
#?2014 by Fachinformationszentrum Karlsruhe, and the U.S. Secretary of 
#Commerce on behalf of the United States.  All rights reserved.
_database_code_ICSD                173367
_audit_creation_date               2008/08/01
_audit_update_record               2013/02/01
_chemical_name_systematic
;
Tripotassium Tribismuth Tetrakis(tetrathiophosphate)
;
_chemical_formula_structural       'K3 Bi3 (P S4)4'
_chemical_formula_sum              'Bi3 K3 P4 S16'
_publ_section_title
;
New potassium bismuth thiophosphates including the modulated K1.5 
Bi2.5 (P S4)3
;
loop_
_citation_id
_citation_journal_abbrev
_citation_year
_citation_journal_volume
_citation_journal_issue
_citation_page_first
_citation_page_last
_citation_journal_id_ASTM
primary 'Inorganic Chemistry' 2007 46 26 11063 11074 INOCAJ
_publ_author_name
;
Gave, M.A.;Weliky, D.P.;Kanatzidis, M.
;
_cell_length_a                     21.0116(8)
_cell_length_b                     21.0116(8)
_cell_length_c                     13.3454(10)
_cell_angle_alpha                  90.
_cell_angle_beta                   90.
_cell_angle_gamma                  90.
_cell_volume                       5891.83
_cell_formula_units_Z              8
_symmetry_space_group_name_H-M     'P 4/n c c Z'
_symmetry_Int_Tables_number        130
_refine_ls_R_factor_all            .0674
loop_
_symmetry_equiv_pos_site_id
_symmetry_equiv_pos_as_xyz
  1	'y+.5, x+.5, -z+.5'
  2	'-y, x+.5, -z'
  3	'y+.5, -x, -z'
  4	'-y, -x, -z+.5'
  5	'x+.5, y+.5, -z'
  6	'-x, y+.5, -z+.5'
  7	'x+.5, -y, -z+.5'
  8	'-x, -y, -z'
  9	'-y+.5, -x+.5, z+.5'
 10	'y, -x+.5, z'
 11	'-y+.5, x, z'
 12	'y, x, z+.5'
 13	'-x+.5, -y+.5, z'
 14	'x, -y+.5, z+.5'
 15	'-x+.5, y, z+.5'
 16	'x, y, z'
loop_
_atom_type_symbol
_atom_type_oxidation_number
Bi3+	3
K1+	1
P5+	5
S2-	-2
loop_
_atom_site_label
_atom_site_type_symbol
_atom_site_symmetry_multiplicity
_atom_site_Wyckoff_symbol
_atom_site_fract_x
_atom_site_fract_y
_atom_site_fract_z
_atom_site_occupancy
_atom_site_attached_hydrogens
_atom_site_U_iso_or_equiv
Bi1 Bi3+ 16 g 0.49040(4) 0.10032(3) 0.36285(5) 1 0 0.0258(3) 
Bi2 Bi3+ 8 f 0.39872(3) -0.10128(3) 0.2500 1 0 0.0260(3) 
K1 K1+ 16 g 0.4569(3) 0.2426(2) 0.0814(4) 1 0 0.0452(12) 
K2 K1+ 4 a 0.2500 -0.2500 0.7500 1 0 0.71(8) 
K3 K1+ 4 c 0.2500 0.2500 0.534(11) 1 0 0.61(8) 
P1 P5+ 16 g 0.4260(2) 0.0615(2) 0.1261(3) 1 0 0.0188(9) 
P2 P5+ 16 g 0.5636(2) 0.2467(2) 0.3319(3) 1 0 0.0239(9) 
S1 S2- 16 g 0.3777(2) 0.0583(3) 0.2579(3) 1 0 0.0356(12) 
S2 S2- 16 g 0.51274(19) 0.10402(19) 0.1568(3) 1 0 0.0181(8) 
S3 S2- 16 g 0.3887(2) 0.1195(2) 0.5183(3) 1 0 0.0272(10) 
S4 S2- 16 g 0.4419(3) -0.0291(2) 0.0762(3) 1 0 0.0315(11) 
S5 S2- 16 g 0.4673(2) 0.2260(2) 0.3371(4) 1 0 0.0278(10) 
S6 S2- 16 g 0.2728(2) -0.0926(2) 0.1900(3) 1 0 0.0278(10) 
S7 S2- 16 g 0.3197(2) -0.0852(3) 0.4236(3) 1 0 0.0348(12) 
S8 S2- 16 g 0.6082(3) 0.1663(2) 0.3767(4) 1 0 0.0381(12) 

loop_
_atom_site_aniso_label
_atom_site_aniso_type_symbol
_atom_site_aniso_U_11
_atom_site_aniso_U_22
_atom_site_aniso_U_33
_atom_site_aniso_U_12
_atom_site_aniso_U_13
_atom_site_aniso_U_23
Bi1 Bi3+ 0.0341(4) 0.0251(4) 0.0181(4) 0.0040(3) -0.0020(3) -0.0030(3)
Bi2 Bi3+ 0.0272(4) 0.0272(4) 0.0234(5) -0.0034(4) 0.0003(3) -0.0003(3)
K1 K1+ 0.061(3) 0.033(2) 0.042(2) -0.002(2) -0.017(2) 0.009(2)
K2 K1+ 0.062(8) 0.062(8) 2.0(3) 0.018(13) 0.000 0.000
K3 K1+ 0.31(5) 0.31(5) 1.2(3) 0.000 0.000 0.000
P1 P5+ 0.018(2) 0.024(2) 0.0145(19) -0.0048(17) -0.0017(16) -0.0015(16)
P2 P5+ 0.035(3) 0.017(2) 0.020(2) 0.0010(19) -0.0020(19) 0.0014(17)
S1 S2- 0.025(2) 0.063(4) 0.018(2) -0.012(2) 0.0095(18) -0.008(2)
S2 S2- 0.0149(18) 0.022(2) 0.0168(18) 0.0002(16) -0.0021(15) 0.0034(15)
S3 S2- 0.029(2) 0.027(2) 0.026(2) 0.0040(18) 0.0035(18) 0.0095(19)
S4 S2- 0.055(3) 0.021(2) 0.019(2) -0.008(2) 0.004(2) -0.0012(17)
S5 S2- 0.029(2) 0.022(2) 0.032(2) -0.0006(18) 0.0062(19) 0.0011(18)
S6 S2- 0.025(2) 0.039(3) 0.020(2) 0.0013(19) -0.0041(18) -0.0076(19)
S7 S2- 0.022(2) 0.068(4) 0.014(2) 0.010(2) 0.0004(17) 0.001(2)
S8 S2- 0.043(3) 0.021(2) 0.050(3) 0.001(2) -0.013(2) 0.003(2)
#End of data_173367-ICSD


