data_85767-ICSD
#?2014 by Fachinformationszentrum Karlsruhe, and the U.S. Secretary of 
#Commerce on behalf of the United States.  All rights reserved.
_database_code_ICSD                85767
_audit_creation_date               1999/11/30
_chemical_name_systematic
;
Tripotassium Cerium Octathiodiosphate(V)
;
_chemical_formula_structural       'K3 Ce (P2 S8)'
_chemical_formula_sum              'Ce1 K3 P2 S8'
_publ_section_title
;
K3 Ce P2 S8: a new cerium thiophosphate with one-dimensional anionic 
chains
;
loop_
_citation_id
_citation_journal_abbrev
_citation_year
_citation_journal_volume
_citation_page_first
_citation_page_last
_citation_journal_id_ASTM
primary 'Inorganic Chemistry' 1998 37 2332 2333 INOCAJ
_publ_author_name
;
Gauthier, G.;Jobic, S.;Brec, R.;Rouxel, J.
;
_cell_length_a                     9.121(1)
_cell_length_b                     17.0240(10)
_cell_length_c                     9.491(1)
_cell_angle_alpha                  90.
_cell_angle_beta                   90.25(1)
_cell_angle_gamma                  90.
_cell_volume                       1473.71
_cell_formula_units_Z              4
_symmetry_space_group_name_H-M     'P 1 21/c 1'
_symmetry_Int_Tables_number        14
_refine_ls_R_factor_all            .03
loop_
_symmetry_equiv_pos_site_id
_symmetry_equiv_pos_as_xyz
  1	'x, -y+.5, z+.5'
  2	'-x, -y, -z'
  3	'-x, y+.5, -z+.5'
  4	'x, y, z'
loop_
_atom_type_symbol
_atom_type_oxidation_number
Ce3+	3
K1+	1
P5+	5
S2-	-2
loop_
_atom_site_label
_atom_site_type_symbol
_atom_site_symmetry_multiplicity
_atom_site_Wyckoff_symbol
_atom_site_fract_x
_atom_site_fract_y
_atom_site_fract_z
_atom_site_occupancy
_atom_site_attached_hydrogens
Ce1 Ce3+ 4 e 0.77264(4) 0.01341(2) 0.02895(4) 1. 0 
P1 P5+ 4 e 0.5229(2) 0.0991(1) 0.7773(2) 1. 0 
P2 P5+ 4 e 0.0072(2) 0.1027(1) 0.2464(2) 1. 0 
S1 S2- 4 e 0.9499(2) 0.0154(1) 0.7451(2) 1. 0 
S2 S2- 4 e 0.1266(2) 0.1740(1) 0.3678(2) 1. 0 
S3 S2- 4 e 0.4614(2) 0.0201(1) 0.1827(2) 1. 0 
S4 S2- 4 e 0.6625(2) 0.1574(1) 0.9084(2) 1. 0 
S5 S2- 4 e 0.7900(2) 0.1179(1) 0.2791(2) 1. 0 
S6 S2- 4 e 0.0382(2) 0.1254(1) 0.0361(2) 1. 0 
S7 S2- 4 e 0.5658(2) 0.1264(1) 0.5762(2) 1. 0 
S8 S2- 4 e 0.3135(2) 0.1297(1) 0.8248(2) 1. 0 
K1 K1+ 4 e 0.2709(2) 0.0277(1) 0.5144(2) 1. 0 
K2 K1+ 4 e 0.8811(2) 0.2042(1) 0.6253(3) 1. 0 
K3 K1+ 4 e 0.3863(3) 0.2118(1) 0.1340(3) 1. 0 

loop_
_atom_site_aniso_label
_atom_site_aniso_type_symbol
_atom_site_aniso_U_11
_atom_site_aniso_U_22
_atom_site_aniso_U_33
_atom_site_aniso_U_12
_atom_site_aniso_U_13
_atom_site_aniso_U_23
Ce1 Ce3+ 0.0142(2) 0.0137(2) 0.0175(2) -.0002(2) 0.0049(1) 0.0001(2)
P1 P5+ 0.0131(8) 0.0154(9) 0.0193(9) 0.0013(7) 0.0073(7) 0.0013(8)
P2 P5+ 0.0173(9) 0.017(1) 0.0174(9) -.0012(7) 0.0053(7) -.0033(7)
S1 S2- 0.0312(9) 0.0174(9) 0.0274(9) -.0008(8) 0.0036(7) -.0002(9)
S2 S2- 0.033(1) 0.028(1) 0.036(1) -.0091(9) 0.0004(9) -.0121(9)
S3 S2- 0.0191(8) 0.0146(9) 0.0248(9) -.0009(7) 0.0032(7) -.0008(8)
S4 S2- 0.0296(9) 0.0150(9) 0.029(1) -.0023(8) -.0027(88) -.0006(8)
S5 S2- 0.0177(8) 0.033(1) 0.0242(9) 0.0034(8) 0.0095(7) -.0041(9)
S6 S2- 0.025(1) 0.023(1) 0.0210(9) 0.0060(8) 0.0105(7) 0.0028(8)
S7 S2- 0.030(1) 0.032(1) 0.0175(9) 0.0027(8) 0.0088(8) 0.0059(8)
S8 S2- 0.0188(9) 0.023(1) 0.039(1) 0.0050(7) 0.0158(9) 0.0099(9)
K1 K1+ 0.0336(8) 0.030(1) 0.0285(9) -.0011(8) -.0050(7) 0.0013(8)
K2 K1+ 0.048(1) 0.032(1) 0.075(1) -.0114(9) 0.028(1) -.006(1)
K3 K1+ 0.088(2) 0.035(1) 0.079(2) -.025(1) 0.051(2) -.025(1)
#End of data_85767-ICSD


