data_99568-ICSD
#?2014 by Fachinformationszentrum Karlsruhe, and the U.S. Secretary of 
#Commerce on behalf of the United States.  All rights reserved.
_database_code_ICSD                99568
_audit_creation_date               2005/04/01
_chemical_name_systematic
;
Calcium Praseodymium Copper Oxide (10/4/24/41)
;
_chemical_formula_structural       'Ca10 Pr4 (Cu24 O41)'
_chemical_formula_sum              'Ca10 Cu24 O41 Pr4'
_publ_section_title
;
Subsolidus phase relation and crystal structure of compounds in the 
Pr Ox - Ca O - Cu O system
;
loop_
_citation_id
_citation_journal_abbrev
_citation_year
_citation_journal_volume
_citation_page_first
_citation_page_last
_citation_journal_id_ASTM
primary 'Journal of Solid State Chemistry' 2004 177 2394 2403 JSSCBI
_publ_author_name
;
Song, G.B.;Han, C.Q.;Chen, X.-L.;Liang, J.-K.;Liu, Q.L.;Zhou, 
Y.Q.;Liu, F.-S.;Rao, G.H.
;
_cell_length_a                     11.278(2)
_cell_length_b                     12.448(3)
_cell_length_c                     27.486(7)
_cell_angle_alpha                  90
_cell_angle_beta                   90
_cell_angle_gamma                  90
_cell_volume                       3858.72
_cell_formula_units_Z              4
_symmetry_space_group_name_H-M     'C c c m'
_symmetry_Int_Tables_number        66
_refine_ls_R_factor_all            .0225
loop_
_symmetry_equiv_pos_site_id
_symmetry_equiv_pos_as_xyz
  1	'-x, y, z+.5'
  2	'x, -y, z+.5'
  3	'x, y, -z'
  4	'-x, -y, -z'
  5	'x, -y, -z+.5'
  6	'-x, y, -z+.5'
  7	'-x, -y, z'
  8	'x, y, z'
  9	'-x+.5, y+.5, z+.5'
 10	'x+.5, -y+.5, z+.5'
 11	'x+.5, y+.5, -z'
 12	'-x+.5, -y+.5, -z'
 13	'x+.5, -y+.5, -z+.5'
 14	'-x+.5, y+.5, -z+.5'
 15	'-x+.5, -y+.5, z'
 16	'x+.5, y+.5, z'
loop_
_atom_type_symbol
_atom_type_oxidation_number
Ca2+	2
Cu2.083+	2.083
O2-	-2
Pr3+	3
loop_
_atom_site_label
_atom_site_type_symbol
_atom_site_symmetry_multiplicity
_atom_site_Wyckoff_symbol
_atom_site_fract_x
_atom_site_fract_y
_atom_site_fract_z
_atom_site_occupancy
_atom_site_attached_hydrogens
_atom_site_B_iso_or_equiv
Pr1 Pr3+ 16 m 0.2570 0.1274 0.1350 1. 0 0.5 
Ca1 Ca2+ 16 m 0.7510 0.1305 0.0725 1. 0 0.7 
Ca2 Ca2+ 16 m 0.7527 0.1259 0.2299 1. 0 0.7 
Ca3 Ca2+ 8 l 0.2387 0.1362 0 1. 0 0.7 
Cu1 Cu2.083+ 16 m 0.0845 0.2553 0.0716 1. 0 0.7 
Cu2 Cu2.083+ 16 m 0.0858 0.2502 0.2178 1. 0 0.7 
Cu3 Cu2.083+ 16 m 0.0880 0.2431 0.3560 1. 0 0.7 
Cu4 Cu2.083+ 8 l 0.9135 0.2261 0 1. 0 0.7 
Cu5 Cu2.083+ 8 i 0 0 0.0617 1. 0 0.7 
Cu6 Cu2.083+ 8 i 0 0 0.1570 1. 0 0.7 
Cu7 Cu2.083+ 8 j 0.5 0 0.1224 1. 0 0.7 
Cu8 Cu2.083+ 8 j 0.5 0 0.1894 1. 0 0.7 
Cu9 Cu2.083+ 4 d 0.5 0 0 1. 0 0.7 
Cu10 Cu2.083+ 4 a 0 0 0.250 1. 0 0.7 
O1 O2- 16 m 0.086 0.250 0.143 1. 0 1. 
O2 O2- 16 m 0.086 0.250 0.286 1. 0 1. 
O3 O2- 16 m 0.086 0.250 0.429 1. 0 1. 
O4 O2- 8 l 0.086 0.250 0 1. 0 1. 
O5 O2- 8 k 0.250 0.250 0.071 1. 0 1. 
O6 O2- 8 k 0.250 0.250 0.214 1. 0 1. 
O7 O2- 8 k 0.250 0.250 0.357 1. 0 1. 
O8 O2- 4 f 0.750 0.250 0 1. 0 1. 
O9 O2- 16 m 0.118 0 0.100 1. 0 1. 
O10 O2- 16 m 0.118 0 0.200 1. 0 1. 
O11 O2- 16 m 0.382 0 0.050 1. 0 1. 
O12 O2- 16 m 0.382 0 0.150 1. 0 1. 
O13 O2- 8 g 0.382 0 0.250 1. 0 1. 
O14 O2- 8 l 0.118 0 0 1. 0 1. 

#End of data_99568-ICSD


