data_1975-ICSD
#?2014 by Fachinformationszentrum Karlsruhe, and the U.S. Secretary of 
#Commerce on behalf of the United States.  All rights reserved.
_database_code_ICSD                1975
_audit_creation_date               1980/01/01
_audit_update_record               2010/02/01
_chemical_name_systematic
;
Tetraaluminium Cobalt Bis(borate) Dioxide
;
_chemical_formula_structural       'Al4 Co (B O4)2 O2'
_chemical_formula_sum              'Al4 B2 Co1 O10'
_publ_section_title
;
The high-pressure synthesis and structural refinement of Al4 Co (B 
O4)2 O2, an anhydrous boron chododite
;
loop_
_citation_id
_citation_journal_abbrev
_citation_year
_citation_journal_volume
_citation_page_first
_citation_page_last
_citation_journal_id_ASTM
primary 'Acta Crystallographica B (24,1968-38,1982)' 1975 31 2440 2443 ACBCAR
_publ_author_name                  'Capponi, J.J.;Marezio, M.'
_cell_length_a                     7.221(3)
_cell_length_b                     4.371(2)
_cell_length_c                     9.534(5)
_cell_angle_alpha                  90.
_cell_angle_beta                   108.45
_cell_angle_gamma                  90.
_cell_volume                       285.45
_cell_formula_units_Z              2
_symmetry_space_group_name_H-M     'P 1 21/c 1'
_symmetry_Int_Tables_number        14
_refine_ls_R_factor_all            .02
loop_
_symmetry_equiv_pos_site_id
_symmetry_equiv_pos_as_xyz
  1	'x, -y+.5, z+.5'
  2	'-x, -y, -z'
  3	'-x, y+.5, -z+.5'
  4	'x, y, z'
loop_
_atom_type_symbol
_atom_type_oxidation_number
Al3+	3
B3+	3
Co2+	2
O2-	-2
loop_
_atom_site_label
_atom_site_type_symbol
_atom_site_symmetry_multiplicity
_atom_site_Wyckoff_symbol
_atom_site_fract_x
_atom_site_fract_y
_atom_site_fract_z
_atom_site_occupancy
_atom_site_attached_hydrogens
Al1 Al3+ 4 e 0.2984(1) 0.0195(2) 0.1692(1) 1. 0 
Al2 Al3+ 4 e 0.0758(1) 0.0054(2) 0.3908(1) 1. 0 
Co1 Co2+ 2 d 0.5 0 0.5 1. 0 
B1 B3+ 4 e 0.2909(4) 0.5711(7) 0.3510(4) 1. 0 
O1 O2- 4 e 0.2871(4) 0.7025(6) 0.4964(3) 1. 0 
O2 O2- 4 e 0.1188(5) 0.7414(4) 0.2422(3) 1. 0 
O3 O2- 4 e 0.4590(5) 0.7087(6) 0.3161(3) 1. 0 
O4 O2- 4 e 0.2816(5) 0.2411(4) 0.3450(3) 1. 0 
O5 O2- 4 e 0.1124(5) 0.2812(6) 0.0610(3) 1. 0 

#End of data_1975-ICSD


