data_406331-ICSD
#?2014 by Fachinformationszentrum Karlsruhe, and the U.S. Secretary of 
#Commerce on behalf of the United States.  All rights reserved.
_database_code_ICSD                406331
_audit_creation_date               1997/11/10
_audit_update_record               2000/07/15
_chemical_name_systematic
;
Barium Zinc Tamarium Oxide (5/4/8/21)
;
_chemical_formula_structural       'Ba5 Zn4 Tm8 O21'
_chemical_formula_sum              'Ba5 O21 Tm8 Zn4'
_publ_section_title
;
Zur Kristallchemie von Oxozinkat-Platinaten und Oxozinkaten der 
Zusammensetzung Ba17 Tm16 Zn8 Pt4 O57 und Ba5 Tm8 Zn4 O21
;
loop_
_citation_id
_citation_journal_abbrev
_citation_year
_citation_journal_volume
_citation_page_first
_citation_page_last
_citation_journal_id_ASTM
primary 'Zeitschrift fuer Anorganische und Allgemeine Chemie (1950) (DE)'
 1997 623 699 704 ZAACAB
_publ_author_name
;
Sfreddo, O.;Rabbow, C.;Mueller Buschbaum, H.
;
_cell_length_a                     13.652(1)
_cell_length_b                     13.652(1)
_cell_length_c                     5.664(1)
_cell_angle_alpha                  90.
_cell_angle_beta                   90.
_cell_angle_gamma                  90.
_cell_volume                       1055.64
_cell_formula_units_Z              2
_symmetry_space_group_name_H-M     'I 4/m'
_symmetry_Int_Tables_number        87
_refine_ls_R_factor_all            .071
loop_
_symmetry_equiv_pos_site_id
_symmetry_equiv_pos_as_xyz
  1	'-y, x, -z'
  2	'y, -x, -z'
  3	'x, y, -z'
  4	'-x, -y, -z'
  5	'y, -x, z'
  6	'-y, x, z'
  7	'-x, -y, z'
  8	'x, y, z'
  9	'-y+.5, x+.5, -z+.5'
 10	'y+.5, -x+.5, -z+.5'
 11	'x+.5, y+.5, -z+.5'
 12	'-x+.5, -y+.5, -z+.5'
 13	'y+.5, -x+.5, z+.5'
 14	'-y+.5, x+.5, z+.5'
 15	'-x+.5, -y+.5, z+.5'
 16	'x+.5, y+.5, z+.5'
loop_
_atom_type_symbol
_atom_type_oxidation_number
Ba2+	2
O2-	-2
Tm3+	3
Zn2+	2
loop_
_atom_site_label
_atom_site_type_symbol
_atom_site_symmetry_multiplicity
_atom_site_Wyckoff_symbol
_atom_site_fract_x
_atom_site_fract_y
_atom_site_fract_z
_atom_site_occupancy
_atom_site_attached_hydrogens
_atom_site_U_iso_or_equiv
Tm1 Tm3+ 8 h 0.24834(2) 0.16797(2) 0 1. 0 0 
Tm2 Tm3+ 8 h 0.41153(2) 0.35785(2) 0 1. 0 0 
Ba1 Ba2+ 2 a 0 0 0 1. 0 0 
Ba2 Ba2+ 8 h 0.53536(2) 0.13979(2) 0 1. 0 0 
Zn1 Zn2+ 8 h 0.04031(5) 0.25018(5) 0 1. 0 0 
O1 O2- 2 b 0.5 0.5 0 1. 0 0.0094(15) 
O2 O2- 8 h 0.6267(3) 0.9618(3) 0 1. 0 0.0098(7) 
O3 O2- 16 i 0.6779(2) 0.5484(2) 0.7471(6) 1. 0 0.0089(5) 
O4 O2- 16 i 0.3519(2) 0.2423(2) 0.2510(6) 1. 0 0.0097(5) 

loop_
_atom_site_aniso_label
_atom_site_aniso_type_symbol
_atom_site_aniso_U_11
_atom_site_aniso_U_22
_atom_site_aniso_U_33
_atom_site_aniso_U_12
_atom_site_aniso_U_13
_atom_site_aniso_U_23
Tm1 Tm3+ 0.00242(7) 0.00191(7) 0.00762(9) -.00014(6) 0 0
Tm2 Tm3+ 0.00230(7) 0.00177(7) 0.00765(9) -.00030(6) 0 0
Ba1 Ba2+ 0.00507(13) 0.00507(13) 0.0092(2) 0 0 0
Ba2 Ba2+ 0.00663(10) 0.00431(10) 0.01061(12) -.00041(9) 0 0
Zn1 Zn2+ 0.0047(2) 0.0045(2) 0.0086(3) 0.0002(2) 0 0
#End of data_406331-ICSD


