data_189304-ICSD
#?2014 by Fachinformationszentrum Karlsruhe, and the U.S. Secretary of 
#Commerce on behalf of the United States.  All rights reserved.
_database_code_ICSD                189304
_audit_creation_date               2014/02/01
_chemical_name_systematic
;
Potassium Triiron Disulfate Hexahydroxide
;
_chemical_formula_structural       'K Fe3 (S O4)2 (O H)6'
_chemical_formula_sum              'H6 Fe3 K1 O14 S2'
_chemical_name_mineral             Jarosite
_publ_section_title
;
Looking for jarosite on Mars: The low-temperature crystal structure 
of jarosite
;
loop_
_citation_id
_citation_journal_abbrev
_citation_year
_citation_journal_volume
_citation_journal_issue
_citation_page_first
_citation_page_last
_citation_journal_id_ASTM
primary 'American Mineralogist' 2013 98 11-12 1966 1971 AMMIAY
_publ_author_name
;
Stuart J. Mills;Fabrizio Nestola;Volker Kahlenberg;Andrew G. 
Christy;Clivia Hejny;Guenther J. Redhammer
;
_cell_length_a                     7.2918(3)
_cell_length_b                     7.2918(3)
_cell_length_c                     17.1026(10)
_cell_angle_alpha                  90.
_cell_angle_beta                   90.
_cell_angle_gamma                  120.
_cell_volume                       787.52
_cell_formula_units_Z              3
_symmetry_space_group_name_H-M     'R -3 m H'
_symmetry_Int_Tables_number        166
_refine_ls_R_factor_all            .0191
loop_
_symmetry_equiv_pos_site_id
_symmetry_equiv_pos_as_xyz
  1	'x-y, -y, -z'
  2	'-x, -x+y, -z'
  3	'y, x, -z'
  4	'x-y, x, -z'
  5	'y, -x+y, -z'
  6	'-x, -y, -z'
  7	'-x+y, y, z'
  8	'x, x-y, z'
  9	'-y, -x, z'
 10	'-x+y, -x, z'
 11	'-y, x-y, z'
 12	'x, y, z'
 13	'x-y+.6666, -y+.3333, -z+.3333'
 14	'x-y+.3333, -y+.6666, -z+.6666'
 15	'-x+.6666, -x+y+.3333, -z+.3333'
 16	'-x+.3333, -x+y+.6666, -z+.6666'
 17	'y+.6666, x+.3333, -z+.3333'
 18	'y+.3333, x+.6666, -z+.6666'
 19	'x-y+.6666, x+.3333, -z+.3333'
 20	'x-y+.3333, x+.6666, -z+.6666'
 21	'y+.6666, -x+y+.3333, -z+.3333'
 22	'y+.3333, -x+y+.6666, -z+.6666'
 23	'-x+.6666, -y+.3333, -z+.3333'
 24	'-x+.3333, -y+.6666, -z+.6666'
 25	'-x+y+.6666, y+.3333, z+.3333'
 26	'-x+y+.3333, y+.6666, z+.6666'
 27	'x+.6666, x-y+.3333, z+.3333'
 28	'x+.3333, x-y+.6666, z+.6666'
 29	'-y+.6666, -x+.3333, z+.3333'
 30	'-y+.3333, -x+.6666, z+.6666'
 31	'-x+y+.6666, -x+.3333, z+.3333'
 32	'-x+y+.3333, -x+.6666, z+.6666'
 33	'-y+.6666, x-y+.3333, z+.3333'
 34	'-y+.3333, x-y+.6666, z+.6666'
 35	'x+.6666, y+.3333, z+.3333'
 36	'x+.3333, y+.6666, z+.6666'
loop_
_atom_type_symbol
_atom_type_oxidation_number
Fe3+	3
H1+	1
K1+	1
O2-	-2
S6+	6
loop_
_atom_site_label
_atom_site_type_symbol
_atom_site_symmetry_multiplicity
_atom_site_Wyckoff_symbol
_atom_site_fract_x
_atom_site_fract_y
_atom_site_fract_z
_atom_site_occupancy
_atom_site_attached_hydrogens
_atom_site_U_iso_or_equiv
K1 K1+ 3 a 0 0 0 1. 0 0.0097(3) 
Fe1 Fe3+ 9 d 0.5 0 0.5 1. 0 0.0031(2) 
S1 S6+ 6 c 0 0 0.30903(6) 1. 0 0.0052(3) 
O1 O2- 6 c 0 0 0.60547(19) 1. 0 0.0089(7) 
O2 O2- 18 h 0.22269(14) -0.22269(14) -0.05367(11) 1. 0 0.0080(4) 
O3 O2- 18 h 0.12696(15) -0.12696(15) 0.13533(11) 1. 0 0.0073(4) 
H1 H1+ 18 h 0.189(2) -0.189(2) 0.113(2) 1. 0 0.036(12) 

loop_
_atom_site_aniso_label
_atom_site_aniso_type_symbol
_atom_site_aniso_U_11
_atom_site_aniso_U_22
_atom_site_aniso_U_33
_atom_site_aniso_U_12
_atom_site_aniso_U_13
_atom_site_aniso_U_23
K1 K1+ 0.0106(4) 0.0106(4) 0.0079(7) 0.0053(2) 0. 0.
Fe1 Fe3+ 0.0014(2) 0.0004(3) 0.0072(3) 0.00021(14) -0.00001(10) 
-0.00001(19)
S1 S6+ 0.0040(3) 0.0040(3) 0.0076(5) 0.00200(17) 0. 0.
O1 O2- 0.0085(10) 0.0085(10) 0.0098(17) 0.0043(5) 0. 0.
O2 O2- 0.0083(7) 0.0083(7) 0.0105(10) 0.0065(7) -0.0002(3) 0.0002(3)
O3 O2- 0.0041(6) 0.0041(6) 0.0133(10) 0.0017(7) 0.0012(4) -0.0012(4)
#End of data_189304-ICSD


