data_416606-ICSD
#?2014 by Fachinformationszentrum Karlsruhe, and the U.S. Secretary of 
#Commerce on behalf of the United States.  All rights reserved.
_database_code_ICSD                416606
_audit_creation_date               2007/08/01
_chemical_name_systematic
;
Dirubidium Potassium Gallium Hexafluoride
;
_chemical_formula_structural       'Rb2 K Ga F6'
_chemical_formula_sum              'F6 Ga1 K1 Rb2'
_publ_section_title
;
The low temperature form of Rb2KCrF6 and Rb2KGaF6: The first example 
of an elpasolite-derived structure with pentagonal bipyramid in the B-
sublattice
;
loop_
_citation_id
_citation_journal_abbrev
_citation_year
_citation_journal_volume
_citation_page_first
_citation_page_last
_citation_journal_id_ASTM
primary 'Journal of Solid State Chemistry' 2006 179 3607 3614 JSSCBI
_publ_author_name
;
Zuniga, F.J.;Tressaud, A.;Darriet, J.
;
_cell_length_a                     19.375(4)
_cell_length_b                     19.375(4)
_cell_length_c                     8.782(2)
_cell_angle_alpha                  90.
_cell_angle_beta                   90.
_cell_angle_gamma                  90.
_cell_volume                       3296.68
_cell_formula_units_Z              20
_symmetry_space_group_name_H-M     'F 4/m'
_symmetry_Int_Tables_number        87
_refine_ls_R_factor_all            .1287
loop_
_symmetry_equiv_pos_site_id
_symmetry_equiv_pos_as_xyz
  1	'-y, x, -z'
  2	'x, y, -z'
  3	'y, -x, -z'
  4	'-x, -y, -z'
  5	'y, -x, z'
  6	'-x, -y, z'
  7	'-y, x, z'
  8	'x, y, z'
  9	'-y, x+.5, -z+.5'
 10	'-y+.5, x, -z+.5'
 11	'-y+.5, x+.5, -z'
 12	'x, y+.5, -z+.5'
 13	'x+.5, y, -z+.5'
 14	'x+.5, y+.5, -z'
 15	'y, -x+.5, -z+.5'
 16	'y+.5, -x, -z+.5'
 17	'y+.5, -x+.5, -z'
 18	'-x, -y+.5, -z+.5'
 19	'-x+.5, -y, -z+.5'
 20	'-x+.5, -y+.5, -z'
 21	'y, -x+.5, z+.5'
 22	'y+.5, -x, z+.5'
 23	'y+.5, -x+.5, z'
 24	'-x, -y+.5, z+.5'
 25	'-x+.5, -y, z+.5'
 26	'-x+.5, -y+.5, z'
 27	'-y, x+.5, z+.5'
 28	'-y+.5, x, z+.5'
 29	'-y+.5, x+.5, z'
 30	'x, y+.5, z+.5'
 31	'x+.5, y, z+.5'
 32	'x+.5, y+.5, z'
loop_
_atom_type_symbol
_atom_type_oxidation_number
F1-	-1
Ga3+	3
K1+	1
Rb1+	1
loop_
_atom_site_label
_atom_site_type_symbol
_atom_site_symmetry_multiplicity
_atom_site_Wyckoff_symbol
_atom_site_fract_x
_atom_site_fract_y
_atom_site_fract_z
_atom_site_occupancy
_atom_site_attached_hydrogens
_atom_site_U_iso_or_equiv
Rb1 Rb1+ 8 d 0.25 0.25 0.25 1 0 0.0087(8) 
Rb2 Rb1+ 32 i 0.15924(10) 0.05298(10) 0.2727(2) 1 0 0.0138(5) 
K1 K1+ 4 b 0 0 0.5 1 0 0.011(2) 
K2 K1+ 16 h 0.32147(18) 0.0890(2) 0.5 1 0 0.0106(11) 
Ga1 Ga3+ 4 a 0 0 0 1 0 0.0143(16) 
Ga2 Ga3+ 16 h 0.30044(16) 0.10450(15) 0 1 0 0.0093(8) 
F1 F1- 16 h 0.0943(5) 0.0295(6) 0 1 0 0.016(2) 
F2 F1- 8 e 0 0 0.218(2) 1 0 0.024(5) 
F3 F1- 16 h 0.3873(6) 0.0612(6) 0 1 0 0.009(3) 
F4 F1- 16 h 0.3449(6) 0.1902(6) 0 1 0 0.009(3) 
F5 F1- 16 h 0.2145(6) 0.1474(6) 0 1 0 0.009(3) 
F6 F1- 16 h 0.2580(6) 0.0157(6) 0 1 0 0.008(3) 
F7 F1- 32 i 0.3019(5) 0.1022(5) 0.2161(9) 1 0 0.024(2) 

loop_
_atom_site_aniso_label
_atom_site_aniso_type_symbol
_atom_site_aniso_U_11
_atom_site_aniso_U_22
_atom_site_aniso_U_33
_atom_site_aniso_U_12
_atom_site_aniso_U_13
_atom_site_aniso_U_23
Rb1 Rb1+ 0.0101(10) 0.0101(10) 0.006(2) 0 0 0
Rb2 Rb1+ 0.0137(10) 0.0126(8) 0.0150(10) 0.0002(8) -0.0015(7) -0.0010(8)
K1 K1+ 0.009 0.009 0.015(6) 0 0 0
K2 K1+ 0.022(2) 0.001121 0.009(2) -0.0072(13) 0 0
Ga1 Ga3+ 0.011(2) 0.011(2) 0.021(4) 0 0 0
Ga2 Ga3+ 0.0112(14) 0.0018(15) 0.0148(14) 0.0017(14) 0 0
#End of data_416606-ICSD


