data_260820-ICSD
#?2014 by Fachinformationszentrum Karlsruhe, and the U.S. Secretary of 
#Commerce on behalf of the United States.  All rights reserved.
_database_code_ICSD                260820
_audit_creation_date               2011/02/01
_chemical_name_systematic
;
Strontium Disodium Hexathiodiphosphate(IV) Octahydrate
;
_chemical_formula_structural       'Sr Na2 (P2 S6) (H2 O)8'
_chemical_formula_sum              'H16 Na2 O8 P2 S6 Sr1'
_publ_section_title
;
Calcium disodium hexathiodiphosphate(IV) octahydrate
;
loop_
_citation_id
_citation_journal_abbrev
_citation_year
_citation_journal_volume
_citation_journal_issue
_citation_page_first
_citation_page_last
_citation_journal_id_ASTM
primary 'Acta Crystallographica, Section E. Structure Reports Online'
 2010 66 8 i55 i55 ACSEBH
_publ_author_name                  'Ehrhardt, C.;Gjikaj, M.'
_cell_length_a                     14.9010(19)
_cell_length_b                     9.3282(7)
_cell_length_c                     14.1338(19)
_cell_angle_alpha                  90.00
_cell_angle_beta                   114.918(10)
_cell_angle_gamma                  90.00
_cell_volume                       1781.71
_cell_formula_units_Z              4
_symmetry_space_group_name_H-M     'C 1 2/c 1'
_symmetry_Int_Tables_number        15
_refine_ls_R_factor_all            .0357
loop_
_symmetry_equiv_pos_site_id
_symmetry_equiv_pos_as_xyz
  1	'x, -y, z+.5'
  2	'-x, -y, -z'
  3	'-x, y, -z+.5'
  4	'x, y, z'
  5	'x+.5, -y+.5, z+.5'
  6	'-x+.5, -y+.5, -z'
  7	'-x+.5, y+.5, -z+.5'
  8	'x+.5, y+.5, z'
loop_
_atom_type_symbol
_atom_type_oxidation_number
H1+	1
Na1+	1
O2-	-2
P4+	4
S2-	-2
Sr2+	2
loop_
_atom_site_label
_atom_site_type_symbol
_atom_site_symmetry_multiplicity
_atom_site_Wyckoff_symbol
_atom_site_fract_x
_atom_site_fract_y
_atom_site_fract_z
_atom_site_occupancy
_atom_site_attached_hydrogens
_atom_site_U_iso_or_equiv
Sr1 Sr2+ 4 e 0.5000 0.24637(4) 0.2500 1 0 0.01746(10) 
Na1 Na1+ 4 c 0.2500 0.2500 0.0000 1 0 0.0260(3) 
Na2 Na1+ 4 e 0.5000 0.6875(3) 0.2500 1 0 0.0440(5) 
P1 P4+ 8 f 0.20406(5) 0.76351(7) 0.04496(5) 1 0 0.01570(13) 
S1 S2- 8 f 0.07286(5) 0.67170(8) -0.04401(6) 1 0 0.02445(15) 
S2 S2- 8 f 0.18992(5) 0.97603(7) 0.06433(5) 1 0 0.01959(14) 
S3 S2- 8 f 0.28146(5) 0.66742(8) 0.18434(5) 1 0 0.02452(15) 
O1 O2- 8 f 0.59794(17) 0.0300(3) 0.2305(2) 1 0 0.0318(5) 
O2 O2- 8 f 0.50855(17) 0.4687(2) 0.14363(17) 1 0 0.0259(4) 
O3 O2- 8 f 0.41245(15) 0.1665(2) 0.05340(16) 1 0 0.0238(4) 
O4 O2- 8 f 0.31300(14) 0.3293(2) 0.17560(15) 1 0 0.0220(4) 
H1 H1+ 8 f 0.627(5) 0.042(7) 0.197(5) 1 0 0.08(2) 
H2 H1+ 8 f 0.638(4) 0.000(6) 0.292(5) 1 0 0.065(17) 
H3 H1+ 8 f 0.555(5) 0.473(6) 0.127(5) 1 0 0.070(17) 
H4 H1+ 8 f 0.461(4) 0.486(5) 0.093(4) 1 0 0.046(13) 
H5 H1+ 8 f 0.404(4) 0.086(7) 0.048(5) 1 0 0.067(17) 
H6 H1+ 8 f 0.450(5) 0.195(8) 0.023(5) 1 0 0.09(2) 
H7 H1+ 8 f 0.282(3) 0.283(5) 0.214(4) 1 0 0.037(11) 
H8 H1+ 8 f 0.302(4) 0.425(7) 0.170(4) 1 0 0.059(15) 

loop_
_atom_site_aniso_label
_atom_site_aniso_type_symbol
_atom_site_aniso_U_11
_atom_site_aniso_U_22
_atom_site_aniso_U_33
_atom_site_aniso_U_12
_atom_site_aniso_U_13
_atom_site_aniso_U_23
Sr1 Sr2+ 0.01698(15) 0.01714(16) 0.01694(15) 0.000 0.00585(11) 0.000
Na1 Na1+ 0.0230(7) 0.0303(9) 0.0221(7) 0.0003(6) 0.0068(6) -0.0014(6)
Na2 Na1+ 0.0384(10) 0.0598(15) 0.0284(9) 0.000 0.0086(8) 0.000
P1 P4+ 0.0192(3) 0.0137(3) 0.0171(3) -0.0002(2) 0.0104(2) -0.0003(2)
S1 S2- 0.0209(3) 0.0200(3) 0.0336(3) -0.0042(2) 0.0127(3) -0.0043(3)
S2 S2- 0.0232(3) 0.0145(3) 0.0219(3) 0.0012(2) 0.0103(2) -0.0008(2)
S3 S2- 0.0343(3) 0.0226(3) 0.0197(3) 0.0094(3) 0.0144(3) 0.0058(2)
O1 O2- 0.0232(10) 0.0306(12) 0.0366(12) 0.0049(8) 0.0076(9) -0.0042(10)
O2 O2- 0.0237(9) 0.0299(11) 0.0224(9) 0.0016(8) 0.0081(8) 0.0062(8)
O3 O2- 0.0277(10) 0.0218(10) 0.0236(9) -0.0005(8) 0.0126(8) -0.0037(8)
O4 O2- 0.0242(9) 0.0205(9) 0.0229(9) 0.0013(7) 0.0115(7) 0.0007(8)
#End of data_260820-ICSD


