data_415754-ICSD
#?2014 by Fachinformationszentrum Karlsruhe, and the U.S. Secretary of 
#Commerce on behalf of the United States.  All rights reserved.
_database_code_ICSD                415754
_audit_creation_date               2006/10/01
_chemical_name_systematic          'Pentapotassium Oxoferrate(III)'
_chemical_formula_structural       'K5 Fe O4'
_chemical_formula_sum              'Fe1 K5 O4'
_publ_section_title
;
K5 [Fe O4] und K17 [Fe5 O16]: Zwei neue Kalium-Oxoferrate(III)
;
loop_
_citation_id
_citation_journal_abbrev
_citation_year
_citation_journal_volume
_citation_journal_issue
_citation_page_first
_citation_page_last
_citation_journal_id_ASTM
primary 'Zeitschrift fuer Naturforschung, B: Chemical Sciences'
 2005 60 12 1224 1230 ZNBSEN
_publ_author_name                  'Frisch, G.;Roehr, C.'
_cell_length_a                     11.2404(19)
_cell_length_b                     6.6795(9)
_cell_length_c                     20.348(3)
_cell_angle_alpha                  90.00
_cell_angle_beta                   90.00
_cell_angle_gamma                  90.00
_cell_volume                       1527.73
_cell_formula_units_Z              8
_symmetry_space_group_name_H-M     'P b c a'
_symmetry_Int_Tables_number        61
_refine_ls_R_factor_all            .1519
loop_
_symmetry_equiv_pos_site_id
_symmetry_equiv_pos_as_xyz
  1	'x+.5, y, -z+.5'
  2	'x, -y+.5, z+.5'
  3	'-x+.5, y+.5, z'
  4	'-x, -y, -z'
  5	'-x+.5, -y, z+.5'
  6	'-x, y+.5, -z+.5'
  7	'x+.5, -y+.5, -z'
  8	'x, y, z'
loop_
_atom_type_symbol
_atom_type_oxidation_number
Fe3+	3
K1+	1
O2-	-2
loop_
_atom_site_label
_atom_site_type_symbol
_atom_site_symmetry_multiplicity
_atom_site_Wyckoff_symbol
_atom_site_fract_x
_atom_site_fract_y
_atom_site_fract_z
_atom_site_occupancy
_atom_site_attached_hydrogens
_atom_site_U_iso_or_equiv
K1 K1+ 8 c 0.29705(15) 0.0772(3) 0.36806(9) 1 0 0.0215(4) 
K2 K1+ 8 c 0.17074(16) 0.3945(4) 0.17636(8) 1 0 0.0221(5) 
K3 K1+ 8 c 0.35490(18) 0.0773(4) 0.00273(9) 1 0 0.0271(5) 
K4 K1+ 8 c 0.41060(18) 0.3839(4) 0.25389(8) 1 0 0.0259(5) 
K5 K1+ 8 c 0.06828(17) 0.0867(4) 0.06648(9) 1 0 0.0248(4) 
Fe1 Fe3+ 8 c 0.03471(9) 0.1803(2) 0.37558(5) 1 0 0.0132(2) 
O1 O2- 8 c 0.4565(5) 0.3972(9) 0.3836(2) 1 0 0.0155(12) 
O2 O2- 8 c 0.1126(5) 0.2960(10) 0.4485(3) 1 0 0.0187(13) 
O3 O2- 8 c 0.1163(5) 0.2601(10) 0.2970(3) 1 0 0.0178(15) 
O4 O2- 8 c 0.3714(4) 0.2586(10) 0.1280(4) 1 0 0.0196(12) 

loop_
_atom_site_aniso_label
_atom_site_aniso_type_symbol
_atom_site_aniso_U_11
_atom_site_aniso_U_22
_atom_site_aniso_U_33
_atom_site_aniso_U_12
_atom_site_aniso_U_13
_atom_site_aniso_U_23
K1 K1+ 0.0235(8) 0.0178(11) 0.0231(8) 0.0031(8) -0.0023(7) 0.0004(8)
K2 K1+ 0.0179(8) 0.0286(14) 0.0198(8) 0.0059(8) 0.0028(7) 0.0056(8)
K3 K1+ 0.0339(10) 0.0280(14) 0.0193(8) 0.0023(10) 0.0041(8) -0.0069(9)
K4 K1+ 0.0274(9) 0.0330(15) 0.0171(7) 0.0058(9) -0.0025(7) -0.0092(8)
K5 K1+ 0.0405(11) 0.0159(11) 0.0180(7) 0.0030(8) 0.0068(7) 0.0034(8)
Fe1 Fe3+ 0.0165(5) 0.0129(6) 0.0101(4) 0.0000(5) -0.0003(4) 0.0004(5)
O1 O2- 0.017(2) 0.010(3) 0.019(2) 0.000(2) 0.001(2) 0.004(2)
O2 O2- 0.032(3) 0.011(4) 0.014(3) -0.001(3) -0.001(2) 0.002(2)
O3 O2- 0.017(3) 0.023(4) 0.013(3) -0.001(2) 0.002(2) 0.004(2)
O4 O2- 0.022(2) 0.019(3) 0.018(2) 0.005(2) 0.006(3) -0.004(2)
#End of data_415754-ICSD


