data_28213-ICSD
#?2014 by Fachinformationszentrum Karlsruhe, and the U.S. Secretary of 
#Commerce on behalf of the United States.  All rights reserved.
_database_code_ICSD                28213
_audit_creation_date               1980/01/01
_audit_update_record               2007/04/01
_chemical_name_systematic          'Sodium Yttrium Germanate'
_chemical_formula_structural       'Na Y (Ge O4)'
_chemical_formula_sum              'Ge1 Na1 O4 Y1'
_publ_section_title
;
Crystal structure of synthetic Na, Y - orthogermanate
;
loop_
_citation_id
_citation_journal_abbrev
_citation_year
_citation_journal_volume
_citation_page_first
_citation_page_last
_citation_journal_id_ASTM
primary 'Zhurnal Strukturnoi Khimii (Issue-No. from 1981)'
 1970 11 159 161 ZSTKAI
_publ_author_name
;
Kuz'min, E.A.;Maksimov, B.A.;Ilyukhin, V.V.;Belov, N.V.
;
_cell_length_a                     5.32
_cell_length_b                     11.49
_cell_length_c                     6.49
_cell_angle_alpha                  90.
_cell_angle_beta                   90.
_cell_angle_gamma                  90.
_cell_volume                       396.71
_cell_formula_units_Z              4
_symmetry_space_group_name_H-M     'P b n 21'
_symmetry_Int_Tables_number        33
_refine_ls_R_factor_all            .146
loop_
_symmetry_equiv_pos_site_id
_symmetry_equiv_pos_as_xyz
  1	'-x+.5, y+.5, z'
  2	'x+.5, -y+.5, z+.5'
  3	'-x, -y, z+.5'
  4	'x, y, z'
loop_
_atom_type_symbol
_atom_type_oxidation_number
Ge4+	4
Na1+	1
O2-	-2
Y3+	3
loop_
_atom_site_label
_atom_site_type_symbol
_atom_site_symmetry_multiplicity
_atom_site_Wyckoff_symbol
_atom_site_fract_x
_atom_site_fract_y
_atom_site_fract_z
_atom_site_occupancy
_atom_site_attached_hydrogens
_atom_site_B_iso_or_equiv
Y1 Y3+ 4 a 0.003 0.222 0 1. 0 0 
Na1 Na1+ 4 a 0.476 0.009 0.254 1. 0 0.4 
Ge1 Ge4+ 4 a 0.057 0.097 0.477 1. 0 0 
O1 O2- 4 a 0.221 0.162 0.692 1. 0 0.1 
O2 O2- 4 a 0.182 0.189 0.306 1. 0 0.2 
O3 O2- 4 a 0.333 0.462 0.473 1. 0 0 
O4 O2- 4 a 0.253 0.398 0.015 1. 0 0.1 

#End of data_28213-ICSD


