data_63048-ICSD
#?2014 by Fachinformationszentrum Karlsruhe, and the U.S. Secretary of 
#Commerce on behalf of the United States.  All rights reserved.
_database_code_ICSD                63048
_audit_creation_date               1989/06/19
_audit_update_record               2013/08/01
_chemical_name_systematic          'Tripotassium Holmium Trisilicate'
_chemical_formula_structural       'K3 Ho (Si3 O9)'
_chemical_formula_sum              'Ho1 K3 O9 Si3'
_publ_section_title
;
Crystal structures of the K-Ho triorthosilicate K3 Ho Si3 O8 (O H)2 
at 300 K and of the dehydration product K3 Ho Si3 O9 at 880 K.
;
loop_
_citation_id
_citation_journal_abbrev
_citation_year
_citation_journal_volume
_citation_journal_issue
_citation_page_first
_citation_page_last
_citation_journal_id_ASTM
primary Kristallografiya 1988 33- 98 104 KRISAJ
2 'Soviet Physics, Crystallography (= Kristallografiya)'
 1988 33 1 53 57 SPHCA6
3 'Doklady Akademii Nauk SSSR' 1988 298- 1135 1137 DANKAS
_publ_author_name
;
Ponomarev, V.I.;Filipenko, O.S.;Atovmyan, L.O.
;
_cell_length_a                     13.949(8)
_cell_length_b                     12.905(7)
_cell_length_c                     5.857(5)
_cell_angle_alpha                  90.
_cell_angle_beta                   90.
_cell_angle_gamma                  90.
_cell_volume                       1054.33
_cell_formula_units_Z              4
_symmetry_space_group_name_H-M     'P m 21 n'
_symmetry_Int_Tables_number        31
_refine_ls_R_factor_all            .058
loop_
_symmetry_equiv_pos_site_id
_symmetry_equiv_pos_as_xyz
  1	'x+.5, y+.5, -z'
  2	'-x+.5, y+.5, -z'
  3	'-x, y, z'
  4	'x, y, z'
loop_
_atom_type_symbol
_atom_type_oxidation_number
Ho3+	3
K1+	1
O2-	-2
Si4+	4
loop_
_atom_site_label
_atom_site_type_symbol
_atom_site_symmetry_multiplicity
_atom_site_Wyckoff_symbol
_atom_site_fract_x
_atom_site_fract_y
_atom_site_fract_z
_atom_site_occupancy
_atom_site_attached_hydrogens
_atom_site_B_iso_or_equiv
Ho1 Ho3+ 4 b 0.2594(1) 0.4592(1) 0.8325(1) 1. 0 1.22 
Si1 Si4+ 4 b 0.3902(1) 0.3726(5) 0.3237(14) 1. 0 1.3 
Si2 Si4+ 4 b 0.2208(4) 0.2470(5) 0.1674(15) 1. 0 1.41 
Si3 Si4+ 4 b 0.1147(4) 0.4365(4) 0.3310(13) 1. 0 1.29 
O1 O2- 2 a 0.5 0.3192(20) 0.330(6) 1. 0 2.3 
O2 O2- 4 b 0.3697(13) 0.4276(16) 0.5652(30) 1. 0 3. 
O3 O2- 4 b 0.3772(13) 0.4463(20) 0.1092(40) 1. 0 3.9 
O4 O2- 4 b 0.3248(12) 0.2660(17) 0.2845(40) 1. 0 2.9 
O5 O2- 4 b 0.2175(15) 0.2928(13) 0.9029(30) 1. 0 2.5 
O6 O2- 4 b 0.1939(16) 0.1293(15) 0.1838(50) 1. 0 3.6 
O7 O2- 4 b 0.1445(19) 0.3101(16) 0.321(4) 1. 0 3.3 
O8 O2- 4 b 0.1459(17) 0.4977(15) 0.1044(60) 1. 0 5. 
O9 O2- 4 b 0.1450(13) 0.4853(15) 0.5695(30) 1. 0 3.3 
O10 O2- 2 a 0 0.4459(50) 0.3207(80) 1. 0 8. 
K1 K1+ 4 b 0.2186(7) 0.1250(7) 0.6601(17) 1. 0 4.2 
K2 K1+ 2 a 0.5 0.5582(13) 0.8111(28) 1. 0 4.5 
K3 K1+ 2 a 0.5 0.8431(12) 0.173(4) 1. 0 6.1 
K4 K1+ 2 a 0.5 0.1057(18) 0.2368(47) 1. 0 6.6 
K5 K1+ 2 a 0.5 0.3050(13) 0.8318(35) 1. 0 5. 

#End of data_63048-ICSD


