data_93056-ICSD
#?2014 by Fachinformationszentrum Karlsruhe, and the U.S. Secretary of 
#Commerce on behalf of the United States.  All rights reserved.
_database_code_ICSD                93056
_audit_creation_date               2003/04/01
_chemical_name_systematic          'Potassium Fluorodioxosulfate(IV)'
_chemical_formula_structural       'K (S O2 F)'
_chemical_formula_sum              'F1 K1 O2 S1'
_publ_section_title
;
Structure of the fluorosulfite anion: rotational disorder of (S O2 
F)(-) in the alkali metal fluorosulfites and crystal structures of 
alpha- and beta-(Cs S O2 F)
;
loop_
_citation_id
_citation_journal_abbrev
_citation_year
_citation_journal_volume
_citation_page_first
_citation_page_last
_citation_journal_id_ASTM
primary 'Inorganic Chemistry' 2001 40 7040 7046 INOCAJ
_publ_author_name
;
Kessler, U.;van Wuellen, L.;Jansen, M.
;
_cell_length_a                     6.9147(7)
_cell_length_b                     5.6599(6)
_cell_length_c                     4.6435(4)
_cell_angle_alpha                  90
_cell_angle_beta                   107.402(9)
_cell_angle_gamma                  90
_cell_volume                       173.41
_cell_formula_units_Z              2
_symmetry_space_group_name_H-M     'P 1 21/m 1'
_symmetry_Int_Tables_number        11
_refine_ls_R_factor_all            .0345
loop_
_symmetry_equiv_pos_site_id
_symmetry_equiv_pos_as_xyz
  1	'x, -y+.5, z'
  2	'-x, -y, -z'
  3	'-x, y+.5, -z'
  4	'x, y, z'
loop_
_atom_type_symbol
_atom_type_oxidation_number
F1-	-1
K1+	1
O2-	-2
S4+	4
loop_
_atom_site_label
_atom_site_type_symbol
_atom_site_symmetry_multiplicity
_atom_site_Wyckoff_symbol
_atom_site_fract_x
_atom_site_fract_y
_atom_site_fract_z
_atom_site_occupancy
_atom_site_attached_hydrogens
_atom_site_U_iso_or_equiv
K1 K1+ 2 e 0.28985(7) 0.250 0.1545(1) 1. 0 0.0214(1) 
S1 S4+ 2 e 0.82877(8) 0.250 0.4216(1) 1. 0 0.0230(1) 
O1 O2- 4 f 0.6899(2) 0.0355(2) 0.3314(3) 1. 0 0.0267(2) 
F1 F1- 2 e 0.8808(3) 0.250 0.7841(3) 1. 0 0.0393(4) 

loop_
_atom_site_aniso_label
_atom_site_aniso_type_symbol
_atom_site_aniso_U_11
_atom_site_aniso_U_22
_atom_site_aniso_U_33
_atom_site_aniso_U_12
_atom_site_aniso_U_13
_atom_site_aniso_U_23
K1 K1+ 0.0220(2) 0.0224(2) 0.0185(2) 0. 0.0041(1) 0.
S1 S4+ 0.0205(2) 0.0229(3) 0.0283(3) 0. 0.0114(2) 0.
O1 O2- 0.0332(5) 0.0192(5) 0.0268(5) -0.0016(5) 0.0078(4) -0.0018(4)
F1 F1- 0.0372(8) 0.058(1) 0.0198(7) 0. 0.0043(6) 0.
#End of data_93056-ICSD


