data_187321-ICSD
#?2014 by Fachinformationszentrum Karlsruhe, and the U.S. Secretary of 
#Commerce on behalf of the United States.  All rights reserved.
_database_code_ICSD                187321
_audit_creation_date               2013/08/01
_chemical_name_systematic
;
Dipotassium (hydrogen Fluoride) Hexafluorotitanate
;
_chemical_formula_structural       'K2 (H F) (Ti F6)'
_chemical_formula_sum              'H1 F7 K2 Ti1'
_publ_section_title
;
Anion packing, hole filling, and HF solvation in A2 (H F)n B12 F12 
and K2 (H F) Ti F6 (A = K, Cs)
;
loop_
_citation_id
_citation_journal_abbrev
_citation_year
_citation_journal_volume
_citation_page_first
_citation_page_last
_citation_journal_id_ASTM
primary 'Journal of Fluorine Chemistry' 2013 145 118 127 JFLCAR
_publ_author_name
;
Peryshkov, Dmitry V.;Friedemann, Roland;Goreshnik, Evgeny;Mazej, 
Zoran;Seppelt, Konrad;Strauss, Steven H.
;
_cell_length_a                     6.187(3)
_cell_length_b                     5.986(2)
_cell_length_c                     8.895(4)
_cell_angle_alpha                  90.00
_cell_angle_beta                   99.330(4)
_cell_angle_gamma                  90.00
_cell_volume                       325.07
_cell_formula_units_Z              2
_symmetry_space_group_name_H-M     'P 1 21/m 1'
_symmetry_Int_Tables_number        11
_refine_ls_R_factor_all            .0586
loop_
_symmetry_equiv_pos_site_id
_symmetry_equiv_pos_as_xyz
  1	'x, -y+.5, z'
  2	'-x, -y, -z'
  3	'-x, y+.5, -z'
  4	'x, y, z'
loop_
_atom_type_symbol
_atom_type_oxidation_number
F1-	-1
H1+	1
K1+	1
Ti4+	4
loop_
_atom_site_label
_atom_site_type_symbol
_atom_site_symmetry_multiplicity
_atom_site_Wyckoff_symbol
_atom_site_fract_x
_atom_site_fract_y
_atom_site_fract_z
_atom_site_occupancy
_atom_site_attached_hydrogens
_atom_site_U_iso_or_equiv
Ti1 Ti4+ 2 e 0.30127(16) 0.2500 0.21504(12) 1 0 0.0173(4) 
K1 K1+ 2 e 0.2407(2) 0.7500 -0.00589(16) 1 0 0.0226(4) 
K2 K1+ 2 e 0.1793(2) 0.2500 0.67086(15) 1 0 0.0214(4) 
F1 F1- 2 e 0.1902(8) 0.7500 0.5333(6) 1 0 0.0590(15) 
F2 F1- 2 e 0.3950(6) 0.2500 0.4275(4) 1 0 0.0273(8) 
F3 F1- 4 f 0.0939(4) 0.4687(4) 0.2226(3) 1 0 0.0297(7) 
F4 F1- 2 e 0.2228(6) 0.2500 0.0041(4) 1 0 0.0272(9) 
F5 F1- 4 f 0.5085(4) 0.0310(4) 0.1936(3) 1 0 0.0244(6) 
H1 H1+ 2 e 0.3100 0.7500 0.5100 1 0 0.070 

loop_
_atom_site_aniso_label
_atom_site_aniso_type_symbol
_atom_site_aniso_U_11
_atom_site_aniso_U_22
_atom_site_aniso_U_33
_atom_site_aniso_U_12
_atom_site_aniso_U_13
_atom_site_aniso_U_23
Ti1 Ti4+ 0.0126(6) 0.0176(6) 0.0221(6) 0.000 0.0041(4) 0.000
K1 K1+ 0.0184(7) 0.0230(7) 0.0265(8) 0.000 0.0040(5) 0.000
K2 K1+ 0.0158(7) 0.0235(7) 0.0255(8) 0.000 0.0051(5) 0.000
F1 F1- 0.019(2) 0.111(5) 0.045(3) 0.000 -0.002(2) 0.000
F2 F1- 0.021(2) 0.037(2) 0.0239(19) 0.000 0.0056(15) 0.000
F3 F1- 0.0206(14) 0.0282(14) 0.0412(16) 0.0069(10) 0.0079(12) -0.0032(12)
F4 F1- 0.029(2) 0.032(2) 0.0209(19) 0.000 0.0034(16) 0.000
F5 F1- 0.0184(13) 0.0230(13) 0.0322(14) 0.0056(9) 0.0054(11) 0.0006(11)
#End of data_187321-ICSD


