data_34117-ICSD
#?2014 by Fachinformationszentrum Karlsruhe, and the U.S. Secretary of 
#Commerce on behalf of the United States.  All rights reserved.
_database_code_ICSD                34117
_audit_creation_date               1980/01/01
_audit_update_record               2010/02/01
_chemical_name_systematic          'Calcium Dimanganese(III) Oxide'
_chemical_formula_structural       'Ca Mn2 O4'
_chemical_formula_sum              'Ca1 Mn2 O4'
_chemical_name_mineral             Marokite
_publ_section_title
;
Etude structurale de l'oxyde double de manganese et de calcium 
orthorhombique Ca Mn2 O4 (marokite)
;
loop_
_citation_id
_citation_journal_abbrev
_citation_year
_citation_journal_volume
_citation_page_first
_citation_page_last
_citation_journal_id_ASTM
primary
;
Bulletin de la Societe Francaise de Mineralogie et de 
Cristallographie (72,1949-100,1977)
;
 1966 89 318 324 BUFCAE
2
;
Comptes Rendus Hebdomadaires des Seances de l`Academie des Sciences 
(1884 - 1965)
;
 1964 258 1847 1849 COREAF
_publ_author_name                  'Lepicard, G.;Protas, J.'
_cell_length_a                     9.71(2)
_cell_length_b                     10.03(2)
_cell_length_c                     3.162(5)
_cell_angle_alpha                  90.
_cell_angle_beta                   90.
_cell_angle_gamma                  90.
_cell_volume                       307.95
_cell_formula_units_Z              4
_symmetry_space_group_name_H-M     'P m a b'
_symmetry_Int_Tables_number        57
_refine_ls_R_factor_all            .136
loop_
_symmetry_equiv_pos_site_id
_symmetry_equiv_pos_as_xyz
  1	'x+.5, -y+.5, z'
  2	'x, y+.5, -z'
  3	'-x+.5, y, z'
  4	'-x, -y, -z'
  5	'-x+.5, y+.5, -z'
  6	'-x, -y+.5, z'
  7	'x+.5, -y, -z'
  8	'x, y, z'
loop_
_atom_type_symbol
_atom_type_oxidation_number
Ca2+	2
Mn3+	3
O2-	-2
loop_
_atom_site_label
_atom_site_type_symbol
_atom_site_symmetry_multiplicity
_atom_site_Wyckoff_symbol
_atom_site_fract_x
_atom_site_fract_y
_atom_site_fract_z
_atom_site_occupancy
_atom_site_attached_hydrogens
_atom_site_B_iso_or_equiv
Ca1 Ca2+ 4 d 0.75 0.14896(11) 0.6809(3) 1. 0 0.476(11) 
Mn1 Mn3+ 8 e 0.06856(6) 0.11168(6) 0.20413(18) 1. 0 0.397(8) 
O1 O2- 4 c 0 0.25 0.5896(13) 1. 0 0.546(23) 
O2 O2- 4 d 0.25 0.1829(4) 0.1897(12) 1. 0 0.514(32) 
O3 O2- 8 e 0.1084(3) -.0266(3) 0.79976(90) 1. 0 0.542(24) 

#End of data_34117-ICSD


