data_174386-ICSD
#?2014 by Fachinformationszentrum Karlsruhe, and the U.S. Secretary of 
#Commerce on behalf of the United States.  All rights reserved.
_database_code_ICSD                174386
_audit_creation_date               2011/02/01
_chemical_name_systematic
;
Sodium Lanthanum Magnesium Tungsten Hexaoxide
;
_chemical_formula_structural       'Na La Mg W O6'
_chemical_formula_sum              'La1 Mg1 Na1 O6 W1'
_publ_section_title
;
Investigations into structure and properties of ordered perovskites, 
layered perovskites, and defect pyrochlores
;
loop_
_citation_id
_citation_journal_abbrev
_citation_year
_citation_journal_volume
_citation_page_first
_citation_page_last
_citation_journal_id_ASTM
primary 'Diss. Ohio State University' 2006 2006 1 161 THOSUY
_publ_author_name                  'Knapp, M.C.'
_cell_length_a                     7.8118(4)
_cell_length_b                     7.8165(4)
_cell_length_c                     7.9010(3)
_cell_angle_alpha                  90
_cell_angle_beta                   90.137(5)
_cell_angle_gamma                  90
_cell_volume                       482.44
_cell_formula_units_Z              4
_symmetry_space_group_name_H-M     'C 1 2/m 1'
_symmetry_Int_Tables_number        12
_refine_ls_R_factor_all            .128
loop_
_symmetry_equiv_pos_site_id
_symmetry_equiv_pos_as_xyz
  1	'-x, y, -z'
  2	'-x, -y, -z'
  3	'x, -y, z'
  4	'x, y, z'
  5	'-x+.5, y+.5, -z'
  6	'-x+.5, -y+.5, -z'
  7	'x+.5, -y+.5, z'
  8	'x+.5, y+.5, z'
loop_
_atom_type_symbol
_atom_type_oxidation_number
La3+	3
Mg2+	2
Na1+	1
O2-	-2
W6+	6
loop_
_atom_site_label
_atom_site_type_symbol
_atom_site_symmetry_multiplicity
_atom_site_Wyckoff_symbol
_atom_site_fract_x
_atom_site_fract_y
_atom_site_fract_z
_atom_site_occupancy
_atom_site_attached_hydrogens
_atom_site_U_iso_or_equiv
Na1 Na1+ 4 g 0 0.221(1) 0 1. 0 0.0061(5) 
La1 La3+ 4 h 0 0.2439(5) 0.5 1. 0 0.0061(5) 
Mg1 Mg2+ 4 i 0.742(1) 0 0.747(1) 1. 0 0.0061(5) 
W1 W6+ 4 i 0.252(1) 0 0.733(1) 1. 0 0.0061(5) 
O1 O2- 4 i 0.787(1) 0 0.005(2) 1. 0 0.036(2) 
O2 O2- 4 i 0.7050(8) 0 0.498(1) 1. 0 0.017(1) 
O3 O2- 4 i 0.014(2) 0 0.721(1) 1. 0 0.013(1) 
O4 O2- 4 i 0.503(1) 0 0.8002(7) 1. 0 0.005(1) 
O5 O2- 8 j 0.741(2) 0.257(2) 0.7712(8) 1. 0 0.043(2) 

#End of data_174386-ICSD


