data_245511-ICSD
#?2014 by Fachinformationszentrum Karlsruhe, and the U.S. Secretary of 
#Commerce on behalf of the United States.  All rights reserved.
_database_code_ICSD                245511
_audit_creation_date               2008/02/01
_chemical_name_systematic
;
Dilithium Tris(dioxouranyl(VI)) Oxobis(tetraoxovanadate)
;
_chemical_formula_structural       'Li2 (U O2)3 (V O4)2 O'
_chemical_formula_sum              'Li2 O15 U3 V2'
_publ_section_title
;
Three-dimensional framework of uranium-centered polyhedra with non-
intersecting channels in the uranyl oxy-vanadates A2 (U O2)3 (V O4)2 
O (A = Li, Na)
;
loop_
_citation_id
_citation_journal_abbrev
_citation_year
_citation_journal_volume
_citation_journal_issue
_citation_page_first
_citation_page_last
_citation_journal_id_ASTM
primary 'Journal of Solid State Chemistry' 2007 180 3 866 872 JSSCBI
_publ_author_name
;
Obbade, S.;Duvieubourg, L.;Dion, C.;Abraham, F.
;
_cell_length_a                     7.3303(5)
_cell_length_b                     7.3303(5)
_cell_length_c                     24.653(3)
_cell_angle_alpha                  90.
_cell_angle_beta                   90.
_cell_angle_gamma                  90.
_cell_volume                       1324.69
_cell_formula_units_Z              4
_symmetry_space_group_name_H-M     'I 41/a m d Z'
_symmetry_Int_Tables_number        141
_refine_ls_R_factor_all            .032
loop_
_symmetry_equiv_pos_site_id
_symmetry_equiv_pos_as_xyz
  1	'y+.25, x+.75, -z+.25'
  2	'y+.25, -x+.75, -z+.25'
  3	'x, y+.5, -z'
  4	'x, -y, -z'
  5	'-y+.75, x+.75, -z+.25'
  6	'-y+.75, -x+.75, -z+.25'
  7	'-x, y+.5, -z'
  8	'-x, -y, -z'
  9	'-y+.75, -x+.25, z+.75'
 10	'-y+.75, x+.25, z+.75'
 11	'-x, -y+.5, z'
 12	'-x, y, z'
 13	'y+.25, -x+.25, z+.75'
 14	'y+.25, x+.25, z+.75'
 15	'x, -y+.5, z'
 16	'x, y, z'
 17	'y+.75, x+.25, -z+.75'
 18	'y+.75, -x+.25, -z+.75'
 19	'x+.5, y, -z+.5'
 20	'x+.5, -y+.5, -z+.5'
 21	'-y+.25, x+.25, -z+.75'
 22	'-y+.25, -x+.25, -z+.75'
 23	'-x+.5, y, -z+.5'
 24	'-x+.5, -y+.5, -z+.5'
 25	'-y+.25, -x+.75, z+.25'
 26	'-y+.25, x+.75, z+.25'
 27	'-x+.5, -y, z+.5'
 28	'-x+.5, y+.5, z+.5'
 29	'y+.75, -x+.75, z+.25'
 30	'y+.75, x+.75, z+.25'
 31	'x+.5, -y, z+.5'
 32	'x+.5, y+.5, z+.5'
loop_
_atom_type_symbol
_atom_type_oxidation_number
Li1+	1
O2-	-2
U6+	6
V5+	5
loop_
_atom_site_label
_atom_site_type_symbol
_atom_site_symmetry_multiplicity
_atom_site_Wyckoff_symbol
_atom_site_fract_x
_atom_site_fract_y
_atom_site_fract_z
_atom_site_occupancy
_atom_site_attached_hydrogens
_atom_site_U_iso_or_equiv
U1 U6+ 4 b 0.5 0.25 0.125 1. 0 0.0103(3) 
U2 U6+ 8 e 0 0.25 -0.03961(3) 1. 0 0.0102(3) 
V1 V5+ 8 e 0 0.25 0.0933(1) 1. 0 0.0100(6) 
O1 O2- 4 a 0 0.25 -0.125 1. 0 0.013(4) 
O2 O2- 16 h 0.1898(15) 0.25 0.1338(4) 1. 0 0.020(2) 
O3 O2- 8 e 0.5 0.25 0.0521(6) 1. 0 0.018(4) 
O4 O2- 16 h 0 0.4266(14) 0.0484(4) 1. 0 0.018(2) 
O5 O2- 16 h -0.2436(13) 0.25 -0.0373(4) 1. 0 0.021(3) 
Li1 Li1+ 8 e 0.5 0.25 -0.0409(7) 1. 0 0.022(8) 

loop_
_atom_site_aniso_label
_atom_site_aniso_type_symbol
_atom_site_aniso_U_11
_atom_site_aniso_U_22
_atom_site_aniso_U_33
_atom_site_aniso_U_12
_atom_site_aniso_U_13
_atom_site_aniso_U_23
U1 U6+ 0.0098(4) 0.0098(4) 0.0114(5) 0 0 0
U2 U6+ 0.0122(5) 0.0101(4) 0.0084(4) 0 0 0
V1 V5+ 0.0113(17) 0.0079(15) 0.0108(15) 0 0 0
O1 O2- 0.007(6) 0.007(6) 0.025(12) 0 0 0
O2 O2- 0.013(5) 0.022(6) 0.026(6) 0 0.003(5) 0
O3 O2- 0.003(8) 0.028(10) 0.023(9) 0 0 0
O4 O2- 0.031(6) 0.006(5) 0.016(5) 0 0 -0.002(4)
O5 O2- 0.004(5) 0.022(6) 0.038(7) 0 0.000(5) 0
#End of data_245511-ICSD


