data_38063-ICSD
#?2014 by Fachinformationszentrum Karlsruhe, and the U.S. Secretary of 
#Commerce on behalf of the United States.  All rights reserved.
_database_code_ICSD                38063
_audit_creation_date               1984/09/06
_audit_update_record               2004/10/01
_chemical_name_systematic
;
Tetradecasodium Tetraaluminium Oxide
;
_chemical_formula_structural       'Na14 Al4 O13'
_chemical_formula_sum              'Al4 Na14 O13'
_publ_section_title
;
Das erste Oligo-Oxo-Aluminat: Na14 Al4 O13
;
loop_
_citation_id
_citation_journal_abbrev
_citation_year
_citation_journal_volume
_citation_page_first
_citation_page_last
_citation_journal_id_ASTM
primary 'Zeitschrift fuer Anorganische und Allgemeine Chemie (1950) (DE)'
 1983 507 155 162 ZAACAB
_publ_author_name
;
Griesfeller, F.;Koehler, J.;Hoppe, R.
;
_cell_length_a                     5.997
_cell_length_b                     27.04
_cell_length_c                     5.969
_cell_angle_alpha                  90.
_cell_angle_beta                   120.1
_cell_angle_gamma                  90.
_cell_volume                       837.4
_cell_formula_units_Z              2
_symmetry_space_group_name_H-M     'P 1 21/c 1'
_symmetry_Int_Tables_number        14
_refine_ls_R_factor_all            .0938
loop_
_symmetry_equiv_pos_site_id
_symmetry_equiv_pos_as_xyz
  1	'x, -y+.5, z+.5'
  2	'-x, -y, -z'
  3	'-x, y+.5, -z+.5'
  4	'x, y, z'
loop_
_atom_type_symbol
_atom_type_oxidation_number
Al3+	3
Na1+	1
O2-	-2
loop_
_atom_site_label
_atom_site_type_symbol
_atom_site_symmetry_multiplicity
_atom_site_Wyckoff_symbol
_atom_site_fract_x
_atom_site_fract_y
_atom_site_fract_z
_atom_site_occupancy
_atom_site_attached_hydrogens
Na1 Na1+ 4 e 0.2345(5) 0.9997(1) 0.7663(5) 1. 0 
Na2 Na1+ 4 e 0.7806(6) 0.1126(1) 0.2458(5) 1. 0 
Na3 Na1+ 4 e 0.2139(5) 0.2185(1) 0.7611(5) 1. 0 
Na4 Na1+ 4 e 0.6496(6) 0.0537(1) 0.6475(5) 1. 0 
Na5 Na1+ 4 e 0.3674(6) 0.1598(1) 0.3606(6) 1. 0 
Na6 Na1+ 4 e 0.7890(6) 0.2247(1) 0.2272(6) 1. 0 
Na7 Na1+ 4 e 0.2504(5) 0.1111(1) 0.7819(5) 1. 0 
Al1 Al3+ 4 e 0.1634(3) 0.0548(1) 0.1642(3) 1. 0 
Al2 Al3+ 4 e 0.8458(4) 0.1652(1) 0.8465(3) 1. 0 
O1 O2- 4 e 0.9720(9) 0.1048(2) 0.9703(9) 1. 0 
O2 O2- 4 e 0.1841(9) 0.0572(2) 0.4664(8) 1. 0 
O3 O2- 4 e 0.8206(9) 0.1701(2) 0.5408(8) 1. 0 
O4 O2- 4 e 0.5460(9) 0.1708(2) 0.8321(9) 1. 0 
O5 O2- 4 e 0.4607(9) 0.0572(2) 0.1787(9) 1. 0 
O6 O2- 4 e 0.0643(8) 0.2098(2) 0.0564(8) 1. 0 
O7 O2- 2 a 0 0 0 1. 0 

loop_
_atom_site_aniso_label
_atom_site_aniso_type_symbol
_atom_site_aniso_U_11
_atom_site_aniso_U_22
_atom_site_aniso_U_33
_atom_site_aniso_U_12
_atom_site_aniso_U_13
_atom_site_aniso_U_23
Na1 Na1+ 0.0196(14) 0.0126(13) 0.0208(13) 0.0130(11) 0.0015(11) 0.0051(11)
Na2 Na1+ 0.0168(14) 0.0175(14) 0.0203(14) -.0063(11) 0.0130(12) -.0029(11)
Na3 Na1+ 0.0123(12) 0.0097(12) 0.0148(12) 0.0047(10) 0.0081(10) 0.0046(10)
Na4 Na1+ 0.0155(13) 0.0283(15) 0.0135(12) -.0007(10) -.0007(10) -.0005(14)
Na5 Na1+ 0.0137(14) 0.0207(14) 0.0188(13) -.0023(12) 0.0042(11) -.0002(12)
Na6 Na1+ 0.0173(13) 0.0143(14) 0.0136(13) -.0030(12) 0.0092(11) 0.0016(12)
Na7 Na1+ 0.0167(14) 0.0160(12) 0.0160(14) -.0036(11) 0.0131(11) -.0029(10)
Al1 Al3+ 0.0057(7) 0.0058(7) 0.0067(7) -.0011(8) 0.0036(6) 0.0009(8)
Al2 Al3+ 0.0078(8) 0.0039(7) 0.0033(7) 0.0020(7) 0.0017(6) 0.0024(6)
O1 O2- 0.0161(22) 0.007(2) 0.0173(22) 0.0058(17) 0.0079(17) 0.0064(17)
O2 O2- 0.0158(20) 0.0173(22) 0.0067(17) 0.0000(19) 0.0042(16) -.0001(17)
O3 O2- 0.0144(21) 0.0227(24) 0.0102(19) -.0078(19) 0.0081(17) -.0038(17)
O4 O2- 0.0102(20) 0.0126(20) 0.0138(19) 0.0034(17) 0.0079(16) 0.0003(16)
O5 O2- 0.0071(18) 0.0190(23) 0.0155(20) 0.0020(16) 0.0046(16) 0.0011(19)
O6 O2- 0.0099(20) 0.0094(19) 0.0106(19) -.0005(16) 0.0055(16) -.0022(15)
O7 O2- 0.0165(28) 0.0102(27) 0.0122(25) -.0083(23) 0.0099(22) -.0006(22)
#End of data_38063-ICSD


