data_15476-ICSD
#?2014 by Fachinformationszentrum Karlsruhe, and the U.S. Secretary of 
#Commerce on behalf of the United States.  All rights reserved.
_database_code_ICSD                15476
_audit_creation_date               1980/01/01
_audit_update_record               2006/04/01
_chemical_name_systematic          'Disodium Thiosulfate(VI) - Alpha'
_chemical_formula_structural       'Na2 (S2 O3)'
_chemical_formula_sum              'Na2 O3 S2'
_publ_section_title
;
The crystal structure of anhydrous sodium thiosulphate
;
loop_
_citation_id
_citation_journal_abbrev
_citation_year
_citation_journal_volume
_citation_page_first
_citation_page_last
_citation_journal_id_ASTM
primary 'Acta Crystallographica (1,1948-23,1967)' 1961 14 237 243 ACCRA9
2 'Golden Book of Phase Transitions, Wroclaw' 2002 1 1 123 GBOPT5
_publ_author_name                  'Sandor, E.;Csordas, L.'
_cell_length_a                     6.50(5)
_cell_length_b                     8.12(1)
_cell_length_c                     8.52(2)
_cell_angle_alpha                  90.
_cell_angle_beta                   95.07(26)
_cell_angle_gamma                  90.
_cell_volume                       447.93
_cell_formula_units_Z              4
_symmetry_space_group_name_H-M     'P 1 21/a 1'
_symmetry_Int_Tables_number        14
_refine_ls_R_factor_all            .15
loop_
_symmetry_equiv_pos_site_id
_symmetry_equiv_pos_as_xyz
  1	'x+.5, -y+.5, z'
  2	'-x, -y, -z'
  3	'-x+.5, y+.5, -z'
  4	'x, y, z'
loop_
_atom_type_symbol
_atom_type_oxidation_number
Na1+	1
O2-	-2
S2-	-2
S6+	6
loop_
_atom_site_label
_atom_site_type_symbol
_atom_site_symmetry_multiplicity
_atom_site_Wyckoff_symbol
_atom_site_fract_x
_atom_site_fract_y
_atom_site_fract_z
_atom_site_occupancy
_atom_site_attached_hydrogens
_atom_site_B_iso_or_equiv
S1 S6+ 4 e 0.294(1) -.047(1) 0.265(1) 1. 0 0.5 
S2 S2- 4 e 0.522(1) 0.106(1) 0.211(1) 1. 0 0.5 
O1 O2- 4 e 0.185(5) 0.033(4) 0.380(4) 1. 0 0.5 
O2 O2- 4 e 0.385(5) -.200(4) 0.331(4) 1. 0 0.5 
O3 O2- 4 e 0.163(5) -.089(4) 0.114(4) 1. 0 0.5 
Na1 Na1+ 4 e 0.292(3) 0.623(2) 0.088(2) 1. 0 0.5 
Na2 Na1+ 4 e 0.374(3) 0.304(2) 0.454(2) 1. 0 0.5 

#End of data_15476-ICSD


