data_74773-ICSD
#?2014 by Fachinformationszentrum Karlsruhe, and the U.S. Secretary of 
#Commerce on behalf of the United States.  All rights reserved.
_database_code_ICSD                74773
_audit_creation_date               1995/10/17
_audit_update_record               2012/02/01
_chemical_name_systematic
;
Magnesium Aluminium Phosphate(V) Oxide
;
_chemical_formula_structural       'Mg Al (P O4) O'
_chemical_formula_sum              'Al1 Mg1 O5 P1'
_publ_section_title                'Crystal structure of Mg Al P O5'
loop_
_citation_id
_citation_journal_abbrev
_citation_year
_citation_journal_volume
_citation_page_first
_citation_page_last
_citation_journal_id_ASTM
primary 'Zeitschrift fuer Kristallographie (1979-2010)' 1994 209 660 661 ZEKRDZ
_publ_author_name                  'Hesse, K.F.;Cemic, L.'
_cell_length_a                     7.111(2)
_cell_length_b                     10.362(3)
_cell_length_c                     5.455(3)
_cell_angle_alpha                  90.
_cell_angle_beta                   98.38(5)
_cell_angle_gamma                  90.
_cell_volume                       397.66
_cell_formula_units_Z              4
_symmetry_space_group_name_H-M     'P 1 21/c 1'
_symmetry_Int_Tables_number        14
_refine_ls_R_factor_all            .067
loop_
_symmetry_equiv_pos_site_id
_symmetry_equiv_pos_as_xyz
  1	'x, -y+.5, z+.5'
  2	'-x, -y, -z'
  3	'-x, y+.5, -z+.5'
  4	'x, y, z'
loop_
_atom_type_symbol
_atom_type_oxidation_number
Al3+	3
Mg2+	2
O2-	-2
P5+	5
loop_
_atom_site_label
_atom_site_type_symbol
_atom_site_symmetry_multiplicity
_atom_site_Wyckoff_symbol
_atom_site_fract_x
_atom_site_fract_y
_atom_site_fract_z
_atom_site_occupancy
_atom_site_attached_hydrogens
Mg1 Mg2+ 4 e 0.0150(2) 0.1422(1) 0.1166 1. 0 
Al1 Al3+ 4 e 0.3594(2) 0.3256(1) 0.0597(2) 1. 0 
P1 P5+ 4 e 0.7707(1) 0.0983(1) 0.5686(2) 1. 0 
O1 O2- 4 e 0.2680(3) 0.2204(2) 0.2590(5) 1. 0 
O2 O2- 4 e 0.6072(4) 0.1760(3) 0.6194(5) 1. 0 
O3 O2- 4 e 0.2842(4) 0.4852(2) 0.1073(5) 1. 0 
O4 O2- 4 e 0.9135(4) 0.1848(2) 0.4418(5) 1. 0 
O5 O2- 4 e 0.1117(4) -.0456(2) 0.1869(5) 1. 0 

loop_
_atom_site_aniso_label
_atom_site_aniso_type_symbol
_atom_site_aniso_U_11
_atom_site_aniso_U_22
_atom_site_aniso_U_33
_atom_site_aniso_U_12
_atom_site_aniso_U_13
_atom_site_aniso_U_23
Mg1 Mg2+ 0.0079(6) 0.0046(6) 0.0051(6) -.0005(5) -.0016(5) -.0012(5)
Al1 Al3+ 0.0062(5) 0.0043(5) 0.0052(6) -.0004(4) 0.0001(4) 0.0003(5)
P1 P5+ 0.0051(4) 0.0028(4) 0.0052(4) 0.0004(4) -.0003(3) 0.0002(4)
O1 O2- 0.005(1) 0.007(1) 0.009(1) -.002(1) 0.001(1) 0.002(1)
O2 O2- 0.005(1) 0.008(1) 0.012(1) 0.001(1) 0.001(1) -.003(1)
O3 O2- 0.012(1) 0.004(1) 0.006(1) 0.002(1) -.001(1) 0.001(1)
O4 O2- 0.007(2) 0.009(1) 0.009(1) -.002(1) 0.002(1) 0.001(1)
O5 O2- 0.010(1) 0.005(1) 0.005(1) 0.002(1) -.003(1) 0.000(1)
#End of data_74773-ICSD


