data_184770-ICSD
#?2014 by Fachinformationszentrum Karlsruhe, and the U.S. Secretary of 
#Commerce on behalf of the United States.  All rights reserved.
_database_code_ICSD                184770
_audit_creation_date               2012/08/01
_chemical_name_systematic          'Lithium Nickel Phosphate'
_chemical_formula_structural       'Li Ni (P O4)'
_chemical_formula_sum              'Li1 Ni1 O4 P1'
_publ_section_title
;
Dielectric and modulus studies of Li Ni P O4
;
loop_
_citation_id
_citation_journal_abbrev
_citation_year
_citation_journal_volume
_citation_journal_issue
_citation_page_first
_citation_page_last
_citation_journal_id_ASTM
primary 'Materials Chemistry and Physics' 2012 134 1 366 370 MCHPDR
2 'Zeitschrift fuer Kristallographie - New Crystal Structures'
 1997 212- 319 319 ZKNSFT
_publ_author_name                  'Prabu, M.;Selvasekarapandian, S.'
_cell_length_a                     10.07
_cell_length_b                     5.860
_cell_length_c                     4.620
_cell_angle_alpha                  90.
_cell_angle_beta                   90.
_cell_angle_gamma                  90.
_cell_volume                       272.63
_cell_formula_units_Z              4
_symmetry_space_group_name_H-M     'P n m a'
_symmetry_Int_Tables_number        62
loop_
_symmetry_equiv_pos_site_id
_symmetry_equiv_pos_as_xyz
  1	'x+.5, y, -z+.5'
  2	'x, -y+.5, z'
  3	'-x+.5, y+.5, z+.5'
  4	'-x, -y, -z'
  5	'-x+.5, -y, z+.5'
  6	'-x, y+.5, -z'
  7	'x+.5, -y+.5, -z+.5'
  8	'x, y, z'
loop_
_atom_type_symbol
_atom_type_oxidation_number
Li1+	1
Ni2+	2
O2-	-2
P5+	5
loop_
_atom_site_label
_atom_site_type_symbol
_atom_site_symmetry_multiplicity
_atom_site_Wyckoff_symbol
_atom_site_fract_x
_atom_site_fract_y
_atom_site_fract_z
_atom_site_occupancy
_atom_site_attached_hydrogens
Li1 Li1+ 4 a 0 0 0 1. 0 
Ni1 Ni2+ 4 c 0.276 0.25 0.983 1. 0 
P1 P5+ 4 c 0.094 0.25 0.418 1. 0 
O1 O2- 4 c 0.100 0.25 0.742 1. 0 
O2 O2- 4 c 0.452 0.25 0.201 1. 0 
O3 O2- 8 d 0.166 0.043 0.278 1. 0 

#End of data_184770-ICSD


