data_91476-ICSD
#?2014 by Fachinformationszentrum Karlsruhe, and the U.S. Secretary of 
#Commerce on behalf of the United States.  All rights reserved.
_database_code_ICSD                91476
_audit_creation_date               2002/10/01
_chemical_name_systematic
;
Bismuth Dimagnesium Phosphate(V) Dioxide
;
_chemical_formula_structural       'Bi Mg2 (P O4) O2'
_chemical_formula_sum              'Bi1 Mg2 O6 P1'
_publ_section_title
;
Synthesis and structure of two new bismuth cadmium vanadates, Bi CdV 
O5 and Bi Cd2 V O6, and structures of Bi Ca2 As O6 and Bi Mg2 PO6
;
loop_
_citation_id
_citation_journal_abbrev
_citation_year
_citation_journal_volume
_citation_page_first
_citation_page_last
_citation_journal_id_ASTM
primary 'International Journal of Inorganic Materials' 2000 2 543 550 IJIMCR
_publ_author_name
;
Radosavljevic, I.;Howard, J.A.K.;Sleight, A.W.
;
_cell_length_a                     5.2743(1)
_cell_length_b                     7.8088(2)
_cell_length_c                     11.8948(3)
_cell_angle_alpha                  90.
_cell_angle_beta                   90.
_cell_angle_gamma                  90.
_cell_volume                       489.9
_cell_formula_units_Z              4
_symmetry_space_group_name_H-M     'P m c n'
_symmetry_Int_Tables_number        62
_refine_ls_R_factor_all            .023
loop_
_symmetry_equiv_pos_site_id
_symmetry_equiv_pos_as_xyz
  1	'x, -y+.5, z+.5'
  2	'-x+.5, y, z'
  3	'x+.5, y+.5, -z+.5'
  4	'-x, -y, -z'
  5	'-x, y+.5, -z+.5'
  6	'x+.5, -y, -z'
  7	'-x+.5, -y+.5, z+.5'
  8	'x, y, z'
loop_
_atom_type_symbol
_atom_type_oxidation_number
Bi3+	3
Mg2+	2
O2-	-2
P5+	5
loop_
_atom_site_label
_atom_site_type_symbol
_atom_site_symmetry_multiplicity
_atom_site_Wyckoff_symbol
_atom_site_fract_x
_atom_site_fract_y
_atom_site_fract_z
_atom_site_occupancy
_atom_site_attached_hydrogens
_atom_site_U_iso_or_equiv
Bi1 Bi3+ 4 c 0.75 0.003(1) 0.9024(2) 1. 0 0.0127(5) 
P1 P5+ 4 c 0.25 -.001(2) 0.697(3) 1. 0 0.0197(8) 
Mg1 Mg2+ 4 c 0.75 0.305(1) 0.034(6) 1. 0 0.021(2) 
Mg2 Mg2+ 4 c 0.25 0.3018(9) 0.9070(4) 1. 0 0.002(1) 
O1 O2- 8 d 0.0043(4) 0.0008(9) 0.6226(1) 1. 0 0.0128(4) 
O2 O2- 8 d 0.997(1) 0.1705(2) 0.9941(3) 1. 0 0.0072(1) 
O3 O2- 4 c 0.25 0.8516(8) 0.7685(5) 1. 0 0.014(1) 
O4 O2- 4 c 0.75 0.670(1) 0.7343(6) 1. 0 0.029(1) 

#End of data_91476-ICSD


