data_421486-ICSD
#?2014 by Fachinformationszentrum Karlsruhe, and the U.S. Secretary of 
#Commerce on behalf of the United States.  All rights reserved.
_database_code_ICSD                421486
_audit_creation_date               2011/02/01
_chemical_name_systematic
;
Potassium Bismuth Tetrathiogermanate
;
_chemical_formula_structural       'K Bi Ge S4'
_chemical_formula_sum              'Bi1 Ge1 K1 S4'
_publ_section_title
;
K Bi M S4 (M = Si, Ge): Synthesis, structure, and electronic 
structure
;
loop_
_citation_id
_citation_journal_abbrev
_citation_year
_citation_journal_volume
_citation_journal_issue
_citation_page_first
_citation_page_last
_citation_journal_id_ASTM
primary 'Journal of Solid State Chemistry' 2010 183 7 1640 1644 JSSCBI
_publ_author_name
;
Mei Dajiang;Lin Zheshuai;Bai Lei;Yao Ji Yong;Fu Pei Zhen;Wu Yi cheng
;
_cell_length_a                     6.5981(13)
_cell_length_b                     6.8149(14)
_cell_length_c                     17.284(4)
_cell_angle_alpha                  90.00
_cell_angle_beta                   108.46(3)
_cell_angle_gamma                  90.00
_cell_volume                       737.19
_cell_formula_units_Z              4
_symmetry_space_group_name_H-M     'P 1 21/c 1'
_symmetry_Int_Tables_number        14
_refine_ls_R_factor_all            .0296
loop_
_symmetry_equiv_pos_site_id
_symmetry_equiv_pos_as_xyz
  1	'x, -y+.5, z+.5'
  2	'-x, -y, -z'
  3	'-x, y+.5, -z+.5'
  4	'x, y, z'
loop_
_atom_type_symbol
_atom_type_oxidation_number
Bi3+	3
Ge4+	4
K1+	1
S2-	-2
loop_
_atom_site_label
_atom_site_type_symbol
_atom_site_symmetry_multiplicity
_atom_site_Wyckoff_symbol
_atom_site_fract_x
_atom_site_fract_y
_atom_site_fract_z
_atom_site_occupancy
_atom_site_attached_hydrogens
_atom_site_U_iso_or_equiv
K1 K1+ 4 e 0.2875(3) 0.7414(3) 0.03605(11) 1 0 0.0180(4) 
Bi1 Bi3+ 4 e 0.23494(5) 0.67750(4) 0.282715(18) 1 0 0.00816(11) 
Ge1 Ge4+ 4 e 0.20436(13) 0.26785(12) 0.15286(5) 1 0 0.00669(19) 
S1 S2- 4 e 0.0147(3) 0.0167(3) 0.37413(12) 1 0 0.0116(4) 
S2 S2- 4 e 0.4190(3) 0.2317(3) 0.07928(12) 1 0 0.0116(5) 
S3 S2- 4 e 0.0019(3) 0.5047(3) 0.36212(12) 1 0 0.0100(4) 
S4 S2- 4 e 0.4024(3) 0.3219(3) 0.28254(12) 1 0 0.0096(4) 

loop_
_atom_site_aniso_label
_atom_site_aniso_type_symbol
_atom_site_aniso_U_11
_atom_site_aniso_U_22
_atom_site_aniso_U_33
_atom_site_aniso_U_12
_atom_site_aniso_U_13
_atom_site_aniso_U_23
K1 K1+ 0.0209(10) 0.0255(11) 0.0082(10) -0.0048(9) 0.0054(8) -0.0008(8)
Bi1 Bi3+ 0.00815(16) 0.01046(18) 0.00610(18) -0.00052(13) 0.00256(12) 
-0.00060(12)
Ge1 Ge4+ 0.0071(4) 0.0091(4) 0.0041(4) 0.0006(3) 0.0020(3) 0.0002(3)
S1 S2- 0.0111(10) 0.0106(11) 0.0098(11) -0.0037(9) -0.0014(8) -0.0001(8)
S2 S2- 0.0108(10) 0.0197(12) 0.0053(11) 0.0016(9) 0.0040(8) 0.0014(9)
S3 S2- 0.0107(10) 0.0082(10) 0.0121(11) 0.0001(8) 0.0050(8) 0.0013(8)
S4 S2- 0.0123(10) 0.0124(11) 0.0037(10) 0.0043(9) 0.0021(8) -0.0009(8)
#End of data_421486-ICSD


