data_188065-ICSD
#?2014 by Fachinformationszentrum Karlsruhe, and the U.S. Secretary of 
#Commerce on behalf of the United States.  All rights reserved.
_database_code_ICSD                188065
_audit_creation_date               2014/02/01
_chemical_name_systematic          'Silver Iodate(V)'
_chemical_formula_structural       'Ag (I O3)'
_chemical_formula_sum              'Ag1 I1 O3'
_publ_section_title
;
First evidence of a phase transition in a High-Pressure metal iodate: 
structural and thermal studies of Ag I O3 polymorphs
;
loop_
_citation_id
_citation_journal_abbrev
_citation_year
_citation_journal_volume
_citation_journal_issue
_citation_page_first
_citation_page_last
_citation_journal_id_ASTM
primary 'European Journal of Inorganic Chemistry  (online)'
 2013 2013 20 3526 3532 EJICFO
_publ_author_name
;
Suffren, Yan;Gautier-Luneau, Isabelle;Darie, Celine;Goujon, 
Celine;Legendre, Murielle;Leynaud, Olivier
;
_cell_length_a                     6.137(2)
_cell_length_b                     16.980(4)
_cell_length_c                     5.827(1)
_cell_angle_alpha                  90.
_cell_angle_beta                   90.
_cell_angle_gamma                  90.
_cell_volume                       607.21
_cell_formula_units_Z              8
_symmetry_space_group_name_H-M     'P b c a'
_symmetry_Int_Tables_number        61
_refine_ls_R_factor_all            .0369
loop_
_symmetry_equiv_pos_site_id
_symmetry_equiv_pos_as_xyz
  1	'x+.5, y, -z+.5'
  2	'x, -y+.5, z+.5'
  3	'-x+.5, y+.5, z'
  4	'-x, -y, -z'
  5	'-x+.5, -y, z+.5'
  6	'-x, y+.5, -z+.5'
  7	'x+.5, -y+.5, -z'
  8	'x, y, z'
loop_
_atom_type_symbol
_atom_type_oxidation_number
Ag1+	1
I5+	5
O2-	-2
loop_
_atom_site_label
_atom_site_type_symbol
_atom_site_symmetry_multiplicity
_atom_site_Wyckoff_symbol
_atom_site_fract_x
_atom_site_fract_y
_atom_site_fract_z
_atom_site_occupancy
_atom_site_attached_hydrogens
Ag1 Ag1+ 8 c 0.7870(3) 0.5412(1) 0.9828(5) 1. 0 
I1 I5+ 8 c 0.8087(3) 0.6639(1) 0.4862(5) 1. 0 
O1 O2- 8 c 0.903(2) 0.5722(6) 0.366(2) 1. 0 
O2 O2- 8 c 0.653(2) 0.7042(7) 0.248(2) 1. 0 
O3 O2- 8 c 0.610(2) 0.6094(5) 0.648(2) 1. 0 

#End of data_188065-ICSD


