data_60091-ICSD
#?2014 by Fachinformationszentrum Karlsruhe, and the U.S. Secretary of 
#Commerce on behalf of the United States.  All rights reserved.
_database_code_ICSD                60091
_audit_creation_date               1986/04/14
_audit_update_record               1999/11/30
_chemical_name_systematic
;
Pentapotassium Bis(dioxouranate) Nonafluoride
;
_chemical_formula_structural       'K5 (U O2)2 F9'
_chemical_formula_sum              'F9 K5 O4 U2'
_publ_section_title
;
The crystal structure of K5 (U O2)2 F9
;
loop_
_citation_id
_citation_journal_abbrev
_citation_year
_citation_journal_volume
_citation_page_first
_citation_page_last
_citation_journal_id_ASTM
primary 'Zhurnal Strukturnoi Khimii (Issue-No. from 1981)'
 1972 13 741 741 ZSTKAI
_publ_author_name
;
Mikhailov, Yu.N.;Udovenko, A.A.;Kuznetsov, V.G.;Davidovich, R.L.
;
_cell_length_a                     19.7510(40)
_cell_length_b                     11.584(3)
_cell_length_c                     6.096(2)
_cell_angle_alpha                  90.
_cell_angle_beta                   90.
_cell_angle_gamma                  101.32(5)
_cell_volume                       1367.6
_cell_formula_units_Z              4
_symmetry_space_group_name_H-M     'B 1 1 2/b'
_symmetry_Int_Tables_number        15
loop_
_symmetry_equiv_pos_site_id
_symmetry_equiv_pos_as_xyz
  1	'x, y+.5, -z'
  2	'-x, -y, -z'
  3	'-x, -y+.5, z'
  4	'x, y, z'
  5	'x+.5, y+.5, -z+.5'
  6	'-x+.5, -y, -z+.5'
  7	'-x+.5, -y+.5, z+.5'
  8	'x+.5, y, z+.5'
loop_
_atom_type_symbol
_atom_type_oxidation_number
F1-	-1
K1+	1
O2-	-2
U6+	6
loop_
_atom_site_label
_atom_site_type_symbol
_atom_site_symmetry_multiplicity
_atom_site_Wyckoff_symbol
_atom_site_fract_x
_atom_site_fract_y
_atom_site_fract_z
_atom_site_occupancy
_atom_site_attached_hydrogens
U1 U6+ 8 f 0.112 0.283 0.256 1. 0 
K1 K1+ 4 d 0.25 0 0.25 1. 0 
K2 K1+ 8 f 0.022 0.417 0.745 1. 0 
K3 K1+ 8 f 0.18 0.13 0.751 1. 0 
F1 F1- 4 e 0 0.25 0.436 1. 0 
F2 F1- 8 f 0.071 0.447 0.155 1. 0 
F3 F1- 8 f 0.196 0.42 0.108 1. 0 
F4 F1- 8 f 0.207 0.207 0.198 1. 0 
F5 F1- 8 f 0.093 0.108 0.452 1. 0 
O1 O2- 8 f 0.148 0.353 0.52 1. 0 
O2 O2- 8 f 0.074 0.216 -.012 1. 0 

#End of data_60091-ICSD


