data_157615-ICSD
#?2014 by Fachinformationszentrum Karlsruhe, and the U.S. Secretary of 
#Commerce on behalf of the United States.  All rights reserved.
_database_code_ICSD                157615
_audit_creation_date               2008/02/01
_chemical_name_systematic
;
Trimagnesium Tetraferro(III)hexavanadate(V)
;
_chemical_formula_structural       'Mg3 (Fe4 V6 O24)'
_chemical_formula_sum              'Fe4 Mg3 O24 V6'
_publ_section_title
;
Crystal structure of Mg3 Fe4 V6 O24 studied by neutron diffraction
;
loop_
_citation_id
_citation_journal_abbrev
_citation_year
_citation_journal_volume
_citation_page_first
_citation_page_last
_citation_journal_id_ASTM
primary 'Review of Advanced Materials Science' 2006 12 166 171 RAMSCX
_publ_author_name
;
Beskrovnyi, A.;Guskos, N.;Typek, J.;Ryabova, N.Yu.;Blonska-Tabero, 
A.;Zolnierkiewicz, G.
;
_cell_length_a                     6.685(1)
_cell_length_b                     8.025(1)
_cell_length_c                     9.769(1)
_cell_angle_alpha                  105.14(1)
_cell_angle_beta                   105.07(1)
_cell_angle_gamma                  101.72(1)
_cell_volume                       467.38
_cell_formula_units_Z              1
_symmetry_space_group_name_H-M     'P -1'
_symmetry_Int_Tables_number        2
_refine_ls_R_factor_all            .0222
loop_
_symmetry_equiv_pos_site_id
_symmetry_equiv_pos_as_xyz
  1	'-x, -y, -z'
  2	'x, y, z'
loop_
_atom_type_symbol
_atom_type_oxidation_number
Fe3+	3
Mg2+	2
O2-	-2
V5+	5
loop_
_atom_site_label
_atom_site_type_symbol
_atom_site_symmetry_multiplicity
_atom_site_Wyckoff_symbol
_atom_site_fract_x
_atom_site_fract_y
_atom_site_fract_z
_atom_site_occupancy
_atom_site_attached_hydrogens
Mg1 Mg2+ 1 g 0 0.5 0.5 1. 0 
Mg2 Mg2+ 2 i 0.721(3) 0.718(2) 0.209(1) 1. 0 
Fe1 Fe3+ 2 i 0.382(2) 0.952(2) 0.606(1) 1. 0 
Fe2 Fe3+ 2 i 0.036(2) 0.206(1) 0.009(1) 1. 0 
V1 V5+ 2 i 0.8917 0.8998 0.6644 1. 0 
V2 V5+ 2 i 0.2208 0.6546 0.2699 1. 0 
V3 V5+ 2 i 0.5903 0.2681 0.1236 1. 0 
O1 O2- 2 i 0.096(3) 0.057(2) 0.148(2) 1. 0 
O2 O2- 2 i 0.573(2) 0.129(2) 0.224(2) 1. 0 
O3 O2- 2 i 0.187(3) 0.431(2) 0.191(2) 1. 0 
O4 O2- 2 i 0.997(2) 0.282(2) 0.824(1) 1. 0 
O5 O2- 2 i 0.239(2) 0.794(2) 0.970(2) 1. 0 
O6 O2- 2 i 0.872(3) 0.958(2) 0.349(2) 1. 0 
O7 O2- 2 i 0.526(2) 0.230(2) 0.729(2) 1. 0 
O8 O2- 2 i 0.342(3) 0.246(2) 0.984(2) 1. 0 
O9 O2- 2 i 0.326(2) 0.035(2) 0.423(2) 1. 0 
O10 O2- 2 i 0.218(3) 0.680(2) 0.460(2) 1. 0 
O11 O2- 2 i 0.724(2) 0.501(2) 0.248(1) 1. 0 
O12 O2- 2 i 0.120(2) 0.289(1) 0.409(1) 1. 0 

#End of data_157615-ICSD


