data_15250-ICSD
#?2014 by Fachinformationszentrum Karlsruhe, and the U.S. Secretary of 
#Commerce on behalf of the United States.  All rights reserved.
_database_code_ICSD                15250
_audit_creation_date               1981/12/31
_audit_update_record               2006/04/01
_chemical_name_systematic
;
Tripotassium Hexacyanochromate(III) - Lt
;
_chemical_formula_structural       'K3 (Cr (C N)6)'
_chemical_formula_sum              'C6 Cr1 K3 N6'
_publ_section_title
;
The low-symmetry structure of potassium hexacyanochromate (III) at 
4.2K
;
loop_
_citation_id
_citation_journal_abbrev
_citation_year
_citation_journal_volume
_citation_page_first
_citation_page_last
_citation_journal_id_ASTM
primary 'Acta Crystallographica B (24,1968-38,1982)' 1981 37 504 508 ACBCAR
2 'Phase Transition' 1992 38 127 220 PHTRDP
_publ_author_name
;
Figgis, B.N.;Reynolds, P.A.;Williams, G.A.
;
_cell_length_a                     8.450(5)
_cell_length_b                     10.576(8)
_cell_length_c                     13.557(4)
_cell_angle_alpha                  90.0(1)
_cell_angle_beta                   90.0(1)
_cell_angle_gamma                  90.0(1)
_cell_volume                       1211.55
_cell_formula_units_Z              4
_symmetry_space_group_name_H-M     'P -1'
_symmetry_Int_Tables_number        2
_refine_ls_R_factor_all            .053
loop_
_symmetry_equiv_pos_site_id
_symmetry_equiv_pos_as_xyz
  1	'-x, -y, -z'
  2	'x, y, z'
loop_
_atom_type_symbol
_atom_type_oxidation_number
C2+	2
Cr3+	3
K1+	1
N3-	-3
loop_
_atom_site_label
_atom_site_type_symbol
_atom_site_symmetry_multiplicity
_atom_site_Wyckoff_symbol
_atom_site_fract_x
_atom_site_fract_y
_atom_site_fract_z
_atom_site_occupancy
_atom_site_attached_hydrogens
_atom_site_U_iso_or_equiv
Cr1 Cr3+ 2 i 0.1205(9) 0.0150(7) 0.2424(4) 1. 0 0.0005(7) 
Cr2 Cr3+ 2 i 0.3728(11) 0.4806(7) 0.7440(5) 1. 0 0.0028(8) 
K1 K1+ 2 i 0.6294(9) 0.0188(7) 0.2377(4) 1. 0 0.0042(8) 
K2 K1+ 2 i 0.3769(9) -.7873(6) 0.4980(4) 1. 0 0.0040(9) 
K3 K1+ 2 i 0.8743(8) -.7736(6) 0.4981(4) 1. 0 0.0038(10) 
K4 K1+ 2 i -.1247(10) 0.4805(7) 0.7397(4) 1. 0 0.0035(8) 
K5 K1+ 2 i 0.1244(9) 0.2900(7) 0.9991(4) 1. 0 0.0047(9) 
K6 K1+ 2 i -.3757(8) 0.2687(5) -.0035(4) 1. 0 0.0034(9) 
C1 C2+ 2 i 0.1206(5) -.1613(4) 0.1791(2) 1. 0 0.0045(5) 
C2 C2+ 2 i 0.2979(4) -.0410(4) 0.3412(2) 1. 0 0.0032(5) 
C3 C2+ 2 i -.0490(4) -.0365(4) 0.3448(3) 1. 0 0.0043(5) 
C4 C2+ 2 i 0.1247(5) 0.1928(4) 0.3111(2) 1. 0 0.0066(4) 
C5 C2+ 2 i 0.2955(4) 0.0777(4) 0.1463(2) 1. 0 0.0031(5) 
C6 C2+ 2 i -.0477(4) 0.0793(4) 0.1452(2) 1. 0 0.0030(5) 
C7 C2+ 2 i 0.3784(5) 0.6607(4) 0.6830(2) 1. 0 0.0051(5) 
C8 C2+ 2 i 0.2012(4) 0.5349(5) 0.8413(3) 1. 0 0.0064(5) 
C9 C2+ 2 i 0.5478(4) 0.5330(5) 0.8450(3) 1. 0 0.0060(5) 
C10 C2+ 2 i 0.3727(4) 0.3070(3) 0.8092(2) 1. 0 0.0031(4) 
C11 C2+ 2 i 0.2028(4) 0.4187(5) 0.6466(3) 1. 0 0.0069(5) 
C12 C2+ 2 i 0.5488(4) 0.4215(4) 0.6449(3) 1. 0 0.0067(5) 
N1 N3- 2 i 0.1232(5) -.2622(3) 0.1459(2) 1. 0 0.0066(3) 
N2 N3- 2 i 0.3991(3) -.0686(3) 0.3937(2) 1. 0 0.0068(4) 
N3 N3- 2 i -.1448(3) -.0615(2) 0.4028(2) 1. 0 0.0048(4) 
N4 N3- 2 i 0.1315(3) 0.2864(3) 0.3539(2) 1. 0 0.0068(4) 
N5 N3- 2 i 0.3997(3) 0.1179(4) 0.0953(2) 1. 0 0.0047(4) 
N6 N3- 2 i -.1462(4) 0.1195(4) 0.0952(2) 1. 0 0.0070(4) 
N7 N3- 2 i 0.3801(4) 0.7605(3) 0.6461(2) 1. 0 0.0056(4) 
N8 N3- 2 i 0.1004(3) 0.5643(4) 0.8971(2) 1. 0 0.0048(4) 
N9 N3- 2 i 0.6431(4) 0.5588(4) 0.9042(2) 1. 0 0.0085(4) 
N10 N3- 2 i 0.3754(4) 0.2122(3) 0.8533(2) 1. 0 0.0076(4) 
N11 N3- 2 i 0.1050(4) 0.3769(4) 0.5993(2) 1. 0 0.0078(4) 
N12 N3- 2 i 0.6441(3) 0.3829(3) 0.5908(2) 1. 0 0.0058(4) 

#End of data_15250-ICSD


