data_24300-ICSD
#?2014 by Fachinformationszentrum Karlsruhe, and the U.S. Secretary of 
#Commerce on behalf of the United States.  All rights reserved.
_database_code_ICSD                24300
_audit_creation_date               1980/01/01
_audit_update_record               1988/01/25
_chemical_name_systematic          'Sodium Niobium Oxide (1/13/33)'
_chemical_formula_structural       'Na Nb13 O33'
_chemical_formula_sum              'Na1 Nb13 O33'
_publ_section_title
;
The Crystal Structure of Na Nb13 O33 and the Geometrical Principles 
of the Homologous Series Na M3n+1 O8n+1
;
loop_
_citation_id
_citation_journal_abbrev
_citation_year
_citation_journal_volume
_citation_page_first
_citation_page_last
_citation_journal_id_ASTM
primary 'Acta Chemica Scandinavica (1-27,1973-42,1988)' 1965 19 557 563 ACSAA4
_publ_author_name                  'Andersson, S.'
_cell_length_a                     22.4
_cell_length_b                     3.834
_cell_length_c                     15.37
_cell_angle_alpha                  90.
_cell_angle_beta                   91.47
_cell_angle_gamma                  90.
_cell_volume                       1319.57
_cell_formula_units_Z              2
_symmetry_space_group_name_H-M     'C 1 2/m 1'
_symmetry_Int_Tables_number        12
_refine_ls_R_factor_all            .091
loop_
_symmetry_equiv_pos_site_id
_symmetry_equiv_pos_as_xyz
  1	'-x, y, -z'
  2	'-x, -y, -z'
  3	'x, -y, z'
  4	'x, y, z'
  5	'-x+.5, y+.5, -z'
  6	'-x+.5, -y+.5, -z'
  7	'x+.5, -y+.5, z'
  8	'x+.5, y+.5, z'
loop_
_atom_type_symbol
_atom_type_oxidation_number
Na1+	1
Nb5+	5
O2-	-2
loop_
_atom_site_label
_atom_site_type_symbol
_atom_site_symmetry_multiplicity
_atom_site_Wyckoff_symbol
_atom_site_fract_x
_atom_site_fract_y
_atom_site_fract_z
_atom_site_occupancy
_atom_site_attached_hydrogens
_atom_site_B_iso_or_equiv
Na1 Na1+ 2 d 0 0.5 0.5 1. 0 3.15 
Nb1 Nb5+ 2 a 0 0 0 1. 0 1.66 
Nb2 Nb5+ 4 i 0.0709(2) 0 0.2283(2) 1. 0 1.2 
Nb3 Nb5+ 4 i 0.2255(2) 0 0.1362(2) 1. 0 0.84 
Nb4 Nb5+ 4 i 0.1557(2) 0 0.9022(2) 1. 0 1.02 
Nb5 Nb5+ 4 i 0.1370(2) 0 0.4682(2) 1. 0 0.91 
Nb6 Nb5+ 4 i 0.2936(2) 0 0.3745(2) 1. 0 0.91 
Nb7 Nb5+ 4 i 0.0864(2) 0 0.6739(2) 1. 0 0.83 
O1 O2- 4 i 0.083(1) 0 0.949(2) 1. 0 1.5 
O2 O2- 2 b 0 0.5 0 1. 0 2.1 
O3 O2- 4 i 0.322(1) 0 0.097(2) 1. 0 1. 
O4 O2- 4 i 0.251(1) 0 0.862(2) 1. 0 1.5 
O5 O2- 4 i 0.153(1) 0 0.196(2) 1. 0 2. 
O6 O2- 4 i 0.429(2) 0 0.755(2) 1. 0 2.7 
O7 O2- 4 i 0.194(1) 0 0.030(2) 1. 0 1.1 
O8 O2- 4 i 0.035(2) 0 0.117(2) 1. 0 2.8 
O9 O2- 4 i 0.127(1) 0 0.789(2) 1. 0 1. 
O10 O2- 4 i 0.270(1) 0 0.268(2) 1. 0 1. 
O11 O2- 4 i 0.101(1) 0 0.365(2) 1. 0 1. 
O12 O2- 4 i 0.013(1) 0 0.708(2) 1. 0 0.6 
O13 O2- 4 i 0.391(1) 0 0.339(2) 1. 0 2. 
O14 O2- 4 i 0.181(1) 0 0.612(2) 1. 0 1.4 
O15 O2- 4 i 0.222(1) 0 0.432(2) 1. 0 0.8 
O16 O2- 4 i 0.349(1) 0 0.507(2) 1. 0 1.6 
O17 O2- 4 i 0.072(1) 0 0.545(2) 1. 0 1.6 

#End of data_24300-ICSD


