data_26607-ICSD
#?2014 by Fachinformationszentrum Karlsruhe, and the U.S. Secretary of 
#Commerce on behalf of the United States.  All rights reserved.
_database_code_ICSD                26607
_audit_creation_date               1980/01/01
_audit_update_record               2005/10/01
_chemical_name_systematic
;
Potassium Americium(V) Dioxide Difluoride
;
_chemical_formula_structural       'K Am O2 F2'
_chemical_formula_sum              'Am1 F2 K1 O2'
_publ_section_title
;
Preparation, identification and crystal structure of a pentavalent 
americium compound, K Am O2 F2
;
loop_
_citation_id
_citation_journal_abbrev
_citation_year
_citation_journal_volume
_citation_page_first
_citation_page_last
_citation_journal_id_ASTM
primary 'Journal of the American Chemical Society' 1954 76 5235 5237 JACSAT
_publ_author_name
;
Asprey, L.B.;Ellinger, F.H.;Zachariasen, W.H.
;
_cell_length_a                     6.78(1)
_cell_length_b                     6.78(1)
_cell_length_c                     6.78(1)
_cell_angle_alpha                  36.25(5)
_cell_angle_beta                   36.25(5)
_cell_angle_gamma                  36.25(5)
_cell_volume                       97.51
_cell_formula_units_Z              1
_symmetry_space_group_name_H-M     'R -3 m R'
_symmetry_Int_Tables_number        166
loop_
_symmetry_equiv_pos_site_id
_symmetry_equiv_pos_as_xyz
  1	'-z, -y, -x'
  2	'-z, -x, -y'
  3	'-x, -z, -y'
  4	'-y, -z, -x'
  5	'-y, -x, -z'
  6	'-x, -y, -z'
  7	'z, y, x'
  8	'z, x, y'
  9	'x, z, y'
 10	'y, z, x'
 11	'y, x, z'
 12	'x, y, z'
loop_
_atom_type_symbol
_atom_type_oxidation_number
Am5+	5
F1-	-1
K1+	1
O2-	-2
loop_
_atom_site_label
_atom_site_type_symbol
_atom_site_symmetry_multiplicity
_atom_site_Wyckoff_symbol
_atom_site_fract_x
_atom_site_fract_y
_atom_site_fract_z
_atom_site_occupancy
_atom_site_attached_hydrogens
Am1 Am5+ 1 a 0 0 0 1. 0 
K1 K1+ 1 b 0.5 0.5 0.5 1. 0 
O1 O2- 2 c 0.102 0.102 0.102 1. 0 
F1 F1- 2 c 0.356 0.356 0.356 1. 0 

#End of data_26607-ICSD


