data_418558-ICSD
#?2014 by Fachinformationszentrum Karlsruhe, and the U.S. Secretary of 
#Commerce on behalf of the United States.  All rights reserved.
_database_code_ICSD                418558
_audit_creation_date               2008/08/01
_chemical_name_systematic
;
Trizinc Divanadate(V) Tellurate(IV)
;
_chemical_formula_structural       'Zn3 V2 Te O10'
_chemical_formula_sum              'O10 Te1 V2 Zn3'
_publ_section_title
;
Explorations of new types of second-order nonlinear optical materials 
in Cd(Zn) - V(V) - Te(IV) - O systems
;
loop_
_citation_id
_citation_journal_abbrev
_citation_year
_citation_journal_volume
_citation_journal_issue
_citation_page_first
_citation_page_last
_citation_journal_id_ASTM
primary 'Chemistry - A European Journal' 2008 14 6 1972 1981 CEUJED
_publ_author_name
;
Jiang Hailong;Huang Shu Ping;Fan Yang;Mao Jiang Gao;Cheng Wen Dan
;
_cell_length_a                     5.2629(5)
_cell_length_b                     30.534(3)
_cell_length_c                     5.5054(5)
_cell_angle_alpha                  90.00
_cell_angle_beta                   98.653(5)
_cell_angle_gamma                  90.00
_cell_volume                       874.63
_cell_formula_units_Z              4
_symmetry_space_group_name_H-M     'P 1 21/c 1'
_symmetry_Int_Tables_number        14
_refine_ls_R_factor_all            .0361
loop_
_symmetry_equiv_pos_site_id
_symmetry_equiv_pos_as_xyz
  1	'x, -y+.5, z+.5'
  2	'-x, -y, -z'
  3	'-x, y+.5, -z+.5'
  4	'x, y, z'
loop_
_atom_type_symbol
_atom_type_oxidation_number
O2-	-2
Te4+	4
V5+	5
Zn2+	2
loop_
_atom_site_label
_atom_site_type_symbol
_atom_site_symmetry_multiplicity
_atom_site_Wyckoff_symbol
_atom_site_fract_x
_atom_site_fract_y
_atom_site_fract_z
_atom_site_occupancy
_atom_site_attached_hydrogens
_atom_site_U_iso_or_equiv
Zn1 Zn2+ 4 e 0.78118(14) 0.62954(2) 0.23738(14) 1 0 0.01176(19) 
Zn2 Zn2+ 4 e 0.31422(14) 0.55796(2) 0.15322(14) 1 0 0.01273(19) 
Zn3 Zn2+ 4 e 0.41503(14) 0.72606(2) 0.27874(14) 1 0 0.01401(19) 
V1 V5+ 4 e 0.75479(19) 0.55530(3) 0.78074(19) 1 0 0.0094(2) 
V2 V5+ 4 e -0.07391(18) 0.70564(3) 0.76886(19) 1 0 0.0082(2) 
Te1 Te4+ 4 e 0.32976(7) 0.631347(13) 0.57247(7) 1 0 0.00919(13) 
O1 O2- 4 e 0.6070(8) 0.58551(14) 0.5118(8) 1 0 0.0132(9) 
O2 O2- 4 e 0.1187(7) 0.59948(15) 0.3326(8) 1 0 0.0118(9) 
O3 O2- 4 e 0.4866(8) 0.66450(14) 0.3448(8) 1 0 0.0126(9) 
O4 O2- 4 e 0.0323(8) 0.67574(15) 0.5196(8) 1 0 0.0158(10) 
O5 O2- 4 e 0.6797(10) 0.50246(16) 0.7597(9) 1 0 0.0235(11) 
O6 O2- 4 e 1.0718(9) 0.56380(17) 0.8326(9) 1 0 0.0202(11) 
O7 O2- 4 e 0.6184(8) 0.57932(15) 1.0156(8) 1 0 0.0140(9) 
O8 O2- 4 e -0.1828(9) 0.66879(15) 0.9441(8) 1 0 0.0180(10) 
O9 O2- 4 e -0.3115(8) 0.73958(15) 0.6445(8) 1 0 0.0160(10) 
O10 O2- 4 e 0.1968(8) 0.73025(15) 0.9288(8) 1 0 0.0128(9) 

loop_
_atom_site_aniso_label
_atom_site_aniso_type_symbol
_atom_site_aniso_U_11
_atom_site_aniso_U_22
_atom_site_aniso_U_33
_atom_site_aniso_U_12
_atom_site_aniso_U_13
_atom_site_aniso_U_23
Zn1 Zn2+ 0.0076(4) 0.0148(4) 0.0132(4) 0.0012(3) 0.0028(3) -0.0002(3)
Zn2 Zn2+ 0.0120(4) 0.0119(4) 0.0155(4) 0.0004(3) 0.0061(3) 0.0001(3)
Zn3 Zn2+ 0.0147(4) 0.0126(4) 0.0154(4) 0.0012(3) 0.0047(3) 0.0016(3)
V1 V5+ 0.0084(5) 0.0110(6) 0.0088(5) 0.0013(4) 0.0014(4) 0.0016(4)
V2 V5+ 0.0062(5) 0.0102(5) 0.0086(5) 0.0002(4) 0.0020(4) 0.0001(4)
Te1 Te4+ 0.0076(2) 0.0116(2) 0.0085(2) -0.00005(14) 0.00171(15) 
-0.00030(15)
O1 O2- 0.013(2) 0.012(2) 0.016(2) 0.0048(17) 0.0056(18) 0.0015(18)
O2 O2- 0.006(2) 0.016(2) 0.013(2) -0.0013(16) -0.0003(16) -0.0029(19)
O3 O2- 0.011(2) 0.011(2) 0.018(2) 0.0015(16) 0.0071(18) 0.0048(18)
O4 O2- 0.015(2) 0.016(3) 0.015(2) 0.0059(18) -0.0019(18) -0.0029(19)
O5 O2- 0.036(3) 0.014(3) 0.019(3) 0.002(2) 0.001(2) 0.001(2)
O6 O2- 0.013(2) 0.035(3) 0.013(2) 0.0025(19) 0.0036(19) 0.002(2)
O7 O2- 0.012(2) 0.018(2) 0.012(2) -0.0039(18) 0.0035(18) -0.0012(19)
O8 O2- 0.023(2) 0.016(3) 0.016(2) -0.0059(19) 0.006(2) 0.001(2)
O9 O2- 0.016(2) 0.016(3) 0.015(2) 0.0090(18) 0.0005(19) -0.001(2)
O10 O2- 0.014(2) 0.016(2) 0.009(2) -0.0039(17) 0.0004(17) 0.0035(18)
#End of data_418558-ICSD


