data_51464-ICSD
#?2014 by Fachinformationszentrum Karlsruhe, and the U.S. Secretary of 
#Commerce on behalf of the United States.  All rights reserved.
_database_code_ICSD                51464
_audit_creation_date               2003/04/01
_chemical_name_systematic
;
Dicalcium Manganese(III) Gallium Oxide
;
_chemical_formula_structural       'Ca2 Mn Ga O5'
_chemical_formula_sum              'Ca2 Ga1 Mn1 O5'
_publ_section_title
;
Synthesis and crystal structure of novel layered manganese oxide Ca2 
Mn Ga O(5+delta)
;
loop_
_citation_id
_citation_journal_abbrev
_citation_year
_citation_journal_volume
_citation_page_first
_citation_page_last
_citation_journal_id_ASTM
primary 'Journal of Solid State Chemistry' 2001 158 100 111 JSSCBI
_publ_author_name
;
Abakumov, A.M.;Rozova, M.G.;Pavlyuk, B.P.;Lobanov, M.V.;Antipov, 
E.V.;Lebedev, O.I.;van Tendeloo, G.;Sheptyakov, D.V.;Balagurov, 
A.M.;Bouree, F.
;
_cell_length_a                     5.26769(5)
_cell_length_b                     15.2928(2)
_cell_length_c                     5.46785(6)
_cell_angle_alpha                  90
_cell_angle_beta                   90
_cell_angle_gamma                  90
_cell_volume                       440.48
_cell_formula_units_Z              4
_symmetry_space_group_name_H-M     'P n m a'
_symmetry_Int_Tables_number        62
_refine_ls_R_factor_all            .0226
loop_
_symmetry_equiv_pos_site_id
_symmetry_equiv_pos_as_xyz
  1	'x+.5, y, -z+.5'
  2	'x, -y+.5, z'
  3	'-x+.5, y+.5, z+.5'
  4	'-x, -y, -z'
  5	'-x+.5, -y, z+.5'
  6	'-x, y+.5, -z'
  7	'x+.5, -y+.5, -z+.5'
  8	'x, y, z'
loop_
_atom_type_symbol
_atom_type_oxidation_number
Ca2+	2
Ga3+	3
Mn3+	3
O2-	-2
loop_
_atom_site_label
_atom_site_type_symbol
_atom_site_symmetry_multiplicity
_atom_site_Wyckoff_symbol
_atom_site_fract_x
_atom_site_fract_y
_atom_site_fract_z
_atom_site_occupancy
_atom_site_attached_hydrogens
_atom_site_B_iso_or_equiv
Ca1 Ca2+ 8 d 0.4903(9) 0.1095(1) 0.0236(5) 1. 0 0.88(7) 
Mn1 Mn3+ 4 a 0.0 0.0 0.0 1. 0 0.30(8) 
Ga1 Ga3+ 4 c 0.4724(8) 0.25 0.5652(4) 1. 0 1.41(9) 
O1 O2- 8 d 0.248(7) 0.9886(4) 0.238(2) 1. 0 1.6(1) 
O2 O2- 8 d 0.017(2) 0.1470(4) 0.067(1) 1. 0 1.6(1) 
O3 O2- 4 c 0.602(2) 0.25 0.877(2) 1. 0 1.6(1) 

#End of data_51464-ICSD


