data_1386-ICSD
#?2014 by Fachinformationszentrum Karlsruhe, and the U.S. Secretary of 
#Commerce on behalf of the United States.  All rights reserved.
_database_code_ICSD                1386
_audit_creation_date               1980/01/01
_audit_update_record               2010/02/01
_chemical_name_systematic
;
Sodium Closo-tetrahydroxohexaoxopentaborate
;
_chemical_formula_structural       'Na (B5 O6 (O H)4)'
_chemical_formula_sum              'H4 B5 Na1 O10'
_publ_section_title
;
The crystal structure of  Na B5 O6 (O H)4
;
loop_
_citation_id
_citation_journal_abbrev
_citation_year
_citation_journal_volume
_citation_page_first
_citation_page_last
_citation_journal_id_ASTM
primary 'Acta Crystallographica B (24,1968-38,1982)' 1978 34 45 49 ACBCAR
_publ_author_name                  'Menchetti, S.;Sabelli, C.'
_cell_length_a                     8.701(4)
_cell_length_b                     8.067(4)
_cell_length_c                     12.977(4)
_cell_angle_alpha                  90.
_cell_angle_beta                   106.77(2)
_cell_angle_gamma                  90.
_cell_volume                       872.13
_cell_formula_units_Z              4
_symmetry_space_group_name_H-M     'P 1 21/c 1'
_symmetry_Int_Tables_number        14
_refine_ls_R_factor_all            .051
loop_
_symmetry_equiv_pos_site_id
_symmetry_equiv_pos_as_xyz
  1	'x, -y+.5, z+.5'
  2	'-x, -y, -z'
  3	'-x, y+.5, -z+.5'
  4	'x, y, z'
loop_
_atom_type_symbol
_atom_type_oxidation_number
B3+	3
H1+	1
Na1+	1
O2-	-2
loop_
_atom_site_label
_atom_site_type_symbol
_atom_site_symmetry_multiplicity
_atom_site_Wyckoff_symbol
_atom_site_fract_x
_atom_site_fract_y
_atom_site_fract_z
_atom_site_occupancy
_atom_site_attached_hydrogens
_atom_site_B_iso_or_equiv
Na1 Na1+ 4 e 0.0787(2) 0.7601(2) 0.2362(1) 1. 0 0 
O1 O2- 4 e 0.4200(3) 0.3160(3) 0.3225(2) 1. 0 0 
O2 O2- 4 e 0.3595(3) 0.1603(3) 0.4631(2) 1. 0 0 
O3 O2- 4 e 0.1758(3) 0.3693(3) 0.3660(2) 1. 0 0 
O4 O2- 4 e 0.0981(3) 0.1866(3) 0.4872(2) 1. 0 0 
O5 O2- 4 e 0.3017(3) 0.3982(3) 0.5556(2) 1. 0 0 
O6 O2- 4 e 0.0978(3) 0.3515(3) 0.6411(2) 1. 0 0 
O7 O2- 4 e 0.2789(3) 0.5656(3) 0.7009(2) 1. 0 0 
O8 O2- 4 e -.0816(3) 0.1345(3) 0.5930(2) 1. 0 0 
O9 O2- 4 e 0.2432(4) 0.5328(4) 0.2370(2) 1. 0 0 
O10 O2- 4 e 0.5759(3) 0.0859(3) 0.3947(2) 1. 0 0 
B1 B3+ 4 e 0.2816(5) 0.4061(5) 0.3103(3) 1. 0 0 
B2 B3+ 4 e 0.4524(5) 0.1850(5) 0.3957(3) 1. 0 0 
B3 B3+ 4 e 0.2339(5) 0.2823(5) 0.4689(3) 1. 0 0 
B4 B3+ 4 e 0.2291(5) 0.4383(5) 0.6306(3) 1. 0 0 
B5 B3+ 4 e 0.0383(5) 0.2218(5) 0.5709(3) 1. 0 0 
H1 H1+ 4 e 0.38 0.6 0.705 1. 0 4. 
H2 H1+ 4 e -.1 0.04 0.56 1. 0 4. 
H3 H1+ 4 e 0.31 0.54 0.2 1. 0 4. 
H4 H1+ 4 e 0.595 0 0.445 1. 0 4. 

#End of data_1386-ICSD


