data_171929-ICSD
#?2014 by Fachinformationszentrum Karlsruhe, and the U.S. Secretary of 
#Commerce on behalf of the United States.  All rights reserved.
_database_code_ICSD                171929
_audit_creation_date               2007/04/01
_chemical_name_systematic
;
Trimanganese Zinc Calcium Catena-pentasiliacte
;
_chemical_formula_structural       'Mn3 Zn Ca Si5 O15'
_chemical_formula_sum              'Ca1 Mn3 O15 Si5 Zn1'
_chemical_name_mineral             Fowlerite
_publ_section_title
;
Crystal chemistry of Zn-rich rhodonite ("fowlerite")
;
loop_
_citation_id
_citation_journal_abbrev
_citation_year
_citation_journal_volume
_citation_page_first
_citation_page_last
_citation_journal_id_ASTM
primary 'American Mineralogist' 2005 90 969 983 AMMIAY
_publ_author_name                  'Nelson, W.R.;Griffen, D.T.'
_cell_length_a                     9.8456(2)
_cell_length_b                     10.4992(2)
_cell_length_c                     12.2005(4)
_cell_angle_alpha                  108.726(3)
_cell_angle_beta                   103.724(3)
_cell_angle_gamma                  82.113(2)
_cell_volume                       1157.76
_cell_formula_units_Z              4
_symmetry_space_group_name_H-M     'C -1'
_symmetry_Int_Tables_number        2
_refine_ls_R_factor_all            .043
loop_
_symmetry_equiv_pos_site_id
_symmetry_equiv_pos_as_xyz
  1	'-x, -y, -z'
  2	'x, y, z'
  3	'-x+.5, -y+.5, -z'
  4	'x+.5, y+.5, z'
loop_
_atom_type_symbol
_atom_type_oxidation_number
Ca2+	2
Mn2+	2
O2-	-2
Si4+	4
Zn2+	2
loop_
_atom_site_label
_atom_site_type_symbol
_atom_site_symmetry_multiplicity
_atom_site_Wyckoff_symbol
_atom_site_fract_x
_atom_site_fract_y
_atom_site_fract_z
_atom_site_occupancy
_atom_site_attached_hydrogens
_atom_site_U_iso_or_equiv
Mn1 Mn2+ 4 i -0.00151(4) 0.03115(4) 0.14654(4) 1. 0 0.0074(1) 
Mn2 Mn2+ 4 i 0.00065(4) 0.12635(4) 0.44397(4) 1. 0 0.0077(1) 
Mn3 Mn2+ 4 i 0.01668(4) 0.20343(4) 0.72901(4) 1. 0 0.0075(1) 
Zn1 Zn2+ 4 i 0.06712(4) 0.26312(4) 0.02153(3) 1. 0 0.0111(1) 
Ca1 Ca2+ 4 i 0.99344(7) 0.35605(7) 0.30399(6) 1. 0 0.0127(1) 
Si1 Si4+ 4 i 0.20479(7) 0.44854(7) 0.91124(6) 1. 0 0.0058(1) 
Si2 Si4+ 4 i 0.21323(7) 0.36551(7) 0.65358(6) 1. 0 0.0053(1) 
Si3 Si4+ 4 i 0.21695(7) 0.57884(7) 0.52862(6) 1. 0 0.0058(1) 
Si4 Si4+ 4 i 0.21289(7) 0.50576(7) 0.25926(7) 1. 0 0.0062(1) 
Si5 Si4+ 4 i 0.20225(7) 0.70063(7) 0.12368(6) 1. 0 0.0060(1) 
O1 O2- 4 i 0.1271(2) 0.0731(2) 0.0394(2) 1. 0 0.0081(3) 
O2 O2- 4 i 0.1184(2) 0.1581(2) 0.3219(2) 1. 0 0.0077(3) 
O3 O2- 4 i 0.1138(2) 0.9230(2) 0.4368(2) 1. 0 0.0083(3) 
O4 O2- 4 i 0.1201(2) 0.0134(2) 0.7327(2) 1. 0 0.0081(3) 
O5 O2- 4 i 0.1330(2) 0.7907(2) 0.8537(2) 1. 0 0.0086(3) 
O6 O2- 4 i 0.0956(2) 0.8321(2) 0.1278(2) 1. 0 0.0099(4) 
O7 O2- 4 i 0.1298(2) 0.3183(2) 0.9017(2) 1. 0 0.0101(4) 
O8 O2- 4 i 0.1253(2) 0.2346(2) 0.6102(2) 1. 0 0.0090(3) 
O9 O2- 4 i 0.1302(2) 0.7111(2) 0.5880(2) 1. 0 0.0130(4) 
O10 O2- 4 i 0.1240(2) 0.3799(2) 0.1799(2) 1. 0 0.0111(4) 
O11 O2- 4 i 0.1702(2) 0.4679(2) 0.7777(2) 1. 0 0.0076(3) 
O12 O2- 4 i 0.1599(2) 0.4576(2) 0.5632(2) 1. 0 0.0118(4) 
O13 O2- 4 i 0.1649(2) 0.5351(2) 0.3853(2) 1. 0 0.0098(4) 
O14 O2- 4 i 0.1564(2) 0.6431(2) 0.2206(2) 1. 0 0.0085(3) 
O15 O2- 4 i 0.1452(2) 0.5899(2) 0.9951(2) 1. 0 0.0091(4) 

loop_
_atom_site_aniso_label
_atom_site_aniso_type_symbol
_atom_site_aniso_U_11
_atom_site_aniso_U_22
_atom_site_aniso_U_33
_atom_site_aniso_U_12
_atom_site_aniso_U_13
_atom_site_aniso_U_23
Mn1 Mn2+ 0.0061 0.0046 0.0077 0.0008 0.0016 -0.0012
Mn2 Mn2+ 0.0065 0.0063 0.0066 0.0010 0.0010 -0.0016
Mn3 Mn2+ 0.0063 0.0052 0.0066 0.0002 0.0018 -0.0014
Zn1 Zn2+ 0.0158 0.0058 0.0056 0.0005 -0.0020 -0.0041
Ca1 Ca2+ 0.0084 0.0117 0.0173 0.0071 0.0047 -0.0014
Si1 Si4+ 0.0038 0.0044 0.0045 -0.0008 0.0000 -0.0021
Si2 Si4+ 0.0037 0.0033 0.0045 0.0004 0.0004 -0.0021
Si3 Si4+ 0.0040 0.0046 0.0041 0.0000 0.0001 -0.0012
Si4 Si4+ 0.0041 0.0055 0.0051 0.0014 0.0001 -0.0015
Si5 Si4+ 0.0045 0.0038 0.0055 0.0002 0.0008 -0.0009
O1 O2- 0.0040 0.0069 0.0093 0.0020 -0.0004 -0.0019
O2 O2- 0.0030 0.0066 0.0088 0.0016 0.0004 -0.0017
O3 O2- 0.0042 0.0074 0.0087 0.0017 -0.0005 -0.0026
O4 O2- 0.0049 0.0076 0.0108 0.0031 0.0016 -0.0005
O5 O2- 0.0048 0.0072 0.0098 0.0008 0.0010 -0.0023
O6 O2- 0.0076 0.0047 0.0123 0.0023 0.0017 0.0013
O7 O2- 0.0088 0.0076 0.0094 0.0013 0.0007 -0.0053
O8 O2- 0.0093 0.0081 0.0078 0.0011 0.0006 -0.0052
O9 O2- 0.0102 0.0091 0.0119 -0.0024 0.0014 0.0030
O10 O2- 0.0096 0.0086 0.0092 -0.0006 0.0005 -0.0039
O11 O2- 0.0087 0.0068 0.0049 0.0002 0.0017 -0.0003
O12 O2- 0.0073 0.0139 0.0106 0.0079 0.0002 -0.0034
O13 O2- 0.0083 0.0143 0.0044 0.0024 .0000 -0.0031
O14 O2- 0.0080 0.0080 0.0073 0.0041 0.0021 -0.0002
O15 O2- 0.0066 0.0083 0.0076 -0.0018 0.0010 -0.0010
#End of data_171929-ICSD


