data_71091-ICSD
#?2014 by Fachinformationszentrum Karlsruhe, and the U.S. Secretary of 
#Commerce on behalf of the United States.  All rights reserved.
_database_code_ICSD                71091
_audit_creation_date               1993/01/06
_audit_update_record               2008/02/01
_chemical_name_systematic          'Sodium Antimony Sulfide - Alpha'
_chemical_formula_structural       'Na Sb S2'
_chemical_formula_sum              'Na1 S2 Sb1'
_publ_section_title
;
Inorganic structure types with revised space groups.I.
;
loop_
_citation_id
_citation_journal_abbrev
_citation_year
_citation_journal_volume
_citation_page_first
_citation_page_last
_citation_journal_id_ASTM
primary 'Acta Crystallographica, Section B: Structural Science'
 1991 47 433 439 ASBSDK
2 'Zeitschrift fuer Anorganische und Allgemeine Chemie (1950) (DE)'
 1978 446 159 168 ZAACAB
3 'Golden Book of Phase Transitions, Wroclaw' 2002 1 1 123 GBOPT5
_publ_author_name
;
Cenzual, K.;Gelato, L.M.;Penzo, M.;Parthe, E.
;
_cell_length_a                     8.232(3)
_cell_length_b                     8.252(7)
_cell_length_c                     6.836(3)
_cell_angle_alpha                  90.
_cell_angle_beta                   124.28(2)
_cell_angle_gamma                  90.
_cell_volume                       383.71
_cell_formula_units_Z              4
_symmetry_space_group_name_H-M     'C 1 2/c 1'
_symmetry_Int_Tables_number        15
loop_
_symmetry_equiv_pos_site_id
_symmetry_equiv_pos_as_xyz
  1	'x, -y, z+.5'
  2	'-x, -y, -z'
  3	'-x, y, -z+.5'
  4	'x, y, z'
  5	'x+.5, -y+.5, z+.5'
  6	'-x+.5, -y+.5, -z'
  7	'-x+.5, y+.5, -z+.5'
  8	'x+.5, y+.5, z'
loop_
_atom_type_symbol
_atom_type_oxidation_number
Na1+	1
S2-	-2
Sb3+	3
loop_
_atom_site_label
_atom_site_type_symbol
_atom_site_symmetry_multiplicity
_atom_site_Wyckoff_symbol
_atom_site_fract_x
_atom_site_fract_y
_atom_site_fract_z
_atom_site_occupancy
_atom_site_attached_hydrogens
S1 S2- 8 f 0.2203(3) 0.4118(5) 0.2404(2) 1. 0 
Na1 Na1+ 4 e 0 0.1336(9) 0.25 1. 0 
Sb1 Sb3+ 4 e 0 0.6027(1) 0.25 1. 0 

#End of data_71091-ICSD


