data_92704-ICSD
#?2014 by Fachinformationszentrum Karlsruhe, and the U.S. Secretary of 
#Commerce on behalf of the United States.  All rights reserved.
_database_code_ICSD                92704
_audit_creation_date               2003/04/01
_chemical_name_systematic
;
Dipotassium Iron Bis(sulfate(VI)) Tetrahydrate - Lt
;
_chemical_formula_structural       'K2 Fe (S O4)2 (H2 O)4'
_chemical_formula_sum              'H8 Fe1 K2 O12 S2'
_chemical_name_mineral             Mereiterite
_publ_section_title
;
The crystal structures of the low-temperature phases of leonite-type 
compounds, K2 Me (S O4)2 * 4(H2 O) (Me(2+) = Mg, Mn, Fe)
;
loop_
_citation_id
_citation_journal_abbrev
_citation_year
_citation_journal_volume
_citation_page_first
_citation_page_last
_citation_journal_id_ASTM
primary 'American Mineralogist' 2001 86 1282 1292 AMMIAY
_publ_author_name
;
Hertweck, B.;Giester, G.;Libowitzky, E.
;
_cell_length_a                     11.834(2)
_cell_length_b                     9.502(1)
_cell_length_c                     9.913(2)
_cell_angle_alpha                  90
_cell_angle_beta                   94.87(1)
_cell_angle_gamma                  90
_cell_volume                       1110.66
_cell_formula_units_Z              4
_symmetry_space_group_name_H-M     'P 1 21/a 1'
_symmetry_Int_Tables_number        14
_refine_ls_R_factor_all            .022
loop_
_symmetry_equiv_pos_site_id
_symmetry_equiv_pos_as_xyz
  1	'x+.5, -y+.5, z'
  2	'-x, -y, -z'
  3	'-x+.5, y+.5, -z'
  4	'x, y, z'
loop_
_atom_type_symbol
_atom_type_oxidation_number
Fe2+	2
H1+	1
K1+	1
O2-	-2
S6+	6
loop_
_atom_site_label
_atom_site_type_symbol
_atom_site_symmetry_multiplicity
_atom_site_Wyckoff_symbol
_atom_site_fract_x
_atom_site_fract_y
_atom_site_fract_z
_atom_site_occupancy
_atom_site_attached_hydrogens
_atom_site_U_iso_or_equiv
K1 K1+ 4 e 0.16871(2) 0.26936(3) 0.23932(3) 1. 0 0.0146(1) 
K2 K1+ 4 e 0.16905(2) 0.74285(3) 0.25871(3) 1. 0 0.0139(1) 
Fe1 Fe2+ 2 a 0 0 0 1. 0 0.0084(1) 
Fe2 Fe2+ 2 b 0 0.5 0.5 1. 0 0.0078(1) 
S1 S6+ 4 e 0.20725(3) 0.50503(3) -.04538(3) 1. 0 0.0086(1) 
S2 S6+ 4 e 0.21392(3) -.00657(3) 0.51824(3) 1. 0 0.0079(1) 
O1 O2- 4 e 0.8489(1) 0.3725(1) 0.1152(1) 1. 0 0.0158(2) 
O2 O2- 4 e 0.1611(1) 0.3738(1) 0.8907(1) 1. 0 0.0173(2) 
O3 O2- 4 e 0.1499(1) 0.0899(1) 0.6000(1) 1. 0 0.0150(2) 
O4 O2- 4 e 0.1819(1) 0.8471(1) 0.5434(1) 1. 0 0.0168(2) 
O5 O2- 4 e 0.1716(1) 0.0127(1) 0.0671(1) 1. 0 0.0217(2) 
O6 O2- 4 e 0.1885(1) 0.5075(1) 0.0977(1) 1. 0 0.0191(2) 
O7 O2- 4 e 0.1637(1) 0.5111(1) 0.4366(1) 1. 0 0.0126(2) 
O8 O2- 4 e 0.1934(1) 0.0244(1) 0.3737(1) 1. 0 0.0163(2) 
O9 O2- 4 e -0.0350(1) 0.3342(1) 0.3572(1) 1.000 0 0.0130(2) 
O10 O2- 4 e 0.0451(1) 0.3377(1) 0.6448(1) 1.000 0 0.0134(2) 
O11 O2- 4 e -0.0060(1) 0.2203(1) -0.0141(1) 1.000 0 0.0195(2) 
O12 O2- 4 e 0.0139(1) -0.0121(1) 0.7859(1) 1.000 0 0.0191(2) 
H1 H1+ 4 e -0.070(2) 0.278(2) 0.391(2) 1. 0 0.026(5) 
H2 H1+ 4 e -0.073(2) 0.352(2) 0.277(2) 1. 0 0.035(5) 
H3 H1+ 4 e 0.074(2) 0.269(2) 0.617(2) 1. 0 0.021(5) 
H4 H1+ 4 e 0.083(2) 0.356(2) 0.722(2) 1. 0 0.036(5) 
H5 H1+ 4 e -0.047(2) 0.270(2) 0.021(2) 1. 0 0.031(5) 
H6 H1+ 4 e 0.043(2) 0.267(2) -0.039(2) 1. 0 0.034(6) 
H7 H1+ 4 e 0.067(2) 0.007(2) 0.737(2) 1. 0 0.035(6) 
H8 H1+ 4 e -0.040(2) -0.015(2) 0.732(2) 1. 0 0.032(6) 

#End of data_92704-ICSD


