data_83227-ICSD
#?2014 by Fachinformationszentrum Karlsruhe, and the U.S. Secretary of 
#Commerce on behalf of the United States.  All rights reserved.
_database_code_ICSD                83227
_audit_creation_date               1998/06/26
_chemical_name_systematic          'Dipotassium Zinc Silicate'
_chemical_formula_structural       'K2 Zn (Si O4)'
_chemical_formula_sum              'K2 O4 Si1 Zn1'
_publ_section_title
;
X-ray powder diffraction study of K2 M Si O4, M= Mg, Zn, Co, Cd
;
loop_
_citation_id
_citation_journal_abbrev
_citation_year
_citation_journal_volume
_citation_journal_issue
_citation_page_first
_citation_page_last
_citation_journal_id_ASTM
primary 'Powder Diffraction' 1996 11 1 51 55 PODIE2
_publ_author_name                  'Dollase, W.A.'
_cell_length_a                     10.934(2)
_cell_length_b                     5.443(1)
_cell_length_c                     15.583(3)
_cell_angle_alpha                  90.
_cell_angle_beta                   90.
_cell_angle_gamma                  90.
_cell_volume                       927.4
_cell_formula_units_Z              8
_symmetry_space_group_name_H-M     'P c a 21'
_symmetry_Int_Tables_number        29
_refine_ls_R_factor_all            .052
loop_
_symmetry_equiv_pos_site_id
_symmetry_equiv_pos_as_xyz
  1	'x+.5, -y, z'
  2	'-x+.5, y, z+.5'
  3	'-x, -y, z+.5'
  4	'x, y, z'
loop_
_atom_type_symbol
_atom_type_oxidation_number
K1+	1
O2-	-2
Si4+	4
Zn2+	2
loop_
_atom_site_label
_atom_site_type_symbol
_atom_site_symmetry_multiplicity
_atom_site_Wyckoff_symbol
_atom_site_fract_x
_atom_site_fract_y
_atom_site_fract_z
_atom_site_occupancy
_atom_site_attached_hydrogens
_atom_site_B_iso_or_equiv
K1 K1+ 4 a 0.0161(12) 0.4975(26) 0.934(1) 1. 0 0.5(2) 
K2 K1+ 4 a 0.2621(12) 0.5498(26) 0.8153(10) 1. 0 0.5(2) 
K3 K1+ 4 a -.0161(12) 0.0025(26) 0.066(1) 1. 0 0.5(2) 
K4 K1+ 4 a 0.7379(12) -.0498(26) 0.1847(10) 1. 0 0.5(2) 
Zn1 Zn2+ 4 a 0.0088(10) 0.0101(20) 0.8094(8) 1. 0 0.5(1) 
Zn2 Zn2+ 4 a 0.7405(10) 0.4684(20) 0.0597(8) 1. 0 0.5(1) 
Si1 Si4+ 4 a 0.9912(10) 0.4899(20) 0.1906(8) 1. 0 0.5(1) 
Si2 Si4+ 4 a 0.2595(10) 0.0316(20) 0.9403(8) 1. 0 0.5(1) 
O1 O2- 4 a 0.2892(34) 0.3206(70) 0.9830(24) 1. 0 1.3(2) 
O2 O2- 4 a 0.4039(34) 0.9136(70) 0.8958(24) 1. 0 1.3(2) 
O3 O2- 4 a 0.1608(34) 0.0745(70) 0.8514(24) 1. 0 1.3(2) 
O4 O2- 4 a 0.9853(34) 0.6922(70) 0.7832(24) 1. 0 1.3(2) 
O5 O2- 4 a 0.7108(34) 0.1794(70) 0.0170(24) 1. 0 1.3(2) 
O6 O2- 4 a 0.5961(34) 0.5864(70) 0.1042(24) 1. 0 1.3(2) 
O7 O2- 4 a 0.8392(34) 0.4255(70) 0.1486(24) 1. 0 1.3(2) 
O8 O2- 4 a 0.0147(34) 0.8078(70) 0.2168(24) 1. 0 1.3(2) 

#End of data_83227-ICSD


