data_108904-ICSD
#?2014 by Fachinformationszentrum Karlsruhe, and the U.S. Secretary of 
#Commerce on behalf of the United States.  All rights reserved.
_database_code_ICSD                108904
_audit_creation_date               2007/04/01
_chemical_name_systematic
;
Tetrapotassium Mue-oxo-bis(pentachlororhenate(IV))
;
_chemical_formula_structural       'K4 (O (Re Cl5)2)'
_chemical_formula_sum              'Cl10 K4 O1 Re2'
_publ_section_title
;
Crystal structure of potassium-mu-oxodecachlororhenate
;
loop_
_citation_id
_citation_journal_abbrev
_citation_year
_citation_journal_volume
_citation_page_first
_citation_page_last
_citation_journal_id_ASTM
primary
;
Bulletin de l`Academie Polonaise des Sciences, Serie des Sciences 
Chimiques
;
 1975 23 739 743 BAPCAQ
_publ_author_name
;
Lis, T.;Glowiak, T.;Jezowska-Trzebiatowska, B.
;
_cell_length_a                     7.060
_cell_length_b                     7.060
_cell_length_c                     17.702
_cell_angle_alpha                  90.
_cell_angle_beta                   90.
_cell_angle_gamma                  90.
_cell_volume                       882.33
_cell_formula_units_Z              2
_symmetry_space_group_name_H-M     'I 4/m m m'
_symmetry_Int_Tables_number        139
_refine_ls_R_factor_all            .031
loop_
_symmetry_equiv_pos_site_id
_symmetry_equiv_pos_as_xyz
  1	'y, x, -z'
  2	'-y, -x, -z'
  3	'-y, x, -z'
  4	'y, -x, -z'
  5	'-x, y, -z'
  6	'x, -y, -z'
  7	'x, y, -z'
  8	'-x, -y, -z'
  9	'-y, -x, z'
 10	'y, x, z'
 11	'y, -x, z'
 12	'-y, x, z'
 13	'x, -y, z'
 14	'-x, y, z'
 15	'-x, -y, z'
 16	'x, y, z'
 17	'y+.5, x+.5, -z+.5'
 18	'-y+.5, -x+.5, -z+.5'
 19	'-y+.5, x+.5, -z+.5'
 20	'y+.5, -x+.5, -z+.5'
 21	'-x+.5, y+.5, -z+.5'
 22	'x+.5, -y+.5, -z+.5'
 23	'x+.5, y+.5, -z+.5'
 24	'-x+.5, -y+.5, -z+.5'
 25	'-y+.5, -x+.5, z+.5'
 26	'y+.5, x+.5, z+.5'
 27	'y+.5, -x+.5, z+.5'
 28	'-y+.5, x+.5, z+.5'
 29	'x+.5, -y+.5, z+.5'
 30	'-x+.5, y+.5, z+.5'
 31	'-x+.5, -y+.5, z+.5'
 32	'x+.5, y+.5, z+.5'
loop_
_atom_type_symbol
_atom_type_oxidation_number
Cl1-	-1
K1+	1
O2-	-2
Re4+	4
loop_
_atom_site_label
_atom_site_type_symbol
_atom_site_symmetry_multiplicity
_atom_site_Wyckoff_symbol
_atom_site_fract_x
_atom_site_fract_y
_atom_site_fract_z
_atom_site_occupancy
_atom_site_attached_hydrogens
Re1 Re4+ 4 e 0 0 .10534 1. 0 
K1 K1+ 4 d 0 0.5 0.25 1. 0 
K2 K1+ 4 c 0 0.5 0 1. 0 
Cl1 Cl1- 4 e 0 0 .2408 1. 0 
Cl2 Cl1- 16 m 0.2386 0.2386 0.1115 1. 0 
O1 O2- 2 a 0 0 0 1. 0 

#End of data_108904-ICSD


