data_150292-ICSD
#?2014 by Fachinformationszentrum Karlsruhe, and the U.S. Secretary of 
#Commerce on behalf of the United States.  All rights reserved.
_database_code_ICSD                150292
_audit_creation_date               2006/04/01
_chemical_name_systematic          'Dipotassium Copper(I) Chloride'
_chemical_formula_structural       'K2 Cu Cl3'
_chemical_formula_sum              'Cl3 Cu1 K2'
_publ_section_title
;
Crystal structures and ionic conductivities of ternary derivatives of 
the silver and copper monohalides - II: ordered phases within the (Ag 
X)x - (MX)1-x and (CuX)x - (MX)1-x (M = K, Rb and Cs; X = Cl, Br and 
I) systems
;
loop_
_citation_id
_citation_journal_abbrev
_citation_year
_citation_journal_volume
_citation_page_first
_citation_page_last
_citation_journal_id_ASTM
primary 'Journal of Solid State Chemistry' 2004 177 3156 3173 JSSCBI
_publ_author_name                  'Hull, S.;Berastegui, P.'
_cell_length_a                     12.0302(6)
_cell_length_b                     4.1483(2)
_cell_length_c                     12.5869(7)
_cell_angle_alpha                  90.
_cell_angle_beta                   90.
_cell_angle_gamma                  90.
_cell_volume                       628.15
_cell_formula_units_Z              4
_symmetry_space_group_name_H-M     'P n m a'
_symmetry_Int_Tables_number        62
_refine_ls_R_factor_all            .0212
loop_
_symmetry_equiv_pos_site_id
_symmetry_equiv_pos_as_xyz
  1	'x+.5, y, -z+.5'
  2	'x, -y+.5, z'
  3	'-x+.5, y+.5, z+.5'
  4	'-x, -y, -z'
  5	'-x+.5, -y, z+.5'
  6	'-x, y+.5, -z'
  7	'x+.5, -y+.5, -z+.5'
  8	'x, y, z'
loop_
_atom_type_symbol
_atom_type_oxidation_number
Cl1-	-1
Cu1+	1
K1+	1
loop_
_atom_site_label
_atom_site_type_symbol
_atom_site_symmetry_multiplicity
_atom_site_Wyckoff_symbol
_atom_site_fract_x
_atom_site_fract_y
_atom_site_fract_z
_atom_site_occupancy
_atom_site_attached_hydrogens
_atom_site_B_iso_or_equiv
K1 K1+ 4 c 0.1721(6) 0.250 0.4814(6) 1. 0 2.0(2) 
K2 K1+ 4 c 0.5114(6) 0.250 0.6767(7) 1. 0 2.0(2) 
Cu1 Cu1+ 4 c 0.2543(5) 0.250 0.1971(4) 1. 0 4.1(2) 
Cl1 Cl1- 4 c 0.1386(8) 0.250 0.0516(7) 1. 0 2.6(3) 
Cl2 Cl1- 4 c 0.4446(8) 0.250 0.1407(7) 1. 0 3.2(3) 
Cl3 Cl1- 4 c 0.2735(7) 0.250 0.7911(6) 1. 0 2.2(3) 

#End of data_150292-ICSD


