data_280284-ICSD
#?2014 by Fachinformationszentrum Karlsruhe, and the U.S. Secretary of 
#Commerce on behalf of the United States.  All rights reserved.
_database_code_ICSD                280284
_audit_creation_date               2002/04/01
_chemical_name_systematic          'Trisodium Dicalcium Tantalum Oxide'
_chemical_formula_structural       'Na3 Ca2 Ta O6'
_chemical_formula_sum              'Ca2 Na3 O6 Ta1'
_publ_section_title
;
Na3 Ca2 Ta O6, a rock-salt superstructure phase with a fully ordered 
cation arrangement
;
loop_
_citation_id
_citation_journal_abbrev
_citation_year
_citation_journal_volume
_citation_page_first
_citation_page_last
_citation_journal_id_ASTM
primary 'Acta Crystallographica, Section C: Crystal Structure Communications'
 2000 56 1177 1178 ACSCEE
_publ_author_name
;
Yamane, H.;Takahashi, H.;Kajiwara, T.;Shimada, M.
;
_cell_length_a                     6.5948(17)
_cell_length_b                     9.493(3)
_cell_length_c                     19.640(5)
_cell_angle_alpha                  90.
_cell_angle_beta                   90.
_cell_angle_gamma                  90.
_cell_volume                       1229.55
_cell_formula_units_Z              8
_symmetry_space_group_name_H-M     'F d d d Z'
_symmetry_Int_Tables_number        70
_refine_ls_R_factor_all            .024
loop_
_symmetry_equiv_pos_site_id
_symmetry_equiv_pos_as_xyz
  1	'x+.75, y+.75, -z'
  2	'x+.75, -y, z+.75'
  3	'-x, y+.75, z+.75'
  4	'-x, -y, -z'
  5	'-x+.25, -y+.25, z'
  6	'-x+.25, y, -z+.25'
  7	'x, -y+.25, -z+.25'
  8	'x, y, z'
  9	'x+.75, y+.25, -z+.5'
 10	'x+.25, y+.75, -z+.5'
 11	'x+.25, y+.25, -z'
 12	'x+.75, -y+.5, z+.25'
 13	'x+.25, -y, z+.25'
 14	'x+.25, -y+.5, z+.75'
 15	'-x, y+.25, z+.25'
 16	'-x+.5, y+.75, z+.25'
 17	'-x+.5, y+.25, z+.75'
 18	'-x, -y+.5, -z+.5'
 19	'-x+.5, -y, -z+.5'
 20	'-x+.5, -y+.5, -z'
 21	'-x+.25, -y+.75, z+.5'
 22	'-x+.75, -y+.25, z+.5'
 23	'-x+.75, -y+.75, z'
 24	'-x+.25, y+.5, -z+.75'
 25	'-x+.75, y, -z+.75'
 26	'-x+.75, y+.5, -z+.25'
 27	'x, -y+.75, -z+.75'
 28	'x+.5, -y+.25, -z+.75'
 29	'x+.5, -y+.75, -z+.25'
 30	'x, y+.5, z+.5'
 31	'x+.5, y, z+.5'
 32	'x+.5, y+.5, z'
loop_
_atom_type_symbol
_atom_type_oxidation_number
Ca2+	2
Na1+	1
O2-	-2
Ta5+	5
loop_
_atom_site_label
_atom_site_type_symbol
_atom_site_symmetry_multiplicity
_atom_site_Wyckoff_symbol
_atom_site_fract_x
_atom_site_fract_y
_atom_site_fract_z
_atom_site_occupancy
_atom_site_attached_hydrogens
Na1 Na1+ 16 g 0.125 0.125 0.46177(10) 1. 0 
Na2 Na1+ 8 b 0.125 0.125 0.625 1. 0 
Ca1 Ca2+ 16 g 0.125 0.125 0.29439(5) 1. 0 
Ta1 Ta5+ 8 a 0.125 0.125 0.125 1. 0 
O1 O2- 32 h 0.3407(4) 0.1287(3) 0.05153(14) 1. 0 
O2 O2- 16 f 0.125 0.3369(4) 0.125 1. 0 

loop_
_atom_site_aniso_label
_atom_site_aniso_type_symbol
_atom_site_aniso_U_11
_atom_site_aniso_U_22
_atom_site_aniso_U_33
_atom_site_aniso_U_12
_atom_site_aniso_U_13
_atom_site_aniso_U_23
Na1 Na1+ 0.0123(11) 0.0091(10) 0.0117(10) -.003(3) 0 0
Na2 Na1+ 0.0108(14) 0.0202(17) 0.0106(14) 0 0 0
Ca1 Ca2+ 0.0105(5) 0.0070(5) 0.0088(5) 0.0028(13) 0 0
Ta1 Ta5+ 0.00736(17) 0.00529(17) 0.00683(17) 0 0 0
O1 O2- 0.0100(12) 0.0079(14) 0.0105(12) 0.0007(13) 0.0005(10) -.0009(11)
O2 O2- 0.0112(17) 0.0086(17) 0.0108(17) 0 0.0003(16) 0
#End of data_280284-ICSD


