data_62657-ICSD
#?2014 by Fachinformationszentrum Karlsruhe, and the U.S. Secretary of 
#Commerce on behalf of the United States.  All rights reserved.
_database_code_ICSD                62657
_audit_creation_date               1988/02/22
_audit_update_record               2012/08/01
_chemical_name_systematic          'Heptarubidium Sodium Dioxozincate'
_chemical_formula_structural       'Rb7 Na (Zn O3)2'
_chemical_formula_sum              'Na1 O6 Rb7 Zn2'
_publ_section_title
;
Neue Oxozincate mit Inselstruktur: K4 (Zn O3). Mit einem Anhang ueber 
Rb7 Na (Zn O3)2.
;
loop_
_citation_id
_citation_journal_abbrev
_citation_year
_citation_journal_volume
_citation_page_first
_citation_page_last
_citation_journal_id_ASTM
primary 'Zeitschrift fuer Anorganische und Allgemeine Chemie (1950) (DE)'
 1987 546 122 136 ZAACAB
_publ_author_name                  'Baier, R.;Hoppe, R.'
_cell_length_a                     11.283(3)
_cell_length_b                     9.745(3)
_cell_length_c                     7.118(2)
_cell_angle_alpha                  114.12(2)
_cell_angle_beta                   88.46(3)
_cell_angle_gamma                  106.48(2)
_cell_volume                       681.41
_cell_formula_units_Z              2
_symmetry_space_group_name_H-M     'P -1'
_symmetry_Int_Tables_number        2
_refine_ls_R_factor_all            .1949
loop_
_symmetry_equiv_pos_site_id
_symmetry_equiv_pos_as_xyz
  1	'-x, -y, -z'
  2	'x, y, z'
loop_
_atom_type_symbol
_atom_type_oxidation_number
Na1+	1
O2-	-2
Rb1+	1
Zn2+	2
loop_
_atom_site_label
_atom_site_type_symbol
_atom_site_symmetry_multiplicity
_atom_site_Wyckoff_symbol
_atom_site_fract_x
_atom_site_fract_y
_atom_site_fract_z
_atom_site_occupancy
_atom_site_attached_hydrogens
_atom_site_U_iso_or_equiv
Rb1 Rb1+ 2 i 0.4045(5) 0.3353(6) 0.2853(6) 1. 0 0 
Rb2 Rb1+ 2 i 0.1893(4) 0.5119(6) 0.4856(8) 1. 0 0 
Rb3 Rb1+ 2 i 0.6875(5) 0.4823(6) 0.0041(8) 1. 0 0 
Rb4 Rb1+ 2 i 0.6844(5) 0.1221(6) 0.6342(7) 1. 0 0 
Rb5 Rb1+ 2 i 0.0932(4) 0.0625(5) 0.2795(7) 1. 0 0 
Rb6 Rb1+ 2 i 0.9806(4) 0.6592(6) 0.2234(7) 1. 0 0 
Rb7 Rb1+ 2 i 0.3691(4) 0.8652(6) 0.8402(7) 1. 0 0 
Na1 Na1+ 2 i 0.2119(14) 0.1102(8) 0.8086(25) 1. 0 0.006(3) 
Zn1 Zn2+ 2 i 0.5618(5) 0.7446(6) 0.3255(8) 1. 0 0 
Zn2 Zn2+ 2 i 0.9430(5) 0.2467(6) 0.1063(8) 1. 0 0 
O1 O2- 2 i 0.1098(28) 0.2554(35) 0.0786(47) 1. 0 0.013(6) 
O2 O2- 2 i 0.4170(38) 0.6653(48) 0.4362(63) 1. 0 0.037(9) 
O3 O2- 2 i 0.5516(29) 0.8210(36) 0.1238(49) 1. 0 0.015(6) 
O4 O2- 2 i 0.1643(33) 0.6838(41) 0.9698(56) 1. 0 0.025(8) 
O5 O2- 2 i 0.1138(29) 0.8209(36) 0.6327(49) 1. 0 0.015(6) 
O6 O2- 2 i 0.7199(26) 0.7462(31) 0.4083(43) 1. 0 0.008(6) 

loop_
_atom_site_aniso_label
_atom_site_aniso_type_symbol
_atom_site_aniso_U_11
_atom_site_aniso_U_22
_atom_site_aniso_U_33
_atom_site_aniso_U_12
_atom_site_aniso_U_13
_atom_site_aniso_U_23
Rb1 Rb1+ 0.030(3) 0.026(2) 0.004(2) 0.014(2) 0.004(2) 0.009(2)
Rb2 Rb1+ 0.017(2) 0.029(3) 0.017(2) 0.003(2) 0.005(2) 0.001(2)
Rb3 Rb1+ 0.034(3) 0.034(3) 0.016(2) 0.022(2) -.004(2) 0.006(2)
Rb4 Rb1+ 0.031(2) 0.021(2) 0.013(2) 0.011(2) -.002(2) 0.005(2)
Rb5 Rb1+ 0.012(2) 0.015(2) 0.017(2) 0.000(2) -.007(2) 0.000(2)
Rb6 Rb1+ 0.022(2) 0.023(2) 0.016(2) -.003(2) -.002(2) 0.010(2)
Rb7 Rb1+ 0.014(2) 0.026(2) 0.016(2) 0.007(2) 0.002(2) 0.008(2)
Zn1 Zn2+ 0.008(2) 0.017(3) 0.008(2) 0.005(2) -.001(2) 0.002(2)
Zn2 Zn2+ 0.009(2) 0.016(3) 0.008(2) 0.005(2) -.006(2) 0.003(2)
#End of data_62657-ICSD


