data_108833-ICSD
#?2014 by Fachinformationszentrum Karlsruhe, and the U.S. Secretary of 
#Commerce on behalf of the United States.  All rights reserved.
_database_code_ICSD                108833
_audit_creation_date               2007/04/01
_chemical_name_systematic
;
Disodium Oxovanadium Bis(sulfate(VI))
;
_chemical_formula_structural       'Na2 (V O) (S O4)2'
_chemical_formula_sum              'Na2 O9 S2 V1'
_publ_section_title
;
Crystal structure and vibrational spectra of Na2 V O (S O4)2
;
loop_
_citation_id
_citation_journal_abbrev
_citation_year
_citation_journal_volume
_citation_page_first
_citation_page_last
_citation_journal_id_ASTM
primary 'Inorganic Chemistry' 1990 29 3294 3298 INOCAJ
_publ_author_name
;
Fehrmann, R.;Boghosian, S.;Papatheodorou, G.N.;Nielsen, K.;Berg, 
R.W.;Bjerrum, N.J.
;
_cell_length_a                     6.303
_cell_length_b                     6.803
_cell_length_c                     16.682
_cell_angle_alpha                  90.
_cell_angle_beta                   90.
_cell_angle_gamma                  90.
_cell_volume                       715.31
_cell_formula_units_Z              4
_symmetry_space_group_name_H-M     'P 21 21 21'
_symmetry_Int_Tables_number        19
_refine_ls_R_factor_all            .026
loop_
_symmetry_equiv_pos_site_id
_symmetry_equiv_pos_as_xyz
  1	'-x, y+.5, -z+.5'
  2	'x+.5, -y+.5, -z'
  3	'-x+.5, -y, z+.5'
  4	'x, y, z'
loop_
_atom_type_symbol
_atom_type_oxidation_number
Na1+	1
O2-	-2
S6+	6
V4+	4
loop_
_atom_site_label
_atom_site_type_symbol
_atom_site_symmetry_multiplicity
_atom_site_Wyckoff_symbol
_atom_site_fract_x
_atom_site_fract_y
_atom_site_fract_z
_atom_site_occupancy
_atom_site_attached_hydrogens
Na1 Na1+ 4 a 0.6756 0.1511 0.5906 1. 0 
Na2 Na1+ 4 a 0.3712 0.1057 0.2388 1. 0 
V1 V4+ 4 a 0.5326 0.1497 0.9107 1. 0 
S1 S6+ 4 a 0.0345 0.0859 0.9321 1. 0 
S2 S6+ 4 a 0.8573 0.1030 0.2497 1. 0 
O1 O2- 4 a 0.2181 0.2014 0.9047 1. 0 
O2 O2- 4 a 0.5227 0.4035 0.9790 1. 0 
O3 O2- 4 a 0.5169 0.3591 0.8144 1. 0 
O4 O2- 4 a 0.8482 0.1880 0.8966 1. 0 
O5 O2- 4 a 0.5125 -.0523 0.8225 1. 0 
O6 O2- 4 a 0.5371 -.0083 0.9813 1. 0 
O7 O2- 4 a 0.0483 -.1164 0.9074 1. 0 
O8 O2- 4 a 0.2735 -.2281 0.2328 1. 0 
O9 O2- 4 a -.2740 -.0631 0.2245 1. 0 

#End of data_108833-ICSD


