data_16175-ICSD
#?2014 by Fachinformationszentrum Karlsruhe, and the U.S. Secretary of 
#Commerce on behalf of the United States.  All rights reserved.
_database_code_ICSD                16175
_audit_creation_date               1980/01/01
_audit_update_record               2010/02/01
_chemical_name_systematic          'Lithium Aluminium Bis(molybdate)'
_chemical_formula_structural       'Li Al (Mo O4)2'
_chemical_formula_sum              'Al1 Li1 Mo2 O8'
_publ_section_title
;
Crystal structure of Li Al (Mo O4)2
;
loop_
_citation_id
_citation_journal_abbrev
_citation_year
_citation_journal_volume
_citation_page_first
_citation_page_last
_citation_journal_id_ASTM
primary Kristallografiya 1970 15 577 580 KRISAJ
2 'Soviet Physics, Crystallography (= Kristallografiya)'
 1970 15 493 495 SPHCA6
_publ_author_name
;
Solov'eva, L.P.;Borisov, S.V.
;
_cell_length_a                     7.10(3)
_cell_length_b                     7.25(5)
_cell_length_c                     6.67(5)
_cell_angle_alpha                  111.0(5)
_cell_angle_beta                   105.0(5)
_cell_angle_gamma                  90.0(5)
_cell_volume                       307.97
_cell_formula_units_Z              2
_symmetry_space_group_name_H-M     'P -1'
_symmetry_Int_Tables_number        2
_refine_ls_R_factor_all            .1
loop_
_symmetry_equiv_pos_site_id
_symmetry_equiv_pos_as_xyz
  1	'-x, -y, -z'
  2	'x, y, z'
loop_
_atom_type_symbol
_atom_type_oxidation_number
Al3+	3
Li1+	1
Mo6+	6
O2-	-2
loop_
_atom_site_label
_atom_site_type_symbol
_atom_site_symmetry_multiplicity
_atom_site_Wyckoff_symbol
_atom_site_fract_x
_atom_site_fract_y
_atom_site_fract_z
_atom_site_occupancy
_atom_site_attached_hydrogens
_atom_site_B_iso_or_equiv
Mo1 Mo6+ 2 i 0.0335(3) 0.2849(3) 0.6776(5) 1. 0 0.67(5) 
Mo2 Mo6+ 2 i 0.4232(3) 0.2070(3) 0.1678(5) 1. 0 0.71(5) 
Al1 Al3+ 2 i 0.1002(13) 0.8258(13) 0.9132(22) 1. 0 0.60(5) 
Li1 Li1+ 2 i 0.556(10) 0.202(11) 0.713(15) 1. 0 2.(5) 
O1 O2- 2 i 0.4237(37) 0.4619(39) 0.2557(56) 1. 0 1.62(5) 
O2 O2- 2 i 0.0422(36) 0.5435(37) 0.7351(56) 1. 0 1.54(5) 
O3 O2- 2 i 0.2742(30) 0.2317(31) 0.7664(48) 1. 0 0.72(5) 
O4 O2- 2 i 0.6234(28) 0.1507(29) 0.0283(45) 1. 0 0.39(5) 
O5 O2- 2 i 0.9441(33) 0.1555(33) 0.3829(51) 1. 0 1.07(5) 
O6 O2- 2 i 0.1544(29) 0.1104(29) 0.0835(46) 1. 0 0.44(5) 
O7 O2- 2 i 0.1314(30) 0.7795(31) 0.1925(47) 1. 0 0.66(5) 
O8 O2- 2 i 0.5161(35) 0.1559(35) 0.4087(52) 1. 0 1.22(5) 

#End of data_16175-ICSD


