data_419545-ICSD
#?2014 by Fachinformationszentrum Karlsruhe, and the U.S. Secretary of 
#Commerce on behalf of the United States.  All rights reserved.
_database_code_ICSD                419545
_audit_creation_date               2009/08/01
_chemical_name_systematic
;
Dibarium Calcium Dichromium Copper Tetradecafluoride
;
_chemical_formula_structural       'Ba2 Ca Cr2 Cu F14'
_chemical_formula_sum              'Ba2 Ca1 Cr2 Cu1 F14'
_chemical_name_mineral             Usovite
_publ_section_title
;
The single crystal structures of the copper usovites Ba2 Ca Cu V2 F14 
and Ba2 Ca Cu Cr2 F14
;
loop_
_citation_id
_citation_journal_abbrev
_citation_year
_citation_journal_volume
_citation_journal_issue
_citation_page_first
_citation_page_last
_citation_journal_id_ASTM
primary 'Zeitschrift fuer Anorganische und Allgemeine Chemie (1950) (DE)'
 2008 634 15 2737 2739 ZAACAB
_publ_author_name
;
le Lirzin, A.;Darriet, J.;Tressaud, A.;Babel, D.
;
_cell_length_a                     13.811(5)
_cell_length_b                     5.3550(10)
_cell_length_c                     14.814(6)
_cell_angle_alpha                  90
_cell_angle_beta                   91.50(4)
_cell_angle_gamma                  90.0000
_cell_volume                       1095.24
_cell_formula_units_Z              4
_symmetry_space_group_name_H-M     'C 1 2/c 1'
_symmetry_Int_Tables_number        15
_refine_ls_R_factor_all            .0252
loop_
_symmetry_equiv_pos_site_id
_symmetry_equiv_pos_as_xyz
  1	'x, -y, z+.5'
  2	'-x, -y, -z'
  3	'-x, y, -z+.5'
  4	'x, y, z'
  5	'x+.5, -y+.5, z+.5'
  6	'-x+.5, -y+.5, -z'
  7	'-x+.5, y+.5, -z+.5'
  8	'x+.5, y+.5, z'
loop_
_atom_type_symbol
_atom_type_oxidation_number
Ba2+	2
Ca2+	2
Cr3+	3
Cu2+	2
F1-	-1
loop_
_atom_site_label
_atom_site_type_symbol
_atom_site_symmetry_multiplicity
_atom_site_Wyckoff_symbol
_atom_site_fract_x
_atom_site_fract_y
_atom_site_fract_z
_atom_site_occupancy
_atom_site_attached_hydrogens
_atom_site_U_iso_or_equiv
Cu1 Cu2+ 4 b 0.00000 0.50000 0.00000 1.000 0 0.0089(1) 
Cr1 Cr3+ 8 f 0.37879(3) 0.48364(7) 0.12399(2) 1.000 0 0.0072(1) 
F1 F1- 8 f 0.16030(12) 0.1969(3) 0.27869(10) 1.000 0 0.0129(4) 
F2 F1- 8 f 0.41514(13) 0.2971(3) 0.01964(11) 1.000 0 0.0155(4) 
F3 F1- 8 f 0.37707(13) 0.2064(3) 0.20464(11) 1.000 0 0.0167(4) 
F4 F1- 8 f 0.36762(13) 0.2288(3) 0.54708(10) 1.000 0 0.0145(4) 
F5 F1- 8 f 0.50799(11) 0.4263(3) 0.65551(11) 1.000 0 0.0137(4) 
F6 F1- 8 f 0.24866(13) 0.4216(3) 0.09182(13) 1.000 0 0.0198(5) 
F7 F1- 8 f 0.44443(12) 0.0627(3) 0.38433(10) 1.000 0 0.0141(4) 
Ba1 Ba2+ 8 f 0.18951(1) -0.05802(3) 0.12028(1) 1.000 0 0.0100(1) 
Ca1 Ca2+ 4 e 0.00000 0.42734(12) 0.25000 1.000 0 0.0099(1) 

loop_
_atom_site_aniso_label
_atom_site_aniso_type_symbol
_atom_site_aniso_U_11
_atom_site_aniso_U_22
_atom_site_aniso_U_33
_atom_site_aniso_U_12
_atom_site_aniso_U_13
_atom_site_aniso_U_23
Cu1 Cu2+ 0.0096(2) 0.0089(2) 0.0081(2) 0.0010(1) -0.0004(1) -0.0019(1)
Cr1 Cr3+ 0.0069(1) 0.0070(1) 0.0078(1) -0.0001(1) -0.0006(1) 0.0004(1)
F1 F1- 0.0144(7) 0.0141(6) 0.0101(6) -0.0031(5) 0.0012(5) 0.0004(5)
F2 F1- 0.0201(8) 0.0142(7) 0.0122(6) 0.0036(6) -0.0022(6) -0.0032(5)
F3 F1- 0.0170(8) 0.0135(7) 0.0197(8) 0.0030(6) 0.0025(6) 0.0070(6)
F4 F1- 0.0181(8) 0.0127(6) 0.0128(6) -0.0012(6) 0.0005(6) -0.0040(5)
F5 F1- 0.0084(6) 0.0162(7) 0.0166(7) 0.0009(5) 0.0001(5) 0.0050(6)
F6 F1- 0.0106(7) 0.0174(8) 0.0312(9) -0.0028(6) -0.0048(6) 0.0003(7)
F7 F1- 0.0154(7) 0.0163(7) 0.0107(6) 0.0018(6) 0.0007(5) -0.0013(5)
Ba1 Ba2+ 0.0084(1) 0.0108(1) 0.0108(1) 0.0011(1) 0.0000(1) -0.0014(1)
Ca1 Ca2+ 0.0108(3) 0.0096(2) 0.0092(2) 0.0000 0.0007(2) 0.0000
#End of data_419545-ICSD


