data_172990-ICSD
#?2014 by Fachinformationszentrum Karlsruhe, and the U.S. Secretary of 
#Commerce on behalf of the United States.  All rights reserved.
_database_code_ICSD                172990
_audit_creation_date               2008/02/01
_chemical_name_systematic          'Silver Dihydrogen Triarsenate(V)'
_chemical_formula_structural       'Ag H2 As3 O9'
_chemical_formula_sum              'H2 Ag1 As3 O9'
_publ_section_title
;
Octahedral As in M(+) arsenates - architecture and seven new members
;
loop_
_citation_id
_citation_journal_abbrev
_citation_year
_citation_journal_volume
_citation_journal_issue
_citation_page_first
_citation_page_last
_citation_journal_id_ASTM
primary 'Acta Crystallographica, Section B: Structural Science'
 2007 63 2 205 215 ASBSDK
_publ_author_name                  'Schwendtner, K.;Kolitsch, U.'
_cell_length_a                     7.1620(10)
_cell_length_b                     7.678(2)
_cell_length_c                     7.880(2)
_cell_angle_alpha                  110.72(3)
_cell_angle_beta                   106.47(3)
_cell_angle_gamma                  105.43(3)
_cell_volume                       354.76
_cell_formula_units_Z              2
_symmetry_space_group_name_H-M     'P -1'
_symmetry_Int_Tables_number        2
_refine_ls_R_factor_all            .0315
loop_
_symmetry_equiv_pos_site_id
_symmetry_equiv_pos_as_xyz
  1	'-x, -y, -z'
  2	'x, y, z'
loop_
_atom_type_symbol
_atom_type_oxidation_number
Ag1+	1
As5+	5
H1+	1
O2-	-2
loop_
_atom_site_label
_atom_site_type_symbol
_atom_site_symmetry_multiplicity
_atom_site_Wyckoff_symbol
_atom_site_fract_x
_atom_site_fract_y
_atom_site_fract_z
_atom_site_occupancy
_atom_site_attached_hydrogens
_atom_site_U_iso_or_equiv
Ag1 Ag1+ 2 i 0.29467(4) 0.83089(4) 0.03990(4) 1 0 0.02037(9) 
As1 As5+ 2 i 0.37356(4) 0.35261(4) 0.16800(4) 1 0 0.00767(9) 
As2 As5+ 2 i 0.15704(4) 0.43698(4) 0.47710(4) 1 0 0.00670(8) 
As3 As5+ 2 i 0.18233(4) 0.83030(4) 0.45233(4) 1 0 0.00769(9) 
O1 O2- 2 i 0.4016(4) 0.1497(3) 0.0425(4) 1 0 0.0170(4) 
O2 O2- 2 i 0.2838(4) 0.4695(4) 0.0365(4) 1 0 0.0168(4) 
O3 O2- 2 i 0.0921(4) 0.7891(4) 0.2202(3) 1 0 0.0150(4) 
O4 O2- 2 i 0.1943(3) 0.2882(3) 0.2650(3) 1 0 0.0114(4) 
O5 O2- 2 i 0.0859(3) 0.5645(3) 0.6783(3) 1 0 0.0091(4) 
O6 O2- 2 i 0.3937(3) 0.4439(3) 0.6456(3) 1 0 0.0104(4) 
O7 O2- 2 i 0.3805(4) 0.0667(3) 0.6158(3) 1 0 0.0140(4) 
O8 O2- 2 i 0.0124(3) 0.1890(3) 0.4597(3) 1 0 0.0107(4) 
O9 O2- 2 i 0.3147(3) 0.6836(3) 0.4989(3) 1 0 0.0100(4) 
H1 H1+ 2 i 0.168(5) 0.366(6) -0.063(6) 1 0 0.044(16) 
H2 H1+ 2 i 0.347(9) 0.164(10) 0.602(10) 1 0 0.050(17) 

loop_
_atom_site_aniso_label
_atom_site_aniso_type_symbol
_atom_site_aniso_U_11
_atom_site_aniso_U_22
_atom_site_aniso_U_33
_atom_site_aniso_U_12
_atom_site_aniso_U_13
_atom_site_aniso_U_23
Ag1 Ag1+ 0.02240(15) 0.01973(14) 0.02115(14) 0.00676(10) 0.01377(11) 
0.00942(10)
As1 As5+ 0.00758(14) 0.00779(14) 0.00823(14) 0.00386(10) 0.00388(11) 
0.00336(10)
As2 As5+ 0.00590(14) 0.00767(14) 0.00857(14) 0.00411(10) 0.00373(11) 
0.00434(10)
As3 As5+ 0.00693(14) 0.00798(14) 0.00944(14) 0.00342(10) 0.00380(10) 
0.00479(10)
O1 O2- 0.0202(11) 0.0107(9) 0.0220(11) 0.0081(8) 0.0145(10) 0.0038(8)
O2 O2- 0.0145(11) 0.0175(11) 0.0157(10) 0.0055(9) 0.0008(9) 0.0100(9)
O3 O2- 0.0141(10) 0.0227(11) 0.0110(9) 0.0076(9) 0.0051(8) 0.0109(8)
O4 O2- 0.0115(9) 0.0103(9) 0.0124(9) 0.0041(7) 0.0086(8) 0.0026(7)
O5 O2- 0.0084(9) 0.0112(9) 0.0089(8) 0.0057(7) 0.0044(7) 0.0041(7)
O6 O2- 0.0059(8) 0.0093(9) 0.0132(9) 0.0034(7) 0.0003(8) 0.0049(7)
O7 O2- 0.0090(9) 0.0073(9) 0.0182(10) 0.0006(7) 0.0012(8) 0.0036(8)
O8 O2- 0.0103(9) 0.0100(9) 0.0174(9) 0.0057(7) 0.0098(8) 0.0079(7)
O9 O2- 0.0083(9) 0.0097(9) 0.0167(9) 0.0059(7) 0.0069(8) 0.0081(7)
#End of data_172990-ICSD


