data_86172-ICSD
#?2014 by Fachinformationszentrum Karlsruhe, and the U.S. Secretary of 
#Commerce on behalf of the United States.  All rights reserved.
_database_code_ICSD                86172
_audit_creation_date               1999/11/30
_chemical_name_systematic
;
Tetracalcium Gadolinium Oxide Tris(borate)
;
_chemical_formula_structural       'Ca4 Gd O (B O3)3'
_chemical_formula_sum              'B3 Ca4 Gd1 O10'
_publ_section_title
;
Structural and thermal stability of Czochralski grown Gd C O B 
oxoborate single crystals
;
loop_
_citation_id
_citation_journal_abbrev
_citation_year
_citation_journal_volume
_citation_journal_issue
_citation_page_first
_citation_page_last
_citation_journal_id_ASTM
primary 'Journal of Materials Chemistry' 1998 8 7 1619 1623 JMACEP
_publ_author_name
;
Mougel, F.;Kahn-Harari, A.;Aka, G.;Pelenc, D.
;
_cell_length_a                     8.078(1)
_cell_length_b                     15.981(2)
_cell_length_c                     3.5519(4)
_cell_angle_alpha                  90.
_cell_angle_beta                   101.26(1)
_cell_angle_gamma                  90.
_cell_volume                       449.7
_cell_formula_units_Z              2
_symmetry_space_group_name_H-M     'C 1 m 1'
_symmetry_Int_Tables_number        8
_refine_ls_R_factor_all            .021
loop_
_symmetry_equiv_pos_site_id
_symmetry_equiv_pos_as_xyz
  1	'x, -y, z'
  2	'x, y, z'
  3	'x+.5, -y+.5, z'
  4	'x+.5, y+.5, z'
loop_
_atom_type_symbol
_atom_type_oxidation_number
B3+	3
Ca2+	2
Gd3+	3
O2-	-2
loop_
_atom_site_label
_atom_site_type_symbol
_atom_site_symmetry_multiplicity
_atom_site_Wyckoff_symbol
_atom_site_fract_x
_atom_site_fract_y
_atom_site_fract_z
_atom_site_occupancy
_atom_site_attached_hydrogens
_atom_site_B_iso_or_equiv
Gd1 Gd3+ 2 a 0 0 0 1. 0 0 
Ca1 Ca2+ 4 b 0.1415(1) 0.3873(1) 0.3263(3) 1. 0 0 
Ca2 Ca2+ 4 b 0.2618(1) 0.1816(1) 0.6521(3) 1. 0 0 
O1 O2- 2 a 0.8259(7) 0 0.4212(17) 1. 0 0.15(6) 
O2 O2- 4 b 0.4611(5) -.0746(3) 0.7490(12) 1. 0 0.39(4) 
O3 O2- 4 b 0.7925(5) 0.1724(3) 0.8854(13) 1. 0 0.53(5) 
O4 O2- 4 b 0.0862(5) 0.1430(3) 0.0781(12) 1. 0 0.37(4) 
O5 O2- 4 b 0.9690(5) 0.2684(3) 0.2773(13) 1. 0 0.58(5) 
O6 O2- 2 a 0.2024(8) 0 0.6087(20) 1. 0 0.48(8) 
B1 B3+ 2 a 0.3762(9) 0 0.7011(21) 1. 0 0.47(8) 
B2 B3+ 4 b 0.9491(6) 0.1944(4) 0.0819(15) 1. 0 0.54(6) 

#End of data_86172-ICSD


