data_8000-ICSD
#?2014 by Fachinformationszentrum Karlsruhe, and the U.S. Secretary of 
#Commerce on behalf of the United States.  All rights reserved.
_database_code_ICSD                8000
_audit_creation_date               1980/01/01
_audit_update_record               1984/10/09
_chemical_name_systematic          'Potassium Copper Fluoride'
_chemical_formula_structural       'K Cu F3'
_chemical_formula_sum              'Cu1 F3 K1'
_publ_section_title
;
Electron-density distribution in crystals of K Cu F3 with Jahn-Teller 
distortion
;
loop_
_citation_id
_citation_journal_abbrev
_citation_year
_citation_journal_volume
_citation_page_first
_citation_page_last
_citation_journal_id_ASTM
primary 'Acta Crystallographica B (24,1968-38,1982)' 1979 35 1303 1308 ACBCAR
2 'Acta Crystallographica B (24,1968-38,1982)' 1980 36 1264 1264 ACBCAR
_publ_author_name                  'Tanaka, K.;Konishi, M.;Marumo, F.'
_cell_length_a                     5.8633(5)
_cell_length_b                     5.8633(5)
_cell_length_c                     7.8470(6)
_cell_angle_alpha                  90.
_cell_angle_beta                   90.
_cell_angle_gamma                  90.
_cell_volume                       269.77
_cell_formula_units_Z              4
_symmetry_space_group_name_H-M     'I 4/m c m'
_symmetry_Int_Tables_number        140
_refine_ls_R_factor_all            .0128
loop_
_symmetry_equiv_pos_site_id
_symmetry_equiv_pos_as_xyz
  1	'y, x, -z+.5'
  2	'-y, -x, -z+.5'
  3	'-y, x, -z'
  4	'y, -x, -z'
  5	'x, -y, -z+.5'
  6	'-x, y, -z+.5'
  7	'x, y, -z'
  8	'-x, -y, -z'
  9	'-y, -x, z+.5'
 10	'y, x, z+.5'
 11	'y, -x, z'
 12	'-y, x, z'
 13	'-x, y, z+.5'
 14	'x, -y, z+.5'
 15	'-x, -y, z'
 16	'x, y, z'
 17	'y+.5, x+.5, -z'
 18	'-y+.5, -x+.5, -z'
 19	'-y+.5, x+.5, -z+.5'
 20	'y+.5, -x+.5, -z+.5'
 21	'x+.5, -y+.5, -z'
 22	'-x+.5, y+.5, -z'
 23	'x+.5, y+.5, -z+.5'
 24	'-x+.5, -y+.5, -z+.5'
 25	'-y+.5, -x+.5, z'
 26	'y+.5, x+.5, z'
 27	'y+.5, -x+.5, z+.5'
 28	'-y+.5, x+.5, z+.5'
 29	'-x+.5, y+.5, z'
 30	'x+.5, -y+.5, z'
 31	'-x+.5, -y+.5, z+.5'
 32	'x+.5, y+.5, z+.5'
loop_
_atom_type_symbol
_atom_type_oxidation_number
Cu2+	2
F1-	-1
K1+	1
loop_
_atom_site_label
_atom_site_type_symbol
_atom_site_symmetry_multiplicity
_atom_site_Wyckoff_symbol
_atom_site_fract_x
_atom_site_fract_y
_atom_site_fract_z
_atom_site_occupancy
_atom_site_attached_hydrogens
Cu1 Cu2+ 4 d 0 0.5 0 1. 0 
K1 K1+ 4 a 0 0 0.25 1. 0 
F1 F1- 4 b 0 0.5 0.25 1. 0 
F2 F1- 8 h 0.22762(7) 0.72762(7) 0 1. 0 

loop_
_atom_site_aniso_label
_atom_site_aniso_type_symbol
_atom_site_aniso_U_11
_atom_site_aniso_U_22
_atom_site_aniso_U_33
_atom_site_aniso_U_12
_atom_site_aniso_U_13
_atom_site_aniso_U_23
Cu1 Cu2+ 0.00753(3) 0.00753(3) 0.00583(4) -.00139(4) 0 0
K1 K1+ 0.011530(6) 0.011530(6) 0.011440(8) 0 0 0
F1 F1- 0.02226(21) 0.02226(21) 0.00716(18) 0 0 0
F2 F1- 0.01357(12) 0.01357(12) -.00635(16) 0 0 0
#End of data_8000-ICSD


