data_171010-ICSD
#?2014 by Fachinformationszentrum Karlsruhe, and the U.S. Secretary of 
#Commerce on behalf of the United States.  All rights reserved.
_database_code_ICSD                171010
_audit_creation_date               2006/04/01
_chemical_name_systematic
;
Hexapotassium Cobalt Pentamolybdate
;
_chemical_formula_structural       'K6 Co Mo5 O19'
_chemical_formula_sum              'Co1 K6 Mo5 O19'
_publ_section_title
;
The K(2n) Co Mo(2+n) O(7+4n) family of structures, with n = 2, 3 or 5
;
loop_
_citation_id
_citation_journal_abbrev
_citation_year
_citation_journal_volume
_citation_page_first
_citation_page_last
_citation_journal_id_ASTM
primary 'Acta Crystallographica, Section C: Crystal Structure Communications'
 2005 61 i111 i112 ACSCEE
_publ_author_name
;
Engel, J.M.;Ehrenberg, H.;Fuess, H.
;
_cell_length_a                     8.0804(6)
_cell_length_b                     10.3856(4)
_cell_length_c                     24.2048(11)
_cell_angle_alpha                  90.00
_cell_angle_beta                   90.728(5)
_cell_angle_gamma                  90.00
_cell_volume                       2031.1
_cell_formula_units_Z              4
_symmetry_space_group_name_H-M     'P 1 21/n 1'
_symmetry_Int_Tables_number        14
_refine_ls_R_factor_all            .0637
loop_
_symmetry_equiv_pos_site_id
_symmetry_equiv_pos_as_xyz
  1	'-x+.5, y+.5, -z+.5'
  2	'-x, -y, -z'
  3	'x+.5, -y+.5, z+.5'
  4	'x, y, z'
loop_
_atom_type_symbol
_atom_type_oxidation_number
Co2+	2
K1+	1
Mo6+	6
O2-	-2
loop_
_atom_site_label
_atom_site_type_symbol
_atom_site_symmetry_multiplicity
_atom_site_Wyckoff_symbol
_atom_site_fract_x
_atom_site_fract_y
_atom_site_fract_z
_atom_site_occupancy
_atom_site_attached_hydrogens
_atom_site_U_iso_or_equiv
Mo1 Mo6+ 4 e 0.33560(9) 0.41918(6) 0.17553(3) 1 0 0.01676(16) 
Mo2 Mo6+ 4 e 0.35812(8) 0.40807(6) -0.06042(3) 1 0 0.01195(14) 
Mo3 Mo6+ 4 e 0.70519(9) 0.09636(6) 0.18804(3) 1 0 0.01528(15) 
Mo4 Mo6+ 4 e 0.37039(8) -0.07013(6) 0.06681(3) 1 0 0.01235(14) 
Mo5 Mo6+ 4 e 0.14112(8) 0.25850(6) 0.05900(3) 1 0 0.01339(15) 
Co1 Co2+ 4 e 0.53059(13) 0.25021(9) 0.05966(4) 1 0 0.0121(2) 
K1 K1+ 4 e 0.5151(2) 0.24526(18) 0.30639(8) 1 0 0.0243(4) 
K2 K1+ 4 e 0.1978(3) 0.06480(19) 0.19656(8) 1 0 0.0282(4) 
K3 K1+ 4 e 0.8639(2) -0.00366(18) 0.06670(8) 1 0 0.0225(4) 
K4 K1+ 4 e 0.1413(2) -0.35491(17) 0.04668(9) 1 0 0.0245(4) 
K5 K1+ 4 e 0.4913(3) 0.75918(18) 0.18770(8) 1 0 0.0261(4) 
K6 K1+ 4 e -0.1386(3) 0.40468(19) 0.16073(9) 1 0 0.0306(5) 
O1 O2- 4 e 0.3421(7) 0.3196(5) 0.0041(2) 1 0 0.0160(11) 
O2 O2- 4 e 0.3465(7) -0.1467(5) 0.0016(2) 1 0 0.0168(11) 
O3 O2- 4 e 0.6609(7) 0.1789(5) 0.1247(2) 1 0 0.0181(12) 
O4 O2- 4 e 0.3458(7) 0.3293(5) 0.1109(2) 1 0 0.0159(11) 
O5 O2- 4 e 0.0463(7) 0.1703(6) 0.0057(2) 1 0 0.0210(12) 
O6 O2- 4 e 0.8534(8) -0.0235(5) 0.1772(3) 1 0 0.0234(13) 
O7 O2- 4 e 0.2023(7) 0.3627(5) -0.1070(2) 1 0 0.0215(12) 
O8 O2- 4 e 0.3419(7) 0.5766(5) -0.0501(2) 1 0 0.0195(12) 
O9 O2- 4 e 0.3407(7) 0.1020(5) 0.0617(2) 1 0 0.0181(12) 
O10 O2- 4 e 0.0469(7) 0.4077(5) 0.0533(3) 1 0 0.0230(13) 
O11 O2- 4 e 0.2223(7) -0.1301(5) 0.1130(2) 1 0 0.0210(13) 
O12 O2- 4 e 0.0536(7) 0.1946(6) 0.1186(2) 1 0 0.0226(13) 
O13 O2- 4 e 0.5658(7) -0.1005(6) 0.0942(2) 1 0 0.0214(12) 
O14 O2- 4 e 0.5266(8) 0.0308(6) 0.2173(3) 1 0 0.0309(15) 
O15 O2- 4 e 0.5487(7) 0.3756(6) -0.0888(3) 1 0 0.0232(13) 
O16 O2- 4 e 0.7845(8) 0.2123(6) 0.2346(3) 1 0 0.0277(14) 
O17 O2- 4 e 0.2701(9) 0.3165(6) 0.2292(3) 1 0 0.0303(15) 
O18 O2- 4 e 0.1940(9) 0.5456(6) 0.1716(3) 1 0 0.0346(17) 
O19 O2- 4 e 0.5268(9) 0.4815(7) 0.1948(3) 1 0 0.0374(17) 

loop_
_atom_site_aniso_label
_atom_site_aniso_type_symbol
_atom_site_aniso_U_11
_atom_site_aniso_U_22
_atom_site_aniso_U_33
_atom_site_aniso_U_12
_atom_site_aniso_U_13
_atom_site_aniso_U_23
Mo1 Mo6+ 0.0248(4) 0.0142(3) 0.0112(3) 0.0021(3) -0.0002(3) -0.0024(2)
Mo2 Mo6+ 0.0148(3) 0.0111(3) 0.0099(3) -0.0011(2) -0.0010(2) 0.0010(2)
Mo3 Mo6+ 0.0195(3) 0.0136(3) 0.0127(3) 0.0015(2) 0.0014(3) 0.0010(2)
Mo4 Mo6+ 0.0156(3) 0.0106(3) 0.0108(3) 0.0000(2) 0.0005(2) -0.0003(2)
Mo5 Mo6+ 0.0134(3) 0.0133(3) 0.0134(3) -0.0009(2) -0.0002(2) 0.0006(2)
Co1 Co2+ 0.0153(5) 0.0103(4) 0.0107(5) 0.0007(4) 0.0003(4) 0.0001(4)
K1 K1+ 0.0271(10) 0.0206(8) 0.0253(10) -0.0030(7) -0.0005(8) 0.0010(7)
K2 K1+ 0.0374(11) 0.0238(9) 0.0233(10) 0.0021(8) -0.0026(9) -0.0008(7)
K3 K1+ 0.0248(9) 0.0252(9) 0.0175(9) -0.0018(7) 0.0053(7) -0.0040(7)
K4 K1+ 0.0235(9) 0.0173(8) 0.0324(11) -0.0016(7) -0.0059(8) 0.0015(7)
K5 K1+ 0.0397(12) 0.0207(9) 0.0179(9) 0.0024(8) -0.0049(8) 0.0031(7)
K6 K1+ 0.0318(11) 0.0227(9) 0.0375(12) 0.0026(8) 0.0028(9) 0.0086(8)
O1 O2- 0.015(3) 0.019(3) 0.014(3) -0.004(2) -0.001(2) 0.003(2)
O2 O2- 0.021(3) 0.019(3) 0.011(3) 0.004(2) -0.001(2) -0.004(2)
O3 O2- 0.023(3) 0.017(3) 0.014(3) 0.003(2) -0.006(2) 0.003(2)
O4 O2- 0.018(3) 0.018(3) 0.011(3) 0.001(2) 0.000(2) -0.003(2)
O5 O2- 0.020(3) 0.025(3) 0.018(3) -0.003(2) -0.001(2) -0.003(2)
O6 O2- 0.029(3) 0.019(3) 0.022(3) 0.011(2) -0.003(3) 0.004(2)
O7 O2- 0.025(3) 0.021(3) 0.018(3) -0.003(2) -0.010(2) 0.002(2)
O8 O2- 0.021(3) 0.010(2) 0.028(3) 0.000(2) 0.001(2) -0.002(2)
O9 O2- 0.019(3) 0.011(2) 0.024(3) 0.003(2) 0.003(2) 0.000(2)
O10 O2- 0.024(3) 0.015(3) 0.030(3) 0.002(2) -0.003(3) 0.001(2)
O11 O2- 0.025(3) 0.020(3) 0.018(3) -0.003(2) 0.010(2) 0.000(2)
O12 O2- 0.022(3) 0.026(3) 0.019(3) -0.001(2) 0.005(2) 0.005(2)
O13 O2- 0.022(3) 0.024(3) 0.018(3) -0.005(2) -0.006(2) 0.007(2)
O14 O2- 0.027(3) 0.033(3) 0.033(4) -0.006(3) 0.011(3) -0.001(3)
O15 O2- 0.017(3) 0.028(3) 0.025(3) 0.001(2) 0.007(3) -0.001(3)
O16 O2- 0.040(4) 0.024(3) 0.019(3) -0.001(3) -0.008(3) 0.000(3)
O17 O2- 0.045(4) 0.027(3) 0.019(3) 0.001(3) 0.005(3) 0.004(3)
O18 O2- 0.045(4) 0.028(3) 0.031(4) 0.016(3) 0.015(3) 0.004(3)
O19 O2- 0.042(4) 0.038(4) 0.033(4) -0.010(3) -0.010(3) -0.004(3)
#End of data_171010-ICSD


