data_23975-ICSD
#?2014 by Fachinformationszentrum Karlsruhe, and the U.S. Secretary of 
#Commerce on behalf of the United States.  All rights reserved.
_database_code_ICSD                23975
_audit_creation_date               1980/01/01
_audit_update_record               2010/02/01
_chemical_name_systematic          'Potassium Trivanadate'
_chemical_formula_structural       'K (V3 O8)'
_chemical_formula_sum              'K1 O8 V3'
_publ_section_title
;
The crystal structures of potassium and cesium trivanadates
;
loop_
_citation_id
_citation_journal_abbrev
_citation_year
_citation_journal_volume
_citation_page_first
_citation_page_last
_citation_journal_id_ASTM
primary 'Inorganic Chemistry' 1966 5 1808 1814 INOCAJ
_publ_author_name                  'Evans, H.T.jr.;Block, S.'
_cell_length_a                     7.640(2)
_cell_length_b                     8.380(3)
_cell_length_c                     4.979(2)
_cell_angle_alpha                  90.
_cell_angle_beta                   96.95(3)
_cell_angle_gamma                  90.
_cell_volume                       316.43
_cell_formula_units_Z              2
_symmetry_space_group_name_H-M     'P 1 21/m 1'
_symmetry_Int_Tables_number        11
_refine_ls_R_factor_all            .15
loop_
_symmetry_equiv_pos_site_id
_symmetry_equiv_pos_as_xyz
  1	'x, -y+.5, z'
  2	'-x, -y, -z'
  3	'-x, y+.5, -z'
  4	'x, y, z'
loop_
_atom_type_symbol
_atom_type_oxidation_number
K1+	1
O2-	-2
V5+	5
loop_
_atom_site_label
_atom_site_type_symbol
_atom_site_symmetry_multiplicity
_atom_site_Wyckoff_symbol
_atom_site_fract_x
_atom_site_fract_y
_atom_site_fract_z
_atom_site_occupancy
_atom_site_attached_hydrogens
_atom_site_B_iso_or_equiv
K1 K1+ 2 e 0.061(3) 0.25 0.0951(6) 1. 0 2. 
V1 V5+ 2 e 0.578(2) 0.25 0.918(4) 1. 0 0.7 
V2 V5+ 4 f 0.693(1) 0.055(2) 0.441(2) 1. 0 0.7 
O1 O2- 2 e 0.432(9) 0.25 0.118(15) 1. 0 1. 
O2 O2- 2 e 0.758(8) 0.25 0.609(13) 1. 0 1. 
O3 O2- 4 f 0.514(5) 0.098(7) 0.691(8) 1. 0 1.5 
O4 O2- 4 f 0.156(5) 0.062(8) 0.437(8) 1. 0 1.5 
O5 O2- 4 f 0.744(5) 0.091(7) 0.133(8) 1. 0 1.5 

#End of data_23975-ICSD


