data_21048-ICSD
#?2014 by Fachinformationszentrum Karlsruhe, and the U.S. Secretary of 
#Commerce on behalf of the United States.  All rights reserved.
_database_code_ICSD                21048
_audit_creation_date               1980/01/01
_chemical_name_systematic          'Lithium Ditungstate'
_chemical_formula_structural       'Li2 W2 O7'
_chemical_formula_sum              'Li2 O7 W2'
_publ_section_title
;
Crystal structure of lithium bitungstate Li2 W2 O7
;
loop_
_citation_id
_citation_journal_abbrev
_citation_year
_citation_journal_volume
_citation_page_first
_citation_page_last
_citation_journal_id_ASTM
primary Kristallografiya 1973 18 269 276 KRISAJ
2 'Soviet Physics, Crystallography (= Kristallografiya)'
 1973 18 166 170 SPHCA6
_publ_author_name
;
Magarill, S.A.;Klevtsova, R.F.;Bakakin, V.V.
;
_cell_length_a                     8.26
_cell_length_b                     7.1
_cell_length_c                     5.06
_cell_angle_alpha                  95.
_cell_angle_beta                   78.
_cell_angle_gamma                  110.
_cell_volume                       272.72
_cell_formula_units_Z              2
_symmetry_space_group_name_H-M     'P -1'
_symmetry_Int_Tables_number        2
_refine_ls_R_factor_all            .126
loop_
_symmetry_equiv_pos_site_id
_symmetry_equiv_pos_as_xyz
  1	'-x, -y, -z'
  2	'x, y, z'
loop_
_atom_type_symbol
_atom_type_oxidation_number
Li1+	1
O2-	-2
W6+	6
loop_
_atom_site_label
_atom_site_type_symbol
_atom_site_symmetry_multiplicity
_atom_site_Wyckoff_symbol
_atom_site_fract_x
_atom_site_fract_y
_atom_site_fract_z
_atom_site_occupancy
_atom_site_attached_hydrogens
_atom_site_B_iso_or_equiv
W1 W6+ 2 i 0.1654(3) 0.9512(4) 0.3156(5) 1. 0 0.09 
W2 W6+ 2 i 0.3217(3) 0.2518(4) 0.8030(5) 1. 0 0.1 
O1 O2- 2 i 0.363(9) 0.111(10) 0.457(15) 1. 0 1.7 
O2 O2- 2 i 0.244(9) 0.937(10) 0.973(15) 1. 0 1.8 
O3 O2- 2 i 0.124(8) 0.722(10) 0.429(14) 1. 0 1.6 
O4 O2- 2 i 0.203(5) 0.244(6) 0.150(9) 1. 0 0.1 
O5 O2- 2 i 0.037(7) 0.082(9) 0.686(13) 1. 0 1.1 
O6 O2- 2 i 0.535(8) 0.312(9) 0.862(9) 1. 0 1.3 
O7 O2- 2 i 0.303(12) 0.467(15) 0.721(19) 1. 0 2.2 
Li1 Li1+ 2 i 0.37 0.8 0.55 1. 0 0 
Li2 Li1+ 2 i 0.23 0.58 0.05 1. 0 0 

#End of data_21048-ICSD


