data_236250-ICSD
#?2014 by Fachinformationszentrum Karlsruhe, and the U.S. Secretary of 
#Commerce on behalf of the United States.  All rights reserved.
_database_code_ICSD                236250
_audit_creation_date               2013/08/01
_chemical_name_systematic
;
Potassium Dicopper Antimony Triselenide
;
_chemical_formula_structural       'K Cu2 Sb Se3'
_chemical_formula_sum              'Cu2 K1 Sb1 Se3'
_publ_section_title
;
Layered hybrid selenoantimonates with reduced thermal conductivity
;
loop_
_citation_id
_citation_journal_abbrev
_citation_year
_citation_journal_volume
_citation_journal_issue
_citation_page_first
_citation_page_last
_citation_journal_id_ASTM
primary 'Zeitschrift fuer Anorganische und Allgemeine Chemie (1950) (DE)'
 2012 638 15 2604 2609 ZAACAB
_publ_author_name
;
Chen Yuchu;Yao Hongbin;Thiagarajan Suraj;Wu Min;Emge, Thomas J.;Yang 
Ronggui;Yu Shuhong;Li Jing
;
_cell_length_a                     6.6676(4)
_cell_length_b                     10.8538(7)
_cell_length_c                     18.5770(11)
_cell_angle_alpha                  90
_cell_angle_beta                   91.417(1)
_cell_angle_gamma                  90
_cell_volume                       1343.98
_cell_formula_units_Z              8
_symmetry_space_group_name_H-M     'P 1 21/n 1'
_symmetry_Int_Tables_number        14
_refine_ls_R_factor_all            .0213
loop_
_symmetry_equiv_pos_site_id
_symmetry_equiv_pos_as_xyz
  1	'-x+.5, y+.5, -z+.5'
  2	'-x, -y, -z'
  3	'x+.5, -y+.5, z+.5'
  4	'x, y, z'
loop_
_atom_type_symbol
_atom_type_oxidation_number
Cu1+	1
K1+	1
Sb3+	3
Se2-	-2
loop_
_atom_site_label
_atom_site_type_symbol
_atom_site_symmetry_multiplicity
_atom_site_Wyckoff_symbol
_atom_site_fract_x
_atom_site_fract_y
_atom_site_fract_z
_atom_site_occupancy
_atom_site_attached_hydrogens
_atom_site_U_iso_or_equiv
Sb1 Sb3+ 4 e 0.9691(1) 0.6433(1) 0.0920(1) 1. 0 0.005(1) 
Sb2 Sb3+ 4 e 0.4720(1) 0.8536(1) -0.0197(1) 1. 0 0.005(1) 
Se1 Se2- 4 e 0.8568(1) 0.8673(1) -0.0359(1) 1. 0 0.006(1) 
Se2 Se2- 4 e 0.3474(1) 0.9381(1) -0.1436(1) 1. 0 0.006(1) 
Se3 Se2- 4 e 0.1466(1) 0.4542(1) 0.1516(1) 1. 0 0.006(1) 
Se4 Se2- 4 e 0.11403(1) 0.8247(1) 0.1607(1) 1. 0 0.006(1) 
Se5 Se2- 4 e 0.3540(1) 0.6299(1) -0.0367(1) 1. 0 0.006(1) 
Se6 Se2- 4 e 0.6369(1) 0.6665(1) 0.1595(1) 1. 0 0.006(1) 
Cu1 Cu1+ 4 e 0.4864(1) 0.8639(1) 0.1293(1) 1. 0 0.009(1) 
Cu2 Cu1+ 4 e 0.9966(1) 0.6683(1) -0.0557(1) 1. 0 0.009(1) 
Cu3 Cu1+ 4 e 0.4231(1) 0.5359(1) 0.0827(1) 1. 0 0.009(1) 
Cu4 Cu1+ 4 e 0.9225(1) 0.9507(1) 0.0855(1) 1. 0 0.011(1) 
K1 K1+ 4 e 0.8028(1) 0.8672(1) 0.2856(1) 1. 0 0.010(1) 
K2 K1+ 4 e 0.8018(1) 0.8705(1) -0.2109(1) 1. 0 0.010(1) 

#End of data_236250-ICSD


