data_181005-ICSD
#?2014 by Fachinformationszentrum Karlsruhe, and the U.S. Secretary of 
#Commerce on behalf of the United States.  All rights reserved.
_database_code_ICSD                181005
_audit_creation_date               2012/02/01
_chemical_name_systematic          'Dicalcium Barium Trisilicate'
_chemical_formula_structural       'Ca2 Ba (Si3 O9)'
_chemical_formula_sum              'Ba1 Ca2 O9 Si3'
_chemical_name_mineral             Walstromite
_publ_section_title
;
Structure of walstromite, Ba Ca2 Si3 O9, and its relationship to Ca 
Si O3-walstromite and wollastonite-II
;
loop_
_citation_id
_citation_journal_abbrev
_citation_year
_citation_journal_volume
_citation_journal_issue
_citation_page_first
_citation_page_last
_citation_journal_id_ASTM
primary 'American Mineralogist' 2011 96 5-6 797 801 AMMIAY
_publ_author_name
;
Barkley, M.C.;Downs, R.T.;Yang He Xiong
;
_cell_length_a                     6.7335(2)
_cell_length_b                     9.6142(3)
_cell_length_c                     6.6859(2)
_cell_angle_alpha                  69.638(2)
_cell_angle_beta                   102.281(2)
_cell_angle_gamma                  96.855(2)
_cell_volume                       396.01
_cell_formula_units_Z              2
_symmetry_space_group_name_H-M     'P -1'
_symmetry_Int_Tables_number        2
_refine_ls_R_factor_all            .03
loop_
_symmetry_equiv_pos_site_id
_symmetry_equiv_pos_as_xyz
  1	'-x, -y, -z'
  2	'x, y, z'
loop_
_atom_type_symbol
_atom_type_oxidation_number
Ba2+	2
Ca2+	2
O2-	-2
Si4+	4
loop_
_atom_site_label
_atom_site_type_symbol
_atom_site_symmetry_multiplicity
_atom_site_Wyckoff_symbol
_atom_site_fract_x
_atom_site_fract_y
_atom_site_fract_z
_atom_site_occupancy
_atom_site_attached_hydrogens
_atom_site_U_iso_or_equiv
Ca1 Ca2+ 2 i 0.27564(10) 0.50942(7) 0.76296(10) 1. 0 0.01177(12) 
Ca2 Ca2+ 2 i 0.43704(9) 0.82810(7) 0.94439(10) 1. 0 0.00973(12) 
Ba1 Ba2+ 2 i 0.04730(3) 0.84865(2) 0.32147(3) 1. 0 0.01220(6) 
Si1 Si4+ 2 i 0.09661(13) 0.22212(10) 0.15253(14) 1. 0 0.00860(20) 
Si2 Si4+ 2 i 0.23397(13) 0.48134(10) 0.28615(14) 1. 0 0.00874(20) 
Si3 Si4+ 2 i 0.44128(13) 0.19622(10) 0.51332(14) 1. 0 0.00879(20) 
O1 O2- 2 i 0.23339(30) 0.26112(30) -0.02934(40) 1. 0 0.01177(40) 
O2 O2- 2 i -0.1009(3) 0.12277(30) 0.10406(40) 1. 0 0.01177(40) 
O3 O2- 2 i 0.04567(30) 0.37136(30) 0.20048(40) 1. 0 0.01173(40) 
O4 O2- 2 i 0.37296(30) 0.5563(3) 0.10710(40) 1. 0 0.01154(40) 
O5 O2- 2 i 0.13494(40) 0.58601(30) 0.36970(40) 1. 0 0.01465(40) 
O6 O2- 2 i 0.35978(40) 0.35593(20) 0.50597(40) 1. 0 0.01215(40) 
O7 O2- 2 i 0.61408(30) 0.23412(30) 0.36858(40) 1. 0 0.01143(40) 
O8 O2- 2 i 0.50803(40) 0.09161(30) 0.75696(40) 1. 0 0.01287(40) 
O9 O2- 2 i 0.23046(30) 0.12449(20) 0.39321(40) 1. 0 0.01069(40) 

loop_
_atom_site_aniso_label
_atom_site_aniso_type_symbol
_atom_site_aniso_U_11
_atom_site_aniso_U_22
_atom_site_aniso_U_33
_atom_site_aniso_U_12
_atom_site_aniso_U_13
_atom_site_aniso_U_23
Ca1 Ca2+ 0.01328 0.01067 0.01086 0.00050 0.00405 -0.00192
Ca2 Ca2+ 0.00867 0.01155 0.01055 0.00086 0.00318 -0.00471
Ba1 Ba2+ 0.01371 0.01095 0.01248 0.00202 0.00236 -0.00413
Si1 Si4+ 0.00818 0.00875 0.00930 -0.00041 0.00331 -0.00279
Si2 Si4+ 0.00844 0.00939 0.00968 0.00095 0.00362 -0.00348
Si3 Si4+ 0.00847 0.00997 0.00787 0.00055 0.00220 -0.00244
O1 O2- 0.01090 0.01264 0.01235 0.00008 0.00539 -0.00314
O2 O2- 0.00991 0.01151 0.01378 -0.00041 0.00242 -0.00425
O3 O2- 0.01061 0.01152 0.01307 0.00140 0.00323 -0.00321
O4 O2- 0.01125 0.01280 0.01060 -0.00164 0.00496 -0.00293
O5 O2- 0.01829 0.01186 0.01588 0.00246 0.00637 -0.00473
O6 O2- 0.01505 0.01043 0.01124 0.00130 0.00300 -0.00336
O7 O2- 0.01126 0.01332 0.01122 -0.00103 0.00538 -0.00454
O8 O2- 0.01634 0.01203 0.00967 0.00181 0.00256 -0.00245
O9 O2- 0.01070 0.01011 0.01072 0.00036 0.00238 -0.00258
#End of data_181005-ICSD


