data_62656-ICSD
#?2014 by Fachinformationszentrum Karlsruhe, and the U.S. Secretary of 
#Commerce on behalf of the United States.  All rights reserved.
_database_code_ICSD                62656
_audit_creation_date               1988/02/22
_audit_update_record               2013/08/01
_chemical_name_systematic          'Tetrapotassium Oxozincate'
_chemical_formula_structural       'K4 (Zn O3)'
_chemical_formula_sum              'K4 O3 Zn1'
_publ_section_title
;
Neue Oxozincate mit Inselstruktur: K4 (Zn O3). Mit einem Anhang ueber 
Rb7 Na (Zn O3)2.
;
loop_
_citation_id
_citation_journal_abbrev
_citation_year
_citation_journal_volume
_citation_page_first
_citation_page_last
_citation_journal_id_ASTM
primary 'Zeitschrift fuer Anorganische und Allgemeine Chemie (1950) (DE)'
 1987 546 122 136 ZAACAB
_publ_author_name                  'Baier, R.;Hoppe, R.'
_cell_length_a                     11.033(3)
_cell_length_b                     8.813(3)
_cell_length_c                     6.982(2)
_cell_angle_alpha                  109.65(3)
_cell_angle_beta                   89.56(2)
_cell_angle_gamma                  102.41(3)
_cell_volume                       622.87
_cell_formula_units_Z              4
_symmetry_space_group_name_H-M     'P -1'
_symmetry_Int_Tables_number        2
_refine_ls_R_factor_all            .101
loop_
_symmetry_equiv_pos_site_id
_symmetry_equiv_pos_as_xyz
  1	'-x, -y, -z'
  2	'x, y, z'
loop_
_atom_type_symbol
_atom_type_oxidation_number
K1+	1
O2-	-2
Zn2+	2
loop_
_atom_site_label
_atom_site_type_symbol
_atom_site_symmetry_multiplicity
_atom_site_Wyckoff_symbol
_atom_site_fract_x
_atom_site_fract_y
_atom_site_fract_z
_atom_site_occupancy
_atom_site_attached_hydrogens
K1 K1+ 2 i 0.4163(2) 0.3551(3) 0.3095(4) 1. 0 
K2 K1+ 2 i 0.2000(2) 0.5322(3) 0.5058(4) 1. 0 
K3 K1+ 2 i 0.7046(2) 0.4458(3) 0.9778(4) 1. 0 
K4 K1+ 2 i 0.6686(3) 0.0886(3) 0.6203(4) 1. 0 
K5 K1+ 2 i 0.2054(2) 0.1335(3) 0.8874(4) 1. 0 
K6 K1+ 2 i 0.1173(2) 0.0864(3) 0.3673(4) 1. 0 
K7 K1+ 2 i 0.0130(2) 0.6560(3) 0.2231(4) 1. 0 
K8 K1+ 2 i 0.3784(2) 0.8755(3) 0.8407(4) 1. 0 
Zn1 Zn2+ 2 i 0.5595(1) 0.7205(1) 0.2880(2) 1. 0 
Zn2 Zn2+ 2 i 0.9394(1) 0.2317(1) 0.1633(2) 1. 0 
O1 O2- 2 i 0.0988(6) 0.3588(9) 0.1447(11) 1. 0 
O2 O2- 2 i 0.4193(7) 0.6838(9) 0.4432(11) 1. 0 
O3 O2- 2 i 0.5369(6) 0.7995(8) 0.0729(11) 1. 0 
O4 O2- 2 i 0.1842(7) 0.8305(9) 0.0551(11) 1. 0 
O5 O2- 2 i 0.1061(7) 0.8352(9) 0.6072(10) 1. 0 
O6 O2- 2 i 0.7155(6) 0.6905(9) 0.3615(11) 1. 0 

loop_
_atom_site_aniso_label
_atom_site_aniso_type_symbol
_atom_site_aniso_U_11
_atom_site_aniso_U_22
_atom_site_aniso_U_33
_atom_site_aniso_U_12
_atom_site_aniso_U_13
_atom_site_aniso_U_23
K1 K1+ 0.0403(14) 0.0326(13) 0.0239(12) 0.0144(11) 0.0062(10) 0.0123(10)
K2 K1+ 0.0250(11) 0.0334(12) 0.0246(11) 0.0085(10) 0.0058(9) 0.0133(10)
K3 K1+ 0.0318(13) 0.0278(12) 0.0279(12) 0.0041(10) 0.0002(10) 0.0112(10)
K4 K1+ 0.0542(17) 0.0327(13) 0.0393(15) 0.0176(13) -.0181(13) 0.0071(12)
K5 K1+ 0.0262(12) 0.0278(12) 0.0280(12) 0.0065(10) 0.0063(10) 0.0099(10)
K6 K1+ 0.0266(13) 0.0430(15) 0.0387(15) 0.0127(11) -.0045(11) -.0045(11)
K7 K1+ 0.0345(13) 0.0261(11) 0.0244(12) 0.0032(10) 0.0034(10) 0.0114(10)
K8 K1+ 0.0312(12) 0.0280(12) 0.0276(12) 0.0084(10) 0.0075(10) 0.012(1)
Zn1 Zn2+ 0.0199(6) 0.0205(6) 0.0174(6) 0.0040(5) 0.0031(5) 0.0091(5)
Zn2 Zn2+ 0.0223(6) 0.0198(6) 0.0189(6) 0.0047(5) 0.0030(5) 0.0080(5)
O1 O2- 0.0231(31) 0.0298(32) 0.0262(32) 0.0058(27) 0.0043(27) 0.0012(28)
O2 O2- 0.0298(33) 0.0357(33) 0.0280(32) 0.0127(27) 0.0071(27) 0.0209(28)
O3 O2- 0.0255(32) 0.0308(32) 0.0259(31) 0.0024(27) 0.0034(27) 0.0188(27)
O4 O2- 0.0233(32) 0.0417(35) 0.0226(31) 0.0022(29) -.0018(27) 0.0077(29)
O5 O2- 0.0368(34) 0.0348(33) 0.0166(29) 0.0074(29) 0.0078(28) 0.0097(27)
O6 O2- 0.0223(31) 0.0346(33) 0.0298(33) 0.0017(27) -.0012(28) 0.0168(28)
#End of data_62656-ICSD


