data_75976-ICSD
#?2014 by Fachinformationszentrum Karlsruhe, and the U.S. Secretary of 
#Commerce on behalf of the United States.  All rights reserved.
_database_code_ICSD                75976
_audit_creation_date               1996/04/22
_audit_update_record               2013/02/01
_chemical_name_systematic          'Thallium Trisilver Sulfide'
_chemical_formula_structural       'Tl Ag3 S2'
_chemical_formula_sum              'Ag3 S2 Tl1'
_publ_section_title
;
Synthesis and crystal structure determination of Tl Ag3 S2
;
loop_
_citation_id
_citation_journal_abbrev
_citation_year
_citation_journal_volume
_citation_page_first
_citation_page_last
_citation_journal_id_ASTM
primary 'Materials Science Forum' 1994 166 683 686 MSFOEP
2
;
Comptes Rendus Hebdomadaires des Seances de l`Academie des Sciences, 
Serie C, Sciences Chimiques (1966-)
;
 1971 273 1251 1253 CHDCAQ
_publ_author_name                  'Eriksson, L.;Elfwing, T.'
_cell_length_a                     8.1597(6)
_cell_length_b                     8.7932(5)
_cell_length_c                     7.0278(3)
_cell_angle_alpha                  90.
_cell_angle_beta                   90.
_cell_angle_gamma                  90.
_cell_volume                       504.24
_cell_formula_units_Z              4
_symmetry_space_group_name_H-M     'P b c n'
_symmetry_Int_Tables_number        60
_refine_ls_R_factor_all            .09
loop_
_symmetry_equiv_pos_site_id
_symmetry_equiv_pos_as_xyz
  1	'x, -y, z+.5'
  2	'-x+.5, y+.5, z'
  3	'x+.5, y+.5, -z+.5'
  4	'-x, -y, -z'
  5	'-x, y, -z+.5'
  6	'x+.5, -y+.5, -z'
  7	'-x+.5, -y+.5, z+.5'
  8	'x, y, z'
loop_
_atom_type_symbol
_atom_type_oxidation_number
Ag1+	1
S2-	-2
Tl1+	1
loop_
_atom_site_label
_atom_site_type_symbol
_atom_site_symmetry_multiplicity
_atom_site_Wyckoff_symbol
_atom_site_fract_x
_atom_site_fract_y
_atom_site_fract_z
_atom_site_occupancy
_atom_site_attached_hydrogens
_atom_site_B_iso_or_equiv
Tl1 Tl1+ 4 c 0 0.0768(5) 0.25 1. 0 1.0(2) 
Ag1 Ag1+ 4 c 0 0.6988(7) 0.25 1. 0 2.0(3) 
Ag2 Ag1+ 8 d 0.1583(7) 0.5926(7) 0.8853(7) 1. 0 2.3(3) 
S1 S2- 8 d 0.187(2) 0.328(2) 0.025(2) 1. 0 0.1(4) 

#End of data_75976-ICSD


