data_60895-ICSD
#?2014 by Fachinformationszentrum Karlsruhe, and the U.S. Secretary of 
#Commerce on behalf of the United States.  All rights reserved.
_database_code_ICSD                60895
_audit_creation_date               1988/02/22
_audit_update_record               2012/08/01
_chemical_name_systematic
;
Dicesium Dipotassium Pentaoxocadmate(II)
;
_chemical_formula_structural       'Cs2 K2 Cd3 O5'
_chemical_formula_sum              'Cd3 Cs2 K2 O5'
_publ_section_title
;
Ein neues quaternaeres Oxocadmat:Cs2K2Cd3O5
;
loop_
_citation_id
_citation_journal_abbrev
_citation_year
_citation_journal_volume
_citation_page_first
_citation_page_last
_citation_journal_id_ASTM
primary
;
Zeitschrift fuer Naturforschung, Teil B. Anorganische Chemie, 
Organische Chemie (33,1978-41,1986)
;
 1986 41 1513 1518 ZNBAD2
_publ_author_name                  'Seipp, E.;Hoppe, R.'
_cell_length_a                     9.832(8)
_cell_length_b                     9.180(9)
_cell_length_c                     6.535(8)
_cell_angle_alpha                  108.3(1)
_cell_angle_beta                   113.7(1)
_cell_angle_gamma                  99.9(1)
_cell_volume                       481.68
_cell_formula_units_Z              2
_symmetry_space_group_name_H-M     'P -1'
_symmetry_Int_Tables_number        2
_refine_ls_R_factor_all            .059
loop_
_symmetry_equiv_pos_site_id
_symmetry_equiv_pos_as_xyz
  1	'-x, -y, -z'
  2	'x, y, z'
loop_
_atom_type_symbol
_atom_type_oxidation_number
Cd2+	2
Cs1+	1
K1+	1
O2-	-2
loop_
_atom_site_label
_atom_site_type_symbol
_atom_site_symmetry_multiplicity
_atom_site_Wyckoff_symbol
_atom_site_fract_x
_atom_site_fract_y
_atom_site_fract_z
_atom_site_occupancy
_atom_site_attached_hydrogens
Cs1 Cs1+ 2 i 0.6500(1) 0.4221(1) 0.7114(1) 1. 0 
Cs2 Cs1+ 2 i 0.2521(1) 0.2909(1) 0.6426(2) 1. 0 
K1 K1+ 2 i 0.3050(3) 0.9469(3) 0.2482(4) 1. 0 
K2 K1+ 2 i 0.9807(3) 0.4306(3) 0.2225(4) 1. 0 
Cd1 Cd2+ 2 i 0.0929(1) 0.1410(1) 0.9682(1) 1. 0 
Cd2 Cd2+ 2 i 0.8306(1) 0.1695(1) 0.3960(1) 1. 0 
Cd3 Cd2+ 2 i 0.5032(1) 0.1829(1) 0.1036(1) 1. 0 
O1 O2- 2 i 0.0351(9) 0.8780(9) 0.8022(13) 1. 0 
O2 O2- 2 i 0.0199(10) 0.7170(1) 0.2062(14) 1. 0 
O3 O2- 2 i 0.5976(9) 0.9961(10) 0.2748(14) 1. 0 
O4 O2- 2 i 0.2646(10) 0.6360(11) 0.7060(17) 1. 0 
O5 O2- 2 i 0.3456(9) 0.2547(10) 0.2353(15) 1. 0 

loop_
_atom_site_aniso_label
_atom_site_aniso_type_symbol
_atom_site_aniso_U_11
_atom_site_aniso_U_22
_atom_site_aniso_U_33
_atom_site_aniso_U_12
_atom_site_aniso_U_13
_atom_site_aniso_U_23
Cs1 Cs1+ 0.0253(4) 0.0226(4) 0.0241(4) 0.0080(3) 0.0088(3) 0.0057(3)
Cs2 Cs1+ 0.0280(4) 0.0345(5) 0.0257(4) 0.0148(3) 0.0128(3) 0.0117(3)
K1 K1+ 0.0179(10) 0.0200(11) 0.0172(10) 0.0122(9) 0.0070(9) 0.0054(9)
K2 K1+ 0.0204(11) 0.0137(10) 0.0167(10) 0.0087(8) 0.0097(9) 0.0051(8)
Cd1 Cd2+ 0.0116(3) 0.0102(3) 0.0116(3) 0.0059(3) 0.0051(3) 0.0036(3)
Cd2 Cd2+ 0.0110(3) 0.0114(3) 0.0100(3) 0.0051(3) 0.0048(3) 0.0032(3)
Cd3 Cd2+ 0.0114(3) 0.0129(4) 0.0123(3) 0.0055(3) 0.0046(3) 0.0034(3)
O1 O2- 0.0187(35) 0.0088(30) 0.0132(33) 0.0013(26) 0.0121(29) 0.0025(27)
O2 O2- 0.0292(43) 0.0123(33) 0.0070(31) 0.0058(26) 0.0003(30) 0.0085(31)
O3 O2- 0.0094(32) 0.0202(37) 0.0167(35) 0.0086(30) 0.0051(28) -.0007(28)
O4 O2- 0.0145(35) 0.0200(39) 0.0286(44) 0.0127(34) 0.0083(34) 0.0100(31)
O5 O2- 0.0160(36) 0.0176(37) 0.0168(36) 0.0047(30) 0.0079(31) 0.0077(30)
#End of data_60895-ICSD


