data_424940-ICSD
#?2014 by Fachinformationszentrum Karlsruhe, and the U.S. Secretary of 
#Commerce on behalf of the United States.  All rights reserved.
_database_code_ICSD                424940
_audit_creation_date               2013/08/01
_chemical_name_systematic
;
Potassium Manganese(III) Difluoride Fluorophosphate
;
_chemical_formula_structural       'K Mn F2 (P O3 F)'
_chemical_formula_sum              'F3 K1 Mn1 O3 P1'
_publ_section_title
;
Manganese(III) fluorophosphate frameworks
;
loop_
_citation_id
_citation_journal_abbrev
_citation_year
_citation_journal_volume
_citation_journal_issue
_citation_page_first
_citation_page_last
_citation_journal_id_ASTM
primary 'Dalton Transactions' 2013 42 6 2302 2308 DTARAF
_publ_author_name
;
Armstrong, J.A.;Williams, E.R.;Weller, M.T.
;
_cell_length_a                     5.4027(2)
_cell_length_b                     12.4794(6)
_cell_length_c                     7.3305(3)
_cell_angle_alpha                  90.00
_cell_angle_beta                   107.145(3)
_cell_angle_gamma                  90.00
_cell_volume                       472.28
_cell_formula_units_Z              4
_symmetry_space_group_name_H-M     'P 1 21/n 1'
_symmetry_Int_Tables_number        14
_refine_ls_R_factor_all            .0516
loop_
_symmetry_equiv_pos_site_id
_symmetry_equiv_pos_as_xyz
  1	'-x+.5, y+.5, -z+.5'
  2	'-x, -y, -z'
  3	'x+.5, -y+.5, z+.5'
  4	'x, y, z'
loop_
_atom_type_symbol
_atom_type_oxidation_number
F1-	-1
K1+	1
Mn3+	3
O2-	-2
P5+	5
loop_
_atom_site_label
_atom_site_type_symbol
_atom_site_symmetry_multiplicity
_atom_site_Wyckoff_symbol
_atom_site_fract_x
_atom_site_fract_y
_atom_site_fract_z
_atom_site_occupancy
_atom_site_attached_hydrogens
_atom_site_U_iso_or_equiv
O1 O2- 4 e 0.2244(8) 0.6147(4) 0.0541(6) 1 0 0.0106(9) 
O2 O2- 4 e 0.1472(8) 0.5268(4) 0.3458(6) 1 0 0.0102(9) 
O3 O2- 4 e 0.7706(8) 0.6034(4) 0.0838(6) 1 0 0.0105(9) 
F1 F1- 4 e 0.4218(7) 0.5566(3) -0.2456(5) 1 0 0.0103(8) 
F2 F1- 4 e 0.5944(7) 0.6361(3) -0.5384(5) 1 0 0.0137(8) 
F3 F1- 4 e 0.0829(8) 0.7201(3) 0.2919(6) 1 0 0.0166(9) 
K1 K1+ 4 e 0.0430(3) 0.70063(12) -0.3118(2) 1 0 0.0156(3) 
Mn1 Mn3+ 2 b 0.5000 0.5000 0.0000 1 0 0.0074(3) 
Mn2 Mn3+ 2 a 0.5000 0.5000 -0.5000 1 0 0.0077(3) 
P1 P5+ 4 e 0.0585(3) 0.60840(13) 0.1859(2) 1 0 0.0080(3) 

loop_
_atom_site_aniso_label
_atom_site_aniso_type_symbol
_atom_site_aniso_U_11
_atom_site_aniso_U_22
_atom_site_aniso_U_33
_atom_site_aniso_U_12
_atom_site_aniso_U_13
_atom_site_aniso_U_23
O1 O2- 0.012(2) 0.009(2) 0.012(2) 0.0010(17) 0.0055(17) 0.0000(18)
O2 O2- 0.006(2) 0.013(2) 0.011(2) 0.0000(17) 0.0007(16) 0.0020(17)
O3 O2- 0.007(2) 0.011(2) 0.013(2) -0.0030(17) 0.0017(16) -0.0010(18)
F1 F1- 0.0099(17) 0.0124(19) 0.0094(18) 0.0020(14) 0.0039(14) -0.0019(14)
F2 F1- 0.0110(18) 0.0127(19) 0.015(2) -0.0009(15) -0.0004(14) 0.0023(16)
F3 F1- 0.0160(19) 0.015(2) 0.018(2) -0.0010(16) 0.0028(15) -0.0042(16)
K1 K1+ 0.0152(7) 0.0128(7) 0.0155(7) 0.0020(6) -0.0005(5) 0.0010(6)
Mn1 Mn3+ 0.0050(6) 0.0088(7) 0.0084(6) 0.0010(5) 0.0019(5) 0.0005(5)
Mn2 Mn3+ 0.0057(6) 0.0079(7) 0.0086(6) -0.0016(5) 0.0006(5) 0.0008(5)
P1 P5+ 0.0054(7) 0.0103(8) 0.0086(7) 0.0017(6) 0.0027(6) 0.0009(6)
#End of data_424940-ICSD


