data_31882-ICSD
#?2014 by Fachinformationszentrum Karlsruhe, and the U.S. Secretary of 
#Commerce on behalf of the United States.  All rights reserved.
_database_code_ICSD                31882
_audit_creation_date               1980/01/01
_audit_update_record               2007/08/01
_chemical_name_systematic          'Tripotassium Hexacyanoferrate(III)'
_chemical_formula_structural       'K3 (Fe (C N)6)'
_chemical_formula_sum              'C6 Fe1 K3 N6'
_publ_section_title
;
The crystallography and paramagnetic anisotropy of potassium 
ferricyanide
;
loop_
_citation_id
_citation_journal_abbrev
_citation_year
_citation_journal_volume
_citation_page_first
_citation_page_last
_citation_journal_id_ASTM
primary
;
Proceedings of the Royal Society of London, Series A: Mathematical 
and Physical Sciences (76,1906-)
;
 1969 309 91 118 PRLAAZ
_publ_author_name                  'Figgis, B.N.;Gerloch, M.;Mason, R.'
_cell_length_a                     7.06(3)
_cell_length_b                     10.38(4)
_cell_length_c                     8.40(3)
_cell_angle_alpha                  90.
_cell_angle_beta                   107.0(2)
_cell_angle_gamma                  90.
_cell_volume                       588.68
_cell_formula_units_Z              2
_symmetry_space_group_name_H-M     'P 1 21/c 1'
_symmetry_Int_Tables_number        14
_refine_ls_R_factor_all            .3
loop_
_symmetry_equiv_pos_site_id
_symmetry_equiv_pos_as_xyz
  1	'x, -y+.5, z+.5'
  2	'-x, -y, -z'
  3	'-x, y+.5, -z+.5'
  4	'x, y, z'
loop_
_atom_type_symbol
_atom_type_oxidation_number
C2+	2
Fe3+	3
K1+	1
N3-	-3
loop_
_atom_site_label
_atom_site_type_symbol
_atom_site_symmetry_multiplicity
_atom_site_Wyckoff_symbol
_atom_site_fract_x
_atom_site_fract_y
_atom_site_fract_z
_atom_site_occupancy
_atom_site_attached_hydrogens
Fe1 Fe3+ 2 a 0 0 0 1. 0 
K1 K1+ 4 e 0.4982(2) 0.2271(3) 0.3743(3) 1. 0 
K2 K1+ 2 c 0 0 0.5 1. 0 
C1 C2+ 4 e 0.1185(23) 0.1677(26) 0.0309(20) 1. 0 
C2 C2+ 4 e 0.1830(21) -.0503(24) 0.2055(19) 1. 0 
C3 C2+ 4 e 0.1845(19) -.0552(22) -.1091(23) 1. 0 
N1 N3- 4 e 0.1953(19) 0.2594(22) 0.0488(23) 1. 0 
N2 N3- 4 e 0.3040(22) -.0791(19) 0.3304(22) 1. 0 
N3 N3- 4 e 0.2782(21) -.0914(20) -.1897(19) 1. 0 

#End of data_31882-ICSD


