data_280599-ICSD
#?2014 by Fachinformationszentrum Karlsruhe, and the U.S. Secretary of 
#Commerce on behalf of the United States.  All rights reserved.
_database_code_ICSD                280599
_audit_creation_date               2002/04/01
_chemical_name_systematic          'Potassium Dinitramide'
_chemical_formula_structural       'K (N3 O4)'
_chemical_formula_sum              'K1 N3 O4'
_publ_section_title
;
Anisotropic thermal expansion of potassium dinitramide: a variable-
temperature crystallographic study
;
loop_
_citation_id
_citation_journal_abbrev
_citation_year
_citation_journal_volume
_citation_page_first
_citation_page_last
_citation_journal_id_ASTM
primary 'Acta Crystallographica, Section B: Structural Science'
 2001 57 113 118 ASBSDK
_publ_author_name
;
Hardie, M.J.;Martin, A.;Pinkerton, A.A.;Zhurova, E.A.
;
_cell_length_a                     6.5918(4)
_cell_length_b                     9.0778(5)
_cell_length_c                     7.1540(4)
_cell_angle_alpha                  90.
_cell_angle_beta                   97.946(2)
_cell_angle_gamma                  90.
_cell_volume                       423.98
_cell_formula_units_Z              4
_symmetry_space_group_name_H-M     'P 1 21/n 1'
_symmetry_Int_Tables_number        14
_refine_ls_R_factor_all            .0361
loop_
_symmetry_equiv_pos_site_id
_symmetry_equiv_pos_as_xyz
  1	'-x+.5, y+.5, -z+.5'
  2	'-x, -y, -z'
  3	'x+.5, -y+.5, z+.5'
  4	'x, y, z'
loop_
_atom_type_symbol
_atom_type_oxidation_number
K1+	1
N1+	1
N3+	3
O2-	-2
loop_
_atom_site_label
_atom_site_type_symbol
_atom_site_symmetry_multiplicity
_atom_site_Wyckoff_symbol
_atom_site_fract_x
_atom_site_fract_y
_atom_site_fract_z
_atom_site_occupancy
_atom_site_attached_hydrogens
K1 K1+ 4 e 0.86034(4) 0.34332(3) 0.83205(4) 1. 0 
O1 O2- 4 e 1.0104(2) 0.34353(11) 0.21534(15) 1. 0 
O2 O2- 4 e 0.7262(2) 0.53844(11) 0.15502(15) 1. 0 
N1 N3+ 4 e 0.6488(2) 0.46237(12) 0.2686(2) 1. 0 
O3 O2- 4 e 0.4636(2) 0.46163(12) 0.2804(2) 1. 0 
N2 N1+ 4 e 0.7599(2) 0.37665(14) 0.4081(2) 1. 0 
N3 N3+ 4 e 0.9506(2) 0.34062(12) 0.3721(2) 1. 0 
O4 O2- 4 e 1.06313(15) 0.29457(11) 0.51450(13) 1. 0 

loop_
_atom_site_aniso_label
_atom_site_aniso_type_symbol
_atom_site_aniso_U_11
_atom_site_aniso_U_22
_atom_site_aniso_U_33
_atom_site_aniso_U_12
_atom_site_aniso_U_13
_atom_site_aniso_U_23
K1 K1+ 0.0107(2) 0.0152(2) 0.0092(2) -.00139(10) 0.00223(12) 0.00025(10)
O1 O2- 0.0130(5) 0.0215(6) 0.0080(5) 0.0017(4) 0.0041(4) 0.0008(4)
O2 O2- 0.0158(6) 0.0154(5) 0.0133(5) -.0012(4) 0.0019(4) 0.0043(4)
N1 N3+ 0.0114(6) 0.0115(6) 0.0104(6) 0.0004(4) 0.0013(4) -.0018(4)
O3 O2- 0.0081(5) 0.0196(6) 0.0188(5) 0.0024(4) 0.0019(4) -.0016(4)
N2 N1+ 0.0113(6) 0.0150(6) 0.0108(6) 0.0033(4) 0.0031(5) 0.0022(4)
N3 N3+ 0.0104(6) 0.0106(6) 0.0091(6) -.0012(4) 0.0022(4) -.0006(4)
O4 O2- 0.0131(5) 0.0167(5) 0.0090(5) 0.0022(4) -.0012(4) 0.0009(4)
#End of data_280599-ICSD


