data_36352-ICSD
#?2014 by Fachinformationszentrum Karlsruhe, and the U.S. Secretary of 
#Commerce on behalf of the United States.  All rights reserved.
_database_code_ICSD                36352
_audit_creation_date               1980/01/01
_audit_update_record               2014/08/01
_chemical_name_systematic          'Trisilver Arsenic Sulfide'
_chemical_formula_structural       'Ag3 As S3'
_chemical_formula_sum              'Ag3 As1 S3'
_chemical_name_mineral             Xanthoconite
_publ_section_title                'Die Kristallstruktur von Ag3 As S3'
loop_
_citation_id
_citation_journal_abbrev
_citation_year
_citation_journal_volume
_citation_page_first
_citation_page_last
_citation_journal_id_ASTM
primary 'Acta Crystallographica B (24,1968-38,1982)' 1968 24 77 81 ACBCAR
_publ_author_name                  'Engel, P.;Nowacki, W.'
_cell_length_a                     12.00(1)
_cell_length_b                     6.26(1)
_cell_length_c                     17.080(10)
_cell_angle_alpha                  90.
_cell_angle_beta                   110.00(33)
_cell_angle_gamma                  90.
_cell_volume                       1205.67
_cell_formula_units_Z              8
_symmetry_space_group_name_H-M     'C 1 2/c 1'
_symmetry_Int_Tables_number        15
_refine_ls_R_factor_all            .013
loop_
_symmetry_equiv_pos_site_id
_symmetry_equiv_pos_as_xyz
  1	'x, -y, z+.5'
  2	'-x, -y, -z'
  3	'-x, y, -z+.5'
  4	'x, y, z'
  5	'x+.5, -y+.5, z+.5'
  6	'-x+.5, -y+.5, -z'
  7	'-x+.5, y+.5, -z+.5'
  8	'x+.5, y+.5, z'
loop_
_atom_type_symbol
_atom_type_oxidation_number
Ag1+	1
As3+	3
S2-	-2
loop_
_atom_site_label
_atom_site_type_symbol
_atom_site_symmetry_multiplicity
_atom_site_Wyckoff_symbol
_atom_site_fract_x
_atom_site_fract_y
_atom_site_fract_z
_atom_site_occupancy
_atom_site_attached_hydrogens
Ag1 Ag1+ 8 f 0.1414(4) 0.0347(7) 0.2160(2) 1. 0 
Ag2 Ag1+ 8 f 0.0632(4) 0.9402(6) 0.4386(3) 1. 0 
Ag3 Ag1+ 8 f 0.3609(4) 0.0457(6) 0.1370(3) 1. 0 
As1 As3+ 8 f 0.3573(4) 0.0553(6) 0.4292(2) 1. 0 
S1 S2- 8 f 0.1542(7) 0.1943(15) 0.0842(6) 1. 0 
S2 S2- 8 f 0.4240(8) 0.1427(15) 0.3272(6) 1. 0 
S3 S2- 8 f 0.1655(7) 0.1448(14) 0.3588(5) 1. 0 

#End of data_36352-ICSD


