data_174533-ICSD
#?2014 by Fachinformationszentrum Karlsruhe, and the U.S. Secretary of 
#Commerce on behalf of the United States.  All rights reserved.
_database_code_ICSD                174533
_audit_creation_date               2011/02/01
_audit_update_record               2013/02/01
_chemical_name_systematic          'Lithium Lanthanum Bis(carbonate)'
_chemical_formula_structural       'Li La (C O3)2'
_chemical_formula_sum              'C2 La1 Li1 O6'
_publ_section_title
;
An improved synthesis of ternary carbonates: the examples Li La (C 
O3)2 and La (C O3)F
;
loop_
_citation_id
_citation_journal_abbrev
_citation_year
_citation_journal_volume
_citation_journal_issue
_citation_page_first
_citation_page_last
_citation_journal_id_ASTM
primary 'Zeitschrift fuer Anorganische und Allgemeine Chemie (1950) (DE)'
 2010 636 15 2622 2625 ZAACAB
_publ_author_name                  'Glaser, J.;Meyer, H.J.'
_cell_length_a                     6.888(2)
_cell_length_b                     7.853(1)
_cell_length_c                     8.429(2)
_cell_angle_alpha                  90
_cell_angle_beta                   97.24(3)
_cell_angle_gamma                  90
_cell_volume                       452.3
_cell_formula_units_Z              4
_symmetry_space_group_name_H-M     'I 1 2/a 1'
_symmetry_Int_Tables_number        15
_refine_ls_R_factor_all            .0146
loop_
_symmetry_equiv_pos_site_id
_symmetry_equiv_pos_as_xyz
  1	'x+.5, -y, z'
  2	'-x, -y, -z'
  3	'-x+.5, y, -z'
  4	'x, y, z'
  5	'x, -y+.5, z+.5'
  6	'-x+.5, -y+.5, -z+.5'
  7	'-x, y+.5, -z+.5'
  8	'x+.5, y+.5, z+.5'
loop_
_atom_type_symbol
_atom_type_oxidation_number
C4+	4
La3+	3
Li1+	1
O2-	-2
loop_
_atom_site_label
_atom_site_type_symbol
_atom_site_symmetry_multiplicity
_atom_site_Wyckoff_symbol
_atom_site_fract_x
_atom_site_fract_y
_atom_site_fract_z
_atom_site_occupancy
_atom_site_attached_hydrogens
_atom_site_U_iso_or_equiv
Li1 Li1+ 4 e 0.75 0.2515(11) 0 1. 0 0.014(1) 
La1 La3+ 4 e 0.25 0.1946(1) 0 1. 0 0.008(1) 
O1 O2- 8 f -0.0634(3) 0.3303(3) -0.1241(3) 1. 0 0.013(1) 
O2 O2- 8 f 0.4261(3) -0.0851(3) 0.1207(2) 1. 0 0.012(1) 
O3 O2- 8 f 0.1821(3) 0.4152(3) 0.2025(2) 1. 0 0.014(1) 
C1 C4+ 8 f 0.3963(4) -0.0591(3) 0.2678(3) 1. 0 0.010(1) 

#End of data_174533-ICSD


