data_165661-ICSD
#?2014 by Fachinformationszentrum Karlsruhe, and the U.S. Secretary of 
#Commerce on behalf of the United States.  All rights reserved.
_database_code_ICSD                165661
_audit_creation_date               2010/02/01
_chemical_name_systematic          'Silver Iron Iron(III) Sulfide'
_chemical_formula_structural       'Ag Fe2 S3'
_chemical_formula_sum              'Ag1 Fe2 S3'
_chemical_name_mineral             Argentopyrite
_publ_section_title
;
Crystal structure of argentopyrite, Ag Fe2 S3, and its relationship 
with cubanite
;
loop_
_citation_id
_citation_journal_abbrev
_citation_year
_citation_journal_volume
_citation_page_first
_citation_page_last
_citation_journal_id_ASTM
primary 'American Mineralogist' 2009 94 1727 1730 AMMIAY
_publ_author_name
;
Yang He Xiong;Pinch, W.W.;Downs, R.T.
;
_cell_length_a                     6.6902(2)
_cell_length_b                     11.4497(4)
_cell_length_c                     6.4525(2)
_cell_angle_alpha                  90.
_cell_angle_beta                   90.
_cell_angle_gamma                  90.2420(8)
_cell_volume                       494.26
_cell_formula_units_Z              4
_symmetry_space_group_name_H-M     'P 1 1 21/n'
_symmetry_Int_Tables_number        14
_refine_ls_R_factor_all            .029
loop_
_symmetry_equiv_pos_site_id
_symmetry_equiv_pos_as_xyz
  1	'x+.5, y+.5, -z+.5'
  2	'-x, -y, -z'
  3	'-x+.5, -y+.5, z+.5'
  4	'x, y, z'
loop_
_atom_type_symbol
_atom_type_oxidation_number
Ag1+	1
Fe2+	2
Fe3+	3
S2-	-2
loop_
_atom_site_label
_atom_site_type_symbol
_atom_site_symmetry_multiplicity
_atom_site_Wyckoff_symbol
_atom_site_fract_x
_atom_site_fract_y
_atom_site_fract_z
_atom_site_occupancy
_atom_site_attached_hydrogens
_atom_site_U_iso_or_equiv
Ag1 Ag1+ 4 e 0.33197(4) 0.16461(2) 0.38491(4) 1. 0 0.0336(1) 
Fe1 Fe3+ 4 e 0.83066(5) 0.32887(3) 0.37493(6) 1. 0 0.0158(1) 
Fe2 Fe2+ 4 e 0.32872(5) 0.49989(3) 0.37518(6) 1. 0 0.0154(1) 
S1 S2- 4 e 0.14775(10) 0.34665(6) 0.27103(12) 1. 0 0.0204(2) 
S2 S2- 4 e 0.64979(9) 0.48920(6) 0.26747(11) 1. 0 0.0174(2) 
S3 S2- 4 e 0.68393(10) 0.17049(5) 0.23119(11) 1. 0 0.0174(2) 

loop_
_atom_site_aniso_label
_atom_site_aniso_type_symbol
_atom_site_aniso_U_11
_atom_site_aniso_U_22
_atom_site_aniso_U_33
_atom_site_aniso_U_12
_atom_site_aniso_U_13
_atom_site_aniso_U_23
Ag1 Ag1+ 0.0313(1) 0.0351(2) 0.0345(2) -0.0034(1) 0.0003(1) -0.0040(1)
Fe1 Fe3+ 0.0146(2) 0.0142(2) 0.0186(2) -0.0008(1) 0.0004(1) -0.0019(1)
Fe2 Fe2+ 0.0131(2) 0.0148(2) 0.0184(2) -0.0006(1) -0.0010(1) -0.0005(1)
S1 S2- 0.0154(3) 0.0198(3) 0.0261(3) -0.0045(2) 0.0018(3) -0.0041(3)
S2 S2- 0.0147(3) 0.0190(3) 0.0184(3) 0.0015(2) 0.0015(2) 0.0023(2)
S3 S2- 0.0180(3) 0.0156(3) 0.0186(3) -0.0014(2) 0.0009(2) -0.0039(2)
#End of data_165661-ICSD


