data_75430-ICSD
#?2014 by Fachinformationszentrum Karlsruhe, and the U.S. Secretary of 
#Commerce on behalf of the United States.  All rights reserved.
_database_code_ICSD                75430
_audit_creation_date               1996/04/22
_chemical_name_systematic
;
Potassium Tetrathiotetracupro(I)arsenate(III)
;
_chemical_formula_structural       'K (Cu4 As S4)'
_chemical_formula_sum              'As1 Cu4 K1 S4'
_publ_section_title
;
Synthesis of new low-dimensional quaternary compounds, K Cu2 As S3 
and K Cu4 As S4, in supercritical amine solvent. Alkali metal 
derivatives of sulfosalts
;
loop_
_citation_id
_citation_journal_abbrev
_citation_year
_citation_journal_volume
_citation_page_first
_citation_page_last
_citation_journal_id_ASTM
primary 'Inorganic Chemistry' 1994 33 1733 1734 INOCAJ
_publ_author_name
;
Jerome, J.E.;Wood, P.T.;Pennington, W.T.;Kolis, J.W.
;
_cell_length_a                     6.636(2)
_cell_length_b                     6.396(1)
_cell_length_c                     9.579(2)
_cell_angle_alpha                  90.
_cell_angle_beta                   103.48(2)
_cell_angle_gamma                  90.
_cell_volume                       395.37
_cell_formula_units_Z              2
_symmetry_space_group_name_H-M     'P 1 21 1'
_symmetry_Int_Tables_number        4
_refine_ls_R_factor_all            .034
loop_
_symmetry_equiv_pos_site_id
_symmetry_equiv_pos_as_xyz
  1	'-x, y+.5, -z'
  2	'x, y, z'
loop_
_atom_type_symbol
_atom_type_oxidation_number
As3+	3
Cu1+	1
K1+	1
S2-	-2
loop_
_atom_site_label
_atom_site_type_symbol
_atom_site_symmetry_multiplicity
_atom_site_Wyckoff_symbol
_atom_site_fract_x
_atom_site_fract_y
_atom_site_fract_z
_atom_site_occupancy
_atom_site_attached_hydrogens
As1 As3+ 2 a 0.2052(2) 0.1101(2) 0.2522(1) 1. 0 
Cu1 Cu1+ 2 a 0.7068(2) 0.1166(3) 0.5633(2) 1. 0 
Cu2 Cu1+ 2 a 0.9261(2) 0.0958(4) 0.8753(1) 1. 0 
Cu3 Cu1+ 2 a 0.0226(2) 0.3259(4) 0.4856(2) 1. 0 
Cu4 Cu1+ 2 a 0.6379(2) 0.4713(4) 0.3892(2) 1. 0 
K1 K1+ 2 a 0.3220(4) 0.4756(7) 0.8635(3) 1. 0 
S1 S2- 2 a 0.5343(4) 0.4200(5) 0.6036(3) 1. 0 
S2 S2- 2 a 0.8345(4) 0.4167(6) 0.9497(3) 1. 0 
S3 S2- 2 a 0.3835(4) 0.3803(5) 0.1932(3) 1. 0 
S4 S2- 2 a 0.0614(4) 0.0956(6) 0.6587(3) 1. 0 

loop_
_atom_site_aniso_label
_atom_site_aniso_type_symbol
_atom_site_aniso_U_11
_atom_site_aniso_U_22
_atom_site_aniso_U_33
_atom_site_aniso_U_12
_atom_site_aniso_U_13
_atom_site_aniso_U_23
As1 As3+ 0.006(1) 0.014(1) 0.010(1) 0.001(1) 0.001(1) 0.001(1)
Cu1 Cu1+ 0.008(1) 0.018(1) 0.031(1) 0.000(1) 0.000(1) -.005(1)
Cu2 Cu1+ 0.022(1) 0.018(1) 0.014(1) 0.002(1) 0.002(1) 0.000(1)
Cu3 Cu1+ 0.015(1) 0.030(1) 0.026(1) -.002(1) 0.001(1) 0.017(1)
Cu4 Cu1+ 0.011(1) 0.030(1) 0.013(1) -.003(1) 0.004(1) 0.000(1)
K1 K1+ 0.018(1) 0.055(2) 0.014(1) -.005(2) 0.006(1) -.002(2)
S1 S2- 0.009(1) 0.012(1) 0.006(1) 0.001(1) 0.001(1) 0.001(1)
S2 S2- 0.016(1) 0.014(1) 0.008(1) 0.001(1) -.004(1) -.002(1)
S3 S2- 0.010(1) 0.013(2) 0.010(1) -.002(1) -.003(1) 0.002(1)
S4 S2- 0.008(1) 0.015(1) 0.008(1) 0.001(1) 0.002(1) -.002(1)
#End of data_75430-ICSD


