data_98652-ICSD
#?2014 by Fachinformationszentrum Karlsruhe, and the U.S. Secretary of 
#Commerce on behalf of the United States.  All rights reserved.
_database_code_ICSD                98652
_audit_creation_date               2005/04/01
_chemical_name_systematic
;
Tribarium Dicopper Dialuminium Fluoride
;
_chemical_formula_structural       'Ba3 Cu2 Al2 F16'
_chemical_formula_sum              'Al2 Ba3 Cu2 F16'
_publ_section_title
;
The crystal structure of Ba3 Cu2 Al2 F16: a relative of Ba4 Cu2 Al3 
F21
;
loop_
_citation_id
_citation_journal_abbrev
_citation_year
_citation_journal_volume
_citation_page_first
_citation_page_last
_citation_journal_id_ASTM
primary 'Zeitschrift fuer Anorganische und Allgemeine Chemie (1950) (DE)'
 2003 629 1960 1964 ZAACAB
_publ_author_name
;
Gredin, P.;Corbel, G.;Wright, J.P.;Dupont, N.;de Kozak, A.
;
_cell_length_a                     7.334(1)
_cell_length_b                     5.320(1)
_cell_length_c                     16.022(1)
_cell_angle_alpha                  90
_cell_angle_beta                   96.34(1)
_cell_angle_gamma                  90
_cell_volume                       621.31
_cell_formula_units_Z              2
_symmetry_space_group_name_H-M     'P 1 21 1'
_symmetry_Int_Tables_number        4
_refine_ls_R_factor_all            .044
loop_
_symmetry_equiv_pos_site_id
_symmetry_equiv_pos_as_xyz
  1	'-x, y+.5, -z'
  2	'x, y, z'
loop_
_atom_type_symbol
_atom_type_oxidation_number
Al3+	3
Ba2+	2
Cu2+	2
F1-	-1
loop_
_atom_site_label
_atom_site_type_symbol
_atom_site_symmetry_multiplicity
_atom_site_Wyckoff_symbol
_atom_site_fract_x
_atom_site_fract_y
_atom_site_fract_z
_atom_site_occupancy
_atom_site_attached_hydrogens
_atom_site_U_iso_or_equiv
Ba1 Ba2+ 2 a 0.7445(1) 0.8107(1) 0.4700(1) 1. 0 0.0141(2) 
Ba2 Ba2+ 2 a 0.6902(1) 0.7612(1) 0.1845(1) 1. 0 0.0138(2) 
Ba3 Ba2+ 2 a 0.1645(1) 0.2418(1) 0.1144(1) 1. 0 0.0147(2) 
Cu1 Cu2+ 2 a 0.4403(2) 0.3117(3) 0.3296(1) 1. 0 0.0122(3) 
Cu2 Cu2+ 2 a 0.2158(1) 0.7876(2) 0.3039(1) 1. 0 0.0118(3) 
Al1 Al3+ 2 a 0.9209(3) 0.3211(6) 0.3408(2) 1. 0 0.0091(5) 
Al2 Al3+ 2 a 0.3319(4) 0.7641(6) 0.9759(2) 1. 0 0.0100(5) 
F1 F1- 2 a 0.5003(8) 0.1586(13) 0.4335(4) 1. 0 0.0169(13) 
F2 F1- 2 a 0.3900(8) 0.6351(12) 0.3894(4) 1. 0 0.0142(12) 
F3 F1- 2 a 0.7071(8) 0.4964(12) 0.3298(4) 1. 0 0.0124(12) 
F4 F1- 2 a 0.8990(7) 0.3021(13) 0.4532(4) 1. 0 0.0162(12) 
F5 F1- 2 a 0.9430(8) 0.3718(14) 0.2329(4) 1. 0 0.0180(13) 
F6 F1- 2 a 0.4074(9) 0.0005(11) 0.2634(4) 1. 0 0.0156(13) 
F7 F1- 2 a 0.3022(12) 0.7775(15) 0.0826(4) 1. 0 0.0324(17) 
F8 F1- 2 a 0.4034(9) 0.7558(15) 0.8741(4) 1. 0 0.0255(15) 
F9 F1- 2 a 0.0324(8) 0.6246(12) 0.3643(4) 1. 0 0.0156(13) 
F10 F1- 2 a 0.3650(9) 0.4931(12) 0.2321(4) 1. 0 0.0165(13) 
F11 F1- 2 a 0.5276(11) 0.5555(11) 0.0073(7) 1. 0 0.0360(20) 
F12 F1- 2 a 0.7920(9) 0.0385(13) 0.3229(4) 1. 0 0.0165(13) 
F13 F1- 2 a 0.1492(10) 0.9781(13) 0.9475(5) 1. 0 0.0211(14) 
F14 F1- 2 a 0.0532(8) 0.8725(12) 0.2085(4) 1. 0 0.0163(12) 
F15 F1- 2 a 0.1829(11) 0.5037(13) 0.9557(5) 1. 0 0.0236(16) 
F16 F1- 2 a 0.1404(8) 0.1656(12) 0.3606(4) 1. 0 0.0163(12) 

loop_
_atom_site_aniso_label
_atom_site_aniso_type_symbol
_atom_site_aniso_U_11
_atom_site_aniso_U_22
_atom_site_aniso_U_33
_atom_site_aniso_U_12
_atom_site_aniso_U_13
_atom_site_aniso_U_23
Ba1 Ba2+ .0143(3) .0140(4) .0148(3) .0011(2) .0047(2) .0015(2)
Ba2 Ba2+ .0158(3) .0122(3) .0141(3) .0000(2) .0046(22) .0011(2)
Ba3 Ba2+ .0152(3) .0142(3) .0153(3) -.0002(2) .0050(2) -.0003(2)
Cu1 Cu2+ .0148(5) .0104(6) .0116(5) -.0012(5) .0027(4) .0006(4)
Cu2 Cu2+ .0111(5) .0106(6) .0142(5) -.0007(4) .0044(4) .0012(5)
Al1 Al3+ .0088(10) .0096(13) .0096(13) -.0010(11) .0046(9) .0004(11)
Al2 Al3+ .0136(11) .0057(13) .0114(12) -.0016(11) .0039(9) .0003(12)
F1 F1- .017(3) .019(3) .015(3) .004(2) .003(2) .001(2)
F2 F1- .014(2) .010(3) .018(3) -.002(2) .003(2) .000(2)
F3 F1- .009(3) .013(3) .016(3) .000(2) .005(2) -.001(2)
F4 F1- .014(2) .017(3) .018(3) .002(3) .005(2) -.002(3)
F5 F1- .023(3) .023(4) .009(3) .002(2) .005(2) .002(2)
F6 F1- .023(3) .006(3) .019(3) -.002(2) .009(3) -.003(2)
F7 F1- .061(5) .021(4) .018(3) .008(4) .016(3) .004(3)
F8 F1- .040(4) .023(4) .017(3) -.005(3) .019(3) .002(3)
F9 F1- .017(3) .009(3) .021(3) -.005(2) .006(2) .001(2)
F10 F1- .021(3) .014(3) .016(3) .001(2) .004(2) .001(2)
F11 F1- .029(4) .021(4) .058(6) .012(3) -.001(4) .001(4)
F12 F1- .020(3) .014(3) .017(3) .001(2) .006(3) .002(2)
F13 F1- .022(3) .016(3) .025(4) .007(3) .000(3) -.002(3)
F14 F1- .011(2) .019(3) .019(3) -.002(2) .003(2) .002(3)
F15 F1- .026(4) .016(4) .030(4) -.001(3) .007(3) -.005(3)
F16 F1- .012(2) .016(3) .020(3) .007(2) .001(2) -.002(2)
#End of data_98652-ICSD


