data_33242-ICSD
#?2014 by Fachinformationszentrum Karlsruhe, and the U.S. Secretary of 
#Commerce on behalf of the United States.  All rights reserved.
_database_code_ICSD                33242
_audit_creation_date               1983/12/31
_audit_update_record               2012/08/01
_chemical_name_systematic
;
Lithium Erbium Cyclo-tetraphosphate(V)
;
_chemical_formula_structural       'Li Er (P4 O12)'
_chemical_formula_sum              'Er1 Li1 O12 P4'
_publ_section_title                'Crystal structure of Li Er P4 O12'
loop_
_citation_id
_citation_journal_abbrev
_citation_year
_citation_journal_volume
_citation_page_first
_citation_page_last
_citation_journal_id_ASTM
primary 'Wu Li Hsueh Pao (= Acta Physica Sinica)' 1983 32 786 790 WLHPAR
_publ_author_name                  'Liu, J.-C.;Li, D.-Y.'
_cell_length_a                     16.22899
_cell_length_b                     7.009
_cell_length_c                     9.524
_cell_angle_alpha                  90.
_cell_angle_beta                   125.92
_cell_angle_gamma                  90.
_cell_volume                       877.33
_cell_formula_units_Z              4
_symmetry_space_group_name_H-M     'C 1 2/c 1'
_symmetry_Int_Tables_number        15
_refine_ls_R_factor_all            .058
loop_
_symmetry_equiv_pos_site_id
_symmetry_equiv_pos_as_xyz
  1	'x, -y, z+.5'
  2	'-x, -y, -z'
  3	'-x, y, -z+.5'
  4	'x, y, z'
  5	'x+.5, -y+.5, z+.5'
  6	'-x+.5, -y+.5, -z'
  7	'-x+.5, y+.5, -z+.5'
  8	'x+.5, y+.5, z'
loop_
_atom_type_symbol
_atom_type_oxidation_number
Er3+	3
Li1+	1
O2-	-2
P5+	5
loop_
_atom_site_label
_atom_site_type_symbol
_atom_site_symmetry_multiplicity
_atom_site_Wyckoff_symbol
_atom_site_fract_x
_atom_site_fract_y
_atom_site_fract_z
_atom_site_occupancy
_atom_site_attached_hydrogens
Er1 Er3+ 4 e 0 0.2035(2) 0.25 1. 0 
Li1 Li1+ 4 a 0 0 0 1. 0 
P1 P5+ 8 f 0.3628(4) 0.0509(8) 0.3410(7) 1. 0 
P2 P5+ 8 f 0.1463(4) 0.1490(8) 0.0974(7) 1. 0 
O1 O2- 8 f 0.436(1) 0.001(2) 0.298(2) 1. 0 
O2 O2- 8 f 0.255(1) 0.078(3) 0.158(2) 1. 0 
O3 O2- 8 f 0.388(1) 0.216(3) 0.458(3) 1. 0 
O4 O2- 8 f 0.157(1) 0.370(2) 0.079(2) 1. 0 
O5 O2- 8 f 0.430(1) 0.417(3) 0.084(2) 1. 0 
O6 O2- 8 f 0.128(1) 0.116(3) 0.230(2) 1. 0 

#End of data_33242-ICSD


