data_73144-ICSD
#?2014 by Fachinformationszentrum Karlsruhe, and the U.S. Secretary of 
#Commerce on behalf of the United States.  All rights reserved.
_database_code_ICSD                73144
_audit_creation_date               1994/06/30
_audit_update_record               2012/08/01
_chemical_name_systematic
;
Tripotassium Undecachromium Sulfide
;
_chemical_formula_structural       'K3 Cr11 S18'
_chemical_formula_sum              'Cr11 K3 S18'
_publ_section_title
;
Neue Alkalimetallchromchalkogenide und ihre Struktursystematik
;
loop_
_citation_id
_citation_journal_abbrev
_citation_year
_citation_journal_volume
_citation_page_first
_citation_page_last
_citation_journal_id_ASTM
primary 'Zeitschrift fuer Anorganische und Allgemeine Chemie (1950) (DE)'
 1993 619 243 252 ZAACAB
_publ_author_name
;
Bronger, W.;Herudek, C.;Huster, J.;Schmitz, D.
;
_cell_length_a                     41.876(3)
_cell_length_b                     3.463(1)
_cell_length_c                     16.315(3)
_cell_angle_alpha                  90.
_cell_angle_beta                   150.07(1)
_cell_angle_gamma                  90.
_cell_volume                       1180.47
_cell_formula_units_Z              2
_symmetry_space_group_name_H-M     'C 1 2/m 1'
_symmetry_Int_Tables_number        12
_refine_ls_R_factor_all            .049
loop_
_symmetry_equiv_pos_site_id
_symmetry_equiv_pos_as_xyz
  1	'-x, y, -z'
  2	'-x, -y, -z'
  3	'x, -y, z'
  4	'x, y, z'
  5	'-x+.5, y+.5, -z'
  6	'-x+.5, -y+.5, -z'
  7	'x+.5, -y+.5, z'
  8	'x+.5, y+.5, z'
loop_
_atom_type_symbol
_atom_type_oxidation_number
Cr3+	3
K1+	1
S2-	-2
loop_
_atom_site_label
_atom_site_type_symbol
_atom_site_symmetry_multiplicity
_atom_site_Wyckoff_symbol
_atom_site_fract_x
_atom_site_fract_y
_atom_site_fract_z
_atom_site_occupancy
_atom_site_attached_hydrogens
K1 K1+ 2 d 0.5 0 0.5 1. 0 
K2 K1+ 4 i 0.8035(3) 0 0.5170(4) 1. 0 
Cr1 Cr3+ 2 a 0 0 0 1. 0 
Cr2 Cr3+ 4 i 0.4678(2) 0 0.6805(2) 1. 0 
Cr3 Cr3+ 4 i 0.1518(3) 0 0.0254(3) 1. 0 
Cr4 Cr3+ 4 i 0.8343(2) 0 0.3471(2) 1. 0 
Cr5 Cr3+ 4 i 0.2922(2) 0 0.0118(2) 1. 0 
Cr6 Cr3+ 4 i 0.4106(2) 0 0.9538(2) 1. 0 
S1 S2- 4 i 0.5758(3) 0 0.8683(3) 1. 0 
S2 S2- 4 i 0.0023(3) 0 0.8566(3) 1. 0 
S3 S2- 4 i 0.7290(3) 0 0.1779(4) 1. 0 
S4 S2- 4 i 0.5789(3) 0 0.1660(4) 1. 0 
S5 S2- 4 i 0.3642(3) 0 0.5040(3) 1. 0 
S6 S2- 4 i 0.9371(4) 0 0.5205(4) 1. 0 
S7 S2- 4 i 0.1325(3) 0 0.8367(4) 1. 0 
S8 S2- 4 i 0.2937(3) 0 0.1629(4) 1. 0 
S9 S2- 4 i 0.1673(3) 0 0.2094(4) 1. 0 

loop_
_atom_site_aniso_label
_atom_site_aniso_type_symbol
_atom_site_aniso_U_11
_atom_site_aniso_U_22
_atom_site_aniso_U_33
_atom_site_aniso_U_12
_atom_site_aniso_U_13
_atom_site_aniso_U_23
K1 K1+ 0.034(5) 0.046(9) 0.054(7) 0 0.019(5) 0
K2 K1+ 0.017(3) 0.023(4) 0.026(3) 0 -.001(2) 0
Cr1 Cr3+ 0.006(2) 0.006(2) 0.011(2) 0 -.005(2) 0
Cr2 Cr3+ 0.009(2) 0.015(2) 0.011(2) 0 0.002(1) 0
Cr3 Cr3+ 0.012(2) 0.012(2) 0.010(2) 0 -.001(1) 0
Cr4 Cr3+ 0.016(2) 0.010(2) 0.010(2) 0 0.003(1) 0
Cr5 Cr3+ 0.010(2) 0.014(2) 0.009(2) 0 0.007(1) 0
Cr6 Cr3+ 0.011(2) 0.020(3) 0.011(2) 0 0.000(1) 0
S1 S2- 0.009(2) 0.012(4) 0.019(3) 0 0.005(2) 0
S2 S2- 0.018(3) 0.013(4) 0.006(2) 0 0.005(2) 0
S3 S2- 0.002(2) 0.025(4) 0.019(3) 0 0.004(2) 0
S4 S2- 0.012(3) 0.004(3) 0.021(3) 0 0.005(2) 0
S5 S2- 0.015(2) 0.012(3) 0.015(3) 0 0.006(2) 0
S6 S2- 0.021(3) 0.010(3) 0.007(2) 0 -.003(2) 0
S7 S2- 0.012(3) 0.023(4) 0.016(3) 0 0.003(2) 0
S8 S2- 0.004(2) 0.021(4) 0.014(3) 0 -.007(2) 0
S9 S2- 0.019(3) 0.001(3) 0.019(3) 0 0.004(2) 0
#End of data_73144-ICSD


