data_36001-ICSD
#?2014 by Fachinformationszentrum Karlsruhe, and the U.S. Secretary of 
#Commerce on behalf of the United States.  All rights reserved.
_database_code_ICSD                36001
_audit_creation_date               1982/12/31
_chemical_name_systematic          'Barium Zinc Iron(III) Fluoride'
_chemical_formula_structural       'Ba Zn Fe F7'
_chemical_formula_sum              'Ba1 F7 Fe1 Zn1'
_publ_section_title
;
Die Kristallstruktur einer Hochtemperatur-Modifikation von Barium-
Zink-Eisen(III)-Fluorid Ba Zn Fe F7
;
loop_
_citation_id
_citation_journal_abbrev
_citation_year
_citation_journal_volume
_citation_page_first
_citation_page_last
_citation_journal_id_ASTM
primary 'Zeitschrift fuer Anorganische und Allgemeine Chemie (1950) (DE)'
 1982 491 137 144 ZAACAB
_publ_author_name                  'Holler, H.;Babel, D.'
_cell_length_a                     5.603(1)
_cell_length_b                     9.971(3)
_cell_length_c                     9.584(4)
_cell_angle_alpha                  90.
_cell_angle_beta                   92.80(4)
_cell_angle_gamma                  90.
_cell_volume                       534.8
_cell_formula_units_Z              4
_symmetry_space_group_name_H-M     'P 1 21/c 1'
_symmetry_Int_Tables_number        14
_refine_ls_R_factor_all            .057
loop_
_symmetry_equiv_pos_site_id
_symmetry_equiv_pos_as_xyz
  1	'x, -y+.5, z+.5'
  2	'-x, -y, -z'
  3	'-x, y+.5, -z+.5'
  4	'x, y, z'
loop_
_atom_type_symbol
_atom_type_oxidation_number
Ba2+	2
F1-	-1
Fe3+	3
Zn2+	2
loop_
_atom_site_label
_atom_site_type_symbol
_atom_site_symmetry_multiplicity
_atom_site_Wyckoff_symbol
_atom_site_fract_x
_atom_site_fract_y
_atom_site_fract_z
_atom_site_occupancy
_atom_site_attached_hydrogens
Ba1 Ba2+ 4 e 0.2596 0.1806 -.0011 1. 0 
Zn1 Zn2+ 4 e 0.7001(1) 0.3985(1) 0.8104(1) 1. 0 
Fe1 Fe3+ 4 e 0.1974(1) 0.6092(1) 0.8118(1) 1. 0 
F1 F1- 4 e 0.1120(6) 0.0577(3) 0.6228(4) 1. 0 
F2 F1- 4 e 0.3652(6) 0.4497(3) 0.8708(4) 1. 0 
F3 F1- 4 e 0.4747(6) 0.7082(3) 0.7526(4) 1. 0 
F4 F1- 4 e 0.0244(6) 0.7777(3) 0.7524(4) 1. 0 
F5 F1- 4 e 0.6117(6) 0.0417(3) 0.1252(4) 1. 0 
F6 F1- 4 e 0.7425(6) 0.3098(3) 0.0022(4) 1. 0 
F7 F1- 4 e 0.1108(6) 0.9589(3) 0.1330(4) 1. 0 

loop_
_atom_site_aniso_label
_atom_site_aniso_type_symbol
_atom_site_aniso_U_11
_atom_site_aniso_U_22
_atom_site_aniso_U_33
_atom_site_aniso_U_12
_atom_site_aniso_U_13
_atom_site_aniso_U_23
Ba1 Ba2+ 0.0088(1) 0.0077(1) 0.0085(1) 0.0000(1) -.0010(1) -.0003(1)
Zn1 Zn2+ 0.0076(2) 0.0079(2) 0.0072(2) 0.0004(2) -.0009(2) 0.0007(2)
Fe1 Fe3+ 0.0049(3) 0.0058(3) 0.0059(3) -.0002(2) -.0005(2) -.0004(2)
F1 F1- 0.0091(12) 0.0122(14) 0.0152(15) 0.0046(10) 0.0026(11) 0.0046(10)
F2 F1- 0.0109(13) 0.0102(13) 0.0168(16) 0.0037(10) 0.0034(11) 0.0011(11)
F3 F1- 0.0081(11) 0.0091(13) 0.0150(14) -.0007(9) 0.0028(10) 0.0011(10)
F4 F1- 0.0083(12) 0.0080(12) 0.0152(14) 0.0012(9) 0.001(1) 0.0023(10)
F5 F1- 0.0146(13) 0.0114(13) 0.0093(14) 0.0020(11) -.0024(11) -.0030(11)
F6 F1- 0.019(14) 0.0117(12) 0.0062(10) -.0003(13) -.0027(10) -.0004(13)
F7 F1- 0.0136(13) 0.0122(14) 0.0089(14) -.0010(11) -.0022(11) 0.0028(11)
#End of data_36001-ICSD


