data_76314-ICSD
#?2014 by Fachinformationszentrum Karlsruhe, and the U.S. Secretary of 
#Commerce on behalf of the United States.  All rights reserved.
_database_code_ICSD                76314
_audit_creation_date               2000/12/16
_chemical_name_systematic          'Disodium Zinc Germanate'
_chemical_formula_structural       'Na2 Zn (Ge O4)'
_chemical_formula_sum              'Ge1 Na2 O4 Zn1'
_publ_section_title
;
The crystal structures of Na2 Zn Si O4, Na2 Zn Ge O4 and Na2 Mg Ge O4
;
loop_
_citation_id
_citation_journal_abbrev
_citation_year
_citation_journal_volume
_citation_page_first
_citation_page_last
_citation_journal_id_ASTM
primary 'Journal of Solid State Chemistry' 1969 1 1 5 JSSCBI
_publ_author_name
;
Joubert-Bettan, C.A.;Lachenal, R.;Bertaut, E.F.;Parthe, E.
;
_cell_length_a                     7.17
_cell_length_b                     5.56
_cell_length_c                     5.32
_cell_angle_alpha                  90.
_cell_angle_beta                   90.1
_cell_angle_gamma                  90.
_cell_volume                       212.08
_cell_formula_units_Z              2
_symmetry_space_group_name_H-M     'P 1 n 1'
_symmetry_Int_Tables_number        7
_refine_ls_R_factor_all            .15
loop_
_symmetry_equiv_pos_site_id
_symmetry_equiv_pos_as_xyz
  1	'x+.5, -y, z+.5'
  2	'x, y, z'
loop_
_atom_type_symbol
_atom_type_oxidation_number
Ge4+	4
Na1+	1
O2-	-2
Zn2+	2
loop_
_atom_site_label
_atom_site_type_symbol
_atom_site_symmetry_multiplicity
_atom_site_Wyckoff_symbol
_atom_site_fract_x
_atom_site_fract_y
_atom_site_fract_z
_atom_site_occupancy
_atom_site_attached_hydrogens
Na1 Na1+ 2 a 0.746 0.695 0.997 1. 0 
Na2 Na1+ 2 a 0.505 0.177 0.997 1. 0 
Zn1 Zn2+ 2 a 0.003 0.192 0.999 1. 0 
Ge1 Ge4+ 2 a 0.245 0.688 0 1. 0 
O1 O2- 2 a 0.724 0.601 0.435 1. 0 
O2 O2- 2 a 0.556 0.154 0.437 1. 0 
O3 O2- 2 a 0.935 0.221 0.359 1. 0 
O4 O2- 2 a 0.286 0.689 0.302 1. 0 

#End of data_76314-ICSD


