data_63074-ICSD
#?2014 by Fachinformationszentrum Karlsruhe, and the U.S. Secretary of 
#Commerce on behalf of the United States.  All rights reserved.
_database_code_ICSD                63074
_audit_creation_date               1989/06/19
_audit_update_record               1990/05/24
_chemical_name_systematic
;
Tetrasodium Diamminebis(hydrogensulfato(IV)sulfato(IV)) Ruthenate(II) 
Hexahydrate
;
_chemical_formula_structural
;
Na4 (Ru (S O3)2 (H S O3)2 (N H3)2) (H2 O)6
;
_chemical_formula_sum              'H20 N2 Na4 O18 Ru1 S4'
_publ_section_title
;
Structure of Sodium Diamminebis(hydrogensulfito) 
disulfitoruthenate(II) Hexahydrate.
;
loop_
_citation_id
_citation_journal_abbrev
_citation_year
_citation_journal_volume
_citation_page_first
_citation_page_last
_citation_journal_id_ASTM
primary 'Acta Crystallographica, Section C: Crystal Structure Communications'
 1987 43 2001 2002 ACSCEE
_publ_author_name
;
Johnson, D.A.;Jeter, D.Y.;Cordes, A.W.
;
_cell_length_a                     9.559(2)
_cell_length_b                     6.347(2)
_cell_length_c                     16.345(2)
_cell_angle_alpha                  90.
_cell_angle_beta                   100.16(1)
_cell_angle_gamma                  90.
_cell_volume                       976.12
_cell_formula_units_Z              2
_symmetry_space_group_name_H-M     'P 1 21/c 1'
_symmetry_Int_Tables_number        14
_refine_ls_R_factor_all            .044
loop_
_symmetry_equiv_pos_site_id
_symmetry_equiv_pos_as_xyz
  1	'x, -y+.5, z+.5'
  2	'-x, -y, -z'
  3	'-x, y+.5, -z+.5'
  4	'x, y, z'
loop_
_atom_type_symbol
_atom_type_oxidation_number
H1+	1
N3-	-3
Na1+	1
O2-	-2
Ru2+	2
S4+	4
loop_
_atom_site_label
_atom_site_type_symbol
_atom_site_symmetry_multiplicity
_atom_site_Wyckoff_symbol
_atom_site_fract_x
_atom_site_fract_y
_atom_site_fract_z
_atom_site_occupancy
_atom_site_attached_hydrogens
_atom_site_B_iso_or_equiv
Ru1 Ru2+ 2 a 0 0 0 1. 0 0.718(8) 
S1 S4+ 4 e 0.1262(1) 0.1074(2) 0.12889(8) 1. 0 0.93(2) 
S2 S4+ 4 e 0.1716(1) 0.1225(2) -.07373(8) 1. 0 1.02(2) 
Na1 Na1+ 4 e 0.0349(3) 0.6132(4) 0.2293(2) 1. 0 1.58(4) 
Na2 Na1+ 4 e 0.6135(3) 0.3543(5) 0.2841(2) 1. 0 1.91(5) 
O1 O2- 4 e 0.0679(5) 0.2994(7) 0.1618(3) 1. 0 1.68(8) 
O2 O2- 4 e 0.1308(5) -.0648(7) 0.1918(3) 1. 0 1.52(8) 
O3 O2- 4 e 0.2839(4) 0.1557(7) 0.1280(3) 1. 0 1.49(8) 
O4 O2- 4 e 0.3230(4) 0.1357(9) -.0171(3) 1. 0 1.90(9) 
O5 O2- 4 e 0.1990(4) -.0183(8) -.1415(2) 1. 0 1.77(8) 
O6 O2- 4 e 0.1414(4) 0.3378(7) -.1075(3) 1. 0 1.67(8) 
O7 O2- 4 e 0.3777(4) 0.4813(8) 0.2442(3) 1. 0 1.91(8) 
O8 O2- 4 e 0.6358(5) 0.3924(9) 0.1382(3) 1. 0 2.5(1) 
O9 O2- 4 e 0.5686(5) 0.2118(9) 0.4140(3) 1. 0 2.6(1) 
N1 N3- 4 e -.1117(5) 0.2913(8) -.0149(3) 1. 0 1.35(9) 
H1 H1+ 4 e -.1074 0.3906 0.0371 1. 0 1.7(9) 
H2 H1+ 4 e -.1973 0.2773 -.0371 1. 0 1.7(9) 
H3 H1+ 4 e -.0859 0.3887 -.0547 1. 0 1.7(9) 
H4 H1+ 4 e 0.3242 0.168 0.0547 1. 0 2.3(9) 
H5 H1+ 4 e 0.3496 0.3887 0.2051 1. 0 2.3(9) 
H6 H1+ 4 e 0.3047 0.4434 0.2793 1. 0 2.3(9) 
H7 H1+ 4 e 0.6973 0.5 0.1309 1. 0 3.0(9) 
H8 H1+ 4 e 0.6289 0.3906 0.2031 1. 0 3.0(9) 
H9 H1+ 4 e 0.6094 0.334 0.3711 1. 0 3.1(9) 
H10 H1+ 4 e 0.5957 0.2578 0.4687 1. 0 3.1(9) 

#End of data_63074-ICSD


