data_68309-ICSD
#?2014 by Fachinformationszentrum Karlsruhe, and the U.S. Secretary of 
#Commerce on behalf of the United States.  All rights reserved.
_database_code_ICSD                68309
_audit_creation_date               1991/07/10
_chemical_name_systematic
;
Silver Tetralead Tetraoxide Chloride
;
_chemical_formula_structural       'Ag Pb4 O4 Cl'
_chemical_formula_sum              'Ag1 Cl1 O4 Pb4'
_publ_section_title
;
Die Kristallstruktur von AgPb4O4Cl, eine kuriose Variante des 
Blei(II)-oxid-Strukturtyps
;
loop_
_citation_id
_citation_journal_abbrev
_citation_year
_citation_journal_volume
_citation_page_first
_citation_page_last
_citation_journal_id_ASTM
primary 'Zeitschrift fuer Anorganische und Allgemeine Chemie (1950) (DE)'
 1988 566 62 70 ZAACAB
_publ_author_name                  'Riebe, H.J.;Keller, H.L.'
_cell_length_a                     8.197(2)
_cell_length_b                     8.197(2)
_cell_length_c                     6.257(4)
_cell_angle_alpha                  90.
_cell_angle_beta                   90.
_cell_angle_gamma                  90.
_cell_volume                       420.41
_cell_formula_units_Z              2
_symmetry_space_group_name_H-M     'P 4/n Z'
_symmetry_Int_Tables_number        85
_refine_ls_R_factor_all            .049
loop_
_symmetry_equiv_pos_site_id
_symmetry_equiv_pos_as_xyz
  1	'-y, x+.5, -z'
  2	'y+.5, -x, -z'
  3	'x+.5, y+.5, -z'
  4	'-x, -y, -z'
  5	'y, -x+.5, z'
  6	'-y+.5, x, z'
  7	'-x+.5, -y+.5, z'
  8	'x, y, z'
loop_
_atom_type_symbol
_atom_type_oxidation_number
Ag1+	1
Cl1-	-1
O2-	-2
Pb2+	2
loop_
_atom_site_label
_atom_site_type_symbol
_atom_site_symmetry_multiplicity
_atom_site_Wyckoff_symbol
_atom_site_fract_x
_atom_site_fract_y
_atom_site_fract_z
_atom_site_occupancy
_atom_site_attached_hydrogens
Ag1 Ag1+ 2 c 0.25 0.25 0.0879(8) 1. 0 
Pb1 Pb2+ 8 g 0.6053(1) 0.0610(1) 0.2335(1) 1. 0 
O1 O2- 8 g 0.8430(25) 0.0072(25) 0.0772(31) 1. 0 
Cl1 Cl1- 2 c 0.25 0.25 0.4915(26) 1. 0 

loop_
_atom_site_aniso_label
_atom_site_aniso_type_symbol
_atom_site_aniso_U_11
_atom_site_aniso_U_22
_atom_site_aniso_U_33
_atom_site_aniso_U_12
_atom_site_aniso_U_13
_atom_site_aniso_U_23
Ag1 Ag1+ 0.0151(17) 0.0151(17) 0.0198(22) 0 0 0
Pb1 Pb2+ 0.0125(5) 0.0138(5) 0.0135(4) 0.0007(5) 0.0007(5) -.0023(5)
O1 O2- 0.0093(77) 0.0197(89) 0.0197(72) -.0027(70) 0.0109(72) 0.0058(73)
Cl1 Cl1- 0.0299(65) 0.0299(65) 0.0180(62) 0 0 0
#End of data_68309-ICSD


