data_262510-ICSD
#?2014 by Fachinformationszentrum Karlsruhe, and the U.S. Secretary of 
#Commerce on behalf of the United States.  All rights reserved.
_database_code_ICSD                262510
_audit_creation_date               2012/08/01
_chemical_name_systematic
;
Pentacalcium Trizirconium Docosafluoride
;
_chemical_formula_structural       'Ca5 Zr3 F22'
_chemical_formula_sum              'Ca5 F22 Zr3'
_publ_section_title                'Ca5 Zr3 F22'
loop_
_citation_id
_citation_journal_abbrev
_citation_year
_citation_journal_volume
_citation_journal_issue
_citation_page_first
_citation_page_last
_citation_journal_id_ASTM
primary 'Acta Crystallographica, Section E. Structure Reports Online'
 2012 68 4 i23 i23 ACSEBH
_publ_author_name
;
Oudahmane, A.;El Ghozzi, M.;Avignant, D.
;
_cell_length_a                     9.9844(3)
_cell_length_b                     7.4059(2)
_cell_length_c                     9.9046(3)
_cell_angle_alpha                  90.00
_cell_angle_beta                   90.00
_cell_angle_gamma                  90.00
_cell_volume                       732.38
_cell_formula_units_Z              2
_symmetry_space_group_name_H-M     'P 21 21 2'
_symmetry_Int_Tables_number        18
_refine_ls_R_factor_all            .0356
loop_
_symmetry_equiv_pos_site_id
_symmetry_equiv_pos_as_xyz
  1	'-x+.5, y+.5, -z'
  2	'x+.5, -y+.5, -z'
  3	'-x, -y, z'
  4	'x, y, z'
loop_
_atom_type_symbol
_atom_type_oxidation_number
Ca2+	2
F1-	-1
Zr4+	4
loop_
_atom_site_label
_atom_site_type_symbol
_atom_site_symmetry_multiplicity
_atom_site_Wyckoff_symbol
_atom_site_fract_x
_atom_site_fract_y
_atom_site_fract_z
_atom_site_occupancy
_atom_site_attached_hydrogens
_atom_site_U_iso_or_equiv
Zr1 Zr4+ 4 c 0.71210(3) 0.25190(5) 0.77653(3) 1 0 0.00516(5) 
Zr2 Zr4+ 2 b 0.5000 0.0000 0.46134(5) 1 0 0.00610(9) 
Ca1 Ca2+ 4 c 0.71132(6) -0.23978(10) 0.75189(6) 1 0 0.00980(11) 
Ca2 Ca2+ 2 b 1.0000 0.5000 0.94489(11) 1 0 0.01098(18) 
Ca3 Ca2+ 2 a 1.0000 0.0000 0.53761(10) 1 0 0.00549(16) 
Ca4 Ca2+ 2 a 1.0000 0.0000 0.97774(11) 1 0 0.01109(19) 
F1 F1- 4 c 0.88717(17) -0.2405(3) 0.89417(19) 1 0 0.0127(4) 
F2 F1- 4 c 0.85135(16) 0.2410(3) 0.93117(18) 1 0 0.0108(3) 
F3 F1- 4 c 0.8514(2) 0.0603(2) 0.7085(3) 1 0 0.0170(5) 
F4 F1- 4 c 0.88835(19) 0.4117(2) 0.7118(3) 1 0 0.0126(4) 
F5 F1- 4 c 1.10993(18) 0.2790(3) 0.6049(2) 1 0 0.0128(4) 
F6 F1- 4 c 0.65761(18) 0.0167(3) 0.8771(2) 1 0 0.0113(4) 
F7 F1- 4 c 0.69569(18) 0.4936(3) 0.87846(19) 1 0 0.0114(4) 
F8 F1- 4 c 0.6504(2) 0.4338(3) 0.6301(2) 1 0 0.0156(5) 
F9 F1- 4 c 1.10631(18) -0.2758(3) 0.4672(2) 1 0 0.0131(4) 
F10 F1- 4 c 0.51040(18) 0.2795(2) 0.83055(19) 1 0 0.0139(4) 
F11 F1- 4 c 0.6171(2) 0.0833(3) 0.6283(3) 1 0 0.0177(5) 

loop_
_atom_site_aniso_label
_atom_site_aniso_type_symbol
_atom_site_aniso_U_11
_atom_site_aniso_U_22
_atom_site_aniso_U_33
_atom_site_aniso_U_12
_atom_site_aniso_U_13
_atom_site_aniso_U_23
Zr1 Zr4+ 0.00491(11) 0.00437(10) 0.00621(12) 0.00005(14) -0.00025(10) 
0.00010(14)
Zr2 Zr4+ 0.0070(2) 0.00559(19) 0.0057(2) -0.0005(2) 0.000 0.000
Ca1 Ca2+ 0.0079(2) 0.0118(3) 0.0097(3) -0.0004(3) 0.0000(2) 0.0002(3)
Ca2 Ca2+ 0.0104(4) 0.0085(4) 0.0139(5) 0.0006(4) 0.000 0.000
Ca3 Ca2+ 0.0047(4) 0.0059(4) 0.0059(4) 0.0005(5) 0.000 0.000
Ca4 Ca2+ 0.0097(4) 0.0065(4) 0.0170(5) -0.0010(4) 0.000 0.000
F1 F1- 0.0108(8) 0.0113(8) 0.0161(9) -0.0008(9) -0.0033(7) -0.0009(10)
F2 F1- 0.0100(8) 0.0125(8) 0.0098(8) -0.0027(10) -0.0044(6) 0.0024(10)
F3 F1- 0.0194(11) 0.0113(9) 0.0203(13) 0.0026(8) 0.0086(10) -0.0019(9)
F4 F1- 0.0118(10) 0.0128(9) 0.0133(11) -0.0041(7) 0.0021(9) 0.0004(8)
F5 F1- 0.0103(8) 0.0159(11) 0.0122(10) 0.0038(7) -0.0044(7) -0.0006(8)
F6 F1- 0.0129(9) 0.0090(9) 0.0120(10) -0.0019(8) 0.0002(7) -0.0007(8)
F7 F1- 0.0129(9) 0.0084(8) 0.0130(10) -0.0016(9) -0.0016(8) -0.0023(9)
F8 F1- 0.0202(12) 0.0145(10) 0.0120(12) 0.0008(8) -0.0061(9) 0.0047(8)
F9 F1- 0.0135(9) 0.0108(10) 0.0151(10) -0.0034(8) 0.0041(7) 0.0002(8)
F10 F1- 0.0077(8) 0.0177(10) 0.0161(10) 0.0009(8) 0.0012(8) -0.0044(7)
F11 F1- 0.0233(12) 0.0146(10) 0.0151(13) -0.0028(9) -0.0065(10) -0.0028(9)
#End of data_262510-ICSD


