data_171184-ICSD
#?2014 by Fachinformationszentrum Karlsruhe, and the U.S. Secretary of 
#Commerce on behalf of the United States.  All rights reserved.
_database_code_ICSD                171184
_audit_creation_date               2006/10/01
_chemical_name_systematic
;
Dipotassium Tetrachromium(VI) Tridecaoxide
;
_chemical_formula_structural       'K2 Cr4 O13'
_chemical_formula_sum              'Cr4 K2 O13'
_publ_section_title
;
Dipotassium tetrachromate(VI), K2 Cr4 O13
;
loop_
_citation_id
_citation_journal_abbrev
_citation_year
_citation_journal_volume
_citation_page_first
_citation_page_last
_citation_journal_id_ASTM
primary 'Acta Crystallographica, Section C: Crystal Structure Communications'
 2005 61 i117 i119 ACSCEE
_publ_author_name                  'Casari, B.M.;Langer, V.'
_cell_length_a                     8.6165(2)
_cell_length_b                     7.47250(10)
_cell_length_c                     9.2811(3)
_cell_angle_alpha                  90.00
_cell_angle_beta                   92.746(2)
_cell_angle_gamma                  90.00
_cell_volume                       596.89
_cell_formula_units_Z              2
_symmetry_space_group_name_H-M     'P 1 c 1'
_symmetry_Int_Tables_number        7
_refine_ls_R_factor_all            .0707
loop_
_symmetry_equiv_pos_site_id
_symmetry_equiv_pos_as_xyz
  1	'x, -y, z+.5'
  2	'x, y, z'
loop_
_atom_type_symbol
_atom_type_oxidation_number
Cr6+	6
K1+	1
O2-	-2
loop_
_atom_site_label
_atom_site_type_symbol
_atom_site_symmetry_multiplicity
_atom_site_Wyckoff_symbol
_atom_site_fract_x
_atom_site_fract_y
_atom_site_fract_z
_atom_site_occupancy
_atom_site_attached_hydrogens
_atom_site_U_iso_or_equiv
K1 K1+ 2 a -0.18218(15) 0.40208(18) 0.24453(13) 1 0 0.0189(3) 
K2 K1+ 2 a 0.53715(15) -0.10604(18) 0.10280(13) 1 0 0.0186(3) 
Cr1 Cr6+ 2 a 0.51828(9) 0.43180(11) -0.03277(9) 1 0 0.01284(18) 
Cr2 Cr6+ 2 a 0.17134(10) 0.44328(11) 0.01327(9) 1 0 0.01418(17) 
Cr3 Cr6+ 2 a 0.18289(10) 0.10769(11) 0.24480(9) 1 0 0.01196(16) 
Cr4 Cr6+ 2 a -0.14713(9) -0.07133(12) 0.36963(9) 1 0 0.01249(17) 
O1 O2- 2 a 0.5276(5) 0.2597(6) 0.0691(5) 1 0 0.0269(10) 
O2 O2- 2 a 0.3431(5) 0.5592(5) 0.0063(5) 1 0 0.0161(8) 
O3 O2- 2 a 0.6639(5) 0.5616(5) 0.0006(5) 1 0 0.0189(8) 
O4 O2- 2 a 0.5104(5) 0.3757(7) -0.1998(5) 1 0 0.0293(11) 
O5 O2- 2 a 0.0276(5) 0.5770(6) -0.0043(5) 1 0 0.0266(11) 
O6 O2- 2 a 0.1642(5) 0.3017(6) -0.1148(5) 1 0 0.0263(10) 
O7 O2- 2 a 0.1608(5) 0.3304(6) 0.1782(4) 1 0 0.0193(9) 
O8 O2- 2 a 0.3379(5) 0.0952(6) 0.3427(5) 1 0 0.0222(9) 
O9 O2- 2 a 0.1982(5) -0.0274(6) 0.1164(4) 1 0 0.0232(9) 
O10 O2- 2 a -0.1339(5) -0.1544(6) 0.5295(5) 1 0 0.0266(10) 
O11 O2- 2 a -0.1635(5) -0.2270(6) 0.2508(5) 1 0 0.0256(10) 
O12 O2- 2 a 0.0251(5) 0.0658(5) 0.3416(4) 1 0 0.0166(8) 
O13 O2- 2 a -0.2953(5) 0.0606(5) 0.3511(5) 1 0 0.0210(9) 

loop_
_atom_site_aniso_label
_atom_site_aniso_type_symbol
_atom_site_aniso_U_11
_atom_site_aniso_U_22
_atom_site_aniso_U_33
_atom_site_aniso_U_12
_atom_site_aniso_U_13
_atom_site_aniso_U_23
K1 K1+ 0.0229(6) 0.0181(6) 0.0159(5) 0.0021(5) 0.0015(5) -0.0022(5)
K2 K1+ 0.0227(6) 0.0148(6) 0.0183(6) 0.0022(5) 0.0001(5) 0.0017(5)
Cr1 Cr6+ 0.0129(4) 0.0114(4) 0.0144(4) 0.0006(3) 0.0024(3) -0.0001(3)
Cr2 Cr6+ 0.0130(4) 0.0153(4) 0.0143(4) -0.0010(3) 0.0012(3) 0.0037(3)
Cr3 Cr6+ 0.0119(4) 0.0135(4) 0.0106(3) -0.0003(3) 0.0013(3) 0.0013(3)
Cr4 Cr6+ 0.0121(4) 0.0111(4) 0.0143(4) -0.0017(3) 0.0011(3) 0.0024(3)
O1 O2- 0.025(2) 0.016(2) 0.040(3) 0.0013(18) 0.0086(19) 0.0105(19)
O2 O2- 0.0168(18) 0.0135(18) 0.018(2) 0.0023(15) 0.0012(15) -0.0001(15)
O3 O2- 0.0153(19) 0.0191(19) 0.022(2) -0.0029(16) 0.0013(16) -0.0012(18)
O4 O2- 0.026(2) 0.040(3) 0.022(2) 0.002(2) 0.0025(18) -0.017(2)
O5 O2- 0.016(2) 0.032(3) 0.032(3) 0.0062(19) 0.0048(19) 0.011(2)
O6 O2- 0.029(2) 0.030(3) 0.020(2) -0.0108(19) 0.0014(17) -0.0029(18)
O7 O2- 0.024(2) 0.019(2) 0.0153(19) -0.0030(17) 0.0029(16) 0.0013(15)
O8 O2- 0.016(2) 0.028(2) 0.022(2) -0.0033(17) -0.0032(16) 0.0035(17)
O9 O2- 0.031(2) 0.023(2) 0.0165(19) 0.0010(18) 0.0025(17) 0.0001(17)
O10 O2- 0.018(2) 0.036(3) 0.025(2) -0.0046(19) 0.0005(18) 0.014(2)
O11 O2- 0.024(2) 0.020(2) 0.033(2) -0.0045(17) -0.0002(18) -0.010(2)
O12 O2- 0.020(2) 0.014(2) 0.0163(19) -0.0044(15) 0.0057(16) 0.0000(14)
O13 O2- 0.0159(19) 0.021(2) 0.027(2) 0.0039(16) 0.0046(17) 0.0000(17)
#End of data_171184-ICSD


