data_159549-ICSD
#?2014 by Fachinformationszentrum Karlsruhe, and the U.S. Secretary of 
#Commerce on behalf of the United States.  All rights reserved.
_database_code_ICSD                159549
_audit_creation_date               2008/08/01
_chemical_name_systematic          'Zinc Catena-silicate'
_chemical_formula_structural       'Zn (Si O3)'
_chemical_formula_sum              'O3 Si1 Zn1'
_chemical_name_mineral             Clinopyroxene
_publ_section_title
;
Model pyroxenes II: Structural variation as a function of tetrahedral 
rotation
;
loop_
_citation_id
_citation_journal_abbrev
_citation_year
_citation_journal_volume
_citation_page_first
_citation_page_last
_citation_journal_id_ASTM
primary 'American Mineralogist' 2004 89 614 628 AMMIAY
_publ_author_name                  'Thompson, R.M.;Downs, R.T.'
_cell_length_a                     9.755
_cell_length_b                     9.083
_cell_length_c                     5.244
_cell_angle_alpha                  90
_cell_angle_beta                   107.9
_cell_angle_gamma                  90
_cell_volume                       442.15
_cell_formula_units_Z              8
_symmetry_space_group_name_H-M     'C 1 2/c 1'
_symmetry_Int_Tables_number        15
loop_
_symmetry_equiv_pos_site_id
_symmetry_equiv_pos_as_xyz
  1	'x, -y, z+.5'
  2	'-x, -y, -z'
  3	'-x, y, -z+.5'
  4	'x, y, z'
  5	'x+.5, -y+.5, z+.5'
  6	'-x+.5, -y+.5, -z'
  7	'-x+.5, y+.5, -z+.5'
  8	'x+.5, y+.5, z'
loop_
_atom_type_symbol
_atom_type_oxidation_number
O2-	-2
Si4+	4
Zn2+	2
loop_
_atom_site_label
_atom_site_type_symbol
_atom_site_symmetry_multiplicity
_atom_site_Wyckoff_symbol
_atom_site_fract_x
_atom_site_fract_y
_atom_site_fract_z
_atom_site_occupancy
_atom_site_attached_hydrogens
Zn1 Zn2+ 4 e 0.00000 0.91667 0.25000 1. 0 
Zn2 Zn2+ 4 e 0.00000 0.25000 0.25000 1. 0 
Si1 Si4+ 8 f 0.30840 0.08333 0.25960 1. 0 
O1 O2- 8 f 0.13310 0.08333 0.15940 1. 0 
O2 O2- 8 f 0.36690 0.25000 0.34060 1. 0 
O3 O2- 8 f 0.36690 0.02380 0.01930 1. 0 

#End of data_159549-ICSD


