data_260254-ICSD
#?2014 by Fachinformationszentrum Karlsruhe, and the U.S. Secretary of 
#Commerce on behalf of the United States.  All rights reserved.
_database_code_ICSD                260254
_audit_creation_date               2009/08/01
_audit_update_record               2013/08/01
_chemical_name_systematic
;
Potassium Samarium Selenoarsenate (2/2/9/2)
;
_chemical_formula_structural       'K2 Sm2 As2 Se9'
_chemical_formula_sum              'As2 K2 Se9 Sm2'
_publ_section_title
;
K2 Ln2 As2 Se9 (Ln = Sm, Gd): The first quaternary rare-earth 
selenoarsenate compounds with a 3D framework containing chairlike As2 
Se4 units
;
loop_
_citation_id
_citation_journal_abbrev
_citation_year
_citation_journal_volume
_citation_journal_issue
_citation_page_first
_citation_page_last
_citation_journal_id_ASTM
primary 'Inorganic Chemistry' 2009 48 7 2729 2731 INOCAJ
_publ_author_name                  'Wu Yuan Dong;Bensch, W.'
_cell_length_a                     17.1739(11)
_cell_length_b                     8.4628(5)
_cell_length_c                     22.6963(15)
_cell_angle_alpha                  90.00
_cell_angle_beta                   90.00
_cell_angle_gamma                  90.00
_cell_volume                       3298.66
_cell_formula_units_Z              8
_symmetry_space_group_name_H-M     'P n m a'
_symmetry_Int_Tables_number        62
_refine_ls_R_factor_all            .0348
loop_
_symmetry_equiv_pos_site_id
_symmetry_equiv_pos_as_xyz
  1	'x+.5, y, -z+.5'
  2	'x, -y+.5, z'
  3	'-x+.5, y+.5, z+.5'
  4	'-x, -y, -z'
  5	'-x+.5, -y, z+.5'
  6	'-x, y+.5, -z'
  7	'x+.5, -y+.5, -z+.5'
  8	'x, y, z'
loop_
_atom_type_symbol
_atom_type_oxidation_number
As5+	5
K1+	1
Se2-	-2
Sm3+	3
loop_
_atom_site_label
_atom_site_type_symbol
_atom_site_symmetry_multiplicity
_atom_site_Wyckoff_symbol
_atom_site_fract_x
_atom_site_fract_y
_atom_site_fract_z
_atom_site_occupancy
_atom_site_attached_hydrogens
_atom_site_U_iso_or_equiv
Sm1 Sm3+ 8 d 0.25146(2) 0.50042(5) 0.068461(16) 1 0 0.00479(10) 
Sm2 Sm3+ 8 d 0.32760(2) 0.00351(5) 0.325245(17) 1 0 0.00481(10) 
As1 As5+ 4 c 0.06836(6) 0.2500 0.65292(5) 1 0 0.0071(2) 
As2 As5+ 4 c 0.37088(6) 0.2500 0.88484(5) 1 0 0.0080(2) 
As3 As5+ 4 c 0.15874(6) 0.2500 0.40297(5) 1 0 0.0065(2) 
As4 As5+ 4 c 0.39429(6) 0.2500 0.16503(5) 1 0 0.0069(2) 
Se1 Se2- 4 c 0.12594(6) 0.2500 0.55511(5) 1 0 0.0051(2) 
Se2 Se2- 8 d 0.03138(4) 0.54242(10) 0.35925(4) 1 0 0.00837(16) 
Se3 Se2- 4 c 0.29098(6) 0.2500 0.79668(5) 1 0 0.0059(2) 
Se4 Se2- 8 d 0.22931(4) 0.01818(9) 0.43492(3) 1 0 0.00628(16) 
Se5 Se2- 4 c 0.20629(6) 0.2500 0.30259(5) 1 0 0.0065(2) 
Se6 Se2- 8 d 0.31681(4) 0.02310(10) 0.18966(3) 1 0 0.00687(16) 
Se7 Se2- 4 c 0.37229(6) 0.2500 0.05885(5) 1 0 0.0060(2) 
Se8 Se2- 4 c 0.14992(6) 0.2500 0.01773(5) 1 0 0.0101(2) 
Se9 Se2- 4 c 0.15630(7) 0.2500 0.12213(5) 1 0 0.0105(2) 
Se10 Se2- 4 c 0.44524(6) 0.2500 0.29323(5) 1 0 0.0069(2) 
Se11 Se2- 4 c 0.40842(6) 0.2500 0.39482(5) 1 0 0.0087(2) 
Se12 Se2- 4 c 0.35789(6) 0.2500 0.53312(5) 1 0 0.0088(2) 
Se13 Se2- 4 c 0.33036(6) 0.2500 0.63563(5) 1 0 0.0088(2) 
Se14 Se2- 4 c 0.06523(6) 0.2500 0.78760(5) 1 0 0.0073(2) 
Se15 Se2- 4 c 0.58737(6) 0.2500 0.60808(5) 1 0 0.0085(2) 
K1 K1+ 8 d 0.09106(10) 0.0011(2) 0.22385(8) 1 0 0.0118(3) 
K2 K1+ 4 b 0.0000 0.0000 0.5000 1 0 0.0153(5) 
K3 K1+ 4 a 0.0000 0.0000 0.0000 1 0 0.0186(6) 

loop_
_atom_site_aniso_label
_atom_site_aniso_type_symbol
_atom_site_aniso_U_11
_atom_site_aniso_U_22
_atom_site_aniso_U_33
_atom_site_aniso_U_12
_atom_site_aniso_U_13
_atom_site_aniso_U_23
Sm1 Sm3+ 0.00814(18) 0.0026(2) 0.00367(18) 0.00005(13) -0.00006(12) 
-0.00005(13)
Sm2 Sm3+ 0.00842(18) 0.0020(2) 0.00406(18) -0.00022(13) -0.00033(12) 
-0.00010(14)
As1 As5+ 0.0106(5) 0.0064(6) 0.0044(5) 0.000 0.0015(4) 0.000
As2 As5+ 0.0109(5) 0.0066(6) 0.0066(5) 0.000 -0.0014(4) 0.000
As3 As5+ 0.0083(5) 0.0052(6) 0.0060(5) 0.000 0.0005(4) 0.000
As4 As5+ 0.0096(5) 0.0048(6) 0.0064(5) 0.000 -0.0017(4) 0.000
Se1 Se2- 0.0073(4) 0.0042(5) 0.0038(5) 0.000 0.0013(4) 0.000
Se2 Se2- 0.0092(3) 0.0039(4) 0.0120(4) 0.0000(3) 0.0025(3) -0.0003(3)
Se3 Se2- 0.0082(5) 0.0039(5) 0.0055(5) 0.000 0.0000(4) 0.000
Se4 Se2- 0.0121(3) 0.0041(4) 0.0026(3) 0.0000(3) -0.0001(3) 0.0002(3)
Se5 Se2- 0.0101(5) 0.0044(5) 0.0049(5) 0.000 -0.0011(4) 0.000
Se6 Se2- 0.0132(3) 0.0041(4) 0.0033(3) -0.0014(3) -0.0016(3) 0.0002(3)
Se7 Se2- 0.0088(4) 0.0039(5) 0.0053(5) 0.000 0.0019(4) 0.000
Se8 Se2- 0.0127(5) 0.0074(6) 0.0102(5) 0.000 -0.0058(4) 0.000
Se9 Se2- 0.0163(5) 0.0060(6) 0.0091(5) 0.000 0.0069(4) 0.000
Se10 Se2- 0.0085(4) 0.0057(6) 0.0065(5) 0.000 0.0005(4) 0.000
Se11 Se2- 0.0141(5) 0.0071(6) 0.0047(5) 0.000 -0.0021(4) 0.000
Se12 Se2- 0.0109(5) 0.0063(6) 0.0091(5) 0.000 0.0034(4) 0.000
Se13 Se2- 0.0149(5) 0.0052(6) 0.0064(5) 0.000 -0.0035(4) 0.000
Se14 Se2- 0.0111(5) 0.0052(5) 0.0055(5) 0.000 -0.0027(4) 0.000
Se15 Se2- 0.0142(5) 0.0071(6) 0.0040(5) 0.000 -0.0022(4) 0.000
K1 K1+ 0.0151(7) 0.0093(9) 0.0110(8) 0.0014(6) 0.0012(6) 0.0002(6)
K2 K1+ 0.0210(12) 0.0101(13) 0.0148(13) 0.0023(10) -0.0089(10) -0.0026(10)
K3 K1+ 0.0114(10) 0.0099(14) 0.0346(17) 0.0014(10) 0.0018(10) 0.0021(11)
#End of data_260254-ICSD


