data_160461-ICSD
#?2014 by Fachinformationszentrum Karlsruhe, and the U.S. Secretary of 
#Commerce on behalf of the United States.  All rights reserved.
_database_code_ICSD                160461
_audit_creation_date               2008/08/01
_chemical_name_systematic          'Tetracalcium Diphosphate(V)'
_chemical_formula_structural       'Ca4 (P2 O9)'
_chemical_formula_sum              'Ca4 O9 P2'
_publ_section_title
;
Calcium phosphates: first-principles calculations vs. solid-state NMR 
experiments
;
loop_
_citation_id
_citation_journal_abbrev
_citation_year
_citation_journal_volume
_citation_page_first
_citation_page_last
_citation_journal_id_ASTM
primary 'Comptes Rendus Chimie' 2008 11 398 406 CRCOCR
_publ_author_name
;
Pourpoint, F.;Gervais, C.;Bonhomme-Coury, L.;Mauri, F.;Alonso, 
B.;Bonhomme, C.
;
_cell_length_a                     7.023
_cell_length_b                     11.986
_cell_length_c                     9.473
_cell_angle_alpha                  90.
_cell_angle_beta                   90.
_cell_angle_gamma                  90.
_cell_volume                       797.42
_cell_formula_units_Z              4
_symmetry_space_group_name_H-M     'P 1 21 1'
_symmetry_Int_Tables_number        4
loop_
_symmetry_equiv_pos_site_id
_symmetry_equiv_pos_as_xyz
  1	'-x, y+.5, -z'
  2	'x, y, z'
loop_
_atom_type_symbol
_atom_type_oxidation_number
Ca2+	2
O2-	-2
P5+	5
loop_
_atom_site_label
_atom_site_type_symbol
_atom_site_symmetry_multiplicity
_atom_site_Wyckoff_symbol
_atom_site_fract_x
_atom_site_fract_y
_atom_site_fract_z
_atom_site_occupancy
_atom_site_attached_hydrogens
Ca1 Ca2+ 2 a 0.03135 0.34484 0.89371 1. 0 
Ca2 Ca2+ 2 a 0.53208 0.29963 0.89367 1. 0 
Ca3 Ca2+ 2 a 0.76779 0.30400 0.53484 1. 0 
Ca4 Ca2+ 2 a 0.26928 0.29958 0.25319 1. 0 
Ca5 Ca2+ 2 a 0.74235 0.10865 0.25339 1. 0 
Ca6 Ca2+ 2 a 0.25124 0.07842 0.01020 1. 0 
Ca7 Ca2+ 2 a 0.98997 0.06827 0.63431 1. 0 
Ca8 Ca2+ 2 a 0.51321 0.05225 0.58967 1. 0 
O1 O2- 2 a 0.73015 0.51977 0.22758 1. 0 
O2 O2- 2 a 0.60829 0.32156 0.28695 1. 0 
O3 O2- 2 a 0.95391 0.36288 0.29568 1. 0 
O4 O2- 2 a 0.77015 0.36447 0.05510 1. 0 
O5 O2- 2 a 0.28916 0.41086 0.74965 1. 0 
O6 O2- 2 a 0.09421 0.26407 0.62447 1. 0 
O7 O2- 2 a 0.45747 0.24245 0.65781 1. 0 
O8 O2- 2 a 0.32873 0.38221 0.48221 1. 0 
O9 O2- 2 a 0.21655 0.00430 0.47360 1. 0 
O10 O2- 2 a 0.07538 0.11672 0.26134 1. 0 
O11 O2- 2 a 0.42032 0.10987 0.30057 1. 0 
O12 O2- 2 a 0.24497 0.93066 0.22751 1. 0 
O13 O2- 2 a 0.58489 0.10221 0.00048 1. 0 
O14 O2- 2 a 0.83303 0.18754 0.84003 1. 0 
O15 O2- 2 a 0.71748 0.99687 0.78546 1. 0 
O16 O2- 2 a 0.92102 0.03030 0.01000 1. 0 
O17 O2- 2 a 0.26471 0.26375 0.01636 1. 0 
O18 O2- 2 a 0.76686 0.12650 0.48793 1. 0 
P1 P5+ 2 a 0.76573 0.39035 0.21539 1. 0 
P2 P5+ 2 a 0.28964 0.32559 0.62414 1. 0 
P3 P5+ 2 a 0.23669 0.04086 0.31668 1. 0 
P4 P5+ 2 a 0.76323 0.07675 0.91023 1. 0 

#End of data_160461-ICSD


