data_166625-ICSD
#?2014 by Fachinformationszentrum Karlsruhe, and the U.S. Secretary of 
#Commerce on behalf of the United States.  All rights reserved.
_database_code_ICSD                166625
_audit_creation_date               2010/08/01
_chemical_name_systematic
;
Tetrasodium Tetratitanium Bis(disilicate) Tetrasilicate Tetraoxide
;
_chemical_formula_structural       'Na4 Ti4 (Si2 O6)2 (Si4 O10) O4'
_chemical_formula_sum              'Na4 O26 Si8 Ti4'
_chemical_name_mineral             Vinogradovite
_publ_section_title
;
Crystal structure of vinogradovite Na4 Ti4 (Si2 O6)2 (Si4 O10) O4 * 
n(H2 O)
;
loop_
_citation_id
_citation_journal_abbrev
_citation_year
_citation_journal_volume
_citation_journal_issue
_citation_page_first
_citation_page_last
_citation_journal_id_ASTM
primary 'Doklady Akademii Nauk SSSR' 1967 177 4 832 834 DANKAS
_publ_author_name
;
Rastsvetaeva, R.K.;Simonov, V.I.;Belov, N.V.
;
_cell_length_a                     5.35
_cell_length_b                     8.56
_cell_length_c                     24.22
_cell_angle_alpha                  90.
_cell_angle_beta                   101.
_cell_angle_gamma                  90.
_cell_volume                       1088.8
_cell_formula_units_Z              2
_symmetry_space_group_name_H-M     'A 1 2/a 1'
_symmetry_Int_Tables_number        15
_refine_ls_R_factor_all            .166
loop_
_symmetry_equiv_pos_site_id
_symmetry_equiv_pos_as_xyz
  1	'-x+.5, y, -z'
  2	'-x, -y, -z'
  3	'x+.5, -y, z'
  4	'x, y, z'
  5	'-x+.5, y+.5, -z+.5'
  6	'-x, -y+.5, -z+.5'
  7	'x+.5, -y+.5, z+.5'
  8	'x, y+.5, z+.5'
loop_
_atom_type_symbol
_atom_type_oxidation_number
Na1+	1
O2-	-2
Si4+	4
Ti4+	4
loop_
_atom_site_label
_atom_site_type_symbol
_atom_site_symmetry_multiplicity
_atom_site_Wyckoff_symbol
_atom_site_fract_x
_atom_site_fract_y
_atom_site_fract_z
_atom_site_occupancy
_atom_site_attached_hydrogens
Ti1 Ti4+ 8 f 0.711 0.096 0.349 1. 0 
Si1 Si4+ 8 f 0.274 0.090 0.233 1. 0 
Si2 Si4+ 8 f 0.272 0.100 0.065 1. 0 
Na1 Na1+ 8 f 0.803 0.192 0.149 1. 0 
O1 O2- 4 e 0.250 0.160 0 1. 0 
O2 O2- 8 f 0.997 0.042 0.079 1. 0 
O3 O2- 8 f 0.023 0.013 0.208 1. 0 
O4 O2- 8 f 0.042 0.068 0.385 1. 0 
O5 O2- 8 f 0.782 0.241 0.292 1. 0 
O6 O2- 8 f 0.332 0.083 0.300 1. 0 
O7 O2- 8 f 0.625 0.250 0.394 1. 0 

#End of data_166625-ICSD


