data_250006-ICSD
#?2014 by Fachinformationszentrum Karlsruhe, and the U.S. Secretary of 
#Commerce on behalf of the United States.  All rights reserved.
_database_code_ICSD                250006
_audit_creation_date               2003/10/01
_audit_update_record               2013/08/01
_chemical_name_systematic
;
Sodium Tetrairon Triiron(III) Hexakis(phosphate(V))
;
_chemical_formula_structural       'Na Fe4 Fe3 (P O4)6'
_chemical_formula_sum              'Fe7 Na1 O24 P6'
_publ_section_title
;
Synthesis and crystal structure of new phosphate Na Fe4 Fe3 (P O4)6
;
loop_
_citation_id
_citation_journal_abbrev
_citation_year
_citation_journal_volume
_citation_page_first
_citation_page_last
_citation_journal_id_ASTM
primary Kristallografiya 2003 48 54 58 KRISAJ
2 'Crystallography Reports' 2003 48 49 53 CYSTE3
_publ_author_name
;
Belokoneva, E.L.;Ruchkina, E.A.;Dimitrova, O.V.
;
_cell_length_a                     6.495(4)
_cell_length_b                     9.718(8)
_cell_length_c                     8.014(5)
_cell_angle_alpha                  115.55(5)
_cell_angle_beta                   101.55(5)
_cell_angle_gamma                  101.12(5)
_cell_volume                       424.23
_cell_formula_units_Z              1
_symmetry_space_group_name_H-M     'P -1'
_symmetry_Int_Tables_number        2
_refine_ls_R_factor_all            .0492
loop_
_symmetry_equiv_pos_site_id
_symmetry_equiv_pos_as_xyz
  1	'-x, -y, -z'
  2	'x, y, z'
loop_
_atom_type_symbol
_atom_type_oxidation_number
Fe2+	2
Fe2.5+	2.5
Fe3+	3
Na1+	1
O2-	-2
P5+	5
loop_
_atom_site_label
_atom_site_type_symbol
_atom_site_symmetry_multiplicity
_atom_site_Wyckoff_symbol
_atom_site_fract_x
_atom_site_fract_y
_atom_site_fract_z
_atom_site_occupancy
_atom_site_attached_hydrogens
_atom_site_B_iso_or_equiv
Na1 Na1+ 1 d 0.5 0.0 0.0 1. 0 4.6(3) 
Fe1 Fe2+ 1 a 0.0 0.0 0.0 1. 0 0.66(3) 
Fe2 Fe2+ 2 i 0.9936(1) 0.71407(9) 0.5255(1) 1. 0 0.64(2) 
Fe3 Fe2.5+ 2 i 0.5205(10) 0.47556(9) 0.1942(1) 1. 0 0.69(2) 
Fe4 Fe3+ 2 i 0.2740(1) 0.88843(9) 0.3444(1) 1. 0 0.56(2) 
P1 P5+ 2 i 0.5395(2) 0.7662(1) 0.6196(2) 1. 0 0.38(3) 
P2 P5+ 2 i 0.7420(2) 0.8323(2) 0.2423(2) 1. 0 0.45(3) 
P3 P5+ 2 i 0.0336(2) 0.6274(2) 0.8607(2) 1. 0 0.60(4) 
O1 O2- 2 i 0.6096(7) 0.9139(5) 0.3752(6) 1. 0 0.8(1) 
O2 O2- 2 i 0.7971(7) 0.8664(5) 0.0863(6) 1. 0 1.0(1) 
O3 O2- 2 i 0.9640(7) 0.2415(5) 0.1969(6) 1. 0 1.0(1) 
O4 O2- 2 i 0.9576(6) 0.8342(5) 0.3682(6) 1. 0 0.8(1) 
O5 O2- 2 i 0.7941(8) 0.5347(5) 0.8252(8) 1. 0 1.8(1) 
O6 O2- 2 i 0.8639(7) 0.4940(5) 0.2616(6) 1. 0 1.1(1) 
O7 O2- 2 i 0.4087(7) 0.3468(4) 0.8956(6) 1. 0 0.8(1) 
O8 O2- 2 i 0.1659(8) 0.7055(6) 0.0759(7) 1. 0 1.7(2) 
O9 O2- 2 i 0.6830(6) 0.2299(4) 0.4914(5) 1. 0 0.6(1) 
O10 O2- 2 i 0.2929(6) 0.0608(4) 0.2530(5) 1. 0 0.7(1) 
O11 O2- 2 i 0.5041(7) 0.2951(5) 0.2407(6) 1. 0 0.9(1) 
O12 O2- 2 i 0.3603(6) 0.3418(5) 0.5256(6) 1. 0 0.7(1) 

#End of data_250006-ICSD


