data_155495-ICSD
#?2014 by Fachinformationszentrum Karlsruhe, and the U.S. Secretary of 
#Commerce on behalf of the United States.  All rights reserved.
_database_code_ICSD                155495
_audit_creation_date               2007/08/01
_audit_update_record               2013/02/01
_chemical_name_systematic          'Potassium Osmo(V)osmate'
_chemical_formula_structural       'K (Os2 O6)'
_chemical_formula_sum              'K1 O6 Os2'
_publ_section_title
;
Crystal growth, structure and superconducting properties of the beta-
pyrochlore K Os2 O6
;
loop_
_citation_id
_citation_journal_abbrev
_citation_year
_citation_journal_volume
_citation_page_first
_citation_page_last
_citation_journal_id_ASTM
primary 'Physical Review, Serie 3. B - Condensed Matter (18,1978-)'
 2006 73 144506-1 144506-9 PRBMDO
_publ_author_name
;
Schuck, G.;Kazakov, S.M.;Rogacki, K.;Zhigadlo, N.D.;Karpinski, J.
;
_cell_length_a                     10.0968(9)
_cell_length_b                     10.0968(9)
_cell_length_c                     10.0968(9)
_cell_angle_alpha                  90.
_cell_angle_beta                   90.
_cell_angle_gamma                  90.
_cell_volume                       1029.32
_cell_formula_units_Z              8
_symmetry_space_group_name_H-M     'F -4 3 m'
_symmetry_Int_Tables_number        216
_refine_ls_R_factor_all            .027
loop_
_symmetry_equiv_pos_site_id
_symmetry_equiv_pos_as_xyz
  1	'-z, -y, x'
  2	'-y, -x, z'
  3	'-x, -z, y'
  4	'-z, -x, y'
  5	'-y, -z, x'
  6	'-x, -y, z'
  7	'-z, y, -x'
  8	'-y, x, -z'
  9	'-x, z, -y'
 10	'-z, x, -y'
 11	'-y, z, -x'
 12	'-x, y, -z'
 13	'z, -y, -x'
 14	'y, -x, -z'
 15	'x, -z, -y'
 16	'z, -x, -y'
 17	'y, -z, -x'
 18	'x, -y, -z'
 19	'z, y, x'
 20	'y, x, z'
 21	'x, z, y'
 22	'z, x, y'
 23	'y, z, x'
 24	'x, y, z'
 25	'-z, -y+.5, x+.5'
 26	'-z+.5, -y, x+.5'
 27	'-z+.5, -y+.5, x'
 28	'-y, -x+.5, z+.5'
 29	'-y+.5, -x, z+.5'
 30	'-y+.5, -x+.5, z'
 31	'-x, -z+.5, y+.5'
 32	'-x+.5, -z, y+.5'
 33	'-x+.5, -z+.5, y'
 34	'-z, -x+.5, y+.5'
 35	'-z+.5, -x, y+.5'
 36	'-z+.5, -x+.5, y'
 37	'-y, -z+.5, x+.5'
 38	'-y+.5, -z, x+.5'
 39	'-y+.5, -z+.5, x'
 40	'-x, -y+.5, z+.5'
 41	'-x+.5, -y, z+.5'
 42	'-x+.5, -y+.5, z'
 43	'-z, y+.5, -x+.5'
 44	'-z+.5, y, -x+.5'
 45	'-z+.5, y+.5, -x'
 46	'-y, x+.5, -z+.5'
 47	'-y+.5, x, -z+.5'
 48	'-y+.5, x+.5, -z'
 49	'-x, z+.5, -y+.5'
 50	'-x+.5, z, -y+.5'
 51	'-x+.5, z+.5, -y'
 52	'-z, x+.5, -y+.5'
 53	'-z+.5, x, -y+.5'
 54	'-z+.5, x+.5, -y'
 55	'-y, z+.5, -x+.5'
 56	'-y+.5, z, -x+.5'
 57	'-y+.5, z+.5, -x'
 58	'-x, y+.5, -z+.5'
 59	'-x+.5, y, -z+.5'
 60	'-x+.5, y+.5, -z'
 61	'z, -y+.5, -x+.5'
 62	'z+.5, -y, -x+.5'
 63	'z+.5, -y+.5, -x'
 64	'y, -x+.5, -z+.5'
 65	'y+.5, -x, -z+.5'
 66	'y+.5, -x+.5, -z'
 67	'x, -z+.5, -y+.5'
 68	'x+.5, -z, -y+.5'
 69	'x+.5, -z+.5, -y'
 70	'z, -x+.5, -y+.5'
 71	'z+.5, -x, -y+.5'
 72	'z+.5, -x+.5, -y'
 73	'y, -z+.5, -x+.5'
 74	'y+.5, -z, -x+.5'
 75	'y+.5, -z+.5, -x'
 76	'x, -y+.5, -z+.5'
 77	'x+.5, -y, -z+.5'
 78	'x+.5, -y+.5, -z'
 79	'z, y+.5, x+.5'
 80	'z+.5, y, x+.5'
 81	'z+.5, y+.5, x'
 82	'y, x+.5, z+.5'
 83	'y+.5, x, z+.5'
 84	'y+.5, x+.5, z'
 85	'x, z+.5, y+.5'
 86	'x+.5, z, y+.5'
 87	'x+.5, z+.5, y'
 88	'z, x+.5, y+.5'
 89	'z+.5, x, y+.5'
 90	'z+.5, x+.5, y'
 91	'y, z+.5, x+.5'
 92	'y+.5, z, x+.5'
 93	'y+.5, z+.5, x'
 94	'x, y+.5, z+.5'
 95	'x+.5, y, z+.5'
 96	'x+.5, y+.5, z'
loop_
_atom_type_symbol
_atom_type_oxidation_number
K1+	1
O2-	-2
Os5.5+	5.5
loop_
_atom_site_label
_atom_site_type_symbol
_atom_site_symmetry_multiplicity
_atom_site_Wyckoff_symbol
_atom_site_fract_x
_atom_site_fract_y
_atom_site_fract_z
_atom_site_occupancy
_atom_site_attached_hydrogens
_atom_site_U_iso_or_equiv
Os1 Os5.5+ 16 e 0.8758(1) 0.8758(1) 0.8758(1) 1. 0 0.0010(1) 
K1 K1+ 4 c 0.250 0.250 0.250 1. 0 0.063(5) 
K2 K1+ 4 b 0.5 0.5 0.5 1. 0 0.062(4) 
O1 O2- 24 f 0.197(1) 0 0 1. 0 0.005(1) 
O2 O2- 24 g 0.561(1) 0.250 0.250 1. 0 0.005(1) 

loop_
_atom_site_aniso_label
_atom_site_aniso_type_symbol
_atom_site_aniso_U_11
_atom_site_aniso_U_22
_atom_site_aniso_U_33
_atom_site_aniso_U_12
_atom_site_aniso_U_13
_atom_site_aniso_U_23
K1 K1+ 0.063(5) 0.063(5) 0.063(5) 0. 0. 0.
K2 K1+ 0.062(4) 0.062(4) 0.062(4) 0. 0. 0.
#End of data_155495-ICSD


