data_95986-ICSD
#?2014 by Fachinformationszentrum Karlsruhe, and the U.S. Secretary of 
#Commerce on behalf of the United States.  All rights reserved.
_database_code_ICSD                95986
_audit_creation_date               2004/04/01
_chemical_name_systematic          'Dicalcium Mangano(III)aluminate'
_chemical_formula_structural       'Ca2 (Mn Al O5)'
_chemical_formula_sum              'Al1 Ca2 Mn1 O5'
_publ_section_title
;
Structures and magnetic ordering in the brownmillerite phases, Sr2 Mn 
Ga O5 and Ca2 Mn Al O5
;
loop_
_citation_id
_citation_journal_abbrev
_citation_year
_citation_journal_volume
_citation_page_first
_citation_page_last
_citation_journal_id_ASTM
primary 'Journal of Materials Chemistry' 2002 12 978 982 JMACEP
_publ_author_name
;
Wright, A.J.;Palmer, H.M.;Anderson, P.A.;Greaves, C.
;
_cell_length_a                     5.46258(9)
_cell_length_b                     14.9533(3)
_cell_length_c                     5.23135(8)
_cell_angle_alpha                  90
_cell_angle_beta                   90
_cell_angle_gamma                  90
_cell_volume                       427.32
_cell_formula_units_Z              4
_symmetry_space_group_name_H-M     'I b m 2'
_symmetry_Int_Tables_number        46
_refine_ls_R_factor_all            .0182
loop_
_symmetry_equiv_pos_site_id
_symmetry_equiv_pos_as_xyz
  1	'-x, y+.5, z'
  2	'x, -y+.5, z'
  3	'-x, -y, z'
  4	'x, y, z'
  5	'-x+.5, y, z+.5'
  6	'x+.5, -y, z+.5'
  7	'-x+.5, -y+.5, z+.5'
  8	'x+.5, y+.5, z+.5'
loop_
_atom_type_symbol
_atom_type_oxidation_number
Al3+	3
Ca2+	2
Mn3+	3
O2-	-2
loop_
_atom_site_label
_atom_site_type_symbol
_atom_site_symmetry_multiplicity
_atom_site_Wyckoff_symbol
_atom_site_fract_x
_atom_site_fract_y
_atom_site_fract_z
_atom_site_occupancy
_atom_site_attached_hydrogens
_atom_site_U_iso_or_equiv
Ca1 Ca2+ 8 c 0.5266(2) 0.11181(6) 0.0069(2) 1. 0 0.0051(2) 
Mn1 Mn3+ 4 a 0 0 0 1. 0 0.0063(3) 
Al1 Al3+ 4 b 0.0732(3) 0.250 0.0415(3) 1. 0 0.0024(3) 
O1 O2- 8 c 0.2479(2) 0.01151(5) 0.2496(2) 1. 0 0.0038(1) 
O2 O2- 8 c -0.0664(1) 0.14807(5) -0.0290(2) 1. 0 0.0062(2) 
O3 O2- 4 b 0.3620(2) 0.250 0.8785(2) 1. 0 0.0047(2) 

#End of data_95986-ICSD


