data_48111-ICSD
#?2014 by Fachinformationszentrum Karlsruhe, and the U.S. Secretary of 
#Commerce on behalf of the United States.  All rights reserved.
_database_code_ICSD                48111
_audit_creation_date               1984/12/31
_chemical_name_systematic
;
Dicesium Magnesium Bis(chromate) Hexahydrate
;
_chemical_formula_structural       'Cs2 Mg (Cr O4)2 (H2 O)6'
_chemical_formula_sum              'H12 Cr2 Cs2 Mg1 O14'
_publ_section_title
;
Discesium Magnesium Bis(chromate) Hexahydrate; Cs2 Mg (Cr O4)2 (H2 
O)6
;
loop_
_citation_id
_citation_journal_abbrev
_citation_year
_citation_journal_volume
_citation_page_first
_citation_page_last
_citation_journal_id_ASTM
primary 'Acta Crystallographica, Section C: Crystal Structure Communications'
 1984 40 14 15 ACSCEE
_publ_author_name                  'Montgomery, H.'
_cell_length_a                     9.621(5)
_cell_length_b                     12.968(5)
_cell_length_c                     6.375(3)
_cell_angle_alpha                  90.
_cell_angle_beta                   106.17(4)
_cell_angle_gamma                  90.
_cell_volume                       763.91
_cell_formula_units_Z              2
_symmetry_space_group_name_H-M     'P 1 21/a 1'
_symmetry_Int_Tables_number        14
_refine_ls_R_factor_all            .069
loop_
_symmetry_equiv_pos_site_id
_symmetry_equiv_pos_as_xyz
  1	'x+.5, -y+.5, z'
  2	'-x, -y, -z'
  3	'-x+.5, y+.5, -z'
  4	'x, y, z'
loop_
_atom_type_symbol
_atom_type_oxidation_number
Cr6+	6
Cs1+	1
H1+	1
Mg2+	2
O2-	-2
loop_
_atom_site_label
_atom_site_type_symbol
_atom_site_symmetry_multiplicity
_atom_site_Wyckoff_symbol
_atom_site_fract_x
_atom_site_fract_y
_atom_site_fract_z
_atom_site_occupancy
_atom_site_attached_hydrogens
_atom_site_B_iso_or_equiv
Mg1 Mg2+ 2 a 0 0 0 1. 0 0 
Cr1 Cr6+ 4 e 0.3928(1) 0.1461(1) 0.7416(2) 1. 0 0 
Cs1 Cs1+ 4 e 0.12120(5) 0.35430(5) 0.3462(1) 1. 0 0 
O1 O2- 4 e 0.4111(6) 0.2438(4) 0.5863(8) 1. 0 0 
O2 O2- 4 e 0.5448(5) 0.0796(4) 0.8080(9) 1. 0 0 
O3 O2- 4 e 0.2617(5) 0.0709(4) 0.5982(8) 1. 0 0 
O4 O2- 4 e 0.3549(6) 0.1885(4) 0.9640(7) 1. 0 0 
O5 O2- 4 e 0.1533(5) 0.1093(4) 0.1620(8) 1. 0 0 
O6 O2- 4 e -.1655(5) 0.1030(4) 0.0102(9) 1. 0 0 
O7 O2- 4 e -.0069(5) -.0623(4) 0.2936(8) 1. 0 0 
H1 H1+ 4 e 0.172(16) 0.087(10) 0.256(22) 1. 0 3.6(2) 
H2 H1+ 4 e 0.230(16) 0.132(8) 0.086(23) 1. 0 3.1(2) 
H3 H1+ 4 e -.249(10) 0.108(7) -.072(15) 1. 0 3.1(2) 
H4 H1+ 4 e -.144(31) 0.152(14) -.101(46) 1. 0 13.0(3) 
H5 H1+ 4 e -.075(10) -.060(6) 0.311(14) 1. 0 4.1(2) 
H6 H1+ 4 e 0.018(7) -.119(5) 0.362(10) 1. 0 3.2(2) 

#End of data_48111-ICSD


