data_28059-ICSD
#?2014 by Fachinformationszentrum Karlsruhe, and the U.S. Secretary of 
#Commerce on behalf of the United States.  All rights reserved.
_database_code_ICSD                28059
_audit_creation_date               1980/01/01
_audit_update_record               1998/06/29
_chemical_name_systematic
;
Calcium Bis(nitrate(V)) Tetrahydrate
;
_chemical_formula_structural       'Ca (N O3)2 (H2 O)4'
_chemical_formula_sum              'H8 Ca1 N2 O10'
_chemical_name_mineral             Nitrocalcite
_publ_section_title
;
A neutron diffraction study of Ca (N O3)2 (H2 O)4
;
loop_
_citation_id
_citation_journal_abbrev
_citation_year
_citation_journal_volume
_citation_page_first
_citation_page_last
_citation_journal_id_ASTM
primary
;
Univerzitet (Novi Sad), Prirodno-Matematicki Fakultet: Zbornik radova 
Prirodno-Matematickog Fakulteta.Ser. za biologijudat
;
 1975 5 47 63 ZBRNSI
_publ_author_name
;
Ribar, B.;Prelesnik, B.;Herak, R.;Beljicka, P.;Murisic, L.;Gagic, S.
;
_cell_length_a                     6.277(7)
_cell_length_b                     9.157(9)
_cell_length_c                     14.484(10)
_cell_angle_alpha                  90.
_cell_angle_beta                   98.6(2)
_cell_angle_gamma                  90.
_cell_volume                       823.16
_cell_formula_units_Z              4
_symmetry_space_group_name_H-M     'P 1 21/n 1'
_symmetry_Int_Tables_number        14
_refine_ls_R_factor_all            .196
loop_
_symmetry_equiv_pos_site_id
_symmetry_equiv_pos_as_xyz
  1	'-x+.5, y+.5, -z+.5'
  2	'-x, -y, -z'
  3	'x+.5, -y+.5, z+.5'
  4	'x, y, z'
loop_
_atom_type_symbol
_atom_type_oxidation_number
Ca2+	2
H1+	1
N5+	5
O2-	-2
loop_
_atom_site_label
_atom_site_type_symbol
_atom_site_symmetry_multiplicity
_atom_site_Wyckoff_symbol
_atom_site_fract_x
_atom_site_fract_y
_atom_site_fract_z
_atom_site_occupancy
_atom_site_attached_hydrogens
_atom_site_B_iso_or_equiv
Ca1 Ca2+ 4 e 0.0405(20) 0.0868(13) 0.3683(8) 1. 0 3.5 
N1 N5+ 4 e 0.0691(11) 0.2338(8) 0.5941(4) 1. 0 3.9 
N2 N5+ 4 e 0.0988(12) 0.1278(8) 0.1692(5) 1. 0 4. 
O1 O2- 4 e 0.0208(23) 0.2142(15) 0.6700(9) 1. 0 4.7 
O2 O2- 4 e 0.0744(22) 0.1221(14) 0.5420(8) 1. 0 4.5 
O3 O2- 4 e 0.1125(24) 0.3510(16) 0.5685(9) 1. 0 5.1 
O4 O2- 4 e 0.0219(24) 0.2282(16) 0.2117(10) 1. 0 5.2 
O5 O2- 4 e 0.1058(28) 0.1369(18) 0.0875(11) 1. 0 5.8 
O6 O2- 4 e 0.1600(23) 0.0164(15) 0.2160(9) 1. 0 4.9 
O7 O2- 4 e 0.1790(22) 0.4610(16) 0.7798(9) 1. 0 4.5 
O8 O2- 4 e 0.1182(24) 0.4613(16) 0.0816(10) 1. 0 4.8 
O9 O2- 4 e 0.3198(25) 0.2793(18) 0.3974(11) 1. 0 5.4 
O10 O2- 4 e 0.3073(29) 0.1970(19) 0.8865(11) 1. 0 5.7 
H1 H1+ 4 e 0.117(6) 0.397(4) 0.747(2) 1. 0 7.5 
H2 H1+ 4 e 0.329(6) 0.059(7) 0.760(4) 1. 0 13. 
H3 H1+ 4 e 0.117(6) 0.357(4) 0.090(2) 1. 0 7.3 
H4 H1+ 4 e 0.024(8) 0.485(5) 0.032(3) 1. 0 9. 
H5 H1+ 4 e 0.324(4) 0.364(3) 0.360(2) 1. 0 6.1 
H6 H1+ 4 e 0.312(6) 0.324(4) 0.460(2) 1. 0 7.7 
H7 H1+ 4 e 0.147(7) 0.215(4) 0.881(3) 1. 0 8.8 
H8 H1+ 4 e 0.370(7) 0.126(5) 0.928(3) 1. 0 8.7 

#End of data_28059-ICSD


