data_408583-ICSD
#?2014 by Fachinformationszentrum Karlsruhe, and the U.S. Secretary of 
#Commerce on behalf of the United States.  All rights reserved.
_database_code_ICSD                408583
_audit_creation_date               1999/06/02
_audit_update_record               2012/02/01
_chemical_name_systematic
;
Tripotassium Tetranitrato(V)cuprate Nitrate(V)
;
_chemical_formula_structural       'K3 (Cu (N O3)4) (N O3)'
_chemical_formula_sum              'Cu1 K3 N5 O15'
_publ_section_title
;
Synthesis and crystal structure of alkali metal and ammonium 
nitratocuprates(II): M3 (Cu (N O3)4) (N O3) (M= K, NH4, Rb) and Cs2 
(Cu (N O3)4)
;
loop_
_citation_id
_citation_journal_abbrev
_citation_year
_citation_journal_volume
_citation_page_first
_citation_page_last
_citation_journal_id_ASTM
primary 'Zeitschrift fuer Anorganische und Allgemeine Chemie (1950) (DE)'
 1998 624 1543 1647 ZAACAB
_publ_author_name
;
Morozov, I.V.;Fedorova, A.A.;Troyanov, S.I.
;
_cell_length_a                     8.163(2)
_cell_length_b                     14.107(2)
_cell_length_c                     11.611(2)
_cell_angle_alpha                  90.
_cell_angle_beta                   90.42(2)
_cell_angle_gamma                  90.
_cell_volume                       1337.03
_cell_formula_units_Z              4
_symmetry_space_group_name_H-M     'P 1 21/c 1'
_symmetry_Int_Tables_number        14
_refine_ls_R_factor_all            .037
loop_
_symmetry_equiv_pos_site_id
_symmetry_equiv_pos_as_xyz
  1	'x, -y+.5, z+.5'
  2	'-x, -y, -z'
  3	'-x, y+.5, -z+.5'
  4	'x, y, z'
loop_
_atom_type_symbol
_atom_type_oxidation_number
Cu2+	2
K1+	1
N5+	5
O2-	-2
loop_
_atom_site_label
_atom_site_type_symbol
_atom_site_symmetry_multiplicity
_atom_site_Wyckoff_symbol
_atom_site_fract_x
_atom_site_fract_y
_atom_site_fract_z
_atom_site_occupancy
_atom_site_attached_hydrogens
Cu1 Cu2+ 4 e 0.92075(7) 0.72609(5) 0.18032(5) 1. 0 
K1 K1+ 4 e 0.72613(12) 1.02850(8) 0.44934(8) 1. 0 
K2 K1+ 4 e 0.73802(13) 0.95718(9) 0.04351(9) 1. 0 
K3 K1+ 4 e 0.60849(13) 1.26979(9) 0.21205(9) 1. 0 
N1 N5+ 4 e 0.9589(5) 0.5753(3) 0.3034(3) 1. 0 
N2 N5+ 4 e 0.9652(5) 0.8687(3) 0.3300(3) 1. 0 
N3 N5+ 4 e 1.1413(5) 0.7945(3) 0.0275(3) 1. 0 
N4 N5+ 4 e 0.6542(5) 0.6925(3) 0.0514(3) 1. 0 
N5 N5+ 4 e 0.5418(5) 0.5048(3) 0.2611(3) 1. 0 
O1 O2- 4 e 0.8457(4) 0.6395(3) 0.3056(3) 1. 0 
O2 O2- 4 e 1.0734(4) 0.5889(3) 0.2343(3) 1. 0 
O3 O2- 4 e 0.9516(4) 0.5067(3) 0.3678(3) 1. 0 
O4 O2- 4 e 1.0541(4) 0.7987(3) 0.2911(3) 1. 0 
O5 O2- 4 e 0.8210(4) 0.8741(3) 0.2933(3) 1. 0 
O6 O2- 4 e 1.0235(4) 0.9228(3) 0.4003(3) 1. 0 
O7 O2- 4 e 0.9886(4) 0.8114(3) 0.0548(3) 1. 0 
O8 O2- 4 e 1.2112(4) 0.7281(3) 0.0774(3) 1. 0 
O9 O2- 4 e 1.2063(4) 0.8454(3) -.0429(3) 1. 0 
O10 O2- 4 e 0.7904(4) 0.6511(3) 0.0704(3) 1. 0 
O11 O2- 4 e 0.6276(4) 0.7689(3) 0.1025(3) 1. 0 
O12 O2- 4 e 0.5560(4) 0.6561(3) -.0154(3) 1. 0 
O13 O2- 4 e 0.5881(5) 0.4718(3) 0.1685(3) 1. 0 
O14 O2- 4 e 0.4643(5) 0.5798(3) 0.2641(4) 1. 0 
O15 O2- 4 e 0.5678(5) 0.4595(3) 0.3512(3) 1. 0 

loop_
_atom_site_aniso_label
_atom_site_aniso_type_symbol
_atom_site_aniso_U_11
_atom_site_aniso_U_22
_atom_site_aniso_U_33
_atom_site_aniso_U_12
_atom_site_aniso_U_13
_atom_site_aniso_U_23
Cu1 Cu2+ 0.0051(3) 0.0102(4) 0.0121(3) 0.0004(3) 0.0014(2) -.0007(3)
K1 K1+ 0.0078(5) 0.0103(7) 0.0138(5) -.0008(4) 0.0024(4) -.0008(4)
K2 K1+ 0.0106(6) 0.0173(8) 0.0250(6) 0.0009(5) 0.0064(4) 0.0046(5)
K3 K1+ 0.0126(6) 0.0172(7) 0.0197(5) -.0016(5) 0.0024(4) 0.0033(5)
N1 N5+ 0.013(2) 0.013(3) 0.013(2) -.003(2) 0.003(2) -.001(2)
N2 N5+ 0.011(2) 0.008(3) 0.011(2) 0.001(2) 0.002(2) 0.000(2)
N3 N5+ 0.016(2) 0.008(3) 0.015(2) 0.001(2) -.001(2) -.001(2)
N4 N5+ 0.009(2) 0.014(3) 0.012(2) -.003(2) 0.004(2) -.003(2)
N5 N5+ 0.005(2) 0.025(3) 0.013(2) -.005(2) -.001(2) -.002(2)
O1 O2- 0.010(2) 0.013(2) 0.019(2) 0.004(2) 0.0037(13) 0.0008(15)
O2 O2- 0.015(2) 0.016(2) 0.019(2) -.002(2) 0.0132(14) 0.0014(15)
O3 O2- 0.021(2) 0.014(3) 0.021(2) 0.000(2) 0.0046(15) 0.008(2)
O4 O2- 0.005(2) 0.014(3) 0.020(2) 0.0019(14) 0.0013(13) -.0011(14)
O5 O2- 0.008(2) 0.020(3) 0.019(2) -.0001(15) -.0025(14) -.004(2)
O6 O2- 0.014(2) 0.016(2) 0.016(2) -.002(2) -.0006(14) -.0080(15)
O7 O2- 0.004(2) 0.020(2) 0.019(2) 0.0013(15) 0.0051(13) 0.0029(15)
O8 O2- 0.016(2) 0.015(2) 0.026(2) 0.005(2) 0.0051(14) 0.008(2)
O9 O2- 0.021(2) 0.015(2) 0.016(2) -.007(2) 0.0059(14) 0.004(2)
O10 O2- 0.009(2) 0.020(2) 0.021(2) 0.005(2) -.0042(14) -.004(2)
O11 O2- 0.015(2) 0.016(2) 0.037(2) 0.000(2) 0.0070(15) -.014(2)
O12 O2- 0.011(2) 0.022(3) 0.023(2) -.001(2) -.0056(15) -.007(2)
O13 O2- 0.030(2) 0.032(3) 0.019(2) -.005(2) 0.010(2) -.010(2)
O14 O2- 0.023(2) 0.024(3) 0.086(4) 0.015(2) -.003(2) -.018(2)
O15 O2- 0.022(2) 0.059(4) 0.022(2) -.016(2) -.004(2) 0.017(2)
#End of data_408583-ICSD


