data_201779-ICSD
#?2014 by Fachinformationszentrum Karlsruhe, and the U.S. Secretary of 
#Commerce on behalf of the United States.  All rights reserved.
_database_code_ICSD                201779
_audit_creation_date               1986/12/03
_audit_update_record               1997/05/13
_chemical_name_systematic
;
Potassium Diamminetetranitrocobaltate
;
_chemical_formula_structural       'K (Co (N H3)2 (N O2)4)'
_chemical_formula_sum              'H6 Co1 K1 N6 O8'
_publ_section_title
;
The phenomenon of conglomerate crystallization. V. Clavic dissymmetry 
in coordination compounds. IV. A neutron diffraction study of K-trans-
Co (N H3)2 (N O2)4
;
loop_
_citation_id
_citation_journal_abbrev
_citation_year
_citation_journal_volume
_citation_page_first
_citation_page_last
_citation_journal_id_ASTM
primary 'Inorganica Chimica Acta' 1986 115 25 29 ICHAA3
_publ_author_name
;
Bernal, I.;Schlemper, E.O.;Fair, C.K.
;
_cell_length_a                     11.275(3)
_cell_length_b                     12.806(5)
_cell_length_c                     6.696(3)
_cell_angle_alpha                  90.
_cell_angle_beta                   90.
_cell_angle_gamma                  90.
_cell_volume                       966.82
_cell_formula_units_Z              4
_symmetry_space_group_name_H-M     'P 21 21 21'
_symmetry_Int_Tables_number        19
_refine_ls_R_factor_all            .056
loop_
_symmetry_equiv_pos_site_id
_symmetry_equiv_pos_as_xyz
  1	'-x, y+.5, -z+.5'
  2	'x+.5, -y+.5, -z'
  3	'-x+.5, -y, z+.5'
  4	'x, y, z'
loop_
_atom_type_symbol
_atom_type_oxidation_number
Co3+	3
H1+	1
K1+	1
N3-	-3
N3+	3
O2-	-2
loop_
_atom_site_label
_atom_site_type_symbol
_atom_site_symmetry_multiplicity
_atom_site_Wyckoff_symbol
_atom_site_fract_x
_atom_site_fract_y
_atom_site_fract_z
_atom_site_occupancy
_atom_site_attached_hydrogens
_atom_site_B_iso_or_equiv
Co1 Co3+ 4 a -.0829(8) -.3106(6) -.255(1) 1. 0 1.5(1) 
K1 K1+ 4 a -.3648(5) 0.0236(4) -.1873(9) 1. 0 2.3(1) 
O1 O2- 4 a -.2569(4) -.3957(4) -.0201(8) 1. 0 3.93(9) 
O2 O2- 4 a -.0839(4) -.4305(4) 0.0873(7) 1. 0 3.70(9) 
O3 O2- 4 a -.2042(4) -.1596(3) -.0375(6) 1. 0 3.28(8) 
O4 O2- 4 a -.2502(4) -.1582(4) -.3444(8) 1. 0 4.24(9) 
O5 O2- 4 a 0.0469(5) -.1550(4) -.4484(8) 1. 0 4.8(1) 
O6 O2- 4 a -.0571(6) -.2408(5) -.6463(7) 1. 0 5.9(1) 
O7 O2- 4 a 0.0103(4) -.4806(3) -.4604(7) 1. 0 3.90(9) 
O8 O2- 4 a 0.1197(4) -.4332(4) -.2236(8) 1. 0 4.11(9) 
N1 N3- 4 a 0.0308(2) -.2454(2) -.0761(3) 1. 0 2.28(4) 
N2 N3- 4 a -.1989(2) -.3742(2) -.4347(4) 1. 0 2.80(4) 
N3 N3+ 4 a -.1493(2) -.3890(2) -.0359(4) 1. 0 2.31(4) 
N4 N3+ 4 a -.1923(2) -.1960(2) -.2048(4) 1. 0 2.20(4) 
N5 N3+ 4 a -.0199(2) -.2278(2) -.4777(3) 1. 0 2.55(4) 
N6 N3+ 4 a 0.0292(2) -.4220(2) -.3207(3) 1. 0 2.07(3) 
H1 H1+ 4 a 0.0008(7) -.2398(8) 0.063(1) 1. 0 5.4(2) 
H2 H1+ 4 a 0.0507(9) -.1752(7) -.118(1) 1. 0 6.3(2) 
H3 H1+ 4 a 0.1039(7) -.2881(8) -.069(2) 1. 0 6.2(2) 
H4 H1+ 4 a -.2718(9) -.355(1) -.414(2) 1. 0 12.3(3) 
H5 H1+ 4 a -.199(1) -.4458(8) -.435(2) 1. 0 10.3(3) 
H6 H1+ 4 a -.182(1) -.362(1) -.559(2) 1. 0 11.5(3) 

#End of data_201779-ICSD


