data_247312-ICSD
#?2014 by Fachinformationszentrum Karlsruhe, and the U.S. Secretary of 
#Commerce on behalf of the United States.  All rights reserved.
_database_code_ICSD                247312
_audit_creation_date               2011/02/01
_audit_update_record               2013/02/01
_chemical_name_systematic          'Sodium Niobate(V)'
_chemical_formula_structural       'Na (Nb O3)'
_chemical_formula_sum              'Na1 Nb1 O3'
_publ_section_title
;
The polar phase of Na Nb O3: A combined study by powder diffraction, 
solid-state NMR, and first-principles calculations
;
loop_
_citation_id
_citation_journal_abbrev
_citation_year
_citation_journal_volume
_citation_journal_issue
_citation_page_first
_citation_page_last
_citation_journal_id_ASTM
primary 'Journal of the American Chemical Society' 2010 132 25 8732 8746 JACSAT
2 'Neorganicheskie Materialy' 2004 40- 1508 1514 NMATEI
_publ_author_name
;
Johnston, K.E.;Tang, C.C.;Parker, J.E.;Knight, K.S.;Lightfoot, 
P.;Ashbrook, S.E.
;
_cell_length_a                     5.511(1)
_cell_length_b                     5.573(1)
_cell_length_c                     15.526(2)
_cell_angle_alpha                  90.
_cell_angle_beta                   90.
_cell_angle_gamma                  90.
_cell_volume                       476.85
_cell_formula_units_Z              8
_symmetry_space_group_name_H-M     'P b c m'
_symmetry_Int_Tables_number        57
_refine_ls_R_factor_all            .136
loop_
_symmetry_equiv_pos_site_id
_symmetry_equiv_pos_as_xyz
  1	'x, -y+.5, z+.5'
  2	'-x, y+.5, z'
  3	'x, y, -z+.5'
  4	'-x, -y, -z'
  5	'-x, y+.5, -z+.5'
  6	'x, -y+.5, -z'
  7	'-x, -y, z+.5'
  8	'x, y, z'
loop_
_atom_type_symbol
_atom_type_oxidation_number
Na1+	1
Nb5+	5
O2-	-2
loop_
_atom_site_label
_atom_site_type_symbol
_atom_site_symmetry_multiplicity
_atom_site_Wyckoff_symbol
_atom_site_fract_x
_atom_site_fract_y
_atom_site_fract_z
_atom_site_occupancy
_atom_site_attached_hydrogens
_atom_site_U_iso_or_equiv
Nb1 Nb5+ 8 e 0.2511(4) 0.7408(4) 0.1256(2) 1. 0 0.0119(5) 
Na1 Na1+ 4 c 0.2585(14) 0.25 0 1. 0 0.0349(20) 
Na2 Na1+ 4 d 0.2606(10) 0.2298(10) 0.25 1. 0 0.0092(12) 
O1 O2- 4 c 0.6956(8) 0.25 0 1. 0 0.0285(12) 
O2 O2- 4 d 0.1796(6) 0.7670(6) 0.25 1. 0 0.0010(6) 
O3 O2- 8 e 0.4619(6) 0.4513(5) 0.1417(3) 1. 0 0.0332(9) 
O4 O2- 8 e 0.0200(5) 0.0163(5) 0.1094(2) 1. 0 0.0162(6) 

#End of data_247312-ICSD


