data_64692-ICSD
#?2014 by Fachinformationszentrum Karlsruhe, and the U.S. Secretary of 
#Commerce on behalf of the United States.  All rights reserved.
_database_code_ICSD                64692
_audit_creation_date               1997/11/10
_audit_update_record               2012/08/01
_chemical_name_systematic
;
Dipotassium Bis(dioxouranium(VI)) Bis(vanadate)
;
_chemical_formula_structural       'K2 (U O2)2 (V O4)2'
_chemical_formula_sum              'K2 O12 U2 V2'
_chemical_name_mineral             'Carnotite (anhydrous)'
_publ_section_title
;
The crystal structures of synthetic anhydrous carnotite, K2 (U O2)2 
V2 O8, and its cesium analogue, Cs2 (U O2)2 V O8
;
loop_
_citation_id
_citation_journal_abbrev
_citation_year
_citation_journal_volume
_citation_page_first
_citation_page_last
_citation_journal_id_ASTM
primary 'American Mineralogist' 1965 50 825 842 AMMIAY
2 'Acta Crystallographica (1,1948-23,1967)' 1957 10 765 765 ACCRA9
_publ_author_name                  'Appleman, D.E.;Evans, H.T.jr.'
_cell_length_a                     10.47(2)
_cell_length_b                     8.41(1)
_cell_length_c                     6.59(1)
_cell_angle_alpha                  90.
_cell_angle_beta                   103.83(8)
_cell_angle_gamma                  90.
_cell_volume                       563.44
_cell_formula_units_Z              2
_symmetry_space_group_name_H-M     'P 1 21/a 1'
_symmetry_Int_Tables_number        14
_refine_ls_R_factor_all            .161
loop_
_symmetry_equiv_pos_site_id
_symmetry_equiv_pos_as_xyz
  1	'x+.5, -y+.5, z'
  2	'-x, -y, -z'
  3	'-x+.5, y+.5, -z'
  4	'x, y, z'
loop_
_atom_type_symbol
_atom_type_oxidation_number
K1+	1
O2-	-2
U6+	6
V5+	5
loop_
_atom_site_label
_atom_site_type_symbol
_atom_site_symmetry_multiplicity
_atom_site_Wyckoff_symbol
_atom_site_fract_x
_atom_site_fract_y
_atom_site_fract_z
_atom_site_occupancy
_atom_site_attached_hydrogens
_atom_site_B_iso_or_equiv
O1 O2- 4 e 0.6238 0.4382 0.7415 1. 0 1.27 
O2 O2- 4 e 0.7406 0.5226 0.233 1. 0 0.91 
O3 O2- 4 e 0.5098 0.6525 0.9667 1. 0 0.22 
O4 O2- 4 e 0.9347 0.6342 0.6603 1. 0 1.42 
O5 O2- 4 e 0.8953 0.4424 0.982 1. 0 0.63 
O6 O2- 4 e 0.7786 0.7077 0.9418 1. 0 0.75 
V1 V5+ 4 e 0.944 0.6495 0.8959 1. 0 0.1 
K1 K1+ 4 e 0.6358 0.7681 0.4576 1. 0 1.46 
U1 U6+ 4 e 0.6813 0.4795 0.9873 1. 0 0.2 

#End of data_64692-ICSD


