data_248414-ICSD
#?2014 by Fachinformationszentrum Karlsruhe, and the U.S. Secretary of 
#Commerce on behalf of the United States.  All rights reserved.
_database_code_ICSD                248414
_audit_creation_date               2014/08/01
_chemical_name_systematic          'Lithium Diphosphate'
_chemical_formula_structural       'Li4 P2 O7'
_chemical_formula_sum              'Li4 O7 P2'
_publ_section_title
;
Lithium-cation conductivity and crystal structure of lithium 
diphosphate
;
loop_
_citation_id
_citation_journal_abbrev
_citation_year
_citation_journal_volume
_citation_page_first
_citation_page_last
_citation_journal_id_ASTM
primary 'Journal of Solid State Chemistry' 2014 211 170 175 JSSCBI
_publ_author_name
;
Voronin, V.I.;Sherstobitova, E.A.;Blatov, V.A.;Shekhtman, G.Sh.
;
_cell_length_a                     8.5632(6)
_cell_length_b                     7.1099(7)
_cell_length_c                     5.1858(4)
_cell_angle_alpha                  111.426(1)
_cell_angle_beta                   89.991(12)
_cell_angle_gamma                  103.055(7)
_cell_volume                       285.13
_cell_formula_units_Z              2
_symmetry_space_group_name_H-M     'P -1'
_symmetry_Int_Tables_number        2
_refine_ls_R_factor_all            .0437
loop_
_symmetry_equiv_pos_site_id
_symmetry_equiv_pos_as_xyz
  1	'-x, -y, -z'
  2	'x, y, z'
loop_
_atom_type_symbol
_atom_type_oxidation_number
Li1+	1
O2-	-2
P5+	5
loop_
_atom_site_label
_atom_site_type_symbol
_atom_site_symmetry_multiplicity
_atom_site_Wyckoff_symbol
_atom_site_fract_x
_atom_site_fract_y
_atom_site_fract_z
_atom_site_occupancy
_atom_site_attached_hydrogens
P1 P5+ 2 i 0.8464(5) 0.2216(7) 0.4380(12) 1. 0 
P2 P5+ 2 i 0.6316(6) -0.2150(6) 0.2100(12) 1. 0 
O1 O2- 2 i 0.6853(5) 0.0386(6) 0.3097(9) 1. 0 
O2 O2- 2 i 0.8745(6) 0.2595(8) 0.7428(9) 1. 0 
O3 O2- 2 i 0.7926(5) 0.3963(7) 0.3883(12) 1. 0 
O4 O2- 2 i 0.9811(5) 0.1513(6) 0.2723(13) 1. 0 
O5 O2- 2 i 0.6207(7) -0.2619(8) 0.4748(9) 1. 0 
O6 O2- 2 i 0.4721(5) -0.2704(6) 0.0465(12) 1. 0 
O7 O2- 2 i 0.7612(6) -0.2945(7) 0.0411(13) 1. 0 
Li1 Li1+ 2 i 0.7867(17) 0.6697(19) 0.646(4) 1. 0 
Li2 Li1+ 2 i 0.4581(19) 0.753(2) 0.695(4) 1. 0 
Li3 Li1+ 2 i 0.7568(16) 0.416(2) 0.017(4) 1. 0 
Li4 Li1+ 2 i 0.988 0.854 1.110 1. 0 

#End of data_248414-ICSD


