data_290220-ICSD
#?2014 by Fachinformationszentrum Karlsruhe, and the U.S. Secretary of 
#Commerce on behalf of the United States.  All rights reserved.
_database_code_ICSD                290220
_audit_creation_date               2013/08/01
_chemical_name_systematic          'Magnesium Silicate'
_chemical_formula_structural       'Mg Si O3'
_chemical_formula_sum              'Mg1 O3 Si1'
_chemical_name_mineral             Orthoenstatite
_publ_section_title
;
Re-investigation of the crystal structure of enstatite under high-
pressure conditions
;
loop_
_citation_id
_citation_journal_abbrev
_citation_year
_citation_journal_volume
_citation_journal_issue
_citation_page_first
_citation_page_last
_citation_journal_id_ASTM
primary 'American Mineralogist' 2012 97 10 1741 1748 AMMIAY
_publ_author_name
;
Periotto, B.;Balic-Zunic, T.;Nestola, F.;Katerinopoulou, A.;Angel, 
R.J.
;
_cell_length_a                     18.019(6)
_cell_length_b                     8.668(3)
_cell_length_c                     5.1073(8)
_cell_angle_alpha                  90.
_cell_angle_beta                   90.
_cell_angle_gamma                  90.
_cell_volume                       797.7
_cell_formula_units_Z              16
_symmetry_space_group_name_H-M     'P b c a'
_symmetry_Int_Tables_number        61
_refine_ls_R_factor_all            .051
loop_
_symmetry_equiv_pos_site_id
_symmetry_equiv_pos_as_xyz
  1	'x+.5, y, -z+.5'
  2	'x, -y+.5, z+.5'
  3	'-x+.5, y+.5, z'
  4	'-x, -y, -z'
  5	'-x+.5, -y, z+.5'
  6	'-x, y+.5, -z+.5'
  7	'x+.5, -y+.5, -z'
  8	'x, y, z'
loop_
_atom_type_symbol
_atom_type_oxidation_number
Mg2+	2
O2-	-2
Si4+	4
loop_
_atom_site_label
_atom_site_type_symbol
_atom_site_symmetry_multiplicity
_atom_site_Wyckoff_symbol
_atom_site_fract_x
_atom_site_fract_y
_atom_site_fract_z
_atom_site_occupancy
_atom_site_attached_hydrogens
_atom_site_U_iso_or_equiv
Mg1 Mg2+ 8 c 0.3774(1) 0.4842(3) 0.3503(3) 1. 0 0.0094(6) 
Mg2 Mg2+ 8 c 0.3761(1) 0.6561(3) 0.8583(3) 1. 0 0.0068(6) 
Si1 Si4+ 8 c 0.2711(1) 0.3432(2) 0.0422(3) 1. 0 0.0059(5) 
Si2 Si4+ 8 c 0.4729(1) 0.3375(2) 0.8028(3) 1. 0 0.0056(5) 
O1 O2- 8 c 0.1827(2) 0.3404(5) 0.0262(6) 1. 0 0.007(1) 
O2 O2- 8 c 0.3103(2) 0.5058(5) 0.0340(7) 1. 0 0.008(1) 
O3 O2- 8 c 0.3034(2) 0.2222(5) 0.8239(6) 1. 0 0.006(1) 
O4 O2- 8 c 0.5620(2) 0.3386(5) 0.8058(6) 1. 0 0.0055(9) 
O5 O2- 8 c 0.4328(2) 0.4842(5) 0.6840(6) 1. 0 0.007(1) 
O6 O2- 8 c 0.4467(2) 0.1915(5) 0.6129(6) 1. 0 0.0039(9) 

#End of data_290220-ICSD


