data_165360-ICSD
#?2014 by Fachinformationszentrum Karlsruhe, and the U.S. Secretary of 
#Commerce on behalf of the United States.  All rights reserved.
_database_code_ICSD                165360
_audit_creation_date               2010/02/01
_chemical_name_systematic
;
Tripotassium Trisilver Tris(triselenophosphate(IV))
;
_chemical_formula_structural       'K3 Ag3 (P Se3)3'
_chemical_formula_sum              'Ag3 K3 P3 Se9'
_publ_section_title
;
Synthesis in molten alkali polyselenophosphate fluxes: a new family 
of transition metal selenophosphate compounds, A2 M P2 Se6 (A= K, Rb, 
Cs;  M= Mn, Fe) and A2 M'2 P2 Se6 (A= K, Cs;  M'= Cu, Ag)
;
loop_
_citation_id
_citation_journal_abbrev
_citation_year
_citation_journal_volume
_citation_journal_issue
_citation_page_first
_citation_page_last
_citation_journal_id_ASTM
primary 'Inorganic Chemistry' 1995 34 5 1257 1267 INOCAJ
_publ_author_name                  'McCarthy, T.J.;Kanatzidis, M.G.'
_cell_length_a                     8.528(6)
_cell_length_b                     11.251(6)
_cell_length_c                     20.975(4)
_cell_angle_alpha                  90
_cell_angle_beta                   93.24(3)
_cell_angle_gamma                  90.
_cell_volume                       2009.3
_cell_formula_units_Z              4
_symmetry_space_group_name_H-M     'P 1 21/c 1'
_symmetry_Int_Tables_number        14
_refine_ls_R_factor_all            .045
loop_
_symmetry_equiv_pos_site_id
_symmetry_equiv_pos_as_xyz
  1	'x, -y+.5, z+.5'
  2	'-x, -y, -z'
  3	'-x, y+.5, -z+.5'
  4	'x, y, z'
loop_
_atom_type_symbol
_atom_type_oxidation_number
Ag1+	1
K1+	1
P4+	4
Se2-	-2
loop_
_atom_site_label
_atom_site_type_symbol
_atom_site_symmetry_multiplicity
_atom_site_Wyckoff_symbol
_atom_site_fract_x
_atom_site_fract_y
_atom_site_fract_z
_atom_site_occupancy
_atom_site_attached_hydrogens
_atom_site_B_iso_or_equiv
Ag1 Ag1+ 4 e 0.5399(3) 0.1570(2) 0.2781(1) 1. 0 3.3(1) 
Ag2 Ag1+ 4 e 0.1814(4) 0.0387(3) 0.3638(1) 1. 0 4.9(1) 
Ag3 Ag1+ 4 e 0.8686(3) 0.2194(2) 0.3972(1) 1. 0 3.7(1) 
Se1 Se2- 4 e 0.7647(3) 0.4246(3) 0.4406(1) 1. 0 2.5(1) 
Se2 Se2- 4 e 0.8274(3) 0.2472(3) 0.2727(1) 1. 0 1.9(1) 
Se3 Se2- 4 e 0.4483(3) -0.0552(2) 0.3107(1) 1. 0 1.6(1) 
Se4 Se2- 4 e 0.5165(3) 0.6416(3) 0.3538(1) 1. 0 2.3(1) 
Se5 Se2- 4 e 0.1559(3) 0.1958(3) 0.4522(1) 1. 0 2.0(1) 
Se6 Se2- 4 e 0.2695(3) -0.0106(3) 0.5771(1) 1. 0 1.9(1) 
Se7 Se2- 4 e 0.4093(3) 0.3242(3) 0.3541(1) 1. 0 2.1(1) 
Se8 Se2- 4 e 0.9135(3) 0.1670(3) 0.5870(1) 1. 0 2.1(1) 
Se9 Se2- 4 e 0.9125(3) 0.5601(3) 0.2649(1) 1. 0 2.1(1) 
K1 K1+ 4 e 0.1877(7) 0.3442(7) 0.2096(3) 1. 0 3.0(3) 
K2 K1+ 4 e 0.5316(7) 0.2078(7) 0.5095(3) 1. 0 3.4(3) 
K3 K1+ 4 e -0.1365(8) 0.0254(7) 0.0999(3) 1. 0 3.8(3) 
P1 P4+ 4 e 0.5964(7) 0.4579(6) 0.3600(3) 1. 0 1.4(3) 
P2 P4+ 4 e 0.7285(7) 0.4266(6) 0.2700(3) 1. 0 1.4(3) 
P3 P4+ 4 e 0.0699(7) 0.0758(7) 0.5256(3) 1. 0 1.5(3) 

#End of data_165360-ICSD


