data_157616-ICSD
#?2014 by Fachinformationszentrum Karlsruhe, and the U.S. Secretary of 
#Commerce on behalf of the United States.  All rights reserved.
_database_code_ICSD                157616
_audit_creation_date               2008/02/01
_chemical_name_systematic
;
Trimagnesium Tetraferro(III)hexavanadate(V)
;
_chemical_formula_structural       'Mg3 (Fe4 V6 O24)'
_chemical_formula_sum              'Fe4 Mg3 O24 V6'
_publ_section_title
;
Crystal structure of Mg3 Fe4 V6 O24 studied by neutron diffraction
;
loop_
_citation_id
_citation_journal_abbrev
_citation_year
_citation_journal_volume
_citation_page_first
_citation_page_last
_citation_journal_id_ASTM
primary 'Review of Advanced Materials Science' 2006 12 166 171 RAMSCX
_publ_author_name
;
Beskrovnyi, A.;Guskos, N.;Typek, J.;Ryabova, N.Yu.;Blonska-Tabero, 
A.;Zolnierkiewicz, G.
;
_cell_length_a                     6.686(1)
_cell_length_b                     8.021(1)
_cell_length_c                     9.775(1)
_cell_angle_alpha                  105.13(1)
_cell_angle_beta                   105.09(1)
_cell_angle_gamma                  101.79(1)
_cell_volume                       467.28
_cell_formula_units_Z              1
_symmetry_space_group_name_H-M     'P -1'
_symmetry_Int_Tables_number        2
_refine_ls_R_factor_all            .0232
loop_
_symmetry_equiv_pos_site_id
_symmetry_equiv_pos_as_xyz
  1	'-x, -y, -z'
  2	'x, y, z'
loop_
_atom_type_symbol
_atom_type_oxidation_number
Fe3+	3
Mg2+	2
O2-	-2
V5+	5
loop_
_atom_site_label
_atom_site_type_symbol
_atom_site_symmetry_multiplicity
_atom_site_Wyckoff_symbol
_atom_site_fract_x
_atom_site_fract_y
_atom_site_fract_z
_atom_site_occupancy
_atom_site_attached_hydrogens
Mg1 Mg2+ 1 g 0 0.5 0.5 1. 0 
Mg2 Mg2+ 2 i 0.727(3) 0.720(2) 0.206(1) 1. 0 
Fe1 Fe3+ 2 i 0.382(1) 0.951(1) 0.612(1) 1. 0 
Fe2 Fe3+ 2 i 0.043(1) 0.210(1) 0.014(1) 1. 0 
V1 V5+ 2 i 0.8917 0.8998 0.6644 1. 0 
V2 V5+ 2 i 0.2208 0.6546 0.2699 1. 0 
V3 V5+ 2 i 0.5903 0.2681 0.1236 1. 0 
O1 O2- 2 i 0.087(2) 0.054(2) 0.148(1) 1. 0 
O2 O2- 2 i 0.567(2) 0.125(2) 0.218(1) 1. 0 
O3 O2- 2 i 0.197(2) 0.430(2) 0.189(2) 1. 0 
O4 O2- 2 i 0.988(2) 0.282(1) 0.821(1) 1. 0 
O5 O2- 2 i 0.232(2) 0.794(2) 0.976(1) 1. 0 
O6 O2- 2 i 0.871(3) 0.953(2) 0.344(2) 1. 0 
O7 O2- 2 i 0.523(2) 0.238(2) 0.731(2) 1. 0 
O8 O2- 2 i 0.346(2) 0.239(2) 0.980(2) 1. 0 
O9 O2- 2 i 0.332(2) 0.026(2) 0.427(1) 1. 0 
O10 O2- 2 i 0.221(3) 0.676(2) 0.458(1) 1. 0 
O11 O2- 2 i 0.710(2) 0.506(1) 0.251(1) 1. 0 
O12 O2- 2 i 0.119(2) 0.297(1) 0.407(1) 1. 0 

#End of data_157616-ICSD


