data_172564-ICSD
#?2014 by Fachinformationszentrum Karlsruhe, and the U.S. Secretary of 
#Commerce on behalf of the United States.  All rights reserved.
_database_code_ICSD                172564
_audit_creation_date               2007/04/01
_audit_update_record               2012/02/01
_chemical_name_systematic          'Tripotassium Hexachloroindate'
_chemical_formula_structural       'K3 (In Cl6 )'
_chemical_formula_sum              'Cl6 In1 K3'
_publ_section_title
;
The monoclinic modification of K3 [In Cl6]
;
loop_
_citation_id
_citation_journal_abbrev
_citation_year
_citation_journal_volume
_citation_journal_issue
_citation_page_first
_citation_page_last
_citation_journal_id_ASTM
primary 'Acta Crystallographica, Section E. Structure Reports Online'
 2006 62 7 i143 i144 ACSEBH
_publ_author_name
;
Chen, L.;Wu, B.-L.;He, X.-Y.;Mi Jinxiao
;
_cell_length_a                     12.188(3)
_cell_length_b                     7.5530(17)
_cell_length_c                     12.703(3)
_cell_angle_alpha                  90.00
_cell_angle_beta                   108.957(4)
_cell_angle_gamma                  90.00
_cell_volume                       1105.96
_cell_formula_units_Z              4
_symmetry_space_group_name_H-M     'P 1 21/c 1'
_symmetry_Int_Tables_number        14
_refine_ls_R_factor_all            .0341
loop_
_symmetry_equiv_pos_site_id
_symmetry_equiv_pos_as_xyz
  1	'x, -y+.5, z+.5'
  2	'-x, -y, -z'
  3	'-x, y+.5, -z+.5'
  4	'x, y, z'
loop_
_atom_type_symbol
_atom_type_oxidation_number
Cl1-	-1
In3+	3
K1+	1
loop_
_atom_site_label
_atom_site_type_symbol
_atom_site_symmetry_multiplicity
_atom_site_Wyckoff_symbol
_atom_site_fract_x
_atom_site_fract_y
_atom_site_fract_z
_atom_site_occupancy
_atom_site_attached_hydrogens
_atom_site_U_iso_or_equiv
In1 In3+ 2 b 0.5000 0.5000 0.5000 1 0 0.01989(12) 
In2 In3+ 2 c 0.0000 0.0000 0.5000 1 0 0.01933(12) 
Cl1 Cl1- 4 e 0.88511(8) 0.01054(13) 0.62721(9) 1 0 0.0371(2) 
Cl2 Cl1- 4 e 0.50062(7) 0.36426(11) 0.68833(7) 1 0 0.02727(19) 
Cl3 Cl1- 4 e 0.65124(8) 0.70864(12) 0.60687(8) 1 0 0.0352(2) 
Cl4 Cl1- 4 e 0.86419(8) 0.18013(12) 0.35054(9) 1 0 0.0354(2) 
Cl5 Cl1- 4 e 0.64942(8) 0.29471(13) 0.49465(9) 1 0 0.0386(2) 
Cl6 Cl1- 4 e 0.89804(8) 0.71973(11) 0.40618(8) 1 0 0.0346(2) 
K1 K1+ 4 e 0.09970(10) 0.02240(18) 0.86224(11) 1 0 0.0652(4) 
K2 K1+ 4 e 0.67871(6) 0.56893(10) 0.88739(7) 1 0 0.0330(2) 
K3 K1+ 4 e 0.31428(7) 0.56143(11) 0.76239(8) 1 0 0.0365(2) 

loop_
_atom_site_aniso_label
_atom_site_aniso_type_symbol
_atom_site_aniso_U_11
_atom_site_aniso_U_22
_atom_site_aniso_U_33
_atom_site_aniso_U_12
_atom_site_aniso_U_13
_atom_site_aniso_U_23
In1 In3+ 0.01625(18) 0.02042(19) 0.0229(2) -0.00018(9) 0.00617(15) 
-0.00193(11)
In2 In3+ 0.01636(18) 0.02142(19) 0.0205(2) 0.00275(9) 0.00645(14) 
0.00221(11)
Cl1 Cl1- 0.0252(5) 0.0608(7) 0.0297(5) 0.0045(3) 0.0152(4) 0.0011(4)
Cl2 Cl1- 0.0270(4) 0.0295(4) 0.0258(4) -0.0023(3) 0.0092(3) 0.0020(3)
Cl3 Cl1- 0.0310(4) 0.0360(5) 0.0368(5) -0.0139(3) 0.0087(4) -0.0096(4)
Cl4 Cl1- 0.0260(4) 0.0392(5) 0.0383(5) 0.0112(3) 0.0067(4) 0.0164(4)
Cl5 Cl1- 0.0333(5) 0.0411(5) 0.0417(6) 0.0170(4) 0.0125(4) -0.0025(4)
Cl6 Cl1- 0.0316(4) 0.0271(4) 0.0416(6) -0.0015(3) 0.0071(4) -0.0076(4)
K1 K1+ 0.0424(6) 0.1034(10) 0.0516(7) -0.0158(5) 0.0177(6) -0.0344(6)
K2 K1+ 0.0239(4) 0.0300(4) 0.0424(5) 0.0016(3) 0.0069(3) -0.0017(3)
K3 K1+ 0.0304(4) 0.0291(4) 0.0517(6) 0.0078(3) 0.0155(4) 0.0089(4)
#End of data_172564-ICSD


