data_182581-ICSD
#?2014 by Fachinformationszentrum Karlsruhe, and the U.S. Secretary of 
#Commerce on behalf of the United States.  All rights reserved.
_database_code_ICSD                182581
_audit_creation_date               2012/02/01
_chemical_name_systematic
;
Lithium Titanium Oxide (0.5/1/2) - Configuration 3
;
_chemical_formula_structural       'Li0.5 Ti O2'
_chemical_formula_sum              'Li0.5 O2 Ti1'
_publ_section_title
;
Role of lithium ordering in the Lix Ti O2 anatase to titanate phase 
transition
;
loop_
_citation_id
_citation_journal_abbrev
_citation_year
_citation_journal_volume
_citation_journal_issue
_citation_page_first
_citation_page_last
_citation_journal_id_ASTM
primary 'Journal of Physical Chemistry Letters' 2011 2 14 1657 1661 JPCLCD
_publ_author_name                  'Morgan, B.J.;Watson, G.W.'
_cell_length_a                     8.17830
_cell_length_b                     4.02927
_cell_length_c                     9.59784
_cell_angle_alpha                  90
_cell_angle_beta                   90
_cell_angle_gamma                  90
_cell_volume                       316.27
_cell_formula_units_Z              8
_symmetry_space_group_name_H-M     'P 1'
_symmetry_Int_Tables_number        1
loop_
_symmetry_equiv_pos_site_id
_symmetry_equiv_pos_as_xyz
  1	'x, y, z'
loop_
_atom_type_symbol
_atom_type_oxidation_number
Li1+	1
O2-	-2
Ti3.5+	3.5
loop_
_atom_site_label
_atom_site_type_symbol
_atom_site_symmetry_multiplicity
_atom_site_Wyckoff_symbol
_atom_site_fract_x
_atom_site_fract_y
_atom_site_fract_z
_atom_site_occupancy
_atom_site_attached_hydrogens
_atom_site_B_iso_or_equiv
Li1 Li1+ 1 a 0.00212 1.00000 0.99186 1.0 0 1.000 
Li2 Li1+ 1 a 0.24788 0.50000 0.49186 1.0 0 1.000 
Li3 Li1+ 1 a 0.99324 0.50000 0.24621 1.0 0 1.000 
Li4 Li1+ 1 a 0.25676 1.00000 0.74621 1.0 0 1.000 
Ti1 Ti3.5+ 1 a 0.97828 0.00000 0.50784 1.0 0 1.000 
Ti2 Ti3.5+ 1 a 0.50353 1.00000 0.49261 1.0 0 1.000 
Ti3 Ti3.5+ 1 a 0.27172 0.50000 0.00784 1.0 0 1.000 
Ti4 Ti3.5+ 1 a 0.74647 0.50000 0.99261 1.0 0 1.000 
Ti5 Ti3.5+ 1 a 0.00407 0.50000 0.75516 1.0 0 1.000 
Ti6 Ti3.5+ 1 a 0.51466 0.50000 0.74527 1.0 0 1.000 
Ti7 Ti3.5+ 1 a 0.24594 0.00000 0.25516 1.0 0 1.000 
Ti8 Ti3.5+ 1 a 0.73534 1.00000 0.24527 1.0 0 1.000 
O1 O2- 1 a 0.99943 1.00000 0.28283 1.0 0 1.000 
O2 O2- 1 a 0.48300 0.00000 0.28631 1.0 0 1.000 
O3 O2- 1 a 0.25057 0.50000 0.78283 1.0 0 1.000 
O4 O2- 1 a 0.76700 0.50000 0.78631 1.0 0 1.000 
O5 O2- 1 a 0.01549 0.50000 0.54869 1.0 0 1.000 
O6 O2- 1 a 0.48464 0.50000 0.52162 1.0 0 1.000 
O7 O2- 1 a 0.23451 0.00000 0.04869 1.0 0 1.000 
O8 O2- 1 a 0.76536 0.00000 0.02161 1.0 0 1.000 
O9 O2- 1 a 0.24656 0 0.46966 1.0 0 1.000 
O10 O2- 1 a 0.73774 0.00000 0.46453 1.0 0 1.000 
O11 O2- 1 a 0.00344 0.50000 0.96965 1.0 0 1.000 
O12 O2- 1 a 0.51226 0.50000 0.96454 1.0 0 1.000 
O13 O2- 1 a 0.23234 0.50000 0.23323 1.0 0 1.000 
O14 O2- 1 a 0.75936 0.50000 0.20418 1.0 0 1.000 
O15 O2- 1 a 0.01766 1.00000 0.73323 1.0 0 1.000 
O16 O2- 1 a 0.49064 1.00000 0.70418 1.0 0 1.000 

#End of data_182581-ICSD


