data_39633-ICSD
#?2014 by Fachinformationszentrum Karlsruhe, and the U.S. Secretary of 
#Commerce on behalf of the United States.  All rights reserved.
_database_code_ICSD                39633
_audit_creation_date               1993/08/22
_audit_update_record               2005/10/01
_chemical_name_systematic
;
Dipotassium Pentafluoroantimonate(III)
;
_chemical_formula_structural       'K2 (Sb F5)'
_chemical_formula_sum              'F5 K2 Sb1'
_publ_section_title
;
X-ray investigation of sequential phase transitions in potassium 
pentafluoroantimonate(III) over a temperature range 323-98 K. 
II.Crystal structure.
;
loop_
_citation_id
_citation_journal_abbrev
_citation_year
_citation_journal_volume
_citation_page_first
_citation_page_last
_citation_journal_id_ASTM
primary Kristallografiya 1992 37 735 752 KRISAJ
2 'Soviet Physics, Crystallography (= Kristallografiya)'
 1992 37 388 397 SPHCA6
3 'Golden Book of Phase Transitions, Wroclaw' 2002 1 1 123 GBOPT5
_publ_author_name
;
Udovenko, A.A.;Eiberman, M.F.;Davidovich, R.L.
;
_cell_length_a                     17.012(5)
_cell_length_b                     14.895(3)
_cell_length_c                     6.483(2)
_cell_angle_alpha                  90.
_cell_angle_beta                   90.
_cell_angle_gamma                  91.48(2)
_cell_volume                       1642.2
_cell_formula_units_Z              12
_symmetry_space_group_name_H-M     'P 1 1 21/b'
_symmetry_Int_Tables_number        14
_refine_ls_R_factor_all            .036
loop_
_symmetry_equiv_pos_site_id
_symmetry_equiv_pos_as_xyz
  1	'x, y+.5, -z+.5'
  2	'-x, -y, -z'
  3	'-x, -y+.5, z+.5'
  4	'x, y, z'
loop_
_atom_type_symbol
_atom_type_oxidation_number
F1-	-1
K1+	1
Sb3+	3
loop_
_atom_site_label
_atom_site_type_symbol
_atom_site_symmetry_multiplicity
_atom_site_Wyckoff_symbol
_atom_site_fract_x
_atom_site_fract_y
_atom_site_fract_z
_atom_site_occupancy
_atom_site_attached_hydrogens
Sb1 Sb3+ 4 e 0.1376 0.3419 0.739 1. 0 
Sb2 Sb3+ 4 e 0.1958 -.0085 0.2629 1. 0 
Sb3 Sb3+ 4 e 0.4709 0.1752 0.7428 1. 0 
K1 K1+ 4 e 0.0199 0.0602(1) 0.7526(2) 1. 0 
K2 K1+ 4 e 0.3135 0.2732(1) 0.2612(2) 1. 0 
K3 K1+ 4 e 0.3532 0.3935(1) 0.7608(2) 1. 0 
K4 K1+ 4 e 0.0862(1) 0.2086(1) 0.2363(2) 1. 0 
K5 K1+ 4 e 0.2472(1) 0.1249(1) 0.7675(2) 1. 0 
K6 K1+ 4 e 0.4195(1) 0.0419(1) 0.2337(2) 1. 0 
F1 F1- 4 e 0.0998(2) 0.2194(2) 0.7865(4) 1. 0 
F2 F1- 4 e 0.2192(2) 0.2955(2) 0.9541(5) 1. 0 
F3 F1- 4 e 0.2033(2) 0.2726(2) 0.5289(5) 1. 0 
F4 F1- 4 e 0.0485(2) 0.3611(2) 0.9549(5) 1. 0 
F5 F1- 4 e 0.0502(2) 0.3363(2) 0.5230(4) 1. 0 
F6 F1- 4 e 0.2336(2) 0.1143(2) 0.2130(4) 1. 0 
F7 F1- 4 e 0.1111(2) 0.0417(2) 0.0606(4) 1. 0 
F8 F1- 4 e 0.1334(2) 0.0574(2) 0.4852(4) 1. 0 
F9 F1- 4 e 0.2787(2) 0.0247(3) 0.0298(5) 1. 0 
F10 F1- 4 e 0.2890(2) 0.0058(3) 0.4639(4) 1. 0 
F11 F1- 4 e 0.4327(2) 0.0536(2) 0.7868(4) 1. 0 
F12 F1- 4 e 0.5339(2) 0.1071(2) 0.5241(5) 1. 0 
F13 F1- 4 e 0.5545(2) 0.1266(2) 0.9505(5) 1. 0 
F14 F1- 4 e 0.3803(2) 0.1726(2) 0.5337(4) 1. 0 
F15 F1- 4 e 0.3854(2) 0.1923(3) 0.9681(5) 1. 0 

loop_
_atom_site_aniso_label
_atom_site_aniso_type_symbol
_atom_site_aniso_U_11
_atom_site_aniso_U_22
_atom_site_aniso_U_33
_atom_site_aniso_U_12
_atom_site_aniso_U_13
_atom_site_aniso_U_23
Sb1 Sb3+ 0.0046(1) 0.0063(1) 0.0058(1) 0.0014(1) -.0001(1) -.0007(1)
Sb2 Sb3+ 0.0046(1) 0.0063(1) 0.0040(1) 0.0014(1) 0.0003(1) 0.0007(1)
Sb3 Sb3+ 0.0046(1) 0.0065(1) 0.0086(1) 0.0014(1) 0.0(2) 0.0004(2)
K1 K1+ 0.0085(3) 0.0152(4) 0.0101(4) 0.0023(2) 0.0007(5) 0.0010(5)
K2 K1+ 0.0085(3) 0.0152(4) 0.0052(4) 0.0008(4) 0.0014(4) 0.0023(2)
K3 K1+ 0.0085(3) 0.0151(4) 0.0057(4) 0.0023(2) -.0006(4) 0.0007(4)
K4 K1+ 0.0135(3) 0.0117(4) 0.0161(4) 0.0015(3) -.0013(5) -.0007(5)
K5 K1+ 0.0133(3) 0.0114(4) 0.0116(4) 0.0015(3) 0.0010(4) 0.0012(4)
K6 K1+ 0.0135(3) 0.0119(4) 0.0121(4) 0.0014(3) -.0002(4) -.0006(4)
F1 F1- 0.018(1) 0.009(1) 0.021(1) -.004(1) 0.003(1) 0.001(1)
F2 F1- 0.048(2) 0.012(2) 0.037(2) 0.011(2) -.033(2) -.006(1)
F3 F1- 0.034(2) 0.011(2) 0.022(2) 0.008(1) 0.021(1) 0.002(1)
F4 F1- 0.022(2) 0.018(2) 0.019(1) 0.008(1) 0.009(1) -.001(1)
F5 F1- 0.018(1) 0.020(2) 0.012(1) 0.009(1) -.008(1) -.006(1)
F6 F1- 0.018(1) 0.008(1) 0.018(1) -.004(1) 0.003(1) -.001(1)
F7 F1- 0.025(2) 0.025(2) 0.017(1) 0.013(1) -.010(1) -.001(1)
F8 F1- 0.019(2) 0.028(2) 0.010(1) 0.009(1) 0.006(1) -.005(1)
F9 F1- 0.013(1) 0.034(2) 0.021(1) -.010(1) 0.008(1) -.017(1)
F10 F1- 0.010(1) 0.035(2) 0.019(1) -.009(1) -.006(1) 0.012(1)
F11 F1- 0.018(1) 0.009(1) 0.018(1) -.005(1) 0.00(1) 0.001(1)
F12 F1- 0.022(2) 0.020(2) 0.021(1) 0.004(1) 0.015(1) -.001(1)
F13 F1- 0.028(2) 0.018(2) 0.027(2) 0.007(1) -.021(1) -.002(1)
F14 F1- 0.015(2) 0.031(2) 0.017(1) 0.0(1) -.008(1) 0.011(1)
F15 F1- 0.023(2) 0.039(2) 0.019(2) -.003(2) 0.010(1) -.012(1)
#End of data_39633-ICSD


