data_418681-ICSD
#?2014 by Fachinformationszentrum Karlsruhe, and the U.S. Secretary of 
#Commerce on behalf of the United States.  All rights reserved.
_database_code_ICSD                418681
_audit_creation_date               2009/08/01
_audit_update_record               2011/08/01
_chemical_name_systematic
;
Calcium Dicobalt Tritellurium(IV) Octaoxide Dichloride
;
_chemical_formula_structural       'Ca Co2 Te3 O8 Cl2'
_chemical_formula_sum              'Ca1 Cl2 Co2 O8 Te3'
_publ_section_title
;
Helical chains of [M O5 Cl] octahedra - Three compounds in the new 
family AE M2 T3 O8 Cl2 (AE= Ca, Sr and M= Co, Ni)
;
loop_
_citation_id
_citation_journal_abbrev
_citation_year
_citation_journal_volume
_citation_journal_issue
_citation_page_first
_citation_page_last
_citation_journal_id_ASTM
primary 'Solid State Sciences' 2009 11 1 13 17 SSSCFJ
_publ_author_name
;
Takagi, R.F.;Hjelmqvist, D.T.;Johnsson, M.;Lidin, S.
;
_cell_length_a                     6.537(2)
_cell_length_b                     9.088(2)
_cell_length_c                     19.500(9)
_cell_angle_alpha                  90.00
_cell_angle_beta                   113.36(4)
_cell_angle_gamma                  90.00
_cell_volume                       1063.5
_cell_formula_units_Z              4
_symmetry_space_group_name_H-M     'P 1 21/c 1'
_symmetry_Int_Tables_number        14
_refine_ls_R_factor_all            .0519
loop_
_symmetry_equiv_pos_site_id
_symmetry_equiv_pos_as_xyz
  1	'x, -y+.5, z+.5'
  2	'-x, -y, -z'
  3	'-x, y+.5, -z+.5'
  4	'x, y, z'
loop_
_atom_type_symbol
_atom_type_oxidation_number
Ca2+	2
Cl1-	-1
Co2+	2
O2-	-2
Te4+	4
loop_
_atom_site_label
_atom_site_type_symbol
_atom_site_symmetry_multiplicity
_atom_site_Wyckoff_symbol
_atom_site_fract_x
_atom_site_fract_y
_atom_site_fract_z
_atom_site_occupancy
_atom_site_attached_hydrogens
_atom_site_U_iso_or_equiv
Te1 Te4+ 4 e 0.67801(12) 0.29620(9) 0.10801(5) 1 0 0.0112(2) 
Te2 Te4+ 4 e 1.00288(12) 0.42195(9) 0.38827(4) 1 0 0.0106(2) 
Te3 Te4+ 4 e 0.63610(12) 0.11023(9) 0.36382(5) 1 0 0.0096(2) 
Co1 Co2+ 4 e 0.5512(2) -0.04017(18) 0.17942(10) 1 0 0.0111(4) 
Co2 Co2+ 4 e 0.2869(3) 0.25628(19) 0.17479(10) 1 0 0.0121(4) 
Ca1 Ca2+ 4 e 1.0336(4) 0.1144(3) 0.27179(16) 1 0 0.0195(6) 
Cl1 Cl1- 4 e 0.6367(6) 0.3986(4) 0.4522(2) 1 0 0.0251(7) 
Cl2 Cl1- 4 e 0.1701(6) 0.3182(4) 0.0408(2) 1 0 0.0269(8) 
O1 O2- 4 e 0.4190(13) 0.2329(9) 0.2954(5) 1 0 0.0103(16) 
O2 O2- 4 e 0.7534(13) 0.5231(10) 0.3244(5) 1 0 0.0109(17) 
O3 O2- 4 e 0.6870(13) -0.0214(10) 0.2972(5) 1 0 0.0118(17) 
O4 O2- 4 e 0.5867(13) 0.1937(10) 0.1742(5) 1 0 0.0125(17) 
O5 O2- 4 e 0.8971(13) 0.2312(10) 0.3527(5) 1 0 0.0122(17) 
O6 O2- 4 e 0.6607(14) 0.4870(10) 0.1427(5) 1 0 0.0163(19) 
O7 O2- 4 e 1.1405(16) 0.4411(12) 0.3214(6) 1 0 0.023(2) 
O8 O2- 4 e 0.9697(16) 0.2652(12) 0.1677(6) 1 0 0.022(2) 

loop_
_atom_site_aniso_label
_atom_site_aniso_type_symbol
_atom_site_aniso_U_11
_atom_site_aniso_U_22
_atom_site_aniso_U_33
_atom_site_aniso_U_12
_atom_site_aniso_U_13
_atom_site_aniso_U_23
Te1 Te4+ 0.0087(4) 0.0094(4) 0.0197(4) 0.0010(3) 0.0101(3) -0.0014(3)
Te2 Te4+ 0.0054(3) 0.0078(4) 0.0193(4) -0.0013(3) 0.0057(3) -0.0009(3)
Te3 Te4+ 0.0071(3) 0.0047(4) 0.0194(4) -0.0001(3) 0.0079(3) -0.0003(3)
Co1 Co2+ 0.0051(7) 0.0072(8) 0.0251(9) 0.0010(6) 0.0103(6) 0.0014(7)
Co2 Co2+ 0.0053(7) 0.0071(8) 0.0275(10) -0.0002(6) 0.0103(7) -0.0005(7)
Ca1 Ca2+ 0.0117(11) 0.0293(16) 0.0198(13) 0.0042(11) 0.0088(10) -0.0019(12)
Cl1 Cl1- 0.0362(19) 0.0205(17) 0.0244(18) -0.0018(14) 0.0183(15) 
-0.0025(15)
Cl2 Cl1- 0.0216(16) 0.0247(19) 0.0272(18) 0.0018(14) 0.0019(14) -0.0042(15)
#End of data_418681-ICSD


