data_33525-ICSD
#?2014 by Fachinformationszentrum Karlsruhe, and the U.S. Secretary of 
#Commerce on behalf of the United States.  All rights reserved.
_database_code_ICSD                33525
_audit_creation_date               1982/12/31
_chemical_name_systematic          'Tripotassium Dimanganese Fluoride'
_chemical_formula_structural       'K3 Mn2 F7'
_chemical_formula_sum              'F7 K3 Mn2'
_publ_section_title
;
Abstands- und Koordinations-Verhaeltnisse in den Schichtstrukturen 
der ternaeren Fluoride K2MF4 und K3M2F7 (M(II) = Mg, Mn, Co - Zn)
;
loop_
_citation_id
_citation_journal_abbrev
_citation_year
_citation_journal_volume
_citation_page_first
_citation_page_last
_citation_journal_id_ASTM
primary 'Zeitschrift fuer Anorganische und Allgemeine Chemie (1950) (DE)'
 1982 487 75 84 ZAACAB
_publ_author_name                  'Babel, D.;Herdtweck, E.'
_cell_length_a                     4.187
_cell_length_b                     4.187
_cell_length_c                     21.586
_cell_angle_alpha                  90.
_cell_angle_beta                   90.
_cell_angle_gamma                  90.
_cell_volume                       378.42
_cell_formula_units_Z              2
_symmetry_space_group_name_H-M     'I 4/m m m'
_symmetry_Int_Tables_number        139
_refine_ls_R_factor_all            .0352
loop_
_symmetry_equiv_pos_site_id
_symmetry_equiv_pos_as_xyz
  1	'y, x, -z'
  2	'-y, -x, -z'
  3	'-y, x, -z'
  4	'y, -x, -z'
  5	'-x, y, -z'
  6	'x, -y, -z'
  7	'x, y, -z'
  8	'-x, -y, -z'
  9	'-y, -x, z'
 10	'y, x, z'
 11	'y, -x, z'
 12	'-y, x, z'
 13	'x, -y, z'
 14	'-x, y, z'
 15	'-x, -y, z'
 16	'x, y, z'
 17	'y+.5, x+.5, -z+.5'
 18	'-y+.5, -x+.5, -z+.5'
 19	'-y+.5, x+.5, -z+.5'
 20	'y+.5, -x+.5, -z+.5'
 21	'-x+.5, y+.5, -z+.5'
 22	'x+.5, -y+.5, -z+.5'
 23	'x+.5, y+.5, -z+.5'
 24	'-x+.5, -y+.5, -z+.5'
 25	'-y+.5, -x+.5, z+.5'
 26	'y+.5, x+.5, z+.5'
 27	'y+.5, -x+.5, z+.5'
 28	'-y+.5, x+.5, z+.5'
 29	'x+.5, -y+.5, z+.5'
 30	'-x+.5, y+.5, z+.5'
 31	'-x+.5, -y+.5, z+.5'
 32	'x+.5, y+.5, z+.5'
loop_
_atom_type_symbol
_atom_type_oxidation_number
F1-	-1
K1+	1
Mn2+	2
loop_
_atom_site_label
_atom_site_type_symbol
_atom_site_symmetry_multiplicity
_atom_site_Wyckoff_symbol
_atom_site_fract_x
_atom_site_fract_y
_atom_site_fract_z
_atom_site_occupancy
_atom_site_attached_hydrogens
K1 K1+ 4 e 0 0 0.3139 1. 0 
K2 K1+ 2 b 0 0 0.5 1. 0 
Mn1 Mn2+ 4 e 0 0 0.0978 1. 0 
F1 F1- 4 e 0 0 0.1944(1) 1. 0 
F2 F1- 8 g 0.5 0 0.0961(1) 1. 0 
F3 F1- 2 a 0 0 0 1. 0 

loop_
_atom_site_aniso_label
_atom_site_aniso_type_symbol
_atom_site_aniso_U_11
_atom_site_aniso_U_22
_atom_site_aniso_U_33
_atom_site_aniso_U_12
_atom_site_aniso_U_13
_atom_site_aniso_U_23
K1 K1+ 0.0240(2) 0.0240(2) 0.0134(2) 0 0 0
K2 K1+ 0.0203(2) 0.0203(2) 0.0186(3) 0 0 0
Mn1 Mn2+ 0.0080(1) 0.0080(1) 0.0098(1) 0 0 0
F1 F1- 0.0366(8) 0.0366(8) 0.0111(6) 0 0 0
F2 F1- 0.0088(3) 0.0287(6) 0.0326(6) 0 0 0
F3 F1- 0.0319(9) 0.0319(9) 0.0095(8) 0 0 0
#End of data_33525-ICSD


