data_245730-ICSD
#?2014 by Fachinformationszentrum Karlsruhe, and the U.S. Secretary of 
#Commerce on behalf of the United States.  All rights reserved.
_database_code_ICSD                245730
_audit_creation_date               2008/08/01
_audit_update_record               2013/08/01
_chemical_name_systematic          'Strontium Tecto-dialumodisilicate'
_chemical_formula_structural       'Sr (Al2 Si2 O8)'
_chemical_formula_sum              'Al2 O8 Si2 Sr1'
_publ_section_title
;
Resolving the aluminium ordering in alumosilicates by a combined 
experimental/theoretical study of 27Al electric field gradients
;
loop_
_citation_id
_citation_journal_abbrev
_citation_year
_citation_journal_volume
_citation_journal_issue
_citation_page_first
_citation_page_last
_citation_journal_id_ASTM
primary 'Inorganic Chemistry' 2007 46 14 5456 5458 INOCAJ
_publ_author_name
;
Rocquefelte, X.;Clabau, F.;Paris, M.;Deniard, P.;le Mercier, 
T.;Jobic, S.;Whangbo Myunghwan
;
_cell_length_a                     8.6368
_cell_length_b                     13.0811
_cell_length_c                     14.4075
_cell_angle_alpha                  90
_cell_angle_beta                   115.05
_cell_angle_gamma                  90
_cell_volume                       1474.64
_cell_formula_units_Z              8
_symmetry_space_group_name_H-M     'I 1 2/a 1'
_symmetry_Int_Tables_number        15
loop_
_symmetry_equiv_pos_site_id
_symmetry_equiv_pos_as_xyz
  1	'x+.5, -y, z'
  2	'-x, -y, -z'
  3	'-x+.5, y, -z'
  4	'x, y, z'
  5	'x, -y+.5, z+.5'
  6	'-x+.5, -y+.5, -z+.5'
  7	'-x, y+.5, -z+.5'
  8	'x+.5, y+.5, z+.5'
loop_
_atom_type_symbol
_atom_type_oxidation_number
Al3+	3
O2-	-2
Si4+	4
Sr2+	2
loop_
_atom_site_label
_atom_site_type_symbol
_atom_site_symmetry_multiplicity
_atom_site_Wyckoff_symbol
_atom_site_fract_x
_atom_site_fract_y
_atom_site_fract_z
_atom_site_occupancy
_atom_site_attached_hydrogens
Sr1 Sr2+ 8 f 0.4846 0.2509 0.6849 1. 0 
Si1 Si4+ 8 f 0.2538 0.9241 0.3577 1. 0 
Al1 Al3+ 8 f 0.2495 0.9271 0.1328 1. 0 
Al2 Al3+ 8 f 0.4388 0.1286 0.42 1. 0 
Si2 Si4+ 8 f 0.4297 0.3627 0.4215 1. 0 
O1 O2- 8 f 0.2538 0.8778 0.2496 1. 0 
O2 O2- 8 f 0.3335 0.2492 0.394 1. 0 
O3 O2- 8 f 0.9474 0.1258 0.1413 1. 0 
O4 O2- 8 f 0.0739 0.873 0.3545 1. 0 
O5 O2- 8 f 0.2398 0.06 0.1192 1. 0 
O6 O2- 8 f 0.2531 0.0485 0.3662 1. 0 
O7 O2- 8 f 0.5514 0.3679 0.5468 1. 0 
O8 O2- 8 f 0.5613 0.1231 0.5548 1. 0 

#End of data_245730-ICSD


