data_300179-ICSD
#?2014 by Fachinformationszentrum Karlsruhe, and the U.S. Secretary of 
#Commerce on behalf of the United States.  All rights reserved.
_database_code_ICSD                300179
_audit_creation_date               1991/07/10
_audit_update_record               1991/10/30
_chemical_name_systematic          'Silver Germanate Sulfate'
_chemical_formula_structural       'Ag6 (Ge O4) (S O4)'
_chemical_formula_sum              'Ag6 Ge1 O8 S1'
_publ_section_title
;
Crystal structure of silver(I) germanate sulfate
;
loop_
_citation_id
_citation_journal_abbrev
_citation_year
_citation_journal_volume
_citation_page_first
_citation_page_last
_citation_journal_id_ASTM
primary 'Zeitschrift fuer Kristallographie (1979-2010)' 1991 196 294 295 ZEKRDZ
_publ_author_name                  'Jansen, M.;Heidebrecht, K.'
_cell_length_a                     7.1490(1)
_cell_length_b                     7.1490(1)
_cell_length_c                     18.0630(1)
_cell_angle_alpha                  90.
_cell_angle_beta                   90.
_cell_angle_gamma                  90.
_cell_volume                       923.17
_cell_formula_units_Z              4
_symmetry_space_group_name_H-M     'I 41/a m d Z'
_symmetry_Int_Tables_number        141
_refine_ls_R_factor_all            .053
loop_
_symmetry_equiv_pos_site_id
_symmetry_equiv_pos_as_xyz
  1	'y+.25, x+.75, -z+.25'
  2	'y+.25, -x+.75, -z+.25'
  3	'x, y+.5, -z'
  4	'x, -y, -z'
  5	'-y+.75, x+.75, -z+.25'
  6	'-y+.75, -x+.75, -z+.25'
  7	'-x, y+.5, -z'
  8	'-x, -y, -z'
  9	'-y+.75, -x+.25, z+.75'
 10	'-y+.75, x+.25, z+.75'
 11	'-x, -y+.5, z'
 12	'-x, y, z'
 13	'y+.25, -x+.25, z+.75'
 14	'y+.25, x+.25, z+.75'
 15	'x, -y+.5, z'
 16	'x, y, z'
 17	'y+.75, x+.25, -z+.75'
 18	'y+.75, -x+.25, -z+.75'
 19	'x+.5, y, -z+.5'
 20	'x+.5, -y+.5, -z+.5'
 21	'-y+.25, x+.25, -z+.75'
 22	'-y+.25, -x+.25, -z+.75'
 23	'-x+.5, y, -z+.5'
 24	'-x+.5, -y+.5, -z+.5'
 25	'-y+.25, -x+.75, z+.25'
 26	'-y+.25, x+.75, z+.25'
 27	'-x+.5, -y, z+.5'
 28	'-x+.5, y+.5, z+.5'
 29	'y+.75, -x+.75, z+.25'
 30	'y+.75, x+.75, z+.25'
 31	'x+.5, -y, z+.5'
 32	'x+.5, y+.5, z+.5'
loop_
_atom_type_symbol
_atom_type_oxidation_number
Ag1+	1
Ge4+	4
O2-	-2
S6+	6
loop_
_atom_site_label
_atom_site_type_symbol
_atom_site_symmetry_multiplicity
_atom_site_Wyckoff_symbol
_atom_site_fract_x
_atom_site_fract_y
_atom_site_fract_z
_atom_site_occupancy
_atom_site_attached_hydrogens
Ag1 Ag1+ 16 f 0.28854(6) 0 0 1. 0 
Ag2 Ag1+ 8 e 0 0.25 0.13096(3) 1. 0 
S1 S6+ 4 a 0 0.25 0.875 1. 0 
Ge1 Ge4+ 4 b 0 0.25 0.375 1. 0 
O1 O2- 16 h 0 0.04643(35) 0.31932(15) 1. 0 
O2 O2- 16 h 0 0.08115(50) 0.92160(19) 1. 0 

#End of data_300179-ICSD


