data_51125-ICSD
#?2014 by Fachinformationszentrum Karlsruhe, and the U.S. Secretary of 
#Commerce on behalf of the United States.  All rights reserved.
_database_code_ICSD                51125
_audit_creation_date               2001/07/16
_chemical_name_systematic
;
Potassium Terbium Diterbium(IV) Fluoride
;
_chemical_formula_structural       'K Tb3 F12'
_chemical_formula_sum              'F12 K1 Tb3'
_publ_section_title
;
Synthesis and crystal structure of a new mixed-valence terbium 
fluoride, K Tb(III) Tb(IV)2 F12, and related K Ln(III) M(IV)2 F12 
compounds (M(IV) = Tb, Zr, Hf; Ln(III) = Ce - Lu)
;
loop_
_citation_id
_citation_journal_abbrev
_citation_year
_citation_journal_volume
_citation_page_first
_citation_page_last
_citation_journal_id_ASTM
primary 'Journal of Solid State Chemistry' 1998 139 248 258 JSSCBI
_publ_author_name
;
Largeau, E.;El Ghozzi, M.;Avignant, D.
;
_cell_length_a                     7.715(1)
_cell_length_b                     7.715(1)
_cell_length_c                     7.530(1)
_cell_angle_alpha                  90.
_cell_angle_beta                   90.
_cell_angle_gamma                  90.
_cell_volume                       448.19
_cell_formula_units_Z              2
_symmetry_space_group_name_H-M     'I 4/m'
_symmetry_Int_Tables_number        87
_refine_ls_R_factor_all            .031
loop_
_symmetry_equiv_pos_site_id
_symmetry_equiv_pos_as_xyz
  1	'-y, x, -z'
  2	'y, -x, -z'
  3	'x, y, -z'
  4	'-x, -y, -z'
  5	'y, -x, z'
  6	'-y, x, z'
  7	'-x, -y, z'
  8	'x, y, z'
  9	'-y+.5, x+.5, -z+.5'
 10	'y+.5, -x+.5, -z+.5'
 11	'x+.5, y+.5, -z+.5'
 12	'-x+.5, -y+.5, -z+.5'
 13	'y+.5, -x+.5, z+.5'
 14	'-y+.5, x+.5, z+.5'
 15	'-x+.5, -y+.5, z+.5'
 16	'x+.5, y+.5, z+.5'
loop_
_atom_type_symbol
_atom_type_oxidation_number
F1-	-1
K1+	1
Tb3+	3
Tb4+	4
loop_
_atom_site_label
_atom_site_type_symbol
_atom_site_symmetry_multiplicity
_atom_site_Wyckoff_symbol
_atom_site_fract_x
_atom_site_fract_y
_atom_site_fract_z
_atom_site_occupancy
_atom_site_attached_hydrogens
K1 K1+ 2 a 0 0 0 1. 0 
Tb1 Tb3+ 2 b 0 0 0.5 1. 0 
Tb2 Tb4+ 4 d 0 0.5 0.25 1. 0 
F1 F1- 8 h 0.3455(4) 0.020(1) 0 1. 0 
F2 F1- 16 i 0.2377(3) 0.0335(3) 0.6800(3) 1. 0 

loop_
_atom_site_aniso_label
_atom_site_aniso_type_symbol
_atom_site_aniso_U_11
_atom_site_aniso_U_22
_atom_site_aniso_U_33
_atom_site_aniso_U_12
_atom_site_aniso_U_13
_atom_site_aniso_U_23
K1 K1+ 0.0175(5) 0.0175(5) 0.0219(7) 0 0 0
Tb1 Tb3+ 0.0062(1) 0.0062(1) 0.0065(1) 0 0 0
Tb2 Tb4+ 0.00568(7) 0.00568(7) 0.00475(8) 0 0 0
F1 F1- 0.009(1) 0.029(4) 0.009(1) 0 0 0.0001(9)
F2 F1- 0.011(1) 0.026(2) 0.013(1) -.0002(1) -.0003(1) -.0003(1)
#End of data_51125-ICSD


