data_34069-ICSD
#?2014 by Fachinformationszentrum Karlsruhe, and the U.S. Secretary of 
#Commerce on behalf of the United States.  All rights reserved.
_database_code_ICSD                34069
_audit_creation_date               1986/08/12
_audit_update_record               2006/04/01
_chemical_name_systematic
;
Pentasodium Dititanium Disilicate Phosphate(V) Dioxide
;
_chemical_formula_structural       'Na5 Ti2 (Si2 O7) (P O4) O2'
_chemical_formula_sum              'Na5 O13 P1 Si2 Ti2'
_chemical_name_mineral             Lomonosovite
_publ_section_title
;
Kristallicheskaya struktura lomonosovita Na5 Ti2 (Si2 O7) (P O4) O2
;
loop_
_citation_id
_citation_journal_abbrev
_citation_year
_citation_journal_volume
_citation_page_first
_citation_page_last
_citation_journal_id_ASTM
primary 'Doklady Akademii Nauk SSSR' 1971 197 81 84 DANKAS
_publ_author_name                  'Rastsvetaeva, R.K.'
_cell_length_a                     5.44
_cell_length_b                     7.163
_cell_length_c                     14.83
_cell_angle_alpha                  99.
_cell_angle_beta                   106.
_cell_angle_gamma                  90.
_cell_volume                       548.09
_cell_formula_units_Z              2
_symmetry_space_group_name_H-M     'P -1'
_symmetry_Int_Tables_number        2
_refine_ls_R_factor_all            .104
loop_
_symmetry_equiv_pos_site_id
_symmetry_equiv_pos_as_xyz
  1	'-x, -y, -z'
  2	'x, y, z'
loop_
_atom_type_symbol
_atom_type_oxidation_number
Na1+	1
O2-	-2
P5+	5
Si4+	4
Ti4+	4
loop_
_atom_site_label
_atom_site_type_symbol
_atom_site_symmetry_multiplicity
_atom_site_Wyckoff_symbol
_atom_site_fract_x
_atom_site_fract_y
_atom_site_fract_z
_atom_site_occupancy
_atom_site_attached_hydrogens
Ti1 Ti4+ 2 i 0.781 0.612 0.007 1. 0 
Ti2 Ti4+ 2 i 0.053 0.923 0.216 1. 0 
P1 P5+ 2 i 0.256 0.223 0.433 1. 0 
Si1 Si4+ 2 i 0.508 0.2 0.179 1. 0 
Si2 Si4+ 2 i 0.555 0.638 0.198 1. 0 
Na1 Na1+ 2 i 0.769 0.12 0.008 1. 0 
Na2 Na1+ 2 i 0.054 0.416 0.227 1. 0 
Na3 Na1+ 2 i 0.683 0.975 0.359 1. 0 
Na4 Na1+ 2 i 0.722 0.46 0.398 1. 0 
Na5 Na1+ 2 i 0.184 0.738 0.415 1. 0 
O1 O2- 2 i 0.5 0.612 0.083 1. 0 
O2 O2- 2 i 0.977 0.429 0.072 1. 0 
O3 O2- 2 i 0.425 0.2 0.067 1. 0 
O4 O2- 2 i 0.956 0.834 0.092 1. 0 
O5 O2- 2 i 0.763 0.108 0.208 1. 0 
O6 O2- 2 i 0.538 0.425 0.227 1. 0 
O7 O2- 2 i 0.825 0.737 0.246 1. 0 
O8 O2- 2 i 0.275 0.125 0.208 1. 0 
O9 O2- 2 i 0.338 0.752 0.242 1. 0 
O10 O2- 2 i 0.146 0.022 0.365 1. 0 
O11 O2- 2 i 0.138 0.396 0.395 1. 0 
O12 O2- 2 i 0.538 0.221 0.442 1. 0 
O13 O2- 2 i 0.8 0.773 0.471 1. 0 

#End of data_34069-ICSD


