data_245227-ICSD
#?2014 by Fachinformationszentrum Karlsruhe, and the U.S. Secretary of 
#Commerce on behalf of the United States.  All rights reserved.
_database_code_ICSD                245227
_audit_creation_date               2007/08/01
_chemical_name_systematic
;
Disodium Dierbium Oxide Bis(borate)
;
_chemical_formula_structural       'Na2 Er2 O (B O3)2'
_chemical_formula_sum              'B2 Er2 Na2 O7'
_publ_section_title
;
Studies on some ternary oxyborates of the Na2 O - Me2 O3 - B2 O3 
(Me=rare earth or aluminium) systems: synthesis, structure and 
crystal growth
;
loop_
_citation_id
_citation_journal_abbrev
_citation_year
_citation_journal_volume
_citation_journal_issue
_citation_page_first
_citation_page_last
_citation_journal_id_ASTM
primary 'Journal of Solid State Chemistry' 2006 179 9 2834 2849 JSSCBI
2 'Journal of Solid State Chemistry' 1999 144- 35 44 JSSCBI
_publ_author_name
;
Peshev, P.;Pechev, S.;Nikolov, V.;Gravereau, P.;Chaminade, 
J.P.;Binev, D.;Ivanova, D.
;
_cell_length_a                     10.5757(2)
_cell_length_b                     6.2101(1)
_cell_length_c                     10.1976(2)
_cell_angle_alpha                  90
_cell_angle_beta                   117.73(1)
_cell_angle_gamma                  90
_cell_volume                       592.82
_cell_formula_units_Z              4
_symmetry_space_group_name_H-M     'P 1 21/c 1'
_symmetry_Int_Tables_number        14
_refine_ls_R_factor_all            .0403
loop_
_symmetry_equiv_pos_site_id
_symmetry_equiv_pos_as_xyz
  1	'x, -y+.5, z+.5'
  2	'-x, -y, -z'
  3	'-x, y+.5, -z+.5'
  4	'x, y, z'
loop_
_atom_type_symbol
_atom_type_oxidation_number
B3+	3
Er3+	3
Na1+	1
O2-	-2
loop_
_atom_site_label
_atom_site_type_symbol
_atom_site_symmetry_multiplicity
_atom_site_Wyckoff_symbol
_atom_site_fract_x
_atom_site_fract_y
_atom_site_fract_z
_atom_site_occupancy
_atom_site_attached_hydrogens
_atom_site_B_iso_or_equiv
Er1 Er3+ 4 e 0.1825(3) 0.0822(4) 0.0874(3) 1. 0 0.71(1) 
Er2 Er3+ 4 e 0.9836(3) 0.4609(6) 0.1821(3) 1. 0 0.71(1) 
Na1 Na1+ 4 e 0.526(2) -0.054(3) 0.264(2) 1. 0 1.0(4) 
Na2 Na1+ 4 e 0.608(2) 0.256(4) 0.042(2) 1. 0 1.6(6) 
O1 O2- 4 e 0.974(3) 0.138(4) 0.100(1) 1. 0 0.8(3) 
O2 O2- 4 e 0.320(2) -0.248(4) 0.134(3) 1. 0 0.8(3) 
O3 O2- 4 e 0.171(2) 0.260(4) 0.365(3) 1. 0 0.8(3) 
O4 O2- 4 e 0.146(3) 0.455(3) 0.087(3) 1. 0 0.8(3) 
O5 O2- 4 e 0.397(3) 0.156(4) 0.057(2) 1. 0 0.8(3) 
O6 O2- 4 e 0.854(3) 0.252(4) 0.276(3) 1. 0 0.8(3) 
O7 O2- 4 e 0.367(3) 0.146(4) 0.335(3) 1. 0 0.8(3) 
B1 B3+ 4 e 0.318(2) 0.257(1) -0.077(4) 1. 0 2.1(9) 
B2 B3+ 4 e 0.206(4) -0.343(6) 0.144(12) 1. 0 2.1(9) 

#End of data_245227-ICSD


