data_411336-ICSD
#?2014 by Fachinformationszentrum Karlsruhe, and the U.S. Secretary of 
#Commerce on behalf of the United States.  All rights reserved.
_database_code_ICSD                411336
_audit_creation_date               2002/04/01
_chemical_name_systematic
;
Ammonium Hexaaquanickel Hexafluoroaluminate
;
_chemical_formula_structural       '(N H4) (Ni (H2 O)6) (Al F6)'
_chemical_formula_sum              'H16 Al1 F6 N1 Ni1 O6'
_publ_section_title
;
Synthese, Kristallstruktur and thermischer Abbau von Fluoroaluminaten 
der Zusammensetzung (N H4) (M (H2 O)6) (Al F6) (M= Zn, Ni), (Zn (H2 
O)6) (Al F5 (H2 O)) und (Py H)4 (Al2 F10) x 4(H2 O)
;
loop_
_citation_id
_citation_journal_abbrev
_citation_year
_citation_journal_volume
_citation_page_first
_citation_page_last
_citation_journal_id_ASTM
primary 'Zeitschrift fuer Anorganische und Allgemeine Chemie (1950) (DE)'
 2000 626 2543 2548 ZAACAB
_publ_author_name
;
Adamczyk, B.;Troyanov, S.I.;Schneider, M.;Kemnitz, E.
;
_cell_length_a                     12.685(3)
_cell_length_b                     6.517(1)
_cell_length_c                     12.664(2)
_cell_angle_alpha                  90.
_cell_angle_beta                   94.55(2)
_cell_angle_gamma                  90.
_cell_volume                       1043.61
_cell_formula_units_Z              4
_symmetry_space_group_name_H-M     'P 1 21/c 1'
_symmetry_Int_Tables_number        14
_refine_ls_R_factor_all            .0323
loop_
_symmetry_equiv_pos_site_id
_symmetry_equiv_pos_as_xyz
  1	'x, -y+.5, z+.5'
  2	'-x, -y, -z'
  3	'-x, y+.5, -z+.5'
  4	'x, y, z'
loop_
_atom_type_symbol
_atom_type_oxidation_number
Al3+	3
F1-	-1
H1+	1
N3-	-3
Ni2+	2
O2-	-2
loop_
_atom_site_label
_atom_site_type_symbol
_atom_site_symmetry_multiplicity
_atom_site_Wyckoff_symbol
_atom_site_fract_x
_atom_site_fract_y
_atom_site_fract_z
_atom_site_occupancy
_atom_site_attached_hydrogens
_atom_site_U_iso_or_equiv
Ni1 Ni2+ 4 e 0.770290(12) 0.03592(3) 0.806950(13) 1. 0 0 
Al1 Al3+ 2 d 0.5 0 0.5 1. 0 0 
Al2 Al3+ 2 c 1 0.5 1 1. 0 0 
F1 F1- 4 e 0.63984(6) 0.05425(15) 0.51351(7) 1. 0 0 
F2 F1- 4 e 0.52763(6) -.24674(15) 0.44392(7) 1. 0 0 
F3 F1- 4 e 0.49028(6) 0.1153(2) 0.36768(6) 1. 0 0 
F4 F1- 4 e 0.88310(6) 0.54413(15) 0.91155(7) 1. 0 0 
F5 F1- 4 e 0.95854(6) 0.69482(15) 1.08922(7) 1. 0 0 
F6 F1- 4 e 1.06997(6) 0.69703(14) 0.93055(6) 1. 0 0 
O1 O2- 4 e 0.92695(8) -.0253(2) 0.84368(9) 1. 0 0 
O2 O2- 4 e 0.77555(8) -.1028(2) 0.66255(8) 1. 0 0 
O3 O2- 4 e 0.71332(9) -.2420(2) 0.85440(9) 1. 0 0 
O4 O2- 4 e 0.76208(8) 0.1549(2) 0.95652(8) 1. 0 0 
O5 O2- 4 e 0.61741(8) 0.1329(2) 0.76832(9) 1. 0 0 
O6 O2- 4 e 0.82419(8) 0.3110(2) 0.74422(8) 1. 0 0 
N1 N3- 4 e 0.36071(11) 0.4816(3) 0.37681(12) 1. 0 0 
H1 H1+ 4 e 0.9627(17) 0.0619(41) 0.8657(17) 1. 0 0.026(6) 
H2 H1+ 4 e 0.9495(19) -.1218(46) 0.8704(19) 1. 0 0.036(7) 
H3 H1+ 4 e 0.8376(18) -.1276(40) 0.6418(18) 1. 0 0.032(6) 
H4 H1+ 4 e 0.7378(18) -.0515(40) 0.6159(19) 1. 0 0.033(6) 
H5 H1+ 4 e 0.6595(20) -.2613(42) 0.8852(19) 1. 0 0.040(7) 
H6 H1+ 4 e 0.7632(19) -.3066(43) 0.8855(18) 1. 0 0.039(7) 
H7 H1+ 4 e 0.7164(17) 0.2524(38) 0.9641(16) 1. 0 0.027(5) 
H8 H1+ 4 e 0.8169(19) 0.1955(41) 0.9871(18) 1. 0 0.035(6) 
H9 H1+ 4 e 0.5796(18) 0.0726(42) 0.7327(19) 1. 0 0.032(6) 
H10 H1+ 4 e 0.5784(17) 0.2103(41) 0.8057(17) 1. 0 0.030(6) 
H11 H1+ 4 e 0.8531(18) 0.3920(44) 0.7926(20) 1. 0 0.038(6) 
H12 H1+ 4 e 0.8728(21) 0.2887(46) 0.6995(22) 1. 0 0.051(7) 
H13 H1+ 4 e 0.3144(19) 0.4974(38) 0.4266(20) 1. 0 0.037(6) 
H14 H1+ 4 e 0.3911(30) 0.3677(77) 0.375(3) 1. 0 0.095(13) 
H15 H1+ 4 e 0.4101(27) 0.5648(61) 0.3824(26) 1. 0 0.074(10) 
H16 H1+ 4 e 0.3163(30) 0.5201(58) 0.3249(30) 1. 0 0.079(11) 

loop_
_atom_site_aniso_label
_atom_site_aniso_type_symbol
_atom_site_aniso_U_11
_atom_site_aniso_U_22
_atom_site_aniso_U_33
_atom_site_aniso_U_12
_atom_site_aniso_U_13
_atom_site_aniso_U_23
Ni1 Ni2+ 0.00841(8) 0.00928(10) 0.01023(8) 0.00081(6) 0.00126(5) 0.00034(6)
Al1 Al3+ 0.0064(2) 0.0098(3) 0.0096(2) -.0017(2) 0.0010(2) 0.0006(2)
Al2 Al3+ 0.0080(2) 0.0098(3) 0.0096(2) 0.0010(2) 0.0001(2) 0.0013(2)
F1 F1- 0.0078(3) 0.0216(5) 0.0191(4) -.0038(3) -.0002(3) 0.0037(3)
F2 F1- 0.0161(4) 0.0132(5) 0.0247(4) -.0015(3) 0.0055(3) -.0046(3)
F3 F1- 0.0165(4) 0.0192(5) 0.0129(4) -.0057(3) -.0006(3) 0.0045(3)
F4 F1- 0.0130(4) 0.0181(5) 0.0191(4) 0.0024(3) -.0056(3) 0.0016(3)
F5 F1- 0.0155(4) 0.0148(5) 0.0191(4) -.0020(3) 0.0057(3) -.0044(3)
F6 F1- 0.0144(4) 0.0141(5) 0.0147(4) -.0019(3) 0.0024(3) 0.0031(3)
O1 O2- 0.0111(4) 0.0134(6) 0.0231(5) 0.0015(4) -.0031(4) 0.0032(4)
O2 O2- 0.0120(4) 0.0165(6) 0.0120(4) 0.0010(4) 0.0014(4) -.0015(4)
O3 O2- 0.0126(5) 0.0159(7) 0.0284(6) 0.0019(4) 0.0070(4) 0.0085(4)
O4 O2- 0.0123(4) 0.0182(7) 0.0124(4) 0.0016(4) 0.0005(4) -.0036(4)
O5 O2- 0.0109(4) 0.0217(7) 0.0209(5) 0.0034(4) -.0022(4) -.0099(4)
O6 O2- 0.0152(4) 0.0125(6) 0.0131(4) -.0005(4) 0.0011(4) 0.0006(4)
N1 N3- 0.0192(6) 0.0158(8) 0.0229(6) 0.0003(5) -.0002(5) 0.0024(5)
#End of data_411336-ICSD


