data_170119-ICSD
#?2014 by Fachinformationszentrum Karlsruhe, and the U.S. Secretary of 
#Commerce on behalf of the United States.  All rights reserved.
_database_code_ICSD                170119
_audit_creation_date               2006/04/01
_chemical_name_systematic          'Potassium Molybdenum Iodate'
_chemical_formula_structural       'K2 Mo O2 (I O3)4'
_chemical_formula_sum              'I4 K2 Mo1 O14'
_publ_section_title
;
New d(0) transition metal iodates: Synthesis, structure, and 
characterization of Ba Ti (I O3)6, La Ti O (I O3)5, Ba2 V O2 (I 
O3)4.(I O3), K2 Mo O2 (I O3)4, and Na Mo O2 (I O3)4.H2 O
;
loop_
_citation_id
_citation_journal_abbrev
_citation_year
_citation_journal_volume
_citation_journal_issue
_citation_page_first
_citation_page_last
_citation_journal_id_ASTM
primary 'Inorganic Chemistry' 2005 44 7 2263 2271 INOCAJ
_publ_author_name                  'Ok, K.M.;Halasyamani, P.S.'
_cell_length_a                     12.959(2)
_cell_length_b                     6.0793(9)
_cell_length_c                     17.748(3)
_cell_angle_alpha                  90
_cell_angle_beta                   102.410(4)
_cell_angle_gamma                  90
_cell_volume                       1365.55
_cell_formula_units_Z              4
_symmetry_space_group_name_H-M     'C 1 2/c 1'
_symmetry_Int_Tables_number        15
_refine_ls_R_factor_all            .0279
loop_
_symmetry_equiv_pos_site_id
_symmetry_equiv_pos_as_xyz
  1	'x, -y, z+.5'
  2	'-x, -y, -z'
  3	'-x, y, -z+.5'
  4	'x, y, z'
  5	'x+.5, -y+.5, z+.5'
  6	'-x+.5, -y+.5, -z'
  7	'-x+.5, y+.5, -z+.5'
  8	'x+.5, y+.5, z'
loop_
_atom_type_symbol
_atom_type_oxidation_number
I5+	5
K1+	1
Mo6+	6
O2-	-2
loop_
_atom_site_label
_atom_site_type_symbol
_atom_site_symmetry_multiplicity
_atom_site_Wyckoff_symbol
_atom_site_fract_x
_atom_site_fract_y
_atom_site_fract_z
_atom_site_occupancy
_atom_site_attached_hydrogens
_atom_site_U_iso_or_equiv
I1 I5+ 8 f 0.53453(2) 0.08708(6) 0.590911(18) 1 0 0.01294(13) 
I2 I5+ 8 f 0.71403(3) 0.01345(6) 0.319934(18) 1 0 0.01406(13) 
Mo1 Mo6+ 4 e 0.5000 0.39683(10) 0.7500 1 0 0.01273(16) 
K1 K1+ 8 f 0.68511(12) 0.4996(2) 0.46327(8) 1 0 0.0266(3) 
O1 O2- 8 f 0.4808(3) 0.3278(7) 0.6403(2) 1 0 0.0174(7) 
O2 O2- 8 f 0.4471(3) 0.1765(7) 0.5011(2) 1 0 0.0200(8) 
O3 O2- 8 f 0.6534(3) 0.2237(7) 0.5805(2) 1 0 0.0203(8) 
O4 O2- 8 f 0.6078(3) -0.1111(7) 0.2468(2) 1 0 0.0197(8) 
O5 O2- 8 f 0.6410(3) 0.0938(8) 0.3909(2) 1 0 0.0255(10) 
O6 O2- 8 f 0.7785(4) -0.2273(8) 0.3646(3) 1 0 0.0299(10) 
O7 O2- 8 f 0.3942(3) 0.5711(7) 0.7386(2) 1 0 0.0231(9) 

loop_
_atom_site_aniso_label
_atom_site_aniso_type_symbol
_atom_site_aniso_U_11
_atom_site_aniso_U_22
_atom_site_aniso_U_33
_atom_site_aniso_U_12
_atom_site_aniso_U_13
_atom_site_aniso_U_23
I1 I5+ 0.01268(18) 0.0141(2) 0.01166(19) -0.00091(11) 0.00179(11) 
-0.00078(11)
I2 I5+ 0.01484(19) 0.0144(2) 0.01267(19) -0.00321(11) 0.00240(12) 
-0.00016(12)
Mo1 Mo6+ 0.0168(3) 0.0095(3) 0.0119(3) 0.000 0.0031(2) 0.000
K1 K1+ 0.0311(7) 0.0229(7) 0.0265(7) 0.0080(5) 0.0078(5) 0.0028(5)
O1 O2- 0.0225(18) 0.0174(19) 0.0112(16) 0.0037(15) 0.0012(13) -0.0023(15)
O2 O2- 0.0210(19) 0.022(2) 0.0143(17) 0.0067(16) -0.0016(14) -0.0014(16)
O3 O2- 0.0187(18) 0.020(2) 0.0234(19) -0.0063(15) 0.0081(14) -0.0045(16)
O4 O2- 0.0224(19) 0.018(2) 0.0164(18) -0.0066(15) -0.0004(14) 0.0017(15)
O5 O2- 0.025(2) 0.031(3) 0.023(2) -0.0136(18) 0.0136(16) -0.0091(18)
O6 O2- 0.025(2) 0.025(2) 0.037(2) 0.0022(18) -0.0004(17) 0.012(2)
O7 O2- 0.030(2) 0.020(2) 0.021(2) 0.0081(17) 0.0082(16) 0.0014(16)
#End of data_170119-ICSD


