data_62788-ICSD
#?2014 by Fachinformationszentrum Karlsruhe, and the U.S. Secretary of 
#Commerce on behalf of the United States.  All rights reserved.
_database_code_ICSD                62788
_audit_creation_date               1988/07/15
_audit_update_record               2002/04/01
_chemical_name_systematic
;
Pentasodium Trimanganese(III) Fluoride - Prepared At 913 K
;
_chemical_formula_structural       'Na5 Mn3 F14'
_chemical_formula_sum              'F14 Mn3 Na5'
_publ_section_title
;
Gehoert Na5 Mn3 F14 zum Chiolith-Typ?
;
loop_
_citation_id
_citation_journal_abbrev
_citation_year
_citation_journal_volume
_citation_page_first
_citation_page_last
_citation_journal_id_ASTM
primary 'Zeitschrift fuer Anorganische und Allgemeine Chemie (1950) (DE)'
 1987 551 123 135 ZAACAB
_publ_author_name                  'Wandner, K.H.;Hoppe, R.'
_cell_length_a                     12.445(3)
_cell_length_b                     7.482(1)
_cell_length_c                     12.021(2)
_cell_angle_alpha                  90.
_cell_angle_beta                   90.
_cell_angle_gamma                  90.
_cell_volume                       1119.32
_cell_formula_units_Z              4
_symmetry_space_group_name_H-M     'P n a 21'
_symmetry_Int_Tables_number        33
_refine_ls_R_factor_all            .104
loop_
_symmetry_equiv_pos_site_id
_symmetry_equiv_pos_as_xyz
  1	'x+.5, -y+.5, z'
  2	'-x+.5, y+.5, z+.5'
  3	'-x, -y, z+.5'
  4	'x, y, z'
loop_
_atom_type_symbol
_atom_type_oxidation_number
F1-	-1
Mn3+	3
Na1+	1
loop_
_atom_site_label
_atom_site_type_symbol
_atom_site_symmetry_multiplicity
_atom_site_Wyckoff_symbol
_atom_site_fract_x
_atom_site_fract_y
_atom_site_fract_z
_atom_site_occupancy
_atom_site_attached_hydrogens
Na1 Na1+ 4 a 0.4164(3) 0.8227(5) 0.7486(11) 1. 0 
Na2 Na1+ 4 a 0.2338(6) 0.7234(13) 0.9984(10) 1. 0 
Na3 Na1+ 4 a 0.0777(3) 0.7945(5) 0.2501(9) 1. 0 
Na4 Na1+ 4 a 0.2385(7) 0.7271(9) 0.5027(7) 1. 0 
Na5 Na1+ 4 a 0.0120(8) 0.0183(14) 0.0172(9) 1. 0 
Mn1 Mn3+ 4 a 0.3381(1) 0.5016(3) 0.2500(4) 1. 0 
Mn2 Mn3+ 4 a 0.5017(4) 0.0020(6) 0.5 1. 0 
Mn3 Mn3+ 4 a 0.3149(1) 0.9998(3) 0.2494(4) 1. 0 
F1 F1- 4 a 0.9224(7) 0.4296(10) 0.3358(6) 1. 0 
F2 F1- 4 a 0.1997(4) 0.5803(7) 0.2441(12) 1. 0 
F3 F1- 4 a 0.6010(7) 0.149(1) 0.4457(6) 1. 0 
F4 F1- 4 a 0.1115(5) 0.2641(8) 0.7574(13) 1. 0 
F5 F1- 4 a 0.2803(11) 0.4490(16) 0.6397(11) 1. 0 
F6 F1- 4 a 0.058(1) 0.6966(15) 0.4331(10) 1. 0 
F7 F1- 4 a 0.4397(8) 0.2043(12) 0.5619(9) 1. 0 
F8 F1- 4 a 0.2843(9) 0.4445(14) 0.8593(8) 1. 0 
F9 F1- 4 a 0.2368(4) 0.7512(8) 0.7537(15) 1. 0 
F10 F1- 4 a 0.5179(4) 0.5615(7) 0.7527(14) 1. 0 
F11 F1- 4 a 0.8884(5) 0.6351(9) 0.5559(6) 1. 0 
F12 F1- 4 a 0.3381(9) 0.5060(15) 0.1059(9) 1. 0 
F13 F1- 4 a 0.1572(7) 0.9949(12) 0.9073(5) 1. 0 
F14 F1- 4 a 0.5894(5) 0.9220(9) 0.6414(6) 1. 0 

loop_
_atom_site_aniso_label
_atom_site_aniso_type_symbol
_atom_site_aniso_U_11
_atom_site_aniso_U_22
_atom_site_aniso_U_33
_atom_site_aniso_U_12
_atom_site_aniso_U_13
_atom_site_aniso_U_23
Na1 Na1+ 0.0404(16) 0.0440(17) 0.0452(16) 0.0020(16) -0.0013(23) 0.0058(23)
Na2 Na1+ 0.0188(19) 0.0349(22) 0.0533(23) 0.005(2) -0.0123(21) 0.0035(23)
Na3 Na1+ 0.0419(16) 0.0427(17) 0.0453(16) 0.0049(15) 0.0258(21) 0.0108(22)
Na4 Na1+ 0.0523(21) 0.0309(19) 0.0320(16) -0.0157(19) -0.0105(18) 
0.0160(19)
Na5 Na1+ 0.0385(21) 0.0648(22) 0.0773(24) 0.0226(21) 0.032(2) 0.0316(22)
Mn1 Mn3+ 0.0326(6) 0.0322(7) 0.0387(7) -0.0014(8) -0.0169(12) 0.0232(11)
Mn2 Mn3+ 0.0296(6) 0.0346(6) 0.0321(5) -0.0005(8) -0.0014(5) -0.0018(9)
Mn3 Mn3+ 0.0337(6) 0.0312(6) 0.0327(6) 0.0014(8) 0.0003(15) 0.0059(13)
F1 F1- 0.0778(23) 0.0533(22) 0.0564(22) 0.0143(22) 0.0053(22) -0.0267(21)
F2 F1- 0.0388(19) 0.0375(19) 0.0537(21) 0.0081(18) -0.0024(23) 0.0048(24)
F3 F1- 0.0621(22) 0.0516(22) 0.0495(22) 0.0092(22) -0.0139(21) -0.0096(21)
F4 F1- 0.0443(20) 0.0370(19) 0.0788(22) -0.0010(18) 0.0252(23) 0.0015(24)
F5 F1- 0.0748(23) 0.0535(23) 0.0608(23) 0.0034(23) -0.0205(22) -0.0113(22)
F6 F1- 0.0554(23) 0.0577(23) 0.0488(22) 0.0113(23) -0.0116(22) 0.0139(22)
F7 F1- 0.0325(21) 0.0243(20) 0.0436(21) 0.0151(19) 0.0073(20) 0.0011(20)
F8 F1- 0.0430(21) 0.0489(22) 0.031(2) 0.0147(21) -0.0184(20) 0.0006(20)
F9 F1- 0.0340(19) 0.0354(19) 0.0893(22) -0.0006(18) -0.0124(24) 0.0032(24)
F10 F1- 0.0340(19) 0.0348(19) 0.0925(22) 0.0020(18) 0.0281(23) -0.0103(24)
F11 F1- 0.0254(20) 0.0533(22) 0.0393(21) 0.0139(20) 0.0121(19) -0.0129(20)
F12 F1- 0.0330(22) 0.0527(24) 0.0436(24) 0.0074(23) -0.0036(23) 0.0070(24)
F13 F1- 0.0509(21) 0.0388(20) 0.0089(16) 0.0198(21) 0.0153(17) 0.0124(20)
F14 F1- 0.0372(20) 0.0420(21) 0.0444(21) -0.0043(20) -0.0282(19) 
-0.0084(20)
#End of data_62788-ICSD


