data_67676-ICSD
#?2014 by Fachinformationszentrum Karlsruhe, and the U.S. Secretary of 
#Commerce on behalf of the United States.  All rights reserved.
_database_code_ICSD                67676
_audit_creation_date               1994/01/19
_audit_update_record               1997/11/10
_chemical_name_systematic          'Aluminium Tantalum Oxide'
_chemical_formula_structural       'Al Ta O4'
_chemical_formula_sum              'Al1 O4 Ta1'
_chemical_name_mineral             Alumotantite
_publ_section_title
;
The Crystal Structure of Alumotantite: Its Relation to the Structures 
of Simpsonite
;
loop_
_citation_id
_citation_journal_abbrev
_citation_year
_citation_journal_volume
_citation_page_first
_citation_page_last
_citation_journal_id_ASTM
primary 'Canadian Mineralogist' 1992 30 653 662 CAMIA6
_publ_author_name
;
Ercit, T.S.;Hawthorne, F.C.;Cerny, P.
;
_cell_length_a                     4.473(1)
_cell_length_b                     11.308(4)
_cell_length_c                     4.775(1)
_cell_angle_alpha                  90.
_cell_angle_beta                   90.
_cell_angle_gamma                  90.
_cell_volume                       241.52
_cell_formula_units_Z              4
_symmetry_space_group_name_H-M     'P b c n'
_symmetry_Int_Tables_number        60
_refine_ls_R_factor_all            .044
loop_
_symmetry_equiv_pos_site_id
_symmetry_equiv_pos_as_xyz
  1	'x, -y, z+.5'
  2	'-x+.5, y+.5, z'
  3	'x+.5, y+.5, -z+.5'
  4	'-x, -y, -z'
  5	'-x, y, -z+.5'
  6	'x+.5, -y+.5, -z'
  7	'-x+.5, -y+.5, z+.5'
  8	'x, y, z'
loop_
_atom_type_symbol
_atom_type_oxidation_number
Al3+	3
O2-	-2
Ta5+	5
loop_
_atom_site_label
_atom_site_type_symbol
_atom_site_symmetry_multiplicity
_atom_site_Wyckoff_symbol
_atom_site_fract_x
_atom_site_fract_y
_atom_site_fract_z
_atom_site_occupancy
_atom_site_attached_hydrogens
_atom_site_B_iso_or_equiv
Ta1 Ta5+ 4 c 0 0.16817(9) 0.25 1. 0 0 
Al1 Al3+ 4 c 0 0.4346(7) 0.25 1. 0 0.44(11) 
O1 O2- 8 d 0.222(4) 0.312(1) 0.086(4) 1. 0 0 
O2 O2- 8 d 0.266(4) 0.058(1) 0.073(4) 1. 0 0 

#End of data_67676-ICSD


