data_72508-ICSD
#?2014 by Fachinformationszentrum Karlsruhe, and the U.S. Secretary of 
#Commerce on behalf of the United States.  All rights reserved.
_database_code_ICSD                72508
_audit_creation_date               1994/01/19
_chemical_name_systematic          'Rubidium Aluminium Diarsenate'
_chemical_formula_structural       'Rb Al (As2 O7)'
_chemical_formula_sum              'Al1 As2 O7 Rb1'
_publ_section_title                'Structure de RbAlAs2O7'
loop_
_citation_id
_citation_journal_abbrev
_citation_year
_citation_journal_volume
_citation_page_first
_citation_page_last
_citation_journal_id_ASTM
primary 'Acta Crystallographica, Section C: Crystal Structure Communications'
 1993 49 425 427 ACSCEE
_publ_author_name                  'Boughzala, H.;Driss, A.;Jouini, T.'
_cell_length_a                     8.233(5)
_cell_length_b                     6.34(2)
_cell_length_c                     6.241(5)
_cell_angle_alpha                  102.6(1)
_cell_angle_beta                   103.89(7)
_cell_angle_gamma                  96.7(1)
_cell_volume                       303.67
_cell_formula_units_Z              2
_symmetry_space_group_name_H-M     'P -1'
_symmetry_Int_Tables_number        2
_refine_ls_R_factor_all            .049
loop_
_symmetry_equiv_pos_site_id
_symmetry_equiv_pos_as_xyz
  1	'-x, -y, -z'
  2	'x, y, z'
loop_
_atom_type_symbol
_atom_type_oxidation_number
Al3+	3
As5+	5
O2-	-2
Rb1+	1
loop_
_atom_site_label
_atom_site_type_symbol
_atom_site_symmetry_multiplicity
_atom_site_Wyckoff_symbol
_atom_site_fract_x
_atom_site_fract_y
_atom_site_fract_z
_atom_site_occupancy
_atom_site_attached_hydrogens
As1 As5+ 2 i 0.3361(1) 0.2428(1) 0.4909(1) 1. 0 
As2 As5+ 2 i 0.1868(1) 0.5275(1) 0.8232(1) 1. 0 
Al1 Al3+ 2 i 0.2286(3) 0.6860(3) 0.3757(4) 1. 0 
Rb1 Rb1+ 1 a 0 0 0 1. 0 
Rb2 Rb1+ 1 d 0.5 0 0 1. 0 
O1 O2- 2 i 0.2295(7) -.0110(8) 0.4231(9) 1. 0 
O2 O2- 2 i 0.5333(7) 0.2556(9) 0.4696(9) 1. 0 
O3 O2- 2 i 0.2227(7) 0.3780(8) 0.3250(9) 1. 0 
O4 O2- 2 i 0.3392(7) 0.3620(9) 0.7739(9) 1. 0 
O5 O2- 2 i 0.0085(7) 0.3544(8) 0.7757(9) 1. 0 
O6 O2- 2 i 0.1874(7) 0.7077(9) 0.6665(10) 1. 0 
O7 O2- 2 i 0.2721(7) 0.6766(9) 0.0896(9) 1. 0 

#End of data_72508-ICSD


