data_30886-ICSD
#?2014 by Fachinformationszentrum Karlsruhe, and the U.S. Secretary of 
#Commerce on behalf of the United States.  All rights reserved.
_database_code_ICSD                30886
_audit_creation_date               1985/05/29
_audit_update_record               2012/02/01
_chemical_name_systematic          'Potassium Copper Phosphate(V) - Ht'
_chemical_formula_structural       'K Cu (P O4)'
_chemical_formula_sum              'Cu1 K1 O4 P1'
_publ_section_title
;
Synthese und Kristallstruktur des rhombischen Kalium-kupfer(II)-
phosphates K Cu P O4
;
loop_
_citation_id
_citation_journal_abbrev
_citation_year
_citation_journal_volume
_citation_page_first
_citation_page_last
_citation_journal_id_ASTM
primary 'Zeitschrift fuer Kristallographie (1979-2010)' 1984 168 113 119 ZEKRDZ
_publ_author_name                  'Effenberger, H.'
_cell_length_a                     17.94(2)
_cell_length_b                     6.742(6)
_cell_length_c                     6.795(6)
_cell_angle_alpha                  90.
_cell_angle_beta                   90.
_cell_angle_gamma                  90.
_cell_volume                       821.87
_cell_formula_units_Z              8
_symmetry_space_group_name_H-M     'P b c a'
_symmetry_Int_Tables_number        61
_refine_ls_R_factor_all            .031
loop_
_symmetry_equiv_pos_site_id
_symmetry_equiv_pos_as_xyz
  1	'x+.5, y, -z+.5'
  2	'x, -y+.5, z+.5'
  3	'-x+.5, y+.5, z'
  4	'-x, -y, -z'
  5	'-x+.5, -y, z+.5'
  6	'-x, y+.5, -z+.5'
  7	'x+.5, -y+.5, -z'
  8	'x, y, z'
loop_
_atom_type_symbol
_atom_type_oxidation_number
Cu2+	2
K1+	1
O2-	-2
P5+	5
loop_
_atom_site_label
_atom_site_type_symbol
_atom_site_symmetry_multiplicity
_atom_site_Wyckoff_symbol
_atom_site_fract_x
_atom_site_fract_y
_atom_site_fract_z
_atom_site_occupancy
_atom_site_attached_hydrogens
K1 K1+ 8 c 0.17671(4) 0.52905(14) 0.51165(12) 1. 0 
Cu1 Cu2+ 8 c -.00645(2) 0.20213(6) 0.22543(6) 1. 0 
P1 P5+ 8 c 0.10353(4) 0.46103(12) -.01982(12) 1. 0 
O1 O2- 8 c 0.1828(1) 0.4415(4) -.0888(4) 1. 0 
O2 O2- 8 c 0.0972(1) 0.6100(4) 0.1524(4) 1. 0 
O3 O2- 8 c 0.0515(1) 0.5366(4) -.1939(3) 1. 0 
O4 O2- 8 c 0.0694(1) 0.2556(1) 0.0323(4) 1. 0 

#End of data_30886-ICSD


