data_20254-ICSD
#?2014 by Fachinformationszentrum Karlsruhe, and the U.S. Secretary of 
#Commerce on behalf of the United States.  All rights reserved.
_database_code_ICSD                20254
_audit_creation_date               1981/12/31
_audit_update_record               2012/08/01
_chemical_name_systematic
;
Potassium Neodymium Tetrakis(catena-phosphate(V))
;
_chemical_formula_structural       'K Nd (P O3)4'
_chemical_formula_sum              'K1 Nd1 O12 P4'
_publ_section_title
;
Production, structure and properties of single crystals of K, Nd-
tetraphosphates
;
loop_
_citation_id
_citation_journal_abbrev
_citation_year
_citation_journal_volume
_citation_page_first
_citation_page_last
_citation_journal_id_ASTM
primary 'Doklady Akademii Nauk SSSR' 1981 259 1102 1105 DANKAS
_publ_author_name
;
Litvin, B.N.;Dorokhova, G.I.;Filipenko, O.S.
;
_cell_length_a                     7.888
_cell_length_b                     10.77
_cell_length_c                     12.447
_cell_angle_alpha                  90.
_cell_angle_beta                   90.
_cell_angle_gamma                  112.7
_cell_volume                       975.51
_cell_formula_units_Z              4
_symmetry_space_group_name_H-M     'B 1 1 2/b'
_symmetry_Int_Tables_number        15
_refine_ls_R_factor_all            .05
loop_
_symmetry_equiv_pos_site_id
_symmetry_equiv_pos_as_xyz
  1	'x, y+.5, -z'
  2	'-x, -y, -z'
  3	'-x, -y+.5, z'
  4	'x, y, z'
  5	'x+.5, y+.5, -z+.5'
  6	'-x+.5, -y, -z+.5'
  7	'-x+.5, -y+.5, z+.5'
  8	'x+.5, y, z+.5'
loop_
_atom_type_symbol
_atom_type_oxidation_number
K1+	1
Nd3+	3
O2-	-2
P5+	5
loop_
_atom_site_label
_atom_site_type_symbol
_atom_site_symmetry_multiplicity
_atom_site_Wyckoff_symbol
_atom_site_fract_x
_atom_site_fract_y
_atom_site_fract_z
_atom_site_occupancy
_atom_site_attached_hydrogens
Nd1 Nd3+ 4 e 0 0.25 0.1298 1. 0 
K1 K1+ 4 e 0 -.25 -.433 1. 0 
P1 P5+ 8 f -.2089 -.0002 -.0796 1. 0 
P2 P5+ 8 f 0.0249 0.0592 -.2722 1. 0 
O1 O2- 8 f -.1528 -.1121 -.0484 1. 0 
O2 O2- 8 f -.0859 0.073 -.3751 1. 0 
O3 O2- 8 f 0.2047 0.1731 -.2743 1. 0 
O4 O2- 8 f 0.0138 -.0818 -.2637 1. 0 
O5 O2- 8 f -.2146 0.0963 0.0043 1. 0 
O6 O2- 8 f -.0934 0.0861 -.1774 1. 0 

#End of data_20254-ICSD


