data_417252-ICSD
#?2014 by Fachinformationszentrum Karlsruhe, and the U.S. Secretary of 
#Commerce on behalf of the United States.  All rights reserved.
_database_code_ICSD                417252
_audit_creation_date               2008/02/01
_chemical_name_systematic          'Calcium Heptafluorotantalate'
_chemical_formula_structural       'Ca (Ta F7)'
_chemical_formula_sum              'Ca1 F7 Ta1'
_publ_section_title
;
Metal (Ca, Ba, Sr, Pb) heptafluorotantalates(V): Synthesis, Raman 
spectra and crystal structures.
;
loop_
_citation_id
_citation_journal_abbrev
_citation_year
_citation_journal_volume
_citation_journal_issue
_citation_page_first
_citation_page_last
_citation_journal_id_ASTM
primary 'Solid State Sciences' 2007 9 1 88 94 SSSCFJ
_publ_author_name
;
Bunic, T.;Tramsek, M.;Goreshnik, E.;Zemva, B.
;
_cell_length_a                     9.793(3)
_cell_length_b                     11.608(3)
_cell_length_c                     13.359(4)
_cell_angle_alpha                  90
_cell_angle_beta                   90.539(13)
_cell_angle_gamma                  90
_cell_volume                       1518.55
_cell_formula_units_Z              12
_symmetry_space_group_name_H-M     'P 1 21/a 1'
_symmetry_Int_Tables_number        14
_refine_ls_R_factor_all            .0839
loop_
_symmetry_equiv_pos_site_id
_symmetry_equiv_pos_as_xyz
  1	'x+.5, -y+.5, z'
  2	'-x, -y, -z'
  3	'-x+.5, y+.5, -z'
  4	'x, y, z'
loop_
_atom_type_symbol
_atom_type_oxidation_number
Ca2+	2
F1-	-1
Ta5+	5
loop_
_atom_site_label
_atom_site_type_symbol
_atom_site_symmetry_multiplicity
_atom_site_Wyckoff_symbol
_atom_site_fract_x
_atom_site_fract_y
_atom_site_fract_z
_atom_site_occupancy
_atom_site_attached_hydrogens
_atom_site_U_iso_or_equiv
Ta1 Ta5+ 4 e 0.07973(11) 0.64899(10) 0.15502(8) 1 0 0.0198(4) 
Ta2 Ta5+ 4 e 0.24325(11) 0.35276(10) 0.48731(8) 1 0 0.0196(4) 
Ta3 Ta5+ 4 e 0.58978(11) 0.37810(9) 0.17544(8) 1 0 0.0196(4) 
Ca1 Ca2+ 4 e 0.4195(5) 0.5930(5) 0.3354(4) 1 0 0.0232(14) 
Ca2 Ca2+ 4 e 0.2612(5) 0.4005(4) 0.0367(4) 1 0 0.0239(13) 
Ca3 Ca2+ 4 e -0.0485(6) 0.4164(5) 0.3207(4) 1 0 0.0267(14) 
F1 F1- 4 e 0.1742(15) 0.7779(13) 0.0935(11) 1 0 0.044(4) 
F2 F1- 4 e -0.0023(13) 0.7933(12) 0.2053(11) 1 0 0.035(4) 
F3 F1- 4 e 0.2285(15) 0.6476(13) 0.2447(12) 1 0 0.041(5) 
F4 F1- 4 e 0.1919(13) 0.5885(12) 0.0453(10) 1 0 0.032(4) 
F5 F1- 4 e 0.0843(12) 0.4752(11) 0.1669(10) 1 0 0.027(4) 
F6 F1- 4 e -0.0699(13) 0.6298(11) 0.0656(11) 1 0 0.030(4) 
F7 F1- 4 e -0.0310(16) 0.6052(13) 0.2685(10) 1 0 0.041(4) 
F8 F1- 4 e 0.2985(13) 0.2385(12) 0.3888(11) 1 0 0.035(4) 
F9 F1- 4 e 0.1853(15) 0.4776(15) 0.5677(11) 1 0 0.045(5) 
F10 F1- 4 e 0.3810(14) 0.3299(12) 0.5896(11) 1 0 0.037(4) 
F11 F1- 4 e 0.1879(14) 0.2151(14) 0.5615(11) 1 0 0.041(5) 
F12 F1- 4 e 0.1889(16) 0.4497(14) 0.3656(11) 1 0 0.054(5) 
F13 F1- 4 e 0.4003(14) 0.4426(12) 0.4465(11) 1 0 0.041(4) 
F14 F1- 4 e 0.0456(15) 0.3337(14) 0.4644(11) 1 0 0.045(5) 
F15 F1- 4 e 0.5220(14) 0.2598(13) 0.2627(10) 1 0 0.037(4) 
F16 F1- 4 e 0.6881(15) 0.2505(13) 0.1258(13) 1 0 0.054(5) 
F17 F1- 4 e 0.5970(15) 0.4726(13) 0.2979(11) 1 0 0.045(5) 
F18 F1- 4 e 0.4094(11) 0.4551(12) 0.1892(10) 1 0 0.028(4) 
F19 F1- 4 e 0.6164(13) 0.4935(13) 0.0783(10) 1 0 0.034(4) 
F20 F1- 4 e 0.4727(15) 0.3137(13) 0.0762(11) 1 0 0.042(4) 
F21 F1- 4 e 0.7856(14) 0.4097(14) 0.2021(11) 1 0 0.040(4) 

loop_
_atom_site_aniso_label
_atom_site_aniso_type_symbol
_atom_site_aniso_U_11
_atom_site_aniso_U_22
_atom_site_aniso_U_33
_atom_site_aniso_U_12
_atom_site_aniso_U_13
_atom_site_aniso_U_23
Ta1 Ta5+ 0.0210(8) 0.0186(6) 0.0200(6) 0.0000(5) 0.0057(5) -0.0008(5)
Ta2 Ta5+ 0.0213(8) 0.0191(6) 0.0185(6) 0.0006(5) 0.0052(5) 0.0045(5)
Ta3 Ta5+ 0.0223(8) 0.0165(6) 0.0200(6) -0.0001(5) 0.0079(5) -0.0005(5)
Ca1 Ca2+ 0.025(3) 0.017(3) 0.028(3) 0.008(3) 0.008(3) 0.003(3)
Ca2 Ca2+ 0.024(3) 0.015(3) 0.032(3) 0.002(2) 0.011(3) 0.004(3)
Ca3 Ca2+ 0.033(4) 0.018(3) 0.029(3) 0.008(3) 0.004(3) -0.001(3)
F1 F1- 0.058(11) 0.019(10) 0.056(11) -0.011(8) 0.031(9) -0.006(8)
F2 F1- 0.029(9) 0.016(9) 0.061(11) -0.003(7) 0.012(8) -0.014(9)
F3 F1- 0.045(11) 0.028(10) 0.049(11) 0.011(8) 0.004(9) -0.004(8)
F4 F1- 0.034(9) 0.024(9) 0.040(10) 0.009(7) 0.025(8) 0.002(8)
F5 F1- 0.030(9) 0.016(8) 0.034(9) -0.010(7) 0.008(7) 0.010(7)
F6 F1- 0.020(9) 0.023(9) 0.045(10) 0.010(7) -0.021(8) 0.006(8)
F7 F1- 0.079(12) 0.023(10) 0.021(8) 0.006(9) 0.000(9) 0.009(8)
F8 F1- 0.034(9) 0.019(9) 0.052(10) 0.011(7) 0.016(8) -0.014(8)
F9 F1- 0.045(10) 0.060(13) 0.029(9) -0.018(10) -0.005(8) -0.001(9)
F10 F1- 0.041(10) 0.018(9) 0.054(11) 0.024(8) 0.011(8) -0.001(8)
F11 F1- 0.036(10) 0.036(11) 0.052(11) -0.002(8) 0.001(9) 0.025(9)
F12 F1- 0.095(14) 0.035(11) 0.032(10) 0.028(10) 0.008(10) 0.023(9)
F13 F1- 0.063(11) 0.014(9) 0.045(11) -0.005(8) 0.007(9) 0.004(8)
F14 F1- 0.057(11) 0.045(11) 0.033(10) -0.038(9) 0.010(9) -0.002(9)
F15 F1- 0.049(10) 0.018(9) 0.044(10) -0.005(8) 0.022(8) 0.019(8)
F16 F1- 0.062(11) 0.010(9) 0.091(15) 0.001(8) 0.031(10) 0.004(10)
F17 F1- 0.078(12) 0.024(10) 0.035(10) -0.011(9) 0.020(9) 0.004(8)
F18 F1- 0.011(8) 0.029(9) 0.043(10) 0.007(7) 0.008(7) 0.007(8)
F19 F1- 0.046(10) 0.030(10) 0.027(9) 0.002(8) 0.006(8) 0.010(8)
F20 F1- 0.052(11) 0.025(10) 0.050(11) 0.007(8) -0.001(9) 0.000(9)
F21 F1- 0.036(10) 0.051(12) 0.032(9) -0.022(9) 0.007(8) -0.013(9)
#End of data_417252-ICSD


