data_68754-ICSD
#?2014 by Fachinformationszentrum Karlsruhe, and the U.S. Secretary of 
#Commerce on behalf of the United States.  All rights reserved.
_database_code_ICSD                68754
_audit_creation_date               1994/06/30
_audit_update_record               2006/04/01
_chemical_name_systematic          'Dicalcium Silicate'
_chemical_formula_structural       'Ca2 (Si O4)'
_chemical_formula_sum              'Ca2 O4 Si1'
_chemical_name_mineral             Calcio-olivine
_publ_section_title
;
Precision estimates of interatomic distances using site occupancies, 
ionization potentials and polarizability in Pbnm silicate olivines
;
loop_
_citation_id
_citation_journal_abbrev
_citation_year
_citation_journal_volume
_citation_page_first
_citation_page_last
_citation_journal_id_ASTM
primary 'Acta Crystallographica, Section B: Structural Science'
 1990 46 160 165 ASBSDK
2 'Golden Book of Phase Transitions, Wroclaw' 2002 1 1 123 GBOPT5
_publ_author_name
;
della Giusta, A.;Ottonello, G.;Secco, L.
;
_cell_length_a                     5.084
_cell_length_b                     11.294
_cell_length_c                     6.774
_cell_angle_alpha                  90.
_cell_angle_beta                   90.
_cell_angle_gamma                  90.
_cell_volume                       388.95
_cell_formula_units_Z              4
_symmetry_space_group_name_H-M     'P b n m'
_symmetry_Int_Tables_number        62
loop_
_symmetry_equiv_pos_site_id
_symmetry_equiv_pos_as_xyz
  1	'-x+.5, y+.5, z'
  2	'x, y, -z+.5'
  3	'x+.5, -y+.5, z+.5'
  4	'-x, -y, -z'
  5	'x+.5, -y+.5, -z'
  6	'-x, -y, z+.5'
  7	'-x+.5, y+.5, -z+.5'
  8	'x, y, z'
loop_
_atom_type_symbol
_atom_type_oxidation_number
Ca2+	2
O2-	-2
Si4+	4
loop_
_atom_site_label
_atom_site_type_symbol
_atom_site_symmetry_multiplicity
_atom_site_Wyckoff_symbol
_atom_site_fract_x
_atom_site_fract_y
_atom_site_fract_z
_atom_site_occupancy
_atom_site_attached_hydrogens
Ca1 Ca2+ 4 a 0 0 0 1. 0 
Si1 Si4+ 4 c 0.4281 0.0963 0.25 1. 0 
Ca2 Ca2+ 4 c 0.9983 0.2827 0.25 1. 0 
O1 O2- 4 c 0.7493 0.0927 0.25 1. 0 
O2 O2- 4 c 0.2987 -.0382 0.25 1. 0 
O3 O2- 8 d 0.299 0.163 0.057 1. 0 

#End of data_68754-ICSD


