data_34397-ICSD
#?2014 by Fachinformationszentrum Karlsruhe, and the U.S. Secretary of 
#Commerce on behalf of the United States.  All rights reserved.
_database_code_ICSD                34397
_audit_creation_date               1980/01/01
_audit_update_record               2012/02/01
_chemical_name_systematic          'Magnesium Oxide Bis(diborate)'
_chemical_formula_structural       'Mg O (B2 O3)2'
_chemical_formula_sum              'B4 Mg1 O7'
_publ_section_title
;
Zur Struktur des Magnesiumdiborats, Mg O (B2 O3)2
;
loop_
_citation_id
_citation_journal_abbrev
_citation_year
_citation_journal_volume
_citation_page_first
_citation_page_last
_citation_journal_id_ASTM
primary 'Neues Jahrbuch fuer Mineralogie. Monatshefte (Band=Jahr) (1950-)'
 1966 1966 142 148 NJMMAW
_publ_author_name                  'Bartl, H.;Schuckmann, W.'
_cell_length_a                     13.73(3)
_cell_length_b                     7.97(3)
_cell_length_c                     8.62(3)
_cell_angle_alpha                  90.
_cell_angle_beta                   90.
_cell_angle_gamma                  90.
_cell_volume                       943.27
_cell_formula_units_Z              8
_symmetry_space_group_name_H-M     'P b c a'
_symmetry_Int_Tables_number        61
_refine_ls_R_factor_all            .064
loop_
_symmetry_equiv_pos_site_id
_symmetry_equiv_pos_as_xyz
  1	'x+.5, y, -z+.5'
  2	'x, -y+.5, z+.5'
  3	'-x+.5, y+.5, z'
  4	'-x, -y, -z'
  5	'-x+.5, -y, z+.5'
  6	'-x, y+.5, -z+.5'
  7	'x+.5, -y+.5, -z'
  8	'x, y, z'
loop_
_atom_type_symbol
_atom_type_oxidation_number
B3+	3
Mg2+	2
O2-	-2
loop_
_atom_site_label
_atom_site_type_symbol
_atom_site_symmetry_multiplicity
_atom_site_Wyckoff_symbol
_atom_site_fract_x
_atom_site_fract_y
_atom_site_fract_z
_atom_site_occupancy
_atom_site_attached_hydrogens
_atom_site_B_iso_or_equiv
Mg1 Mg2+ 8 c 0.1110(2) 0.1158(2) 0.1021(3) 1. 0 0.56 
O1 O2- 8 c 0.1939(3) 0.0973(7) 0.4280(6) 1. 0 0.56 
O2 O2- 8 c 0.1071(4) 0.3575(8) 0.1582(6) 1. 0 0.56 
O3 O2- 8 c 0.0078(4) 0.3318(8) 0.3992(6) 1. 0 0.66 
O4 O2- 8 c 0.1476(3) 0.4934(8) 0.3952(6) 1. 0 0.46 
O5 O2- 8 c 0.2522(6) 0.5271(8) 0.1770(5) 1. 0 0.51 
O6 O2- 8 c 0.0048(5) 0.5817(6) 0.253(1) 1. 0 0.5 
O7 O2- 8 c 0.1116(4) 0.6361(8) 0.0430(7) 1. 0 0.71 
B1 B3+ 8 c 0.0666(5) 0.433(1) 0.2945(8) 1. 0 0.37 
B2 B3+ 8 c 0.2358(4) 0.544(1) 0.3345(8) 1. 0 0.33 
B3 B3+ 8 c 0.1657(5) 0.478(1) 0.0734(9) 1. 0 0.39 
B4 B3+ 8 c 0.0361(5) 0.682(1) 0.1311(8) 1. 0 0.45 

#End of data_34397-ICSD


