data_82383-ICSD
#?2014 by Fachinformationszentrum Karlsruhe, and the U.S. Secretary of 
#Commerce on behalf of the United States.  All rights reserved.
_database_code_ICSD                82383
_audit_creation_date               1997/11/10
_chemical_name_systematic          'Lithium Dinickel Triphosphate'
_chemical_formula_structural       'Li Ni2 (P3 O10)'
_chemical_formula_sum              'Li1 Ni2 O10 P3'
_publ_section_title
;
Lithium dicobalt tripolyphosphate and lithium dinickel 
tripolyphosphate
;
loop_
_citation_id
_citation_journal_abbrev
_citation_year
_citation_journal_volume
_citation_page_first
_citation_page_last
_citation_journal_id_ASTM
primary 'Acta Crystallographica, Section C: Crystal Structure Communications'
 1996 52 1867 1869 ACSCEE
_publ_author_name                  'Erragh, F.;Boukhari, A.;Holt, E.M.'
_cell_length_a                     4.576(1)
_cell_length_b                     8.356(1)
_cell_length_c                     8.921(1)
_cell_angle_alpha                  90.
_cell_angle_beta                   98.08(1)
_cell_angle_gamma                  90.
_cell_volume                       337.73
_cell_formula_units_Z              2
_symmetry_space_group_name_H-M     'P 1 21/m 1'
_symmetry_Int_Tables_number        11
_refine_ls_R_factor_all            .052
loop_
_symmetry_equiv_pos_site_id
_symmetry_equiv_pos_as_xyz
  1	'x, -y+.5, z'
  2	'-x, -y, -z'
  3	'-x, y+.5, -z'
  4	'x, y, z'
loop_
_atom_type_symbol
_atom_type_oxidation_number
Li1+	1
Ni2+	2
O2-	-2
P5+	5
loop_
_atom_site_label
_atom_site_type_symbol
_atom_site_symmetry_multiplicity
_atom_site_Wyckoff_symbol
_atom_site_fract_x
_atom_site_fract_y
_atom_site_fract_z
_atom_site_occupancy
_atom_site_attached_hydrogens
Ni1 Ni2+ 4 f 0.0366(1) 0.0691(1) 0.3363(1) 1. 0 
P1 P5+ 2 e 0.4637(3) 0.25 0.1452(1) 1. 0 
P2 P5+ 2 e 0.3331(3) 0.25 0.8209(1) 1. 0 
P3 P5+ 2 e 0.6021(3) 0.25 0.5346(1) 1. 0 
O1 O2- 4 f 0.2891(6) 0.0985(3) 0.1597(3) 1. 0 
O2 O2- 2 e 0.7700(9) 0.25 0.2381(4) 1. 0 
O3 O2- 2 e 0.5681(10) 0.25 0.7100(4) 1. 0 
O4 O2- 2 e 0.5541(9) 0.25 0.9756(4) 1. 0 
O5 O2- 4 f 0.1600(7) 0.0985(3) 0.8107(3) 1. 0 
O6 O2- 4 f 0.7717(6) 0.0972(3) 0.5129(3) 1. 0 
O7 O2- 2 e 0.2926(9) 0.25 0.4462(4) 1. 0 
Li1 Li1+ 2 a 0 0 0 1. 0 

loop_
_atom_site_aniso_label
_atom_site_aniso_type_symbol
_atom_site_aniso_U_11
_atom_site_aniso_U_22
_atom_site_aniso_U_33
_atom_site_aniso_U_12
_atom_site_aniso_U_13
_atom_site_aniso_U_23
Ni1 Ni2+ 0.012(1) 0.000(1) 0.008(1) 0.000(1) 0.001(1) 0.000(1)
P1 P5+ 0.010(1) 0.000(1) 0.007(1) 0 0.001(1) 0
P2 P5+ 0.010(1) 0.000(1) 0.007(1) 0 0.001(1) 0
P3 P5+ 0.011(1) 0.000(1) 0.007(1) 0 0.001(1) 0
O1 O2- 0.012(1) 0.003(1) 0.011(1) -.002(1) 0.002(1) -.001(1)
O2 O2- 0.010(2) 0.003(1) 0.012(2) 0 -.002(1) 0
O3 O2- 0.016(2) 0.011(2) 0.006(1) 0 0.003(1) 0
O4 O2- 0.011(2) 0.007(1) 0.006(1) 0 0.002(1) 0
O5 O2- 0.015(2) 0.004(1) 0.012(1) -.004(1) 0.001(1) -.001(1)
O6 O2- 0.013(2) 0.001(1) 0.010(1) 0.002(1) 0.002(1) 0.002(1)
O7 O2- 0.010(2) 0.002(1) 0.013(2) 0 -.002(1) 0
Li1 Li1+ 0.053(9) 0.021(6) 0.012(5) -.015(6) -.001(5) -.004(4)
#End of data_82383-ICSD


