data_98180-ICSD
#?2014 by Fachinformationszentrum Karlsruhe, and the U.S. Secretary of 
#Commerce on behalf of the United States.  All rights reserved.
_database_code_ICSD                98180
_audit_creation_date               2004/10/01
_audit_update_record               2012/02/01
_chemical_name_systematic
;
Potassium Hexamanganese Heptaphosphate(V)
;
_chemical_formula_structural       'K Mn6 (P7 O24)'
_chemical_formula_sum              'K1 Mn6 O24 P7'
_publ_section_title
;
Structure and synthesis of a new double phosphate K Mn6 P7 O24
;
loop_
_citation_id
_citation_journal_abbrev
_citation_year
_citation_journal_volume
_citation_journal_issue
_citation_page_first
_citation_page_last
_citation_journal_id_ASTM
primary 'Dopov. Nats. Akad. Nauk. Ukr.' 2003 2003 3 131 135 DNAUFL
_publ_author_name
;
Lavrik, R.V.;Nagornyi, P.G.;Baumer, V.M.;Shishkin, O.V.
;
_cell_length_a                     5.358
_cell_length_b                     26.697
_cell_length_c                     6.576
_cell_angle_alpha                  90
_cell_angle_beta                   107.226
_cell_angle_gamma                  90
_cell_volume                       898.45
_cell_formula_units_Z              2
_symmetry_space_group_name_H-M     'P 1 21/m 1'
_symmetry_Int_Tables_number        11
_refine_ls_R_factor_all            .0347
loop_
_symmetry_equiv_pos_site_id
_symmetry_equiv_pos_as_xyz
  1	'x, -y+.5, z'
  2	'-x, -y, -z'
  3	'-x, y+.5, -z'
  4	'x, y, z'
loop_
_atom_type_symbol
_atom_type_oxidation_number
K1+	1
Mn2+	2
O2-	-2
P5+	5
loop_
_atom_site_label
_atom_site_type_symbol
_atom_site_symmetry_multiplicity
_atom_site_Wyckoff_symbol
_atom_site_fract_x
_atom_site_fract_y
_atom_site_fract_z
_atom_site_occupancy
_atom_site_attached_hydrogens
_atom_site_U_iso_or_equiv
Mn1 Mn2+ 4 f 0.3811(1) 0.6832(1) 0.7198(1) 1. 0 0.006(1) 
Mn2 Mn2+ 4 f 0.7078(1) 0.5979(1) 0.0853(1) 1. 0 0.006(1) 
Mn3 Mn2+ 4 f 0.3145(1) 0.5445(1) 0.3142(1) 1. 0 0.007(1) 
K1 K1+ 2 e 0.7806(1) 0.750 0.3714(1) 1. 0 0.017(1) 
P1 P5+ 4 f 0.8176(1) 0.6093(1) 0.6168(1) 1. 0 0.004(1) 
P2 P5+ 4 f 0.2087(1) 0.5243(1) 0.7949(1) 1. 0 0.003(1) 
P3 P5+ 2 e -0.0398(1) 0.750 0.9044(1) 1. 0 0.003(1) 
P4 P5+ 4 f 0.2484(1) 0.6681(1) 0.1902(1) 1. 0 0.004(1) 
O1 O2- 4 f 0.0162(3) 0.6483(1) 0.6159(2) 1. 0 0.014(1) 
O2 O2- 4 f 0.6552(3) 0.6223(1) 0.7650(2) 1. 0 0.007(1) 
O3 O2- 4 f 0.6426(3) 0.5956(1) 0.3956(2) 1. 0 0.007(1) 
O4 O2- 4 f -0.0460(3) 0.5575(1) 0.7071(2) 1. 0 0.015(1) 
O5 O2- 4 f 0.3700(3) 0.5481(1) 0.0015(2) 1. 0 0.007(1) 
O6 O2- 4 f 0.3573(3) 0.5217(1) 0.6315(2) 1. 0 0.009(1) 
O7 O2- 4 f 0.0891(3) 0.4741(1) 0.8258(2) 1. 0 0.007(1) 
O8 O2- 2 e 0.6762(4) 0.750 0.7809(3) 1. 0 0.008(1) 
O9 O2- 2 e 0.1536(4) 0.750 0.7786(3) 1. 0 0.006(1) 
O10 O2- 4 f 0.0038(3) 0.7036(1) 0.0572(2) 1. 0 0.008(1) 
O11 O2- 4 f 0.3611(3) 0.6946(1) 0.3979(2) 1. 0 0.009(1) 
O12 O2- 4 f 0.4383(3) 0.6664(1) 0.0574(2) 1. 0 0.007(1) 
O13 O2- 4 f 0.1099(3) 0.6194(1) 0.2010(2) 1. 0 0.007(1) 

#End of data_98180-ICSD


