data_9296-ICSD
#?2014 by Fachinformationszentrum Karlsruhe, and the U.S. Secretary of 
#Commerce on behalf of the United States.  All rights reserved.
_database_code_ICSD                9296
_audit_creation_date               1980/01/01
_audit_update_record               2006/04/01
_chemical_name_systematic          'Dipotassium Tecto-octagermanate'
_chemical_formula_structural       'K2 (Ge8 O17)'
_chemical_formula_sum              'Ge8 K2 O17'
_publ_section_title
;
Die Kristallstruktur des Kaliumoktagermanats, K2 Ge8 O17
;
loop_
_citation_id
_citation_journal_abbrev
_citation_year
_citation_journal_volume
_citation_page_first
_citation_page_last
_citation_journal_id_ASTM
primary
;
Zeitschrift fuer Kristallographie, Kristallgeometrie, Kristallphysik, 
Kristallchemie (-144,1977)
;
 1973 138 439 448 ZEKGAX
2 Naturwissenschaften 1971 58 455 455 NATWAY
3 'Golden Book of Phase Transitions, Wroclaw' 2002 1 1 123 GBOPT5
_publ_author_name
;
Fay, E.;Voellenkle, H.;Wittmann, A.
;
_cell_length_a                     13.37
_cell_length_b                     13.37
_cell_length_c                     8.85
_cell_angle_alpha                  90.
_cell_angle_beta                   90.
_cell_angle_gamma                  90.
_cell_volume                       1582
_cell_formula_units_Z              4
_symmetry_space_group_name_H-M     'P n a m'
_symmetry_Int_Tables_number        62
_refine_ls_R_factor_all            .088
loop_
_symmetry_equiv_pos_site_id
_symmetry_equiv_pos_as_xyz
  1	'x+.5, -y+.5, z'
  2	'x, y, -z+.5'
  3	'-x+.5, y+.5, z+.5'
  4	'-x, -y, -z'
  5	'-x+.5, y+.5, -z'
  6	'-x, -y, z+.5'
  7	'x+.5, -y+.5, -z+.5'
  8	'x, y, z'
loop_
_atom_type_symbol
_atom_type_oxidation_number
Ge4+	4
K1+	1
O2-	-2
loop_
_atom_site_label
_atom_site_type_symbol
_atom_site_symmetry_multiplicity
_atom_site_Wyckoff_symbol
_atom_site_fract_x
_atom_site_fract_y
_atom_site_fract_z
_atom_site_occupancy
_atom_site_attached_hydrogens
_atom_site_B_iso_or_equiv
K1 K1+ 4 c 0.0960(9) 0.0177(9) 0.75 1. 0 1.35 
K2 K1+ 4 c 0.0065(8) 0.4041(7) 0.75 1. 0 0.67 
Ge1 Ge4+ 8 d 0.0859(3) 0.1919(3) 0.0907(4) 1. 0 1.06 
Ge2 Ge4+ 8 d 0.3096(3) 0.1148(3) 0.0723(6) 1. 0 1.15 
Ge3 Ge4+ 8 d 0.1692(3) 0.3968(3) 0.0781(5) 1. 0 1.32 
Ge4 Ge4+ 8 d 0.3744(3) 0.3245(2) 0.9290(5) 1. 0 0.87 
O1 O2- 4 c 0.0164(23) 0.1512(22) 0.25 1. 0 0.6 
O2 O2- 4 c 0.1436(19) 0.4666(20) 0.25 1. 0 -.2 
O3 O2- 4 c 0.3510(21) 0.1519(22) 0.25 1. 0 0.3 
O4 O2- 4 c 0.1631(25) 0.2606(27) 0.25 1. 0 1.2 
O5 O2- 4 c 0.3336(24) 0.3608(22) 0.75 1. 0 0.5 
O6 O2- 8 d 0.2998(15) 0.3788(15) 0.064(3) 1. 0 0.7 
O7 O2- 8 d 0.3620(14) 0.1951(14) 0.565(3) 1. 0 0.4 
O8 O2- 8 d 0.9963(17) 0.1409(15) 0.549(3) 1. 0 1. 
O9 O2- 8 d 0.3603(17) 0.9982(17) 0.452(3) 1. 0 1.2 
O10 O2- 8 d 0.0941(16) 0.3108(17) 0.516(3) 1. 0 1. 
O11 O2- 8 d 0.1813(17) 0.1083(17) 0.466(3) 1. 0 1.3 

#End of data_9296-ICSD


