data_280530-ICSD
#?2014 by Fachinformationszentrum Karlsruhe, and the U.S. Secretary of 
#Commerce on behalf of the United States.  All rights reserved.
_database_code_ICSD                280530
_audit_creation_date               2002/04/01
_audit_update_record               2012/02/01
_chemical_name_systematic
;
Rubidium Dizinc Phosphate(V) Hydrophosphate(V)
;
_chemical_formula_structural       'Rb Zn2 (P O4) (H P O4)'
_chemical_formula_sum              'H1 O8 P2 Rb1 Zn2'
_publ_section_title
;
Rubidium zinc phosphate, Rb Zn2 (P O4) (H P O4)
;
loop_
_citation_id
_citation_journal_abbrev
_citation_year
_citation_journal_volume
_citation_page_first
_citation_page_last
_citation_journal_id_ASTM
primary 'Acta Crystallographica, Section E. Structure Reports Online'
 2001 57 15 16 ACSEBH
_publ_author_name                  'Yule, L.J.;Harrison, W.T.A.'
_cell_length_a                     5.2605(4)
_cell_length_b                     8.9046(6)
_cell_length_c                     9.7244(7)
_cell_angle_alpha                  75.685(1)
_cell_angle_beta                   77.487(2)
_cell_angle_gamma                  73.489(1)
_cell_volume                       417.89
_cell_formula_units_Z              2
_symmetry_space_group_name_H-M     'P -1'
_symmetry_Int_Tables_number        2
_refine_ls_R_factor_all            .0537
loop_
_symmetry_equiv_pos_site_id
_symmetry_equiv_pos_as_xyz
  1	'-x, -y, -z'
  2	'x, y, z'
loop_
_atom_type_symbol
_atom_type_oxidation_number
H1+	1
O2-	-2
P5+	5
Rb1+	1
Zn2+	2
loop_
_atom_site_label
_atom_site_type_symbol
_atom_site_symmetry_multiplicity
_atom_site_Wyckoff_symbol
_atom_site_fract_x
_atom_site_fract_y
_atom_site_fract_z
_atom_site_occupancy
_atom_site_attached_hydrogens
_atom_site_U_iso_or_equiv
Rb1 Rb1+ 2 i 0.28901(11) 0.29634(7) 1.17661(6) 1. 0 0 
Zn1 Zn2+ 2 i 0.38913(11) 0.38493(6) 0.72838(6) 1. 0 0 
Zn2 Zn2+ 2 i 0.19652(11) 0.11187(6) 0.61011(6) 1. 0 0 
P1 P5+ 2 i 0.3293(2) 0.75607(14) 0.54989(13) 1. 0 0 
P2 P5+ 2 i 0.8943(2) 0.24745(14) 0.88825(13) 1. 0 0 
O1 O2- 2 i 0.5941(8) 0.3010(5) 0.8851(4) 1. 0 0 
O2 O2- 2 i 0.4221(8) 0.5971(4) 0.6508(4) 1. 0 0 
O3 O2- 2 i 0.4697(7) 0.2368(4) 0.5960(4) 1. 0 0 
O4 O2- 2 i 0.0240(8) 0.3875(4) 0.8266(5) 1. 0 0 
O5 O2- 2 i 0.0478(8) 0.7773(5) 0.5228(4) 1. 0 0 
O6 O2- 2 i 0.3558(8) 0.8895(4) 0.6156(4) 1. 0 0 
O7 O2- 2 i 0.9306(9) 0.1922(5) 1.0520(4) 1. 0 0 
O8 O2- 2 i 1.0324(9) 0.1039(5) 0.8154(4) 1. 0 0 
H1 H1+ 2 i 0.9362 0.0836 1.0847 1. 0 0.006(13) 

loop_
_atom_site_aniso_label
_atom_site_aniso_type_symbol
_atom_site_aniso_U_11
_atom_site_aniso_U_22
_atom_site_aniso_U_33
_atom_site_aniso_U_12
_atom_site_aniso_U_13
_atom_site_aniso_U_23
Rb1 Rb1+ 0.0213(3) 0.0249(3) 0.0204(3) -.00254(19) -.00519(18) -.00682(19)
Zn1 Zn2+ 0.0143(3) 0.0095(3) 0.0145(3) -.00293(19) -.00087(19) -.00288(19)
Zn2 Zn2+ 0.0146(3) 0.0099(3) 0.0145(3) -.00271(19) -.0024(2) -.00348(19)
P1 P5+ 0.0105(5) 0.0093(5) 0.0122(5) -.0012(4) -.0020(4) -.0024(4)
P2 P5+ 0.0122(5) 0.0116(5) 0.0126(5) -.0019(4) -.0013(4) -.0026(4)
O1 O2- 0.0118(16) 0.032(2) 0.0200(17) -.0030(14) -.0024(13) -.0016(15)
O2 O2- 0.0265(19) 0.0115(15) 0.0232(18) -.0053(14) -.0108(15) 0.0019(13)
O3 O2- 0.0172(15) 0.0197(17) 0.0146(15) -.0063(13) 0.0008(12) -.0098(13)
O4 O2- 0.0169(17) 0.0097(15) 0.036(2) -.0045(13) 0.0066(15) -.0027(15)
O5 O2- 0.0137(16) 0.030(2) 0.0217(18) -.0059(14) -.0051(14) 0.0022(15)
O6 O2- 0.0281(19) 0.0112(15) 0.0204(17) 0.0008(14) -.0048(15) -.0076(13)
O7 O2- 0.031(2) 0.0135(16) 0.0168(16) -.0030(14) -.0091(15) -.0017(13)
O8 O2- 0.032(2) 0.0181(17) 0.0153(16) -.0031(16) 0.0044(15) -.0072(14)
#End of data_280530-ICSD


