data_240904-ICSD
#?2014 by Fachinformationszentrum Karlsruhe, and the U.S. Secretary of 
#Commerce on behalf of the United States.  All rights reserved.
_database_code_ICSD                240904
_audit_creation_date               2008/08/01
_chemical_name_systematic
;
Nonacalcium Chromium(III) Heptakis(phosphate(V))
;
_chemical_formula_structural       'Ca9 Cr (P O4)7'
_chemical_formula_sum              'Ca9 Cr1 O28 P7'
_publ_section_title
;
The whitlockite-related phosphate Ca9 Cr (P O4)7
;
loop_
_citation_id
_citation_journal_abbrev
_citation_year
_citation_journal_volume
_citation_journal_issue
_citation_page_first
_citation_page_last
_citation_journal_id_ASTM
primary 'Acta Crystallographica, Section E. Structure Reports Online'
 2007 63 10 i180 i181 ACSEBH
_publ_author_name
;
Zatovsky, I.V.;Strutynska, N.Yu.;Baumer, V.N.;Shishkin, 
O.V.;Slobodyanik, N.S.
;
_cell_length_a                     10.3272(5)
_cell_length_b                     10.3272(5)
_cell_length_c                     37.132(2)
_cell_angle_alpha                  90
_cell_angle_beta                   90
_cell_angle_gamma                  120
_cell_volume                       3429.61
_cell_formula_units_Z              6
_symmetry_space_group_name_H-M     'R 3 c H'
_symmetry_Int_Tables_number        161
_refine_ls_R_factor_all            .03
loop_
_symmetry_equiv_pos_site_id
_symmetry_equiv_pos_as_xyz
  1	'-x+y, y, z+.5'
  2	'x, x-y, z+.5'
  3	'-y, -x, z+.5'
  4	'-x+y, -x, z'
  5	'-y, x-y, z'
  6	'x, y, z'
  7	'-x+y+.6666, y+.3333, z+.8333'
  8	'-x+y+.3333, y+.6666, z+.1666'
  9	'x+.6666, x-y+.3333, z+.8333'
 10	'x+.3333, x-y+.6666, z+.1666'
 11	'-y+.6666, -x+.3333, z+.8333'
 12	'-y+.3333, -x+.6666, z+.1666'
 13	'-x+y+.6666, -x+.3333, z+.3333'
 14	'-x+y+.3333, -x+.6666, z+.6666'
 15	'-y+.6666, x-y+.3333, z+.3333'
 16	'-y+.3333, x-y+.6666, z+.6666'
 17	'x+.6666, y+.3333, z+.3333'
 18	'x+.3333, y+.6666, z+.6666'
loop_
_atom_type_symbol
_atom_type_oxidation_number
Ca2+	2
Cr3+	3
O2-	-2
P5+	5
loop_
_atom_site_label
_atom_site_type_symbol
_atom_site_symmetry_multiplicity
_atom_site_Wyckoff_symbol
_atom_site_fract_x
_atom_site_fract_y
_atom_site_fract_z
_atom_site_occupancy
_atom_site_attached_hydrogens
_atom_site_U_iso_or_equiv
Ca1 Ca2+ 18 b 0.05547(9) 0.52061(10) 0.100572(19) 1 0 0.00617(17) 
Ca2 Ca2+ 18 b 0.20187(10) 0.37769(10) 0.23313(2) 1 0 0.00654(17) 
Ca3 Ca2+ 18 b 0.38876(10) 0.20333(9) 0.16032(2) 1 0 0.01017(17) 
Cr1 Cr3+ 6 a 0 0 0.00199(3) 1 0 0.00405(18) 
P1 P5+ 6 a 0 0 0.27062(5) 1 0 0.0106(4) 
P2 P5+ 18 b 0.17511(12) 0.31774(12) 0.13731(3) 1 0 0.0042(2) 
P3 P5+ 18 b 0.18862(12) 0.34253(14) 0.03226(3) 1 0 0.0052(2) 
O1 O2- 6 a 0 0 0.31204(16) 1 0 0.0148(11) 
O2 O2- 18 b 0.1360(3) 0.1467(3) 0.25799(8) 1 0 0.0111(6) 
O3 O2- 18 b 0.1821(4) 0.2731(4) 0.17561(8) 1 0 0.0121(6) 
O4 O2- 18 b 0.0164(3) 0.2525(4) 0.12245(8) 1 0 0.0103(6) 
O5 O2- 18 b 0.2744(3) 0.2782(3) 0.11421(7) 1 0 0.0076(6) 
O6 O2- 18 b 0.2502(4) 0.4937(3) 0.13402(8) 1 0 0.0083(6) 
O7 O2- 18 b 0.3479(3) 0.3948(3) 0.04562(8) 1 0 0.0097(6) 
O8 O2- 18 b 0.1122(3) 0.4133(3) 0.05284(8) 1 0 0.0101(6) 
O9 O2- 18 b 0.0940(3) 0.1692(3) 0.03804(8) 1 0 0.0076(6) 
O10 O2- 18 b 0.1937(3) 0.3779(3) -0.00752(7) 1 0 0.0097(6) 

loop_
_atom_site_aniso_label
_atom_site_aniso_type_symbol
_atom_site_aniso_U_11
_atom_site_aniso_U_22
_atom_site_aniso_U_33
_atom_site_aniso_U_12
_atom_site_aniso_U_13
_atom_site_aniso_U_23
Ca1 Ca2+ 0.0074(4) 0.0061(4) 0.0053(4) 0.0036(3) -0.0003(3) -0.0012(3)
Ca2 Ca2+ 0.0062(4) 0.0071(4) 0.0060(3) 0.0032(4) 0.0011(3) 0.0020(3)
Ca3 Ca2+ 0.0151(4) 0.0082(4) 0.0091(4) 0.0072(3) -0.0035(3) 0.0001(3)
Cr1 Cr3+ 0.0040(3) 0.0040(3) 0.0042(4) 0.00199(13) 0 0
P1 P5+ 0.0060(5) 0.0060(5) 0.0199(10) 0.0030(2) 0 0
P2 P5+ 0.0037(5) 0.0030(4) 0.0058(5) 0.0016(4) 0.0007(4) -0.0006(4)
P3 P5+ 0.0060(5) 0.0049(4) 0.0046(5) 0.0026(4) 0.0020(4) 0.0008(4)
O1 O2- 0.0126(16) 0.0126(16) 0.019(3) 0.0063(8) 0 0
O2 O2- 0.0055(13) 0.0057(14) 0.0184(18) 0.0002(10) -0.0037(11) 0.0035(11)
O3 O2- 0.0149(15) 0.0126(15) 0.0095(15) 0.0075(12) 0.0002(12) 0.0003(11)
O4 O2- 0.0080(15) 0.0141(15) 0.0080(15) 0.0050(12) 0.0004(11) 0.0001(11)
O5 O2- 0.0073(14) 0.0053(13) 0.0098(14) 0.0028(11) -0.0017(10) -0.0026(11)
O6 O2- 0.0081(14) 0.0075(14) 0.0107(14) 0.0050(13) 0.0007(11) 0.0001(10)
O7 O2- 0.0031(13) 0.0131(15) 0.0111(15) 0.0026(12) -0.0008(11) 0.0012(12)
O8 O2- 0.0142(15) 0.0103(14) 0.0099(14) 0.0091(13) 0.0025(11) -0.0023(11)
O9 O2- 0.0058(14) 0.0030(13) 0.0129(14) 0.0014(12) -0.0001(11) 0.0010(11)
O10 O2- 0.0128(15) 0.0097(14) 0.0031(13) 0.0031(12) -0.0016(11) 0.0005(10)
#End of data_240904-ICSD


