data_6117-ICSD
#?2014 by Fachinformationszentrum Karlsruhe, and the U.S. Secretary of 
#Commerce on behalf of the United States.  All rights reserved.
_database_code_ICSD                6117
_audit_creation_date               1980/01/01
_audit_update_record               2005/10/01
_chemical_name_systematic          'Dicalcium Diniobate'
_chemical_formula_structural       'Ca2 (Nb2 O7)'
_chemical_formula_sum              'Ca2 Nb2 O7'
_publ_section_title
;
Zur Kristallstruktur von Ca2 Nb2 O7
;
loop_
_citation_id
_citation_journal_abbrev
_citation_year
_citation_journal_volume
_citation_page_first
_citation_page_last
_citation_journal_id_ASTM
primary 'Journal of Inorganic and Nuclear Chemistry' 1974 36 1965 1970 JINCAO
2 'Golden Book of Phase Transitions, Wroclaw' 2002 1 1 123 GBOPT5
_publ_author_name
;
Scheunemann, K.;Mueller Buschbaum, H.
;
_cell_length_a                     26.45699
_cell_length_b                     5.501
_cell_length_c                     7.692
_cell_angle_alpha                  90.
_cell_angle_beta                   90.
_cell_angle_gamma                  90.
_cell_volume                       1119.49
_cell_formula_units_Z              8
_symmetry_space_group_name_H-M     'P n 21 a'
_symmetry_Int_Tables_number        33
_refine_ls_R_factor_all            .056
loop_
_symmetry_equiv_pos_site_id
_symmetry_equiv_pos_as_xyz
  1	'x+.5, y, -z+.5'
  2	'-x+.5, y+.5, z+.5'
  3	'-x, y+.5, -z'
  4	'x, y, z'
loop_
_atom_type_symbol
_atom_type_oxidation_number
Ca2+	2
Nb5+	5
O2-	-2
loop_
_atom_site_label
_atom_site_type_symbol
_atom_site_symmetry_multiplicity
_atom_site_Wyckoff_symbol
_atom_site_fract_x
_atom_site_fract_y
_atom_site_fract_z
_atom_site_occupancy
_atom_site_attached_hydrogens
_atom_site_B_iso_or_equiv
Ca1 Ca2+ 4 a 0.0511 0.2645 0.3788 1. 0 0.94 
Ca2 Ca2+ 4 a 0.19 0.7378 0.3741 1. 0 0.4 
Ca3 Ca2+ 4 a 0.2949 0.2478 0.3739 1. 0 0.46 
Ca4 Ca2+ 4 a 0.4658 0.8313 0.3748 1. 0 0.35 
Nb1 Nb5+ 4 a 0.0885 0.7702 0.118 1. 0 0.5 
Nb2 Nb5+ 4 a 0.1925 0.25 0.1281 1. 0 0.56 
Nb3 Nb5+ 4 a 0.3085 0.748 0.1205 1. 0 0.54 
Nb4 Nb5+ 4 a 0.4128 0.2745 0.1262 1. 0 0.67 
O1 O2- 4 a 0.036 0.55 0.157 1. 0 0.11 
O2 O2- 4 a 0.048 0.039 0.096 1. 0 0.49 
O3 O2- 4 a 0.099 0.834 0.377 1. 0 0.7 
O4 O2- 4 a 0.138 0.444 0.181 1. 0 0.43 
O5 O2- 4 a 0.159 0.933 0.103 1. 0 0.24 
O6 O2- 4 a 0.207 0.151 0.377 1. 0 0.39 
O7 O2- 4 a 0.24 0.526 0.166 1. 0 0.42 
O8 O2- 4 a 0.261 0.024 0.087 1. 0 0.7 
O9 O2- 4 a 0.304 0.813 0.375 1. 0 1.05 
O10 O2- 4 a 0.341 0.434 0.145 1. 0 0.37 
O11 O2- 4 a 0.364 0.939 0.07 1. 0 0.57 
O12 O2- 4 a 0.402 0.172 0.375 1. 0 0.29 
O13 O2- 4 a 0.444 0.545 0.161 1. 0 0.77 
O14 O2- 4 a 0.469 0.067 0.104 1. 0 0.75 

#End of data_6117-ICSD


