data_47112-ICSD
#?2014 by Fachinformationszentrum Karlsruhe, and the U.S. Secretary of 
#Commerce on behalf of the United States.  All rights reserved.
_database_code_ICSD                47112
_audit_creation_date               1985/02/12
_chemical_name_systematic
;
Potassium Hexaselenodigermanate(III)
;
_chemical_formula_structural       'K6 Ge2 Se6'
_chemical_formula_sum              'Ge2 K6 Se6'
_publ_section_title
;
Ueber Thio-, Selenido- und Telluridogermanate(III): Zur Kenntnis von 
K6 Ge2 S6, K6 Ge2 Se6 und Na6 Ge2 Te6
;
loop_
_citation_id
_citation_journal_abbrev
_citation_year
_citation_journal_volume
_citation_page_first
_citation_page_last
_citation_journal_id_ASTM
primary 'Zeitschrift fuer Anorganische und Allgemeine Chemie (1950) (DE)'
 1984 516 49 54 ZAACAB
_publ_author_name
;
Eisenmann, B.;Kieselbach, E.;Schaefer, H.;Schrod, H.
;
_cell_length_a                     9.076(4)
_cell_length_b                     12.851(6)
_cell_length_c                     8.480(4)
_cell_angle_alpha                  90.
_cell_angle_beta                   116.76(5)
_cell_angle_gamma                  90.
_cell_volume                       883.14
_cell_formula_units_Z              2
_symmetry_space_group_name_H-M     'C 1 2/m 1'
_symmetry_Int_Tables_number        12
_refine_ls_R_factor_all            .06
loop_
_symmetry_equiv_pos_site_id
_symmetry_equiv_pos_as_xyz
  1	'-x, y, -z'
  2	'-x, -y, -z'
  3	'x, -y, z'
  4	'x, y, z'
  5	'-x+.5, y+.5, -z'
  6	'-x+.5, -y+.5, -z'
  7	'x+.5, -y+.5, z'
  8	'x+.5, y+.5, z'
loop_
_atom_type_symbol
_atom_type_oxidation_number
Ge3+	3
K1+	1
Se2-	-2
loop_
_atom_site_label
_atom_site_type_symbol
_atom_site_symmetry_multiplicity
_atom_site_Wyckoff_symbol
_atom_site_fract_x
_atom_site_fract_y
_atom_site_fract_z
_atom_site_occupancy
_atom_site_attached_hydrogens
K1 K1+ 4 e 0.25 0.25 0 1. 0 
K2 K1+ 4 i 0.7860(6) 0 0.3156(6) 1. 0 
K3 K1+ 4 h 0 0.3365(3) 0.5 1. 0 
Ge1 Ge3+ 4 i 0.8842(2) 0 0.8490(2) 1. 0 
Se1 Se2- 4 i 0.6311(2) 0 0.8666(2) 1. 0 
Se2 Se2- 8 j 0.9016(1) 0.1500(1) 0.6992(1) 1. 0 

loop_
_atom_site_aniso_label
_atom_site_aniso_type_symbol
_atom_site_aniso_U_11
_atom_site_aniso_U_22
_atom_site_aniso_U_33
_atom_site_aniso_U_12
_atom_site_aniso_U_13
_atom_site_aniso_U_23
K1 K1+ 0.0345(22) 0.0326(22) 0.0315(21) -.0105(19) -.0009(18) 0.0049(18)
K2 K1+ 0.0267(20) 0.0713(35) 0.0210(19) 0 0.0124(17) 0
K3 K1+ 0.0213(16) 0.0259(18) 0.0216(16) 0 0.0067(14) 0
Ge1 Ge3+ 0.0110(7) 0.0149(7) 0.0091(6) 0 0.0035(5) 0
Se1 Se2- 0.0133(7) 0.0242(8) 0.0180(7) 0 0.0073(6) 0
Se2 Se2- 0.0200(5) 0.0253(6) 0.0202(5) -.0022(5) 0.0057(4) 0.0094(5)
#End of data_47112-ICSD


