data_65554-ICSD
#?2014 by Fachinformationszentrum Karlsruhe, and the U.S. Secretary of 
#Commerce on behalf of the United States.  All rights reserved.
_database_code_ICSD                65554
_audit_creation_date               1990/06/08
_audit_update_record               2007/04/01
_chemical_name_systematic
;
Dithallium(III) Dibarium Calcium Dicopper Oxide
;
_chemical_formula_structural       'Tl2 Ba2 Ca Cu2 O8'
_chemical_formula_sum              'Ba2 Ca1 Cu2 O8 Tl2'
_publ_section_title
;
The crystal structure and superconductivity of Tl2 Ba2 Ca Cu2 O8
;
loop_
_citation_id
_citation_journal_abbrev
_citation_year
_citation_journal_volume
_citation_page_first
_citation_page_last
_citation_journal_id_ASTM
primary 'Journal of Physics D, Applied Physics' 1988 21 1031 1034 JPAPBE
2 'Science in China, Ser. A' 1989 32 826 835 SCASEY
_publ_author_name
;
Liang, J.-K.;Huang, J.-Q.;Rao, G.-H.;Xie, S.-S.;Zhang, Y.-L.;Che, G.-
C.;Cheng Xiangrong
;
_cell_length_a                     3.847
_cell_length_b                     3.847
_cell_length_c                     29.43
_cell_angle_alpha                  90.
_cell_angle_beta                   90.
_cell_angle_gamma                  90.
_cell_volume                       435.55
_cell_formula_units_Z              2
_symmetry_space_group_name_H-M     'I 4/m m m'
_symmetry_Int_Tables_number        139
loop_
_symmetry_equiv_pos_site_id
_symmetry_equiv_pos_as_xyz
  1	'y, x, -z'
  2	'-y, -x, -z'
  3	'-y, x, -z'
  4	'y, -x, -z'
  5	'-x, y, -z'
  6	'x, -y, -z'
  7	'x, y, -z'
  8	'-x, -y, -z'
  9	'-y, -x, z'
 10	'y, x, z'
 11	'y, -x, z'
 12	'-y, x, z'
 13	'x, -y, z'
 14	'-x, y, z'
 15	'-x, -y, z'
 16	'x, y, z'
 17	'y+.5, x+.5, -z+.5'
 18	'-y+.5, -x+.5, -z+.5'
 19	'-y+.5, x+.5, -z+.5'
 20	'y+.5, -x+.5, -z+.5'
 21	'-x+.5, y+.5, -z+.5'
 22	'x+.5, -y+.5, -z+.5'
 23	'x+.5, y+.5, -z+.5'
 24	'-x+.5, -y+.5, -z+.5'
 25	'-y+.5, -x+.5, z+.5'
 26	'y+.5, x+.5, z+.5'
 27	'y+.5, -x+.5, z+.5'
 28	'-y+.5, x+.5, z+.5'
 29	'x+.5, -y+.5, z+.5'
 30	'-x+.5, y+.5, z+.5'
 31	'-x+.5, -y+.5, z+.5'
 32	'x+.5, y+.5, z+.5'
loop_
_atom_type_symbol
_atom_type_oxidation_number
Ba2+	2
Ca2+	2
Cu2+	2
O2-	-2
Tl3+	3
loop_
_atom_site_label
_atom_site_type_symbol
_atom_site_symmetry_multiplicity
_atom_site_Wyckoff_symbol
_atom_site_fract_x
_atom_site_fract_y
_atom_site_fract_z
_atom_site_occupancy
_atom_site_attached_hydrogens
Ca1 Ca2+ 2 a 0 0 0 1. 0 
Ba1 Ba2+ 4 e 0 0 0.115 1. 0 
Tl1 Tl3+ 4 e 0 0 0.285 1. 0 
Cu1 Cu2+ 4 e 0 0 0.45 1. 0 
O1 O2- 8 g 0 0.5 0.45 1. 0 
O2 O2- 4 e 0 0 0.2 1. 0 
O3 O2- 4 e 0 0 0.38 1. 0 

#End of data_65554-ICSD


