data_49732-ICSD
#?2014 by Fachinformationszentrum Karlsruhe, and the U.S. Secretary of 
#Commerce on behalf of the United States.  All rights reserved.
_database_code_ICSD                49732
_audit_creation_date               1985/06/25
_audit_update_record               1985/06/26
_chemical_name_systematic          'Strontium Aluminium Selenide'
_chemical_formula_structural       'Sr Al2 Se4'
_chemical_formula_sum              'Al2 Se4 Sr1'
_publ_section_title
;
Ca Al2 Se4 und Sr Al2 Se4 - Strukturvarianten des Tl Se - Typs
;
loop_
_citation_id
_citation_journal_abbrev
_citation_year
_citation_journal_volume
_citation_page_first
_citation_page_last
_citation_journal_id_ASTM
primary
;
Zeitschrift fuer Naturforschung, Teil B. Anorganische Chemie, 
Organische Chemie (33,1978-41,1986)
;
 1978 33 829 833 ZNBAD2
_publ_author_name                  'Klee, W.;Schaefer, H.'
_cell_length_a                     6.27(1)
_cell_length_b                     10.82(1)
_cell_length_c                     10.85(1)
_cell_angle_alpha                  90.
_cell_angle_beta                   90.
_cell_angle_gamma                  90.
_cell_volume                       736.08
_cell_formula_units_Z              4
_symmetry_space_group_name_H-M     'C c c m'
_symmetry_Int_Tables_number        66
_refine_ls_R_factor_all            .08
loop_
_symmetry_equiv_pos_site_id
_symmetry_equiv_pos_as_xyz
  1	'-x, y, z+.5'
  2	'x, -y, z+.5'
  3	'x, y, -z'
  4	'-x, -y, -z'
  5	'x, -y, -z+.5'
  6	'-x, y, -z+.5'
  7	'-x, -y, z'
  8	'x, y, z'
  9	'-x+.5, y+.5, z+.5'
 10	'x+.5, -y+.5, z+.5'
 11	'x+.5, y+.5, -z'
 12	'-x+.5, -y+.5, -z'
 13	'x+.5, -y+.5, -z+.5'
 14	'-x+.5, y+.5, -z+.5'
 15	'-x+.5, -y+.5, z'
 16	'x+.5, y+.5, z'
loop_
_atom_type_symbol
_atom_type_oxidation_number
Al3+	3
Se2-	-2
Sr2+	2
loop_
_atom_site_label
_atom_site_type_symbol
_atom_site_symmetry_multiplicity
_atom_site_Wyckoff_symbol
_atom_site_fract_x
_atom_site_fract_y
_atom_site_fract_z
_atom_site_occupancy
_atom_site_attached_hydrogens
_atom_site_U_iso_or_equiv
Se1 Se2- 8 l 0.237(3) 0.420(1) 0 1. 0 0.0234(16) 
Se2 Se2- 8 k 0.25 0.25 0.333(1) 1. 0 0.0188(16) 
Sr1 Sr2+ 4 b 0 0.5 0.25 1. 0 0.0199(18) 
Al1 Al3+ 8 l 0.995(7) 0.232(2) 0 1. 0 0.0378(47) 

#End of data_49732-ICSD


