data_20923-ICSD
#?2014 by Fachinformationszentrum Karlsruhe, and the U.S. Secretary of 
#Commerce on behalf of the United States.  All rights reserved.
_database_code_ICSD                20923
_audit_creation_date               1985/07/16
_audit_update_record               2012/08/01
_chemical_name_systematic          'Sodium Tetrahydridoaluminate'
_chemical_formula_structural       'Na (Al H4)'
_chemical_formula_sum              'H4 Al1 Na1'
_publ_section_title
;
The repeated definition of the structure Na Al H4
;
loop_
_citation_id
_citation_journal_abbrev
_citation_year
_citation_journal_volume
_citation_page_first
_citation_page_last
_citation_journal_id_ASTM
primary 'Zhurnal Neorganicheskoi Khimii' 1983 28 2694 2696 ZNOKAQ
2 'Russian Journal of Inorganic Chemistry' 1983 28 1528 1529 RJICAQ
3 'Acta Crystallographica B (24,1968-38,1982)' 1979 35 1454 1456 ACBCAR
_publ_author_name
;
Bel'skii, V.K.;Bulychev, B.M.;Golubeva, A.V.
;
_cell_length_a                     5.021(1)
_cell_length_b                     5.021(1)
_cell_length_c                     11.346(2)
_cell_angle_alpha                  90.
_cell_angle_beta                   90.
_cell_angle_gamma                  90.
_cell_volume                       286.04
_cell_formula_units_Z              4
_symmetry_space_group_name_H-M     'I 41/a Z'
_symmetry_Int_Tables_number        88
_refine_ls_R_factor_all            .022
loop_
_symmetry_equiv_pos_site_id
_symmetry_equiv_pos_as_xyz
  1	'-y+.75, x+.75, -z+.75'
  2	'y+.25, -x+.75, -z+.75'
  3	'x, y+.5, -z'
  4	'-x, -y, -z'
  5	'y+.25, -x+.25, z+.25'
  6	'-y+.75, x+.25, z+.25'
  7	'-x, -y+.5, z'
  8	'x, y, z'
  9	'-y+.25, x+.25, -z+.25'
 10	'y+.75, -x+.25, -z+.25'
 11	'x+.5, y, -z+.5'
 12	'-x+.5, -y+.5, -z+.5'
 13	'y+.75, -x+.75, z+.75'
 14	'-y+.25, x+.75, z+.75'
 15	'-x+.5, -y, z+.5'
 16	'x+.5, y+.5, z+.5'
loop_
_atom_type_symbol
_atom_type_oxidation_number
Al3+	3
H1-	-1
Na1+	1
loop_
_atom_site_label
_atom_site_type_symbol
_atom_site_symmetry_multiplicity
_atom_site_Wyckoff_symbol
_atom_site_fract_x
_atom_site_fract_y
_atom_site_fract_z
_atom_site_occupancy
_atom_site_attached_hydrogens
_atom_site_U_iso_or_equiv
Al1 Al3+ 4 b 0 0.25 0.625 1. 0 0 
Na1 Na1+ 4 a 0 0.25 0.125 1. 0 0 
H1 H1- 16 f 0.234(9) 0.386(9) 0.550(3) 1. 0 0.027(20) 

#End of data_20923-ICSD


