data_262780-ICSD
#?2014 by Fachinformationszentrum Karlsruhe, and the U.S. Secretary of 
#Commerce on behalf of the United States.  All rights reserved.
_database_code_ICSD                262780
_audit_creation_date               2012/08/01
_chemical_name_systematic          'Calcium Tetrathiodigallate(III)'
_chemical_formula_structural       'Ca Ga2 S4'
_chemical_formula_sum              'Ca1 Ga2 S4'
_publ_section_title
;
A novel monoclinic phase of impurity-doped CaGa2S4 as a phosphor with 
high emission intensity
;
loop_
_citation_id
_citation_journal_abbrev
_citation_year
_citation_journal_volume
_citation_journal_issue
_citation_page_first
_citation_page_last
_citation_journal_id_ASTM
primary 'Acta Crystallographica, Section E. Structure Reports Online'
 2012 68 6 i42 i42 ACSEBH
_publ_author_name
;
Suzuki, A.;Takizawa, T.;Hidaka, C.;Shigetaka, N.;Kitajima, I.
;
_cell_length_a                     6.841(3)
_cell_length_b                     27.069(9)
_cell_length_c                     7.231(3)
_cell_angle_alpha                  90.0000
_cell_angle_beta                   109.413(5)
_cell_angle_gamma                  90.0000
_cell_volume                       1262.9
_cell_formula_units_Z              8
_symmetry_space_group_name_H-M     'P 1 21/a 1'
_symmetry_Int_Tables_number        14
_refine_ls_R_factor_all            .0379
loop_
_symmetry_equiv_pos_site_id
_symmetry_equiv_pos_as_xyz
  1	'x+.5, -y+.5, z'
  2	'-x, -y, -z'
  3	'-x+.5, y+.5, -z'
  4	'x, y, z'
loop_
_atom_type_symbol
_atom_type_oxidation_number
Ca2+	2
Ga3+	3
S2-	-2
loop_
_atom_site_label
_atom_site_type_symbol
_atom_site_symmetry_multiplicity
_atom_site_Wyckoff_symbol
_atom_site_fract_x
_atom_site_fract_y
_atom_site_fract_z
_atom_site_occupancy
_atom_site_attached_hydrogens
_atom_site_U_iso_or_equiv
Ga1 Ga3+ 4 e 0.41763(6) 0.234320(10) 0.54983(6) 1.00 0 0.01027(10) 
Ga2 Ga3+ 4 e 0.63163(6) 0.150170(10) 0.29040(6) 1.00 0 0.01047(10) 
Ga3 Ga3+ 4 e -0.05236(6) 0.052250(10) 0.27118(6) 1.00 0 0.01054(10) 
Ga4 Ga3+ 4 e 0.23350(6) 0.064220(10) 0.01510(6) 1.00 0 0.01095(10) 
Ca1 Ca2+ 4 e -0.44242(12) 0.07086(3) -0.32662(11) 1.00 0 0.0133(2) 
Ca2 Ca2+ 4 e 0.09658(12) 0.19323(3) 0.04330(11) 1.00 0 0.0145(2) 
S1 S2- 4 e -0.08531(14) 0.09720(3) -0.01062(13) 1.00 0 0.0114(2) 
S2 S2- 4 e -0.13487(14) 0.09906(4) 0.49207(13) 1.00 0 0.0125(2) 
S3 S2- 4 e 0.24485(13) 0.25319(4) 0.75754(13) 1.00 0 0.0128(2) 
S4 S2- 4 e 0.37219(14) 0.15701(3) 0.42780(13) 1.00 0 0.0115(2) 
S5 S2- 4 e 0.28330(14) 0.02921(3) 0.31401(13) 1.00 0 0.0112(2) 
S6 S2- 4 e 0.30654(14) 0.27904(3) 0.26168(13) 1.00 0 0.0114(2) 
S7 S2- 4 e -0.26440(15) -0.01372(4) 0.21648(14) 1.00 0 0.0157(2) 
S8 S2- 4 e 0.42875(14) 0.13001(3) -0.02150(13) 1.00 0 0.0118(2) 

loop_
_atom_site_aniso_label
_atom_site_aniso_type_symbol
_atom_site_aniso_U_11
_atom_site_aniso_U_22
_atom_site_aniso_U_33
_atom_site_aniso_U_12
_atom_site_aniso_U_13
_atom_site_aniso_U_23
Ga1 Ga3+ 0.0099(2) 0.0137(2) 0.0084(2) 0.00054(16) 0.00453(16) -0.00112(16)
Ga2 Ga3+ 0.0109(2) 0.0120(2) 0.0094(2) 0.00015(16) 0.00450(16) -0.00010(16)
Ga3 Ga3+ 0.0111(2) 0.0126(2) 0.0100(2) 0.00015(16) 0.00645(16) -0.00067(16)
Ga4 Ga3+ 0.0114(2) 0.0141(2) 0.0091(2) -0.00123(17) 0.00581(16) 
-0.00087(16)
Ca1 Ca2+ 0.0127(4) 0.0164(4) 0.0114(3) -0.0016(3) 0.0049(3) 0.0007(3)
Ca2 Ca2+ 0.0146(4) 0.0145(4) 0.0140(4) -0.0003(3) 0.0044(3) -0.0005(3)
S1 S2- 0.0106(4) 0.0161(4) 0.0078(4) 0.0007(3) 0.0037(3) 0.0016(3)
S2 S2- 0.0153(4) 0.0151(5) 0.0084(4) 0.0037(3) 0.0056(3) -0.0004(3)
S3 S2- 0.0074(4) 0.0234(5) 0.0088(4) 0.0017(3) 0.0043(3) -0.0004(3)
S4 S2- 0.0134(4) 0.0118(4) 0.0114(4) -0.0002(3) 0.0069(3) -0.0008(3)
S5 S2- 0.0118(4) 0.0151(4) 0.0070(4) 0.0024(3) 0.0035(3) 0.0015(3)
S6 S2- 0.0135(5) 0.0130(4) 0.0094(4) 0.0015(3) 0.0062(3) 0.0006(3)
S7 S2- 0.0197(5) 0.0167(5) 0.0168(5) -0.0072(3) 0.0142(4) -0.0073(3)
S8 S2- 0.0124(4) 0.0145(4) 0.0093(4) -0.0029(3) 0.0049(3) -0.0019(3)
#End of data_262780-ICSD


