data_82767-ICSD
#?2014 by Fachinformationszentrum Karlsruhe, and the U.S. Secretary of 
#Commerce on behalf of the United States.  All rights reserved.
_database_code_ICSD                82767
_audit_creation_date               1998/06/26
_chemical_name_systematic
;
Pentasodium Iron(III) Bis(phosphate(V)) Difluoride
;
_chemical_formula_structural       'Na5 Fe (P O4)2 F2'
_chemical_formula_sum              'F2 Fe1 Na5 O8 P2'
_publ_section_title
;
Crystal structure of the new phosphate Na5 Fe (P O4)2 F2
;
loop_
_citation_id
_citation_journal_abbrev
_citation_year
_citation_journal_volume
_citation_journal_issue
_citation_page_first
_citation_page_last
_citation_journal_id_ASTM
primary 'Doklady Akad. Nauk' 1996 350 4 499 502 DAKNEQ
_publ_author_name
;
Rastsvetaeva, R.K.;Maksimov, B.A.;Timofeeva, V.A.
;
_cell_length_a                     11.643(1)
_cell_length_b                     21.7770(30)
_cell_length_c                     13.750(1)
_cell_angle_alpha                  90.
_cell_angle_beta                   90.
_cell_angle_gamma                  90.
_cell_volume                       3486.31
_cell_formula_units_Z              16
_symmetry_space_group_name_H-M     'P b c a'
_symmetry_Int_Tables_number        61
_refine_ls_R_factor_all            .042
loop_
_symmetry_equiv_pos_site_id
_symmetry_equiv_pos_as_xyz
  1	'x+.5, y, -z+.5'
  2	'x, -y+.5, z+.5'
  3	'-x+.5, y+.5, z'
  4	'-x, -y, -z'
  5	'-x+.5, -y, z+.5'
  6	'-x, y+.5, -z+.5'
  7	'x+.5, -y+.5, -z'
  8	'x, y, z'
loop_
_atom_type_symbol
_atom_type_oxidation_number
F1-	-1
Fe3+	3
Na1+	1
O2-	-2
P5+	5
loop_
_atom_site_label
_atom_site_type_symbol
_atom_site_symmetry_multiplicity
_atom_site_Wyckoff_symbol
_atom_site_fract_x
_atom_site_fract_y
_atom_site_fract_z
_atom_site_occupancy
_atom_site_attached_hydrogens
_atom_site_B_iso_or_equiv
Fe1 Fe3+ 4 a 0 0 0 1. 0 0.78(2) 
Fe2 Fe3+ 8 c 0.0025(1) 0.2496(1) -.0068(1) 1. 0 0.84(2) 
Fe3 Fe3+ 4 b 0 0 0.5 1. 0 0.80(2) 
P1 P5+ 8 c 0.4152(1) 0.1262(1) 0.3809(1) 1. 0 0.78(2) 
P2 P5+ 8 c 0.2514(1) 0.0096(1) 0.1191(1) 1. 0 0.74(2) 
P3 P5+ 8 c 0.2472(1) 0.2582(1) 0.1222(1) 1. 0 0.83(2) 
P4 P5+ 8 c 0.4250(1) 0.3727(1) 0.3782(1) 1. 0 0.80(2) 
Na1 Na1+ 8 c 0.1687(1) 0.1321(1) 0.2527(1) 1. 0 1.60(4) 
Na2 Na1+ 8 c 0.1614(1) 0.1260(1) -.0024(1) 1. 0 1.34(4) 
Na3 Na1+ 8 c 0.4223(1) 0.1259(1) 0.1236(1) 1. 0 1.34(4) 
Na4 Na1+ 8 c 0.2652(1) 0.4987(1) 0.3719(1) 1. 0 1.62(4) 
Na5 Na1+ 8 c 0.1689(1) 0.3787(1) 0.2528(1) 1. 0 1.78(4) 
Na6 Na1+ 8 c 0.5171(1) 0.4980(1) 0.2367(1) 1. 0 2.01(4) 
Na7 Na1+ 8 c 0.5011(1) 0.2462(1) 0.2494(1) 1. 0 1.46(4) 
Na8 Na1+ 8 c 0.1650(1) 0.1173(1) 0.4986(1) 1. 0 1.39(4) 
Na9 Na1+ 8 c 0.4171(1) 0.3825(1) 0.1224(1) 1. 0 1.45(4) 
Na10 Na1+ 8 c 0.2496(1) 0.2553(1) 0.3857(1) 1. 0 1.73(4) 
F1 F1- 8 c 0.0551(1) 0.3104(1) 0.3911(1) 1. 0 1.56(4) 
F2 F1- 8 c 0.0790(1) 0.1893(1) 0.4053(1) 1. 0 1.32(3) 
F3 F1- 8 c 0.0478(1) 0.0356(1) 0.3745(1) 1. 0 1.66(4) 
F4 F1- 8 c 0.0933(1) 0.4592(1) 0.4015(1) 1. 0 1.83(4) 
O1 O2- 8 c 0.4757(2) 0.3921(1) 0.2815(1) 1. 0 1.59(8) 
O2 O2- 8 c 0.4715(2) 0.4136(1) 0.4617(1) 1. 0 1.60(8) 
O3 O2- 8 c 0.2498(2) 0.3280(1) 0.1191(1) 1. 0 1.38(8) 
O4 O2- 8 c 0.4838(2) 0.0837(1) 0.4499(2) 1. 0 2.28(9) 
O5 O2- 8 c 0.1607(2) 0.2321(1) 0.0464(1) 1. 0 1.33(7) 
O6 O2- 8 c 0.2490(2) 0.0791(2) 0.1255(1) 1. 0 1.27(7) 
O7 O2- 8 c 0.2148(2) 0.2349(1) 0.2228(2) 1. 0 1.81(7) 
O8 O2- 8 c 0.3668(2) 0.2314(1) 0.0937(2) 1. 0 1.64(7) 
O9 O2- 8 c 0.2953(2) 0.3719(1) 0.3776(1) 1. 0 1.95(8) 
O10 O2- 8 c 0.2916(2) 0.1050(1) 0.3725(1) 1. 0 1.59(7) 
O11 O2- 8 c 0.4684(2) 0.3066(1) 0.4013(2) 1. 0 2.34(9) 
O12 O2- 8 c 0.3689(2) 0.4843(1) 0.0907(1) 1. 0 1.59(7) 
O13 O2- 8 c 0.2113(2) 0.4797(1) 0.2139(1) 1. 0 1.67(7) 
O14 O2- 8 c 0.4750(2) 0.1310(1) 0.2837(1) 1. 0 2.7(9) 
O15 O2- 8 c 0.1651(2) 0.4893(1) 0.0359(1) 1. 0 1.4(6) 
O16 O2- 8 c 0.4158(2) 0.1901(1) 0.4298(2) 1. 0 2.7(9) 

#End of data_82767-ICSD


