data_281053-ICSD
#?2014 by Fachinformationszentrum Karlsruhe, and the U.S. Secretary of 
#Commerce on behalf of the United States.  All rights reserved.
_database_code_ICSD                281053
_audit_creation_date               2003/04/01
_audit_update_record               2012/02/01
_chemical_name_systematic
;
Dipotassium Bis(iodato(V))chromatodioxouranate
;
_chemical_formula_structural       'K2 (U O2 (Cr O4) (I O3)2)'
_chemical_formula_sum              'Cr1 I2 K2 O12 U1'
_publ_section_title
;
Mixed-metal uranium(VI) iodates: hydrothermal syntheses, structures 
and reactivity of Rb (U O2 (Cr O4) (I O3) (H2 O)), A2 (U O2 (Cr O4) 
(I O3)2) (A = K, Rb, Cs) and K2 (U O2 (Mo O4) (I O3)2)
;
loop_
_citation_id
_citation_journal_abbrev
_citation_year
_citation_journal_volume
_citation_journal_issue
_citation_page_first
_citation_page_last
_citation_journal_id_ASTM
primary 'Inorganic Chemistry' 2002 41 20 5126 5132 INOCAJ
_publ_author_name
;
Sykora, R.E.;McDaniel, S.M.;Wells, D.M.;Albrecht Schmitt, T.E.
;
_cell_length_a                     11.1337(5)
_cell_length_b                     7.2884(4)
_cell_length_c                     15.5661(7)
_cell_angle_alpha                  90.
_cell_angle_beta                   107.977(1)
_cell_angle_gamma                  90.
_cell_volume                       1201.47
_cell_formula_units_Z              4
_symmetry_space_group_name_H-M     'P 1 21/c 1'
_symmetry_Int_Tables_number        14
_refine_ls_R_factor_all            .0309
loop_
_symmetry_equiv_pos_site_id
_symmetry_equiv_pos_as_xyz
  1	'x, -y+.5, z+.5'
  2	'-x, -y, -z'
  3	'-x, y+.5, -z+.5'
  4	'x, y, z'
loop_
_atom_type_symbol
_atom_type_oxidation_number
Cr6+	6
I5+	5
K1+	1
O2-	-2
U6+	6
loop_
_atom_site_label
_atom_site_type_symbol
_atom_site_symmetry_multiplicity
_atom_site_Wyckoff_symbol
_atom_site_fract_x
_atom_site_fract_y
_atom_site_fract_z
_atom_site_occupancy
_atom_site_attached_hydrogens
_atom_site_U_iso_or_equiv
U1 U6+ 4 e 0.16961(3) 0.51014(4) -.135308(19) 1. 0 0.00969(10) 
Cr1 Cr6+ 4 e -.07377(11) 0.26473(16) -.05239(8) 1. 0 0.0114(2) 
I1 I5+ 4 e 0.17225(4) 0.01465(6) -.10670(3) 1. 0 0.01014(12) 
I2 I5+ 4 e 0.40382(5) 0.71590(7) -.23004(3) 1. 0 0.01290(13) 
K1 K1+ 4 e 0.25061(18) 0.2481(2) 0.13845(14) 1. 0 0.0233(4) 
K2 K1+ 4 e 0.50308(18) 0.7545(3) 0.04887(13) 1. 0 0.0213(4) 
O1 O2- 4 e 0.0742(5) 0.3120(8) -.0583(4) 1. 0 0.0177(12) 
O2 O2- 4 e -.0765(6) 0.2917(8) 0.0556(4) 1. 0 0.0187(12) 
O3 O2- 4 e -.1043(5) 0.0552(8) -.0806(4) 1. 0 0.0153(11) 
O4 O2- 4 e -.1787(6) 0.3937(9) -.1196(4) 1. 0 0.0241(14) 
O5 O2- 4 e 0.2181(5) 0.1998(7) -.1681(4) 1. 0 0.0165(12) 
O6 O2- 4 e 0.2189(5) -.1789(7) -.1639(4) 1. 0 0.0158(11) 
O7 O2- 4 e 0.3066(6) 0.0220(8) -.0088(4) 1. 0 0.0199(13) 
O8 O2- 4 e 0.3023(5) 0.5192(7) -.2270(4) 1. 0 0.0146(11) 
O9 O2- 4 e 0.4974(6) 0.6116(9) -.2906(4) 1. 0 0.0241(14) 
O10 O2- 4 e 0.5111(6) 0.7017(10) -.1194(4) 1. 0 0.0282(15) 
O11 O2- 4 e 0.0326(6) 0.5130(8) -.2322(4) 1. 0 0.0169(12) 
O12 O2- 4 e 0.3061(5) 0.5059(7) -.0372(4) 1. 0 0.0144(12) 

loop_
_atom_site_aniso_label
_atom_site_aniso_type_symbol
_atom_site_aniso_U_11
_atom_site_aniso_U_22
_atom_site_aniso_U_33
_atom_site_aniso_U_12
_atom_site_aniso_U_13
_atom_site_aniso_U_23
U1 U6+ 0.00973(15) 0.00756(15) 0.01190(16) -0.00043(9) 0.00353(11) 
-0.00009(9)
Cr1 Cr6+ 0.0107(6) 0.0098(6) 0.0143(6) 0.0003(4) 0.0049(5) -0.0001(4)
I1 I5+ 0.0108(2) 0.0078(2) 0.0125(2) -0.00018(16) 0.00460(18) -0.00041(16)
I2 I5+ 0.0116(2) 0.0141(2) 0.0135(2) -0.00128(18) 0.00456(18) 0.00129(17)
K1 K1+ 0.0212(9) 0.0146(8) 0.0302(10) -0.0033(7) 0.0022(8) 0.0024(7)
K2 K1+ 0.0168(8) 0.0244(9) 0.0225(9) -0.0007(7) 0.0057(7) -0.0044(7)
O1 O2- 0.012(3) 0.014(3) 0.029(3) -0.004(2) 0.009(2) -0.002(2)
O2 O2- 0.020(3) 0.009(3) 0.027(3) 0.003(2) 0.008(2) 0.001(2)
O3 O2- 0.023(3) 0.014(3) 0.012(3) -0.004(2) 0.010(2) -0.004(2)
O4 O2- 0.017(3) 0.020(3) 0.031(4) 0.006(2) 0.001(3) 0.003(3)
O5 O2- 0.015(3) 0.008(3) 0.029(3) -0.001(2) 0.012(2) 0.001(2)
O6 O2- 0.016(3) 0.006(2) 0.028(3) 0.001(2) 0.011(2) 0.000(2)
O7 O2- 0.016(3) 0.020(3) 0.020(3) 0.000(2) 0.000(2) 0.004(2)
O9 O2- 0.022(3) 0.024(3) 0.033(4) 0.005(3) 0.019(3) 0.001(3)
O10 O2- 0.030(4) 0.053(4) 0.001(2) -0.006(3) 0.004(2) 0.002(3)
O11 O2- 0.011(3) 0.025(3) 0.013(3) -0.001(2) 0.001(2) 0.002(2)
O12 O2- 0.010(3) 0.017(3) 0.012(3) 0.001(2) -0.003(2) 0.001(2)
#End of data_281053-ICSD


