data_156658-ICSD
#?2014 by Fachinformationszentrum Karlsruhe, and the U.S. Secretary of 
#Commerce on behalf of the United States.  All rights reserved.
_database_code_ICSD                156658
_audit_creation_date               2007/08/01
_chemical_name_systematic
;
Barium Disodium Tetrakis(tecto-alumosilicate)
;
_chemical_formula_structural       'Ba Na2 (Al Si O4)4'
_chemical_formula_sum              'Al4 Ba1 Na2 O16 Si4'
_chemical_name_mineral             Banalsite
_publ_section_title
;
The crystal structure of stronalsite and a redetermination of the 
structure of banalsite
;
loop_
_citation_id
_citation_journal_abbrev
_citation_year
_citation_journal_volume
_citation_page_first
_citation_page_last
_citation_journal_id_ASTM
primary 'Canadian Mineralogist' 2006 44 533 546 CAMIA6
_publ_author_name
;
Liferovich, R.P.;Locock, A.J.;Mitchell, R.H.;Shpachenko, A.K.
;
_cell_length_a                     8.5068(16)
_cell_length_b                     9.9811(18)
_cell_length_c                     16.7485(31)
_cell_angle_alpha                  90
_cell_angle_beta                   90
_cell_angle_gamma                  90
_cell_volume                       1422.07
_cell_formula_units_Z              4
_symmetry_space_group_name_H-M     'I b a 2'
_symmetry_Int_Tables_number        45
_refine_ls_R_factor_all            .023
loop_
_symmetry_equiv_pos_site_id
_symmetry_equiv_pos_as_xyz
  1	'x, -y, z+.5'
  2	'-x, y, z+.5'
  3	'-x, -y, z'
  4	'x, y, z'
  5	'x+.5, -y+.5, z'
  6	'-x+.5, y+.5, z'
  7	'-x+.5, -y+.5, z+.5'
  8	'x+.5, y+.5, z+.5'
loop_
_atom_type_symbol
_atom_type_oxidation_number
Al3+	3
Ba2+	2
Na1+	1
O2-	-2
Si4+	4
loop_
_atom_site_label
_atom_site_type_symbol
_atom_site_symmetry_multiplicity
_atom_site_Wyckoff_symbol
_atom_site_fract_x
_atom_site_fract_y
_atom_site_fract_z
_atom_site_occupancy
_atom_site_attached_hydrogens
_atom_site_U_iso_or_equiv
Ba1 Ba2+ 4 b 0.00000 0.50000 0.1544(1) 1. 0 0.0107(0) 
Na1 Na1+ 8 c -0.0422(1) 0.3256(1) -0.0958(3) 1. 0 0.0187(2) 
Al1 Al3+ 8 c 0.0709(2) 0.1865(2) 0.0632(1) 1. 0 0.0091(4) 
Al2 Al3+ 8 c -0.2787(2) 0.4452(2) 0.3113(1) 1. 0 0.0087(3) 
Si1 Si4+ 8 c -0.2655(2) 0.5595(2) -0.0024(1) 1. 0 0.0082(3) 
Si2 Si4+ 8 c 0.0787(2) 0.8065(2) 0.2459(1) 1. 0 0.0081(3) 
O1 O2- 8 c -0.2142(2) 0.4851(2) 0.4073(5) 1. 0 0.0127(4) 
O2 O2- 8 c -0.0052(5) 0.2076(2) 0.1580(5) 1. 0 0.0143(5) 
O3 O2- 8 c -0.0757(4) 0.1439(4) -0.0049(3) 1. 0 0.0124(7) 
O4 O2- 8 c 0.2223(4) 0.9139(5) 0.2499(3) 1. 0 0.0112(8) 
O5 O2- 8 c 0.2262(5) 0.0719(5) 0.0553(3) 1. 0 0.0140(9) 
O6 O2- 8 c -0.4499(4) 0.3532(4) 0.3114(3) 1. 0 0.0110(7) 
O7 O2- 8 c 0.1285(4) 0.6548(4) 0.2722(3) 1. 0 0.0124(8) 
O8 O2- 8 c -0.1222(5) 0.6523(4) 0.0312(3) 1. 0 0.0115(8) 

#End of data_156658-ICSD


