data_165561-ICSD
#?2014 by Fachinformationszentrum Karlsruhe, and the U.S. Secretary of 
#Commerce on behalf of the United States.  All rights reserved.
_database_code_ICSD                165561
_audit_creation_date               2010/02/01
_chemical_name_systematic          'Dipotassium Oxalate'
_chemical_formula_structural       'K2 (C2 O4)'
_chemical_formula_sum              'C2 K2 O4'
_publ_section_title
;
Crystal and molecular structures of alkali oxalates: first proof of a 
staggered oxalate anion in the solid state
;
loop_
_citation_id
_citation_journal_abbrev
_citation_year
_citation_journal_volume
_citation_page_first
_citation_page_last
_citation_journal_id_ASTM
primary 'Inorganic Chemistry' 2003 42 1499 1507 INOCAJ
_publ_author_name
;
Dinnebier, R.E.;Vensky, S.;Panthoefer, M.;Jansen, M.
;
_cell_length_a                     10.91176(7)
_cell_length_b                     6.11592(4)
_cell_length_c                     3.440033(24)
_cell_angle_alpha                  90.0
_cell_angle_beta                   90.0
_cell_angle_gamma                  90.0
_cell_volume                       229.57
_cell_formula_units_Z              2
_symmetry_space_group_name_H-M     'P b a m'
_symmetry_Int_Tables_number        55
_refine_ls_R_factor_all            .049
loop_
_symmetry_equiv_pos_site_id
_symmetry_equiv_pos_as_xyz
  1	'x+.5, -y+.5, z'
  2	'-x+.5, y+.5, z'
  3	'x, y, -z'
  4	'-x, -y, -z'
  5	'-x+.5, y+.5, -z'
  6	'x+.5, -y+.5, -z'
  7	'-x, -y, z'
  8	'x, y, z'
loop_
_atom_type_symbol
_atom_type_oxidation_number
C3+	3
K1+	1
O2-	-2
loop_
_atom_site_label
_atom_site_type_symbol
_atom_site_symmetry_multiplicity
_atom_site_Wyckoff_symbol
_atom_site_fract_x
_atom_site_fract_y
_atom_site_fract_z
_atom_site_occupancy
_atom_site_attached_hydrogens
_atom_site_U_iso_or_equiv
C1 C3+ 4 g 0.43828(20) 1.0699(4) 0.0 1.0 0 0.0195(7) 
O1 O2- 4 g 0.45049(13) 1.27287(27) 0.0 1.0 0 0.0268(6) 
O2 O2- 4 g 0.34079(16) 0.96392(19) 0.0 1.0 0 0.0190(5) 
K1 K1+ 4 h 0.34860(6) 0.59497(9) 0.5 1.0 0 0.02141(19) 

#End of data_165561-ICSD


