data_416294-ICSD
#?2014 by Fachinformationszentrum Karlsruhe, and the U.S. Secretary of 
#Commerce on behalf of the United States.  All rights reserved.
_database_code_ICSD                416294
_audit_creation_date               2008/02/01
_chemical_name_systematic
;
Trirubidium Catena-octaselenoargentotristannate
;
_chemical_formula_structural       'Rb3 (Ag Sn3 Se8)'
_chemical_formula_sum              'Ag1 Rb3 Se8 Sn3'
_publ_section_title
;
Solvothermal syntheses and structures of A3 Ag Sn3 Se8 (A= Rb, K)
;
loop_
_citation_id
_citation_journal_abbrev
_citation_year
_citation_journal_volume
_citation_page_first
_citation_page_last
_citation_journal_id_ASTM
primary 'Inorganic Chemistry Communications' 2007 10 555 557 ICCOFP
_publ_author_name
;
Ji Min;Baiyin Menghe;Ji Shouhua;An Yonglin
;
_cell_length_a                     8.345(3)
_cell_length_b                     8.345(3)
_cell_length_c                     13.455(8)
_cell_angle_alpha                  90.
_cell_angle_beta                   90.
_cell_angle_gamma                  90.
_cell_volume                       936.99
_cell_formula_units_Z              2
_symmetry_space_group_name_H-M     'P 4/n b m Z'
_symmetry_Int_Tables_number        125
_refine_ls_R_factor_all            .0529
loop_
_symmetry_equiv_pos_site_id
_symmetry_equiv_pos_as_xyz
  1	'y+.5, x+.5, z'
  2	'y, -x+.5, z'
  3	'-y+.5, x, z'
  4	'-y, -x, z'
  5	'-y+.5, -x+.5, -z'
  6	'-y, x+.5, -z'
  7	'y+.5, -x, -z'
  8	'y, x, -z'
  9	'x+.5, y+.5, -z'
 10	'-x+.5, y, -z'
 11	'x, -y+.5, -z'
 12	'-x, -y, -z'
 13	'-x+.5, -y+.5, z'
 14	'x+.5, -y, z'
 15	'-x, y+.5, z'
 16	'x, y, z'
loop_
_atom_type_symbol
_atom_type_oxidation_number
Ag1+	1
Rb1+	1
Se2-	-2
Sn4+	4
loop_
_atom_site_label
_atom_site_type_symbol
_atom_site_symmetry_multiplicity
_atom_site_Wyckoff_symbol
_atom_site_fract_x
_atom_site_fract_y
_atom_site_fract_z
_atom_site_occupancy
_atom_site_attached_hydrogens
_atom_site_U_iso_or_equiv
Sn1 Sn4+ 2 c 0.2500 0.7500 0.0000 1 0 0.0163(4) 
Sn2 Sn4+ 4 h 0.2500 0.7500 0.25831(6) 1 0 0.0149(3) 
Ag1 Ag1+ 2 d 0.2500 0.7500 0.5000 1 0 0.0468(6) 
Se1 Se2- 8 m 0.41011(9) 0.58989(9) 0.12340(6) 1 0 0.0176(3) 
Se2 Se2- 8 m 0.07531(8) 0.57531(8) 0.35987(8) 1 0 0.0167(3) 
Rb1 Rb1+ 2 b 0.2500 0.2500 0.5000 1 0 0.0252(5) 
Rb2 Rb1+ 4 g 0.2500 0.2500 0.22319(11) 1 0 0.0221(4) 

loop_
_atom_site_aniso_label
_atom_site_aniso_type_symbol
_atom_site_aniso_U_11
_atom_site_aniso_U_22
_atom_site_aniso_U_33
_atom_site_aniso_U_12
_atom_site_aniso_U_13
_atom_site_aniso_U_23
Sn1 Sn4+ 0.0230(5) 0.0230(5) 0.0028(6) 0.000 0.000 0.000
Sn2 Sn4+ 0.0204(4) 0.0204(4) 0.0041(5) -0.0039(2) 0.000 0.000
Ag1 Ag1+ 0.0657(9) 0.0657(9) 0.0089(9) 0.000 0.000 0.000
Se1 Se2- 0.0217(4) 0.0217(4) 0.0096(6) 0.0010(3) -0.00055(18) 0.00055(18)
Se2 Se2- 0.0205(4) 0.0205(4) 0.0092(5) -0.0008(3) 0.0013(2) 0.0013(2)
Rb1 Rb1+ 0.0305(7) 0.0305(7) 0.0145(10) 0.000 0.000 0.000
Rb2 Rb1+ 0.0210(5) 0.0210(5) 0.0242(8) 0.000 0.000 0.000
#End of data_416294-ICSD


