data_42187-ICSD
#?2014 by Fachinformationszentrum Karlsruhe, and the U.S. Secretary of 
#Commerce on behalf of the United States.  All rights reserved.
_database_code_ICSD                42187
_audit_creation_date               2000/12/16
_chemical_name_systematic          'Zinc Sulfide'
_chemical_formula_structural       'Zn S'
_chemical_formula_sum              'S1 Zn1'
_publ_section_title
;
New Zn S polytypes of the family 18L
;
loop_
_citation_id
_citation_journal_abbrev
_citation_year
_citation_journal_volume
_citation_page_first
_citation_page_last
_citation_journal_id_ASTM
primary 'Acta Crystallographica. Section A: Foundations of Crystallography'
 1983 39 933 936 ACACEQ
_publ_author_name                  'Saliba, S.;Mardix, S.'
_cell_length_a                     3.823
_cell_length_b                     3.823
_cell_length_c                     168.6
_cell_angle_alpha                  90.
_cell_angle_beta                   90.
_cell_angle_gamma                  120.
_cell_volume                       2134.01
_cell_formula_units_Z              54
_symmetry_space_group_name_H-M     'R 3 m H'
_symmetry_Int_Tables_number        160
loop_
_symmetry_equiv_pos_site_id
_symmetry_equiv_pos_as_xyz
  1	'-x+y, y, z'
  2	'x, x-y, z'
  3	'-y, -x, z'
  4	'-x+y, -x, z'
  5	'-y, x-y, z'
  6	'x, y, z'
  7	'-x+y+.6666, y+.3333, z+.3333'
  8	'-x+y+.3333, y+.6666, z+.6666'
  9	'x+.6666, x-y+.3333, z+.3333'
 10	'x+.3333, x-y+.6666, z+.6666'
 11	'-y+.6666, -x+.3333, z+.3333'
 12	'-y+.3333, -x+.6666, z+.6666'
 13	'-x+y+.6666, -x+.3333, z+.3333'
 14	'-x+y+.3333, -x+.6666, z+.6666'
 15	'-y+.6666, x-y+.3333, z+.3333'
 16	'-y+.3333, x-y+.6666, z+.6666'
 17	'x+.6666, y+.3333, z+.3333'
 18	'x+.3333, y+.6666, z+.6666'
loop_
_atom_type_symbol
_atom_type_oxidation_number
S2-	-2
Zn2+	2
loop_
_atom_site_label
_atom_site_type_symbol
_atom_site_symmetry_multiplicity
_atom_site_Wyckoff_symbol
_atom_site_fract_x
_atom_site_fract_y
_atom_site_fract_z
_atom_site_occupancy
_atom_site_attached_hydrogens
Zn1 Zn2+ 3 a 0 0 0 1. 0 
Zn2 Zn2+ 3 a 0 0 0.05556 1. 0 
Zn3 Zn2+ 3 a 0 0 0.11111 1. 0 
Zn4 Zn2+ 3 a 0 0 0.18519 1. 0 
Zn5 Zn2+ 3 a 0 0 0.25926 1. 0 
Zn6 Zn2+ 3 a 0 0 0.31481 1. 0 
Zn7 Zn2+ 3 a 0 0 0.37037 1. 0 
Zn8 Zn2+ 3 a 0 0 0.42593 1. 0 
Zn9 Zn2+ 3 a 0 0 0.48148 1. 0 
Zn10 Zn2+ 3 a 0 0 0.53704 1. 0 
Zn11 Zn2+ 3 a 0 0 0.57407 1. 0 
Zn12 Zn2+ 3 a 0 0 0.61111 1. 0 
Zn13 Zn2+ 3 a 0 0 0.68519 1. 0 
Zn14 Zn2+ 3 a 0 0 0.74074 1. 0 
Zn15 Zn2+ 3 a 0 0 0.7963 1. 0 
Zn16 Zn2+ 3 a 0 0 0.83333 1. 0 
Zn17 Zn2+ 3 a 0 0 0.88889 1. 0 
Zn18 Zn2+ 3 a 0 0 0.96296 1. 0 
S1 S2- 3 a 0 0 0.01388 1. 0 
S2 S2- 3 a 0 0 0.06944 1. 0 
S3 S2- 3 a 0 0 0.125 1. 0 
S4 S2- 3 a 0 0 0.19907 1. 0 
S5 S2- 3 a 0 0 0.27314 1. 0 
S6 S2- 3 a 0 0 0.32869 1. 0 
S7 S2- 3 a 0 0 0.38425 1. 0 
S8 S2- 3 a 0 0 0.43981 1. 0 
S9 S2- 3 a 0 0 0.49536 1. 0 
S10 S2- 3 a 0 0 0.55092 1. 0 
S11 S2- 3 a 0 0 0.58795 1. 0 
S12 S2- 3 a 0 0 0.625 1. 0 
S13 S2- 3 a 0 0 0.69907 1. 0 
S14 S2- 3 a 0 0 0.75462 1. 0 
S15 S2- 3 a 0 0 0.81018 1. 0 
S16 S2- 3 a 0 0 0.84721 1. 0 
S17 S2- 3 a 0 0 0.90277 1. 0 
S18 S2- 3 a 0 0 0.97684 1. 0 

#End of data_42187-ICSD


