data_74953-ICSD
#?2014 by Fachinformationszentrum Karlsruhe, and the U.S. Secretary of 
#Commerce on behalf of the United States.  All rights reserved.
_database_code_ICSD                74953
_audit_creation_date               1995/10/17
_audit_update_record               2012/08/01
_chemical_name_systematic          'Calcium Phyllo-tetraphosphate - Ht'
_chemical_formula_structural       'Ca (P4 O11)'
_chemical_formula_sum              'Ca1 O11 P4'
_publ_section_title
;
Struktur einer kristallinen Hochtemperaturmodifikation des 
Calciumultraphosphats, CaP4O11, und die kristallographische 
Orientierungsbeziehung zur Raumtemperaturphase
;
loop_
_citation_id
_citation_journal_abbrev
_citation_year
_citation_journal_volume
_citation_page_first
_citation_page_last
_citation_journal_id_ASTM
primary 'Zeitschrift fuer Anorganische und Allgemeine Chemie (1950) (DE)'
 1994 620 766 770 ZAACAB
2 'Golden Book of Phase Transitions, Wroclaw' 2002 1 1 123 GBOPT5
_publ_author_name
;
Schneider, M.;Buschmann, J.;Luger, P.
;
_cell_length_a                     12.683(2)
_cell_length_b                     12.090(4)
_cell_length_c                     12.627(4)
_cell_angle_alpha                  90.
_cell_angle_beta                   90.
_cell_angle_gamma                  90.
_cell_volume                       1936.19
_cell_formula_units_Z              8
_symmetry_space_group_name_H-M     'A b a 2'
_symmetry_Int_Tables_number        41
_refine_ls_R_factor_all            .034
loop_
_symmetry_equiv_pos_site_id
_symmetry_equiv_pos_as_xyz
  1	'x+.5, -y+.5, z'
  2	'-x+.5, y+.5, z'
  3	'-x, -y, z'
  4	'x, y, z'
  5	'x+.5, -y, z+.5'
  6	'-x+.5, y, z+.5'
  7	'-x, -y+.5, z+.5'
  8	'x, y+.5, z+.5'
loop_
_atom_type_symbol
_atom_type_oxidation_number
Ca2+	2
O2-	-2
P5+	5
loop_
_atom_site_label
_atom_site_type_symbol
_atom_site_symmetry_multiplicity
_atom_site_Wyckoff_symbol
_atom_site_fract_x
_atom_site_fract_y
_atom_site_fract_z
_atom_site_occupancy
_atom_site_attached_hydrogens
Ca1 Ca2+ 8 b 0.9716(1) 0.7665(1) 0.5166 1. 0 
P1 P5+ 8 b 0.6617(2) 0.0596(2) 0.6901(3) 1. 0 
P2 P5+ 8 b 0.8374(2) 0.0635(2) 0.8432(3) 1. 0 
P3 P5+ 4 a 0.5 0 0.8378(3) 1. 0 
P4 P5+ 4 a 0 0 0.6968(3) 1. 0 
P5 P5+ 8 b 0.2128(6) 0.5944(1) 0.5172(3) 1. 0 
O1 O2- 8 b 0.7580(1) 0.1079(2) 0.7673(6) 1. 0 
O2 O2- 8 b 0.5958(4) 0.9752(5) 0.7552(5) 1. 0 
O3 O2- 8 b 0.9027(5) 0.9774(5) 0.7787(6) 1. 0 
O4 O2- 8 b 0.1048(2) 0.6370(3) 0.5190(9) 1. 0 
O5 O2- 8 b 0.0235(6) 0.8944(6) 0.6445(7) 1. 0 
O6 O2- 8 b 0.7733(6) 0.9966(7) 0.9233(6) 1. 0 
O7 O2- 8 b 0.7303(6) 0.9827(7) 0.6181(6) 1. 0 
O8 O2- 8 b 0.0196(6) 0.8961(7) 0.3941(7) 1. 0 
O9 O2- 8 b 0.8051(6) 0.8356(3) 0.5267(12) 1. 0 
O10 O2- 8 b 0.8963(6) 0.6485(8) 0.6428(8) 1. 0 
O11 O2- 8 b 0.9003(7) 0.6519(9) 0.3902(9) 1. 0 

loop_
_atom_site_aniso_label
_atom_site_aniso_type_symbol
_atom_site_aniso_U_11
_atom_site_aniso_U_22
_atom_site_aniso_U_33
_atom_site_aniso_U_12
_atom_site_aniso_U_13
_atom_site_aniso_U_23
Ca1 Ca2+ 0.0122(2) 0.0098(2) 0.0137(2) -.0003(2) 0.0004(6) 0.0016(6)
P1 P5+ 0.0128(8) 0.0224(9) 0.0104(8) -.0028(76) 0.0018(6) 0.0064(7)
P2 P5+ 0.0085(7) 0.0189(8) 0.0103(7) -.0016(5) -.0053(6) 0.0019(6)
P3 P5+ 0.0096(10) 0.0235(12) 0.0045(9) 0.0030(8) 0 0
P4 P5+ 0.0146(11) 0.0070(8) 0.0151(12) 0.0025(7) 0 0
P5 P5+ 0.0103(3) 0.0149(3) 0.0157(3) -.0011(2) -.0047(8) -.0007(10)
O1 O2- 0.0021(13) 0.0162(9) 0.0157(8) -.0031(11) -.0036(11) -.0037(17)
O2 O2- 0.0084(16) 0.0202(24) 0.012(2) -.0020(17) 0.0087(16) 0.0043(18)
O3 O2- 0.0169(21) 0.0140(23) 0.0254(28) -.0039(19) -.0009(21) 0.0082(21)
O4 O2- 0.0186(11) 0.0330(16) 0.0382(18) 0.0122(11) -.0013(33) 0.0175(33)
O5 O2- 0.0252(25) 0.0196(24) 0.0245(32) -.0022(24) 0.0022(22) -.0171(24)
O6 O2- 0.0202(26) 0.0555(41) 0.0213(26) 0.0168(25) 0.0139(20) 0.0172(25)
O7 O2- 0.0177(21) 0.0380(26) 0.0126(20) -.0026(19) -.0028(16) -.0125(19)
O8 O2- 0.0235(25) 0.0333(32) 0.0204(29) 0.0038(28) 0.0034(22) 0.0069(26)
O9 O2- 0.0254(14) 0.0345(18) 0.0683(50) 0.0185(13) 0.0086(22) 0.0245(39)
O10 O2- 0.0186(26) 0.0375(34) 0.0325(38) -.0044(23) 0.0168(24) 0.021(3)
O11 O2- 0.0322(37) 0.0449(44) 0.0441(52) 0.0012(32) -.0018(33) -.0255(40)
#End of data_74953-ICSD


