data_171053-ICSD
#?2014 by Fachinformationszentrum Karlsruhe, and the U.S. Secretary of 
#Commerce on behalf of the United States.  All rights reserved.
_database_code_ICSD                171053
_audit_creation_date               2006/04/01
_chemical_name_systematic          'Calcium Sulfate'
_chemical_formula_structural       'Ca S O4'
_chemical_formula_sum              'Ca1 O4 S1'
_publ_section_title
;
Evidence for monazite-, barite-, and Ag Mn O4 (distorted barite)-type 
structures of Ca S O4 at high pressure and temperature
;
loop_
_citation_id
_citation_journal_abbrev
_citation_year
_citation_journal_volume
_citation_page_first
_citation_page_last
_citation_journal_id_ASTM
primary 'American Mineralogist' 2005 90 22 27 AMMIAY
_publ_author_name
;
Crichton, W.A.;Parise, J.B.;Antao, S.M.;Grzechnik, A.
;
_cell_length_a                     6.3769(9)
_cell_length_b                     6.6439(9)
_cell_length_c                     6.1667(8)
_cell_angle_alpha                  90
_cell_angle_beta                   102.220(10)
_cell_angle_gamma                  90
_cell_volume                       255.35
_cell_formula_units_Z              4
_symmetry_space_group_name_H-M     'P 1 21/n 1'
_symmetry_Int_Tables_number        14
_refine_ls_R_factor_all            .0896
loop_
_symmetry_equiv_pos_site_id
_symmetry_equiv_pos_as_xyz
  1	'-x+.5, y+.5, -z+.5'
  2	'-x, -y, -z'
  3	'x+.5, -y+.5, z+.5'
  4	'x, y, z'
loop_
_atom_type_symbol
_atom_type_oxidation_number
Ca2+	2
O2-	-2
S6+	6
loop_
_atom_site_label
_atom_site_type_symbol
_atom_site_symmetry_multiplicity
_atom_site_Wyckoff_symbol
_atom_site_fract_x
_atom_site_fract_y
_atom_site_fract_z
_atom_site_occupancy
_atom_site_attached_hydrogens
_atom_site_U_iso_or_equiv
Ca1 Ca2+ 4 e 0.2685(8) 0.1592(9) 0.0981(10) 1. 0 0.010 
S1 S6+ 4 e 0.3036(11) 0.1664(14) 0.6278(11) 1. 0 0.010 
O1 O2- 4 e 0.2488(26) 0.0003(25) 0.4401(27) 1. 0 0.025 
O2 O2- 4 e 0.3573(34) 0.3480(22) 0.4915(25) 1. 0 0.025 
O3 O2- 4 e 0.4745(27) 0.1197(25) 0.7932(23) 1. 0 0.025 
O4 O2- 4 e 0.1192(27) 0.2202(22) 0.7110(23) 1. 0 0.025 

#End of data_171053-ICSD


