data_100036-ICSD
#?2014 by Fachinformationszentrum Karlsruhe, and the U.S. Secretary of 
#Commerce on behalf of the United States.  All rights reserved.
_database_code_ICSD                100036
_audit_creation_date               1980/01/01
_audit_update_record               1998/06/29
_chemical_name_systematic
;
Potassium Aluminium Fluoride Phosphate Hydrate *
;
_chemical_formula_structural       'K (Al2 F (H2 O)4 (P O4)2 )'
_chemical_formula_sum              'H8 Al2 F1 K1 O12 P2'
_chemical_name_mineral             Minyulite
_publ_section_title                'Minyulite : its atomic arrangement'
loop_
_citation_id
_citation_journal_abbrev
_citation_year
_citation_journal_volume
_citation_page_first
_citation_page_last
_citation_journal_id_ASTM
primary 'American Mineralogist' 1977 62 256 262 AMMIAY
_publ_author_name                  'Kampf, A.R.'
_cell_length_a                     9.337(5)
_cell_length_b                     9.740(5)
_cell_length_c                     5.522(3)
_cell_angle_alpha                  90.
_cell_angle_beta                   90.
_cell_angle_gamma                  90.
_cell_volume                       502.18
_cell_formula_units_Z              2
_symmetry_space_group_name_H-M     'P b a 2'
_symmetry_Int_Tables_number        32
_refine_ls_R_factor_all            .022
loop_
_symmetry_equiv_pos_site_id
_symmetry_equiv_pos_as_xyz
  1	'x+.5, -y+.5, z'
  2	'-x+.5, y+.5, z'
  3	'-x, -y, z'
  4	'x, y, z'
loop_
_atom_type_symbol
_atom_type_oxidation_number
Al3+	3
F1-	-1
H1+	1
K1+	1
O2-	-2
P5+	5
loop_
_atom_site_label
_atom_site_type_symbol
_atom_site_symmetry_multiplicity
_atom_site_Wyckoff_symbol
_atom_site_fract_x
_atom_site_fract_y
_atom_site_fract_z
_atom_site_occupancy
_atom_site_attached_hydrogens
_atom_site_B_iso_or_equiv
K1 K1+ 2 a 0 0 0 1. 0 0 
Al1 Al3+ 4 c 0.3591(1) 0.1105(1) 0.9545(4) 1. 0 0 
P1 P5+ 4 c 0.1470(1) 0.3243(1) 0.2040(4) 1. 0 0 
O1 O2- 4 c 0.4832(2) 0.1789(3) 0.1798(5) 1. 0 0 
O2 O2- 4 c 0.2075(3) 0.4658(3) 0.1382(6) 1. 0 0 
O3 O2- 4 c 0.2075(3) 0.2168(2) 0.0310(6) 1. 0 0 
O4 O2- 4 c 0.1850(2) 0.2918(3) 0.4675(6) 1. 0 0 
O5 O2- 4 c 0.2383(3) 0.0429(3) 0.6793(7) 1. 0 0 
O6 O2- 4 c 0.4285(3) 0.2511(3) 0.7202(7) 1. 0 0 
F1 F1- 2 b 0 0.5 0.8217(6) 1. 0 0 
H1 H1+ 4 c 0.226(4) 0.110(4) 0.596(8) 1. 0 3.2 
H2 H1+ 4 c 0.234(4) 0.486(5) 0.597(9) 1. 0 3.2 
H3 H1+ 4 c 0.352(4) 0.263(4) 0.606(8) 1. 0 3. 
H4 H1+ 4 c 0.002(4) 0.281(4) 0.608(8) 1. 0 3. 

#End of data_100036-ICSD


