data_40432-ICSD
#?2014 by Fachinformationszentrum Karlsruhe, and the U.S. Secretary of 
#Commerce on behalf of the United States.  All rights reserved.
_database_code_ICSD                40432
_audit_creation_date               1999/06/02
_chemical_name_systematic          'Dipotassium Platinum Ditelluride'
_chemical_formula_structural       'K2 Pt Te2'
_chemical_formula_sum              'K2 Pt1 Te2'
_publ_section_title
;
Neue Verbindungen im Na2 Pt S2- und im K2 Pt S2-Typ
;
loop_
_citation_id
_citation_journal_abbrev
_citation_year
_citation_journal_volume
_citation_page_first
_citation_page_last
_citation_journal_id_ASTM
primary 'Journal of the Less-Common Metals' 1989 154 261 270 JCOMAH
_publ_author_name
;
Bronger, W.;Jaeger, S.;Rennau, R.;Schmitz, D.
;
_cell_length_a                     10.266(4)
_cell_length_b                     7.912(2)
_cell_length_c                     3.949(1)
_cell_angle_alpha                  90.
_cell_angle_beta                   90.
_cell_angle_gamma                  90.
_cell_volume                       320.76
_cell_formula_units_Z              2
_symmetry_space_group_name_H-M     'I m m m'
_symmetry_Int_Tables_number        71
_refine_ls_R_factor_all            .052
loop_
_symmetry_equiv_pos_site_id
_symmetry_equiv_pos_as_xyz
  1	'x, y, -z'
  2	'x, -y, z'
  3	'-x, y, z'
  4	'-x, -y, -z'
  5	'-x, -y, z'
  6	'-x, y, -z'
  7	'x, -y, -z'
  8	'x, y, z'
  9	'x+.5, y+.5, -z+.5'
 10	'x+.5, -y+.5, z+.5'
 11	'-x+.5, y+.5, z+.5'
 12	'-x+.5, -y+.5, -z+.5'
 13	'-x+.5, -y+.5, z+.5'
 14	'-x+.5, y+.5, -z+.5'
 15	'x+.5, -y+.5, -z+.5'
 16	'x+.5, y+.5, z+.5'
loop_
_atom_type_symbol
_atom_type_oxidation_number
K1+	1
Pt2+	2
Te2-	-2
loop_
_atom_site_label
_atom_site_type_symbol
_atom_site_symmetry_multiplicity
_atom_site_Wyckoff_symbol
_atom_site_fract_x
_atom_site_fract_y
_atom_site_fract_z
_atom_site_occupancy
_atom_site_attached_hydrogens
K1 K1+ 4 f 0.2033(9) 0.5 0 1. 0 
Pt1 Pt2+ 2 a 0 0 0 1. 0 
Te1 Te2- 4 h 0 0.2213(3) 0.5 1. 0 

loop_
_atom_site_aniso_label
_atom_site_aniso_type_symbol
_atom_site_aniso_U_11
_atom_site_aniso_U_22
_atom_site_aniso_U_33
_atom_site_aniso_U_12
_atom_site_aniso_U_13
_atom_site_aniso_U_23
K1 K1+ 0.015(4) 0.023(4) 0.027(5) 0 0 0
Pt1 Pt2+ 0.0099(9) 0.0101(8) 0.0095(8) 0 0 0
Te1 Te2- 0.016(12) 0.010(1) 0.013(1) 0 0 0
#End of data_40432-ICSD


