data_42534-ICSD
#?2014 by Fachinformationszentrum Karlsruhe, and the U.S. Secretary of 
#Commerce on behalf of the United States.  All rights reserved.
_database_code_ICSD                42534
_audit_creation_date               2000/07/15
_chemical_name_systematic          'Disilver Iron Tetrathiostannate'
_chemical_formula_structural       'Ag2 Fe (Sn S4)'
_chemical_formula_sum              'Ag2 Fe1 S4 Sn1'
_chemical_name_mineral             Hocartite
_publ_section_title
;
La hocartite, Ag2 Sn Fe S4, une nouvelle espece minerale
;
loop_
_citation_id
_citation_journal_abbrev
_citation_year
_citation_journal_volume
_citation_page_first
_citation_page_last
_citation_journal_id_ASTM
primary
;
Bulletin de la Societe Francaise de Mineralogie et de 
Cristallographie (72,1949-100,1977)
;
 1968 91 383 387 BUFCAE
_publ_author_name
;
Caye, R.;Laurent, Y.;Picot, P.;Pierrot, R.;Levy, C.
;
_cell_length_a                     5.74(3)
_cell_length_b                     5.74(3)
_cell_length_c                     10.96(5)
_cell_angle_alpha                  90.
_cell_angle_beta                   90.
_cell_angle_gamma                  90.
_cell_volume                       361.11
_cell_formula_units_Z              2
_symmetry_space_group_name_H-M     'I -4 2 m'
_symmetry_Int_Tables_number        121
loop_
_symmetry_equiv_pos_site_id
_symmetry_equiv_pos_as_xyz
  1	'-y, -x, z'
  2	'y, x, z'
  3	'y, -x, -z'
  4	'-y, x, -z'
  5	'x, -y, -z'
  6	'-x, y, -z'
  7	'-x, -y, z'
  8	'x, y, z'
  9	'-y+.5, -x+.5, z+.5'
 10	'y+.5, x+.5, z+.5'
 11	'y+.5, -x+.5, -z+.5'
 12	'-y+.5, x+.5, -z+.5'
 13	'x+.5, -y+.5, -z+.5'
 14	'-x+.5, y+.5, -z+.5'
 15	'-x+.5, -y+.5, z+.5'
 16	'x+.5, y+.5, z+.5'
loop_
_atom_type_symbol
_atom_type_oxidation_number
Ag1+	1
Fe2+	2
S2-	-2
Sn4+	4
loop_
_atom_site_label
_atom_site_type_symbol
_atom_site_symmetry_multiplicity
_atom_site_Wyckoff_symbol
_atom_site_fract_x
_atom_site_fract_y
_atom_site_fract_z
_atom_site_occupancy
_atom_site_attached_hydrogens
Fe1 Fe2+ 2 a 0 0 0 1. 0 
Sn1 Sn4+ 2 b 0 0 0.5 1. 0 
Ag1 Ag1+ 4 d 0.5 0 0.25 1. 0 
S1 S2- 8 i 0.245 0.245 0.132 1. 0 

#End of data_42534-ICSD


