data_260599-ICSD
#?2014 by Fachinformationszentrum Karlsruhe, and the U.S. Secretary of 
#Commerce on behalf of the United States.  All rights reserved.
_database_code_ICSD                260599
_audit_creation_date               2010/02/01
_chemical_name_systematic
;
Potassium Europium(III) Tetraphosphate(V)
;
_chemical_formula_structural       'K Eu (P O3)4'
_chemical_formula_sum              'Eu1 K1 O12 P4'
_publ_section_title
;
The type IV polymorph of K Eu (P O3)4
;
loop_
_citation_id
_citation_journal_abbrev
_citation_year
_citation_journal_volume
_citation_journal_issue
_citation_page_first
_citation_page_last
_citation_journal_id_ASTM
primary 'Acta Crystallographica, Section E. Structure Reports Online'
 2009 65 12 i91 i92 ACSEBH
_publ_author_name
;
Oudahmane, A.;Daoud, M.;Tanouti, B.;Avignant, D.;Zambon, D.
;
_cell_length_a                     10.37230(10)
_cell_length_b                     8.97210(10)
_cell_length_c                     10.83200(10)
_cell_angle_alpha                  90.00
_cell_angle_beta                   106.0530(10)
_cell_angle_gamma                  90.00
_cell_volume                       968.73
_cell_formula_units_Z              4
_symmetry_space_group_name_H-M     'P 1 21/n 1'
_symmetry_Int_Tables_number        14
_refine_ls_R_factor_all            .0304
loop_
_symmetry_equiv_pos_site_id
_symmetry_equiv_pos_as_xyz
  1	'-x+.5, y+.5, -z+.5'
  2	'-x, -y, -z'
  3	'x+.5, -y+.5, z+.5'
  4	'x, y, z'
loop_
_atom_type_symbol
_atom_type_oxidation_number
Eu3+	3
K1+	1
O2-	-2
P5+	5
loop_
_atom_site_label
_atom_site_type_symbol
_atom_site_symmetry_multiplicity
_atom_site_Wyckoff_symbol
_atom_site_fract_x
_atom_site_fract_y
_atom_site_fract_z
_atom_site_occupancy
_atom_site_attached_hydrogens
_atom_site_U_iso_or_equiv
K1 K1+ 4 e 0.79467(11) 0.57090(14) 0.04227(10) 1 0 0.0395(2) 
Eu1 Eu3+ 4 e 0.500385(11) 0.772652(13) 0.184899(12) 1 0 0.00645(3) 
P1 P5+ 4 e 0.85428(6) 0.90558(7) 0.24010(7) 1 0 0.00615(10) 
P2 P5+ 4 e 0.54001(6) 0.82848(7) -0.14102(7) 1 0 0.00607(10) 
P3 P5+ 4 e 0.24938(6) 1.02436(7) 0.22927(6) 1 0 0.00609(10) 
P4 P5+ 4 e 0.17657(6) 0.89469(7) -0.01962(6) 1 0 0.00626(10) 
O1 O2- 4 e 0.14215(17) 0.9549(2) 0.10673(19) 1 0 0.0085(3) 
O2 O2- 4 e 0.35389(19) 0.9131(2) 0.29039(19) 1 0 0.0093(3) 
O3 O2- 4 e -0.02278(19) 0.7943(2) 0.2518(2) 1 0 0.0103(3) 
O4 O2- 4 e 0.6017(2) 0.5368(2) 0.1754(2) 1 0 0.0117(3) 
O5 O2- 4 e 0.5648(2) 0.7615(2) -0.0114(2) 1 0 0.0117(3) 
O6 O2- 4 e 0.17180(19) 1.0919(2) 0.3112(2) 1 0 0.0106(3) 
O7 O2- 4 e 0.73783(19) 0.8192(2) 0.2547(2) 1 0 0.0134(4) 
O8 O2- 4 e 0.5691(2) 0.7074(2) 0.4090(2) 1 0 0.0114(3) 
O9 O2- 4 e 0.31707(19) 0.8419(2) 0.0175(2) 1 0 0.0121(3) 
O10 O2- 4 e 0.53947(19) 1.0334(2) 0.1765(2) 1 0 0.0121(3) 
O11 O2- 4 e 0.31589(17) 1.1548(2) 0.1668(2) 1 0 0.0092(3) 
O12 O2- 4 e 0.8309(2) 0.9497(2) 0.0936(2) 1 0 0.0125(3) 

loop_
_atom_site_aniso_label
_atom_site_aniso_type_symbol
_atom_site_aniso_U_11
_atom_site_aniso_U_22
_atom_site_aniso_U_33
_atom_site_aniso_U_12
_atom_site_aniso_U_13
_atom_site_aniso_U_23
K1 K1+ 0.0363(5) 0.0581(6) 0.0243(4) 0.0047(4) 0.0085(4) -0.0045(4)
Eu1 Eu3+ 0.00596(4) 0.00617(4) 0.00701(5) 0.00051(3) 0.00144(3) 0.00084(4)
P1 P5+ 0.0054(2) 0.0053(2) 0.0068(2) -0.00011(17) 0.0002(2) 0.00105(19)
P2 P5+ 0.0060(2) 0.0053(2) 0.0071(2) -0.00059(17) 0.0021(2) -0.00025(19)
P3 P5+ 0.0057(2) 0.0065(2) 0.0062(3) 0.00066(17) 0.0020(2) -0.00024(19)
P4 P5+ 0.0052(2) 0.0077(2) 0.0050(2) -0.00047(17) 0.00004(19) 0.00081(19)
O1 O2- 0.0071(6) 0.0106(7) 0.0078(7) -0.0029(5) 0.0023(6) -0.0027(6)
O2 O2- 0.0094(7) 0.0093(7) 0.0087(8) 0.0032(5) 0.0015(6) 0.0013(6)
O3 O2- 0.0108(7) 0.0104(7) 0.0101(8) 0.0053(6) 0.0036(6) 0.0047(6)
O4 O2- 0.0163(8) 0.0086(7) 0.0117(8) 0.0013(6) 0.0063(7) 0.0015(6)
O5 O2- 0.0135(8) 0.0155(8) 0.0074(8) 0.0021(6) 0.0048(7) 0.0014(6)
O6 O2- 0.0114(7) 0.0126(7) 0.0095(8) 0.0022(6) 0.0059(7) -0.0018(6)
O7 O2- 0.0073(7) 0.0148(8) 0.0173(10) -0.0029(6) 0.0019(7) 0.0051(7)
O8 O2- 0.0114(7) 0.0125(8) 0.0093(8) 0.0046(6) 0.0011(6) 0.0038(6)
O9 O2- 0.0083(7) 0.0193(9) 0.0080(8) 0.0053(6) 0.0011(6) 0.0024(7)
O10 O2- 0.0099(7) 0.0060(6) 0.0212(10) 0.0017(5) 0.0059(7) 0.0020(7)
O11 O2- 0.0060(6) 0.0077(6) 0.0146(9) -0.0005(5) 0.0040(6) 0.0009(6)
O12 O2- 0.0191(9) 0.0087(7) 0.0069(8) -0.0009(6) -0.0009(7) 0.0026(6)
#End of data_260599-ICSD


