data_4122-ICSD
#?2014 by Fachinformationszentrum Karlsruhe, and the U.S. Secretary of 
#Commerce on behalf of the United States.  All rights reserved.
_database_code_ICSD                4122
_audit_creation_date               1980/01/01
_audit_update_record               1985/04/16
_chemical_name_systematic
;
Magnesium Catena-tetraoxodiantimonate(III)
;
_chemical_formula_structural       'Mg Sb2 O4'
_chemical_formula_sum              'Mg1 O4 Sb2'
_publ_section_title
;
Structure cristalline de l'antimonite de magnesium Mg Sb2 O4
;
loop_
_citation_id
_citation_journal_abbrev
_citation_year
_citation_journal_volume
_citation_page_first
_citation_page_last
_citation_journal_id_ASTM
primary 'Revue de Chimie Minerale' 1975 12 427 432 RVCMA8
_publ_author_name                  'Giroux-Maraine, C.;Perez, G.'
_cell_length_a                     8.476
_cell_length_b                     8.476
_cell_length_c                     8.476
_cell_angle_alpha                  90.
_cell_angle_beta                   90.
_cell_angle_gamma                  90.
_cell_volume                       608.94
_cell_formula_units_Z              4
_symmetry_space_group_name_H-M     'P 42/m b c'
_symmetry_Int_Tables_number        135
_refine_ls_R_factor_all            .042
loop_
_symmetry_equiv_pos_site_id
_symmetry_equiv_pos_as_xyz
  1	'-y+.5, -x+.5, z+.5'
  2	'-x+.5, y+.5, z'
  3	'y, -x, z+.5'
  4	'-x, -y, z'
  5	'-y+.5, -x+.5, -z+.5'
  6	'-x+.5, y+.5, -z'
  7	'y, -x, -z+.5'
  8	'-x, -y, -z'
  9	'y+.5, x+.5, -z+.5'
 10	'x+.5, -y+.5, -z'
 11	'-y, x, -z+.5'
 12	'x, y, -z'
 13	'y+.5, x+.5, z+.5'
 14	'x+.5, -y+.5, z'
 15	'-y, x, z+.5'
 16	'x, y, z'
loop_
_atom_type_symbol
_atom_type_oxidation_number
Mg2+	2
O2-	-2
Sb3+	3
loop_
_atom_site_label
_atom_site_type_symbol
_atom_site_symmetry_multiplicity
_atom_site_Wyckoff_symbol
_atom_site_fract_x
_atom_site_fract_y
_atom_site_fract_z
_atom_site_occupancy
_atom_site_attached_hydrogens
_atom_site_B_iso_or_equiv
Sb1 Sb3+ 8 h 0.3246(2) 0.3351(2) 0 1. 0 0.54 
Mg1 Mg2+ 4 d 0 0.5 0.25 1. 0 0.56 
O1 O2- 8 h 0.1019(17) 0.3650(17) 0 1. 0 0.7 
O2 O2- 8 g 0.1775(25) 0.6775(25) 0.25 1. 0 0.94 

#End of data_4122-ICSD


