data_412478-ICSD
#?2014 by Fachinformationszentrum Karlsruhe, and the U.S. Secretary of 
#Commerce on behalf of the United States.  All rights reserved.
_database_code_ICSD                412478
_audit_creation_date               2005/04/01
_audit_update_record               2008/02/01
_chemical_name_systematic
;
Trisilver Tripotassium Bis(tetrathioniobate)
;
_chemical_formula_structural       'Ag3 K3 (Nb S4)2'
_chemical_formula_sum              'Ag3 K3 Nb2 S8'
_publ_section_title
;
Syntheses and crystal structures of new quaternary Ag-containing 
group 5 chalcogenides: K Ag2 M(V) Se4 and K3 Ag3 M(V)2 S8 (M(V) = Nb, 
Ta)
;
loop_
_citation_id
_citation_journal_abbrev
_citation_year
_citation_journal_volume
_citation_journal_issue
_citation_page_first
_citation_page_last
_citation_journal_id_ASTM
primary 'Bulletin of the Chemical Society of Japan' 2004 77 3 505 509 BCSJA8
_publ_author_name
;
Chen Wen Tong;Ma Hong Wei;Guo Guo Cong;Deng Lei;Zhou Guowei;Dong 
Zhenchao;Huang Jinshun
;
_cell_length_a                     23.638(7)
_cell_length_b                     5.544(2)
_cell_length_c                     14.290(6)
_cell_angle_alpha                  90.00
_cell_angle_beta                   121.14(7)
_cell_angle_gamma                  90.00
_cell_volume                       1602.85
_cell_formula_units_Z              4
_symmetry_space_group_name_H-M     'C 1 2/c 1'
_symmetry_Int_Tables_number        15
_refine_ls_R_factor_all            .0694
loop_
_symmetry_equiv_pos_site_id
_symmetry_equiv_pos_as_xyz
  1	'x, -y, z+.5'
  2	'-x, -y, -z'
  3	'-x, y, -z+.5'
  4	'x, y, z'
  5	'x+.5, -y+.5, z+.5'
  6	'-x+.5, -y+.5, -z'
  7	'-x+.5, y+.5, -z+.5'
  8	'x+.5, y+.5, z'
loop_
_atom_type_symbol
_atom_type_oxidation_number
Ag1+	1
K1+	1
Nb5+	5
S2-	-2
loop_
_atom_site_label
_atom_site_type_symbol
_atom_site_symmetry_multiplicity
_atom_site_Wyckoff_symbol
_atom_site_fract_x
_atom_site_fract_y
_atom_site_fract_z
_atom_site_occupancy
_atom_site_attached_hydrogens
_atom_site_U_iso_or_equiv
Ag1 Ag1+ 4 e 0.0000 -0.27678(10) 0.2500 1 0 0.04370(16) 
Ag2 Ag1+ 8 f 0.122938(17) -0.77940(7) 0.28155(3) 1 0 0.04380(12) 
Nb1 Nb5+ 8 f 0.126811(11) -0.28072(5) 0.280558(18) 1 0 0.00776(7) 
K1 K1+ 8 f 0.18986(4) -0.53592(17) 0.09303(6) 1 0 0.0315(2) 
K2 K1+ 4 a 0.0000 -1.0000 0.0000 1 0 0.0236(3) 
S1 S2- 8 f 0.09223(3) -0.04812(14) 0.37595(5) 1 0 0.01422(19) 
S2 S2- 8 f 0.03896(3) -0.51559(14) 0.15870(6) 1 0 0.0142(2) 
S3 S2- 8 f 0.15709(3) -0.02952(14) 0.18650(6) 1 0 0.0165(2) 
S4 S2- 8 f 0.21164(3) -0.52685(14) 0.39139(6) 1 0 0.0175(2) 

loop_
_atom_site_aniso_label
_atom_site_aniso_type_symbol
_atom_site_aniso_U_11
_atom_site_aniso_U_22
_atom_site_aniso_U_33
_atom_site_aniso_U_12
_atom_site_aniso_U_13
_atom_site_aniso_U_23
Ag1 Ag1+ 0.03951(18) 0.0418(3) 0.0519(2) 0.000 0.02517(14) 0.000
Ag2 Ag1+ 0.04904(15) 0.03157(18) 0.05265(15) 0.00077(12) 0.02761(11) 
0.00000(12)
Nb1 Nb5+ 0.00958(9) 0.00205(11) 0.01276(8) 0.00055(7) 0.00656(6) 0.00042(7)
K1 K1+ 0.0332(3) 0.0353(4) 0.0309(3) 0.0007(3) 0.0200(2) -0.0035(3)
K2 K1+ 0.0223(4) 0.0235(5) 0.0171(4) -0.0009(4) 0.0047(3) -0.0006(3)
S1 S2- 0.0159(2) 0.0137(3) 0.0160(2) -0.0028(2) 0.01030(17) -0.0045(2)
S2 S2- 0.0141(3) 0.0086(3) 0.0165(3) -0.0011(2) 0.0055(2) -0.0032(2)
S3 S2- 0.0242(3) 0.0112(3) 0.0229(2) 0.0008(2) 0.01837(18) 0.0033(2)
S4 S2- 0.0114(3) 0.0118(3) 0.0225(3) 0.0050(2) 0.0041(2) 0.0034(3)
#End of data_412478-ICSD


