data_93058-ICSD
#?2014 by Fachinformationszentrum Karlsruhe, and the U.S. Secretary of 
#Commerce on behalf of the United States.  All rights reserved.
_database_code_ICSD                93058
_audit_creation_date               2003/04/01
_chemical_name_systematic          'Potassium Fluorodioxosulfate(IV)'
_chemical_formula_structural       'K (S O2 F)'
_chemical_formula_sum              'F1 K1 O2 S1'
_publ_section_title
;
Structure of the fluorosulfite anion: rotational disorder of (S O2 
F)(-) in the alkali metal fluorosulfites and crystal structures of 
alpha- and beta-(Cs S O2 F)
;
loop_
_citation_id
_citation_journal_abbrev
_citation_year
_citation_journal_volume
_citation_page_first
_citation_page_last
_citation_journal_id_ASTM
primary 'Inorganic Chemistry' 2001 40 7040 7046 INOCAJ
_publ_author_name
;
Kessler, U.;van Wuellen, L.;Jansen, M.
;
_cell_length_a                     6.8783(3)
_cell_length_b                     5.6537(2)
_cell_length_c                     4.6303(2)
_cell_angle_alpha                  90
_cell_angle_beta                   107.229(3)
_cell_angle_gamma                  90
_cell_volume                       171.98
_cell_formula_units_Z              2
_symmetry_space_group_name_H-M     'P 1 21/m 1'
_symmetry_Int_Tables_number        11
_refine_ls_R_factor_all            .0294
loop_
_symmetry_equiv_pos_site_id
_symmetry_equiv_pos_as_xyz
  1	'x, -y+.5, z'
  2	'-x, -y, -z'
  3	'-x, y+.5, -z'
  4	'x, y, z'
loop_
_atom_type_symbol
_atom_type_oxidation_number
F1-	-1
K1+	1
O2-	-2
S4+	4
loop_
_atom_site_label
_atom_site_type_symbol
_atom_site_symmetry_multiplicity
_atom_site_Wyckoff_symbol
_atom_site_fract_x
_atom_site_fract_y
_atom_site_fract_z
_atom_site_occupancy
_atom_site_attached_hydrogens
_atom_site_U_iso_or_equiv
K1 K1+ 2 e 0.29002(6) 0.250 0.15553(8) 1. 0 0.01641(9) 
S1 S4+ 2 e 0.82879(7) 0.250 0.4192(1) 1. 0 0.0189(1) 
O1 O2- 4 f 0.6905(2) 0.0352(2) 0.3305(2) 1. 0 0.0209(2) 
F1 F1- 2 e 0.8809(2) 0.250 0.7856(3) 1. 0 0.0306(3) 

loop_
_atom_site_aniso_label
_atom_site_aniso_type_symbol
_atom_site_aniso_U_11
_atom_site_aniso_U_22
_atom_site_aniso_U_33
_atom_site_aniso_U_12
_atom_site_aniso_U_13
_atom_site_aniso_U_23
K1 K1+ 0.0169(2) 0.0169(2) 0.0145(2) 0. 0.0031(1) 0.
S1 S4+ 0.0172(2) 0.0175(2) 0.0246(2) 0. 0.0101(2) 0.
O1 O2- 0.0268(4) 0.0144(4) 0.0213(4) -0.0014(3) 0.0067(3) -0.0016(3)
F1 F1- 0.0289(6) 0.0450(9) 0.0160(5) 0. 0.0035(5) 0.
#End of data_93058-ICSD


