data_90379-ICSD
#?2014 by Fachinformationszentrum Karlsruhe, and the U.S. Secretary of 
#Commerce on behalf of the United States.  All rights reserved.
_database_code_ICSD                90379
_audit_creation_date               2002/04/01
_audit_update_record               2005/10/01
_chemical_name_systematic          'Potassium Yttrium Ditungstate'
_chemical_formula_structural       'K Y (W2 O8)'
_chemical_formula_sum              'K1 O8 W2 Y1'
_publ_section_title
;
A neutron diffraction study of nonstoichiometric alpha-(K Y W2 O8)
;
loop_
_citation_id
_citation_journal_abbrev
_citation_year
_citation_journal_volume
_citation_page_first
_citation_page_last
_citation_journal_id_ASTM
primary 'Journal of Alloys and Compounds' 2000 306 227 234 JALCEU
2 'Golden Book of Phase Transitions, Wroclaw' 2002 1 1 123 GBOPT5
_publ_author_name
;
Gallucci, E.;Goutaudier, C.;Cohen-Addad, M.T.;Mentzen, U.0.F.;Hansen, 
T.
;
_cell_length_a                     10.6235(1)
_cell_length_b                     10.3370(1)
_cell_length_c                     7.5485(1)
_cell_angle_alpha                  90.
_cell_angle_beta                   130.746
_cell_angle_gamma                  90.
_cell_volume                       628.01
_cell_formula_units_Z              4
_symmetry_space_group_name_H-M     'C 1 2/c 1'
_symmetry_Int_Tables_number        15
_refine_ls_R_factor_all            .042
loop_
_symmetry_equiv_pos_site_id
_symmetry_equiv_pos_as_xyz
  1	'x, -y, z+.5'
  2	'-x, -y, -z'
  3	'-x, y, -z+.5'
  4	'x, y, z'
  5	'x+.5, -y+.5, z+.5'
  6	'-x+.5, -y+.5, -z'
  7	'-x+.5, y+.5, -z+.5'
  8	'x+.5, y+.5, z'
loop_
_atom_type_symbol
_atom_type_oxidation_number
K1+	1
O2-	-2
W6+	6
Y3+	3
loop_
_atom_site_label
_atom_site_type_symbol
_atom_site_symmetry_multiplicity
_atom_site_Wyckoff_symbol
_atom_site_fract_x
_atom_site_fract_y
_atom_site_fract_z
_atom_site_occupancy
_atom_site_attached_hydrogens
W1 W6+ 8 f 0.1964(2) 0.0000(1) 0.2356(2) 1. 0 
Y1 Y3+ 4 e 0 0.2713(1) 0.75 1. 0 
K1 K1+ 4 e 0 0.7003(3) 0.75 1. 0 
O1 O2- 8 f 0.1263(2) 0.5799(1) 0.1890(3) 1. 0 
O2 O2- 8 f 0.0238(2) 0.1086(1) 0.9707(2) 1. 0 
O3 O2- 8 f 0.2250(2) 0.3418(1) 0.1256(3) 1. 0 
O4 O2- 8 f 0.1899(1) 0.9236(1) 0.9414(2) 1. 0 

loop_
_atom_site_aniso_label
_atom_site_aniso_type_symbol
_atom_site_aniso_U_11
_atom_site_aniso_U_22
_atom_site_aniso_U_33
_atom_site_aniso_U_12
_atom_site_aniso_U_13
_atom_site_aniso_U_23
W1 W6+ 0.00501 0.00722 0.00349 0.00009 0.0018 0.00209
Y1 Y3+ 0.01016 0.00342 0.0062 0 0.00598 0
K1 K1+ 0.01205 0.01401 0.01615 0 0.00964 0
O1 O2- 0.00559 0.009 0.01025 0.00289 0.00463 -.00031
O2 O2- 0.0079 0.00581 0.00688 0.00226 0.00442 0.0013
O3 O2- 0.00802 0.00666 0.00683 -.00242 0.00232 -.00201
O4 O2- 0.00802 0.00771 0.00677 -.00206 0.00457 -.00086
#End of data_90379-ICSD


