data_95736-ICSD
#?2014 by Fachinformationszentrum Karlsruhe, and the U.S. Secretary of 
#Commerce on behalf of the United States.  All rights reserved.
_database_code_ICSD                95736
_audit_creation_date               2004/04/01
_audit_update_record               2011/02/01
_chemical_name_systematic
;
Disodium Magnesium Phosphate(V) Fluoride
;
_chemical_formula_structural       'Na2 Mg (P O4) F'
_chemical_formula_sum              'F1 Mg1 Na2 O4 P1'
_publ_section_title
;
New synthetic approaches to monophosphate fluoride ceramics: 
synthesis and structural characterization of Na2 Mg (P O4) F and Sr5 
(P O4)3 F
;
loop_
_citation_id
_citation_journal_abbrev
_citation_year
_citation_journal_volume
_citation_page_first
_citation_page_last
_citation_journal_id_ASTM
primary 'Solid State Sciences' 2002 4 807 812 SSSCFJ
_publ_author_name                  'Swafford, S.H.;Holt, E.M.'
_cell_length_a                     5.223(5)
_cell_length_b                     13.818(8)
_cell_length_c                     11.749(6)
_cell_angle_alpha                  90
_cell_angle_beta                   90
_cell_angle_gamma                  90
_cell_volume                       847.94
_cell_formula_units_Z              8
_symmetry_space_group_name_H-M     'P b c n'
_symmetry_Int_Tables_number        60
_refine_ls_R_factor_all            .0499
loop_
_symmetry_equiv_pos_site_id
_symmetry_equiv_pos_as_xyz
  1	'x, -y, z+.5'
  2	'-x+.5, y+.5, z'
  3	'x+.5, y+.5, -z+.5'
  4	'-x, -y, -z'
  5	'-x, y, -z+.5'
  6	'x+.5, -y+.5, -z'
  7	'-x+.5, -y+.5, z+.5'
  8	'x, y, z'
loop_
_atom_type_symbol
_atom_type_oxidation_number
F1-	-1
Mg2+	2
Na1+	1
O2-	-2
P5+	5
loop_
_atom_site_label
_atom_site_type_symbol
_atom_site_symmetry_multiplicity
_atom_site_Wyckoff_symbol
_atom_site_fract_x
_atom_site_fract_y
_atom_site_fract_z
_atom_site_occupancy
_atom_site_attached_hydrogens
_atom_site_U_iso_or_equiv
Mg1 Mg2+ 8 d 0.2784(2) 0.48676(7) 0.17633(8) 1. 0 0.0123(3) 
Na1 Na1+ 8 d 0.2411(3) 0.25402(9) 0.17128(11) 1. 0 0.0205(3) 
Na2 Na1+ 8 d 0.2558(3) 0.37699(8) 0.41917(11) 1. 0 0.0186(3) 
P1 P5+ 8 d 0.2070(1) 0.38237(5) 0.91249(6) 1. 0 0.0106(2) 
O1 O2- 8 d 0.2864(4) 0.28232(14) 0.86943(17) 1. 0 0.0168(4) 
O2 O2- 8 d 0.3545(4) 0.46314(13) 0.84774(15) 1. 0 0.0138(4) 
O3 O2- 8 d 0.2629(4) 0.39183(15) 0.04150(16) 1. 0 0.0159(4) 
O4 O2- 8 d -0.0843(4) 0.39915(14) 0.89241(16) 1. 0 0.0160(4) 
F1 F1- 4 c 0.5 0.37771(15) 0.250 1. 0 0.0138(5) 
F2 F1- 4 c 0 0.41148(15) 0.250 1. 0 0.0157(5) 

#End of data_95736-ICSD


