data_108798-ICSD
#?2014 by Fachinformationszentrum Karlsruhe, and the U.S. Secretary of 
#Commerce on behalf of the United States.  All rights reserved.
_database_code_ICSD                108798
_audit_creation_date               2007/04/01
_chemical_name_systematic          'Potassium Tantalum Nitride'
_chemical_formula_structural       'K Ta N2'
_chemical_formula_sum              'K1 N2 Ta1'
_publ_section_title
;
Synthese ternaerer Nitride von Alkalimetallen: Verbindungen mit 
Tantal, M Ta N2 mit M= Na, K, Rb und Cs
;
loop_
_citation_id
_citation_journal_abbrev
_citation_year
_citation_journal_volume
_citation_page_first
_citation_page_last
_citation_journal_id_ASTM
primary 'Journal of the Less-Common Metals' 1989 146 147 160 JCOMAH
_publ_author_name                  'Jacobs, H.;von Pinkowski, E.'
_cell_length_a                     5.929
_cell_length_b                     11.862
_cell_length_c                     16.597
_cell_angle_alpha                  90.
_cell_angle_beta                   90.
_cell_angle_gamma                  90.
_cell_volume                       1167.26
_cell_formula_units_Z              16
_symmetry_space_group_name_H-M     'P b c a'
_symmetry_Int_Tables_number        61
loop_
_symmetry_equiv_pos_site_id
_symmetry_equiv_pos_as_xyz
  1	'x+.5, y, -z+.5'
  2	'x, -y+.5, z+.5'
  3	'-x+.5, y+.5, z'
  4	'-x, -y, -z'
  5	'-x+.5, -y, z+.5'
  6	'-x, y+.5, -z+.5'
  7	'x+.5, -y+.5, -z'
  8	'x, y, z'
loop_
_atom_type_symbol
_atom_type_oxidation_number
K1+	1
N3-	-3
Ta5+	5
loop_
_atom_site_label
_atom_site_type_symbol
_atom_site_symmetry_multiplicity
_atom_site_Wyckoff_symbol
_atom_site_fract_x
_atom_site_fract_y
_atom_site_fract_z
_atom_site_occupancy
_atom_site_attached_hydrogens
K1 K1+ 8 c 0.758 0.0140 0.0613 1. 0 
K2 K1+ 8 c 0.799 0.2645 0.1852 1. 0 
Ta1 Ta5+ 8 c 0.258 0.0088 0.1890 1. 0 
Ta2 Ta5+ 8 c 0.280 0.2633 0.0644 1. 0 
N1 N3- 8 c 0.569 0.302 0.011 1. 0 
N2 N3- 8 c 0.158 0.406 0.103 1. 0 
N3 N3- 8 c 0.311 0.164 0.155 1. 0 
N4 N3- 8 c 0.059 0.479 0.276 1. 0 

#End of data_108798-ICSD


