data_80378-ICSD
#?2014 by Fachinformationszentrum Karlsruhe, and the U.S. Secretary of 
#Commerce on behalf of the United States.  All rights reserved.
_database_code_ICSD                80378
_audit_creation_date               1997/05/13
_chemical_name_systematic
;
Disodium Phyllo-disilicate - Epsilon
;
_chemical_formula_structural       'Na2 (Si2 O5)'
_chemical_formula_sum              'Na2 O5 Si2'
_publ_section_title
;
Epsilon sodium silicate : a high-pressure layer structure (Na2 Si2 
O5)
;
loop_
_citation_id
_citation_journal_abbrev
_citation_year
_citation_journal_volume
_citation_page_first
_citation_page_last
_citation_journal_id_ASTM
primary 'Journal of Solid State Chemistry' 1995 119 400 404 JSSCBI
_publ_author_name                  'Fleet, M.E.;Henderson, G.S.'
_cell_length_a                     5.580(1)
_cell_length_b                     9.441(4)
_cell_length_c                     8.356(3)
_cell_angle_alpha                  90.
_cell_angle_beta                   90.
_cell_angle_gamma                  90.
_cell_volume                       440.2
_cell_formula_units_Z              4
_symmetry_space_group_name_H-M     'P b c 21'
_symmetry_Int_Tables_number        29
_refine_ls_R_factor_all            .04
loop_
_symmetry_equiv_pos_site_id
_symmetry_equiv_pos_as_xyz
  1	'-x, y+.5, z'
  2	'x, -y+.5, z+.5'
  3	'-x, -y, z+.5'
  4	'x, y, z'
loop_
_atom_type_symbol
_atom_type_oxidation_number
Na1+	1
O2-	-2
Si4+	4
loop_
_atom_site_label
_atom_site_type_symbol
_atom_site_symmetry_multiplicity
_atom_site_Wyckoff_symbol
_atom_site_fract_x
_atom_site_fract_y
_atom_site_fract_z
_atom_site_occupancy
_atom_site_attached_hydrogens
_atom_site_B_iso_or_equiv
Na1 Na1+ 4 a 0.0616(3) 0.5113(2) 0.9775(3) 1. 0 1.50(3) 
Na2 Na1+ 4 a 0.0871(3) 0.2538(2) 0.2544(3) 1. 0 1.47(3) 
Si1 Si4+ 4 a 0.6296(2) 0.3080(1) 0.0570(2) 1. 0 0.58(2) 
Si2 Si4+ 4 a 0.5484(2) 0.0471(1) 0.25 1. 0 0.56(1) 
O1 O2- 4 a 0.8902(5) 0.2668(3) 0.9996(5) 1. 0 0.91(4) 
O2 O2- 4 a 0.6422(5) 0.4202(3) 0.2084(4) 1. 0 1.04(5) 
O3 O2- 4 a 0.4601(5) 0.3858(3) 0.9202(4) 1. 0 0.77(4) 
O4 O2- 4 a 0.1816(5) 0.4998(3) 0.2482(6) 1. 0 1.14(4) 
O5 O2- 4 a 0.4735(5) 0.1710(3) 0.1200(4) 1. 0 0.80(4) 

#End of data_80378-ICSD


