data_51730-ICSD
#?2014 by Fachinformationszentrum Karlsruhe, and the U.S. Secretary of 
#Commerce on behalf of the United States.  All rights reserved.
_database_code_ICSD                51730
_audit_creation_date               2003/10/01
_audit_update_record               2006/04/01
_chemical_name_systematic          'Sodium Chlorate(VII)'
_chemical_formula_structural       'Na (Cl O4)'
_chemical_formula_sum              'Cl1 Na1 O4'
_publ_section_title
;
Order-disorder structural phase transitions in alkali perchlorates
;
loop_
_citation_id
_citation_journal_abbrev
_citation_year
_citation_journal_volume
_citation_page_first
_citation_page_last
_citation_journal_id_ASTM
primary 'Journal of Solid State Chemistry' 2002 163 294 299 JSSCBI
_publ_author_name
;
Liu, J.;Duan, C.-G.;Mei, W.N.;Smith, R.W.;Hardy, J.R.
;
_cell_length_a                     6.8017
_cell_length_b                     6.3369
_cell_length_c                     6.6397
_cell_angle_alpha                  90
_cell_angle_beta                   90
_cell_angle_gamma                  90
_cell_volume                       286.18
_cell_formula_units_Z              4
_symmetry_space_group_name_H-M     'C m c m'
_symmetry_Int_Tables_number        63
loop_
_symmetry_equiv_pos_site_id
_symmetry_equiv_pos_as_xyz
  1	'-x, y, -z+.5'
  2	'-x, -y, z+.5'
  3	'-x, y, z'
  4	'-x, -y, -z'
  5	'x, -y, z+.5'
  6	'x, y, -z+.5'
  7	'x, -y, -z'
  8	'x, y, z'
  9	'-x+.5, y+.5, -z+.5'
 10	'-x+.5, -y+.5, z+.5'
 11	'-x+.5, y+.5, z'
 12	'-x+.5, -y+.5, -z'
 13	'x+.5, -y+.5, z+.5'
 14	'x+.5, y+.5, -z+.5'
 15	'x+.5, -y+.5, -z'
 16	'x+.5, y+.5, z'
loop_
_atom_type_symbol
_atom_type_oxidation_number
Cl7+	7
Na1+	1
O2-	-2
loop_
_atom_site_label
_atom_site_type_symbol
_atom_site_symmetry_multiplicity
_atom_site_Wyckoff_symbol
_atom_site_fract_x
_atom_site_fract_y
_atom_site_fract_z
_atom_site_occupancy
_atom_site_attached_hydrogens
Na1 Na1+ 4 c 0.0 0.6214 0.25 1. 0 
Cl1 Cl7+ 4 c 0.0 0.1410 0.25 1. 0 
O1 O2- 8 f 0.0 0.2741 0.0727 1. 0 
O2 O2- 8 g 0.1734 0.0086 0.25 1. 0 

#End of data_51730-ICSD


