data_62495-ICSD
#?2014 by Fachinformationszentrum Karlsruhe, and the U.S. Secretary of 
#Commerce on behalf of the United States.  All rights reserved.
_database_code_ICSD                62495
_audit_creation_date               1988/12/19
_audit_update_record               2012/08/01
_chemical_name_systematic
;
Dipotassium Diiron Diphosphate(V) Difluoride
;
_chemical_formula_structural       'K2 Fe2 (P2 O7) F2'
_chemical_formula_sum              'F2 Fe2 K2 O7 P2'
_publ_section_title
;
Crystal structure of potassium iron pyrophosphate K2 Fe2 (P2 O7) F2
;
loop_
_citation_id
_citation_journal_abbrev
_citation_year
_citation_journal_volume
_citation_page_first
_citation_page_last
_citation_journal_id_ASTM
primary 'Doklady Akademii Nauk SSSR' 1985 282 625 630 DANKAS
_publ_author_name
;
Yakubovich, O.V.;Evdokimova, O.A.;Mel'nikov, O.K.
;
_cell_length_a                     6.837(2)
_cell_length_b                     11.242(3)
_cell_length_c                     10.440(3)
_cell_angle_alpha                  90.
_cell_angle_beta                   90.
_cell_angle_gamma                  90.
_cell_volume                       802.43
_cell_formula_units_Z              4
_symmetry_space_group_name_H-M     'P b c n'
_symmetry_Int_Tables_number        60
loop_
_symmetry_equiv_pos_site_id
_symmetry_equiv_pos_as_xyz
  1	'x, -y, z+.5'
  2	'-x+.5, y+.5, z'
  3	'x+.5, y+.5, -z+.5'
  4	'-x, -y, -z'
  5	'-x, y, -z+.5'
  6	'x+.5, -y+.5, -z'
  7	'-x+.5, -y+.5, z+.5'
  8	'x, y, z'
loop_
_atom_type_symbol
_atom_type_oxidation_number
F1-	-1
Fe2+	2
K1+	1
O2-	-2
P5+	5
loop_
_atom_site_label
_atom_site_type_symbol
_atom_site_symmetry_multiplicity
_atom_site_Wyckoff_symbol
_atom_site_fract_x
_atom_site_fract_y
_atom_site_fract_z
_atom_site_occupancy
_atom_site_attached_hydrogens
Fe1 Fe2+ 4 c 0 0.16462(6) 0.25 1. 0 
Fe2 Fe2+ 4 a 0 0 0 1. 0 
P1 P5+ 8 d 0.21750(1) 0.42087(8) 0.24850(1) 1. 0 
K1 K1+ 8 d 0.50071(2) 0.17291(8) 0.06598(9) 1. 0 
F1 F1- 8 d 0.11491(4) 0.15430(2) 0.07597(2) 1. 0 
O1 O2- 4 c 0 0.47607(4) 0.25 1. 0 
O2 O2- 8 d 0.17366(4) 0.01334(2) 0.32877(3) 1. 0 
O3 O2- 8 d 0.28121(6) 0.41709(3) 0.11047(3) 1. 0 
O4 O2- 8 d 0.20561(5) 0.29932(3) 0.30880(3) 1. 0 

loop_
_atom_site_aniso_label
_atom_site_aniso_type_symbol
_atom_site_aniso_B_11
_atom_site_aniso_B_22
_atom_site_aniso_B_33
_atom_site_aniso_B_12
_atom_site_aniso_B_13
_atom_site_aniso_B_23
Fe1 Fe2+ 0.73(2) 0.51(2) 0.45(2) 0 -.01(3) 0
Fe2 Fe2+ 0.30(2) 0.58(2) 0.41(2) 0.02(4) -.02(3) -.06(2)
P1 P5+ 0.50(2) 0.62(2) 0.53(2) -.16(2) -.08(4) 0.06(4)
K1 K1+ 1.46(3) 1.65(3) 1.45(3) -.21(4) 0.03(4) 0.27(3)
F1 F1- 1.23(9) 1.03(8) 0.32(8) -.36(7) 0.22(7) -.13(7)
O1 O2- 0.61(1) 1.08(2) 5.26(3) 0 -.51(3) 0
O2 O2- 0.81(9) 0.75(9) 0.65(9) 0.24(8) 0.13(8) -.06(7)
O3 O2- 3.27(2) 2.66(2) 0.55(1) -2.01(1) 0.41(1) -.50(1)
O4 O2- 1.48(1) 0.60(9) 1.15(1) -.14(9) -.60(1) 0.15(8)
#End of data_62495-ICSD


