data_20503-ICSD
#?2014 by Fachinformationszentrum Karlsruhe, and the U.S. Secretary of 
#Commerce on behalf of the United States.  All rights reserved.
_database_code_ICSD                20503
_audit_creation_date               1980/01/01
_audit_update_record               2006/04/01
_chemical_name_systematic          'Disodium Uranate - Alpha'
_chemical_formula_structural       'Na2 (U O4)'
_chemical_formula_sum              'Na2 O4 U1'
_publ_section_title
;
The crystal structure of uranates. Uranates containing uranyloxygen 
chains
;
loop_
_citation_id
_citation_journal_abbrev
_citation_year
_citation_journal_volume
_citation_page_first
_citation_page_last
_citation_journal_id_ASTM
primary 'Zhurnal Fizicheskoi Khimii' 1961 35 719 722 ZFKHA9
2 'Doklady Akademii Nauk SSSR' 1958 120 1042 1044 DANKAS
3 'Golden Book of Phase Transitions, Wroclaw' 2002 1 1 123 GBOPT5
_publ_author_name
;
Kovba, T.M.;Polunina, G.P.;Ippolitova, E.A.;Simonov, Yu.P.;Spitsyn, 
V.I.
;
_cell_length_a                     5.72
_cell_length_b                     9.74
_cell_length_c                     3.49
_cell_angle_alpha                  90.
_cell_angle_beta                   90.
_cell_angle_gamma                  90.
_cell_volume                       194.44
_cell_formula_units_Z              2
_symmetry_space_group_name_H-M     'C m m m'
_symmetry_Int_Tables_number        65
loop_
_symmetry_equiv_pos_site_id
_symmetry_equiv_pos_as_xyz
  1	'x, -y, z'
  2	'-x, y, z'
  3	'x, y, -z'
  4	'-x, -y, -z'
  5	'-x, y, -z'
  6	'x, -y, -z'
  7	'-x, -y, z'
  8	'x, y, z'
  9	'x+.5, -y+.5, z'
 10	'-x+.5, y+.5, z'
 11	'x+.5, y+.5, -z'
 12	'-x+.5, -y+.5, -z'
 13	'-x+.5, y+.5, -z'
 14	'x+.5, -y+.5, -z'
 15	'-x+.5, -y+.5, z'
 16	'x+.5, y+.5, z'
loop_
_atom_type_symbol
_atom_type_oxidation_number
Na1+	1
O2-	-2
U6+	6
loop_
_atom_site_label
_atom_site_type_symbol
_atom_site_symmetry_multiplicity
_atom_site_Wyckoff_symbol
_atom_site_fract_x
_atom_site_fract_y
_atom_site_fract_z
_atom_site_occupancy
_atom_site_attached_hydrogens
U1 U6+ 2 a 0 0 0 1. 0 
O1 O2- 4 i 0 0.195 0 1. 0 
O2 O2- 4 h 0.245 0 0.5 1. 0 
Na1 Na1+ 4 f 0.25 0.25 0.5 1. 0 

#End of data_20503-ICSD


