data_74019-ICSD
#?2014 by Fachinformationszentrum Karlsruhe, and the U.S. Secretary of 
#Commerce on behalf of the United States.  All rights reserved.
_database_code_ICSD                74019
_audit_creation_date               1995/01/10
_audit_update_record               2012/02/01
_chemical_name_systematic
;
Potassium Bismuth Heptathiodiphosphate(V)
;
_chemical_formula_structural       'K Bi (P2 S7)'
_chemical_formula_sum              'Bi1 K1 P2 S7'
_publ_section_title
;
Use of molten alkali-metal polythiophosphate fluxes for synthesis at 
intermediate temperatures. Isolation and structural characterization 
of A Bi P2 S7 (A= K, Rb)
;
loop_
_citation_id
_citation_journal_abbrev
_citation_year
_citation_journal_volume
_citation_page_first
_citation_page_last
_citation_journal_id_ASTM
primary 'Chemistry of Materials' 1993 5 1061 1063 CMATEX
_publ_author_name                  'McCarthy, T.J.;Kanatzidis, M.G.'
_cell_length_a                     9.500(3)
_cell_length_b                     12.303(4)
_cell_length_c                     9.097(3)
_cell_angle_alpha                  90.
_cell_angle_beta                   90.59(3)
_cell_angle_gamma                  90.
_cell_volume                       1063.19
_cell_formula_units_Z              4
_symmetry_space_group_name_H-M     'P 1 21/c 1'
_symmetry_Int_Tables_number        14
_refine_ls_R_factor_all            .028
loop_
_symmetry_equiv_pos_site_id
_symmetry_equiv_pos_as_xyz
  1	'x, -y+.5, z+.5'
  2	'-x, -y, -z'
  3	'-x, y+.5, -z+.5'
  4	'x, y, z'
loop_
_atom_type_symbol
_atom_type_oxidation_number
Bi3+	3
K1+	1
P5+	5
S2-	-2
loop_
_atom_site_label
_atom_site_type_symbol
_atom_site_symmetry_multiplicity
_atom_site_Wyckoff_symbol
_atom_site_fract_x
_atom_site_fract_y
_atom_site_fract_z
_atom_site_occupancy
_atom_site_attached_hydrogens
Bi1 Bi3+ 4 e 0.34191(3) 0.13823(2) 0.11948(3) 1. 0 
K1 K1+ 4 e 0.8847(2) 0.1911(2) 0.8708(2) 1. 0 
S1 S2- 4 e 0.6536(2) 0.1937(1) 0.1485(2) 1. 0 
S2 S2- 4 e 0.1161(2) 0.2928(1) 0.1101(2) 1. 0 
S3 S2- 4 e 0.1655(2) 0.0297(2) -.0738(2) 1. 0 
S4 S2- 4 e 0.4087(2) 0.1716(1) 0.4314(2) 1. 0 
S5 S2- 4 e 0.5057(2) -.0554(1) 0.1860(2) 1. 0 
S6 S2- 4 e 0.2472(2) 0.5509(1) 0.0802(2) 1. 0 
S7 S2- 4 e 0.1237(2) 0.0545(2) 0.2942(2) 1. 0 
P1 P5+ 4 e 0.6811(2) 0.0367(1) 0.1997(2) 1. 0 
P2 P5+ 4 e 0.2224(2) 0.1031(1) 0.4811(2) 1. 0 

loop_
_atom_site_aniso_label
_atom_site_aniso_type_symbol
_atom_site_aniso_U_11
_atom_site_aniso_U_22
_atom_site_aniso_U_33
_atom_site_aniso_U_12
_atom_site_aniso_U_13
_atom_site_aniso_U_23
Bi1 Bi3+ 0.0142(2) 0.0166(1) 0.0171(2) 0.0005(1) 0.0000(1) 0.0008(1)
K1 K1+ 0.029(1) 0.033(1) 0.0243(9) 0.0063(9) 0.0034(8) 0.0043(8)
S1 S2- 0.015(1) 0.0103(8) 0.0173(8) 0.0003(7) -.0009(7) 0.0047(7)
S2 S2- 0.016(1) 0.0128(8) 0.0173(8) 0.0002(7) 0.0093(7) 0.0013(7)
S3 S2- 0.013(1) 0.025(1) 0.0098(8) 0.0045(8) 0.0007(7) -.0066(7)
S4 S2- 0.0110(9) 0.0177(8) 0.0153(8) -.0049(7) 0.0037(7) -.0056(7)
S5 S2- 0.017(1) 0.0130(8) 0.0177(9) -.0043(7) -.0044(8) 0.0003(7)
S6 S2- 0.019(1) 0.0098(7) 0.0065(7) 0.0016(7) -.0022(7) 0.0004(6)
S7 S2- 0.016(1) 0.0205(9) 0.0084(8) -.0061(8) -.0025(7) 0.0021(7)
P1 P5+ 0.0108(9) 0.0113(8) 0.0060(8) 0.0035(7) -.0001(7) -.0004(7)
P2 P5+ 0.0109(9) 0.0094(8) 0.0077(8) -.0017(7) 0.0000(7) -.0001(7)
#End of data_74019-ICSD


