data_421800-ICSD
#?2014 by Fachinformationszentrum Karlsruhe, and the U.S. Secretary of 
#Commerce on behalf of the United States.  All rights reserved.
_database_code_ICSD                421800
_audit_creation_date               2011/02/01
_chemical_name_systematic
;
Potassium Dysprosium Bis(sulfate(VI)) Hydrate
;
_chemical_formula_structural       'K Dy (S O4)2 (H2 O)'
_chemical_formula_sum              'H2 Dy1 K1 O9 S2'
_publ_section_title
;
Syntheses, crystal structures and vibrational spectra of K Ln (S 
O4)2.H2 O (Ln = La, Nd, Sm, Eu, Gd, Dy)
;
loop_
_citation_id
_citation_journal_abbrev
_citation_year
_citation_journal_volume
_citation_journal_issue
_citation_page_first
_citation_page_last
_citation_journal_id_ASTM
primary 'Journal of Solid State Chemistry' 2010 183 9 2087 2094 JSSCBI
_publ_author_name                  'Kazmiercak, K.;Hoeppe, H.A.'
_cell_length_a                     10.106(3)
_cell_length_b                     8.2934(17)
_cell_length_c                     10.295(3)
_cell_angle_alpha                  90.00
_cell_angle_beta                   119.50(2)
_cell_angle_gamma                  90.00
_cell_volume                       750.99
_cell_formula_units_Z              4
_symmetry_space_group_name_H-M     'P 1 21/c 1'
_symmetry_Int_Tables_number        14
_refine_ls_R_factor_all            .0323
loop_
_symmetry_equiv_pos_site_id
_symmetry_equiv_pos_as_xyz
  1	'x, -y+.5, z+.5'
  2	'-x, -y, -z'
  3	'-x, y+.5, -z+.5'
  4	'x, y, z'
loop_
_atom_type_symbol
_atom_type_oxidation_number
Dy3+	3
H1+	1
K1+	1
O2-	-2
S6+	6
loop_
_atom_site_label
_atom_site_type_symbol
_atom_site_symmetry_multiplicity
_atom_site_Wyckoff_symbol
_atom_site_fract_x
_atom_site_fract_y
_atom_site_fract_z
_atom_site_occupancy
_atom_site_attached_hydrogens
_atom_site_U_iso_or_equiv
Dy1 Dy3+ 4 e 0.74426(6) 0.35652(7) 0.46306(5) 1 0 0.0254(3) 
K1 K1+ 4 e 0.2096(4) 0.1702(4) 0.6862(3) 1 0 0.0530(9) 
S1 S6+ 4 e 0.4980(3) 0.2009(4) 0.1007(3) 1 0 0.0279(7) 
O1 O2- 4 e 0.5511(9) 0.3196(9) 0.2217(8) 1 0 0.0291(19) 
O2 O2- 4 e 0.4021(9) 0.0870(10) 0.1251(8) 1 0 0.033(2) 
O3 O2- 4 e 0.6288(9) 0.3813(11) 0.6108(9) 1 0 0.038(2) 
O4 O2- 4 e 0.4095(10) 0.2791(12) 0.9575(8) 1 0 0.043(2) 
S2 S6+ 4 e 0.9472(3) 0.3637(4) 0.3184(3) 1 0 0.0260(7) 
O5 O2- 4 e 0.9194(9) 0.2869(10) 0.1804(7) 1 0 0.0309(19) 
O6 O2- 4 e 0.0994(9) 0.4371(11) 0.3880(8) 1 0 0.034(2) 
O7 O2- 4 e 0.9385(9) 0.2433(10) 0.4222(8) 1 0 0.034(2) 
O8 O2- 4 e 0.8311(9) 0.4848(10) 0.2914(8) 1 0 0.035(2) 
O9 O2- 4 e 0.3293(9) 0.9235(10) 0.5541(8) 1 0 0.035(2) 
H1 H1+ 4 e 0.299(9) 0.801(9) 0.597(8) 1 0 0.002 
H2 H1+ 4 e 0.284(9) 1.026(9) 0.459(8) 1 0 0.002 

loop_
_atom_site_aniso_label
_atom_site_aniso_type_symbol
_atom_site_aniso_U_11
_atom_site_aniso_U_22
_atom_site_aniso_U_33
_atom_site_aniso_U_12
_atom_site_aniso_U_13
_atom_site_aniso_U_23
Dy1 Dy3+ 0.0352(4) 0.0210(4) 0.0197(3) 0.0006(3) 0.0132(2) 0.0000(3)
K1 K1+ 0.058(2) 0.059(2) 0.0407(16) 0.0026(17) 0.0240(14) 0.0002(15)
S1 S6+ 0.0420(17) 0.0240(18) 0.0195(13) -0.0051(14) 0.0165(13) -0.0036(12)
O1 O2- 0.039(5) 0.013(5) 0.027(4) -0.001(3) 0.011(3) -0.001(3)
O2 O2- 0.045(5) 0.034(5) 0.028(4) -0.008(4) 0.025(4) 0.000(4)
O3 O2- 0.043(5) 0.038(6) 0.043(5) 0.016(4) 0.030(4) 0.014(4)
O4 O2- 0.060(6) 0.038(6) 0.024(4) 0.005(5) 0.014(4) 0.007(4)
S2 S6+ 0.0360(16) 0.0233(17) 0.0206(13) -0.0024(14) 0.0153(12) -0.0031(12)
O5 O2- 0.037(4) 0.041(5) 0.016(3) -0.008(4) 0.014(3) -0.006(4)
O6 O2- 0.039(5) 0.036(5) 0.026(4) -0.006(4) 0.015(4) -0.009(4)
O7 O2- 0.049(5) 0.032(6) 0.023(4) -0.004(4) 0.019(4) 0.004(4)
O8 O2- 0.038(5) 0.027(5) 0.041(5) 0.002(4) 0.021(4) 0.006(4)
O9 O2- 0.057(5) 0.023(5) 0.030(4) -0.009(4) 0.024(4) 0.003(4)
#End of data_421800-ICSD


