data_36399-ICSD
#?2014 by Fachinformationszentrum Karlsruhe, and the U.S. Secretary of 
#Commerce on behalf of the United States.  All rights reserved.
_database_code_ICSD                36399
_audit_creation_date               1980/12/31
_audit_update_record               2012/08/01
_chemical_name_systematic          'Disodium Tricalcium Trisilicate'
_chemical_formula_structural       'Na2 Ca3 (Si3 O10)'
_chemical_formula_sum              'Ca3 Na2 O10 Si3'
_publ_section_title
;
Refinement of the crystal structure of Na Ca triorthosilicate Na2 Ca3 
(Si3 O10)
;
loop_
_citation_id
_citation_journal_abbrev
_citation_year
_citation_journal_volume
_citation_page_first
_citation_page_last
_citation_journal_id_ASTM
primary Kristallografiya 1980 25 855 857 KRISAJ
2 'Soviet Physics, Crystallography (= Kristallografiya)'
 1980 25 490 491 SPHCA6
_publ_author_name
;
Kuznetsova, T.P.;Nevskii, N.N.;Plyukhin, V.V.;Belov, N.V.
;
_cell_length_a                     16.2491(43)
_cell_length_b                     11.3472(37)
_cell_length_c                     5.1472(7)
_cell_angle_alpha                  90.
_cell_angle_beta                   90.
_cell_angle_gamma                  92.97(2)
_cell_volume                       947.78
_cell_formula_units_Z              4
_symmetry_space_group_name_H-M     'B 1 1 2/b'
_symmetry_Int_Tables_number        15
_refine_ls_R_factor_all            .03
loop_
_symmetry_equiv_pos_site_id
_symmetry_equiv_pos_as_xyz
  1	'x, y+.5, -z'
  2	'-x, -y, -z'
  3	'-x, -y+.5, z'
  4	'x, y, z'
  5	'x+.5, y+.5, -z+.5'
  6	'-x+.5, -y, -z+.5'
  7	'-x+.5, -y+.5, z+.5'
  8	'x+.5, y, z+.5'
loop_
_atom_type_symbol
_atom_type_oxidation_number
Ca2+	2
Na1+	1
O2-	-2
Si4+	4
loop_
_atom_site_label
_atom_site_type_symbol
_atom_site_symmetry_multiplicity
_atom_site_Wyckoff_symbol
_atom_site_fract_x
_atom_site_fract_y
_atom_site_fract_z
_atom_site_occupancy
_atom_site_attached_hydrogens
Ca1 Ca2+ 4 c 0.25 0.5 0.25 1. 0 
Ca2 Ca2+ 8 f 0.1518(1) 0.2076(1) 0.2376(2) 1. 0 
Si1 Si4+ 4 e 0 0.25 0.7962(3) 1. 0 
Si2 Si4+ 8 f 0.3491(1) 0.1036(1) 0.1890(2) 1. 0 
Na1 Na1+ 8 f 0.4574(1) 0.0340(1) 0.7329(3) 1. 0 
O1 O2- 8 f 0.4322(2) 0.1860(2) 0.0867(5) 1. 0 
O2 O2- 8 f 0.2735(2) 0.1617(2) 0.0357(5) 1. 0 
O3 O2- 8 f 0.1406(2) 0.0254(2) 0.4347(6) 1. 0 
O4 O2- 8 f 0.0430(2) 0.1515(2) 0.9633(6) 1. 0 
O5 O2- 8 f 0.3440(2) 0.1091(2) 0.5000(6) 1. 0 

#End of data_36399-ICSD


