data_249893-ICSD
#?2014 by Fachinformationszentrum Karlsruhe, and the U.S. Secretary of 
#Commerce on behalf of the United States.  All rights reserved.
_database_code_ICSD                249893
_audit_creation_date               2010/02/01
_chemical_name_systematic          'Sodium Molybdenum Selenide (1/6/8)'
_chemical_formula_structural       'Na Mo6 Se8'
_chemical_formula_sum              'Mo6 Na1 Se8'
_publ_section_title
;
Crystallography of Chevrel phases, M Mo6 T8 (M = Cd, Na, Mn, and Zn, 
T = S, Se) and their cation mobility
;
loop_
_citation_id
_citation_journal_abbrev
_citation_year
_citation_journal_volume
_citation_journal_issue
_citation_page_first
_citation_page_last
_citation_journal_id_ASTM
primary 'Inorganic Chemistry' 2009 48 18 8751 8758 INOCAJ
_publ_author_name
;
Levi, E.;Gershinsky, G.;Aurbach, D.;Isnard, O.
;
_cell_length_a                     9.572(2)
_cell_length_b                     9.572(2)
_cell_length_c                     11.716(2)
_cell_angle_alpha                  90.00000
_cell_angle_beta                   90.00000
_cell_angle_gamma                  120.0000
_cell_volume                       929.64
_cell_formula_units_Z              3
_symmetry_space_group_name_H-M     'R -3 H'
_symmetry_Int_Tables_number        148
_refine_ls_R_factor_all            .0416
loop_
_symmetry_equiv_pos_site_id
_symmetry_equiv_pos_as_xyz
  1	'x-y, x, -z'
  2	'y, -x+y, -z'
  3	'-x, -y, -z'
  4	'-x+y, -x, z'
  5	'-y, x-y, z'
  6	'x, y, z'
  7	'x-y+.6666, x+.3333, -z+.3333'
  8	'x-y+.3333, x+.6666, -z+.6666'
  9	'y+.6666, -x+y+.3333, -z+.3333'
 10	'y+.3333, -x+y+.6666, -z+.6666'
 11	'-x+.6666, -y+.3333, -z+.3333'
 12	'-x+.3333, -y+.6666, -z+.6666'
 13	'-x+y+.6666, -x+.3333, z+.3333'
 14	'-x+y+.3333, -x+.6666, z+.6666'
 15	'-y+.6666, x-y+.3333, z+.3333'
 16	'-y+.3333, x-y+.6666, z+.6666'
 17	'x+.6666, y+.3333, z+.3333'
 18	'x+.3333, y+.6666, z+.6666'
loop_
_atom_type_symbol
_atom_type_oxidation_number
Mo2.5+	2.5
Na1+	1
Se2-	-2
loop_
_atom_site_label
_atom_site_type_symbol
_atom_site_symmetry_multiplicity
_atom_site_Wyckoff_symbol
_atom_site_fract_x
_atom_site_fract_y
_atom_site_fract_z
_atom_site_occupancy
_atom_site_attached_hydrogens
_atom_site_U_iso_or_equiv
Mo1 Mo2.5+ 18 f 0.0129(5) 0.1696(6) 0.4025(4) 1.00000 0 0.00422 
Na1 Na1+ 3 a 0.00000 0.00000 0.00000 1.00000 0 0.00633 
Se1 Se2- 18 f 0.3392(7) 0.2980(6) 0.4167(5) 1.00000 0 0.00633 
Se2 Se2- 6 c 0.00000 0.00000 0.2288(8) 1.00000 0 0.00633 

#End of data_249893-ICSD


