data_1724-ICSD
#?2014 by Fachinformationszentrum Karlsruhe, and the U.S. Secretary of 
#Commerce on behalf of the United States.  All rights reserved.
_database_code_ICSD                1724
_audit_creation_date               1980/01/01
_audit_update_record               2006/04/01
_chemical_name_systematic          'Potassium Chlorate(V)'
_chemical_formula_structural       'K (Cl O3)'
_chemical_formula_sum              'Cl1 K1 O3'
_publ_section_title                'A refinement of potassium chlorate'
loop_
_citation_id
_citation_journal_abbrev
_citation_year
_citation_journal_volume
_citation_page_first
_citation_page_last
_citation_journal_id_ASTM
primary 'Acta Crystallographica B (24,1968-38,1982)' 1978 34 1679 1681 ACBCAR
2 'Golden Book of Phase Transitions, Wroclaw' 2002 1 1 123 GBOPT5
_publ_author_name                  'Bats, J.W.'
_cell_length_a                     4.6535(2)
_cell_length_b                     5.5841(3)
_cell_length_c                     7.0515(5)
_cell_angle_alpha                  90.
_cell_angle_beta                   108.723(6)
_cell_angle_gamma                  90.
_cell_volume                       173.54
_cell_formula_units_Z              2
_symmetry_space_group_name_H-M     'P 1 21/m 1'
_symmetry_Int_Tables_number        11
_refine_ls_R_factor_all            .047
loop_
_symmetry_equiv_pos_site_id
_symmetry_equiv_pos_as_xyz
  1	'x, -y+.5, z'
  2	'-x, -y, -z'
  3	'-x, y+.5, -z'
  4	'x, y, z'
loop_
_atom_type_symbol
_atom_type_oxidation_number
Cl5+	5
K1+	1
O2-	-2
loop_
_atom_site_label
_atom_site_type_symbol
_atom_site_symmetry_multiplicity
_atom_site_Wyckoff_symbol
_atom_site_fract_x
_atom_site_fract_y
_atom_site_fract_z
_atom_site_occupancy
_atom_site_attached_hydrogens
K1 K1+ 2 e 0.35533(6) 0.25 0.70916(4) 1. 0 
Cl1 Cl5+ 2 e 0.05446(6) 0.25 0.17582(5) 1. 0 
O1 O2- 2 e -.28069(23) 0.25 0.11541(19) 1. 0 
O2 O2- 4 f 0.15799(15) 0.46184(13) 0.30427(12) 1. 0 

#End of data_1724-ICSD


