data_22143-ICSD
#?2014 by Fachinformationszentrum Karlsruhe, and the U.S. Secretary of 
#Commerce on behalf of the United States.  All rights reserved.
_database_code_ICSD                22143
_audit_creation_date               1986/10/14
_audit_update_record               2012/02/01
_chemical_name_systematic          'Cobalt Bis(tetrachloroaluminate)'
_chemical_formula_structural       'Co (Al Cl4)2'
_chemical_formula_sum              'Al2 Cl8 Co1'
_publ_section_title
;
Crystal structure of cobaltous chloroaluminate, Co (Al Cl4)2
;
loop_
_citation_id
_citation_journal_abbrev
_citation_year
_citation_journal_volume
_citation_page_first
_citation_page_last
_citation_journal_id_ASTM
primary 'Acta Crystallographica (1,1948-23,1967)' 1962 15 967 973 ACCRA9
_publ_author_name                  'Ibers, J.A.'
_cell_length_a                     12.81(2)
_cell_length_b                     7.75(1)
_cell_length_c                     11.50(2)
_cell_angle_alpha                  90.
_cell_angle_beta                   92.2(1)
_cell_angle_gamma                  90.
_cell_volume                       1140.85
_cell_formula_units_Z              4
_symmetry_space_group_name_H-M     'I 1 2/c 1'
_symmetry_Int_Tables_number        15
_refine_ls_R_factor_all            .11
loop_
_symmetry_equiv_pos_site_id
_symmetry_equiv_pos_as_xyz
  1	'-x, y, -z+.5'
  2	'-x, -y, -z'
  3	'x, -y, z+.5'
  4	'x, y, z'
  5	'-x+.5, y+.5, -z'
  6	'-x+.5, -y+.5, -z+.5'
  7	'x+.5, -y+.5, z'
  8	'x+.5, y+.5, z+.5'
loop_
_atom_type_symbol
_atom_type_oxidation_number
Al3+	3
Cl1-	-1
Co2+	2
loop_
_atom_site_label
_atom_site_type_symbol
_atom_site_symmetry_multiplicity
_atom_site_Wyckoff_symbol
_atom_site_fract_x
_atom_site_fract_y
_atom_site_fract_z
_atom_site_occupancy
_atom_site_attached_hydrogens
_atom_site_B_iso_or_equiv
Co1 Co2+ 4 e 0 0.0017(12) 0.25 1. 0 2.15 
Al1 Al3+ 8 f 0.0877(8) 0.2516(18) 0.5538(10) 1. 0 2.8 
Cl1 Cl1- 8 f 0.1588(7) 0.4843(19) 0.6084(9) 1. 0 3.66 
Cl2 Cl1- 8 f 0.1559(6) 0.0192(16) 0.6334(7) 1. 0 2.69 
Cl3 Cl1- 8 f 0.0851(7) 0.2339(15) 0.3670(8) 1. 0 2.56 
Cl4 Cl1- 8 f -.0701(7) 0.2239(14) 0.6167(9) 1. 0 2.88 

#End of data_22143-ICSD


