data_246202-ICSD
#?2014 by Fachinformationszentrum Karlsruhe, and the U.S. Secretary of 
#Commerce on behalf of the United States.  All rights reserved.
_database_code_ICSD                246202
_audit_creation_date               2009/02/01
_chemical_name_systematic          'Silver Manganese(II) Vanadate(V)'
_chemical_formula_structural       'Ag Mn (V O4)'
_chemical_formula_sum              'Ag1 Mn1 O4 V1'
_publ_section_title
;
Synthesis, structures and magnetic properties of the new vanadates Ag 
Mn V O4 and Rb Mn V O4
;
loop_
_citation_id
_citation_journal_abbrev
_citation_year
_citation_journal_volume
_citation_journal_issue
_citation_page_first
_citation_page_last
_citation_journal_id_ASTM
primary 'Journal of Solid State Chemistry' 2008 181 11 3103 3109 JSSCBI
_publ_author_name
;
Ben Yahia, H.;Gaudin, E.;Darriet, J.
;
_cell_length_a                     9.5778(6)
_cell_length_b                     6.8518(4)
_cell_length_c                     5.3734(3)
_cell_angle_alpha                  90.
_cell_angle_beta                   90.
_cell_angle_gamma                  90.
_cell_volume                       352.63
_cell_formula_units_Z              4
_symmetry_space_group_name_H-M     'P n m a'
_symmetry_Int_Tables_number        62
_refine_ls_R_factor_all            .0411
loop_
_symmetry_equiv_pos_site_id
_symmetry_equiv_pos_as_xyz
  1	'x+.5, y, -z+.5'
  2	'x, -y+.5, z'
  3	'-x+.5, y+.5, z+.5'
  4	'-x, -y, -z'
  5	'-x+.5, -y, z+.5'
  6	'-x, y+.5, -z'
  7	'x+.5, -y+.5, -z+.5'
  8	'x, y, z'
loop_
_atom_type_symbol
_atom_type_oxidation_number
Ag1+	1
Mn2+	2
O2-	-2
V5+	5
loop_
_atom_site_label
_atom_site_type_symbol
_atom_site_symmetry_multiplicity
_atom_site_Wyckoff_symbol
_atom_site_fract_x
_atom_site_fract_y
_atom_site_fract_z
_atom_site_occupancy
_atom_site_attached_hydrogens
_atom_site_U_iso_or_equiv
Ag1 Ag1+ 4 c 0.3500(4) 0.25 0.0022(13) 1. 0 0.0253(14) 
Mn1 Mn2+ 4 a 0.5 0.5 0.5 1. 0 0.014(2) 
V1 V5+ 4 c 0.6802(8) 0.25 0.024(3) 1. 0 0.017(3) 
O1 O2- 4 c 0.855(3) 0.25 0.044(7) 1. 0 0.024(10) 
O2 O2- 4 c 0.634(4) 0.25 -0.281(5) 1. 0 0.022(9) 
O3 O2- 8 d 0.612(3) 0.454(3) 0.167(4) 1. 0 0.021(8) 

#End of data_246202-ICSD


