data_300166-ICSD
#?2014 by Fachinformationszentrum Karlsruhe, and the U.S. Secretary of 
#Commerce on behalf of the United States.  All rights reserved.
_database_code_ICSD                300166
_audit_creation_date               1991/07/10
_audit_update_record               1991/10/30
_chemical_name_systematic
;
Hexasodium Di-mue-selenido-bis(diselenidoaluminate)
;
_chemical_formula_structural       'Na6 Al2 Se6'
_chemical_formula_sum              'Al2 Na6 Se6'
_publ_section_title
;
Crystal structure of hexasodium di-mue-selenidobis(selenidoaluminate)
;
loop_
_citation_id
_citation_journal_abbrev
_citation_year
_citation_journal_volume
_citation_page_first
_citation_page_last
_citation_journal_id_ASTM
primary 'Zeitschrift fuer Kristallographie (1979-2010)' 1991 197 141 142 ZEKRDZ
_publ_author_name                  'Eisenmann, B.;Hofmann, A.'
_cell_length_a                     7.499(4)
_cell_length_b                     7.203(4)
_cell_length_c                     13.196(5)
_cell_angle_alpha                  90.
_cell_angle_beta                   90.372(60)
_cell_angle_gamma                  90.
_cell_volume                       712.77
_cell_formula_units_Z              2
_symmetry_space_group_name_H-M     'P 1 21/n 1'
_symmetry_Int_Tables_number        14
_refine_ls_R_factor_all            .076
loop_
_symmetry_equiv_pos_site_id
_symmetry_equiv_pos_as_xyz
  1	'-x+.5, y+.5, -z+.5'
  2	'-x, -y, -z'
  3	'x+.5, -y+.5, z+.5'
  4	'x, y, z'
loop_
_atom_type_symbol
_atom_type_oxidation_number
Al3+	3
Na1+	1
Se2-	-2
loop_
_atom_site_label
_atom_site_type_symbol
_atom_site_symmetry_multiplicity
_atom_site_Wyckoff_symbol
_atom_site_fract_x
_atom_site_fract_y
_atom_site_fract_z
_atom_site_occupancy
_atom_site_attached_hydrogens
Na1 Na1+ 4 e 0.2764(11) 0.5284(12) 0.2138(6) 1. 0 
Na2 Na1+ 4 e 0.6608(10) 0.4940(11) 0.3887(6) 1. 0 
Na3 Na1+ 4 e 0.7958(11) 0.4941(11) 0.1017(6) 1. 0 
Al1 Al3+ 4 e 0.4192(7) 0.1392(7) 0.0811(4) 1. 0 
Se1 Se2- 4 e 0.0776(3) 0.3017(3) 0.4278(1) 1. 0 
Se2 Se2- 4 e 0.9277(2) 0.7406(3) 0.2746(1) 1. 0 
Se3 Se2- 4 e 0.1259(2) 0.2536(3) 0.0741(1) 1. 0 

#End of data_300166-ICSD


