data_24851-ICSD
#?2014 by Fachinformationszentrum Karlsruhe, and the U.S. Secretary of 
#Commerce on behalf of the United States.  All rights reserved.
_database_code_ICSD                24851
_audit_creation_date               1982/12/31
_audit_update_record               1997/11/10
_chemical_name_systematic          'Aluminium Oxide'
_chemical_formula_structural       'Al2 O3'
_chemical_formula_sum              'Al2 O3'
_chemical_name_mineral             Corundum
_publ_section_title
;
The Analysis of Powder Diffraction Data
;
loop_
_citation_id
_citation_journal_abbrev
_citation_year
_citation_journal_volume
_citation_page_first
_citation_page_last
_citation_journal_id_ASTM
primary 'Acta Crystallographica B (24,1968-38,1982)' 1982 38 264 269 ACBCAR
_publ_author_name                  'Cooper, M.J.'
_cell_length_a                     4.763
_cell_length_b                     4.763
_cell_length_c                     13.
_cell_angle_alpha                  90.
_cell_angle_beta                   90.
_cell_angle_gamma                  120.
_cell_volume                       255.41
_cell_formula_units_Z              6
_symmetry_space_group_name_H-M     'R -3 c H'
_symmetry_Int_Tables_number        167
loop_
_symmetry_equiv_pos_site_id
_symmetry_equiv_pos_as_xyz
  1	'x-y, -y, -z+.5'
  2	'-x, -x+y, -z+.5'
  3	'y, x, -z+.5'
  4	'x-y, x, -z'
  5	'y, -x+y, -z'
  6	'-x, -y, -z'
  7	'-x+y, y, z+.5'
  8	'x, x-y, z+.5'
  9	'-y, -x, z+.5'
 10	'-x+y, -x, z'
 11	'-y, x-y, z'
 12	'x, y, z'
 13	'x-y+.6666, -y+.3333, -z+.8333'
 14	'x-y+.3333, -y+.6666, -z+.1666'
 15	'-x+.6666, -x+y+.3333, -z+.8333'
 16	'-x+.3333, -x+y+.6666, -z+.1666'
 17	'y+.6666, x+.3333, -z+.8333'
 18	'y+.3333, x+.6666, -z+.1666'
 19	'x-y+.6666, x+.3333, -z+.3333'
 20	'x-y+.3333, x+.6666, -z+.6666'
 21	'y+.6666, -x+y+.3333, -z+.3333'
 22	'y+.3333, -x+y+.6666, -z+.6666'
 23	'-x+.6666, -y+.3333, -z+.3333'
 24	'-x+.3333, -y+.6666, -z+.6666'
 25	'-x+y+.6666, y+.3333, z+.8333'
 26	'-x+y+.3333, y+.6666, z+.1666'
 27	'x+.6666, x-y+.3333, z+.8333'
 28	'x+.3333, x-y+.6666, z+.1666'
 29	'-y+.6666, -x+.3333, z+.8333'
 30	'-y+.3333, -x+.6666, z+.1666'
 31	'-x+y+.6666, -x+.3333, z+.3333'
 32	'-x+y+.3333, -x+.6666, z+.6666'
 33	'-y+.6666, x-y+.3333, z+.3333'
 34	'-y+.3333, x-y+.6666, z+.6666'
 35	'x+.6666, y+.3333, z+.3333'
 36	'x+.3333, y+.6666, z+.6666'
loop_
_atom_type_symbol
_atom_type_oxidation_number
Al3+	3
O2-	-2
loop_
_atom_site_label
_atom_site_type_symbol
_atom_site_symmetry_multiplicity
_atom_site_Wyckoff_symbol
_atom_site_fract_x
_atom_site_fract_y
_atom_site_fract_z
_atom_site_occupancy
_atom_site_attached_hydrogens
_atom_site_B_iso_or_equiv
Al1 Al3+ 12 c 0 0 0.35230(13) 1. 0 0.174(27) 
O1 O2- 18 e 0.30632(17) 0 0.25 1. 0 0.188(16) 

#End of data_24851-ICSD


