data_69873-ICSD
#?2014 by Fachinformationszentrum Karlsruhe, and the U.S. Secretary of 
#Commerce on behalf of the United States.  All rights reserved.
_database_code_ICSD                69873
_audit_creation_date               1993/01/06
_audit_update_record               2012/02/01
_chemical_name_systematic
;
Tricalcium Diiron(III) Pentaoxide Dichloride
;
_chemical_formula_structural       'Ca3 Fe2 O5 Cl2'
_chemical_formula_sum              'Ca3 Cl2 Fe2 O5'
_publ_section_title
;
The preparation and structures of the alkaline earth iron oxyhalides
;
loop_
_citation_id
_citation_journal_abbrev
_citation_year
_citation_journal_volume
_citation_page_first
_citation_page_last
_citation_journal_id_ASTM
primary 'Journal of Solid State Chemistry' 1991 92 496 513 JSSCBI
_publ_author_name                  'Ackerman, J.F.'
_cell_length_a                     3.859(2)
_cell_length_b                     3.859(2)
_cell_length_c                     23.187(5)
_cell_angle_alpha                  90.
_cell_angle_beta                   90.
_cell_angle_gamma                  90.
_cell_volume                       345.3
_cell_formula_units_Z              2
_symmetry_space_group_name_H-M     'I 4/m m m'
_symmetry_Int_Tables_number        139
_refine_ls_R_factor_all            .073
loop_
_symmetry_equiv_pos_site_id
_symmetry_equiv_pos_as_xyz
  1	'y, x, -z'
  2	'-y, -x, -z'
  3	'-y, x, -z'
  4	'y, -x, -z'
  5	'-x, y, -z'
  6	'x, -y, -z'
  7	'x, y, -z'
  8	'-x, -y, -z'
  9	'-y, -x, z'
 10	'y, x, z'
 11	'y, -x, z'
 12	'-y, x, z'
 13	'x, -y, z'
 14	'-x, y, z'
 15	'-x, -y, z'
 16	'x, y, z'
 17	'y+.5, x+.5, -z+.5'
 18	'-y+.5, -x+.5, -z+.5'
 19	'-y+.5, x+.5, -z+.5'
 20	'y+.5, -x+.5, -z+.5'
 21	'-x+.5, y+.5, -z+.5'
 22	'x+.5, -y+.5, -z+.5'
 23	'x+.5, y+.5, -z+.5'
 24	'-x+.5, -y+.5, -z+.5'
 25	'-y+.5, -x+.5, z+.5'
 26	'y+.5, x+.5, z+.5'
 27	'y+.5, -x+.5, z+.5'
 28	'-y+.5, x+.5, z+.5'
 29	'x+.5, -y+.5, z+.5'
 30	'-x+.5, y+.5, z+.5'
 31	'-x+.5, -y+.5, z+.5'
 32	'x+.5, y+.5, z+.5'
loop_
_atom_type_symbol
_atom_type_oxidation_number
Ca2+	2
Cl1-	-1
Fe3+	3
O2-	-2
loop_
_atom_site_label
_atom_site_type_symbol
_atom_site_symmetry_multiplicity
_atom_site_Wyckoff_symbol
_atom_site_fract_x
_atom_site_fract_y
_atom_site_fract_z
_atom_site_occupancy
_atom_site_attached_hydrogens
_atom_site_U_iso_or_equiv
Ca1 Ca2+ 2 b 0 0 0.5 1. 0 0 
Fe1 Fe3+ 4 e 0 0 0.07990(15) 1. 0 0 
Ca2 Ca2+ 4 e 0 0 0.34421(30) 1. 0 0 
Cl1 Cl1- 4 e 0 0 0.20497(30) 1. 0 0 
O1 O2- 8 g 0.5 0 0.09015(44) 1. 0 0.0237(33) 
O2 O2- 2 a 0 0 0 1. 0 0.065(10) 

loop_
_atom_site_aniso_label
_atom_site_aniso_type_symbol
_atom_site_aniso_U_11
_atom_site_aniso_U_22
_atom_site_aniso_U_33
_atom_site_aniso_U_12
_atom_site_aniso_U_13
_atom_site_aniso_U_23
Ca1 Ca2+ 0.0112(30) 0.0112(30) 0.0470(62) 0 0 0
Fe1 Fe3+ 0.0034(21) 0.0034(21) 0.0113(26) 0 0 0
Ca2 Ca2+ 0.0022(2) 0.0022(2) 0.0291(34) 0 0 0
Cl1 Cl1- 0.0196(27) 0.0196(27) 0.0217(40) 0 0 0
#End of data_69873-ICSD


