data_1042-ICSD
#?2014 by Fachinformationszentrum Karlsruhe, and the U.S. Secretary of 
#Commerce on behalf of the United States.  All rights reserved.
_database_code_ICSD                1042
_audit_creation_date               1980/01/01
_audit_update_record               2010/02/01
_chemical_name_systematic          'Calcium Tin(IV) Oxide Silicate'
_chemical_formula_structural       'Ca Sn O (Si O4)'
_chemical_formula_sum              'Ca1 O5 Si1 Sn1'
_chemical_name_mineral             Malayaite
_publ_section_title
;
The crystal structure of malayaite: Ca Sn O Si O4
;
loop_
_citation_id
_citation_journal_abbrev
_citation_year
_citation_journal_volume
_citation_page_first
_citation_page_last
_citation_journal_id_ASTM
primary 'Crystal Structure Communications' 1977 6 179 182 CSCMCS
2 'American Mineralogist' 1977 62 801 806 AMMIAY
_publ_author_name                  'Higgins, J.B.;Ross, F.K.'
_cell_length_a                     7.149
_cell_length_b                     8.906
_cell_length_c                     6.667
_cell_angle_alpha                  90.
_cell_angle_beta                   113.4
_cell_angle_gamma                  90.
_cell_volume                       389.57
_cell_formula_units_Z              4
_symmetry_space_group_name_H-M     'A 1 2/a 1'
_symmetry_Int_Tables_number        15
_refine_ls_R_factor_all            .047
loop_
_symmetry_equiv_pos_site_id
_symmetry_equiv_pos_as_xyz
  1	'-x+.5, y, -z'
  2	'-x, -y, -z'
  3	'x+.5, -y, z'
  4	'x, y, z'
  5	'-x+.5, y+.5, -z+.5'
  6	'-x, -y+.5, -z+.5'
  7	'x+.5, -y+.5, z+.5'
  8	'x, y+.5, z+.5'
loop_
_atom_type_symbol
_atom_type_oxidation_number
Ca2+	2
O2-	-2
Si4+	4
Sn4+	4
loop_
_atom_site_label
_atom_site_type_symbol
_atom_site_symmetry_multiplicity
_atom_site_Wyckoff_symbol
_atom_site_fract_x
_atom_site_fract_y
_atom_site_fract_z
_atom_site_occupancy
_atom_site_attached_hydrogens
Ca1 Ca2+ 4 e 0.25 0.6617(4) 0.5 1. 0 
Sn1 Sn4+ 4 b 0.5 0.5 0 1. 0 
Si1 Si4+ 4 e 0.75 0.6835(4) 0.5 1. 0 
O1 O2- 4 e 0.75 0.5867(8) 0 1. 0 
O2 O2- 8 f 0.9125(7) 0.5671(6) 0.6755(8) 1. 0 
O3 O2- 8 f 0.3724(8) 0.7114(6) 0.8914(8) 1. 0 

#End of data_1042-ICSD


