data_67816-ICSD
#?2014 by Fachinformationszentrum Karlsruhe, and the U.S. Secretary of 
#Commerce on behalf of the United States.  All rights reserved.
_database_code_ICSD                67816
_audit_creation_date               1995/01/10
_audit_update_record               2012/02/01
_chemical_name_systematic
;
Potassium Manganese Tetracopper Trivanadium Oxide
;
_chemical_formula_structural       'K Mg Cu4 V3 O13'
_chemical_formula_sum              'Cu4 K1 Mg1 O13 V3'
_publ_section_title
;
Synthese und Kristallstruktur von K Mg Cu4 V3 O13
;
loop_
_citation_id
_citation_journal_abbrev
_citation_year
_citation_journal_volume
_citation_page_first
_citation_page_last
_citation_journal_id_ASTM
primary 'Zeitschrift fuer Anorganische und Allgemeine Chemie (1950) (DE)'
 1993 619 1713 1716 ZAACAB
_publ_author_name
;
von Postel, M.;Mueller Buschbaum, H.
;
_cell_length_a                     10.7144(18)
_cell_length_b                     6.0282(11)
_cell_length_c                     8.3365(18)
_cell_angle_alpha                  90.
_cell_angle_beta                   98.075(18)
_cell_angle_gamma                  90.
_cell_volume                       533.1
_cell_formula_units_Z              2
_symmetry_space_group_name_H-M     'P 1 21/m 1'
_symmetry_Int_Tables_number        11
_refine_ls_R_factor_all            .078
loop_
_symmetry_equiv_pos_site_id
_symmetry_equiv_pos_as_xyz
  1	'x, -y+.5, z'
  2	'-x, -y, -z'
  3	'-x, y+.5, -z'
  4	'x, y, z'
loop_
_atom_type_symbol
_atom_type_oxidation_number
Cu2+	2
K1+	1
Mg2+	2
O2-	-2
V5+	5
loop_
_atom_site_label
_atom_site_type_symbol
_atom_site_symmetry_multiplicity
_atom_site_Wyckoff_symbol
_atom_site_fract_x
_atom_site_fract_y
_atom_site_fract_z
_atom_site_occupancy
_atom_site_attached_hydrogens
_atom_site_B_iso_or_equiv
K1 K1+ 2 e 0.8999(3) 0.25 0.0139(4) 1. 0 1.19(5) 
Mg1 Mg2+ 2 e 0.8565(4) 0.75 0.6922(5) 1. 0 0.27(6) 
Cu1 Cu2+ 2 e 0.3942(2) 0.75 0.8911(3) 1. 0 1.25(3) 
Cu2 Cu2+ 4 f 0.7306(1) 0.0012(3) 0.3943(2) 1. 0 0.72(2) 
Cu3 Cu2+ 2 e 0.5577(2) 0.75 0.6438(3) 1. 0 1.17(3) 
V1 V5+ 2 e 0.6245(2) 0.25 0.6819(3) 1. 0 0.57(3) 
V2 V5+ 2 e 0.0034(2) 0.75 0.3688(3) 1. 0 0.52(3) 
V3 V5+ 2 e 0.7119(2) 0.75 0.0289(3) 1. 0 0.48(3) 
O1 O2- 2 e 0.887(1) 0.25 0.468(1) 1. 0 1.09(15) 
O2 O2- 4 f 0.698(1) 0.001(1) 0.631(1) 1. 0 0.8(9) 
O3 O2- 4 f 0.975(1) 0.024(1) 0.742(1) 1. 0 0.94(10) 
O4 O2- 2 e 0.157(1) 0.25 0.557(1) 1. 0 0.73(13) 
O5 O2- 2 e 0.624(1) 0.25 0.879(1) 1. 0 1.20(15) 
O6 O2- 4 f 0.278(1) 0.020(1) 0.847(1) 1. 0 0.97(10) 
O7 O2- 2 e 0.163(1) 0.25 0.071(1) 1. 0 1.00(14) 
O8 O2- 2 e 0.530(1) 0.75 0.406(1) 1. 0 1.12(15) 
O9 O2- 2 e 0.380(1) 0.75 0.655(1) 1. 0 0.84(14) 
O10 O2- 2 e 0.577(1) 0.75 0.886(1) 1. 0 1.25(16) 

#End of data_67816-ICSD


