data_279622-ICSD
#?2014 by Fachinformationszentrum Karlsruhe, and the U.S. Secretary of 
#Commerce on behalf of the United States.  All rights reserved.
_database_code_ICSD                279622
_audit_creation_date               2002/10/01
_chemical_name_systematic
;
Potassium Europium(II) Tetrathiophosphate(V)
;
_chemical_formula_structural       'K Eu (P S4)'
_chemical_formula_sum              'Eu1 K1 P1 S4'
_publ_section_title
;
Thiophosphate phase diagrams developed in conjunction with the 
synthesis of the new compounds K La P2 S6, K2 La (P2 S6)1/2 (P S4), 
K3 La (P S4)2, k4 La0.67 (P S4)2, K9-x La1+x/3 (P S4)4 (x = 0.5), K4 
Eu (P S4)2, and K Eu P S4
;
loop_
_citation_id
_citation_journal_abbrev
_citation_year
_citation_journal_volume
_citation_page_first
_citation_page_last
_citation_journal_id_ASTM
primary 'Inorganic Chemistry' 2001 40 2884 2891 INOCAJ
_publ_author_name                  'Evenson, C.R.IV.;Dorhout, P.K.'
_cell_length_a                     16.7816(15)
_cell_length_b                     6.6141(6)
_cell_length_c                     6.5142(6)
_cell_angle_alpha                  90.
_cell_angle_beta                   90.
_cell_angle_gamma                  90.
_cell_volume                       723.04
_cell_formula_units_Z              4
_symmetry_space_group_name_H-M     'P n m a'
_symmetry_Int_Tables_number        62
_refine_ls_R_factor_all            .0552
loop_
_symmetry_equiv_pos_site_id
_symmetry_equiv_pos_as_xyz
  1	'x+.5, y, -z+.5'
  2	'x, -y+.5, z'
  3	'-x+.5, y+.5, z+.5'
  4	'-x, -y, -z'
  5	'-x+.5, -y, z+.5'
  6	'-x, y+.5, -z'
  7	'x+.5, -y+.5, -z+.5'
  8	'x, y, z'
loop_
_atom_type_symbol
_atom_type_oxidation_number
Eu2+	2
K1+	1
P5+	5
S2-	-2
loop_
_atom_site_label
_atom_site_type_symbol
_atom_site_symmetry_multiplicity
_atom_site_Wyckoff_symbol
_atom_site_fract_x
_atom_site_fract_y
_atom_site_fract_z
_atom_site_occupancy
_atom_site_attached_hydrogens
Eu1 Eu2+ 4 c 0.47800(3) 0.25 0.29192(7) 1. 0 
P1 P5+ 4 c 0.40201(13) 0.25 0.7786(4) 1. 0 
K1 K1+ 4 c 0.21173(13) 0.25 0.4815(4) 1. 0 
S1 S2- 4 c 0.33238(14) 0.25 0.0338(4) 1. 0 
S2 S2- 4 c 0.47850(14) -.25 0.1562(4) 1. 0 
S3 S2- 8 d 0.37858(9) 0.0027(2) 0.6013(3) 1. 0 

loop_
_atom_site_aniso_label
_atom_site_aniso_type_symbol
_atom_site_aniso_U_11
_atom_site_aniso_U_22
_atom_site_aniso_U_33
_atom_site_aniso_U_12
_atom_site_aniso_U_13
_atom_site_aniso_U_23
Eu1 Eu2+ 0.0130(2) 0.0167(2) 0.0120(2) 0 0.0005(2) 0
P1 P5+ 0.0099(10) 0.0074(9) 0.0121(11) 0 -.0002(9) 0
K1 K1+ 0.0185(11) 0.0172(11) 0.0353(14) 0 -.0064(10) 0
S1 S2- 0.0131(11) 0.0200(11) 0.0170(12) 0 0.0057(9) 0
S2 S2- 0.0088(10) 0.0236(11) 0.0165(12) 0 0.0018(9) 0
S3 S2- 0.0150(8) 0.0095(7) 0.0180(8) -.0001(6) -.0025(6) -.0019(6)
#End of data_279622-ICSD


