data_424472-ICSD
#?2014 by Fachinformationszentrum Karlsruhe, and the U.S. Secretary of 
#Commerce on behalf of the United States.  All rights reserved.
_database_code_ICSD                424472
_audit_creation_date               2013/02/01
_chemical_name_systematic          'Tricalcium Disilicate'
_chemical_formula_structural       'Ca3 (Si2 O7)'
_chemical_formula_sum              'Ca3 O7 Si2'
_chemical_name_mineral             Kilchoanite
_publ_section_title
;
Structural reinvestigation of kilchoanite, a Ca3 Si2 O7 polymorph
;
loop_
_citation_id
_citation_journal_abbrev
_citation_year
_citation_journal_volume
_citation_page_first
_citation_page_last
_citation_journal_id_ASTM
primary 'Mitteilungen der Oesterreichischen Mineralogischen Gesellschaft'
 2012 158 59 65 MOMGA4
_publ_author_name                  'Petschnig, L.;Kahlenberg, V.'
_cell_length_a                     21.9641(14)
_cell_length_b                     5.0841(3)
_cell_length_c                     11.4403(7)
_cell_angle_alpha                  90
_cell_angle_beta                   90
_cell_angle_gamma                  90
_cell_volume                       1277.51
_cell_formula_units_Z              8
_symmetry_space_group_name_H-M     'I m a 2'
_symmetry_Int_Tables_number        46
_refine_ls_R_factor_all            .0214
loop_
_symmetry_equiv_pos_site_id
_symmetry_equiv_pos_as_xyz
  1	'x+.5, -y, z'
  2	'-x+.5, y, z'
  3	'-x, -y, z'
  4	'x, y, z'
  5	'x, -y+.5, z+.5'
  6	'-x, y+.5, z+.5'
  7	'-x+.5, -y+.5, z+.5'
  8	'x+.5, y+.5, z+.5'
loop_
_atom_type_symbol
_atom_type_oxidation_number
Ca2+	2
O2-	-2
Si4+	4
loop_
_atom_site_label
_atom_site_type_symbol
_atom_site_symmetry_multiplicity
_atom_site_Wyckoff_symbol
_atom_site_fract_x
_atom_site_fract_y
_atom_site_fract_z
_atom_site_occupancy
_atom_site_attached_hydrogens
_atom_site_U_iso_or_equiv
Ca1 Ca2+ 4 b 0.25 -0.00062(18) 0.72217(8) 1 0 0.0061(2) 
Ca2 Ca2+ 8 c 0.16818(3) 0.00371(15) 0.44705(7) 1 0 0.00757(17) 
Ca3 Ca2+ 4 a 0 0.5 -0.07690(8) 1 0 0.0080(2) 
Ca4 Ca2+ 8 c 0.10402(3) 0.00248(12) 0.15349(6) 1 0 0.00602(17) 
Si1 Si4+ 4 a 0 0.5 0.17631(12) 1 0 0.0053(3) 
Si2 Si4+ 4 b 0.25 0.4275(3) 0.53316(13) 1 0 0.0046(3) 
Si3 Si4+ 8 c 0.10030(4) 0.55820(18) 0.34380(8) 1 0 0.0049(2) 
O1 O2- 4 b 0.25 -0.2536(6) 0.5336(3) 1 0 0.0085(7) 
O2 O2- 8 c 0.04102(10) -0.3130(4) 0.2665(2) 1 0 0.0063(5) 
O3 O2- 4 b 0.25 0.2075(6) 0.9021(3) 1 0 0.0085(8) 
O4 O2- 8 c 0.09598(10) 0.2429(4) 0.3392(2) 1 0 0.0065(5) 
O5 O2- 8 c 0.09199(11) -0.3082(4) 0.4698(2) 1 0 0.0080(5) 
O6 O2- 8 c 0.34158(10) -0.1970(4) 0.78162(19) 1 0 0.0067(5) 
O7 O2- 8 c 0.30857(10) 0.2983(4) 0.5995(2) 1 0 0.0074(5) 
O8 O2- 8 c -0.04184(11) -0.3230(4) 0.0960(2) 1 0 0.0091(5) 

loop_
_atom_site_aniso_label
_atom_site_aniso_type_symbol
_atom_site_aniso_U_11
_atom_site_aniso_U_22
_atom_site_aniso_U_33
_atom_site_aniso_U_12
_atom_site_aniso_U_13
_atom_site_aniso_U_23
Ca1 Ca2+ 0.0063(6) 0.0066(5) 0.0054(5) 0 0 0.0005(4)
Ca2 Ca2+ 0.0083(4) 0.0051(3) 0.0093(4) -0.0014(2) -0.0034(3) 0.0002(2)
Ca3 Ca2+ 0.0079(5) 0.0094(5) 0.0066(5) -0.0007(4) 0 0
Ca4 Ca2+ 0.0065(4) 0.0057(3) 0.0058(3) 0.0004(2) 0.0008(3) 0.0006(3)
Si1 Si4+ 0.0049(7) 0.0052(6) 0.0057(7) -0.0008(5) 0 0
Si2 Si4+ 0.0047(7) 0.0037(6) 0.0053(6) 0 0 -0.0003(6)
Si3 Si4+ 0.0044(5) 0.0039(4) 0.0065(5) 0.0001(4) -0.0005(4) 0.0002(4)
O1 O2- 0.0097(18) 0.0052(16) 0.0107(18) 0 0 -0.0003(16)
O2 O2- 0.0082(13) 0.0031(11) 0.0076(12) 0.0000(9) -0.0017(10) 0.0006(10)
O3 O2- 0.0111(19) 0.0094(19) 0.0050(16) 0 0 -0.0003(13)
O4 O2- 0.0081(12) 0.0040(10) 0.0074(12) -0.0004(9) -0.0015(10) 0.0007(11)
O5 O2- 0.0101(13) 0.0067(13) 0.0072(12) -0.0017(9) -0.0008(9) 0.0004(10)
O6 O2- 0.0060(12) 0.0072(13) 0.0069(13) -0.0003(10) -0.0003(11) -0.0017(9)
O7 O2- 0.0066(12) 0.0076(13) 0.0082(12) 0.0004(10) -0.0005(11) 0.0008(10)
O8 O2- 0.0106(13) 0.0106(12) 0.0061(11) 0.0042(9) 0.0005(10) -0.0010(11)
#End of data_424472-ICSD


