data_2069-ICSD
#?2014 by Fachinformationszentrum Karlsruhe, and the U.S. Secretary of 
#Commerce on behalf of the United States.  All rights reserved.
_database_code_ICSD                2069
_audit_creation_date               1980/01/01
_audit_update_record               2012/08/01
_chemical_name_systematic
;
Cobalt Dipotassium Tetrakis(catena-phosphate(V))
;
_chemical_formula_structural       'Co K2 (P O3)4'
_chemical_formula_sum              'Co1 K2 O12 P4'
_publ_section_title
;
Affinement des structures cristallines de Cu K2 (P O3)4 et Co K2 (P 
O3)4
;
loop_
_citation_id
_citation_journal_abbrev
_citation_year
_citation_journal_volume
_citation_page_first
_citation_page_last
_citation_journal_id_ASTM
primary 'Acta Crystallographica B (24,1968-38,1982)' 1974 30 1100 1104 ACBCAR
_publ_author_name
;
Laugt, M.;Tordjman, I.;Bassi, G.;Guitel, J.C.
;
_cell_length_a                     11.127(1)
_cell_length_b                     12.579(3)
_cell_length_c                     7.636(1)
_cell_angle_alpha                  90.
_cell_angle_beta                   102.89(1)
_cell_angle_gamma                  90.
_cell_volume                       1041.85
_cell_formula_units_Z              4
_symmetry_space_group_name_H-M     'C 1 c 1'
_symmetry_Int_Tables_number        9
_refine_ls_R_factor_all            .051
loop_
_symmetry_equiv_pos_site_id
_symmetry_equiv_pos_as_xyz
  1	'x, -y, z+.5'
  2	'x, y, z'
  3	'x+.5, -y+.5, z+.5'
  4	'x+.5, y+.5, z'
loop_
_atom_type_symbol
_atom_type_oxidation_number
Co2+	2
K1+	1
O2-	-2
P5+	5
loop_
_atom_site_label
_atom_site_type_symbol
_atom_site_symmetry_multiplicity
_atom_site_Wyckoff_symbol
_atom_site_fract_x
_atom_site_fract_y
_atom_site_fract_z
_atom_site_occupancy
_atom_site_attached_hydrogens
Co1 Co2+ 4 a 0 0.1544(1) 0.75 1. 0 
K1 K1+ 4 a 0.1340(5) 0.3741(4) 0.0805(8) 1. 0 
K2 K1+ 4 a 0.3348(6) 0.1328(4) 0.9166(9) 1. 0 
P1 P5+ 4 a 0.3923(7) 0.4241(5) 0.8351(9) 1. 0 
P2 P5+ 4 a 0.1658(5) 0.3376(5) 0.5721(8) 1. 0 
P3 P5+ 4 a 0.3184(6) 0.1880(4) 0.4206(9) 1. 0 
P4 P5+ 4 a 0.1122(6) 0.0762(4) 0.1812(4) 1. 0 
O1 O2- 4 a 0.0736(11) 0.4162(8) 0.4758(15) 1. 0 
O2 O2- 4 a 0.1348(11) 0.2659(10) 0.7085(19) 1. 0 
O3 O2- 4 a 0.2859(12) 0.4027(11) 0.6634(18) 1. 0 
O4 O2- 4 a 0.2163(10) 0.2760(8) 0.4190(15) 1. 0 
O5 O2- 4 a 0.3911(12) 0.2205(11) 0.2826(19) 1. 0 
O6 O2- 4 a 0.389(1) 0.1542(10) 0.6009(14) 1. 0 
O7 O2- 4 a 0.2342(10) 0.0868(9) 0.3339(16) 1. 0 
O8 O2- 4 a 0.1225(12) 0.1500(12) 0.0259(19) 1. 0 
O9 O2- 4 a 0.0998(13) -.0412(12) 0.1542(20) 1. 0 
O10 O2- 4 a 0.0133(14) 0.1226(8) 0.2736(20) 1. 0 
O11 O2- 4 a 0.3727(11) 0.3570(12) 0.9868(17) 1. 0 
O12 O2- 4 a 0.4008(14) 0.5416(10) 0.8537(20) 1. 0 

#End of data_2069-ICSD


