data_1351-ICSD
#?2014 by Fachinformationszentrum Karlsruhe, and the U.S. Secretary of 
#Commerce on behalf of the United States.  All rights reserved.
_database_code_ICSD                1351
_audit_creation_date               1980/01/01
_audit_update_record               2010/02/01
_chemical_name_systematic          'Sodium Borate'
_chemical_formula_structural       'Na3 B O3'
_chemical_formula_sum              'B1 Na3 O3'
_publ_section_title                'Zur Kenntnis von Na3 B O3'
loop_
_citation_id
_citation_journal_abbrev
_citation_year
_citation_journal_volume
_citation_page_first
_citation_page_last
_citation_journal_id_ASTM
primary 'Zeitschrift fuer Anorganische und Allgemeine Chemie (1950) (DE)'
 1977 434 225 232 ZAACAB
_publ_author_name                  'Koenig, H.;Hoppe, R.'
_cell_length_a                     5.687
_cell_length_b                     7.53
_cell_length_c                     9.993
_cell_angle_alpha                  90.
_cell_angle_beta                   127.15
_cell_angle_gamma                  90.
_cell_volume                       341.09
_cell_formula_units_Z              4
_symmetry_space_group_name_H-M     'P 1 21/c 1'
_symmetry_Int_Tables_number        14
_refine_ls_R_factor_all            .076
loop_
_symmetry_equiv_pos_site_id
_symmetry_equiv_pos_as_xyz
  1	'x, -y+.5, z+.5'
  2	'-x, -y, -z'
  3	'-x, y+.5, -z+.5'
  4	'x, y, z'
loop_
_atom_type_symbol
_atom_type_oxidation_number
B3+	3
Na1+	1
O2-	-2
loop_
_atom_site_label
_atom_site_type_symbol
_atom_site_symmetry_multiplicity
_atom_site_Wyckoff_symbol
_atom_site_fract_x
_atom_site_fract_y
_atom_site_fract_z
_atom_site_occupancy
_atom_site_attached_hydrogens
Na1 Na1+ 4 e 0.1509(3) 0.2187(4) 0.7785(1) 1. 0 
Na2 Na1+ 4 e 0.2956(3) 0.4745(3) 0.0437(1) 1. 0 
Na3 Na1+ 4 e 0.1909(3) 0.8512(3) 0.0693(1) 1. 0 
B1 B3+ 4 e 0.5844(7) 0.1588(7) 0.1533(3) 1. 0 
O1 O2- 4 e 0.3162(5) 0.1483(6) 0.1263(3) 1. 0 
O2 O2- 4 e 0.6117(5) 0.2697(6) 0.0499(2) 1. 0 
O3 O2- 4 e 0.8334(5) 0.0804(6) 0.2914(3) 1. 0 

loop_
_atom_site_aniso_label
_atom_site_aniso_type_symbol
_atom_site_aniso_U_11
_atom_site_aniso_U_22
_atom_site_aniso_U_33
_atom_site_aniso_U_12
_atom_site_aniso_U_13
_atom_site_aniso_U_23
Na1 Na1+ 0.0082(5) 0.0108(5) 0.0121(4) -.0039(6) 0.0062(4) 0.0004(7)
Na2 Na1+ 0.0075(5) 0.0099(6) 0.0129(5) 0.0001(6) 0.0073(4) -.0002(6)
Na3 Na1+ 0.0097(5) 0.0122(5) 0.0146(4) 0.0012(6) 0.0084(4) 0.0012(6)
B1 B3+ 0.0064(11) 0.0055(7) 0.0046(7) 0.0025(12) 0.0046(7) 0.0022(14)
O1 O2- 0.0108(8) 0.0157(7) 0.0209(7) -.0015(11) 0.0103(7) -.0008(10)
O2 O2- 0.0086(8) 0.0098(6) 0.0110(7) 0.0037(9) 0.0073(6) 0.0037(11)
O3 O2- 0.0091(8) 0.0096(6) 0.0103(5) 0.0033(10) 0.0050(5) 0.0052(12)
#End of data_1351-ICSD


