data_4331-ICSD
#?2014 by Fachinformationszentrum Karlsruhe, and the U.S. Secretary of 
#Commerce on behalf of the United States.  All rights reserved.
_database_code_ICSD                4331
_audit_creation_date               1980/01/01
_audit_update_record               2012/08/01
_chemical_name_systematic          'Tricalcium Silicate Oxide'
_chemical_formula_structural       'Ca3 (Si O4) O'
_chemical_formula_sum              'Ca3 O5 Si1'
_publ_section_title
;
Crystal structure of the tricalcium silicate (Ca O Si O2)3 = C3 S
;
loop_
_citation_id
_citation_journal_abbrev
_citation_year
_citation_journal_volume
_citation_page_first
_citation_page_last
_citation_journal_id_ASTM
primary Kristallografiya 1975 20 721 729 KRISAJ
2 'Soviet Physics, Crystallography (= Kristallografiya)'
 1975 20 441 445 SPHCA6
3 'Golden Book of Phase Transitions, Wroclaw' 2002 1 1 123 GBOPT5
_publ_author_name
;
Golovastikov, N.I.;Matveeva, R.G.;Belov, N.V.
;
_cell_length_a                     11.67
_cell_length_b                     14.24
_cell_length_c                     13.72
_cell_angle_alpha                  105.5
_cell_angle_beta                   94.33
_cell_angle_gamma                  90.
_cell_volume                       2190.32
_cell_formula_units_Z              18
_symmetry_space_group_name_H-M     'P -1'
_symmetry_Int_Tables_number        2
_refine_ls_R_factor_all            .097
loop_
_symmetry_equiv_pos_site_id
_symmetry_equiv_pos_as_xyz
  1	'-x, -y, -z'
  2	'x, y, z'
loop_
_atom_type_symbol
_atom_type_oxidation_number
Ca2+	2
O2-	-2
Si4+	4
loop_
_atom_site_label
_atom_site_type_symbol
_atom_site_symmetry_multiplicity
_atom_site_Wyckoff_symbol
_atom_site_fract_x
_atom_site_fract_y
_atom_site_fract_z
_atom_site_occupancy
_atom_site_attached_hydrogens
_atom_site_B_iso_or_equiv
Ca1 Ca2+ 2 i 0.7102 0.0039 0.975 1. 0 0.4 
Ca2 Ca2+ 2 i 0.3541 0.1525 0.6527 1. 0 0.45 
Ca3 Ca2+ 2 i 0.6751 0.3207 0.3351 1. 0 0.51 
Ca4 Ca2+ 2 i 0.8454 0.1667 0.1697 1. 0 0.4 
Ca5 Ca2+ 2 i 0.1908 0.3284 0.8152 1. 0 0.4 
Ca6 Ca2+ 2 i 0.3328 0.4107 0.6483 1. 0 0.45 
Ca7 Ca2+ 2 i 0.6476 0.0817 0.334 1. 0 0.25 
Ca8 Ca2+ 2 i 0.0536 0.1663 0.6176 1. 0 0.33 
Ca9 Ca2+ 2 i 0.6438 0.1808 0.7226 1. 0 0.43 
Ca10 Ca2+ 2 i 0.383 0.3474 0.3033 1. 0 0.33 
Ca11 Ca2+ 2 i 0.965 0.3339 0.3678 1. 0 0.32 
Ca12 Ca2+ 2 i 0.0498 0.3977 0.6244 1. 0 0.33 
Ca13 Ca2+ 2 i 0.3604 0.0547 0.2888 1. 0 0.3 
Ca14 Ca2+ 2 i 0.622 0.4145 0.7117 1. 0 0.51 
Ca15 Ca2+ 2 i 0.9682 0.1048 0.3762 1. 0 0.37 
Ca16 Ca2+ 2 i 0.4651 0.0913 0.8506 1. 0 0.37 
Ca17 Ca2+ 2 i 0.2141 0.2419 0.4658 1. 0 0.32 
Ca18 Ca2+ 2 i 0.804 0.2472 0.5175 1. 0 0.33 
Ca19 Ca2+ 2 i 0.5363 0.4148 0.1508 1. 0 0.27 
Ca20 Ca2+ 2 i 0.7012 0.488 0.9589 1. 0 0.28 
Ca21 Ca2+ 2 i 0.7241 0.2378 0.97 1. 0 0.31 
Ca22 Ca2+ 2 i 0.3039 0.2766 0.0251 1. 0 0.54 
Ca23 Ca2+ 2 i 0.8729 0.0824 0.8173 1. 0 0.3 
Ca24 Ca2+ 2 i 0.1371 0.4262 0.1848 1. 0 0.34 
Ca25 Ca2+ 2 i 0.0205 0.2604 0.9897 1. 0 0.5 
Ca26 Ca2+ 1 a 0 0 0 1. 0 0.41 
Ca27 Ca2+ 1 c 0 0.5 0 1. 0 0.3 
Ca28 Ca2+ 1 f 0.5 0 0.5 1. 0 0.13 
Ca29 Ca2+ 1 h 0.5 0.5 0.5 1. 0 0.12 
Si1 Si4+ 2 i 0.8322 0.4165 0.1646 1. 0 0.2 
Si2 Si4+ 2 i 0.4748 0.344 0.871 1. 0 0.21 
Si3 Si4+ 2 i 0.1616 0.08 0.8192 1. 0 0.14 
Si4 Si4+ 2 i 0.8002 0.0183 0.5467 1. 0 0.23 
Si5 Si4+ 2 i 0.1922 0.4972 0.4486 1. 0 0.25 
Si6 Si4+ 2 i 0.5221 0.1553 0.1222 1. 0 0.15 
Si7 Si4+ 2 i 0.1492 0.1806 0.2057 1. 0 0.17 
Si8 Si4+ 2 i 0.8709 0.3207 0.7842 1. 0 0.17 
Si9 Si4+ 2 i 0.4977 0.2486 0.5043 1. 0 0.23 
O1 O2- 2 i 0.0339 0.1943 0.2619 1. 0 0.41 
O2 O2- 2 i 0.5127 0.2655 0.1925 1. 0 0.67 
O3 O2- 2 i 0.6528 0.1486 0.0807 1. 0 0.62 
O4 O2- 2 i 0.1584 0.0685 0.1427 1. 0 0.59 
O5 O2- 2 i 0.2204 0.2685 0.6427 1. 0 0.34 
O6 O2- 2 i 0.5037 0.0541 0.6743 1. 0 0.31 
O7 O2- 2 i 0.4211 0.1297 0.0254 1. 0 0.6 
O8 O2- 2 i 0.2625 0.206 0.2903 1. 0 0.54 
O9 O2- 2 i 0.6673 0.0923 0.8532 1. 0 0.57 
O10 O2- 2 i 0.0105 0.2584 0.4944 1. 0 0.38 
O11 O2- 2 i 0.5133 0.0806 0.191 1. 0 0.45 
O12 O2- 2 i 0.1592 0.2553 0.1291 1. 0 0.55 
O13 O2- 2 i 0.8279 0.395 0.4729 1. 0 0.48 
O14 O2- 2 i 0.3124 0.4978 0.4018 1. 0 0.37 
O15 O2- 2 i 0.1825 0.4137 0.5105 1. 0 0.59 
O16 O2- 2 i 0.3379 0.4353 0.1771 1. 0 0.5 
O17 O2- 2 i 0.161 0.3931 0.986 1. 0 0.28 
O18 O2- 2 i 0.088 0.4729 0.356 1. 0 0.53 
O19 O2- 2 i 0.2777 0.0582 0.7617 1. 0 0.52 
O20 O2- 2 i 0.9492 0.4026 0.107 1. 0 0.59 
O21 O2- 2 i 0.161 0.1919 0.8857 1. 0 0.39 
O22 O2- 2 i 0.1468 0.0064 0.8928 1. 0 0.42 
O23 O2- 2 i 0.8031 0.1819 0.3337 1. 0 0.33 
O24 O2- 2 i 0.8955 0.1402 0.9995 1. 0 0.37 
O25 O2- 2 i 0.5583 0.4518 0.338 1. 0 0.46 
O26 O2- 2 i 0.0487 0.0587 0.7321 1. 0 0.4 
O27 O2- 2 i 0.6123 0.2397 0.446 1. 0 0.36 
O28 O2- 2 i 0.7683 0.0509 0.6645 1. 0 0.48 
O29 O2- 2 i 0.4446 0.3903 0.9879 1. 0 0.39 
O30 O2- 2 i 0.6109 0.3254 0.863 1. 0 0.57 
O31 O2- 2 i 0.9981 0.3075 0.7361 1. 0 0.49 
O32 O2- 2 i 0.6869 0.0169 0.4682 1. 0 0.83 
O33 O2- 2 i 0.8604 0.2449 0.8521 1. 0 0.52 
O34 O2- 2 i 0.7189 0.3952 0.086 1. 0 0.36 
O35 O2- 2 i 0.7741 0.3028 0.6875 1. 0 0.56 
O36 O2- 2 i 0.8915 0.0963 0.5267 1. 0 0.52 
O37 O2- 2 i 0.8639 0.4292 0.8575 1. 0 0.35 
O38 O2- 2 i 0.4144 0.1476 0.4653 1. 0 0.59 
O39 O2- 2 i 0.1459 0.0887 0.4737 1. 0 0.65 
O40 O2- 2 i 0.827 0.3351 0.2302 1. 0 0.43 
O41 O2- 2 i 0.3964 0.244 0.8327 1. 0 0.56 
O42 O2- 2 i 0.5193 0.2654 0.6264 1. 0 0.46 
O43 O2- 2 i 0.4178 0.3379 0.484 1. 0 0.42 
O44 O2- 2 i 0.182 0.4733 0.7596 1. 0 0.36 
O45 O2- 2 i 0.44 0.4192 0.8047 1. 0 0.41 

#End of data_4331-ICSD


