data_77277-ICSD
#?2014 by Fachinformationszentrum Karlsruhe, and the U.S. Secretary of 
#Commerce on behalf of the United States.  All rights reserved.
_database_code_ICSD                77277
_audit_creation_date               2003/04/01
_chemical_name_systematic
;
Potassium Diberyllium Borate Difluoride
;
_chemical_formula_structural       'K Be2 (B O3) F2'
_chemical_formula_sum              'B1 Be2 F2 K1 O3'
_publ_section_title                'Crystal structure of K Be2 B O3 F2'
loop_
_citation_id
_citation_journal_abbrev
_citation_year
_citation_journal_volume
_citation_page_first
_citation_page_last
_citation_journal_id_ASTM
primary 'Zeitschrift fuer Kristallographie (1979-2010)' 1995 210 93 95 ZEKRDZ
_publ_author_name
;
Mei, L.;Huang, X.;Wang, Y.;Wu, Q.;Wu, B.;Chen, C.
;
_cell_length_a                     4.427(4)
_cell_length_b                     4.427
_cell_length_c                     18.744(9)
_cell_angle_alpha                  90.
_cell_angle_beta                   90.
_cell_angle_gamma                  120.
_cell_volume                       318.14
_cell_formula_units_Z              3
_symmetry_space_group_name_H-M     'R 3 2 H'
_symmetry_Int_Tables_number        155
_refine_ls_R_factor_all            .031
loop_
_symmetry_equiv_pos_site_id
_symmetry_equiv_pos_as_xyz
  1	'-x, -x+y, -z'
  2	'x-y, -y, -z'
  3	'y, x, -z'
  4	'-x+y, -x, z'
  5	'-y, x-y, z'
  6	'x, y, z'
  7	'-x+.6666, -x+y+.3333, -z+.3333'
  8	'-x+.3333, -x+y+.6666, -z+.6666'
  9	'x-y+.6666, -y+.3333, -z+.3333'
 10	'x-y+.3333, -y+.6666, -z+.6666'
 11	'y+.6666, x+.3333, -z+.3333'
 12	'y+.3333, x+.6666, -z+.6666'
 13	'-x+y+.6666, -x+.3333, z+.3333'
 14	'-x+y+.3333, -x+.6666, z+.6666'
 15	'-y+.6666, x-y+.3333, z+.3333'
 16	'-y+.3333, x-y+.6666, z+.6666'
 17	'x+.6666, y+.3333, z+.3333'
 18	'x+.3333, y+.6666, z+.6666'
loop_
_atom_type_symbol
_atom_type_oxidation_number
B3+	3
Be2+	2
F1-	-1
K1+	1
O2-	-2
loop_
_atom_site_label
_atom_site_type_symbol
_atom_site_symmetry_multiplicity
_atom_site_Wyckoff_symbol
_atom_site_fract_x
_atom_site_fract_y
_atom_site_fract_z
_atom_site_occupancy
_atom_site_attached_hydrogens
_atom_site_B_iso_or_equiv
K1 K1+ 3 a 0 0 0 1. 0 1.82(2) 
Be1 Be2+ 6 c 0 0 0.8026(1) 1. 0 0.85(4) 
B1 B3+ 3 b 0 0 0.5 1. 0 0.85(5) 
O1 O2- 9 e 0.6906(3) 0 0.5 1. 0 1.12(4) 
F1 F1- 6 c 0 0 0.72152(7) 1. 0 1.80(4) 

loop_
_atom_site_aniso_label
_atom_site_aniso_type_symbol
_atom_site_aniso_U_11
_atom_site_aniso_U_22
_atom_site_aniso_U_33
_atom_site_aniso_U_12
_atom_site_aniso_U_13
_atom_site_aniso_U_23
K1 K1+ 0.0236(4) 0.0236 0.0219(3) 0.0118 0 0
B1 B3+ 0.0098(8) 0.0098 0.013(1) 0.0049 0 0
O1 O2- 0.0104(4) 0.0097(4) 0.0221(6) 0.0049 0.0025(4) 0.005
F1 F1- 0.0279(6) 0.0279 0.0125(5) 0.01395 0 0
#End of data_77277-ICSD


