data_413637-ICSD
#?2014 by Fachinformationszentrum Karlsruhe, and the U.S. Secretary of 
#Commerce on behalf of the United States.  All rights reserved.
_database_code_ICSD                413637
_audit_creation_date               2006/10/01
_audit_update_record               2013/08/01
_chemical_name_systematic
;
Trizinc Bis(orthophosphate) Tetrahydrate
;
_chemical_formula_structural       'Zn3 (P O4)2 (H2 O)4'
_chemical_formula_sum              'H8 O12 P2 Zn3'
_chemical_name_mineral             'Hopeite alpha'
_publ_section_title
;
The role of hydrogen bonding in the crystal structures of zinc 
phosphate hydrates
;
loop_
_citation_id
_citation_journal_abbrev
_citation_year
_citation_journal_volume
_citation_page_first
_citation_page_last
_citation_journal_id_ASTM
primary 'Chemistry - A European Journal' 2004 10 2795 2803 CEUJED
_publ_author_name
;
Herschke, L.;Enkelmann, V.;Lieberwirth, I.;Wegner, G.
;
_cell_length_a                     5.0140(3)
_cell_length_b                     10.6040(5)
_cell_length_c                     18.2830(7)
_cell_angle_alpha                  90
_cell_angle_beta                   90
_cell_angle_gamma                  90
_cell_volume                       972.08
_cell_formula_units_Z              4
_symmetry_space_group_name_H-M     'P b n m'
_symmetry_Int_Tables_number        62
_refine_ls_R_factor_all            .0277
loop_
_symmetry_equiv_pos_site_id
_symmetry_equiv_pos_as_xyz
  1	'-x+.5, y+.5, z'
  2	'x, y, -z+.5'
  3	'x+.5, -y+.5, z+.5'
  4	'-x, -y, -z'
  5	'x+.5, -y+.5, -z'
  6	'-x, -y, z+.5'
  7	'-x+.5, y+.5, -z+.5'
  8	'x, y, z'
loop_
_atom_type_symbol
_atom_type_oxidation_number
H1+	1
O2-	-2
P5+	5
Zn2+	2
loop_
_atom_site_label
_atom_site_type_symbol
_atom_site_symmetry_multiplicity
_atom_site_Wyckoff_symbol
_atom_site_fract_x
_atom_site_fract_y
_atom_site_fract_z
_atom_site_occupancy
_atom_site_attached_hydrogens
_atom_site_U_iso_or_equiv
Zn1 Zn2+ 8 d 1.20717(8) 0.14307(4) -0.00067(3) 1.0000 0 0.0117 
O1 O2- 8 d 0.8577(6) 0.1978(3) 0.03995(16) 1.0000 0 0.0144 
P1 P5+ 8 d 0.7245(2) 0.1026(1) 0.09440(5) 1.0000 0 0.0116 
O2 O2- 8 d 1.1445(7) 0.0251(3) -0.07816(16) 1.0000 0 0.0190 
O3 O2- 8 d 1.4258(6) 0.1007(4) 0.08039(17) 1.0000 0 0.0259 
O4 O2- 8 d 0.7859(6) 0.1394(3) 0.17282(17) 1.0000 0 0.0197 
Zn2 Zn2+ 4 c 0.57418(14) 0.23703(6) 0.2500 1.0000 0 0.0131 
O5 O2- 4 c 0.2590(9) 0.1073(4) 0.25000(1) 1.0000 0 0.0175 
H1 H1+ 8 d 0.1044(9) 0.1004(4) 0.30067(1) 1.0000 0 0.0500 
O6 O2- 4 c 0.8517(9) 0.3851(4) 0.250000(6) 1.0000 0 0.0223 
H2 H1+ 4 c 0.9960(9) 0.3675(4) 0.250000(6) 1.0000 0 0.0500 
H3 H1+ 4 c 0.8410(9) 0.4597(4) 0.250000(6) 1.0000 0 0.0500 
O7 O2- 8 d 0.3367(7) 0.3365(3) 0.16948(19) 1.0000 0 0.0231 
H4 H1+ 8 d 0.4353(7) 0.3818(3) 0.14014(19) 1.0000 0 0.0500 
H5 H1+ 8 d 0.3650(7) 0.2623(3) 0.14142(19) 1.0000 0 0.0500 

loop_
_atom_site_aniso_label
_atom_site_aniso_type_symbol
_atom_site_aniso_U_11
_atom_site_aniso_U_22
_atom_site_aniso_U_33
_atom_site_aniso_U_12
_atom_site_aniso_U_13
_atom_site_aniso_U_23
Zn1 Zn2+ 0.0112(2) 0.01066(19) 0.01319(19) 0.00021(15) -0.00067(18) 
-0.00092(17)
O1 O2- 0.0156(13) 0.0124(12) 0.0152(14) 0.001(1) 0.001(1) 0.003(1)
P1 P5+ 0.0113(4) 0.0145(4) 0.0090(4) 0.0003(4) -0.0005(4) 0.0003(3)
O2 O2- 0.0339(18) 0.0105(11) 0.0125(13) 0.0019(12) -0.0040(12) -0.002(1)
O3 O2- 0.0095(12) 0.055(2) 0.0131(14) -0.0048(17) -0.0027(11) 0.0096(14)
O4 O2- 0.0180(15) 0.0284(15) 0.0128(12) 0.0087(13) -0.0027(12) -0.0063(12)
Zn2 Zn2+ 0.0124(3) 0.0107(3) 0.0161(3) 0.0009(3) 0.0000 0.0000
O5 O2- 0.0154(19) 0.0158(17) 0.0213(19) -0.0032(18) 0.0000 0.0000
O6 O2- 0.018(2) 0.0123(17) 0.037(3) 0.0002(18) 0.0000 0.0000
O7 O2- 0.0319(19) 0.0188(14) 0.0185(14) 0.0021(13) -0.0011(13) 0.0062(12)
#End of data_413637-ICSD


