data_200908-ICSD
#?2014 by Fachinformationszentrum Karlsruhe, and the U.S. Secretary of 
#Commerce on behalf of the United States.  All rights reserved.
_database_code_ICSD                200908
_audit_creation_date               1980/01/01
_audit_update_record               1984/11/02
_chemical_name_systematic
;
Dipotassium Tetranitroplatinate(II) - Orange Crystal
;
_chemical_formula_structural       'K2 (Pt (N O2)4)'
_chemical_formula_sum              'K2 N4 O8 Pt1'
_publ_section_title
;
Crystal structure of potassium tetranitroplatinate
;
loop_
_citation_id
_citation_journal_abbrev
_citation_year
_citation_journal_volume
_citation_page_first
_citation_page_last
_citation_journal_id_ASTM
primary 'Koordinatsionnaya Khimiya (= Coordination Chemistry (USSR))'
 1978 4 1435 1440 KOKHDC
_publ_author_name
;
Porai Koshits, M.A.;Kukina, G.A.;Nikolaev, V.P.
;
_cell_length_a                     7.771(2)
_cell_length_b                     12.795(4)
_cell_length_c                     9.219(2)
_cell_angle_alpha                  90.
_cell_angle_beta                   95.93(2)
_cell_angle_gamma                  90.
_cell_volume                       911.74
_cell_formula_units_Z              4
_symmetry_space_group_name_H-M     'P 1 21/a 1'
_symmetry_Int_Tables_number        14
_refine_ls_R_factor_all            .052
loop_
_symmetry_equiv_pos_site_id
_symmetry_equiv_pos_as_xyz
  1	'x+.5, -y+.5, z'
  2	'-x, -y, -z'
  3	'-x+.5, y+.5, -z'
  4	'x, y, z'
loop_
_atom_type_symbol
_atom_type_oxidation_number
K1+	1
N3+	3
O2-	-2
Pt2+	2
loop_
_atom_site_label
_atom_site_type_symbol
_atom_site_symmetry_multiplicity
_atom_site_Wyckoff_symbol
_atom_site_fract_x
_atom_site_fract_y
_atom_site_fract_z
_atom_site_occupancy
_atom_site_attached_hydrogens
_atom_site_B_iso_or_equiv
K1 K1+ 4 e 0.4191(5) 0.1562(3) 0.1875(7) 1. 0 1.68 
K2 K1+ 4 e 0.1499(5) 0.3194(3) 0.6584(7) 1. 0 1.56 
Pt1 Pt2+ 2 a 0 0 0 1. 0 0.95 
Pt2 Pt2+ 2 d 0 0 0.5 1. 0 0.88 
N1 N3+ 4 e 0.0676(17) 0.1300(11) -.1052(23) 1. 0 1.3 
N2 N3+ 4 e 0.2357(17) -.0704(11) -.0171(23) 1. 0 1.4 
N3 N3+ 4 e -.2550(17) -.0258(11) 0.4155(23) 1. 0 1.7 
N4 N3+ 4 e 0.0059(17) 0.1406(11) 0.4002(23) 1. 0 1.2 
O1 O2- 4 e 0.2063(17) 0.1754(11) -.0666(23) 1. 0 2.9 
O2 O2- 4 e -.0291(17) 0.1661(11) -.2065(23) 1. 0 2.2 
O3 O2- 4 e 0.3588(17) -.0520(11) 0.0816(23) 1. 0 2.7 
O4 O2- 4 e 0.2486(17) -.1253(11) -.1166(23) 1. 0 2.6 
O5 O2- 4 e -.3584(17) 0.0492(11) 0.4076(23) 1. 0 2.6 
O6 O2- 4 e -.2932(17) -.1131(11) 0.3860(23) 1. 0 1.9 
O7 O2- 4 e -.0769(17) 0.2153(11) 0.4405(23) 1. 0 1.7 
O8 O2- 4 e 0.1046(17) 0.1530(11) 0.3012(23) 1. 0 2.1 

#End of data_200908-ICSD


