data_417353-ICSD
#?2014 by Fachinformationszentrum Karlsruhe, and the U.S. Secretary of 
#Commerce on behalf of the United States.  All rights reserved.
_database_code_ICSD                417353
_audit_creation_date               2008/02/01
_chemical_name_systematic          'Tetrasilver Pentaoxotellurate(VI)'
_chemical_formula_structural       'Ag4 (Te O5)'
_chemical_formula_sum              'Ag4 O5 Te1'
_publ_section_title
;
New silver tellurates - the crystal structures of a third 
modification of Ag2 T2 O6 and of Ag4 Te O5
;
loop_
_citation_id
_citation_journal_abbrev
_citation_year
_citation_journal_volume
_citation_journal_issue
_citation_page_first
_citation_page_last
_citation_journal_id_ASTM
primary 'Zeitschrift fuer Anorganische und Allgemeine Chemie (1950) (DE)'
 2007 633 8 1217 1222 ZAACAB
_publ_author_name                  'Weil, M.'
_cell_length_a                     16.271(2)
_cell_length_b                     6.0874(10)
_cell_length_c                     11.4373(16)
_cell_angle_alpha                  90.00
_cell_angle_beta                   106.730(10)
_cell_angle_gamma                  90.00
_cell_volume                       1084.89
_cell_formula_units_Z              8
_symmetry_space_group_name_H-M     'C 1 2/c 1'
_symmetry_Int_Tables_number        15
_refine_ls_R_factor_all            .034
loop_
_symmetry_equiv_pos_site_id
_symmetry_equiv_pos_as_xyz
  1	'x, -y, z+.5'
  2	'-x, -y, -z'
  3	'-x, y, -z+.5'
  4	'x, y, z'
  5	'x+.5, -y+.5, z+.5'
  6	'-x+.5, -y+.5, -z'
  7	'-x+.5, y+.5, -z+.5'
  8	'x+.5, y+.5, z'
loop_
_atom_type_symbol
_atom_type_oxidation_number
Ag1+	1
O2-	-2
Te6+	6
loop_
_atom_site_label
_atom_site_type_symbol
_atom_site_symmetry_multiplicity
_atom_site_Wyckoff_symbol
_atom_site_fract_x
_atom_site_fract_y
_atom_site_fract_z
_atom_site_occupancy
_atom_site_attached_hydrogens
_atom_site_U_iso_or_equiv
Ag1 Ag1+ 8 f 0.05674(2) 0.24033(5) 0.01282(4) 1 0 0.02445(9) 
Ag2 Ag1+ 8 f 0.19787(2) 0.11032(7) 0.23203(3) 1 0 0.02518(10) 
Ag3 Ag1+ 8 f 0.40674(2) 0.11067(7) 0.25279(3) 1 0 0.02652(9) 
Ag4 Ag1+ 4 e 0.0000 0.07638(9) 0.2500 1 0 0.02148(11) 
Ag5 Ag1+ 4 c 0.2500 0.2500 0.0000 1 0 0.03349(14) 
Te1 Te6+ 8 f 0.151124(12) 0.26573(4) 0.496995(18) 1 0 0.00913(8) 
O1 O2- 8 f 0.05827(17) 0.4235(5) 0.3925(3) 1 0 0.0174(5) 
O2 O2- 8 f 0.09333(17) 0.1315(5) 0.6017(3) 1 0 0.0160(5) 
O3 O2- 8 f 0.12669(17) 0.0171(5) 0.3911(3) 1 0 0.0163(5) 
O4 O2- 8 f 0.17939(18) 0.4906(5) 0.1064(3) 1 0 0.0169(5) 
O5 O2- 8 f 0.23554(16) 0.3762(4) 0.4089(2) 1 0 0.0122(4) 

loop_
_atom_site_aniso_label
_atom_site_aniso_type_symbol
_atom_site_aniso_U_11
_atom_site_aniso_U_22
_atom_site_aniso_U_33
_atom_site_aniso_U_12
_atom_site_aniso_U_13
_atom_site_aniso_U_23
Ag1 Ag1+ 0.01502(14) 0.01528(15) 0.0420(2) -0.00040(9) 0.00656(12) 
0.00243(12)
Ag2 Ag1+ 0.02246(15) 0.03580(19) 0.01516(14) -0.00203(12) 0.00205(10) 
-0.01001(12)
Ag3 Ag1+ 0.02540(16) 0.0355(2) 0.02092(15) -0.00117(12) 0.01022(12) 
-0.01191(12)
Ag4 Ag1+ 0.01406(17) 0.0291(2) 0.01666(18) 0.000 -0.00299(13) 0.000
Ag5 Ag1+ 0.0324(3) 0.00999(18) 0.0666(4) 0.00142(15) 0.0279(3) -0.00137(19)
Te1 Te6+ 0.00820(10) 0.00986(11) 0.00889(11) -0.00001(6) 0.00175(7) 
0.00033(6)
O1 O2- 0.0120(10) 0.0220(13) 0.0168(11) 0.0050(9) 0.0018(9) 0.0064(10)
O2 O2- 0.0148(11) 0.0187(12) 0.0170(11) -0.0009(9) 0.0082(9) 0.0034(9)
O3 O2- 0.0142(10) 0.0146(11) 0.0182(11) -0.0022(9) 0.0015(9) -0.0062(9)
O4 O2- 0.0184(11) 0.0132(11) 0.0194(12) 0.0001(9) 0.0057(9) 0.0058(9)
O5 O2- 0.0099(9) 0.0153(11) 0.0113(10) 0.0017(8) 0.0028(7) 0.0041(8)
#End of data_417353-ICSD


