data_83259-ICSD
#?2014 by Fachinformationszentrum Karlsruhe, and the U.S. Secretary of 
#Commerce on behalf of the United States.  All rights reserved.
_database_code_ICSD                83259
_audit_creation_date               1998/06/26
_audit_update_record               2005/10/01
_chemical_name_systematic
;
Dicalcium Palladium Tungstate - Alpha
;
_chemical_formula_structural       'Ca2 Pd (W O6)'
_chemical_formula_sum              'Ca2 O6 Pd1 W1'
_publ_section_title
;
Phase transition, phase transition temperature and crystal structure 
of a new compound - Ca2 Pd W O6
;
loop_
_citation_id
_citation_journal_abbrev
_citation_year
_citation_journal_volume
_citation_journal_issue
_citation_page_first
_citation_page_last
_citation_journal_id_ASTM
primary 'Science in China' 1996 39 9 981 990 SCAAFF
2 'Golden Book of Phase Transitions, Wroclaw' 2002 1- 1 123 GBOPT5
_publ_author_name                  'Fu, Z.-M.;Li, W.-X.'
_cell_length_a                     7.9946(1)
_cell_length_b                     5.5404(1)
_cell_length_c                     5.8008(1)
_cell_angle_alpha                  90.
_cell_angle_beta                   90.
_cell_angle_gamma                  90.
_cell_volume                       256.94
_cell_formula_units_Z              2
_symmetry_space_group_name_H-M     'P m m 2'
_symmetry_Int_Tables_number        25
_refine_ls_R_factor_all            .11
loop_
_symmetry_equiv_pos_site_id
_symmetry_equiv_pos_as_xyz
  1	'-x, y, z'
  2	'x, -y, z'
  3	'-x, -y, z'
  4	'x, y, z'
loop_
_atom_type_symbol
_atom_type_oxidation_number
Ca2+	2
O2-	-2
Pd2+	2
W6+	6
loop_
_atom_site_label
_atom_site_type_symbol
_atom_site_symmetry_multiplicity
_atom_site_Wyckoff_symbol
_atom_site_fract_x
_atom_site_fract_y
_atom_site_fract_z
_atom_site_occupancy
_atom_site_attached_hydrogens
_atom_site_B_iso_or_equiv
Ca1 Ca2+ 2 e 0.26 0 0.5 1. 0 6.4 
Ca2 Ca2+ 2 f 0.25 0.5 0.01 1. 0 6.4 
Pd1 Pd2+ 1 b 0 0.5 0.47 1. 0 6.4 
Pd2 Pd2+ 1 c 0.5 0 0 1. 0 6.4 
W1 W6+ 1 a 0 0 0.97 1. 0 6.4 
W2 W6+ 1 d 0.5 0.5 0.5 1. 0 6.4 
O1 O2- 2 g 0 0.23 0.18 1. 0 6.4 
O2 O2- 2 g 0 0.77 0.72 1. 0 6.4 
O3 O2- 2 h 0.5 0.27 0.27 1. 0 6.4 
O4 O2- 2 h 0.5 0.27 0.73 1. 0 6.4 
O5 O2- 2 e 0.23 0 0.95 1. 0 6.4 
O6 O2- 2 f 0.27 0.5 0.5 1. 0 6.4 

#End of data_83259-ICSD


