data_14181-ICSD
#?2014 by Fachinformationszentrum Karlsruhe, and the U.S. Secretary of 
#Commerce on behalf of the United States.  All rights reserved.
_database_code_ICSD                14181
_audit_creation_date               1980/12/31
_chemical_name_systematic
;
Bis(chlorosulfur)nitrogen Tetrachloroaluminate
;
_chemical_formula_structural       'N (S Cl)2 Al Cl4'
_chemical_formula_sum              'Al1 Cl6 N1 S2'
_publ_section_title
;
Ueber das Bis(chlorschwefel)stickstoff-Kation N (S Cl)2
;
loop_
_citation_id
_citation_journal_abbrev
_citation_year
_citation_journal_volume
_citation_page_first
_citation_page_last
_citation_journal_id_ASTM
primary
;
Zeitschrift fuer Naturforschung, Teil B. Anorganische Chemie, 
Organische Chemie (33,1978-41,1986)
;
 1980 35 657 660 ZNBAD2
_publ_author_name
;
Glemser, O.;Kindler, E.;Krebs, B.;Mews, R.;Schnepel, F.M.;Wegener, J.
;
_cell_length_a                     12.725(3)
_cell_length_b                     13.568(3)
_cell_length_c                     6.200(2)
_cell_angle_alpha                  90.
_cell_angle_beta                   97.33(3)
_cell_angle_gamma                  90.
_cell_volume                       1061.7
_cell_formula_units_Z              4
_symmetry_space_group_name_H-M     'P 1 21/m 1'
_symmetry_Int_Tables_number        11
_refine_ls_R_factor_all            .029
loop_
_symmetry_equiv_pos_site_id
_symmetry_equiv_pos_as_xyz
  1	'x, -y+.5, z'
  2	'-x, -y, -z'
  3	'-x, y+.5, -z'
  4	'x, y, z'
loop_
_atom_type_symbol
_atom_type_oxidation_number
Al3+	3
Cl1-	-1
N2+	2
S.5+	.5
loop_
_atom_site_label
_atom_site_type_symbol
_atom_site_symmetry_multiplicity
_atom_site_Wyckoff_symbol
_atom_site_fract_x
_atom_site_fract_y
_atom_site_fract_z
_atom_site_occupancy
_atom_site_attached_hydrogens
N1 N2+ 4 f 0.25608(15) -.05492(14) 0.26807(33) 1. 0 
S1 S.5+ 4 f 0.16332(5) -.09566(5) 0.37538(12) 1. 0 
S2 S.5+ 4 f 0.34409(5) 0.02053(5) 0.25619(12) 1. 0 
Cl1 Cl1- 4 f 0.13784(5) -.01328(6) 0.63050(11) 1. 0 
Cl2 Cl1- 4 f 0.34916(6) 0.11535(6) 0.50149(13) 1. 0 
Al1 Al3+ 2 e 0.01869(7) 0.25 0.16541(15) 1. 0 
Al2 Al3+ 2 e 0.53504(7) 0.25 0.01358(16) 1. 0 
Cl3 Cl1- 2 e 0.03286(8) 0.25 0.51118(14) 1. 0 
Cl4 Cl1- 2 e -.14637(7) 0.25 0.04268(17) 1. 0 
Cl5 Cl1- 4 f 0.08864(5) 0.12027(5) 0.05540(11) 1. 0 
Cl6 Cl1- 2 e 0.36538(7) 0.25 -.02303(17) 1. 0 
Cl7 Cl1- 2 e 0.58539(7) 0.25 -.29977(14) 1. 0 
Cl8 Cl1- 4 f 0.59002(5) 0.11815(5) 0.18093(11) 1. 0 

loop_
_atom_site_aniso_label
_atom_site_aniso_type_symbol
_atom_site_aniso_B_11
_atom_site_aniso_B_22
_atom_site_aniso_B_33
_atom_site_aniso_B_12
_atom_site_aniso_B_13
_atom_site_aniso_B_23
N1 N2+ 3.55(9) 2.75(9) 4.27(9) 0.07(7) 0.68(8) -.46(8)
S1 S.5+ 4.15(3) 3.21(3) 5.24(4) -.76(2) 1.43(3) -.70(3)
S2 S.5+ 4.23(3) 3.82(3) 4.94(4) -.99(3) 1.40(3) -.56(3)
Cl1 Cl1- 4.92(3) 4.64(4) 4.33(3) 0.29(3) 1.59(3) -.26(3)
Cl2 Cl1- 7.24(4) 4.09(3) 5.21(4) -2.30(3) 0.70(3) -1.05(3)
Al1 Al3+ 2.76(4) 2.29(4) 2.48(4) 0 0.35(3) 0
Al2 Al3+ 2.81(4) 2.58(4) 2.65(4) 0 0.51(3) 0
Cl3 Cl1- 6.16(5) 4.25(5) 2.48(4) 0 0.65(4) 0
Cl4 Cl1- 2.78(4) 4.19(4) 5.56(5) 0 -.20(3) 0
Cl5 Cl1- 5.55(3) 3.60(3) 4.10(3) 1.70(3) 0.94(3) -.36(3)
Cl6 Cl1- 2.77(4) 5.33(5) 4.87(5) 0 0.77(3) 0
Cl7 Cl1- 3.66(4) 4.10(4) 2.66(3) 0 0.67(3) 0
Cl8 Cl1- 4.83(3) 3.24(3) 3.88(3) 0.68(2) 0.81(2) 0.84(2)
#End of data_14181-ICSD


