data_71803-ICSD
#?2014 by Fachinformationszentrum Karlsruhe, and the U.S. Secretary of 
#Commerce on behalf of the United States.  All rights reserved.
_database_code_ICSD                71803
_audit_creation_date               1993/08/22
_chemical_name_systematic
;
Tripotassium Neodymium Phyllo-hexasilicate
;
_chemical_formula_structural       'K3 Nd (Si6 O15)'
_chemical_formula_sum              'K3 Nd1 O15 Si6'
_publ_section_title
;
Synthesis, structure and ionic conductivity of K3NdSi6O15
;
loop_
_citation_id
_citation_journal_abbrev
_citation_year
_citation_journal_volume
_citation_page_first
_citation_page_last
_citation_journal_id_ASTM
primary 'Materials Research Society Symposia Proceedings'
 1991 210 645 650 MRSPDH
_publ_author_name
;
Haile, S.M.;Siegrist, T.;Laudise, R.A.;Wuensch, B.J.
;
_cell_length_a                     15.951(5)
_cell_length_b                     14.909(4)
_cell_length_c                     7.260(2)
_cell_angle_alpha                  90.
_cell_angle_beta                   90.
_cell_angle_gamma                  90.
_cell_volume                       1726.53
_cell_formula_units_Z              4
_symmetry_space_group_name_H-M     'P b a m'
_symmetry_Int_Tables_number        55
_refine_ls_R_factor_all            .083
loop_
_symmetry_equiv_pos_site_id
_symmetry_equiv_pos_as_xyz
  1	'x+.5, -y+.5, z'
  2	'-x+.5, y+.5, z'
  3	'x, y, -z'
  4	'-x, -y, -z'
  5	'-x+.5, y+.5, -z'
  6	'x+.5, -y+.5, -z'
  7	'-x, -y, z'
  8	'x, y, z'
loop_
_atom_type_symbol
_atom_type_oxidation_number
K1+	1
Nd3+	3
O2-	-2
Si4+	4
loop_
_atom_site_label
_atom_site_type_symbol
_atom_site_symmetry_multiplicity
_atom_site_Wyckoff_symbol
_atom_site_fract_x
_atom_site_fract_y
_atom_site_fract_z
_atom_site_occupancy
_atom_site_attached_hydrogens
_atom_site_U_iso_or_equiv
Nd1 Nd3+ 2 a 0 0 0 1. 0 0 
Nd2 Nd3+ 2 c 0.5 0 0 1. 0 0 
K1 K1+ 4 g 0.2911(6) 0.3780(6) 0 1. 0 0 
K2 K1+ 4 h 0.1550(5) 0.1558(7) 0.5 1. 0 0 
K3 K1+ 4 h 0.0700(4) 0.4111(5) 0.5 1. 0 0 
Si1 Si4+ 4 g 0.2104(3) 0.1273(3) 0 1. 0 0.0055(8) 
Si2 Si4+ 8 i 0.3551(2) 0.1359(2) 0.2864(5) 1. 0 0.0069(6) 
Si3 Si4+ 4 g 0.0913(3) 0.2802(3) 0 1. 0 0.0077(9) 
Si4 Si4+ 8 i 0.4632(2) 0.2989(2) 0.2824(5) 1. 0 0.0098(7) 
O1 O2- 8 i 0.0434(7) 0.2446(8) 0.183(2) 1. 0 0.024(2) 
O2 O2- 4 g 0.100(1) 0.385(1) 0 1. 0 0.022(3) 
O3 O2- 4 g 0.183(1) 0.233(1) 0 1. 0 0.017(3) 
O4 O2- 4 g 0.1364(8) 0.0604(8) 0 1. 0 0.006(2) 
O5 O2- 8 i 0.2675(7) 0.1144(7) 0.181(2) 1. 0 0.020(2) 
O6 O2- 4 h 0.3268(9) 0.131(1) 0.5 1. 0 0.016(3) 
O7 O2- 8 i 0.4288(7) 0.0691(7) 0.246(2) 1. 0 0.018(2) 
O8 O2- 8 i 0.3802(6) 0.2391(6) 0.242(2) 1. 0 0.012(2) 
O9 O2- 8 i 0.4484(6) 0.3978(7) 0.219(2) 1. 0 0.017(2) 
O10 O2- 4 h 0.4861(9) 0.286(1) 0.5 1. 0 0.015(3) 

loop_
_atom_site_aniso_label
_atom_site_aniso_type_symbol
_atom_site_aniso_U_11
_atom_site_aniso_U_22
_atom_site_aniso_U_33
_atom_site_aniso_U_12
_atom_site_aniso_U_13
_atom_site_aniso_U_23
Nd1 Nd3+ 0.0060(6) 0.0047(6) 0.0092(6) -.0014(4) 0 0
Nd2 Nd3+ 0.0116(6) 0.0078(6) 0.0110(7) 0.0022(5) 0 0
K1 K1+ 0.059(5) 0.054(5) 0.104(8) -.039(4) 0 0
K2 K1+ 0.043(4) 0.070(6) 0.061(5) 0.009(4) 0 0
K3 K1+ 0.032(3) 0.040(4) 0.076(6) -.004(3) 0 0
#End of data_71803-ICSD


