data_80294-ICSD
#?2014 by Fachinformationszentrum Karlsruhe, and the U.S. Secretary of 
#Commerce on behalf of the United States.  All rights reserved.
_database_code_ICSD                80294
_audit_creation_date               1996/10/14
_audit_update_record               2003/04/01
_chemical_name_systematic          'Calcium Diyttrium Sulfide'
_chemical_formula_structural       'Ca Y2 S4'
_chemical_formula_sum              'Ca1 S4 Y2'
_publ_section_title
;
The ternary yttrium sulfides, Ca Y2 S4, Sr Y2 S4, and Ba Y2 S4: 
structures and properties
;
loop_
_citation_id
_citation_journal_abbrev
_citation_year
_citation_journal_volume
_citation_page_first
_citation_page_last
_citation_journal_id_ASTM
primary 'Journal of Solid State Chemistry' 1995 117 363 372 JSSCBI
_publ_author_name
;
Lowe-Ma, C.K.;Vanderah, T.A.;Smith, T.E.
;
_cell_length_a                     12.953(3)
_cell_length_b                     3.8835(5)
_cell_length_c                     13.081(3)
_cell_angle_alpha                  90.
_cell_angle_beta                   90.
_cell_angle_gamma                  90.
_cell_volume                       658.01
_cell_formula_units_Z              4
_symmetry_space_group_name_H-M     'P n m a'
_symmetry_Int_Tables_number        62
_refine_ls_R_factor_all            .045
loop_
_symmetry_equiv_pos_site_id
_symmetry_equiv_pos_as_xyz
  1	'x+.5, y, -z+.5'
  2	'x, -y+.5, z'
  3	'-x+.5, y+.5, z+.5'
  4	'-x, -y, -z'
  5	'-x+.5, -y, z+.5'
  6	'-x, y+.5, -z'
  7	'x+.5, -y+.5, -z+.5'
  8	'x, y, z'
loop_
_atom_type_symbol
_atom_type_oxidation_number
Ca2+	2
S2-	-2
Y3+	3
loop_
_atom_site_label
_atom_site_type_symbol
_atom_site_symmetry_multiplicity
_atom_site_Wyckoff_symbol
_atom_site_fract_x
_atom_site_fract_y
_atom_site_fract_z
_atom_site_occupancy
_atom_site_attached_hydrogens
Ca1 Ca2+ 4 c 0.36912(7) 0.25 0.41743(8) 1. 0 
Y1 Y3+ 4 c 0.39197(4) 0.75 0.08311(4) 1. 0 
Y2 Y3+ 4 c 0.35446(4) 0.75 0.70405(4) 1. 0 
S1 S2- 4 c 0.21771(10) 0.25 0.76401(11) 1. 0 
S2 S2- 4 c 0.03318(10) 0.25 0.38235(10) 1. 0 
S3 S2- 4 c 0.24491(10) 0.75 0.52559(11) 1. 0 
S4 S2- 4 c 0.47203(10) 0.25 0.61759(11) 1. 0 

loop_
_atom_site_aniso_label
_atom_site_aniso_type_symbol
_atom_site_aniso_U_11
_atom_site_aniso_U_22
_atom_site_aniso_U_33
_atom_site_aniso_U_12
_atom_site_aniso_U_13
_atom_site_aniso_U_23
Ca1 Ca2+ 0.0040(3) 0.0076(3) 0.0198(4) 0 0.0017(3) 0
Y1 Y3+ 0.0056(2) 0.0094(2) 0.0222(3) 0 0.0011(2) 0
Y2 Y3+ 0.0050(2) 0.0092(2) 0.0191(2) 0 -0.0002(2) 0
S1 S2- 0.0067(4) 0.0112(5) 0.0196(5) 0 0.0010(4) 0
S2 S2- 0.0069(4) 0.0121(5) 0.0182(5) 0 0.0026(4) 0
S3 S2- 0.0051(4) 0.0096(5) 0.0185(5) 0 -0.0007(4) 0
S4 S2- 0.0050(4) 0.0101(5) 0.0232(5) 0 0.0022(4) 0
#End of data_80294-ICSD


