data_130053-ICSD
#?2014 by Fachinformationszentrum Karlsruhe, and the U.S. Secretary of 
#Commerce on behalf of the United States.  All rights reserved.
_database_code_ICSD                130053
_audit_creation_date               2013/02/01
_chemical_name_systematic          'Calcium Zirconate'
_chemical_formula_structural       'Ca (Zr O3)'
_chemical_formula_sum              'Ca1 O3 Zr1'
_publ_section_title
;
Stability of phases Ca Zr O3 and Ca Zr4 O9 incorpotated in the system 
CaO-ZrO2
;
loop_
_citation_id
_citation_journal_abbrev
_citation_year
_citation_journal_volume
_citation_page_first
_citation_page_last
_citation_journal_id_ASTM
primary 'Journal of Solid State Chemistry' 1989 79 218 231 JSSCBI
2 'Phase Transition' 1992 38 127 220 PHTRDP
_publ_author_name                  'Dwivedi, A.;Cormack, A.N.'
_cell_length_a                     5.667
_cell_length_b                     7.8545
_cell_length_c                     5.514
_cell_angle_alpha                  90.
_cell_angle_beta                   90.
_cell_angle_gamma                  90.
_cell_volume                       245.44
_cell_formula_units_Z              4
_symmetry_space_group_name_H-M     'P c m n'
_symmetry_Int_Tables_number        62
loop_
_symmetry_equiv_pos_site_id
_symmetry_equiv_pos_as_xyz
  1	'-x+.5, y, z+.5'
  2	'x, -y+.5, z'
  3	'x+.5, y+.5, -z+.5'
  4	'-x, -y, -z'
  5	'x+.5, -y, -z+.5'
  6	'-x, y+.5, -z'
  7	'-x+.5, -y+.5, z+.5'
  8	'x, y, z'
loop_
_atom_type_symbol
_atom_type_oxidation_number
Ca2+	2
O2-	-2
Zr4+	4
loop_
_atom_site_label
_atom_site_type_symbol
_atom_site_symmetry_multiplicity
_atom_site_Wyckoff_symbol
_atom_site_fract_x
_atom_site_fract_y
_atom_site_fract_z
_atom_site_occupancy
_atom_site_attached_hydrogens
Ca1 Ca2+ 4 c 0.0030 0.25 0.0148 1. 0 
Zr1 Zr4+ 4 b 0.5 0 0 1. 0 
O1 O2- 4 c 0.5727 0.25 -0.0205 1. 0 
O2 O2- 8 d 0.3026(2) 0.0374 0.2849 1. 0 

#End of data_130053-ICSD


