data_93723-ICSD
#?2014 by Fachinformationszentrum Karlsruhe, and the U.S. Secretary of 
#Commerce on behalf of the United States.  All rights reserved.
_database_code_ICSD                93723
_audit_creation_date               2003/04/01
_chemical_name_systematic          'Disodium Magnesium Indium Fluoride'
_chemical_formula_structural       'Na2 Mg In F7'
_chemical_formula_sum              'F7 In1 Mg1 Na2'
_chemical_name_mineral             Weberite
_publ_section_title
;
the crystal structure of the weberite Na2 Mg In F7
;
loop_
_citation_id
_citation_journal_abbrev
_citation_year
_citation_journal_volume
_citation_page_first
_citation_page_last
_citation_journal_id_ASTM
primary 'Journal of Solid State Chemistry' 2001 159 234 238 JSSCBI
_publ_author_name
;
Caramanian, A.;Souron, J.P.;Gredin, P.;de Kozak, A.
;
_cell_length_a                     10.435(1)
_cell_length_b                     7.345(1)
_cell_length_c                     7.553(1)
_cell_angle_alpha                  90
_cell_angle_beta                   90
_cell_angle_gamma                  90
_cell_volume                       578.9
_cell_formula_units_Z              4
_symmetry_space_group_name_H-M     'P n m a'
_symmetry_Int_Tables_number        62
_refine_ls_R_factor_all            .034
loop_
_symmetry_equiv_pos_site_id
_symmetry_equiv_pos_as_xyz
  1	'x+.5, y, -z+.5'
  2	'x, -y+.5, z'
  3	'-x+.5, y+.5, z+.5'
  4	'-x, -y, -z'
  5	'-x+.5, -y, z+.5'
  6	'-x, y+.5, -z'
  7	'x+.5, -y+.5, -z+.5'
  8	'x, y, z'
loop_
_atom_type_symbol
_atom_type_oxidation_number
F1-	-1
In3+	3
Mg2+	2
Na1+	1
loop_
_atom_site_label
_atom_site_type_symbol
_atom_site_symmetry_multiplicity
_atom_site_Wyckoff_symbol
_atom_site_fract_x
_atom_site_fract_y
_atom_site_fract_z
_atom_site_occupancy
_atom_site_attached_hydrogens
_atom_site_U_iso_or_equiv
Na1 Na1+ 4 a 0 0 0 1. 0 0.036(1) 
Na2 Na1+ 4 c 0.2680(2) 0.250 0.2372(2) 1. 0 0.024(1) 
Mg1 Mg2+ 4 b 0 0 0.5 1. 0 0.006(1) 
In1 In3+ 4 c 0.2619(1) 0.250 0.7495(1) 1. 0 0.010(1) 
F1 F1- 4 c 0.3574(3) 0.250 0.5082(3) 1. 0 0.019(1) 
F2 F1- 4 c 0.1625(3) 0.250 0.9834(3) 1. 0 0.020(1) 
F3 F1- 4 c 0.4706(3) 0.250 0.0569(5) 1. 0 0.027(1) 
F4 F1- 8 d 0.3738(2) 0.0241(3) 0.8029(3) 1. 0 0.021(1) 
F5 F1- 8 d 0.3648(2) 0.9501(2) 0.1750(3) 1. 0 0.022(1) 

loop_
_atom_site_aniso_label
_atom_site_aniso_type_symbol
_atom_site_aniso_U_11
_atom_site_aniso_U_22
_atom_site_aniso_U_33
_atom_site_aniso_U_12
_atom_site_aniso_U_13
_atom_site_aniso_U_23
Na1 Na1+ 0.031(1) 0.022(1) 0.054(2) 0.007(1) -0.005(1) 0.003(1)
Na2 Na1+ 0.035(1) 0.021(1) 0.018(1) 0. -0.008(1) 0.
Mg1 Mg2+ 0.005(1) 0.004(1) 0.008(1) 0.001(1) 0.000(1) -0.001(1)
In1 In3+ 0.011(1) 0.009(1) 0.012(1) 0. 0.000(1) 0.
F1 F1- 0.024(1) 0.021(1) 0.013(1) 0. 0.002(1) 0.
F2 F1- 0.021(1) 0.028(1) 0.012(1) 0. 0.003(1) 0.
F3 F1- 0.036(2) 0.009(1) 0.036(2) 0. 0.015(1) 0.
F4 F1- 0.021(1) 0.020(1) 0.023(1) 0.007(1) -0.008(1) -0.003(1)
F5 F1- 0.021(1) 0.015(1) 0.031(1) -0.004(1) 0.013(1) 0.003(1)
#End of data_93723-ICSD


