data_20184-ICSD
#?2014 by Fachinformationszentrum Karlsruhe, and the U.S. Secretary of 
#Commerce on behalf of the United States.  All rights reserved.
_database_code_ICSD                20184
_audit_creation_date               1980/01/01
_audit_update_record               2012/08/01
_chemical_name_systematic          'Calcium Manganese Diborate'
_chemical_formula_structural       'Ca Mn (B2 O5)'
_chemical_formula_sum              'B2 Ca1 Mn1 O5'
_chemical_name_mineral             Clinokurchatovite-(Mn)
_publ_section_title
;
The crystal structure of the synthetic Mn-Kurchatovite Ca Mn (B2 O5)
;
loop_
_citation_id
_citation_journal_abbrev
_citation_year
_citation_journal_volume
_citation_page_first
_citation_page_last
_citation_journal_id_ASTM
primary 'Doklady Akademii Nauk SSSR' 1978 238 98 100 DANKAS
_publ_author_name
;
Yakubovich, O.V.;Simonov, M.A.;Belov, N.V.
;
_cell_length_a                     12.455(3)
_cell_length_b                     5.643(1)
_cell_length_c                     11.430(2)
_cell_angle_alpha                  90.
_cell_angle_beta                   90.
_cell_angle_gamma                  77.64(2)
_cell_volume                       784.72
_cell_formula_units_Z              8
_symmetry_space_group_name_H-M     'P 1 1 21/b'
_symmetry_Int_Tables_number        14
_refine_ls_R_factor_all            .114
loop_
_symmetry_equiv_pos_site_id
_symmetry_equiv_pos_as_xyz
  1	'x, y+.5, -z+.5'
  2	'-x, -y, -z'
  3	'-x, -y+.5, z+.5'
  4	'x, y, z'
loop_
_atom_type_symbol
_atom_type_oxidation_number
B3+	3
Ca2+	2
Mn2+	2
O2-	-2
loop_
_atom_site_label
_atom_site_type_symbol
_atom_site_symmetry_multiplicity
_atom_site_Wyckoff_symbol
_atom_site_fract_x
_atom_site_fract_y
_atom_site_fract_z
_atom_site_occupancy
_atom_site_attached_hydrogens
_atom_site_B_iso_or_equiv
Ca1 Ca2+ 4 e 0.5939(6) 0.335(1) 0.3734(8) 1. 0 1.09(3) 
Ca2 Ca2+ 4 e 0.0849(5) 0.373(1) 0.3797(6) 1. 0 0.23(3) 
Mn1 Mn2+ 4 e 0.2629(5) 0.260(1) 0.1272(8) 1. 0 1.09(3) 
Mn2 Mn2+ 4 e 0.7707(4) 0.243(3) 0.1291(5) 1. 0 0.10(3) 
O1 O2- 4 e 0.430(2) 0.124(5) 0.380(2) 1. 0 0.66(5) 
O2 O2- 4 e 0.432(2) 0.206(6) 0.073(2) 1. 0 0.21(5) 
O3 O2- 4 e 0.941(2) 0.111(6) 0.393(2) 1. 0 0.68(5) 
O4 O2- 4 e 0.093(2) 0.319(5) 0.171(2) 1. 0 0.68(5) 
O5 O2- 4 e 0.939(2) 0.189(6) 0.094(2) 1. 0 0.71(5) 
O6 O2- 4 e 0.778(2) 0.392(4) 0.456(2) 1. 0 1.36(5) 
O7 O2- 4 e 0.765(2) 0.103(5) 0.309(2) 1. 0 1.35(5) 
O8 O2- 4 e 0.281(2) 0.394(4) 0.305(2) 1. 0 0.91(5) 
O9 O2- 4 e 0.261(2) 0.102(5) 0.448(2) 1. 0 0.89(5) 
O10 O2- 4 e 0.593(2) 0.278(4) 0.168(2) 1. 0 0.98(5) 
B1 B3+ 4 e 0.832(4) 0.215(9) 0.381(4) 1. 0 0.17(6) 
B2 B3+ 4 e 0.322(4) 0.196(9) 0.375(4) 1. 0 0.65(6) 
B3 B3+ 4 e -.010(3) 0.381(9) 0.120(5) 1. 0 0.77(6) 
B4 B3+ 4 e 0.491(3) 0.370(9) 0.124(4) 1. 0 0.44(6) 

#End of data_20184-ICSD


