data_426423-ICSD
#?2014 by Fachinformationszentrum Karlsruhe, and the U.S. Secretary of 
#Commerce on behalf of the United States.  All rights reserved.
_database_code_ICSD                426423
_audit_creation_date               2014/02/01
_chemical_name_systematic          'Potassium Boron Bis(disulfate)'
_chemical_formula_structural       'K (B (S2 O7)2)'
_chemical_formula_sum              'B1 K1 O14 S4'
_publ_section_title
;
The borosulfate story goes on - from alkali and oxonium salts to 
polyacids
;
loop_
_citation_id
_citation_journal_abbrev
_citation_year
_citation_journal_volume
_citation_journal_issue
_citation_page_first
_citation_page_last
_citation_journal_id_ASTM
primary 'Chemistry - A European Journal' 2013 19 50 16954 16962 CEUJED
_publ_author_name
;
Daub, Michael;Kazmierczak, Karolina;Hoeppe, Henning A.;Hillebrecht, 
Harald
;
_cell_length_a                     11.3368(1)
_cell_length_b                     14.6662(2)
_cell_length_c                     13.6650(1)
_cell_angle_alpha                  90.00
_cell_angle_beta                   94.23
_cell_angle_gamma                  90.00
_cell_volume                       2265.86
_cell_formula_units_Z              8
_symmetry_space_group_name_H-M     'C 1 c 1'
_symmetry_Int_Tables_number        9
_refine_ls_R_factor_all            .015
loop_
_symmetry_equiv_pos_site_id
_symmetry_equiv_pos_as_xyz
  1	'x, -y, z+.5'
  2	'x, y, z'
  3	'x+.5, -y+.5, z+.5'
  4	'x+.5, y+.5, z'
loop_
_atom_type_symbol
_atom_type_oxidation_number
B3+	3
K1+	1
O2-	-2
S6+	6
loop_
_atom_site_label
_atom_site_type_symbol
_atom_site_symmetry_multiplicity
_atom_site_Wyckoff_symbol
_atom_site_fract_x
_atom_site_fract_y
_atom_site_fract_z
_atom_site_occupancy
_atom_site_attached_hydrogens
_atom_site_U_iso_or_equiv
K1 K1+ 4 a 0.881880(15) 0.969656(11) 0.828079(12) 1 0 0.01757(3) 
K2 K1+ 4 a 0.795654(14) 1.484841(11) 0.748617(12) 1 0 0.01731(3) 
S1 S6+ 4 a 0.473923(16) 1.216786(13) 0.699340(13) 1 0 0.01537(3) 
O1 O2- 4 a 0.42708(8) 1.28828(6) 0.75300(6) 1 0 0.02995(15) 
O2 O2- 4 a 0.41263(9) 1.13375(6) 0.68478(6) 1 0 0.03469(18) 
S2 S6+ 4 a 0.724792(16) 1.201661(12) 0.710865(12) 1 0 0.01441(3) 
O3 O2- 4 a 0.75167(7) 1.29557(5) 0.71228(6) 1 0 0.02702(14) 
O4 O2- 4 a 0.80123(6) 1.13834(5) 0.76045(5) 1 0 0.02195(11) 
S3 S6+ 4 a 1.079227(16) 1.342343(12) 0.863246(13) 1 0 0.01517(3) 
O5 O2- 4 a 1.20083(7) 1.35646(6) 0.85360(6) 1 0 0.02953(14) 
O6 O2- 4 a 0.99323(7) 1.38993(5) 0.80332(5) 1 0 0.02628(13) 
S4 S6+ 4 a 1.113750(16) 1.156057(12) 0.905364(13) 1 0 0.01477(3) 
O7 O2- 4 a 1.02046(7) 1.09672(5) 0.92614(6) 1 0 0.02552(12) 
O8 O2- 4 a 1.20985(6) 1.12425(5) 0.85513(5) 1 0 0.02680(13) 
S5 S6+ 4 a 1.023889(15) 0.907151(11) 1.098885(12) 1 0 0.01271(3) 
O9 O2- 4 a 1.04045(6) 0.96089(5) 1.18481(4) 1 0 0.02155(11) 
O10 O2- 4 a 0.92960(5) 0.92419(5) 1.02770(4) 1 0 0.01943(10) 
S6 S6+ 4 a 1.169701(16) 0.857770(12) 0.950411(13) 1 0 0.01520(3) 
O11 O2- 4 a 1.28951(6) 0.83228(6) 0.96122(7) 1 0 0.03087(15) 
O12 O2- 4 a 1.12593(7) 0.90966(4) 0.86798(5) 1 0 0.02316(12) 
S7 S6+ 4 a 0.689073(18) 0.912861(13) 0.571856(13) 1 0 0.01688(3) 
O13 O2- 4 a 0.75850(7) 0.95380(5) 0.64958(5) 1 0 0.02547(13) 
O14 O2- 4 a 0.72188(7) 1.08395(6) 0.97426(5) 1 0 0.02680(13) 
S8 S6+ 4 a 0.446052(16) 0.921062(12) 0.510934(13) 1 0 0.01519(3) 
O15 O2- 4 a 0.46214(7) 0.93520(6) 0.41063(5) 1 0 0.02647(13) 
O16 O2- 4 a 0.34847(6) 0.95945(5) 0.55466(5) 1 0 0.02423(12) 
O17 O2- 4 a 0.51273(5) 1.25461(4) 0.60278(4) 1 0 0.01807(9) 
O18 O2- 4 a 0.69389(5) 1.16805(4) 0.60578(4) 1 0 0.01449(8) 
O19 O2- 4 a 1.05067(6) 1.34787(4) 0.97049(4) 1 0 0.01809(10) 
O20 O2- 4 a 1.16237(5) 1.20772(4) 0.99633(4) 1 0 0.01485(8) 
O21 O2- 4 a 1.03011(6) 0.80658(4) 1.12725(4) 1 0 0.01955(10) 
O22 O2- 4 a 1.08547(5) 0.77795(4) 0.96205(4) 1 0 0.01555(8) 
O23 O2- 4 a 1.15806(6) 0.68459(4) 1.10245(4) 1 0 0.01826(9) 
O24 O2- 4 a 0.45299(5) 0.81994(4) 0.53770(5) 1 0 0.01921(10) 
O25 O2- 4 a 0.59949(6) 1.18870(6) 0.75730(5) 1 0 0.02683(14) 
O26 O2- 4 a 1.04914(6) 1.23672(4) 0.84045(4) 1 0 0.02125(11) 
O27 O2- 4 a 1.14768(5) 0.91735(4) 1.04851(5) 1 0 0.01834(10) 
O28 O2- 4 a 0.56006(6) 0.96093(4) 0.57608(4) 1 0 0.01771(9) 
B1 B3+ 4 a 1.10391(7) 1.28366(5) 1.04373(5) 1 0 0.01305(11) 
B2 B3+ 4 a 1.05806(8) 0.73601(5) 1.05614(6) 1 0 0.01472(11) 

loop_
_atom_site_aniso_label
_atom_site_aniso_type_symbol
_atom_site_aniso_U_11
_atom_site_aniso_U_22
_atom_site_aniso_U_33
_atom_site_aniso_U_12
_atom_site_aniso_U_13
_atom_site_aniso_U_23
K1 K1+ 0.01816(6) 0.01708(6) 0.01673(5) -0.00435(5) -0.00375(4) 0.00336(4)
K2 K1+ 0.01907(6) 0.01464(6) 0.01889(6) 0.00052(5) 0.00585(5) -0.00065(4)
S1 S6+ 0.01565(7) 0.01705(7) 0.01390(6) -0.00207(5) 0.00446(5) -0.00198(5)
O1 O2- 0.0321(4) 0.0329(4) 0.0256(3) 0.0098(3) 0.0072(3) -0.0096(3)
O2 O2- 0.0497(5) 0.0296(4) 0.0241(3) -0.0230(3) -0.0018(3) 0.0021(3)
S2 S6+ 0.01676(7) 0.01356(6) 0.01257(6) 0.00233(5) -0.00120(5) -0.00033(5)
O3 O2- 0.0347(4) 0.0148(2) 0.0300(3) -0.0011(2) -0.0082(3) -0.0037(2)
O4 O2- 0.0243(3) 0.0223(3) 0.0182(2) 0.0062(2) -0.0054(2) 0.00324(19)
S3 S6+ 0.01699(7) 0.01519(7) 0.01323(6) -0.00035(5) 0.00036(5) 0.00136(5)
O5 O2- 0.0210(3) 0.0330(3) 0.0354(4) -0.0058(3) 0.0077(3) 0.0096(3)
O6 O2- 0.0328(3) 0.0254(3) 0.0194(2) 0.0065(3) -0.0058(2) 0.0050(2)
S4 S6+ 0.01591(7) 0.01296(6) 0.01539(6) -0.00004(5) 0.00083(5) -0.00476(5)
O7 O2- 0.0272(3) 0.0196(3) 0.0297(3) -0.0096(2) 0.0016(2) -0.0031(2)
O8 O2- 0.0234(3) 0.0318(3) 0.0256(3) 0.0059(3) 0.0051(2) -0.0140(2)
S5 S6+ 0.01466(6) 0.01200(6) 0.01150(5) -0.00009(5) 0.00118(5) -0.00143(4)
O9 O2- 0.0271(3) 0.0210(3) 0.0165(2) 0.0003(2) 0.0017(2) -0.00863(18)
O10 O2- 0.0168(2) 0.0244(3) 0.0168(2) 0.00409(19) -0.00055(18) 0.00046(18)
S6 S6+ 0.01369(6) 0.01599(7) 0.01649(6) 0.00009(5) 0.00495(5) -0.00004(5)
O11 O2- 0.0149(3) 0.0409(4) 0.0374(4) 0.0051(3) 0.0065(2) -0.0068(3)
O12 O2- 0.0316(3) 0.0195(3) 0.0194(2) 0.0005(2) 0.0089(2) 0.00701(19)
S7 S6+ 0.01929(8) 0.01663(7) 0.01419(6) -0.00409(6) -0.00236(5) -0.00042(5)
O13 O2- 0.0307(3) 0.0222(3) 0.0218(3) -0.0097(2) -0.0100(2) -0.0005(2)
O14 O2- 0.0248(3) 0.0377(4) 0.0183(2) 0.0056(3) 0.0040(2) 0.0000(2)
S8 S6+ 0.01780(7) 0.01429(6) 0.01349(6) 0.00245(5) 0.00112(5) -0.00051(5)
O15 O2- 0.0257(3) 0.0399(4) 0.0135(2) -0.0033(3) -0.0010(2) 0.0039(2)
O16 O2- 0.0236(3) 0.0224(3) 0.0271(3) 0.0090(2) 0.0047(2) -0.0036(2)
O17 O2- 0.0167(2) 0.0217(2) 0.0163(2) 0.00448(18) 0.00483(17) 0.00516(18)
O18 O2- 0.0182(2) 0.01384(19) 0.01126(17) 0.00418(16) -0.00002(15) 
0.00029(15)
O19 O2- 0.0224(3) 0.0191(2) 0.01262(19) 0.00802(19) 0.00042(17) 
-0.00133(16)
O20 O2- 0.0161(2) 0.0144(2) 0.01371(19) 0.00290(16) -0.00098(16) 
-0.00424(15)
O21 O2- 0.0332(3) 0.0133(2) 0.01277(19) 0.0013(2) 0.00598(19) 0.00185(16)
O22 O2- 0.0221(2) 0.01265(19) 0.01204(18) -0.00197(17) 0.00209(16) 
-0.00037(15)
O23 O2- 0.0208(2) 0.0132(2) 0.0198(2) 0.00027(17) -0.00493(18) 0.00104(17)
O24 O2- 0.0169(2) 0.0128(2) 0.0277(3) 0.00068(17) 0.00004(19) -0.00256(18)
O25 O2- 0.0214(3) 0.0454(4) 0.0142(2) 0.0069(3) 0.00498(19) 0.0090(2)
O26 O2- 0.0294(3) 0.0174(2) 0.0157(2) -0.0006(2) -0.0071(2) -0.00337(17)
O27 O2- 0.0145(2) 0.0198(2) 0.0211(2) -0.00516(17) 0.00353(18) -0.00657(18)
O28 O2- 0.0244(3) 0.0117(2) 0.0165(2) 0.00006(17) -0.00175(18) -0.00180(16)
B1 B3+ 0.0141(3) 0.0137(3) 0.0115(2) 0.0006(2) 0.0013(2) -0.0023(2)
B2 B3+ 0.0185(3) 0.0111(3) 0.0145(3) -0.0003(2) 0.0008(2) 0.0020(2)
#End of data_426423-ICSD


