data_406353-ICSD
#?2014 by Fachinformationszentrum Karlsruhe, and the U.S. Secretary of 
#Commerce on behalf of the United States.  All rights reserved.
_database_code_ICSD                406353
_audit_creation_date               1997/11/10
_audit_update_record               2007/08/01
_chemical_name_systematic          'Aluminium Telluride - Beta'
_chemical_formula_structural       'Al2 Te3'
_chemical_formula_sum              'Al2 Te3'
_publ_section_title
;
Die Kristallstruktur von beta - Al2 Te3
;
loop_
_citation_id
_citation_journal_abbrev
_citation_year
_citation_journal_volume
_citation_page_first
_citation_page_last
_citation_journal_id_ASTM
primary 'Zeitschrift fuer Anorganische und Allgemeine Chemie (1950) (DE)'
 1997 623 1006 1010 ZAACAB
2 'Phase Transition' 1992 38 127 220 PHTRDP
_publ_author_name                  'Krebs, B.;Conrad, O.;Schiemann, A.'
_cell_length_a                     7.181(1)
_cell_length_b                     12.848(3)
_cell_length_c                     14.167(3)
_cell_angle_alpha                  90.
_cell_angle_beta                   90.04(2)
_cell_angle_gamma                  90.
_cell_volume                       1307.07
_cell_formula_units_Z              8
_symmetry_space_group_name_H-M     'P 1 21/c 1'
_symmetry_Int_Tables_number        14
_refine_ls_R_factor_all            .0331
loop_
_symmetry_equiv_pos_site_id
_symmetry_equiv_pos_as_xyz
  1	'x, -y+.5, z+.5'
  2	'-x, -y, -z'
  3	'-x, y+.5, -z+.5'
  4	'x, y, z'
loop_
_atom_type_symbol
_atom_type_oxidation_number
Al3+	3
Te2-	-2
loop_
_atom_site_label
_atom_site_type_symbol
_atom_site_symmetry_multiplicity
_atom_site_Wyckoff_symbol
_atom_site_fract_x
_atom_site_fract_y
_atom_site_fract_z
_atom_site_occupancy
_atom_site_attached_hydrogens
Al1 Al3+ 4 e 0.5816(3) 0.74864(14) 0.31224(14) 1. 0 
Al2 Al3+ 4 e 0.0700(3) 0.90750(14) 0.32566(15) 1. 0 
Al3 Al3+ 4 e 0.0790(3) 0.59155(13) 0.30485(15) 1. 0 
Al4 Al3+ 4 e 0.4313(3) 0.93060(15) 0.18286(14) 1. 0 
Te1 Te2- 4 e 0.91032(6) 0.74199(3) 0.39930(3) 1. 0 
Te2 Te2- 4 e 0.58068(9) 0.75833(3) 0.13341(4) 1. 0 
Te3 Te2- 4 e 0.07412(7) 0.91476(3) 0.13726(3) 1. 0 
Te4 Te2- 4 e 0.08450(8) 0.57912(3) 0.12590(4) 1. 0 
Te5 Te2- 4 e 0.40552(6) 0.59303(3) 0.39559(3) 1. 0 
Te6 Te2- 4 e 0.42652(6) 0.92479(3) 0.37129(4) 1. 0 

loop_
_atom_site_aniso_label
_atom_site_aniso_type_symbol
_atom_site_aniso_U_11
_atom_site_aniso_U_22
_atom_site_aniso_U_33
_atom_site_aniso_U_12
_atom_site_aniso_U_13
_atom_site_aniso_U_23
Al1 Al3+ 0.0148(8) 0.0165(9) 0.0175(9) -0.0006(8) -0.0009(9) 0.0018(7)
Al2 Al3+ 0.0156(9) 0.0162(9) 0.0203(9) 0.0010(7) 0.0008(10) 0.0017(7)
Al3 Al3+ 0.0155(9) 0.0175(9) 0.0192(9) -0.0005(8) -0.0020(9) -0.0010(7)
Al4 Al3+ 0.0158(9) 0.0146(8) 0.0212(9) 0.0004(8) 0.0016(9) 0.0019(8)
Te1 Te2- 0.0133(2) 0.0174(2) 0.0159(2) 0.0000(2) -0.0009(2) 0.00081(15)
Te2 Te2- 0.0260(2) 0.0227(2) 0.0175(2) 0.0059(2) 0.0014(3) -0.0007(2)
Te3 Te2- 0.0148(2) 0.0203(2) 0.0171(2) 0.0013(2) -0.0013(3) -0.0026(2)
Te4 Te2- 0.0261(3) 0.0227(2) 0.0168(2) -0.0054(2) 0.0000(3) 0.0028(2)
Te5 Te2- 0.0130(2) 0.0161(2) 0.0150(2) 0.0001(2) -0.0008(2) 0.00007(14)
Te6 Te2- 0.0153(2) 0.0204(2) 0.0177(2) 0.0008(2) -0.0027(3) -0.0025(2)
#End of data_406353-ICSD


