data_16994-ICSD
#?2014 by Fachinformationszentrum Karlsruhe, and the U.S. Secretary of 
#Commerce on behalf of the United States.  All rights reserved.
_database_code_ICSD                16994
_audit_creation_date               1980/01/01
_chemical_name_systematic          'Sodium Tetrachloroferrate'
_chemical_formula_structural       'Na Fe Cl4'
_chemical_formula_sum              'Cl4 Fe1 Na1'
_publ_section_title
;
The Crystal Structure of Sodium Tetrachloroferrate(III)
;
loop_
_citation_id
_citation_journal_abbrev
_citation_year
_citation_journal_volume
_citation_page_first
_citation_page_last
_citation_journal_id_ASTM
primary 'Journal of Physical Chemistry' 1965 69 239 244 JPCHAX
_publ_author_name                  'Richards, R.R.;Gregory, N.W.'
_cell_length_a                     10.304
_cell_length_b                     9.88
_cell_length_c                     6.235
_cell_angle_alpha                  90.
_cell_angle_beta                   90.
_cell_angle_gamma                  90.
_cell_volume                       634.74
_cell_formula_units_Z              4
_symmetry_space_group_name_H-M     'P 21 21 21'
_symmetry_Int_Tables_number        19
_refine_ls_R_factor_all            .058
loop_
_symmetry_equiv_pos_site_id
_symmetry_equiv_pos_as_xyz
  1	'-x, y+.5, -z+.5'
  2	'x+.5, -y+.5, -z'
  3	'-x+.5, -y, z+.5'
  4	'x, y, z'
loop_
_atom_type_symbol
_atom_type_oxidation_number
Cl1-	-1
Fe3+	3
Na1+	1
loop_
_atom_site_label
_atom_site_type_symbol
_atom_site_symmetry_multiplicity
_atom_site_Wyckoff_symbol
_atom_site_fract_x
_atom_site_fract_y
_atom_site_fract_z
_atom_site_occupancy
_atom_site_attached_hydrogens
_atom_site_B_iso_or_equiv
Fe1 Fe3+ 4 a 0.0382(3) 0.4886(4) 0.2127(6) 1. 0 2.87 
Na1 Na1+ 4 a 0.1187(13) 0.2138(13) 0.6970(26) 1. 0 6.04 
Cl1 Cl1- 4 a 0.0339(6) 0.4924(9) 0.5622(14) 1. 0 4.04 
Cl2 Cl1- 4 a 0.1504(7) 0.3118(7) 0.1131(15) 1. 0 3.79 
Cl3 Cl1- 4 a 0.3413(6) 0.0179(7) 0.9238(12) 1. 0 3.84 
Cl4 Cl1- 4 a 0.3718(7) 0.3274(7) 0.5732(16) 1. 0 3.61 

#End of data_16994-ICSD


