data_4254-ICSD
#?2014 by Fachinformationszentrum Karlsruhe, and the U.S. Secretary of 
#Commerce on behalf of the United States.  All rights reserved.
_database_code_ICSD                4254
_audit_creation_date               1980/01/01
_audit_update_record               2012/02/01
_chemical_name_systematic
;
Potassium Neodymium Tetrakis(catena-phosphate(V))
;
_chemical_formula_structural       'K Nd (P O3)4'
_chemical_formula_sum              'K1 Nd1 O12 P4'
_publ_section_title
;
Crystal structure of potassium neodymium metaphosphate, K Nd P4 O12, 
a new acentric laser material
;
loop_
_citation_id
_citation_journal_abbrev
_citation_year
_citation_journal_volume
_citation_page_first
_citation_page_last
_citation_journal_id_ASTM
primary 'Materials Research Bulletin' 1975 10 1105 1110 MRBUAC
_publ_author_name                  'Hong, H.Y.-P.'
_cell_length_a                     7.266(1)
_cell_length_b                     8.436(1)
_cell_length_c                     8.007(1)
_cell_angle_alpha                  90.
_cell_angle_beta                   91.97
_cell_angle_gamma                  90.
_cell_volume                       490.51
_cell_formula_units_Z              2
_symmetry_space_group_name_H-M     'P 1 21 1'
_symmetry_Int_Tables_number        4
_refine_ls_R_factor_all            .06
loop_
_symmetry_equiv_pos_site_id
_symmetry_equiv_pos_as_xyz
  1	'-x, y+.5, -z'
  2	'x, y, z'
loop_
_atom_type_symbol
_atom_type_oxidation_number
K1+	1
Nd3+	3
O2-	-2
P5+	5
loop_
_atom_site_label
_atom_site_type_symbol
_atom_site_symmetry_multiplicity
_atom_site_Wyckoff_symbol
_atom_site_fract_x
_atom_site_fract_y
_atom_site_fract_z
_atom_site_occupancy
_atom_site_attached_hydrogens
Nd1 Nd3+ 2 a 0.2339(2) 0.25 0.2417(2) 1. 0 
K1 K1+ 2 a 0.726(1) 0.059(1) 0.2832(9) 1. 0 
P1 P5+ 2 a 0.102(1) 0.834(1) 0.102(1) 1. 0 
P2 P5+ 2 a 0.431(1) 0.636(1) 0.096(1) 1. 0 
P3 P5+ 2 a 0.622(1) 0.503(1) 0.393(1) 1. 0 
P4 P5+ 2 a 0.001(1) 0.107(1) 0.619(1) 1. 0 
O1 O2- 2 a 0.083(3) 0.993(3) 0.179(3) 1. 0 
O2 O2- 2 a 0.686(3) 0.291(3) 0.873(3) 1. 0 
O3 O2- 2 a 0.006(3) 0.214(2) 0.784(3) 1. 0 
O4 O2- 2 a 0.830(3) 0.010(3) 0.615 1. 0 
O5 O2- 2 a 0.687(3) 0.987(3) 0.936(3) 1. 0 
O6 O2- 2 a 0.426(3) 0.157(3) 0.033(3) 1. 0 
O7 O2- 2 a 0.031(3) 0.211(2) 0.473(2) 1. 0 
O8 O2- 2 a 0.168(3) 0.000(3) 0.652(3) 1. 0 
O9 O2- 2 a 0.454(3) 0.134(3) 0.728(3) 1. 0 
O10 O2- 2 a 0.545(3) 0.357(3) 0.344(2) 1. 0 
O11 O2- 2 a 0.962(3) 0.307(2) 0.060(2) 1. 0 
O12 O2- 2 a 0.381(3) 0.070(3) 0.430(2) 1. 0 

#End of data_4254-ICSD


