data_97706-ICSD
#?2014 by Fachinformationszentrum Karlsruhe, and the U.S. Secretary of 
#Commerce on behalf of the United States.  All rights reserved.
_database_code_ICSD                97706
_audit_creation_date               2004/10/01
_chemical_name_systematic          'Calcium Magnesium Diborate'
_chemical_formula_structural       'Ca Mg (B2 O5)'
_chemical_formula_sum              'B2 Ca1 Mg1 O5'
_chemical_name_mineral             Kurchatovite
_publ_section_title
;
Modular aspects of the crystal structures of kurchatovite and 
clinokurchatovite
;
loop_
_citation_id
_citation_journal_abbrev
_citation_year
_citation_journal_volume
_citation_page_first
_citation_page_last
_citation_journal_id_ASTM
primary 'European Journal of Mineralogy' 2003 15 277 282 EJMIER
_publ_author_name                  'Callegari, A.;Mazzi, F.;Tadini, C.'
_cell_length_a                     36.34(4)
_cell_length_b                     11.135(10)
_cell_length_c                     5.499(5)
_cell_angle_alpha                  90
_cell_angle_beta                   90
_cell_angle_gamma                  90
_cell_volume                       2225.15
_cell_formula_units_Z              24
_symmetry_space_group_name_H-M     'P b c a'
_symmetry_Int_Tables_number        61
_refine_ls_R_factor_all            .03
loop_
_symmetry_equiv_pos_site_id
_symmetry_equiv_pos_as_xyz
  1	'x+.5, y, -z+.5'
  2	'x, -y+.5, z+.5'
  3	'-x+.5, y+.5, z'
  4	'-x, -y, -z'
  5	'-x+.5, -y, z+.5'
  6	'-x, y+.5, -z+.5'
  7	'x+.5, -y+.5, -z'
  8	'x, y, z'
loop_
_atom_type_symbol
_atom_type_oxidation_number
B3+	3
Ca2+	2
Mg2+	2
O2-	-2
loop_
_atom_site_label
_atom_site_type_symbol
_atom_site_symmetry_multiplicity
_atom_site_Wyckoff_symbol
_atom_site_fract_x
_atom_site_fract_y
_atom_site_fract_z
_atom_site_occupancy
_atom_site_attached_hydrogens
_atom_site_B_iso_or_equiv
Ca1 Ca2+ 8 c 0.02961(1) 0.87294(4) 0.11592(9) 1. 0 0.91(1) 
Ca2 Ca2+ 8 c 0.13593(1) 0.11800(4) 0.68468(9) 1. 0 0.93(1) 
Ca3 Ca2+ 8 c 0.19752(1) 0.88076(4) 0.87266(9) 1. 0 0.97(1) 
Mg1 Mg2+ 8 c 0.0792(1) 0.1282(1) 0.1395(1) 1. 0 0.83(2) 
Mg2 Mg2+ 8 c 0.0880(1) 0.8717(1) 0.6353(1) 1. 0 0.84(2) 
Mg3 Mg2+ 8 c 0.2456(1) 0.1309(1) -0.0941(1) 1. 0 0.80(2) 
B1 B3+ 8 c 0.0583(1) 0.1244(2) 0.6227(5) 1. 0 0.86(5) 
B2 B3+ 8 c 0.1084(1) 0.8845(2) 0.1419(5) 1. 0 0.85(5) 
B3 B3+ 8 c 0.2238(1) 0.1164(2) 0.4063(5) 1. 0 0.83(5) 
B4 B3+ 8 c 0.0038(1) 0.1198(2) 0.3488(5) 1. 0 0.84(5) 
B5 B3+ 8 c 0.1634(1) 0.8770(2) 0.4040(5) 1. 0 0.83(5) 
B6 B3+ 8 c 0.1697(1) 0.1230(2) 0.1429(5) 1. 0 0.78(5) 
O1 O2- 8 c 0.0730(1) 0.1981(1) 0.7933(3) 1. 0 0.89(3) 
O2 O2- 8 c 0.0893(1) 0.8046(1) 0.2817(3) 1. 0 0.90(3) 
O3 O2- 8 c 0.2422(1) 0.1958(1) 0.2624(3) 1. 0 0.91(3) 
O4 O2- 8 c 0.0801(1) 0.0500(2) 0.4882(3) 1. 0 0.94(3) 
O5 O2- 8 c 0.0909(1) -0.0442(2) -0.0229(3) 1. 0 0.98(3) 
O6 O2- 8 c 0.2419(1) 0.0453(2) 0.5676(3) 1. 0 0.98(3) 
O7 O2- 8 c 0.0196(1) 0.1273(2) 0.5841(3) 1. 0 1.01(3) 
O8 O2- 8 c 0.1468(1) 0.8926(2) 0.1710(3) 1. 0 1.03(3) 
O9 O2- 8 c 0.1852(1) 0.1090(2) 0.3791(3) 1. 0 0.99(3) 
O10 O2- 8 c 0.0232(1) 0.0822(2) 0.1522(3) 1. 0 0.94(3) 
O11 O2- 8 c 0.1447(1) -0.0958(2) 0.6103(3) 1. 0 0.94(3) 
O12 O2- 8 c 0.1891(1) 0.0906(2) -0.0578(3) 1. 0 0.93(3) 
O13 O2- 8 c 0.0316(1) 0.8415(2) 0.6682(3) 1. 0 1.11(4) 
O14 O2- 8 c 0.1351(1) 0.1694(2) 0.1307(3) 1. 0 1.09(4) 
O15 O2- 8 c 0.1982(1) 0.8328(2) 0.4036(3) 1. 0 1.13(4) 

loop_
_atom_site_aniso_label
_atom_site_aniso_type_symbol
_atom_site_aniso_U_11
_atom_site_aniso_U_22
_atom_site_aniso_U_33
_atom_site_aniso_U_12
_atom_site_aniso_U_13
_atom_site_aniso_U_23
Ca1 Ca2+ 0.0096(2) 0.0120(2) 0.0130(2) 0.0007(2) 0.0006(2) 0.0004(2)
Ca2 Ca2+ 0.0088(2) 0.0129(2) 0.0138(2) 0.0006(2) -.0007(2) -.0010(2)
Ca3 Ca2+ 0.0093(2) 0.0120(2) 0.0157(2) 0.0007(2) -.0004(2) -.0010(2)
Mg1 Mg2+ 0.0087(3) 0.0128(4) 0.0100(3) -.0004(2) 0.0002(2) 0.0003(3)
Mg2 Mg2+ 0.0087(3) 0.0129(4) 0.0102(3) -.0002(2) 0.0001(2) 0.0001(2)
Mg3 Mg2+ 0.0089(3) 0.0112(3) 0.0103(3) -.0003(2) 0.0003(2) -.0005(3)
B1 B3+ 0.0106(10) 0.0103(11) 0.0118(11) -.0002(8) 0.0002(9) 0.0022(10)
B2 B3+ 0.0104(10) 0.0118(11) 0.0099(10) 0.0012(9) -.0003(8) -.0011(8)
B3 B3+ 0.0104(10) 0.0108(11) 0.0104(10) 0.0008(9) -.0001(8) -.0028(9)
B4 B3+ 0.0082(10) 0.0110(11) 0.0127(11) -.0009(9) -.0004(9) 0.0001(10)
B5 B3+ 0.0099(11) 0.0106(11) 0.0111(11) -.0015(9) 0.0003(9) 0.0006(10)
B6 B3+ 0.0097(10) 0.0089(11) 0.0110(11) -.0006(9) 0.0002(9) 0.0003(10)
O1 O2- 0.0119(7) 0.0116(7) 0.0104(8) -.0007(6) -.0012(6) -.0002(7)
O2 O2- 0.0102(7) 0.0123(8) 0.0118(8) -.0012(6) 0.0002(6) -.0002(7)
O3 O2- 0.0104(7) 0.0126(8) 0.0118(8) -.0011(6) 0.0004(6) 0.0003(7)
O4 O2- 0.0110(7) 0.0131(8) 0.0118(8) 0.0016(6) -.0006(6) 0.0004(7)
O5 O2- 0.0123(7) 0.0138(8) 0.0113(8) 0.0015(6) -.0013(6) -.0004(7)
O6 O2- 0.0118(7) 0.0135(8) 0.0118(8) 0.0017(7) -.0014(6) -.0008(7)
O7 O2- 0.0091(7) 0.0193(9) 0.0101(7) 0.0002(6) 0.0002(6) -.0012(7)
O8 O2- 0.0089(7) 0.0205(9) 0.0099(7) -.0022(6) -.0009(6) 0.0017(7)
O9 O2- 0.0078(7) 0.0189(8) 0.0109(7) -.0005(6) -.0002(6) 0.0021(7)
O10 O2- 0.0099(7) 0.0148(8) 0.0111(7) -.0002(6) 0.0007(6) -.0008(7)
O11 O2- 0.0107(7) 0.0145(8) 0.0106(8) 0.0006(6) 0.0009(6) -.0009(6)
O12 O2- 0.0088(7) 0.0141(8) 0.0123(8) 0.0003(6) 0.0005(6) -.0019(6)
O13 O2- 0.0076(7) 0.0193(8) 0.0154(8) 0.0010(6) -.0004(6) -.0008(7)
O14 O2- 0.0081(7) 0.0178(8) 0.0154(8) 0.0011(6) 0.0002(6) -.0008(7)
O15 O2- 0.0082(7) 0.0157(8) 0.0191(9) 0.0011(6) -.0005(6) -.0023(7)
#End of data_97706-ICSD


