data_10240-ICSD
#?2014 by Fachinformationszentrum Karlsruhe, and the U.S. Secretary of 
#Commerce on behalf of the United States.  All rights reserved.
_database_code_ICSD                10240
_audit_creation_date               1980/01/01
_audit_update_record               1998/06/26
_chemical_name_systematic          'Sodium Chromium Catena-disilicate'
_chemical_formula_structural       'Na Cr (Si2 O6)'
_chemical_formula_sum              'Cr1 Na1 O6 Si2'
_chemical_name_mineral             Kosmochlor
_publ_section_title
;
High-temperature crystal chemistry of acmite, diopside, hedenbergite, 
jadeite, spodumene, and ureyite
;
loop_
_citation_id
_citation_journal_abbrev
_citation_year
_citation_journal_volume
_citation_page_first
_citation_page_last
_citation_journal_id_ASTM
primary 'American Mineralogist' 1973 58 594 618 AMMIAY
_publ_author_name
;
Cameron, M.;Sueno, S.;Prewitt, C.T.;Papike, J.J.
;
_cell_length_a                     9.612(1)
_cell_length_b                     8.770(1)
_cell_length_c                     5.279(1)
_cell_angle_alpha                  90.
_cell_angle_beta                   107.25(1)
_cell_angle_gamma                  90.
_cell_volume                       424.99
_cell_formula_units_Z              4
_symmetry_space_group_name_H-M     'C 1 2/c 1'
_symmetry_Int_Tables_number        15
_refine_ls_R_factor_all            .099
loop_
_symmetry_equiv_pos_site_id
_symmetry_equiv_pos_as_xyz
  1	'x, -y, z+.5'
  2	'-x, -y, -z'
  3	'-x, y, -z+.5'
  4	'x, y, z'
  5	'x+.5, -y+.5, z+.5'
  6	'-x+.5, -y+.5, -z'
  7	'-x+.5, y+.5, -z+.5'
  8	'x+.5, y+.5, z'
loop_
_atom_type_symbol
_atom_type_oxidation_number
Cr3+	3
Na1+	1
O2-	-2
Si4+	4
loop_
_atom_site_label
_atom_site_type_symbol
_atom_site_symmetry_multiplicity
_atom_site_Wyckoff_symbol
_atom_site_fract_x
_atom_site_fract_y
_atom_site_fract_z
_atom_site_occupancy
_atom_site_attached_hydrogens
_atom_site_B_iso_or_equiv
O1 O2- 8 f 0.1140(4) 0.0782(4) 0.1362(7) 1. 0 0.94(6) 
O2 O2- 8 f 0.3611(5) 0.2573(5) 0.3025(9) 1. 0 1.44(7) 
O3 O2- 8 f 0.3519(4) 0.0094(5) 0.0074(8) 1. 0 1.29(6) 
Si1 Si4+ 8 f 0.2921(2) 0.0912(2) 0.2324(3) 1. 0 0.83(3) 
Cr1 Cr3+ 4 e 0 0.9066(1) 0.25 1. 0 0.84(3) 
Na1 Na1+ 4 e 0 0.3010(4) 0.25 1. 0 2.44(8) 

#End of data_10240-ICSD


