data_158138-ICSD
#?2014 by Fachinformationszentrum Karlsruhe, and the U.S. Secretary of 
#Commerce on behalf of the United States.  All rights reserved.
_database_code_ICSD                158138
_audit_creation_date               2008/02/01
_chemical_name_systematic          'Calcium Iron Catena-disilicate'
_chemical_formula_structural       'Ca Fe (Si2 O6)'
_chemical_formula_sum              'Ca1 Fe1 O6 Si2'
_chemical_name_mineral             Hedenbergite
_publ_section_title
;
Characterization of synthetic hedenbergite (Ca Fe Si2 O6) - 
petedunnite (Ca Zn Si2 O6) solid solution series by X-ray single 
crystal diffraction
;
loop_
_citation_id
_citation_journal_abbrev
_citation_year
_citation_journal_volume
_citation_page_first
_citation_page_last
_citation_journal_id_ASTM
primary 'Physics and Chemistry of Minerals' 2005 32 552 563 PCMIDU
_publ_author_name
;
Heuer, M.;Huber, A.L.;Bromiley, G.D.;Fehr, K.T.;Bente, K.
;
_cell_length_a                     9.8672(14)
_cell_length_b                     9.0469(12)
_cell_length_c                     5.2584(7)
_cell_angle_alpha                  90
_cell_angle_beta                   104.794(9)
_cell_angle_gamma                  90
_cell_volume                       453.84
_cell_formula_units_Z              4
_symmetry_space_group_name_H-M     'C 1 2/c 1'
_symmetry_Int_Tables_number        15
_refine_ls_R_factor_all            .0289
loop_
_symmetry_equiv_pos_site_id
_symmetry_equiv_pos_as_xyz
  1	'x, -y, z+.5'
  2	'-x, -y, -z'
  3	'-x, y, -z+.5'
  4	'x, y, z'
  5	'x+.5, -y+.5, z+.5'
  6	'-x+.5, -y+.5, -z'
  7	'-x+.5, y+.5, -z+.5'
  8	'x+.5, y+.5, z'
loop_
_atom_type_symbol
_atom_type_oxidation_number
Ca2+	2
Fe2+	2
O2-	-2
Si4+	4
loop_
_atom_site_label
_atom_site_type_symbol
_atom_site_symmetry_multiplicity
_atom_site_Wyckoff_symbol
_atom_site_fract_x
_atom_site_fract_y
_atom_site_fract_z
_atom_site_occupancy
_atom_site_attached_hydrogens
Ca1 Ca2+ 4 e 0.00000 0.30034(5) 0.25000 1. 0 
Fe1 Fe2+ 4 e 0.00000 0.90742(3) 0.25000 1. 0 
Si1 Si4+ 8 f 0.28782(4) 0.09250(4) 0.23271(7) 1. 0 
O1 O2- 8 f 0.11941(11) 0.09020(11) 0.15227(20) 1. 0 
O2 O2- 8 f 0.36288(12) 0.24625(12) 0.32396(20) 1. 0 
O3 O2- 8 f 0.35027(10) 0.01981(12) 0.99298(18) 1. 0 

loop_
_atom_site_aniso_label
_atom_site_aniso_type_symbol
_atom_site_aniso_U_11
_atom_site_aniso_U_22
_atom_site_aniso_U_33
_atom_site_aniso_U_12
_atom_site_aniso_U_13
_atom_site_aniso_U_23
Ca1 Ca2+ 0.01223(15) 0.01026(14) 0.00927(13) 0.00000 0.00011(11) 0.00000
Fe1 Fe2+ 0.00847(11) 0.00832(12) 0.00774(11) 0.00000 0.00122(8) 0.00000
Si1 Si4+ 0.00685(15) 0.00779(15) 0.00650(14) -0.00032(11) 0.00137(11) 
-0.00033(10)
O1 O2- 0.00705(35) 0.01168(40) 0.00877(35) 0.00003(28) 0.00115(29) 
0.00003(28)
O2 O2- 0.01347(41) 0.00860(37) 0.01159(34) -0.00281(34) 0.00259(31) 
-0.00104(30)
O3 O2- 0.00967(38) 0.01276(40) 0.00794(35) -0.00055(31) 0.00247(29) 
-0.00260(29)
#End of data_158138-ICSD


