data_50178-ICSD
#?2014 by Fachinformationszentrum Karlsruhe, and the U.S. Secretary of 
#Commerce on behalf of the United States.  All rights reserved.
_database_code_ICSD                50178
_audit_creation_date               1999/01/19
_audit_update_record               2012/02/01
_chemical_name_systematic
;
Calcium Catena-hexahydroxodizincate Dihydrate
;
_chemical_formula_structural       'Ca (Zn2 (O H)6) (H2 O)2'
_chemical_formula_sum              'H10 Ca1 O8 Zn2'
_publ_section_title
;
Zur Kristallstruktur von Ca Zn2 (O H)6.2H2 O
;
loop_
_citation_id
_citation_journal_abbrev
_citation_year
_citation_journal_volume
_citation_page_first
_citation_page_last
_citation_journal_id_ASTM
primary 'Zeitschrift fuer Anorganische und Allgemeine Chemie (1950) (DE)'
 1997 623 1287 1289 ZAACAB
_publ_author_name                  'Stahl, R.;Jacobs, H.'
_cell_length_a                     6.372(1)
_cell_length_b                     10.940(2)
_cell_length_c                     5.749(2)
_cell_angle_alpha                  90.
_cell_angle_beta                   101.94(2)
_cell_angle_gamma                  90.
_cell_volume                       392.09
_cell_formula_units_Z              2
_symmetry_space_group_name_H-M     'P 1 21/c 1'
_symmetry_Int_Tables_number        14
_refine_ls_R_factor_all            .011
loop_
_symmetry_equiv_pos_site_id
_symmetry_equiv_pos_as_xyz
  1	'x, -y+.5, z+.5'
  2	'-x, -y, -z'
  3	'-x, y+.5, -z+.5'
  4	'x, y, z'
loop_
_atom_type_symbol
_atom_type_oxidation_number
Ca2+	2
H1+	1
O2-	-2
Zn2+	2
loop_
_atom_site_label
_atom_site_type_symbol
_atom_site_symmetry_multiplicity
_atom_site_Wyckoff_symbol
_atom_site_fract_x
_atom_site_fract_y
_atom_site_fract_z
_atom_site_occupancy
_atom_site_attached_hydrogens
_atom_site_B_iso_or_equiv
Zn1 Zn2+ 4 e 0.53317(3) 0.16494(2) 0.16384(3) 1. 0 0 
Ca1 Ca2+ 2 a 0 0 0 1. 0 0 
O1 O2- 4 e 0.4692(2) 0.1813(1) 0.81191(2) 1. 0 0 
O2 O2- 4 e 0.3378(2) 0.0429(1) 0.2458(2) 1. 0 0 
O3 O2- 4 e 0.8351(2) 0.1235(1) 0.2394(2) 1. 0 0 
O4 O2- 4 e 0.0377(2) 0.1601(1) 0.7368(2) 1. 0 0 
H1 H1+ 4 e 0.524(4) 0.116(2) 0.770(4) 1. 0 0.8(2) 
H2 H1+ 4 e 0.325(4) 0.054(2) 0.358(4) 1. 0 0.8(2) 
H3 H1+ 4 e 0.868(4) 0.111(2) 0.357(4) 1. 0 0.8(2) 
H4 H1+ 4 e 0.172(2) 0.169(2) 0.751(4) 1. 0 0.8(2) 
H5 H1+ 4 e 0.981(4) 0.229(2) 0.742(5) 1. 0 0.8(2) 

loop_
_atom_site_aniso_label
_atom_site_aniso_type_symbol
_atom_site_aniso_U_11
_atom_site_aniso_U_22
_atom_site_aniso_U_33
_atom_site_aniso_U_12
_atom_site_aniso_U_13
_atom_site_aniso_U_23
Zn1 Zn2+ 0.01275(6) 0.01287(7) 0.01663(7) -.00025(8) 0.00349(5) -.00073(8)
Ca1 Ca2+ 0.0123(2) 0.0117(2) 0.0158(2) 0.0005(2) 0.0032(1) -.0002(2)
O1 O2- 0.0186(5) 0.0140(5) 0.0164(5) 0.0013(5) 0.0044(4) 0.0016(5)
O2 O2- 0.0173(5) 0.0184(5) 0.0156(5) -.0032(5) 0.0033(4) -.0004(5)
O3 O2- 0.0135(5) 0.0212(5) 0.0182(5) 0.0030(5) 0.0018(4) -.0034(5)
O4 O2- 0.0186(5) 0.0188(5) 0.0257(5) -.0009(5) 0.0038(4) 0.0042(5)
#End of data_50178-ICSD


