data_90687-ICSD
#?2014 by Fachinformationszentrum Karlsruhe, and the U.S. Secretary of 
#Commerce on behalf of the United States.  All rights reserved.
_database_code_ICSD                90687
_audit_creation_date               2002/04/01
_chemical_name_systematic
;
Lanthanum Magnesium Titanium Oxide (1/0.5/0.5/3)
;
_chemical_formula_structural       'La (Mg0.5 Ti0.5) O3'
_chemical_formula_sum              'La1 Mg0.5 O3 Ti0.5'
_publ_section_title
;
Crystal structure and microwave dielectric properties of La (Mg1/2 
Ti1/2) O3 ceramics
;
loop_
_citation_id
_citation_journal_abbrev
_citation_year
_citation_journal_volume
_citation_page_first
_citation_page_last
_citation_journal_id_ASTM
primary 'Journal of Materials Science. Letters' 2000 19 131 134 JMSLD5
_publ_author_name
;
Lee, D.Y.;Yoon, S.-J.;Yeo, J.H.;Nahm, S.;Paik, J.H.;Whang, K.-C.;Ahn, 
B.G.
;
_cell_length_a                     5.5467(3)
_cell_length_b                     5.5616(3)
_cell_length_c                     7.8426(5)
_cell_angle_alpha                  90.
_cell_angle_beta                   89.9590(2)
_cell_angle_gamma                  90.
_cell_volume                       241.93
_cell_formula_units_Z              4
_symmetry_space_group_name_H-M     'P 1 21/n 1'
_symmetry_Int_Tables_number        14
_refine_ls_R_factor_all            .067
loop_
_symmetry_equiv_pos_site_id
_symmetry_equiv_pos_as_xyz
  1	'-x+.5, y+.5, -z+.5'
  2	'-x, -y, -z'
  3	'x+.5, -y+.5, z+.5'
  4	'x, y, z'
loop_
_atom_type_symbol
_atom_type_oxidation_number
La3+	3
Mg2+	2
O2-	-2
Ti4+	4
loop_
_atom_site_label
_atom_site_type_symbol
_atom_site_symmetry_multiplicity
_atom_site_Wyckoff_symbol
_atom_site_fract_x
_atom_site_fract_y
_atom_site_fract_z
_atom_site_occupancy
_atom_site_attached_hydrogens
_atom_site_B_iso_or_equiv
La1 La3+ 4 e 0.4942(5) 0.5296(1) 0.2496(9) 1. 0 0.9268(1) 
Mg1 Mg2+ 2 c 0 0.5 0 1. 0 1.2810(6) 
Ti1 Ti4+ 2 d 0.5 0 0 1. 0 -.1961(6) 
O1 O2- 4 e 0.2793(8) 0.2621(8) 0.0552(7) 1. 0 0.7008(9) 
O2 O2- 4 e 0.2295(9) 0.7987(1) 0.0328(7) 1. 0 0.7008(9) 
O3 O2- 4 e 0.5737(6) 0.9864 0.2444(6) 1. 0 0.7008(9) 

#End of data_90687-ICSD


