data_426845-ICSD
#?2014 by Fachinformationszentrum Karlsruhe, and the U.S. Secretary of 
#Commerce on behalf of the United States.  All rights reserved.
_database_code_ICSD                426845
_audit_creation_date               2014/08/01
_chemical_name_systematic
;
Barium Zinc Zirconium Sulfide (6/6/1/14)
;
_chemical_formula_structural       'Ba6 Zn6 Zr S14'
_chemical_formula_sum              'Ba6 S14 Zn6 Zr1'
_publ_section_title
;
Quaternary sulfide Ba6 Zn6 Zr S14: synthesis, crystal structure, band 
structure, and multiband physical properties
;
loop_
_citation_id
_citation_journal_abbrev
_citation_year
_citation_journal_volume
_citation_journal_issue
_citation_page_first
_citation_page_last
_citation_journal_id_ASTM
primary 'Chemistry - A European Journal' 2014 20 20 5977 5982 CEUJED
_publ_author_name
;
Zhang, Xian;He, Jianqiao;Chen, Wei;Zhang, Ketian;Zheng, Chong;Sun, 
Junliang;Liao, Fuhui;Lin, Jianhua;Huang, Fuqiang
;
_cell_length_a                     16.3481(4)
_cell_length_b                     16.3481(4)
_cell_length_c                     9.7221(6)
_cell_angle_alpha                  90.00
_cell_angle_beta                   90.00
_cell_angle_gamma                  90.00
_cell_volume                       2598.33
_cell_formula_units_Z              4
_symmetry_space_group_name_H-M     'I 4/m c m'
_symmetry_Int_Tables_number        140
_refine_ls_R_factor_all            .0172
loop_
_symmetry_equiv_pos_site_id
_symmetry_equiv_pos_as_xyz
  1	'y, x, -z+.5'
  2	'-y, -x, -z+.5'
  3	'-y, x, -z'
  4	'y, -x, -z'
  5	'x, -y, -z+.5'
  6	'-x, y, -z+.5'
  7	'x, y, -z'
  8	'-x, -y, -z'
  9	'-y, -x, z+.5'
 10	'y, x, z+.5'
 11	'y, -x, z'
 12	'-y, x, z'
 13	'-x, y, z+.5'
 14	'x, -y, z+.5'
 15	'-x, -y, z'
 16	'x, y, z'
 17	'y+.5, x+.5, -z'
 18	'-y+.5, -x+.5, -z'
 19	'-y+.5, x+.5, -z+.5'
 20	'y+.5, -x+.5, -z+.5'
 21	'x+.5, -y+.5, -z'
 22	'-x+.5, y+.5, -z'
 23	'x+.5, y+.5, -z+.5'
 24	'-x+.5, -y+.5, -z+.5'
 25	'-y+.5, -x+.5, z'
 26	'y+.5, x+.5, z'
 27	'y+.5, -x+.5, z+.5'
 28	'-y+.5, x+.5, z+.5'
 29	'-x+.5, y+.5, z'
 30	'x+.5, -y+.5, z'
 31	'-x+.5, -y+.5, z+.5'
 32	'x+.5, y+.5, z+.5'
loop_
_atom_type_symbol
_atom_type_oxidation_number
Ba2+	2
S2-	-2
Zn2+	2
Zr4+	4
loop_
_atom_site_label
_atom_site_type_symbol
_atom_site_symmetry_multiplicity
_atom_site_Wyckoff_symbol
_atom_site_fract_x
_atom_site_fract_y
_atom_site_fract_z
_atom_site_occupancy
_atom_site_attached_hydrogens
_atom_site_U_iso_or_equiv
Ba1 Ba2+ 8 h 0.229276(18) 0.270724(18) 0.0000 1 0 0.00609(11) 
Ba2 Ba2+ 16 j 0.0000 0.196648(18) 0.2500 1 0 0.00662(9) 
Zn1 Zn2+ 16 l 0.08969(2) 0.41031(2) 0.15061(5) 1 0 0.00478(13) 
Zn2 Zn2+ 8 h 0.38283(3) 0.11717(3) 0.0000 1 0 0.00647(18) 
Zr1 Zr4+ 4 c 0.0000 0.0000 0.0000 1 0 0.0237(3) 
S1 S2- 16 k 0.01572(8) 0.32599(7) 0.0000 1 0 0.0065(3) 
S2 S2- 16 l 0.16951(5) 0.33049(5) 0.29151(12) 1 0 0.0072(3) 
S3 S2- 16 k 0.11264(8) 0.11166(8) 0.0000 1 0 0.0096(3) 
S4 S2- 4 a 0.0000 0.0000 0.2500 1 0 0.0170(6) 
S5 S2- 4 b 0.0000 0.5000 0.2500 1 0 0.0049(5) 

loop_
_atom_site_aniso_label
_atom_site_aniso_type_symbol
_atom_site_aniso_U_11
_atom_site_aniso_U_22
_atom_site_aniso_U_33
_atom_site_aniso_U_12
_atom_site_aniso_U_13
_atom_site_aniso_U_23
Ba1 Ba2+ 0.00625(14) 0.00625(14) 0.0058(2) 0.00159(17) 0.000 0.000
Ba2 Ba2+ 0.00659(15) 0.00523(15) 0.00803(16) 0.000 0.00108(11) 0.000
Zn1 Zn2+ 0.00482(18) 0.00482(18) 0.0047(3) 0.0004(2) 0.00034(15) 
-0.00034(15)
Zn2 Zn2+ 0.0072(3) 0.0072(3) 0.0051(4) 0.0005(3) 0.000 0.000
Zr1 Zr4+ 0.0038(3) 0.0038(3) 0.0636(9) 0.000 0.000 0.000
S1 S2- 0.0077(6) 0.0047(6) 0.0072(6) -0.0010(5) 0.000 0.000
S2 S2- 0.0084(4) 0.0084(4) 0.0048(5) 0.0042(5) -0.0001(3) 0.0001(3)
S3 S2- 0.0060(6) 0.0037(6) 0.0190(7) -0.0010(5) 0.000 0.000
S4 S2- 0.0119(8) 0.0119(8) 0.0271(15) 0.000 0.000 0.000
S5 S2- 0.0034(7) 0.0034(7) 0.0080(11) 0.000 0.000 0.000
#End of data_426845-ICSD


