data_260192-ICSD
#?2014 by Fachinformationszentrum Karlsruhe, and the U.S. Secretary of 
#Commerce on behalf of the United States.  All rights reserved.
_database_code_ICSD                260192
_audit_creation_date               2009/08/01
_chemical_name_systematic
;
Dipotassium Hydrogen Chromatoarsenate - Phase I
;
_chemical_formula_structural       'K2 (H Cr2 As O10)'
_chemical_formula_sum              'H1 As1 Cr2 K2 O10'
_publ_section_title
;
K2 [H Cr2 As O10]: redetermination of phase II and the predicted 
structure of phase I
;
loop_
_citation_id
_citation_journal_abbrev
_citation_year
_citation_journal_volume
_citation_page_first
_citation_page_last
_citation_journal_id_ASTM
primary 'Acta Crystallographica, Section C: Crystal Structure Communications'
 2004 60 i113 i116 ACSCEE
_publ_author_name
;
Weakley, T.J.R.;Ylvisaker, E.R.;Yager, R.J.;Wu, P.;Photinos, 
P.;Abrahams, S.C.
;
_cell_length_a                     7.6963(9)
_cell_length_b                     7.6963(9)
_cell_length_c                     14.6171(11)
_cell_angle_alpha                  90.
_cell_angle_beta                   90.
_cell_angle_gamma                  120.
_cell_volume                       749.82
_cell_formula_units_Z              3
_symmetry_space_group_name_H-M     'P 32 2 1'
_symmetry_Int_Tables_number        154
_refine_ls_R_factor_all            .0228
loop_
_symmetry_equiv_pos_site_id
_symmetry_equiv_pos_as_xyz
  1	'-x, -x+y, -z+.6667'
  2	'x-y, -y, -z+.3333'
  3	'y, x, -z'
  4	'-x+y, -x, z+.3333'
  5	'-y, x-y, z+.6667'
  6	'x, y, z'
loop_
_atom_type_symbol
_atom_type_oxidation_number
As5+	5
Cr6+	6
H1+	1
K1+	1
O2-	-2
loop_
_atom_site_label
_atom_site_type_symbol
_atom_site_symmetry_multiplicity
_atom_site_Wyckoff_symbol
_atom_site_fract_x
_atom_site_fract_y
_atom_site_fract_z
_atom_site_occupancy
_atom_site_attached_hydrogens
As1 As5+ 3 b 0.12958 0 0.16667 1. 0 
Cr1 Cr6+ 6 c 0.42606 0.42195 0.25475 1. 0 
O1 O2- 6 c 0.6139 0.4608 0.3210 1. 0 
O2 O2- 6 c 0.4866 0.5949 0.1812 1. 0 
O3 O2- 6 c 0.2401 0.3968 0.3162 1. 0 
O4 O2- 6 c 0.3477 0.1874 0.1918 1. 0 
O5 O2- 6 c -0.0133 -0.0598 0.2518 1. 0 
K1 K1+ 3 a 0.44134 0.44134 0 1. 0 
K2 K1+ 3 b 0.60914 0 0.16667 1. 0 
H1 H1+ 3 a 0.0532 0.0532 0 1. 0 

#End of data_260192-ICSD


