data_90872-ICSD
#?2014 by Fachinformationszentrum Karlsruhe, and the U.S. Secretary of 
#Commerce on behalf of the United States.  All rights reserved.
_database_code_ICSD                90872
_audit_creation_date               2002/04/01
_chemical_name_systematic          'Rubidium Trisilver Telluride'
_chemical_formula_structural       'Rb Ag3 Te2'
_chemical_formula_sum              'Ag3 Rb1 Te2'
_publ_section_title
;
Synthesis and structural characterization of Cs Ag5 Se3 and Rb Ag3 
Te2
;
loop_
_citation_id
_citation_journal_abbrev
_citation_year
_citation_journal_volume
_citation_page_first
_citation_page_last
_citation_journal_id_ASTM
primary 'Journal of Chemical Crystallography' 2000 30 223 226 JCCYEV
_publ_author_name
;
Eanes, M.E.;Schimek, G.L.;Kolis, J.W.
;
_cell_length_a                     17.5460(20)
_cell_length_b                     4.617(2)
_cell_length_c                     9.165(2)
_cell_angle_alpha                  90.
_cell_angle_beta                   113.04(2)
_cell_angle_gamma                  90.
_cell_volume                       683.23
_cell_formula_units_Z              4
_symmetry_space_group_name_H-M     'C 1 2/m 1'
_symmetry_Int_Tables_number        12
_refine_ls_R_factor_all            .027
loop_
_symmetry_equiv_pos_site_id
_symmetry_equiv_pos_as_xyz
  1	'-x, y, -z'
  2	'-x, -y, -z'
  3	'x, -y, z'
  4	'x, y, z'
  5	'-x+.5, y+.5, -z'
  6	'-x+.5, -y+.5, -z'
  7	'x+.5, -y+.5, z'
  8	'x+.5, y+.5, z'
loop_
_atom_type_symbol
_atom_type_oxidation_number
Ag1+	1
Rb1+	1
Te2-	-2
loop_
_atom_site_label
_atom_site_type_symbol
_atom_site_symmetry_multiplicity
_atom_site_Wyckoff_symbol
_atom_site_fract_x
_atom_site_fract_y
_atom_site_fract_z
_atom_site_occupancy
_atom_site_attached_hydrogens
_atom_site_U_iso_or_equiv
Rb1 Rb1+ 4 i 0.1347(1) 0 0.0465(1) 1. 0 0.028(1) 
Te1 Te2- 4 i 0.2018(1) 0 0.7009(1) 1. 0 0.019(1) 
Te2 Te2- 4 i 0.5204(1) 0 0.2265(1) 1. 0 0.019(1) 
Ag1 Ag1+ 4 i 0.5878(1) 0 0.6255(1) 1. 0 0.037(1) 
Ag2 Ag1+ 4 i 0.6925(1) 0 0.4580(1) 1. 0 0.042(1) 
Ag3 Ag1+ 4 i 0.0622(1) 0 0.4078(1) 1. 0 0.041(1) 

#End of data_90872-ICSD


