data_60859-ICSD
#?2014 by Fachinformationszentrum Karlsruhe, and the U.S. Secretary of 
#Commerce on behalf of the United States.  All rights reserved.
_database_code_ICSD                60859
_audit_creation_date               1988/02/22
_audit_update_record               1991/06/25
_chemical_name_systematic          'Potassium Chromium Tetrafluoride'
_chemical_formula_structural       'K Cr F4'
_chemical_formula_sum              'Cr1 F4 K1'
_publ_section_title                'Zur Kenntnis von KCrF4'
loop_
_citation_id
_citation_journal_abbrev
_citation_year
_citation_journal_volume
_citation_page_first
_citation_page_last
_citation_journal_id_ASTM
primary 'Zeitschrift fuer Naturforschung, B: Chemical Sciences'
 1987 42 135 141 ZNBSEN
_publ_author_name                  'Kissel, D.;Hoppe, R.'
_cell_length_a                     15.732(2)
_cell_length_b                     7.433(1)
_cell_length_c                     18.331(4)
_cell_angle_alpha                  90.
_cell_angle_beta                   90.
_cell_angle_gamma                  90.
_cell_volume                       2143.55
_cell_formula_units_Z              24
_symmetry_space_group_name_H-M     'P n m a'
_symmetry_Int_Tables_number        62
_refine_ls_R_factor_all            .0904
loop_
_symmetry_equiv_pos_site_id
_symmetry_equiv_pos_as_xyz
  1	'x+.5, y, -z+.5'
  2	'x, -y+.5, z'
  3	'-x+.5, y+.5, z+.5'
  4	'-x, -y, -z'
  5	'-x+.5, -y, z+.5'
  6	'-x, y+.5, -z'
  7	'x+.5, -y+.5, -z+.5'
  8	'x, y, z'
loop_
_atom_type_symbol
_atom_type_oxidation_number
Cr3+	3
F1-	-1
K1+	1
loop_
_atom_site_label
_atom_site_type_symbol
_atom_site_symmetry_multiplicity
_atom_site_Wyckoff_symbol
_atom_site_fract_x
_atom_site_fract_y
_atom_site_fract_z
_atom_site_occupancy
_atom_site_attached_hydrogens
Cr1 Cr3+ 8 d 0.36841(5) 0.9994(1) 0.63120(4) 1. 0 
Cr2 Cr3+ 8 d 0.13565(5) 0.9980(1) 0.62642(5) 1. 0 
Cr3 Cr3+ 8 d 0.2529(1) 0.9991(1) 0.45319(3) 1. 0 
K1 K1+ 4 c 0.9556(1) 0.25 0.5319(1) 1. 0 
K2 K1+ 4 c 0.4604(1) 0.75 0.4768(1) 1. 0 
K3 K1+ 4 c 0.4316(1) 0.75 0.8193(1) 1. 0 
K4 K1+ 4 c 0.1002(1) 0.75 0.8344(1) 1. 0 
K5 K1+ 4 c 0.2200(1) 0.75 0.2896(1) 1. 0 
K6 K1+ 4 c 0.0419(1) 0.25 0.7877(1) 1. 0 
F1 F1- 8 d 0.4028(2) 0.0404(5) 0.7263(2) 1. 0 
F2 F1- 8 d 0.3356(2) 0.9606(4) 0.5307(1) 1. 0 
F3 F1- 8 d 0.4806(2) 0.9632(4) 0.6012(2) 1. 0 
F4 F1- 8 d 0.2516(2) 0.0462(3) 0.6591(1) 1. 0 
F5 F1- 8 d 0.1015(2) 0.9608(5) 0.7219(2) 1. 0 
F6 F1- 4 c 0.3840(3) 0.25 0.6082(2) 1. 0 
F7 F1- 4 c 0.1077(3) 0.25 0.6398(2) 1. 0 
F8 F1- 4 c 0.3542(3) 0.75 0.6528(2) 1. 0 
F9 F1- 4 c 0.1645(3) 0.75 0.6117(2) 1. 0 
F10 F1- 8 d 0.0272(2) 0.9593(4) 0.5912(2) 1. 0 
F11 F1- 4 c 0.2215(3) 0.75 0.4605(2) 1. 0 
F12 F1- 8 d 0.3362(2) 0.9425(4) 0.3852(2) 1. 0 
F13 F1- 8 d 0.1691(2) 0.0483(4) 0.5268(1) 1. 0 
F14 F1- 8 d 0.1720(2) 0.0189(4) 0.3812(2) 1. 0 
F15 F1- 4 c 0.2853(3) 0.25 0.4485(2) 1. 0 

loop_
_atom_site_aniso_label
_atom_site_aniso_type_symbol
_atom_site_aniso_U_11
_atom_site_aniso_U_22
_atom_site_aniso_U_33
_atom_site_aniso_U_12
_atom_site_aniso_U_13
_atom_site_aniso_U_23
Cr1 Cr3+ 0.0088(4) 0.0070(5) 0.0086(4) 0.0004(3) -.0009(3) 0.0003(4)
Cr2 Cr3+ 0.0078(4) 0.0075(5) 0.0111(4) 0.0000(4) 0.0007(3) 0.0002(4)
Cr3 Cr3+ 0.0106(3) 0.0064(3) 0.0085(3) 0.0007(4) 0.0003(3) 0.0009(4)
K1 K1+ 0.026(1) 0.020(1) 0.028(1) 0 -.0083(8) 0
K2 K1+ 0.0252(9) 0.0162(9) 0.0201(9) 0 0.0085(7) 0
K3 K1+ 0.0182(8) 0.0165(9) 0.0189(8) 0 0.0017(7) 0
K4 K1+ 0.0217(8) 0.0127(8) 0.0141(8) 0 -.0034(6) 0
K5 K1+ 0.0264(9) 0.0208(9) 0.0174(8) 0 -.0051(7) 0
K6 K1+ 0.0231(9) 0.0191(9) 0.0277(9) 0 0.0077(7) 0
F1 F1- 0.018(1) 0.020(2) 0.012(1) -.001(1) -.005(1) -.001(1)
F2 F1- 0.017(1) 0.020(2) 0.013(1) -.004(1) -.006(1) 0.004(1)
F3 F1- 0.010(1) 0.016(2) 0.023(1) 0.003(1) 0.001(1) 0.002(1)
F4 F1- 0.010(1) 0.013(1) 0.017(1) -.003(1) 0.000(1) 0.001(1)
F5 F1- 0.029(2) 0.020(2) 0.014(1) 0.006(1) 0.007(1) 0.006(1)
F6 F1- 0.021(2) 0.003(1) 0.017(2) 0 -.002(1) 0
F7 F1- 0.014(2) 0.010(2) 0.020(2) 0 0.004(1) 0
F8 F1- 0.020(2) 0.004(2) 0.024(2) 0 0.004(1) 0
F9 F1- 0.017(2) 0.007(2) 0.024(2) 0 0.003(1) 0
F10 F1- 0.0011(1) 0.017(2) 0.024(2) 0.002(1) -.002(1) -.001(1)
F11 F1- 0.020(2) 0.006(2) 0.024(2) 0 0.006(1) 0
F12 F1- 0.019(1) 0.010(1) 0.018(1) -.003(1) 0.004(1) -.001(1)
F13 F1- 0.016(1) 0.016(2) 0.009(1) 0.002(1) 0.002(1) 0.002(1)
F14 F1- 0.028(1) 0.021(2) 0.017(1) -.005(1) -.012(1) 0.011(2)
F15 F1- 0.023(2) 0.008(2) 0.025(2) 0 0.011(1) 0
#End of data_60859-ICSD


