data_87720-ICSD
#?2014 by Fachinformationszentrum Karlsruhe, and the U.S. Secretary of 
#Commerce on behalf of the United States.  All rights reserved.
_database_code_ICSD                87720
_audit_creation_date               2000/12/16
_audit_update_record               2008/02/01
_chemical_name_systematic
;
Potassium Gadolinium Bis(tungstate)
;
_chemical_formula_structural       'K Gd (W O4)2'
_chemical_formula_sum              'Gd1 K1 O8 W2'
_publ_section_title
;
Crystalline structure and optical spectroscopy of Er(3+)-doped K Gd 
(W O4)2 single crystals
;
loop_
_citation_id
_citation_journal_abbrev
_citation_year
_citation_journal_volume
_citation_page_first
_citation_page_last
_citation_journal_id_ASTM
primary 'Applied Physics B, Lasers and Optics' 1999 68 187 197 APBOEM
2 'Golden Book of Phase Transitions, Wroclaw' 2002 1 1 123 GBOPT5
_publ_author_name
;
Pujol, M.C.;Rico, M.;Zaldo, C.;Sole, R.;Nikolov, V.;Solans, 
X.;Aguilo, M.;Diaz, F.
;
_cell_length_a                     10.652(4)
_cell_length_b                     10.374(6)
_cell_length_c                     7.582(2)
_cell_angle_alpha                  90.
_cell_angle_beta                   130.80(2)
_cell_angle_gamma                  90.
_cell_volume                       634.24
_cell_formula_units_Z              4
_symmetry_space_group_name_H-M     'C 1 2/c 1'
_symmetry_Int_Tables_number        15
loop_
_symmetry_equiv_pos_site_id
_symmetry_equiv_pos_as_xyz
  1	'x, -y, z+.5'
  2	'-x, -y, -z'
  3	'-x, y, -z+.5'
  4	'x, y, z'
  5	'x+.5, -y+.5, z+.5'
  6	'-x+.5, -y+.5, -z'
  7	'-x+.5, y+.5, -z+.5'
  8	'x+.5, y+.5, z'
loop_
_atom_type_symbol
_atom_type_oxidation_number
Gd3+	3
K1+	1
O2-	-2
W6+	6
loop_
_atom_site_label
_atom_site_type_symbol
_atom_site_symmetry_multiplicity
_atom_site_Wyckoff_symbol
_atom_site_fract_x
_atom_site_fract_y
_atom_site_fract_z
_atom_site_occupancy
_atom_site_attached_hydrogens
Gd1 Gd3+ 4 e 0 0.7277(1) 0.25 1. 0 
W1 W6+ 8 f 0.1949(1) -.0001(1) 0.7359(1) 1. 0 
K1 K1+ 4 e 0.5 0.2000(3) 0.75 1. 0 
O1 O2- 8 f 0.3726(14) -.0741(12) 0.8106(18) 1. 0 
O2 O2- 8 f 0.0258(14) 0.8910(12) 0.4713(17) 1. 0 
O3 O2- 8 f 0.2690(13) 0.1593(12) 0.8686(17) 1. 0 
O4 O2- 8 f 0.1905(14) -.0749(12) 0.9381(18) 1. 0 

loop_
_atom_site_aniso_label
_atom_site_aniso_type_symbol
_atom_site_aniso_U_11
_atom_site_aniso_U_22
_atom_site_aniso_U_33
_atom_site_aniso_U_12
_atom_site_aniso_U_13
_atom_site_aniso_U_23
Gd1 Gd3+ 0.015(1) 0.013(1) 0.014(1) 0 0.010(1) 0
W1 W6+ 0.015(1) 0.013(1) 0.014(1) 0.000(1) 0.010(1) 0.000(1)
K1 K1+ 0.018(1) 0.018(1) 0.016(1) 0 0.012(1) 0
O1 O2- 0.060(7) 0.039(5) 0.048(5) -.003(5) 0.039(5) -.003(5)
O2 O2- 0.056(6) 0.040(5) 0.046(5) -.001(4) 0.036(5) 0.001(4)
O3 O2- 0.051(6) 0.044(5) 0.044(5) -.001(5) 0.033(5) 0.000(4)
O4 O2- 0.055(6) 0.044(5) 0.043(4) 0.002(5) 0.037(5) 0.000(5)
#End of data_87720-ICSD


