data_79672-ICSD
#?2014 by Fachinformationszentrum Karlsruhe, and the U.S. Secretary of 
#Commerce on behalf of the United States.  All rights reserved.
_database_code_ICSD                79672
_audit_creation_date               1996/10/14
_audit_update_record               2007/08/01
_chemical_name_systematic          'Magnesium Dialuminium Tetrasulfide'
_chemical_formula_structural       'Mg Al2 S4'
_chemical_formula_sum              'Al2 Mg1 S4'
_publ_section_title
;
Strukturverfeinerung von Mg Al2 S4 und strukturelle Analogiestudien 
zu Fe Al2 S4
;
loop_
_citation_id
_citation_journal_abbrev
_citation_year
_citation_journal_volume
_citation_page_first
_citation_page_last
_citation_journal_id_ASTM
primary 'Zeitschrift fuer Kristallographie (1979-2010)' 1989 186 30 31 ZEKRDZ
_publ_author_name                  'Bente, K.;Baumann, M.'
_cell_length_a                     12.54(1)
_cell_length_b                     7.253(6)
_cell_length_c                     5.920(4)
_cell_angle_alpha                  90.
_cell_angle_beta                   90.
_cell_angle_gamma                  90.
_cell_volume                       538.44
_cell_formula_units_Z              4
_symmetry_space_group_name_H-M     'P n m a'
_symmetry_Int_Tables_number        62
_refine_ls_R_factor_all            .036
loop_
_symmetry_equiv_pos_site_id
_symmetry_equiv_pos_as_xyz
  1	'x+.5, y, -z+.5'
  2	'x, -y+.5, z'
  3	'-x+.5, y+.5, z+.5'
  4	'-x, -y, -z'
  5	'-x+.5, -y, z+.5'
  6	'-x, y+.5, -z'
  7	'x+.5, -y+.5, -z+.5'
  8	'x, y, z'
loop_
_atom_type_symbol
_atom_type_oxidation_number
Al3+	3
Mg2+	2
S2-	-2
loop_
_atom_site_label
_atom_site_type_symbol
_atom_site_symmetry_multiplicity
_atom_site_Wyckoff_symbol
_atom_site_fract_x
_atom_site_fract_y
_atom_site_fract_z
_atom_site_occupancy
_atom_site_attached_hydrogens
Mg1 Mg2+ 4 c 0.2661(1) 0.25 0.9973(2) 1. 0 
Al1 Al3+ 4 c 0.08557(9) 0.25 0.4099(1) 1. 0 
Al2 Al3+ 4 a 0 0 0 1. 0 
S1 S2- 4 c 0.08558(8) 0.25 0.7837(1) 1. 0 
S2 S2- 4 c 0.42731(9) 0.25 0.2674(1) 1. 0 
S3 S2- 8 d 0.15900(6) 0.00734(8) 0.2420(1) 1. 0 

#End of data_79672-ICSD


