data_15768-ICSD
#?2014 by Fachinformationszentrum Karlsruhe, and the U.S. Secretary of 
#Commerce on behalf of the United States.  All rights reserved.
_database_code_ICSD                15768
_audit_creation_date               1980/01/01
_audit_update_record               2012/08/01
_chemical_name_systematic          'Lithium Manganate(III)'
_chemical_formula_structural       'Li (Mn O2)'
_chemical_formula_sum              'Li1 Mn1 O2'
_publ_section_title                'Ueber Li Mn O2 und beta Na Mn O2'
loop_
_citation_id
_citation_journal_abbrev
_citation_year
_citation_journal_volume
_citation_page_first
_citation_page_last
_citation_journal_id_ASTM
primary 'Zeitschrift fuer Anorganische und Allgemeine Chemie (1950) (DE)'
 1975 417 1 10 ZAACAB
_publ_author_name                  'Hoppe, R.;Brachtel, G.;Jansen, M.'
_cell_length_a                     2.805
_cell_length_b                     5.757
_cell_length_c                     4.572
_cell_angle_alpha                  90.
_cell_angle_beta                   90.
_cell_angle_gamma                  90.
_cell_volume                       73.83
_cell_formula_units_Z              2
_symmetry_space_group_name_H-M     'P m n m Z'
_symmetry_Int_Tables_number        59
_refine_ls_R_factor_all            .0668
loop_
_symmetry_equiv_pos_site_id
_symmetry_equiv_pos_as_xyz
  1	'x+.5, -y, z+.5'
  2	'-x, -y, z+.5'
  3	'x+.5, -y, -z'
  4	'-x, -y, -z'
  5	'-x+.5, y, -z+.5'
  6	'x, y, -z+.5'
  7	'-x+.5, y, z'
  8	'x, y, z'
loop_
_atom_type_symbol
_atom_type_oxidation_number
Li1+	1
Mn3+	3
O2-	-2
loop_
_atom_site_label
_atom_site_type_symbol
_atom_site_symmetry_multiplicity
_atom_site_Wyckoff_symbol
_atom_site_fract_x
_atom_site_fract_y
_atom_site_fract_z
_atom_site_occupancy
_atom_site_attached_hydrogens
_atom_site_B_iso_or_equiv
Mn1 Mn3+ 2 a 0.25 0.6347(2) 0.25 1. 0 0.27 
Li1 Li1+ 2 a 0.25 0.126(4) 0.25 1. 0 1.8 
O1 O2- 2 b 0.25 0.144(1) 0.75 1. 0 0.3 
O2 O2- 2 b 0.25 0.602(1) 0.75 1. 0 1.1 

#End of data_15768-ICSD


