data_96338-ICSD
#?2014 by Fachinformationszentrum Karlsruhe, and the U.S. Secretary of 
#Commerce on behalf of the United States.  All rights reserved.
_database_code_ICSD                96338
_audit_creation_date               2004/04/01
_audit_update_record               2007/04/01
_chemical_name_systematic
;
Pentalanthanum Magnesium Trirhenium(V) Oxide
;
_chemical_formula_structural       'La5 Mg Re3 O16'
_chemical_formula_sum              'La5 Mg1 O16 Re3'
_publ_section_title
;
Synthesis, structure and magnetic properties of the pillared 
perovskites La5 Re3 M O16 (M = Mg, Fe, Co, Ni)
;
loop_
_citation_id
_citation_journal_abbrev
_citation_year
_citation_journal_volume
_citation_page_first
_citation_page_last
_citation_journal_id_ASTM
primary 'Journal of Solid State Chemistry' 2003 170 165 175 JSSCBI
_publ_author_name
;
Chi Lisheng;Green, A.E.C.;Hammond, R.;Wiebe, C.R.;Greedan, J.E.
;
_cell_length_a                     7.9359(5)
_cell_length_b                     7.9963(5)
_cell_length_c                     10.1683(7)
_cell_angle_alpha                  90.196(4)
_cell_angle_beta                   94.878(3)
_cell_angle_gamma                  89.966(6)
_cell_volume                       642.92
_cell_formula_units_Z              2
_symmetry_space_group_name_H-M     'C -1'
_symmetry_Int_Tables_number        2
_refine_ls_R_factor_all            .0292
loop_
_symmetry_equiv_pos_site_id
_symmetry_equiv_pos_as_xyz
  1	'-x, -y, -z'
  2	'x, y, z'
  3	'-x+.5, -y+.5, -z'
  4	'x+.5, y+.5, z'
loop_
_atom_type_symbol
_atom_type_oxidation_number
La3+	3
Mg2+	2
O2-	-2
Re5+	5
loop_
_atom_site_label
_atom_site_type_symbol
_atom_site_symmetry_multiplicity
_atom_site_Wyckoff_symbol
_atom_site_fract_x
_atom_site_fract_y
_atom_site_fract_z
_atom_site_occupancy
_atom_site_attached_hydrogens
_atom_site_B_iso_or_equiv
La1 La3+ 4 i 0.228(1) 0.746(1) 0.8027(7) 1. 0 0.1(1) 
La2 La3+ 4 i 0.230(1) 0.263(1) 0.798(8) 1. 0 0.5(1) 
La3 La3+ 2 b 0.5 0.5 0.5 1. 0 0.5(1) 
Re1 Re5+ 4 i 0.0566(6) 0.499(1) 0.3936(4) 1. 0 0.1 
Re2 Re5+ 2 a 0 0 0 1. 0 0.1 
Mg1 Mg2+ 2 e 0 0.5 0 1. 0 0.4(2) 
O1 O2- 4 i 0.1925(9) 0.506(2) 0.5653(7) 1. 0 0.4(1) 
O2 O2- 4 i 0.2793(9) 0.499(2) 0.3230(7) 1. 0 0.5(1) 
O3 O2- 4 i -0.0393(8) 0.502(2) 0.1977(7) 1. 0 0.2(1) 
O4 O2- 4 i 0.0720(9) 0.006(2) 0.1845(8) 1. 0 0.4(1) 
O5 O2- 4 i 0.037(2) 0.734(1) 0.365(1) 1. 0 0.2(2) 
O6 O2- 4 i 0.039(1) 0.264(1) 0.369(1) 1. 0 0.7(2) 
O7 O2- 4 i -0.048(1) 0.247(1) -0.001(1) 1. 0 0.9(2) 
O8 O2- 4 i 0.237(1) 0.0404(9) -0.0346(8) 1. 0 0.5(2) 

#End of data_96338-ICSD


