data_169764-ICSD
#?2014 by Fachinformationszentrum Karlsruhe, and the U.S. Secretary of 
#Commerce on behalf of the United States.  All rights reserved.
_database_code_ICSD                169764
_audit_creation_date               2011/08/01
_chemical_name_systematic
;
Potassium Chromium Trifluoride - Lt
;
_chemical_formula_structural       'K Cr F3'
_chemical_formula_sum              'Cr1 F3 K1'
_publ_section_title
;
Neutron diffraction investigation of the crystal and magnetic 
structures in K Cr F3 perovskite
;
loop_
_citation_id
_citation_journal_abbrev
_citation_year
_citation_journal_volume
_citation_page_first
_citation_page_last
_citation_journal_id_ASTM
primary 'Physical Review, Serie 3. B - Condensed Matter (18,1978-)'
 2010 82 094437-1 094437-5 PRBMDO
_publ_author_name
;
Xiao, Y.;Su, Y.;Li, H.-F.;Kumar, C.M.N.;Mittal, R.;Persson, 
J.;Senyshyn, A.;Gross, K.;Brueckel, T.
;
_cell_length_a                     5.8069(7)
_cell_length_b                     5.8137(7)
_cell_length_c                     8.5871(7)
_cell_angle_alpha                  90.
_cell_angle_beta                   90.
_cell_angle_gamma                  93.671(5)
_cell_volume                       289.3
_cell_formula_units_Z              4
_symmetry_space_group_name_H-M     'I 1 1 2/m'
_symmetry_Int_Tables_number        12
_refine_ls_R_factor_all            .0276
loop_
_symmetry_equiv_pos_site_id
_symmetry_equiv_pos_as_xyz
  1	'x, y, -z'
  2	'-x, -y, -z'
  3	'-x, -y, z'
  4	'x, y, z'
  5	'x+.5, y+.5, -z+.5'
  6	'-x+.5, -y+.5, -z+.5'
  7	'-x+.5, -y+.5, z+.5'
  8	'x+.5, y+.5, z+.5'
loop_
_atom_type_symbol
_atom_type_oxidation_number
Cr2+	2
F1-	-1
K1+	1
loop_
_atom_site_label
_atom_site_type_symbol
_atom_site_symmetry_multiplicity
_atom_site_Wyckoff_symbol
_atom_site_fract_x
_atom_site_fract_y
_atom_site_fract_z
_atom_site_occupancy
_atom_site_attached_hydrogens
_atom_site_B_iso_or_equiv
K1 K1+ 4 g 0 0 0.247(2) 1. 0 1.3(2) 
Cr1 Cr2+ 2 c 0 0.5 0 1. 0 1.1(2) 
Cr2 Cr2+ 2 d 0 0.5 0.5 1. 0 1.4(2) 
F1 F1- 4 i 0.291(2) 0.718(2) 0 1. 0 1.6(2) 
F2 F1- 4 i 0.230(2) 0.197(2) 0 1. 0 1.7(2) 
F3 F1- 4 h 0 0.5 0.230(2) 1. 0 1.7(2) 

#End of data_169764-ICSD


