data_171931-ICSD
#?2014 by Fachinformationszentrum Karlsruhe, and the U.S. Secretary of 
#Commerce on behalf of the United States.  All rights reserved.
_database_code_ICSD                171931
_audit_creation_date               2007/04/01
_chemical_name_systematic
;
Trimanganese Zinc Calcium Catena-pentasiliacte
;
_chemical_formula_structural       'Mn3 Zn Ca Si5 O15'
_chemical_formula_sum              'Ca1 Mn3 O15 Si5 Zn1'
_chemical_name_mineral             Fowlerite
_publ_section_title
;
Crystal chemistry of Zn-rich rhodonite ("fowlerite")
;
loop_
_citation_id
_citation_journal_abbrev
_citation_year
_citation_journal_volume
_citation_page_first
_citation_page_last
_citation_journal_id_ASTM
primary 'American Mineralogist' 2005 90 969 983 AMMIAY
_publ_author_name                  'Nelson, W.R.;Griffen, D.T.'
_cell_length_a                     9.8393(9)
_cell_length_b                     10.4941(9)
_cell_length_c                     12.1977(13)
_cell_angle_alpha                  108.751(9)
_cell_angle_beta                   103.751(9)
_cell_angle_gamma                  82.091(9)
_cell_volume                       1155.87
_cell_formula_units_Z              4
_symmetry_space_group_name_H-M     'C -1'
_symmetry_Int_Tables_number        2
_refine_ls_R_factor_all            .061
loop_
_symmetry_equiv_pos_site_id
_symmetry_equiv_pos_as_xyz
  1	'-x, -y, -z'
  2	'x, y, z'
  3	'-x+.5, -y+.5, -z'
  4	'x+.5, y+.5, z'
loop_
_atom_type_symbol
_atom_type_oxidation_number
Ca2+	2
Mn2+	2
O2-	-2
Si4+	4
Zn2+	2
loop_
_atom_site_label
_atom_site_type_symbol
_atom_site_symmetry_multiplicity
_atom_site_Wyckoff_symbol
_atom_site_fract_x
_atom_site_fract_y
_atom_site_fract_z
_atom_site_occupancy
_atom_site_attached_hydrogens
_atom_site_U_iso_or_equiv
Mn1 Mn2+ 4 i -0.00166(6) 0.03116(5) 0.14652(5) 1. 0 0.0068(2) 
Mn2 Mn2+ 4 i 0.00066(6) 0.12629(5) 0.44394(5) 1. 0 0.0069(2) 
Mn3 Mn2+ 4 i 0.01659(6) 0.20350(5) 0.72902(5) 1. 0 0.0068(2) 
Zn1 Zn2+ 4 i 0.06736(6) 0.26305(5) 0.02148(4) 1. 0 0.0100(2) 
Ca1 Ca2+ 4 i 0.99327(7) 0.35632(7) 0.30409(7) 1. 0 0.0117(2) 
Si1 Si4+ 4 i 0.20478(10) 0.44852(9) 0.91125(8) 1. 0 0.0053(2) 
Si2 Si4+ 4 i 0.21313(10) 0.36537(9) 0.65353(8) 1. 0 0.0047(2) 
Si3 Si4+ 4 i 0.21691(10) 0.57916(9) 0.52866(8) 1. 0 0.0053(2) 
Si4 Si4+ 4 i 0.21294(10) 0.50565(9) 0.25923(8) 1. 0 0.0058(2) 
Si5 Si4+ 4 i 0.20221(10) 0.70052(9) 0.1235(8) 1. 0 0.0055(2) 
O1 O2- 4 i 0.1272(3) 0.0731(3) 0.0394(2) 1. 0 0.0076(4) 
O2 O2- 4 i 0.1183(3) 0.1581(3) 0.3220(2) 1. 0 0.0074(4) 
O3 O2- 4 i 0.1138(3) 0.9229(3) 0.4364(2) 1. 0 0.0077(4) 
O4 O2- 4 i 0.1204(3) 0.0136(3) 0.7331(2) 1. 0 0.0081(4) 
O5 O2- 4 i 0.1331(3) 0.7902(3) 0.8530(2) 1. 0 0.0087(5) 
O6 O2- 4 i 0.0953(3) 0.8320(3) 0.1277(2) 1. 0 0.0080(4) 
O7 O2- 4 i 0.1300(3) 0.3188(3) 0.9018(2) 1. 0 0.0095(4) 
O8 O2- 4 i 0.1262(3) 0.2344(3) 0.6102(2) 1. 0 0.0081(4) 
O9 O2- 4 i 0.1301(3) 0.7118(3) 0.5880(2) 1. 0 0.0119(5) 
O10 O2- 4 i 0.1238(3) 0.3798(3) 0.1799(2) 1. 0 0.0106(5) 
O11 O2- 4 i 0.1700(3) 0.4677(3) 0.7777(2) 1. 0 0.0078(4) 
O12 O2- 4 i 0.1599(3) 0.4577(3) 0.5634(2) 1. 0 0.0103(5) 
O13 O2- 4 i 0.1647(3) 0.5352(3) 0.3852(2) 1. 0 0.0094(5) 
O14 O2- 4 i 0.1561(3) 0.6429(3) 0.2203(2) 1. 0 0.0080(4) 
O15 O2- 4 i 0.1454(3) 0.5896(3) 0.9951(2) 1. 0 0.0082(4) 

loop_
_atom_site_aniso_label
_atom_site_aniso_type_symbol
_atom_site_aniso_U_11
_atom_site_aniso_U_22
_atom_site_aniso_U_33
_atom_site_aniso_U_12
_atom_site_aniso_U_13
_atom_site_aniso_U_23
Mn1 Mn2+ 0.0084 0.0046 0.0074 0.0018 0.0024 0.0003
Mn2 Mn2+ 0.0085 0.0058 0.0061 0.0018 0.0017 0.0001
Mn3 Mn2+ 0.0088 0.0051 0.0066 0.0014 0.0027 0.0002
Zn1 Zn2+ 0.0178 0.0056 0.0054 0.0018 -0.0010 -0.0024
Ca1 Ca2+ 0.0109 0.0117 0.0163 0.0077 0.0056 -0.0001
Si1 Si4+ 0.0062 0.0042 0.0051 0.0009 0.0008 -0.0006
Si2 Si4+ 0.0060 0.0039 0.0049 0.0016 0.0017 -0.0004
Si3 Si4+ 0.0061 0.0049 0.0049 0.0017 0.0014 0.0003
Si4 Si4+ 0.0064 0.0054 0.0058 0.0024 0.0014 0.0005
Si5 Si4+ 0.0073 0.0039 0.0050 0.0008 0.0020 0.0009
O1 O2- 0.0066 0.0081 0.0079 0.0031 0.0003 0.0003
O2 O2- 0.0057 0.0075 0.0089 0.0023 0.0012 -0.0011
O3 O2- 0.0071 0.0072 0.0077 0.0010 0.0003 -0.0023
O4 O2- 0.0073 0.0074 0.0106 0.0039 0.0034 0.0018
O5 O2- 0.0077 0.0067 0.0110 0.0022 0.0023 0.0010
O6 O2- 0.0086 0.0041 0.0102 0.0019 0.0008 0.0008
O7 O2- 0.0122 0.0077 0.0095 0.0026 0.0021 -0.0044
O8 O2- 0.0111 0.0057 0.0071 0.0015 0.0011 -0.0022
O9 O2- 0.0136 0.0088 0.0096 -0.0009 0.0031 0.0043
O10 O2- 0.0127 0.0081 0.0100 0.0010 0.0015 -0.0033
O11 O2- 0.0122 0.0073 0.0042 0.0014 0.0031 0.0005
O12 O2- 0.0080 0.0143 0.0121 0.0097 0.0006 -0.0001
O13 O2- 0.0111 0.0140 0.0040 0.0045 0.0012 -0.0006
O14 O2- 0.0094 0.0080 0.0086 0.0054 0.0036 0.0035
O15 O2- 0.0092 0.0072 0.0060 .0000 0.0016 0.0015
#End of data_171931-ICSD


