data_80341-ICSD
#?2014 by Fachinformationszentrum Karlsruhe, and the U.S. Secretary of 
#Commerce on behalf of the United States.  All rights reserved.
_database_code_ICSD                80341
_audit_creation_date               1997/05/13
_chemical_name_systematic          'Sodium Chlorate(V) - I'
_chemical_formula_structural       'Na (Cl O3)'
_chemical_formula_sum              'Cl1 Na1 O3'
_publ_section_title
;
The high-pressure behavior of Na Cl O3
;
loop_
_citation_id
_citation_journal_abbrev
_citation_year
_citation_journal_volume
_citation_page_first
_citation_page_last
_citation_journal_id_ASTM
primary 'Journal of Solid State Chemistry' 1995 118 378 382 JSSCBI
_publ_author_name                  'Sowa, H.'
_cell_length_a                     6.3403(6)
_cell_length_b                     6.3403(6)
_cell_length_c                     6.3403(6)
_cell_angle_alpha                  90.
_cell_angle_beta                   90.
_cell_angle_gamma                  90.
_cell_volume                       254.88
_cell_formula_units_Z              4
_symmetry_space_group_name_H-M     'P 21 3'
_symmetry_Int_Tables_number        198
_refine_ls_R_factor_all            .038
loop_
_symmetry_equiv_pos_site_id
_symmetry_equiv_pos_as_xyz
  1	'-z+.5, -x, y+.5'
  2	'-y+.5, -z, x+.5'
  3	'-x+.5, -y, z+.5'
  4	'-z, x+.5, -y+.5'
  5	'-y, z+.5, -x+.5'
  6	'-x, y+.5, -z+.5'
  7	'z+.5, -x+.5, -y'
  8	'y+.5, -z+.5, -x'
  9	'x+.5, -y+.5, -z'
 10	'z, x, y'
 11	'y, z, x'
 12	'x, y, z'
loop_
_atom_type_symbol
_atom_type_oxidation_number
Cl5+	5
Na1+	1
O2-	-2
loop_
_atom_site_label
_atom_site_type_symbol
_atom_site_symmetry_multiplicity
_atom_site_Wyckoff_symbol
_atom_site_fract_x
_atom_site_fract_y
_atom_site_fract_z
_atom_site_occupancy
_atom_site_attached_hydrogens
_atom_site_U_iso_or_equiv
Na1 Na1+ 4 a 0.071(1) 0.071(1) 0.071(1) 1. 0 0.019(1) 
Cl1 Cl5+ 4 a 0.4137(6) 0.4137(6) 0.4137(6) 1. 0 0.0144(7) 
O1 O2- 12 b 0.2962(5) 0.5949(6) 0.5045(6) 1. 0 0.021(1) 

#End of data_80341-ICSD


