data_20527-ICSD
#?2014 by Fachinformationszentrum Karlsruhe, and the U.S. Secretary of 
#Commerce on behalf of the United States.  All rights reserved.
_database_code_ICSD                20527
_audit_creation_date               1982/12/31
_chemical_name_systematic          'Dipotassium Dinickel Molybdate'
_chemical_formula_structural       'K2 Ni2 (Mo O4)3'
_chemical_formula_sum              'K2 Mo3 Ni2 O12'
_publ_section_title
;
The crystal structure of potassium-nickel molybdate K2 Ni2 (Mo O4)3
;
loop_
_citation_id
_citation_journal_abbrev
_citation_year
_citation_journal_volume
_citation_page_first
_citation_page_last
_citation_journal_id_ASTM
primary 'Zhurnal Strukturnoi Khimii (Issue-No. from 1981)'
 1982 23 176 179 ZSTKAI
_publ_author_name                  'Klevtsova, R.F.;Glinskaya, L.A.'
_cell_length_a                     6.952(3)
_cell_length_b                     8.910(3)
_cell_length_c                     19.733(10)
_cell_angle_alpha                  90.
_cell_angle_beta                   108.06(3)
_cell_angle_gamma                  90.
_cell_volume                       1162.09
_cell_formula_units_Z              4
_symmetry_space_group_name_H-M     'P 1 21/c 1'
_symmetry_Int_Tables_number        14
_refine_ls_R_factor_all            .068
loop_
_symmetry_equiv_pos_site_id
_symmetry_equiv_pos_as_xyz
  1	'x, -y+.5, z+.5'
  2	'-x, -y, -z'
  3	'-x, y+.5, -z+.5'
  4	'x, y, z'
loop_
_atom_type_symbol
_atom_type_oxidation_number
K1+	1
Mo6+	6
Ni2+	2
O2-	-2
loop_
_atom_site_label
_atom_site_type_symbol
_atom_site_symmetry_multiplicity
_atom_site_Wyckoff_symbol
_atom_site_fract_x
_atom_site_fract_y
_atom_site_fract_z
_atom_site_occupancy
_atom_site_attached_hydrogens
_atom_site_B_iso_or_equiv
Mo1 Mo6+ 4 e 0.0479(4) 0.3423(3) 0.2708(2) 1. 0 0.72 
Mo2 Mo6+ 4 e 0.1954(4) 0.2337(3) 0.0984(2) 1. 0 0.6 
Mo3 Mo6+ 4 e 0.5873(4) 0.3385(3) 0.4590(2) 1. 0 0.67 
Ni1 Ni2+ 4 e -.2762(7) 0.1526(5) 0.1351(3) 1. 0 0.38 
Ni2 Ni2+ 4 e -.0780(7) 0.5737(5) 0.5585(3) 1. 0 0.32 
K1 K1+ 4 e 0.1920(8) 0.0446(4) 0.4075(3) 1. 0 1.41 
K2 K1+ 4 e 0.4957(10) 0.0019(6) 0.2693(4) 1. 0 2.24 
O1 O2- 4 e -.162(4) 0.017(2) 0.223(1) 1. 0 0.68 
O2 O2- 4 e 0.210(5) 0.204(3) 0.261(2) 1. 0 1.64 
O3 O2- 4 e -.014(5) 0.304(3) 0.351(2) 1. 0 0.96 
O4 O2- 4 e -.182(4) 0.339(3) 0.194(1) 1. 0 0.43 
O5 O2- 4 e 0.443(5) 0.169(3) 0.146(2) 1. 0 0.52 
O6 O2- 4 e 0.170(5) 0.409(3) 0.130(2) 1. 0 0.64 
O7 O2- 4 e 0.168(4) 0.256(2) 0.006(1) 1. 0 0.74 
O8 O2- 4 e -.006(4) 0.121(2) 0.113(1) 1. 0 0.42 
O9 O2- 4 e 0.552(5) 0.205(3) 0.393(2) 1. 0 1.28 
O10 O2- 4 e 0.807(5) 0.448(3) 0.461(2) 1. 0 0.91 
O11 O2- 4 e 0.364(5) 0.460(3) 0.435(2) 1. 0 0.49 
O12 O2- 4 e -.379 0.270(3) 0.037(1) 1. 0 0.68 

#End of data_20527-ICSD


