data_391178-ICSD
#?2014 by Fachinformationszentrum Karlsruhe, and the U.S. Secretary of 
#Commerce on behalf of the United States.  All rights reserved.
_database_code_ICSD                391178
_audit_creation_date               2004/04/01
_chemical_name_systematic
;
Potassium Hydrogentrioxofluorophosphate(V)
;
_chemical_formula_structural       'K (H P O3 F)'
_chemical_formula_sum              'H1 F1 K1 O3 P1'
_publ_section_title
;
The crystal structures of the potassium hydrogen 
monofluorophosphates, K H P O3 F and K3 (H (P O3 F)2), and the alpha 
modification of Rb H P O3 F
;
loop_
_citation_id
_citation_journal_abbrev
_citation_year
_citation_journal_volume
_citation_page_first
_citation_page_last
_citation_journal_id_ASTM
primary 'Zeitschrift fuer Kristallographie (1979-2010)' 2003 218 604 611 ZEKRDZ
_publ_author_name
;
Prescott, H.A.;Troyanov, S.I.;Kemnitz, E.
;
_cell_length_a                     7.273(1)
_cell_length_b                     14.086(3)
_cell_length_c                     7.655(2)
_cell_angle_alpha                  90.
_cell_angle_beta                   90.13(3)
_cell_angle_gamma                  90.
_cell_volume                       784.23
_cell_formula_units_Z              8
_symmetry_space_group_name_H-M     'P 1 21 1'
_symmetry_Int_Tables_number        4
_refine_ls_R_factor_all            .0214
loop_
_symmetry_equiv_pos_site_id
_symmetry_equiv_pos_as_xyz
  1	'-x, y+.5, -z'
  2	'x, y, z'
loop_
_atom_type_symbol
_atom_type_oxidation_number
F1-	-1
H1+	1
K1+	1
O2-	-2
P5+	5
loop_
_atom_site_label
_atom_site_type_symbol
_atom_site_symmetry_multiplicity
_atom_site_Wyckoff_symbol
_atom_site_fract_x
_atom_site_fract_y
_atom_site_fract_z
_atom_site_occupancy
_atom_site_attached_hydrogens
_atom_site_U_iso_or_equiv
K1 K1+ 2 a 0.51000(13) 0.40632(8) 0.19385(13) 1. 0 0.0162(2) 
K2 K1+ 2 a 0.19605(15) 0.40318(8) 0.72124(12) 1. 0 0.0152(2) 
K3 K1+ 2 a 0.80798(15) 0.14393(8) 0.59161(13) 1. 0 0.0167(3) 
K4 K1+ 2 a 0.12103(14) 0.17410(7) 0.07438(15) 1. 0 0.0157(2) 
P1 P5+ 2 a 0.70038(17) 0.39931(9) 0.71443(14) 1. 0 0.0119(2) 
P2 P5+ 2 a 0.05218(16) 0.41638(8) 0.21792(16) 1. 0 0.0116(3) 
P3 P5+ 2 a 0.35433(17) 0.64428(9) -.11547(15) 1. 0 0.0109(3) 
P4 P5+ 2 a 0.70184(18) 0.66338(8) 0.40768(15) 1. 0 0.0137(3) 
O1 O2- 2 a 0.6127(5) 0.3513(3) 0.8652(4) 1. 0 0.0195(8) 
O2 O2- 2 a 0.8296(5) 0.3413(2) 0.6083(4) 1. 0 0.0201(9) 
O3 O2- 2 a 0.5457(5) 0.4443(3) 0.6009(5) 1. 0 0.0251(8) 
F1 F1- 2 a 0.8113(5) 0.4863(2) 0.7860(4) 1. 0 0.0375(8) 
O4 O2- 2 a 0.1452(5) 0.3715(2) 0.0688(4) 1. 0 0.0165(8) 
O5 O2- 2 a 0.1657(4) 0.4533(2) 0.3647(4) 1. 0 0.0189(8) 
O6 O2- 2 a -.1111(5) 0.3526(3) 0.2815(5) 1. 0 0.0282(9) 
F2 F1- 2 a -.0571(5) 0.5047(2) 0.1426(4) 1. 0 0.0367(8) 
O7 O2- 2 a 0.2168(5) 0.6033(2) -.2366(4) 1. 0 0.0181(8) 
O8 O2- 2 a 0.5029(5) 0.7069(3) -.1885(5) 1. 0 0.0183(8) 
O9 O2- 2 a 0.2622(4) 0.6917(2) 0.0458(4) 1. 0 0.0143(7) 
F3 F1- 2 a 0.4580(4) 0.5588(2) -.0267(4) 1. 0 0.0311(8) 
O10 O2- 2 a 0.8001(5) 0.7052(3) 0.2599(4) 1. 0 0.0221(9) 
O11 O2- 2 a 0.5869(5) 0.5764(2) 0.3690(5) 1. 0 0.0290(9) 
O12 O2- 2 a 0.5777(6) 0.7374(3) 0.4983(5) 1. 0 0.035(1) 
F4 F1- 2 a 0.8442(4) 0.6326(3) 0.5509(4) 1. 0 0.0332(8) 
H1 H1+ 2 a 0.591(10) 0.473(5) 0.536(8) 1. 0 0.09(3) 
H2 H1+ 2 a -.115(13) 0.348(7) 0.386(12) 1. 0 0.109 
H3 H1+ 2 a 0.302(8) 0.753(4) 0.066(8) 1. 0 0.05(2) 
H4 H1+ 2 a 0.550(7) 0.719(4) 0.609(7) 1. 0 0.029 

loop_
_atom_site_aniso_label
_atom_site_aniso_type_symbol
_atom_site_aniso_U_11
_atom_site_aniso_U_22
_atom_site_aniso_U_33
_atom_site_aniso_U_12
_atom_site_aniso_U_13
_atom_site_aniso_U_23
K1 K1+ 0.0138(5) 0.0160(5) 0.0187(5) 0.0021(5) 0.0005(4) -0.0035(5)
K2 K1+ 0.0167(5) 0.0142(5) 0.0147(5) -0.0031(6) 0.0005(4) 0.0013(5)
K3 K1+ 0.0184(6) 0.0147(5) 0.0171(5) 0.0031(5) 0.0014(4) 0.0000(5)
K4 K1+ 0.0150(5) 0.0152(6) 0.0169(5) -0.0022(5) -0.0003(4) 0.0010(4)
P1 P5+ 0.0135(5) 0.0089(6) 0.0134(6) -0.0022(6) -0.0006(5) 0.0022(6)
P2 P5+ 0.0119(5) 0.0115(7) 0.0114(6) 0.0007(6) 0.0005(5) -0.0001(5)
P3 P5+ 0.0134(6) 0.0093(6) 0.0100(6) 0.0007(6) 0.0023(5) -0.0024(5)
P4 P5+ 0.0160(6) 0.0120(7) 0.0129(6) 0.0006(6) 0.0002(5) 0.0022(5)
O1 O2- 0.026(2) 0.0175(17) 0.0155(17) 0.0062(15) 0.0113(15) 0.0061(14)
O2 O2- 0.019(2) 0.0237(19) 0.0173(18) 0.0022(16) 0.0101(16) 0.0059(14)
O3 O2- 0.0123(18) 0.0294(19) 0.034(2) -0.0021(15) -0.0046(17) 0.0237(17)
F1 F1- 0.0380(17) 0.0223(15) 0.052(2) -0.0116(15) -0.0040(17) -0.0112(15)
O4 O2- 0.022(2) 0.0178(18) 0.0101(16) 0.0000(15) 0.0063(16) -0.0020(14)
O5 O2- 0.0211(19) 0.0178(18) 0.0178(17) -0.0042(15) 0.0007(15) -0.0005(14)
O6 O2- 0.0248(19) 0.040(2) 0.0203(19) -0.0216(17) 0.0018(18) -0.0021(18)
F2 F1- 0.049(2) 0.0294(17) 0.0319(16) 0.0279(16) -0.0070(16) 0.0036(14)
O7 O2- 0.0186(17) 0.0197(19) 0.0161(17) -0.0076(16) -0.0013(15) -0.0046(14)
O8 O2- 0.0133(16) 0.0178(17) 0.0238(19) -0.0054(14) 0.0067(16) -0.0045(15)
O9 O2- 0.0156(17) 0.0122(17) 0.0152(16) -0.0035(15) 0.0093(13) -0.0019(13)
F3 F1- 0.044(2) 0.0216(15) 0.0275(16) 0.0137(15) -0.0043(14) 0.0030(12)
O10 O2- 0.030(2) 0.0175(18) 0.0189(19) -0.0017(18) 0.0065(18) 0.0005(15)
O11 O2- 0.0189(18) 0.0141(18) 0.054(2) -0.0076(15) -0.0029(19) -0.0008(17)
O12 O2- 0.053(3) 0.032(2) 0.0194(19) 0.025(2) 0.015(2) 0.0063(16)
F4 F1- 0.0224(16) 0.0449(18) 0.0325(17) 0.0015(15) -0.0072(14) 0.0153(16)
#End of data_391178-ICSD


