data_412076-ICSD
#?2014 by Fachinformationszentrum Karlsruhe, and the U.S. Secretary of 
#Commerce on behalf of the United States.  All rights reserved.
_database_code_ICSD                412076
_audit_creation_date               2002/10/01
_chemical_name_systematic
;
Disilver Dibismuth Trisulfide Dichloride
;
_chemical_formula_structural       'Ag2 Bi2 S3 Cl2'
_chemical_formula_sum              'Ag2 Bi2 Cl2 S3'
_publ_section_title
;
Die trikline Kristallstruktur von Ag2 Bi2 S3 Cl2: Pseudosymmetrie und 
Zwillingsbildung
;
loop_
_citation_id
_citation_journal_abbrev
_citation_year
_citation_journal_volume
_citation_page_first
_citation_page_last
_citation_journal_id_ASTM
primary 'Zeitschrift fuer Anorganische und Allgemeine Chemie (1950) (DE)'
 2002 628 453 457 ZAACAB
_publ_author_name                  'Ruck, M.'
_cell_length_a                     10.850(2)
_cell_length_b                     7.172(1)
_cell_length_c                     11.376(1)
_cell_angle_alpha                  89.80(1)
_cell_angle_beta                   74.80(1)
_cell_angle_gamma                  87.81(1)
_cell_volume                       853.62
_cell_formula_units_Z              4
_symmetry_space_group_name_H-M     'P -1'
_symmetry_Int_Tables_number        2
_refine_ls_R_factor_all            .031
loop_
_symmetry_equiv_pos_site_id
_symmetry_equiv_pos_as_xyz
  1	'-x, -y, -z'
  2	'x, y, z'
loop_
_atom_type_symbol
_atom_type_oxidation_number
Ag1+	1
Bi3+	3
Cl1-	-1
S2-	-2
loop_
_atom_site_label
_atom_site_type_symbol
_atom_site_symmetry_multiplicity
_atom_site_Wyckoff_symbol
_atom_site_fract_x
_atom_site_fract_y
_atom_site_fract_z
_atom_site_occupancy
_atom_site_attached_hydrogens
Bi1 Bi3+ 2 i 0.20320(5) 0.10942(5) 0.15653(4) 1. 0 
Bi2 Bi3+ 2 i 0.20137(5) 0.92872(6) 0.48881(4) 1. 0 
Bi3 Bi3+ 2 i 0.80060(5) 0.57088(6) 0.34261(4) 1. 0 
Bi4 Bi3+ 2 i 0.79318(5) 0.38806(5) 0.01414(4) 1. 0 
Ag1 Ag1+ 2 i 0.28101(11) 0.51442(11) 0.30319(7) 1. 0 
Ag2 Ag1+ 2 i 0.49504(10) 0.74358(12) 0.14188(9) 1. 0 
Ag3 Ag1+ 2 i 0.69966(10) 0.98060(11) 0.20142(7) 1. 0 
Ag4 Ag1+ 2 i 0.49659(10) 0.25464(12) 0.35805(9) 1. 0 
Cl1 Cl1- 2 i 0.0929(3) 0.7597(3) 0.2634(3) 1. 0 
Cl2 Cl1- 2 i 0.0884(3) 0.2938(3) 0.4313(3) 1. 0 
Cl3 Cl1- 2 i 0.8958(3) 0.2050(3) 0.2324(3) 1. 0 
Cl4 Cl1- 2 i 0.9012(3) 0.7514(3) 0.0624(3) 1. 0 
S1 S2- 2 i 0.3489(3) 0.4077(4) 0.0887(3) 1. 0 
S2 S2- 2 i 0.3432(3) 0.6186(4) 0.4844(3) 1. 0 
S3 S2- 2 i 0.3602(3) 0.0088(3) 0.2839(2) 1. 0 
S4 S2- 2 i 0.6534(3) 0.8777(4) 0.4144(3) 1. 0 
S5 S2- 2 i 0.6469(3) 0.0981(4) 0.0157(3) 1. 0 
S6 S2- 2 i 0.6344(3) 0.4957(3) 0.2199(2) 1. 0 

loop_
_atom_site_aniso_label
_atom_site_aniso_type_symbol
_atom_site_aniso_U_11
_atom_site_aniso_U_22
_atom_site_aniso_U_33
_atom_site_aniso_U_12
_atom_site_aniso_U_13
_atom_site_aniso_U_23
Bi1 Bi3+ 0.0128(4) 0.0137(3) 0.0140(3) 0.0000(2) -.0041(3) 0.00078(18)
Bi2 Bi3+ 0.0142(4) 0.0136(3) 0.0136(3) 0.0001(2) -.0045(3) 0.00130(17)
Bi3 Bi3+ 0.0129(4) 0.0131(2) 0.0140(3) -.0004(2) -.0034(3) -.00005(18)
Bi4 Bi3+ 0.0122(4) 0.0137(3) 0.0134(3) -.0001(2) -.0031(3) 0.00044(18)
Ag1 Ag1+ 0.0387(7) 0.0276(5) 0.0208(5) -.0062(5) -.0101(4) -.0016(4)
Ag2 Ag1+ 0.0262(8) 0.0249(5) 0.0336(5) 0.0089(4) -.0078(5) -.0018(4)
Ag3 Ag1+ 0.0397(7) 0.0299(6) 0.0205(5) 0.0008(5) -.0125(5) 0.0053(4)
Ag4 Ag1+ 0.0238(8) 0.0295(5) 0.0353(6) -.0068(4) -.0032(5) 0.0014(4)
Cl1 Cl1- 0.020(2) 0.0193(14) 0.0246(16) -.0043(14) -.0064(15) 0.0063(11)
Cl2 Cl1- 0.018(2) 0.0194(14) 0.0205(15) 0.0021(14) -.0037(14) 0.0012(11)
Cl3 Cl1- 0.016(2) 0.0216(14) 0.0236(16) 0.0000(13) -.0026(14) -.0007(11)
Cl4 Cl1- 0.019(2) 0.0209(14) 0.0233(16) 0.0000(13) -.0054(15) -.0018(11)
S1 S2- 0.023(2) 0.0188(16) 0.0157(18) -.0003(14) -.0099(17) 0.0035(11)
S2 S2- 0.021(2) 0.0161(15) 0.0174(18) 0.0070(13) -.0044(16) 0.0009(11)
S3 S2- 0.0188(19) 0.0151(17) 0.0110(14) 0.0003(13) -.0033(13) -.0011(10)
S4 S2- 0.019(2) 0.0175(16) 0.0146(18) 0.0007(13) -.0058(17) 0.0001(11)
S5 S2- 0.017(2) 0.0190(16) 0.0168(18) -.0018(13) -.0078(16) 0.0001(11)
S6 S2- 0.0198(19) 0.0214(17) 0.0105(14) 0.0015(14) -.0070(13) 0.0007(10)
#End of data_412076-ICSD


