data_245253-ICSD
#?2014 by Fachinformationszentrum Karlsruhe, and the U.S. Secretary of 
#Commerce on behalf of the United States.  All rights reserved.
_database_code_ICSD                245253
_audit_creation_date               2007/08/01
_chemical_name_systematic
;
Barium Calcium Iridium(V) Oxide (3/1/2/9)
;
_chemical_formula_structural       'Ba Ca (Ir2 Ba2) O9'
_chemical_formula_sum              'Ba3 Ca1 Ir2 O9'
_publ_section_title
;
Crystal structures and magnetic properties of 6H-perovskite-type 
oxides Ba3 M Ir2 O9 (M = Mg, Ca, Sc, Ti, Zn, Sr, Zr, Cd and In)
;
loop_
_citation_id
_citation_journal_abbrev
_citation_year
_citation_journal_volume
_citation_journal_issue
_citation_page_first
_citation_page_last
_citation_journal_id_ASTM
primary 'Journal of Solid State Chemistry' 2006 179 8 2595 2601 JSSCBI
2 'Journal of Solid State Chemistry' 1976 19- 213 220 JSSCBI
_publ_author_name                  'Sakamoto, T.;Doi, Y.;Hinatsu, Y.'
_cell_length_a                     5.9121(3)
_cell_length_b                     10.2287(5)
_cell_length_c                     14.7584(12)
_cell_angle_alpha                  90
_cell_angle_beta                   91.144(3)
_cell_angle_gamma                  90
_cell_volume                       892.31
_cell_formula_units_Z              4
_symmetry_space_group_name_H-M     'C 1 2/c 1'
_symmetry_Int_Tables_number        15
_refine_ls_R_factor_all            .0231
loop_
_symmetry_equiv_pos_site_id
_symmetry_equiv_pos_as_xyz
  1	'x, -y, z+.5'
  2	'-x, -y, -z'
  3	'-x, y, -z+.5'
  4	'x, y, z'
  5	'x+.5, -y+.5, z+.5'
  6	'-x+.5, -y+.5, -z'
  7	'-x+.5, y+.5, -z+.5'
  8	'x+.5, y+.5, z'
loop_
_atom_type_symbol
_atom_type_oxidation_number
Ba2+	2
Ca2+	2
Ir5+	5
O2-	-2
loop_
_atom_site_label
_atom_site_type_symbol
_atom_site_symmetry_multiplicity
_atom_site_Wyckoff_symbol
_atom_site_fract_x
_atom_site_fract_y
_atom_site_fract_z
_atom_site_occupancy
_atom_site_attached_hydrogens
_atom_site_B_iso_or_equiv
Ba1 Ba2+ 4 e 0 -0.0012(5) 0.25 1. 0 0.20(8) 
Ba2 Ba2+ 8 f 0.0051(4) 0.3322(5) 0.0925(1) 1. 0 074(6) 
Ca1 Ca2+ 4 a 0 0 0 1. 0 0.2(1) 
Ir1 Ir5+ 8 f -0.0105(2) 0.3341(3) 0.8424(1) 1. 0 0.05(4) 
O1 O2- 4 e 0 0.526(4) 0.25 1. 0 1.2(2) 
O2 O2- 8 f 0.274(4) 0.256(3) 0.246(1) 1. 0 1.2(2) 
O3 O2- 8 f 0.017(4) 0.826(3) 0.097(2) 1. 0 1.2(2) 
O4 O2- 8 f 0.290(5) 0.080(3) 0.083(1) 1. 0 1.2(2) 
O5 O2- 8 f 0.759(5) 0.083(3) 0.089(1) 1. 0 1.2(2) 

#End of data_245253-ICSD


