data_411501-ICSD
#?2014 by Fachinformationszentrum Karlsruhe, and the U.S. Secretary of 
#Commerce on behalf of the United States.  All rights reserved.
_database_code_ICSD                411501
_audit_creation_date               2002/04/01
_chemical_name_systematic          'Tripotassium Borotetraantimonate'
_chemical_formula_structural       'K3 (B Sb4 O13)'
_chemical_formula_sum              'B1 K3 O13 Sb4'
_publ_section_title
;
Synthesis and crystal structure of K3 Sb4 B O13
;
loop_
_citation_id
_citation_journal_abbrev
_citation_year
_citation_journal_volume
_citation_journal_issue
_citation_page_first
_citation_page_last
_citation_journal_id_ASTM
primary 'Journal of Chemical Crystallography' 2000 30 1 49 53 JCCYEV
_publ_author_name                  'Ftini, M.M.;Haddad, A.;Jouini, T.'
_cell_length_a                     7.133(1)
_cell_length_b                     7.232(1)
_cell_length_c                     13.259(2)
_cell_angle_alpha                  82.00(1)
_cell_angle_beta                   99.77(1)
_cell_angle_gamma                  117.08(1)
_cell_volume                       598.67
_cell_formula_units_Z              2
_symmetry_space_group_name_H-M     'P -1'
_symmetry_Int_Tables_number        2
_refine_ls_R_factor_all            .0282
loop_
_symmetry_equiv_pos_site_id
_symmetry_equiv_pos_as_xyz
  1	'-x, -y, -z'
  2	'x, y, z'
loop_
_atom_type_symbol
_atom_type_oxidation_number
B3+	3
K1+	1
O2-	-2
Sb5+	5
loop_
_atom_site_label
_atom_site_type_symbol
_atom_site_symmetry_multiplicity
_atom_site_Wyckoff_symbol
_atom_site_fract_x
_atom_site_fract_y
_atom_site_fract_z
_atom_site_occupancy
_atom_site_attached_hydrogens
Sb1 Sb5+ 2 i 0.58040(5) -.06652(5) 0.60509(3) 1. 0 
Sb2 Sb5+ 2 i 0.16796(5) -.70613(5) 0.20676(3) 1. 0 
Sb3 Sb5+ 2 i 0.16304(5) -.20975(5) 0.20951(3) 1. 0 
Sb4 Sb5+ 2 i -.31802(5) -.69116(5) 0.21278(3) 1. 0 
K1 K1+ 2 i 0.2939(2) -.7821(2) -.30652(12) 1. 0 
K2 K1+ 2 i 0.0993(4) -.6047(4) 0.44523(13) 1. 0 
K3 K1+ 2 i 0.3095(2) -.7802(2) -.03259(11) 1. 0 
B1 B3+ 2 i -.1591(10) -.7303(10) 0.0228(5) 1. 0 
O1 O2- 2 i -.5924(7) 0.0846(7) 0.5391(3) 1. 0 
O2 O2- 2 i 0.2267(7) -.1808(6) 0.0693(3) 1. 0 
O3 O2- 2 i 0.0649(6) -.9931(6) 0.1694(3) 1. 0 
O4 O2- 2 i 0.3257(6) -.3270(6) 0.6375(3) 1. 0 
O5 O2- 2 i 0.2694(6) -.4181(6) 0.2463(3) 1. 0 
O6 O2- 2 i 0.2583(6) -.7753(7) 0.3500(3) 1. 0 
O7 O2- 2 i 0.4480(6) -.6164(6) 0.1600(3) 1. 0 
O8 O2- 2 i -.1030(6) -.7893(6) 0.2589(3) 1. 0 
O9 O2- 2 i -.5367(6) -.9863(6) 0.2509(3) 1. 0 
O10 O2- 2 i -.1360(6) -.3984(6) 0.1925(3) 1. 0 
O11 O2- 2 i -.3233(6) -.7511(7) 0.0727(3) 1. 0 
O12 O2- 2 i -.0521(6) -.3506(7) -.0645(3) 1. 0 
O13 O2- 2 i 0.1613(6) -.1949(6) 0.3609(3) 1. 0 

loop_
_atom_site_aniso_label
_atom_site_aniso_type_symbol
_atom_site_aniso_U_11
_atom_site_aniso_U_22
_atom_site_aniso_U_33
_atom_site_aniso_U_12
_atom_site_aniso_U_13
_atom_site_aniso_U_23
Sb1 Sb5+ 0.0051(2) 0.0059(2) 0.0057(2) 0.00313(14) 0.00085(13) 0.00035(13)
Sb2 Sb5+ 0.0039(2) 0.0048(2) 0.0072(2) 0.00271(14) 0.00111(13) 0.00024(13)
Sb3 Sb5+ 0.0039(2) 0.0041(2) 0.0067(2) 0.00209(14) 0.00080(13) -.00022(13)
Sb4 Sb5+ 0.0036(2) 0.0049(2) 0.0065(2) 0.00226(14) 0.00128(13) 0.00015(13)
K1 K1+ 0.0211(7) 0.0220(7) 0.0237(7) 0.0141(6) 0.0058(6) -.0029(6)
K2 K1+ 0.0621(13) 0.0685(14) 0.0189(8) 0.0550(12) 0.0003(8) -.0089(8)
K3 K1+ 0.0218(7) 0.0187(7) 0.0172(7) 0.0092(6) -.0056(5) -.0012(5)
B1 B3+ 0.013(3) 0.009(3) 0.009(3) 0.008(3) 0.004(2) 0.002(2)
O1 O2- 0.015(2) 0.016(2) 0.005(2) 0.012(2) 0.002(2) 0.001(2)
O2 O2- 0.015(2) 0.008(2) 0.008(2) 0.002(2) 0.004(2) -.001(2)
O3 O2- 0.007(2) 0.002(2) 0.016(2) 0.0031(15) -.0014(15) -.0007(15)
O4 O2- 0.007(2) 0.008(2) 0.008(2) 0.002(2) 0.0018(14) 0.0000(15)
O5 O2- 0.010(2) 0.004(2) 0.016(2) 0.004(2) -.001(2) 0.000(2)
O6 O2- 0.012(2) 0.016(2) 0.007(2) 0.012(2) 0.0001(15) -.001(2)
O7 O2- 0.004(2) 0.010(2) 0.011(2) 0.0040(15) 0.0027(14) 0.0021(15)
O8 O2- 0.005(2) 0.015(2) 0.010(2) 0.006(2) 0.0036(15) 0.002(2)
O9 O2- 0.006(2) 0.006(2) 0.005(2) 0.0013(15) 0.0008(14) -.0009(14)
O10 O2- 0.004(2) 0.004(2) 0.017(2) 0.0002(15) 0.001(2) 0.003(2)
O11 O2- 0.006(2) 0.018(2) 0.008(2) 0.006(2) -.0014(15) -.003(2)
O12 O2- 0.010(2) 0.015(2) 0.009(2) 0.006(2) 0.003(2) 0.003(2)
O13 O2- 0.007(2) 0.007(2) 0.009(2) 0.001(2) 0.0019(15) 0.0007(15)
#End of data_411501-ICSD


