data_200222-ICSD
#?2014 by Fachinformationszentrum Karlsruhe, and the U.S. Secretary of 
#Commerce on behalf of the United States.  All rights reserved.
_database_code_ICSD                200222
_audit_creation_date               1980/01/01
_audit_update_record               1987/04/03
_chemical_name_systematic          'Lithium Europium Sulfate'
_chemical_formula_structural       'Li Eu (S O4)2'
_chemical_formula_sum              'Eu1 Li1 O8 S2'
_publ_section_title
;
Crystal structure of lithium-europium double sulfate
;
loop_
_citation_id
_citation_journal_abbrev
_citation_year
_citation_journal_volume
_citation_page_first
_citation_page_last
_citation_journal_id_ASTM
primary Kristallografiya 1977 22 966 970 KRISAJ
2 'Soviet Physics, Crystallography (= Kristallografiya)'
 1977 22 551 553 SPHCA6
_publ_author_name
;
Sirotinkin, S.P.;Efremov, V.A.;Kovba, L.M.;Pokrovskii, A.N.
;
_cell_length_a                     7.632(4)
_cell_length_b                     7.632(4)
_cell_length_c                     5.566(3)
_cell_angle_alpha                  90.
_cell_angle_beta                   90.
_cell_angle_gamma                  90.
_cell_volume                       324.21
_cell_formula_units_Z              2
_symmetry_space_group_name_H-M     'P n n 2'
_symmetry_Int_Tables_number        34
_refine_ls_R_factor_all            .05
loop_
_symmetry_equiv_pos_site_id
_symmetry_equiv_pos_as_xyz
  1	'x+.5, -y+.5, z+.5'
  2	'-x+.5, y+.5, z+.5'
  3	'-x, -y, z'
  4	'x, y, z'
loop_
_atom_type_symbol
_atom_type_oxidation_number
Eu3+	3
Li1+	1
O2-	-2
S6+	6
loop_
_atom_site_label
_atom_site_type_symbol
_atom_site_symmetry_multiplicity
_atom_site_Wyckoff_symbol
_atom_site_fract_x
_atom_site_fract_y
_atom_site_fract_z
_atom_site_occupancy
_atom_site_attached_hydrogens
Eu1 Eu3+ 2 a 0 0 0.0154(2) 1. 0 
S1 S6+ 4 c 0.2867(1) 0.2871(1) 0.0069(4) 1. 0 
O1 O2- 4 c 0.2973(3) 0.1104(2) 0.1097(6) 1. 0 
O2 O2- 4 c 0.3112(3) 0.4156(3) 0.1959(6) 1. 0 
O3 O2- 4 c 0.1103(3) 0.2979(3) -.0908(6) 1. 0 
O4 O2- 4 c 0.4163(2) 0.3118(3) -.1769(6) 1. 0 
Li1 Li1+ 2 a 0 0 0.5 1. 0 

#End of data_200222-ICSD


