data_95831-ICSD
#?2014 by Fachinformationszentrum Karlsruhe, and the U.S. Secretary of 
#Commerce on behalf of the United States.  All rights reserved.
_database_code_ICSD                95831
_audit_creation_date               2004/04/01
_chemical_name_systematic          'Trirubidium Silver Oxide'
_chemical_formula_structural       'Rb3 Ag O2'
_chemical_formula_sum              'Ag1 O2 Rb3'
_publ_section_title
;
Synthesis annd crystal structure of Rb3 Ag O2
;
loop_
_citation_id
_citation_journal_abbrev
_citation_year
_citation_journal_volume
_citation_page_first
_citation_page_last
_citation_journal_id_ASTM
primary 'Zeitschrift fuer Anorganische und Allgemeine Chemie (1950) (DE)'
 2002 628 2500 2504 ZAACAB
_publ_author_name
;
Sofin, M.;Friese, K.;Nuss, J.;Peters, E.M.;Jansen, M.
;
_cell_length_a                     12.800(1)
_cell_length_b                     12.848(1)
_cell_length_c                     14.329(1)
_cell_angle_alpha                  90
_cell_angle_beta                   90
_cell_angle_gamma                  90
_cell_volume                       2356.47
_cell_formula_units_Z              16
_symmetry_space_group_name_H-M     'P 21 21 21'
_symmetry_Int_Tables_number        19
_refine_ls_R_factor_all            .0398
loop_
_symmetry_equiv_pos_site_id
_symmetry_equiv_pos_as_xyz
  1	'-x, y+.5, -z+.5'
  2	'x+.5, -y+.5, -z'
  3	'-x+.5, -y, z+.5'
  4	'x, y, z'
loop_
_atom_type_symbol
_atom_type_oxidation_number
Ag1+	1
O2-	-2
Rb1+	1
loop_
_atom_site_label
_atom_site_type_symbol
_atom_site_symmetry_multiplicity
_atom_site_Wyckoff_symbol
_atom_site_fract_x
_atom_site_fract_y
_atom_site_fract_z
_atom_site_occupancy
_atom_site_attached_hydrogens
_atom_site_U_iso_or_equiv
Ag1 Ag1+ 4 a 0.9997(2) 0.9977(2) 0.17544(7) 1. 0 0.0192(3) 
Ag2 Ag1+ 4 a 0.2342(1) 0.2557(1) 0.9195(1) 1. 0 0.0198(4) 
Ag3 Ag1+ 4 a 0.9993(2) 0.9906(2) 0.85054(8) 1. 0 0.0205(3) 
Ag4 Ag1+ 4 a 0.2288(1) 0.2341(1) 0.5929(1) 1. 0 0.0189(4) 
Rb1 Rb1+ 4 a 0.2021(2) 0.3038(2) 0.1452(2) 1. 0 0.0333(7) 
Rb2 Rb1+ 4 a 0.9895(2) 0.0045(2) 0.4249(1) 1. 0 0.0325(5) 
Rb3 Rb1+ 4 a 0.1959(2) 0.1971(2) 0.3607(2) 1. 0 0.0321(7) 
Rb4 Rb1+ 4 a 0.0685(2) 0.9168(2) 0.6281(1) 1. 0 0.0386(6) 
Rb5 Rb1+ 4 a 0.0057(2) 0.2127(1) 0.7272(1) 1. 0 0.0498(7) 
Rb6 Rb1+ 4 a 0.9805(2) 0.2846(2) 0.4944(1) 1. 0 0.0287(6) 
Rb7 Rb1+ 4 a 0.9874(2) 0.1997(2) 0.0075(1) 1. 0 0.0235(6) 
Rb8 Rb1+ 4 a 0.9474(1) 0.2497(2) 0.2443(1) 1. 0 0.0219(4) 
Rb9 Rb1+ 4 a 0.2055(2) 0.0100(2) 0.0088(1) 1. 0 0.0230(6) 
Rb10 Rb1+ 4 a 0.7826(2) 0.9790(2) 0.0092(1) 1. 0 0.0239(6) 
Rb11 Rb1+ 4 a 0.2471(2) 0.9554(2) 0.2612(1) 1. 0 0.0237(6) 
Rb12 Rb1+ 4 a 0.7346(2) 0.0440(2) 0.2441(1) 1. 0 0.0251(6) 
O1 O2- 4 a 0.610(1) 0.390(1) 0.823(1) 1. 0 0.028(5) 
O2 O2- 4 a 0.390(1) 0.616(1) 0.822(1) 1. 0 0.036(6) 
O3 O2- 4 a 0.349(1) 0.146(1) 0.917(1) 1. 0 0.024(4) 
O4 O2- 4 a 0.124(1) 0.366(1) 0.939(1) 1. 0 0.031(5) 
O5 O2- 4 a 0.387(1) 0.401(1) 0.143(1) 1. 0 0.023(4) 
O6 O2- 4 a 0.115(1) 0.884(1) 0.839(1) 1. 0 0.029(5) 
O7 O2- 4 a 0.339(1) 0.347(1) 0.607(1) 1. 0 0.023(4) 
O8 O2- 4 a 0.123(1) 0.120(1) 0.569(1) 1. 0 0.032(5) 

loop_
_atom_site_aniso_label
_atom_site_aniso_type_symbol
_atom_site_aniso_U_11
_atom_site_aniso_U_22
_atom_site_aniso_U_33
_atom_site_aniso_U_12
_atom_site_aniso_U_13
_atom_site_aniso_U_23
Ag1 Ag1+ 0.0196(5) 0.0173(5) 0.0206(4) -0.0003(5) -0.0003(9) -0.0004(7)
Ag2 Ag1+ 0.0176(7) 0.0197(7) 0.0222(6) 0.0010(6) 0.0015(6) 0.0012(6)
Ag3 Ag1+ 0.0187(5) 0.0211(7) 0.0217(5) 0.0006(5) -0.0011(8) -0.0002(7)
Ag4 Ag1+ 0.0199(8) 0.0162(7) 0.0207(6) 0.0007(6) 0.0008(6) 0.0002(6)
Rb1 Rb1+ 0.039(1) 0.035(1) 0.027(1) -0.018(1) 0.006(1) -0.0043(9)
Rb2 Rb1+ 0.028(1) 0.0286(8) 0.0406(7) 0.0060(8) 0.001(1) 0.004(1)
Rb3 Rb1+ 0.031(1) 0.033(1) 0.032(1) 0.013(1) -0.002(1) -0.001(1)
Rb4 Rb1+ 0.038(1) 0.045(1) 0.0320(9) -0.0170(9) -0.0076(9) 0.0006(8)
Rb5 Rb1+ 0.055(1) 0.040(1) 0.054(1) 0.021(1) 0.029(1) 0.0219(9)
Rb6 Rb1+ 0.025(1) 0.031(1) 0.031(1) 0.0025(9) -0.004(1) -0.008(1)
Rb7 Rb1+ 0.026(1) 0.0209(8) 0.0242(9) -0.0007(9) 0.0002(9) -0.0003(8)
Rb8 Rb1+ 0.0215(6) 0.0223(8) 0.0218(7) 0.001(1) -0.0002(9) -0.0002(6)
Rb9 Rb1+ 0.024(1) 0.023(1) 0.0228(9) 0.0001(8) 0.0018(8) 0.0017(9)
Rb10 Rb1+ 0.025(1) 0.0211(8) 0.026(1) -0.0003(8) 0.0005(9) -0.0002(8)
Rb11 Rb1+ 0.024(1) 0.024(1) 0.0226(8) -0.0030(8) 0.0007(8) 0.0006(8)
Rb12 Rb1+ 0.0232(9) 0.027(1) 0.025(1) 0.0001(8) 0.0029(8) 0.0024(8)
O1 O2- 0.041(8) 0.013(8) 0.031(8) -0.006(6) -0.002(7) -0.004(7)
O2 O2- 0.012(10) 0.044(9) 0.050(10) 0.020(7) -0.008(8) 0.005(7)
O3 O2- 0.045(9) 0.022(7) 0.017(7) -0.002(6) 0.005(6) -0.003(6)
O4 O2- 0.025(10) 0.020(7) 0.048(9) 0.010(7) -0.005(8) 0.003(7)
O5 O2- 0.016(7) 0.029(7) 0.024(6) -0.006(5) 0.001(6) -0.003(6)
O6 O2- 0.017(7) 0.029(8) 0.040(8) 0.013(6) 0.011(6) -0.008(7)
O7 O2- 0.031(8) 0.019(6) 0.019(6) 0.004(6) -0.001(6) 0.001(5)
O8 O2- 0.037(8) 0.009(7) 0.048(9) -0.016(6) 0.005(7) -0.006(7)
#End of data_95831-ICSD


