data_1915-ICSD
#?2014 by Fachinformationszentrum Karlsruhe, and the U.S. Secretary of 
#Commerce on behalf of the United States.  All rights reserved.
_database_code_ICSD                1915
_audit_creation_date               1980/01/01
_audit_update_record               2007/08/01
_chemical_name_systematic
;
Disodium Copper Bis(sulfate(VI)) Dihydrate
;
_chemical_formula_structural       'Na2 Cu (S O4)2 (H2 O)2'
_chemical_formula_sum              'H4 Cu1 Na2 O10 S2'
_chemical_name_mineral             Kroehnkite
_publ_section_title
;
Refinement of the crystal structure of kroehnkite
;
loop_
_citation_id
_citation_journal_abbrev
_citation_year
_citation_journal_volume
_citation_page_first
_citation_page_last
_citation_journal_id_ASTM
primary 'Acta Crystallographica B (24,1968-38,1982)' 1975 31 1753 1755 ACBCAR
_publ_author_name                  'Hawthorne, F.C.;Ferguson, R.B.'
_cell_length_a                     5.807(1)
_cell_length_b                     12.656(2)
_cell_length_c                     5.517(1)
_cell_angle_alpha                  90.
_cell_angle_beta                   108.32(1)
_cell_angle_gamma                  90.
_cell_volume                       384.91
_cell_formula_units_Z              2
_symmetry_space_group_name_H-M     'P 1 21/c 1'
_symmetry_Int_Tables_number        14
_refine_ls_R_factor_all            .031
loop_
_symmetry_equiv_pos_site_id
_symmetry_equiv_pos_as_xyz
  1	'x, -y+.5, z+.5'
  2	'-x, -y, -z'
  3	'-x, y+.5, -z+.5'
  4	'x, y, z'
loop_
_atom_type_symbol
_atom_type_oxidation_number
Cu2+	2
H1+	1
Na1+	1
O2-	-2
S6+	6
loop_
_atom_site_label
_atom_site_type_symbol
_atom_site_symmetry_multiplicity
_atom_site_Wyckoff_symbol
_atom_site_fract_x
_atom_site_fract_y
_atom_site_fract_z
_atom_site_occupancy
_atom_site_attached_hydrogens
_atom_site_B_iso_or_equiv
Cu1 Cu2+ 2 a 0 0 0 1. 0 0 
Na1 Na1+ 4 e 0.5714(3) 0.1247(1) 0.2099(3) 1. 0 0 
S1 S6+ 4 e 0.2375(1) 0.11793(6) 0.5445(1) 1. 0 0 
O1 O2- 4 e 0.0038(5) 0.1725(2) 0.4874(5) 1. 0 0 
O2 O2- 4 e 0.2911(4) 0.0573(2) 0.7844(4) 1. 0 0 
O3 O2- 4 e 0.2319(4) 0.0425(2) 0.3322(4) 1. 0 0 
O4 O2- 4 e 0.4385(4) 0.1923(2) 0.5617(4) 1. 0 0 
O5 O2- 4 e 0.8315(4) 0.1343(2) 0.9513(4) 1. 0 0 
H1 H1+ 4 e 0.927(9) 0.184(4) 0.992(9) 1. 0 0.5 
H2 H1+ 4 e 0.712(9) 0.140(4) 0.792(9) 1. 0 0.5 

#End of data_1915-ICSD


