data_249551-ICSD
#?2014 by Fachinformationszentrum Karlsruhe, and the U.S. Secretary of 
#Commerce on behalf of the United States.  All rights reserved.
_database_code_ICSD                249551
_audit_creation_date               2008/08/01
_chemical_name_systematic          'Tripotassium Hydrogen Bis(sulfate)'
_chemical_formula_structural       'K3 H (S O4)2'
_chemical_formula_sum              'H1 K3 O8 S2'
_publ_section_title
;
Analysis of phase transition pathways in X3 H (S O4)2 (X = Rb, N H4, 
K, Na): Variable temperature single-crystal X-ray diffraction studies
;
loop_
_citation_id
_citation_journal_abbrev
_citation_year
_citation_journal_volume
_citation_journal_issue
_citation_page_first
_citation_page_last
_citation_journal_id_ASTM
primary 'Inorganic Chemistry' 2007 46 11 4411 4421 INOCAJ
_publ_author_name                  'Swain, D.;Row, T.N.G.'
_cell_length_a                     14.7033(16)
_cell_length_b                     5.6841(6)
_cell_length_c                     9.7756(11)
_cell_angle_alpha                  90.00
_cell_angle_beta                   102.981(2)
_cell_angle_gamma                  90.00
_cell_volume                       796.12
_cell_formula_units_Z              4
_symmetry_space_group_name_H-M     'C 1 2/c 1'
_symmetry_Int_Tables_number        15
_refine_ls_R_factor_all            .025
loop_
_symmetry_equiv_pos_site_id
_symmetry_equiv_pos_as_xyz
  1	'x, -y, z+.5'
  2	'-x, -y, -z'
  3	'-x, y, -z+.5'
  4	'x, y, z'
  5	'x+.5, -y+.5, z+.5'
  6	'-x+.5, -y+.5, -z'
  7	'-x+.5, y+.5, -z+.5'
  8	'x+.5, y+.5, z'
loop_
_atom_type_symbol
_atom_type_oxidation_number
H1+	1
K1+	1
O2-	-2
S6+	6
loop_
_atom_site_label
_atom_site_type_symbol
_atom_site_symmetry_multiplicity
_atom_site_Wyckoff_symbol
_atom_site_fract_x
_atom_site_fract_y
_atom_site_fract_z
_atom_site_occupancy
_atom_site_attached_hydrogens
_atom_site_U_iso_or_equiv
K1 K1+ 8 f 0.19422(3) 0.23291(8) 0.65186(4) 1 0 0.02680(16) 
K2 K1+ 4 e 0.5000 0.25559(11) 0.7500 1 0 0.02375(17) 
S1 S6+ 8 f 0.38401(3) 0.22766(8) 1.03837(5) 1 0 0.01746(15) 
O1 O2- 8 f 0.48981(10) 0.1891(3) 1.06162(16) 1 0 0.0301(4) 
O2 O2- 8 f 0.34796(10) 0.2401(3) 0.88649(14) 1 0 0.0255(3) 
O3 O2- 8 f 0.36945(10) 0.4459(3) 1.10797(15) 1 0 0.0276(3) 
O4 O2- 8 f 0.34685(10) 0.0232(2) 1.09843(15) 1 0 0.0248(3) 
H1 H1+ 4 b 0.5000 0.0000 1.0000 1 0 0.12(2) 

loop_
_atom_site_aniso_label
_atom_site_aniso_type_symbol
_atom_site_aniso_U_11
_atom_site_aniso_U_22
_atom_site_aniso_U_33
_atom_site_aniso_U_12
_atom_site_aniso_U_13
_atom_site_aniso_U_23
K1 K1+ 0.0319(3) 0.0243(3) 0.0235(2) 0.00474(16) 0.00487(18) 0.00024(16)
K2 K1+ 0.0200(3) 0.0287(3) 0.0221(3) 0.000 0.0038(2) 0.000
S1 S6+ 0.0175(2) 0.0176(2) 0.0173(2) -0.00053(15) 0.00386(16) 0.00021(16)
O1 O2- 0.0171(7) 0.0369(8) 0.0352(8) -0.0003(6) 0.0035(6) 0.0005(7)
O2 O2- 0.0282(8) 0.0313(8) 0.0170(7) 0.0028(6) 0.0050(6) 0.0007(5)
O3 O2- 0.0340(8) 0.0214(7) 0.0274(7) -0.0025(6) 0.0063(6) -0.0068(6)
O4 O2- 0.0262(7) 0.0212(7) 0.0283(7) -0.0014(6) 0.0087(6) 0.0048(6)
#End of data_249551-ICSD


