data_417105-ICSD
#?2014 by Fachinformationszentrum Karlsruhe, and the U.S. Secretary of 
#Commerce on behalf of the United States.  All rights reserved.
_database_code_ICSD                417105
_audit_creation_date               2008/08/01
_chemical_name_systematic          'Gadolinium Potassium Palladate(II)'
_chemical_formula_structural       'Gd K Pd O3'
_chemical_formula_sum              'Gd1 K1 O3 Pd1'
_publ_section_title
;
Crystal growth and structural characterization of the new ordered 
palladates, Ln K Pd O3 (Ln = La, Pr, Nd, Sm - Gd) and the 
isostructural, partially Cu-substituted palladate, Pr K (Cu0.14 
Pd0.86) O3
;
loop_
_citation_id
_citation_journal_abbrev
_citation_year
_citation_journal_volume
_citation_journal_issue
_citation_page_first
_citation_page_last
_citation_journal_id_ASTM
primary 'Inorganic Chemistry' 2007 46 8 3116 3122 INOCAJ
_publ_author_name
;
Mugavero, S.J.;Smith, M.D.;zur Loye, H.C.
;
_cell_length_a                     13.0212(7)
_cell_length_b                     3.9096(2)
_cell_length_c                     7.3209(4)
_cell_angle_alpha                  90.00
_cell_angle_beta                   104.427(2)
_cell_angle_gamma                  90.00
_cell_volume                       360.94
_cell_formula_units_Z              4
_symmetry_space_group_name_H-M     'C 1 2/m 1'
_symmetry_Int_Tables_number        12
_refine_ls_R_factor_all            .024
loop_
_symmetry_equiv_pos_site_id
_symmetry_equiv_pos_as_xyz
  1	'-x, y, -z'
  2	'-x, -y, -z'
  3	'x, -y, z'
  4	'x, y, z'
  5	'-x+.5, y+.5, -z'
  6	'-x+.5, -y+.5, -z'
  7	'x+.5, -y+.5, z'
  8	'x+.5, y+.5, z'
loop_
_atom_type_symbol
_atom_type_oxidation_number
Gd3+	3
K1+	1
O2-	-2
Pd2+	2
loop_
_atom_site_label
_atom_site_type_symbol
_atom_site_symmetry_multiplicity
_atom_site_Wyckoff_symbol
_atom_site_fract_x
_atom_site_fract_y
_atom_site_fract_z
_atom_site_occupancy
_atom_site_attached_hydrogens
_atom_site_U_iso_or_equiv
Gd1 Gd3+ 4 i 0.65021(3) 0.0000 0.07626(5) 1 0 0.00863(12) 
Pd1 Pd2+ 4 i 0.00698(4) 0.0000 0.77923(7) 1 0 0.00764(13) 
K1 K1+ 4 i 0.35638(13) 0.0000 0.4371(2) 1 0 0.0146(3) 
O1 O2- 4 i 0.8295(4) 0.0000 0.1309(7) 1 0 0.0125(10) 
O2 O2- 4 i 0.4938(4) 0.0000 0.1937(8) 1 0 0.0132(10) 
O3 O2- 4 i 0.1528(3) 0.0000 0.2725(7) 1 0 0.0102(9) 

loop_
_atom_site_aniso_label
_atom_site_aniso_type_symbol
_atom_site_aniso_U_11
_atom_site_aniso_U_22
_atom_site_aniso_U_33
_atom_site_aniso_U_12
_atom_site_aniso_U_13
_atom_site_aniso_U_23
Gd1 Gd3+ 0.00720(17) 0.00776(17) 0.01117(18) 0.000 0.00272(12) 0.000
Pd1 Pd2+ 0.0070(2) 0.0056(2) 0.0103(3) 0.000 0.00217(17) 0.000
K1 K1+ 0.0139(7) 0.0169(7) 0.0132(7) 0.000 0.0036(6) 0.000
O1 O2- 0.009(2) 0.014(3) 0.013(2) 0.000 -0.0009(18) 0.000
O2 O2- 0.016(2) 0.007(2) 0.017(3) 0.000 0.006(2) 0.000
O3 O2- 0.0020(19) 0.013(2) 0.014(2) 0.000 0.0004(17) 0.000
#End of data_417105-ICSD


