data_51077-ICSD
#?2014 by Fachinformationszentrum Karlsruhe, and the U.S. Secretary of 
#Commerce on behalf of the United States.  All rights reserved.
_database_code_ICSD                51077
_audit_creation_date               2001/07/16
_chemical_name_systematic          'Tetrayttrium Dialuminium Oxide'
_chemical_formula_structural       'Y4 Al2 O9'
_chemical_formula_sum              'Al2 O9 Y4'
_publ_section_title
;
High-temperature neutron diffraction study of Y4 Al2 O9
;
loop_
_citation_id
_citation_journal_abbrev
_citation_year
_citation_journal_volume
_citation_page_first
_citation_page_last
_citation_journal_id_ASTM
primary 'Journal of Solid State Chemistry' 1998 141 466 474 JSSCBI
_publ_author_name
;
Yamane, H.;Shimada, M.;Hunter, B.A.
;
_cell_length_a                     7.4804(4)
_cell_length_b                     10.5461(5)
_cell_length_c                     11.2057(7)
_cell_angle_alpha                  90.
_cell_angle_beta                   108.927(4)
_cell_angle_gamma                  90.
_cell_volume                       836.21
_cell_formula_units_Z              4
_symmetry_space_group_name_H-M     'P 1 21/c 1'
_symmetry_Int_Tables_number        14
_refine_ls_R_factor_all            .0186
loop_
_symmetry_equiv_pos_site_id
_symmetry_equiv_pos_as_xyz
  1	'x, -y+.5, z+.5'
  2	'-x, -y, -z'
  3	'-x, y+.5, -z+.5'
  4	'x, y, z'
loop_
_atom_type_symbol
_atom_type_oxidation_number
Al3+	3
O2-	-2
Y3+	3
loop_
_atom_site_label
_atom_site_type_symbol
_atom_site_symmetry_multiplicity
_atom_site_Wyckoff_symbol
_atom_site_fract_x
_atom_site_fract_y
_atom_site_fract_z
_atom_site_occupancy
_atom_site_attached_hydrogens
_atom_site_B_iso_or_equiv
Y1 Y3+ 4 e 0.275(2) 0.1034(10) 0.795(1) 1. 0 3.1(2) 
Y2 Y3+ 4 e 0.781(2) 0.0966(10) 0.8095(10) 1. 0 3.6(3) 
Y3 Y3+ 4 e 0.084(2) 0.126(1) 0.4256(10) 1. 0 2.9(2) 
Y4 Y3+ 4 e 0.5914(14) 0.1183(10) 0.4224(10) 1. 0 2.(2) 
Al1 Al3+ 4 e 0.950(4) 0.178(2) 0.126(2) 1. 0 2.7(2) 
Al2 Al3+ 4 e 0.397(3) 0.186(2) 0.106(2) 1. 0 2.7(2) 
O1 O2- 4 e 0.524(2) 0.2210(13) 0.7507 1. 0 3.4(3) 
O2 O2- 4 e 0.986(2) 0.2393(13) 0.7607(12) 1. 0 3.2(3) 
O3 O2- 4 e 0.940(3) 0.022(2) 0.1396(13) 1. 0 5.4(5) 
O4 O2- 4 e 0.816(2) 0.237(2) 0.9800(12) 1. 0 4.4(3) 
O5 O2- 4 e 0.178(4) 0.2145(13) 0.118(2) 1. 0 7.0(3) 
O6 O2- 4 e 0.380(2) 0.2427(12) 0.9634(12) 1. 0 2.3(2) 
O7 O2- 4 e 0.474(2) 0.0311(14) 0.1719(13) 1. 0 2.9(6) 
O8 O2- 4 e 0.828(2) -.0020(11) 0.391(2) 1. 0 2.8(3) 
O9 O2- 4 e 0.317(3) -.0092 0.391(2) 1. 0 3.5(3) 

#End of data_51077-ICSD


