data_422561-ICSD
#?2014 by Fachinformationszentrum Karlsruhe, and the U.S. Secretary of 
#Commerce on behalf of the United States.  All rights reserved.
_database_code_ICSD                422561
_audit_creation_date               2011/08/01
_audit_update_record               2012/08/01
_chemical_name_systematic          'Lithium Gadolinium Dioxide'
_chemical_formula_structural       'Li Gd O2'
_chemical_formula_sum              'Gd1 Li1 O2'
_publ_section_title
;
Crystal growth and optical properties of lithium lanthanide oxides: 
Li Ln O2 (Ln = Nd, Sm, Eu, Gd and Dy)
;
loop_
_citation_id
_citation_journal_abbrev
_citation_year
_citation_journal_volume
_citation_journal_issue
_citation_page_first
_citation_page_last
_citation_journal_id_ASTM
primary 'Solid State Sciences' 2011 13 5 1006 1012 SSSCFJ
2 'Chemistry of Materials' 2002 14- 3245 3251 CMATEX
_publ_author_name
;
Cantwell, J.R.;Roof, I.P.;Smith, M.D.;zur Loye, H.C.
;
_cell_length_a                     11.3573(6)
_cell_length_b                     3.4476(2)
_cell_length_c                     5.3303(3)
_cell_angle_alpha                  90.00
_cell_angle_beta                   90.00
_cell_angle_gamma                  90.00
_cell_volume                       208.71
_cell_formula_units_Z              4
_symmetry_space_group_name_H-M     'P n m a'
_symmetry_Int_Tables_number        62
_refine_ls_R_factor_all            .0254
loop_
_symmetry_equiv_pos_site_id
_symmetry_equiv_pos_as_xyz
  1	'x+.5, y, -z+.5'
  2	'x, -y+.5, z'
  3	'-x+.5, y+.5, z+.5'
  4	'-x, -y, -z'
  5	'-x+.5, -y, z+.5'
  6	'-x, y+.5, -z'
  7	'x+.5, -y+.5, -z+.5'
  8	'x, y, z'
loop_
_atom_type_symbol
_atom_type_oxidation_number
Gd3+	3
Li1+	1
O2-	-2
loop_
_atom_site_label
_atom_site_type_symbol
_atom_site_symmetry_multiplicity
_atom_site_Wyckoff_symbol
_atom_site_fract_x
_atom_site_fract_y
_atom_site_fract_z
_atom_site_occupancy
_atom_site_attached_hydrogens
_atom_site_U_iso_or_equiv
Gd1 Gd3+ 4 c 0.35973(2) 0.2500 0.04335(6) 1 0 0.00708(8) 
Li1 Li1+ 4 c 0.0665(12) 0.2500 0.092(3) 1 0 0.019(3) 
O1 O2- 4 c 0.0278(4) 0.2500 0.7423(8) 1 0 0.0085(7) 
O2 O2- 4 c 0.2031(4) 0.2500 0.3007(8) 1 0 0.0083(8) 

loop_
_atom_site_aniso_label
_atom_site_aniso_type_symbol
_atom_site_aniso_U_11
_atom_site_aniso_U_22
_atom_site_aniso_U_33
_atom_site_aniso_U_12
_atom_site_aniso_U_13
_atom_site_aniso_U_23
Gd1 Gd3+ 0.00753(13) 0.00727(12) 0.00644(13) 0.000 0.00019(10) 0.000
O1 O2- 0.0095(18) 0.0119(18) 0.0041(18) 0.000 0.0010(15) 0.000
O2 O2- 0.0091(18) 0.0092(17) 0.0066(19) 0.000 0.0019(15) 0.000
#End of data_422561-ICSD


