data_410707-ICSD
#?2014 by Fachinformationszentrum Karlsruhe, and the U.S. Secretary of 
#Commerce on behalf of the United States.  All rights reserved.
_database_code_ICSD                410707
_audit_creation_date               1999/11/30
_chemical_name_systematic
;
Dipotassium Rubidium Heptafluorodimanganate
;
_chemical_formula_structural       'K2 Rb (Mn2 F7)'
_chemical_formula_sum              'F7 K2 Mn2 Rb1'
_publ_section_title
;
Kristallstrukturuntersuchungen an Alkali- und Barium-
Ubeergangsmetallfluoriden Rb K2 Mn2 F7, Ba Ni F4 und einer 5:3-Phase 
im System Ba Li F3 / Na Co F3
;
loop_
_citation_id
_citation_journal_abbrev
_citation_year
_citation_journal_volume
_citation_page_first
_citation_page_last
_citation_journal_id_ASTM
primary 'Zeitschrift fuer Anorganische und Allgemeine Chemie (1950) (DE)'
 1999 625 1255 1260 ZAACAB
_publ_author_name
;
Welsch, M.;Kummer-Doerner, S.;Peschel, B.;Babel, D.
;
_cell_length_a                     4.211(1)
_cell_length_b                     4.211(1)
_cell_length_c                     21.883(2)
_cell_angle_alpha                  90.
_cell_angle_beta                   90.
_cell_angle_gamma                  90.
_cell_volume                       388.04
_cell_formula_units_Z              2
_symmetry_space_group_name_H-M     'I 4/m m m'
_symmetry_Int_Tables_number        139
_refine_ls_R_factor_all            .0515
loop_
_symmetry_equiv_pos_site_id
_symmetry_equiv_pos_as_xyz
  1	'y, x, -z'
  2	'-y, -x, -z'
  3	'-y, x, -z'
  4	'y, -x, -z'
  5	'-x, y, -z'
  6	'x, -y, -z'
  7	'x, y, -z'
  8	'-x, -y, -z'
  9	'-y, -x, z'
 10	'y, x, z'
 11	'y, -x, z'
 12	'-y, x, z'
 13	'x, -y, z'
 14	'-x, y, z'
 15	'-x, -y, z'
 16	'x, y, z'
 17	'y+.5, x+.5, -z+.5'
 18	'-y+.5, -x+.5, -z+.5'
 19	'-y+.5, x+.5, -z+.5'
 20	'y+.5, -x+.5, -z+.5'
 21	'-x+.5, y+.5, -z+.5'
 22	'x+.5, -y+.5, -z+.5'
 23	'x+.5, y+.5, -z+.5'
 24	'-x+.5, -y+.5, -z+.5'
 25	'-y+.5, -x+.5, z+.5'
 26	'y+.5, x+.5, z+.5'
 27	'y+.5, -x+.5, z+.5'
 28	'-y+.5, x+.5, z+.5'
 29	'x+.5, -y+.5, z+.5'
 30	'-x+.5, y+.5, z+.5'
 31	'-x+.5, -y+.5, z+.5'
 32	'x+.5, y+.5, z+.5'
loop_
_atom_type_symbol
_atom_type_oxidation_number
F1-	-1
K1+	1
Mn2+	2
Rb1+	1
loop_
_atom_site_label
_atom_site_type_symbol
_atom_site_symmetry_multiplicity
_atom_site_Wyckoff_symbol
_atom_site_fract_x
_atom_site_fract_y
_atom_site_fract_z
_atom_site_occupancy
_atom_site_attached_hydrogens
Mn1 Mn2+ 4 e 0 0 0.0970(1) 1. 0 
F1 F1- 4 e 0 0 0.1928(3) 1. 0 
F2 F1- 8 g 0.5 0 0.0955(1) 1. 0 
F3 F1- 2 a 0 0 0 1. 0 
Rb1 Rb1+ 2 b 0 0 0.5 1. 0 
K1 K1+ 4 e 0 0 0.3137(1) 1. 0 

loop_
_atom_site_aniso_label
_atom_site_aniso_type_symbol
_atom_site_aniso_U_11
_atom_site_aniso_U_22
_atom_site_aniso_U_33
_atom_site_aniso_U_12
_atom_site_aniso_U_13
_atom_site_aniso_U_23
Mn1 Mn2+ 0.0100(3) 0.0100(3) 0.0125(4) 0 0 0
F1 F1- 0.039(3) 0.039(3) 0.013(2) 0 0 0
F2 F1- 0.0059(14) 0.037(2) 0.0284(15) 0 0 0
F3 F1- 0.029(3) 0.029(3) 0.014(3) 0 0 0
Rb1 Rb1+ 0.0205(6) 0.0205(6) 0.0180(9) 0 0 0
K1 K1+ 0.0247(6) 0.0247(6) 0.0156(5) 0 0 0
#End of data_410707-ICSD


