data_51678-ICSD
#?2014 by Fachinformationszentrum Karlsruhe, and the U.S. Secretary of 
#Commerce on behalf of the United States.  All rights reserved.
_database_code_ICSD                51678
_audit_creation_date               2003/10/01
_audit_update_record               2012/02/01
_chemical_name_systematic          'Cesium Dilithium Hydroxide'
_chemical_formula_structural       'Cs Li2 (O H)3'
_chemical_formula_sum              'H3 Cs1 Li2 O3'
_publ_section_title
;
Prediction of hydrogen positions in complex structures
;
loop_
_citation_id
_citation_journal_abbrev
_citation_year
_citation_journal_volume
_citation_page_first
_citation_page_last
_citation_journal_id_ASTM
primary 'Zeitschrift fuer Kristallographie (1979-2010)' 2001 216 99 104 ZEKRDZ
_publ_author_name                  'Milman, V.;Winkler, B.'
_cell_length_a                     6.519
_cell_length_b                     5.271
_cell_length_c                     6.401
_cell_angle_alpha                  90
_cell_angle_beta                   93.07
_cell_angle_gamma                  90
_cell_volume                       219.63
_cell_formula_units_Z              2
_symmetry_space_group_name_H-M     'P 1 21/m 1'
_symmetry_Int_Tables_number        11
loop_
_symmetry_equiv_pos_site_id
_symmetry_equiv_pos_as_xyz
  1	'x, -y+.5, z'
  2	'-x, -y, -z'
  3	'-x, y+.5, -z'
  4	'x, y, z'
loop_
_atom_type_symbol
_atom_type_oxidation_number
Cs1+	1
H1+	1
Li1+	1
O2-	-2
loop_
_atom_site_label
_atom_site_type_symbol
_atom_site_symmetry_multiplicity
_atom_site_Wyckoff_symbol
_atom_site_fract_x
_atom_site_fract_y
_atom_site_fract_z
_atom_site_occupancy
_atom_site_attached_hydrogens
Li1 Li1+ 4 f 0.6519 -.0050 0.1823 1. 0 
Cs2 Cs1+ 2 e 0.1542 0.25 0.2731 1. 0 
O1 O2- 2 e 0.5923 0.25 0.9288 1. 0 
O2 O2- 2 e 0.1233 0.25 0.7875 1. 0 
O3 O2- 2 e 0.6844 0.25 0.4058 1. 0 
H1 H1+ 2 e 0.7162 0.25 0.8735 1. 0 
H2 H1+ 2 e -.0037 0.25 0.6597 1. 0 
H3 H1+ 2 e 0.6187 0.25 0.5238 1. 0 

#End of data_51678-ICSD


