data_300262-ICSD
#?2014 by Fachinformationszentrum Karlsruhe, and the U.S. Secretary of 
#Commerce on behalf of the United States.  All rights reserved.
_database_code_ICSD                300262
_audit_creation_date               1993/01/06
_audit_update_record               2007/08/01
_chemical_name_systematic
;
Tetrapotassium Decaselenidotetragermanate
;
_chemical_formula_structural       'K4 (Ge4 Se10)'
_chemical_formula_sum              'Ge4 K4 Se10'
_publ_section_title
;
Crystal structure of tetrapotassium decaselenidotetragermanate
;
loop_
_citation_id
_citation_journal_abbrev
_citation_year
_citation_journal_volume
_citation_page_first
_citation_page_last
_citation_journal_id_ASTM
primary 'Zeitschrift fuer Kristallographie (1979-2010)' 1993 206 101 102 ZEKRDZ
_publ_author_name                  'Eisenmann, B.;Hansa, J.'
_cell_length_a                     10.202(6)
_cell_length_b                     11.544(6)
_cell_length_c                     9.806(6)
_cell_angle_alpha                  90.
_cell_angle_beta                   90.6(1)
_cell_angle_gamma                  90.
_cell_volume                       1154.81
_cell_formula_units_Z              2
_symmetry_space_group_name_H-M     'P 1 21/m 1'
_symmetry_Int_Tables_number        11
_refine_ls_R_factor_all            .099
loop_
_symmetry_equiv_pos_site_id
_symmetry_equiv_pos_as_xyz
  1	'x, -y+.5, z'
  2	'-x, -y, -z'
  3	'-x, y+.5, -z'
  4	'x, y, z'
loop_
_atom_type_symbol
_atom_type_oxidation_number
Ge4+	4
K1+	1
Se2-	-2
loop_
_atom_site_label
_atom_site_type_symbol
_atom_site_symmetry_multiplicity
_atom_site_Wyckoff_symbol
_atom_site_fract_x
_atom_site_fract_y
_atom_site_fract_z
_atom_site_occupancy
_atom_site_attached_hydrogens
Se1 Se2- 2 e 0.6265(6) 0.25 0.6735(6) 1. 0 
Se2 Se2- 2 e 0.0474(7) 0.25 0.0393(7) 1. 0 
Se3 Se2- 2 e 0.2686(6) 0.25 0.7349(7) 1. 0 
Se4 Se2- 2 e 0.8017(7) 0.25 0.3193(6) 1. 0 
Se5 Se2- 4 f 0.7133(5) 0.4185(4) 0.0067(4) 1. 0 
Se6 Se2- 4 f 0.9595(4) 0.4195(4) 0.7038(4) 1. 0 
Se7 Se2- 4 f 0.6425(5) 0.5791(4) 0.6830(4) 1. 0 
Ge1 Ge4+ 2 e 0.0552(7) 0.25 0.7994(6) 1. 0 
Ge2 Ge4+ 2 e 0.8231(6) 0.25 0.0917(6) 1. 0 
Ge3 Ge4+ 4 f 0.7369(4) 0.4143(4) 0.7669(4) 1. 0 
K1 K1+ 2 e 0.1063(15) 0.25 0.4045(14) 1. 0 
K2 K1+ 2 e 0.4164(14) 0.25 0.0412(13) 1. 0 
K3 K1+ 4 f 0.6676(13) 0.0068(11) 0.3611(11) 1. 0 

loop_
_atom_site_aniso_label
_atom_site_aniso_type_symbol
_atom_site_aniso_U_11
_atom_site_aniso_U_22
_atom_site_aniso_U_33
_atom_site_aniso_U_12
_atom_site_aniso_U_13
_atom_site_aniso_U_23
Se1 Se2- 0.053(4) 0.042(4) 0.046(4) 0 -0.007(3) 0
Se2 Se2- 0.047(4) 0.140(8) 0.036(4) 0 0.0002(30) 0
Se3 Se2- 0.041(4) 0.079(5) 0.054(4) 0 0.013(3) 0
Se4 Se2- 0.071(5) 0.074(5) 0.033(4) 0 0.001(3) 0
Se5 Se2- 0.081(3) 0.053(3) 0.031(2) 0.007(3) 0.009(2) -0.001(2)
Se6 Se2- 0.056(3) 0.051(3) 0.050(3) -0.002(2) 0.015(2) 0.009(2)
Se7 Se2- 0.069(3) 0.041(3) 0.044(3) 0.015(3) -0.002(2) 0.005(2)
Ge1 Ge4+ 0.050(4) 0.071(5) 0.029(4) 0 0.005(3) 0
Ge2 Ge4+ 0.036(4) 0.055(4) 0.030(4) 0 -0.005(3) 0
Ge3 Ge4+ 0.048(3) 0.036(3) 0.035(2) 0.002(2) 0.009(2) 0.005(2)
K1 K1+ 0.064(10) 0.077(11) 0.040(8) 0 -0.016(7) 0
K2 K1+ 0.059(10) 0.084(12) 0.035(8) 0 -0.005(7) 0
K3 K1+ 0.12(1) 0.067(8) 0.058(7) 0.002(8) 0.012(7) 0.028(6)
#End of data_300262-ICSD


