data_16717-ICSD
#?2014 by Fachinformationszentrum Karlsruhe, and the U.S. Secretary of 
#Commerce on behalf of the United States.  All rights reserved.
_database_code_ICSD                16717
_audit_creation_date               1980/01/01
_audit_update_record               2012/08/01
_chemical_name_systematic          'Silver Dioxochlorate(III)'
_chemical_formula_structural       'Ag Cl O2'
_chemical_formula_sum              'Ag1 Cl1 O2'
_publ_section_title                'The Crystal Structure of Ag Cl O2'
loop_
_citation_id
_citation_journal_abbrev
_citation_year
_citation_journal_volume
_citation_page_first
_citation_page_last
_citation_journal_id_ASTM
primary 'Acta Crystallographica (1,1948-23,1967)' 1957 10 687 691 ACCRA9
_publ_author_name                  'Curti, R.;Riganti, V.;Locchi, S.'
_cell_length_a                     6.07
_cell_length_b                     6.13
_cell_length_c                     6.68
_cell_angle_alpha                  90.
_cell_angle_beta                   90.
_cell_angle_gamma                  90.
_cell_volume                       248.56
_cell_formula_units_Z              4
_symmetry_space_group_name_H-M     'C m m a'
_symmetry_Int_Tables_number        67
loop_
_symmetry_equiv_pos_site_id
_symmetry_equiv_pos_as_xyz
  1	'x+.5, y, -z'
  2	'x+.5, -y, z'
  3	'-x, y, z'
  4	'-x, -y, -z'
  5	'-x+.5, -y, z'
  6	'-x+.5, y, -z'
  7	'x, -y, -z'
  8	'x, y, z'
  9	'x, y+.5, -z'
 10	'x, -y+.5, z'
 11	'-x+.5, y+.5, z'
 12	'-x+.5, -y+.5, -z'
 13	'-x, -y+.5, z'
 14	'-x, y+.5, -z'
 15	'x+.5, -y+.5, -z'
 16	'x+.5, y+.5, z'
loop_
_atom_type_symbol
_atom_type_oxidation_number
Ag1+	1
Cl3+	3
O2-	-2
loop_
_atom_site_label
_atom_site_type_symbol
_atom_site_symmetry_multiplicity
_atom_site_Wyckoff_symbol
_atom_site_fract_x
_atom_site_fract_y
_atom_site_fract_z
_atom_site_occupancy
_atom_site_attached_hydrogens
Ag1 Ag1+ 4 g 0 0.25 0.12 1. 0 
Cl1 Cl3+ 4 g 0 0.25 0.79 1. 0 
O1 O2- 8 n 0.22 0.25 0.66 1. 0 

#End of data_16717-ICSD


