data_20453-ICSD
#?2014 by Fachinformationszentrum Karlsruhe, and the U.S. Secretary of 
#Commerce on behalf of the United States.  All rights reserved.
_database_code_ICSD                20453
_audit_creation_date               1986/09/29
_audit_update_record               2012/08/01
_chemical_name_systematic          'Silver(II) Fluoride'
_chemical_formula_structural       'Ag F2'
_chemical_formula_sum              'Ag1 F2'
_publ_section_title                'Structure of silver difluoride'
loop_
_citation_id
_citation_journal_abbrev
_citation_year
_citation_journal_volume
_citation_page_first
_citation_page_last
_citation_journal_id_ASTM
primary 'Zhurnal Strukturnoi Khimii (Issue-No. from 1981)'
 1966 7 627 628 ZSTKAI
_publ_author_name
;
Baturina, E.A.;Lukyanychev, Y.A.;Rastorguev, L.N.
;
_cell_length_a                     3.34
_cell_length_b                     4.57
_cell_length_c                     4.65
_cell_angle_alpha                  90.
_cell_angle_beta                   84.5
_cell_angle_gamma                  90.
_cell_volume                       70.65
_cell_formula_units_Z              2
_symmetry_space_group_name_H-M     'P 1 21/n 1'
_symmetry_Int_Tables_number        14
loop_
_symmetry_equiv_pos_site_id
_symmetry_equiv_pos_as_xyz
  1	'-x+.5, y+.5, -z+.5'
  2	'-x, -y, -z'
  3	'x+.5, -y+.5, z+.5'
  4	'x, y, z'
loop_
_atom_type_symbol
_atom_type_oxidation_number
Ag2+	2
F1-	-1
loop_
_atom_site_label
_atom_site_type_symbol
_atom_site_symmetry_multiplicity
_atom_site_Wyckoff_symbol
_atom_site_fract_x
_atom_site_fract_y
_atom_site_fract_z
_atom_site_occupancy
_atom_site_attached_hydrogens
Ag1 Ag2+ 2 a 0 0 0 1. 0 
F1 F1- 4 e -.03 0.3 0.3 1. 0 

#End of data_20453-ICSD


