data_88005-ICSD
#?2014 by Fachinformationszentrum Karlsruhe, and the U.S. Secretary of 
#Commerce on behalf of the United States.  All rights reserved.
_database_code_ICSD                88005
_audit_creation_date               2001/07/16
_chemical_name_systematic
;
Rubidium Hexaselenodiargentotriarsenate(III)
;
_chemical_formula_structural       'Rb (Ag2 As3 Se6)'
_chemical_formula_sum              'Ag2 As3 Rb1 Se6'
_publ_section_title
;
Rb Ag2 As3 Se6 : a unique three-dimensional silver-selenoarsenate 
framework 3/(infinite)(Ag2 As3 Se6)(-), assembled from (As3 Se6)(3-) 
rings and "Ag2(2+)" dumbbell units
;
loop_
_citation_id
_citation_journal_abbrev
_citation_year
_citation_journal_volume
_citation_page_first
_citation_page_last
_citation_journal_id_ASTM
primary 'Inorganic Chemistry' 1999 38 4178 4180 INOCAJ
_publ_author_name                  'Wachhold, M.;Kanatzidis, M.G.'
_cell_length_a                     9.9401(15)
_cell_length_b                     7.5714(11)
_cell_length_c                     17.2010(30)
_cell_angle_alpha                  90.
_cell_angle_beta                   90.728(3)
_cell_angle_gamma                  90.
_cell_volume                       1294.45
_cell_formula_units_Z              4
_symmetry_space_group_name_H-M     'P 1 21/n 1'
_symmetry_Int_Tables_number        14
_refine_ls_R_factor_all            .05
loop_
_symmetry_equiv_pos_site_id
_symmetry_equiv_pos_as_xyz
  1	'-x+.5, y+.5, -z+.5'
  2	'-x, -y, -z'
  3	'x+.5, -y+.5, z+.5'
  4	'x, y, z'
loop_
_atom_type_symbol
_atom_type_oxidation_number
Ag1+	1
As3+	3
Rb1+	1
Se2-	-2
loop_
_atom_site_label
_atom_site_type_symbol
_atom_site_symmetry_multiplicity
_atom_site_Wyckoff_symbol
_atom_site_fract_x
_atom_site_fract_y
_atom_site_fract_z
_atom_site_occupancy
_atom_site_attached_hydrogens
Rb1 Rb1+ 4 e 0.0078(2) 0.8180(2) 0.1671(1) 1. 0 
Ag1 Ag1+ 4 e 0.8477(1) 0.4885(2) 0.4994(1) 1. 0 
Ag2 Ag1+ 4 e 0.9705(2) 0.9621(2) 0.4181(1) 1. 0 
As1 As3+ 4 e 0.5701(1) 0.8724(2) 0.2237(1) 1. 0 
As2 As3+ 4 e 0.6300(1) 0.8866(2) 0.4199(1) 1. 0 
As3 As3+ 4 e 0.3063(1) 0.8505(2) 0.3528(1) 1. 0 
Se1 Se2- 4 e 0.3696(1) 0.6951(2) 0.2346(1) 1. 0 
Se2 Se2- 4 e 0.7210(1) 0.7197(2) 0.3133(1) 1. 0 
Se3 Se2- 4 e 0.4384(1) 0.7021(2) 0.4523(1) 1. 0 
Se4 Se2- 4 e 0.6566(2) 0.7523(2) 0.1088(1) 1. 0 
Se5 Se2- 4 e 0.7803(1) 0.8115(2) 0.5215(1) 1. 0 
Se6 Se2- 4 e 0.3971(1) 0.1984(2) 0.1318(1) 1. 0 

loop_
_atom_site_aniso_label
_atom_site_aniso_type_symbol
_atom_site_aniso_U_11
_atom_site_aniso_U_22
_atom_site_aniso_U_33
_atom_site_aniso_U_12
_atom_site_aniso_U_13
_atom_site_aniso_U_23
Rb1 Rb1+ 0.046(1) 0.030(1) 0.038(1) -.005(1) -.009(1) 0.000(1)
Ag1 Ag1+ 0.047(1) 0.039(1) 0.054(1) 0.002(1) 0.004(1) -.001(1)
Ag2 Ag1+ 0.056(1) 0.050(1) 0.091(1) 0.017(1) 0.026(1) 0.010(1)
As1 As3+ 0.020(1) 0.020(1) 0.020(1) 0.002(1) -.001(1) 0.001(1)
As2 As3+ 0.021(1) 0.024(1) 0.018(1) 0.002(1) -.004(1) -.002(1)
As3 As3+ 0.017(1) 0.020(1) 0.021(1) 0.001(1) -.001(1) -.001(1)
Se1 Se2- 0.022(1) 0.027(1) 0.021(1) -.003(1) -.002(1) -.002(1)
Se2 Se2- 0.020(1) 0.030(1) 0.022(1) 0.006(1) -.002(1) -.001(1)
Se3 Se2- 0.022(1) 0.036(1) 0.021(1) -.001(1) -.002(1) 0.004(1)
Se4 Se2- 0.033(1) 0.031(1) 0.023(1) -.003(1) 0.007(1) -.003(1)
Se5 Se2- 0.026(1) 0.028(1) 0.022(1) -.002(1) -.007(1) -.001(1)
Se6 Se2- 0.020(1) 0.031(1) 0.032(1) 0.004(1) -.002(1) 0.000(1)
#End of data_88005-ICSD


