data_15407-ICSD
#?2014 by Fachinformationszentrum Karlsruhe, and the U.S. Secretary of 
#Commerce on behalf of the United States.  All rights reserved.
_database_code_ICSD                15407
_audit_creation_date               1980/01/01
_audit_update_record               1988/10/11
_chemical_name_systematic          'Silver Chlorate(III)'
_chemical_formula_structural       'Ag Cl O2'
_chemical_formula_sum              'Ag1 Cl1 O2'
_publ_section_title                'On the structure of Ag Cl O2'
loop_
_citation_id
_citation_journal_abbrev
_citation_year
_citation_journal_volume
_citation_page_first
_citation_page_last
_citation_journal_id_ASTM
primary 'Acta Crystallographica (1,1948-23,1967)' 1961 14 202 203 ACCRA9
_publ_author_name                  'Cooper, J.;Marsh, R.E.'
_cell_length_a                     6.07
_cell_length_b                     6.68
_cell_length_c                     6.13
_cell_angle_alpha                  90.
_cell_angle_beta                   90.
_cell_angle_gamma                  90.
_cell_volume                       248.56
_cell_formula_units_Z              4
_symmetry_space_group_name_H-M     'P c c a'
_symmetry_Int_Tables_number        54
loop_
_symmetry_equiv_pos_site_id
_symmetry_equiv_pos_as_xyz
  1	'x, -y, z+.5'
  2	'-x+.5, y, z+.5'
  3	'x+.5, y, -z'
  4	'-x, -y, -z'
  5	'-x, y, -z+.5'
  6	'x+.5, -y, -z+.5'
  7	'-x+.5, -y, z'
  8	'x, y, z'
loop_
_atom_type_symbol
_atom_type_oxidation_number
Ag1+	1
Cl3+	3
O2-	-2
loop_
_atom_site_label
_atom_site_type_symbol
_atom_site_symmetry_multiplicity
_atom_site_Wyckoff_symbol
_atom_site_fract_x
_atom_site_fract_y
_atom_site_fract_z
_atom_site_occupancy
_atom_site_attached_hydrogens
_atom_site_B_iso_or_equiv
Ag1 Ag1+ 4 c 0 0.112(2) 0.25 1. 0 0.95 
Cl1 Cl3+ 4 c 0 0.638(7) 0.25 1. 0 0.95 
O1 O2- 8 f 0.36(1) 0.23(1) 0.095(10) 1. 0 0.95 

#End of data_15407-ICSD


