data_80941-ICSD
#?2014 by Fachinformationszentrum Karlsruhe, and the U.S. Secretary of 
#Commerce on behalf of the United States.  All rights reserved.
_database_code_ICSD                80941
_audit_creation_date               1997/05/13
_audit_update_record               2014/08/01
_chemical_name_systematic
;
Potassium Molybdenum Oxide (3/14/22)
;
_chemical_formula_structural       'K3 (Mo14 O22)'
_chemical_formula_sum              'K3 Mo14 O22'
_publ_section_title
;
Synthesis and characterization of K3 Mo14 O22, K1.66 Pb1.34 Mo14 O22 
and K1.29 Sn1.71 Mo14 O22: oligomeric clusters with three trans edge-
shared Mo octahedra
;
loop_
_citation_id
_citation_journal_abbrev
_citation_year
_citation_journal_volume
_citation_page_first
_citation_page_last
_citation_journal_id_ASTM
primary 'Inorganic Chemistry' 1995 34 6130 6140 INOCAJ
_publ_author_name
;
Schimek, G.L.;Chen, S.C.;McCarley, R.E.
;
_cell_length_a                     9.916(2)
_cell_length_b                     9.325(2)
_cell_length_c                     10.439(2)
_cell_angle_alpha                  90.
_cell_angle_beta                   103.96(1)
_cell_angle_gamma                  90.
_cell_volume                       936.75
_cell_formula_units_Z              2
_symmetry_space_group_name_H-M     'P 1 21/a 1'
_symmetry_Int_Tables_number        14
_refine_ls_R_factor_all            .031
loop_
_symmetry_equiv_pos_site_id
_symmetry_equiv_pos_as_xyz
  1	'x+.5, -y+.5, z'
  2	'-x, -y, -z'
  3	'-x+.5, y+.5, -z'
  4	'x, y, z'
loop_
_atom_type_symbol
_atom_type_oxidation_number
K1+	1
Mo2.929+	2.929
O2-	-2
loop_
_atom_site_label
_atom_site_type_symbol
_atom_site_symmetry_multiplicity
_atom_site_Wyckoff_symbol
_atom_site_fract_x
_atom_site_fract_y
_atom_site_fract_z
_atom_site_occupancy
_atom_site_attached_hydrogens
_atom_site_B_iso_or_equiv
K1 K1+ 2 a 0 0 0 1. 0 1.6(1) 
K2 K1+ 4 e 0.0667(3) 0.0119(4) 0.3136(3) 1. 0 1.6(1) 
Mo1 Mo2.929+ 4 e 0.1227(1) 0.3885(1) 0.1400(1) 1. 0 0.98(5) 
Mo2 Mo2.929+ 4 e 0.9146(1) 0.3774(1) 0.2748(1) 1. 0 0.99(5) 
Mo3 Mo2.929+ 4 e 0.2282(1) 0.6263(1) 0.2876(1) 1. 0 1.03(5) 
Mo4 Mo2.929+ 4 e 0.8473(1) 0.3706(1) 0.0144(1) 1. 0 1.02(5) 
Mo5 Mo2.929+ 4 e 0.1906(1) 0.3843(1) 0.4104(1) 1. 0 1.04(5) 
Mo6 Mo2.929+ 4 e 0.0474(1) 0.3814(1) 0.8647(1) 1. 0 1.04(5) 
Mo7 Mo2.929+ 4 e 0.9754(1) 0.3719(1) 0.5934(1) 1. 0 1.00(5) 
O1 O2- 4 e 0.3254(12) 0.7596(12) 0.9945(9) 1. 0 1.5(6) 
O2 O2- 4 e 0.4017(10) 0.7559(11) 0.2812(8) 1. 0 1.1(5) 
O3 O2- 4 e 0.3143(12) 0.2555(10) 0.5722(8) 1. 0 1.3(5) 
O4 O2- 4 e 0.143(1) 0.5049(11) 0.5630(8) 1. 0 1.0(4) 
O5 O2- 4 e 0.2235(10) 0.5011(11) 0.8571(8) 1. 0 1.0(4) 
O6 O2- 4 e 0.7154(10) 0.4799(10) 0.8580(9) 1. 0 1.0(4) 
O7 O2- 4 e 0.3864(13) 0.2511(10) 0.8593(10) 1. 0 1.2(4) 
O8 O2- 4 e 0.6527(10) 0.4899(11) 0.5753(9) 1. 0 1.2(4) 
O9 O2- 4 e 0.9694(11) 0.7323(11) 0.5627(9) 1. 0 1.1(4) 
O10 O2- 4 e 0.2536(11) 0.758(1) 0.7128(8) 1. 0 1.0(4) 
O11 O2- 4 e 0.9694(12) 0.2373(10) 0.1502(9) 1. 0 1.0(4) 

#End of data_80941-ICSD


