data_420406-ICSD
#?2014 by Fachinformationszentrum Karlsruhe, and the U.S. Secretary of 
#Commerce on behalf of the United States.  All rights reserved.
_database_code_ICSD                420406
_audit_creation_date               2010/02/01
_chemical_name_systematic          'Disilver Molybdotetratellurate(IV)'
_chemical_formula_structural       'Ag2 (Mo Te4 O12)'
_chemical_formula_sum              'Ag2 Mo1 O12 Te4'
_publ_section_title
;
Explorations of new second-order NLO materials in the Ag(I) - 
Mo(VI)/W(VI) - Te(IV) - O systems
;
loop_
_citation_id
_citation_journal_abbrev
_citation_year
_citation_journal_volume
_citation_page_first
_citation_page_last
_citation_journal_id_ASTM
primary 'Dalton Transactions' 2009 2009 5747 5754 DTARAF
_publ_author_name
;
Zhou Yong;Hu Chunli;Hu Ting;Kong Fang;Mao Jiang Gao
;
_cell_length_a                     17.598(4)
_cell_length_b                     5.8063(7)
_cell_length_c                     11.3908(16)
_cell_angle_alpha                  90.00
_cell_angle_beta                   104.276(10)
_cell_angle_gamma                  90.00
_cell_volume                       1127.96
_cell_formula_units_Z              4
_symmetry_space_group_name_H-M     'C 1 2/c 1'
_symmetry_Int_Tables_number        15
_refine_ls_R_factor_all            .0247
loop_
_symmetry_equiv_pos_site_id
_symmetry_equiv_pos_as_xyz
  1	'x, -y, z+.5'
  2	'-x, -y, -z'
  3	'-x, y, -z+.5'
  4	'x, y, z'
  5	'x+.5, -y+.5, z+.5'
  6	'-x+.5, -y+.5, -z'
  7	'-x+.5, y+.5, -z+.5'
  8	'x+.5, y+.5, z'
loop_
_atom_type_symbol
_atom_type_oxidation_number
Ag1+	1
Mo6+	6
O2-	-2
Te4+	4
loop_
_atom_site_label
_atom_site_type_symbol
_atom_site_symmetry_multiplicity
_atom_site_Wyckoff_symbol
_atom_site_fract_x
_atom_site_fract_y
_atom_site_fract_z
_atom_site_occupancy
_atom_site_attached_hydrogens
_atom_site_U_iso_or_equiv
Te1 Te4+ 8 f 0.15520(3) 0.17226(9) 0.43070(4) 1 0 0.01032(18) 
Te2 Te4+ 8 f 0.09323(3) -0.27801(8) 0.59416(4) 1 0 0.01003(18) 
Ag1 Ag1+ 8 f 0.28638(4) 0.21968(11) 0.22833(6) 1 0 0.0198(2) 
Mo1 Mo6+ 4 e 0.0000 0.15851(14) 0.7500 1 0 0.0091(2) 
O1 O2- 8 f 0.0108(3) -0.1284(9) 0.6334(5) 1 0 0.0138(11) 
O2 O2- 8 f 0.1083(3) -0.0973(8) 0.3351(4) 1 0 0.0125(11) 
O3 O2- 8 f 0.2544(3) 0.0693(10) 0.4259(5) 1 0 0.0157(11) 
O4 O2- 8 f 0.0219(3) 0.3431(9) 0.6447(5) 1 0 0.0203(13) 
O5 O2- 8 f 0.1564(3) -0.0096(9) 0.5833(5) 1 0 0.0166(11) 
O6 O2- 8 f 0.1535(3) -0.3442(9) 0.7504(5) 1 0 0.0135(11) 

loop_
_atom_site_aniso_label
_atom_site_aniso_type_symbol
_atom_site_aniso_U_11
_atom_site_aniso_U_22
_atom_site_aniso_U_33
_atom_site_aniso_U_12
_atom_site_aniso_U_13
_atom_site_aniso_U_23
Te1 Te4+ 0.0111(3) 0.0092(3) 0.0107(3) -0.00090(15) 0.0027(2) -0.00133(17)
Te2 Te4+ 0.0114(3) 0.0104(3) 0.0079(3) 0.00046(17) 0.0016(2) -0.00152(17)
Ag1 Ag1+ 0.0162(3) 0.0155(3) 0.0296(4) 0.0018(2) 0.0093(3) 0.0065(3)
Mo1 Mo6+ 0.0100(4) 0.0056(4) 0.0103(5) 0.000 -0.0004(3) 0.000
O1 O2- 0.011(2) 0.015(2) 0.016(3) 0.001(2) 0.005(2) -0.005(2)
O2 O2- 0.012(2) 0.010(2) 0.014(3) -0.0005(19) -0.001(2) -0.002(2)
O3 O2- 0.010(2) 0.021(3) 0.017(3) 0.002(2) 0.004(2) -0.001(2)
O4 O2- 0.018(3) 0.016(3) 0.022(3) -0.006(2) -0.003(2) 0.006(2)
O5 O2- 0.022(3) 0.016(3) 0.012(2) -0.006(2) 0.005(2) 0.001(2)
O6 O2- 0.017(3) 0.013(2) 0.010(3) 0.002(2) 0.002(2) -0.001(2)
#End of data_420406-ICSD


