data_422978-ICSD
#?2014 by Fachinformationszentrum Karlsruhe, and the U.S. Secretary of 
#Commerce on behalf of the United States.  All rights reserved.
_database_code_ICSD                422978
_audit_creation_date               2012/02/01
_chemical_name_systematic
;
Potassium Trinitrato(V)dioxouranate - Gamma
;
_chemical_formula_structural       'K (U O2 (N O3)3)'
_chemical_formula_sum              'K1 N3 O11 U1'
_publ_section_title
;
Polymorphism in alkali metal uranyl nitrates: synthesis and crystal 
structure of gamma - K (U O2) (N O3)3
;
loop_
_citation_id
_citation_journal_abbrev
_citation_year
_citation_journal_volume
_citation_journal_issue
_citation_page_first
_citation_page_last
_citation_journal_id_ASTM
primary 'Zeitschrift fuer Anorganische und Allgemeine Chemie (1950) (DE)'
 2011 637 11 1475 1480 ZAACAB
_publ_author_name
;
Jouffret, L.J.;Krivovichev, S.V.;Burns, P.C.
;
_cell_length_a                     9.2559(3)
_cell_length_b                     12.1753(3)
_cell_length_c                     15.8076(5)
_cell_angle_alpha                  90
_cell_angle_beta                   90
_cell_angle_gamma                  90
_cell_volume                       1781.41
_cell_formula_units_Z              8
_symmetry_space_group_name_H-M     'P b c a'
_symmetry_Int_Tables_number        61
_refine_ls_R_factor_all            .0267
loop_
_symmetry_equiv_pos_site_id
_symmetry_equiv_pos_as_xyz
  1	'x+.5, y, -z+.5'
  2	'x, -y+.5, z+.5'
  3	'-x+.5, y+.5, z'
  4	'-x, -y, -z'
  5	'-x+.5, -y, z+.5'
  6	'-x, y+.5, -z+.5'
  7	'x+.5, -y+.5, -z'
  8	'x, y, z'
loop_
_atom_type_symbol
_atom_type_oxidation_number
K1+	1
N5+	5
O2-	-2
U6+	6
loop_
_atom_site_label
_atom_site_type_symbol
_atom_site_symmetry_multiplicity
_atom_site_Wyckoff_symbol
_atom_site_fract_x
_atom_site_fract_y
_atom_site_fract_z
_atom_site_occupancy
_atom_site_attached_hydrogens
_atom_site_U_iso_or_equiv
U1 U6+ 8 c 0.73868(1) 0.984210(8) 0.130924(7) 1 0 0.00679(3) 
K1 K1+ 8 c 0.24284(6) 0.69877(6) 0.12227(4) 1 0 0.01227(16) 
N1 N5+ 8 c 1.0508(2) 0.95689(18) 0.11896(13) 1 0 0.0100(6) 
N2 N5+ 8 c 0.5671(2) 0.80327(16) 0.19550(14) 1 0 0.0095(6) 
N3 N5+ 8 c 0.5962(2) 1.16708(16) 0.04747(14) 1 0 0.0111(6) 
O1 O2- 8 c 0.73031(19) 0.91478(18) 0.03338(13) 1 0 0.0107(5) 
O2 O2- 8 c 0.74517(19) 1.05284(18) 0.22955(15) 1 0 0.0122(6) 
O3 O2- 8 c 0.9880(2) 1.04483(15) 0.09477(12) 1 0 0.0128(5) 
O4 O2- 8 c 0.9680(2) 0.88471(16) 0.15333(12) 1 0 0.0115(5) 
O5 O2- 8 c 0.70291(19) 0.81077(15) 0.20869(12) 1 0 0.0100(5) 
O6 O2- 8 c 0.5086(2) 0.88647(16) 0.15963(12) 1 0 0.0122(5) 
O7 O2- 8 c 0.5275(2) 1.09752(15) 0.09276(12) 1 0 0.0133(5) 
O8 O2- 8 c 0.73258(19) 1.15690(18) 0.04718(15) 1 0 0.0131(6) 
O9 O2- 8 c 1.1795(2) 0.94288(17) 0.11149(13) 1 0 0.0158(6) 
O10 O2- 8 c 0.4986(2) 0.72338(14) 0.21627(15) 1 0 0.0145(6) 
O11 O2- 8 c 0.5349(2) 1.23699(13) 0.00669(14) 1 0 0.0170(6) 

loop_
_atom_site_aniso_label
_atom_site_aniso_type_symbol
_atom_site_aniso_U_11
_atom_site_aniso_U_22
_atom_site_aniso_U_33
_atom_site_aniso_U_12
_atom_site_aniso_U_13
_atom_site_aniso_U_23
U1 U6+ 0.01160(6) 0.00529(6) 0.00347(6) 0.00035(2) 0.00111(3) 0.00001(3)
K1 K1+ 0.0154(3) 0.0132(3) 0.0082(3) -0.00060(16) -0.00134(17) -0.0016(2)
N1 N5+ 0.0150(10) 0.0124(9) 0.0025(10) -0.0008(8) 0.0005(7) -0.0022(7)
N2 N5+ 0.0124(9) 0.0090(9) 0.0070(10) 0.0002(7) -0.0007(7) -0.0026(7)
N3 N5+ 0.0177(10) 0.0068(9) 0.0087(10) 0.0000(7) -0.0005(8) -0.0016(7)
O1 O2- 0.0183(9) 0.0091(9) 0.0046(9) -0.0010(6) 0.0020(6) 0.0001(7)
O2 O2- 0.0183(9) 0.0102(9) 0.0082(10) 0.0002(6) 0.0018(6) -0.0013(8)
O3 O2- 0.0189(9) 0.0078(8) 0.0115(10) -0.0005(7) 0.0032(7) 0.0009(7)
O4 O2- 0.0144(9) 0.0122(8) 0.0080(9) -0.0026(6) 0.0017(7) 0.0035(7)
O5 O2- 0.0084(7) 0.0106(8) 0.0110(9) -0.0016(6) -0.0007(7) 0.0019(6)
O6 O2- 0.0123(8) 0.0148(9) 0.0094(9) 0.0023(6) -0.0010(7) 0.0049(7)
O7 O2- 0.0179(9) 0.0106(9) 0.0115(10) 0.0010(6) 0.0019(7) 0.0039(7)
O8 O2- 0.0160(9) 0.0108(9) 0.0123(11) 0.0003(6) 0.0026(7) 0.0020(7)
O9 O2- 0.0121(9) 0.0230(11) 0.0122(10) -0.0004(7) 0.0012(7) 0.0008(8)
O10 O2- 0.0177(9) 0.0091(8) 0.0167(12) -0.0054(7) 0.0030(7) -0.0026(7)
O11 O2- 0.0242(10) 0.0086(9) 0.0181(13) 0.0023(7) -0.0069(8) 0.0032(7)
#End of data_422978-ICSD


