data_77344-ICSD
#?2014 by Fachinformationszentrum Karlsruhe, and the U.S. Secretary of 
#Commerce on behalf of the United States.  All rights reserved.
_database_code_ICSD                77344
_audit_creation_date               2003/04/01
_audit_update_record               2010/08/01
_chemical_name_systematic          'Magnesium Catena-silicate'
_chemical_formula_structural       'Mg (Si O3)'
_chemical_formula_sum              'Mg1 O3 Si1'
_chemical_name_mineral             Enstatite
_publ_section_title
;
Roentgenuntersuchung des Systems Mg O - Al2 O3 - Si O2
;
loop_
_citation_id
_citation_journal_abbrev
_citation_year
_citation_journal_volume
_citation_page_first
_citation_page_last
_citation_journal_id_ASTM
primary 'Berichte der Deutschen Keramischen Gesellschaft'
 1943 24 2 15 BDKGAY
2 'Golden Book of Phase Transitions, Wroclaw' 2002 1 1 123 GBOPT5
_publ_author_name                  'Bystroem, A.'
_cell_length_a                     18.22
_cell_length_b                     8.81
_cell_length_c                     5.21
_cell_angle_alpha                  90.
_cell_angle_beta                   90.
_cell_angle_gamma                  90.
_cell_volume                       836.3
_cell_formula_units_Z              16
_symmetry_space_group_name_H-M     'P b c a'
_symmetry_Int_Tables_number        61
loop_
_symmetry_equiv_pos_site_id
_symmetry_equiv_pos_as_xyz
  1	'x+.5, y, -z+.5'
  2	'x, -y+.5, z+.5'
  3	'-x+.5, y+.5, z'
  4	'-x, -y, -z'
  5	'-x+.5, -y, z+.5'
  6	'-x, y+.5, -z+.5'
  7	'x+.5, -y+.5, -z'
  8	'x, y, z'
loop_
_atom_type_symbol
_atom_type_oxidation_number
Mg2+	2
O2-	-2
Si4+	4
loop_
_atom_site_label
_atom_site_type_symbol
_atom_site_symmetry_multiplicity
_atom_site_Wyckoff_symbol
_atom_site_fract_x
_atom_site_fract_y
_atom_site_fract_z
_atom_site_occupancy
_atom_site_attached_hydrogens
Mg1 Mg2+ 8 c 0.125 0.333 0.375 1. 0 
Mg2 Mg2+ 8 c 0.125 -.036 0.375 1. 0 
Si1 Si4+ 8 c 0.028 -.336 0.267 1. 0 
Si2 Si4+ 8 c 0.222 -.172 0.028 1. 0 
O1 O2- 8 c 0.061 0.147 0.219 1. 0 
O2 O2- 8 c 0.061 0.503 0.2 1. 0 
O3 O2- 8 c 0.058 -.267 0 1. 0 
O4 O2- 8 c 0.189 0.347 0.028 1. 0 
O5 O2- 8 c 0.197 0.006 0.05 1. 0 
O6 O2- 8 c 0.194 -.236 0.292 1. 0 

#End of data_77344-ICSD


