data_281504-ICSD
#?2014 by Fachinformationszentrum Karlsruhe, and the U.S. Secretary of 
#Commerce on behalf of the United States.  All rights reserved.
_database_code_ICSD                281504
_audit_creation_date               2004/04/01
_chemical_name_systematic
;
Dipotassium Octathiotrimercurodigermanate - Alpha
;
_chemical_formula_structural       'K2 (Hg3 Ge2 S8)'
_chemical_formula_sum              'Ge2 Hg3 K2 S8'
_publ_section_title
;
Alpha- and beta-(A2 Hg3 M2 S8) (A = K, Rb; M = Ge, Sn): polar 
quaternary chalcogenides with strong nonlinear optical response
;
loop_
_citation_id
_citation_journal_abbrev
_citation_year
_citation_journal_volume
_citation_page_first
_citation_page_last
_citation_journal_id_ASTM
primary 'Journal of the American Chemical Society' 2003 125 9484 9493 JACSAT
_publ_author_name
;
Liao, J.-H.;Marking, G.M.;Hsu, K.-F.;Matsushita, Y.;Ewbank, 
M.D.;Borwick, R.;Cunningham, P.;Rosker, M.J.;Kanatzidis, M.G.
;
_cell_length_a                     19.082(8)
_cell_length_b                     9.551(4)
_cell_length_c                     8.2871(8)
_cell_angle_alpha                  90.
_cell_angle_beta                   90.
_cell_angle_gamma                  90.
_cell_volume                       1510.34
_cell_formula_units_Z              4
_symmetry_space_group_name_H-M     'A b a 2'
_symmetry_Int_Tables_number        41
_refine_ls_R_factor_all            .075
loop_
_symmetry_equiv_pos_site_id
_symmetry_equiv_pos_as_xyz
  1	'x+.5, -y+.5, z'
  2	'-x+.5, y+.5, z'
  3	'-x, -y, z'
  4	'x, y, z'
  5	'x+.5, -y, z+.5'
  6	'-x+.5, y, z+.5'
  7	'-x, -y+.5, z+.5'
  8	'x, y+.5, z+.5'
loop_
_atom_type_symbol
_atom_type_oxidation_number
Ge4+	4
Hg2+	2
K1+	1
S2-	-2
loop_
_atom_site_label
_atom_site_type_symbol
_atom_site_symmetry_multiplicity
_atom_site_Wyckoff_symbol
_atom_site_fract_x
_atom_site_fract_y
_atom_site_fract_z
_atom_site_occupancy
_atom_site_attached_hydrogens
_atom_site_U_iso_or_equiv
Hg1 Hg2+ 4 a 0.5 0 0.4839(3) 1. 0 0.0222(5) 
Hg2 Hg2+ 8 b 0.25455(8) 0.54369(14) 0.6506(2) 1. 0 0.0251(4) 
Ge1 Ge4+ 8 b 0.36519(18) 0.7885(3) 0.3385(4) 1. 0 0.0094(7) 
K1 K1+ 8 b 0.3886(5) 0.8012(9) 0.8517(11) 1. 0 0.0265(9) 
S1 S2- 8 b 0.2703(5) 0.7916(7) 0.4770(13) 1. 0 0.0172(16) 
S2 S2- 8 b 0.4620(4) 0.7679(8) 0.4900(12) 1. 0 0.0153(15) 
S3 S2- 8 b 0.3753(5) 0.4828(8) 0.6952(10) 1. 0 0.0143(16) 
S4 S2- 8 b 0.1321(5) 0.5972(9) 0.6884(9) 1. 0 0.0146(16) 

loop_
_atom_site_aniso_label
_atom_site_aniso_type_symbol
_atom_site_aniso_U_11
_atom_site_aniso_U_22
_atom_site_aniso_U_33
_atom_site_aniso_U_12
_atom_site_aniso_U_13
_atom_site_aniso_U_23
Hg1 Hg2+ 0.0270(11) 0.0158(8) 0.0237(8) -0.0050(8) 0 0
Hg2 Hg2+ 0.0188(7) 0.0225(7) 0.0340(7) 0.0078(6) -0.0002(8) 0.0020(6)
Ge1 Ge4+ 0.0087(16) 0.0119(16) 0.0076(13) -0.0007(12) -0.0021(14) 
0.0000(12)
K1 K1+ 0.019(4) 0.035(5) 0.025(4) -0.004(4) -0.006(4) 0.002(3)
S1 S2- 0.014(4) 0.013(4) 0.025(4) 0.004(3) 0.001(4) 0.006(4)
S2 S2- 0.012(4) 0.013(3) 0.021(4) -0.003(3) -0.006(4) 0.003(4)
S3 S2- 0.017(4) 0.007(4) 0.020(4) -0.002(3) 0.000(3) 0.003(3)
S4 S2- 0.021(4) 0.010(4) 0.012(4) 0.000(3) 0.002(3) -0.005(3)
#End of data_281504-ICSD


