data_191281-ICSD
#?2014 by Fachinformationszentrum Karlsruhe, and the U.S. Secretary of 
#Commerce on behalf of the United States.  All rights reserved.
_database_code_ICSD                191281
_audit_creation_date               2014/08/01
_chemical_name_systematic          'Dipotassium Iron Pyrophosphate'
_chemical_formula_structural       'K2 Fe (P2 O7)'
_chemical_formula_sum              'Fe1 K2 O7 P2'
_publ_section_title
;
Synthesis and structural characterisation of iron(II) and copper(II) 
diphosphates containing flattened metal oxotetrahedra
;
loop_
_citation_id
_citation_journal_abbrev
_citation_year
_citation_journal_volume
_citation_journal_issue
_citation_page_first
_citation_page_last
_citation_journal_id_ASTM
primary 'Journal of Solid State Chemistry' 2014 210 1 10 14 JSSCBI
_publ_author_name
;
Keates, Adam C.;Wang, Qianlong;Weller, Mark T.
;
_cell_length_a                     8.092(2)
_cell_length_b                     8.092(2)
_cell_length_c                     5.496(2)
_cell_angle_alpha                  90.
_cell_angle_beta                   90.
_cell_angle_gamma                  90.
_cell_volume                       359.88
_cell_formula_units_Z              2
_symmetry_space_group_name_H-M     'P -4 21 m'
_symmetry_Int_Tables_number        113
_refine_ls_R_factor_all            .0293
loop_
_symmetry_equiv_pos_site_id
_symmetry_equiv_pos_as_xyz
  1	'-y+.5, -x+.5, z'
  2	'y, -x, -z'
  3	'y+.5, x+.5, z'
  4	'-y, x, -z'
  5	'x+.5, -y+.5, -z'
  6	'-x, -y, z'
  7	'-x+.5, y+.5, -z'
  8	'x, y, z'
loop_
_atom_type_symbol
_atom_type_oxidation_number
Fe2+	2
K1+	1
O2-	-2
P5+	5
loop_
_atom_site_label
_atom_site_type_symbol
_atom_site_symmetry_multiplicity
_atom_site_Wyckoff_symbol
_atom_site_fract_x
_atom_site_fract_y
_atom_site_fract_z
_atom_site_occupancy
_atom_site_attached_hydrogens
_atom_site_U_iso_or_equiv
K1 K1+ 4 e 0.33449(7) 0.16551(7) 0.4917(3) 1. 0 0.0089(2) 
Fe1 Fe2+ 2 a 0 0 0 1. 0 0.0071(2) 
P1 P5+ 4 e 0.63364(10) 0.13364(10) 0.9596(2) 1. 0 0.0069(3) 
O1 O2- 2 c 0.5 0 0.8624(9) 1. 0 0.0097(10) 
O2 O2- 8 f 0.0762(3) 0.2065(3) 0.8373(5) 1. 0 0.0093(5) 
O3 O2- 4 e 0.6362(3) 0.1362(3) 0.2308(6) 1. 0 0.0103(7) 

#End of data_191281-ICSD


