data_182812-ICSD
#?2014 by Fachinformationszentrum Karlsruhe, and the U.S. Secretary of 
#Commerce on behalf of the United States.  All rights reserved.
_database_code_ICSD                182812
_audit_creation_date               2012/08/01
_chemical_name_systematic
;
Calcium Manganate(IV) - Nanocrystalline
;
_chemical_formula_structural       'Ca (Mn O3)'
_chemical_formula_sum              'Ca1 Mn1 O3'
_publ_section_title
;
Effect of the sintering temperature on the properties of 
nanocrystalline Ca1-x Smx Mn O3 (0 <= x <= 0.4) powders
;
loop_
_citation_id
_citation_journal_abbrev
_citation_year
_citation_journal_volume
_citation_page_first
_citation_page_last
_citation_journal_id_ASTM
primary 'Journal of Alloys and Compounds' 2011 509 9617 9626 JALCEU
_publ_author_name
;
Matos, I.;Serio, S.;Lopes, M.E.;Nunes, M.R.;Melo Jorge, M.E.
;
_cell_length_a                     5.2782(1)
_cell_length_b                     7.4562(3)
_cell_length_c                     5.2766(2)
_cell_angle_alpha                  90.
_cell_angle_beta                   90.
_cell_angle_gamma                  90.
_cell_volume                       207.66
_cell_formula_units_Z              4
_symmetry_space_group_name_H-M     'P n m a'
_symmetry_Int_Tables_number        62
_refine_ls_R_factor_all            .01
loop_
_symmetry_equiv_pos_site_id
_symmetry_equiv_pos_as_xyz
  1	'x+.5, y, -z+.5'
  2	'x, -y+.5, z'
  3	'-x+.5, y+.5, z+.5'
  4	'-x, -y, -z'
  5	'-x+.5, -y, z+.5'
  6	'-x, y+.5, -z'
  7	'x+.5, -y+.5, -z+.5'
  8	'x, y, z'
loop_
_atom_type_symbol
_atom_type_oxidation_number
Ca2+	2
Mn4+	4
O2-	-2
loop_
_atom_site_label
_atom_site_type_symbol
_atom_site_symmetry_multiplicity
_atom_site_Wyckoff_symbol
_atom_site_fract_x
_atom_site_fract_y
_atom_site_fract_z
_atom_site_occupancy
_atom_site_attached_hydrogens
Ca1 Ca2+ 4 c 0.0323(1) 0.250 -0.0093(1) 1. 0 
Mn1 Mn4+ 4 b 0 0 0.5 1. 0 
O1 O2- 4 c 0.4932(4) 0.250 0.0683(4) 1. 0 
O2 O2- 8 d 0.2904(3) 0.0302(3) -0.2890(3) 1. 0 

#End of data_182812-ICSD


