data_186651-ICSD
#?2014 by Fachinformationszentrum Karlsruhe, and the U.S. Secretary of 
#Commerce on behalf of the United States.  All rights reserved.
_database_code_ICSD                186651
_audit_creation_date               2013/08/01
_chemical_name_systematic          'Tripotassium Iron(III) Trioxalate'
_chemical_formula_structural       'K3 Fe (C2 O4)3'
_chemical_formula_sum              'C6 Fe1 K3 O12'
_publ_section_title
;
Synthesis, crystal structure and characterization of chiral, three-
dimensional anhydrous potassium tris(oxalato) ferrate(III)
;
loop_
_citation_id
_citation_journal_abbrev
_citation_year
_citation_journal_volume
_citation_journal_issue
_citation_page_first
_citation_page_last
_citation_journal_id_ASTM
primary 'Physica B, Condensed Matter' 2012 407 21 4208 4213 PHYBE3
_publ_author_name
;
Saritha, A.;Raju, B.;Ramachary, M.;Raghavaiah, P.;Hussain, K.A.
;
_cell_length_a                     13.5970(2)
_cell_length_b                     13.5970(2)
_cell_length_c                     13.5970(2)
_cell_angle_alpha                  90.00
_cell_angle_beta                   90.00
_cell_angle_gamma                  90.00
_cell_volume                       2513.79
_cell_formula_units_Z              8
_symmetry_space_group_name_H-M     'P 41 3 2'
_symmetry_Int_Tables_number        213
_refine_ls_R_factor_all            .0395
loop_
_symmetry_equiv_pos_site_id
_symmetry_equiv_pos_as_xyz
  1	'-z+.25, y+.75, x+.25'
  2	'z+.25, -y+.25, x+.75'
  3	'z+.75, y+.25, -x+.25'
  4	'-z+.75, -y+.75, -x+.75'
  5	'y+.75, x+.25, -z+.25'
  6	'-y+.25, x+.75, z+.25'
  7	'y+.25, -x+.25, z+.75'
  8	'-y+.75, -x+.75, -z+.75'
  9	'x+.25, -z+.25, y+.75'
 10	'x+.75, z+.25, -y+.25'
 11	'-x+.25, z+.75, y+.25'
 12	'-x+.75, -z+.75, -y+.75'
 13	'z+.5, -x+.5, -y'
 14	'-z+.5, -x, y+.5'
 15	'-z, x+.5, -y+.5'
 16	'z, x, y'
 17	'-y, z+.5, -x+.5'
 18	'y+.5, -z+.5, -x'
 19	'-y+.5, -z, x+.5'
 20	'y, z, x'
 21	'-x+.5, -y, z+.5'
 22	'-x, y+.5, -z+.5'
 23	'x+.5, -y+.5, -z'
 24	'x, y, z'
loop_
_atom_type_symbol
_atom_type_oxidation_number
C3+	3
Fe3+	3
K1+	1
O2-	-2
loop_
_atom_site_label
_atom_site_type_symbol
_atom_site_symmetry_multiplicity
_atom_site_Wyckoff_symbol
_atom_site_fract_x
_atom_site_fract_y
_atom_site_fract_z
_atom_site_occupancy
_atom_site_attached_hydrogens
_atom_site_U_iso_or_equiv
C1 C3+ 24 e 0.7066(3) 0.5506(3) 0.0194(3) 1 0 0.0243(10) 
C2 C3+ 24 e 0.6412(3) 0.6377(3) 0.0577(3) 1 0 0.0220(9) 
O1 O2- 24 e 0.7960(3) 0.5607(3) 0.0143(3) 1 0 0.0375(9) 
O2 O2- 24 e 0.6579(2) 0.4741(2) -0.0042(3) 1 0 0.0298(8) 
O3 O2- 24 e 0.6799(3) 0.7090(3) 0.0958(3) 1 0 0.0330(9) 
O4 O2- 24 e 0.5475(2) 0.6222(2) 0.0469(3) 1 0 0.0269(7) 
K1 K1+ 8 c 0.92039(11) 0.42039(11) 0.07961(11) 1 0 0.0456(6) 
K2 K1+ 12 d 0.50710(8) 0.6250 0.25710(8) 1 0 0.0312(4) 
K3 K1+ 4 a 0.6250 0.8750 0.1250 1 0 0.0608(10) 
Fe1 Fe3+ 8 c 0.76090(4) 0.26090(4) 0.23910(4) 1 0 0.0212(4) 

loop_
_atom_site_aniso_label
_atom_site_aniso_type_symbol
_atom_site_aniso_U_11
_atom_site_aniso_U_22
_atom_site_aniso_U_33
_atom_site_aniso_U_12
_atom_site_aniso_U_13
_atom_site_aniso_U_23
C1 C3+ 0.025(2) 0.022(2) 0.027(2) 0.0035(18) 0.0016(18) 0.0027(18)
C2 C3+ 0.028(2) 0.018(2) 0.0199(19) 0.0000(17) 0.0034(18) 0.0033(17)
O1 O2- 0.0213(16) 0.0323(18) 0.059(2) -0.0005(15) 0.0011(17) 0.0008(19)
O2 O2- 0.0270(16) 0.0214(15) 0.0409(19) 0.0039(14) -0.0061(14) -0.0075(14)
O3 O2- 0.0376(19) 0.0222(16) 0.039(2) -0.0050(14) -0.0034(16) -0.0064(15)
O4 O2- 0.0238(17) 0.0199(15) 0.0371(19) 0.0009(14) 0.0016(14) -0.0047(14)
K1 K1+ 0.0456(6) 0.0456(6) 0.0456(6) 0.0125(6) -0.0125(6) -0.0125(6)
K2 K1+ 0.0298(5) 0.0341(8) 0.0298(5) 0.0056(5) -0.0004(6) -0.0056(5)
K3 K1+ 0.0608(10) 0.0608(10) 0.0608(10) -0.0012(11) 0.0012(11) -0.0012(11)
Fe1 Fe3+ 0.0212(4) 0.0212(4) 0.0212(4) 0.0001(2) -0.0001(2) -0.0001(2)
#End of data_186651-ICSD


