data_261367-ICSD
#?2014 by Fachinformationszentrum Karlsruhe, and the U.S. Secretary of 
#Commerce on behalf of the United States.  All rights reserved.
_database_code_ICSD                261367
_audit_creation_date               2011/08/01
_chemical_name_systematic
;
Dicopper(I) Zinc Silicon Tetrasulfide
;
_chemical_formula_structural       'Cu2 Zn Si S4'
_chemical_formula_sum              'Cu2 S4 Si1 Zn1'
_publ_section_title                'Cu2 Zn Si S4'
loop_
_citation_id
_citation_journal_abbrev
_citation_year
_citation_journal_volume
_citation_journal_issue
_citation_page_first
_citation_page_last
_citation_journal_id_ASTM
primary 'Acta Crystallographica, Section E. Structure Reports Online'
 2011 67 4 i28 i28 ACSEBH
_publ_author_name                  'Rosmus, K.A.;Aitken, J.A.'
_cell_length_a                     7.43740(10)
_cell_length_b                     6.40010(10)
_cell_length_c                     6.13940(10)
_cell_angle_alpha                  90.00
_cell_angle_beta                   90.00
_cell_angle_gamma                  90.00
_cell_volume                       292.24
_cell_formula_units_Z              2
_symmetry_space_group_name_H-M     'P m n 21'
_symmetry_Int_Tables_number        31
_refine_ls_R_factor_all            .0196
loop_
_symmetry_equiv_pos_site_id
_symmetry_equiv_pos_as_xyz
  1	'x+.5, -y, z+.5'
  2	'-x+.5, -y, z+.5'
  3	'-x, y, z'
  4	'x, y, z'
loop_
_atom_type_symbol
_atom_type_oxidation_number
Cu1+	1
S2-	-2
Si4+	4
Zn2+	2
loop_
_atom_site_label
_atom_site_type_symbol
_atom_site_symmetry_multiplicity
_atom_site_Wyckoff_symbol
_atom_site_fract_x
_atom_site_fract_y
_atom_site_fract_z
_atom_site_occupancy
_atom_site_attached_hydrogens
_atom_site_U_iso_or_equiv
Cu1 Cu1+ 4 b 0.24741(3) 0.17426(4) 0.33723(8) 1 0 0.01330(10) 
Zn1 Zn2+ 2 a 0.0000 0.34747(7) 0.84124(15) 1 0 0.02110(10) 
Si1 Si4+ 2 a 0.0000 0.67430(10) 0.3451(4) 1 0 0.00710(10) 
S1 S2- 2 a 0.0000 0.36110(10) 0.46320(10) 1 0 0.00940(10) 
S2 S2- 2 a 0.0000 0.67840(10) 0.9961(2) 1 0 0.0089(2) 
S3 S2- 4 b 0.26269(8) 0.17240(10) -0.04110(10) 1 0 0.01000(10) 

loop_
_atom_site_aniso_label
_atom_site_aniso_type_symbol
_atom_site_aniso_U_11
_atom_site_aniso_U_22
_atom_site_aniso_U_33
_atom_site_aniso_U_12
_atom_site_aniso_U_13
_atom_site_aniso_U_23
Cu1 Cu1+ 0.01410(10) 0.01350(10) 0.0125(2) -0.00070(10) -0.00080(10) 
0.0000(2)
Zn1 Zn2+ 0.0235(2) 0.0210(2) 0.0191(3) 0.000 0.000 -0.0016(3)
Si1 Si4+ 0.0078(3) 0.0077(3) 0.0058(5) 0.000 0.000 0.0007(4)
S1 S2- 0.0126(3) 0.0072(3) 0.0085(5) 0.000 0.000 0.0011(4)
S2 S2- 0.0099(3) 0.0104(3) 0.0064(6) 0.000 0.000 -0.0001(3)
S3 S2- 0.0089(2) 0.0101(3) 0.0110(5) -0.00120(10) 0.0006(3) 0.0000(3)
#End of data_261367-ICSD


