data_67738-ICSD
#?2014 by Fachinformationszentrum Karlsruhe, and the U.S. Secretary of 
#Commerce on behalf of the United States.  All rights reserved.
_database_code_ICSD                67738
_audit_creation_date               1994/06/30
_chemical_name_systematic          'Dipotassium Oxide Diniobate'
_chemical_formula_structural       'K2 O (Nb2 O5)7'
_chemical_formula_sum              'K2 Nb14 O36'
_publ_section_title
;
Crystal structure determination of K2O . 7Nb2O5 by combining high-
resolution electron microscopy and electron diffraction
;
loop_
_citation_id
_citation_journal_abbrev
_citation_year
_citation_journal_volume
_citation_page_first
_citation_page_last
_citation_journal_id_ASTM
primary Ultramicroscopy 1992 41 387 397 ULTRD6
_publ_author_name                  'Hu, J.J.;Li, F.H.;Fan, H.F.'
_cell_length_a                     27.5
_cell_length_b                     27.5
_cell_length_c                     3.94
_cell_angle_alpha                  90.
_cell_angle_beta                   90.
_cell_angle_gamma                  90.
_cell_volume                       2979.63
_cell_formula_units_Z              4
_symmetry_space_group_name_H-M     'P 4/m b m'
_symmetry_Int_Tables_number        127
_refine_ls_R_factor_all            .2808
loop_
_symmetry_equiv_pos_site_id
_symmetry_equiv_pos_as_xyz
  1	'y+.5, x+.5, -z'
  2	'-y+.5, -x+.5, -z'
  3	'-y, x, -z'
  4	'y, -x, -z'
  5	'x+.5, -y+.5, -z'
  6	'-x+.5, y+.5, -z'
  7	'x, y, -z'
  8	'-x, -y, -z'
  9	'-y+.5, -x+.5, z'
 10	'y+.5, x+.5, z'
 11	'y, -x, z'
 12	'-y, x, z'
 13	'-x+.5, y+.5, z'
 14	'x+.5, -y+.5, z'
 15	'-x, -y, z'
 16	'x, y, z'
loop_
_atom_type_symbol
_atom_type_oxidation_number
K1+	1
Nb5+	5
O2-	-2
loop_
_atom_site_label
_atom_site_type_symbol
_atom_site_symmetry_multiplicity
_atom_site_Wyckoff_symbol
_atom_site_fract_x
_atom_site_fract_y
_atom_site_fract_z
_atom_site_occupancy
_atom_site_attached_hydrogens
Nb1 Nb5+ 2 d 0.5 0 0 1. 0 
Nb2 Nb5+ 4 g 0.198 0.698 0 1. 0 
Nb3 Nb5+ 8 i 0.232 0.938 0 1. 0 
Nb4 Nb5+ 8 i 0.368 0.964 0 1. 0 
Nb5 Nb5+ 8 i 0.066 0.721 0 1. 0 
Nb6 Nb5+ 8 i 0.159 0.826 0 1. 0 
Nb7 Nb5+ 8 i 0.038 0.84 0 1. 0 
Nb8 Nb5+ 8 i 0.085 0.949 0 1. 0 
Nb9 Nb5+ 2 a 0 0 0 1. 0 
O1 O2- 2 c 0 0.5 0.5 1. 0 
O2 O2- 4 h 0.198 0.698 0.5 1. 0 
O3 O2- 8 j 0.232 0.938 0.5 1. 0 
O4 O2- 8 j 0.368 0.964 0.5 1. 0 
O5 O2- 8 j 0.066 0.721 0.5 1. 0 
O6 O2- 8 j 0.159 0.826 0.5 1. 0 
O7 O2- 8 j 0.038 0.84 0.5 1. 0 
O8 O2- 8 j 0.085 0.949 0.5 1. 0 
O9 O2- 4 g 0.396 0.896 0 1. 0 
O10 O2- 8 i 0.207 0.87 0 1. 0 
O11 O2- 8 i 0.318 0.932 0 1. 0 
O12 O2- 8 i 0.192 0.754 0 1. 0 
O13 O2- 8 i 0.102 0.879 0 1. 0 
O14 O2- 8 i 0.021 0.913 0 1. 0 
O15 O2- 8 i 0.155 0.961 0 1. 0 
O16 O2- 8 i 0.097 0.789 0 1. 0 
O17 O2- 8 i 0.01 0.767 0 1. 0 
O18 O2- 8 i 0.122 0.693 0 1. 0 
O19 O2- 8 i 0.029 0.665 0 1. 0 
O20 O2- 8 i 0.429 0 0 1. 0 
K1 K1+ 4 h 0.105 0.605 0.5 1. 0 
K2 K1+ 4 h 0.31 0.81 0.5 1. 0 

#End of data_67738-ICSD


