data_68475-ICSD
#?2014 by Fachinformationszentrum Karlsruhe, and the U.S. Secretary of 
#Commerce on behalf of the United States.  All rights reserved.
_database_code_ICSD                68475
_audit_creation_date               1991/07/10
_audit_update_record               2012/02/01
_chemical_name_systematic          'Trilithium Heptaborate'
_chemical_formula_structural       'Li3 (B7 O12)'
_chemical_formula_sum              'B7 Li3 O12'
_publ_section_title
;
Structure of lithium heptaborate, Li3 B7 O12
;
loop_
_citation_id
_citation_journal_abbrev
_citation_year
_citation_journal_volume
_citation_page_first
_citation_page_last
_citation_journal_id_ASTM
primary 'Acta Crystallographica, Section C: Crystal Structure Communications'
 1990 46 1999 2001 ACSCEE
_publ_author_name
;
Jiang, A.-D.;Lei, S.-R.;Huang, Q.-Z.;Chen, T.-B.;Ke, D.
;
_cell_length_a                     6.487(1)
_cell_length_b                     7.840(1)
_cell_length_c                     8.510(2)
_cell_angle_alpha                  92.11(2)
_cell_angle_beta                   104.85(2)
_cell_angle_gamma                  99.47(1)
_cell_volume                       411.23
_cell_formula_units_Z              2
_symmetry_space_group_name_H-M     'P -1'
_symmetry_Int_Tables_number        2
_refine_ls_R_factor_all            .061
loop_
_symmetry_equiv_pos_site_id
_symmetry_equiv_pos_as_xyz
  1	'-x, -y, -z'
  2	'x, y, z'
loop_
_atom_type_symbol
_atom_type_oxidation_number
B3+	3
Li1+	1
O2-	-2
loop_
_atom_site_label
_atom_site_type_symbol
_atom_site_symmetry_multiplicity
_atom_site_Wyckoff_symbol
_atom_site_fract_x
_atom_site_fract_y
_atom_site_fract_z
_atom_site_occupancy
_atom_site_attached_hydrogens
O1 O2- 2 i 0.4104(2) 0.3898(2) 0.3137(2) 1. 0 
O2 O2- 2 i 0.3280(2) 0.6576(2) 0.2118(2) 1. 0 
O3 O2- 2 i 0.5607(2) 0.8011(2) 0.0695(2) 1. 0 
O4 O2- 2 i 0.6845(2) 0.5850(2) 0.2421(2) 1. 0 
O5 O2- 2 i 0.2618(2) 0.0565(2) 0.1079(2) 1. 0 
O6 O2- 2 i 0.0601(2) 0.2390(2) 0.4741(2) 1. 0 
O7 O2- 2 i 0.2252(2) 0.0281(2) 0.3687(2) 1. 0 
O8 O2- 2 i 0.7294(2) 0.2960(2) 0.3100(2) 1. 0 
O9 O2- 2 i -.0501(2) -.1365(2) 0.1449(2) 1. 0 
O10 O2- 2 i -.0359(2) 0.1705(2) 0.1825(2) 1. 0 
O11 O2- 2 i 0.0661(2) 0.4675(2) 0.2920(2) 1. 0 
O12 O2- 2 i 0.6394(2) 0.8627(2) 0.3576(2) 1. 0 
B1 B3+ 2 i 0.2676(3) 0.5033(3) 0.2718(3) 1. 0 
B2 B3+ 2 i 0.0938(3) 0.0360(3) 0.2021(2) 1. 0 
B3 B3+ 2 i 0.6156(3) 0.4269(3) 0.2872(3) 1. 0 
B4 B3+ 2 i -.0424(3) 0.2906(3) 0.3136(3) 1. 0 
B5 B3+ 2 i 0.5586(3) 0.7245(3) 0.2230(2) 1. 0 
B6 B3+ 2 i 0.2149(3) 0.1378(3) 0.4942(2) 1. 0 
B7 B3+ 2 i 0.2491(3) 0.1319(3) -.0365(2) 1. 0 
Li1 Li1+ 2 i -.0119(6) 0.6948(5) 0.3146(5) 1. 0 
Li2 Li1+ 2 i 0.5178(7) 0.0756(6) 0.3062(6) 1. 0 
Li3 Li1+ 2 i 0.2145(8) 0.7977(6) 0.0292(6) 1. 0 

loop_
_atom_site_aniso_label
_atom_site_aniso_type_symbol
_atom_site_aniso_B_11
_atom_site_aniso_B_22
_atom_site_aniso_B_33
_atom_site_aniso_B_12
_atom_site_aniso_B_13
_atom_site_aniso_B_23
O1 O2- 0.39(4) 0.54(4) 1.68(5) 0.25(3) 0.54(3) 0.43(4)
O2 O2- 0.24(3) 0.45(4) 0.72(4) 0.08(3) 0.13(3) 0.20(3)
O3 O2- 0.28(3) 0.67(4) 0.31(4) -.04(3) 0.09(3) 0.13(3)
O4 O2- 0.28(3) 0.28(4) 0.78(4) 0.07(3) 0.21(3) 0.09(3)
O5 O2- 0.31(3) 0.56(4) 0.22(3) 0.05(3) 0.14(3) 0.03(3)
O6 O2- 0.53(4) 0.32(4) 0.23(4) 0.38(3) 0.10(3) 0.04(3)
O7 O2- 0.51(4) 0.54(4) 0.13(3) 0.22(3) 0.03(3) -.07(3)
O8 O2- 0.25(3) 0.31(4) 0.81(4) 0.13(3) 0.19(3) 0.08(3)
O9 O2- 0.34(3) 0.32(4) 0.40(4) -.07(3) 0.00(3) 0.03(3)
O10 O2- 0.59(4) 0.53(4) 0.23(4) 0.33(3) 0.03(3) -.05(3)
O11 O2- 0.30(3) 0.40(4) 1.16(4) 0.07(3) 0.41(3) 0.07(4)
O12 O2- 0.56(4) 0.50(4) 0.26(4) 0.20(3) -.07(3) -.07(3)
B1 B3+ 0.24(5) 0.37(5) 0.59(5) 0.05(4) 0.13(4) -.02(5)
B2 B3+ 0.29(5) 0.37(5) 0.22(5) 0.05(4) 0.12(4) -.06(4)
B3 B3+ 0.23(5) 0.36(5) 0.50(5) 0.04(4) 0.13(4) -.08(4)
B4 B3+ 0.26(5) 0.26(5) 0.34(5) 0.04(4) 0.11(4) -.05(4)
B5 B3+ 0.24(5) 0.35(5) 0.35(5) 0.01(4) 0.08(4) -.01(4)
B6 B3+ 0.37(5) 0.43(5) 0.23(5) 0.03(4) 0.19(4) -.03(4)
B7 B3+ 0.30(5) 0.29(5) 0.26(5) -.01(4) 0.11(4) -.06(4)
Li1 Li1+ 0.7(1) 0.8(1) 0.7(1) 0.17(9) 0.16(9) 0.0(1)
Li2 Li1+ 0.8(1) 0.6(1) 1.5(1) 0.1(1) 0.1(1) 0.3(1)
Li3 Li1+ 1.8(2) 0.8(1) 0.9(1) 0.3(1) -.5(1) 0.2(1)
#End of data_68475-ICSD


