data_246138-ICSD
#?2014 by Fachinformationszentrum Karlsruhe, and the U.S. Secretary of 
#Commerce on behalf of the United States.  All rights reserved.
_database_code_ICSD                246138
_audit_creation_date               2009/02/01
_chemical_name_systematic          'Lithium Amidoborane'
_chemical_formula_structural       'Li (N H2 B H3)'
_chemical_formula_sum              'H5 B1 Li1 N1'
_publ_section_title
;
Alkali and alkaline-earth metal amidoboranes: Structure, crystal 
chemistry, and hydrogen storage properties
;
loop_
_citation_id
_citation_journal_abbrev
_citation_year
_citation_journal_volume
_citation_journal_issue
_citation_page_first
_citation_page_last
_citation_journal_id_ASTM
primary 'Journal of the American Chemical Society' 2008 130 44 14834 14839 JACSAT
_publ_author_name                  'Wu Hui;Zhou Wei;Yildirim, T.'
_cell_length_a                     7.1051(8)
_cell_length_b                     13.930(1)
_cell_length_c                     5.1477(7)
_cell_angle_alpha                  90.
_cell_angle_beta                   90.
_cell_angle_gamma                  90.
_cell_volume                       509.49
_cell_formula_units_Z              8
_symmetry_space_group_name_H-M     'P b c a'
_symmetry_Int_Tables_number        61
loop_
_symmetry_equiv_pos_site_id
_symmetry_equiv_pos_as_xyz
  1	'x+.5, y, -z+.5'
  2	'x, -y+.5, z+.5'
  3	'-x+.5, y+.5, z'
  4	'-x, -y, -z'
  5	'-x+.5, -y, z+.5'
  6	'-x, y+.5, -z+.5'
  7	'x+.5, -y+.5, -z'
  8	'x, y, z'
loop_
_atom_type_symbol
_atom_type_oxidation_number
B3+	3
H1-	-1
H1+	1
Li1+	1
N3-	-3
loop_
_atom_site_label
_atom_site_type_symbol
_atom_site_symmetry_multiplicity
_atom_site_Wyckoff_symbol
_atom_site_fract_x
_atom_site_fract_y
_atom_site_fract_z
_atom_site_occupancy
_atom_site_attached_hydrogens
B1 B3+ 8 c 0.09080 0.14998 0.96163 1. 0 
N1 N3- 8 c 0.05593 0.09003 0.71334 1. 0 
H1 H1- 8 c 0.17223 0.10732 0.14269 1. 0 
H2 H1- 8 c 0.18394 0.22233 0.90818 1. 0 
H3 H1- 8 c 0.93720 0.17870 0.04822 1. 0 
H4 H1+ 8 c 0.18118 0.06777 0.63478 1. 0 
H5 H1+ 8 c 0.98416 0.02771 0.75213 1. 0 
Li1 Li1+ 8 c 0.93217 0.17465 0.43217 1. 0 

#End of data_246138-ICSD


