data_417689-ICSD
#?2014 by Fachinformationszentrum Karlsruhe, and the U.S. Secretary of 
#Commerce on behalf of the United States.  All rights reserved.
_database_code_ICSD                417689
_audit_creation_date               2008/02/01
_chemical_name_systematic
;
Octasodium Hexakis(tecto-alumogallosilicate) Dichloride
;
_chemical_formula_structural       'Na8 (Al Si O4)6 Cl2'
_chemical_formula_sum              'Al6 Cl2 Na8 O24 Si6'
_chemical_name_mineral             Sodalite
_publ_section_title
;
Isomorphous gallium substitution in the alumosilicate sodalite 
framework: synthesis and structural studies of chloride and bromide 
containing phases
;
loop_
_citation_id
_citation_journal_abbrev
_citation_year
_citation_journal_volume
_citation_journal_issue
_citation_page_first
_citation_page_last
_citation_journal_id_ASTM
primary 'Zeitschrift fuer Kristallographie (1979-2010)' 2007 222 7 341 349 ZEKRDZ
_publ_author_name                  'Murshed, M.M.;Gesing, T.M.'
_cell_length_a                     8.8785(0)
_cell_length_b                     8.8785(0)
_cell_length_c                     8.8785(0)
_cell_angle_alpha                  90.000
_cell_angle_beta                   90.000
_cell_angle_gamma                  90.000
_cell_volume                       699.87
_cell_formula_units_Z              1
_symmetry_space_group_name_H-M     'P -4 3 n'
_symmetry_Int_Tables_number        218
loop_
_symmetry_equiv_pos_site_id
_symmetry_equiv_pos_as_xyz
  1	'-z+.5, y+.5, -x+.5'
  2	'-y+.5, x+.5, -z+.5'
  3	'-x+.5, z+.5, -y+.5'
  4	'z+.5, -y+.5, -x+.5'
  5	'y+.5, -x+.5, -z+.5'
  6	'x+.5, -z+.5, -y+.5'
  7	'-z+.5, -y+.5, x+.5'
  8	'-y+.5, -x+.5, z+.5'
  9	'-x+.5, -z+.5, y+.5'
 10	'z+.5, y+.5, x+.5'
 11	'y+.5, x+.5, z+.5'
 12	'x+.5, z+.5, y+.5'
 13	'-z, -x, y'
 14	'-y, -z, x'
 15	'-x, -y, z'
 16	'z, -x, -y'
 17	'y, -z, -x'
 18	'x, -y, -z'
 19	'-z, x, -y'
 20	'-y, z, -x'
 21	'-x, y, -z'
 22	'z, x, y'
 23	'y, z, x'
 24	'x, y, z'
loop_
_atom_type_symbol
_atom_type_oxidation_number
Al3+	3
Cl1-	-1
Na1+	1
O2-	-2
Si4+	4
loop_
_atom_site_label
_atom_site_type_symbol
_atom_site_symmetry_multiplicity
_atom_site_Wyckoff_symbol
_atom_site_fract_x
_atom_site_fract_y
_atom_site_fract_z
_atom_site_occupancy
_atom_site_attached_hydrogens
_atom_site_B_iso_or_equiv
Na1 Na1+ 8 e 0.1782(1) 0.1782(1) 0.1782(1) 1.0 0 1.82(4) 
Al1 Al3+ 6 c 0.2500 0.5000 0.0000 1.0 0 1.19(9) 
Si1 Si4+ 6 d 0.2500 0.0000 0.5000 1.0 0 1.05(8) 
O1 O2- 24 i 0.1498(2) 0.1392(2) 0.4378(1) 1.0 0 0.90(4) 
Cl1 Cl1- 2 a 0.0000 0.0000 0.0000 1.0 0 3.06(5) 

#End of data_417689-ICSD


