data_648089-ICSD
#?2014 by Fachinformationszentrum Karlsruhe, and the U.S. Secretary of 
#Commerce on behalf of the United States.  All rights reserved.
_database_code_ICSD                648089
_audit_creation_date               2013/08/01
_chemical_name_systematic          'Dizinc Hexathio-hypodiphosphate'
_chemical_formula_structural       'Zn2 (P2 S6)'
_chemical_formula_sum              'P2 S6 Zn2'
_publ_section_title
;
Ueber Hexachalkogeno-hypodiphosphate vom Typ M2 P2 X6
;
loop_
_citation_id
_citation_journal_abbrev
_citation_year
_citation_journal_volume
_citation_page_first
_citation_page_last
_citation_journal_id_ASTM
primary Naturwissenschaften 1970 57 88 88 NATWAY
2 'Zeitschrift fuer Anorganische und Allgemeine Chemie (1950) (DE)'
 1973 396 271 278 ZAACAB
_publ_author_name
;
Klingen, W.;Eulenberger, G.;Hahn, H.
;
_cell_length_a                     5.96
_cell_length_b                     10.28
_cell_length_c                     6.73
_cell_angle_alpha                  90.0
_cell_angle_beta                   107.1
_cell_angle_gamma                  90.0
_cell_volume                       394.11
_cell_formula_units_Z              2
_symmetry_space_group_name_H-M     'C 1 2/m 1'
_symmetry_Int_Tables_number        12
loop_
_symmetry_equiv_pos_site_id
_symmetry_equiv_pos_as_xyz
  1	'-x, y, -z'
  2	'-x, -y, -z'
  3	'x, -y, z'
  4	'x, y, z'
  5	'-x+.5, y+.5, -z'
  6	'-x+.5, -y+.5, -z'
  7	'x+.5, -y+.5, z'
  8	'x+.5, y+.5, z'
loop_
_atom_type_symbol
_atom_type_oxidation_number
P4+	4
S2-	-2
Zn2+	2
loop_
_atom_site_label
_atom_site_type_symbol
_atom_site_symmetry_multiplicity
_atom_site_Wyckoff_symbol
_atom_site_fract_x
_atom_site_fract_y
_atom_site_fract_z
_atom_site_occupancy
_atom_site_attached_hydrogens
Zn1 Zn2+ 4 g 0 0.333 0 1. 0 
P1 P4+ 4 i 0.057 0 0.171 1. 0 
S1 S2- 4 i 0.751 0 0.247 1. 0 
S2 S2- 8 j 0.248 0.166 0.248 1. 0 

#End of data_648089-ICSD


