data_30205-ICSD
#?2014 by Fachinformationszentrum Karlsruhe, and the U.S. Secretary of 
#Commerce on behalf of the United States.  All rights reserved.
_database_code_ICSD                30205
_audit_creation_date               1980/01/01
_audit_update_record               2007/04/01
_chemical_name_systematic
;
Aluminium Sodium Arsenate(V) Fluoride
;
_chemical_formula_structural       'Na Al (As O4) F'
_chemical_formula_sum              'Al1 As1 F1 Na1 O4'
_chemical_name_mineral             Durangite
_publ_section_title
;
Ueber die Struktur des Durangit Na Al F (As O4)
;
loop_
_citation_id
_citation_journal_abbrev
_citation_year
_citation_journal_volume
_citation_page_first
_citation_page_last
_citation_journal_id_ASTM
primary
;
Zeitschrift fuer Kristallographie, Kristallgeometrie, Kristallphysik, 
Kristallchemie (-144,1977)
;
 1938 99 38 49 ZEKGAX
_publ_author_name                  'Kokkoros, P.'
_cell_length_a                     6.53(1)
_cell_length_b                     8.46(1)
_cell_length_c                     7.00(2)
_cell_angle_alpha                  90.
_cell_angle_beta                   115.22
_cell_angle_gamma                  90.
_cell_volume                       349.85
_cell_formula_units_Z              4
_symmetry_space_group_name_H-M     'C 1 2/c 1'
_symmetry_Int_Tables_number        15
loop_
_symmetry_equiv_pos_site_id
_symmetry_equiv_pos_as_xyz
  1	'x, -y, z+.5'
  2	'-x, -y, -z'
  3	'-x, y, -z+.5'
  4	'x, y, z'
  5	'x+.5, -y+.5, z+.5'
  6	'-x+.5, -y+.5, -z'
  7	'-x+.5, y+.5, -z+.5'
  8	'x+.5, y+.5, z'
loop_
_atom_type_symbol
_atom_type_oxidation_number
Al3+	3
As5+	5
F1-	-1
Na1+	1
O2-	-2
loop_
_atom_site_label
_atom_site_type_symbol
_atom_site_symmetry_multiplicity
_atom_site_Wyckoff_symbol
_atom_site_fract_x
_atom_site_fract_y
_atom_site_fract_z
_atom_site_occupancy
_atom_site_attached_hydrogens
As1 As5+ 4 e 0 0.317 0.25 1. 0 
Al1 Al3+ 4 a 0 0 0 1. 0 
Na1 Na1+ 4 e 0 0.667 0.25 1. 0 
F1 F1- 4 e 0 0.944 0.25 1. 0 
O1 O2- 8 f 0.208 0.433 0.417 1. 0 
O2 O2- 8 f 0.092 0.211 0.097 1. 0 

#End of data_30205-ICSD


