data_32523-ICSD
#?2014 by Fachinformationszentrum Karlsruhe, and the U.S. Secretary of 
#Commerce on behalf of the United States.  All rights reserved.
_database_code_ICSD                32523
_audit_creation_date               1982/12/31
_audit_update_record               1993/07/06
_chemical_name_systematic
;
Disodium Diberyllium Cyclo-trisilicate
;
_chemical_formula_structural       'Na2 Be2 (Si3 O9)'
_chemical_formula_sum              'Be2 Na2 O9 Si3'
_publ_section_title
;
Structure du Silicate de Beryllium et de Sodium Na2 Be2 Si3 O9
;
loop_
_citation_id
_citation_journal_abbrev
_citation_year
_citation_journal_volume
_citation_page_first
_citation_page_last
_citation_journal_id_ASTM
primary 'Acta Crystallographica B (24,1968-38,1982)' 1982 38 62 66 ACBCAR
_publ_author_name
;
Ginderow, D.;Cesbron, F.;Sichere, M.C.
;
_cell_length_a                     11.748(5)
_cell_length_b                     9.415(4)
_cell_length_c                     6.818(3)
_cell_angle_alpha                  90.
_cell_angle_beta                   90.
_cell_angle_gamma                  90.
_cell_volume                       754.12
_cell_formula_units_Z              4
_symmetry_space_group_name_H-M     'P n m a'
_symmetry_Int_Tables_number        62
_refine_ls_R_factor_all            .027
loop_
_symmetry_equiv_pos_site_id
_symmetry_equiv_pos_as_xyz
  1	'x+.5, y, -z+.5'
  2	'x, -y+.5, z'
  3	'-x+.5, y+.5, z+.5'
  4	'-x, -y, -z'
  5	'-x+.5, -y, z+.5'
  6	'-x, y+.5, -z'
  7	'x+.5, -y+.5, -z+.5'
  8	'x, y, z'
loop_
_atom_type_symbol
_atom_type_oxidation_number
Be2+	2
Na1+	1
O2-	-2
Si4+	4
loop_
_atom_site_label
_atom_site_type_symbol
_atom_site_symmetry_multiplicity
_atom_site_Wyckoff_symbol
_atom_site_fract_x
_atom_site_fract_y
_atom_site_fract_z
_atom_site_occupancy
_atom_site_attached_hydrogens
Si1 Si4+ 4 c 0.49688(4) 0.25 -.0997(1) 1. 0 
Si2 Si4+ 4 c 0.56241(4) 0.25 0.3284(1) 1. 0 
Si3 Si4+ 4 c 0.74559(4) 0.25 0.0249(1) 1. 0 
Be1 Be2+ 8 d 0.43015(13) 0.0600(2) 0.5944(2) 1. 0 
Na1 Na1+ 8 d 0.65317(7) 0.5331(1) -.1522(1) 1. 0 
O1 O2- 4 c 0.47414(11) 0.25 0.1403(2) 1. 0 
O2 O2- 4 c 0.63620(11) 0.25 -.1227(2) 1. 0 
O3 O2- 4 c 0.69296(11) 0.25 0.2496(2) 1. 0 
O4 O2- 8 d 0.44696(9) 0.1043(1) -.1824(1) 1. 0 
O5 O2- 8 d 0.54057(7) 0.1094(1) 0.4533(1) 1. 0 
O6 O2- 8 d 0.81267(8) 0.1040(1) 0.0013(2) 1. 0 

#End of data_32523-ICSD


