data_79702-ICSD
#?2014 by Fachinformationszentrum Karlsruhe, and the U.S. Secretary of 
#Commerce on behalf of the United States.  All rights reserved.
_database_code_ICSD                79702
_audit_creation_date               1996/10/14
_audit_update_record               2011/02/01
_chemical_name_systematic
;
Dipotassium Nickel Bis(diphosphato(V))dioxotungstate
;
_chemical_formula_structural       'K2 Ni (W O2 (P O4)2)'
_chemical_formula_sum              'K2 Ni1 O10 P2 W1'
_publ_section_title
;
K2 Ni W O2 (P O4)2: a new structure type related to K Ti O P O4 (KTP)
;
loop_
_citation_id
_citation_journal_abbrev
_citation_year
_citation_journal_volume
_citation_page_first
_citation_page_last
_citation_journal_id_ASTM
primary 'Acta Crystallographica, Section C: Crystal Structure Communications'
 1995 51 1719 1721 ACSCEE
_publ_author_name
;
Peuchert, U.;Bohaty, L.;Froehlich, R.
;
_cell_length_a                     9.161(1)
_cell_length_b                     9.161(1)
_cell_length_c                     10.678(2)
_cell_angle_alpha                  90.
_cell_angle_beta                   90.
_cell_angle_gamma                  90.
_cell_volume                       896.14
_cell_formula_units_Z              4
_symmetry_space_group_name_H-M     'P 41 21 2'
_symmetry_Int_Tables_number        92
_refine_ls_R_factor_all            .017
loop_
_symmetry_equiv_pos_site_id
_symmetry_equiv_pos_as_xyz
  1	'x+.5, -y+.5, -z+.75'
  2	'-x+.5, y+.5, -z+.25'
  3	'-y, -x, -z+.5'
  4	'y, x, -z'
  5	'y+.5, -x+.5, z+.75'
  6	'-y+.5, x+.5, z+.25'
  7	'-x, -y, z+.5'
  8	'x, y, z'
loop_
_atom_type_symbol
_atom_type_oxidation_number
K1+	1
Ni2+	2
O2-	-2
P5+	5
W6+	6
loop_
_atom_site_label
_atom_site_type_symbol
_atom_site_symmetry_multiplicity
_atom_site_Wyckoff_symbol
_atom_site_fract_x
_atom_site_fract_y
_atom_site_fract_z
_atom_site_occupancy
_atom_site_attached_hydrogens
W1 W6+ 4 a 0.1099(1) 0.1099(1) 0 1. 0 
Ni1 Ni2+ 4 a 0.6381(1) 0.6381(1) 0 1. 0 
P1 P5+ 8 b 0.3302(1) 0.8228(1) 0.0031(1) 1. 0 
K1 K1+ 8 b 0.0001(1) 0.7103(1) 0.0475(1) 1. 0 
O1 O2- 8 b 0.2190(2) 0.2398(3) 0.1278(2) 1. 0 
O2 O2- 8 b 0.2839(2) -.0138(2) 0.0279(2) 1. 0 
O3 O2- 8 b 0.7614(3) 0.2448(3) 0.1075(2) 1. 0 
O4 O2- 8 b 0.8153(2) 0.4934(2) 0.0174(2) 1. 0 
O5 O2- 8 b -.0059(2) 0.0447(2) 0.1179(2) 1. 0 

loop_
_atom_site_aniso_label
_atom_site_aniso_type_symbol
_atom_site_aniso_U_11
_atom_site_aniso_U_22
_atom_site_aniso_U_33
_atom_site_aniso_U_12
_atom_site_aniso_U_13
_atom_site_aniso_U_23
W1 W6+ 0.004(1) 0.004(1) 0.003(1) 0.000(1) 0.000(1) 0.000(1)
Ni1 Ni2+ 0.005(1) 0.005(1) 0.004(1) 0.000(1) 0.000(1) 0.000(1)
P1 P5+ 0.004(1) 0.004(1) 0.004(1) 0.001(1) 0.000(1) 0.001(1)
K1 K1+ 0.011(1) 0.036(1) 0.033(1) -.009(1) 0.006(1) -.009(1)
O1 O2- 0.006(1) 0.012(1) 0.006(1) -.001(1) 0.000(1) -.004(1)
O2 O2- 0.008(1) 0.007(1) 0.007(1) 0.003(1) -.002(1) -.001(1)
O3 O2- 0.008(1) 0.011(1) 0.007(1) 0.000(1) 0.001(1) 0.004(1)
O4 O2- 0.009(1) 0.004(1) 0.010(1) 0.002(1) -.001(1) -.002(1)
O5 O2- 0.009(1) 0.009(1) 0.008(1) 0.000(1) 0.002(1) 0.000(1)
#End of data_79702-ICSD


