data_166572-ICSD
#?2014 by Fachinformationszentrum Karlsruhe, and the U.S. Secretary of 
#Commerce on behalf of the United States.  All rights reserved.
_database_code_ICSD                166572
_audit_creation_date               2010/08/01
_chemical_name_systematic
;
Heptaaluminium Trioxide Borate Tris(silicate)
;
_chemical_formula_structural       'Al7 O3 (B O3) (Si O4)3'
_chemical_formula_sum              'Al7 B1 O18 Si3'
_chemical_name_mineral             Dumortierite
_publ_section_title
;
The crystal structure of dumortierite (Al, Fe)7 O3 (B O3) (Si O4)3
;
loop_
_citation_id
_citation_journal_abbrev
_citation_year
_citation_journal_volume
_citation_journal_issue
_citation_page_first
_citation_page_last
_citation_journal_id_ASTM
primary 'Doklady Akademii Nauk SSSR' 1965 162 6 1284 1287 DANKAS
_publ_author_name                  'Golovastikov, N.I.'
_cell_length_a                     11.79(1)
_cell_length_b                     20.209(2)
_cell_length_c                     4.701(1)
_cell_angle_alpha                  90.
_cell_angle_beta                   90.
_cell_angle_gamma                  90.
_cell_volume                       1120.08
_cell_formula_units_Z              4
_symmetry_space_group_name_H-M     'P m c n'
_symmetry_Int_Tables_number        62
_refine_ls_R_factor_all            .14
loop_
_symmetry_equiv_pos_site_id
_symmetry_equiv_pos_as_xyz
  1	'x, -y+.5, z+.5'
  2	'-x+.5, y, z'
  3	'x+.5, y+.5, -z+.5'
  4	'-x, -y, -z'
  5	'-x, y+.5, -z+.5'
  6	'x+.5, -y, -z'
  7	'-x+.5, -y+.5, z+.5'
  8	'x, y, z'
loop_
_atom_type_symbol
_atom_type_oxidation_number
Al3+	3
B3+	3
O2-	-2
Si4+	4
loop_
_atom_site_label
_atom_site_type_symbol
_atom_site_symmetry_multiplicity
_atom_site_Wyckoff_symbol
_atom_site_fract_x
_atom_site_fract_y
_atom_site_fract_z
_atom_site_occupancy
_atom_site_attached_hydrogens
_atom_site_B_iso_or_equiv
Si1 Si4+ 4 c 0.250 0.094 0.087 1. 0 0.45 
Si2 Si4+ 8 d 0.474 0.172 0.588 1. 0 0.45 
Al1 Al3+ 4 c 0.250 0.249 0.392 1. 0 0.45 
Al2 Al3+ 8 d 0.390 0.028 0.560 1. 0 0.45 
Al3 Al3+ 8 d 0.508 0.069 0.057 1. 0 0.45 
Al4 Al3+ 8 d 0.641 0.211 0.057 1. 0 0.45 
O1 O2- 4 c 0.250 0.173 0.122 1. 0 0.45 
O2 O2- 8 d 0.360 0.213 0.650 1. 0 0.45 
O3 O2- 8 d 0.361 0.075 0.895 1. 0 0.45 
O4 O2- 8 d 0.449 0.106 0.390 1. 0 0.45 
O5 O2- 8 d 0.570 0.216 0.400 1. 0 0.45 
O6 O2- 4 c 0.250 0.047 0.388 1. 0 0.45 
O7 O2- 8 d 0.544 0.150 0.875 1. 0 0.45 
O8 O2- 4 c 0.750 0.225 0.732 1. 0 0.45 
O9 O2- 4 c 0.750 0.150 0.165 1. 0 0.45 
O10 O2- 8 d 0.650 0.052 0.255 1. 0 0.45 
O11 O2- 8 d 0.537 0.013 0.748 1. 0 0.45 
B1 B3+ 4 c 0.750 0.085 0.225 1. 0 0.45 

#End of data_166572-ICSD


