data_300100-ICSD
#?2014 by Fachinformationszentrum Karlsruhe, and the U.S. Secretary of 
#Commerce on behalf of the United States.  All rights reserved.
_database_code_ICSD                300100
_audit_creation_date               1989/12/04
_audit_update_record               1991/10/30
_chemical_name_systematic          'Silver Dilead Pentabromide'
_chemical_formula_structural       'Ag Pb2 Br5'
_chemical_formula_sum              'Ag1 Br5 Pb2'
_publ_section_title
;
Crystal structure of Silver dilead pentabromide
;
loop_
_citation_id
_citation_journal_abbrev
_citation_year
_citation_journal_volume
_citation_page_first
_citation_page_last
_citation_journal_id_ASTM
primary 'Zeitschrift fuer Kristallographie (1979-2010)' 1990 191 135 136 ZEKRDZ
_publ_author_name                  'Boese, R.;Blaeser, D.;Hueben, W.'
_cell_length_a                     16.697(3)
_cell_length_b                     7.053(2)
_cell_length_c                     7.982(1)
_cell_angle_alpha                  90.
_cell_angle_beta                   95.954(10)
_cell_angle_gamma                  90.
_cell_volume                       934.92
_cell_formula_units_Z              4
_symmetry_space_group_name_H-M     'C 1 2/c 1'
_symmetry_Int_Tables_number        15
_refine_ls_R_factor_all            .048
loop_
_symmetry_equiv_pos_site_id
_symmetry_equiv_pos_as_xyz
  1	'x, -y, z+.5'
  2	'-x, -y, -z'
  3	'-x, y, -z+.5'
  4	'x, y, z'
  5	'x+.5, -y+.5, z+.5'
  6	'-x+.5, -y+.5, -z'
  7	'-x+.5, y+.5, -z+.5'
  8	'x+.5, y+.5, z'
loop_
_atom_type_symbol
_atom_type_oxidation_number
Ag1+	1
Br1-	-1
Pb2+	2
loop_
_atom_site_label
_atom_site_type_symbol
_atom_site_symmetry_multiplicity
_atom_site_Wyckoff_symbol
_atom_site_fract_x
_atom_site_fract_y
_atom_site_fract_z
_atom_site_occupancy
_atom_site_attached_hydrogens
Pb1 Pb2+ 8 f 0.10358(8) 0.23193(17) 0.06391(12) 1. 0 
Br1 Br1- 4 e 0 0.07500(52) -.25 1. 0 
Br2 Br1- 8 f 0.22055(15) 0.91493(37) 0.31891(28) 1. 0 
Br3 Br1- 8 f 0.08760(16) 0.38397(38) 0.42040(31) 1. 0 
Ag1 Ag1+ 4 d 0.25 0.25 0.5 1. 0 

loop_
_atom_site_aniso_label
_atom_site_aniso_type_symbol
_atom_site_aniso_U_11
_atom_site_aniso_U_22
_atom_site_aniso_U_33
_atom_site_aniso_U_12
_atom_site_aniso_U_13
_atom_site_aniso_U_23
Pb1 Pb2+ 0.04952(88) 0.04535(87) 0.03827(76) -.00135(48) 0.00889(51) 
-.00392(61)
Br1 Br1- 0.0242(21) 0.0359(21) 0.0306(18) 0 0.0017(15) 0
Br2 Br1- 0.0256(15) 0.0392(17) 0.0336(14) -.0015(11) 0.0078(11) -.0007(13)
Br3 Br1- 0.0245(15) 0.0449(17) 0.0359(14) -.0108(11) 0.0058(11) -.0014(12)
Ag1 Ag1+ 0.0605(24) 0.0500(21) 0.0443(17) -.0045(15) -.0027(16) 0.0108(19)
#End of data_300100-ICSD


