data_20638-ICSD
#?2014 by Fachinformationszentrum Karlsruhe, and the U.S. Secretary of 
#Commerce on behalf of the United States.  All rights reserved.
_database_code_ICSD                20638
_audit_creation_date               1980/01/01
_audit_update_record               1985/05/06
_chemical_name_systematic
;
Potassium Holmium Catena-phosphate - Beta
;
_chemical_formula_structural       'K Ho (P O3)4'
_chemical_formula_sum              'Ho1 K1 O12 P4'
_publ_section_title
;
The crystal structure of the double poly- and metaphosphate of the 
composition K Ln (P O3)4
;
loop_
_citation_id
_citation_journal_abbrev
_citation_year
_citation_journal_volume
_citation_page_first
_citation_page_last
_citation_journal_id_ASTM
primary 'Izvestiya Akademii Nauk SSSR, Neorganicheskie Materialy'
 1976 12 730 734 IVNMAW
_publ_author_name
;
Palkina, K.K.;Kuznetsov, V.G.;Chudinova, N.N.;Chibiskova, N.T.
;
_cell_length_a                     7.798(1)
_cell_length_b                     10.511(1)
_cell_length_c                     12.310(1)
_cell_angle_alpha                  90.
_cell_angle_beta                   90.
_cell_angle_gamma                  112.63(1)
_cell_volume                       931.3
_cell_formula_units_Z              4
_symmetry_space_group_name_H-M     'B 1 1 2/b'
_symmetry_Int_Tables_number        15
_refine_ls_R_factor_all            .056
loop_
_symmetry_equiv_pos_site_id
_symmetry_equiv_pos_as_xyz
  1	'x, y+.5, -z'
  2	'-x, -y, -z'
  3	'-x, -y+.5, z'
  4	'x, y, z'
  5	'x+.5, y+.5, -z+.5'
  6	'-x+.5, -y, -z+.5'
  7	'-x+.5, -y+.5, z+.5'
  8	'x+.5, y, z+.5'
loop_
_atom_type_symbol
_atom_type_oxidation_number
Ho3+	3
K1+	1
O2-	-2
P5+	5
loop_
_atom_site_label
_atom_site_type_symbol
_atom_site_symmetry_multiplicity
_atom_site_Wyckoff_symbol
_atom_site_fract_x
_atom_site_fract_y
_atom_site_fract_z
_atom_site_occupancy
_atom_site_attached_hydrogens
_atom_site_B_iso_or_equiv
Ho1 Ho3+ 4 e 0 0.25 0.1307(1) 1. 0 0.305(17) 
K1 K1+ 4 e 0 0.25 0.433(1) 1. 0 1.43(11) 
P1 P5+ 8 f 0.205(1) 0.998(1) 0.079(1) 1. 0 0.09(7) 
P2 P5+ 8 f 0.029(1) 0.560(1) 0.273(1) 1. 0 0.09(12) 
O1 O2- 8 f 0.154(2) 0.113(2) 0.050(1) 1. 0 0.19(20) 
O2 O2- 8 f 0.088(2) 0.932(2) 0.379(1) 1. 0 0.52(20) 
O3 O2- 8 f 0.208(2) 0.677(2) 0.279(1) 1. 0 0.45(20) 
O4 O2- 8 f 0.020(2) 0.417(2) 0.261(1) 1. 0 0.12(20) 
O5 O2- 8 f 0.206(2) 0.900(2) 0.992(1) 1. 0 1.02(20) 
O6 O2- 8 f 0.093(2) 0.909(2) 0.179(1) 1. 0 0.73(20) 

#End of data_20638-ICSD


