data_16191-ICSD
#?2014 by Fachinformationszentrum Karlsruhe, and the U.S. Secretary of 
#Commerce on behalf of the United States.  All rights reserved.
_database_code_ICSD                16191
_audit_creation_date               1980/01/01
_audit_update_record               2009/02/01
_chemical_name_systematic          'Calcium Tetraaluminate'
_chemical_formula_structural       'Ca (Al4 O7)'
_chemical_formula_sum              'Al4 Ca1 O7'
_chemical_name_mineral             Grossite
_publ_section_title
;
Crystal structure of calcium dialuminate, C A2
;
loop_
_citation_id
_citation_journal_abbrev
_citation_year
_citation_journal_volume
_citation_page_first
_citation_page_last
_citation_journal_id_ASTM
primary Kristallografiya 1970 15 1140 1143 KRISAJ
2 'Soviet Physics, Crystallography (= Kristallografiya)'
 1970 15 995 998 SPHCA6
_publ_author_name
;
Ponomarev, V.I.;Kheiker, D.M.;Belov, N.V.
;
_cell_length_a                     12.866(6)
_cell_length_b                     8.879(5)
_cell_length_c                     5.440(4)
_cell_angle_alpha                  90.
_cell_angle_beta                   106.75
_cell_angle_gamma                  90.
_cell_volume                       595.08
_cell_formula_units_Z              4
_symmetry_space_group_name_H-M     'C 1 2/c 1'
_symmetry_Int_Tables_number        15
_refine_ls_R_factor_all            .0895
loop_
_symmetry_equiv_pos_site_id
_symmetry_equiv_pos_as_xyz
  1	'x, -y, z+.5'
  2	'-x, -y, -z'
  3	'-x, y, -z+.5'
  4	'x, y, z'
  5	'x+.5, -y+.5, z+.5'
  6	'-x+.5, -y+.5, -z'
  7	'-x+.5, y+.5, -z+.5'
  8	'x+.5, y+.5, z'
loop_
_atom_type_symbol
_atom_type_oxidation_number
Al3+	3
Ca2+	2
O2-	-2
loop_
_atom_site_label
_atom_site_type_symbol
_atom_site_symmetry_multiplicity
_atom_site_Wyckoff_symbol
_atom_site_fract_x
_atom_site_fract_y
_atom_site_fract_z
_atom_site_occupancy
_atom_site_attached_hydrogens
_atom_site_B_iso_or_equiv
Ca1 Ca2+ 4 e 0 0.1908(5) 0.25 1. 0 1.58 
Al1 Al3+ 8 f 0.1647(3) 0.9137(5) 0.3029(6) 1. 0 1.48 
Al2 Al3+ 8 f 0.1195(3) 0.5589(6) 0.2418(6) 1. 0 1.59 
O1 O2- 4 e 0 0.4675(16) 0.25 1. 0 2.2 
O2 O2- 8 f 0.1149(6) 0.9493(12) 0.5641(14) 1. 0 1.95 
O3 O2- 8 f 0.1195(6) 0.7476(10) 0.1482(14) 1. 0 1.83 
O4 O2- 8 f 0.1935(6) 0.5581(11) 0.5805(14) 1. 0 1.86 

#End of data_16191-ICSD


