data_180389-ICSD
#?2014 by Fachinformationszentrum Karlsruhe, and the U.S. Secretary of 
#Commerce on behalf of the United States.  All rights reserved.
_database_code_ICSD                180389
_audit_creation_date               2011/08/01
_chemical_name_systematic
;
Lithium Iron Sulfate Fluoride - Afm
;
_chemical_formula_structural       'Li Fe (S O4) F'
_chemical_formula_sum              'F1 Fe1 Li1 O4 S1'
_publ_section_title
;
Crystal and electronic structures of lithium fluorosulphate based 
materials for lithium-ion batteries
;
loop_
_citation_id
_citation_journal_abbrev
_citation_year
_citation_journal_volume
_citation_page_first
_citation_page_last
_citation_journal_id_ASTM
primary 'Physical Review, Serie 3. B - Condensed Matter (18,1978-)'
 2010 82 125101-1 125101-5 PRBMDO
_publ_author_name                  'Ramzan, M.;Lebegue, S.;Ahuja, R.'
_cell_length_a                     5.13
_cell_length_b                     5.46
_cell_length_c                     7.14
_cell_angle_alpha                  106.43
_cell_angle_beta                   107.71
_cell_angle_gamma                  98.07
_cell_volume                       177.03
_cell_formula_units_Z              2
_symmetry_space_group_name_H-M     'P -1'
_symmetry_Int_Tables_number        2
loop_
_symmetry_equiv_pos_site_id
_symmetry_equiv_pos_as_xyz
  1	'-x, -y, -z'
  2	'x, y, z'
loop_
_atom_type_symbol
_atom_type_oxidation_number
F1-	-1
Fe2+	2
Li1+	1
O2-	-2
S6+	6
loop_
_atom_site_label
_atom_site_type_symbol
_atom_site_symmetry_multiplicity
_atom_site_Wyckoff_symbol
_atom_site_fract_x
_atom_site_fract_y
_atom_site_fract_z
_atom_site_occupancy
_atom_site_attached_hydrogens
S1 S6+ 2 i 0.324 0.629 0.257 1. 0 
Fe1 Fe2+ 1 b 0 0 0.5 1. 0 
Fe2 Fe2+ 1 a 0 0 0 1. 0 
F1 F1- 2 i 0.150 0.931 0.767 1. 0 
O1 O2- 2 i 0.598 0.760 0.428 1. 0 
O2 O2- 2 i 0.091 0.635 0.341 1. 0 
O3 O2- 2 i 0.331 0.350 0.159 1. 0 
O4 O2- 2 i 0.273 0.754 0.094 1. 0 
Li1 Li1+ 2 i 0.273 0.638 0.793 1. 0 

#End of data_180389-ICSD


