data_23920-ICSD
#?2014 by Fachinformationszentrum Karlsruhe, and the U.S. Secretary of 
#Commerce on behalf of the United States.  All rights reserved.
_database_code_ICSD                23920
_audit_creation_date               1980/01/01
_audit_update_record               2012/02/01
_chemical_name_systematic          'Disodium Hydrogen Catena-phosphate'
_chemical_formula_structural       'Na2 H (P O3)3'
_chemical_formula_sum              'H1 Na2 O9 P3'
_publ_section_title
;
Die Struktur eines sauren Natrium-Polyphosphates
;
loop_
_citation_id
_citation_journal_abbrev
_citation_year
_citation_journal_volume
_citation_page_first
_citation_page_last
_citation_journal_id_ASTM
primary 'Acta Crystallographica (1,1948-23,1967)' 1962 15 951 955 ACCRA9
_publ_author_name                  'Jost, K.H.'
_cell_length_a                     7.72(4)
_cell_length_b                     6.76(4)
_cell_length_c                     7.11(4)
_cell_angle_alpha                  90.6(5)
_cell_angle_beta                   92.4(5)
_cell_angle_gamma                  103.1(5)
_cell_volume                       361
_cell_formula_units_Z              2
_symmetry_space_group_name_H-M     'P -1'
_symmetry_Int_Tables_number        2
_refine_ls_R_factor_all            .11
loop_
_symmetry_equiv_pos_site_id
_symmetry_equiv_pos_as_xyz
  1	'-x, -y, -z'
  2	'x, y, z'
loop_
_atom_type_symbol
_atom_type_oxidation_number
H1+	1
Na1+	1
O2-	-2
P5+	5
loop_
_atom_site_label
_atom_site_type_symbol
_atom_site_symmetry_multiplicity
_atom_site_Wyckoff_symbol
_atom_site_fract_x
_atom_site_fract_y
_atom_site_fract_z
_atom_site_occupancy
_atom_site_attached_hydrogens
_atom_site_B_iso_or_equiv
Na1 Na1+ 2 i 0.155(4) 0.418(4) 0.351(4) 1. 0 1.4(5) 
Na2 Na1+ 2 i 0.139(4) 0.902(4) 0.351(4) 1. 0 1.4(5) 
H1 H1+ 2 i 0.126 0.235 0.98 1. 0 0 
P1 P5+ 2 i 0.231(3) 0.903(3) 0.837(3) 1. 0 1.4 
P2 P5+ 2 i 0.228(3) 0.461(3) 0.840(3) 1. 0 1.4 
P3 P5+ 2 i 0.446(3) 0.236(3) 0.635(3) 1. 0 1.4 
O1 O2- 2 i 0.082(6) 0.880(6) 0.691(6) 1. 0 1.4 
O2 O2- 2 i 0.082(6) 0.416(6) 0.686(6) 1. 0 1.4 
O3 O2- 2 i 0.196(6) 0.353(6) 0.027(6) 1. 0 1.4 
O4 O2- 2 i 0.197(6) 0.992(6) 0.028(6) 1. 0 1.4 
O5 O2- 2 i 0.300(6) 0.707(6) 0.886(6) 1. 0 1.4 
O6 O2- 2 i 0.409(6) 0.037(6) 0.770(6) 1. 0 1.4 
O7 O2- 2 i 0.410(6) 0.421(6) 0.774(6) 1. 0 1.4 
O8 O2- 2 i 0.317(6) 0.197(6) 0.470(6) 1. 0 1.4 
O9 O2- 2 i 0.358(6) 0.720(6) 0.387(6) 1. 0 1.4 

#End of data_23920-ICSD


