data_413876-ICSD
#?2014 by Fachinformationszentrum Karlsruhe, and the U.S. Secretary of 
#Commerce on behalf of the United States.  All rights reserved.
_database_code_ICSD                413876
_audit_creation_date               2005/10/01
_chemical_name_systematic          'Tricalcium Dithallium(III) Oxide'
_chemical_formula_structural       'Ca3 Tl2 O6'
_chemical_formula_sum              'Ca3 O6 Tl2'
_publ_section_title
;
Synthesis and crystal structure of the alkaline-earth thallates Mn(n) 
Tl2 O(3+n) (M = Ca, Sr)
;
loop_
_citation_id
_citation_journal_abbrev
_citation_year
_citation_journal_volume
_citation_page_first
_citation_page_last
_citation_journal_id_ASTM
primary 'Solid State Sciences' 2004 6 433 441 SSSCFJ
_publ_author_name
;
Berastegui, P.;Eriksson, S.;Hull, S.;Garcia Garcia, F.J.;Eriksen, J.
;
_cell_length_a                     11.25285(14)
_cell_length_b                     16.51255(20)
_cell_length_c                     3.334594(34)
_cell_angle_alpha                  90.0
_cell_angle_beta                   90.0
_cell_angle_gamma                  90.0
_cell_volume                       619.61
_cell_formula_units_Z              4
_symmetry_space_group_name_H-M     'P b a m'
_symmetry_Int_Tables_number        55
loop_
_symmetry_equiv_pos_site_id
_symmetry_equiv_pos_as_xyz
  1	'x+.5, -y+.5, z'
  2	'-x+.5, y+.5, z'
  3	'x, y, -z'
  4	'-x, -y, -z'
  5	'-x+.5, y+.5, -z'
  6	'x+.5, -y+.5, -z'
  7	'-x, -y, z'
  8	'x, y, z'
loop_
_atom_type_symbol
_atom_type_oxidation_number
Ca2+	2
O2-	-2
Tl3+	3
loop_
_atom_site_label
_atom_site_type_symbol
_atom_site_symmetry_multiplicity
_atom_site_Wyckoff_symbol
_atom_site_fract_x
_atom_site_fract_y
_atom_site_fract_z
_atom_site_occupancy
_atom_site_attached_hydrogens
_atom_site_U_iso_or_equiv
Tl1 Tl3+ 4 g 0.13505(14) 0.04585(9) 0.0 1.0 0 0.00698 
Tl2 Tl3+ 4 g 0.08633(13) 0.64933(10) 0.0 1.0 0 0.00677 
Ca1 Ca2+ 4 h 0.17000(22) 0.22546(15) 0.5 1.0 0 0.00451 
Ca2 Ca2+ 4 h 0.13456(23) 0.45865(20) 0.5 1.0 0 0.00743 
Ca3 Ca2+ 4 h 0.39674(26) 0.35491(23) 0.5 1.0 0 0.01278 
O1 O2- 4 g 0.05291(21) 0.16055(14) 0.0 1.0 0 0.00606 
O2 O2- 2 c 0.5 0.0 0.0 1.0 0 0.0133 
O3 O2- 4 g 0.28000(20) 0.43249(12) 0.0 1.0 0 0.00632 
O4 O2- 2 b 0.0 0.0 0.5 1.0 0 0.01315 
O5 O2- 4 h 0.28217(25) 0.09446(17) 0.5 1.0 0 0.0133 
O6 O2- 4 h 0.04163(19) 0.33348(15) 0.5 1.0 0 0.0104 
O7 O2- 4 g 0.30823(19) 0.26019(13) 0.0 1.0 0 0.00825 

loop_
_atom_site_aniso_label
_atom_site_aniso_type_symbol
_atom_site_aniso_U_11
_atom_site_aniso_U_22
_atom_site_aniso_U_33
_atom_site_aniso_U_12
_atom_site_aniso_U_13
_atom_site_aniso_U_23
Tl1 Tl3+ 0.0073(6) 0.0074(5) 0.0062(6) 0.0031(4) 0.0 0.0
Tl2 Tl3+ 0.0035(5) 0.0117(7) 0.0051(6) 0.0009(5) 0.0 0.0
Ca1 Ca2+ 0.0072(9) 0.0047(9) 0.0016(8) 0.0016(7) 0.0 0.0
Ca2 Ca2+ 0.0041(9) 0.0159(12) 0.0023(10) 0.0005(8) 0.0 0.0
Ca3 Ca2+ 0.0074(12) 0.0250(16) 0.0059(10) -0.0009(9) 0.0 0.0
O1 O2- 0.0046(9) 0.0075(9) 0.0061(10) -0.0025(6) 0.0 0.0
O2 O2- 0.0113(10) 0.0214(10) 0.0071(7) -0.0079(6) 0.0 0.0
O3 O2- 0.0068(9) 0.0056(9) 0.0065(9) 0.0009(7) 0.0 0.0
O4 O2- 0.0137(18) 0.0211(19) 0.0047(15) -0.0003(13) 0.0 0.0
O5 O2- 0.0113(10) 0.0214(10) 0.0071(7) -0.0079(6) 0.0 0.0
O6 O2- 0.0032(8) 0.0188(11) 0.0092(10) -0.0009(7) 0.0 0.0
O7 O2- 0.0083(9) 0.0067(9) 0.0097(9) 0.0017(6) 0.0 0.0
#End of data_413876-ICSD


