data_2100-ICSD
#?2014 by Fachinformationszentrum Karlsruhe, and the U.S. Secretary of 
#Commerce on behalf of the United States.  All rights reserved.
_database_code_ICSD                2100
_audit_creation_date               1980/01/01
_audit_update_record               2010/02/01
_chemical_name_systematic
;
Disodium Fluorotrioxophosphate(V) - Beta
;
_chemical_formula_structural       'Na2 (P O3 F)'
_chemical_formula_sum              'F1 Na2 O3 P1'
_publ_section_title
;
Etudes structurales de composes oxyfluores du P(V) II. Structure      
 cristalline de  Na2 P O3 F  beta
;
loop_
_citation_id
_citation_journal_abbrev
_citation_year
_citation_journal_volume
_citation_page_first
_citation_page_last
_citation_journal_id_ASTM
primary 'Acta Crystallographica B (24,1968-38,1982)' 1974 30 1565 1569 ACBCAR
_publ_author_name
;
Durand, J.;le Cot, L.;Galigne, J.L.
;
_cell_length_a                     5.416(3)
_cell_length_b                     6.929(4)
_cell_length_c                     19.079(10)
_cell_angle_alpha                  90.
_cell_angle_beta                   90.
_cell_angle_gamma                  90.
_cell_volume                       715.99
_cell_formula_units_Z              8
_symmetry_space_group_name_H-M     'P 21 21 21'
_symmetry_Int_Tables_number        19
_refine_ls_R_factor_all            .052
loop_
_symmetry_equiv_pos_site_id
_symmetry_equiv_pos_as_xyz
  1	'-x, y+.5, -z+.5'
  2	'x+.5, -y+.5, -z'
  3	'-x+.5, -y, z+.5'
  4	'x, y, z'
loop_
_atom_type_symbol
_atom_type_oxidation_number
F1-	-1
Na1+	1
O2-	-2
P5+	5
loop_
_atom_site_label
_atom_site_type_symbol
_atom_site_symmetry_multiplicity
_atom_site_Wyckoff_symbol
_atom_site_fract_x
_atom_site_fract_y
_atom_site_fract_z
_atom_site_occupancy
_atom_site_attached_hydrogens
Na1 Na1+ 4 a 0.2459(13) 0.4219(8) 0.0470(2) 1. 0 
Na2 Na1+ 4 a 0.2837(11) 0.0601(7) 0.1924(2) 1. 0 
Na3 Na1+ 4 a 0.2626(13) 0.7769(7) 0.3679(2) 1. 0 
Na4 Na1+ 4 a 0.2547(13) 0.2851(7) 0.3772(2) 1. 0 
P1 P5+ 4 a 0.1958(6) 0.5276(4) 0.2118(1) 1. 0 
P2 P5+ 4 a 0.2427(7) -.0203(4) 0.0316(1) 1. 0 
O1 O2- 4 a 0.2749(18) 0.5216(12) 0.2865(4) 1. 0 
O2 O2- 4 a 0.3114(20) 0.3816(12) 0.1637(4) 1. 0 
O3 O2- 4 a -.0780(16) 0.5505(16) 0.2004(5) 1. 0 
O4 O2- 4 a 0.0234 0.0581(26) 0.0702(6) 1. 0 
O5 O2- 4 a 0.2322(26) -.0073(14) -.0455(4) 1. 0 
O6 O2- 4 a 0.4808(18) 0.0326(19) 0.0661(5) 1. 0 
F1 F1- 4 a 0.3112(18) 0.7298(10) 0.1847(4) 1. 0 
F2 F1- 4 a 0.2237(28) -.2470(11) 0.0446(4) 1. 0 

#End of data_2100-ICSD


