data_202833-ICSD
#?2014 by Fachinformationszentrum Karlsruhe, and the U.S. Secretary of 
#Commerce on behalf of the United States.  All rights reserved.
_database_code_ICSD                202833
_audit_creation_date               1989/06/19
_audit_update_record               2008/02/01
_chemical_name_systematic
;
Tetrasodium Discandium Tris(phosphate(V))
;
_chemical_formula_structural       'Na4 Sc2 (P O4)3'
_chemical_formula_sum              'Na4 O12 P3 Sc2'
_publ_section_title
;
Redetermination of the crystal structure of Na3 Sc2 (P O4)3
;
loop_
_citation_id
_citation_journal_abbrev
_citation_year
_citation_journal_volume
_citation_page_first
_citation_page_last
_citation_journal_id_ASTM
primary 'Solid State Ionics' 1988 26 307 310 SSIOD3
_publ_author_name                  'Sotofte, I.;Fu, D.C.'
_cell_length_a                     15.464(7)
_cell_length_b                     8.936(1)
_cell_length_c                     9.024(11)
_cell_angle_alpha                  90.
_cell_angle_beta                   124.74(5)
_cell_angle_gamma                  90.
_cell_volume                       1024.71
_cell_formula_units_Z              4
_symmetry_space_group_name_H-M     'C 1 2/c 1'
_symmetry_Int_Tables_number        15
loop_
_symmetry_equiv_pos_site_id
_symmetry_equiv_pos_as_xyz
  1	'x, -y, z+.5'
  2	'-x, -y, -z'
  3	'-x, y, -z+.5'
  4	'x, y, z'
  5	'x+.5, -y+.5, z+.5'
  6	'-x+.5, -y+.5, -z'
  7	'-x+.5, y+.5, -z+.5'
  8	'x+.5, y+.5, z'
loop_
_atom_type_symbol
_atom_type_oxidation_number
Na1+	1
O2-	-2
P5+	5
Sc2.5+	2.5
loop_
_atom_site_label
_atom_site_type_symbol
_atom_site_symmetry_multiplicity
_atom_site_Wyckoff_symbol
_atom_site_fract_x
_atom_site_fract_y
_atom_site_fract_z
_atom_site_occupancy
_atom_site_attached_hydrogens
Sc1 Sc2.5+ 8 f 0.1013(1) 0.2499(1) 0.0540(1) 1. 0 
P1 P5+ 8 f 0.3524(1) 0.1024(1) 0.2500(2) 1. 0 
P2 P5+ 4 e 0 0.0451(2) 0.25 1. 0 
O1 O2- 8 f 0.2573(3) 0.1733(4) 0.2345(5) 1. 0 
O2 O2- 8 f 0.4510(3) 0.1683(5) 0.4166(6) 1. 0 
O3 O2- 8 f 0.3513(4) 0.1337(5) 0.0831(5) 1. 0 
O4 O2- 8 f 0.3478(3) -.0681(4) 0.2651(5) 1. 0 
O5 O2- 8 f -.0755(3) 0.1442(4) 0.2647(5) 1. 0 
O6 O2- 8 f -.0671(4) -.0519(5) 0.0831(6) 1. 0 
Na1 Na1+ 4 e 0 0.3872(6) 0.25 1. 0 
Na2 Na1+ 8 f 0.3183(3) 0.4313(4) 0.2493(5) 1. 0 
Na3 Na1+ 4 d 0.25 0.25 0.5 1. 0 

#End of data_202833-ICSD


