data_32602-ICSD
#?2014 by Fachinformationszentrum Karlsruhe, and the U.S. Secretary of 
#Commerce on behalf of the United States.  All rights reserved.
_database_code_ICSD                32602
_audit_creation_date               1980/12/31
_chemical_name_systematic          'Calcium Diarsenate'
_chemical_formula_structural       'Ca2 As2 O7'
_chemical_formula_sum              'As2 Ca2 O7'
_publ_section_title
;
Die Kristallstruktur von Ca2 As2 O7
;
loop_
_citation_id
_citation_journal_abbrev
_citation_year
_citation_journal_volume
_citation_page_first
_citation_page_last
_citation_journal_id_ASTM
primary 'Monatshefte fuer Chemie' 1980 111 399 405 MOCMB7
_publ_author_name                  'Pertlik, F.'
_cell_length_a                     7.05
_cell_length_b                     9.3
_cell_length_c                     4.89
_cell_angle_alpha                  90.
_cell_angle_beta                   101.3
_cell_angle_gamma                  90.
_cell_volume                       314.4
_cell_formula_units_Z              2
_symmetry_space_group_name_H-M     'C 1 2/m 1'
_symmetry_Int_Tables_number        12
_refine_ls_R_factor_all            .024
loop_
_symmetry_equiv_pos_site_id
_symmetry_equiv_pos_as_xyz
  1	'-x, y, -z'
  2	'-x, -y, -z'
  3	'x, -y, z'
  4	'x, y, z'
  5	'-x+.5, y+.5, -z'
  6	'-x+.5, -y+.5, -z'
  7	'x+.5, -y+.5, z'
  8	'x+.5, y+.5, z'
loop_
_atom_type_symbol
_atom_type_oxidation_number
As5+	5
Ca2+	2
O2-	-2
loop_
_atom_site_label
_atom_site_type_symbol
_atom_site_symmetry_multiplicity
_atom_site_Wyckoff_symbol
_atom_site_fract_x
_atom_site_fract_y
_atom_site_fract_z
_atom_site_occupancy
_atom_site_attached_hydrogens
Ca1 Ca2+ 4 h 0 0.30642(11) 0.5 1. 0 
As1 As5+ 4 i 0.22320(7) 0 0.91136(10) 1. 0 
O1 O2- 2 a 0 0 0 1. 0 
O2 O2- 4 i 0.3775(6) 0 0.2156(8) 1. 0 
O3 O2- 8 j 0.2320(4) 0.1485(3) 0.7262(7) 1. 0 

loop_
_atom_site_aniso_label
_atom_site_aniso_type_symbol
_atom_site_aniso_B_11
_atom_site_aniso_B_22
_atom_site_aniso_B_33
_atom_site_aniso_B_12
_atom_site_aniso_B_13
_atom_site_aniso_B_23
Ca1 Ca2+ 0.68(3) 0.60(4) 0.80(3) 0 0.11(3) 0
As1 As5+ 0.41(2) 0.69(2) 0.45(2) 0 0.12(1) 0
O1 O2- 0.97(29) 12.780(11) 4.92(52) 0 1.83(32) 0
O2 O2- 1.18(14) 0.79(14) 0.44(12) 0 -.19(10) 0
O3 O2- 1.45(10) 0.86(10) 1.03(10) 0.33(9) 0.21(8) 0.29(8)
#End of data_32602-ICSD


