data_82276-ICSD
#?2014 by Fachinformationszentrum Karlsruhe, and the U.S. Secretary of 
#Commerce on behalf of the United States.  All rights reserved.
_database_code_ICSD                82276
_audit_creation_date               1997/11/10
_chemical_name_systematic          'Potassium Chromium Oxide (2/8/16)'
_chemical_formula_structural       'K2 Cr8 O16'
_chemical_formula_sum              'Cr8 K2 O16'
_publ_section_title
;
The crystal structure of K2 Cr8 O16: the hollandite-type full 
cationic occupation in a tunnel
;
loop_
_citation_id
_citation_journal_abbrev
_citation_year
_citation_journal_volume
_citation_page_first
_citation_page_last
_citation_journal_id_ASTM
primary 'Journal of Solid State Chemistry' 1996 126 1 6 JSSCBI
_publ_author_name
;
Tamada, O.;Yamamoto, N.;Mori, T.;Endo, T.
;
_cell_length_a                     9.7627(4)
_cell_length_b                     9.7627(4)
_cell_length_c                     2.9347(6)
_cell_angle_alpha                  90.
_cell_angle_beta                   90.
_cell_angle_gamma                  90.
_cell_volume                       279.71
_cell_formula_units_Z              1
_symmetry_space_group_name_H-M     'I 4/m'
_symmetry_Int_Tables_number        87
_refine_ls_R_factor_all            .03
loop_
_symmetry_equiv_pos_site_id
_symmetry_equiv_pos_as_xyz
  1	'-y, x, -z'
  2	'y, -x, -z'
  3	'x, y, -z'
  4	'-x, -y, -z'
  5	'y, -x, z'
  6	'-y, x, z'
  7	'-x, -y, z'
  8	'x, y, z'
  9	'-y+.5, x+.5, -z+.5'
 10	'y+.5, -x+.5, -z+.5'
 11	'x+.5, y+.5, -z+.5'
 12	'-x+.5, -y+.5, -z+.5'
 13	'y+.5, -x+.5, z+.5'
 14	'-y+.5, x+.5, z+.5'
 15	'-x+.5, -y+.5, z+.5'
 16	'x+.5, y+.5, z+.5'
loop_
_atom_type_symbol
_atom_type_oxidation_number
Cr3.75+	3.75
K1+	1
O2-	-2
loop_
_atom_site_label
_atom_site_type_symbol
_atom_site_symmetry_multiplicity
_atom_site_Wyckoff_symbol
_atom_site_fract_x
_atom_site_fract_y
_atom_site_fract_z
_atom_site_occupancy
_atom_site_attached_hydrogens
K1 K1+ 2 b 0 0 0.5 1. 0 
Cr1 Cr3.75+ 8 h 0.34813(5) 0.16496(5) 0 1. 0 
O1 O2- 8 h 0.1536(2) 0.2013(2) 0 1. 0 
O2 O2- 8 h 0.5398(2) 0.1633(2) 0 1. 0 

loop_
_atom_site_aniso_label
_atom_site_aniso_type_symbol
_atom_site_aniso_U_11
_atom_site_aniso_U_22
_atom_site_aniso_U_33
_atom_site_aniso_U_12
_atom_site_aniso_U_13
_atom_site_aniso_U_23
K1 K1+ 0.0200(5) 0.0200(5) 0.0104(6) 0 0 0
Cr1 Cr3.75+ 0.0041(1) 0.0044(1) 0.0045(1) 0.0006(1) 0 0
O1 O2- 0.0052(6) 0.0051(6) 0.0064(7) -.0004(5) 0 0
O2 O2- 0.0044(6) 0.0088(7) 0.0052(6) 0.0004(5) 0 0
#End of data_82276-ICSD


