data_100296-ICSD
#?2014 by Fachinformationszentrum Karlsruhe, and the U.S. Secretary of 
#Commerce on behalf of the United States.  All rights reserved.
_database_code_ICSD                100296
_audit_creation_date               1980/12/31
_audit_update_record               1999/01/19
_chemical_name_systematic
;
Tetralead Dizinc Sulfate(VI) Silicate Disilicate
;
_chemical_formula_structural       'Pb4 Zn2 ((S O4) (Si O4) (Si2 O7))'
_chemical_formula_sum              'O15 Pb4 S1 Si3 Zn2'
_chemical_name_mineral             Queitite
_publ_section_title
;
Die Kristallstruktur von Queitit, Pb4 Zn2 (S O4)(Si O4)(Si2 O7)
;
loop_
_citation_id
_citation_journal_abbrev
_citation_year
_citation_journal_volume
_citation_page_first
_citation_page_last
_citation_journal_id_ASTM
primary 'Zeitschrift fuer Kristallographie (1979-2010)' 1980 151 287 299 ZEKRDZ
_publ_author_name                  'Hess, H.;Keller, P.'
_cell_length_a                     11.362(3)
_cell_length_b                     5.266(1)
_cell_length_c                     12.655(3)
_cell_angle_alpha                  90.
_cell_angle_beta                   108.16(2)
_cell_angle_gamma                  90.
_cell_volume                       719.46
_cell_formula_units_Z              2
_symmetry_space_group_name_H-M     'P 1 21 1'
_symmetry_Int_Tables_number        4
_refine_ls_R_factor_all            .033
loop_
_symmetry_equiv_pos_site_id
_symmetry_equiv_pos_as_xyz
  1	'-x, y+.5, -z'
  2	'x, y, z'
loop_
_atom_type_symbol
_atom_type_oxidation_number
O2-	-2
Pb2+	2
S6+	6
Si4+	4
Zn2+	2
loop_
_atom_site_label
_atom_site_type_symbol
_atom_site_symmetry_multiplicity
_atom_site_Wyckoff_symbol
_atom_site_fract_x
_atom_site_fract_y
_atom_site_fract_z
_atom_site_occupancy
_atom_site_attached_hydrogens
_atom_site_B_iso_or_equiv
Pb1 Pb2+ 2 a 0.1508(1) 0 0.2167(1) 1. 0 1.04(4) 
Pb2 Pb2+ 2 a 0.1836(1) 0.0153(2) 0.8712(1) 1. 0 0.95(4) 
Pb3 Pb2+ 2 a 0.5434(1) 0.0442(2) 0.8867(1) 1. 0 0.93(4) 
Pb4 Pb2+ 2 a 0.7324(1) 0.3885(2) 0.4377(1) 1. 0 1.27(4) 
Zn1 Zn2+ 2 a 0.9195(2) 0.0088(5) 0.3540(2) 1. 0 0.52(8) 
Zn2 Zn2+ 2 a 0.6393(2) -.0211(5) 0.6125(2) 1. 0 0.61(10) 
S1 S6+ 2 a 0.8526(4) -.0067(11) 0.9675(4) 1. 0 0.87(20) 
Si1 Si4+ 2 a 0.9225(4) 0.0196(12) 0.6245(4) 1. 0 0.41(20) 
Si2 Si4+ 2 a 0.4855(4) -.0183(12) 0.3443(5) 1. 0 0.48(21) 
Si3 Si4+ 2 a 0.6384(4) 0.0580(11) 0.1829(4) 1. 0 0.4(2) 
O1 O2- 2 a 0.8944(13) -.0142(30) 0.0900(12) 1. 0 0.80(53) 
O2 O2- 2 a 0.6023(13) 0.0721(28) 0.4527(12) 1. 0 0.91(97) 
O3 O2- 2 a 0.3449(13) 0.2591(27) 0.8433(15) 1. 0 1.19(62) 
O4 O2- 2 a 0.2359(15) 0.2764(28) 0.0721(14) 1. 0 0.36(58) 
O5 O2- 2 a 0.7811(16) 0.2315(27) 0.9317(15) 1. 0 1.14(65) 
O6 O2- 2 a 0.9562(13) -.0319(30) 0.9214(13) 1. 0 0.84(56) 
O7 O2- 2 a 0.5277(13) 0.1791(27) 0.6680(14) 1. 0 0.68(56) 
O8 O2- 2 a 0.8074(15) 0.1332(29) 0.6629(13) 1. 0 0.68(56) 
O9 O2- 2 a 0.0632(13) 0.2165(27) 0.3526(15) 1. 0 0.88(59) 
O10 O2- 2 a 0.3591(13) 0.1228(32) 0.3477(14) 1. 0 1.39(63) 
O11 O2- 2 a 0.0499(13) 0.1747(30) 0.6887(14) 1. 0 0.55(54) 
O12 O2- 2 a 0.5954(13) 0.2323(29) 0.0708(13) 1. 0 0.69(57) 
O13 O2- 2 a 0.7606(12) 0.1906(27) 0.2732(12) 1. 0 0.78(58) 
O14 O2- 2 a 0.8852(14) 0.0945(30) 0.4907(12) 1. 0 0.89(60) 
O15 O2- 2 a 0.5224(14) 0.0907(28) 0.2357(12) 1. 0 1.34(65) 

#End of data_100296-ICSD


