data_423168-ICSD
#?2014 by Fachinformationszentrum Karlsruhe, and the U.S. Secretary of 
#Commerce on behalf of the United States.  All rights reserved.
_database_code_ICSD                423168
_audit_creation_date               2012/02/01
_chemical_name_systematic
;
Calcium Bis(tetrahydroxoborate) Dihydrate
;
_chemical_formula_structural       'Ca (B (O H)4)2 (H2 O)2'
_chemical_formula_sum              'H12 B2 Ca1 O10'
_publ_section_title
;
Crystallization, crystal-structure refinement, and IR spectroscopy of 
a synthetic hexahydroborite analog
;
loop_
_citation_id
_citation_journal_abbrev
_citation_year
_citation_journal_volume
_citation_journal_issue
_citation_page_first
_citation_page_last
_citation_journal_id_ASTM
primary Kristallografiya 2011 56 6 1088 1093 KRISAJ
2 'Crystallography Reports' 2011 56 6 1019 1024 CYSTE3
_publ_author_name
;
Yamnova, N.A.;Borovikova, E.Yu.;Dimitrova, O.V.
;
_cell_length_a                     7.9941(3)
_cell_length_b                     6.6321(2)
_cell_length_c                     7.9871(3)
_cell_angle_alpha                  90.00
_cell_angle_beta                   104.166(4)
_cell_angle_gamma                  90.00
_cell_volume                       410.58
_cell_formula_units_Z              2
_symmetry_space_group_name_H-M     'P 1 2/c 1'
_symmetry_Int_Tables_number        13
_refine_ls_R_factor_all            .026
loop_
_symmetry_equiv_pos_site_id
_symmetry_equiv_pos_as_xyz
  1	'x, -y, z+.5'
  2	'-x, -y, -z'
  3	'-x, y, -z+.5'
  4	'x, y, z'
loop_
_atom_type_symbol
_atom_type_oxidation_number
B3+	3
Ca2+	2
H1+	1
O2-	-2
loop_
_atom_site_label
_atom_site_type_symbol
_atom_site_symmetry_multiplicity
_atom_site_Wyckoff_symbol
_atom_site_fract_x
_atom_site_fract_y
_atom_site_fract_z
_atom_site_occupancy
_atom_site_attached_hydrogens
_atom_site_U_iso_or_equiv
Ca1 Ca2+ 2 e 0.0000 -0.03132(5) 0.2500 1 0 0.01411(9) 
O1 O2- 4 g 0.22083(11) 0.52355(12) 0.62844(11) 1 0 0.01920(17) 
O2 O2- 4 g 0.77738(11) 0.24960(12) 0.59864(10) 1 0 0.01744(17) 
O3 O2- 4 g 0.99341(10) -0.22129(13) 0.53421(10) 1 0 0.01723(16) 
O4 O2- 4 g 0.26424(10) -0.11602(12) 0.69075(10) 1 0 0.01770(17) 
O5 O2- 4 g 0.42261(11) 0.21100(16) 0.54185(12) 1 0 0.0258(2) 
B1 B3+ 4 g 0.81996(15) 0.27139(18) 0.43138(15) 1 0 0.0145(2) 
H1 H1+ 4 g 0.675(2) 0.238(2) 0.5884(19) 1 0 0.033(4) 
H2 H1+ 4 g 0.936(2) -0.308(3) 0.5029(19) 1 0 0.031(4) 
H3 H1+ 4 g 0.314(2) -0.157(3) 0.773(2) 1 0 0.034(5) 
H4 H1+ 4 g 0.380(2) 0.318(3) 0.568(2) 1 0 0.047(5) 
H5 H1+ 4 g 0.214(2) 0.505(2) 0.712(2) 1 0 0.034(5) 
H6 H1+ 4 g 0.381(3) 0.114(4) 0.582(3) 1 0 0.059(6) 

loop_
_atom_site_aniso_label
_atom_site_aniso_type_symbol
_atom_site_aniso_U_11
_atom_site_aniso_U_22
_atom_site_aniso_U_33
_atom_site_aniso_U_12
_atom_site_aniso_U_13
_atom_site_aniso_U_23
Ca1 Ca2+ 0.01537(15) 0.01426(15) 0.01304(14) 0.000 0.00412(10) 0.000
O1 O2- 0.0261(4) 0.0149(4) 0.0166(4) 0.0017(3) 0.0051(3) 0.0030(3)
O2 O2- 0.0172(4) 0.0218(4) 0.0137(3) 0.0013(3) 0.0045(3) 0.0015(3)
O3 O2- 0.0138(4) 0.0160(4) 0.0212(4) -0.0017(3) 0.0029(3) -0.0037(3)
O4 O2- 0.0184(4) 0.0174(4) 0.0152(4) -0.0006(3) 0.0001(3) -0.0024(3)
O5 O2- 0.0225(4) 0.0283(5) 0.0277(5) 0.0019(4) 0.0084(4) -0.0014(4)
B1 B3+ 0.0153(5) 0.0140(5) 0.0138(5) 0.0006(4) 0.0031(4) -0.0003(4)
#End of data_423168-ICSD


