data_410862-ICSD
#?2014 by Fachinformationszentrum Karlsruhe, and the U.S. Secretary of 
#Commerce on behalf of the United States.  All rights reserved.
_database_code_ICSD                410862
_audit_creation_date               2002/04/01
_chemical_name_systematic
;
Undecacalcium-hexanitrido-bisdinitridocarbonate
;
_chemical_formula_structural       'Ca11 N6 (C N2)2'
_chemical_formula_sum              'C2 Ca11 N10'
_publ_section_title
;
Ca11 N6 (C N2)2 and Ca4 N2 (C N2): The true nature of an "unusual 
binary nitride" is finally revealed
;
loop_
_citation_id
_citation_journal_abbrev
_citation_year
_citation_journal_volume
_citation_page_first
_citation_page_last
_citation_journal_id_ASTM
primary 'Angewandte Chemie. International Edition' 2000 39 412 414 ACIEF5
_publ_author_name                  'Reckeweg, O.;DiSalvo, F.J.'
_cell_length_a                     14.523(2)
_cell_length_b                     14.523(2)
_cell_length_c                     3.6083(6)
_cell_angle_alpha                  90.
_cell_angle_beta                   90.
_cell_angle_gamma                  90.
_cell_volume                       761.05
_cell_formula_units_Z              2
_symmetry_space_group_name_H-M     'P 42/m n m'
_symmetry_Int_Tables_number        136
_refine_ls_R_factor_all            .0884
loop_
_symmetry_equiv_pos_site_id
_symmetry_equiv_pos_as_xyz
  1	'-y+.5, x+.5, -z+.5'
  2	'y+.5, -x+.5, -z+.5'
  3	'y, x, -z'
  4	'-y, -x, -z'
  5	'y+.5, -x+.5, z+.5'
  6	'-y+.5, x+.5, z+.5'
  7	'-y, -x, z'
  8	'y, x, z'
  9	'x+.5, -y+.5, -z+.5'
 10	'-x+.5, y+.5, -z+.5'
 11	'x, y, -z'
 12	'-x, -y, -z'
 13	'-x+.5, y+.5, z+.5'
 14	'x+.5, -y+.5, z+.5'
 15	'-x, -y, z'
 16	'x, y, z'
loop_
_atom_type_symbol
_atom_type_oxidation_number
C4+	4
Ca2+	2
N3-	-3
loop_
_atom_site_label
_atom_site_type_symbol
_atom_site_symmetry_multiplicity
_atom_site_Wyckoff_symbol
_atom_site_fract_x
_atom_site_fract_y
_atom_site_fract_z
_atom_site_occupancy
_atom_site_attached_hydrogens
_atom_site_U_iso_or_equiv
Ca1 Ca2+ 2 a 0 0 0 1. 0 0 
Ca2 Ca2+ 8 i 0.2947(2) 0.5202(2) 0 1. 0 0 
Ca3 Ca2+ 4 g 0.1675(2) -.1675(2) 0 1. 0 0 
Ca4 Ca2+ 8 i 0.3946(2) 0.1170(2) 0 1. 0 0 
N1 N3- 4 f 0.4104(7) 0.4104(7) 0 1. 0 0 
N2 N3- 8 i 0.6896(7) 0.0279(8) 0 1. 0 0 
N3 N3- 4 f 0.2434(8) 0.2434(8) 0 1. 0 0 
N4 N3- 4 f 0.1250(7) 0.1250(7) 0 1. 0 0.005(4) 
C1 C4+ 4 f 0.1853(10) 0.1853(10) 0 1. 0 0.014(5) 

loop_
_atom_site_aniso_label
_atom_site_aniso_type_symbol
_atom_site_aniso_U_11
_atom_site_aniso_U_22
_atom_site_aniso_U_33
_atom_site_aniso_U_12
_atom_site_aniso_U_13
_atom_site_aniso_U_23
Ca1 Ca2+ 0.008(2) 0.008(2) 0.009(4) -.003(2) 0 0
Ca2 Ca2+ 0.006(2) 0.009(2) 0.004(2) -.0001(13) 0 0
Ca3 Ca2+ 0.016(2) 0.016(2) 0.003(3) 0.006(2) 0 0
Ca4 Ca2+ 0.016(2) 0.014(2) 0.001(2) -.0061(14) 0 0
N1 N3- 0.008(5) 0.008(5) 0.014(13) -.003(7) 0 0
N2 N3- 0.011(6) 0.018(7) 0.006(8) 0.008(6) 0 0
N3 N3- 0.027(6) 0.027(6) 0.007(12) -.009(10) 0 0
#End of data_410862-ICSD


