data_170807-ICSD
#?2014 by Fachinformationszentrum Karlsruhe, and the U.S. Secretary of 
#Commerce on behalf of the United States.  All rights reserved.
_database_code_ICSD                170807
_audit_creation_date               2006/04/01
_audit_update_record               2013/08/01
_chemical_name_systematic          'Potassium Niobium Oxide Borate'
_chemical_formula_structural       'K Nb O B2 O5'
_chemical_formula_sum              'B2 K1 Nb1 O6'
_publ_section_title
;
Structure of K Nb O B2 O5 - a commensurately modulated structure
;
loop_
_citation_id
_citation_journal_abbrev
_citation_year
_citation_journal_volume
_citation_page_first
_citation_page_last
_citation_journal_id_ASTM
primary 'Acta Crystallographica, Section B: Structural Science'
 2005 61 361 366 ASBSDK
_publ_author_name                  'Schmid, S.;Wagner, T.'
_cell_length_a                     7.3056(11)
_cell_length_b                     31.1632(18)
_cell_length_c                     9.1659(15)
_cell_angle_alpha                  90.00
_cell_angle_beta                   90.00
_cell_angle_gamma                  90.00
_cell_volume                       2086.76
_cell_formula_units_Z              16
_symmetry_space_group_name_H-M     'P b n 21'
_symmetry_Int_Tables_number        33
_refine_ls_R_factor_all            .0275
loop_
_symmetry_equiv_pos_site_id
_symmetry_equiv_pos_as_xyz
  1	'-x+.5, y+.5, z'
  2	'x+.5, -y+.5, z+.5'
  3	'-x, -y, z+.5'
  4	'x, y, z'
loop_
_atom_type_symbol
_atom_type_oxidation_number
B3+	3
K1+	1
Nb5+	5
O2-	-2
loop_
_atom_site_label
_atom_site_type_symbol
_atom_site_symmetry_multiplicity
_atom_site_Wyckoff_symbol
_atom_site_fract_x
_atom_site_fract_y
_atom_site_fract_z
_atom_site_occupancy
_atom_site_attached_hydrogens
_atom_site_U_iso_or_equiv
K1 K1+ 4 a 0.25601(11) 0.31419(4) 0.06652(12) 1 0 0.0273(3) 
K2 K1+ 4 a 0.25937(12) 0.43992(4) 0.06582(12) 1 0 0.0286(3) 
K3 K1+ 4 a 0.25190(12) 0.56374(4) 0.05438(12) 1 0 0.0277(3) 
K4 K1+ 4 a 0.24119(11) 0.68877(4) 0.05738(12) 1 0 0.0252(2) 
Nb1 Nb5+ 4 a 0.28785(4) 0.349635(8) 0.66158(4) 1 0 0.00733(9) 
Nb2 Nb5+ 4 a 0.23196(3) 0.475821(9) 0.66236(4) 1 0 0.00782(9) 
Nb3 Nb5+ 4 a 0.23903(3) 0.600713(9) 0.66542(4) 1 0 0.00744(9) 
Nb4 Nb5+ 4 a 0.26162(3) 0.724595(9) 0.66392(4) 1 0 0.00744(9) 
B1 B3+ 4 a 0.6309(5) 0.37755(12) 0.8633(4) 1 0 0.0137(8) 
B2 B3+ 4 a 0.5557(5) 0.49716(13) 0.8885(5) 1 0 0.0140(8) 
B3 B3+ 4 a 0.5840(5) 0.61772(12) 0.8646(4) 1 0 0.0130(8) 
B4 B3+ 4 a 0.5917(5) 0.75490(13) 0.8734(4) 1 0 0.0141(9) 
B5 B3+ 4 a 0.5389(5) 0.86869(13) 0.8870(5) 1 0 0.0145(8) 
B6 B3+ 4 a 0.6112(5) 0.99498(13) 0.8616(4) 1 0 0.0140(9) 
B7 B3+ 4 a 0.5806(5) 0.12847(13) 0.8841(5) 1 0 0.0136(8) 
B8 B3+ 4 a 0.5768(5) 0.24105(12) 0.8767(5) 1 0 0.0140(9) 
O1 O2- 4 a 0.4563(3) 0.36303(9) 0.4914(3) 1 0 0.0150(6) 
O2 O2- 4 a 0.4374(4) 0.49127(9) 0.5296(3) 1 0 0.0180(7) 
O3 O2- 4 a 0.3925(3) 0.59980(8) 0.4868(3) 1 0 0.0163(6) 
O4 O2- 4 a 0.4386(4) 0.74345(10) 0.5115(3) 1 0 0.0154(6) 
O5 O2- 4 a 0.4097(5) 0.85295(10) 0.5163(3) 1 0 0.0200(8) 
O6 O2- 4 a 0.4260(3) 0.98273(9) 0.4844(3) 1 0 0.0191(6) 
O7 O2- 4 a 0.5637(3) 0.11917(9) 0.5288(3) 1 0 0.0136(6) 
O8 O2- 4 a 0.4071(4) 0.22204(9) 0.4976(3) 1 0 0.0159(7) 
O9 O2- 4 a 0.4916(4) 0.36112(10) 0.7887(3) 1 0 0.0265(7) 
O10 O2- 4 a 0.3916(4) 0.48778(9) 0.8274(3) 1 0 0.0196(7) 
O11 O2- 4 a 0.4581(3) 0.59490(8) 0.7879(3) 1 0 0.0146(6) 
O12 O2- 4 a 0.4341(4) 0.74283(9) 0.8121(3) 1 0 0.0199(7) 
O13 O2- 4 a 0.3847(4) 0.89389(10) 0.8224(3) 1 0 0.0192(7) 
O14 O2- 4 a 0.4848(3) 0.97312(8) 0.7864(3) 1 0 0.0168(6) 
O15 O2- 4 a 0.4161(4) 0.11849(8) 0.8275(3) 1 0 0.0145(6) 
O16 O2- 4 a 0.4413(4) 0.22104(8) 0.8025(3) 1 0 0.0144(7) 
O17 O2- 4 a 0.3152(3) 0.29323(6) 0.6590(5) 1 0 0.0222(5) 
O18 O2- 4 a 0.2619(3) 0.41999(8) 0.6553(5) 1 0 0.0311(7) 
O19 O2- 4 a 0.1807(3) 0.54562(6) 0.6704(4) 1 0 0.0188(5) 
O20 O2- 4 a 0.3209(3) 0.66939(6) 0.6655(4) 1 0 0.0153(4) 
O21 O2- 4 a 0.8034(3) 0.38972(9) 0.8035(3) 1 0 0.0191(6) 
O22 O2- 4 a 0.7112(3) 0.49331(10) 0.8032(3) 1 0 0.0191(6) 
O23 O2- 4 a 0.7617(3) 0.61810(10) 0.8053(3) 1 0 0.0193(6) 
O24 O2- 4 a 0.7545(3) 0.74294(10) 0.8057(3) 1 0 0.0198(7) 

loop_
_atom_site_aniso_label
_atom_site_aniso_type_symbol
_atom_site_aniso_U_11
_atom_site_aniso_U_22
_atom_site_aniso_U_33
_atom_site_aniso_U_12
_atom_site_aniso_U_13
_atom_site_aniso_U_23
K1 K1+ 0.0285(5) 0.0271(5) 0.0264(6) 0.0059(4) -0.0041(4) 0.0049(5)
K2 K1+ 0.0312(5) 0.0287(6) 0.0259(6) -0.0071(4) 0.0003(4) 0.0069(5)
K3 K1+ 0.0266(5) 0.0299(6) 0.0265(7) 0.0007(3) 0.0005(4) 0.0063(5)
K4 K1+ 0.0228(5) 0.0267(5) 0.0259(6) 0.0031(3) -0.0016(4) 0.0037(4)
Nb1 Nb5+ 0.00728(14) 0.00781(15) 0.00691(17) 0.00022(9) -0.0005(4) 
-0.00004(17)
Nb2 Nb5+ 0.00839(13) 0.00783(16) 0.00724(17) 0.00034(8) -0.0001(2) 
0.00023(17)
Nb3 Nb5+ 0.00790(13) 0.00731(15) 0.00712(19) 0.00016(8) 0.0007(3) 
0.00016(16)
Nb4 Nb5+ 0.00756(13) 0.00765(16) 0.00710(17) -0.00011(8) 0.0006(3) 
0.00010(17)
B1 B3+ 0.011(2) 0.013(2) 0.017(2) 0.0020(15) -0.0005(15) 0.0036(16)
B2 B3+ 0.010(2) 0.019(2) 0.012(2) 0.0011(16) -0.0046(15) 0.0019(17)
B3 B3+ 0.0081(18) 0.017(2) 0.014(2) -0.0002(14) -0.0003(14) 0.0025(16)
B4 B3+ 0.015(2) 0.016(2) 0.011(2) 0.0017(15) 0.0019(15) 0.0013(16)
B5 B3+ 0.0094(19) 0.014(2) 0.020(2) 0.0011(15) -0.0027(17) -0.0026(18)
B6 B3+ 0.011(2) 0.020(2) 0.011(2) 0.0039(15) -0.0012(14) 0.0002(16)
B7 B3+ 0.013(2) 0.012(2) 0.016(2) 0.0038(15) -0.0001(16) 0.0019(17)
B8 B3+ 0.0103(19) 0.013(2) 0.019(2) -0.0001(14) -0.0027(16) 0.0001(17)
O1 O2- 0.0081(14) 0.0252(15) 0.0118(14) 0.0010(10) 0.0006(10) 0.0047(11)
O2 O2- 0.0130(14) 0.0296(18) 0.0113(15) 0.0009(11) 0.0013(11) 0.0018(12)
O3 O2- 0.0135(14) 0.0237(15) 0.0116(14) 0.0059(11) 0.0031(11) 0.0029(11)
O4 O2- 0.0114(15) 0.0208(17) 0.0140(15) -0.0025(13) -0.0017(12) 0.0029(12)
O5 O2- 0.0105(15) 0.038(2) 0.0114(14) 0.0073(12) 0.0034(12) 0.0099(13)
O6 O2- 0.0152(14) 0.0290(16) 0.0132(14) 0.0098(11) 0.0025(11) 0.0031(12)
O7 O2- 0.0085(13) 0.0195(15) 0.0127(13) 0.0004(10) -0.0016(11) 0.0022(11)
O8 O2- 0.0120(15) 0.0201(16) 0.0156(14) 0.0034(11) 0.0033(11) 0.0060(12)
O9 O2- 0.0167(16) 0.0433(18) 0.0194(15) -0.0046(13) -0.0061(13) -0.0073(14)
O10 O2- 0.0135(15) 0.0312(16) 0.0140(14) -0.0036(11) -0.0007(12) 0.0014(12)
O11 O2- 0.0129(13) 0.0133(13) 0.0177(14) 0.0003(10) -0.0017(10) -0.0024(11)
O12 O2- 0.0153(16) 0.0256(19) 0.0186(16) -0.0009(13) -0.0073(13) 
-0.0068(13)
O13 O2- 0.0161(17) 0.0301(18) 0.0116(15) -0.0070(12) -0.0047(12) 0.0022(12)
O14 O2- 0.0108(13) 0.0227(14) 0.0169(14) 0.0044(11) -0.0036(11) -0.0011(12)
O15 O2- 0.0113(13) 0.0204(15) 0.0117(13) 0.0002(10) -0.0024(11) -0.0035(11)
O16 O2- 0.0129(15) 0.0160(15) 0.0142(14) -0.0006(10) -0.0029(11) 0.0021(11)
O17 O2- 0.0257(12) 0.0123(11) 0.0285(14) -0.0009(8) 0.000(2) -0.0005(18)
O18 O2- 0.0474(16) 0.0106(13) 0.0353(19) 0.0048(9) 0.008(2) -0.0005(18)
O19 O2- 0.0214(11) 0.0107(10) 0.0243(14) 0.0001(8) 0.0004(19) -0.0017(17)
O20 O2- 0.0156(11) 0.0095(10) 0.0207(12) 0.0012(8) 0.0021(18) 0.0014(17)
O21 O2- 0.0116(12) 0.0354(17) 0.0105(14) 0.0012(11) -0.0012(11) -0.0082(12)
O22 O2- 0.0149(13) 0.0331(18) 0.0095(15) 0.0004(11) -0.0007(10) -0.0031(12)
O23 O2- 0.0160(13) 0.0324(18) 0.0095(15) -0.0023(10) 0.0025(10) -0.0073(12)
O24 O2- 0.0165(14) 0.0301(18) 0.0128(16) 0.0036(10) -0.0006(10) -0.0075(12)
#End of data_170807-ICSD


