data_8243-ICSD
#?2014 by Fachinformationszentrum Karlsruhe, and the U.S. Secretary of 
#Commerce on behalf of the United States.  All rights reserved.
_database_code_ICSD                8243
_audit_creation_date               1980/01/01
_audit_update_record               2005/10/01
_chemical_name_systematic
;
Lithium Trihydrogen Bis(selenate(IV))
;
_chemical_formula_structural       'Li H3 (Se O3)2'
_chemical_formula_sum              'H3 Li1 O6 Se2'
_publ_section_title
;
Absolute atomic arrangement of ferroelectric lithium 
trihydrogendiselenite
;
loop_
_citation_id
_citation_journal_abbrev
_citation_year
_citation_journal_volume
_citation_page_first
_citation_page_last
_citation_journal_id_ASTM
primary 'Acta Crystallographica B (24,1968-38,1982)' 1979 35 2692 2695 ACBCAR
2 'Golden Book of Phase Transitions, Wroclaw' 2002 1 1 123 GBOPT5
_publ_author_name
;
Chomnilpan, A.;Liminga, R.;Tellgren, R.
;
_cell_length_a                     6.2554(3)
_cell_length_b                     7.8823(5)
_cell_length_c                     5.4339(5)
_cell_angle_alpha                  90.
_cell_angle_beta                   105.325(5)
_cell_angle_gamma                  90.
_cell_volume                       258.4
_cell_formula_units_Z              2
_symmetry_space_group_name_H-M     'P 1 n 1'
_symmetry_Int_Tables_number        7
_refine_ls_R_factor_all            .0265
loop_
_symmetry_equiv_pos_site_id
_symmetry_equiv_pos_as_xyz
  1	'x+.5, -y, z+.5'
  2	'x, y, z'
loop_
_atom_type_symbol
_atom_type_oxidation_number
H1+	1
Li1+	1
O2-	-2
Se4+	4
loop_
_atom_site_label
_atom_site_type_symbol
_atom_site_symmetry_multiplicity
_atom_site_Wyckoff_symbol
_atom_site_fract_x
_atom_site_fract_y
_atom_site_fract_z
_atom_site_occupancy
_atom_site_attached_hydrogens
Se1 Se4+ 2 a 0.267 0.39508(16) 0.412 1. 0 
Se2 Se4+ 2 a 0.73288(17) 0.10069(15) 0.58909(19) 1. 0 
O1 O2- 2 a 0.30689(35) 0.22793(22) 0.63312(35) 1. 0 
O2 O2- 2 a 0.70152(34) 0.27426(21) 0.39822(35) 1. 0 
O3 O2- 2 a 0.19762(36) 0.29062(23) 0.13821(36) 1. 0 
O4 O2- 2 a 0.78973(37) 0.20126(23) 0.88927(35) 1. 0 
O5 O2- 2 a 0.01903(35) 0.47579(24) 0.44549(34) 1. 0 
O6 O2- 2 a 0.97983(32) 0.02481(22) 0.58330(33) 1. 0 
Li1 Li1+ 2 a 0.4906(12) 0.2495(11) 0.0204(11) 1. 0 
H1 H1+ 2 a 0.1809(7) 0.14571(44) 0.59946(59) 1. 0 
H2 H1+ 2 a 0.87977(83) 0.38014(53) 0.42774(66) 1. 0 
H3 H1+ 2 a 0.94842(50) 0.23056(35) 0.97213(55) 1. 0 

#End of data_8243-ICSD


